/*--------------------------------*- C++ -*----------------------------------*\
  =========                 |
  \\      /  F ield         | OpenFOAM: The Open Source CFD Toolbox
   \\    /   O peration     | Website:  https://openfoam.org
    \\  /    A nd           | Version:  7
     \\/     M anipulation  |
\*---------------------------------------------------------------------------*/
FoamFile
{
    version     2.0;
    format      ascii;
    class       surfaceScalarField;
    location    "0.425";
    object      phi;
}
// * * * * * * * * * * * * * * * * * * * * * * * * * * * * * * * * * * * * * //

dimensions      [0 3 -1 0 0 0 0];

internalField   nonuniform List<scalar> 
25360
(
1.14127e-10
-1.14513e-10
3.59515e-10
-2.45375e-10
6.04207e-10
-2.44698e-10
7.65092e-10
-1.60907e-10
7.98078e-10
-3.29803e-11
6.81369e-10
1.16733e-10
4.06337e-10
2.75052e-10
-2.76929e-11
4.34034e-10
-6.16591e-10
5.8889e-10
-1.35333e-09
7.36735e-10
-2.22914e-09
8.7582e-10
-3.23426e-09
1.00513e-09
-4.35839e-09
1.12413e-09
-5.59099e-09
1.2326e-09
-6.92156e-09
1.33056e-09
-8.33972e-09
1.41816e-09
-9.83536e-09
1.49564e-09
-1.13987e-08
1.56335e-09
-1.30204e-08
1.62167e-09
-1.46914e-08
1.67103e-09
-1.64033e-08
1.71187e-09
-1.81479e-08
1.74467e-09
-1.99178e-08
1.7699e-09
-2.17059e-08
1.78802e-09
-2.35054e-08
1.79952e-09
-2.53103e-08
1.80487e-09
-2.71148e-08
1.80452e-09
-2.89137e-08
1.79892e-09
-3.07022e-08
1.78851e-09
-3.24759e-08
1.77372e-09
-3.42309e-08
1.75495e-09
-3.59635e-08
1.7326e-09
-3.76705e-08
1.70703e-09
-3.93491e-08
1.67861e-09
-4.09968e-08
1.64768e-09
-4.26113e-08
1.61454e-09
-4.41908e-08
1.57951e-09
-4.57337e-08
1.54287e-09
-4.72386e-08
1.50488e-09
-4.87044e-08
1.46579e-09
-5.01302e-08
1.42583e-09
-5.15154e-08
1.38521e-09
-5.28595e-08
1.34413e-09
-5.41623e-08
1.30277e-09
-5.54236e-08
1.26128e-09
-5.66434e-08
1.21982e-09
-5.78219e-08
1.17852e-09
-5.89594e-08
1.13749e-09
-6.00562e-08
1.09685e-09
-6.11129e-08
1.05669e-09
-6.213e-08
1.01709e-09
-6.31081e-08
9.78111e-10
-6.40479e-08
9.3982e-10
-6.49502e-08
9.02262e-10
-6.58157e-08
8.65476e-10
-6.66452e-08
8.29492e-10
-6.74395e-08
7.9433e-10
-6.81995e-08
7.60003e-10
-6.8926e-08
7.26514e-10
-6.96199e-08
6.93861e-10
-7.02819e-08
6.62036e-10
-7.09129e-08
6.31026e-10
-7.15137e-08
6.0081e-10
-7.20851e-08
5.71359e-10
-7.26277e-08
5.42644e-10
-7.31424e-08
5.1463e-10
-7.36296e-08
4.8728e-10
-7.40902e-08
4.6055e-10
-7.45246e-08
4.34391e-10
-7.49333e-08
4.08748e-10
-7.53169e-08
3.83568e-10
-7.56757e-08
3.58799e-10
-7.60101e-08
3.34383e-10
-7.63203e-08
3.10257e-10
-7.66067e-08
2.86354e-10
-7.68693e-08
2.62607e-10
-7.71082e-08
2.3895e-10
-7.73235e-08
2.15317e-10
-7.75152e-08
1.9164e-10
-7.7683e-08
1.67844e-10
-7.78269e-08
1.43854e-10
-7.79465e-08
1.19595e-10
-7.80415e-08
9.49926e-11
-7.81114e-08
6.99752e-11
-7.81559e-08
4.44695e-11
-7.81743e-08
1.84012e-11
-7.8166e-08
-8.30402e-12
-7.81303e-08
-3.57195e-11
-7.80664e-08
-6.39173e-11
-7.79734e-08
-9.2968e-11
-7.78504e-08
-1.22941e-10
-7.76965e-08
-1.53903e-10
-7.75106e-08
-1.85919e-10
-7.72916e-08
-2.19048e-10
-7.70382e-08
-2.53348e-10
-7.67494e-08
-2.88872e-10
-7.64237e-08
-3.25671e-10
-7.60599e-08
-3.63788e-10
-7.56566e-08
-4.0326e-10
-7.52125e-08
-4.44119e-10
-7.47261e-08
-4.8639e-10
-7.4196e-08
-5.30089e-10
-7.36208e-08
-5.75224e-10
-7.2999e-08
-6.21795e-10
-7.23292e-08
-6.69789e-10
-7.161e-08
-7.19183e-10
-7.08401e-08
-7.69943e-10
-7.00181e-08
-8.22021e-10
-6.91427e-08
-8.75357e-10
-6.82128e-08
-9.29876e-10
-6.72273e-08
-9.85487e-10
-6.61853e-08
-1.04208e-09
-6.50857e-08
-1.09954e-09
-6.3928e-08
-1.15772e-09
-6.27116e-08
-1.21645e-09
-6.1436e-08
-1.27556e-09
-6.01011e-08
-1.33486e-09
-5.8707e-08
-1.39411e-09
-5.72539e-08
-1.45309e-09
-5.57424e-08
-1.51152e-09
-5.41733e-08
-1.56912e-09
-5.25477e-08
-1.6256e-09
-5.08671e-08
-1.68062e-09
-4.91332e-08
-1.73384e-09
-4.73483e-08
-1.78489e-09
-4.5515e-08
-1.83338e-09
-4.36361e-08
-1.8789e-09
-4.1715e-08
-1.92103e-09
-3.97557e-08
-1.95933e-09
-3.77624e-08
-1.99333e-09
-3.57398e-08
-2.02256e-09
-3.36933e-08
-2.04654e-09
-3.16285e-08
-2.06476e-09
-2.95518e-08
-2.07673e-09
-2.74698e-08
-2.08193e-09
-2.539e-08
-2.07984e-09
-2.33201e-08
-2.06995e-09
-2.12683e-08
-2.05175e-09
-1.92436e-08
-2.02473e-09
-1.72552e-08
-1.9884e-09
-1.53129e-08
-1.94226e-09
-1.3427e-08
-1.88588e-09
-1.16082e-08
-1.8188e-09
-9.86759e-09
-1.74065e-09
-8.21652e-09
-1.65106e-09
-6.66675e-09
-1.54977e-09
-5.23019e-09
-1.43656e-09
-3.91883e-09
-1.31137e-09
-2.74458e-09
-1.17425e-09
-1.71905e-09
-1.02553e-09
-8.53216e-10
-8.65834e-10
-1.56913e-10
-6.96304e-10
3.61945e-10
-5.18859e-10
6.98608e-10
-3.36665e-10
8.5357e-10
-1.54964e-10
8.36067e-10
1.7502e-11
6.6992e-10
1.66148e-10
4.03884e-10
2.66037e-10
1.30767e-10
2.73118e-10
1.30765e-10
2.45344e-10
-3.5985e-10
6.33962e-10
-6.33906e-10
9.50079e-10
-5.60721e-10
1.04689e-09
-2.57708e-10
8.28553e-10
1.85296e-10
2.38619e-10
7.06609e-10
-7.51274e-10
1.26493e-09
-2.15016e-09
1.83293e-09
-3.95392e-09
2.39267e-09
-6.14959e-09
2.93241e-09
-8.71829e-09
3.44452e-09
-1.16373e-08
3.92416e-09
-1.48816e-08
4.3684e-09
-1.84247e-08
4.77568e-09
-2.22395e-08
5.14537e-09
-2.62988e-08
5.47753e-09
-3.05759e-08
5.77272e-09
-3.50444e-08
6.03186e-09
-3.96789e-08
6.25613e-09
-4.44548e-08
6.44691e-09
-4.93486e-08
6.60572e-09
-5.43381e-08
6.73416e-09
-5.94021e-08
6.83389e-09
-6.45207e-08
6.90663e-09
-6.96752e-08
6.95408e-09
-7.48483e-08
6.97796e-09
-8.00238e-08
6.97997e-09
-8.51867e-08
6.96178e-09
-9.03232e-08
6.92502e-09
-9.54207e-08
6.87126e-09
-1.00468e-07
6.80205e-09
-1.05454e-07
6.71886e-09
-1.1037e-07
6.62311e-09
-1.15208e-07
6.51616e-09
-1.19959e-07
6.3993e-09
-1.24618e-07
6.27376e-09
-1.2918e-07
6.14068e-09
-1.33638e-07
6.00115e-09
-1.37989e-07
5.8562e-09
-1.4223e-07
5.70678e-09
-1.46358e-07
5.55378e-09
-1.50371e-07
5.39802e-09
-1.54267e-07
5.24026e-09
-1.58046e-07
5.08119e-09
-1.61706e-07
4.92144e-09
-1.65247e-07
4.76161e-09
-1.68671e-07
4.60221e-09
-1.71977e-07
4.4437e-09
-1.75167e-07
4.2865e-09
-1.78241e-07
4.13099e-09
-1.81202e-07
3.97749e-09
-1.8405e-07
3.82626e-09
-1.86788e-07
3.67754e-09
-1.89417e-07
3.53153e-09
-1.9194e-07
3.38837e-09
-1.94358e-07
3.2482e-09
-1.96675e-07
3.1111e-09
-1.98892e-07
2.97712e-09
-2.01012e-07
2.84629e-09
-2.03037e-07
2.71861e-09
-2.04969e-07
2.59405e-09
-2.0681e-07
2.47257e-09
-2.08564e-07
2.35407e-09
-2.10231e-07
2.23848e-09
-2.11814e-07
2.12568e-09
-2.13315e-07
2.01552e-09
-2.14735e-07
1.90787e-09
-2.16077e-07
1.80257e-09
-2.17342e-07
1.69943e-09
-2.18532e-07
1.59826e-09
-2.19647e-07
1.49885e-09
-2.20689e-07
1.40099e-09
-2.21659e-07
1.30445e-09
-2.22558e-07
1.20901e-09
-2.23386e-07
1.11441e-09
-2.24144e-07
1.02039e-09
-2.24832e-07
9.26716e-10
-2.2545e-07
8.33107e-10
-2.25997e-07
7.39297e-10
-2.26474e-07
6.45014e-10
-2.2688e-07
5.49978e-10
-2.27215e-07
4.53907e-10
-2.27476e-07
3.56518e-10
-2.27664e-07
2.57529e-10
-2.27776e-07
1.56655e-10
-2.27811e-07
5.36135e-11
-2.27768e-07
-5.1877e-11
-2.27643e-07
-1.60095e-10
-2.27436e-07
-2.71312e-10
-2.27143e-07
-3.85794e-10
-2.26762e-07
-5.03803e-10
-2.26291e-07
-6.25588e-10
-2.25725e-07
-7.51393e-10
-2.25063e-07
-8.81446e-10
-2.243e-07
-1.01596e-09
-2.23434e-07
-1.15514e-09
-2.2246e-07
-1.29916e-09
-2.21376e-07
-1.44818e-09
-2.20177e-07
-1.60234e-09
-2.18859e-07
-1.76176e-09
-2.17419e-07
-1.92651e-09
-2.15852e-07
-2.09665e-09
-2.14155e-07
-2.27221e-09
-2.12324e-07
-2.45315e-09
-2.10354e-07
-2.63944e-09
-2.08243e-07
-2.83096e-09
-2.05985e-07
-3.02758e-09
-2.03578e-07
-3.22911e-09
-2.01018e-07
-3.43529e-09
-1.98302e-07
-3.64583e-09
-1.95427e-07
-3.86036e-09
-1.92391e-07
-4.07847e-09
-1.89191e-07
-4.29967e-09
-1.85825e-07
-4.52339e-09
-1.82292e-07
-4.74902e-09
-1.78592e-07
-4.97587e-09
-1.74724e-07
-5.20314e-09
-1.70688e-07
-5.43e-09
-1.66485e-07
-5.65552e-09
-1.62118e-07
-5.87869e-09
-1.57589e-07
-6.09841e-09
-1.52901e-07
-6.31353e-09
-1.48059e-07
-6.52278e-09
-1.43068e-07
-6.72485e-09
-1.37934e-07
-6.91833e-09
-1.32666e-07
-7.10174e-09
-1.27271e-07
-7.27354e-09
-1.2176e-07
-7.4321e-09
-1.16144e-07
-7.57575e-09
-1.10435e-07
-7.70275e-09
-1.04646e-07
-7.81131e-09
-9.87927e-08
-7.89961e-09
-9.28917e-08
-7.96579e-09
-8.69605e-08
-8.00795e-09
-8.10182e-08
-8.02419e-09
-7.50855e-08
-8.01261e-09
-6.91841e-08
-7.9713e-09
-6.33375e-08
-7.89841e-09
-5.75701e-08
-7.79209e-09
-5.19079e-08
-7.65057e-09
-4.6378e-08
-7.47217e-09
-4.10086e-08
-7.25531e-09
-3.58289e-08
-6.99855e-09
-3.08689e-08
-6.70063e-09
-2.61594e-08
-6.36054e-09
-2.17316e-08
-5.97756e-09
-1.76168e-08
-5.5514e-09
-1.38459e-08
-5.08229e-09
-1.04489e-08
-4.5712e-09
-7.45431e-09
-4.02013e-09
-4.88764e-09
-3.4325e-09
-2.77018e-09
-2.81377e-09
-1.11663e-09
-2.17241e-09
6.81143e-11
-1.52141e-09
7.93671e-10
-8.80524e-10
1.0911e-09
-2.79938e-10
1.02282e-09
2.34431e-10
6.95391e-10
5.93459e-10
2.73144e-10
6.95365e-10
4.0391e-10
2.45801e-10
-6.05658e-10
5.63501e-10
-9.51624e-10
6.97938e-10
-6.95122e-10
4.75049e-10
-3.47843e-11
-2.24878e-10
8.85229e-10
-1.47773e-09
1.95944e-09
-3.32536e-09
3.11255e-09
-5.78433e-09
4.2919e-09
-8.85266e-09
5.46101e-09
-1.2515e-08
6.59477e-09
-1.67466e-08
7.67613e-09
-2.15162e-08
8.69372e-09
-2.6788e-08
9.64024e-09
-3.25237e-08
1.05114e-08
-3.86832e-08
1.13049e-08
-4.5226e-08
1.20203e-08
-5.21113e-08
1.2658e-08
-5.92991e-08
1.32197e-08
-6.67503e-08
1.37073e-08
-7.44269e-08
1.41235e-08
-8.22925e-08
1.44713e-08
-9.03121e-08
1.47538e-08
-9.84528e-08
1.49745e-08
-1.06683e-07
1.51369e-08
-1.14973e-07
1.52445e-08
-1.23296e-07
1.53009e-08
-1.31626e-07
1.53097e-08
-1.39939e-07
1.52744e-08
-1.48212e-07
1.51985e-08
-1.56426e-07
1.50854e-08
-1.64563e-07
1.49384e-08
-1.72605e-07
1.47607e-08
-1.80537e-07
1.45553e-08
-1.88346e-07
1.43251e-08
-1.96019e-07
1.40729e-08
-2.03547e-07
1.38014e-08
-2.10919e-07
1.35132e-08
-2.18129e-07
1.32105e-08
-2.25168e-07
1.28956e-08
-2.32032e-07
1.25706e-08
-2.38716e-07
1.22375e-08
-2.45216e-07
1.1898e-08
-2.51529e-07
1.15537e-08
-2.57654e-07
1.12063e-08
-2.6359e-07
1.08572e-08
-2.69336e-07
1.05075e-08
-2.74892e-07
1.01585e-08
-2.8026e-07
9.81118e-09
-2.8544e-07
9.46649e-09
-2.90434e-07
9.12523e-09
-2.95244e-07
8.78812e-09
-2.99874e-07
8.45578e-09
-3.04325e-07
8.12873e-09
-3.08601e-07
7.8074e-09
-3.12705e-07
7.49216e-09
-3.1664e-07
7.18327e-09
-3.2041e-07
6.88093e-09
-3.24018e-07
6.58528e-09
-3.27468e-07
6.29639e-09
-3.30764e-07
6.01426e-09
-3.33908e-07
5.73884e-09
-3.36906e-07
5.47003e-09
-3.39759e-07
5.20767e-09
-3.42472e-07
4.95157e-09
-3.45048e-07
4.70148e-09
-3.4749e-07
4.45712e-09
-3.498e-07
4.21816e-09
-3.51982e-07
3.98426e-09
-3.54037e-07
3.75503e-09
-3.55969e-07
3.53005e-09
-3.57779e-07
3.30888e-09
-3.59469e-07
3.09105e-09
-3.61041e-07
2.87607e-09
-3.62495e-07
2.66344e-09
-3.63834e-07
2.45262e-09
-3.65056e-07
2.24306e-09
-3.66164e-07
2.03421e-09
-3.67156e-07
1.82548e-09
-3.68033e-07
1.61629e-09
-3.68794e-07
1.40604e-09
-3.69438e-07
1.19414e-09
-3.69964e-07
9.79976e-10
-3.70371e-07
7.62923e-10
-3.70656e-07
5.42369e-10
-3.70817e-07
3.177e-10
-3.70851e-07
8.83041e-11
-3.70757e-07
-1.46426e-10
-3.7053e-07
-3.87092e-10
-3.70167e-07
-6.34284e-10
-3.69664e-07
-8.88579e-10
-3.69017e-07
-1.15054e-09
-3.68222e-07
-1.4207e-09
-3.67274e-07
-1.69957e-09
-3.66168e-07
-1.98766e-09
-3.64898e-07
-2.28542e-09
-3.6346e-07
-2.59327e-09
-3.61848e-07
-2.91159e-09
-3.60055e-07
-3.24073e-09
-3.58077e-07
-3.58096e-09
-3.55906e-07
-3.93252e-09
-3.53537e-07
-4.29558e-09
-3.50963e-07
-4.67024e-09
-3.48179e-07
-5.05653e-09
-3.45178e-07
-5.4544e-09
-3.41953e-07
-5.86371e-09
-3.385e-07
-6.28422e-09
-3.34812e-07
-6.71561e-09
-3.30884e-07
-7.15743e-09
-3.2671e-07
-7.60914e-09
-3.22286e-07
-8.07005e-09
-3.17607e-07
-8.53938e-09
-3.12669e-07
-9.01617e-09
-3.07469e-07
-9.49935e-09
-3.02005e-07
-9.98771e-09
-2.96274e-07
-1.04799e-08
-2.90276e-07
-1.09743e-08
-2.8401e-07
-1.14692e-08
-2.77477e-07
-1.19629e-08
-2.70679e-07
-1.24532e-08
-2.6362e-07
-1.2938e-08
-2.56303e-07
-1.34149e-08
-2.48735e-07
-1.38814e-08
-2.40923e-07
-1.43347e-08
-2.32876e-07
-1.47719e-08
-2.24605e-07
-1.51901e-08
-2.1612e-07
-1.55859e-08
-2.07438e-07
-1.59562e-08
-1.98573e-07
-1.62973e-08
-1.89543e-07
-1.66056e-08
-1.80368e-07
-1.68775e-08
-1.7107e-07
-1.7109e-08
-1.61674e-07
-1.72963e-08
-1.52204e-07
-1.74354e-08
-1.4269e-07
-1.75222e-08
-1.33161e-07
-1.75528e-08
-1.23651e-07
-1.7523e-08
-1.14193e-07
-1.74289e-08
-1.04825e-07
-1.72665e-08
-9.55849e-08
-1.70322e-08
-8.65134e-08
-1.67221e-08
-7.76526e-08
-1.63329e-08
-6.90465e-08
-1.58615e-08
-6.07401e-08
-1.5305e-08
-5.27795e-08
-1.46611e-08
-4.52119e-08
-1.39282e-08
-3.80843e-08
-1.31052e-08
-3.14436e-08
-1.21921e-08
-2.53357e-08
-1.11902e-08
-1.98043e-08
-1.01026e-08
-1.48899e-08
-8.93451e-09
-1.06279e-08
-7.69449e-09
-7.0463e-09
-6.39541e-09
-4.1624e-09
-5.05631e-09
-1.9788e-09
-3.70501e-09
-4.77443e-10
-2.38188e-09
3.87879e-10
-1.14526e-09
7.01319e-10
-7.90125e-11
5.96163e-10
6.98612e-10
2.66932e-10
1.02459e-09
6.70843e-10
1.63812e-10
-7.69426e-10
2.64842e-10
-1.05269e-09
4.43906e-11
-4.74705e-10
-6.77931e-10
6.87527e-10
-2.0289e-09
2.23621e-09
-4.09177e-09
4.02231e-09
-6.91464e-09
5.93541e-09
-1.0518e-08
7.89529e-09
-1.49012e-08
9.84421e-09
-2.00474e-08
1.1741e-08
-2.59279e-08
1.35566e-08
-3.25052e-08
1.5271e-08
-3.97359e-08
1.68709e-08
-4.75724e-08
1.83478e-08
-5.59645e-08
1.9697e-08
-6.48608e-08
2.09166e-08
-7.42093e-08
2.20066e-08
-8.39586e-08
2.29689e-08
-9.40578e-08
2.38065e-08
-1.04458e-07
2.45234e-08
-1.1511e-07
2.5124e-08
-1.2597e-07
2.56137e-08
-1.36993e-07
2.59977e-08
-1.48139e-07
2.6282e-08
-1.59366e-07
2.64723e-08
-1.7064e-07
2.65747e-08
-1.81926e-07
2.65951e-08
-1.93191e-07
2.65395e-08
-2.04406e-07
2.64137e-08
-2.15544e-07
2.62234e-08
-2.2658e-07
2.59744e-08
-2.37491e-07
2.56719e-08
-2.48257e-07
2.53212e-08
-2.58859e-07
2.49273e-08
-2.69281e-07
2.4495e-08
-2.79508e-07
2.40288e-08
-2.89528e-07
2.35332e-08
-2.9933e-07
2.30121e-08
-3.08904e-07
2.24695e-08
-3.18242e-07
2.19089e-08
-3.27338e-07
2.13337e-08
-3.36187e-07
2.0747e-08
-3.44785e-07
2.01517e-08
-3.5313e-07
1.95505e-08
-3.61218e-07
1.89458e-08
-3.6905e-07
1.83398e-08
-3.76626e-07
1.77345e-08
-3.83947e-07
1.71318e-08
-3.91014e-07
1.65333e-08
-3.97829e-07
1.59404e-08
-4.04395e-07
1.53543e-08
-4.10716e-07
1.47762e-08
-4.16794e-07
1.42069e-08
-4.22634e-07
1.36473e-08
-4.2824e-07
1.3098e-08
-4.33616e-07
1.25594e-08
-4.38767e-07
1.2032e-08
-4.43697e-07
1.15159e-08
-4.48412e-07
1.10113e-08
-4.52916e-07
1.05183e-08
-4.57214e-07
1.00367e-08
-4.61311e-07
9.56639e-09
-4.6521e-07
9.10712e-09
-4.68917e-07
8.65856e-09
-4.72436e-07
8.22028e-09
-4.75771e-07
7.79181e-09
-4.78925e-07
7.3726e-09
-4.81903e-07
6.96205e-09
-4.84707e-07
6.55949e-09
-4.87341e-07
6.16422e-09
-4.89808e-07
5.77548e-09
-4.92109e-07
5.39245e-09
-4.94248e-07
5.0143e-09
-4.96224e-07
4.64015e-09
-4.98041e-07
4.26909e-09
-4.99698e-07
3.90018e-09
-5.01196e-07
3.53245e-09
-5.02536e-07
3.16491e-09
-5.03716e-07
2.79654e-09
-5.04736e-07
2.42633e-09
-5.05595e-07
2.05323e-09
-5.06291e-07
1.67619e-09
-5.06823e-07
1.29416e-09
-5.07186e-07
9.06081e-10
-5.0738e-07
5.1089e-10
-5.07399e-07
1.07537e-10
-5.0724e-07
-3.05019e-10
-5.06899e-07
-7.27808e-10
-5.06372e-07
-1.16184e-09
-5.05652e-07
-1.6081e-09
-5.04735e-07
-2.06755e-09
-5.03615e-07
-2.54111e-09
-5.02285e-07
-3.02966e-09
-5.00739e-07
-3.53403e-09
-4.98969e-07
-4.055e-09
-4.96969e-07
-4.59328e-09
-4.94731e-07
-5.14952e-09
-4.92247e-07
-5.72429e-09
-4.8951e-07
-6.31806e-09
-4.86512e-07
-6.9312e-09
-4.83243e-07
-7.564e-09
-4.79697e-07
-8.2166e-09
-4.75864e-07
-8.88903e-09
-4.71738e-07
-9.58117e-09
-4.67309e-07
-1.02928e-08
-4.62569e-07
-1.10234e-08
-4.57512e-07
-1.17725e-08
-4.52131e-07
-1.25392e-08
-4.46417e-07
-1.33226e-08
-4.40366e-07
-1.41215e-08
-4.33971e-07
-1.49344e-08
-4.27227e-07
-1.57598e-08
-4.20131e-07
-1.65958e-08
-4.12678e-07
-1.74401e-08
-4.04868e-07
-1.82905e-08
-3.96698e-07
-1.91443e-08
-3.88168e-07
-1.99985e-08
-3.79281e-07
-2.08498e-08
-3.7004e-07
-2.16949e-08
-3.60448e-07
-2.25299e-08
-3.50512e-07
-2.33507e-08
-3.40241e-07
-2.41528e-08
-3.29644e-07
-2.49317e-08
-3.18733e-07
-2.56825e-08
-3.07523e-07
-2.63997e-08
-2.96031e-07
-2.70781e-08
-2.84276e-07
-2.77117e-08
-2.72278e-07
-2.82947e-08
-2.60063e-07
-2.8821e-08
-2.47656e-07
-2.9284e-08
-2.35088e-07
-2.96772e-08
-2.2239e-07
-2.99941e-08
-2.09598e-07
-3.02279e-08
-1.96748e-07
-3.03717e-08
-1.83882e-07
-3.04187e-08
-1.71043e-07
-3.03622e-08
-1.58277e-07
-3.01955e-08
-1.45631e-07
-2.9912e-08
-1.33158e-07
-2.95055e-08
-1.2091e-07
-2.89701e-08
-1.08943e-07
-2.83001e-08
-9.73134e-08
-2.74906e-08
-8.6081e-08
-2.65374e-08
-7.53052e-08
-2.54369e-08
-6.50465e-08
-2.41869e-08
-5.53651e-08
-2.27865e-08
-4.63206e-08
-2.12366e-08
-3.79705e-08
-1.95403e-08
-3.03692e-08
-1.77039e-08
-2.3566e-08
-1.57377e-08
-1.76032e-08
-1.36573e-08
-1.25133e-08
-1.14853e-08
-8.31542e-09
-9.25423e-09
-5.01052e-09
-7.00992e-09
-2.57601e-09
-4.81638e-09
-9.5862e-10
-2.76265e-09
-6.59241e-11
-9.71709e-10
2.43029e-10
3.89657e-10
1.69031e-10
1.09859e-09
8.39873e-10
3.78001e-11
-8.07192e-10
-1.7408e-10
-8.40808e-10
-8.70459e-10
2.21637e-10
-2.2214e-09
2.03844e-09
-4.34871e-09
4.36351e-09
-7.33392e-09
7.00753e-09
-1.1225e-08
9.82652e-09
-1.60425e-08
1.27128e-08
-2.1785e-08
1.55867e-08
-2.84336e-08
1.83896e-08
-3.59562e-08
2.10792e-08
-4.43104e-08
2.36253e-08
-5.34467e-08
2.60072e-08
-6.33102e-08
2.82113e-08
-7.38426e-08
3.02294e-08
-8.49837e-08
3.20576e-08
-9.66721e-08
3.3695e-08
-1.08847e-07
3.51436e-08
-1.21447e-07
3.64071e-08
-1.34415e-07
3.74906e-08
-1.47691e-07
3.84005e-08
-1.61221e-07
3.91441e-08
-1.74953e-07
3.97291e-08
-1.88835e-07
4.01639e-08
-2.0282e-07
4.04571e-08
-2.16862e-07
4.06174e-08
-2.30921e-07
4.06535e-08
-2.44956e-07
4.05744e-08
-2.58931e-07
4.03887e-08
-2.72812e-07
4.0105e-08
-2.86569e-07
3.97316e-08
-3.00174e-07
3.92767e-08
-3.13601e-07
3.87481e-08
-3.26827e-07
3.81534e-08
-3.39832e-07
3.74997e-08
-3.52597e-07
3.6794e-08
-3.65107e-07
3.60429e-08
-3.77347e-07
3.52525e-08
-3.89307e-07
3.44287e-08
-4.00975e-07
3.35769e-08
-4.12343e-07
3.27023e-08
-4.23406e-07
3.18096e-08
-4.34157e-07
3.09033e-08
-4.44594e-07
2.99873e-08
-4.54714e-07
2.90655e-08
-4.64516e-07
2.81412e-08
-4.73999e-07
2.72176e-08
-4.83164e-07
2.62973e-08
-4.92014e-07
2.53829e-08
-5.0055e-07
2.44766e-08
-5.08776e-07
2.35803e-08
-5.16695e-07
2.26957e-08
-5.24312e-07
2.18242e-08
-5.31632e-07
2.0967e-08
-5.38659e-07
2.01252e-08
-5.45399e-07
1.92995e-08
-5.51858e-07
1.84904e-08
-5.5804e-07
1.76983e-08
-5.63952e-07
1.69235e-08
-5.696e-07
1.61661e-08
-5.74989e-07
1.54259e-08
-5.80126e-07
1.47026e-08
-5.85015e-07
1.3996e-08
-5.89662e-07
1.33055e-08
-5.94072e-07
1.26305e-08
-5.9825e-07
1.19704e-08
-6.02202e-07
1.13241e-08
-6.05931e-07
1.0691e-08
-6.09441e-07
1.00699e-08
-6.12737e-07
9.4598e-09
-6.15821e-07
8.85954e-09
-6.18696e-07
8.26791e-09
-6.21366e-07
7.68363e-09
-6.23831e-07
7.10537e-09
-6.26093e-07
6.53175e-09
-6.28155e-07
5.96135e-09
-6.30015e-07
5.39271e-09
-6.31674e-07
4.82431e-09
-6.33132e-07
4.25462e-09
-6.34388e-07
3.6821e-09
-6.3544e-07
3.10517e-09
-6.36286e-07
2.52224e-09
-6.36924e-07
1.93171e-09
-6.3735e-07
1.33198e-09
-6.3756e-07
7.21453e-10
-6.37551e-07
9.85358e-11
-6.37318e-07
-5.38346e-10
-6.36855e-07
-1.19075e-09
-6.36157e-07
-1.86019e-09
-6.35216e-07
-2.54815e-09
-6.34028e-07
-3.25608e-09
-6.32584e-07
-3.98537e-09
-6.30876e-07
-4.73733e-09
-6.28897e-07
-5.51321e-09
-6.26638e-07
-6.31418e-09
-6.2409e-07
-7.14129e-09
-6.21244e-07
-7.99551e-09
-6.1809e-07
-8.87766e-09
-6.1462e-07
-9.78845e-09
-6.10823e-07
-1.07284e-08
-6.06689e-07
-1.1698e-08
-6.02208e-07
-1.26973e-08
-5.97371e-07
-1.37264e-08
-5.92167e-07
-1.47851e-08
-5.86586e-07
-1.5873e-08
-5.80621e-07
-1.69893e-08
-5.7426e-07
-1.81332e-08
-5.67496e-07
-1.93034e-08
-5.6032e-07
-2.04984e-08
-5.52725e-07
-2.17164e-08
-5.44704e-07
-2.29552e-08
-5.36252e-07
-2.42123e-08
-5.27363e-07
-2.54847e-08
-5.18033e-07
-2.67694e-08
-5.08262e-07
-2.80625e-08
-4.98046e-07
-2.936e-08
-4.87387e-07
-3.06575e-08
-4.76287e-07
-3.195e-08
-4.64749e-07
-3.32322e-08
-4.52781e-07
-3.44984e-08
-4.40389e-07
-3.57423e-08
-4.27585e-07
-3.69573e-08
-4.1438e-07
-3.81363e-08
-4.00791e-07
-3.92718e-08
-3.86835e-07
-4.03559e-08
-3.72532e-07
-4.13804e-08
-3.57907e-07
-4.23366e-08
-3.42987e-07
-4.32155e-08
-3.278e-07
-4.40078e-08
-3.1238e-07
-4.4704e-08
-2.96763e-07
-4.52942e-08
-2.80989e-07
-4.57684e-08
-2.651e-07
-4.61167e-08
-2.49143e-07
-4.63289e-08
-2.33167e-07
-4.63947e-08
-2.17225e-07
-4.63043e-08
-2.01372e-07
-4.60477e-08
-1.85669e-07
-4.56155e-08
-1.70176e-07
-4.49984e-08
-1.54958e-07
-4.41879e-08
-1.40082e-07
-4.31761e-08
-1.25617e-07
-4.19559e-08
-1.11633e-07
-4.05217e-08
-9.82008e-08
-3.88689e-08
-8.53929e-08
-3.69948e-08
-7.32803e-08
-3.48992e-08
-6.19326e-08
-3.25842e-08
-5.14169e-08
-3.0056e-08
-4.17958e-08
-2.7325e-08
-3.31258e-08
-2.44077e-08
-2.54547e-08
-2.13284e-08
-1.88189e-08
-1.81211e-08
-1.32395e-08
-1.48336e-08
-8.71845e-09
-1.1531e-08
-5.23286e-09
-8.30198e-09
-2.72951e-09
-5.266e-09
-1.11792e-09
-2.5833e-09
-2.63062e-10
-4.65203e-10
2.32859e-11
8.12239e-10
8.63158e-10
-1.10581e-10
-6.96617e-10
-6.93965e-10
-2.57409e-10
-1.94603e-09
1.47369e-09
-4.01461e-09
4.107e-09
-7.00749e-09
7.35638e-09
-1.09975e-08
1.09975e-08
-1.6027e-08
1.48561e-08
-2.21128e-08
1.87986e-08
-2.92502e-08
2.27241e-08
-3.74171e-08
2.65565e-08
-4.65776e-08
3.02396e-08
-5.66847e-08
3.37325e-08
-6.76836e-08
3.70061e-08
-7.95132e-08
4.0041e-08
-9.21086e-08
4.28248e-08
-1.05402e-07
4.5351e-08
-1.19324e-07
4.76175e-08
-1.33807e-07
4.96259e-08
-1.4878e-07
5.13804e-08
-1.64177e-07
5.28875e-08
-1.79932e-07
5.41553e-08
-1.95981e-07
5.51932e-08
-2.12263e-07
5.60115e-08
-2.28721e-07
5.66213e-08
-2.45298e-07
5.70341e-08
-2.61942e-07
5.72619e-08
-2.78605e-07
5.73165e-08
-2.95241e-07
5.72101e-08
-3.11807e-07
5.69545e-08
-3.28263e-07
5.65615e-08
-3.44574e-07
5.60428e-08
-3.60707e-07
5.54094e-08
-3.76631e-07
5.46724e-08
-3.9232e-07
5.38421e-08
-4.07749e-07
5.29287e-08
-4.22897e-07
5.19417e-08
-4.37744e-07
5.08903e-08
-4.52275e-07
4.97832e-08
-4.66474e-07
4.86284e-08
-4.80331e-07
4.74338e-08
-4.93835e-07
4.62064e-08
-5.06979e-07
4.4953e-08
-5.19755e-07
4.36796e-08
-5.3216e-07
4.23922e-08
-5.4419e-07
4.10958e-08
-5.55844e-07
3.97954e-08
-5.67122e-07
3.84952e-08
-5.78024e-07
3.71992e-08
-5.88552e-07
3.59108e-08
-5.98708e-07
3.46333e-08
-6.08497e-07
3.33694e-08
-6.17923e-07
3.21213e-08
-6.2699e-07
3.08913e-08
-6.35704e-07
2.9681e-08
-6.44071e-07
2.84917e-08
-6.52096e-07
2.73247e-08
-6.59786e-07
2.61807e-08
-6.67148e-07
2.50603e-08
-6.74188e-07
2.39638e-08
-6.80914e-07
2.28914e-08
-6.87331e-07
2.18429e-08
-6.93446e-07
2.08181e-08
-6.99267e-07
1.98163e-08
-7.04798e-07
1.8837e-08
-7.10047e-07
1.78793e-08
-7.15018e-07
1.69421e-08
-7.19719e-07
1.60244e-08
-7.24153e-07
1.51249e-08
-7.28325e-07
1.42422e-08
-7.3224e-07
1.33749e-08
-7.35902e-07
1.25212e-08
-7.39313e-07
1.16795e-08
-7.42478e-07
1.08481e-08
-7.45398e-07
1.0025e-08
-7.48074e-07
9.20842e-09
-7.50509e-07
8.39625e-09
-7.52703e-07
7.58649e-09
-7.54656e-07
6.77704e-09
-7.56367e-07
5.96576e-09
-7.57835e-07
5.15048e-09
-7.59059e-07
4.32898e-09
-7.60036e-07
3.49907e-09
-7.60763e-07
2.65851e-09
-7.61236e-07
1.80506e-09
-7.61451e-07
9.3649e-10
-7.61403e-07
5.05853e-11
-7.61086e-07
-8.5485e-10
-7.60495e-07
-1.78198e-09
-7.59622e-07
-2.73292e-09
-7.58461e-07
-3.70973e-09
-7.57002e-07
-4.71443e-09
-7.55239e-07
-5.74892e-09
-7.53161e-07
-6.81505e-09
-7.5076e-07
-7.91453e-09
-7.48025e-07
-9.04897e-09
-7.44946e-07
-1.02198e-08
-7.41513e-07
-1.14284e-08
-7.37715e-07
-1.26759e-08
-7.33541e-07
-1.39632e-08
-7.28978e-07
-1.5291e-08
-7.24016e-07
-1.666e-08
-7.18643e-07
-1.80702e-08
-7.12848e-07
-1.95217e-08
-7.06619e-07
-2.10143e-08
-6.99944e-07
-2.25471e-08
-6.92814e-07
-2.41194e-08
-6.85218e-07
-2.57296e-08
-6.77145e-07
-2.73762e-08
-6.68587e-07
-2.90568e-08
-6.59534e-07
-3.07689e-08
-6.4998e-07
-3.25095e-08
-6.39917e-07
-3.4275e-08
-6.29341e-07
-3.60612e-08
-6.18246e-07
-3.78638e-08
-6.06631e-07
-3.96773e-08
-5.94495e-07
-4.14963e-08
-5.81838e-07
-4.33144e-08
-5.68663e-07
-4.51247e-08
-5.54976e-07
-4.69197e-08
-5.40783e-07
-4.86914e-08
-5.26094e-07
-5.04312e-08
-5.10922e-07
-5.21296e-08
-4.95281e-07
-5.3777e-08
-4.7919e-07
-5.53627e-08
-4.6267e-07
-5.68759e-08
-4.45745e-07
-5.8305e-08
-4.28444e-07
-5.9638e-08
-4.10797e-07
-6.08623e-08
-3.9284e-07
-6.19652e-08
-3.74611e-07
-6.29333e-08
-3.56152e-07
-6.37531e-08
-3.37509e-07
-6.44109e-08
-3.18733e-07
-6.48927e-08
-2.99877e-07
-6.51847e-08
-2.80999e-07
-6.52728e-08
-2.6216e-07
-6.51435e-08
-2.43424e-07
-6.47833e-08
-2.24861e-07
-6.41793e-08
-2.0654e-07
-6.33192e-08
-1.88536e-07
-6.21915e-08
-1.70926e-07
-6.07858e-08
-1.53789e-07
-5.90931e-08
-1.37205e-07
-5.7106e-08
-1.21255e-07
-5.48193e-08
-1.06019e-07
-5.22301e-08
-9.15797e-08
-4.93389e-08
-7.80137e-08
-4.61502e-08
-6.53963e-08
-4.26734e-08
-5.37972e-08
-3.89241e-08
-4.32789e-08
-3.4926e-08
-3.38945e-08
-3.07128e-08
-2.56844e-08
-2.63312e-08
-1.86735e-08
-2.18445e-08
-1.2867e-08
-1.73375e-08
-8.24632e-09
-1.29227e-08
-4.76416e-09
-8.74817e-09
-2.33993e-09
-5.00754e-09
-8.54618e-10
-1.95051e-09
-1.4583e-10
1.0345e-10
7.17326e-10
-2.68854e-10
-4.27789e-10
-1.25601e-09
7.29739e-10
-3.11217e-09
3.32988e-09
-5.95568e-09
6.95051e-09
-9.87397e-09
1.12747e-08
-1.49257e-08
1.60492e-08
-2.11433e-08
2.10737e-08
-2.85362e-08
2.61916e-08
-3.70943e-08
3.12821e-08
-4.67903e-08
3.62526e-08
-5.75837e-08
4.1033e-08
-6.94229e-08
4.55716e-08
-8.22476e-08
4.98308e-08
-9.59914e-08
5.37848e-08
-1.10583e-07
5.74167e-08
-1.25949e-07
6.07169e-08
-1.42014e-07
6.36818e-08
-1.587e-07
6.63124e-08
-1.75933e-07
6.86133e-08
-1.93638e-07
7.05921e-08
-2.11741e-07
7.22585e-08
-2.30172e-07
7.36243e-08
-2.48863e-07
7.47025e-08
-2.67749e-07
7.5507e-08
-2.86767e-07
7.60526e-08
-3.0586e-07
7.63545e-08
-3.24971e-07
7.64282e-08
-3.4405e-07
7.62891e-08
-3.63049e-07
7.59529e-08
-3.81922e-07
7.54349e-08
-4.0063e-07
7.47501e-08
-4.19133e-07
7.39132e-08
-4.37399e-07
7.29385e-08
-4.55397e-07
7.18398e-08
-4.73099e-07
7.06302e-08
-4.90479e-07
6.93226e-08
-5.07518e-07
6.79288e-08
-5.24195e-07
6.64604e-08
-5.40495e-07
6.49282e-08
-5.56403e-07
6.33422e-08
-5.71909e-07
6.17121e-08
-5.87003e-07
6.00466e-08
-6.01677e-07
5.8354e-08
-6.15927e-07
5.66419e-08
-6.29748e-07
5.49173e-08
-6.4314e-07
5.31866e-08
-6.561e-07
5.14555e-08
-6.6863e-07
4.97293e-08
-6.80732e-07
4.80127e-08
-6.92408e-07
4.63099e-08
-7.03663e-07
4.46244e-08
-7.14502e-07
4.29596e-08
-7.24929e-07
4.13182e-08
-7.3495e-07
3.97024e-08
-7.44573e-07
3.81142e-08
-7.53803e-07
3.6555e-08
-7.62648e-07
3.50261e-08
-7.71116e-07
3.35281e-08
-7.79214e-07
3.20615e-08
-7.86949e-07
3.06265e-08
-7.94329e-07
2.9223e-08
-8.01362e-07
2.78506e-08
-8.08054e-07
2.65086e-08
-8.14413e-07
2.51962e-08
-8.20446e-07
2.39122e-08
-8.26159e-07
2.26553e-08
-8.31559e-07
2.14241e-08
-8.36651e-07
2.02168e-08
-8.4144e-07
1.90317e-08
-8.45932e-07
1.78668e-08
-8.50131e-07
1.672e-08
-8.5404e-07
1.5589e-08
-8.57664e-07
1.44714e-08
-8.61003e-07
1.33649e-08
-8.64062e-07
1.22669e-08
-8.6684e-07
1.11747e-08
-8.6934e-07
1.00857e-08
-8.7156e-07
8.99702e-09
-8.735e-07
7.9059e-09
-8.75159e-07
6.80944e-09
-8.76534e-07
5.70475e-09
-8.77624e-07
4.58889e-09
-8.78425e-07
3.45893e-09
-8.78932e-07
2.3119e-09
-8.7914e-07
1.14487e-09
-8.79044e-07
-4.50797e-11
-8.78638e-07
-1.26085e-09
-8.77915e-07
-2.50529e-09
-8.76867e-07
-3.78119e-09
-8.75485e-07
-5.09126e-09
-8.73761e-07
-6.43814e-09
-8.71686e-07
-7.82434e-09
-8.69249e-07
-9.25227e-09
-8.66439e-07
-1.07242e-08
-8.63246e-07
-1.22422e-08
-8.59658e-07
-1.38081e-08
-8.55662e-07
-1.54238e-08
-8.51247e-07
-1.70907e-08
-8.46401e-07
-1.88099e-08
-8.41109e-07
-2.05825e-08
-8.3536e-07
-2.2409e-08
-8.29141e-07
-2.42898e-08
-8.22438e-07
-2.62248e-08
-8.15238e-07
-2.82136e-08
-8.0753e-07
-3.02552e-08
-7.99301e-07
-3.23483e-08
-7.9054e-07
-3.44911e-08
-7.81235e-07
-3.66813e-08
-7.71376e-07
-3.89158e-08
-7.60953e-07
-4.11914e-08
-7.49959e-07
-4.35038e-08
-7.38386e-07
-4.58483e-08
-7.26227e-07
-4.82196e-08
-7.1348e-07
-5.06115e-08
-7.0014e-07
-5.30171e-08
-6.86207e-07
-5.5429e-08
-6.71683e-07
-5.78388e-08
-6.5657e-07
-6.02374e-08
-6.40875e-07
-6.26149e-08
-6.24606e-07
-6.49606e-08
-6.07774e-07
-6.72631e-08
-5.90393e-07
-6.95102e-08
-5.72481e-07
-7.16888e-08
-5.54059e-07
-7.37852e-08
-5.3515e-07
-7.57849e-08
-5.15782e-07
-7.76727e-08
-4.95987e-07
-7.94328e-08
-4.75801e-07
-8.10489e-08
-4.55262e-07
-8.2504e-08
-4.34414e-07
-8.37807e-08
-4.13306e-07
-8.48614e-08
-3.91989e-07
-8.5728e-08
-3.70519e-07
-8.63625e-08
-3.48957e-07
-8.67466e-08
-3.27368e-07
-8.68624e-08
-3.05819e-07
-8.66921e-08
-2.84384e-07
-8.62185e-08
-2.63138e-07
-8.54249e-08
-2.42162e-07
-8.42957e-08
-2.21537e-07
-8.28163e-08
-2.01349e-07
-8.09737e-08
-1.81685e-07
-7.87569e-08
-1.62635e-07
-7.61568e-08
-1.44286e-07
-7.31675e-08
-1.2673e-07
-6.97865e-08
-1.10054e-07
-6.60153e-08
-9.4343e-08
-6.18609e-08
-7.96797e-08
-5.73367e-08
-6.61399e-08
-5.2464e-08
-5.37919e-08
-4.7274e-08
-4.26941e-08
-4.18106e-08
-3.28924e-08
-3.61329e-08
-2.44168e-08
-3.03201e-08
-1.72787e-08
-2.44755e-08
-1.14676e-08
-1.87339e-08
-6.9471e-09
-1.32686e-08
-3.65251e-09
-8.30213e-09
-1.48784e-09
-4.11518e-09
-3.24338e-10
-1.06005e-09
3.92987e-10
-4.29747e-10
1.95304e-12
-1.83532e-09
2.13529e-09
-4.32127e-09
5.81585e-09
-7.97275e-09
1.0602e-08
-1.28528e-08
1.61547e-08
-1.9002e-08
2.21984e-08
-2.64393e-08
2.85111e-08
-3.51642e-08
3.49165e-08
-4.51583e-08
4.12762e-08
-5.63879e-08
4.74822e-08
-6.88066e-08
5.34517e-08
-8.23573e-08
5.91223e-08
-9.69744e-08
6.4448e-08
-1.12586e-07
6.93966e-08
-1.29116e-07
7.39465e-08
-1.46484e-07
7.8085e-08
-1.64609e-07
8.18065e-08
-1.83408e-07
8.51114e-08
-2.02799e-07
8.80045e-08
-2.22701e-07
9.04945e-08
-2.43036e-07
9.25929e-08
-2.63725e-07
9.43136e-08
-2.84695e-07
9.56725e-08
-3.05874e-07
9.66865e-08
-3.27196e-07
9.73738e-08
-3.48594e-07
9.77532e-08
-3.7001e-07
9.78438e-08
-3.91386e-07
9.7665e-08
-4.12669e-07
9.72361e-08
-4.3381e-07
9.65763e-08
-4.54765e-07
9.57045e-08
-4.75491e-07
9.46393e-08
-4.95951e-07
9.33985e-08
-5.16111e-07
9.19995e-08
-5.35939e-07
9.0459e-08
-5.5541e-07
8.87931e-08
-5.74498e-07
8.7017e-08
-5.93183e-07
8.51452e-08
-6.11446e-07
8.31913e-08
-6.29272e-07
8.11684e-08
-6.46649e-07
7.90885e-08
-6.63565e-07
7.69628e-08
-6.80013e-07
7.48018e-08
-6.95986e-07
7.26153e-08
-7.11481e-07
7.0412e-08
-7.26494e-07
6.82002e-08
-7.41026e-07
6.59873e-08
-7.55077e-07
6.37799e-08