/*--------------------------------*- C++ -*----------------------------------*\
  =========                 |
  \\      /  F ield         | OpenFOAM: The Open Source CFD Toolbox
   \\    /   O peration     | Website:  https://openfoam.org
    \\  /    A nd           | Version:  7
     \\/     M anipulation  |
\*---------------------------------------------------------------------------*/
FoamFile
{
    version     2.0;
    format      ascii;
    class       volVectorField;
    location    "0.425";
    object      U;
}
// * * * * * * * * * * * * * * * * * * * * * * * * * * * * * * * * * * * * * //

dimensions      [0 1 -1 0 0 0 0];

internalField   nonuniform List<vector> 
12800
(
(8.31038e-06 -8.33877e-06 0)
(3.70698e-05 -1.85477e-05 0)
(7.85409e-05 -1.97211e-05 0)
(0.000113268 -1.53599e-05 0)
(0.000130018 -8.31361e-06 0)
(0.000123909 -1.38399e-07 0)
(9.27962e-05 8.34465e-06 0)
(3.60654e-05 1.66965e-05 0)
(-4.5927e-05 2.46857e-05 0)
(-0.000152233 3.21932e-05 0)
(-0.000281553 3.91589e-05 0)
(-0.000432381 4.5557e-05 0)
(-0.000603094 5.13821e-05 0)
(-0.000792015 5.66412e-05 0)
(-0.000997453 6.13484e-05 0)
(-0.00121773 6.55224e-05 0)
(-0.00145121 6.9185e-05 0)
(-0.00169629 7.23593e-05 0)
(-0.00195143 7.50701e-05 0)
(-0.00221518 7.73428e-05 0)
(-0.00248613 7.92033e-05 0)
(-0.00276295 8.0677e-05 0)
(-0.0030444 8.17891e-05 0)
(-0.0033293 8.25645e-05 0)
(-0.00361655 8.30275e-05 0)
(-0.00390513 8.32019e-05 0)
(-0.00419409 8.31109e-05 0)
(-0.00448256 8.27767e-05 0)
(-0.00476973 8.22207e-05 0)
(-0.00505488 8.14633e-05 0)
(-0.00533732 8.05244e-05 0)
(-0.00561646 7.94228e-05 0)
(-0.00589175 7.81763e-05 0)
(-0.0061627 7.6802e-05 0)
(-0.0064289 7.53156e-05 0)
(-0.00668996 7.37323e-05 0)
(-0.00694555 7.20661e-05 0)
(-0.0071954 7.03304e-05 0)
(-0.00743927 6.85372e-05 0)
(-0.00767696 6.6698e-05 0)
(-0.00790832 6.48235e-05 0)
(-0.00813323 6.29233e-05 0)
(-0.00835159 6.10064e-05 0)
(-0.00856335 5.9081e-05 0)
(-0.00876848 5.71544e-05 0)
(-0.00896696 5.52332e-05 0)
(-0.00915882 5.33233e-05 0)
(-0.00934409 5.14302e-05 0)
(-0.00952282 4.95586e-05 0)
(-0.00969509 4.77126e-05 0)
(-0.00986097 4.58957e-05 0)
(-0.0100206 4.41109e-05 0)
(-0.010174 4.23606e-05 0)
(-0.0103213 4.0647e-05 0)
(-0.0104627 3.89717e-05 0)
(-0.0105983 3.73359e-05 0)
(-0.0107281 3.57404e-05 0)
(-0.0108524 3.41855e-05 0)
(-0.0109713 3.26713e-05 0)
(-0.0110849 3.11974e-05 0)
(-0.0111934 2.97635e-05 0)
(-0.0112968 2.83688e-05 0)
(-0.0113953 2.70123e-05 0)
(-0.0114891 2.56925e-05 0)
(-0.0115781 2.44078e-05 0)
(-0.0116627 2.31567e-05 0)
(-0.0117428 2.19373e-05 0)
(-0.0118186 2.07477e-05 0)
(-0.0118902 1.95854e-05 0)
(-0.0119576 1.84475e-05 0)
(-0.012021 1.73318e-05 0)
(-0.0120804 1.62357e-05 0)
(-0.0121358 1.51567e-05 0)
(-0.0121874 1.40917e-05 0)
(-0.0122351 1.30375e-05 0)
(-0.012279 1.19908e-05 0)
(-0.0123191 1.09486e-05 0)
(-0.0123555 9.90797e-06 0)
(-0.012388 8.86574e-06 0)
(-0.0124168 7.8184e-06 0)
(-0.0124418 6.76226e-06 0)
(-0.0124628 5.69368e-06 0)
(-0.01248 4.6092e-06 0)
(-0.0124932 3.50549e-06 0)
(-0.0125024 2.37914e-06 0)
(-0.0125075 1.22666e-06 0)
(-0.0125083 4.45315e-08 0)
(-0.0125048 -1.17075e-06 0)
(-0.0124969 -2.42262e-06 0)
(-0.0124843 -3.71446e-06 0)
(-0.0124671 -5.04963e-06 0)
(-0.012445 -6.43136e-06 0)
(-0.0124179 -7.86275e-06 0)
(-0.0123855 -9.34673e-06 0)
(-0.0123478 -1.08861e-05 0)
(-0.0123044 -1.24834e-05 0)
(-0.0122553 -1.41413e-05 0)
(-0.0122002 -1.58619e-05 0)
(-0.0121389 -1.76472e-05 0)
(-0.0120712 -1.94987e-05 0)
(-0.0119968 -2.14179e-05 0)
(-0.0119155 -2.34058e-05 0)
(-0.0118271 -2.54629e-05 0)
(-0.0117314 -2.75896e-05 0)
(-0.0116282 -2.97854e-05 0)
(-0.0115171 -3.20495e-05 0)
(-0.011398 -3.43805e-05 0)
(-0.0112707 -3.67765e-05 0)
(-0.011135 -3.9235e-05 0)
(-0.0109906 -4.17527e-05 0)
(-0.0108374 -4.43256e-05 0)
(-0.0106752 -4.69491e-05 0)
(-0.0105039 -4.96175e-05 0)
(-0.0103234 -5.23244e-05 0)
(-0.0101334 -5.50626e-05 0)
(-0.00993409 -5.7824e-05 0)
(-0.00972526 -6.05993e-05 0)
(-0.00950694 -6.33785e-05 0)
(-0.00927914 -6.61504e-05 0)
(-0.00904194 -6.8903e-05 0)
(-0.00879545 -7.16232e-05 0)
(-0.00853982 -7.42966e-05 0)
(-0.00827526 -7.6908e-05 0)
(-0.00800202 -7.9441e-05 0)
(-0.00772043 -8.18785e-05 0)
(-0.00743086 -8.42019e-05 0)
(-0.00713375 -8.6392e-05 0)
(-0.00682962 -8.84284e-05 0)
(-0.00651903 -9.02901e-05 0)
(-0.00620264 -9.19549e-05 0)
(-0.00588117 -9.34001e-05 0)
(-0.00555543 -9.46021e-05 0)
(-0.0052263 -9.55368e-05 0)
(-0.00489472 -9.61794e-05 0)
(-0.00456176 -9.65046e-05 0)
(-0.00422853 -9.64867e-05 0)
(-0.00389624 -9.61001e-05 0)
(-0.00356617 -9.53188e-05 0)
(-0.0032397 -9.41166e-05 0)
(-0.00291829 -9.24677e-05 0)
(-0.00260346 -9.0346e-05 0)
(-0.00229681 -8.77263e-05 0)
(-0.00200002 -8.45835e-05 0)
(-0.00171484 -8.08936e-05 0)
(-0.00144307 -7.66336e-05 0)
(-0.00118657 -7.1782e-05 0)
(-0.000947219 -6.63194e-05 0)
(-0.000726949 -6.02296e-05 0)
(-0.000527677 -5.35013e-05 0)
(-0.000351297 -4.61302e-05 0)
(-0.000199633 -3.81246e-05 0)
(-7.43746e-05 -2.95128e-05 0)
(2.30185e-05 -2.03586e-05 0)
(9.14734e-05 -1.07908e-05 0)
(0.000130561 -1.05981e-06 0)
(0.000140913 8.35538e-06 0)
(0.000124847 1.65509e-05 0)
(8.77269e-05 2.17939e-05 0)
(4.20478e-05 2.08633e-05 0)
(9.63448e-06 9.63276e-06 0)
(1.85454e-05 -3.7113e-05 0)
(7.03506e-05 -7.03209e-05 0)
(0.000132074 -6.77781e-05 0)
(0.000170198 -4.21061e-05 0)
(0.000163432 -3.16416e-06 0)
(0.000100348 4.27125e-05 0)
(-2.53206e-05 9.15531e-05 0)
(-0.000216309 0.000140877 0)
(-0.000472829 0.000189139 0)
(-0.00079338 0.000235379 0)
(-0.00117532 0.000279005 0)
(-0.00161525 0.000319661 0)
(-0.0021093 0.000357152 0)
(-0.00265332 0.000391385 0)
(-0.003243 0.000422346 0)
(-0.00387399 0.00045007 0)
(-0.00454194 0.000474628 0)
(-0.00524259 0.000496116 0)
(-0.00597181 0.000514652 0)
(-0.00672558 0.000530363 0)
(-0.00750005 0.000543387 0)
(-0.00829157 0.000553869 0)
(-0.00909665 0.000561956 0)
(-0.00991202 0.000567794 0)
(-0.0107346 0.000571533 0)
(-0.0115615 0.000573319 0)
(-0.01239 0.000573298 0)
(-0.0132176 0.00057161 0)
(-0.0140421 0.000568394 0)
(-0.0148613 0.000563782 0)
(-0.0156733 0.000557903 0)
(-0.0164763 0.000550882 0)
(-0.0172689 0.000542836 0)
(-0.0180495 0.000533879 0)
(-0.0188169 0.000524117 0)
(-0.01957 0.000513652 0)
(-0.0203078 0.00050258 0)
(-0.0210295 0.00049099 0)
(-0.0217345 0.000478967 0)
(-0.022422 0.000466589 0)
(-0.0230916 0.000453929 0)
(-0.0237429 0.000441055 0)
(-0.0243757 0.000428029 0)
(-0.0249897 0.000414907 0)
(-0.0255848 0.000401742 0)
(-0.0261609 0.000388581 0)
(-0.0267182 0.000375466 0)
(-0.0272565 0.000362435 0)
(-0.0277761 0.000349523 0)
(-0.0282772 0.000336758 0)
(-0.0287599 0.000324168 0)
(-0.0292245 0.000311773 0)
(-0.0296713 0.000299593 0)
(-0.0301006 0.000287642 0)
(-0.0305127 0.000275934 0)
(-0.0309079 0.000264478 0)
(-0.0312867 0.000253281 0)
(-0.0316493 0.000242347 0)
(-0.0319962 0.000231677 0)
(-0.0323276 0.000221271 0)
(-0.0326441 0.000211127 0)
(-0.0329459 0.000201239 0)
(-0.0332334 0.000191602 0)
(-0.0335069 0.000182207 0)
(-0.0337669 0.000173044 0)
(-0.0340135 0.000164103 0)
(-0.0342472 0.000155371 0)
(-0.0344681 0.000146835 0)
(-0.0346766 0.000138479 0)
(-0.0348729 0.000130287 0)
(-0.0350573 0.000122242 0)
(-0.0352298 0.000114326 0)
(-0.0353908 0.000106521 0)
(-0.0355402 9.88079e-05 0)
(-0.0356784 9.11652e-05 0)
(-0.0358052 8.35721e-05 0)
(-0.0359208 7.60073e-05 0)
(-0.0360253 6.84493e-05 0)
(-0.0361185 6.0876e-05 0)
(-0.0362005 5.32647e-05 0)
(-0.0362712 4.55917e-05 0)
(-0.0363305 3.78336e-05 0)
(-0.0363782 2.99669e-05 0)
(-0.0364142 2.19684e-05 0)
(-0.0364382 1.38146e-05 0)
(-0.0364501 5.48202e-06 0)
(-0.0364495 -3.05278e-06 0)
(-0.0364361 -1.1813e-05 0)
(-0.0364097 -2.08213e-05 0)
(-0.0363698 -3.01e-05 0)
(-0.036316 -3.96708e-05 0)
(-0.0362479 -4.95548e-05 0)
(-0.036165 -5.97723e-05 0)
(-0.0360669 -7.03425e-05 0)
(-0.0359531 -8.12836e-05 0)
(-0.0358229 -9.26122e-05 0)
(-0.0356759 -0.000104344 0)
(-0.0355114 -0.000116492 0)
(-0.0353288 -0.000129069 0)
(-0.0351277 -0.000142084 0)
(-0.0349072 -0.000155546 0)
(-0.0346668 -0.000169458 0)
(-0.0344059 -0.000183823 0)
(-0.0341238 -0.000198641 0)
(-0.0338198 -0.000213907 0)
(-0.0334935 -0.000229615 0)
(-0.0331441 -0.000245752 0)
(-0.032771 -0.000262304 0)
(-0.0323738 -0.000279251 0)
(-0.0319518 -0.000296569 0)
(-0.0315047 -0.000314229 0)
(-0.0310319 -0.000332196 0)
(-0.030533 -0.000350431 0)
(-0.0300078 -0.000368889 0)
(-0.029456 -0.000387519 0)
(-0.0288774 -0.000406263 0)
(-0.0282719 -0.000425058 0)
(-0.0276395 -0.000443835 0)
(-0.0269804 -0.000462516 0)
(-0.0262947 -0.000481018 0)
(-0.0255829 -0.000499253 0)
(-0.0248454 -0.000517122 0)
(-0.0240828 -0.000534524 0)
(-0.0232959 -0.000551347 0)
(-0.0224857 -0.000567475 0)
(-0.0216532 -0.000582785 0)
(-0.0207998 -0.000597149 0)
(-0.0199269 -0.000610432 0)
(-0.0190362 -0.000622493 0)
(-0.0181297 -0.000633188 0)
(-0.0172092 -0.000642366 0)
(-0.0162773 -0.000649874 0)
(-0.0153363 -0.000655556 0)
(-0.014389 -0.000659252 0)
(-0.0134383 -0.000660801 0)
(-0.0124875 -0.000660041 0)
(-0.0115399 -0.000656811 0)
(-0.0105991 -0.00065095 0)
(-0.00966896 -0.000642299 0)
(-0.00875356 -0.000630704 0)
(-0.00785711 -0.000616017 0)
(-0.00698404 -0.000598095 0)
(-0.00613895 -0.000576806 0)
(-0.00532658 -0.000552031 0)
(-0.00455182 -0.000523668 0)
(-0.00381963 -0.000491635 0)
(-0.00313501 -0.00045588 0)
(-0.00250297 -0.000416392 0)
(-0.00192842 -0.000373214 0)
(-0.00141606 -0.000326465 0)
(-0.000970274 -0.000276379 0)
(-0.000594871 -0.000223355 0)
(-0.000292835 -0.000168048 0)
(-6.58852e-05 -0.000111514 0)
(8.61555e-05 -5.54465e-05 0)
(0.000166257 -2.58001e-06 0)
(0.000181308 4.26826e-05 0)
(0.000143975 7.32503e-05 0)
(7.79819e-05 7.79486e-05 0)
(2.08637e-05 4.20336e-05 0)
(1.98041e-05 -7.86465e-05 0)
(6.81131e-05 -0.000132119 0)
(0.000111224 -0.000110699 0)
(0.000110433 -3.94853e-05 0)
(4.04705e-05 6.29438e-05 0)
(-0.000113527 0.000183367 0)
(-0.000360452 0.000312639 0)
(-0.000704705 0.000444547 0)
(-0.00114723 0.000574912 0)
(-0.00168647 0.00070094 0)
(-0.00231909 0.000820784 0)
(-0.00304049 0.000933246 0)
(-0.00384526 0.00103759 0)
(-0.0047274 0.00113339 0)
(-0.0056806 0.00122047 0)
(-0.00669838 0.00129881 0)
(-0.00777422 0.00136852 0)
(-0.00890163 0.00142978 0)
(-0.0100743 0.00148287 0)
(-0.011286 0.00152809 0)
(-0.0125308 0.00156578 0)
(-0.0138029 0.00159633 0)
(-0.015097 0.0016201 0)
(-0.0164079 0.0016375 0)
(-0.0177307 0.00164892 0)
(-0.0190608 0.00165478 0)
(-0.020394 0.00165545 0)
(-0.0217263 0.00165134 0)
(-0.023054 0.00164283 0)
(-0.0243738 0.00163028 0)
(-0.0256825 0.00161407 0)
(-0.0269774 0.00159454 0)
(-0.0282559 0.00157202 0)
(-0.0295157 0.00154684 0)
(-0.0307548 0.00151929 0)
(-0.0319713 0.00148967 0)
(-0.0331636 0.00145826 0)
(-0.0343305 0.0014253 0)
(-0.0354706 0.00139104 0)
(-0.0365831 0.00135571 0)
(-0.037667 0.00131952 0)
(-0.0387219 0.00128266 0)
(-0.039747 0.00124532 0)
(-0.0407422 0.00120765 0)
(-0.0417071 0.00116981 0)
(-0.0426416 0.00113193 0)
(-0.0435457 0.00109415 0)
(-0.0444196 0.00105657 0)
(-0.0452633 0.00101929 0)
(-0.0460772 0.000982394 0)
(-0.0468615 0.000945968 0)
(-0.0476166 0.000910073 0)
(-0.048343 0.000874765 0)
(-0.049041 0.00084009 0)
(-0.0497112 0.000806086 0)
(-0.0503542 0.000772782 0)
(-0.0509705 0.0007402 0)
(-0.0515606 0.000708352 0)
(-0.0521251 0.000677245 0)
(-0.0526646 0.000646879 0)
(-0.0531797 0.000617249 0)
(-0.0536709 0.000588341 0)
(-0.0541389 0.00056014 0)
(-0.0545841 0.000532623 0)
(-0.0550071 0.000505763 0)
(-0.0554083 0.000479529 0)
(-0.0557884 0.000453885 0)
(-0.0561476 0.000428794 0)
(-0.0564865 0.000404213 0)
(-0.0568054 0.000380097 0)
(-0.0571047 0.000356396 0)
(-0.0573846 0.000333061 0)
(-0.0576455 0.000310038 0)
(-0.0578876 0.000287272 0)
(-0.0581109 0.000264704 0)
(-0.0583158 0.000242276 0)
(-0.0585022 0.000219925 0)
(-0.0586702 0.000197589 0)
(-0.0588197 0.000175205 0)
(-0.0589508 0.000152708 0)
(-0.0590633 0.000130032 0)
(-0.0591569 0.000107111 0)
(-0.0592316 8.38768e-05 0)
(-0.059287 6.02635e-05 0)
(-0.0593228 3.62037e-05 0)
(-0.0593385 1.16308e-05 0)
(-0.0593339 -1.35217e-05 0)
(-0.0593083 -3.93194e-05 0)
(-0.0592612 -6.58266e-05 0)
(-0.0591921 -9.31065e-05 0)
(-0.0591003 -0.00012122 0)
(-0.0589852 -0.000150227 0)
(-0.0588459 -0.000180183 0)
(-0.0586817 -0.000211143 0)
(-0.0584919 -0.000243157 0)
(-0.0582755 -0.000276272 0)
(-0.0580317 -0.00031053 0)
(-0.0577595 -0.000345969 0)
(-0.0574581 -0.00038262 0)
(-0.0571264 -0.00042051 0)
(-0.0567634 -0.000459658 0)
(-0.0563682 -0.000500076 0)
(-0.0559399 -0.000541768 0)
(-0.0554772 -0.00058473 0)
(-0.0549794 -0.000628948 0)
(-0.0544455 -0.000674398 0)
(-0.0538744 -0.000721045 0)
(-0.0532653 -0.000768843 0)
(-0.0526173 -0.000817733 0)
(-0.0519297 -0.000867642 0)
(-0.0512016 -0.000918485 0)
(-0.0504324 -0.000970161 0)
(-0.0496215 -0.00102255 0)
(-0.0487685 -0.00107553 0)
(-0.0478729 -0.00112895 0)
(-0.0469346 -0.00118263 0)
(-0.0459534 -0.00123641 0)
(-0.0449294 -0.00129007 0)
(-0.0438629 -0.00134339 0)
(-0.0427542 -0.00139614 0)
(-0.0416039 -0.00144806 0)
(-0.0404129 -0.00149888 0)
(-0.0391822 -0.00154829 0)
(-0.0379131 -0.00159598 0)
(-0.0366071 -0.00164163 0)
(-0.0352661 -0.00168487 0)
(-0.0338922 -0.00172536 0)
(-0.0324877 -0.0017627 0)
(-0.0310554 -0.00179649 0)
(-0.0295982 -0.00182634 0)
(-0.0281195 -0.00185182 0)
(-0.0266229 -0.00187249 0)
(-0.0251125 -0.00188793 0)
(-0.0235927 -0.00189769 0)
(-0.022068 -0.00190131 0)
(-0.0205435 -0.00189836 0)
(-0.0190247 -0.00188839 0)
(-0.0175171 -0.00187096 0)
(-0.0160269 -0.00184565 0)
(-0.0145603 -0.00181205 0)
(-0.0131241 -0.00176976 0)
(-0.011725 -0.00171843 0)
(-0.0103702 -0.00165772 0)
(-0.00906696 -0.00158736 0)
(-0.00782285 -0.00150713 0)
(-0.00664538 -0.00141688 0)
(-0.00554209 -0.00131656 0)
(-0.00452044 -0.00120627 0)
(-0.00358765 -0.00108628 0)
(-0.0027505 -0.000957109 0)
(-0.00201515 -0.000819618 0)
(-0.00138677 -0.000675161 0)
(-0.000869135 -0.000525796 0)
(-0.000464029 -0.000374613 0)
(-0.000170457 -0.000226225 0)
(1.64132e-05 -8.7507e-05 0)
(0.000106424 3.13602e-05 0)
(0.0001161 0.000115551 0)
(7.35506e-05 0.000144013 0)
(2.18485e-05 8.77566e-05 0)
(1.55828e-05 -0.000113683 0)
(4.2932e-05 -0.000170703 0)
(4.09081e-05 -0.00011011 0)
(-2.81017e-05 2.96978e-05 0)
(-0.000189802 0.000221174 0)
(-0.000460384 0.000443883 0)
(-0.000849925 0.000682957 0)
(-0.00136366 0.0009278 0)
(-0.00200294 0.00117094 0)
(-0.0027662 0.00140715 0)
(-0.00364965 0.00163283 0)
(-0.00464787 0.00184552 0)
(-0.00575432 0.00204365 0)
(-0.00696163 0.00222623 0)
(-0.00826193 0.00239275 0)
(-0.00964705 0.00254303 0)
(-0.0111087 0.00267716 0)
(-0.0126385 0.0027954 0)
(-0.0142284 0.00289817 0)
(-0.0158702 0.00298599 0)
(-0.0175563 0.00305945 0)
(-0.0192791 0.00311922 0)
(-0.0210314 0.003166 0)
(-0.0228065 0.00320051 0)
(-0.0245978 0.00322348 0)
(-0.0263994 0.00323567 0)
(-0.0282054 0.00323782 0)
(-0.0300107 0.00323068 0)
(-0.0318102 0.00321496 0)
(-0.0335995 0.00319137 0)
(-0.0353744 0.00316061 0)
(-0.037131 0.00312334 0)
(-0.038866 0.00308021 0)
(-0.0405761 0.00303183 0)
(-0.0422587 0.0029788 0)
(-0.0439112 0.00292166 0)
(-0.0455314 0.00286095 0)
(-0.0471176 0.00279717 0)
(-0.0486679 0.0027308 0)
(-0.0501812 0.00266226 0)
(-0.0516562 0.00259197 0)
(-0.053092 0.00252032 0)
(-0.0544879 0.00244765 0)
(-0.0558433 0.00237428 0)
(-0.057158 0.00230053 0)
(-0.0584317 0.00222664 0)
(-0.0596643 0.00215288 0)
(-0.060856 0.00207945 0)
(-0.062007 0.00200656 0)
(-0.0631174 0.00193438 0)
(-0.0641878 0.00186306 0)
(-0.0652186 0.00179273 0)
(-0.0662103 0.0017235 0)
(-0.0671636 0.00165547 0)
(-0.0680791 0.00158871 0)
(-0.0689575 0.00152329 0)
(-0.0697995 0.00145923 0)
(-0.0706058 0.00139658 0)
(-0.0713773 0.00133535 0)
(-0.0721146 0.00127553 0)
(-0.0728186 0.00121713 0)
(-0.0734899 0.00116012 0)
(-0.0741294 0.00110446 0)
(-0.0747378 0.00105011 0)
(-0.0753156 0.000997032 0)
(-0.0758638 0.000945156 0)
(-0.0763828 0.000894418 0)
(-0.0768732 0.000844743 0)
(-0.0773356 0.000796051 0)
(-0.0777706 0.000748253 0)
(-0.0781786 0.000701256 0)
(-0.0785599 0.000654962 0)
(-0.078915 0.000609267 0)
(-0.0792442 0.000564064 0)
(-0.0795476 0.000519242 0)
(-0.0798254 0.000474686 0)
(-0.0800779 0.000430275 0)
(-0.0803049 0.00038589 0)
(-0.0805065 0.000341406 0)
(-0.0806826 0.000296698 0)
(-0.080833 0.000251639 0)
(-0.0809575 0.0002061 0)
(-0.0810558 0.000159952 0)
(-0.0811275 0.000113065 0)
(-0.0811721 6.53089e-05 0)
(-0.0811893 1.65552e-05 0)
(-0.0811783 -3.33241e-05 0)
(-0.0811385 -8.44552e-05 0)
(-0.0810693 -0.000136962 0)
(-0.0809697 -0.000190967 0)
(-0.080839 -0.000246587 0)
(-0.0806763 -0.000303935 0)
(-0.0804805 -0.00036312 0)
(-0.0802506 -0.000424245 0)
(-0.0799856 -0.000487407 0)
(-0.0796844 -0.000552692 0)
(-0.0793456 -0.000620182 0)
(-0.0789682 -0.000689947 0)
(-0.0785509 -0.000762046 0)
(-0.0780923 -0.000836527 0)
(-0.0775913 -0.000913425 0)
(-0.0770464 -0.000992759 0)
(-0.0764565 -0.00107454 0)
(-0.07582 -0.00115874 0)
(-0.0751359 -0.00124535 0)
(-0.0744027 -0.00133431 0)
(-0.0736193 -0.00142554 0)
(-0.0727845 -0.00151896 0)
(-0.0718972 -0.00161444 0)
(-0.0709562 -0.00171185 0)
(-0.0699607 -0.00181101 0)
(-0.0689098 -0.00191173 0)
(-0.0678027 -0.00201377 0)
(-0.0666389 -0.00211687 0)
(-0.065418 -0.00222075 0)
(-0.0641395 -0.00232508 0)
(-0.0628035 -0.0024295 0)
(-0.0614102 -0.00253362 0)
(-0.0599597 -0.00263701 0)
(-0.0584528 -0.0027392 0)
(-0.0568903 -0.00283969 0)
(-0.0552734 -0.00293796 0)
(-0.0536035 -0.00303342 0)
(-0.0518823 -0.00312546 0)
(-0.0501121 -0.00321345 0)
(-0.0482952 -0.00329672 0)
(-0.0464346 -0.00337455 0)
(-0.0445335 -0.00344622 0)
(-0.0425954 -0.00351096 0)
(-0.0406246 -0.00356799 0)
(-0.0386254 -0.0036165 0)
(-0.0366027 -0.00365568 0)
(-0.0345621 -0.00368468 0)
(-0.0325092 -0.00370266 0)
(-0.0304503 -0.00370878 0)
(-0.0283921 -0.0037022 0)
(-0.0263417 -0.00368208 0)
(-0.0243068 -0.00364761 0)
(-0.0222952 -0.00359799 0)
(-0.0203154 -0.00353248 0)
(-0.0183759 -0.00345038 0)
(-0.0164859 -0.00335103 0)
(-0.0146546 -0.00323388 0)
(-0.0128916 -0.00309847 0)
(-0.0112064 -0.00294446 0)
(-0.00960885 -0.00277169 0)
(-0.00810846 -0.0025802 0)
(-0.00671468 -0.00237033 0)
(-0.00543652 -0.00214276 0)
(-0.00428233 -0.00189869 0)
(-0.00325957 -0.00163997 0)
(-0.00237433 -0.00136937 0)
(-0.00163089 -0.00109093 0)
(-0.00103107 -0.00081043 0)
(-0.000573376 -0.000536164 0)
(-0.000252026 -0.00027988 0)
(-5.58404e-05 -5.81419e-05 0)
(3.31999e-05 0.000106148 0)
(4.35715e-05 0.000181879 0)
(1.6737e-05 0.000125149 0)
(8.69844e-06 -0.000131059 0)
(4.49996e-06 -0.000164848 0)
(-6.07337e-05 -4.07359e-05 0)
(-0.000218719 0.000191229 0)
(-0.000492957 0.000495194 0)
(-0.000899433 0.000843904 0)
(-0.00144822 0.0012169 0)
(-0.00214455 0.00159912 0)
(-0.00298978 0.00197954 0)
(-0.00398209 0.00235023 0)
(-0.00511727 0.0027055 0)
(-0.00638925 0.00304139 0)
(-0.00779057 0.00335521 0)
(-0.00931281 0.00364522 0)
(-0.0109468 0.00391043 0)
(-0.0126831 0.00415039 0)
(-0.0145119 0.00436508 0)
(-0.0164234 0.00455478 0)
(-0.0184078 0.00472006 0)
(-0.0204555 0.00486164 0)
(-0.0225572 0.0049804 0)
(-0.0247039 0.00507731 0)
(-0.0268869 0.00515345 0)
(-0.029098 0.00520992 0)
(-0.0313292 0.00524786 0)
(-0.0335731 0.00526844 0)
(-0.0358228 0.00527282 0)
(-0.0380718 0.00526218 0)
(-0.040314 0.00523765 0)
(-0.0425438 0.00520037 0)
(-0.0447561 0.00515143 0)
(-0.0469461 0.0050919 0)
(-0.0491096 0.00502281 0)
(-0.0512427 0.00494515 0)
(-0.0533419 0.00485985 0)
(-0.0554042 0.00476783 0)
(-0.0574268 0.00466993 0)
(-0.0594073 0.00456697 0)
(-0.0613437 0.00445971 0)
(-0.0632343 0.00434885 0)
(-0.0650775 0.00423507 0)
(-0.0668722 0.00411898 0)
(-0.0686175 0.00400116 0)
(-0.0703127 0.00388212 0)
(-0.0719573 0.00376237 0)
(-0.0735511 0.00364233 0)
(-0.0750938 0.00352241 0)
(-0.0765856 0.00340297 0)
(-0.0780267 0.00328433 0)
(-0.0794175 0.00316677 0)
(-0.0807583 0.00305054 0)
(-0.0820498 0.00293587 0)
(-0.0832926 0.00282293 0)
(-0.0844873 0.00271188 0)
(-0.0856349 0.00260284 0)
(-0.086736 0.00249592 0)
(-0.0877917 0.00239118 0)
(-0.0888027 0.00228868 0)
(-0.0897701 0.00218844 0)
(-0.0906946 0.00209048 0)
(-0.0915774 0.00199477 0)
(-0.0924192 0.00190128 0)
(-0.093221 0.00180997 0)
(-0.0939836 0.00172077 0)
(-0.094708 0.00163359 0)
(-0.0953949 0.00154835 0)
(-0.0960451 0.00146493 0)
(-0.0966594 0.00138322 0)
(-0.0972384 0.00130309 0)
(-0.0977827 0.0012244 0)
(-0.098293 0.00114699 0)
(-0.0987696 0.00107071 0)
(-0.0992131 0.000995389 0)
(-0.0996238 0.000920858 0)
(-0.100002 0.000846934 0)
(-0.100348 0.000773433 0)
(-0.100662 0.000700163 0)
(-0.100943 0.000626928 0)
(-0.101193 0.000553528 0)
(-0.10141 0.00047976 0)
(-0.101594 0.00040542 0)
(-0.101746 0.000330301 0)
(-0.101865 0.000254193 0)
(-0.10195 0.000176888 0)
(-0.102001 9.8176e-05 0)
(-0.102018 1.78503e-05 0)
(-0.101999 -6.42951e-05 0)
(-0.101943 -0.000148463 0)
(-0.10185 -0.000234853 0)
(-0.10172 -0.000323659 0)
(-0.10155 -0.000415069 0)
(-0.101339 -0.000509267 0)
(-0.101087 -0.000606424 0)
(-0.100793 -0.000706704 0)
(-0.100454 -0.000810261 0)
(-0.10007 -0.000917233 0)
(-0.0996387 -0.00102775 0)
(-0.0991592 -0.00114192 0)
(-0.0986296 -0.00125983 0)
(-0.0980486 -0.00138156 0)
(-0.0974145 -0.00150717 0)
(-0.0967258 -0.00163667 0)
(-0.0959807 -0.00177008 0)
(-0.0951778 -0.00190736 0)
(-0.0943154 -0.00204848 0)
(-0.0933921 -0.00219333 0)
(-0.0924063 -0.00234181 0)
(-0.0913567 -0.00249374 0)
(-0.0902418 -0.00264895 0)
(-0.0890604 -0.00280719 0)
(-0.0878114 -0.00296818 0)
(-0.0864938 -0.00313159 0)
(-0.0851066 -0.00329706 0)
(-0.0836493 -0.00346416 0)
(-0.0821213 -0.00363241 0)
(-0.0805223 -0.00380129 0)
(-0.0788522 -0.00397021 0)
(-0.0771114 -0.00413854 0)
(-0.0753002 -0.00430558 0)
(-0.0734194 -0.00447058 0)
(-0.0714702 -0.00463272 0)
(-0.0694541 -0.00479116 0)
(-0.0673728 -0.00494495 0)
(-0.0652287 -0.00509313 0)
(-0.0630242 -0.00523466 0)
(-0.0607627 -0.00536846 0)
(-0.0584475 -0.0054934 0)
(-0.0560827 -0.0056083 0)
(-0.0536729 -0.00571194 0)
(-0.0512229 -0.00580307 0)
(-0.0487385 -0.0058804 0)
(-0.0462255 -0.00594263 0)
(-0.0436907 -0.00598843 0)
(-0.0411411 -0.00601645 0)
(-0.0385845 -0.00602538 0)
(-0.0360289 -0.00601387 0)
(-0.033483 -0.00598063 0)
(-0.0309562 -0.00592438 0)
(-0.028458 -0.00584391 0)
(-0.0259985 -0.00573806 0)
(-0.0235883 -0.00560577 0)
(-0.0212382 -0.00544609 0)
(-0.0189595 -0.00525819 0)
(-0.0167633 -0.00504146 0)
(-0.0146613 -0.00479548 0)
(-0.0126648 -0.00452012 0)
(-0.0107853 -0.00421564 0)
(-0.00903365 -0.00388272 0)
(-0.00742033 -0.00352268 0)
(-0.00595497 -0.00313762 0)
(-0.004646 -0.00273065 0)
(-0.00350028 -0.00230629 0)
(-0.00252259 -0.0018709 0)
(-0.00171494 -0.00143334 0)
(-0.00107587 -0.00100581 0)
(-0.000599564 -0.000605063 0)
(-0.000274823 -0.000253863 0)
(-8.38749e-05 1.73126e-05 0)
(-8.45976e-07 0.000168142 0)
(8.7404e-06 0.00014189 0)
(6.68498e-07 -0.000125861 0)
(-4.10576e-05 -0.000102922 0)
(-0.00018103 0.000112701 0)
(-0.000442 0.000461962 0)
(-0.000843371 0.000901891 0)
(-0.00139972 0.00139916 0)
(-0.00212013 0.00192813 0)
(-0.00300915 0.00246945 0)
(-0.00406756 0.00300859 0)
(-0.00529308 0.00353479 0)
(-0.00668093 0.00404014 0)
(-0.00822438 0.00451898 0)
(-0.00991517 0.00496736 0)
(-0.011744 0.00538265 0)
(-0.0137006 0.00576322 0)
(-0.0157744 0.00610826 0)
(-0.0179544 0.00641757 0)
(-0.0202296 0.00669141 0)
(-0.0225887 0.00693044 0)
(-0.025021 0.00713559 0)
(-0.0275158 0.00730802 0)
(-0.0300625 0.00744905 0)
(-0.0326514 0.00756014 0)
(-0.0352729 0.00764283 0)
(-0.0379178 0.00769871 0)
(-0.0405775 0.00772942 0)
(-0.043244 0.00773662 0)
(-0.0459096 0.00772195 0)
(-0.0485674 0.00768706 0)
(-0.0512107 0.00763356 0)
(-0.0538335 0.00756302 0)
(-0.0564302 0.00747698 0)
(-0.0589959 0.00737691 0)
(-0.061526 0.00726426 0)
(-0.0640163 0.00714039 0)
(-0.0664632 0.00700659 0)
(-0.0688636 0.00686413 0)
(-0.0712144 0.00671416 0)
(-0.0735134 0.0065578 0)
(-0.0757583 0.00639608 0)
(-0.0779476 0.00622999 0)
(-0.0800796 0.00606042 0)
(-0.0821534 0.00588821 0)
(-0.0841681 0.00571413 0)
(-0.086123 0.0055389 0)
(-0.0880178 0.00536316 0)
(-0.0898523 0.00518749 0)
(-0.0916266 0.00501244 0)
(-0.0933409 0.00483847 0)
(-0.0949955 0.004666 0)
(-0.0965911 0.0044954 0)
(-0.0981281 0.004327 0)
(-0.0996073 0.00416106 0)
(-0.10103 0.00399781 0)
(-0.102396 0.00383746 0)
(-0.103707 0.00368013 0)
(-0.104964 0.00352595 0)
(-0.106168 0.00337499 0)
(-0.10732 0.00322728 0)
(-0.108421 0.00308286 0)
(-0.109472 0.00294169 0)
(-0.110474 0.00280374 0)
(-0.111429 0.00266892 0)
(-0.112337 0.00253716 0)
(-0.113199 0.00240834 0)
(-0.114016 0.00228231 0)
(-0.11479 0.00215893 0)
(-0.11552 0.00203802 0)
(-0.116209 0.00191939 0)
(-0.116855 0.00180285 0)
(-0.117461 0.00168817 0)
(-0.118027 0.00157512 0)
(-0.118553 0.00146346 0)
(-0.11904 0.00135295 0)
(-0.119487 0.0012433 0)
(-0.119896 0.00113427 0)
(-0.120267 0.00102557 0)
(-0.120598 0.000916906 0)
(-0.120891 0.000808 0)
(-0.121146 0.000698554 0)
(-0.121361 0.000588268 0)
(-0.121537 0.000476843 0)
(-0.121674 0.000363974 0)
(-0.12177 0.000249359 0)
(-0.121825 0.000132695 0)
(-0.121839 1.368e-05 0)
(-0.12181 -0.000107984 0)
(-0.121738 -0.000232591 0)
(-0.121621 -0.00036043 0)
(-0.121458 -0.00049178 0)
(-0.121249 -0.000626916 0)
(-0.120992 -0.000766098 0)
(-0.120685 -0.000909576 0)
(-0.120327 -0.00105759 0)
(-0.119916 -0.00121035 0)
(-0.119452 -0.00136806 0)
(-0.118931 -0.0015309 0)
(-0.118353 -0.00169903 0)
(-0.117716 -0.00187258 0)
(-0.117017 -0.00205164 0)
(-0.116256 -0.0022363 0)
(-0.115429 -0.00242659 0)
(-0.114536 -0.00262251 0)
(-0.113575 -0.00282401 0)
(-0.112543 -0.00303102 0)
(-0.111439 -0.00324341 0)
(-0.110261 -0.00346099 0)
(-0.109008 -0.00368352 0)
(-0.107678 -0.00391073 0)
(-0.10627 -0.00414225 0)
(-0.104781 -0.00437768 0)
(-0.103212 -0.00461654 0)
(-0.101561 -0.00485827 0)
(-0.0998276 -0.00510226 0)
(-0.098011 -0.00534781 0)
(-0.0961109 -0.00559415 0)
(-0.0941273 -0.00584043 0)
(-0.0920607 -0.00608571 0)
(-0.0899114 -0.00632899 0)
(-0.0876807 -0.00656917 0)
(-0.0853697 -0.00680507 0)
(-0.0829802 -0.00703544 0)
(-0.0805145 -0.00725892 0)
(-0.0779752 -0.00747411 0)
(-0.0753654 -0.00767951 0)
(-0.0726888 -0.00787355 0)
(-0.0699496 -0.00805459 0)
(-0.0671524 -0.00822094 0)
(-0.0643026 -0.00837084 0)
(-0.061406 -0.00850248 0)
(-0.0584692 -0.00861401 0)
(-0.0554992 -0.00870355 0)
(-0.0525036 -0.0087692 0)
(-0.0494909 -0.00880905 0)
(-0.0464698 -0.0088212 0)
(-0.0434499 -0.00880377 0)
(-0.0404413 -0.0087549 0)
(-0.0374546 -0.00867282 0)
(-0.0345009 -0.00855582 0)
(-0.0315919 -0.00840229 0)
(-0.0287398 -0.0082108 0)
(-0.0259569 -0.00798004 0)
(-0.0232559 -0.00770898 0)
(-0.0206499 -0.00739681 0)
(-0.0181519 -0.00704311 0)
(-0.0157747 -0.00664785 0)
(-0.0135312 -0.00621157 0)
(-0.0114336 -0.00573547 0)
(-0.00949369 -0.00522162 0)
(-0.00772199 -0.0046732 0)
(-0.00612789 -0.00409481 0)
(-0.00471901 -0.00349291 0)
(-0.00350071 -0.00287637 0)
(-0.00247556 -0.0022572 0)
(-0.00164265 -0.00165155 0)
(-0.000996959 -0.00108092 0)
(-0.000528361 -0.00057381 0)
(-0.00022068 -0.000167372 0)
(-5.27519e-05 9.02922e-05 0)
(-4.33575e-07 0.000132732 0)
(-7.72377e-06 -9.57987e-05 0)
(-8.99902e-05 2.18141e-05 0)
(-0.00031141 0.000359935 0)
(-0.000684144 0.000853176 0)
(-0.00122226 0.00145291 0)
(-0.00193801 0.00212067 0)
(-0.00283874 0.00282631 0)
(-0.00392764 0.0035465 0)
(-0.00520448 0.00426342 0)
(-0.00666618 0.00496352 0)
(-0.00830719 0.00563669 0)
(-0.01012 0.00627549 0)
(-0.0120957 0.00687463 0)
(-0.0142239 0.00743046 0)
(-0.0164937 0.00794067 0)
(-0.0188933 0.00840398 0)
(-0.0214107 0.00881995 0)
(-0.0240338 0.00918878 0)
(-0.0267504 0.0095112 0)
(-0.0295483 0.00978831 0)
(-0.0324158 0.0100216 0)
(-0.0353413 0.0102126 0)
(-0.0383137 0.0103634 0)
(-0.0413224 0.0104759 0)
(-0.0443572 0.0105521 0)
(-0.0474083 0.0105943 0)
(-0.0504668 0.0106046 0)
(-0.053524 0.0105852 0)
(-0.0565721 0.0105383 0)
(-0.0596035 0.010466 0)
(-0.0626115 0.0103706 0)
(-0.0655898 0.010254 0)
(-0.0685327 0.0101182 0)
(-0.071435 0.00996515 0)
(-0.074292 0.00979673 0)
(-0.0770995 0.0096147 0)
(-0.0798538 0.00942073 0)
(-0.0825518 0.00921641 0)
(-0.0851906 0.00900327 0)
(-0.0877677 0.0087827 0)
(-0.0902813 0.00855604 0)
(-0.0927295 0.00832451 0)
(-0.0951112 0.00808927 0)
(-0.0974253 0.00785136 0)
(-0.0996712 0.00761177 0)
(-0.101848 0.00737137 0)
(-0.103956 0.00713097 0)
(-0.105996 0.0068913 0)
(-0.107966 0.00665301 0)
(-0.109868 0.00641668 0)
(-0.111702 0.00618281 0)
(-0.11347 0.00595185 0)
(-0.115171 0.00572418 0)
(-0.116806 0.00550011 0)
(-0.118378 0.00527991 0)
(-0.119886 0.00506378 0)
(-0.121331 0.00485188 0)
(-0.122716 0.00464432 0)
(-0.124041 0.00444116 0)
(-0.125307 0.00424241 0)
(-0.126516 0.00404807 0)
(-0.127669 0.00385807 0)
(-0.128767 0.00367232 0)
(-0.129811 0.0034907 0)
(-0.130802 0.00331305 0)
(-0.131741 0.00313919 0)
(-0.13263 0.00296891 0)
(-0.133469 0.00280198 0)
(-0.134259 0.00263814 0)
(-0.135002 0.00247712 0)
(-0.135697 0.00231862 0)
(-0.136345 0.00216234 0)
(-0.136948 0.00200794 0)
(-0.137505 0.00185508 0)
(-0.138016 0.0017034 0)
(-0.138483 0.00155254 0)
(-0.138906 0.00140212 0)
(-0.139283 0.00125175 0)
(-0.139616 0.00110105 0)
(-0.139904 0.000949601 0)
(-0.140147 0.000797009 0)
(-0.140344 0.000642861 0)
(-0.140496 0.000486748 0)
(-0.1406 0.000328258 0)
(-0.140658 0.000166979 0)
(-0.140667 2.5043e-06 0)
(-0.140627 -0.000165571 0)
(-0.140537 -0.000337646 0)
(-0.140396 -0.000514109 0)
(-0.140202 -0.00069534 0)
(-0.139954 -0.000881707 0)
(-0.13965 -0.00107356 0)
(-0.139289 -0.00127125 0)
(-0.13887 -0.00147507 0)
(-0.13839 -0.00168533 0)
(-0.137848 -0.00190229 0)
(-0.137242 -0.0021262 0)
(-0.13657 -0.00235726 0)
(-0.135829 -0.00259564 0)
(-0.135019 -0.00284148 0)
(-0.134136 -0.00309488 0)
(-0.133179 -0.00335586 0)
(-0.132146 -0.00362444 0)
(-0.131034 -0.00390054 0)
(-0.129842 -0.00418405 0)
(-0.128568 -0.00447478 0)
(-0.127209 -0.00477248 0)
(-0.125764 -0.00507683 0)
(-0.124231 -0.00538742 0)
(-0.122609 -0.00570377 0)
(-0.120896 -0.00602532 0)
(-0.119091 -0.00635141 0)
(-0.117192 -0.00668128 0)
(-0.1152 -0.00701408 0)
(-0.113113 -0.00734887 0)
(-0.110931 -0.00768459 0)
(-0.108655 -0.00802009 0)
(-0.106284 -0.00835409 0)
(-0.103819 -0.00868522 0)
(-0.101261 -0.00901198 0)
(-0.0986125 -0.00933279 0)
(-0.0958749 -0.00964593 0)
(-0.0930507 -0.00994958 0)
(-0.0901431 -0.0102418 0)
(-0.0871555 -0.0105206 0)
(-0.0840922 -0.0107839 0)
(-0.0809579 -0.0110294 0)
(-0.0777579 -0.0112548 0)
(-0.0744982 -0.0114578 0)
(-0.0711855 -0.011636 0)
(-0.067827 -0.0117868 0)