/*--------------------------------*- C++ -*----------------------------------*\
  =========                 |
  \\      /  F ield         | OpenFOAM: The Open Source CFD Toolbox
   \\    /   O peration     | Website:  https://openfoam.org
    \\  /    A nd           | Version:  7
     \\/     M anipulation  |
\*---------------------------------------------------------------------------*/
FoamFile
{
    version     2.0;
    format      ascii;
    class       volVectorField;
    location    "0.1125";
    object      U;
}
// * * * * * * * * * * * * * * * * * * * * * * * * * * * * * * * * * * * * * //

dimensions      [0 1 -1 0 0 0 0];

internalField   nonuniform List<vector> 
12800
(
(8.32605e-06 -8.31797e-06 0)
(3.70807e-05 -1.85289e-05 0)
(7.85108e-05 -1.97042e-05 0)
(0.000113205 -1.53466e-05 0)
(0.000129932 -8.30475e-06 0)
(0.000123806 -1.33669e-07 0)
(9.26841e-05 8.34679e-06 0)
(3.59525e-05 1.66969e-05 0)
(-4.60316e-05 2.46843e-05 0)
(-0.000152321 3.21893e-05 0)
(-0.000281615 3.91517e-05 0)
(-0.00043241 4.55472e-05 0)
(-0.000603083 5.13703e-05 0)
(-0.000791958 5.66274e-05 0)
(-0.000997343 6.13332e-05 0)
(-0.00121756 6.5506e-05 0)
(-0.00145098 6.91671e-05 0)
(-0.00169599 7.23405e-05 0)
(-0.00195107 7.50509e-05 0)
(-0.00221474 7.73227e-05 0)
(-0.00248562 7.91827e-05 0)
(-0.00276236 8.06556e-05 0)
(-0.00304373 8.17672e-05 0)
(-0.00332855 8.25424e-05 0)
(-0.00361572 8.30053e-05 0)
(-0.00390422 8.31795e-05 0)
(-0.0041931 8.30884e-05 0)
(-0.00448148 8.27541e-05 0)
(-0.00476857 8.2198e-05 0)
(-0.00505363 8.14406e-05 0)
(-0.00533599 8.05017e-05 0)
(-0.00561504 7.94002e-05 0)
(-0.00589025 7.81539e-05 0)
(-0.00616112 7.67797e-05 0)
(-0.00642724 7.52933e-05 0)
(-0.00668821 7.37101e-05 0)
(-0.00694372 7.2044e-05 0)
(-0.00719349 7.03084e-05 0)
(-0.00743728 6.85154e-05 0)
(-0.00767489 6.66766e-05 0)
(-0.00790618 6.48023e-05 0)
(-0.00813101 6.29025e-05 0)
(-0.00834929 6.0986e-05 0)
(-0.00856098 5.90608e-05 0)
(-0.00876603 5.71342e-05 0)
(-0.00896444 5.52133e-05 0)
(-0.00915623 5.33039e-05 0)
(-0.00934142 5.14112e-05 0)
(-0.00952008 4.954e-05 0)
(-0.00969228 4.76942e-05 0)
(-0.00985809 4.58775e-05 0)
(-0.0100176 4.4093e-05 0)
(-0.010171 4.23434e-05 0)
(-0.0103182 4.06304e-05 0)
(-0.0104596 3.89555e-05 0)
(-0.0105951 3.73199e-05 0)
(-0.0107249 3.57246e-05 0)
(-0.0108491 3.417e-05 0)
(-0.010968 3.26563e-05 0)
(-0.0110815 3.1183e-05 0)
(-0.0111899 2.97496e-05 0)
(-0.0112933 2.83553e-05 0)
(-0.0113917 2.69989e-05 0)
(-0.0114854 2.56794e-05 0)
(-0.0115745 2.43952e-05 0)
(-0.011659 2.31446e-05 0)
(-0.0117391 2.19256e-05 0)
(-0.0118148 2.07361e-05 0)
(-0.0118864 1.9574e-05 0)
(-0.0119538 1.84367e-05 0)
(-0.0120171 1.73217e-05 0)
(-0.0120764 1.62264e-05 0)
(-0.0121318 1.51479e-05 0)
(-0.0121834 1.40833e-05 0)
(-0.0122311 1.30294e-05 0)
(-0.0122749 1.19833e-05 0)
(-0.012315 1.0942e-05 0)
(-0.0123514 9.90231e-06 0)
(-0.0123839 8.86062e-06 0)
(-0.0124126 7.8134e-06 0)
(-0.0124376 6.75732e-06 0)
(-0.0124586 5.68912e-06 0)
(-0.0124758 4.60537e-06 0)
(-0.012489 3.50252e-06 0)
(-0.0124982 2.37698e-06 0)
(-0.0125032 1.22519e-06 0)
(-0.0125041 4.369e-08 0)
(-0.0125006 -1.17099e-06 0)
(-0.0124926 -2.42232e-06 0)
(-0.0124801 -3.71368e-06 0)
(-0.0124629 -5.04832e-06 0)
(-0.0124408 -6.4294e-06 0)
(-0.0124136 -7.8601e-06 0)
(-0.0123813 -9.34345e-06 0)
(-0.0123436 -1.08822e-05 0)
(-0.0123003 -1.24789e-05 0)
(-0.0122512 -1.41361e-05 0)
(-0.0121961 -1.58559e-05 0)
(-0.0121348 -1.76405e-05 0)
(-0.0120671 -1.94916e-05 0)
(-0.0119927 -2.14102e-05 0)
(-0.0119115 -2.33972e-05 0)
(-0.0118232 -2.54535e-05 0)
(-0.0117275 -2.75793e-05 0)
(-0.0116243 -2.97743e-05 0)
(-0.0115132 -3.20377e-05 0)
(-0.0113942 -3.4368e-05 0)
(-0.011267 -3.67632e-05 0)
(-0.0111313 -3.92207e-05 0)
(-0.0109869 -4.17374e-05 0)
(-0.0108338 -4.43095e-05 0)
(-0.0106717 -4.69322e-05 0)
(-0.0105005 -4.95998e-05 0)
(-0.01032 -5.23058e-05 0)
(-0.0101301 -5.50431e-05 0)
(-0.00993085 -5.78036e-05 0)
(-0.00972209 -6.05784e-05 0)
(-0.00950385 -6.3357e-05 0)
(-0.00927613 -6.61283e-05 0)
(-0.00903902 -6.888e-05 0)
(-0.00879262 -7.15993e-05 0)
(-0.00853708 -7.42719e-05 0)
(-0.00827261 -7.68826e-05 0)
(-0.00799946 -7.94149e-05 0)
(-0.00771797 -8.18513e-05 0)
(-0.0074285 -8.41738e-05 0)
(-0.0071315 -8.63631e-05 0)
(-0.00682747 -8.8399e-05 0)
(-0.00651699 -9.02602e-05 0)
(-0.00620071 -9.19246e-05 0)
(-0.00587935 -9.33694e-05 0)
(-0.00555372 -9.45711e-05 0)
(-0.0052247 -9.55055e-05 0)
(-0.00489324 -9.61478e-05 0)
(-0.00456039 -9.64728e-05 0)
(-0.00422727 -9.6455e-05 0)
(-0.00389509 -9.60687e-05 0)
(-0.00356514 -9.52877e-05 0)
(-0.00323879 -9.40858e-05 0)
(-0.00291748 -9.24372e-05 0)
(-0.00260276 -9.03162e-05 0)
(-0.00229621 -8.76975e-05 0)
(-0.00199953 -8.4556e-05 0)
(-0.00171444 -8.08676e-05 0)
(-0.00144276 -7.66092e-05 0)
(-0.00118634 -7.17595e-05 0)
(-0.000947076 -6.6299e-05 0)
(-0.000726876 -6.02117e-05 0)
(-0.000527665 -5.34861e-05 0)
(-0.000351337 -4.61181e-05 0)
(-0.000199715 -3.81157e-05 0)
(-7.44877e-05 -2.95075e-05 0)
(2.28872e-05 -2.03574e-05 0)
(9.1336e-05 -1.07938e-05 0)
(0.000130429 -1.06673e-06 0)
(0.000140799 8.34494e-06 0)
(0.000124761 1.65378e-05 0)
(8.76732e-05 2.178e-05 0)
(4.20256e-05 2.0852e-05 0)
(9.63033e-06 9.62904e-06 0)
(1.85473e-05 -3.70698e-05 0)
(7.03309e-05 -7.02657e-05 0)
(0.000131998 -6.7722e-05 0)
(0.000170068 -4.20555e-05 0)
(0.000163263 -3.12588e-06 0)
(0.000100157 4.27346e-05 0)
(-2.55133e-05 9.15583e-05 0)
(-0.000216485 0.000140866 0)
(-0.000472967 0.000189112 0)
(-0.000793456 0.000235336 0)
(-0.00117531 0.000278945 0)
(-0.00161513 0.000319587 0)
(-0.00210906 0.000357063 0)
(-0.00265294 0.000391285 0)
(-0.00324246 0.000422236 0)
(-0.00387327 0.00044995 0)
(-0.00454104 0.000474499 0)
(-0.0052415 0.00049598 0)
(-0.0059705 0.00051451 0)
(-0.00672405 0.000530215 0)
(-0.00749831 0.000543236 0)
(-0.0082896 0.000553714 0)
(-0.00909444 0.000561796 0)
(-0.00990957 0.000567633 0)
(-0.0107319 0.00057137 0)
(-0.0115585 0.000573154 0)
(-0.0123868 0.000573132 0)
(-0.0132142 0.000571443 0)
(-0.0140384 0.000568226 0)
(-0.0148573 0.000563614 0)
(-0.0156691 0.000557735 0)
(-0.0164719 0.000550714 0)
(-0.0172642 0.000542669 0)
(-0.0180445 0.000533712 0)
(-0.0188117 0.000523951 0)
(-0.0195645 0.000513487 0)
(-0.0203021 0.000502416 0)
(-0.0210236 0.000490827 0)
(-0.0217283 0.000478806 0)
(-0.0224156 0.00046643 0)
(-0.0230849 0.000453772 0)
(-0.023736 0.0004409 0)
(-0.0243686 0.000427875 0)
(-0.0249823 0.000414756 0)
(-0.0255772 0.000401593 0)
(-0.0261531 0.000388433 0)
(-0.0267101 0.000375321 0)
(-0.0272483 0.000362293 0)
(-0.0277677 0.000349383 0)
(-0.0282685 0.000336621 0)
(-0.0287511 0.000324033 0)
(-0.0292155 0.00031164 0)
(-0.0296621 0.000299463 0)
(-0.0300912 0.000287516 0)
(-0.0305031 0.000275811 0)
(-0.0308981 0.000264359 0)
(-0.0312767 0.000253164 0)
(-0.0316391 0.000242232 0)
(-0.0319858 0.000231565 0)
(-0.0323171 0.000221163 0)
(-0.0326334 0.000211021 0)
(-0.0329351 0.000201136 0)
(-0.0332224 0.000191502 0)
(-0.0334958 0.00018211 0)
(-0.0337556 0.00017295 0)
(-0.0340021 0.000164013 0)
(-0.0342356 0.000155284 0)
(-0.0344564 0.000146751 0)
(-0.0346648 0.000138398 0)
(-0.034861 0.00013021 0)
(-0.0350452 0.000122169 0)
(-0.0352177 0.000114258 0)
(-0.0353785 0.000106457 0)
(-0.0355279 9.8747e-05 0)
(-0.0356659 9.11081e-05 0)
(-0.0357927 8.35191e-05 0)
(-0.0359083 7.59588e-05 0)
(-0.0360127 6.84055e-05 0)
(-0.0361058 6.08365e-05 0)
(-0.0361878 5.3229e-05 0)
(-0.0362584 4.55601e-05 0)
(-0.0363177 3.78063e-05 0)
(-0.0363653 2.99441e-05 0)
(-0.0364013 2.19503e-05 0)
(-0.0364253 1.38013e-05 0)
(-0.0364371 5.47346e-06 0)
(-0.0364365 -3.05669e-06 0)
(-0.0364232 -1.18123e-05 0)
(-0.0363968 -2.08158e-05 0)
(-0.0363568 -3.00898e-05 0)
(-0.0363031 -3.96559e-05 0)
(-0.036235 -4.95354e-05 0)
(-0.0361522 -5.97483e-05 0)
(-0.0360541 -7.03139e-05 0)
(-0.0359403 -8.12501e-05 0)
(-0.0358102 -9.25738e-05 0)
(-0.0356632 -0.0001043 0)
(-0.0354988 -0.000116444 0)
(-0.0353164 -0.000129016 0)
(-0.0351153 -0.000142026 0)
(-0.0348949 -0.000155482 0)
(-0.0346546 -0.000169389 0)
(-0.0343938 -0.000183749 0)
(-0.0341118 -0.000198561 0)
(-0.033808 -0.000213822 0)
(-0.0334818 -0.000229524 0)
(-0.0331325 -0.000245656 0)
(-0.0327596 -0.000262202 0)
(-0.0323625 -0.000279143 0)
(-0.0319408 -0.000296455 0)
(-0.0314938 -0.000314109 0)
(-0.0310212 -0.00033207 0)
(-0.0305225 -0.000350299 0)
(-0.0299975 -0.000368752 0)
(-0.0294459 -0.000387375 0)
(-0.0288675 -0.000406114 0)
(-0.0282623 -0.000424904 0)
(-0.0276301 -0.000443675 0)
(-0.0269712 -0.00046235 0)
(-0.0262858 -0.000480847 0)
(-0.0255743 -0.000499076 0)
(-0.024837 -0.00051694 0)
(-0.0240747 -0.000534336 0)
(-0.0232881 -0.000551154 0)
(-0.0224781 -0.000567277 0)
(-0.021646 -0.000582582 0)
(-0.0207929 -0.000596941 0)
(-0.0199203 -0.00061022 0)
(-0.01903 -0.000622277 0)
(-0.0181237 -0.000632968 0)
(-0.0172036 -0.000642143 0)
(-0.016272 -0.000649649 0)
(-0.0153313 -0.00065533 0)
(-0.0143843 -0.000659025 0)
(-0.013434 -0.000660573 0)
(-0.0124835 -0.000659814 0)
(-0.0115362 -0.000656585 0)
(-0.0105958 -0.000650726 0)
(-0.009666 -0.000642079 0)
(-0.00875093 -0.000630488 0)
(-0.00785479 -0.000615806 0)
(-0.00698203 -0.00059789 0)
(-0.00613723 -0.00057661 0)
(-0.00532515 -0.000551845 0)
(-0.00455066 -0.000523492 0)
(-0.00381871 -0.000491472 0)
(-0.00313433 -0.000455732 0)
(-0.0025025 -0.00041626 0)
(-0.00192814 -0.0003731 0)
(-0.00141594 -0.000326371 0)
(-0.000970286 -0.000276306 0)
(-0.000594985 -0.000223304 0)
(-0.000293021 -0.000168021 0)
(-6.61109e-05 -0.00011151 0)
(8.59207e-05 -5.54654e-05 0)
(0.000166042 -2.61875e-06 0)
(0.000181135 4.26291e-05 0)
(0.000143861 7.31908e-05 0)
(7.79283e-05 7.78974e-05 0)
(2.08511e-05 4.20115e-05 0)
(1.97966e-05 -7.85931e-05 0)
(6.80732e-05 -0.000132024 0)
(0.000111132 -0.000110595 0)
(0.000110288 -3.93899e-05 0)
(4.02921e-05 6.30144e-05 0)
(-0.000113712 0.000183402 0)
(-0.000360615 0.000312629 0)
(-0.000704813 0.00044449 0)
(-0.00114725 0.000574809 0)
(-0.00168637 0.000700792 0)
(-0.00231883 0.000820593 0)
(-0.00304005 0.000933015 0)
(-0.0038446 0.00103732 0)
(-0.0047265 0.00113309 0)
(-0.00567943 0.00122014 0)
(-0.00669692 0.00129845 0)
(-0.00777245 0.00136813 0)
(-0.00889953 0.00142938 0)
(-0.0100718 0.00148245 0)
(-0.0112832 0.00152765 0)
(-0.0125276 0.00156533 0)
(-0.0137993 0.00159586 0)
(-0.0150931 0.00161963 0)
(-0.0164035 0.00163702 0)
(-0.0177259 0.00164844 0)
(-0.0190556 0.00165428 0)
(-0.0203884 0.00165495 0)
(-0.0217203 0.00165084 0)
(-0.0230476 0.00164233 0)
(-0.0243669 0.00162978 0)
(-0.0256753 0.00161357 0)
(-0.0269697 0.00159404 0)
(-0.0282478 0.00157152 0)
(-0.0295072 0.00154634 0)
(-0.0307458 0.00151879 0)
(-0.0319619 0.00148918 0)
(-0.0331538 0.00145777 0)
(-0.0343203 0.00142481 0)
(-0.03546 0.00139056 0)
(-0.0365721 0.00135524 0)
(-0.0376556 0.00131905 0)
(-0.0387101 0.0012822 0)
(-0.0397348 0.00124485 0)
(-0.0407296 0.00120719 0)
(-0.0416941 0.00116936 0)
(-0.0426283 0.00113149 0)
(-0.043532 0.00109371 0)
(-0.0444055 0.00105614 0)
(-0.0452489 0.00101886 0)
(-0.0460624 0.00098198 0)
(-0.0468464 0.000945562 0)
(-0.0476011 0.000909675 0)
(-0.0483272 0.000874375 0)
(-0.0490249 0.000839709 0)
(-0.0496948 0.000805715 0)
(-0.0503375 0.00077242 0)
(-0.0509534 0.000739846 0)
(-0.0515432 0.000708007 0)
(-0.0521074 0.000676909 0)
(-0.0526467 0.000646552 0)
(-0.0531615 0.00061693 0)
(-0.0536525 0.000588032 0)
(-0.0541202 0.000559841 0)
(-0.0545651 0.000532333 0)
(-0.0549879 0.000505482 0)
(-0.0553889 0.000479258 0)
(-0.0557687 0.000453625 0)
(-0.0561278 0.000428545 0)
(-0.0564664 0.000403975 0)
(-0.0567852 0.000379869 0)
(-0.0570842 0.00035618 0)
(-0.057364 0.000332857 0)
(-0.0576247 0.000309846 0)
(-0.0578666 0.000287092 0)
(-0.0580898 0.000264536 0)
(-0.0582946 0.00024212 0)
(-0.0584808 0.000219781 0)
(-0.0586487 0.000197459 0)
(-0.0587982 0.000175088 0)
(-0.0589292 0.000152604 0)
(-0.0590415 0.000129942 0)
(-0.0591351 0.000107034 0)
(-0.0592098 8.38134e-05 0)
(-0.0592651 6.02137e-05 0)
(-0.0593008 3.61679e-05 0)
(-0.0593166 1.1609e-05 0)
(-0.0593119 -1.35295e-05 0)
(-0.0592863 -3.93131e-05 0)
(-0.0592393 -6.58061e-05 0)
(-0.0591702 -9.30715e-05 0)
(-0.0590784 -0.000121171 0)
(-0.0589633 -0.000150163 0)
(-0.0588241 -0.000180106 0)
(-0.0586601 -0.000211051 0)
(-0.0584703 -0.000243051 0)
(-0.058254 -0.000276151 0)
(-0.0580103 -0.000310395 0)
(-0.0577383 -0.000345819 0)
(-0.0574369 -0.000382455 0)
(-0.0571054 -0.000420329 0)
(-0.0567426 -0.000459462 0)
(-0.0563476 -0.000499864 0)
(-0.0559194 -0.000541541 0)
(-0.055457 -0.000584487 0)
(-0.0549594 -0.000628688 0)
(-0.0544257 -0.000674122 0)
(-0.0538549 -0.000720752 0)
(-0.053246 -0.000768533 0)
(-0.0525983 -0.000817405 0)
(-0.0519109 -0.000867297 0)
(-0.0511832 -0.000918123 0)
(-0.0504143 -0.000969781 0)
(-0.0496037 -0.00102216 0)
(-0.048751 -0.00107512 0)
(-0.0478558 -0.00112852 0)
(-0.0469179 -0.00118219 0)
(-0.0459371 -0.00123594 0)
(-0.0449135 -0.00128959 0)
(-0.0438474 -0.0013429 0)
(-0.0427391 -0.00139563 0)
(-0.0415893 -0.00144753 0)
(-0.0403987 -0.00149833 0)
(-0.0391685 -0.00154773 0)
(-0.0378998 -0.0015954 0)
(-0.0365944 -0.00164104 0)
(-0.0352539 -0.00168427 0)
(-0.0338804 -0.00172474 0)
(-0.0324765 -0.00176207 0)
(-0.0310446 -0.00179585 0)
(-0.029588 -0.00182569 0)
(-0.0281098 -0.00185116 0)
(-0.0266138 -0.00187183 0)
(-0.025104 -0.00188726 0)
(-0.0235847 -0.00189701 0)
(-0.0220606 -0.00190064 0)
(-0.0205367 -0.00189769 0)
(-0.0190184 -0.00188772 0)
(-0.0175114 -0.0018703 0)
(-0.0160217 -0.001845 0)
(-0.0145557 -0.00181141 0)
(-0.0131199 -0.00176914 0)
(-0.0117213 -0.00171783 0)
(-0.010367 -0.00165714 0)
(-0.00906426 -0.00158681 0)
(-0.0078206 -0.00150661 0)
(-0.00664354 -0.00141639 0)
(-0.00554064 -0.00131612 0)
(-0.00451935 -0.00120587 0)
(-0.00358687 -0.00108593 0)
(-0.00275 -0.000956817 0)
(-0.00201489 -0.000819384 0)
(-0.0013867 -0.000674988 0)
(-0.000869201 -0.000525686 0)
(-0.00046419 -0.000374565 0)
(-0.000170666 -0.000226238 0)
(1.6198e-05 -8.75721e-05 0)
(0.000106239 3.12556e-05 0)
(0.00011597 0.000115427 0)
(7.34865e-05 0.0001439 0)
(2.18326e-05 8.77006e-05 0)
(1.55703e-05 -0.000113608 0)
(4.28864e-05 -0.000170561 0)
(4.08228e-05 -0.000109957 0)
(-2.82188e-05 2.98257e-05 0)
(-0.000189928 0.000221254 0)
(-0.000460485 0.000443896 0)
(-0.000849962 0.00068289 0)
(-0.00136359 0.000927648 0)
(-0.00200272 0.0011707 0)
(-0.00276579 0.00140683 0)
(-0.003649 0.00163242 0)
(-0.00464695 0.00184504 0)
(-0.00575308 0.0020431 0)
(-0.00696004 0.00222561 0)
(-0.00825995 0.00239208 0)
(-0.00964466 0.00254231 0)
(-0.0111059 0.00267639 0)
(-0.0126352 0.00279459 0)
(-0.0142246 0.00289732 0)
(-0.015866 0.0029851 0)
(-0.0175515 0.00305854 0)
(-0.0192737 0.00311829 0)
(-0.0210255 0.00316505 0)
(-0.0228 0.00319954 0)
(-0.0245908 0.0032225 0)
(-0.0263918 0.00323468 0)
(-0.0281973 0.00323683 0)
(-0.0300019 0.00322967 0)
(-0.0318009 0.00321395 0)
(-0.0335896 0.00319036 0)
(-0.0353639 0.0031596 0)
(-0.0371199 0.00312233 0)
(-0.0388542 0.0030792 0)
(-0.0405638 0.00303083 0)
(-0.0422458 0.00297779 0)
(-0.0438977 0.00292066 0)
(-0.0455173 0.00285996 0)
(-0.0471029 0.00279619 0)
(-0.0486527 0.00272982 0)
(-0.0501654 0.00266129 0)
(-0.0516398 0.00259102 0)
(-0.0530751 0.00251937 0)
(-0.0544704 0.00244671 0)
(-0.0558253 0.00237336 0)
(-0.0571395 0.00229962 0)
(-0.0584126 0.00222575 0)
(-0.0596447 0.002152 0)
(-0.0608359 0.00207858 0)
(-0.0619863 0.00200571 0)
(-0.0630963 0.00193354 0)
(-0.0641662 0.00186224 0)
(-0.0651965 0.00179193 0)
(-0.0661878 0.00172272 0)
(-0.0671406 0.0016547 0)
(-0.0680556 0.00158796 0)
(-0.0689336 0.00152255 0)
(-0.0697751 0.00145852 0)
(-0.0705811 0.00139588 0)
(-0.0713521 0.00133467 0)
(-0.072089 0.00127487 0)
(-0.0727926 0.00121649 0)
(-0.0734636 0.00115949 0)
(-0.0741027 0.00110385 0)
(-0.0747107 0.00104953 0)
(-0.0752883 0.000996466 0)
(-0.0758361 0.000944611 0)
(-0.0763547 0.000893894 0)
(-0.0768449 0.000844241 0)
(-0.077307 0.000795571 0)
(-0.0777417 0.000747796 0)
(-0.0781494 0.000700822 0)
(-0.0785305 0.000654552 0)
(-0.0788854 0.000608882 0)
(-0.0792143 0.000563704 0)
(-0.0795175 0.000518907 0)
(-0.0797952 0.000474375 0)
(-0.0800475 0.00042999 0)
(-0.0802743 0.000385631 0)
(-0.0804758 0.000341174 0)
(-0.0806517 0.000296493 0)
(-0.080802 0.000251461 0)
(-0.0809264 0.00020595 0)
(-0.0810247 0.00015983 0)
(-0.0810963 0.00011297 0)
(-0.0811409 6.52425e-05 0)
(-0.0811581 1.65172e-05 0)
(-0.0811471 -3.33333e-05 0)
(-0.0811073 -8.44356e-05 0)
(-0.0810381 -0.000136914 0)
(-0.0809386 -0.00019089 0)
(-0.0808079 -0.000246481 0)
(-0.0806453 -0.0003038 0)
(-0.0804496 -0.000362957 0)
(-0.0802198 -0.000424053 0)
(-0.079955 -0.000487185 0)
(-0.0796538 -0.000552441 0)
(-0.0793153 -0.000619901 0)
(-0.078938 -0.000689635 0)
(-0.0785209 -0.000761704 0)
(-0.0780626 -0.000836154 0)
(-0.0775618 -0.000913021 0)
(-0.0770172 -0.000992324 0)
(-0.0764275 -0.00107407 0)
(-0.0757913 -0.00115824 0)
(-0.0751075 -0.00124482 0)
(-0.0743747 -0.00133374 0)
(-0.0735916 -0.00142494 0)
(-0.0727572 -0.00151833 0)
(-0.0718702 -0.00161378 0)
(-0.0709297 -0.00171115 0)
(-0.0699346 -0.00181028 0)
(-0.0688841 -0.00191096 0)
(-0.0677775 -0.00201296 0)
(-0.0666142 -0.00211603 0)
(-0.0653937 -0.00221988 0)
(-0.0641158 -0.00232418 0)
(-0.0627804 -0.00242856 0)
(-0.0613876 -0.00253265 0)
(-0.0599377 -0.002636 0)
(-0.0584314 -0.00273816 0)
(-0.0568695 -0.00283863 0)
(-0.0552532 -0.00293686 0)
(-0.0535839 -0.00303229 0)
(-0.0518635 -0.0031243 0)
(-0.0500939 -0.00321227 0)
(-0.0482778 -0.00329551 0)
(-0.0464179 -0.00337332 0)
(-0.0445174 -0.00344496 0)
(-0.0425801 -0.00350968 0)
(-0.04061 -0.00356669 0)
(-0.0386116 -0.00361519 0)
(-0.0365897 -0.00365435 0)
(-0.0345498 -0.00368334 0)
(-0.0324977 -0.00370132 0)
(-0.0304396 -0.00370744 0)
(-0.0283821 -0.00370086 0)
(-0.0263326 -0.00368075 0)
(-0.0242984 -0.00364629 0)
(-0.0222875 -0.0035967 0)
(-0.0203084 -0.00353122 0)
(-0.0183697 -0.00344914 0)
(-0.0164804 -0.00334983 0)
(-0.0146498 -0.00323273 0)
(-0.0128874 -0.00309737 0)
(-0.0112029 -0.00294342 0)
(-0.00960588 -0.00277072 0)
(-0.00810604 -0.00257931 0)
(-0.00671277 -0.00236952 0)
(-0.00543505 -0.00214205 0)
(-0.00428127 -0.00189809 0)
(-0.00325885 -0.00163948 0)
(-0.0023739 -0.00136899 0)
(-0.0016307 -0.00109066 0)
(-0.00103104 -0.000810281 0)
(-0.000573456 -0.000536126 0)
(-0.00025216 -0.00027994 0)
(-5.59809e-05 -5.82791e-05 0)
(3.30906e-05 0.000105968 0)
(4.35135e-05 0.000181707 0)
(1.67217e-05 0.000125057 0)
(8.68805e-06 -0.000130965 0)
(4.46344e-06 -0.000164668 0)
(-6.07906e-05 -4.05518e-05 0)
(-0.000218776 0.000191366 0)
(-0.000492982 0.000495246 0)
(-0.000899385 0.000843849 0)
(-0.00144805 0.00121672 0)
(-0.00214421 0.0015988 0)
(-0.00298921 0.0019791 0)
(-0.00398125 0.00234965 0)
(-0.0051161 0.0027048 0)
(-0.0063877 0.00304057 0)
(-0.00778861 0.00335427 0)
(-0.00931037 0.00364418 0)
(-0.0109439 0.0039093 0)
(-0.0126796 0.00414918 0)
(-0.0145079 0.00436378 0)
(-0.0164187 0.00455342 0)
(-0.0184025 0.00471864 0)
(-0.0204496 0.00486017 0)
(-0.0225506 0.00497888 0)
(-0.0246966 0.00507576 0)
(-0.0268789 0.00515187 0)
(-0.0290892 0.0052083 0)
(-0.0313197 0.00524622 0)
(-0.0335629 0.00526678 0)
(-0.0358118 0.00527116 0)
(-0.0380601 0.0052605 0)
(-0.0403015 0.00523597 0)
(-0.0425305 0.00519868 0)
(-0.0447421 0.00514974 0)
(-0.0469313 0.00509021 0)
(-0.0490941 0.00502112 0)
(-0.0512264 0.00494346 0)
(-0.0533249 0.00485818 0)
(-0.0553864 0.00476616 0)
(-0.0574083 0.00466828 0)
(-0.059388 0.00456533 0)
(-0.0613237 0.00445808 0)
(-0.0632135 0.00434724 0)
(-0.065056 0.00423347 0)
(-0.06685 0.0041174 0)
(-0.0685946 0.00399959 0)
(-0.0702891 0.00388058 0)
(-0.071933 0.00376085 0)
(-0.073526 0.00364083 0)
(-0.0750681 0.00352093 0)
(-0.0765593 0.00340152 0)
(-0.0779997 0.0032829 0)
(-0.0793898 0.00316536 0)
(-0.08073 0.00304917 0)
(-0.0820209 0.00293452 0)
(-0.083263 0.00282161 0)
(-0.0844572 0.00271058 0)
(-0.0856041 0.00260158 0)
(-0.0867047 0.00249468 0)
(-0.0877598 0.00238998 0)
(-0.0887703 0.00228751 0)
(-0.0897371 0.0021873 0)
(-0.0906612 0.00208937 0)
(-0.0915434 0.00199369 0)
(-0.0923848 0.00190023 0)
(-0.0931861 0.00180895 0)
(-0.0939483 0.00171978 0)
(-0.0946722 0.00163264 0)
(-0.0953587 0.00154744 0)
(-0.0960085 0.00146406 0)
(-0.0966224 0.00138238 0)
(-0.097201 0.00130229 0)
(-0.097745 0.00122364 0)
(-0.0982549 0.00114627 0)
(-0.0987313 0.00107003 0)
(-0.0991745 0.000994748 0)
(-0.0995849 0.000920259 0)
(-0.0999628 0.000846378 0)
(-0.100308 0.000772919 0)
(-0.100622 0.000699693 0)
(-0.100903 0.000626502 0)
(-0.101153 0.000553147 0)
(-0.10137 0.000479425 0)
(-0.101554 0.000405131 0)
(-0.101706 0.000330057 0)
(-0.101825 0.000253996 0)
(-0.10191 0.000176738 0)
(-0.101961 9.80737e-05 0)
(-0.101977 1.77958e-05 0)
(-0.101958 -6.43012e-05 0)
(-0.101902 -0.000148421 0)
(-0.10181 -0.000234762 0)
(-0.101679 -0.00032352 0)
(-0.101509 -0.000414882 0)
(-0.101299 -0.000509031 0)
(-0.101047 -0.000606139 0)
(-0.100753 -0.00070637 0)
(-0.100414 -0.000809877 0)
(-0.10003 -0.0009168 0)
(-0.0995992 -0.00102726 0)
(-0.0991199 -0.00114138 0)
(-0.0985907 -0.00125924 0)
(-0.0980099 -0.00138093 0)
(-0.0973761 -0.00150648 0)
(-0.0966877 -0.00163593 0)
(-0.095943 -0.00176928 0)
(-0.0951405 -0.00190652 0)
(-0.0942785 -0.00204758 0)
(-0.0933556 -0.00219238 0)
(-0.0923703 -0.00234079 0)
(-0.0913212 -0.00249268 0)
(-0.0902068 -0.00264783 0)
(-0.0890259 -0.00280601 0)
(-0.0877775 -0.00296694 0)
(-0.0864604 -0.0031303 0)
(-0.0850739 -0.00329571 0)
(-0.0836172 -0.00346275 0)
(-0.0820898 -0.00363095 0)
(-0.0804915 -0.00379977 0)
(-0.0788221 -0.00396864 0)
(-0.077082 -0.00413691 0)
(-0.0752715 -0.0043039 0)
(-0.0733916 -0.00446885 0)
(-0.0714432 -0.00463094 0)
(-0.0694279 -0.00478933 0)
(-0.0673474 -0.00494307 0)
(-0.0652041 -0.0050912 0)
(-0.0630006 -0.00523269 0)
(-0.0607399 -0.00536645 0)
(-0.0584256 -0.00549135 0)
(-0.0560618 -0.00560621 0)
(-0.0536529 -0.00570981 0)
(-0.0512039 -0.00580092 0)
(-0.0487204 -0.00587822 0)
(-0.0462084 -0.00594043 0)
(-0.0436746 -0.00598622 0)
(-0.041126 -0.00601424 0)
(-0.0385703 -0.00602316 0)
(-0.0360157 -0.00601166 0)
(-0.0334708 -0.00597843 0)
(-0.0309449 -0.00592221 0)
(-0.0284477 -0.00584177 0)
(-0.0259891 -0.00573596 0)
(-0.0235799 -0.00560372 0)
(-0.0212307 -0.0054441 0)
(-0.0189528 -0.00525628 0)
(-0.0167575 -0.00503963 0)
(-0.0146563 -0.00479374 0)
(-0.0126606 -0.0045185 0)
(-0.0107817 -0.00421414 0)
(-0.00903074 -0.00388137 0)
(-0.00741802 -0.00352148 0)
(-0.00595319 -0.00313657 0)
(-0.00464469 -0.00272978 0)
(-0.00349938 -0.0023056 0)
(-0.00252201 -0.00187039 0)
(-0.00171462 -0.00143301 0)
(-0.00107574 -0.00100566 0)
(-0.000599553 -0.000605067 0)
(-0.000274873 -0.000253992 0)
(-8.39362e-05 1.71069e-05 0)
(-8.86101e-07 0.000167928 0)
(8.72838e-06 0.00014177 0)
(6.62563e-07 -0.000125753 0)
(-4.10735e-05 -0.000102728 0)
(-0.00018104 0.000112884 0)
(-0.000441969 0.000462065 0)
(-0.000843255 0.000901866 0)
(-0.00139947 0.00139897 0)
(-0.00211969 0.00192777 0)
(-0.00300846 0.0024689 0)
(-0.00406656 0.00300785 0)
(-0.00529171 0.00353386 0)
(-0.00667914 0.00403903 0)
(-0.0082221 0.0045177 0)
(-0.00991236 0.00496593 0)
(-0.0117406 0.00538106 0)
(-0.0136966 0.0057615 0)
(-0.0157697 0.00610642 0)
(-0.017949 0.00641562 0)
(-0.0202234 0.00668937 0)
(-0.0225818 0.00692831 0)
(-0.0250133 0.00713338 0)
(-0.0275072 0.00730575 0)
(-0.0300531 0.00744672 0)
(-0.0326412 0.00755776 0)
(-0.0352617 0.00764041 0)
(-0.0379057 0.00769625 0)
(-0.0405646 0.00772694 0)
(-0.0432301 0.00773411 0)
(-0.0458949 0.00771943 0)
(-0.0485517 0.00768453 0)
(-0.051194 0.00763102 0)
(-0.0538159 0.00756048 0)
(-0.0564117 0.00747444 0)
(-0.0589765 0.00737438 0)
(-0.0615056 0.00726173 0)
(-0.063995 0.00713787 0)
(-0.066441 0.00700409 0)
(-0.0688404 0.00686163 0)
(-0.0711903 0.00671169 0)
(-0.0734884 0.00655534 0)
(-0.0757324 0.00639365 0)
(-0.0779208 0.00622758 0)
(-0.080052 0.00605804 0)
(-0.0821249 0.00588585 0)
(-0.0841387 0.0057118 0)
(-0.0860927 0.0055366 0)
(-0.0879867 0.00536089 0)
(-0.0898204 0.00518526 0)
(-0.0915938 0.00501024 0)
(-0.0933073 0.00483631 0)
(-0.0949612 0.00466388 0)
(-0.0965559 0.00449332 0)
(-0.0980922 0.00432496 0)
(-0.0995706 0.00415906 0)
(-0.100992 0.00399586 0)
(-0.102358 0.00383555 0)
(-0.103668 0.00367827 0)
(-0.104924 0.00352413 0)
(-0.106128 0.00337321 0)
(-0.107279 0.00322556 0)
(-0.108379 0.00308118 0)
(-0.10943 0.00294006 0)
(-0.110431 0.00280215 0)
(-0.111385 0.00266739 0)
(-0.112293 0.00253568 0)
(-0.113154 0.00240691 0)
(-0.113971 0.00228094 0)
(-0.114744 0.00215761 0)
(-0.115474 0.00203676 0)
(-0.116162 0.00191819 0)
(-0.116809 0.00180171 0)
(-0.117414 0.00168708 0)
(-0.11798 0.0015741 0)
(-0.118505 0.0014625 0)
(-0.118992 0.00135205 0)
(-0.119439 0.00124247 0)
(-0.119848 0.0011335 0)
(-0.120218 0.00102487 0)
(-0.120549 0.000916273 0)
(-0.120842 0.000807435 0)
(-0.121096 0.000698058 0)
(-0.121311 0.000587842 0)
(-0.121488 0.000476487 0)
(-0.121624 0.000363689 0)
(-0.12172 0.000249146 0)
(-0.121775 0.000132553 0)
(-0.121789 1.36104e-05 0)
(-0.12176 -0.000107981 0)
(-0.121687 -0.000232515 0)
(-0.121571 -0.00036028 0)
(-0.121408 -0.000491558 0)
(-0.121199 -0.00062662 0)
(-0.120942 -0.000765728 0)
(-0.120635 -0.000909132 0)
(-0.120277 -0.00105707 0)
(-0.119867 -0.00120975 0)
(-0.119403 -0.00136739 0)
(-0.118882 -0.00153015 0)
(-0.118305 -0.00169821 0)
(-0.117668 -0.00187168 0)
(-0.116969 -0.00205067 0)
(-0.116208 -0.00223525 0)
(-0.115382 -0.00242546 0)
(-0.11449 -0.0026213 0)
(-0.113529 -0.00282272 0)
(-0.112498 -0.00302965 0)
(-0.111394 -0.00324195 0)
(-0.110217 -0.00345945 0)
(-0.108964 -0.0036819 0)
(-0.107635 -0.00390903 0)
(-0.106227 -0.00414047 0)
(-0.104739 -0.00437581 0)
(-0.103171 -0.00461459 0)
(-0.101521 -0.00485624 0)
(-0.099788 -0.00510014 0)
(-0.0979722 -0.00534561 0)
(-0.0960729 -0.00559187 0)
(-0.0940902 -0.00583807 0)
(-0.0920244 -0.00608327 0)
(-0.0898761 -0.00632647 0)
(-0.0876463 -0.00656657 0)
(-0.0853363 -0.0068024 0)
(-0.0829478 -0.00703269 0)
(-0.0804831 -0.0072561 0)
(-0.0779449 -0.00747122 0)
(-0.0753362 -0.00767656 0)
(-0.0726606 -0.00787053 0)
(-0.0699225 -0.00805152 0)
(-0.0671264 -0.00821782 0)
(-0.0642778 -0.00836767 0)
(-0.0613824 -0.00849926 0)
(-0.0584467 -0.00861076 0)
(-0.0554779 -0.00870027 0)
(-0.0524835 -0.0087659 0)
(-0.0494719 -0.00880575 0)
(-0.0464521 -0.0088179 0)
(-0.0434334 -0.00880047 0)
(-0.0404259 -0.00875163 0)
(-0.0374404 -0.00866958 0)
(-0.0344879 -0.00855262 0)
(-0.03158 -0.00839916 0)
(-0.028729 -0.00820774 0)
(-0.0259472 -0.00797708 0)
(-0.0232473 -0.00770612 0)
(-0.0206423 -0.00739407 0)
(-0.0181452 -0.00704051 0)
(-0.015769 -0.00664541 0)
(-0.0135263 -0.00620931 0)
(-0.0114296 -0.00573341 0)
(-0.0094904 -0.00521977 0)
(-0.00771937 -0.00467158 0)
(-0.00612588 -0.00409344 0)
(-0.00471752 -0.0034918 0)
(-0.00349966 -0.00287552 0)
(-0.00247487 -0.00225661 0)
(-0.00164225 -0.00165121 0)
(-0.000996754 -0.0010808 0)
(-0.000528287 -0.000573874 0)
(-0.000220673 -0.000167561 0)
(-5.27659e-05 9.00647e-05 0)
(-4.40722e-07 0.000132595 0)
(-7.72475e-06 -9.56845e-05 0)
(-8.99809e-05 2.19976e-05 0)
(-0.000311358 0.000360075 0)
(-0.000684003 0.000853192 0)
(-0.00122197 0.00145274 0)
(-0.00193752 0.00212029 0)
(-0.00283798 0.00282568 0)
(-0.00392654 0.00354563 0)
(-0.00520298 0.00426229 0)
(-0.0066642 0.00496214 0)
(-0.00830468 0.00563507 0)
(-0.0101169 0.00627365 0)
(-0.0120919 0.00687257 0)
(-0.0142194 0.00742821 0)
(-0.0164884 0.00793823 0)
(-0.0188872 0.00840138 0)
(-0.0214038 0.0088172 0)
(-0.0240261 0.0091859 0)
(-0.0267417 0.0095082 0)
(-0.0295387 0.00978521 0)
(-0.0324052 0.0100184 0)
(-0.0353297 0.0102094 0)
(-0.0383011 0.0103601 0)
(-0.0413087 0.0104725 0)
(-0.0443424 0.0105487 0)
(-0.0473925 0.0105908 0)
(-0.0504499 0.0106011 0)
(-0.0535061 0.0105816 0)
(-0.056553 0.0105347 0)
(-0.0595834 0.0104625 0)
(-0.0625903 0.010367 0)
(-0.0655675 0.0102504 0)
(-0.0685092 0.0101146 0)
(-0.0714104 0.00996161 0)
(-0.0742663 0.0097932 0)
(-0.0770727 0.00961119 0)
(-0.079826 0.00941724 0)
(-0.0825229 0.00921295 0)
(-0.0851606 0.00899983 0)
(-0.0877366 0.00877929 0)
(-0.0902491 0.00855266 0)
(-0.0926964 0.00832117 0)
(-0.095077 0.00808596 0)
(-0.0973901 0.0078481 0)
(-0.0996349 0.00760854 0)
(-0.101811 0.00736819 0)
(-0.103918 0.00712784 0)
(-0.105956 0.00688822 0)
(-0.107926 0.00664998 0)
(-0.109827 0.0064137 0)
(-0.11166 0.00617989 0)
(-0.113427 0.00594899 0)
(-0.115127 0.00572137 0)
(-0.116762 0.00549737 0)
(-0.118332 0.00527723 0)
(-0.119839 0.00506116 0)
(-0.121284 0.00484933 0)
(-0.122668 0.00464183 0)
(-0.123992 0.00443873 0)
(-0.125258 0.00424006 0)
(-0.126466 0.00404578 0)
(-0.127618 0.00385585 0)
(-0.128715 0.00367017 0)
(-0.129758 0.00348862 0)
(-0.130749 0.00331104 0)
(-0.131688 0.00313726 0)
(-0.132576 0.00296706 0)
(-0.133414 0.00280021 0)
(-0.134204 0.00263645 0)
(-0.134946 0.00247552 0)
(-0.13564 0.00231711 0)
(-0.136289 0.00216091 0)
(-0.136891 0.0020066 0)
(-0.137447 0.00185382 0)
(-0.137959 0.00170224 0)
(-0.138425 0.00155147 0)
(-0.138847 0.00140115 0)
(-0.139224 0.00125088 0)
(-0.139557 0.00110027 0)
(-0.139845 0.000948917 0)
(-0.140087 0.000796423 0)
(-0.140285 0.000642375 0)
(-0.140436 0.000486362 0)
(-0.140541 0.000327972 0)
(-0.140598 0.000166795 0)
(-0.140607 2.42253e-06 0)
(-0.140567 -0.000165551 0)
(-0.140477 -0.000337522 0)
(-0.140336 -0.000513881 0)
(-0.140142 -0.000695009 0)
(-0.139894 -0.000881272 0)
(-0.139591 -0.00107302 0)
(-0.13923 -0.0012706 0)
(-0.138811 -0.00147432 0)
(-0.138332 -0.00168447 0)
(-0.13779 -0.00190133 0)
(-0.137184 -0.00212513 0)
(-0.136512 -0.00235608 0)
(-0.135772 -0.00259436 0)
(-0.134962 -0.00284009 0)
(-0.13408 -0.00309338 0)
(-0.133123 -0.00335425 0)
(-0.132091 -0.00362272 0)
(-0.130979 -0.00389871 0)
(-0.129788 -0.0041821 0)
(-0.128514 -0.00447272 0)
(-0.127156 -0.00477031 0)
(-0.125712 -0.00507454 0)
(-0.12418 -0.00538502 0)
(-0.122558 -0.00570126 0)
(-0.120846 -0.00602269 0)
(-0.119042 -0.00634866 0)
(-0.117144 -0.00667841 0)
(-0.115153 -0.0070111 0)
(-0.113067 -0.00734578 0)
(-0.110886 -0.00768139 0)
(-0.108611 -0.00801677 0)
(-0.106241 -0.00835066 0)
(-0.103777 -0.00868168 0)
(-0.10122 -0.00900834 0)
(-0.0985728 -0.00932905 0)
(-0.0958363 -0.00964208 0)
(-0.0930134 -0.00994563 0)
(-0.090107 -0.0102378 0)
(-0.0871207 -0.0105165 0)
(-0.0840586 -0.0107797 0)
(-0.0809256 -0.0110251 0)
(-0.0777269 -0.0112505 0)
(-0.0744685 -0.0114534 0)
(-0.0711572 -0.0116315 0)
(-0.0678001 -0.0117823 0)
(-0.0644053 -0.0119032 0)