/*--------------------------------*- C++ -*----------------------------------*\
  =========                 |
  \\      /  F ield         | OpenFOAM: The Open Source CFD Toolbox
   \\    /   O peration     | Website:  https://openfoam.org
    \\  /    A nd           | Version:  7
     \\/     M anipulation  |
\*---------------------------------------------------------------------------*/
FoamFile
{
    version     2.0;
    format      ascii;
    class       volScalarField;
    location    "0.275";
    object      p;
}
// * * * * * * * * * * * * * * * * * * * * * * * * * * * * * * * * * * * * * //

dimensions      [0 2 -2 0 0 0 0];

internalField   nonuniform List<scalar> 
51200
(
-4.12189e-08
-8.24645e-08
-4.95002e-07
-1.51037e-06
-2.67402e-06
-3.73753e-06
-4.68207e-06
-5.55339e-06
-6.3889e-06
-7.22575e-06
-8.07602e-06
-8.9525e-06
-9.87292e-06
-1.0843e-05
-1.18638e-05
-1.2927e-05
-1.4029e-05
-1.51692e-05
-1.63514e-05
-1.7577e-05
-1.88384e-05
-2.01355e-05
-2.14571e-05
-2.28037e-05
-2.41719e-05
-2.55542e-05
-2.69503e-05
-2.83603e-05
-2.9778e-05
-3.12047e-05
-3.26353e-05
-3.40588e-05
-3.54774e-05
-3.68919e-05
-3.82988e-05
-3.97026e-05
-4.11011e-05
-4.24855e-05
-4.38561e-05
-4.5214e-05
-4.65557e-05
-4.78824e-05
-4.91956e-05
-5.04919e-05
-5.17695e-05
-5.30309e-05
-5.42756e-05
-5.54995e-05
-5.66998e-05
-5.78749e-05
-5.90265e-05
-6.01577e-05
-6.12729e-05
-6.23737e-05
-6.34579e-05
-6.45202e-05
-6.55578e-05
-6.65742e-05
-6.75699e-05
-6.85419e-05
-6.94897e-05
-7.0413e-05
-7.13108e-05
-7.2189e-05
-7.30548e-05
-7.39068e-05
-7.4738e-05
-7.55458e-05
-7.6334e-05
-7.71066e-05
-7.7866e-05
-7.86166e-05
-7.93621e-05
-8.01025e-05
-8.08364e-05
-8.15652e-05
-8.22921e-05
-8.30169e-05
-8.37376e-05
-8.44561e-05
-8.51769e-05
-8.59019e-05
-8.66298e-05
-8.73607e-05
-8.80985e-05
-8.88462e-05
-8.96011e-05
-9.03599e-05
-9.11233e-05
-9.18958e-05
-9.26817e-05
-9.34837e-05
-9.43021e-05
-9.51377e-05
-9.59915e-05
-9.68636e-05
-9.77542e-05
-9.86651e-05
-9.95974e-05
-0.000100551
-0.000101527
-0.000102523
-0.000103542
-0.000104585
-0.000105653
-0.000106746
-0.000107861
-0.000108997
-0.000110156
-0.000111334
-0.000112528
-0.000113739
-0.000114972
-0.000116229
-0.000117508
-0.000118803
-0.000120112
-0.000121439
-0.000122781
-0.000124136
-0.000125503
-0.000126883
-0.000128274
-0.000129673
-0.000131073
-0.000132472
-0.000133875
-0.000135282
-0.000136687
-0.000138086
-0.000139474
-0.00014085
-0.000142209
-0.000143549
-0.000144865
-0.000146156
-0.000147422
-0.000148656
-0.000149856
-0.000151013
-0.000152126
-0.00015319
-0.000154202
-0.000155155
-0.000156041
-0.000156854
-0.000157588
-0.000158243
-0.000158816
-0.000159302
-0.000159696
-0.000159996
-0.000160202
-0.000160317
-0.000160343
-0.000160284
-0.000160157
-0.000159989
-0.000159819
-0.000159704
-3.10274e-07
-9.83736e-07
-1.68602e-06
-2.65637e-06
-3.64945e-06
-4.51886e-06
-5.31412e-06
-6.07116e-06
-6.8261e-06
-7.60112e-06
-8.40358e-06
-9.23936e-06
-1.01161e-05
-1.10394e-05
-1.20127e-05
-1.30322e-05
-1.40906e-05
-1.51875e-05
-1.63242e-05
-1.74981e-05
-1.87127e-05
-1.99577e-05
-2.12299e-05
-2.25299e-05
-2.38504e-05
-2.5191e-05
-2.65482e-05
-2.79131e-05
-2.92886e-05
-3.06745e-05
-3.20637e-05
-3.34558e-05
-3.48463e-05
-3.6229e-05
-3.76081e-05
-3.89846e-05
-4.03537e-05
-4.17151e-05
-4.30674e-05
-4.44055e-05
-4.57295e-05
-4.70423e-05
-4.83418e-05
-4.96267e-05
-5.08978e-05
-5.21526e-05
-5.33909e-05
-5.46144e-05
-5.58211e-05
-5.70083e-05
-5.81758e-05
-5.93232e-05
-6.0452e-05
-6.1565e-05
-6.26616e-05
-6.37383e-05
-6.47938e-05
-6.58285e-05
-6.68423e-05
-6.78374e-05
-6.88167e-05
-6.97761e-05
-7.07101e-05
-7.16221e-05
-7.25171e-05
-7.3395e-05
-7.4255e-05
-7.50985e-05
-7.59261e-05
-7.67374e-05
-7.75349e-05
-7.83245e-05
-7.91093e-05
-7.98884e-05
-8.06615e-05
-8.14311e-05
-8.21991e-05
-8.29641e-05
-8.37243e-05
-8.44826e-05
-8.52437e-05
-8.60093e-05
-8.6779e-05
-8.75521e-05
-8.83301e-05
-8.91147e-05
-8.99053e-05
-9.07015e-05
-9.15041e-05
-9.23144e-05
-9.31344e-05
-9.39674e-05
-9.48171e-05
-9.56858e-05
-9.65728e-05
-9.74756e-05
-9.83939e-05
-9.93305e-05
-0.000100287
-0.000101264
-0.00010226
-0.000103277
-0.000104317
-0.000105379
-0.000106462
-0.000107566
-0.000108691
-0.000109837
-0.000111004
-0.000112187
-0.000113386
-0.0001146
-0.000115831
-0.000117079
-0.000118346
-0.000119631
-0.000120932
-0.000122249
-0.000123579
-0.000124917
-0.000126263
-0.000127619
-0.000128985
-0.000130356
-0.000131726
-0.000133096
-0.000134467
-0.000135839
-0.000137207
-0.000138565
-0.000139912
-0.000141246
-0.000142564
-0.000143859
-0.000145128
-0.000146371
-0.000147587
-0.000148773
-0.000149925
-0.000151036
-0.000152101
-0.000153119
-0.000154085
-0.000154994
-0.000155838
-0.000156612
-0.000157312
-0.000157937
-0.000158484
-0.000158951
-0.000159333
-0.000159629
-0.000159842
-0.000159975
-0.000160031
-0.000160014
-0.000159937
-0.00015982
-0.00015969
-0.000159579
-1.04982e-06
-1.92238e-06
-2.72628e-06
-3.60122e-06
-4.42661e-06
-5.14831e-06
-5.8267e-06
-6.49395e-06
-7.17456e-06
-7.8892e-06
-8.64128e-06
-9.43764e-06
-1.02771e-05
-1.11616e-05
-1.2094e-05
-1.3072e-05
-1.40931e-05
-1.51542e-05
-1.62511e-05
-1.73885e-05
-1.85618e-05
-1.97669e-05
-2.10022e-05
-2.22603e-05
-2.35431e-05
-2.485e-05
-2.61715e-05
-2.75058e-05
-2.88499e-05
-3.01979e-05
-3.15545e-05
-3.29178e-05
-3.42792e-05
-3.56396e-05
-3.69983e-05
-3.83505e-05
-3.96986e-05
-4.10422e-05
-4.23758e-05
-4.36994e-05
-4.50133e-05
-4.63148e-05
-4.7605e-05
-4.88858e-05
-5.01535e-05
-5.14056e-05
-5.26422e-05
-5.38633e-05
-5.50696e-05
-5.62632e-05
-5.74413e-05
-5.86009e-05
-5.97434e-05
-6.08695e-05
-6.19771e-05
-6.30677e-05
-6.41418e-05
-6.51945e-05
-6.6225e-05
-6.72387e-05
-6.82392e-05
-6.92234e-05
-7.01875e-05
-7.11314e-05
-7.20548e-05
-7.29572e-05
-7.3843e-05
-7.4716e-05
-7.55749e-05
-7.64181e-05
-7.72487e-05
-7.80722e-05
-7.88906e-05
-7.97031e-05
-8.05105e-05
-8.13146e-05
-8.21162e-05
-8.29145e-05
-8.37094e-05
-8.45033e-05
-8.52991e-05
-8.60982e-05
-8.69025e-05
-8.77125e-05
-8.85265e-05
-8.93438e-05
-9.01647e-05
-9.09915e-05
-9.18269e-05
-9.26706e-05
-9.35216e-05
-9.43827e-05
-9.52594e-05
-9.61549e-05
-9.7068e-05
-9.79959e-05
-9.89387e-05
-9.9899e-05
-0.000100878
-0.000101873
-0.000102886
-0.000103921
-0.00010498
-0.00010606
-0.000107157
-0.000108271
-0.000109405
-0.00011056
-0.000111731
-0.000112917
-0.000114118
-0.000115336
-0.000116568
-0.000117812
-0.000119071
-0.000120347
-0.000121641
-0.000122949
-0.000124266
-0.00012559
-0.000126922
-0.000128262
-0.000129606
-0.000130953
-0.000132299
-0.000133646
-0.000134992
-0.000136336
-0.000137673
-0.000138999
-0.000140312
-0.000141611
-0.000142894
-0.000144155
-0.000145388
-0.000146594
-0.000147771
-0.000148917
-0.000150029
-0.000151101
-0.000152129
-0.000153112
-0.000154043
-0.000154917
-0.000155729
-0.000156473
-0.000157149
-0.000157751
-0.000158279
-0.00015873
-0.000159103
-0.000159396
-0.000159612
-0.000159755
-0.000159829
-0.000159836
-0.000159786
-0.000159692
-0.00015956
-0.000159402
-2.36637e-06
-3.08859e-06
-3.75089e-06
-4.42263e-06
-5.05618e-06
-5.64613e-06
-6.22346e-06
-6.81177e-06
-7.42976e-06
-8.08787e-06
-8.79392e-06
-9.55203e-06
-1.03571e-05
-1.12106e-05
-1.21068e-05
-1.30498e-05
-1.40366e-05
-1.50639e-05
-1.61325e-05
-1.72374e-05
-1.83765e-05
-1.95516e-05
-2.07532e-05
-2.19798e-05
-2.3233e-05
-2.4505e-05
-2.57963e-05
-2.7106e-05
-2.84228e-05
-2.97465e-05
-3.10783e-05
-3.24117e-05
-3.3748e-05
-3.50886e-05
-3.64263e-05
-3.77611e-05
-3.9095e-05
-4.04214e-05
-4.17398e-05
-4.30531e-05
-4.43565e-05
-4.56491e-05
-4.69335e-05
-4.82088e-05
-4.94734e-05
-5.07274e-05
-5.1967e-05
-5.31888e-05
-5.43967e-05
-5.55928e-05
-5.67745e-05
-5.79431e-05
-5.90987e-05
-6.02368e-05
-6.1356e-05
-6.24603e-05
-6.35496e-05
-6.46194e-05
-6.56703e-05
-6.67043e-05
-6.77209e-05
-6.87219e-05
-6.9709e-05
-7.06799e-05
-7.16304e-05
-7.25597e-05
-7.34726e-05
-7.43721e-05
-7.52573e-05
-7.61288e-05
-7.69898e-05
-7.78436e-05
-7.8691e-05
-7.95332e-05
-8.03724e-05
-8.12087e-05
-8.20404e-05
-8.28678e-05
-8.36937e-05
-8.45202e-05
-8.53481e-05
-8.61775e-05
-8.7012e-05
-8.7854e-05
-8.87009e-05
-8.95492e-05
-9.03991e-05
-9.12538e-05
-9.21168e-05
-9.29883e-05
-9.38673e-05
-9.47566e-05
-9.56607e-05
-9.65809e-05
-9.75156e-05
-9.84644e-05
-9.94288e-05
-0.000100411
-0.00010141
-0.000102423
-0.000103452
-0.000104503
-0.000105577
-0.000106672
-0.000107782
-0.000108909
-0.000110054
-0.000111217
-0.000112393
-0.00011358
-0.000114782
-0.000116001
-0.000117234
-0.000118476
-0.000119731
-0.000121002
-0.000122289
-0.000123588
-0.000124893
-0.000126205
-0.000127526
-0.000128854
-0.000130182
-0.000131508
-0.000132833
-0.00013416
-0.000135485
-0.000136805
-0.000138117
-0.000139417
-0.000140704
-0.000141975
-0.000143227
-0.000144455
-0.000145659
-0.000146836
-0.000147982
-0.000149096
-0.000150174
-0.000151212
-0.00015221
-0.000153164
-0.000154067
-0.000154914
-0.000155699
-0.000156421
-0.000157077
-0.000157663
-0.000158176
-0.000158613
-0.000158977
-0.000159268
-0.000159486
-0.000159634
-0.000159714
-0.000159729
-0.000159688
-0.000159598
-0.000159447
-0.000159231
-3.7292e-06
-4.17423e-06
-4.62483e-06
-5.09299e-06
-5.57159e-06
-6.04319e-06
-6.53435e-06
-7.05657e-06
-7.61915e-06
-8.23191e-06
-8.89753e-06
-9.61384e-06
-1.03875e-05
-1.12076e-05
-1.20736e-05
-1.29841e-05
-1.39368e-05
-1.49345e-05
-1.59739e-05
-1.70481e-05
-1.81595e-05
-1.93016e-05
-2.04727e-05
-2.16745e-05
-2.2898e-05
-2.41413e-05
-2.54056e-05
-2.66845e-05
-2.79769e-05
-2.92811e-05
-3.05886e-05
-3.1899e-05
-3.32151e-05
-3.45327e-05
-3.58511e-05
-3.71714e-05
-3.84891e-05
-3.98012e-05
-4.11091e-05
-4.24108e-05
-4.37048e-05
-4.49925e-05
-4.62723e-05
-4.75415e-05
-4.88029e-05
-5.00562e-05
-5.1297e-05
-5.2524e-05
-5.3738e-05
-5.49373e-05
-5.61237e-05
-5.73e-05
-5.84644e-05
-5.96138e-05
-6.07473e-05
-6.1865e-05
-6.29657e-05
-6.40504e-05
-6.51221e-05
-6.61781e-05
-6.72144e-05
-6.82347e-05
-6.92422e-05
-7.02345e-05
-7.1209e-05
-7.21663e-05
-7.31079e-05
-7.4034e-05
-7.49452e-05
-7.58449e-05
-7.67362e-05
-7.76195e-05
-7.84953e-05
-7.93663e-05
-8.02359e-05
-8.11029e-05
-8.19643e-05
-8.28212e-05
-8.36773e-05
-8.45349e-05
-8.5394e-05
-8.62549e-05
-8.712e-05
-8.79918e-05
-8.88683e-05
-8.97467e-05
-9.06275e-05
-9.15125e-05
-9.24029e-05
-9.32997e-05
-9.42049e-05
-9.51222e-05
-9.60539e-05
-9.69987e-05
-9.79553e-05
-9.89255e-05
-9.99114e-05
-0.000100913
-0.00010193
-0.000102961
-0.00010401
-0.000105079
-0.000106167
-0.000107272
-0.000108395
-0.000109535
-0.000110691
-0.000111862
-0.000113044
-0.000114236
-0.000115441
-0.00011666
-0.00011789
-0.000119131
-0.000120385
-0.000121654
-0.000122935
-0.000124224
-0.000125518
-0.00012682
-0.00012813
-0.000129445
-0.000130759
-0.000132068
-0.000133375
-0.000134683
-0.000135989
-0.000137287
-0.000138574
-0.000139852
-0.000141116
-0.000142362
-0.000143586
-0.000144786
-0.00014596
-0.000147109
-0.000148228
-0.000149313
-0.000150361
-0.00015137
-0.000152339
-0.000153266
-0.000154145
-0.000154968
-0.000155731
-0.000156433
-0.000157072
-0.000157643
-0.000158142
-0.000158568
-0.000158924
-0.000159212
-0.000159432
-0.000159583
-0.000159665
-0.000159682
-0.00015964
-0.000159545
-0.000159372
-0.000159103
-4.82872e-06
-5.00337e-06
-5.26701e-06
-5.5883e-06
-5.94505e-06
-6.33048e-06
-6.74896e-06
-7.21478e-06
-7.73273e-06
-8.30751e-06
-8.93631e-06
-9.62211e-06
-1.03596e-05
-1.11491e-05
-1.1987e-05
-1.28676e-05
-1.37938e-05
-1.47643e-05
-1.57733e-05
-1.68239e-05
-1.79067e-05
-1.90194e-05
-2.01656e-05
-2.13387e-05
-2.25365e-05
-2.3759e-05
-2.49972e-05
-2.62501e-05
-2.75207e-05
-2.88007e-05
-3.00863e-05
-3.138e-05
-3.26762e-05
-3.39744e-05
-3.5278e-05
-3.65823e-05
-3.78845e-05
-3.91862e-05
-4.04837e-05
-4.17746e-05
-4.30615e-05
-4.43442e-05
-4.56198e-05
-4.6888e-05
-4.8148e-05
-4.93981e-05
-5.06389e-05
-5.187e-05
-5.30888e-05
-5.42947e-05
-5.54897e-05
-5.66735e-05
-5.78447e-05
-5.90046e-05
-6.01523e-05
-6.12834e-05
-6.23969e-05
-6.34962e-05
-6.45837e-05
-6.56574e-05
-6.67154e-05
-6.77592e-05
-6.87883e-05
-6.98005e-05
-7.07973e-05
-7.17807e-05
-7.27492e-05
-7.37014e-05
-7.46395e-05
-7.55674e-05
-7.64871e-05
-7.73986e-05
-7.83035e-05
-7.92041e-05
-8.01023e-05
-8.09973e-05
-8.18878e-05
-8.27749e-05
-8.36609e-05
-8.45472e-05
-8.54357e-05
-8.63283e-05
-8.72253e-05
-8.81263e-05
-8.903e-05
-8.99362e-05
-9.0847e-05
-9.17624e-05
-9.26809e-05
-9.36039e-05
-9.45357e-05
-9.54799e-05
-9.64371e-05
-9.74053e-05
-9.83846e-05
-9.93777e-05
-0.000100385
-0.000101406
-0.000102438
-0.000103487
-0.000104555
-0.000105642
-0.000106744
-0.000107862
-0.000108996
-0.000110149
-0.000111315
-0.000112492
-0.00011368
-0.00011488
-0.000116091
-0.000117311
-0.000118539
-0.000119779
-0.000121033
-0.000122299
-0.000123574
-0.000124854
-0.000126141
-0.000127434
-0.000128734
-0.000130035
-0.000131334
-0.00013263
-0.000133923
-0.000135215
-0.000136503
-0.000137781
-0.000139048
-0.000140304
-0.000141546
-0.00014277
-0.00014397
-0.000145144
-0.000146293
-0.000147416
-0.000148508
-0.000149566
-0.000150587
-0.000151572
-0.000152518
-0.000153421
-0.000154276
-0.000155078
-0.000155823
-0.000156509
-0.000157132
-0.00015769
-0.000158177
-0.000158594
-0.000158944
-0.000159229
-0.000159448
-0.0001596
-0.000159683
-0.000159699
-0.000159652
-0.000159546
-0.000159351
-0.00015904
-5.62383e-06
-5.60133e-06
-5.71917e-06
-5.92565e-06
-6.1918e-06
-6.50561e-06
-6.87455e-06
-7.29422e-06
-7.77326e-06
-8.31335e-06
-8.91453e-06
-9.57047e-06
-1.02786e-05
-1.10401e-05
-1.1848e-05
-1.27042e-05
-1.36073e-05
-1.45505e-05
-1.55371e-05
-1.65616e-05
-1.76188e-05
-1.87105e-05
-1.98315e-05
-2.09783e-05
-2.21541e-05
-2.33532e-05
-2.45698e-05
-2.58051e-05
-2.70533e-05
-2.83106e-05
-2.95786e-05
-3.08534e-05
-3.21319e-05
-3.34164e-05
-3.47058e-05
-3.59953e-05
-3.72859e-05
-3.85776e-05
-3.98654e-05
-4.11498e-05
-4.24308e-05
-4.3707e-05
-4.49794e-05
-4.62477e-05
-4.75077e-05
-4.87582e-05
-5.00007e-05
-5.12333e-05
-5.2455e-05
-5.36679e-05
-5.48714e-05
-5.60633e-05
-5.72431e-05
-5.84129e-05
-5.95714e-05
-6.0715e-05
-6.18446e-05
-6.29608e-05
-6.40622e-05
-6.51508e-05
-6.62285e-05
-6.7294e-05
-6.83444e-05
-6.93783e-05
-7.03985e-05
-7.1406e-05
-7.23986e-05
-7.33765e-05
-7.43423e-05
-7.52978e-05
-7.62439e-05
-7.71821e-05
-7.8116e-05
-7.90464e-05
-7.99723e-05
-8.08939e-05
-8.18124e-05
-8.27293e-05
-8.36445e-05
-8.45585e-05
-8.5475e-05
-8.63975e-05
-8.73252e-05
-8.8255e-05
-8.91862e-05
-9.01202e-05
-9.10589e-05
-9.2002e-05
-9.29477e-05
-9.38981e-05
-9.48578e-05
-9.58286e-05
-9.68096e-05
-9.78003e-05
-9.88025e-05
-9.98182e-05
-0.000100847
-0.000101886
-0.000102936
-0.000104002
-0.000105086
-0.000106188
-0.000107304
-0.000108435
-0.000109583
-0.000110748
-0.000111923
-0.000113107
-0.000114302
-0.00011551
-0.000116726
-0.000117949
-0.000119178
-0.000120419
-0.000121673
-0.000122936
-0.000124204
-0.000125477
-0.000126758
-0.000128045
-0.000129335
-0.000130623
-0.000131908
-0.000133192
-0.000134475
-0.000135753
-0.000137024
-0.000138286
-0.000139537
-0.000140775
-0.000141996
-0.000143197
-0.000144374
-0.000145527
-0.000146654
-0.000147754
-0.000148821
-0.000149854
-0.000150854
-0.000151819
-0.000152745
-0.000153627
-0.000154461
-0.000155245
-0.000155975
-0.000156647
-0.000157258
-0.000157802
-0.00015828
-0.000158691
-0.000159038
-0.000159321
-0.000159537
-0.000159687
-0.000159769
-0.000159783
-0.000159731
-0.000159614
-0.000159399
-0.000159056
-6.15111e-06
-5.99097e-06
-6.00454e-06
-6.12406e-06
-6.32045e-06
-6.57945e-06
-6.90577e-06
-7.29467e-06
-7.74372e-06
-8.25453e-06
-8.82798e-06
-9.45768e-06
-1.01422e-05
-1.0876e-05
-1.16608e-05
-1.24954e-05
-1.33749e-05
-1.42992e-05
-1.52626e-05
-1.62619e-05
-1.72991e-05
-1.83699e-05
-1.94689e-05
-2.05976e-05
-2.17508e-05
-2.29264e-05
-2.41266e-05
-2.53434e-05
-2.65719e-05
-2.7813e-05
-2.90633e-05
-3.03201e-05
-3.15853e-05
-3.28568e-05
-3.41322e-05
-3.54112e-05
-3.66924e-05
-3.79732e-05
-3.9254e-05
-4.05341e-05
-4.18101e-05
-4.30824e-05
-4.43522e-05
-4.56182e-05
-4.68784e-05
-4.81319e-05
-4.93772e-05
-5.06124e-05
-5.18387e-05
-5.30574e-05
-5.42671e-05
-5.54673e-05
-5.66579e-05
-5.78376e-05
-5.90047e-05
-6.01598e-05
-6.13048e-05
-6.24375e-05
-6.35548e-05
-6.46603e-05
-6.57562e-05
-6.68398e-05
-6.79096e-05
-6.89663e-05
-7.00103e-05
-7.10404e-05
-7.20561e-05
-7.30595e-05
-7.40524e-05
-7.50347e-05
-7.60067e-05
-7.69717e-05
-7.79334e-05
-7.88919e-05
-7.9845e-05
-8.07935e-05
-8.17395e-05
-8.26841e-05
-8.36272e-05
-8.45696e-05
-8.55145e-05
-8.64651e-05
-8.74202e-05
-8.83773e-05
-8.93366e-05
-9.02993e-05
-9.12652e-05
-9.22338e-05
-9.32056e-05
-9.41838e-05
-9.51713e-05
-9.61679e-05
-9.71724e-05
-9.81863e-05
-9.92117e-05
-0.000100249
-0.000101296
-0.000102353
-0.000103422
-0.000104506
-0.000105606
-0.000106721
-0.00010785
-0.000108995
-0.000110156
-0.000111331
-0.000112516
-0.00011371
-0.000114914
-0.000116128
-0.000117349
-0.000118575
-0.000119808
-0.000121052
-0.000122306
-0.000123566
-0.000124828
-0.000126095
-0.00012737
-0.000128651
-0.000129931
-0.000131209
-0.000132484
-0.000133758
-0.00013503
-0.000136296
-0.000137553
-0.000138801
-0.000140038
-0.000141261
-0.000142463
-0.000143643
-0.000144801
-0.000145934
-0.000147042
-0.000148121
-0.000149167
-0.00015018
-0.000151161
-0.000152109
-0.000153018
-0.000153882
-0.000154699
-0.000155467
-0.000156183
-0.000156845
-0.000157445
-0.000157979
-0.000158449
-0.000158856
-0.000159202
-0.000159484
-0.000159698
-0.000159845
-0.000159925
-0.000159938
-0.000159883
-0.000159757
-0.000159528
-0.000159164
-6.44568e-06
-6.20134e-06
-6.14087e-06
-6.19993e-06
-6.34193e-06
-6.5583e-06
-6.85068e-06
-7.21423e-06
-7.64125e-06
-8.12893e-06
-8.67708e-06
-9.28568e-06
-9.94631e-06
-1.06604e-05
-1.14259e-05
-1.22384e-05
-1.31002e-05
-1.40059e-05
-1.49483e-05
-1.593e-05
-1.69474e-05
-1.79965e-05
-1.90795e-05
-2.01908e-05
-2.13245e-05
-2.2484e-05
-2.36663e-05
-2.48643e-05
-2.60778e-05
-2.7304e-05
-2.85379e-05
-2.97815e-05
-3.10349e-05
-3.22932e-05
-3.35578e-05
-3.48285e-05
-3.61008e-05
-3.73741e-05
-3.86492e-05
-3.99239e-05
-4.11971e-05
-4.24684e-05
-4.37365e-05
-4.50007e-05
-4.62613e-05
-4.75166e-05
-4.87644e-05
-5.00042e-05
-5.12368e-05
-5.24609e-05
-5.36763e-05
-5.48848e-05
-5.60857e-05
-5.72752e-05
-5.84527e-05
-5.962e-05
-6.07775e-05
-6.19237e-05
-6.3058e-05
-6.41825e-05
-6.52961e-05
-6.63965e-05
-6.74856e-05
-6.85642e-05
-6.96304e-05
-7.06826e-05
-7.1722e-05
-7.27506e-05
-7.37688e-05
-7.47764e-05
-7.57752e-05
-7.67676e-05
-7.7756e-05
-7.87406e-05
-7.97205e-05
-8.06965e-05
-8.16696e-05
-8.26401e-05
-8.36095e-05
-8.45802e-05
-8.55541e-05
-8.65318e-05
-8.75123e-05
-8.84952e-05
-8.94821e-05
-9.0473e-05
-9.14655e-05
-9.24594e-05
-9.34576e-05
-9.44632e-05
-9.54771e-05
-9.6498e-05
-9.7526e-05
-9.85641e-05
-9.96132e-05
-0.000100671
-0.000101736
-0.000102811
-0.000103899
-0.000105001
-0.000106115
-0.000107243
-0.000108385
-0.000109544
-0.000110717
-0.000111901
-0.000113095
-0.0001143
-0.000115515
-0.000116736
-0.00011796
-0.000119191
-0.000120429
-0.000121677
-0.00012293
-0.000124187
-0.000125446
-0.00012671
-0.00012798
-0.000129253
-0.000130526
-0.000131795
-0.000133063
-0.000134329
-0.000135591
-0.000136847
-0.000138092
-0.000139328
-0.000140552
-0.00014176
-0.000142946
-0.000144109
-0.000145249
-0.000146365
-0.000147455
-0.000148516
-0.000149545
-0.000150543
-0.000151509
-0.000152442
-0.000153335
-0.000154185
-0.000154988
-0.000155742
-0.000156448
-0.000157099
-0.000157691
-0.000158219
-0.000158683
-0.000159087
-0.000159432
-0.000159713
-0.000159927
-0.000160074
-0.000160153
-0.000160166
-0.00016011
-0.00015998
-0.000159743
-0.00015937
-6.54775e-06
-6.25415e-06
-6.14497e-06
-6.1601e-06
-6.26682e-06
-6.45142e-06
-6.71457e-06
-7.05539e-06
-7.4642e-06
-7.93385e-06
-8.46423e-06
-9.05062e-06
-9.69388e-06
-1.03924e-05
-1.11402e-05
-1.19377e-05
-1.2783e-05
-1.36687e-05
-1.45971e-05
-1.5563e-05
-1.65621e-05
-1.75963e-05
-1.86623e-05
-1.97559e-05
-2.0877e-05
-2.20224e-05
-2.31872e-05
-2.43708e-05
-2.55704e-05
-2.67814e-05
-2.80037e-05
-2.92369e-05
-3.04785e-05
-3.1727e-05
-3.29828e-05
-3.42448e-05
-3.55107e-05
-3.67793e-05
-3.80493e-05
-3.93195e-05
-4.05906e-05
-4.1861e-05
-4.31288e-05
-4.4394e-05
-4.56558e-05
-4.69123e-05
-4.81626e-05
-4.94077e-05
-5.0646e-05
-5.18762e-05
-5.30989e-05
-5.43155e-05
-5.55241e-05
-5.6723e-05
-5.79133e-05
-5.9094e-05
-6.02629e-05
-6.14219e-05
-6.25729e-05
-6.37147e-05
-6.48451e-05
-6.59635e-05
-6.70724e-05
-6.81713e-05
-6.92579e-05
-7.03323e-05
-7.1396e-05
-7.24492e-05
-7.34913e-05
-7.45234e-05
-7.55488e-05
-7.65688e-05
-7.75832e-05
-7.85929e-05
-7.9599e-05
-8.06023e-05
-8.16021e-05
-8.2598e-05
-8.3593e-05
-8.4591e-05
-8.55928e-05
-8.65968e-05
-8.76026e-05
-8.86114e-05
-8.96247e-05
-9.06416e-05
-9.16596e-05
-9.26795e-05
-9.37048e-05
-9.47372e-05
-9.57759e-05
-9.68202e-05
-9.7872e-05
-9.89339e-05
-0.000100005
-0.000101083
-0.000102167
-0.00010326
-0.000104366
-0.000105484
-0.000106613
-0.000107754
-0.000108911
-0.000110083
-0.000111268
-0.000112461
-0.000113665
-0.000114881
-0.000116105
-0.000117332
-0.000118562
-0.000119798
-0.000121043
-0.000122294
-0.000123547
-0.000124802
-0.000126059
-0.000127322
-0.000128589
-0.000129856
-0.00013112
-0.000132384
-0.000133646
-0.000134905
-0.000136158
-0.000137404
-0.000138641
-0.000139867
-0.000141079
-0.000142273
-0.000143445
-0.000144594
-0.00014572
-0.000146822
-0.000147896
-0.000148941
-0.000149956
-0.000150941
-0.000151897
-0.000152817
-0.000153697
-0.000154534
-0.000155325
-0.000156071
-0.000156767
-0.00015741
-0.000157995
-0.000158518
-0.000158981
-0.000159383
-0.000159726
-0.000160007
-0.000160222
-0.000160371
-0.000160454
-0.00016047
-0.000160416
-0.000160287
-0.00016005
-0.000159675
-6.47655e-06
-6.16223e-06
-6.02284e-06
-6.01112e-06
-6.0964e-06
-6.25834e-06
-6.50301e-06
-6.82359e-06
-7.21435e-06
-7.67103e-06
-8.18393e-06
-8.75589e-06
-9.3864e-06
-1.00693e-05
-1.08061e-05
-1.15917e-05
-1.24197e-05
-1.32931e-05
-1.42073e-05
-1.51579e-05
-1.61456e-05
-1.71667e-05
-1.82166e-05
-1.92973e-05
-2.0407e-05
-2.15379e-05
-2.26902e-05
-2.3862e-05
-2.50475e-05
-2.62471e-05
-2.74603e-05
-2.86831e-05
-2.99157e-05
-3.11574e-05
-3.24055e-05
-3.36603e-05
-3.49213e-05
-3.61863e-05
-3.74528e-05
-3.8721e-05
-3.99902e-05
-4.12591e-05
-4.25276e-05
-4.37945e-05
-4.50584e-05
-4.63175e-05
-4.75719e-05
-4.88217e-05
-5.00649e-05
-5.1302e-05
-5.25335e-05
-5.37579e-05
-5.49738e-05
-5.61821e-05
-5.73845e-05
-5.85776e-05
-5.97592e-05
-6.09329e-05
-6.20995e-05
-6.32563e-05
-6.44029e-05
-6.55403e-05
-6.66687e-05
-6.77865e-05
-6.88929e-05
-6.99896e-05
-7.10772e-05
-7.21541e-05
-7.32198e-05
-7.42766e-05
-7.53278e-05
-7.63739e-05
-7.74138e-05
-7.8449e-05
-7.9481e-05
-8.051e-05
-8.15352e-05
-8.2557e-05
-8.35784e-05
-8.46029e-05
-8.56303e-05
-8.66592e-05
-8.76908e-05
-8.87262e-05
-8.97652e-05
-9.08064e-05
-9.18489e-05
-9.28952e-05
-9.39475e-05
-9.50053e-05
-9.60674e-05
-9.71354e-05
-9.82115e-05
-9.92962e-05
-0.000100388
-0.000101485
-0.000102588
-0.000103701
-0.000104825
-0.000105958
-0.000107102
-0.000108258
-0.000109429
-0.000110613
-0.000111808
-0.000113013
-0.000114228
-0.000115454
-0.000116685
-0.000117919
-0.000119156
-0.000120399
-0.00012165
-0.000122904
-0.000124157
-0.000125412
-0.00012667
-0.000127933
-0.000129197
-0.000130459
-0.000131719
-0.000132978
-0.000134235
-0.000135487
-0.000136733
-0.00013797
-0.0001392
-0.000140418
-0.00014162
-0.000142801
-0.000143961
-0.000145099
-0.000146215
-0.000147304
-0.000148366
-0.000149397
-0.000150401
-0.000151377
-0.000152324
-0.000153234
-0.000154103
-0.000154928
-0.000155712
-0.00015645
-0.00015714
-0.000157777
-0.000158355
-0.000158876
-0.000159339
-0.000159742
-0.000160084
-0.000160364
-0.000160582
-0.000160737
-0.000160828
-0.00016085
-0.000160801
-0.000160678
-0.000160446
-0.00016008
-6.24931e-06
-5.93744e-06
-5.78851e-06
-5.76183e-06
-5.82903e-06
-5.98233e-06
-6.21326e-06
-6.51839e-06
-6.89661e-06
-7.33855e-06
-7.84153e-06
-8.40472e-06
-9.02249e-06
-9.69652e-06
-1.0423e-05
-1.11955e-05
-1.20149e-05
-1.28774e-05
-1.37785e-05
-1.47186e-05
-1.5696e-05
-1.67047e-05
-1.77448e-05
-1.88155e-05
-1.9912e-05
-2.10324e-05
-2.21749e-05
-2.33348e-05
-2.45104e-05
-2.57017e-05
-2.6906e-05
-2.81204e-05
-2.93462e-05
-3.05819e-05
-3.18245e-05
-3.30746e-05
-3.43314e-05
-3.5593e-05
-3.6858e-05
-3.81257e-05
-3.93941e-05
-4.06629e-05
-4.19325e-05
-4.32009e-05
-4.44669e-05
-4.57303e-05
-4.69902e-05
-4.82447e-05
-4.94933e-05
-5.0738e-05
-5.19776e-05
-5.32097e-05
-5.44349e-05
-5.56539e-05
-5.68661e-05
-5.807e-05
-5.92658e-05
-6.04551e-05
-6.16361e-05
-6.28072e-05
-6.39704e-05
-6.51263e-05
-6.62728e-05
-6.74091e-05
-6.85362e-05
-6.96549e-05
-7.07646e-05
-7.18639e-05
-7.29538e-05
-7.40357e-05
-7.51116e-05
-7.6182e-05
-7.72471e-05
-7.83083e-05
-7.9366e-05
-8.04192e-05
-8.14687e-05
-8.25166e-05
-8.3565e-05
-8.46152e-05
-8.56668e-05
-8.67199e-05
-8.77772e-05
-8.88389e-05
-8.99026e-05
-9.09675e-05
-9.20351e-05
-9.31078e-05
-9.41857e-05
-9.52672e-05
-9.63523e-05
-9.7444e-05
-9.85442e-05
-9.96506e-05
-0.000100761
-0.000101877
-0.000103002
-0.000104135
-0.000105275
-0.000106424
-0.000107583
-0.000108756
-0.00010994
-0.000111136
-0.000112341
-0.000113558
-0.000114785
-0.00011602
-0.000117258
-0.000118498
-0.000119743
-0.000120994
-0.00012225
-0.000123507
-0.000124763
-0.00012602
-0.00012728
-0.000128543
-0.000129806
-0.000131065
-0.000132322
-0.000133578
-0.000134831
-0.000136078
-0.000137317
-0.000138548
-0.000139771
-0.000140981
-0.000142174
-0.000143346
-0.000144497
-0.000145627
-0.000146734
-0.000147813
-0.000148864
-0.000149887
-0.000150882
-0.000151851
-0.00015279
-0.000153692
-0.000154552
-0.00015537
-0.000156147
-0.00015688
-0.000157566
-0.000158198
-0.000158773
-0.000159293
-0.000159756
-0.00016016
-0.000160503
-0.000160785
-0.000161008
-0.000161172
-0.000161273
-0.000161305
-0.000161265
-0.000161151
-0.000160931
-0.000160581
-5.88761e-06
-5.59031e-06
-5.44595e-06
-5.41451e-06
-5.47663e-06
-5.61971e-06
-5.84405e-06
-6.14256e-06
-6.50859e-06
-6.94232e-06
-7.43983e-06
-7.99438e-06
-8.60747e-06
-9.27455e-06
-9.99021e-06
-1.07555e-05
-1.15667e-05
-1.2419e-05
-1.33128e-05
-1.42452e-05
-1.52114e-05
-1.62124e-05
-1.72463e-05
-1.83069e-05
-1.93941e-05
-2.05063e-05
-2.16384e-05
-2.27895e-05
-2.39587e-05
-2.51428e-05
-2.63403e-05
-2.75494e-05
-2.87695e-05
-2.99998e-05
-3.1239e-05
-3.24861e-05
-3.37398e-05
-3.49991e-05
-3.62634e-05
-3.75308e-05
-3.88001e-05
-4.00708e-05
-4.13422e-05
-4.26125e-05
-4.3882e-05
-4.51502e-05
-4.6415e-05
-4.76752e-05
-4.89314e-05
-5.01833e-05
-5.14295e-05
-5.26699e-05
-5.39061e-05
-5.5136e-05
-5.63575e-05
-5.75728e-05
-5.87829e-05
-5.99863e-05
-6.1181e-05
-6.23675e-05
-6.35478e-05
-6.47205e-05
-6.58839e-05
-6.70392e-05
-6.81873e-05
-6.93275e-05
-7.0458e-05
-7.15793e-05
-7.26931e-05
-7.37998e-05
-7.48993e-05
-7.59931e-05
-7.70829e-05
-7.81696e-05
-7.92522e-05
-8.03293e-05
-8.14031e-05
-8.24768e-05
-8.35515e-05
-8.46265e-05
-8.57022e-05
-8.67803e-05
-8.78628e-05
-8.8949e-05
-9.00365e-05
-9.11256e-05
-9.22189e-05
-9.33173e-05
-9.44192e-05
-9.55233e-05
-9.66315e-05
-9.77468e-05
-9.88693e-05
-9.99962e-05
-0.000101127
-0.000102263
-0.000103407
-0.000104559
-0.000105717
-0.000106882
-0.000108058
-0.000109247
-0.000110445
-0.000111652
-0.000112869
-0.000114098
-0.000115337
-0.000116579
-0.000117824
-0.000119072
-0.000120326
-0.000121585
-0.000122846
-0.000124106
-0.000125366
-0.000126629
-0.000127892
-0.000129156
-0.000130417
-0.000131676
-0.000132933
-0.000134187
-0.000135436
-0.000136677
-0.000137911
-0.000139138
-0.000140355
-0.000141559
-0.000142744
-0.000143909
-0.000145055
-0.000146179
-0.000147279
-0.000148351
-0.000149393
-0.000150409
-0.000151399
-0.000152362
-0.000153294
-0.000154188
-0.000155043
-0.000155857
-0.000156631
-0.000157361
-0.000158042
-0.000158672
-0.000159247
-0.000159767
-0.000160231
-0.000160638
-0.000160985
-0.000161272
-0.000161503
-0.000161677
-0.00016179
-0.000161834
-0.000161805
-0.000161703
-0.000161501
-0.000161172
-5.40588e-06
-5.13004e-06
-4.99909e-06
-4.97571e-06
-5.03594e-06
-5.17649e-06
-5.3993e-06
-5.6928e-06
-6.05615e-06
-6.48641e-06
-6.97762e-06
-7.53019e-06
-8.13988e-06
-8.80031e-06
-9.51132e-06
-1.02714e-05
-1.10742e-05
-1.19215e-05
-1.28102e-05
-1.37344e-05
-1.46948e-05
-1.5691e-05
-1.67176e-05
-1.77717e-05
-1.88528e-05
-1.99572e-05
-2.10817e-05
-2.22271e-05
-2.33908e-05
-2.45691e-05
-2.57623e-05
-2.69682e-05
-2.81841e-05
-2.94107e-05
-3.06478e-05
-3.18931e-05
-3.31456e-05
-3.44046e-05
-3.56685e-05
-3.6936e-05
-3.8207e-05
-3.94801e-05
-4.07538e-05
-4.2028e-05
-4.33025e-05
-4.45756e-05
-4.58454e-05
-4.71128e-05
-4.83773e-05
-4.96363e-05
-5.08897e-05
-5.21394e-05
-5.33857e-05
-5.46255e-05
-5.5858e-05
-5.70864e-05
-5.83097e-05
-5.95255e-05
-6.07343e-05
-6.19371e-05
-6.31335e-05
-6.43219e-05
-6.55024e-05
-6.66769e-05
-6.78454e-05
-6.90059e-05
-7.01573e-05
-7.13007e-05
-7.24376e-05
-7.35675e-05
-7.46902e-05
-7.58077e-05
-7.69219e-05
-7.80324e-05
-7.91385e-05
-8.02398e-05
-8.13386e-05
-8.24378e-05
-8.35372e-05
-8.46362e-05
-8.57366e-05
-8.68405e-05
-8.79477e-05
-8.90569e-05
-9.01676e-05
-9.12817e-05
-9.24008e-05
-9.35235e-05
-9.46479e-05
-9.57746e-05
-9.69063e-05
-9.80442e-05
-9.9187e-05
-0.000100333
-0.000101484
-0.000102642
-0.000103806
-0.000104976
-0.000106151
-0.000107334
-0.000108528
-0.000109731
-0.000110943
-0.000112163
-0.000113393
-0.000114634
-0.000115883
-0.000117133
-0.000118385
-0.000119642
-0.000120906
-0.000122172
-0.000123438
-0.000124703
-0.000125969
-0.000127238
-0.000128506
-0.000129771
-0.000131033
-0.000132293
-0.000133551
-0.000134804
-0.000136049
-0.000137286
-0.000138518
-0.000139741
-0.000140954
-0.000142152
-0.000143331
-0.000144493
-0.000145635
-0.000146756
-0.000147851
-0.000148916
-0.000149953
-0.000150964
-0.000151951
-0.000152909
-0.000153835
-0.000154724
-0.000155576
-0.000156389
-0.000157162
-0.000157889
-0.000158568
-0.000159197
-0.000159774
-0.000160297
-0.000160765
-0.000161176
-0.000161529
-0.000161825
-0.000162066
-0.000162252
-0.000162376
-0.000162432
-0.000162418
-0.000162333
-0.000162152
-0.00016185
-4.81939e-06
-4.56864e-06
-4.45446e-06
-4.44215e-06
-4.51165e-06
-4.65641e-06
-4.87771e-06
-5.17411e-06
-5.54002e-06
-5.96902e-06
-6.46129e-06
-7.0127e-06
-7.61795e-06
-8.2768e-06
-8.98664e-06
-9.74073e-06
-1.05411e-05
-1.13848e-05
-1.22676e-05
-1.31891e-05
-1.41472e-05
-1.51381e-05
-1.61597e-05
-1.72101e-05
-1.82856e-05
-1.93843e-05
-2.05051e-05
-2.16467e-05
-2.28061e-05
-2.39814e-05
-2.5172e-05
-2.63754e-05
-2.75891e-05