/*--------------------------------*- C++ -*----------------------------------*\
  =========                 |
  \\      /  F ield         | OpenFOAM: The Open Source CFD Toolbox
   \\    /   O peration     | Website:  https://openfoam.org
    \\  /    A nd           | Version:  7
     \\/     M anipulation  |
\*---------------------------------------------------------------------------*/
FoamFile
{
    version     2.0;
    format      ascii;
    class       volVectorField;
    location    "0.275";
    object      U;
}
// * * * * * * * * * * * * * * * * * * * * * * * * * * * * * * * * * * * * * //

dimensions      [0 1 -1 0 0 0 0];

internalField   nonuniform List<vector> 
51200
(
(-9.94423e-09 6.45858e-09 0)
(1.65095e-08 -9.65949e-08 0)
(2.13108e-07 -1.66385e-07 0)
(4.39237e-07 -1.32817e-07 0)
(6.32827e-07 -8.54896e-08 0)
(7.709e-07 -5.41537e-08 0)
(8.79454e-07 -3.75515e-08 0)
(9.74707e-07 -2.88827e-08 0)
(1.06428e-06 -2.5489e-08 0)
(1.15007e-06 -2.2838e-08 0)
(1.23203e-06 -2.20526e-08 0)
(1.30935e-06 -1.99207e-08 0)
(1.38089e-06 -1.83636e-08 0)
(1.44387e-06 -1.56051e-08 0)
(1.49846e-06 -1.28269e-08 0)
(1.54244e-06 -1.07323e-08 0)
(1.57586e-06 -7.88014e-09 0)
(1.59745e-06 -4.97978e-09 0)
(1.60625e-06 -1.50448e-09 0)
(1.60271e-06 2.52257e-09 0)
(1.58569e-06 6.25739e-09 0)
(1.55535e-06 9.9474e-09 0)
(1.51175e-06 1.3998e-08 0)
(1.45404e-06 1.76033e-08 0)
(1.38323e-06 2.13435e-08 0)
(1.29951e-06 2.49053e-08 0)
(1.20279e-06 2.80119e-08 0)
(1.09416e-06 3.14369e-08 0)
(9.73535e-07 3.5073e-08 0)
(8.40813e-07 3.83051e-08 0)
(6.97357e-07 4.13689e-08 0)
(5.43619e-07 4.41911e-08 0)
(3.7943e-07 4.63849e-08 0)
(2.06272e-07 4.86298e-08 0)
(2.46305e-08 5.13234e-08 0)
(-1.65847e-07 5.36082e-08 0)
(-3.63484e-07 5.5515e-08 0)
(-5.67528e-07 5.77115e-08 0)
(-7.7822e-07 5.95188e-08 0)
(-9.94217e-07 6.08134e-08 0)
(-1.21435e-06 6.24538e-08 0)
(-1.43872e-06 6.37655e-08 0)
(-1.66668e-06 6.42673e-08 0)
(-1.89683e-06 6.50003e-08 0)
(-2.12904e-06 6.58639e-08 0)
(-2.36311e-06 6.6173e-08 0)
(-2.59775e-06 6.64414e-08 0)
(-2.83234e-06 6.66833e-08 0)
(-3.06678e-06 6.59765e-08 0)
(-3.29991e-06 6.46116e-08 0)
(-3.53081e-06 6.35889e-08 0)
(-3.75951e-06 6.28703e-08 0)
(-3.9856e-06 6.20163e-08 0)
(-4.208e-06 6.13295e-08 0)
(-4.42616e-06 6.07158e-08 0)
(-4.63998e-06 5.95518e-08 0)
(-4.84875e-06 5.8019e-08 0)
(-5.05169e-06 5.66375e-08 0)
(-5.24872e-06 5.52094e-08 0)
(-5.43956e-06 5.31904e-08 0)
(-5.62328e-06 5.05092e-08 0)
(-5.79923e-06 4.76023e-08 0)
(-5.96729e-06 4.49714e-08 0)
(-6.12735e-06 4.28164e-08 0)
(-6.27893e-06 4.09201e-08 0)
(-6.42159e-06 3.892e-08 0)
(-6.5552e-06 3.65442e-08 0)
(-6.67948e-06 3.36635e-08 0)
(-6.79397e-06 3.05339e-08 0)
(-6.89849e-06 2.7607e-08 0)
(-6.99292e-06 2.48536e-08 0)
(-7.07699e-06 2.19083e-08 0)
(-7.15048e-06 1.87728e-08 0)
(-7.2133e-06 1.57164e-08 0)
(-7.26539e-06 1.27826e-08 0)
(-7.30675e-06 9.85039e-09 0)
(-7.33733e-06 6.88329e-09 0)
(-7.35689e-06 3.93674e-09 0)
(-7.36537e-06 9.83161e-10 0)
(-7.36299e-06 -2.09621e-09 0)
(-7.34981e-06 -5.28899e-09 0)
(-7.32569e-06 -8.42548e-09 0)
(-7.29059e-06 -1.1431e-08 0)
(-7.24466e-06 -1.4395e-08 0)
(-7.1881e-06 -1.73009e-08 0)
(-7.12113e-06 -2.00186e-08 0)
(-7.0438e-06 -2.26478e-08 0)
(-6.95624e-06 -2.54588e-08 0)
(-6.85868e-06 -2.84746e-08 0)
(-6.75124e-06 -3.13924e-08 0)
(-6.63406e-06 -3.39433e-08 0)
(-6.50749e-06 -3.62536e-08 0)
(-6.37195e-06 -3.86551e-08 0)
(-6.22765e-06 -4.11687e-08 0)
(-6.07482e-06 -4.35251e-08 0)
(-5.91379e-06 -4.56214e-08 0)
(-5.74502e-06 -4.76363e-08 0)
(-5.56893e-06 -4.96879e-08 0)
(-5.38586e-06 -5.16004e-08 0)
(-5.19619e-06 -5.31858e-08 0)
(-5.0004e-06 -5.46193e-08 0)
(-4.79892e-06 -5.62233e-08 0)
(-4.59209e-06 -5.7935e-08 0)
(-4.38039e-06 -5.93477e-08 0)
(-4.16447e-06 -6.02601e-08 0)
(-3.94499e-06 -6.08896e-08 0)
(-3.72238e-06 -6.15157e-08 0)
(-3.49705e-06 -6.21435e-08 0)
(-3.26956e-06 -6.26477e-08 0)
(-3.04058e-06 -6.30627e-08 0)
(-2.81069e-06 -6.34384e-08 0)
(-2.58045e-06 -6.3548e-08 0)
(-2.3505e-06 -6.31431e-08 0)
(-2.12142e-06 -6.23673e-08 0)
(-1.89386e-06 -6.16089e-08 0)
(-1.6684e-06 -6.10731e-08 0)
(-1.44556e-06 -6.05737e-08 0)
(-1.22608e-06 -5.97311e-08 0)
(-1.01067e-06 -5.84125e-08 0)
(-7.99909e-07 -5.67972e-08 0)
(-5.9444e-07 -5.50089e-08 0)
(-3.94959e-07 -5.30403e-08 0)
(-2.02088e-07 -5.09571e-08 0)
(-1.6456e-08 -4.88358e-08 0)
(1.61333e-07 -4.66328e-08 0)
(3.30685e-07 -4.42564e-08 0)
(4.90974e-07 -4.16438e-08 0)
(6.4164e-07 -3.87673e-08 0)
(7.82148e-07 -3.56343e-08 0)
(9.11902e-07 -3.22915e-08 0)
(1.03034e-06 -2.88455e-08 0)
(1.13701e-06 -2.54168e-08 0)
(1.23156e-06 -2.2e-08 0)
(1.31368e-06 -1.84452e-08 0)
(1.38295e-06 -1.46434e-08 0)
(1.43887e-06 -1.0647e-08 0)
(1.48118e-06 -6.58692e-09 0)
(1.50978e-06 -2.5422e-09 0)
(1.52462e-06 1.49454e-09 0)
(1.52567e-06 5.52209e-09 0)
(1.51295e-06 9.5013e-09 0)
(1.48649e-06 1.34735e-08 0)
(1.44644e-06 1.75012e-08 0)
(1.39329e-06 2.14756e-08 0)
(1.32766e-06 2.51968e-08 0)
(1.25016e-06 2.86061e-08 0)
(1.16162e-06 3.17512e-08 0)
(1.06315e-06 3.4587e-08 0)
(9.56117e-07 3.69884e-08 0)
(8.42175e-07 3.88398e-08 0)
(7.23244e-07 4.00482e-08 0)
(6.01555e-07 4.05055e-08 0)
(4.79968e-07 3.99811e-08 0)
(3.62037e-07 3.81366e-08 0)
(2.51818e-07 3.46312e-08 0)
(1.54014e-07 2.91518e-08 0)
(7.40829e-08 2.13254e-08 0)
(1.79411e-08 1.08987e-08 0)
(-9.26089e-09 -9.38611e-10 0)
(-7.44888e-09 -8.0632e-09 0)
(-9.65185e-08 3.56012e-08 0)
(-8.57231e-08 -1.55084e-07 0)
(9.45596e-08 -3.75408e-07 0)
(4.04472e-07 -3.64597e-07 0)
(7.51783e-07 -2.95491e-07 0)
(1.07679e-06 -2.40788e-07 0)
(1.38738e-06 -2.10154e-07 0)
(1.68573e-06 -1.93601e-07 0)
(1.97369e-06 -1.83432e-07 0)
(2.24918e-06 -1.75074e-07 0)
(2.5098e-06 -1.65136e-07 0)
(2.75185e-06 -1.52931e-07 0)
(2.96952e-06 -1.38419e-07 0)
(3.16197e-06 -1.20076e-07 0)
(3.32368e-06 -1.006e-07 0)
(3.45441e-06 -7.84475e-08 0)
(3.55057e-06 -5.58663e-08 0)
(3.60968e-06 -3.18712e-08 0)
(3.63218e-06 -6.1806e-09 0)
(3.61531e-06 1.98751e-08 0)
(3.55961e-06 4.67346e-08 0)
(3.46516e-06 7.39552e-08 0)
(3.33043e-06 1.00602e-07 0)
(3.15711e-06 1.27482e-07 0)
(2.94523e-06 1.53923e-07 0)
(2.69478e-06 1.79292e-07 0)
(2.4082e-06 2.04291e-07 0)
(2.08565e-06 2.28516e-07 0)
(1.72805e-06 2.51713e-07 0)
(1.33779e-06 2.7439e-07 0)
(9.15467e-07 2.9621e-07 0)
(4.62465e-07 3.16434e-07 0)
(-1.86421e-08 3.35468e-07 0)
(-5.26741e-07 3.53497e-07 0)
(-1.06044e-06 3.70127e-07 0)
(-1.61722e-06 3.85486e-07 0)
(-2.19522e-06 3.99886e-07 0)
(-2.79295e-06 4.12553e-07 0)
(-3.40834e-06 4.23813e-07 0)
(-4.0391e-06 4.33977e-07 0)
(-4.68363e-06 4.42811e-07 0)
(-5.34002e-06 4.50034e-07 0)
(-6.00562e-06 4.55941e-07 0)
(-6.67902e-06 4.6072e-07 0)
(-7.35866e-06 4.64051e-07 0)
(-8.04197e-06 4.66095e-07 0)
(-8.72724e-06 4.67273e-07 0)
(-9.41298e-06 4.67162e-07 0)
(-1.00969e-05 4.65292e-07 0)
(-1.07771e-05 4.62138e-07 0)
(-1.14521e-05 4.57829e-07 0)
(-1.21203e-05 4.52206e-07 0)
(-1.27799e-05 4.45569e-07 0)
(-1.34291e-05 4.38321e-07 0)
(-1.40665e-05 4.30027e-07 0)
(-1.46905e-05 4.20365e-07 0)
(-1.52994e-05 4.09742e-07 0)
(-1.58921e-05 3.98369e-07 0)
(-1.64671e-05 3.86014e-07 0)
(-1.70231e-05 3.72607e-07 0)
(-1.75585e-05 3.58176e-07 0)
(-1.80723e-05 3.4268e-07 0)
(-1.85634e-05 3.26287e-07 0)
(-1.90307e-05 3.09481e-07 0)
(-1.94734e-05 2.92484e-07 0)
(-1.98903e-05 2.75008e-07 0)
(-2.02804e-05 2.56776e-07 0)
(-2.0643e-05 2.37717e-07 0)
(-2.09774e-05 2.17993e-07 0)
(-2.12831e-05 1.97951e-07 0)
(-2.15592e-05 1.77662e-07 0)
(-2.18053e-05 1.56929e-07 0)
(-2.20208e-05 1.35812e-07 0)
(-2.22051e-05 1.14528e-07 0)
(-2.23578e-05 9.30398e-08 0)
(-2.2479e-05 7.13196e-08 0)
(-2.25685e-05 4.96197e-08 0)
(-2.26258e-05 2.80695e-08 0)
(-2.26509e-05 6.42625e-09 0)
(-2.26438e-05 -1.54985e-08 0)
(-2.26048e-05 -3.74867e-08 0)
(-2.25337e-05 -5.92477e-08 0)
(-2.24305e-05 -8.07774e-08 0)
(-2.22956e-05 -1.02224e-07 0)
(-2.21296e-05 -1.23487e-07 0)
(-2.19326e-05 -1.44219e-07 0)
(-2.17048e-05 -1.64434e-07 0)
(-2.1447e-05 -1.84551e-07 0)
(-2.11597e-05 -2.04607e-07 0)
(-2.08435e-05 -2.24201e-07 0)
(-2.0499e-05 -2.43083e-07 0)
(-2.01269e-05 -2.61354e-07 0)
(-1.97281e-05 -2.79196e-07 0)
(-1.93036e-05 -2.96525e-07 0)
(-1.88541e-05 -3.13047e-07 0)
(-1.83806e-05 -3.28729e-07 0)
(-1.78842e-05 -3.43807e-07 0)
(-1.73661e-05 -3.58302e-07 0)
(-1.68271e-05 -3.7194e-07 0)
(-1.62687e-05 -3.84537e-07 0)
(-1.56921e-05 -3.96187e-07 0)
(-1.50988e-05 -4.07106e-07 0)
(-1.44898e-05 -4.17301e-07 0)
(-1.38665e-05 -4.26489e-07 0)
(-1.32304e-05 -4.34475e-07 0)
(-1.25832e-05 -4.41337e-07 0)
(-1.19266e-05 -4.47141e-07 0)
(-1.12619e-05 -4.51813e-07 0)
(-1.05907e-05 -4.55326e-07 0)
(-9.91462e-06 -4.5776e-07 0)
(-9.23553e-06 -4.59221e-07 0)
(-8.55523e-06 -4.59585e-07 0)
(-7.87552e-06 -4.58513e-07 0)
(-7.19808e-06 -4.55935e-07 0)
(-6.52458e-06 -4.52157e-07 0)
(-5.8568e-06 -4.47416e-07 0)
(-5.19667e-06 -4.41614e-07 0)
(-4.54609e-06 -4.34477e-07 0)
(-3.90686e-06 -4.25868e-07 0)
(-3.28087e-06 -4.15902e-07 0)
(-2.67008e-06 -4.04684e-07 0)
(-2.07629e-06 -3.92151e-07 0)
(-1.50122e-06 -3.78279e-07 0)
(-9.46661e-07 -3.63185e-07 0)
(-4.14435e-07 -3.47023e-07 0)
(9.36646e-08 -3.29841e-07 0)
(5.75818e-07 -3.11505e-07 0)
(1.03048e-06 -2.91887e-07 0)
(1.45628e-06 -2.71054e-07 0)
(1.85158e-06 -2.49156e-07 0)
(2.21471e-06 -2.26301e-07 0)
(2.54444e-06 -2.02599e-07 0)
(2.83968e-06 -1.78144e-07 0)
(3.09932e-06 -1.52947e-07 0)
(3.32236e-06 -1.27064e-07 0)
(3.50791e-06 -1.00662e-07 0)
(3.65513e-06 -7.38378e-08 0)
(3.76351e-06 -4.66209e-08 0)
(3.83299e-06 -1.91591e-08 0)
(3.86364e-06 8.26052e-09 0)
(3.85555e-06 3.53619e-08 0)
(3.80902e-06 6.20235e-08 0)
(3.72491e-06 8.81972e-08 0)
(3.6046e-06 1.13634e-07 0)
(3.44964e-06 1.37821e-07 0)
(3.26192e-06 1.60268e-07 0)
(3.04389e-06 1.80688e-07 0)
(2.7987e-06 1.98778e-07 0)
(2.53023e-06 2.14032e-07 0)
(2.24306e-06 2.2577e-07 0)
(1.94254e-06 2.33192e-07 0)
(1.63481e-06 2.35496e-07 0)
(1.32715e-06 2.31845e-07 0)
(1.02834e-06 2.21136e-07 0)
(7.48287e-07 2.02054e-07 0)
(4.97601e-07 1.73372e-07 0)
(2.87446e-07 1.34373e-07 0)
(1.29137e-07 8.55289e-08 0)
(3.23142e-08 3.13379e-08 0)
(2.35505e-10 -9.98451e-09 0)
(-1.4168e-07 1.74295e-07 0)
(-1.95249e-07 -1.77326e-07 0)
(-8.00904e-08 -6.10093e-07 0)
(2.16569e-07 -7.063e-07 0)
(6.15706e-07 -6.76211e-07 0)
(1.0517e-06 -6.34337e-07 0)
(1.50375e-06 -6.02042e-07 0)
(1.95989e-06 -5.78526e-07 0)
(2.40719e-06 -5.55963e-07 0)
(2.83773e-06 -5.29522e-07 0)
(3.24415e-06 -4.95668e-07 0)
(3.61796e-06 -4.56014e-07 0)
(3.95442e-06 -4.06694e-07 0)
(4.24505e-06 -3.52218e-07 0)
(4.48756e-06 -2.90297e-07 0)
(4.67671e-06 -2.23823e-07 0)
(4.80897e-06 -1.542e-07 0)
(4.88359e-06 -8.06053e-08 0)
(4.89593e-06 -5.4588e-09 0)
(4.84606e-06 7.16011e-08 0)
(4.73373e-06 1.50353e-07 0)
(4.55714e-06 2.28529e-07 0)
(4.31791e-06 3.07164e-07 0)
(4.01608e-06 3.8511e-07 0)
(3.65147e-06 4.60943e-07 0)
(3.22691e-06 5.35834e-07 0)
(2.74301e-06 6.08501e-07 0)
(2.20109e-06 6.78413e-07 0)
(1.60434e-06 7.46442e-07 0)
(9.5394e-07 8.11597e-07 0)
(2.5215e-07 8.73489e-07 0)
(-4.97621e-07 9.3261e-07 0)
(-1.2935e-06 9.88364e-07 0)
(-2.13264e-06 1.0402e-06 0)
(-3.01185e-06 1.08867e-06 0)
(-3.92858e-06 1.13371e-06 0)
(-4.8797e-06 1.17444e-06 0)
(-5.8619e-06 1.21136e-06 0)
(-6.87208e-06 1.24444e-06 0)
(-7.90752e-06 1.27334e-06 0)
(-8.96487e-06 1.29839e-06 0)
(-1.00408e-05 1.31976e-06 0)
(-1.11325e-05 1.33719e-06 0)
(-1.22364e-05 1.35055e-06 0)
(-1.33495e-05 1.36026e-06 0)
(-1.44687e-05 1.36625e-06 0)
(-1.5591e-05 1.36845e-06 0)
(-1.67134e-05 1.36711e-06 0)
(-1.78329e-05 1.36226e-06 0)
(-1.89464e-05 1.35375e-06 0)
(-2.00511e-05 1.34158e-06 0)
(-2.11443e-05 1.32593e-06 0)
(-2.22232e-05 1.3069e-06 0)
(-2.32852e-05 1.2847e-06 0)
(-2.43278e-05 1.25941e-06 0)
(-2.53482e-05 1.23107e-06 0)
(-2.63441e-05 1.19977e-06 0)
(-2.73133e-05 1.16568e-06 0)
(-2.82534e-05 1.12903e-06 0)
(-2.91626e-05 1.08987e-06 0)
(-3.00386e-05 1.04814e-06 0)
(-3.08793e-05 1.00392e-06 0)
(-3.16827e-05 9.57351e-07 0)
(-3.24473e-05 9.08574e-07 0)
(-3.31716e-05 8.57943e-07 0)
(-3.38538e-05 8.05732e-07 0)
(-3.44924e-05 7.51895e-07 0)
(-3.50863e-05 6.96304e-07 0)
(-3.5634e-05 6.39129e-07 0)
(-3.61343e-05 5.8074e-07 0)
(-3.65865e-05 5.21209e-07 0)
(-3.69898e-05 4.60503e-07 0)
(-3.73429e-05 3.98938e-07 0)
(-3.76452e-05 3.36749e-07 0)
(-3.78961e-05 2.73807e-07 0)
(-3.80952e-05 2.10148e-07 0)
(-3.82421e-05 1.46201e-07 0)
(-3.83364e-05 8.22712e-08 0)
(-3.8378e-05 1.82615e-08 0)
(-3.83672e-05 -4.59452e-08 0)
(-3.83037e-05 -1.10097e-07 0)
(-3.81874e-05 -1.73873e-07 0)
(-3.80189e-05 -2.37275e-07 0)
(-3.77986e-05 -3.00327e-07 0)
(-3.75269e-05 -3.62735e-07 0)
(-3.72042e-05 -4.24123e-07 0)
(-3.68313e-05 -4.84424e-07 0)
(-3.64091e-05 -5.43844e-07 0)
(-3.59386e-05 -6.02332e-07 0)
(-3.54204e-05 -6.59482e-07 0)
(-3.48558e-05 -7.15062e-07 0)
(-3.42462e-05 -7.69128e-07 0)
(-3.35929e-05 -8.21647e-07 0)
(-3.2897e-05 -8.72425e-07 0)
(-3.21599e-05 -9.21232e-07 0)
(-3.13835e-05 -9.67926e-07 0)
(-3.05697e-05 -1.01251e-06 0)
(-2.97199e-05 -1.05495e-06 0)
(-2.88359e-05 -1.09503e-06 0)
(-2.79197e-05 -1.13259e-06 0)
(-2.69736e-05 -1.16761e-06 0)
(-2.59998e-05 -1.19998e-06 0)
(-2.50003e-05 -1.22959e-06 0)
(-2.39772e-05 -1.25635e-06 0)
(-2.29329e-05 -1.28015e-06 0)
(-2.18702e-05 -1.30095e-06 0)
(-2.07915e-05 -1.3187e-06 0)
(-1.96992e-05 -1.33312e-06 0)
(-1.85961e-05 -1.34405e-06 0)
(-1.74849e-05 -1.3516e-06 0)
(-1.63683e-05 -1.35589e-06 0)
(-1.52491e-05 -1.35685e-06 0)
(-1.41302e-05 -1.35429e-06 0)
(-1.30145e-05 -1.34797e-06 0)
(-1.19052e-05 -1.33793e-06 0)
(-1.08049e-05 -1.32433e-06 0)
(-9.71656e-06 -1.30716e-06 0)
(-8.64323e-06 -1.28627e-06 0)
(-7.58788e-06 -1.26163e-06 0)
(-6.55352e-06 -1.23332e-06 0)
(-5.54332e-06 -1.20137e-06 0)
(-4.56026e-06 -1.16567e-06 0)
(-3.60705e-06 -1.12619e-06 0)
(-2.68655e-06 -1.08306e-06 0)
(-1.80178e-06 -1.03648e-06 0)
(-9.5563e-07 -9.866e-07 0)
(-1.50785e-07 -9.33487e-07 0)
(6.10232e-07 -8.77077e-07 0)
(1.32502e-06 -8.17428e-07 0)
(1.99109e-06 -7.54834e-07 0)
(2.60595e-06 -6.89548e-07 0)
(3.16747e-06 -6.21698e-07 0)
(3.67398e-06 -5.51477e-07 0)
(4.12379e-06 -4.79116e-07 0)
(4.51512e-06 -4.04871e-07 0)
(4.84658e-06 -3.29179e-07 0)
(5.11734e-06 -2.52471e-07 0)
(5.32679e-06 -1.74965e-07 0)
(5.47446e-06 -9.69397e-08 0)
(5.56029e-06 -1.89715e-08 0)
(5.58469e-06 5.8221e-08 0)
(5.54852e-06 1.34041e-07 0)
(5.45321e-06 2.07978e-07 0)
(5.30079e-06 2.79355e-07 0)
(5.0938e-06 3.47175e-07 0)
(4.83541e-06 4.10252e-07 0)
(4.52963e-06 4.67551e-07 0)
(4.18137e-06 5.18095e-07 0)
(3.79664e-06 5.60533e-07 0)
(3.38248e-06 5.93115e-07 0)
(2.94699e-06 6.13893e-07 0)
(2.49949e-06 6.20838e-07 0)
(2.05084e-06 6.11809e-07 0)
(1.61341e-06 5.84468e-07 0)
(1.20079e-06 5.36355e-07 0)
(8.27367e-07 4.65464e-07 0)
(5.0764e-07 3.71348e-07 0)
(2.55489e-07 2.56448e-07 0)
(8.56207e-08 1.29676e-07 0)
(1.16663e-08 1.77959e-08 0)
(-8.72863e-08 2.83408e-07 0)
(-8.82677e-08 -1.91616e-07 0)
(4.81328e-08 -8.22166e-07 0)
(3.53458e-07 -1.06572e-06 0)
(7.82527e-07 -1.1246e-06 0)
(1.27696e-06 -1.12888e-06 0)
(1.81077e-06 -1.11641e-06 0)
(2.35705e-06 -1.09424e-06 0)
(2.89962e-06 -1.05972e-06 0)
(3.42337e-06 -1.00944e-06 0)
(3.91467e-06 -9.43664e-07 0)
(4.36622e-06 -8.60041e-07 0)
(4.76547e-06 -7.63657e-07 0)
(5.10673e-06 -6.53018e-07 0)
(5.38291e-06 -5.30793e-07 0)
(5.58727e-06 -4.00374e-07 0)
(5.71735e-06 -2.60883e-07 0)
(5.76775e-06 -1.16896e-07 0)
(5.73703e-06 3.13052e-08 0)
(5.62353e-06 1.83223e-07 0)
(5.42482e-06 3.359e-07 0)
(5.14195e-06 4.89493e-07 0)
(4.77466e-06 6.42904e-07 0)
(4.32261e-06 7.93719e-07 0)
(3.78836e-06 9.42759e-07 0)
(3.17271e-06 1.08855e-06 0)
(2.47713e-06 1.22989e-06 0)
(1.70497e-06 1.36734e-06 0)
(8.58309e-07 1.49966e-06 0)
(-6.0199e-08 1.62616e-06 0)
(-1.04687e-06 1.74717e-06 0)
(-2.09868e-06 1.8621e-06 0)
(-3.21237e-06 1.97018e-06 0)
(-4.38388e-06 2.07168e-06 0)
(-5.60911e-06 2.16611e-06 0)
(-6.88479e-06 2.2532e-06 0)
(-8.20656e-06 2.33299e-06 0)
(-9.56989e-06 2.40538e-06 0)
(-1.09712e-05 2.46989e-06 0)
(-1.2406e-05 2.52664e-06 0)
(-1.38697e-05 2.57577e-06 0)
(-1.53587e-05 2.61724e-06 0)
(-1.68684e-05 2.65106e-06 0)
(-1.83944e-05 2.67736e-06 0)
(-1.99326e-05 2.69617e-06 0)
(-2.14785e-05 2.7074e-06 0)
(-2.30279e-05 2.71113e-06 0)
(-2.45769e-05 2.70758e-06 0)
(-2.61215e-05 2.69709e-06 0)
(-2.76578e-05 2.67968e-06 0)
(-2.91819e-05 2.65543e-06 0)
(-3.06898e-05 2.62445e-06 0)
(-3.21776e-05 2.58685e-06 0)
(-3.36418e-05 2.54285e-06 0)
(-3.5079e-05 2.49277e-06 0)
(-3.64858e-05 2.43675e-06 0)
(-3.78587e-05 2.37491e-06 0)
(-3.91944e-05 2.30746e-06 0)
(-4.04901e-05 2.23454e-06 0)
(-4.17427e-05 2.15645e-06 0)
(-4.29498e-05 2.07369e-06 0)
(-4.41085e-05 1.98654e-06 0)
(-4.52162e-05 1.89489e-06 0)
(-4.62703e-05 1.79885e-06 0)
(-4.72685e-05 1.69894e-06 0)
(-4.82087e-05 1.5955e-06 0)
(-4.90892e-05 1.48865e-06 0)
(-4.9908e-05 1.3787e-06 0)
(-5.06633e-05 1.26595e-06 0)
(-5.13534e-05 1.15054e-06 0)
(-5.19772e-05 1.03261e-06 0)
(-5.25334e-05 9.12545e-07 0)
(-5.30206e-05 7.90833e-07 0)
(-5.3438e-05 6.67673e-07 0)
(-5.37848e-05 5.43076e-07 0)
(-5.40603e-05 4.17335e-07 0)
(-5.42636e-05 2.90933e-07 0)
(-5.43946e-05 1.64091e-07 0)
(-5.44532e-05 3.68578e-08 0)
(-5.44393e-05 -9.04711e-08 0)
(-5.43527e-05 -2.1743e-07 0)
(-5.41937e-05 -3.43773e-07 0)
(-5.39628e-05 -4.69464e-07 0)
(-5.36606e-05 -5.94261e-07 0)
(-5.32874e-05 -7.17704e-07 0)
(-5.28438e-05 -8.39502e-07 0)
(-5.23312e-05 -9.59531e-07 0)
(-5.17508e-05 -1.07759e-06 0)
(-5.11035e-05 -1.19334e-06 0)
(-5.03905e-05 -1.30647e-06 0)
(-4.96137e-05 -1.41686e-06 0)
(-4.87747e-05 -1.52433e-06 0)
(-4.78753e-05 -1.62848e-06 0)
(-4.69171e-05 -1.729e-06 0)
(-4.59023e-05 -1.82579e-06 0)
(-4.48331e-05 -1.91875e-06 0)
(-4.37121e-05 -2.00752e-06 0)
(-4.25414e-05 -2.09173e-06 0)
(-4.13234e-05 -2.17125e-06 0)
(-4.0061e-05 -2.24605e-06 0)
(-3.8757e-05 -2.31597e-06 0)
(-3.74146e-05 -2.3806e-06 0)
(-3.60364e-05 -2.4396e-06 0)
(-3.46257e-05 -2.4929e-06 0)
(-3.31856e-05 -2.54049e-06 0)
(-3.17198e-05 -2.58212e-06 0)
(-3.02314e-05 -2.61761e-06 0)
(-2.87238e-05 -2.64677e-06 0)
(-2.72009e-05 -2.66936e-06 0)
(-2.56665e-05 -2.68522e-06 0)
(-2.41244e-05 -2.69432e-06 0)
(-2.25782e-05 -2.69661e-06 0)
(-2.10316e-05 -2.69204e-06 0)
(-1.94887e-05 -2.68054e-06 0)
(-1.79537e-05 -2.6619e-06 0)
(-1.64306e-05 -2.63601e-06 0)
(-1.49234e-05 -2.60283e-06 0)
(-1.3436e-05 -2.56233e-06 0)
(-1.19727e-05 -2.51453e-06 0)
(-1.05374e-05 -2.45951e-06 0)
(-9.13427e-06 -2.39737e-06 0)
(-7.76721e-06 -2.32808e-06 0)
(-6.44015e-06 -2.25153e-06 0)
(-5.15713e-06 -2.16789e-06 0)
(-3.92209e-06 -2.0775e-06 0)
(-2.73882e-06 -1.9805e-06 0)
(-1.61095e-06 -1.87696e-06 0)
(-5.41859e-07 -1.76705e-06 0)
(4.65096e-07 -1.65109e-06 0)
(1.40649e-06 -1.52946e-06 0)
(2.27923e-06 -1.40258e-06 0)
(3.08066e-06 -1.27077e-06 0)
(3.80824e-06 -1.13433e-06 0)
(4.45961e-06 -9.93825e-07 0)
(5.03264e-06 -8.49901e-07 0)
(5.5256e-06 -7.03141e-07 0)
(5.93731e-06 -5.5422e-07 0)
(6.26706e-06 -4.03903e-07 0)
(6.51433e-06 -2.52997e-07 0)
(6.67893e-06 -1.02448e-07 0)
(6.76142e-06 4.66206e-08 0)
(6.76321e-06 1.93018e-07 0)
(6.68644e-06 3.35503e-07 0)
(6.53373e-06 4.72662e-07 0)
(6.30823e-06 6.02813e-07 0)
(6.01426e-06 7.23993e-07 0)
(5.65748e-06 8.34107e-07 0)
(5.24441e-06 9.3104e-07 0)
(4.78248e-06 1.01238e-06 0)
(4.28058e-06 1.07516e-06 0)
(3.74922e-06 1.11602e-06 0)
(3.20023e-06 1.13144e-06 0)
(2.64693e-06 1.11781e-06 0)
(2.10421e-06 1.07135e-06 0)
(1.58834e-06 9.88377e-07 0)
(1.11641e-06 8.66126e-07 0)
(7.05336e-07 7.04465e-07 0)
(3.71211e-07 5.07784e-07 0)
(1.34352e-07 2.88252e-07 0)
(2.17592e-08 7.43502e-08 0)
(-2.57133e-08 3.13686e-07 0)
(5.41359e-08 -2.67491e-07 0)
(2.54802e-07 -1.05881e-06 0)
(5.94307e-07 -1.44412e-06 0)
(1.05456e-06 -1.60347e-06 0)
(1.59057e-06 -1.66798e-06 0)
(2.1702e-06 -1.68629e-06 0)
(2.7685e-06 -1.67167e-06 0)
(3.3626e-06 -1.62488e-06 0)
(3.9336e-06 -1.54926e-06 0)
(4.46889e-06 -1.44204e-06 0)
(4.95182e-06 -1.30868e-06 0)
(5.37352e-06 -1.15035e-06 0)
(5.72466e-06 -9.7009e-07 0)
(5.99494e-06 -7.73388e-07 0)
(6.17986e-06 -5.60041e-07 0)
(6.2722e-06 -3.35865e-07 0)
(6.26797e-06 -1.02229e-07 0)
(6.16494e-06 1.38774e-07 0)
(5.95925e-06 3.83573e-07 0)
(5.65045e-06 6.31215e-07 0)
(5.23815e-06 8.79997e-07 0)
(4.72121e-06 1.12695e-06 0)
(4.1016e-06 1.3718e-06 0)
(3.38031e-06 1.61285e-06 0)
(2.55854e-06 1.8481e-06 0)
(1.63958e-06 2.07755e-06 0)
(6.25611e-07 2.30006e-06 0)
(-4.80318e-07 2.51402e-06 0)
(-1.67417e-06 2.71939e-06 0)
(-2.95217e-06 2.91544e-06 0)
(-4.31051e-06 3.10092e-06 0)
(-5.74485e-06 3.27614e-06 0)
(-7.25032e-06 3.44047e-06 0)
(-8.82246e-06 3.59314e-06 0)
(-1.04563e-05 3.734e-06 0)
(-1.21466e-05 3.86318e-06 0)
(-1.38886e-05 3.97996e-06 0)
(-1.5677e-05 4.08438e-06 0)
(-1.75064e-05 4.17655e-06 0)
(-1.93716e-05 4.25593e-06 0)
(-2.12672e-05 4.32285e-06 0)
(-2.3188e-05 4.37727e-06 0)
(-2.51286e-05 4.41934e-06 0)
(-2.70837e-05 4.44925e-06 0)
(-2.90481e-05 4.46699e-06 0)
(-3.10163e-05 4.47252e-06 0)
(-3.29832e-05 4.46608e-06 0)
(-3.49437e-05 4.44787e-06 0)
(-3.68932e-05 4.41815e-06 0)
(-3.88265e-05 4.3773e-06 0)
(-4.07391e-05 4.32564e-06 0)
(-4.2626e-05 4.26332e-06 0)
(-4.44827e-05 4.19049e-06 0)
(-4.63048e-05 4.10759e-06 0)
(-4.80881e-05 4.015e-06 0)
(-4.98284e-05 3.91308e-06 0)
(-5.15217e-05 3.80209e-06 0)
(-5.3164e-05 3.68214e-06 0)
(-5.47517e-05 3.55359e-06 0)
(-5.62811e-05 3.41703e-06 0)
(-5.77491e-05 3.27299e-06 0)
(-5.91528e-05 3.12185e-06 0)
(-6.04886e-05 2.96401e-06 0)
(-6.17537e-05 2.79986e-06 0)
(-6.29455e-05 2.62959e-06 0)
(-6.40614e-05 2.45358e-06 0)
(-6.50991e-05 2.27255e-06 0)
(-6.60564e-05 2.08693e-06 0)
(-6.69315e-05 1.89687e-06 0)
(-6.77226e-05 1.70281e-06 0)
(-6.84278e-05 1.50535e-06 0)
(-6.90458e-05 1.30492e-06 0)
(-6.95755e-05 1.10181e-06 0)
(-7.00159e-05 8.96514e-07 0)
(-7.03659e-05 6.89635e-07 0)
(-7.06247e-05 4.81546e-07 0)
(-7.07921e-05 2.72457e-07 0)
(-7.08679e-05 6.27731e-08 0)
(-7.08517e-05 -1.46881e-07 0)
(-7.07434e-05 -3.5603e-07 0)
(-7.05437e-05 -5.64439e-07 0)
(-7.02529e-05 -7.71735e-07 0)
(-6.98717e-05 -9.77265e-07 0)
(-6.94006e-05 -1.1805e-06 0)
(-6.88407e-05 -1.38127e-06 0)
(-6.81934e-05 -1.57931e-06 0)
(-6.74599e-05 -1.77402e-06 0)
(-6.66418e-05 -1.9648e-06 0)
(-6.57406e-05 -2.15134e-06 0)
(-6.47585e-05 -2.33345e-06 0)
(-6.36976e-05 -2.51073e-06 0)
(-6.25599e-05 -2.68255e-06 0)
(-6.13478e-05 -2.84843e-06 0)
(-6.00639e-05 -3.00823e-06 0)
(-5.87112e-05 -3.16171e-06 0)
(-5.72923e-05 -3.30834e-06 0)
(-5.58103e-05 -3.4475e-06 0)
(-5.42686e-05 -3.57896e-06 0)
(-5.26704e-05 -3.70263e-06 0)
(-5.10194e-05 -3.81818e-06 0)
(-4.9319e-05 -3.92513e-06 0)
(-4.7573e-05 -4.02305e-06 0)
(-4.57857e-05 -4.11165e-06 0)
(-4.39609e-05 -4.19075e-06 0)
(-4.2103e-05 -4.26002e-06 0)
(-4.02162e-05 -4.31907e-06 0)
(-3.83046e-05 -4.36776e-06 0)
(-3.6373e-05 -4.406e-06 0)
(-3.44261e-05 -4.43346e-06 0)
(-3.24688e-05 -4.44975e-06 0)
(-3.05057e-05 -4.45464e-06 0)
(-2.85416e-05 -4.44811e-06 0)
(-2.65814e-05 -4.4302e-06 0)
(-2.46302e-05 -4.40081e-06 0)
(-2.26931e-05 -4.3597e-06 0)
(-2.0775e-05 -4.30669e-06 0)
(-1.88811e-05 -4.24174e-06 0)
(-1.70164e-05 -4.1649e-06 0)
(-1.51862e-05 -4.07622e-06 0)
(-1.33954e-05 -3.97573e-06 0)
(-1.1649e-05 -3.86353e-06 0)
(-9.95159e-06 -3.73978e-06 0)
(-8.30853e-06 -3.60465e-06 0)
(-6.72466e-06 -3.45844e-06 0)
(-5.20443e-06 -3.30145e-06 0)
(-3.75237e-06 -3.13385e-06 0)
(-2.37293e-06 -2.95594e-06 0)
(-1.07027e-06 -2.76829e-06 0)
(1.5155e-07 -2.57152e-06 0)
(1.28875e-06 -2.36617e-06 0)
(2.33805e-06 -2.15281e-06 0)
(3.29636e-06 -1.93214e-06 0)
(4.16072e-06 -1.70504e-06 0)
(4.92853e-06 -1.47249e-06 0)
(5.5978e-06 -1.23544e-06 0)
(6.16711e-06 -9.94889e-07 0)
(6.63553e-06 -7.5217e-07 0)
(7.00244e-06 -5.08811e-07 0)
(7.2678e-06 -2.66339e-07 0)
(7.43238e-06 -2.63367e-08 0)
(7.49792e-06 2.09352e-07 0)
(7.46694e-06 4.38576e-07 0)
(7.34271e-06 6.58921e-07 0)
(7.12924e-06 8.67792e-07 0)
(6.8317e-06 1.06237e-06 0)
(6.4568e-06 1.23947e-06 0)
(6.01247e-06 1.39553e-06 0)
(5.5076e-06 1.52666e-06 0)
(4.9525e-06 1.6286e-06 0)
(4.3592e-06 1.69665e-06 0)
(3.74149e-06 1.72573e-06 0)
(3.11469e-06 1.71059e-06 0)
(2.49541e-06 1.64608e-06 0)
(1.90162e-06 1.52734e-06 0)
(1.3527e-06 1.35072e-06 0)
(8.68136e-07 1.11569e-06 0)
(4.66556e-07 8.27282e-07 0)
(1.73783e-07 4.98542e-07 0)
(2.95007e-08 1.54775e-07 0)
(1.51787e-08 2.54902e-07 0)
(1.603e-07 -4.39854e-07 0)
(4.23299e-07 -1.35577e-06 0)
(8.05593e-07 -1.86513e-06 0)
(1.29816e-06 -2.11769e-06 0)
(1.8626e-06 -2.24452e-06 0)
(2.47063e-06 -2.29471e-06 0)
(3.09489e-06 -2.28507e-06 0)
(3.71086e-06 -2.22503e-06 0)
(4.30011e-06 -2.11485e-06 0)
(4.84373e-06 -1.96115e-06 0)
(5.32795e-06 -1.76669e-06 0)
(5.74004e-06 -1.53505e-06 0)
(6.06722e-06 -1.27415e-06 0)
(6.30285e-06 -9.85619e-07 0)
(6.43722e-06 -6.7648e-07 0)
(6.46388e-06 -3.49986e-07 0)
(6.37911e-06 -9.41967e-09 0)
(6.17752e-06 3.40422e-07 0)
(5.85725e-06 6.96924e-07 0)
(5.41671e-06 1.05771e-06 0)
(4.85426e-06 1.41882e-06 0)
(4.17063e-06 1.77868e-06 0)
(3.36661e-06 2.13536e-06 0)
(2.44309e-06 2.48572e-06 0)
(1.4028e-06 2.82891e-06 0)
(2.48591e-07 3.16335e-06 0)
(-1.0171e-06 3.48685e-06 0)
(-2.39024e-06 3.79902e-06 0)
(-3.86623e-06 4.09854e-06 0)
(-5.44141e-06 4.38403e-06 0)
(-7.11041e-06 4.65476e-06 0)
(-8.86796e-06 4.91022e-06 0)
(-1.07095e-05 5.14954e-06 0)
(-1.26289e-05 5.3721e-06 0)
(-1.46202e-05 5.57763e-06 0)
(-1.6678e-05 5.76554e-06 0)
(-1.87959e-05 5.93547e-06 0)
(-2.09679e-05 6.08746e-06 0)
(-2.31878e-05 6.22125e-06 0)
(-2.54494e-05 6.3367e-06 0)
(-2.77462e-05 6.43371e-06 0)
(-3.0072e-05 6.51238e-06 0)
(-3.24202e-05 6.5728e-06 0)
(-3.47849e-05 6.61509e-06 0)
(-3.71597e-05 6.63955e-06 0)
(-3.95384e-05 6.64641e-06 0)
(-4.19148e-05 6.63576e-06 0)
(-4.42829e-05 6.6078e-06 0)
(-4.66368e-05 6.56286e-06 0)
(-4.89705e-05 6.50131e-06 0)
(-5.12786e-05 6.4237e-06 0)
(-5.35554e-05 6.33041e-06 0)
(-5.57954e-05 6.22171e-06 0)
(-5.79933e-05 6.09808e-06 0)
(-6.0144e-05 5.96006e-06 0)
(-6.22425e-05 5.80814e-06 0)
(-6.42843e-05 5.6429e-06 0)
(-6.62647e-05 5.46484e-06 0)
(-6.8179e-05 5.27441e-06 0)
(-7.0023e-05 5.07201e-06 0)
(-7.17929e-05 4.85819e-06 0)
(-7.34847e-05 4.63377e-06 0)
(-7.50949e-05 4.39949e-06 0)
(-7.66199e-05 4.15583e-06 0)
(-7.80568e-05 3.90324e-06 0)
(-7.94021e-05 3.64234e-06 0)
(-8.0653e-05 3.3739e-06 0)
(-8.18074e-05 3.09844e-06 0)
(-8.28627e-05 2.81647e-06 0)
(-8.38166e-05 2.52881e-06 0)
(-8.46673e-05 2.23617e-06 0)
(-8.54131e-05 1.93891e-06 0)
(-8.60525e-05 1.6376e-06 0)
(-8.65842e-05 1.33312e-06 0)
(-8.7007e-05 1.02627e-06 0)
(-8.73203e-05 7.17459e-07 0)
(-8.75236e-05 4.07161e-07 0)
(-8.76165e-05 9.61793e-08 0)
(-8.75985e-05 -2.14697e-07 0)
(-8.74699e-05 -5.2499e-07 0)
(-8.72312e-05 -8.3427e-07 0)
(-8.68827e-05 -1.14182e-06 0)
(-8.64251e-05 -1.44675e-06 0)
(-8.58595e-05 -1.74844e-06 0)
(-8.51872e-05 -2.0465e-06 0)
(-8.44094e-05 -2.34037e-06 0)
(-8.35278e-05 -2.62926e-06 0)
(-8.25441e-05 -2.9125e-06 0)
(-8.14605e-05 -3.18959e-06 0)
(-8.02795e-05 -3.46003e-06 0)
(-7.90032e-05 -3.72317e-06 0)
(-7.76343e-05 -3.97831e-06 0)
(-7.61757e-05 -4.2249e-06 0)
(-7.46308e-05 -4.46247e-06 0)
(-7.30027e-05 -4.69049e-06 0)
(-7.12946e-05 -4.90835e-06 0)
(-6.95102e-05 -5.11546e-06 0)
(-6.76536e-05 -5.31131e-06 0)
(-6.5729e-05 -5.49546e-06 0)
(-6.37403e-05 -5.66741e-06 0)
(-6.16918e-05 -5.82661e-06 0)
(-5.9588e-05 -5.97265e-06 0)
(-5.7434e-05 -6.1051e-06 0)
(-5.52344e-05 -6.2235e-06 0)
(-5.29943e-05 -6.32735e-06 0)
(-5.07187e-05 -6.41614e-06 0)
(-4.84131e-05 -6.48953e-06 0)
(-4.60828e-05 -6.54738e-06 0)
(-4.37332e-05 -6.58944e-06 0)
(-4.13699e-05 -6.61527e-06 0)
(-3.89989e-05 -6.62443e-06 0)
(-3.66258e-05 -6.6167e-06 0)
(-3.42568e-05 -6.59202e-06 0)
(-3.18975e-05 -6.55028e-06 0)
(-2.95539e-05 -6.49124e-06 0)
(-2.7232e-05 -6.41479e-06 0)
(-2.49379e-05 -6.32091e-06 0)
(-2.26777e-05 -6.20965e-06 0)
(-2.04575e-05 -6.08102e-06 0)
(-1.82832e-05 -5.93503e-06 0)
(-1.61606e-05 -5.77175e-06 0)
(-1.40956e-05 -5.59152e-06 0)
(-1.20941e-05 -5.39473e-06 0)
(-1.01619e-05 -5.18168e-06 0)
(-8.30431e-06 -4.95271e-06 0)
(-6.52651e-06 -4.7083e-06 0)
(-4.83383e-06 -4.44902e-06 0)
(-3.23134e-06 -4.17558e-06 0)
(-1.72372e-06 -3.88878e-06 0)
(-3.15242e-07 -3.58942e-06 0)
(9.90196e-07 -3.27838e-06 0)
(2.18881e-06 -2.95678e-06 0)
(3.27714e-06 -2.62595e-06 0)
(4.25239e-06 -2.28728e-06 0)
(5.11233e-06 -1.94216e-06 0)
(5.85516e-06 -1.59211e-06 0)
(6.4796e-06 -1.23902e-06 0)
(6.98508e-06 -8.85125e-07 0)
(7.37182e-06 -5.32733e-07 0)
(7.64075e-06 -1.84139e-07 0)
(7.79375e-06 1.58083e-07 0)
(7.83369e-06 4.90825e-07 0)
(7.76438e-06 8.10561e-07 0)
(7.59054e-06 1.11358e-06 0)
(7.31816e-06 1.39598e-06 0)
(6.95481e-06 1.65337e-06 0)
(6.50927e-06 1.88082e-06 0)
(5.99157e-06 2.07281e-06 0)
(5.41333e-06 2.22347e-06 0)
(4.78792e-06 2.32664e-06 0)
(4.13036e-06 2.3758e-06 0)
(3.45729e-06 2.36408e-06 0)
(2.78683e-06 2.28469e-06 0)
(2.13839e-06 2.13163e-06 0)
(1.53302e-06 1.90029e-06 0)
(9.92684e-07 1.58903e-06 0)
(5.39057e-07 1.20183e-06 0)
(2.03193e-07 7.50257e-07 0)
(3.49856e-08 2.53332e-07 0)
(3.76553e-08 1.44926e-07 0)
(2.23174e-07 -6.77605e-07 0)
(5.35627e-07 -1.70353e-06 0)
(9.53853e-07 -2.31939e-06 0)
(1.47051e-06 -2.65956e-06 0)
(2.05221e-06 -2.84246e-06 0)
(2.67298e-06 -2.91958e-06 0)
(3.30319e-06 -2.91294e-06 0)
(3.91972e-06 -2.83072e-06 0)
(4.50051e-06 -2.68147e-06 0)
(5.02795e-06 -2.47081e-06 0)
(5.4866e-06 -2.20408e-06 0)
(5.86047e-06 -1.89049e-06 0)
(6.13986e-06 -1.53363e-06 0)
(6.31296e-06 -1.14216e-06 0)
(6.37128e-06 -7.21922e-07 0)
(6.3091e-06 -2.77619e-07 0)
(6.1189e-06 1.84377e-07 0)
(5.79745e-06 6.59797e-07 0)
(5.34189e-06 1.1448e-06 0)
(4.74936e-06 1.63435e-06 0)
(4.01945e-06 2.12526e-06 0)
(3.15248e-06 2.61488e-06 0)
(2.14858e-06 3.09904e-06 0)
(1.00971e-06 3.57582e-06 0)
(-2.61237e-07 4.0431e-06 0)
(-1.66197e-06 4.49758e-06 0)
(-3.18861e-06 4.93808e-06 0)
(-4.83656e-06 5.363e-06 0)
(-6.60189e-06 5.77029e-06 0)
(-8.47925e-06 6.15884e-06 0)
(-1.04628e-05 6.52767e-06 0)
(-1.25472e-05 6.87509e-06 0)
(-1.47263e-05 7.20067e-06 0)
(-1.69937e-05 7.50365e-06 0)
(-1.93426e-05 7.78312e-06 0)
(-2.17667e-05 8.03866e-06 0)
(-2.42586e-05 8.26976e-06 0)
(-2.68115e-05 8.47612e-06 0)
(-2.94183e-05 8.65751e-06 0)
(-3.20719e-05 8.8139e-06 0)
(-3.4765e-05 8.94503e-06 0)
(-3.74903e-05 9.0512e-06 0)
(-4.02405e-05 9.13226e-06 0)
(-4.30084e-05 9.18824e-06 0)
(-4.57867e-05 9.21965e-06 0)
(-4.85685e-05 9.2268e-06 0)
(-5.13467e-05 9.20989e-06 0)
(-5.41143e-05 9.16936e-06 0)
(-5.68646e-05 9.10564e-06 0)
(-5.95907e-05 9.01908e-06 0)
(-6.22859e-05 8.91026e-06 0)
(-6.49442e-05 8.77979e-06 0)
(-6.75591e-05 8.62823e-06 0)