/*--------------------------------*- C++ -*----------------------------------*\
  =========                 |
  \\      /  F ield         | OpenFOAM: The Open Source CFD Toolbox
   \\    /   O peration     | Website:  https://openfoam.org
    \\  /    A nd           | Version:  7
     \\/     M anipulation  |
\*---------------------------------------------------------------------------*/
FoamFile
{
    version     2.0;
    format      ascii;
    class       volScalarField;
    location    "0.125";
    object      p;
}
// * * * * * * * * * * * * * * * * * * * * * * * * * * * * * * * * * * * * * //

dimensions      [0 2 -2 0 0 0 0];

internalField   nonuniform List<scalar> 
51200
(
1.86349e-08
2.03026e-05
4.93862e-05
7.59889e-05
9.63161e-05
0.000112781
0.000126465
0.000138007
0.000147873
0.000156416
0.000163916
0.000170568
0.000176496
0.000181791
0.000186534
0.000190793
0.000194655
0.000198213
0.000201516
0.000204585
0.000207436
0.000210094
0.000212582
0.000214921
0.000217139
0.000219257
0.000221281
0.000223224
0.000225099
0.000226924
0.000228704
0.000230439
0.000232141
0.000233829
0.00023551
0.000237181
0.000238836
0.000240481
0.000242127
0.000243785
0.000245454
0.000247134
0.000248823
0.000250511
0.000252196
0.000253882
0.000255589
0.000257334
0.000259115
0.000260912
0.000262704
0.000264489
0.00026628
0.000268093
0.000269932
0.000271794
0.000273672
0.000275562
0.000277461
0.00027936
0.00028126
0.000283165
0.000285082
0.000287013
0.000288953
0.000290894
0.000292833
0.00029477
0.000296708
0.000298646
0.000300582
0.000302513
0.000304435
0.000306349
0.000308253
0.000310153
0.000312047
0.000313933
0.000315803
0.000317651
0.000319474
0.000321276
0.000323063
0.000324837
0.000326594
0.000328323
0.000330018
0.00033168
0.000333319
0.000334944
0.00033655
0.000338125
0.000339655
0.000341138
0.000342581
0.000343995
0.000345378
0.000346721
0.000348012
0.000349248
0.000350432
0.000351571
0.000352669
0.000353722
0.000354724
0.000355666
0.000356542
0.00035735
0.000358091
0.000358767
0.000359386
0.000359948
0.00036045
0.000360887
0.000361251
0.000361542
0.000361764
0.000361924
0.00036203
0.000362079
0.000362067
0.000361983
0.000361823
0.00036159
0.000361284
0.000360906
0.000360452
0.000359927
0.000359335
0.00035868
0.000357959
0.000357169
0.000356308
0.000355382
0.000354399
0.000353369
0.000352303
0.000351209
0.000350088
0.000348939
0.000347758
0.000346547
0.000345315
0.000344072
0.000342832
0.000341605
0.000340404
0.000339242
0.000338128
0.000337071
0.000336083
0.000335181
0.000334383
0.000333704
0.000333159
0.000332763
0.000332531
0.000332466
0.000332546
0.00033269
1.99783e-05
3.90478e-05
6.21046e-05
8.34624e-05
0.000101323
0.000116278
0.000128993
0.000139938
0.000149428
0.00015774
0.000165087
0.000171626
0.000177493
0.000182793
0.000187579
0.000191908
0.000195845
0.000199447
0.000202777
0.000205876
0.000208768
0.000211476
0.000214014
0.000216404
0.00021867
0.00022083
0.000222891
0.000224866
0.000226776
0.000228634
0.000230441
0.0002322
0.000233923
0.000235623
0.000237308
0.000238978
0.000240637
0.00024229
0.000243938
0.000245579
0.000247222
0.00024888
0.000250555
0.00025224
0.000253919
0.00025559
0.000257267
0.000258968
0.000260698
0.000262446
0.000264204
0.000265967
0.000267737
0.000269518
0.000271309
0.000273112
0.000274933
0.000276777
0.000278637
0.000280498
0.000282351
0.0002842
0.000286058
0.000287935
0.000289825
0.000291715
0.000293599
0.000295478
0.000297358
0.000299242
0.000301124
0.000302996
0.000304856
0.000306707
0.000308555
0.000310403
0.000312244
0.000314072
0.000315879
0.000317666
0.000319433
0.000321182
0.000322913
0.000324625
0.000326315
0.000327981
0.000329621
0.000331235
0.000332826
0.000334395
0.000335941
0.000337455
0.000338929
0.000340361
0.000341754
0.000343115
0.000344446
0.000345738
0.000346982
0.00034817
0.000349304
0.000350394
0.000351445
0.000352456
0.000353417
0.000354319
0.000355155
0.000355923
0.000356625
0.000357268
0.000357856
0.000358387
0.00035886
0.00035927
0.00035961
0.000359881
0.000360084
0.000360227
0.000360317
0.000360358
0.000360342
0.00036026
0.000360102
0.000359868
0.000359562
0.00035919
0.000358755
0.000358256
0.000357693
0.000357066
0.000356374
0.000355616
0.000354794
0.000353912
0.000352981
0.00035201
0.000351007
0.000349978
0.000348926
0.000347851
0.000346752
0.000345627
0.000344482
0.000343326
0.000342174
0.000341039
0.000339933
0.000338868
0.000337855
0.000336898
0.000336005
0.000335187
0.00033446
0.00033384
0.000333341
0.000332973
0.000332742
0.000332648
0.000332687
0.000332828
4.88865e-05
6.2013e-05
7.76886e-05
9.37881e-05
0.000108531
0.000121531
0.000132961
0.00014304
0.000151957
0.000159887
0.000166954
0.000173287
0.000179001
0.000184185
0.000188912
0.000193232
0.000197178
0.000200794
0.000204128
0.000207228
0.000210131
0.000212855
0.000215416
0.000217832
0.000220124
0.000222306
0.000224387
0.000226382
0.000228313
0.000230186
0.000232003
0.000233775
0.000235512
0.000237221
0.000238903
0.000240564
0.00024222
0.000243877
0.000245526
0.000247158
0.000248783
0.000250418
0.000252071
0.000253736
0.000255398
0.000257058
0.000258725
0.000260403
0.000262092
0.000263794
0.000265511
0.000267245
0.000268994
0.00027075
0.000272505
0.000274264
0.00027604
0.00027784
0.000279659
0.000281481
0.000283293
0.000285097
0.00028691
0.000288741
0.000290585
0.00029243
0.000294266
0.000296096
0.000297928
0.000299765
0.0003016
0.000303422
0.000305228
0.000307026
0.000308827
0.00031063
0.000312425
0.000314201
0.000315954
0.000317686
0.000319404
0.00032111
0.000322799
0.000324462
0.000326095
0.000327701
0.000329289
0.000330859
0.000332411
0.000333938
0.000335435
0.000336896
0.00033832
0.000339706
0.000341058
0.000342377
0.000343663
0.00034491
0.000346109
0.000347254
0.000348348
0.000349399
0.000350412
0.000351386
0.000352311
0.000353177
0.000353977
0.00035471
0.000355381
0.000355998
0.000356561
0.000357069
0.000357517
0.0003579
0.000358218
0.00035847
0.000358659
0.000358791
0.000358872
0.000358903
0.000358881
0.000358798
0.000358642
0.000358409
0.000358103
0.000357734
0.00035731
0.000356832
0.000356296
0.000355695
0.000355028
0.000354295
0.000353501
0.000352654
0.000351764
0.000350842
0.000349893
0.00034892
0.000347924
0.000346906
0.000345866
0.000344807
0.00034373
0.000342645
0.000341565
0.000340502
0.000339469
0.000338476
0.000337534
0.00033665
0.000335827
0.000335071
0.000334396
0.000333816
0.000333346
0.000332998
0.000332776
0.000332677
0.000332717
0.000332896
7.57589e-05
8.35933e-05
9.39643e-05
0.000105677
0.000117333
0.00012824
0.000138197
0.000147226
0.000155404
0.000162792
0.00016948
0.000175542
0.000181038
0.000186042
0.000190626
0.000194842
0.000198728
0.000202314
0.000205629
0.000208715
0.000211605
0.000214319
0.000216879
0.0002193
0.000221598
0.000223781
0.000225866
0.000227874
0.000229815
0.00023169
0.000233505
0.000235278
0.00023702
0.000238732
0.00024041
0.000242064
0.000243711
0.000245357
0.000246995
0.000248622
0.000250243
0.000251868
0.000253498
0.000255127
0.000256756
0.000258396
0.000260052
0.000261718
0.000263385
0.000265053
0.000266731
0.000268429
0.000270144
0.000271866
0.000273591
0.000275322
0.000277067
0.000278831
0.000280605
0.000282379
0.000284149
0.000285919
0.000287698
0.000289489
0.000291288
0.000293085
0.000294877
0.000296666
0.000298456
0.000300249
0.000302037
0.000303811
0.000305571
0.000307327
0.000309085
0.000310846
0.000312598
0.000314329
0.000316033
0.000317716
0.000319387
0.000321049
0.000322696
0.000324317
0.000325905
0.000327464
0.000329003
0.00033053
0.000332043
0.000333532
0.000334987
0.000336402
0.000337779
0.000339123
0.000340439
0.000341723
0.000342971
0.000344174
0.000345329
0.000346432
0.000347491
0.000348509
0.000349492
0.000350433
0.000351326
0.000352158
0.000352924
0.000353625
0.000354268
0.000354861
0.000355404
0.000355893
0.000356321
0.000356682
0.000356977
0.000357209
0.000357385
0.000357511
0.000357587
0.000357611
0.000357581
0.000357489
0.00035733
0.0003571
0.000356799
0.000356437
0.000356022
0.000355558
0.00035504
0.000354461
0.000353817
0.000353108
0.00035234
0.000351522
0.000350667
0.000349784
0.000348881
0.000347956
0.000347008
0.000346037
0.000345045
0.000344035
0.000343011
0.000341983
0.000340961
0.000339959
0.000338985
0.00033805
0.000337161
0.000336326
0.00033555
0.00033484
0.000334204
0.000333654
0.000333205
0.000332871
0.000332656
0.000332562
0.000332611
0.00033282
9.67013e-05
0.000102051
0.000109237
0.000117786
0.000126876
0.000135829
0.000144328
0.000152271
0.000159613
0.000166368
0.000172584
0.000178293
0.000183525
0.000188326
0.000192737
0.000196806
0.00020058
0.000204087
0.000207353
0.000210403
0.000213261
0.000215948
0.00021849
0.000220902
0.000223187
0.000225358
0.000227438
0.000229446
0.000231384
0.000233253
0.000235065
0.000236834
0.000238569
0.000240271
0.000241943
0.000243596
0.000245236
0.000246863
0.000248478
0.000250087
0.000251702
0.000253322
0.000254935
0.000256536
0.000258134
0.000259746
0.000261377
0.00026302
0.000264663
0.000266306
0.000267959
0.000269625
0.000271301
0.00027298
0.000274667
0.000276369
0.00027809
0.000279821
0.000281552
0.000283277
0.000285001
0.000286735
0.000288482
0.000290236
0.000291989
0.000293739
0.000295486
0.000297235
0.000298987
0.000300735
0.000302473
0.000304198
0.000305915
0.000307631
0.000309349
0.000311066
0.000312771
0.000314455
0.000316115
0.000317756
0.000319385
0.000321002
0.000322601
0.000324176
0.00032572
0.000327238
0.000328735
0.00033022
0.000331691
0.00033314
0.000334552
0.000335924
0.000337258
0.000338561
0.000339838
0.000341087
0.000342298
0.000343461
0.000344572
0.000345635
0.000346658
0.000347645
0.000348597
0.000349508
0.000350368
0.000351166
0.0003519
0.000352572
0.000353189
0.000353759
0.00035428
0.000354749
0.000355158
0.0003555
0.000355775
0.000355987
0.000356148
0.000356265
0.000356337
0.000356358
0.000356321
0.00035622
0.000356052
0.00035582
0.000355526
0.000355175
0.000354772
0.000354321
0.000353817
0.000353255
0.00035263
0.000351943
0.000351202
0.000350415
0.000349593
0.000348747
0.000347881
0.000346998
0.000346093
0.000345167
0.000344218
0.000343253
0.000342275
0.000341295
0.000340324
0.000339373
0.000338452
0.000337567
0.000336725
0.00033593
0.00033519
0.000334513
0.000333906
0.00033338
0.000332949
0.000332625
0.000332413
0.000332318
0.000332368
0.000332581
0.000114013
0.00011787
0.000123086
0.000129469
0.000136544
0.000143827
0.000151
0.000157892
0.000164408
0.000170512
0.0001762
0.000181487
0.000186398
0.000190952
0.000195168
0.000199076
0.000202713
0.00020611
0.000209292
0.000212278
0.000215083
0.000217729
0.000220237
0.000222619
0.000224879
0.000227033
0.000229101
0.000231091
0.00023301
0.000234866
0.000236673
0.000238436
0.000240156
0.000241838
0.000243498
0.000245146
0.000246776
0.000248386
0.00024998
0.000251571
0.000253168
0.000254767
0.000256357
0.000257936
0.000259517
0.000261108
0.000262711
0.000264318
0.000265927
0.000267543
0.000269173
0.000270813
0.000272453
0.000274093
0.000275743
0.000277411
0.0002791
0.000280797
0.000282488
0.000284169
0.000285852
0.000287549
0.00028926
0.000290975
0.000292685
0.000294388
0.000296092
0.000297802
0.000299515
0.00030122
0.000302909
0.000304586
0.000306261
0.000307939
0.000309619
0.000311293
0.00031295
0.000314584
0.000316199
0.000317801
0.000319392
0.000320968
0.000322521
0.000324046
0.000325545
0.000327022
0.000328484
0.000329931
0.000331361
0.000332765
0.000334134
0.000335464
0.000336759
0.000338023
0.000339264
0.000340475
0.000341648
0.000342771
0.000343843
0.000344868
0.000345856
0.000346813
0.000347736
0.000348616
0.000349442
0.000350207
0.000350909
0.000351555
0.000352151
0.000352699
0.0003532
0.000353647
0.000354033
0.000354355
0.000354612
0.000354811
0.000354959
0.000355064
0.000355127
0.000355143
0.000355101
0.000354993
0.000354819
0.000354582
0.00035429
0.000353949
0.00035356
0.000353123
0.000352632
0.000352084
0.000351476
0.000350808
0.000350089
0.000349331
0.000348543
0.000347731
0.0003469
0.00034605
0.000345182
0.000344293
0.000343385
0.000342459
0.000341523
0.000340586
0.000339658
0.00033875
0.000337871
0.000337028
0.000336224
0.000335464
0.000334752
0.000334098
0.00033351
0.000333001
0.000332582
0.000332263
0.00033205
0.000331947
0.000331982
0.000332175
0.00012881
0.000131659
0.000135584
0.000140459
0.00014602
0.000151943
0.000157949
0.000163867
0.000169602
0.000175069
0.000180229
0.00018508
0.000189629
0.00019389
0.000197876
0.000201601
0.000205085
0.000208354
0.000211429
0.000214326
0.000217062
0.000219652
0.000222108
0.000224438
0.000226661
0.000228792
0.000230838
0.000232803
0.000234694
0.000236529
0.00023832
0.000240067
0.000241768
0.000243433
0.000245078
0.000246707
0.000248317
0.000249907
0.000251486
0.000253065
0.000254643
0.000256211
0.000257768
0.000259323
0.000260886
0.00026246
0.000264036
0.00026561
0.000267186
0.000268773
0.000270373
0.000271979
0.000273584
0.000275192
0.000276811
0.000278449
0.000280101
0.000281757
0.000283405
0.000285048
0.000286696
0.000288357
0.000290029
0.000291702
0.000293369
0.000295031
0.000296695
0.000298366
0.000300037
0.000301697
0.000303341
0.000304975
0.000306609
0.000308249
0.00030989
0.000311522
0.000313132
0.00031472
0.000316292
0.000317854
0.000319407
0.000320943
0.000322453
0.000323933
0.000325387
0.000326824
0.000328249
0.000329661
0.000331052
0.000332413
0.000333737
0.000335025
0.000336283
0.000337514
0.00033872
0.000339894
0.000341026
0.000342109
0.000343143
0.000344134
0.000345091
0.00034602
0.000346914
0.000347764
0.000348557
0.000349289
0.000349961
0.000350581
0.000351156
0.000351686
0.000352168
0.000352593
0.000352957
0.000353256
0.000353495
0.00035368
0.000353819
0.000353915
0.000353968
0.000353974
0.000353924
0.000353811
0.000353633
0.000353395
0.000353105
0.00035277
0.000352392
0.000351966
0.000351489
0.000350953
0.000350359
0.000349709
0.000349011
0.000348277
0.000347517
0.000346736
0.000345936
0.000345117
0.000344279
0.000343422
0.000342546
0.000341655
0.000340755
0.000339856
0.000338966
0.000338095
0.00033725
0.000336438
0.000335664
0.00033493
0.00033424
0.0003336
0.000333024
0.000332523
0.000332109
0.000331789
0.000331567
0.000331448
0.000331455
0.000331606
0.00014181
0.000143929
0.000146924
0.000150719
0.000155151
0.000159983
0.000165001
0.000170057
0.000175052
0.0001799
0.00018455
0.000188973
0.000193157
0.000197109
0.000200837
0.000204353
0.000207666
0.000210791
0.000213741
0.000216533
0.000219185
0.000221705
0.000224093
0.000226363
0.000228538
0.000230629
0.000232639
0.00023457
0.000236434
0.000238244
0.000240008
0.000241726
0.000243404
0.000245054
0.000246681
0.000248285
0.000249866
0.000251431
0.000252994
0.000254559
0.000256114
0.000257653
0.00025918
0.00026071
0.00026225
0.000263797
0.000265344
0.000266888
0.000268437
0.000269998
0.000271565
0.000273132
0.000274699
0.000276275
0.000277868
0.000279477
0.000281092
0.000282703
0.000284308
0.000285915
0.000287531
0.000289158
0.00029079
0.000292418
0.000294043
0.000295667
0.000297296
0.000298929
0.000300555
0.000302169
0.000303769
0.000305364
0.000306962
0.000308564
0.000310164
0.000311751
0.000313316
0.000314862
0.000316395
0.000317919
0.000319432
0.000320926
0.000322394
0.000323832
0.000325246
0.000326645
0.000328034
0.00032941
0.000330762
0.00033208
0.000333362
0.00033461
0.000335831
0.00033703
0.000338203
0.000339341
0.000340433
0.000341477
0.000342474
0.000343433
0.000344363
0.000345263
0.000346129
0.000346948
0.00034771
0.000348411
0.000349055
0.000349652
0.000350205
0.000350716
0.000351179
0.000351584
0.000351926
0.000352203
0.000352422
0.000352593
0.000352723
0.000352812
0.000352858
0.000352853
0.000352793
0.000352671
0.000352489
0.000352252
0.000351965
0.000351637
0.000351267
0.000350851
0.000350383
0.000349858
0.000349276
0.000348641
0.000347963
0.000347251
0.000346514
0.000345759
0.000344985
0.000344194
0.000343382
0.000342552
0.000341703
0.000340841
0.000339972
0.000339104
0.000338246
0.000337406
0.00033659
0.000335803
0.000335048
0.000334331
0.000333654
0.000333024
0.000332453
0.000331954
0.000331536
0.000331208
0.00033097
0.000330826
0.000330793
0.000330886
0.000153469
0.000155018
0.00015732
0.000160315
0.000163863
0.000167822
0.00017203
0.000176342
0.000180663
0.000184927
0.000189079
0.00019308
0.000196907
0.00020055
0.000204014
0.000207306
0.000210433
0.000213399
0.000216212
0.000218887
0.000221439
0.000223869
0.000226181
0.000228389
0.000230509
0.000232545
0.000234503
0.000236392
0.000238225
0.000240006
0.000241735
0.000243418
0.000245069
0.000246696
0.0002483
0.000249876
0.000251428
0.000252971
0.000254514
0.000256053
0.000257578
0.000259087
0.000260591
0.000262099
0.000263614
0.000265129
0.00026664
0.000268154
0.000269678
0.000271211
0.000272745
0.000274274
0.000275805
0.000277349
0.000278914
0.000280492
0.000282069
0.000283637
0.000285201
0.000286773
0.000288357
0.00028995
0.000291541
0.000293126
0.000294709
0.000296298
0.000297893
0.000299487
0.00030107
0.000302638
0.000304196
0.000305754
0.000307318
0.000308884
0.000310443
0.000311983
0.000313504
0.00031501
0.000316507
0.000317996
0.00031947
0.000320922
0.000322345
0.000323741
0.000325119
0.000326484
0.000327839
0.000329177
0.000330489
0.000331766
0.000333007
0.000334218
0.000335406
0.000336573
0.000337713
0.000338814
0.000339867
0.000340873
0.000341836
0.000342767
0.00034367
0.000344544
0.000345381
0.000346168
0.000346897
0.00034757
0.00034819
0.000348765
0.000349298
0.000349789
0.000350231
0.000350614
0.000350935
0.000351193
0.000351395
0.000351552
0.000351671
0.000351752
0.000351791
0.000351778
0.000351707
0.000351576
0.000351388
0.00035115
0.000350867
0.000350544
0.000350182
0.000349774
0.000349314
0.000348797
0.000348224
0.000347602
0.00034694
0.000346248
0.000345532
0.000344798
0.000344046
0.000343277
0.000342488
0.000341679
0.000340853
0.000340016
0.000339172
0.00033833
0.000337498
0.000336684
0.000335891
0.000335122
0.000334381
0.000333672
0.000333
0.000332373
0.000331801
0.000331297
0.000330869
0.000330525
0.000330264
0.000330087
0.000330005
0.000330027
0.00016406
0.00016517
0.000166943
0.00016931
0.000172163
0.000175413
0.000178938
0.00018261
0.000186346
0.00019008
0.000193759
0.000197349
0.000200823
0.000204163
0.000207365
0.000210428
0.000213356
0.000216152
0.000218823
0.000221375
0.000223809
0.000226134
0.000228362
0.000230502
0.000232559
0.000234532
0.000236432
0.000238274
0.000240065
0.000241805
0.000243495
0.000245144
0.000246766
0.000248363
0.000249932
0.000251475
0.000253002
0.000254525
0.000256044
0.00025755
0.000259039
0.000260518
0.000261999
0.000263485
0.000264971
0.000266452
0.000267931
0.000269416
0.000270912
0.000272412
0.000273909
0.000275402
0.000276902
0.000278419
0.000279953
0.000281494
0.00028303
0.000284557
0.000286086
0.000287625
0.000289176
0.000290731
0.000292281
0.000293826
0.000295372
0.000296927
0.000298486
0.00030004
0.00030158
0.000303105
0.000304624
0.000306147
0.000307677
0.000309206
0.000310723
0.00031222
0.000313699
0.000315166
0.000316628
0.000318081
0.000319518
0.000320928
0.000322308
0.000323664
0.000325006
0.00032634
0.000327661
0.000328962
0.000330233
0.000331469
0.000332672
0.00033385
0.000335007
0.000336144
0.000337249
0.000338313
0.000339328
0.000340298
0.000341231
0.000342134
0.000343013
0.000343861
0.000344668
0.000345423
0.000346121
0.000346765
0.000347362
0.000347917
0.000348432
0.000348904
0.000349323
0.000349683
0.000349982
0.000350222
0.00035041
0.000350556
0.000350664
0.000350736
0.000350765
0.000350743
0.000350662
0.000350522
0.000350329
0.000350089
0.000349809
0.000349491
0.000349134
0.000348732
0.000348277
0.000347766
0.0003472
0.000346588
0.00034594
0.000345265
0.000344568
0.000343852
0.000343118
0.000342365
0.000341594
0.000340803
0.000339996
0.000339178
0.000338357
0.000337537
0.000336726
0.00033593
0.000335153
0.000334398
0.000333664
0.000332957
0.000332283
0.000331652
0.000331073
0.000330558
0.000330113
0.000329746
0.000329456
0.000329239
0.0003291
0.000329042
0.000173788
0.000174552
0.000175894
0.000177773
0.000180081
0.000182742
0.00018568
0.0001888
0.000192022
0.000195282
0.00019853
0.000201731
0.000204863
0.000207907
0.00021085
0.000213684
0.000216409
0.000219032
0.000221555
0.000223972
0.000226282
0.000228498
0.000230634
0.000232693
0.000234673
0.000236578
0.000238421
0.000240212
0.000241951
0.00024364
0.000245286
0.000246902
0.000248491
0.00025005
0.000251579
0.000253087
0.000254589
0.000256088
0.000257576
0.000259046
0.000260502
0.000261953
0.000263408
0.000264865
0.000266318
0.000267766
0.000269216
0.000270675
0.00027214
0.000273602
0.000275059
0.000276519
0.000277991
0.000279481
0.000280983
0.000282483
0.000283976
0.000285466
0.000286962
0.00028847
0.000289986
0.000291501
0.00029301
0.000294518
0.000296032
0.000297554
0.000299075
0.000300586
0.000302083
0.000303569
0.000305054
0.000306545
0.00030804
0.00030953
0.000311004
0.00031246
0.000313901
0.000315334
0.00031676
0.000318177
0.000319573
0.000320941
0.000322281
0.000323601
0.00032491
0.000326212
0.0003275
0.000328764
0.000329995
0.000331191
0.000332359
0.000333506
0.000334635
0.00033574
0.000336811
0.000337838
0.000338817
0.000339754
0.000340657
0.000341536
0.00034239
0.000343211
0.000343988
0.000344711
0.00034538
0.000345997
0.000346571
0.000347107
0.000347604
0.000348056
0.000348454
0.000348791
0.000349067
0.000349289
0.000349464
0.000349601
0.000349702
0.000349764
0.000349782
0.000349747
0.000349656
0.000349507
0.000349308
0.000349067
0.000348789
0.000348475
0.000348122
0.000347721
0.000347269
0.000346762
0.000346203
0.0003456
0.000344964
0.000344302
0.000343619
0.000342918
0.000342198
0.000341459
0.000340701
0.000339925
0.000339132
0.00033833
0.000337525
0.000336723
0.000335929
0.000335147
0.000334381
0.000333632
0.0003329
0.00033219
0.000331508
0.000330866
0.000330274
0.000329742
0.000329275
0.000328879
0.000328552
0.00032829
0.000328089
0.000327945
0.000182814
0.000183286
0.000184275
0.000185759
0.000187624
0.000189801
0.000192246
0.000194883
0.000197645
0.00020048
0.000203338
0.000206183
0.000208992
0.00021175
0.000214439
0.000217046
0.000219572
0.000222018
0.000224382
0.000226655
0.00022884
0.00023095
0.000232988
0.000234952
0.000236846
0.000238681
0.000240464
0.000242196
0.000243875
0.00024551
0.000247112
0.000248688
0.000250236
0.000251752
0.000253241
0.000254718
0.000256192
0.000257658
0.000259108
0.000260541
0.000261965
0.000263391
0.000264818
0.000266241
0.000267656
0.000269072
0.000270495
0.000271926
0.000273356
0.00027478
0.000276199
0.000277627
0.000279073
0.000280534
0.000281999
0.000283458
0.000284911
0.000286366
0.000287832
0.000289308
0.000290787
0.000292261
0.000293731
0.000295205
0.000296689
0.000298177
0.00029966
0.000301128
0.000302582
0.000304031
0.000305485
0.000306946
0.000308407
0.000309856
0.000311287
0.000312703
0.000314109
0.000315511
0.000316904
0.000318282
0.000319635
0.000320961
0.000322263
0.00032355
0.00032483
0.0003261
0.000327354
0.00032858
0.000329772
0.000330932
0.000332068
0.000333187
0.000334287
0.000335361
0.000336397
0.000337387
0.000338332
0.000339238
0.000340116
0.000340971
0.000341799
0.000342592
0.000343338
0.000344031
0.000344671
0.000345264
0.000345817
0.000346333
0.000346811
0.000347243
0.000347619
0.000347935
0.000348192
0.000348396
0.000348559
0.000348687
0.00034878
0.000348833
0.000348839
0.000348791
0.000348687
0.000348529
0.000348324
0.000348081
0.000347805
0.000347493
0.000347142
0.000346742
0.000346289
0.000345783
0.000345229
0.000344634
0.000344008
0.000343357
0.000342686
0.000341997
0.000341288
0.000340558
0.000339809
0.000339042
0.000338261
0.000337471
0.000336679
0.00033589
0.000335109
0.000334337
0.000333577
0.000332828
0.000332093
0.000331374
0.00033068
0.000330021
0.000329409
0.000328854
0.000328361
0.00032793
0.000327561
0.00032725
0.000326982
0.00032675
0.000191239
0.000191479
0.000192177
0.000193318
0.000194808
0.000196587
0.000198617
0.000200837
0.000203194
0.000205643
0.000208146
0.000210665
0.000213176
0.000215658
0.0002181
0.00022049
0.000222823
0.00022509
0.000227285
0.000229411
0.000231474
0.000233473
0.000235405
0.00023727
0.000239077
0.000240838
0.000242551
0.000244215
0.000245832
0.000247415
0.00024897
0.000250499
0.000251996
0.000253465
0.000254918
0.000256366
0.000257806
0.000259232
0.00026064
0.000262036
0.000263431
0.000264828
0.000266223
0.000267609
0.000268989
0.000270375
0.000271769
0.000273167
0.00027456
0.000275944
0.00027733
0.000278731
0.000280149
0.000281577
0.000283001
0.000284419
0.000285835
0.000287259
0.000288695
0.000290138
0.000291577
0.000293012
0.000294446
0.00029589
0.000297342
0.000298795
0.000300237
0.000301663
0.000303078
0.000304494
0.000305918
0.000307348
0.000308773
0.000310183
0.000311574
0.000312953
0.000314325
0.000315695
0.000317055
0.000318394
0.000319705
0.000320989
0.000322256
0.000323514
0.000324765
0.000326004
0.000327223
0.00032841
0.000329565
0.000330692
0.0003318
0.000332892
0.000333964
0.000335006
0.000336006
0.000336961
0.000337873
0.000338752
0.000339606
0.000340438
0.00034124
0.000342003
0.000342717
0.00034338
0.000343993
0.000344563
0.000345097
0.000345596
0.000346054
0.000346464
0.000346818
0.000347112
0.000347352
0.000347543
0.000347695
0.000347813
0.000347897
0.00034794
0.000347933
0.000347871
0.000347753
0.000347586
0.000347376
0.000347131
0.000346854
0.000346543
0.000346191
0.00034579
0.000345335
0.000344829
0.000344278
0.00034369
0.000343072
0.00034243
0.000341768
0.000341087
0.000340385
0.000339662
0.000338917
0.000338156
0.000337382
0.000336601
0.000335818
0.000335039
0.000334267
0.000333502
0.000332743
0.00033199
0.000331245
0.000330513
0.000329801
0.000329121
0.000328485
0.000327903
0.000327378
0.000326909
0.000326494
0.000326129
0.000325792
0.000325468
0.000199141
0.000199204
0.000199656
0.000200502
0.000201673
0.00020311
0.000204782
0.000206644
0.000208646
0.000210751
0.000212931
0.000215151
0.000217382
0.000219605
0.000221812
0.000223995
0.000226136
0.000228222
0.000230252
0.000232236
0.000234172
0.000236051
0.000237871
0.000239638
0.000241361
0.000243042
0.000244675
0.000246265
0.000247821
0.000249351
0.000250855
0.000252329
0.000253771
0.000255195
0.000256613
0.000258026
0.000259426
0.000260807
0.000262174
0.000263537
0.000264901
0.000266264
0.000267619
0.000268967
0.000270317
0.000271675
0.000273038
0.000274398
0.000275749
0.000277096
0.000278454
0.000279829
0.000281217
0.000282607
0.00028399
0.000285368
0.000286752
0.000288147
0.000289552
0.000290957
0.000292356
0.000293755
0.000295159
0.000296573
0.000297992
0.000299406
0.000300806
0.000302192
0.000303573
0.000304959
0.000306354
0.000307751
0.000309138
0.000310509
0.000311864
0.000313209
0.00031455
0.000315887
0.00031721
0.00031851
0.00031978
0.000321027
0.000322261
0.000323491
0.000324715
0.000325923
0.000327106
0.000328255
0.000329375
0.000330472
0.000331554
0.00033262
0.000333664
0.000334672
0.000335638
0.000336558
0.000337441
0.000338295
0.000339126
0.000339934
0.000340709
0.000341442
0.000342125
0.000342758
0.000343346
0.000343896
0.000344412
0.000344893
0.000345331
0.000345719
0.00034605
0.000346324
0.000346547
0.000346726
0.000346869
0.000346978
0.000347051
0.000347081
0.00034706
0.000346983
0.000346852
0.000346675
0.00034646
0.000346213
0.000345935
0.000345622
0.000345267
0.000344862
0.000344405
0.000343899
0.00034335
0.000342766
0.000342154
0.000341519
0.000340863
0.000340186
0.000339488
0.000338768
0.000338026
0.000337266
0.000336496
0.00033572
0.000334944
0.000334171
0.000333404
0.000332641
0.000331881
0.00033112
0.000330361
0.00032961
0.000328877
0.000328173
0.000327508
0.000326894
0.000326333
0.000325822
0.000325357
0.000324936
0.000324527
0.000324111
0.000206597
0.000206501
0.000206753
0.000207354
0.000208247
0.000209386
0.000210745
0.000212294
0.000213987
0.000215789
0.000217674
0.000219617
0.000221589
0.000223573
0.00022556
0.000227536
0.000229485
0.000231396
0.000233273
0.000235116
0.000236918
0.00023867
0.000240378
0.00024205
0.000243686
0.000245279
0.000246829
0.000248346
0.00024984
0.000251312
0.000252757
0.00025417
0.000255561
0.000256944
0.000258324
0.000259693
0.000261045
0.000262381
0.00026371
0.000265042
0.000266372
0.000267694
0.000269008
0.000270321
0.000271641
0.000272969
0.000274297
0.000275615
0.000276926
0.000278241
0.000279573
0.00028092
0.000282274
0.000283623
0.000284966
0.000286309
0.000287664
0.00028903
0.0002904
0.000291765
0.000293126
0.000294491
0.000295867
0.000297252
0.000298637
0.00030001
0.000301367
0.000302716
0.000304067
0.000305428
0.000306793
0.000308154
0.000309501
0.000310833
0.000312155
0.000313472
0.000314784
0.000316086
0.000317371
0.000318629
0.000319862
0.000321076
0.000322282
0.000323484
0.000324678
0.000325854
0.000327001
0.000328115
0.000329202
0.000330272
0.000331329
0.00033237
0.000333383
0.000334359
0.00033529
0.000336179
0.000337034
0.000337865
0.000338674
0.000339457
0.000340204
0.000340907
0.00034156
0.000342166
0.000342731
0.000343261
0.00034376
0.000344223
0.000344642
0.000345008
0.000345317
0.000345571
0.000345777
0.000345944
0.000346078
0.000346179
0.000346241
0.000346256
0.000346218
0.000346126
0.000345982
0.000345796
0.000345576
0.000345326
0.000345046
0.000344729
0.000344369
0.000343959
0.000343499
0.000342991
0.000342443
0.000341862
0.000341254
0.000340624
0.000339971
0.000339295
0.000338597
0.000337875
0.000337133
0.000336373
0.000335603
0.000334829
0.000334056
0.000333287
0.000332522
0.000331758
0.000330991
0.000330219
0.000329442
0.000328669
0.000327911
0.000327178
0.000326483
0.000325833
0.000325232
0.000324676
0.00032416
0.00032368
0.000323198
0.000322687
0.000213665
0.000213426
0.000213507
0.000213895
0.00021455
0.000215433
0.000216519
0.000217788
0.000219207
0.00022074
0.00022236
0.000224046
0.000225781
0.000227546
0.000229322
0.000231093
0.000232854
0.000234603
0.000236332
0.000238032
0.000239696
0.000241324
0.000242926
0.0002445
0.000246037
0.000247538
0.000249009
0.000250458
0.000251887
0.000253292
0.000254668
0.000256023
0.000257368
0.00025871
0.000260044
0.000261363
0.000262664
0.000263957
0.000265251
0.000266547
0.000267837
0.000269116
0.000270391
0.000271672
0.000272962
0.000274256
0.000275542
0.000276818
0.000278094
0.000279382
0.000280687
0.000282002
0.000283316
0.000284624
0.00028593
0.000287245
0.000288571
0.000289904
0.000291236
0.000292562
0.000293888
0.000295224
0.000296573
0.000297927
0.000299274
0.000300605