/*--------------------------------*- C++ -*----------------------------------*\
  =========                 |
  \\      /  F ield         | OpenFOAM: The Open Source CFD Toolbox
   \\    /   O peration     | Website:  https://openfoam.org
    \\  /    A nd           | Version:  7
     \\/     M anipulation  |
\*---------------------------------------------------------------------------*/
FoamFile
{
    version     2.0;
    format      ascii;
    class       surfaceScalarField;
    location    "0.125";
    object      phi;
}
// * * * * * * * * * * * * * * * * * * * * * * * * * * * * * * * * * * * * * //

dimensions      [0 3 -1 0 0 0 0];

internalField   nonuniform List<scalar> 
101920
(
7.22533e-14
-9.45944e-14
-3.17812e-12
3.25278e-12
-3.72758e-12
5.45083e-13
-4.04975e-12
3.25984e-13
-3.84161e-12
-2.08904e-13
-3.32511e-12
-5.15556e-13
-2.71304e-12
-6.11291e-13
-2.14559e-12
-5.68439e-13
-1.69719e-12
-4.47935e-13
-1.41436e-12
-2.82297e-13
-1.31355e-12
-9.99296e-14
-1.40854e-12
9.5364e-14
-1.69813e-12
2.91243e-13
-2.18746e-12
4.89288e-13
-2.88082e-12
6.91921e-13
-3.77082e-12
8.8982e-13
-4.85012e-12
1.07883e-12
-6.10703e-12
1.25871e-12
-7.52929e-12
1.42232e-12
-9.10777e-12
1.5778e-12
-1.08397e-11
1.73133e-12
-1.27159e-11
1.87484e-12
-1.47221e-11
2.0073e-12
-1.68509e-11
2.12964e-12
-1.90936e-11
2.24337e-12
-2.14395e-11
2.34742e-12
-2.38794e-11
2.44019e-12
-2.64033e-11
2.52561e-12
-2.90052e-11
2.60321e-12
-3.16758e-11
2.67014e-12
-3.44037e-11
2.7279e-12
-3.71834e-11
2.77906e-12
-4.00084e-11
2.8246e-12
-4.28672e-11
2.86039e-12
-4.57497e-11
2.88269e-12
-4.86476e-11
2.89677e-12
-5.15565e-11
2.9081e-12
-5.44744e-11
2.91601e-12
-5.73935e-11
2.91791e-12
-6.03042e-11
2.91139e-12
-6.3201e-11
2.8967e-12
-6.60792e-11
2.8772e-12
-6.89334e-11
2.85364e-12
-7.17592e-11
2.82442e-12
-7.45521e-11
2.79143e-12
-7.73082e-11
2.75634e-12
-8.00239e-11
2.71601e-12
-8.26924e-11
2.66793e-12
-8.53059e-11
2.61359e-12
-8.78618e-11
2.55604e-12
-9.03602e-11
2.49823e-12
-9.28e-11
2.44084e-12
-9.51787e-11
2.38044e-12
-9.74911e-11
2.31353e-12
-9.97321e-11
2.2414e-12
-1.01899e-10
2.16723e-12
-1.03991e-10
2.09165e-12
-1.06006e-10
2.01485e-12
-1.07943e-10
1.93685e-12
-1.09798e-10
1.85667e-12
-1.11572e-10
1.77395e-12
-1.13261e-10
1.68939e-12
-1.14864e-10
1.60326e-12
-1.1638e-10
1.51549e-12
-1.17809e-10
1.4267e-12
-1.19147e-10
1.33718e-12
-1.20393e-10
1.24622e-12
-1.21547e-10
1.15373e-12
-1.22607e-10
1.06075e-12
-1.23574e-10
9.6746e-13
-1.24447e-10
8.72822e-13
-1.25224e-10
7.76709e-13
-1.25903e-10
6.80365e-13
-1.26486e-10
5.8448e-13
-1.26973e-10
4.88529e-13
-1.27363e-10
3.91817e-13
-1.27657e-10
2.93685e-13
-1.27851e-10
1.9401e-13
-1.27948e-10
9.43642e-14
-1.27946e-10
-3.33218e-15
-1.27849e-10
-9.87723e-14
-1.27656e-10
-1.93559e-13
-1.27367e-10
-2.89279e-13
-1.2698e-10
-3.8632e-13
-1.26494e-10
-4.83924e-13
-1.2591e-10
-5.81062e-13
-1.25232e-10
-6.76783e-13
-1.2446e-10
-7.71078e-13
-1.23596e-10
-8.6539e-13
-1.22637e-10
-9.60737e-13
-1.21583e-10
-1.05592e-12
-1.20434e-10
-1.14878e-12
-1.19193e-10
-1.2387e-12
-1.17865e-10
-1.32709e-12
-1.16448e-10
-1.41561e-12
-1.14943e-10
-1.50446e-12
-1.13351e-10
-1.5927e-12
-1.11672e-10
-1.67913e-12
-1.0991e-10
-1.76278e-12
-1.08066e-10
-1.8438e-12
-1.06142e-10
-1.92322e-12
-1.0414e-10
-2.00163e-12
-1.02062e-10
-2.07864e-12
-9.9908e-11
-2.15365e-12
-9.76807e-11
-2.22679e-12
-9.53823e-11
-2.29829e-12
-9.30155e-11
-2.36723e-12
-9.0584e-11
-2.43202e-12
-8.80918e-11
-2.49218e-12
-8.55426e-11
-2.54885e-12
-8.29393e-11
-2.60321e-12
-8.02838e-11
-2.65532e-12
-7.75788e-11
-2.70463e-12
-7.48286e-11
-2.75027e-12
-7.20383e-11
-2.79105e-12
-6.92125e-11
-2.82629e-12
-6.6356e-11
-2.85633e-12
-6.34732e-11
-2.8823e-12
-6.05675e-11
-2.90519e-12
-5.76433e-11
-2.92441e-12
-5.47063e-11
-2.93801e-12
-5.17629e-11
-2.94462e-12
-4.88193e-11
-2.94433e-12
-4.58806e-11
-2.93799e-12
-4.2953e-11
-2.92586e-12
-4.00445e-11
-2.90703e-12
-3.71638e-11
-2.8806e-12
-3.43187e-11
-2.84648e-12
-3.15151e-11
-2.80493e-12
-2.87588e-11
-2.75626e-12
-2.60572e-11
-2.7003e-12
-2.34191e-11
-2.63653e-12
-2.08536e-11
-2.56458e-12
-1.83696e-11
-2.48415e-12
-1.59756e-11
-2.39487e-12
-1.36799e-11
-2.29673e-12
-1.14907e-11
-2.19009e-12
-9.41576e-12
-2.07541e-12
-7.46243e-12
-1.95289e-12
-5.63948e-12
-1.82221e-12
-3.95627e-12
-1.68303e-12
-2.42134e-12
-1.53554e-12
-1.04207e-12
-1.38024e-12
1.74813e-13
-1.21743e-12
1.22282e-12
-1.04776e-12
2.09604e-12
-8.72573e-13
2.79037e-12
-6.93616e-13
3.30369e-12
-5.12609e-13
3.63499e-12
-3.30934e-13
3.78532e-12
-1.50323e-13
3.75914e-12
2.60524e-14
3.56541e-12
1.93745e-13
3.21842e-12
3.47606e-13
2.73865e-12
4.8074e-13
2.15607e-12
5.83174e-13
1.51533e-12
6.40543e-13
8.81542e-13
6.33049e-13
3.46533e-13
5.34415e-13
3.00687e-14
3.16073e-13
2.96965e-14
4.01172e-12
-4.10391e-12
4.90904e-12
2.35617e-12
3.87837e-12
1.57535e-12
3.45489e-12
7.49817e-13
3.27825e-12
-3.31666e-14
3.30636e-12
-5.44668e-13
3.42255e-12
-7.27727e-13
3.47181e-12
-6.16324e-13
3.3089e-12
-2.86988e-13
2.84394e-12
1.83372e-13
1.99144e-12
7.49937e-13
7.05129e-13
1.38038e-12
-1.04508e-12
2.04156e-12
-3.27771e-12
2.7227e-12
-5.9927e-12
3.409e-12
-9.1891e-12
4.08425e-12
-1.28575e-11
4.74688e-12
-1.69848e-11
5.3847e-12
-2.15511e-11
5.98958e-12
-2.65393e-11
6.56904e-12
-3.19297e-11
7.12146e-12
-3.76953e-11
7.64132e-12
-4.38163e-11
8.1269e-12
-5.02689e-11
8.58078e-12
-5.70259e-11
9.00082e-12
-6.40637e-11
9.38288e-12
-7.1357e-11
9.73172e-12
-7.88828e-11
1.00499e-11
-8.66163e-11
1.03352e-11
-9.45321e-11
1.05872e-11
-1.0261e-10
1.08057e-11
-1.10826e-10
1.09943e-11
-1.19157e-10
1.11546e-11
-1.2758e-10
1.12819e-11
-1.36073e-10
1.13762e-11
-1.44615e-10
1.14431e-11
-1.5319e-10
1.14852e-11
-1.61777e-10
1.15038e-11
-1.70357e-10
1.14992e-11
-1.78915e-10
1.14697e-11
-1.87435e-10
1.14171e-11
-1.959e-10
1.13442e-11
-2.04294e-10
1.12498e-11
-2.12604e-10
1.11346e-11
-2.20813e-10
1.10024e-11
-2.28911e-10
1.0854e-11
-2.36884e-10
1.06879e-11
-2.44719e-10
1.05033e-11
-2.52405e-10
1.03006e-11
-2.59934e-10
1.00837e-11
-2.67295e-10
9.85739e-12
-2.74477e-10
9.62206e-12
-2.81473e-10
9.37412e-12
-2.88273e-10
9.11219e-12
-2.94868e-10
8.83773e-12
-3.01254e-10
8.55312e-12
-3.07422e-10
8.26013e-12
-3.13366e-10
7.95938e-12
-3.19079e-10
7.65044e-12
-3.24557e-10
7.33337e-12
-3.29792e-10
7.00959e-12
-3.34782e-10
6.68003e-12
-3.39521e-10
6.34399e-12
-3.44005e-10
6.00114e-12
-3.48228e-10
5.65247e-12
-3.52189e-10
5.29884e-12
-3.55884e-10
4.94061e-12
-3.5931e-10
4.57864e-12
-3.62462e-10
4.21349e-12
-3.65339e-10
3.84461e-12
-3.67938e-10
3.47184e-12
-3.70258e-10
3.09609e-12
-3.72297e-10
2.71832e-12
-3.74053e-10
2.33924e-12
-3.75525e-10
1.95949e-12
-3.76712e-10
1.57887e-12
-3.77612e-10
1.19628e-12
-3.78228e-10
8.11475e-13
-3.78558e-10
4.26293e-13
-3.78601e-10
4.24741e-14
-3.78358e-10
-3.40395e-13
-3.77829e-10
-7.23214e-13
-3.77014e-10
-1.10593e-12
-3.75915e-10
-1.48824e-12
-3.74533e-10
-1.86941e-12
-3.72868e-10
-2.24812e-12
-3.7092e-10
-2.62349e-12
-3.68691e-10
-2.99635e-12
-3.66183e-10
-3.36853e-12
-3.63401e-10
-3.74043e-12
-3.60345e-10
-4.11022e-12
-3.57018e-10
-4.47565e-12
-3.53423e-10
-4.83551e-12
-3.49562e-10
-5.18975e-12
-3.45438e-10
-5.5393e-12
-3.41055e-10
-5.88525e-12
-3.36419e-10
-6.22762e-12
-3.31533e-10
-6.56496e-12
-3.26401e-10
-6.89541e-12
-3.21026e-10
-7.21824e-12
-3.15416e-10
-7.53393e-12
-3.09575e-10
-7.84279e-12
-3.03509e-10
-8.14434e-12
-2.97225e-10
-8.4379e-12
-2.90729e-10
-8.72299e-12
-2.84028e-10
-8.99896e-12
-2.77129e-10
-9.26457e-12
-2.70042e-10
-9.51846e-12
-2.62774e-10
-9.7598e-12
-2.55336e-10
-9.98853e-12
-2.47735e-10
-1.02048e-11
-2.39983e-10
-1.04081e-11
-2.32089e-10
-1.05977e-11
-2.24066e-10
-1.07725e-11
-2.15925e-10
-1.09315e-11
-2.07678e-10
-1.10732e-11
-1.99337e-10
-1.11973e-11
-1.90917e-10
-1.13034e-11
-1.82433e-10
-1.13907e-11
-1.73899e-10
-1.14585e-11
-1.6533e-10
-1.15055e-11
-1.56743e-10
-1.15306e-11
-1.48157e-10
-1.15321e-11
-1.39588e-10
-1.15087e-11
-1.31055e-10
-1.14592e-11
-1.22577e-10
-1.13831e-11
-1.14175e-10
-1.12801e-11
-1.05869e-10
-1.11499e-11
-9.76815e-11
-1.09921e-11
-8.96338e-11
-1.08054e-11
-8.17475e-11
-1.05887e-11
-7.40448e-11
-1.03407e-11
-6.65481e-11
-1.0061e-11
-5.92809e-11
-9.7497e-12
-5.22672e-11
-9.40708e-12
-4.55308e-11
-9.03266e-12
-3.90962e-11
-8.62583e-12
-3.29874e-11
-8.18632e-12
-2.72283e-11
-7.71424e-12
-2.18417e-11
-7.21015e-12
-1.68495e-11
-6.67517e-12
-1.22729e-11
-6.11108e-12
-8.13166e-12
-5.52018e-12
-4.44396e-12
-4.90469e-12
-1.22562e-12
-4.26671e-12
1.5101e-12
-3.60938e-12
3.75346e-12
-2.93758e-12
5.49967e-12
-2.25802e-12
6.74931e-12
-1.57885e-12
7.51007e-12
-9.09364e-13
7.79831e-12
-2.61034e-13
7.64068e-12
3.51508e-13
7.07835e-12
9.09589e-13
6.17008e-12
1.38867e-12
4.99682e-12
1.75645e-12
3.66701e-12
1.97077e-12
2.32116e-12
1.97895e-12
1.13551e-12
1.71953e-12
3.08851e-13
1.14179e-12
3.38043e-13
1.70621e-12
-5.81448e-12
5.21389e-12
-1.15289e-12
6.77564e-12
1.28766e-14
7.67292e-12
-1.47543e-13
8.15518e-12
-5.15339e-13
8.33576e-12
-7.25202e-13
8.22517e-12
-6.16078e-13
7.75929e-12
-1.51293e-13
6.85129e-12
6.23208e-13
5.40765e-12
1.62783e-12
3.35402e-12
2.80499e-12
6.3252e-13
4.10126e-12
-2.79903e-12
5.4708e-12
-6.95751e-12
6.88231e-12
-1.1857e-11
8.30814e-12
-1.74924e-11
9.72168e-12
-2.38513e-11
1.11056e-11
-3.09169e-11
1.24484e-11
-3.8666e-11
1.37385e-11
-4.70708e-11
1.49727e-11
-5.60956e-11
1.61483e-11
-6.57095e-11
1.72566e-11
-7.58782e-11
1.82959e-11
-8.65626e-11
1.92672e-11
-9.7726e-11
2.01648e-11
-1.0933e-10
2.09888e-11
-1.21337e-10
2.1741e-11
-1.33711e-10
2.24219e-11
-1.46408e-10
2.30328e-11
-1.59395e-10
2.35733e-11
-1.72634e-10
2.40449e-11
-1.86089e-10
2.44506e-11
-1.99724e-10
2.47892e-11
-2.13504e-10
2.50604e-11
-2.27398e-10
2.52682e-11
-2.41373e-10
2.54166e-11
-2.55398e-10
2.55089e-11
-2.69439e-10
2.55469e-11
-2.83471e-10
2.55302e-11
-2.97464e-10
2.54611e-11
-3.11391e-10
2.53438e-11
-3.25228e-10
2.51796e-11
-3.3895e-10
2.49698e-11
-3.52532e-10
2.47177e-11
-3.65955e-10
2.44254e-11
-3.79196e-10
2.4094e-11
-3.92233e-10
2.37246e-11
-4.05046e-10
2.33175e-11
-4.1762e-10
2.28747e-11
-4.29937e-10
2.24015e-11
-4.41979e-10
2.19022e-11
-4.53733e-10
2.13766e-11
-4.65183e-10
2.08238e-11
-4.76314e-10
2.02442e-11
-4.87115e-10
1.96388e-11
-4.97573e-10
1.9011e-11
-5.07677e-10
1.83641e-11
-5.17415e-10
1.76987e-11
-5.26778e-10
1.70142e-11
-5.35757e-10
1.6312e-11
-5.44341e-10
1.55942e-11
-5.52525e-10
1.48619e-11
-5.60299e-10
1.41163e-11
-5.67656e-10
1.33579e-11
-5.7459e-10
1.25869e-11
-5.81095e-10
1.18038e-11
-5.87165e-10
1.10105e-11
-5.92794e-10
1.02086e-11
-5.97979e-10
9.39862e-12
-6.02715e-10
8.58073e-12
-6.06997e-10
7.75564e-12
-6.10823e-10
6.92408e-12
-6.14189e-10
6.08672e-12
-6.17095e-10
5.24517e-12
-6.19536e-10
4.40083e-12
-6.21511e-10
3.5535e-12
-6.2302e-10
2.70285e-12
-6.24061e-10
1.85007e-12
-6.24633e-10
9.97226e-13
-6.24736e-10
1.45574e-13
-6.24371e-10
-7.05059e-13
-6.23538e-10
-1.55516e-12
-6.22235e-10
-2.4049e-12
-6.20467e-10
-3.25421e-12
-6.18234e-10
-4.10172e-12
-6.15538e-10
-4.94478e-12
-6.12381e-10
-5.78189e-12
-6.08766e-10
-6.61364e-12
-6.04694e-10
-7.44096e-12
-6.0017e-10
-8.26353e-12
-5.95198e-10
-9.08004e-12
-5.89782e-10
-9.88906e-12
-5.83928e-10
-1.06892e-11
-5.77638e-10
-1.14793e-11
-5.70918e-10
-1.22589e-11
-5.63775e-10
-1.30282e-11
-5.56216e-10
-1.37869e-11
-5.48247e-10
-1.45334e-11
-5.39875e-10
-1.52663e-11
-5.31109e-10
-1.59847e-11
-5.21956e-10
-1.66874e-11
-5.12426e-10
-1.73734e-11
-5.02527e-10
-1.8042e-11
-4.92272e-10
-1.86925e-11
-4.81673e-10
-1.93237e-11
-4.70739e-10
-1.99337e-11
-4.59483e-10
-2.05202e-11
-4.47918e-10
-2.10821e-11
-4.3606e-10
-2.16181e-11
-4.23921e-10
-2.2127e-11
-4.11518e-10
-2.26076e-11
-3.98867e-10
-2.30589e-11
-3.85987e-10
-2.3479e-11
-3.72895e-10
-2.38655e-11
-3.5961e-10
-2.42165e-11
-3.46152e-10
-2.45304e-11
-3.32542e-10
-2.48061e-11
-3.18805e-10
-2.50419e-11
-3.04962e-10
-2.52352e-11
-2.91039e-10
-2.5383e-11
-2.7706e-10
-2.54836e-11
-2.63053e-10
-2.55358e-11
-2.49046e-10
-2.55379e-11
-2.35066e-10
-2.54872e-11
-2.21146e-10
-2.53807e-11
-2.07315e-10
-2.52158e-11
-1.93605e-10
-2.49908e-11
-1.80049e-10
-2.4705e-11
-1.66681e-10
-2.43577e-11
-1.53536e-10
-2.39477e-11
-1.40651e-10
-2.34731e-11
-1.28061e-10
-2.29315e-11
-1.15802e-10
-2.23213e-11
-1.03911e-10
-2.16417e-11
-9.24265e-11
-2.08927e-11
-8.13854e-11
-2.0074e-11
-7.08254e-11
-1.91855e-11
-6.07839e-11
-1.82274e-11
-5.12981e-11
-1.72004e-11
-4.24041e-11
-1.61058e-11
-3.41352e-11
-1.49457e-11
-2.65232e-11
-1.37238e-11
-1.95982e-11
-1.24448e-11
-1.33875e-11
-1.11144e-11
-7.91411e-12
-9.73927e-12
-3.19595e-12
-8.32713e-12
7.54681e-13
-6.8881e-12
3.93238e-12
-5.4356e-12
6.34007e-12
-3.9865e-12
7.99228e-12
-2.56123e-12
8.91731e-12
-1.1849e-12
9.15842e-12
1.11564e-13
8.77851e-12
1.29011e-12
7.86462e-12
2.30231e-12
6.53204e-12
3.08796e-12
4.92923e-12
3.57281e-12
3.23991e-12
3.66796e-12
1.68466e-12
3.27431e-12
5.15473e-13
2.31019e-12
8.53059e-13
1.60778e-12
-7.41786e-12
4.76916e-12
-4.31455e-12
7.2321e-12
-2.45102e-12
8.94339e-12
-1.85556e-12
9.94511e-12
-1.51831e-12
1.02831e-11
-1.06218e-12
9.9721e-12
-3.06072e-13
8.99205e-12
8.28563e-13
7.28506e-12
2.329e-12
4.7812e-12
4.13201e-12
1.41725e-12
6.17074e-12
-2.85825e-12
8.37679e-12
-8.07761e-12
1.06911e-11
-1.42637e-11
1.30661e-11
-2.14183e-11
1.54629e-11
-2.95395e-11
1.78437e-11
-3.86169e-11
2.01837e-11
-4.86259e-11
2.24592e-11
-5.95407e-11
2.46516e-11
-7.13208e-11
2.67524e-11
-8.3924e-11
2.87512e-11
-9.73081e-11
3.06396e-11
-1.11426e-10
3.24145e-11
-1.26231e-10
3.40708e-11
-1.41672e-10
3.56054e-11
-1.57701e-10
3.70178e-11
-1.74268e-10
3.83076e-11
-1.91321e-10
3.94759e-11
-2.0881e-10
4.05218e-11
-2.26685e-10
4.14468e-11
-2.44896e-10
4.22562e-11
-2.63395e-10
4.29506e-11
-2.82135e-10
4.35296e-11
-3.0107e-10
4.39967e-11
-3.20156e-10
4.43554e-11
-3.39351e-10
4.46107e-11
-3.5861e-10
4.47679e-11
-3.77892e-10
4.48289e-11
-3.97158e-10
4.47968e-11
-4.16372e-10
4.46765e-11
-4.35498e-10
4.44704e-11
-4.54499e-10
4.41803e-11
-4.73341e-10
4.38109e-11
-4.9199e-10
4.33675e-11
-5.10419e-10
4.28538e-11
-5.28599e-10
4.22736e-11
-5.46502e-10
4.16284e-11
-5.64105e-10
4.09185e-11
-5.8138e-10
4.01484e-11
-5.98302e-10
3.9324e-11
-6.14849e-10
3.84491e-11
-6.30999e-10
3.7526e-11
-6.4673e-10
3.65565e-11
-6.62028e-10
3.55424e-11
-6.76875e-10
3.44856e-11
-6.91253e-10
3.33897e-11
-7.05147e-10
3.22576e-11
-7.18539e-10
3.10906e-11
-7.31415e-10
2.98909e-11
-7.43764e-10
2.86616e-11
-7.55573e-10
2.74049e-11
-7.66833e-10
2.61219e-11
-7.77531e-10
2.48145e-11
-7.87657e-10
2.3484e-11
-7.97203e-10
2.21316e-11
-8.06159e-10
2.07593e-11
-8.14517e-10
1.93698e-11
-8.22272e-10
1.79641e-11
-8.29417e-10
1.65429e-11
-8.35945e-10
1.5108e-11
-8.41851e-10
1.36611e-11
-8.47131e-10
1.22035e-11
-8.51781e-10
1.07364e-11
-8.55796e-10
9.26161e-12
-8.59173e-10
7.7803e-12
-8.61911e-10
6.29269e-12
-8.64008e-10
4.79992e-12
-8.65461e-10
3.30409e-12
-8.6627e-10
1.80672e-12
-8.66435e-10
3.09141e-13
-8.65955e-10
-1.18718e-12
-8.6483e-10
-2.68129e-12
-8.63062e-10
-4.17311e-12
-8.60653e-10
-5.66256e-12
-8.57604e-10
-7.14841e-12
-8.53918e-10
-8.62833e-12
-8.49598e-10
-1.01006e-11
-8.44648e-10
-1.15643e-11
-8.39071e-10
-1.30185e-11
-8.32873e-10
-1.44623e-11
-8.26058e-10
-1.58946e-11
-8.18633e-10
-1.7314e-11
-8.10602e-10
-1.87183e-11
-8.01974e-10
-2.01058e-11
-7.92757e-10
-2.14756e-11
-7.82958e-10
-2.28272e-11
-7.72586e-10
-2.41591e-11
-7.6165e-10
-2.54691e-11
-7.50161e-10
-2.67554e-11
-7.38129e-10
-2.80162e-11
-7.25568e-10
-2.92493e-11
-7.12488e-10
-3.04528e-11
-6.98904e-10
-3.16254e-11
-6.84831e-10
-3.27657e-11
-6.70283e-10
-3.38715e-11
-6.55277e-10
-3.49398e-11
-6.3983e-10
-3.59677e-11
-6.23959e-10
-3.69528e-11
-6.07685e-10
-3.78927e-11
-5.91027e-10
-3.87849e-11
-5.74007e-10
-3.96272e-11
-5.56647e-10
-4.04176e-11
-5.38973e-10
-4.11533e-11
-5.21009e-10
-4.18306e-11
-5.0278e-10
-4.24457e-11
-4.84316e-10
-4.29955e-11
-4.65645e-10
-4.34774e-11
-4.46797e-10
-4.38886e-11
-4.27806e-10
-4.42257e-11
-4.08705e-10
-4.44847e-11
-3.89528e-10
-4.46616e-11
-3.70312e-10
-4.47527e-11
-3.51094e-10
-4.4755e-11
-3.31914e-10
-4.46654e-11
-3.12813e-10
-4.44805e-11
-2.93832e-10
-4.41965e-11
-2.75015e-10
-4.38095e-11
-2.56404e-10
-4.33163e-11
-2.38047e-10
-4.27147e-11
-2.19991e-10
-4.2003e-11
-2.02284e-10
-4.11792e-11
-1.84974e-10
-4.02406e-11
-1.6811e-10
-3.91851e-11
-1.51741e-10
-3.80107e-11
-1.35919e-10
-3.67165e-11
-1.20693e-10
-3.5302e-11
-1.06112e-10
-3.37673e-11
-9.22257e-11
-3.21137e-11
-7.9082e-11
-3.03437e-11
-6.67275e-11
-2.84606e-11
-5.52059e-11
-2.64681e-11
-4.45586e-11
-2.4372e-11
-3.4824e-11
-2.21801e-11
-2.60366e-11
-1.99023e-11
-1.82247e-11
-1.7551e-11
-1.141e-11
-1.51409e-11
-5.60656e-12
-1.26905e-11
-8.18692e-13
-1.02225e-11
2.95988e-12
-7.76493e-12
5.74939e-12
-5.35131e-12
7.58739e-12
-3.02275e-12
8.52984e-12
-8.30197e-13
8.65603e-12
1.16452e-12
8.07276e-12
2.88593e-12
6.91744e-12
4.24291e-12
5.36222e-12
5.12724e-12
3.61725e-12
5.41232e-12
1.93431e-12
4.95664e-12
6.10866e-13
3.63288e-12
1.46353e-12
1.06346e-12
-8.48151e-12
3.88542e-12
-7.13653e-12
6.54164e-12
-5.10709e-12
8.51465e-12
-3.83054e-12
9.65956e-12
-2.66167e-12
9.9059e-12
-1.30924e-12
9.22669e-12
3.75119e-13
7.59178e-12
2.46405e-12
4.96164e-12
4.95889e-12
1.27871e-12
7.81393e-12
-3.50337e-12
1.09518e-11
-9.42789e-12
1.43033e-11
-1.65295e-11
1.77926e-11
-2.48194e-11
2.13567e-11
-3.43001e-11
2.49429e-11
-4.4963e-11
2.85052e-11
-5.67854e-11
3.20075e-11
-6.97433e-11
3.54172e-11
-8.38021e-11
3.87113e-11
-9.89176e-11
4.18685e-11
-1.15042e-10
4.48746e-11
-1.32121e-10
4.77199e-11
-1.501e-10
5.03941e-11
-1.6892e-10
5.28907e-11
-1.88521e-10
5.52068e-11
-2.08844e-10
5.73397e-11
-2.29826e-10
5.92897e-11
-2.51404e-10
6.10555e-11
-2.7352e-10
6.26369e-11
-2.9611e-10
6.40379e-11
-3.19117e-10
6.52617e-11
-3.42478e-10
6.63097e-11
-3.66134e-10
6.71857e-11
-3.90031e-10
6.78937e-11
-4.14114e-10
6.84385e-11
-4.38329e-10
6.88262e-11
-4.62622e-10
6.90611e-11
-4.86943e-10
6.91479e-11
-5.11241e-10
6.90944e-11
-5.3547e-10
6.89067e-11
-5.59588e-10
6.85876e-11
-5.83549e-10
6.81414e-11
-6.07311e-10
6.75737e-11
-6.30835e-10
6.68907e-11
-6.54081e-10
6.60995e-11
-6.77011e-10
6.52049e-11
-6.99592e-10
6.42098e-11
-7.21793e-10
6.31187e-11
-7.43582e-10
6.19381e-11
-7.64931e-10
6.0673e-11
-7.8581e-10
5.93273e-11
-8.06189e-10
5.79053e-11
-8.26043e-10
5.64111e-11
-8.45349e-10
5.48488e-11
-8.64086e-10
5.3223e-11
-8.82233e-10
5.15375e-11
-8.9977e-10
4.97947e-11
-9.16678e-10
4.79971e-11
-9.32936e-10
4.61493e-11
-9.4853e-10
4.42554e-11
-9.63445e-10
4.23187e-11
-9.77665e-10
4.0342e-11
-9.91177e-10
3.83272e-11
-1.00397e-09
3.62759e-11
-1.01603e-09
3.41909e-11
-1.02734e-09
3.20761e-11
-1.03791e-09
2.99345e-11
-1.04771e-09
2.77673e-11
-1.05674e-09
2.55761e-11
-1.065e-09
2.33633e-11
-1.07247e-09
2.11314e-11
-1.07915e-09
1.88828e-11
-1.08503e-09
1.66205e-11
-1.09012e-09
1.43461e-11
-1.0944e-09
1.20606e-11
-1.09787e-09
9.76524e-12
-1.10053e-09
7.46276e-12
-1.10238e-09
5.15587e-12
-1.10342e-09
2.84601e-12
-1.10365e-09
5.34606e-13
-1.10306e-09
-1.77632e-12
-1.10165e-09
-4.08523e-12
-1.09944e-09
-6.39071e-12
-1.09641e-09
-8.69068e-12
-1.09258e-09
-1.0983e-11
-1.08794e-09
-1.32661e-11
-1.0825e-09
-1.55386e-11
-1.07626e-09
-1.77987e-11
-1.06924e-09
-2.00443e-11
-1.06142e-09
-2.22733e-11
-1.05283e-09
-2.44842e-11
-1.04347e-09
-2.66746e-11
-1.03335e-09
-2.88416e-11
-1.02247e-09
-3.09833e-11
-1.01085e-09
-3.30982e-11
-9.98491e-10
-3.51842e-11
-9.85411e-10
-3.7239e-11
-9.7162e-10
-3.926e-11
-9.57131e-10
-4.12444e-11
-9.41958e-10
-4.31892e-11
-9.26116e-10
-4.50912e-11
-9.09621e-10
-4.69476e-11
-8.92491e-10
-4.8756e-11
-8.74744e-10
-5.05136e-11
-8.56398e-10
-5.22171e-11
-8.37474e-10
-5.38626e-11
-8.17995e-10
-5.54463e-11
-7.97984e-10
-5.69645e-11
-7.77463e-10
-5.84133e-11
-7.56459e-10
-5.97887e-11
-7.34999e-10
-6.10869e-11
-7.13113e-10
-6.23043e-11
-6.9083e-10
-6.34366e-11
-6.68182e-10
-6.44788e-11
-6.45202e-10
-6.54261e-11
-6.21925e-10
-6.62733e-11
-5.98388e-10
-6.70154e-11
-5.7463e-10
-6.76473e-11
-5.50689e-10
-6.81647e-11
-5.26609e-10
-6.85629e-11
-5.02434e-10
-6.88364e-11
-4.78209e-10
-6.89792e-11
-4.5398e-10
-6.89852e-11
-4.29796e-10
-6.88495e-11
-4.05708e-10
-6.85676e-11
-3.81769e-10
-6.81347e-11
-3.58031e-10
-6.7546e-11
-3.3455e-10
-6.67967e-11
-3.11382e-10
-6.58826e-11
-2.88586e-10
-6.47999e-11
-2.6622e-10
-6.35453e-11
-2.44345e-10
-6.21158e-11
-2.23021e-10
-6.05088e-11
-2.02309e-10
-5.87225e-11
-1.82271e-10
-5.67555e-11
-1.62966e-10
-5.46072e-11
-1.44456e-10
-5.22782e-11
-1.268e-10
-4.97707e-11
-1.10056e-10
-4.70885e-11
-9.428e-11
-4.42372e-11
-7.95241e-11
-4.12241e-11
-6.58377e-11
-3.80582e-11
-5.3266e-11
-3.47518e-11
-4.1849e-11
-3.132e-11
-3.16192e-11
-2.7781e-11
-2.26015e-11
-2.41582e-11
-1.48115e-11
-2.04798e-11
-8.25319e-12
-1.67801e-11
-2.91684e-12
-1.31006e-11
1.2226e-12
-9.49067e-12
4.20959e-12
-6.00971e-12
6.1094e-12
-2.72986e-12
7.0119e-12
2.61823e-13
7.03619e-12
2.86143e-12
6.33321e-12
4.94564e-12
5.08952e-12
6.37053e-12
3.5316e-12
6.96974e-12
1.93255e-12
6.55513e-12
6.21489e-13
4.94327e-12
2.08465e-12
6.53813e-13
-9.13478e-12
2.91772e-12
-9.40125e-12
5.28258e-12
-7.47107e-12
7.05853e-12
-5.6059e-12
7.95416e-12
-3.55846e-12
7.80828e-12
-1.16197e-12
6.52501e-12
1.65716e-12
4.0531e-12
4.93684e-12
3.39046e-13
8.67442e-12
-4.65915e-12
1.28114e-11
-1.09838e-11
1.72766e-11
-1.86687e-11
2.19871e-11
-2.77361e-11
2.68612e-11
-3.81999e-11
3.18215e-11
-5.00582e-11
3.68005e-11
-6.32966e-11
4.17439e-11
-7.78888e-11
4.65988e-11
-9.38009e-11
5.13295e-11
-1.10991e-10
5.59019e-11
-1.2941e-10
6.02871e-11
-1.49003e-10
6.44677e-11
-1.6971e-10
6.84267e-11
-1.91466e-10
7.21498e-11
-2.14204e-10
7.56292e-11
-2.37855e-10
7.88585e-11
-2.62351e-10
8.18347e-11
-2.87616e-10
8.45554e-11
-3.1358e-10
8.7019e-11
-3.40171e-10
8.92286e-11
-3.67319e-10
9.11869e-11
-3.94953e-10
9.28957e-11
-4.23003e-10
9.43593e-11
-4.51399e-10
9.55825e-11
-4.80078e-10
9.65712e-11
-5.08973e-10
9.73332e-11
-5.38019e-10
9.78739e-11
-5.67157e-10
9.81985e-11
-5.96325e-10
9.8316e-11
-6.25466e-10
9.82354e-11
-6.54523e-10
9.7963e-11
-6.83441e-10
9.75055e-11
-7.12169e-10
9.68703e-11
-7.4066e-10
9.60645e-11
-7.68867e-10
9.50967e-11
-7.96742e-10
9.39749e-11
-8.24242e-10
9.27043e-11
-8.51324e-10
9.12912e-11
-8.77949e-10
8.97438e-11
-9.0408e-10
8.80701e-11
-9.29684e-10
8.62762e-11
-9.54724e-10
8.43679e-11
-9.79169e-10
8.23507e-11
-1.00299e-09
8.02299e-11
-1.02615e-09
7.80124e-11
-1.04863e-09
7.57049e-11
-1.07041e-09
7.33119e-11
-1.09145e-09
7.0837e-11
-1.11174e-09
6.82853e-11
-1.13125e-09
6.5662e-11
-1.14997e-09
6.29722e-11
-1.16787e-09
6.0221e-11
-1.18494e-09
5.74123e-11
-1.20116e-09
5.45487e-11
-1.21652e-09
5.16336e-11
-1.231e-09
4.86713e-11
-1.24459e-09
4.56663e-11
-1.25728e-09
4.26219e-11
-1.26905e-09
3.95411e-11
-1.2799e-09
3.64267e-11
-1.28982e-09
3.32816e-11
-1.2988e-09
3.01087e-11
-1.30683e-09
2.69121e-11
-1.3139e-09
2.36955e-11
-1.32001e-09
2.04609e-11
-1.32516e-09
1.72101e-11
-1.32935e-09
1.39456e-11
-1.33255e-09
1.06709e-11
-1.33479e-09
7.38925e-12
-1.33604e-09
4.10347e-12
-1.33632e-09
8.15927e-13
-1.33563e-09
-2.47137e-12
-1.33396e-09
-5.75695e-12
-1.33131e-09
-9.03841e-12
-1.32769e-09
-1.23119e-11
-1.3231e-09
-1.5574e-11
-1.31754e-09
-1.88226e-11
-1.31102e-09
-2.20557e-11
-1.30355e-09
-2.52709e-11
-1.29513e-09
-2.84658e-11
-1.28576e-09
-3.16374e-11
-1.27546e-09
-3.47828e-11
-1.26424e-09
-3.78985e-11
-1.2521e-09
-4.09812e-11
-1.23905e-09
-4.40282e-11
-1.22512e-09
-4.7037e-11
-1.2103e-09
-5.00042e-11
-1.19461e-09
-5.29262e-11
-1.17807e-09
-5.57998e-11
-1.16069e-09
-5.8621e-11
-1.14249e-09
-6.13855e-11
-1.1235e-09
-6.40893e-11
-1.10371e-09
-6.67285e-11
-1.08317e-09
-6.92993e-11
-1.06189e-09
-7.17972e-11
-1.03989e-09
-7.42172e-11
-1.0172e-09
-7.65546e-11
-9.93838e-10
-7.88042e-11
-9.69842e-10
-8.09604e-11
-9.45237e-10
-8.3018e-11
-9.20054e-10
-8.49718e-11
-8.94324e-10
-8.68163e-11
-8.68084e-10
-8.85455e-11
-8.41368e-10
-9.01528e-11
-8.14215e-10
-9.16317e-11
-7.86666e-10
-9.29759e-11
-7.58761e-10
-9.41787e-11
-7.30544e-10
-9.52328e-11
-7.02061e-10
-9.61306e-11
-6.7336e-10
-9.68656e-11
-6.44491e-10
-9.74312e-11
-6.15506e-10
-9.78205e-11
-5.86458e-10
-9.80258e-11
-5.57405e-10
-9.80392e-11
-5.28403e-10
-9.78528e-11
-4.99511e-10
-9.74598e-11
-4.70792e-10
-9.68535e-11
-4.42309e-10
-9.60279e-11
-4.14127e-10
-9.49771e-11
-3.86313e-10
-9.36957e-11
-3.58935e-10
-9.2178e-11
-3.32062e-10
-9.04189e-11
-3.05764e-10
-8.84144e-11
-2.80113e-10
-8.61611e-11
-2.55179e-10
-8.3657e-11
-2.31033e-10
-8.0901e-11
-2.07747e-10
-7.7893e-11
-1.8539e-10
-7.4635e-11
-1.64032e-10
-7.11302e-11
-1.43737e-10
-6.7384e-11
-1.24571e-10
-6.34043e-11
-1.06594e-10
-5.92019e-11
-8.98613e-11
-5.47907e-11
-7.44248e-11
-5.01881e-11
-6.03284e-11
-4.5416e-11
-4.76086e-11
-4.05005e-11
-3.62927e-11
-3.54736e-11
-2.63976e-11
-3.03747e-11
-1.79271e-11
-2.52508e-11
-1.08695e-11
-2.01578e-11
-5.1964e-12
-1.51631e-11
-8.59302e-13
-1.03462e-11
2.21285e-12
-5.80187e-12
4.11665e-12
-1.64249e-12
4.97828e-12
1.99931e-12
4.95572e-12
4.96787e-12
4.24297e-12
7.08296e-12
3.07514e-12
8.13711e-12
1.73664e-12
7.89311e-12
5.7189e-13
6.10752e-12
2.65626e-12
3.53969e-13
-9.48789e-12
1.97901e-12
-1.10267e-11
3.76289e-12
-9.25312e-12
5.00025e-12
-6.84362e-12
5.31515e-12
-3.87135e-12
4.48008e-12
-3.27922e-13
2.35197e-12
3.78494e-12
-1.16002e-12
8.44931e-12
-6.11706e-12
1.36315e-11
-1.25705e-11
1.92669e-11
-2.05602e-11
2.52653e-11
-3.01098e-11
3.15366e-11
-4.12376e-11
3.7989e-11
-5.39488e-11
4.45329e-11
-6.82369e-11
5.10904e-11
-8.40855e-11
5.75921e-11
-1.01464e-10
6.39772e-11
-1.20332e-10
7.01977e-11
-1.40641e-10
7.62106e-11
-1.62336e-10
8.19825e-11
-1.85354e-10
8.74867e-11
-2.09629e-10
9.2701e-11
-2.35088e-10
9.76087e-11
-2.61657e-10
1.02197e-10
-2.89258e-10
1.0646e-10
-3.17813e-10
1.1039e-10
-3.4724e-10
1.13982e-10
-3.77458e-10
1.17237e-10
-4.08388e-10
1.20158e-10
-4.39947e-10
1.22746e-10
-4.72055e-10
1.25004e-10
-5.04634e-10
1.26939e-10
-5.37607e-10
1.28555e-10
-5.70898e-10
1.29862e-10
-6.04432e-10
1.30867e-10
-6.38135e-10
1.31577e-10
-6.71939e-10
1.32002e-10
-7.05774e-10
1.32152e-10
-7.39576e-10
1.32037e-10
-7.73278e-10
1.31665e-10
-8.06819e-10
1.31046e-10
-8.40138e-10
1.3019e-10
-8.73181e-10
1.29107e-10
-9.05891e-10
1.27808e-10
-9.38218e-10
1.26302e-10
-9.7011e-10
1.24596e-10
-1.00152e-09
1.22701e-10
-1.0324e-09
1.20626e-10
-1.06271e-09
1.18381e-10
-1.09241e-09
1.15974e-10
-1.12146e-09
1.13413e-10
-1.14981e-09
1.10706e-10
-1.17744e-09
1.07861e-10
-1.20432e-09
1.04886e-10
-1.2304e-09
1.0179e-10
-1.25567e-09
9.85764e-11
-1.28008e-09
9.52534e-11
-1.30363e-09
9.18277e-11
-1.32627e-09
8.83059e-11
-1.34799e-09
8.46946e-11
-1.36877e-09
8.09997e-11
-1.38859e-09
7.72263e-11
-1.40742e-09
7.33786e-11
-1.42524e-09
6.94623e-11
-1.44205e-09
6.54833e-11
-1.45783e-09
6.14459e-11
-1.47257e-09
5.73545e-11
-1.48624e-09
5.32137e-11
-1.49884e-09
4.90277e-11
-1.51036e-09
4.48005e-11
-1.52079e-09
4.05364e-11
-1.53012e-09
3.62404e-11
-1.53834e-09
3.19165e-11
-1.54544e-09
2.75675e-11
-1.55143e-09
2.31967e-11
-1.55629e-09
1.88081e-11
-1.56002e-09
1.44053e-11
-1.56263e-09
9.99212e-12
-1.5641e-09
5.5729e-12
-1.56443e-09
1.15115e-12
-1.56363e-09
-3.27048e-12
-1.5617e-09
-7.68946e-12
-1.55864e-09
-1.21023e-11
-1.55444e-09
-1.65046e-11
-1.54912e-09
-2.08924e-11
-1.54268e-09
-2.52624e-11
-1.53513e-09
-2.96112e-11
-1.52646e-09
-3.39355e-11
-1.5167e-09
-3.82323e-11
-1.50584e-09
-4.24977e-11
-1.49389e-09
-4.67274e-11
-1.48087e-09
-5.09169e-11
-1.46679e-09
-5.50623e-11
-1.45166e-09
-5.91599e-11
-1.43549e-09
-6.32057e-11
-1.4183e-09
-6.71951e-11
-1.4001e-09
-7.11235e-11
-1.38091e-09
-7.49863e-11
-1.36076e-09
-7.8778e-11
-1.33965e-09
-8.2493e-11
-1.31761e-09
-8.61263e-11
-1.29467e-09
-8.96729e-11
-1.27084e-09
-9.31271e-11
-1.24615e-09
-9.64829e-11
-1.22064e-09
-9.97338e-11
-1.19432e-09
-1.02873e-10
-1.16723e-09
-1.05895e-10
-1.1394e-09
-1.0879e-10
-1.11086e-09
-1.11553e-10
-1.08166e-09
-1.14177e-10
-1.05182e-09
-1.16654e-10
-1.02139e-09
-1.18976e-10
-9.9041e-10
-1.21134e-10
-9.58923e-10
-1.23119e-10
-9.26975e-10
-1.24923e-10
-8.94616e-10
-1.26538e-10
-8.61895e-10
-1.27953e-10
-8.28865e-10
-1.2916e-10
-7.95581e-10
-1.3015e-10
-7.62101e-10
-1.30912e-10
-7.28483e-10
-1.31438e-10
-6.94791e-10
-1.31718e-10
-6.61087e-10
-1.31742e-10
-6.27439e-10
-1.315e-10
-5.93915e-10
-1.30984e-10
-5.60584e-10
-1.30184e-10
-5.2752e-10
-1.29092e-10
-4.94795e-10
-1.27701e-10
-4.62488e-10
-1.26003e-10
-4.30674e-10
-1.23991e-10
-3.99433e-10
-1.2166e-10
-3.68843e-10
-1.19004e-10
-3.38986e-10
-1.16019e-10
-3.09941e-10
-1.12703e-10
-2.81788e-10
-1.09054e-10
-2.54608e-10
-1.05073e-10
-2.28478e-10
-1.00764e-10
-2.03477e-10
-9.61322e-11
-1.79676e-10
-9.11846e-11
-1.57149e-10
-8.59323e-11
-1.35961e-10
-8.039e-11
-1.16176e-10
-7.45766e-11
-9.78481e-11
-6.85158e-11
-8.10272e-11
-6.22366e-11
-6.57528e-11
-5.57742e-11
-5.20547e-11
-4.9171e-11
-3.99511e-11
-4.24782e-11
-2.94459e-11
-3.57562e-11
-2.05269e-11
-2.90769e-11
-1.31641e-11
-2.25255e-11
-7.30716e-12
-1.62026e-11
-2.88236e-12
-1.02265e-11
2.09823e-13
-4.73517e-12
2.09852e-12
1.10194e-13
2.94418e-12
4.12206e-12
2.94274e-12
7.08418e-12
2.3311e-12
8.74821e-12
1.39529e-12
8.82831e-12
4.80058e-13
7.02231e-12
3.13609e-12
1.1616e-13
-9.60475e-12
1.1016e-12
-1.20111e-11
2.15e-12
-1.03027e-11
2.61578e-12
-7.3095e-12
2.09382e-12
-3.34884e-12
3.19931e-13
1.4471e-12
-2.87845e-12
6.98422e-12
-7.62353e-12
1.31917e-11
-1.39891e-11
1.99982e-11
-2.20356e-11
2.73132e-11
-3.18023e-11
3.50332e-11
-4.33153e-11
4.30496e-11
-5.65865e-11
5.12591e-11
-7.16139e-11
5.95608e-11
-8.83874e-11
6.7864e-11
-1.06882e-10
7.60875e-11
-1.27066e-10
8.41615e-11
-1.48893e-10
9.20242e-11
-1.72309e-10
9.96268e-11
-1.97254e-10
1.06928e-10
-2.23658e-10
1.13891e-10
-2.51447e-10
1.20491e-10
-2.80544e-10
1.26705e-10
-3.10866e-10
1.32519e-10
-3.42327e-10
1.37921e-10
-3.7484e-10
1.42903e-10
-4.08317e-10
1.4746e-10
-4.42669e-10
1.51591e-10
-4.77809e-10
1.55297e-10
-5.13643e-10
1.5858e-10
-5.50084e-10
1.61446e-10
-5.87046e-10
1.639e-10
-6.24442e-10
1.65951e-10
-6.62187e-10
1.67608e-10
-7.002e-10
1.68879e-10
-7.38398e-10
1.69774e-10
-7.76702e-10
1.70306e-10
-8.15037e-10
1.70487e-10
-8.53329e-10
1.70329e-10
-8.91505e-10
1.69842e-10
-9.29497e-10
1.69038e-10
-9.67239e-10
1.6793e-10
-1.00466e-09
1.66533e-10
-1.04171e-09
1.64857e-10
-1.07833e-09
1.62915e-10
-1.11445e-09
1.60716e-10
-1.15002e-09
1.58276e-10
-1.185e-09
1.55604e-10
-1.21933e-09
1.52713e-10
-1.25297e-09