/*--------------------------------*- C++ -*----------------------------------*\
  =========                 |
  \\      /  F ield         | OpenFOAM: The Open Source CFD Toolbox
   \\    /   O peration     | Website:  https://openfoam.org
    \\  /    A nd           | Version:  7
     \\/     M anipulation  |
\*---------------------------------------------------------------------------*/
FoamFile
{
    version     2.0;
    format      ascii;
    class       volScalarField;
    location    "0.2625";
    object      p;
}
// * * * * * * * * * * * * * * * * * * * * * * * * * * * * * * * * * * * * * //

dimensions      [0 2 -2 0 0 0 0];

internalField   nonuniform List<scalar> 
51200
(
-1.98695e-06
-5.19506e-06
-5.97538e-06
-4.20169e-06
-2.4275e-07
5.31339e-06
1.21672e-05
1.99716e-05
2.84467e-05
3.73736e-05
4.65601e-05
5.58148e-05
6.49714e-05
7.39179e-05
8.25094e-05
9.06236e-05
9.82338e-05
0.000105225
0.000111518
0.000117081
0.000121869
0.000125818
0.000128912
0.000131123
0.000132425
0.000132781
0.000132204
0.000130695
0.000128227
0.000124793
0.000120399
0.000115042
0.000108725
0.000101447
9.32266e-05
8.40795e-05
7.40083e-05
6.30156e-05
5.11099e-05
3.83138e-05
2.46494e-05
1.01285e-05
-5.22862e-06
-2.14132e-05
-3.83973e-05
-5.61677e-05
-7.47052e-05
-9.39925e-05
-0.000114004
-0.00013471
-0.000156094
-0.000178144
-0.000200843
-0.00022416
-0.000248067
-0.000272531
-0.000297534
-0.00032307
-0.000349124
-0.000375672
-0.000402682
-0.000430121
-0.000457963
-0.00048619
-0.000514786
-0.000543728
-0.00057299
-0.000602549
-0.000632388
-0.000662485
-0.000692819
-0.000723365
-0.0007541
-0.000784994
-0.000816026
-0.000847173
-0.00087842
-0.000909749
-0.000941137
-0.000972555
-0.00100398
-0.00103539
-0.00106677
-0.00109809
-0.00112933
-0.00116048
-0.0011915
-0.00122237
-0.00125307
-0.00128357
-0.00131387
-0.00134392
-0.00137373
-0.00140324
-0.00143246
-0.00146134
-0.00148988
-0.00151805
-0.00154582
-0.00157317
-0.00160009
-0.00162654
-0.0016525
-0.00167795
-0.00170286
-0.00172722
-0.00175101
-0.00177419
-0.00179675
-0.00181867
-0.00183992
-0.00186048
-0.00188034
-0.00189947
-0.00191785
-0.00193546
-0.00195227
-0.00196826
-0.00198343
-0.00199776
-0.00201123
-0.00202382
-0.00203551
-0.0020463
-0.00205617
-0.0020651
-0.00207309
-0.00208012
-0.00208619
-0.00209129
-0.00209543
-0.00209861
-0.00210082
-0.00210207
-0.00210236
-0.00210171
-0.00210012
-0.00209762
-0.00209422
-0.00208997
-0.0020849
-0.00207904
-0.00207244
-0.00206515
-0.00205724
-0.00204877
-0.00203984
-0.00203053
-0.00202098
-0.00201129
-0.00200163
-0.00199217
-0.0019831
-0.00197467
-0.00196711
-0.00196073
-0.0019558
-0.00195263
-0.00195145
-0.00195199
-3.88592e-06
-5.70206e-06
-5.82921e-06
-4.08188e-06
-7.03035e-07
4.01417e-06
9.87732e-06
1.66113e-05
2.3951e-05
3.17762e-05
3.9849e-05
4.79841e-05
5.61019e-05
6.40211e-05
7.16418e-05
7.88944e-05
8.56434e-05
9.18237e-05
9.74067e-05
0.000102314
0.000106477
0.00010987
0.000112461
0.000114223
0.000115125
0.000115146
0.000114276
0.000112499
0.000109798
0.000106187
0.000101679
9.62435e-05
8.98681e-05
8.25711e-05
7.43648e-05
6.5257e-05
5.52563e-05
4.43712e-05
3.26153e-05
2.00005e-05
6.53618e-06
-7.76811e-06
-2.28938e-05
-3.88159e-05
-5.55114e-05
-7.29712e-05
-9.11899e-05
-0.000110143
-0.000129798
-0.000150134
-0.000171132
-0.00019278
-0.000215058
-0.000237945
-0.000261419
-0.00028545
-0.000310008
-0.000335081
-0.000360651
-0.000386698
-0.0004132
-0.000440131
-0.000467473
-0.000495202
-0.000523287
-0.000551704
-0.000580433
-0.000609456
-0.000638759
-0.000668319
-0.000698111
-0.000728109
-0.000758291
-0.000788635
-0.00081912
-0.000849724
-0.000880423
-0.000911193
-0.000942015
-0.000972867
-0.00100373
-0.00103458
-0.00106541
-0.00109619
-0.00112688
-0.00115746
-0.00118791
-0.00121822
-0.00124837
-0.00127834
-0.00130809
-0.00133761
-0.00136687
-0.00139585
-0.00142453
-0.00145289
-0.00148091
-0.00150858
-0.00153584
-0.00156269
-0.0015891
-0.00161505
-0.00164053
-0.0016655
-0.00168995
-0.00171387
-0.00173722
-0.00175998
-0.00178213
-0.00180365
-0.0018245
-0.00184468
-0.00186417
-0.00188296
-0.00190101
-0.00191832
-0.00193486
-0.0019506
-0.00196553
-0.00197963
-0.00199289
-0.00200531
-0.00201687
-0.00202755
-0.00203733
-0.00204622
-0.00205419
-0.00206124
-0.00206736
-0.00207256
-0.00207684
-0.00208018
-0.00208261
-0.00208412
-0.00208472
-0.00208442
-0.00208324
-0.00208119
-0.0020783
-0.0020746
-0.00207014
-0.00206495
-0.00205907
-0.00205257
-0.0020455
-0.00203794
-0.00202996
-0.00202166
-0.00201315
-0.00200457
-0.00199604
-0.00198771
-0.00197977
-0.00197242
-0.00196586
-0.00196032
-0.00195602
-0.00195316
-0.00195199
-0.00195254
-6.75995e-06
-7.93394e-06
-7.61204e-06
-5.75675e-06
-2.61602e-06
1.63049e-06
6.8916e-06
1.28925e-05
1.94997e-05
2.65091e-05
3.37581e-05
4.11328e-05
4.84533e-05
5.55891e-05
6.24888e-05
6.90372e-05
7.51146e-05
8.06804e-05
8.56757e-05
9.00335e-05
9.36925e-05
9.66364e-05
9.88106e-05
0.000100183
0.000100738
0.000100473
9.93613e-05
9.7367e-05
9.4485e-05
9.07314e-05
8.60999e-05
8.0576e-05
7.41532e-05
6.68441e-05
5.86571e-05
4.95876e-05
3.96418e-05
2.88342e-05
1.71836e-05
4.70571e-06
-8.60265e-06
-2.27341e-05
-3.76694e-05
-5.33767e-05
-6.98449e-05
-8.70621e-05
-0.000105016
-0.000123685
-0.000143039
-0.000163066
-0.000183749
-0.00020507
-0.000227006
-0.00024953
-0.000272623
-0.000296271
-0.000320456
-0.000345154
-0.000370339
-0.000395984
-0.000422069
-0.000448576
-0.000475488
-0.000502785
-0.000530437
-0.000558417
-0.000586702
-0.000615277
-0.000644129
-0.00067324
-0.00070258
-0.00073212
-0.000761835
-0.000791705
-0.000821716
-0.000851854
-0.000882095
-0.000912409
-0.000942766
-0.000973147
-0.00100353
-0.00103391
-0.00106426
-0.00109457
-0.0011248
-0.00115492
-0.00118491
-0.00121475
-0.00124443
-0.00127393
-0.00130323
-0.00133229
-0.0013611
-0.00138963
-0.00141786
-0.00144578
-0.00147336
-0.00150059
-0.00152744
-0.00155387
-0.00157987
-0.00160541
-0.00163048
-0.00165506
-0.00167913
-0.00170266
-0.00172564
-0.00174805
-0.00176985
-0.00179103
-0.00181157
-0.00183145
-0.00185065
-0.00186915
-0.00188693
-0.00190398
-0.00192028
-0.00193581
-0.00195055
-0.00196448
-0.00197759
-0.00198987
-0.00200132
-0.00201191
-0.00202164
-0.00203049
-0.00203845
-0.00204553
-0.0020517
-0.00205699
-0.00206138
-0.00206488
-0.00206749
-0.00206922
-0.00207007
-0.00207006
-0.00206922
-0.00206755
-0.00206508
-0.00206184
-0.00205788
-0.00205323
-0.00204794
-0.00204206
-0.00203566
-0.0020288
-0.00202156
-0.00201403
-0.00200632
-0.00199855
-0.00199083
-0.00198333
-0.00197618
-0.00196956
-0.00196366
-0.00195865
-0.00195471
-0.00195201
-0.00195084
-0.00195137
-1.11764e-05
-1.18099e-05
-1.1001e-05
-8.95734e-06
-5.80314e-06
-1.71161e-06
3.18502e-06
8.78617e-06
1.48859e-05
2.1314e-05
2.79933e-05
3.47587e-05
4.14627e-05
4.80223e-05
5.43413e-05
6.02995e-05
6.58459e-05
7.09219e-05
7.5434e-05
7.93284e-05
8.25798e-05
8.51415e-05
8.69676e-05
8.80166e-05
8.82849e-05
8.77625e-05
8.64074e-05
8.42162e-05
8.11885e-05
7.73147e-05
7.25708e-05
6.69568e-05
6.04788e-05
5.31459e-05
4.496e-05
3.59154e-05
2.60185e-05
1.52826e-05
3.72169e-06
-8.6547e-06
-2.18365e-05
-3.58192e-05
-5.05829e-05
-6.61062e-05
-8.23805e-05
-9.93925e-05
-0.000117124
-0.000135551
-0.000154652
-0.00017441
-0.000194818
-0.00021586
-0.000237506
-0.000259725
-0.000282497
-0.00030581
-0.000329654
-0.000354009
-0.000378848
-0.000404143
-0.000429873
-0.000456017
-0.000482558
-0.000509474
-0.000536741
-0.000564333
-0.000592228
-0.000620411
-0.000648866
-0.000677577
-0.000706516
-0.000735655
-0.000764966
-0.000794431
-0.000824032
-0.000853755
-0.000883577
-0.000913473
-0.000943418
-0.00097339
-0.00100337
-0.00103334
-0.00106327
-0.00109315
-0.00112296
-0.00115267
-0.00118225
-0.00121169
-0.00124096
-0.00127006
-0.00129895
-0.00132761
-0.00135601
-0.00138415
-0.00141199
-0.00143952
-0.00146672
-0.00149357
-0.00152004
-0.0015461
-0.00157174
-0.00159692
-0.00162165
-0.00164589
-0.00166962
-0.00169283
-0.00171549
-0.00173758
-0.00175908
-0.00177996
-0.00180022
-0.00181983
-0.00183878
-0.00185705
-0.00187461
-0.00189145
-0.00190755
-0.00192289
-0.00193746
-0.00195124
-0.00196423
-0.0019764
-0.00198776
-0.00199828
-0.00200796
-0.00201679
-0.00202476
-0.00203186
-0.00203809
-0.00204346
-0.00204795
-0.00205159
-0.00205437
-0.0020563
-0.00205738
-0.00205762
-0.00205706
-0.00205571
-0.0020536
-0.00205075
-0.00204721
-0.00204301
-0.0020382
-0.00203284
-0.00202697
-0.00202068
-0.00201403
-0.00200712
-0.00200003
-0.00199286
-0.00198575
-0.00197882
-0.00197221
-0.00196607
-0.00196056
-0.00195583
-0.00195204
-0.00194933
-0.001948
-0.00194821
-1.70784e-05
-1.69146e-05
-1.56347e-05
-1.32768e-05
-9.98405e-06
-5.94501e-06
-1.19797e-06
4.12367e-06
9.85724e-06
1.58929e-05
2.21054e-05
2.83557e-05
3.45714e-05
4.06425e-05
4.64483e-05
5.19093e-05
5.69887e-05
6.16003e-05
6.56732e-05
6.91616e-05
7.20329e-05
7.42283e-05
7.57181e-05
7.64804e-05
7.64945e-05
7.57257e-05
7.41472e-05
7.17691e-05
6.85931e-05
6.45922e-05
5.97433e-05
5.40538e-05
4.75277e-05
4.01632e-05
3.19657e-05
2.29317e-05
1.30727e-05
2.40233e-06
-9.07488e-06
-2.13581e-05
-3.44337e-05
-4.82837e-05
-6.28883e-05
-7.8241e-05
-9.43353e-05
-0.000111154
-0.000128674
-0.000146872
-0.000165735
-0.000185247
-0.000205393
-0.00022616
-0.000247523
-0.000269454
-0.000291932
-0.000314941
-0.00033847
-0.0003625
-0.000387002
-0.000411954
-0.00043734
-0.000463141
-0.000489333
-0.000515889
-0.000542787
-0.000570006
-0.000597527
-0.000625337
-0.000653417
-0.000681745
-0.000710293
-0.000739035
-0.000767956
-0.000797036
-0.000826253
-0.000855586
-0.000885012
-0.000914507
-0.000944049
-0.000973621
-0.00100321
-0.00103278
-0.00106233
-0.00109181
-0.00112121
-0.00115052
-0.0011797
-0.00120874
-0.00123763
-0.00126634
-0.00129484
-0.00132312
-0.00135114
-0.0013789
-0.00140636
-0.00143353
-0.00146037
-0.00148685
-0.00151296
-0.00153867
-0.00156396
-0.00158881
-0.00161319
-0.00163711
-0.00166052
-0.00168342
-0.00170578
-0.00172758
-0.00174879
-0.0017694
-0.0017894
-0.00180876
-0.00182747
-0.00184551
-0.00186286
-0.00187951
-0.00189542
-0.00191059
-0.00192501
-0.00193865
-0.00195152
-0.0019636
-0.00197488
-0.00198535
-0.00199499
-0.0020038
-0.00201178
-0.00201891
-0.0020252
-0.00203065
-0.00203525
-0.00203902
-0.00204195
-0.00204407
-0.00204536
-0.00204586
-0.00204556
-0.00204451
-0.00204273
-0.00204024
-0.00203708
-0.00203329
-0.00202892
-0.00202402
-0.00201863
-0.00201283
-0.00200669
-0.00200029
-0.00199372
-0.00198707
-0.00198045
-0.00197397
-0.00196777
-0.00196196
-0.00195668
-0.00195208
-0.00194828
-0.00194543
-0.00194373
-0.00194331
-2.42647e-05
-2.32024e-05
-2.12853e-05
-1.85211e-05
-1.50126e-05
-1.08577e-05
-6.13883e-06
-9.92652e-07
4.52264e-06
1.02752e-05
1.61226e-05
2.19949e-05
2.78063e-05
3.34509e-05
3.88208e-05
4.3877e-05
4.85491e-05
5.27493e-05
5.6433e-05
5.95666e-05
6.20944e-05
6.39565e-05
6.51393e-05
6.5636e-05
6.54016e-05
6.43997e-05
6.26296e-05
6.00841e-05
5.67559e-05
5.26217e-05
4.76685e-05
4.19049e-05
3.53314e-05
2.79385e-05
1.97258e-05
1.06982e-05
8.69198e-07
-9.74431e-06
-2.11524e-05
-3.33511e-05
-4.63242e-05
-6.00499e-05
-7.45158e-05
-8.97195e-05
-0.00010565
-0.000122284
-0.000139604
-0.000157592
-0.000176235
-0.000195521
-0.000215431
-0.000235942
-0.000257033
-0.000278683
-0.00030088
-0.000323604
-0.000346842
-0.000370567
-0.000394755
-0.000419387
-0.000444447
-0.000469918
-0.000495774
-0.00052199
-0.00054854
-0.000575403
-0.000602569
-0.000630027
-0.000657752
-0.000685718
-0.000713898
-0.000742268
-0.000770813
-0.000799519
-0.000828365
-0.000857327
-0.000886379
-0.000915498
-0.000944661
-0.000973851
-0.00100305
-0.00103225
-0.00106142
-0.00109053
-0.00111955
-0.00114848
-0.00117728
-0.00120595
-0.00123447
-0.00126281
-0.00129094
-0.00131885
-0.00134651
-0.00137391
-0.00140102
-0.00142783
-0.00145432
-0.00148047
-0.00150624
-0.00153162
-0.00155657
-0.0015811
-0.00160517
-0.00162878
-0.00165189
-0.0016745
-0.00169657
-0.00171809
-0.00173904
-0.0017594
-0.00177915
-0.00179828
-0.00181677
-0.00183459
-0.00185175
-0.00186821
-0.00188396
-0.00189897
-0.00191325
-0.00192677
-0.00193954
-0.00195153
-0.00196274
-0.00197316
-0.00198277
-0.00199158
-0.00199956
-0.00200673
-0.00201308
-0.0020186
-0.00202332
-0.00202721
-0.0020303
-0.00203258
-0.00203408
-0.0020348
-0.00203476
-0.00203398
-0.0020325
-0.00203034
-0.00202752
-0.0020241
-0.00202012
-0.00201562
-0.00201066
-0.0020053
-0.00199959
-0.00199362
-0.00198747
-0.00198123
-0.00197498
-0.00196885
-0.00196292
-0.00195731
-0.00195215
-0.00194754
-0.00194361
-0.00194046
-0.00193823
-0.00193696
-3.25808e-05
-3.04354e-05
-2.77687e-05
-2.45612e-05
-2.07062e-05
-1.63289e-05
-1.15533e-05
-6.42552e-06
-1.02229e-06
4.51743e-06
1.01256e-05
1.57284e-05
2.12079e-05
2.65066e-05
3.15464e-05
3.62538e-05
4.05668e-05
4.44174e-05
4.77748e-05
5.05858e-05
5.27992e-05
5.43755e-05
5.52981e-05
5.55441e-05
5.50668e-05
5.38556e-05
5.19127e-05
4.92148e-05
4.57427e-05
4.14848e-05
3.64311e-05
3.05938e-05
2.39658e-05
1.65358e-05
8.30694e-06
-7.13987e-07
-1.05168e-05
-2.1091e-05
-3.2443e-05
-4.45663e-05
-5.74413e-05
-7.10533e-05
-8.53973e-05
-0.000100466
-0.00011625
-0.000132719
-0.000149855
-0.000167646
-0.000186085
-0.000205159
-0.00022485
-0.000245129
-0.000265973
-0.000287367
-0.0003093
-0.000331757
-0.000354717
-0.000378157
-0.000402053
-0.000426387
-0.000451145
-0.000476307
-0.000501848
-0.000527741
-0.000553964
-0.000580499
-0.000607332
-0.000634452
-0.00066184
-0.000689464
-0.000717299
-0.000745323
-0.000773519
-0.000801874
-0.000830367
-0.000858972
-0.000887666
-0.000916427
-0.000945237
-0.000974075
-0.00100292
-0.00103176
-0.00106056
-0.00108931
-0.00111798
-0.00114656
-0.00117501
-0.00120332
-0.00123149
-0.00125948
-0.00128727
-0.00131483
-0.00134215
-0.00136921
-0.00139598
-0.00142247
-0.00144863
-0.00147446
-0.00149991
-0.00152498
-0.00154962
-0.00157385
-0.00159763
-0.00162095
-0.00164379
-0.00166612
-0.00168793
-0.00170919
-0.00172989
-0.00175001
-0.00176953
-0.00178845
-0.00180674
-0.00182437
-0.00184134
-0.00185764
-0.00187323
-0.00188811
-0.00190226
-0.00191568
-0.00192835
-0.00194026
-0.00195142
-0.00196179
-0.00197138
-0.00198018
-0.00198819
-0.00199539
-0.00200179
-0.0020074
-0.00201221
-0.00201623
-0.00201946
-0.00202191
-0.00202359
-0.00202452
-0.00202471
-0.00202418
-0.00202297
-0.0020211
-0.0020186
-0.0020155
-0.00201186
-0.00200771
-0.0020031
-0.0019981
-0.00199276
-0.00198714
-0.00198133
-0.0019754
-0.00196943
-0.00196352
-0.00195776
-0.00195224
-0.00194707
-0.00194234
-0.00193815
-0.00193461
-0.00193172
-0.00192945
-4.16439e-05
-3.83959e-05
-3.49299e-05
-3.1148e-05
-2.68969e-05
-2.22464e-05
-1.72937e-05
-1.2091e-05
-6.73415e-06
-1.29323e-06
4.17799e-06
9.57531e-06
1.48043e-05
1.98299e-05
2.46044e-05
2.90224e-05
3.30376e-05
3.66024e-05
3.96773e-05
4.2196e-05
4.41322e-05
4.54619e-05
4.61539e-05
4.61683e-05
4.54751e-05
4.40801e-05
4.1973e-05
3.91256e-05
3.5517e-05
3.11452e-05
2.60054e-05
2.00934e-05
1.34078e-05
5.93701e-06
-2.31216e-06
-1.13279e-05
-2.11084e-05
-3.16532e-05
-4.29609e-05
-5.50189e-05
-6.78069e-05
-8.13185e-05
-9.55537e-05
-0.000110502
-0.000126147
-0.000142464
-0.000159437
-0.000177055
-0.00019531
-0.000214187
-0.00023367
-0.00025373
-0.000274347
-0.000295507
-0.0003172
-0.000339411
-0.000362111
-0.00038528
-0.000408903
-0.000432964
-0.000457442
-0.000482314
-0.000507556
-0.000533146
-0.000559062
-0.00058529
-0.000611817
-0.000638626
-0.000665693
-0.000692991
-0.000720497
-0.000748195
-0.000776068
-0.000804097
-0.000832258
-0.000860527
-0.000888883
-0.000917305
-0.000945776
-0.00097428
-0.0010028
-0.0010313
-0.00105977
-0.00108818
-0.00111651
-0.00114475
-0.00117287
-0.00120085
-0.00122869
-0.00125635
-0.00128382
-0.00131105
-0.00133805
-0.00136479
-0.00139126
-0.00141744
-0.0014433
-0.00146882
-0.00149397
-0.00151874
-0.0015431
-0.00156705
-0.00159055
-0.00161361
-0.00163619
-0.00165827
-0.00167983
-0.00170085
-0.00172132
-0.00174122
-0.00176054
-0.00177926
-0.00179736
-0.00181482
-0.00183163
-0.00184777
-0.00186322
-0.00187797
-0.00189201
-0.00190533
-0.00191793
-0.00192978
-0.00194088
-0.00195122
-0.0019608
-0.0019696
-0.00197762
-0.00198486
-0.00199133
-0.00199701
-0.00200191
-0.00200604
-0.00200941
-0.00201201
-0.00201386
-0.00201498
-0.00201538
-0.00201509
-0.00201412
-0.0020125
-0.00201027
-0.00200747
-0.00200412
-0.00200027
-0.00199596
-0.00199126
-0.00198621
-0.00198087
-0.00197532
-0.00196961
-0.00196383
-0.00195805
-0.00195236
-0.00194684
-0.00194156
-0.00193661
-0.00193207
-0.00192804
-0.00192441
-0.00192105
-5.12684e-05
-4.68844e-05
-4.25561e-05
-3.8163e-05
-3.34626e-05
-2.84581e-05
-2.32557e-05
-1.79308e-05
-1.25261e-05
-7.09741e-06
-1.71137e-06
3.54744e-06
8.6186e-06
1.34603e-05
1.80007e-05
2.21772e-05
2.59559e-05
2.92909e-05
3.21133e-05
3.43831e-05
3.60908e-05
3.72043e-05
3.76773e-05
3.74822e-05
3.66081e-05
3.50493e-05
3.27884e-05
2.97938e-05
2.60601e-05
2.15824e-05
1.63593e-05
1.03772e-05
3.63e-06
-3.88212e-06
-1.21517e-05
-2.11657e-05
-3.09344e-05
-4.1459e-05
-5.27253e-05
-6.47206e-05
-7.74355e-05
-9.08675e-05
-0.000105008
-0.000119847
-0.000135363
-0.00015154
-0.000168364
-0.000185827
-0.000203919
-0.000222619
-0.000241908
-0.000261763
-0.000282171
-0.000303119
-0.000324592
-0.00034657
-0.000369029
-0.000391952
-0.000415321
-0.000439123
-0.000463341
-0.000487945
-0.000512908
-0.000538213
-0.000563843
-0.000589785
-0.000616025
-0.000642543
-0.000669313
-0.000696307
-0.000723507
-0.000750897
-0.000778462
-0.000806183
-0.000834035
-0.000861991
-0.00089003
-0.000918135
-0.00094629
-0.000974477
-0.00100268
-0.00103087
-0.00105902
-0.00108712
-0.00111513
-0.00114305
-0.00117086
-0.00119854
-0.00122607
-0.00125343
-0.00128058
-0.00130751
-0.00133421
-0.00136066
-0.00138683
-0.00141272
-0.0014383
-0.00146354
-0.00148841
-0.00151291
-0.001537
-0.00156069
-0.00158394
-0.00160675
-0.00162909
-0.00165093
-0.00167226
-0.00169307
-0.00171333
-0.00173303
-0.00175216
-0.00177069
-0.00178862
-0.00180592
-0.00182258
-0.00183858
-0.00185391
-0.00186855
-0.00188249
-0.00189573
-0.00190825
-0.00192005
-0.00193111
-0.00194143
-0.00195099
-0.0019598
-0.00196784
-0.00197512
-0.00198164
-0.0019874
-0.00199239
-0.00199663
-0.00200012
-0.00200286
-0.00200488
-0.00200617
-0.00200676
-0.00200667
-0.00200592
-0.00200453
-0.00200254
-0.00199998
-0.00199689
-0.00199329
-0.00198924
-0.00198478
-0.00197996
-0.00197483
-0.00196946
-0.00196391
-0.00195824
-0.00195251
-0.00194681
-0.00194119
-0.00193573
-0.00193048
-0.00192553
-0.00192094
-0.00191652
-0.00191202
-6.1236e-05
-5.56775e-05
-5.04986e-05
-4.54712e-05
-4.02417e-05
-3.48459e-05
-2.93652e-05
-2.38482e-05
-1.83107e-05
-1.28396e-05
-7.49131e-06
-2.29743e-06
2.67738e-06
7.38907e-06
1.17547e-05
1.57509e-05
1.93382e-05
2.24698e-05
2.50759e-05
2.71475e-05
2.86623e-05
2.9575e-05
2.98486e-05
2.94753e-05
2.84475e-05
2.67399e-05
2.43322e-05
2.12028e-05
1.73547e-05
1.27838e-05
7.47527e-06
1.41928e-06
-5.38694e-06
-1.29362e-05
-2.12235e-05
-3.02497e-05
-4.00155e-05
-5.05226e-05
-6.17533e-05
-7.36949e-05
-8.63478e-05
-9.97095e-05
-0.00011377
-0.000128512
-0.000143914
-0.000159963
-0.000176653
-0.000193977
-0.00021192
-0.000230458
-0.00024957
-0.000269242
-0.000289459
-0.00031021
-0.000331479
-0.000353243
-0.000375479
-0.000398174
-0.000421311
-0.000444876
-0.000468848
-0.000493202
-0.000517907
-0.000542949
-0.000568314
-0.00059399
-0.000619961
-0.000646205
-0.000672696
-0.00069941
-0.000726325
-0.00075343
-0.00078071
-0.000808141
-0.000835697
-0.000863356
-0.000891101
-0.000918913
-0.000946775
-0.000974668
-0.00100257
-0.00103047
-0.00105832
-0.00108612
-0.00111384
-0.00114147
-0.00116899
-0.00119638
-0.00122362
-0.00125069
-0.00127756
-0.00130421
-0.00133063
-0.0013568
-0.00138271
-0.00140833
-0.00143363
-0.00145861
-0.00148322
-0.00150746
-0.00153131
-0.00155476
-0.00157778
-0.00160036
-0.00162247
-0.0016441
-0.00166522
-0.00168583
-0.0017059
-0.00172542
-0.00174437
-0.00176274
-0.00178051
-0.00179767
-0.00181419
-0.00183007
-0.00184528
-0.00185983
-0.00187369
-0.00188685
-0.00189931
-0.00191106
-0.00192209
-0.00193239
-0.00194195
-0.00195077
-0.00195883
-0.00196615
-0.00197273
-0.00197855
-0.00198363
-0.00198797
-0.00199157
-0.00199445
-0.00199661
-0.00199806
-0.00199882
-0.00199892
-0.00199836
-0.00199717
-0.00199539
-0.00199304
-0.00199016
-0.00198677
-0.00198292
-0.00197866
-0.00197401
-0.00196904
-0.00196379
-0.00195833
-0.0019527
-0.00194697
-0.00194118
-0.0019354
-0.00192969
-0.00192408
-0.00191866
-0.00191348
-0.00190823
-0.00190258
-7.13502e-05
-6.46279e-05
-5.86203e-05
-5.29126e-05
-4.71236e-05
-4.13093e-05
-3.55024e-05
-2.97306e-05
-2.40318e-05
-1.84762e-05
-1.30935e-05
-7.90392e-06
-2.98051e-06
1.62891e-06
5.88389e-06
9.75713e-06
1.31887e-05
1.61408e-05
1.85805e-05
2.04936e-05
2.18372e-05
2.25699e-05
2.26748e-05
2.21491e-05
2.09793e-05
1.91327e-05
1.65897e-05
1.3344e-05
9.3917e-06
4.72949e-06
-6.60948e-07
-6.78975e-06
-1.36501e-05
-2.12356e-05
-2.95436e-05
-3.85885e-05
-4.8361e-05
-5.88529e-05
-7.00518e-05
-8.1952e-05
-9.45567e-05
-0.00010786
-0.000121849
-0.000136502
-0.000151803
-0.000167744
-0.000184317
-0.000201514
-0.00021932
-0.000237711
-0.000256663
-0.000276167
-0.000296215
-0.000316789
-0.000337869
-0.000359432
-0.000381464
-0.000403951
-0.000426878
-0.000450225
-0.000473969
-0.000498087
-0.000522553
-0.000547355
-0.000572478
-0.000597911
-0.000623633
-0.000649621
-0.000675849
-0.000702298
-0.000728951
-0.000755793
-0.000782806
-0.000809968
-0.000837251
-0.000864633
-0.000892101
-0.000919639
-0.000947228
-0.000974849
-0.00100248
-0.00103009
-0.00105767
-0.00108519
-0.00111264
-0.00114
-0.00116725
-0.00119437
-0.00122134
-0.00124814
-0.00127474
-0.00130114
-0.0013273
-0.00135322
-0.00137887
-0.00140424
-0.0014293
-0.00145403
-0.00147841
-0.00150241
-0.00152603
-0.00154926
-0.00157206
-0.00159443
-0.00161634
-0.00163777
-0.00165871
-0.00167913
-0.00169902
-0.00171838
-0.00173717
-0.00175539
-0.00177303
-0.00179005
-0.00180646
-0.00182222
-0.00183734
-0.0018518
-0.00186558
-0.00187868
-0.0018911
-0.00190281
-0.00191381
-0.00192409
-0.00193365
-0.00194248
-0.00195058
-0.00195794
-0.00196456
-0.00197046
-0.00197562
-0.00198006
-0.00198377
-0.00198676
-0.00198906
-0.00199065
-0.00199157
-0.00199182
-0.00199143
-0.00199042
-0.00198882
-0.00198665
-0.00198394
-0.00198073
-0.00197704
-0.00197292
-0.0019684
-0.00196353
-0.00195836
-0.00195293
-0.00194728
-0.00194148
-0.00193555
-0.00192956
-0.00192355
-0.00191754
-0.00191161
-0.0019058
-0.00189971
-0.00189293
-8.14577e-05
-7.36001e-05
-6.67356e-05
-6.03746e-05
-5.40392e-05
-4.77559e-05
-4.15727e-05
-3.55189e-05
-2.96332e-05
-2.39349e-05
-1.84547e-05
-1.3242e-05
-8.33458e-06
-3.77393e-06
4.18981e-07
4.1967e-06
7.50301e-06
1.03221e-05
1.26387e-05
1.44123e-05
1.56008e-05
1.61814e-05
1.61553e-05
1.55003e-05
1.41959e-05
1.22178e-05
9.55395e-06
6.20565e-06
2.16046e-06
-2.59136e-06
-8.06399e-06
-1.42612e-05
-2.11717e-05
-2.87919e-05
-3.71317e-05
-4.61985e-05
-5.59781e-05
-6.64587e-05
-7.76342e-05
-8.95088e-05
-0.000102077
-0.000115331
-0.000129253
-0.000143827
-0.000159041
-0.000174888
-0.000191364
-0.000208452
-0.000226132
-0.000244385
-0.000263194
-0.000282553
-0.000302447
-0.000322858
-0.000343764
-0.000365147
-0.000386993
-0.000409292
-0.000432025
-0.000455171
-0.000478708
-0.000502608
-0.000526853
-0.000551433
-0.000576337
-0.000601547
-0.000627038
-0.000652787
-0.000678774
-0.000704981
-0.000731391
-0.000757989
-0.000784754
-0.000811664
-0.000838693
-0.00086582
-0.000893034
-0.000920317
-0.000947653
-0.00097502
-0.0010024
-0.00102975
-0.00105707
-0.00108434
-0.00111153
-0.00113864
-0.00116564
-0.00119251
-0.00121924
-0.00124579
-0.00127214
-0.00129829
-0.00132422
-0.0013499
-0.00137532
-0.00140046
-0.00142529
-0.0014498
-0.00147395
-0.00149775
-0.00152116
-0.00154418
-0.00156679
-0.00158897
-0.00161069
-0.00163194
-0.0016527
-0.00167296
-0.00169269
-0.0017119
-0.00173055
-0.00174864
-0.00176615
-0.00178306
-0.00179936
-0.00181503
-0.00183006
-0.00184445
-0.00185817
-0.00187122
-0.00188359
-0.00189527
-0.00190625
-0.00191653
-0.00192609
-0.00193494
-0.00194306
-0.00195046
-0.00195714
-0.0019631
-0.00196834
-0.00197287
-0.00197668
-0.00197979
-0.0019822
-0.00198393
-0.00198498
-0.00198538
-0.00198513
-0.00198428
-0.00198283
-0.00198081
-0.00197824
-0.00197516
-0.0019716
-0.00196758
-0.00196315
-0.00195834
-0.00195319
-0.00194774
-0.00194204
-0.00193611
-0.00193001
-0.00192376
-0.0019174
-0.00191096
-0.0019045
-0.00189805
-0.00189112
-0.00188322
-9.14447e-05
-8.24522e-05
-7.47451e-05
-6.77528e-05
-6.08527e-05
-5.40746e-05
-4.75053e-05
-4.11573e-05
-3.50384e-05
-2.91529e-05
-2.35488e-05
-1.82761e-05
-1.33459e-05
-8.78089e-06
-4.622e-06
-9.21698e-07
2.3018e-06
5.03763e-06
7.24933e-06
8.89708e-06
9.95515e-06
1.0419e-05
1.02817e-05
9.50974e-06
8.08193e-06
5.98843e-06
3.22335e-06
-2.19757e-07
-4.35527e-06
-9.19637e-06
-1.47473e-05
-2.1002e-05
-2.79602e-05
-3.56244e-05
-4.40052e-05
-5.30947e-05
-6.28802e-05
-7.33537e-05
-8.45171e-05
-9.63743e-05
-0.000108916
-0.000122131
-0.000135997
-0.000150502
-0.000165643
-0.000181414
-0.000197803
-0.000214791
-0.000232359
-0.000250491
-0.000269176
-0.000288406
-0.000308162
-0.000328423
-0.000349172
-0.000370394
-0.000392073
-0.000414201
-0.00043676
-0.000459723
-0.000483066
-0.000506768
-0.000530815
-0.000555195
-0.000579897
-0.000604899
-0.000630177
-0.000655708
-0.000681473
-0.000707458
-0.000733646
-0.000760019
-0.000786555
-0.00081323
-0.000840025
-0.00086692
-0.0008939
-0.000920951
-0.000948052
-0.000975184
-0.00100232
-0.00102944
-0.00105652
-0.00108355
-0.00111051
-0.00113739
-0.00116416
-0.0011908
-0.00121729
-0.00124362
-0.00126975
-0.00129567
-0.00132138
-0.00134685
-0.00137206
-0.00139699
-0.00142161
-0.00144591
-0.00146986
-0.00149346
-0.00151668
-0.00153952
-0.00156195
-0.00158396
-0.00160551
-0.0016266
-0.0016472
-0.00166731
-0.00168691
-0.00170598
-0.00172451
-0.00174248
-0.00175988
-0.00177669
-0.00179289
-0.00180848
-0.00182344
-0.00183776
-0.00185143
-0.00186444
-0.00187677
-0.00188843
-0.0018994
-0.00190968
-0.00191925
-0.00192812
-0.00193627
-0.00194372
-0.00195045
-0.00195648
-0.00196179
-0.0019664
-0.00197031
-0.00197352
-0.00197604
-0.00197788
-0.00197906
-0.00197958
-0.00197947
-0.00197874
-0.00197741
-0.00197551
-0.00197306
-0.00197009
-0.00196661
-0.00196267
-0.00195828
-0.00195349
-0.00194833
-0.00194283
-0.00193702
-0.00193094
-0.00192461
-0.00191808
-0.00191135
-0.00190446
-0.00189744
-0.00189035
-0.00188259
-0.00187362
-0.000101148
-9.11008e-05
-8.2576e-05
-7.49287e-05
-6.7457e-05
-6.0205e-05
-5.32396e-05
-4.65584e-05
-4.01629e-05
-3.4076e-05
-2.8337e-05
-2.29603e-05
-1.79624e-05
-1.33729e-05
-9.2349e-06
-5.57181e-06
-2.3896e-06
2.87888e-07
2.40623e-06
3.95376e-06
4.915e-06
5.29125e-06
5.0516e-06
4.16818e-06
2.63188e-06
4.39538e-07
-2.4141e-06
-5.94587e-06
-1.01716e-05
-1.50974e-05
-2.07158e-05
-2.70249e-05
-3.4034e-05
-4.1747e-05
-5.01669e-05
-5.92797e-05
-6.90769e-05
-7.95544e-05
-9.07184e-05
-0.000102568
-0.00011509
-0.000128266
-0.000142086
-0.000156539
-0.000171621
-0.000187328
-0.000203642
-0.000220542
-0.000238011
-0.00025604
-0.000274619
-0.000293733
-0.000313366
-0.000333493
-0.0003541
-0.000375178
-0.000396713
-0.00041869
-0.000441087
-0.000463882
-0.00048705
-0.000510574
-0.000534442
-0.000558643
-0.000583162
-0.000607974
-0.000633054
-0.000658385
-0.00068395
-0.000709733
-0.000735718
-0.000761885
-0.00078821
-0.000814671
-0.000841252
-0.000867933
-0.0008947
-0.000921539
-0.000948425
-0.000975339
-0.00100226
-0.00102915
-0.00105602
-0.00108283
-0.00110958
-0.00113625
-0.00116281
-0.00118923
-0.00121552
-0.00124163
-0.00126756
-0.00129328
-0.00131879
-0.00134406
-0.00136907
-0.00139381
-0.00141824
-0.00144235
-0.00146613
-0.00148955
-0.0015126
-0.00153527
-0.00155754
-0.00157939
-0.00160079
-0.00162173
-0.0016422
-0.00166218
-0.00168165
-0.0017006
-0.00171903
-0.0017369
-0.0017542
-0.00177092
-0.00178705
-0.00180256
-0.00181746
-0.00183173
-0.00184535
-0.00185833
-0.00187064
-0.00188229
-0.00189325
-0.00190353
-0.00191312
-0.00192201
-0.0019302
-0.00193769
-0.00194448
-0.00195056
-0.00195595
-0.00196064
-0.00196463
-0.00196794
-0.00197056
-0.00197251
-0.00197379
-0.00197442
-0.00197442
-0.0019738
-0.00197258
-0.00197077
-0.00196841
-0.00196551
-0.0019621
-0.0019582
-0.00195383
-0.00194902
-0.00194381
-0.00193822
-0.00193228
-0.00192601
-0.00191944
-0.00191259
-0.00190548
-0.00189812
-0.00189055
-0.00188282
-0.00187425
-0.00186423
-0.000110491
-9.94537e-05
-9.01154e-05
-8.18067e-05
-7.37822e-05
-6.60682e-05
-5.86811e-05
-5.16407e-05
-4.49627e-05
-3.86658e-05
-3.27577e-05
-2.72453e-05
-2.21557e-05
-1.75279e-05
-1.33794e-05
-9.71149e-06
-6.5456e-06
-3.92436e-06
-1.87666e-06
-3.99214e-07
4.9413e-07
7.90522e-07
4.57646e-07
-5.20513e-07
-2.14634e-06
-4.42176e-06
-7.36256e-06
-1.0981e-05
-1.52888e-05
-2.02894e-05
-2.59706e-05
-3.2336e-05
-3.94036e-05
-4.7172e-05
-5.56291e-05
-6.47633e-05
-7.4574e-05
-8.50669e-05
-9.62426e-05
-0.000108091
-0.000120599
-0.000133747
-0.000147531
-0.000161947
-0.000176987
-0.000192639
-0.000208886
-0.000225711
-0.000243097
-0.000261039
-0.000279527
-0.000298542
-0.000318062
-0.000338072
-0.000358558
-0.000379511
-0.000400917
-0.000422759
-0.000445012
-0.000467653
-0.000490664
-0.00051403
-0.00053774
-0.000561781
-0.000586133
-0.000610772
-0.000635674
-0.000660824
-0.000686209
-0.00071181
-0.00073761
-0.000763588
-0.000789723
-0.000815991
-0.000842376
-0.000868864
-0.000895438
-0.000922083
-0.000948774
-0.000975489
-0.00100221
-0.0010289
-0.00105557
-0.00108219
-0.00110874
-0.00113522
-0.00116158
-0.00118782
-0.00121391
-0.00123983
-0.00126557
-0.00129111
-0.00131644
-0.00134153
-0.00136637
-0.00139093
-0.0014152
-0.00143914
-0.00146275
-0.00148601
-0.00150892
-0.00153144
-0.00155356
-0.00157527
-0.00159654
-0.00161735
-0.00163769
-0.00165755
-0.00167692
-0.00169577
-0.0017141
-0.00173189
-0.00174911
-0.00176575
-0.00178181
-0.00179727
-0.00181212
-0.00182634
-0.00183994
-0.00185289
-0.00186519
-0.00187682
-0.00188779
-0.00189808
-0.00190768
-0.0019166
-0.00192483
-0.00193237
-0.00193921
-0.00194536
-0.00195082
-0.00195558
-0.00195966
-0.00196305
-0.00196576
-0.0019678
-0.00196918
-0.00196991
-0.00197
-0.00196947
-0.00196833
-0.00196661
-0.00196431
-0.00196146
-0.00195808
-0.00195419
-0.00194981
-0.00194497
-0.00193968
-0.00193398
-0.00192787
-0.0019214