/*--------------------------------*- C++ -*----------------------------------*\
  =========                 |
  \\      /  F ield         | OpenFOAM: The Open Source CFD Toolbox
   \\    /   O peration     | Website:  https://openfoam.org
    \\  /    A nd           | Version:  7
     \\/     M anipulation  |
\*---------------------------------------------------------------------------*/
FoamFile
{
    version     2.0;
    format      ascii;
    class       surfaceScalarField;
    location    "0.2625";
    object      phi;
}
// * * * * * * * * * * * * * * * * * * * * * * * * * * * * * * * * * * * * * //

dimensions      [0 3 -1 0 0 0 0];

internalField   nonuniform List<scalar> 
101920
(
-8.31301e-15
2.96995e-13
-4.53083e-13
4.50344e-13
-9.37333e-13
4.74431e-13
-1.3211e-12
3.75304e-13
-1.53164e-12
2.1479e-13
-1.54676e-12
1.43312e-14
-1.34217e-12
-2.0501e-13
-9.10798e-13
-4.30844e-13
-2.5401e-13
-6.55915e-13
6.24351e-13
-8.80857e-13
1.71862e-12
-1.097e-12
3.01847e-12
-1.30099e-12
4.51261e-12
-1.49765e-12
6.19491e-12
-1.67991e-12
8.0521e-12
-1.85242e-12
1.00669e-11
-2.01855e-12
1.22358e-11
-2.16815e-12
1.45452e-11
-2.30572e-12
1.69813e-11
-2.43594e-12
1.95358e-11
-2.55504e-12
2.21994e-11
-2.66141e-12
2.49585e-11
-2.75885e-12
2.78047e-11
-2.84648e-12
3.07293e-11
-2.92429e-12
3.37243e-11
-2.99258e-12
3.6777e-11
-3.0539e-12
3.988e-11
-3.10696e-12
4.30279e-11
-3.14984e-12
4.62116e-11
-3.18339e-12
4.94229e-11
-3.21031e-12
5.26551e-11
-3.2325e-12
5.59017e-11
-3.24767e-12
5.91565e-11
-3.25499e-12
6.24119e-11
-3.25643e-12
6.56621e-11
-3.25186e-12
6.8903e-11
-3.24078e-12
7.21291e-11
-3.22441e-12
7.53351e-11
-3.20344e-12
7.8515e-11
-3.17878e-12
8.16643e-11
-3.14981e-12
8.47797e-11
-3.11587e-12
8.78564e-11
-3.07706e-12
9.08913e-11
-3.03381e-12
9.38791e-11
-2.98788e-12
9.68175e-11
-2.93899e-12
9.97029e-11
-2.88677e-12
1.02532e-10
-2.83025e-12
1.05303e-10
-2.77038e-12
1.0801e-10
-2.70836e-12
1.10653e-10
-2.64363e-12
1.1323e-10
-2.57642e-12
1.15738e-10
-2.50696e-12
1.18174e-10
-2.43576e-12
1.20535e-10
-2.3625e-12
1.22821e-10
-2.2867e-12
1.25029e-10
-2.20835e-12
1.2716e-10
-2.12841e-12
1.29211e-10
-2.04776e-12
1.31179e-10
-1.96633e-12
1.33063e-10
-1.88408e-12
1.34862e-10
-1.8007e-12
1.36576e-10
-1.71566e-12
1.38202e-10
-1.62836e-12
1.39742e-10
-1.53946e-12
1.41193e-10
-1.45023e-12
1.42554e-10
-1.36081e-12
1.43824e-10
-1.27089e-12
1.45004e-10
-1.18007e-12
1.46093e-10
-1.08844e-12
1.47089e-10
-9.96116e-13
1.47992e-10
-9.03351e-13
1.48802e-10
-8.10354e-13
1.49518e-10
-7.16883e-13
1.50139e-10
-6.22786e-13
1.50667e-10
-5.27854e-13
1.511e-10
-4.32281e-13
1.51439e-10
-3.36949e-13
1.51683e-10
-2.42382e-13
1.51831e-10
-1.48286e-13
1.51885e-10
-5.40011e-14
1.51842e-10
4.08001e-14
1.51705e-10
1.36348e-13
1.51473e-10
2.32558e-13
1.51146e-10
3.28739e-13
1.50724e-10
4.23921e-13
1.50206e-10
5.1784e-13
1.49594e-10
6.11158e-13
1.48888e-10
7.04571e-13
1.48088e-10
7.98517e-13
1.47194e-10
8.92927e-13
1.46207e-10
9.871e-13
1.45128e-10
1.08038e-12
1.43956e-10
1.17258e-12
1.42693e-10
1.26368e-12
1.4134e-10
1.35395e-12
1.39896e-10
1.44384e-12
1.38363e-10
1.53335e-12
1.36741e-10
1.62234e-12
1.35033e-10
1.71022e-12
1.33238e-10
1.7964e-12
1.31357e-10
1.88081e-12
1.29393e-10
1.96388e-12
1.27346e-10
2.04598e-12
1.25218e-10
2.12706e-12
1.2301e-10
2.20678e-12
1.20725e-10
2.28486e-12
1.18364e-10
2.36132e-12
1.15928e-10
2.43604e-12
1.13421e-10
2.50856e-12
1.10843e-10
2.57858e-12
1.08199e-10
2.64576e-12
1.05489e-10
2.71019e-12
1.02717e-10
2.77197e-12
9.98849e-11
2.83097e-12
9.69964e-11
2.88735e-12
9.40544e-11
2.94121e-12
9.10626e-11
2.99213e-12
8.80246e-11
3.03931e-12
8.49443e-11
3.08201e-12
8.18252e-11
3.12013e-12
7.86713e-11
3.154e-12
7.54874e-11
3.18369e-12
7.2278e-11
3.20905e-12
6.9048e-11
3.22984e-12
6.58028e-11
3.24552e-12
6.25475e-11
3.25549e-12
5.92878e-11
3.25954e-12
5.60297e-11
3.25767e-12
5.27797e-11
3.2498e-12
4.95445e-11
3.23556e-12
4.63307e-11
3.21438e-12
4.31452e-11
3.18596e-12
3.99956e-11
3.15006e-12
3.68897e-11
3.10624e-12
3.38352e-11
3.05432e-12
3.08409e-11
2.9943e-12
2.79159e-11
2.9257e-12
2.50694e-11
2.84774e-12
2.23106e-11
2.75984e-12
1.96494e-11
2.66186e-12
1.70953e-11
2.55394e-12
1.46589e-11
2.43601e-12
1.23513e-11
2.30754e-12
1.01831e-11
2.16815e-12
8.16539e-12
2.01762e-12
6.30959e-12
1.8557e-12
4.62708e-12
1.68227e-12
3.12871e-12
1.49769e-12
1.82505e-12
1.30276e-12
7.26217e-13
1.09853e-12
-1.58736e-13
8.85971e-13
-8.22771e-13
6.66202e-13
-1.2625e-12
4.41937e-13
-1.47925e-12
2.18405e-13
-1.48181e-12
3.54988e-15
-1.29143e-12
-1.90179e-13
-9.48639e-13
-3.42917e-13
-5.26182e-13
-4.22471e-13
-1.50248e-13
-3.75738e-13
-1.50006e-13
-3.37364e-13
6.2722e-13
-1.04429e-12
1.14836e-12
-1.76251e-12
1.19396e-12
-2.25427e-12
8.70179e-13
-2.34583e-12
3.16593e-13
-1.95063e-12
-3.77723e-13
-1.00075e-12
-1.15159e-12
5.35371e-13
-1.95961e-12
2.65888e-12
-2.78343e-12
5.38031e-12
-3.59563e-12
8.68172e-12
-4.39015e-12
1.25368e-11
-5.16174e-12
1.69344e-11
-5.89419e-12
2.18413e-11
-6.58829e-12
2.72292e-11
-7.24636e-12
3.30755e-11
-7.86257e-12
3.93442e-11
-8.43729e-12
4.60037e-11
-8.97234e-12
5.30301e-11
-9.46494e-12
6.03937e-11
-9.91713e-12
6.8062e-11
-1.03303e-11
7.60082e-11
-1.07067e-11
8.42046e-11
-1.10451e-11
9.26263e-11
-1.13453e-11
1.01247e-10
-1.16107e-11
1.10041e-10
-1.18453e-11
1.18985e-10
-1.20487e-11
1.28057e-10
-1.22195e-11
1.37232e-10
-1.23597e-11
1.46488e-10
-1.24714e-11
1.55811e-10
-1.25545e-11
1.65178e-10
-1.26116e-11
1.74569e-10
-1.26445e-11
1.83967e-10
-1.26539e-11
1.93354e-10
-1.26407e-11
2.02715e-10
-1.26046e-11
2.12035e-10
-1.25467e-11
2.21297e-10
-1.24687e-11
2.30489e-10
-1.23722e-11
2.39597e-10
-1.22585e-11
2.48609e-10
-1.2127e-11
2.57511e-10
-1.19787e-11
2.66292e-10
-1.18149e-11
2.74941e-10
-1.16374e-11
2.8345e-10
-1.1446e-11
2.91807e-10
-1.12412e-11
3.00003e-10
-1.10243e-11
3.0803e-10
-1.07958e-11
3.15878e-10
-1.05566e-11
3.2354e-10
-1.03066e-11
3.31011e-10
-1.00464e-11
3.38282e-10
-9.77674e-12
3.45346e-10
-9.49883e-12
3.52199e-10
-9.21382e-12
3.58833e-10
-8.92207e-12
3.65243e-10
-8.62253e-12
3.71426e-10
-8.31475e-12
3.77377e-10
-8.00002e-12
3.8309e-10
-7.67972e-12
3.88562e-10
-7.35478e-12
3.93789e-10
-7.02555e-12
3.98768e-10
-6.69203e-12
4.03495e-10
-6.35433e-12
4.07967e-10
-6.01237e-12
4.12182e-10
-5.66636e-12
4.16137e-10
-5.31682e-12
4.19831e-10
-4.96432e-12
4.2326e-10
-4.60911e-12
4.26424e-10
-4.25125e-12
4.29319e-10
-3.89072e-12
4.31945e-10
-3.52799e-12
4.343e-10
-3.16376e-12
4.36382e-10
-2.79844e-12
4.38192e-10
-2.432e-12
4.39727e-10
-2.06435e-12
4.40987e-10
-1.69483e-12
4.41971e-10
-1.32353e-12
4.42679e-10
-9.51366e-13
4.43111e-10
-5.79481e-13
4.43267e-10
-2.07865e-13
4.43146e-10
1.63781e-13
4.42748e-10
5.35442e-13
4.42073e-10
9.07025e-13
4.4112e-10
1.27875e-12
4.39892e-10
1.6507e-12
4.38388e-10
2.02217e-12
4.3661e-10
2.39209e-12
4.34558e-10
2.7599e-12
4.32233e-10
3.12579e-12
4.29636e-10
3.49048e-12
4.26767e-10
3.85409e-12
4.2363e-10
4.21607e-12
4.20225e-10
4.57595e-12
4.16556e-10
4.93351e-12
4.12623e-10
5.28796e-12
4.08429e-10
5.63899e-12
4.03976e-10
5.98643e-12
3.99266e-10
6.33063e-12
3.94303e-10
6.67172e-12
3.89089e-10
7.00892e-12
3.8363e-10
7.34118e-12
3.77928e-10
7.66794e-12
3.71987e-10
7.98915e-12
3.65812e-10
8.30455e-12
3.59407e-10
8.61366e-12
3.52777e-10
8.9158e-12
3.45927e-10
9.2106e-12
3.38864e-10
9.49807e-12
3.31592e-10
9.77768e-12
3.2412e-10
1.00489e-11
3.16454e-10
1.03112e-11
3.08601e-10
1.05636e-11
3.00569e-10
1.08053e-11
2.92368e-10
1.10354e-11
2.84004e-10
1.1253e-11
2.75487e-10
1.14578e-11
2.66827e-10
1.165e-11
2.58035e-10
1.18291e-11
2.49122e-10
1.19937e-11
2.401e-10
1.21426e-11
2.30981e-10
1.22745e-11
2.21777e-10
1.23888e-11
2.12502e-10
1.24848e-11
2.03171e-10
1.25617e-11
1.93797e-10
1.26189e-11
1.84398e-10
1.26551e-11
1.74989e-10
1.2669e-11
1.65587e-10
1.26595e-11
1.56212e-10
1.26258e-11
1.46881e-10
1.25667e-11
1.37614e-10
1.24814e-11
1.28431e-10
1.23686e-11
1.19354e-10
1.22271e-11
1.10405e-10
1.20556e-11
1.01607e-10
1.18526e-11
9.29838e-11
1.16171e-11
8.45598e-11
1.13484e-11
7.6361e-11
1.10456e-11
6.84142e-11
1.0707e-11
6.07466e-11
1.0331e-11
5.33854e-11
9.9168e-12
4.63589e-11
9.46381e-12
3.96965e-11
8.97114e-12
3.34276e-11
8.43803e-12
2.75813e-11
7.86441e-12
2.21872e-11
7.25037e-12
1.72745e-11
6.59627e-12
1.28709e-11
5.90316e-12
9.00188e-12
5.17319e-12
5.68973e-12
4.41025e-12
2.95238e-12
3.62085e-12
8.02189e-13
2.81386e-12
-7.5856e-13
2.00134e-12
-1.74217e-12
1.20166e-12
-2.18048e-12
4.42519e-13
-2.13407e-12
-2.35379e-13
-1.70348e-12
-7.72326e-13
-1.04366e-12
-1.0816e-12
-3.75272e-13
-1.04344e-12
-5.2503e-13
-4.15262e-13
1.03037e-12
-1.10712e-12
1.8481e-12
-1.69129e-12
1.77788e-12
-1.88027e-12
1.06543e-12
-1.46994e-12
-8.80234e-14
-3.28099e-13
-1.52241e-12
1.64543e-12
-3.11966e-12
4.48918e-12
-4.81117e-12
8.2358e-12
-6.53092e-12
1.28834e-11
-8.24402e-12
1.84165e-11
-9.92873e-12
2.48185e-11
-1.15594e-11
3.20534e-11
-1.31249e-11
4.00799e-11
-1.46193e-11
4.88648e-11
-1.60313e-11
5.83662e-11
-1.73579e-11
6.85329e-11
-1.86026e-11
7.93228e-11
-1.97621e-11
9.06921e-11
-2.08336e-11
1.02596e-10
-2.18184e-11
1.14987e-10
-2.27219e-11
1.27824e-10
-2.35432e-11
1.41064e-10
-2.42844e-11
1.54663e-10
-2.49466e-11
1.68581e-10
-2.55339e-11
1.82781e-10
-2.60486e-11
1.97225e-10
-2.64915e-11
2.11876e-10
-2.68677e-11
2.26696e-10
-2.71804e-11
2.41652e-10
-2.74303e-11
2.56714e-10
-2.76183e-11
2.7185e-10
-2.77479e-11
2.87029e-10
-2.78231e-11
3.02221e-10
-2.7846e-11
3.174e-10
-2.78183e-11
3.32541e-10
-2.77424e-11
3.47616e-10
-2.76204e-11
3.62601e-10
-2.74549e-11
3.77475e-10
-2.72474e-11
3.92216e-10
-2.69994e-11
4.06804e-10
-2.67135e-11
4.21218e-10
-2.63918e-11
4.35437e-10
-2.60364e-11
4.49447e-10
-2.56485e-11
4.6323e-10
-2.52297e-11
4.7677e-10
-2.47816e-11
4.90052e-10
-2.4306e-11
5.0306e-10
-2.38048e-11
5.15783e-10
-2.32789e-11
5.28207e-10
-2.27303e-11
5.4032e-10
-2.21595e-11
5.52111e-10
-2.15676e-11
5.63569e-10
-2.09566e-11
5.74685e-10
-2.0328e-11
5.85448e-10
-1.96831e-11
5.95852e-10
-1.90227e-11
6.05886e-10
-1.83472e-11
6.15543e-10
-1.76575e-11
6.24816e-10
-1.69545e-11
6.33698e-10
-1.62391e-11
6.42184e-10
-1.55123e-11
6.50268e-10
-1.47754e-11
6.57944e-10
-1.40293e-11
6.65208e-10
-1.32749e-11
6.72053e-10
-1.25122e-11
6.78477e-10
-1.17415e-11
6.84476e-10
-1.09637e-11
6.90047e-10
-1.01795e-11
6.95186e-10
-9.38976e-12
6.9989e-10
-8.59469e-12
7.04155e-10
-7.79455e-12
7.07981e-10
-6.98997e-12
7.11365e-10
-6.18186e-12
7.14305e-10
-5.37076e-12
7.168e-10
-4.55711e-12
7.18849e-10
-3.7413e-12
7.20449e-10
-2.92379e-12
7.216e-10
-2.10449e-12
7.22302e-10
-1.28347e-12
7.22555e-10
-4.61174e-13
7.22358e-10
3.61668e-13
7.21711e-10
1.18416e-12
7.20615e-10
2.00558e-12
7.19069e-10
2.82567e-12
7.17073e-10
3.64467e-12
7.1463e-10
4.46277e-12
7.1174e-10
5.27929e-12
7.08406e-10
6.09343e-12
7.0463e-10
6.90413e-12
7.00411e-10
7.71081e-12
6.95752e-10
8.51338e-12
6.90657e-10
9.31181e-12
6.85127e-10
1.01055e-11
6.79167e-10
1.08939e-11
6.72779e-10
1.16761e-11
6.65968e-10
1.24515e-11
6.58738e-10
1.32193e-11
6.51091e-10
1.39784e-11
6.43034e-10
1.47288e-11
6.34571e-10
1.547e-11
6.25709e-10
1.62014e-11
6.16454e-10
1.69216e-11
6.06813e-10
1.76296e-11
5.96792e-10
1.83247e-11
5.864e-10
1.90062e-11
5.75644e-10
1.96726e-11
5.64534e-10
2.03225e-11
5.53078e-10
2.09549e-11
5.41287e-10
2.15693e-11
5.29172e-10
2.21642e-11
5.16743e-10
2.27387e-11
5.04014e-10
2.32917e-11
4.90996e-10
2.38215e-11
4.77705e-10
2.43267e-11
4.64153e-10
2.48055e-11
4.50356e-10
2.52559e-11
4.36331e-10
2.56766e-11
4.22094e-10
2.60665e-11
4.07663e-10
2.64241e-11
3.93057e-10
2.67474e-11
3.78297e-10
2.70342e-11
3.63403e-10
2.72826e-11
3.48397e-10
2.74909e-11
3.33302e-10
2.76567e-11
3.18143e-10
2.77783e-11
3.02944e-10
2.78535e-11
2.87732e-10
2.78801e-11
2.72536e-10
2.78558e-11
2.57384e-10
2.77784e-11
2.42306e-10
2.76453e-11
2.27333e-10
2.74543e-11
2.12499e-10
2.72029e-11
1.97837e-10
2.68888e-11
1.83383e-10
2.65097e-11
1.69174e-10
2.60628e-11
1.55247e-10
2.55453e-11
1.41641e-10
2.49548e-11
1.28397e-10
2.42894e-11
1.15556e-10
2.35472e-11
1.03161e-10
2.27258e-11
9.12558e-11
2.18227e-11
7.98827e-11
2.08365e-11
6.90872e-11
1.97663e-11
5.89144e-11
1.86108e-11
4.94081e-11
1.737e-11
4.06122e-11
1.60451e-11
3.25692e-11
1.46383e-11
2.53191e-11
1.31532e-11
1.8898e-11
1.15955e-11
1.3337e-11
9.97406e-12
8.65811e-12
8.3022e-12
4.87326e-12
6.59984e-12
1.9802e-12
4.89482e-12
-4.41726e-14
3.22609e-12
-1.25036e-12
1.64861e-12
-1.72542e-12
2.39658e-13
-1.60374e-12
-8.93419e-13
-1.0802e-12
-1.60449e-12
-4.21291e-13
-1.70192e-12
-9.46064e-13
-3.46064e-13
1.37921e-12
-8.1023e-13
2.30488e-12
-9.79495e-13
1.95841e-12
-5.80443e-13
6.62962e-13
6.22583e-13
-1.28832e-12
2.78025e-12
-3.67376e-12
5.99405e-12
-6.3368e-12
1.03372e-11
-9.1499e-12
1.58372e-11
-1.20275e-11
2.24948e-11
-1.49092e-11
3.03079e-11
-1.77426e-11
3.92483e-11
-2.04974e-11
4.92755e-11
-2.31546e-11
6.03472e-11
-2.56937e-11
7.24174e-11
-2.81007e-11
8.5427e-11
-3.03713e-11
9.9322e-11
-3.2502e-11
1.14049e-10
-3.44877e-11
1.29546e-10
-3.63294e-11
1.45754e-10
-3.80282e-11
1.62617e-10
-3.95857e-11
1.80077e-10
-4.10025e-11
1.98081e-10
-4.22829e-11
2.16569e-10
-4.34326e-11
2.35487e-10
-4.44542e-11
2.54788e-10
-4.5349e-11
2.74418e-10
-4.61221e-11
2.94327e-10
-4.67788e-11
3.14471e-10
-4.73241e-11
3.34803e-10
-4.7761e-11
3.55279e-10
-4.80936e-11
3.75857e-10
-4.83264e-11
3.96494e-10
-4.84636e-11
4.17155e-10
-4.85083e-11
4.378e-10
-4.84648e-11
4.58396e-10
-4.83372e-11
4.78906e-10
-4.813e-11
4.99297e-10
-4.78471e-11
5.1954e-10
-4.74912e-11
5.39605e-10
-4.70647e-11
5.59464e-10
-4.65712e-11
5.79088e-10
-4.60154e-11
5.98453e-10
-4.54009e-11
6.17534e-10
-4.47295e-11
6.36309e-10
-4.40039e-11
6.54756e-10
-4.32272e-11
6.72853e-10
-4.24026e-11
6.9058e-10
-4.15327e-11
7.07919e-10
-4.06193e-11
7.24855e-10
-3.96649e-11
7.4137e-10
-3.86727e-11
7.57447e-10
-3.76449e-11
7.73071e-10
-3.65831e-11
7.88229e-10
-3.5489e-11
8.0291e-10
-3.43647e-11
8.171e-10
-3.32124e-11
8.30789e-10
-3.20341e-11
8.43965e-10
-3.08318e-11
8.56618e-10
-2.96069e-11
8.6874e-10
-2.83607e-11
8.80321e-10
-2.70943e-11
8.91354e-10
-2.5809e-11
9.01831e-10
-2.45069e-11
9.11746e-10
-2.31896e-11
9.21091e-10
-2.18578e-11
9.29862e-10
-2.05125e-11
9.38053e-10
-1.91546e-11
9.45659e-10
-1.77853e-11
9.52676e-10
-1.64057e-11
9.59099e-10
-1.50169e-11
9.64925e-10
-1.36202e-11
9.70149e-10
-1.22163e-11
9.7477e-10
-1.08053e-11
9.78786e-10
-9.38776e-12
9.82194e-10
-7.96508e-12
9.84992e-10
-6.53856e-12
9.87179e-10
-5.10905e-12
9.88752e-10
-3.67716e-12
9.89712e-10
-2.24312e-12
9.90057e-10
-8.07262e-13
9.89788e-10
6.29871e-13
9.88904e-10
2.06731e-12
9.87407e-10
3.50382e-12
9.85296e-10
4.93828e-12
9.82572e-10
6.36994e-12
9.79236e-10
7.79869e-12
9.75291e-10
9.22413e-12
9.70738e-10
1.06454e-11
9.6558e-10
1.20614e-11
9.59819e-10
1.34711e-11
9.53459e-10
1.48739e-11
9.46502e-10
1.62687e-11
9.38954e-10
1.76544e-11
9.30817e-10
1.90303e-11
9.22097e-10
2.03956e-11
9.128e-10
2.17491e-11
9.02929e-10
2.30896e-11
8.92493e-10
2.44157e-11
8.81497e-10
2.57258e-11
8.69949e-10
2.70189e-11
8.57857e-10
2.82938e-11
8.4523e-10
2.95491e-11
8.32077e-10
3.07832e-11
8.18407e-10
3.19944e-11
8.04232e-10
3.3181e-11
7.89562e-10
3.43414e-11
7.7441e-10
3.54737e-11
7.58789e-10
3.65757e-11
7.42713e-10
3.76457e-11
7.26197e-10
3.86814e-11
7.09256e-10
3.96807e-11
6.91908e-10
4.06413e-11
6.74168e-10
4.15609e-11
6.56057e-10
4.24371e-11
6.37594e-10
4.32676e-11
6.18799e-10
4.40496e-11
5.99697e-10
4.478e-11
5.80309e-10
4.54558e-11
5.60659e-10
4.60741e-11
5.40775e-10
4.66321e-11
5.20684e-10
4.71265e-11
5.00413e-10
4.75541e-11
4.79992e-10
4.79116e-11
4.59454e-10
4.81955e-11
4.3883e-10
4.84021e-11
4.18157e-10
4.85277e-11
3.97468e-10
4.85687e-11
3.76803e-10
4.85213e-11
3.562e-10
4.83816e-11
3.357e-10
4.81458e-11
3.15346e-10
4.78095e-11
2.9518e-10
4.73686e-11
2.7525e-10
4.68191e-11
2.55602e-10
4.6157e-11
2.36286e-10
4.53787e-11
2.17351e-10
4.44798e-11
1.98851e-10
4.34561e-11
1.80838e-10
4.23036e-11
1.63367e-10
4.1019e-11
1.46494e-10
3.95996e-11
1.30276e-10
3.80421e-11
1.14769e-10
3.63439e-11
1.00032e-10
3.4504e-11
8.61218e-11
3.25216e-11
7.30957e-11
3.03971e-11
6.10083e-11
2.81329e-11
4.99124e-11
2.57338e-11
3.98568e-11
2.32077e-11
3.08846e-11
2.05663e-11
2.30323e-11
1.7826e-11
1.63249e-11
1.50104e-11
1.07733e-11
1.21526e-11
6.37041e-12
9.29881e-12
3.08522e-12
6.51212e-12
8.55642e-13
3.8788e-12
-4.19898e-13
1.51555e-12
-8.91668e-13
-4.21184e-13
-7.70426e-13
-1.72513e-12
-3.41501e-13
-2.13076e-12
-1.28739e-12
-1.98519e-13
1.574e-12
-2.6677e-13
2.38565e-12
1.61919e-13
1.53188e-12
1.37256e-12
-5.48236e-13
3.58979e-12
-3.49894e-12
6.96049e-12
-7.05022e-12
1.16041e-11
-1.09828e-11
1.75918e-11
-1.51351e-11
2.49559e-11
-1.93934e-11
3.37083e-11
-2.36624e-11
4.384e-11
-2.7873e-11
5.53189e-11
-3.19807e-11
6.8109e-11
-3.59469e-11
8.21632e-11
-3.97448e-11
9.74217e-11
-4.33569e-11
1.1382e-10
-4.67728e-11
1.31299e-10
-4.99816e-11
1.4979e-10
-5.29778e-11
1.69223e-10
-5.57615e-11
1.89527e-10
-5.83346e-11
2.10636e-10
-6.06958e-11
2.3248e-10
-6.28471e-11
2.54991e-10
-6.47943e-11
2.78101e-10
-6.65442e-11
3.01748e-10
-6.80997e-11
3.25866e-10
-6.94656e-11
3.50393e-10
-7.06497e-11
3.75267e-10
-7.16569e-11
4.00434e-10
-7.24927e-11
4.25838e-10
-7.31636e-11
4.51422e-10
-7.36768e-11
4.77135e-10
-7.40385e-11
5.02925e-10
-7.42543e-11
5.28746e-10
-7.43297e-11
5.54551e-10
-7.427e-11
5.80295e-10
-7.40818e-11
6.05936e-10
-7.37715e-11
6.31432e-10
-7.33447e-11
6.56746e-10
-7.28054e-11
6.8184e-10
-7.21587e-11
7.06679e-10
-7.14103e-11
7.31227e-10
-7.05656e-11
7.55455e-10
-6.96294e-11
7.79331e-10
-6.86055e-11
8.02827e-10
-6.74988e-11
8.25914e-10
-6.63142e-11
8.48566e-10
-6.50553e-11
8.70758e-10
-6.37259e-11
8.92468e-10
-6.23299e-11
9.13674e-10
-6.08705e-11
9.34355e-10
-5.93518e-11
9.5449e-10
-5.77785e-11
9.74061e-10
-5.61535e-11
9.9305e-10
-5.44792e-11
1.01144e-09
-5.27579e-11
1.02922e-09
-5.09928e-11
1.04637e-09
-4.91869e-11
1.06289e-09
-4.73435e-11
1.07874e-09
-4.54648e-11
1.09394e-09
-4.3553e-11
1.10845e-09
-4.16107e-11
1.12228e-09
-3.96398e-11
1.13542e-09
-3.76424e-11
1.14785e-09
-3.56205e-11
1.15957e-09
-3.3576e-11
1.17056e-09
-3.15109e-11
1.18084e-09
-2.94262e-11
1.19037e-09
-2.73236e-11
1.19917e-09
-2.52049e-11
1.20723e-09
-2.30721e-11
1.21454e-09
-2.09264e-11
1.22109e-09
-1.87693e-11
1.22689e-09
-1.66021e-11
1.23192e-09
-1.44256e-11
1.2362e-09
-1.22407e-11
1.23971e-09
-1.00492e-11
1.24245e-09
-7.85223e-12
1.24443e-09
-5.65115e-12
1.24563e-09
-3.44689e-12
1.24606e-09
-1.24051e-12
1.24573e-09
9.6691e-13
1.24462e-09
3.17433e-12
1.24274e-09
5.38076e-12
1.24009e-09
7.58523e-12
1.23668e-09
9.78631e-12
1.23249e-09
1.19824e-11
1.22755e-09
1.41723e-11
1.22184e-09
1.63551e-11
1.21537e-09
1.85299e-11
1.20815e-09
2.06952e-11
1.20017e-09
2.28495e-11
1.19145e-09
2.49917e-11
1.18198e-09
2.71202e-11
1.17178e-09
2.92331e-11
1.16085e-09
3.13289e-11
1.14919e-09
3.3406e-11
1.13682e-09
3.54629e-11
1.12373e-09
3.74979e-11
1.10995e-09
3.95086e-11
1.09548e-09
4.14928e-11
1.08032e-09
4.34486e-11
1.0645e-09
4.53741e-11
1.04802e-09
4.72666e-11
1.03089e-09
4.91235e-11
1.01313e-09
5.0942e-11
9.9475e-10
5.27195e-11
9.7577e-10
5.44536e-11
9.56204e-10
5.61411e-11
9.3607e-10
5.77791e-11
9.15386e-10
5.93647e-11
8.94174e-10
6.08942e-11
8.72452e-10
6.23641e-11
8.50245e-10
6.37703e-11
8.27574e-10
6.51089e-11
8.04465e-10
6.63766e-11
7.80945e-10
6.75695e-11
7.57041e-10
6.86836e-11
7.32783e-10
6.9714e-11
7.08201e-10
7.06561e-11
6.83329e-10
7.15052e-11
6.582e-10
7.22566e-11
6.32849e-10
7.29053e-11
6.07315e-10
7.34465e-11
5.81636e-10
7.38749e-11
5.55854e-10
7.41851e-11
5.30011e-10
7.43712e-11
5.04152e-10
7.44279e-11
4.78325e-10
7.43496e-11
4.52577e-10
7.41303e-11
4.26959e-10
7.37644e-11
4.01523e-10
7.32458e-11
3.76324e-10
7.25684e-11
3.51419e-10
7.17257e-11
3.26865e-10
7.07119e-11
3.02721e-10
6.95216e-11
2.79052e-10
6.81491e-11
2.55919e-10
6.65888e-11
2.33388e-10
6.48351e-11
2.11525e-10
6.28828e-11
1.90397e-10
6.07278e-11
1.70073e-10
5.83665e-11
1.50622e-10
5.5796e-11
1.32111e-10
5.30149e-11
1.14608e-10
5.00235e-11
9.81819e-11
4.6824e-11
8.28953e-11
4.34206e-11
6.88094e-11
3.98214e-11
5.59795e-11
3.6039e-11
4.44538e-11
3.20923e-11
3.4272e-11
2.80078e-11
2.54612e-11
2.38213e-11
1.80318e-11
1.9582e-11
1.19745e-11
1.53563e-11
7.25436e-12
1.12329e-11
3.80425e-12
7.32965e-12
1.51769e-12
3.80239e-12
2.41666e-13
8.55206e-13
-2.33738e-13
-1.24888e-12
-1.89133e-13
-2.17527e-12
-1.4764e-12
-1.25378e-15
1.58147e-12
4.17559e-13
1.9698e-12
1.58609e-12
3.63246e-13
3.76395e-12
-2.72065e-12
7.15026e-12
-6.88468e-12
1.18948e-11
-1.17962e-11
1.8109e-11
-1.71946e-11
2.58554e-11
-2.28878e-11
3.51785e-11
-2.87189e-11
4.60894e-11
-3.45693e-11
5.85703e-11
-4.03559e-11
7.25954e-11
-4.60093e-11
8.81243e-11
-5.1476e-11
1.05104e-10
-5.67227e-11
1.23468e-10
-6.17245e-11
1.43152e-10
-6.64588e-11
1.64085e-10
-7.09132e-11
1.86189e-10
-7.50813e-11
2.09386e-10
-7.89606e-11
2.33599e-10
-8.25482e-11
2.58752e-10
-8.58449e-11
2.84761e-10
-8.88556e-11
3.11547e-10
-9.15848e-11
3.39039e-10
-9.40373e-11
3.67161e-10
-9.6219e-11
3.95835e-10
-9.81392e-11
4.24991e-10
-9.98059e-11
4.54558e-10
-1.01226e-10
4.84471e-10
-1.02406e-10
5.14663e-10
-1.03356e-10
5.45068e-10
-1.04084e-10
5.75627e-10
-1.04599e-10
6.06281e-10
-1.04908e-10
6.36973e-10
-1.0502e-10
6.67648e-10
-1.04944e-10
6.98252e-10
-1.04686e-10
7.28734e-10
-1.04256e-10
7.5905e-10
-1.0366e-10
7.89152e-10
-1.02906e-10
8.18994e-10
-1.02e-10
8.48535e-10
-1.00952e-10
8.77734e-10
-9.97664e-11
9.06556e-10
-9.84506e-11
9.34962e-10
-9.70112e-11
9.62917e-10
-9.5454e-11
9.90389e-10
-9.3786e-11
1.01735e-09
-9.20128e-11
1.04376e-09
-9.01399e-11
1.0696e-09
-8.81721e-11
1.09485e-09
-8.61148e-11
1.11947e-09
-8.39731e-11
1.14344e-09
-8.17525e-11
1.16675e-09
-7.94577e-11
1.18936e-09
-7.70928e-11
1.21126e-09
-7.46619e-11
1.23244e-09
-7.21689e-11
1.25287e-09
-6.96182e-11
1.27254e-09
-6.70131e-11
1.29143e-09
-6.43574e-11
1.30954e-09
-6.16545e-11
1.32683e-09
-5.89077e-11
1.34331e-09
-5.61202e-11
1.35897e-09
-5.32949e-11
1.37378e-09
-5.04347e-11
1.38775e-09
-4.75417e-11
1.40085e-09
-4.46187e-11
1.4131e-09
-4.16685e-11
1.42447e-09
-3.86932e-11
1.43496e-09
-3.56947e-11
1.44456e-09
-3.26753e-11
1.45327e-09
-2.96375e-11
1.46108e-09
-2.65829e-11
1.46799e-09
-2.35136e-11
1.474e-09
-2.04313e-11
1.4791e-09
-1.73377e-11
1.48328e-09
-1.42348e-11
1.48655e-09
-1.1124e-11
1.48891e-09
-8.00668e-12
1.49035e-09
-4.88411e-12
1.49087e-09
-1.75833e-12
1.49046e-09
1.3685e-12
1.48915e-09
4.4948e-12
1.48691e-09
7.61934e-12
1.48375e-09
1.07407e-11
1.47968e-09
1.38574e-11
1.47469e-09
1.69676e-11
1.4688e-09
2.00694e-11
1.46199e-09
2.31609e-11
1.45428e-09
2.62402e-11
1.44567e-09
2.93056e-11
1.43616e-09
3.23557e-11
1.42577e-09
3.53881e-11
1.41448e-09
3.8401e-11
1.40233e-09
4.13919e-11
1.3893e-09
4.43584e-11
1.37541e-09
4.72981e-11
1.36066e-09
5.02084e-11
1.34507e-09
5.3087e-11
1.32865e-09
5.59311e-11
1.3114e-09
5.87375e-11
1.29335e-09
6.15031e-11
1.2745e-09
6.42251e-11
1.25486e-09
6.69003e-11
1.23446e-09
6.95251e-11
1.21331e-09
7.20953e-11
1.19142e-09
7.46069e-11
1.16882e-09
7.70562e-11
1.14552e-09
7.94394e-11
1.12155e-09
8.17518e-11
1.09692e-09
8.39892e-11
1.07167e-09
8.61469e-11
1.04582e-09
8.82199e-11
1.01938e-09
9.02029e-11
9.92402e-10
9.20903e-11
9.64902e-10
9.38765e-11
9.36916e-10
9.55563e-11
9.08475e-10
9.71239e-11
8.79616e-10
9.8573e-11
8.50376e-10
9.98972e-11
8.20792e-10
1.0109e-10
7.90905e-10
1.02144e-10
7.60758e-10
1.03053e-10
7.30394e-10
1.0381e-10
6.99862e-10
1.04408e-10
6.69208e-10
1.04838e-10
6.38485e-10
1.05095e-10
6.07745e-10
1.05168e-10
5.77043e-10
1.05052e-10
5.46437e-10
1.04738e-10
5.15985e-10
1.04217e-10
4.85749e-10
1.03481e-10
4.55794e-10
1.02524e-10
4.26184e-10
1.01335e-10
3.96989e-10
9.99076e-11
3.68278e-10
9.8233e-11
3.40123e-10
9.63043e-11
3.12598e-10
9.41142e-11
2.85777e-10
9.16557e-11
2.59738e-10
8.89223e-11
2.34558e-10
8.59086e-11
2.10314e-10
8.26105e-11
1.87086e-10
7.90249e-11
1.64951e-10
7.51507e-11
1.43985e-10
7.09892e-11
1.24263e-10
6.65448e-11
1.05857e-10
6.18253e-11
8.88348e-11
5.68434e-11
7.3257e-11
5.16175e-11
5.91759e-11
4.61741e-11
4.6634e-11
4.05502e-11
3.56601e-11
3.47956e-11
2.62658e-11
2.89765e-11
1.84419e-11
2.31804e-11
1.21536e-11
1.75215e-11
7.33496e-12
1.21488e-11
3.88271e-12
7.25471e-12
1.65106e-12
3.08686e-12
4.43892e-13
-4.09927e-14
3.78976e-15
-1.735e-12
-1.47246e-12
2.13709e-13
1.3636e-12
1.18411e-12
1.00024e-12
3.18586e-12
-1.6342e-12
6.42814e-12
-5.97206e-12
1.10988e-11
-1.15563e-11
1.73299e-11
-1.80234e-11
2.52114e-11
-2.50801e-11
3.48095e-11
-3.2491e-11
4.61635e-11
-4.00709e-11
5.92745e-11
-4.76828e-11
7.41303e-11
-5.52163e-11
9.07043e-11
-6.25829e-11
1.08945e-10
-6.97192e-11
1.288e-10
-7.65783e-11
1.50201e-10
-8.31259e-11
1.73075e-10
-8.93331e-11
1.97346e-10
-9.51826e-11
2.22927e-10
-1.00665e-10
2.49736e-10
-1.05772e-10
2.77689e-10
-1.105e-10
3.06697e-10
-1.14851e-10
3.36671e-10
-1.1883e-10
3.67526e-10
-1.22441e-10
3.99178e-10
-1.25688e-10
4.3154e-10
-1.28581e-10
4.64529e-10
-1.3113e-10
4.98066e-10
-1.33344e-10
5.32073e-10
-1.35232e-10
5.66471e-10
-1.36804e-10
6.01187e-10
-1.38071e-10
6.36147e-10
-1.39045e-10
6.71283e-10
-1.39736e-10
7.06528e-10
-1.40154e-10
7.41817e-10
-1.40309e-10
7.77087e-10
-1.40213e-10
8.12277e-10
-1.39877e-10
8.47331e-10
-1.39311e-10
8.82194e-10
-1.38523e-10
9.16813e-10
-1.37524e-10
9.51136e-10
-1.36324e-10
9.85115e-10
-1.34932e-10
1.01871e-09
-1.33357e-10
1.05186e-09
-1.31607e-10
1.08454e-09
-1.29692e-10
1.11671e-09
-1.27621e-10
1.14832e-09
-1.25399e-10
1.17935e-09
-1.23037e-10
1.20975e-09
-1.2054e-10
1.23949e-09
-1.17916e-10
1.26855e-09
-1.15173e-10
1.29689e-09
-1.12316e-10
1.32449e-09
-1.09354e-10
1.35133e-09
-1.06291e-10
1.37737e-09
-1.03133e-10
1.40259e-09
-9.98863e-11
1.42698e-09
-9.65562e-11
1.45051e-09
-9.31487e-11
1.47316e-09
-8.96684e-11
1.49493e-09
-8.61194e-11
1.51578e-09
-8.25063e-11
1.5357e-09
-7.88341e-11
1.55469e-09
-7.51074e-11
1.57273e-09
-7.13295e-11
1.58979e-09
-6.75039e-11
1.60589e-09
-6.36344e-11
1.62099e-09
-5.97243e-11
1.6351e-09
-5.57767e-11
1.6482e-09
-5.17952e-11
1.66029e-09
-4.77832e-11
1.67136e-09
-4.37432e-11
1.6814e-09
-3.96781e-11
1.69041e-09
-3.55899e-11
1.69837e-09
-3.14812e-11
1.7053e-09
-2.73549e-11
1.71117e-09
-2.32137e-11
1.716e-09
-1.90598e-11
1.71977e-09
-1.48952e-11
1.72248e-09
-1.0722e-11
1.72414e-09
-6.5422e-12
1.72474e-09
-2.35772e-12
1.72428e-09
1.829e-12
1.72276e-09
6.01521e-12
1.72018e-09
1.01985e-11
1.71655e-09
1.43771e-11
1.71185e-09
1.85493e-11
1.70611e-09
2.27126e-11
1.69931e-09
2.68646e-11
1.69147e-09
3.10027e-11
1.68259e-09
3.51247e-11
1.67266e-09
3.9228e-11
1.66171e-09
4.331e-11
1.64973e-09
4.73681e-11
1.63673e-09
5.13995e-11
1.62272e-09
5.54013e-11
1.60771e-09
5.93703e-11
1.5917e-09
6.33032e-11
1.57472e-09
6.71964e-11
1.55676e-09
7.10464e-11
1.53784e-09
7.48496e-11
1.51797e-09
7.86022e-11
1.49717e-09
8.23e-11
1.47546e-09
8.59388e-11
1.45285e-09
8.95139e-11
1.42935e-09
9.3021e-11
1.40499e-09
9.64548e-11
1.37979e-09
9.98102e-11
1.35376e-09
1.03082e-10
1.32694e-09
1.06264e-10
1.29934e-09
1.09352e-10
1.27099e-09
1.12338e-10
1.24192e-09
1.15217e-10
1.21216e-09
1.17982e-10
1.18174e-09
1.20626e-10
1.15068e-09
1.23142e-10
1.11904e-09
1.25523e-10
1.08683e-09
1.2776e-10
1.05411e-09
1.29848e-10
1.02091e-09
1.31776e-10
9.87268e-10
1.33537e-10
9.53235e-10
1.35122e-10
9.18857e-10
1.36523e-10
8.84182e-10
1.37729e-10
8.4926e-10
1.38733e-10
8.14146e-10
1.39523e-10
7.78894e-10
1.40091e-10
7.43562e-10
1.40426e-10
7.08213e-10
1.40519e-10
6.72907e-10
1.40358e-10
6.3771e-10
1.39935e-10
6.02691e-10
1.39237e-10
5.67918e-10
1.38255e-10
5.33464e-10
1.36978e-10
4.99403e-10
1.35395e-10
4.65813e-10
1.33497e-10
4.32773e-10
1.31274e-10
4.00363e-10
1.28715e-10
3.68665e-10
1.25812e-10
3.37765e-10
1.22556e-10
3.07747e-10
1.18941e-10
2.78698e-10
1.14958e-10
2.50703e-10
1.10605e-10
2.2385e-10
1.05878e-10
1.98224e-10
1.00777e-10
1.73909e-10
9.53047e-11
1.50987e-10
8.94673e-11
1.29535e-10
8.3277e-11
1.09627e-10
7.67516e-11
9.1327e-11
6.99169e-11
7.4693e-11
6.28082e-11
5.97699e-11
5.54735e-11
4.65896e-11
4.79765e-11
3.51661e-11
4.04004e-11
2.5493e-11
3.28535e-11
1.75397e-11
2.5475e-11
1.12467e-11
1.84423e-11
6.52042e-12
1.19812e-11
3.23024e-12
6.37701e-12
1.20336e-12
1.98642e-12
2.17804e-13
-7.49355e-13
-1.25457e-12
4.40991e-13
9.24895e-13
1.99349e-12
-5.53902e-13
4.87477e-12
-4.51711e-12
9.25521e-12
-1.03552e-11
1.52812e-11
-1.75841e-11
2.30663e-11
-2.58095e-11
3.26873e-11
-3.47039e-11
4.41998e-11
-4.40023e-11
5.76267e-11
-5.34997e-11
7.29694e-11
-6.30303e-11
9.02154e-11
-7.24617e-11
1.09329e-10
-8.16934e-11
1.30256e-10
-9.06485e-11
1.52937e-10
-9.92654e-11
1.77308e-10
-1.07496e-10
2.03285e-10
-1.15309e-10
2.30787e-10
-1.22684e-10
2.59723e-10
-1.29603e-10
2.90007e-10
-1.36055e-10
3.21543e-10
-1.42035e-10
3.54236e-10
-1.47546e-10
3.87994e-10
-1.52589e-10
4.22723e-10
-1.57169e-10
4.58329e-10
-1.61292e-10
4.94718e-10
-1.64971e-10
5.318e-10
-1.68215e-10
5.69488e-10
-1.71033e-10
6.07696e-10
-1.73439e-10
6.46337e-10
-1.75445e-10
6.8533e-10
-1.77064e-10
7.24594e-10
-1.78311e-10
7.64054e-10
-1.79196e-10
8.03634e-10
-1.79733e-10
8.43263e-10
-1.79937e-10
8.82869e-10
-1.79821e-10
9.22388e-10
-1.79397e-10
9.61754e-10
-1.78678e-10
1.00091e-09
-1.77676e-10
1.03979e-09
-1.76404e-10
1.07834e-09
-1.74874e-10
1.1165e-09
-1.73099e-10
1.15423e-09
-1.71088e-10
1.19148e-09
-1.68853e-10
1.2282e-09
-1.66407e-10
1.26433e-09
-1.63759e-10
1.29985e-09
-1.60919e-10
1.33471e-09
-1.57896e-10
1.36887e-09
-1.54701e-10
1.4023e-09
-1.51342e-10
1.43495e-09
-1.47829e-10
1.46681e-09
-1.44172e-10
1.49783e-09
-1.40377e-10
1.52799e-09
-1.36452e-10
1.55727e-09
-1.32406e-10
1.58563e-09
-1.28244e-10
1.61304e-09
-1.23975e-10
1.6395e-09
-1.19606e-10
1.66497e-09
-1.15142e-10
1.68945e-09
-1.1059e-10
1.71289e-09
-1.05956e-10
1.7353e-09
-1.01244e-10
1.75666e-09
-9.64617e-11
1.77694e-09
-9.16131e-11
1.79614e-09
-8.6703e-11
1.81424e-09
-8.17359e-11
1.83123e-09
-7.67162e-11
1.8471e-09
-7.1648e-11
1.86184e-09
-6.65357e-11
1.87545e-09
-6.13834e-11
1.8879e-09
-5.61951e-11
1.89919e-09
-5.09741e-11
1.90933e-09
-4.57235e-11
1.91829e-09
-4.04465e-11
1.92608e-09
-3.51465e-11
1.9327e-09
-2.98267e-11
1.93813e-09
-2.44902e-11
1.94237e-09
-1.91399e-11
1.94543e-09
-1.37783e-11
1.94729e-09
-8.40822e-12
1.94797e-09
-3.03278e-12
1.94745e-09
2.3452e-12
1.94574e-09
7.72313e-12
1.94284e-09
1.30981e-11
1.93875e-09
1.84669e-11
1.93348e-09
2.38266e-11
1.92701e-09
2.91747e-11
1.91937e-09