/*--------------------------------*- C++ -*----------------------------------*\
  =========                 |
  \\      /  F ield         | OpenFOAM: The Open Source CFD Toolbox
   \\    /   O peration     | Website:  https://openfoam.org
    \\  /    A nd           | Version:  7
     \\/     M anipulation  |
\*---------------------------------------------------------------------------*/
FoamFile
{
    version     2.0;
    format      ascii;
    class       volVectorField;
    location    "0.2625";
    object      U;
}
// * * * * * * * * * * * * * * * * * * * * * * * * * * * * * * * * * * * * * //

dimensions      [0 1 -1 0 0 0 0];

internalField   nonuniform List<vector> 
51200
(
(-1.63746e-09 1.88893e-08 0)
(-3.25456e-08 3.11817e-08 0)
(-1.13181e-07 3.53523e-08 0)
(-1.84452e-07 3.00878e-08 0)
(-2.34638e-07 2.09743e-08 0)
(-2.53616e-07 1.00516e-08 0)
(-2.3918e-07 -1.8e-09 0)
(-1.88568e-07 -1.34447e-08 0)
(-1.01511e-07 -2.49236e-08 0)
(2.14256e-08 -3.64585e-08 0)
(1.79564e-07 -4.72119e-08 0)
(3.71431e-07 -5.71863e-08 0)
(5.95177e-07 -6.67765e-08 0)
(8.49765e-07 -7.54914e-08 0)
(1.13337e-06 -8.37196e-08 0)
(1.44348e-06 -9.1797e-08 0)
(1.77864e-06 -9.88775e-08 0)
(2.13733e-06 -1.05247e-07 0)
(2.51733e-06 -1.11388e-07 0)
(2.91699e-06 -1.16978e-07 0)
(3.33485e-06 -1.21869e-07 0)
(3.76906e-06 -1.2636e-07 0)
(4.21783e-06 -1.30383e-07 0)
(4.67983e-06 -1.33933e-07 0)
(5.15377e-06 -1.37026e-07 0)
(5.63794e-06 -1.39833e-07 0)
(6.1307e-06 -1.42304e-07 0)
(6.63106e-06 -1.44234e-07 0)
(7.13789e-06 -1.4564e-07 0)
(7.64978e-06 -1.46756e-07 0)
(8.16553e-06 -1.4773e-07 0)
(8.68409e-06 -1.48391e-07 0)
(9.20444e-06 -1.48679e-07 0)
(9.72551e-06 -1.48697e-07 0)
(1.02462e-05 -1.48419e-07 0)
(1.07657e-05 -1.47833e-07 0)
(1.12832e-05 -1.46997e-07 0)
(1.1798e-05 -1.4596e-07 0)
(1.23091e-05 -1.44769e-07 0)
(1.28156e-05 -1.43402e-07 0)
(1.33169e-05 -1.41811e-07 0)
(1.38124e-05 -1.39999e-07 0)
(1.43015e-05 -1.37979e-07 0)
(1.47835e-05 -1.35879e-07 0)
(1.52577e-05 -1.33644e-07 0)
(1.57238e-05 -1.31244e-07 0)
(1.61811e-05 -1.28609e-07 0)
(1.66292e-05 -1.25822e-07 0)
(1.70675e-05 -1.22959e-07 0)
(1.74957e-05 -1.19977e-07 0)
(1.79134e-05 -1.16876e-07 0)
(1.83202e-05 -1.13667e-07 0)
(1.87157e-05 -1.10403e-07 0)
(1.90996e-05 -1.07067e-07 0)
(1.94715e-05 -1.03621e-07 0)
(1.98311e-05 -1.00047e-07 0)
(2.01783e-05 -9.64031e-08 0)
(2.05128e-05 -9.27317e-08 0)
(2.08344e-05 -8.9022e-08 0)
(2.11427e-05 -8.52881e-08 0)
(2.14374e-05 -8.15197e-08 0)
(2.17184e-05 -7.76746e-08 0)
(2.19857e-05 -7.37025e-08 0)
(2.2239e-05 -6.96426e-08 0)
(2.24783e-05 -6.55785e-08 0)
(2.27032e-05 -6.15264e-08 0)
(2.29138e-05 -5.74636e-08 0)
(2.31099e-05 -5.33539e-08 0)
(2.32913e-05 -4.92096e-08 0)
(2.34581e-05 -4.50405e-08 0)
(2.36101e-05 -4.08589e-08 0)
(2.37472e-05 -3.66602e-08 0)
(2.38693e-05 -3.24192e-08 0)
(2.39763e-05 -2.81379e-08 0)
(2.40682e-05 -2.38192e-08 0)
(2.41451e-05 -1.94756e-08 0)
(2.42068e-05 -1.51622e-08 0)
(2.42535e-05 -1.09162e-08 0)
(2.42849e-05 -6.70547e-09 0)
(2.4301e-05 -2.46956e-09 0)
(2.43019e-05 1.81782e-09 0)
(2.42875e-05 6.16284e-09 0)
(2.4258e-05 1.055e-08 0)
(2.42132e-05 1.49216e-08 0)
(2.41533e-05 1.92106e-08 0)
(2.40781e-05 2.34104e-08 0)
(2.39878e-05 2.75802e-08 0)
(2.38823e-05 3.17758e-08 0)
(2.37617e-05 3.60343e-08 0)
(2.36262e-05 4.03489e-08 0)
(2.34757e-05 4.46648e-08 0)
(2.33104e-05 4.89251e-08 0)
(2.31303e-05 5.31088e-08 0)
(2.29356e-05 5.7214e-08 0)
(2.27262e-05 6.1266e-08 0)
(2.25024e-05 6.53091e-08 0)
(2.22642e-05 6.9355e-08 0)
(2.20118e-05 7.34037e-08 0)
(2.17453e-05 7.74165e-08 0)
(2.1465e-05 8.13518e-08 0)
(2.11709e-05 8.51972e-08 0)
(2.08633e-05 8.89689e-08 0)
(2.05423e-05 9.26911e-08 0)
(2.02082e-05 9.63731e-08 0)
(1.98613e-05 1.00003e-07 0)
(1.95019e-05 1.0356e-07 0)
(1.913e-05 1.07053e-07 0)
(1.87462e-05 1.10478e-07 0)
(1.83507e-05 1.13812e-07 0)
(1.79438e-05 1.1703e-07 0)
(1.75259e-05 1.20111e-07 0)
(1.70975e-05 1.23067e-07 0)
(1.66588e-05 1.25903e-07 0)
(1.62104e-05 1.28611e-07 0)
(1.57526e-05 1.31207e-07 0)
(1.52861e-05 1.337e-07 0)
(1.48112e-05 1.36073e-07 0)
(1.43287e-05 1.38278e-07 0)
(1.38391e-05 1.40272e-07 0)
(1.3343e-05 1.42058e-07 0)
(1.2841e-05 1.4365e-07 0)
(1.23338e-05 1.45049e-07 0)
(1.18221e-05 1.46254e-07 0)
(1.13068e-05 1.47263e-07 0)
(1.07885e-05 1.48045e-07 0)
(1.02683e-05 1.48563e-07 0)
(9.74685e-06 1.48805e-07 0)
(9.22518e-06 1.48775e-07 0)
(8.70429e-06 1.48477e-07 0)
(8.18521e-06 1.47892e-07 0)
(7.66903e-06 1.46984e-07 0)
(7.1568e-06 1.45739e-07 0)
(6.6497e-06 1.4415e-07 0)
(6.14895e-06 1.42194e-07 0)
(5.65579e-06 1.39859e-07 0)
(5.17156e-06 1.37145e-07 0)
(4.69767e-06 1.34021e-07 0)
(4.23559e-06 1.30449e-07 0)
(3.7868e-06 1.26398e-07 0)
(3.35282e-06 1.21863e-07 0)
(2.9352e-06 1.16858e-07 0)
(2.53556e-06 1.11377e-07 0)
(2.15564e-06 1.05379e-07 0)
(1.79716e-06 9.8828e-08 0)
(1.46187e-06 9.17031e-08 0)
(1.15158e-06 8.39775e-08 0)
(8.68113e-07 7.56351e-08 0)
(6.13256e-07 6.66912e-08 0)
(3.88731e-07 5.71846e-08 0)
(1.96215e-07 4.71462e-08 0)
(3.72687e-08 3.65843e-08 0)
(-8.67886e-08 2.55034e-08 0)
(-1.75071e-07 1.39971e-08 0)
(-2.27333e-07 2.31283e-09 0)
(-2.44267e-07 -9.13154e-09 0)
(-2.28092e-07 -1.96163e-08 0)
(-1.83357e-07 -2.78621e-08 0)
(-1.18627e-07 -3.15742e-08 0)
(-5.14903e-08 -2.68516e-08 0)
(-1.01267e-08 -1.01153e-08 0)
(-2.49511e-08 7.23138e-08 0)
(-1.07458e-07 1.23219e-07 0)
(-2.28139e-07 1.32408e-07 0)
(-3.33962e-07 1.04728e-07 0)
(-3.85127e-07 5.61892e-08 0)
(-3.6402e-07 -5.13604e-09 0)
(-2.58049e-07 -7.26983e-08 0)
(-6.01155e-08 -1.42634e-07 0)
(2.32376e-07 -2.1341e-07 0)
(6.20322e-07 -2.82968e-07 0)
(1.10283e-06 -3.50594e-07 0)
(1.67595e-06 -4.15683e-07 0)
(2.33724e-06 -4.7739e-07 0)
(3.08255e-06 -5.35317e-07 0)
(3.90723e-06 -5.90296e-07 0)
(4.80717e-06 -6.41996e-07 0)
(5.7775e-06 -6.89641e-07 0)
(6.81288e-06 -7.33886e-07 0)
(7.90892e-06 -7.74799e-07 0)
(9.06125e-06 -8.12258e-07 0)
(1.02649e-05 -8.46249e-07 0)
(1.15152e-05 -8.77245e-07 0)
(1.28076e-05 -9.05081e-07 0)
(1.41381e-05 -9.29699e-07 0)
(1.55025e-05 -9.51363e-07 0)
(1.68967e-05 -9.70665e-07 0)
(1.83166e-05 -9.87394e-07 0)
(1.97587e-05 -1.00125e-06 0)
(2.12193e-05 -1.01244e-06 0)
(2.26947e-05 -1.02133e-06 0)
(2.41818e-05 -1.02809e-06 0)
(2.56777e-05 -1.0327e-06 0)
(2.71791e-05 -1.0352e-06 0)
(2.86829e-05 -1.03581e-06 0)
(3.01864e-05 -1.03457e-06 0)
(3.16869e-05 -1.03136e-06 0)
(3.31819e-05 -1.02639e-06 0)
(3.46691e-05 -1.01981e-06 0)
(3.6146e-05 -1.01183e-06 0)
(3.76105e-05 -1.00245e-06 0)
(3.90605e-05 -9.91591e-07 0)
(4.04941e-05 -9.7929e-07 0)
(4.19093e-05 -9.65703e-07 0)
(4.33041e-05 -9.51095e-07 0)
(4.46771e-05 -9.35405e-07 0)
(4.60267e-05 -9.18628e-07 0)
(4.73514e-05 -9.00763e-07 0)
(4.86495e-05 -8.81917e-07 0)
(4.99198e-05 -8.62263e-07 0)
(5.1161e-05 -8.41739e-07 0)
(5.23719e-05 -8.20385e-07 0)
(5.35514e-05 -7.98263e-07 0)
(5.46985e-05 -7.75508e-07 0)
(5.58122e-05 -7.52184e-07 0)
(5.68913e-05 -7.28265e-07 0)
(5.79351e-05 -7.03667e-07 0)
(5.89427e-05 -6.78408e-07 0)
(5.99136e-05 -6.52666e-07 0)
(6.08468e-05 -6.2653e-07 0)
(6.17418e-05 -6.00061e-07 0)
(6.25978e-05 -5.73256e-07 0)
(6.34145e-05 -5.46064e-07 0)
(6.41911e-05 -5.18435e-07 0)
(6.49272e-05 -4.90411e-07 0)
(6.56222e-05 -4.62118e-07 0)
(6.62759e-05 -4.33595e-07 0)
(6.68879e-05 -4.0486e-07 0)
(6.74578e-05 -3.75887e-07 0)
(6.79853e-05 -3.46688e-07 0)
(6.84701e-05 -3.17273e-07 0)
(6.89118e-05 -2.87691e-07 0)
(6.93103e-05 -2.58009e-07 0)
(6.96654e-05 -2.28227e-07 0)
(6.99768e-05 -1.9833e-07 0)
(7.02444e-05 -1.68285e-07 0)
(7.0468e-05 -1.38061e-07 0)
(7.06475e-05 -1.0774e-07 0)
(7.0783e-05 -7.74369e-08 0)
(7.08742e-05 -4.7213e-08 0)
(7.09213e-05 -1.70023e-08 0)
(7.0924e-05 1.32584e-08 0)
(7.08825e-05 4.35952e-08 0)
(7.07966e-05 7.39931e-08 0)
(7.06664e-05 1.04407e-07 0)
(7.04919e-05 1.34755e-07 0)
(7.02733e-05 1.64958e-07 0)
(7.00107e-05 1.95001e-07 0)
(6.97043e-05 2.24911e-07 0)
(6.93541e-05 2.54747e-07 0)
(6.89603e-05 2.84571e-07 0)
(6.8523e-05 3.14333e-07 0)
(6.80425e-05 3.43932e-07 0)
(6.7519e-05 3.73315e-07 0)
(6.6953e-05 4.02464e-07 0)
(6.63447e-05 4.31344e-07 0)
(6.56944e-05 4.59976e-07 0)
(6.50026e-05 4.88358e-07 0)
(6.42695e-05 5.16515e-07 0)
(6.34955e-05 5.44417e-07 0)
(6.26812e-05 5.71958e-07 0)
(6.18273e-05 5.99052e-07 0)
(6.09342e-05 6.25697e-07 0)
(6.00026e-05 6.51926e-07 0)
(5.90331e-05 6.77717e-07 0)
(5.80265e-05 7.0302e-07 0)
(5.69835e-05 7.27765e-07 0)
(5.59049e-05 7.51936e-07 0)
(5.47916e-05 7.75531e-07 0)
(5.36446e-05 7.98482e-07 0)
(5.24648e-05 8.20732e-07 0)
(5.12535e-05 8.42217e-07 0)
(5.00116e-05 8.62875e-07 0)
(4.87406e-05 8.82671e-07 0)
(4.74415e-05 9.0153e-07 0)
(4.61159e-05 9.19411e-07 0)
(4.47651e-05 9.36316e-07 0)
(4.33905e-05 9.52223e-07 0)
(4.19939e-05 9.6705e-07 0)
(4.05771e-05 9.80646e-07 0)
(3.91418e-05 9.92901e-07 0)
(3.769e-05 1.00378e-06 0)
(3.62237e-05 1.01325e-06 0)
(3.47448e-05 1.02124e-06 0)
(3.32558e-05 1.02772e-06 0)
(3.17587e-05 1.03258e-06 0)
(3.02563e-05 1.0357e-06 0)
(2.87509e-05 1.03697e-06 0)
(2.72454e-05 1.03634e-06 0)
(2.57425e-05 1.03374e-06 0)
(2.42452e-05 1.02907e-06 0)
(2.27566e-05 1.02224e-06 0)
(2.12798e-05 1.01313e-06 0)
(1.98182e-05 1.00166e-06 0)
(1.83752e-05 9.87707e-07 0)
(1.69545e-05 9.71147e-07 0)
(1.55599e-05 9.51923e-07 0)
(1.41951e-05 9.2996e-07 0)
(1.28642e-05 9.05128e-07 0)
(1.15715e-05 8.7727e-07 0)
(1.03213e-05 8.46263e-07 0)
(9.1179e-06 8.1206e-07 0)
(7.96577e-06 7.74628e-07 0)
(6.86952e-06 7.33852e-07 0)
(5.83386e-06 6.89632e-07 0)
(4.8635e-06 6.41935e-07 0)
(3.96314e-06 5.90724e-07 0)
(3.13752e-06 5.35987e-07 0)
(2.3912e-06 4.77793e-07 0)
(1.72847e-06 4.16316e-07 0)
(1.1532e-06 3.51862e-07 0)
(6.68691e-07 2.84889e-07 0)
(2.7746e-07 2.16004e-07 0)
(-1.91924e-08 1.46151e-07 0)
(-2.21878e-07 7.6909e-08 0)
(-3.33869e-07 1.07394e-08 0)
(-3.62219e-07 -4.857e-08 0)
(-3.19109e-07 -9.51708e-08 0)
(-2.23946e-07 -1.20051e-07 0)
(-1.09973e-07 -1.10021e-07 0)
(-2.67872e-08 -5.13904e-08 0)
(-3.12572e-08 1.31981e-07 0)
(-1.20606e-07 2.43625e-07 0)
(-2.33941e-07 2.47144e-07 0)
(-3.05337e-07 1.71629e-07 0)
(-2.94943e-07 4.37338e-08 0)
(-1.74723e-07 -1.16723e-07 0)
(7.18755e-08 -2.95604e-07 0)
(4.55705e-07 -4.84205e-07 0)
(9.82424e-07 -6.75664e-07 0)
(1.65431e-06 -8.65603e-07 0)
(2.46928e-06 -1.05195e-06 0)
(3.4254e-06 -1.23215e-06 0)
(4.51755e-06 -1.40436e-06 0)
(5.73996e-06 -1.56825e-06 0)
(7.08651e-06 -1.723e-06 0)
(8.55115e-06 -1.86815e-06 0)
(1.01263e-05 -2.00404e-06 0)
(1.18047e-05 -2.13044e-06 0)
(1.35792e-05 -2.24703e-06 0)
(1.54428e-05 -2.35411e-06 0)
(1.73881e-05 -2.45213e-06 0)
(1.94081e-05 -2.54126e-06 0)
(2.14958e-05 -2.62158e-06 0)
(2.36447e-05 -2.69309e-06 0)
(2.58477e-05 -2.7564e-06 0)
(2.80986e-05 -2.81201e-06 0)
(3.03915e-05 -2.85996e-06 0)
(3.27206e-05 -2.90051e-06 0)
(3.50797e-05 -2.93407e-06 0)
(3.74631e-05 -2.96082e-06 0)
(3.98658e-05 -2.98081e-06 0)
(4.22829e-05 -2.99455e-06 0)
(4.47092e-05 -3.00243e-06 0)
(4.71399e-05 -3.00469e-06 0)
(4.95707e-05 -3.00153e-06 0)
(5.19973e-05 -2.9931e-06 0)
(5.44155e-05 -2.97961e-06 0)
(5.68213e-05 -2.96141e-06 0)
(5.9211e-05 -2.93875e-06 0)
(6.1581e-05 -2.91179e-06 0)
(6.39281e-05 -2.88071e-06 0)
(6.6249e-05 -2.8457e-06 0)
(6.85404e-05 -2.80705e-06 0)
(7.07994e-05 -2.76499e-06 0)
(7.30235e-05 -2.71963e-06 0)
(7.52099e-05 -2.67111e-06 0)
(7.73563e-05 -2.61965e-06 0)
(7.94601e-05 -2.56544e-06 0)
(8.15191e-05 -2.50862e-06 0)
(8.35313e-05 -2.44934e-06 0)
(8.54947e-05 -2.38764e-06 0)
(8.74076e-05 -2.32369e-06 0)
(8.92679e-05 -2.25771e-06 0)
(9.10741e-05 -2.18991e-06 0)
(9.28248e-05 -2.12041e-06 0)
(9.45185e-05 -2.04918e-06 0)
(9.61539e-05 -1.97624e-06 0)
(9.77294e-05 -1.90173e-06 0)
(9.92441e-05 -1.82583e-06 0)
(0.000100697 -1.74868e-06 0)
(0.000102086 -1.67036e-06 0)
(0.000103412 -1.59099e-06 0)
(0.000104673 -1.51064e-06 0)
(0.000105869 -1.42937e-06 0)
(0.000106998 -1.34718e-06 0)
(0.000108059 -1.26415e-06 0)
(0.000109053 -1.18036e-06 0)
(0.000109979 -1.0959e-06 0)
(0.000110836 -1.01084e-06 0)
(0.000111623 -9.25185e-07 0)
(0.000112341 -8.38995e-07 0)
(0.000112988 -7.52372e-07 0)
(0.000113565 -6.65415e-07 0)
(0.000114071 -5.78163e-07 0)
(0.000114506 -4.90637e-07 0)
(0.00011487 -4.02804e-07 0)
(0.000115162 -3.14707e-07 0)
(0.000115382 -2.26409e-07 0)
(0.00011553 -1.38014e-07 0)
(0.000115606 -4.95539e-08 0)
(0.000115611 3.89449e-08 0)
(0.000115543 1.27422e-07 0)
(0.000115404 2.15817e-07 0)
(0.000115193 3.04133e-07 0)
(0.000114909 3.92398e-07 0)
(0.000114554 4.8057e-07 0)
(0.000114127 5.68505e-07 0)
(0.000113629 6.56096e-07 0)
(0.000113061 7.43275e-07 0)
(0.000112421 8.30064e-07 0)
(0.00011171 9.16474e-07 0)
(0.00011093 1.00247e-06 0)
(0.00011008 1.08798e-06 0)
(0.000109161 1.17293e-06 0)
(0.000108173 1.2572e-06 0)
(0.000107117 1.34071e-06 0)
(0.000105993 1.42339e-06 0)
(0.000104803 1.50518e-06 0)
(0.000103546 1.5861e-06 0)
(0.000102224 1.66606e-06 0)
(0.000100838 1.74494e-06 0)
(9.93886e-05 1.82257e-06 0)
(9.78766e-05 1.89891e-06 0)
(9.63034e-05 1.97387e-06 0)
(9.467e-05 2.04735e-06 0)
(9.29778e-05 2.11921e-06 0)
(9.12282e-05 2.1893e-06 0)
(8.94225e-05 2.25756e-06 0)
(8.75623e-05 2.32391e-06 0)
(8.56494e-05 2.3882e-06 0)
(8.36854e-05 2.45033e-06 0)
(8.16723e-05 2.51012e-06 0)
(7.9612e-05 2.56741e-06 0)
(7.75067e-05 2.62203e-06 0)
(7.53586e-05 2.67377e-06 0)
(7.31701e-05 2.72247e-06 0)
(7.09437e-05 2.76802e-06 0)
(6.8682e-05 2.81033e-06 0)
(6.63878e-05 2.84919e-06 0)
(6.40641e-05 2.88434e-06 0)
(6.17141e-05 2.91552e-06 0)
(5.93409e-05 2.94255e-06 0)
(5.6948e-05 2.96524e-06 0)
(5.4539e-05 2.98338e-06 0)
(5.21177e-05 2.99678e-06 0)
(4.96879e-05 3.00517e-06 0)
(4.7254e-05 3.0083e-06 0)
(4.48203e-05 3.00592e-06 0)
(4.23912e-05 2.99779e-06 0)
(3.99716e-05 2.98364e-06 0)
(3.75663e-05 2.96323e-06 0)
(3.51804e-05 2.93628e-06 0)
(3.28194e-05 2.90253e-06 0)
(3.04887e-05 2.86171e-06 0)
(2.81941e-05 2.8135e-06 0)
(2.59417e-05 2.75759e-06 0)
(2.37375e-05 2.69377e-06 0)
(2.15879e-05 2.6218e-06 0)
(1.94994e-05 2.54143e-06 0)
(1.74789e-05 2.45233e-06 0)
(1.55331e-05 2.35423e-06 0)
(1.36691e-05 2.24699e-06 0)
(1.18938e-05 2.13046e-06 0)
(1.02146e-05 2.00448e-06 0)
(8.63853e-06 1.86901e-06 0)
(7.17266e-06 1.72414e-06 0)
(5.82394e-06 1.57e-06 0)
(4.59901e-06 1.40694e-06 0)
(3.50401e-06 1.2355e-06 0)
(2.5444e-06 1.05659e-06 0)
(1.72453e-06 8.71698e-07 0)
(1.04725e-06 6.82966e-07 0)
(5.13525e-07 4.93398e-07 0)
(1.21559e-07 3.07368e-07 0)
(-1.34244e-07 1.31249e-07 0)
(-2.64526e-07 -2.57805e-08 0)
(-2.86269e-07 -1.50603e-07 0)
(-2.24628e-07 -2.24821e-07 0)
(-1.1982e-07 -2.23826e-07 0)
(-3.14417e-08 -1.18346e-07 0)
(-2.80376e-08 1.97378e-07 0)
(-9.78814e-08 3.44538e-07 0)
(-1.59776e-07 3.1895e-07 0)
(-1.52678e-07 1.66138e-07 0)
(-3.17215e-08 -7.40938e-08 0)
(2.3199e-07 -3.70974e-07 0)
(6.58477e-07 -7.03038e-07 0)
(1.26122e-06 -1.05406e-06 0)
(2.04802e-06 -1.41226e-06 0)
(3.02049e-06 -1.77016e-06 0)
(4.17914e-06 -2.12174e-06 0)
(5.52052e-06 -2.46291e-06 0)
(7.03958e-06 -2.79122e-06 0)
(8.72932e-06 -3.10461e-06 0)
(1.05827e-05 -3.40114e-06 0)
(1.25912e-05 -3.68033e-06 0)
(1.47459e-05 -3.94214e-06 0)
(1.70379e-05 -4.18602e-06 0)
(1.94581e-05 -4.41183e-06 0)
(2.19969e-05 -4.61969e-06 0)
(2.46448e-05 -4.81025e-06 0)
(2.73929e-05 -4.98354e-06 0)
(3.02323e-05 -5.13996e-06 0)
(3.31537e-05 -5.28012e-06 0)
(3.61483e-05 -5.40453e-06 0)
(3.92079e-05 -5.51347e-06 0)
(4.23243e-05 -5.60742e-06 0)
(4.54894e-05 -5.68717e-06 0)
(4.86955e-05 -5.75339e-06 0)
(5.19353e-05 -5.80639e-06 0)
(5.52017e-05 -5.84651e-06 0)
(5.84876e-05 -5.87439e-06 0)
(6.17864e-05 -5.89066e-06 0)
(6.50918e-05 -5.89575e-06 0)
(6.83977e-05 -5.8901e-06 0)
(7.16984e-05 -5.87425e-06 0)
(7.49881e-05 -5.84865e-06 0)
(7.82615e-05 -5.81389e-06 0)
(8.15135e-05 -5.77024e-06 0)
(8.47393e-05 -5.71803e-06 0)
(8.79343e-05 -5.65772e-06 0)
(9.1094e-05 -5.58983e-06 0)
(9.42141e-05 -5.51479e-06 0)
(9.72907e-05 -5.43288e-06 0)
(0.00010032 -5.34439e-06 0)
(0.000103299 -5.2497e-06 0)
(0.000106223 -5.14922e-06 0)
(0.00010909 -5.04327e-06 0)
(0.000111896 -4.93204e-06 0)
(0.000114638 -4.81591e-06 0)
(0.000117315 -4.69517e-06 0)
(0.000119923 -4.57006e-06 0)
(0.00012246 -4.44087e-06 0)
(0.000124923 -4.30784e-06 0)
(0.00012731 -4.17121e-06 0)
(0.000129621 -4.03123e-06 0)
(0.000131851 -3.88809e-06 0)
(0.000134001 -3.742e-06 0)
(0.000136068 -3.59316e-06 0)
(0.00013805 -3.44174e-06 0)
(0.000139947 -3.28787e-06 0)
(0.000141756 -3.13177e-06 0)
(0.000143477 -2.97367e-06 0)
(0.000145109 -2.81378e-06 0)
(0.00014665 -2.65212e-06 0)
(0.000148099 -2.48882e-06 0)
(0.000149456 -2.32399e-06 0)
(0.00015072 -2.15781e-06 0)
(0.00015189 -1.99039e-06 0)
(0.000152966 -1.82187e-06 0)
(0.000153946 -1.65234e-06 0)
(0.00015483 -1.48191e-06 0)
(0.000155618 -1.31067e-06 0)
(0.000156309 -1.13871e-06 0)
(0.000156903 -9.66162e-07 0)
(0.000157399 -7.93151e-07 0)
(0.000157798 -6.19777e-07 0)
(0.000158099 -4.46079e-07 0)
(0.000158302 -2.72078e-07 0)
(0.000158406 -9.7837e-08 0)
(0.000158412 7.65404e-08 0)
(0.00015832 2.50906e-07 0)
(0.000158129 4.25114e-07 0)
(0.000157841 5.99063e-07 0)
(0.000157454 7.72717e-07 0)
(0.000156969 9.46087e-07 0)
(0.000156386 1.11909e-06 0)
(0.000155706 1.2916e-06 0)
(0.00015493 1.46343e-06 0)
(0.000154056 1.63446e-06 0)
(0.000153086 1.80462e-06 0)
(0.000152021 1.97386e-06 0)
(0.00015086 2.14203e-06 0)
(0.000149605 2.30906e-06 0)
(0.000148256 2.47479e-06 0)
(0.000146815 2.6391e-06 0)
(0.000145281 2.80183e-06 0)
(0.000143656 2.96279e-06 0)
(0.000141941 3.12183e-06 0)
(0.000140138 3.27885e-06 0)
(0.000138246 3.43372e-06 0)
(0.000136268 3.58622e-06 0)
(0.000134205 3.73615e-06 0)
(0.000132059 3.88333e-06 0)
(0.000129831 4.02757e-06 0)
(0.000127523 4.16863e-06 0)
(0.000125137 4.30626e-06 0)
(0.000122674 4.4402e-06 0)
(0.000120138 4.57029e-06 0)
(0.00011753 4.69624e-06 0)
(0.000114853 4.81781e-06 0)
(0.000112109 4.93475e-06 0)
(0.000109301 5.04673e-06 0)
(0.000106432 5.15347e-06 0)
(0.000103506 5.25465e-06 0)
(0.000100524 5.34991e-06 0)
(9.74915e-05 5.43891e-06 0)
(9.44113e-05 5.52132e-06 0)
(9.12873e-05 5.5968e-06 0)
(8.81236e-05 5.66498e-06 0)
(8.49244e-05 5.72543e-06 0)
(8.16942e-05 5.77776e-06 0)
(7.84377e-05 5.82159e-06 0)
(7.51597e-05 5.85647e-06 0)
(7.18654e-05 5.88194e-06 0)
(6.85602e-05 5.89758e-06 0)
(6.52498e-05 5.90294e-06 0)
(6.194e-05 5.89752e-06 0)
(5.8637e-05 5.88086e-06 0)
(5.53471e-05 5.85247e-06 0)
(5.2077e-05 5.81183e-06 0)
(4.88336e-05 5.75842e-06 0)
(4.56241e-05 5.69174e-06 0)
(4.2456e-05 5.61132e-06 0)
(3.93368e-05 5.51664e-06 0)
(3.62747e-05 5.40716e-06 0)
(3.32779e-05 5.28233e-06 0)
(3.03547e-05 5.1417e-06 0)
(2.75138e-05 4.98487e-06 0)
(2.4764e-05 4.81141e-06 0)
(2.21144e-05 4.62086e-06 0)
(1.95741e-05 4.4129e-06 0)
(1.71524e-05 4.18734e-06 0)
(1.48583e-05 3.94404e-06 0)
(1.27012e-05 3.68299e-06 0)
(1.069e-05 3.40444e-06 0)
(8.83333e-06 3.10892e-06 0)
(7.13938e-06 2.79728e-06 0)
(5.61559e-06 2.47087e-06 0)
(4.26843e-06 2.13161e-06 0)
(3.10293e-06 1.78235e-06 0)
(2.12211e-06 1.42727e-06 0)
(1.32649e-06 1.07215e-06 0)
(7.13262e-07 7.25073e-07 0)
(2.75264e-07 3.97248e-07 0)
(-2.82261e-10 1.04149e-07 0)
(-1.32866e-07 -1.33121e-07 0)
(-1.50296e-07 -2.86319e-07 0)
(-9.48926e-08 -3.18734e-07 0)
(-2.77131e-08 -1.82838e-07 0)
(-2.02224e-08 2.42716e-07 0)
(-5.09682e-08 3.92664e-07 0)
(-3.40965e-08 3.05976e-07 0)
(8.70319e-08 4.44986e-08 0)
(3.53653e-07 -3.39305e-07 0)
(7.95388e-07 -8.06281e-07 0)
(1.43301e-06 -1.32566e-06 0)
(2.28157e-06 -1.87471e-06 0)
(3.34865e-06 -2.43739e-06 0)
(4.63822e-06 -3.00101e-06 0)
(6.14953e-06 -3.55613e-06 0)
(7.87983e-06 -4.09682e-06 0)
(9.82306e-06 -4.61847e-06 0)
(1.19728e-05 -5.11737e-06 0)
(1.43201e-05 -5.59117e-06 0)
(1.68552e-05 -6.03858e-06 0)
(1.9568e-05 -6.45854e-06 0)
(2.24482e-05 -6.8503e-06 0)
(2.54849e-05 -7.21388e-06 0)
(2.86666e-05 -7.54961e-06 0)
(3.19824e-05 -7.8575e-06 0)
(3.54214e-05 -8.13774e-06 0)
(3.89724e-05 -8.39117e-06 0)
(4.26248e-05 -8.6188e-06 0)
(4.63679e-05 -8.82108e-06 0)
(5.01916e-05 -8.9985e-06 0)
(5.40856e-05 -9.15203e-06 0)
(5.80401e-05 -9.28249e-06 0)
(6.20457e-05 -9.39078e-06 0)
(6.60935e-05 -9.47758e-06 0)
(7.01747e-05 -9.54384e-06 0)
(7.42805e-05 -9.59037e-06 0)
(7.84026e-05 -9.61794e-06 0)
(8.25334e-05 -9.62725e-06 0)
(8.66653e-05 -9.61904e-06 0)
(9.0791e-05 -9.59415e-06 0)
(9.49034e-05 -9.55344e-06 0)
(9.89959e-05 -9.49767e-06 0)
(0.000103062 -9.42735e-06 0)
(0.000107096 -9.34309e-06 0)
(0.000111092 -9.2456e-06 0)
(0.000115045 -9.13571e-06 0)
(0.000118948 -9.01405e-06 0)
(0.000122798 -8.88105e-06 0)
(0.000126588 -8.73732e-06 0)
(0.000130316 -8.58349e-06 0)
(0.000133976 -8.4201e-06 0)
(0.000137565 -8.24763e-06 0)
(0.000141078 -8.06655e-06 0)
(0.000144512 -7.8773e-06 0)
(0.000147864 -7.68044e-06 0)
(0.00015113 -7.47652e-06 0)
(0.000154307 -7.26589e-06 0)
(0.000157392 -7.0489e-06 0)
(0.000160384 -6.82587e-06 0)
(0.000163278 -6.59722e-06 0)
(0.000166073 -6.36334e-06 0)
(0.000168767 -6.12464e-06 0)
(0.000171357 -5.88142e-06 0)
(0.000173841 -5.63394e-06 0)
(0.000176218 -5.3825e-06 0)
(0.000178487 -5.12735e-06 0)
(0.000180644 -4.86883e-06 0)
(0.00018269 -4.60718e-06 0)
(0.000184622 -4.34265e-06 0)
(0.000186439 -4.07544e-06 0)
(0.000188141 -3.80572e-06 0)
(0.000189726 -3.53371e-06 0)
(0.000191193 -3.25964e-06 0)
(0.000192542 -2.98376e-06 0)
(0.000193771 -2.70624e-06 0)
(0.00019488 -2.42727e-06 0)
(0.000195868 -2.14696e-06 0)
(0.000196735 -1.8654e-06 0)
(0.00019748 -1.58279e-06 0)
(0.000198103 -1.29936e-06 0)
(0.000198603 -1.01529e-06 0)
(0.000198981 -7.30708e-07 0)
(0.000199235 -4.45705e-07 0)
(0.000199366 -1.60386e-07 0)
(0.000199374 1.25121e-07 0)
(0.000199259 4.10653e-07 0)
(0.00019902 6.96026e-07 0)
(0.000198658 9.81076e-07 0)
(0.000198172 1.26564e-06 0)
(0.000197564 1.54959e-06 0)
(0.000196834 1.8328e-06 0)
(0.000195981 2.11514e-06 0)
(0.000195007 2.39645e-06 0)
(0.000193911 2.67652e-06 0)
(0.000192695 2.95519e-06 0)
(0.000191359 3.23229e-06 0)
(0.000189904 3.50761e-06 0)
(0.00018833 3.78094e-06 0)
(0.000186639 4.0521e-06 0)
(0.000184832 4.32087e-06 0)
(0.000182909 4.58706e-06 0)
(0.000180872 4.85041e-06 0)
(0.000178723 5.11062e-06 0)
(0.000176462 5.36742e-06 0)
(0.000174091 5.62058e-06 0)
(0.000171612 5.86984e-06 0)
(0.000169027 6.11486e-06 0)
(0.000166338 6.3553e-06 0)
(0.000163546 6.59081e-06 0)
(0.000160655 6.82107e-06 0)
(0.000157665 7.04574e-06 0)
(0.000154581 7.26439e-06 0)
(0.000151404 7.47665e-06 0)
(0.000148138 7.68213e-06 0)
(0.000144786 7.88038e-06 0)
(0.00014135 8.07094e-06 0)
(0.000137835 8.2533e-06 0)
(0.000134243 8.42697e-06 0)
(0.00013058 8.5915e-06 0)
(0.000126849 8.74639e-06 0)
(0.000123054 8.89106e-06 0)
(0.000119199 9.02491e-06 0)
(0.000115291 9.14734e-06 0)
(0.000111333 9.25775e-06 0)
(0.000107332 9.35552e-06 0)
(0.000103292 9.44001e-06 0)
(9.92197e-05 9.51059e-06 0)
(9.5121e-05 9.56655e-06 0)
(9.10024e-05 9.60718e-06 0)
(8.68707e-05 9.63173e-06 0)
(8.27328e-05 9.63951e-06 0)
(7.8596e-05 9.62975e-06 0)
(7.4468e-05 9.60169e-06 0)
(7.03566e-05 9.55458e-06 0)
(6.62702e-05 9.48762e-06 0)
(6.22172e-05 9.39996e-06 0)
(5.82066e-05 9.2908e-06 0)
(5.42475e-05 9.15936e-06 0)
(5.03493e-05 9.00491e-06 0)
(4.65217e-05 8.82667e-06 0)
(4.2775e-05 8.62385e-06 0)
(3.91192e-05 8.39568e-06 0)
(3.55651e-05 8.1415e-06 0)
(3.21231e-05 7.86074e-06 0)
(2.88043e-05 7.55285e-06 0)
(2.56195e-05 7.2174e-06 0)
(2.25798e-05 6.85415e-06 0)
(1.9696e-05 6.46307e-06 0)
(1.69791e-05 6.04432e-06 0)
(1.44396e-05 5.5984e-06 0)
(1.20875e-05 5.12631e-06 0)
(9.93217e-06 4.62965e-06 0)
(7.98198e-06 4.11081e-06 0)
(6.24407e-06 3.57317e-06 0)
(4.7239e-06 3.02141e-06 0)
(3.42463e-06 2.46206e-06 0)
(2.34655e-06 1.90407e-06 0)
(1.48635e-06 1.35957e-06 0)
(8.36123e-07 8.44889e-07 0)
(3.82259e-07 3.8189e-07 0)
(1.04493e-07 -4.54776e-10 0)
(-2.54866e-08 -2.64398e-07 0)
(-4.83597e-08 -3.61541e-07 0)
(-1.95106e-08 -2.27335e-07 0)
(-9.28022e-09 2.59988e-07 0)
(8.86223e-09 3.68878e-07 0)
(1.24818e-07 1.8278e-07 0)
(3.83535e-07 -2.20947e-07 0)
(8.21691e-07 -7.81782e-07 0)
(1.46704e-06 -1.45073e-06 0)
(2.34036e-06 -2.18948e-06 0)
(3.45497e-06 -2.96959e-06 0)
(4.81978e-06 -3.76925e-06 0)
(6.43845e-06 -4.57141e-06 0)
(8.31069e-06 -5.36385e-06 0)
(1.04325e-05 -6.13741e-06 0)
(1.27989e-05 -6.88487e-06 0)
(1.54018e-05 -7.60142e-06 0)
(1.82319e-05 -8.28371e-06 0)
(2.12785e-05 -8.92913e-06 0)
(2.45307e-05 -9.53587e-06 0)
(2.79768e-05 -1.0103e-05 0)
(3.1604e-05 -1.06303e-05 0)
(3.53999e-05 -1.11178e-05 0)
(3.93523e-05 -1.15654e-05 0)
(4.34483e-05 -1.19737e-05 0)
(4.76751e-05 -1.23435e-05 0)
(5.20204e-05 -1.26758e-05 0)
(5.64724e-05 -1.29713e-05 0)
(6.1019e-05 -1.3231e-05 0)
(6.56483e-05 -1.34563e-05 0)
(7.03489e-05 -1.36481e-05 0)
(7.51099e-05 -1.38074e-05 0)
(7.99208e-05 -1.39354e-05 0)
(8.47711e-05 -1.40334e-05 0)
(8.96507e-05 -1.41026e-05 0)
(9.45501e-05 -1.4144e-05 0)
(9.94599e-05 -1.41587e-05 0)
(0.000104371 -1.41479e-05 0)
(0.000109276 -1.41126e-05 0)
(0.000114165 -1.4054e-05 0)
(0.00011903 -1.39732e-05 0)
(0.000123866 -1.38709e-05 0)
(0.000128663 -1.37482e-05 0)
(0.000133415 -1.36062e-05 0)
(0.000138116 -1.34458e-05 0)
(0.000142759 -1.32679e-05 0)
(0.000147339 -1.30733e-05 0)
(0.000151849 -1.28629e-05 0)
(0.000156284 -1.26376e-05 0)
(0.00016064 -1.23981e-05 0)
(0.000164911 -1.21452e-05 0)
(0.000169092 -1.18795e-05 0)
(0.00017318 -1.16018e-05 0)
(0.000177171 -1.13128e-05 0)
(0.000181059 -1.10132e-05 0)
(0.000184842 -1.07037e-05 0)
(0.000188516 -1.03848e-05 0)
(0.000192079 -1.0057e-05 0)
(0.000195526 -9.7208e-06 0)
(0.000198855 -9.37687e-06 0)
(0.000202064 -9.02569e-06 0)
(0.000205149 -8.66773e-06 0)
(0.000208109 -8.30345e-06 0)
(0.000210942 -7.9333e-06 0)
(0.000213645 -7.55769e-06 0)
(0.000216216 -7.17703e-06 0)
(0.000218653 -6.79166e-06 0)
(0.000220956 -6.40196e-06 0)
(0.000223122 -6.00824e-06 0)
(0.000225151 -5.61085e-06 0)
(0.00022704 -5.21007e-06 0)
(0.000228789 -4.80619e-06 0)
(0.000230397 -4.39956e-06 0)
(0.000231862 -3.99045e-06 0)
(0.000233184 -3.57914e-06 0)
(0.000234362 -3.16587e-06 0)
(0.000235396 -2.75084e-06 0)
(0.000236284 -2.33425e-06 0)
(0.000237027 -1.91641e-06 0)
(0.000237624 -1.49753e-06 0)
(0.000238074 -1.07781e-06 0)
(0.000238377 -6.57427e-07 0)
(0.000238534 -2.36624e-07 0)
(0.000238543 1.84346e-07 0)
(0.000238405 6.05279e-07 0)
(0.000238121 1.026e-06 0)
(0.000237689 1.44632e-06 0)
(0.000237111 1.86599e-06 0)
(0.000236386 2.28476e-06 0)
(0.000235515 2.70239e-06 0)
(0.000234499 3.11863e-06 0)
(0.000233338 3.53328e-06 0)
(0.000232032 3.9461e-06 0)
(0.000230582 4.35685e-06 0)
(0.00022899 4.76525e-06 0)
(0.000227255 5.17104e-06 0)
(0.00022538 5.57388e-06 0)
(0.000223364 5.97343e-06 0)
(0.000221211 6.36939e-06 0)
(0.000218919 6.76145e-06 0)
(0.000216492 7.14928e-06 0)
(0.000213931 7.53248e-06 0)
(0.000211237 7.91062e-06 0)
(0.000208412 8.28332e-06 0)
(0.000205459 8.65019e-06 0)
(0.00020238 9.01077e-06 0)
(0.000199176 9.36456e-06 0)
(0.000195851 9.71102e-06 0)
(0.000192407 1.00496e-05 0)
(0.000188848 1.03799e-05 0)
(0.000185175 1.07013e-05 0)
(0.000181392 1.10132e-05 0)
(0.000177503 1.13151e-05 0)
(0.000173512 1.16062e-05 0)
(0.000169422 1.1886e-05 0)
(0.000165238 1.21536e-05 0)
(0.000160964 1.24084e-05 0)
(0.000156604 1.26496e-05 0)
(0.000152164 1.28765e-05 0)
(0.000147649 1.30883e-05 0)
(0.000143063 1.32841e-05 0)
(0.000138414 1.34632e-05 0)
(0.000133706 1.36245e-05 0)
(0.000128947 1.37671e-05 0)
(0.000124142 1.38903e-05 0)
(0.0001193 1.39929e-05 0)
(0.000114426 1.4074e-05 0)
(0.000109529 1.41326e-05 0)
(0.000104617 1.41676e-05 0)
(9.9698e-05 1.4178e-05 0)
(9.47804e-05 1.41627e-05 0)
(8.98734e-05 1.41205e-05 0)
(8.49863e-05 1.40505e-05 0)
(8.01289e-05 1.39515e-05 0)
(7.5311e-05 1.38224e-05 0)
(7.05431e-05 1.36619e-05 0)
(6.5836e-05 1.34689e-05 0)
(6.12007e-05 1.32425e-05 0)
(5.66485e-05 1.29816e-05 0)
(5.21911e-05 1.26851e-05 0)
(4.78404e-05 1.2352e-05 0)
(4.36086e-05 1.19814e-05 0)
(3.95079e-05 1.15726e-05 0)
(3.55509e-05 1.11248e-05 0)
(3.175e-05 1.06377e-05 0)
(2.81179e-05 1.0111e-05 0)
(2.46667e-05 9.54484e-06 0)
(2.14088e-05 8.93966e-06 0)
(1.83558e-05 8.29644e-06 0)
(1.5519e-05 7.61679e-06 0)
(1.29088e-05 6.90317e-06 0)
(1.05341e-05 6.15917e-06 0)
(8.40288e-06 5.38983e-06 0)
(6.5208e-06 4.60197e-06 0)
(4.89127e-06 3.80481e-06 0)
(3.51467e-06 3.01064e-06 0)
(2.38766e-06 2.23573e-06 0)
(1.50242e-06 1.50148e-06 0)
(8.45661e-07 8.35884e-07 0)
(3.97749e-07 2.7527e-07 0)
(1.31534e-07 -1.33914e-07 0)
(1.08367e-08 -3.32888e-07 0)
(-9.10588e-09 -2.43286e-07 0)
(2.13313e-09 2.43701e-07 0)
(7.56022e-08 2.59768e-07 0)
(3.03153e-07 -6.77508e-08 0)
(7.15499e-07 -6.51595e-07 0)
(1.34248e-06 -1.42262e-06 0)
(2.21009e-06 -2.32495e-06 0)
(3.33585e-06 -3.31393e-06 0)
(4.73241e-06 -4.35515e-06 0)
(6.40772e-06 -5.42113e-06 0)
(8.36513e-06 -6.49145e-06 0)
(1.06033e-05 -7.55054e-06 0)
(1.31193e-05 -8.5857e-06 0)
(1.59065e-05 -9.58766e-06 0)
(1.89566e-05 -1.055e-05 0)
(2.22598e-05 -1.1468e-05 0)
(2.58049e-05 -1.23376e-05 0)
(2.95797e-05 -1.31563e-05 0)
(3.35711e-05 -1.3923e-05 0)
(3.77658e-05 -1.46369e-05 0)
(4.21502e-05 -1.52974e-05 0)
(4.67106e-05 -1.59048e-05 0)
(5.14326e-05 -1.64599e-05 0)
(5.63024e-05 -1.69633e-05 0)
(6.13062e-05 -1.74158e-05 0)
(6.64307e-05 -1.78187e-05 0)
(7.16621e-05 -1.81734e-05 0)
(7.69874e-05 -1.84813e-05 0)
(8.2394e-05 -1.87438e-05 0)
(8.78693e-05 -1.89622e-05 0)
(9.34014e-05 -1.91382e-05 0)
(9.89783e-05 -1.92732e-05 0)
(0.000104589 -1.93688e-05 0)
(0.000110222 -1.94265e-05 0)
(0.000115867 -1.94476e-05 0)
(0.000121514 -1.94339e-05 0)
(0.000127153 -1.93868e-05 0)
(0.000132775 -1.93077e-05 0)
(0.000138371 -1.91979e-05 0)
(0.000143931 -1.90588e-05 0)
(0.000149449 -1.88918e-05 0)
(0.000154915 -1.86982e-05 0)
(0.000160322 -1.84793e-05 0)
(0.000165664 -1.82361e-05 0)
(0.000170932 -1.79701e-05 0)
(0.000176122 -1.76823e-05 0)
(0.000181225 -1.73739e-05 0)
(0.000186238 -1.70459e-05 0)
(0.000191153 -1.66994e-05 0)
(0.000195966 -1.63353e-05 0)
(0.000200671 -1.59547e-05 0)
(0.000205265 -1.55584e-05 0)
(0.000209741 -1.51475e-05 0)
(0.000214097 -1.47227e-05 0)
(0.000218327 -1.42849e-05 0)
(0.000222429 -1.38348e-05 0)
(0.000226399 -1.33732e-05 0)
(0.000230234 -1.29008e-05 0)
(0.000233929 -1.24184e-05 0)
(0.000237483 -1.19266e-05 0)
(0.000240893 -1.14259e-05 0)
(0.000244156 -1.09171e-05 0)
(0.000247269 -1.04007e-05 0)
(0.000250232 -9.87733e-06 0)
(0.00025304 -9.34738e-06 0)
(0.000255694 -8.81138e-06 0)
(0.00025819 -8.26977e-06 0)
(0.000260527 -7.72305e-06 0)
(0.000262705 -7.17166e-06 0)
(0.00026472 -6.61601e-06 0)
(0.000266573 -6.0565e-06 0)
(0.000268262 -5.49353e-06 0)
(0.000269786 -4.92743e-06 0)