/*--------------------------------*- C++ -*----------------------------------*\
  =========                 |
  \\      /  F ield         | OpenFOAM: The Open Source CFD Toolbox
   \\    /   O peration     | Website:  https://openfoam.org
    \\  /    A nd           | Version:  7
     \\/     M anipulation  |
\*---------------------------------------------------------------------------*/
FoamFile
{
    version     2.0;
    format      ascii;
    class       volScalarField;
    location    "0.1625";
    object      p;
}
// * * * * * * * * * * * * * * * * * * * * * * * * * * * * * * * * * * * * * //

dimensions      [0 2 -2 0 0 0 0];

internalField   nonuniform List<scalar> 
12800
(
4.71111e-06
0.000190011
-0.000894355
-0.0033379
-0.00689511
-0.0113192
-0.0163767
-0.0218542
-0.0275653
-0.0333498
-0.0390715
-0.044615
-0.0498829
-0.0547939
-0.05928
-0.0632851
-0.0667635
-0.0696786
-0.0720014
-0.0737101
-0.0747891
-0.0752278
-0.0750205
-0.0741656
-0.0726649
-0.0705234
-0.0677487
-0.0643509
-0.0603418
-0.0557351
-0.0505455
-0.0447892
-0.038483
-0.0316446
-0.0242922
-0.0164442
-0.00811932
0.000663702
0.00988611
0.0195293
0.029575
0.0400051
0.0508019
0.0619481
0.073427
0.0852222
0.0973181
0.109699
0.122352
0.135261
0.148414
0.161797
0.1754
0.189209
0.203215
0.217407
0.231775
0.246311
0.261005
0.27585
0.290838
0.305963
0.321217
0.336595
0.352091
0.367701
0.383418
0.39924
0.415161
0.431179
0.447289
0.463489
0.479775
0.496146
0.512597
0.529128
0.545735
0.562416
0.57917
0.595994
0.612886
0.629843
0.646864
0.663946
0.681087
0.698283
0.715532
0.732831
0.750176
0.767563
0.784989
0.802447
0.819934
0.837443
0.854969
0.872505
0.890044
0.907576
0.925095
0.94259
0.96005
0.977466
0.994825
1.01211
1.02932
1.04643
1.06342
1.08029
1.097
1.11356
1.12992
1.14608
1.16201
1.17769
1.1931
1.20821
1.223
1.23744
1.2515
1.26516
1.27839
1.29116
1.30344
1.31521
1.32644
1.33709
1.34714
1.35656
1.36532
1.37341
1.38079
1.38744
1.39335
1.39849
1.40284
1.4064
1.40915
1.41109
1.41222
1.41254
1.41206
1.41078
1.40875
1.40597
1.4025
1.39837
1.39363
1.38837
1.38266
1.37659
1.37028
1.36387
1.3575
1.35137
1.34568
1.34067
1.33663
1.33382
1.33254
1.3327
-0.00017378
9.57072e-06
-0.000993172
-0.00312494
-0.00616198
-0.00992907
-0.0142524
-0.0189612
-0.023899
-0.0289265
-0.0339218
-0.0387789
-0.0434064
-0.0477265
-0.0516732
-0.0551913
-0.0582349
-0.0607663
-0.0627556
-0.064179
-0.0650191
-0.0652631
-0.0649031
-0.063935
-0.0623584
-0.0601757
-0.0573924
-0.0540158
-0.0500556
-0.0455231
-0.0404309
-0.0347929
-0.028624
-0.0219399
-0.0147566
-0.00709105
0.00103992
0.00961913
0.0186293
0.0280534
0.0378742
0.0480751
0.0586393
0.0695508
0.0807936
0.0923523
0.104212
0.116358
0.128777
0.141455
0.15438
0.167538
0.180919
0.194511
0.208303
0.222285
0.236449
0.250784
0.265282
0.279935
0.294737
0.309679
0.324755
0.339959
0.355285
0.370728
0.386284
0.401946
0.417712
0.433576
0.449536
0.465588
0.481728
0.497954
0.514262
0.53065
0.547115
0.563655
0.580266
0.596947
0.613695
0.630507
0.64738
0.664312
0.681299
0.69834
0.715429
0.732564
0.749741
0.766955
0.784203
0.801477
0.818775
0.836088
0.853412
0.870739
0.888061
0.90537
0.922658
0.939914
0.957128
0.97429
0.991386
1.00841
1.02533
1.04216
1.05886
1.07542
1.09184
1.10807
1.12412
1.13996
1.15556
1.17091
1.18599
1.20076
1.21522
1.22932
1.24305
1.25639
1.26929
1.28175
1.29373
1.3052
1.31614
1.32653
1.33633
1.34552
1.35408
1.36199
1.36921
1.37574
1.38156
1.38664
1.39097
1.39456
1.39738
1.39943
1.40072
1.40125
1.40104
1.40009
1.39843
1.39609
1.39312
1.38955
1.38544
1.38085
1.37588
1.3706
1.36512
1.35957
1.35409
1.34884
1.34399
1.33975
1.33631
1.33387
1.3327
1.33286
0.000910719
0.00101352
9.88912e-06
-0.00197397
-0.0047229
-0.00809484
-0.0119497
-0.0161457
-0.0205495
-0.0250395
-0.029507
-0.0338555
-0.0380008
-0.0418697
-0.0453994
-0.0485364
-0.0512359
-0.0534606
-0.0551803
-0.0563707
-0.0570131
-0.0570936
-0.0566029
-0.0555355
-0.053889
-0.0516645
-0.0488653
-0.0454974
-0.0415685
-0.0370881
-0.0320672
-0.026518
-0.0204538
-0.0138886
-0.00683721
0.000685191
0.00866298
0.0170803
0.0259212
0.0351696
0.0448096
0.0548254
0.0652013
0.075922
0.0869725
0.098338
0.110004
0.121958
0.134185
0.146672
0.159408
0.172379
0.185576
0.198986
0.2126
0.226408
0.240399
0.254566
0.268899
0.283391
0.298035
0.312822
0.327747
0.342804
0.357985
0.373287
0.388704
0.40423
0.419862
0.435596
0.451426
0.46735
0.483364
0.499465
0.51565
0.531914
0.548257
0.564673
0.581161
0.597718
0.614341
0.631027
0.647773
0.664575
0.681431
0.698337
0.715289
0.732283
0.749316
0.766382
0.783477
0.800595
0.817731
0.834878
0.85203
0.86918
0.886319
0.90344
0.920534
0.937589
0.954598
0.971547
0.988425
1.00522
1.02192
1.03851
1.05497
1.07128
1.08744
1.10343
1.11921
1.13479
1.15012
1.16521
1.18001
1.19452
1.2087
1.22254
1.236
1.24907
1.26173
1.27393
1.28567
1.29691
1.30763
1.31781
1.32742
1.33643
1.34484
1.3526
1.35971
1.36615
1.3719
1.37695
1.38128
1.38489
1.38777
1.38993
1.39135
1.39206
1.39207
1.39138
1.39003
1.38804
1.38545
1.38232
1.37868
1.37462
1.37019
1.36549
1.36062
1.35569
1.35082
1.34616
1.34185
1.33806
1.33496
1.3327
1.33153
1.33159
0.00335592
0.00314866
0.00199228
3.13775e-06
-0.00263938
-0.00581162
-0.00939381
-0.0132654
-0.0173115
-0.021426
-0.0255124
-0.0294838
-0.0332633
-0.0367832
-0.0399848
-0.0428176
-0.0452386
-0.0472118
-0.0487074
-0.0497014
-0.0501749
-0.0501135
-0.0495071
-0.0483491
-0.0466364
-0.0443686
-0.041548
-0.038179
-0.0342683
-0.0298239
-0.0248555
-0.019374
-0.0133914
-0.00692049
2.53017e-05
0.00743187
0.0152848
0.0235692
0.0322703
0.0413729
0.0508621
0.0607229
0.0709404
0.0815001
0.0923877
0.103589
0.115091
0.126879
0.138941
0.151265
0.163837
0.176648
0.189685
0.202938
0.216397
0.230051
0.243892
0.257911
0.2721
0.286449
0.300953
0.315604
0.330395
0.34532
0.360373
0.375548
0.39084
0.406245
0.421757
0.437372
0.453086
0.468895
0.484795
0.500782
0.516854
0.533007
0.549238
0.565543
0.581919
0.598363
0.614873
0.631444
0.648074
0.664759
0.681495
0.698279
0.715107
0.731975
0.748877
0.765811
0.782769
0.799747
0.816739
0.833738
0.850738
0.867731
0.884709
0.901664
0.918587
0.935468
0.952295
0.96906
0.985748
1.00235
1.01885
1.03523
1.05148
1.06759
1.08354
1.0993
1.11487
1.13022
1.14533
1.16018
1.17476
1.18904
1.203
1.21661
1.22986
1.24271
1.25515
1.26716
1.2787
1.28975
1.30029
1.3103
1.31976
1.32863
1.33691
1.34457
1.3516
1.35797
1.36368
1.3687
1.37304
1.37668
1.37963
1.38187
1.38342
1.38428
1.38447
1.384
1.38289
1.38119
1.37892
1.37612
1.37286
1.36919
1.36518
1.36091
1.35648
1.35197
1.34752
1.34322
1.33923
1.33568
1.3327
1.33044
1.32909
1.32878
0.0069253
0.00619769
0.00474472
0.00263367
-1.94995e-05
-0.00310867
-0.0065308
-0.0101843
-0.0139713
-0.0178001
-0.0215859
-0.0252515
-0.0287277
-0.0319529
-0.034873
-0.0374409
-0.0396164
-0.0413651
-0.0426585
-0.0434733
-0.0437908
-0.0435966
-0.0428801
-0.0416343
-0.0398553
-0.037542
-0.0346957
-0.0313198
-0.0274197
-0.0230026
-0.0180768
-0.0126523
-0.00673981
-0.000351001
0.00650171
0.0138053
0.0215464
0.0297112
0.0382857
0.0472557
0.0566072
0.0663259
0.0763978
0.086809
0.0975458
0.108595
0.119943
0.131577
0.143485
0.155655
0.168075
0.180734
0.19362
0.206724
0.220036
0.233545
0.247243
0.261121
0.275171
0.289384
0.303755
0.318274
0.332936
0.347734
0.362662
0.377715
0.392886
0.408172
0.423567
0.439067
0.454667
0.470363
0.486152
0.502029
0.51799
0.534033
0.550154
0.566349
0.582616
0.598949
0.615347
0.631806
0.648322
0.664892
0.681511
0.698176
0.714883
0.731627
0.748403
0.765207
0.782033
0.798875
0.815728
0.832584
0.849437
0.86628
0.883103
0.8999
0.916659
0.933373
0.950029
0.966618
0.983127
0.999544
1.01586
1.03205
1.04811
1.06402
1.07976
1.09532
1.11068
1.12582
1.14073
1.15538
1.16975
1.18382
1.19757
1.21098
1.22403
1.23669
1.24894
1.26075
1.27212
1.283
1.29339
1.30325
1.31257
1.32133
1.3295
1.33707
1.34402
1.35034
1.35602
1.36103
1.36538
1.36906
1.37207
1.3744
1.37606
1.37706
1.37742
1.37714
1.37626
1.37481
1.37281
1.37032
1.36737
1.36403
1.36037
1.35645
1.35235
1.34817
1.34401
1.33997
1.33617
1.33271
1.32972
1.32732
1.32564
1.32473
0.011383
0.0099934
0.00813163
0.00579991
0.00303659
-6.89784e-05
-0.00342822
-0.00695675
-0.0105723
-0.0141964
-0.0177555
-0.0211819
-0.0244141
-0.0273966
-0.0300806
-0.0324227
-0.0343858
-0.0359377
-0.0370517
-0.0377054
-0.0378809
-0.0375642
-0.0367447
-0.0354152
-0.0335714
-0.0312115
-0.0283363
-0.0249485
-0.0210526
-0.0166548
-0.0117626
-0.00638485
-0.000531474
0.00578685
0.0125587
0.019772
0.0274142
0.0354725
0.0439337
0.0527845
0.0620115
0.0716014
0.0815407
0.0918162
0.102415
0.113324
0.124531
0.136023
0.147788
0.159815
0.172092
0.184609
0.197355
0.210319
0.223492
0.236865
0.250428
0.264173
0.278091
0.292175
0.306418
0.320812
0.33535
0.350027
0.364836
0.379771
0.394827
0.409998
0.42528
0.440668
0.456158
0.471745
0.487425
0.503195
0.519049
0.534985
0.550999
0.567087
0.583246
0.599472
0.615762
0.632111
0.648517
0.664974
0.68148
0.698029
0.714619
0.731243
0.747897
0.764576
0.781274
0.797986
0.814704
0.831424
0.848137
0.864835
0.881512
0.898157
0.914763
0.931318
0.947813
0.964236
0.980577
0.996822
1.01296
1.02897
1.04485
1.06058
1.07613
1.09151
1.10668
1.12163
1.13635
1.15081
1.16499
1.17887
1.19244
1.20567
1.21853
1.23102
1.2431
1.25475
1.26596
1.2767
1.28695
1.29668
1.30589
1.31454
1.32262
1.33012
1.33702
1.3433
1.34895
1.35396
1.35833
1.36205
1.36512
1.36753
1.3693
1.37043
1.37094
1.37084
1.37016
1.36892
1.36716
1.36491
1.36223
1.35916
1.35577
1.35212
1.34828
1.34434
1.34037
1.33647
1.33274
1.32927
1.32616
1.32352
1.32137
1.31972
0.0165078
0.0143711
0.01202
0.00938811
0.00643139
0.00322434
-0.000156732
-0.0036429
-0.00716602
-0.0106596
-0.0140607
-0.0173106
-0.0203552
-0.0231456
-0.0256378
-0.0277929
-0.0295768
-0.0309602
-0.0319182
-0.03243
-0.0324787
-0.0320508
-0.0311364
-0.0297283
-0.027822
-0.0254156
-0.0225093
-0.0191054
-0.0152077
-0.0108218
-0.00595448
-0.000613793
0.00519121
0.0114506
0.0181537
0.0252894
0.0328459
0.0408112
0.0491727
0.057918
0.0670344
0.0765091
0.0863294
0.0964828
0.106957
0.117739
0.128817
0.140179
0.151814
0.16371
0.175856
0.188242
0.200858
0.213693
0.226737
0.239982
0.253419
0.26704
0.280835
0.294798
0.308921
0.323196
0.337618
0.35218
0.366875
0.381698
0.396644
0.411706
0.42688
0.442162
0.457546
0.473028
0.488604
0.504269
0.520021
0.535854
0.551765
0.56775
0.583805
0.599927
0.616112
0.632356
0.648654
0.665004
0.6814
0.697838
0.714314
0.730824
0.747361
0.76392
0.780496
0.797084
0.813676
0.830265
0.846845
0.863408
0.879946
0.89645
0.91291
0.929318
0.945662
0.961932
0.978116
0.994202
1.01018
1.02603
1.04174
1.0573
1.07269
1.08789
1.10289
1.11767
1.13222
1.1465
1.16052
1.17423
1.18763
1.2007
1.21341
1.22574
1.23767
1.24919
1.26026
1.27087
1.281
1.29063
1.29974
1.30831
1.31632
1.32376
1.33061
1.33687
1.34251
1.34753
1.35192
1.35568
1.3588
1.3613
1.36316
1.36441
1.36505
1.36511
1.36459
1.36354
1.36197
1.35994
1.35747
1.35461
1.35143
1.34798
1.34432
1.34052
1.33666
1.33281
1.32906
1.32548
1.32216
1.31918
1.31648
1.31398
0.0220982
0.0191689
0.0162752
0.0132835
0.0100683
0.00669152
0.00321922
-0.00029338
-0.00379077
-0.0072175
-0.0105202
-0.0136487
-0.0165561
-0.0191995
-0.0215403
-0.0235437
-0.0251793
-0.0264205
-0.0272446
-0.0276327
-0.027569
-0.0270413
-0.0260401
-0.0245586
-0.0225926
-0.0201401
-0.0172011
-0.0137775
-0.00987297
-0.00549241
-0.000642124
0.00467047
0.010437
0.0166481
0.023294
0.030364
0.0378471
0.0457319
0.0540067
0.0626596
0.0716785
0.0810512
0.0907657
0.10081
0.111172
0.121839
0.132801
0.144046
0.155562
0.167339
0.179365
0.191631
0.204127
0.216842
0.229768
0.242896
0.256216
0.26972
0.2834
0.297249
0.31126
0.325424
0.339736
0.35419
0.368778
0.383495
0.398335
0.413294
0.428365
0.443545
0.458828
0.474209
0.489685
0.505252
0.520904
0.536638
0.55245
0.568335
0.584291
0.600313
0.616397
0.632539
0.648735
0.66498
0.681271
0.697603
0.713971
0.73037
0.746795
0.763241
0.779701
0.796171
0.812642
0.829108
0.845563
0.861998
0.878406
0.894777
0.911102
0.927372
0.943576
0.959703
0.975743
0.991682
1.00751
1.02321
1.03877
1.05417
1.06941
1.08446
1.09931
1.11393
1.12833
1.14246
1.15632
1.16989
1.18315
1.19607
1.20864
1.22084
1.23265
1.24404
1.255
1.26551
1.27554
1.28508
1.29411
1.30261
1.31057
1.31797
1.32479
1.33102
1.33666
1.3417
1.34611
1.34992
1.3531
1.35567
1.35763
1.35898
1.35974
1.35993
1.35956
1.35866
1.35726
1.35538
1.35308
1.35039
1.34736
1.34403
1.34048
1.33676
1.33293
1.32905
1.3252
1.32143
1.31782
1.31445
1.31115
1.30776
0.0279793
0.0242385
0.0207699
0.0173763
0.0138537
0.0102538
0.00663455
0.00303915
-0.000488132
-0.00390174
-0.00715719
-0.010212
-0.0130262
-0.0155629
-0.0177882
-0.019672
-0.0211872
-0.0223103
-0.023021
-0.0233023
-0.0231401
-0.0225232
-0.021443
-0.0198934
-0.0178705
-0.0153726
-0.0123997
-0.00895352
-0.00503749
-0.000656301
0.00418416
0.00947692
0.0152141
0.021387
0.0279862
0.0350017
0.0424231
0.0502395
0.0584398
0.0670127
0.0759467
0.08523
0.0948512
0.104799
0.115061
0.125627
0.136484
0.147623
0.159032
0.1707
0.182618
0.194775
0.207161
0.219767
0.232584
0.245602
0.258814
0.272211
0.285784
0.299528
0.313433
0.327494
0.341703
0.356054
0.370541
0.385158
0.399899
0.41476
0.429734
0.444816
0.460003
0.475289
0.490669
0.50614
0.521698
0.537337
0.553053
0.568844
0.584704
0.60063
0.616617
0.632661
0.648759
0.664905
0.681095
0.697325
0.713589
0.729883
0.746202
0.762539
0.778889
0.795246
0.811603
0.827954
0.844291
0.860606
0.876891
0.893138
0.909337
0.925479
0.941553
0.957549
0.973455
0.98926
1.00495
1.02051
1.03594
1.0512
1.0663
1.08121
1.09592
1.11041
1.12467
1.13867
1.1524
1.16584
1.17897
1.19177
1.20422
1.21631
1.22801
1.2393
1.25016
1.26058
1.27054
1.28001
1.28898
1.29743
1.30534
1.31271
1.31952
1.32575
1.33139
1.33644
1.3409
1.34474
1.34799
1.35063
1.35267
1.35412
1.35498
1.35528
1.35504
1.35426
1.35299
1.35124
1.34906
1.34649
1.34356
1.34032
1.33681
1.3331
1.32924
1.32527
1.32126
1.31724
1.31329
1.30947
1.30553
1.30125
0.034
0.0294474
0.0253874
0.0215639
0.0176982
0.0138344
0.0100243
0.00630037
0.00269719
-0.000748465
-0.00400011
-0.00702242
-0.00978184
-0.012247
-0.014389
-0.0161817
-0.0176018
-0.0186287
-0.0192447
-0.0194349
-0.0191869
-0.0184908
-0.017339
-0.0157263
-0.0136494
-0.0111068
-0.00809891
-0.00462749
-0.000695838
0.00369151
0.00852887
0.0138096
0.0195261
0.0256702
0.0322329
0.0392046
0.0465754
0.0543349
0.0624726
0.0709775
0.0798386
0.0890448
0.0985849
0.108448
0.118623
0.129098
0.139863
0.150908
0.16222
0.173792
0.185611
0.197669
0.209956
0.222463
0.23518
0.248099
0.261211
0.274509
0.287984
0.30163
0.315438
0.329402
0.343515
0.35777
0.372163
0.386686
0.401334
0.416101
0.430983
0.445974
0.461069
0.476264
0.491554
0.506934
0.522401
0.537949
0.553575
0.569274
0.585043
0.600876
0.616771
0.632722
0.648725
0.664776
0.68087
0.697002
0.713168
0.729362
0.745579
0.761814
0.77806
0.794311
0.81056
0.826802
0.843028
0.859231
0.875402
0.891533
0.907615
0.923638
0.939593
0.955468
0.971252
0.986934
1.0025
1.01794
1.03324
1.04838
1.06336
1.07814
1.09273
1.1071
1.12124
1.13512
1.14874
1.16206
1.17509
1.18778
1.20014
1.21213
1.22374
1.23495
1.24574
1.25609
1.26598
1.2754
1.28432
1.29274
1.30063
1.30798
1.31478
1.32102
1.32668
1.33176
1.33624
1.34014
1.34344
1.34615
1.34827
1.3498
1.35076
1.35116
1.35101
1.35034
1.34917
1.34752
1.34543
1.34293
1.34005
1.33685
1.33335
1.3296
1.32565
1.32154
1.31731
1.31301
1.30868
1.30438
1.29979
1.29462
0.0400318
0.0346787
0.0300222
0.0257515
0.0215181
0.0173601
0.0133249
0.00943614
0.00571962
0.00220445
-0.00107997
-0.00410487
-0.00684254
-0.00926686
-0.0113536
-0.0130806
-0.014428
-0.0153784
-0.0159166
-0.0160298
-0.0157075
-0.0149412
-0.0137247
-0.0120535
-0.00992507
-0.00733858
-0.00429466
-0.000795388
0.00315589
0.00755464
0.0123953
0.0176714
0.0233756
0.0295
0.0360358
0.042974
0.050305
0.0580187
0.0661051
0.0745536
0.0833537
0.0924946
0.101966
0.111756
0.121855
0.132252
0.142936
0.153897
0.165125
0.176611
0.188343
0.200312
0.21251
0.224926
0.237553
0.250382
0.263404
0.276611
0.289996
0.303552
0.31727
0.331145
0.345169
0.359336
0.37364
0.388075
0.402636
0.417316
0.432111
0.447015
0.462024
0.477133
0.492337
0.507631
0.523011
0.538473
0.554013
0.569625
0.585307
0.601053
0.616859
0.632721
0.648634
0.664594
0.680596
0.696636
0.712708
0.728807
0.744928
0.761066
0.777213
0.793364
0.809513
0.825652
0.841774
0.857872
0.873937
0.889961
0.905935
0.921849
0.937694
0.953458
0.969132
0.984702
1.00016
1.01549
1.03067
1.04571
1.06057
1.07525
1.08973
1.10399
1.11803
1.13181
1.14533
1.15856
1.17149
1.18411
1.19638
1.2083
1.21983
1.23098
1.24171
1.25201
1.26186
1.27124
1.28013
1.28853
1.29641
1.30376
1.31056
1.31681
1.3225
1.32761
1.33214
1.33609
1.33945
1.34222
1.34441
1.34602
1.34706
1.34755
1.34748
1.34689
1.3458
1.34422
1.34219
1.33973
1.33687
1.33366
1.33012
1.32629
1.32221
1.31792
1.31344
1.30881
1.30408
1.29929
1.29405
1.288
0.0459641
0.0398289
0.0345789
0.0298524
0.0252351
0.0207615
0.0164756
0.0123934
0.00853352
0.00491827
0.00157072
-0.00148622
-0.00423023
-0.00664002
-0.00869569
-0.010379
-0.0116735
-0.0125647
-0.01304
-0.0130888
-0.0127024
-0.0118741
-0.0105987
-0.00887299
-0.00669525
-0.00406524
-0.000984143
0.00254563
0.00652048
0.0109358
0.015786
0.0210646
0.0267646
0.032878
0.0393964
0.0463111
0.0536127
0.0612915
0.0693377
0.0777412
0.0864917
0.0955788
0.104992
0.114721
0.124756
0.135086
0.145701
0.15659
0.167745
0.179154
0.190809
0.202701
0.214819
0.227156
0.239702
0.252449
0.26539
0.278515
0.291818
0.305292
0.318928
0.33272
0.346662
0.360748
0.37497
0.389324
0.403803
0.418402
0.433116
0.447939
0.462867
0.477894
0.493017
0.50823
0.523529
0.538909
0.554366
0.569896
0.585495
0.601157
0.616879
0.632656
0.648484
0.664358
0.680274
0.696226
0.712209
0.728218
0.744249
0.760294
0.776349
0.792406
0.80846
0.824504
0.840529
0.85653
0.872497
0.888422
0.904296
0.920111
0.935855
0.951519
0.967092
0.982562
0.997917
1.01315
1.02823
1.04317
1.05794
1.07252
1.08691
1.10108
1.11503
1.12873
1.14217
1.15532
1.16818
1.18073
1.19294
1.20479
1.21628
1.22738
1.23807
1.24833
1.25815
1.26751
1.2764
1.28479
1.29267
1.30003
1.30685
1.31313
1.31885
1.324
1.32858
1.33258
1.336
1.33883
1.34109
1.34277
1.34389
1.34444
1.34445
1.34392
1.34288
1.34135
1.33935
1.3369
1.33403
1.33078
1.32717
1.32322
1.31898
1.31448
1.30972
1.30474
1.29959
1.29431
1.28842
1.28152
0.0517014
0.0448069
0.0389721
0.0337873
0.028777
0.0239732
0.0194177
0.0151206
0.0110938
0.0073539
0.00391845
0.000805083
-0.00196876
-0.00438624
-0.00643154
-0.00809004
-0.00934858
-0.0101955
-0.0106208
-0.010616
-0.0101745
-0.00929092
-0.00796176
-0.00618481
-0.00395932
-0.00128582
0.00183392
0.005397
0.0093995
0.0138366
0.0187025
0.0239908
0.0296944
0.0358054
0.0423158
0.0492166
0.056499
0.0641535
0.0721704
0.0805399
0.0892521
0.0982969
0.107664
0.117344
0.127326
0.1376
0.148156
0.158985
0.170076
0.181421
0.19301
0.204833
0.216882
0.229149
0.241624
0.254299
0.267166
0.280219
0.293448
0.306847
0.320409
0.334127
0.347994
0.362004
0.376151
0.39043
0.404834
0.419357
0.433996
0.448743
0.463595
0.478547
0.493593
0.50873
0.523952
0.539255
0.554635
0.570087
0.585607
0.60119
0.616832
0.632529
0.648276
0.664069
0.679902
0.69577
0.71167
0.727595
0.74354
0.759499
0.775467
0.791436
0.807402
0.823356
0.839292
0.855203
0.871079
0.886914
0.902697
0.91842
0.934073
0.949647
0.965129
0.98051
0.995777
1.01092
1.02592
1.04077
1.05546
1.06996
1.08427
1.09837
1.11224
1.12587
1.13924
1.15234
1.16514
1.17763
1.1898
1.20161
1.21306
1.22413
1.23479
1.24504
1.25485
1.26421
1.27309
1.28149
1.28939
1.29677
1.30363
1.30994
1.3157
1.3209
1.32553
1.32959
1.33307
1.33597
1.3383
1.34005
1.34122
1.34184
1.3419
1.34143
1.34043
1.33892
1.33693
1.33447
1.33156
1.32824
1.32453
1.32044
1.31602
1.31127
1.30622
1.30088
1.2953
1.28951
1.28299
1.27528
0.0571609
0.0495322
0.0431249
0.0374841
0.0320769
0.0269339
0.022096
0.0175678
0.0133561
0.00947235
0.00592916
0.00273954
-8.34403e-05
-0.00252706
-0.00457923
-0.00622878
-0.00746563
-0.00828091
-0.00866708
-0.00861791
-0.00812856
-0.0071955
-0.00581654
-0.00399074
-0.00171837
0.00099917
0.00415942
0.00775894
0.0117934
0.0162575
0.0211454
0.0264505
0.0321656
0.0382829
0.0447943
0.051691
0.0589643
0.0666048
0.0746032
0.0829497
0.0916347
0.100648
0.109981
0.119622
0.129562
0.139792
0.150301
0.16108
0.172119
0.18341
0.194942
0.206708
0.218698
0.230903
0.243316
0.255929
0.268732
0.28172
0.294883
0.308216
0.321711
0.335362
0.349162
0.363104
0.377183
0.391392
0.405727
0.420181
0.434749
0.449427
0.464209
0.479089
0.494064
0.509129
0.524279
0.53951
0.554817
0.570195
0.585641
0.60115
0.616717
0.632339
0.648009
0.663725
0.67948
0.69527
0.711091
0.726936
0.742801
0.758679
0.774566
0.790454
0.806337
0.822209
0.838062
0.85389
0.869683
0.885434
0.901135
0.916776
0.932347
0.947839
0.963242
0.978543
0.993732
1.0088
1.02372
1.0385
1.05312
1.06755
1.0818
1.09584
1.10965
1.12323
1.13655
1.1496
1.16236
1.17482
1.18695
1.19874
1.21017
1.22122
1.23188
1.24213
1.25194
1.26131
1.27021
1.27864
1.28656
1.29398
1.30088
1.30724
1.31305
1.31831
1.323
1.32712
1.33067
1.33363
1.33602
1.33783
1.33907
1.33974
1.33985
1.33942
1.33844
1.33694
1.33494
1.33245
1.32949
1.32608
1.32224
1.318
1.31336
1.30836
1.303
1.29729
1.29127
1.285
1.27786
1.26936
0.0622706
0.0539337
0.0469684
0.0408772
0.0350732
0.0295865
0.0244578
0.0196874
0.0152774
0.011235
0.00756861
0.00428702
0.00139936
-0.00108534
-0.00315847
-0.00481207
-0.00603897
-0.00683296
-0.00718888
-0.00710268
-0.0065714
-0.00559319
-0.00416731
-0.00229411
2.50573e-05
0.00278786
0.00599106
0.00963058
0.0137015
0.0181984
0.0231148
0.0284439
0.0341785
0.0403107
0.0468322
0.0537345
0.0610087
0.0686456
0.076636
0.0849705
0.0936393
0.102633
0.111942
0.121556
0.131466
0.141662
0.152134
0.162874
0.173872
0.185119
0.196606
0.208324
0.220264
0.232419
0.244779
0.257337
0.270086
0.283017
0.296124
0.309398
0.322835
0.336425
0.350164
0.364045
0.378063
0.39221
0.406481
0.420872
0.435377
0.44999
0.464706
0.479521
0.49443
0.509428
0.524511
0.539674
0.554913
0.570222
0.585599
0.601038
0.616534
0.632084
0.647683
0.663326
0.679008
0.694725
0.710472
0.726243
0.742032
0.757835
0.773646
0.789458
0.805265
0.821061
0.836838
0.852589
0.868307
0.883983
0.899609
0.915176
0.930674
0.946094
0.961426
0.976658
0.99178
1.00678
1.02164
1.03636
1.05092
1.0653
1.0795
1.09349
1.10726
1.1208
1.13408
1.1471
1.15984
1.17227
1.18439
1.19617
1.2076
1.21865
1.22932
1.23958
1.24942
1.25881
1.26775
1.27621
1.28418
1.29165
1.29859
1.30501
1.31089
1.31621
1.32097
1.32516
1.32877
1.33181
1.33426
1.33614
1.33743
1.33815
1.33831
1.3379
1.33694
1.33543
1.33341
1.33087
1.32784
1.32432
1.32035
1.31593
1.31107
1.3058
1.30012
1.29403
1.28759
1.28082
1.27309
1.26384
0.0669668
0.0579477
0.0504402
0.0439067
0.037709
0.0318774
0.0264534
0.0214335
0.0168159
0.0126041
0.00880272
0.00541703
0.00245259
-8.49654e-05
-0.00219021
-0.00385816
-0.00508439
-0.00586523
-0.00619783
-0.00608021
-0.00551129
-0.00449092
-0.00301982
-0.00109963
0.00126715
0.0040772
0.00732644
0.0110101
0.0151226
0.0196581
0.0246097
0.0299705
0.0357327
0.0418885
0.0484294
0.0553469
0.0626321
0.0702759
0.0782691
0.0866022
0.0952659
0.104251
0.113547
0.123145
0.133035
0.143209
0.153656
0.164368
0.175335
0.186549
0.198
0.20968
0.221581
0.233694
0.246011
0.258525
0.271227
0.28411
0.297168
0.310393
0.323778
0.337316
0.351002
0.364829
0.378791
0.392882
0.407097
0.42143
0.435876
0.450431
0.465087
0.479842
0.49469
0.509627
0.524647
0.539747
0.554922
0.570168
0.585479
0.600852
0.616283
0.631766
0.647298
0.662873
0.678487
0.694135
0.709812
0.725513
0.741233
0.756966
0.772707
0.788448
0.804185
0.819911
0.835619
0.851301
0.86695
0.882558
0.898117
0.913617
0.929051
0.944408
0.959679
0.974852
0.989917
1.00486
1.01968
1.03434
1.04886
1.0632
1.07735
1.09131
1.10505
1.11856
1.13183
1.14483
1.15756
1.16999
1.18211
1.19389
1.20533
1.21641
1.2271
1.23739
1.24726
1.2567
1.26568
1.27419
1.28222
1.28975
1.29677
1.30325
1.3092
1.3146
1.31943
1.3237
1.32739
1.3305
1.33302
1.33496
1.33631
1.33708
1.33726
1.33688
1.33592
1.33441
1.33235
1.32975
1.32664
1.32301
1.31888
1.31427
1.30918
1.30363
1.29763
1.29117
1.2843
1.27706
1.26875
1.25877
0.0711932
0.0615172
0.053484
0.0465176
0.0399315
0.0337568
0.0280359
0.0227623
0.017931
0.0135423
0.00959764
0.00609896
0.00304869
0.000449421
-0.00169636
-0.00338642
-0.00461895
-0.00539265
-0.0057069
-0.00556173
-0.00495791
-0.00389693
-0.00238104
-0.000413183
0.00200298
0.0048631
0.0081622
0.0118947
0.0160545
0.020635
0.0256291
0.0310293
0.0368276
0.043016
0.0495858
0.0565284
0.0638348
0.0714959
0.0795025
0.0878452
0.0965146
0.105501
0.114796
0.124389
0.134272
0.144434
0.154867
0.165561
0.176508
0.187699
0.199125
0.210777
0.222648
0.234729
0.247013
0.25949
0.272155
0.285
0.298016
0.311199
0.32454
0.338034
0.351674
0.365453
0.379367
0.393409
0.407574
0.421855
0.436249
0.45075
0.465353
0.480053
0.494845
0.509725
0.524688
0.539729
0.554845
0.570031
0.585282
0.600594
0.615963
0.631384
0.646853
0.662365
0.677915
0.693499
0.709112
0.724748
0.740403
0.756072
0.771747
0.787424
0.803097
0.818759
0.834403
0.850022
0.865609
0.881157
0.896656
0.912099
0.927477
0.942779
0.957998
0.973121
0.988139
1.00304
1.01781
1.03244
1.04692
1.06123
1.07536
1.0893
1.10302
1.11652
1.12978
1.14278
1.15551
1.16795
1.18009
1.1919
1.20337
1.21447
1.2252
1.23554
1.24546
1.25496
1.264
1.27258
1.28068
1.28829
1.29538
1.30195
1.30798
1.31346
1.31838
1.32273
1.32651
1.32969
1.33229
1.33429
1.3357
1.33651
1.33674
1.33637
1.33542
1.33389
1.33178
1.32912
1.32591
1.32216
1.31787
1.31306
1.30774
1.30191
1.29558
1.28875
1.28146
1.27376
1.26489
1.25422
0.0748994
0.0645909
0.0560484
0.0486595
0.0416918
0.0351777
0.0291606
0.0236319
0.0185836
0.0140134
0.00991995
0.00630222
0.00315985
0.000492641
-0.00169959
-0.00341718
-0.00466074
-0.00543126
-0.00573024
-0.00555965
-0.00492207
-0.00382065
-0.00225909
-0.000241707
0.00222666
0.00514061
0.00849422
0.0122811
0.0164945
0.021127
0.0261712
0.031619
0.0374623
0.0436925
0.0503009
0.0572786
0.0646166
0.0723057
0.0803365
0.0886998
0.0973862
0.106386
0.115691
0.12529
0.135175
0.145337
0.155766
0.166454
0.177391
0.18857
0.199981
0.211616
0.223466
0.235525
0.247784
0.260235
0.272871
0.285685
0.298669
0.311818
0.325123
0.33858
0.352181
0.36592
0.379792
0.393791
0.407911
0.422148
0.436495
0.450948
0.465503
0.480153
0.494894
0.509722
0.524633
0.539621
0.554683
0.569813
0.585009
0.600264
0.615576
0.630939
0.646349
0.661802
0.677294
0.692818
0.708371
0.723948
0.739543
0.755151
0.770767
0.786385
0.801999
0.817602
0.833189
0.848752
0.864284
0.879778
0.895225
0.910618
0.925947
0.941204
0.956379
0.971461
0.986441
1.00131
1.01605
1.03065
1.04511
1.0594
1.07352
1.08744
1.10116
1.11467
1.12793
1.14095
1.1537
1.16616
1.17833
1.19017
1.20168
1.21284
1.22363
1.23402
1.24401
1.25358
1.2627
1.27137
1.27955
1.28725
1.29444
1.3011
1.30723
1.31281
1.31782
1.32226
1.32613
1.3294
1.33207
1.33415
1.33561
1.33648
1.33673
1.33638
1.33543
1.33388
1.33173
1.329
1.32569
1.3218
1.31735
1.31235
1.30679
1.30068
1.29403
1.28682
1.27912
1.27097
1.26156
1.25023
0.0780399
0.0671219
0.0580863
0.0502857
0.0429443
0.0360958
0.0297853
0.0240021
0.0187359
0.0139821
0.00973669
0.00599636
0.00275807
1.91177e-05
-0.00222316
-0.00397146
-0.0052287
-0.00599802
-0.00628296
-0.00608738
-0.00541562
-0.00427242
-0.002663
-0.000593005
0.0019315
0.00490403
0.00831771
0.0121653
0.0164391
0.0211314
0.0262339
0.0317382
0.0376356
0.0439174
0.0505744
0.0575977
0.0649779
0.0727057
0.0807718
0.0891669
0.0978814
0.106906
0.116231
0.125848
0.135747
0.14592
0.156356
0.167048
0.177987
0.189163
0.200569
0.212197
0.224037
0.236083
0.248326
0.26076
0.273376
0.286168
0.299128
0.31225
0.325528
0.338954
0.352524
0.36623
0.380067
0.394029
0.408112
0.422309
0.436616
0.451027
0.465538
0.480143
0.494839
0.509621
0.524484
0.539423
0.554435
0.569515
0.584659
0.599863
0.615121
0.630431
0.645788
0.661186
0.676623
0.692092
0.70759
0.723111
0.738651
0.754205
0.769766
0.78533
0.800891
0.816442
0.831977
0.84749
0.862974
0.87842
0.893822
0.909172
0.924461
0.93968
0.954819
0.96987
0.984822
0.999663
1.01438
1.02897
1.04341
1.0577
1.07181
1.08574
1.09947
1.11299
1.12628
1.13932
1.1521
1.16461
1.17682
1.18871
1.20028
1.2115
1.22236
1.23284
1.24291
1.25256
1.26178
1.27054
1.27883
1.28663
1.29392
1.30069
1.30693
1.31262
1.31774
1.32228
1.32625
1.32961
1.33237
1.33452
1.33606
1.33697
1.33726
1.33693
1.33598
1.33441
1.33222
1.32941
1.326
1.32198
1.31737
1.31216
1.30636
1.29997
1.293
1.28543
1.27733
1.26874
1.25881
1.24684
0.0805732
0.0690672
0.0595539
0.0513528
0.0436461
0.0364693
0.0298696
0.0238343
0.0183512
0.0134135
0.00901538
0.00515108
0.00181529
-0.000997018
-0.00329077
-0.00507091
-0.00634247
-0.00711068
-0.007381
-0.00715916
-0.00645119
-0.00526344
-0.00360259
-0.00147563
0.00111012
0.00414707
0.00762733
0.0115427
0.0158849
0.0206453
0.025815
0.0313851
0.0373465
0.0436899
0.0504061
0.0574856
0.064919
0.0726968
0.0808094
0.0892475
0.0980015
0.107062
0.11642
0.126065
0.13599
0.146184
0.156639
0.167346
0.178296
0.189481
0.200892
0.212522
0.224362
0.236405
0.248642
0.261067
0.273672
0.28645
0.299394
0.312498
0.325755
0.339159
0.352704
0.366384
0.380193
0.394126
0.408176
0.42234
0.436612
0.450987
0.46546
0.480026
0.494682
0.509421
0.524241
0.539137
0.554104
0.569138
0.584235
0.59939
0.614601
0.629862
0.645168
0.660517
0.675903
0.691322
0.706769
0.72224
0.737729
0.753233
0.768745
0.78426
0.799772
0.815276
0.830766
0.846235
0.861676
0.877082
0.892446
0.907759
0.923015
0.938204
0.953316
0.968344
0.983276
0.998102
1.01281
1.02739
1.04183
1.05612
1.07025
1.08419
1.09794
1.11148
1.12481
1.13789
1.15072
1.16327
1.17554
1.18751
1.19915
1.21045
1.2214
1.23196
1.24213
1.25189
1.26122
1.27009
1.2785
1.28641
1.29383
1.30073
1.30708
1.31289
1.31813
1.3228
1.32687
1.33033
1.33319
1.33542
1.33703
1.338
1.33834
1.33803
1.33708
1.33549
1.33326
1.33038
1.32687
1.32272
1.31794
1.31253
1.30649
1.29983
1.29255
1.28462
1.27613
1.26711
1.25668
1.2441
0.0824613
0.0703869
0.0604107
0.05182
0.0437568
0.0362587
0.0293748
0.0230911
0.0173936
0.0122738
0.00772396
0.00373629
0.000303402
-0.00258186
-0.00492653
-0.00673766
-0.00802229
-0.00878763
-0.009041
-0.00878994
-0.00804215
-0.00680556
-0.0050883
-0.00289872
-0.000245397
0.00286293
0.00641735
0.0104088
0.014828
0.0196656
0.0249121
0.0305581
0.0365938
0.0430096
0.0497959
0.0569428
0.0644407
0.0722799
0.0804506
0.0889433