/*--------------------------------*- C++ -*----------------------------------*\
  =========                 |
  \\      /  F ield         | OpenFOAM: The Open Source CFD Toolbox
   \\    /   O peration     | Website:  https://openfoam.org
    \\  /    A nd           | Version:  7
     \\/     M anipulation  |
\*---------------------------------------------------------------------------*/
FoamFile
{
    version     2.0;
    format      ascii;
    class       volVectorField;
    location    "0.1625";
    object      U;
}
// * * * * * * * * * * * * * * * * * * * * * * * * * * * * * * * * * * * * * //

dimensions      [0 1 -1 0 0 0 0];

internalField   nonuniform List<vector> 
12800
(
(8.2966e-06 -8.34945e-06 0)
(3.70407e-05 -1.8548e-05 0)
(7.85025e-05 -1.97148e-05 0)
(0.000113218 -1.53533e-05 0)
(0.000129961 -8.3103e-06 0)
(0.000123847 -1.37875e-07 0)
(9.27323e-05 8.34407e-06 0)
(3.60063e-05 1.66954e-05 0)
(-4.59736e-05 2.46833e-05 0)
(-0.000152261 3.21884e-05 0)
(-0.000281558 3.91517e-05 0)
(-0.000432356 4.55479e-05 0)
(-0.000603035 5.13718e-05 0)
(-0.000791916 5.66297e-05 0)
(-0.000997309 6.13356e-05 0)
(-0.00121754 6.55084e-05 0)
(-0.00145096 6.91697e-05 0)
(-0.00169599 7.23431e-05 0)
(-0.00195108 7.50534e-05 0)
(-0.00221476 7.73257e-05 0)
(-0.00248565 7.91856e-05 0)
(-0.00276241 8.06587e-05 0)
(-0.00304379 8.17703e-05 0)
(-0.00332862 8.25454e-05 0)
(-0.0036158 8.30082e-05 0)
(-0.00390431 8.31826e-05 0)
(-0.0041932 8.30914e-05 0)
(-0.0044816 8.2757e-05 0)
(-0.00476871 8.22008e-05 0)
(-0.00505378 8.14434e-05 0)
(-0.00533615 8.05046e-05 0)
(-0.00561522 7.94031e-05 0)
(-0.00589043 7.81567e-05 0)
(-0.00616132 7.67824e-05 0)
(-0.00642745 7.52961e-05 0)
(-0.00668844 7.37129e-05 0)
(-0.00694396 7.20468e-05 0)
(-0.00719374 7.03111e-05 0)
(-0.00743754 6.85181e-05 0)
(-0.00767517 6.66791e-05 0)
(-0.00790646 6.48048e-05 0)
(-0.0081313 6.29048e-05 0)
(-0.0083496 6.09882e-05 0)
(-0.00856129 5.90629e-05 0)
(-0.00876635 5.71364e-05 0)
(-0.00896478 5.52154e-05 0)
(-0.00915657 5.33058e-05 0)
(-0.00934178 5.1413e-05 0)
(-0.00952045 4.95417e-05 0)
(-0.00969265 4.76959e-05 0)
(-0.00985847 4.58793e-05 0)
(-0.010018 4.40948e-05 0)
(-0.0101714 4.23449e-05 0)
(-0.0103186 4.06316e-05 0)
(-0.01046 3.89567e-05 0)
(-0.0105955 3.73211e-05 0)
(-0.0107253 3.57258e-05 0)
(-0.0108496 3.41712e-05 0)
(-0.0109684 3.26573e-05 0)
(-0.011082 3.11839e-05 0)
(-0.0111904 2.97504e-05 0)
(-0.0112937 2.83561e-05 0)
(-0.0113922 2.69999e-05 0)
(-0.0114859 2.56805e-05 0)
(-0.0115749 2.43964e-05 0)
(-0.0116595 2.31458e-05 0)
(-0.0117395 2.19268e-05 0)
(-0.0118153 2.07373e-05 0)
(-0.0118869 1.95751e-05 0)
(-0.0119542 1.84377e-05 0)
(-0.0120176 1.73227e-05 0)
(-0.0120769 1.62273e-05 0)
(-0.0121323 1.51487e-05 0)
(-0.0121839 1.4084e-05 0)
(-0.0122316 1.30301e-05 0)
(-0.0122755 1.19841e-05 0)
(-0.0123156 1.09428e-05 0)
(-0.0123519 9.90289e-06 0)
(-0.0123844 8.86105e-06 0)
(-0.0124132 7.81384e-06 0)
(-0.0124381 6.75789e-06 0)
(-0.0124592 5.68978e-06 0)
(-0.0124764 4.60602e-06 0)
(-0.0124896 3.5031e-06 0)
(-0.0124987 2.37745e-06 0)
(-0.0125038 1.22558e-06 0)
(-0.0125046 4.40199e-08 0)
(-0.0125011 -1.1707e-06 0)
(-0.0124932 -2.42202e-06 0)
(-0.0124807 -3.71334e-06 0)
(-0.0124634 -5.04797e-06 0)
(-0.0124413 -6.42911e-06 0)
(-0.0124142 -7.85986e-06 0)
(-0.0123819 -9.34317e-06 0)
(-0.0123441 -1.08819e-05 0)
(-0.0123008 -1.24786e-05 0)
(-0.0122517 -1.41359e-05 0)
(-0.0121966 -1.58558e-05 0)
(-0.0121353 -1.76405e-05 0)
(-0.0120676 -1.94914e-05 0)
(-0.0119933 -2.141e-05 0)
(-0.011912 -2.33972e-05 0)
(-0.0118237 -2.54537e-05 0)
(-0.011728 -2.75797e-05 0)
(-0.0116248 -2.97747e-05 0)
(-0.0115138 -3.20381e-05 0)
(-0.0113947 -3.43685e-05 0)
(-0.0112675 -3.67639e-05 0)
(-0.0111318 -3.92217e-05 0)
(-0.0109875 -4.17388e-05 0)
(-0.0108343 -4.43111e-05 0)
(-0.0106722 -4.69338e-05 0)
(-0.010501 -4.96015e-05 0)
(-0.0103205 -5.23077e-05 0)
(-0.0101306 -5.50452e-05 0)
(-0.00993131 -5.78058e-05 0)
(-0.00972254 -6.05804e-05 0)
(-0.00950429 -6.33589e-05 0)
(-0.00927656 -6.61303e-05 0)
(-0.00903944 -6.88823e-05 0)
(-0.00879302 -7.16018e-05 0)
(-0.00853747 -7.42745e-05 0)
(-0.00827299 -7.68853e-05 0)
(-0.00799983 -7.94178e-05 0)
(-0.00771833 -8.18546e-05 0)
(-0.00742884 -8.41775e-05 0)
(-0.00713182 -8.63672e-05 0)
(-0.00682778 -8.84032e-05 0)
(-0.00651728 -9.02645e-05 0)
(-0.00620098 -9.1929e-05 0)
(-0.00587961 -9.33739e-05 0)
(-0.00555396 -9.45756e-05 0)
(-0.00522492 -9.55101e-05 0)
(-0.00489344 -9.61525e-05 0)
(-0.00456057 -9.64776e-05 0)
(-0.00422743 -9.64599e-05 0)
(-0.00389523 -9.60736e-05 0)
(-0.00356526 -9.52926e-05 0)
(-0.00323889 -9.40908e-05 0)
(-0.00291756 -9.24423e-05 0)
(-0.00260281 -9.03213e-05 0)
(-0.00229625 -8.77024e-05 0)
(-0.00199955 -8.45606e-05 0)
(-0.00171445 -8.08718e-05 0)
(-0.00144275 -7.66132e-05 0)
(-0.00118631 -7.17631e-05 0)
(-0.000947032 -6.63022e-05 0)
(-0.00072682 -6.02143e-05 0)
(-0.0005276 -5.34879e-05 0)
(-0.000351265 -4.61191e-05 0)
(-0.000199637 -3.81161e-05 0)
(-7.4408e-05 -2.95071e-05 0)
(2.29648e-05 -2.03558e-05 0)
(9.1408e-05 -1.07909e-05 0)
(0.000130493 -1.06272e-06 0)
(0.000140851 8.34966e-06 0)
(0.000124798 1.65433e-05 0)
(8.76943e-05 2.17861e-05 0)
(4.20323e-05 2.08576e-05 0)
(9.6312e-06 9.63109e-06 0)
(1.85344e-05 -3.71224e-05 0)
(7.03152e-05 -7.03125e-05 0)
(0.000132007 -6.77573e-05 0)
(0.000170105 -4.20829e-05 0)
(0.000163327 -3.14894e-06 0)
(0.000100244 4.27155e-05 0)
(-2.54117e-05 9.1545e-05 0)
(-0.000216375 0.000140859 0)
(-0.000472855 0.000189109 0)
(-0.000793346 0.000235337 0)
(-0.00117521 0.00027895 0)
(-0.00161505 0.000319595 0)
(-0.002109 0.000357076 0)
(-0.0026529 0.000391301 0)
(-0.00324245 0.000422254 0)
(-0.00387329 0.00044997 0)
(-0.00454108 0.000474521 0)
(-0.00524158 0.000496003 0)
(-0.00597062 0.000514533 0)
(-0.00672421 0.00053024 0)
(-0.0074985 0.000543261 0)
(-0.00828983 0.00055374 0)
(-0.00909472 0.000561823 0)
(-0.00990989 0.000567659 0)
(-0.0107323 0.000571396 0)
(-0.0115589 0.000573181 0)
(-0.0123872 0.000573159 0)
(-0.0132146 0.00057147 0)
(-0.0140389 0.000568253 0)
(-0.0148579 0.00056364 0)
(-0.0156697 0.000557762 0)
(-0.0164725 0.000550741 0)
(-0.0172649 0.000542695 0)
(-0.0180453 0.000533738 0)
(-0.0188125 0.000523977 0)
(-0.0195654 0.000513513 0)
(-0.020303 0.000502441 0)
(-0.0210245 0.000490852 0)
(-0.0217293 0.00047883 0)
(-0.0224166 0.000466454 0)
(-0.023086 0.000453795 0)
(-0.0237371 0.000440922 0)
(-0.0243697 0.000427898 0)
(-0.0249835 0.000414777 0)
(-0.0255784 0.000401614 0)
(-0.0261544 0.000388454 0)
(-0.0267114 0.000375341 0)
(-0.0272496 0.000362312 0)
(-0.027769 0.000349402 0)
(-0.0282699 0.000336639 0)
(-0.0287525 0.00032405 0)
(-0.0292169 0.000311658 0)
(-0.0296635 0.00029948 0)
(-0.0300926 0.000287532 0)
(-0.0305046 0.000275826 0)
(-0.0308997 0.000264373 0)
(-0.0312782 0.000253178 0)
(-0.0316407 0.000242246 0)
(-0.0319874 0.000231578 0)
(-0.0323188 0.000221175 0)
(-0.0326351 0.000211033 0)
(-0.0329367 0.000201148 0)
(-0.0332241 0.000191514 0)
(-0.0334975 0.000182121 0)
(-0.0337573 0.000172962 0)
(-0.0340039 0.000164024 0)
(-0.0342374 0.000155295 0)
(-0.0344582 0.000146762 0)
(-0.0346666 0.000138408 0)
(-0.0348628 0.00013022 0)
(-0.0350471 0.000122178 0)
(-0.0352195 0.000114266 0)
(-0.0353804 0.000106465 0)
(-0.0355298 9.8755e-05 0)
(-0.0356679 9.11155e-05 0)
(-0.0357946 8.35261e-05 0)
(-0.0359102 7.59655e-05 0)
(-0.0360146 6.84117e-05 0)
(-0.0361078 6.08423e-05 0)
(-0.0361898 5.32343e-05 0)
(-0.0362604 4.55647e-05 0)
(-0.0363196 3.78103e-05 0)
(-0.0363673 2.99478e-05 0)
(-0.0364033 2.19536e-05 0)
(-0.0364273 1.3804e-05 0)
(-0.0364391 5.4755e-06 0)
(-0.0364385 -3.05517e-06 0)
(-0.0364252 -1.18111e-05 0)
(-0.0363987 -2.08151e-05 0)
(-0.0363588 -3.00895e-05 0)
(-0.0363051 -3.96561e-05 0)
(-0.036237 -4.9536e-05 0)
(-0.0361542 -5.97492e-05 0)
(-0.0360561 -7.0315e-05 0)
(-0.0359423 -8.12515e-05 0)
(-0.0358122 -9.25757e-05 0)
(-0.0356652 -0.000104303 0)
(-0.0355008 -0.000116447 0)
(-0.0353183 -0.000129019 0)
(-0.0351172 -0.00014203 0)
(-0.0348968 -0.000155486 0)
(-0.0346565 -0.000169394 0)
(-0.0343957 -0.000183755 0)
(-0.0341137 -0.000198568 0)
(-0.0338099 -0.000213829 0)
(-0.0334836 -0.000229532 0)
(-0.0331344 -0.000245665 0)
(-0.0327615 -0.000262212 0)
(-0.0323644 -0.000279155 0)
(-0.0319426 -0.000296468 0)
(-0.0314955 -0.000314123 0)
(-0.0310229 -0.000332085 0)
(-0.0305242 -0.000350316 0)
(-0.0299992 -0.000368769 0)
(-0.0294476 -0.000387394 0)
(-0.0288691 -0.000406133 0)
(-0.0282638 -0.000424923 0)
(-0.0276317 -0.000443695 0)
(-0.0269728 -0.000462372 0)
(-0.0262873 -0.00048087 0)
(-0.0255757 -0.0004991 0)
(-0.0248384 -0.000516966 0)
(-0.024076 -0.000534363 0)
(-0.0232894 -0.000551182 0)
(-0.0224794 -0.000567306 0)
(-0.0216472 -0.000582614 0)
(-0.020794 -0.000596974 0)
(-0.0199214 -0.000610254 0)
(-0.019031 -0.000622312 0)
(-0.0181247 -0.000633005 0)
(-0.0172045 -0.000642181 0)
(-0.0162729 -0.000649688 0)
(-0.0153321 -0.000655369 0)
(-0.0143851 -0.000659064 0)
(-0.0134347 -0.000660614 0)
(-0.0124841 -0.000659855 0)
(-0.0115368 -0.000656626 0)
(-0.0105963 -0.000650767 0)
(-0.00966643 -0.000642119 0)
(-0.00875129 -0.000630528 0)
(-0.00785509 -0.000615845 0)
(-0.00698227 -0.000597929 0)
(-0.00613741 -0.000576647 0)
(-0.00532527 -0.00055188 0)
(-0.00455073 -0.000523525 0)
(-0.00381874 -0.000491502 0)
(-0.00313431 -0.000455758 0)
(-0.00250244 -0.000416283 0)
(-0.00192804 -0.000373118 0)
(-0.00141582 -0.000326383 0)
(-0.000970144 -0.000276312 0)
(-0.000594832 -0.000223305 0)
(-0.000292865 -0.000168016 0)
(-6.59612e-05 -0.000111498 0)
(8.60556e-05 -5.54471e-05 0)
(0.000166155 -2.59599e-06 0)
(0.000181221 4.26544e-05 0)
(0.000143916 7.32171e-05 0)
(7.79505e-05 7.79211e-05 0)
(2.08554e-05 4.20225e-05 0)
(1.97939e-05 -7.86319e-05 0)
(6.80778e-05 -0.000132085 0)
(0.00011116 -0.000110656 0)
(0.000110342 -3.94455e-05 0)
(4.037e-05 6.29675e-05 0)
(-0.000113613 0.000183365 0)
(-0.000360502 0.000312604 0)
(-0.000704697 0.000444478 0)
(-0.00114714 0.00057481 0)
(-0.00168628 0.000700806 0)
(-0.00231876 0.000820618 0)
(-0.00304001 0.000933049 0)
(-0.0038446 0.00103736 0)
(-0.00472654 0.00113314 0)
(-0.00567953 0.0012202 0)
(-0.00669707 0.00129852 0)
(-0.00777265 0.0013682 0)
(-0.0088998 0.00142945 0)
(-0.0100722 0.00148252 0)
(-0.0112836 0.00152773 0)
(-0.0125281 0.00156541 0)
(-0.0137999 0.00159595 0)
(-0.0150937 0.00161971 0)
(-0.0164042 0.0016371 0)
(-0.0177267 0.00164852 0)
(-0.0190565 0.00165437 0)
(-0.0203893 0.00165504 0)
(-0.0217213 0.00165093 0)
(-0.0230487 0.00164241 0)
(-0.0243681 0.00162987 0)
(-0.0256765 0.00161366 0)
(-0.0269711 0.00159412 0)
(-0.0282492 0.00157161 0)
(-0.0295087 0.00154642 0)
(-0.0307474 0.00151888 0)
(-0.0319636 0.00148926 0)
(-0.0331556 0.00145785 0)
(-0.0343221 0.00142489 0)
(-0.0354619 0.00139064 0)
(-0.036574 0.00135532 0)
(-0.0376577 0.00131913 0)
(-0.0387122 0.00128227 0)
(-0.039737 0.00124493 0)
(-0.0407318 0.00120727 0)
(-0.0416964 0.00116943 0)
(-0.0426307 0.00113156 0)
(-0.0435345 0.00109378 0)
(-0.0444081 0.0010562 0)
(-0.0452515 0.00101893 0)
(-0.0460651 0.000982044 0)
(-0.0468491 0.000945623 0)
(-0.0476039 0.000909734 0)
(-0.04833 0.000874432 0)
(-0.0490278 0.000839764 0)
(-0.0496977 0.000805767 0)
(-0.0503404 0.00077247 0)
(-0.0509564 0.000739895 0)
(-0.0515463 0.000708054 0)
(-0.0521106 0.000676955 0)
(-0.0526499 0.000646597 0)
(-0.0531647 0.000616974 0)
(-0.0536557 0.000588075 0)
(-0.0541235 0.000559883 0)
(-0.0545685 0.000532374 0)
(-0.0549913 0.000505522 0)
(-0.0553923 0.000479297 0)
(-0.0557722 0.000453663 0)
(-0.0561313 0.000428581 0)
(-0.05647 0.000404009 0)
(-0.0567887 0.000379902 0)
(-0.0570878 0.000356212 0)
(-0.0573676 0.000332887 0)
(-0.0576284 0.000309875 0)
(-0.0578703 0.000287119 0)
(-0.0580936 0.000264561 0)
(-0.0582983 0.000242143 0)
(-0.0584846 0.000219803 0)
(-0.0586525 0.000197479 0)
(-0.058802 0.000175107 0)
(-0.058933 0.000152621 0)
(-0.0590454 0.000129957 0)
(-0.059139 0.000107047 0)
(-0.0592136 8.38243e-05 0)
(-0.059269 6.0223e-05 0)
(-0.0593047 3.61753e-05 0)
(-0.0593204 1.16145e-05 0)
(-0.0593158 -1.35258e-05 0)
(-0.0592902 -3.93111e-05 0)
(-0.0592431 -6.58058e-05 0)
(-0.0591741 -9.3073e-05 0)
(-0.0590823 -0.000121174 0)
(-0.0589672 -0.000150168 0)
(-0.058828 -0.000180112 0)
(-0.0586639 -0.000211059 0)
(-0.0584741 -0.00024306 0)
(-0.0582578 -0.000276162 0)
(-0.0580141 -0.000310407 0)
(-0.057742 -0.000345832 0)
(-0.0574407 -0.00038247 0)
(-0.0571091 -0.000420347 0)
(-0.0567463 -0.000459481 0)
(-0.0563513 -0.000499886 0)
(-0.0559231 -0.000541565 0)
(-0.0554607 -0.000584513 0)
(-0.0549631 -0.000628718 0)
(-0.0544293 -0.000674154 0)
(-0.0538584 -0.000720787 0)
(-0.0532495 -0.000768571 0)
(-0.0526018 -0.000817447 0)
(-0.0519144 -0.000867342 0)
(-0.0511865 -0.000918171 0)
(-0.0504176 -0.000969833 0)
(-0.049607 -0.00102221 0)
(-0.0487543 -0.00107518 0)
(-0.047859 -0.00112858 0)
(-0.046921 -0.00118225 0)
(-0.0459401 -0.00123601 0)
(-0.0449165 -0.00128966 0)
(-0.0438503 -0.00134297 0)
(-0.0427419 -0.00139571 0)
(-0.041592 -0.00144762 0)
(-0.0404014 -0.00149842 0)
(-0.0391711 -0.00154782 0)
(-0.0379023 -0.0015955 0)
(-0.0365968 -0.00164113 0)
(-0.0352562 -0.00168437 0)
(-0.0338827 -0.00172484 0)
(-0.0324786 -0.00176218 0)
(-0.0310467 -0.00179597 0)
(-0.0295899 -0.00182581 0)
(-0.0281116 -0.00185128 0)
(-0.0266155 -0.00187195 0)
(-0.0251056 -0.00188739 0)
(-0.0235862 -0.00189714 0)
(-0.0220619 -0.00190077 0)
(-0.0205379 -0.00189782 0)
(-0.0190195 -0.00188785 0)
(-0.0175124 -0.00187043 0)
(-0.0160226 -0.00184513 0)
(-0.0145565 -0.00181154 0)
(-0.0131206 -0.00176926 0)
(-0.0117219 -0.00171795 0)
(-0.0103675 -0.00165726 0)
(-0.00906464 -0.00158692 0)
(-0.00782088 -0.00150671 0)
(-0.00664374 -0.00141649 0)
(-0.00554076 -0.0013162 0)
(-0.00451939 -0.00120595 0)
(-0.00358685 -0.001086 0)
(-0.00274993 -0.000956863 0)
(-0.00201477 -0.000819414 0)
(-0.00138655 -0.000675001 0)
(-0.000869041 -0.000525682 0)
(-0.000464026 -0.000374545 0)
(-0.000170513 -0.0002262 0)
(1.63298e-05 -8.75212e-05 0)
(0.000106341 3.13141e-05 0)
(0.000116039 0.000115486 0)
(7.35182e-05 0.00014395 0)
(2.18395e-05 8.77259e-05 0)
(1.55723e-05 -0.000113648 0)
(4.28986e-05 -0.000170635 0)
(4.08556e-05 -0.000110041 0)
(-2.81648e-05 2.97452e-05 0)
(-0.000189856 0.000221186 0)
(-0.000460404 0.000443847 0)
(-0.000849879 0.000682863 0)
(-0.00136351 0.000927643 0)
(-0.00200267 0.00117072 0)
(-0.00276577 0.00140687 0)
(-0.00364902 0.00163248 0)
(-0.00464703 0.00184512 0)
(-0.00575322 0.0020432 0)
(-0.00696025 0.00222573 0)
(-0.00826025 0.0023922 0)
(-0.00964504 0.00254244 0)
(-0.0111063 0.00267654 0)
(-0.0126358 0.00279474 0)
(-0.0142253 0.00289748 0)
(-0.0158667 0.00298527 0)
(-0.0175524 0.00305872 0)
(-0.0192747 0.00311847 0)
(-0.0210266 0.00316523 0)
(-0.0228013 0.00319972 0)
(-0.0245922 0.00322269 0)
(-0.0263932 0.00323487 0)
(-0.0281988 0.00323701 0)
(-0.0300036 0.00322986 0)
(-0.0318027 0.00321414 0)
(-0.0335915 0.00319055 0)
(-0.0353659 0.00315979 0)
(-0.0371221 0.00312252 0)
(-0.0388566 0.00307939 0)
(-0.0405662 0.00303101 0)
(-0.0422483 0.00297798 0)
(-0.0439003 0.00292084 0)
(-0.0455201 0.00286014 0)
(-0.0471058 0.00279637 0)
(-0.0486557 0.00273 0)
(-0.0501685 0.00266147 0)
(-0.0516431 0.00259119 0)
(-0.0530784 0.00251954 0)
(-0.0544739 0.00244688 0)
(-0.0558289 0.00237353 0)
(-0.0571432 0.00229978 0)
(-0.0584164 0.0022259 0)
(-0.0596486 0.00215215 0)
(-0.0608399 0.00207873 0)
(-0.0619904 0.00200585 0)
(-0.0631005 0.00193368 0)
(-0.0641705 0.00186238 0)
(-0.0652009 0.00179206 0)
(-0.0661923 0.00172284 0)
(-0.0671452 0.00165483 0)
(-0.0680603 0.00158808 0)
(-0.0689383 0.00152267 0)
(-0.06978 0.00145863 0)
(-0.070586 0.00139599 0)
(-0.0713571 0.00133477 0)
(-0.0720941 0.00127498 0)
(-0.0727977 0.00121659 0)
(-0.0734688 0.00115959 0)
(-0.074108 0.00110395 0)
(-0.074716 0.00104962 0)
(-0.0752937 0.000996556 0)
(-0.0758415 0.000944698 0)
(-0.0763602 0.000893979 0)
(-0.0768504 0.000844323 0)
(-0.0773127 0.000795649 0)
(-0.0777474 0.00074787 0)
(-0.0781552 0.000700893 0)
(-0.0785363 0.000654619 0)
(-0.0788912 0.000608945 0)
(-0.0792202 0.000563764 0)
(-0.0795234 0.000518963 0)
(-0.0798012 0.000474427 0)
(-0.0800534 0.000430038 0)
(-0.0802803 0.000385675 0)
(-0.0804818 0.000341214 0)
(-0.0806578 0.000296529 0)
(-0.0808081 0.000251493 0)
(-0.0809325 0.000205977 0)
(-0.0810308 0.000159852 0)
(-0.0811024 0.000112989 0)
(-0.0811471 6.52566e-05 0)
(-0.0811642 1.65272e-05 0)
(-0.0811532 -3.33277e-05 0)
(-0.0811135 -8.44345e-05 0)
(-0.0810442 -0.000136917 0)
(-0.0809447 -0.000190897 0)
(-0.080814 -0.000246491 0)
(-0.0806514 -0.000303815 0)
(-0.0804557 -0.000362975 0)
(-0.0802259 -0.000424075 0)
(-0.079961 -0.00048721 0)
(-0.0796599 -0.00055247 0)
(-0.0793213 -0.000619934 0)
(-0.078944 -0.000689672 0)
(-0.0785268 -0.000761745 0)
(-0.0780685 -0.000836199 0)
(-0.0775676 -0.000913071 0)
(-0.077023 -0.000992379 0)
(-0.0764332 -0.00107413 0)
(-0.0757971 -0.00115831 0)
(-0.0751132 -0.00124489 0)
(-0.0743803 -0.00133382 0)
(-0.0735972 -0.00142503 0)
(-0.0727627 -0.00151842 0)
(-0.0718756 -0.00161387 0)
(-0.070935 -0.00171126 0)
(-0.0699399 -0.00181039 0)
(-0.0688893 -0.00191107 0)
(-0.0677826 -0.00201309 0)
(-0.0666192 -0.00211616 0)
(-0.0653987 -0.00222002 0)
(-0.0641207 -0.00232432 0)
(-0.0627851 -0.00242871 0)
(-0.0613922 -0.00253281 0)
(-0.0599422 -0.00263617 0)
(-0.0584358 -0.00273834 0)
(-0.0568738 -0.00283881 0)
(-0.0552574 -0.00293705 0)
(-0.053588 -0.00303248 0)
(-0.0518674 -0.00312451 0)
(-0.0500977 -0.00321248 0)
(-0.0482814 -0.00329573 0)
(-0.0464214 -0.00337354 0)
(-0.0445208 -0.0034452 0)
(-0.0425833 -0.00350992 0)
(-0.0406131 -0.00356694 0)
(-0.0386145 -0.00361544 0)
(-0.0365924 -0.00365461 0)
(-0.0345524 -0.00368361 0)
(-0.0325001 -0.00370159 0)
(-0.0304418 -0.00370771 0)
(-0.0283842 -0.00370113 0)
(-0.0263344 -0.00368102 0)
(-0.0243001 -0.00364656 0)
(-0.0222891 -0.00359696 0)
(-0.0203098 -0.00353148 0)
(-0.0183709 -0.0034494 0)
(-0.0164815 -0.00335008 0)
(-0.0146507 -0.00323297 0)
(-0.0128882 -0.0030976 0)
(-0.0112035 -0.00294363 0)
(-0.00960637 -0.00277092 0)
(-0.00810641 -0.00257949 0)
(-0.00671302 -0.00236968 0)
(-0.00543521 -0.00214219 0)
(-0.00428134 -0.00189819 0)
(-0.00325885 -0.00163956 0)
(-0.00237385 -0.00136904 0)
(-0.0016306 -0.00109068 0)
(-0.00103092 -0.000810265 0)
(-0.00057333 -0.000536079 0)
(-0.000252044 -0.000279867 0)
(-5.58871e-05 -5.81875e-05 0)
(3.31552e-05 0.000106064 0)
(4.35454e-05 0.000181789 0)
(1.67293e-05 0.000125099 0)
(8.69055e-06 -0.000131012 0)
(4.47572e-06 -0.000164757 0)
(-6.07651e-05 -4.0652e-05 0)
(-0.000218738 0.000191271 0)
(-0.000492939 0.00049517 0)
(-0.000899348 0.000843801 0)
(-0.00144803 0.00121671 0)
(-0.00214422 0.00159882 0)
(-0.00298927 0.00197915 0)
(-0.00398136 0.00234974 0)
(-0.00511628 0.00270492 0)
(-0.00638797 0.00304072 0)
(-0.00778896 0.00335445 0)
(-0.00931083 0.00364439 0)
(-0.0109445 0.00390953 0)
(-0.0126803 0.00414942 0)
(-0.0145087 0.00436405 0)
(-0.0164197 0.0045537 0)
(-0.0184036 0.00471893 0)
(-0.0204508 0.00486047 0)
(-0.022552 0.00497919 0)
(-0.0246982 0.00507607 0)
(-0.0268806 0.00515218 0)
(-0.0290911 0.00520863 0)
(-0.0313217 0.00524655 0)
(-0.0335651 0.00526711 0)
(-0.0358142 0.00527149 0)
(-0.0380626 0.00526083 0)
(-0.0403042 0.0052363 0)
(-0.0425334 0.00519901 0)
(-0.0447451 0.00515007 0)
(-0.0469345 0.00509054 0)
(-0.0490974 0.00502145 0)
(-0.05123 0.00494379 0)
(-0.0533286 0.0048585 0)
(-0.0553903 0.00476649 0)
(-0.0574123 0.0046686 0)
(-0.0593922 0.00456565 0)
(-0.061328 0.00445839 0)
(-0.063218 0.00434755 0)
(-0.0650607 0.00423378 0)
(-0.0668548 0.0041177 0)
(-0.0685996 0.00399989 0)
(-0.0702942 0.00388087 0)
(-0.0719383 0.00376113 0)
(-0.0735315 0.00364111 0)
(-0.0750737 0.00352121 0)
(-0.076565 0.00340179 0)
(-0.0780056 0.00328316 0)
(-0.0793958 0.00316562 0)
(-0.0807362 0.00304942 0)
(-0.0820271 0.00293476 0)
(-0.0832694 0.00282184 0)
(-0.0844637 0.00271081 0)
(-0.0856108 0.0026018 0)
(-0.0867115 0.0024949 0)
(-0.0877667 0.00239018 0)
(-0.0887773 0.00228771 0)
(-0.0897443 0.0021875 0)
(-0.0906684 0.00208956 0)
(-0.0915508 0.00199388 0)
(-0.0923922 0.00190042 0)
(-0.0931936 0.00180913 0)
(-0.0939559 0.00171996 0)
(-0.0946799 0.00163281 0)
(-0.0953665 0.0015476 0)
(-0.0960164 0.00146421 0)
(-0.0966304 0.00138253 0)
(-0.0972091 0.00130243 0)
(-0.0977531 0.00122377 0)
(-0.0982631 0.0011464 0)
(-0.0987395 0.00107015 0)
(-0.0991828 0.000994863 0)
(-0.0995933 0.000920366 0)
(-0.0999712 0.000846478 0)
(-0.100317 0.000773013 0)
(-0.10063 0.000699778 0)
(-0.100912 0.000626579 0)
(-0.101161 0.000553216 0)
(-0.101378 0.000479487 0)
(-0.101563 0.000405185 0)
(-0.101715 0.000330104 0)
(-0.101833 0.000254035 0)
(-0.101919 0.000176768 0)
(-0.10197 9.80957e-05 0)
(-0.101986 1.78099e-05 0)
(-0.101967 -6.42951e-05 0)
(-0.101911 -0.000148423 0)
(-0.101819 -0.000234772 0)
(-0.101688 -0.000323537 0)
(-0.101518 -0.000414907 0)
(-0.101308 -0.000509062 0)
(-0.101056 -0.000606178 0)
(-0.100761 -0.000706416 0)
(-0.100423 -0.00080993 0)
(-0.100039 -0.000916861 0)
(-0.0996078 -0.00102733 0)
(-0.0991284 -0.00114146 0)
(-0.0985991 -0.00125933 0)
(-0.0980183 -0.00138102 0)
(-0.0973845 -0.00150658 0)
(-0.096696 -0.00163604 0)
(-0.0959512 -0.0017694 0)
(-0.0951486 -0.00190664 0)
(-0.0942866 -0.00204771 0)
(-0.0933636 -0.00219252 0)
(-0.0923782 -0.00234095 0)
(-0.0913289 -0.00249285 0)
(-0.0902144 -0.00264801 0)
(-0.0890335 -0.0028062 0)
(-0.0877849 -0.00296715 0)
(-0.0864678 -0.00313052 0)
(-0.0850811 -0.00329594 0)
(-0.0836243 -0.00346299 0)
(-0.0820968 -0.0036312 0)
(-0.0804983 -0.00380003 0)
(-0.0788288 -0.00396891 0)
(-0.0770885 -0.0041372 0)
(-0.0752779 -0.0043042 0)
(-0.0733978 -0.00446916 0)
(-0.0714493 -0.00463127 0)
(-0.0694338 -0.00478966 0)
(-0.0673531 -0.00494342 0)
(-0.0652096 -0.00509157 0)
(-0.0630059 -0.00523307 0)
(-0.0607451 -0.00536684 0)
(-0.0584306 -0.00549175 0)
(-0.0560665 -0.00560662 0)
(-0.0536574 -0.00571024 0)
(-0.0512082 -0.00580135 0)
(-0.0487245 -0.00587867 0)
(-0.0462123 -0.00594088 0)
(-0.0436783 -0.00598667 0)
(-0.0411294 -0.0060147 0)
(-0.0385735 -0.00602362 0)
(-0.0360187 -0.00601212 0)
(-0.0334736 -0.0059789 0)
(-0.0309475 -0.00592267 0)
(-0.02845 -0.00584223 0)
(-0.0259912 -0.00573642 0)
(-0.0235818 -0.00560417 0)
(-0.0212324 -0.00544453 0)
(-0.0189543 -0.0052567 0)
(-0.0167587 -0.00504003 0)
(-0.0146573 -0.00479412 0)
(-0.0126615 -0.00451885 0)
(-0.0107824 -0.00421446 0)
(-0.0090313 -0.00388165 0)
(-0.00741844 -0.00352173 0)
(-0.00595348 -0.00313678 0)
(-0.00464487 -0.00272993 0)
(-0.00349947 -0.00230571 0)
(-0.00252204 -0.00187045 0)
(-0.0017146 -0.00143302 0)
(-0.00107568 -0.00100562 0)
(-0.000599484 -0.000604987 0)
(-0.000274809 -0.000253881 0)
(-8.38887e-05 1.72305e-05 0)
(-8.61002e-07 0.000168039 0)
(8.73487e-06 0.000141827 0)
(6.65036e-07 -0.000125806 0)
(-4.1066e-05 -0.000102827 0)
(-0.000181029 0.000112777 0)
(-0.000441962 0.000461971 0)
(-0.000843262 0.0009018 0)
(-0.0013995 0.00139895 0)
(-0.00211977 0.00192779 0)
(-0.00300859 0.00246897 0)
(-0.00406677 0.00300797 0)
(-0.00529201 0.00353403 0)
(-0.00667953 0.00403924 0)
(-0.00822261 0.00451796 0)
(-0.009913 0.00496622 0)
(-0.0117413 0.00538139 0)
(-0.0136975 0.00576186 0)
(-0.0157708 0.00610681 0)
(-0.0179503 0.00641603 0)
(-0.0202249 0.0066898 0)
(-0.0225834 0.00692876 0)
(-0.0250151 0.00713385 0)
(-0.0275092 0.00730622 0)
(-0.0300553 0.00744721 0)
(-0.0326436 0.00755826 0)
(-0.0352643 0.00764091 0)
(-0.0379085 0.00769677 0)
(-0.0405676 0.00772745 0)
(-0.0432334 0.00773463 0)
(-0.0458983 0.00771995 0)
(-0.0485553 0.00768505 0)
(-0.0511979 0.00763155 0)
(-0.05382 0.007561 0)
(-0.056416 0.00747496 0)
(-0.058981 0.0073749 0)
(-0.0615104 0.00726225 0)
(-0.064 0.00713838 0)
(-0.0664462 0.0070046 0)
(-0.0688458 0.00686214 0)
(-0.071196 0.00671219 0)
(-0.0734942 0.00655584 0)
(-0.0757385 0.00639415 0)
(-0.077927 0.00622807 0)
(-0.0800584 0.00605852 0)
(-0.0821315 0.00588633 0)
(-0.0841455 0.00571227 0)
(-0.0860998 0.00553706 0)
(-0.0879939 0.00536134 0)
(-0.0898278 0.00518571 0)
(-0.0916015 0.00501068 0)
(-0.0933152 0.00483673 0)
(-0.0949692 0.00466429 0)
(-0.0965641 0.00449373 0)
(-0.0981005 0.00432535 0)
(-0.0995792 0.00415944 0)
(-0.101001 0.00399623 0)
(-0.102366 0.00383591 0)
(-0.103677 0.00367862 0)
(-0.104933 0.00352447 0)
(-0.106137 0.00337355 0)
(-0.107288 0.00322588 0)
(-0.108389 0.0030815 0)
(-0.109439 0.00294037 0)
(-0.110441 0.00280245 0)
(-0.111395 0.00266768 0)
(-0.112303 0.00253596 0)
(-0.113165 0.00240718 0)
(-0.113982 0.0022812 0)
(-0.114755 0.00215786 0)
(-0.115485 0.002037 0)
(-0.116173 0.00191842 0)
(-0.11682 0.00180193 0)
(-0.117425 0.00168729 0)
(-0.117991 0.0015743 0)
(-0.118516 0.00146269 0)
(-0.119003 0.00135222 0)
(-0.11945 0.00124263 0)
(-0.119859 0.00113365 0)
(-0.120229 0.001025 0)
(-0.12056 0.000916397 0)
(-0.120853 0.000807546 0)
(-0.121108 0.000698155 0)
(-0.121323 0.000587926 0)
(-0.121499 0.000476558 0)
(-0.121635 0.000363747 0)
(-0.121732 0.00024919 0)
(-0.121787 0.000132585 0)
(-0.1218 1.36284e-05 0)
(-0.121771 -0.000107976 0)
(-0.121699 -0.000232523 0)
(-0.121582 -0.000360301 0)
(-0.12142 -0.000491591 0)
(-0.121211 -0.000626665 0)
(-0.120953 -0.000765786 0)
(-0.120647 -0.000909203 0)
(-0.120289 -0.00105715 0)
(-0.119878 -0.00120985 0)
(-0.119414 -0.0013675 0)
(-0.118894 -0.00153027 0)
(-0.118316 -0.00169834 0)
(-0.117679 -0.00187182 0)
(-0.116981 -0.00205083 0)
(-0.116219 -0.00223542 0)
(-0.115393 -0.00242565 0)
(-0.114501 -0.0026215 0)
(-0.11354 -0.00282294 0)
(-0.112508 -0.00302988 0)
(-0.111405 -0.0032422 0)
(-0.110227 -0.00345971 0)
(-0.108975 -0.00368218 0)
(-0.107645 -0.00390932 0)
(-0.106237 -0.00414078 0)
(-0.104749 -0.00437615 0)
(-0.103181 -0.00461494 0)
(-0.10153 -0.00485661 0)
(-0.0997974 -0.00510053 0)
(-0.0979814 -0.00534602 0)
(-0.0960819 -0.00559229 0)
(-0.0940991 -0.00583851 0)
(-0.0920331 -0.00608373 0)
(-0.0898846 -0.00632695 0)
(-0.0876545 -0.00656707 0)
(-0.0853443 -0.00680292 0)
(-0.0829556 -0.00703322 0)
(-0.0804907 -0.00725666 0)
(-0.0779522 -0.0074718 0)
(-0.0753432 -0.00767715 0)
(-0.0726675 -0.00787115 0)
(-0.0699291 -0.00805215 0)
(-0.0671328 -0.00821846 0)
(-0.0642838 -0.00836833 0)
(-0.0613882 -0.00849994 0)
(-0.0584522 -0.00861144 0)
(-0.0554831 -0.00870097 0)
(-0.0524885 -0.00876661 0)
(-0.0494766 -0.00880646 0)
(-0.0464564 -0.00881862 0)
(-0.0434374 -0.0088012 0)
(-0.0404297 -0.00875235 0)
(-0.0374439 -0.0086703 0)
(-0.0344911 -0.00855334 0)
(-0.031583 -0.00839987 0)
(-0.0287317 -0.00820843 0)
(-0.0259496 -0.00797775 0)
(-0.0232494 -0.00770677 0)
(-0.0206442 -0.0073947 0)
(-0.0181468 -0.0070411 0)
(-0.0157704 -0.00664597 0)
(-0.0135275 -0.00620982 0)
(-0.0114306 -0.00573387 0)
(-0.00949115 -0.00522018 0)
(-0.00771996 -0.00467193 0)
(-0.00612631 -0.00409372 0)
(-0.00471782 -0.003492 0)
(-0.00349986 -0.00287565 0)
(-0.00247498 -0.00225667 0)
(-0.00164229 -0.0016512 0)
(-0.000996758 -0.00108074 0)
(-0.00052827 -0.000573764 0)
(-0.000220652 -0.000167425 0)
(-5.2752e-05 9.01931e-05 0)
(-4.36575e-07 0.000132663 0)
(-7.72424e-06 -9.57395e-05 0)
(-8.99816e-05 2.18978e-05 0)
(-0.00031137 0.000359974 0)
(-0.000684038 0.000853116 0)
(-0.00122204 0.00145271 0)
(-0.00193764 0.00212031 0)
(-0.00283818 0.00282577 0)
(-0.00392682 0.00354578 0)
(-0.00520337 0.0042625 0)
(-0.00666472 0.00496242 0)
(-0.00830533 0.00563541 0)
(-0.0101177 0.00627405 0)
(-0.0120929 0.00687302 0)
(-0.0142206 0.0074287 0)
(-0.0164898 0.00793877 0)
(-0.0188888 0.00840196 0)
(-0.0214056 0.00881781 0)
(-0.024028 0.00918654 0)
(-0.0267439 0.00950886 0)
(-0.0295411 0.00978589 0)
(-0.0324079 0.0100191 0)
(-0.0353326 0.0102101 0)
(-0.0383043 0.0103608 0)
(-0.0413122 0.0104732 0)
(-0.0443461 0.0105494 0)
(-0.0473965 0.0105915 0)
(-0.0504541 0.0106018 0)
(-0.0535105 0.0105824 0)
(-0.0565578 0.0105355 0)
(-0.0595884 0.0104633 0)
(-0.0625956 0.0103678 0)
(-0.065573 0.0102512 0)
(-0.0685151 0.0101154 0)
(-0.0714165 0.00996237 0)
(-0.0742727 0.00979396 0)
(-0.0770794 0.00961194 0)
(-0.0798329 0.00941798 0)
(-0.08253 0.00921369 0)
(-0.085168 0.00900056 0)
(-0.0877443 0.00878002 0)
(-0.0902571 0.00855338 0)
(-0.0927046 0.00832188 0)
(-0.0950855 0.00808666 0)
(-0.0973988 0.00784879 0)
(-0.0996439 0.00760922 0)
(-0.10182 0.00736886 0)
(-0.103928 0.00712849 0)
(-0.105966 0.00688886 0)
(-0.107936 0.00665061 0)
(-0.109837 0.00641432 0)
(-0.111671 0.00618049 0)
(-0.113437 0.00594957 0)
(-0.115138 0.00572195 0)
(-0.116773 0.00549792 0)
(-0.118343 0.00527777 0)
(-0.119851 0.00506169 0)
(-0.121296 0.00484984 0)
(-0.12268 0.00464233 0)
(-0.124004 0.00443922 0)
(-0.12527 0.00424053 0)
(-0.126478 0.00404624 0)
(-0.127631 0.0038563 0)
(-0.128728 0.0036706 0)
(-0.129771 0.00348904 0)
(-0.130762 0.00331145 0)
(-0.131701 0.00313765 0)
(-0.132589 0.00296744 0)
(-0.133428 0.00280057 0)
(-0.134218 0.0026368 0)
(-0.13496 0.00247585 0)
(-0.135654 0.00231742 0)
(-0.136302 0.0021612 0)
(-0.136905 0.00200687 0)
(-0.137461 0.00185408 0)
(-0.137973 0.00170248 0)
(-0.138439 0.00155169 0)
(-0.138861 0.00140135 0)
(-0.139239 0.00125106 0)
(-0.139571 0.00110043 0)
(-0.139859 0.000949059 0)
(-0.140102 0.000796545 0)
(-0.140299 0.000642477 0)
(-0.140451 0.000486444 0)
(-0.140555 0.000328035 0)
(-0.140613 0.000166837 0)
(-0.140622 2.44404e-06 0)
(-0.140582 -0.000165549 0)
(-0.140492 -0.00033754 0)
(-0.140351 -0.000513919 0)
(-0.140157 -0.000695066 0)
(-0.139909 -0.000881349 0)
(-0.139605 -0.00107312 0)
(-0.139245 -0.00127072 0)
(-0.138826 -0.00147445 0)
(-0.138346 -0.00168463 0)
(-0.137804 -0.0019015 0)
(-0.137198 -0.00212532 0)
(-0.136526 -0.00235629 0)
(-0.135786 -0.00259459 0)
(-0.134976 -0.00284034 0)
(-0.134094 -0.00309365 0)
(-0.133137 -0.00335454 0)
(-0.132104 -0.00362303 0)
(-0.130993 -0.00389904 0)
(-0.129801 -0.00418246 0)
(-0.128527 -0.0044731 0)
(-0.127169 -0.00477071 0)
(-0.125725 -0.00507497 0)
(-0.124193 -0.00538547 0)
(-0.122571 -0.00570173 0)
(-0.120859 -0.00602319 0)
(-0.119054 -0.00634919 0)
(-0.117157 -0.00667897 0)
(-0.115165 -0.00701168 0)
(-0.113079 -0.00734639 0)
(-0.110898 -0.00768202 0)
(-0.108622 -0.00801743 0)
(-0.106251 -0.00835135 0)
(-0.103787 -0.00868239 0)
(-0.101231 -0.00900908 0)
(-0.0985829 -0.00932981 0)
(-0.0958461 -0.00964287 0)
(-0.0930229 -0.00994645 0)
(-0.0901162 -0.0102386 0)
(-0.0871296 -0.0105174 0)
(-0.0840672 -0.0107806 0)
(-0.0809339 -0.011026 0)
(-0.0777349 -0.0112514 0)
(-0.0744762 -0.0114544 0)
(-0.0711645 -0.0116325 0)