/*--------------------------------*- C++ -*----------------------------------*\
  =========                 |
  \\      /  F ield         | OpenFOAM: The Open Source CFD Toolbox
   \\    /   O peration     | Website:  https://openfoam.org
    \\  /    A nd           | Version:  7
     \\/     M anipulation  |
\*---------------------------------------------------------------------------*/
FoamFile
{
    version     2.0;
    format      ascii;
    class       surfaceScalarField;
    location    "0.1875";
    object      phi;
}
// * * * * * * * * * * * * * * * * * * * * * * * * * * * * * * * * * * * * * //

dimensions      [0 3 -1 0 0 0 0];

internalField   nonuniform List<scalar> 
25360
(
5.50906e-11
-5.71027e-11
2.01914e-10
-1.46819e-10
3.70819e-10
-1.68916e-10
5.12819e-10
-1.41996e-10
5.99278e-10
-8.64626e-11
6.1438e-10
-1.51037e-11
5.50318e-10
6.40569e-11
4.04456e-10
1.45852e-10
1.77451e-10
2.27e-10
-1.27945e-10
3.05399e-10
-5.0768e-10
3.79738e-10
-9.56899e-10
4.49219e-10
-1.47029e-09
5.13392e-10
-2.04235e-09
5.72059e-10
-2.66755e-09
6.25203e-10
-3.34048e-09
6.72928e-10
-4.05591e-09
7.15423e-10
-4.80886e-09
7.52946e-10
-5.59465e-09
7.85796e-10
-6.40895e-09
8.14298e-10
-7.24773e-09
8.38787e-10
-8.10733e-09
8.5961e-10
-8.98444e-09
8.77111e-10
-9.87606e-09
8.91623e-10
-1.07795e-08
9.03475e-10
-1.16925e-08
9.12976e-10
-1.26129e-08
9.20419e-10
-1.3539e-08
9.26075e-10
-1.44692e-08
9.30201e-10
-1.54023e-08
9.33033e-10
-1.6337e-08
9.34789e-10
-1.72727e-08
9.35666e-10
-1.82085e-08
9.3584e-10
-1.9144e-08
9.35469e-10
-2.00787e-08
9.34697e-10
-2.10124e-08
9.33654e-10
-2.19448e-08
9.3246e-10
-2.2876e-08
9.31219e-10
-2.38061e-08
9.30022e-10
-2.4735e-08
9.28946e-10
-2.56631e-08
9.2806e-10
-2.65905e-08
9.27421e-10
-2.75176e-08
9.27084e-10
-2.84447e-08
9.27098e-10
-2.93722e-08
9.27503e-10
-3.03005e-08
9.28334e-10
-3.12301e-08
9.29621e-10
-3.21615e-08
9.31386e-10
-3.30952e-08
9.33651e-10
-3.40316e-08
9.36432e-10
-3.49713e-08
9.39745e-10
-3.59149e-08
9.43603e-10
-3.68629e-08
9.48012e-10
-3.78159e-08
9.52976e-10
-3.87744e-08
9.58495e-10
-3.9739e-08
9.64569e-10
-4.07102e-08
9.71191e-10
-4.16885e-08
9.78352e-10
-4.26746e-08
9.8604e-10
-4.36688e-08
9.94238e-10
-4.46717e-08
1.00293e-09
-4.56838e-08
1.01208e-09
-4.67055e-08
1.02167e-09
-4.77371e-08
1.03166e-09
-4.87791e-08
1.04202e-09
-4.98318e-08
1.0527e-09
-5.08955e-08
1.06366e-09
-5.19703e-08
1.07483e-09
-5.30565e-08
1.08616e-09
-5.41541e-08
1.09758e-09
-5.52631e-08
1.10901e-09
-5.63834e-08
1.12037e-09
-5.7515e-08
1.13157e-09
-5.86575e-08
1.14251e-09
-5.98106e-08
1.15309e-09
-6.09738e-08
1.16318e-09
-6.21464e-08
1.17267e-09
-6.33279e-08
1.18142e-09
-6.45172e-08
1.18929e-09
-6.57133e-08
1.19613e-09
-6.69151e-08
1.20179e-09
-6.81212e-08
1.20608e-09
-6.933e-08
1.20884e-09
-7.05399e-08
1.20987e-09
-7.17488e-08
1.20898e-09
-7.29548e-08
1.20596e-09
-7.41554e-08
1.20059e-09
-7.53481e-08
1.19266e-09
-7.653e-08
1.18194e-09
-7.76982e-08
1.16818e-09
-7.88493e-08
1.15115e-09
-7.99799e-08
1.13059e-09
-8.10862e-08
1.10628e-09
-8.21641e-08
1.07794e-09
-8.32095e-08
1.04535e-09
-8.42177e-08
1.00823e-09
-8.51841e-08
9.66363e-10
-8.61036e-08
9.19498e-10
-8.6971e-08
8.67413e-10
-8.77809e-08
8.09893e-10
-8.85276e-08
7.46741e-10
-8.92054e-08
6.77777e-10
-8.98082e-08
6.02846e-10
-9.03301e-08
5.21817e-10
-9.07647e-08
4.34594e-10
-9.11058e-08
3.41116e-10
-9.13471e-08
2.4136e-10
-9.14825e-08
1.35348e-10
-9.15056e-08
2.31519e-11
-9.14105e-08
-9.51061e-11
-9.11913e-08
-2.19238e-10
-9.08423e-08
-3.48998e-10
-9.03582e-08
-4.84074e-10
-8.97341e-08
-6.24086e-10
-8.89655e-08
-7.6858e-10
-8.80485e-08
-9.17026e-10
-8.69797e-08
-1.06881e-09
-8.57564e-08
-1.22326e-09
-8.43769e-08
-1.37959e-09
-8.28399e-08
-1.53697e-09
-8.11454e-08
-1.69448e-09
-7.92943e-08
-1.85111e-09
-7.72885e-08
-2.00583e-09
-7.5131e-08
-2.1575e-09
-7.2826e-08
-2.30494e-09
-7.03791e-08
-2.44695e-09
-6.77968e-08
-2.58226e-09
-6.50872e-08
-2.7096e-09
-6.22595e-08
-2.82769e-09
-5.93243e-08
-2.93523e-09
-5.62933e-08
-3.03098e-09
-5.31796e-08
-3.11371e-09
-4.99974e-08
-3.18223e-09
-4.67619e-08
-3.23545e-09
-4.34896e-08
-3.27233e-09
-4.01976e-08
-3.29196e-09
-3.69041e-08
-3.29352e-09
-3.36278e-08
-3.27632e-09
-3.0388e-08
-3.23982e-09
-2.72043e-08
-3.18362e-09
-2.40969e-08
-3.10746e-09
-2.10856e-08
-3.01126e-09
-1.81905e-08
-2.89509e-09
-1.54313e-08
-2.75921e-09
-1.28273e-08
-2.60401e-09
-1.03972e-08
-2.43009e-09
-8.15905e-09
-2.23818e-09
-6.1298e-09
-2.02924e-09
-4.32536e-09
-1.80444e-09
-2.76015e-09
-1.56521e-09
-1.44677e-09
-1.31338e-09
-3.95475e-10
-1.0513e-09
3.86783e-10
-7.82259e-10
8.97762e-10
-5.1098e-10
1.14248e-09
-2.44723e-10
1.13787e-09
4.61313e-12
9.20018e-10
2.17851e-10
5.58633e-10
3.61387e-10
1.82828e-10
3.75808e-10
1.82829e-10
1.46213e-10
-2.03313e-10
4.14787e-10
-4.15383e-10
6.89672e-10
-4.43803e-10
8.85158e-10
-3.37478e-10
9.41223e-10
-1.4253e-10
8.19496e-10
1.06632e-10
4.97976e-10
3.85585e-10
-3.34638e-11
6.77296e-10
-7.76513e-10
9.70048e-10
-1.727e-09
1.25588e-09
-2.87672e-09
1.52945e-09
-4.21479e-09
1.78729e-09
-5.72864e-09
2.02724e-09
-7.40474e-09
2.24815e-09
-9.22912e-09
2.44959e-09
-1.11878e-08
2.63163e-09
-1.32671e-08
2.79474e-09
-1.54539e-08
2.93966e-09
-1.77354e-08
3.06733e-09
-2.01e-08
3.17884e-09
-2.25365e-08
3.27532e-09
-2.50349e-08
3.35799e-09
-2.75858e-08
3.42804e-09
-3.01809e-08
3.48669e-09
-3.28125e-08
3.5351e-09
-3.5474e-08
3.57441e-09
-3.81592e-08
3.60569e-09
-4.08631e-08
3.62996e-09
-4.3581e-08
3.64816e-09
-4.63092e-08
3.6612e-09
-4.90443e-08
3.66987e-09
-5.17836e-08
3.67495e-09
-5.45249e-08
3.67711e-09
-5.72664e-08
3.67697e-09
-6.00068e-08
3.67509e-09
-6.27451e-08
3.67197e-09
-6.54807e-08
3.66808e-09
-6.82133e-08
3.6638e-09
-7.09427e-08
3.6595e-09
-7.36693e-08
3.65551e-09
-7.63933e-08
3.65209e-09
-7.91154e-08
3.64949e-09
-8.18363e-08
3.64793e-09
-8.45567e-08
3.64759e-09
-8.72779e-08
3.64865e-09
-9.00008e-08
3.65123e-09
-9.27266e-08
3.65546e-09
-9.54567e-08
3.66145e-09
-9.81923e-08
3.66928e-09
-1.00935e-07
3.67903e-09
-1.03686e-07
3.69074e-09
-1.06447e-07
3.70446e-09
-1.09219e-07
3.72024e-09
-1.12004e-07
3.73807e-09
-1.14804e-07
3.75797e-09
-1.17619e-07
3.77993e-09
-1.20452e-07
3.80392e-09
-1.23303e-07
3.8299e-09
-1.26175e-07
3.85783e-09
-1.29068e-07
3.88763e-09
-1.31985e-07
3.91923e-09
-1.34925e-07
3.95252e-09
-1.37891e-07
3.9874e-09
-1.40883e-07
4.02372e-09
-1.43902e-07
4.06133e-09
-1.4695e-07
4.10006e-09
-1.50026e-07
4.1397e-09
-1.53131e-07
4.18004e-09
-1.56266e-07
4.22083e-09
-1.5943e-07
4.2618e-09
-1.62623e-07
4.30265e-09
-1.65846e-07
4.34306e-09
-1.69097e-07
4.38267e-09
-1.72376e-07
4.42109e-09
-1.75681e-07
4.45791e-09
-1.7901e-07
4.49267e-09
-1.82362e-07
4.5249e-09
-1.85735e-07
4.55407e-09
-1.89125e-07
4.57965e-09
-1.9253e-07
4.60105e-09
-1.95946e-07
4.61766e-09
-1.99369e-07
4.62882e-09
-2.02794e-07
4.63384e-09
-2.06216e-07
4.63201e-09
-2.0963e-07
4.62258e-09
-2.13028e-07
4.60475e-09
-2.16406e-07
4.57773e-09
-2.19754e-07
4.54067e-09
-2.23064e-07
4.49271e-09
-2.26329e-07
4.43296e-09
-2.29538e-07
4.36051e-09
-2.32682e-07
4.27447e-09
-2.3575e-07
4.17389e-09
-2.3873e-07
4.05787e-09
-2.4161e-07
3.92549e-09
-2.44378e-07
3.77583e-09
-2.47019e-07
3.60801e-09
-2.49521e-07
3.42119e-09
-2.51868e-07
3.21454e-09
-2.54045e-07
2.98732e-09
-2.56038e-07
2.73882e-09
-2.57828e-07
2.46843e-09
-2.59401e-07
2.17562e-09
-2.60739e-07
1.85997e-09
-2.61826e-07
1.52118e-09
-2.62644e-07
1.1591e-09
-2.63176e-07
7.73699e-10
-2.63406e-07
3.65149e-10
-2.63316e-07
-6.62073e-11
-2.62892e-07
-5.19825e-10
-2.62116e-07
-9.9494e-10
-2.60974e-07
-1.49056e-09
-2.59453e-07
-2.00544e-09
-2.57539e-07
-2.53808e-09
-2.55221e-07
-3.08672e-09
-2.52489e-07
-3.64931e-09
-2.49334e-07
-4.22354e-09
-2.4575e-07
-4.80678e-09
-2.41734e-07
-5.39614e-09
-2.37282e-07
-5.98846e-09
-2.32397e-07
-6.58027e-09
-2.2708e-07
-7.16789e-09
-2.21338e-07
-7.74737e-09
-2.15181e-07
-8.31456e-09
-2.08621e-07
-8.86511e-09
-2.01673e-07
-9.39451e-09
-1.94358e-07
-9.89817e-09
-1.86696e-07
-1.03714e-08
-1.78714e-07
-1.08094e-08
-1.70442e-07
-1.12077e-08
-1.61911e-07
-1.15614e-08
-1.53159e-07
-1.18663e-08
-1.44223e-07
-1.21179e-08
-1.35146e-07
-1.23123e-08
-1.25973e-07
-1.24457e-08
-1.1675e-07
-1.25149e-08
-1.07527e-07
-1.25168e-08
-9.8354e-08
-1.24489e-08
-8.92844e-08
-1.23095e-08
-8.03711e-08
-1.20969e-08
-7.16682e-08
-1.18104e-08
-6.32296e-08
-1.14498e-08
-5.51092e-08
-1.10155e-08
-4.73599e-08
-1.05085e-08
-4.00333e-08
-9.9306e-09
-3.31792e-08
-9.28419e-09
-2.68449e-08
-8.57247e-09
-2.10747e-08
-7.79949e-09
-1.59088e-08
-6.97028e-09
-1.13829e-08
-6.09112e-09
-7.52636e-09
-5.16995e-09
-4.36056e-09
-4.2171e-09
-1.89643e-09
-3.24638e-09
-1.30406e-10
-2.27699e-09
9.61396e-10
-1.33652e-09
1.43172e-09
-4.65715e-10
1.37542e-09
2.74155e-10
9.45993e-10
7.90819e-10
3.74378e-10
9.47425e-10
5.57207e-10
1.69866e-10
-3.7319e-10
4.45848e-10
-6.91372e-10
6.82964e-10
-6.80923e-10
7.77857e-10
-4.32367e-10
6.55543e-10
-2.02343e-11
2.65315e-10
4.96851e-10
-4.23953e-10
1.07485e-09
-1.42812e-09
1.68146e-09
-2.75152e-09
2.29345e-09
-4.38994e-09
2.8943e-09
-6.333e-09
3.47251e-09
-8.56598e-09
4.02028e-09
-1.10713e-08
4.53255e-09
-1.38295e-08
5.00638e-09
-1.68203e-08
5.44035e-09
-2.00229e-08
5.83423e-09
-2.34168e-08
6.18865e-09
-2.6982e-08
6.50489e-09
-3.06994e-08
6.7847e-09
-3.45507e-08
7.03014e-09
-3.85189e-08
7.2435e-09
-4.25881e-08
7.42721e-09
-4.67438e-08
7.58372e-09
-5.09726e-08
7.71553e-09
-5.52626e-08
7.82506e-09
-5.96028e-08
7.91468e-09
-6.39838e-08
7.98667e-09
-6.83971e-08
8.04318e-09
-7.28351e-08
8.08623e-09
-7.72917e-08
8.11772e-09
-8.17612e-08
8.13942e-09
-8.62392e-08
8.15293e-09
-9.07218e-08
8.15974e-09
-9.5206e-08
8.16122e-09
-9.96895e-08
8.15858e-09
-1.04171e-07
8.15294e-09
-1.08648e-07
8.1453e-09
-1.1312e-07
8.13654e-09
-1.17588e-07
8.12746e-09
-1.22052e-07
8.11876e-09
-1.26511e-07
8.11109e-09
-1.30966e-07
8.10498e-09
-1.35419e-07
8.10092e-09
-1.39871e-07
8.09934e-09
-1.44323e-07
8.10061e-09
-1.48777e-07
8.10505e-09
-1.53234e-07
8.11293e-09
-1.57697e-07
8.1245e-09
-1.62168e-07
8.13995e-09
-1.66648e-07
8.15943e-09
-1.71141e-07
8.18309e-09
-1.75647e-07
8.21103e-09
-1.8017e-07
8.2433e-09
-1.84712e-07
8.27995e-09
-1.89275e-07
8.32098e-09
-1.93862e-07
8.36637e-09
-1.98474e-07
8.41608e-09
-2.03114e-07
8.47001e-09
-2.07784e-07
8.52805e-09
-2.12486e-07
8.59003e-09
-2.17223e-07
8.65579e-09
-2.21996e-07
8.72509e-09
-2.26806e-07
8.79766e-09
-2.31655e-07
8.87321e-09
-2.36545e-07
8.95138e-09
-2.41477e-07
9.03178e-09
-2.46451e-07
9.11396e-09
-2.51469e-07
9.19743e-09
-2.5653e-07
9.28163e-09
-2.61634e-07
9.36596e-09
-2.66781e-07
9.44977e-09
-2.7197e-07
9.53231e-09
-2.772e-07
9.6128e-09
-2.8247e-07
9.6904e-09
-2.87776e-07
9.76417e-09
-2.93116e-07
9.83312e-09
-2.98488e-07
9.89621e-09
-3.03886e-07
9.95229e-09
-3.09306e-07
1.00002e-08
-3.14744e-07
1.00386e-08
-3.20192e-07
1.00662e-08
-3.25645e-07
1.00815e-08
-3.31094e-07
1.00831e-08
-3.36532e-07
1.00694e-08
-3.41948e-07
1.00388e-08
-3.47333e-07
9.98954e-09
-3.52675e-07
9.91994e-09
-3.57962e-07
9.82818e-09
-3.63182e-07
9.7124e-09
-3.6832e-07
9.5707e-09
-3.7336e-07
9.40117e-09
-3.78288e-07
9.20186e-09
-3.83085e-07
8.97081e-09
-3.87733e-07
8.70609e-09
-3.92213e-07
8.40574e-09
-3.96505e-07
8.06788e-09
-4.00588e-07
7.69067e-09
-4.04439e-07
7.27233e-09
-4.08036e-07
6.81119e-09
-4.11354e-07
6.30571e-09
-4.1437e-07
5.75446e-09
-4.17058e-07
5.15623e-09
-4.19392e-07
4.50997e-09
-4.21347e-07
3.8149e-09
-4.22896e-07
3.07049e-09
-4.24013e-07
2.27648e-09
-4.24673e-07
1.43298e-09
-4.24848e-07
5.4046e-10
-4.24514e-07
-4.00235e-10
-4.23646e-07
-1.38781e-09
-4.2222e-07
-2.42052e-09
-4.20215e-07
-3.49611e-09
-4.17609e-07
-4.61183e-09
-4.14382e-07
-5.76436e-09
-4.10519e-07
-6.94984e-09
-4.06005e-07
-8.16381e-09
-4.00827e-07
-9.40124e-09
-3.94977e-07
-1.06565e-08
-3.8845e-07
-1.19233e-08
-3.81244e-07
-1.3195e-08
-3.7336e-07
-1.4464e-08
-3.64805e-07
-1.57226e-08
-3.5559e-07
-1.69624e-08
-3.4573e-07
-1.81746e-08
-3.35245e-07
-1.93499e-08
-3.24161e-07
-2.04788e-08
-3.12507e-07
-2.15517e-08
-3.0032e-07
-2.25586e-08
-2.8764e-07
-2.34897e-08
-2.74512e-07
-2.4335e-08
-2.60989e-07
-2.5085e-08
-2.47125e-07
-2.57301e-08
-2.32981e-07
-2.62615e-08
-2.18623e-07
-2.66708e-08
-2.04119e-07
-2.69501e-08
-1.89541e-07
-2.70924e-08
-1.74966e-07
-2.70917e-08
-1.60472e-07
-2.69429e-08
-1.4614e-07
-2.66418e-08
-1.32051e-07
-2.61856e-08
-1.18289e-07
-2.55728e-08
-1.04936e-07
-2.48029e-08
-9.20741e-08
-2.3877e-08
-7.97848e-08
-2.27978e-08
-6.81463e-08
-2.15691e-08
-5.72338e-08
-2.01966e-08
-4.71185e-08
-1.86877e-08
-3.78663e-08
-1.70517e-08
-2.95364e-08
-1.53002e-08
-2.21798e-08
-1.34477e-08
-1.58371e-08
-1.15126e-08
-1.0536e-08
-9.51824e-09
-6.28713e-09
-7.49524e-09
-3.07937e-09
-5.48474e-09
-8.72673e-10
-3.54323e-09
4.11395e-10
-1.74978e-09
9.0194e-10
-2.16384e-10
7.93072e-10
8.9969e-10
3.59934e-10
1.38056e-09
9.17141e-10
1.44443e-10
-5.17626e-10
3.42051e-10
-8.8898e-10
4.36939e-10
-7.7581e-10
3.18179e-10
-3.13601e-10
-9.50433e-11
3.92994e-10
-8.58773e-10
1.26057e-09
-2.00842e-09
2.22449e-09
-3.56288e-09
3.23592e-09
-5.52795e-09
4.25852e-09
-7.89936e-09
5.26571e-09
-1.06652e-08
6.23838e-09
-1.38081e-08
7.16318e-09
-1.73068e-08
8.0312e-09
-2.11373e-08
8.83693e-09
-2.52744e-08
9.57746e-09
-2.96921e-08
1.02519e-08
-3.43643e-08
1.08608e-08
-3.92654e-08
1.1406e-08
-4.43707e-08
1.189e-08
-4.96567e-08
1.23161e-08
-5.5101e-08
1.26879e-08
-6.0683e-08
1.30092e-08
-6.63835e-08
1.32841e-08
-7.21846e-08
1.35167e-08
-7.80705e-08
1.37109e-08
-8.40266e-08
1.38708e-08
-9.004e-08
1.4e-08
-9.60991e-08
1.41023e-08
-1.02194e-07
1.41811e-08
-1.08316e-07
1.42395e-08
-1.14457e-07
1.42805e-08
-1.20611e-07
1.43071e-08
-1.26773e-07
1.43215e-08
-1.32938e-07
1.43263e-08
-1.39103e-07
1.43236e-08
-1.45265e-07
1.43152e-08
-1.51423e-07
1.43029e-08
-1.57574e-07
1.42882e-08
-1.63719e-07
1.42726e-08
-1.69858e-07
1.42573e-08
-1.7599e-07
1.42433e-08
-1.82117e-07
1.42317e-08
-1.88239e-07
1.42234e-08
-1.94359e-07
1.4219e-08
-2.00478e-07
1.42193e-08
-2.06598e-07
1.42248e-08
-2.12721e-07
1.4236e-08
-2.18849e-07
1.42534e-08
-2.24987e-07
1.42772e-08
-2.31135e-07
1.43078e-08
-2.37297e-07
1.43454e-08
-2.43477e-07
1.43903e-08
-2.49676e-07
1.44424e-08
-2.55898e-07
1.45019e-08
-2.62145e-07
1.45688e-08
-2.68422e-07
1.4643e-08
-2.7473e-07
1.47245e-08
-2.81073e-07
1.4813e-08
-2.87454e-07
1.49085e-08
-2.93874e-07
1.50105e-08
-3.00337e-07
1.51189e-08
-3.06845e-07
1.52331e-08
-3.134e-07
1.53527e-08
-3.20004e-07
1.54771e-08
-3.26659e-07
1.56058e-08
-3.33365e-07
1.5738e-08
-3.40124e-07
1.5873e-08
-3.46936e-07
1.60098e-08
-3.53802e-07
1.61475e-08
-3.60721e-07
1.6285e-08
-3.67693e-07
1.64212e-08
-3.74715e-07
1.65547e-08
-3.81786e-07
1.66843e-08
-3.88904e-07
1.68083e-08
-3.96065e-07
1.69253e-08
-4.03266e-07
1.70334e-08
-4.105e-07
1.71309e-08
-4.17764e-07
1.72157e-08
-4.2505e-07
1.72858e-08
-4.3235e-07
1.73391e-08
-4.39657e-07
1.7373e-08
-4.46961e-07
1.73853e-08
-4.54251e-07
1.73733e-08
-4.61516e-07
1.73344e-08
-4.68743e-07
1.72658e-08
-4.75918e-07
1.71645e-08
-4.83026e-07
1.70276e-08
-4.90049e-07
1.68521e-08
-4.96972e-07
1.66347e-08
-5.03773e-07
1.63723e-08
-5.10434e-07
1.60617e-08
-5.16932e-07
1.56994e-08
-5.23243e-07
1.52823e-08
-5.29344e-07
1.48072e-08
-5.35209e-07
1.42706e-08
-5.40811e-07
1.36696e-08
-5.46121e-07
1.3001e-08
-5.51111e-07
1.2262e-08
-5.55749e-07
1.14497e-08
-5.60005e-07
1.05618e-08
-5.63847e-07
9.59583e-09
-5.6724e-07
8.54994e-09
-5.70153e-07
7.4225e-09
-5.7255e-07
6.21231e-09
-5.74398e-07
4.91864e-09
-5.75663e-07
3.54126e-09
-5.76311e-07
2.08049e-09
-5.76308e-07
5.37303e-10
-5.75621e-07
-1.08667e-09
-5.7422e-07
-2.78906e-09
-5.72074e-07
-4.56673e-09
-5.69154e-07
-6.4157e-09
-5.65435e-07
-8.33113e-09
-5.60892e-07
-1.03073e-08
-5.55504e-07
-1.23374e-08
-5.49254e-07
-1.44139e-08
-5.42127e-07
-1.65281e-08
-5.34114e-07
-1.86703e-08
-5.25207e-07
-2.08301e-08
-5.15406e-07
-2.29958e-08
-5.04715e-07
-2.5155e-08
-4.93143e-07
-2.72943e-08
-4.80706e-07
-2.93997e-08
-4.67424e-07
-3.14563e-08
-4.53326e-07
-3.34486e-08
-4.38444e-07
-3.53607e-08
-4.22819e-07
-3.71763e-08
-4.06499e-07
-3.88788e-08
-3.89537e-07
-4.04517e-08
-3.71994e-07
-4.18785e-08
-3.53936e-07
-4.31431e-08
-3.35436e-07
-4.42298e-08
-3.16574e-07
-4.51236e-08
-2.97434e-07
-4.58106e-08
-2.78106e-07
-4.62778e-08
-2.58685e-07
-4.65136e-08
-2.39269e-07
-4.65079e-08
-2.1996e-07
-4.6252e-08
-2.00862e-07
-4.57395e-08
-1.82082e-07
-4.49657e-08
-1.63727e-07
-4.3928e-08
-1.45903e-07
-4.26262e-08
-1.28718e-07
-4.10622e-08
-1.12275e-07
-3.92409e-08
-9.66749e-08
-3.71693e-08
-8.20139e-08
-3.48576e-08
-6.83827e-08
-3.23189e-08
-5.58644e-08
-2.957e-08
-4.4533e-08
-2.66316e-08
-3.44513e-08
-2.35295e-08
-2.56681e-08
-2.02959e-08
-1.82149e-08
-1.69714e-08
-1.21021e-08
-1.36081e-08
-7.31308e-09
-1.02738e-08
-3.79781e-09
-7.0585e-09
-1.46426e-09
-4.08332e-09
-1.6821e-10
-1.51244e-09
2.9844e-10
4.33037e-10
2.21544e-10
1.45746e-09
1.13869e-09
8.97692e-11
-6.07394e-10
1.46757e-10
-9.45967e-10
2.03193e-11
-6.49391e-10
-3.99034e-10
1.05762e-10
-1.19167e-09
1.18563e-09
-2.41376e-09
2.48266e-09
-4.10127e-09
3.912e-09
-6.27347e-09
5.40811e-09
-8.93608e-09
6.92114e-09
-1.20841e-08
8.4137e-09
-1.5704e-08
9.85833e-09
-1.97762e-08
1.12354e-08
-2.42764e-08
1.25314e-08
-2.91773e-08
1.37377e-08
-3.44494e-08
1.48496e-08
-4.00624e-08
1.5865e-08
-4.5986e-08
1.67843e-08
-5.21897e-08
1.76098e-08
-5.86445e-08
1.83447e-08
-6.5322e-08
1.89936e-08
-7.21956e-08
1.95615e-08
-7.92403e-08
2.00539e-08
-8.64328e-08
2.04766e-08
-9.37516e-08
2.08355e-08
-1.01177e-07
2.11364e-08
-1.08691e-07
2.13852e-08
-1.16279e-07
2.15873e-08
-1.23925e-07
2.17482e-08
-1.31617e-07
2.1873e-08
-1.39344e-07
2.19665e-08
-1.47096e-07
2.20331e-08
-1.54866e-07
2.2077e-08
-1.62647e-07
2.21021e-08
-1.70432e-07
2.21118e-08
-1.78218e-07
2.21094e-08
-1.86001e-07
2.20979e-08
-1.93778e-07
2.20798e-08
-2.01547e-07
2.20576e-08
-2.09308e-07
2.20334e-08
-2.1706e-07
2.20091e-08
-2.24803e-07
2.19864e-08
-2.32538e-07
2.19668e-08
-2.40266e-07
2.19517e-08
-2.47989e-07
2.19423e-08
-2.55709e-07
2.19395e-08
-2.63429e-07
2.19443e-08
-2.7115e-07
2.19574e-08
-2.78876e-07
2.19795e-08
-2.8661e-07
2.20112e-08
-2.94355e-07
2.20529e-08
-3.02115e-07
2.2105e-08
-3.09892e-07
2.21677e-08
-3.17691e-07
2.22413e-08
-3.25515e-07
2.23258e-08
-3.33368e-07
2.24213e-08
-3.41252e-07
2.25276e-08
-3.49173e-07
2.26447e-08
-3.57132e-07
2.27723e-08
-3.65133e-07
2.291e-08
-3.7318e-07
2.30574e-08
-3.81276e-07
2.32141e-08
-3.89422e-07
2.33793e-08
-3.97621e-07
2.35523e-08
-4.05876e-07
2.37323e-08
-4.14189e-07
2.39183e-08
-4.2256e-07
2.41092e-08
-4.30991e-07
2.43037e-08
-4.39482e-07
2.45006e-08
-4.48032e-07
2.46983e-08
-4.56643e-07
2.48951e-08
-4.65311e-07
2.50893e-08
-4.74035e-07
2.52789e-08
-4.82812e-07
2.54617e-08
-4.9164e-07
2.56356e-08
-5.00512e-07
2.57979e-08
-5.09425e-07
2.59461e-08
-5.18372e-07
2.60774e-08
-5.27345e-07
2.61888e-08
-5.36336e-07
2.6277e-08
-5.45335e-07
2.63388e-08
-5.54333e-07
2.63705e-08
-5.63316e-07
2.63686e-08
-5.72272e-07
2.63291e-08
-5.81186e-07
2.62479e-08
-5.90041e-07
2.6121e-08
-5.9882e-07
2.59438e-08
-6.07504e-07
2.5712e-08
-6.16073e-07
2.54209e-08
-6.24504e-07
2.50659e-08
-6.32774e-07
2.46421e-08
-6.40857e-07
2.41447e-08
-6.48727e-07
2.35689e-08
-6.56354e-07
2.29097e-08
-6.63709e-07
2.21624e-08
-6.70761e-07
2.13223e-08
-6.77476e-07
2.03846e-08
-6.8382e-07
1.9345e-08
-6.89757e-07
1.81993e-08
-6.95251e-07
1.69434e-08
-7.00263e-07
1.55738e-08
-7.04754e-07
1.40872e-08
-7.08685e-07
1.24809e-08
-7.12016e-07
1.07528e-08
-7.14705e-07
8.90127e-09
-7.16711e-07
6.92537e-09
-7.17995e-07
4.82503e-09
-7.18516e-07
2.60099e-09
-7.18233e-07
2.54924e-10
-7.17109e-07
-2.2105e-09
-7.15107e-07
-4.7915e-09
-7.12191e-07
-7.48315e-09
-7.08327e-07
-1.02793e-08
-7.03486e-07
-1.31725e-08
-6.97639e-07
-1.6154e-08
-6.90763e-07
-1.92136e-08
-6.82837e-07
-2.23398e-08
-6.73845e-07
-2.55195e-08
-6.63777e-07
-2.87383e-08
-6.52627e-07
-3.19803e-08
-6.40394e-07
-3.52284e-08
-6.27086e-07
-3.84638e-08
-6.12713e-07
-4.16669e-08
-5.97296e-07
-4.48167e-08
-5.80861e-07
-4.78911e-08
-5.63443e-07
-5.08673e-08
-5.45082e-07
-5.37217e-08
-5.25828e-07
-5.64302e-08
-5.05738e-07
-5.89684e-08
-4.84878e-07
-6.1312e-08
-4.6332e-07
-6.34365e-08
-4.41144e-07
-6.53184e-08
-4.1844e-07
-6.69345e-08
-3.953e-07
-6.82628e-08
-3.71828e-07
-6.92828e-08
-3.48131e-07
-6.99753e-08
-3.24321e-07
-7.03235e-08
-3.00517e-07
-7.03123e-08
-2.76839e-07
-6.99294e-08
-2.53414e-07
-6.91651e-08
-2.30367e-07
-6.80127e-08
-2.07826e-07
-6.64688e-08
-1.85919e-07
-6.45332e-08
-1.64772e-07
-6.22093e-08
-1.44508e-07
-5.95045e-08
-1.25247e-07
-5.64301e-08
-1.07103e-07
-5.30018e-08
-9.0182e-08
-4.924e-08
-7.45813e-08
-4.51707e-08
-6.0387e-08
-4.08259e-08
-4.76714e-08
-3.62451e-08
-3.64902e-08
-3.14772e-08
-2.68787e-08
-2.65829e-08
-1.88481e-08
-2.16386e-08
-1.23803e-08
-1.67415e-08
-7.42198e-09
-1.20169e-08
-3.87769e-09
-7.62761e-09
-1.60238e-09
-3.78774e-09
-3.92981e-10
-7.76365e-10
2.14242e-11
1.04306e-09
1.16011e-09
1.76957e-11
-6.25093e-10
-1.08761e-10
-8.19501e-10
-5.14541e-10
-2.43625e-10
-1.3007e-09
8.91909e-10
-2.54189e-09
2.42682e-09
-4.29049e-09
4.23127e-09
-6.57986e-09
6.20136e-09
-9.42731e-09
8.25556e-09
-1.28369e-08
1.03307e-08
-1.68018e-08
1.23786e-08
-2.13065e-08
1.43631e-08
-2.63292e-08
1.6258e-08
-3.18427e-08
1.80449e-08
-3.78167e-08
1.97117e-08
-4.42185e-08
2.12513e-08
-5.10141e-08
2.26605e-08
-5.81692e-08
2.39394e-08
-6.56498e-08
2.50904e-08
-7.34227e-08
2.61176e-08
-8.14558e-08
2.70268e-08
-8.97187e-08
2.78244e-08
-9.81826e-08
2.85179e-08
-1.06821e-07
2.91147e-08
-1.15608e-07
2.9623e-08
-1.24522e-07
3.00505e-08
-1.33542e-07
3.0405e-08
-1.42649e-07
3.06943e-08
-1.51826e-07
3.09255e-08
-1.61059e-07
3.11058e-08
-1.70334e-07
3.12416e-08
-1.7964e-07
3.13392e-08
-1.88968e-07
3.14043e-08
-1.98308e-07
3.14424e-08
-2.07654e-07
3.14582e-08
-2.17001e-07
3.14563e-08
-2.26344e-07
3.14408e-08
-2.3568e-07
3.14154e-08
-2.45006e-07
3.13835e-08
-2.5432e-07
3.1348e-08
-2.63623e-07
3.13118e-08
-2.72914e-07
3.12773e-08
-2.82194e-07
3.12465e-08
-2.91463e-07
3.12213e-08
-3.00724e-07
3.12036e-08
-3.0998e-07
3.11947e-08
-3.19231e-07
3.1196e-08
-3.28482e-07
3.12084e-08
-3.37736e-07
3.12331e-08
-3.46996e-07
3.12708e-08
-3.56265e-07
3.13221e-08
-3.65547e-07
3.13876e-08
-3.74847e-07
3.14677e-08
-3.84169e-07
3.15625e-08
-3.93515e-07
3.16724e-08
-4.02891e-07
3.17972e-08
-4.123e-07
3.19369e-08
-4.21747e-07
3.20913e-08
-4.31235e-07
3.22599e-08
-4.40767e-07
3.24424e-08
-4.50348e-07
3.26381e-08
-4.5998e-07
3.28462e-08
-4.69667e-07
3.30659e-08
-4.7941e-07
3.32959e-08
-4.89213e-07
3.35352e-08
-4.99077e-07
3.37823e-08
-5.09004e-07
3.40357e-08
-5.18994e-07
3.42936e-08
-5.29047e-07
3.4554e-08
-5.39164e-07
3.48149e-08
-5.49342e-07
3.50738e-08
-5.59581e-07
3.53282e-08
-5.69878e-07
3.55754e-08
-5.80228e-07
3.58122e-08
-5.90628e-07
3.60355e-08
-6.01072e-07
3.62418e-08
-6.11553e-07
3.64274e-08
-6.22064e-07
3.65883e-08
-6.32596e-07
3.67203e-08
-6.43138e-07
3.68189e-08
-6.53679e-07
3.68795e-08
-6.64205e-07
3.68971e-08
-6.74703e-07
3.68666e-08
-6.85157e-07
3.67825e-08
-6.95548e-07
3.66392e-08
-7.05858e-07
3.64308e-08
-7.16065e-07
3.61514e-08
-7.26148e-07
3.57947e-08
-7.36081e-07
3.53544e-08
-7.4584e-07
3.48241e-08
-7.55394e-07
3.4197e-08
-7.64716e-07
3.34667e-08
-7.73774e-07
3.26264e-08
-7.82534e-07
3.16695e-08
-7.90961e-07
3.05895e-08
-7.99018e-07
2.93799e-08
-8.06668e-07
2.80346e-08
-8.13871e-07
2.65474e-08
-8.20584e-07
2.49127e-08
-8.26766e-07
2.31254e-08
-8.32373e-07
2.11806e-08
-8.3736e-07
1.90741e-08
-8.41682e-07
1.68025e-08
-8.45292e-07
1.43629e-08
-8.48144e-07
1.17534e-08
-8.50191e-07
8.9731e-09
-8.51389e-07
6.02218e-09
-8.5169e-07
2.90192e-09
-8.5105e-07
-3.85059e-10
-8.49425e-07
-3.83478e-09
-8.46775e-07
-7.44176e-09
-8.43059e-07
-1.11989e-08
-8.38241e-07
-1.50975e-08
-8.32286e-07
-1.91271e-08
-8.25165e-07
-2.32753e-08
-8.16851e-07
-2.7528e-08
-8.07321e-07
-3.18691e-08
-7.9656e-07
-3.62805e-08
-7.84557e-07
-4.07422e-08
-7.71304e-07
-4.52325e-08
-7.56805e-07
-4.97276e-08
-7.41067e-07
-5.4202e-08
-7.24105e-07
-5.86285e-08
-7.05944e-07
-6.29783e-08
-6.86613e-07
-6.72216e-08
-6.66154e-07
-7.13269e-08
-6.44613e-07
-7.52621e-08
-6.22049e-07
-7.89944e-08
-5.98527e-07
-8.24905e-08
-5.74122e-07
-8.57172e-08
-5.48917e-07
-8.86414e-08
-5.23004e-07
-9.12307e-08
-4.96485e-07
-9.34539e-08
-4.69467e-07
-9.52811e-08
-4.42065e-07
-9.66842e-08
-4.14403e-07
-9.76373e-08
-3.86609e-07
-9.81173e-08
-3.58818e-07
-9.8104e-08
-3.31166e-07
-9.75806e-08
-3.03797e-07
-9.65341e-08
-2.76855e-07
-9.49555e-08
-2.50483e-07
-9.28402e-08
-2.24828e-07
-9.01884e-08
-2.00032e-07
-8.70053e-08
-1.76235e-07
-8.33013e-08
-1.53573e-07
-7.90927e-08
-1.32173e-07
-7.44016e-08
-1.12156e-07
-6.92572e-08
-9.36306e-08
-6.36958e-08
-7.6694e-08
-5.77625e-08
-6.14266e-08
-5.15124e-08
-4.78908e-08
-4.5013e-08
-3.61268e-08
-3.83469e-08
-2.6149e-08
-3.16164e-08
-1.79418e-08
-2.49487e-08
-1.14549e-08
-1.85038e-08
-6.598e-09
-1.24845e-08
-3.23614e-09
-7.14961e-09
-1.18486e-09
-2.82764e-09
-2.05737e-10
6.39358e-11
9.54372e-10
-6.45945e-11
-5.60503e-10
-4.03033e-10
-4.81049e-10
-1.12957e-09
4.82903e-10
-2.33177e-09
2.09411e-09
-4.07472e-09
4.16977e-09
-6.40377e-09
6.56032e-09
-9.34705e-09
9.14464e-09
-1.29179e-08
1.18264e-08
-1.7117e-08
1.45298e-08
-2.19347e-08
1.71963e-08
-2.7353e-08
1.97814e-08
-3.33471e-08
2.22521e-08
-3.98872e-08
2.45851e-08
-4.69401e-08
2.67646e-08
-5.447e-08
2.87812e-08
-6.24398e-08
3.06303e-08
-7.08119e-08
3.23115e-08
-7.95489e-08
3.38274e-08
-8.86143e-08
3.5183e-08
-9.79728e-08
3.63852e-08
-1.0759e-07
3.74421e-08
-1.17435e-07
3.83628e-08
-1.27478e-07
3.91571e-08
-1.3769e-07
3.98349e-08
-1.48046e-07
4.04064e-08
-1.58522e-07
4.08816e-08
-1.69098e-07
4.12703e-08
-1.79755e-07
4.1582e-08
-1.90475e-07
4.18257e-08
-2.01243e-07
4.201e-08
-2.12047e-07
4.2143e-08
-2.22875e-07
4.22323e-08
-2.33717e-07
4.22849e-08
-2.44566e-07
4.23071e-08
-2.55415e-07
4.2305e-08
-2.66258e-07
4.2284e-08
-2.77092e-07
4.22491e-08
-2.87913e-07
4.22046e-08
-2.9872e-07
4.21546e-08
-3.09511e-07
4.21028e-08
-3.20286e-07
4.20523e-08
-3.31045e-07
4.20062e-08
-3.41791e-07
4.19669e-08
-3.52524e-07
4.19366e-08
-3.63247e-07
4.19175e-08
-3.73962e-07
4.19113e-08
-3.84673e-07
4.19193e-08
-3.95383e-07
4.1943e-08
-4.06096e-07
4.19834e-08
-4.16815e-07
4.20414e-08
-4.27545e-07
4.21177e-08
-4.3829e-07
4.22128e-08
-4.49055e-07
4.23271e-08
-4.59843e-07
4.24608e-08
-4.7066e-07
4.26139e-08
-4.81509e-07
4.27862e-08
-4.92396e-07
4.29775e-08
-5.03323e-07
4.31872e-08
-5.14295e-07
4.34147e-08
-5.25316e-07
4.36592e-08
-5.36389e-07
4.39195e-08
-5.47518e-07
4.41944e-08
-5.58705e-07
4.44826e-08
-5.69952e-07
4.47823e-08
-5.81261e-07
4.50916e-08
-5.92634e-07
4.54084e-08
-6.0407e-07
4.57304e-08
-6.15571e-07
4.60549e-08
-6.27135e-07
4.63791e-08
-6.38761e-07
4.66997e-08
-6.50447e-07
4.70135e-08
-6.62188e-07
4.73165e-08
-6.7398e-07
4.76048e-08
-6.85819e-07
4.78741e-08
-6.97697e-07
4.81197e-08
-7.09606e-07
4.83368e-08
-7.21538e-07
4.85199e-08
-7.33481e-07
4.86636e-08
-7.45424e-07
4.87619e-08
-7.57353e-07
4.88087e-08
-7.69253e-07
4.87974e-08
-7.81108e-07
4.87211e-08
-7.92898e-07
4.85728e-08
-8.04604e-07
4.8345e-08
-8.16204e-07
4.80302e-08
-8.27673e-07
4.76204e-08
-8.38985e-07
4.71075e-08
-8.50114e-07
4.64832e-08
-8.61029e-07
4.57391e-08
-8.71699e-07
4.48666e-08
-8.82089e-07
4.38572e-08
-8.92165e-07
4.27022e-08
-9.01889e-07
4.13932e-08
-9.11221e-07
3.99216e-08
-9.2012e-07
3.82792e-08
-9.28543e-07
3.64581e-08
-9.36447e-07
3.44506e-08
-9.43783e-07
3.22496e-08
-9.50506e-07
2.98485e-08
-9.56567e-07
2.72412e-08
-9.61916e-07
2.44227e-08
-9.66502e-07
2.13887e-08
-9.70275e-07
1.81357e-08
-9.73183e-07
1.46618e-08
-9.75176e-07
1.09659e-08
-9.76203e-07
7.04875e-09
-9.76213e-07
2.91228e-09
-9.75158e-07
-1.43974e-09
-9.72991e-07
-6.00174e-09
-9.69667e-07
-1.07663e-08
-9.65142e-07
-1.57238e-08
-9.59377e-07
-2.08626e-08
-9.52335e-07
-2.61688e-08
-9.43984e-07
-3.16262e-08
-9.34296e-07
-3.72159e-08
-9.23248e-07
-4.2917e-08
-9.10823e-07
-4.87058e-08
-8.97009e-07
-5.45563e-08
-8.81802e-07
-6.04399e-08
-8.65203e-07
-6.63259e-08
-8.47224e-07
-7.21811e-08
-8.27882e-07
-7.79703e-08
-8.07204e-07
-8.36563e-08
-7.85226e-07
-8.92002e-08
-7.61991e-07
-9.45617e-08
-7.37554e-07
-9.9699e-08
-7.11978e-07
-1.0457e-07
-6.85337e-07
-1.09132e-07
-6.57714e-07
-1.13341e-07
-6.292e-07
-1.17155e-07
-5.99897e-07
-1.20533e-07
-5.69917e-07
-1.23434e-07
-5.39379e-07
-1.25819e-07
-5.0841e-07
-1.27653e-07
-4.77146e-07
-1.28902e-07
-4.45727e-07
-1.29535e-07
-4.14303e-07
-1.29528e-07
-3.83025e-07
-1.28858e-07
-3.5205e-07
-1.27509e-07
-3.21536e-07
-1.25469e-07
-2.91643e-07
-1.22733e-07
-2.62531e-07
-1.19301e-07
-2.34356e-07
-1.1518e-07
-2.07274e-07
-1.10384e-07
-1.81432e-07
-1.04934e-07
-1.56973e-07
-9.88613e-08
-1.34027e-07
-9.2203e-08
-1.12715e-07
-8.50077e-08
-9.31429e-08
-7.73345e-08
-7.54e-08
-6.92553e-08
-5.95558e-08
-6.08572e-08
-4.5657e-08
-5.22457e-08
-3.37241e-08
-4.35493e-08
-2.3748e-08
-3.49247e-08
-1.56868e-08
-2.6565e-08
-9.46216e-09
-1.87092e-08
-4.95728e-09
-1.16545e-08
-2.01537e-09
-5.76955e-09
-4.4027e-10
-1.51116e-09
5.14102e-10
-1.5265e-10
-4.07864e-10
-7.21527e-10
8.78348e-11
-1.79755e-09
1.55893e-09
-3.45169e-09
3.74824e-09
-5.73658e-09
6.45465e-09
-8.68804e-09
9.51178e-09
-1.23268e-08
1.27834e-08
-1.66604e-08
1.616e-08
-2.16849e-08
1.95543e-08
-2.73865e-08
2.2898e-08
-3.37438e-08
2.61387e-08
-4.07289e-08
2.92372e-08
-4.83089e-08
3.21651e-08
-5.64475e-08
3.49033e-08
-6.51062e-08
3.74398e-08
-7.42447e-08
3.97689e-08
-8.38227e-08
4.18895e-08
-9.37996e-08
4.38044e-08
-1.04136e-07
4.55195e-08
-1.14794e-07
4.70428e-08
-1.25736e-07
4.83842e-08
-1.36928e-07
4.95548e-08
-1.48337e-07
5.05662e-08
-1.59933e-07
5.14309e-08
-1.71688e-07
5.21611e-08
-1.83575e-07
5.27694e-08
-1.95573e-07
5.32677e-08
-2.07659e-07
5.3668e-08
-2.19815e-07
5.39816e-08
-2.32024e-07
5.4219e-08
-2.44271e-07
5.43906e-08
-2.56545e-07
5.45056e-08
-2.68833e-07
5.45731e-08
-2.81127e-07
5.46011e-08
-2.93419e-07
5.45972e-08
-3.05703e-07
5.45682e-08
-3.17974e-07
5.45204e-08
-3.30229e-07
5.44595e-08
-3.42465e-07
5.43907e-08
-3.54681e-07
5.43186e-08
-3.66876e-07
5.42474e-08
-3.79051e-07
5.41807e-08
-3.91206e-07
5.41219e-08
-4.03343e-07
5.40739e-08
-4.15465e-07
5.40393e-08
-4.27574e-07
5.40204e-08
-4.39674e-07
5.4019e-08
-4.51767e-07
5.40368e-08
-4.63859e-07
5.40753e-08
-4.75953e-07
5.41355e-08
-4.88054e-07
5.42185e-08
-5.00166e-07
5.43248e-08
-5.12294e-07
5.4455e-08