/*--------------------------------*- C++ -*----------------------------------*\
  =========                 |
  \\      /  F ield         | OpenFOAM: The Open Source CFD Toolbox
   \\    /   O peration     | Website:  https://openfoam.org
    \\  /    A nd           | Version:  7
     \\/     M anipulation  |
\*---------------------------------------------------------------------------*/
FoamFile
{
    version     2.0;
    format      ascii;
    class       volVectorField;
    location    "0.1875";
    object      U;
}
// * * * * * * * * * * * * * * * * * * * * * * * * * * * * * * * * * * * * * //

dimensions      [0 1 -1 0 0 0 0];

internalField   nonuniform List<vector> 
12800
(
(3.56629e-06 -3.72353e-06 0)
(1.9346e-05 -1.02824e-05 0)
(4.59274e-05 -1.23328e-05 0)
(7.21686e-05 -1.11143e-05 0)
(9.12458e-05 -8.11512e-06 0)
(9.9807e-05 -4.2418e-06 0)
(9.61035e-05 -7.31625e-09 0)
(7.93749e-05 4.29032e-06 0)
(4.95088e-05 8.47718e-06 0)
(6.8117e-06 1.24559e-05 0)
(-4.81466e-05 1.61731e-05 0)
(-0.000114639 1.95998e-05 0)
(-0.000191839 2.27248e-05 0)
(-0.000278873 2.55477e-05 0)
(-0.000374854 2.80755e-05 0)
(-0.000478901 3.03196e-05 0)
(-0.000590159 3.22947e-05 0)
(-0.00070781 3.40192e-05 0)
(-0.000831079 3.55123e-05 0)
(-0.000959244 3.6793e-05 0)
(-0.00109164 3.78791e-05 0)
(-0.00122764 3.87886e-05 0)
(-0.0013667 3.95399e-05 0)
(-0.00150831 4.01509e-05 0)
(-0.00165201 4.06389e-05 0)
(-0.00179741 4.10197e-05 0)
(-0.00194416 4.13077e-05 0)
(-0.00209195 4.15157e-05 0)
(-0.0022405 4.16557e-05 0)
(-0.00238961 4.17399e-05 0)
(-0.00253908 4.1779e-05 0)
(-0.00268875 4.17826e-05 0)
(-0.00283849 4.17585e-05 0)
(-0.00298822 4.17135e-05 0)
(-0.00313784 4.16539e-05 0)
(-0.00328732 4.15857e-05 0)
(-0.00343662 4.15148e-05 0)
(-0.00358571 4.14463e-05 0)
(-0.00373461 4.13841e-05 0)
(-0.00388332 4.13313e-05 0)
(-0.00403188 4.12904e-05 0)
(-0.00418031 4.12638e-05 0)
(-0.00432865 4.12539e-05 0)
(-0.00447697 4.12628e-05 0)
(-0.00462533 4.12922e-05 0)
(-0.00477378 4.13436e-05 0)
(-0.0049224 4.14185e-05 0)
(-0.00507126 4.15176e-05 0)
(-0.00522044 4.16417e-05 0)
(-0.00537003 4.17914e-05 0)
(-0.0055201 4.19674e-05 0)
(-0.00567075 4.21702e-05 0)
(-0.00582206 4.24002e-05 0)
(-0.00597412 4.26574e-05 0)
(-0.00612701 4.29419e-05 0)
(-0.00628084 4.32536e-05 0)
(-0.00643568 4.35925e-05 0)
(-0.00659162 4.39583e-05 0)
(-0.00674875 4.43504e-05 0)
(-0.00690715 4.47679e-05 0)
(-0.00706691 4.521e-05 0)
(-0.00722809 4.56754e-05 0)
(-0.00739078 4.61631e-05 0)
(-0.00755503 4.66719e-05 0)
(-0.00772091 4.72004e-05 0)
(-0.00788848 4.77467e-05 0)
(-0.00805778 4.83085e-05 0)
(-0.00822885 4.88835e-05 0)
(-0.00840173 4.94688e-05 0)
(-0.00857642 5.00614e-05 0)
(-0.00875295 5.06582e-05 0)
(-0.00893131 5.12556e-05 0)
(-0.00911147 5.18497e-05 0)
(-0.00929341 5.24361e-05 0)
(-0.00947708 5.30096e-05 0)
(-0.0096624 5.35649e-05 0)
(-0.0098493 5.40965e-05 0)
(-0.0100377 5.45983e-05 0)
(-0.0102274 5.50641e-05 0)
(-0.0104182 5.54871e-05 0)
(-0.0106101 5.58598e-05 0)
(-0.0108028 5.61745e-05 0)
(-0.0109961 5.64226e-05 0)
(-0.0111896 5.6595e-05 0)
(-0.0113832 5.66824e-05 0)
(-0.0115765 5.66754e-05 0)
(-0.0117691 5.65638e-05 0)
(-0.0119607 5.63371e-05 0)
(-0.0121508 5.5984e-05 0)
(-0.0123389 5.54929e-05 0)
(-0.0125246 5.48521e-05 0)
(-0.0127073 5.40495e-05 0)
(-0.0128864 5.30734e-05 0)
(-0.0130613 5.19112e-05 0)
(-0.0132313 5.05503e-05 0)
(-0.0133958 4.8978e-05 0)
(-0.0135539 4.7182e-05 0)
(-0.013705 4.51502e-05 0)
(-0.0138481 4.28708e-05 0)
(-0.0139825 4.03327e-05 0)
(-0.0141073 3.75251e-05 0)
(-0.0142215 3.44381e-05 0)
(-0.0143241 3.10628e-05 0)
(-0.0144144 2.73916e-05 0)
(-0.0144911 2.34184e-05 0)
(-0.0145534 1.91388e-05 0)
(-0.0146002 1.45503e-05 0)
(-0.0146306 9.65227e-06 0)
(-0.0146435 4.44627e-06 0)
(-0.014638 -1.06323e-06 0)
(-0.014613 -6.86897e-06 0)
(-0.0145678 -1.29605e-05 0)
(-0.0145013 -1.93241e-05 0)
(-0.0144129 -2.59428e-05 0)
(-0.0143016 -3.27961e-05 0)
(-0.0141669 -3.98595e-05 0)
(-0.0140081 -4.71045e-05 0)
(-0.0138248 -5.44984e-05 0)
(-0.0136166 -6.20048e-05 0)
(-0.0133833 -6.95829e-05 0)
(-0.0131248 -7.71883e-05 0)
(-0.0128411 -8.47725e-05 0)
(-0.0125324 -9.22837e-05 0)
(-0.0121992 -9.96664e-05 0)
(-0.011842 -0.000106863 0)
(-0.0114617 -0.000113811 0)
(-0.011059 -0.00012045 0)
(-0.0106354 -0.000126715 0)
(-0.010192 -0.000132541 0)
(-0.00973053 -0.000137865 0)
(-0.00925276 -0.000142622 0)
(-0.00876067 -0.00014675 0)
(-0.00825643 -0.000150189 0)
(-0.00774242 -0.000152883 0)
(-0.00722116 -0.000154781 0)
(-0.00669535 -0.000155833 0)
(-0.00616781 -0.000156 0)
(-0.00564151 -0.000155245 0)
(-0.00511948 -0.000153539 0)
(-0.00460486 -0.000150861 0)
(-0.00410082 -0.000147197 0)
(-0.00361057 -0.00014254 0)
(-0.00313732 -0.000136891 0)
(-0.00268424 -0.000130258 0)
(-0.00225448 -0.000122658 0)
(-0.00185107 -0.000114112 0)
(-0.00147696 -0.000104649 0)
(-0.00113496 -9.43042e-05 0)
(-0.000827719 -8.31184e-05 0)
(-0.000557669 -7.11421e-05 0)
(-0.000326994 -5.84377e-05 0)
(-0.000137551 -4.50885e-05 0)
(9.2385e-06 -3.12164e-05 0)
(0.000112563 -1.70173e-05 0)
(0.000172534 -2.83411e-06 0)
(0.00019072 1.06923e-05 0)
(0.000170927 2.23542e-05 0)
(0.000121002 2.98429e-05 0)
(5.83501e-05 2.87889e-05 0)
(1.34423e-05 1.3461e-05 0)
(1.0235e-05 -1.96177e-05 0)
(4.30943e-05 -4.31781e-05 0)
(8.96072e-05 -4.82808e-05 0)
(0.000130316 -3.98456e-05 0)
(0.000152341 -2.29289e-05 0)
(0.000148206 -1.09839e-06 0)
(0.00011336 2.3267e-05 0)
(4.53588e-05 4.85874e-05 0)
(-5.66398e-05 7.38261e-05 0)
(-0.000192352 9.83082e-05 0)
(-0.000360729 0.000121598 0)
(-0.000560199 0.000143427 0)
(-0.000788852 0.000163637 0)
(-0.00104458 0.000182155 0)
(-0.00132515 0.000198962 0)
(-0.00162834 0.000214083 0)
(-0.0019519 0.000227572 0)
(-0.00229369 0.000239504 0)
(-0.00265163 0.00024997 0)
(-0.00302376 0.000259068 0)
(-0.00340826 0.000266902 0)
(-0.00380344 0.000273579 0)
(-0.00420773 0.000279205 0)
(-0.00461973 0.000283883 0)
(-0.00503815 0.000287716 0)
(-0.00546184 0.000290802 0)
(-0.0058898 0.000293231 0)
(-0.00632112 0.00029509 0)
(-0.00675503 0.000296458 0)
(-0.00719087 0.00029741 0)
(-0.00762805 0.000298015 0)
(-0.0080661 0.000298336 0)
(-0.00850462 0.000298429 0)
(-0.00894331 0.000298345 0)
(-0.00938191 0.000298129 0)
(-0.00982024 0.000297823 0)
(-0.0102582 0.000297463 0)
(-0.0106956 0.000297084 0)
(-0.0111326 0.000296715 0)
(-0.0115691 0.00029638 0)
(-0.0120051 0.000296102 0)
(-0.0124408 0.0002959 0)
(-0.0128762 0.000295791 0)
(-0.0133114 0.00029579 0)
(-0.0137467 0.000295911 0)
(-0.0141822 0.000296164 0)
(-0.0146181 0.000296559 0)
(-0.0150545 0.000297105 0)
(-0.0154917 0.000297808 0)
(-0.0159299 0.000298673 0)
(-0.0163693 0.000299705 0)
(-0.0168102 0.000300908 0)
(-0.0172528 0.000302285 0)
(-0.0176973 0.000303835 0)
(-0.018144 0.000305561 0)
(-0.0185932 0.000307461 0)
(-0.0190449 0.000309533 0)
(-0.0194996 0.000311774 0)
(-0.0199574 0.000314181 0)
(-0.0204186 0.000316748 0)
(-0.0208833 0.000319468 0)
(-0.0213518 0.000322334 0)
(-0.0218243 0.000325337 0)
(-0.0223009 0.000328465 0)
(-0.0227817 0.000331707 0)
(-0.023267 0.000335049 0)
(-0.0237569 0.000338474 0)
(-0.0242514 0.000341966 0)
(-0.0247506 0.000345503 0)
(-0.0252545 0.000349066 0)
(-0.0257631 0.000352629 0)
(-0.0262765 0.000356166 0)
(-0.0267944 0.000359649 0)
(-0.0273168 0.000363045 0)
(-0.0278435 0.00036632 0)
(-0.0283744 0.000369439 0)
(-0.028909 0.000372361 0)
(-0.0294471 0.000375045 0)
(-0.0299882 0.000377445 0)
(-0.030532 0.000379514 0)
(-0.0310778 0.000381202 0)
(-0.0316251 0.000382453 0)
(-0.0321731 0.000383212 0)
(-0.0327211 0.000383419 0)
(-0.0332682 0.00038301 0)
(-0.0338134 0.000381922 0)
(-0.0343558 0.000380086 0)
(-0.0348941 0.000377433 0)
(-0.0354271 0.00037389 0)
(-0.0359535 0.000369382 0)
(-0.0364718 0.000363833 0)
(-0.0369805 0.000357166 0)
(-0.0374779 0.000349304 0)
(-0.0379621 0.000340167 0)
(-0.0384314 0.000329677 0)
(-0.0388838 0.000317758 0)
(-0.0393171 0.000304332 0)
(-0.0397291 0.000289326 0)
(-0.0401176 0.000272669 0)
(-0.0404801 0.000254294 0)
(-0.0408143 0.000234142 0)
(-0.0411176 0.000212155 0)
(-0.0413873 0.000188287 0)
(-0.0416208 0.000162499 0)
(-0.0418155 0.000134759 0)
(-0.0419685 0.000105052 0)
(-0.0420772 7.33717e-05 0)
(-0.0421388 3.97266e-05 0)
(-0.0421507 4.14111e-06 0)
(-0.0421102 -3.33435e-05 0)
(-0.0420147 -7.26677e-05 0)
(-0.0418619 -0.000113752 0)
(-0.0416494 -0.000156497 0)
(-0.041375 -0.00020078 0)
(-0.0410369 -0.000246458 0)
(-0.0406332 -0.00029336 0)
(-0.0401625 -0.000341296 0)
(-0.0396237 -0.000390046 0)
(-0.0390158 -0.000439369 0)
(-0.0383383 -0.000489 0)
(-0.0375913 -0.000538647 0)
(-0.0367749 -0.000588 0)
(-0.0358899 -0.000636725 0)
(-0.0349376 -0.000684469 0)
(-0.0339196 -0.000730864 0)
(-0.0328383 -0.000775528 0)
(-0.0316964 -0.000818067 0)
(-0.0304973 -0.000858081 0)
(-0.0292447 -0.000895168 0)
(-0.0279432 -0.000928926 0)
(-0.0265976 -0.000958961 0)
(-0.0252135 -0.00098489 0)
(-0.0237968 -0.00100634 0)
(-0.0223542 -0.00102298 0)
(-0.0208924 -0.00103447 0)
(-0.0194188 -0.00104054 0)
(-0.0179411 -0.00104093 0)
(-0.0164674 -0.00103542 0)
(-0.015006 -0.00102384 0)
(-0.0135653 -0.00100607 0)
(-0.0121539 -0.000982037 0)
(-0.0107804 -0.000951711 0)
(-0.00945364 -0.00091512 0)
(-0.00818203 -0.000872343 0)
(-0.00697398 -0.000823515 0)
(-0.00583764 -0.000768823 0)
(-0.0047808 -0.000708514 0)
(-0.0038108 -0.0006429 0)
(-0.00293445 -0.000572365 0)
(-0.00215786 -0.000497389 0)
(-0.0014863 -0.00041858 0)
(-0.000923914 -0.000336736 0)
(-0.000473406 -0.000252948 0)
(-0.000135546 -0.000168782 0)
(9.1604e-05 -8.65951e-05 0)
(0.000213814 -1.00672e-05 0)
(0.000242124 5.49231e-05 0)
(0.000195231 9.89061e-05 0)
(0.000106571 0.00010679 0)
(2.86221e-05 5.8237e-05 0)
(1.24226e-05 -4.62095e-05 0)
(4.85499e-05 -8.97536e-05 0)
(9.35989e-05 -9.32467e-05 0)
(0.000124061 -6.75745e-05 0)
(0.000124353 -2.22469e-05 0)
(8.49023e-05 3.5414e-05 0)
(-5.57222e-07 0.000100033 0)
(-0.000135643 0.000167773 0)
(-0.000321849 0.000235944 0)
(-0.000559083 0.000302677 0)
(-0.000846093 0.000366698 0)
(-0.00118081 0.000427168 0)
(-0.0015606 0.000483555 0)
(-0.00198246 0.000535564 0)
(-0.00244319 0.000583071 0)
(-0.00293947 0.000626075 0)
(-0.00346799 0.000664668 0)
(-0.0040255 0.000699014 0)
(-0.00460884 0.000729321 0)
(-0.00521503 0.000755833 0)
(-0.00584124 0.000778814 0)
(-0.00648483 0.000798541 0)
(-0.00714337 0.000815293 0)
(-0.00781464 0.000829348 0)
(-0.00849659 0.000840981 0)
(-0.00918742 0.000850455 0)
(-0.00988548 0.000858022 0)
(-0.0105893 0.00086392 0)
(-0.0112977 0.000868374 0)
(-0.0120095 0.000871591 0)
(-0.0127238 0.000873763 0)
(-0.0134398 0.000875069 0)
(-0.0141567 0.000875671 0)
(-0.0148742 0.000875715 0)
(-0.0155917 0.000875335 0)
(-0.0163089 0.00087465 0)
(-0.0170256 0.000873768 0)
(-0.0177416 0.000872785 0)
(-0.0184569 0.000871786 0)
(-0.0191714 0.000870848 0)
(-0.0198851 0.000870037 0)
(-0.0205983 0.000869412 0)
(-0.0213109 0.000869024 0)
(-0.0220232 0.000868919 0)
(-0.0227355 0.000869136 0)
(-0.0234479 0.000869708 0)
(-0.0241607 0.000870666 0)
(-0.0248743 0.000872033 0)
(-0.0255889 0.000873832 0)
(-0.0263049 0.000876078 0)
(-0.0270226 0.000878786 0)
(-0.0277424 0.000881967 0)
(-0.0284647 0.000885627 0)
(-0.0291898 0.000889771 0)
(-0.0299181 0.000894399 0)
(-0.03065 0.00089951 0)
(-0.0313858 0.000905097 0)
(-0.0321259 0.000911152 0)
(-0.0328706 0.000917663 0)
(-0.0336203 0.000924612 0)
(-0.0343754 0.000931981 0)
(-0.035136 0.000939745 0)
(-0.0359026 0.000947878 0)
(-0.0366753 0.000956346 0)
(-0.0374544 0.000965113 0)
(-0.0382402 0.000974136 0)
(-0.0390326 0.000983368 0)
(-0.0398319 0.000992756 0)
(-0.0406382 0.00100224 0)
(-0.0414514 0.00101176 0)
(-0.0422715 0.00102124 0)
(-0.0430985 0.0010306 0)
(-0.0439321 0.00103977 0)
(-0.0447721 0.00104864 0)
(-0.0456182 0.00105712 0)
(-0.0464701 0.0010651 0)
(-0.0473272 0.00107246 0)
(-0.0481889 0.00107909 0)
(-0.0490546 0.00108486 0)
(-0.0499235 0.00108962 0)
(-0.0507946 0.00109324 0)
(-0.051667 0.00109555 0)
(-0.0525395 0.00109639 0)
(-0.0534108 0.0010956 0)
(-0.0542794 0.00109299 0)
(-0.0551439 0.00108839 0)
(-0.0560026 0.00108159 0)
(-0.0568535 0.00107241 0)
(-0.0576946 0.00106064 0)
(-0.0585237 0.00104607 0)
(-0.0593386 0.00102849 0)
(-0.0601367 0.00100768 0)
(-0.0609154 0.000983432 0)
(-0.0616718 0.000955525 0)
(-0.0624028 0.000923745 0)
(-0.0631054 0.000887881 0)
(-0.0637763 0.000847727 0)
(-0.0644118 0.000803085 0)
(-0.0650086 0.000753765 0)
(-0.0655628 0.000699592 0)
(-0.0660705 0.000640406 0)
(-0.0665277 0.000576065 0)
(-0.0669305 0.000506448 0)
(-0.0672747 0.000431462 0)
(-0.0675561 0.000351039 0)
(-0.0677704 0.000265146 0)
(-0.0679136 0.000173784 0)
(-0.0679814 7.69969e-05 0)
(-0.0679697 -2.51304e-05 0)
(-0.0678745 -0.000132464 0)
(-0.0676919 -0.000244821 0)
(-0.0674182 -0.000361962 0)
(-0.0670501 -0.00048359 0)
(-0.0665842 -0.00060935 0)
(-0.0660176 -0.000738822 0)
(-0.0653479 -0.000871523 0)
(-0.0645729 -0.0010069 0)
(-0.063691 -0.00114434 0)
(-0.062701 -0.00128317 0)
(-0.0616023 -0.00142262 0)
(-0.0603949 -0.0015619 0)
(-0.0590795 -0.00170013 0)
(-0.0576574 -0.00183639 0)
(-0.0561307 -0.00196971 0)
(-0.0545022 -0.00209906 0)
(-0.0527756 -0.0022234 0)
(-0.0509552 -0.00234163 0)
(-0.0490465 -0.00245268 0)
(-0.0470553 -0.00255543 0)
(-0.0449888 -0.00264879 0)
(-0.0428546 -0.00273168 0)
(-0.0406614 -0.00280306 0)
(-0.0384183 -0.00286194 0)
(-0.0361355 -0.00290736 0)
(-0.0338236 -0.00293846 0)
(-0.0314942 -0.00295447 0)
(-0.0291589 -0.00295469 0)
(-0.0268303 -0.00293856 0)
(-0.024521 -0.00290561 0)
(-0.022244 -0.00285553 0)
(-0.0200127 -0.00278813 0)
(-0.0178402 -0.00270335 0)
(-0.0157398 -0.00260131 0)
(-0.0137246 -0.00248226 0)
(-0.0118073 -0.00234661 0)
(-0.0100004 -0.00219497 0)
(-0.00831547 -0.00202811 0)
(-0.00676361 -0.001847 0)
(-0.00535488 -0.00165286 0)
(-0.00409816 -0.00144724 0)
(-0.00300087 -0.00123206 0)
(-0.00206862 -0.00100983 0)
(-0.00130462 -0.000783881 0)
(-0.000709078 -0.000558775 0)
(-0.000278196 -0.000340956 0)
(-2.87756e-06 -0.000139718 0)
(0.000132725 3.13442e-05 0)
(0.000153307 0.00015246 0)
(9.88587e-05 0.000195376 0)
(2.95767e-05 0.000120528 0)
(1.13427e-05 -7.27232e-05 0)
(4.04814e-05 -0.000130773 0)
(6.83612e-05 -0.000123807 0)
(7.05945e-05 -6.99678e-05 0)
(3.07638e-05 1.64013e-05 0)
(-6.16346e-05 0.000123944 0)
(-0.000213653 0.000243972 0)
(-0.000429505 0.000370026 0)
(-0.000711048 0.000497377 0)
(-0.00105829 0.000622621 0)
(-0.00146986 0.000743353 0)
(-0.00194333 0.000857917 0)
(-0.00247554 0.000965233 0)
(-0.00306285 0.00106465 0)
(-0.00370128 0.00115583 0)
(-0.0043867 0.00123872 0)
(-0.00511491 0.0013134 0)
(-0.00588176 0.00138014 0)
(-0.00668323 0.00143927 0)
(-0.00751545 0.00149121 0)
(-0.00837473 0.00153644 0)
(-0.00925763 0.00157544 0)
(-0.010161 0.00160873 0)
(-0.0110818 0.00163681 0)
(-0.0120173 0.0016602 0)
(-0.0129652 0.00167939 0)
(-0.0139233 0.00169484 0)
(-0.0148895 0.00170701 0)
(-0.0158622 0.00171633 0)
(-0.0168398 0.00172319 0)
(-0.0178212 0.00172796 0)
(-0.018805 0.00173098 0)
(-0.0197905 0.00173257 0)
(-0.0207768 0.001733 0)
(-0.0217633 0.00173254 0)
(-0.0227496 0.00173143 0)
(-0.0237352 0.00172987 0)
(-0.02472 0.00172806 0)
(-0.0257038 0.00172616 0)
(-0.0266865 0.00172432 0)
(-0.0276681 0.00172268 0)
(-0.0286488 0.00172136 0)
(-0.0296287 0.00172045 0)
(-0.030608 0.00172005 0)
(-0.031587 0.00172024 0)
(-0.0325659 0.00172109 0)
(-0.0335453 0.00172265 0)
(-0.0345253 0.00172498 0)
(-0.0355065 0.00172811 0)
(-0.0364893 0.00173209 0)
(-0.037474 0.00173695 0)
(-0.0384612 0.00174269 0)
(-0.0394514 0.00174934 0)
(-0.0404449 0.00175691 0)
(-0.0414424 0.0017654 0)
(-0.0424442 0.00177479 0)
(-0.0434509 0.00178509 0)
(-0.0444629 0.00179627 0)
(-0.0454807 0.0018083 0)
(-0.0465046 0.00182116 0)
(-0.0475352 0.00183481 0)
(-0.0485728 0.00184919 0)
(-0.0496178 0.00186425 0)
(-0.0506704 0.00187992 0)
(-0.051731 0.00189614 0)
(-0.0527999 0.00191281 0)
(-0.053877 0.00192984 0)
(-0.0549627 0.00194712 0)
(-0.056057 0.00196454 0)
(-0.0571598 0.00198197 0)
(-0.0582711 0.00199927 0)
(-0.0593906 0.00201628 0)
(-0.0605182 0.00203284 0)
(-0.0616535 0.00204876 0)
(-0.062796 0.00206386 0)
(-0.0639451 0.00207791 0)
(-0.0651001 0.0020907 0)
(-0.0662602 0.00210198 0)
(-0.0674244 0.00211151 0)
(-0.0685916 0.00211901 0)
(-0.0697605 0.00212421 0)
(-0.0709298 0.00212679 0)
(-0.0720978 0.00212644 0)
(-0.0732627 0.00212285 0)
(-0.0744226 0.00211566 0)
(-0.0755753 0.00210451 0)
(-0.0767185 0.00208905 0)
(-0.0778497 0.00206889 0)
(-0.0789662 0.00204365 0)
(-0.0800649 0.00201292 0)
(-0.0811427 0.0019763 0)
(-0.0821962 0.00193339 0)
(-0.0832219 0.00188379 0)
(-0.0842159 0.00182707 0)
(-0.0851742 0.00176284 0)
(-0.0860927 0.00169071 0)
(-0.0869668 0.00161029 0)
(-0.0877919 0.00152122 0)
(-0.0885634 0.00142315 0)
(-0.0892763 0.00131575 0)
(-0.0899253 0.00119875 0)
(-0.0905055 0.00107188 0)
(-0.0910113 0.000934942 0)
(-0.0914374 0.000787774 0)
(-0.0917784 0.000630271 0)
(-0.0920288 0.000462393 0)
(-0.0921831 0.000284168 0)
(-0.092236 9.57016e-05 0)
(-0.0921821 -0.000102818 0)
(-0.0920163 -0.000311112 0)
(-0.0917337 -0.000528804 0)
(-0.0913295 -0.000755416 0)
(-0.0907994 -0.000990361 0)
(-0.0901393 -0.00123294 0)
(-0.0893456 -0.00148233 0)
(-0.0884152 -0.00173759 0)
(-0.0873455 -0.00199767 0)
(-0.0861346 -0.00226138 0)
(-0.0847811 -0.00252742 0)
(-0.0832844 -0.00279434 0)
(-0.0816448 -0.00306063 0)
(-0.0798633 -0.00332462 0)
(-0.0779418 -0.00358456 0)
(-0.0758834 -0.0038386 0)
(-0.0736917 -0.00408484 0)
(-0.0713718 -0.00432129 0)
(-0.0689295 -0.0045459 0)
(-0.066372 -0.00475664 0)
(-0.0637071 -0.00495142 0)
(-0.0609442 -0.00512819 0)
(-0.0580933 -0.00528495 0)
(-0.0551656 -0.00541974 0)
(-0.0521735 -0.0055307 0)
(-0.0491298 -0.00561606 0)
(-0.0460488 -0.00567421 0)
(-0.042945 -0.00570371 0)
(-0.0398341 -0.00570327 0)
(-0.036732 -0.00567184 0)
(-0.0336553 -0.00560858 0)
(-0.0306208 -0.0055129 0)
(-0.0276457 -0.00538447 0)
(-0.0247472 -0.00522324 0)
(-0.0219424 -0.00502944 0)
(-0.0192481 -0.00480363 0)
(-0.0166807 -0.00454666 0)
(-0.0142561 -0.00425974 0)
(-0.0119893 -0.00394445 0)
(-0.00989424 -0.0036028 0)
(-0.00798356 -0.00323728 0)
(-0.0062683 -0.00285101 0)
(-0.0047575 -0.00244791 0)
(-0.00345774 -0.00203294 0)
(-0.00237256 -0.00161259 0)
(-0.0015017 -0.00119543 0)
(-0.000840101 -0.000793054 0)
(-0.000376761 -0.000421419 0)
(-9.3359e-05 -0.00010264 0)
(3.74569e-05 0.000132851 0)
(5.66525e-05 0.000243598 0)
(2.2269e-05 0.000170405 0)
(8.46534e-06 -9.23074e-05 0)
(2.37224e-05 -0.000153172 0)
(2.27529e-05 -0.000124002 0)
(-1.69334e-05 -2.99686e-05 0)
(-0.000111176 0.000109732 0)
(-0.000270563 0.000279768 0)
(-0.000502256 0.000468146 0)
(-0.00081055 0.000665702 0)
(-0.00119733 0.000865544 0)
(-0.00166256 0.00106257 0)
(-0.00220466 0.00125306 0)
(-0.00282091 0.00143442 0)
(-0.00350773 0.00160486 0)
(-0.00426094 0.00176327 0)
(-0.00507596 0.00190905 0)
(-0.00594798 0.00204199 0)
(-0.00687212 0.00216216 0)
(-0.00784349 0.00226989 0)
(-0.00885731 0.00236566 0)
(-0.00990898 0.00245007 0)
(-0.0109941 0.00252383 0)
(-0.0121085 0.00258766 0)
(-0.0132484 0.00264236 0)
(-0.0144101 0.0026887 0)
(-0.0155904 0.00272748 0)
(-0.0167863 0.00275946 0)
(-0.017995 0.00278538 0)
(-0.0192142 0.00280594 0)
(-0.0204417 0.00282183 0)
(-0.0216756 0.00283367 0)
(-0.0229143 0.00284205 0)
(-0.0241564 0.00284752 0)
(-0.0254007 0.00285058 0)
(-0.0266462 0.00285168 0)
(-0.0278921 0.00285126 0)
(-0.0291377 0.00284968 0)
(-0.0303825 0.00284731 0)
(-0.0316263 0.00284443 0)
(-0.0328687 0.00284134 0)
(-0.0341097 0.00283827 0)
(-0.0353493 0.00283545 0)
(-0.0365875 0.00283307 0)
(-0.0378245 0.00283131 0)
(-0.0390606 0.00283031 0)
(-0.040296 0.00283022 0)
(-0.041531 0.00283113 0)
(-0.0427662 0.00283316 0)
(-0.0440019 0.00283638 0)
(-0.0452386 0.00284087 0)
(-0.0464768 0.00284669 0)
(-0.047717 0.00285388 0)
(-0.0489598 0.00286247 0)
(-0.0502058 0.0028725 0)
(-0.0514555 0.00288397 0)
(-0.0527095 0.00289689 0)
(-0.0539683 0.00291125 0)
(-0.0552325 0.00292702 0)
(-0.0565028 0.00294419 0)
(-0.0577795 0.00296269 0)
(-0.0590633 0.00298249 0)
(-0.0603545 0.00300352 0)
(-0.0616537 0.00302568 0)
(-0.0629613 0.00304889 0)
(-0.0642776 0.00307304 0)
(-0.0656029 0.00309801 0)
(-0.0669376 0.00312364 0)
(-0.0682817 0.0031498 0)
(-0.0696354 0.00317629 0)
(-0.0709988 0.00320293 0)
(-0.0723717 0.00322951 0)
(-0.073754 0.00325579 0)
(-0.0751455 0.00328151 0)
(-0.0765458 0.00330641 0)
(-0.0779543 0.00333019 0)
(-0.0793705 0.00335252 0)
(-0.0807935 0.00337307 0)
(-0.0822226 0.00339147 0)
(-0.0836564 0.00340734 0)
(-0.0850939 0.00342025 0)
(-0.0865336 0.00342977 0)
(-0.0879738 0.00343545 0)
(-0.0894128 0.0034368 0)
(-0.0908485 0.0034333 0)
(-0.0922786 0.00342445 0)
(-0.0937008 0.00340967 0)
(-0.0951123 0.00338841 0)
(-0.0965102 0.00336007 0)
(-0.0978913 0.00332406 0)
(-0.0992522 0.00327975 0)
(-0.100589 0.00322651 0)
(-0.101899 0.00316371 0)
(-0.103176 0.0030907 0)
(-0.104417 0.00300684 0)
(-0.105617 0.00291149 0)
(-0.10677 0.00280402 0)
(-0.107873 0.00268382 0)
(-0.108919 0.0025503 0)
(-0.109903 0.00240288 0)
(-0.110819 0.00224103 0)
(-0.111661 0.00206428 0)
(-0.112423 0.00187218 0)
(-0.113098 0.00166436 0)
(-0.113681 0.00144052 0)
(-0.114164 0.00120043 0)
(-0.114541 0.00094396 0)
(-0.114806 0.000671077 0)
(-0.114952 0.00038186 0)
(-0.114973 7.65105e-05 0)
(-0.114862 -0.000244636 0)
(-0.114613 -0.000581102 0)
(-0.114221 -0.000932257 0)
(-0.11368 -0.00129731 0)
(-0.112984 -0.00167529 0)
(-0.11213 -0.00206507 0)
(-0.111113 -0.00246531 0)
(-0.10993 -0.0028745 0)
(-0.108577 -0.00329095 0)
(-0.107053 -0.00371275 0)
(-0.105355 -0.00413783 0)
(-0.103485 -0.00456391 0)
(-0.101441 -0.00498855 0)
(-0.0992258 -0.00540914 0)
(-0.0968417 -0.0058229 0)
(-0.0942924 -0.00622694 0)
(-0.0915826 -0.00661822 0)
(-0.0887184 -0.00699364 0)
(-0.0857071 -0.00734999 0)
(-0.0825572 -0.00768406 0)
(-0.0792784 -0.0079926 0)
(-0.0758819 -0.00827239 0)
(-0.0723799 -0.00852029 0)
(-0.0687859 -0.00873324 0)
(-0.0651145 -0.00890833 0)
(-0.0613814 -0.00904282 0)
(-0.0576034 -0.00913418 0)
(-0.0537983 -0.00918016 0)
(-0.0499844 -0.00917877 0)
(-0.046181 -0.00912836 0)
(-0.0424077 -0.00902765 0)
(-0.0386849 -0.00887573 0)
(-0.0350328 -0.00867214 0)
(-0.0314719 -0.00841681 0)
(-0.0280226 -0.0081102 0)
(-0.024705 -0.00775323 0)
(-0.0215384 -0.00734735 0)
(-0.0185416 -0.00689458 0)
(-0.0157323 -0.00639756 0)
(-0.0131269 -0.00585963 0)
(-0.0107402 -0.00528494 0)
(-0.00858485 -0.00467864 0)
(-0.00667127 -0.00404711 0)
(-0.00500689 -0.00339837 0)
(-0.00359563 -0.00274261 0)
(-0.00243714 -0.00209297 0)
(-0.00152594 -0.00146667 0)
(-0.00085044 -0.000886471 0)
(-0.000391747 -0.0003828 0)
(-0.000122292 4.01341e-06 0)
(-4.18319e-06 0.000220648 0)
(1.12361e-05 0.000191544 0)
(4.63917e-06 -0.000101414 0)
(1.55502e-06 -0.000148953 0)
(-3.66138e-05 -8.33281e-05 0)
(-0.000128466 6.42345e-05 0)
(-0.000288132 0.000270044 0)
(-0.000525632 0.000515014 0)
(-0.00084768 0.000783983 0)
(-0.00125821 0.00106515 0)
(-0.00175884 0.00134944 0)
(-0.00234925 0.00163001 0)
(-0.00302758 0.00190178 0)
(-0.00379076 0.00216107 0)
(-0.0046348 0.00240534 0)
(-0.00555506 0.00263296 0)
(-0.00654645 0.00284296 0)
(-0.0076036 0.00303495 0)
(-0.00872101 0.00320898 0)
(-0.00989321 0.0033654 0)
(-0.0111148 0.00350483 0)
(-0.0123805 0.00362807 0)
(-0.0136854 0.00373605 0)
(-0.0150246 0.0038298 0)
(-0.0163938 0.00391037 0)
(-0.0177888 0.00397887 0)
(-0.0192058 0.0040364 0)
(-0.0206413 0.00408403 0)
(-0.0220922 0.00412281 0)
(-0.0235555 0.00415375 0)
(-0.0250289 0.0041778 0)
(-0.02651 0.00419587 0)
(-0.0279969 0.00420881 0)
(-0.029488 0.0042174 0)
(-0.0309817 0.00422237 0)
(-0.0324769 0.00422438 0)
(-0.0339725 0.00422405 0)
(-0.0354679 0.00422193 0)
(-0.0369622 0.00421853 0)
(-0.0384552 0.0042143 0)
(-0.0399465 0.00420965 0)
(-0.0414359 0.00420494 0)
(-0.0429234 0.0042005 0)
(-0.044409 0.00419662 0)
(-0.0458929 0.00419355 0)
(-0.0473753 0.00419152 0)
(-0.0488565 0.00419073 0)
(-0.050337 0.00419135 0)
(-0.0518171 0.00419352 0)
(-0.0532973 0.00419738 0)
(-0.0547782 0.00420303 0)
(-0.0562604 0.00421056 0)
(-0.0577444 0.00422004 0)
(-0.0592308 0.00423152 0)
(-0.0607204 0.00424504 0)
(-0.0622136 0.00426061 0)
(-0.0637113 0.00427824 0)
(-0.0652139 0.00429791 0)
(-0.0667222 0.0043196 0)
(-0.0682368 0.00434326 0)
(-0.0697583 0.00436882 0)
(-0.0712872 0.00439621 0)
(-0.0728241 0.00442531 0)
(-0.0743695 0.00445601 0)
(-0.0759238 0.00448816 0)
(-0.0774875 0.00452161 0)
(-0.0790608 0.00455616 0)
(-0.080644 0.00459161 0)
(-0.0822373 0.00462772 0)
(-0.0838408 0.00466422 0)
(-0.0854544 0.00470084 0)
(-0.0870781 0.00473726 0)
(-0.0887116 0.00477312 0)
(-0.0903545 0.00480806 0)
(-0.0920065 0.00484168 0)
(-0.0936667 0.00487353 0)
(-0.0953344 0.00490315 0)
(-0.0970087 0.00493003 0)
(-0.0986885 0.00495363 0)
(-0.100372 0.0049734 0)
(-0.102059 0.00498873 0)
(-0.103746 0.00499897 0)
(-0.105432 0.00500346 0)
(-0.107114 0.0050015 0)
(-0.108791 0.00499235 0)
(-0.110459 0.00497524 0)
(-0.112116 0.00494938 0)
(-0.113758 0.00491396 0)
(-0.115383 0.00486811 0)
(-0.116985 0.00481098 0)
(-0.118561 0.00474168 0)
(-0.120107 0.0046593 0)
(-0.121619 0.00456294 0)
(-0.12309 0.00445168 0)
(-0.124517 0.00432462 0)
(-0.125894 0.00418083 0)
(-0.127214 0.00401945 0)
(-0.128472 0.0038396 0)
(-0.129662 0.00364046 0)
(-0.130777 0.00342123 0)
(-0.13181 0.00318119 0)
(-0.132755 0.00291966 0)
(-0.133604 0.00263606 0)
(-0.134351 0.00232988 0)
(-0.134987 0.00200073 0)
(-0.135506 0.00164832 0)
(-0.1359 0.0012725 0)
(-0.136161 0.000873278 0)
(-0.136283 0.000450804 0)
(-0.136257 5.41333e-06 0)
(-0.136078 -0.000462371 0)
(-0.135738 -0.000951822 0)
(-0.13523 -0.00146199 0)
(-0.134549 -0.00199171 0)
(-0.133688 -0.00253955 0)
(-0.132643 -0.00310385 0)
(-0.131409 -0.00368267 0)
(-0.129982 -0.00427384 0)
(-0.12836 -0.00487489 0)
(-0.126539 -0.0054831 0)
(-0.124519 -0.00609546 0)
(-0.122298 -0.00670875 0)
(-0.119879 -0.00731945 0)
(-0.117262 -0.00792384 0)
(-0.114451 -0.00851799 0)
(-0.11145 -0.00909776 0)
(-0.108265 -0.00965885 0)
(-0.104903 -0.0101968 0)
(-0.101372 -0.0107072 0)
(-0.0976827 -0.0111854 0)
(-0.0938453 -0.0116268 0)
(-0.0898731 -0.0120268 0)
(-0.0857799 -0.0123811 0)
(-0.0815812 -0.0126853 0)
(-0.0772937 -0.0129353 0)
(-0.0729354 -0.0131272 0)
(-0.0685253 -0.0132575 0)
(-0.0640836 -0.013323 0)
(-0.0596314 -0.0133208 0)
(-0.0551904 -0.0132487 0)
(-0.0507831 -0.0131049 0)
(-0.0464324 -0.0128881 0)
(-0.0421615 -0.0125977 0)
(-0.0379936 -0.0122336 0)
(-0.0339519 -0.0117966 0)
(-0.030059 -0.0112881 0)
(-0.026337 -0.0107102 0)
(-0.0228071 -0.010066 0)
(-0.0194891 -0.00935933 0)
(-0.0164016 -0.00859514 0)
(-0.0135612 -0.00777955 0)
(-0.010982 -0.00692009 0)
(-0.00867567 -0.00602598 0)
(-0.00665056 -0.00510867 0)
(-0.0049112 -0.00418239 0)
(-0.00345767 -0.00326511 0)
(-0.00228489 -0.00237968 0)
(-0.00138185 -0.00155551 0)
(-0.000730624 -0.00083064 0)
(-0.000305275 -0.000254064 0)
(-7.37631e-05 0.000111113 0)
(-1.11343e-06 0.000177501 0)
(3.31477e-07 -9.7982e-05 0)
(-2.39014e-05 -0.000112661 0)
(-0.000105043 5.89462e-06 0)
(-0.000256532 0.000221636 0)
(-0.000489965 0.000506938 0)
(-0.000814263 0.000839333 0)
(-0.00123524 0.00120074 0)
(-0.0017561 0.00157687 0)
(-0.00237789 0.00195658 0)
(-0.0030998 0.00233129 0)
(-0.00391954 0.00269454 0)
(-0.00483362 0.00304159 0)
(-0.00583763 0.0033691 0)
(-0.00692645 0.00367484 0)
(-0.00809453 0.00395749 0)
(-0.00933599 0.00421644 0)
(-0.0106448 0.00445166 0)
(-0.012015 0.00466353 0)
(-0.0134407 0.00485282 0)
(-0.014916 0.00502051 0)
(-0.0164354 0.00516778 0)
(-0.0179936 0.00529593 0)
(-0.0195857 0.00540637 0)
(-0.0212071 0.00550051 0)
(-0.0228535 0.00557978 0)
(-0.024521 0.00564562 0)
(-0.026206 0.0056994 0)
(-0.0279054 0.00574247 0)
(-0.0296161 0.0057761 0)
(-0.0313357 0.00580149 0)
(-0.033062 0.00581979 0)
(-0.034793 0.00583206 0)
(-0.036527 0.00583926 0)
(-0.0382626 0.00584231 0)
(-0.0399986 0.00584204 0)
(-0.0417342 0.0058392 0)
(-0.0434685 0.00583448 0)
(-0.045201 0.0058285 0)
(-0.0469312 0.00582182 0)
(-0.0486591 0.00581495 0)
(-0.0503843 0.00580832 0)
(-0.0521071 0.00580235 0)
(-0.0538275 0.00579738 0)
(-0.0555457 0.00579374 0)
(-0.057262 0.00579168 0)
(-0.058977 0.00579147 0)
(-0.0606909 0.00579329 0)
(-0.0624045 0.00579732 0)
(-0.0641181 0.00580373 0)
(-0.0658325 0.00581262 0)
(-0.0675483 0.0058241 0)
(-0.0692661 0.00583823 0)
(-0.0709867 0.00585507 0)
(-0.0727108 0.00587465 0)
(-0.0744391 0.00589696 0)
(-0.0761722 0.005922 0)
(-0.0779108 0.0059497 0)
(-0.0796558 0.00598002 0)
(-0.0814076 0.00601285 0)
(-0.0831669 0.00604808 0)
(-0.0849343 0.00608558 0)
(-0.0867103 0.00612515 0)
(-0.0884955 0.00616662 0)
(-0.0902901 0.00620975 0)
(-0.0920945 0.00625427 0)
(-0.093909 0.0062999 0)
(-0.0957338 0.00634632 0)
(-0.0975688 0.00639315 0)
(-0.0994141 0.00644 0)
(-0.101269 0.00648644 0)
(-0.103134 0.00653199 0)
(-0.105009 0.00657613 0)
(-0.106892 0.0066183 0)
(-0.108782 0.00665791 0)
(-0.11068 0.00669431 0)
(-0.112583 0.00672681 0)
(-0.114491 0.00675469 0)
(-0.116401 0.00677716 0)
(-0.118313 0.0067934 0)
(-0.120223 0.00680255 0)
(-0.12213 0.00680369 0)
(-0.124031 0.00679587 0)
(-0.125923 0.00677811 0)
(-0.127804 0.00674935 0)
(-0.129669 0.00670854 0)
(-0.131516 0.00665455 0)
(-0.133339 0.00658627 0)
(-0.135136 0.00650251 0)
(-0.136901 0.0064021 0)
(-0.138629 0.00628382 0)
(-0.140315 0.00614648 0)
(-0.141954 0.00598885 0)
(-0.143539 0.00580973 0)
(-0.145065 0.00560792 0)
(-0.146525 0.00538224 0)
(-0.147913 0.00513158 0)
(-0.149221 0.00485484 0)
(-0.150442 0.004551 0)
(-0.151569 0.00421911 0)
(-0.152593 0.00385831 0)
(-0.153508 0.00346786 0)
(-0.154305 0.00304712 0)
(-0.154976 0.00259562 0)
(-0.155512 0.00211301 0)
(-0.155906 0.00159916 0)
(-0.15615 0.00105412 0)
(-0.156235 0.000478136 0)
(-0.156153 -0.000128279 0)
(-0.155897 -0.000764374 0)
(-0.15546 -0.00142912 0)
(-0.154833 -0.00212121 0)
(-0.154012 -0.00283902 0)
(-0.152988 -0.0035806 0)
(-0.151758 -0.0043437 0)
(-0.150316 -0.00512569 0)
(-0.148658 -0.00592362 0)
(-0.146781 -0.00673417 0)
(-0.144682 -0.00755369 0)
(-0.14236 -0.00837817 0)
(-0.139816 -0.00920327 0)
(-0.137049 -0.0100243 0)
(-0.134062 -0.0108364 0)
(-0.130859 -0.0116341 0)
(-0.127445 -0.0124122 0)
(-0.123826 -0.0131647 0)
(-0.12001 -0.013886 0)
(-0.116006 -0.0145699 0)
(-0.111826 -0.0152105 0)
(-0.107481 -0.0158016 0)
(-0.102987 -0.0163372 0)
(-0.098357 -0.0168115 0)
(-0.0936098 -0.0172187 0)
(-0.0887634 -0.0175535 0)
(-0.0838376 -0.0178105 0)
(-0.0788534 -0.0179853 0)
(-0.073833 -0.0180734 0)
(-0.0687997 -0.0180714 0)