/*--------------------------------*- C++ -*----------------------------------*\
  =========                 |
  \\      /  F ield         | OpenFOAM: The Open Source CFD Toolbox
   \\    /   O peration     | Website:  https://openfoam.org
    \\  /    A nd           | Version:  7
     \\/     M anipulation  |
\*---------------------------------------------------------------------------*/
FoamFile
{
    version     2.0;
    format      ascii;
    class       volScalarField;
    location    "0.075";
    object      p;
}
// * * * * * * * * * * * * * * * * * * * * * * * * * * * * * * * * * * * * * //

dimensions      [0 2 -2 0 0 0 0];

internalField   nonuniform List<scalar> 
12800
(
2.79759e-07
0.000182628
-0.000901327
-0.00334379
-0.00689954
-0.0113216
-0.016377
-0.0218523
-0.027561
-0.0333429
-0.0390618
-0.0446025
-0.0498676
-0.0547757
-0.0592588
-0.0632611
-0.0667367
-0.069649
-0.0719692
-0.0736754
-0.074752
-0.0751885
-0.0749791
-0.0741222
-0.0726195
-0.0704761
-0.0676995
-0.0642998
-0.060289
-0.0556805
-0.0504892
-0.0447313
-0.0384235
-0.0315834
-0.0242292
-0.0163794
-0.00805264
0.000732237
0.00995652
0.0196016
0.0296492
0.0400812
0.05088
0.0620282
0.0735091
0.0853063
0.0974042
0.109788
0.122442
0.135353
0.148508
0.161893
0.175498
0.189309
0.203317
0.21751
0.23188
0.246417
0.261113
0.275959
0.290948
0.306074
0.321329
0.336708
0.352205
0.367815
0.383534
0.399356
0.415278
0.431296
0.447407
0.463607
0.479894
0.496265
0.512716
0.529247
0.545854
0.562535
0.579289
0.596112
0.613003
0.62996
0.64698
0.664061
0.6812
0.698395
0.715643
0.732941
0.750285
0.76767
0.785094
0.802551
0.820035
0.837543
0.855067
0.872601
0.890137
0.907667
0.925183
0.942675
0.960134
0.977547
0.994903
1.01219
1.02939
1.0465
1.06349
1.08035
1.09707
1.11362
1.12998
1.14614
1.16207
1.17775
1.19315
1.20826
1.22305
1.23748
1.25155
1.2652
1.27843
1.2912
1.30349
1.31525
1.32647
1.33712
1.34717
1.35659
1.36536
1.37345
1.38083
1.38748
1.39339
1.39852
1.40288
1.40644
1.40919
1.41113
1.41226
1.41258
1.4121
1.41083
1.4088
1.40603
1.40255
1.39842
1.3937
1.38844
1.38273
1.37666
1.37036
1.36394
1.35758
1.35145
1.34576
1.34076
1.33671
1.33391
1.33263
1.33279
-0.000180874
2.1625e-06
-0.000999858
-0.00313064
-0.00616646
-0.00993185
-0.0142532
-0.0189598
-0.0238953
-0.0289205
-0.0339132
-0.0387676
-0.0433923
-0.0477096
-0.0516536
-0.0551688
-0.0582096
-0.0607385
-0.0627251
-0.0641461
-0.0649837
-0.0652254
-0.0648633
-0.0638931
-0.0623145
-0.06013
-0.0573448
-0.0539664
-0.0500045
-0.0454702
-0.0403762
-0.0347365
-0.0285659
-0.02188
-0.014695
-0.00702764
0.00110519
0.00968628
0.0186984
0.0281244
0.0379471
0.0481499
0.0587161
0.0696296
0.0808744
0.0924352
0.104297
0.116445
0.128866
0.141546
0.154473
0.167633
0.181016
0.194609
0.208403
0.222388
0.236552
0.250889
0.265389
0.280043
0.294846
0.309789
0.324866
0.340071
0.355398
0.370842
0.386398
0.402062
0.417828
0.433693
0.449654
0.465706
0.481847
0.498073
0.514381
0.530769
0.547234
0.563773
0.580385
0.597065
0.613812
0.630623
0.647495
0.664426
0.681413
0.698452
0.71554
0.732674
0.74985
0.767062
0.784308
0.801581
0.818876
0.836188
0.85351
0.870835
0.888154
0.905461
0.922746
0.94
0.957212
0.974371
0.991465
1.00848
1.02541
1.04223
1.05893
1.07549
1.0919
1.10814
1.12418
1.14002
1.15562
1.17097
1.18604
1.20082
1.21527
1.22937
1.2431
1.25643
1.26934
1.28179
1.29377
1.30524
1.31618
1.32657
1.33637
1.34556
1.35412
1.36202
1.36925
1.37578
1.38159
1.38668
1.39101
1.3946
1.39742
1.39947
1.40077
1.4013
1.40108
1.40014
1.39848
1.39615
1.39318
1.38961
1.3855
1.38092
1.37594
1.37067
1.36519
1.35965
1.35417
1.34892
1.34408
1.33984
1.33639
1.33396
1.33279
1.33295
0.000902894
0.00100562
2.66338e-06
-0.0019802
-0.00472791
-0.00809833
-0.0119513
-0.0161452
-0.0205467
-0.0250344
-0.0294995
-0.0338454
-0.0379881
-0.0418542
-0.0453811
-0.0485153
-0.0512121
-0.0534343
-0.0551514
-0.0563394
-0.0569793
-0.0570575
-0.0565646
-0.0554951
-0.0538466
-0.0516201
-0.0488191
-0.0454494
-0.0415187
-0.0370366
-0.0320139
-0.026463
-0.020397
-0.01383
-0.0067768
0.000747425
0.00872708
0.0171463
0.0259891
0.0352395
0.0448814
0.0548991
0.065277
0.0759997
0.0870522
0.0984199
0.110088
0.122044
0.134272
0.146762
0.1595
0.172473
0.185672
0.199084
0.2127
0.226509
0.240502
0.25467
0.269005
0.283498
0.298143
0.312932
0.327858
0.342915
0.358098
0.3734
0.388818
0.404345
0.419978
0.435712
0.451543
0.467468
0.483482
0.499583
0.515768
0.532033
0.548375
0.564791
0.581279
0.597836
0.614458
0.631143
0.647888
0.664689
0.681544
0.698449
0.7154
0.732393
0.749424
0.766489
0.783582
0.800699
0.817833
0.834978
0.852128
0.869276
0.886413
0.903532
0.920623
0.937676
0.954682
0.971629
0.988505
1.0053
1.02199
1.03858
1.05504
1.07135
1.08751
1.10349
1.11928
1.13485
1.15018
1.16527
1.18007
1.19457
1.20875
1.22259
1.23605
1.24912
1.26177
1.27398
1.28571
1.29695
1.30767
1.31785
1.32746
1.33647
1.34487
1.35264
1.35975
1.36619
1.37194
1.37699
1.38132
1.38493
1.38782
1.38997
1.3914
1.39211
1.39212
1.39143
1.39008
1.38809
1.38551
1.38238
1.37875
1.37468
1.37026
1.36556
1.3607
1.35577
1.3509
1.34624
1.34193
1.33815
1.33504
1.33278
1.33161
1.33167
0.0033469
0.00313957
0.00198375
-4.36726e-06
-0.00264552
-0.00581619
-0.00939656
-0.013266
-0.0173099
-0.0214222
-0.0255061
-0.0294749
-0.0332518
-0.036769
-0.0399679
-0.042798
-0.0452163
-0.0471868
-0.04868
-0.0496716
-0.0501427
-0.050079
-0.0494704
-0.0483102
-0.0465955
-0.0443257
-0.0415031
-0.0381323
-0.0342198
-0.0297736
-0.0248035
-0.0193203
-0.0133358
-0.00686303
8.4613e-05
0.00749304
0.0153478
0.0236341
0.0323371
0.0414417
0.0509328
0.0607955
0.0710151
0.0815768
0.0924664
0.10367
0.115174
0.126964
0.139028
0.151354
0.163928
0.176741
0.18978
0.203035
0.216495
0.230151
0.243994
0.258015
0.272204
0.286555
0.30106
0.315712
0.330504
0.34543
0.360484
0.37566
0.390954
0.406359
0.421872
0.437488
0.453202
0.469011
0.484912
0.5009
0.516972
0.533125
0.549355
0.56566
0.582036
0.59848
0.614989
0.631559
0.648188
0.664873
0.681608
0.698391
0.715218
0.732085
0.748987
0.765918
0.782875
0.799852
0.816842
0.833839
0.850837
0.867828
0.884804
0.901757
0.918677
0.935555
0.952381
0.969143
0.985829
1.00243
1.01892
1.03531
1.05156
1.06766
1.0836
1.09937
1.11493
1.13028
1.14539
1.16024
1.17482
1.1891
1.20305
1.21667
1.22991
1.24276
1.2552
1.2672
1.27874
1.28979
1.30034
1.31034
1.3198
1.32867
1.33695
1.34461
1.35164
1.35801
1.36372
1.36875
1.37308
1.37673
1.37967
1.38192
1.38347
1.38433
1.38452
1.38405
1.38295
1.38125
1.37898
1.37619
1.37293
1.36926
1.36525
1.36099
1.35655
1.35205
1.3476
1.34331
1.33932
1.33576
1.33278
1.33052
1.32917
1.32887
0.00691421
0.0061868
0.00473442
0.00262443
-2.72774e-05
-0.00311477
-0.00653501
-0.0101864
-0.0139712
-0.0177976
-0.021581
-0.0252441
-0.0287176
-0.0319401
-0.0348576
-0.0374228
-0.0395956
-0.0413417
-0.0426327
-0.043445
-0.0437601
-0.0435636
-0.0428449
-0.041597
-0.039816
-0.0375007
-0.0346524
-0.0312745
-0.0273725
-0.0229535
-0.018026
-0.0125997
-0.0066853
-0.000294605
0.00655999
0.0138655
0.0216085
0.0297751
0.0383515
0.0473235
0.0566769
0.0663976
0.0764715
0.0868847
0.0976236
0.108675
0.120025
0.131661
0.143571
0.155743
0.168165
0.180826
0.193714
0.20682
0.220133
0.233644
0.247344
0.261223
0.275274
0.289489
0.30386
0.318381
0.333044
0.347843
0.362772
0.377826
0.392999
0.408286
0.423681
0.439182
0.454783
0.470479
0.486268
0.502145
0.518107
0.53415
0.550271
0.566466
0.582732
0.599065
0.615463
0.631921
0.648437
0.665006
0.681624
0.698289
0.714995
0.731738
0.748513
0.765315
0.78214
0.79898
0.815831
0.832686
0.849537
0.866378
0.883199
0.899993
0.916751
0.933462
0.950116
0.966702
0.983209
0.999624
1.01593
1.03212
1.04818
1.06409
1.07983
1.09539
1.11075
1.12589
1.14079
1.15544
1.16981
1.18388
1.19763
1.21103
1.22408
1.23674
1.24899
1.2608
1.27216
1.28305
1.29343
1.30329
1.31261
1.32137
1.32954
1.33711
1.34407
1.35039
1.35606
1.36108
1.36543
1.36911
1.37211
1.37445
1.37611
1.37711
1.37747
1.3772
1.37632
1.37487
1.37287
1.37038
1.36744
1.3641
1.36044
1.35652
1.35243
1.34825
1.34409
1.34005
1.33625
1.33279
1.32981
1.32741
1.32572
1.32482
0.0113691
0.00998017
0.00811926
0.00578872
0.00302691
-7.68685e-05
-0.00343414
-0.00696051
-0.0105738
-0.0141955
-0.0177521
-0.0211759
-0.0244054
-0.0273853
-0.0300666
-0.0324061
-0.0343666
-0.0359159
-0.0370274
-0.0376787
-0.0378517
-0.0375327
-0.036711
-0.0353793
-0.0335334
-0.0311715
-0.0282943
-0.0249045
-0.0210066
-0.0166068
-0.0117128
-0.00633321
-0.000477934
0.00584229
0.012616
0.0198312
0.0274754
0.0355356
0.0439987
0.0528514
0.0620804
0.0716722
0.0816135
0.091891
0.102492
0.113403
0.124611
0.136106
0.147873
0.159902
0.172182
0.1847
0.197448
0.210414
0.223589
0.236963
0.250527
0.264274
0.278194
0.292279
0.306523
0.320918
0.335458
0.350135
0.364945
0.379881
0.394938
0.41011
0.425394
0.440783
0.456273
0.47186
0.487541
0.50331
0.519165
0.535101
0.551115
0.567203
0.583362
0.599588
0.615877
0.632226
0.648631
0.665088
0.681593
0.698142
0.71473
0.731353
0.748006
0.764684
0.781381
0.798091
0.814808
0.831526
0.848237
0.864934
0.881608
0.898252
0.914855
0.931408
0.947901
0.964322
0.98066
0.996903
1.01304
1.02905
1.04493
1.06065
1.07621
1.09158
1.10675
1.1217
1.13641
1.15087
1.16505
1.17893
1.19249
1.20572
1.21859
1.23107
1.24315
1.2548
1.26601
1.27675
1.28699
1.29673
1.30593
1.31458
1.32267
1.33017
1.33706
1.34334
1.34899
1.35401
1.35838
1.3621
1.36516
1.36758
1.36935
1.37048
1.37099
1.37089
1.37021
1.36898
1.36722
1.36498
1.3623
1.35923
1.35584
1.35219
1.34836
1.34441
1.34045
1.33656
1.33283
1.32936
1.32625
1.32361
1.32146
1.3198
0.0164907
0.0143551
0.0120053
0.00937479
0.00641972
0.00321456
-0.000164468
-0.00364841
-0.0071691
-0.0106602
-0.0140587
-0.017306
-0.020348
-0.0231357
-0.0256252
-0.0277777
-0.029559
-0.0309399
-0.0318953
-0.0324047
-0.032451
-0.0320208
-0.0311042
-0.0296939
-0.0277854
-0.0253769
-0.0224685
-0.0190625
-0.0151628
-0.010775
-0.00590572
-0.000563092
0.00524384
0.0115052
0.0182103
0.0253479
0.0329063
0.0408734
0.0492369
0.0579842
0.0671025
0.0765792
0.0864015
0.0965568
0.107033
0.117817
0.128897
0.140261
0.151898
0.163796
0.175944
0.188332
0.20095
0.213786
0.226833
0.24008
0.253518
0.26714
0.280937
0.294901
0.309025
0.323301
0.337724
0.352287
0.366984
0.381808
0.396754
0.411817
0.426993
0.442275
0.457659
0.473142
0.488718
0.504384
0.520136
0.535969
0.55188
0.567865
0.58392
0.600042
0.616226
0.63247
0.648768
0.665117
0.681513
0.69795
0.714426
0.730934
0.74747
0.764029
0.780604
0.79719
0.81378
0.830368
0.846946
0.863507
0.880043
0.896545
0.913003
0.929409
0.945751
0.962019
0.978201
0.994284
1.01026
1.02611
1.04182
1.05737
1.07276
1.08796
1.10296
1.11774
1.13228
1.14657
1.16058
1.17429
1.18769
1.20075
1.21346
1.22579
1.23772
1.24924
1.26031
1.27092
1.28105
1.29068
1.29979
1.30835
1.31637
1.32381
1.33066
1.33691
1.34255
1.34757
1.35197
1.35573
1.35885
1.36135
1.36322
1.36447
1.36511
1.36516
1.36465
1.3636
1.36204
1.36
1.35753
1.35468
1.3515
1.34805
1.34439
1.3406
1.33674
1.33289
1.32914
1.32556
1.32224
1.31927
1.31657
1.31407
0.0220779
0.01915
0.0162579
0.0132679
0.0100546
0.00667983
0.00320972
-0.000300568
-0.00379547
-0.0072196
-0.0105197
-0.0136455
-0.0165502
-0.019191
-0.0215291
-0.0235299
-0.0251629
-0.0264015
-0.0272231
-0.0276087
-0.0275427
-0.0270127
-0.0260093
-0.0245256
-0.0225574
-0.0201027
-0.0171615
-0.0137359
-0.00982927
-0.00544668
-0.000594375
0.00472023
0.0104887
0.0167019
0.0233497
0.0304216
0.0379067
0.0457934
0.0540702
0.062725
0.0717459
0.0811205
0.0908369
0.100883
0.111247
0.121916
0.13288
0.144127
0.155645
0.167424
0.179452
0.19172
0.204218
0.216935
0.229863
0.242992
0.256313
0.269819
0.283501
0.297351
0.311363
0.325528
0.339842
0.354296
0.368885
0.383603
0.398445
0.413404
0.428477
0.443657
0.458941
0.474323
0.489799
0.505366
0.521018
0.536752
0.552564
0.56845
0.584406
0.600428
0.616511
0.632653
0.648849
0.665094
0.681384
0.697715
0.714083
0.730481
0.746905
0.76335
0.779809
0.796277
0.812747
0.829212
0.845665
0.862098
0.878504
0.894873
0.911196
0.927463
0.943666
0.959791
0.975828
0.991766
1.00759
1.02329
1.03885
1.05425
1.06948
1.08453
1.09938
1.114
1.12839
1.14252
1.15638
1.16995
1.18321
1.19613
1.2087
1.2209
1.2327
1.24409
1.25505
1.26556
1.27559
1.28513
1.29416
1.30266
1.31062
1.31801
1.32484
1.33107
1.33671
1.34174
1.34616
1.34997
1.35315
1.35572
1.35768
1.35904
1.3598
1.35999
1.35962
1.35872
1.35732
1.35545
1.35315
1.35046
1.34743
1.34411
1.34056
1.33684
1.33301
1.32914
1.32529
1.32152
1.31791
1.31454
1.31124
1.30786
0.0279558
0.0242169
0.02075
0.0173584
0.0138379
0.0102402
0.00662331
0.00303038
-0.000494365
-0.00390534
-0.00715811
-0.0102102
-0.0130216
-0.0155556
-0.0177783
-0.0196595
-0.0211721
-0.0222926
-0.0230009
-0.0232798
-0.0231152
-0.022496
-0.0214136
-0.0198618
-0.0178367
-0.0153365
-0.0123614
-0.00891307
-0.00499496
-0.0006117
0.00423083
0.00952566
0.0152649
0.0214398
0.028041
0.0350585
0.0424819
0.0503003
0.0585026
0.0670774
0.0760133
0.0852986
0.0949217
0.104871
0.115135
0.125703
0.136562
0.147703
0.159114
0.170784
0.182704
0.194862
0.20725
0.219858
0.232677
0.245697
0.25891
0.272308
0.285884
0.299628
0.313535
0.327597
0.341807
0.356159
0.370647
0.385266
0.400008
0.414869
0.429844
0.444927
0.460115
0.475401
0.490782
0.506254
0.521811
0.537451
0.553168
0.568958
0.584818
0.600744
0.616731
0.632775
0.648872
0.665018
0.681208
0.697437
0.713701
0.729994
0.746312
0.762648
0.778997
0.795353
0.811709
0.828058
0.844393
0.860706
0.87699
0.893234
0.909432
0.925571
0.941644
0.957638
0.973542
0.989345
1.00503
1.02059
1.03602
1.05128
1.06638
1.08128
1.09599
1.11048
1.12473
1.13873
1.15246
1.1659
1.17903
1.19183
1.20428
1.21636
1.22806
1.23935
1.25022
1.26063
1.27059
1.28006
1.28903
1.29748
1.30539
1.31276
1.31956
1.3258
1.33144
1.33649
1.34095
1.34479
1.34804
1.35068
1.35272
1.35417
1.35504
1.35534
1.35509
1.35432
1.35305
1.35131
1.34913
1.34656
1.34363
1.34039
1.33689
1.33318
1.32932
1.32536
1.32134
1.31733
1.31339
1.30957
1.30563
1.30135
0.0339732
0.029423
0.0253651
0.0215437
0.0176803
0.0138189
0.0100113
0.00629003
0.00268951
-0.000753453
-0.00400238
-0.00702192
-0.0097786
-0.012241
-0.0143804
-0.0161706
-0.0175881
-0.0186125
-0.019226
-0.0194138
-0.0191634
-0.018465
-0.017311
-0.015696
-0.0136169
-0.0110721
-0.00806192
-0.00458831
-0.000654521
0.00373494
0.00857441
0.0138572
0.0195759
0.0257221
0.0322868
0.0392605
0.0466333
0.0543948
0.0625345
0.0710413
0.0799043
0.0891124
0.0986545
0.108519
0.118696
0.129173
0.13994
0.150986
0.162301
0.173874
0.185696
0.197756
0.210044
0.222552
0.235271
0.248192
0.261306
0.274605
0.288082
0.301729
0.315538
0.329503
0.343617
0.357874
0.372268
0.386792
0.401441
0.416209
0.431092
0.446084
0.46118
0.476375
0.491666
0.507047
0.522514
0.538062
0.553689
0.569388
0.585157
0.600991
0.616885
0.632836
0.648839
0.664889
0.680983
0.697115
0.71328
0.729474
0.74569
0.761923
0.778168
0.794418
0.810666
0.826906
0.843131
0.859332
0.875501
0.89163
0.907711
0.923732
0.939684
0.955558
0.97134
0.98702
1.00259
1.01802
1.03332
1.04846
1.06343
1.07822
1.0928
1.10717
1.1213
1.13519
1.1488
1.16213
1.17515
1.18784
1.2002
1.21219
1.2238
1.235
1.24579
1.25614
1.26603
1.27545
1.28437
1.29279
1.30068
1.30803
1.31483
1.32107
1.32673
1.3318
1.33629
1.34019
1.34349
1.3462
1.34832
1.34985
1.35082
1.35122
1.35107
1.3504
1.34923
1.34759
1.3455
1.343
1.34013
1.33692
1.33342
1.32968
1.32573
1.32162
1.3174
1.3131
1.30877
1.30448
1.29989
1.29472
0.0400018
0.0346514
0.0299974
0.0257291
0.0214982
0.0173429
0.0133104
0.00942426
0.0057105
0.00219813
-0.00108352
-0.00410564
-0.0068406
-0.00926221
-0.0113463
-0.0130707
-0.0144156
-0.0153635
-0.0158993
-0.0160101
-0.0156854
-0.0149169
-0.0136981
-0.0120246
-0.00989394
-0.00730518
-0.00425902
-0.00075752
0.00319595
0.00759685
0.0124396
0.0177179
0.0234242
0.0295507
0.0360886
0.0430288
0.0503618
0.0580776
0.066166
0.0746165
0.0834184
0.0925612
0.102034
0.111826
0.121927
0.132326
0.143012
0.153975
0.165205
0.176692
0.188426
0.200397
0.212596
0.225015
0.237643
0.250474
0.263497
0.276706
0.290093
0.303649
0.317369
0.331245
0.34527
0.359438
0.373744
0.38818
0.402741
0.417423
0.432219
0.447124
0.462134
0.477244
0.492448
0.507743
0.523124
0.538587
0.554126
0.569739
0.585421
0.601167
0.616973
0.632835
0.648748
0.664708
0.68071
0.696749
0.71282
0.728919
0.745039
0.761176
0.777322
0.793472
0.809619
0.825757
0.841878
0.857974
0.874038
0.89006
0.906032
0.921944
0.937787
0.953549
0.96922
0.984789
1.00024
1.01557
1.03075
1.04578
1.06065
1.07532
1.0898
1.10406
1.1181
1.13188
1.14539
1.15863
1.17156
1.18417
1.19644
1.20835
1.21989
1.23103
1.24176
1.25206
1.26191
1.27129
1.28019
1.28858
1.29646
1.30381
1.31061
1.31686
1.32255
1.32766
1.33219
1.33614
1.3395
1.34227
1.34446
1.34608
1.34712
1.3476
1.34754
1.34695
1.34586
1.34429
1.34225
1.3398
1.33694
1.33373
1.33019
1.32637
1.32229
1.318
1.31353
1.3089
1.30418
1.29939
1.29415
1.28811
0.0459309
0.0397989
0.0345517
0.0298279
0.0252134
0.0207426
0.0164595
0.0123801
0.00852303
0.00491065
0.00156595
-0.00148822
-0.00422953
-0.00663665
-0.0086897
-0.0103704
-0.0116624
-0.0125511
-0.013024
-0.0130704
-0.0126817
-0.0118511
-0.0105734
-0.00884544
-0.00666542
-0.00403314
-0.000949786
0.00258223
0.00655929
0.0109768
0.0158291
0.0211099
0.026812
0.0329276
0.0394481
0.0463648
0.0536684
0.0613492
0.0693974
0.0778028
0.0865553
0.0956443
0.10506
0.114791
0.124827
0.135159
0.145775
0.156667
0.167823
0.179234
0.190891
0.202784
0.214904
0.227243
0.239791
0.25254
0.265481
0.278608
0.291913
0.305387
0.319025
0.332819
0.346762
0.360849
0.375072
0.389427
0.403908
0.418508
0.433223
0.448047
0.462976
0.478004
0.493128
0.508341
0.523641
0.539022
0.55448
0.57001
0.585609
0.601271
0.616994
0.632771
0.648598
0.664472
0.680387
0.696339
0.712322
0.728331
0.74436
0.760405
0.776458
0.792515
0.808568
0.82461
0.840634
0.856633
0.872598
0.888521
0.904394
0.920206
0.935949
0.951611
0.967181
0.98265
0.998003
1.01323
1.02832
1.04325
1.05802
1.0726
1.08698
1.10116
1.1151
1.1288
1.14223
1.15539
1.16825
1.18079
1.193
1.20485
1.21634
1.22743
1.23812
1.24838
1.2582
1.26756
1.27645
1.28484
1.29272
1.30008
1.3069
1.31318
1.3189
1.32405
1.32863
1.33263
1.33605
1.33889
1.34114
1.34283
1.34394
1.3445
1.34451
1.34398
1.34294
1.34141
1.33941
1.33697
1.33411
1.33085
1.32724
1.3233
1.31907
1.31456
1.30981
1.30484
1.29969
1.29441
1.28852
1.28163
0.0516651
0.0447743
0.0389427
0.0337608
0.0287535
0.0239526
0.0194002
0.0151059
0.011082
0.00734504
0.00391247
0.000801893
-0.00196925
-0.00438409
-0.00642678
-0.00808271
-0.00933875
-0.0101832
-0.010606
-0.0105989
-0.010155
-0.00926916
-0.0079377
-0.00615846
-0.00393067
-0.0012549
0.00186711
0.00543244
0.00943715
0.0138764
0.0187445
0.024035
0.0297407
0.0358539
0.0423663
0.0492692
0.0565535
0.0642099
0.0722288
0.0806003
0.0893145
0.0983612
0.10773
0.117412
0.127395
0.137671
0.14823
0.15906
0.170153
0.1815
0.19309
0.204915
0.216966
0.229234
0.241711
0.254388
0.267257
0.28031
0.293541
0.306941
0.320505
0.334224
0.348092
0.362104
0.376253
0.390532
0.404937
0.419462
0.434102
0.44885
0.463703
0.478656
0.493703
0.508841
0.524063
0.539367
0.554747
0.5702
0.58572
0.601304
0.616947
0.632644
0.648391
0.664183
0.680016
0.695884
0.711783
0.727707
0.743652
0.75961
0.775577
0.791546
0.80751
0.823463
0.839398
0.855307
0.871182
0.887014
0.902796
0.918517
0.934168
0.949739
0.96522
0.980598
0.995863
1.011
1.026
1.04085
1.05553
1.07004
1.08435
1.09844
1.11231
1.12594
1.13931
1.15241
1.16521
1.1777
1.18986
1.20167
1.21312
1.22419
1.23485
1.2451
1.2549
1.26426
1.27315
1.28154
1.28944
1.29682
1.30368
1.30999
1.31575
1.32095
1.32558
1.32964
1.33312
1.33603
1.33835
1.3401
1.34128
1.3419
1.34196
1.34149
1.34049
1.33898
1.33699
1.33454
1.33164
1.32832
1.32461
1.32053
1.3161
1.31136
1.30631
1.30097
1.2954
1.28962
1.2831
1.27539
0.0571218
0.0494972
0.0430935
0.0374558
0.0320517
0.0269118
0.022077
0.0175519
0.0133432
0.0094623
0.00592199
0.00273518
-8.50996e-05
-0.00252608
-0.00457566
-0.00622263
-0.00745694
-0.00826973
-0.00865345
-0.0086019
-0.00811018
-0.00717482
-0.00579356
-0.00396545
-0.0016908
0.00102903
0.00419157
0.00779333
0.01183
0.0162963
0.0211864
0.0264937
0.0322108
0.0383302
0.0448436
0.0517424
0.0590176
0.0666601
0.0746604
0.0830089
0.0916958
0.100711
0.110046
0.119689
0.129631
0.139862
0.150373
0.161154
0.172195
0.183487
0.195022
0.206789
0.21878
0.230988
0.243402
0.256016
0.268821
0.28181
0.294975
0.308309
0.321806
0.335458
0.349259
0.363202
0.377283
0.391494
0.40583
0.420285
0.434855
0.449533
0.464316
0.479198
0.494174
0.50924
0.52439
0.539622
0.554929
0.570308
0.585755
0.601264
0.616832
0.632453
0.648124
0.663839
0.679594
0.695384
0.711204
0.727049
0.742914
0.758791
0.774677
0.790564
0.806446
0.822317
0.838169
0.853995
0.869786
0.885536
0.901235
0.916874
0.932443
0.947933
0.963333
0.978633
0.99382
1.00888
1.02381
1.03859
1.0532
1.06763
1.08188
1.09591
1.10973
1.1233
1.13662
1.14967
1.16243
1.17488
1.18701
1.1988
1.21023
1.22128
1.23194
1.24218
1.252
1.26136
1.27027
1.27869
1.28662
1.29403
1.30093
1.30729
1.3131
1.31836
1.32305
1.32717
1.33072
1.33369
1.33608
1.33789
1.33913
1.3398
1.33991
1.33948
1.3385
1.33701
1.33501
1.33252
1.32956
1.32616
1.32232
1.31808
1.31345
1.30845
1.30309
1.29738
1.29137
1.2851
1.27797
1.26948
0.0622288
0.0538964
0.0469349
0.0408471
0.0350464
0.0295629
0.0244374
0.0196702
0.0152633
0.0112238
0.0075603
0.00428152
0.00139658
-0.00108547
-0.003156
-0.00480705
-0.00603136
-0.00682282
-0.00717628
-0.00708768
-0.00655403
-0.00557348
-0.00414529
-0.0022698
5.16544e-05
0.00281675
0.00602224
0.00966399
0.0137371
0.0182361
0.0231547
0.028486
0.0342226
0.0403568
0.0468804
0.0537846
0.0610607
0.0686996
0.076692
0.0850283
0.0936991
0.102695
0.112005
0.121621
0.131533
0.141731
0.152205
0.162947
0.173947
0.185196
0.196684
0.208404
0.220346
0.232502
0.244864
0.257424
0.270174
0.283106
0.296214
0.30949
0.322928
0.33652
0.350261
0.364143
0.378162
0.39231
0.406583
0.420975
0.435481
0.450095
0.464813
0.479629
0.494539
0.509538
0.524622
0.539785
0.555025
0.570335
0.585712
0.601151
0.616648
0.632198
0.647797
0.66344
0.679123
0.694839
0.710586
0.726356
0.742145
0.757948
0.773757
0.789569
0.805375
0.82117
0.836945
0.852695
0.868411
0.884085
0.899709
0.915274
0.930771
0.946189
0.961518
0.976749
0.991869
1.00687
1.02173
1.03645
1.051
1.06538
1.07957
1.09356
1.10733
1.12087
1.13415
1.14717
1.15991
1.17234
1.18445
1.19623
1.20766
1.21871
1.22938
1.23964
1.24947
1.25886
1.2678
1.27626
1.28423
1.2917
1.29865
1.30506
1.31094
1.31626
1.32102
1.32521
1.32882
1.33186
1.33432
1.33619
1.33749
1.33821
1.33836
1.33796
1.337
1.3355
1.33348
1.33094
1.32791
1.3244
1.32043
1.31601
1.31116
1.30589
1.30021
1.29413
1.28769
1.28093
1.2732
1.26395
0.0669226
0.0579083
0.0504048
0.0438748
0.0376806
0.0318525
0.0264318
0.0214151
0.0168006
0.0125918
0.00879334
0.00541047
0.00244876
-8.61352e-05
-0.00218875
-0.00385409
-0.00507775
-0.00585605
-0.00618617
-0.00606611
-0.00549481
-0.00447208
-0.00299866
-0.00107619
0.00129287
0.00410519
0.00735668
0.0110425
0.0151573
0.0196949
0.0246486
0.0300115
0.0357758
0.0419335
0.0484765
0.0553959
0.062683
0.0703287
0.0783238
0.0866589
0.0953244
0.104311
0.113609
0.123209
0.133102
0.143277
0.153726
0.16444
0.175409
0.186624
0.198077
0.209759
0.221662
0.233776
0.246095
0.25861
0.271314
0.284199
0.297258
0.310484
0.32387
0.33741
0.351097
0.364925
0.378889
0.392982
0.407198
0.421533
0.43598
0.450536
0.465194
0.47995
0.494799
0.509736
0.524757
0.539858
0.555034
0.57028
0.585592
0.600966
0.616396
0.63188
0.647412
0.662987
0.678601
0.694249
0.709926
0.725627
0.741346
0.757079
0.772818
0.788559
0.804296
0.82002
0.835726
0.851407
0.867054
0.882661
0.898218
0.913717
0.929149
0.944504
0.959772
0.974944
0.990006
1.00495
1.01976
1.03443
1.04894
1.06328
1.07743
1.09138
1.10512
1.11864
1.1319
1.1449
1.15763
1.17006
1.18217
1.19396
1.20539
1.21647
1.22716
1.23744
1.24731
1.25675
1.26573
1.27424
1.28227
1.2898
1.29682
1.3033
1.30925
1.31465
1.31948
1.32375
1.32744
1.33055
1.33307
1.33501
1.33636
1.33713
1.33732
1.33694
1.33599
1.33448
1.33242
1.32982
1.32671
1.32308
1.31896
1.31435
1.30927
1.30372
1.29772
1.29126
1.2844
1.27716
1.26886
1.25889
0.0711468
0.0614759
0.0534469
0.0464842
0.0399018
0.0337306
0.0280131
0.0227428
0.0179147
0.0135291
0.00958735
0.0060915
0.00304397
0.000447365
-0.00169578
-0.00338319
-0.00461313
-0.00538429
-0.00569605
-0.00554843
-0.0049422
-0.00387887
-0.00236067
-0.000390523
0.00202791
0.00489025
0.00819155
0.0119263
0.0160883
0.0206709
0.025667
0.0310692
0.0368696
0.04306
0.0496317
0.0565762
0.0638845
0.0715475
0.079556
0.0879007
0.0965721
0.105561
0.114857
0.124453
0.134337
0.144501
0.154936
0.165632
0.176581
0.187773
0.199201
0.210855
0.222728
0.234811
0.247096
0.259575
0.272241
0.285087
0.298105
0.311289
0.324632
0.338127
0.351768
0.365549
0.379465
0.393508
0.407674
0.421957
0.436352
0.450855
0.465458
0.480159
0.494953
0.509833
0.524797
0.53984
0.554957
0.570143
0.585395
0.600707
0.616077
0.631498
0.646967
0.662479
0.678029
0.693613
0.709226
0.724862
0.740517
0.756184
0.771859
0.787536
0.803207
0.818868
0.834511
0.850129
0.865714
0.88126
0.896758
0.912199
0.927575
0.942876
0.958092
0.973213
0.988229
1.00313
1.0179
1.03253
1.047
1.06131
1.07544
1.08937
1.1031
1.1166
1.12985
1.14285
1.15558
1.16802
1.18015
1.19196
1.20343
1.21453
1.22526
1.2356
1.24552
1.25501
1.26405
1.27263
1.28074
1.28834
1.29543
1.302
1.30803
1.31351
1.31844
1.32279
1.32656
1.32974
1.33234
1.33435
1.33576
1.33657
1.33679
1.33643
1.33548
1.33395
1.33185
1.32919
1.32598
1.32223
1.31795
1.31314
1.30783
1.302
1.29568
1.28885
1.28156
1.27386
1.265
1.25434
0.0748511
0.064548
0.0560099
0.0486249
0.041661
0.0351505
0.0291369
0.0236115
0.0185666
0.0139995
0.00990891
0.00629403
0.0031544
0.000489873
-0.00169971
-0.00341468
-0.00465564
-0.00542362
-0.00572006
-0.00554704
-0.00490707
-0.0038033
-0.00223945
-0.000219784
0.00225082
0.00516694
0.00852272
0.0123118
0.0165273
0.0211619
0.0262081
0.031658
0.0375033
0.0437355
0.0503458
0.0573255
0.0646653
0.0723563
0.080389
0.0887543
0.0974426
0.106445
0.115751
0.125352
0.13524
0.145403
0.155835
0.166524
0.177464
0.188644
0.200056
0.211693
0.223546
0.235606
0.247866
0.260319
0.272956
0.285772
0.298758
0.311907
0.325214
0.338672
0.352274
0.366015
0.379889
0.393889
0.408011
0.422249
0.436598
0.451053
0.465608
0.480259
0.495002
0.509831
0.524742
0.539731
0.554794
0.569925
0.585121
0.600377
0.615689
0.631052
0.646463
0.661916
0.677407
0.692932
0.708485
0.724061
0.739656
0.755264
0.770879
0.786496
0.802109
0.817712
0.833298
0.848859
0.86439
0.879882
0.895328
0.910719
0.926046
0.941301
0.956474
0.971555
0.986533
1.0014
1.01614
1.03074
1.04519
1.05948
1.0736
1.08752
1.10124
1.11474
1.12801
1.14102
1.15377
1.16623
1.17839
1.19024
1.20175
1.2129
1.22369
1.23408
1.24407
1.25364
1.26276
1.27142
1.27961
1.2873
1.29449
1.30115
1.30728
1.31286
1.31787
1.32232
1.32618
1.32945
1.33212
1.3342
1.33567
1.33653
1.33679
1.33644
1.33549
1.33394
1.3318
1.32907
1.32576
1.32188
1.31743
1.31243
1.30687
1.30077
1.29412
1.28692
1.27923
1.27108
1.26168
1.25035
0.0779901
0.0670777
0.0580467
0.0502502
0.0429126
0.0360678
0.0297609
0.0239812
0.0187183
0.0139675
0.00972511
0.0059876
0.00275207
1.57979e-05
-0.00222381
-0.00396953
-0.00522418
-0.00599097
-0.00627339
-0.00607537
-0.00540124
-0.00425573
-0.00264403
-0.000571797
0.00195489
0.0049296
0.00834543
0.0121951
0.0164711
0.0211654
0.02627
0.0317763
0.0376758
0.0439595
0.0506185
0.0576436
0.0650257
0.0727555
0.0808235
0.0892205
0.097937
0.106964
0.116291
0.12591
0.135811
0.145985
0.156424
0.167118
0.178058
0.189237
0.200644
0.212273
0.224116
0.236163
0.248408
0.260843
0.273461
0.286254
0.299216
0.312339
0.325618
0.339046
0.352617
0.366325
0.380163
0.394127
0.408211
0.42241
0.436718
0.45113
0.465642
0.480249
0.494946
0.509729
0.524593
0.539533
0.554546
0.569626
0.584771
0.599975
0.615234
0.630544
0.645901
0.6613
0.676736
0.692206
0.707703
0.723225
0.738765
0.754318
0.769878
0.785442
0.801001
0.816552
0.832086
0.847598
0.86308
0.878525
0.893926
0.909274
0.924561
0.939778
0.954916
0.969965
0.984915
0.999754
1.01447
1.02906
1.0435
1.05778
1.0719
1.08582
1.09955
1.11307
1.12635
1.13939
1.15217
1.16467
1.17688
1.18878
1.20035
1.21157
1.22242
1.23289
1.24297
1.25262
1.26183
1.27059
1.27888
1.28668
1.29397
1.30074
1.30698
1.31267
1.31779
1.32234
1.3263
1.32966
1.33242
1.33457
1.33611
1.33703
1.33732
1.33699
1.33604
1.33447
1.33228
1.32948
1.32607
1.32206
1.31745
1.31224
1.30644
1.30006
1.29309
1.28553
1.27744
1.26885
1.25893
1.24697
0.0805225
0.0690222
0.0595137
0.0513167
0.0436139
0.036441
0.0298449
0.023813
0.0183332
0.0133986
0.00900346
0.00514199
0.00180898
-0.00100065
-0.00329178
-0.00506933
-0.00633834
-0.00710402
-0.00737189
-0.00714762
-0.0064373
-0.00524725
-0.00358416
-0.00145503
0.00113288
0.00417199
0.0076544
0.0115719
0.0159162
0.0206786
0.0258504
0.0314225
0.0373859
0.0437313
0.0504494
0.0575308
0.0649661
0.0727458
0.0808604
0.0893004
0.0980565
0.107119
0.116479
0.126127
0.136053
0.146249
0.156706
0.167415
0.178367
0.189554
0.200967
0.212598
0.22444
0.236484
0.248723
0.26115
0.273756
0.286536
0.299481
0.312587
0.325845
0.339251
0.352797
0.366478
0.380289
0.394223
0.408275
0.42244
0.436714
0.45109
0.465564
0.480132
0.494788
0.509529
0.52435
0.539246
0.554214
0.569249
0.584346
0.599503
0.614713
0.629974
0.645281
0.66063
0.676016
0.691435
0.706882
0.722353
0.737842
0.753345
0.768857
0.784371
0.799883
0.815386
0.830875
0.846342
0.861782
0.877187
0.892549
0.907862
0.923116
0.938303
0.953414
0.968439
0.98337
0.998194
1.0129
1.02748
1.04192
1.05621
1.07033
1.08427
1.09802
1.11156
1.12488
1.13796
1.15079
1.16334
1.17561
1.18758
1.19922
1.21052
1.22146
1.23202
1.24219
1.25195
1.26127
1.27014
1.27855
1.28647
1.29388
1.30078
1.30713
1.31294
1.31818
1.32285
1.32692
1.33039
1.33324
1.33548
1.33709
1.33806
1.3384
1.33809
1.33714
1.33555
1.33332
1.33045
1.32694
1.32279
1.31802
1.31261
1.30658
1.29992
1.29264
1.28472
1.27623
1.26722
1.25679
1.24422
0.0824103
0.0703418
0.0603703
0.0517837
0.0437246
0.0362303
0.0293501
0.0230698
0.0173756
0.0122589
0.00771199
0.00372715
0.000297021
-0.00258554
-0.00492764
-0.00673619
-0.0080183
-0.00878115
-0.00903209
-0.00877865
-0.00802854
-0.00678968
-0.00507023
-0.00287853
-0.000223081
0.00288739
0.00644392
0.0104374
0.0148587
0.0196984
0.024947
0.030595
0.0366327
0.0430505
0.0498387
0.0569875
0.0644873
0.0723284
0.0805011
0.0889958
0.097803