/*--------------------------------*- C++ -*----------------------------------*\
  =========                 |
  \\      /  F ield         | OpenFOAM: The Open Source CFD Toolbox
   \\    /   O peration     | Website:  https://openfoam.org
    \\  /    A nd           | Version:  7
     \\/     M anipulation  |
\*---------------------------------------------------------------------------*/
FoamFile
{
    version     2.0;
    format      ascii;
    class       surfaceScalarField;
    location    "0.075";
    object      phi;
}
// * * * * * * * * * * * * * * * * * * * * * * * * * * * * * * * * * * * * * //

dimensions      [0 3 -1 0 0 0 0];

internalField   nonuniform List<scalar> 
25360
(
1.1415e-10
-1.14189e-10
3.59149e-10
-2.44994e-10
6.03534e-10
-2.44381e-10
7.642e-10
-1.60671e-10
7.9703e-10
-3.28371e-11
6.80245e-10
1.16787e-10
4.05208e-10
2.75037e-10
-2.87418e-11
4.33955e-10
-6.17478e-10
5.88739e-10
-1.35398e-09
7.36506e-10
-2.2295e-09
8.75514e-10
-3.23426e-09
1.00476e-09
-4.35796e-09
1.1237e-09
-5.59009e-09
1.23213e-09
-6.92013e-09
1.33004e-09
-8.33772e-09
1.41759e-09
-9.83277e-09
1.49505e-09
-1.13955e-08
1.56272e-09
-1.30165e-08
1.62102e-09
-1.46869e-08
1.67036e-09
-1.63981e-08
1.71119e-09
-1.81421e-08
1.74398e-09
-1.99113e-08
1.7692e-09
-2.16986e-08
1.78733e-09
-2.34974e-08
1.79882e-09
-2.53016e-08
1.80416e-09
-2.71054e-08
1.80381e-09
-2.89036e-08
1.79821e-09
-3.06914e-08
1.78781e-09
-3.24644e-08
1.77302e-09
-3.42187e-08
1.75425e-09
-3.59506e-08
1.7319e-09
-3.76569e-08
1.70634e-09
-3.93348e-08
1.67792e-09
-4.09818e-08
1.64699e-09
-4.25957e-08
1.61385e-09
-4.41745e-08
1.57883e-09
-4.57167e-08
1.54219e-09
-4.72209e-08
1.50421e-09
-4.8686e-08
1.46513e-09
-5.01112e-08
1.42518e-09
-5.14958e-08
1.38457e-09
-5.28392e-08
1.34349e-09
-5.41414e-08
1.30212e-09
-5.5402e-08
1.26064e-09
-5.66212e-08
1.21919e-09
-5.77991e-08
1.1779e-09
-5.8936e-08
1.13688e-09
-6.00322e-08
1.09625e-09
-6.10883e-08
1.05609e-09
-6.21048e-08
1.0165e-09
-6.30824e-08
9.77533e-10
-6.40216e-08
9.39258e-10
-6.49233e-08
9.01714e-10
-6.57883e-08
8.64939e-10
-6.66172e-08
8.28965e-10
-6.7411e-08
7.93813e-10
-6.81705e-08
7.59497e-10
-6.88966e-08
7.26022e-10
-6.95899e-08
6.93386e-10
-7.02515e-08
6.61579e-10
-7.08821e-08
6.30585e-10
-7.14825e-08
6.00382e-10
-7.20534e-08
5.70947e-10
-7.25957e-08
5.42248e-10
-7.31099e-08
5.14251e-10
-7.35968e-08
4.86916e-10
-7.4057e-08
4.60198e-10
-7.44911e-08
4.3405e-10
-7.48995e-08
4.0842e-10
-7.52828e-08
3.83258e-10
-7.56413e-08
3.58505e-10
-7.59754e-08
3.34103e-10
-7.62854e-08
3.09989e-10
-7.65715e-08
2.86103e-10
-7.68338e-08
2.6238e-10
-7.70726e-08
2.38749e-10
-7.72877e-08
2.15137e-10
-7.74792e-08
1.91474e-10
-7.76469e-08
1.6769e-10
-7.77906e-08
1.43714e-10
-7.79101e-08
1.19472e-10
-7.8005e-08
9.48911e-11
-7.80749e-08
6.98936e-11
-7.81193e-08
4.44051e-11
-7.81376e-08
1.83515e-11
-7.81293e-08
-8.34091e-12
-7.80935e-08
-3.57433e-11
-7.80296e-08
-6.39256e-11
-7.79367e-08
-9.29595e-11
-7.78137e-08
-1.22915e-10
-7.76599e-08
-1.5386e-10
-7.7474e-08
-1.85857e-10
-7.72551e-08
-2.18966e-10
-7.70018e-08
-2.53244e-10
-7.67131e-08
-2.88745e-10
-7.63875e-08
-3.25519e-10
-7.60239e-08
-3.63609e-10
-7.56209e-08
-4.03056e-10
-7.5177e-08
-4.4389e-10
-7.46909e-08
-4.86135e-10
-7.41611e-08
-5.29809e-10
-7.35861e-08
-5.74919e-10
-7.29647e-08
-6.21463e-10
-7.22952e-08
-6.6943e-10
-7.15764e-08
-7.18799e-10
-7.08069e-08
-7.69535e-10
-6.99853e-08
-8.2159e-10
-6.91104e-08
-8.74903e-10
-6.8181e-08
-9.29397e-10
-6.7196e-08
-9.84981e-10
-6.61545e-08
-1.04155e-09
-6.50555e-08
-1.09898e-09
-6.38984e-08
-1.15713e-09
-6.26825e-08
-1.21584e-09
-6.14076e-08
-1.27493e-09
-6.00734e-08
-1.33419e-09
-5.868e-08
-1.39342e-09
-5.72276e-08
-1.45237e-09
-5.57168e-08
-1.51078e-09
-5.41485e-08
-1.56836e-09
-5.25237e-08
-1.6248e-09
-5.08439e-08
-1.6798e-09
-4.91109e-08
-1.73299e-09
-4.73269e-08
-1.78401e-09
-4.54944e-08
-1.83247e-09
-4.36164e-08
-1.87797e-09
-4.16963e-08
-1.92008e-09
-3.9738e-08
-1.95835e-09
-3.77457e-08
-1.99234e-09
-3.57241e-08
-2.02155e-09
-3.36786e-08
-2.04552e-09
-3.16149e-08
-2.06374e-09
-2.95392e-08
-2.0757e-09
-2.74583e-08
-2.08089e-09
-2.53795e-08
-2.0788e-09
-2.33105e-08
-2.06892e-09
-2.12598e-08
-2.05073e-09
-1.92361e-08
-2.02372e-09
-1.72487e-08
-1.9874e-09
-1.53074e-08
-1.94129e-09
-1.34224e-08
-1.88493e-09
-1.16046e-08
-1.81789e-09
-9.86478e-09
-1.73978e-09
-8.21453e-09
-1.65025e-09
-6.66552e-09
-1.54901e-09
-5.22965e-09
-1.43587e-09
-3.9189e-09
-1.31075e-09
-2.74519e-09
-1.17372e-09
-1.72009e-09
-1.02509e-09
-8.54581e-10
-8.65506e-10
-1.58482e-10
-6.96093e-10
3.6029e-10
-5.18771e-10
6.96991e-10
-3.36701e-10
8.52113e-10
-1.55121e-10
8.34881e-10
1.72345e-11
6.69087e-10
1.65797e-10
4.03437e-10
2.65653e-10
1.3065e-10
2.72789e-10
1.3065e-10
2.45139e-10
-3.59339e-10
6.33236e-10
-6.33089e-10
9.48829e-10
-5.59971e-10
1.04527e-09
-2.57109e-10
8.26756e-10
1.85681e-10
2.36824e-10
7.06723e-10
-7.52881e-10
1.26474e-09
-2.15138e-09
1.83245e-09
-3.95454e-09
2.39191e-09
-6.14941e-09
2.93137e-09
-8.71711e-09
3.44322e-09
-1.1635e-08
3.92262e-09
-1.48779e-08
4.36665e-09
-1.84195e-08
4.77374e-09
-2.22327e-08
5.14325e-09
-2.62904e-08
5.47527e-09
-3.05657e-08
5.77033e-09
-3.50323e-08
6.02936e-09
-3.96648e-08
6.25355e-09
-4.44387e-08
6.44425e-09
-4.93305e-08
6.603e-09
-5.43179e-08
6.73139e-09
-5.93798e-08
6.83109e-09
-6.44963e-08
6.9038e-09
-6.96487e-08
6.95124e-09
-7.48197e-08
6.97511e-09
-7.9993e-08
6.97711e-09
-8.51537e-08
6.95892e-09
-9.0288e-08
6.92215e-09
-9.53834e-08
6.8684e-09
-1.00428e-07
6.79919e-09
-1.05412e-07
6.71601e-09
-1.10326e-07
6.62027e-09
-1.15162e-07
6.51333e-09
-1.19911e-07
6.39648e-09
-1.24568e-07
6.27094e-09
-1.29127e-07
6.13788e-09
-1.33584e-07
5.99837e-09
-1.37933e-07
5.85344e-09
-1.42172e-07
5.70404e-09
-1.46298e-07
5.55106e-09
-1.50308e-07
5.39532e-09
-1.54202e-07
5.23758e-09
-1.57979e-07
5.07853e-09
-1.61637e-07
4.91881e-09
-1.65177e-07
4.75901e-09
-1.68599e-07
4.59963e-09
-1.71903e-07
4.44116e-09
-1.75091e-07
4.284e-09
-1.78163e-07
4.12853e-09
-1.81122e-07
3.97506e-09
-1.83968e-07
3.82387e-09
-1.86704e-07
3.67519e-09
-1.89331e-07
3.52922e-09
-1.91853e-07
3.38612e-09
-1.9427e-07
3.24601e-09
-1.96585e-07
3.10896e-09
-1.988e-07
2.97504e-09
-2.00919e-07
2.84427e-09
-2.02942e-07
2.71665e-09
-2.04872e-07
2.59215e-09
-2.06713e-07
2.47072e-09
-2.08464e-07
2.35229e-09
-2.1013e-07
2.23676e-09
-2.11712e-07
2.12401e-09
-2.13212e-07
2.01393e-09
-2.14631e-07
1.90634e-09
-2.15972e-07
1.8011e-09
-2.17236e-07
1.69802e-09
-2.18424e-07
1.59691e-09
-2.19539e-07
1.49756e-09
-2.2058e-07
1.39977e-09
-2.21549e-07
1.3033e-09
-2.22447e-07
1.20792e-09
-2.23274e-07
1.11339e-09
-2.24032e-07
1.01946e-09
-2.24719e-07
9.25864e-10
-2.25336e-07
8.32336e-10
-2.25883e-07
7.38605e-10
-2.2636e-07
6.44396e-10
-2.26765e-07
5.49433e-10
-2.27099e-07
4.53435e-10
-2.27361e-07
3.5612e-10
-2.27548e-07
2.57203e-10
-2.2766e-07
1.564e-10
-2.27695e-07
5.34281e-11
-2.27651e-07
-5.19921e-11
-2.27527e-07
-1.60139e-10
-2.2732e-07
-2.71283e-10
-2.27027e-07
-3.85692e-10
-2.26646e-07
-5.03624e-10
-2.26175e-07
-6.25331e-10
-2.25609e-07
-7.51053e-10
-2.24947e-07
-8.8102e-10
-2.24185e-07
-1.01545e-09
-2.23319e-07
-1.15453e-09
-2.22346e-07
-1.29845e-09
-2.21263e-07
-1.44738e-09
-2.20064e-07
-1.60144e-09
-2.18747e-07
-1.76076e-09
-2.17308e-07
-1.92541e-09
-2.15743e-07
-2.09545e-09
-2.14047e-07
-2.2709e-09
-2.12216e-07
-2.45175e-09
-2.10248e-07
-2.63793e-09
-2.08137e-07
-2.82936e-09
-2.05881e-07
-3.02588e-09
-2.03475e-07
-3.2273e-09
-2.00917e-07
-3.43338e-09
-1.98202e-07
-3.64382e-09
-1.95329e-07
-3.85824e-09
-1.92294e-07
-4.07624e-09
-1.89096e-07
-4.29733e-09
-1.85732e-07
-4.52095e-09
-1.82202e-07
-4.74647e-09
-1.78503e-07
-4.97321e-09
-1.74637e-07
-5.20038e-09
-1.70603e-07
-5.42714e-09
-1.66403e-07
-5.65256e-09
-1.62038e-07
-5.87562e-09
-1.57511e-07
-6.09524e-09
-1.52826e-07
-6.31025e-09
-1.47986e-07
-6.5194e-09
-1.42998e-07
-6.72137e-09
-1.37867e-07
-6.91476e-09
-1.32602e-07
-7.09807e-09
-1.2721e-07
-7.26978e-09
-1.21702e-07
-7.42826e-09
-1.16088e-07
-7.57183e-09
-1.10382e-07
-7.69877e-09
-1.04596e-07
-7.80728e-09
-9.8746e-08
-7.89554e-09
-9.28481e-08
-7.96168e-09
-8.692e-08
-8.00382e-09
-8.09808e-08
-8.02005e-09
-7.50511e-08
-8.00848e-09
-6.91529e-08
-7.96719e-09
-6.33093e-08
-7.89433e-09
-5.75449e-08
-7.78807e-09
-5.18857e-08
-7.64662e-09
-4.63587e-08
-7.46831e-09
-4.09921e-08
-7.25157e-09
-3.5815e-08
-6.99494e-09
-3.08576e-08
-6.69718e-09
-2.61506e-08
-6.35728e-09
-2.17251e-08
-5.97453e-09
-1.76123e-08
-5.54862e-09
-1.38433e-08
-5.0798e-09
-1.04479e-08
-4.56904e-09
-7.45471e-09
-4.01833e-09
-4.88912e-09
-3.43109e-09
-2.77244e-09
-2.81277e-09
-1.11936e-09
-2.17185e-09
6.52275e-11
-1.52128e-09
7.90929e-10
-8.80821e-10
1.08877e-09
-2.8061e-10
1.0211e-09
2.33474e-10
6.94384e-10
5.92366e-10
2.72796e-10
6.94376e-10
4.03446e-10
2.45511e-10
-6.04848e-10
5.62736e-10
-9.50312e-10
6.96716e-10
-6.93953e-10
4.7355e-10
-3.39381e-11
-2.264e-10
8.85629e-10
-1.47898e-09
1.9593e-09
-3.32605e-09
3.11181e-09
-5.78414e-09
4.29054e-09
-8.85128e-09
5.45904e-09
-1.25121e-08
6.59223e-09
-1.6742e-08
7.67304e-09
-2.15095e-08
8.69013e-09
-2.6779e-08
9.63619e-09
-3.25122e-08
1.05069e-08
-3.8669e-08
1.13001e-08
-4.52089e-08
1.20151e-08
-5.20912e-08
1.26526e-08
-5.92758e-08
1.3214e-08
-6.67237e-08
1.37015e-08
-7.4397e-08
1.41175e-08
-8.22591e-08
1.44651e-08
-9.02753e-08
1.47476e-08
-9.84124e-08
1.49682e-08
-1.06639e-07
1.51305e-08
-1.14926e-07
1.5238e-08
-1.23245e-07
1.52944e-08
-1.31571e-07
1.53031e-08
-1.3988e-07
1.52679e-08
-1.4815e-07
1.5192e-08
-1.5636e-07
1.50789e-08
-1.64493e-07
1.49319e-08
-1.72531e-07
1.47542e-08
-1.8046e-07
1.45487e-08
-1.88265e-07
1.43186e-08
-1.95935e-07
1.40664e-08
-2.03459e-07
1.3795e-08
-2.10828e-07
1.35067e-08
-2.18033e-07
1.32041e-08
-2.25069e-07
1.28892e-08
-2.31929e-07
1.25643e-08
-2.3861e-07
1.22312e-08
-2.45106e-07
1.18917e-08
-2.51416e-07
1.15475e-08
-2.57538e-07
1.12002e-08
-2.6347e-07
1.08511e-08
-2.69212e-07
1.05015e-08
-2.74765e-07
1.01525e-08
-2.80129e-07
9.80528e-09
-2.85306e-07
9.46067e-09
-2.90297e-07
9.11949e-09
-2.95104e-07
8.78248e-09
-2.99731e-07
8.45023e-09
-3.04179e-07
8.12328e-09
-3.08452e-07
7.80206e-09
-3.12552e-07
7.48692e-09
-3.16485e-07
7.17815e-09
-3.20252e-07
6.87594e-09
-3.23857e-07
6.58042e-09
-3.27304e-07
6.29167e-09
-3.30597e-07
6.00967e-09
-3.3374e-07
5.73439e-09
-3.36735e-07
5.46571e-09
-3.39586e-07
5.20349e-09
-3.42297e-07
4.94753e-09
-3.4487e-07
4.69759e-09
-3.4731e-07
4.45337e-09
-3.49618e-07
4.21456e-09
-3.51798e-07
3.98081e-09
-3.53851e-07
3.75173e-09
-3.55781e-07
3.5269e-09
-3.5759e-07
3.30588e-09
-3.59278e-07
3.0882e-09
-3.60848e-07
2.87339e-09
-3.62301e-07
2.66093e-09
-3.63638e-07
2.45028e-09
-3.64859e-07
2.2409e-09
-3.65966e-07
2.03223e-09
-3.66957e-07
1.82368e-09
-3.67833e-07
1.61467e-09
-3.68593e-07
1.40461e-09
-3.69237e-07
1.19289e-09
-3.69762e-07
9.78896e-10
-3.70168e-07
7.6202e-10
-3.70453e-07
5.41645e-10
-3.70613e-07
3.17153e-10
-3.70648e-07
8.7933e-11
-3.70553e-07
-1.46621e-10
-3.70326e-07
-3.87111e-10
-3.69963e-07
-6.34125e-10
-3.69461e-07
-8.88237e-10
-3.68815e-07
-1.15001e-09
-3.6802e-07
-1.41998e-09
-3.67072e-07
-1.69866e-09
-3.65967e-07
-1.98655e-09
-3.64698e-07
-2.2841e-09
-3.63261e-07
-2.59173e-09
-3.6165e-07
-2.90984e-09
-3.59858e-07
-3.23875e-09
-3.57881e-07
-3.57876e-09
-3.55711e-07
-3.9301e-09
-3.53344e-07
-4.29294e-09
-3.50772e-07
-4.66737e-09
-3.4799e-07
-5.05343e-09
-3.4499e-07
-5.45107e-09
-3.41768e-07
-5.86015e-09
-3.38317e-07
-6.28043e-09
-3.34631e-07
-6.71159e-09
-3.30705e-07
-7.15318e-09
-3.26534e-07
-7.60465e-09
-3.22113e-07
-8.06533e-09
-3.17436e-07
-8.53441e-09
-3.12502e-07
-9.01096e-09
-3.07305e-07
-9.4939e-09
-3.01844e-07
-9.98201e-09
-2.96117e-07
-1.04739e-08
-2.90122e-07
-1.09681e-08
-2.83859e-07
-1.14628e-08
-2.7733e-07
-1.19562e-08
-2.70536e-07
-1.24464e-08
-2.63481e-07
-1.29309e-08
-2.56169e-07
-1.34076e-08
-2.48605e-07
-1.38738e-08
-2.40798e-07
-1.43269e-08
-2.32755e-07
-1.47639e-08
-2.24488e-07
-1.51819e-08
-2.16008e-07
-1.55776e-08
-2.07331e-07
-1.59476e-08
-1.9847e-07
-1.62885e-08
-1.89445e-07
-1.65967e-08
-1.80276e-07
-1.68685e-08
-1.70983e-07
-1.70999e-08
-1.61592e-07
-1.72871e-08
-1.52127e-07
-1.74261e-08
-1.42618e-07
-1.75129e-08
-1.33095e-07
-1.75435e-08
-1.23589e-07
-1.75137e-08
-1.14137e-07
-1.74196e-08
-1.04774e-07
-1.72574e-08
-9.55389e-08
-1.70231e-08
-8.64723e-08
-1.67132e-08
-7.76164e-08
-1.63242e-08
-6.9015e-08
-1.5853e-08
-6.0713e-08
-1.52969e-08
-5.27568e-08
-1.46534e-08
-4.51933e-08
-1.39209e-08
-3.80695e-08
-1.30983e-08
-3.14323e-08
-1.21858e-08
-2.53276e-08
-1.11845e-08
-1.97991e-08
-1.00976e-08
-1.48871e-08
-8.93027e-09
-1.06271e-08
-7.69108e-09
-7.04704e-09
-6.39287e-09
-4.16423e-09
-5.05466e-09
-1.98124e-09
-3.70427e-09
-4.80066e-10
-2.382e-09
3.85476e-10
-1.14615e-09
6.99452e-10
-8.05024e-11
5.95016e-10
6.96798e-10
2.66514e-10
1.02288e-09
6.69959e-10
1.63537e-10
-7.68389e-10
2.64237e-10
-1.05101e-09
4.35582e-11
-4.73272e-10
-6.78767e-10
6.88382e-10
-2.02942e-09
2.23628e-09
-4.0916e-09
4.02148e-09
-6.91338e-09
5.93359e-09
-1.05153e-08
7.89244e-09
-1.48966e-08
9.84034e-09
-2.00405e-08
1.17361e-08
-2.59183e-08
1.35508e-08
-3.24926e-08
1.52645e-08
-3.972e-08
1.68636e-08
-4.75529e-08
1.83398e-08
-5.59412e-08
1.96884e-08
-6.48334e-08
2.09073e-08
-7.41776e-08
2.19969e-08
-8.39224e-08
2.29588e-08
-9.4017e-08
2.37961e-08
-1.04412e-07
2.45126e-08
-1.1506e-07
2.5113e-08
-1.25915e-07
2.56025e-08
-1.36933e-07
2.59864e-08
-1.48073e-07
2.62705e-08
-1.59296e-07
2.64607e-08
-1.70564e-07
2.6563e-08
-1.81845e-07
2.65834e-08
-1.93105e-07
2.65277e-08
-2.04314e-07
2.64019e-08
-2.15447e-07
2.62116e-08
-2.26478e-07
2.59626e-08
-2.37384e-07
2.566e-08
-2.48144e-07
2.53093e-08
-2.58741e-07
2.49155e-08
-2.69158e-07
2.44832e-08
-2.7938e-07
2.40171e-08
-2.89395e-07
2.35215e-08
-2.99191e-07
2.30005e-08
-3.0876e-07
2.24579e-08
-3.18093e-07
2.18974e-08
-3.27184e-07
2.13222e-08
-3.36028e-07
2.07356e-08
-3.44621e-07
2.01404e-08
-3.5296e-07
1.95392e-08
-3.61043e-07
1.89346e-08
-3.68871e-07
1.83288e-08
-3.76442e-07
1.77236e-08
-3.83758e-07
1.71211e-08
-3.9082e-07
1.65227e-08
-3.9763e-07
1.59299e-08
-4.04192e-07
1.5344e-08
-4.10507e-07
1.4766e-08
-4.16581e-07
1.4197e-08
-4.22417e-07
1.36375e-08
-4.28018e-07
1.30884e-08
-4.3339e-07
1.255e-08
-4.38537e-07
1.20228e-08
-4.43463e-07
1.1507e-08
-4.48174e-07
1.10026e-08
-4.52674e-07
1.05098e-08
-4.56969e-07
1.00285e-08
-4.61061e-07
9.55845e-09
-4.64957e-07
9.09944e-09
-4.68661e-07
8.65113e-09
-4.72176e-07
8.21312e-09
-4.75508e-07
7.78492e-09
-4.78659e-07
7.36598e-09
-4.81634e-07
6.95571e-09
-4.84436e-07
6.55343e-09
-4.87068e-07
6.15844e-09
-4.89532e-07
5.76998e-09
-4.91831e-07
5.38725e-09
-4.93967e-07
5.00941e-09
-4.95941e-07
4.63557e-09
-4.97756e-07
4.26484e-09
-4.99411e-07
3.89625e-09
-5.00908e-07
3.52885e-09
-5.02246e-07
3.16163e-09
-5.03425e-07
2.7936e-09
-5.04444e-07
2.42372e-09
-5.05302e-07
2.05095e-09
-5.05997e-07
1.67425e-09
-5.06528e-07
1.29255e-09
-5.06891e-07
9.0481e-10
-5.07084e-07
5.09958e-10
-5.07103e-07
1.06943e-10
-5.06944e-07
-3.05276e-10
-5.06604e-07
-7.27727e-10
-5.06076e-07
-1.16142e-09
-5.05357e-07
-1.60733e-09
-5.04441e-07
-2.06643e-09
-5.03321e-07
-2.53963e-09
-5.01992e-07
-3.02782e-09
-5.00447e-07
-3.53181e-09
-4.98678e-07
-4.05241e-09
-4.9668e-07
-4.5903e-09
-4.94443e-07
-5.14615e-09
-4.91962e-07
-5.72053e-09
-4.89227e-07
-6.31389e-09
-4.8623e-07
-6.92664e-09
-4.82964e-07
-7.55903e-09
-4.7942e-07
-8.21122e-09
-4.7559e-07
-8.88324e-09
-4.71466e-07
-9.57497e-09
-4.6704e-07
-1.02862e-08
-4.62304e-07
-1.10164e-08
-4.57251e-07
-1.1765e-08
-4.51873e-07
-1.25313e-08
-4.46163e-07
-1.33143e-08
-4.40116e-07
-1.41128e-08
-4.33725e-07
-1.49253e-08
-4.26986e-07
-1.57502e-08
-4.19894e-07
-1.65857e-08
-4.12446e-07
-1.74297e-08
-4.0464e-07
-1.82796e-08
-3.96475e-07
-1.9133e-08
-3.87951e-07
-1.99868e-08
-3.7907e-07
-2.08377e-08
-3.69834e-07
-2.16824e-08
-3.60248e-07
-2.2517e-08
-3.50318e-07
-2.33374e-08
-3.40053e-07
-2.41392e-08
-3.29462e-07
-2.49177e-08
-3.18558e-07
-2.56681e-08
-3.07355e-07
-2.6385e-08
-2.95869e-07
-2.7063e-08
-2.84121e-07
-2.76964e-08
-2.7213e-07
-2.82791e-08
-2.59922e-07
-2.88051e-08
-2.47522e-07
-2.92679e-08
-2.34961e-07
-2.9661e-08
-2.22271e-07
-2.99777e-08
-2.09485e-07
-3.02114e-08
-1.96643e-07
-3.03551e-08
-1.83784e-07
-3.04021e-08
-1.70952e-07
-3.03457e-08
-1.58193e-07
-3.0179e-08
-1.45555e-07
-2.98957e-08
-1.33088e-07
-2.94894e-08
-1.20847e-07
-2.89543e-08
-1.08887e-07
-2.82847e-08
-9.72643e-08
-2.74756e-08
-8.60382e-08
-2.65229e-08
-7.52685e-08
-2.54231e-08
-6.50156e-08
-2.41738e-08
-5.53396e-08
-2.27742e-08
-4.63002e-08
-2.12252e-08
-3.79547e-08
-1.953e-08
-3.03575e-08
-1.76948e-08
-2.35579e-08
-1.57299e-08
-1.75982e-08
-1.36508e-08
-1.25108e-08
-1.14802e-08
-8.31478e-09
-9.25067e-09
-5.01118e-09
-7.00786e-09
-2.57743e-09
-4.81575e-09
-9.60267e-10
-2.76331e-09
-6.73778e-11
-9.7339e-10
2.42063e-10
3.87356e-10
1.68657e-10
1.09629e-09
8.38617e-10
3.76409e-11
-8.06025e-10
-1.7437e-10
-8.39006e-10
-8.70666e-10
2.23025e-10
-2.22121e-09
2.03893e-09
-4.34773e-09
4.36281e-09
-7.33171e-09
7.00546e-09
-1.12211e-08
9.82298e-09
-1.60364e-08
1.27078e-08
-2.17762e-08
1.55801e-08
-2.84217e-08
1.83816e-08
-3.59407e-08
2.10698e-08
-4.42909e-08
2.36147e-08
-5.34228e-08
2.59955e-08
-6.32816e-08
2.81986e-08
-7.3809e-08
3.02157e-08
-8.49447e-08
3.20431e-08
-9.66276e-08
3.36798e-08
-1.08797e-07
3.51278e-08
-1.21391e-07
3.63906e-08
-1.34352e-07
3.74737e-08
-1.47622e-07
3.83832e-08
-1.61146e-07
3.91265e-08
-1.74871e-07
3.97113e-08
-1.88747e-07
4.01459e-08
-2.02725e-07
4.04388e-08
-2.16761e-07
4.0599e-08
-2.30812e-07
4.0635e-08
-2.44841e-07
4.05558e-08
-2.58809e-07
4.03701e-08
-2.72683e-07
4.00863e-08
-2.86434e-07
3.97129e-08
-3.00032e-07
3.9258e-08
-3.13452e-07
3.87294e-08
-3.26671e-07
3.81346e-08
-3.39669e-07
3.7481e-08
-3.52427e-07
3.67754e-08
-3.6493e-07
3.60243e-08
-3.77163e-07
3.5234e-08
-3.89116e-07
3.44102e-08
-4.00777e-07
3.35585e-08
-4.12139e-07
3.2684e-08
-4.23194e-07
3.17914e-08
-4.33939e-07
3.08852e-08
-4.44369e-07
2.99694e-08
-4.54483e-07
2.90477e-08
-4.64277e-07
2.81236e-08
-4.73754e-07
2.72001e-08
-4.82913e-07
2.62801e-08
-4.91756e-07
2.53659e-08
-5.00286e-07
2.44598e-08
-5.08506e-07
2.35638e-08
-5.16419e-07
2.26794e-08
-5.2403e-07
2.18082e-08
-5.31344e-07
2.09514e-08
-5.38366e-07
2.01099e-08
-5.451e-07
1.92844e-08
-5.51553e-07
1.84757e-08
-5.5773e-07
1.7684e-08
-5.63637e-07
1.69096e-08
-5.6928e-07
1.61525e-08
-5.74664e-07
1.54127e-08
-5.79795e-07
1.46899e-08
-5.8468e-07
1.39837e-08
-5.89322e-07
1.32936e-08
-5.93728e-07
1.2619e-08
-5.97902e-07
1.19593e-08
-6.0185e-07
1.13135e-08
-6.05575e-07
1.06808e-08
-6.09082e-07
1.00602e-08
-6.12374e-07
9.45051e-09
-6.15454e-07
8.85073e-09
-6.18327e-07
8.25958e-09
-6.20993e-07
7.6758e-09
-6.23456e-07
7.09805e-09
-6.25716e-07
6.52495e-09
-6.27775e-07
5.95508e-09
-6.29633e-07
5.38696e-09
-6.3129e-07
4.81909e-09
-6.32746e-07
4.24994e-09
-6.34001e-07
3.67796e-09
-6.35051e-07
3.10157e-09
-6.35896e-07
2.51919e-09
-6.36533e-07
1.92921e-09
-6.36958e-07
1.33003e-09
-6.37168e-07
7.20062e-10
-6.37159e-07
9.77014e-11
-6.36926e-07
-5.38624e-10
-6.36463e-07
-1.19047e-09
-6.35765e-07
-1.85934e-09
-6.34826e-07
-2.54674e-09
-6.33638e-07
-3.2541e-09
-6.32195e-07
-3.9828e-09
-6.30488e-07
-4.73417e-09
-6.28511e-07
-5.50946e-09
-6.26253e-07
-6.30981e-09
-6.23707e-07
-7.13631e-09
-6.20864e-07
-7.9899e-09
-6.17713e-07
-8.87143e-09
-6.14245e-07
-9.78158e-09
-6.10451e-07
-1.07209e-08
-6.0632e-07
-1.16898e-08
-6.01843e-07
-1.26885e-08
-5.97009e-07
-1.3717e-08
-5.91809e-07
-1.4775e-08
-5.86233e-07
-1.58622e-08
-5.80271e-07
-1.69779e-08
-5.73915e-07
-1.81211e-08
-5.67156e-07
-1.92907e-08
-5.59985e-07
-2.0485e-08
-5.52395e-07
-2.17024e-08
-5.4438e-07
-2.29405e-08
-5.35934e-07
-2.41969e-08
-5.27051e-07
-2.54687e-08
-5.17728e-07
-2.67526e-08
-5.07962e-07
-2.80451e-08
-4.97753e-07
-2.9342e-08
-4.87101e-07
-3.06388e-08
-4.76008e-07
-3.19307e-08
-4.64478e-07
-3.32123e-08
-4.52517e-07
-3.44779e-08
-4.40134e-07
-3.57212e-08
-4.27337e-07
-3.69356e-08
-4.14141e-07
-3.8114e-08
-4.0056e-07
-3.9249e-08
-3.86612e-07
-4.03327e-08
-3.72319e-07
-4.13567e-08
-3.57702e-07
-4.23124e-08
-3.42791e-07
-4.31909e-08
-3.27613e-07
-4.39829e-08
-3.12202e-07
-4.46787e-08
-2.96594e-07
-4.52686e-08
-2.80829e-07
-4.57427e-08
-2.6495e-07
-4.60909e-08
-2.49002e-07
-4.63029e-08
-2.33035e-07
-4.63688e-08
-2.17103e-07
-4.62784e-08
-2.0126e-07
-4.6022e-08
-1.85565e-07
-4.559e-08
-1.70082e-07
-4.49732e-08
-1.54873e-07
-4.41632e-08
-1.40005e-07
-4.31519e-08
-1.25549e-07
-4.19325e-08
-1.11572e-07
-4.04991e-08
-9.81483e-08
-3.88472e-08
-8.53478e-08
-3.69743e-08
-7.32422e-08
-3.48798e-08
-6.19011e-08
-3.25663e-08
-5.13915e-08
-3.00396e-08
-4.17759e-08
-2.73104e-08
-3.31108e-08
-2.4395e-08
-2.54439e-08
-2.13176e-08
-1.88117e-08
-1.81125e-08
-1.32352e-08
-1.48271e-08
-8.71633e-09
-1.15268e-08
-5.23225e-09
-8.29983e-09
-2.7298e-09
-5.26576e-09
-1.11855e-09
-2.58463e-09
-2.63619e-10
-4.67573e-10
2.30326e-11
8.09632e-10
8.61652e-10
-1.10594e-10
-6.9543e-10
-6.93832e-10
-2.55763e-10
-1.94545e-09
1.47464e-09
-4.01317e-09
4.10664e-09
-7.0047e-09
7.35435e-09
-1.09928e-08
1.09936e-08
-1.60199e-08
1.48501e-08
-2.21028e-08
1.87906e-08
-2.92366e-08
2.2714e-08
-3.73995e-08
2.65445e-08
-4.65554e-08
3.02257e-08
-5.66575e-08
3.37169e-08
-6.7651e-08
3.69889e-08
-7.94747e-08
4.00223e-08
-9.20639e-08
4.28049e-08
-1.05351e-07
4.53299e-08
-1.19266e-07
4.75954e-08
-1.33742e-07
4.9603e-08
-1.48708e-07
5.13567e-08
-1.64097e-07
5.28632e-08
-1.79844e-07
5.41304e-08
-1.95886e-07
5.51678e-08
-2.1216e-07
5.59856e-08
-2.28609e-07
5.65951e-08
-2.45178e-07
5.70077e-08
-2.61814e-07
5.72352e-08
-2.78469e-07
5.72896e-08
-2.95096e-07
5.71831e-08
-3.11653e-07
5.69274e-08
-3.28101e-07
5.65344e-08
-3.44404e-07
5.60155e-08
-3.60528e-07
5.53821e-08
-3.76444e-07
5.46451e-08
-3.92124e-07
5.38148e-08
-4.07544e-07
5.29014e-08
-4.22683e-07
5.19144e-08
-4.37522e-07
5.08631e-08
-4.52044e-07
4.9756e-08
-4.66236e-07
4.86014e-08
-4.80084e-07
4.74068e-08
-4.93579e-07
4.61796e-08
-5.06714e-07
4.49263e-08
-5.19482e-07
4.36532e-08
-5.31879e-07
4.23659e-08
-5.43901e-07
4.10698e-08
-5.55547e-07
3.97696e-08
-5.66816e-07
3.84696e-08
-5.7771e-07
3.71739e-08
-5.8823e-07
3.58859e-08
-5.98379e-07
3.46087e-08
-6.0816e-07
3.33451e-08
-6.17578e-07
3.20975e-08
-6.26638e-07
3.08678e-08
-6.35345e-07
2.96579e-08
-6.43704e-07
2.84691e-08
-6.51722e-07
2.73026e-08
-6.59405e-07
2.61591e-08
-6.6676e-07
2.50392e-08
-6.73794e-07
2.39433e-08
-6.80513e-07
2.28714e-08
-6.86924e-07
2.18235e-08
-6.93033e-07
2.07992e-08
-6.98848e-07
1.97981e-08
-7.04373e-07
1.88194e-08
-7.09617e-07
1.78623e-08
-7.14583e-07
1.69258e-08
-7.19278e-07
1.60087e-08
-7.23708e-07
1.51099e-08
-7.27875e-07
1.42279e-08
-7.31786e-07
1.33612e-08
-7.35444e-07
1.25082e-08
-7.38851e-07
1.16673e-08
-7.42012e-07
1.08366e-08
-7.44928e-07
1.00143e-08
-7.47602e-07
9.19845e-09
-7.50034e-07
8.38706e-09
-7.52225e-07
7.57809e-09
-7.54175e-07
6.76943e-09
-7.55884e-07
5.95894e-09
-7.57351e-07
5.14446e-09
-7.58573e-07
4.32378e-09
-7.59548e-07
3.49469e-09
-7.60274e-07
2.65494e-09
-7.60746e-07
1.80232e-09
-7.60961e-07
9.34581e-10
-7.60913e-07
4.95089e-11
-7.60596e-07
-8.55091e-10
-7.60005e-07
-1.78138e-09
-7.59133e-07
-2.73148e-09
-7.57973e-07
-3.70744e-09
-7.56515e-07
-4.71128e-09
-7.54753e-07
-5.7449e-09
-7.52677e-07
-6.81015e-09
-7.50278e-07
-7.90874e-09
-7.47546e-07
-9.04228e-09
-7.4447e-07
-1.02122e-08
-7.4104e-07
-1.14199e-08
-7.37245e-07
-1.26665e-08
-7.33073e-07
-1.39528e-08
-7.28514e-07
-1.52798e-08
-7.23557e-07
-1.66478e-08
-7.18188e-07
-1.80571e-08
-7.12397e-07
-1.95077e-08
-7.06173e-07
-2.09993e-08
-6.99504e-07
-2.25312e-08
-6.9238e-07
-2.41025e-08
-6.84789e-07
-2.57118e-08
-6.76722e-07
-2.73573e-08
-6.6817e-07
-2.9037e-08
-6.59124e-07
-3.07482e-08
-6.49577e-07
-3.24878e-08
-6.39522e-07
-3.42523e-08
-6.28953e-07
-3.60376e-08
-6.17866e-07
-3.78392e-08
-6.06259e-07
-3.96518e-08
-5.94131e-07
-4.14699e-08
-5.81483e-07
-4.32871e-08
-5.68318e-07
-4.50965e-08
-5.54639e-07
-4.68906e-08
-5.40456e-07
-4.86615e-08
-5.25776e-07
-5.04004e-08
-5.10614e-07
-5.20981e-08
-4.94983e-07
-5.37447e-08
-4.78903e-07
-5.53297e-08
-4.62393e-07
-5.68422e-08
-4.45479e-07
-5.82706e-08
-4.28189e-07
-5.9603e-08
-4.10553e-07
-6.08268e-08
-3.92606e-07
-6.19292e-08
-3.74388e-07
-6.28969e-08
-3.55941e-07
-6.37164e-08
-3.37309e-07
-6.43739e-08
-3.18545e-07
-6.48555e-08
-2.997e-07
-6.51474e-08
-2.80834e-07
-6.52355e-08
-2.62006e-07
-6.51063e-08
-2.43281e-07
-6.47463e-08
-2.24729e-07
-6.41427e-08
-2.06419e-07
-6.3283e-08
-1.88426e-07
-6.2156e-08
-1.70827e-07
-6.07511e-08
-1.537e-07
-5.90594e-08
-1.37126e-07
-5.70734e-08
-1.21185e-07
-5.4788e-08
-1.05959e-07
-5.22003e-08
-9.15277e-08
-4.93109e-08
-7.79698e-08
-4.61241e-08
-6.536e-08
-4.26495e-08
-5.37678e-08
-3.89026e-08
-4.32558e-08
-3.4907e-08
-3.38769e-08
-3.06965e-08
-2.56716e-08
-2.63178e-08
-1.86647e-08
-2.1834e-08
-1.28614e-08
-1.733e-08
-8.24312e-09
-1.29181e-08
-4.76266e-09
-8.74623e-09
-2.33945e-09
-5.00784e-09
-8.54619e-10
-1.9524e-09
-1.45913e-10
1.00928e-10
7.15737e-10
-2.68715e-10
-4.26714e-10
-1.25541e-09
7.30934e-10
-3.11072e-09
3.32995e-09
-5.95285e-09
6.94877e-09
-9.86919e-09
1.12707e-08
-1.49183e-08
1.60427e-08
-2.11327e-08
2.10645e-08
-2.85219e-08
2.61798e-08
-3.70755e-08
3.12676e-08
-4.67666e-08
3.62355e-08
-5.75544e-08
4.10136e-08
-6.93875e-08
4.55499e-08
-8.22057e-08
4.98071e-08
-9.59425e-08
5.37592e-08
-1.10527e-07
5.73894e-08
-1.25885e-07
6.06881e-08
-1.41941e-07
6.36517e-08
-1.5862e-07
6.62811e-08
-1.75844e-07
6.8581e-08
-1.9354e-07
7.05588e-08
-2.11634e-07
7.22245e-08
-2.30056e-07
7.35896e-08
-2.48737e-07
7.46672e-08
-2.67613e-07
7.54713e-08
-2.86622e-07
7.60165e-08
-3.05705e-07
7.6318e-08
-3.24807e-07
7.63914e-08
-3.43876e-07
7.62521e-08
-3.62864e-07
7.59158e-08
-3.81727e-07
7.53976e-08
-4.00424e-07
7.47127e-08
-4.18918e-07
7.38757e-08
-4.37174e-07
7.2901e-08
-4.55161e-07
7.18022e-08
-4.72853e-07
7.05927e-08
-4.90223e-07
6.92851e-08
-5.07252e-07
6.78914e-08
-5.23919e-07
6.64231e-08
-5.40208e-07
6.48909e-08
-5.56106e-07
6.33051e-08
-5.71602e-07
6.16751e-08
-5.86685e-07
6.00098e-08
-6.0135e-07
5.83175e-08
-6.1559e-07
5.66057e-08
-6.29401e-07
5.48814e-08
-6.42782e-07
5.31509e-08
-6.55733e-07
5.14202e-08
-6.68254e-07
4.96944e-08
-6.80346e-07
4.79782e-08
-6.92013e-07
4.62758e-08
-7.03259e-07
4.45909e-08
-7.14088e-07
4.29266e-08
-7.24506e-07
4.12857e-08
-7.34518e-07
3.96705e-08
-7.44132e-07
3.80829e-08
-7.53354e-07
3.65244e-08
-7.62191e-07
3.49961e-08
-7.70651e-07
3.34988e-08
-7.78741e-07
3.2033e-08
-7.86468e-07
3.05988e-08
-7.93841e-07
2.91961e-08
-8.00866e-07
2.78245e-08
-8.07551e-07
2.64833e-08
-8.13903e-07
2.51717e-08
-8.1993e-07
2.38886e-08
-8.25636e-07
2.26326e-08
-8.3103e-07
2.14023e-08
-8.36116e-07
2.0196e-08
-8.409e-07
1.90118e-08
-8.45387e-07
1.78479e-08
-8.49581e-07
1.6702e-08
-8.53485e-07
1.5572e-08
-8.57104e-07
1.44556e-08
-8.6044e-07
1.33501e-08
-8.63495e-07
1.22532e-08
-8.6627e-07
1.11621e-08
-8.68766e-07
1.00741e-08
-8.70983e-07
8.98656e-09
-8.72921e-07
7.89655e-09
-8.74577e-07
6.80122e-09
-8.75951e-07
5.69766e-09
-8.77039e-07
4.58295e-09
-8.77839e-07
3.45413e-09
-8.78345e-07
2.30827e-09
-8.78552e-07
1.1424e-09
-8.78457e-07
-4.63837e-11
-8.78051e-07
-1.26098e-09
-8.77328e-07
-2.50425e-09
-8.7628e-07
-3.77896e-09
-8.749e-07
-5.08783e-09
-8.73178e-07
-6.4335e-09
-8.71104e-07
-7.81849e-09
-8.68669e-07
-9.24519e-09
-8.65862e-07
-1.07159e-08
-8.62672e-07
-1.22326e-08
-8.59087e-07
-1.37973e-08
-8.55095e-07
-1.54117e-08
-8.50684e-07
-1.70773e-08
-8.45841e-07
-1.87953e-08
-8.40555e-07
-2.05666e-08
-8.34811e-07
-2.23918e-08
-8.28596e-07
-2.42714e-08
-8.21899e-07
-2.62051e-08
-8.14706e-07
-2.81925e-08
-8.07004e-07
-3.02328e-08
-7.98782e-07
-3.23247e-08
-7.90027e-07
-3.44662e-08
-7.8073e-07
-3.6655e-08
-7.70878e-07
-3.88883e-08
-7.60464e-07
-4.11626e-08
-7.49478e-07
-4.34737e-08
-7.37913e-07
-4.58169e-08
-7.25764e-07
-4.81869e-08
-7.13026e-07
-5.05775e-08
-6.99696e-07
-5.29819e-08
-6.85773e-07
-5.53926e-08
-6.71259e-07
-5.78011e-08
-6.56157e-07
-6.01985e-08
-6.40473e-07
-6.25749e-08
-6.24215e-07
-6.49195e-08
-6.07394e-07
-6.72209e-08
-5.90025e-07
-6.9467e-08
-5.72125e-07
-7.16446e-08
-5.53715e-07
-7.374e-08
-5.34819e-07
-7.57388e-08
-5.15463e-07
-7.76258e-08
-4.95681e-07
-7.93851e-08
-4.75508e-07
-8.10005e-08
-4.54982e-07
-8.2455e-08
-4.34147e-07
-8.37312e-08
-4.13052e-07
-8.48114e-08
-3.91749e-07
-8.56777e-08
-3.70292e-07
-8.63119e-08
-3.48744e-07
-8.6696e-08
-3.27167e-07
-8.68118e-08
-3.05632e-07
-8.66417e-08
-2.8421e-07
-8.61684e-08
-2.62977e-07
-8.53752e-08
-2.42014e-07
-8.42467e-08
-2.21402e-07
-8.27681e-08
-2.01226e-07
-8.09266e-08
-1.81574e-07
-7.8711e-08
-1.62535e-07
-7.61125e-08
-1.44198e-07
-7.31249e-08
-1.26653e-07
-6.97459e-08
-1.09987e-07
-6.5977e-08
-9.42859e-08
-6.18251e-08
-7.96316e-08
-5.73037e-08
-6.61002e-08
-5.2434e-08
-5.37599e-08
-4.72474e-08
-4.2669e-08
-4.17874e-08
-3.28733e-08
-3.61135e-08
-2.44028e-08
-3.03044e-08
-1.72691e-08
-2.44637e-08
-1.14614e-08
-1.87258e-08
-6.94352e-09
-1.32641e-08
-3.65074e-09
-8.30062e-09
-1.48719e-09
-4.11596e-09
-3.24224e-10
-1.06203e-09
3.91511e-10
-4.29488e-10
2.77261e-12
-1.83426e-09
2.13571e-09
-4.3189e-09
5.81459e-09
-7.96844e-09
1.05983e-08
-1.28459e-08
1.61481e-08
-1.89917e-08
2.21886e-08
-2.64251e-08
2.84979e-08
-3.51454e-08
3.49e-08
-4.51341e-08
4.12564e-08
-5.63577e-08
4.74592e-08
-6.87699e-08
5.34257e-08
-8.23134e-08
5.90935e-08
-9.6923e-08
6.44167e-08
-1.12527e-07
6.93629e-08
-1.29048e-07
7.39106e-08
-1.46407e-07
7.80472e-08
-1.64522e-07
8.1767e-08
-1.83312e-07
8.50704e-08
-2.02693e-07
8.79622e-08
-2.22585e-07
9.0451e-08
-2.42909e-07
9.25484e-08
-2.63587e-07
9.42682e-08
-2.84547e-07
9.56264e-08
-3.05715e-07
9.66398e-08
-3.27025e-07
9.73265e-08
-3.48413e-07
9.77054e-08
-3.69817e-07
9.77956e-08
-3.91181e-07
9.76165e-08
-4.12453e-07
9.71873e-08
-4.33582e-07
9.65273e-08
-4.54525e-07
9.56554e-08
-4.7524e-07
9.459e-08
-4.95688e-07
9.33491e-08
-5.15836e-07
9.19501e-08
-5.35652e-07
9.04096e-08
-5.55111e-07
8.87437e-08
-5.74187e-07
8.69677e-08
-5.9286e-07
8.50959e-08
-6.11112e-07
8.31422e-08
-6.28926e-07
8.11195e-08
-6.46291e-07
7.90397e-08
-6.63195e-07
7.69143e-08
-6.79631e-07
7.47536e-08
-6.95593e-07
7.25674e-08
-7.11076e-07
7.03645e-08
-7.26078e-07
6.81532e-08
-7.40599e-07
6.59407e-08
-7.54638e-07