/*--------------------------------*- C++ -*----------------------------------*\
  =========                 |
  \\      /  F ield         | OpenFOAM: The Open Source CFD Toolbox
   \\    /   O peration     | Website:  https://openfoam.org
    \\  /    A nd           | Version:  7
     \\/     M anipulation  |
\*---------------------------------------------------------------------------*/
FoamFile
{
    version     2.0;
    format      ascii;
    class       volScalarField;
    location    "0.425";
    object      p;
}
// * * * * * * * * * * * * * * * * * * * * * * * * * * * * * * * * * * * * * //

dimensions      [0 2 -2 0 0 0 0];

internalField   nonuniform List<scalar> 
51200
(
-7.05922e-08
2.26653e-06
5.78319e-06
9.12917e-06
1.18165e-05
1.40737e-05
1.59998e-05
1.76572e-05
1.90789e-05
2.02941e-05
2.13236e-05
2.21802e-05
2.28769e-05
2.34212e-05
2.3823e-05
2.40919e-05
2.42347e-05
2.42552e-05
2.41621e-05
2.39621e-05
2.36588e-05
2.32604e-05
2.27693e-05
2.2187e-05
2.15189e-05
2.07703e-05
1.99457e-05
1.90477e-05
1.80779e-05
1.70387e-05
1.59331e-05
1.47667e-05
1.35476e-05
1.22795e-05
1.09627e-05
9.60055e-06
8.19724e-06
6.75581e-06
5.279e-06
3.7685e-06
2.22582e-06
6.5377e-07
-9.4581e-07
-2.57183e-06
-4.22263e-06
-5.89765e-06
-7.59822e-06
-9.32209e-06
-1.10648e-05
-1.28232e-05
-1.45963e-05
-1.63833e-05
-1.8183e-05
-1.99946e-05
-2.18179e-05
-2.3652e-05
-2.54961e-05
-2.73506e-05
-2.92166e-05
-3.10939e-05
-3.29808e-05
-3.48747e-05
-3.67739e-05
-3.86799e-05
-4.05959e-05
-4.25214e-05
-4.44522e-05
-4.63865e-05
-4.83256e-05
-5.02717e-05
-5.2226e-05
-5.41883e-05
-5.61584e-05
-5.8136e-05
-6.01207e-05
-6.21116e-05
-6.41074e-05
-6.61077e-05
-6.81139e-05
-7.01286e-05
-7.21527e-05
-7.41846e-05
-7.62223e-05
-7.82655e-05
-8.0315e-05
-8.23708e-05
-8.44329e-05
-8.65012e-05
-8.85758e-05
-9.06563e-05
-9.27423e-05
-9.48331e-05
-9.69281e-05
-9.90264e-05
-0.000101127
-0.00010323
-0.000105335
-0.000107442
-0.00010955
-0.000111659
-0.000113768
-0.000115877
-0.000117981
-0.00012008
-0.000122171
-0.000124256
-0.000126335
-0.000128409
-0.000130473
-0.000132525
-0.000134562
-0.000136585
-0.000138593
-0.000140586
-0.000142562
-0.000144515
-0.000146445
-0.000148351
-0.000150233
-0.000152087
-0.000153912
-0.000155705
-0.000157463
-0.000159182
-0.000160862
-0.000162499
-0.000164093
-0.000165643
-0.000167144
-0.000168593
-0.000169986
-0.000171322
-0.000172597
-0.00017381
-0.000174961
-0.000176047
-0.000177064
-0.000178009
-0.000178877
-0.000179666
-0.000180378
-0.000181012
-0.000181564
-0.000182032
-0.000182414
-0.000182711
-0.000182921
-0.000183049
-0.000183094
-0.000183058
-0.000182946
-0.000182763
-0.000182517
-0.00018222
-0.000181889
-0.000181543
-0.000181208
-0.000180919
-0.000180721
-0.000180651
2.09803e-06
4.34825e-06
7.14843e-06
9.82696e-06
1.21544e-05
1.41662e-05
1.59147e-05
1.74336e-05
1.87505e-05
1.98837e-05
2.08478e-05
2.16563e-05
2.23148e-05
2.28293e-05
2.32102e-05
2.34664e-05
2.36027e-05
2.36263e-05
2.35405e-05
2.33468e-05
2.30552e-05
2.26704e-05
2.21948e-05
2.16334e-05
2.09881e-05
2.02625e-05
1.94618e-05
1.8588e-05
1.76448e-05
1.66345e-05
1.55586e-05
1.44224e-05
1.32315e-05
1.19889e-05
1.06986e-05
9.36298e-06
7.9838e-06
6.56576e-06
5.11301e-06
3.6272e-06
2.11017e-06
5.62748e-07
-1.01529e-06
-2.62197e-06
-4.25478e-06
-5.9141e-06
-7.59952e-06
-9.30742e-06
-1.1035e-05
-1.2781e-05
-1.4544e-05
-1.63218e-05
-1.81129e-05
-1.99174e-05
-2.17351e-05
-2.35652e-05
-2.54064e-05
-2.72579e-05
-2.91205e-05
-3.09967e-05
-3.28862e-05
-3.47849e-05
-3.66899e-05
-3.86018e-05
-4.05221e-05
-4.24499e-05
-4.4384e-05
-4.63247e-05
-4.8273e-05
-5.02294e-05
-5.21939e-05
-5.4166e-05
-5.61454e-05
-5.81323e-05
-6.01274e-05
-6.21296e-05
-6.41368e-05
-6.6148e-05
-6.8165e-05
-7.01901e-05
-7.22235e-05
-7.42638e-05
-7.63106e-05
-7.83645e-05
-8.04253e-05
-8.24913e-05
-8.45615e-05
-8.66365e-05
-8.87171e-05
-9.08035e-05
-9.28957e-05
-9.49921e-05
-9.70911e-05
-9.91911e-05
-0.000101292
-0.000103396
-0.000105502
-0.000107609
-0.000109715
-0.00011182
-0.000113924
-0.000116026
-0.000118123
-0.000120213
-0.000122295
-0.000124368
-0.000126435
-0.000128494
-0.000130543
-0.00013258
-0.0001346
-0.000136603
-0.000138591
-0.000140562
-0.000142515
-0.000144447
-0.000146353
-0.000148233
-0.000150088
-0.000151915
-0.000153712
-0.000155475
-0.000157203
-0.000158893
-0.000160543
-0.000162151
-0.000163715
-0.000165234
-0.000166705
-0.000168122
-0.000169485
-0.000170792
-0.000172041
-0.00017323
-0.000174355
-0.000175416
-0.000176409
-0.000177333
-0.000178185
-0.000178963
-0.000179665
-0.00018029
-0.000180836
-0.000181304
-0.000181691
-0.000181999
-0.000182227
-0.000182377
-0.000182451
-0.000182451
-0.000182381
-0.000182249
-0.000182062
-0.000181832
-0.000181573
-0.000181302
-0.000181038
-0.000180807
-0.000180642
-0.000180576
5.22074e-06
6.82249e-06
8.77554e-06
1.08221e-05
1.27504e-05
1.44982e-05
1.60572e-05
1.74341e-05
1.86424e-05
1.96897e-05
2.05876e-05
2.13439e-05
2.19612e-05
2.24447e-05
2.28018e-05
2.30378e-05
2.31637e-05
2.31845e-05
2.30984e-05
2.29107e-05
2.26254e-05
2.22464e-05
2.17813e-05
2.12328e-05
2.06034e-05
1.98963e-05
1.91126e-05
1.82559e-05
1.73311e-05
1.634e-05
1.52864e-05
1.41738e-05
1.30044e-05
1.17829e-05
1.05139e-05
9.19901e-06
7.8403e-06
6.44165e-06
5.00677e-06
3.53962e-06
2.04215e-06
5.12796e-07
-1.04834e-06
-2.63921e-06
-4.25884e-06
-5.90704e-06
-7.58113e-06
-9.27757e-06
-1.09946e-05
-1.27316e-05
-1.44865e-05
-1.62569e-05
-1.80418e-05
-1.98411e-05
-2.1655e-05
-2.34829e-05
-2.53232e-05
-2.71738e-05
-2.90359e-05
-3.09121e-05
-3.28017e-05
-3.47022e-05
-3.66119e-05
-3.85305e-05
-4.04566e-05
-4.23889e-05
-4.43281e-05
-4.62753e-05
-4.82313e-05
-5.01959e-05
-5.21691e-05
-5.41501e-05
-5.61381e-05
-5.8134e-05
-6.0138e-05
-6.21487e-05
-6.41643e-05
-6.61852e-05
-6.82134e-05
-7.02494e-05
-7.22921e-05
-7.43405e-05
-7.6395e-05
-7.8457e-05
-8.0526e-05
-8.26003e-05
-8.46782e-05
-8.67597e-05
-8.88458e-05
-9.09378e-05
-9.30356e-05
-9.51371e-05
-9.72394e-05
-9.93415e-05
-0.000101444
-0.000103549
-0.000105654
-0.00010776
-0.000109866
-0.00011197
-0.000114072
-0.000116169
-0.000118259
-0.000120341
-0.000122414
-0.00012448
-0.000126536
-0.000128584
-0.000130621
-0.000132645
-0.000134651
-0.00013664
-0.000138611
-0.000140565
-0.0001425
-0.000144412
-0.000146298
-0.000148158
-0.000149992
-0.000151797
-0.000153572
-0.000155312
-0.000157015
-0.00015868
-0.000160306
-0.000161891
-0.000163432
-0.000164928
-0.000166373
-0.000167766
-0.000169104
-0.000170387
-0.000171615
-0.000172785
-0.000173892
-0.000174933
-0.000175907
-0.000176814
-0.000177653
-0.000178422
-0.000179117
-0.000179737
-0.00018028
-0.000180747
-0.000181139
-0.000181454
-0.000181696
-0.000181864
-0.00018196
-0.000181986
-0.000181947
-0.000181851
-0.000181704
-0.000181518
-0.000181304
-0.000181077
-0.000180853
-0.000180648
-0.00018048
-0.000180375
8.00397e-06
9.06187e-06
1.04329e-05
1.19763e-05
1.35385e-05
1.50226e-05
1.63868e-05
1.76184e-05
1.87132e-05
1.96733e-05
2.0501e-05
2.11985e-05
2.17704e-05
2.22211e-05
2.25508e-05
2.27674e-05
2.28783e-05
2.28853e-05
2.27943e-05
2.26073e-05
2.23243e-05
2.19512e-05
2.14922e-05
2.09515e-05
2.03336e-05
1.96396e-05
1.88699e-05
1.80278e-05
1.71158e-05
1.61381e-05
1.50998e-05
1.40032e-05
1.28506e-05
1.16457e-05
1.0392e-05
9.09325e-06
7.75171e-06
6.36923e-06
4.94993e-06
3.49811e-06
2.01407e-06
4.97893e-07
-1.04925e-06
-2.62716e-06
-4.23655e-06
-5.8757e-06
-7.54056e-06
-9.22862e-06
-1.09385e-05
-1.2669e-05
-1.4418e-05
-1.61834e-05
-1.79642e-05
-1.97602e-05
-2.15715e-05
-2.33972e-05
-2.52362e-05
-2.70883e-05
-2.89542e-05
-3.08334e-05
-3.27238e-05
-3.46253e-05
-3.65388e-05
-3.84628e-05
-4.03941e-05
-4.23317e-05
-4.42767e-05
-4.62307e-05
-4.81942e-05
-5.0167e-05
-5.21482e-05
-5.41374e-05
-5.6135e-05
-5.8141e-05
-6.0154e-05
-6.2172e-05
-6.41947e-05
-6.62241e-05
-6.82616e-05
-7.03069e-05
-7.23586e-05
-7.4416e-05
-7.64795e-05
-7.85495e-05
-8.06256e-05
-8.27067e-05
-8.47914e-05
-8.68794e-05
-8.89716e-05
-9.10692e-05
-9.31715e-05
-9.52765e-05
-9.73819e-05
-9.9487e-05
-0.000101593
-0.000103699
-0.000105805
-0.000107911
-0.000110015
-0.000112119
-0.000114219
-0.000116312
-0.000118397
-0.000120472
-0.000122539
-0.000124597
-0.000126647
-0.000128685
-0.000130711
-0.000132723
-0.000134718
-0.000136695
-0.000138654
-0.000140594
-0.000142513
-0.000144408
-0.000146277
-0.00014812
-0.000149936
-0.000151723
-0.000153479
-0.0001552
-0.000156883
-0.000158527
-0.000160133
-0.000161697
-0.000163219
-0.000164695
-0.000166121
-0.000167494
-0.000168812
-0.000170076
-0.000171284
-0.000172437
-0.000173529
-0.000174556
-0.000175517
-0.000176411
-0.000177239
-0.000177998
-0.000178687
-0.000179304
-0.000179846
-0.000180314
-0.000180708
-0.000181031
-0.000181282
-0.000181463
-0.000181576
-0.000181621
-0.000181605
-0.000181533
-0.000181414
-0.000181255
-0.000181065
-0.000180857
-0.000180644
-0.000180441
-0.000180249
-0.000180081
1.0058e-05
1.08978e-05
1.19428e-05
1.31445e-05
1.4411e-05
1.56595e-05
1.68414e-05
1.79279e-05
1.89093e-05
1.97799e-05
2.05333e-05
2.1169e-05
2.16915e-05
2.21006e-05
2.2402e-05
2.25993e-05
2.26915e-05
2.26847e-05
2.25839e-05
2.23895e-05
2.21061e-05
2.17356e-05
2.12804e-05
2.07459e-05
2.01348e-05
1.94488e-05
1.86901e-05
1.78597e-05
1.69597e-05
1.59947e-05
1.49687e-05
1.38853e-05
1.27472e-05
1.15564e-05
1.0316e-05
9.03062e-06
7.7024e-06
6.33436e-06
4.93038e-06
3.4919e-06
2.0191e-06
5.13896e-07
-1.02227e-06
-2.59055e-06
-4.19167e-06
-5.82225e-06
-7.47912e-06
-9.16061e-06
-1.08649e-05
-1.25901e-05
-1.43342e-05
-1.60956e-05
-1.7874e-05
-1.96692e-05
-2.14799e-05
-2.33039e-05
-2.51414e-05
-2.6995e-05
-2.88648e-05
-3.07476e-05
-3.26412e-05
-3.45464e-05
-3.64642e-05
-3.83929e-05
-4.03296e-05
-4.22735e-05
-4.42254e-05
-4.61869e-05
-4.81585e-05
-5.01394e-05
-5.21285e-05
-5.41259e-05
-5.6133e-05
-5.81492e-05
-6.01714e-05
-6.21977e-05
-6.42291e-05
-6.6268e-05
-6.83148e-05
-7.03684e-05
-7.24281e-05
-7.44945e-05
-7.65677e-05
-7.86466e-05
-8.07303e-05
-8.28179e-05
-8.4909e-05
-8.70038e-05
-8.91033e-05
-9.12074e-05
-9.33145e-05
-9.54225e-05
-9.75307e-05
-9.96389e-05
-0.000101748
-0.000103856
-0.000105964
-0.00010807
-0.000110175
-0.000112277
-0.000114375
-0.000116466
-0.000118546
-0.000120616
-0.000122676
-0.000124728
-0.000126772
-0.000128803
-0.00013082
-0.00013282
-0.000134803
-0.000136769
-0.000138718
-0.000140646
-0.00014255
-0.00014443
-0.000146283
-0.00014811
-0.00014991
-0.000151681
-0.000153419
-0.000155122
-0.000156787
-0.000158413
-0.00016
-0.000161547
-0.00016305
-0.000164507
-0.000165914
-0.000167269
-0.000168571
-0.000169818
-0.000171011
-0.000172146
-0.000173222
-0.000174236
-0.000175186
-0.00017607
-0.000176888
-0.00017764
-0.000178323
-0.000178936
-0.000179477
-0.000179946
-0.000180344
-0.000180672
-0.000180932
-0.000181124
-0.000181249
-0.00018131
-0.000181311
-0.000181258
-0.000181158
-0.000181018
-0.000180843
-0.000180642
-0.000180427
-0.000180209
-0.000179982
-0.00017974
1.16785e-05
1.24164e-05
1.32804e-05
1.42577e-05
1.53048e-05
1.63626e-05
1.73827e-05
1.83377e-05
1.92114e-05
1.99909e-05
2.06704e-05
2.12471e-05
2.17165e-05
2.20833e-05
2.23527e-05
2.25236e-05
2.25975e-05
2.25773e-05
2.24635e-05
2.22606e-05
2.19721e-05
2.15997e-05
2.11472e-05
2.06169e-05
2.001e-05
1.93293e-05
1.85765e-05
1.77535e-05
1.68636e-05
1.5909e-05
1.48931e-05
1.38205e-05
1.26937e-05
1.15148e-05
1.02868e-05
9.01222e-06
7.69479e-06
6.33894e-06
4.94735e-06
3.51983e-06
2.05762e-06
5.62491e-07
-9.65747e-07
-2.5276e-06
-4.12188e-06
-5.74535e-06
-7.39612e-06
-9.0726e-06
-1.07726e-05
-1.2494e-05
-1.42344e-05
-1.59929e-05
-1.77698e-05
-1.95651e-05
-2.13763e-05
-2.32011e-05
-2.50403e-05
-2.68965e-05
-2.87686e-05
-3.06542e-05
-3.25526e-05
-3.44637e-05
-3.63866e-05
-3.83198e-05
-4.0262e-05
-4.22126e-05
-4.41722e-05
-4.61421e-05
-4.81224e-05
-5.01118e-05
-5.21096e-05
-5.41166e-05
-5.61333e-05
-5.81584e-05
-6.01888e-05
-6.22237e-05
-6.42651e-05
-6.63143e-05
-6.83707e-05
-7.04331e-05
-7.25014e-05
-7.45767e-05
-7.6659e-05
-7.87469e-05
-8.0839e-05
-8.29337e-05
-8.50311e-05
-8.71327e-05
-8.92394e-05
-9.13504e-05
-9.34627e-05
-9.55747e-05
-9.76865e-05
-9.97981e-05
-0.00010191
-0.000104021
-0.00010613
-0.000108238
-0.000110344
-0.000112446
-0.000114542
-0.00011663
-0.000118706
-0.000120772
-0.000122828
-0.000124875
-0.000126912
-0.000128936
-0.000130945
-0.000132936
-0.000134909
-0.000136865
-0.000138804
-0.00014072
-0.000142612
-0.000144478
-0.000146318
-0.000148131
-0.000149917
-0.000151672
-0.000153393
-0.000155079
-0.000156727
-0.000158337
-0.000159909
-0.000161439
-0.000162926
-0.000164366
-0.000165756
-0.000167094
-0.000168381
-0.000169615
-0.000170793
-0.000171914
-0.000172976
-0.000173977
-0.000174916
-0.000175791
-0.000176603
-0.000177348
-0.000178026
-0.000178635
-0.000179174
-0.000179643
-0.000180044
-0.000180378
-0.000180645
-0.000180846
-0.000180981
-0.000181053
-0.000181066
-0.000181027
-0.000180939
-0.000180809
-0.000180642
-0.000180441
-0.000180215
-0.000179974
-0.000179703
-0.000179386
1.30137e-05
1.37101e-05
1.44696e-05
1.53004e-05
1.61923e-05
1.70991e-05
1.79868e-05
1.88279e-05
1.96011e-05
2.02947e-05
2.09039e-05
2.14196e-05
2.18401e-05
2.21677e-05
2.24012e-05
2.25431e-05
2.25958e-05
2.25578e-05
2.24312e-05
2.22184e-05
2.19218e-05
2.15453e-05
2.10915e-05
2.05619e-05
1.9958e-05
1.92805e-05
1.85308e-05
1.77128e-05
1.68293e-05
1.58823e-05
1.48751e-05
1.38106e-05
1.26921e-05
1.15226e-05
1.03041e-05
9.03897e-06
7.73159e-06
6.38572e-06
5.0026e-06
3.58344e-06
2.1304e-06
6.43124e-07
-8.79597e-07
-2.43652e-06
-4.02525e-06
-5.6439e-06
-7.29054e-06
-8.96343e-06
-1.06603e-05
-1.23789e-05
-1.41175e-05
-1.58753e-05
-1.76524e-05
-1.94473e-05
-2.12584e-05
-2.30857e-05
-2.49298e-05
-2.67901e-05
-2.8665e-05
-3.0554e-05
-3.24577e-05
-3.43752e-05
-3.63041e-05
-3.82428e-05
-4.01908e-05
-4.21484e-05
-4.41166e-05
-4.60954e-05
-4.8084e-05
-5.00818e-05
-5.20895e-05
-5.41074e-05
-5.61343e-05
-5.81679e-05
-6.02065e-05
-6.22507e-05
-6.43022e-05
-6.63613e-05
-6.8427e-05
-7.04988e-05
-7.25769e-05
-7.46616e-05
-7.67528e-05
-7.88494e-05
-8.09497e-05
-8.30522e-05
-8.51571e-05
-8.72663e-05
-8.93802e-05
-9.14972e-05
-9.36148e-05
-9.57316e-05
-9.78481e-05
-9.99639e-05
-0.000102078
-0.000104191
-0.000106303
-0.000108413
-0.00011052
-0.000112623
-0.000114718
-0.000116803
-0.000118877
-0.000120941
-0.000122994
-0.000125036
-0.000127068
-0.000129085
-0.000131086
-0.00013307
-0.000135036
-0.000136984
-0.000138913
-0.000140819
-0.000142699
-0.000144553
-0.000146381
-0.000148182
-0.000149955
-0.000151696
-0.000153403
-0.000155074
-0.000156707
-0.000158302
-0.00015986
-0.000161376
-0.000162848
-0.000164274
-0.000165649
-0.000166972
-0.000168245
-0.000169466
-0.000170633
-0.000171742
-0.000172792
-0.000173782
-0.00017471
-0.000175578
-0.000176383
-0.000177123
-0.000177797
-0.000178403
-0.00017894
-0.000179409
-0.000179813
-0.000180152
-0.000180425
-0.000180631
-0.000180773
-0.000180853
-0.000180876
-0.000180844
-0.000180763
-0.000180637
-0.000180469
-0.000180262
-0.000180021
-0.000179753
-0.000179436
-0.000179046
1.41632e-05
1.48445e-05
1.55432e-05
1.62797e-05
1.70607e-05
1.78548e-05
1.86351e-05
1.93776e-05
2.00636e-05
2.06808e-05
2.12201e-05
2.16777e-05
2.20528e-05
2.23405e-05
2.25403e-05
2.26542e-05
2.26819e-05
2.26242e-05
2.24827e-05
2.22581e-05
2.19531e-05
2.15706e-05
2.1112e-05
2.05801e-05
1.99754e-05
1.92982e-05
1.85507e-05
1.77354e-05
1.68554e-05
1.59139e-05
1.49129e-05
1.38548e-05
1.27428e-05
1.15798e-05
1.03676e-05
9.11045e-06
7.81213e-06
6.47388e-06
5.09718e-06
3.68492e-06
2.23813e-06
7.55381e-07
-7.63481e-07
-2.31642e-06
-3.90134e-06
-5.51686e-06
-7.16099e-06
-8.83185e-06
-1.05267e-05
-1.22432e-05
-1.39813e-05
-1.57406e-05
-1.75195e-05
-1.93151e-05
-2.11272e-05
-2.29578e-05
-2.48071e-05
-2.66722e-05
-2.85516e-05
-3.04458e-05
-3.23555e-05
-3.42793e-05
-3.62145e-05
-3.81595e-05
-4.01144e-05
-4.208e-05
-4.40572e-05
-4.60452e-05
-4.80425e-05
-5.00493e-05
-5.20673e-05
-5.40962e-05
-5.61331e-05
-5.81755e-05
-6.02233e-05
-6.22777e-05
-6.43397e-05
-6.64085e-05
-6.84834e-05
-7.05649e-05
-7.26533e-05
-7.47482e-05
-7.68489e-05
-7.89539e-05
-8.10618e-05
-8.31722e-05
-8.52859e-05
-8.74039e-05
-8.95254e-05
-9.16484e-05
-9.37712e-05
-9.58933e-05
-9.80149e-05
-0.000100135
-0.000102253
-0.000104369
-0.000106483
-0.000108595
-0.000110705
-0.000112809
-0.000114905
-0.000116988
-0.00011906
-0.000121121
-0.000123172
-0.000125213
-0.00012724
-0.000129251
-0.000131245
-0.000133223
-0.000135183
-0.000137125
-0.000139045
-0.000140941
-0.000142812
-0.000144657
-0.000146474
-0.000148264
-0.000150025
-0.000151754
-0.000153449
-0.000155106
-0.000156726
-0.000158309
-0.000159854
-0.000161357
-0.000162816
-0.000164228
-0.000165591
-0.000166903
-0.000168164
-0.000169373
-0.000170528
-0.000171627
-0.000172667
-0.000173648
-0.000174568
-0.000175429
-0.000176228
-0.000176963
-0.000177633
-0.000178236
-0.000178772
-0.000179242
-0.000179649
-0.000179991
-0.000180268
-0.000180479
-0.000180626
-0.000180711
-0.000180738
-0.000180712
-0.000180634
-0.000180506
-0.000180332
-0.000180114
-0.000179854
-0.000179559
-0.000179197
-0.000178739
1.51872e-05
1.58726e-05
1.6537e-05
1.72089e-05
1.79129e-05
1.86235e-05
1.93156e-05
1.99745e-05
2.0586e-05
2.1134e-05
2.16118e-05
2.20174e-05
2.2346e-05
2.25949e-05
2.27629e-05
2.28483e-05
2.28511e-05
2.27727e-05
2.26136e-05
2.23756e-05
2.2061e-05
2.16709e-05
2.12067e-05
2.06696e-05
2.00607e-05
1.93816e-05
1.86339e-05
1.78193e-05
1.69411e-05
1.60024e-05
1.50051e-05
1.39517e-05
1.28447e-05
1.16859e-05
1.04786e-05
9.22761e-06
7.93517e-06
6.6022e-06
5.23133e-06
3.82445e-06
2.38093e-06
9.00359e-07
-6.16092e-07
-2.16657e-06
-3.74969e-06
-5.36357e-06
-7.00665e-06
-8.67674e-06
-1.03706e-05
-1.20866e-05
-1.38256e-05
-1.5587e-05
-1.73678e-05
-1.91659e-05
-2.0982e-05
-2.28174e-05
-2.46711e-05
-2.6541e-05
-2.84266e-05
-3.03279e-05
-3.22443e-05
-3.41744e-05
-3.61161e-05
-3.80682e-05
-4.0031e-05
-4.20056e-05
-4.39922e-05
-4.59893e-05
-4.79962e-05
-5.00136e-05
-5.20427e-05
-5.4082e-05
-5.61283e-05
-5.818e-05
-6.02379e-05
-6.23032e-05
-6.43758e-05
-6.64547e-05
-6.85395e-05
-7.0631e-05
-7.27298e-05
-7.48355e-05
-7.69462e-05
-7.906e-05
-8.11757e-05
-8.32942e-05
-8.54171e-05
-8.75443e-05
-8.96737e-05
-9.18033e-05
-9.39323e-05
-9.60603e-05
-9.81872e-05
-0.000100312
-0.000102434
-0.000104553
-0.000106671
-0.000108787
-0.000110899
-0.000113004
-0.0001151
-0.000117183
-0.000119254
-0.000121315
-0.000123365
-0.000125404
-0.000127427
-0.000129434
-0.000131423
-0.000133396
-0.000135351
-0.000137287
-0.000139201
-0.000141089
-0.000142951
-0.000144787
-0.000146596
-0.000148377
-0.000150129
-0.000151847
-0.000153529
-0.000155175
-0.000156784
-0.000158357
-0.000159891
-0.000161383
-0.000162831
-0.000164231
-0.000165583
-0.000166885
-0.000168137
-0.000169336
-0.00017048
-0.000171569
-0.000172601
-0.000173573
-0.000174488
-0.000175343
-0.000176137
-0.000176868
-0.000177534
-0.000178134
-0.00017867
-0.000179141
-0.00017955
-0.000179895
-0.000180175
-0.000180389
-0.000180539
-0.000180626
-0.000180656
-0.000180631
-0.000180553
-0.000180421
-0.000180239
-0.000180006
-0.000179726
-0.000179403
-0.000178999
-0.000178481
1.61331e-05
1.68318e-05
1.74769e-05
1.81063e-05
1.87546e-05
1.94001e-05
2.00232e-05
2.06136e-05
2.11577e-05
2.16462e-05
2.20724e-05
2.243e-05
2.2715e-05
2.29271e-05
2.30626e-05
2.31194e-05
2.30984e-05
2.29989e-05
2.28218e-05
2.25691e-05
2.22422e-05
2.18427e-05
2.13711e-05
2.08269e-05
2.02122e-05
1.95289e-05
1.87786e-05
1.79631e-05
1.70853e-05
1.61472e-05
1.51515e-05
1.41006e-05
1.29959e-05
1.184e-05
1.06373e-05
9.39036e-06
8.10084e-06
6.77166e-06
5.40508e-06
4.00089e-06
2.55848e-06
1.07886e-06
-4.36626e-07
-1.98643e-06
-3.56925e-06
-5.18323e-06
-6.82646e-06
-8.49631e-06
-1.01905e-05
-1.19087e-05
-1.36503e-05
-1.54134e-05
-1.71962e-05
-1.89985e-05
-2.08206e-05
-2.26619e-05
-2.45206e-05
-2.63962e-05
-2.82888e-05
-3.0198e-05
-3.21221e-05
-3.40592e-05
-3.60078e-05
-3.79677e-05
-3.99397e-05
-4.19241e-05
-4.39199e-05
-4.59263e-05
-4.79437e-05
-4.99731e-05
-5.20138e-05
-5.40632e-05
-5.6119e-05
-5.81808e-05
-6.02497e-05
-6.2326e-05
-6.44092e-05
-6.64986e-05
-6.85942e-05
-7.06965e-05
-7.28062e-05
-7.49224e-05
-7.70431e-05
-7.9166e-05
-8.12906e-05
-8.34184e-05
-8.55507e-05
-8.76868e-05
-8.98241e-05
-9.19611e-05
-9.40972e-05
-9.62319e-05
-9.83645e-05
-0.000100494
-0.00010262
-0.000104744
-0.000106867
-0.000108987
-0.000111102
-0.000113209
-0.000115305
-0.000117389
-0.000119461
-0.000121522
-0.000123572
-0.000125609
-0.00012763
-0.000129633
-0.00013162
-0.000133589
-0.000135541
-0.000137472
-0.00013938
-0.000141262
-0.000143117
-0.000144946
-0.000146748
-0.000148522
-0.000150265
-0.000151974
-0.000153646
-0.000155282
-0.000156882
-0.000158445
-0.000159971
-0.000161454
-0.000162891
-0.000164281
-0.000165624
-0.000166917
-0.000168161
-0.000169352
-0.000170488
-0.000171568
-0.000172592
-0.000173558
-0.000174468
-0.000175318
-0.000176108
-0.000176836
-0.000177499
-0.000178097
-0.000178632
-0.000179105
-0.000179516
-0.000179862
-0.000180144
-0.00018036
-0.000180512
-0.0001806
-0.00018063
-0.000180604
-0.000180523
-0.000180386
-0.000180194
-0.000179946
-0.000179646
-0.000179295
-0.000178854
-0.000178282
1.70347e-05
1.77489e-05
1.83873e-05
1.89875e-05
1.95915e-05
2.01864e-05
2.07572e-05
2.12895e-05
2.17768e-05
2.22147e-05
2.25937e-05
2.29083e-05
2.31552e-05
2.33317e-05
2.34351e-05
2.34643e-05
2.34187e-05
2.32981e-05
2.31036e-05
2.28355e-05
2.24953e-05
2.20842e-05
2.16022e-05
2.10495e-05
2.04279e-05
1.97382e-05
1.89833e-05
1.81654e-05
1.72859e-05
1.63471e-05
1.53517e-05
1.43005e-05
1.31959e-05
1.20422e-05
1.08425e-05
9.59728e-06
8.30983e-06
6.98329e-06
5.61828e-06
4.21424e-06
2.77147e-06
1.29144e-06
-2.24527e-07
-1.77533e-06
-3.35946e-06
-4.97514e-06
-6.61932e-06
-8.28973e-06
-9.986e-06
-1.17079e-05
-1.34531e-05
-1.5219e-05
-1.7005e-05
-1.88127e-05
-2.06415e-05
-2.24892e-05
-2.43542e-05
-2.62369e-05
-2.81375e-05
-3.00549e-05
-3.1987e-05
-3.39317e-05
-3.58881e-05
-3.78571e-05
-3.98392e-05
-4.18337e-05
-4.38391e-05
-4.58555e-05
-4.78845e-05
-4.99264e-05
-5.19785e-05
-5.40381e-05
-5.61041e-05
-5.81771e-05
-6.02576e-05
-6.2345e-05
-6.44388e-05
-6.65392e-05
-6.86463e-05
-7.07606e-05
-7.28819e-05
-7.50087e-05
-7.71388e-05
-7.92709e-05
-8.14056e-05
-8.35438e-05
-8.56859e-05
-8.78307e-05
-8.99762e-05
-9.21212e-05
-9.42653e-05
-9.64072e-05
-9.8546e-05
-0.000100681
-0.000102812
-0.000104942
-0.00010707
-0.000109195
-0.000111313
-0.000113423
-0.00011552
-0.000117606
-0.00011968
-0.000121743
-0.000123794
-0.00012583
-0.000127848
-0.00012985
-0.000131835
-0.000133803
-0.000135753
-0.00013768
-0.000139583
-0.00014146
-0.00014331
-0.000145134
-0.00014693
-0.000148698
-0.000150434
-0.000152135
-0.000153799
-0.000155427
-0.00015702
-0.000158576
-0.000160093
-0.000161568
-0.000162997
-0.000164379
-0.000165714
-0.000167
-0.000168237
-0.000169421
-0.00017055
-0.000171623
-0.000172641
-0.000173603
-0.000174508
-0.000175355
-0.000176141
-0.000176866
-0.000177526
-0.000178124
-0.000178658
-0.000179132
-0.000179545
-0.000179893
-0.000180176
-0.000180393
-0.000180545
-0.000180634
-0.000180663
-0.000180635
-0.000180549
-0.000180405
-0.000180202
-0.00017994
-0.000179619
-0.000179244
-0.000178769
-0.000178151
1.79163e-05
1.86474e-05
1.92834e-05
1.98627e-05
2.04329e-05
2.09885e-05
2.1514e-05
2.20005e-05
2.24437e-05
2.28361e-05
2.31725e-05
2.34492e-05
2.36605e-05
2.38035e-05
2.38769e-05
2.38789e-05
2.38088e-05
2.36673e-05
2.34544e-05
2.31708e-05
2.28168e-05
2.23923e-05
2.1898e-05
2.13354e-05
2.07048e-05
2.00078e-05
1.92472e-05
1.84245e-05
1.75416e-05
1.66011e-05
1.56036e-05
1.45505e-05
1.34456e-05
1.22925e-05
1.10926e-05
9.84804e-06
8.56224e-06
7.23649e-06
5.87051e-06
4.46489e-06
3.02038e-06
1.53833e-06
2.03607e-08
-1.53282e-06
-3.11989e-06
-4.73824e-06
-6.38421e-06
-8.0569e-06
-9.7571e-06
-1.14832e-05
-1.32321e-05
-1.50022e-05
-1.67941e-05
-1.86083e-05
-2.04436e-05
-2.2298e-05
-2.41708e-05
-2.60622e-05
-2.79716e-05
-2.98976e-05
-3.18378e-05
-3.37907e-05
-3.57562e-05
-3.77353e-05
-3.97279e-05
-4.17326e-05
-4.37484e-05
-4.57766e-05
-4.78182e-05
-4.98723e-05
-5.19355e-05
-5.40057e-05
-5.60829e-05
-5.81677e-05
-6.026e-05
-6.23589e-05
-6.4464e-05
-6.65759e-05
-6.86951e-05
-7.08221e-05
-7.29556e-05
-7.50933e-05
-7.7233e-05
-7.93747e-05
-8.15201e-05
-8.36694e-05
-8.58216e-05
-8.79755e-05
-9.01298e-05
-9.22836e-05
-9.4436e-05
-9.65855e-05
-9.8731e-05
-0.000100872
-0.00010301
-0.000105147
-0.000107281
-0.000109411
-0.000111534
-0.000113646
-0.000115746
-0.000117834
-0.000119911
-0.000121978
-0.00012403
-0.000126065
-0.000128084
-0.000130085
-0.00013207
-0.000134039
-0.000135986
-0.000137911
-0.00013981
-0.000141683
-0.00014353
-0.00014535
-0.000147143
-0.000148906
-0.000150635
-0.00015233
-0.000153988
-0.000155612
-0.000157199
-0.000158749
-0.00016026
-0.000161726
-0.000163148
-0.000164525
-0.000165854
-0.000167135
-0.000168365
-0.000169542
-0.000170666
-0.000171734
-0.000172748
-0.000173706
-0.000174608
-0.000175452
-0.000176236
-0.000176958
-0.000177617
-0.000178214
-0.000178749
-0.000179224
-0.000179637
-0.000179986
-0.00018027
-0.000180487
-0.00018064
-0.000180729
-0.000180757
-0.000180726
-0.000180635
-0.000180483
-0.000180269
-0.000179992
-0.000179653
-0.000179256
-0.000178751
-0.000178094
1.88002e-05
1.95425e-05
2.01757e-05
2.07414e-05
2.12886e-05
2.18094e-05
2.22984e-05
2.27495e-05
2.31543e-05
2.35078e-05
2.38075e-05
2.40486e-05
2.42262e-05
2.43385e-05
2.43837e-05
2.43596e-05
2.42664e-05
2.41037e-05
2.38721e-05
2.35721e-05
2.32025e-05
2.27636e-05
2.22565e-05
2.16817e-05
2.10408e-05
2.03358e-05
1.9568e-05
1.87393e-05
1.7852e-05
1.6907e-05
1.59052e-05
1.48502e-05
1.37444e-05
1.25894e-05
1.1388e-05
1.01433e-05
8.85725e-06
7.53004e-06
6.16156e-06
4.75295e-06
3.30534e-06
1.82002e-06
2.9808e-07
-1.25927e-06
-2.85005e-06
-4.47114e-06
-6.12062e-06
-7.79824e-06
-9.50335e-06
-1.12335e-05
-1.29866e-05
-1.47628e-05
-1.65622e-05
-1.83839e-05
-2.02262e-05
-2.20882e-05
-2.39698e-05
-2.58708e-05
-2.77899e-05
-2.97248e-05
-3.16736e-05
-3.36357e-05
-3.56115e-05
-3.76016e-05
-3.96047e-05
-4.16196e-05
-4.36471e-05
-4.56884e-05
-4.77432e-05
-4.98092e-05
-5.18836e-05
-5.39653e-05
-5.60545e-05
-5.81515e-05
-6.02558e-05
-6.23666e-05
-6.44838e-05
-6.66081e-05
-6.87403e-05
-7.08804e-05
-7.30261e-05
-7.51748e-05
-7.73249e-05
-7.94773e-05
-8.16339e-05
-8.37942e-05
-8.59569e-05
-8.81205e-05
-9.02846e-05
-9.2448e-05
-9.46093e-05
-9.67667e-05
-9.89197e-05
-0.000101069
-0.000103215
-0.000105359
-0.0001075
-0.000109636
-0.000111763
-0.000113878
-0.000115982
-0.000118075
-0.000120156
-0.000122225
-0.000124279
-0.000126316
-0.000128336
-0.000130339
-0.000132326
-0.000134295
-0.000136242
-0.000138165
-0.000140062
-0.000141932
-0.000143777
-0.000145595
-0.000147386
-0.000149145
-0.00015087
-0.000152561
-0.000154215
-0.000155835
-0.000157419
-0.000158964
-0.000160469
-0.00016193
-0.000163346
-0.000164717
-0.000166043
-0.000167319
-0.000168545
-0.000169718
-0.000170836
-0.000171901
-0.000172912
-0.000173868
-0.000174768
-0.00017561
-0.000176393
-0.000177112
-0.00017777
-0.000178367
-0.000178903
-0.000179379
-0.000179793
-0.000180143
-0.000180428
-0.000180646
-0.000180799
-0.000180887
-0.000180914
-0.00018088
-0.000180783
-0.000180623
-0.000180398
-0.000180108
-0.000179754
-0.000179338
-0.000178808
-0.000178117
1.96984e-05
2.04477e-05
2.10778e-05
2.16338e-05
2.21613e-05
2.2657e-05
2.31177e-05
2.35363e-05
2.39082e-05
2.42296e-05
2.44961e-05
2.47041e-05
2.48509e-05
2.4934e-05
2.49516e-05
2.49032e-05
2.47875e-05
2.46044e-05
2.43544e-05
2.40363e-05
2.36499e-05
2.3196e-05
2.26746e-05
2.20868e-05
2.1435e-05
2.07202e-05
1.99439e-05
1.91086e-05
1.8215e-05
1.72634e-05
1.62568e-05
1.51987e-05
1.409e-05
1.2932e-05
1.1729e-05
1.0483e-05
9.19434e-06
7.8635e-06
6.49122e-06
5.07854e-06
3.62649e-06
2.1363e-06
6.08771e-07
-9.54032e-07
-2.54902e-06
-4.17392e-06
-5.82875e-06
-7.51276e-06
-9.22332e-06
-1.09583e-05
-1.27172e-05
-1.45008e-05
-1.63084e-05
-1.8138e-05
-1.99885e-05
-2.18595e-05
-2.37509e-05
-2.56622e-05
-2.75912e-05
-2.95354e-05
-3.14935e-05
-3.3466e-05
-3.54533e-05
-3.74547e-05
-3.94684e-05
-4.14946e-05
-4.35351e-05
-4.55903e-05
-4.76583e-05
-4.97361e-05
-5.18222e-05
-5.39162e-05
-5.60183e-05
-5.81278e-05
-6.02443e-05
-6.23674e-05
-6.44975e-05
-6.66354e-05
-6.87815e-05
-7.09348e-05
-7.30925e-05
-7.52524e-05
-7.7414e-05
-7.95785e-05
-8.17468e-05
-8.39181e-05
-8.60913e-05
-8.82655e-05
-9.044e-05
-9.26138e-05
-9.47845e-05
-9.69506e-05
-9.91121e-05
-0.00010127
-0.000103424
-0.000105577
-0.000107726
-0.000109868
-0.000112
-0.00011412
-0.000116229
-0.000118327
-0.000120414
-0.000122487
-0.000124543
-0.000126582
-0.000128605
-0.000130612
-0.000132602
-0.000134572
-0.00013652
-0.000138442
-0.000140338
-0.000142208
-0.000144052
-0.00014587
-0.000147659
-0.000149416
-0.000151139
-0.000152827
-0.00015448
-0.000156097
-0.000157678
-0.00015922
-0.000160721
-0.000162178
-0.00016359
-0.000164958
-0.00016628
-0.000167554
-0.000168777
-0.000169947
-0.000171062
-0.000172125
-0.000173134
-0.000174088
-0.000174988
-0.000175829
-0.000176611
-0.00017733
-0.000177988
-0.000178585
-0.000179122
-0.000179598
-0.000180013
-0.000180364
-0.00018065
-0.000180869
-0.000181022
-0.000181111
-0.000181136
-0.000181099
-0.000180997
-0.000180829
-0.000180594
-0.000180292
-0.000179925
-0.000179493
-0.000178943
-0.000178225
2.06197e-05
2.13763e-05
2.20033e-05
2.2547e-05
2.30609e-05
2.35386e-05
2.39734e-05
2.43639e-05
2.47077e-05
2.49996e-05
2.52357e-05
2.54143e-05
2.55326e-05
2.55879e-05
2.55801e-05
2.55075e-05
2.53699e-05
2.51672e-05
2.48975e-05
2.45606e-05
2.4157e-05
2.36866e-05
2.315e-05
2.25492e-05
2.18852e-05
2.11593e-05
2.03741e-05
1.95306e-05
1.86286e-05
1.76704e-05
1.66587e-05
1.55951e-05
1.44816e-05
1.33206e-05
1.21149e-05
1.08657e-05
9.57284e-06
8.23703e-06
6.85928e-06
5.44108e-06
3.98338e-06
2.48654e-06
9.52238e-07
-6.16398e-07
-2.21624e-06
-3.84703e-06
-5.50888e-06
-7.1993e-06
-8.91556e-06
-1.0657e-05
-1.24238e-05
-1.42158e-05
-1.60318e-05
-1.78699e-05
-1.97298e-05
-2.16113e-05
-2.35139e-05
-2.54358e-05
-2.73748e-05
-2.93287e-05
-3.12973e-05
-3.32814e-05
-3.52805e-05
-3.7293e-05
-3.93183e-05
-4.13574e-05
-4.3412e-05
-4.54813e-05
-4.75621e-05
-4.96522e-05
-5.17509e-05
-5.3858e-05
-5.59732e-05
-5.80958e-05
-6.0225e-05
-6.2361e-05
-6.45048e-05
-6.66574e-05
-6.88181e-05
-7.09847e-05
-7.31542e-05
-7.53258e-05
-7.75e-05