/*--------------------------------*- C++ -*----------------------------------*\
  =========                 |
  \\      /  F ield         | OpenFOAM: The Open Source CFD Toolbox
   \\    /   O peration     | Website:  https://openfoam.org
    \\  /    A nd           | Version:  7
     \\/     M anipulation  |
\*---------------------------------------------------------------------------*/
FoamFile
{
    version     2.0;
    format      ascii;
    class       surfaceScalarField;
    location    "0.425";
    object      phi;
}
// * * * * * * * * * * * * * * * * * * * * * * * * * * * * * * * * * * * * * //

dimensions      [0 3 -1 0 0 0 0];

internalField   nonuniform List<scalar> 
101920
(
-7.16787e-14
1.66848e-13
-6.0287e-13
5.28064e-13
-6.82128e-13
8.40821e-14
-5.59918e-13
-1.25807e-13
-1.85675e-13
-3.74686e-13
3.94625e-13
-5.78653e-13
1.13525e-12
-7.43328e-13
2.01014e-12
-8.73054e-13
2.98841e-12
-9.78779e-13
4.05122e-12
-1.06195e-12
5.18071e-12
-1.12824e-12
6.35932e-12
-1.17991e-12
7.57673e-12
-1.21627e-12
8.81806e-12
-1.24086e-12
1.00745e-11
-1.25455e-12
1.13355e-11
-1.26043e-12
1.25925e-11
-1.25708e-12
1.3837e-11
-1.24585e-12
1.50636e-11
-1.22675e-12
1.62673e-11
-1.20017e-12
1.74408e-11
-1.17187e-12
1.85816e-11
-1.139e-12
1.96843e-11
-1.10208e-12
2.07455e-11
-1.06226e-12
2.17633e-11
-1.01773e-12
2.27341e-11
-9.7143e-13
2.36572e-11
-9.24797e-13
2.45321e-11
-8.75917e-13
2.53558e-11
-8.25446e-13
2.61276e-11
-7.74077e-13
2.6848e-11
-7.21543e-13
2.75154e-11
-6.69241e-13
2.81311e-11
-6.17339e-13
2.86967e-11
-5.65975e-13
2.92115e-11
-5.15874e-13
2.96767e-11
-4.65896e-13
3.00941e-11
-4.16381e-13
3.04646e-11
-3.69757e-13
3.07897e-11
-3.24929e-13
3.10714e-11
-2.80223e-13
3.13101e-11
-2.37733e-13
3.15086e-11
-1.98232e-13
3.16698e-11
-1.60391e-13
3.1795e-11
-1.24625e-13
3.1886e-11
-9.17614e-14
3.1946e-11
-6.03334e-14
3.19761e-11
-3.02079e-14
3.19784e-11
-2.31758e-15
3.19552e-11
2.28459e-14
3.19095e-11
4.52124e-14
3.18434e-11
6.50377e-14
3.17587e-11
8.32503e-14
3.16585e-11
1.00066e-13
3.15452e-11
1.14273e-13
3.14202e-11
1.25018e-13
3.12862e-11
1.33199e-13
3.11455e-11
1.40043e-13
3.1e-11
1.45095e-13
3.08511e-11
1.47747e-13
3.07013e-11
1.4879e-13
3.05526e-11
1.48521e-13
3.04061e-11
1.46121e-13
3.02641e-11
1.41699e-13
3.01292e-11
1.36178e-13
3.00018e-11
1.29262e-13
2.98824e-11
1.20087e-13
2.97734e-11
1.08756e-13
2.96765e-11
9.5925e-14
2.95924e-11
8.21154e-14
2.95221e-11
6.80576e-14
2.94667e-11
5.42198e-14
2.94271e-11
3.98967e-14
2.94034e-11
2.41048e-14
2.9396e-11
7.25446e-15
2.94055e-11
-9.5539e-15
2.94324e-11
-2.61791e-14
2.94766e-11
-4.33095e-14
2.95383e-11
-6.11237e-14
2.96182e-11
-7.90885e-14
2.97159e-11
-9.67345e-14
2.98306e-11
-1.14301e-13
2.99614e-11
-1.31923e-13
3.01086e-11
-1.48746e-13
3.02722e-11
-1.64146e-13
3.04511e-11
-1.78662e-13
3.06446e-11
-1.92854e-13
3.08518e-11
-2.06368e-13
3.10715e-11
-2.18647e-13
3.13024e-11
-2.29971e-13
3.15435e-11
-2.40707e-13
3.17936e-11
-2.5027e-13
3.20513e-11
-2.57982e-13
3.23145e-11
-2.63773e-13
3.25817e-11
-2.67941e-13
3.28516e-11
-2.70636e-13
3.31225e-11
-2.71404e-13
3.33925e-11
-2.70124e-13
3.36596e-11
-2.67075e-13
3.39219e-11
-2.62174e-13
3.4178e-11
-2.5545e-13
3.44251e-11
-2.46926e-13
3.46604e-11
-2.36146e-13
3.4882e-11
-2.22805e-13
3.50882e-11
-2.07005e-13
3.52773e-11
-1.88961e-13
3.54469e-11
-1.69011e-13
3.55938e-11
-1.47012e-13
3.5716e-11
-1.22603e-13
3.58118e-11
-9.60734e-14
3.58784e-11
-6.74759e-14
3.59142e-11
-3.66695e-14
3.59172e-11
-3.73732e-15
3.58848e-11
3.17167e-14
3.58158e-11
6.94214e-14
3.57075e-11
1.08662e-13
3.55574e-11
1.4965e-13
3.53646e-11
1.92747e-13
3.51272e-11
2.37716e-13
3.4843e-11
2.84409e-13
3.45109e-11
3.32519e-13
3.41293e-11
3.81525e-13
3.36963e-11
4.31874e-13
3.32114e-11
4.84112e-13
3.26744e-11
5.37312e-13
3.20836e-11
5.90714e-13
3.14395e-11
6.44398e-13
3.0742e-11
6.98042e-13
2.99898e-11
7.5174e-13
2.91832e-11
8.0593e-13
2.83233e-11
8.59906e-13
2.74105e-11
9.12714e-13
2.64463e-11
9.64144e-13
2.54332e-11
1.01384e-12
2.43723e-11
1.0613e-12
2.32651e-11
1.10678e-12
2.21146e-11
1.15029e-12
2.09242e-11
1.19052e-12
1.9697e-11
1.22651e-12
1.84381e-11
1.25838e-12
1.7153e-11
1.28568e-12
1.5846e-11
1.30739e-12
1.45231e-11
1.32283e-12
1.31917e-11
1.33127e-12
1.1859e-11
1.33196e-12
1.05335e-11
1.32455e-12
9.22546e-12
1.30823e-12
7.94581e-12
1.28102e-12
6.70482e-12
1.24153e-12
5.51475e-12
1.18954e-12
4.39046e-12
1.12413e-12
3.34737e-12
1.04311e-12
2.40186e-12
9.44753e-13
1.57225e-12
8.28625e-13
8.7746e-13
6.94451e-13
3.35477e-13
5.4208e-13
-3.69987e-14
3.73011e-13
-2.28515e-13
1.92208e-13
-2.43764e-13
1.29636e-14
-1.24999e-13
-1.26732e-13
-1.32867e-13
3.59951e-13
-1.964e-13
4.46716e-13
4.39361e-13
6.15527e-13
-8.27008e-14
1.26293e-12
-7.72701e-13
2.37075e-12
-1.48134e-12
3.91717e-12
-2.12692e-12
5.86132e-12
-2.68491e-12
8.14302e-12
-3.15767e-12
1.07137e-11
-3.54891e-12
1.35218e-11
-3.86987e-12
1.65208e-11
-4.12839e-12
1.96727e-11
-4.33067e-12
2.29366e-11
-4.48238e-12
2.62803e-11
-4.58607e-12
2.96733e-11
-4.64954e-12
3.3089e-11
-4.67504e-12
3.65018e-11
-4.66946e-12
3.98895e-11
-4.63562e-12
4.32342e-11
-4.57202e-12
4.65151e-11
-4.48646e-12
4.972e-11
-4.37995e-12
5.2835e-11
-4.25463e-12
5.58478e-11
-4.11564e-12
5.87498e-11
-3.9625e-12
6.15303e-11
-3.79763e-12
6.41829e-11
-3.62449e-12
6.6704e-11
-3.44336e-12
6.90864e-11
-3.25648e-12
7.13278e-11
-3.06537e-12
7.3427e-11
-2.87052e-12
7.5381e-11
-2.6742e-12
7.71899e-11
-2.47729e-12
7.88556e-11
-2.28074e-12
8.03773e-11
-2.08753e-12
8.17579e-11
-1.89712e-12
8.30015e-11
-1.70848e-12
8.41089e-11
-1.52479e-12
8.50842e-11
-1.34708e-12
8.59328e-11
-1.17386e-12
8.6658e-11
-1.00641e-12
8.72644e-11
-8.46546e-13
8.77587e-11
-6.93715e-13
8.81457e-11
-5.48198e-13
8.84309e-11
-4.10943e-13
8.86216e-11
-2.8211e-13
8.87233e-11
-1.61592e-13
8.87411e-11
-4.92702e-14
8.86827e-11
5.53131e-14
8.85555e-11
1.51123e-13
8.83652e-11
2.37076e-13
8.81176e-11
3.1312e-13
8.78198e-11
3.80715e-13
8.7479e-11
4.40658e-13
8.71012e-11
4.91556e-13
8.66927e-11
5.33067e-13
8.62603e-11
5.66465e-13
8.58094e-11
5.91839e-13
8.53458e-11
6.08597e-13
8.48762e-11
6.17479e-13
8.44066e-11
6.19336e-13
8.39412e-11
6.13574e-13
8.34848e-11
6.00098e-13
8.30434e-11
5.80218e-13
8.26215e-11
5.54901e-13
8.22227e-11
5.24218e-13
8.1852e-11
4.88509e-13
8.15145e-11
4.47707e-13
8.12127e-11
4.00867e-13
8.09486e-11
3.48198e-13
8.0726e-11
2.91786e-13
8.05477e-11
2.33169e-13
8.04157e-11
1.71937e-13
8.03319e-11
1.07466e-13
8.02984e-11
4.05983e-14
8.03163e-11
-2.74211e-14
8.0386e-11
-9.6485e-14
8.05081e-11
-1.66797e-13
8.06833e-11
-2.37545e-13
8.09116e-11
-3.07669e-13
8.11924e-11
-3.76927e-13
8.1525e-11
-4.45516e-13
8.1909e-11
-5.13335e-13
8.23429e-11
-5.79743e-13
8.28242e-11
-6.44049e-13
8.33507e-11
-7.05668e-13
8.39208e-11
-7.63749e-13
8.45325e-11
-8.1785e-13
8.51819e-11
-8.68085e-13
8.58654e-11
-9.14283e-13
8.65801e-11
-9.55829e-13
8.73223e-11
-9.92001e-13
8.80876e-11
-1.0225e-12
8.88712e-11
-1.04729e-12
8.96686e-11
-1.0657e-12
9.04759e-11
-1.07738e-12
9.1287e-11
-1.08248e-12
9.20965e-11
-1.08069e-12
9.28991e-11
-1.07147e-12
9.36895e-11
-1.05415e-12
9.44622e-11
-1.02843e-12
9.52112e-11
-9.9499e-13
9.59298e-11
-9.54022e-13
9.66119e-11
-9.04688e-13
9.72511e-11
-8.46602e-13
9.78409e-11
-7.79808e-13
9.83753e-11
-7.04402e-13
9.88475e-11
-6.20537e-13
9.92513e-11
-5.27671e-13
9.95809e-11
-4.25769e-13
9.9829e-11
-3.15777e-13
9.99894e-11
-1.97778e-13
1.00057e-10
-7.13957e-14
1.00025e-10
6.34875e-14
9.98872e-11
2.06772e-13
9.96389e-11
3.57549e-13
9.92733e-11
5.15082e-13
9.87858e-11
6.79799e-13
9.81717e-11
8.5181e-13
9.74255e-11
1.03022e-12
9.65432e-11
1.21442e-12
9.55215e-11
1.40391e-12
9.43564e-11
1.59773e-12
9.30446e-11
1.79562e-12
9.15841e-11
1.9973e-12
8.99725e-11
2.20145e-12
8.82086e-11
2.40737e-12
8.62931e-11
2.61466e-12
8.42249e-11
2.82173e-12
8.2004e-11
3.02721e-12
7.9633e-11
3.23059e-12
7.71142e-11
3.43083e-12
7.4451e-11
3.62641e-12
7.16481e-11
3.81617e-12
6.87109e-11
3.9988e-12
6.56458e-11
4.17231e-12
6.24609e-11
4.33527e-12
5.91663e-11
4.48616e-12
5.57717e-11
4.62203e-12
5.22885e-11
4.74048e-12
4.87313e-11
4.84072e-12
4.51159e-11
4.92121e-12
4.14599e-11
4.97853e-12
3.7783e-11
5.00909e-12
3.4106e-11
5.01004e-12
3.04521e-11
4.97856e-12
2.68478e-11
4.91175e-12
2.33226e-11
4.80634e-12
1.99072e-11
4.65795e-12
1.66344e-11
4.46218e-12
1.3541e-11
4.21585e-12
1.06666e-11
3.91599e-12
8.0525e-12
3.55852e-12
5.74061e-12
3.14024e-12
3.77227e-12
2.66156e-12
2.18518e-12
2.12731e-12
1.00854e-12
1.5488e-12
2.55444e-13
9.49397e-13
-9.25191e-14
3.73465e-13
-1.11193e-13
-9.13736e-14
-2.49651e-13
1.95065e-13
-3.86567e-13
8.71343e-13
-2.34763e-13
1.79983e-12
-1.01125e-12
3.23478e-12
-2.20735e-12
5.24076e-12
-3.48779e-12
7.81679e-12
-4.70314e-12
1.09263e-11
-5.79486e-12
1.45147e-11
-6.74481e-12
1.85198e-11
-7.55314e-12
2.28753e-11
-8.22627e-12
2.75213e-11
-8.77313e-12
3.23976e-11
-9.20607e-12
3.74506e-11
-9.53252e-12
4.26276e-11
-9.76337e-12
4.78839e-11
-9.90562e-12
5.31756e-11
-9.96827e-12
5.84659e-11
-9.9601e-12
6.37223e-11
-9.8869e-12
6.89102e-11
-9.75767e-12
7.40027e-11
-9.57818e-12
7.89764e-11
-9.35319e-12
8.38088e-11
-9.08927e-12
8.84834e-11
-8.78999e-12
9.29825e-11
-8.46157e-12
9.72915e-11
-8.10944e-12
1.01401e-10
-7.73554e-12
1.05301e-10
-7.34519e-12
1.08984e-10
-6.942e-12
1.12445e-10
-6.52787e-12
1.1568e-10
-6.10722e-12
1.18686e-10
-5.68259e-12
1.21464e-10
-5.25575e-12
1.24014e-10
-4.8311e-12
1.26336e-10
-4.41092e-12
1.28435e-10
-3.99538e-12
1.30316e-10
-3.5875e-12
1.31981e-10
-3.18988e-12
1.33438e-10
-2.80251e-12
1.34692e-10
-2.42699e-12
1.35752e-10
-2.06556e-12
1.36624e-10
-1.71846e-12
1.37318e-10
-1.38724e-12
1.37842e-10
-1.07274e-12
1.38205e-10
-7.75143e-13
1.38418e-10
-4.95121e-13
1.38491e-10
-2.3391e-13
1.38432e-10
8.49101e-15
1.38253e-10
2.3272e-13
1.37965e-10
4.37945e-13
1.37578e-10
6.231e-13
1.37102e-10
7.88567e-13
1.36549e-10
9.34889e-13
1.35929e-10
1.06152e-12
1.3525e-10
1.16828e-12
1.34526e-10
1.25651e-12
1.33765e-10
1.3267e-12
1.32978e-10
1.37829e-12
1.32173e-10
1.41214e-12
1.31361e-10
1.42951e-12
1.3055e-10
1.4304e-12
1.29748e-10
1.41477e-12
1.28966e-10
1.38361e-12
1.28211e-10
1.33768e-12
1.27489e-10
1.27736e-12
1.26808e-10
1.20407e-12
1.26174e-10
1.11958e-12
1.25595e-10
1.0243e-12
1.25076e-10
9.17873e-13
1.24622e-10
8.0127e-13
1.24238e-10
6.76255e-13
1.23928e-10
5.4378e-13
1.23695e-10
4.044e-13
1.23543e-10
2.59294e-13
1.23475e-10
1.09697e-13
1.23492e-10
-4.36633e-14
1.23596e-10
-2.00095e-13
1.23789e-10
-3.5861e-13
1.24071e-10
-5.18122e-13
1.24441e-10
-6.77569e-13
1.24898e-10
-8.35717e-13
1.25441e-10
-9.9114e-13
1.26071e-10
-1.14304e-12
1.26783e-10
-1.29131e-12
1.27576e-10
-1.4353e-12
1.28444e-10
-1.57355e-12
1.29386e-10
-1.7044e-12
1.30397e-10
-1.82709e-12
1.31471e-10
-1.94149e-12
1.32602e-10
-2.04655e-12
1.33787e-10
-2.14082e-12
1.35018e-10
-2.22348e-12
1.36288e-10
-2.2938e-12
1.37591e-10
-2.35111e-12
1.38919e-10
-2.39442e-12
1.40265e-10
-2.42286e-12
1.41619e-10
-2.43655e-12
1.42974e-10
-2.43514e-12
1.4432e-10
-2.41761e-12
1.45649e-10
-2.38323e-12
1.4695e-10
-2.33123e-12
1.48215e-10
-2.26122e-12
1.49433e-10
-2.1734e-12
1.50596e-10
-2.06724e-12
1.51692e-10
-1.94233e-12
1.52711e-10
-1.79891e-12
1.53643e-10
-1.63664e-12
1.54477e-10
-1.45524e-12
1.55203e-10
-1.25476e-12
1.55811e-10
-1.0349e-12
1.56291e-10
-7.96254e-13
1.56632e-10
-5.39481e-13
1.56825e-10
-2.643e-13
1.5686e-10
2.90427e-14
1.56727e-10
3.39753e-13
1.56417e-10
6.67326e-13
1.55921e-10
1.01105e-12
1.55231e-10
1.37002e-12
1.5434e-10
1.74373e-12
1.53238e-10
2.1313e-12
1.5192e-10
2.53144e-12
1.5038e-10
2.94353e-12
1.48612e-10
3.36634e-12
1.46611e-10
3.7975e-12
1.44373e-10
4.23549e-12
1.41895e-10
4.67913e-12
1.39176e-10
5.1266e-12
1.36214e-10
5.57622e-12
1.33009e-10
6.02614e-12
1.29563e-10
6.47348e-12
1.25878e-10
6.91532e-12
1.2196e-10
7.3496e-12
1.17812e-10
7.77384e-12
1.13444e-10
8.18463e-12
1.08864e-10
8.57909e-12
1.04081e-10
8.95434e-12
9.91098e-11
9.30627e-12
9.3965e-11
9.63072e-12
8.86634e-11
9.9236e-12
8.32247e-11
1.01799e-11
7.76709e-11
1.03949e-11
7.20257e-11
1.05649e-11
6.63175e-11
1.06852e-11
6.05777e-11
1.0749e-11
5.4839e-11
1.07492e-11
4.91377e-11
1.06799e-11
4.35148e-11
1.05347e-11
3.80143e-11
1.03067e-11
3.26829e-11
9.98842e-12
2.75716e-11
9.5728e-12
2.27347e-11
9.05244e-12
1.82284e-11
8.42117e-12
1.41109e-11
7.67451e-12
1.04418e-11
6.80969e-12
7.27695e-12
5.82787e-12
4.66434e-12
4.73917e-12
2.63835e-12
3.56922e-12
1.21148e-12
2.36729e-12
3.61787e-13
1.21693e-12
1.93747e-14
2.58964e-13
-2.32264e-13
3.32917e-13
-7.22961e-13
1.32783e-12
-1.22948e-12
2.89129e-12
-2.57481e-12
5.1078e-12
-4.42594e-12
8.01612e-12
-6.39549e-12
1.16028e-11
-8.29096e-12
1.58292e-11
-1.00213e-11
2.06348e-11
-1.155e-11
2.59492e-11
-1.28679e-11
3.16996e-11
-1.39773e-11
3.78112e-11
-1.48873e-11
4.42147e-11
-1.56093e-11
5.08403e-11
-1.61584e-11
5.76262e-11
-1.65472e-11
6.45111e-11
-1.67907e-11
7.14404e-11
-1.69013e-11
7.83686e-11
-1.68888e-11
8.5248e-11
-1.67675e-11
9.20384e-11
-1.65487e-11
9.87042e-11
-1.62422e-11
1.05211e-10
-1.58603e-11
1.11532e-10
-1.54095e-11
1.17642e-10
-1.48991e-11
1.23519e-10
-1.4339e-11
1.29145e-10
-1.37348e-11
1.34506e-10
-1.30948e-11
1.39587e-10
-1.24262e-11
1.44379e-10
-1.17335e-11
1.48876e-10
-1.10238e-11
1.5307e-10
-1.03026e-11
1.56962e-10
-9.57325e-12
1.60548e-10
-8.84177e-12
1.63828e-10
-8.1132e-12
1.66807e-10
-7.38976e-12
1.69487e-10
-6.67566e-12
1.71873e-10
-5.97534e-12
1.73974e-10
-5.29042e-12
1.75795e-10
-4.62375e-12
1.77346e-10
-3.97866e-12
1.78637e-10
-3.35677e-12
1.79678e-10
-2.75991e-12
1.80481e-10
-2.19029e-12
1.81057e-10
-1.64939e-12
1.8142e-10
-1.13793e-12
1.81582e-10
-6.57133e-13
1.81556e-10
-2.08552e-13
1.81357e-10
2.07984e-13
1.81e-10
5.91413e-13
1.80496e-10
9.40728e-13
1.79861e-10
1.25638e-12
1.79111e-10
1.53888e-12
1.78258e-10
1.78754e-12
1.77318e-10
2.00183e-12
1.76304e-10
2.18257e-12
1.7523e-10
2.33094e-12
1.74109e-10
2.44692e-12
1.72956e-10
2.53076e-12
1.71784e-10
2.58401e-12
1.70606e-10
2.60769e-12
1.69432e-10
2.60232e-12
1.68275e-10
2.56945e-12
1.67147e-10
2.51037e-12
1.66059e-10
2.42548e-12
1.6502e-10
2.31593e-12
1.64042e-10
2.1838e-12
1.63132e-10
2.03057e-12
1.62299e-10
1.85716e-12
1.61551e-10
1.66517e-12
1.60894e-10
1.45681e-12
1.60337e-10
1.23364e-12
1.59884e-10
9.96704e-13
1.5954e-10
7.47566e-13
1.59311e-10
4.88541e-13
1.59198e-10
2.21651e-13
1.59206e-10
-5.1812e-14
1.59336e-10
-3.30369e-13
1.59589e-10
-6.12049e-13
1.59968e-10
-8.95255e-13
1.60471e-10
-1.17872e-12
1.61096e-10
-1.46063e-12
1.61844e-10
-1.73852e-12
1.62711e-10
-2.01035e-12
1.63695e-10
-2.27515e-12
1.6479e-10
-2.53151e-12
1.65994e-10
-2.7773e-12
1.67301e-10
-3.01068e-12
1.68705e-10
-3.23025e-12
1.70198e-10
-3.43485e-12
1.71775e-10
-3.62276e-12
1.73426e-10
-3.79198e-12
1.75144e-10
-3.94129e-12
1.76919e-10
-4.06934e-12
1.78742e-10
-4.17458e-12
1.80604e-10
-4.2558e-12
1.82492e-10
-4.31158e-12
1.84395e-10
-4.34095e-12
1.86303e-10
-4.34321e-12
1.88203e-10
-4.31716e-12
1.90082e-10
-4.26211e-12
1.91928e-10
-4.17749e-12
1.93727e-10
-4.06185e-12
1.95467e-10
-3.91435e-12
1.97134e-10
-3.73476e-12
1.98714e-10
-3.52267e-12
2.00193e-10
-3.2782e-12
2.01557e-10
-3.00108e-12
2.02792e-10
-2.69042e-12
2.03884e-10
-2.34654e-12
2.04819e-10
-1.96986e-12
2.05582e-10
-1.56033e-12
2.06161e-10
-1.11857e-12
2.06542e-10
-6.4515e-13
2.06712e-10
-1.4043e-13
2.06657e-10
3.94545e-13
2.06365e-10
9.58662e-13
2.05825e-10
1.55122e-12
2.05024e-10
2.1707e-12
2.03954e-10
2.81505e-12
2.02602e-10
3.48303e-12
2.0096e-10
4.17311e-12
1.99021e-10
4.88313e-12
1.96776e-10
5.61127e-12
1.94218e-10
6.35487e-12
1.91344e-10
7.11045e-12
1.88149e-10
7.87525e-12
1.84629e-10
8.6466e-12
1.80785e-10
9.42099e-12
1.76615e-10
1.01947e-11
1.72123e-10
1.09643e-11
1.67313e-10
1.17255e-11
1.6219e-10
1.24731e-11
1.5676e-10
1.32027e-11
1.51036e-10
1.39095e-11
1.45029e-10
1.45872e-11
1.38753e-10
1.52302e-11
1.32226e-10
1.5833e-11
1.25468e-10
1.63884e-11
1.18501e-10
1.68893e-11
1.11351e-10
1.73282e-11
1.0405e-10
1.76972e-11
9.66286e-11
1.79873e-11
8.91227e-11
1.81902e-11
8.15734e-11
1.82971e-11
7.40252e-11
1.82973e-11
6.65254e-11
1.81795e-11
5.91262e-11
1.79332e-11
5.18845e-11
1.7548e-11
4.48599e-11
1.70123e-11
3.81166e-11
1.63149e-11
3.17229e-11
1.54457e-11
2.57482e-11
1.4396e-11
2.02621e-11
1.31597e-11
1.53347e-11
1.17356e-11
1.10327e-11
1.01305e-11
7.41375e-12
8.36207e-12
4.51897e-12
6.46801e-12
2.36511e-12
4.51999e-12
9.37849e-13
2.63752e-12
1.90992e-13
1.00737e-12
-4.16428e-14
4.33957e-13
-1.15728e-12
1.79446e-12
-2.5885e-12
3.95515e-12
-4.736e-12
6.92222e-12
-7.39203e-12
1.06929e-11
-1.01666e-11
1.52386e-11
-1.28374e-11
2.05083e-11
-1.52902e-11
2.64324e-11
-1.74751e-11
3.29363e-11
-1.93711e-11
3.99374e-11
-2.09781e-11
4.7354e-11
-2.23029e-11
5.51033e-11
-2.33603e-11
6.31107e-11
-2.4165e-11
7.13002e-11
-2.47363e-11
7.96027e-11
-2.50939e-11
8.79569e-11
-2.52533e-11
9.63015e-11
-2.52331e-11
1.04583e-10
-2.50506e-11
1.12755e-10
-2.47204e-11
1.20772e-10
-2.42602e-11
1.28595e-10
-2.36834e-11
1.3619e-10
-2.30039e-11
1.43525e-10
-2.2236e-11
1.50576e-10
-2.13906e-11
1.5732e-10
-2.04789e-11
1.63737e-10
-1.95131e-11
1.69813e-10
-1.85018e-11
1.75534e-10
-1.74552e-11
1.80892e-10
-1.63826e-11
1.8588e-10
-1.52907e-11
1.90495e-10
-1.41877e-11
1.94734e-10
-1.3082e-11
1.986e-10
-1.19784e-11
2.02095e-10
-1.08833e-11
2.05221e-10
-9.80331e-12
2.07989e-10
-8.74257e-12
2.10404e-10
-7.70524e-12
2.12477e-10
-6.69625e-12
2.14217e-10
-5.71964e-12
2.15638e-10
-4.77807e-12
2.16753e-10
-3.87493e-12
2.17575e-10
-3.01289e-12
2.1812e-10
-2.19405e-12
2.18403e-10
-1.42083e-12
2.1844e-10
-6.95084e-13
2.18248e-10
-1.73225e-14
2.17844e-10
6.11469e-13
2.17247e-10
1.18909e-12
2.16472e-10
1.71474e-12
2.1554e-10
2.18928e-12
2.14466e-10
2.61248e-12
2.13269e-10
2.98338e-12
2.11967e-10
3.30261e-12
2.10579e-10
3.57127e-12
2.0912e-10
3.78968e-12
2.07607e-10
3.95844e-12
2.06059e-10
4.07896e-12
2.04492e-10
4.15242e-12
2.0292e-10
4.17975e-12
2.0136e-10
4.16261e-12
1.99826e-10
4.10319e-12
1.98333e-10
4.00293e-12
1.96893e-10
3.8633e-12
1.9552e-10
3.68703e-12
1.94227e-10
3.47657e-12
1.93025e-10
3.23305e-12
1.91923e-10
2.95817e-12
1.90933e-10
2.65521e-12
1.90063e-10
2.3272e-12
1.8932e-10
1.97607e-12
1.88713e-10
1.60375e-12
1.88247e-10
1.2131e-12
1.87929e-10
8.0721e-13
1.87763e-10
3.88521e-13
1.87751e-10
-4.06619e-14
1.87898e-10
-4.7748e-13
1.88204e-10
-9.18882e-13
1.88671e-10
-1.36246e-12
1.89298e-10
-1.80591e-12
1.90084e-10
-2.24639e-12
1.91028e-10
-2.68107e-12
1.92126e-10
-3.10752e-12
1.93374e-10
-3.52322e-12
1.94768e-10
-3.92518e-12
1.96302e-10
-4.31051e-12
1.97969e-10
-4.67722e-12
1.99761e-10
-5.02309e-12
2.01671e-10
-5.34539e-12
2.0369e-10
-5.64162e-12
2.05808e-10
-5.90941e-12
2.08013e-10
-6.14669e-12
2.10294e-10
-6.35128e-12
2.12641e-10
-6.52081e-12
2.1504e-10
-6.65375e-12
2.17477e-10
-6.74845e-12
2.19937e-10
-6.80268e-12
2.22408e-10
-6.81476e-12
2.24874e-10
-6.7833e-12
2.27318e-10
-6.70713e-12
2.29726e-10
-6.58546e-12
2.3208e-10
-6.41676e-12
2.34364e-10
-6.19931e-12
2.36562e-10
-5.9327e-12
2.38655e-10
-5.61658e-12
2.40626e-10
-5.25037e-12
2.42459e-10
-4.83388e-12
2.44134e-10
-4.36647e-12
2.45636e-10
-3.84807e-12
2.46946e-10
-3.27952e-12
2.48046e-10
-2.66109e-12
2.4892e-10
-1.99294e-12
2.49552e-10
-1.27622e-12
2.49923e-10
-5.12185e-13
2.50019e-10
2.98245e-13
2.49825e-10
1.1535e-12
2.49324e-10
2.05169e-12
2.48503e-10
2.99112e-12
2.47349e-10
3.96911e-12
2.45849e-10
4.98288e-12
2.43992e-10
6.03023e-12
2.41769e-10
7.10801e-12
2.39168e-10
8.2123e-12
2.36182e-10
9.33964e-12
2.32807e-10
1.04861e-11
2.29035e-10
1.16469e-11
2.24864e-10
1.28171e-11
2.20294e-10
1.3992e-11
2.15323e-10
1.51656e-11
2.09954e-10
1.63317e-11
2.04195e-10
1.74848e-11
1.9805e-10
1.86179e-11
1.9153e-10
1.9723e-11
1.84647e-10
2.07926e-11
1.77415e-10
2.18188e-11
1.69854e-10
2.27922e-11
1.61984e-10
2.3703e-11
1.5383e-10
2.45418e-11
1.45421e-10
2.52981e-11
1.36787e-10
2.59607e-11
1.27966e-10
2.65178e-11
1.18997e-10
2.69569e-11
1.09924e-10
2.72642e-11
1.00795e-10
2.74259e-11
9.16622e-11
2.74282e-11
8.25848e-11
2.72561e-11
7.36243e-11
2.68935e-11
6.4847e-11
2.63249e-11
5.63228e-11
2.55353e-11
4.81268e-11
2.45102e-11
4.03374e-11
2.32356e-11
3.30338e-11
2.17002e-11
2.62951e-11
1.9898e-11
2.01998e-11
1.78296e-11
1.48212e-11
1.55064e-11
1.0225e-11
1.29564e-11
6.46384e-12
1.02311e-11
3.56838e-12
7.41819e-12
1.54168e-12
4.66128e-12
3.69756e-13
2.17852e-12
3.28049e-13
5.55464e-13
-1.71105e-12
2.26453e-12
-4.29931e-12
4.98405e-12
-7.45588e-12
8.65454e-12
-1.10638e-11
1.3235e-11
-1.47474e-11
1.86752e-11
-1.82754e-11
2.4906e-11
-2.15229e-11
3.18526e-11
-2.44221e-11
3.94296e-11
-2.69488e-11
4.7549e-11
-2.90964e-11
5.61202e-11
-3.08741e-11
6.50562e-11
-3.22947e-11
7.42693e-11
-3.33787e-11
8.36779e-11
-3.41484e-11
9.32091e-11
-3.46246e-11
1.02789e-10
-3.48324e-11
1.12351e-10
-3.47946e-11
1.21835e-10
-3.45331e-11
1.31184e-10
-3.40706e-11
1.4035e-10
-3.34266e-11
1.49289e-10
-3.26208e-11
1.57958e-10
-3.16738e-11
1.66324e-10
-3.06024e-11
1.74358e-10
-2.94229e-11
1.82031e-10
-2.81525e-11
1.89323e-10
-2.68048e-11
1.96215e-10
-2.53941e-11
2.02694e-10
-2.39346e-11
2.08748e-10
-2.24368e-11
2.1437e-10
-2.09124e-11
2.19554e-10
-1.93736e-11
2.24301e-10
-1.7829e-11
2.2861e-10
-1.62874e-11
2.32485e-10
-1.47584e-11
2.3593e-10
-1.32495e-11
2.38955e-10
-1.17673e-11
2.41569e-10
-1.03184e-11
2.43781e-10
-8.9093e-12
2.45607e-10
-7.5448e-12
2.47059e-10
-6.23002e-12
2.48152e-10
-4.96945e-12
2.48905e-10
-3.76604e-12
2.49335e-10
-2.62343e-12
2.4946e-10
-1.54536e-12
2.49298e-10
-5.33831e-13
2.48871e-10
4.10232e-13
2.48198e-10
1.28409e-12
2.473e-10
2.08626e-12
2.46198e-10
2.81647e-12
2.44914e-10
3.47403e-12
2.43468e-10
4.05821e-12
2.41882e-10
4.56907e-12
2.40177e-10
5.00765e-12
2.38374e-10
5.37442e-12
2.36493e-10
5.66977e-12
2.34555e-10
5.89549e-12
2.3258e-10
6.05331e-12
2.30588e-10
6.14435e-12
2.28596e-10
6.17059e-12
2.26624e-10
6.13461e-12
2.24689e-10
6.03828e-12
2.22809e-10
5.8835e-12
2.20998e-10
5.67348e-12
2.19273e-10
5.41174e-12
2.17648e-10
5.10089e-12
2.16137e-10
4.74337e-12
2.14752e-10
4.34248e-12
2.13505e-10
3.90197e-12
2.12407e-10
3.42514e-12
2.11467e-10
2.91522e-12
2.10694e-10
2.37592e-12
2.10096e-10
1.81109e-12
2.09679e-10
1.22429e-12
2.09448e-10
6.19097e-13
2.09408e-10
-6.31661e-16
2.09563e-10
-6.31181e-13
2.09914e-10
-1.26901e-12
2.10461e-10
-1.91028e-12
2.11205e-10
-2.55073e-12
2.12145e-10
-3.18633e-12
2.13279e-10
-3.81389e-12
2.14602e-10
-4.43011e-12
2.16109e-10
-5.03082e-12
2.17796e-10
-5.61184e-12
2.19656e-10
-6.16953e-12
2.21681e-10
-6.70095e-12
2.2386e-10
-7.20279e-12
2.26186e-10
-7.67107e-12
2.28647e-10
-8.10237e-12
2.31231e-10
-8.49368e-12
2.33925e-10
-8.84174e-12
2.36718e-10
-9.14343e-12
2.39592e-10
-9.39566e-12
2.42535e-10
-9.59592e-12
2.45529e-10
-9.74211e-12
2.48557e-10
-9.83144e-12
2.51604e-10
-9.86122e-12
2.54649e-10
-9.82958e-12
2.57675e-10
-9.73467e-12
2.60663e-10
-9.57466e-12
2.63594e-10
-9.34806e-12
2.66447e-10
-9.05307e-12
2.69202e-10
-8.68862e-12
2.7184e-10
-8.25434e-12
2.74337e-10
-7.74923e-12
2.76676e-10
-7.17255e-12
2.78834e-10
-6.52429e-12
2.80789e-10
-5.8044e-12
2.82523e-10
-5.0133e-12
2.84013e-10
-4.15178e-12
2.85241e-10
-3.22045e-12
2.86185e-10
-2.22029e-12
2.86826e-10
-1.15329e-12
2.87145e-10
-2.11825e-14
2.87124e-10
1.17443e-12
2.86745e-10
2.43058e-12
2.85991e-10
3.7441e-12
2.84847e-10
5.11225e-12
2.83298e-10
6.53141e-12
2.81331e-10
7.99742e-12
2.78934e-10
9.50605e-12
2.76095e-10
1.10521e-11
2.72805e-10
1.26298e-11
2.69057e-10
1.42338e-11
2.64845e-10
1.58584e-11
2.60166e-10
1.74964e-11
2.55017e-10
1.91403e-11
2.49399e-10
2.07826e-11
2.43316e-10
2.24148e-11
2.36774e-10
2.40275e-11
2.2978e-10
2.56115e-11
2.22347e-10
2.71566e-11
2.14488e-10
2.86515e-11
2.06222e-10
3.00849e-11
1.97568e-10
3.14448e-11
1.88554e-10
3.27177e-11
1.79206e-10
3.38893e-11
1.69559e-10
3.49452e-11
1.59648e-10
3.58708e-11
1.49517e-10
3.66497e-11
1.39209e-10
3.72645e-11
1.28776e-10
3.76971e-11
1.18273e-10
3.79288e-11
1.0776e-10
3.79403e-11
9.73028e-11
3.77121e-11
8.69712e-11
3.72242e-11
7.68405e-11
3.6456e-11
6.69885e-11
3.53874e-11
5.74976e-11
3.40003e-11
4.84544e-11
3.22788e-11
3.99464e-11
3.02095e-11
3.20602e-11
2.77853e-11
2.48817e-11
2.50085e-11
1.84921e-11
2.18953e-11
1.29647e-11
1.84818e-11
8.36359e-12
1.48309e-11
4.74026e-12
1.10437e-11
2.12463e-12
7.27681e-12
5.39537e-13
3.7629e-12
8.67437e-13
6.80183e-13
-2.39393e-12
2.71999e-12
-6.33649e-12
5.95249e-12
-1.06888e-11
1.02717e-11
-1.53832e-11
1.56e-11
-2.00748e-11
2.18589e-11
-2.45358e-11
2.89696e-11
-2.86321e-11
3.68409e-11
-3.2295e-11
4.53818e-11
-3.54899e-11
5.44942e-11
-3.82107e-11
6.40853e-11
-4.0463e-11
7.40583e-11
-4.22656e-11
8.43192e-11
-4.36413e-11
9.47839e-11
-4.46131e-11
1.05368e-10
-4.52095e-11
1.15995e-10
-4.54595e-11
1.26592e-10
-4.53907e-11
1.37091e-10
-4.50328e-11
1.47433e-10
-4.44127e-11
1.57562e-10
-4.35556e-11
1.67429e-10
-4.24884e-11
1.7699e-10
-4.1235e-11
1.86205e-10
-3.98178e-11
1.95042e-10
-3.82596e-11
2.0347e-10
-3.65807e-11
2.11465e-10
-3.48e-11
2.19007e-10
-3.29372e-11
2.26081e-10
-3.10082e-11
2.32674e-10
-2.90291e-11
2.38777e-10
-2.70161e-11
2.44386e-10
-2.49826e-11
2.49498e-10
-2.29411e-11
2.54115e-10
-2.09044e-11
2.5824e-10
-1.88841e-11
2.6188e-10
-1.68895e-11
2.65044e-10
-1.49307e-11
2.67741e-10
-1.30167e-11
2.69986e-10
-1.11546e-11
2.71794e-10
-9.35191e-12
2.73179e-10
-7.6156e-12
2.7416e-10
-5.95069e-12
2.74757e-10
-4.3623e-12
2.74988e-10
-2.85554e-12
2.74876e-10
-1.43386e-12
2.74443e-10
-1.00077e-13
2.73712e-10
1.14245e-12
2.72704e-10
2.29093e-12
2.71445e-10
3.34458e-12
2.69959e-10
4.30263e-12
2.68269e-10
5.16323e-12
2.66401e-10
5.92575e-12
2.64379e-10
6.59103e-12
2.62227e-10
7.15977e-12
2.59968e-10
7.63238e-12
2.57628e-10
8.00986e-12
2.55229e-10
8.29434e-12
2.52795e-10
8.48761e-12
2.50347e-10
8.59159e-12
2.47907e-10
8.60938e-12
2.45498e-10
8.54388e-12
2.43138e-10
8.39753e-12
2.40846e-10
8.17359e-12
2.38644e-10
7.87614e-12
2.36547e-10
7.50889e-12
2.34572e-10
7.07528e-12
2.32735e-10
6.57947e-12
2.31051e-10
6.02619e-12
2.29533e-10
5.41987e-12
2.28193e-10
4.76461e-12
2.27043e-10
4.06488e-12
2.26093e-10
3.32595e-12
2.25351e-10
2.55283e-12
2.24825e-10
1.75009e-12
2.2452e-10
9.22735e-13
2.24443e-10
7.61843e-14
2.24597e-10
-7.8475e-13
2.24984e-10
-1.65559e-12
2.25605e-10
-2.5311e-12
2.26461e-10
-3.40558e-12
2.27549e-10
-4.27381e-12
2.28866e-10
-5.13129e-12
2.30409e-10
-5.97323e-12
2.32173e-10
-6.79406e-12
2.3415e-10
-7.58863e-12
2.36333e-10
-8.35241e-12
2.38713e-10
-9.08086e-12
2.4128e-10
-9.76925e-12
2.44022e-10
-1.04127e-11
2.46927e-10
-1.10068e-11
2.4998e-10
-1.15474e-11
2.53168e-10
-1.20301e-11
2.56476e-10
-1.24508e-11
2.59886e-10
-1.28057e-11
2.63381e-10
-1.30911e-11
2.66942e-10
-1.33035e-11
2.7055e-10
-1.34399e-11
2.74186e-10
-1.34969e-11
2.77828e-10
-1.34719e-11
2.81454e-10
-1.33625e-11
2.85044e-10
-1.31657e-11
2.88574e-10
-1.28792e-11
2.92022e-10
-1.25017e-11
2.95364e-10
-1.20317e-11
2.98577e-10
-1.1468e-11
3.01637e-10
-1.08097e-11
3.0452e-10
-1.00557e-11
3.07201e-10
-9.20603e-12
3.09657e-10
-8.26102e-12
3.11864e-10
-7.22084e-12
3.13798e-10
-6.08611e-12
3.15436e-10
-4.85848e-12
3.16755e-10
-3.53942e-12
3.17731e-10
-2.13054e-12
3.18344e-10
-6.34623e-13
3.18573e-10
9.45481e-13
3.18397e-10
2.60656e-12
3.17796e-10
4.34421e-12
3.16754e-10
6.15416e-12
3.15253e-10
8.03225e-12
3.13277e-10
9.97298e-12
3.10814e-10
1.19699e-11
3.07849e-10
1.40166e-11
3.04373e-10
1.6106e-11
3.00377e-10
1.823e-11
2.95854e-10
2.03807e-11
2.90801e-10
2.25494e-11
2.85215e-10
2.47259e-11
2.79097e-10
2.68998e-11
2.72451e-10
2.90604e-11
2.65283e-10
3.11954e-11
2.57604e-10
3.32918e-11
2.49424e-10
3.5336e-11
2.40762e-10
3.73139e-11
2.31637e-10
3.92103e-11
2.22072e-10
4.10089e-11
2.12096e-10
4.26927e-11
2.01742e-10
4.42437e-11
1.91045e-10
4.56423e-11
1.80048e-10
4.68684e-11
1.68796e-10
4.79017e-11
1.57341e-10
4.87201e-11
1.45737e-10
4.93002e-11
1.34047e-10
4.96182e-11
1.22337e-10
4.96499e-11
1.10679e-10
4.93705e-11
9.91476e-11
4.87547e-11
8.7826e-11
4.77775e-11
7.67992e-11
4.64149e-11
6.61558e-11
4.46442e-11
5.59882e-11
4.24464e-11
4.63901e-11
3.98072e-11
3.74555e-11
3.67196e-11
2.92781e-11
3.31869e-11
2.19473e-11
2.92276e-11
1.55462e-11
2.48829e-11
1.01518e-11
2.02235e-11
5.83714e-12
1.5359e-11
2.66378e-12
1.0451e-11
6.93558e-13
5.73295e-12
1.56074e-12
8.00895e-13
-3.19307e-12
3.14159e-12
-8.67973e-12
6.83955e-12
-1.43854e-11
1.17463e-11
-2.02896e-11
1.77518e-11
-2.60813e-11
2.47553e-11
-3.15395e-11
3.26572e-11
-3.65353e-11
4.13591e-11
-4.09956e-11
5.07568e-11
-4.48878e-11
6.07479e-11
-4.82013e-11
7.12305e-11
-5.09452e-11
8.21025e-11
-5.31392e-11
9.32696e-11
-5.48076e-11
1.04637e-10
-5.59803e-11
1.16117e-10
-5.669e-11
1.27628e-10
-5.69699e-11
1.39092e-10
-5.6855e-11
1.50437e-10
-5.6379e-11
1.61601e-10
-5.55747e-11
1.72521e-10
-5.44758e-11
1.83144e-10
-5.31129e-11
1.93425e-10
-5.15157e-11
2.0332e-10
-4.97132e-11
2.12793e-10
-4.77325e-11
2.21812e-10
-4.55992e-11
2.3035e-10
-4.33388e-11
2.38385e-10
-4.09732e-11
2.45901e-10
-3.85238e-11
2.52884e-10
-3.6012e-11
2.59324e-10
-3.34569e-11
2.65217e-10
-3.08751e-11
2.7056e-10
-2.8284e-11
2.75354e-10
-2.56996e-11
2.79605e-10
-2.3135e-11
2.83319e-10
-2.06035e-11
2.86506e-10
-1.8118e-11
2.89178e-10
-1.56892e-11
2.91351e-10
-1.33269e-11
2.93039e-10
-1.10409e-11
2.94262e-10
-8.839e-12
2.9504e-10
-6.72819e-12
2.95394e-10
-4.7161e-12
2.95346e-10
-2.8083e-12
2.94921e-10
-1.00867e-12
2.94143e-10
6.78365e-13
2.93037e-10
2.2478e-12
2.91631e-10
3.69751e-12
2.8995e-10
5.02588e-12
2.88021e-10
6.23086e-12
2.85873e-10
7.31111e-12
2.83532e-10
8.26642e-12
2.81027e-10
9.09694e-12
2.78382e-10
9.80304e-12
2.75627e-10
1.03862e-11
2.72789e-10
1.08481e-11
2.69893e-10
1.11903e-11
2.66965e-10
1.14151e-11
2.6403e-10
1.15259e-11
2.61114e-10
1.15261e-11
2.58239e-10
1.14187e-11
2.55428e-10
1.12073e-11
2.52704e-10
1.08971e-11
2.50087e-10
1.04928e-11
2.47597e-10
9.99832e-12
2.45253e-10
9.41833e-12
2.43073e-10
8.75876e-12
2.41074e-10
8.02556e-12
2.39269e-10
7.22391e-12
2.37674e-10
6.35924e-12
2.36301e-10
5.43781e-12
2.35161e-10
4.466e-12
2.34264e-10
3.44993e-12
2.33618e-10
2.39572e-12
2.33231e-10
1.3099e-12
2.33108e-10
1.99166e-13
2.33253e-10
-9.30222e-13
2.33669e-10
-2.07198e-12
2.34357e-10
-3.21924e-12
2.35318e-10
-4.3653e-12
2.36549e-10
-5.50399e-12
2.38046e-10
-6.62884e-12
2.39806e-10
-7.73309e-12
2.41823e-10
-8.81008e-12
2.44089e-10
-9.85365e-12
2.46595e-10
-1.0858e-11
2.4933e-10
-1.18166e-11
2.52285e-10
-1.27234e-11
2.55445e-10
-1.35727e-11