/*--------------------------------*- C++ -*----------------------------------*\
  =========                 |
  \\      /  F ield         | OpenFOAM: The Open Source CFD Toolbox
   \\    /   O peration     | Website:  https://openfoam.org
    \\  /    A nd           | Version:  7
     \\/     M anipulation  |
\*---------------------------------------------------------------------------*/
FoamFile
{
    version     2.0;
    format      ascii;
    class       volScalarField;
    location    "0.3375";
    object      p;
}
// * * * * * * * * * * * * * * * * * * * * * * * * * * * * * * * * * * * * * //

dimensions      [0 2 -2 0 0 0 0];

internalField   nonuniform List<scalar> 
51200
(
-5.25043e-08
-1.22608e-06
-2.81823e-06
-4.19021e-06
-5.18874e-06
-6.01368e-06
-6.75447e-06
-7.45885e-06
-8.16186e-06
-8.88165e-06
-9.63204e-06
-1.04244e-05
-1.12654e-05
-1.21609e-05
-1.31091e-05
-1.41098e-05
-1.51628e-05
-1.62679e-05
-1.74262e-05
-1.86337e-05
-1.98878e-05
-2.11849e-05
-2.25232e-05
-2.3901e-05
-2.5314e-05
-2.67584e-05
-2.82319e-05
-2.973e-05
-3.12505e-05
-3.27915e-05
-3.43506e-05
-3.59278e-05
-3.75218e-05
-3.91283e-05
-4.07448e-05
-4.23682e-05
-4.39954e-05
-4.56262e-05
-4.72607e-05
-4.88973e-05
-5.0535e-05
-5.21719e-05
-5.38043e-05
-5.54316e-05
-5.70545e-05
-5.86717e-05
-6.02819e-05
-6.18848e-05
-6.3479e-05
-6.50634e-05
-6.66383e-05
-6.82031e-05
-6.97567e-05
-7.13002e-05
-7.28354e-05
-7.43612e-05
-7.58758e-05
-7.73788e-05
-7.887e-05
-8.03497e-05
-8.18195e-05
-8.32799e-05
-8.47303e-05
-8.61705e-05
-8.76016e-05
-8.90248e-05
-9.04409e-05
-9.18504e-05
-9.32533e-05
-9.46496e-05
-9.60391e-05
-9.74228e-05
-9.88028e-05
-0.000100179
-0.000101552
-0.000102921
-0.000104288
-0.000105653
-0.000107018
-0.000108382
-0.000109747
-0.000111112
-0.000112478
-0.000113846
-0.00011522
-0.000116599
-0.000117983
-0.000119372
-0.000120767
-0.000122171
-0.000123583
-0.000125003
-0.000126431
-0.000127867
-0.000129312
-0.000130766
-0.00013223
-0.000133707
-0.000135194
-0.000136692
-0.000138199
-0.000139716
-0.000141244
-0.000142781
-0.000144328
-0.000145884
-0.00014745
-0.000149025
-0.000150608
-0.000152197
-0.000153791
-0.000155391
-0.000156997
-0.000158608
-0.000160221
-0.000161837
-0.000163452
-0.000165067
-0.00016668
-0.00016829
-0.000169893
-0.000171488
-0.000173072
-0.000174644
-0.000176201
-0.000177743
-0.000179268
-0.000180773
-0.000182255
-0.000183709
-0.000185133
-0.000186525
-0.000187884
-0.000189207
-0.000190492
-0.000191731
-0.000192922
-0.00019406
-0.000195144
-0.00019617
-0.000197135
-0.000198036
-0.000198868
-0.000199629
-0.000200314
-0.000200921
-0.000201447
-0.000201889
-0.000202247
-0.000202518
-0.000202702
-0.000202799
-0.000202813
-0.000202749
-0.000202619
-0.000202436
-0.000202218
-0.000201983
-0.000201768
-0.000201635
-1.43927e-06
-2.45993e-06
-3.69086e-06
-4.79649e-06
-5.71547e-06
-6.51687e-06
-7.25317e-06
-7.96204e-06
-8.66793e-06
-9.3896e-06
-1.01386e-05
-1.09219e-05
-1.17494e-05
-1.26244e-05
-1.35506e-05
-1.45278e-05
-1.55523e-05
-1.66254e-05
-1.77469e-05
-1.89179e-05
-2.01352e-05
-2.13945e-05
-2.26938e-05
-2.40299e-05
-2.54006e-05
-2.6805e-05
-2.82393e-05
-2.97012e-05
-3.11883e-05
-3.26952e-05
-3.42196e-05
-3.57608e-05
-3.73167e-05
-3.88869e-05
-4.04701e-05
-4.20627e-05
-4.36634e-05
-4.52709e-05
-4.68821e-05
-4.84963e-05
-5.01133e-05
-5.17308e-05
-5.33466e-05
-5.49601e-05
-5.65704e-05
-5.81765e-05
-5.97784e-05
-6.13746e-05
-6.29629e-05
-6.45439e-05
-6.61181e-05
-6.76841e-05
-6.92409e-05
-7.07897e-05
-7.23307e-05
-7.38636e-05
-7.53882e-05
-7.69039e-05
-7.84088e-05
-7.99027e-05
-8.13876e-05
-8.28639e-05
-8.43316e-05
-8.57919e-05
-8.72453e-05
-8.86909e-05
-9.01293e-05
-9.15624e-05
-9.29907e-05
-9.44135e-05
-9.58299e-05
-9.72404e-05
-9.86469e-05
-0.00010005
-0.000101451
-0.000102849
-0.000104244
-0.000105637
-0.000107029
-0.000108424
-0.000109819
-0.000111214
-0.000112609
-0.000114005
-0.000115406
-0.000116812
-0.000118222
-0.000119637
-0.000121058
-0.000122486
-0.000123921
-0.000125363
-0.000126812
-0.000128269
-0.000129734
-0.000131207
-0.000132688
-0.000134178
-0.000135679
-0.000137189
-0.000138708
-0.000140235
-0.000141771
-0.000143314
-0.000144865
-0.000146424
-0.000147992
-0.000149566
-0.000151147
-0.000152732
-0.00015432
-0.000155911
-0.000157506
-0.000159104
-0.000160705
-0.000162306
-0.000163904
-0.000165499
-0.000167091
-0.000168678
-0.000170257
-0.000171826
-0.000173383
-0.000174925
-0.000176452
-0.000177962
-0.000179453
-0.000180923
-0.000182369
-0.000183787
-0.000185174
-0.000186529
-0.000187849
-0.000189134
-0.000190379
-0.000191581
-0.000192734
-0.000193836
-0.000194883
-0.000195874
-0.000196806
-0.000197677
-0.000198481
-0.000199217
-0.00019988
-0.000200469
-0.000200981
-0.000201415
-0.00020177
-0.000202047
-0.000202244
-0.000202364
-0.000202409
-0.000202384
-0.0002023
-0.000202173
-0.000202022
-0.000201862
-0.000201704
-0.000201581
-3.40674e-06
-3.98357e-06
-4.74194e-06
-5.54497e-06
-6.30768e-06
-7.02995e-06
-7.72458e-06
-8.40822e-06
-9.09713e-06
-9.80504e-06
-1.05408e-05
-1.13129e-05
-1.21245e-05
-1.29814e-05
-1.38871e-05
-1.48408e-05
-1.58425e-05
-1.68899e-05
-1.79836e-05
-1.91247e-05
-2.03107e-05
-2.15394e-05
-2.28072e-05
-2.41107e-05
-2.54489e-05
-2.68192e-05
-2.82201e-05
-2.96503e-05
-3.11064e-05
-3.25853e-05
-3.40834e-05
-3.55965e-05
-3.71243e-05
-3.86671e-05
-4.02226e-05
-4.179e-05
-4.33689e-05
-4.49556e-05
-4.65473e-05
-4.81438e-05
-4.97435e-05
-5.13452e-05
-5.29483e-05
-5.45504e-05
-5.61499e-05
-5.77475e-05
-5.93425e-05
-6.09326e-05
-6.25169e-05
-6.40957e-05
-6.56682e-05
-6.72343e-05
-6.87946e-05
-7.03484e-05
-7.18948e-05
-7.34343e-05
-7.49671e-05
-7.64924e-05
-7.80091e-05
-7.95169e-05
-8.10156e-05
-8.25057e-05
-8.39885e-05
-8.54657e-05
-8.69375e-05
-8.84024e-05
-8.98606e-05
-9.13138e-05
-9.27621e-05
-9.42057e-05
-9.56447e-05
-9.70788e-05
-9.85087e-05
-9.99356e-05
-0.000101361
-0.000102784
-0.000104204
-0.000105622
-0.000107039
-0.000108457
-0.000109876
-0.000111296
-0.000112716
-0.000114138
-0.000115562
-0.000116991
-0.000118424
-0.000119863
-0.000121306
-0.000122755
-0.000124211
-0.000125672
-0.000127139
-0.000128613
-0.000130094
-0.000131584
-0.000133082
-0.000134587
-0.0001361
-0.00013762
-0.000139148
-0.000140684
-0.000142226
-0.000143775
-0.000145332
-0.000146896
-0.000148465
-0.00015004
-0.000151619
-0.000153201
-0.000154784
-0.00015637
-0.000157958
-0.000159547
-0.000161138
-0.000162726
-0.000164311
-0.000165891
-0.000167466
-0.000169035
-0.000170595
-0.000172143
-0.000173678
-0.000175197
-0.000176699
-0.000178184
-0.000179648
-0.00018109
-0.000182507
-0.000183895
-0.000185253
-0.000186578
-0.000187869
-0.000189124
-0.000190338
-0.00019151
-0.000192633
-0.000193706
-0.000194725
-0.000195689
-0.000196595
-0.000197442
-0.000198224
-0.00019894
-0.000199587
-0.000200162
-0.000200664
-0.000201092
-0.000201446
-0.000201726
-0.000201932
-0.000202068
-0.000202135
-0.000202139
-0.000202083
-0.000201981
-0.000201855
-0.000201725
-0.000201584
-0.000201436
-5.21315e-06
-5.40489e-06
-5.81491e-06
-6.35722e-06
-6.95047e-06
-7.56436e-06
-8.19001e-06
-8.82823e-06
-9.48426e-06
-1.01648e-05
-1.08792e-05
-1.16312e-05
-1.24253e-05
-1.32643e-05
-1.41484e-05
-1.50798e-05
-1.60583e-05
-1.70833e-05
-1.81547e-05
-1.92708e-05
-2.04311e-05
-2.16331e-05
-2.28735e-05
-2.41508e-05
-2.54622e-05
-2.68055e-05
-2.81796e-05
-2.95812e-05
-3.10085e-05
-3.24608e-05
-3.39334e-05
-3.54231e-05
-3.69293e-05
-3.84496e-05
-3.9983e-05
-4.153e-05
-4.30889e-05
-4.46571e-05
-4.6233e-05
-4.78144e-05
-4.93992e-05
-5.09874e-05
-5.25787e-05
-5.41703e-05
-5.57617e-05
-5.73526e-05
-5.89411e-05
-6.05263e-05
-6.21083e-05
-6.36856e-05
-6.52571e-05
-6.6824e-05
-6.8387e-05
-6.99451e-05
-7.14974e-05
-7.30441e-05
-7.45841e-05
-7.6117e-05
-7.76434e-05
-7.91628e-05
-8.0674e-05
-8.21777e-05
-8.36751e-05
-8.51672e-05
-8.66544e-05
-8.81366e-05
-8.96137e-05
-9.10862e-05
-9.25533e-05
-9.40156e-05
-9.54742e-05
-9.69292e-05
-9.83803e-05
-9.98284e-05
-0.000101274
-0.000102718
-0.000104161
-0.000105603
-0.000107044
-0.000108486
-0.000109926
-0.000111367
-0.00011281
-0.000114255
-0.000115702
-0.000117151
-0.000118605
-0.000120063
-0.000121527
-0.000122997
-0.000124472
-0.000125952
-0.000127437
-0.000128927
-0.000130423
-0.000131926
-0.000133438
-0.000134957
-0.000136483
-0.000138015
-0.000139553
-0.000141096
-0.000142645
-0.0001442
-0.000145762
-0.000147331
-0.000148904
-0.000150481
-0.000152059
-0.000153639
-0.00015522
-0.000156802
-0.000158385
-0.000159968
-0.000161549
-0.000163128
-0.000164701
-0.00016627
-0.000167832
-0.000169387
-0.000170931
-0.000172462
-0.000173978
-0.000175477
-0.000176959
-0.000178423
-0.000179866
-0.000181285
-0.000182678
-0.000184041
-0.000185374
-0.000186675
-0.000187942
-0.000189172
-0.000190362
-0.000191508
-0.000192606
-0.000193656
-0.000194652
-0.000195594
-0.000196481
-0.000197308
-0.000198072
-0.000198772
-0.000199405
-0.000199969
-0.000200464
-0.000200889
-0.000201242
-0.000201523
-0.000201735
-0.000201879
-0.00020196
-0.000201981
-0.000201946
-0.000201858
-0.000201733
-0.000201594
-0.000201435
-0.000201239
-6.61754e-06
-6.61004e-06
-6.80499e-06
-7.15981e-06
-7.60525e-06
-8.11e-06
-8.65677e-06
-9.23886e-06
-9.8524e-06
-1.05008e-05
-1.11867e-05
-1.19142e-05
-1.26876e-05
-1.35057e-05
-1.43692e-05
-1.52781e-05
-1.62331e-05
-1.72362e-05
-1.82848e-05
-1.93781e-05
-2.05143e-05
-2.16906e-05
-2.29055e-05
-2.41568e-05
-2.54423e-05
-2.67615e-05
-2.81113e-05
-2.94885e-05
-3.08917e-05
-3.2318e-05
-3.37655e-05
-3.52328e-05
-3.67175e-05
-3.82172e-05
-3.97321e-05
-4.12605e-05
-4.28005e-05
-4.43517e-05
-4.59121e-05
-4.74791e-05
-4.90514e-05
-5.06278e-05
-5.22071e-05
-5.3789e-05
-5.5373e-05
-5.69571e-05
-5.85397e-05
-6.0121e-05
-6.17003e-05
-6.32762e-05
-6.48481e-05
-6.64166e-05
-6.79818e-05
-6.95437e-05
-7.1102e-05
-7.2656e-05
-7.4204e-05
-7.57457e-05
-7.72817e-05
-7.88115e-05
-8.03345e-05
-8.1852e-05
-8.33646e-05
-8.48716e-05
-8.63736e-05
-8.78719e-05
-8.93666e-05
-9.08575e-05
-9.23437e-05
-9.38252e-05
-9.53031e-05
-9.6778e-05
-9.82503e-05
-9.97202e-05
-0.000101187
-0.000102652
-0.000104115
-0.00010558
-0.000107045
-0.000108509
-0.000109972
-0.000111435
-0.0001129
-0.000114367
-0.000115836
-0.000117307
-0.000118782
-0.000120261
-0.000121745
-0.000123234
-0.000124728
-0.000126226
-0.000127729
-0.000129236
-0.000130749
-0.000132268
-0.000133793
-0.000135324
-0.000136862
-0.000138406
-0.000139955
-0.000141508
-0.000143065
-0.000144627
-0.000146195
-0.000147768
-0.000149345
-0.000150925
-0.000152504
-0.000154083
-0.000155662
-0.000157241
-0.000158821
-0.000160399
-0.000161973
-0.000163543
-0.000165107
-0.000166665
-0.000168216
-0.000169758
-0.000171288
-0.000172803
-0.000174302
-0.000175784
-0.000177248
-0.000178692
-0.000180115
-0.000181515
-0.000182886
-0.000184227
-0.000185538
-0.000186817
-0.000188062
-0.00018927
-0.000190438
-0.000191561
-0.000192637
-0.000193665
-0.000194641
-0.000195564
-0.000196432
-0.000197242
-0.000197991
-0.000198677
-0.000199297
-0.000199852
-0.00020034
-0.000200761
-0.000201114
-0.000201397
-0.000201613
-0.000201763
-0.00020185
-0.00020188
-0.000201857
-0.000201781
-0.000201657
-0.000201499
-0.000201302
-0.000201047
-7.76027e-06
-7.62242e-06
-7.67861e-06
-7.89879e-06
-8.22558e-06
-8.63253e-06
-9.10234e-06
-9.62261e-06
-1.01905e-05
-1.08021e-05
-1.14573e-05
-1.21588e-05
-1.29068e-05
-1.37025e-05
-1.45444e-05
-1.54316e-05
-1.6366e-05
-1.73466e-05
-1.83737e-05
-1.94452e-05
-2.05585e-05
-2.17121e-05
-2.29035e-05
-2.41304e-05
-2.53922e-05
-2.66871e-05
-2.8013e-05
-2.93686e-05
-3.07499e-05
-3.21538e-05
-3.35798e-05
-3.50257e-05
-3.64892e-05
-3.79702e-05
-3.94678e-05
-4.09792e-05
-4.25033e-05
-4.40391e-05
-4.55843e-05
-4.71379e-05
-4.86989e-05
-5.02643e-05
-5.18337e-05
-5.34075e-05
-5.49841e-05
-5.65617e-05
-5.814e-05
-5.9718e-05
-6.12944e-05
-6.2869e-05
-6.44421e-05
-6.60129e-05
-6.75811e-05
-6.91472e-05
-7.07108e-05
-7.2271e-05
-7.38271e-05
-7.53783e-05
-7.69241e-05
-7.84641e-05
-7.99987e-05
-8.15294e-05
-8.30564e-05
-8.45785e-05
-8.60963e-05
-8.76109e-05
-8.91224e-05
-9.06303e-05
-9.21348e-05
-9.36355e-05
-9.51323e-05
-9.66265e-05
-9.81188e-05
-9.96094e-05
-0.000101098
-0.000102584
-0.00010407
-0.000105556
-0.000107042
-0.000108529
-0.000110014
-0.0001115
-0.000112986
-0.000114475
-0.000115965
-0.000117458
-0.000118954
-0.000120454
-0.000121959
-0.000123467
-0.00012498
-0.000126496
-0.000128015
-0.00012954
-0.000131069
-0.000132604
-0.000134143
-0.000135689
-0.000137239
-0.000138794
-0.000140353
-0.000141916
-0.000143482
-0.000145053
-0.000146628
-0.000148206
-0.000149788
-0.00015137
-0.000152951
-0.000154531
-0.00015611
-0.000157688
-0.000159265
-0.000160839
-0.000162407
-0.00016397
-0.000165526
-0.000167076
-0.000168617
-0.000170147
-0.000171664
-0.000173166
-0.00017465
-0.000176116
-0.000177564
-0.000178992
-0.000180398
-0.000181778
-0.000183131
-0.000184453
-0.000185744
-0.000187004
-0.000188229
-0.000189417
-0.000190564
-0.000191668
-0.000192724
-0.000193733
-0.000194691
-0.000195598
-0.000196449
-0.000197244
-0.000197979
-0.000198652
-0.000199264
-0.000199811
-0.000200293
-0.00020071
-0.00020106
-0.000201344
-0.000201563
-0.000201719
-0.00020181
-0.000201842
-0.00020182
-0.000201747
-0.000201622
-0.000201449
-0.000201214
-0.000200897
-8.69323e-06
-8.46195e-06
-8.42227e-06
-8.54423e-06
-8.77738e-06
-9.10268e-06
-9.50151e-06
-9.96484e-06
-1.04847e-05
-1.10579e-05
-1.16829e-05
-1.23566e-05
-1.30795e-05
-1.38509e-05
-1.467e-05
-1.55375e-05
-1.64513e-05
-1.74118e-05
-1.84184e-05
-1.94685e-05
-2.05607e-05
-2.16931e-05
-2.28628e-05
-2.40691e-05
-2.53099e-05
-2.65827e-05
-2.78871e-05
-2.92212e-05
-3.05814e-05
-3.1966e-05
-3.33731e-05
-3.47997e-05
-3.62451e-05
-3.77091e-05
-3.91898e-05
-4.06861e-05
-4.21964e-05
-4.37184e-05
-4.52507e-05
-4.67924e-05
-4.83419e-05
-4.98976e-05
-5.14592e-05
-5.30257e-05
-5.45955e-05
-5.61679e-05
-5.77426e-05
-5.93177e-05
-6.0892e-05
-6.2466e-05
-6.404e-05
-6.56131e-05
-6.71853e-05
-6.87566e-05
-7.03258e-05
-7.18922e-05
-7.3456e-05
-7.50164e-05
-7.65717e-05
-7.81224e-05
-7.9669e-05
-8.12122e-05
-8.27521e-05
-8.42887e-05
-8.58225e-05
-8.73537e-05
-8.88817e-05
-9.04064e-05
-9.19284e-05
-9.34473e-05
-9.49633e-05
-9.6477e-05
-9.79887e-05
-9.94984e-05
-0.000101007
-0.000102514
-0.000104022
-0.00010553
-0.000107038
-0.000108545
-0.000110053
-0.00011156
-0.000113069
-0.000114579
-0.00011609
-0.000117604
-0.000119121
-0.000120642
-0.000122166
-0.000123695
-0.000125227
-0.00012676
-0.000128296
-0.000129837
-0.000131383
-0.000132933
-0.000134488
-0.000136047
-0.000137611
-0.000139179
-0.000140748
-0.00014232
-0.000143896
-0.000145476
-0.000147059
-0.000148644
-0.00015023
-0.000151816
-0.0001534
-0.000154981
-0.000156562
-0.00015814
-0.000159715
-0.000161286
-0.00016285
-0.000164407
-0.000165958
-0.0001675
-0.000169033
-0.000170553
-0.000172059
-0.000173548
-0.000175019
-0.000176472
-0.000177907
-0.000179321
-0.000180711
-0.000182076
-0.000183411
-0.000184717
-0.000185992
-0.000187234
-0.000188442
-0.000189612
-0.000190742
-0.000191827
-0.000192867
-0.000193859
-0.000194802
-0.000195693
-0.000196531
-0.000197313
-0.000198036
-0.000198699
-0.000199302
-0.000199844
-0.000200321
-0.000200734
-0.000201081
-0.000201364
-0.000201584
-0.000201743
-0.000201839
-0.000201873
-0.000201848
-0.000201768
-0.000201635
-0.000201448
-0.00020118
-0.000200809
-9.43936e-06
-9.14313e-06
-9.0338e-06
-9.08324e-06
-9.24317e-06
-9.49907e-06
-9.83953e-06
-1.02509e-05
-1.07262e-05
-1.12628e-05
-1.18557e-05
-1.25028e-05
-1.32008e-05
-1.39482e-05
-1.47462e-05
-1.55931e-05
-1.6488e-05
-1.74301e-05
-1.84173e-05
-1.94482e-05
-2.05208e-05
-2.16325e-05
-2.27827e-05
-2.39697e-05
-2.51911e-05
-2.64457e-05
-2.77314e-05
-2.90455e-05
-3.03869e-05
-3.17536e-05
-3.31426e-05
-3.45527e-05
-3.59829e-05
-3.74314e-05
-3.88974e-05
-4.03802e-05
-4.18772e-05
-4.33873e-05
-4.4909e-05
-4.64401e-05
-4.79794e-05
-4.95268e-05
-5.10815e-05
-5.26415e-05
-5.42058e-05
-5.57742e-05
-5.73455e-05
-5.89182e-05
-6.04918e-05
-6.2066e-05
-6.3641e-05
-6.52167e-05
-6.67931e-05
-6.83697e-05
-6.99451e-05
-7.15186e-05
-7.30903e-05
-7.46588e-05
-7.62235e-05
-7.77852e-05
-7.93443e-05
-8.08999e-05
-8.24526e-05
-8.40035e-05
-8.55524e-05
-8.70995e-05
-8.8644e-05
-9.01856e-05
-9.17244e-05
-9.32609e-05
-9.47955e-05
-9.63286e-05
-9.78599e-05
-9.93888e-05
-0.000100917
-0.000102445
-0.000103974
-0.000105504
-0.000107032
-0.00010856
-0.000110089
-0.000111618
-0.000113149
-0.00011468
-0.000116212
-0.000117747
-0.000119285
-0.000120826
-0.00012237
-0.000123918
-0.000125468
-0.000127019
-0.000128573
-0.000130131
-0.000131692
-0.000133258
-0.000134828
-0.000136402
-0.000137979
-0.000139559
-0.00014114
-0.000142723
-0.000144309
-0.000145898
-0.000147489
-0.000149082
-0.000150673
-0.000152263
-0.00015385
-0.000155435
-0.000157017
-0.000158597
-0.000160172
-0.00016174
-0.000163302
-0.000164856
-0.000166401
-0.000167938
-0.000169464
-0.000170976
-0.000172472
-0.00017395
-0.000175411
-0.000176853
-0.000178277
-0.000179679
-0.000181056
-0.000182406
-0.000183727
-0.000185018
-0.000186279
-0.000187507
-0.000188699
-0.000189854
-0.000190968
-0.000192038
-0.000193063
-0.000194041
-0.00019497
-0.000195849
-0.000196675
-0.000197446
-0.000198159
-0.000198814
-0.000199411
-0.000199946
-0.00020042
-0.000200829
-0.000201174
-0.000201456
-0.000201675
-0.000201834
-0.000201932
-0.000201968
-0.000201941
-0.000201852
-0.000201706
-0.000201503
-0.000201208
-0.000200794
-1.00177e-05
-9.67337e-06
-9.51403e-06
-9.50993e-06
-9.61216e-06
-9.81329e-06
-1.0103e-05
-1.04702e-05
-1.09079e-05
-1.14094e-05
-1.19722e-05
-1.25923e-05
-1.3266e-05
-1.39927e-05
-1.47699e-05
-1.55975e-05
-1.64746e-05
-1.73985e-05
-1.83682e-05
-1.93818e-05
-2.04363e-05
-2.15304e-05
-2.2663e-05
-2.38315e-05
-2.50356e-05
-2.62736e-05
-2.75421e-05
-2.88396e-05
-3.01649e-05
-3.15147e-05
-3.28877e-05
-3.42834e-05
-3.56997e-05
-3.71352e-05
-3.85889e-05
-4.00594e-05
-4.15448e-05
-4.30444e-05
-4.45564e-05
-4.60783e-05
-4.76098e-05
-4.91504e-05
-5.06986e-05
-5.22532e-05
-5.38137e-05
-5.53788e-05
-5.6947e-05
-5.85181e-05
-6.00918e-05
-6.16671e-05
-6.32441e-05
-6.48233e-05
-6.6404e-05
-6.79856e-05
-6.95676e-05
-7.1149e-05
-7.27285e-05
-7.43053e-05
-7.58794e-05
-7.74519e-05
-7.90228e-05
-8.05911e-05
-8.21574e-05
-8.37225e-05
-8.52864e-05
-8.68487e-05
-8.84094e-05
-8.99678e-05
-9.15235e-05
-9.30773e-05
-9.46301e-05
-9.61816e-05
-9.77317e-05
-9.92802e-05
-0.000100828
-0.000102377
-0.000103927
-0.000105477
-0.000107026
-0.000108575
-0.000110125
-0.000111675
-0.000113226
-0.000114778
-0.000116332
-0.000117887
-0.000119446
-0.000121008
-0.000122572
-0.000124137
-0.000125705
-0.000127274
-0.000128846
-0.000130421
-0.000131998
-0.00013358
-0.000135165
-0.000136754
-0.000138345
-0.000139937
-0.00014153
-0.000143125
-0.000144721
-0.000146319
-0.000147919
-0.000149519
-0.000151118
-0.000152712
-0.000154304
-0.000155893
-0.000157478
-0.00015906
-0.000160635
-0.000162203
-0.000163763
-0.000165315
-0.000166857
-0.00016839
-0.000169909
-0.000171415
-0.000172902
-0.000174373
-0.000175825
-0.000177259
-0.000178673
-0.000180064
-0.00018143
-0.000182769
-0.000184078
-0.000185356
-0.000186604
-0.000187819
-0.000188999
-0.000190141
-0.000191241
-0.000192298
-0.00019331
-0.000194276
-0.000195194
-0.000196062
-0.000196878
-0.00019764
-0.000198346
-0.000198995
-0.000199586
-0.000200116
-0.000200585
-0.000200992
-0.000201335
-0.000201616
-0.000201835
-0.000201993
-0.00020209
-0.000202125
-0.000202096
-0.000202001
-0.000201843
-0.000201624
-0.000201306
-0.000200859
-1.04384e-05
-1.0061e-05
-9.86509e-06
-9.82051e-06
-9.88116e-06
-1.00381e-05
-1.02856e-05
-1.06162e-05
-1.10203e-05
-1.14921e-05
-1.20269e-05
-1.26211e-05
-1.32732e-05
-1.39798e-05
-1.47386e-05
-1.55491e-05
-1.64088e-05
-1.73163e-05
-1.82697e-05
-1.92664e-05
-2.03051e-05
-2.13841e-05
-2.25006e-05
-2.36539e-05
-2.48429e-05
-2.60648e-05
-2.73182e-05
-2.86016e-05
-2.99121e-05
-3.12477e-05
-3.26075e-05
-3.39901e-05
-3.53941e-05
-3.68186e-05
-3.82616e-05
-3.97219e-05
-4.1198e-05
-4.26884e-05
-4.41914e-05
-4.57059e-05
-4.72313e-05
-4.87661e-05
-5.0309e-05
-5.18596e-05
-5.34172e-05
-5.49799e-05
-5.65464e-05
-5.81167e-05
-5.96909e-05
-6.12679e-05
-6.28481e-05
-6.44316e-05
-6.60171e-05
-6.76042e-05
-6.9193e-05
-7.0782e-05
-7.23694e-05
-7.39552e-05
-7.55397e-05
-7.71229e-05
-7.87049e-05
-8.02858e-05
-8.18658e-05
-8.34455e-05
-8.50242e-05
-8.66017e-05
-8.8178e-05
-8.97526e-05
-9.13255e-05
-9.28972e-05
-9.4468e-05
-9.60373e-05
-9.76054e-05
-9.91734e-05
-0.000100742
-0.000102311
-0.000103881
-0.000105451
-0.000107021
-0.00010859
-0.000110161
-0.000111731
-0.000113303
-0.000114876
-0.00011645
-0.000118026
-0.000119605
-0.000121187
-0.00012277
-0.000124355
-0.00012594
-0.000127527
-0.000129116
-0.000130708
-0.000132301
-0.000133899
-0.000135501
-0.000137104
-0.000138709
-0.000140314
-0.000141919
-0.000143526
-0.000145133
-0.000146742
-0.000148351
-0.000149958
-0.000151563
-0.000153164
-0.000154761
-0.000156355
-0.000157944
-0.000159529
-0.000161105
-0.000162674
-0.000164233
-0.000165784
-0.000167325
-0.000168854
-0.00017037
-0.000171869
-0.000173351
-0.000174815
-0.000176261
-0.000177688
-0.000179094
-0.000180477
-0.000181833
-0.000183162
-0.000184461
-0.000185729
-0.000186967
-0.000188171
-0.00018934
-0.00019047
-0.000191559
-0.000192605
-0.000193606
-0.000194563
-0.000195472
-0.000196331
-0.000197139
-0.000197893
-0.000198593
-0.000199237
-0.000199823
-0.00020035
-0.000200816
-0.00020122
-0.000201562
-0.000201842
-0.000202061
-0.000202219
-0.000202314
-0.000202347
-0.000202315
-0.000202215
-0.000202048
-0.000201816
-0.000201481
-0.000201008
-1.07115e-05
-1.0313e-05
-1.00898e-05
-1.00167e-05
-1.00456e-05
-1.01696e-05
-1.03849e-05
-1.06832e-05
-1.1059e-05
-1.15046e-05
-1.20146e-05
-1.25873e-05
-1.32188e-05
-1.39069e-05
-1.46498e-05
-1.54441e-05
-1.62887e-05
-1.71817e-05
-1.81199e-05
-1.91019e-05
-2.01265e-05
-2.1191e-05
-2.22941e-05
-2.34348e-05
-2.461e-05
-2.58185e-05
-2.70591e-05
-2.83293e-05
-2.9627e-05
-3.09511e-05
-3.22996e-05
-3.36712e-05
-3.50651e-05
-3.64799e-05
-3.79136e-05
-3.93657e-05
-4.08344e-05
-4.2317e-05
-4.38129e-05
-4.53218e-05
-4.6842e-05
-4.8372e-05
-4.99113e-05
-5.14593e-05
-5.30145e-05
-5.45758e-05
-5.61423e-05
-5.77131e-05
-5.92884e-05
-6.08682e-05
-6.24522e-05
-6.40401e-05
-6.56312e-05
-6.7225e-05
-6.88209e-05
-7.0417e-05
-7.20124e-05
-7.36079e-05
-7.52032e-05
-7.67973e-05
-7.83908e-05
-7.99844e-05
-8.15781e-05
-8.31719e-05
-8.47657e-05
-8.63586e-05
-8.79503e-05
-8.95408e-05
-9.11306e-05
-9.27202e-05
-9.43089e-05
-9.58959e-05
-9.74821e-05
-9.90693e-05
-0.000100658
-0.000102247
-0.000103837
-0.000105426
-0.000107016
-0.000108606
-0.000110197
-0.000111788
-0.00011338
-0.000114973
-0.000116567
-0.000118163
-0.000119763
-0.000121364
-0.000122967
-0.00012457
-0.000126174
-0.000127779
-0.000129385
-0.000130993
-0.000132604
-0.000134218
-0.000135835
-0.000137453
-0.000139072
-0.000140691
-0.000142308
-0.000143926
-0.000145545
-0.000147165
-0.000148783
-0.000150399
-0.000152011
-0.000153618
-0.000155222
-0.000156822
-0.000158416
-0.000160003
-0.000161582
-0.000163152
-0.000164713
-0.000166264
-0.000167804
-0.000169332
-0.000170845
-0.000172341
-0.000173818
-0.000175278
-0.000176719
-0.000178141
-0.000179541
-0.000180916
-0.000182265
-0.000183585
-0.000184875
-0.000186136
-0.000187365
-0.00018856
-0.000189719
-0.00019084
-0.00019192
-0.000192957
-0.00019395
-0.000194899
-0.000195801
-0.000196653
-0.000197454
-0.000198203
-0.000198898
-0.000199537
-0.000200121
-0.000200645
-0.000201109
-0.000201511
-0.000201852
-0.000202132
-0.000202352
-0.000202509
-0.000202604
-0.000202635
-0.0002026
-0.000202496
-0.000202323
-0.000202082
-0.000201735
-0.000201245
-1.08453e-05
-1.04337e-05
-1.01951e-05
-1.00993e-05
-1.0105e-05
-1.02061e-05
-1.03959e-05
-1.06691e-05
-1.102e-05
-1.14425e-05
-1.19331e-05
-1.24869e-05
-1.31007e-05
-1.37733e-05
-1.45008e-05
-1.52811e-05
-1.61124e-05
-1.69917e-05
-1.79172e-05
-1.8887e-05
-1.98987e-05
-2.0951e-05
-2.20428e-05
-2.31716e-05
-2.43354e-05
-2.55332e-05
-2.67626e-05
-2.80215e-05
-2.93087e-05
-3.06228e-05
-3.1962e-05
-3.33252e-05
-3.47109e-05
-3.61176e-05
-3.75441e-05
-3.89894e-05
-4.04514e-05
-4.19283e-05
-4.34195e-05
-4.4924e-05
-4.64401e-05
-4.79671e-05
-4.95045e-05
-5.10508e-05
-5.26045e-05
-5.41656e-05
-5.57331e-05
-5.73057e-05
-5.88836e-05
-6.04672e-05
-6.20556e-05
-6.36484e-05
-6.52459e-05
-6.6847e-05
-6.84499e-05
-7.00536e-05
-7.16579e-05
-7.32631e-05
-7.48689e-05
-7.64743e-05
-7.808e-05
-7.96866e-05
-8.12939e-05
-8.29019e-05
-8.45106e-05
-8.61189e-05
-8.77262e-05
-8.9333e-05
-9.09398e-05
-9.25464e-05
-9.41522e-05
-9.57571e-05
-9.73621e-05
-9.89685e-05
-0.000100577
-0.000102186
-0.000103795
-0.000105404
-0.000107014
-0.000108624
-0.000110235
-0.000111846
-0.000113457
-0.00011507
-0.000116684
-0.000118301
-0.000119921
-0.000121541
-0.000123163
-0.000124785
-0.000126407
-0.00012803
-0.000129653
-0.000131278
-0.000132906
-0.000134537
-0.000136169
-0.000137803
-0.000139435
-0.000141067
-0.000142697
-0.000144328
-0.000145959
-0.000147589
-0.000149218
-0.000150842
-0.000152462
-0.000154077
-0.000155688
-0.000157294
-0.000158893
-0.000160484
-0.000162066
-0.000163638
-0.000165201
-0.000166754
-0.000168296
-0.000169823
-0.000171335
-0.000172828
-0.000174303
-0.00017576
-0.000177198
-0.000178616
-0.000180011
-0.000181381
-0.000182723
-0.000184037
-0.000185321
-0.000186575
-0.000187797
-0.000188986
-0.000190138
-0.000191251
-0.000192323
-0.000193353
-0.000194341
-0.000195283
-0.000196179
-0.000197026
-0.000197823
-0.000198567
-0.000199258
-0.000199895
-0.000200476
-0.000200999
-0.000201462
-0.000201865
-0.000202206
-0.000202486
-0.000202705
-0.000202863
-0.000202959
-0.000202989
-0.000202952
-0.000202846
-0.000202669
-0.000202424
-0.000202069
-0.000201569
-1.08443e-05
-1.04303e-05
-1.01826e-05
-1.0073e-05
-1.00625e-05
-1.01448e-05
-1.03166e-05
-1.05702e-05
-1.09007e-05
-1.13055e-05
-1.17789e-05
-1.2317e-05
-1.29173e-05
-1.35758e-05
-1.42906e-05
-1.50592e-05
-1.5878e-05
-1.67456e-05
-1.76604e-05
-1.86191e-05
-1.96206e-05
-2.06634e-05
-2.1745e-05
-2.28637e-05
-2.40185e-05
-2.52069e-05
-2.64269e-05
-2.7677e-05
-2.89558e-05
-3.02617e-05
-3.15935e-05
-3.295e-05
-3.43292e-05
-3.57302e-05
-3.71518e-05
-3.85915e-05
-4.00483e-05
-4.15214e-05
-4.30094e-05
-4.45106e-05
-4.60242e-05
-4.75499e-05
-4.90865e-05
-5.06325e-05
-5.21867e-05
-5.37487e-05
-5.5318e-05
-5.68935e-05
-5.84754e-05
-6.00637e-05
-6.16572e-05
-6.32561e-05
-6.48606e-05
-6.64688e-05
-6.8079e-05
-6.96912e-05
-7.13053e-05
-7.29205e-05
-7.45367e-05
-7.61539e-05
-7.77722e-05
-7.93921e-05
-8.10133e-05
-8.26356e-05
-8.42589e-05
-8.58823e-05
-8.75054e-05
-8.91291e-05
-9.07529e-05
-9.2376e-05
-9.39985e-05
-9.56213e-05
-9.72454e-05
-9.8871e-05
-0.000100498
-0.000102126
-0.000103755
-0.000105385
-0.000107014
-0.000108644
-0.000110275
-0.000111905
-0.000113536
-0.000115167
-0.000116802
-0.000118439
-0.000120079
-0.000121719
-0.000123359
-0.000125
-0.00012664
-0.00012828
-0.000129921
-0.000131563
-0.000133209
-0.000134856
-0.000136504
-0.000138152
-0.000139799
-0.000141443
-0.000143087
-0.000144731
-0.000146374
-0.000148016
-0.000149654
-0.000151288
-0.000152916
-0.00015454
-0.000156159
-0.000157771
-0.000159376
-0.000160971
-0.000162557
-0.000164133
-0.000165699
-0.000167255
-0.000168799
-0.000170327
-0.000171839
-0.000173332
-0.000174806
-0.000176262
-0.000177699
-0.000179114
-0.000180505
-0.00018187
-0.000183208
-0.000184517
-0.000185797
-0.000187046
-0.000188264
-0.000189447
-0.000190593
-0.0001917
-0.000192767
-0.000193793
-0.000194776
-0.000195714
-0.000196606
-0.000197449
-0.000198241
-0.000198983
-0.000199672
-0.000200307
-0.000200888
-0.000201411
-0.000201874
-0.000202278
-0.00020262
-0.000202901
-0.000203121
-0.000203281
-0.000203377
-0.000203408
-0.000203372
-0.000203265
-0.000203088
-0.000202841
-0.000202483
-0.000201979
-1.07171e-05
-1.03047e-05
-1.0056e-05
-9.94044e-06
-9.91818e-06
-9.98741e-06
-1.01451e-05
-1.03842e-05
-1.07013e-05
-1.10915e-05
-1.15512e-05
-1.20776e-05
-1.26659e-05
-1.33133e-05
-1.40179e-05
-1.47759e-05
-1.5585e-05
-1.64433e-05
-1.73482e-05
-1.82981e-05
-1.92916e-05
-2.03261e-05
-2.13995e-05
-2.25106e-05
-2.36578e-05
-2.48385e-05
-2.60513e-05
-2.72946e-05
-2.8567e-05
-2.98671e-05
-3.11935e-05
-3.25446e-05
-3.39191e-05
-3.53164e-05
-3.67342e-05
-3.81702e-05
-3.96241e-05
-4.10951e-05
-4.2581e-05
-4.40805e-05
-4.55936e-05
-4.71192e-05
-4.86559e-05
-5.02031e-05
-5.17594e-05
-5.33238e-05
-5.48961e-05
-5.64759e-05
-5.80627e-05
-5.96562e-05
-6.12562e-05
-6.28624e-05
-6.44741e-05
-6.60896e-05
-6.77078e-05
-6.93294e-05
-7.09535e-05
-7.25791e-05
-7.42063e-05
-7.58357e-05
-7.74669e-05
-7.91003e-05
-8.07359e-05
-8.23728e-05
-8.40105e-05
-8.56489e-05
-8.72882e-05
-8.89286e-05
-9.0569e-05
-9.22086e-05
-9.3848e-05
-9.54888e-05
-9.71317e-05
-9.87763e-05
-0.000100422
-0.00010207
-0.000103718
-0.000105367
-0.000107017
-0.000108666
-0.000110316
-0.000111965
-0.000113615
-0.000115267
-0.000116921
-0.000118578
-0.000120237
-0.000121897
-0.000123556
-0.000125215
-0.000126873
-0.000128531
-0.000130189
-0.00013185
-0.000133512
-0.000135176
-0.00013684
-0.000138502
-0.000140163
-0.000141821
-0.000143479
-0.000145136
-0.000146792
-0.000148445
-0.000150093
-0.000151736
-0.000153374
-0.000155008
-0.000156635
-0.000158254
-0.000159864
-0.000161465
-0.000163056
-0.000164637
-0.000166208
-0.000167768
-0.000169315
-0.000170845
-0.000172358
-0.000173852
-0.000175327
-0.000176784
-0.00017822
-0.000179633
-0.000181022
-0.000182384
-0.000183719
-0.000185025
-0.000186303
-0.000187549
-0.000188763
-0.000189942
-0.000191084
-0.000192188
-0.000193251
-0.000194274
-0.000195254
-0.00019619
-0.000197078
-0.000197918
-0.000198708
-0.000199448
-0.000200137
-0.000200772
-0.000201354
-0.000201877
-0.000202342
-0.000202748
-0.000203092
-0.000203376
-0.000203599
-0.00020376
-0.000203859
-0.000203893
-0.000203858
-0.000203753
-0.000203578
-0.000203333
-0.000202976
-0.000202474
-1.04682e-05
-1.00636e-05
-9.81833e-06
-9.70061e-06
-9.67376e-06
-9.73454e-06
-9.88196e-06
-1.01125e-05
-1.04196e-05
-1.07999e-05
-1.12504e-05
-1.17669e-05
-1.23463e-05
-1.29857e-05
-1.3681e-05
-1.44308e-05
-1.52325e-05
-1.6083e-05
-1.69807e-05
-1.79242e-05
-1.89108e-05
-1.99387e-05
-2.10063e-05
-2.21116e-05
-2.32525e-05
-2.44274e-05
-2.5635e-05
-2.68734e-05
-2.81414e-05
-2.94379e-05
-3.07606e-05