/*--------------------------------*- C++ -*----------------------------------*\
  =========                 |
  \\      /  F ield         | OpenFOAM: The Open Source CFD Toolbox
   \\    /   O peration     | Website:  https://openfoam.org
    \\  /    A nd           | Version:  7
     \\/     M anipulation  |
\*---------------------------------------------------------------------------*/
FoamFile
{
    version     2.0;
    format      ascii;
    class       surfaceScalarField;
    location    "0.3375";
    object      phi;
}
// * * * * * * * * * * * * * * * * * * * * * * * * * * * * * * * * * * * * * //

dimensions      [0 3 -1 0 0 0 0];

internalField   nonuniform List<scalar> 
101920
(
-5.82129e-14
1.20969e-13
1.32566e-13
-1.91201e-13
3.27285e-13
-1.94444e-13
7.05128e-13
-3.80535e-13
1.22201e-12
-5.16455e-13
1.85382e-12
-6.29809e-13
2.57276e-12
-7.20128e-13
3.35973e-12
-7.86103e-13
4.19114e-12
-8.31794e-13
5.04985e-12
-8.59385e-13
5.92011e-12
-8.70038e-13
6.78756e-12
-8.67375e-13
7.64088e-12
-8.51674e-13
8.4672e-12
-8.27118e-13
9.2594e-12
-7.92703e-13
1.00091e-11
-7.50389e-13
1.07103e-11
-7.01974e-13
1.13591e-11
-6.47815e-13
1.19485e-11
-5.90786e-13
1.24764e-11
-5.29182e-13
1.29396e-11
-4.64226e-13
1.33364e-11
-3.97364e-13
1.36661e-11
-3.28435e-13
1.39266e-11
-2.59544e-13
1.41175e-11
-1.90834e-13
1.42393e-11
-1.21604e-13
1.42918e-11
-5.28836e-14
1.42768e-11
1.55573e-14
1.41953e-11
8.28555e-14
1.40484e-11
1.47409e-13
1.3839e-11
2.10404e-13
1.3568e-11
2.71899e-13
1.3237e-11
3.30753e-13
1.28501e-11
3.87589e-13
1.24091e-11
4.41715e-13
1.19159e-11
4.91885e-13
1.13752e-11
5.39316e-13
1.07896e-11
5.84555e-13
1.01614e-11
6.26822e-13
9.49461e-12
6.66499e-13
8.79275e-12
7.02969e-13
8.05802e-12
7.34785e-13
7.29473e-12
7.62639e-13
6.50657e-12
7.876e-13
5.69559e-12
8.09457e-13
4.86581e-12
8.28385e-13
4.02158e-12
8.44567e-13
3.16502e-12
8.56891e-13
2.29944e-12
8.65125e-13
1.42908e-12
8.70327e-13
5.56672e-13
8.72523e-13
-3.15137e-13
8.71126e-13
-1.18205e-12
8.66679e-13
-2.04071e-12
8.59513e-13
-2.88929e-12
8.49084e-13
-3.72475e-12
8.35458e-13
-4.54338e-12
8.192e-13
-5.34273e-12
8.00173e-13
-6.12011e-12
7.77971e-13
-6.87244e-12
7.52962e-13
-7.59783e-12
7.25825e-13
-8.29465e-12
6.96482e-13
-8.96041e-12
6.64794e-13
-9.59269e-12
6.31425e-13
-1.01895e-11
5.96466e-13
-1.0749e-11
5.59102e-13
-1.12699e-11
5.19679e-13
-1.17504e-11
4.79396e-13
-1.21891e-11
4.38257e-13
-1.2585e-11
3.95871e-13
-1.29366e-11
3.52383e-13
-1.32425e-11
3.07704e-13
-1.35029e-11
2.6174e-13
-1.37173e-11
2.14876e-13
-1.38845e-11
1.67504e-13
-1.40035e-11
1.19504e-13
-1.40739e-11
7.04604e-14
-1.40959e-11
2.06911e-14
-1.40694e-11
-2.86936e-14
-1.39941e-11
-7.69603e-14
-1.38702e-11
-1.24514e-13
-1.36974e-11
-1.72148e-13
-1.34763e-11
-2.19857e-13
-1.32075e-11
-2.67237e-13
-1.28925e-11
-3.14041e-13
-1.25324e-11
-3.59857e-13
-1.21275e-11
-4.04485e-13
-1.16787e-11
-4.48059e-13
-1.11878e-11
-4.90633e-13
-1.06566e-11
-5.31939e-13
-1.00864e-11
-5.71416e-13
-9.47863e-12
-6.08718e-13
-8.83541e-12
-6.4373e-13
-8.15892e-12
-6.76378e-13
-7.45055e-12
-7.06974e-13
-6.71208e-12
-7.35994e-13
-5.94602e-12
-7.63705e-13
-5.1555e-12
-7.89943e-13
-4.34336e-12
-8.13772e-13
-3.5112e-12
-8.34259e-13
-2.66099e-12
-8.51284e-13
-1.79565e-12
-8.65127e-13
-9.17691e-13
-8.76532e-13
-2.99751e-14
-8.86224e-13
8.64499e-13
-8.93867e-13
1.76284e-12
-8.986e-13
2.66162e-12
-8.99795e-13
3.55779e-12
-8.97204e-13
4.44851e-12
-8.91105e-13
5.33061e-12
-8.81904e-13
6.20102e-12
-8.69791e-13
7.05639e-12
-8.54881e-13
7.89308e-12
-8.36973e-13
8.70806e-12
-8.15606e-13
9.49829e-12
-7.90669e-13
1.02602e-11
-7.6225e-13
1.09911e-11
-7.30625e-13
1.1688e-11
-6.96302e-13
1.23471e-11
-6.59158e-13
1.29657e-11
-6.1893e-13
1.3541e-11
-5.75834e-13
1.40697e-11
-5.29652e-13
1.45498e-11
-4.8021e-13
1.4979e-11
-4.28205e-13
1.5354e-11
-3.74117e-13
1.56722e-11
-3.17732e-13
1.59314e-11
-2.58968e-13
1.6129e-11
-1.97938e-13
1.62631e-11
-1.34642e-13
1.63325e-11
-6.95126e-14
1.63358e-11
-3.25124e-15
1.62717e-11
6.4151e-14
1.614e-11
1.32539e-13
1.59394e-11
2.0135e-13
1.56692e-11
2.70268e-13
1.53302e-11
3.39034e-13
1.49236e-11
4.06921e-13
1.44501e-11
4.73464e-13
1.39117e-11
5.38437e-13
1.33107e-11
6.01156e-13
1.26491e-11
6.61068e-13
1.19308e-11
7.18018e-13
1.11604e-11
7.71212e-13
1.03425e-11
8.19122e-13
9.48283e-12
8.60454e-13
8.58892e-12
8.94282e-13
7.66926e-12
9.19583e-13
6.73291e-12
9.35389e-13
5.79116e-12
9.40698e-13
4.85732e-12
9.33709e-13
3.94588e-12
9.11896e-13
3.07352e-12
8.72759e-13
2.25995e-12
8.13896e-13
1.52743e-12
7.32691e-13
8.99874e-13
6.27133e-13
4.02561e-13
4.96831e-13
6.07265e-14
3.4208e-13
-1.02705e-13
1.63749e-13
-9.29654e-14
-9.91057e-15
-9.29222e-14
-1.68296e-13
2.89011e-13
1.26784e-13
-4.83741e-13
9.01766e-13
-9.67858e-13
2.02454e-12
-1.50259e-12
3.48239e-12
-1.97565e-12
5.21367e-12
-2.36126e-12
7.15902e-12
-2.66536e-12
9.26557e-12
-2.89244e-12
1.14853e-11
-3.05006e-12
1.37711e-11
-3.14478e-12
1.60813e-11
-3.18338e-12
1.83828e-11
-3.16933e-12
2.06412e-11
-3.11165e-12
2.28305e-11
-3.01465e-12
2.49245e-11
-2.88499e-12
2.69002e-11
-2.7276e-12
2.87425e-11
-2.54421e-12
3.04352e-11
-2.34064e-12
3.19682e-11
-2.12009e-12
3.33286e-11
-1.88704e-12
3.45072e-11
-1.64396e-12
3.55003e-11
-1.39139e-12
3.63025e-11
-1.1326e-12
3.69113e-11
-8.69819e-13
3.73268e-11
-6.05153e-13
3.75466e-11
-3.41925e-13
3.75727e-11
-7.99526e-14
3.74078e-11
1.79544e-13
3.70533e-11
4.3377e-13
3.65152e-11
6.8324e-13
3.57986e-11
9.26426e-13
3.49076e-11
1.16095e-12
3.38497e-11
1.38785e-12
3.26319e-11
1.6061e-12
3.12602e-11
1.81311e-12
2.97441e-11
2.00926e-12
2.80919e-11
2.19414e-12
2.63106e-11
2.3663e-12
2.44104e-11
2.52677e-12
2.24009e-11
2.67603e-12
2.02906e-11
2.81242e-12
1.80895e-11
2.93562e-12
1.5808e-11
3.04588e-12
1.34548e-11
3.14213e-12
1.10392e-11
3.22494e-12
8.57223e-12
3.29585e-12
6.063e-12
3.35396e-12
3.52047e-12
3.39829e-12
9.55708e-13
3.42992e-12
-1.62179e-12
3.44885e-12
-4.204e-12
3.45423e-12
-6.78116e-12
3.44697e-12
-9.34319e-12
3.42814e-12
-1.18817e-11
3.39719e-12
-1.43882e-11
3.35414e-12
-1.68533e-11
3.29994e-12
-1.9269e-11
3.23454e-12
-2.16283e-11
3.15781e-12
-2.3923e-11
3.07104e-12
-2.61444e-11
2.97501e-12
-2.82867e-11
2.86935e-12
-3.0344e-11
2.75442e-12
-3.23088e-11
2.63101e-12
-3.41754e-11
2.4996e-12
-3.59391e-11
2.3605e-12
-3.75934e-11
2.21398e-12
-3.91329e-11
2.06063e-12
-4.05536e-11
1.90114e-12
-4.18515e-11
1.7358e-12
-4.30232e-11
1.56547e-12
-4.4065e-11
1.3916e-12
-4.49732e-11
1.21434e-12
-4.57459e-11
1.03319e-12
-4.63812e-11
8.48827e-13
-4.6877e-11
6.62364e-13
-4.72316e-11
4.74168e-13
-4.74436e-11
2.84084e-13
-4.75122e-11
9.22986e-14
-4.74368e-11
-1.00444e-13
-4.72183e-11
-2.93378e-13
-4.68578e-11
-4.85711e-13
-4.63554e-11
-6.76529e-13
-4.57121e-11
-8.64985e-13
-4.49294e-11
-1.05068e-12
-4.401e-11
-1.23374e-12
-4.2957e-11
-1.41355e-12
-4.1773e-11
-1.58894e-12
-4.04608e-11
-1.75949e-12
-3.90244e-11
-1.92533e-12
-3.74683e-11
-2.08614e-12
-3.57968e-11
-2.24099e-12
-3.40143e-11
-2.38924e-12
-3.21264e-11
-2.53081e-12
-3.01392e-11
-2.66502e-12
-2.80582e-11
-2.7906e-12
-2.58892e-11
-2.90692e-12
-2.36382e-11
-3.01425e-12
-2.13118e-11
-3.11335e-12
-1.89174e-11
-3.2044e-12
-1.64625e-11
-3.28648e-12
-1.39545e-11
-3.3587e-12
-1.14016e-11
-3.4202e-12
-8.81103e-12
-3.47012e-12
-6.19008e-12
-3.50861e-12
-3.54744e-12
-3.53625e-12
-8.91972e-13
-3.5529e-12
1.76727e-12
-3.5581e-12
4.42144e-12
-3.55119e-12
7.06167e-12
-3.53165e-12
9.67849e-12
-3.49959e-12
1.22626e-11
-3.45506e-12
1.48054e-11
-3.39791e-12
1.72976e-11
-3.32842e-12
1.97294e-11
-3.24676e-12
2.20917e-11
-3.15279e-12
2.43747e-11
-3.04643e-12
2.65697e-11
-2.92736e-12
2.86686e-11
-2.79564e-12
3.06617e-11
-2.65206e-12
3.25402e-11
-2.49708e-12
3.42962e-11
-2.33098e-12
3.59211e-11
-2.15411e-12
3.74069e-11
-1.96638e-12
3.87463e-11
-1.76788e-12
3.99317e-11
-1.55957e-12
4.09562e-11
-1.34215e-12
4.18136e-11
-1.11581e-12
4.2498e-11
-8.8138e-13
4.30035e-11
-6.40021e-13
4.33257e-11
-3.9226e-13
4.3461e-11
-1.38939e-13
4.34062e-11
1.1864e-13
4.31595e-11
3.79545e-13
4.27196e-11
6.42374e-13
4.20858e-11
9.05021e-13
4.12588e-11
1.16602e-12
4.02413e-11
1.42429e-12
3.90368e-11
1.67805e-12
3.76501e-11
1.92524e-12
3.60883e-11
2.16382e-12
3.43593e-11
2.39126e-12
3.2473e-11
2.60483e-12
3.0442e-11
2.80212e-12
2.82811e-11
2.98011e-12
2.60073e-11
3.13453e-12
2.36406e-11
3.26116e-12
2.12048e-11
3.35611e-12
1.87262e-11
3.41476e-12
1.62348e-11
3.43171e-12
1.37651e-11
3.40177e-12
1.13564e-11
3.31923e-12
9.0522e-12
3.17679e-12
6.90005e-12
2.96665e-12
4.95183e-12
2.68177e-12
3.26298e-12
2.31652e-12
1.88897e-12
1.87036e-12
8.7668e-13
1.35345e-12
2.49818e-13
7.90008e-13
-5.43103e-15
2.44774e-13
-9.80906e-14
1.76305e-13
1.12958e-13
7.3985e-13
-1.04521e-12
1.93439e-12
-2.16096e-12
3.67875e-12
-3.24719e-12
5.90445e-12
-4.20018e-12
8.52833e-12
-4.9856e-12
1.14678e-11
-5.60561e-12
1.46446e-11
-6.06994e-12
1.7987e-11
-6.39133e-12
2.14269e-11
-6.58384e-12
2.49035e-11
-6.65802e-12
2.83597e-11
-6.62737e-12
3.17488e-11
-6.50152e-12
3.5027e-11
-6.2931e-12
3.81558e-11
-6.01438e-12
4.11032e-11
-5.67391e-12
4.38379e-11
-5.28175e-12
4.63387e-11
-4.84341e-12
4.8586e-11
-4.3673e-12
5.05616e-11
-3.86278e-12
5.22537e-11
-3.33431e-12
5.36512e-11
-2.78796e-12
5.47466e-11
-2.22881e-12
5.55366e-11
-1.65965e-12
5.60179e-11
-1.08661e-12
5.61905e-11
-5.13598e-13
5.6056e-11
5.66055e-14
5.56169e-11
6.19217e-13
5.48789e-11
1.17233e-12
5.38488e-11
1.71429e-12
5.25333e-11
2.24122e-12
5.09428e-11
2.75179e-12
4.90869e-11
3.24461e-12
4.69747e-11
3.71635e-12
4.46194e-11
4.16616e-12
4.20342e-11
4.59343e-12
3.92313e-11
4.99565e-12
3.62253e-11
5.372e-12
3.30312e-11
5.72236e-12
2.9662e-11
6.04506e-12
2.61331e-11
6.33976e-12
2.2461e-11
6.60692e-12
1.86598e-11
6.8454e-12
1.47456e-11
7.05465e-12
1.07354e-11
7.23557e-12
6.64407e-12
7.38791e-12
2.48642e-12
7.51081e-12
-1.72077e-12
7.6051e-12
-5.96185e-12
7.67136e-12
-1.02224e-11
7.70893e-12
-1.44867e-11
7.71809e-12
-1.87389e-11
7.70002e-12
-2.29651e-11
7.65493e-12
-2.71511e-11
7.58299e-12
-3.12819e-11
7.48545e-12
-3.53439e-11
7.36307e-12
-3.9324e-11
7.21562e-12
-4.32097e-11
7.04383e-12
-4.69884e-11
6.84971e-12
-5.06479e-11
6.63428e-12
-5.41774e-11
6.39777e-12
-5.75657e-11
6.14157e-12
-6.08016e-11
5.86689e-12
-6.38761e-11
5.57385e-12
-6.6781e-11
5.26351e-12
-6.95064e-11
4.93777e-12
-7.20435e-11
4.5977e-12
-7.43858e-11
4.2439e-12
-7.65262e-11
3.87728e-12
-7.84579e-11
3.49914e-12
-8.01764e-11
3.11121e-12
-8.16764e-11
2.71467e-12
-8.29534e-11
2.31028e-12
-8.40032e-11
1.89911e-12
-8.48235e-11
1.48222e-12
-8.54123e-11
1.06074e-12
-8.57674e-11
6.36302e-13
-8.58872e-11
2.10337e-13
-8.5771e-11
-2.16386e-13
-8.54194e-11
-6.43444e-13
-8.48339e-11
-1.06974e-12
-8.40157e-11
-1.49338e-12
-8.2967e-11
-1.91273e-12
-8.1691e-11
-2.3265e-12
-8.01903e-11
-2.73385e-12
-7.84692e-11
-3.13385e-12
-7.65328e-11
-3.52506e-12
-7.43869e-11
-3.9062e-12
-7.20371e-11
-4.27629e-12
-6.94898e-11
-4.63411e-12
-6.67523e-11
-4.97838e-12
-6.38324e-11
-5.30802e-12
-6.07381e-11
-5.6226e-12
-5.74783e-11
-5.92169e-12
-5.40627e-11
-6.20397e-12
-5.05018e-11
-6.46795e-12
-4.68061e-11
-6.71236e-12
-4.29854e-11
-6.93632e-12
-3.90505e-11
-7.1396e-12
-3.50138e-11
-7.32193e-12
-3.08875e-11
-7.48275e-12
-2.66847e-11
-7.62142e-12
-2.24183e-11
-7.73649e-12
-1.81011e-11
-7.8267e-12
-1.37464e-11
-7.89185e-12
-9.36852e-12
-7.93158e-12
-4.98152e-12
-7.94529e-12
-5.99458e-13
-7.93268e-12
3.76289e-12
-7.8933e-12
8.09033e-12
-7.82691e-12
1.23679e-11
-7.73345e-12
1.65809e-11
-7.61225e-12
2.07148e-11
-7.46305e-12
2.47545e-11
-7.28651e-12
2.86848e-11
-7.0829e-12
3.24907e-11
-6.85221e-12
3.61575e-11
-6.59456e-12
3.9671e-11
-6.30982e-12
4.30165e-11
-5.99846e-12
4.61801e-11
-5.66147e-12
4.91485e-11
-5.29947e-12
5.19083e-11
-4.91321e-12
5.44468e-11
-4.50384e-12
5.67513e-11
-4.07219e-12
5.88101e-11
-3.61891e-12
6.06127e-11
-3.14529e-12
6.2149e-11
-2.65268e-12
6.34097e-11
-2.14238e-12
6.43866e-11
-1.61663e-12
6.50724e-11
-1.07774e-12
6.5461e-11
-5.27341e-13
6.55479e-11
3.22503e-14
6.53298e-11
5.98112e-13
6.48045e-11
1.16757e-12
6.39722e-11
1.73749e-12
6.28347e-11
2.30405e-12
6.13954e-11
2.8638e-12
5.96597e-11
3.41337e-12
5.76361e-11
3.94853e-12
5.53357e-11
4.46431e-12
5.27719e-11
4.95559e-12
4.99613e-11
5.41663e-12
4.69238e-11
5.84084e-12
4.36821e-11
6.2216e-12
4.02637e-11
6.55196e-12
3.67006e-11
6.82363e-12
3.30288e-11
7.02768e-12
2.92887e-11
7.15474e-12
2.55274e-11
7.19404e-12
2.17967e-11
7.13372e-12
1.81537e-11
6.96212e-12
1.46621e-11
6.6676e-12
1.13907e-11
6.23798e-12
8.41091e-12
5.66204e-12
5.7952e-12
4.93234e-12
3.61531e-12
4.05033e-12
1.93281e-12
3.03644e-12
7.81983e-13
1.94106e-12
1.59321e-13
8.67152e-13
6.13852e-14
3.35797e-13
-2.25827e-13
1.30384e-12
-2.01231e-12
2.97501e-12
-3.83218e-12
5.30105e-12
-5.57392e-12
8.20259e-12
-7.10167e-12
1.15861e-11
-8.36806e-12
1.53532e-11
-9.37221e-12
1.94087e-11
-1.01263e-11
2.36623e-11
-1.06474e-11
2.80324e-11
-1.09532e-11
3.24394e-11
-1.10656e-11
3.68154e-11
-1.10022e-11
4.10963e-11
-1.07819e-11
4.52251e-11
-1.04238e-11
4.91546e-11
-9.94344e-12
5.28411e-11
-9.35966e-12
5.62474e-11
-8.68667e-12
5.93413e-11
-7.93657e-12
6.20952e-11
-7.1234e-12
6.44892e-11
-6.25743e-12
6.65046e-11
-5.34997e-12
6.81277e-11
-4.41158e-12
6.93497e-11
-3.44988e-12
7.01625e-11
-2.47334e-12
7.05635e-11
-1.48887e-12
7.05529e-11
-5.02684e-13
7.01302e-11
4.77707e-13
6.93011e-11
1.44726e-12
6.80727e-11
2.40135e-12
6.64517e-11
3.33413e-12
6.44497e-11
4.24231e-12
6.20801e-11
5.12287e-12
5.93543e-11
5.97101e-12
5.62871e-11
6.7838e-12
5.28951e-11
7.55922e-12
4.91937e-11
8.29404e-12
4.5201e-11
8.98645e-12
4.09373e-11
9.63561e-12
3.64213e-11
1.02388e-11
3.16721e-11
1.07943e-11
2.6711e-11
1.1302e-11
2.15579e-11
1.17607e-11
1.62327e-11
1.21691e-11
1.07584e-11
1.25281e-11
5.15689e-12
1.28376e-11
-5.51984e-13
1.30962e-11
-6.34602e-12
1.33046e-11
-1.22033e-11
1.34633e-11
-1.8104e-11
1.3572e-11
-2.40275e-11
1.3631e-11
-2.99517e-11
1.36417e-11
-3.58564e-11
1.36046e-11
-4.17224e-11
1.35198e-11
-4.75292e-11
1.3389e-11
-5.32573e-11
1.32135e-11
-5.8889e-11
1.29941e-11
-6.4406e-11
1.27321e-11
-6.97899e-11
1.24288e-11
-7.50245e-11
1.20857e-11
-8.00942e-11
1.17044e-11
-8.49825e-11
1.12865e-11
-8.96746e-11
1.08342e-11
-9.41563e-11
1.03493e-11
-9.84142e-11
9.8323e-12
-1.02436e-10
9.2853e-12
-1.0621e-10
8.7109e-12
-1.09724e-10
8.11082e-12
-1.12969e-10
7.48691e-12
-1.15935e-10
6.8416e-12
-1.18612e-10
6.17664e-12
-1.20994e-10
5.49353e-12
-1.23075e-10
4.79463e-12
-1.24847e-10
4.08244e-12
-1.26306e-10
3.35883e-12
-1.27447e-10
2.62509e-12
-1.28268e-10
1.88284e-12
-1.28766e-10
1.13473e-12
-1.2894e-10
3.83469e-13
-1.28789e-10
-3.68875e-13
-1.28313e-10
-1.12058e-12
-1.27514e-10
-1.86974e-12
-1.26392e-10
-2.61413e-12
-1.24953e-10
-3.35169e-12
-1.232e-10
-4.08013e-12
-1.21137e-10
-4.79695e-12
-1.18769e-10
-5.50034e-12
-1.16103e-10
-6.18881e-12
-1.13148e-10
-6.86042e-12
-1.0991e-10
-7.51304e-12
-1.06399e-10
-8.14441e-12
-1.02625e-10
-8.75261e-12
-9.85985e-11
-9.3357e-12
-9.43305e-11
-9.89163e-12
-8.98323e-11
-1.0419e-11
-8.51169e-11
-1.09168e-11
-8.01987e-11
-1.13836e-11
-7.50921e-11
-1.18178e-11
-6.98116e-11
-1.22172e-11
-6.43722e-11
-1.25801e-11
-5.879e-11
-1.29053e-11
-5.30819e-11
-1.31917e-11
-4.72646e-11
-1.34383e-11
-4.13557e-11
-1.36441e-11
-3.5374e-11
-1.38075e-11
-2.93379e-11
-1.39276e-11
-2.32663e-11
-1.40035e-11
-1.71787e-11
-1.40337e-11
-1.1094e-11
-1.40177e-11
-5.03226e-12
-1.3955e-11
9.8596e-13
-1.38454e-11
6.94099e-12
-1.36884e-11
1.28123e-11
-1.34839e-11
1.85791e-11
-1.3231e-11
2.42215e-11
-1.29299e-11
2.9719e-11
-1.25813e-11
3.50515e-11
-1.21852e-11
4.01994e-11
-1.1742e-11
4.51427e-11
-1.12526e-11
4.98613e-11
-1.07175e-11
5.43366e-11
-1.01375e-11
5.85505e-11
-9.51389e-12
6.24846e-11
-8.84795e-12
6.61221e-11
-8.1413e-12
6.94463e-11
-7.3961e-12
7.24412e-11
-6.61409e-12
7.50926e-11
-5.79695e-12
7.73872e-11
-4.94729e-12
7.9312e-11
-4.06788e-12
8.08561e-11
-3.16162e-12
8.20108e-11
-2.23229e-12
8.27676e-11
-1.28384e-12
8.31203e-11
-3.20168e-13
8.30649e-11
6.54136e-13
8.25986e-11
1.63397e-12
8.17214e-11
2.61422e-12
8.04364e-11
3.58928e-12
7.87489e-11
4.55246e-12
7.66659e-11
5.49677e-12
7.41988e-11
6.41533e-12
7.13626e-11
7.30029e-12
6.81756e-11
8.14248e-12
6.46595e-11
8.93226e-12
6.08414e-11
9.65915e-12
5.67524e-11
1.03115e-11
5.24276e-11
1.08768e-11
4.79091e-11
1.13422e-11
4.32438e-11
1.16933e-11
3.84838e-11
1.19144e-11
3.36885e-11
1.19888e-11
2.89242e-11
1.18987e-11
2.42623e-11
1.16253e-11
1.97802e-11
1.115e-11
1.55614e-11
1.04562e-11
1.16925e-11
9.53081e-12
8.25911e-12
8.36601e-12
5.34338e-12
6.96632e-12
3.0188e-12
5.36156e-12
1.33931e-12
3.62147e-12
3.31619e-13
1.87495e-12
3.92814e-13
4.99177e-13
-7.2475e-13
1.81474e-12
-3.32925e-12
3.9419e-12
-5.95814e-12
6.80118e-12
-8.43347e-12
1.02972e-11
-1.05988e-11
1.43259e-11
-1.23968e-11
1.87799e-11
-1.38242e-11
2.35501e-11
-1.48966e-11
2.85355e-11
-1.56327e-11
3.36392e-11
-1.60586e-11
3.87734e-11
-1.62003e-11
4.38573e-11
-1.60847e-11
4.88156e-11
-1.57405e-11
5.35832e-11
-1.51914e-11
5.81002e-11
-1.44629e-11
6.23172e-11
-1.35775e-11
6.61902e-11
-1.25572e-11
6.96779e-11
-1.14241e-11
7.27496e-11
-1.01947e-11
7.53782e-11
-8.88608e-12
7.75414e-11
-7.51471e-12
7.9224e-11
-6.0939e-12
8.04129e-11
-4.63823e-12
8.10997e-11
-3.16e-12
8.12808e-11
-1.66879e-12
8.09544e-11
-1.76226e-13
8.01228e-11
1.30857e-12
7.8792e-11
2.77837e-12
7.69689e-11
4.22393e-12
7.46639e-11
5.63818e-12
7.18904e-11
7.01594e-12
6.86621e-11
8.35036e-12
6.49956e-11
9.63609e-12
6.09101e-11
1.08694e-11
5.64245e-11
1.20451e-11
5.15591e-11
1.31589e-11
4.63368e-11
1.42089e-11
4.07799e-11
1.51919e-11
3.49124e-11
1.61049e-11
2.87598e-11
1.69466e-11
2.2347e-11
1.77151e-11
1.56991e-11
1.8408e-11
8.8427e-12
1.90252e-11
1.80461e-12
1.95666e-11
-5.38912e-12
2.00309e-11
-1.27117e-11
2.04179e-11
-2.01354e-11
2.07286e-11
-2.76342e-11
2.09627e-11
-3.51823e-11
2.11199e-11
-4.27532e-11
2.12016e-11
-5.03205e-11
2.12092e-11
-5.78592e-11
2.1143e-11
-6.53443e-11
2.10044e-11
-7.27506e-11
2.07955e-11
-8.0054e-11
2.05174e-11
-8.72322e-11
2.01716e-11
-9.4262e-11
1.97609e-11
-1.0112e-10
1.92875e-11
-1.07787e-10
1.87529e-11
-1.14243e-10
1.81594e-11
-1.20466e-10
1.751e-11
-1.26439e-10
1.68072e-11
-1.32144e-10
1.60536e-11
-1.37564e-10
1.52518e-11
-1.42682e-10
1.44044e-11
-1.47485e-10
1.35143e-11
-1.51958e-10
1.2584e-11
-1.56088e-10
1.1617e-11
-1.59864e-10
1.06168e-11
-1.63274e-10
9.58645e-12
-1.66308e-10
8.52816e-12
-1.6896e-10
7.44531e-12
-1.7122e-10
6.34157e-12
-1.73082e-10
5.22008e-12
-1.74542e-10
4.08372e-12
-1.75594e-10
2.93531e-12
-1.76236e-10
1.77794e-12
-1.76466e-10
6.14861e-13
-1.76284e-10
-5.50558e-13
-1.75691e-10
-1.71473e-12
-1.74686e-10
-2.87437e-12
-1.73274e-10
-4.02649e-12
-1.71457e-10
-5.16814e-12
-1.69241e-10
-6.29605e-12
-1.66632e-10
-7.40641e-12
-1.63636e-10
-8.49604e-12
-1.60262e-10
-9.56247e-12
-1.56519e-10
-1.06028e-11
-1.52417e-10
-1.16137e-11
-1.47967e-10
-1.25922e-11
-1.43183e-10
-1.35357e-11
-1.38076e-10
-1.44415e-11
-1.32662e-10
-1.53063e-11
-1.26955e-10
-1.6127e-11
-1.2097e-10
-1.69013e-11
-1.14727e-10
-1.76273e-11
-1.0824e-10
-1.83028e-11
-1.01531e-10
-1.89254e-11
-9.46176e-11
-1.94926e-11
-8.75206e-11
-2.00024e-11
-8.0261e-11
-2.04524e-11
-7.28596e-11
-2.08404e-11
-6.53381e-11
-2.1165e-11
-5.77201e-11
-2.14249e-11
-5.0029e-11
-2.16182e-11
-4.22881e-11
-2.17437e-11
-3.45221e-11
-2.17998e-11
-2.67553e-11
-2.1785e-11
-1.90122e-11
-2.16987e-11
-1.13185e-11
-2.15402e-11
-3.69886e-12
-2.13086e-11
3.82158e-12
-2.1004e-11
1.12162e-11
-2.06261e-11
1.84599e-11
-2.01746e-11
2.55277e-11
-1.96498e-11
3.23941e-11
-1.90523e-11
3.90344e-11
-1.83826e-11
4.54241e-11
-1.76419e-11
5.15384e-11
-1.68317e-11
5.73536e-11
-1.59531e-11
6.28475e-11
-1.50077e-11
6.79969e-11
-1.39979e-11
7.27805e-11
-1.2926e-11
7.71784e-11
-1.17946e-11
8.1171e-11
-1.06069e-11
8.47402e-11
-9.36631e-12
8.78696e-11
-8.07636e-12
9.05435e-11
-6.74161e-12
9.27481e-11
-5.36683e-12
9.44726e-11
-3.957e-12
9.57072e-11
-2.51804e-12
9.64438e-11
-1.05662e-12
9.66776e-11
4.2041e-13
9.6406e-11
1.90579e-12
9.56289e-11
3.39134e-12
9.43499e-11
4.86829e-12
9.25755e-11
6.32727e-12
9.03155e-11
7.75756e-12
8.75836e-11
9.14761e-12
8.4398e-11
1.04857e-11
8.07811e-11
1.1759e-11
7.67599e-11
1.29528e-11
7.23668e-11
1.40513e-11
6.76396e-11
1.50383e-11
6.26216e-11
1.58954e-11
5.73622e-11
1.66028e-11
5.19171e-11
1.71396e-11
4.63481e-11
1.74837e-11
4.07247e-11
1.76119e-11
3.51236e-11
1.74996e-11
2.96272e-11
1.71219e-11
2.43236e-11
1.64541e-11
1.93065e-11
1.54739e-11
1.46727e-11
1.41645e-11
1.05195e-11
1.2519e-11
6.94146e-12
1.05448e-11
4.02687e-12
8.27656e-12
1.85482e-12
5.7944e-12
4.90082e-13
3.24006e-12
8.82539e-13
6.30222e-13
-1.35298e-12
2.25534e-12
-4.9546e-12
4.78801e-12
-8.49101e-12
8.11691e-12
-1.17614e-11
1.21251e-11
-1.46072e-11
1.66948e-11
-1.69669e-11
2.17076e-11
-1.88381e-11
2.70494e-11
-2.02367e-11
3.26064e-11
-2.11898e-11
3.82746e-11
-2.17272e-11
4.39563e-11
-2.18816e-11
4.95606e-11
-2.169e-11
5.50073e-11
-2.11858e-11
6.0221e-11
-2.0405e-11
6.51357e-11
-1.93789e-11
6.96949e-11
-1.81365e-11
7.38463e-11
-1.67096e-11
7.75471e-11
-1.51246e-11
8.07596e-11
-1.34065e-11
8.34526e-11
-1.15797e-11
8.56021e-11
-9.66439e-12
8.71877e-11
-7.68057e-12
8.81957e-11
-5.64725e-12
8.86172e-11
-3.58067e-12
8.84454e-11
-1.4971e-12
8.76794e-11
5.89053e-13
8.6323e-11
2.66564e-12
8.43807e-11
4.72006e-12
8.18624e-11
6.74121e-12
7.87815e-11
8.72012e-12
7.51512e-11
1.06469e-11
7.09881e-11
1.25128e-11
6.63127e-11
1.43115e-11
6.11456e-11
1.60359e-11
5.55096e-11
1.76795e-11
4.94307e-11
1.92379e-11
4.29346e-11
2.07059e-11
3.60471e-11
2.20789e-11
2.87977e-11
2.33543e-11
2.12154e-11
2.45291e-11
1.3329e-11
2.56002e-11
5.17003e-12
2.6566e-11
-3.22976e-12
2.74255e-11
-1.18403e-11
2.8177e-11
-2.06299e-11
2.88198e-11
-2.95657e-11
2.93541e-11
-3.86167e-11
2.97799e-11
-4.77519e-11
3.00971e-11
-5.69391e-11
3.03065e-11
-6.61469e-11
3.04095e-11
-7.53453e-11
3.0407e-11
-8.45036e-11
3.03004e-11
-9.35914e-11
3.0092e-11
-1.0258e-10
2.97841e-11
-1.11441e-10
2.93782e-11
-1.20146e-10
2.88768e-11
-1.28668e-10
2.82835e-11
-1.36981e-10
2.76011e-11
-1.4506e-10
2.6832e-11
-1.52881e-10
2.598e-11
-1.60419e-10
2.50489e-11
-1.67652e-10
2.40415e-11
-1.74561e-10
2.29616e-11
-1.81124e-10
2.18138e-11
-1.87322e-10
2.06017e-11
-1.93137e-10
1.9329e-11
-1.98553e-10
1.79997e-11
-2.03554e-10
1.66183e-11
-2.08127e-10
1.51893e-11
-2.12258e-10
1.37169e-11
-2.15935e-10
1.22055e-11
-2.19148e-10
1.06593e-11
-2.21889e-10
9.08298e-12
-2.24149e-10
7.48057e-12
-2.25924e-10
5.85693e-12
-2.27207e-10
4.21694e-12
-2.27994e-10
2.56492e-12
-2.28284e-10
9.04916e-13
-2.28076e-10
-7.5856e-13
-2.2737e-10
-2.42043e-12
-2.26168e-10
-4.07592e-12
-2.24474e-10
-5.72073e-12
-2.22292e-10
-7.3504e-12
-2.19626e-10
-8.96041e-12
-2.16486e-10
-1.05461e-11
-2.12879e-10
-1.2103e-11
-2.08814e-10
-1.3627e-11
-2.04303e-10
-1.51137e-11
-1.99357e-10
-1.65586e-11
-1.93991e-10
-1.79576e-11
-1.8822e-10
-1.93068e-11
-1.82057e-10
-2.06025e-11
-1.75521e-10
-2.18407e-11
-1.6863e-10
-2.30173e-11
-1.61403e-10
-2.41287e-11
-1.5386e-10
-2.51711e-11
-1.46023e-10
-2.61412e-11
-1.37912e-10
-2.70358e-11
-1.29552e-10
-2.78521e-11
-1.20967e-10
-2.85871e-11
-1.12181e-10
-2.92377e-11
-1.03221e-10
-2.98008e-11
-9.41114e-11
-3.0274e-11
-8.48809e-11
-3.06553e-11
-7.55571e-11
-3.09423e-11
-6.61676e-11
-3.11328e-11
-5.67416e-11
-3.12253e-11
-4.73089e-11
-3.12181e-11
-3.78983e-11
-3.11097e-11
-2.85401e-11
-3.08992e-11
-1.92642e-11
-3.05855e-11
-1.01006e-11
-3.01679e-11
-1.0801e-12
-2.96468e-11
7.76681e-12
-2.90221e-11
1.64107e-11
-2.82939e-11
2.48213e-11
-2.74629e-11
3.29688e-11
-2.65303e-11
4.08241e-11
-2.54974e-11
4.83583e-11
-2.43661e-11
5.55434e-11
-2.31384e-11
6.23524e-11
-2.18168e-11
6.87586e-11
-2.04043e-11
7.47365e-11
-1.89046e-11
8.02624e-11
-1.73212e-11
8.53134e-11
-1.56582e-11
8.98681e-11
-1.3921e-11
9.39069e-11
-1.2115e-11
9.74116e-11
-1.02462e-11
1.00366e-10
-8.32153e-12
1.02758e-10
-6.34844e-12
1.04575e-10
-4.33487e-12
1.05808e-10
-2.28968e-12
1.06452e-10
-2.2296e-13
1.06503e-10
1.85487e-12
1.05962e-10
3.93275e-12
1.04833e-10
5.99809e-12
1.03123e-10
8.03736e-12
1.00844e-10
1.00364e-11
9.8012e-11
1.19794e-11
9.46488e-11
1.38492e-11
9.07794e-11
1.5628e-11
8.64354e-11
1.72961e-11
8.16544e-11
1.88322e-11
7.64793e-11
2.02134e-11
7.09589e-11
2.14154e-11
6.51499e-11
2.24124e-11
5.91152e-11
2.31758e-11
5.2924e-11
2.36758e-11
4.66533e-11
2.38823e-11
4.03883e-11
2.37643e-11
3.42198e-11
2.32903e-11
2.8244e-11
2.24297e-11
2.25629e-11
2.11551e-11
1.72823e-11
1.94459e-11
1.2509e-11
1.72928e-11
8.34995e-12
1.47041e-11
4.91137e-12
1.17151e-11
2.29981e-12
8.40598e-12
6.21606e-13
4.91826e-12
1.50382e-12
7.30798e-13
-2.08496e-12
2.61152e-12
-6.8355e-12
5.4866e-12
-1.13665e-11
9.20988e-12
-1.54841e-11
1.36432e-11
-1.90387e-11
1.86522e-11
-2.19773e-11
2.41102e-11
-2.42965e-11
2.98921e-11
-2.60194e-11
3.58797e-11
-2.71774e-11
4.19611e-11
-2.78071e-11
4.80299e-11
-2.79515e-11
5.39909e-11
-2.76515e-11
5.97552e-11
-2.69512e-11
6.52437e-11
-2.58937e-11
7.03854e-11
-2.45186e-11
7.51144e-11
-2.28664e-11
7.93768e-11
-2.09725e-11
8.31245e-11
-1.88721e-11
8.63154e-11
-1.65984e-11
8.89168e-11
-1.41806e-11
9.09004e-11
-1.16476e-11
9.22438e-11
-9.02509e-12
9.29328e-11
-6.33593e-12
9.29559e-11
-3.60342e-12
9.23063e-11
-8.48427e-13
9.09841e-11
1.91158e-12
8.89916e-11
4.6583e-12
8.63347e-11
7.37547e-12
8.30256e-11
1.005e-11
7.9078e-11
1.26681e-11
7.45073e-11
1.52169e-11
6.93344e-11
1.76862e-11
6.35808e-11
2.00657e-11
5.72698e-11
2.23459e-11
5.04285e-11
2.45199e-11
4.30855e-11
2.65806e-11
3.527e-11
2.85207e-11
2.70134e-11
3.03353e-11
1.83483e-11
3.20202e-11
9.3072e-12
3.35702e-11
-7.58531e-14
3.49823e-11
-9.76463e-12
3.62547e-11
-1.97239e-11
3.73848e-11
-2.99184e-11
3.83706e-11
-4.03109e-11
3.9212e-11
-5.08647e-11
3.99086e-11
-6.15443e-11
4.04595e-11
-7.23134e-11
4.08656e-11
-8.31349e-11
4.11282e-11
-9.39734e-11
4.1248e-11
-1.04794e-10
4.12267e-11
-1.15561e-10
4.10669e-11
-1.2624e-10
4.07708e-11
-1.36798e-10
4.03411e-11
-1.47201e-10
3.97808e-11
-1.57417e-10
3.90935e-11
-1.67416e-10
3.82825e-11
-1.77167e-10
3.73518e-11
-1.86641e-10
3.63055e-11
-1.95809e-10
3.51486e-11
-2.04645e-10
3.38853e-11
-2.13123e-10
3.25199e-11
-2.21219e-10
3.10575e-11
-2.28909e-10
2.95037e-11
-2.3617e-10
2.78633e-11
-2.42984e-10
2.61416e-11
-2.4933e-10
2.43448e-11
-2.55189e-10
2.24782e-11
-2.60547e-10
2.05471e-11
-2.65388e-10
1.85576e-11
-2.69699e-10
1.65159e-11
-2.73468e-10
1.44279e-11
-2.76684e-10
1.22993e-11
-2.79338e-10
1.01356e-11
-2.81424e-10
7.94309e-12
-2.82936e-10
5.72836e-12
-2.83869e-10
3.49744e-12
-2.84221e-10
1.25625e-12
-2.8399e-10
-9.89145e-13
-2.83178e-10
-3.23246e-12
-2.81786e-10
-5.46758e-12
-2.79819e-10
-7.68855e-12
-2.77281e-10
-9.88895e-12
-2.74178e-10
-1.20626e-11
-2.70519e-10
-1.42038e-11
-2.66315e-10
-1.63069e-11
-2.61575e-10
-1.83659e-11
-2.56313e-10
-2.03751e-11
-2.50542e-10
-2.23285e-11
-2.44279e-10
-2.42208e-11
-2.3754e-10
-2.60461e-11
-2.30343e-10
-2.77992e-11
-2.22708e-10
-2.94749e-11
-2.14655e-10
-3.10687e-11
-2.06208e-10
-3.25755e-11
-1.97389e-10
-3.39902e-11
-1.88222e-10
-3.53079e-11
-1.78734e-10
-3.65244e-11
-1.68951e-10
-3.76357e-11
-1.58901e-10
-3.86376e-11
-1.48611e-10
-3.95264e-11
-1.38113e-10
-4.02984e-11
-1.27437e-10
-4.09503e-11
-1.16613e-10
-4.14789e-11
-1.05674e-10
-4.18814e-11
-9.46524e-11
-4.21546e-11
-8.35814e-11
-4.22962e-11
-7.24951e-11
-4.23047e-11
-6.14271e-11
-4.2178e-11
-5.04119e-11
-4.19146e-11
-3.94843e-11
-4.15134e-11
-2.86792e-11
-4.09736e-11
-1.80317e-11
-4.0295e-11
-7.57636e-12
-3.94778e-11
2.65233e-12
-3.85225e-11
1.26196e-11
-3.74301e-11
2.22914e-11
-3.6202e-11
3.16341e-11
-3.48403e-11
4.06145e-11
-3.3347e-11
4.92009e-11
-3.1725e-11
5.73619e-11
-2.99779e-11
6.50666e-11
-2.81097e-11
7.22868e-11
-2.61249e-11
7.89949e-11
-2.40291e-11
8.51643e-11
-2.18278e-11
9.07707e-11
-1.95274e-11
9.57919e-11
-1.71358e-11
1.00207e-10
-1.46613e-11
1.03998e-10
-1.21126e-11
1.0715e-10
-9.49982e-12
1.0965e-10
-6.83396e-12
1.11486e-10
-4.12663e-12
1.12653e-10
-1.39043e-12
1.13149e-10
1.36036e-12
1.12971e-10
4.11048e-12
1.12126e-10
6.84369e-12
1.10622e-10
9.54217e-12
1.08471e-10
1.21869e-11
1.05693e-10
1.47575e-11
1.0231e-10
1.7232e-11
9.83508e-11
1.95866e-11
9.3851e-11
2.17956e-11
8.88515e-11
2.38317e-11
8.34002e-11
2.56656e-11
7.75509e-11
2.72656e-11
7.13644e-11
2.85988e-11
6.49098e-11
2.96303e-11
5.82629e-11
3.0323e-11
5.15069e-11
3.06386e-11
4.47325e-11
3.05386e-11
3.8037e-11
2.99854e-11
3.1524e-11
2.89424e-11
2.53027e-11
2.73766e-11
1.94866e-11
2.52623e-11
1.4193e-11
2.2587e-11
9.54149e-12
1.9356e-11
5.6563e-12
1.56003e-11
2.66994e-12
1.13918e-11
7.27336e-13
6.8603e-12
2.2309e-12
8.06746e-13
-2.89072e-12
2.88588e-12
-8.91494e-12
6.03339e-12
-1.45148e-11
1.00702e-11
-1.95214e-11
1.48378e-11
-2.38063e-11
2.01889e-11
-2.73267e-11
2.5982e-11
-3.00906e-11
3.20859e-11
-3.21242e-11
3.83758e-11
-3.34663e-11
4.47323e-11
-3.41637e-11
5.10463e-11
-3.42645e-11
5.72149e-11
-3.38208e-11
6.3145e-11
-3.28835e-11
6.87544e-11
-3.15021e-11
7.39651e-11
-2.97291e-11
7.87098e-11
-2.76108e-11
8.29294e-11
-2.51917e-11
8.65718e-11
-2.25154e-11
8.95936e-11
-1.96208e-11
9.19581e-11
-1.65455e-11
9.36353e-11
-1.33255e-11
9.46025e-11
-9.99199e-12
9.48419e-11
-6.57529e-12
9.43418e-11
-3.10419e-12
9.30971e-11
3.96558e-13
9.11059e-11
3.90295e-12
8.83712e-11
7.39214e-12
8.4902e-11
1.08451e-11
8.07093e-11
1.42431e-11
7.58081e-11
1.75685e-11
7.02178e-11
2.08068e-11
6.39602e-11
2.39439e-11
5.70593e-11
2.6966e-11
4.95428e-11
2.98624e-11
4.14402e-11
3.26229e-11
3.2782e-11
3.52379e-11
2.36023e-11
3.76998e-11
1.39364e-11
4.00017e-11
3.81921e-12
4.2137e-11
-6.71137e-12
4.41001e-11
-1.76165e-11
4.58875e-11
-2.88573e-11
4.74955e-11
-4.03942e-11
4.8921e-11
-5.21862e-11
5.01622e-11
-6.41924e-11
5.12183e-11
-7.63722e-11
5.20883e-11
-8.86849e-11
5.27717e-11
-1.01089e-10
5.32697e-11
-1.13545e-10
5.35835e-11
-1.26011e-10
5.37139e-11
-1.38448e-10
5.36636e-11
-1.50817e-10
5.34356e-11
-1.63079e-10
5.30324e-11
-1.75195e-10
5.24573e-11
-1.8713e-10
5.17149e-11
-1.98846e-10
5.08096e-11
-2.10308e-10
4.97452e-11
-2.21484e-10
4.85268e-11
-2.32338e-10
4.71603e-11
-2.4284e-10
4.5651e-11
-2.5296e-10
4.40048e-11
-2.62669e-10
4.22278e-11
-2.71937e-10
4.03264e-11
-2.80741e-10
3.8307e-11
-2.89053e-10
3.6176e-11
-2.96852e-10
3.39405e-11
-3.04116e-10
3.16082e-11
-3.10824e-10
2.91862e-11
-3.16958e-10
2.6681e-11
-3.225e-10
2.41006e-11
-3.27437e-10
2.14528e-11