/*--------------------------------*- C++ -*----------------------------------*\
  =========                 |
  \\      /  F ield         | OpenFOAM: The Open Source CFD Toolbox
   \\    /   O peration     | Website:  https://openfoam.org
    \\  /    A nd           | Version:  7
     \\/     M anipulation  |
\*---------------------------------------------------------------------------*/
FoamFile
{
    version     2.0;
    format      ascii;
    class       volVectorField;
    location    "0.125";
    object      U;
}
// * * * * * * * * * * * * * * * * * * * * * * * * * * * * * * * * * * * * * //

dimensions      [0 1 -1 0 0 0 0];

internalField   nonuniform List<vector> 
51200
(
(6.43841e-07 6.38097e-07 0)
(-1.528e-07 8.66773e-07 0)
(-2.48757e-07 3.06269e-07 0)
(-7.39063e-07 1.5259e-07 0)
(-6.86235e-07 4.84318e-08 0)
(-6.01049e-07 -7.17305e-09 0)
(-4.97096e-07 -3.34007e-08 0)
(-3.95958e-07 -3.73837e-08 0)
(-3.09718e-07 -3.29349e-08 0)
(-2.48638e-07 -2.76645e-08 0)
(-2.14627e-07 -1.94654e-08 0)
(-2.12508e-07 -1.14034e-08 0)
(-2.43229e-07 -2.96348e-09 0)
(-3.04517e-07 9.6281e-09 0)
(-3.99305e-07 2.38938e-08 0)
(-5.27352e-07 3.65031e-08 0)
(-6.84441e-07 4.69684e-08 0)
(-8.70487e-07 5.47776e-08 0)
(-1.08483e-06 6.01378e-08 0)
(-1.32534e-06 6.57913e-08 0)
(-1.59056e-06 7.31705e-08 0)
(-1.87952e-06 8.06807e-08 0)
(-2.19075e-06 8.71397e-08 0)
(-2.52191e-06 9.27624e-08 0)
(-2.87147e-06 9.83122e-08 0)
(-3.23881e-06 1.03471e-07 0)
(-3.62244e-06 1.07518e-07 0)
(-4.01997e-06 1.11074e-07 0)
(-4.43001e-06 1.14737e-07 0)
(-4.85189e-06 1.18118e-07 0)
(-5.28427e-06 1.2104e-07 0)
(-5.72548e-06 1.23761e-07 0)
(-6.17421e-06 1.26422e-07 0)
(-6.62899e-06 1.28335e-07 0)
(-7.08844e-06 1.28997e-07 0)
(-7.5513e-06 1.29108e-07 0)
(-8.01618e-06 1.29628e-07 0)
(-8.48249e-06 1.30498e-07 0)
(-8.94966e-06 1.30713e-07 0)
(-9.4163e-06 1.296e-07 0)
(-9.88106e-06 1.27838e-07 0)
(-1.03431e-05 1.26762e-07 0)
(-1.08018e-05 1.26749e-07 0)
(-1.12566e-05 1.27023e-07 0)
(-1.17066e-05 1.26699e-07 0)
(-1.21509e-05 1.25235e-07 0)
(-1.25886e-05 1.22408e-07 0)
(-1.3019e-05 1.18604e-07 0)
(-1.34414e-05 1.1479e-07 0)
(-1.38554e-05 1.11881e-07 0)
(-1.42603e-05 1.10184e-07 0)
(-1.46557e-05 1.09154e-07 0)
(-1.50412e-05 1.0759e-07 0)
(-1.54163e-05 1.04569e-07 0)
(-1.57806e-05 1.00277e-07 0)
(-1.61333e-05 9.56683e-08 0)
(-1.64741e-05 9.16102e-08 0)
(-1.68026e-05 8.8503e-08 0)
(-1.71189e-05 8.59834e-08 0)
(-1.74226e-05 8.31456e-08 0)
(-1.77132e-05 7.93819e-08 0)
(-1.79902e-05 7.48933e-08 0)
(-1.82534e-05 7.03958e-08 0)
(-1.85028e-05 6.64113e-08 0)
(-1.87385e-05 6.28461e-08 0)
(-1.89601e-05 5.91847e-08 0)
(-1.9167e-05 5.50442e-08 0)
(-1.93589e-05 5.06e-08 0)
(-1.9536e-05 4.63415e-08 0)
(-1.96982e-05 4.23778e-08 0)
(-1.98454e-05 3.83189e-08 0)
(-1.99775e-05 3.387e-08 0)
(-2.0094e-05 2.9226e-08 0)
(-2.0195e-05 2.4802e-08 0)
(-2.02805e-05 2.07344e-08 0)
(-2.03507e-05 1.67353e-08 0)
(-2.04054e-05 1.24001e-08 0)
(-2.04443e-05 7.66411e-09 0)
(-2.04676e-05 2.9281e-09 0)
(-2.04754e-05 -1.35658e-09 0)
(-2.04676e-05 -5.18469e-09 0)
(-2.04444e-05 -9.01216e-09 0)
(-2.04058e-05 -1.33251e-08 0)
(-2.03515e-05 -1.81499e-08 0)
(-2.02815e-05 -2.30166e-08 0)
(-2.0196e-05 -2.73866e-08 0)
(-2.00953e-05 -3.11491e-08 0)
(-1.99794e-05 -3.47713e-08 0)
(-1.98484e-05 -3.88593e-08 0)
(-1.97022e-05 -4.35123e-08 0)
(-1.95409e-05 -4.82137e-08 0)
(-1.93647e-05 -5.24031e-08 0)
(-1.91739e-05 -5.60736e-08 0)
(-1.89685e-05 -5.97177e-08 0)
(-1.87487e-05 -6.37258e-08 0)
(-1.85146e-05 -6.79751e-08 0)
(-1.82666e-05 -7.2034e-08 0)
(-1.8005e-05 -7.56544e-08 0)
(-1.77299e-05 -7.90047e-08 0)
(-1.74415e-05 -8.24498e-08 0)
(-1.71399e-05 -8.61629e-08 0)
(-1.68256e-05 -8.99765e-08 0)
(-1.6499e-05 -9.35723e-08 0)
(-1.61603e-05 -9.68231e-08 0)
(-1.58098e-05 -9.99173e-08 0)
(-1.54477e-05 -1.03071e-07 0)
(-1.50745e-05 -1.06232e-07 0)
(-1.46905e-05 -1.09161e-07 0)
(-1.42965e-05 -1.11741e-07 0)
(-1.38931e-05 -1.14121e-07 0)
(-1.34807e-05 -1.1653e-07 0)
(-1.30597e-05 -1.19011e-07 0)
(-1.26307e-05 -1.21405e-07 0)
(-1.21942e-05 -1.23493e-07 0)
(-1.17509e-05 -1.25153e-07 0)
(-1.13016e-05 -1.26471e-07 0)
(-1.08469e-05 -1.27692e-07 0)
(-1.03874e-05 -1.29e-07 0)
(-9.92396e-06 -1.30301e-07 0)
(-9.45721e-06 -1.31252e-07 0)
(-8.98814e-06 -1.31617e-07 0)
(-8.51765e-06 -1.31561e-07 0)
(-8.04657e-06 -1.31483e-07 0)
(-7.57571e-06 -1.31544e-07 0)
(-7.10605e-06 -1.31432e-07 0)
(-6.63885e-06 -1.30666e-07 0)
(-6.1755e-06 -1.29114e-07 0)
(-5.7172e-06 -1.27091e-07 0)
(-5.26497e-06 -1.24979e-07 0)
(-4.81979e-06 -1.22879e-07 0)
(-4.38283e-06 -1.20591e-07 0)
(-3.95542e-06 -1.17869e-07 0)
(-3.53894e-06 -1.14609e-07 0)
(-3.13472e-06 -1.10813e-07 0)
(-2.74416e-06 -1.06518e-07 0)
(-2.3686e-06 -1.0181e-07 0)
(-2.0094e-06 -9.68289e-08 0)
(-1.66782e-06 -9.16227e-08 0)
(-1.34512e-06 -8.6043e-08 0)
(-1.04271e-06 -7.98714e-08 0)
(-7.62054e-07 -7.3096e-08 0)
(-5.04453e-07 -6.59495e-08 0)
(-2.71086e-07 -5.86279e-08 0)
(-6.312e-08 -5.10942e-08 0)
(1.18308e-07 -4.32289e-08 0)
(2.72208e-07 -3.50118e-08 0)
(3.97801e-07 -2.64726e-08 0)
(4.94537e-07 -1.75976e-08 0)
(5.62061e-07 -8.39454e-09 0)
(6.00338e-07 9.14635e-10 0)
(6.09903e-07 9.86762e-09 0)
(5.91901e-07 1.81275e-08 0)
(5.48049e-07 2.56649e-08 0)
(4.8093e-07 3.2402e-08 0)
(3.94488e-07 3.78345e-08 0)
(2.94645e-07 4.08437e-08 0)
(1.9013e-07 3.97617e-08 0)
(9.32214e-08 3.25729e-08 0)
(2.25877e-08 1.70676e-08 0)
(-2.08905e-09 -1.98779e-09 0)
(9.13697e-07 -2.24019e-07 0)
(1.16007e-06 9.18948e-07 0)
(7.95022e-07 3.81115e-07 0)
(5.63277e-07 1.74212e-07 0)
(5.04177e-07 1.42147e-08 0)
(5.01608e-07 -8.21674e-08 0)
(5.26051e-07 -1.20444e-07 0)
(5.48978e-07 -1.17395e-07 0)
(5.44081e-07 -8.98009e-08 0)
(5.00747e-07 -4.53745e-08 0)
(3.99013e-07 5.54225e-09 0)
(2.29036e-07 6.08657e-08 0)
(-1.02111e-08 1.18873e-07 0)
(-3.27916e-07 1.78835e-07 0)
(-7.24681e-07 2.39718e-07 0)
(-1.19728e-06 3.00609e-07 0)
(-1.74723e-06 3.59917e-07 0)
(-2.37139e-06 4.15142e-07 0)
(-3.06653e-06 4.65911e-07 0)
(-3.83144e-06 5.14352e-07 0)
(-4.66258e-06 5.61271e-07 0)
(-5.55593e-06 6.05444e-07 0)
(-6.50808e-06 6.46641e-07 0)
(-7.51492e-06 6.85178e-07 0)
(-8.57216e-06 7.20819e-07 0)
(-9.67663e-06 7.53086e-07 0)
(-1.08246e-05 7.82371e-07 0)
(-1.20111e-05 8.09146e-07 0)
(-1.32324e-05 8.33188e-07 0)
(-1.4485e-05 8.54262e-07 0)
(-1.57655e-05 8.72493e-07 0)
(-1.70703e-05 8.88485e-07 0)
(-1.83949e-05 9.02452e-07 0)
(-1.97358e-05 9.13455e-07 0)
(-2.10899e-05 9.20944e-07 0)
(-2.24537e-05 9.26009e-07 0)
(-2.38237e-05 9.29608e-07 0)
(-2.51971e-05 9.31796e-07 0)
(-2.65713e-05 9.32058e-07 0)
(-2.79434e-05 9.29691e-07 0)
(-2.93103e-05 9.24843e-07 0)
(-3.06692e-05 9.18382e-07 0)
(-3.20181e-05 9.10684e-07 0)
(-3.33551e-05 9.01742e-07 0)
(-3.46778e-05 8.91747e-07 0)
(-3.59834e-05 8.8052e-07 0)
(-3.72693e-05 8.67357e-07 0)
(-3.85338e-05 8.51872e-07 0)
(-3.97756e-05 8.34382e-07 0)
(-4.09934e-05 8.15825e-07 0)
(-4.21853e-05 7.97249e-07 0)
(-4.33492e-05 7.78812e-07 0)
(-4.44837e-05 7.59627e-07 0)
(-4.55876e-05 7.3879e-07 0)
(-4.66597e-05 7.16205e-07 0)
(-4.76985e-05 6.92426e-07 0)
(-4.87029e-05 6.68019e-07 0)
(-4.96716e-05 6.43385e-07 0)
(-5.06044e-05 6.18568e-07 0)
(-5.15003e-05 5.93238e-07 0)
(-5.23581e-05 5.67137e-07 0)
(-5.31764e-05 5.40259e-07 0)
(-5.39544e-05 5.1269e-07 0)
(-5.46919e-05 4.84636e-07 0)
(-5.53886e-05 4.56349e-07 0)
(-5.60439e-05 4.27807e-07 0)
(-5.66568e-05 3.98795e-07 0)
(-5.72266e-05 3.69315e-07 0)
(-5.77526e-05 3.396e-07 0)
(-5.82349e-05 3.09739e-07 0)
(-5.86731e-05 2.79586e-07 0)
(-5.9067e-05 2.49047e-07 0)
(-5.94159e-05 2.18241e-07 0)
(-5.97195e-05 1.87389e-07 0)
(-5.99776e-05 1.56641e-07 0)
(-6.01901e-05 1.25933e-07 0)
(-6.03571e-05 9.4967e-08 0)
(-6.04785e-05 6.35567e-08 0)
(-6.05543e-05 3.2005e-08 0)
(-6.05842e-05 7.87171e-10 0)
(-6.05682e-05 -2.99929e-08 0)
(-6.05064e-05 -6.05746e-08 0)
(-6.03988e-05 -9.12983e-08 0)
(-6.02456e-05 -1.22353e-07 0)
(-6.00471e-05 -1.53587e-07 0)
(-5.98034e-05 -1.84585e-07 0)
(-5.95144e-05 -2.14989e-07 0)
(-5.91802e-05 -2.44881e-07 0)
(-5.8801e-05 -2.74774e-07 0)
(-5.83774e-05 -3.05008e-07 0)
(-5.79102e-05 -3.35313e-07 0)
(-5.73996e-05 -3.65126e-07 0)
(-5.68461e-05 -3.94148e-07 0)
(-5.62496e-05 -4.22553e-07 0)
(-5.56106e-05 -4.50739e-07 0)
(-5.49296e-05 -4.7891e-07 0)
(-5.42077e-05 -5.06916e-07 0)
(-5.34458e-05 -5.34391e-07 0)
(-5.26444e-05 -5.61055e-07 0)
(-5.1804e-05 -5.86977e-07 0)
(-5.0925e-05 -6.12433e-07 0)
(-5.00084e-05 -6.37535e-07 0)
(-4.90553e-05 -6.6214e-07 0)
(-4.8067e-05 -6.86058e-07 0)
(-4.70443e-05 -7.09253e-07 0)
(-4.59884e-05 -7.31768e-07 0)
(-4.49003e-05 -7.53487e-07 0)
(-4.37812e-05 -7.74153e-07 0)
(-4.26325e-05 -7.93617e-07 0)
(-4.14555e-05 -8.11976e-07 0)
(-4.02519e-05 -8.29407e-07 0)
(-3.90231e-05 -8.45956e-07 0)
(-3.7771e-05 -8.6153e-07 0)
(-3.64973e-05 -8.75931e-07 0)
(-3.52038e-05 -8.88888e-07 0)
(-3.38924e-05 -9.00255e-07 0)
(-3.25649e-05 -9.10118e-07 0)
(-3.12234e-05 -9.18651e-07 0)
(-2.98702e-05 -9.25922e-07 0)
(-2.85079e-05 -9.31729e-07 0)
(-2.71389e-05 -9.35706e-07 0)
(-2.5766e-05 -9.37646e-07 0)
(-2.43918e-05 -9.376e-07 0)
(-2.30188e-05 -9.35693e-07 0)
(-2.16498e-05 -9.31869e-07 0)
(-2.0288e-05 -9.2585e-07 0)
(-1.89367e-05 -9.17391e-07 0)
(-1.75992e-05 -9.0649e-07 0)
(-1.62789e-05 -8.9329e-07 0)
(-1.49792e-05 -8.77874e-07 0)
(-1.37036e-05 -8.60156e-07 0)
(-1.24557e-05 -8.39935e-07 0)
(-1.1239e-05 -8.17065e-07 0)
(-1.0057e-05 -7.91504e-07 0)
(-8.91358e-06 -7.63228e-07 0)
(-7.81253e-06 -7.32227e-07 0)
(-6.75779e-06 -6.98538e-07 0)
(-5.75324e-06 -6.6223e-07 0)
(-4.80276e-06 -6.23316e-07 0)
(-3.91019e-06 -5.81722e-07 0)
(-3.07918e-06 -5.37401e-07 0)
(-2.31308e-06 -4.90494e-07 0)
(-1.61504e-06 -4.41271e-07 0)
(-9.88089e-07 -3.89944e-07 0)
(-4.35012e-07 -3.3666e-07 0)
(4.18153e-08 -2.81662e-07 0)
(4.40534e-07 -2.25365e-07 0)
(7.59908e-07 -1.68291e-07 0)
(9.99447e-07 -1.11003e-07 0)
(1.15969e-06 -5.42073e-08 0)
(1.24259e-06 1.04683e-09 0)
(1.25163e-06 5.33472e-08 0)
(1.19216e-06 1.01037e-07 0)
(1.07189e-06 1.42047e-07 0)
(9.01758e-07 1.73438e-07 0)
(6.96809e-07 1.91048e-07 0)
(4.76747e-07 1.8931e-07 0)
(2.66197e-07 1.61291e-07 0)
(9.94838e-08 1.01202e-07 0)
(1.58447e-08 2.22925e-08 0)
(3.69116e-07 -4.78994e-07 0)
(7.25444e-07 1.99663e-07 0)
(1.0797e-06 2.63342e-07 0)
(1.20381e-06 1.48781e-07 0)
(1.27673e-06 1.39661e-08 0)
(1.32133e-06 -7.32465e-08 0)
(1.33212e-06 -1.01367e-07 0)
(1.28775e-06 -7.42496e-08 0)
(1.18403e-06 1.64136e-09 0)
(1.00008e-06 1.08192e-07 0)
(7.22044e-07 2.36802e-07 0)
(3.43542e-07 3.81433e-07 0)
(-1.47194e-07 5.32838e-07 0)
(-7.53223e-07 6.87337e-07 0)
(-1.47663e-06 8.44636e-07 0)
(-2.31985e-06 1.00076e-06 0)
(-3.28052e-06 1.15393e-06 0)
(-4.35534e-06 1.30337e-06 0)
(-5.54129e-06 1.44605e-06 0)
(-6.83436e-06 1.58199e-06 0)
(-8.22952e-06 1.71132e-06 0)
(-9.72198e-06 1.83307e-06 0)
(-1.13064e-05 1.94696e-06 0)
(-1.29761e-05 2.05338e-06 0)
(-1.4725e-05 2.15187e-06 0)
(-1.65479e-05 2.24198e-06 0)
(-1.84387e-05 2.32424e-06 0)
(-2.03906e-05 2.3991e-06 0)
(-2.23973e-05 2.46631e-06 0)
(-2.44536e-05 2.52553e-06 0)
(-2.65535e-05 2.57671e-06 0)
(-2.86903e-05 2.62081e-06 0)
(-3.08584e-05 2.65811e-06 0)
(-3.30531e-05 2.68798e-06 0)
(-3.52687e-05 2.71041e-06 0)
(-3.74996e-05 2.72624e-06 0)
(-3.97403e-05 2.73619e-06 0)
(-4.19864e-05 2.74068e-06 0)
(-4.42338e-05 2.73961e-06 0)
(-4.64775e-05 2.73271e-06 0)
(-4.87122e-05 2.72031e-06 0)
(-5.09336e-05 2.70263e-06 0)
(-5.31388e-05 2.67962e-06 0)
(-5.53243e-05 2.65172e-06 0)
(-5.7486e-05 2.61985e-06 0)
(-5.96201e-05 2.58455e-06 0)
(-6.17229e-05 2.54566e-06 0)
(-6.37915e-05 2.50261e-06 0)
(-6.58233e-05 2.45504e-06 0)
(-6.78154e-05 2.40352e-06 0)
(-6.97647e-05 2.34909e-06 0)
(-7.16686e-05 2.29226e-06 0)
(-7.35253e-05 2.2329e-06 0)
(-7.53326e-05 2.17086e-06 0)
(-7.70881e-05 2.10612e-06 0)
(-7.87895e-05 2.03882e-06 0)
(-8.04345e-05 1.96922e-06 0)
(-8.20216e-05 1.89746e-06 0)
(-8.355e-05 1.82363e-06 0)
(-8.50182e-05 1.74805e-06 0)
(-8.64242e-05 1.67102e-06 0)
(-8.77661e-05 1.5926e-06 0)
(-8.90425e-05 1.51267e-06 0)
(-9.02528e-05 1.43119e-06 0)
(-9.13963e-05 1.34827e-06 0)
(-9.2472e-05 1.26409e-06 0)
(-9.34786e-05 1.17882e-06 0)
(-9.44146e-05 1.09265e-06 0)
(-9.52796e-05 1.00568e-06 0)
(-9.60731e-05 9.1789e-07 0)
(-9.67949e-05 8.2932e-07 0)
(-9.7444e-05 7.40026e-07 0)
(-9.80198e-05 6.50067e-07 0)
(-9.85214e-05 5.5965e-07 0)
(-9.89489e-05 4.69039e-07 0)
(-9.9302e-05 3.78264e-07 0)
(-9.95809e-05 2.87167e-07 0)
(-9.97852e-05 1.95686e-07 0)
(-9.99145e-05 1.04022e-07 0)
(-9.99685e-05 1.24513e-08 0)
(-9.99473e-05 -7.88969e-08 0)
(-9.98512e-05 -1.6999e-07 0)
(-9.96803e-05 -2.60872e-07 0)
(-9.94348e-05 -3.51733e-07 0)
(-9.91148e-05 -4.42617e-07 0)
(-9.87204e-05 -5.3321e-07 0)
(-9.8252e-05 -6.23109e-07 0)
(-9.77099e-05 -7.12216e-07 0)
(-9.70947e-05 -8.00741e-07 0)
(-9.6407e-05 -8.88888e-07 0)
(-9.56472e-05 -9.76608e-07 0)
(-9.4816e-05 -1.06362e-06 0)
(-9.39143e-05 -1.14954e-06 0)
(-9.29426e-05 -1.23414e-06 0)
(-9.19016e-05 -1.31749e-06 0)
(-9.07922e-05 -1.39986e-06 0)
(-8.96156e-05 -1.48135e-06 0)
(-8.8373e-05 -1.56169e-06 0)
(-8.70657e-05 -1.64049e-06 0)
(-8.56946e-05 -1.71751e-06 0)
(-8.42608e-05 -1.79274e-06 0)
(-8.27655e-05 -1.86624e-06 0)
(-8.12105e-05 -1.93798e-06 0)
(-7.95976e-05 -2.00786e-06 0)
(-7.79288e-05 -2.07572e-06 0)
(-7.62059e-05 -2.14133e-06 0)
(-7.44305e-05 -2.20447e-06 0)
(-7.26044e-05 -2.26494e-06 0)
(-7.07299e-05 -2.32253e-06 0)
(-6.88093e-05 -2.37708e-06 0)
(-6.68452e-05 -2.42855e-06 0)
(-6.48402e-05 -2.47688e-06 0)
(-6.2797e-05 -2.52196e-06 0)
(-6.07186e-05 -2.56361e-06 0)
(-5.86077e-05 -2.6015e-06 0)
(-5.64675e-05 -2.63532e-06 0)
(-5.43013e-05 -2.66487e-06 0)
(-5.21126e-05 -2.69008e-06 0)
(-4.9905e-05 -2.71081e-06 0)
(-4.76825e-05 -2.72686e-06 0)
(-4.54492e-05 -2.73794e-06 0)
(-4.32094e-05 -2.74373e-06 0)
(-4.09674e-05 -2.74392e-06 0)
(-3.87276e-05 -2.7383e-06 0)
(-3.64944e-05 -2.72666e-06 0)
(-3.42728e-05 -2.70882e-06 0)
(-3.2068e-05 -2.68456e-06 0)
(-2.98853e-05 -2.65369e-06 0)
(-2.773e-05 -2.6161e-06 0)
(-2.56077e-05 -2.57165e-06 0)
(-2.3524e-05 -2.52016e-06 0)
(-2.14847e-05 -2.46144e-06 0)
(-1.94955e-05 -2.39531e-06 0)
(-1.7562e-05 -2.32171e-06 0)
(-1.56903e-05 -2.24058e-06 0)
(-1.38866e-05 -2.1518e-06 0)
(-1.21569e-05 -2.05529e-06 0)
(-1.05073e-05 -1.95111e-06 0)
(-8.94363e-06 -1.8394e-06 0)
(-7.47184e-06 -1.72031e-06 0)
(-6.09756e-06 -1.59402e-06 0)
(-4.82603e-06 -1.46085e-06 0)
(-3.66209e-06 -1.32128e-06 0)
(-2.61028e-06 -1.1759e-06 0)
(-1.6747e-06 -1.02536e-06 0)
(-8.5872e-07 -8.70511e-07 0)
(-1.64807e-07 -7.12531e-07 0)
(4.056e-07 -5.52974e-07 0)
(8.52199e-07 -3.93653e-07 0)
(1.17616e-06 -2.36681e-07 0)
(1.38078e-06 -8.477e-08 0)
(1.47181e-06 5.8583e-08 0)
(1.45771e-06 1.88915e-07 0)
(1.35033e-06 3.00559e-07 0)
(1.16559e-06 3.86368e-07 0)
(9.24393e-07 4.3727e-07 0)
(6.53023e-07 4.4215e-07 0)
(3.82619e-07 3.88448e-07 0)
(1.56329e-07 2.66169e-07 0)
(3.02423e-08 9.04229e-08 0)
(2.2069e-07 -1.16913e-06 0)
(5.55487e-07 -4.55706e-07 0)
(1.04668e-06 -1.49718e-07 0)
(1.3574e-06 -1.09454e-07 0)
(1.54948e-06 -1.2391e-07 0)
(1.64604e-06 -1.21178e-07 0)
(1.64291e-06 -7.14562e-08 0)
(1.54343e-06 4.07761e-08 0)
(1.3299e-06 2.07961e-07 0)
(9.9537e-07 4.18491e-07 0)
(5.29841e-07 6.66182e-07 0)
(-8.04032e-08 9.37408e-07 0)
(-8.39129e-07 1.2231e-06 0)
(-1.75064e-06 1.51717e-06 0)
(-2.81727e-06 1.81244e-06 0)
(-4.0391e-06 2.10514e-06 0)
(-5.41555e-06 2.39345e-06 0)
(-6.94382e-06 2.67425e-06 0)
(-8.61929e-06 2.94489e-06 0)
(-1.0436e-05 3.20424e-06 0)
(-1.23881e-05 3.45059e-06 0)
(-1.44689e-05 3.68267e-06 0)
(-1.66708e-05 3.90084e-06 0)
(-1.89864e-05 4.10477e-06 0)
(-2.14082e-05 4.29317e-06 0)
(-2.39281e-05 4.46604e-06 0)
(-2.65376e-05 4.62401e-06 0)
(-2.92287e-05 4.76751e-06 0)
(-3.1994e-05 4.89618e-06 0)
(-3.48256e-05 5.00978e-06 0)
(-3.77147e-05 5.10898e-06 0)
(-4.0653e-05 5.19417e-06 0)
(-4.36335e-05 5.26514e-06 0)
(-4.66495e-05 5.32222e-06 0)
(-4.96934e-05 5.36612e-06 0)
(-5.27576e-05 5.3975e-06 0)
(-5.58351e-05 5.41682e-06 0)
(-5.89197e-05 5.4242e-06 0)
(-6.20054e-05 5.42016e-06 0)
(-6.50856e-05 5.40577e-06 0)
(-6.8154e-05 5.38158e-06 0)
(-7.12052e-05 5.34725e-06 0)
(-7.4234e-05 5.30268e-06 0)
(-7.7235e-05 5.24846e-06 0)
(-8.02025e-05 5.18546e-06 0)
(-8.31319e-05 5.1146e-06 0)
(-8.60193e-05 5.0364e-06 0)
(-8.88609e-05 4.95077e-06 0)
(-9.16526e-05 4.85783e-06 0)
(-9.43896e-05 4.75814e-06 0)
(-9.70678e-05 4.65214e-06 0)
(-9.96839e-05 4.54e-06 0)
(-0.000102235 4.42204e-06 0)
(-0.000104718 4.29875e-06 0)
(-0.000107131 4.17063e-06 0)
(-0.00010947 4.03816e-06 0)
(-0.000111732 3.90149e-06 0)
(-0.000113915 3.76033e-06 0)
(-0.000116017 3.61473e-06 0)
(-0.000118036 3.46533e-06 0)
(-0.000119969 3.31291e-06 0)
(-0.000121815 3.15776e-06 0)
(-0.000123572 2.99981e-06 0)
(-0.000125238 2.83888e-06 0)
(-0.000126812 2.67502e-06 0)
(-0.000128293 2.50869e-06 0)
(-0.000129678 2.34042e-06 0)
(-0.000130968 2.17038e-06 0)
(-0.00013216 1.99844e-06 0)
(-0.000133253 1.82467e-06 0)
(-0.000134248 1.64942e-06 0)
(-0.000135144 1.47298e-06 0)
(-0.000135939 1.29549e-06 0)
(-0.000136632 1.11703e-06 0)
(-0.000137223 9.37726e-07 0)
(-0.000137712 7.57639e-07 0)
(-0.000138099 5.76997e-07 0)
(-0.000138383 3.96112e-07 0)
(-0.000138565 2.15142e-07 0)
(-0.000138642 3.4107e-08 0)
(-0.000138617 -1.46937e-07 0)
(-0.000138488 -3.27799e-07 0)
(-0.000138257 -5.08267e-07 0)
(-0.000137923 -6.88276e-07 0)
(-0.000137486 -8.67806e-07 0)
(-0.000136948 -1.04673e-06 0)
(-0.000136307 -1.22487e-06 0)
(-0.000135565 -1.40201e-06 0)
(-0.000134722 -1.5779e-06 0)
(-0.00013378 -1.75237e-06 0)
(-0.000132739 -1.92547e-06 0)
(-0.0001316 -2.09719e-06 0)
(-0.000130363 -2.26726e-06 0)
(-0.00012903 -2.43522e-06 0)
(-0.000127602 -2.6008e-06 0)
(-0.00012608 -2.76403e-06 0)
(-0.000124466 -2.925e-06 0)
(-0.000122761 -3.08357e-06 0)
(-0.000120967 -3.23942e-06 0)
(-0.000119085 -3.39212e-06 0)
(-0.000117117 -3.54132e-06 0)
(-0.000115065 -3.68685e-06 0)
(-0.000112931 -3.82869e-06 0)
(-0.000110718 -3.96675e-06 0)
(-0.000108427 -4.1007e-06 0)
(-0.000106063 -4.23007e-06 0)
(-0.000103626 -4.3545e-06 0)
(-0.00010112 -4.47377e-06 0)
(-9.85475e-05 -4.58764e-06 0)
(-9.59118e-05 -4.69575e-06 0)
(-9.32165e-05 -4.79778e-06 0)
(-9.04651e-05 -4.89343e-06 0)
(-8.76616e-05 -4.9824e-06 0)
(-8.48098e-05 -5.06435e-06 0)
(-8.19134e-05 -5.13891e-06 0)
(-7.89768e-05 -5.20569e-06 0)
(-7.60046e-05 -5.26422e-06 0)
(-7.30017e-05 -5.31405e-06 0)
(-6.99733e-05 -5.35474e-06 0)
(-6.69245e-05 -5.38599e-06 0)
(-6.38608e-05 -5.40748e-06 0)
(-6.07879e-05 -5.41876e-06 0)
(-5.77118e-05 -5.41918e-06 0)
(-5.46385e-05 -5.40819e-06 0)
(-5.15745e-05 -5.38542e-06 0)
(-4.85262e-05 -5.35057e-06 0)
(-4.55003e-05 -5.30329e-06 0)
(-4.25041e-05 -5.24318e-06 0)
(-3.95448e-05 -5.16987e-06 0)
(-3.663e-05 -5.0831e-06 0)
(-3.37672e-05 -4.98258e-06 0)
(-3.0964e-05 -4.868e-06 0)
(-2.82282e-05 -4.73906e-06 0)
(-2.55677e-05 -4.59561e-06 0)
(-2.29903e-05 -4.43755e-06 0)
(-2.05042e-05 -4.2648e-06 0)
(-1.81175e-05 -4.07722e-06 0)
(-1.58382e-05 -3.8749e-06 0)
(-1.3674e-05 -3.65816e-06 0)
(-1.16324e-05 -3.42743e-06 0)
(-9.72066e-06 -3.1832e-06 0)
(-7.94567e-06 -2.92611e-06 0)
(-6.31379e-06 -2.65707e-06 0)
(-4.83081e-06 -2.37726e-06 0)
(-3.50179e-06 -2.08813e-06 0)
(-2.33085e-06 -1.79139e-06 0)
(-1.32099e-06 -1.48927e-06 0)
(-4.73726e-07 -1.1847e-06 0)
(2.11105e-07 -8.81287e-07 0)
(7.3549e-07 -5.83176e-07 0)
(1.10382e-06 -2.95385e-07 0)
(1.32344e-06 -2.42548e-08 0)
(1.40513e-06 2.22228e-07 0)
(1.36374e-06 4.34113e-07 0)
(1.21869e-06 5.99312e-07 0)
(9.94505e-07 7.0338e-07 0)
(7.21275e-07 7.29257e-07 0)
(4.34347e-07 6.57944e-07 0)
(1.8337e-07 4.73198e-07 0)
(3.71358e-08 1.83789e-07 0)
(1.2319e-07 -1.32758e-06 0)
(3.90256e-07 -9.55643e-07 0)
(8.82307e-07 -6.07101e-07 0)
(1.26322e-06 -4.42441e-07 0)
(1.50572e-06 -3.21858e-07 0)
(1.60589e-06 -1.88134e-07 0)
(1.57061e-06 -3.15597e-09 0)
(1.38484e-06 2.42976e-07 0)
(1.04357e-06 5.48992e-07 0)
(5.40852e-07 9.10424e-07 0)
(-1.33882e-07 1.31256e-06 0)
(-9.89184e-07 1.74654e-06 0)
(-2.0307e-06 2.20234e-06 0)
(-3.26167e-06 2.66979e-06 0)
(-4.68377e-06 3.14091e-06 0)
(-6.2955e-06 3.60797e-06 0)
(-8.09456e-06 4.06668e-06 0)
(-1.00784e-05 4.51287e-06 0)
(-1.22413e-05 4.94401e-06 0)
(-1.45769e-05 5.35751e-06 0)
(-1.70784e-05 5.75088e-06 0)
(-1.97367e-05 6.12287e-06 0)
(-2.2543e-05 6.47268e-06 0)
(-2.54892e-05 6.79923e-06 0)
(-2.85659e-05 7.10177e-06 0)
(-3.17624e-05 7.3802e-06 0)
(-3.50688e-05 7.63466e-06 0)
(-3.84757e-05 7.86495e-06 0)
(-4.19738e-05 8.07099e-06 0)
(-4.55531e-05 8.25357e-06 0)
(-4.92033e-05 8.41359e-06 0)
(-5.29147e-05 8.55074e-06 0)
(-5.66783e-05 8.66492e-06 0)
(-6.04849e-05 8.75693e-06 0)
(-6.43256e-05 8.82793e-06 0)
(-6.81913e-05 8.87884e-06 0)
(-7.20739e-05 8.91e-06 0)
(-7.59653e-05 8.92153e-06 0)
(-7.9857e-05 8.91438e-06 0)
(-8.37407e-05 8.88987e-06 0)
(-8.76097e-05 8.84873e-06 0)
(-9.14576e-05 8.79143e-06 0)
(-9.52776e-05 8.71857e-06 0)
(-9.90626e-05 8.63082e-06 0)
(-0.000102806 8.52882e-06 0)
(-0.000106501 8.4131e-06 0)
(-0.000110142 8.28409e-06 0)
(-0.000113726 8.1425e-06 0)
(-0.000117247 7.98957e-06 0)
(-0.0001207 7.82628e-06 0)
(-0.000124079 7.65299e-06 0)
(-0.00012738 7.46979e-06 0)
(-0.0001306 7.27685e-06 0)
(-0.000133734 7.0747e-06 0)
(-0.000136778 6.86418e-06 0)
(-0.000139729 6.64624e-06 0)
(-0.000142585 6.4214e-06 0)
(-0.000145341 6.1897e-06 0)
(-0.000147995 5.95129e-06 0)
(-0.000150545 5.70666e-06 0)
(-0.000152986 5.45641e-06 0)
(-0.000155317 5.20112e-06 0)
(-0.000157536 4.94115e-06 0)
(-0.00015964 4.67657e-06 0)
(-0.000161629 4.4075e-06 0)
(-0.0001635 4.13442e-06 0)
(-0.000165251 3.85794e-06 0)
(-0.00016688 3.57836e-06 0)
(-0.000168387 3.29576e-06 0)
(-0.00016977 3.01027e-06 0)
(-0.000171029 2.72218e-06 0)
(-0.000172161 2.43195e-06 0)
(-0.000173167 2.14004e-06 0)
(-0.000174044 1.84676e-06 0)
(-0.000174793 1.55208e-06 0)
(-0.000175414 1.25597e-06 0)
(-0.000175905 9.58762e-07 0)
(-0.000176266 6.61027e-07 0)
(-0.000176497 3.63138e-07 0)
(-0.000176598 6.52641e-08 0)
(-0.000176569 -2.32527e-07 0)
(-0.000176409 -5.30218e-07 0)
(-0.000176119 -8.27651e-07 0)
(-0.0001757 -1.12442e-06 0)
(-0.000175151 -1.42004e-06 0)
(-0.000174473 -1.71427e-06 0)
(-0.000173667 -2.00712e-06 0)
(-0.000172732 -2.29858e-06 0)
(-0.000171671 -2.58833e-06 0)
(-0.000170484 -2.8759e-06 0)
(-0.000169172 -3.16095e-06 0)
(-0.000167736 -3.44327e-06 0)
(-0.000166177 -3.72271e-06 0)
(-0.000164496 -3.99904e-06 0)
(-0.000162695 -4.27194e-06 0)
(-0.000160776 -4.54102e-06 0)
(-0.000158741 -4.80594e-06 0)
(-0.000156591 -5.06649e-06 0)
(-0.000154328 -5.32246e-06 0)
(-0.000151954 -5.57348e-06 0)
(-0.000149472 -5.81901e-06 0)
(-0.000146885 -6.05856e-06 0)
(-0.000144194 -6.29185e-06 0)
(-0.000141403 -6.51866e-06 0)
(-0.000138515 -6.7386e-06 0)
(-0.000135532 -6.95107e-06 0)
(-0.000132459 -7.15551e-06 0)
(-0.000129299 -7.35141e-06 0)
(-0.000126056 -7.53835e-06 0)
(-0.000122733 -7.71589e-06 0)
(-0.000119334 -7.88356e-06 0)
(-0.000115865 -8.04085e-06 0)
(-0.000112331 -8.1871e-06 0)
(-0.000108735 -8.32162e-06 0)
(-0.000105084 -8.44382e-06 0)
(-0.000101382 -8.55319e-06 0)
(-9.76349e-05 -8.64915e-06 0)
(-9.38494e-05 -8.73096e-06 0)
(-9.00316e-05 -8.79784e-06 0)
(-8.61883e-05 -8.8491e-06 0)
(-8.23263e-05 -8.88415e-06 0)
(-7.84526e-05 -8.90243e-06 0)
(-7.45744e-05 -8.90319e-06 0)
(-7.06994e-05 -8.8856e-06 0)
(-6.68357e-05 -8.84892e-06 0)
(-6.29913e-05 -8.79248e-06 0)
(-5.91749e-05 -8.71573e-06 0)
(-5.5395e-05 -8.61815e-06 0)
(-5.16607e-05 -8.49922e-06 0)
(-4.79813e-05 -8.35845e-06 0)
(-4.43662e-05 -8.19535e-06 0)
(-4.08247e-05 -8.00947e-06 0)
(-3.73664e-05 -7.8004e-06 0)
(-3.40011e-05 -7.56787e-06 0)
(-3.07385e-05 -7.31172e-06 0)
(-2.75885e-05 -7.03195e-06 0)
(-2.45608e-05 -6.7286e-06 0)
(-2.16651e-05 -6.40182e-06 0)
(-1.89109e-05 -6.05204e-06 0)
(-1.63072e-05 -5.67997e-06 0)
(-1.38627e-05 -5.28652e-06 0)
(-1.15855e-05 -4.87291e-06 0)
(-9.48327e-06 -4.44068e-06 0)
(-7.56275e-06 -3.99178e-06 0)
(-5.82978e-06 -3.52863e-06 0)
(-4.28904e-06 -3.05418e-06 0)
(-2.94392e-06 -2.57202e-06 0)
(-1.79618e-06 -2.08659e-06 0)
(-8.45356e-07 -1.60351e-06 0)
(-8.86777e-08 -1.12948e-06 0)
(4.7928e-07 -6.72464e-07 0)
(8.67116e-07 -2.42135e-07 0)
(1.08708e-06 1.49767e-07 0)
(1.15582e-06 4.88905e-07 0)
(1.09493e-06 7.58055e-07 0)
(9.31216e-07 9.37024e-07 0)
(6.97109e-07 1.00247e-06 0)
(4.3078e-07 9.28209e-07 0)
(1.85989e-07 6.89622e-07 0)
(3.85714e-08 2.8475e-07 0)
(7.11241e-08 -1.44628e-06 0)
(2.61148e-07 -1.36732e-06 0)
(6.83669e-07 -1.03181e-06 0)
(1.03687e-06 -7.65688e-07 0)
(1.25328e-06 -5.09173e-07 0)
(1.3128e-06 -2.11781e-07 0)
(1.19693e-06 1.40536e-07 0)
(8.97048e-07 5.60026e-07 0)
(4.02376e-07 1.05031e-06 0)
(-2.93738e-07 1.60041e-06 0)
(-1.19844e-06 2.19864e-06 0)
(-2.31801e-06 2.83342e-06 0)
(-3.65731e-06 3.4929e-06 0)
(-5.21963e-06 4.1662e-06 0)
(-7.00628e-06 4.84376e-06 0)
(-9.0149e-06 5.51728e-06 0)
(-1.12422e-05 6.17858e-06 0)
(-1.36839e-05 6.82249e-06 0)
(-1.63336e-05 7.44481e-06 0)
(-1.91845e-05 8.04129e-06 0)
(-2.22281e-05 8.60972e-06 0)
(-2.54544e-05 9.14811e-06 0)
(-2.88536e-05 9.65414e-06 0)
(-3.24159e-05 1.01265e-05 0)
(-3.61303e-05 1.05651e-05 0)
(-3.99848e-05 1.09696e-05 0)
(-4.39681e-05 1.13394e-05 0)
(-4.80694e-05 1.16737e-05 0)
(-5.2277e-05 1.19731e-05 0)
(-5.65788e-05 1.22385e-05 0)
(-6.09638e-05 1.24705e-05 0)
(-6.54213e-05 1.26693e-05 0)
(-6.994e-05 1.28353e-05 0)
(-7.45088e-05 1.29693e-05 0)
(-7.91168e-05 1.30726e-05 0)
(-8.37542e-05 1.31462e-05 0)
(-8.84116e-05 1.31906e-05 0)
(-9.30789e-05 1.32071e-05 0)
(-9.77461e-05 1.31968e-05 0)
(-0.000102404 1.31606e-05 0)
(-0.000107043 1.30992e-05 0)
(-0.000111657 1.30135e-05 0)
(-0.000116237 1.29048e-05 0)
(-0.000120775 1.27747e-05 0)
(-0.000125263 1.26243e-05 0)
(-0.000129694 1.24541e-05 0)
(-0.000134063 1.22642e-05 0)
(-0.000138361 1.20558e-05 0)
(-0.000142583 1.18302e-05 0)
(-0.000146723 1.15886e-05 0)
(-0.000150776 1.13319e-05 0)
(-0.000154736 1.10608e-05 0)
(-0.000158598 1.07759e-05 0)
(-0.000162358 1.04779e-05 0)
(-0.000166011 1.01676e-05 0)
(-0.000169552 9.84572e-06 0)
(-0.000172978 9.5128e-06 0)
(-0.000176285 9.16968e-06 0)
(-0.000179471 8.81712e-06 0)
(-0.00018253 8.45575e-06 0)
(-0.00018546 8.08606e-06 0)
(-0.000188258 7.70856e-06 0)
(-0.000190922 7.32372e-06 0)
(-0.000193449 6.93202e-06 0)
(-0.000195837 6.53399e-06 0)
(-0.000198083 6.13019e-06 0)
(-0.000200186 5.72111e-06 0)
(-0.000202143 5.30719e-06 0)
(-0.000203953 4.88884e-06 0)
(-0.000205615 4.46639e-06 0)
(-0.000207127 4.04017e-06 0)
(-0.000208488 3.61065e-06 0)
(-0.000209696 3.17847e-06 0)
(-0.000210751 2.74404e-06 0)
(-0.000211653 2.30756e-06 0)
(-0.000212399 1.86923e-06 0)
(-0.000212991 1.42939e-06 0)
(-0.000213426 9.88543e-07 0)
(-0.000213706 5.47141e-07 0)
(-0.000213829 1.05633e-07 0)
(-0.000213795 -3.35646e-07 0)
(-0.000213606 -7.76611e-07 0)
(-0.00021326 -1.21715e-06 0)
(-0.000212759 -1.65682e-06 0)
(-0.000212102 -2.09502e-06 0)
(-0.00021129 -2.53127e-06 0)
(-0.000210323 -2.96526e-06 0)
(-0.000209204 -3.39685e-06 0)
(-0.000207932 -3.82583e-06 0)
(-0.000206509 -4.25186e-06 0)
(-0.000204935 -4.67438e-06 0)
(-0.000203213 -5.09278e-06 0)
(-0.000201344 -5.50662e-06 0)
(-0.000199328 -5.9157e-06 0)
(-0.000197169 -6.3198e-06 0)
(-0.000194867 -6.71844e-06 0)
(-0.000192426 -7.11102e-06 0)
(-0.000189848 -7.49699e-06 0)
(-0.000187134 -7.87589e-06 0)
(-0.000184288 -8.24726e-06 0)
(-0.000181311 -8.61053e-06 0)
(-0.000178207 -8.96512e-06 0)
(-0.000174981 -9.31049e-06 0)
(-0.000171634 -9.64608e-06 0)
(-0.00016817 -9.97131e-06 0)
(-0.000164594 -1.02855e-05 0)
(-0.000160909 -1.05879e-05 0)
(-0.00015712 -1.08778e-05 0)
(-0.00015323 -1.11543e-05 0)
(-0.000149246 -1.14167e-05 0)
(-0.000145171 -1.16646e-05 0)
(-0.000141012 -1.18971e-05 0)
(-0.000136774 -1.21133e-05 0)
(-0.000132463 -1.23122e-05 0)
(-0.000128086 -1.24929e-05 0)
(-0.000123648 -1.26545e-05 0)
(-0.000119156 -1.2796e-05 0)
(-0.000114618 -1.29168e-05 0)
(-0.000110041 -1.30157e-05 0)
(-0.000105433 -1.30917e-05 0)
(-0.000100803 -1.31438e-05 0)
(-9.61586e-05 -1.3171e-05 0)
(-9.15084e-05 -1.31724e-05 0)
(-8.68616e-05 -1.31469e-05 0)
(-8.22276e-05 -1.30936e-05 0)
(-7.76161e-05 -1.30114e-05 0)
(-7.30373e-05 -1.28995e-05 0)
(-6.85014e-05 -1.27571e-05 0)
(-6.4019e-05 -1.25834e-05 0)
(-5.9601e-05 -1.23778e-05 0)
(-5.52584e-05 -1.21396e-05 0)
(-5.1002e-05 -1.18681e-05 0)
(-4.68433e-05 -1.1563e-05 0)
(-4.27935e-05 -1.12238e-05 0)
(-3.88642e-05 -1.08503e-05 0)
(-3.50668e-05 -1.04424e-05 0)
(-3.14125e-05 -1.00005e-05 0)
(-2.79124e-05 -9.52508e-06 0)
(-2.45776e-05 -9.01668e-06 0)
(-2.14184e-05 -8.47634e-06 0)
(-1.84447e-05 -7.90548e-06 0)
(-1.56659e-05 -7.30592e-06 0)
(-1.30905e-05 -6.68002e-06 0)
(-1.07262e-05 -6.03069e-06 0)
(-8.57962e-06 -5.36147e-06 0)
(-6.6558e-06 -4.67682e-06 0)
(-4.95837e-06 -3.98207e-06 0)
(-3.48919e-06 -3.28356e-06 0)
(-2.24779e-06 -2.58898e-06 0)
(-1.23096e-06 -1.90768e-06 0)
(-4.32592e-07 -1.25086e-06 0)
(1.56807e-07 -6.31878e-07 0)
(5.50479e-07 -6.65866e-08 0)
(7.66073e-07 4.26187e-07 0)
(8.26279e-07 8.24132e-07 0)
(7.59099e-07 1.10126e-06 0)
(5.98239e-07 1.22764e-06 0)
(3.83571e-07 1.16929e-06 0)
(1.70521e-07 8.92056e-07 0)
(3.64184e-08 3.81966e-07 0)
(3.70531e-08 -1.51523e-06 0)
(1.62283e-07 -1.67392e-06 0)
(4.78224e-07 -1.37113e-06 0)
(7.42525e-07 -1.02555e-06 0)
(8.78558e-07 -6.19299e-07 0)
(8.40608e-07 -1.47229e-07 0)
(6.039e-07 4.01062e-07 0)
(1.54927e-07 1.02895e-06 0)
(-5.20845e-07 1.73468e-06 0)
(-1.4339e-06 2.50842e-06 0)
(-2.58879e-06 3.33795e-06 0)
(-3.99109e-06 4.20892e-06 0)
(-5.64499e-06 5.10673e-06 0)
(-7.55204e-06 6.01871e-06 0)
(-9.7125e-06 6.93383e-06 0)
(-1.21247e-05 7.84245e-06 0)
(-1.47844e-05 8.73497e-06 0)
(-1.76856e-05 9.60475e-06 0)
(-2.08218e-05 1.04452e-05 0)
(-2.41845e-05 1.12515e-05 0)
(-2.7764e-05 1.20206e-05 0)
(-3.15502e-05 1.27493e-05 0)
(-3.5532e-05 1.34344e-05 0)
(-3.96974e-05 1.40745e-05 0)
(-4.40339e-05 1.46691e-05 0)
(-4.85292e-05 1.52176e-05 0)
(-5.3171e-05 1.57189e-05 0)
(-5.79464e-05 1.61729e-05 0)
(-6.28415e-05 1.65802e-05 0)
(-6.78434e-05 1.69412e-05 0)
(-7.29397e-05 1.7256e-05 0)
(-7.81179e-05 1.75256e-05 0)
(-8.33655e-05 1.7751e-05 0)
(-8.86697e-05 1.79334e-05 0)
(-9.40182e-05 1.80739e-05 0)
(-9.93998e-05 1.81731e-05 0)
(-0.000104803 1.82324e-05 0)
(-0.000110217 1.82537e-05 0)
(-0.000115631 1.82386e-05 0)
(-0.000121033 1.81882e-05 0)
(-0.000126415 1.81032e-05 0)
(-0.000131767 1.7985e-05 0)
(-0.000137078 1.7835e-05 0)
(-0.00014234 1.76552e-05 0)
(-0.000147545 1.7447e-05 0)
(-0.000152684 1.72114e-05 0)
(-0.000157751 1.69495e-05 0)