/*--------------------------------*- C++ -*----------------------------------*\
  =========                 |
  \\      /  F ield         | OpenFOAM: The Open Source CFD Toolbox
   \\    /   O peration     | Website:  https://openfoam.org
    \\  /    A nd           | Version:  7
     \\/     M anipulation  |
\*---------------------------------------------------------------------------*/
FoamFile
{
    version     2.0;
    format      ascii;
    class       volScalarField;
    location    "0.0125";
    object      p;
}
// * * * * * * * * * * * * * * * * * * * * * * * * * * * * * * * * * * * * * //

dimensions      [0 2 -2 0 0 0 0];

internalField   nonuniform List<scalar> 
51200
(
8.99422e-07
0.0128813
0.0284629
0.0362275
0.0331395
0.0200008
-0.0026624
-0.0338496
-0.072929
-0.118732
-0.169925
-0.22535
-0.284177
-0.344681
-0.404947
-0.462926
-0.517716
-0.56869
-0.615528
-0.657996
-0.695394
-0.72678
-0.752294
-0.773055
-0.7893
-0.80146
-0.809393
-0.813359
-0.814147
-0.812262
-0.807845
-0.801152
-0.792555
-0.782424
-0.771443
-0.759871
-0.747905
-0.735239
-0.72242
-0.709226
-0.696263
-0.683956
-0.67193
-0.660559
-0.649923
-0.640528
-0.632583
-0.626134
-0.621252
-0.617489
-0.614733
-0.613342
-0.613203
-0.613862
-0.615075
-0.616597
-0.618211
-0.620071
-0.622322
-0.624546
-0.62605
-0.626497
-0.62589
-0.624349
-0.622274
-0.620178
-0.618142
-0.615924
-0.613465
-0.6109
-0.608348
-0.606015
-0.604247
-0.603279
-0.602984
-0.603001
-0.603144
-0.603465
-0.604002
-0.604741
-0.605802
-0.607372
-0.609393
-0.611705
-0.614313
-0.61727
-0.620588
-0.624115
-0.627599
-0.630998
-0.634347
-0.637613
-0.640802
-0.643894
-0.646863
-0.649693
-0.652316
-0.654836
-0.657465
-0.660197
-0.662966
-0.665833
-0.668927
-0.672489
-0.676705
-0.681469
-0.686613
-0.692057
-0.697629
-0.703172
-0.708686
-0.714189
-0.719701
-0.725267
-0.730812
-0.736227
-0.741575
-0.746947
-0.75227
-0.757418
-0.762322
-0.767016
-0.771675
-0.776527
-0.781698
-0.787248
-0.793304
-0.800002
-0.807337
-0.815198
-0.823457
-0.831967
-0.840665
-0.849579
-0.858628
-0.867678
-0.876688
-0.885595
-0.894331
-0.902875
-0.911156
-0.919042
-0.926411
-0.933135
-0.938995
-0.943757
-0.947343
-0.949853
-0.951514
-0.952496
-0.952891
-0.952982
-0.95313
-0.95361
-0.954745
-0.95674
-0.959365
-0.962061
-0.964364
-0.965756
0.000983211
-0.00329437
-0.00402181
-0.00901836
-0.0200468
-0.0369189
-0.0596529
-0.0884763
-0.123238
-0.163117
-0.207154
-0.254521
-0.304442
-0.355852
-0.407383
-0.457774
-0.505021
-0.548668
-0.588779
-0.625521
-0.658478
-0.68714
-0.71093
-0.730403
-0.746406
-0.758868
-0.767787
-0.773449
-0.776261
-0.776447
-0.774564
-0.770813
-0.765287
-0.758373
-0.750428
-0.741719
-0.732375
-0.722807
-0.712545
-0.701915
-0.691236
-0.680688
-0.670653
-0.661081
-0.652115
-0.643843
-0.63666
-0.630958
-0.626567
-0.62336
-0.62121
-0.619868
-0.619338
-0.619651
-0.620488
-0.621448
-0.622296
-0.62303
-0.623824
-0.624752
-0.625647
-0.62619
-0.626037
-0.624972
-0.623146
-0.620979
-0.61874
-0.616511
-0.614403
-0.612476
-0.610627
-0.608855
-0.607397
-0.606431
-0.605919
-0.605734
-0.6058
-0.606082
-0.606488
-0.607018
-0.607862
-0.609206
-0.611056
-0.61328
-0.615825
-0.618687
-0.621745
-0.624903
-0.628136
-0.631392
-0.634645
-0.637828
-0.640915
-0.644038
-0.647219
-0.6503
-0.653244
-0.656132
-0.659046
-0.662074
-0.665179
-0.668319
-0.67171
-0.675573
-0.67992
-0.684749
-0.690014
-0.695502
-0.701032
-0.706506
-0.71182
-0.717074
-0.722501
-0.72805
-0.733511
-0.738869
-0.744165
-0.749388
-0.754612
-0.759811
-0.764765
-0.769458
-0.774141
-0.778968
-0.784058
-0.78968
-0.795973
-0.802805
-0.810052
-0.81766
-0.825489
-0.833441
-0.841606
-0.850015
-0.858449
-0.866784
-0.875121
-0.883414
-0.891498
-0.8994
-0.907144
-0.914525
-0.92136
-0.927596
-0.93306
-0.937451
-0.940721
-0.943125
-0.944865
-0.945978
-0.946547
-0.946904
-0.947441
-0.948413
-0.950143
-0.952936
-0.956636
-0.960551
-0.964105
-0.967199
0.00775403
-0.0130075
-0.0276306
-0.0434816
-0.0615441
-0.0820543
-0.10565
-0.132774
-0.164037
-0.199455
-0.238187
-0.279298
-0.32219
-0.366277
-0.410541
-0.454094
-0.495651
-0.533687
-0.568112
-0.599834
-0.628802
-0.654644
-0.676934
-0.695276
-0.710718
-0.723165
-0.732713
-0.73958
-0.743852
-0.745905
-0.745948
-0.744335
-0.741286
-0.73716
-0.731642
-0.725352
-0.718329
-0.710928
-0.702966
-0.694568
-0.685822
-0.676952
-0.668615
-0.660619
-0.653132
-0.646184
-0.639897
-0.634619
-0.630616
-0.627842
-0.625961
-0.624719
-0.624043
-0.62393
-0.624336
-0.624981
-0.625505
-0.625759
-0.625817
-0.625843
-0.626008
-0.626262
-0.626214
-0.625473
-0.624006
-0.622021
-0.619743
-0.617448
-0.615431
-0.613744
-0.612236
-0.610862
-0.609742
-0.608901
-0.60829
-0.607967
-0.607962
-0.60818
-0.6085
-0.608949
-0.609736
-0.610966
-0.612626
-0.614717
-0.617194
-0.619967
-0.62286
-0.62577
-0.628845
-0.632088
-0.635328
-0.638521
-0.641654
-0.644811
-0.648114
-0.651385
-0.654515
-0.65767
-0.66085
-0.66402
-0.667313
-0.670753
-0.67442
-0.678544
-0.683072
-0.687882
-0.693097
-0.69862
-0.704115
-0.709504
-0.714804
-0.719999
-0.725294
-0.730799
-0.736258
-0.741566
-0.74687
-0.752109
-0.757179
-0.762174
-0.767088
-0.771808
-0.77646
-0.781272
-0.786361
-0.791915
-0.798157
-0.804993
-0.812114
-0.819393
-0.826876
-0.834536
-0.842337
-0.850289
-0.858265
-0.866108
-0.873867
-0.881609
-0.889229
-0.896644
-0.903859
-0.910793
-0.917278
-0.923144
-0.928184
-0.932225
-0.935293
-0.937561
-0.939196
-0.940306
-0.940991
-0.941532
-0.942374
-0.943865
-0.946288
-0.949873
-0.95457
-0.959777
-0.964842
-0.970005
0.00951906
-0.0245794
-0.0502459
-0.0747209
-0.0988441
-0.12228
-0.146585
-0.172596
-0.200782
-0.232171
-0.266209
-0.302278
-0.339411
-0.376957
-0.414868
-0.452069
-0.48798
-0.52136
-0.551516
-0.578609
-0.603796
-0.626511
-0.646544
-0.663985
-0.678652
-0.690953
-0.700899
-0.708531
-0.714035
-0.717676
-0.719354
-0.719497
-0.718522
-0.716227
-0.713211
-0.709036
-0.70413
-0.698501
-0.692503
-0.686114
-0.679131
-0.672199
-0.665287
-0.658656
-0.652626
-0.647018
-0.641869
-0.637412
-0.633821
-0.631189
-0.629487
-0.628432
-0.627698
-0.627261
-0.627148
-0.627197
-0.62734
-0.627517
-0.627511
-0.627283
-0.627019
-0.626739
-0.626244
-0.625404
-0.624185
-0.622536
-0.620543
-0.618483
-0.616595
-0.614904
-0.613392
-0.612171
-0.611309
-0.61067
-0.610154
-0.609867
-0.609825
-0.609892
-0.610077
-0.610527
-0.611376
-0.612605
-0.614137
-0.616081
-0.618474
-0.621145
-0.623945
-0.626807
-0.629819
-0.633023
-0.636235
-0.639429
-0.642709
-0.646028
-0.649385
-0.652769
-0.656085
-0.659423
-0.662826
-0.666172
-0.669585
-0.673297
-0.677309
-0.681623
-0.686262
-0.691134
-0.696254
-0.701651
-0.707107
-0.712445
-0.71773
-0.723013
-0.728286
-0.733612
-0.739011
-0.74442
-0.74979
-0.755043
-0.760064
-0.76484
-0.769493
-0.774163
-0.778911
-0.783751
-0.788827
-0.79437
-0.800452
-0.806977
-0.813844
-0.82093
-0.82814
-0.835497
-0.843016
-0.850575
-0.858001
-0.865302
-0.872627
-0.879925
-0.887018
-0.893938
-0.900761
-0.907312
-0.913373
-0.918865
-0.923597
-0.927306
-0.930077
-0.932211
-0.933821
-0.934908
-0.935637
-0.936426
-0.937716
-0.939747
-0.942714
-0.946944
-0.952584
-0.958967
-0.965462
-0.972499
0.00311689
-0.0398345
-0.0730737
-0.103851
-0.132009
-0.157324
-0.181763
-0.206485
-0.232451
-0.260353
-0.29045
-0.322343
-0.355039
-0.38782
-0.420096
-0.452094
-0.483156
-0.512326
-0.538942
-0.562909
-0.584695
-0.604542
-0.622217
-0.638028
-0.65202
-0.664143
-0.674045
-0.681919
-0.688405
-0.693053
-0.696257
-0.697895
-0.698221
-0.697614
-0.696199
-0.693931
-0.690771
-0.6868
-0.682414
-0.677385
-0.672175
-0.66691
-0.661289
-0.656015
-0.651034
-0.646369
-0.642302
-0.638737
-0.635635
-0.633223
-0.631607
-0.630589
-0.629951
-0.629526
-0.629082
-0.628577
-0.628234
-0.628101
-0.627991
-0.627857
-0.627652
-0.627151
-0.626289
-0.625216
-0.62394
-0.622361
-0.620611
-0.618918
-0.617278
-0.615635
-0.614133
-0.612965
-0.612153
-0.611596
-0.611247
-0.611122
-0.611119
-0.611102
-0.611217
-0.611711
-0.61261
-0.613841
-0.61538
-0.617285
-0.619578
-0.622128
-0.624861
-0.627803
-0.630892
-0.634034
-0.637194
-0.640423
-0.643824
-0.647336
-0.650795
-0.65421
-0.657672
-0.661166
-0.664658
-0.668195
-0.671865
-0.675789
-0.680029
-0.684496
-0.689124
-0.694008
-0.699174
-0.704457
-0.709765
-0.715109
-0.720424
-0.725702
-0.731032
-0.736367
-0.741681
-0.747124
-0.752641
-0.757902
-0.762815
-0.767545
-0.772134
-0.776669
-0.781401
-0.786373
-0.791491
-0.796931
-0.802859
-0.809127
-0.815625
-0.82243
-0.829507
-0.836666
-0.84379
-0.850876
-0.857868
-0.864717
-0.871549
-0.878409
-0.885116
-0.891596
-0.897962
-0.904167
-0.909938
-0.915067
-0.919425
-0.922868
-0.92547
-0.927476
-0.928991
-0.930084
-0.930997
-0.932083
-0.933709
-0.936148
-0.939569
-0.94426
-0.950554
-0.957968
-0.965748
-0.974347
-0.0111002
-0.0589442
-0.0965863
-0.130767
-0.161112
-0.186921
-0.210838
-0.234033
-0.257905
-0.283051
-0.31016
-0.338654
-0.367978
-0.397361
-0.426005
-0.45392
-0.481092
-0.507016
-0.530812
-0.552412
-0.571924
-0.58966
-0.60548
-0.619585
-0.632602
-0.644104
-0.653923
-0.662127
-0.668636
-0.674052
-0.678168
-0.681027
-0.682428
-0.682937
-0.682513
-0.681481
-0.679641
-0.677009
-0.673723
-0.669927
-0.665933
-0.661659
-0.657431
-0.653231
-0.649042
-0.645235
-0.641782
-0.638721
-0.63618
-0.634105
-0.632505
-0.631421
-0.63075
-0.63027
-0.629754
-0.629166
-0.628586
-0.628059
-0.627655
-0.627427
-0.627204
-0.626705
-0.625873
-0.624777
-0.623395
-0.621778
-0.620144
-0.618607
-0.617079
-0.615565
-0.614231
-0.613163
-0.612347
-0.611817
-0.611593
-0.611572
-0.611609
-0.611661
-0.61187
-0.612424
-0.613318
-0.614523
-0.616133
-0.618127
-0.620385
-0.62287
-0.625594
-0.628592
-0.631769
-0.63492
-0.638078
-0.64142
-0.644919
-0.648491
-0.652068
-0.655557
-0.659045
-0.662621
-0.666179
-0.669816
-0.67377
-0.677961
-0.682275
-0.686781
-0.691438
-0.696267
-0.701425
-0.706753
-0.711991
-0.717258
-0.722637
-0.727955
-0.733252
-0.738692
-0.744194
-0.749682
-0.755163
-0.760437
-0.765335
-0.770042
-0.774746
-0.779421
-0.784138
-0.789068
-0.794245
-0.799677
-0.805406
-0.811417
-0.817722
-0.824338
-0.83117
-0.838066
-0.844885
-0.851531
-0.858042
-0.864531
-0.871047
-0.877494
-0.883753
-0.889866
-0.895922
-0.901797
-0.907223
-0.912047
-0.91617
-0.919417
-0.921844
-0.923762
-0.925286
-0.926418
-0.927434
-0.928755
-0.930677
-0.933351
-0.936951
-0.941897
-0.948652
-0.956837
-0.96564
-0.975455
-0.0334348
-0.0825334
-0.121875
-0.157339
-0.18819
-0.2138
-0.23638
-0.258001
-0.279676
-0.302483
-0.326726
-0.352519
-0.379223
-0.405834
-0.431978
-0.457152
-0.481493
-0.504553
-0.525924
-0.545673
-0.563771
-0.580048
-0.594529
-0.607543
-0.619309
-0.630236
-0.639795
-0.647902
-0.654592
-0.66026
-0.664841
-0.668219
-0.670625
-0.671819
-0.672158
-0.671882
-0.670743
-0.669065
-0.666715
-0.663888
-0.660632
-0.65713
-0.653773
-0.650278
-0.646932
-0.643798
-0.640723
-0.638009
-0.635803
-0.633992
-0.632573
-0.631529
-0.630699
-0.629974
-0.629353
-0.628796
-0.628198
-0.627565
-0.627021
-0.626594
-0.626156
-0.625591
-0.62482
-0.62375
-0.622376
-0.620853
-0.619334
-0.617818
-0.616278
-0.614842
-0.613649
-0.612682
-0.611938
-0.611508
-0.611387
-0.611401
-0.61145
-0.611627
-0.612012
-0.61263
-0.613519
-0.614732
-0.616394
-0.618485
-0.620798
-0.623328
-0.626144
-0.629162
-0.632333
-0.63557
-0.638852
-0.642334
-0.645953
-0.649522
-0.653107
-0.656702
-0.66021
-0.663749
-0.667389
-0.671145
-0.675223
-0.679604
-0.684019
-0.688497
-0.6932
-0.6981
-0.703196
-0.708484
-0.713808
-0.719111
-0.724467
-0.729845
-0.735229
-0.740734
-0.746405
-0.752093
-0.757576
-0.762739
-0.767666
-0.772526
-0.777371
-0.782196
-0.787068
-0.792042
-0.79714
-0.802485
-0.808134
-0.813984
-0.820083
-0.826561
-0.83323
-0.83979
-0.846182
-0.852461
-0.858662
-0.864831
-0.871004
-0.877107
-0.883017
-0.888767
-0.894477
-0.900067
-0.905241
-0.909783
-0.913661
-0.91681
-0.919213
-0.921074
-0.922557
-0.923736
-0.924872
-0.926318
-0.928297
-0.930991
-0.934667
-0.939763
-0.946819
-0.955516
-0.965042
-0.975725
-0.0634351
-0.111364
-0.149982
-0.184902
-0.214795
-0.239076
-0.260354
-0.280343
-0.299958
-0.3204
-0.34227
-0.365539
-0.389765
-0.414415
-0.438272
-0.461344
-0.483575
-0.504657
-0.523918
-0.54178
-0.558472
-0.573846
-0.587613
-0.599692
-0.610729
-0.620808
-0.630052
-0.637996
-0.644931
-0.650568
-0.655242
-0.659007
-0.661732
-0.663468
-0.664492
-0.664563
-0.663993
-0.662854
-0.661133
-0.658987
-0.656359
-0.653519
-0.650518
-0.647542
-0.644805
-0.642062
-0.639388
-0.636982
-0.634881
-0.633192
-0.631957
-0.631013
-0.630151
-0.62931
-0.628558
-0.627863
-0.627149
-0.626501
-0.625976
-0.625465
-0.624897
-0.624265
-0.623444
-0.622296
-0.620924
-0.619524
-0.618104
-0.616608
-0.61511
-0.613753
-0.612601
-0.611658
-0.611015
-0.610741
-0.610713
-0.610762
-0.610867
-0.611148
-0.611639
-0.61229
-0.613216
-0.614539
-0.616275
-0.618405
-0.620813
-0.62347
-0.62642
-0.629509
-0.632661
-0.635995
-0.639509
-0.643144
-0.646834
-0.650445
-0.654007
-0.657603
-0.661155
-0.66467
-0.668329
-0.672239
-0.676406
-0.680769
-0.685245
-0.689834
-0.694601
-0.699579
-0.70473
-0.709965
-0.715279
-0.720714
-0.726174
-0.731577
-0.737066
-0.742742
-0.748505
-0.754238
-0.759801
-0.765033
-0.770024
-0.775038
-0.780098
-0.785065
-0.79001
-0.795071
-0.800215
-0.805463
-0.810963
-0.81674
-0.822767
-0.829067
-0.835467
-0.841705
-0.847741
-0.853675
-0.859587
-0.865515
-0.871403
-0.877124
-0.882642
-0.888083
-0.893511
-0.898784
-0.903673
-0.90802
-0.911776
-0.914863
-0.917231
-0.919057
-0.920543
-0.921764
-0.922932
-0.924374
-0.926275
-0.928809
-0.932415
-0.937633
-0.944947
-0.953966
-0.963911
-0.975111
-0.100735
-0.145322
-0.181525
-0.214203
-0.242211
-0.264391
-0.283518
-0.301694
-0.319811
-0.338144
-0.35766
-0.378521
-0.400565
-0.423033
-0.445249
-0.466602
-0.486965
-0.506089
-0.523993
-0.540217
-0.555445
-0.569771
-0.582794
-0.594324
-0.604792
-0.614326
-0.62306
-0.630972
-0.637747
-0.643564
-0.64838
-0.652167
-0.65504
-0.657184
-0.658456
-0.658926
-0.658877
-0.657993
-0.656699
-0.654961
-0.652768
-0.650444
-0.64781
-0.645195
-0.642698
-0.640245
-0.63794
-0.635765
-0.633793
-0.632185
-0.630953
-0.629999
-0.629185
-0.628407
-0.627616
-0.626774
-0.625916
-0.625183
-0.624597
-0.624038
-0.623458
-0.622799
-0.621893
-0.620685
-0.61934
-0.617975
-0.616545
-0.615071
-0.613676
-0.612411
-0.611278
-0.610363
-0.609821
-0.60966
-0.609689
-0.6098
-0.610021
-0.610369
-0.610844
-0.611495
-0.6125
-0.613982
-0.615849
-0.618031
-0.620546
-0.623364
-0.626415
-0.629595
-0.632863
-0.636332
-0.64005
-0.643856
-0.647583
-0.651234
-0.654862
-0.658425
-0.661923
-0.66547
-0.669174
-0.673134
-0.677372
-0.681736
-0.686203
-0.690932
-0.695883
-0.700917
-0.70608
-0.711372
-0.716719
-0.722188
-0.727774
-0.733336
-0.738943
-0.744734
-0.750584
-0.756305
-0.761854
-0.767234
-0.772483
-0.777686
-0.782848
-0.787923
-0.792961
-0.798054
-0.803218
-0.808475
-0.813925
-0.819619
-0.825552
-0.831693
-0.837815
-0.84368
-0.849381
-0.855092
-0.860793
-0.866432
-0.871977
-0.877338
-0.882488
-0.887573
-0.892677
-0.897653
-0.902306
-0.906506
-0.910182
-0.913248
-0.915616
-0.917392
-0.918812
-0.920027
-0.921215
-0.922615
-0.924368
-0.926675
-0.930118
-0.935402
-0.942916
-0.952111
-0.962228
-0.973642
-0.144375
-0.183769
-0.216291
-0.245866
-0.270983
-0.290593
-0.307228
-0.32298
-0.339182
-0.355982
-0.373422
-0.392021
-0.411832
-0.432128
-0.452422
-0.47199
-0.491048
-0.508869
-0.525046
-0.540024
-0.553966
-0.567116
-0.57918
-0.590313
-0.600187
-0.609446
-0.61789
-0.625462
-0.632202
-0.638059
-0.642868
-0.646784
-0.649894
-0.652152
-0.653569
-0.65447
-0.654617
-0.654174
-0.653204
-0.651577
-0.649682
-0.647626
-0.645411
-0.643094
-0.640688
-0.638458
-0.636375
-0.634368
-0.632599
-0.631115
-0.62987
-0.628868
-0.628045
-0.627276
-0.626454
-0.625549
-0.624658
-0.623864
-0.623167
-0.622545
-0.62194
-0.621203
-0.620205
-0.619009
-0.617735
-0.616367
-0.614884
-0.613428
-0.612114
-0.610896
-0.6098
-0.608987
-0.608557
-0.608442
-0.608494
-0.60867
-0.608989
-0.60937
-0.609794
-0.610457
-0.611569
-0.613169
-0.615173
-0.617503
-0.620155
-0.623114
-0.626255
-0.629515
-0.63299
-0.636699
-0.640547
-0.644449
-0.648273
-0.651978
-0.655661
-0.659255
-0.662703
-0.666234
-0.670005
-0.673981
-0.678186
-0.682604
-0.687191
-0.692037
-0.69711
-0.702225
-0.707393
-0.712715
-0.718165
-0.723717
-0.729358
-0.735057
-0.740855
-0.746741
-0.752582
-0.7583
-0.763908
-0.769418
-0.774881
-0.780301
-0.785565
-0.790659
-0.795736
-0.800893
-0.806096
-0.811357
-0.81681
-0.822503
-0.828348
-0.83426
-0.840085
-0.845663
-0.851108
-0.856602
-0.862087
-0.867439
-0.872613
-0.877575
-0.882348
-0.887092
-0.891874
-0.896533
-0.900941
-0.905046
-0.90871
-0.911754
-0.914083
-0.915814
-0.917189
-0.918368
-0.919494
-0.920815
-0.92247
-0.92464
-0.927938
-0.933181
-0.940745
-0.94994
-0.959996
-0.971362
-0.193221
-0.225944
-0.253582
-0.279143
-0.30105
-0.318052
-0.331861
-0.345101
-0.358972
-0.373796
-0.389736
-0.406189
-0.423593
-0.441938
-0.460033
-0.478078
-0.495304
-0.51185
-0.527027
-0.540847
-0.553518
-0.565487
-0.576797
-0.587016
-0.596629
-0.605577
-0.613709
-0.621105
-0.627698
-0.633341
-0.638216
-0.642301
-0.645508
-0.64789
-0.649593
-0.650652
-0.650969
-0.650927
-0.65017
-0.648742
-0.647038
-0.645039
-0.643069
-0.640992
-0.638783
-0.636715
-0.634733
-0.632853
-0.631229
-0.629864
-0.628705
-0.627733
-0.626898
-0.626065
-0.625149
-0.624213
-0.623345
-0.622529
-0.621769
-0.621112
-0.620454
-0.619605
-0.618543
-0.617379
-0.616131
-0.614737
-0.613259
-0.611852
-0.610556
-0.609344
-0.608325
-0.607663
-0.607335
-0.607226
-0.6073
-0.60753
-0.607853
-0.608213
-0.608646
-0.609377
-0.610609
-0.612297
-0.614393
-0.616919
-0.619766
-0.622824
-0.626055
-0.629451
-0.633122
-0.637064
-0.641055
-0.645008
-0.648933
-0.652756
-0.656464
-0.660059
-0.663541
-0.667087
-0.670859
-0.674832
-0.679017
-0.683483
-0.688247
-0.693258
-0.698367
-0.703473
-0.708674
-0.714045
-0.719559
-0.725218
-0.730975
-0.736773
-0.742672
-0.748638
-0.754486
-0.760207
-0.765923
-0.771616
-0.777222
-0.782713
-0.788019
-0.79316
-0.798286
-0.803477
-0.808724
-0.814051
-0.819538
-0.82521
-0.830967
-0.836685
-0.842249
-0.847603
-0.852875
-0.858188
-0.863416
-0.868408
-0.873179
-0.877767
-0.882194
-0.886594
-0.891057
-0.895447
-0.899649
-0.903644
-0.907263
-0.910254
-0.912531
-0.914241
-0.915627
-0.916816
-0.917877
-0.919065
-0.92063
-0.922754
-0.925979
-0.931127
-0.938573
-0.947558
-0.957322
-0.968384
-0.245808
-0.271166
-0.292799
-0.313447
-0.331699
-0.345935
-0.357348
-0.367972
-0.379312
-0.392031
-0.405941
-0.420932
-0.436489
-0.45238
-0.46857
-0.484548
-0.500372
-0.515443
-0.529605
-0.542244
-0.554008
-0.564966
-0.575267
-0.584885
-0.593992
-0.602453
-0.610375
-0.617548
-0.62384
-0.629423
-0.634265
-0.638283
-0.641572
-0.644139
-0.646079
-0.647206
-0.647805
-0.647841
-0.647259
-0.646179
-0.644549
-0.642661
-0.640759
-0.638768
-0.636807
-0.634886
-0.633019
-0.631291
-0.629747
-0.628448
-0.627388
-0.62648
-0.625646
-0.62477
-0.623812
-0.622883
-0.622023
-0.621178
-0.620394
-0.619715
-0.618992
-0.618087
-0.61704
-0.615895
-0.614609
-0.61319
-0.611752
-0.610383
-0.609081
-0.607906
-0.607014
-0.606477
-0.606207
-0.606115
-0.606223
-0.606483
-0.606746
-0.60704
-0.607539
-0.608394
-0.609717
-0.611496
-0.613707
-0.616399
-0.619432
-0.622597
-0.625912
-0.629478
-0.633334
-0.637406
-0.64152
-0.645592
-0.649626
-0.65355
-0.657293
-0.660866
-0.664378
-0.667996
-0.671769
-0.675705
-0.679924
-0.684498
-0.689384
-0.694486
-0.69961
-0.704673
-0.709867
-0.715295
-0.720876
-0.726607
-0.73249
-0.738431
-0.744401
-0.750363
-0.756217
-0.76202
-0.767884
-0.773718
-0.779393
-0.784879
-0.79016
-0.795323
-0.800531
-0.805797
-0.811088
-0.816482
-0.822033
-0.827691
-0.833343
-0.838888
-0.844277
-0.849512
-0.854669
-0.859785
-0.864714
-0.869332
-0.873706
-0.877936
-0.882047
-0.886129
-0.890295
-0.894463
-0.898507
-0.90239
-0.905919
-0.908802
-0.910987
-0.912686
-0.914156
-0.915446
-0.916527
-0.917606
-0.919047
-0.921123
-0.924299
-0.92929
-0.936456
-0.945051
-0.954337
-0.964871
-0.300608
-0.318089
-0.333377
-0.348361
-0.362184
-0.37338
-0.382688
-0.391104
-0.400167
-0.410673
-0.422419
-0.435675
-0.449586
-0.463787
-0.478124
-0.492093
-0.506179
-0.519749
-0.532535
-0.544404
-0.555061
-0.565089
-0.574627
-0.583688
-0.592142
-0.600183
-0.607709
-0.614477
-0.620603
-0.626066
-0.630732
-0.63471
-0.638009
-0.64065
-0.642705
-0.644086
-0.644846
-0.644838
-0.644416
-0.64355
-0.642013
-0.640288
-0.63844
-0.636531
-0.634699
-0.632876
-0.631174
-0.629625
-0.628193
-0.626978
-0.625977
-0.625087
-0.624233
-0.623357
-0.622455
-0.621576
-0.620712
-0.619869
-0.619107
-0.61839
-0.617594
-0.616698
-0.61573
-0.614593
-0.61325
-0.611829
-0.610434
-0.609071
-0.607775
-0.606691
-0.605946
-0.605489
-0.605225
-0.605163
-0.60531
-0.605557
-0.605772
-0.606047
-0.606617
-0.607579
-0.608962
-0.61083
-0.613212
-0.616058
-0.619194
-0.622464
-0.625905
-0.629622
-0.633612
-0.637758
-0.641954
-0.646187
-0.650367
-0.654341
-0.658095
-0.661693
-0.665237
-0.66889
-0.67269
-0.676645
-0.680932
-0.685629
-0.690593
-0.695671
-0.700735
-0.705776
-0.710976
-0.716416
-0.722032
-0.727843
-0.733846
-0.739918
-0.745969
-0.751946
-0.757818
-0.763714
-0.769715
-0.77563
-0.781287
-0.786724
-0.791992
-0.797188
-0.802467
-0.80781
-0.813164
-0.818627
-0.824235
-0.829874
-0.835436
-0.840869
-0.846164
-0.851333
-0.85639
-0.861283
-0.865886
-0.870157
-0.874208
-0.878145
-0.881984
-0.885777
-0.889655
-0.893611
-0.897522
-0.901296
-0.904722
-0.907503
-0.909609
-0.911321
-0.912897
-0.914328
-0.91549
-0.916528
-0.917867
-0.919875
-0.92295
-0.927665
-0.934378
-0.942423
-0.95109
-0.960922
-0.355848
-0.365227
-0.374177
-0.383203
-0.392304
-0.400117
-0.406966
-0.413839
-0.420929
-0.429223
-0.439173
-0.450301
-0.462631
-0.475553
-0.487971
-0.500598
-0.512716
-0.524739
-0.536236
-0.54683
-0.556547
-0.565818
-0.574636
-0.582997
-0.590944
-0.598532
-0.605552
-0.611962
-0.617824
-0.623011
-0.627556
-0.631489
-0.634698
-0.637357
-0.639487
-0.641142
-0.64194
-0.642041
-0.641683
-0.640772
-0.639437
-0.637806
-0.636013
-0.634297
-0.632543
-0.630789
-0.629239
-0.627845
-0.626549
-0.625443
-0.624511
-0.623634
-0.622767
-0.62192
-0.621092
-0.620255
-0.619417
-0.618646
-0.617935
-0.617187
-0.616372
-0.615534
-0.614615
-0.613462
-0.612099
-0.610709
-0.609323
-0.607935
-0.606696
-0.605755
-0.605116
-0.604691
-0.60444
-0.604405
-0.604557
-0.60476
-0.604964
-0.605305
-0.605949
-0.606947
-0.608377
-0.610361
-0.612917
-0.615893
-0.619081
-0.622432
-0.62602
-0.629854
-0.633907
-0.638129
-0.642442
-0.646809
-0.651096
-0.655102
-0.658854
-0.662495
-0.666108
-0.66979
-0.673606
-0.677639
-0.682049
-0.686828
-0.691782
-0.696778
-0.701756
-0.706764
-0.711966
-0.717402
-0.723029
-0.72891
-0.735032
-0.741217
-0.747341
-0.753371
-0.759324
-0.765316
-0.771372
-0.777269
-0.782862
-0.788259
-0.79356
-0.798821
-0.804156
-0.809554
-0.814953
-0.820457
-0.826092
-0.831698
-0.837196
-0.842595
-0.847872
-0.852992
-0.857915
-0.862554
-0.866831
-0.870804
-0.874627
-0.878371
-0.882012
-0.885571
-0.889178
-0.892901
-0.89665
-0.900302
-0.90364
-0.906384
-0.908513
-0.910322
-0.912023
-0.91355
-0.914758
-0.915774
-0.917026
-0.918932
-0.921845
-0.926192
-0.932304
-0.939649
-0.947573
-0.956555
-0.410189
-0.411443
-0.413974
-0.417614
-0.421534
-0.425756
-0.430098
-0.434997
-0.440878
-0.447519
-0.455341
-0.464763
-0.475492
-0.486647
-0.498099
-0.509228
-0.519896
-0.530366
-0.540437
-0.54985
-0.558756
-0.567094
-0.575122
-0.582857
-0.590257
-0.5973
-0.603883
-0.609965
-0.615438
-0.620304
-0.624663
-0.628438
-0.631616
-0.634258
-0.636457
-0.638171
-0.639098
-0.639399
-0.639036
-0.638063
-0.636844
-0.635266
-0.633568
-0.631986
-0.63036
-0.628775
-0.627339
-0.626031
-0.624857
-0.62385
-0.622995
-0.622173
-0.621336
-0.620545
-0.619767
-0.61895
-0.618177
-0.61751
-0.616851
-0.616122
-0.615369
-0.614589
-0.613659
-0.612496
-0.611171
-0.609795
-0.608378
-0.60699
-0.605847
-0.605031
-0.604437
-0.604025
-0.603832
-0.603833
-0.603941
-0.604098
-0.604336
-0.604767
-0.605451
-0.606449
-0.607947
-0.610075
-0.612758
-0.615814
-0.619065
-0.62249
-0.626173
-0.630084
-0.634183
-0.638493
-0.642961
-0.647453
-0.651767
-0.655763
-0.65954
-0.663244
-0.666923
-0.670656
-0.674537
-0.678679
-0.683203
-0.688007
-0.692883
-0.697779
-0.702698
-0.707679
-0.712845
-0.718249
-0.723902
-0.729877
-0.73611
-0.742383
-0.74858
-0.754698
-0.760762
-0.766829
-0.772861
-0.778673
-0.784202
-0.789605
-0.794982
-0.800332
-0.805717
-0.811143
-0.816551
-0.82204
-0.827651
-0.833207
-0.838648
-0.844042
-0.849342
-0.854421
-0.859184
-0.863555
-0.867537
-0.871288
-0.87497
-0.878573
-0.882037
-0.885402
-0.888803
-0.892316
-0.895872
-0.899359
-0.902621
-0.905418
-0.907696
-0.909674
-0.911498
-0.913063
-0.914258
-0.915229
-0.916371
-0.918109
-0.920782
-0.9247
-0.93013
-0.936666
-0.943739
-0.951745
-0.462314
-0.456181
-0.452205
-0.45034
-0.449852
-0.450294
-0.451996
-0.454907
-0.459403
-0.464697
-0.471308
-0.478875
-0.487833
-0.497775
-0.507862
-0.517609
-0.527238
-0.53631
-0.545086
-0.553531
-0.561389
-0.568887
-0.576221
-0.583249
-0.590007
-0.596537
-0.602702
-0.608346
-0.613413
-0.617959
-0.622002
-0.625592
-0.628762
-0.63137
-0.633603
-0.635265
-0.636362
-0.636733
-0.636379
-0.635565
-0.634325
-0.632785
-0.631238
-0.629706
-0.628239
-0.626855
-0.625522
-0.624308
-0.62324
-0.622308
-0.621509
-0.620758
-0.619998
-0.619257
-0.618495
-0.617724
-0.617066
-0.616487
-0.61586
-0.615205
-0.614558
-0.613797
-0.612818
-0.611668
-0.610404
-0.609022
-0.607571
-0.606235
-0.605191
-0.604419
-0.603828
-0.603452
-0.603332
-0.603356
-0.603429
-0.603582
-0.603869
-0.604335
-0.605023
-0.606035
-0.607617
-0.609878
-0.612643
-0.615727
-0.619046
-0.622574
-0.626313
-0.630242
-0.634406
-0.638852
-0.643464
-0.648029
-0.652333
-0.656308
-0.660121
-0.663898
-0.667638
-0.671442
-0.675446
-0.679731
-0.684322
-0.689082
-0.693872
-0.698712
-0.703605
-0.708546
-0.713653
-0.719024
-0.724721
-0.730802
-0.737145
-0.743515
-0.749809
-0.756021
-0.762167
-0.768266
-0.774242
-0.779967
-0.785474
-0.790947
-0.796439
-0.80187
-0.807262
-0.812667
-0.818067
-0.823517
-0.829042
-0.834506
-0.839891
-0.845285
-0.850582
-0.855562
-0.860125
-0.864274
-0.868074
-0.871699
-0.875276
-0.87873
-0.881986
-0.885147
-0.88837
-0.891709
-0.895091
-0.898433
-0.90165
-0.904559
-0.907052
-0.909223
-0.911123
-0.912643
-0.913769
-0.914702
-0.915756
-0.91728
-0.919622
-0.923049
-0.927747
-0.93339
-0.93952
-0.946462
-0.511336
-0.497966
-0.488465
-0.48127
-0.476686
-0.473794
-0.472914
-0.473909
-0.476798
-0.481161
-0.486355
-0.492764
-0.500193
-0.508397
-0.517126
-0.525871
-0.534178
-0.542113
-0.549887
-0.557312
-0.564294
-0.571067
-0.577593
-0.583956
-0.590215
-0.596238
-0.601882
-0.607057
-0.61177
-0.615958
-0.619635
-0.623048
-0.626148
-0.6288
-0.630983
-0.632654
-0.633811
-0.63418
-0.633862
-0.633145
-0.631947
-0.630556
-0.629128
-0.627659
-0.626338
-0.625081
-0.623842
-0.622762
-0.621827
-0.620976
-0.620218
-0.619525
-0.618826
-0.618093
-0.617354
-0.616686
-0.61614
-0.615619
-0.615041
-0.614483
-0.613903
-0.613114
-0.612109
-0.610996
-0.609749
-0.60834
-0.606908
-0.605652
-0.604654
-0.603878
-0.603303
-0.602984
-0.602913
-0.602938
-0.602994
-0.60318
-0.603508
-0.603947
-0.604605
-0.605684
-0.607378
-0.609703
-0.612491
-0.61561
-0.619001
-0.622612
-0.626397
-0.630355
-0.634616
-0.639223
-0.643938
-0.648499
-0.652777
-0.656772
-0.660631
-0.664445
-0.668245
-0.672167
-0.676318
-0.680714
-0.685335
-0.690054
-0.694793
-0.699615
-0.704505
-0.709417
-0.714465
-0.719802
-0.725556
-0.731761
-0.738217
-0.744675
-0.751075
-0.757401
-0.763597
-0.769654
-0.775542
-0.781242
-0.786848
-0.792458
-0.798037
-0.803504
-0.808876
-0.814226
-0.819562
-0.824911
-0.83031
-0.835686
-0.841025
-0.846382
-0.851601
-0.856417
-0.860761
-0.864728
-0.868433
-0.872012
-0.875519
-0.878814
-0.881823
-0.884732
-0.887757
-0.890941
-0.894202
-0.897472
-0.900697
-0.903734
-0.906431
-0.908767
-0.910695
-0.912116
-0.91313
-0.914025
-0.91503
-0.916355
-0.918324
-0.921211
-0.925136
-0.929819
-0.934937
-0.94076
-0.556191
-0.536276
-0.52157
-0.509852
-0.501335
-0.495845
-0.492558
-0.491853
-0.493069
-0.496421
-0.500625
-0.505897
-0.511997
-0.518808
-0.526124
-0.533561
-0.540722
-0.547693
-0.554498
-0.561
-0.567261
-0.573249
-0.579127
-0.585008
-0.590734
-0.59621
-0.601364
-0.60613
-0.610472
-0.614281
-0.617679
-0.620909
-0.623877
-0.626539
-0.628687
-0.630442
-0.631542
-0.631927
-0.631707
-0.630915
-0.629818
-0.62863
-0.627311
-0.626003
-0.624774
-0.623549
-0.622417
-0.621481
-0.620686
-0.619947
-0.619253
-0.618605
-0.617923
-0.617169
-0.616476
-0.615931
-0.615457
-0.614984
-0.614498
-0.613989
-0.613383
-0.612569
-0.611588
-0.610506
-0.60924
-0.607805
-0.606424
-0.605235
-0.604216
-0.603413
-0.602913
-0.60268
-0.602607
-0.602609
-0.602688
-0.602898
-0.603199
-0.603581
-0.604236
-0.605411
-0.607203
-0.609537
-0.612317
-0.615504
-0.618979
-0.622618
-0.626437
-0.630501
-0.634901
-0.639609
-0.644361
-0.648907
-0.653163
-0.657176
-0.661082
-0.664941
-0.668798
-0.672832
-0.677127
-0.681615
-0.686231
-0.690916
-0.695675
-0.700549
-0.705434
-0.710284
-0.715295
-0.720667
-0.726502
-0.732791
-0.73933
-0.7459
-0.752434
-0.758844
-0.765027
-0.771016
-0.776862
-0.782612
-0.788369
-0.794137
-0.799791
-0.805261
-0.810588
-0.815847
-0.821072
-0.826278
-0.831502
-0.836755
-0.842043
-0.847343
-0.852429
-0.857043
-0.861175
-0.865002
-0.868656
-0.872195
-0.87559
-0.878697
-0.881477
-0.884161
-0.886989
-0.890001
-0.89316
-0.896447
-0.899771
-0.902918
-0.905705
-0.908099
-0.910037
-0.91141
-0.912351
-0.913208
-0.914177
-0.915324
-0.916905
-0.91922
-0.922357
-0.926065
-0.930144
-0.934816
-0.59633
-0.570727
-0.551098
-0.535483
-0.523509
-0.515483
-0.510387
-0.508029
-0.508215
-0.510142
-0.513667
-0.518098
-0.523031
-0.528692
-0.534661
-0.540895
-0.547078
-0.553059
-0.558868
-0.564561
-0.570119
-0.575508
-0.580914
-0.586263
-0.591459
-0.596484
-0.601174
-0.605478
-0.60943
-0.612967
-0.61617
-0.619155
-0.622011
-0.624598
-0.626783
-0.628516
-0.629581
-0.630014
-0.629863
-0.629083
-0.628079
-0.626999
-0.625829
-0.624696
-0.623526
-0.622374
-0.621371
-0.620532
-0.619843
-0.619236
-0.618644
-0.618034
-0.617345
-0.616605
-0.615984
-0.615519
-0.615077
-0.614658
-0.614269
-0.613749
-0.613039
-0.612223
-0.611307
-0.610214
-0.608918
-0.607523
-0.606198
-0.605
-0.603937
-0.603146
-0.602732
-0.602558
-0.602465
-0.602455
-0.602562
-0.602746