/*--------------------------------*- C++ -*----------------------------------*\
  =========                 |
  \\      /  F ield         | OpenFOAM: The Open Source CFD Toolbox
   \\    /   O peration     | Website:  https://openfoam.org
    \\  /    A nd           | Version:  7
     \\/     M anipulation  |
\*---------------------------------------------------------------------------*/
FoamFile
{
    version     2.0;
    format      ascii;
    class       surfaceScalarField;
    location    "0.45";
    object      phi;
}
// * * * * * * * * * * * * * * * * * * * * * * * * * * * * * * * * * * * * * //

dimensions      [0 3 -1 0 0 0 0];

internalField   nonuniform List<scalar> 
25360
(
5.16858e-11
-5.16396e-11
1.92308e-10
-1.4063e-10
3.59392e-10
-1.67085e-10
5.05078e-10
-1.45702e-10
6.01301e-10
-9.62059e-11
6.32018e-10
-3.07388e-11
5.89045e-10
4.29781e-11
4.69139e-10
1.19896e-10
2.7234e-10
1.96801e-10
7.37881e-13
2.71598e-10
-3.42137e-10
3.42869e-10
-7.52086e-10
4.09953e-10
-1.22436e-09
4.72266e-10
-1.75394e-09
5.29584e-10
-2.33578e-09
5.8184e-10
-2.96488e-09
6.29102e-10
-3.63642e-09
6.71539e-10
-4.34579e-09
7.09364e-10
-5.08863e-09
7.42844e-10
-5.86091e-09
7.72282e-10
-6.65889e-09
7.97984e-10
-7.47916e-09
8.20276e-10
-8.31864e-09
8.39487e-10
-9.17457e-09
8.55932e-10
-1.00445e-08
8.69917e-10
-1.09262e-08
8.81748e-10
-1.18179e-08
8.91707e-10
-1.2718e-08
9.00057e-10
-1.36251e-08
9.07047e-10
-1.4538e-08
9.12909e-10
-1.54558e-08
9.17852e-10
-1.63779e-08
9.22067e-10
-1.73036e-08
9.25734e-10
-1.82326e-08
9.29016e-10
-1.91647e-08
9.32053e-10
-2.00997e-08
9.34968e-10
-2.10375e-08
9.37874e-10
-2.19784e-08
9.40873e-10
-2.29224e-08
9.44052e-10
-2.38699e-08
9.47485e-10
-2.48212e-08
9.51243e-10
-2.57766e-08
9.55383e-10
-2.67365e-08
9.59947e-10
-2.77015e-08
9.64972e-10
-2.8672e-08
9.70496e-10
-2.96485e-08
9.76546e-10
-3.06317e-08
9.83143e-10
-3.1622e-08
9.90303e-10
-3.262e-08
9.98037e-10
-3.36264e-08
1.00635e-09
-3.46416e-08
1.01525e-09
-3.56663e-08
1.02473e-09
-3.67011e-08
1.03478e-09
-3.77465e-08
1.04541e-09
-3.88031e-08
1.0566e-09
-3.98715e-08
1.06832e-09
-4.0952e-08
1.08057e-09
-4.20454e-08
1.09332e-09
-4.31519e-08
1.10654e-09
-4.42721e-08
1.12021e-09
-4.54064e-08
1.13428e-09
-4.65551e-08
1.14873e-09
-4.77186e-08
1.16349e-09
-4.88971e-08
1.17853e-09
-5.00909e-08
1.1938e-09
-5.13002e-08
1.20923e-09
-5.25249e-08
1.22475e-09
-5.37652e-08
1.2403e-09
-5.5021e-08
1.25579e-09
-5.62922e-08
1.27115e-09
-5.75784e-08
1.28627e-09
-5.88795e-08
1.30107e-09
-6.01949e-08
1.31542e-09
-6.15242e-08
1.32923e-09
-6.28665e-08
1.34236e-09
-6.42212e-08
1.35467e-09
-6.55872e-08
1.36604e-09
-6.69635e-08
1.3763e-09
-6.83488e-08
1.3853e-09
-6.97417e-08
1.39287e-09
-7.11406e-08
1.39884e-09
-7.25436e-08
1.40301e-09
-7.39488e-08
1.40519e-09
-7.53539e-08
1.40518e-09
-7.67567e-08
1.40275e-09
-7.81544e-08
1.39768e-09
-7.95441e-08
1.38975e-09
-8.09229e-08
1.37873e-09
-8.22872e-08
1.36435e-09
-8.36336e-08
1.34638e-09
-8.49582e-08
1.32457e-09
-8.62568e-08
1.29865e-09
-8.75252e-08
1.26837e-09
-8.87586e-08
1.23346e-09
-8.99523e-08
1.19368e-09
-9.11011e-08
1.14877e-09
-9.21996e-08
1.0985e-09
-9.32422e-08
1.04261e-09
-9.42231e-08
9.80895e-10
-9.51362e-08
9.13143e-10
-9.59754e-08
8.39167e-10
-9.67342e-08
7.58804e-10
-9.74061e-08
6.71914e-10
-9.79845e-08
5.78391e-10
-9.84627e-08
4.78165e-10
-9.88339e-08
3.71202e-10
-9.90914e-08
2.57516e-10
-9.92286e-08
1.37169e-10
-9.92388e-08
1.02823e-11
-9.91159e-08
-1.22981e-10
-9.88535e-08
-2.6237e-10
-9.84459e-08
-4.07585e-10
-9.78876e-08
-5.5825e-10
-9.71737e-08
-7.13912e-10
-9.62997e-08
-8.7404e-10
-9.52617e-08
-1.03802e-09
-9.40565e-08
-1.20517e-09
-9.26818e-08
-1.37471e-09
-9.1136e-08
-1.54577e-09
-8.94186e-08
-1.71743e-09
-8.75299e-08
-1.88867e-09
-8.54715e-08
-2.05839e-09
-8.32461e-08
-2.22543e-09
-8.08575e-08
-2.38859e-09
-7.83109e-08
-2.54658e-09
-7.56129e-08
-2.69809e-09
-7.27711e-08
-2.84177e-09
-6.97948e-08
-2.97627e-09
-6.66946e-08
-3.1002e-09
-6.34824e-08
-3.21223e-09
-6.01714e-08
-3.31101e-09
-5.67761e-08
-3.39527e-09
-5.33123e-08
-3.46378e-09
-4.97969e-08
-3.51542e-09
-4.62478e-08
-3.54913e-09
-4.26838e-08
-3.56398e-09
-3.91246e-08
-3.55917e-09
-3.55906e-08
-3.53404e-09
-3.21025e-08
-3.48809e-09
-2.86815e-08
-3.42097e-09
-2.5349e-08
-3.3325e-09
-2.21263e-08
-3.2227e-09
-1.90346e-08
-3.09174e-09
-1.60946e-08
-2.93998e-09
-1.33267e-08
-2.76796e-09
-1.07502e-08
-2.57641e-09
-8.38399e-09
-2.36624e-09
-6.24541e-09
-2.13858e-09
-4.35065e-09
-1.89476e-09
-2.7142e-09
-1.63644e-09
-1.34853e-09
-1.36568e-09
-2.63409e-10
-1.08512e-09
5.34967e-10
-7.98375e-10
1.04561e-09
-5.10641e-10
1.27543e-09
-2.29823e-10
1.24404e-09
3.1396e-11
9.91892e-10
2.52145e-10
5.94817e-10
3.97074e-10
1.91384e-10
4.03434e-10
1.91386e-10
1.41924e-10
-1.93565e-10
4.08076e-10
-4.06771e-10
6.89608e-10
-4.48622e-10
9.04584e-10
-3.60668e-10
9.94303e-10
-1.8593e-10
9.20508e-10
4.30728e-11
6.60493e-10
3.02988e-10
2.03012e-10
5.77398e-10
-4.55042e-10
8.54856e-10
-1.31097e-09
1.12752e-09
-2.35814e-09
1.39004e-09
-3.58711e-09
1.63892e-09
-4.98675e-09
1.87191e-09
-6.5449e-09
2.08774e-09
-8.2489e-09
2.28583e-09
-1.0086e-08
2.46616e-09
-1.20435e-08
2.62907e-09
-1.41093e-08
2.77517e-09
-1.62718e-08
2.90532e-09
-1.852e-08
3.02047e-09
-2.08437e-08
3.1217e-09
-2.32335e-08
3.21013e-09
-2.5681e-08
3.2869e-09
-2.81782e-08
3.35313e-09
-3.07182e-08
3.40996e-09
-3.32949e-08
3.45847e-09
-3.59029e-08
3.4997e-09
-3.85375e-08
3.53463e-09
-4.11946e-08
3.56418e-09
-4.38709e-08
3.58923e-09
-4.65636e-08
3.61057e-09
-4.92705e-08
3.62893e-09
-5.19897e-08
3.64499e-09
-5.47201e-08
3.65935e-09
-5.74606e-08
3.67257e-09
-6.02108e-08
3.68514e-09
-6.29704e-08
3.69751e-09
-6.57396e-08
3.71004e-09
-6.85186e-08
3.7231e-09
-7.13081e-08
3.73698e-09
-7.41088e-08
3.75194e-09
-7.69216e-08
3.76821e-09
-7.97477e-08
3.78598e-09
-8.25881e-08
3.80541e-09
-8.54443e-08
3.82664e-09
-8.83175e-08
3.84977e-09
-9.12092e-08
3.87489e-09
-9.4121e-08
3.90207e-09
-9.70543e-08
3.93136e-09
-1.00011e-07
3.96279e-09
-1.02992e-07
3.99636e-09
-1.05999e-07
4.03207e-09
-1.09034e-07
4.0699e-09
-1.12099e-07
4.10983e-09
-1.15194e-07
4.1518e-09
-1.18321e-07
4.19575e-09
-1.21482e-07
4.24161e-09
-1.24678e-07
4.28927e-09
-1.2791e-07
4.33864e-09
-1.3118e-07
4.38958e-09
-1.34488e-07
4.44196e-09
-1.37834e-07
4.49562e-09
-1.41221e-07
4.55038e-09
-1.44649e-07
4.60604e-09
-1.48117e-07
4.66239e-09
-1.51627e-07
4.71918e-09
-1.55179e-07
4.77616e-09
-1.58772e-07
4.83304e-09
-1.62405e-07
4.8895e-09
-1.66079e-07
4.94522e-09
-1.69793e-07
4.99981e-09
-1.73545e-07
5.0529e-09
-1.77333e-07
5.10406e-09
-1.81157e-07
5.15284e-09
-1.85013e-07
5.19876e-09
-1.889e-07
5.24129e-09
-1.92814e-07
5.2799e-09
-1.96752e-07
5.31399e-09
-2.00709e-07
5.34295e-09
-2.04682e-07
5.36613e-09
-2.08666e-07
5.38285e-09
-2.12656e-07
5.3924e-09
-2.16645e-07
5.39401e-09
-2.20626e-07
5.38692e-09
-2.24594e-07
5.3703e-09
-2.2854e-07
5.34331e-09
-2.32455e-07
5.30509e-09
-2.36331e-07
5.25475e-09
-2.40158e-07
5.19136e-09
-2.43926e-07
5.11402e-09
-2.47623e-07
5.02176e-09
-2.51238e-07
4.91365e-09
-2.54758e-07
4.78873e-09
-2.58171e-07
4.64606e-09
-2.61462e-07
4.48471e-09
-2.64617e-07
4.30377e-09
-2.67621e-07
4.10237e-09
-2.70458e-07
3.87966e-09
-2.73112e-07
3.63485e-09
-2.75566e-07
3.36724e-09
-2.77803e-07
3.07618e-09
-2.79805e-07
2.76111e-09
-2.81555e-07
2.42158e-09
-2.83034e-07
2.05728e-09
-2.84223e-07
1.668e-09
-2.85106e-07
1.25372e-09
-2.85663e-07
8.14573e-10
-2.85877e-07
3.50868e-10
-2.8573e-07
-1.36869e-10
-2.85205e-07
-6.47901e-10
-2.84286e-07
-1.18125e-09
-2.82958e-07
-1.73568e-09
-2.81206e-07
-2.30972e-09
-2.79019e-07
-2.9016e-09
-2.76383e-07
-3.50926e-09
-2.73291e-07
-4.13037e-09
-2.69734e-07
-4.76229e-09
-2.65706e-07
-5.40208e-09
-2.61206e-07
-6.04651e-09
-2.56231e-07
-6.69206e-09
-2.50785e-07
-7.33493e-09
-2.44872e-07
-7.97106e-09
-2.38501e-07
-8.59616e-09
-2.31684e-07
-9.20571e-09
-2.24436e-07
-9.79501e-09
-2.16775e-07
-1.03592e-08
-2.08723e-07
-1.08934e-08
-2.00307e-07
-1.13926e-08
-1.91555e-07
-1.18517e-08
-1.82502e-07
-1.22659e-08
-1.73182e-07
-1.26303e-08
-1.63638e-07
-1.29401e-08
-1.5391e-07
-1.31911e-08
-1.44047e-07
-1.3379e-08
-1.34096e-07
-1.35001e-08
-1.24109e-07
-1.35509e-08
-1.14139e-07
-1.35287e-08
-1.04242e-07
-1.34311e-08
-9.44741e-08
-1.32562e-08
-8.48923e-08
-1.30028e-08
-7.55544e-08
-1.26704e-08
-6.65179e-08
-1.22592e-08
-5.78398e-08
-1.17698e-08
-4.95759e-08
-1.12039e-08
-4.17803e-08
-1.05636e-08
-3.45048e-08
-9.85189e-09
-2.77984e-08
-9.07261e-09
-2.17066e-08
-8.23043e-09
-1.62702e-08
-7.33111e-09
-1.15249e-08
-6.38175e-09
-7.49936e-09
-5.39122e-09
-4.21355e-09
-4.37092e-09
-1.67593e-09
-3.33601e-09
1.20738e-10
-2.30732e-09
1.20556e-09
-1.31465e-09
1.63862e-09
-4.01662e-10
1.52444e-09
3.66327e-10
1.02969e-09
8.91831e-10
4.01838e-10
1.03129e-09
5.93226e-10
1.68541e-10
-3.62106e-10
4.51962e-10
-6.90178e-10
7.11344e-10
-7.07995e-10
8.47095e-10
-4.96426e-10
7.85965e-10
-1.24791e-10
4.77377e-10
3.51651e-10
-1.10584e-10
8.90954e-10
-9.95281e-10
1.46207e-09
-2.18289e-09
2.04246e-09
-3.6713e-09
2.61594e-09
-5.45232e-09
3.17106e-09
-7.51341e-09
3.70002e-09
-9.83912e-09
4.19761e-09
-1.24121e-08
4.66069e-09
-1.52139e-08
5.08764e-09
-1.82257e-08
5.47798e-09
-2.14288e-08
5.83212e-09
-2.48047e-08
6.1511e-09
-2.83358e-08
6.43644e-09
-3.20054e-08
6.69003e-09
-3.57976e-08
6.91396e-09
-3.9698e-08
7.11049e-09
-4.3693e-08
7.28193e-09
-4.77705e-08
7.43064e-09
-5.19195e-08
7.55894e-09
-5.61301e-08
7.66909e-09
-6.03937e-08
7.76328e-09
-6.47027e-08
7.84359e-09
-6.90505e-08
7.91199e-09
-7.34316e-08
7.97033e-09
-7.78413e-08
8.02031e-09
-8.22759e-08
8.06353e-09
-8.67324e-08
8.10144e-09
-9.12084e-08
8.13535e-09
-9.57023e-08
8.16647e-09
-1.00213e-07
8.19587e-09
-1.0474e-07
8.22453e-09
-1.09283e-07
8.2533e-09
-1.13843e-07
8.28293e-09
-1.1842e-07
8.3141e-09
-1.23016e-07
8.3474e-09
-1.27631e-07
8.38331e-09
-1.32267e-07
8.42227e-09
-1.36926e-07
8.46465e-09
-1.4161e-07
8.51074e-09
-1.46321e-07
8.56081e-09
-1.51062e-07
8.61503e-09
-1.55833e-07
8.67358e-09
-1.60638e-07
8.73655e-09
-1.65479e-07
8.80401e-09
-1.70359e-07
8.87599e-09
-1.7528e-07
8.95248e-09
-1.80243e-07
9.03344e-09
-1.85252e-07
9.1188e-09
-1.90309e-07
9.20844e-09
-1.95415e-07
9.30223e-09
-2.00574e-07
9.39999e-09
-2.05786e-07
9.5015e-09
-2.11054e-07
9.60653e-09
-2.16379e-07
9.71478e-09
-2.21763e-07
9.82594e-09
-2.27207e-07
9.93965e-09
-2.32712e-07
1.00555e-08
-2.38279e-07
1.01731e-08
-2.43909e-07
1.02918e-08
-2.49601e-07
1.04113e-08
-2.55355e-07
1.05308e-08
-2.61172e-07
1.06498e-08
-2.6705e-07
1.07676e-08
-2.72988e-07
1.08833e-08
-2.78985e-07
1.09962e-08
-2.85037e-07
1.11055e-08
-2.91143e-07
1.12101e-08
-2.973e-07
1.13092e-08
-3.03502e-07
1.14015e-08
-3.09747e-07
1.1486e-08
-3.16029e-07
1.15615e-08
-3.22341e-07
1.16267e-08
-3.28679e-07
1.16802e-08
-3.35033e-07
1.17207e-08
-3.41397e-07
1.17467e-08
-3.47761e-07
1.17565e-08
-3.54116e-07
1.17486e-08
-3.6045e-07
1.17212e-08
-3.66753e-07
1.16727e-08
-3.7301e-07
1.16012e-08
-3.7921e-07
1.15049e-08
-3.85337e-07
1.13817e-08
-3.91376e-07
1.12299e-08
-3.97309e-07
1.10474e-08
-4.0312e-07
1.08322e-08
-4.08788e-07
1.05824e-08
-4.14296e-07
1.02958e-08
-4.1962e-07
9.97065e-09
-4.2474e-07
9.60485e-09
-4.29633e-07
9.19656e-09
-4.34275e-07
8.74396e-09
-4.3864e-07
8.24534e-09
-4.42705e-07
7.69911e-09
-4.46441e-07
7.10381e-09
-4.49823e-07
6.45818e-09
-4.52823e-07
5.76112e-09
-4.55413e-07
5.01181e-09
-4.57566e-07
4.20966e-09
-4.59252e-07
3.35441e-09
-4.60445e-07
2.44609e-09
-4.61115e-07
1.48513e-09
-4.61237e-07
4.72343e-10
-4.60782e-07
-5.91011e-10
-4.59727e-07
-1.70322e-09
-4.58046e-07
-2.86206e-09
-4.55717e-07
-4.06479e-09
-4.52719e-07
-5.30811e-09
-4.49032e-07
-6.58814e-09
-4.44641e-07
-7.90041e-09
-4.39532e-07
-9.23982e-09
-4.33693e-07
-1.06007e-08
-4.27119e-07
-1.19767e-08
-4.19804e-07
-1.33609e-08
-4.11751e-07
-1.47457e-08
-4.02963e-07
-1.61231e-08
-3.93449e-07
-1.74845e-08
-3.83225e-07
-1.88207e-08
-3.72308e-07
-2.01222e-08
-3.60724e-07
-2.1379e-08
-3.48502e-07
-2.2581e-08
-3.35678e-07
-2.37177e-08
-3.22292e-07
-2.47786e-08
-3.0839e-07
-2.57533e-08
-2.94025e-07
-2.66314e-08
-2.79253e-07
-2.74027e-08
-2.64135e-07
-2.80574e-08
-2.4874e-07
-2.85864e-08
-2.33138e-07
-2.89808e-08
-2.17405e-07
-2.9233e-08
-2.0162e-07
-2.93358e-08
-1.85866e-07
-2.92832e-08
-1.70226e-07
-2.90704e-08
-1.54789e-07
-2.86936e-08
-1.39641e-07
-2.81505e-08
-1.24872e-07
-2.744e-08
-1.10568e-07
-2.65624e-08
-9.68184e-08
-2.55198e-08
-8.37069e-08
-2.43155e-08
-7.13159e-08
-2.29545e-08
-5.9724e-08
-2.14438e-08
-4.90048e-08
-1.97919e-08
-3.92256e-08
-1.80095e-08
-3.04468e-08
-1.611e-08
-2.2719e-08
-1.41095e-08
-1.60817e-08
-1.20285e-08
-1.05602e-08
-9.89244e-09
-6.16128e-09
-7.73493e-09
-2.86816e-09
-5.60044e-09
-6.33098e-10
-3.54972e-09
6.32557e-10
-1.66732e-09
1.07118e-09
-7.22925e-11
8.93442e-10
1.06957e-09
3.95173e-10
1.52956e-09
9.88401e-10
1.4852e-10
-5.10624e-10
3.66322e-10
-9.07993e-10
5.02491e-10
-8.44171e-10
4.49105e-10
-4.43043e-10
1.26657e-10
1.97653e-10
-5.209e-10
9.99217e-10
-1.53008e-09
1.90013e-09
-2.92151e-09
2.85351e-09
-4.70324e-09
3.8242e-09
-6.87351e-09
4.7862e-09
-9.42312e-09
5.72067e-09
-1.23374e-08
6.61426e-09
-1.55977e-08
7.45791e-09
-1.91828e-08
8.24583e-09
-2.307e-08
8.97481e-09
-2.72356e-08
9.64359e-09
-3.16559e-08
1.02524e-08
-3.63075e-08
1.08027e-08
-4.11677e-08
1.12967e-08
-4.62149e-08
1.17372e-08
-5.14286e-08
1.21277e-08
-5.67898e-08
1.24716e-08
-6.22807e-08
1.27729e-08
-6.78854e-08
1.30353e-08
-7.3589e-08
1.32626e-08
-7.93786e-08
1.34587e-08
-8.52424e-08
1.36271e-08
-9.11702e-08
1.37714e-08
-9.71531e-08
1.38949e-08
-1.03184e-07
1.40007e-08
-1.09255e-07
1.40918e-08
-1.15362e-07
1.41708e-08
-1.21501e-07
1.42402e-08
-1.27668e-07
1.43022e-08
-1.3386e-07
1.43591e-08
-1.40077e-07
1.44125e-08
-1.46317e-07
1.44642e-08
-1.52579e-07
1.45157e-08
-1.58865e-07
1.45684e-08
-1.65174e-07
1.46233e-08
-1.71508e-07
1.46814e-08
-1.77868e-07
1.47438e-08
-1.84257e-07
1.48111e-08
-1.90677e-07
1.4884e-08
-1.97129e-07
1.4963e-08
-2.03616e-07
1.50485e-08
-2.10142e-07
1.5141e-08
-2.16709e-07
1.52406e-08
-2.23321e-07
1.53477e-08
-2.29979e-07
1.54622e-08
-2.36687e-07
1.55843e-08
-2.43448e-07
1.57139e-08
-2.50266e-07
1.58509e-08
-2.57142e-07
1.59953e-08
-2.64081e-07
1.61469e-08
-2.71084e-07
1.63053e-08
-2.78154e-07
1.64702e-08
-2.85294e-07
1.66414e-08
-2.92506e-07
1.68183e-08
-2.99791e-07
1.70004e-08
-3.07153e-07
1.71872e-08
-3.14591e-07
1.7378e-08
-3.22107e-07
1.75721e-08
-3.29703e-07
1.77687e-08
-3.37378e-07
1.7967e-08
-3.45133e-07
1.8166e-08
-3.52967e-07
1.83647e-08
-3.60879e-07
1.85619e-08
-3.68868e-07
1.87563e-08
-3.76931e-07
1.89468e-08
-3.85067e-07
1.91318e-08
-3.93271e-07
1.93098e-08
-4.0154e-07
1.94793e-08
-4.09869e-07
1.96384e-08
-4.18253e-07
1.97852e-08
-4.26685e-07
1.99179e-08
-4.35158e-07
2.00343e-08
-4.43663e-07
2.01322e-08
-4.52192e-07
2.02093e-08
-4.60735e-07
2.02631e-08
-4.69279e-07
2.02911e-08
-4.77813e-07
2.02906e-08
-4.86324e-07
2.02588e-08
-4.94795e-07
2.01928e-08
-5.03212e-07
2.00896e-08
-5.11557e-07
1.99462e-08
-5.19811e-07
1.97593e-08
-5.27955e-07
1.95258e-08
-5.35968e-07
1.92423e-08
-5.43826e-07
1.89056e-08
-5.51506e-07
1.85122e-08
-5.58982e-07
1.80588e-08
-5.66229e-07
1.75421e-08
-5.73217e-07
1.69588e-08
-5.79917e-07
1.63056e-08
-5.863e-07
1.55795e-08
-5.92334e-07
1.47774e-08
-5.97985e-07
1.38967e-08
-6.03221e-07
1.29346e-08
-6.08006e-07
1.18889e-08
-6.12305e-07
1.07576e-08
-6.16083e-07
9.53908e-09
-6.19303e-07
8.23198e-09
-6.21929e-07
6.83555e-09
-6.23924e-07
5.34953e-09
-6.25252e-07
3.77418e-09
-6.25878e-07
2.11043e-09
-6.25765e-07
3.59863e-10
-6.24881e-07
-1.4752e-09
-6.23193e-07
-3.39164e-09
-6.20669e-07
-5.38551e-09
-6.17282e-07
-7.45198e-09
-6.13005e-07
-9.58528e-09
-6.07814e-07
-1.17787e-08
-6.0169e-07
-1.40245e-08
-5.94616e-07
-1.63139e-08
-5.8658e-07
-1.86373e-08
-5.77572e-07
-2.09838e-08
-5.67592e-07
-2.33417e-08
-5.56639e-07
-2.56982e-08
-5.44723e-07
-2.80396e-08
-5.31856e-07
-3.03515e-08
-5.18058e-07
-3.26184e-08
-5.03356e-07
-3.48243e-08
-4.87782e-07
-3.69526e-08
-4.71377e-07
-3.89862e-08
-4.54187e-07
-4.09077e-08
-4.36266e-07
-4.26995e-08
-4.17675e-07
-4.43442e-08
-3.98482e-07
-4.58244e-08
-3.78762e-07
-4.71232e-08
-3.58595e-07
-4.82243e-08
-3.38069e-07
-4.91124e-08
-3.17276e-07
-4.97731e-08
-2.96316e-07
-5.01933e-08
-2.75291e-07
-5.03613e-08
-2.54307e-07
-5.02672e-08
-2.33474e-07
-4.99029e-08
-2.12906e-07
-4.92623e-08
-1.92714e-07
-4.83416e-08
-1.73015e-07
-4.71391e-08
-1.53922e-07
-4.56559e-08
-1.35546e-07
-4.38953e-08
-1.17998e-07
-4.18635e-08
-1.01383e-07
-3.95696e-08
-8.58014e-08
-3.70256e-08
-7.13465e-08
-3.42468e-08
-5.81037e-08
-3.12523e-08
-4.6148e-08
-2.80657e-08
-3.55418e-08
-2.47157e-08
-2.63324e-08
-2.12378e-08
-1.85483e-08
-1.76766e-08
-1.21947e-08
-1.40885e-08
-7.24816e-09
-1.0547e-08
-3.64929e-09
-7.14859e-09
-1.29406e-09
-4.02254e-09
-2.31978e-11
-1.34316e-09
3.90449e-10
6.55927e-10
2.55337e-10
1.66467e-09
1.24374e-09
9.97463e-11
-6.10378e-10
1.91194e-10
-9.99428e-10
1.26747e-10
-7.79718e-10
-2.01299e-10
-1.15007e-10
-8.72656e-10
8.69015e-10
-1.94404e-09
2.0706e-09
-3.45283e-09
3.40891e-09
-5.42039e-09
4.82107e-09
-7.85502e-09
6.25883e-09
-1.07546e-08
7.68574e-09
-1.41087e-08
9.07479e-09
-1.79008e-08
1.04064e-08
-2.21099e-08
1.16669e-08
-2.67115e-08
1.28475e-08
-3.16795e-08
1.39428e-08
-3.69864e-08
1.49505e-08
-4.26045e-08
1.58705e-08
-4.85061e-08
1.67044e-08
-5.46646e-08
1.74551e-08
-6.10541e-08
1.81267e-08
-6.76501e-08
1.87237e-08
-7.44298e-08
1.92513e-08
-8.13718e-08
1.97149e-08
-8.84566e-08
2.012e-08
-9.56663e-08
2.04723e-08
-1.02985e-07
2.07772e-08
-1.10398e-07
2.10402e-08
-1.17893e-07
2.12663e-08
-1.25459e-07
2.14606e-08
-1.33086e-07
2.16276e-08
-1.40766e-07
2.17718e-08
-1.48492e-07
2.18971e-08
-1.56259e-07
2.20074e-08
-1.64063e-07
2.2106e-08
-1.719e-07
2.2196e-08
-1.79768e-07
2.22804e-08
-1.87665e-07
2.23615e-08
-1.95591e-07
2.24418e-08
-2.03546e-07
2.25232e-08
-2.1153e-07
2.26076e-08
-2.19545e-07
2.26965e-08
-2.27593e-07
2.27912e-08
-2.35674e-07
2.28929e-08
-2.43793e-07
2.30027e-08
-2.51951e-07
2.31213e-08
-2.60152e-07
2.32495e-08
-2.68399e-07
2.33878e-08
-2.76695e-07
2.35367e-08
-2.85044e-07
2.36963e-08
-2.93449e-07
2.3867e-08
-3.01913e-07
2.40487e-08
-3.10441e-07
2.42416e-08
-3.19035e-07
2.44453e-08
-3.277e-07
2.46599e-08
-3.36438e-07
2.48848e-08
-3.45253e-07
2.51198e-08
-3.54147e-07
2.53644e-08
-3.63123e-07
2.56179e-08
-3.72184e-07
2.58796e-08
-3.81333e-07
2.61488e-08
-3.9057e-07
2.64245e-08
-3.99898e-07
2.67059e-08
-4.09318e-07
2.69916e-08
-4.18829e-07
2.72806e-08
-4.28434e-07
2.75714e-08
-4.38131e-07
2.78626e-08
-4.47918e-07
2.81526e-08
-4.57796e-07
2.84396e-08
-4.67762e-07
2.87217e-08
-4.77812e-07
2.89969e-08
-4.87943e-07
2.9263e-08
-4.98151e-07
2.95176e-08
-5.0843e-07
2.97582e-08
-5.18774e-07
2.99822e-08
-5.29175e-07
3.01866e-08
-5.39626e-07
3.03686e-08
-5.50116e-07
3.05248e-08
-5.60636e-07
3.06519e-08
-5.71173e-07
3.07465e-08
-5.81715e-07
3.08046e-08
-5.92246e-07
3.08226e-08
-6.02752e-07
3.07964e-08
-6.13215e-07
3.07217e-08
-6.23616e-07
3.05941e-08
-6.33936e-07
3.04093e-08
-6.44152e-07
3.01626e-08
-6.54242e-07
2.98493e-08
-6.64181e-07
2.94645e-08
-6.73942e-07
2.90033e-08
-6.83497e-07
2.84609e-08
-6.92817e-07
2.78322e-08
-7.01871e-07
2.71123e-08
-7.10625e-07
2.62964e-08
-7.19046e-07
2.53795e-08
-7.27097e-07
2.4357e-08
-7.34742e-07
2.32244e-08
-7.41942e-07
2.19774e-08
-7.48657e-07
2.06121e-08
-7.54847e-07
1.91246e-08
-7.6047e-07
1.75118e-08
-7.65484e-07
1.5771e-08
-7.69844e-07
1.38998e-08
-7.73509e-07
1.18966e-08
-7.76434e-07
9.76049e-09
-7.78576e-07
7.49135e-09
-7.79891e-07
5.08985e-09
-7.80339e-07
2.55764e-09
-7.79876e-07
-1.02656e-10
-7.78464e-07
-2.88729e-09
-7.76064e-07
-5.79136e-09
-7.72641e-07
-8.80871e-09
-7.68161e-07
-1.19319e-08
-7.62594e-07
-1.51521e-08
-7.55914e-07
-1.84591e-08
-7.48097e-07
-2.18412e-08
-7.39126e-07
-2.52853e-08
-7.28987e-07
-2.87766e-08
-7.17671e-07
-3.22992e-08
-7.05177e-07
-3.58354e-08
-6.91509e-07
-3.93663e-08
-6.76677e-07
-4.28714e-08
-6.607e-07
-4.63293e-08
-6.43601e-07
-4.97172e-08
-6.25414e-07
-5.30113e-08
-6.06179e-07
-5.61871e-08
-5.85946e-07
-5.92195e-08
-5.64771e-07
-6.20827e-08
-5.4272e-07
-6.47509e-08
-5.19866e-07
-6.71984e-08
-4.9629e-07
-6.93996e-08
-4.72084e-07
-7.13297e-08
-4.47343e-07
-7.2965e-08
-4.22173e-07
-7.42826e-08
-3.96684e-07
-7.52616e-08
-3.70995e-07
-7.58827e-08
-3.45227e-07
-7.61289e-08
-3.19509e-07
-7.59855e-08
-2.93971e-07
-7.54408e-08
-2.68747e-07
-7.4486e-08
-2.43974e-07
-7.31154e-08
-2.19786e-07
-7.13271e-08
-1.96319e-07
-6.91225e-08
-1.73707e-07
-6.65073e-08
-1.5208e-07
-6.3491e-08
-1.31562e-07
-6.00876e-08
-1.12272e-07
-5.63156e-08
-9.43194e-08
-5.21989e-08
-7.7805e-08
-4.77668e-08
-6.28154e-08
-4.30553e-08
-4.94226e-08
-3.81085e-08
-3.76804e-08
-3.29801e-08
-2.76205e-08
-2.77365e-08
-1.92485e-08
-2.24605e-08
-1.25386e-08
-1.7257e-08
-7.42695e-09
-1.22602e-08
-3.80541e-09
-7.64409e-09
-1.51277e-09
-3.6358e-09
-3.26508e-10
-5.3033e-10
4.80694e-11
1.29009e-09
1.29181e-09
3.35681e-11
-6.43949e-10
-4.39478e-11
-9.21908e-10
-3.66723e-10
-4.56954e-10
-1.03535e-09
5.53633e-10
-2.1249e-09
1.95857e-09
-3.68893e-09
3.63462e-09
-5.76268e-09
5.48266e-09
-8.36597e-09
7.42436e-09
-1.15058e-08
9.39861e-09
-1.51784e-08
1.13584e-08
-1.93721e-08
1.32684e-08
-2.40681e-08
1.51024e-08
-2.9243e-08
1.68419e-08
-3.487e-08
1.84745e-08
-4.09197e-08
1.99925e-08
-4.73615e-08
2.13923e-08
-5.41643e-08
2.26733e-08
-6.12972e-08
2.38372e-08
-6.87298e-08
2.48877e-08
-7.64328e-08
2.58297e-08
-8.43784e-08
2.66694e-08
-9.25404e-08
2.74133e-08
-1.00894e-07
2.80688e-08
-1.09418e-07
2.86433e-08
-1.18089e-07
2.91442e-08
-1.26891e-07
2.95791e-08
-1.35806e-07
2.99553e-08
-1.4482e-07
3.02798e-08
-1.53919e-07
3.05594e-08
-1.63092e-07
3.08004e-08
-1.72329e-07
3.10089e-08
-1.81622e-07
3.11904e-08
-1.90965e-07
3.13502e-08
-2.00352e-07
3.1493e-08
-2.09779e-07
3.16231e-08
-2.19243e-07
3.17445e-08
-2.28742e-07
3.18608e-08
-2.38276e-07
3.19751e-08
-2.47843e-07
3.20903e-08
-2.57444e-07
3.2209e-08
-2.67081e-07
3.23333e-08
-2.76755e-07
3.24652e-08
-2.86468e-07
3.26063e-08
-2.96224e-07
3.27581e-08
-3.06024e-07
3.29218e-08
-3.15873e-07
3.30982e-08
-3.25774e-07
3.32883e-08
-3.3573e-07
3.34927e-08
-3.45745e-07
3.37116e-08
-3.55823e-07
3.39455e-08
-3.65969e-07
3.41944e-08
-3.76186e-07
3.44583e-08
-3.86477e-07
3.4737e-08
-3.96848e-07
3.50303e-08
-4.07301e-07
3.53376e-08
-4.17839e-07
3.56584e-08
-4.28467e-07
3.5992e-08
-4.39186e-07
3.63375e-08
-4.50001e-07
3.66939e-08
-4.60912e-07
3.70601e-08
-4.71922e-07
3.74348e-08
-4.83033e-07
3.78165e-08
-4.94245e-07
3.82036e-08
-5.05559e-07
3.85945e-08
-5.16975e-07
3.8987e-08
-5.28491e-07
3.93792e-08
-5.40107e-07
3.97686e-08
-5.5182e-07
4.01529e-08
-5.63628e-07
4.05293e-08
-5.75526e-07
4.08949e-08
-5.87509e-07
4.12466e-08
-5.99573e-07
4.1581e-08
-6.11709e-07
4.18947e-08
-6.23911e-07
4.21838e-08
-6.36169e-07
4.24443e-08
-6.48472e-07
4.2672e-08
-6.6081e-07
4.28624e-08
-6.73169e-07
4.30108e-08
-6.85534e-07
4.31122e-08
-6.97891e-07
4.31615e-08
-7.10222e-07
4.31532e-08
-7.22507e-07
4.30817e-08
-7.34727e-07
4.29412e-08
-7.46858e-07
4.27256e-08
-7.58878e-07
4.24288e-08
-7.70759e-07
4.20444e-08
-7.82476e-07
4.15659e-08
-7.93998e-07
4.09866e-08
-8.05295e-07
4.02999e-08
-8.16333e-07
3.94989e-08
-8.27078e-07
3.85771e-08
-8.37493e-07
3.75275e-08
-8.4754e-07
3.63437e-08
-8.5718e-07
3.50191e-08
-8.6637e-07
3.35474e-08
-8.75068e-07
3.19225e-08
-8.8323e-07
3.01388e-08
-8.90809e-07
2.8191e-08
-8.97758e-07
2.60743e-08
-9.04031e-07
2.37845e-08
-9.09578e-07
2.1318e-08
-9.1435e-07
1.8672e-08
-9.18298e-07
1.58447e-08
-9.21373e-07
1.2835e-08
-9.23525e-07
9.64308e-09
-9.24705e-07
6.27028e-09
-9.24867e-07
2.71917e-09
-9.23963e-07
-1.00627e-09
-9.2195e-07
-4.90056e-09
-9.18784e-07
-8.95663e-09
-9.14427e-07
-1.31657e-08
-9.08842e-07
-1.75173e-08
-9.01995e-07
-2.19989e-08
-8.93858e-07
-2.65963e-08
-8.84406e-07
-3.12933e-08
-8.7362e-07
-3.60716e-08
-8.61485e-07
-4.09109e-08
-8.47996e-07
-4.5789e-08
-8.33149e-07
-5.06818e-08
-8.16952e-07
-5.55632e-08
-7.99418e-07
-6.04054e-08
-7.80569e-07
-6.51787e-08
-7.60434e-07
-6.98522e-08
-7.39051e-07
-7.43935e-08
-7.1647e-07
-7.87691e-08
-6.92744e-07
-8.29447e-08
-6.67942e-07
-8.68853e-08
-6.42137e-07
-9.05559e-08
-6.15414e-07
-9.39214e-08
-5.87866e-07
-9.69472e-08
-5.59596e-07
-9.95996e-08
-5.30715e-07
-1.01846e-07
-5.01341e-07
-1.03656e-07
-4.71602e-07
-1.05001e-07
-4.41631e-07
-1.05854e-07
-4.11567e-07
-1.06193e-07
-3.81555e-07
-1.05998e-07
-3.51744e-07
-1.05252e-07
-3.22285e-07
-1.03944e-07
-2.93334e-07
-1.02067e-07
-2.65044e-07
-9.96173e-08
-2.37568e-07
-9.65981e-08
-2.11058e-07
-9.3017e-08
-1.85662e-07
-8.88879e-08
-1.61519e-07
-8.42302e-08
-1.38764e-07
-7.90704e-08
-1.17521e-07
-7.34417e-08
-9.79024e-08
-6.73857e-08
-8.00052e-08
-6.09525e-08
-6.39102e-08
-5.42035e-08
-4.96777e-08
-4.72126e-08
-3.73441e-08
-4.007e-08
-2.6918e-08
-3.28866e-08
-1.83756e-08
-2.57994e-08
-1.16558e-08
-1.89799e-08
-6.65537e-09
-1.26446e-08
-3.22301e-09
-7.06815e-09
-1.15492e-09
-2.59842e-09
-1.89542e-10
3.24718e-10
1.10226e-09
-4.31319e-11
-6.00815e-10
-3.18602e-10
-6.46439e-10
-9.4162e-10
1.66073e-10
-2.0008e-09
1.6128e-09
-3.56267e-09
3.52043e-09
-5.67458e-09
5.74653e-09
-8.36714e-09
8.17522e-09
-1.16566e-08
1.07138e-08
-1.5547e-08
1.3289e-08
-2.00323e-08
1.58437e-08
-2.50981e-08
1.83342e-08
-3.07235e-08
2.07278e-08
-3.68826e-08
2.3001e-08
-4.3546e-08
2.51378e-08
-5.06816e-08
2.71281e-08
-5.82561e-08
2.89668e-08
-6.62354e-08
3.06526e-08
-7.45855e-08
3.21874e-08
-8.32732e-08
3.35754e-08
-9.22661e-08
3.48227e-08
-1.01534e-07
3.59368e-08
-1.11046e-07
3.69262e-08
-1.20778e-07
3.77999e-08
-1.30702e-07
3.85674e-08
-1.40796e-07
3.92383e-08
-1.51039e-07
3.98221e-08
-1.61412e-07
4.03283e-08
-1.71898e-07
4.0766e-08
-1.82482e-07
4.11439e-08
-1.93152e-07
4.14704e-08
-2.03897e-07
4.17532e-08
-2.14706e-07
4.19996e-08
-2.25572e-07
4.22165e-08
-2.36489e-07
4.24101e-08
-2.47452e-07
4.25861e-08
-2.58457e-07
4.27498e-08
-2.69502e-07
4.29058e-08
-2.80586e-07
4.30584e-08
-2.91707e-07
4.32113e-08
-3.02866e-07
4.3368e-08
-3.14064e-07
4.35313e-08
-3.25302e-07
4.3704e-08
-3.36584e-07
4.38881e-08
-3.47912e-07
4.40855e-08
-3.59288e-07
4.4298e-08
-3.70716e-07
4.45267e-08
-3.82201e-07
4.47729e-08
-3.93745e-07
4.50371e-08
-4.05354e-07
4.53201e-08
-4.1703e-07
4.56222e-08
-4.2878e-07
4.59436e-08
-4.40606e-07
4.62842e-08
-4.52512e-07
4.66437e-08
-4.64504e-07
4.70218e-08
-4.76584e-07
4.74177e-08
-4.88756e-07
4.78309e-08
-5.01024e-07
4.82602e-08
-5.13391e-07
4.87044e-08
-5.2586e-07
4.91623e-08
-5.38432e-07
4.96322e-08
-5.5111e-07
5.01125e-08
-5.63894e-07
5.06011e-08
-5.76786e-07
5.10959e-08
-5.89787e-07
5.15945e-08
-6.02894e-07
5.20943e-08
-6.16107e-07
5.25923e-08
-6.29424e-07
5.30856e-08
-6.42842e-07
5.35707e-08
-6.56356e-07
5.4044e-08
-6.69963e-07
5.45017e-08
-6.83656e-07
5.49395e-08
-6.97428e-07
5.5353e-08
-7.11271e-07
5.57374e-08
-7.25175e-07
5.60878e-08
-7.39129e-07
5.63988e-08
-7.53122e-07
5.66647e-08
-7.67139e-07
5.68796e-08
-7.81165e-07
5.70373e-08
-7.95184e-07
5.71312e-08
-8.09177e-07
5.71545e-08
-8.23124e-07
5.71e-08
-8.37003e-07
5.69605e-08
-8.5079e-07
5.67282e-08
-8.6446e-07
5.63953e-08
-8.77984e-07
5.59535e-08
-8.91335e-07
5.53948e-08
-9.04479e-07
5.47105e-08
-9.17385e-07
5.38922e-08
-9.30016e-07
5.2931e-08
-9.42336e-07
5.18184e-08
-9.54304e-07
5.05456e-08
-9.65881e-07
4.91041e-08
-9.77022e-07
4.74852e-08
-9.87684e-07
4.56808e-08
-9.97819e-07
4.36828e-08
-1.00738e-06
4.14836e-08
-1.01632e-06
3.90761e-08
-1.02458e-06
3.64537e-08
-1.03212e-06
3.36104e-08
-1.03887e-06
3.0541e-08
-1.0448e-06
2.72413e-08
-1.04983e-06
2.37081e-08
-1.05393e-06
1.99391e-08
-1.05703e-06
1.59337e-08
-1.05907e-06
1.16923e-08
-1.06002e-06
7.21712e-09
-1.05981e-06
2.51184e-09
-1.0584e-06
-2.41792e-09
-1.05574e-06
-7.56463e-09
-1.05178e-06
-1.29187e-08
-1.04647e-06
-1.84685e-08
-1.03979e-06
-2.41998e-08
-1.03169e-06
-3.00964e-08
-1.02215e-06
-3.61393e-08
-1.01114e-06
-4.23073e-08
-9.98632e-07
-4.85764e-08
-9.84623e-07
-5.49203e-08
-9.69102e-07
-6.131e-08
-9.52069e-07
-6.77141e-08
-9.33534e-07
-7.40987e-08
-9.13511e-07
-8.04279e-08
-8.92027e-07
-8.66634e-08
-8.69114e-07
-9.27651e-08
-8.44816e-07
-9.86913e-08
-8.19187e-07
-1.04399e-07
-7.92288e-07
-1.09843e-07
-7.64194e-07
-1.14979e-07
-7.34987e-07
-1.19763e-07
-7.04761e-07
-1.24148e-07
-6.73619e-07
-1.2809e-07
-6.41673e-07
-1.31545e-07
-6.09047e-07
-1.34473e-07
-5.7587e-07
-1.36833e-07
-5.42282e-07
-1.38589e-07
-5.0843e-07
-1.39706e-07
-4.74468e-07
-1.40155e-07
-4.40554e-07
-1.39911e-07
-4.06853e-07
-1.38953e-07
-3.73531e-07
-1.37266e-07
-3.40758e-07
-1.3484e-07
-3.08704e-07
-1.31671e-07
-2.77538e-07
-1.27764e-07
-2.47425e-07
-1.2313e-07
-2.18528e-07
-1.17785e-07
-1.91002e-07
-1.11756e-07
-1.64995e-07
-1.05078e-07
-1.40641e-07
-9.77954e-08
-1.18065e-07
-8.99618e-08
-9.73736e-08
-8.16437e-08
-7.86566e-08
-7.29206e-08
-6.19812e-08
-6.38879e-08
-4.73905e-08
-5.46607e-08
-3.48991e-08
-4.5378e-08
-2.44898e-08
-3.62087e-08
-1.611e-08
-2.73597e-08
-9.66867e-09
-1.90859e-08
-5.03318e-09
-1.17036e-08
-2.0283e-09
-5.6033e-09
-4.36248e-10
-1.26734e-09
6.66018e-10
-1.26049e-10
-4.74775e-10
-6.18776e-10
-1.53703e-10
-1.57189e-09
1.11918e-09
-3.0588e-09
3.09971e-09
-5.1347e-09
5.59634e-09
-7.83828e-09
8.4501e-09
-1.11934e-08
1.15304e-08
-1.5211e-08
1.47314e-08
-1.98909e-08
1.79689e-08
-2.52233e-08
2.11761e-08
-3.11906e-08
2.43016e-08
-3.77693e-08
2.73064e-08
-4.49305e-08
3.01623e-08
-5.26422e-08
3.28495e-08
-6.08698e-08
3.53557e-08
-6.95771e-08
3.76741e-08
-7.87275e-08
3.9803e-08
-8.82843e-08
4.17442e-08
-9.82116e-08
4.35027e-08
-1.08475e-07
4.50856e-08
-1.1904e-07
4.65021e-08
-1.29876e-07
4.77622e-08
-1.40953e-07
4.8877e-08
-1.52244e-07
4.98581e-08
-1.63723e-07
5.07174e-08
-1.75367e-07
5.14666e-08
-1.87156e-07
5.21174e-08
-1.99071e-07
5.2681e-08
-2.11096e-07
5.31685e-08
-2.23216e-07
5.35901e-08
-2.35418e-07
5.39556e-08
-2.47693e-07
5.42742e-08
-2.60031e-07
5.45544e-08
-2.72425e-07
5.48042e-08
-2.84869e-07
5.50307e-08
-2.9736e-07
5.52405e-08
-3.09894e-07
5.54396e-08
-3.22469e-07
5.56334e-08
-3.35084e-07
5.58266e-08
-3.4774e-07
5.60237e-08
-3.60437e-07
5.62283e-08
-3.73177e-07
5.64437e-08
-3.85961e-07
5.66728e-08
-3.98794e-07
5.69181e-08
-4.11677e-07
5.71815e-08
-4.24616e-07
5.74648e-08
-4.37612e-07
5.77694e-08
-4.50671e-07
5.80961e-08
-4.63797e-07
5.84459e-08
-4.76994e-07
5.88192e-08
-4.90266e-07
5.92161e-08
-5.03619e-07