/*--------------------------------*- C++ -*----------------------------------*\
  =========                 |
  \\      /  F ield         | OpenFOAM: The Open Source CFD Toolbox
   \\    /   O peration     | Website:  https://openfoam.org
    \\  /    A nd           | Version:  7
     \\/     M anipulation  |
\*---------------------------------------------------------------------------*/
FoamFile
{
    version     2.0;
    format      ascii;
    class       volScalarField;
    location    "0.25";
    object      p;
}
// * * * * * * * * * * * * * * * * * * * * * * * * * * * * * * * * * * * * * //

dimensions      [0 2 -2 0 0 0 0];

internalField   nonuniform List<scalar> 
12800
(
1.90517e-06
0.000185318
-0.000899447
-0.0033434
-0.00690108
-0.0113257
-0.0163839
-0.0218624
-0.0275744
-0.0333599
-0.0390825
-0.0446269
-0.0498959
-0.0548079
-0.059295
-0.063301
-0.0667804
-0.0696963
-0.07202
-0.0737296
-0.0748093
-0.0752488
-0.0750422
-0.074188
-0.0726879
-0.070547
-0.0677729
-0.0643757
-0.0603671
-0.0557608
-0.0505717
-0.0448159
-0.0385101
-0.0316722
-0.0243201
-0.0164725
-0.00814795
0.000634751
0.00985688
0.0194999
0.0295453
0.0399752
0.0507718
0.0619179
0.0733966
0.0851918
0.0972876
0.109669
0.122321
0.13523
0.148383
0.161767
0.175369
0.189179
0.203185
0.217377
0.231746
0.246281
0.260976
0.275821
0.290809
0.305934
0.321189
0.336567
0.352063
0.367673
0.383391
0.399213
0.415135
0.431153
0.447263
0.463464
0.479751
0.496121
0.512573
0.529104
0.545712
0.562394
0.579148
0.595973
0.612865
0.629823
0.646845
0.663928
0.681069
0.698266
0.715516
0.732815
0.750161
0.767549
0.784975
0.802434
0.819922
0.837432
0.854959
0.872495
0.890035
0.907568
0.925087
0.942583
0.960045
0.977461
0.994821
1.01211
1.02932
1.04643
1.06342
1.08029
1.09701
1.11356
1.12992
1.14608
1.16202
1.1777
1.19311
1.20822
1.22301
1.23744
1.25151
1.26517
1.2784
1.29117
1.30346
1.31522
1.32645
1.3371
1.34715
1.35657
1.36534
1.37342
1.38081
1.38746
1.39336
1.3985
1.40286
1.40641
1.40917
1.41111
1.41223
1.41255
1.41207
1.4108
1.40876
1.40598
1.40251
1.39837
1.39364
1.38838
1.38266
1.3766
1.37029
1.36387
1.3575
1.35136
1.34567
1.34067
1.33662
1.33381
1.33253
1.3327
-0.000178664
4.56773e-06
-0.000998244
-0.00313035
-0.00616792
-0.00993554
-0.0142595
-0.018969
-0.0239076
-0.0289361
-0.0339323
-0.0387902
-0.0434187
-0.0477397
-0.0516874
-0.0552064
-0.0582508
-0.0607831
-0.0627732
-0.0641975
-0.0650383
-0.065283
-0.0649237
-0.0639563
-0.0623803
-0.0601983
-0.0574155
-0.0540395
-0.0500798
-0.0455478
-0.0404561
-0.0348185
-0.0286501
-0.0219663
-0.0147835
-0.00711827
0.00101236
0.00959124
0.0186012
0.0280249
0.0378456
0.0480462
0.0586103
0.0695215
0.0807642
0.0923229
0.104183
0.116329
0.128748
0.141426
0.15435
0.167509
0.180889
0.194481
0.208274
0.222256
0.23642
0.250755
0.265253
0.279907
0.294708
0.30965
0.324727
0.339931
0.355258
0.370701
0.386257
0.40192
0.417686
0.433551
0.449511
0.465563
0.481704
0.49793
0.514239
0.530627
0.547093
0.563633
0.580245
0.596926
0.613674
0.630487
0.64736
0.664293
0.681281
0.698322
0.715412
0.732548
0.749726
0.766941
0.784189
0.801464
0.818762
0.836077
0.853401
0.870729
0.888052
0.905361
0.92265
0.939907
0.957122
0.974284
0.991382
1.0084
1.02533
1.04216
1.05886
1.07542
1.09184
1.10808
1.12412
1.13996
1.15557
1.17092
1.18599
1.20077
1.21522
1.22933
1.24306
1.25639
1.2693
1.28176
1.29374
1.30521
1.31615
1.32654
1.33634
1.34553
1.35409
1.362
1.36923
1.37575
1.38157
1.38665
1.39099
1.39457
1.39739
1.39944
1.40073
1.40126
1.40105
1.4001
1.39844
1.3961
1.39313
1.38955
1.38544
1.38086
1.37588
1.3706
1.36512
1.35957
1.35409
1.34884
1.34399
1.33975
1.3363
1.33387
1.3327
1.33286
0.000905636
0.00100852
4.90542e-06
-0.00197918
-0.00472858
-0.00810111
-0.0119566
-0.0161532
-0.0205577
-0.0250486
-0.029517
-0.0338664
-0.0380126
-0.0418823
-0.0454128
-0.0485507
-0.051251
-0.0534766
-0.0551971
-0.0563883
-0.0570314
-0.0571126
-0.0566226
-0.0555558
-0.05391
-0.0516861
-0.0488875
-0.0455201
-0.0415917
-0.0371118
-0.0320914
-0.0265427
-0.0204789
-0.0139141
-0.00686313
0.000658905
0.00863635
0.0170533
0.0258939
0.0351421
0.0447818
0.0547974
0.0651731
0.0758937
0.086944
0.0983094
0.109976
0.121929
0.134156
0.146643
0.159379
0.172351
0.185547
0.198958
0.212572
0.226379
0.240371
0.254538
0.268871
0.283364
0.298007
0.312795
0.32772
0.342777
0.357959
0.373261
0.388678
0.404204
0.419837
0.43557
0.451401
0.467326
0.483341
0.499442
0.515627
0.531892
0.548234
0.564651
0.58114
0.597698
0.614321
0.631007
0.647753
0.664556
0.681413
0.698319
0.715272
0.732267
0.7493
0.766367
0.783462
0.800581
0.817718
0.834866
0.852019
0.869169
0.88631
0.903431
0.920525
0.937582
0.954591
0.971541
0.98842
1.00522
1.02192
1.0385
1.05496
1.07128
1.08744
1.10343
1.11922
1.13479
1.15013
1.16521
1.18002
1.19452
1.20871
1.22254
1.23601
1.24908
1.26173
1.27394
1.28568
1.29692
1.30764
1.31782
1.32743
1.33644
1.34485
1.35261
1.35973
1.36616
1.37191
1.37696
1.38129
1.3849
1.38778
1.38994
1.39136
1.39207
1.39207
1.39139
1.39003
1.38804
1.38546
1.38232
1.37869
1.37462
1.37019
1.36549
1.36062
1.35569
1.35082
1.34615
1.34185
1.33806
1.33495
1.33269
1.33152
1.33158
0.00335121
0.00314396
0.00198747
-1.84476e-06
-0.00264472
-0.00581752
-0.00940033
-0.0132725
-0.0173194
-0.0214347
-0.0255219
-0.0294941
-0.0332744
-0.0367952
-0.0399976
-0.0428312
-0.045253
-0.047227
-0.0487234
-0.0497182
-0.0501924
-0.0501317
-0.049526
-0.0483686
-0.0466565
-0.0443893
-0.0415692
-0.0382008
-0.0342906
-0.0298467
-0.0248789
-0.0193979
-0.0134157
-0.00694517
2.16962e-07
0.00740641
0.0152589
0.0235431
0.0322438
0.0413462
0.0508351
0.0606956
0.070913
0.0814725
0.09236
0.103561
0.115063
0.126851
0.138913
0.151236
0.163809
0.17662
0.189657
0.20291
0.216369
0.230023
0.243864
0.257884
0.272072
0.286422
0.300926
0.315577
0.330368
0.345293
0.360347
0.375522
0.390815
0.406219
0.421732
0.437347
0.453061
0.468871
0.484771
0.500759
0.516832
0.532985
0.549216
0.565521
0.581898
0.598343
0.614853
0.631424
0.648055
0.66474
0.681477
0.698262
0.71509
0.731958
0.748862
0.765796
0.782755
0.799734
0.816726
0.833726
0.850727
0.86772
0.884699
0.901655
0.918579
0.93546
0.952289
0.969054
0.985743
1.00234
1.01884
1.03523
1.05148
1.06759
1.08354
1.0993
1.11487
1.13022
1.14533
1.16019
1.17477
1.18905
1.20301
1.21662
1.22987
1.24272
1.25516
1.26716
1.2787
1.28976
1.3003
1.31031
1.31977
1.32864
1.33692
1.34458
1.35161
1.35798
1.36369
1.36871
1.37305
1.37669
1.37964
1.38188
1.38343
1.38429
1.38447
1.384
1.3829
1.38119
1.37892
1.37613
1.37287
1.36919
1.36518
1.36091
1.35648
1.35197
1.34751
1.34322
1.33923
1.33567
1.33269
1.33043
1.32908
1.32878
0.00692119
0.00619355
0.00474035
0.00262901
-2.44956e-05
-0.00311415
-0.00653688
-0.010191
-0.0139787
-0.0178083
-0.0215948
-0.0252613
-0.0287383
-0.0319643
-0.0348851
-0.0374539
-0.0396301
-0.0413797
-0.0426739
-0.0434894
-0.0438075
-0.043614
-0.0428982
-0.041653
-0.0398747
-0.0375619
-0.0347161
-0.0313408
-0.0274412
-0.0230246
-0.0180993
-0.0126753
-0.00676323
-0.00037484
0.00647747
0.0137807
0.0215214
0.0296859
0.03826
0.0472298
0.056581
0.0662995
0.0763711
0.0867822
0.0975188
0.108568
0.119916
0.13155
0.143458
0.155628
0.168048
0.180706
0.193593
0.206697
0.220008
0.233518
0.247216
0.261094
0.275144
0.289358
0.303728
0.318247
0.332909
0.347708
0.362636
0.377689
0.392861
0.408147
0.423543
0.439043
0.454643
0.47034
0.486128
0.502006
0.517968
0.534011
0.550132
0.566328
0.582595
0.598929
0.615327
0.631787
0.648303
0.664873
0.681493
0.698159
0.714866
0.731611
0.748388
0.765192
0.782019
0.798862
0.815715
0.832572
0.849426
0.866269
0.883093
0.89989
0.91665
0.933365
0.950022
0.966611
0.983121
0.999539
1.01585
1.03204
1.0481
1.06401
1.07976
1.09532
1.11068
1.12582
1.14073
1.15538
1.16975
1.18382
1.19757
1.21099
1.22403
1.23669
1.24894
1.26076
1.27212
1.28301
1.2934
1.30326
1.31258
1.32133
1.32951
1.33708
1.34403
1.35035
1.35603
1.36104
1.36539
1.36907
1.37208
1.37441
1.37607
1.37707
1.37742
1.37715
1.37627
1.37481
1.37282
1.37032
1.36737
1.36404
1.36037
1.35645
1.35235
1.34817
1.34401
1.33997
1.33616
1.3327
1.32972
1.32732
1.32563
1.32473
0.0113796
0.00998992
0.00812791
0.0057958
0.00303206
-7.40007e-05
-0.00343384
-0.006963
-0.0105793
-0.0142041
-0.017764
-0.0211912
-0.0244241
-0.0274074
-0.0300921
-0.032435
-0.0343988
-0.0359516
-0.0370663
-0.0377207
-0.0378969
-0.0375808
-0.036762
-0.0354331
-0.0335899
-0.0312306
-0.028356
-0.0249687
-0.0210733
-0.0166759
-0.0117842
-0.00640701
-0.000554083
0.00576382
0.0125353
0.0197482
0.02739
0.035448
0.0439088
0.0527593
0.0619861
0.0715757
0.0815148
0.0917901
0.102389
0.113297
0.124504
0.135996
0.147761
0.159788
0.172066
0.184582
0.197328
0.210292
0.223465
0.236838
0.250401
0.264146
0.278065
0.292149
0.306392
0.320786
0.335325
0.350001
0.36481
0.379746
0.394802
0.409973
0.425256
0.440644
0.456134
0.471722
0.487402
0.503172
0.519027
0.534963
0.550978
0.567066
0.583226
0.599452
0.615742
0.632092
0.648498
0.664956
0.681462
0.698012
0.714602
0.731226
0.747881
0.76456
0.781259
0.797972
0.814691
0.831411
0.848125
0.864824
0.881501
0.898148
0.914753
0.93131
0.947805
0.96423
0.980571
0.996817
1.01295
1.02897
1.04485
1.06057
1.07613
1.09151
1.10668
1.12163
1.13635
1.15081
1.16499
1.17887
1.19244
1.20567
1.21854
1.23102
1.2431
1.25476
1.26597
1.27671
1.28695
1.29669
1.30589
1.31455
1.32263
1.33013
1.33703
1.34331
1.34896
1.35397
1.35834
1.36206
1.36512
1.36754
1.36931
1.37044
1.37094
1.37084
1.37016
1.36892
1.36716
1.36491
1.36223
1.35916
1.35577
1.35212
1.34828
1.34433
1.34037
1.33647
1.33274
1.32927
1.32616
1.32351
1.32137
1.31971
0.0165051
0.0143682
0.012017
0.00938468
0.00642746
0.00321987
-0.000161822
-0.00364864
-0.00717243
-0.0106668
-0.0140686
-0.0173193
-0.0203647
-0.0231558
-0.0256487
-0.0278046
-0.0295892
-0.0309734
-0.0319321
-0.0324446
-0.0324939
-0.0320668
-0.031153
-0.0297454
-0.0278397
-0.0254339
-0.0225282
-0.0191248
-0.0152276
-0.0108422
-0.00597534
-0.000635141
0.00516939
0.0114284
0.0181311
0.0252664
0.0328225
0.0407874
0.0491486
0.0578936
0.0670097
0.0764842
0.0863043
0.0964574
0.106931
0.117713
0.128791
0.140153
0.151788
0.163684
0.17583
0.188216
0.200832
0.213666
0.226711
0.239956
0.253393
0.267014
0.280809
0.294772
0.308895
0.323171
0.337593
0.352155
0.36685
0.381673
0.396619
0.411682
0.426856
0.442138
0.457522
0.473005
0.488581
0.504247
0.519998
0.535832
0.551743
0.567729
0.583784
0.599907
0.616092
0.632336
0.648635
0.664985
0.681382
0.697821
0.714297
0.730807
0.747345
0.763905
0.780482
0.79707
0.813662
0.830252
0.846833
0.863397
0.879935
0.896439
0.912901
0.929309
0.945654
0.961925
0.978109
0.994196
1.01017
1.02602
1.04174
1.05729
1.07268
1.08789
1.10289
1.11767
1.13222
1.1465
1.16052
1.17423
1.18764
1.2007
1.21341
1.22574
1.23768
1.24919
1.26027
1.27088
1.28101
1.29064
1.29975
1.30832
1.31633
1.32377
1.33062
1.33687
1.34251
1.34753
1.35193
1.35568
1.35881
1.3613
1.36317
1.36442
1.36506
1.36511
1.3646
1.36354
1.36198
1.35994
1.35747
1.35462
1.35143
1.34798
1.34431
1.34052
1.33665
1.33281
1.32905
1.32547
1.32215
1.31917
1.31647
1.31398
0.0220965
0.0191668
0.0162728
0.0132808
0.0100651
0.00668766
0.00321472
-0.000298561
-0.00379664
-0.00722408
-0.0105275
-0.0136567
-0.0165649
-0.0192091
-0.0215506
-0.0235548
-0.0251911
-0.026433
-0.0272578
-0.0276465
-0.0275836
-0.0270565
-0.0260559
-0.024575
-0.0226096
-0.0201576
-0.0172192
-0.0137962
-0.00989211
-0.00551204
-0.000662224
0.0046499
0.0104159
0.0166267
0.0232721
0.0303417
0.0378244
0.0457089
0.0539833
0.0626359
0.0716545
0.081027
0.0907412
0.100785
0.111147
0.121814
0.132776
0.144021
0.155537
0.167313
0.17934
0.191606
0.204101
0.216817
0.229743
0.24287
0.25619
0.269694
0.283375
0.297224
0.311235
0.325399
0.339712
0.354165
0.368753
0.38347
0.398311
0.41327
0.428342
0.443521
0.458805
0.474187
0.489663
0.505229
0.520882
0.536616
0.552428
0.568314
0.584271
0.600293
0.616377
0.63252
0.648716
0.664962
0.681253
0.697586
0.713954
0.730354
0.746779
0.763226
0.779687
0.796156
0.812628
0.829096
0.845551
0.861987
0.878395
0.894766
0.911092
0.927363
0.943567
0.959696
0.975736
0.991676
1.0075
1.0232
1.03876
1.05417
1.06941
1.08446
1.09931
1.11393
1.12832
1.14246
1.15632
1.16989
1.18315
1.19607
1.20865
1.22085
1.23265
1.24405
1.25501
1.26551
1.27555
1.28509
1.29412
1.30262
1.31058
1.31797
1.3248
1.33103
1.33667
1.3417
1.34612
1.34992
1.35311
1.35568
1.35763
1.35899
1.35975
1.35993
1.35956
1.35866
1.35726
1.35538
1.35308
1.35039
1.34735
1.34403
1.34048
1.33676
1.33292
1.32905
1.3252
1.32143
1.31782
1.31444
1.31114
1.30775
0.0279787
0.0242374
0.0207683
0.0173743
0.0138511
0.0102506
0.00663069
0.00303459
-0.000493422
-0.00390776
-0.00716393
-0.0102195
-0.0130344
-0.0155718
-0.017798
-0.0196824
-0.0211983
-0.0223221
-0.0230335
-0.0233155
-0.0231539
-0.0225377
-0.0214581
-0.0199091
-0.0178868
-0.0153894
-0.012417
-0.00897137
-0.00505588
-0.000675195
0.00416479
0.00945709
0.0151938
0.0213663
0.027965
0.0349801
0.0424011
0.0502172
0.0584172
0.0669897
0.0759234
0.0852065
0.0948275
0.104775
0.115037
0.125602
0.13646
0.147598
0.159007
0.170675
0.182593
0.19475
0.207136
0.219742
0.232559
0.245577
0.258789
0.272186
0.28576
0.299503
0.313409
0.327469
0.341678
0.35603
0.370517
0.385134
0.399876
0.414736
0.42971
0.444793
0.45998
0.475266
0.490647
0.506118
0.521676
0.537315
0.553032
0.568823
0.584684
0.60061
0.616597
0.632642
0.64874
0.664886
0.681077
0.697307
0.713572
0.729867
0.746186
0.762523
0.778874
0.795232
0.81159
0.827941
0.844278
0.860594
0.87688
0.893127
0.909327
0.925469
0.941544
0.957541
0.973448
0.989253
1.00494
1.02051
1.03593
1.0512
1.0663
1.08121
1.09592
1.11041
1.12467
1.13867
1.1524
1.16584
1.17897
1.19177
1.20423
1.21631
1.22801
1.2393
1.25017
1.26059
1.27054
1.28001
1.28898
1.29743
1.30535
1.31272
1.31952
1.32575
1.3314
1.33645
1.3409
1.34475
1.34799
1.35063
1.35267
1.35412
1.35499
1.35529
1.35504
1.35426
1.35299
1.35124
1.34906
1.34649
1.34355
1.34031
1.33681
1.3331
1.32923
1.32527
1.32125
1.31724
1.31329
1.30946
1.30552
1.30124
0.0340006
0.0294474
0.0253867
0.0215626
0.0176963
0.0138319
0.010021
0.00629644
0.00269252
-0.000753892
-0.00400627
-0.00702932
-0.00978948
-0.0122554
-0.0143981
-0.0161916
-0.0176123
-0.01864
-0.0192567
-0.0194475
-0.0192001
-0.0185045
-0.0173534
-0.0157413
-0.0136649
-0.0111229
-0.00811551
-0.00464462
-0.000713493
0.00367334
0.00851021
0.0137905
0.0195066
0.0256502
0.0322124
0.0391837
0.0465541
0.0543133
0.0624506
0.0709551
0.079816
0.0890219
0.0985618
0.108425
0.118599
0.129074
0.139839
0.150883
0.162196
0.173768
0.185587
0.197645
0.209932
0.222438
0.235155
0.248074
0.261187
0.274484
0.28796
0.301605
0.315413
0.329377
0.343491
0.357746
0.372139
0.386662
0.40131
0.416078
0.43096
0.445951
0.461046
0.476242
0.491532
0.506912
0.522379
0.537928
0.553554
0.569254
0.585022
0.600856
0.616751
0.632703
0.648706
0.664757
0.680852
0.696985
0.713151
0.729346
0.745563
0.761798
0.778045
0.794296
0.810547
0.826789
0.843015
0.859218
0.87539
0.891522
0.907605
0.923629
0.939584
0.955459
0.971244
0.986927
1.00249
1.01793
1.03323
1.04838
1.06335
1.07814
1.09273
1.1071
1.12123
1.13512
1.14874
1.16206
1.17509
1.18779
1.20014
1.21213
1.22374
1.23495
1.24574
1.25609
1.26599
1.2754
1.28433
1.29274
1.30063
1.30799
1.31479
1.32102
1.32668
1.33176
1.33625
1.34015
1.34345
1.34615
1.34827
1.3498
1.35076
1.35116
1.35101
1.35034
1.34917
1.34752
1.34543
1.34293
1.34005
1.33684
1.33334
1.32959
1.32564
1.32153
1.3173
1.313
1.30867
1.30437
1.29978
1.29461
0.0400335
0.0346796
0.0300225
0.0257511
0.0215169
0.0173583
0.0133224
0.00943285
0.00571557
0.00219963
-0.00108555
-0.00411119
-0.00684961
-0.00927466
-0.0113621
-0.0130898
-0.014438
-0.015389
-0.0159279
-0.0160418
-0.01572
-0.0149543
-0.0137384
-0.0120678
-0.00993993
-0.00735398
-0.00431059
-0.000811836
0.00313893
0.00753718
0.0123773
0.017653
0.0233567
0.0294806
0.036016
0.0429538
0.0502844
0.0579978
0.0660838
0.074532
0.0833317
0.0924723
0.101943
0.111733
0.121832
0.132228
0.142913
0.153874
0.165102
0.176587
0.188319
0.200288
0.212486
0.224902
0.237529
0.250358
0.26338
0.276587
0.289972
0.303528
0.317246
0.331121
0.345145
0.359312
0.373616
0.388052
0.402612
0.417293
0.432088
0.446993
0.462002
0.477111
0.492315
0.507609
0.52299
0.538452
0.553992
0.569605
0.585286
0.601033
0.616839
0.632701
0.648615
0.664575
0.680578
0.696618
0.712691
0.728791
0.744912
0.76105
0.777198
0.79335
0.809499
0.825638
0.841761
0.85786
0.873925
0.88995
0.905925
0.921839
0.937685
0.95345
0.969124
0.984695
1.00015
1.01548
1.03067
1.0457
1.06056
1.07524
1.08973
1.10399
1.11802
1.13181
1.14533
1.15856
1.17149
1.18411
1.19638
1.2083
1.21984
1.23098
1.24171
1.25201
1.26186
1.27124
1.28014
1.28853
1.29641
1.30376
1.31057
1.31682
1.3225
1.32762
1.33215
1.33609
1.33945
1.34223
1.34441
1.34603
1.34707
1.34755
1.34748
1.34689
1.3458
1.34422
1.34219
1.33972
1.33687
1.33365
1.33011
1.32628
1.32221
1.31791
1.31343
1.3088
1.30407
1.29928
1.29404
1.28799
0.0459669
0.0398308
0.0345801
0.0298528
0.0252347
0.0207604
0.0164737
0.0123907
0.0085301
0.00491407
0.00156574
-0.00149196
-0.00423672
-0.00664725
-0.00870365
-0.0103877
-0.0116829
-0.0125747
-0.0130507
-0.0131001
-0.0127143
-0.0118866
-0.0106118
-0.00888662
-0.00670944
-0.00407999
-0.000999424
0.00252983
0.00650418
0.010919
0.0157687
0.0210469
0.0267463
0.0328593
0.0393773
0.0462915
0.0535927
0.0612711
0.069317
0.0777201
0.0864703
0.0955572
0.10497
0.114699
0.124734
0.135063
0.145678
0.156567
0.167722
0.179131
0.190786
0.202677
0.214796
0.227132
0.239679
0.252426
0.265366
0.278492
0.291795
0.305268
0.318904
0.332697
0.346639
0.360724
0.374947
0.3893
0.40378
0.418379
0.433093
0.447916
0.462844
0.477872
0.492995
0.508208
0.523507
0.538888
0.554346
0.569876
0.585475
0.601137
0.61686
0.632637
0.648465
0.66434
0.680256
0.696208
0.712191
0.728201
0.744232
0.760278
0.776333
0.792391
0.808446
0.82449
0.840516
0.856517
0.872485
0.88841
0.904285
0.9201
0.935845
0.95151
0.967083
0.982554
0.99791
1.01314
1.02823
1.04316
1.05793
1.07252
1.08691
1.10108
1.11503
1.12873
1.14217
1.15532
1.16818
1.18073
1.19294
1.20479
1.21628
1.22738
1.23807
1.24833
1.25815
1.26751
1.2764
1.28479
1.29267
1.30003
1.30685
1.31313
1.31885
1.324
1.32858
1.33258
1.336
1.33884
1.34109
1.34277
1.34389
1.34444
1.34445
1.34392
1.34288
1.34135
1.33934
1.3369
1.33403
1.33077
1.32716
1.32322
1.31898
1.31447
1.30971
1.30473
1.29958
1.29429
1.28841
1.28151
0.0517053
0.0448098
0.0389742
0.0337885
0.0287774
0.0239728
0.0194165
0.0151185
0.011091
0.0073503
0.00391405
0.000799907
-0.00197469
-0.00439291
-0.00643893
-0.00809813
-0.00935735
-0.0102049
-0.0106309
-0.0106267
-0.0101858
-0.00930281
-0.00797422
-0.00619783
-0.00397288
-0.00129992
0.00181928
0.00538183
0.00938382
0.0138204
0.0186858
0.0239737
0.0296768
0.0357874
0.0422972
0.0491977
0.0564796
0.0641337
0.0721502
0.0805194
0.0892313
0.0982758
0.107643
0.117322
0.127304
0.137578
0.148134
0.158962
0.170054
0.181398
0.192987
0.20481
0.216859
0.229126
0.2416
0.254276
0.267143
0.280195
0.293425
0.306824
0.320386
0.334103
0.347971
0.361981
0.376128
0.390407
0.404811
0.419335
0.433973
0.448721
0.463573
0.478525
0.493571
0.508708
0.52393
0.539234
0.554614
0.570066
0.585586
0.60117
0.616813
0.63251
0.648257
0.66405
0.679883
0.695753
0.711652
0.727578
0.743523
0.759483
0.775451
0.791421
0.807387
0.823342
0.839279
0.85519
0.871067
0.886902
0.902686
0.918409
0.934063
0.949637
0.96512
0.980501
0.995769
1.01091
1.02591
1.04076
1.05545
1.06995
1.08427
1.09836
1.11224
1.12587
1.13924
1.15234
1.16514
1.17763
1.1898
1.20161
1.21306
1.22413
1.2348
1.24504
1.25485
1.26421
1.2731
1.2815
1.28939
1.29678
1.30363
1.30994
1.3157
1.3209
1.32553
1.32959
1.33307
1.33598
1.3383
1.34005
1.34122
1.34184
1.3419
1.34143
1.34043
1.33892
1.33692
1.33446
1.33156
1.32824
1.32452
1.32044
1.31601
1.31126
1.30621
1.30087
1.29529
1.2895
1.28298
1.27526
0.0571661
0.0495362
0.0431279
0.0374862
0.0320781
0.0269342
0.0220954
0.0175664
0.0133539
0.00946932
0.00592533
0.00273492
-8.88297e-05
-0.00253319
-0.00458608
-0.00623632
-0.00747385
-0.00828979
-0.00867659
-0.00862804
-0.00813927
-0.0072068
-0.00582841
-0.00400317
-0.00173134
0.00098567
0.0041454
0.00774439
0.0117783
0.0162419
0.0211294
0.026434
0.0321486
0.0382655
0.0447764
0.0516727
0.0589455
0.0665856
0.0745836
0.0829298
0.0916145
0.100628
0.10996
0.119601
0.129541
0.13977
0.150279
0.161058
0.172097
0.183388
0.19492
0.206685
0.218675
0.230881
0.243294
0.255906
0.268709
0.281697
0.294861
0.308193
0.321688
0.335339
0.349139
0.363081
0.37716
0.391369
0.405704
0.420159
0.434727
0.449405
0.464187
0.479067
0.494043
0.509108
0.524258
0.539489
0.554796
0.570175
0.585621
0.60113
0.616698
0.632319
0.64799
0.663706
0.679462
0.695252
0.711073
0.726919
0.742784
0.758663
0.77455
0.790439
0.806322
0.822195
0.838049
0.853876
0.86967
0.885422
0.901123
0.916765
0.932337
0.947829
0.963232
0.978534
0.993724
1.00879
1.02372
1.0385
1.05311
1.06755
1.0818
1.09583
1.10965
1.12323
1.13655
1.1496
1.16236
1.17482
1.18695
1.19874
1.21017
1.22123
1.23188
1.24213
1.25194
1.26131
1.27022
1.27864
1.28657
1.29399
1.30088
1.30724
1.31305
1.31831
1.323
1.32712
1.33067
1.33364
1.33602
1.33784
1.33907
1.33974
1.33985
1.33941
1.33844
1.33694
1.33494
1.33244
1.32948
1.32607
1.32224
1.31799
1.31336
1.30835
1.30299
1.29727
1.29126
1.28498
1.27785
1.26934
0.0622768
0.0539386
0.0469722
0.0408801
0.0350752
0.0295875
0.0244579
0.0196866
0.0152758
0.0112326
0.00756532
0.00428293
0.0013945
-0.00109095
-0.0031648
-0.00481909
-0.00604665
-0.0068413
-0.00719786
-0.00711226
-0.00658156
-0.00560392
-0.00417861
-0.00230597
1.26548e-05
0.00277493
0.00597761
0.00961661
0.0136871
0.0181834
0.0230993
0.028428
0.0341621
0.0402938
0.0468148
0.0537167
0.0609904
0.068627
0.076617
0.0849511
0.0936196
0.102613
0.111921
0.121535
0.131445
0.141641
0.152113
0.162853
0.173851
0.185097
0.196584
0.208302
0.220242
0.232396
0.244757
0.257315
0.270063
0.282995
0.296101
0.309376
0.322812
0.336403
0.350142
0.364023
0.37804
0.392187
0.406459
0.42085
0.435354
0.449968
0.464684
0.479499
0.494409
0.509407
0.52449
0.539653
0.554892
0.570202
0.585579
0.601018
0.616515
0.632065
0.647664
0.663307
0.67899
0.694707
0.710454
0.726225
0.742015
0.757819
0.77363
0.789443
0.80525
0.821046
0.836824
0.852576
0.868294
0.883971
0.899597
0.915164
0.930663
0.946084
0.961416
0.976649
0.991771
1.00677
1.02164
1.03636
1.05091
1.0653
1.07949
1.09348
1.10725
1.12079
1.13408
1.1471
1.15984
1.17227
1.18439
1.19617
1.2076
1.21865
1.22932
1.23958
1.24942
1.25881
1.26775
1.27621
1.28418
1.29165
1.2986
1.30501
1.31089
1.31621
1.32097
1.32516
1.32877
1.33181
1.33427
1.33614
1.33743
1.33815
1.3383
1.33789
1.33693
1.33543
1.3334
1.33087
1.32783
1.32432
1.32034
1.31592
1.31106
1.30579
1.30011
1.29402
1.28757
1.28081
1.27307
1.26382
0.0669741
0.0579535
0.0504449
0.0439103
0.0377116
0.0318791
0.0264541
0.0214333
0.0168148
0.0126021
0.00879993
0.00541344
0.00244822
-9.00836e-05
-0.00219605
-0.00386468
-0.00509157
-0.00587305
-0.00620628
-0.00608926
-0.00552093
-0.00450111
-0.00303057
-0.00111094
0.00125529
0.0040648
0.00731352
0.0109966
0.0151087
0.0196436
0.0245948
0.0299551
0.0357168
0.0418721
0.0484126
0.0553297
0.0626144
0.0702578
0.0782506
0.0865833
0.0952466
0.104231
0.113527
0.123125
0.133015
0.143188
0.153635
0.164347
0.175314
0.186527
0.197978
0.209659
0.221559
0.233672
0.245989
0.258503
0.271205
0.284088
0.297146
0.31037
0.323755
0.337294
0.350979
0.364806
0.378768
0.39286
0.407075
0.421408
0.435854
0.450409
0.465066
0.479821
0.494669
0.509606
0.524626
0.539726
0.554902
0.570147
0.585459
0.600832
0.616263
0.631747
0.647278
0.662854
0.678468
0.694117
0.709794
0.725496
0.741216
0.75695
0.77269
0.788433
0.80417
0.819896
0.835604
0.851287
0.866936
0.882545
0.898104
0.913606
0.92904
0.944398
0.959669
0.974842
0.989908
1.00485
1.01967
1.03434
1.04885
1.06319
1.07735
1.0913
1.10505
1.11856
1.13182
1.14483
1.15756
1.16999
1.1821
1.19389
1.20533
1.21641
1.2271
1.23739
1.24726
1.2567
1.26568
1.27419
1.28222
1.28975
1.29677
1.30325
1.3092
1.3146
1.31943
1.3237
1.32739
1.3305
1.33302
1.33496
1.33631
1.33708
1.33726
1.33687
1.33592
1.33441
1.33235
1.32975
1.32663
1.323
1.31887
1.31426
1.30917
1.30362
1.29762
1.29115
1.28428
1.27704
1.26873
1.25875
0.0712014
0.061524
0.0534895
0.0465219
0.0399348
0.0337591
0.0280372
0.0227626
0.0179304
0.0135408
0.00959531
0.00609584
0.0030448
0.000444773
-0.00170173
-0.00339247
-0.00462565
-0.00539999
-0.00571486
-0.00557029
-0.00496705
-0.00390664
-0.00239129
-0.000423982
0.00199163
0.00485121
0.00814979
0.0118818
0.0160411
0.0206211
0.0256147
0.0310144
0.0368122
0.0430001
0.0495694
0.0565116
0.0638175
0.0714782
0.0794844
0.0878267
0.0964959
0.105482
0.114777
0.12437
0.134252
0.144414
0.154846
0.16554
0.176487
0.187678
0.199104
0.210756
0.222627
0.234708
0.246991
0.259469
0.272133
0.284978
0.297994
0.311177
0.324518
0.338012
0.351652
0.365431
0.379345
0.393387
0.407551
0.421833
0.436227
0.450728
0.465331
0.480031
0.494823
0.509703
0.524667
0.539709
0.554825
0.570011
0.585262
0.600574
0.615943
0.631365
0.646834
0.662346
0.677896
0.693481
0.709094
0.724731
0.740386
0.756055
0.771731
0.787408
0.803081
0.818743
0.834388
0.850008
0.865595
0.881143
0.896643
0.912087
0.927465
0.942768
0.957987
0.973111
0.988129
1.00303
1.0178
1.03243
1.04691
1.06122
1.07535
1.08929
1.10302
1.11652
1.12978
1.14278
1.15551
1.16795
1.18009
1.1919
1.20336
1.21447
1.2252
1.23554
1.24546
1.25495
1.264
1.27258
1.28068
1.28829
1.29538
1.30195
1.30798
1.31346
1.31838
1.32273
1.32651
1.32969
1.33229
1.33429
1.3357
1.33651
1.33673
1.33636
1.33541
1.33388
1.33178
1.32912
1.3259
1.32215
1.31786
1.31305
1.30773
1.3019
1.29557
1.28873
1.28144
1.27374
1.26487
1.2542
0.0749085
0.0645984
0.0560546
0.0486645
0.0416957
0.0351804
0.0291624
0.0236327
0.0185835
0.0140124
0.00991807
0.00629953
0.00315639
0.000488433
-0.00170452
-0.00342279
-0.004667
-0.00543815
-0.00573773
-0.00556774
-0.00493075
-0.00382989
-0.00226888
-0.000252034
0.0022158
0.00512921
0.00848229
0.0122687
0.0164815
0.0211135
0.0261572
0.0316046
0.0374473
0.0436771
0.050285
0.0572623
0.0645998
0.0722885
0.0803189
0.0886818
0.0973678
0.106368
0.115672
0.125271
0.135156
0.145317
0.155746
0.166434
0.177371
0.188549
0.19996
0.211595
0.223445
0.235504
0.247763
0.260214
0.27285
0.285663
0.298648
0.311796
0.325101
0.338558
0.352159
0.365898
0.37977
0.393769
0.40789
0.422126
0.436474
0.450927
0.465481
0.480131
0.494873
0.509701
0.524612
0.5396
0.554662
0.569793
0.584988
0.600244
0.615556
0.63092
0.64633
0.661783
0.677275
0.6928
0.708353
0.72393
0.739525
0.755134
0.77075
0.786369
0.801983
0.817587
0.833174
0.848738
0.86427
0.879764
0.895212
0.910605
0.925935
0.941192
0.956368
0.971451
0.986431
1.0013
1.01604
1.03064
1.0451
1.05939
1.07351
1.08744
1.10116
1.11466
1.12793
1.14094
1.15369
1.16616
1.17832
1.19017
1.20168
1.21284
1.22363
1.23402
1.24401
1.25358
1.2627
1.27137
1.27955
1.28725
1.29444
1.3011
1.30723
1.31281
1.31782
1.32226
1.32612
1.3294
1.33207
1.33414
1.33561
1.33647
1.33673
1.33638
1.33543
1.33387
1.33173
1.329
1.32568
1.3218
1.31735
1.31234
1.30678
1.30067
1.29401
1.28681
1.27911
1.27095
1.26154
1.25021
0.0780497
0.0671301
0.058093
0.0502913
0.0429487
0.036099
0.0297875
0.0240033
0.0187362
0.0139815
0.00973522
0.00599407
0.00275501
1.5311e-05
-0.00222767
-0.00397666
-0.00523454
-0.0060045
-0.00629004
-0.00609505
-0.00542386
-0.00428123
-0.00267236
-0.000602901
0.00192108
0.00489308
0.00830623
0.0121533
0.0164266
0.0211184
0.0262204
0.0317242
0.0376211
0.0439024
0.050559
0.0575818
0.0649615
0.0726889
0.0807547
0.0891493
0.0978634
0.106888
0.116213
0.125829
0.135728
0.1459
0.156337
0.167028
0.177967
0.189143
0.200549
0.212176
0.224016
0.236062
0.248305
0.260739
0.273355
0.286146
0.299106
0.312229
0.325506
0.338932
0.352502
0.366208
0.380045
0.394008
0.40809
0.422287
0.436594
0.451005
0.465516
0.480122
0.494818
0.5096
0.524463
0.539402
0.554414
0.569495
0.584639
0.599843
0.615102
0.630412
0.645768
0.661167
0.676604
0.692073
0.707572
0.723093
0.738634
0.754188
0.769749
0.785314
0.800875
0.816426
0.831962
0.847475
0.862959
0.878406
0.893809
0.909159
0.924448
0.939668
0.954808
0.969859
0.984811
0.999653
1.01437
1.02896
1.04341
1.05769
1.07181
1.08574
1.09947
1.11298
1.12627
1.13931
1.1521
1.1646
1.17681
1.18871
1.20028
1.2115
1.22236
1.23283
1.24291
1.25256
1.26178
1.27054
1.27883
1.28663
1.29392
1.30069
1.30693
1.31261
1.31774
1.32228
1.32624
1.32961
1.33237
1.33452
1.33605
1.33697
1.33726
1.33693
1.33598
1.3344
1.33221
1.32941
1.32599
1.32197
1.31736
1.31215
1.30635
1.29996
1.29299
1.28542
1.27732
1.26872
1.25879
1.24682
0.0805837
0.0690759
0.0595612
0.0513588
0.0436509
0.036473
0.0298722
0.0238359
0.0183518
0.0134133
0.00901428
0.00514915
0.00181258
-0.00100047
-0.00329492
-0.00507573
-0.00634795
-0.00711678
-0.00738771
-0.00716645
-0.00645904
-0.00527185
-0.00361155
-0.00148513
0.0011001
0.00413652
0.00761626
0.0115312
0.0158728
0.0206327
0.0258019
0.0313715
0.0373324
0.0436754
0.0503911
0.0574701
0.064903
0.0726804
0.0807926
0.0892303
0.0979839
0.107044
0.116402
0.126047
0.135971
0.146165
0.15662
0.167326
0.178276
0.189461
0.200872
0.212502
0.224342
0.236384
0.248621
0.261046
0.273651
0.286429
0.299373
0.312477
0.325734
0.339138
0.352683
0.366362
0.380171
0.394104
0.408155
0.422319
0.43659
0.450965
0.465438
0.480005
0.49466
0.5094
0.52422
0.539116
0.554083
0.569117
0.584214
0.59937
0.614581
0.629842
0.645149
0.660498
0.675884
0.691303
0.70675
0.722221
0.737711
0.753215
0.768727
0.784243
0.799756
0.81526
0.83075
0.84622
0.861661
0.877067
0.892432
0.907746
0.923002
0.938191
0.953304
0.968332
0.983264
0.998091
1.0128
1.02738
1.04182
1.05611
1.07024
1.08418
1.09793
1.11148
1.1248
1.13788
1.15071
1.16327
1.17554
1.18751
1.19915
1.21045
1.22139
1.23196
1.24213
1.25189
1.26121
1.27009
1.27849
1.28641
1.29383
1.30072
1.30708
1.31289
1.31813
1.32279
1.32686
1.33033
1.33319
1.33542
1.33703
1.338
1.33833
1.33803
1.33708
1.33549
1.33325
1.33037
1.32686
1.32271
1.31793
1.31252
1.30648
1.29982
1.29253
1.28461
1.27611
1.26709
1.25666
1.24407
0.0824723
0.0703961
0.0604184
0.0518263
0.043762
0.0362628
0.0293778
0.023093
0.0173945
0.0122739
0.00772317
0.00373468
0.00030101
-0.00258499
-0.00493037
-0.00674215
-0.00802743
-0.00879339
-0.00904737
-0.00879688
-0.00804965
-0.00681361
-0.00509689
-0.00290786
-0.000255066
0.00285274
0.00640664
0.0103975
0.0148162
0.0196533
0.0248994
0.0305448
0.0365801
0.0429954
0.0497812
0.0569276
0.0644251