/*--------------------------------*- C++ -*----------------------------------*\
  =========                 |
  \\      /  F ield         | OpenFOAM: The Open Source CFD Toolbox
   \\    /   O peration     | Website:  https://openfoam.org
    \\  /    A nd           | Version:  7
     \\/     M anipulation  |
\*---------------------------------------------------------------------------*/
FoamFile
{
    version     2.0;
    format      ascii;
    class       surfaceScalarField;
    location    "0.25";
    object      phi;
}
// * * * * * * * * * * * * * * * * * * * * * * * * * * * * * * * * * * * * * //

dimensions      [0 3 -1 0 0 0 0];

internalField   nonuniform List<scalar> 
25360
(
1.14174e-10
-1.14443e-10
3.59465e-10
-2.45292e-10
6.04076e-10
-2.44611e-10
7.64921e-10
-1.60846e-10
7.97882e-10
-3.29624e-11
6.81158e-10
1.1672e-10
4.06125e-10
2.7503e-10
-2.78854e-11
4.34009e-10
-6.1674e-10
5.88854e-10
-1.35342e-09
7.36675e-10
-2.22915e-09
8.75733e-10
-3.23417e-09
1.00502e-09
-4.35818e-09
1.124e-09
-5.59064e-09
1.23247e-09
-6.92105e-09
1.33041e-09
-8.33904e-09
1.41799e-09
-9.8345e-09
1.49546e-09
-1.13977e-08
1.56315e-09
-1.30191e-08
1.62146e-09
-1.46899e-08
1.67082e-09
-1.64016e-08
1.71165e-09
-1.8146e-08
1.74445e-09
-1.99157e-08
1.76966e-09
-2.17035e-08
1.78778e-09
-2.35028e-08
1.79928e-09
-2.53074e-08
1.80462e-09
-2.71116e-08
1.80426e-09
-2.89103e-08
1.79866e-09
-3.06986e-08
1.78826e-09
-3.2472e-08
1.77346e-09
-3.42267e-08
1.7547e-09
-3.59591e-08
1.73234e-09
-3.76658e-08
1.70678e-09
-3.93442e-08
1.67835e-09
-4.09916e-08
1.64742e-09
-4.26059e-08
1.61428e-09
-4.41851e-08
1.57925e-09
-4.57278e-08
1.54261e-09
-4.72324e-08
1.50463e-09
-4.86979e-08
1.46554e-09
-5.01235e-08
1.42558e-09
-5.15085e-08
1.38497e-09
-5.28523e-08
1.34389e-09
-5.41549e-08
1.30252e-09
-5.54159e-08
1.26104e-09
-5.66355e-08
1.21958e-09
-5.78138e-08
1.17828e-09
-5.8951e-08
1.13726e-09
-6.00477e-08
1.09663e-09
-6.11041e-08
1.05647e-09
-6.2121e-08
1.01687e-09
-6.30989e-08
9.77894e-10
-6.40385e-08
9.39607e-10
-6.49405e-08
9.02054e-10
-6.58058e-08
8.65273e-10
-6.66351e-08
8.29293e-10
-6.74292e-08
7.94135e-10
-6.8189e-08
7.59811e-10
-6.89154e-08
7.26327e-10
-6.9609e-08
6.93679e-10
-7.02709e-08
6.61861e-10
-7.09018e-08
6.30856e-10
-7.15024e-08
6.00644e-10
-7.20736e-08
5.71199e-10
-7.26161e-08
5.42491e-10
-7.31306e-08
5.14485e-10
-7.36177e-08
4.8714e-10
-7.40781e-08
4.60412e-10
-7.45124e-08
4.34255e-10
-7.4921e-08
4.08618e-10
-7.53044e-08
3.83448e-10
-7.56631e-08
3.58687e-10
-7.59974e-08
3.34277e-10
-7.63075e-08
3.10155e-10
-7.65938e-08
2.86259e-10
-7.68563e-08
2.62521e-10
-7.70952e-08
2.38874e-10
-7.73104e-08
2.1525e-10
-7.7502e-08
1.91577e-10
-7.76698e-08
1.67784e-10
-7.78136e-08
1.43799e-10
-7.79331e-08
1.19547e-10
-7.80281e-08
9.49544e-11
-7.8098e-08
6.99469e-11
-7.81425e-08
4.44501e-11
-7.81609e-08
1.83896e-11
-7.81526e-08
-8.30812e-12
-7.81169e-08
-3.57163e-11
-7.8053e-08
-6.39069e-11
-7.796e-08
-9.29506e-11
-7.78371e-08
-1.22916e-10
-7.76832e-08
-1.5387e-10
-7.74973e-08
-1.85876e-10
-7.72783e-08
-2.18997e-10
-7.70251e-08
-2.53288e-10
-7.67362e-08
-2.88805e-10
-7.64107e-08
-3.25595e-10
-7.6047e-08
-3.63703e-10
-7.56438e-08
-4.03166e-10
-7.51998e-08
-4.44017e-10
-7.47135e-08
-4.86279e-10
-7.41835e-08
-5.29969e-10
-7.36084e-08
-5.75096e-10
-7.29868e-08
-6.21657e-10
-7.23171e-08
-6.69641e-10
-7.15981e-08
-7.19026e-10
-7.08283e-08
-7.69777e-10
-7.00065e-08
-8.21847e-10
-6.91313e-08
-8.75174e-10
-6.82016e-08
-9.29684e-10
-6.72163e-08
-9.85286e-10
-6.61745e-08
-1.04187e-09
-6.50752e-08
-1.09932e-09
-6.39177e-08
-1.15749e-09
-6.27015e-08
-1.21621e-09
-6.14261e-08
-1.27532e-09
-6.00915e-08
-1.3346e-09
-5.86977e-08
-1.39385e-09
-5.72449e-08
-1.45281e-09
-5.57336e-08
-1.51124e-09
-5.41648e-08
-1.56884e-09
-5.25395e-08
-1.62531e-09
-5.08592e-08
-1.68032e-09
-4.91257e-08
-1.73353e-09
-4.73411e-08
-1.78457e-09
-4.5508e-08
-1.83306e-09
-4.36295e-08
-1.87858e-09
-4.17088e-08
-1.9207e-09
-3.97498e-08
-1.95899e-09
-3.77568e-08
-1.99299e-09
-3.57346e-08
-2.02222e-09
-3.36884e-08
-2.0462e-09
-3.16239e-08
-2.06442e-09
-2.95475e-08
-2.07639e-09
-2.7466e-08
-2.08159e-09
-2.53865e-08
-2.07951e-09
-2.33168e-08
-2.06962e-09
-2.12654e-08
-2.05143e-09
-1.9241e-08
-2.02441e-09
-1.72529e-08
-1.98809e-09
-1.5311e-08
-1.94197e-09
-1.34254e-08
-1.88559e-09
-1.16068e-08
-1.81853e-09
-9.86645e-09
-1.74039e-09
-8.21563e-09
-1.65082e-09
-6.66608e-09
-1.54955e-09
-5.22972e-09
-1.43636e-09
-3.91853e-09
-1.31119e-09
-2.74443e-09
-1.1741e-09
-1.71904e-09
-1.0254e-09
-8.53305e-10
-8.65733e-10
-1.57074e-10
-6.96234e-10
3.61737e-10
-5.18818e-10
6.98377e-10
-3.36645e-10
8.53345e-10
-1.5496e-10
8.35885e-10
1.7483e-11
6.69811e-10
1.66088e-10
4.03847e-10
2.65937e-10
1.30772e-10
2.73009e-10
1.30719e-10
2.45351e-10
-3.59795e-10
6.33858e-10
-6.33804e-10
9.49835e-10
-5.60593e-10
1.04656e-09
-2.57577e-10
8.28208e-10
1.85392e-10
2.38289e-10
7.06638e-10
-7.51561e-10
1.26488e-09
-2.15036e-09
1.8328e-09
-3.95399e-09
2.39248e-09
-6.14945e-09
2.93214e-09
-8.7179e-09
3.44417e-09
-1.16366e-08
3.92374e-09
-1.48805e-08
4.36791e-09
-1.84232e-08
4.77513e-09
-2.22375e-08
5.14476e-09
-2.62964e-08
5.47686e-09
-3.0573e-08
5.772e-09
-3.50409e-08
6.0311e-09
-3.96748e-08
6.25533e-09
-4.445e-08
6.44608e-09
-4.93432e-08
6.60485e-09
-5.4332e-08
6.73326e-09
-5.93953e-08
6.83297e-09
-6.45132e-08
6.90568e-09
-6.96671e-08
6.95312e-09
-7.48395e-08
6.97699e-09
-8.00142e-08
6.97899e-09
-8.51763e-08
6.96078e-09
-9.0312e-08
6.92401e-09
-9.54088e-08
6.87024e-09
-1.00455e-07
6.80103e-09
-1.05441e-07
6.71784e-09
-1.10356e-07
6.62209e-09
-1.15193e-07
6.51515e-09
-1.19944e-07
6.39829e-09
-1.24602e-07
6.27274e-09
-1.29163e-07
6.13967e-09
-1.3362e-07
6.00015e-09
-1.37971e-07
5.85521e-09
-1.42211e-07
5.7058e-09
-1.46338e-07
5.5528e-09
-1.5035e-07
5.39705e-09
-1.54246e-07
5.23929e-09
-1.58023e-07
5.08023e-09
-1.61683e-07
4.9205e-09
-1.65224e-07
4.76068e-09
-1.68647e-07
4.60129e-09
-1.71952e-07
4.4428e-09
-1.75141e-07
4.28562e-09
-1.78215e-07
4.13012e-09
-1.81175e-07
3.97662e-09
-1.84022e-07
3.82541e-09
-1.86759e-07
3.6767e-09
-1.89388e-07
3.53071e-09
-1.9191e-07
3.38757e-09
-1.94328e-07
3.24742e-09
-1.96645e-07
3.11033e-09
-1.98861e-07
2.97637e-09
-2.0098e-07
2.84556e-09
-2.03005e-07
2.7179e-09
-2.04936e-07
2.59336e-09
-2.06777e-07
2.4719e-09
-2.0853e-07
2.35342e-09
-2.10197e-07
2.23785e-09
-2.11779e-07
2.12507e-09
-2.1328e-07
2.01494e-09
-2.147e-07
1.90732e-09
-2.16041e-07
1.80203e-09
-2.17306e-07
1.69892e-09
-2.18495e-07
1.59777e-09
-2.1961e-07
1.49838e-09
-2.20652e-07
1.40055e-09
-2.21622e-07
1.30404e-09
-2.2252e-07
1.20862e-09
-2.23348e-07
1.11404e-09
-2.24106e-07
1.02006e-09
-2.24793e-07
9.26408e-10
-2.25411e-07
8.32828e-10
-2.25958e-07
7.39047e-10
-2.26435e-07
6.44791e-10
-2.26841e-07
5.49783e-10
-2.27175e-07
4.5374e-10
-2.27437e-07
3.56381e-10
-2.27624e-07
2.57422e-10
-2.27736e-07
1.56577e-10
-2.27772e-07
5.35657e-11
-2.27728e-07
-5.1894e-11
-2.27604e-07
-1.60079e-10
-2.27396e-07
-2.71264e-10
-2.27103e-07
-3.85714e-10
-2.26723e-07
-5.03691e-10
-2.26251e-07
-6.25446e-10
-2.25686e-07
-7.51219e-10
-2.25023e-07
-8.81239e-10
-2.24261e-07
-1.01572e-09
-2.23395e-07
-1.15487e-09
-2.22422e-07
-1.29885e-09
-2.21338e-07
-1.44784e-09
-2.20139e-07
-1.60197e-09
-2.18821e-07
-1.76135e-09
-2.17382e-07
-1.92606e-09
-2.15815e-07
-2.09617e-09
-2.14119e-07
-2.27169e-09
-2.12288e-07
-2.4526e-09
-2.10319e-07
-2.63885e-09
-2.08207e-07
-2.83034e-09
-2.0595e-07
-3.02693e-09
-2.03544e-07
-3.22842e-09
-2.00984e-07
-3.43457e-09
-1.98269e-07
-3.64507e-09
-1.95395e-07
-3.85957e-09
-1.92359e-07
-4.07764e-09
-1.89159e-07
-4.2988e-09
-1.85794e-07
-4.52249e-09
-1.82263e-07
-4.74809e-09
-1.78563e-07
-4.9749e-09
-1.74695e-07
-5.20214e-09
-1.7066e-07
-5.42897e-09
-1.66459e-07
-5.65445e-09
-1.62092e-07
-5.87759e-09
-1.57564e-07
-6.09728e-09
-1.52877e-07
-6.31237e-09
-1.48036e-07
-6.5216e-09
-1.43045e-07
-6.72364e-09
-1.37913e-07
-6.9171e-09
-1.32646e-07
-7.10049e-09
-1.27252e-07
-7.27227e-09
-1.21742e-07
-7.43081e-09
-1.16126e-07
-7.57445e-09
-1.10418e-07
-7.70143e-09
-1.0463e-07
-7.80999e-09
-9.8778e-08
-7.89829e-09
-9.2878e-08
-7.96446e-09
-8.69477e-08
-8.00662e-09
-8.10065e-08
-8.02287e-09
-7.50747e-08
-8.0113e-09
-6.91743e-08
-7.97002e-09
-6.33286e-08
-7.89714e-09
-5.75621e-08
-7.79085e-09
-5.19009e-08
-7.64937e-09
-4.63718e-08
-7.47101e-09
-4.10032e-08
-7.2542e-09
-3.58243e-08
-6.99749e-09
-3.0865e-08
-6.69963e-09
-2.61563e-08
-6.3596e-09
-2.17291e-08
-5.97669e-09
-1.76149e-08
-5.55061e-09
-1.38445e-08
-5.08158e-09
-1.0448e-08
-4.57059e-09
-7.45379e-09
-4.01962e-09
-4.88744e-09
-3.43208e-09
-2.77022e-09
-2.81345e-09
-1.11684e-09
-2.17221e-09
6.78045e-11
-1.52131e-09
7.93315e-10
-8.80508e-10
1.09076e-09
-2.79986e-10
1.02256e-09
2.34333e-10
6.95263e-10
5.93316e-10
2.73146e-10
6.95207e-10
4.03811e-10
2.45762e-10
-6.05557e-10
5.63382e-10
-9.51428e-10
6.97701e-10
-6.94918e-10
4.74735e-10
-3.46144e-11
-2.25203e-10
8.85327e-10
-1.47799e-09
1.95942e-09
-3.3255e-09
3.11239e-09
-5.78428e-09
4.29158e-09
-8.85233e-09
5.46052e-09
-1.25143e-08
6.59413e-09
-1.67455e-08
7.67533e-09
-2.15145e-08
8.69277e-09
-2.67857e-08
9.63914e-09
-3.25208e-08
1.05101e-08
-3.86795e-08
1.13035e-08
-4.52215e-08
1.20188e-08
-5.21059e-08
1.26565e-08
-5.92928e-08
1.3218e-08
-6.6743e-08
1.37055e-08
-7.44186e-08
1.41217e-08
-8.22831e-08
1.44694e-08
-9.03017e-08
1.47518e-08
-9.84412e-08
1.49725e-08
-1.0667e-07
1.51348e-08
-1.1496e-07
1.52423e-08
-1.23281e-07
1.52987e-08
-1.3161e-07
1.53075e-08
-1.39921e-07
1.52722e-08
-1.48193e-07
1.51963e-08
-1.56406e-07
1.50832e-08
-1.64542e-07
1.49362e-08
-1.72582e-07
1.47584e-08
-1.80513e-07
1.4553e-08
-1.88321e-07
1.43228e-08
-1.95993e-07
1.40706e-08
-2.03519e-07
1.37992e-08
-2.10891e-07
1.35109e-08
-2.18099e-07
1.32083e-08
-2.25137e-07
1.28934e-08
-2.32e-07
1.25684e-08
-2.38682e-07
1.22353e-08
-2.45181e-07
1.18958e-08
-2.51493e-07
1.15516e-08
-2.57617e-07
1.12042e-08
-2.63552e-07
1.08551e-08
-2.69297e-07
1.05054e-08
-2.74852e-07
1.01565e-08
-2.80218e-07
9.80917e-09
-2.85397e-07
9.46451e-09
-2.9039e-07
9.12328e-09
-2.952e-07
8.78621e-09
-2.99828e-07
8.4539e-09
-3.04278e-07
8.12688e-09
-3.08553e-07
7.80559e-09
-3.12656e-07
7.49038e-09
-3.1659e-07
7.18153e-09
-3.20359e-07
6.87923e-09
-3.23966e-07
6.58362e-09
-3.27415e-07
6.29477e-09
-3.3071e-07
6.01269e-09
-3.33854e-07
5.73731e-09
-3.36851e-07
5.46855e-09
-3.39704e-07
5.20623e-09
-3.42416e-07
4.95018e-09
-3.44991e-07
4.70013e-09
-3.47432e-07
4.45582e-09
-3.49742e-07
4.21692e-09
-3.51923e-07
3.98307e-09
-3.53978e-07
3.75389e-09
-3.55909e-07
3.52896e-09
-3.57718e-07
3.30785e-09
-3.59408e-07
3.09008e-09
-3.60979e-07
2.87516e-09
-3.62433e-07
2.66258e-09
-3.63771e-07
2.45182e-09
-3.64993e-07
2.24232e-09
-3.661e-07
2.03353e-09
-3.67092e-07
1.82486e-09
-3.67969e-07
1.61574e-09
-3.68729e-07
1.40556e-09
-3.69373e-07
1.19372e-09
-3.69899e-07
9.79616e-10
-3.70305e-07
7.62627e-10
-3.7059e-07
5.4214e-10
-3.70751e-07
3.1754e-10
-3.70786e-07
8.82122e-11
-3.70691e-07
-1.4645e-10
-3.70464e-07
-3.87047e-10
-3.70101e-07
-6.34169e-10
-3.69599e-07
-8.88392e-10
-3.68952e-07
-1.15028e-09
-3.68157e-07
-1.42037e-09
-3.67209e-07
-1.69917e-09
-3.66103e-07
-1.98719e-09
-3.64834e-07
-2.28487e-09
-3.63396e-07
-2.59265e-09
-3.61784e-07
-2.9109e-09
-3.59992e-07
-3.23996e-09
-3.58014e-07
-3.58011e-09
-3.55844e-07
-3.9316e-09
-3.53475e-07
-4.29458e-09
-3.50902e-07
-4.66917e-09
-3.48119e-07
-5.05538e-09
-3.45118e-07
-5.45317e-09
-3.41894e-07
-5.8624e-09
-3.38442e-07
-6.28283e-09
-3.34755e-07
-6.71414e-09
-3.30827e-07
-7.15589e-09
-3.26654e-07
-7.60752e-09
-3.22231e-07
-8.06835e-09
-3.17553e-07
-8.5376e-09
-3.12616e-07
-9.01431e-09
-3.07418e-07
-9.49742e-09
-3.01955e-07
-9.9857e-09
-2.96225e-07
-1.04778e-08
-2.90228e-07
-1.09721e-08
-2.83963e-07
-1.1467e-08
-2.77431e-07
-1.19606e-08
-2.70635e-07
-1.24509e-08
-2.63577e-07
-1.29356e-08
-2.56262e-07
-1.34124e-08
-2.48695e-07
-1.38788e-08
-2.40885e-07
-1.4332e-08
-2.32839e-07
-1.47692e-08
-2.24569e-07
-1.51873e-08
-2.16086e-07
-1.55832e-08
-2.07405e-07
-1.59533e-08
-1.98542e-07
-1.62944e-08
-1.89513e-07
-1.66027e-08
-1.8034e-07
-1.68746e-08
-1.71044e-07
-1.71061e-08
-1.61649e-07
-1.72934e-08
-1.52181e-07
-1.74325e-08
-1.42668e-07
-1.75193e-08
-1.33141e-07
-1.75499e-08
-1.23632e-07
-1.75201e-08
-1.14176e-07
-1.74261e-08
-1.0481e-07
-1.72638e-08
-9.55713e-08
-1.70294e-08
-8.65012e-08
-1.67194e-08
-7.76419e-08
-1.63303e-08
-6.90371e-08
-1.5859e-08
-6.07319e-08
-1.53026e-08
-5.27726e-08
-1.46589e-08
-4.52061e-08
-1.39261e-08
-3.80796e-08
-1.31033e-08
-3.14399e-08
-1.21903e-08
-2.53328e-08
-1.11886e-08
-1.98022e-08
-1.01012e-08
-1.48885e-08
-8.93333e-09
-1.06271e-08
-7.69352e-09
-7.04589e-09
-6.39465e-09
-4.16232e-09
-5.05577e-09
-1.97893e-09
-3.70469e-09
-4.77693e-10
-2.38176e-09
3.8758e-10
-1.14531e-09
7.01046e-10
-7.9176e-11
5.95992e-10
6.98387e-10
2.66907e-10
1.02436e-09
6.70699e-10
1.6374e-10
-7.69297e-10
2.64712e-10
-1.0524e-09
4.42055e-11
-4.74415e-10
-6.78139e-10
6.87725e-10
-2.02907e-09
2.23625e-09
-4.09181e-09
4.02216e-09
-6.91445e-09
5.93502e-09
-1.05175e-08
7.89464e-09
-1.49003e-08
9.84328e-09
-2.00459e-08
1.17398e-08
-2.59257e-08
1.35551e-08
-3.25023e-08
1.52693e-08
-3.97321e-08
1.6869e-08
-4.75677e-08
1.83457e-08
-5.59588e-08
1.96946e-08
-6.48539e-08
2.09139e-08
-7.42013e-08
2.20038e-08
-8.39492e-08
2.29659e-08
-9.40471e-08
2.38034e-08
-1.04446e-07
2.45201e-08
-1.15097e-07
2.51207e-08
-1.25955e-07
2.56102e-08
-1.36977e-07
2.59941e-08
-1.4812e-07
2.62783e-08
-1.59347e-07
2.64686e-08
-1.70619e-07
2.65709e-08
-1.81903e-07
2.65912e-08
-1.93166e-07
2.65356e-08
-2.04379e-07
2.64097e-08
-2.15516e-07
2.62195e-08
-2.2655e-07
2.59704e-08
-2.37459e-07
2.56679e-08
-2.48224e-07
2.53172e-08
-2.58824e-07
2.49233e-08
-2.69244e-07
2.4491e-08
-2.7947e-07
2.40249e-08
-2.89488e-07
2.35293e-08
-2.99288e-07
2.30082e-08
-3.08861e-07
2.24656e-08
-3.18197e-07
2.1905e-08
-3.27292e-07
2.13299e-08
-3.36139e-07
2.07432e-08
-3.44735e-07
2.0148e-08
-3.53078e-07
1.95468e-08
-3.61165e-07
1.89421e-08
-3.68996e-07
1.83362e-08
-3.7657e-07
1.77309e-08
-3.83889e-07
1.71283e-08
-3.90955e-07
1.65298e-08
-3.97768e-07
1.5937e-08
-4.04333e-07
1.5351e-08
-4.10652e-07
1.47729e-08
-4.16729e-07
1.42037e-08
-4.22567e-07
1.36441e-08
-4.28172e-07
1.30949e-08
-4.33547e-07
1.25564e-08
-4.38697e-07
1.2029e-08
-4.43626e-07
1.1513e-08
-4.4834e-07
1.10085e-08
-4.52842e-07
1.05155e-08
-4.57139e-07
1.0034e-08
-4.61234e-07
9.56379e-09
-4.65133e-07
9.1046e-09
-4.68839e-07
8.65612e-09
-4.72356e-07
8.21793e-09
-4.7569e-07
7.78955e-09
-4.78844e-07
7.37043e-09
-4.81821e-07
6.95997e-09
-4.84624e-07
6.55751e-09
-4.87258e-07
6.16233e-09
-4.89723e-07
5.77368e-09
-4.92024e-07
5.39075e-09
-4.94162e-07
5.01271e-09
-4.96138e-07
4.63866e-09
-4.97954e-07
4.26771e-09
-4.9961e-07
3.8989e-09
-5.01108e-07
3.53128e-09
-5.02447e-07
3.16384e-09
-5.03627e-07
2.79559e-09
-5.04647e-07
2.42548e-09
-5.05505e-07
2.0525e-09
-5.06201e-07
1.67557e-09
-5.06732e-07
1.29366e-09
-5.07096e-07
9.05696e-10
-5.07289e-07
5.10624e-10
-5.07308e-07
1.07392e-10
-5.0715e-07
-3.05043e-10
-5.06809e-07
-7.27709e-10
-5.06282e-07
-1.16162e-09
-5.05562e-07
-1.60776e-09
-5.04645e-07
-2.06708e-09
-5.03525e-07
-2.54051e-09
-5.02195e-07
-3.02893e-09
-5.00649e-07
-3.53318e-09
-4.9888e-07
-4.05402e-09
-4.96881e-07
-4.59217e-09
-4.94643e-07
-5.14829e-09
-4.9216e-07
-5.72292e-09
-4.89424e-07
-6.31655e-09
-4.86426e-07
-6.92956e-09
-4.83158e-07
-7.56222e-09
-4.79613e-07
-8.21469e-09
-4.75781e-07
-8.88698e-09
-4.71655e-07
-9.579e-09
-4.67227e-07
-1.02905e-08
-4.62489e-07
-1.1021e-08
-4.57434e-07
-1.17699e-08
-4.52053e-07
-1.25365e-08
-4.46341e-07
-1.33197e-08
-4.40291e-07
-1.41185e-08
-4.33897e-07
-1.49313e-08
-4.27155e-07
-1.57565e-08
-4.2006e-07
-1.65924e-08
-4.12609e-07
-1.74366e-08
-4.048e-07
-1.82869e-08
-3.96631e-07
-1.91405e-08
-3.88104e-07
-1.99945e-08
-3.79219e-07
-2.08458e-08
-3.69979e-07
-2.16908e-08
-3.60389e-07
-2.25256e-08
-3.50455e-07
-2.33463e-08
-3.40185e-07
-2.41483e-08
-3.2959e-07
-2.49272e-08
-3.18682e-07
-2.56778e-08
-3.07474e-07
-2.63949e-08
-2.95984e-07
-2.70732e-08
-2.84231e-07
-2.77068e-08
-2.72235e-07
-2.82898e-08
-2.60022e-07
-2.88159e-08
-2.47618e-07
-2.92789e-08
-2.35052e-07
-2.96721e-08
-2.22356e-07
-2.9989e-08
-2.09566e-07
-3.02228e-08
-1.96719e-07
-3.03666e-08
-1.83855e-07
-3.04137e-08
-1.71018e-07
-3.03572e-08
-1.58253e-07
-3.01906e-08
-1.4561e-07
-2.99072e-08
-1.33138e-07
-2.95008e-08
-1.20892e-07
-2.89655e-08
-1.08927e-07
-2.82956e-08
-9.72998e-08
-2.74863e-08
-8.60691e-08
-2.65333e-08
-7.5295e-08
-2.5433e-08
-6.50378e-08
-2.41833e-08
-5.53579e-08
-2.27831e-08
-4.63148e-08
-2.12335e-08
-3.79659e-08
-1.95375e-08
-3.03657e-08
-1.77015e-08
-2.35634e-08
-1.57356e-08
-1.76014e-08
-1.36555e-08
-1.25122e-08
-1.14839e-08
-8.31483e-09
-9.25317e-09
-5.01029e-09
-7.00921e-09
-2.57601e-09
-4.81602e-09
-9.58748e-10
-2.76259e-09
-6.61029e-11
-9.71873e-10
2.42879e-10
3.89368e-10
1.68986e-10
1.09829e-09
8.39695e-10
3.77395e-11
-8.07039e-10
-1.74185e-10
-8.4048e-10
-8.70559e-10
2.21957e-10
-2.22144e-09
2.03861e-09
-4.34862e-09
4.36342e-09
-7.3336e-09
7.00714e-09
-1.12243e-08
9.82577e-09
-1.60414e-08
1.27117e-08
-2.17833e-08
1.55851e-08
-2.84311e-08
1.83877e-08
-3.59528e-08
2.10768e-08
-4.43061e-08
2.36226e-08
-5.34413e-08
2.60042e-08
-6.33036e-08
2.82079e-08
-7.38346e-08
3.02257e-08
-8.49742e-08
3.20535e-08
-9.66611e-08
3.36907e-08
-1.08834e-07
3.5139e-08
-1.21433e-07
3.64022e-08
-1.34398e-07
3.74855e-08
-1.47673e-07
3.83953e-08
-1.61202e-07
3.91387e-08
-1.74931e-07
3.97236e-08
-1.88811e-07
4.01583e-08
-2.02794e-07
4.04513e-08
-2.16834e-07
4.06115e-08
-2.30891e-07
4.06476e-08
-2.44924e-07
4.05684e-08
-2.58897e-07
4.03827e-08
-2.72776e-07
4.00989e-08
-2.86531e-07
3.97255e-08
-3.00134e-07
3.92706e-08
-3.13559e-07
3.8742e-08
-3.26783e-07
3.81472e-08
-3.39785e-07
3.74936e-08
-3.52548e-07
3.67879e-08
-3.65056e-07
3.60368e-08
-3.77294e-07
3.52465e-08
-3.89251e-07
3.44227e-08
-4.00917e-07
3.3571e-08
-4.12284e-07
3.26964e-08
-4.23344e-07
3.18038e-08
-4.34094e-07
3.08975e-08
-4.44528e-07
2.99816e-08
-4.54646e-07
2.90599e-08
-4.64446e-07
2.81356e-08
-4.73927e-07
2.7212e-08
-4.8309e-07
2.62918e-08
-4.91938e-07
2.53775e-08
-5.00472e-07
2.44713e-08
-5.08696e-07
2.35751e-08
-5.16614e-07
2.26906e-08
-5.2423e-07
2.18192e-08
-5.31548e-07
2.09621e-08
-5.38573e-07
2.01204e-08
-5.45312e-07
1.92948e-08
-5.51768e-07
1.84858e-08
-5.57949e-07
1.76938e-08
-5.6386e-07
1.69192e-08
-5.69506e-07
1.61618e-08
-5.74894e-07
1.54217e-08
-5.80029e-07
1.46986e-08
-5.84916e-07
1.39921e-08
-5.89562e-07
1.33018e-08
-5.93971e-07
1.26269e-08
-5.98148e-07
1.19669e-08
-6.02099e-07
1.13208e-08
-6.05826e-07
1.06878e-08
-6.09336e-07
1.00668e-08
-6.1263e-07
9.45689e-09
-6.15713e-07
8.85678e-09
-6.18588e-07
8.26531e-09
-6.21256e-07
7.68119e-09
-6.23721e-07
7.10309e-09
-6.25983e-07
6.52963e-09
-6.28043e-07
5.9594e-09
-6.29903e-07
5.39091e-09
-6.31562e-07
4.82268e-09
-6.33019e-07
4.25317e-09
-6.34275e-07
3.68082e-09
-6.35326e-07
3.10406e-09
-6.36172e-07
2.52131e-09
-6.36809e-07
1.93096e-09
-6.37235e-07
1.33141e-09
-6.37445e-07
7.21068e-10
-6.37436e-07
9.83362e-11
-6.37203e-07
-5.38358e-10
-6.3674e-07
-1.19057e-09
-6.36042e-07
-1.85982e-09
-6.35102e-07
-2.54759e-09
-6.33914e-07
-3.25533e-09
-6.3247e-07
-3.98443e-09
-6.30763e-07
-4.73619e-09
-6.28784e-07
-5.51188e-09
-6.26525e-07
-6.31264e-09
-6.23978e-07
-7.13955e-09
-6.21133e-07
-7.99357e-09
-6.1798e-07
-8.87552e-09
-6.14511e-07
-9.7861e-09
-6.10714e-07
-1.07259e-08
-6.06581e-07
-1.16952e-08
-6.02102e-07
-1.26943e-08
-5.97265e-07
-1.37232e-08
-5.92063e-07
-1.47817e-08
-5.86484e-07
-1.58694e-08
-5.80519e-07
-1.69855e-08
-5.7416e-07
-1.81292e-08
-5.67397e-07
-1.92992e-08
-5.60223e-07
-2.0494e-08
-5.5263e-07
-2.17118e-08
-5.44611e-07
-2.29503e-08
-5.3616e-07
-2.42072e-08
-5.27273e-07
-2.54795e-08
-5.17946e-07
-2.67639e-08
-5.08176e-07
-2.80568e-08
-4.97962e-07
-2.93542e-08
-4.87305e-07
-3.06514e-08
-4.76207e-07
-3.19438e-08
-4.64672e-07
-3.32258e-08
-4.52706e-07
-3.44918e-08
-4.40317e-07
-3.57355e-08
-4.27515e-07
-3.69503e-08
-4.14313e-07
-3.81292e-08
-4.00726e-07
-3.92646e-08
-3.86772e-07
-4.03486e-08
-3.72472e-07
-4.1373e-08
-3.5785e-07
-4.2329e-08
-3.42932e-07
-4.32078e-08
-3.27748e-07
-4.40001e-08
-3.12331e-07
-4.46962e-08
-2.96716e-07
-4.52863e-08
-2.80945e-07
-4.57606e-08
-2.65059e-07
-4.61089e-08
-2.49104e-07
-4.6321e-08
-2.33131e-07
-4.6387e-08
-2.17192e-07
-4.62966e-08
-2.01342e-07
-4.60401e-08
-1.85641e-07
-4.5608e-08
-1.70151e-07
-4.49911e-08
-1.54936e-07
-4.41808e-08
-1.40062e-07
-4.31692e-08
-1.25599e-07
-4.19493e-08
-1.11617e-07
-4.05154e-08
-9.81872e-08
-3.88629e-08
-8.53812e-08
-3.69892e-08
-7.32704e-08
-3.48939e-08
-6.19245e-08
-3.25794e-08
-5.14103e-08
-3.00517e-08
-4.17906e-08
-2.73212e-08
-3.31219e-08
-2.44044e-08
-2.54518e-08
-2.13255e-08
-1.88169e-08
-1.81188e-08
-1.32383e-08
-1.48318e-08
-8.71772e-09
-1.15298e-08
-5.23251e-09
-8.30121e-09
-2.7294e-09
-5.26568e-09
-1.11794e-09
-2.58335e-09
-2.63135e-10
-4.65482e-10
2.32416e-11
8.11896e-10
8.62952e-10
-1.10605e-10
-6.96438e-10
-6.94001e-10
-2.57087e-10
-1.94601e-09
1.47396e-09
-4.01444e-09
4.10703e-09
-7.00708e-09
7.35606e-09
-1.09967e-08
1.09968e-08
-1.60257e-08
1.48548e-08
-2.21109e-08
1.87968e-08
-2.92475e-08
2.27218e-08
-3.74135e-08
2.65536e-08
-4.65729e-08
3.02362e-08
-5.66788e-08
3.37285e-08
-6.76763e-08
3.70017e-08
-7.95044e-08
4.00361e-08
-9.20982e-08
4.28194e-08
-1.0539e-07
4.53452e-08
-1.1931e-07
4.76113e-08
-1.33791e-07
4.96194e-08
-1.48762e-07
5.13736e-08
-1.64157e-07
5.28804e-08
-1.7991e-07
5.41479e-08
-1.95956e-07
5.51855e-08
-2.12236e-07
5.60036e-08
-2.28691e-07
5.66132e-08
-2.45266e-07
5.70259e-08
-2.61908e-07
5.72535e-08
-2.78569e-07
5.73081e-08
-2.95202e-07
5.72015e-08
-3.11765e-07
5.69459e-08
-3.28219e-07
5.65529e-08
-3.44527e-07
5.60341e-08
-3.60658e-07
5.54007e-08
-3.76579e-07
5.46637e-08
-3.92265e-07
5.38334e-08
-4.07692e-07
5.292e-08
-4.22837e-07
5.1933e-08
-4.37682e-07
5.08817e-08
-4.5221e-07
4.97746e-08
-4.66407e-07
4.86199e-08
-4.80261e-07
4.74253e-08
-4.93763e-07
4.6198e-08
-5.06904e-07
4.49446e-08
-5.19678e-07
4.36714e-08
-5.3208e-07
4.2384e-08
-5.44108e-07
4.10878e-08
-5.5576e-07
3.97874e-08
-5.67035e-07
3.84873e-08
-5.77935e-07
3.71914e-08
-5.8846e-07
3.59032e-08
-5.98615e-07
3.46258e-08
-6.08402e-07
3.3362e-08
-6.17825e-07
3.21141e-08
-6.2689e-07
3.08842e-08
-6.35602e-07
2.9674e-08
-6.43967e-07
2.84849e-08
-6.5199e-07
2.7318e-08
-6.59678e-07
2.61741e-08
-6.67038e-07
2.50539e-08
-6.74077e-07
2.39576e-08
-6.808e-07
2.28854e-08
-6.87216e-07
2.18371e-08
-6.93329e-07
2.08124e-08
-6.99148e-07
1.98108e-08
-7.04678e-07
1.88317e-08
-7.09925e-07
1.78741e-08
-7.14895e-07
1.69372e-08
-7.19594e-07
1.60197e-08
-7.24027e-07
1.51204e-08
-7.28198e-07
1.42379e-08
-7.32112e-07
1.33708e-08
-7.35772e-07
1.25173e-08
-7.39183e-07
1.16759e-08
-7.42346e-07
1.08446e-08
-7.45265e-07
1.00218e-08
-7.47941e-07
9.20543e-09
-7.50375e-07
8.3935e-09
-7.52568e-07
7.58397e-09
-7.5452e-07
6.77476e-09
-7.56231e-07
5.96372e-09
-7.57699e-07
5.14868e-09
-7.58922e-07
4.32744e-09
-7.59898e-07
3.49779e-09
-7.60625e-07
2.65748e-09
-7.61098e-07
1.80428e-09
-7.61313e-07
9.35976e-10
-7.61265e-07
5.03351e-11
-7.60948e-07
-8.54834e-10
-7.60357e-07
-1.78169e-09
-7.59485e-07
-2.73236e-09
-7.58323e-07
-3.70891e-09
-7.56865e-07
-4.71333e-09
-7.55102e-07
-5.74755e-09
-7.53025e-07
-6.8134e-09
-7.50624e-07
-7.9126e-09
-7.4789e-07
-9.04675e-09
-7.44812e-07
-1.02173e-08
-7.4138e-07
-1.14256e-08
-7.37583e-07
-1.26728e-08
-7.33409e-07
-1.39598e-08
-7.28848e-07
-1.52874e-08
-7.23887e-07
-1.6656e-08
-7.18515e-07
-1.80659e-08
-7.12721e-07
-1.95172e-08
-7.06494e-07
-2.10094e-08
-6.99821e-07
-2.2542e-08
-6.92693e-07
-2.4114e-08
-6.85098e-07
-2.57239e-08
-6.77027e-07
-2.73702e-08
-6.6847e-07
-2.90505e-08
-6.5942e-07
-3.07623e-08
-6.49867e-07
-3.25026e-08
-6.39807e-07
-3.42678e-08
-6.29233e-07
-3.60538e-08
-6.18141e-07
-3.7856e-08
-6.06528e-07
-3.96693e-08
-5.94394e-07
-4.1488e-08
-5.8174e-07
-4.33058e-08
-5.68568e-07
-4.51158e-08
-5.54883e-07
-4.69106e-08
-5.40693e-07
-4.86821e-08
-5.26007e-07
-5.04216e-08
-5.10837e-07
-5.21198e-08
-4.95199e-07
-5.37669e-08
-4.79111e-07
-5.53525e-08
-4.62595e-07
-5.68655e-08
-4.45673e-07
-5.82944e-08
-4.28375e-07
-5.96273e-08
-4.10731e-07
-6.08515e-08
-3.92777e-07
-6.19542e-08
-3.74551e-07
-6.29223e-08
-3.56095e-07
-6.37421e-08
-3.37456e-07
-6.43998e-08
-3.18683e-07
-6.48816e-08
-2.99831e-07
-6.51736e-08
-2.80956e-07
-6.52618e-08
-2.6212e-07
-6.51326e-08
-2.43387e-07
-6.47726e-08
-2.24827e-07
-6.41688e-08
-2.06509e-07
-6.33089e-08
-1.88508e-07
-6.21814e-08
-1.70901e-07
-6.07761e-08
-1.53767e-07
-5.90838e-08
-1.37185e-07
-5.70971e-08
-1.21237e-07
-5.48108e-08
-1.06005e-07
-5.22221e-08
-9.1567e-08
-4.93315e-08
-7.80031e-08
-4.61433e-08
-6.53876e-08
-4.26672e-08
-5.37902e-08
-3.89186e-08
-4.32734e-08
-3.49211e-08
-3.38903e-08
-3.07087e-08
-2.56814e-08
-2.63277e-08
-1.86714e-08
-2.18418e-08
-1.28657e-08
-1.73355e-08
-8.24555e-09
-1.29214e-08
-4.76376e-09
-8.74744e-09
-2.33976e-09
-5.00733e-09
-8.54591e-10
-1.95067e-09
-1.45849e-10
1.03128e-10
7.17106e-10
-2.68846e-10
-4.27594e-10
-1.25595e-09
7.30014e-10
-3.112e-09
3.33001e-09
-5.95527e-09
6.9503e-09
-9.87319e-09
1.1274e-08
-1.49244e-08
1.60479e-08
-2.11413e-08
2.10717e-08
-2.85335e-08
2.6189e-08
-3.70905e-08
3.12788e-08
-4.67855e-08
3.62486e-08
-5.75775e-08
4.10283e-08
-6.94152e-08
4.55662e-08
-8.22383e-08
4.98248e-08
-9.59804e-08
5.37781e-08
-1.1057e-07
5.74094e-08
-1.25934e-07
6.07091e-08
-1.41996e-07
6.36735e-08
-1.58681e-07
6.63036e-08
-1.75911e-07
6.86041e-08
-1.93613e-07
7.05825e-08
-2.11714e-07
7.22486e-08
-2.30142e-07
7.3614e-08
-2.48831e-07
7.46919e-08
-2.67714e-07
7.54962e-08
-2.86729e-07
7.60416e-08
-3.05819e-07
7.63433e-08
-3.24928e-07
7.64168e-08
-3.44004e-07
7.62777e-08
-3.63e-07
7.59414e-08
-3.8187e-07
7.54233e-08
-4.00574e-07
7.47384e-08
-4.19075e-07
7.39015e-08
-4.37338e-07
7.29268e-08
-4.55333e-07
7.18281e-08
-4.73031e-07
7.06186e-08
-4.90409e-07
6.93109e-08
-5.07445e-07
6.79172e-08
-5.24119e-07
6.64489e-08
-5.40416e-07
6.49167e-08
-5.56322e-07
6.33308e-08
-5.71824e-07
6.17008e-08
-5.86915e-07
6.00354e-08
-6.01587e-07
5.8343e-08
-6.15834e-07
5.6631e-08
-6.29652e-07
5.49065e-08
-6.43041e-07
5.31759e-08
-6.55998e-07
5.1445e-08
-6.68526e-07
4.97189e-08
-6.80625e-07
4.80025e-08
-6.92299e-07
4.62998e-08
-7.03552e-07
4.46145e-08
-7.14387e-07
4.29499e-08
-7.24812e-07
4.13087e-08
-7.34831e-07
3.96931e-08
-7.44451e-07
3.8105e-08
-7.53679e-07
3.65461e-08
-7.62522e-07
3.50173e-08
-7.70988e-07
3.35195e-08
-7.79084e-07
3.20532e-08
-7.86817e-07
3.06184e-08
-7.94195e-07
2.92152e-08
-8.01225e-07
2.7843e-08
-8.07916e-07
2.65013e-08
-8.14273e-07
2.51891e-08
-8.20304e-07
2.39053e-08
-8.26016e-07
2.26487e-08
-8.31414e-07
2.14177e-08
-8.36504e-07
2.02108e-08
-8.41292e-07
1.90259e-08
-8.45783e-07
1.78613e-08
-8.4998e-07
1.67148e-08
-8.53888e-07
1.55841e-08
-8.57511e-07
1.44668e-08
-8.60849e-07
1.33606e-08
-8.63907e-07
1.22629e-08
-8.66685e-07
1.11711e-08
-8.69183e-07
1.00823e-08
-8.71402e-07
8.994e-09
-8.73342e-07
7.9032e-09
-8.75e-07
6.80707e-09
-8.76375e-07
5.70272e-09
-8.77465e-07
4.5872e-09
-8.78265e-07
3.45758e-09
-8.78771e-07
2.31091e-09
-8.7898e-07
1.14423e-09
-8.78884e-07
-4.53723e-11
-8.78478e-07
-1.26079e-09
-8.77755e-07
-2.50487e-09
-8.76707e-07
-3.7804e-09
-8.75326e-07
-5.09011e-09
-8.73602e-07
-6.43662e-09
-8.71527e-07
-7.82245e-09
-8.69091e-07
-9.25e-09
-8.66282e-07
-1.07215e-08
-8.63089e-07
-1.22391e-08
-8.59502e-07
-1.38047e-08
-8.55508e-07
-1.542e-08
-8.51094e-07
-1.70865e-08
-8.46248e-07
-1.88053e-08
-8.40958e-07
-2.05775e-08
-8.35211e-07
-2.24037e-08
-8.28993e-07
-2.42841e-08
-8.22291e-07
-2.62187e-08
-8.15093e-07
-2.8207e-08
-8.07387e-07
-3.02483e-08
-7.9916e-07
-3.2341e-08
-7.90401e-07
-3.44834e-08
-7.81098e-07
-3.66732e-08
-7.71241e-07
-3.89074e-08
-7.60821e-07
-4.11825e-08
-7.49829e-07
-4.34945e-08
-7.38258e-07
-4.58387e-08
-7.26102e-07
-4.82096e-08
-7.13357e-07
-5.06011e-08
-7.0002e-07
-5.30063e-08
-6.8609e-07
-5.54179e-08
-6.71569e-07
-5.78273e-08
-6.56459e-07
-6.02255e-08
-6.40767e-07
-6.26027e-08
-6.24501e-07
-6.49481e-08
-6.07672e-07
-6.72503e-08
-5.90295e-07
-6.94971e-08
-5.72387e-07
-7.16754e-08
-5.53968e-07
-7.37715e-08
-5.35062e-07
-7.5771e-08
-5.15698e-07
-7.76586e-08
-4.95907e-07
-7.94185e-08
-4.75724e-07
-8.10344e-08
-4.55189e-07
-8.24894e-08
-4.34345e-07
-8.3766e-08
-4.1324e-07
-8.48466e-08
-3.91927e-07
-8.57132e-08
-3.70461e-07
-8.63476e-08
-3.48903e-07
-8.67318e-08
-3.27317e-07
-8.68477e-08
-3.05772e-07
-8.66776e-08
-2.8434e-07
-8.62042e-08
-2.63098e-07
-8.54108e-08
-2.42125e-07
-8.42819e-08
-2.21504e-07
-8.28029e-08
-2.01319e-07
-8.09607e-08
-1.81659e-07
-7.87443e-08
-1.62611e-07
-7.61448e-08
-1.44266e-07
-7.31561e-08
-1.26712e-07
-6.97757e-08
-1.10038e-07
-6.60053e-08
-9.43299e-08
-6.18517e-08
-7.96688e-08
-5.73283e-08
-6.6131e-08
-5.24564e-08
-5.37848e-08
-4.72673e-08
-4.26886e-08
-4.18048e-08
-3.28882e-08
-3.61281e-08
-2.44138e-08
-3.03162e-08
-1.72767e-08
-2.44726e-08
-1.14663e-08
-1.87318e-08
-6.94638e-09
-1.32674e-08
-3.65215e-09
-8.30154e-09
-1.48771e-09
-4.11511e-09
-3.24321e-10
-1.06027e-09
3.92781e-10
-4.29725e-10
2.12904e-12
-1.83518e-09
2.13546e-09
-4.32092e-09
5.81575e-09
-7.97206e-09
1.06014e-08
-1.28516e-08
1.61535e-08
-1.90001e-08
2.21964e-08
-2.64367e-08
2.85083e-08
-3.51606e-08
3.49129e-08
-4.51534e-08
4.12717e-08
-5.63817e-08
4.74768e-08
-6.87988e-08
5.34454e-08
-8.23478e-08
5.91151e-08
-9.69631e-08
6.44401e-08
-1.12573e-07
6.93879e-08
-1.29101e-07
7.3937e-08
-1.46466e-07
7.80748e-08
-1.64588e-07
8.17957e-08
-1.83385e-07
8.51e-08
-2.02773e-07
8.79926e-08
-2.22673e-07
9.0482e-08
-2.43004e-07
9.258e-08
-2.63691e-07
9.43004e-08
-2.84658e-07
9.56589e-08
-3.05834e-07
9.66726e-08
-3.27152e-07
9.73597e-08
-3.48547e-07
9.77388e-08
-3.6996e-07
9.78292e-08
-3.91332e-07
9.76502e-08
-4.12612e-07
9.72212e-08
-4.3375e-07
9.65613e-08
-4.54701e-07
9.56895e-08
-4.75424e-07
9.46242e-08
-4.95881e-07
9.33834e-08
-5.16037e-07
9.19844e-08
-5.35863e-07
9.0444e-08
-5.5533e-07
8.87781e-08
-5.74415e-07
8.7002e-08
-5.93096e-07
8.51303e-08
-6.11356e-07
8.31766e-08
-6.29179e-07
8.11538e-08
-6.46552e-07
7.90739e-08
-6.63465e-07
7.69484e-08
-6.7991e-07
7.47876e-08
-6.9588e-07
7.26012e-08
-7.11371e-07
7.03981e-08
-7.26382e-07
6.81865e-08
-7.40911e-07
6.59737e-08