/*--------------------------------*- C++ -*----------------------------------*\
  =========                 |
  \\      /  F ield         | OpenFOAM: The Open Source CFD Toolbox
   \\    /   O peration     | Website:  https://openfoam.org
    \\  /    A nd           | Version:  7
     \\/     M anipulation  |
\*---------------------------------------------------------------------------*/
FoamFile
{
    version     2.0;
    format      ascii;
    class       volVectorField;
    location    "0.25";
    object      U;
}
// * * * * * * * * * * * * * * * * * * * * * * * * * * * * * * * * * * * * * //

dimensions      [0 1 -1 0 0 0 0];

internalField   nonuniform List<vector> 
12800
(
(8.31446e-06 -8.33338e-06 0)
(3.70708e-05 -1.85409e-05 0)
(7.85268e-05 -1.97138e-05 0)
(0.000113244 -1.53548e-05 0)
(0.000129989 -8.3118e-06 0)
(0.000123876 -1.38857e-07 0)
(9.27614e-05 8.34365e-06 0)
(3.60321e-05 1.66958e-05 0)
(-4.59552e-05 2.46848e-05 0)
(-0.000152253 3.21911e-05 0)
(-0.000281561 3.91553e-05 0)
(-0.000432374 4.55522e-05 0)
(-0.00060307 5.13767e-05 0)
(-0.000791971 5.66351e-05 0)
(-0.000997385 6.13416e-05 0)
(-0.00121764 6.55149e-05 0)
(-0.00145109 6.91766e-05 0)
(-0.00169613 7.23503e-05 0)
(-0.00195125 7.50608e-05 0)
(-0.00221497 7.73333e-05 0)
(-0.00248588 7.91934e-05 0)
(-0.00276267 8.06667e-05 0)
(-0.00304408 8.17785e-05 0)
(-0.00332894 8.25536e-05 0)
(-0.00361615 8.30164e-05 0)
(-0.00390469 8.31907e-05 0)
(-0.00419361 8.30996e-05 0)
(-0.00448204 8.27652e-05 0)
(-0.00476917 8.2209e-05 0)
(-0.00505427 8.14516e-05 0)
(-0.00533667 8.05128e-05 0)
(-0.00561577 7.94112e-05 0)
(-0.00589102 7.81648e-05 0)
(-0.00616193 7.67904e-05 0)
(-0.00642809 7.53041e-05 0)
(-0.00668911 7.37208e-05 0)
(-0.00694466 7.20547e-05 0)
(-0.00719447 7.03189e-05 0)
(-0.0074383 6.85258e-05 0)
(-0.00767595 6.66868e-05 0)
(-0.00790727 6.48124e-05 0)
(-0.00813214 6.29124e-05 0)
(-0.00835046 6.09956e-05 0)
(-0.00856218 5.90702e-05 0)
(-0.00876727 5.71437e-05 0)
(-0.00896572 5.52225e-05 0)
(-0.00915754 5.33129e-05 0)
(-0.00934277 5.14199e-05 0)
(-0.00952147 4.95485e-05 0)
(-0.0096937 4.77026e-05 0)
(-0.00985954 4.58858e-05 0)
(-0.0100191 4.41012e-05 0)
(-0.0101725 4.23511e-05 0)
(-0.0103198 4.06378e-05 0)
(-0.0104611 3.89627e-05 0)
(-0.0105967 3.73271e-05 0)
(-0.0107265 3.57316e-05 0)
(-0.0108508 3.41768e-05 0)
(-0.0109697 3.26628e-05 0)
(-0.0110832 3.11893e-05 0)
(-0.0111916 2.97557e-05 0)
(-0.011295 2.83612e-05 0)
(-0.0113935 2.70049e-05 0)
(-0.0114872 2.56853e-05 0)
(-0.0115763 2.4401e-05 0)
(-0.0116608 2.31503e-05 0)
(-0.0117409 2.19311e-05 0)
(-0.0118167 2.07415e-05 0)
(-0.0118883 1.95791e-05 0)
(-0.0119557 1.84416e-05 0)
(-0.012019 1.73263e-05 0)
(-0.0120784 1.62307e-05 0)
(-0.0121338 1.51519e-05 0)
(-0.0121853 1.4087e-05 0)
(-0.0122331 1.3033e-05 0)
(-0.0122769 1.19868e-05 0)
(-0.0123171 1.09453e-05 0)
(-0.0123534 9.90513e-06 0)
(-0.0123859 8.86302e-06 0)
(-0.0124147 7.81562e-06 0)
(-0.0124396 6.7595e-06 0)
(-0.0124607 5.6912e-06 0)
(-0.0124779 4.60722e-06 0)
(-0.0124911 3.50405e-06 0)
(-0.0125003 2.37817e-06 0)
(-0.0125053 1.22609e-06 0)
(-0.0125061 4.42959e-08 0)
(-0.0125027 -1.17068e-06 0)
(-0.0124947 -2.42227e-06 0)
(-0.0124822 -3.71385e-06 0)
(-0.012465 -5.04872e-06 0)
(-0.0124429 -6.43009e-06 0)
(-0.0124157 -7.86106e-06 0)
(-0.0123834 -9.34462e-06 0)
(-0.0123456 -1.08836e-05 0)
(-0.0123023 -1.24806e-05 0)
(-0.0122532 -1.41381e-05 0)
(-0.0121981 -1.58583e-05 0)
(-0.0121368 -1.76431e-05 0)
(-0.0120691 -1.94943e-05 0)
(-0.0119947 -2.14131e-05 0)
(-0.0119135 -2.34006e-05 0)
(-0.0118251 -2.54574e-05 0)
(-0.0117295 -2.75836e-05 0)
(-0.0116262 -2.97789e-05 0)
(-0.0115152 -3.20426e-05 0)
(-0.0113961 -3.43732e-05 0)
(-0.0112688 -3.67689e-05 0)
(-0.0111331 -3.9227e-05 0)
(-0.0109888 -4.17443e-05 0)
(-0.0108356 -4.43168e-05 0)
(-0.0106735 -4.69398e-05 0)
(-0.0105022 -4.96077e-05 0)
(-0.0103217 -5.23142e-05 0)
(-0.0101318 -5.5052e-05 0)
(-0.0099325 -5.7813e-05 0)
(-0.00972371 -6.05879e-05 0)
(-0.00950542 -6.33667e-05 0)
(-0.00927767 -6.61383e-05 0)
(-0.00904052 -6.88906e-05 0)
(-0.00879407 -7.16103e-05 0)
(-0.00853849 -7.42834e-05 0)
(-0.00827397 -7.68944e-05 0)
(-0.00800079 -7.94272e-05 0)
(-0.00771925 -8.18643e-05 0)
(-0.00742973 -8.41875e-05 0)
(-0.00713267 -8.63773e-05 0)
(-0.00682859 -8.84136e-05 0)
(-0.00651805 -9.0275e-05 0)
(-0.00620172 -9.19397e-05 0)
(-0.00588031 -9.33848e-05 0)
(-0.00555462 -9.45867e-05 0)
(-0.00522554 -9.55214e-05 0)
(-0.00489402 -9.61639e-05 0)
(-0.00456111 -9.64891e-05 0)
(-0.00422793 -9.64715e-05 0)
(-0.00389569 -9.60852e-05 0)
(-0.00356568 -9.53041e-05 0)
(-0.00323927 -9.41022e-05 0)
(-0.0029179 -9.24536e-05 0)
(-0.00260312 -9.03324e-05 0)
(-0.00229652 -8.77133e-05 0)
(-0.00199978 -8.45712e-05 0)
(-0.00171464 -8.0882e-05 0)
(-0.00144291 -7.66228e-05 0)
(-0.00118644 -7.17721e-05 0)
(-0.000947128 -6.63105e-05 0)
(-0.000726888 -6.0222e-05 0)
(-0.000527642 -5.34947e-05 0)
(-0.000351285 -4.61249e-05 0)
(-0.00019964 -3.81206e-05 0)
(-7.43957e-05 -2.95103e-05 0)
(2.2988e-05 -2.03577e-05 0)
(9.14373e-05 -1.0791e-05 0)
(0.000130523 -1.0608e-06 0)
(0.00014088 8.35309e-06 0)
(0.000124823 1.65464e-05 0)
(8.77153e-05 2.17872e-05 0)
(4.20453e-05 2.08566e-05 0)
(9.6346e-06 9.62996e-06 0)
(1.85471e-05 -3.71028e-05 0)
(7.03446e-05 -7.0306e-05 0)
(0.000132046 -6.77608e-05 0)
(0.000170152 -4.20904e-05 0)
(0.000163378 -3.15427e-06 0)
(0.000100291 4.2715e-05 0)
(-2.53721e-05 9.15496e-05 0)
(-0.00021635 0.000140868 0)
(-0.000472853 0.000189125 0)
(-0.000793377 0.000235359 0)
(-0.00117528 0.000278978 0)
(-0.00161516 0.000319628 0)
(-0.00210916 0.000357112 0)
(-0.00265312 0.000391341 0)
(-0.00324273 0.000422297 0)
(-0.00387364 0.000450016 0)
(-0.00454151 0.00047457 0)
(-0.00524208 0.000496054 0)
(-0.0059712 0.000514586 0)
(-0.00672487 0.000530295 0)
(-0.00749924 0.000543317 0)
(-0.00829065 0.000553796 0)
(-0.00909563 0.000561881 0)
(-0.00991089 0.000567717 0)
(-0.0107333 0.000571455 0)
(-0.0115601 0.00057324 0)
(-0.0123885 0.000573218 0)
(-0.013216 0.000571529 0)
(-0.0140403 0.000568312 0)
(-0.0148594 0.000563699 0)
(-0.0156713 0.000557821 0)
(-0.0164742 0.000550799 0)
(-0.0172667 0.000542754 0)
(-0.0180471 0.000533796 0)
(-0.0188144 0.000524034 0)
(-0.0195674 0.00051357 0)
(-0.0203051 0.000502498 0)
(-0.0210267 0.000490909 0)
(-0.0217315 0.000478886 0)
(-0.0224189 0.000466509 0)
(-0.0230884 0.00045385 0)
(-0.0237396 0.000440977 0)
(-0.0243723 0.000427951 0)
(-0.0249862 0.00041483 0)
(-0.0255812 0.000401666 0)
(-0.0261572 0.000388506 0)
(-0.0267143 0.000375392 0)
(-0.0272526 0.000362362 0)
(-0.0277721 0.000349451 0)
(-0.028273 0.000336687 0)
(-0.0287557 0.000324098 0)
(-0.0292202 0.000311704 0)
(-0.0296669 0.000299525 0)
(-0.030096 0.000287576 0)
(-0.030508 0.00027587 0)
(-0.0309032 0.000264415 0)
(-0.0312818 0.000253219 0)
(-0.0316444 0.000242286 0)
(-0.0319911 0.000231618 0)
(-0.0323225 0.000221214 0)
(-0.0326389 0.000211071 0)
(-0.0329406 0.000201184 0)
(-0.033228 0.000191549 0)
(-0.0335015 0.000182155 0)
(-0.0337614 0.000172995 0)
(-0.0340079 0.000164056 0)
(-0.0342415 0.000155326 0)
(-0.0344624 0.000146791 0)
(-0.0346708 0.000138436 0)
(-0.0348671 0.000130246 0)
(-0.0350514 0.000122204 0)
(-0.0352239 0.00011429 0)
(-0.0353848 0.000106487 0)
(-0.0355342 9.87759e-05 0)
(-0.0356723 9.11352e-05 0)
(-0.0357991 8.35445e-05 0)
(-0.0359147 7.59824e-05 0)
(-0.0360191 6.84269e-05 0)
(-0.0361123 6.08557e-05 0)
(-0.0361943 5.32461e-05 0)
(-0.0362649 4.55751e-05 0)
(-0.0363242 3.78192e-05 0)
(-0.0363719 2.99552e-05 0)
(-0.0364078 2.19593e-05 0)
(-0.0364319 1.3808e-05 0)
(-0.0364437 5.47793e-06 0)
(-0.0364431 -3.0544e-06 0)
(-0.0364298 -1.18121e-05 0)
(-0.0364033 -2.08178e-05 0)
(-0.0363634 -3.0094e-05 0)
(-0.0363096 -3.96623e-05 0)
(-0.0362416 -4.95438e-05 0)
(-0.0361587 -5.97587e-05 0)
(-0.0360607 -7.03262e-05 0)
(-0.0359468 -8.12645e-05 0)
(-0.0358167 -9.25905e-05 0)
(-0.0356697 -0.000104319 0)
(-0.0355052 -0.000116465 0)
(-0.0353227 -0.000129039 0)
(-0.0351216 -0.000142051 0)
(-0.0349012 -0.00015551 0)
(-0.0346609 -0.000169419 0)
(-0.0344 -0.000183782 0)
(-0.0341179 -0.000198597 0)
(-0.0338141 -0.00021386 0)
(-0.0334878 -0.000229565 0)
(-0.0331385 -0.000245699 0)
(-0.0327655 -0.000262248 0)
(-0.0323683 -0.000279193 0)
(-0.0319465 -0.000296508 0)
(-0.0314994 -0.000314164 0)
(-0.0310267 -0.000332129 0)
(-0.030528 -0.000350361 0)
(-0.0300029 -0.000368816 0)
(-0.0294512 -0.000387443 0)
(-0.0288727 -0.000406184 0)
(-0.0282673 -0.000424977 0)
(-0.027635 -0.000443751 0)
(-0.0269761 -0.000462429 0)
(-0.0262905 -0.000480929 0)
(-0.0255788 -0.000499161 0)
(-0.0248414 -0.000517029 0)
(-0.024079 -0.000534428 0)
(-0.0232922 -0.000551248 0)
(-0.0224821 -0.000567375 0)
(-0.0216498 -0.000582683 0)
(-0.0207966 -0.000597046 0)
(-0.0199238 -0.000610327 0)
(-0.0190333 -0.000622387 0)
(-0.0181269 -0.00063308 0)
(-0.0172066 -0.000642258 0)
(-0.0162748 -0.000649766 0)
(-0.015334 -0.000655447 0)
(-0.0143868 -0.000659144 0)
(-0.0134363 -0.000660694 0)
(-0.0124857 -0.000659935 0)
(-0.0115382 -0.000656706 0)
(-0.0105976 -0.000650847 0)
(-0.00966761 -0.000642198 0)
(-0.00875236 -0.000630606 0)
(-0.00785605 -0.000615922 0)
(-0.00698311 -0.000598004 0)
(-0.00613815 -0.00057672 0)
(-0.00532591 -0.00055195 0)
(-0.00455126 -0.000523592 0)
(-0.00381918 -0.000491564 0)
(-0.00313466 -0.000455816 0)
(-0.00250271 -0.000416336 0)
(-0.00192824 -0.000373165 0)
(-0.00141595 -0.000326425 0)
(-0.00097022 -0.000276347 0)
(-0.000594862 -0.000223332 0)
(-0.000292859 -0.000168034 0)
(-6.59297e-05 -0.000111508 0)
(8.60998e-05 -5.54477e-05 0)
(0.000166199 -2.58674e-06 0)
(0.000181259 4.26695e-05 0)
(0.000143943 7.32312e-05 0)
(7.79728e-05 7.79276e-05 0)
(2.0863e-05 4.20226e-05 0)
(1.98022e-05 -7.8634e-05 0)
(6.81016e-05 -0.000132095 0)
(0.000111196 -0.000110672 0)
(0.000110388 -3.94596e-05 0)
(4.04166e-05 6.29612e-05 0)
(-0.000113577 0.000183371 0)
(-0.000360487 0.000312626 0)
(-0.000704714 0.000444516 0)
(-0.0011472 0.000574863 0)
(-0.00168639 0.000700874 0)
(-0.00231894 0.0008207 0)
(-0.00304027 0.000933145 0)
(-0.00384495 0.00103747 0)
(-0.00472698 0.00113326 0)
(-0.00568007 0.00122033 0)
(-0.00669773 0.00129865 0)
(-0.00777343 0.00136835 0)
(-0.0089007 0.0014296 0)
(-0.0100732 0.00148268 0)
(-0.0112847 0.00152789 0)
(-0.0125293 0.00156558 0)
(-0.0138013 0.00159611 0)
(-0.0150953 0.00161988 0)
(-0.0164059 0.00163727 0)
(-0.0177285 0.0016487 0)
(-0.0190585 0.00165454 0)
(-0.0203915 0.00165522 0)
(-0.0217236 0.0016511 0)
(-0.0230511 0.00164259 0)
(-0.0243707 0.00163004 0)
(-0.0256792 0.00161383 0)
(-0.0269739 0.0015943 0)
(-0.0282522 0.00157178 0)
(-0.0295118 0.00154659 0)
(-0.0307507 0.00151905 0)
(-0.031967 0.00148943 0)
(-0.0331591 0.00145802 0)
(-0.0343258 0.00142506 0)
(-0.0354657 0.00139081 0)
(-0.036578 0.00135548 0)
(-0.0376618 0.00131929 0)
(-0.0387164 0.00128243 0)
(-0.0397414 0.00124509 0)
(-0.0407363 0.00120742 0)
(-0.0417011 0.00116958 0)
(-0.0426354 0.00113171 0)
(-0.0435394 0.00109393 0)
(-0.0444131 0.00105635 0)
(-0.0452566 0.00101907 0)
(-0.0460703 0.000982186 0)
(-0.0468544 0.000945762 0)
(-0.0476094 0.000909871 0)
(-0.0483356 0.000874566 0)
(-0.0490334 0.000839895 0)
(-0.0497035 0.000805896 0)
(-0.0503463 0.000772596 0)
(-0.0509624 0.000740018 0)
(-0.0515524 0.000708174 0)
(-0.0521168 0.000677071 0)
(-0.0526561 0.00064671 0)
(-0.0531711 0.000617084 0)
(-0.0536622 0.000588182 0)
(-0.05413 0.000559986 0)
(-0.0545751 0.000532473 0)
(-0.054998 0.000505618 0)
(-0.0553991 0.000479389 0)
(-0.0557791 0.000453752 0)
(-0.0561382 0.000428666 0)
(-0.056477 0.000404091 0)
(-0.0567958 0.00037998 0)
(-0.057095 0.000356285 0)
(-0.0573748 0.000332957 0)
(-0.0576356 0.00030994 0)
(-0.0578776 0.000287179 0)
(-0.0581009 0.000264618 0)
(-0.0583057 0.000242195 0)
(-0.058492 0.000219851 0)
(-0.0586599 0.000197523 0)
(-0.0588095 0.000175145 0)
(-0.0589405 0.000152655 0)
(-0.0590529 0.000129986 0)
(-0.0591465 0.000107071 0)
(-0.0592212 8.38444e-05 0)
(-0.0592765 6.02383e-05 0)
(-0.0593123 3.61858e-05 0)
(-0.059328 1.162e-05 0)
(-0.0593234 -1.35252e-05 0)
(-0.0592978 -3.93154e-05 0)
(-0.0592507 -6.5815e-05 0)
(-0.0591817 -9.30872e-05 0)
(-0.0590899 -0.000121193 0)
(-0.0589747 -0.000150192 0)
(-0.0588355 -0.000180141 0)
(-0.0586714 -0.000211093 0)
(-0.0584816 -0.0002431 0)
(-0.0582653 -0.000276207 0)
(-0.0580215 -0.000310457 0)
(-0.0577494 -0.000345887 0)
(-0.057448 -0.00038253 0)
(-0.0571164 -0.000420412 0)
(-0.0567535 -0.000459551 0)
(-0.0563585 -0.000499961 0)
(-0.0559302 -0.000541645 0)
(-0.0554677 -0.000584599 0)
(-0.05497 -0.000628809 0)
(-0.0544361 -0.00067425 0)
(-0.0538652 -0.000720889 0)
(-0.0532562 -0.000768678 0)
(-0.0526084 -0.000817559 0)
(-0.0519209 -0.00086746 0)
(-0.0511929 -0.000918295 0)
(-0.0504239 -0.000969962 0)
(-0.0496132 -0.00102235 0)
(-0.0487603 -0.00107532 0)
(-0.047865 -0.00112872 0)
(-0.0469268 -0.0011824 0)
(-0.0459458 -0.00123617 0)
(-0.0449221 -0.00128982 0)
(-0.0438557 -0.00134314 0)
(-0.0427472 -0.00139588 0)
(-0.0415972 -0.0014478 0)
(-0.0404064 -0.0014986 0)
(-0.0391759 -0.00154801 0)
(-0.037907 -0.00159569 0)
(-0.0366013 -0.00164133 0)
(-0.0352606 -0.00168457 0)
(-0.0338869 -0.00172505 0)
(-0.0324826 -0.00176239 0)
(-0.0310505 -0.00179618 0)
(-0.0295936 -0.00182603 0)
(-0.0281151 -0.0018515 0)
(-0.0266188 -0.00187218 0)
(-0.0251087 -0.00188762 0)
(-0.0235891 -0.00189737 0)
(-0.0220647 -0.001901 0)
(-0.0205405 -0.00189805 0)
(-0.0190219 -0.00188808 0)
(-0.0175146 -0.00187066 0)
(-0.0160246 -0.00184536 0)
(-0.0145583 -0.00181176 0)
(-0.0131222 -0.00176949 0)
(-0.0117234 -0.00171816 0)
(-0.0103688 -0.00165747 0)
(-0.00906576 -0.00158713 0)
(-0.00782184 -0.00150691 0)
(-0.00664454 -0.00141667 0)
(-0.00554142 -0.00131637 0)
(-0.00451992 -0.0012061 0)
(-0.00358726 -0.00108613 0)
(-0.00275023 -0.000956985 0)
(-0.00201498 -0.000819517 0)
(-0.00138668 -0.000675083 0)
(-0.000869101 -0.000525743 0)
(-0.000464037 -0.000374584 0)
(-0.000170491 -0.000226219 0)
(1.63661e-05 -8.75181e-05 0)
(0.000106377 3.13371e-05 0)
(0.000116064 0.00011552 0)
(7.35352e-05 0.000143982 0)
(2.18461e-05 8.7737e-05 0)
(1.55777e-05 -0.000113664 0)
(4.29161e-05 -0.000170664 0)
(4.08826e-05 -0.000110068 0)
(-2.81354e-05 2.97291e-05 0)
(-0.000189835 0.000221189 0)
(-0.000460404 0.000443874 0)
(-0.000849917 0.000682918 0)
(-0.0013636 0.000927728 0)
(-0.00200283 0.00117083 0)
(-0.00276601 0.00140701 0)
(-0.00364936 0.00163265 0)
(-0.00464747 0.00184532 0)
(-0.00575379 0.00204341 0)
(-0.00696096 0.00222597 0)
(-0.0082611 0.00239246 0)
(-0.00964604 0.00254272 0)
(-0.0111075 0.00267682 0)
(-0.0126371 0.00279504 0)
(-0.0142268 0.00289779 0)
(-0.0158684 0.00298559 0)
(-0.0175543 0.00305904 0)
(-0.0192768 0.0031188 0)
(-0.0210289 0.00316557 0)
(-0.0228037 0.00320006 0)
(-0.0245948 0.00322303 0)
(-0.0263961 0.00323521 0)
(-0.0282019 0.00323736 0)
(-0.0300069 0.00323021 0)
(-0.0318062 0.00321448 0)
(-0.0335952 0.00319089 0)
(-0.0353698 0.00316013 0)
(-0.0371261 0.00312286 0)
(-0.0388608 0.00307973 0)
(-0.0405707 0.00303135 0)
(-0.0422529 0.00297832 0)
(-0.0439052 0.00292118 0)
(-0.0455252 0.00286047 0)
(-0.047111 0.0027967 0)
(-0.0486611 0.00273033 0)
(-0.0501741 0.00266179 0)
(-0.0516489 0.00259151 0)
(-0.0530844 0.00251986 0)
(-0.05448 0.00244719 0)
(-0.0558352 0.00237384 0)
(-0.0571496 0.00230008 0)
(-0.0584231 0.0022262 0)
(-0.0596555 0.00215245 0)
(-0.0608469 0.00207903 0)
(-0.0619976 0.00200614 0)
(-0.0631078 0.00193397 0)
(-0.064178 0.00186265 0)
(-0.0652085 0.00179233 0)
(-0.0662001 0.00172311 0)
(-0.0671531 0.00165509 0)
(-0.0680684 0.00158834 0)
(-0.0689466 0.00152292 0)
(-0.0697883 0.00145887 0)
(-0.0705945 0.00139623 0)
(-0.0713657 0.001335 0)
(-0.0721029 0.0012752 0)
(-0.0728066 0.00121681 0)
(-0.0734778 0.0011598 0)
(-0.0741171 0.00110415 0)
(-0.0747253 0.00104982 0)
(-0.075303 0.000996747 0)
(-0.075851 0.000944882 0)
(-0.0763698 0.000894155 0)
(-0.0768601 0.000844491 0)
(-0.0773224 0.00079581 0)
(-0.0777573 0.000748023 0)
(-0.0781651 0.000701038 0)
(-0.0785463 0.000654756 0)
(-0.0789013 0.000609073 0)
(-0.0792304 0.000563883 0)
(-0.0795337 0.000519074 0)
(-0.0798114 0.000474529 0)
(-0.0800638 0.000430131 0)
(-0.0802907 0.000385759 0)
(-0.0804923 0.000341289 0)
(-0.0806683 0.000296595 0)
(-0.0808186 0.00025155 0)
(-0.0809431 0.000206024 0)
(-0.0810413 0.00015989 0)
(-0.081113 0.000113017 0)
(-0.0811577 6.52755e-05 0)
(-0.0811748 1.65364e-05 0)
(-0.0811638 -3.33283e-05 0)
(-0.081124 -8.44447e-05 0)
(-0.0810548 -0.000136937 0)
(-0.0809553 -0.000190927 0)
(-0.0808246 -0.000246531 0)
(-0.0806619 -0.000303864 0)
(-0.0804661 -0.000363034 0)
(-0.0802364 -0.000424144 0)
(-0.0799714 -0.00048729 0)
(-0.0796702 -0.00055256 0)
(-0.0793316 -0.000620034 0)
(-0.0789543 -0.000689782 0)
(-0.078537 -0.000761865 0)
(-0.0780786 -0.00083633 0)
(-0.0775777 -0.000913211 0)
(-0.0770329 -0.00099253 0)
(-0.0764431 -0.00107429 0)
(-0.0758068 -0.00115848 0)
(-0.0751228 -0.00124507 0)
(-0.0743898 -0.00133401 0)
(-0.0736066 -0.00142523 0)
(-0.072772 -0.00151863 0)
(-0.0718848 -0.0016141 0)
(-0.0709441 -0.00171149 0)
(-0.0699488 -0.00181063 0)
(-0.0688981 -0.00191133 0)
(-0.0677913 -0.00201335 0)
(-0.0666277 -0.00211644 0)
(-0.065407 -0.00222031 0)
(-0.0641288 -0.00232462 0)
(-0.0627931 -0.00242903 0)
(-0.0614 -0.00253313 0)
(-0.0599498 -0.0026365 0)
(-0.0584432 -0.00273868 0)
(-0.056881 -0.00283916 0)
(-0.0552644 -0.00293741 0)
(-0.0535948 -0.00303286 0)
(-0.0518739 -0.00312489 0)
(-0.050104 -0.00321288 0)
(-0.0482875 -0.00329613 0)
(-0.0464272 -0.00337396 0)
(-0.0445264 -0.00344562 0)
(-0.0425887 -0.00351035 0)
(-0.0406182 -0.00356738 0)
(-0.0386194 -0.00361588 0)
(-0.0365971 -0.00365506 0)
(-0.0345568 -0.00368406 0)
(-0.0325042 -0.00370204 0)
(-0.0304457 -0.00370817 0)
(-0.0283878 -0.00370159 0)
(-0.0263378 -0.00368148 0)
(-0.0243032 -0.00364702 0)
(-0.022292 -0.00359741 0)
(-0.0203124 -0.00353192 0)
(-0.0183733 -0.00344984 0)
(-0.0164836 -0.00335051 0)
(-0.0146526 -0.00323338 0)
(-0.0128898 -0.003098 0)
(-0.0112049 -0.00294402 0)
(-0.00960759 -0.00277128 0)
(-0.00810743 -0.00257983 0)
(-0.00671385 -0.00236999 0)
(-0.00543587 -0.00214247 0)
(-0.00428185 -0.00189844 0)
(-0.00325923 -0.00163977 0)
(-0.00237411 -0.00136921 0)
(-0.00163076 -0.00109081 0)
(-0.00103101 -0.000810354 0)
(-0.000573362 -0.000536131 0)
(-0.000252041 -0.000279883 0)
(-5.58682e-05 -5.81716e-05 0)
(3.31721e-05 0.000106104 0)
(4.35557e-05 0.000181835 0)
(1.67333e-05 0.000125123 0)
(8.69387e-06 -0.000131036 0)
(4.48623e-06 -0.000164797 0)
(-6.07519e-05 -4.0685e-05 0)
(-0.000218733 0.000191261 0)
(-0.000492957 0.000495194 0)
(-0.000899405 0.000843865 0)
(-0.00144814 0.00121682 0)
(-0.00214441 0.00159898 0)
(-0.00298955 0.00197935 0)
(-0.00398176 0.00234999 0)
(-0.00511681 0.00270521 0)
(-0.00638864 0.00304105 0)
(-0.0077898 0.00335482 0)
(-0.00931184 0.00364479 0)
(-0.0109457 0.00390995 0)
(-0.0126817 0.00414987 0)
(-0.0145103 0.00436452 0)
(-0.0164215 0.00455419 0)
(-0.0184056 0.00471944 0)
(-0.0204531 0.00486099 0)
(-0.0225545 0.00497972 0)
(-0.0247009 0.00507662 0)
(-0.0268836 0.00515274 0)
(-0.0290943 0.00520919 0)
(-0.0313252 0.00524711 0)
(-0.0335688 0.00526768 0)
(-0.0358182 0.00527206 0)
(-0.0380668 0.0052614 0)
(-0.0403087 0.00523687 0)
(-0.0425381 0.00519959 0)
(-0.0447501 0.00515064 0)
(-0.0469398 0.00509111 0)
(-0.0491029 0.00502202 0)
(-0.0512357 0.00494436 0)
(-0.0533346 0.00485906 0)
(-0.0553965 0.00476704 0)
(-0.0574188 0.00466915 0)
(-0.059399 0.0045662 0)
(-0.061335 0.00445894 0)
(-0.0632252 0.00434809 0)
(-0.0650681 0.00423431 0)
(-0.0668625 0.00411823 0)
(-0.0686075 0.00400041 0)
(-0.0703024 0.00388138 0)
(-0.0719466 0.00376164 0)
(-0.0735401 0.00364161 0)
(-0.0750825 0.0035217 0)
(-0.076574 0.00340227 0)
(-0.0780148 0.00328364 0)
(-0.0794053 0.00316609 0)
(-0.0807458 0.00304987 0)
(-0.082037 0.00293521 0)
(-0.0832795 0.00282228 0)
(-0.0844739 0.00271124 0)
(-0.0856212 0.00260222 0)
(-0.0867221 0.00249531 0)
(-0.0877775 0.00239059 0)
(-0.0887883 0.0022881 0)
(-0.0897554 0.00218788 0)
(-0.0906797 0.00208993 0)
(-0.0915622 0.00199423 0)
(-0.0924038 0.00190076 0)
(-0.0932054 0.00180947 0)
(-0.0939678 0.00172028 0)
(-0.094692 0.00163312 0)
(-0.0953787 0.0015479 0)
(-0.0960287 0.0014645 0)
(-0.0966428 0.00138281 0)
(-0.0972216 0.0013027 0)
(-0.0977658 0.00122402 0)
(-0.0982759 0.00114663 0)
(-0.0987524 0.00107037 0)
(-0.0991957 0.000995073 0)
(-0.0996063 0.000920562 0)
(-0.0999844 0.000846659 0)
(-0.10033 0.000773179 0)
(-0.100644 0.00069993 0)
(-0.100925 0.000626716 0)
(-0.101175 0.000553338 0)
(-0.101392 0.000479593 0)
(-0.101576 0.000405276 0)
(-0.101728 0.00033018 0)
(-0.101847 0.000254095 0)
(-0.101932 0.000176812 0)
(-0.101983 9.81244e-05 0)
(-0.101999 1.78227e-05 0)
(-0.10198 -6.42985e-05 0)
(-0.101925 -0.000148442 0)
(-0.101832 -0.000234807 0)
(-0.101701 -0.000323589 0)
(-0.101531 -0.000414975 0)
(-0.101321 -0.000509147 0)
(-0.101069 -0.000606279 0)
(-0.100775 -0.000706534 0)
(-0.100436 -0.000810064 0)
(-0.100052 -0.000917011 0)
(-0.0996209 -0.0010275 0)
(-0.0991415 -0.00114164 0)
(-0.0986121 -0.00125953 0)
(-0.0980312 -0.00138123 0)
(-0.0973973 -0.00150681 0)
(-0.0967087 -0.00163629 0)
(-0.0959638 -0.00176967 0)
(-0.0951611 -0.00190693 0)
(-0.0942989 -0.00204802 0)
(-0.0933758 -0.00219284 0)
(-0.0923902 -0.00234129 0)
(-0.0913408 -0.0024932 0)
(-0.0902262 -0.00264838 0)
(-0.0890451 -0.00280659 0)
(-0.0877963 -0.00296755 0)
(-0.086479 -0.00313094 0)
(-0.0850921 -0.00329638 0)
(-0.0836351 -0.00346345 0)
(-0.0821074 -0.00363168 0)
(-0.0805087 -0.00380053 0)
(-0.078839 -0.00396943 0)
(-0.0770985 -0.00413773 0)
(-0.0752876 -0.00430475 0)
(-0.0734072 -0.00446973 0)
(-0.0714584 -0.00463185 0)
(-0.0694427 -0.00479027 0)
(-0.0673618 -0.00494404 0)
(-0.065218 -0.0050922 0)
(-0.063014 -0.00523372 0)
(-0.0607529 -0.0053675 0)
(-0.0584381 -0.00549242 0)
(-0.0560738 -0.00560731 0)
(-0.0536643 -0.00571094 0)
(-0.0512148 -0.00580206 0)
(-0.0487308 -0.00587939 0)
(-0.0462183 -0.00594161 0)
(-0.0436839 -0.00598741 0)
(-0.0411348 -0.00601544 0)
(-0.0385785 -0.00602437 0)
(-0.0360234 -0.00601287 0)
(-0.033478 -0.00597965 0)
(-0.0309515 -0.00592342 0)
(-0.0284537 -0.00584297 0)
(-0.0259947 -0.00573715 0)
(-0.0235849 -0.00560488 0)
(-0.0212352 -0.00544523 0)
(-0.0189568 -0.00525738 0)
(-0.016761 -0.00504068 0)
(-0.0146593 -0.00479475 0)
(-0.0126631 -0.00451945 0)
(-0.0107839 -0.00421502 0)
(-0.00903248 -0.00388216 0)
(-0.0074194 -0.00352219 0)
(-0.00595424 -0.00313719 0)
(-0.00464546 -0.00273029 0)
(-0.0034999 -0.002306 0)
(-0.00252234 -0.00187068 0)
(-0.00171479 -0.00143319 0)
(-0.00107579 -0.00100573 0)
(-0.000599532 -0.000605037 0)
(-0.00027482 -0.000253884 0)
(-8.38851e-05 1.72639e-05 0)
(-8.56834e-07 0.000168089 0)
(8.73681e-06 0.000141859 0)
(6.66421e-07 -0.000125834 0)
(-4.10639e-05 -0.000102869 0)
(-0.000181034 0.000112751 0)
(-0.000441989 0.000461982 0)
(-0.000843329 0.000901862 0)
(-0.00139963 0.00139907 0)
(-0.00211998 0.00192798 0)
(-0.0030089 0.00246923 0)
(-0.0040672 0.00300829 0)
(-0.00529258 0.00353441 0)
(-0.00668027 0.00403969 0)
(-0.00822353 0.00451846 0)
(-0.00991412 0.00496677 0)
(-0.0117427 0.00538199 0)
(-0.0136991 0.00576251 0)
(-0.0157726 0.00610749 0)
(-0.0179524 0.00641674 0)
(-0.0202272 0.00669054 0)
(-0.022586 0.00692952 0)
(-0.025018 0.00713463 0)
(-0.0275124 0.00730702 0)
(-0.0300588 0.00744803 0)
(-0.0326473 0.00755909 0)
(-0.0352684 0.00764175 0)
(-0.0379129 0.00769761 0)
(-0.0405722 0.0077283 0)
(-0.0432383 0.00773548 0)
(-0.0459036 0.00772081 0)
(-0.0485609 0.00768591 0)
(-0.0512038 0.0076324 0)
(-0.0538262 0.00756185 0)
(-0.0564225 0.00747581 0)
(-0.0589878 0.00737574 0)
(-0.0615175 0.00726309 0)
(-0.0640074 0.00713922 0)
(-0.0664539 0.00700543 0)
(-0.0688538 0.00686297 0)
(-0.0712042 0.006713 0)
(-0.0735028 0.00655665 0)
(-0.0757473 0.00639495 0)
(-0.0779362 0.00622886 0)
(-0.0800678 0.0060593 0)
(-0.0821412 0.0058871 0)
(-0.0841555 0.00571303 0)
(-0.08611 0.00553781 0)
(-0.0880044 0.00536209 0)
(-0.0898386 0.00518644 0)
(-0.0916125 0.0050114 0)
(-0.0933265 0.00483744 0)
(-0.0949808 0.00466499 0)
(-0.0965759 0.00449441 0)
(-0.0981126 0.00432602 0)
(-0.0995914 0.0041601 0)
(-0.101013 0.00399688 0)
(-0.102379 0.00383654 0)
(-0.10369 0.00367923 0)
(-0.104947 0.00352507 0)
(-0.10615 0.00337413 0)
(-0.107302 0.00322645 0)
(-0.108403 0.00308205 0)
(-0.109453 0.0029409 0)
(-0.110455 0.00280297 0)
(-0.11141 0.00266818 0)
(-0.112317 0.00253645 0)
(-0.113179 0.00240765 0)
(-0.113997 0.00228165 0)
(-0.11477 0.00215829 0)
(-0.1155 0.00203741 0)
(-0.116188 0.00191881 0)
(-0.116835 0.0018023 0)
(-0.117441 0.00168764 0)
(-0.118006 0.00157463 0)
(-0.118532 0.001463 0)
(-0.119019 0.00135251 0)
(-0.119466 0.0012429 0)
(-0.119875 0.0011339 0)
(-0.120245 0.00102523 0)
(-0.120577 0.000916597 0)
(-0.12087 0.000807724 0)
(-0.121124 0.000698311 0)
(-0.121339 0.000588059 0)
(-0.121516 0.000476667 0)
(-0.121652 0.000363833 0)
(-0.121748 0.000249253 0)
(-0.121803 0.000132624 0)
(-0.121817 1.36438e-05 0)
(-0.121788 -0.000107985 0)
(-0.121716 -0.000232556 0)
(-0.121599 -0.000360358 0)
(-0.121436 -0.000491672 0)
(-0.121227 -0.000626771 0)
(-0.12097 -0.000765916 0)
(-0.120663 -0.000909357 0)
(-0.120305 -0.00105733 0)
(-0.119895 -0.00121005 0)
(-0.11943 -0.00136772 0)
(-0.11891 -0.00153053 0)
(-0.118332 -0.00169862 0)
(-0.117695 -0.00187213 0)
(-0.116996 -0.00205116 0)
(-0.116235 -0.00223578 0)
(-0.115409 -0.00242602 0)
(-0.114516 -0.0026219 0)
(-0.113555 -0.00282337 0)
(-0.112523 -0.00303034 0)
(-0.111419 -0.00324268 0)
(-0.110242 -0.00346022 0)
(-0.108989 -0.00368272 0)
(-0.107659 -0.00390988 0)
(-0.106251 -0.00414137 0)
(-0.104763 -0.00437676 0)
(-0.103194 -0.00461557 0)
(-0.101544 -0.00485727 0)
(-0.0998105 -0.00510122 0)
(-0.0979943 -0.00534673 0)
(-0.0960945 -0.00559304 0)
(-0.0941114 -0.00583928 0)
(-0.0920452 -0.00608453 0)
(-0.0898964 -0.00632777 0)
(-0.087666 -0.00656792 0)
(-0.0853555 -0.00680378 0)
(-0.0829665 -0.00703412 0)
(-0.0805012 -0.00725757 0)
(-0.0779624 -0.00747274 0)
(-0.0753531 -0.00767811 0)
(-0.072677 -0.00787213 0)
(-0.0699382 -0.00805315 0)
(-0.0671416 -0.00821948 0)
(-0.0642923 -0.00836937 0)
(-0.0613963 -0.00850099 0)
(-0.0584599 -0.00861251 0)
(-0.0554904 -0.00870205 0)
(-0.0524954 -0.0087677 0)
(-0.0494832 -0.00880756 0)
(-0.0464626 -0.00881972 0)
(-0.0434432 -0.0088023 0)
(-0.0404351 -0.00875346 0)
(-0.0374489 -0.0086714 0)
(-0.0344957 -0.00855443 0)
(-0.0315872 -0.00840094 0)
(-0.0287355 -0.00820949 0)
(-0.0259531 -0.00797879 0)
(-0.0232526 -0.00770777 0)
(-0.020647 -0.00739567 0)
(-0.0181493 -0.00704203 0)
(-0.0157725 -0.00664685 0)
(-0.0135293 -0.00621065 0)
(-0.0114321 -0.00573463 0)
(-0.00949244 -0.00522087 0)
(-0.007721 -0.00467255 0)
(-0.00612713 -0.00409426 0)
(-0.00471844 -0.00349246 0)
(-0.00350031 -0.00287602 0)
(-0.00247529 -0.00225695 0)
(-0.00164249 -0.00165139 0)
(-0.000996872 -0.00108085 0)
(-0.000528322 -0.000573802 0)
(-0.000220669 -0.000167411 0)
(-5.27539e-05 9.02365e-05 0)
(-4.35791e-07 0.000132697 0)
(-7.72413e-06 -9.57684e-05 0)
(-8.99877e-05 2.18637e-05 0)
(-0.000311396 0.00035997 0)
(-0.000684102 0.000853166 0)
(-0.00122217 0.00145283 0)
(-0.00193785 0.00212052 0)
(-0.00283849 0.00282606 0)
(-0.00392727 0.00354616 0)
(-0.00520397 0.00426297 0)
(-0.00666549 0.00496297 0)
(-0.00830631 0.00563605 0)
(-0.0101189 0.00627476 0)
(-0.0120943 0.0068738 0)
(-0.0142223 0.00742954 0)
(-0.0164917 0.00793967 0)
(-0.018891 0.0084029 0)
(-0.0214082 0.0088188 0)
(-0.0240309 0.00918757 0)
(-0.0267471 0.00950992 0)
(-0.0295446 0.00978698 0)
(-0.0324117 0.0100202 0)
(-0.0353368 0.0102112 0)
(-0.0383088 0.010362 0)
(-0.0413171 0.0104744 0)
(-0.0443514 0.0105506 0)
(-0.0474021 0.0105927 0)
(-0.0504601 0.010603 0)
(-0.0535169 0.0105836 0)
(-0.0565644 0.0105367 0)
(-0.0595954 0.0104644 0)
(-0.0626029 0.010369 0)
(-0.0655808 0.0102524 0)
(-0.0685232 0.0101166 0)
(-0.071425 0.00996353 0)
(-0.0742815 0.00979512 0)
(-0.0770885 0.00961309 0)
(-0.0798424 0.00941913 0)
(-0.0825399 0.00921482 0)
(-0.0851782 0.00900168 0)
(-0.0877549 0.00878113 0)
(-0.0902679 0.00855448 0)
(-0.0927157 0.00832297 0)
(-0.095097 0.00808774 0)
(-0.0974106 0.00784985 0)
(-0.099656 0.00761027 0)
(-0.101833 0.00736989 0)
(-0.10394 0.00712951 0)
(-0.105979 0.00688986 0)
(-0.107949 0.00665159 0)
(-0.109851 0.00641528 0)
(-0.111685 0.00618144 0)
(-0.113452 0.0059505 0)
(-0.115152 0.00572286 0)
(-0.116787 0.00549882 0)
(-0.118358 0.00527864 0)
(-0.119866 0.00506254 0)
(-0.121311 0.00485067 0)
(-0.122696 0.00464314 0)
(-0.12402 0.00444001 0)
(-0.125286 0.0042413 0)
(-0.126495 0.00404698 0)
(-0.127647 0.00385702 0)
(-0.128745 0.0036713 0)
(-0.129788 0.00348971 0)
(-0.130779 0.0033121 0)
(-0.131718 0.00313827 0)
(-0.132607 0.00296803 0)
(-0.133446 0.00280114 0)
(-0.134236 0.00263734 0)
(-0.134978 0.00247636 0)
(-0.135673 0.0023179 0)
(-0.136321 0.00216166 0)
(-0.136923 0.0020073 0)
(-0.13748 0.00185448 0)
(-0.137992 0.00170284 0)
(-0.138458 0.00155203 0)
(-0.138881 0.00140165 0)
(-0.139258 0.00125133 0)
(-0.139591 0.00110067 0)
(-0.139879 0.000949271 0)
(-0.140121 0.000796725 0)
(-0.140319 0.000642625 0)
(-0.14047 0.000486559 0)
(-0.140575 0.000328117 0)
(-0.140632 0.000166887 0)
(-0.140641 2.46045e-06 0)
(-0.140601 -0.000165566 0)
(-0.140511 -0.000337591 0)
(-0.14037 -0.000514003 0)
(-0.140176 -0.000695184 0)
(-0.139928 -0.0008815 0)
(-0.139625 -0.00107331 0)
(-0.139264 -0.00127094 0)
(-0.138845 -0.00147471 0)
(-0.138365 -0.00168491 0)
(-0.137823 -0.00190182 0)
(-0.137217 -0.00212568 0)
(-0.136545 -0.00235668 0)
(-0.135805 -0.00259501 0)
(-0.134995 -0.0028408 0)
(-0.134112 -0.00309414 0)
(-0.133155 -0.00335507 0)
(-0.132122 -0.00362359 0)
(-0.131011 -0.00389964 0)
(-0.129819 -0.00418309 0)
(-0.128545 -0.00447377 0)
(-0.127186 -0.00477142 0)
(-0.125742 -0.00507571 0)
(-0.124209 -0.00538625 0)
(-0.122588 -0.00570255 0)
(-0.120875 -0.00602404 0)
(-0.11907 -0.00635007 0)
(-0.117172 -0.00667989 0)
(-0.11518 -0.00701264 0)
(-0.113094 -0.00734738 0)
(-0.110912 -0.00768305 0)
(-0.108636 -0.0080185 0)
(-0.106266 -0.00835245 0)
(-0.103801 -0.00868353 0)
(-0.101244 -0.00901025 0)
(-0.098596 -0.00933101 0)
(-0.0958589 -0.00964411 0)
(-0.0930353 -0.00994772 0)
(-0.0901282 -0.0102399 0)
(-0.0871412 -0.0105187 0)
(-0.0840785 -0.0107819 0)
(-0.0809447 -0.0110274 0)
(-0.0777453 -0.0112528 0)
(-0.0744862 -0.0114558 0)
(-0.0711741 -0.011634 0)
(-0.0678162 -0.0117847 0)