/*--------------------------------*- C++ -*----------------------------------*\
  =========                 |
  \\      /  F ield         | OpenFOAM: The Open Source CFD Toolbox
   \\    /   O peration     | Website:  https://openfoam.org
    \\  /    A nd           | Version:  7
     \\/     M anipulation  |
\*---------------------------------------------------------------------------*/
FoamFile
{
    version     2.0;
    format      ascii;
    class       surfaceScalarField;
    location    "0.3";
    object      phi;
}
// * * * * * * * * * * * * * * * * * * * * * * * * * * * * * * * * * * * * * //

dimensions      [0 3 -1 0 0 0 0];

internalField   nonuniform List<scalar> 
101920
(
1.72035e-13
4.65409e-13
-3.61266e-13
5.58287e-13
-8.75535e-13
4.92489e-13
-1.25732e-12
3.86675e-13
-1.47148e-12
2.27203e-13
-1.49505e-12
2.45146e-14
-1.30358e-12
-1.98944e-13
-8.88079e-13
-4.23961e-13
-2.43465e-13
-6.428e-13
6.18752e-13
-8.61561e-13
1.69512e-12
-1.0745e-12
2.97511e-12
-1.28069e-12
4.4489e-12
-1.47801e-12
6.10978e-12
-1.66184e-12
7.94458e-12
-1.83381e-12
9.94054e-12
-1.99551e-12
1.20872e-11
-2.14617e-12
1.43725e-11
-2.28603e-12
1.67856e-11
-2.4153e-12
1.93172e-11
-2.5336e-12
2.19567e-11
-2.64166e-12
2.46945e-11
-2.739e-12
2.75211e-11
-2.82571e-12
3.04261e-11
-2.90321e-12
3.33998e-11
-2.97228e-12
3.6434e-11
-3.03228e-12
3.95201e-11
-3.08363e-12
4.26487e-11
-3.12775e-12
4.58124e-11
-3.16482e-12
4.90051e-11
-3.19386e-12
5.22194e-11
-3.21473e-12
5.54479e-11
-3.229e-12
5.86839e-11
-3.23762e-12
6.19223e-11
-3.23992e-12
6.51577e-11
-3.23521e-12
6.83837e-11
-3.22479e-12
7.15932e-11
-3.21017e-12
7.47825e-11
-3.1907e-12
7.79479e-11
-3.1656e-12
8.1084e-11
-3.13524e-12
8.41854e-11
-3.10095e-12
8.7248e-11
-3.06337e-12
9.02688e-11
-3.02205e-12
9.32447e-11
-2.97604e-12
9.61715e-11
-2.92581e-12
9.90447e-11
-2.87276e-12
1.01861e-10
-2.81729e-12
1.0462e-10
-2.75886e-12
1.07317e-10
-2.69716e-12
1.0995e-10
-2.63269e-12
1.12516e-10
-2.56591e-12
1.15013e-10
-2.49696e-12
1.17438e-10
-2.42572e-12
1.19791e-10
-2.35226e-12
1.22068e-10
-2.2768e-12
1.24269e-10
-2.19972e-12
1.2639e-10
-2.12118e-12
1.28431e-10
-2.04118e-12
1.30391e-10
-1.95968e-12
1.32268e-10
-1.87676e-12
1.3406e-10
-1.79263e-12
1.35767e-10
-1.70743e-12
1.37388e-10
-1.62105e-12
1.38921e-10
-1.53345e-12
1.40366e-10
-1.44487e-12
1.41722e-10
-1.35564e-12
1.42988e-10
-1.26588e-12
1.44163e-10
-1.17542e-12
1.45247e-10
-1.08405e-12
1.4624e-10
-9.9182e-13
1.4714e-10
-8.99116e-13
1.47947e-10
-8.06323e-13
1.4866e-10
-7.13373e-13
1.4928e-10
-6.1998e-13
1.49806e-10
-5.26035e-13
1.50239e-10
-4.31613e-13
1.50576e-10
-3.36885e-13
1.50819e-10
-2.42097e-13
1.50966e-10
-1.47428e-13
1.51019e-10
-5.2843e-14
1.50977e-10
4.18494e-14
1.5084e-10
1.36755e-13
1.50609e-10
2.31771e-13
1.50283e-10
3.26713e-13
1.49862e-10
4.21421e-13
1.49345e-10
5.15774e-13
1.48735e-10
6.09797e-13
1.48032e-10
7.03684e-13
1.47234e-10
7.97501e-13
1.46344e-10
8.91003e-13
1.4536e-10
9.83917e-13
1.44284e-10
1.07623e-12
1.43115e-10
1.16801e-12
1.41856e-10
1.2592e-12
1.40506e-10
1.34966e-12
1.39067e-10
1.43933e-12
1.37538e-10
1.5282e-12
1.35922e-10
1.6162e-12
1.34218e-10
1.70324e-12
1.32429e-10
1.78924e-12
1.30554e-10
1.87409e-12
1.28596e-10
1.95769e-12
1.26556e-10
2.03997e-12
1.24435e-10
2.12081e-12
1.22235e-10
2.20003e-12
1.19957e-10
2.27751e-12
1.17604e-10
2.35328e-12
1.15177e-10
2.42724e-12
1.12678e-10
2.49911e-12
1.10109e-10
2.56869e-12
1.07473e-10
2.63597e-12
1.04772e-10
2.70088e-12
1.02009e-10
2.76301e-12
9.91871e-11
2.82207e-12
9.63087e-11
2.87818e-12
9.33772e-11
2.93135e-12
9.03964e-11
2.98113e-12
8.73692e-11
3.02718e-12
8.42995e-11
3.0696e-12
8.11913e-11
3.10826e-12
7.80492e-11
3.14253e-12
7.48773e-11
3.17206e-12
7.16802e-11
3.19698e-12
6.84632e-11
3.21716e-12
6.52314e-11
3.23211e-12
6.19896e-11
3.24166e-12
5.87438e-11
3.24571e-12
5.55003e-11
3.24375e-12
5.22652e-11
3.23538e-12
4.9045e-11
3.22046e-12
4.58465e-11
3.19874e-12
4.26769e-11
3.16985e-12
3.95435e-11
3.13354e-12
3.64542e-11
3.0895e-12
3.3417e-11
3.03725e-12
3.04405e-11
2.97645e-12
2.75334e-11
2.90686e-12
2.4705e-11
2.82818e-12
2.19647e-11
2.74007e-12
1.93223e-11
2.64221e-12
1.67879e-11
2.53437e-12
1.43719e-11
2.41637e-12
1.2085e-11
2.28772e-12
9.93795e-12
2.14783e-12
7.94161e-12
1.99653e-12
6.10717e-12
1.83404e-12
4.4462e-12
1.66055e-12
2.96982e-12
1.47618e-12
1.68842e-12
1.28132e-12
6.11801e-13
1.0767e-12
-2.51742e-13
8.63414e-13
-8.96054e-13
6.43702e-13
-1.31754e-12
4.21044e-13
-1.51718e-12
1.999e-13
-1.50437e-12
-1.25e-14
-1.30162e-12
-2.03304e-13
-9.50288e-13
-3.52175e-13
-5.22856e-13
-4.28085e-13
-1.4615e-13
-3.78723e-13
-1.49611e-13
-1.90397e-13
6.85747e-13
-8.90548e-13
1.21211e-12
-1.59458e-12
1.2092e-12
-2.08451e-12
8.75722e-13
-2.19443e-12
3.29411e-13
-1.82187e-12
-3.56323e-13
-8.96085e-13
-1.11848e-12
6.08447e-13
-1.91692e-12
2.69492e-12
-2.73008e-12
5.36674e-12
-3.53573e-12
8.61348e-12
-4.32392e-12
1.24163e-11
-5.08737e-12
1.67568e-11
-5.81661e-12
2.16074e-11
-6.50849e-12
2.69379e-11
-7.16277e-12
3.27208e-11
-7.77687e-12
3.89268e-11
-8.3507e-12
4.55251e-11
-8.88445e-12
5.2488e-11
-9.37784e-12
5.97864e-11
-9.83225e-12
6.73923e-11
-1.02477e-11
7.52787e-11
-1.06241e-11
8.34174e-11
-1.09634e-11
9.17811e-11
-1.12672e-11
1.00345e-10
-1.15356e-11
1.09084e-10
-1.17697e-11
1.17974e-10
-1.19721e-11
1.2699e-10
-1.21447e-11
1.36113e-10
-1.22874e-11
1.45321e-10
-1.24005e-11
1.54593e-10
-1.24861e-11
1.63908e-10
-1.25464e-11
1.7325e-10
-1.25817e-11
1.82602e-10
-1.25915e-11
1.91946e-10
-1.25778e-11
2.01263e-10
-1.2543e-11
2.10539e-10
-1.24883e-11
2.1976e-10
-1.24131e-11
2.28913e-10
-1.23178e-11
2.37983e-10
-1.22043e-11
2.46955e-10
-1.20748e-11
2.55818e-10
-1.19294e-11
2.64564e-10
-1.17677e-11
2.7318e-10
-1.15905e-11
2.81655e-10
-1.13996e-11
2.89978e-10
-1.11966e-11
2.9814e-10
-1.09814e-11
3.06135e-10
-1.07541e-11
3.13954e-10
-1.05153e-11
3.21588e-10
-1.02662e-11
3.29029e-10
-1.00076e-11
3.36272e-10
-9.74007e-12
3.4331e-10
-9.46366e-12
3.50137e-10
-9.17894e-12
3.56746e-10
-8.88657e-12
3.63133e-10
-8.58721e-12
3.69293e-10
-8.28147e-12
3.75221e-10
-7.96962e-12
3.80913e-10
-7.65184e-12
3.86364e-10
-7.32863e-12
3.91572e-10
-7.00057e-12
3.96532e-10
-6.66796e-12
4.01242e-10
-6.3309e-12
4.05698e-10
-5.98969e-12
4.09898e-10
-5.64487e-12
4.13839e-10
-5.29696e-12
4.17518e-10
-4.94611e-12
4.20935e-10
-4.59218e-12
4.24087e-10
-4.23532e-12
4.26973e-10
-3.87614e-12
4.29589e-10
-3.51517e-12
4.31935e-10
-3.15258e-12
4.34009e-10
-2.78832e-12
4.35812e-10
-2.42242e-12
4.37343e-10
-2.05508e-12
4.38599e-10
-1.68663e-12
4.3958e-10
-1.31736e-12
4.40285e-10
-9.47472e-13
4.40715e-10
-5.77171e-13
4.40868e-10
-2.06624e-13
4.40746e-10
1.64162e-13
4.40349e-10
5.35237e-13
4.39676e-10
9.06344e-13
4.38726e-10
1.2769e-12
4.37501e-10
1.64653e-12
4.36001e-10
2.01529e-12
4.34227e-10
2.38333e-12
4.32181e-10
2.7505e-12
4.29862e-10
3.11649e-12
4.27272e-10
3.48095e-12
4.24412e-10
3.84356e-12
4.21284e-10
4.2041e-12
4.17889e-10
4.56247e-12
4.14229e-10
4.91844e-12
4.10306e-10
5.27165e-12
4.06123e-10
5.62179e-12
4.01682e-10
5.96869e-12
3.96986e-10
6.31207e-12
3.92038e-10
6.65156e-12
3.8684e-10
6.9868e-12
3.81396e-10
7.31745e-12
3.75711e-10
7.6431e-12
3.69787e-10
7.96329e-12
3.6363e-10
8.27765e-12
3.57244e-10
8.58585e-12
3.50633e-10
8.88743e-12
3.43805e-10
9.18192e-12
3.36764e-10
9.46894e-12
3.29516e-10
9.74795e-12
3.22067e-10
1.00181e-11
3.14425e-10
1.02787e-11
3.06595e-10
1.05294e-11
2.98588e-10
1.07695e-11
2.90412e-10
1.09985e-11
2.82074e-10
1.12157e-11
2.73585e-10
1.14206e-11
2.64954e-10
1.16124e-11
2.56192e-10
1.179e-11
2.47309e-10
1.19525e-11
2.38317e-10
1.20995e-11
2.29229e-10
1.223e-11
2.20058e-10
1.23431e-11
2.10817e-10
1.24379e-11
2.01521e-10
1.2514e-11
1.92184e-10
1.257e-11
1.82822e-10
1.26044e-11
1.73451e-10
1.26166e-11
1.64088e-10
1.26057e-11
1.54753e-10
1.25705e-11
1.45464e-10
1.25101e-11
1.36239e-10
1.24234e-11
1.27101e-10
1.23091e-11
1.18069e-10
1.21659e-11
1.09166e-10
1.19926e-11
1.00416e-10
1.1788e-11
9.18413e-11
1.1551e-11
8.34677e-11
1.12805e-11
7.53205e-11
1.09754e-11
6.74261e-11
1.06345e-11
5.98119e-11
1.02567e-11
5.25056e-11
9.84092e-12
4.55356e-11
9.38623e-12
3.89304e-11
8.89204e-12
3.27197e-11
8.35768e-12
2.69328e-11
7.78271e-12
2.15988e-11
7.16738e-12
1.67464e-11
6.51246e-12
1.24033e-11
5.81923e-12
8.59434e-12
5.09019e-12
5.34172e-12
4.32932e-12
2.66322e-12
3.54222e-12
5.69392e-13
2.73747e-12
-9.39262e-13
1.92846e-12
-1.87525e-12
1.13463e-12
-2.2708e-12
3.83317e-13
-2.18856e-12
-2.84946e-13
-1.73155e-12
-8.09607e-13
-1.05394e-12
-1.10459e-12
-3.74314e-13
-1.05318e-12
-5.25405e-13
-3.58158e-13
1.02273e-12
-9.9722e-13
1.85919e-12
-1.53951e-12
1.77619e-12
-1.71892e-12
1.05816e-12
-1.32786e-12
-8.03615e-14
-2.0968e-13
-1.4863e-12
1.73162e-12
-3.05306e-12
4.53539e-12
-4.71652e-12
8.22532e-12
-6.41795e-12
1.28044e-11
-8.11777e-12
1.82627e-11
-9.78887e-12
2.4583e-11
-1.14089e-11
3.17345e-11
-1.29656e-11
3.96774e-11
-1.44511e-11
4.83734e-11
-1.58586e-11
5.77796e-11
-1.7184e-11
6.78523e-11
-1.8425e-11
7.85471e-11
-1.95816e-11
8.98198e-11
-2.06534e-11
1.01627e-10
-2.1641e-11
1.13924e-10
-2.25449e-11
1.26669e-10
-2.33668e-11
1.39817e-10
-2.41098e-11
1.53328e-10
-2.47758e-11
1.67162e-10
-2.5366e-11
1.81278e-10
-2.58835e-11
1.95636e-10
-2.6332e-11
2.10203e-10
-2.67132e-11
2.24944e-10
-2.70282e-11
2.39824e-10
-2.728e-11
2.54808e-10
-2.74728e-11
2.69868e-10
-2.76085e-11
2.84974e-10
-2.76882e-11
3.00097e-10
-2.7714e-11
3.15209e-10
-2.76894e-11
3.30281e-10
-2.76175e-11
3.45291e-10
-2.74998e-11
3.60215e-10
-2.73369e-11
3.75031e-10
-2.71315e-11
3.89712e-10
-2.6887e-11
4.04241e-10
-2.66053e-11
4.18598e-10
-2.62872e-11
4.32765e-10
-2.59338e-11
4.46724e-10
-2.55477e-11
4.60456e-10
-2.51316e-11
4.73944e-10
-2.46871e-11
4.87177e-10
-2.42148e-11
5.00139e-10
-2.3716e-11
5.12817e-10
-2.31924e-11
5.25197e-10
-2.26459e-11
5.37267e-10
-2.20779e-11
5.49017e-10
-2.14894e-11
5.60436e-10
-2.08817e-11
5.71514e-10
-2.02557e-11
5.8224e-10
-1.96129e-11
5.92607e-10
-1.89544e-11
6.02607e-10
-1.82812e-11
6.12231e-10
-1.75941e-11
6.21473e-10
-1.6894e-11
6.30326e-10
-1.61817e-11
6.38783e-10
-1.54584e-11
6.4684e-10
-1.47247e-11
6.5449e-10
-1.39812e-11
6.61729e-10
-1.32286e-11
6.68552e-10
-1.2468e-11
6.74955e-10
-1.17002e-11
6.80934e-10
-1.09253e-11
6.86487e-10
-1.01438e-11
6.91609e-10
-9.35627e-12
6.96298e-10
-8.56377e-12
7.00549e-10
-7.76683e-12
7.04362e-10
-6.96574e-12
7.07735e-10
-6.16078e-12
7.10666e-10
-5.35233e-12
7.13153e-10
-4.5409e-12
7.15194e-10
-3.72711e-12
7.16789e-10
-2.91149e-12
7.17936e-10
-2.09439e-12
7.18634e-10
-1.27617e-12
7.18885e-10
-4.571e-13
7.18687e-10
3.6253e-13
7.18041e-10
1.18234e-12
7.16947e-10
2.00171e-12
7.15403e-10
2.82003e-12
7.13412e-10
3.6369e-12
7.10975e-10
4.45221e-12
7.08093e-10
5.26571e-12
7.04767e-10
6.07689e-12
7.01e-10
6.88503e-12
6.96791e-10
7.68956e-12
6.92144e-10
8.49008e-12
6.87061e-10
9.2862e-12
6.81546e-10
1.00775e-11
6.756e-10
1.08633e-11
6.69228e-10
1.16431e-11
6.62434e-10
1.2416e-11
6.55221e-10
1.31815e-11
6.47594e-10
1.39389e-11
6.39557e-10
1.46875e-11
6.31117e-10
1.54265e-11
6.22279e-10
1.61553e-11
6.13048e-10
1.68731e-11
6.03432e-10
1.75788e-11
5.93438e-10
1.82715e-11
5.83073e-10
1.89503e-11
5.72346e-10
1.96144e-11
5.61267e-10
2.02624e-11
5.49843e-10
2.08934e-11
5.38085e-10
2.15063e-11
5.26004e-10
2.20996e-11
5.1361e-10
2.2672e-11
5.00916e-10
2.32224e-11
4.87935e-10
2.37496e-11
4.74682e-10
2.42522e-11
4.6117e-10
2.47284e-11
4.47414e-10
2.51767e-11
4.33431e-10
2.55957e-11
4.19238e-10
2.59835e-11
4.04852e-10
2.63383e-11
3.90292e-10
2.66584e-11
3.7558e-10
2.69425e-11
3.60735e-10
2.71883e-11
3.4578e-10
2.73935e-11
3.30738e-10
2.75564e-11
3.15633e-10
2.76751e-11
3.0049e-10
2.77472e-11
2.85337e-10
2.77704e-11
2.702e-10
2.77429e-11
2.55109e-10
2.7662e-11
2.40094e-10
2.75255e-11
2.25187e-10
2.73309e-11
2.10421e-10
2.70759e-11
1.95828e-10
2.67581e-11
1.81445e-10
2.6375e-11
1.67309e-10
2.59241e-11
1.53457e-10
2.54031e-11
1.39929e-10
2.48092e-11
1.26764e-10
2.41403e-11
1.14005e-10
2.3394e-11
1.01693e-10
2.25686e-11
8.98722e-11
2.1662e-11
7.85865e-11
2.06726e-11
6.78798e-11
1.95989e-11
5.77968e-11
1.84405e-11
4.83821e-11
1.71973e-11
3.9679e-11
1.58702e-11
3.17294e-11
1.44616e-11
2.45731e-11
1.29755e-11
1.82453e-11
1.1418e-11
1.27753e-11
9.79872e-12
8.18553e-12
8.13147e-12
4.48721e-12
6.43573e-12
1.67574e-12
4.73943e-12
-2.73874e-13
3.0826e-12
-1.41287e-12
1.52078e-12
-1.82967e-12
1.31012e-13
-1.66259e-12
-9.78853e-13
-1.10705e-12
-1.66271e-12
-4.27423e-13
-1.73248e-12
-9.52384e-13
-3.15711e-13
1.3432e-12
-7.41001e-13
2.28575e-12
-8.93407e-13
1.93053e-12
-4.86228e-13
6.4794e-13
7.00173e-13
-1.27311e-12
2.83176e-12
-3.61528e-12
6.00773e-12
-6.23028e-12
1.02956e-11
-9.00208e-12
1.57252e-11
-1.18461e-11
2.23032e-11
-1.46998e-11
3.00248e-11
-1.75124e-11
3.88659e-11
-2.02495e-11
4.87911e-11
-2.28889e-11
5.97558e-11
-2.5414e-11
7.1712e-11
-2.78126e-11
8.46068e-11
-3.0077e-11
9.83839e-11
-3.22031e-11
1.12988e-10
-3.41877e-11
1.28363e-10
-3.60302e-11
1.44451e-10
-3.77304e-11
1.61196e-10
-3.92894e-11
1.78539e-10
-4.07102e-11
1.96425e-10
-4.19958e-11
2.14801e-10
-4.31488e-11
2.33611e-10
-4.41728e-11
2.52803e-10
-4.50735e-11
2.72325e-10
-4.58546e-11
2.92132e-10
-4.65186e-11
3.12175e-10
-4.70695e-11
3.32407e-10
-4.75129e-11
3.52784e-10
-4.78532e-11
3.73267e-10
-4.80932e-11
3.93815e-10
-4.8236e-11
4.14388e-10
-4.82867e-11
4.34948e-10
-4.82503e-11
4.55458e-10
-4.81305e-11
4.75888e-10
-4.79294e-11
4.96203e-10
-4.76507e-11
5.1637e-10
-4.72992e-11
5.36361e-10
-4.68789e-11
5.56146e-10
-4.63926e-11
5.75702e-10
-4.58423e-11
5.95e-10
-4.52313e-11
6.14017e-10
-4.45636e-11
6.32728e-10
-4.3843e-11
6.51111e-10
-4.30716e-11
6.69148e-10
-4.22515e-11
6.86818e-10
-4.13856e-11
7.04102e-10
-4.04765e-11
7.20983e-10
-3.9527e-11
7.37444e-10
-3.85393e-11
7.5347e-10
-3.75155e-11
7.69046e-10
-3.64576e-11
7.84159e-10
-3.53678e-11
7.98794e-10
-3.42483e-11
8.12941e-10
-3.3101e-11
8.26587e-10
-3.19276e-11
8.39723e-10
-3.07297e-11
8.52338e-10
-2.9509e-11
8.64422e-10
-2.8267e-11
8.75969e-10
-2.70053e-11
8.86969e-10
-2.5725e-11
8.97415e-10
-2.44274e-11
9.073e-10
-2.31141e-11
9.16618e-10
-2.17866e-11
9.25363e-10
-2.04457e-11
9.3353e-10
-1.90923e-11
9.41115e-10
-1.77274e-11
9.48111e-10
-1.63521e-11
9.54516e-10
-1.49677e-11
9.60324e-10
-1.35753e-11
9.65534e-10
-1.21754e-11
9.70142e-10
-1.07687e-11
9.74147e-10
-9.35597e-12
9.77545e-10
-7.93813e-12
9.80334e-10
-6.51588e-12
9.82513e-10
-5.09018e-12
9.84081e-10
-3.66193e-12
9.85036e-10
-2.23168e-12
9.85379e-10
-7.99894e-13
9.8511e-10
6.32761e-13
9.84228e-10
2.06547e-12
9.82733e-10
3.49742e-12
9.80625e-10
4.92776e-12
9.77905e-10
6.35574e-12
9.74577e-10
7.78083e-12
9.7064e-10
9.20247e-12
9.66098e-10
1.06198e-11
9.60951e-10
1.20317e-11
9.55203e-10
1.34375e-11
9.48856e-10
1.48363e-11
9.41915e-10
1.62274e-11
9.34383e-10
1.76097e-11
9.26264e-10
1.8982e-11
9.17563e-10
2.03434e-11
9.08286e-10
2.16928e-11
8.98437e-10
2.30291e-11
8.88024e-10
2.43512e-11
8.77054e-10
2.56578e-11
8.65532e-10
2.69476e-11
8.53469e-10
2.82191e-11
8.40871e-10
2.94708e-11
8.27748e-10
3.07013e-11
8.1411e-10
3.19088e-11
7.99968e-10
3.30918e-11
7.85334e-10
3.42487e-11
7.70219e-10
3.53774e-11
7.54637e-10
3.6476e-11
7.38601e-10
3.75425e-11
7.22126e-10
3.85749e-11
7.05227e-10
3.95707e-11
6.87922e-10
4.05277e-11
6.70228e-10
4.14436e-11
6.52163e-10
4.23162e-11
6.3375e-10
4.31426e-11
6.15007e-10
4.392e-11
5.95956e-10
4.46459e-11
5.76622e-10
4.53176e-11
5.57029e-10
4.59318e-11
5.37202e-10
4.64851e-11
5.17169e-10
4.69748e-11
4.9696e-10
4.73977e-11
4.76604e-10
4.77502e-11
4.56132e-10
4.80288e-11
4.35577e-10
4.82301e-11
4.14974e-10
4.83505e-11
3.94358e-10
4.83859e-11
3.73768e-10
4.83328e-11
3.53243e-10
4.81873e-11
3.32824e-10
4.79453e-11
3.12553e-10
4.76028e-11
2.92473e-10
4.71559e-11
2.72632e-10
4.66003e-11
2.53075e-10
4.59318e-11
2.33852e-10
4.51465e-11
2.15015e-10
4.42405e-11
1.96613e-10
4.32099e-11
1.78702e-10
4.2051e-11
1.61336e-10
4.076e-11
1.44571e-10
3.9334e-11
1.28463e-10
3.77703e-11
1.13069e-10
3.60666e-11
9.84462e-11
3.42213e-11
8.46525e-11
3.22338e-11
7.17443e-11
3.01052e-11
5.97766e-11
2.78377e-11
4.88012e-11
2.54365e-11
3.88665e-11
2.29099e-11
3.00151e-11
2.02693e-11
2.22812e-11
1.75322e-11
1.56889e-11
1.47231e-11
1.02487e-11
1.18757e-11
5.95196e-12
9.03638e-12
2.76484e-12
6.26928e-12
6.23714e-13
3.66181e-12
-5.73547e-13
1.33001e-12
-9.8104e-13
-5.70736e-13
-8.12892e-13
-1.83277e-12
-3.53436e-13
-2.19362e-12
-1.30517e-12
-1.78162e-13
1.53537e-12
-2.41964e-13
2.34042e-12
1.81199e-13
1.48754e-12
1.38221e-12
-5.6062e-13
3.57744e-12
-3.45883e-12
6.91593e-12
-6.94835e-12
1.15093e-11
-1.08219e-11
1.74294e-11
-1.49221e-11
2.47118e-11
-1.91332e-11
3.33712e-11
-2.33625e-11
4.33993e-11
-2.75409e-11
5.47693e-11
-3.16196e-11
6.7443e-11
-3.55618e-11
8.13717e-11
-3.93413e-11
9.65005e-11
-4.29398e-11
1.12768e-10
-4.63445e-11
1.30109e-10
-4.95466e-11
1.4846e-10
-5.25411e-11
1.67753e-10
-5.5325e-11
1.8792e-10
-5.78975e-11
2.08893e-10
-6.02609e-11
2.30601e-10
-6.24184e-11
2.52979e-10
-6.43724e-11
2.75961e-10
-6.61273e-11
2.99479e-10
-6.76896e-11
3.2347e-10
-6.90652e-11
3.47874e-10
-7.02584e-11
3.72631e-10
-7.12744e-11
3.97682e-10
-7.21201e-11
4.2297e-10
-7.28027e-11
4.48442e-10
-7.33272e-11
4.74047e-10
-7.36983e-11
4.99734e-10
-7.39224e-11
5.25454e-10
-7.4007e-11
5.5116e-10
-7.39582e-11
5.76809e-10
-7.37804e-11
6.02359e-10
-7.34783e-11
6.27768e-10
-7.30586e-11
6.52995e-10
-7.25275e-11
6.78004e-10
-7.18902e-11
7.02761e-10
-7.11504e-11
7.27233e-10
-7.03126e-11
7.51386e-10
-6.93826e-11
7.75188e-10
-6.83659e-11
7.9861e-10
-6.72668e-11
8.21627e-10
-6.60891e-11
8.44212e-10
-6.48365e-11
8.66341e-10
-6.35133e-11
8.87988e-10
-6.21239e-11
9.09133e-10
-6.06718e-11
9.29755e-10
-5.91606e-11
9.49833e-10
-5.75935e-11
9.6935e-10
-5.59739e-11
9.88288e-10
-5.4305e-11
1.00663e-09
-5.25902e-11
1.02436e-09
-5.08322e-11
1.04147e-09
-4.90336e-11
1.05793e-09
-4.71969e-11
1.07375e-09
-4.53249e-11
1.0889e-09
-4.34199e-11
1.10338e-09
-4.14841e-11
1.11718e-09
-3.95193e-11
1.13028e-09
-3.75281e-11
1.14267e-09
-3.55125e-11
1.15436e-09
-3.34746e-11
1.16533e-09
-3.14156e-11
1.17558e-09
-2.93372e-11
1.18509e-09
-2.72409e-11
1.19387e-09
-2.51288e-11
1.2019e-09
-2.30026e-11
1.20919e-09
-2.08635e-11
1.21573e-09
-1.87126e-11
1.22151e-09
-1.6551e-11
1.22654e-09
-1.43801e-11
1.2308e-09
-1.22013e-11
1.2343e-09
-1.00159e-11
1.23704e-09
-7.82516e-12
1.23901e-09
-5.63022e-12
1.24021e-09
-3.43205e-12
1.24064e-09
-1.2314e-12
1.2403e-09
9.70664e-13
1.23919e-09
3.17271e-12
1.23732e-09
5.37331e-12
1.23467e-09
7.57131e-12
1.23126e-09
9.76585e-12
1.22709e-09
1.1956e-11
1.22215e-09
1.41407e-11
1.21645e-09
1.63186e-11
1.21e-09
1.84882e-11
1.20279e-09
2.0648e-11
1.19483e-09
2.2797e-11
1.18612e-09
2.49337e-11
1.17667e-09
2.70566e-11
1.16649e-09
2.91641e-11
1.15558e-09
3.12547e-11
1.14394e-09
3.33267e-11
1.13159e-09
3.53785e-11
1.11853e-09
3.7408e-11
1.10478e-09
3.94134e-11
1.09033e-09
4.13925e-11
1.07521e-09
4.33432e-11
1.05942e-09
4.52632e-11
1.04297e-09
4.71502e-11
1.02587e-09
4.90016e-11
1.00815e-09
5.0815e-11
9.89811e-10
5.25878e-11
9.70872e-10
5.43172e-11
9.51348e-10
5.60001e-11
9.31258e-10
5.76332e-11
9.1062e-10
5.92132e-11
8.89454e-10
6.07368e-11
8.6778e-10
6.22006e-11
8.45623e-10
6.36008e-11
8.23004e-10
6.49342e-11
7.9995e-10
6.61967e-11
7.76487e-10
6.73838e-11
7.52643e-10
6.84912e-11
7.28445e-10
6.95149e-11
7.03926e-10
7.04502e-11
6.79119e-10
7.12923e-11
6.54057e-10
7.20365e-11
6.28776e-10
7.26782e-11
6.03315e-10
7.32121e-11
5.77712e-10
7.36326e-11
5.52007e-10
7.39345e-11
5.26245e-10
7.41124e-11
5.00471e-10
7.41606e-11
4.7473e-10
7.40736e-11
4.49072e-10
7.38455e-11
4.23547e-10
7.34704e-11
3.98208e-10
7.29422e-11
3.73109e-10
7.2255e-11
3.48307e-10
7.14028e-11
3.23859e-10
7.03795e-11
2.99825e-10
6.91794e-11
2.76269e-10
6.77968e-11
2.53252e-10
6.62261e-11
2.30841e-10
6.44621e-11
2.09101e-10
6.25e-11
1.88101e-10
6.03355e-11
1.67906e-10
5.79649e-11
1.48587e-10
5.53858e-11
1.30212e-10
5.25964e-11
1.12847e-10
4.95974e-11
9.65598e-11
4.63912e-11
8.14143e-11
4.29826e-11
6.74704e-11
3.93802e-11
5.47829e-11
3.55974e-11
4.33995e-11
3.1653e-11
3.33581e-11
2.75737e-11
2.46839e-11
2.33966e-11
1.73868e-11
1.91721e-11
1.14562e-11
1.49671e-11
6.85443e-12
1.08707e-11
3.51087e-12
7.00273e-12
1.31852e-12
3.52051e-12
1.23769e-13
6.26292e-13
-2.90518e-13
-1.41839e-12
-2.05223e-13
-2.2799e-12
-1.51029e-12
-2.22327e-15
1.53916e-12
4.04387e-13
1.92586e-12
1.54916e-12
3.33013e-13
3.69771e-12
-2.70667e-12
7.04505e-12
-6.80262e-12
1.17399e-11
-1.16392e-11
1.78875e-11
-1.69681e-11
2.55557e-11
-2.25956e-11
3.47855e-11
-2.83682e-11
4.55913e-11
-3.41686e-11
5.79611e-11
-3.99095e-11
7.18672e-11
-4.55236e-11
8.72682e-11
-5.09605e-11
1.04111e-10
-5.61833e-11
1.22336e-10
-6.11643e-11
1.41876e-10
-6.58849e-11
1.62658e-10
-7.0332e-11
1.84611e-10
-7.44966e-11
2.07659e-10
-7.83732e-11
2.31723e-10
-8.19614e-11
2.56725e-10
-8.52628e-11
2.82588e-10
-8.82793e-11
3.09233e-10
-9.10148e-11
3.36585e-10
-9.34757e-11
3.64565e-10
-9.56697e-11
3.93102e-10
-9.76027e-11
4.22126e-10
-9.92807e-11
4.51565e-10
-1.00712e-10
4.81351e-10
-1.01907e-10
5.11417e-10
-1.02872e-10
5.41704e-10
-1.03614e-10
5.72149e-10
-1.04142e-10
6.02691e-10
-1.04465e-10
6.33272e-10
-1.04591e-10
6.63841e-10
-1.04529e-10
6.94344e-10
-1.04284e-10
7.24731e-10
-1.03864e-10
7.54952e-10
-1.03279e-10
7.84959e-10
-1.02537e-10
8.14712e-10
-1.01644e-10
8.44168e-10
-1.00605e-10
8.73286e-10
-9.94294e-11
9.02027e-10
-9.81232e-11
9.30354e-10
-9.66938e-11
9.58234e-10
-9.5147e-11
9.85633e-10
-9.34884e-11
1.01252e-09
-9.17237e-11
1.03887e-09
-8.98592e-11
1.06464e-09
-8.79004e-11
1.08982e-09
-8.58523e-11
1.11438e-09
-8.37199e-11
1.1383e-09
-8.15082e-11
1.16155e-09
-7.92217e-11
1.18411e-09
-7.68653e-11
1.20596e-09
-7.44431e-11
1.22709e-09
-7.19591e-11
1.24747e-09
-6.94171e-11
1.26709e-09
-6.68209e-11
1.28594e-09
-6.41742e-11
1.304e-09
-6.14804e-11
1.32126e-09
-5.87423e-11
1.33771e-09
-5.59631e-11
1.35332e-09
-5.3146e-11
1.3681e-09
-5.02942e-11
1.38204e-09
-4.741e-11
1.39512e-09
-4.44955e-11
1.40734e-09
-4.15532e-11
1.41868e-09
-3.85858e-11
1.42915e-09
-3.55957e-11
1.43873e-09
-3.25851e-11
1.44742e-09
-2.95557e-11
1.45522e-09
-2.65094e-11
1.46212e-09
-2.3448e-11
1.46811e-09
-2.03733e-11
1.4732e-09
-1.72872e-11
1.47738e-09
-1.41917e-11
1.48064e-09
-1.10885e-11
1.48299e-09
-7.97905e-12
1.48442e-09
-4.86477e-12
1.48494e-09
-1.74704e-12
1.48454e-09
1.3724e-12
1.48322e-09
4.49158e-12
1.48098e-09
7.60875e-12
1.47783e-09
1.07226e-11
1.47376e-09
1.38317e-11
1.46879e-09
1.69344e-11
1.4629e-09
2.0029e-11
1.4561e-09
2.31135e-11
1.44841e-09
2.61861e-11
1.43981e-09
2.92449e-11
1.43032e-09
3.22881e-11
1.41994e-09
3.53137e-11
1.40867e-09
3.83195e-11
1.39653e-09
4.13033e-11
1.38353e-09
4.42627e-11
1.36966e-09
4.71956e-11
1.35494e-09
5.00992e-11
1.33937e-09
5.2971e-11
1.32298e-09
5.58083e-11
1.30576e-09
5.86081e-11
1.28774e-09
6.13673e-11
1.26892e-09
6.40826e-11
1.24932e-09
6.67506e-11
1.22895e-09
6.93679e-11
1.20783e-09
7.1931e-11
1.18599e-09
7.44359e-11
1.16342e-09
7.68789e-11
1.14017e-09
7.92556e-11
1.11624e-09
8.15614e-11
1.09166e-09
8.37915e-11
1.06646e-09
8.59415e-11
1.04065e-09
8.80065e-11
1.01427e-09
8.99813e-11
9.87345e-10
9.18606e-11
9.59902e-10
9.36392e-11
9.31975e-10
9.53111e-11
9.03597e-10
9.687e-11
8.74802e-10
9.83097e-11
8.45627e-10
9.96245e-11
8.16112e-10
1.00807e-10
7.86297e-10
1.01852e-10
7.56224e-10
1.02751e-10
7.25939e-10
1.03498e-10
6.95487e-10
1.04085e-10
6.64918e-10
1.04504e-10
6.34282e-10
1.04748e-10
6.03632e-10
1.0481e-10
5.73025e-10
1.04682e-10
5.42516e-10
1.04355e-10
5.12165e-10
1.03821e-10
4.82035e-10
1.03073e-10
4.52189e-10
1.02101e-10
4.22693e-10
1.00899e-10
3.93615e-10
9.94575e-11
3.65025e-10
9.77693e-11
3.36994e-10
9.58267e-11
3.09598e-10
9.36223e-11
2.8291e-10
9.11496e-11
2.57008e-10
8.84024e-11
2.31969e-10
8.53753e-11
2.07869e-10
8.20643e-11
1.84788e-10
7.84666e-11
1.62803e-10
7.45813e-11
1.41991e-10
7.04097e-11
1.22424e-10
6.59565e-11
1.04176e-10
6.123e-11
8.73132e-11
5.62432e-11
7.18942e-11
5.10158e-11
5.79716e-11
4.55754e-11
4.55868e-11
3.9959e-11
3.47667e-11
3.42169e-11
2.55211e-11
2.84169e-11
1.78397e-11
2.26478e-11
1.16861e-11
1.7025e-11
6.9906e-12
1.16979e-11
3.64654e-12
6.86143e-12
1.50863e-12
2.76397e-12
3.74554e-13
-2.841e-13
-1.56767e-14
-1.8895e-12
-1.52617e-12
1.9736e-13
1.3333e-12
1.14303e-12
9.8415e-13
3.10297e-12
-1.62007e-12
6.29678e-12
-5.90138e-12
1.09071e-11
-1.14113e-11
1.70645e-11
-1.7796e-11
2.48641e-11
-2.4771e-11
3.43701e-11
-3.21058e-11
4.56183e-11
-3.96178e-11
5.86173e-11
-4.71672e-11
7.33539e-11
-5.46446e-11
8.97977e-11
-6.19652e-11
1.07904e-10
-6.90647e-11
1.27616e-10
-7.58941e-11
1.4887e-10
-8.24174e-11
1.71591e-10
-8.86086e-11
1.95705e-10
-9.44484e-11
2.21131e-10
-9.99236e-11
2.47785e-10
-1.05028e-10
2.75582e-10
-1.09758e-10
3.04434e-10
-1.14115e-10
3.34258e-10
-1.181e-10
3.64965e-10
-1.21718e-10
3.96468e-10
-1.24978e-10
4.28685e-10
-1.27887e-10
4.61534e-10
-1.30451e-10
4.94935e-10
-1.32679e-10
5.28807e-10
-1.34584e-10
5.63073e-10
-1.36175e-10
5.97661e-10
-1.37461e-10
6.32499e-10
-1.38452e-10
6.67518e-10
-1.3916e-10
7.02647e-10
-1.39596e-10
7.37823e-10
-1.3977e-10
7.72985e-10
-1.39692e-10
8.08074e-10
-1.39371e-10
8.43029e-10
-1.38819e-10
8.77794e-10
-1.38047e-10
9.12318e-10
-1.37063e-10
9.46552e-10
-1.35878e-10
9.80446e-10
-1.34498e-10
1.01395e-09
-1.32936e-10
1.04703e-09
-1.31199e-10
1.07963e-09
-1.29297e-10
1.11172e-09
-1.27238e-10
1.14326e-09
-1.25028e-10
1.17422e-09
-1.22677e-10
1.20455e-09
-1.20192e-10
1.23423e-09
-1.1758e-10
1.26322e-09
-1.14848e-10
1.29151e-09
-1.12003e-10
1.31905e-09
-1.09051e-10
1.34583e-09
-1.05999e-10
1.37181e-09
-1.02852e-10
1.39699e-09
-9.96169e-11
1.42133e-09
-9.62983e-11
1.44481e-09
-9.29016e-11
1.46742e-09
-8.94321e-11
1.48914e-09
-8.58943e-11
1.50995e-09
-8.22927e-11
1.52984e-09
-7.86314e-11
1.5488e-09
-7.49147e-11
1.5668e-09
-7.11471e-11
1.58383e-09
-6.73322e-11
1.5999e-09
-6.34733e-11
1.61498e-09
-5.95736e-11
1.62906e-09
-5.56364e-11
1.64214e-09
-5.16653e-11
1.65421e-09
-4.76635e-11
1.66526e-09
-4.36337e-11
1.67528e-09
-3.95784e-11
1.68427e-09
-3.55001e-11
1.69222e-09
-3.14015e-11
1.69914e-09
-2.72848e-11
1.705e-09
-2.31528e-11
1.70982e-09
-1.9008e-11
1.71358e-09
-1.48528e-11
1.71629e-09
-1.06889e-11
1.71795e-09
-6.51844e-12
1.71855e-09
-2.34344e-12
1.71809e-09
1.83365e-12
1.71657e-09
6.01043e-12
1.71399e-09
1.01847e-11
1.71036e-09
1.43545e-11
1.70567e-09
1.85178e-11
1.69993e-09
2.26725e-11
1.69315e-09
2.6816e-11
1.68532e-09
3.09457e-11
1.67644e-09
3.50593e-11
1.66653e-09
3.91544e-11
1.65559e-09
4.32282e-11
1.64363e-09
4.72781e-11
1.63065e-09
5.13013e-11
1.61665e-09
5.52946e-11
1.60166e-09
5.9255e-11
1.58568e-09
6.31794e-11
1.56871e-09
6.70643e-11
1.55078e-09
7.09062e-11
1.53188e-09
7.47013e-11
1.51204e-09
7.84457e-11
1.49128e-09
8.21353e-11
1.46959e-09
8.57658e-11
1.44701e-09
8.93325e-11
1.42355e-09
9.28308e-11
1.39922e-09
9.62559e-11
1.37406e-09
9.96027e-11
1.34807e-09
1.02866e-10
1.32129e-09
1.0604e-10
1.29373e-09
1.09118e-10
1.26543e-09
1.12095e-10
1.2364e-09
1.14964e-10
1.20669e-09
1.17719e-10
1.17632e-09
1.20353e-10
1.14532e-09
1.22859e-10
1.11373e-09
1.25229e-10
1.08158e-09
1.27456e-10
1.04892e-09
1.29532e-10
1.01578e-09
1.31449e-10
9.8221e-10
1.33198e-10
9.48247e-10
1.3477e-10
9.13942e-10
1.36158e-10
8.79342e-10
1.37351e-10
8.445e-10
1.3834e-10
8.09468e-10
1.39117e-10
7.74302e-10
1.3967e-10
7.39061e-10
1.3999e-10
7.03804e-10
1.40067e-10
6.68596e-10
1.3989e-10
6.33501e-10
1.3945e-10
5.98587e-10
1.38735e-10
5.63925e-10
1.37736e-10
5.29585e-10
1.36441e-10
4.95643e-10
1.34841e-10
4.62177e-10
1.32924e-10
4.29264e-10
1.30682e-10
3.96986e-10
1.28104e-10
3.65425e-10
1.25183e-10
3.34666e-10
1.21908e-10
3.04794e-10
1.18275e-10
2.75894e-10
1.14275e-10
2.48054e-10
1.09905e-10
2.21358e-10
1.05162e-10
1.95893e-10
1.00046e-10
1.71742e-10
9.45597e-11
1.48987e-10
8.8711e-11
1.27704e-10
8.25122e-11
1.07966e-10
7.59811e-11
8.98381e-11
6.9144e-11
7.33746e-11
6.20377e-11
5.86204e-11
5.47116e-11
4.5606e-11
4.72306e-11
3.43438e-11
3.96788e-11
2.48255e-11
3.21658e-11
1.70186e-11
2.48321e-11
1.08614e-11
1.78566e-11
6.25598e-12
1.1466e-11
3.069e-12
5.94889e-12
1.12411e-12
1.6599e-12
1.95526e-13
-9.60633e-13
-1.33103e-12
4.14628e-13
9.10133e-13
1.93379e-12
-5.23275e-13
4.75511e-12
-4.43788e-12
9.06556e-12
-1.02095e-11
1.50115e-11
-1.7357e-11
2.27031e-11
-2.54929e-11
3.22249e-11
-3.42972e-11
4.36299e-11
-4.35113e-11
5.69422e-11
-5.293e-11
7.21654e-11
-6.23891e-11
8.92827e-11
-7.17593e-11
1.08259e-10
-8.09394e-11
1.29045e-10
-8.98497e-11
1.51582e-10
-9.84306e-11
1.75799e-10
-1.06636e-10
2.01621e-10
-1.14433e-10
2.28965e-10
-1.21794e-10
2.57745e-10
-1.28704e-10
2.8787e-10
-1.35154e-10
3.19249e-10
-1.41137e-10
3.51789e-10
-1.46653e-10
3.85396e-10
-1.51703e-10
4.19974e-10
-1.56295e-10
4.5543e-10
-1.60435e-10
4.91675e-10
-1.6413e-10
5.28618e-10
-1.67391e-10
5.6617e-10
-1.70229e-10
6.04242e-10
-1.72657e-10
6.42751e-10
-1.74687e-10
6.81619e-10
-1.76328e-10
7.20763e-10
-1.77595e-10
7.60105e-10
-1.78502e-10
7.9957e-10
-1.79063e-10
8.39088e-10
-1.7929e-10
8.78591e-10
-1.79193e-10
9.18009e-10
-1.78788e-10
9.57277e-10
-1.78088e-10
9.96335e-10
-1.77106e-10
1.03512e-09
-1.75853e-10
1.07359e-09
-1.7434e-10
1.11167e-09
-1.7258e-10
1.14932e-09
-1.70586e-10
1.18649e-09
-1.68368e-10
1.22313e-09
-1.65937e-10
1.25919e-09
-1.63303e-10
1.29464e-09
-1.60477e-10
1.32944e-09
-1.57469e-10
1.36353e-09
-1.54289e-10
1.3969e-09
-1.50945e-10
1.4295e-09
-1.47446e-10
1.4613e-09
-1.43802e-10
1.49227e-09
-1.4002e-10
1.52238e-09
-1.36109e-10
1.5516e-09
-1.32075e-10
1.57991e-09
-1.27928e-10
1.60728e-09
-1.23672e-10
1.6337e-09
-1.19316e-10
1.65913e-09
-1.14866e-10
1.68357e-09
-1.10327e-10
1.70698e-09
-1.05706e-10
1.72935e-09
-1.01007e-10
1.75068e-09
-9.6237e-11
1.77093e-09
-9.14009e-11
1.7901e-09
-8.65034e-11
1.80818e-09
-8.15486e-11
1.82514e-09
-7.6541e-11
1.84099e-09
-7.1485e-11
1.85571e-09
-6.63852e-11
1.8693e-09
-6.12453e-11
1.88173e-09
-5.6069e-11
1.89301e-09
-5.08594e-11
1.90313e-09
-4.56201e-11
1.91209e-09
-4.03542e-11
1.91987e-09
-3.50652e-11
1.92647e-09
-2.97564e-11
1.9319e-09
-2.44309e-11
1.93613e-09
-1.90916e-11
1.93919e-09
-1.3741e-11
1.94105e-09
-8.38175e-12
1.94172e-09
-3.0169e-12
1.94121e-09
2.35051e-12
1.9395e-09
7.71759e-12
1.9366e-09
1.30816e-11
1.93252e-09
1.84399e-11
1.92725e-09
2.37898e-11
1.92079e-09
2.91283e-11
1.91316e-09
3.44521e-11
1.90434e-09