/*--------------------------------*- C++ -*----------------------------------*\
  =========                 |
  \\      /  F ield         | OpenFOAM: The Open Source CFD Toolbox
   \\    /   O peration     | Website:  https://openfoam.org
    \\  /    A nd           | Version:  7
     \\/     M anipulation  |
\*---------------------------------------------------------------------------*/
FoamFile
{
    version     2.0;
    format      ascii;
    class       volVectorField;
    location    "0.3";
    object      U;
}
// * * * * * * * * * * * * * * * * * * * * * * * * * * * * * * * * * * * * * //

dimensions      [0 1 -1 0 0 0 0];

internalField   nonuniform List<vector> 
51200
(
(1.79741e-08 3.7488e-08 0)
(-8.29219e-09 4.55341e-08 0)
(-9.80584e-08 3.86868e-08 0)
(-1.75379e-07 3.14549e-08 0)
(-2.24935e-07 2.20768e-08 0)
(-2.44787e-07 1.07714e-08 0)
(-2.31926e-07 -1.29405e-09 0)
(-1.83639e-07 -1.31652e-08 0)
(-9.87908e-08 -2.43075e-08 0)
(2.19398e-08 -3.53852e-08 0)
(1.77214e-07 -4.60251e-08 0)
(3.66052e-07 -5.61624e-08 0)
(5.86709e-07 -6.58315e-08 0)
(8.37842e-07 -7.4755e-08 0)
(1.11794e-06 -8.29859e-08 0)
(1.42483e-06 -9.06731e-08 0)
(1.75661e-06 -9.78142e-08 0)
(2.11158e-06 -1.04399e-07 0)
(2.48788e-06 -1.10442e-07 0)
(2.88386e-06 -1.15965e-07 0)
(3.29792e-06 -1.21009e-07 0)
(3.72849e-06 -1.25486e-07 0)
(4.17403e-06 -1.29413e-07 0)
(4.63289e-06 -1.32936e-07 0)
(5.10352e-06 -1.36097e-07 0)
(5.5845e-06 -1.38805e-07 0)
(6.07446e-06 -1.41085e-07 0)
(6.57194e-06 -1.43068e-07 0)
(7.0756e-06 -1.44755e-07 0)
(7.5844e-06 -1.46045e-07 0)
(8.09725e-06 -1.46917e-07 0)
(8.61292e-06 -1.47496e-07 0)
(9.13032e-06 -1.4785e-07 0)
(9.6485e-06 -1.47907e-07 0)
(1.01666e-05 -1.47602e-07 0)
(1.06838e-05 -1.47034e-07 0)
(1.11988e-05 -1.46322e-07 0)
(1.17109e-05 -1.45401e-07 0)
(1.22195e-05 -1.44196e-07 0)
(1.27238e-05 -1.42722e-07 0)
(1.3223e-05 -1.41094e-07 0)
(1.37162e-05 -1.39362e-07 0)
(1.4203e-05 -1.3747e-07 0)
(1.46829e-05 -1.35326e-07 0)
(1.51553e-05 -1.32959e-07 0)
(1.56194e-05 -1.30486e-07 0)
(1.60747e-05 -1.2794e-07 0)
(1.65208e-05 -1.25264e-07 0)
(1.69574e-05 -1.22422e-07 0)
(1.73839e-05 -1.19448e-07 0)
(1.77999e-05 -1.16378e-07 0)
(1.8205e-05 -1.13222e-07 0)
(1.85989e-05 -1.09966e-07 0)
(1.89812e-05 -1.06605e-07 0)
(1.93517e-05 -1.03149e-07 0)
(1.971e-05 -9.96237e-08 0)
(2.00558e-05 -9.60439e-08 0)
(2.03889e-05 -9.24091e-08 0)
(2.0709e-05 -8.87107e-08 0)
(2.1016e-05 -8.49399e-08 0)
(2.13096e-05 -8.11122e-08 0)
(2.15896e-05 -7.72448e-08 0)
(2.18558e-05 -7.3329e-08 0)
(2.21082e-05 -6.93558e-08 0)
(2.23465e-05 -6.53357e-08 0)
(2.25706e-05 -6.12889e-08 0)
(2.27803e-05 -5.72238e-08 0)
(2.29756e-05 -5.31307e-08 0)
(2.31564e-05 -4.89949e-08 0)
(2.33226e-05 -4.48156e-08 0)
(2.3474e-05 -4.06163e-08 0)
(2.36106e-05 -3.64206e-08 0)
(2.37322e-05 -3.22231e-08 0)
(2.38389e-05 -2.80055e-08 0)
(2.39306e-05 -2.37618e-08 0)
(2.40073e-05 -1.94962e-08 0)
(2.40689e-05 -1.52153e-08 0)
(2.41153e-05 -1.09294e-08 0)
(2.41465e-05 -6.64984e-09 0)
(2.41625e-05 -2.37814e-09 0)
(2.41634e-05 1.89577e-09 0)
(2.41491e-05 6.1802e-09 0)
(2.41197e-05 1.04714e-08 0)
(2.40751e-05 1.4761e-08 0)
(2.40153e-05 1.90419e-08 0)
(2.39403e-05 2.33071e-08 0)
(2.38502e-05 2.75561e-08 0)
(2.3745e-05 3.1801e-08 0)
(2.3625e-05 3.60477e-08 0)
(2.34899e-05 4.02804e-08 0)
(2.33399e-05 4.44817e-08 0)
(2.31751e-05 4.86554e-08 0)
(2.29955e-05 5.28115e-08 0)
(2.28013e-05 5.69457e-08 0)
(2.25925e-05 6.10456e-08 0)
(2.23693e-05 6.51067e-08 0)
(2.21318e-05 6.91308e-08 0)
(2.18802e-05 7.3118e-08 0)
(2.16146e-05 7.70669e-08 0)
(2.13351e-05 8.09734e-08 0)
(2.10419e-05 8.48305e-08 0)
(2.07353e-05 8.86326e-08 0)
(2.04154e-05 9.23772e-08 0)
(2.00825e-05 9.60586e-08 0)
(1.97367e-05 9.96672e-08 0)
(1.93784e-05 1.032e-07 0)
(1.90078e-05 1.0666e-07 0)
(1.86253e-05 1.10046e-07 0)
(1.82311e-05 1.13338e-07 0)
(1.78257e-05 1.16525e-07 0)
(1.74092e-05 1.19612e-07 0)
(1.69821e-05 1.22597e-07 0)
(1.65449e-05 1.25455e-07 0)
(1.6098e-05 1.28171e-07 0)
(1.56418e-05 1.3076e-07 0)
(1.51769e-05 1.33228e-07 0)
(1.47038e-05 1.3554e-07 0)
(1.4223e-05 1.37676e-07 0)
(1.37351e-05 1.39656e-07 0)
(1.32407e-05 1.4148e-07 0)
(1.27405e-05 1.43102e-07 0)
(1.22352e-05 1.44496e-07 0)
(1.17255e-05 1.45681e-07 0)
(1.12121e-05 1.46657e-07 0)
(1.0696e-05 1.47396e-07 0)
(1.01779e-05 1.4789e-07 0)
(9.65869e-06 1.48141e-07 0)
(9.1393e-06 1.48119e-07 0)
(8.62076e-06 1.47796e-07 0)
(8.10407e-06 1.4717e-07 0)
(7.59031e-06 1.46231e-07 0)
(7.08058e-06 1.44961e-07 0)
(6.57604e-06 1.43351e-07 0)
(6.07792e-06 1.41384e-07 0)
(5.58748e-06 1.39033e-07 0)
(5.10605e-06 1.36277e-07 0)
(4.63502e-06 1.33104e-07 0)
(4.17582e-06 1.29501e-07 0)
(3.72996e-06 1.25453e-07 0)
(3.29896e-06 1.20938e-07 0)
(2.88443e-06 1.15942e-07 0)
(2.48799e-06 1.10453e-07 0)
(2.11135e-06 1.04437e-07 0)
(1.75623e-06 9.785e-08 0)
(1.42435e-06 9.06791e-08 0)
(1.11748e-06 8.2934e-08 0)
(8.37443e-07 7.46094e-08 0)
(5.86073e-07 6.56903e-08 0)
(3.65099e-07 5.61806e-08 0)
(1.76149e-07 4.60945e-08 0)
(2.06976e-08 3.54566e-08 0)
(-1.00059e-07 2.43535e-08 0)
(-1.85288e-07 1.29335e-08 0)
(-2.347e-07 1.38451e-09 0)
(-2.49007e-07 -9.92886e-09 0)
(-2.30594e-07 -2.02502e-08 0)
(-1.84174e-07 -2.82578e-08 0)
(-1.18373e-07 -3.17445e-08 0)
(-5.07425e-08 -2.69156e-08 0)
(-9.75555e-09 -1.00306e-08 0)
(-7.48288e-09 9.33196e-08 0)
(-7.80698e-08 1.42159e-07 0)
(-2.01516e-07 1.37554e-07 0)
(-3.06748e-07 1.06941e-07 0)
(-3.59402e-07 5.8365e-08 0)
(-3.41278e-07 -2.64997e-09 0)
(-2.39264e-07 -7.00422e-08 0)
(-4.56897e-08 -1.3936e-07 0)
(2.41418e-07 -2.08845e-07 0)
(6.22248e-07 -2.77631e-07 0)
(1.09636e-06 -3.44549e-07 0)
(1.66104e-06 -4.09236e-07 0)
(2.31336e-06 -4.70893e-07 0)
(3.04971e-06 -5.28895e-07 0)
(3.8653e-06 -5.83506e-07 0)
(4.75547e-06 -6.34724e-07 0)
(5.71572e-06 -6.82445e-07 0)
(6.74121e-06 -7.26736e-07 0)
(7.82726e-06 -7.67642e-07 0)
(8.96929e-06 -8.05217e-07 0)
(1.01627e-05 -8.39523e-07 0)
(1.14032e-05 -8.705e-07 0)
(1.26863e-05 -8.9829e-07 0)
(1.40075e-05 -9.23138e-07 0)
(1.53626e-05 -9.45115e-07 0)
(1.67479e-05 -9.6421e-07 0)
(1.81592e-05 -9.80655e-07 0)
(1.95925e-05 -9.94716e-07 0)
(2.10444e-05 -1.00638e-06 0)
(2.25117e-05 -1.01555e-06 0)
(2.39909e-05 -1.02236e-06 0)
(2.54786e-05 -1.02711e-06 0)
(2.69719e-05 -1.02989e-06 0)
(2.84681e-05 -1.03057e-06 0)
(2.99644e-05 -1.02922e-06 0)
(3.1458e-05 -1.02614e-06 0)
(3.29461e-05 -1.02154e-06 0)
(3.44264e-05 -1.01529e-06 0)
(3.58969e-05 -1.00734e-06 0)
(3.73552e-05 -9.97836e-07 0)
(3.8799e-05 -9.87071e-07 0)
(4.02263e-05 -9.75102e-07 0)
(4.16355e-05 -9.6183e-07 0)
(4.30249e-05 -9.4721e-07 0)
(4.43926e-05 -9.31409e-07 0)
(4.57368e-05 -9.14658e-07 0)
(4.70559e-05 -8.96998e-07 0)
(4.83489e-05 -8.78362e-07 0)
(4.96142e-05 -8.58745e-07 0)
(5.08508e-05 -8.38279e-07 0)
(5.20571e-05 -8.17069e-07 0)
(5.32321e-05 -7.95145e-07 0)
(5.43748e-05 -7.72499e-07 0)
(5.54842e-05 -7.49167e-07 0)
(5.65593e-05 -7.25206e-07 0)
(5.75993e-05 -7.00692e-07 0)
(5.86032e-05 -6.75687e-07 0)
(5.95704e-05 -6.502e-07 0)
(6.05001e-05 -6.24234e-07 0)
(6.13917e-05 -5.97825e-07 0)
(6.22446e-05 -5.71027e-07 0)
(6.30582e-05 -5.43872e-07 0)
(6.38319e-05 -5.16352e-07 0)
(6.45653e-05 -4.88479e-07 0)
(6.52579e-05 -4.60313e-07 0)
(6.59092e-05 -4.31914e-07 0)
(6.65189e-05 -4.03299e-07 0)
(6.70867e-05 -3.74439e-07 0)
(6.76124e-05 -3.45322e-07 0)
(6.80954e-05 -3.15996e-07 0)
(6.85356e-05 -2.8653e-07 0)
(6.89326e-05 -2.56967e-07 0)
(6.92863e-05 -2.27293e-07 0)
(6.95966e-05 -1.9748e-07 0)
(6.98633e-05 -1.67533e-07 0)
(7.00862e-05 -1.37482e-07 0)
(7.02652e-05 -1.07357e-07 0)
(7.04001e-05 -7.71911e-08 0)
(7.04909e-05 -4.70118e-08 0)
(7.05376e-05 -1.68267e-08 0)
(7.05401e-05 1.3381e-08 0)
(7.04986e-05 4.36273e-08 0)
(7.04129e-05 7.38895e-08 0)
(7.02831e-05 1.04111e-07 0)
(7.01091e-05 1.34251e-07 0)
(6.9891e-05 1.64308e-07 0)
(6.96291e-05 1.94298e-07 0)
(6.93234e-05 2.24232e-07 0)
(6.89742e-05 2.54091e-07 0)
(6.85815e-05 2.83833e-07 0)
(6.81454e-05 3.13412e-07 0)
(6.76663e-05 3.42819e-07 0)
(6.71443e-05 3.72056e-07 0)
(6.65799e-05 4.01103e-07 0)
(6.59732e-05 4.29924e-07 0)
(6.53247e-05 4.58494e-07 0)
(6.46346e-05 4.86804e-07 0)
(6.39035e-05 5.14835e-07 0)
(6.31318e-05 5.42556e-07 0)
(6.232e-05 5.6994e-07 0)
(6.14686e-05 5.96957e-07 0)
(6.05781e-05 6.23571e-07 0)
(5.96492e-05 6.49749e-07 0)
(5.86826e-05 6.75458e-07 0)
(5.76789e-05 7.00665e-07 0)
(5.66389e-05 7.25334e-07 0)
(5.55636e-05 7.49441e-07 0)
(5.44538e-05 7.72955e-07 0)
(5.33104e-05 7.95821e-07 0)
(5.21344e-05 8.17965e-07 0)
(5.09268e-05 8.39342e-07 0)
(4.96888e-05 8.59921e-07 0)
(4.84216e-05 8.79644e-07 0)
(4.71265e-05 8.9844e-07 0)
(4.5805e-05 9.16281e-07 0)
(4.44585e-05 9.3315e-07 0)
(4.30885e-05 9.48959e-07 0)
(4.16967e-05 9.63596e-07 0)
(4.02847e-05 9.77019e-07 0)
(3.88542e-05 9.89199e-07 0)
(3.74073e-05 1.00003e-06 0)
(3.5946e-05 1.0094e-06 0)
(3.44725e-05 1.0173e-06 0)
(3.29889e-05 1.02368e-06 0)
(3.14976e-05 1.02841e-06 0)
(3.00011e-05 1.03138e-06 0)
(2.85018e-05 1.03254e-06 0)
(2.70024e-05 1.03182e-06 0)
(2.55059e-05 1.02909e-06 0)
(2.40151e-05 1.02429e-06 0)
(2.25332e-05 1.01733e-06 0)
(2.10634e-05 1.0081e-06 0)
(1.96089e-05 9.96483e-07 0)
(1.81733e-05 9.82393e-07 0)
(1.67601e-05 9.65713e-07 0)
(1.53731e-05 9.46338e-07 0)
(1.40163e-05 9.24179e-07 0)
(1.26936e-05 8.99137e-07 0)
(1.14092e-05 8.71116e-07 0)
(1.01674e-05 8.40014e-07 0)
(8.9727e-06 8.05731e-07 0)
(7.82947e-06 7.68185e-07 0)
(6.74231e-06 7.27291e-07 0)
(5.7159e-06 6.82947e-07 0)
(4.75496e-06 6.35093e-07 0)
(3.86417e-06 5.83747e-07 0)
(3.04819e-06 5.28956e-07 0)
(2.31155e-06 4.7078e-07 0)
(1.65848e-06 4.09378e-07 0)
(1.0928e-06 3.4503e-07 0)
(6.17784e-07 2.78135e-07 0)
(2.35796e-07 2.09378e-07 0)
(-5.214e-08 1.39866e-07 0)
(-2.46789e-07 7.11987e-08 0)
(-3.5149e-07 5.74394e-09 0)
(-3.73502e-07 -5.26947e-08 0)
(-3.25393e-07 -9.81495e-08 0)
(-2.2665e-07 -1.21778e-07 0)
(-1.10364e-07 -1.10662e-07 0)
(-2.65795e-08 -5.12453e-08 0)
(-2.43583e-08 1.38578e-07 0)
(-1.05279e-07 2.50622e-07 0)
(-2.11583e-07 2.48917e-07 0)
(-2.79961e-07 1.71972e-07 0)
(-2.69757e-07 4.5592e-08 0)
(-1.53412e-07 -1.12226e-07 0)
(8.86202e-08 -2.8791e-07 0)
(4.66776e-07 -4.73531e-07 0)
(9.85627e-07 -6.63004e-07 0)
(1.64742e-06 -8.51418e-07 0)
(2.45103e-06 -1.03621e-06 0)
(3.39431e-06 -1.21511e-06 0)
(4.47337e-06 -1.38639e-06 0)
(5.68238e-06 -1.5494e-06 0)
(7.01508e-06 -1.70363e-06 0)
(8.46496e-06 -1.84855e-06 0)
(1.0025e-05 -1.98406e-06 0)
(1.16882e-05 -2.11018e-06 0)
(1.34473e-05 -2.22688e-06 0)
(1.52954e-05 -2.33433e-06 0)
(1.72255e-05 -2.43257e-06 0)
(1.92306e-05 -2.52176e-06 0)
(2.13037e-05 -2.60225e-06 0)
(2.3438e-05 -2.67433e-06 0)
(2.56272e-05 -2.73811e-06 0)
(2.78647e-05 -2.79389e-06 0)
(3.01441e-05 -2.84216e-06 0)
(3.24596e-05 -2.88323e-06 0)
(3.48055e-05 -2.91713e-06 0)
(3.71765e-05 -2.9441e-06 0)
(3.9567e-05 -2.96465e-06 0)
(4.19717e-05 -2.97911e-06 0)
(4.43861e-05 -2.98754e-06 0)
(4.68055e-05 -2.99005e-06 0)
(4.92254e-05 -2.98705e-06 0)
(5.16412e-05 -2.979e-06 0)
(5.40487e-05 -2.9661e-06 0)
(5.64444e-05 -2.94831e-06 0)
(5.88245e-05 -2.92585e-06 0)
(6.11851e-05 -2.89916e-06 0)
(6.35227e-05 -2.86855e-06 0)
(6.58342e-05 -2.83406e-06 0)
(6.81169e-05 -2.79574e-06 0)
(7.03678e-05 -2.75384e-06 0)
(7.25837e-05 -2.70871e-06 0)
(7.47619e-05 -2.66058e-06 0)
(7.69002e-05 -2.60952e-06 0)
(7.89963e-05 -2.55559e-06 0)
(8.1048e-05 -2.49895e-06 0)
(8.30531e-05 -2.43987e-06 0)
(8.50096e-05 -2.3785e-06 0)
(8.69157e-05 -2.31497e-06 0)
(8.87696e-05 -2.24935e-06 0)
(9.05697e-05 -2.18178e-06 0)
(9.23144e-05 -2.11238e-06 0)
(9.40023e-05 -2.04132e-06 0)
(9.56319e-05 -1.96871e-06 0)
(9.72021e-05 -1.89462e-06 0)
(9.87117e-05 -1.81913e-06 0)
(0.000100159 -1.74234e-06 0)
(0.000101545 -1.66438e-06 0)
(0.000102866 -1.58532e-06 0)
(0.000104123 -1.50521e-06 0)
(0.000105314 -1.42413e-06 0)
(0.000106439 -1.34219e-06 0)
(0.000107497 -1.25949e-06 0)
(0.000108488 -1.17605e-06 0)
(0.000109411 -1.09189e-06 0)
(0.000110265 -1.00707e-06 0)
(0.00011105 -9.21726e-07 0)
(0.000111765 -8.3592e-07 0)
(0.00011241 -7.49689e-07 0)
(0.000112985 -6.6305e-07 0)
(0.00011349 -5.7603e-07 0)
(0.000113923 -4.88686e-07 0)
(0.000114286 -4.0109e-07 0)
(0.000114576 -3.133e-07 0)
(0.000114796 -2.25353e-07 0)
(0.000114943 -1.3729e-07 0)
(0.000115019 -4.91501e-08 0)
(0.000115024 3.90482e-08 0)
(0.000114956 1.27284e-07 0)
(0.000114817 2.15492e-07 0)
(0.000114606 3.0358e-07 0)
(0.000114323 3.9149e-07 0)
(0.000113969 4.79221e-07 0)
(0.000113543 5.66769e-07 0)
(0.000113046 6.54083e-07 0)
(0.000112479 7.41087e-07 0)
(0.000111841 8.27712e-07 0)
(0.000111132 9.13903e-07 0)
(0.000110354 9.99621e-07 0)
(0.000109506 1.08483e-06 0)
(0.000108589 1.16946e-06 0)
(0.000107603 1.25343e-06 0)
(0.00010655 1.33667e-06 0)
(0.000105429 1.41913e-06 0)
(0.000104242 1.50073e-06 0)
(0.000102988 1.58139e-06 0)
(0.00010167 1.66105e-06 0)
(0.000100287 1.73961e-06 0)
(9.88416e-05 1.81698e-06 0)
(9.73336e-05 1.89306e-06 0)
(9.57645e-05 1.96775e-06 0)
(9.41355e-05 2.04097e-06 0)
(9.24478e-05 2.1126e-06 0)
(9.07029e-05 2.18253e-06 0)
(8.89023e-05 2.25065e-06 0)
(8.70473e-05 2.31684e-06 0)
(8.51397e-05 2.38094e-06 0)
(8.31813e-05 2.44278e-06 0)
(8.11737e-05 2.50225e-06 0)
(7.91192e-05 2.55924e-06 0)
(7.70199e-05 2.61358e-06 0)
(7.48781e-05 2.66509e-06 0)
(7.26961e-05 2.71363e-06 0)
(7.04763e-05 2.75905e-06 0)
(6.82215e-05 2.80109e-06 0)
(6.59345e-05 2.83957e-06 0)
(6.36181e-05 2.87433e-06 0)
(6.12754e-05 2.90521e-06 0)
(5.891e-05 2.93195e-06 0)
(5.65251e-05 2.95434e-06 0)
(5.41245e-05 2.9722e-06 0)
(5.17117e-05 2.98529e-06 0)
(4.92908e-05 2.99332e-06 0)
(4.6866e-05 2.99607e-06 0)
(4.44417e-05 2.99334e-06 0)
(4.20223e-05 2.98485e-06 0)
(3.96126e-05 2.97034e-06 0)
(3.72176e-05 2.94956e-06 0)
(3.48424e-05 2.92224e-06 0)
(3.24923e-05 2.88809e-06 0)
(3.01728e-05 2.84684e-06 0)
(2.78898e-05 2.79821e-06 0)
(2.56492e-05 2.74193e-06 0)
(2.34572e-05 2.67772e-06 0)
(2.13202e-05 2.60531e-06 0)
(1.92446e-05 2.52445e-06 0)
(1.72372e-05 2.43492e-06 0)
(1.53049e-05 2.33645e-06 0)
(1.34546e-05 2.22885e-06 0)
(1.16935e-05 2.11196e-06 0)
(1.00285e-05 1.98566e-06 0)
(8.46699e-06 1.8499e-06 0)
(7.0159e-06 1.70474e-06 0)
(5.6821e-06 1.55041e-06 0)
(4.47216e-06 1.38725e-06 0)
(3.39216e-06 1.21589e-06 0)
(2.44732e-06 1.03731e-06 0)
(1.64189e-06 8.52948e-07 0)
(9.7871e-07 6.6489e-07 0)
(4.58489e-07 4.76258e-07 0)
(7.90936e-08 2.91585e-07 0)
(-1.65274e-07 1.17249e-07 0)
(-2.85446e-07 -3.75788e-08 0)
(-2.98827e-07 -1.5968e-07 0)
(-2.3096e-07 -2.30701e-07 0)
(-1.21907e-07 -2.26631e-07 0)
(-3.17236e-08 -1.18703e-07 0)
(-2.48515e-08 1.92565e-07 0)
(-8.89781e-08 3.42655e-07 0)
(-1.46729e-07 3.16092e-07 0)
(-1.37283e-07 1.64181e-07 0)
(-1.74065e-08 -7.2433e-08 0)
(2.43011e-07 -3.63777e-07 0)
(6.64378e-07 -6.89418e-07 0)
(1.25946e-06 -1.0351e-06 0)
(2.03614e-06 -1.38914e-06 0)
(2.99674e-06 -1.74377e-06 0)
(4.14139e-06 -2.09278e-06 0)
(5.46761e-06 -2.4317e-06 0)
(6.97046e-06 -2.7579e-06 0)
(8.64342e-06 -3.06952e-06 0)
(1.04791e-05 -3.36506e-06 0)
(1.24693e-05 -3.64367e-06 0)
(1.46052e-05 -3.90487e-06 0)
(1.68781e-05 -4.14844e-06 0)
(1.92787e-05 -4.37431e-06 0)
(2.17979e-05 -4.58254e-06 0)
(2.44269e-05 -4.77326e-06 0)
(2.71561e-05 -4.94688e-06 0)
(2.99767e-05 -5.10387e-06 0)
(3.28797e-05 -5.24458e-06 0)
(3.58567e-05 -5.3694e-06 0)
(3.88989e-05 -5.47901e-06 0)
(4.1998e-05 -5.57403e-06 0)
(4.51462e-05 -5.65477e-06 0)
(4.8336e-05 -5.72161e-06 0)
(5.15598e-05 -5.77521e-06 0)
(5.48103e-05 -5.8163e-06 0)
(5.80807e-05 -5.84523e-06 0)
(6.13648e-05 -5.86231e-06 0)
(6.4656e-05 -5.86806e-06 0)
(6.79481e-05 -5.86322e-06 0)
(7.1235e-05 -5.84829e-06 0)
(7.45116e-05 -5.82353e-06 0)
(7.77724e-05 -5.78929e-06 0)
(8.10123e-05 -5.74613e-06 0)
(8.42261e-05 -5.69466e-06 0)
(8.74092e-05 -5.63524e-06 0)
(9.05575e-05 -5.56806e-06 0)
(9.36669e-05 -5.49345e-06 0)
(9.67331e-05 -5.41196e-06 0)
(9.97522e-05 -5.32408e-06 0)
(0.000102721 -5.2301e-06 0)
(0.000105635 -5.13023e-06 0)
(0.000108492 -5.02476e-06 0)
(0.000111289 -4.91406e-06 0)
(0.000114023 -4.79848e-06 0)
(0.000116691 -4.67831e-06 0)
(0.000119291 -4.55377e-06 0)
(0.00012182 -4.42513e-06 0)
(0.000124275 -4.29263e-06 0)
(0.000126655 -4.15654e-06 0)
(0.000128959 -4.0171e-06 0)
(0.000131182 -3.87453e-06 0)
(0.000133325 -3.72901e-06 0)
(0.000135386 -3.58071e-06 0)
(0.000137362 -3.42986e-06 0)
(0.000139253 -3.27663e-06 0)
(0.000141057 -3.12118e-06 0)
(0.000142773 -2.96364e-06 0)
(0.0001444 -2.80419e-06 0)
(0.000145936 -2.64304e-06 0)
(0.000147381 -2.48031e-06 0)
(0.000148735 -2.31607e-06 0)
(0.000149995 -2.15042e-06 0)
(0.000151162 -1.98353e-06 0)
(0.000152234 -1.81555e-06 0)
(0.000153211 -1.64662e-06 0)
(0.000154093 -1.47679e-06 0)
(0.000154878 -1.30614e-06 0)
(0.000155567 -1.13476e-06 0)
(0.00015616 -9.62762e-07 0)
(0.000156655 -7.90241e-07 0)
(0.000157052 -6.17313e-07 0)
(0.000157352 -4.44076e-07 0)
(0.000157554 -2.70601e-07 0)
(0.000157658 -9.6942e-08 0)
(0.000157664 7.68277e-08 0)
(0.000157571 2.50617e-07 0)
(0.000157381 4.24315e-07 0)
(0.000157093 5.97806e-07 0)
(0.000156707 7.71004e-07 0)
(0.000156223 9.4386e-07 0)
(0.000155642 1.11631e-06 0)
(0.000154963 1.28826e-06 0)
(0.000154188 1.45956e-06 0)
(0.000153316 1.6301e-06 0)
(0.000152349 1.79981e-06 0)
(0.000151285 1.96858e-06 0)
(0.000150127 2.1363e-06 0)
(0.000148875 2.30285e-06 0)
(0.000147529 2.46808e-06 0)
(0.000146091 2.63186e-06 0)
(0.00014456 2.79407e-06 0)
(0.000142939 2.95457e-06 0)
(0.000141228 3.11319e-06 0)
(0.000139429 3.26979e-06 0)
(0.000137542 3.42419e-06 0)
(0.000135568 3.57622e-06 0)
(0.00013351 3.72569e-06 0)
(0.000131369 3.87239e-06 0)
(0.000129146 4.01615e-06 0)
(0.000126844 4.15674e-06 0)
(0.000124463 4.29395e-06 0)
(0.000122007 4.42752e-06 0)
(0.000119477 4.55721e-06 0)
(0.000116875 4.68278e-06 0)
(0.000114205 4.80392e-06 0)
(0.000111468 4.92036e-06 0)
(0.000108667 5.03186e-06 0)
(0.000105806 5.13813e-06 0)
(0.000102887 5.2388e-06 0)
(9.99132e-05 5.33353e-06 0)
(9.68888e-05 5.42204e-06 0)
(9.3817e-05 5.50397e-06 0)
(9.07018e-05 5.57891e-06 0)
(8.75472e-05 5.64648e-06 0)
(8.43573e-05 5.70635e-06 0)
(8.11368e-05 5.75812e-06 0)
(7.78903e-05 5.80132e-06 0)
(7.46228e-05 5.83555e-06 0)
(7.13393e-05 5.8604e-06 0)
(6.80452e-05 5.8754e-06 0)
(6.47463e-05 5.88006e-06 0)
(6.14483e-05 5.87395e-06 0)
(5.81575e-05 5.85658e-06 0)
(5.48803e-05 5.82743e-06 0)
(5.16233e-05 5.78604e-06 0)
(4.83935e-05 5.73189e-06 0)
(4.5198e-05 5.66446e-06 0)
(4.20442e-05 5.58324e-06 0)
(3.89399e-05 5.48772e-06 0)
(3.5893e-05 5.3774e-06 0)
(3.29118e-05 5.25179e-06 0)
(3.00047e-05 5.11038e-06 0)
(2.71803e-05 4.95273e-06 0)
(2.44476e-05 4.77844e-06 0)
(2.18154e-05 4.58714e-06 0)
(1.9293e-05 4.3785e-06 0)
(1.68894e-05 4.15227e-06 0)
(1.46138e-05 3.90835e-06 0)
(1.24755e-05 3.64678e-06 0)
(1.04833e-05 3.3678e-06 0)
(8.64588e-06 3.07197e-06 0)
(6.97128e-06 2.76021e-06 0)
(5.46686e-06 2.43388e-06 0)
(4.13886e-06 2.09503e-06 0)
(2.99208e-06 1.74666e-06 0)
(2.02944e-06 1.3929e-06 0)
(1.2513e-06 1.03961e-06 0)
(6.54487e-07 6.95015e-07 0)
(2.31484e-07 3.70476e-07 0)
(-3.06374e-08 8.13536e-08 0)
(-1.51717e-07 -1.51264e-07 0)
(-1.60145e-07 -2.99041e-07 0)
(-9.85189e-08 -3.25789e-07 0)
(-2.83436e-08 -1.84598e-07 0)
(-1.8269e-08 2.35839e-07 0)
(-4.69857e-08 3.86434e-07 0)
(-2.97239e-08 2.99417e-07 0)
(8.98401e-08 4.16599e-08 0)
(3.54063e-07 -3.35488e-07 0)
(7.91535e-07 -7.93757e-07 0)
(1.42245e-06 -1.30478e-06 0)
(2.26153e-06 -1.84627e-06 0)
(3.31675e-06 -2.4024e-06 0)
(4.59206e-06 -2.9607e-06 0)
(6.08776e-06 -3.51158e-06 0)
(7.8009e-06 -4.04854e-06 0)
(9.7261e-06 -4.56692e-06 0)
(1.18563e-05 -5.06328e-06 0)
(1.41832e-05 -5.53528e-06 0)
(1.66974e-05 -5.98132e-06 0)
(1.93887e-05 -6.4004e-06 0)
(2.22467e-05 -6.79192e-06 0)
(2.52609e-05 -7.15562e-06 0)
(2.84205e-05 -7.49139e-06 0)
(3.17144e-05 -7.79956e-06 0)
(3.51315e-05 -8.08063e-06 0)
(3.86611e-05 -8.33504e-06 0)
(4.22925e-05 -8.56332e-06 0)
(4.60151e-05 -8.76631e-06 0)
(4.98183e-05 -8.94493e-06 0)
(5.36923e-05 -9.09983e-06 0)
(5.76275e-05 -9.23159e-06 0)
(6.16145e-05 -9.34109e-06 0)
(6.56438e-05 -9.42933e-06 0)
(6.97066e-05 -9.49709e-06 0)
(7.37948e-05 -9.54493e-06 0)
(7.79002e-05 -9.57359e-06 0)
(8.20147e-05 -9.58408e-06 0)
(8.61306e-05 -9.57729e-06 0)
(9.02406e-05 -9.55385e-06 0)
(9.43382e-05 -9.51428e-06 0)
(9.84165e-05 -9.45939e-06 0)
(0.000102469 -9.39007e-06 0)
(0.000106489 -9.30705e-06 0)
(0.000110472 -9.21082e-06 0)
(0.000114412 -9.1019e-06 0)
(0.000118303 -8.98098e-06 0)
(0.00012214 -8.84884e-06 0)
(0.000125919 -8.70612e-06 0)
(0.000129636 -8.55325e-06 0)
(0.000133285 -8.39071e-06 0)
(0.000136863 -8.21905e-06 0)
(0.000140366 -8.03883e-06 0)
(0.00014379 -7.85054e-06 0)
(0.000147132 -7.65464e-06 0)
(0.000150389 -7.45154e-06 0)
(0.000153557 -7.24165e-06 0)
(0.000156634 -7.02541e-06 0)
(0.000159618 -6.80326e-06 0)
(0.000162504 -6.57557e-06 0)
(0.000165291 -6.34265e-06 0)
(0.000167978 -6.10484e-06 0)
(0.000170561 -5.86248e-06 0)
(0.000173039 -5.61589e-06 0)
(0.00017541 -5.36533e-06 0)
(0.000177672 -5.11107e-06 0)
(0.000179824 -4.85338e-06 0)
(0.000181864 -4.59257e-06 0)
(0.000183791 -4.32889e-06 0)
(0.000185604 -4.06253e-06 0)
(0.000187302 -3.79366e-06 0)
(0.000188883 -3.5225e-06 0)
(0.000190346 -3.2493e-06 0)
(0.000191692 -2.97429e-06 0)
(0.000192918 -2.69764e-06 0)
(0.000194024 -2.41948e-06 0)
(0.00019501 -2.13996e-06 0)
(0.000195874 -1.85924e-06 0)
(0.000196618 -1.5775e-06 0)
(0.000197239 -1.29491e-06 0)
(0.000197738 -1.01162e-06 0)
(0.000198114 -7.27809e-07 0)
(0.000198368 -4.43591e-07 0)
(0.000198498 -1.59058e-07 0)
(0.000198506 1.25653e-07 0)
(0.00019839 4.10369e-07 0)
(0.000198152 6.94911e-07 0)
(0.00019779 9.79124e-07 0)
(0.000197306 1.26288e-06 0)
(0.000196699 1.54607e-06 0)
(0.00019597 1.82857e-06 0)
(0.000195119 2.1102e-06 0)
(0.000194146 2.39075e-06 0)
(0.000193053 2.67007e-06 0)
(0.000191839 2.948e-06 0)
(0.000190505 3.22436e-06 0)
(0.000189053 3.49895e-06 0)
(0.000187482 3.77156e-06 0)
(0.000185794 4.042e-06 0)
(0.00018399 4.31006e-06 0)
(0.000182071 4.5755e-06 0)
(0.000180038 4.8381e-06 0)
(0.000177893 5.0976e-06 0)
(0.000175636 5.35373e-06 0)
(0.00017327 5.60621e-06 0)
(0.000170797 5.85475e-06 0)
(0.000168217 6.09903e-06 0)
(0.000165533 6.33875e-06 0)
(0.000162747 6.57358e-06 0)
(0.000159861 6.80318e-06 0)
(0.000156878 7.02719e-06 0)
(0.000153801 7.24521e-06 0)
(0.000150631 7.45682e-06 0)
(0.000147372 7.6616e-06 0)
(0.000144027 7.85911e-06 0)
(0.000140598 8.04888e-06 0)
(0.000137091 8.23048e-06 0)
(0.000133508 8.40346e-06 0)
(0.000129853 8.56727e-06 0)
(0.000126131 8.72133e-06 0)
(0.000122345 8.86512e-06 0)
(0.0001185 8.99812e-06 0)
(0.000114602 9.11969e-06 0)
(0.000110654 9.22918e-06 0)
(0.000106663 9.32601e-06 0)
(0.000102635 9.40958e-06 0)
(9.85737e-05 9.47919e-06 0)
(9.4487e-05 9.53411e-06 0)
(9.03807e-05 9.57368e-06 0)
(8.62617e-05 9.59718e-06 0)
(8.21369e-05 9.60385e-06 0)
(7.80138e-05 9.59296e-06 0)
(7.38999e-05 9.56376e-06 0)
(6.98032e-05 9.51545e-06 0)
(6.5732e-05 9.44724e-06 0)
(6.16947e-05 9.35834e-06 0)
(5.77003e-05 9.24795e-06 0)
(5.37579e-05 9.11526e-06 0)
(4.9877e-05 8.9595e-06 0)
(4.60673e-05 8.77991e-06 0)
(4.23389e-05 8.57573e-06 0)
(3.87021e-05 8.34625e-06 0)
(3.51673e-05 8.09079e-06 0)
(3.17454e-05 7.80876e-06 0)
(2.84471e-05 7.49967e-06 0)
(2.52833e-05 7.16309e-06 0)
(2.2265e-05 6.79876e-06 0)
(1.94031e-05 6.40668e-06 0)
(1.67084e-05 5.98707e-06 0)
(1.41913e-05 5.54049e-06 0)
(1.18619e-05 5.068e-06 0)
(9.72935e-06 4.57126e-06 0)
(7.80195e-06 4.05268e-06 0)
(6.0867e-06 3.5157e-06 0)
(4.58874e-06 2.9652e-06 0)
(3.31105e-06 2.40786e-06 0)
(2.25377e-06 1.85266e-06 0)
(1.41327e-06 1.31186e-06 0)
(7.81115e-07 8.0204e-07 0)
(3.43395e-07 3.45137e-07 0)
(7.97904e-08 -3.01547e-08 0)
(-3.86342e-08 -2.86085e-07 0)
(-5.32761e-08 -3.74594e-07 0)
(-2.03713e-08 -2.31325e-07 0)
(-9.17827e-09 2.53035e-07 0)
(8.24569e-09 3.6089e-07 0)
(1.21324e-07 1.75834e-07 0)
(3.75813e-07 -2.21768e-07 0)
(8.08567e-07 -7.72655e-07 0)
(1.44674e-06 -1.43073e-06 0)
(2.31075e-06 -2.15902e-06 0)
(3.41389e-06 -2.92964e-06 0)
(4.76481e-06 -3.72085e-06 0)
(6.36764e-06 -4.51576e-06 0)
(8.22247e-06 -5.30189e-06 0)
(1.03259e-05 -6.07002e-06 0)
(1.26723e-05 -6.81316e-06 0)
(1.52541e-05 -7.52633e-06 0)
(1.80621e-05 -8.20588e-06 0)
(2.1086e-05 -8.8493e-06 0)
(2.43146e-05 -9.4549e-06 0)
(2.77365e-05 -1.00216e-05 0)
(3.13396e-05 -1.05487e-05 0)
(3.51117e-05 -1.10362e-05 0)
(3.90401e-05 -1.14844e-05 0)
(4.31123e-05 -1.18936e-05 0)
(4.7316e-05 -1.22645e-05 0)
(5.16388e-05 -1.25979e-05 0)
(5.60683e-05 -1.28948e-05 0)
(6.05926e-05 -1.31564e-05 0)
(6.52003e-05 -1.33833e-05 0)
(6.98801e-05 -1.35767e-05 0)
(7.46207e-05 -1.37379e-05 0)
(7.94114e-05 -1.38681e-05 0)
(8.42422e-05 -1.39681e-05 0)
(8.91031e-05 -1.40391e-05 0)
(9.39844e-05 -1.40822e-05 0)
(9.88765e-05 -1.40988e-05 0)
(0.000103771 -1.40899e-05 0)
(0.000108658 -1.40564e-05 0)
(0.000113532 -1.39994e-05 0)
(0.000118382 -1.39199e-05 0)
(0.000123202 -1.38193e-05 0)
(0.000127985 -1.36983e-05 0)
(0.000132723 -1.35578e-05 0)
(0.000137411 -1.33987e-05 0)
(0.000142041 -1.3222e-05 0)
(0.000146608 -1.30288e-05 0)
(0.000151106 -1.28198e-05 0)
(0.000155529 -1.25958e-05 0)
(0.000159873 -1.23575e-05 0)
(0.000164133 -1.21057e-05 0)
(0.000168304 -1.18413e-05 0)
(0.000172382 -1.1565e-05 0)
(0.000176362 -1.12773e-05 0)
(0.000180241 -1.09789e-05 0)
(0.000184015 -1.06705e-05 0)
(0.00018768 -1.03527e-05 0)
(0.000191234 -1.00261e-05 0)
(0.000194673 -9.69118e-06 0)
(0.000197994 -9.34851e-06 0)
(0.000201196 -8.99857e-06 0)
(0.000204274 -8.64187e-06 0)
(0.000207227 -8.27885e-06 0)
(0.000210053 -7.90992e-06 0)
(0.00021275 -7.53547e-06 0)
(0.000215315 -7.15595e-06 0)
(0.000217748 -6.77177e-06 0)
(0.000220045 -6.38327e-06 0)
(0.000222207 -5.99074e-06 0)
(0.000224231 -5.59448e-06 0)
(0.000226116 -5.19483e-06 0)
(0.000227862 -4.79216e-06 0)
(0.000229466 -4.38676e-06 0)
(0.000230928 -3.97886e-06 0)
(0.000232247 -3.5687e-06 0)
(0.000233423 -3.15651e-06 0)
(0.000234455 -2.74254e-06 0)
(0.000235341 -2.32705e-06 0)
(0.000236082 -1.91029e-06 0)
(0.000236678 -1.49251e-06 0)
(0.000237127 -1.07391e-06 0)
(0.000237429 -6.54675e-07 0)
(0.000237585 -2.34973e-07 0)
(0.000237594 1.84977e-07 0)
(0.000237457 6.04907e-07 0)
(0.000237173 1.02456e-06 0)
(0.000236741 1.44375e-06 0)
(0.000236164 1.86229e-06 0)
(0.00023544 2.27999e-06 0)
(0.000234571 2.69661e-06 0)
(0.000233556 3.11191e-06 0)
(0.000232397 3.52561e-06 0)
(0.000231093 3.93746e-06 0)
(0.000229646 4.34722e-06 0)
(0.000228056 4.75464e-06 0)
(0.000226324 5.1594e-06 0)
(0.000224452 5.56122e-06 0)
(0.000222439 5.95979e-06 0)
(0.000220289 6.3548e-06 0)
(0.000218001 6.74591e-06 0)
(0.000215578 7.13277e-06 0)
(0.000213021 7.515e-06 0)
(0.000210331 7.89221e-06 0)
(0.000207512 8.26398e-06 0)
(0.000204564 8.62987e-06 0)
(0.000201489 8.98943e-06 0)
(0.000198291 9.3422e-06 0)
(0.000194972 9.68768e-06 0)
(0.000191534 1.00254e-05 0)
(0.000187981 1.03548e-05 0)
(0.000184315 1.06753e-05 0)
(0.000180539 1.09863e-05 0)
(0.000176658 1.12871e-05 0)
(0.000172674 1.15772e-05 0)
(0.000168592 1.18558e-05 0)
(0.000164416 1.21223e-05 0)
(0.00016015 1.2376e-05 0)
(0.0001558 1.26162e-05 0)
(0.000151369 1.2842e-05 0)
(0.000146863 1.30526e-05 0)
(0.000142288 1.32472e-05 0)
(0.000137649 1.3425e-05 0)
(0.000132952 1.35849e-05 0)
(0.000128204 1.37263e-05 0)
(0.000123411 1.3848e-05 0)
(0.000118581 1.39492e-05 0)
(0.00011372 1.40289e-05 0)
(0.000108836 1.40859e-05 0)
(0.000103938 1.41194e-05 0)
(9.90326e-05 1.41281e-05 0)
(9.41298e-05 1.41112e-05 0)
(8.92381e-05 1.40674e-05 0)
(8.43669e-05 1.39956e-05 0)
(7.9526e-05 1.38948e-05 0)
(7.47253e-05 1.37638e-05 0)
(6.99753e-05 1.36015e-05 0)
(6.52865e-05 1.34067e-05 0)
(6.06703e-05 1.31784e-05 0)
(5.61377e-05 1.29155e-05 0)
(5.17007e-05 1.26171e-05 0)
(4.73709e-05 1.22821e-05 0)
(4.31606e-05 1.19096e-05 0)
(3.90822e-05 1.1499e-05 0)
(3.5148e-05 1.10495e-05 0)
(3.13705e-05 1.05607e-05 0)
(2.77621e-05 1.00325e-05 0)
(2.43353e-05 9.46492e-06 0)
(2.11021e-05 8.85851e-06 0)
(1.80743e-05 8.21432e-06 0)
(1.52628e-05 7.53404e-06 0)
(1.2678e-05 6.82027e-06 0)
(1.03288e-05 6.0767e-06 0)
(8.22285e-06 5.30838e-06 0)
(6.3657e-06 4.52228e-06 0)
(4.76044e-06 3.72783e-06 0)
(3.4072e-06 2.93747e-06 0)
(2.30246e-06 2.16759e-06 0)
(1.43796e-06 1.4398e-06 0)
(7.99815e-07 7.82388e-07 0)
(3.68175e-07 2.31608e-07 0)
(1.15526e-07 -1.66518e-07 0)
(4.7997e-09 -3.53333e-07 0)
(-1.0149e-08 -2.50184e-07 0)
(1.20584e-09 2.37592e-07 0)
(7.146e-08 2.5422e-07 0)
(2.93857e-07 -6.99438e-08 0)
(6.98933e-07 -6.45626e-07 0)
(1.31706e-06 -1.40534e-06 0)
(2.17395e-06 -2.2949e-06 0)
(3.28733e-06 -3.27167e-06 0)
(4.66987e-06 -4.30148e-06 0)
(6.32939e-06 -5.35731e-06 0)
(8.26933e-06 -6.41853e-06 0)
(1.0489e-05 -7.46941e-06 0)
(1.29849e-05 -8.49772e-06 0)
(1.57509e-05 -9.4943e-06 0)
(1.87788e-05 -1.04523e-05 0)
(2.20588e-05 -1.13667e-05 0)
(2.55798e-05 -1.22338e-05 0)
(2.93298e-05 -1.30513e-05 0)
(3.32963e-05 -1.38171e-05 0)
(3.74661e-05 -1.45305e-05 0)
(4.18256e-05 -1.51913e-05 0)
(4.63609e-05 -1.57995e-05 0)
(5.10585e-05 -1.63555e-05 0)
(5.59043e-05 -1.686e-05 0)
(6.08845e-05 -1.73142e-05 0)
(6.59854e-05 -1.77193e-05 0)
(7.1194e-05 -1.80762e-05 0)
(7.64972e-05 -1.83863e-05 0)
(8.18821e-05 -1.8651e-05 0)
(8.73361e-05 -1.8872e-05 0)
(9.28472e-05 -1.90507e-05 0)
(9.84042e-05 -1.91882e-05 0)
(0.000103996 -1.92862e-05 0)
(0.00010961 -1.93464e-05 0)
(0.000115237 -1.93702e-05 0)
(0.000120866 -1.9359e-05 0)
(0.000126489 -1.93141e-05 0)
(0.000132095 -1.9237e-05 0)
(0.000137674 -1.91293e-05 0)
(0.00014322 -1.89925e-05 0)
(0.000148722 -1.88275e-05 0)
(0.000154174 -1.86358e-05 0)
(0.000159568 -1.84185e-05 0)
(0.000164897 -1.81772e-05 0)
(0.000170153 -1.7913e-05 0)
(0.000175329 -1.7627e-05 0)
(0.000180421 -1.73203e-05 0)
(0.000185422 -1.69939e-05 0)
(0.000190327 -1.6649e-05 0)
(0.000195129 -1.62866e-05 0)
(0.000199824 -1.59077e-05 0)
(0.000204407 -1.5513e-05 0)
(0.000208875 -1.51036e-05 0)
(0.000213221 -1.46804e-05 0)
(0.000217443 -1.42441e-05 0)
(0.000221537 -1.37956e-05 0)
(0.000225499 -1.33356e-05 0)
(0.000229326 -1.28649e-05 0)
(0.000233014 -1.2384e-05 0)
(0.000236561 -1.18938e-05 0)
(0.000239964 -1.13948e-05 0)
(0.000243221 -1.08875e-05 0)
(0.000246329 -1.03726e-05 0)
(0.000249286 -9.85072e-06 0)
(0.000252089 -9.32231e-06 0)
(0.000254738 -8.78785e-06 0)
(0.000257229 -8.24776e-06 0)
(0.000259563 -7.70251e-06 0)
(0.000261736 -7.15259e-06 0)
(0.000263748 -6.59844e-06 0)
(0.000265598 -6.04044e-06 0)
(0.000267284 -5.47894e-06 0)
(0.000268805 -4.91429e-06 0)
(0.000270161 -4.34683e-06 0)