/*--------------------------------*- C++ -*----------------------------------*\
  =========                 |
  \\      /  F ield         | OpenFOAM: The Open Source CFD Toolbox
   \\    /   O peration     | Website:  https://openfoam.org
    \\  /    A nd           | Version:  7
     \\/     M anipulation  |
\*---------------------------------------------------------------------------*/
FoamFile
{
    version     2.0;
    format      ascii;
    class       volScalarField;
    location    "0.3875";
    object      p;
}
// * * * * * * * * * * * * * * * * * * * * * * * * * * * * * * * * * * * * * //

dimensions      [0 2 -2 0 0 0 0];

internalField   nonuniform List<scalar> 
51200
(
-1.84257e-08
4.96542e-06
1.2228e-05
1.90397e-05
2.4395e-05
2.88189e-05
3.25524e-05
3.57495e-05
3.85083e-05
4.08973e-05
4.29604e-05
4.47415e-05
4.62756e-05
4.75887e-05
4.86974e-05
4.96174e-05
5.03566e-05
5.0932e-05
5.136e-05
5.16486e-05
5.18118e-05
5.18584e-05
5.17938e-05
5.16288e-05
5.13696e-05
5.10171e-05
5.05746e-05
5.00483e-05
4.94431e-05
4.87634e-05
4.80138e-05
4.72011e-05
4.63285e-05
4.53994e-05
4.44214e-05
4.33983e-05
4.23297e-05
4.12184e-05
4.00682e-05
3.88806e-05
3.76569e-05
3.64001e-05
3.51144e-05
3.3804e-05
3.24715e-05
3.1118e-05
2.97465e-05
2.83597e-05
2.69565e-05
2.55381e-05
2.41087e-05
2.26715e-05
2.12253e-05
1.97686e-05
1.83051e-05
1.68387e-05
1.53688e-05
1.38948e-05
1.24173e-05
1.09379e-05
9.45852e-06
7.97888e-06
6.49686e-06
5.01272e-06
3.52859e-06
2.04539e-06
5.61133e-07
-9.2609e-07
-2.41507e-06
-3.9047e-06
-5.39681e-06
-6.8929e-06
-8.39145e-06
-9.89096e-06
-1.13933e-05
-1.29024e-05
-1.44196e-05
-1.59426e-05
-1.74691e-05
-1.8999e-05
-2.05347e-05
-2.20801e-05
-2.36364e-05
-2.52019e-05
-2.67741e-05
-2.83538e-05
-2.99426e-05
-3.1541e-05
-3.31472e-05
-3.47603e-05
-3.63825e-05
-3.80179e-05
-3.96676e-05
-4.13294e-05
-4.29996e-05
-4.46757e-05
-4.63587e-05
-4.80514e-05
-4.97556e-05
-5.14703e-05
-5.31928e-05
-5.4922e-05
-5.66597e-05
-5.84065e-05
-6.01613e-05
-6.19209e-05
-6.36827e-05
-6.54474e-05
-6.72157e-05
-6.8987e-05
-7.07597e-05
-7.25318e-05
-7.43013e-05
-7.60674e-05
-7.78298e-05
-7.9586e-05
-8.13334e-05
-8.30697e-05
-8.47926e-05
-8.65017e-05
-8.81952e-05
-8.987e-05
-9.1524e-05
-9.3155e-05
-9.47586e-05
-9.63314e-05
-9.78722e-05
-9.93807e-05
-0.000100855
-0.000102289
-0.000103679
-0.000105023
-0.000106321
-0.000107569
-0.000108762
-0.000109898
-0.000110977
-0.000111993
-0.000112942
-0.000113822
-0.000114631
-0.000115369
-0.000116034
-0.000116621
-0.000117124
-0.000117544
-0.000117882
-0.000118137
-0.000118308
-0.000118396
-0.000118403
-0.000118332
-0.000118192
-0.000117991
-0.00011774
-0.000117456
-0.000117164
-0.000116899
-0.000116706
-0.000116627
4.76341e-06
9.48925e-06
1.52755e-05
2.07442e-05
2.54225e-05
2.94111e-05
3.28423e-05
3.58206e-05
3.84214e-05
4.06905e-05
4.26684e-05
4.43875e-05
4.58763e-05
4.71573e-05
4.82468e-05
4.91539e-05
4.9891e-05
5.04723e-05
5.09074e-05
5.12113e-05
5.13924e-05
5.14555e-05
5.14128e-05
5.12712e-05
5.10354e-05
5.07118e-05
5.03014e-05
4.98075e-05
4.92341e-05
4.85849e-05
4.78674e-05
4.70866e-05
4.62445e-05
4.53466e-05
4.43978e-05
4.33995e-05
4.23552e-05
4.12689e-05
4.01428e-05
3.89794e-05
3.77801e-05
3.65463e-05
3.52808e-05
3.39871e-05
3.26673e-05
3.1325e-05
2.99661e-05
2.85919e-05
2.72001e-05
2.57925e-05
2.43722e-05
2.29401e-05
2.14957e-05
2.00405e-05
1.85774e-05
1.71091e-05
1.56364e-05
1.41598e-05
1.26793e-05
1.11949e-05
9.70834e-06
8.21953e-06
6.72697e-06
5.23208e-06
3.7367e-06
2.23974e-06
7.39503e-07
-7.63123e-07
-2.26583e-06
-3.76907e-06
-5.27634e-06
-6.78942e-06
-8.30654e-06
-9.82591e-06
-1.13478e-05
-1.28744e-05
-1.44081e-05
-1.59485e-05
-1.74939e-05
-1.90431e-05
-2.05985e-05
-2.21636e-05
-2.37388e-05
-2.53213e-05
-2.69097e-05
-2.85056e-05
-3.01106e-05
-3.17241e-05
-3.33446e-05
-3.49719e-05
-3.66089e-05
-3.82584e-05
-3.99201e-05
-4.15915e-05
-4.32701e-05
-4.49542e-05
-4.66444e-05
-4.8343e-05
-5.00515e-05
-5.17692e-05
-5.34935e-05
-5.52231e-05
-5.69602e-05
-5.87058e-05
-6.04575e-05
-6.2211e-05
-6.39642e-05
-6.57191e-05
-6.74781e-05
-6.92401e-05
-7.10016e-05
-7.27597e-05
-7.45125e-05
-7.62594e-05
-7.80015e-05
-7.97376e-05
-8.1465e-05
-8.31798e-05
-8.48785e-05
-8.65607e-05
-8.82271e-05
-8.98754e-05
-9.15017e-05
-9.31024e-05
-9.46742e-05
-9.62148e-05
-9.77233e-05
-9.91995e-05
-0.000100641
-0.000102044
-0.000103403
-0.000104714
-0.000105977
-0.000107193
-0.000108357
-0.000109464
-0.000110513
-0.000111502
-0.000112425
-0.000113282
-0.000114072
-0.000114793
-0.000115443
-0.000116019
-0.000116517
-0.000116936
-0.000117277
-0.000117542
-0.00011773
-0.000117842
-0.00011788
-0.000117849
-0.000117756
-0.000117609
-0.000117422
-0.000117207
-0.000116984
-0.000116779
-0.000116622
-0.000116543
1.16336e-05
1.49555e-05
1.89541e-05
2.31074e-05
2.69777e-05
3.04492e-05
3.3527e-05
3.62519e-05
3.86618e-05
4.07879e-05
4.26595e-05
4.43001e-05
4.57301e-05
4.69675e-05
4.80215e-05
4.89048e-05
4.96288e-05
5.02002e-05
5.06348e-05
5.09433e-05
5.113e-05
5.12068e-05
5.11791e-05
5.10517e-05
5.08331e-05
5.05276e-05
5.01379e-05
4.96669e-05
4.91156e-05
4.84894e-05
4.77955e-05
4.70372e-05
4.62187e-05
4.53452e-05
4.44184e-05
4.34406e-05
4.24162e-05
4.13485e-05
4.02407e-05
3.90951e-05
3.79128e-05
3.66964e-05
3.54485e-05
3.4169e-05
3.28608e-05
3.15298e-05
3.01809e-05
2.88142e-05
2.74297e-05
2.60303e-05
2.46167e-05
2.31872e-05
2.17442e-05
2.02908e-05
1.88285e-05
1.73587e-05
1.58825e-05
1.44013e-05
1.29169e-05
1.14293e-05
9.93682e-06
8.43856e-06
6.93595e-06
5.43241e-06
3.92789e-06
2.41926e-06
9.06189e-07
-6.08645e-07
-2.12412e-06
-3.64197e-06
-5.16454e-06
-6.69231e-06
-8.22429e-06
-9.75997e-06
-1.12993e-05
-1.28429e-05
-1.43921e-05
-1.59471e-05
-1.75067e-05
-1.90714e-05
-2.06441e-05
-2.22269e-05
-2.38184e-05
-2.54161e-05
-2.702e-05
-2.86319e-05
-3.02515e-05
-3.18771e-05
-3.35083e-05
-3.51475e-05
-3.6798e-05
-3.8461e-05
-4.0134e-05
-4.18139e-05
-4.34992e-05
-4.51902e-05
-4.6888e-05
-4.85935e-05
-5.03067e-05
-5.20264e-05
-5.37515e-05
-5.54824e-05
-5.72208e-05
-5.89663e-05
-6.07155e-05
-6.24646e-05
-6.42121e-05
-6.59603e-05
-6.77114e-05
-6.94645e-05
-7.12166e-05
-7.2964e-05
-7.47049e-05
-7.64384e-05
-7.81649e-05
-7.98845e-05
-8.15949e-05
-8.32917e-05
-8.49712e-05
-8.66329e-05
-8.82777e-05
-8.99043e-05
-9.1508e-05
-9.30838e-05
-9.46299e-05
-9.61459e-05
-9.76303e-05
-9.90808e-05
-0.000100496
-0.000101872
-0.000103206
-0.000104492
-0.000105729
-0.00010692
-0.00010806
-0.000109146
-0.000110172
-0.000111138
-0.000112041
-0.000112882
-0.000113657
-0.000114365
-0.000115004
-0.000115572
-0.000116066
-0.000116485
-0.000116831
-0.000117104
-0.000117304
-0.000117434
-0.000117495
-0.000117491
-0.00011743
-0.00011732
-0.000117171
-0.000116995
-0.000116807
-0.000116626
-0.000116467
-0.000116347
1.79234e-05
2.00175e-05
2.27508e-05
2.58275e-05
2.89224e-05
3.18525e-05
3.45472e-05
3.69918e-05
3.91875e-05
4.1151e-05
4.28972e-05
4.44419e-05
4.58006e-05
4.69794e-05
4.79865e-05
4.88359e-05
4.95323e-05
5.0088e-05
5.05138e-05
5.08134e-05
5.10002e-05
5.10818e-05
5.10612e-05
5.09455e-05
5.07382e-05
5.04441e-05
5.00677e-05
4.961e-05
4.90739e-05
4.84651e-05
4.7788e-05
4.70466e-05
4.62465e-05
4.53909e-05
4.44818e-05
4.35219e-05
4.25146e-05
4.14637e-05
4.03715e-05
3.92389e-05
3.80688e-05
3.6865e-05
3.56284e-05
3.43593e-05
3.30625e-05
3.17433e-05
3.04026e-05
2.90415e-05
2.76632e-05
2.62698e-05
2.48602e-05
2.34326e-05
2.19903e-05
2.05376e-05
1.90758e-05
1.76054e-05
1.61264e-05
1.46403e-05
1.31513e-05
1.16592e-05
1.01602e-05
8.65376e-06
7.14327e-06
5.63118e-06
4.11591e-06
2.59519e-06
1.07086e-06
-4.54373e-07
-1.98167e-06
-3.51369e-06
-5.05091e-06
-6.59225e-06
-8.13728e-06
-9.68692e-06
-1.12421e-05
-1.28027e-05
-1.43681e-05
-1.59371e-05
-1.75097e-05
-1.90891e-05
-2.06783e-05
-2.22766e-05
-2.38815e-05
-2.54926e-05
-2.71114e-05
-2.87388e-05
-3.03725e-05
-3.201e-05
-3.3652e-05
-3.53025e-05
-3.69652e-05
-3.86404e-05
-4.03245e-05
-4.20129e-05
-4.37044e-05
-4.54015e-05
-4.71067e-05
-4.88197e-05
-5.05382e-05
-5.22604e-05
-5.39871e-05
-5.57205e-05
-5.74611e-05
-5.92063e-05
-6.09528e-05
-6.26981e-05
-6.44424e-05
-6.61874e-05
-6.79335e-05
-6.96791e-05
-7.14221e-05
-7.31597e-05
-7.48904e-05
-7.66142e-05
-7.833e-05
-8.00365e-05
-8.17318e-05
-8.34125e-05
-8.50758e-05
-8.67213e-05
-8.83493e-05
-8.99575e-05
-9.15416e-05
-9.30966e-05
-9.46209e-05
-9.6116e-05
-9.75816e-05
-9.9013e-05
-0.000100406
-0.00010176
-0.000103071
-0.000104337
-0.000105554
-0.000106725
-0.000107845
-0.000108913
-0.000109923
-0.000110871
-0.000111758
-0.000112585
-0.00011335
-0.000114048
-0.000114678
-0.000115239
-0.00011573
-0.00011615
-0.000116501
-0.000116781
-0.000116991
-0.000117132
-0.000117209
-0.000117224
-0.000117184
-0.000117096
-0.000116968
-0.00011681
-0.000116633
-0.000116451
-0.000116266
-0.000116083
2.27223e-05
2.42698e-05
2.62618e-05
2.8585e-05
3.10454e-05
3.34818e-05
3.57982e-05
3.79513e-05
3.99256e-05
4.17139e-05
4.33221e-05
4.476e-05
4.60308e-05
4.714e-05
4.80942e-05
4.88967e-05
4.95601e-05
5.00936e-05
5.05002e-05
5.07893e-05
5.09696e-05
5.10468e-05
5.10285e-05
5.09184e-05
5.07188e-05
5.0434e-05
5.00663e-05
4.96179e-05
4.9094e-05
4.84984e-05
4.78347e-05
4.71083e-05
4.63229e-05
4.54812e-05
4.45864e-05
4.36408e-05
4.26484e-05
4.16127e-05
4.0534e-05
3.94141e-05
3.82568e-05
3.70637e-05
3.58352e-05
3.45746e-05
3.32883e-05
3.19788e-05
3.06449e-05
2.92902e-05
2.79178e-05
2.65281e-05
2.51206e-05
2.36949e-05
2.22535e-05
2.08005e-05
1.93376e-05
1.78652e-05
1.63838e-05
1.48949e-05
1.34011e-05
1.19019e-05
1.03945e-05
8.88078e-06
7.36365e-06
5.84251e-06
4.31541e-06
2.7828e-06
1.24749e-06
-2.89183e-07
-1.82946e-06
-3.37578e-06
-4.92772e-06
-6.48351e-06
-8.04242e-06
-9.60599e-06
-1.11764e-05
-1.27532e-05
-1.43339e-05
-1.5917e-05
-1.75042e-05
-1.90996e-05
-2.07053e-05
-2.23187e-05
-2.39376e-05
-2.5563e-05
-2.71968e-05
-2.88384e-05
-3.0485e-05
-3.21346e-05
-3.37891e-05
-3.54526e-05
-3.71278e-05
-3.88143e-05
-4.05082e-05
-4.22056e-05
-4.39054e-05
-4.561e-05
-4.73226e-05
-4.90422e-05
-5.07655e-05
-5.24914e-05
-5.42215e-05
-5.59585e-05
-5.7702e-05
-5.94474e-05
-6.11913e-05
-6.29334e-05
-6.46748e-05
-6.64174e-05
-6.81604e-05
-6.99006e-05
-7.16357e-05
-7.3364e-05
-7.50851e-05
-7.67998e-05
-7.85068e-05
-8.02024e-05
-8.18838e-05
-8.35493e-05
-8.51978e-05
-8.68291e-05
-8.8442e-05
-9.00334e-05
-9.15993e-05
-9.31359e-05
-9.46415e-05
-9.61175e-05
-9.75647e-05
-9.89788e-05
-0.000100354
-0.000101687
-0.000102978
-0.000104225
-0.000105426
-0.000106579
-0.000107682
-0.000108732
-0.000109727
-0.000110661
-0.000111535
-0.00011235
-0.000113103
-0.000113794
-0.000114417
-0.000114973
-0.000115461
-0.000115882
-0.000116236
-0.000116523
-0.000116741
-0.000116892
-0.000116979
-0.000117007
-0.000116982
-0.000116909
-0.000116794
-0.000116643
-0.000116465
-0.000116269
-0.000116048
-0.000115793
2.66177e-05
2.78592e-05
2.94075e-05
3.1223e-05
3.32042e-05
3.5226e-05
3.72015e-05
3.90792e-05
4.08329e-05
4.24453e-05
4.39136e-05
4.52344e-05
4.64087e-05
4.7442e-05
4.83319e-05
4.90848e-05
4.97099e-05
5.02106e-05
5.05941e-05
5.08684e-05
5.10364e-05
5.11063e-05
5.10839e-05
5.09723e-05
5.07758e-05
5.04949e-05
5.0132e-05
4.96909e-05
4.91754e-05
4.85889e-05
4.79364e-05
4.72223e-05
4.64488e-05
4.56191e-05
4.47356e-05
4.38021e-05
4.2822e-05
4.17972e-05
4.07289e-05
3.96205e-05
3.84744e-05
3.72899e-05
3.60691e-05
3.48175e-05
3.35394e-05
3.22358e-05
3.09081e-05
2.95601e-05
2.81927e-05
2.6805e-05
2.53982e-05
2.39736e-05
2.25333e-05
2.10801e-05
1.96148e-05
1.81383e-05
1.66541e-05
1.51633e-05
1.36647e-05
1.2157e-05
1.06411e-05
9.11999e-06
7.59481e-06
6.06317e-06
4.5244e-06
2.981e-06
1.43495e-06
-1.14205e-07
-1.66837e-06
-3.22862e-06
-4.79445e-06
-6.36476e-06
-7.93902e-06
-9.51838e-06
-1.11045e-05
-1.26964e-05
-1.42913e-05
-1.58887e-05
-1.74918e-05
-1.91037e-05
-2.07248e-05
-2.23526e-05
-2.39863e-05
-2.56277e-05
-2.72772e-05
-2.89323e-05
-3.05905e-05
-3.22519e-05
-3.39199e-05
-3.55977e-05
-3.72861e-05
-3.89834e-05
-4.06861e-05
-4.2392e-05
-4.41013e-05
-4.58155e-05
-4.75363e-05
-4.92619e-05
-5.09896e-05
-5.27198e-05
-5.44548e-05
-5.6196e-05
-5.79421e-05
-5.96883e-05
-6.14313e-05
-6.31718e-05
-6.49114e-05
-6.66516e-05
-6.83914e-05
-7.01273e-05
-7.18563e-05
-7.35773e-05
-7.52906e-05
-7.69969e-05
-7.86951e-05
-8.03808e-05
-8.20503e-05
-8.37026e-05
-8.53381e-05
-8.69569e-05
-8.85563e-05
-9.01321e-05
-9.16812e-05
-9.32016e-05
-9.4692e-05
-9.61521e-05
-9.7582e-05
-9.8979e-05
-0.000100338
-0.000101655
-0.000102928
-0.000104158
-0.000105344
-0.000106482
-0.00010757
-0.000108605
-0.000109585
-0.000110507
-0.00011137
-0.000112175
-0.000112919
-0.000113602
-0.000114219
-0.000114772
-0.000115258
-0.00011568
-0.000116037
-0.000116327
-0.000116551
-0.000116709
-0.000116805
-0.000116843
-0.000116826
-0.000116762
-0.000116653
-0.000116501
-0.000116313
-0.000116096
-0.000115834
-0.00011551
2.98971e-05
3.09553e-05
3.22231e-05
3.36944e-05
3.53201e-05
3.70118e-05
3.86971e-05
4.03282e-05
4.18745e-05
4.33193e-05
4.46465e-05
4.58491e-05
4.69255e-05
4.78737e-05
4.86963e-05
4.93964e-05
4.99756e-05
5.04391e-05
5.0795e-05
5.10469e-05
5.11999e-05
5.1259e-05
5.1228e-05
5.1112e-05
5.09123e-05
5.06296e-05
5.02683e-05
4.98307e-05
4.93196e-05
4.87396e-05
4.80949e-05
4.7389e-05
4.66245e-05
4.58037e-05
4.49299e-05
4.40069e-05
4.30365e-05
4.202e-05
4.09603e-05
3.9861e-05
3.8722e-05
3.75436e-05
3.63307e-05
3.50876e-05
3.38153e-05
3.25162e-05
3.11941e-05
2.9851e-05
2.84869e-05
2.71005e-05
2.56934e-05
2.42688e-05
2.28288e-05
2.13747e-05
1.99065e-05
1.84261e-05
1.69384e-05
1.54439e-05
1.39391e-05
1.24236e-05
1.09004e-05
9.37172e-06
7.83649e-06
6.29302e-06
4.74297e-06
3.18926e-06
1.6319e-06
6.93212e-08
-1.49926e-06
-3.07359e-06
-4.65297e-06
-6.23712e-06
-7.82681e-06
-9.42319e-06
-1.10259e-05
-1.26323e-05
-1.42407e-05
-1.58532e-05
-1.74735e-05
-1.91021e-05
-2.07377e-05
-2.23794e-05
-2.40285e-05
-2.56865e-05
-2.73516e-05
-2.902e-05
-3.069e-05
-3.23635e-05
-3.4045e-05
-3.57372e-05
-3.74392e-05
-3.91476e-05
-4.08593e-05
-4.25735e-05
-4.42925e-05
-4.60174e-05
-4.77468e-05
-4.94783e-05
-5.12108e-05
-5.29466e-05
-5.46877e-05
-5.64337e-05
-5.81818e-05
-5.99284e-05
-6.1672e-05
-6.34129e-05
-6.51524e-05
-6.68912e-05
-6.86278e-05
-7.03593e-05
-7.20832e-05
-7.37989e-05
-7.55066e-05
-7.72063e-05
-7.8896e-05
-8.05716e-05
-8.22307e-05
-8.38722e-05
-8.54968e-05
-8.71049e-05
-8.86927e-05
-9.02545e-05
-9.17885e-05
-9.32945e-05
-9.47718e-05
-9.62189e-05
-9.76343e-05
-9.90155e-05
-0.000100359
-0.000101661
-0.00010292
-0.000104135
-0.000105307
-0.000106434
-0.000107509
-0.00010853
-0.000109497
-0.000110408
-0.000111263
-0.00011206
-0.000112798
-0.000113473
-0.000114085
-0.000114634
-0.00011512
-0.000115543
-0.000115902
-0.000116195
-0.000116422
-0.000116585
-0.000116687
-0.000116731
-0.00011672
-0.000116659
-0.000116549
-0.00011639
-0.000116188
-0.000115947
-0.000115643
-0.000115254
3.2749e-05
3.36928e-05
3.47752e-05
3.60057e-05
3.73648e-05
3.87965e-05
4.02429e-05
4.16602e-05
4.30232e-05
4.43076e-05
4.54981e-05
4.65867e-05
4.7563e-05
4.84261e-05
4.91799e-05
4.98212e-05
5.03516e-05
5.07762e-05
5.10983e-05
5.13237e-05
5.14568e-05
5.15003e-05
5.14583e-05
5.13334e-05
5.11259e-05
5.08389e-05
5.04751e-05
5.00366e-05
4.95274e-05
4.89512e-05
4.83113e-05
4.76106e-05
4.68517e-05
4.6037e-05
4.51705e-05
4.4255e-05
4.32911e-05
4.22813e-05
4.12297e-05
4.01365e-05
3.90014e-05
3.78282e-05
3.6622e-05
3.53847e-05
3.41166e-05
3.28221e-05
3.15044e-05
3.0164e-05
2.88013e-05
2.74154e-05
2.60077e-05
2.45825e-05
2.31411e-05
2.16842e-05
2.02131e-05
1.87303e-05
1.72387e-05
1.57377e-05
1.42251e-05
1.27024e-05
1.11724e-05
9.63503e-06
8.08865e-06
6.53353e-06
4.97247e-06
3.40779e-06
1.83839e-06
2.62219e-07
-1.32091e-06
-2.90974e-06
-4.50311e-06
-6.10166e-06
-7.70742e-06
-9.32088e-06
-1.09395e-05
-1.25602e-05
-1.41831e-05
-1.58118e-05
-1.74491e-05
-1.90938e-05
-2.07442e-05
-2.24011e-05
-2.40664e-05
-2.57404e-05
-2.74201e-05
-2.91015e-05
-3.07841e-05
-3.24712e-05
-3.41668e-05
-3.58729e-05
-3.75877e-05
-3.93071e-05
-4.10285e-05
-4.27526e-05
-4.44821e-05
-4.62172e-05
-4.7955e-05
-4.96925e-05
-5.14308e-05
-5.31734e-05
-5.49213e-05
-5.66725e-05
-5.84233e-05
-6.01708e-05
-6.19153e-05
-6.36578e-05
-6.53985e-05
-6.71372e-05
-6.88716e-05
-7.05988e-05
-7.23181e-05
-7.40298e-05
-7.57336e-05
-7.74282e-05
-7.91105e-05
-8.07767e-05
-8.2426e-05
-8.40591e-05
-8.56752e-05
-8.72734e-05
-8.88507e-05
-9.04012e-05
-9.19226e-05
-9.34157e-05
-9.4881e-05
-9.63169e-05
-9.77202e-05
-9.90878e-05
-0.000100417
-0.000101707
-0.000102954
-0.000104157
-0.000105317
-0.000106432
-0.000107495
-0.000108506
-0.000109462
-0.000110363
-0.000111211
-0.000112002
-0.000112734
-0.000113404
-0.000114011
-0.000114558
-0.000115042
-0.000115466
-0.000115826
-0.000116122
-0.000116352
-0.000116517
-0.000116622
-0.000116669
-0.000116661
-0.0001166
-0.000116485
-0.000116317
-0.000116098
-0.000115833
-0.00011549
-0.000115043
3.52952e-05
3.61678e-05
3.712e-05
3.8175e-05
3.93376e-05
4.05643e-05
4.18135e-05
4.3053e-05
4.42517e-05
4.53892e-05
4.64519e-05
4.74275e-05
4.8307e-05
4.9089e-05
4.97709e-05
5.03507e-05
5.08314e-05
5.12138e-05
5.15006e-05
5.16967e-05
5.18052e-05
5.18298e-05
5.17724e-05
5.16336e-05
5.1416e-05
5.1121e-05
5.07509e-05
5.03088e-05
4.97984e-05
4.92229e-05
4.85849e-05
4.78868e-05
4.71308e-05
4.63205e-05
4.5459e-05
4.45473e-05
4.35874e-05
4.25834e-05
4.15367e-05
4.04461e-05
3.93144e-05
3.81461e-05
3.69438e-05
3.57093e-05
3.4445e-05
3.31546e-05
3.18399e-05
3.05005e-05
2.9137e-05
2.77504e-05
2.63424e-05
2.4916e-05
2.34714e-05
2.201e-05
2.05358e-05
1.90509e-05
1.75546e-05
1.60458e-05
1.45251e-05
1.29953e-05
1.14575e-05
9.9097e-06
8.35159e-06
6.78553e-06
5.2137e-06
3.6369e-06
2.05414e-06
4.6414e-07
-1.13292e-06
-2.73588e-06
-4.34401e-06
-5.9585e-06
-7.58125e-06
-9.21126e-06
-1.08449e-05
-1.24802e-05
-1.41192e-05
-1.57651e-05
-1.74189e-05
-1.90788e-05
-2.07446e-05
-2.24182e-05
-2.41007e-05
-2.57904e-05
-2.74837e-05
-2.91777e-05
-3.08737e-05
-3.25756e-05
-3.42865e-05
-3.60065e-05
-3.7733e-05
-3.94629e-05
-4.11949e-05
-4.29307e-05
-4.46716e-05
-4.64164e-05
-4.8162e-05
-4.99065e-05
-5.16519e-05
-5.34021e-05
-5.51571e-05
-5.69135e-05
-5.86678e-05
-6.04176e-05
-6.21639e-05
-6.39086e-05
-6.56512e-05
-6.73903e-05
-6.91234e-05
-7.08479e-05
-7.25637e-05
-7.42722e-05
-7.5973e-05
-7.76632e-05
-7.9339e-05
-8.09974e-05
-8.26388e-05
-8.42648e-05
-8.58742e-05
-8.74641e-05
-8.90313e-05
-9.05719e-05
-9.20837e-05
-9.35665e-05
-9.50207e-05
-9.64461e-05
-9.78391e-05
-9.91954e-05
-0.000100513
-0.000101791
-0.000103028
-0.000104222
-0.000105372
-0.000106476
-0.000107528
-0.000108529
-0.000109476
-0.000110371
-0.000111213
-0.000111998
-0.000112725
-0.00011339
-0.000113994
-0.000114538
-0.000115023
-0.000115446
-0.000115808
-0.000116105
-0.000116336
-0.000116504
-0.00011661
-0.000116658
-0.00011665
-0.000116586
-0.000116465
-0.000116285
-0.000116049
-0.000115761
-0.000115384
-0.000114887
3.76223e-05
3.84433e-05
3.93023e-05
4.02306e-05
4.12429e-05
4.23087e-05
4.33993e-05
4.44849e-05
4.55406e-05
4.6548e-05
4.74907e-05
4.83596e-05
4.91491e-05
4.98505e-05
5.04607e-05
5.09798e-05
5.14076e-05
5.17454e-05
5.19954e-05
5.21599e-05
5.22424e-05
5.22449e-05
5.21674e-05
5.20119e-05
5.17807e-05
5.14744e-05
5.10953e-05
5.06473e-05
5.01328e-05
4.95549e-05
4.89158e-05
4.82172e-05
4.74622e-05
4.66544e-05
4.57944e-05
4.48842e-05
4.39276e-05
4.29267e-05
4.18807e-05
4.07909e-05
3.96623e-05
3.84972e-05
3.72965e-05
3.60636e-05
3.48021e-05
3.35142e-05
3.22008e-05
3.0861e-05
2.94954e-05
2.81071e-05
2.6698e-05
2.52691e-05
2.38202e-05
2.23543e-05
2.08767e-05
1.93879e-05
1.7885e-05
1.63683e-05
1.48406e-05
1.33033e-05
1.17556e-05
1.01961e-05
8.62643e-06
7.04969e-06
5.46669e-06
3.87702e-06
2.28006e-06
6.75598e-07
-9.35431e-07
-2.55224e-06
-4.17571e-06
-5.8076e-06
-7.44806e-06
-9.09396e-06
-1.0742e-05
-1.23928e-05
-1.40494e-05
-1.57129e-05
-1.73826e-05
-1.90576e-05
-2.07397e-05
-2.24311e-05
-2.41311e-05
-2.58363e-05
-2.75428e-05
-2.92498e-05
-3.09599e-05
-3.26774e-05
-3.44042e-05
-3.61382e-05
-3.78761e-05
-3.96165e-05
-4.13602e-05
-4.31088e-05
-4.48617e-05
-4.66157e-05
-4.83687e-05
-5.01213e-05
-5.18756e-05
-5.36344e-05
-5.53964e-05
-5.71578e-05
-5.8916e-05
-6.06698e-05
-6.24198e-05
-6.41675e-05
-6.59122e-05
-6.76518e-05
-6.93839e-05
-7.1107e-05
-7.28215e-05
-7.45284e-05
-7.62266e-05
-7.79127e-05
-7.95829e-05
-8.12351e-05
-8.28707e-05
-8.44914e-05
-8.60952e-05
-8.76781e-05
-8.92366e-05
-9.0768e-05
-9.22717e-05
-9.37468e-05
-9.51922e-05
-9.66077e-05
-9.79913e-05
-9.93382e-05
-0.000100646
-0.000101914
-0.000103142
-0.000104329
-0.000105471
-0.000106565
-0.000107607
-0.000108599
-0.00010954
-0.00011043
-0.000111267
-0.000112047
-0.000112769
-0.000113429
-0.000114031
-0.000114574
-0.000115058
-0.000115483
-0.000115845
-0.000116142
-0.000116375
-0.000116543
-0.000116649
-0.000116697
-0.000116687
-0.00011662
-0.000116491
-0.000116298
-0.000116047
-0.000115738
-0.000115332
-0.000114793
3.97863e-05
4.05739e-05
4.13643e-05
4.21958e-05
4.30938e-05
4.40351e-05
4.49926e-05
4.59461e-05
4.68779e-05
4.77678e-05
4.86018e-05
4.93743e-05
5.00766e-05
5.06997e-05
5.1242e-05
5.17011e-05
5.20754e-05
5.23678e-05
5.25785e-05
5.27101e-05
5.2764e-05
5.27409e-05
5.2641e-05
5.24664e-05
5.22179e-05
5.18971e-05
5.15074e-05
5.10507e-05
5.05297e-05
4.99469e-05
4.93036e-05
4.86024e-05
4.78468e-05
4.70381e-05
4.61767e-05
4.52671e-05
4.43119e-05
4.33101e-05
4.22625e-05
4.11731e-05
4.00456e-05
3.88809e-05
3.76806e-05
3.64489e-05
3.51889e-05
3.39015e-05
3.25874e-05
3.12457e-05
2.98778e-05
2.84873e-05
2.70749e-05
2.56412e-05
2.41881e-05
2.2719e-05
2.12369e-05
1.97415e-05
1.8231e-05
1.67069e-05
1.51719e-05
1.36258e-05
1.20668e-05
1.04954e-05
8.91414e-06
7.32606e-06
5.7311e-06
4.12802e-06
2.51648e-06
8.97391e-07
-7.27703e-07
-2.35903e-06
-3.99908e-06
-5.64909e-06
-7.30672e-06
-8.96801e-06
-1.06313e-05
-1.2299e-05
-1.39736e-05
-1.56543e-05
-1.73398e-05
-1.90309e-05
-2.07305e-05
-2.24401e-05
-2.41571e-05
-2.58771e-05
-2.75973e-05
-2.93185e-05
-3.10441e-05
-3.27776e-05
-3.45199e-05
-3.62674e-05
-3.8017e-05
-3.97692e-05
-4.15257e-05
-4.32876e-05
-4.50522e-05
-4.68154e-05
-4.85766e-05
-5.03383e-05
-5.21028e-05
-5.38708e-05
-5.564e-05
-5.74068e-05
-5.91696e-05
-6.09283e-05
-6.26835e-05
-6.44355e-05
-6.61828e-05
-6.79232e-05
-6.96549e-05
-7.13775e-05
-7.30924e-05
-7.47996e-05
-7.64961e-05
-7.81785e-05
-7.9844e-05
-8.14918e-05
-8.31236e-05
-8.47403e-05
-8.63395e-05
-8.79166e-05
-8.94678e-05
-9.09916e-05
-9.24881e-05
-9.39569e-05
-9.53959e-05
-9.68034e-05
-9.81779e-05
-9.95164e-05
-0.000100816
-0.000102077
-0.000103298
-0.000104478
-0.000105613
-0.000106698
-0.000107732
-0.000108717
-0.000109653
-0.000110539
-0.000111371
-0.000112147
-0.000112865
-0.000113522
-0.000114121
-0.000114664
-0.000115148
-0.000115573
-0.000115936
-0.000116234
-0.000116466
-0.000116634
-0.000116741
-0.000116787
-0.000116775
-0.000116702
-0.000116565
-0.000116362
-0.000116097
-0.00011577
-0.000115339
-0.000114766
4.18359e-05
4.26008e-05
4.33403e-05
4.40959e-05
4.49049e-05
4.57434e-05
4.65911e-05
4.7434e-05
4.82547e-05
4.90396e-05
4.97786e-05
5.04612e-05
5.10802e-05
5.16297e-05
5.2106e-05
5.2506e-05
5.28291e-05
5.30756e-05
5.32467e-05
5.33438e-05
5.33662e-05
5.33149e-05
5.31909e-05
5.2994e-05
5.27257e-05
5.23888e-05
5.19856e-05
5.1518e-05
5.09884e-05
5.03976e-05
4.97479e-05
4.90428e-05
4.82836e-05
4.74705e-05
4.66069e-05
4.56964e-05
4.47385e-05
4.3733e-05
4.26836e-05
4.15934e-05
4.04641e-05
3.92977e-05
3.80969e-05
3.68658e-05
3.5606e-05
3.43173e-05
3.30001e-05
3.16553e-05
3.0285e-05
2.88913e-05
2.74735e-05
2.60335e-05
2.45761e-05
2.31037e-05
2.16159e-05
2.01123e-05
1.85937e-05
1.70624e-05
1.55193e-05
1.39624e-05
1.23914e-05
1.08083e-05
9.21572e-06
7.61537e-06
6.00697e-06
4.38957e-06
2.76355e-06
1.13032e-06
-5.09275e-07
-2.15685e-06
-3.81492e-06
-5.4827e-06
-7.15633e-06
-8.83311e-06
-1.05134e-05
-1.21992e-05
-1.38914e-05
-1.55885e-05
-1.72903e-05
-1.89991e-05
-2.07174e-05
-2.24451e-05
-2.41784e-05
-2.59129e-05
-2.76473e-05
-2.93839e-05
-3.11265e-05
-3.28767e-05
-3.46337e-05
-3.6394e-05
-3.81561e-05
-3.99217e-05
-4.16924e-05
-4.34673e-05
-4.52429e-05
-4.70158e-05
-4.87868e-05
-5.05588e-05
-5.23341e-05
-5.41117e-05
-5.58884e-05
-5.76614e-05
-5.94299e-05
-6.11944e-05
-6.29557e-05
-6.4713e-05
-6.64636e-05
-6.82053e-05
-6.99378e-05
-7.16616e-05
-7.3378e-05
-7.50864e-05
-7.67825e-05
-7.8462e-05
-8.0124e-05
-8.17694e-05
-8.33994e-05
-8.50133e-05
-8.66081e-05
-8.81803e-05
-8.97261e-05
-9.1244e-05
-9.27348e-05
-9.41984e-05
-9.56322e-05
-9.70334e-05
-9.84002e-05
-9.9731e-05
-0.000101025
-0.00010228
-0.000103496
-0.00010467
-0.000105797
-0.000106876
-0.000107903
-0.000108883
-0.000109815
-0.000110697
-0.000111526
-0.000112298
-0.000113012
-0.000113667
-0.000114265
-0.000114807
-0.000115292
-0.000115717
-0.000116081
-0.000116378
-0.00011661
-0.000116778
-0.000116885
-0.00011693
-0.000116915
-0.000116836
-0.000116692
-0.00011648
-0.000116203
-0.000115862
-0.000115411
-0.00011481
4.38073e-05
4.45556e-05
4.52569e-05
4.59542e-05
4.66859e-05
4.74378e-05
4.8195e-05
4.89411e-05
4.96654e-05
5.03602e-05
5.10124e-05
5.1612e-05
5.2155e-05
5.26348e-05
5.30467e-05
5.33898e-05
5.36622e-05
5.38638e-05
5.39953e-05
5.40558e-05
5.4045e-05
5.39642e-05
5.3813e-05
5.35916e-05
5.33025e-05
5.29474e-05
5.25284e-05
5.20481e-05
5.15068e-05
5.09059e-05
5.0249e-05
4.95374e-05
4.87709e-05
4.79525e-05
4.70857e-05
4.61706e-05
4.52065e-05
4.41963e-05
4.3144e-05
4.20506e-05
4.09177e-05
3.97487e-05
3.85466e-05
3.73143e-05
3.60529e-05
3.47611e-05
3.34395e-05
3.20911e-05
3.07173e-05
2.93181e-05
2.78938e-05
2.6448e-05
2.49859e-05
2.35082e-05
2.20128e-05
2.05008e-05
1.89746e-05
1.74354e-05
1.5882e-05
1.43129e-05
1.27296e-05
1.1135e-05
9.53078e-06
7.91737e-06
6.29447e-06
4.66209e-06
3.02175e-06
1.37459e-06
-2.80419e-07
-1.94589e-06
-3.6227e-06
-5.30767e-06
-6.9969e-06
-8.69e-06
-1.03885e-05
-1.2093e-05
-1.38022e-05
-1.55155e-05
-1.72345e-05
-1.89622e-05
-2.07e-05
-2.24456e-05
-2.41947e-05
-2.59438e-05
-2.76933e-05
-2.94467e-05
-3.1207e-05
-3.29742e-05
-3.47454e-05
-3.65184e-05
-3.82939e-05
-4.00746e-05
-4.18603e-05
-4.3648e-05
-4.54342e-05
-4.72176e-05
-4.89999e-05
-5.07838e-05
-5.25701e-05
-5.43573e-05
-5.6142e-05
-5.79222e-05
-5.96977e-05
-6.14695e-05
-6.32377e-05
-6.50005e-05
-6.67548e-05
-6.84989e-05
-7.02336e-05
-7.19606e-05
-7.36802e-05
-7.53901e-05
-7.7086e-05
-7.87644e-05
-8.04249e-05
-8.20694e-05
-8.3699e-05
-8.53114e-05
-8.69025e-05
-8.847e-05
-9.00118e-05
-9.15261e-05
-9.30131e-05
-9.44725e-05
-9.5902e-05
-9.72982e-05
-9.8659e-05
-9.99835e-05
-0.000101272
-0.000102524
-0.000103736
-0.000104904
-0.000106025
-0.000107098
-0.000108121
-0.000109097
-0.000110026
-0.000110905
-0.000111731
-0.000112499
-0.00011321
-0.000113864
-0.000114462
-0.000115004
-0.00011549
-0.000115915
-0.000116279
-0.000116576
-0.000116808
-0.000116977
-0.000117084
-0.000117128
-0.00011711
-0.000117026
-0.000116875
-0.000116655
-0.000116368
-0.000116017
-0.000115551
-0.000114929
4.5728e-05
4.64611e-05
4.71331e-05
4.77809e-05
4.84477e-05
4.91276e-05
4.98038e-05
5.04672e-05
5.111e-05
5.17226e-05
5.22951e-05
5.28203e-05
5.32933e-05
5.37073e-05
5.40596e-05
5.43478e-05
5.45706e-05
5.47284e-05
5.48188e-05
5.48418e-05
5.47975e-05
5.46847e-05
5.45044e-05
5.42575e-05
5.39457e-05
5.35708e-05
5.31349e-05
5.26389e-05
5.20836e-05
5.14721e-05
5.08056e-05
5.00838e-05
4.93088e-05
4.84845e-05
4.76112e-05
4.66879e-05
4.57166e-05
4.47009e-05
4.3643e-05
4.25441e-05
4.14065e-05
4.02342e-05
3.90299e-05
3.77947e-05
3.65292e-05
3.52326e-05
3.39064e-05
3.25537e-05
3.11737e-05
2.97669e-05
2.83362e-05
2.68853e-05
2.54171e-05
2.39315e-05
2.24276e-05
2.09077e-05
1.93738e-05
1.78249e-05
1.62598e-05
1.46782e-05
1.30826e-05
1.14758e-05
9.85884e-06
8.23145e-06
6.59343e-06
4.94601e-06
3.29142e-06
1.62965e-06
-4.22443e-08
-1.72644e-06
-3.4214e-06
-5.12293e-06
-6.82851e-06
-8.53948e-06
-1.0257e-05
-1.19797e-05
-1.37057e-05
-1.54358e-05
-1.71732e-05
-1.89207e-05
-2.06779e-05
-2.24408e-05
-2.42054e-05
-2.597e-05
-2.77361e-05
-2.95076e-05
-3.1286e-05
-3.30693e-05
-3.48548e-05
-3.66415e-05
-3.84319e-05
-4.02285e-05
-4.20292e-05
-4.38295e-05
-4.56269e-05
-4.74219e-05
-4.9217e-05
-5.10137e-05
-5.28114e-05
-5.46082e-05
-5.64013e-05
-5.81897e-05
-5.99738e-05
-6.17541e-05
-6.35301e-05
-6.52987e-05
-6.70569e-05
-6.88047e-05
-7.05439e-05
-7.22758e-05
-7.39995e-05
-7.57116e-05
-7.74078e-05
-7.90864e-05
-8.07478e-05
-8.23932e-05
-8.4023e-05
-8.56347e-05
-8.72234e-05
-8.87873e-05
-9.03261e-05
-9.18385e-05
-9.33237e-05
-9.47804e-05
-9.6206e-05
-9.75979e-05
-9.89544e-05
-0.000100275
-0.00010156
-0.000102809
-0.000104018
-0.000105182
-0.000106298
-0.000107366
-0.000108386
-0.00010936
-0.000110287
-0.000111164
-0.000111986
-0.000112752
-0.000113462
-0.000114115
-0.000114713
-0.000115256
-0.000115742
-0.000116168
-0.000116531
-0.000116829
-0.000117062
-0.000117232
-0.000117339
-0.000117383
-0.000117362
-0.000117274
-0.000117117
-0.000116891
-0.000116598
-0.000116239
-0.000115762
-0.000115126
4.76186e-05
4.8336e-05
4.89776e-05
4.95836e-05
5.01993e-05
5.08139e-05
5.14216e-05
5.20159e-05
5.25856e-05
5.31238e-05
5.36253e-05
5.40823e-05
5.44894e-05
5.4843e-05
5.5139e-05
5.5375e-05
5.55509e-05
5.5664e-05
5.57131e-05
5.56987e-05
5.56188e-05
5.54727e-05
5.52625e-05
5.49887e-05
5.4653e-05
5.42576e-05
5.38026e-05
5.32888e-05
5.2719e-05
5.20948e-05
5.14152e-05
5.06817e-05
4.9898e-05
4.90649e-05
4.81813e-05
4.7248e-05
4.62691e-05
4.52459e-05
4.41799e-05
4.30738e-05
4.19307e-05
4.07542e-05
3.95463e-05
3.83063e-05
3.70345e-05
3.57323e-05
3.44012e-05
3.30419e-05
3.16537e-05
3.02385e-05
2.88015e-05
2.73448e-05
2.58688e-05
2.43738e-05
2.28611e-05
2.13332e-05
1.97902e-05
1.823e-05
1.66521e-05
1.50581e-05
1.34502e-05
1.18305e-05
1.01997e-05
8.55718e-06
6.90394e-06
5.24214e-06
3.57306e-06
1.89485e-06
2.04314e-07
-1.49858e-06
-3.21054e-06
-4.92849e-06
-6.6519e-06
-8.38202e-06
-1.01184e-05
-1.18586e-05
-1.36016e-05
-1.53499e-05
-1.71071e-05
-1.88749e-05
-2.0651e-05
-2.24307e-05
-2.42108e-05
-2.59919e-05
-2.77765e-05
-2.95671e-05
-3.13633e-05
-3.3162e-05
-3.49619e-05
-3.67641e-05
-3.8571e-05
-4.03838e-05
-4.2199e-05
-4.40121e-05
-4.58218e-05
-4.76298e-05
-4.94388e-05
-5.12487e-05
-5.30581e-05
-5.48648e-05
-5.6667e-05
-5.84648e-05
-6.02591e-05
-6.2049e-05
-6.3833e-05
-6.56079e-05
-6.73711e-05
-6.91241e-05
-7.08696e-05
-7.26079e-05
-7.43365e-05
-7.60511e-05
-7.77486e-05