/*--------------------------------*- C++ -*----------------------------------*\
  =========                 |
  \\      /  F ield         | OpenFOAM: The Open Source CFD Toolbox
   \\    /   O peration     | Website:  https://openfoam.org
    \\  /    A nd           | Version:  7
     \\/     M anipulation  |
\*---------------------------------------------------------------------------*/
FoamFile
{
    version     2.0;
    format      ascii;
    class       volVectorField;
    location    "0.3875";
    object      U;
}
// * * * * * * * * * * * * * * * * * * * * * * * * * * * * * * * * * * * * * //

dimensions      [0 1 -1 0 0 0 0];

internalField   nonuniform List<vector> 
51200
(
(1.47372e-07 1.6748e-07 0)
(-6.85891e-08 2.29616e-07 0)
(-1.14453e-07 8.87274e-08 0)
(-2.33959e-07 3.90787e-08 0)
(-1.91961e-07 2.99265e-09 0)
(-1.12953e-07 -2.0264e-08 0)
(-1.89524e-09 -3.4032e-08 0)
(1.32457e-07 -4.33604e-08 0)
(2.8374e-07 -4.92172e-08 0)
(4.47693e-07 -5.29761e-08 0)
(6.19152e-07 -5.5305e-08 0)
(7.96547e-07 -5.62339e-08 0)
(9.76653e-07 -5.6826e-08 0)
(1.15732e-06 -5.69378e-08 0)
(1.33777e-06 -5.62176e-08 0)
(1.51553e-06 -5.52363e-08 0)
(1.68951e-06 -5.37258e-08 0)
(1.85925e-06 -5.18819e-08 0)
(2.02296e-06 -5.00515e-08 0)
(2.17989e-06 -4.81798e-08 0)
(2.32991e-06 -4.5782e-08 0)
(2.47191e-06 -4.33213e-08 0)
(2.60526e-06 -4.11881e-08 0)
(2.73045e-06 -3.86061e-08 0)
(2.84674e-06 -3.58161e-08 0)
(2.95339e-06 -3.31482e-08 0)
(3.05115e-06 -3.00407e-08 0)
(3.13956e-06 -2.68449e-08 0)
(3.21812e-06 -2.40658e-08 0)
(3.28761e-06 -2.13229e-08 0)
(3.34801e-06 -1.84e-08 0)
(3.39889e-06 -1.5575e-08 0)
(3.44072e-06 -1.29698e-08 0)
(3.47385e-06 -1.04878e-08 0)
(3.49825e-06 -8.03396e-09 0)
(3.51418e-06 -5.76265e-09 0)
(3.52205e-06 -3.73433e-09 0)
(3.52224e-06 -1.5913e-09 0)
(3.51507e-06 7.16803e-10 0)
(3.50076e-06 2.83196e-09 0)
(3.4797e-06 4.79875e-09 0)
(3.45244e-06 6.81075e-09 0)
(3.41932e-06 8.64123e-09 0)
(3.38063e-06 1.00369e-08 0)
(3.33702e-06 1.11993e-08 0)
(3.28909e-06 1.24e-08 0)
(3.23711e-06 1.36188e-08 0)
(3.1814e-06 1.47719e-08 0)
(3.12252e-06 1.57708e-08 0)
(3.06094e-06 1.66004e-08 0)
(2.99696e-06 1.72596e-08 0)
(2.931e-06 1.77277e-08 0)
(2.86355e-06 1.80391e-08 0)
(2.795e-06 1.82729e-08 0)
(2.72582e-06 1.84889e-08 0)
(2.6565e-06 1.86298e-08 0)
(2.58738e-06 1.8549e-08 0)
(2.51887e-06 1.82855e-08 0)
(2.45146e-06 1.80435e-08 0)
(2.38544e-06 1.78088e-08 0)
(2.32106e-06 1.73423e-08 0)
(2.25879e-06 1.6597e-08 0)
(2.19906e-06 1.57763e-08 0)
(2.14206e-06 1.4972e-08 0)
(2.0879e-06 1.41141e-08 0)
(2.03687e-06 1.31989e-08 0)
(1.9894e-06 1.22802e-08 0)
(1.94573e-06 1.13808e-08 0)
(1.90597e-06 1.04742e-08 0)
(1.87034e-06 9.4284e-09 0)
(1.8391e-06 8.11851e-09 0)
(1.8123e-06 6.59277e-09 0)
(1.79009e-06 5.04694e-09 0)
(1.77269e-06 3.68744e-09 0)
(1.76017e-06 2.53045e-09 0)
(1.75251e-06 1.3719e-09 0)
(1.74974e-06 9.6654e-11 0)
(1.75197e-06 -1.23958e-09 0)
(1.75923e-06 -2.62947e-09 0)
(1.77145e-06 -4.09525e-09 0)
(1.78855e-06 -5.55216e-09 0)
(1.81063e-06 -6.90737e-09 0)
(1.83767e-06 -8.18646e-09 0)
(1.86951e-06 -9.4599e-09 0)
(1.90592e-06 -1.07399e-08 0)
(1.94684e-06 -1.19823e-08 0)
(1.99216e-06 -1.31549e-08 0)
(2.04169e-06 -1.42705e-08 0)
(2.09524e-06 -1.53386e-08 0)
(2.15267e-06 -1.6369e-08 0)
(2.21385e-06 -1.73829e-08 0)
(2.27848e-06 -1.83491e-08 0)
(2.34622e-06 -1.91839e-08 0)
(2.41679e-06 -1.98413e-08 0)
(2.48989e-06 -2.03785e-08 0)
(2.56524e-06 -2.09083e-08 0)
(2.6425e-06 -2.14529e-08 0)
(2.72132e-06 -2.1906e-08 0)
(2.8014e-06 -2.21691e-08 0)
(2.8824e-06 -2.2248e-08 0)
(2.96395e-06 -2.22426e-08 0)
(3.04573e-06 -2.22178e-08 0)
(3.1273e-06 -2.21022e-08 0)
(3.20826e-06 -2.18349e-08 0)
(3.28823e-06 -2.14296e-08 0)
(3.36672e-06 -2.08861e-08 0)
(3.44335e-06 -2.02342e-08 0)
(3.51777e-06 -1.95196e-08 0)
(3.58951e-06 -1.87217e-08 0)
(3.65817e-06 -1.78015e-08 0)
(3.72339e-06 -1.67314e-08 0)
(3.78473e-06 -1.54712e-08 0)
(3.84173e-06 -1.40373e-08 0)
(3.89393e-06 -1.25141e-08 0)
(3.94084e-06 -1.09419e-08 0)
(3.98217e-06 -9.31742e-09 0)
(4.01762e-06 -7.59683e-09 0)
(4.04677e-06 -5.68385e-09 0)
(4.06918e-06 -3.58995e-09 0)
(4.08449e-06 -1.44841e-09 0)
(4.09234e-06 6.91427e-10 0)
(4.09248e-06 2.92071e-09 0)
(4.0846e-06 5.34801e-09 0)
(4.06828e-06 7.95232e-09 0)
(4.0433e-06 1.05702e-08 0)
(4.00956e-06 1.31008e-08 0)
(3.96686e-06 1.56595e-08 0)
(3.91493e-06 1.83564e-08 0)
(3.85371e-06 2.10781e-08 0)
(3.7832e-06 2.37523e-08 0)
(3.70335e-06 2.65227e-08 0)
(3.61413e-06 2.94199e-08 0)
(3.5155e-06 3.22245e-08 0)
(3.40753e-06 3.47842e-08 0)
(3.2905e-06 3.72277e-08 0)
(3.16468e-06 3.97891e-08 0)
(3.03023e-06 4.24803e-08 0)
(2.88757e-06 4.50441e-08 0)
(2.73726e-06 4.72614e-08 0)
(2.57982e-06 4.91818e-08 0)
(2.41582e-06 5.0973e-08 0)
(2.24606e-06 5.26337e-08 0)
(2.07143e-06 5.4006e-08 0)
(1.89287e-06 5.50118e-08 0)
(1.71162e-06 5.56709e-08 0)
(1.52899e-06 5.59424e-08 0)
(1.34636e-06 5.57511e-08 0)
(1.16534e-06 5.50636e-08 0)
(9.87826e-07 5.3767e-08 0)
(8.15945e-07 5.17005e-08 0)
(6.51961e-07 4.88306e-08 0)
(4.98422e-07 4.50974e-08 0)
(3.58221e-07 4.03212e-08 0)
(2.34384e-07 3.43882e-08 0)
(1.3021e-07 2.71741e-08 0)
(4.93773e-08 1.84958e-08 0)
(-4.83377e-09 8.51696e-09 0)
(-3.0444e-08 -1.9916e-09 0)
(-2.90787e-08 -1.09174e-08 0)
(-1.11665e-08 -1.13108e-08 0)
(2.12594e-07 -2.06994e-08 0)
(2.54788e-07 2.63128e-07 0)
(1.73423e-07 1.05159e-07 0)
(1.74346e-07 5.5112e-09 0)
(2.80104e-07 -8.97373e-08 0)
(4.65959e-07 -1.65246e-07 0)
(7.2324e-07 -2.22294e-07 0)
(1.04008e-06 -2.65367e-07 0)
(1.40502e-06 -2.96223e-07 0)
(1.80595e-06 -3.19269e-07 0)
(2.23527e-06 -3.34099e-07 0)
(2.68338e-06 -3.43393e-07 0)
(3.14347e-06 -3.48452e-07 0)
(3.61035e-06 -3.49244e-07 0)
(4.07712e-06 -3.47104e-07 0)
(4.54027e-06 -3.42115e-07 0)
(4.99628e-06 -3.33995e-07 0)
(5.44052e-06 -3.24014e-07 0)
(5.87103e-06 -3.12511e-07 0)
(6.28525e-06 -2.99076e-07 0)
(6.68037e-06 -2.84426e-07 0)
(7.0547e-06 -2.68911e-07 0)
(7.40722e-06 -2.52367e-07 0)
(7.73626e-06 -2.351e-07 0)
(8.04069e-06 -2.17619e-07 0)
(8.32039e-06 -1.99538e-07 0)
(8.57422e-06 -1.80912e-07 0)
(8.80169e-06 -1.62397e-07 0)
(9.00338e-06 -1.43922e-07 0)
(9.17895e-06 -1.25404e-07 0)
(9.32835e-06 -1.0714e-07 0)
(9.45223e-06 -8.90871e-08 0)
(9.55087e-06 -7.13448e-08 0)
(9.62462e-06 -5.40138e-08 0)
(9.6744e-06 -3.71479e-08 0)
(9.70079e-06 -2.09961e-08 0)
(9.70444e-06 -5.57856e-09 0)
(9.68655e-06 9.38093e-09 0)
(9.64802e-06 2.37256e-08 0)
(9.58961e-06 3.71409e-08 0)
(9.51257e-06 4.98982e-08 0)
(9.41818e-06 6.20833e-08 0)
(9.30746e-06 7.32736e-08 0)
(9.1816e-06 8.33849e-08 0)
(9.04202e-06 9.26286e-08 0)
(8.88995e-06 1.0107e-07 0)
(8.72654e-06 1.08598e-07 0)
(8.55309e-06 1.15287e-07 0)
(8.37083e-06 1.21223e-07 0)
(8.18106e-06 1.26319e-07 0)
(7.98511e-06 1.3051e-07 0)
(7.78409e-06 1.338e-07 0)
(7.57917e-06 1.36137e-07 0)
(7.37171e-06 1.37667e-07 0)
(7.16307e-06 1.3854e-07 0)
(6.95433e-06 1.3855e-07 0)
(6.74645e-06 1.37555e-07 0)
(6.54073e-06 1.35772e-07 0)
(6.33858e-06 1.33376e-07 0)
(6.14076e-06 1.30301e-07 0)
(5.94797e-06 1.26451e-07 0)
(5.76147e-06 1.21909e-07 0)
(5.58241e-06 1.16826e-07 0)
(5.41153e-06 1.11146e-07 0)
(5.24954e-06 1.04814e-07 0)
(5.09718e-06 9.79993e-08 0)
(4.95518e-06 9.08256e-08 0)
(4.82426e-06 8.32597e-08 0)
(4.70506e-06 7.53485e-08 0)
(4.59814e-06 6.70892e-08 0)
(4.50405e-06 5.83202e-08 0)
(4.42326e-06 4.90409e-08 0)
(4.35623e-06 3.95235e-08 0)
(4.30332e-06 2.99605e-08 0)
(4.26459e-06 2.03128e-08 0)
(4.24013e-06 1.05143e-08 0)
(4.23032e-06 6.7257e-10 0)
(4.23546e-06 -9.12856e-09 0)
(4.25543e-06 -1.9028e-08 0)
(4.28996e-06 -2.91037e-08 0)
(4.33903e-06 -3.91379e-08 0)
(4.40274e-06 -4.8897e-08 0)
(4.4809e-06 -5.84026e-08 0)
(4.57316e-06 -6.77572e-08 0)
(4.67924e-06 -7.69431e-08 0)
(4.7988e-06 -8.58768e-08 0)
(4.93131e-06 -9.44918e-08 0)
(5.0763e-06 -1.02757e-07 0)
(5.23336e-06 -1.10633e-07 0)
(5.40188e-06 -1.1809e-07 0)
(5.58107e-06 -1.25155e-07 0)
(5.77024e-06 -1.31795e-07 0)
(5.96883e-06 -1.37858e-07 0)
(6.17622e-06 -1.43219e-07 0)
(6.39141e-06 -1.47889e-07 0)
(6.6133e-06 -1.52002e-07 0)
(6.84095e-06 -1.55633e-07 0)
(7.07355e-06 -1.58642e-07 0)
(7.31022e-06 -1.60863e-07 0)
(7.54989e-06 -1.6228e-07 0)
(7.79142e-06 -1.62963e-07 0)
(8.03378e-06 -1.62974e-07 0)
(8.27585e-06 -1.6223e-07 0)
(8.51646e-06 -1.6062e-07 0)
(8.7545e-06 -1.58176e-07 0)
(8.98879e-06 -1.54928e-07 0)
(9.21815e-06 -1.50896e-07 0)
(9.44138e-06 -1.46137e-07 0)
(9.65718e-06 -1.40609e-07 0)
(9.86431e-06 -1.34176e-07 0)
(1.00617e-05 -1.26799e-07 0)
(1.02483e-05 -1.18522e-07 0)
(1.04226e-05 -1.09403e-07 0)
(1.05834e-05 -9.95503e-08 0)
(1.07296e-05 -8.89736e-08 0)
(1.08601e-05 -7.75868e-08 0)
(1.09738e-05 -6.53992e-08 0)
(1.10696e-05 -5.24344e-08 0)
(1.11462e-05 -3.87168e-08 0)
(1.12028e-05 -2.43511e-08 0)
(1.12384e-05 -9.39561e-09 0)
(1.12521e-05 6.18416e-09 0)
(1.1243e-05 2.24205e-08 0)
(1.12102e-05 3.92738e-08 0)
(1.11531e-05 5.66125e-08 0)
(1.10711e-05 7.42523e-08 0)
(1.09635e-05 9.2113e-08 0)
(1.083e-05 1.10273e-07 0)
(1.06703e-05 1.28712e-07 0)
(1.04842e-05 1.47276e-07 0)
(1.02716e-05 1.65924e-07 0)
(1.00324e-05 1.8462e-07 0)
(9.76679e-06 2.03112e-07 0)
(9.47516e-06 2.21141e-07 0)
(9.15807e-06 2.38658e-07 0)
(8.81621e-06 2.55743e-07 0)
(8.45041e-06 2.7236e-07 0)
(8.06178e-06 2.88236e-07 0)
(7.65175e-06 3.02992e-07 0)
(7.22193e-06 3.16371e-07 0)
(6.77414e-06 3.28307e-07 0)
(6.31058e-06 3.38698e-07 0)
(5.8338e-06 3.47266e-07 0)
(5.34663e-06 3.53684e-07 0)
(4.85225e-06 3.57686e-07 0)
(4.35431e-06 3.58994e-07 0)
(3.85684e-06 3.57242e-07 0)
(3.36427e-06 3.52054e-07 0)
(2.88158e-06 3.43063e-07 0)
(2.41441e-06 3.29789e-07 0)
(1.96876e-06 3.11728e-07 0)
(1.55114e-06 2.88436e-07 0)
(1.1686e-06 2.59413e-07 0)
(8.28441e-07 2.24244e-07 0)
(5.38115e-07 1.82815e-07 0)
(3.04806e-07 1.35422e-07 0)
(1.34232e-07 8.34862e-08 0)
(2.90256e-08 3.07188e-08 0)
(-1.44723e-08 -1.43338e-08 0)
(-1.08783e-08 -2.92354e-08 0)
(8.93828e-08 -7.61251e-08 0)
(1.87163e-07 7.31683e-08 0)
(3.41343e-07 1.29583e-08 0)
(5.14829e-07 -1.34251e-07 0)
(7.64453e-07 -3.01114e-07 0)
(1.09976e-06 -4.5591e-07 0)
(1.51723e-06 -5.88626e-07 0)
(2.01026e-06 -6.94942e-07 0)
(2.5663e-06 -7.79901e-07 0)
(3.17489e-06 -8.42529e-07 0)
(3.82354e-06 -8.88109e-07 0)
(4.50053e-06 -9.18615e-07 0)
(5.19725e-06 -9.35316e-07 0)
(5.9032e-06 -9.41615e-07 0)
(6.61114e-06 -9.38498e-07 0)
(7.31463e-06 -9.26112e-07 0)
(8.00615e-06 -9.07118e-07 0)
(8.68109e-06 -8.81526e-07 0)
(9.33525e-06 -8.50059e-07 0)
(9.96357e-06 -8.14347e-07 0)
(1.05629e-05 -7.74562e-07 0)
(1.11307e-05 -7.31332e-07 0)
(1.16637e-05 -6.85438e-07 0)
(1.21602e-05 -6.3757e-07 0)
(1.2619e-05 -5.87829e-07 0)
(1.3038e-05 -5.36837e-07 0)
(1.34166e-05 -4.85343e-07 0)
(1.37543e-05 -4.33024e-07 0)
(1.40508e-05 -3.80618e-07 0)
(1.43059e-05 -3.28645e-07 0)
(1.452e-05 -2.7692e-07 0)
(1.46935e-05 -2.258e-07 0)
(1.48267e-05 -1.75751e-07 0)
(1.49209e-05 -1.26663e-07 0)
(1.49771e-05 -7.88341e-08 0)
(1.4996e-05 -3.28014e-08 0)
(1.49793e-05 1.1506e-08 0)
(1.49285e-05 5.40763e-08 0)
(1.48448e-05 9.45045e-08 0)
(1.47299e-05 1.32724e-07 0)
(1.45858e-05 1.68857e-07 0)
(1.44141e-05 2.02773e-07 0)
(1.42166e-05 2.34183e-07 0)
(1.39953e-05 2.63098e-07 0)
(1.37524e-05 2.89529e-07 0)
(1.34897e-05 3.13351e-07 0)
(1.32092e-05 3.34661e-07 0)
(1.2913e-05 3.53446e-07 0)
(1.2603e-05 3.6974e-07 0)
(1.22813e-05 3.83658e-07 0)
(1.19502e-05 3.95114e-07 0)
(1.16114e-05 4.03997e-07 0)
(1.12669e-05 4.10334e-07 0)
(1.09191e-05 4.14299e-07 0)
(1.05698e-05 4.15951e-07 0)
(1.02206e-05 4.15087e-07 0)
(9.87349e-06 4.11782e-07 0)
(9.5304e-06 4.06419e-07 0)
(9.1932e-06 3.9896e-07 0)
(8.86339e-06 3.89226e-07 0)
(8.5424e-06 3.77489e-07 0)
(8.23201e-06 3.64025e-07 0)
(7.93384e-06 3.4885e-07 0)
(7.64919e-06 3.31972e-07 0)
(7.37943e-06 3.13427e-07 0)
(7.12585e-06 2.93314e-07 0)
(6.88955e-06 2.71766e-07 0)
(6.67177e-06 2.48929e-07 0)
(6.47351e-06 2.25004e-07 0)
(6.29542e-06 2.00081e-07 0)
(6.13824e-06 1.74148e-07 0)
(6.00302e-06 1.47321e-07 0)
(5.89068e-06 1.19793e-07 0)
(5.80159e-06 9.16248e-08 0)
(5.73584e-06 6.28529e-08 0)
(5.69383e-06 3.368e-08 0)
(5.67611e-06 4.40119e-09 0)
(5.68283e-06 -2.489e-08 0)
(5.71392e-06 -5.43137e-08 0)
(5.76926e-06 -8.38136e-08 0)
(5.84878e-06 -1.13101e-07 0)
(5.95235e-06 -1.41979e-07 0)
(6.07969e-06 -1.70372e-07 0)
(6.23034e-06 -1.98179e-07 0)
(6.40378e-06 -2.25287e-07 0)
(6.59939e-06 -2.51641e-07 0)
(6.81648e-06 -2.77147e-07 0)
(7.05433e-06 -3.01627e-07 0)
(7.31214e-06 -3.24957e-07 0)
(7.58884e-06 -3.47099e-07 0)
(7.88324e-06 -3.68015e-07 0)
(8.1943e-06 -3.87565e-07 0)
(8.52104e-06 -4.05496e-07 0)
(8.8623e-06 -4.21665e-07 0)
(9.21657e-06 -4.3611e-07 0)
(9.58221e-06 -4.48823e-07 0)
(9.95775e-06 -4.59696e-07 0)
(1.03418e-05 -4.6861e-07 0)
(1.0733e-05 -4.75476e-07 0)
(1.11294e-05 -4.80276e-07 0)
(1.15293e-05 -4.82954e-07 0)
(1.1931e-05 -4.83417e-07 0)
(1.23325e-05 -4.81641e-07 0)
(1.27323e-05 -4.77591e-07 0)
(1.31284e-05 -4.71189e-07 0)
(1.35189e-05 -4.62376e-07 0)
(1.39018e-05 -4.51153e-07 0)
(1.42751e-05 -4.37608e-07 0)
(1.46369e-05 -4.21785e-07 0)
(1.49852e-05 -4.03526e-07 0)
(1.53183e-05 -3.82681e-07 0)
(1.56342e-05 -3.59349e-07 0)
(1.59307e-05 -3.33648e-07 0)
(1.62058e-05 -3.05603e-07 0)
(1.64578e-05 -2.75262e-07 0)
(1.66849e-05 -2.42639e-07 0)
(1.68853e-05 -2.07783e-07 0)
(1.70571e-05 -1.70807e-07 0)
(1.71986e-05 -1.31726e-07 0)
(1.73081e-05 -9.05888e-08 0)
(1.73841e-05 -4.75999e-08 0)
(1.74252e-05 -2.91885e-09 0)
(1.74302e-05 4.34411e-08 0)
(1.73975e-05 9.14151e-08 0)
(1.7326e-05 1.40777e-07 0)
(1.72148e-05 1.91265e-07 0)
(1.7063e-05 2.42652e-07 0)
(1.68699e-05 2.9478e-07 0)
(1.6635e-05 3.47509e-07 0)
(1.63582e-05 4.0056e-07 0)
(1.60393e-05 4.53649e-07 0)
(1.56781e-05 5.06607e-07 0)
(1.52748e-05 5.59135e-07 0)
(1.48302e-05 6.10736e-07 0)
(1.43455e-05 6.60988e-07 0)
(1.38216e-05 7.09648e-07 0)
(1.32598e-05 7.56405e-07 0)
(1.26621e-05 8.00752e-07 0)
(1.20307e-05 8.42133e-07 0)
(1.13681e-05 8.79988e-07 0)
(1.06773e-05 9.13725e-07 0)
(9.96194e-06 9.42761e-07 0)
(9.22587e-06 9.66475e-07 0)
(8.47359e-06 9.8416e-07 0)
(7.71014e-06 9.95059e-07 0)
(6.94113e-06 9.98354e-07 0)
(6.17277e-06 9.93091e-07 0)
(5.41197e-06 9.78256e-07 0)
(4.66641e-06 9.52879e-07 0)
(3.94435e-06 9.15941e-07 0)
(3.25466e-06 8.66391e-07 0)
(2.60685e-06 8.03177e-07 0)
(2.01101e-06 7.25332e-07 0)
(1.47732e-06 6.32351e-07 0)
(1.01571e-06 5.24508e-07 0)
(6.35399e-07 4.03418e-07 0)
(3.43234e-07 2.73344e-07 0)
(1.4209e-07 1.42956e-07 0)
(3.00366e-08 2.89877e-08 0)
(-2.13512e-09 -3.09325e-08 0)
(6.01357e-08 -2.57326e-07 0)
(1.90388e-07 -1.54981e-07 0)
(4.48923e-07 -2.34223e-07 0)
(7.66983e-07 -4.36462e-07 0)
(1.16725e-06 -6.77465e-07 0)
(1.65686e-06 -9.16099e-07 0)
(2.23712e-06 -1.13001e-06 0)
(2.89879e-06 -1.31242e-06 0)
(3.63317e-06 -1.45941e-06 0)
(4.42777e-06 -1.57368e-06 0)
(5.26872e-06 -1.65846e-06 0)
(6.1454e-06 -1.71554e-06 0)
(7.04414e-06 -1.74945e-06 0)
(7.95437e-06 -1.76271e-06 0)
(8.86713e-06 -1.75681e-06 0)
(9.77261e-06 -1.73571e-06 0)
(1.0663e-05 -1.70043e-06 0)
(1.15318e-05 -1.65239e-06 0)
(1.23722e-05 -1.59408e-06 0)
(1.3179e-05 -1.52657e-06 0)
(1.39478e-05 -1.45104e-06 0)
(1.46742e-05 -1.36911e-06 0)
(1.5355e-05 -1.28174e-06 0)
(1.59874e-05 -1.18967e-06 0)
(1.65692e-05 -1.09426e-06 0)
(1.70984e-05 -9.96495e-07 0)
(1.75741e-05 -8.96817e-07 0)
(1.79954e-05 -7.9607e-07 0)
(1.83614e-05 -6.95098e-07 0)
(1.86725e-05 -5.94279e-07 0)
(1.89289e-05 -4.94247e-07 0)
(1.91308e-05 -3.95785e-07 0)
(1.92794e-05 -2.99015e-07 0)
(1.93758e-05 -2.04292e-07 0)
(1.9421e-05 -1.12387e-07 0)
(1.94169e-05 -2.35104e-08 0)
(1.93651e-05 6.22447e-08 0)
(1.92676e-05 1.44307e-07 0)
(1.91262e-05 2.22337e-07 0)
(1.89434e-05 2.96329e-07 0)
(1.87216e-05 3.66057e-07 0)
(1.8463e-05 4.3122e-07 0)
(1.81702e-05 4.9171e-07 0)
(1.78458e-05 5.47474e-07 0)
(1.74924e-05 5.98455e-07 0)
(1.71128e-05 6.44508e-07 0)
(1.67096e-05 6.85568e-07 0)
(1.62857e-05 7.21563e-07 0)
(1.58438e-05 7.52618e-07 0)
(1.53868e-05 7.78916e-07 0)
(1.49174e-05 8.00256e-07 0)
(1.44381e-05 8.16538e-07 0)
(1.3952e-05 8.28094e-07 0)
(1.34619e-05 8.35056e-07 0)
(1.29702e-05 8.37219e-07 0)
(1.24793e-05 8.34581e-07 0)
(1.1992e-05 8.27496e-07 0)
(1.15108e-05 8.16254e-07 0)
(1.10379e-05 8.00785e-07 0)
(1.05756e-05 7.81047e-07 0)
(1.01262e-05 7.5739e-07 0)
(9.69196e-06 7.30138e-07 0)
(9.27478e-06 6.99397e-07 0)
(8.87656e-06 6.6535e-07 0)
(8.49914e-06 6.28187e-07 0)
(8.14428e-06 5.88053e-07 0)
(7.81363e-06 5.45173e-07 0)
(7.50882e-06 4.99759e-07 0)
(7.23121e-06 4.51935e-07 0)
(6.98176e-06 4.01846e-07 0)
(6.76162e-06 3.49837e-07 0)
(6.57198e-06 2.96394e-07 0)
(6.41378e-06 2.41682e-07 0)
(6.28766e-06 1.85591e-07 0)
(6.19415e-06 1.28313e-07 0)
(6.13389e-06 7.03442e-08 0)
(6.10735e-06 1.20038e-08 0)
(6.11461e-06 -4.6599e-08 0)
(6.15556e-06 -1.05328e-07 0)
(6.23026e-06 -1.63919e-07 0)
(6.33866e-06 -2.22082e-07 0)
(6.4805e-06 -2.79597e-07 0)
(6.65529e-06 -3.36228e-07 0)
(6.86245e-06 -3.91714e-07 0)
(7.10126e-06 -4.45854e-07 0)
(7.37094e-06 -4.98481e-07 0)
(7.67055e-06 -5.49351e-07 0)
(7.99906e-06 -5.98165e-07 0)
(8.35533e-06 -6.44747e-07 0)
(8.73789e-06 -6.89021e-07 0)
(9.14526e-06 -7.30801e-07 0)
(9.57606e-06 -7.69776e-07 0)
(1.00289e-05 -8.05647e-07 0)
(1.0502e-05 -8.3825e-07 0)
(1.09932e-05 -8.67567e-07 0)
(1.15007e-05 -8.93471e-07 0)
(1.20225e-05 -9.15654e-07 0)
(1.25565e-05 -9.33916e-07 0)
(1.31007e-05 -9.48189e-07 0)
(1.36526e-05 -9.58415e-07 0)
(1.421e-05 -9.6449e-07 0)
(1.47704e-05 -9.66241e-07 0)
(1.53313e-05 -9.63555e-07 0)
(1.58903e-05 -9.56383e-07 0)
(1.6445e-05 -9.44632e-07 0)
(1.69927e-05 -9.2822e-07 0)
(1.75307e-05 -9.07135e-07 0)
(1.80562e-05 -8.81359e-07 0)
(1.85666e-05 -8.50861e-07 0)
(1.90595e-05 -8.15583e-07 0)
(1.95322e-05 -7.75439e-07 0)
(1.99819e-05 -7.30522e-07 0)
(2.04059e-05 -6.81024e-07 0)
(2.08016e-05 -6.26929e-07 0)
(2.11664e-05 -5.68199e-07 0)
(2.14979e-05 -5.04938e-07 0)
(2.17936e-05 -4.37319e-07 0)
(2.20512e-05 -3.6557e-07 0)
(2.22681e-05 -2.8984e-07 0)
(2.24424e-05 -2.10158e-07 0)
(2.25716e-05 -1.26683e-07 0)
(2.26541e-05 -3.97718e-08 0)
(2.26881e-05 5.02715e-08 0)
(2.26717e-05 1.43282e-07 0)
(2.26034e-05 2.38969e-07 0)
(2.24818e-05 3.36873e-07 0)
(2.23058e-05 4.36584e-07 0)
(2.20744e-05 5.37786e-07 0)
(2.17872e-05 6.40151e-07 0)
(2.14435e-05 7.43168e-07 0)
(2.10434e-05 8.46146e-07 0)
(2.05869e-05 9.48516e-07 0)
(2.00743e-05 1.04988e-06 0)
(1.95065e-05 1.14968e-06 0)
(1.88847e-05 1.2471e-06 0)
(1.82107e-05 1.34125e-06 0)
(1.74864e-05 1.43138e-06 0)
(1.67141e-05 1.51668e-06 0)
(1.58969e-05 1.59622e-06 0)
(1.50383e-05 1.66893e-06 0)
(1.41422e-05 1.73373e-06 0)
(1.32133e-05 1.78945e-06 0)
(1.22569e-05 1.83488e-06 0)
(1.12789e-05 1.86869e-06 0)
(1.02859e-05 1.88947e-06 0)
(9.2851e-06 1.8957e-06 0)
(8.28469e-06 1.88569e-06 0)
(7.29355e-06 1.85774e-06 0)
(6.32141e-06 1.81009e-06 0)
(5.37879e-06 1.74098e-06 0)
(4.47672e-06 1.64868e-06 0)
(3.62679e-06 1.53169e-06 0)
(2.84122e-06 1.38879e-06 0)
(2.13232e-06 1.21948e-06 0)
(1.51176e-06 1.02474e-06 0)
(9.90174e-07 8.07938e-07 0)
(5.75697e-07 5.76383e-07 0)
(2.72429e-07 3.43685e-07 0)
(8.27265e-08 1.33732e-07 0)
(8.30676e-09 -5.7651e-09 0)
(4.32483e-08 -3.32915e-07 0)
(1.95075e-07 -4.05578e-07 0)
(5.32289e-07 -5.81843e-07 0)
(9.71077e-07 -8.71091e-07 0)
(1.50687e-06 -1.20303e-06 0)
(2.14324e-06 -1.53163e-06 0)
(2.87406e-06 -1.83367e-06 0)
(3.69331e-06 -2.0949e-06 0)
(4.58924e-06 -2.31035e-06 0)
(5.54838e-06 -2.48137e-06 0)
(6.55935e-06 -2.60824e-06 0)
(7.60702e-06 -2.69615e-06 0)
(8.67869e-06 -2.74857e-06 0)
(9.76303e-06 -2.76811e-06 0)
(1.08474e-05 -2.7595e-06 0)
(1.19219e-05 -2.72566e-06 0)
(1.2978e-05 -2.66924e-06 0)
(1.40063e-05 -2.59337e-06 0)
(1.5e-05 -2.50059e-06 0)
(1.59525e-05 -2.39275e-06 0)
(1.6858e-05 -2.27243e-06 0)
(1.77118e-05 -2.14156e-06 0)
(1.85098e-05 -2.00161e-06 0)
(1.92485e-05 -1.85438e-06 0)
(1.9925e-05 -1.70147e-06 0)
(2.05372e-05 -1.54431e-06 0)
(2.10838e-05 -1.38402e-06 0)
(2.15633e-05 -1.22212e-06 0)
(2.19754e-05 -1.05948e-06 0)
(2.232e-05 -8.97033e-07 0)
(2.25971e-05 -7.36005e-07 0)
(2.28075e-05 -5.77101e-07 0)
(2.29525e-05 -4.20948e-07 0)
(2.30331e-05 -2.68536e-07 0)
(2.3051e-05 -1.20482e-07 0)
(2.30083e-05 2.28666e-08 0)
(2.29071e-05 1.60871e-07 0)
(2.27495e-05 2.92853e-07 0)
(2.25383e-05 4.18615e-07 0)
(2.22762e-05 5.37849e-07 0)
(2.19661e-05 6.50027e-07 0)
(2.16109e-05 7.54834e-07 0)
(2.12139e-05 8.52127e-07 0)
(2.07784e-05 9.41689e-07 0)
(2.03075e-05 1.02339e-06 0)
(1.98046e-05 1.0972e-06 0)
(1.9273e-05 1.16291e-06 0)
(1.87162e-05 1.22053e-06 0)
(1.8138e-05 1.27012e-06 0)
(1.75415e-05 1.31165e-06 0)
(1.69302e-05 1.345e-06 0)
(1.63076e-05 1.37032e-06 0)
(1.56773e-05 1.38794e-06 0)
(1.50426e-05 1.3978e-06 0)
(1.44064e-05 1.39984e-06 0)
(1.37722e-05 1.39439e-06 0)
(1.31435e-05 1.38175e-06 0)
(1.2523e-05 1.36204e-06 0)
(1.19136e-05 1.33542e-06 0)
(1.13183e-05 1.30216e-06 0)
(1.07399e-05 1.26257e-06 0)
(1.01813e-05 1.2169e-06 0)
(9.64475e-06 1.16542e-06 0)
(9.13278e-06 1.10848e-06 0)
(8.64766e-06 1.04636e-06 0)
(8.1916e-06 9.79391e-07 0)
(7.76664e-06 9.08087e-07 0)
(7.37465e-06 8.32742e-07 0)
(7.0173e-06 7.53428e-07 0)
(6.69608e-06 6.70439e-07 0)
(6.41262e-06 5.84326e-07 0)
(6.16833e-06 4.95616e-07 0)
(5.96399e-06 4.04611e-07 0)
(5.80041e-06 3.11527e-07 0)
(5.6786e-06 2.16803e-07 0)
(5.59937e-06 1.2096e-07 0)
(5.56305e-06 2.42918e-08 0)
(5.56977e-06 -7.29404e-08 0)
(5.61964e-06 -1.70306e-07 0)
(5.7127e-06 -2.67344e-07 0)
(5.84871e-06 -3.63665e-07 0)
(6.02733e-06 -4.58931e-07 0)
(6.2481e-06 -5.52759e-07 0)
(6.51025e-06 -6.4475e-07 0)
(6.8128e-06 -7.34579e-07 0)
(7.15479e-06 -8.21897e-07 0)
(7.53517e-06 -9.06287e-07 0)
(7.95261e-06 -9.87354e-07 0)
(8.40548e-06 -1.06483e-06 0)
(8.89204e-06 -1.13849e-06 0)
(9.41063e-06 -1.20797e-06 0)
(9.95951e-06 -1.27278e-06 0)
(1.05367e-05 -1.33259e-06 0)
(1.11399e-05 -1.38721e-06 0)
(1.17666e-05 -1.43643e-06 0)
(1.24146e-05 -1.47999e-06 0)
(1.30813e-05 -1.5175e-06 0)
(1.37642e-05 -1.54867e-06 0)
(1.44605e-05 -1.57335e-06 0)
(1.51673e-05 -1.59136e-06 0)
(1.58818e-05 -1.60251e-06 0)
(1.66008e-05 -1.60666e-06 0)
(1.73213e-05 -1.6036e-06 0)
(1.80402e-05 -1.59312e-06 0)
(1.87545e-05 -1.57511e-06 0)
(1.94608e-05 -1.54953e-06 0)
(2.01557e-05 -1.51636e-06 0)
(2.08359e-05 -1.47553e-06 0)
(2.1498e-05 -1.42689e-06 0)
(2.2139e-05 -1.3704e-06 0)
(2.27554e-05 -1.3061e-06 0)
(2.33437e-05 -1.23404e-06 0)
(2.39007e-05 -1.15439e-06 0)
(2.44232e-05 -1.06725e-06 0)
(2.4908e-05 -9.72642e-07 0)
(2.53518e-05 -8.70685e-07 0)
(2.57517e-05 -7.61607e-07 0)
(2.61045e-05 -6.45688e-07 0)
(2.64075e-05 -5.23232e-07 0)
(2.6658e-05 -3.94498e-07 0)
(2.68532e-05 -2.59724e-07 0)
(2.69907e-05 -1.19252e-07 0)
(2.70683e-05 2.64142e-08 0)
(2.7084e-05 1.76785e-07 0)
(2.70357e-05 3.31407e-07 0)
(2.69216e-05 4.89665e-07 0)
(2.67406e-05 6.50869e-07 0)
(2.64914e-05 8.14423e-07 0)
(2.61734e-05 9.79756e-07 0)
(2.57859e-05 1.14612e-06 0)
(2.53286e-05 1.31252e-06 0)
(2.48019e-05 1.47795e-06 0)
(2.42064e-05 1.64148e-06 0)
(2.35431e-05 1.80225e-06 0)
(2.28133e-05 1.95918e-06 0)
(2.20192e-05 2.11093e-06 0)
(2.11632e-05 2.2561e-06 0)
(2.02484e-05 2.39332e-06 0)
(1.92783e-05 2.52116e-06 0)
(1.82573e-05 2.638e-06 0)
(1.71903e-05 2.74208e-06 0)
(1.60829e-05 2.83161e-06 0)
(1.49415e-05 2.90465e-06 0)
(1.37733e-05 2.95913e-06 0)
(1.2586e-05 2.99279e-06 0)
(1.13886e-05 3.00332e-06 0)
(1.01904e-05 2.98829e-06 0)
(9.00221e-06 2.94516e-06 0)
(7.83528e-06 2.87137e-06 0)
(6.70177e-06 2.7644e-06 0)
(5.61444e-06 2.62182e-06 0)
(4.58658e-06 2.44164e-06 0)
(3.63187e-06 2.22259e-06 0)
(2.76402e-06 1.96446e-06 0)
(1.99629e-06 1.66901e-06 0)
(1.34084e-06 1.34116e-06 0)
(8.07531e-07 9.90897e-07 0)
(4.02708e-07 6.35522e-07 0)
(1.34677e-07 3.03657e-07 0)
(1.81799e-08 4.80162e-08 0)
(3.64775e-08 -4.2208e-07 0)
(2.09619e-07 -6.95979e-07 0)
(6.07313e-07 -1.01213e-06 0)
(1.14329e-06 -1.41987e-06 0)
(1.79806e-06 -1.85848e-06 0)
(2.56303e-06 -2.28904e-06 0)
(3.43103e-06 -2.68368e-06 0)
(4.39109e-06 -3.02792e-06 0)
(5.42974e-06 -3.31599e-06 0)
(6.53525e-06 -3.54421e-06 0)
(7.69221e-06 -3.71642e-06 0)
(8.88656e-06 -3.83554e-06 0)
(1.01055e-05 -3.9053e-06 0)
(1.13347e-05 -3.93095e-06 0)
(1.25619e-05 -3.91675e-06 0)
(1.37763e-05 -3.8664e-06 0)
(1.49669e-05 -3.78454e-06 0)
(1.61247e-05 -3.67475e-06 0)
(1.72413e-05 -3.54023e-06 0)
(1.83091e-05 -3.38449e-06 0)
(1.93217e-05 -3.21039e-06 0)
(2.02738e-05 -3.02074e-06 0)
(2.11606e-05 -2.81809e-06 0)
(2.19778e-05 -2.60491e-06 0)
(2.27224e-05 -2.38341e-06 0)
(2.33919e-05 -2.1554e-06 0)
(2.39845e-05 -1.92305e-06 0)
(2.44987e-05 -1.68801e-06 0)
(2.49343e-05 -1.45178e-06 0)
(2.52906e-05 -1.21608e-06 0)
(2.55682e-05 -9.82184e-07 0)
(2.5768e-05 -7.51133e-07 0)
(2.58909e-05 -5.24335e-07 0)
(2.59385e-05 -3.02911e-07 0)
(2.5913e-05 -8.75501e-08 0)
(2.58165e-05 1.20793e-07 0)
(2.56515e-05 3.21136e-07 0)
(2.54207e-05 5.12896e-07 0)
(2.51275e-05 6.95562e-07 0)
(2.47747e-05 8.68517e-07 0)
(2.43658e-05 1.03119e-06 0)
(2.39044e-05 1.18325e-06 0)
(2.33943e-05 1.32435e-06 0)
(2.28394e-05 1.45413e-06 0)
(2.22436e-05 1.57238e-06 0)
(2.16106e-05 1.67889e-06 0)
(2.09446e-05 1.77355e-06 0)
(2.02497e-05 1.85649e-06 0)
(1.95302e-05 1.92757e-06 0)
(1.87898e-05 1.98662e-06 0)
(1.80328e-05 2.0338e-06 0)
(1.72635e-05 2.06939e-06 0)
(1.6486e-05 2.09343e-06 0)
(1.57038e-05 2.10589e-06 0)
(1.49211e-05 2.10705e-06 0)
(1.41419e-05 2.09737e-06 0)
(1.33699e-05 2.077e-06 0)
(1.26086e-05 2.04609e-06 0)
(1.18616e-05 2.00505e-06 0)
(1.11324e-05 1.95435e-06 0)
(1.04243e-05 1.89436e-06 0)
(9.74051e-06 1.82544e-06 0)
(9.08411e-06 1.74798e-06 0)
(8.45788e-06 1.66243e-06 0)
(7.86454e-06 1.56924e-06 0)
(7.30694e-06 1.46887e-06 0)
(6.78748e-06 1.36195e-06 0)
(6.30809e-06 1.24895e-06 0)
(5.87077e-06 1.13023e-06 0)
(5.4776e-06 1.00636e-06 0)
(5.13047e-06 8.78e-07 0)
(4.83085e-06 7.45602e-07 0)
(4.57978e-06 6.09589e-07 0)
(4.37842e-06 4.70577e-07 0)
(4.22792e-06 3.29277e-07 0)
(4.12901e-06 1.86278e-07 0)
(4.0821e-06 4.20018e-08 0)
(4.08751e-06 -1.03054e-07 0)
(4.14539e-06 -2.48255e-07 0)
(4.25573e-06 -3.93024e-07 0)
(4.4183e-06 -5.36784e-07 0)
(4.63265e-06 -6.78937e-07 0)
(4.89817e-06 -8.1895e-07 0)
(5.21394e-06 -9.56331e-07 0)
(5.57888e-06 -1.09054e-06 0)
(5.9919e-06 -1.22097e-06 0)
(6.45165e-06 -1.34704e-06 0)
(6.95646e-06 -1.46829e-06 0)
(7.50444e-06 -1.58433e-06 0)
(8.09362e-06 -1.69466e-06 0)
(8.72208e-06 -1.7987e-06 0)
(9.38766e-06 -1.89589e-06 0)
(1.00879e-05 -1.98584e-06 0)
(1.082e-05 -2.0682e-06 0)
(1.15811e-05 -2.14254e-06 0)
(1.23686e-05 -2.2084e-06 0)
(1.31795e-05 -2.26543e-06 0)
(1.40106e-05 -2.31324e-06 0)
(1.48586e-05 -2.35149e-06 0)
(1.57201e-05 -2.37989e-06 0)
(1.65916e-05 -2.39816e-06 0)
(1.74696e-05 -2.40611e-06 0)
(1.83505e-05 -2.40346e-06 0)
(1.92304e-05 -2.38988e-06 0)
(2.01057e-05 -2.36519e-06 0)
(2.09724e-05 -2.32937e-06 0)
(2.18264e-05 -2.28235e-06 0)
(2.2664e-05 -2.224e-06 0)
(2.34811e-05 -2.15417e-06 0)
(2.4274e-05 -2.07282e-06 0)
(2.50386e-05 -1.98006e-06 0)
(2.57707e-05 -1.87597e-06 0)
(2.64665e-05 -1.76061e-06 0)
(2.71222e-05 -1.63413e-06 0)
(2.7734e-05 -1.49675e-06 0)
(2.82982e-05 -1.34868e-06 0)
(2.88109e-05 -1.19018e-06 0)
(2.92687e-05 -1.02156e-06 0)
(2.96682e-05 -8.43263e-07 0)
(3.00062e-05 -6.55749e-07 0)
(3.02795e-05 -4.59506e-07 0)
(3.04854e-05 -2.55004e-07 0)
(3.0621e-05 -4.2828e-08 0)
(3.0684e-05 1.76228e-07 0)
(3.06719e-05 4.0137e-07 0)
(3.05828e-05 6.31846e-07 0)
(3.0415e-05 8.66767e-07 0)
(3.01675e-05 1.1051e-06 0)
(2.98393e-05 1.34582e-06 0)
(2.94296e-05 1.58789e-06 0)
(2.89381e-05 1.83006e-06 0)
(2.83651e-05 2.07093e-06 0)
(2.77115e-05 2.30903e-06 0)
(2.69785e-05 2.54288e-06 0)
(2.61677e-05 2.77089e-06 0)
(2.52814e-05 2.99133e-06 0)
(2.43225e-05 3.20226e-06 0)
(2.32947e-05 3.40162e-06 0)
(2.22022e-05 3.58726e-06 0)
(2.10498e-05 3.75693e-06 0)
(1.98433e-05 3.90815e-06 0)
(1.85893e-05 4.03832e-06 0)
(1.7295e-05 4.14474e-06 0)
(1.59685e-05 4.22449e-06 0)
(1.46188e-05 4.27441e-06 0)
(1.32559e-05 4.29128e-06 0)
(1.18907e-05 4.27185e-06 0)
(1.05348e-05 4.21274e-06 0)
(9.20109e-06 4.11059e-06 0)
(7.90288e-06 3.9621e-06 0)
(6.65424e-06 3.76418e-06 0)
(5.4698e-06 3.51436e-06 0)
(4.36451e-06 3.21129e-06 0)
(3.35333e-06 2.85507e-06 0)
(2.45081e-06 2.44824e-06 0)
(1.67084e-06 1.997e-06 0)
(1.02555e-06 1.5131e-06 0)
(5.24361e-07 1.01602e-06 0)
(1.82205e-07 5.36552e-07 0)
(2.68105e-08 1.28329e-07 0)
(3.63584e-08 -5.22913e-07 0)
(2.30164e-07 -1.02212e-06 0)
(6.76325e-07 -1.51308e-06 0)
(1.29318e-06 -2.06322e-06 0)
(2.04682e-06 -2.62823e-06 0)
(2.92429e-06 -3.16968e-06 0)
(3.91149e-06 -3.66343e-06 0)
(4.99361e-06 -4.09516e-06 0)
(6.15822e-06 -4.45531e-06 0)
(7.38872e-06 -4.74349e-06 0)
(8.67053e-06 -4.96043e-06 0)
(9.98958e-06 -5.1094e-06 0)
(1.13302e-05 -5.1956e-06 0)
(1.26792e-05 -5.22464e-06 0)
(1.40231e-05 -5.20088e-06 0)
(1.53494e-05 -5.13026e-06 0)
(1.66474e-05 -5.0176e-06 0)
(1.79066e-05 -4.86757e-06 0)
(1.91181e-05 -4.68473e-06 0)
(2.02736e-05 -4.47338e-06 0)
(2.13661e-05 -4.23726e-06 0)
(2.23894e-05 -3.97994e-06 0)
(2.33384e-05 -3.70516e-06 0)
(2.42084e-05 -3.41601e-06 0)
(2.49962e-05 -3.11544e-06 0)
(2.56987e-05 -2.80616e-06 0)
(2.63139e-05 -2.49085e-06 0)
(2.68406e-05 -2.17169e-06 0)
(2.72778e-05 -1.85104e-06 0)
(2.76254e-05 -1.531e-06 0)
(2.7884e-05 -1.21322e-06 0)
(2.80542e-05 -8.99503e-07 0)
(2.81373e-05 -5.91629e-07 0)
(2.81354e-05 -2.90806e-07 0)
(2.80507e-05 1.73029e-09 0)
(2.78856e-05 2.84541e-07 0)
(2.76429e-05 5.56561e-07 0)
(2.7326e-05 8.17018e-07 0)
(2.69383e-05 1.06491e-06 0)
(2.64834e-05 1.29943e-06 0)
(2.59653e-05 1.51997e-06 0)
(2.53881e-05 1.72597e-06 0)
(2.4756e-05 1.91699e-06 0)
(2.40735e-05 2.09261e-06 0)
(2.3345e-05 2.25244e-06 0)
(2.2575e-05 2.39612e-06 0)
(2.17683e-05 2.52367e-06 0)
(2.09296e-05 2.63508e-06 0)
(2.00634e-05 2.73003e-06 0)
(1.91745e-05 2.80853e-06 0)
(1.82678e-05 2.87091e-06 0)
(1.7348e-05 2.9173e-06 0)
(1.64196e-05 2.94767e-06 0)
(1.54872e-05 2.96222e-06 0)
(1.45555e-05 2.96139e-06 0)
(1.36289e-05 2.94562e-06 0)
(1.27115e-05 2.9151e-06 0)
(1.18078e-05 2.87014e-06 0)
(1.09216e-05 2.81132e-06 0)
(1.00572e-05 2.73916e-06 0)
(9.21825e-06 2.65413e-06 0)
(8.40846e-06 2.55687e-06 0)
(7.63132e-06 2.44789e-06 0)
(6.89014e-06 2.32771e-06 0)
(6.18808e-06 2.19712e-06 0)
(5.5283e-06 2.0568e-06 0)
(4.91359e-06 1.9073e-06 0)
(4.34626e-06 1.74917e-06 0)
(3.82869e-06 1.58321e-06 0)
(3.36327e-06 1.41035e-06 0)
(2.95201e-06 1.23132e-06 0)
(2.59654e-06 1.04662e-06 0)
(2.29823e-06 8.56974e-07 0)
(2.05853e-06 6.63307e-07 0)
(1.87871e-06 4.66431e-07 0)
(1.75952e-06 2.6706e-07 0)