/*--------------------------------*- C++ -*----------------------------------*\
  =========                 |
  \\      /  F ield         | OpenFOAM: The Open Source CFD Toolbox
   \\    /   O peration     | Website:  https://openfoam.org
    \\  /    A nd           | Version:  7
     \\/     M anipulation  |
\*---------------------------------------------------------------------------*/
FoamFile
{
    version     2.0;
    format      ascii;
    class       volScalarField;
    location    "0.325";
    object      p;
}
// * * * * * * * * * * * * * * * * * * * * * * * * * * * * * * * * * * * * * //

dimensions      [0 2 -2 0 0 0 0];

internalField   nonuniform List<scalar> 
51200
(
-2.73918e-06
-5.46059e-06
-5.02519e-06
-2.05209e-06
2.7227e-06
8.80678e-06
1.61166e-05
2.44073e-05
3.33054e-05
4.25495e-05
5.19807e-05
6.14521e-05
7.08182e-05
7.99555e-05
8.87513e-05
9.70995e-05
0.00010491
0.000112107
0.000118626
0.000124405
0.000129388
0.000133531
0.000136807
0.000139197
0.00014068
0.000141238
0.000140856
0.000139524
0.000137232
0.000133975
0.000129751
0.000124557
0.000118399
0.000111285
0.000103226
9.4233e-05
8.4316e-05
7.34839e-05
6.17468e-05
4.91162e-05
3.56059e-05
2.1232e-05
6.01266e-06
-1.0034e-05
-2.68894e-05
-4.45346e-05
-6.29495e-05
-8.21126e-05
-0.000102001
-0.00012259
-0.000143857
-0.00016578
-0.000188338
-0.00021151
-0.000235277
-0.000259617
-0.000284511
-0.000309938
-0.000335874
-0.000362294
-0.000389171
-0.000416482
-0.000444203
-0.000472313
-0.000500793
-0.000529623
-0.000558783
-0.000588252
-0.000618008
-0.000648027
-0.000678285
-0.000708757
-0.000739419
-0.000770247
-0.000801215
-0.000832301
-0.000863481
-0.000894733
-0.000926034
-0.000957362
-0.000988698
-0.00102002
-0.00105132
-0.00108256
-0.00111373
-0.0011448
-0.00117576
-0.00120657
-0.00123722
-0.00126768
-0.00129793
-0.00132795
-0.00135771
-0.0013872
-0.00141638
-0.00144524
-0.00147375
-0.00150188
-0.00152962
-0.00155695
-0.00158383
-0.00161024
-0.00163617
-0.00166159
-0.00168646
-0.00171078
-0.00173453
-0.00175768
-0.00178022
-0.00180212
-0.00182336
-0.00184392
-0.00186377
-0.0018829
-0.00190128
-0.00191889
-0.00193571
-0.00195172
-0.00196691
-0.00198125
-0.00199472
-0.00200732
-0.00201903
-0.00202983
-0.00203971
-0.00204866
-0.00205667
-0.00206372
-0.0020698
-0.00207492
-0.00207906
-0.00208225
-0.00208446
-0.00208572
-0.00208602
-0.00208537
-0.0020838
-0.00208132
-0.00207797
-0.00207377
-0.00206876
-0.00206296
-0.0020564
-0.00204916
-0.00204131
-0.0020329
-0.00202401
-0.00201478
-0.00200535
-0.00199581
-0.00198626
-0.00197688
-0.00196795
-0.00195969
-0.00195231
-0.00194607
-0.00194129
-0.00193833
-0.00193733
-0.00193795
-4.25693e-06
-5.35767e-06
-4.59193e-06
-1.81416e-06
2.37542e-06
7.74005e-06
1.40862e-05
2.12091e-05
2.89394e-05
3.70925e-05
4.54505e-05
5.38325e-05
6.21281e-05
7.02522e-05
7.81002e-05
8.55583e-05
9.25309e-05
9.89439e-05
0.000104734
0.00010984
0.000114204
0.000117783
0.000120551
0.000122486
0.000123567
0.000123772
0.000123085
0.000121492
0.000118984
0.000115555
0.000111196
0.000105906
9.96891e-05
9.2553e-05
8.45079e-05
7.55629e-05
6.57255e-05
5.50028e-05
4.34027e-05
3.09355e-05
1.7614e-05
3.45359e-06
-1.15289e-05
-2.73163e-05
-4.38919e-05
-6.1238e-05
-7.93351e-05
-9.81624e-05
-0.000117698
-0.000137918
-0.000158801
-0.000180326
-0.000202472
-0.00022522
-0.000248551
-0.000272445
-0.000296885
-0.000321848
-0.000347311
-0.000373249
-0.000399636
-0.000426449
-0.000453666
-0.000481265
-0.00050923
-0.00053754
-0.000566176
-0.000595117
-0.000624341
-0.000653825
-0.000683544
-0.000713474
-0.000743592
-0.000773872
-0.000804292
-0.000834827
-0.000865454
-0.000896152
-0.000926898
-0.00095767
-0.000988451
-0.00101922
-0.00104996
-0.00108065
-0.00111126
-0.00114179
-0.00117219
-0.00120245
-0.00123255
-0.00126247
-0.00129218
-0.00132166
-0.00135089
-0.00137984
-0.0014085
-0.00143683
-0.00146482
-0.00149245
-0.00151968
-0.0015465
-0.00157289
-0.00159882
-0.00162427
-0.00164922
-0.00167363
-0.0016975
-0.00172081
-0.00174354
-0.00176566
-0.00178716
-0.00180802
-0.0018282
-0.0018477
-0.00186649
-0.00188455
-0.00190186
-0.0019184
-0.00193415
-0.0019491
-0.00196322
-0.0019765
-0.00198893
-0.0020005
-0.0020112
-0.00202101
-0.00202991
-0.0020379
-0.00204497
-0.00205111
-0.00205632
-0.0020606
-0.00206396
-0.0020664
-0.00206791
-0.00206851
-0.00206822
-0.00206707
-0.00206505
-0.0020622
-0.00205856
-0.00205417
-0.00204905
-0.00204322
-0.00203677
-0.00202977
-0.00202228
-0.00201434
-0.00200609
-0.00199768
-0.00198924
-0.00198085
-0.00197262
-0.00196476
-0.00195755
-0.00195116
-0.00194575
-0.0019416
-0.00193892
-0.0019379
-0.00193852
-5.98925e-06
-6.57353e-06
-5.59211e-06
-3.14291e-06
6.76024e-07
5.63023e-06
1.13876e-05
1.77689e-05
2.46935e-05
3.20234e-05
3.95626e-05
4.7144e-05
5.46575e-05
6.20139e-05
6.91164e-05
7.58652e-05
8.21721e-05
8.79626e-05
9.31674e-05
9.77247e-05
0.000101583
0.000104703
0.000107056
0.000108619
0.000109367
0.000109277
0.000108332
0.000106518
0.000103826
0.000100245
9.57673e-05
9.03901e-05
8.41174e-05
7.69569e-05
6.89168e-05
6.00045e-05
5.02257e-05
3.95859e-05
2.8092e-05
1.57536e-05
2.58304e-06
-1.14052e-05
-2.61956e-05
-4.17726e-05
-5.81203e-05
-7.52217e-05
-9.30581e-05
-0.000111609
-0.000130853
-0.000150769
-0.000171334
-0.000192528
-0.000214332
-0.000236727
-0.000259695
-0.000283219
-0.00030728
-0.000331855
-0.000356923
-0.000382459
-0.000408436
-0.000434832
-0.000461625
-0.000488797
-0.00051633
-0.000544205
-0.000572402
-0.0006009
-0.000629677
-0.00065871
-0.000687976
-0.00071745
-0.000747109
-0.000776928
-0.000806885
-0.000836956
-0.000867119
-0.000897349
-0.000927627
-0.000957932
-0.000988245
-0.00101855
-0.00104882
-0.00107904
-0.00110919
-0.00113925
-0.00116919
-0.00119899
-0.00122863
-0.00125809
-0.00128734
-0.00131637
-0.00134515
-0.00137365
-0.00140187
-0.00142976
-0.00145732
-0.00148451
-0.00151132
-0.00153772
-0.0015637
-0.00158923
-0.00161428
-0.00163883
-0.00166286
-0.00168636
-0.00170931
-0.00173168
-0.00175346
-0.00177463
-0.00179517
-0.00181505
-0.00183425
-0.00185276
-0.00187055
-0.00188761
-0.00190392
-0.00191946
-0.00193422
-0.00194816
-0.00196129
-0.0019736
-0.00198506
-0.00199567
-0.00200542
-0.00201429
-0.00202227
-0.00202936
-0.00203556
-0.00204085
-0.00204526
-0.00204877
-0.00205139
-0.00205312
-0.00205398
-0.00205399
-0.00205317
-0.00205154
-0.00204912
-0.00204594
-0.00204204
-0.00203746
-0.00203223
-0.0020264
-0.00202005
-0.00201326
-0.00200611
-0.00199865
-0.001991
-0.00198333
-0.00197576
-0.00196837
-0.00196133
-0.00195483
-0.00194904
-0.00194418
-0.00194039
-0.00193781
-0.00193677
-0.00193736
-9.29569e-06
-9.38906e-06
-8.18005e-06
-5.70445e-06
-2.05526e-06
2.57477e-06
7.95517e-06
1.39175e-05
2.03331e-05
2.70651e-05
3.39766e-05
4.09472e-05
4.78672e-05
5.46318e-05
6.11444e-05
6.73217e-05
7.30867e-05
7.83647e-05
8.30834e-05
8.71819e-05
9.06141e-05
9.33463e-05
9.53487e-05
9.6593e-05
9.70531e-05
9.6707e-05
9.55374e-05
9.35303e-05
9.06731e-05
8.69538e-05
8.23643e-05
7.69035e-05
7.05757e-05
6.33875e-05
5.53453e-05
4.64547e-05
3.67196e-05
2.61443e-05
1.47353e-05
2.50193e-06
-1.05438e-05
-2.43882e-05
-3.90168e-05
-5.44157e-05
-7.05699e-05
-8.74631e-05
-0.000105077
-0.000123391
-0.000142386
-0.000162039
-0.000182328
-0.000203236
-0.000224743
-0.000246831
-0.000269485
-0.000292686
-0.000316416
-0.000340654
-0.000365377
-0.00039056
-0.000416177
-0.000442208
-0.000468631
-0.000495429
-0.000522584
-0.000550076
-0.000577887
-0.000605996
-0.00063438
-0.000663018
-0.000691885
-0.000720957
-0.000750212
-0.000779626
-0.000809175
-0.000838837
-0.000868588
-0.000898408
-0.000928273
-0.000958165
-0.000988065
-0.00101796
-0.00104782
-0.00107763
-0.00110737
-0.00113701
-0.00116654
-0.00119594
-0.00122517
-0.00125422
-0.00128308
-0.00131171
-0.00134009
-0.0013682
-0.00139603
-0.00142353
-0.00145071
-0.00147752
-0.00150396
-0.00153
-0.00155562
-0.00158079
-0.0016055
-0.00162971
-0.00165341
-0.00167658
-0.00169921
-0.00172128
-0.00174276
-0.00176365
-0.00178391
-0.00180352
-0.00182247
-0.00184074
-0.00185831
-0.00187516
-0.00189128
-0.00190664
-0.00192123
-0.00193503
-0.00194803
-0.00196022
-0.0019716
-0.00198214
-0.00199185
-0.00200069
-0.00200868
-0.0020158
-0.00202204
-0.00202742
-0.00203193
-0.00203558
-0.00203836
-0.0020403
-0.00204139
-0.00204166
-0.00204112
-0.0020398
-0.00203775
-0.00203498
-0.0020315
-0.00202736
-0.00202262
-0.00201732
-0.00201149
-0.00200523
-0.00199867
-0.00199186
-0.00198485
-0.00197776
-0.00197075
-0.00196395
-0.00195748
-0.00195144
-0.00194602
-0.00194143
-0.00193778
-0.00193519
-0.00193394
-0.00193424
-1.41099e-05
-1.37466e-05
-1.20678e-05
-9.30463e-06
-5.6719e-06
-1.2475e-06
3.87984e-06
9.5534e-06
1.55973e-05
2.18739e-05
2.82886e-05
3.47541e-05
4.11658e-05
4.74189e-05
5.34236e-05
5.91039e-05
6.43884e-05
6.92043e-05
7.34816e-05
7.71635e-05
8.02086e-05
8.25849e-05
8.42614e-05
8.52083e-05
8.53992e-05
8.48123e-05
8.34304e-05
8.12385e-05
7.82215e-05
7.43667e-05
6.9667e-05
6.41224e-05
5.77375e-05
5.0518e-05
4.24686e-05
3.35928e-05
2.38933e-05
1.33734e-05
2.03951e-06
-1.00989e-05
-2.30305e-05
-3.67428e-05
-5.12231e-05
-6.64579e-05
-8.24329e-05
-9.91323e-05
-0.000116539
-0.000134632
-0.000153392
-0.000172796
-0.000192826
-0.000213463
-0.000234689
-0.000256487
-0.000278843
-0.000301739
-0.000325156
-0.000349073
-0.000373468
-0.000398314
-0.000423589
-0.000449271
-0.000475341
-0.000501782
-0.000528576
-0.000555704
-0.000583146
-0.000610882
-0.000638891
-0.000667149
-0.000695634
-0.000724322
-0.00075319
-0.000782214
-0.000811373
-0.000840642
-0.000869999
-0.000899423
-0.000928893
-0.000958389
-0.000987894
-0.00101739
-0.00104686
-0.00107627
-0.00110562
-0.00113487
-0.00116401
-0.00119301
-0.00122186
-0.00125052
-0.00127899
-0.00130724
-0.00133524
-0.00136298
-0.00139043
-0.00141757
-0.00144438
-0.00147084
-0.00149692
-0.00152261
-0.00154789
-0.00157273
-0.0015971
-0.00162098
-0.00164437
-0.00166723
-0.00168957
-0.00171135
-0.00173255
-0.00175317
-0.00177316
-0.00179253
-0.00181125
-0.00182929
-0.00184665
-0.0018633
-0.00187924
-0.00189443
-0.00190887
-0.00192253
-0.00193542
-0.00194752
-0.00195881
-0.0019693
-0.00197897
-0.0019878
-0.00199579
-0.00200293
-0.00200923
-0.00201469
-0.00201931
-0.00202309
-0.00202603
-0.00202815
-0.00202947
-0.00202999
-0.00202972
-0.0020287
-0.00202698
-0.00202457
-0.00202147
-0.00201774
-0.00201344
-0.00200862
-0.00200328
-0.00199751
-0.00199141
-0.00198512
-0.00197866
-0.00197209
-0.00196552
-0.00195917
-0.00195311
-0.00194742
-0.00194225
-0.00193775
-0.00193406
-0.00193132
-0.00192972
-0.00192943
-2.03345e-05
-1.92269e-05
-1.70185e-05
-1.39282e-05
-1.01378e-05
-5.70521e-06
-6.92553e-07
4.77164e-06
1.05386e-05
1.64901e-05
2.25405e-05
2.86053e-05
3.45924e-05
4.04133e-05
4.59885e-05
5.12445e-05
5.611e-05
6.05144e-05
6.43953e-05
6.77039e-05
7.04022e-05
7.2456e-05
7.38336e-05
7.45067e-05
7.44492e-05
7.36391e-05
7.20582e-05
6.96899e-05
6.65184e-05
6.25315e-05
5.77244e-05
5.20977e-05
4.56556e-05
3.84025e-05
3.03416e-05
2.14747e-05
1.18033e-05
1.33057e-06
-9.93711e-06
-2.19907e-05
-3.48198e-05
-4.84129e-05
-6.27581e-05
-7.78428e-05
-9.36533e-05
-0.000110174
-0.000127388
-0.000145276
-0.000163816
-0.000182989
-0.000202776
-0.000223158
-0.000244121
-0.000265648
-0.000287724
-0.000310332
-0.000333455
-0.00035707
-0.000381154
-0.000405683
-0.000430633
-0.000455986
-0.000481722
-0.000507825
-0.000534276
-0.000561058
-0.00058815
-0.000615533
-0.000643185
-0.000671083
-0.000699205
-0.000727527
-0.000756026
-0.00078468
-0.000813466
-0.000842361
-0.000871343
-0.00090039
-0.000929483
-0.000958602
-0.000987731
-0.00101685
-0.00104594
-0.00107498
-0.00110395
-0.00113283
-0.00116159
-0.00119023
-0.0012187
-0.001247
-0.00127511
-0.00130299
-0.00133063
-0.00135801
-0.00138511
-0.0014119
-0.00143836
-0.00146448
-0.00149023
-0.00151559
-0.00154054
-0.00156506
-0.00158912
-0.0016127
-0.00163579
-0.00165837
-0.00168042
-0.00170193
-0.00172287
-0.00174323
-0.00176299
-0.00178212
-0.00180062
-0.00181845
-0.00183562
-0.00185209
-0.00186786
-0.00188289
-0.00189719
-0.00191074
-0.00192352
-0.00193553
-0.00194676
-0.0019572
-0.00196683
-0.00197565
-0.00198365
-0.00199083
-0.00199718
-0.00200272
-0.00200744
-0.00201135
-0.00201444
-0.00201674
-0.00201826
-0.00201901
-0.002019
-0.00201826
-0.00201684
-0.00201475
-0.00201201
-0.00200865
-0.00200473
-0.0020003
-0.0019954
-0.00199008
-0.0019844
-0.00197851
-0.00197248
-0.00196632
-0.00196015
-0.00195411
-0.00194831
-0.00194284
-0.00193779
-0.00193328
-0.00192943
-0.00192642
-0.00192431
-0.00192318
-2.76985e-05
-2.56011e-05
-2.28468e-05
-1.93997e-05
-1.53183e-05
-1.07152e-05
-5.69135e-06
-3.37777e-07
5.25324e-06
1.09909e-05
1.67843e-05
2.25467e-05
2.81995e-05
3.36707e-05
3.88917e-05
4.37909e-05
4.82966e-05
5.23428e-05
5.58772e-05
5.88586e-05
6.125e-05
6.30156e-05
6.41244e-05
6.45493e-05
6.42651e-05
6.32496e-05
6.14832e-05
5.89485e-05
5.56296e-05
5.15164e-05
4.66058e-05
4.08995e-05
3.44009e-05
2.7113e-05
1.90373e-05
1.01741e-05
5.24098e-07
-9.90968e-06
-2.11209e-05
-3.31007e-05
-4.58393e-05
-5.93259e-05
-7.35496e-05
-8.84987e-05
-0.00010416
-0.000120519
-0.000137557
-0.000155254
-0.000173593
-0.000192552
-0.000212113
-0.00023226
-0.000252979
-0.000274253
-0.00029607
-0.000318412
-0.00034126
-0.000364593
-0.000388386
-0.000412617
-0.000437264
-0.000462307
-0.000487731
-0.000513517
-0.000539647
-0.000566104
-0.000592867
-0.000619917
-0.000647233
-0.000674792
-0.000702572
-0.000730549
-0.000758701
-0.000787006
-0.000815441
-0.000843983
-0.00087261
-0.000901302
-0.000930039
-0.000958804
-0.000987578
-0.00101634
-0.00104508
-0.00107376
-0.00110238
-0.00113091
-0.00115932
-0.0011876
-0.00121573
-0.00124368
-0.00127144
-0.00129898
-0.00132629
-0.00135333
-0.00138009
-0.00140656
-0.0014327
-0.00145849
-0.00148393
-0.00150898
-0.00153363
-0.00155785
-0.00158162
-0.00160491
-0.00162772
-0.00165003
-0.00167183
-0.00169308
-0.00171378
-0.00173391
-0.00175344
-0.00177236
-0.00179065
-0.0018083
-0.00182528
-0.00184159
-0.0018572
-0.0018721
-0.00188628
-0.00189971
-0.0019124
-0.00192434
-0.00193551
-0.0019459
-0.00195552
-0.00196433
-0.00197234
-0.00197955
-0.00198596
-0.00199158
-0.0019964
-0.00200043
-0.00200367
-0.00200614
-0.00200785
-0.00200879
-0.00200902
-0.00200855
-0.00200739
-0.00200558
-0.00200316
-0.00200014
-0.00199655
-0.00199245
-0.0019879
-0.00198296
-0.00197766
-0.0019721
-0.00196637
-0.00196054
-0.00195467
-0.00194884
-0.00194318
-0.00193779
-0.00193275
-0.00192813
-0.00192405
-0.00192063
-0.00191786
-0.00191575
-3.60195e-05
-3.28171e-05
-2.93748e-05
-2.54777e-05
-2.10415e-05
-1.61978e-05
-1.1062e-05
-5.70298e-06
-1.80381e-07
5.43332e-06
1.10523e-05
1.65965e-05
2.19995e-05
2.71997e-05
3.21343e-05
3.67344e-05
4.09333e-05
4.46742e-05
4.79126e-05
5.06106e-05
5.27318e-05
5.42411e-05
5.51098e-05
5.53113e-05
5.48206e-05
5.36157e-05
5.16766e-05
4.89851e-05
4.55265e-05
4.12934e-05
3.62845e-05
3.05019e-05
2.39482e-05
1.66247e-05
8.53124e-06
-3.33081e-07
-9.9681e-06
-2.03706e-05
-3.15341e-05
-4.345e-05
-5.61089e-05
-6.95011e-05
-8.36167e-05
-9.84447e-05
-0.000113972
-0.000130183
-0.00014706
-0.000164585
-0.000182737
-0.000201499
-0.000220852
-0.000240782
-0.000261275
-0.000282317
-0.000303894
-0.000325989
-0.000348582
-0.000371651
-0.000395173
-0.000419126
-0.00044349
-0.000468245
-0.000493376
-0.000518866
-0.000544696
-0.000570848
-0.000597303
-0.000624041
-0.000651041
-0.000678282
-0.00070574
-0.000733393
-0.000761219
-0.000789195
-0.000817299
-0.000845509
-0.000873802
-0.00090216
-0.000930563
-0.000958993
-0.000987433
-0.00101586
-0.00104427
-0.00107262
-0.0011009
-0.0011291
-0.00115718
-0.00118513
-0.00121293
-0.00124056
-0.001268
-0.00129522
-0.0013222
-0.00134893
-0.00137538
-0.00140154
-0.00142737
-0.00145287
-0.00147802
-0.00150278
-0.00152714
-0.00155108
-0.00157458
-0.00159761
-0.00162016
-0.00164222
-0.00166377
-0.0016848
-0.00170527
-0.00172518
-0.0017445
-0.00176322
-0.00178133
-0.0017988
-0.00181562
-0.00183178
-0.00184726
-0.00186203
-0.00187609
-0.00188943
-0.00190204
-0.00191391
-0.00192503
-0.0019354
-0.00194499
-0.00195381
-0.00196184
-0.00196908
-0.00197555
-0.00198124
-0.00198615
-0.00199029
-0.00199368
-0.00199632
-0.00199819
-0.00199932
-0.00199976
-0.00199952
-0.00199861
-0.00199705
-0.00199489
-0.00199217
-0.00198889
-0.00198508
-0.00198081
-0.00197615
-0.00197117
-0.0019659
-0.00196039
-0.00195478
-0.00194912
-0.00194344
-0.00193783
-0.00193241
-0.00192726
-0.00192243
-0.00191801
-0.00191409
-0.0019106
-0.00190742
-4.50715e-05
-4.07128e-05
-3.64379e-05
-3.19937e-05
-2.71645e-05
-2.20387e-05
-1.67113e-05
-1.12458e-05
-5.69779e-06
-1.31135e-07
5.38416e-06
1.07845e-05
1.6013e-05
2.10116e-05
2.57189e-05
3.00724e-05
3.40155e-05
3.75016e-05
4.04904e-05
4.29444e-05
4.48289e-05
4.61124e-05
4.67676e-05
4.67685e-05
4.60905e-05
4.47117e-05
4.26115e-05
3.97722e-05
3.61819e-05
3.18359e-05
2.67345e-05
2.08796e-05
1.42724e-05
6.91277e-06
-1.20122e-06
-1.00714e-05
-1.96976e-05
-3.00758e-05
-4.11992e-05
-5.30599e-05
-6.56496e-05
-7.89595e-05
-9.29801e-05
-0.000107701
-0.000123108
-0.000139186
-0.000155917
-0.000173283
-0.000191265
-0.000209846
-0.000229009
-0.000248739
-0.000269025
-0.000289853
-0.000311209
-0.000333076
-0.000355433
-0.000378258
-0.000401528
-0.000425222
-0.000449322
-0.000473809
-0.000498667
-0.00052388
-0.000549429
-0.000575296
-0.000601462
-0.000627909
-0.000654614
-0.000681556
-0.000708713
-0.000736062
-0.000763582
-0.00079125
-0.000819043
-0.000846941
-0.000874922
-0.000902966
-0.000931055
-0.000959171
-0.000987297
-0.00101541
-0.0010435
-0.00107154
-0.00109951
-0.0011274
-0.00115517
-0.00118282
-0.00121031
-0.00123763
-0.00126476
-0.00129168
-0.00131837
-0.00134481
-0.00137097
-0.00139683
-0.00142239
-0.00144761
-0.00147248
-0.00149697
-0.00152107
-0.00154475
-0.00156799
-0.00159077
-0.00161309
-0.00163492
-0.00165624
-0.00167705
-0.00169732
-0.00171702
-0.00173616
-0.0017547
-0.00177263
-0.00178995
-0.00180662
-0.00182264
-0.00183799
-0.00185266
-0.00186662
-0.00187988
-0.00189242
-0.00190424
-0.00191532
-0.00192566
-0.00193524
-0.00194406
-0.00195211
-0.0019594
-0.00196592
-0.00197168
-0.00197668
-0.00198093
-0.00198445
-0.00198723
-0.00198926
-0.00199058
-0.0019912
-0.00199117
-0.00199048
-0.00198914
-0.0019872
-0.00198471
-0.0019817
-0.00197817
-0.00197413
-0.0019697
-0.00196495
-0.0019599
-0.00195458
-0.00194909
-0.00194352
-0.00193792
-0.00193232
-0.00192679
-0.00192143
-0.00191631
-0.00191148
-0.00190702
-0.00190275
-0.00189844
-5.45482e-05
-4.9041e-05
-4.39009e-05
-3.88538e-05
-3.35746e-05
-2.81076e-05
-2.25247e-05
-1.68836e-05
-1.12415e-05
-5.65389e-06
-1.73314e-07
5.15106e-06
1.02683e-05
1.5122e-05
1.9654e-05
2.38115e-05
2.7549e-05
3.08264e-05
3.36061e-05
3.58518e-05
3.75315e-05
3.86174e-05
3.90841e-05
3.89059e-05
3.80587e-05
3.65198e-05
3.4269e-05
3.1291e-05
2.75775e-05
2.31267e-05
1.79393e-05
1.20162e-05
5.35735e-06
-2.0393e-06
-1.01769e-05
-1.90573e-05
-2.86798e-05
-3.90398e-05
-5.01307e-05
-6.19453e-05
-7.44762e-05
-8.77154e-05
-0.000101653
-0.000116279
-0.00013158
-0.000147539
-0.000164138
-0.000181361
-0.000199188
-0.000217604
-0.000236592
-0.000256142
-0.000276239
-0.000296872
-0.000318026
-0.000339682
-0.000361821
-0.000384419
-0.000407455
-0.00043091
-0.000454765
-0.000479003
-0.000503608
-0.000528563
-0.000553851
-0.000579453
-0.000605351
-0.000631525
-0.000657955
-0.000684619
-0.000711495
-0.00073856
-0.000765794
-0.000793173
-0.000820676
-0.000848282
-0.00087597
-0.000903721
-0.000931517
-0.00095934
-0.000987172
-0.001015
-0.00104279
-0.00107054
-0.00109822
-0.00112581
-0.00115329
-0.00118065
-0.00120786
-0.0012349
-0.00126174
-0.00128838
-0.00131479
-0.00134095
-0.00136684
-0.00139244
-0.00141773
-0.00144269
-0.00146731
-0.00149155
-0.0015154
-0.00153884
-0.00156184
-0.0015844
-0.0016065
-0.00162811
-0.00164923
-0.00166984
-0.00168991
-0.00170944
-0.0017284
-0.00174678
-0.00176455
-0.00178172
-0.00179827
-0.00181417
-0.00182941
-0.00184397
-0.00185785
-0.00187104
-0.00188352
-0.00189529
-0.00190634
-0.00191666
-0.00192624
-0.00193507
-0.00194314
-0.00195047
-0.00195705
-0.00196288
-0.00196797
-0.00197233
-0.00197596
-0.00197886
-0.00198105
-0.00198253
-0.00198333
-0.00198346
-0.00198297
-0.00198184
-0.0019801
-0.0019778
-0.00197499
-0.00197167
-0.00196786
-0.00196362
-0.00195904
-0.00195414
-0.00194895
-0.00194352
-0.00193797
-0.00193236
-0.00192669
-0.00192101
-0.00191539
-0.0019099
-0.00190462
-0.00189958
-0.00189448
-0.00188903
-6.42118e-05
-5.75974e-05
-5.16262e-05
-4.59501e-05
-4.0157e-05
-3.42857e-05
-2.83972e-05
-2.25352e-05
-1.67477e-05
-1.10784e-05
-5.56915e-06
-2.62862e-07
4.79366e-06
9.5494e-06
1.39538e-05
1.79637e-05
2.15413e-05
2.46508e-05
2.72572e-05
2.93275e-05
3.08328e-05
3.17482e-05
3.20491e-05
3.17109e-05
3.07097e-05
2.90228e-05
2.66318e-05
2.35252e-05
1.96986e-05
1.51517e-05
9.88463e-06
3.89711e-06
-2.81251e-06
-1.02475e-05
-1.84113e-05
-2.73058e-05
-3.69293e-05
-4.72772e-05
-5.83432e-05
-7.01207e-05
-8.2603e-05
-9.57826e-05
-0.00010965
-0.000124194
-0.000139401
-0.000155254
-0.000171735
-0.000188828
-0.000206516
-0.000224782
-0.000243614
-0.000262999
-0.000282926
-0.000303382
-0.000324351
-0.000345815
-0.000367752
-0.000390142
-0.000412963
-0.000436197
-0.000459827
-0.000483835
-0.000508206
-0.000532923
-0.000557968
-0.000583323
-0.000608972
-0.000634893
-0.000661068
-0.000687473
-0.000714088
-0.00074089
-0.000767857
-0.000794968
-0.0008222
-0.000849534
-0.000876949
-0.000904427
-0.00093195
-0.000959499
-0.000987058
-0.00101461
-0.00104213
-0.0010696
-0.00109701
-0.00112433
-0.00115155
-0.00117864
-0.00120558
-0.00123235
-0.00125893
-0.00128531
-0.00131146
-0.00133737
-0.00136301
-0.00138836
-0.0014134
-0.00143813
-0.0014625
-0.00148652
-0.00151014
-0.00153335
-0.00155614
-0.00157849
-0.00160038
-0.0016218
-0.00164273
-0.00166316
-0.00168306
-0.00170242
-0.00172122
-0.00173944
-0.00175708
-0.00177412
-0.00179055
-0.00180634
-0.00182148
-0.00183596
-0.00184977
-0.00186289
-0.00187532
-0.00188706
-0.00189808
-0.0019084
-0.00191798
-0.00192682
-0.00193492
-0.00194229
-0.00194893
-0.00195482
-0.00195999
-0.00196445
-0.00196819
-0.00197121
-0.00197353
-0.00197516
-0.00197612
-0.00197641
-0.00197607
-0.00197511
-0.00197356
-0.00197144
-0.00196878
-0.00196562
-0.00196198
-0.0019579
-0.00195343
-0.00194863
-0.00194353
-0.00193815
-0.00193256
-0.00192685
-0.00192104
-0.00191516
-0.00190925
-0.00190336
-0.00189756
-0.00189189
-0.00188596
-0.00187937
-7.39387e-05
-6.62387e-05
-5.94541e-05
-5.31361e-05
-4.6792e-05
-4.04747e-05
-3.42425e-05
-2.8122e-05
-2.21436e-05
-1.63419e-05
-1.07543e-05
-5.42031e-06
-3.82608e-07
4.31628e-06
8.63637e-06
1.25426e-05
1.60011e-05
1.8979e-05
2.14448e-05
2.33702e-05
2.47292e-05
2.54983e-05
2.56537e-05
2.51718e-05
2.40295e-05
2.22057e-05
1.96855e-05
1.64617e-05
1.25326e-05
7.89801e-06
2.55722e-06
-3.49162e-06
-1.02514e-05
-1.77261e-05
-2.59192e-05
-3.48315e-05
-4.44609e-05
-5.48027e-05
-6.58512e-05
-7.76004e-05
-9.00442e-05
-0.000103175
-0.000116983
-0.000131457
-0.000146582
-0.000162342
-0.000178719
-0.000195697
-0.00021326
-0.000231393
-0.000250084
-0.000269322
-0.000289095
-0.000309391
-0.000330193
-0.000351481
-0.000373235
-0.000395434
-0.000418059
-0.000441091
-0.000464513
-0.00048831
-0.000512466
-0.000536962
-0.000561783
-0.000586912
-0.00061233
-0.000638019
-0.000663957
-0.000690124
-0.000716497
-0.000743054
-0.000769775
-0.000796637
-0.000823619
-0.000850701
-0.000877863
-0.000905087
-0.000932356
-0.000959651
-0.000986956
-0.00101425
-0.00104152
-0.00106874
-0.00109589
-0.00112297
-0.00114993
-0.00117677
-0.00120346
-0.00122999
-0.00125633
-0.00128247
-0.00130838
-0.00133405
-0.00135946
-0.00138458
-0.0014094
-0.0014339
-0.00145806
-0.00148186
-0.00150527
-0.00152828
-0.00155087
-0.00157303
-0.00159473
-0.00161597
-0.00163673
-0.00165699
-0.00167674
-0.00169595
-0.00171461
-0.0017327
-0.00175021
-0.00176714
-0.00178346
-0.00179915
-0.00181421
-0.00182862
-0.00184236
-0.00185543
-0.00186782
-0.00187953
-0.00189054
-0.00190085
-0.00191043
-0.00191929
-0.00192743
-0.00193485
-0.00194153
-0.00194749
-0.00195274
-0.00195729
-0.00196113
-0.00196426
-0.0019667
-0.00196846
-0.00196956
-0.00197
-0.00196979
-0.00196896
-0.00196757
-0.00196561
-0.00196309
-0.00196004
-0.00195651
-0.00195255
-0.00194816
-0.00194342
-0.00193835
-0.00193298
-0.00192732
-0.00192146
-0.00191546
-0.00190933
-0.00190309
-0.00189675
-0.00189041
-0.00188409
-0.00187732
-0.00186961
-8.36222e-05
-7.48379e-05
-6.72299e-05
-6.02666e-05
-5.33665e-05
-4.65849e-05
-3.9979e-05
-3.35629e-05
-2.73555e-05
-2.13849e-05
-1.56836e-05
-1.0287e-05
-5.23159e-06
-5.50944e-07
3.72449e-06
7.56517e-06
1.09401e-05
1.38189e-05
1.61742e-05
1.79822e-05
1.92195e-05
1.98632e-05
1.98903e-05
1.92786e-05
1.8007e-05
1.60577e-05
1.34202e-05
1.00912e-05
6.06996e-06
1.35547e-06
-4.05427e-06
-1.01622e-05
-1.69722e-05
-2.44884e-05
-3.27136e-05
-4.16476e-05
-5.12878e-05
-6.16298e-05
-7.26682e-05
-8.43979e-05
-9.6813e-05
-0.000109906
-0.000123666
-0.000138081
-0.000153137
-0.000168816
-0.000185101
-0.000201977
-0.000219429
-0.000237444
-0.000256011
-0.000275119
-0.000294756
-0.000314908
-0.000335559
-0.000356689
-0.000378277
-0.000400303
-0.000422748
-0.000445596
-0.00046883
-0.000492434
-0.000516392
-0.000540687
-0.000565304
-0.000590224
-0.000615431
-0.000640905
-0.000666627
-0.000692574
-0.000718725
-0.000745058
-0.000771551
-0.000798183
-0.000824934
-0.000851783
-0.000878712
-0.000905702
-0.000932736
-0.000959797
-0.000986866
-0.00101393
-0.00104096
-0.00106795
-0.00109487
-0.00112171
-0.00114844
-0.00117505
-0.00120151
-0.00122781
-0.00125393
-0.00127985
-0.00130554
-0.001331
-0.00135619
-0.0013811
-0.00140572
-0.00143001
-0.00145397
-0.00147758
-0.0015008
-0.00152362
-0.00154603
-0.00156801
-0.00158955
-0.00161063
-0.00163123
-0.00165134
-0.00167095
-0.00169002
-0.00170856
-0.00172653
-0.00174394
-0.00176076
-0.00177699
-0.0017926
-0.00180758
-0.00182193
-0.00183562
-0.00184865
-0.00186101
-0.00187269
-0.0018837
-0.001894
-0.0019036
-0.00191248
-0.00192066
-0.00192811
-0.00193485
-0.00194087
-0.00194619
-0.00195083
-0.00195477
-0.00195801
-0.00196055
-0.00196242
-0.00196364
-0.00196421
-0.00196413
-0.00196341
-0.00196213
-0.0019603
-0.0019579
-0.00195496
-0.00195151
-0.0019476
-0.00194326
-0.00193852
-0.00193344
-0.00192803
-0.00192229
-0.00191626
-0.00191002
-0.00190359
-0.00189697
-0.00189018
-0.00188327
-0.00187631
-0.0018687
-0.00185992
-9.31203e-05
-8.32667e-05
-7.48341e-05
-6.72301e-05
-5.97783e-05
-5.25242e-05
-4.55225e-05
-3.87827e-05
-3.23193e-05
-2.61543e-05
-2.03136e-05
-1.48262e-05
-9.72035e-06
-5.02182e-06
-7.55521e-07
3.05186e-06
6.37271e-06
9.18076e-06
1.14525e-05
1.31674e-05
1.43035e-05
1.4839e-05
1.47526e-05
1.40241e-05
1.26351e-05
1.05725e-05
7.83023e-06
4.40744e-06
3.03258e-07
-4.48462e-06
-9.95948e-06
-1.61252e-05
-2.2986e-05
-3.05457e-05
-3.88059e-05
-4.77656e-05
-5.74217e-05
-6.77701e-05
-7.88062e-05
-9.05252e-05
-0.000102921
-0.000115986
-0.000129709
-0.000144077
-0.000159074
-0.000174684
-0.00019089
-0.000207678
-0.000225034
-0.000242946
-0.000261404
-0.000280399
-0.000299916
-0.000319942
-0.000340458
-0.000361445
-0.000382883
-0.000404753
-0.000427038
-0.00044972
-0.000472783
-0.000496212
-0.000519991
-0.000544103
-0.000568533
-0.000593264
-0.000618278
-0.000643558
-0.000669081
-0.000694828
-0.000720776
-0.000746903
-0.000773187
-0.000799609
-0.000826148
-0.000852784
-0.000879498
-0.000906273
-0.000933091
-0.000959936
-0.000986789
-0.00101363
-0.00104045
-0.00106722
-0.00109393
-0.00112056
-0.00114708
-0.00117348
-0.00119973
-0.00122582
-0.00125173
-0.00127745
-0.00130294
-0.0013282
-0.0013532
-0.00137792
-0.00140235
-0.00142646
-0.00145024
-0.00147366
-0.00149671
-0.00151936
-0.00154161
-0.00156344
-0.00158482
-0.00160576
-0.00162622
-0.0016462
-0.00166568
-0.00168464
-0.00170306
-0.00172093
-0.00173824
-0.00175498
-0.00177113
-0.00178667
-0.00180159
-0.00181589
-0.00182954
-0.00184253
-0.00185487
-0.00186654
-0.00187754
-0.00188785
-0.00189746
-0.00190637
-0.00191459
-0.00192208
-0.00192887
-0.00193495
-0.00194035
-0.00194506
-0.00194908
-0.00195242
-0.00195506
-0.00195703
-0.00195835
-0.00195904
-0.00195907
-0.00195846
-0.00195725
-0.0019555
-0.0019532
-0.00195035
-0.00194697
-0.0019431
-0.00193876
-0.001934
-0.00192886
-0.00192335
-0.0019175
-0.00191129
-0.00190478
-0.00189802
-0.001891
-0.00188374
-0.00187629
-0.00186868
-0.00186026
-0.00185042
-0.000102286
-9.14104e-05
-8.21778e-05
-7.39407e-05
-6.59371e-05
-5.82041e-05
-5.07946e-05
-4.37165e-05
-3.69804e-05
-3.0602e-05
-2.46e-05
-1.89962e-05
-1.38104e-05
-9.06316e-06
-4.77718e-06
-9.76762e-07
2.3151e-06
5.07686e-06
7.28858e-06
8.93101e-06
9.98343e-06
1.04253e-05
1.02382e-05
9.4047e-06
7.91053e-06
5.74744e-06
2.91293e-06
-5.9303e-07
-4.77226e-06
-9.62846e-06
-1.5166e-05
-2.13892e-05
-2.83022e-05
-3.59076e-05
-4.42059e-05
-5.31951e-05
-6.28722e-05
-7.32338e-05
-8.42757e-05
-9.59931e-05
-0.00010838
-0.000121427
-0.000135122
-0.000149453
-0.000164402
-0.000179954
-0.000196094
-0.000212806
-0.000230081
-0.000247906
-0.000266272
-0.000285169
-0.000304582
-0.000324497
-0.000344894
-0.000365755
-0.00038706
-0.000408791
-0.000430932
-0.000453466
-0.000476377
-0.000499648
-0.000523265
-0.000547212
-0.000571474
-0.000596034
-0.000620876
-0.000645979
-0.000671324
-0.000696888
-0.000722651
-0.000748591
-0.000774687
-0.000800917
-0.000827262
-0.000853703
-0.000880222
-0.000906801
-0.000933422
-0.00096007
-0.000986725
-0.00101337
-0.00103999
-0.00106657
-0.00109308
-0.00111951
-0.00114584
-0.00117205
-0.00119811
-0.00122401
-0.00124974
-0.00127527
-0.00130058
-0.00132566
-0.00135049
-0.00137504
-0.00139929
-0.00142324
-0.00144685
-0.00147011
-0.00149301
-0.00151551
-0.00153761
-0.0015593
-0.00158055
-0.00160136
-0.0016217
-0.00164157
-0.00166094
-0.00167979
-0.00169812
-0.0017159
-0.00173313
-0.00174979
-0.00176587
-0.00178135
-0.00179623
-0.00181048
-0.0018241
-0.00183707
-0.00184939
-0.00186106
-0.00187206
-0.00188238
-0.00189201
-0.00190096
-0.00190921
-0.00191675
-0.00192358
-0.00192973
-0.00193519
-0.00193997
-0.00194407
-0.00194749
-0.00195024
-0.00195231
-0.00195372
-0.00195449
-0.00195461
-0.0019541
-0.00195298
-0.00195127
-0.00194901
-0.00194622
-0.0019429
-0.00193905
-0.0019347
-0.00192989
-0.00192466
-0.00191901
-0.001913
-0.00190659
-0.00189983
-0.00189272