/*--------------------------------*- C++ -*----------------------------------*\
  =========                 |
  \\      /  F ield         | OpenFOAM: The Open Source CFD Toolbox
   \\    /   O peration     | Website:  https://openfoam.org
    \\  /    A nd           | Version:  7
     \\/     M anipulation  |
\*---------------------------------------------------------------------------*/
FoamFile
{
    version     2.0;
    format      ascii;
    class       volScalarField;
    location    "0.125";
    object      p;
}
// * * * * * * * * * * * * * * * * * * * * * * * * * * * * * * * * * * * * * //

dimensions      [0 2 -2 0 0 0 0];

internalField   nonuniform List<scalar> 
51200
(
3.05428e-07
-0.000276558
-0.000677697
-0.00104766
-0.0013349
-0.00157186
-0.00177153
-0.00194217
-0.00208941
-0.00221727
-0.00232915
-0.00242784
-0.00251584
-0.00259556
-0.00266875
-0.00273662
-0.00280014
-0.0028602
-0.0029175
-0.00297293
-0.00302681
-0.00307926
-0.00313038
-0.0031804
-0.00322953
-0.00327796
-0.00332591
-0.00337328
-0.00341988
-0.00346571
-0.00351097
-0.00355579
-0.0036001
-0.00364392
-0.00368724
-0.00372995
-0.00377224
-0.00381447
-0.00385693
-0.00389956
-0.00394216
-0.00398463
-0.00402699
-0.00406921
-0.00411141
-0.00415372
-0.00419613
-0.00423853
-0.00428083
-0.00432308
-0.00436534
-0.00440758
-0.00444985
-0.00449222
-0.00453476
-0.00457749
-0.00462025
-0.00466302
-0.00470583
-0.00474868
-0.00479157
-0.00483446
-0.0048774
-0.00492045
-0.00496362
-0.00500686
-0.0050501
-0.00509327
-0.00513642
-0.0051796
-0.00522285
-0.00526613
-0.00530944
-0.00535279
-0.00539615
-0.00543945
-0.0054826
-0.00552551
-0.00556811
-0.00561039
-0.0056523
-0.00569381
-0.00573496
-0.00577581
-0.00581639
-0.00585668
-0.00589662
-0.00593623
-0.00597552
-0.0060145
-0.0060531
-0.00609122
-0.00612881
-0.0061659
-0.00620256
-0.00623883
-0.00627467
-0.00630994
-0.00634456
-0.00637853
-0.00641192
-0.00644472
-0.00647691
-0.00650843
-0.00653928
-0.00656956
-0.00659938
-0.00662878
-0.0066577
-0.00668597
-0.00671349
-0.00674019
-0.00676611
-0.00679128
-0.00681569
-0.00683932
-0.00686218
-0.0068843
-0.00690567
-0.00692626
-0.00694598
-0.00696473
-0.00698244
-0.0069991
-0.00701474
-0.00702936
-0.00704292
-0.00705543
-0.00706691
-0.00707744
-0.00708708
-0.00709586
-0.00710369
-0.00711051
-0.00711622
-0.00712075
-0.00712408
-0.00712621
-0.00712717
-0.00712702
-0.00712584
-0.0071237
-0.00712068
-0.00711687
-0.00711235
-0.0071072
-0.0071015
-0.0070953
-0.00708872
-0.00708184
-0.00707476
-0.00706757
-0.00706036
-0.00705332
-0.00704674
-0.00704101
-0.00703655
-0.00703377
-0.00703305
-0.00703448
-0.000279315
-0.000540279
-0.000858026
-0.00115468
-0.00140728
-0.00162274
-0.00180791
-0.00196861
-0.00210942
-0.00223356
-0.00234353
-0.0024417
-0.00253011
-0.00261064
-0.00268491
-0.00275408
-0.002819
-0.00288022
-0.00293862
-0.00299475
-0.00304896
-0.00310156
-0.0031528
-0.00320286
-0.00325182
-0.00330005
-0.00334761
-0.00339455
-0.0034408
-0.00348633
-0.00353116
-0.00357536
-0.0036191
-0.00366251
-0.0037056
-0.00374828
-0.00379055
-0.00383256
-0.00387451
-0.00391648
-0.00395851
-0.00400064
-0.00404275
-0.00408477
-0.00412676
-0.00416879
-0.00421084
-0.00425281
-0.00429468
-0.00433653
-0.0043784
-0.0044203
-0.0044622
-0.00450422
-0.00454643
-0.00458877
-0.00463115
-0.00467357
-0.00471601
-0.00475845
-0.00480085
-0.00484322
-0.00488567
-0.00492823
-0.00497092
-0.00501367
-0.00505643
-0.00509917
-0.00514193
-0.00518468
-0.00522741
-0.00527016
-0.00531295
-0.00535582
-0.00539871
-0.00544152
-0.0054841
-0.00552643
-0.00556851
-0.00561034
-0.0056518
-0.00569285
-0.00573351
-0.00577388
-0.005814
-0.00585385
-0.00589336
-0.00593252
-0.00597135
-0.00600986
-0.00604801
-0.00608568
-0.00612284
-0.00615951
-0.00619575
-0.00623161
-0.00626701
-0.00630185
-0.00633605
-0.00636966
-0.00640274
-0.00643523
-0.00646707
-0.00649821
-0.00652868
-0.00655861
-0.0065881
-0.00661716
-0.0066457
-0.00667357
-0.00670067
-0.00672698
-0.00675251
-0.00677728
-0.00680131
-0.00682459
-0.00684715
-0.00686901
-0.00689015
-0.0069105
-0.00692999
-0.00694851
-0.00696604
-0.00698257
-0.00699811
-0.00701263
-0.0070261
-0.0070385
-0.00704992
-0.00706044
-0.00707011
-0.00707894
-0.00708685
-0.00709377
-0.00709964
-0.00710441
-0.00710804
-0.00711056
-0.00711199
-0.00711237
-0.00711179
-0.00711031
-0.00710803
-0.00710501
-0.00710133
-0.00709706
-0.00709226
-0.00708701
-0.00708142
-0.00707558
-0.00706958
-0.00706348
-0.00705734
-0.00705133
-0.00704574
-0.00704091
-0.00703721
-0.00703493
-0.00703441
-0.0070358
-0.000682575
-0.00086099
-0.00107585
-0.00129915
-0.00150807
-0.00169586
-0.00186263
-0.00201071
-0.00214263
-0.00226097
-0.00236731
-0.00246319
-0.0025505
-0.00263051
-0.00270459
-0.002774
-0.00283934
-0.00290114
-0.00296002
-0.00301634
-0.00307065
-0.00312319
-0.00317426
-0.00322419
-0.00327299
-0.00332089
-0.0033681
-0.00341458
-0.00346042
-0.00350561
-0.00355008
-0.00359385
-0.00363703
-0.00367981
-0.00372237
-0.00376471
-0.00380679
-0.00384867
-0.0038903
-0.00393179
-0.00397335
-0.00401506
-0.00405684
-0.00409859
-0.00414036
-0.00418217
-0.00422391
-0.00426553
-0.00430703
-0.00434852
-0.00439003
-0.00443154
-0.00447311
-0.00451485
-0.00455674
-0.00459871
-0.00464075
-0.00468286
-0.00472499
-0.00476707
-0.00480905
-0.00485099
-0.00489302
-0.00493521
-0.00497749
-0.0050198
-0.00506212
-0.00510448
-0.00514687
-0.00518923
-0.00523155
-0.00527384
-0.0053162
-0.00535866
-0.00540117
-0.00544354
-0.00548564
-0.00552749
-0.00556912
-0.0056105
-0.00565155
-0.00569219
-0.00573245
-0.0057724
-0.0058121
-0.00585152
-0.00589062
-0.00592941
-0.0059679
-0.00600605
-0.00604379
-0.00608105
-0.00611782
-0.00615416
-0.0061901
-0.00622563
-0.00626066
-0.0062951
-0.00632896
-0.00636229
-0.00639511
-0.00642733
-0.00645884
-0.0064896
-0.00651973
-0.00654938
-0.00657862
-0.00660741
-0.00663562
-0.00666316
-0.00668995
-0.00671598
-0.00674123
-0.0067657
-0.00678942
-0.00681242
-0.00683474
-0.0068564
-0.00687736
-0.00689754
-0.00691684
-0.00693517
-0.00695253
-0.00696893
-0.00698437
-0.00699879
-0.00701215
-0.00702447
-0.00703585
-0.00704637
-0.00705608
-0.00706498
-0.007073
-0.00708005
-0.00708609
-0.00709108
-0.00709501
-0.00709786
-0.00709966
-0.00710047
-0.00710035
-0.0070994
-0.0070977
-0.00709531
-0.0070923
-0.00708872
-0.00708462
-0.00708011
-0.00707529
-0.00707027
-0.00706508
-0.00705975
-0.00705431
-0.00704894
-0.00704394
-0.00703965
-0.00703637
-0.00703433
-0.0070338
-0.00703494
-0.00105522
-0.00116116
-0.00130287
-0.00146557
-0.00163095
-0.00178874
-0.00193454
-0.00206761
-0.00218899
-0.00229955
-0.00240057
-0.00249299
-0.00257766
-0.00265596
-0.002729
-0.00279763
-0.00286246
-0.00292414
-0.00298277
-0.00303902
-0.00309321
-0.00314548
-0.00319629
-0.00324572
-0.00329424
-0.00334176
-0.00338852
-0.00343452
-0.00347981
-0.00352448
-0.00356855
-0.00361198
-0.00365477
-0.00369705
-0.00373894
-0.00378062
-0.00382224
-0.00386378
-0.00390514
-0.00394637
-0.00398762
-0.00402894
-0.00407029
-0.00411172
-0.00415323
-0.00419475
-0.00423618
-0.00427746
-0.00431869
-0.00435988
-0.00440102
-0.00444217
-0.00448344
-0.0045249
-0.00456649
-0.00460813
-0.00464983
-0.00469162
-0.00473343
-0.00477516
-0.00481675
-0.00485831
-0.00489998
-0.00494181
-0.00498371
-0.00502563
-0.00506758
-0.00510958
-0.00515159
-0.00519357
-0.00523551
-0.00527744
-0.00531943
-0.00536151
-0.0054036
-0.00544554
-0.00548724
-0.00552871
-0.00556995
-0.00561088
-0.00565147
-0.00569171
-0.00573163
-0.00577124
-0.00581055
-0.00584955
-0.00588827
-0.00592672
-0.00596491
-0.00600275
-0.00604014
-0.00607703
-0.00611347
-0.00614952
-0.00618521
-0.00622046
-0.00625517
-0.00628929
-0.00632287
-0.00635596
-0.00638854
-0.00642049
-0.00645167
-0.0064821
-0.00651196
-0.00654139
-0.00657042
-0.00659896
-0.00662689
-0.00665415
-0.00668069
-0.00670649
-0.00673151
-0.00675575
-0.00677924
-0.00680202
-0.00682414
-0.00684562
-0.00686642
-0.00688644
-0.00690556
-0.00692372
-0.00694093
-0.0069572
-0.00697253
-0.00698684
-0.0070001
-0.00701234
-0.00702369
-0.00703423
-0.007044
-0.00705297
-0.00706108
-0.00706827
-0.00707449
-0.0070797
-0.00708389
-0.00708704
-0.00708917
-0.00709034
-0.00709062
-0.00709012
-0.00708891
-0.00708705
-0.00708457
-0.00708154
-0.007078
-0.00707407
-0.00706986
-0.00706545
-0.00706085
-0.00705603
-0.00705103
-0.00704603
-0.00704137
-0.00703738
-0.0070343
-0.00703228
-0.00703151
-0.00703211
-0.00134662
-0.00141825
-0.00151636
-0.00163548
-0.00176454
-0.00189442
-0.00201943
-0.00213693
-0.0022464
-0.00234826
-0.00244273
-0.00253032
-0.00261162
-0.0026873
-0.00275824
-0.00282528
-0.002889
-0.0029497
-0.00300755
-0.00306325
-0.00311693
-0.0031688
-0.00321913
-0.00326818
-0.00331606
-0.0033631
-0.00340941
-0.00345491
-0.00349965
-0.00354371
-0.00358717
-0.0036301
-0.00367257
-0.0037145
-0.00375594
-0.0037971
-0.00383817
-0.00387917
-0.00392012
-0.00396109
-0.0040021
-0.00404308
-0.00408409
-0.00412521
-0.00416643
-0.00420762
-0.00424866
-0.00428963
-0.00433056
-0.00437143
-0.00441221
-0.00445302
-0.00449401
-0.00453516
-0.00457641
-0.00461774
-0.00465914
-0.00470059
-0.00474203
-0.00478335
-0.00482458
-0.00486581
-0.00490713
-0.00494856
-0.00499005
-0.00503159
-0.0050732
-0.00511486
-0.00515649
-0.00519806
-0.00523961
-0.00528121
-0.00532289
-0.0053646
-0.00540622
-0.00544768
-0.00548898
-0.00553009
-0.00557095
-0.00561146
-0.00565161
-0.00569144
-0.00573099
-0.00577025
-0.00580919
-0.0058478
-0.00588613
-0.00592425
-0.00596214
-0.00599967
-0.00603673
-0.00607329
-0.00610944
-0.00614523
-0.00618064
-0.00621558
-0.00624997
-0.00628382
-0.00631717
-0.00635004
-0.00638236
-0.00641398
-0.00644484
-0.00647499
-0.00650462
-0.00653384
-0.00656265
-0.00659094
-0.00661862
-0.00664564
-0.00667198
-0.00669757
-0.00672237
-0.00674639
-0.00676967
-0.00679227
-0.00681423
-0.00683554
-0.00685619
-0.00687604
-0.00689498
-0.00691297
-0.00693003
-0.00694618
-0.00696139
-0.00697559
-0.00698875
-0.00700093
-0.00701227
-0.00702285
-0.00703268
-0.00704173
-0.00704994
-0.00705726
-0.00706367
-0.00706913
-0.00707359
-0.00707702
-0.00707945
-0.00708094
-0.00708161
-0.00708152
-0.00708076
-0.00707936
-0.00707736
-0.00707478
-0.00707173
-0.00706832
-0.00706464
-0.00706072
-0.00705654
-0.00705206
-0.00704734
-0.0070426
-0.00703818
-0.00703436
-0.00703131
-0.00702914
-0.00702793
-0.00702775
-0.00158972
-0.00163999
-0.00171052
-0.00179947
-0.00190044
-0.00200646
-0.00211253
-0.00221517
-0.00231263
-0.00240503
-0.00249225
-0.00257418
-0.00265124
-0.00272354
-0.0027917
-0.00285646
-0.00291839
-0.00297751
-0.00303417
-0.00308872
-0.0031414
-0.0031926
-0.00324222
-0.00329073
-0.00333795
-0.00338437
-0.00343006
-0.00347503
-0.00351932
-0.00356286
-0.00360572
-0.00364809
-0.00369001
-0.00373148
-0.00377258
-0.00381345
-0.0038541
-0.00389461
-0.00393513
-0.00397577
-0.00401645
-0.00405714
-0.00409789
-0.00413876
-0.00417968
-0.0042205
-0.00426123
-0.0043019
-0.00434248
-0.00438298
-0.00442344
-0.00446399
-0.00450468
-0.00454547
-0.00458637
-0.0046274
-0.00466852
-0.00470965
-0.0047507
-0.00479161
-0.00483247
-0.00487339
-0.00491439
-0.00495542
-0.00499649
-0.00503765
-0.00507893
-0.00512024
-0.00516148
-0.00520266
-0.00524384
-0.00528511
-0.00532646
-0.00536779
-0.00540899
-0.00545001
-0.00549088
-0.00553161
-0.00557207
-0.00561219
-0.00565195
-0.00569141
-0.00573059
-0.00576947
-0.00580801
-0.00584626
-0.00588427
-0.00592207
-0.00595963
-0.00599681
-0.00603354
-0.00606983
-0.00610574
-0.00614129
-0.0061764
-0.00621099
-0.00624507
-0.00627867
-0.00631182
-0.00634447
-0.00637652
-0.00640782
-0.00643837
-0.00646828
-0.00649772
-0.00652675
-0.00655532
-0.00658335
-0.0066108
-0.00663764
-0.0066638
-0.00668921
-0.0067138
-0.00673762
-0.00676071
-0.00678314
-0.00680495
-0.00682614
-0.00684663
-0.00686631
-0.00688507
-0.0069029
-0.00691984
-0.00693589
-0.00695099
-0.00696508
-0.00697815
-0.00699031
-0.00700167
-0.00701231
-0.00702221
-0.00703133
-0.00703963
-0.00704709
-0.00705371
-0.00705942
-0.00706413
-0.00706783
-0.00707053
-0.00707233
-0.00707334
-0.00707364
-0.00707327
-0.00707226
-0.00707065
-0.00706848
-0.00706586
-0.00706289
-0.00705964
-0.0070561
-0.0070522
-0.00704792
-0.00704338
-0.00703882
-0.00703454
-0.00703078
-0.00702762
-0.00702513
-0.00702333
-0.00702222
-0.00179772
-0.00183358
-0.00188584
-0.0019539
-0.00203354
-0.00212036
-0.00220984
-0.00229878
-0.00238517
-0.00246819
-0.00254754
-0.00262333
-0.00269547
-0.00276386
-0.00282877
-0.00289074
-0.00295024
-0.00300745
-0.00306255
-0.00311557
-0.00316702
-0.00321699
-0.00326575
-0.00331338
-0.00335996
-0.00340563
-0.00345056
-0.0034949
-0.0035386
-0.00358165
-0.00362409
-0.00366596
-0.00370731
-0.00374825
-0.00378893
-0.00382941
-0.0038697
-0.00390989
-0.00395008
-0.00399036
-0.00403068
-0.00407108
-0.00411162
-0.00415223
-0.00419281
-0.0042333
-0.00427374
-0.00431412
-0.00435435
-0.00439447
-0.00443462
-0.00447491
-0.00451529
-0.00455575
-0.00459632
-0.00463703
-0.00467786
-0.00471866
-0.00475932
-0.00479985
-0.00484039
-0.00488099
-0.00492161
-0.00496226
-0.00500297
-0.00504378
-0.00508469
-0.00512563
-0.0051665
-0.00520732
-0.00524817
-0.0052891
-0.00533009
-0.00537101
-0.0054118
-0.00545245
-0.00549295
-0.00553326
-0.0055733
-0.00561303
-0.00565246
-0.0056916
-0.00573042
-0.00576889
-0.00580705
-0.00584496
-0.00588267
-0.00592019
-0.00595741
-0.00599424
-0.00603065
-0.00606668
-0.00610236
-0.00613766
-0.00617246
-0.00620673
-0.00624051
-0.00627388
-0.00630684
-0.00633926
-0.00637103
-0.00640202
-0.00643231
-0.00646203
-0.00649129
-0.00652013
-0.00654848
-0.00657629
-0.00660354
-0.0066302
-0.0066562
-0.00668143
-0.00670584
-0.00672946
-0.00675237
-0.00677465
-0.00679634
-0.00681741
-0.00683776
-0.00685727
-0.00687587
-0.00689358
-0.00691042
-0.00692638
-0.00694137
-0.00695536
-0.00696839
-0.00698056
-0.00699197
-0.00700267
-0.00701263
-0.00702181
-0.00703021
-0.00703784
-0.00704466
-0.0070506
-0.00705555
-0.00705948
-0.00706243
-0.00706451
-0.00706584
-0.00706646
-0.00706642
-0.00706574
-0.00706445
-0.00706264
-0.0070604
-0.00705781
-0.00705489
-0.00705159
-0.00704785
-0.00704367
-0.00703924
-0.0070348
-0.0070306
-0.00702679
-0.00702339
-0.00702046
-0.00701795
-0.00701582
-0.00197881
-0.00200475
-0.0020444
-0.00209762
-0.00216146
-0.00223268
-0.00230818
-0.00238507
-0.00246116
-0.00253534
-0.0026072
-0.00267656
-0.0027433
-0.00280749
-0.00286883
-0.00292762
-0.0029844
-0.00303933
-0.00309241
-0.00314383
-0.00319383
-0.00324236
-0.00328997
-0.0033365
-0.00338223
-0.00342711
-0.00347128
-0.00351486
-0.00355784
-0.0036003
-0.00364226
-0.00368367
-0.00372456
-0.00376508
-0.0038053
-0.00384531
-0.00388519
-0.00392506
-0.00396498
-0.00400491
-0.00404489
-0.00408503
-0.00412533
-0.00416566
-0.00420589
-0.00424606
-0.00428622
-0.00432627
-0.00436615
-0.00440594
-0.00444581
-0.00448579
-0.00452585
-0.00456598
-0.00460624
-0.00464666
-0.00468716
-0.00472758
-0.00476789
-0.00480812
-0.00484834
-0.00488858
-0.00492883
-0.00496911
-0.00500947
-0.00504996
-0.0050905
-0.00513103
-0.00517152
-0.00521202
-0.00525258
-0.0052932
-0.00533378
-0.00537427
-0.00541468
-0.00545498
-0.00549513
-0.00553504
-0.00557469
-0.00561406
-0.00565317
-0.00569199
-0.00573047
-0.00576857
-0.00580636
-0.00584395
-0.00588137
-0.00591858
-0.00595548
-0.00599199
-0.00602812
-0.0060639
-0.00609933
-0.00613432
-0.0061688
-0.00620276
-0.0062363
-0.00626946
-0.00630221
-0.00633439
-0.00636587
-0.00639661
-0.00642669
-0.00645624
-0.00648533
-0.00651398
-0.00654213
-0.00656975
-0.00659683
-0.00662334
-0.00664917
-0.00667423
-0.00669846
-0.00672189
-0.00674463
-0.00676679
-0.00678838
-0.00680932
-0.00682951
-0.00684887
-0.00686736
-0.006885
-0.00690177
-0.00691762
-0.00693252
-0.00694645
-0.00695947
-0.0069717
-0.00698318
-0.00699393
-0.00700392
-0.00701317
-0.00702169
-0.00702949
-0.00703652
-0.00704265
-0.0070478
-0.00705194
-0.00705513
-0.00705747
-0.00705906
-0.00705995
-0.00706015
-0.00705973
-0.00705873
-0.00705724
-0.00705534
-0.00705306
-0.00705036
-0.00704718
-0.00704349
-0.00703937
-0.00703501
-0.00703064
-0.00702645
-0.00702249
-0.00701876
-0.0070153
-0.00701203
-0.00700885
-0.00213882
-0.00215778
-0.00218851
-0.00223094
-0.00228286
-0.00234161
-0.00240544
-0.00247169
-0.00253853
-0.00260474
-0.00266946
-0.00273245
-0.00279393
-0.0028536
-0.00291115
-0.00296675
-0.00302062
-0.00307293
-0.00312376
-0.00317338
-0.00322167
-0.00326885
-0.00331503
-0.00336038
-0.00340501
-0.00344896
-0.00349235
-0.00353516
-0.00357742
-0.00361925
-0.00366058
-0.00370144
-0.00374191
-0.00378202
-0.00382182
-0.00386137
-0.00390085
-0.00394037
-0.00397993
-0.00401952
-0.00405922
-0.0040991
-0.00413911
-0.0041791
-0.00421902
-0.00425891
-0.00429873
-0.00433839
-0.00437793
-0.00441745
-0.00445703
-0.00449668
-0.00453638
-0.0045762
-0.00461618
-0.00465631
-0.00469645
-0.00473647
-0.00477644
-0.0048164
-0.00485633
-0.00489622
-0.00493607
-0.00497599
-0.00501604
-0.00505619
-0.00509635
-0.00513648
-0.00517661
-0.00521679
-0.00525706
-0.00529734
-0.00533754
-0.00537765
-0.00541768
-0.00545762
-0.00549739
-0.00553695
-0.00557625
-0.00561531
-0.00565412
-0.00569262
-0.00573075
-0.00576851
-0.00580599
-0.00584329
-0.00588041
-0.00591729
-0.00595385
-0.00599007
-0.00602595
-0.00606149
-0.00609665
-0.00613132
-0.00616546
-0.00619913
-0.00623244
-0.00626542
-0.00629795
-0.00632988
-0.00636109
-0.00639162
-0.00642154
-0.00645096
-0.00647989
-0.00650834
-0.0065363
-0.00656376
-0.0065907
-0.00661706
-0.00664274
-0.00666761
-0.00669164
-0.0067149
-0.00673751
-0.00675956
-0.00678103
-0.00680184
-0.00682189
-0.00684114
-0.00685957
-0.00687715
-0.00689385
-0.00690962
-0.00692444
-0.00693836
-0.00695144
-0.00696374
-0.00697529
-0.00698607
-0.0069961
-0.00700542
-0.00701406
-0.00702203
-0.00702923
-0.00703554
-0.00704086
-0.0070452
-0.00704862
-0.00705118
-0.00705297
-0.00705404
-0.00705443
-0.00705422
-0.00705348
-0.00705228
-0.00705067
-0.0070486
-0.00704603
-0.00704288
-0.00703918
-0.00703506
-0.00703073
-0.0070264
-0.00702215
-0.00701798
-0.00701384
-0.00700981
-0.00700576
-0.00700153
-0.00228201
-0.00229596
-0.00232025
-0.00235459
-0.00239725
-0.0024463
-0.00250021
-0.00255729
-0.00261585
-0.00267472
-0.002733
-0.00279016
-0.00284638
-0.00290154
-0.00295526
-0.00300755
-0.00305848
-0.00310811
-0.00315657
-0.00320412
-0.0032506
-0.00329629
-0.00334099
-0.00338509
-0.00342853
-0.00347144
-0.00351388
-0.00355587
-0.00359747
-0.0036386
-0.00367929
-0.0037196
-0.00375955
-0.0037992
-0.00383855
-0.00387772
-0.00391681
-0.00395594
-0.0039951
-0.00403435
-0.00407378
-0.00411337
-0.004153
-0.00419264
-0.00423228
-0.00427186
-0.00431129
-0.00435057
-0.00438978
-0.00442902
-0.00446832
-0.00450761
-0.00454695
-0.00458646
-0.00462618
-0.00466598
-0.00470572
-0.00474539
-0.00478507
-0.00482474
-0.00486435
-0.00490388
-0.0049434
-0.00498299
-0.0050227
-0.00506248
-0.00510226
-0.00514202
-0.00518181
-0.00522169
-0.00526164
-0.00530156
-0.0053414
-0.00538115
-0.00542083
-0.00546041
-0.00549981
-0.00553901
-0.00557802
-0.00561682
-0.00565534
-0.00569352
-0.00573131
-0.00576876
-0.00580597
-0.005843
-0.00587982
-0.00591636
-0.00595259
-0.00598853
-0.00602418
-0.00605947
-0.00609432
-0.00612865
-0.00616247
-0.00619588
-0.00622898
-0.00626177
-0.00629408
-0.00632575
-0.00635673
-0.00638709
-0.0064169
-0.00644619
-0.00647497
-0.00650324
-0.00653103
-0.00655835
-0.00658517
-0.00661138
-0.00663688
-0.00666156
-0.0066854
-0.00670851
-0.00673101
-0.00675294
-0.00677429
-0.00679497
-0.00681491
-0.0068341
-0.0068525
-0.00687004
-0.00688667
-0.00690237
-0.00691717
-0.00693114
-0.0069443
-0.00695668
-0.00696828
-0.00697909
-0.00698917
-0.00699857
-0.00700733
-0.00701544
-0.00702277
-0.00702923
-0.00703473
-0.00703926
-0.00704286
-0.00704559
-0.00704752
-0.00704871
-0.00704925
-0.00704923
-0.00704872
-0.00704777
-0.00704637
-0.00704444
-0.00704191
-0.00703872
-0.00703496
-0.00703081
-0.00702649
-0.00702214
-0.00701777
-0.00701332
-0.00700873
-0.00700412
-0.00699931
-0.00699406
-0.00241156
-0.00242197
-0.00244127
-0.00246949
-0.00250493
-0.00254603
-0.00259169
-0.00264082
-0.00269204
-0.00274428
-0.00279666
-0.00284853
-0.00289986
-0.00295062
-0.00300058
-0.00304955
-0.00309753
-0.0031445
-0.00319061
-0.00323593
-0.0032806
-0.00332451
-0.00336781
-0.00341057
-0.00345279
-0.0034946
-0.00353602
-0.00357715
-0.00361795
-0.00365839
-0.00369848
-0.00373823
-0.00377765
-0.00381675
-0.00385563
-0.00389439
-0.00393311
-0.00397181
-0.00401055
-0.00404948
-0.00408862
-0.00412784
-0.00416708
-0.00420636
-0.00424569
-0.00428491
-0.00432393
-0.00436284
-0.00440177
-0.00444072
-0.00447965
-0.00451859
-0.00455762
-0.00459685
-0.00463624
-0.00467565
-0.00471504
-0.00475441
-0.0047938
-0.00483316
-0.00487242
-0.00491161
-0.00495082
-0.0049901
-0.00502947
-0.00506886
-0.00510824
-0.00514766
-0.00518717
-0.00522676
-0.00526636
-0.00530591
-0.00534539
-0.00538481
-0.00542416
-0.00546338
-0.00550242
-0.0055413
-0.00558005
-0.0056186
-0.00565684
-0.00569471
-0.00573219
-0.00576936
-0.00580632
-0.00584307
-0.00587958
-0.00591579
-0.00595173
-0.00598742
-0.00602283
-0.00605784
-0.00609236
-0.00612634
-0.00615987
-0.00619305
-0.00622596
-0.00625855
-0.00629062
-0.00632205
-0.00635286
-0.0063831
-0.0064128
-0.00644196
-0.00647057
-0.00649868
-0.00652635
-0.00655355
-0.00658023
-0.00660628
-0.00663158
-0.00665608
-0.00667977
-0.00670274
-0.00672512
-0.00674693
-0.00676815
-0.00678873
-0.00680862
-0.0068278
-0.00684617
-0.00686366
-0.00688023
-0.00689589
-0.00691073
-0.00692478
-0.00693804
-0.00695049
-0.00696212
-0.00697297
-0.00698311
-0.00699261
-0.00700147
-0.00700967
-0.00701712
-0.00702372
-0.00702938
-0.00703409
-0.00703785
-0.00704069
-0.00704269
-0.00704396
-0.00704461
-0.00704474
-0.00704444
-0.0070437
-0.00704245
-0.00704058
-0.00703802
-0.00703474
-0.00703089
-0.00702669
-0.00702234
-0.00701792
-0.00701336
-0.00700857
-0.00700352
-0.00699834
-0.00699279
-0.00698657
-0.00253008
-0.00253763
-0.00255307
-0.00257667
-0.0026063
-0.00264083
-0.00267964
-0.00272185
-0.00276639
-0.00281262
-0.00285963
-0.00290661
-0.00295357
-0.00300029
-0.00304658
-0.00309226
-0.00313738
-0.00318176
-0.0032255
-0.00326864
-0.00331143
-0.00335356
-0.00339536
-0.00343668
-0.00347768
-0.0035184
-0.00355882
-0.00359902
-0.00363898
-0.00367867
-0.00371815
-0.00375733
-0.00379618
-0.00383476
-0.00387315
-0.00391148
-0.00394975
-0.00398798
-0.00402634
-0.00406493
-0.00410368
-0.00414248
-0.00418137
-0.00422033
-0.00425925
-0.00429803
-0.00433668
-0.00437528
-0.00441389
-0.00445249
-0.00449106
-0.00452966
-0.00456841
-0.00460734
-0.00464636
-0.00468537
-0.00472442
-0.00476353
-0.00480264
-0.00484167
-0.00488058
-0.00491945
-0.00495838
-0.00499736
-0.00503636
-0.00507534
-0.00511435
-0.00515347
-0.00519271
-0.00523199
-0.00527124
-0.00531044
-0.0053496
-0.00538869
-0.00542769
-0.00546654
-0.00550526
-0.00554387
-0.00558238
-0.00562067
-0.00565863
-0.00569621
-0.00573343
-0.00577036
-0.00580706
-0.00584351
-0.00587968
-0.00591558
-0.00595127
-0.00598675
-0.00602191
-0.0060566
-0.00609077
-0.00612443
-0.00615771
-0.0061907
-0.00622342
-0.00625576
-0.00628759
-0.00631883
-0.00634952
-0.00637966
-0.00640925
-0.00643826
-0.00646672
-0.00649471
-0.00652226
-0.00654933
-0.00657585
-0.00660172
-0.00662686
-0.0066512
-0.00667475
-0.00669761
-0.00671984
-0.00674151
-0.00676263
-0.00678316
-0.00680305
-0.00682222
-0.00684056
-0.006858
-0.00687453
-0.00689021
-0.00690511
-0.00691926
-0.00693261
-0.00694511
-0.00695679
-0.00696768
-0.00697789
-0.00698747
-0.00699642
-0.00700469
-0.00701223
-0.00701896
-0.0070248
-0.00702967
-0.00703354
-0.00703644
-0.00703847
-0.00703977
-0.0070405
-0.00704078
-0.00704064
-0.00704006
-0.00703891
-0.00703704
-0.00703439
-0.00703099
-0.00702705
-0.00702278
-0.00701836
-0.0070138
-0.00700899
-0.00700382
-0.0069983
-0.00699258
-0.00698632
-0.00697917
-0.00263934
-0.00264459
-0.00265698
-0.00267664
-0.00270166
-0.00273099
-0.00276395
-0.00280011
-0.00283892
-0.00287968
-0.00292168
-0.00296423
-0.00300702
-0.00305001
-0.00309287
-0.00313544
-0.00317775
-0.00321963
-0.00326099
-0.00330211
-0.00334287
-0.00338337
-0.00342356
-0.00346343
-0.00350317
-0.00354274
-0.00358218
-0.00362144
-0.00366055
-0.00369951
-0.00373828
-0.00377683
-0.00381512
-0.00385319
-0.0038911
-0.00392892
-0.00396669
-0.00400449
-0.00404247
-0.00408063
-0.00411893
-0.00415732
-0.00419585
-0.00423444
-0.00427293
-0.00431126
-0.00434955
-0.00438785
-0.00442614
-0.00446435
-0.00450253
-0.00454084
-0.00457932
-0.00461791
-0.00465652
-0.00469516
-0.00473392
-0.00477276
-0.00481157
-0.00485025
-0.00488885
-0.00492745
-0.00496609
-0.00500473
-0.00504334
-0.00508195
-0.00512065
-0.0051595
-0.00519844
-0.00523739
-0.00527632
-0.00531521
-0.00535406
-0.0053928
-0.00543143
-0.00546994
-0.00550837
-0.00554675
-0.00558502
-0.00562304
-0.00566071
-0.00569802
-0.00573503
-0.00577174
-0.00580816
-0.00584428
-0.00588013
-0.00591577
-0.00595124
-0.0059865
-0.00602138
-0.00605575
-0.00608958
-0.00612298
-0.00615605
-0.00618886
-0.00622135
-0.00625345
-0.00628508
-0.00631618
-0.00634675
-0.00637679
-0.00640625
-0.00643512
-0.00646346
-0.00649133
-0.00651876
-0.00654568
-0.00657203
-0.00659773
-0.00662272
-0.00664693
-0.00667036
-0.00669307
-0.00671517
-0.00673672
-0.00675778
-0.0067783
-0.00679819
-0.00681734
-0.00683564
-0.00685304
-0.00686957
-0.0068853
-0.00690029
-0.00691452
-0.00692793
-0.00694048
-0.00695221
-0.00696318
-0.00697347
-0.0069831
-0.00699207
-0.0070004
-0.00700804
-0.00701492
-0.00702093
-0.00702594
-0.00702987
-0.00703278
-0.0070348
-0.00703612
-0.00703692
-0.00703732
-0.00703733
-0.00703685
-0.00703573
-0.00703382
-0.00703107
-0.00702757
-0.00702353
-0.00701918
-0.00701463
-0.00700986
-0.00700473
-0.00699916
-0.00699318
-0.00698693
-0.00697999
-0.00697195
-0.00274099
-0.0027442
-0.00275394
-0.00277022
-0.00279142
-0.00281624
-0.00284446
-0.00287561
-0.00290934
-0.00294525
-0.00298265
-0.0030211
-0.00306012
-0.00309962
-0.00313922
-0.00317887
-0.00321848
-0.00325788
-0.00329701
-0.00333604
-0.00337487
-0.00341371
-0.00345228
-0.00349077
-0.0035292
-0.0035676
-0.00360598
-0.00364431
-0.0036826
-0.00372081
-0.00375885
-0.00379673
-0.00383443
-0.00387196
-0.00390936
-0.00394665
-0.00398389
-0.00402127
-0.00405884
-0.00409653
-0.00413433
-0.00417232
-0.00421048
-0.00424863
-0.00428663
-0.00432456
-0.00436254
-0.00440052
-0.00443842
-0.00447624
-0.00451411
-0.00455214
-0.00459029
-0.00462847
-0.0046667
-0.00470505
-0.00474355
-0.00478208
-0.00482054
-0.00485891
-0.00489724
-0.00493559
-0.00497392
-0.00501219
-0.00505043
-0.00508873
-0.00512716
-0.00516574
-0.00520437
-0.005243
-0.00528163
-0.00532024
-0.00535876
-0.00539715
-0.00543541
-0.00547362
-0.0055118
-0.00554995
-0.00558796
-0.0056257
-0.00566311
-0.0057002
-0.005737
-0.00577346
-0.00580957
-0.00584537
-0.00588095
-0.00591638
-0.00595166
-0.00598667
-0.00602125
-0.00605531
-0.00608887
-0.00612205
-0.00615493
-0.00618752
-0.00621979
-0.00625168
-0.00628315
-0.00631413
-0.00634458
-0.00637448
-0.00640381
-0.00643258
-0.00646081
-0.00648855
-0.00651581
-0.00654256
-0.00656876
-0.00659434
-0.00661921
-0.0066433
-0.00666658
-0.00668914
-0.00671111
-0.00673259
-0.00675363
-0.00677415
-0.00679403
-0.00681314
-0.00683139
-0.00684878
-0.00686533
-0.00688113
-0.00689619
-0.00691047
-0.00692392
-0.00693653
-0.00694834
-0.00695939
-0.00696973
-0.00697938
-0.00698837
-0.00699674
-0.0070045
-0.00701155
-0.0070177
-0.00702281
-0.00702677
-0.00702966
-0.00703166
-0.00703301
-0.00703387
-0.00703437
-0.00703446
-0.00703404
-0.00703292
-0.00703094
-0.00702811
-0.00702452
-0.00702041
-0.00701595
-0.00701123
-0.00700618
-0.00700069
-0.0069947
-0.00698826
-0.00698151
-0.00697391
-0.00696497
-0.00283613
-0.00283762
-0.00284501
-0.00285838
-0.00287598
-0.002897
-0.00292108
-0.00294798
-0.00297735
-0.00300895
-0.00304236
-0.00307699
-0.00311254
-0.00314877
-0.00318539
-0.00322225
-0.00325928
-0.0032963
-0.0033333
-0.00337023
-0.00340726
-0.00344433
-0.00348137
-0.0035185
-0.00355565
-0.00359286
-0.00363016
-0.00366754
-0.00370499
-0.00374242
-0.00377974
-0.00381694
-0.00385404
-0.00389102
-0.00392783
-0.00396454
-0.00400132
-0.00403824
-0.00407529
-0.00411248
-0.00414986
-0.00418746
-0.00422515
-0.00426279
-0.00430037
-0.00433796
-0.00437559
-0.00441319
-0.00445069
-0.00448818
-0.00452579
-0.0045635
-0.00460125
-0.00463903
-0.00467695
-0.00471505
-0.00475324
-0.00479144
-0.00482957
-0.00486767
-0.00490577
-0.00494385
-0.00498183
-0.00501973
-0.00505765
-0.00509568
-0.00513386
-0.00517216
-0.00521049
-0.00524885
-0.00528722
-0.00532554
-0.00536371
-0.00540173
-0.00543967
-0.00547761
-0.00551555
-0.00555344
-0.00559116
-0.00562864
-0.00566584
-0.00570274
-0.0057393
-0.00577547
-0.00581125
-0.00584677
-0.00588214
-0.00591739
-0.00595246
-0.00598721
-0.00602151
-0.00605531
-0.00608866
-0.00612165
-0.00615434
-0.00618672
-0.00621878
-0.0062505
-0.00628183
-0.00631268
-0.006343
-0.00637277
-0.00640199
-0.00643066
-0.00645877
-0.00648634
-0.00651342
-0.00654001
-0.00656609
-0.00659158
-0.00661634
-0.0066403
-0.00666343
-0.00668585
-0.00670773
-0.00672918
-0.0067502
-0.00677071
-0.00679055
-0.00680961
-0.00682783
-0.00684522
-0.00686182
-0.00687766
-0.00689274
-0.00690705
-0.00692055
-0.00693323
-0.00694513
-0.00695625
-0.00696662
-0.00697626
-0.00698526
-0.00699369
-0.00700157
-0.00700876
-0.00701504
-0.00702021
-0.00702417
-0.00702704
-0.00702903
-0.0070304
-0.00703133
-0.0070319
-0.00703205
-0.00703164
-0.00703049
-0.00702845
-0.00702555
-0.00702192
-0.00701774
-0.00701317
-0.00700822
-0.00700285
-0.00699696
-0.00699055
-0.00698367
-0.00697641
-0.00696815
-0.00695832
-0.00292551
-0.00292563
-0.00293115
-0.00294186
-0.00295619
-0.00297368
-0.00299417
-0.00301727
-0.0030429
-0.00307076
-0.00310052
-0.00313168
-0.00316403
-0.0031973
-0.00323115
-0.00326535
-0.00329989
-0.00333469
-0.00336959
-0.00340455
-0.00343979
-0.0034751
-0.00351071
-0.00354644
-0.00358232
-0.00361838
-0.00365463
-0.00369106
-0.00372761
-0.00376421
-0.00380083
-0.00383739
-0.00387384
-0.00391017
-0.00394642
-0.00398261
-0.00401886
-0.00405523
-0.00409174
-0.00412846
-0.00416543
-0.00420258
-0.00423977
-0.00427694
-0.00431414
-0.00435138
-0.00438864
-0.00442581
-0.00446295
-0.00450017
-0.00453748
-0.00457483
-0.00461217
-0.00464962
-0.00468727
-0.00472509
-0.00476296
-0.00480081
-0.00483866
-0.00487653
-0.0049144