/*--------------------------------*- C++ -*----------------------------------*\
  =========                 |
  \\      /  F ield         | OpenFOAM: The Open Source CFD Toolbox
   \\    /   O peration     | Website:  https://openfoam.org
    \\  /    A nd           | Version:  7
     \\/     M anipulation  |
\*---------------------------------------------------------------------------*/
FoamFile
{
    version     2.0;
    format      ascii;
    class       surfaceScalarField;
    location    "0.125";
    object      phi;
}
// * * * * * * * * * * * * * * * * * * * * * * * * * * * * * * * * * * * * * //

dimensions      [0 3 -1 0 0 0 0];

internalField   nonuniform List<scalar> 
101920
(
1.18515e-13
-1.61457e-13
5.9765e-12
-5.85824e-12
7.62227e-12
-1.64305e-12
9.13066e-12
-1.51159e-12
9.87487e-12
-7.41941e-13
1.00025e-11
-1.30807e-13
9.75528e-12
2.47139e-13
9.34522e-12
4.13312e-13
8.93707e-12
4.05877e-13
8.67921e-12
2.59891e-13
8.68106e-12
1.12872e-15
8.99539e-12
-3.1394e-13
9.66431e-12
-6.69629e-13
1.06813e-11
-1.0155e-12
1.2023e-11
-1.34284e-12
1.36517e-11
-1.63304e-12
1.55548e-11
-1.8994e-12
1.76876e-11
-2.13226e-12
2.00107e-11
-2.32521e-12
2.24775e-11
-2.46643e-12
2.50676e-11
-2.5899e-12
2.77394e-11
-2.67311e-12
3.04748e-11
-2.73663e-12
3.3259e-11
-2.78375e-12
3.60651e-11
-2.80583e-12
3.88828e-11
-2.81648e-12
4.16971e-11
-2.81387e-12
4.45011e-11
-2.80504e-12
4.72948e-11
-2.79318e-12
5.00791e-11
-2.78147e-12
5.28524e-11
-2.77222e-12
5.56128e-11
-2.76108e-12
5.83586e-11
-2.74527e-12
6.10905e-11
-2.7314e-12
6.38123e-11
-2.72142e-12
6.65215e-11
-2.70611e-12
6.92126e-11
-2.6898e-12
7.18847e-11
-2.67172e-12
7.45283e-11
-2.64175e-12
7.71342e-11
-2.60636e-12
7.97081e-11
-2.5754e-12
8.22564e-11
-2.54739e-12
8.47713e-11
-2.51652e-12
8.72507e-11
-2.47973e-12
8.96933e-11
-2.44171e-12
9.20946e-11
-2.4018e-12
9.44486e-11
-2.35392e-12
9.6751e-11
-2.30263e-12
9.90023e-11
-2.253e-12
1.01205e-10
-2.20417e-12
1.03357e-10
-2.15375e-12
1.05458e-10
-2.10015e-12
1.07507e-10
-2.05023e-12
1.09507e-10
-1.99967e-12
1.11453e-10
-1.94216e-12
1.13334e-10
-1.88147e-12
1.15153e-10
-1.81679e-12
1.16907e-10
-1.751e-12
1.18593e-10
-1.68498e-12
1.2021e-10
-1.61582e-12
1.21754e-10
-1.54385e-12
1.23223e-10
-1.4695e-12
1.24614e-10
-1.39153e-12
1.25922e-10
-1.30973e-12
1.27147e-10
-1.22502e-12
1.28286e-10
-1.14031e-12
1.29344e-10
-1.05968e-12
1.30326e-10
-9.82957e-13
1.31236e-10
-9.07671e-13
1.3207e-10
-8.32162e-13
1.32826e-10
-7.54479e-13
1.33502e-10
-6.74023e-13
1.34096e-10
-5.92815e-13
1.34605e-10
-5.09725e-13
1.35025e-10
-4.21077e-13
1.35351e-10
-3.26454e-13
1.3558e-10
-2.30248e-13
1.35713e-10
-1.36031e-13
1.35756e-10
-4.50325e-14
1.35716e-10
4.13655e-14
1.35597e-10
1.21145e-13
1.35406e-10
1.93919e-13
1.35145e-10
2.62196e-13
1.34813e-10
3.30154e-13
1.34409e-10
4.01348e-13
1.33929e-10
4.77716e-13
1.33372e-10
5.5826e-13
1.32733e-10
6.40311e-13
1.32012e-10
7.21899e-13
1.31209e-10
8.02666e-13
1.30326e-10
8.8263e-13
1.29366e-10
9.60366e-13
1.28331e-10
1.0348e-12
1.27223e-10
1.10731e-12
1.26041e-10
1.18087e-12
1.24782e-10
1.25795e-12
1.23444e-10
1.33742e-12
1.22028e-10
1.41568e-12
1.2054e-10
1.48938e-12
1.18985e-10
1.55659e-12
1.17367e-10
1.61845e-12
1.15688e-10
1.67743e-12
1.13953e-10
1.73476e-12
1.12163e-10
1.79061e-12
1.10319e-10
1.84501e-12
1.08419e-10
1.9003e-12
1.06457e-10
1.96099e-12
1.04427e-10
2.02957e-12
1.02322e-10
2.10438e-12
1.00141e-10
2.18093e-12
9.78869e-11
2.25509e-12
9.5563e-11
2.32529e-12
9.31734e-11
2.39115e-12
9.07205e-11
2.45295e-12
8.82078e-11
2.51152e-12
8.56398e-11
2.56715e-12
8.30191e-11
2.62001e-12
8.03498e-11
2.66977e-12
7.76358e-11
2.71538e-12
7.488e-11
2.75689e-12
7.20864e-11
2.79448e-12
6.92591e-11
2.82709e-12
6.64034e-11
2.85406e-12
6.35272e-11
2.87546e-12
6.06362e-11
2.89133e-12
5.77342e-11
2.90235e-12
5.48264e-11
2.90871e-12
5.19168e-11
2.91011e-12
4.90082e-11
2.90819e-12
4.6104e-11
2.9047e-12
4.32039e-11
2.90022e-12
4.03074e-11
2.89544e-12
3.74182e-11
2.88914e-12
3.45409e-11
2.87775e-12
3.1683e-11
2.85758e-12
2.88583e-11
2.82484e-12
2.60825e-11
2.77605e-12
2.33722e-11
2.71001e-12
2.07448e-11
2.62751e-12
1.82153e-11
2.52994e-12
1.57954e-11
2.41955e-12
1.34956e-11
2.29927e-12
1.13252e-11
2.17063e-12
9.29203e-12
2.03355e-12
7.40338e-12
1.88872e-12
5.66587e-12
1.73735e-12
4.08519e-12
1.58011e-12
2.66746e-12
1.41758e-12
1.42027e-12
1.24786e-12
3.52421e-13
1.06801e-12
-5.24693e-13
8.77347e-13
-1.19888e-12
6.74584e-13
-1.65872e-12
4.59658e-13
-1.89633e-12
2.37293e-13
-1.90887e-12
1.28555e-14
-1.7062e-12
-2.02213e-13
-1.31875e-12
-3.87697e-13
-8.00204e-13
-5.18321e-13
-2.64626e-13
-5.35257e-13
-2.65339e-13
-5.73729e-12
5.57531e-12
-5.88624e-12
-5.71191e-12
-2.67246e-12
-4.85172e-12
-1.8707e-13
-3.99779e-12
2.03635e-12
-2.96098e-12
3.92619e-12
-2.01818e-12
5.56791e-12
-1.39466e-12
7.13291e-12
-1.15143e-12
8.83201e-12
-1.29247e-12
1.08152e-11
-1.72827e-12
1.32192e-11
-2.40159e-12
1.61373e-11
-3.2316e-12
1.96034e-11
-4.13783e-12
2.36501e-11
-5.06228e-12
2.8272e-11
-5.96333e-12
3.34451e-11
-6.80505e-12
3.91087e-11
-7.56464e-12
4.52267e-11
-8.25013e-12
5.17398e-11
-8.83612e-12
5.86079e-11
-9.33716e-12
6.57764e-11
-9.75679e-12
7.31947e-11
-1.00902e-11
8.08289e-11
-1.03701e-11
8.86171e-11
-1.05707e-11
9.65481e-11
-1.07358e-11
1.04579e-10
-1.08457e-11
1.1269e-10
-1.09238e-11
1.20854e-10
-1.097e-11
1.29058e-10
-1.09974e-11
1.37287e-10
-1.1012e-11
1.45526e-10
-1.10137e-11
1.53766e-10
-1.09996e-11
1.62e-10
-1.09798e-11
1.70219e-10
-1.09526e-11
1.78407e-10
-1.09104e-11
1.86552e-10
-1.08554e-11
1.94647e-10
-1.07887e-11
2.02678e-10
-1.07031e-11
2.10633e-10
-1.05979e-11
2.18505e-10
-1.04801e-11
2.2629e-10
-1.03574e-11
2.33972e-10
-1.02304e-11
2.41547e-10
-1.00916e-11
2.49011e-10
-9.94181e-12
2.5635e-10
-9.78265e-12
2.63556e-10
-9.60835e-12
2.70622e-10
-9.41827e-12
2.7754e-10
-9.21849e-12
2.84305e-10
-9.01541e-12
2.90909e-10
-8.80692e-12
2.97351e-10
-8.59187e-12
3.03624e-10
-8.37521e-12
3.09726e-10
-8.15396e-12
3.15654e-10
-7.92647e-12
3.21397e-10
-7.6898e-12
3.26954e-10
-7.44105e-12
3.32317e-10
-7.18157e-12
3.37477e-10
-6.91551e-12
3.42434e-10
-6.64366e-12
3.47182e-10
-6.36413e-12
3.51715e-10
-6.07676e-12
3.56029e-10
-5.78245e-12
3.60117e-10
-5.4797e-12
3.63977e-10
-5.16722e-12
3.67605e-10
-4.84993e-12
3.71e-10
-4.53453e-12
3.74165e-10
-4.22443e-12
3.77102e-10
-3.91949e-12
3.79808e-10
-3.61676e-12
3.82282e-10
-3.31123e-12
3.84526e-10
-3.00056e-12
3.86537e-10
-2.68536e-12
3.8831e-10
-2.36595e-12
3.8984e-10
-2.03967e-12
3.91127e-10
-1.70386e-12
3.92163e-10
-1.36004e-12
3.92949e-10
-1.0139e-12
3.93486e-10
-6.71468e-13
3.93776e-10
-3.36576e-13
3.93824e-10
-1.0922e-14
3.93635e-10
3.05118e-13
3.93217e-10
6.11358e-13
3.92572e-10
9.09172e-13
3.91701e-10
1.20406e-12
3.906e-10
1.50271e-12
3.89268e-10
1.80872e-12
3.87704e-10
2.12135e-12
3.85904e-10
2.43781e-12
3.8387e-10
2.75539e-12
3.81603e-10
3.07111e-12
3.79103e-10
3.38245e-12
3.76375e-10
3.68844e-12
3.73419e-10
3.98998e-12
3.70239e-10
4.28932e-12
3.66834e-10
4.58812e-12
3.63205e-10
4.8877e-12
3.59353e-10
5.18807e-12
3.55281e-10
5.48581e-12
3.50993e-10
5.77583e-12
3.46496e-10
6.0541e-12
3.41795e-10
6.32029e-12
3.36896e-10
6.57763e-12
3.31804e-10
6.8283e-12
3.26521e-10
7.07329e-12
3.2105e-10
7.31556e-12
3.1539e-10
7.56024e-12
3.09541e-10
7.81239e-12
3.03499e-10
8.07333e-12
2.97263e-10
8.33972e-12
2.90836e-10
8.60642e-12
2.84221e-10
8.86848e-12
2.77423e-10
9.12217e-12
2.7045e-10
9.36494e-12
2.6331e-10
9.59507e-12
2.56011e-10
9.81262e-12
2.48564e-10
1.0018e-11
2.40973e-10
1.02105e-11
2.3325e-10
1.039e-11
2.25407e-10
1.05562e-11
2.17455e-10
1.07083e-11
2.09405e-10
1.08456e-11
2.01268e-10
1.09664e-11
1.93055e-10
1.1068e-11
1.84781e-10
1.11497e-11
1.76461e-10
1.12121e-11
1.68107e-10
1.12554e-11
1.59733e-10
1.12813e-11
1.51353e-10
1.12904e-11
1.42979e-10
1.12828e-11
1.34624e-10
1.12605e-11
1.263e-10
1.12246e-11
1.18021e-10
1.1174e-11
1.09804e-10
1.11061e-11
1.01667e-10
1.10149e-11
9.36319e-11
1.08921e-11
8.57251e-11
1.07304e-11
7.79769e-11
1.05242e-11
7.04188e-11
1.02692e-11
6.30826e-11
9.96444e-12
5.59998e-11
9.61314e-12
4.91996e-11
9.21968e-12
4.27096e-11
8.78868e-12
3.65563e-11
8.32347e-12
3.07651e-11
7.82441e-12
2.53603e-11
7.29267e-12
2.03663e-11
6.73133e-12
1.58057e-11
6.14157e-12
1.16994e-11
5.52385e-12
8.0705e-12
4.87683e-12
4.94083e-12
4.19699e-12
2.33259e-12
3.48482e-12
2.64129e-13
2.74353e-12
-1.25383e-12
1.97875e-12
-2.22194e-12
1.20544e-12
-2.658e-12
4.47659e-13
-2.60296e-12
-2.57502e-13
-2.13498e-12
-8.55478e-13
-1.37716e-12
-1.27656e-12
-5.26011e-13
-1.38698e-12
-7.92116e-13
-1.83818e-12
7.4162e-12
-5.71886e-12
-1.83102e-12
-6.11889e-12
-4.45365e-12
-5.20107e-12
-4.91213e-12
-3.45276e-12
-4.71103e-12
-1.08538e-12
-4.38845e-12
1.79879e-12
-4.27544e-12
5.17785e-12
-4.53406e-12
9.07477e-12
-5.18571e-12
1.355e-11
-6.20955e-12
1.86507e-11
-7.50005e-12
2.44053e-11
-8.99309e-12
3.08546e-11
-1.05812e-11
3.80053e-11
-1.22124e-11
4.58313e-11
-1.37901e-11
5.43265e-11
-1.53017e-11
6.34605e-11
-1.6699e-11
7.31961e-11
-1.79863e-11
8.34743e-11
-1.91165e-11
9.42655e-11
-2.01237e-11
1.05507e-10
-2.09951e-11
1.17152e-10
-2.17402e-11
1.29158e-10
-2.23707e-11
1.41475e-10
-2.28931e-11
1.54059e-10
-2.33232e-11
1.6687e-10
-2.36552e-11
1.7987e-10
-2.3928e-11
1.93027e-10
-2.41271e-11
2.06306e-10
-2.42771e-11
2.19676e-10
-2.43824e-11
2.33108e-10
-2.44426e-11
2.46576e-10
-2.44674e-11
2.60055e-10
-2.44584e-11
2.73521e-10
-2.44157e-11
2.86952e-10
-2.43412e-11
3.0033e-10
-2.42333e-11
3.13633e-10
-2.40898e-11
3.26838e-10
-2.39097e-11
3.39931e-10
-2.36924e-11
3.52895e-10
-2.34444e-11
3.6571e-10
-2.3174e-11
3.78359e-10
-2.28807e-11
3.9083e-10
-2.25617e-11
4.03107e-10
-2.22182e-11
4.15174e-10
-2.18519e-11
4.27021e-10
-2.14571e-11
4.38637e-10
-2.10336e-11
4.50005e-10
-2.05912e-11
4.6112e-10
-2.01301e-11
4.71968e-10
-1.96533e-11
4.82538e-10
-1.91622e-11
4.92823e-10
-1.86589e-11
5.02815e-10
-1.81434e-11
5.12504e-10
-1.76128e-11
5.21882e-10
-1.70655e-11
5.30943e-10
-1.6499e-11
5.39682e-10
-1.59172e-11
5.48088e-10
-1.53221e-11
5.56157e-10
-1.47119e-11
5.63881e-10
-1.40876e-11
5.71254e-10
-1.34515e-11
5.78274e-10
-1.28033e-11
5.84934e-10
-1.21409e-11
5.9123e-10
-1.14647e-11
5.9716e-10
-1.0781e-11
6.02721e-10
-1.00953e-11
6.0791e-10
-9.41087e-12
6.12724e-10
-8.73018e-12
6.17159e-10
-8.05059e-12
6.21216e-10
-7.36655e-12
6.24893e-10
-6.67602e-12
6.28187e-10
-5.98013e-12
6.31097e-10
-5.2776e-12
6.33622e-10
-4.56542e-12
6.35759e-10
-3.84223e-12
6.37505e-10
-3.11024e-12
6.38865e-10
-2.3741e-12
6.39837e-10
-1.64072e-12
6.4042e-10
-9.15835e-13
6.40613e-10
-2.02686e-13
6.40419e-10
4.98395e-13
6.39839e-10
1.18955e-12
6.38872e-10
1.87352e-12
6.3752e-10
2.55465e-12
6.35785e-10
3.23824e-12
6.33669e-10
3.9271e-12
6.3117e-10
4.62084e-12
6.28289e-10
5.31752e-12
6.25029e-10
6.01498e-12
6.21391e-10
6.70978e-12
6.17375e-10
7.39866e-12
6.12982e-10
8.08056e-12
6.08214e-10
8.75602e-12
6.03075e-10
9.42718e-12
5.97567e-10
1.00961e-11
5.91692e-10
1.07627e-11
5.85456e-10
1.14258e-11
5.78862e-10
1.20811e-11
5.71914e-10
1.27237e-11
5.64615e-10
1.33514e-11
5.5697e-10
1.39642e-11
5.48986e-10
1.45631e-11
5.40666e-10
1.51492e-11
5.32016e-10
1.5724e-11
5.23039e-10
1.62915e-11
5.13742e-10
1.68571e-11
5.0413e-10
1.74242e-11
4.9421e-10
1.79934e-11
4.83989e-10
1.85612e-11
4.73475e-10
1.91221e-11
4.62674e-10
1.96704e-11
4.51595e-10
2.02009e-11
4.40247e-10
2.0711e-11
4.28642e-10
2.1199e-11
4.16791e-10
2.1663e-11
4.0471e-10
2.21014e-11
3.9241e-10
2.25122e-11
3.79907e-10
2.2894e-11
3.67216e-10
2.32466e-11
3.54355e-10
2.35692e-11
3.41339e-10
2.38597e-11
3.28188e-10
2.41161e-11
3.14922e-10
2.43352e-11
3.01559e-10
2.45141e-11
2.88119e-10
2.46525e-11
2.74625e-10
2.47502e-11
2.61098e-10
2.48073e-11
2.47564e-10
2.48245e-11
2.34046e-10
2.48014e-11
2.20569e-10
2.47373e-11
2.07161e-10
2.46326e-11
1.9385e-10
2.4485e-11
1.80667e-10
2.42889e-11
1.67646e-10
2.40366e-11
1.54819e-10
2.3719e-11
1.42223e-10
2.33264e-11
1.29895e-10
2.28521e-11
1.17874e-10
2.22909e-11
1.06199e-10
2.164e-11
9.491e-11
2.09015e-11
8.40501e-11
2.00795e-11
7.36617e-11
1.91778e-11
6.37859e-11
1.81995e-11
5.4464e-11
1.7146e-11
4.57365e-11
1.60192e-11
3.76437e-11
1.48234e-11
3.02257e-11
1.35607e-11
2.35187e-11
1.22319e-11
1.75576e-11
1.08381e-11
1.23727e-11
9.38123e-12
7.98942e-12
7.86821e-12
4.42372e-12
6.30983e-12
1.67732e-12
4.72515e-12
-2.63165e-13
3.14657e-12
-1.43526e-12
1.62025e-12
-1.90814e-12
2.15201e-13
-1.79029e-12
-9.73616e-13
-1.24112e-12
-1.82585e-12
-4.97462e-13
-2.13138e-12
-1.29036e-12
-1.79009e-12
9.20559e-12
-4.78109e-12
1.16746e-12
-5.879e-12
-3.35559e-12
-5.44181e-12
-5.3485e-12
-3.71712e-12
-6.43213e-12
-8.60586e-13
-7.2463e-12
3.02389e-12
-8.15591e-12
7.87035e-12
-9.37615e-12
1.3613e-11
-1.09287e-11
2.02328e-11
-1.2824e-11
2.77183e-11
-1.49858e-11
3.60709e-11
-1.73417e-11
4.52698e-11
-1.97853e-11
5.53101e-11
-2.22507e-11
6.61936e-11
-2.46739e-11
7.787e-11
-2.69815e-11
9.03389e-11
-2.91589e-11
1.03524e-10
-3.11724e-11
1.17413e-10
-3.30038e-11
1.31943e-10
-3.46557e-11
1.47059e-10
-3.61136e-11
1.62735e-10
-3.74104e-11
1.7888e-10
-3.8517e-11
1.95473e-10
-3.94841e-11
2.12439e-10
-4.02848e-11
2.29752e-10
-4.09685e-11
2.47341e-10
-4.15138e-11
2.65172e-10
-4.19551e-11
2.83193e-10
-4.23014e-11
3.01366e-10
-4.25545e-11
3.1965e-10
-4.27278e-11
3.38004e-10
-4.28249e-11
3.56393e-10
-4.28463e-11
3.74775e-10
-4.27994e-11
3.93117e-10
-4.26845e-11
4.11391e-10
-4.25064e-11
4.29568e-10
-4.22668e-11
4.47621e-10
-4.19628e-11
4.65528e-10
-4.15994e-11
4.83265e-10
-4.11803e-11
5.00799e-10
-4.07095e-11
5.18107e-10
-4.01898e-11
5.35171e-10
-3.96224e-11
5.51966e-10
-3.90152e-11
5.68476e-10
-3.83608e-11
5.84683e-10
-3.76602e-11
6.00569e-10
-3.69216e-11
6.16123e-10
-3.61439e-11
6.31325e-10
-3.53321e-11
6.46158e-10
-3.44882e-11
6.60611e-10
-3.36163e-11
6.7467e-10
-3.27197e-11
6.88323e-10
-3.1797e-11
7.01556e-10
-3.08481e-11
7.14362e-10
-2.9872e-11
7.26731e-10
-2.88682e-11
7.38655e-10
-2.78411e-11
7.50123e-10
-2.67912e-11
7.61131e-10
-2.57179e-11
7.71668e-10
-2.46243e-11
7.81727e-10
-2.35117e-11
7.91305e-10
-2.23798e-11
8.00396e-10
-2.123e-11
8.08994e-10
-2.00639e-11
8.17097e-10
-1.88846e-11
8.24699e-10
-1.76978e-11
8.31794e-10
-1.65079e-11
8.38378e-10
-1.53158e-11
8.44447e-10
-1.41193e-11
8.49999e-10
-1.29166e-11
8.55031e-10
-1.17079e-11
8.59543e-10
-1.04917e-11
8.63533e-10
-9.2652e-12
8.66999e-10
-8.02863e-12
8.6994e-10
-6.78321e-12
8.72357e-10
-5.52949e-12
8.74251e-10
-4.27014e-12
8.7562e-10
-3.01165e-12
8.76463e-10
-1.75955e-12
8.76778e-10
-5.16166e-13
8.76562e-10
7.1647e-13
8.75815e-10
1.93744e-12
8.74537e-10
3.15018e-12
8.72728e-10
4.36128e-12
8.70391e-10
5.575e-12
8.67527e-10
6.79086e-12
8.64141e-10
8.00744e-12
8.60234e-10
9.22439e-12
8.55808e-10
1.04412e-11
8.50864e-10
1.16547e-11
8.45403e-10
1.28605e-11
8.39427e-10
1.40573e-11
8.32938e-10
1.52455e-11
8.25939e-10
1.64258e-11
8.18433e-10
1.75997e-11
8.10428e-10
1.87671e-11
8.01927e-10
1.99263e-11
7.92937e-10
2.1073e-11
7.83459e-10
2.22022e-11
7.73498e-10
2.33118e-11
7.6306e-10
2.44023e-11
7.5215e-10
2.54736e-11
7.40774e-10
2.65258e-11
7.28939e-10
2.75596e-11
7.16653e-10
2.85775e-11
7.03927e-10
2.95838e-11
6.90769e-10
3.05809e-11
6.77192e-10
3.15684e-11
6.6321e-10
3.25431e-11
6.48834e-10
3.34989e-11
6.34076e-10
3.443e-11
6.18947e-10
3.53309e-11
6.03461e-10
3.61975e-11
5.87633e-10
3.70272e-11
5.71478e-10
3.78169e-11
5.55014e-10
3.85636e-11
5.3826e-10
3.92653e-11
5.21237e-10
3.99187e-11
5.03964e-10
4.05214e-11
4.86462e-10
4.10716e-11
4.68755e-10
4.15661e-11
4.50868e-10
4.2002e-11
4.32827e-10
4.23759e-11
4.14658e-10
4.26836e-11
3.96388e-10
4.29226e-11
3.78046e-10
4.30919e-11
3.59664e-10
4.31896e-11
3.41276e-10
4.32137e-11
3.22914e-10
4.31628e-11
3.04617e-10
4.30347e-11
2.86423e-10
4.28267e-11
2.68372e-10
4.25351e-11
2.50509e-10
4.21526e-11
2.32876e-10
4.16693e-11
2.15518e-10
4.1076e-11
1.98482e-10
4.03632e-11
1.81813e-10
3.95222e-11
1.65557e-10
3.8547e-11
1.49764e-10
3.74335e-11
1.34483e-10
3.61816e-11
1.19768e-10
3.47942e-11
1.05673e-10
3.32733e-11
9.22516e-11
3.16209e-11
7.95575e-11
2.98395e-11
6.76451e-11
2.79316e-11
5.65668e-11
2.59017e-11
4.63738e-11
2.37536e-11
3.71136e-11
2.14918e-11
2.88297e-11
1.91226e-11
2.1557e-11
1.66539e-11
1.5322e-11
1.4103e-11
1.0139e-11
1.14938e-11
6.00431e-12
8.85996e-12
2.8951e-12
6.25491e-12
7.62635e-13
3.7529e-12
-4.76279e-13
1.45502e-12
-9.47697e-13
-5.024e-13
-8.27745e-13
-1.9463e-12
-3.69669e-13
-2.59012e-12
-1.66074e-12
-9.37283e-13
1.01385e-11
-3.12757e-12
3.35696e-12
-3.95173e-12
-2.53385e-12
-3.20411e-12
-6.09783e-12
-9.72138e-13
-8.66368e-12
2.67848e-12
-1.08972e-11
7.6663e-12
-1.31499e-11
1.39131e-11
-1.56211e-11
2.13579e-11
-1.83736e-11
2.99481e-11
-2.14158e-11
3.96367e-11
-2.46757e-11
5.03785e-11
-2.80834e-11
6.21779e-11
-3.15865e-11
7.49938e-11
-3.5062e-11
8.87866e-11
-3.84677e-11
1.03536e-10
-4.17318e-11
1.19202e-10
-4.48272e-11
1.35728e-10
-4.77052e-11
1.53097e-10
-5.0369e-11
1.71226e-10
-5.27887e-11
1.90083e-10
-5.49682e-11
2.0959e-10
-5.69189e-11
2.29702e-10
-5.86262e-11
2.50353e-10
-6.01354e-11
2.71484e-10
-6.14174e-11
2.93037e-10
-6.25212e-11
3.14957e-10
-6.34334e-11
3.37183e-10
-6.41843e-11
3.59662e-10
-6.47771e-11
3.82335e-10
-6.52262e-11
4.05154e-10
-6.55458e-11
4.28072e-10
-6.57393e-11
4.51039e-10
-6.58144e-11
4.74015e-10
-6.57748e-11
4.96953e-10
-6.56233e-11
5.19812e-10
-6.53661e-11
5.42553e-10
-6.5008e-11
5.65142e-10
-6.45529e-11
5.8755e-10
-6.4005e-11
6.09741e-10
-6.33724e-11
6.31685e-10
-6.26546e-11
6.53355e-10
-6.18561e-11
6.74715e-10
-6.09867e-11
6.95745e-10
-6.00444e-11
7.16417e-10
-5.90322e-11
7.36708e-10
-5.79541e-11
7.56602e-10
-5.68133e-11
7.76074e-10
-5.56156e-11
7.95106e-10
-5.43637e-11
8.13679e-10
-5.30609e-11
8.31775e-10
-5.17125e-11
8.49379e-10
-5.0321e-11
8.66471e-10
-4.88894e-11
8.83039e-10
-4.74171e-11
8.99073e-10
-4.59031e-11
9.14556e-10
-4.43532e-11
9.29482e-10
-4.27686e-11
9.43841e-10
-4.11484e-11
9.57618e-10
-3.94962e-11
9.70809e-10
-3.78155e-11
9.83404e-10
-3.61078e-11
9.95398e-10
-3.43733e-11
1.00678e-09
-3.26133e-11
1.01755e-09
-3.08317e-11
1.0277e-09
-2.90328e-11
1.03722e-09
-2.72206e-11
1.04611e-09
-2.53984e-11
1.05437e-09
-2.35674e-11
1.06197e-09
-2.17274e-11
1.06894e-09
-1.98782e-11
1.07525e-09
-1.80201e-11
1.08091e-09
-1.61524e-11
1.08592e-09
-1.42731e-11
1.09027e-09
-1.23814e-11
1.09397e-09
-1.04794e-11
1.09701e-09
-8.57042e-12
1.0994e-09
-6.65771e-12
1.10113e-09
-4.74414e-12
1.1022e-09
-2.83267e-12
1.10261e-09
-9.26828e-13
1.10236e-09
9.69598e-13
1.10144e-09
2.856e-12
1.09985e-09
4.73554e-12
1.0976e-09
6.61212e-12
1.09469e-09
8.48799e-12
1.09112e-09
1.03633e-11
1.08688e-09
1.22379e-11
1.082e-09
1.41106e-11
1.07646e-09
1.59791e-11
1.07027e-09
1.78414e-11
1.06344e-09
1.96953e-11
1.05596e-09
2.15388e-11
1.04784e-09
2.33706e-11
1.03907e-09
2.51897e-11
1.02967e-09
2.69973e-11
1.01965e-09
2.87935e-11
1.009e-09
3.05752e-11
9.97732e-10
3.2338e-11
9.85856e-10
3.40782e-11
9.73375e-10
3.57944e-11
9.60292e-10
3.74857e-11
9.46615e-10
3.91503e-11
9.32353e-10
4.07869e-11
9.17516e-10
4.23962e-11
9.02116e-10
4.39797e-11
8.86161e-10
4.55391e-11
8.69667e-10
4.70747e-11
8.52651e-10
4.85847e-11
8.35127e-10
5.00661e-11
8.17112e-10
5.15134e-11
7.98621e-10
5.29202e-11
7.7967e-10
5.42812e-11
7.60278e-10
5.55909e-11
7.40463e-10
5.68443e-11
7.20243e-10
5.8037e-11
6.99641e-10
5.91646e-11
6.7868e-10
6.02242e-11
6.57386e-10
6.12124e-11
6.35784e-10
6.21243e-11
6.13899e-10
6.29557e-11
5.91762e-10
6.37027e-11
5.69405e-10
6.43601e-11
5.46857e-10
6.49234e-11
5.24152e-10
6.53883e-11
5.01325e-10
6.57498e-11
4.78412e-10
6.60043e-11
4.55453e-10
6.61485e-11
4.3249e-10
6.61775e-11
4.09565e-10
6.60872e-11
3.86725e-10
6.58743e-11
3.64019e-10
6.55336e-11
3.41496e-10
6.5058e-11
3.19209e-10
6.44389e-11
2.97214e-10
6.36654e-11
2.75561e-10
6.27276e-11
2.54309e-10
6.16158e-11
2.33513e-10
6.03202e-11
2.13226e-10
5.88332e-11
1.93509e-10
5.71499e-11
1.74424e-10
5.5268e-11
1.5603e-10
5.31878e-11
1.38392e-10
5.09106e-11
1.21575e-10
4.84378e-11
1.05642e-10
4.57715e-11
9.06587e-11
4.29152e-11
7.66856e-11
3.98752e-11
6.37825e-11
3.66575e-11
5.20033e-11
3.32701e-11
4.13972e-11
2.97278e-11
3.20039e-11
2.60482e-11
2.38504e-11
2.22572e-11
1.69502e-11
1.83944e-11
1.12981e-11
1.45121e-11
6.86792e-12
1.0685e-11
3.60547e-12
7.01523e-12
1.42352e-12
3.6374e-12
1.92892e-13
7.28127e-13
-2.65234e-13
-1.48884e-12
-2.00111e-13
-2.65582e-12
-1.86132e-12
-1.86021e-13
1.03281e-11
-1.29418e-12
4.46582e-12
-1.34683e-12
-2.47648e-12
1.65597e-13
-7.60937e-12
3.282e-12
-1.17806e-11
7.99344e-12
-1.56017e-11
1.42458e-11
-1.94019e-11
2.19816e-11
-2.33585e-11
3.11408e-11
-2.75299e-11
4.16429e-11
-3.19174e-11
5.34623e-11
-3.64942e-11
6.65545e-11
-4.11746e-11
8.08421e-11
-4.58745e-11
9.63213e-11
-5.05426e-11
1.12937e-10
-5.50828e-11
1.30651e-10
-5.94485e-11
1.49414e-10
-6.35876e-11
1.69185e-10
-6.74722e-11
1.89895e-10
-7.10794e-11
2.11485e-10
-7.43801e-11
2.33915e-10
-7.74007e-11
2.57091e-10
-8.00976e-11
2.80988e-10
-8.25246e-11
3.05488e-10
-8.46384e-11
3.30571e-10
-8.65017e-11
3.5614e-10
-8.80895e-11
3.82141e-10
-8.9436e-11
4.0851e-10
-9.0551e-11
4.35178e-10
-9.14452e-11
4.62084e-10
-9.21341e-11
4.89167e-10
-9.2629e-11
5.16367e-10
-9.29397e-11
5.4363e-10
-9.30768e-11
5.70903e-10
-9.30481e-11
5.9814e-10
-9.28593e-11
6.2529e-10
-9.25172e-11
6.52307e-10
-9.20261e-11
6.79149e-10
-9.13929e-11
7.05773e-10
-9.06315e-11
7.32142e-10
-8.9742e-11
7.5822e-10
-8.87301e-11
7.83969e-10
-8.76068e-11
8.0936e-10
-8.63766e-11
8.34358e-10
-8.50418e-11
8.58933e-10
-8.3607e-11
8.83057e-10
-8.20797e-11
9.0671e-10
-8.04649e-11
9.29861e-10
-7.87677e-11
9.5249e-10
-7.69919e-11
9.74572e-10
-7.51441e-11
9.96091e-10
-7.323e-11
1.01702e-09
-7.12538e-11
1.03735e-09
-6.92164e-11
1.05706e-09
-6.71201e-11
1.07613e-09
-6.49711e-11
1.09454e-09
-6.27726e-11
1.1123e-09
-6.05225e-11
1.12938e-09
-5.82257e-11
1.14577e-09
-5.58875e-11
1.16146e-09
-5.35093e-11
1.17645e-09
-5.10938e-11
1.19072e-09
-4.86436e-11
1.20426e-09
-4.61609e-11
1.21708e-09
-4.3648e-11
1.22916e-09
-4.11099e-11
1.24049e-09
-3.85529e-11
1.25107e-09
-3.59796e-11
1.2609e-09
-3.33893e-11
1.26995e-09
-3.07838e-11
1.27824e-09
-2.81667e-11
1.28576e-09
-2.55379e-11
1.2925e-09
-2.28953e-11
1.29847e-09
-2.02384e-11
1.30366e-09
-1.7569e-11
1.30806e-09
-1.48885e-11
1.31169e-09
-1.21983e-11
1.31454e-09
-9.50273e-12
1.3166e-09
-6.80602e-12
1.31788e-09
-4.11068e-12
1.31837e-09
-1.41856e-12
1.31807e-09
1.26753e-12
1.31698e-09
3.94604e-12
1.3151e-09
6.61843e-12
1.31243e-09
9.28667e-12
1.30896e-09
1.19517e-11
1.30471e-09
1.46134e-11
1.29968e-09
1.72715e-11
1.29386e-09
1.99253e-11
1.28727e-09
2.25722e-11
1.2799e-09
2.52096e-11
1.27176e-09
2.78354e-11
1.26286e-09
3.04472e-11
1.25318e-09
3.30439e-11
1.24275e-09
3.56248e-11
1.23156e-09
3.81889e-11
1.21962e-09
4.07345e-11
1.20693e-09
4.32577e-11
1.19352e-09
4.5755e-11
1.17937e-09
4.82243e-11
1.1645e-09
5.06632e-11
1.14892e-09
5.3069e-11
1.13263e-09
5.54386e-11
1.11565e-09
5.77699e-11
1.09798e-09
6.00633e-11
1.07964e-09
6.23181e-11
1.06064e-09
6.4534e-11
1.04101e-09
6.671e-11
1.02075e-09
6.88425e-11
9.99892e-10
7.09271e-11
9.78447e-10
7.29581e-11
9.56438e-10
7.49289e-11
9.33883e-10
7.68344e-11
9.10805e-10
7.86684e-11
8.87227e-10
8.04233e-11
8.6317e-10
8.20928e-11
8.38664e-10
8.36715e-11
8.13734e-10
8.51542e-11
7.88409e-10
8.65365e-11
7.62721e-10
8.78125e-11
7.36701e-10
8.89751e-11
7.10384e-10
9.00186e-11
6.83808e-10
9.0937e-11
6.57008e-10
9.17232e-11
6.30025e-10
9.23712e-11
6.02899e-10
9.2875e-11
5.75677e-10
9.32276e-11
5.48402e-10
9.34228e-11
5.21126e-10
9.34542e-11
4.93898e-10
9.33152e-11
4.66772e-10
9.29993e-11
4.39807e-10
9.24993e-11
4.1306e-10
9.18053e-11
3.86592e-10
9.09065e-11
3.60466e-10
8.97917e-11
3.34745e-10
8.84494e-11
3.09492e-10
8.6869e-11
2.84773e-10
8.50403e-11
2.60652e-10
8.29538e-11
2.37199e-10
8.06032e-11
2.14482e-10
7.79853e-11
1.92572e-10
7.50982e-11
1.71542e-10
7.19408e-11
1.51464e-10
6.85147e-11
1.32411e-10
6.48239e-11
1.14456e-10
6.08718e-11
9.76654e-11
5.66657e-11
8.21058e-11
5.22171e-11
6.78373e-11
4.75389e-11
5.49121e-11
4.26528e-11
4.33725e-11
3.75877e-11
3.32489e-11
3.23817e-11
2.45558e-11
2.70885e-11
1.72881e-11
2.17793e-11
1.14213e-11
1.65517e-11
6.90238e-12
1.15345e-11
3.64655e-12
6.8936e-12
1.53152e-12
2.84294e-12
3.89381e-13
-3.47586e-13
-9.03197e-15
-2.25787e-12
-1.87052e-12
3.71096e-13
9.95624e-12
3.48978e-13
4.49124e-12
1.3454e-12
-3.47558e-12
3.88721e-12
-1.01493e-11
8.14481e-12
-1.60396e-11
1.41187e-11
-2.15791e-11
2.18075e-11
-2.70867e-11
3.11296e-11
-3.26839e-11
4.20638e-11
-3.84619e-11
5.45394e-11
-4.43946e-11
6.84848e-11
-5.04372e-11
8.38515e-11
-5.65417e-11
1.00611e-10
-6.26302e-11
1.18691e-10
-6.86232e-11
1.38053e-10
-7.44434e-11
1.58654e-10
-8.00406e-11
1.80414e-10
-8.53535e-11
2.03301e-10
-9.03552e-11
2.27234e-10
-9.50153e-11
2.5217e-10
-9.93118e-11
2.78015e-10
-1.03247e-10
3.04721e-10
-1.06798e-10
3.32199e-10
-1.10002e-10
3.60387e-10
-1.12827e-10
3.89209e-10
-1.15321e-10
4.18586e-10
-1.17466e-10
4.48449e-10
-1.19299e-10
4.78722e-10
-1.20825e-10
5.09337e-10
-1.22061e-10
5.40225e-10
-1.23023e-10
5.71318e-10
-1.23721e-10
6.02546e-10
-1.24169e-10
6.33848e-10
-1.2438e-10
6.65164e-10
-1.24363e-10
6.96436e-10
-1.24132e-10
7.27609e-10
-1.23691e-10
7.58636e-10
-1.2305e-10
7.89463e-10
-1.22223e-10
8.20046e-10
-1.21213e-10
8.50335e-10
-1.20031e-10
8.8029e-10
-1.18687e-10
9.09874e-10
-1.1719e-10
9.39044e-10
-1.15546e-10
9.67764e-10
-1.13761e-10
9.96001e-10
-1.11845e-10
1.02373e-09
-1.09804e-10
1.05091e-09
-1.07645e-10
1.07751e-09
-1.05374e-10
1.10352e-09
-1.02999e-10
1.1289e-09
-1.00527e-10
1.15364e-09
-9.79639e-11
1.1777e-09
-9.53152e-11
1.20107e-09
-9.25845e-11
1.22372e-09
-8.97765e-11
1.24565e-09
-8.6898e-11
1.26683e-09
-8.39513e-11
1.28725e-09
-8.09397e-11
1.30689e-09
-7.78677e-11
1.32574e-09
-7.47392e-11
1.34379e-09
-7.15593e-11
1.36103e-09
-6.83325e-11
1.37745e-09
-6.50597e-11
1.39303e-09
-6.17436e-11
1.40777e-09
-5.83905e-11
1.42167e-09
-5.50058e-11
1.43471e-09
-5.15919e-11
1.44688e-09
-4.81516e-11
1.45818e-09
-4.46893e-11
1.4686e-09
-4.12078e-11
1.47815e-09
-3.77082e-11
1.4868e-09
-3.41901e-11
1.49456e-09
-3.06555e-11
1.50143e-09
-2.71058e-11
1.5074e-09
-2.35411e-11
1.51247e-09
-1.99626e-11
1.51665e-09
-1.63738e-11
1.51992e-09
-1.2778e-11
1.5223e-09
-9.17755e-12
1.52376e-09
-5.57613e-12
1.52432e-09
-1.97788e-12
1.52397e-09
1.61525e-12
1.52272e-09
5.20343e-12
1.52055e-09
8.78763e-12
1.51747e-09
1.2367e-11
1.51348e-09
1.59398e-11
1.50859e-09
1.95063e-11
1.50279e-09
2.30671e-11
1.4961e-09
2.66209e-11
1.4885e-09
3.01648e-11
1.48002e-09
3.36955e-11
1.47065e-09
3.72104e-11
1.46039e-09
4.07074e-11
1.44924e-09
4.41847e-11
1.43723e-09
4.76415e-11
1.42434e-09
5.10756e-11
1.41059e-09
5.44838e-11
1.39599e-09
5.78618e-11
1.38054e-09
6.12061e-11
1.36425e-09
6.45146e-11
1.34713e-09
6.77845e-11
1.32918e-09
7.10115e-11
1.31043e-09
7.41915e-11
1.29088e-09
7.73212e-11
1.27054e-09
8.03993e-11
1.24944e-09
8.34243e-11
1.22758e-09
8.63937e-11
1.20498e-09
8.93047e-11
1.18167e-09
9.21527e-11
1.15767e-09
9.49312e-11
1.13299e-09
9.76342e-11
1.10767e-09
1.00255e-10
1.08171e-09
1.02786e-10
1.05516e-09
1.0522e-10
1.02804e-09
1.07549e-10
1.00036e-09
1.09765e-10
9.72173e-10
1.1186e-10
9.435e-10
1.13828e-10
9.14374e-10
1.15662e-10
8.84833e-10
1.17353e-10
8.54914e-10
1.18894e-10
8.24656e-10
1.20276e-10
7.94101e-10
1.21492e-10
7.63291e-10
1.22532e-10
7.32274e-10
1.23389e-10
7.01096e-10
1.24053e-10
6.69809e-10
1.24515e-10
6.38465e-10
1.24767e-10
6.07119e-10
1.24799e-10
5.7583e-10
1.24603e-10
5.44661e-10
1.24169e-10
5.13673e-10
1.23487e-10
4.82933e-10
1.22545e-10
4.5251e-10
1.21329e-10
4.22474e-10
1.19828e-10
3.92895e-10
1.18029e-10
3.63846e-10
1.15919e-10
3.35399e-10
1.13487e-10
3.07629e-10
1.10723e-10
2.80613e-10
1.07619e-10
2.5443e-10
1.0417e-10
2.29155e-10
1.00373e-10
2.0487e-10
9.6226e-11
1.81655e-10
9.173e-11
1.59588e-10
8.68896e-11
1.38749e-10
8.17114e-11
1.19211e-10
7.62041e-11
1.01045e-10
7.03831e-11
8.43146e-11
6.42691e-11
6.90769e-11
5.78914e-11
5.53766e-11
5.12887e-11
4.32465e-11
4.45117e-11
3.27053e-11
3.763e-11
2.37519e-11
3.0733e-11
1.63648e-11
2.39388e-11
1.0498e-11
1.74019e-11
6.07554e-12
1.13162e-11
2.98983e-12
5.92834e-12
1.09416e-12
1.54731e-12
1.91099e-13
-1.35523e-12
-1.67941e-12
7.6373e-13
9.18864e-12
1.71737e-12
3.538e-12
3.82753e-12
-5.58379e-12
7.55713e-12
-1.38811e-11
1.31051e-11
-2.15858e-11
2.04994e-11
-2.89699e-11
2.97279e-11
-3.63174e-11
4.07632e-11
-4.37143e-11
5.35335e-11
-5.12325e-11
6.79857e-11
-5.88449e-11
8.40885e-11
-6.65378e-11
1.01754e-10
-7.42143e-11
1.20942e-10
-8.18125e-11
1.41584e-10
-8.92694e-11
1.63636e-10
-9.64994e-11
1.87031e-10
-1.03435e-10
2.11714e-10
-1.10037e-10
2.37621e-10
-1.16261e-10
2.64671e-10
-1.22061e-10
2.92809e-10
-1.27455e-10
3.21939e-10
-1.32374e-10
3.52019e-10
-1.36878e-10
3.82925e-10
-1.40909e-10
4.14622e-10
-1.44522e-10
4.46996e-10
-1.47696e-10
4.79988e-10
-1.5046e-10
5.13511e-10
-1.5282e-10
5.47482e-10
-1.54795e-10
5.81828e-10
-1.56407e-10
6.16472e-10
-1.57664e-10
6.51338e-10
-1.58587e-10
6.86357e-10
-1.59189e-10
7.21462e-10
-1.59481e-10
7.56578e-10
-1.59482e-10
7.91647e-10
-1.592e-10
8.26606e-10
-1.58649e-10
8.61398e-10
-1.57843e-10
8.9597e-10
-1.56793e-10
9.30265e-10
-1.55509e-10
9.64238e-10
-1.54002e-10
9.97837e-10
-1.52287e-10
1.03102e-09
-1.50371e-10
1.06374e-09
-1.48265e-10
1.09596e-09
-1.4598e-10
1.12763e-09
-1.43524e-10
1.15874e-09
-1.40907e-10
1.18923e-09
-1.3814e-10
1.21909e-09
-1.35227e-10
1.24827e-09
-1.3218e-10
1.27675e-09
-1.29009e-10
1.30451e-09
-1.2572e-10
1.33151e-09
-1.22318e-10
1.35774e-09
-1.18811e-10
1.38317e-09
-1.15206e-10
1.40778e-09
-1.11511e-10
1.43156e-09
-1.07728e-10
1.45448e-09
-1.03861e-10
1.47653e-09
-9.99195e-11
1.4977e-09
-9.59081e-11
1.51797e-09
-9.18303e-11
1.53733e-09
-8.76902e-11
1.55576e-09
-8.34934e-11
1.57326e-09
-7.92448e-11
1.58982e-09
-7.49488e-11
1.60543e-09
-7.06103e-11
1.62007e-09
-6.6234e-11
1.63374e-09
-6.18235e-11
1.64644e-09
-5.73828e-11
1.65814e-09
-5.2916e-11
1.66886e-09
-4.84254e-11
1.67858e-09
-4.3912e-11
1.6873e-09
-3.93766e-11
1.69502e-09
-3.48214e-11
1.70173e-09
-3.02488e-11
1.70743e-09
-2.56618e-11
1.71212e-09
-2.10628e-11
1.71579e-09
-1.64533e-11
1.71845e-09
-1.18365e-11
1.72009e-09
-7.21758e-12
1.72072e-09
-2.60057e-12
1.72032e-09
2.0137e-12
1.7189e-09
6.62473e-12
1.71645e-09
1.12312e-11
1.71299e-09
1.58316e-11
1.7085e-09
2.04246e-11
1.703e-09
2.50095e-11
1.69649e-09