/*--------------------------------*- C++ -*----------------------------------*\
  =========                 |
  \\      /  F ield         | OpenFOAM: The Open Source CFD Toolbox
   \\    /   O peration     | Website:  https://openfoam.org
    \\  /    A nd           | Version:  7
     \\/     M anipulation  |
\*---------------------------------------------------------------------------*/
FoamFile
{
    version     2.0;
    format      ascii;
    class       volVectorField;
    location    "0.125";
    object      U;
}
// * * * * * * * * * * * * * * * * * * * * * * * * * * * * * * * * * * * * * //

dimensions      [0 1 -1 0 0 0 0];

internalField   nonuniform List<vector> 
51200
(
(-9.75294e-07 -1.01589e-06 0)
(3.52437e-07 -1.39471e-06 0)
(6.00353e-07 -5.11045e-07 0)
(1.52182e-06 -2.97132e-07 0)
(1.60083e-06 -1.45544e-07 0)
(1.63975e-06 -4.39581e-08 0)
(1.61189e-06 2.27025e-08 0)
(1.54454e-06 6.29423e-08 0)
(1.47076e-06 7.54129e-08 0)
(1.40981e-06 7.50566e-08 0)
(1.38487e-06 5.84955e-08 0)
(1.40826e-06 3.02935e-08 0)
(1.4852e-06 2.797e-09 0)
(1.61813e-06 -2.66774e-08 0)
(1.8072e-06 -5.50157e-08 0)
(2.04614e-06 -7.75166e-08 0)
(2.32795e-06 -1.01376e-07 0)
(2.65393e-06 -1.21951e-07 0)
(3.01152e-06 -1.36093e-07 0)
(3.39386e-06 -1.45993e-07 0)
(3.79977e-06 -1.52532e-07 0)
(4.22239e-06 -1.55458e-07 0)
(4.65568e-06 -1.57854e-07 0)
(5.09762e-06 -1.59049e-07 0)
(5.5464e-06 -1.56466e-07 0)
(5.99581e-06 -1.53531e-07 0)
(6.44607e-06 -1.48663e-07 0)
(6.8959e-06 -1.44834e-07 0)
(7.34438e-06 -1.40827e-07 0)
(7.79129e-06 -1.3717e-07 0)
(8.23476e-06 -1.33417e-07 0)
(8.67759e-06 -1.2894e-07 0)
(9.1187e-06 -1.24546e-07 0)
(9.55589e-06 -1.2342e-07 0)
(9.99249e-06 -1.25074e-07 0)
(1.04285e-05 -1.26197e-07 0)
(1.08608e-05 -1.26062e-07 0)
(1.12889e-05 -1.24085e-07 0)
(1.17138e-05 -1.19342e-07 0)
(1.2134e-05 -1.13682e-07 0)
(1.25484e-05 -1.10507e-07 0)
(1.29583e-05 -1.09887e-07 0)
(1.33638e-05 -1.09566e-07 0)
(1.37637e-05 -1.08244e-07 0)
(1.41573e-05 -1.06664e-07 0)
(1.45445e-05 -1.04909e-07 0)
(1.49251e-05 -1.02356e-07 0)
(1.52981e-05 -9.90332e-08 0)
(1.56624e-05 -9.60924e-08 0)
(1.60186e-05 -9.39023e-08 0)
(1.63669e-05 -9.1962e-08 0)
(1.67074e-05 -8.97822e-08 0)
(1.70396e-05 -8.78362e-08 0)
(1.73633e-05 -8.59297e-08 0)
(1.76788e-05 -8.37076e-08 0)
(1.79852e-05 -8.12437e-08 0)
(1.82815e-05 -7.84654e-08 0)
(1.85675e-05 -7.58637e-08 0)
(1.88428e-05 -7.33726e-08 0)
(1.91069e-05 -7.04278e-08 0)
(1.936e-05 -6.71418e-08 0)
(1.96014e-05 -6.36542e-08 0)
(1.98303e-05 -5.99125e-08 0)
(2.00462e-05 -5.59247e-08 0)
(2.02487e-05 -5.16928e-08 0)
(2.04377e-05 -4.74425e-08 0)
(2.06135e-05 -4.3765e-08 0)
(2.07768e-05 -4.0826e-08 0)
(2.09281e-05 -3.81319e-08 0)
(2.10675e-05 -3.51241e-08 0)
(2.11948e-05 -3.15242e-08 0)
(2.13095e-05 -2.75636e-08 0)
(2.14111e-05 -2.38048e-08 0)
(2.14994e-05 -2.03127e-08 0)
(2.15738e-05 -1.64631e-08 0)
(2.16337e-05 -1.1703e-08 0)
(2.16781e-05 -6.32423e-09 0)
(2.1707e-05 -1.11759e-09 0)
(2.17209e-05 3.37331e-09 0)
(2.17209e-05 7.09451e-09 0)
(2.17081e-05 1.02664e-08 0)
(2.16833e-05 1.30947e-08 0)
(2.1647e-05 1.56934e-08 0)
(2.15995e-05 1.8169e-08 0)
(2.15406e-05 2.07102e-08 0)
(2.14701e-05 2.35701e-08 0)
(2.13874e-05 2.69087e-08 0)
(2.12917e-05 3.06789e-08 0)
(2.11827e-05 3.45977e-08 0)
(2.10606e-05 3.83188e-08 0)
(2.09256e-05 4.17089e-08 0)
(2.07783e-05 4.4804e-08 0)
(2.06189e-05 4.7698e-08 0)
(2.04475e-05 5.05591e-08 0)
(2.02641e-05 5.36273e-08 0)
(2.00686e-05 5.71054e-08 0)
(1.98608e-05 6.08942e-08 0)
(1.96406e-05 6.45954e-08 0)
(1.94084e-05 6.7755e-08 0)
(1.91648e-05 7.01323e-08 0)
(1.89105e-05 7.1944e-08 0)
(1.86465e-05 7.36368e-08 0)
(1.83734e-05 7.54398e-08 0)
(1.80916e-05 7.72761e-08 0)
(1.7801e-05 7.89928e-08 0)
(1.75016e-05 8.07289e-08 0)
(1.71926e-05 8.29591e-08 0)
(1.68733e-05 8.6048e-08 0)
(1.65425e-05 8.99173e-08 0)
(1.61998e-05 9.41427e-08 0)
(1.58451e-05 9.83105e-08 0)
(1.54788e-05 1.0224e-07 0)
(1.51015e-05 1.05875e-07 0)
(1.47139e-05 1.09224e-07 0)
(1.43165e-05 1.12366e-07 0)
(1.391e-05 1.15348e-07 0)
(1.34948e-05 1.18188e-07 0)
(1.30713e-05 1.20862e-07 0)
(1.26404e-05 1.23313e-07 0)
(1.22025e-05 1.25575e-07 0)
(1.17585e-05 1.27674e-07 0)
(1.13088e-05 1.29503e-07 0)
(1.0854e-05 1.3096e-07 0)
(1.03952e-05 1.32034e-07 0)
(9.93351e-06 1.32787e-07 0)
(9.46986e-06 1.33384e-07 0)
(9.00504e-06 1.33912e-07 0)
(8.53966e-06 1.34312e-07 0)
(8.07413e-06 1.34598e-07 0)
(7.60895e-06 1.3488e-07 0)
(7.14439e-06 1.35292e-07 0)
(6.68046e-06 1.35991e-07 0)
(6.21742e-06 1.36949e-07 0)
(5.75588e-06 1.37851e-07 0)
(5.29673e-06 1.38248e-07 0)
(4.84167e-06 1.37699e-07 0)
(4.39305e-06 1.35922e-07 0)
(3.95353e-06 1.32877e-07 0)
(3.52593e-06 1.28696e-07 0)
(3.11287e-06 1.2354e-07 0)
(2.7165e-06 1.17578e-07 0)
(2.33856e-06 1.11071e-07 0)
(1.98058e-06 1.04188e-07 0)
(1.64398e-06 9.69021e-08 0)
(1.32996e-06 8.93262e-08 0)
(1.03957e-06 8.15711e-08 0)
(7.73947e-07 7.365e-08 0)
(5.33895e-07 6.57267e-08 0)
(3.20328e-07 5.75296e-08 0)
(1.3473e-07 4.86687e-08 0)
(-2.13824e-08 3.91635e-08 0)
(-1.45898e-07 2.86177e-08 0)
(-2.36595e-07 1.70743e-08 0)
(-2.92377e-07 4.89334e-09 0)
(-3.12091e-07 -8.12663e-09 0)
(-2.96053e-07 -2.09991e-08 0)
(-2.4741e-07 -3.2448e-08 0)
(-1.72253e-07 -4.08681e-08 0)
(-8.33093e-08 -4.19702e-08 0)
(-2.20107e-08 -2.22231e-08 0)
(-1.3604e-06 2.86385e-07 0)
(-1.64902e-06 -1.66712e-06 0)
(-8.34137e-07 -8.3667e-07 0)
(-1.96734e-07 -5.57062e-07 0)
(1.90736e-07 -3.19181e-07 0)
(5.13828e-07 -1.41008e-07 0)
(7.87364e-07 -2.77216e-08 0)
(1.02952e-06 2.55063e-08 0)
(1.2778e-06 3.12254e-08 0)
(1.56757e-06 -8.18408e-09 0)
(1.91136e-06 -7.60094e-08 0)
(2.33444e-06 -1.58877e-07 0)
(2.8439e-06 -2.59227e-07 0)
(3.4417e-06 -3.55405e-07 0)
(4.1351e-06 -4.48097e-07 0)
(4.91842e-06 -5.34574e-07 0)
(5.78824e-06 -6.12105e-07 0)
(6.73334e-06 -6.77642e-07 0)
(7.74343e-06 -7.36659e-07 0)
(8.81601e-06 -7.80149e-07 0)
(9.9409e-06 -8.17011e-07 0)
(1.11094e-05 -8.43318e-07 0)
(1.23144e-05 -8.64191e-07 0)
(1.35513e-05 -8.79916e-07 0)
(1.48092e-05 -8.88316e-07 0)
(1.60866e-05 -8.94473e-07 0)
(1.7379e-05 -8.95861e-07 0)
(1.86812e-05 -8.94714e-07 0)
(1.9992e-05 -8.9309e-07 0)
(2.13067e-05 -8.91658e-07 0)
(2.26255e-05 -8.89346e-07 0)
(2.39443e-05 -8.84905e-07 0)
(2.52618e-05 -8.80775e-07 0)
(2.65782e-05 -8.76681e-07 0)
(2.78913e-05 -8.72669e-07 0)
(2.91988e-05 -8.68909e-07 0)
(3.0499e-05 -8.65142e-07 0)
(3.17895e-05 -8.59197e-07 0)
(3.30683e-05 -8.49654e-07 0)
(3.43345e-05 -8.38565e-07 0)
(3.55873e-05 -8.27732e-07 0)
(3.68248e-05 -8.17751e-07 0)
(3.80459e-05 -8.07382e-07 0)
(3.92497e-05 -7.96101e-07 0)
(4.04343e-05 -7.84221e-07 0)
(4.15976e-05 -7.70978e-07 0)
(4.27395e-05 -7.5568e-07 0)
(4.38592e-05 -7.39458e-07 0)
(4.49544e-05 -7.23209e-07 0)
(4.60236e-05 -7.0692e-07 0)
(4.70673e-05 -6.90232e-07 0)
(4.8085e-05 -6.73376e-07 0)
(4.90754e-05 -6.56815e-07 0)
(5.00376e-05 -6.39844e-07 0)
(5.0971e-05 -6.21433e-07 0)
(5.18754e-05 -6.01899e-07 0)
(5.27496e-05 -5.81311e-07 0)
(5.35916e-05 -5.60194e-07 0)
(5.44009e-05 -5.3878e-07 0)
(5.51776e-05 -5.16536e-07 0)
(5.59207e-05 -4.93244e-07 0)
(5.66287e-05 -4.69214e-07 0)
(5.73009e-05 -4.44292e-07 0)
(5.79366e-05 -4.18317e-07 0)
(5.85356e-05 -3.91748e-07 0)
(5.90976e-05 -3.65409e-07 0)
(5.96224e-05 -3.39912e-07 0)
(6.01106e-05 -3.15353e-07 0)
(6.0562e-05 -2.91336e-07 0)
(6.09764e-05 -2.6706e-07 0)
(6.13541e-05 -2.41956e-07 0)
(6.16947e-05 -2.16104e-07 0)
(6.19973e-05 -1.89946e-07 0)
(6.22613e-05 -1.63232e-07 0)
(6.24867e-05 -1.35303e-07 0)
(6.26729e-05 -1.06106e-07 0)
(6.2819e-05 -7.64193e-08 0)
(6.29247e-05 -4.71014e-08 0)
(6.29905e-05 -1.87847e-08 0)
(6.30172e-05 8.09121e-09 0)
(6.3006e-05 3.34023e-08 0)
(6.29576e-05 5.73392e-08 0)
(6.28725e-05 8.03331e-08 0)
(6.2751e-05 1.03079e-07 0)
(6.2593e-05 1.26362e-07 0)
(6.23986e-05 1.50732e-07 0)
(6.21672e-05 1.76121e-07 0)
(6.18981e-05 2.02034e-07 0)
(6.15912e-05 2.28037e-07 0)
(6.12468e-05 2.53889e-07 0)
(6.08653e-05 2.79357e-07 0)
(6.04472e-05 3.04144e-07 0)
(5.99928e-05 3.28203e-07 0)
(5.95019e-05 3.51906e-07 0)
(5.89747e-05 3.75755e-07 0)
(5.84116e-05 4.00135e-07 0)
(5.78131e-05 4.24946e-07 0)
(5.71795e-05 4.49541e-07 0)
(5.65108e-05 4.73116e-07 0)
(5.58075e-05 4.95079e-07 0)
(5.5071e-05 5.15468e-07 0)
(5.43027e-05 5.3486e-07 0)
(5.35036e-05 5.53723e-07 0)
(5.26739e-05 5.72253e-07 0)
(5.18137e-05 5.90631e-07 0)
(5.0923e-05 6.09365e-07 0)
(5.0002e-05 6.29265e-07 0)
(4.90504e-05 6.5078e-07 0)
(4.80681e-05 6.736e-07 0)
(4.70552e-05 6.96885e-07 0)
(4.6012e-05 7.19747e-07 0)
(4.49389e-05 7.41673e-07 0)
(4.38368e-05 7.62472e-07 0)
(4.27073e-05 7.82099e-07 0)
(4.15519e-05 8.00644e-07 0)
(4.0372e-05 8.18137e-07 0)
(3.91685e-05 8.34529e-07 0)
(3.79427e-05 8.49801e-07 0)
(3.66967e-05 8.63901e-07 0)
(3.54327e-05 8.7682e-07 0)
(3.41523e-05 8.88542e-07 0)
(3.28571e-05 8.98794e-07 0)
(3.15487e-05 9.07262e-07 0)
(3.0229e-05 9.13919e-07 0)
(2.89008e-05 9.1887e-07 0)
(2.75664e-05 9.22293e-07 0)
(2.62278e-05 9.24369e-07 0)
(2.48872e-05 9.25121e-07 0)
(2.35464e-05 9.24721e-07 0)
(2.22073e-05 9.23506e-07 0)
(2.08722e-05 9.21658e-07 0)
(1.95433e-05 9.19212e-07 0)
(1.82229e-05 9.15884e-07 0)
(1.69138e-05 9.10875e-07 0)
(1.56192e-05 9.03144e-07 0)
(1.43428e-05 8.91712e-07 0)
(1.30893e-05 8.75774e-07 0)
(1.18636e-05 8.54879e-07 0)
(1.06708e-05 8.29077e-07 0)
(9.51615e-06 7.98803e-07 0)
(8.4044e-06 7.64691e-07 0)
(7.3401e-06 7.27405e-07 0)
(6.32758e-06 6.87375e-07 0)
(5.37099e-06 6.44623e-07 0)
(4.47433e-06 5.99251e-07 0)
(3.6415e-06 5.51669e-07 0)
(2.87635e-06 5.02072e-07 0)
(2.18223e-06 4.50449e-07 0)
(1.56245e-06 3.96518e-07 0)
(1.02073e-06 3.39518e-07 0)
(5.60795e-07 2.79159e-07 0)
(1.86219e-07 2.15598e-07 0)
(-1.00409e-07 1.4889e-07 0)
(-2.98593e-07 8.04259e-08 0)
(-4.09727e-07 1.23715e-08 0)
(-4.38113e-07 -5.21496e-08 0)
(-3.92419e-07 -1.07293e-07 0)
(-2.88292e-07 -1.45905e-07 0)
(-1.51208e-07 -1.53014e-07 0)
(-4.04961e-08 -8.29636e-08 0)
(-5.07701e-07 5.45341e-07 0)
(-9.00009e-07 -7.57777e-07 0)
(-1.14604e-06 -9.34345e-07 0)
(-9.87265e-07 -8.42119e-07 0)
(-7.2834e-07 -6.77078e-07 0)
(-3.7563e-07 -5.23917e-07 0)
(4.62293e-08 -4.27456e-07 0)
(5.4886e-07 -4.0052e-07 0)
(1.12786e-06 -4.45132e-07 0)
(1.78827e-06 -5.44355e-07 0)
(2.55932e-06 -6.9176e-07 0)
(3.42355e-06 -8.69757e-07 0)
(4.39579e-06 -1.05969e-06 0)
(5.48825e-06 -1.25838e-06 0)
(6.68312e-06 -1.45076e-06 0)
(7.98747e-06 -1.6333e-06 0)
(9.40099e-06 -1.79858e-06 0)
(1.09112e-05 -1.95322e-06 0)
(1.25143e-05 -2.08263e-06 0)
(1.42017e-05 -2.19756e-06 0)
(1.59649e-05 -2.29498e-06 0)
(1.77996e-05 -2.37524e-06 0)
(1.96915e-05 -2.44254e-06 0)
(2.16392e-05 -2.49232e-06 0)
(2.36345e-05 -2.53789e-06 0)
(2.56658e-05 -2.56649e-06 0)
(2.77324e-05 -2.59114e-06 0)
(2.98266e-05 -2.60672e-06 0)
(3.1942e-05 -2.61783e-06 0)
(3.40755e-05 -2.62488e-06 0)
(3.62209e-05 -2.62861e-06 0)
(3.83744e-05 -2.62941e-06 0)
(4.05315e-05 -2.62578e-06 0)
(4.26873e-05 -2.61845e-06 0)
(4.48392e-05 -2.60785e-06 0)
(4.69852e-05 -2.59399e-06 0)
(4.91205e-05 -2.57733e-06 0)
(5.12418e-05 -2.55821e-06 0)
(5.3347e-05 -2.53524e-06 0)
(5.54324e-05 -2.50832e-06 0)
(5.74946e-05 -2.47917e-06 0)
(5.95319e-05 -2.44791e-06 0)
(6.15426e-05 -2.41376e-06 0)
(6.35233e-05 -2.37705e-06 0)
(6.54709e-05 -2.33836e-06 0)
(6.73842e-05 -2.29674e-06 0)
(6.92622e-05 -2.25158e-06 0)
(7.11018e-05 -2.2042e-06 0)
(7.29007e-05 -2.15531e-06 0)
(7.46577e-05 -2.10488e-06 0)
(7.63718e-05 -2.05291e-06 0)
(7.80409e-05 -1.9999e-06 0)
(7.96632e-05 -1.94577e-06 0)
(8.12376e-05 -1.89039e-06 0)
(8.27632e-05 -1.83303e-06 0)
(8.42388e-05 -1.77287e-06 0)
(8.56631e-05 -1.71068e-06 0)
(8.70348e-05 -1.64719e-06 0)
(8.83529e-05 -1.58213e-06 0)
(8.96168e-05 -1.51536e-06 0)
(9.08254e-05 -1.44694e-06 0)
(9.1977e-05 -1.37689e-06 0)
(9.30711e-05 -1.30516e-06 0)
(9.41075e-05 -1.23175e-06 0)
(9.50858e-05 -1.1573e-06 0)
(9.60054e-05 -1.08272e-06 0)
(9.68656e-05 -1.0088e-06 0)
(9.76657e-05 -9.3576e-07 0)
(9.84055e-05 -8.63132e-07 0)
(9.90852e-05 -7.90089e-07 0)
(9.97043e-05 -7.16115e-07 0)
(0.000100262 -6.41161e-07 0)
(0.000100758 -5.65212e-07 0)
(0.000101192 -4.8801e-07 0)
(0.000101565 -4.09195e-07 0)
(0.000101876 -3.28899e-07 0)
(0.000102125 -2.47991e-07 0)
(0.000102312 -1.67702e-07 0)
(0.000102436 -8.88205e-08 0)
(0.000102498 -1.16424e-08 0)
(0.000102498 6.37228e-08 0)
(0.000102436 1.37281e-07 0)
(0.000102313 2.09396e-07 0)
(0.000102127 2.811e-07 0)
(0.000101879 3.53518e-07 0)
(0.000101571 4.27089e-07 0)
(0.000101202 5.01577e-07 0)
(0.000100772 5.76578e-07 0)
(0.00010028 6.51736e-07 0)
(9.97284e-05 7.26568e-07 0)
(9.91163e-05 8.00671e-07 0)
(9.84437e-05 8.73898e-07 0)
(9.77108e-05 9.4627e-07 0)
(9.6918e-05 1.01801e-06 0)
(9.60658e-05 1.08938e-06 0)
(9.51549e-05 1.16066e-06 0)
(9.4186e-05 1.23193e-06 0)
(9.31599e-05 1.30263e-06 0)
(9.20765e-05 1.37175e-06 0)
(9.09361e-05 1.43859e-06 0)
(8.974e-05 1.50309e-06 0)
(8.84896e-05 1.56576e-06 0)
(8.71857e-05 1.62704e-06 0)
(8.58284e-05 1.68715e-06 0)
(8.44178e-05 1.74656e-06 0)
(8.29551e-05 1.80607e-06 0)
(8.14417e-05 1.86649e-06 0)
(7.98788e-05 1.92814e-06 0)
(7.82675e-05 1.99047e-06 0)
(7.66085e-05 2.05252e-06 0)
(7.49032e-05 2.11328e-06 0)
(7.31525e-05 2.172e-06 0)
(7.13579e-05 2.22833e-06 0)
(6.95212e-05 2.28209e-06 0)
(6.76443e-05 2.33315e-06 0)
(6.57292e-05 2.38137e-06 0)
(6.3778e-05 2.4265e-06 0)
(6.17929e-05 2.46841e-06 0)
(5.97766e-05 2.50713e-06 0)
(5.77318e-05 2.54258e-06 0)
(5.56611e-05 2.57458e-06 0)
(5.35673e-05 2.60286e-06 0)
(5.14531e-05 2.62687e-06 0)
(4.93217e-05 2.64632e-06 0)
(4.71766e-05 2.66125e-06 0)
(4.50212e-05 2.67172e-06 0)
(4.28589e-05 2.67793e-06 0)
(4.06933e-05 2.68005e-06 0)
(3.8528e-05 2.67806e-06 0)
(3.63671e-05 2.67212e-06 0)
(3.42148e-05 2.66236e-06 0)
(3.2076e-05 2.64851e-06 0)
(2.99553e-05 2.62993e-06 0)
(2.78578e-05 2.60556e-06 0)
(2.57886e-05 2.57393e-06 0)
(2.37533e-05 2.53363e-06 0)
(2.1758e-05 2.48357e-06 0)
(1.98086e-05 2.42294e-06 0)
(1.79114e-05 2.3515e-06 0)
(1.60727e-05 2.26975e-06 0)
(1.42992e-05 2.17847e-06 0)
(1.25976e-05 2.07839e-06 0)
(1.09747e-05 1.97001e-06 0)
(9.43722e-06 1.85346e-06 0)
(7.99167e-06 1.72905e-06 0)
(6.64448e-06 1.59735e-06 0)
(5.40224e-06 1.45867e-06 0)
(4.27085e-06 1.31309e-06 0)
(3.2559e-06 1.1603e-06 0)
(2.36292e-06 1.00009e-06 0)
(1.5965e-06 8.32889e-07 0)
(9.60467e-07 6.59617e-07 0)
(4.56379e-07 4.82275e-07 0)
(8.27433e-08 3.04344e-07 0)
(-1.64244e-07 1.31115e-07 0)
(-2.92819e-07 -2.90225e-08 0)
(-3.16013e-07 -1.64482e-07 0)
(-2.54749e-07 -2.60149e-07 0)
(-1.41173e-07 -2.88555e-07 0)
(-3.80525e-08 -1.69207e-07 0)
(-3.12998e-07 1.51621e-06 0)
(-6.37505e-07 -9.76478e-10 0)
(-1.00647e-06 -6.65308e-07 0)
(-1.01555e-06 -8.71644e-07 0)
(-8.04689e-07 -9.18344e-07 0)
(-4.1819e-07 -9.33981e-07 0)
(1.37034e-07 -9.73102e-07 0)
(8.38657e-07 -1.06873e-06 0)
(1.68652e-06 -1.23051e-06 0)
(2.67947e-06 -1.45084e-06 0)
(3.80229e-06 -1.71262e-06 0)
(5.07395e-06 -2.01419e-06 0)
(6.47938e-06 -2.32614e-06 0)
(8.01555e-06 -2.64718e-06 0)
(9.69022e-06 -2.96127e-06 0)
(1.14963e-05 -3.26083e-06 0)
(1.34272e-05 -3.53992e-06 0)
(1.54818e-05 -3.79872e-06 0)
(1.76511e-05 -4.02937e-06 0)
(1.99236e-05 -4.23839e-06 0)
(2.22993e-05 -4.42088e-06 0)
(2.47631e-05 -4.57859e-06 0)
(2.73127e-05 -4.71405e-06 0)
(2.99326e-05 -4.82761e-06 0)
(3.2618e-05 -4.9216e-06 0)
(3.53645e-05 -4.99936e-06 0)
(3.81563e-05 -5.0612e-06 0)
(4.0993e-05 -5.10955e-06 0)
(4.38627e-05 -5.14543e-06 0)
(4.67593e-05 -5.17142e-06 0)
(4.96776e-05 -5.18823e-06 0)
(5.26104e-05 -5.19719e-06 0)
(5.55517e-05 -5.19894e-06 0)
(5.8495e-05 -5.19245e-06 0)
(6.14342e-05 -5.17641e-06 0)
(6.43644e-05 -5.15225e-06 0)
(6.72808e-05 -5.12123e-06 0)
(7.01801e-05 -5.08277e-06 0)
(7.30589e-05 -5.03778e-06 0)
(7.59115e-05 -4.9869e-06 0)
(7.87335e-05 -4.93041e-06 0)
(8.1522e-05 -4.86743e-06 0)
(8.42727e-05 -4.79832e-06 0)
(8.69819e-05 -4.72468e-06 0)
(8.96466e-05 -4.64592e-06 0)
(9.22648e-05 -4.5612e-06 0)
(9.48334e-05 -4.47129e-06 0)
(9.73493e-05 -4.37717e-06 0)
(9.98102e-05 -4.27939e-06 0)
(0.000102214 -4.17773e-06 0)
(0.000104557 -4.07243e-06 0)
(0.000106839 -3.96438e-06 0)
(0.000109056 -3.85361e-06 0)
(0.000111207 -3.73963e-06 0)
(0.000113291 -3.6223e-06 0)
(0.000115305 -3.50121e-06 0)
(0.000117249 -3.37703e-06 0)
(0.00011912 -3.2501e-06 0)
(0.000120919 -3.12022e-06 0)
(0.000122643 -2.98758e-06 0)
(0.000124291 -2.85261e-06 0)
(0.000125862 -2.71523e-06 0)
(0.000127356 -2.5752e-06 0)
(0.000128771 -2.43278e-06 0)
(0.000130107 -2.2889e-06 0)
(0.000131364 -2.14431e-06 0)
(0.00013254 -1.99955e-06 0)
(0.000133634 -1.85498e-06 0)
(0.000134647 -1.71014e-06 0)
(0.000135576 -1.56438e-06 0)
(0.000136423 -1.41778e-06 0)
(0.000137187 -1.27045e-06 0)
(0.000137867 -1.12176e-06 0)
(0.000138463 -9.71142e-07 0)
(0.000138976 -8.18708e-07 0)
(0.000139405 -6.65088e-07 0)
(0.00013975 -5.10986e-07 0)
(0.000140011 -3.57245e-07 0)
(0.000140187 -2.04546e-07 0)
(0.00014028 -5.33249e-08 0)
(0.000140289 9.60736e-08 0)
(0.000140212 2.43582e-07 0)
(0.000140049 3.89645e-07 0)
(0.000139802 5.35261e-07 0)
(0.000139471 6.81417e-07 0)
(0.000139055 8.28398e-07 0)
(0.000138554 9.75907e-07 0)
(0.000137971 1.12354e-06 0)
(0.000137304 1.27106e-06 0)
(0.000136554 1.41808e-06 0)
(0.000135722 1.56417e-06 0)
(0.000134807 1.70916e-06 0)
(0.00013381 1.85302e-06 0)
(0.00013273 1.99583e-06 0)
(0.000131569 2.13787e-06 0)
(0.000130328 2.27924e-06 0)
(0.000129008 2.41973e-06 0)
(0.000127609 2.55866e-06 0)
(0.000126131 2.69517e-06 0)
(0.000124575 2.82899e-06 0)
(0.000122943 2.9602e-06 0)
(0.000121235 3.08891e-06 0)
(0.000119453 3.21511e-06 0)
(0.000117596 3.33892e-06 0)
(0.000115666 3.46092e-06 0)
(0.000113664 3.58197e-06 0)
(0.000111592 3.70262e-06 0)
(0.000109453 3.82288e-06 0)
(0.000107248 3.94217e-06 0)
(0.000104979 4.05952e-06 0)
(0.000102648 4.17402e-06 0)
(0.000100256 4.28487e-06 0)
(9.78067e-05 4.39148e-06 0)
(9.53011e-05 4.4935e-06 0)
(9.27418e-05 4.59056e-06 0)
(9.01316e-05 4.68236e-06 0)
(8.74732e-05 4.76859e-06 0)
(8.47698e-05 4.84884e-06 0)
(8.20251e-05 4.92284e-06 0)
(7.92423e-05 4.99042e-06 0)
(7.6425e-05 5.05123e-06 0)
(7.35767e-05 5.10493e-06 0)
(7.07013e-05 5.15099e-06 0)
(6.78032e-05 5.18882e-06 0)
(6.48869e-05 5.21818e-06 0)
(6.19569e-05 5.23899e-06 0)
(5.90181e-05 5.25115e-06 0)
(5.60753e-05 5.25459e-06 0)
(5.31337e-05 5.24916e-06 0)
(5.01991e-05 5.23469e-06 0)
(4.7278e-05 5.21098e-06 0)
(4.43767e-05 5.17756e-06 0)
(4.15019e-05 5.13339e-06 0)
(3.86605e-05 5.07708e-06 0)
(3.58595e-05 5.00713e-06 0)
(3.31062e-05 4.92203e-06 0)
(3.0408e-05 4.82053e-06 0)
(2.77723e-05 4.70173e-06 0)
(2.52065e-05 4.56508e-06 0)
(2.27185e-05 4.41073e-06 0)
(2.03167e-05 4.23928e-06 0)
(1.80097e-05 4.0512e-06 0)
(1.58061e-05 3.8469e-06 0)
(1.37147e-05 3.6267e-06 0)
(1.17441e-05 3.39098e-06 0)
(9.90285e-06 3.14048e-06 0)
(8.19932e-06 2.87559e-06 0)
(6.64123e-06 2.59663e-06 0)
(5.23577e-06 2.30408e-06 0)
(3.98975e-06 1.99863e-06 0)
(2.90834e-06 1.68221e-06 0)
(1.99504e-06 1.35758e-06 0)
(1.25086e-06 1.02877e-06 0)
(6.7303e-07 7.02568e-07 0)
(2.56019e-07 3.88416e-07 0)
(-1.01457e-08 9.98592e-08 0)
(-1.41081e-07 -1.44561e-07 0)
(-1.60682e-07 -3.21346e-07 0)
(-1.03268e-07 -3.90514e-07 0)
(-2.94524e-08 -2.41067e-07 0)
(-1.69568e-07 1.63333e-06 0)
(-3.68048e-07 4.34356e-07 0)
(-6.75269e-07 -4.5303e-07 0)
(-6.74316e-07 -9.12172e-07 0)
(-4.2109e-07 -1.20443e-06 0)
(6.65238e-08 -1.43445e-06 0)
(7.70417e-07 -1.67348e-06 0)
(1.67877e-06 -1.95861e-06 0)
(2.77664e-06 -2.28378e-06 0)
(4.05969e-06 -2.66869e-06 0)
(5.52754e-06 -3.09474e-06 0)
(7.16065e-06 -3.54276e-06 0)
(8.96565e-06 -4.0139e-06 0)
(1.09381e-05 -4.48061e-06 0)
(1.30663e-05 -4.93915e-06 0)
(1.53498e-05 -5.37708e-06 0)
(1.77841e-05 -5.79549e-06 0)
(2.0362e-05 -6.1786e-06 0)
(2.30761e-05 -6.53323e-06 0)
(2.59159e-05 -6.85385e-06 0)
(2.8878e-05 -7.13868e-06 0)
(3.19506e-05 -7.3969e-06 0)
(3.51204e-05 -7.6154e-06 0)
(3.83848e-05 -7.81379e-06 0)
(4.17306e-05 -7.97329e-06 0)
(4.51453e-05 -8.11474e-06 0)
(4.8626e-05 -8.22876e-06 0)
(5.21606e-05 -8.32165e-06 0)
(5.57388e-05 -8.39562e-06 0)
(5.93533e-05 -8.4494e-06 0)
(6.29947e-05 -8.48616e-06 0)
(6.66549e-05 -8.5077e-06 0)
(7.03275e-05 -8.51493e-06 0)
(7.40056e-05 -8.50844e-06 0)
(7.76808e-05 -8.48847e-06 0)
(8.13456e-05 -8.45509e-06 0)
(8.49946e-05 -8.40793e-06 0)
(8.86226e-05 -8.34709e-06 0)
(9.22237e-05 -8.27462e-06 0)
(9.57924e-05 -8.1922e-06 0)
(9.93244e-05 -8.09918e-06 0)
(0.000102815 -7.99595e-06 0)
(0.000106259 -7.88347e-06 0)
(0.00010965 -7.76228e-06 0)
(0.000112987 -7.63165e-06 0)
(0.000116266 -7.49196e-06 0)
(0.000119482 -7.34452e-06 0)
(0.000122631 -7.18972e-06 0)
(0.000125712 -7.02803e-06 0)
(0.000128722 -6.85986e-06 0)
(0.000131656 -6.686e-06 0)
(0.000134513 -6.50685e-06 0)
(0.000137288 -6.32254e-06 0)
(0.000139982 -6.13278e-06 0)
(0.000142591 -5.93755e-06 0)
(0.000145113 -5.73762e-06 0)
(0.000147545 -5.53319e-06 0)
(0.000149888 -5.32392e-06 0)
(0.00015214 -5.11019e-06 0)
(0.000154298 -4.89266e-06 0)
(0.000156361 -4.67153e-06 0)
(0.000158329 -4.44704e-06 0)
(0.000160199 -4.21919e-06 0)
(0.000161971 -3.98802e-06 0)
(0.000163645 -3.75428e-06 0)
(0.000165219 -3.51924e-06 0)
(0.000166692 -3.28344e-06 0)
(0.000168064 -3.04663e-06 0)
(0.000169333 -2.80852e-06 0)
(0.000170499 -2.56919e-06 0)
(0.000171561 -2.32882e-06 0)
(0.000172518 -2.08721e-06 0)
(0.000173371 -1.84397e-06 0)
(0.000174121 -1.59893e-06 0)
(0.000174765 -1.35216e-06 0)
(0.000175304 -1.10402e-06 0)
(0.000175738 -8.55262e-07 0)
(0.000176068 -6.06739e-07 0)
(0.000176292 -3.58971e-07 0)
(0.000176411 -1.12224e-07 0)
(0.000176424 1.33055e-07 0)
(0.00017633 3.76605e-07 0)
(0.00017613 6.18832e-07 0)
(0.000175823 8.60589e-07 0)
(0.00017541 1.10249e-06 0)
(0.000174891 1.3446e-06 0)
(0.000174266 1.58677e-06 0)
(0.000173537 1.82883e-06 0)
(0.000172702 2.07053e-06 0)
(0.000171765 2.3115e-06 0)
(0.000170723 2.5512e-06 0)
(0.000169578 2.78926e-06 0)
(0.000168329 3.02563e-06 0)
(0.000166978 3.26046e-06 0)
(0.000165525 3.49406e-06 0)
(0.000163971 3.7264e-06 0)
(0.000162316 3.95687e-06 0)
(0.000160563 4.18468e-06 0)
(0.000158711 4.40922e-06 0)
(0.000156762 4.63039e-06 0)
(0.000154717 4.84829e-06 0)
(0.000152576 5.06267e-06 0)
(0.000150341 5.27331e-06 0)
(0.000148013 5.48028e-06 0)
(0.000145593 5.68396e-06 0)
(0.000143084 5.88494e-06 0)
(0.000140487 6.08342e-06 0)
(0.000137806 6.27921e-06 0)
(0.000135042 6.47177e-06 0)
(0.000132198 6.66018e-06 0)
(0.000129277 6.84352e-06 0)
(0.000126281 7.02098e-06 0)
(0.000123213 7.19175e-06 0)
(0.000120076 7.35521e-06 0)
(0.000116872 7.51074e-06 0)
(0.000113606 7.65779e-06 0)
(0.00011028 7.79601e-06 0)
(0.000106898 7.9249e-06 0)
(0.000103465 8.04382e-06 0)
(9.9985e-05 8.15232e-06 0)
(9.64624e-05 8.24983e-06 0)
(9.29018e-05 8.3357e-06 0)
(8.93079e-05 8.40934e-06 0)
(8.56861e-05 8.47006e-06 0)
(8.20421e-05 8.5173e-06 0)
(7.83816e-05 8.55072e-06 0)
(7.47106e-05 8.56991e-06 0)
(7.10353e-05 8.57432e-06 0)
(6.73622e-05 8.56347e-06 0)
(6.36988e-05 8.53691e-06 0)
(6.0053e-05 8.49406e-06 0)
(5.64326e-05 8.43414e-06 0)
(5.28458e-05 8.35588e-06 0)
(4.9301e-05 8.25759e-06 0)
(4.58069e-05 8.13764e-06 0)
(4.23724e-05 7.99451e-06 0)
(3.90064e-05 7.82682e-06 0)
(3.57177e-05 7.6335e-06 0)
(3.25152e-05 7.41387e-06 0)
(2.94086e-05 7.16768e-06 0)
(2.64076e-05 6.89511e-06 0)
(2.35224e-05 6.5964e-06 0)
(2.07634e-05 6.27188e-06 0)
(1.81408e-05 5.92194e-06 0)
(1.56651e-05 5.5471e-06 0)
(1.33463e-05 5.1482e-06 0)
(1.1194e-05 4.72588e-06 0)
(9.2172e-06 4.28105e-06 0)
(7.42417e-06 3.81535e-06 0)
(5.82266e-06 3.33084e-06 0)
(4.41834e-06 2.83103e-06 0)
(3.21432e-06 2.32094e-06 0)
(2.21142e-06 1.80729e-06 0)
(1.40656e-06 1.30026e-06 0)
(7.93452e-07 8.13961e-07 0)
(3.61585e-07 3.67287e-07 0)
(9.46871e-08 -1.45742e-08 0)
(-3.21625e-08 -2.99713e-07 0)
(-5.22515e-08 -4.36234e-07 0)
(-1.87228e-08 -2.88142e-07 0)
(-7.68729e-08 1.6925e-06 0)
(-1.36589e-07 6.95282e-07 0)
(-2.92108e-07 -3.5408e-07 0)
(-1.88109e-07 -1.06722e-06 0)
(1.87696e-07 -1.60712e-06 0)
(8.24216e-07 -2.08715e-06 0)
(1.70711e-06 -2.56499e-06 0)
(2.83818e-06 -3.0671e-06 0)
(4.1967e-06 -3.61494e-06 0)
(5.76763e-06 -4.19704e-06 0)
(7.55717e-06 -4.81361e-06 0)
(9.5538e-06 -5.45355e-06 0)
(1.17448e-05 -6.10182e-06 0)
(1.41292e-05 -6.74572e-06 0)
(1.66994e-05 -7.37524e-06 0)
(1.94447e-05 -7.98034e-06 0)
(2.23637e-05 -8.55214e-06 0)
(2.54515e-05 -9.08827e-06 0)
(2.86903e-05 -9.5856e-06 0)
(3.20781e-05 -1.00374e-05 0)
(3.56e-05 -1.04482e-05 0)
(3.9252e-05 -1.08164e-05 0)
(4.30206e-05 -1.11439e-05 0)
(4.68944e-05 -1.14295e-05 0)
(5.08655e-05 -1.16799e-05 0)
(5.49178e-05 -1.18916e-05 0)
(5.90471e-05 -1.20692e-05 0)
(6.32384e-05 -1.22171e-05 0)
(6.7484e-05 -1.23349e-05 0)
(7.17735e-05 -1.24251e-05 0)
(7.60947e-05 -1.24896e-05 0)
(8.04391e-05 -1.25288e-05 0)
(8.47984e-05 -1.2544e-05 0)
(8.91637e-05 -1.25375e-05 0)
(9.35262e-05 -1.25106e-05 0)
(9.78788e-05 -1.24639e-05 0)
(0.000102214 -1.23972e-05 0)
(0.000106525 -1.23114e-05 0)
(0.000110803 -1.22079e-05 0)
(0.000115044 -1.20873e-05 0)
(0.000119241 -1.19502e-05 0)
(0.000123389 -1.17984e-05 0)
(0.000127481 -1.16328e-05 0)
(0.000131513 -1.14532e-05 0)
(0.000135481 -1.126e-05 0)
(0.000139378 -1.10542e-05 0)
(0.000143201 -1.08368e-05 0)
(0.000146946 -1.06085e-05 0)
(0.00015061 -1.03692e-05 0)
(0.000154188 -1.01202e-05 0)
(0.000157676 -9.86266e-06 0)
(0.000161073 -9.59699e-06 0)
(0.000164374 -9.32322e-06 0)
(0.000167578 -9.04146e-06 0)
(0.00017068 -8.75207e-06 0)
(0.00017368 -8.45614e-06 0)
(0.000176574 -8.15373e-06 0)
(0.000179361 -7.84466e-06 0)
(0.000182039 -7.52938e-06 0)
(0.000184607 -7.20877e-06 0)
(0.000187062 -6.88335e-06 0)
(0.000189402 -6.55304e-06 0)
(0.000191628 -6.21807e-06 0)
(0.000193737 -5.8791e-06 0)
(0.000195729 -5.53668e-06 0)
(0.000197602 -5.19159e-06 0)
(0.000199355 -4.84456e-06 0)
(0.000200988 -4.49568e-06 0)
(0.000202499 -4.14485e-06 0)
(0.000203887 -3.79219e-06 0)
(0.000205151 -3.43788e-06 0)
(0.000206292 -3.08183e-06 0)
(0.000207309 -2.72378e-06 0)
(0.000208201 -2.36377e-06 0)
(0.000208969 -2.00208e-06 0)
(0.000209612 -1.63905e-06 0)
(0.00021013 -1.27524e-06 0)
(0.000210522 -9.11254e-07 0)
(0.00021079 -5.4755e-07 0)
(0.000210932 -1.84584e-07 0)
(0.000210947 1.77066e-07 0)
(0.000210836 5.37266e-07 0)
(0.000210598 8.96527e-07 0)
(0.000210234 1.25538e-06 0)
(0.000209743 1.61393e-06 0)
(0.000209126 1.97193e-06 0)
(0.000208382 2.32941e-06 0)
(0.000207514 2.68651e-06 0)
(0.000206522 3.04298e-06 0)
(0.000205405 3.3983e-06 0)
(0.000204165 3.75193e-06 0)
(0.0002028 4.10348e-06 0)
(0.000201313 4.45283e-06 0)
(0.000199704 4.79997e-06 0)
(0.000197974 5.14497e-06 0)
(0.000196124 5.48768e-06 0)
(0.000194154 5.8275e-06 0)
(0.000192065 6.16374e-06 0)
(0.000189859 6.49592e-06 0)
(0.000187538 6.82378e-06 0)
(0.000185102 7.14713e-06 0)
(0.000182552 7.46561e-06 0)
(0.00017989 7.77886e-06 0)
(0.000177118 8.08688e-06 0)
(0.000174236 8.38978e-06 0)
(0.000171248 8.68777e-06 0)
(0.000168157 8.98081e-06 0)
(0.000164965 9.26845e-06 0)
(0.000161675 9.55001e-06 0)
(0.00015829 9.8246e-06 0)
(0.000154813 1.00913e-05 0)
(0.000151247 1.03492e-05 0)
(0.000147596 1.05975e-05 0)
(0.000143862 1.08352e-05 0)
(0.000140051 1.10613e-05 0)
(0.000136164 1.12751e-05 0)
(0.000132208 1.14759e-05 0)
(0.000128186 1.16632e-05 0)
(0.000124104 1.1836e-05 0)
(0.000119966 1.19937e-05 0)
(0.000115778 1.21353e-05 0)
(0.000111545 1.22599e-05 0)
(0.000107273 1.23666e-05 0)
(0.000102969 1.24546e-05 0)
(9.86386e-05 1.2523e-05 0)
(9.42893e-05 1.25711e-05 0)
(8.99279e-05 1.25982e-05 0)
(8.55618e-05 1.26032e-05 0)
(8.1199e-05 1.25852e-05 0)
(7.68482e-05 1.25435e-05 0)
(7.25186e-05 1.24771e-05 0)
(6.82194e-05 1.23848e-05 0)
(6.39598e-05 1.2265e-05 0)
(5.97497e-05 1.21159e-05 0)
(5.55992e-05 1.19357e-05 0)
(5.15187e-05 1.17229e-05 0)
(4.75185e-05 1.14758e-05 0)
(4.3609e-05 1.11933e-05 0)
(3.98005e-05 1.08743e-05 0)
(3.6104e-05 1.05183e-05 0)
(3.25309e-05 1.01252e-05 0)
(2.90927e-05 9.69507e-06 0)
(2.58011e-05 9.22809e-06 0)
(2.26677e-05 8.72483e-06 0)
(1.97044e-05 8.18579e-06 0)
(1.69222e-05 7.61198e-06 0)
(1.43316e-05 7.00471e-06 0)
(1.19428e-05 6.36561e-06 0)
(9.76502e-06 5.69764e-06 0)
(7.8063e-06 5.00456e-06 0)
(6.07282e-06 4.29148e-06 0)
(4.56776e-06 3.56583e-06 0)
(3.29192e-06 2.83738e-06 0)
(2.24266e-06 2.11989e-06 0)
(1.41392e-06 1.43196e-06 0)
(7.95543e-07 7.97783e-07 0)
(3.71832e-07 2.48829e-07 0)
(1.18467e-07 -1.75211e-07 0)
(6.11666e-09 -4.11739e-07 0)
(-7.47619e-09 -3.05523e-07 0)
(-1.85107e-08 1.66299e-06 0)
(4.2293e-08 7.77599e-07 0)
(6.45499e-08 -4.22464e-07 0)
(3.335e-07 -1.37665e-06 0)
(8.76599e-07 -2.18117e-06 0)
(1.69537e-06 -2.93181e-06 0)
(2.79788e-06 -3.66826e-06 0)
(4.16523e-06 -4.42838e-06 0)
(5.78995e-06 -5.21659e-06 0)
(7.66812e-06 -6.03511e-06 0)
(9.78538e-06 -6.87516e-06 0)
(1.2129e-05 -7.73137e-06 0)
(1.47027e-05 -8.58578e-06 0)
(1.74947e-05 -9.43365e-06 0)
(2.04907e-05 -1.02559e-05 0)
(2.36897e-05 -1.10472e-05 0)
(2.70809e-05 -1.17971e-05 0)
(3.06529e-05 -1.25042e-05 0)
(3.44035e-05 -1.3162e-05 0)
(3.83153e-05 -1.37642e-05 0)
(4.23797e-05 -1.43199e-05 0)
(4.65875e-05 -1.48117e-05 0)
(5.09239e-05 -1.52619e-05 0)
(5.53804e-05 -1.56519e-05 0)
(5.99445e-05 -1.59996e-05 0)
(6.46037e-05 -1.62953e-05 0)
(6.9345e-05 -1.65475e-05 0)
(7.41584e-05 -1.67569e-05 0)
(7.90327e-05 -1.69249e-05 0)
(8.39556e-05 -1.70562e-05 0)
(8.89167e-05 -1.71516e-05 0)
(9.39053e-05 -1.72123e-05 0)
(9.89103e-05 -1.72398e-05 0)
(0.000103922 -1.72358e-05 0)
(0.000108931 -1.7202e-05 0)
(0.000113929 -1.71393e-05 0)
(0.000118907 -1.70494e-05 0)
(0.000123857 -1.69341e-05 0)
(0.000128771 -1.67941e-05 0)
(0.000133643 -1.66298e-05 0)
(0.000138464 -1.64426e-05 0)
(0.000143229 -1.62347e-05 0)
(0.00014793 -1.60071e-05 0)
(0.000152563 -1.57596e-05 0)
(0.000157121 -1.54937e-05 0)
(0.0001616 -1.52109e-05 0)
(0.000165993 -1.49118e-05 0)
(0.000170297 -1.45974e-05 0)
(0.000174508 -1.42683e-05 0)
(0.00017862 -1.39256e-05 0)
(0.00018263 -1.35706e-05 0)
(0.000186534 -1.32042e-05 0)
(0.000190329 -1.28261e-05 0)
(0.000194012 -1.24371e-05 0)
(0.00019758 -1.20386e-05 0)
(0.000201028 -1.16308e-05 0)
(0.000204356 -1.12135e-05 0)
(0.000207562 -1.0788e-05 0)
(0.000210642 -1.03547e-05 0)
(0.000213595 -9.91399e-06 0)
(0.000216418 -9.46657e-06 0)
(0.000219111 -9.01292e-06 0)
(0.000221672 -8.55325e-06 0)
(0.000224098 -8.08818e-06 0)
(0.000226389 -7.6187e-06 0)
(0.000228544 -7.14548e-06 0)
(0.000230561 -6.66873e-06 0)
(0.000232439 -6.18878e-06 0)
(0.000234178 -5.70621e-06 0)
(0.000235776 -5.22141e-06 0)
(0.000237231 -4.73426e-06 0)
(0.000238544 -4.24464e-06 0)