/*--------------------------------*- C++ -*----------------------------------*\
  =========                 |
  \\      /  F ield         | OpenFOAM: The Open Source CFD Toolbox
   \\    /   O peration     | Website:  https://openfoam.org
    \\  /    A nd           | Version:  7
     \\/     M anipulation  |
\*---------------------------------------------------------------------------*/
FoamFile
{
    version     2.0;
    format      ascii;
    class       surfaceScalarField;
    location    "0.4125";
    object      phi;
}
// * * * * * * * * * * * * * * * * * * * * * * * * * * * * * * * * * * * * * //

dimensions      [0 3 -1 0 0 0 0];

internalField   nonuniform List<scalar> 
101920
(
-6.65653e-14
1.6392e-13
-6.04653e-13
5.37817e-13
-6.7926e-13
7.32986e-14
-5.38754e-13
-1.40731e-13
-1.46767e-13
-3.91822e-13
4.46873e-13
-5.9297e-13
1.19686e-12
-7.5046e-13
2.0696e-12
-8.73296e-13
3.04152e-12
-9.70824e-13
4.08842e-12
-1.04673e-12
5.19334e-12
-1.10594e-12
6.34103e-12
-1.14757e-12
7.5158e-12
-1.17627e-12
8.70941e-12
-1.19229e-12
9.90997e-12
-1.19973e-12
1.11089e-11
-1.1986e-12
1.22981e-11
-1.18803e-12
1.34681e-11
-1.17001e-12
1.46142e-11
-1.14515e-12
1.57299e-11
-1.11575e-12
1.68112e-11
-1.081e-12
1.7854e-11
-1.0421e-12
1.88532e-11
-1.00072e-12
1.98076e-11
-9.54833e-13
2.07142e-11
-9.07018e-13
2.15709e-11
-8.58233e-13
2.23772e-11
-8.06211e-13
2.31304e-11
-7.54111e-13
2.38307e-11
-7.01746e-13
2.44784e-11
-6.47359e-13
2.50718e-11
-5.93783e-13
2.56118e-11
-5.41153e-13
2.60993e-11
-4.87685e-13
2.65335e-11
-4.3477e-13
2.69168e-11
-3.83306e-13
2.72508e-11
-3.32906e-13
2.75357e-11
-2.84082e-13
2.77734e-11
-2.37113e-13
2.79663e-11
-1.91961e-13
2.81158e-11
-1.49152e-13
2.82234e-11
-1.08039e-13
2.8292e-11
-6.81246e-14
2.83233e-11
-3.10721e-14
2.83194e-11
2.56549e-15
2.82833e-11
3.47694e-14
2.82175e-11
6.57635e-14
2.81234e-11
9.35494e-14
2.80052e-11
1.18684e-13
2.78644e-11
1.41599e-13
2.77025e-11
1.62057e-13
2.75225e-11
1.79873e-13
2.73271e-11
1.95515e-13
2.71187e-11
2.09019e-13
2.6899e-11
2.19826e-13
2.66706e-11
2.28022e-13
2.64364e-11
2.33848e-13
2.61981e-11
2.37397e-13
2.59582e-11
2.39032e-13
2.57194e-11
2.38959e-13
2.54831e-11
2.36457e-13
2.52508e-11
2.31098e-13
2.5025e-11
2.24139e-13
2.48077e-11
2.16858e-13
2.46003e-11
2.08398e-13
2.44042e-11
1.97313e-13
2.42216e-11
1.83777e-13
2.4054e-11
1.68577e-13
2.39016e-11
1.52067e-13
2.37651e-11
1.3476e-13
2.3647e-11
1.17207e-13
2.35483e-11
9.89369e-14
2.34694e-11
7.91062e-14
2.34108e-11
5.80583e-14
2.33732e-11
3.68577e-14
2.33568e-11
1.54967e-14
2.33619e-11
-6.56521e-15
2.33896e-11
-2.8706e-14
2.344e-11
-5.01333e-14
2.35126e-11
-7.14255e-14
2.3607e-11
-9.35184e-14
2.37238e-11
-1.16144e-13
2.38627e-11
-1.38206e-13
2.40228e-11
-1.59412e-13
2.42029e-11
-1.80185e-13
2.44026e-11
-2.00289e-13
2.46215e-11
-2.19235e-13
2.48586e-11
-2.37028e-13
2.51125e-11
-2.53863e-13
2.53824e-11
-2.69673e-13
2.56667e-11
-2.84067e-13
2.59646e-11
-2.97099e-13
2.62745e-11
-3.09193e-13
2.65946e-11
-3.1995e-13
2.69235e-11
-3.28697e-13
2.72589e-11
-3.35316e-13
2.75985e-11
-3.39983e-13
2.79411e-11
-3.4297e-13
2.82847e-11
-3.43886e-13
2.86273e-11
-3.42325e-13
2.89667e-11
-3.38865e-13
2.93004e-11
-3.33737e-13
2.9627e-11
-3.26649e-13
2.9944e-11
-3.17342e-13
3.02483e-11
-3.05387e-13
3.0538e-11
-2.90779e-13
3.08107e-11
-2.73663e-13
3.10644e-11
-2.53916e-13
3.12972e-11
-2.32045e-13
3.15063e-11
-2.08609e-13
3.1689e-11
-1.8302e-13
3.18436e-11
-1.54694e-13
3.19672e-11
-1.23647e-13
3.20573e-11
-9.01439e-14
3.21126e-11
-5.50899e-14
3.21303e-11
-1.8497e-14
3.21083e-11
2.08177e-14
3.20455e-11
6.27138e-14
3.1939e-11
1.06424e-13
3.17868e-11
1.51924e-13
3.1588e-11
1.99023e-13
3.13404e-11
2.47615e-13
3.10427e-11
2.97923e-13
3.06939e-11
3.49548e-13
3.02918e-11
4.02035e-13
2.98353e-11
4.55762e-13
2.93247e-11
5.10648e-13
2.87593e-11
5.6582e-13
2.81378e-11
6.21143e-13
2.74612e-11
6.76513e-13
2.673e-11
7.31346e-13
2.59438e-11
7.85947e-13
2.51037e-11
8.40413e-13
2.42107e-11
8.93456e-13
2.32663e-11
9.4424e-13
2.22731e-11
9.93009e-13
2.12335e-11
1.03974e-12
2.01492e-11
1.08392e-12
1.90238e-11
1.125e-12
1.78623e-11
1.16211e-12
1.66687e-11
1.1944e-12
1.54473e-11
1.22156e-12
1.42048e-11
1.24297e-12
1.29475e-11
1.25746e-12
1.16819e-11
1.26451e-12
1.04172e-11
1.26395e-12
9.16301e-12
1.2545e-12
7.92872e-12
1.23436e-12
6.72524e-12
1.20271e-12
5.56633e-12
1.15871e-12
4.4661e-12
1.1006e-12
3.43869e-12
1.02717e-12
2.50103e-12
9.37665e-13
1.67194e-12
8.30135e-13
9.69806e-13
7.02483e-13
4.1367e-13
5.54731e-13
2.22662e-14
3.89626e-13
-1.91909e-13
2.13969e-13
-2.31307e-13
4.28168e-14
-1.28788e-13
-9.36887e-14
-1.19518e-13
4.00591e-13
-2.36325e-13
5.18397e-13
4.1887e-13
7.13161e-13
-1.2066e-13
1.38883e-12
-8.16826e-13
2.51682e-12
-1.52064e-12
4.07481e-12
-2.15052e-12
6.01088e-12
-2.68705e-12
8.27011e-12
-3.13302e-12
1.07969e-11
-3.49747e-12
1.35406e-11
-3.79022e-12
1.64565e-11
-4.01834e-12
1.94992e-11
-4.1913e-12
2.26362e-11
-4.31237e-12
2.58306e-11
-4.38924e-12
2.90545e-11
-4.42643e-12
3.22838e-11
-4.42648e-12
3.549e-11
-4.39549e-12
3.86542e-11
-4.33499e-12
4.17572e-11
-4.24988e-12
4.47829e-11
-4.14206e-12
4.77184e-11
-4.0142e-12
5.05478e-11
-3.87206e-12
5.32629e-11
-3.71433e-12
5.58543e-11
-3.54491e-12
5.83136e-11
-3.3667e-12
6.06367e-11
-3.1789e-12
6.2817e-11
-2.98564e-12
6.48513e-11
-2.78885e-12
6.67385e-11
-2.58712e-12
6.8475e-11
-2.38357e-12
7.00616e-11
-2.18035e-12
7.14996e-11
-1.97737e-12
7.27882e-11
-1.7763e-12
7.39302e-11
-1.57814e-12
7.49296e-11
-1.38348e-12
7.57884e-11
-1.19372e-12
7.65105e-11
-1.00874e-12
7.71019e-11
-8.28973e-13
7.75657e-11
-6.56772e-13
7.7907e-11
-4.92297e-13
7.81328e-11
-3.3409e-13
7.82482e-11
-1.83408e-13
7.82592e-11
-4.24413e-14
7.81731e-11
8.98072e-14
7.79962e-11
2.13389e-13
7.77337e-11
3.27435e-13
7.73934e-11
4.32068e-13
7.69834e-11
5.28124e-13
7.65098e-11
6.14949e-13
7.59791e-11
6.91895e-13
7.53994e-11
7.59288e-13
7.4777e-11
8.17327e-13
7.41185e-11
8.66232e-13
7.34317e-11
9.06423e-13
7.27235e-11
9.37542e-13
7.2e-11
9.58546e-13
7.12668e-11
9.70157e-13
7.05309e-11
9.74384e-13
6.97992e-11
9.71331e-13
6.90768e-11
9.59542e-13
6.83694e-11
9.39007e-13
6.76831e-11
9.11244e-13
6.7022e-11
8.77093e-13
6.63906e-11
8.36519e-13
6.57949e-11
7.8994e-13
6.52395e-11
7.38011e-13
6.4728e-11
6.80388e-13
6.42639e-11
6.1685e-13
6.38507e-11
5.48514e-13
6.34911e-11
4.76445e-13
6.31872e-11
4.00812e-13
6.29421e-11
3.22187e-13
6.2759e-11
2.41428e-13
6.26392e-11
1.58374e-13
6.2583e-11
7.24793e-14
6.25915e-11
-1.55355e-14
6.26663e-11
-1.04068e-13
6.28077e-11
-1.92348e-13
6.30151e-11
-2.80519e-13
6.32883e-11
-3.68386e-13
6.36275e-11
-4.55318e-13
6.40312e-11
-5.40775e-13
6.44976e-11
-6.24396e-13
6.50252e-11
-7.06012e-13
6.56118e-11
-7.85184e-13
6.62554e-11
-8.61287e-13
6.69525e-11
-9.33869e-13
6.77003e-11
-1.00224e-12
6.8496e-11
-1.06573e-12
6.93359e-11
-1.12413e-12
7.02155e-11
-1.17728e-12
7.11306e-11
-1.22496e-12
7.20767e-11
-1.26632e-12
7.305e-11
-1.30059e-12
7.4045e-11
-1.32817e-12
7.50552e-11
-1.34934e-12
7.60758e-11
-1.36344e-12
7.71012e-11
-1.36981e-12
7.81253e-11
-1.3678e-12
7.91423e-11
-1.35738e-12
8.01453e-11
-1.33863e-12
8.11289e-11
-1.31099e-12
8.20869e-11
-1.2746e-12
8.30115e-11
-1.22987e-12
8.38962e-11
-1.17624e-12
8.47347e-11
-1.11317e-12
8.55203e-11
-1.04053e-12
8.62464e-11
-9.58527e-13
8.69059e-11
-8.67968e-13
8.74913e-11
-7.68925e-13
8.79971e-11
-6.60493e-13
8.84163e-11
-5.42751e-13
8.87415e-11
-4.16272e-13
8.89673e-11
-2.81382e-13
8.90875e-11
-1.38686e-13
8.90951e-11
1.2114e-14
8.89854e-11
1.71547e-13
8.87525e-11
3.38724e-13
8.83909e-11
5.12777e-13
8.78963e-11
6.93651e-13
8.72636e-11
8.80794e-13
8.64882e-11
1.0734e-12
8.55667e-11
1.27114e-12
8.44964e-11
1.47327e-12
8.32738e-11
1.67881e-12
8.18969e-11
1.88744e-12
8.03646e-11
2.09822e-12
7.86754e-11
2.30966e-12
7.68296e-11
2.52129e-12
7.48288e-11
2.73238e-12
7.26739e-11
2.94122e-12
7.03675e-11
3.14671e-12
6.79133e-11
3.34783e-12
6.53154e-11
3.54256e-12
6.258e-11
3.72903e-12
5.97143e-11
3.9062e-12
5.67261e-11
4.0725e-12
5.36246e-11
4.22557e-12
5.04222e-11
4.36364e-12
4.71319e-11
4.48493e-12
4.37676e-11
4.5864e-12
4.03457e-11
4.66504e-12
3.68852e-11
4.71844e-12
3.34059e-11
4.74374e-12
2.99309e-11
4.73788e-12
2.64863e-11
4.69806e-12
2.31002e-11
4.62047e-12
1.98026e-11
4.50036e-12
1.66272e-11
4.33374e-12
1.36112e-11
4.11709e-12
1.07928e-11
3.84611e-12
8.21317e-12
3.51676e-12
5.91595e-12
3.12655e-12
3.94489e-12
2.67437e-12
2.34049e-12
2.16119e-12
1.13542e-12
1.59482e-12
3.44992e-13
9.98046e-13
-4.75536e-14
4.19676e-13
-1.13351e-13
-4.85965e-14
-2.26553e-13
2.23211e-13
-4.60757e-13
9.48057e-13
-3.0591e-13
1.91816e-12
-1.08992e-12
3.38409e-12
-2.28357e-12
5.40871e-12
-3.54231e-12
7.97976e-12
-4.72291e-12
1.10619e-11
-5.76831e-12
1.45933e-11
-6.66589e-12
1.85104e-11
-7.41578e-12
2.27493e-11
-8.02672e-12
2.72422e-11
-8.51249e-12
3.19352e-11
-8.88136e-12
3.67704e-11
-9.14638e-12
4.16973e-11
-9.3175e-12
4.66739e-11
-9.40103e-12
5.16558e-11
-9.40852e-12
5.66076e-11
-9.34598e-12
6.14945e-11
-9.22234e-12
6.62883e-11
-9.04426e-12
7.09639e-11
-8.81631e-12
7.54952e-11
-8.54771e-12
7.98648e-11
-8.24175e-12
8.40549e-11
-7.90463e-12
8.80495e-11
-7.54157e-12
9.18386e-11
-7.15558e-12
9.54108e-11
-6.752e-12
9.87582e-11
-6.3351e-12
1.01877e-10
-5.90697e-12
1.04761e-10
-5.47162e-12
1.07407e-10
-5.03232e-12
1.09818e-10
-4.59082e-12
1.11991e-10
-4.15068e-12
1.13929e-10
-3.71461e-12
1.15636e-10
-3.28405e-12
1.17116e-10
-2.86202e-12
1.18372e-10
-2.45029e-12
1.19414e-10
-2.04908e-12
1.20246e-10
-1.66081e-12
1.20876e-10
-1.28779e-12
1.21314e-10
-9.29617e-13
1.21568e-10
-5.87497e-13
1.21646e-10
-2.63538e-13
1.21559e-10
4.2476e-14
1.21319e-10
3.30249e-13
1.20934e-10
5.98311e-13
1.20416e-10
8.45498e-13
1.19777e-10
1.07269e-12
1.19025e-10
1.27954e-12
1.18174e-10
1.46569e-12
1.17235e-10
1.63122e-12
1.1622e-10
1.77576e-12
1.15138e-10
1.89911e-12
1.14001e-10
2.00208e-12
1.12822e-10
2.08544e-12
1.1161e-10
2.14886e-12
1.10375e-10
2.19191e-12
1.0913e-10
2.21553e-12
1.07883e-10
2.22101e-12
1.06644e-10
2.20855e-12
1.05423e-10
2.17851e-12
1.04229e-10
2.1321e-12
1.03073e-10
2.06978e-12
1.0196e-10
1.99148e-12
1.00899e-10
1.89808e-12
9.98978e-11
1.79106e-12
9.89635e-11
1.67131e-12
9.81016e-11
1.53982e-12
9.73197e-11
1.39769e-12
9.66237e-11
1.24548e-12
9.6017e-11
1.08339e-12
9.55037e-11
9.12649e-13
9.50886e-11
7.35453e-13
9.47756e-11
5.53168e-13
9.45668e-11
3.65805e-13
9.44643e-11
1.73734e-13
9.44706e-11
-2.15708e-14
9.45869e-11
-2.18758e-13
9.48128e-11
-4.17093e-13
9.51483e-11
-6.15728e-13
9.55937e-11
-8.1341e-13
9.61478e-11
-1.0089e-12
9.68084e-11
-1.20128e-12
9.75728e-11
-1.38949e-12
9.84392e-11
-1.57244e-12
9.94041e-11
-1.74935e-12
1.00463e-10
-1.91945e-12
1.01611e-10
-2.08176e-12
1.02845e-10
-2.23495e-12
1.04158e-10
-2.37773e-12
1.05544e-10
-2.5097e-12
1.06998e-10
-2.63038e-12
1.08511e-10
-2.73854e-12
1.10078e-10
-2.83294e-12
1.11689e-10
-2.91253e-12
1.13338e-10
-2.97708e-12
1.15015e-10
-3.02652e-12
1.16712e-10
-3.05985e-12
1.18419e-10
-3.07634e-12
1.20127e-10
-3.0756e-12
1.21826e-10
-3.05675e-12
1.23505e-10
-3.0193e-12
1.25156e-10
-2.96273e-12
1.26767e-10
-2.88657e-12
1.28327e-10
-2.79101e-12
1.29826e-10
-2.67583e-12
1.31253e-10
-2.54038e-12
1.32598e-10
-2.38485e-12
1.33848e-10
-2.20939e-12
1.34993e-10
-2.01379e-12
1.36022e-10
-1.79841e-12
1.36925e-10
-1.5632e-12
1.3769e-10
-1.30812e-12
1.38306e-10
-1.03391e-12
1.38764e-10
-7.4084e-13
1.39054e-10
-4.29148e-13
1.39166e-10
-9.98136e-14
1.39091e-10
2.46778e-13
1.38819e-10
6.10288e-13
1.38342e-10
9.89392e-13
1.37653e-10
1.38289e-12
1.36744e-10
1.79e-12
1.35608e-10
2.20922e-12
1.34239e-10
2.63911e-12
1.32633e-10
3.07891e-12
1.30786e-10
3.52683e-12
1.28693e-10
3.98055e-12
1.26352e-10
4.43858e-12
1.23763e-10
4.89892e-12
1.20926e-10
5.35905e-12
1.17841e-10
5.81709e-12
1.14512e-10
6.27059e-12
1.10943e-10
6.71618e-12
1.07139e-10
7.15096e-12
1.03109e-10
7.5724e-12
9.88608e-11
7.97689e-12
9.44073e-11
8.3603e-12
8.97608e-11
8.7192e-12
8.49373e-11
9.04962e-12
7.99554e-11
9.34657e-12
7.48348e-11
9.60554e-12
6.95985e-11
9.82199e-12
6.42733e-11
9.98992e-12
5.88885e-11
1.01031e-11
5.34758e-11
1.01561e-11
4.80714e-11
1.01425e-11
4.27147e-11
1.00552e-11
3.74482e-11
9.88667e-12
3.23186e-11
9.62958e-12
2.7377e-11
9.27593e-12
2.26773e-11
8.81771e-12
1.82757e-11
8.24791e-12
1.42314e-11
7.5607e-12
1.06048e-11
6.75228e-12
7.45362e-12
5.82377e-12
4.83082e-12
4.78396e-12
2.77901e-12
3.65276e-12
1.31781e-12
2.47044e-12
4.28223e-13
1.31631e-12
3.1772e-14
3.37509e-13
-1.9294e-13
3.56762e-13
-8.17463e-13
1.39303e-12
-1.34238e-12
2.99344e-12
-2.69193e-12
5.23381e-12
-4.52421e-12
8.14165e-12
-6.45185e-12
1.17024e-11
-8.28298e-12
1.58682e-11
-9.93377e-12
2.05746e-11
-1.13727e-11
2.57531e-11
-1.25913e-11
3.13226e-11
-1.35985e-11
3.72127e-11
-1.44026e-11
4.33504e-11
-1.50197e-11
4.96672e-11
-1.54653e-11
5.61027e-11
-1.57517e-11
6.25965e-11
-1.58955e-11
6.90965e-11
-1.5908e-11
7.55538e-11
-1.58039e-11
8.19259e-11
-1.55949e-11
8.81757e-11
-1.52913e-11
9.4265e-11
-1.49062e-11
1.00166e-10
-1.44481e-11
1.05852e-10
-1.39264e-11
1.11298e-10
-1.33515e-11
1.16487e-10
-1.27295e-11
1.21401e-10
-1.20691e-11
1.26026e-10
-1.13783e-11
1.30353e-10
-1.06619e-11
1.34373e-10
-9.92688e-12
1.38081e-10
-9.17977e-12
1.41474e-10
-8.42482e-12
1.4455e-10
-7.66727e-12
1.4731e-10
-6.91189e-12
1.49757e-10
-6.16208e-12
1.51894e-10
-5.4223e-12
1.53727e-10
-4.69654e-12
1.55264e-10
-3.98701e-12
1.56513e-10
-3.29688e-12
1.57481e-10
-2.62989e-12
1.5818e-10
-1.9871e-12
1.58622e-10
-1.37044e-12
1.58817e-10
-7.82945e-13
1.5878e-10
-2.26296e-13
1.58523e-10
2.99471e-13
1.5806e-10
7.92811e-13
1.57405e-10
1.25206e-12
1.56573e-10
1.67677e-12
1.5558e-10
2.06625e-12
1.54439e-10
2.41965e-12
1.53167e-10
2.73731e-12
1.51779e-10
3.0193e-12
1.5029e-10
3.26469e-12
1.48715e-10
3.47374e-12
1.4707e-10
3.64757e-12
1.4537e-10
3.78606e-12
1.43629e-10
3.88922e-12
1.41861e-10
3.95845e-12
1.40083e-10
3.99491e-12
1.38306e-10
3.99869e-12
1.36544e-10
3.97015e-12
1.3481e-10
3.91115e-12
1.33116e-10
3.82382e-12
1.31476e-10
3.7089e-12
1.29899e-10
3.56699e-12
1.28397e-10
3.39962e-12
1.26981e-10
3.20807e-12
1.25659e-10
2.99335e-12
1.2444e-10
2.7578e-12
1.23333e-10
2.50395e-12
1.22345e-10
2.23277e-12
1.21483e-10
1.94491e-12
1.20753e-10
1.64258e-12
1.20161e-10
1.32832e-12
1.1971e-10
1.00346e-12
1.19406e-10
6.69215e-13
1.1925e-10
3.27796e-13
1.19246e-10
-1.83868e-14
1.19395e-10
-3.67901e-13
1.19697e-10
-7.19594e-13
1.20153e-10
-1.07149e-12
1.20762e-10
-1.42146e-12
1.21522e-10
-1.76793e-12
1.22431e-10
-2.10936e-12
1.23486e-10
-2.4437e-12
1.24683e-10
-2.76878e-12
1.26017e-10
-3.08316e-12
1.27483e-10
-3.38547e-12
1.29075e-10
-3.67375e-12
1.30786e-10
-3.94593e-12
1.3261e-10
-4.20036e-12
1.34536e-10
-4.43597e-12
1.36558e-10
-4.65157e-12
1.38665e-10
-4.84511e-12
1.40848e-10
-5.01503e-12
1.43096e-10
-5.16023e-12
1.45398e-10
-5.27939e-12
1.47742e-10
-5.37144e-12
1.50117e-10
-5.43511e-12
1.52509e-10
-5.46922e-12
1.54906e-10
-5.4731e-12
1.57295e-10
-5.44561e-12
1.59662e-10
-5.3858e-12
1.61993e-10
-5.29341e-12
1.64273e-10
-5.1676e-12
1.66487e-10
-5.00731e-12
1.68623e-10
-4.81224e-12
1.70664e-10
-4.58215e-12
1.72597e-10
-4.31721e-12
1.74405e-10
-4.01781e-12
1.76073e-10
-3.68339e-12
1.77588e-10
-3.31367e-12
1.78934e-10
-2.90947e-12
1.80096e-10
-2.4712e-12
1.81061e-10
-1.99939e-12
1.81814e-10
-1.4949e-12
1.82343e-10
-9.58165e-13
1.82632e-10
-3.9018e-13
1.82672e-10
2.0748e-13
1.82448e-10
8.33775e-13
1.81949e-10
1.48753e-12
1.81166e-10
2.16641e-12
1.80088e-10
2.86817e-12
1.78706e-10
3.59107e-12
1.77012e-10
4.33271e-12
1.75e-10
5.09067e-12
1.72664e-10
5.86267e-12
1.7e-10
6.64517e-12
1.67004e-10
7.43442e-12
1.63675e-10
8.2274e-12
1.60014e-10
9.02049e-12
1.56023e-10
9.80919e-12
1.51704e-10
1.05891e-11
1.47064e-10
1.13558e-11
1.42112e-10
1.21038e-11
1.36857e-10
1.28274e-11
1.31312e-10
1.35214e-11
1.25493e-10
1.41797e-11
1.19417e-10
1.4795e-11
1.13105e-10
1.53608e-11
1.06583e-10
1.58697e-11
9.98771e-11
1.63128e-11
9.30172e-11
1.66815e-11
8.60387e-11
1.69674e-11
7.8981e-11
1.7161e-11
7.18858e-11
1.72517e-11
6.47997e-11
1.72288e-11
5.77741e-11
1.70814e-11
5.0864e-11
1.67976e-11
4.41284e-11
1.6365e-11
3.76315e-11
1.57722e-11
3.14413e-11
1.50083e-11
2.56275e-11
1.40624e-11
2.02618e-11
1.29264e-11
1.54169e-11
1.15973e-11
1.11605e-11
1.00789e-11
7.55258e-12
8.38725e-12
4.64195e-12
6.55775e-12
2.4589e-12
4.65395e-12
1.00115e-12
2.78189e-12
2.10537e-13
1.1257e-12
1.74961e-14
4.48794e-13
-1.26629e-12
1.84019e-12
-2.73392e-12
4.02567e-12
-4.87471e-12
6.99495e-12
-7.49465e-12
1.07399e-11
-1.01974e-11
1.5225e-11
-1.27681e-11
2.03912e-11
-1.51017e-11
2.61697e-11
-1.7149e-11
3.24776e-11
-1.88993e-11
3.92331e-11
-2.0352e-11
4.63511e-11
-2.15203e-11
5.37503e-11
-2.2421e-11
6.13556e-11
-2.30702e-11
6.90931e-11
-2.3489e-11
7.6895e-11
-2.36961e-11
8.4697e-11
-2.37111e-11
9.24434e-11
-2.35518e-11
1.00084e-10
-2.32348e-11
1.07569e-10
-2.27777e-11
1.1486e-10
-2.21968e-11
1.21918e-10
-2.15059e-11
1.28711e-10
-2.07204e-11
1.35211e-10
-1.98518e-11
1.41396e-10
-1.89132e-11
1.47242e-10
-1.79169e-11
1.52736e-10
-1.68723e-11
1.57864e-10
-1.57897e-11
1.62614e-10
-1.46789e-11
1.66983e-10
-1.35479e-11
1.70964e-10
-1.24054e-11
1.74555e-10
-1.12592e-11
1.77759e-10
-1.01153e-11
1.80577e-10
-8.98044e-12
1.83016e-10
-7.86121e-12
1.85081e-10
-6.76164e-12
1.86781e-10
-5.687e-12
1.88127e-10
-4.64288e-12
1.89129e-10
-3.63256e-12
1.89801e-10
-2.65897e-12
1.90156e-10
-1.72593e-12
1.90209e-10
-8.36946e-13
1.89977e-10
6.3097e-15
1.89476e-10
8.01606e-13
1.88722e-10
1.54648e-12
1.87733e-10
2.23983e-12
1.86529e-10
2.88086e-12
1.85128e-10
3.4675e-12
1.83547e-10
3.99966e-12
1.81808e-10
4.47705e-12
1.79928e-10
4.89881e-12
1.77927e-10
5.26512e-12
1.75824e-10
5.57682e-12
1.73637e-10
5.83415e-12
1.71387e-10
6.03669e-12
1.69089e-10
6.18538e-12
1.66765e-10
6.28259e-12
1.6443e-10
6.32944e-12
1.62101e-10
6.32618e-12
1.59797e-10
6.27423e-12
1.57534e-10
6.17571e-12
1.55326e-10
6.03237e-12
1.53187e-10
5.84605e-12
1.51134e-10
5.61901e-12
1.49179e-10
5.35341e-12
1.47335e-10
5.0509e-12
1.45615e-10
4.71355e-12
1.44028e-10
4.34425e-12
1.42587e-10
3.94548e-12
1.41299e-10
3.51935e-12
1.40173e-10
3.06886e-12
1.39218e-10
2.59722e-12
1.3844e-10
2.10663e-12
1.37844e-10
1.59897e-12
1.37436e-10
1.07712e-12
1.37219e-10
5.44491e-13
1.37197e-10
3.923e-15
1.37371e-10
-5.4215e-13
1.37742e-10
-1.0911e-12
1.3831e-10
-1.63999e-12
1.39075e-10
-2.18603e-12
1.40034e-10
-2.7266e-12
1.41183e-10
-3.25897e-12
1.42521e-10
-3.78029e-12
1.44041e-10
-4.28791e-12
1.45738e-10
-4.77933e-12
1.47605e-10
-5.25188e-12
1.49634e-10
-5.7025e-12
1.51818e-10
-6.12861e-12
1.54146e-10
-6.52811e-12
1.56608e-10
-6.89869e-12
1.59195e-10
-7.2379e-12
1.61893e-10
-7.54315e-12
1.64691e-10
-7.81234e-12
1.67575e-10
-8.04397e-12
1.70531e-10
-8.23583e-12
1.73545e-10
-8.3858e-12
1.76603e-10
-8.49241e-12
1.79687e-10
-8.55391e-12
1.82781e-10
-8.56862e-12
1.85871e-10
-8.53513e-12
1.88937e-10
-8.4522e-12
1.91963e-10
-8.31919e-12
1.94931e-10
-8.13531e-12
1.97821e-10
-7.89892e-12
2.00617e-10
-7.60902e-12
2.03301e-10
-7.26574e-12
2.05851e-10
-6.86897e-12
2.08252e-10
-6.41883e-12
2.10483e-10
-5.91529e-12
2.12526e-10
-5.35786e-12
2.14363e-10
-4.74713e-12
2.15976e-10
-4.0844e-12
2.17346e-10
-3.37039e-12
2.18457e-10
-2.60603e-12
2.19292e-10
-1.79275e-12
2.19833e-10
-9.31958e-13
2.20066e-10
-2.54006e-14
2.19975e-10
9.24613e-13
2.19546e-10
1.91594e-12
2.18766e-10
2.94598e-12
2.17623e-10
4.01103e-12
2.16106e-10
5.10792e-12
2.14204e-10
6.23385e-12
2.11911e-10
7.38464e-12
2.09218e-10
8.55571e-12
2.06121e-10
9.74265e-12
2.02615e-10
1.09403e-11
1.987e-10
1.21431e-11
1.94375e-10
1.33454e-11
1.89643e-10
1.45411e-11
1.84509e-10
1.57231e-11
1.7898e-10
1.68841e-11
1.73067e-10
1.80171e-11
1.66782e-10
1.91133e-11
1.6014e-10
2.01633e-11
1.53161e-10
2.11584e-11
1.45867e-10
2.2089e-11
1.38284e-10
2.2944e-11
1.30441e-10
2.37122e-11
1.22372e-10
2.43817e-11
1.14115e-10
2.49393e-11
1.0571e-10
2.53716e-11
9.72063e-11
2.56651e-11
8.8653e-11
2.58053e-11
8.01065e-11
2.57762e-11
7.16273e-11
2.55613e-11
6.32803e-11
2.51446e-11
5.51357e-11
2.45098e-11
4.72677e-11
2.36404e-11
3.97535e-11
2.25216e-11
3.26734e-11
2.11412e-11
2.61095e-11
1.94903e-11
2.01433e-11
1.75655e-11
1.48512e-11
1.53737e-11
1.03013e-11
1.2938e-11
6.55005e-12
1.03061e-11
3.63844e-12
7.56125e-12
1.59016e-12
4.83344e-12
3.87657e-13
2.32888e-12
4.04822e-13
5.62753e-13
-1.82856e-12
2.28886e-12
-4.45892e-12
5.01059e-12
-7.59821e-12
8.65695e-12
-1.11399e-11
1.31772e-11
-1.4717e-11
1.85127e-11
-1.81046e-11
2.45944e-11
-2.11806e-11
3.13364e-11
-2.38922e-11
3.86544e-11
-2.62157e-11
4.64556e-11
-2.8152e-11
5.46488e-11
-2.97144e-11
6.3146e-11
-3.09186e-11
7.18625e-11
-3.1787e-11
8.07177e-11
-3.23435e-11
8.96347e-11
-3.26131e-11
9.85439e-11
-3.26207e-11
1.07382e-10
-3.23889e-11
1.16089e-10
-3.19417e-11
1.24612e-10
-3.13015e-11
1.32905e-10
-3.04886e-11
1.40924e-10
-2.9525e-11
1.48632e-10
-2.84284e-11
1.55998e-10
-2.72165e-11
1.62992e-10
-2.59081e-11
1.69592e-10
-2.45174e-11
1.75779e-10
-2.30594e-11
1.81538e-10
-2.15489e-11
1.86857e-10
-1.99982e-11
1.91728e-10
-1.84192e-11
1.96146e-10
-1.68242e-11
2.00109e-10
-1.52227e-11
2.03619e-10
-1.36247e-11
2.06677e-10
-1.20399e-11
2.09291e-10
-1.04756e-11
2.11469e-10
-8.93907e-12
2.1322e-10
-7.43818e-12
2.14556e-10
-5.97946e-12
2.15492e-10
-4.56728e-12
2.16041e-10
-3.20768e-12
2.1622e-10
-1.90586e-12
2.16047e-10
-6.64691e-13
2.15542e-10
5.12432e-13
2.14721e-10
1.62133e-12
2.13608e-10
2.65958e-12
2.12223e-10
3.62547e-12
2.10586e-10
4.51675e-12
2.08721e-10
5.33208e-12
2.0665e-10
6.07092e-12
2.04396e-10
6.73185e-12
2.0198e-10
7.31411e-12
1.99427e-10
7.81864e-12
1.96758e-10
8.24601e-12
1.93995e-10
8.59605e-12
1.91162e-10
8.86927e-12
1.88281e-10
9.06722e-12
1.85372e-10
9.19173e-12
1.82456e-10
9.24407e-12
1.79555e-10
9.22603e-12
1.76688e-10
9.14016e-12
1.73875e-10
8.98859e-12
1.71134e-10
8.77331e-12
1.68483e-10
8.49712e-12
1.65939e-10
8.16303e-12
1.63517e-10
7.77384e-12
1.61234e-10
7.33278e-12
1.59103e-10
6.8435e-12
1.57138e-10
6.30909e-12
1.55352e-10
5.73221e-12
1.53754e-10
5.11638e-12
1.52356e-10
4.46622e-12
1.51167e-10
3.78584e-12
1.50195e-10
3.07831e-12
1.49445e-10
2.34696e-12
1.48926e-10
1.59607e-12
1.48641e-10
8.29841e-13
1.48593e-10
5.1901e-14
1.48784e-10
-7.33963e-13
1.49217e-10
-1.52372e-12
1.49891e-10
-2.3135e-12
1.50805e-10
-3.09945e-12
1.51955e-10
-3.87751e-12
1.5334e-10
-4.64352e-12
1.54954e-10
-5.39375e-12
1.56792e-10
-6.12482e-12
1.58846e-10
-6.83295e-12
1.61108e-10
-7.514e-12
1.6357e-10
-8.16396e-12
1.66222e-10
-8.77949e-12
1.69053e-10
-9.35768e-12
1.72049e-10
-9.8949e-12
1.75198e-10
-1.03874e-11
1.78488e-10
-1.0832e-11
1.81901e-10
-1.12258e-11
1.85423e-10
-1.15662e-11
1.89037e-10
-1.18502e-11
1.92726e-10
-1.2075e-11
1.96472e-10
-1.22384e-11
2.00256e-10
-1.23382e-11
2.0406e-10
-1.23719e-11
2.07862e-10
-1.23374e-11
2.11643e-10
-1.22333e-11
2.15381e-10
-1.20581e-11
2.19056e-10
-1.18104e-11
2.22646e-10
-1.14888e-11
2.26128e-10
-1.10921e-11
2.29482e-10
-1.062e-11
2.32685e-10
-1.00725e-11
2.35714e-10
-9.44887e-12
2.38548e-10
-8.7494e-12
2.41164e-10
-7.97449e-12
2.4354e-10
-7.12446e-12
2.45656e-10
-6.20052e-12
2.47489e-10
-5.20425e-12
2.4902e-10
-4.13696e-12
2.50228e-10
-3.00051e-12
2.51093e-10
-1.79739e-12
2.51597e-10
-5.29838e-13
2.51723e-10
7.99349e-13
2.51453e-10
2.18623e-12
2.50772e-10
3.62701e-12
2.49664e-10
5.1177e-12
2.48118e-10
6.65343e-12
2.46123e-10
8.22946e-12
2.43667e-10
9.84056e-12
2.40743e-10
1.14801e-11
2.37345e-10
1.31411e-11
2.33469e-10
1.48171e-11
2.29111e-10
1.65005e-11
2.24274e-10
1.81827e-11
2.1896e-10
1.9855e-11
2.13174e-10
2.15083e-11
2.06927e-10
2.31321e-11
2.00228e-10
2.47155e-11
1.93093e-10
2.62474e-11
1.85541e-10
2.77154e-11
1.77595e-10
2.91058e-11
1.69278e-10
3.04053e-11
1.60622e-10
3.15996e-11
1.51661e-10
3.26729e-11
1.42434e-10
3.36083e-11
1.32984e-10
3.43889e-11
1.23359e-10
3.49965e-11
1.13614e-10
3.54118e-11
1.03805e-10
3.56149e-11
9.39948e-11
3.55858e-11
8.42539e-11
3.53028e-11
7.46545e-11
3.47443e-11
6.52742e-11
3.38894e-11
5.61963e-11
3.27181e-11
4.75062e-11
3.12117e-11
3.92911e-11
2.93549e-11
3.16406e-11
2.71384e-11
2.4644e-11
2.4561e-11
1.83865e-11
2.16325e-11
1.2946e-11
1.83807e-11
8.39113e-12
1.48618e-11
4.77725e-12
1.11716e-11
2.15457e-12
7.456e-12
5.52376e-13
3.93168e-12
9.57062e-13
6.81915e-13
-2.51114e-12
2.71994e-12
-6.49674e-12
5.92925e-12
-1.08067e-11
1.01903e-11
-1.54012e-11
1.54164e-11
-1.99442e-11
2.15265e-11
-2.42115e-11
2.84301e-11
-2.80841e-11
3.6036e-11
-3.14972e-11
4.42478e-11
-3.44267e-11
5.29654e-11
-3.68723e-11
6.20947e-11
-3.88437e-11
7.15393e-11
-4.03631e-11
8.12078e-11
-4.14551e-11
9.10124e-11
-4.21483e-11
1.00872e-10
-4.24735e-11
1.10711e-10
-4.24592e-11
1.20458e-10
-4.2136e-11
1.30049e-10
-4.15337e-11
1.39427e-10
-4.06789e-11
1.48538e-10
-3.96003e-11
1.57337e-10
-3.83232e-11
1.65781e-10
-3.68716e-11
1.73835e-10
-3.52705e-11
1.81466e-10
-3.35406e-11
1.88652e-10
-3.17024e-11
1.95368e-10
-2.97761e-11
2.01599e-10
-2.77798e-11
2.07331e-10
-2.57303e-11
2.12556e-10
-2.36443e-11
2.17267e-10
-2.15361e-11
2.21464e-10
-1.94194e-11
2.25146e-10
-1.73077e-11
2.28318e-10
-1.52126e-11
2.30988e-10
-1.31444e-11
2.33163e-10
-1.1114e-11
2.34855e-10
-9.13093e-12
2.36078e-10
-7.2025e-12
2.36848e-10
-5.33649e-12
2.3718e-10
-3.54099e-12
2.37096e-10
-1.82145e-12
2.36614e-10
-1.82603e-13
2.35756e-10
1.37002e-12
2.34544e-10
2.83231e-12
2.33003e-10
4.20098e-12
2.31156e-10
5.47266e-12
2.29027e-10
6.64464e-12
2.26643e-10
7.71606e-12
2.24029e-10
8.68489e-12
2.2121e-10
9.54957e-12
2.18214e-10
1.03102e-11
2.15066e-10
1.09671e-11
2.11793e-10
1.15198e-11
2.08418e-10
1.19691e-11
2.0497e-10
1.23168e-11
2.01473e-10
1.25645e-11
1.97952e-10
1.27134e-11
1.9443e-10
1.27655e-11
1.90932e-10
1.27236e-11
1.87481e-10
1.2591e-11
1.84099e-10
1.23704e-11
1.80806e-10
1.20649e-11
1.77624e-10
1.16784e-11
1.74573e-10
1.12143e-11
1.71671e-10
1.06759e-11
1.68934e-10
1.00681e-11
1.66381e-10
9.39607e-12
1.64026e-10
8.6634e-12
1.61883e-10
7.87399e-12
1.59966e-10
7.03314e-12
1.58287e-10
6.14631e-12
1.56855e-10
5.21811e-12
1.55679e-10
4.25306e-12
1.54769e-10
3.25655e-12
1.5413e-10
2.23422e-12
1.53769e-10
1.19118e-12
1.53688e-10
1.32249e-13
1.5389e-10
-9.37202e-13
1.54379e-10
-2.01173e-12
1.55152e-10
-3.0863e-12
1.56208e-10
-4.15578e-12
1.57545e-10
-5.21464e-12
1.59159e-10
-6.25741e-12
1.61045e-10
-7.2791e-12
1.63196e-10
-8.27505e-12
1.65603e-10
-9.24004e-12
1.68258e-10
-1.01685e-11
1.71151e-10
-1.10557e-11
1.74269e-10
-1.1897e-11
1.77599e-10
-1.26881e-11
1.81129e-10
-1.34242e-11
1.84843e-10
-1.41006e-11
1.88724e-10
-1.47131e-11
1.92756e-10
-1.52578e-11
1.9692e-10
-1.57307e-11
2.01198e-10
-1.6128e-11
2.05569e-10
-1.64464e-11
2.10013e-10
-1.66824e-11
2.14508e-10
-1.6833e-11
2.19032e-10
-1.68954e-11
2.23562e-10
-1.68669e-11
2.28074e-10
-1.67456e-11
2.32544e-10
-1.65292e-11
2.36948e-10
-1.62151e-11
2.41262e-10
-1.58021e-11
2.45459e-10
-1.52894e-11
2.49514e-10
-1.4676e-11
2.53402e-10
-1.39614e-11
2.57098e-10
-1.31453e-11
2.60575e-10
-1.22273e-11
2.63809e-10
-1.12086e-11
2.66775e-10
-1.00901e-11
2.69446e-10
-8.8727e-12
2.718e-10
-7.55833e-12
2.73813e-10
-6.14953e-12
2.75461e-10
-4.64848e-12
2.76721e-10
-3.05806e-12
2.77574e-10
-1.38203e-12
2.77997e-10
3.75886e-13
2.77972e-10
2.211e-12
2.77482e-10
4.11765e-12
2.76508e-10
6.09058e-12
2.75037e-10
8.12406e-12
2.73056e-10
1.0211e-11
2.70553e-10
1.23439e-11
2.67518e-10
1.45146e-11
2.63946e-10
1.67142e-11
2.59831e-10
1.89331e-11
2.55169e-10
2.11614e-11
2.49963e-10
2.33886e-11
2.44216e-10
2.56023e-11
2.37933e-10
2.77902e-11
2.31126e-10
2.99394e-11
2.23807e-10
3.2035e-11
2.15992e-10
3.40615e-11
2.07703e-10
3.60033e-11
1.98966e-10
3.78435e-11
1.89808e-10
3.95635e-11
1.80263e-10
4.11441e-11
1.7037e-10
4.25653e-11
1.60172e-10
4.3806e-11
1.49717e-10
4.48435e-11
1.39059e-10
4.56544e-11
1.28257e-10
4.62146e-11
1.17374e-10
4.64986e-11
1.0648e-10
4.64801e-11
9.56489e-11
4.61329e-11
8.49615e-11
4.5431e-11
7.45018e-11
4.43484e-11
6.4359e-11
4.28604e-11
5.46254e-11
4.09451e-11
4.53952e-11
3.8585e-11
3.67645e-11
3.57689e-11
2.88287e-11
3.24957e-11
2.16807e-11
2.87789e-11
1.54106e-11
2.46506e-11
1.01025e-11
2.01713e-11
5.8309e-12
1.54419e-11
2.67225e-12
1.06136e-11
7e-13
5.9038e-12
1.65698e-12
7.95745e-13
-3.30746e-12
3.11664e-12
-8.81731e-12
6.76014e-12
-1.4451e-11
1.15717e-11
-2.02137e-11
1.74319e-11
-2.58024e-11
2.42316e-11
-3.1012e-11
3.1869e-11
-3.572e-11
4.02384e-11
-3.98651e-11
4.92327e-11
-4.34229e-11
5.87491e-11
-4.63895e-11
6.86838e-11
-4.87791e-11
7.89374e-11
-5.06153e-11
8.94108e-11
-5.19282e-11
1.00012e-10
-5.2751e-11
1.10656e-10
-5.31175e-11
1.21261e-10
-5.30643e-11
1.31752e-10
-5.26276e-11
1.42061e-10
-5.18416e-11
1.52124e-10
-5.07423e-11
1.61886e-10
-4.93622e-11
1.71296e-10
-4.77324e-11
1.80309e-10
-4.58848e-11
1.88886e-10
-4.38482e-11
1.96995e-10
-4.16489e-11
2.04606e-10
-3.93142e-11
2.11697e-10
-3.68676e-11
2.18249e-10
-3.43322e-11
2.24249e-10
-3.17303e-11
2.29686e-10
-2.90815e-11
2.34554e-10
-2.64046e-11
2.38852e-10
-2.37176e-11
2.4258e-10
-2.10371e-11
2.45745e-10
-1.83768e-11
2.48352e-10
-1.57515e-11
2.50412e-10
-1.3175e-11
2.5194e-10
-1.06578e-11
2.52949e-10
-8.21071e-12
2.53455e-10
-5.84441e-12
2.53481e-10
-3.56721e-12
2.53046e-10
-1.38644e-12
2.52173e-10
6.90182e-13
2.50886e-10
2.65655e-12
2.4921e-10
4.50785e-12
2.47172e-10
6.23899e-12
2.44798e-10
7.84581e-12
2.42117e-10
9.32581e-12
2.39157e-10
1.06764e-11
2.35947e-10
1.18948e-11
2.32515e-10
1.29803e-11
2.28892e-10
1.39332e-11
2.25107e-10
1.47526e-11
2.21188e-10
1.54382e-11
2.17166e-10
1.59912e-11
2.13068e-10
1.64141e-11
2.08924e-10
1.67085e-11
2.0476e-10
1.68763e-11
2.00605e-10
1.69202e-11
1.96486e-10
1.68436e-11
1.92427e-10
1.665e-11
1.88453e-10
1.63433e-11
1.8459e-10
1.59279e-11
1.8086e-10
1.54083e-11
1.77284e-10
1.47889e-11
1.73885e-10
1.40748e-11
1.70681e-10
1.32719e-11
1.67692e-10
1.23853e-11
1.64934e-10
1.14202e-11
1.62424e-10
1.0383e-11
1.60177e-10
9.28034e-12
1.58205e-10
8.11826e-12
1.5652e-10
6.90242e-12
1.55133e-10
5.63939e-12
1.54053e-10
4.3362e-12
1.53288e-10
2.99959e-12
1.52843e-10
1.63602e-12
1.52722e-10
2.52136e-13
1.5293e-10
-1.14521e-12
1.53467e-10
-2.54917e-12
1.54334e-10
-3.95314e-12
1.55528e-10
-5.35027e-12
1.57048e-10
-6.73357e-12
1.58887e-10
-8.09647e-12
1.61041e-10
-9.43262e-12
1.63501e-10
-1.07354e-11
1.6626e-10
-1.1998e-11
1.69306e-10
-1.32137e-11
1.72627e-10
-1.43765e-11
1.76211e-10
-1.54807e-11
1.80043e-10
-1.65199e-11
1.84108e-10