/*--------------------------------*- C++ -*----------------------------------*\
  =========                 |
  \\      /  F ield         | OpenFOAM: The Open Source CFD Toolbox
   \\    /   O peration     | Website:  https://openfoam.org
    \\  /    A nd           | Version:  7
     \\/     M anipulation  |
\*---------------------------------------------------------------------------*/
FoamFile
{
    version     2.0;
    format      ascii;
    class       volScalarField;
    location    "0.4875";
    object      p;
}
// * * * * * * * * * * * * * * * * * * * * * * * * * * * * * * * * * * * * * //

dimensions      [0 2 -2 0 0 0 0];

internalField   nonuniform List<scalar> 
12800
(
-2.12053e-06
0.000178392
-0.000907146
-0.00335153
-0.00690981
-0.0113351
-0.0163943
-0.0218738
-0.027587
-0.0333736
-0.0390975
-0.0446433
-0.0499136
-0.0548269
-0.0593153
-0.0633226
-0.0668032
-0.0697204
-0.0720453
-0.073756
-0.0748369
-0.0752774
-0.0750719
-0.0742186
-0.0727194
-0.0705794
-0.0678061
-0.0644096
-0.0604018
-0.0557962
-0.0506077
-0.0448523
-0.0385471
-0.0317096
-0.024358
-0.0165107
-0.0081865
0.00059593
0.00981783
0.0194606
0.0295059
0.0399357
0.0507322
0.0618783
0.0733571
0.0851523
0.0972482
0.10963
0.122282
0.135191
0.148345
0.161729
0.175331
0.189141
0.203148
0.21734
0.231709
0.246245
0.260941
0.275786
0.290775
0.305901
0.321156
0.336535
0.352032
0.367643
0.383362
0.399184
0.415107
0.431126
0.447238
0.463439
0.479727
0.496099
0.512552
0.529084
0.545693
0.562376
0.579132
0.595957
0.612851
0.62981
0.646833
0.663917
0.68106
0.698258
0.71551
0.732811
0.750158
0.767547
0.784974
0.802435
0.819924
0.837436
0.854965
0.872503
0.890043
0.907579
0.925099
0.942597
0.96006
0.977478
0.99484
1.01213
1.02934
1.04645
1.06345
1.08031
1.09703
1.11359
1.12995
1.14612
1.16205
1.17773
1.19314
1.20825
1.22304
1.23748
1.25155
1.26521
1.27844
1.29121
1.3035
1.31527
1.32649
1.33715
1.3472
1.35662
1.36539
1.37347
1.38085
1.38751
1.39341
1.39855
1.4029
1.40646
1.40921
1.41115
1.41228
1.41259
1.41211
1.41084
1.4088
1.40602
1.40254
1.39841
1.39367
1.38841
1.38269
1.37662
1.37031
1.3639
1.35753
1.35139
1.3457
1.34069
1.33664
1.33383
1.33255
1.33272
-0.000185817
-2.94719e-06
-0.00100604
-0.00313854
-0.00617667
-0.00994497
-0.0142697
-0.0189801
-0.0239198
-0.0289493
-0.0339467
-0.0388058
-0.0434354
-0.0477577
-0.0517066
-0.0552268
-0.0582724
-0.0608059
-0.0627971
-0.0642224
-0.0650643
-0.0653101
-0.0649517
-0.0639852
-0.0624101
-0.0602289
-0.0574469
-0.0540716
-0.0501127
-0.0455813
-0.0404901
-0.0348532
-0.0286852
-0.0220019
-0.0148195
-0.00715463
0.000975665
0.00955426
0.0185639
0.0279875
0.037808
0.0480085
0.0585725
0.0694837
0.0807264
0.0922851
0.104145
0.116291
0.12871
0.141388
0.154313
0.167472
0.180853
0.194445
0.208238
0.222221
0.236385
0.25072
0.265219
0.279873
0.294676
0.309618
0.324695
0.3399
0.355228
0.370672
0.386229
0.401892
0.417659
0.433525
0.449486
0.465539
0.481681
0.497908
0.514218
0.530608
0.547074
0.563615
0.580229
0.596911
0.61366
0.630474
0.647349
0.664283
0.681273
0.698315
0.715407
0.732544
0.749723
0.766939
0.784188
0.801465
0.818765
0.836081
0.853407
0.870736
0.88806
0.905371
0.922661
0.939919
0.957136
0.9743
0.991399
1.00842
1.02535
1.04218
1.05888
1.07545
1.09186
1.1081
1.12415
1.13999
1.1556
1.17095
1.18603
1.2008
1.21526
1.22936
1.2431
1.25643
1.26934
1.2818
1.29378
1.30525
1.3162
1.32658
1.33638
1.34558
1.35414
1.36204
1.36927
1.3758
1.38161
1.38669
1.39103
1.39461
1.39743
1.39948
1.40077
1.4013
1.40109
1.40014
1.39848
1.39614
1.39316
1.38959
1.38547
1.38089
1.37591
1.37063
1.36515
1.3596
1.35412
1.34886
1.34401
1.33977
1.33633
1.33389
1.33272
1.33288
0.000897854
0.0010009
-2.85037e-06
-0.00198728
-0.00473719
-0.00811035
-0.0119666
-0.016164
-0.0205694
-0.0250613
-0.0295307
-0.0338813
-0.0380286
-0.0418994
-0.0454311
-0.0485701
-0.0512715
-0.0534982
-0.0552198
-0.0564119
-0.0570561
-0.0571383
-0.0566492
-0.0555833
-0.0539383
-0.0517152
-0.0489174
-0.0455507
-0.041623
-0.0371437
-0.0321239
-0.0265757
-0.0205124
-0.0139481
-0.00689752
0.000624139
0.00860125
0.017018
0.0258583
0.0351062
0.0447458
0.0547612
0.0651368
0.0758573
0.0869076
0.0982731
0.109939
0.121893
0.13412
0.146607
0.159343
0.172315
0.185512
0.198923
0.212537
0.226345
0.240337
0.254504
0.268838
0.283331
0.297975
0.312764
0.32769
0.342747
0.35793
0.373232
0.38865
0.404178
0.419811
0.435545
0.451377
0.467303
0.483318
0.499421
0.515606
0.531873
0.548216
0.564634
0.581124
0.597683
0.614307
0.630995
0.647742
0.664546
0.681404
0.698312
0.715266
0.732262
0.749297
0.766365
0.783462
0.800582
0.81772
0.83487
0.852024
0.869176
0.886318
0.903441
0.920536
0.937594
0.954605
0.971556
0.988437
1.00523
1.02193
1.03852
1.05499
1.07131
1.08747
1.10345
1.11924
1.13482
1.15016
1.16524
1.18005
1.19456
1.20874
1.22258
1.23605
1.24912
1.26177
1.27398
1.28572
1.29696
1.30768
1.31786
1.32747
1.33649
1.34489
1.35266
1.35977
1.36621
1.37196
1.377
1.38133
1.38494
1.38783
1.38998
1.3914
1.39211
1.39211
1.39142
1.39007
1.38808
1.38549
1.38235
1.37872
1.37465
1.37022
1.36552
1.36065
1.35571
1.35084
1.34618
1.34187
1.33808
1.33497
1.33271
1.33154
1.3316
0.00334361
0.00313652
0.00197993
-9.69583e-06
-0.00265303
-0.00582642
-0.00940994
-0.0132829
-0.0173306
-0.0214469
-0.025535
-0.0295083
-0.0332897
-0.0368115
-0.040015
-0.0428497
-0.0452725
-0.0472475
-0.048745
-0.0497407
-0.0502159
-0.0501562
-0.0495513
-0.0483948
-0.0466835
-0.0444171
-0.0415977
-0.03823
-0.0343205
-0.0298772
-0.0249099
-0.0194294
-0.0134478
-0.0069777
-3.27257e-05
0.0073731
0.0152253
0.0235091
0.0322096
0.0413117
0.0508005
0.0606609
0.0708781
0.0814376
0.092325
0.103526
0.115028
0.126816
0.138878
0.151202
0.163775
0.176586
0.189623
0.202876
0.216335
0.22999
0.243832
0.257851
0.27204
0.286391
0.300895
0.315547
0.330339
0.345265
0.360318
0.375495
0.390788
0.406193
0.421706
0.437323
0.453038
0.468848
0.484749
0.500739
0.516812
0.532966
0.549198
0.565504
0.581882
0.598328
0.614839
0.631412
0.648044
0.66473
0.681468
0.698254
0.715084
0.731954
0.748858
0.765794
0.782754
0.799734
0.816728
0.833729
0.850731
0.867726
0.884707
0.901664
0.918589
0.935471
0.952301
0.969068
0.985759
1.00236
1.01886
1.03525
1.0515
1.06761
1.08356
1.09933
1.11489
1.13024
1.14536
1.16022
1.1748
1.18908
1.20304
1.21665
1.2299
1.24276
1.2552
1.2672
1.27874
1.2898
1.30034
1.31035
1.31981
1.32868
1.33696
1.34462
1.35165
1.35802
1.36373
1.36875
1.37309
1.37673
1.37968
1.38192
1.38347
1.38432
1.38451
1.38404
1.38293
1.38123
1.37895
1.37616
1.3729
1.36922
1.36521
1.36094
1.3565
1.352
1.34754
1.34324
1.33925
1.33569
1.33271
1.33045
1.3291
1.3288
0.00691407
0.00618651
0.00473319
0.00262155
-3.23926e-05
-0.00312261
-0.00654601
-0.0102009
-0.0139894
-0.0178199
-0.0216073
-0.0252747
-0.0287527
-0.0319797
-0.0349016
-0.0374714
-0.0396486
-0.0413991
-0.0426943
-0.0435107
-0.0438298
-0.0436372
-0.0429222
-0.0416779
-0.0399003
-0.0375884
-0.0347433
-0.0313686
-0.0274697
-0.0230536
-0.018129
-0.0127054
-0.00679387
-0.000405938
0.00644595
0.0137488
0.0214892
0.0296533
0.0382272
0.0471968
0.0565478
0.0662661
0.0763376
0.0867486
0.0974852
0.108534
0.119882
0.131516
0.143425
0.155594
0.168014
0.180673
0.19356
0.206664
0.219976
0.233486
0.247184
0.261063
0.275113
0.289327
0.303698
0.318218
0.332881
0.34768
0.362609
0.377662
0.392835
0.408122
0.423518
0.439019
0.45462
0.470317
0.486107
0.501985
0.517949
0.533993
0.550115
0.566312
0.582579
0.598915
0.615314
0.631775
0.648292
0.664864
0.681485
0.698152
0.71486
0.731606
0.748384
0.76519
0.782018
0.798862
0.815716
0.832575
0.84943
0.866274
0.8831
0.899898
0.91666
0.933375
0.950034
0.966625
0.983136
0.999555
1.01587
1.03206
1.04812
1.06403
1.07978
1.09534
1.11071
1.12585
1.14076
1.15541
1.16978
1.18385
1.19761
1.21102
1.22407
1.23673
1.24898
1.2608
1.27216
1.28305
1.29343
1.3033
1.31262
1.32137
1.32955
1.33712
1.34407
1.35039
1.35607
1.36108
1.36543
1.36911
1.37211
1.37444
1.37611
1.37711
1.37746
1.37718
1.3763
1.37485
1.37285
1.37035
1.3674
1.36406
1.3604
1.35647
1.35238
1.3482
1.34403
1.33999
1.33618
1.33272
1.32974
1.32734
1.32565
1.32475
0.0113731
0.0099835
0.0081213
0.00578886
0.00302468
-8.19192e-05
-0.0034424
-0.00697229
-0.0105894
-0.014215
-0.0177758
-0.0212039
-0.0244377
-0.027422
-0.0301077
-0.0324516
-0.0344163
-0.03597
-0.0370856
-0.037741
-0.037918
-0.0376028
-0.0367848
-0.0354567
-0.0336142
-0.0312557
-0.0283818
-0.0249951
-0.0211004
-0.0167036
-0.0118125
-0.00643577
-0.000583326
0.00573413
0.0125051
0.0197177
0.0273592
0.0354168
0.0438774
0.0527277
0.0619542
0.0715436
0.0814826
0.0917578
0.102356
0.113265
0.124472
0.135964
0.147729
0.159756
0.172034
0.184551
0.197296
0.210261
0.223434
0.236807
0.250371
0.264116
0.278035
0.29212
0.306363
0.320758
0.335297
0.349974
0.364784
0.37972
0.394776
0.409949
0.425232
0.440621
0.456112
0.4717
0.487382
0.503152
0.519008
0.534945
0.550961
0.56705
0.583211
0.599438
0.615729
0.63208
0.648487
0.664946
0.681453
0.698005
0.714596
0.731221
0.747877
0.764558
0.781258
0.797972
0.814693
0.831414
0.848129
0.864829
0.881508
0.898155
0.914762
0.93132
0.947817
0.964242
0.980585
0.996832
1.01297
1.02899
1.04487
1.06059
1.07615
1.09153
1.1067
1.12166
1.13638
1.15084
1.16502
1.1789
1.19247
1.2057
1.21857
1.23105
1.24314
1.25479
1.266
1.27674
1.28699
1.29673
1.30593
1.31458
1.32267
1.33017
1.33706
1.34334
1.349
1.35401
1.35838
1.36209
1.36516
1.36757
1.36934
1.37047
1.37098
1.37088
1.37019
1.36895
1.36719
1.36494
1.36226
1.35919
1.3558
1.35214
1.3483
1.34436
1.34039
1.33649
1.33276
1.32929
1.32618
1.32353
1.32138
1.31973
0.0164996
0.0143626
0.0120111
0.0093784
0.00642072
0.00321257
-0.000169748
-0.00365728
-0.00718184
-0.010677
-0.0140797
-0.0173312
-0.0203775
-0.0231695
-0.0256634
-0.0278201
-0.0296057
-0.0309907
-0.0319503
-0.0324637
-0.0325139
-0.0320875
-0.0311746
-0.0297678
-0.0278628
-0.0254577
-0.0225527
-0.0191499
-0.0152533
-0.0108685
-0.00600223
-0.000662544
0.00514151
0.0114
0.0181023
0.0252373
0.032793
0.0407576
0.0491185
0.0578633
0.0669791
0.0764534
0.0862734
0.0964264
0.1069
0.117682
0.12876
0.140122
0.151757
0.163653
0.175799
0.188186
0.200801
0.213636
0.226681
0.239927
0.253364
0.266985
0.28078
0.294744
0.308867
0.323143
0.337566
0.352128
0.366824
0.381648
0.396594
0.411658
0.426833
0.442115
0.4575
0.472984
0.488561
0.504227
0.51998
0.535814
0.551726
0.567713
0.58377
0.599893
0.616079
0.632324
0.648625
0.664976
0.681373
0.697813
0.714291
0.730802
0.747341
0.763902
0.78048
0.797069
0.813663
0.830254
0.846836
0.863401
0.879941
0.896447
0.912909
0.929318
0.945665
0.961937
0.978123
0.994211
1.01019
1.02604
1.04175
1.05731
1.0727
1.08791
1.10291
1.1177
1.13224
1.14653
1.16054
1.17426
1.18767
1.20073
1.21344
1.22578
1.23771
1.24922
1.2603
1.27091
1.28104
1.29067
1.29978
1.30835
1.31636
1.3238
1.33066
1.33691
1.34255
1.34757
1.35196
1.35572
1.35884
1.36134
1.3632
1.36445
1.36509
1.36514
1.36463
1.36357
1.36201
1.35997
1.3575
1.35464
1.35146
1.348
1.34434
1.34054
1.33668
1.33283
1.32907
1.32549
1.32217
1.31919
1.31649
1.31399
0.022092
0.0191621
0.0162678
0.0132753
0.010059
0.00668107
0.0032075
-0.000306481
-0.00380531
-0.00723354
-0.0105378
-0.0136679
-0.0165769
-0.019222
-0.0215644
-0.0235694
-0.0252065
-0.0264493
-0.027275
-0.0276646
-0.0276024
-0.0270762
-0.0260763
-0.0245962
-0.0226315
-0.0201802
-0.0172424
-0.01382
-0.00991657
-0.00553707
-0.000687801
0.00462382
0.0103894
0.0165996
0.0232446
0.0303139
0.0377962
0.0456804
0.0539546
0.0626069
0.0716252
0.0809975
0.0907116
0.100755
0.111117
0.121784
0.132746
0.143991
0.155507
0.167283
0.17931
0.191576
0.204072
0.216788
0.229714
0.242841
0.256161
0.269666
0.283347
0.297197
0.311208
0.325373
0.339685
0.354139
0.368728
0.383446
0.398287
0.413246
0.428319
0.443499
0.458783
0.474166
0.489643
0.50521
0.520864
0.536599
0.552412
0.568299
0.584256
0.600279
0.616365
0.632508
0.648705
0.664952
0.681245
0.697578
0.713948
0.730349
0.746775
0.763223
0.779685
0.796156
0.812629
0.829097
0.845554
0.861991
0.8784
0.894773
0.9111
0.927371
0.943577
0.959707
0.975748
0.991689
1.00752
1.02322
1.03878
1.05419
1.06943
1.08448
1.09933
1.11396
1.12835
1.14249
1.15635
1.16992
1.18318
1.1961
1.20868
1.22088
1.23268
1.24408
1.25504
1.26554
1.27558
1.28512
1.29415
1.30265
1.31061
1.31801
1.32483
1.33107
1.3367
1.34174
1.34615
1.34996
1.35314
1.35571
1.35767
1.35902
1.35978
1.35996
1.35959
1.35869
1.35729
1.35541
1.35311
1.35041
1.34738
1.34406
1.3405
1.33678
1.33294
1.32907
1.32521
1.32144
1.31783
1.31445
1.31115
1.30777
0.0279754
0.0242337
0.0207641
0.0173696
0.0138459
0.0102447
0.00662422
0.00302742
-0.000501324
-0.00391643
-0.00717341
-0.0102298
-0.0130456
-0.0155838
-0.0178108
-0.0196961
-0.0212128
-0.0223375
-0.0230497
-0.0233324
-0.0231717
-0.0225562
-0.0214773
-0.019929
-0.0179074
-0.0154107
-0.012439
-0.00899398
-0.00507908
-0.000698961
0.00414048
0.00943229
0.0151685
0.0213405
0.0279389
0.0349536
0.0423742
0.05019
0.0583896
0.0669619
0.0758953
0.0851783
0.0947991
0.104746
0.115008
0.125573
0.136431
0.147569
0.158978
0.170647
0.182564
0.194721
0.207107
0.219714
0.232531
0.245549
0.258761
0.272158
0.285733
0.299476
0.313382
0.327443
0.341653
0.356005
0.370493
0.38511
0.399852
0.414713
0.429688
0.444772
0.459959
0.475246
0.490628
0.5061
0.521658
0.537298
0.553016
0.568808
0.584669
0.600596
0.616585
0.63263
0.648729
0.664877
0.681068
0.6973
0.713566
0.729861
0.746181
0.76252
0.778872
0.795231
0.81159
0.827942
0.844281
0.860597
0.876884
0.893133
0.909334
0.925477
0.941554
0.957551
0.973459
0.989266
1.00496
1.02052
1.03595
1.05122
1.06632
1.08123
1.09594
1.11043
1.12469
1.13869
1.15242
1.16586
1.179
1.1918
1.20425
1.21634
1.22804
1.23933
1.2502
1.26062
1.27057
1.28004
1.28901
1.29747
1.30538
1.31275
1.31956
1.32579
1.33143
1.33648
1.34093
1.34478
1.34802
1.35066
1.3527
1.35415
1.35502
1.35532
1.35507
1.35429
1.35302
1.35127
1.34909
1.34651
1.34358
1.34033
1.33683
1.33312
1.32925
1.32529
1.32127
1.31725
1.3133
1.30948
1.30554
1.30126
0.0339985
0.0294448
0.0253836
0.0215589
0.017692
0.0138269
0.0100154
0.00629007
0.00268541
-0.000761763
-0.00401493
-0.00703878
-0.00979975
-0.0122665
-0.01441
-0.0162043
-0.0176259
-0.0186543
-0.0192718
-0.0194634
-0.0192167
-0.0185219
-0.0173715
-0.0157601
-0.0136844
-0.0111431
-0.00813631
-0.00466602
-0.000735475
0.0036508
0.00848715
0.0137669
0.0194825
0.0256257
0.0321875
0.0391584
0.0465285
0.0542873
0.0624243
0.0709286
0.0797891
0.0889949
0.0985346
0.108397
0.118571
0.129047
0.139812
0.150856
0.162169
0.17374
0.185559
0.197617
0.209904
0.222411
0.235128
0.248047
0.26116
0.274458
0.287934
0.301579
0.315388
0.329352
0.343466
0.357722
0.372115
0.386639
0.401288
0.416056
0.430938
0.44593
0.461026
0.476222
0.491513
0.506894
0.522362
0.537911
0.553538
0.569239
0.585008
0.600843
0.616739
0.632691
0.648696
0.664748
0.680843
0.696977
0.713144
0.72934
0.745559
0.761795
0.778042
0.794295
0.810546
0.826789
0.843017
0.859221
0.875394
0.891527
0.907611
0.923636
0.939592
0.955469
0.971255
0.986939
1.00251
1.01795
1.03325
1.04839
1.06337
1.07816
1.09275
1.10712
1.12126
1.13514
1.14876
1.16209
1.17511
1.18781
1.20017
1.21216
1.22377
1.23498
1.24577
1.25612
1.26601
1.27543
1.28436
1.29277
1.30067
1.30802
1.31482
1.32105
1.32671
1.33179
1.33628
1.34018
1.34348
1.34618
1.3483
1.34983
1.35079
1.35119
1.35104
1.35037
1.34919
1.34755
1.34545
1.34295
1.34007
1.33686
1.33336
1.32961
1.32566
1.32155
1.31732
1.31301
1.30869
1.30439
1.2998
1.29462
0.0400327
0.0346782
0.0300203
0.0257483
0.0215135
0.0173542
0.0133176
0.00942731
0.00570928
0.00219258
-0.00109337
-0.0041198
-0.00685902
-0.00928487
-0.0113731
-0.0131016
-0.0144505
-0.0154024
-0.015942
-0.0160566
-0.0157356
-0.0149707
-0.0137554
-0.0120855
-0.0099583
-0.007373
-0.00433023
-0.000832066
0.00311813
0.00751583
0.0123555
0.0176306
0.0233339
0.0294573
0.0359923
0.0429297
0.0502599
0.057973
0.0660587
0.0745066
0.0833061
0.0924464
0.101917
0.111707
0.121805
0.132202
0.142886
0.153847
0.165075
0.17656
0.188292
0.200262
0.212459
0.224876
0.237503
0.250332
0.263354
0.276562
0.289947
0.303503
0.317221
0.331096
0.345121
0.359289
0.373593
0.388029
0.40259
0.417271
0.432067
0.446972
0.461982
0.477092
0.492296
0.507591
0.522973
0.538436
0.553976
0.56959
0.585272
0.601019
0.616827
0.63269
0.648604
0.664566
0.68057
0.696611
0.712684
0.728785
0.744907
0.761046
0.777195
0.793348
0.809498
0.825639
0.841763
0.857862
0.873929
0.889955
0.90593
0.921846
0.937693
0.953459
0.969134
0.984706
1.00016
1.01549
1.03068
1.04572
1.06058
1.07526
1.08974
1.10401
1.11804
1.13183
1.14535
1.15858
1.17152
1.18413
1.19641
1.20832
1.21986
1.23101
1.24174
1.25204
1.26189
1.27127
1.28017
1.28856
1.29644
1.30379
1.3106
1.31685
1.32253
1.32765
1.33218
1.33612
1.33948
1.34225
1.34444
1.34605
1.34709
1.34757
1.34751
1.34692
1.34582
1.34424
1.34221
1.33975
1.33689
1.33367
1.33013
1.3263
1.32222
1.31793
1.31345
1.30882
1.30408
1.29929
1.29405
1.288
0.0459674
0.0398305
0.0345791
0.029851
0.0252323
0.0207572
0.0164697
0.0123861
0.00852465
0.00490785
0.00155875
-0.00149973
-0.00424527
-0.00665657
-0.00871375
-0.0103985
-0.0116945
-0.0125871
-0.0130638
-0.013114
-0.0127289
-0.0119018
-0.0106277
-0.00890325
-0.00672671
-0.00409789
-0.00101793
0.00251073
0.00648452
0.0108988
0.015748
0.0210257
0.0267247
0.0328372
0.0393548
0.0462686
0.0535694
0.0612475
0.069293
0.0776958
0.0864458
0.0955324
0.104945
0.114674
0.124708
0.135038
0.145652
0.156542
0.167696
0.179105
0.19076
0.202652
0.21477
0.227107
0.239653
0.252401
0.265341
0.278467
0.29177
0.305244
0.31888
0.332673
0.346616
0.360701
0.374924
0.389278
0.403758
0.418358
0.433072
0.447896
0.462825
0.477853
0.492977
0.508191
0.523491
0.538872
0.55433
0.569861
0.585461
0.601124
0.616847
0.632626
0.648455
0.66433
0.680247
0.6962
0.712184
0.728195
0.744227
0.760274
0.77633
0.792389
0.808445
0.82449
0.840517
0.856519
0.872488
0.888414
0.90429
0.920106
0.935852
0.951518
0.967092
0.982564
0.997921
1.01315
1.02824
1.04318
1.05795
1.07253
1.08692
1.1011
1.11505
1.12875
1.14219
1.15534
1.16821
1.18075
1.19296
1.20482
1.21631
1.2274
1.23809
1.24836
1.25818
1.26754
1.27643
1.28482
1.2927
1.30006
1.30688
1.31316
1.31888
1.32403
1.32861
1.33261
1.33603
1.33886
1.34112
1.3428
1.34391
1.34447
1.34447
1.34394
1.3429
1.34137
1.33937
1.33692
1.33405
1.33079
1.32718
1.32323
1.31899
1.31448
1.30973
1.30475
1.29959
1.29431
1.28842
1.28152
0.0517072
0.0448107
0.0389742
0.0337878
0.0287759
0.0239705
0.0194135
0.0151147
0.0110864
0.00734492
0.00390791
0.00079299
-0.00198238
-0.00440137
-0.00644814
-0.0081081
-0.00936807
-0.0102164
-0.010643
-0.0106396
-0.0101994
-0.00931707
-0.00798915
-0.0062134
-0.00398909
-0.00131675
0.00180186
0.00536384
0.00936527
0.0138013
0.0186662
0.0239536
0.0296562
0.0357664
0.0422758
0.0491759
0.0564575
0.0641112
0.0721274
0.0804963
0.0892079
0.0982521
0.107619
0.117298
0.12728
0.137553
0.148109
0.158938
0.170029
0.181374
0.192962
0.204786
0.216835
0.229101
0.241576
0.254251
0.267119
0.280171
0.293401
0.3068
0.320362
0.33408
0.347948
0.361959
0.376106
0.390385
0.40479
0.419314
0.433953
0.448701
0.463554
0.478506
0.493553
0.508691
0.523914
0.539218
0.554599
0.570052
0.585573
0.601157
0.6168
0.632499
0.648247
0.66404
0.679874
0.695744
0.711645
0.727571
0.743518
0.759478
0.775447
0.791419
0.807386
0.823342
0.839279
0.855191
0.871069
0.886905
0.90269
0.918415
0.93407
0.949645
0.965129
0.980511
0.995779
1.01092
1.02593
1.04078
1.05546
1.06997
1.08428
1.09838
1.11226
1.12589
1.13926
1.15236
1.16516
1.17766
1.18982
1.20163
1.21309
1.22415
1.23482
1.24507
1.25488
1.26424
1.27312
1.28152
1.28942
1.2968
1.30366
1.30997
1.31573
1.32093
1.32556
1.32962
1.3331
1.336
1.33832
1.34007
1.34125
1.34186
1.34193
1.34145
1.34045
1.33894
1.33694
1.33448
1.33158
1.32825
1.32454
1.32045
1.31603
1.31128
1.30622
1.30088
1.2953
1.28951
1.28299
1.27527
0.0571692
0.0495382
0.043129
0.0374865
0.0320776
0.0269328
0.0220933
0.0175635
0.0133502
0.00946479
0.00592002
0.00272884
-9.56689e-05
-0.00254078
-0.00459442
-0.00624541
-0.00748366
-0.00830032
-0.00868782
-0.00863996
-0.00815188
-0.00722007
-0.00584233
-0.00401772
-0.00174652
0.000969893
0.00412904
0.00772746
0.0117608
0.0162239
0.0211109
0.026415
0.0321292
0.0382456
0.044756
0.0516519
0.0589244
0.0665642
0.0745618
0.0829077
0.0915921
0.100605
0.109937
0.119578
0.129518
0.139747
0.150256
0.161034
0.172073
0.183364
0.194896
0.206662
0.218651
0.230857
0.24327
0.255882
0.268686
0.281674
0.294837
0.308171
0.321666
0.335317
0.349117
0.363059
0.377138
0.391348
0.405684
0.420138
0.434707
0.449386
0.464168
0.479049
0.494025
0.509091
0.524242
0.539473
0.554781
0.57016
0.585607
0.601117
0.616685
0.632308
0.64798
0.663696
0.679453
0.695244
0.711066
0.726913
0.742779
0.758658
0.774546
0.790436
0.80632
0.822194
0.838048
0.853877
0.869672
0.885425
0.901127
0.916769
0.932342
0.947836
0.96324
0.978543
0.993733
1.0088
1.02373
1.03851
1.05313
1.06756
1.08181
1.09585
1.10967
1.12325
1.13657
1.14962
1.16238
1.17484
1.18697
1.19876
1.21019
1.22125
1.23191
1.24215
1.25197
1.26134
1.27024
1.27866
1.28659
1.29401
1.30091
1.30727
1.31308
1.31833
1.32303
1.32715
1.33069
1.33366
1.33605
1.33786
1.3391
1.33977
1.33988
1.33944
1.33846
1.33696
1.33496
1.33246
1.3295
1.32609
1.32225
1.31801
1.31337
1.30836
1.303
1.29729
1.29127
1.28499
1.27785
1.26935
0.0622812
0.0539418
0.0469744
0.0408814
0.0350756
0.029587
0.0244566
0.0196845
0.0152729
0.0112289
0.00756084
0.00427768
0.00138849
-0.0010977
-0.00317229
-0.0048273
-0.00605558
-0.00685093
-0.00720818
-0.00712326
-0.00659322
-0.00561623
-0.00419156
-0.00231954
-1.52565e-06
0.00276016
0.00596227
0.00960071
0.0136706
0.0181664
0.0230818
0.02841
0.0341437
0.0402749
0.0467955
0.053697
0.0609703
0.0686065
0.0765962
0.08493
0.0935982
0.102591
0.111899
0.121513
0.131422
0.141618
0.15209
0.16283
0.173828
0.185074
0.196561
0.208279
0.220219
0.232373
0.244734
0.257292
0.270041
0.282972
0.296079
0.309354
0.32279
0.336381
0.35012
0.364002
0.378019
0.392167
0.406439
0.42083
0.435335
0.449949
0.464666
0.479482
0.494391
0.50939
0.524474
0.539638
0.554877
0.570188
0.585565
0.601005
0.616502
0.632053
0.647653
0.663297
0.678981
0.694699
0.710446
0.726218
0.742009
0.757814
0.773626
0.789439
0.805248
0.821045
0.836823
0.852576
0.868295
0.883973
0.8996
0.915168
0.930668
0.94609
0.961423
0.976657
0.99178
1.00678
1.02165
1.03637
1.05093
1.06531
1.07951
1.0935
1.10727
1.12081
1.1341
1.14712
1.15986
1.17229
1.18441
1.19619
1.20762
1.21868
1.22934
1.2396
1.24944
1.25883
1.26777
1.27623
1.2842
1.29167
1.29862
1.30504
1.31091
1.31623
1.32099
1.32518
1.3288
1.33183
1.33429
1.33616
1.33746
1.33818
1.33833
1.33791
1.33695
1.33545
1.33342
1.33088
1.32785
1.32433
1.32036
1.31593
1.31108
1.3058
1.30012
1.29403
1.28758
1.28082
1.27308
1.26382
0.0669797
0.0579579
0.0504481
0.0439126
0.037713
0.0318795
0.0264537
0.021432
0.0168127
0.0125992
0.00879626
0.00540901
0.00244303
-9.60143e-05
-0.0022027
-0.00387204
-0.00509964
-0.00588181
-0.00621572
-0.00609936
-0.00553168
-0.0045125
-0.00304258
-0.00112356
0.00124207
0.004051
0.00729915
0.0109817
0.0150933
0.0196277
0.0245783
0.0299381
0.0356994
0.0418543
0.0483943
0.055311
0.0625953
0.0702383
0.0782307
0.0865632
0.0952262
0.10421
0.113506
0.123103
0.132993
0.143167
0.153614
0.164325
0.175292
0.186505
0.197956
0.209636
0.221537
0.23365
0.245967
0.25848
0.271183
0.284066
0.297124
0.310349
0.323734
0.337272
0.350958
0.364786
0.378748
0.39284
0.407055
0.421389
0.435835
0.45039
0.465047
0.479803
0.494652
0.509589
0.52461
0.539711
0.554887
0.570133
0.585445
0.600819
0.616251
0.631735
0.647267
0.662844
0.678459
0.694108
0.709786
0.725489
0.74121
0.756944
0.772686
0.788429
0.804167
0.819894
0.835603
0.851286
0.866937
0.882546
0.898106
0.913609
0.929044
0.944403
0.959675
0.974849
0.989915
1.00486
1.01968
1.03435
1.04886
1.0632
1.07736
1.09132
1.10506
1.11857
1.13184
1.14485
1.15757
1.17001
1.18212
1.19391
1.20535
1.21643
1.22712
1.23741
1.24728
1.25672
1.2657
1.27422
1.28225
1.28978
1.29679
1.30328
1.30923
1.31462
1.31946
1.32372
1.32741
1.33052
1.33304
1.33498
1.33633
1.3371
1.33728
1.33689
1.33594
1.33442
1.33236
1.32977
1.32665
1.32301
1.31889
1.31427
1.30918
1.30364
1.29763
1.29116
1.28429
1.27705
1.26873
1.25876
0.0712082
0.0615293
0.0534937
0.0465252
0.039937
0.0337604
0.0280376
0.0227621
0.0179291
0.0135387
0.00959244
0.00609219
0.0030404
0.000439642
-0.00170758
-0.00339902
-0.00463289
-0.0054079
-0.00572343
-0.00557952
-0.00497691
-0.00391713
-0.0024024
-0.000435685
0.00197934
0.00483835
0.00813636
0.0118678
0.0160266
0.0206061
0.0255992
0.0309984
0.0367957
0.0429832
0.0495521
0.0564938
0.0637994
0.0714597
0.0794655
0.0878075
0.0964763
0.105462
0.114757
0.124349
0.134231
0.144393
0.154825
0.165519
0.176466
0.187656
0.199082
0.210734
0.222605
0.234686
0.246969
0.259447
0.272112
0.284956
0.297973
0.311156
0.324497
0.337991
0.351631
0.365411
0.379325
0.393367
0.407532
0.421814
0.436209
0.45071
0.465313
0.480014
0.494806
0.509687
0.524651
0.539693
0.55481
0.569996
0.585248
0.600561
0.615931
0.631353
0.646823
0.662335
0.677887
0.693472
0.709086
0.724723
0.740379
0.756049
0.771725
0.787404
0.803078
0.818741
0.834386
0.850007
0.865595
0.881144
0.896645
0.912089
0.927468
0.942772
0.957992
0.973117
0.988136
1.00304
1.01781
1.03244
1.04692
1.06123
1.07537
1.0893
1.10303
1.11653
1.12979
1.1428
1.15553
1.16797
1.1801
1.19191
1.20338
1.21449
1.22522
1.23556
1.24548
1.25498
1.26402
1.2726
1.28071
1.28831
1.29541
1.30197
1.30801
1.31349
1.31841
1.32276
1.32653
1.32971
1.33231
1.33431
1.33572
1.33653
1.33675
1.33638
1.33543
1.3339
1.3318
1.32913
1.32592
1.32216
1.31787
1.31306
1.30774
1.30191
1.29558
1.28874
1.28145
1.27374
1.26487
1.2542
0.0749163
0.0646048
0.0560598
0.0486686
0.0416988
0.0351826
0.0291636
0.023633
0.018583
0.0140111
0.00991595
0.00629665
0.00315276
0.000484075
-0.00170958
-0.00342855
-0.00467343
-0.00544525
-0.00574548
-0.00557614
-0.00493977
-0.00383952
-0.00227911
-0.000262855
0.0022044
0.00511724
0.00846977
0.0122556
0.0164679
0.0210995
0.0261426
0.0315895
0.0374318
0.0436611
0.0502686
0.0572454
0.0645826
0.0722708
0.0803009
0.0886634
0.0973491
0.106349
0.115652
0.125251
0.135136
0.145297
0.155726
0.166413
0.17735
0.188529
0.199939
0.211574
0.223424
0.235483
0.247742
0.260193
0.272829
0.285642
0.298627
0.311775
0.325081
0.338537
0.352138
0.365878
0.37975
0.39375
0.40787
0.422107
0.436455
0.450909
0.465463
0.480114
0.494856
0.509685
0.524596
0.539585
0.554647
0.569778
0.584974
0.600231
0.615543
0.630907
0.646319
0.661773
0.677265
0.69279
0.708344
0.723922
0.739518
0.755128
0.770745
0.786364
0.801979
0.817584
0.833172
0.848736
0.864269
0.879764
0.895213
0.910607
0.925938
0.941196
0.956372
0.971456
0.986437
1.0013
1.01605
1.03065
1.04511
1.0594
1.07352
1.08745
1.10117
1.11467
1.12794
1.14096
1.15371
1.16618
1.17834
1.19019
1.2017
1.21286
1.22364
1.23404
1.24403
1.2536
1.26272
1.27139
1.27958
1.28727
1.29446
1.30112
1.30725
1.31283
1.31784
1.32228
1.32615
1.32942
1.33209
1.33416
1.33563
1.33649
1.33675
1.3364
1.33544
1.33389
1.33174
1.32901
1.3257
1.32181
1.31736
1.31235
1.30679
1.30068
1.29402
1.28681
1.27911
1.27095
1.26154
1.25021
0.0780585
0.0671374
0.0580991
0.0502962
0.0429526
0.0361019
0.0297895
0.0240044
0.0187364
0.0139809
0.00973383
0.00599191
0.00275211
1.16971e-05
-0.00223199
-0.00398166
-0.00524021
-0.00601082
-0.00629699
-0.00610263
-0.00543206
-0.00429004
-0.00268176
-0.000612879
0.00191053
0.00488198
0.00829457
0.0121411
0.0164139
0.0211052
0.0262067
0.03171
0.0376064
0.0438873
0.0505434
0.0575658
0.0649451
0.0726722
0.0807375
0.0891318
0.0978455
0.106869
0.116194
0.125811
0.135709
0.145881
0.156317
0.167009
0.177947
0.189123
0.200529
0.212156
0.223996
0.236042
0.248285
0.260718
0.273334
0.286126
0.299086
0.312208
0.325486
0.338913
0.352482
0.366188
0.380026
0.393988
0.408071
0.422269
0.436576
0.450987
0.465499
0.480105
0.494801
0.509583
0.524447
0.539387
0.554399
0.56948
0.584625
0.599829
0.615089
0.630399
0.645757
0.661156
0.676593
0.692064
0.707563
0.723085
0.738626
0.754181
0.769743
0.785308
0.80087
0.816422
0.831959
0.847473
0.862958
0.878405
0.893809
0.90916
0.92445
0.93967
0.954811
0.969863
0.984816
0.999659
1.01438
1.02897
1.04341
1.0577
1.07182
1.08575
1.09948
1.113
1.12628
1.13933
1.15211
1.16462
1.17683
1.18873
1.2003
1.21152
1.22238
1.23285
1.24293
1.25258
1.2618
1.27056
1.27885
1.28665
1.29394
1.30071
1.30695
1.31264
1.31776
1.3223
1.32626
1.32963
1.33239
1.33454
1.33607
1.33698
1.33728
1.33695
1.33599
1.33442
1.33223
1.32942
1.32601
1.32199
1.31737
1.31216
1.30636
1.29997
1.29299
1.28543
1.27732
1.26873
1.25879
1.24682
0.0805934
0.069084
0.059568
0.0513645
0.0436556
0.0364767
0.0298749
0.0238376
0.0183527
0.0134134
0.00901358
0.00514769
0.00181039
-0.00100337
-0.00329852
-0.00508001
-0.00635288
-0.00712236
-0.0073939
-0.00717326
-0.00646646
-0.00527987
-0.00362015
-0.0014943
0.00109037
0.00412624
0.00760544
0.0115198
0.0158609
0.0206203
0.025789
0.0313581
0.0373186
0.0436611
0.0503763
0.0574549
0.0648875
0.0726644
0.0807763
0.0892136
0.0979668
0.107027
0.116384
0.126029
0.135953
0.146146
0.156601
0.167307
0.178257
0.189442
0.200853
0.212482
0.224322
0.236364
0.248601
0.261026
0.273631
0.286409
0.299353
0.312457
0.325714
0.339118
0.352663
0.366343
0.380152
0.394085
0.408136
0.4223
0.436572
0.450948
0.465421
0.479988
0.494644
0.509384
0.524204
0.5391
0.554068
0.569103
0.5842
0.599357
0.614568
0.629829
0.645137
0.660486
0.675873
0.691293
0.706741
0.722213
0.737703
0.753208
0.768721
0.784237
0.79975
0.815256
0.830747
0.846216
0.861659
0.877066
0.892431
0.907746
0.923003
0.938193
0.953307
0.968335
0.983268
0.998096
1.01281
1.02739
1.04183
1.05612
1.07025
1.08419
1.09794
1.11149
1.12481
1.13789
1.15072
1.16328
1.17555
1.18752
1.19916
1.21047
1.22141
1.23198
1.24215
1.25191
1.26123
1.27011
1.27851
1.28643
1.29385
1.30074
1.3071
1.31291
1.31815
1.32281
1.32688
1.33035
1.33321
1.33544
1.33705
1.33802
1.33835
1.33804
1.33709
1.3355
1.33326
1.33039
1.32687
1.32272
1.31794
1.31253
1.30649
1.29983
1.29254
1.28461
1.27612
1.2671
1.25666
1.24407
0.0824828
0.070405
0.0604259
0.0518327
0.0437673
0.036267
0.0293811
0.0230954
0.0173961
0.0122746
0.00772312
0.00373387
0.000299477
-0.00258722
-0.00493328
-0.00674573
-0.00803166
-0.00879825
-0.00905284
-0.00880296
-0.00805633
-0.00682087
-0.00510473
-0.00291626
-0.00026402
0.00284325
0.00639661
0.010387
0.0148051
0.0196417
0.0248873
0.0305323
0.036567
0.0429819
0.0497672
0.0569133
0.0644103