/*--------------------------------*- C++ -*----------------------------------*\
  =========                 |
  \\      /  F ield         | OpenFOAM: The Open Source CFD Toolbox
   \\    /   O peration     | Website:  https://openfoam.org
    \\  /    A nd           | Version:  7
     \\/     M anipulation  |
\*---------------------------------------------------------------------------*/
FoamFile
{
    version     2.0;
    format      ascii;
    class       surfaceScalarField;
    location    "0.4875";
    object      phi;
}
// * * * * * * * * * * * * * * * * * * * * * * * * * * * * * * * * * * * * * //

dimensions      [0 3 -1 0 0 0 0];

internalField   nonuniform List<scalar> 
25360
(
1.14474e-10
-1.14174e-10
3.59668e-10
-2.45194e-10
6.04276e-10
-2.44609e-10
7.65146e-10
-1.6087e-10
7.98133e-10
-3.29875e-11
6.81425e-10
1.16707e-10
4.0639e-10
2.75035e-10
-2.76459e-11
4.34035e-10
-6.1655e-10
5.88904e-10
-1.3533e-09
7.36749e-10
-2.22913e-09
8.75831e-10
-3.23427e-09
1.00514e-09
-4.35842e-09
1.12415e-09
-5.59105e-09
1.23263e-09
-6.92164e-09
1.33059e-09
-8.33982e-09
1.41818e-09
-9.83549e-09
1.49567e-09
-1.13989e-08
1.56338e-09
-1.30206e-08
1.62171e-09
-1.46916e-08
1.67107e-09
-1.64036e-08
1.71192e-09
-1.81483e-08
1.74472e-09
-1.99182e-08
1.76994e-09
-2.17063e-08
1.78807e-09
-2.35059e-08
1.79957e-09
-2.53108e-08
1.80492e-09
-2.71153e-08
1.80456e-09
-2.89143e-08
1.79897e-09
-3.07029e-08
1.78856e-09
-3.24766e-08
1.77377e-09
-3.42316e-08
1.75501e-09
-3.59643e-08
1.73265e-09
-3.76714e-08
1.70709e-09
-3.93501e-08
1.67867e-09
-4.09978e-08
1.64773e-09
-4.26124e-08
1.61459e-09
-4.41919e-08
1.57956e-09
-4.57349e-08
1.54292e-09
-4.72398e-08
1.50493e-09
-4.87056e-08
1.46584e-09
-5.01315e-08
1.42588e-09
-5.15168e-08
1.38527e-09
-5.2861e-08
1.34418e-09
-5.41638e-08
1.30282e-09
-5.54251e-08
1.26133e-09
-5.6645e-08
1.21987e-09
-5.78235e-08
1.17856e-09
-5.89611e-08
1.13754e-09
-6.0058e-08
1.0969e-09
-6.11147e-08
1.05674e-09
-6.21319e-08
1.01713e-09
-6.311e-08
9.78158e-10
-6.40499e-08
9.39865e-10
-6.49522e-08
9.02307e-10
-6.58177e-08
8.6552e-10
-6.66472e-08
8.29536e-10
-6.74416e-08
7.94373e-10
-6.82016e-08
7.60044e-10
-6.89282e-08
7.26553e-10
-6.96221e-08
6.93899e-10
-7.02842e-08
6.62074e-10
-7.09152e-08
6.31063e-10
-7.15161e-08
6.00845e-10
-7.20875e-08
5.71395e-10
-7.26302e-08
5.4268e-10
-7.31448e-08
5.14666e-10
-7.36321e-08
4.87313e-10
-7.40927e-08
4.60578e-10
-7.45271e-08
4.34415e-10
-7.49359e-08
4.08771e-10
-7.53195e-08
3.83594e-10
-7.56783e-08
3.58825e-10
-7.60127e-08
3.34406e-10
-7.6323e-08
3.10275e-10
-7.66094e-08
2.8637e-10
-7.6872e-08
2.62625e-10
-7.7111e-08
2.38971e-10
-7.73263e-08
2.15338e-10
-7.75179e-08
1.91656e-10
-7.76858e-08
1.67854e-10
-7.78297e-08
1.43859e-10
-7.79493e-08
1.19598e-10
-7.80443e-08
9.49969e-11
-7.81142e-08
6.99805e-11
-7.81587e-08
4.44743e-11
-7.81771e-08
1.8404e-11
-7.81688e-08
-8.30369e-12
-7.81331e-08
-3.57216e-11
-7.80692e-08
-6.39216e-11
-7.79762e-08
-9.29748e-11
-7.78532e-08
-1.2295e-10
-7.76993e-08
-1.53914e-10
-7.75134e-08
-1.85931e-10
-7.72943e-08
-2.19062e-10
-7.7041e-08
-2.53364e-10
-7.67521e-08
-2.88891e-10
-7.64264e-08
-3.25691e-10
-7.60626e-08
-3.6381e-10
-7.56593e-08
-4.03284e-10
-7.52152e-08
-4.44145e-10
-7.47287e-08
-4.86418e-10
-7.41986e-08
-5.30119e-10
-7.36234e-08
-5.75257e-10
-7.30015e-08
-6.21829e-10
-7.23317e-08
-6.69824e-10
-7.16125e-08
-7.19221e-10
-7.08425e-08
-7.69983e-10
-7.00205e-08
-8.22063e-10
-6.91451e-08
-8.75402e-10
-6.82151e-08
-9.29923e-10
-6.72296e-08
-9.85536e-10
-6.61875e-08
-1.04213e-09
-6.50879e-08
-1.09959e-09
-6.39301e-08
-1.15777e-09
-6.27136e-08
-1.21651e-09
-6.1438e-08
-1.27562e-09
-6.01031e-08
-1.33492e-09
-5.87089e-08
-1.39417e-09
-5.72558e-08
-1.45315e-09
-5.57442e-08
-1.51158e-09
-5.4175e-08
-1.56919e-09
-5.25493e-08
-1.62567e-09
-5.08686e-08
-1.68069e-09
-4.91347e-08
-1.73391e-09
-4.73498e-08
-1.78496e-09
-4.55163e-08
-1.83345e-09
-4.36374e-08
-1.87897e-09
-4.17162e-08
-1.92111e-09
-3.97569e-08
-1.9594e-09
-3.77635e-08
-1.9934e-09
-3.57408e-08
-2.02263e-09
-3.36942e-08
-2.04661e-09
-3.16294e-08
-2.06484e-09
-2.95526e-08
-2.0768e-09
-2.74706e-08
-2.082e-09
-2.53907e-08
-2.07991e-09
-2.33207e-08
-2.07002e-09
-2.12688e-08
-2.05182e-09
-1.9244e-08
-2.02479e-09
-1.72556e-08
-1.98846e-09
-1.53133e-08
-1.94232e-09
-1.34273e-08
-1.88593e-09
-1.16085e-08
-1.81885e-09
-9.86779e-09
-1.7407e-09
-8.21669e-09
-1.65111e-09
-6.66688e-09
-1.54981e-09
-5.23028e-09
-1.4366e-09
-3.91888e-09
-1.3114e-09
-2.7446e-09
-1.17428e-09
-1.71905e-09
-1.02555e-09
-8.53201e-10
-8.6585e-10
-1.56885e-10
-6.96316e-10
3.6198e-10
-5.18866e-10
6.98646e-10
-3.36667e-10
8.53606e-10
-1.54962e-10
8.36098e-10
1.75071e-11
6.69942e-10
1.66155e-10
4.03896e-10
2.66047e-10
1.30769e-10
2.73127e-10
1.30769e-10
2.45544e-10
-3.59718e-10
6.34149e-10
-6.33799e-10
9.50203e-10
-5.60663e-10
1.047e-09
-2.57665e-10
8.28679e-10
1.85329e-10
2.38756e-10
7.0663e-10
-7.51149e-10
1.26494e-09
-2.15006e-09
1.83295e-09
-3.95387e-09
2.39271e-09
-6.14957e-09
2.93246e-09
-8.71832e-09
3.44458e-09
-1.16374e-08
3.92422e-09
-1.48817e-08
4.36848e-09
-1.84249e-08
4.77577e-09
-2.22398e-08
5.14547e-09
-2.62992e-08
5.47764e-09
-3.05764e-08
5.77284e-09
-3.5045e-08
6.03199e-09
-3.96796e-08
6.25627e-09
-4.44556e-08
6.44707e-09
-4.93495e-08
6.60588e-09
-5.43391e-08
6.73432e-09
-5.94033e-08
6.83407e-09
-6.4522e-08
6.90681e-09
-6.96767e-08
6.95427e-09
-7.48499e-08
6.97816e-09
-8.00255e-08
6.98017e-09
-8.51886e-08
6.96198e-09
-9.03252e-08
6.92522e-09
-9.54229e-08
6.87146e-09
-1.0047e-07
6.80225e-09
-1.05457e-07
6.71907e-09
-1.10373e-07
6.62332e-09
-1.1521e-07
6.51638e-09
-1.19962e-07
6.39952e-09
-1.24622e-07
6.27397e-09
-1.29183e-07
6.14089e-09
-1.33641e-07
6.00136e-09
-1.37993e-07
5.85641e-09
-1.42234e-07
5.707e-09
-1.46362e-07
5.55399e-09
-1.50375e-07
5.39823e-09
-1.54271e-07
5.24046e-09
-1.5805e-07
5.08139e-09
-1.6171e-07
4.92165e-09
-1.65252e-07
4.76181e-09
-1.68676e-07
4.60241e-09
-1.71982e-07
4.4439e-09
-1.75172e-07
4.2867e-09
-1.78247e-07
4.13119e-09
-1.81207e-07
3.97768e-09
-1.84055e-07
3.82644e-09
-1.86793e-07
3.67772e-09
-1.89423e-07
3.5317e-09
-1.91946e-07
3.38855e-09
-1.94365e-07
3.24837e-09
-1.96681e-07
3.11127e-09
-1.98899e-07
2.97729e-09
-2.01019e-07
2.84645e-09
-2.03043e-07
2.71877e-09
-2.04976e-07
2.59421e-09
-2.06817e-07
2.47271e-09
-2.08571e-07
2.35421e-09
-2.10238e-07
2.23862e-09
-2.11821e-07
2.12581e-09
-2.13322e-07
2.01565e-09
-2.14743e-07
1.908e-09
-2.16085e-07
1.80269e-09
-2.1735e-07
1.69954e-09
-2.18539e-07
1.59836e-09
-2.19655e-07
1.49895e-09
-2.20697e-07
1.40108e-09
-2.21667e-07
1.30454e-09
-2.22566e-07
1.20909e-09
-2.23394e-07
1.11448e-09
-2.24152e-07
1.02046e-09
-2.2484e-07
9.26781e-10
-2.25458e-07
8.33167e-10
-2.26005e-07
7.39352e-10
-2.26483e-07
6.45062e-10
-2.26889e-07
5.50017e-10
-2.27223e-07
4.53938e-10
-2.27485e-07
3.56543e-10
-2.27672e-07
2.57547e-10
-2.27784e-07
1.56666e-10
-2.2782e-07
5.3617e-11
-2.27776e-07
-5.18809e-11
-2.27652e-07
-1.60105e-10
-2.27444e-07
-2.71328e-10
-2.27151e-07
-3.85817e-10
-2.2677e-07
-5.03833e-10
-2.26299e-07
-6.25627e-10
-2.25733e-07
-7.51441e-10
-2.25071e-07
-8.81502e-10
-2.24308e-07
-1.01603e-09
-2.23442e-07
-1.15521e-09
-2.22468e-07
-1.29924e-09
-2.21384e-07
-1.44827e-09
-2.20185e-07
-1.60244e-09
-2.18867e-07
-1.76186e-09
-2.17427e-07
-1.92662e-09
-2.1586e-07
-2.09677e-09
-2.14163e-07
-2.27233e-09
-2.12332e-07
-2.45328e-09
-2.10362e-07
-2.63958e-09
-2.0825e-07
-2.83111e-09
-2.05992e-07
-3.02774e-09
-2.03585e-07
-3.22928e-09
-2.01025e-07
-3.43547e-09
-1.98309e-07
-3.64601e-09
-1.95434e-07
-3.86055e-09
-1.92397e-07
-4.07867e-09
-1.89197e-07
-4.29987e-09
-1.85831e-07
-4.52361e-09
-1.82298e-07
-4.74925e-09
-1.78598e-07
-4.97609e-09
-1.7473e-07
-5.20338e-09
-1.70693e-07
-5.43024e-09
-1.66491e-07
-5.65577e-09
-1.62124e-07
-5.87894e-09
-1.57594e-07
-6.09867e-09
-1.52906e-07
-6.31379e-09
-1.48064e-07
-6.52305e-09
-1.43072e-07
-6.72512e-09
-1.37939e-07
-6.91861e-09
-1.3267e-07
-7.10202e-09
-1.27275e-07
-7.27382e-09
-1.21764e-07
-7.43238e-09
-1.16147e-07
-7.57603e-09
-1.10438e-07
-7.70303e-09
-1.04649e-07
-7.81159e-09
-9.87956e-08
-7.89989e-09
-9.28943e-08
-7.96607e-09
-8.69629e-08
-8.00822e-09
-8.10205e-08
-8.02446e-09
-7.50875e-08
-8.01287e-09
-6.9186e-08
-7.97156e-09
-6.33391e-08
-7.89866e-09
-5.75716e-08
-7.79233e-09
-5.19092e-08
-7.65081e-09
-4.63792e-08
-7.4724e-09
-4.10096e-08
-7.25553e-09
-3.58297e-08
-6.99875e-09
-3.08696e-08
-6.70082e-09
-2.616e-08
-6.36071e-09
-2.1732e-08
-5.97772e-09
-1.76171e-08
-5.55154e-09
-1.38461e-08
-5.08241e-09
-1.04491e-08
-4.57131e-09
-7.45439e-09
-4.02023e-09
-4.88767e-09
-3.43257e-09
-2.77017e-09
-2.81382e-09
-1.11658e-09
-2.17245e-09
6.81717e-11
-1.52142e-09
7.93733e-10
-8.80524e-10
1.09116e-09
-2.79924e-10
1.02286e-09
2.34455e-10
6.95418e-10
5.93488e-10
2.73153e-10
6.9539e-10
4.03922e-10
2.45886e-10
-6.05604e-10
5.6365e-10
-9.51565e-10
6.98084e-10
-6.95098e-10
4.75189e-10
-3.47705e-11
-2.24736e-10
8.85253e-10
-1.47758e-09
1.95948e-09
-3.32524e-09
3.11259e-09
-5.78425e-09
4.29196e-09
-8.85264e-09
5.46109e-09
-1.25151e-08
6.59488e-09
-1.67467e-08
7.67627e-09
-2.15164e-08
8.69388e-09
-2.67883e-08
9.64043e-09
-3.25241e-08
1.05116e-08
-3.86838e-08
1.13051e-08
-4.52267e-08
1.20205e-08
-5.21122e-08
1.26583e-08
-5.93002e-08
1.322e-08
-6.67515e-08
1.37076e-08
-7.44283e-08
1.41239e-08
-8.22941e-08
1.44717e-08
-9.0314e-08
1.47542e-08
-9.84548e-08
1.49749e-08
-1.06685e-07
1.51373e-08
-1.14976e-07
1.52449e-08
-1.23299e-07
1.53013e-08
-1.31629e-07
1.53101e-08
-1.39942e-07
1.52748e-08
-1.48216e-07
1.5199e-08
-1.5643e-07
1.50859e-08
-1.64567e-07
1.49389e-08
-1.72609e-07
1.47612e-08
-1.80541e-07
1.45557e-08
-1.8835e-07
1.43255e-08
-1.96024e-07
1.40734e-08
-2.03552e-07
1.38019e-08
-2.10925e-07
1.35137e-08
-2.18134e-07
1.3211e-08
-2.25174e-07
1.28961e-08
-2.32038e-07
1.25711e-08
-2.38722e-07
1.22379e-08
-2.45222e-07
1.18984e-08
-2.51536e-07
1.15542e-08
-2.57662e-07
1.12068e-08
-2.63597e-07
1.08576e-08
-2.69344e-07
1.05079e-08
-2.749e-07
1.01589e-08
-2.80268e-07
9.81162e-09
-2.85448e-07
9.46692e-09
-2.90443e-07
9.12566e-09
-2.95253e-07
8.78854e-09
-2.99883e-07
8.4562e-09
-3.04335e-07
8.12914e-09
-3.08611e-07
7.8078e-09
-3.12715e-07
7.49255e-09
-3.1665e-07
7.18365e-09
-3.2042e-07
6.8813e-09
-3.24028e-07
6.58565e-09
-3.27479e-07
6.29675e-09
-3.30774e-07
6.01461e-09
-3.33919e-07
5.73918e-09
-3.36917e-07
5.47036e-09
-3.39771e-07
5.20799e-09
-3.42484e-07
4.95187e-09
-3.4506e-07
4.70177e-09
-3.47502e-07
4.4574e-09
-3.49812e-07
4.21843e-09
-3.51994e-07
3.98452e-09
-3.5405e-07
3.75527e-09
-3.55982e-07
3.53028e-09
-3.57792e-07
3.3091e-09
-3.59482e-07
3.09126e-09
-3.61054e-07
2.87627e-09
-3.62508e-07
2.66362e-09
-3.63847e-07
2.45279e-09
-3.65069e-07
2.24322e-09
-3.66177e-07
2.03435e-09
-3.67169e-07
1.82561e-09
-3.68046e-07
1.61641e-09
-3.68808e-07
1.40615e-09
-3.69452e-07
1.19423e-09
-3.69978e-07
9.80048e-10
-3.70384e-07
7.62978e-10
-3.70669e-07
5.4241e-10
-3.7083e-07
3.17727e-10
-3.70865e-07
8.83161e-11
-3.7077e-07
-1.4643e-10
-3.70543e-07
-3.87113e-10
-3.7018e-07
-6.34321e-10
-3.69678e-07
-8.88632e-10
-3.69031e-07
-1.1506e-09
-3.68236e-07
-1.42078e-09
-3.67287e-07
-1.69968e-09
-3.66181e-07
-1.98778e-09
-3.64912e-07
-2.28556e-09
-3.63473e-07
-2.59342e-09
-3.61861e-07
-2.91176e-09
-3.60068e-07
-3.24092e-09
-3.58089e-07
-3.58117e-09
-3.55919e-07
-3.93275e-09
-3.53549e-07
-4.29582e-09
-3.50976e-07
-4.6705e-09
-3.48191e-07
-5.05681e-09
-3.4519e-07
-5.45469e-09
-3.41965e-07
-5.86402e-09
-3.38512e-07
-6.28455e-09
-3.34824e-07
-6.71596e-09
-3.30895e-07
-7.1578e-09
-3.26721e-07
-7.60952e-09
-3.22297e-07
-8.07045e-09
-3.17617e-07
-8.53979e-09
-3.1268e-07
-9.0166e-09
-3.0748e-07
-9.4998e-09
-3.02015e-07
-9.98817e-09
-2.96284e-07
-1.04803e-08
-2.90285e-07
-1.09748e-08
-2.84019e-07
-1.14697e-08
-2.77486e-07
-1.19634e-08
-2.70688e-07
-1.24538e-08
-2.63628e-07
-1.29386e-08
-2.56311e-07
-1.34155e-08
-2.48743e-07
-1.3882e-08
-2.40931e-07
-1.43353e-08
-2.32884e-07
-1.47725e-08
-2.24612e-07
-1.51907e-08
-2.16127e-07
-1.55865e-08
-2.07444e-07
-1.59568e-08
-1.98579e-07
-1.62979e-08
-1.89548e-07
-1.66062e-08
-1.80373e-07
-1.68781e-08
-1.71075e-07
-1.71096e-08
-1.61678e-07
-1.72969e-08
-1.52208e-07
-1.7436e-08
-1.42694e-07
-1.75228e-08
-1.33165e-07
-1.75534e-08
-1.23654e-07
-1.75236e-08
-1.14196e-07
-1.74295e-08
-1.04828e-07
-1.72671e-08
-9.55874e-08
-1.70327e-08
-8.65156e-08
-1.67226e-08
-7.76546e-08
-1.63334e-08
-6.90482e-08
-1.58619e-08
-6.07415e-08
-1.53054e-08
-5.27808e-08
-1.46616e-08
-4.52129e-08
-1.39286e-08
-3.80851e-08
-1.31055e-08
-3.14442e-08
-1.21924e-08
-2.53361e-08
-1.11905e-08
-1.98046e-08
-1.01028e-08
-1.48902e-08
-8.93472e-09
-1.06281e-08
-7.69466e-09
-7.04635e-09
-6.39554e-09
-4.1624e-09
-5.0564e-09
-1.97876e-09
-3.70507e-09
-4.77391e-10
-2.3819e-09
3.87934e-10
-1.14525e-09
7.01366e-10
-7.89779e-11
5.96193e-10
6.98659e-10
2.66943e-10
1.02464e-09
6.70865e-10
1.63829e-10
-7.69434e-10
2.64927e-10
-1.05266e-09
4.45158e-11
-4.74687e-10
-6.77795e-10
6.87539e-10
-2.02878e-09
2.23623e-09
-4.09167e-09
4.02236e-09
-6.91457e-09
5.9355e-09
-1.0518e-08
7.89541e-09
-1.49013e-08
9.84436e-09
-2.00476e-08
1.17412e-08
-2.59281e-08
1.35568e-08
-3.25056e-08
1.52713e-08
-3.97365e-08
1.68713e-08
-4.75731e-08
1.83482e-08
-5.59654e-08
1.96975e-08
-6.48619e-08
2.0917e-08
-7.42107e-08
2.20071e-08
-8.39601e-08
2.29694e-08
-9.40596e-08
2.38071e-08
-1.0446e-07
2.4524e-08
-1.15113e-07
2.51247e-08
-1.25973e-07
2.56143e-08
-1.36996e-07
2.59984e-08
-1.48142e-07
2.62827e-08
-1.5937e-07
2.6473e-08
-1.70644e-07
2.65754e-08
-1.8193e-07
2.65959e-08
-1.93195e-07
2.65402e-08
-2.04411e-07
2.64145e-08
-2.15549e-07
2.62242e-08
-2.26585e-07
2.59752e-08
-2.37497e-07
2.56727e-08
-2.48263e-07
2.5322e-08
-2.58866e-07
2.49281e-08
-2.69288e-07
2.44958e-08
-2.79516e-07
2.40297e-08
-2.89536e-07
2.3534e-08
-2.99338e-07
2.3013e-08
-3.08912e-07
2.24703e-08
-3.18251e-07
2.19097e-08
-3.27348e-07
2.13345e-08
-3.36197e-07
2.07478e-08
-3.44795e-07
2.01525e-08
-3.5314e-07
1.95513e-08
-3.61229e-07
1.89466e-08
-3.69061e-07
1.83406e-08
-3.76638e-07
1.77353e-08
-3.83959e-07
1.71326e-08
-3.91026e-07
1.65341e-08
-3.97841e-07
1.59411e-08
-4.04408e-07
1.53551e-08
-4.10729e-07
1.47769e-08
-4.16807e-07
1.42077e-08
-4.22647e-07
1.3648e-08
-4.28253e-07
1.30987e-08
-4.3363e-07
1.25601e-08
-4.38781e-07
1.20326e-08
-4.43712e-07
1.15165e-08
-4.48427e-07
1.10119e-08
-4.52931e-07
1.05189e-08
-4.5723e-07
1.00373e-08
-4.61326e-07
9.56696e-09
-4.65226e-07
9.10768e-09
-4.68933e-07
8.65909e-09
-4.72452e-07
8.2208e-09
-4.75787e-07
7.79231e-09
-4.78942e-07
7.37308e-09
-4.8192e-07
6.96251e-09
-4.84724e-07
6.55993e-09
-4.87359e-07
6.16464e-09
-4.89825e-07
5.77587e-09
-4.92127e-07
5.39282e-09
-4.94265e-07
5.01465e-09
-4.96242e-07
4.64048e-09
-4.98059e-07
4.2694e-09
-4.99716e-07
3.90046e-09
-5.01214e-07
3.5327e-09
-5.02554e-07
3.16513e-09
-5.03734e-07
2.79674e-09
-5.04755e-07
2.42651e-09
-5.05614e-07
2.05338e-09
-5.0631e-07
1.67632e-09
-5.06841e-07
1.29426e-09
-5.07205e-07
9.06152e-10
-5.07398e-07
5.10935e-10
-5.07418e-07
1.07557e-10
-5.07259e-07
-3.05026e-10
-5.06918e-07
-7.27842e-10
-5.06391e-07
-1.1619e-09
-5.05671e-07
-1.60819e-09
-5.04754e-07
-2.06767e-09
-5.03634e-07
-2.54126e-09
-5.02303e-07
-3.02984e-09
-5.00757e-07
-3.53424e-09
-4.98987e-07
-4.05524e-09
-4.96987e-07
-4.59355e-09
-4.94749e-07
-5.14983e-09
-4.92265e-07
-5.72462e-09
-4.89528e-07
-6.31842e-09
-4.86529e-07
-6.93159e-09
-4.83261e-07
-7.56442e-09
-4.79714e-07
-8.21705e-09
-4.75881e-07
-8.88951e-09
-4.71754e-07
-9.58169e-09
-4.67325e-07
-1.02933e-08
-4.62586e-07
-1.1024e-08
-4.57529e-07
-1.17731e-08
-4.52147e-07
-1.25398e-08
-4.46433e-07
-1.33233e-08
-4.40381e-07
-1.41222e-08
-4.33986e-07
-1.49352e-08
-4.27242e-07
-1.57606e-08
-4.20145e-07
-1.65965e-08
-4.12692e-07
-1.74409e-08
-4.04881e-07
-1.82914e-08
-3.96711e-07
-1.91451e-08
-3.88181e-07
-1.99994e-08
-3.79294e-07
-2.08508e-08
-3.70052e-07
-2.16959e-08
-3.6046e-07
-2.25309e-08
-3.50523e-07
-2.33516e-08
-3.40252e-07
-2.41538e-08
-3.29654e-07
-2.49328e-08
-3.18743e-07
-2.56835e-08
-3.07533e-07
-2.64008e-08
-2.9604e-07
-2.70791e-08
-2.84284e-07
-2.77128e-08
-2.72287e-07
-2.82958e-08
-2.60071e-07
-2.8822e-08
-2.47664e-07
-2.9285e-08
-2.35095e-07
-2.96783e-08
-2.22397e-07
-2.99952e-08
-2.09604e-07
-3.0229e-08
-1.96754e-07
-3.03727e-08
-1.83888e-07
-3.04198e-08
-1.71048e-07
-3.03632e-08
-1.58281e-07
-3.01965e-08
-1.45635e-07
-2.9913e-08
-1.33161e-07
-2.95065e-08
-1.20913e-07
-2.8971e-08
-1.08945e-07
-2.8301e-08
-9.73158e-08
-2.74915e-08
-8.60831e-08
-2.65382e-08
-7.5307e-08
-2.54377e-08
-6.5048e-08
-2.41876e-08
-5.53663e-08
-2.27871e-08
-4.63216e-08
-2.12371e-08
-3.79713e-08
-1.95408e-08
-3.03698e-08
-1.77044e-08
-2.35664e-08
-1.57381e-08
-1.76035e-08
-1.36576e-08
-1.25135e-08
-1.14855e-08
-8.31551e-09
-9.2544e-09
-5.01054e-09
-7.01003e-09
-2.576e-09
-4.81644e-09
-9.58587e-10
-2.76266e-09
-6.58899e-11
-9.71676e-10
2.43053e-10
3.89715e-10
1.69041e-10
1.09865e-09
8.39906e-10
3.78016e-11
-8.07236e-10
-1.74041e-10
-8.40822e-10
-8.70377e-10
2.21647e-10
-2.2213e-09
2.03846e-09
-4.34862e-09
4.36355e-09
-7.33388e-09
7.00762e-09
-1.1225e-08
9.82666e-09
-1.60426e-08
1.2713e-08
-2.17852e-08
1.55869e-08
-2.84339e-08
1.83899e-08
-3.59567e-08
2.10796e-08
-4.43111e-08
2.36258e-08
-5.34476e-08
2.60078e-08
-6.33113e-08
2.82119e-08
-7.38439e-08
3.02301e-08
-8.49852e-08
3.20583e-08
-9.66739e-08
3.36958e-08
-1.08849e-07
3.51445e-08
-1.2145e-07
3.64079e-08
-1.34417e-07
3.74915e-08
-1.47694e-07
3.84015e-08
-1.61225e-07
3.91451e-08
-1.74957e-07
3.97302e-08
-1.88839e-07
4.0165e-08
-2.02824e-07
4.04582e-08
-2.16867e-07
4.06185e-08
-2.30926e-07
4.06547e-08
-2.44961e-07
4.05756e-08
-2.58937e-07
4.03899e-08
-2.72819e-07
4.01062e-08
-2.86577e-07
3.97329e-08
-3.00182e-07
3.9278e-08
-3.13609e-07
3.87494e-08
-3.26836e-07
3.81546e-08
-3.39841e-07
3.7501e-08
-3.52607e-07
3.67953e-08
-3.65117e-07
3.60442e-08
-3.77358e-07
3.52538e-08
-3.89317e-07
3.443e-08
-4.00986e-07
3.35782e-08
-4.12355e-07
3.27036e-08
-4.23418e-07
3.18109e-08
-4.3417e-07
3.09045e-08
-4.44607e-07
2.99886e-08
-4.54727e-07
2.90668e-08
-4.64529e-07
2.81425e-08
-4.74013e-07
2.72188e-08
-4.83179e-07
2.62985e-08
-4.92029e-07
2.53841e-08
-5.00565e-07
2.44777e-08
-5.08792e-07
2.35814e-08
-5.16711e-07
2.26968e-08
-5.24329e-07
2.18253e-08
-5.31649e-07
2.09681e-08
-5.38677e-07
2.01263e-08
-5.45417e-07
1.93005e-08
-5.51876e-07
1.84914e-08
-5.58059e-07
1.76993e-08
-5.63971e-07
1.69245e-08
-5.69619e-07
1.6167e-08
-5.75009e-07
1.54268e-08
-5.80145e-07
1.47035e-08
-5.85035e-07
1.39969e-08
-5.89682e-07
1.33064e-08
-5.94092e-07
1.26313e-08
-5.98271e-07
1.19711e-08
-6.02223e-07
1.13249e-08
-6.05952e-07
1.06917e-08
-6.09463e-07
1.00706e-08
-6.12759e-07
9.46043e-09
-6.15843e-07
8.86014e-09
-6.18719e-07
8.26848e-09
-6.21388e-07
7.68416e-09
-6.23854e-07
7.10587e-09
-6.26116e-07
6.53222e-09
-6.28178e-07
5.96178e-09
-6.30038e-07
5.39309e-09
-6.31698e-07
4.82465e-09
-6.33156e-07
4.25493e-09
-6.34412e-07
3.68237e-09
-6.35464e-07
3.1054e-09
-6.3631e-07
2.52243e-09
-6.36947e-07
1.93186e-09
-6.37373e-07
1.33209e-09
-6.37584e-07
7.21523e-10
-6.37575e-07
9.85641e-11
-6.37342e-07
-5.38359e-10
-6.36879e-07
-1.1908e-09
-6.3618e-07
-1.86028e-09
-6.3524e-07
-2.54829e-09
-6.34052e-07
-3.25627e-09
-6.32607e-07
-3.98561e-09
-6.30899e-07
-4.73761e-09
-6.2892e-07
-5.51354e-09
-6.26661e-07
-6.31455e-09
-6.24113e-07
-7.14171e-09
-6.21266e-07
-7.99597e-09
-6.18113e-07
-8.87817e-09
-6.14642e-07
-9.789e-09
-6.10845e-07
-1.0729e-08
-6.06711e-07
-1.16986e-08
-6.0223e-07
-1.2698e-08
-5.97392e-07
-1.37272e-08
-5.92188e-07
-1.47859e-08
-5.86607e-07
-1.58738e-08
-5.80641e-07
-1.69902e-08
-5.7428e-07
-1.81341e-08
-5.67516e-07
-1.93044e-08
-5.6034e-07
-2.04994e-08
-5.52744e-07
-2.17175e-08
-5.44723e-07
-2.29563e-08
-5.3627e-07
-2.42134e-08
-5.27381e-07
-2.54859e-08
-5.18051e-07
-2.67706e-08
-5.08279e-07
-2.80638e-08
-4.98063e-07
-2.93613e-08
-4.87403e-07
-3.06588e-08
-4.76302e-07
-3.19514e-08
-4.64765e-07
-3.32337e-08
-4.52796e-07
-3.44999e-08
-4.40403e-07
-3.57438e-08
-4.27598e-07
-3.69588e-08
-4.14393e-07
-3.81378e-08
-4.00804e-07
-3.92733e-08
-3.86847e-07
-4.03575e-08
-3.72544e-07
-4.1382e-08
-3.57918e-07
-4.23382e-08
-3.42997e-07
-4.32171e-08
-3.2781e-07
-4.40094e-08
-3.12389e-07
-4.47056e-08
-2.96772e-07
-4.52958e-08
-2.80997e-07
-4.57701e-08
-2.65108e-07
-4.61183e-08
-2.4915e-07
-4.63304e-08
-2.33173e-07
-4.63963e-08
-2.17231e-07
-4.63058e-08
-2.01378e-07
-4.60492e-08
-1.85674e-07
-4.56169e-08
-1.70181e-07
-4.49998e-08
-1.54962e-07
-4.41892e-08
-1.40086e-07
-4.31774e-08
-1.2562e-07
-4.19572e-08
-1.11636e-07
-4.05229e-08
-9.82032e-08
-3.887e-08
-8.5395e-08
-3.69959e-08
-7.3282e-08
-3.49001e-08
-6.1934e-08
-3.25851e-08
-5.1418e-08
-3.00568e-08
-4.17967e-08
-2.73257e-08
-3.31265e-08
-2.44083e-08
-2.54552e-08
-2.13288e-08
-1.88192e-08
-1.81215e-08
-1.32397e-08
-1.48339e-08
-8.71856e-09
-1.15312e-08
-5.2329e-09
-8.3021e-09
-2.72952e-09
-5.26605e-09
-1.11791e-09
-2.58328e-09
-2.63048e-10
-4.65146e-10
2.32925e-11
8.12308e-10
8.63198e-10
-1.1057e-10
-6.96666e-10
-6.93941e-10
-2.57453e-10
-1.94599e-09
1.47369e-09
-4.01456e-09
4.10703e-09
-7.00747e-09
7.35646e-09
-1.09975e-08
1.09977e-08
-1.60271e-08
1.48563e-08
-2.2113e-08
1.87989e-08
-2.92506e-08
2.27245e-08
-3.74177e-08
2.6557e-08
-4.65783e-08
3.02402e-08
-5.66857e-08
3.37331e-08
-6.76848e-08
3.70069e-08
-7.95147e-08
4.00418e-08
-9.21103e-08
4.28257e-08
-1.05404e-07
4.5352e-08
-1.19327e-07
4.76186e-08
-1.33809e-07
4.96271e-08
-1.48783e-07
5.13817e-08
-1.64181e-07
5.28889e-08
-1.79936e-07
5.41567e-08
-1.95985e-07
5.51946e-08
-2.12268e-07
5.6013e-08
-2.28726e-07
5.66228e-08
-2.45304e-07
5.70357e-08
-2.61948e-07
5.72635e-08
-2.78612e-07
5.73182e-08
-2.95248e-07
5.72118e-08
-3.11814e-07
5.69562e-08
-3.28271e-07
5.65633e-08
-3.44583e-07
5.60445e-08
-3.60716e-07
5.54112e-08
-3.76641e-07
5.46742e-08
-3.9233e-07
5.38439e-08
-4.0776e-07
5.29305e-08
-4.22908e-07
5.19435e-08
-4.37756e-07
5.08921e-08
-4.52287e-07
4.9785e-08
-4.66487e-07
4.86302e-08
-4.80345e-07
4.74356e-08
-4.93849e-07
4.62082e-08
-5.06993e-07
4.49547e-08
-5.1977e-07
4.36814e-08
-5.32175e-07
4.2394e-08
-5.44206e-07
4.10976e-08
-5.55861e-07
3.97971e-08
-5.67139e-07
3.84969e-08
-5.78041e-07
3.72008e-08
-5.8857e-07
3.59125e-08
-5.98727e-07
3.4635e-08
-6.08517e-07
3.3371e-08
-6.17943e-07
3.21229e-08
-6.2701e-07
3.08929e-08
-6.35725e-07
2.96825e-08
-6.44092e-07
2.84932e-08
-6.52117e-07
2.73261e-08
-6.59808e-07
2.61821e-08
-6.6717e-07
2.50617e-08
-6.74211e-07
2.39652e-08
-6.80937e-07
2.28927e-08
-6.87354e-07
2.18442e-08
-6.9347e-07
2.08193e-08
-6.99291e-07
1.98175e-08
-7.04823e-07
1.88382e-08
-7.10072e-07
1.78804e-08
-7.15044e-07
1.69432e-08
-7.19744e-07
1.60255e-08
-7.24179e-07
1.51259e-08
-7.28351e-07
1.42432e-08
-7.32266e-07
1.33758e-08
-7.35928e-07
1.2522e-08
-7.3934e-07
1.16803e-08
-7.42505e-07
1.08488e-08
-7.45425e-07
1.00257e-08
-7.48102e-07
9.20907e-09
-7.50537e-07
8.39686e-09
-7.52731e-07
7.58704e-09
-7.54684e-07
6.77754e-09
-7.56395e-07
5.9662e-09
-7.57863e-07
5.15086e-09
-7.59087e-07
4.32931e-09
-7.60064e-07
3.49935e-09
-7.60791e-07
2.65873e-09
-7.61264e-07
1.80522e-09
-7.61479e-07
9.36587e-10
-7.61431e-07
5.06224e-11
-7.61115e-07
-8.54873e-10
-7.60523e-07
-1.78206e-09
-7.59651e-07
-2.73306e-09
-7.58489e-07
-3.70994e-09
-7.57031e-07
-4.7147e-09
-7.55267e-07
-5.74926e-09
-7.53189e-07
-6.81545e-09
-7.50788e-07
-7.915e-09
-7.48053e-07
-9.0495e-09
-7.44974e-07
-1.02204e-08
-7.41541e-07
-1.14291e-08
-7.37742e-07
-1.26766e-08
-7.33567e-07
-1.3964e-08
-7.29005e-07
-1.52919e-08
-7.24042e-07
-1.66609e-08
-7.18669e-07
-1.80712e-08
-7.12874e-07
-1.95228e-08
-7.06644e-07
-2.10154e-08
-6.9997e-07
-2.25483e-08
-6.92839e-07
-2.41207e-08
-6.85242e-07
-2.5731e-08
-6.77169e-07
-2.73776e-08
-6.6861e-07
-2.90583e-08
-6.59557e-07
-3.07705e-08
-6.50002e-07
-3.25111e-08
-6.39939e-07
-3.42766e-08
-6.29362e-07
-3.6063e-08
-6.18267e-07
-3.78655e-08
-6.06652e-07
-3.96792e-08
-5.94515e-07
-4.14982e-08
-5.81858e-07
-4.33163e-08
-5.68682e-07
-4.51266e-08
-5.54994e-07
-4.69217e-08
-5.40801e-07
-4.86935e-08
-5.26111e-07
-5.04333e-08
-5.10938e-07
-5.21318e-08
-4.95297e-07
-5.37792e-08
-4.79205e-07
-5.53649e-08
-4.62685e-07
-5.68782e-08
-4.45759e-07
-5.83073e-08
-4.28457e-07
-5.96402e-08
-4.1081e-07
-6.08646e-08
-3.92852e-07
-6.19675e-08
-3.74622e-07
-6.29356e-08
-3.56162e-07
-6.37554e-08
-3.37519e-07
-6.44132e-08
-3.18742e-07
-6.4895e-08
-2.99886e-07
-6.51869e-08
-2.81007e-07
-6.5275e-08
-2.62167e-07
-6.51457e-08
-2.43431e-07
-6.47854e-08
-2.24867e-07
-6.41814e-08
-2.06545e-07
-6.33212e-08
-1.88541e-07
-6.21934e-08
-1.70931e-07
-6.07877e-08
-1.53793e-07
-5.90949e-08
-1.37208e-07
-5.71077e-08
-1.21258e-07
-5.48208e-08
-1.06022e-07
-5.22315e-08
-9.15819e-08
-4.93403e-08
-7.80155e-08
-4.61514e-08
-6.53978e-08
-4.26745e-08
-5.37984e-08
-3.89251e-08
-4.32798e-08
-3.49269e-08
-3.38952e-08
-3.07135e-08
-2.56849e-08
-2.63318e-08
-1.86739e-08
-2.18449e-08
-1.28673e-08
-1.73378e-08
-8.24644e-09
-1.29229e-08
-4.76422e-09
-8.74827e-09
-2.33994e-09
-5.00756e-09
-8.54618e-10
-1.95047e-09
-1.45828e-10
1.03516e-10
7.1737e-10
-2.6884e-10
-4.27826e-10
-1.25598e-09
7.29691e-10
-3.11217e-09
3.32987e-09
-5.9557e-09
6.95056e-09
-9.87403e-09
1.12748e-08
-1.49258e-08
1.60494e-08
-2.11435e-08
2.1074e-08
-2.85366e-08
2.6192e-08
-3.70948e-08
3.12827e-08
-4.67911e-08
3.62532e-08
-5.75847e-08
4.10338e-08
-6.94241e-08
4.55725e-08
-8.22491e-08
4.98319e-08
-9.59933e-08
5.3786e-08
-1.10585e-07
5.74179e-08
-1.25952e-07
6.07183e-08
-1.42017e-07
6.36834e-08
-1.58703e-07
6.63141e-08
-1.75937e-07
6.8615e-08
-1.93642e-07
7.05939e-08
-2.11745e-07
7.22604e-08
-2.30177e-07
7.36263e-08
-2.48869e-07
7.47045e-08
-2.67755e-07
7.55091e-08
-2.86774e-07
7.60547e-08
-3.05867e-07
7.63567e-08
-3.24979e-07
7.64304e-08
-3.44059e-07
7.62914e-08
-3.63058e-07
7.59552e-08
-3.81932e-07
7.54372e-08
-4.0064e-07
7.47524e-08
-4.19144e-07
7.39156e-08
-4.37411e-07
7.29409e-08
-4.55409e-07
7.18422e-08
-4.73111e-07
7.06327e-08
-4.90493e-07
6.9325e-08
-5.07532e-07
6.79312e-08
-5.2421e-07
6.64628e-08
-5.4051e-07
6.49306e-08
-5.56419e-07
6.33446e-08
-5.71926e-07
6.17145e-08
-5.8702e-07
6.0049e-08
-6.01695e-07
5.83564e-08
-6.15945e-07
5.66443e-08
-6.29767e-07
5.49197e-08
-6.43159e-07
5.31889e-08
-6.5612e-07
5.14578e-08
-6.68651e-07
4.97316e-08
-6.80753e-07
4.80149e-08
-6.9243e-07
4.63121e-08
-7.03686e-07
4.46266e-08
-7.14525e-07
4.29618e-08
-7.24952e-07
4.13203e-08
-7.34974e-07
3.97045e-08
-7.44597e-07
3.81162e-08
-7.53828e-07
3.6557e-08
-7.62674e-07
3.5028e-08
-7.71142e-07
3.35299e-08
-7.7924e-07
3.20633e-08
-7.86976e-07
3.06283e-08
-7.94356e-07
2.92248e-08
-8.01389e-07
2.78523e-08
-8.08082e-07
2.65102e-08
-8.14442e-07
2.51977e-08
-8.20475e-07
2.39137e-08
-8.26188e-07
2.26567e-08
-8.31588e-07
2.14254e-08
-8.36681e-07
2.02181e-08
-8.4147e-07
1.9033e-08
-8.45963e-07
1.7868e-08
-8.50162e-07
1.67211e-08
-8.54071e-07
1.559e-08
-8.57695e-07
1.44724e-08
-8.61035e-07
1.33659e-08
-8.64094e-07
1.22678e-08
-8.66873e-07
1.11755e-08
-8.69372e-07
1.00864e-08
-8.71592e-07
8.99768e-09
-8.73532e-07
7.90648e-09
-8.75191e-07
6.80995e-09
-8.76567e-07
5.70518e-09
-8.77657e-07
4.58925e-09
-8.78458e-07
3.45921e-09
-8.78965e-07
2.31211e-09
-8.79173e-07
1.145e-09
-8.79077e-07
-4.5035e-11
-8.78671e-07
-1.26089e-09
-8.77948e-07
-2.50541e-09
-8.769e-07
-3.78139e-09
-8.75518e-07
-5.09155e-09
-8.73794e-07
-6.43851e-09
-8.71719e-07
-7.8248e-09
-8.69281e-07
-9.25281e-09
-8.66472e-07
-1.07248e-08
-8.63278e-07
-1.22429e-08
-8.5969e-07
-1.38089e-08
-8.55694e-07
-1.54247e-08
-8.51279e-07
-1.70916e-08
-8.46432e-07
-1.8811e-08
-8.4114e-07
-2.05836e-08
-8.35391e-07
-2.24102e-08
-8.29171e-07
-2.42911e-08
-8.22468e-07
-2.62262e-08
-8.15268e-07
-2.82151e-08
-8.07559e-07
-3.02568e-08
-7.9933e-07
-3.235e-08
-7.90568e-07
-3.44929e-08
-7.81263e-07
-3.66831e-08
-7.71403e-07
-3.89178e-08
-7.6098e-07
-4.11934e-08
-7.49985e-07
-4.35059e-08
-7.38411e-07
-4.58506e-08
-7.26252e-07
-4.82219e-08
-7.13504e-07
-5.06138e-08
-7.00164e-07
-5.30196e-08
-6.8623e-07
-5.54315e-08
-6.71705e-07
-5.78414e-08
-6.56592e-07
-6.024e-08
-6.40896e-07
-6.26176e-08
-6.24626e-07
-6.49634e-08
-6.07794e-07
-6.7266e-08
-5.90412e-07
-6.95131e-08
-5.725e-07
-7.16917e-08
-5.54077e-07
-7.37882e-08
-5.35167e-07
-7.57879e-08
-5.15798e-07
-7.76757e-08
-4.96003e-07
-7.94359e-08
-4.75815e-07
-8.1052e-08
-4.55276e-07
-8.2507e-08
-4.34428e-07
-8.37838e-08
-4.13319e-07
-8.48644e-08
-3.92001e-07
-8.5731e-08
-3.7053e-07
-8.63655e-08
-3.48968e-07
-8.67496e-08
-3.27377e-07
-8.68653e-08
-3.05828e-07
-8.6695e-08
-2.84392e-07
-8.62213e-08
-2.63146e-07
-8.54277e-08
-2.42169e-07
-8.42983e-08
-2.21543e-07
-8.28189e-08
-2.01355e-07
-8.09762e-08
-1.8169e-07
-7.87592e-08
-1.62639e-07
-7.6159e-08
-1.4429e-07
-7.31696e-08
-1.26733e-07
-6.97884e-08
-1.10056e-07
-6.60171e-08
-9.43453e-08
-6.18626e-08
-7.96816e-08
-5.73382e-08
-6.61414e-08
-5.24653e-08
-5.37931e-08
-4.72752e-08
-4.26951e-08
-4.18116e-08
-3.28931e-08
-3.61338e-08
-2.44173e-08
-3.03207e-08
-1.72791e-08
-2.4476e-08
-1.14678e-08
-1.87342e-08
-6.94721e-09
-1.32688e-08
-3.65256e-09
-8.30221e-09
-1.48785e-09
-4.11518e-09
-3.2434e-10
-1.06e-09
3.93029e-10
-4.29748e-10
1.9211e-12
-1.83531e-09
2.13525e-09
-4.32129e-09
5.81586e-09
-7.97282e-09
1.06021e-08
-1.28529e-08
1.61549e-08
-1.90022e-08
2.21987e-08
-2.64397e-08
2.85115e-08
-3.51648e-08
3.49171e-08
-4.5159e-08
4.12769e-08
-5.63889e-08
4.74831e-08
-6.88078e-08
5.34528e-08
-8.23588e-08
5.91235e-08
-9.69763e-08
6.44494e-08
-1.12588e-07
6.93981e-08
-1.29119e-07
7.39482e-08
-1.46487e-07
7.80868e-08
-1.64612e-07
8.18085e-08
-1.83412e-07
8.51135e-08
-2.02803e-07
8.80067e-08
-2.22706e-07
9.04968e-08
-2.43041e-07
9.25953e-08
-2.63731e-07
9.43161e-08
-2.84702e-07
9.56751e-08
-3.05882e-07
9.66892e-08
-3.27203e-07
9.73766e-08
-3.48603e-07
9.7756e-08
-3.70019e-07
9.78467e-08
-3.91396e-07
9.76679e-08
-4.12679e-07
9.7239e-08
-4.33822e-07
9.65793e-08
-4.54777e-07
9.57076e-08
-4.75503e-07
9.46424e-08
-4.95964e-07
9.34016e-08
-5.16125e-07
9.20026e-08
-5.35954e-07
9.04621e-08
-5.55425e-07
8.87962e-08
-5.74514e-07
8.70201e-08
-5.932e-07
8.51483e-08
-6.11463e-07
8.31945e-08
-6.2929e-07
8.11715e-08
-6.46667e-07
7.90916e-08
-6.63584e-07
7.69659e-08
-6.80033e-07
7.48049e-08
-6.96007e-07
7.26183e-08
-7.11502e-07
7.0415e-08
-7.26516e-07
6.82032e-08
-7.41049e-07
6.59903e-08