/*--------------------------------*- C++ -*----------------------------------*\
  =========                 |
  \\      /  F ield         | OpenFOAM: The Open Source CFD Toolbox
   \\    /   O peration     | Website:  https://openfoam.org
    \\  /    A nd           | Version:  7
     \\/     M anipulation  |
\*---------------------------------------------------------------------------*/
FoamFile
{
    version     2.0;
    format      ascii;
    class       surfaceScalarField;
    location    "0.1625";
    object      phi;
}
// * * * * * * * * * * * * * * * * * * * * * * * * * * * * * * * * * * * * * //

dimensions      [0 3 -1 0 0 0 0];

internalField   nonuniform List<scalar> 
25360
(
5.80192e-11
-5.8045e-11
2.06957e-10
-1.48945e-10
3.75018e-10
-1.68056e-10
5.13469e-10
-1.38457e-10
5.93654e-10
-8.01864e-11
5.99971e-10
-6.31563e-12
5.24919e-10
7.50544e-11
3.66178e-10
1.58742e-10
1.24714e-10
2.41473e-10
-1.96452e-10
3.21165e-10
-5.92996e-10
3.9654e-10
-1.05982e-09
4.66821e-10
-1.5914e-09
5.31576e-10
-2.18203e-09
5.90636e-10
-2.82602e-09
6.43992e-10
-3.51779e-09
6.91767e-10
-4.25197e-09
7.34181e-10
-5.02347e-09
7.71499e-10
-5.8275e-09
8.04036e-10
-6.65963e-09
8.32127e-10
-7.51575e-09
8.56122e-10
-8.39213e-09
8.76375e-10
-9.28537e-09
8.93239e-10
-1.01924e-08
9.07052e-10
-1.11106e-08
9.18143e-10
-1.20374e-08
9.26829e-10
-1.29708e-08
9.334e-10
-1.39089e-08
9.38128e-10
-1.48502e-08
9.41275e-10
-1.57933e-08
9.43074e-10
-1.6737e-08
9.43738e-10
-1.76805e-08
9.43463e-10
-1.86229e-08
9.42428e-10
-1.95637e-08
9.4079e-10
-2.05024e-08
9.38688e-10
-2.14386e-08
9.36251e-10
-2.23722e-08
9.33595e-10
-2.33031e-08
9.30819e-10
-2.42311e-08
9.28012e-10
-2.51563e-08
9.25256e-10
-2.60789e-08
9.22618e-10
-2.69991e-08
9.20154e-10
-2.7917e-08
9.17915e-10
-2.8833e-08
9.15951e-10
-2.97473e-08
9.14303e-10
-3.06603e-08
9.13004e-10
-3.15724e-08
9.12083e-10
-3.24839e-08
9.11565e-10
-3.33954e-08
9.11472e-10
-3.43072e-08
9.11825e-10
-3.52199e-08
9.12643e-10
-3.61338e-08
9.13942e-10
-3.70495e-08
9.15731e-10
-3.79676e-08
9.18019e-10
-3.88884e-08
9.20812e-10
-3.98125e-08
9.24114e-10
-4.07404e-08
9.27926e-10
-4.16727e-08
9.32245e-10
-4.26097e-08
9.37066e-10
-4.35521e-08
9.42378e-10
-4.45003e-08
9.48168e-10
-4.54547e-08
9.54419e-10
-4.64158e-08
9.6111e-10
-4.7384e-08
9.68219e-10
-4.83597e-08
9.75715e-10
-4.93433e-08
9.83562e-10
-5.0335e-08
9.91718e-10
-5.13352e-08
1.00014e-09
-5.23439e-08
1.00878e-09
-5.33615e-08
1.01758e-09
-5.4388e-08
1.02647e-09
-5.54234e-08
1.03538e-09
-5.64676e-08
1.04423e-09
-5.75205e-08
1.05294e-09
-5.85819e-08
1.0614e-09
-5.96514e-08
1.06952e-09
-6.07286e-08
1.07718e-09
-6.18129e-08
1.08426e-09
-6.29035e-08
1.09063e-09
-6.39997e-08
1.09616e-09
-6.51004e-08
1.1007e-09
-6.62045e-08
1.10408e-09
-6.73106e-08
1.10615e-09
-6.84173e-08
1.10673e-09
-6.9523e-08
1.10563e-09
-7.06256e-08
1.10266e-09
-7.17232e-08
1.09761e-09
-7.28135e-08
1.09028e-09
-7.3894e-08
1.08044e-09
-7.49618e-08
1.06788e-09
-7.60142e-08
1.05235e-09
-7.70478e-08
1.03364e-09
-7.80593e-08
1.0115e-09
-7.9045e-08
9.8568e-10
-8.0001e-08
9.5595e-10
-8.0923e-08
9.22065e-10
-8.18068e-08
8.83788e-10
-8.26477e-08
8.40888e-10
-8.34408e-08
7.93141e-10
-8.41812e-08
7.40332e-10
-8.48634e-08
6.82264e-10
-8.54822e-08
6.18754e-10
-8.60318e-08
5.49642e-10
-8.65066e-08
4.74792e-10
-8.69007e-08
3.94096e-10
-8.72082e-08
3.07478e-10
-8.74231e-08
2.14902e-10
-8.75395e-08
1.1637e-10
-8.75514e-08
1.19351e-11
-8.74531e-08
-9.83056e-11
-8.72389e-08
-2.1419e-10
-8.69034e-08
-3.35506e-10
-8.64414e-08
-4.61975e-10
-8.58482e-08
-5.93255e-10
-8.51192e-08
-7.28932e-10
-8.42507e-08
-8.6852e-10
-8.32393e-08
-1.01146e-09
-8.20821e-08
-1.15711e-09
-8.07774e-08
-1.30477e-09
-7.93237e-08
-1.45364e-09
-7.77209e-08
-1.60286e-09
-7.59694e-08
-1.75151e-09
-7.40708e-08
-1.89859e-09
-7.20277e-08
-2.04303e-09
-6.9844e-08
-2.18374e-09
-6.75245e-08
-2.31954e-09
-6.50752e-08
-2.44924e-09
-6.25036e-08
-2.57163e-09
-5.98181e-08
-2.68548e-09
-5.70286e-08
-2.78955e-09
-5.41459e-08
-2.88264e-09
-5.11824e-08
-2.96354e-09
-4.81513e-08
-3.03112e-09
-4.50669e-08
-3.08431e-09
-4.19449e-08
-3.12208e-09
-3.88013e-08
-3.14353e-09
-3.56535e-08
-3.14785e-09
-3.25191e-08
-3.13434e-09
-2.94167e-08
-3.10244e-09
-2.6365e-08
-3.05171e-09
-2.33831e-08
-2.98188e-09
-2.04903e-08
-2.89281e-09
-1.77058e-08
-2.78451e-09
-1.50486e-08
-2.65718e-09
-1.25375e-08
-2.51113e-09
-1.01906e-08
-2.34688e-09
-8.02551e-09
-2.16509e-09
-6.05892e-09
-1.96659e-09
-4.30647e-09
-1.75245e-09
-2.78249e-09
-1.52398e-09
-1.49962e-09
-1.28286e-09
-4.68311e-10
-1.03131e-09
3.04066e-10
-7.72375e-10
8.14606e-10
-5.10537e-10
1.06731e-09
-2.52697e-10
1.07751e-09
-1.01996e-11
8.78961e-10
1.98553e-10
5.37821e-10
3.41143e-10
1.77829e-10
3.59993e-10
1.7783e-10
1.4749e-10
-2.05545e-10
4.15399e-10
-4.16835e-10
6.84562e-10
-4.37218e-10
8.67674e-10
-3.21571e-10
9.04832e-10
-1.17344e-10
7.5802e-10
1.40501e-10
4.05809e-10
4.27256e-10
-1.61237e-10
7.25787e-10
-9.44119e-10
1.02435e-09
-1.93796e-09
1.315e-09
-3.13387e-09
1.59246e-09
-4.52036e-09
1.8533e-09
-6.08425e-09
2.09547e-09
-7.81149e-09
2.31787e-09
-9.68763e-09
2.52014e-09
-1.16983e-08
2.70241e-09
-1.38293e-08
2.86522e-09
-1.60672e-08
3.00937e-09
-1.8399e-08
3.13585e-09
-2.08126e-08
3.24578e-09
-2.32969e-08
3.34035e-09
-2.58413e-08
3.42079e-09
-2.84364e-08
3.48833e-09
-3.10735e-08
3.5442e-09
-3.3745e-08
3.58959e-09
-3.64438e-08
3.62564e-09
-3.91638e-08
3.65344e-09
-4.18997e-08
3.67401e-09
-4.46467e-08
3.68831e-09
-4.74009e-08
3.6972e-09
-5.01586e-08
3.70152e-09
-5.29172e-08
3.702e-09
-5.56741e-08
3.69933e-09
-5.84274e-08
3.69412e-09
-6.11757e-08
3.68693e-09
-6.39177e-08
3.67825e-09
-6.66526e-08
3.66852e-09
-6.93799e-08
3.65814e-09
-7.20994e-08
3.64748e-09
-7.4811e-08
3.63683e-09
-7.75148e-08
3.62647e-09
-8.02113e-08
3.61665e-09
-8.29009e-08
3.60757e-09
-8.55844e-08
3.59943e-09
-8.82625e-08
3.59238e-09
-9.09361e-08
3.58656e-09
-9.36061e-08
3.58212e-09
-9.62737e-08
3.57915e-09
-9.894e-08
3.57775e-09
-1.01606e-07
3.578e-09
-1.04273e-07
3.57996e-09
-1.06943e-07
3.58369e-09
-1.09617e-07
3.58925e-09
-1.12295e-07
3.59666e-09
-1.1498e-07
3.60596e-09
-1.17674e-07
3.61715e-09
-1.20376e-07
3.63023e-09
-1.23089e-07
3.6452e-09
-1.25814e-07
3.66202e-09
-1.28552e-07
3.68066e-09
-1.31305e-07
3.70107e-09
-1.34074e-07
3.72316e-09
-1.36859e-07
3.74687e-09
-1.39663e-07
3.77208e-09
-1.42486e-07
3.79869e-09
-1.45329e-07
3.82654e-09
-1.48193e-07
3.85547e-09
-1.51078e-07
3.88532e-09
-1.53985e-07
3.91586e-09
-1.56915e-07
3.94688e-09
-1.59866e-07
3.97811e-09
-1.6284e-07
4.00927e-09
-1.65836e-07
4.04005e-09
-1.68853e-07
4.0701e-09
-1.71891e-07
4.09905e-09
-1.74948e-07
4.1265e-09
-1.78023e-07
4.15201e-09
-1.81113e-07
4.17511e-09
-1.84218e-07
4.1953e-09
-1.87334e-07
4.21205e-09
-1.90458e-07
4.22479e-09
-1.93587e-07
4.23291e-09
-1.96717e-07
4.23578e-09
-1.99842e-07
4.23271e-09
-2.0296e-07
4.22301e-09
-2.06063e-07
4.20594e-09
-2.09146e-07
4.18072e-09
-2.12203e-07
4.14657e-09
-2.15225e-07
4.10266e-09
-2.18205e-07
4.04815e-09
-2.21135e-07
3.98218e-09
-2.24005e-07
3.90386e-09
-2.26806e-07
3.81231e-09
-2.29527e-07
3.70664e-09
-2.32157e-07
3.58595e-09
-2.34684e-07
3.44936e-09
-2.37096e-07
3.29601e-09
-2.39381e-07
3.12504e-09
-2.41523e-07
2.93567e-09
-2.4351e-07
2.72712e-09
-2.45326e-07
2.49869e-09
-2.46957e-07
2.24975e-09
-2.48387e-07
1.97975e-09
-2.49601e-07
1.68823e-09
-2.50582e-07
1.37486e-09
-2.51314e-07
1.0394e-09
-2.5178e-07
6.81804e-10
-2.51966e-07
3.02138e-10
-2.51855e-07
-9.93342e-11
-2.51431e-07
-5.22163e-10
-2.5068e-07
-9.65693e-10
-2.49586e-07
-1.42905e-09
-2.48137e-07
-1.91113e-09
-2.4632e-07
-2.41057e-09
-2.44123e-07
-2.92578e-09
-2.41536e-07
-3.45487e-09
-2.38552e-07
-3.9957e-09
-2.35163e-07
-4.54586e-09
-2.31366e-07
-5.10264e-09
-2.27156e-07
-5.66309e-09
-2.22535e-07
-6.22397e-09
-2.17505e-07
-6.7818e-09
-2.1207e-07
-7.33288e-09
-2.0624e-07
-7.87326e-09
-2.00025e-07
-8.39883e-09
-1.93439e-07
-8.90532e-09
-1.865e-07
-9.38832e-09
-1.79228e-07
-9.84336e-09
-1.71648e-07
-1.02659e-08
-1.63786e-07
-1.06515e-08
-1.55673e-07
-1.09956e-08
-1.47343e-07
-1.12939e-08
-1.38832e-07
-1.15423e-08
-1.30179e-07
-1.17368e-08
-1.21427e-07
-1.18738e-08
-1.12621e-07
-1.19499e-08
-1.03807e-07
-1.19622e-08
-9.50328e-08
-1.19083e-08
-8.63492e-08
-1.1786e-08
-7.7807e-08
-1.15939e-08
-6.94579e-08
-1.1331e-08
-6.13538e-08
-1.09969e-08
-5.35465e-08
-1.05918e-08
-4.60872e-08
-1.01165e-08
-3.90258e-08
-9.57249e-09
-3.24108e-08
-8.96188e-09
-2.62884e-08
-8.28752e-09
-2.07019e-08
-7.55306e-09
-1.56913e-08
-6.76311e-09
-1.12918e-08
-5.92346e-09
-7.53313e-09
-5.04154e-09
-4.43743e-09
-4.12701e-09
-2.01688e-09
-3.19293e-09
-2.69908e-10
-2.25752e-09
8.24479e-10
-1.34709e-09
1.31499e-09
-5.00717e-10
1.2909e-09
2.22638e-10
8.98281e-10
7.3376e-10
3.58633e-10
8.99643e-10
5.36464e-10
1.69887e-10
-3.75427e-10
4.40062e-10
-6.87019e-10
6.63633e-10
-6.60789e-10
7.35755e-10
-3.9369e-10
5.8135e-10
3.70634e-11
1.50123e-10
5.71728e-10
-5.88289e-10
1.16568e-09
-1.64886e-09
1.78636e-09
-3.03494e-09
2.41043e-09
-4.74131e-09
3.02138e-09
-6.75663e-09
3.60777e-09
-9.06524e-09
4.16191e-09
-1.16487e-08
4.67889e-09
-1.44867e-08
5.15588e-09
-1.75581e-08
5.59161e-09
-2.08417e-08
5.98596e-09
-2.43162e-08
6.3397e-09
-2.7961e-08
6.65423e-09
-3.17566e-08
6.93139e-09
-3.56841e-08
7.17334e-09
-3.97262e-08
7.38246e-09
-4.38667e-08
7.56121e-09
-4.80905e-08
7.71213e-09
-5.2384e-08
7.83774e-09
-5.67349e-08
7.94052e-09
-6.11322e-08
8.02286e-09
-6.55658e-08
8.08705e-09
-7.0027e-08
8.13526e-09
-7.45082e-08
8.16951e-09
-7.90027e-08
8.1917e-09
-8.35048e-08
8.20359e-09
-8.80096e-08
8.20679e-09
-9.2513e-08
8.20277e-09
-9.70118e-08
8.19288e-09
-1.01503e-07
8.17832e-09
-1.05985e-07
8.1602e-09
-1.10456e-07
8.1395e-09
-1.14915e-07
8.1171e-09
-1.19361e-07
8.09377e-09
-1.23795e-07
8.07022e-09
-1.28215e-07
8.04707e-09
-1.32624e-07
8.02485e-09
-1.3702e-07
8.00406e-09
-1.41406e-07
7.9851e-09
-1.45782e-07
7.96837e-09
-1.50149e-07
7.95417e-09
-1.5451e-07
7.9428e-09
-1.58865e-07
7.93451e-09
-1.63217e-07
7.92952e-09
-1.67567e-07
7.92801e-09
-1.71917e-07
7.93014e-09
-1.7627e-07
7.93603e-09
-1.80626e-07
7.94579e-09
-1.84989e-07
7.95949e-09
-1.8936e-07
7.97719e-09
-1.93742e-07
7.99893e-09
-1.98136e-07
8.02468e-09
-2.02546e-07
8.05444e-09
-2.06972e-07
8.08812e-09
-2.11417e-07
8.12566e-09
-2.15883e-07
8.16691e-09
-2.20371e-07
8.21173e-09
-2.24884e-07
8.25993e-09
-2.29423e-07
8.31126e-09
-2.3399e-07
8.36546e-09
-2.38586e-07
8.42222e-09
-2.43212e-07
8.48116e-09
-2.47868e-07
8.54189e-09
-2.52556e-07
8.60394e-09
-2.57276e-07
8.6668e-09
-2.62028e-07
8.72989e-09
-2.66811e-07
8.79258e-09
-2.71625e-07
8.85418e-09
-2.76469e-07
8.91392e-09
-2.81341e-07
8.971e-09
-2.86239e-07
9.02452e-09
-2.91161e-07
9.07351e-09
-2.96103e-07
9.11695e-09
-3.01061e-07
9.15375e-09
-3.06032e-07
9.18272e-09
-3.11009e-07
9.20262e-09
-3.15989e-07
9.21214e-09
-3.20963e-07
9.20989e-09
-3.25925e-07
9.1944e-09
-3.30866e-07
9.16414e-09
-3.35777e-07
9.11753e-09
-3.40649e-07
9.0529e-09
-3.45471e-07
8.96854e-09
-3.50231e-07
8.86269e-09
-3.54917e-07
8.73354e-09
-3.59514e-07
8.57925e-09
-3.64008e-07
8.39794e-09
-3.68383e-07
8.18772e-09
-3.72623e-07
7.94671e-09
-3.7671e-07
7.67301e-09
-3.80626e-07
7.36477e-09
-3.8435e-07
7.02018e-09
-3.87862e-07
6.63749e-09
-3.91142e-07
6.21501e-09
-3.94166e-07
5.7512e-09
-3.96912e-07
5.24461e-09
-3.99356e-07
4.69396e-09
-4.01474e-07
4.09817e-09
-4.03243e-07
3.45634e-09
-4.04636e-07
2.76786e-09
-4.05629e-07
2.03234e-09
-4.06196e-07
1.24976e-09
-4.06315e-07
4.20384e-10
-4.05959e-07
-4.55108e-10
-4.05105e-07
-1.37565e-09
-4.03731e-07
-2.33972e-09
-4.01815e-07
-3.34536e-09
-3.99336e-07
-4.39008e-09
-3.96276e-07
-5.47091e-09
-3.92617e-07
-6.5843e-09
-3.88346e-07
-7.72618e-09
-3.8345e-07
-8.8919e-09
-3.77919e-07
-1.00762e-08
-3.71749e-07
-1.12733e-08
-3.64935e-07
-1.24769e-08
-3.57479e-07
-1.368e-08
-3.49385e-07
-1.48753e-08
-3.40664e-07
-1.60547e-08
-3.31327e-07
-1.721e-08
-3.21393e-07
-1.83325e-08
-3.10886e-07
-1.9413e-08
-2.99832e-07
-2.04423e-08
-2.88264e-07
-2.1411e-08
-2.7622e-07
-2.23095e-08
-2.63743e-07
-2.31284e-08
-2.50881e-07
-2.38583e-08
-2.37684e-07
-2.44901e-08
-2.24212e-07
-2.5015e-08
-2.10524e-07
-2.54249e-08
-1.96685e-07
-2.57121e-08
-1.82766e-07
-2.58696e-08
-1.68837e-07
-2.58913e-08
-1.54973e-07
-2.57721e-08
-1.41251e-07
-2.55077e-08
-1.2775e-07
-2.50951e-08
-1.14548e-07
-2.45323e-08
-1.01727e-07
-2.38187e-08
-8.93635e-08
-2.29549e-08
-7.75372e-08
-2.19428e-08
-6.63237e-08
-2.0786e-08
-5.57964e-08
-1.94893e-08
-4.60246e-08
-1.80593e-08
-3.7073e-08
-1.65046e-08
-2.90002e-08
-1.48359e-08
-2.18569e-08
-1.30667e-08
-1.56843e-08
-1.12141e-08
-1.05112e-08
-9.30013e-09
-6.35034e-09
-7.35381e-09
-3.19357e-09
-5.41429e-09
-1.00508e-09
-3.53558e-09
2.87798e-10
-1.79359e-09
8.06704e-10
-2.96268e-10
7.36271e-10
8.04194e-10
3.39898e-10
1.29602e-09
8.76359e-10
1.41712e-10
-5.17139e-10
3.27655e-10
-8.7297e-10
4.00294e-10
-7.33425e-10
2.47743e-10
-2.41135e-10
-2.1084e-10
4.95636e-10
-1.0309e-09
1.39179e-09
-2.24699e-09
2.38177e-09
-3.87692e-09
3.41628e-09
-5.92529e-09
4.4588e-09
-8.38662e-09
5.4827e-09
-1.12478e-08
6.46897e-09
-1.44903e-08
7.40439e-09
-1.80916e-08
8.28025e-09
-2.2027e-08
9.09123e-09
-2.627e-08
9.83463e-09
-3.07938e-08
1.05098e-08
-3.55715e-08
1.11174e-08
-4.05768e-08
1.16595e-08
-4.57843e-08
1.21389e-08
-5.11698e-08
1.25588e-08
-5.67104e-08
1.29231e-08
-6.23849e-08
1.32357e-08
-6.81735e-08
1.35007e-08
-7.40581e-08
1.37224e-08
-8.00223e-08
1.39047e-08
-8.6051e-08
1.40516e-08
-9.2131e-08
1.41671e-08
-9.82504e-08
1.42546e-08
-1.04399e-07
1.43178e-08
-1.10567e-07
1.43597e-08
-1.16747e-07
1.43834e-08
-1.22931e-07
1.43916e-08
-1.29116e-07
1.43869e-08
-1.35294e-07
1.43716e-08
-1.41464e-07
1.43477e-08
-1.47621e-07
1.43172e-08
-1.53763e-07
1.42818e-08
-1.59889e-07
1.42431e-08
-1.65997e-07
1.42023e-08
-1.72088e-07
1.41608e-08
-1.7816e-07
1.41195e-08
-1.84215e-07
1.40796e-08
-1.90253e-07
1.40418e-08
-1.96275e-07
1.40069e-08
-2.02282e-07
1.39755e-08
-2.08276e-07
1.39483e-08
-2.14259e-07
1.39258e-08
-2.20233e-07
1.39084e-08
-2.262e-07
1.38965e-08
-2.32162e-07
1.38904e-08
-2.38123e-07
1.38904e-08
-2.44083e-07
1.38968e-08
-2.50047e-07
1.39096e-08
-2.56017e-07
1.39292e-08
-2.61995e-07
1.39555e-08
-2.67985e-07
1.39886e-08
-2.73988e-07
1.40284e-08
-2.80009e-07
1.4075e-08
-2.86049e-07
1.41283e-08
-2.92111e-07
1.41879e-08
-2.98198e-07
1.42539e-08
-3.04312e-07
1.43258e-08
-3.10456e-07
1.44032e-08
-3.1663e-07
1.44859e-08
-3.22838e-07
1.45733e-08
-3.29081e-07
1.46649e-08
-3.3536e-07
1.47599e-08
-3.41675e-07
1.48577e-08
-3.48029e-07
1.49575e-08
-3.54421e-07
1.50584e-08
-3.6085e-07
1.51593e-08
-3.67317e-07
1.52591e-08
-3.73819e-07
1.53566e-08
-3.80356e-07
1.54506e-08
-3.86924e-07
1.55395e-08
-3.93522e-07
1.56218e-08
-4.00144e-07
1.56959e-08
-4.06787e-07
1.576e-08
-4.13445e-07
1.5812e-08
-4.20113e-07
1.58501e-08
-4.26782e-07
1.58721e-08
-4.33446e-07
1.58757e-08
-4.40094e-07
1.58585e-08
-4.46718e-07
1.58179e-08
-4.53305e-07
1.57515e-08
-4.59844e-07
1.56563e-08
-4.66321e-07
1.55297e-08
-4.72721e-07
1.53687e-08
-4.79028e-07
1.51702e-08
-4.85226e-07
1.49313e-08
-4.91296e-07
1.46487e-08
-4.97217e-07
1.43194e-08
-5.02969e-07
1.39401e-08
-5.0853e-07
1.35077e-08
-5.13876e-07
1.3019e-08
-5.18983e-07
1.24709e-08
-5.23823e-07
1.18603e-08
-5.2837e-07
1.11845e-08
-5.32595e-07
1.04406e-08
-5.3647e-07
9.62604e-09
-5.39964e-07
8.73855e-09
-5.43046e-07
7.77605e-09
-5.45685e-07
6.73682e-09
-5.47848e-07
5.6195e-09
-5.49503e-07
4.42316e-09
-5.50618e-07
3.14735e-09
-5.51161e-07
1.79212e-09
-5.51098e-07
3.58149e-10
-5.504e-07
-1.15329e-09
-5.49036e-07
-2.7402e-09
-5.46976e-07
-4.39986e-09
-5.44192e-07
-6.12877e-09
-5.4066e-07
-7.92258e-09
-5.36354e-07
-9.77609e-09
-5.31256e-07
-1.16832e-08
-5.25345e-07
-1.36368e-08
-5.18608e-07
-1.5629e-08
-5.11033e-07
-1.76508e-08
-5.02614e-07
-1.96924e-08
-4.93348e-07
-2.17429e-08
-4.83238e-07
-2.37906e-08
-4.7229e-07
-2.5823e-08
-4.60518e-07
-2.78267e-08
-4.4794e-07
-2.97877e-08
-4.34581e-07
-3.16912e-08
-4.20472e-07
-3.35222e-08
-4.0565e-07
-3.52649e-08
-3.90157e-07
-3.69036e-08
-3.74044e-07
-3.84223e-08
-3.57368e-07
-3.98052e-08
-3.40189e-07
-4.10366e-08
-3.22578e-07
-4.21014e-08
-3.04608e-07
-4.2985e-08
-2.86359e-07
-4.36737e-08
-2.67916e-07
-4.41547e-08
-2.4937e-07
-4.44164e-08
-2.30812e-07
-4.44488e-08
-2.12341e-07
-4.42433e-08
-1.94056e-07
-4.37928e-08
-1.76059e-07
-4.30925e-08
-1.58452e-07
-4.21392e-08
-1.41338e-07
-4.0932e-08
-1.24821e-07
-3.94724e-08
-1.09e-07
-3.7764e-08
-9.39726e-08
-3.58131e-08
-7.98332e-08
-3.36286e-08
-6.66701e-08
-3.12224e-08
-5.45648e-08
-2.86099e-08
-4.35905e-08
-2.58102e-08
-3.38098e-08
-2.28475e-08
-2.5272e-08
-1.97519e-08
-1.80105e-08
-1.65617e-08
-1.20379e-08
-1.33264e-08
-7.34156e-09
-1.01106e-08
-3.87655e-09
-7.00058e-09
-1.55758e-09
-4.11257e-09
-2.48943e-10
-1.6049e-09
2.46808e-10
3.08445e-10
2.02474e-10
1.34035e-09
1.07883e-09
8.41998e-11
-6.01337e-10
1.2301e-10
-9.1178e-10
-3.48359e-11
-5.75574e-10
-4.99234e-10
2.23262e-10
-1.35025e-09
1.34666e-09
-2.64334e-09
2.68487e-09
-4.4134e-09
4.15184e-09
-6.67848e-09
5.68136e-09
-9.44297e-09
7.22329e-09
-1.27004e-08
8.74016e-09
-1.64361e-08
1.02046e-08
-2.06288e-08
1.15971e-08
-2.52531e-08
1.29046e-08
-3.02804e-08
1.41185e-08
-3.56801e-08
1.52344e-08
-4.14209e-08
1.62506e-08
-4.74713e-08
1.71678e-08
-5.38002e-08
1.79884e-08
-6.03773e-08
1.8716e-08
-6.71738e-08
1.93553e-08
-7.41623e-08
1.99116e-08
-8.1317e-08
2.03904e-08
-8.86141e-08
2.07978e-08
-9.60314e-08
2.11397e-08
-1.03549e-07
2.1422e-08
-1.11148e-07
2.16507e-08
-1.18812e-07
2.18314e-08
-1.26527e-07
2.19694e-08
-1.34279e-07
2.20699e-08
-1.42057e-07
2.21377e-08
-1.49851e-07
2.21773e-08
-1.57652e-07
2.21927e-08
-1.65453e-07
2.21879e-08
-1.73248e-07
2.21663e-08
-1.81031e-07
2.21312e-08
-1.88799e-07
2.20853e-08
-1.96549e-07
2.20314e-08
-2.04278e-07
2.19718e-08
-2.11984e-07
2.19086e-08
-2.19667e-07
2.18436e-08
-2.27326e-07
2.17787e-08
-2.34962e-07
2.17153e-08
-2.42575e-07
2.16547e-08
-2.50166e-07
2.1598e-08
-2.57737e-07
2.15465e-08
-2.65289e-07
2.15009e-08
-2.72825e-07
2.1462e-08
-2.80348e-07
2.14307e-08
-2.87858e-07
2.14074e-08
-2.95361e-07
2.13927e-08
-3.02857e-07
2.13871e-08
-3.10352e-07
2.13908e-08
-3.17846e-07
2.14043e-08
-3.25345e-07
2.14276e-08
-3.3285e-07
2.1461e-08
-3.40366e-07
2.15045e-08
-3.47896e-07
2.1558e-08
-3.55442e-07
2.16216e-08
-3.63009e-07
2.1695e-08
-3.70599e-07
2.17779e-08
-3.78215e-07
2.187e-08
-3.8586e-07
2.19709e-08
-3.93537e-07
2.208e-08
-4.01248e-07
2.21967e-08
-4.08994e-07
2.23202e-08
-4.16779e-07
2.24496e-08
-4.24603e-07
2.25839e-08
-4.32467e-07
2.27221e-08
-4.40373e-07
2.28628e-08
-4.48319e-07
2.30046e-08
-4.56306e-07
2.3146e-08
-4.64332e-07
2.32852e-08
-4.72396e-07
2.34205e-08
-4.80495e-07
2.35497e-08
-4.88626e-07
2.36706e-08
-4.96785e-07
2.3781e-08
-5.04967e-07
2.38782e-08
-5.13167e-07
2.39595e-08
-5.21377e-07
2.4022e-08
-5.29589e-07
2.40626e-08
-5.37795e-07
2.40781e-08
-5.45984e-07
2.40649e-08
-5.54145e-07
2.40196e-08
-5.62266e-07
2.39382e-08
-5.70331e-07
2.38168e-08
-5.78326e-07
2.36514e-08
-5.86234e-07
2.34376e-08
-5.94037e-07
2.31711e-08
-6.01714e-07
2.28474e-08
-6.09244e-07
2.24619e-08
-6.16605e-07
2.20099e-08
-6.23773e-07
2.14867e-08
-6.3072e-07
2.08876e-08
-6.3742e-07
2.02079e-08
-6.43844e-07
1.9443e-08
-6.49962e-07
1.85882e-08
-6.55741e-07
1.76393e-08
-6.61148e-07
1.65918e-08
-6.66149e-07
1.54419e-08
-6.70709e-07
1.41858e-08
-6.74791e-07
1.28203e-08
-6.78357e-07
1.13424e-08
-6.8137e-07
9.74973e-09
-6.83791e-07
8.04044e-09
-6.85581e-07
6.21334e-09
-6.86702e-07
4.26796e-09
-6.87114e-07
2.20462e-09
-6.86781e-07
2.45136e-11
-6.85664e-07
-2.27022e-09
-6.83728e-07
-4.67638e-09
-6.80938e-07
-7.1897e-09
-6.77262e-07
-9.80473e-09
-6.7267e-07
-1.25148e-08
-6.67134e-07
-1.53119e-08
-6.6063e-07
-1.81869e-08
-6.53138e-07
-2.1129e-08
-6.44641e-07
-2.41262e-08
-6.35127e-07
-2.7165e-08
-6.24588e-07
-3.02308e-08
-6.13024e-07
-3.33073e-08
-6.00437e-07
-3.6377e-08
-5.86839e-07
-3.94213e-08
-5.72245e-07
-4.24204e-08
-5.5668e-07
-4.53533e-08
-5.40173e-07
-4.81983e-08
-5.22762e-07
-5.09329e-08
-5.04493e-07
-5.35341e-08
-4.85418e-07
-5.59785e-08
-4.65598e-07
-5.82425e-08
-4.451e-07
-6.03028e-08
-4.24e-07
-6.21364e-08
-4.02381e-07
-6.37209e-08
-3.80331e-07
-6.50348e-08
-3.57947e-07
-6.60579e-08
-3.3533e-07
-6.67716e-08
-3.12588e-07
-6.71588e-08
-2.89832e-07
-6.72047e-08
-2.67178e-07
-6.68966e-08
-2.44747e-07
-6.62246e-08
-2.22658e-07
-6.51813e-08
-2.01035e-07
-6.37625e-08
-1.79999e-07
-6.19671e-08
-1.59674e-07
-5.97977e-08
-1.40178e-07
-5.726e-08
-1.21627e-07
-5.4364e-08
-1.04132e-07
-5.11238e-08
-8.77967e-08
-4.75578e-08
-7.27167e-08
-4.369e-08
-5.89769e-08
-3.955e-08
-4.66496e-08
-3.51748e-08
-3.5791e-08
-3.06104e-08
-2.64384e-08
-2.59143e-08
-1.86059e-08
-2.11589e-08
-1.22796e-08
-1.6437e-08
-7.41168e-09
-1.18685e-08
-3.91408e-09
-7.61017e-09
-1.65075e-09
-3.86824e-09
-4.29683e-10
-9.12623e-10
6.52363e-12
9.04147e-10
1.08536e-09
9.40737e-12
-6.10743e-10
-1.41668e-10
-7.60705e-10
-5.87934e-10
-1.29315e-10
-1.43009e-09
1.06542e-09
-2.74216e-09
2.65873e-09
-4.57553e-09
4.51825e-09
-6.96233e-09
6.53863e-09
-9.91849e-09
8.63753e-09
-1.34466e-08
1.07514e-08
-1.75382e-08
1.28318e-08
-2.21765e-08
1.48429e-08
-2.73379e-08
1.67586e-08
-3.2994e-08
1.85607e-08
-3.9113e-08
2.02375e-08
-4.56608e-08
2.17822e-08
-5.26024e-08
2.31922e-08
-5.99023e-08
2.44677e-08
-6.75254e-08
2.56114e-08
-7.54374e-08
2.66281e-08
-8.36055e-08
2.75234e-08
-9.19982e-08
2.83043e-08
-1.00586e-07
2.89783e-08
-1.09342e-07
2.95533e-08
-1.18239e-07
3.00372e-08
-1.27255e-07
3.04381e-08
-1.36368e-07
3.07639e-08
-1.45559e-07
3.10224e-08
-1.54811e-07
3.12208e-08
-1.64107e-07
3.13663e-08
-1.73435e-07
3.14653e-08
-1.82782e-07
3.15241e-08
-1.92137e-07
3.15485e-08
-2.01493e-07
3.15437e-08
-2.10842e-07
3.15147e-08
-2.20176e-07
3.14659e-08
-2.29492e-07
3.14013e-08
-2.38786e-07
3.13247e-08
-2.48053e-07
3.12393e-08
-2.57293e-07
3.11482e-08
-2.66503e-07
3.10541e-08
-2.75684e-07
3.09593e-08
-2.84834e-07
3.0866e-08
-2.93956e-07
3.07761e-08
-3.03049e-07
3.06912e-08
-3.12116e-07
3.0613e-08
-3.21157e-07
3.05427e-08
-3.30177e-07
3.04815e-08
-3.39177e-07
3.04303e-08
-3.48159e-07
3.03902e-08
-3.57128e-07
3.03617e-08
-3.66087e-07
3.03456e-08
-3.75038e-07
3.03423e-08
-3.83986e-07
3.03523e-08
-3.92935e-07
3.03759e-08
-4.01887e-07
3.04133e-08
-4.10847e-07
3.04645e-08
-4.19819e-07
3.05295e-08
-4.28805e-07
3.06082e-08
-4.37811e-07
3.07004e-08
-4.46838e-07
3.08055e-08
-4.55891e-07
3.09233e-08
-4.64973e-07
3.10529e-08
-4.74087e-07
3.11936e-08
-4.83235e-07
3.13445e-08
-4.92419e-07
3.15045e-08
-5.01642e-07
3.16722e-08
-5.10904e-07
3.18464e-08
-5.20208e-07
3.20254e-08
-5.29552e-07
3.22073e-08
-5.38938e-07
3.23902e-08
-5.48364e-07
3.25718e-08
-5.57828e-07
3.27498e-08
-5.67329e-07
3.29214e-08
-5.76863e-07
3.30838e-08
-5.86427e-07
3.3234e-08
-5.96014e-07
3.33685e-08
-6.0562e-07
3.34837e-08
-6.15236e-07
3.35759e-08
-6.24855e-07
3.36409e-08
-6.34467e-07
3.36744e-08
-6.4406e-07
3.36719e-08
-6.53624e-07
3.36285e-08
-6.63143e-07
3.35391e-08
-6.72604e-07
3.33986e-08
-6.81988e-07
3.32013e-08
-6.91278e-07
3.29416e-08
-7.00454e-07
3.26136e-08
-7.09494e-07
3.22112e-08
-7.18375e-07
3.17283e-08
-7.27072e-07
3.11584e-08
-7.35557e-07
3.04952e-08
-7.43803e-07
2.97323e-08
-7.51778e-07
2.88632e-08
-7.59452e-07
2.78814e-08
-7.6679e-07
2.67806e-08
-7.73756e-07
2.55547e-08
-7.80314e-07
2.41976e-08
-7.86426e-07
2.27038e-08
-7.92052e-07
2.10677e-08
-7.97151e-07
1.92846e-08
-8.01681e-07
1.735e-08
-8.05598e-07
1.52602e-08
-8.08861e-07
1.3012e-08
-8.11424e-07
1.06033e-08
-8.13243e-07
8.03245e-09
-8.14274e-07
5.29922e-09
-8.14474e-07
2.4043e-09
-8.13799e-07
-6.50402e-10
-8.12207e-07
-3.86165e-09
-8.09659e-07
-7.22481e-09
-8.06115e-07
-1.07337e-08
-8.01539e-07
-1.43806e-08
-7.95898e-07
-1.81561e-08
-7.89161e-07
-2.20489e-08
-7.81301e-07
-2.60462e-08
-7.72297e-07
-3.01331e-08
-7.62131e-07
-3.42928e-08
-7.50789e-07
-3.85069e-08
-7.38265e-07
-4.27549e-08
-7.24557e-07
-4.70144e-08
-7.09673e-07
-5.12616e-08
-6.93623e-07
-5.54708e-08
-6.76429e-07
-5.96147e-08
-6.58118e-07
-6.36647e-08
-6.38725e-07
-6.75912e-08
-6.18294e-07
-7.13634e-08
-5.96878e-07
-7.49498e-08
-5.74538e-07
-7.83186e-08
-5.51343e-07
-8.14376e-08
-5.27371e-07
-8.4275e-08
-5.02708e-07
-8.67994e-08
-4.77449e-07
-8.89804e-08
-4.51695e-07
-9.07888e-08
-4.25555e-07
-9.21971e-08
-3.99147e-07
-9.31798e-08
-3.72592e-07
-9.37139e-08
-3.46018e-07
-9.37791e-08
-3.19556e-07
-9.33583e-08
-2.93342e-07
-9.24381e-08
-2.67515e-07
-9.10086e-08
-2.42213e-07
-8.90643e-08
-2.17576e-07
-8.66042e-08
-1.93742e-07
-8.36318e-08
-1.70846e-07
-8.01559e-08
-1.4902e-07
-7.61906e-08
-1.28387e-07
-7.1756e-08
-1.09067e-07
-6.68786e-08
-9.11647e-08
-6.15918e-08
-7.4777e-08
-5.59377e-08
-5.99839e-08
-4.99679e-08
-4.68484e-08
-4.37459e-08
-3.54128e-08
-3.73499e-08
-2.56945e-08
-3.08772e-08
-1.76823e-08
-2.44492e-08
-1.13316e-08
-1.82192e-08
-6.55956e-09
-1.23822e-08
-3.24034e-09
-7.18745e-09
-1.20045e-09
-2.95252e-09
-2.14605e-10
-8.17002e-11
8.70758e-10
-7.53332e-11
-5.35406e-10
-4.44371e-10
-3.9167e-10
-1.2199e-09
6.46221e-10
-2.48843e-09
2.33395e-09
-4.31393e-09
4.48423e-09
-6.74046e-09
6.94478e-09
-9.79473e-09
9.5929e-09
-1.34885e-08
1.23313e-08
-1.78208e-08
1.50837e-08
-2.27805e-08
1.77915e-08
-2.83478e-08
2.04102e-08
-3.44963e-08
2.2907e-08
-4.11947e-08
2.52591e-08
-4.84082e-08
2.7451e-08
-5.60996e-08
2.94736e-08
-6.42305e-08
3.13231e-08
-7.27621e-08
3.29992e-08
-8.16557e-08
3.45051e-08
-9.08737e-08
3.58461e-08
-1.0038e-07
3.70294e-08
-1.10139e-07
3.80636e-08
-1.20119e-07
3.89579e-08
-1.30288e-07
3.97225e-08
-1.40618e-07
4.03674e-08
-1.51083e-07
4.09029e-08
-1.61658e-07
4.13392e-08
-1.72322e-07
4.16863e-08
-1.83055e-07
4.19535e-08
-1.93838e-07
4.21501e-08
-2.04658e-07
4.22847e-08
-2.15499e-07
4.23652e-08
-2.2635e-07
4.23993e-08
-2.372e-07
4.2394e-08
-2.48041e-07
4.23556e-08
-2.58865e-07
4.22901e-08
-2.69667e-07
4.22028e-08
-2.80441e-07
4.20986e-08
-2.91183e-07
4.1982e-08
-3.01892e-07
4.1857e-08
-3.12565e-07
4.17271e-08
-3.23202e-07
4.15956e-08
-3.33801e-07
4.14654e-08
-3.44364e-07
4.13389e-08
-3.54891e-07
4.12186e-08
-3.65385e-07
4.11065e-08
-3.75846e-07
4.10042e-08
-3.86278e-07
4.09135e-08
-3.96684e-07
4.08357e-08
-4.07065e-07
4.0772e-08
-4.17427e-07
4.07233e-08
-4.27772e-07
4.06906e-08
-4.38104e-07
4.06746e-08
-4.48428e-07
4.06757e-08
-4.58746e-07
4.06945e-08
-4.69064e-07
4.07312e-08
-4.79386e-07
4.07858e-08
-4.89714e-07
4.08583e-08
-5.00055e-07
4.09486e-08
-5.10411e-07
4.10563e-08
-5.20786e-07
4.11808e-08
-5.31184e-07
4.13215e-08
-5.41609e-07
4.14774e-08
-5.52063e-07
4.16476e-08
-5.62549e-07
4.18307e-08
-5.7307e-07
4.20252e-08
-5.83627e-07
4.22295e-08
-5.94222e-07
4.24416e-08
-6.04856e-07
4.26593e-08
-6.15529e-07
4.28803e-08
-6.2624e-07
4.31017e-08
-6.36989e-07
4.33207e-08
-6.47774e-07
4.3534e-08
-6.5859e-07
4.3738e-08
-6.69435e-07
4.39289e-08
-6.80304e-07
4.41026e-08
-6.9119e-07
4.42546e-08
-7.02087e-07
4.43802e-08
-7.12985e-07
4.44742e-08
-7.23875e-07
4.45312e-08
-7.34746e-07
4.45455e-08
-7.45586e-07
4.45111e-08
-7.56379e-07
4.44216e-08
-7.6711e-07
4.42703e-08
-7.77762e-07
4.40503e-08
-7.88315e-07
4.37544e-08
-7.98748e-07
4.33751e-08
-8.09039e-07
4.29046e-08
-8.19163e-07
4.2335e-08
-8.29093e-07
4.16583e-08
-8.38801e-07
4.08662e-08
-8.48256e-07
3.99504e-08
-8.57426e-07
3.89025e-08
-8.66277e-07
3.77142e-08
-8.74773e-07
3.63772e-08
-8.82876e-07
3.48832e-08
-8.90546e-07
3.32245e-08
-8.97741e-07
3.13933e-08
-9.0442e-07
2.93825e-08
-9.10538e-07
2.71852e-08
-9.16048e-07
2.47952e-08
-9.20905e-07
2.22072e-08
-9.25061e-07
1.94163e-08
-9.28468e-07
1.64189e-08
-9.31077e-07
1.32123e-08
-9.3284e-07
9.79489e-09
-9.33707e-07
6.16652e-09
-9.33631e-07
2.32844e-09
-9.32565e-07
-1.71654e-09
-9.30463e-07
-5.9639e-09
-9.2728e-07
-1.04073e-08
-9.22976e-07
-1.50383e-08
-9.1751e-07
-1.98467e-08
-9.10846e-07
-2.48198e-08
-9.02952e-07
-2.9943e-08
-8.93799e-07
-3.5199e-08
-8.83364e-07
-4.05684e-08
-8.71627e-07
-4.60294e-08
-8.58577e-07
-5.15576e-08
-8.44205e-07
-5.71264e-08
-8.28513e-07
-6.27068e-08
-8.11507e-07
-6.82676e-08
-7.93202e-07
-7.37756e-08
-7.73621e-07
-7.91953e-08
-7.52796e-07
-8.44899e-08
-7.30766e-07
-8.96208e-08
-7.07582e-07
-9.45483e-08
-6.833e-07
-9.92316e-08
-6.57989e-07
-1.0363e-07
-6.31725e-07
-1.07701e-07
-6.04596e-07
-1.11404e-07
-5.76696e-07
-1.147e-07
-5.48129e-07
-1.17547e-07
-5.19009e-07
-1.19909e-07
-4.89455e-07
-1.2175e-07
-4.59597e-07
-1.23038e-07
-4.29569e-07
-1.23742e-07
-3.99511e-07
-1.23837e-07
-3.69569e-07
-1.233e-07
-3.39893e-07
-1.22114e-07
-3.10634e-07
-1.20267e-07
-2.81947e-07
-1.17752e-07
-2.53984e-07
-1.14567e-07
-2.26899e-07
-1.10717e-07
-2.00839e-07
-1.06216e-07
-1.75949e-07
-1.0108e-07
-1.52367e-07
-9.53381e-08
-1.30222e-07
-8.90242e-08
-1.0963e-07
-8.21832e-08
-9.06978e-08
-7.48702e-08
-7.35131e-08
-6.71526e-08
-5.81464e-08
-5.91126e-08
-4.46462e-08
-5.08501e-08
-3.30361e-08
-4.24873e-08
-2.33113e-08
-3.4174e-08
-1.54356e-08
-2.60949e-08
-9.33792e-09
-1.84798e-08
-4.91029e-09
-1.16151e-08
-2.00633e-09
-5.85648e-09
-4.42133e-10
-1.6459e-09
4.28625e-10
-1.65512e-10
-3.69897e-10
-7.70312e-10
2.13141e-10
-1.90305e-09
1.77895e-09
-3.63291e-09
4.06382e-09
-6.01094e-09
6.86226e-09
-9.07135e-09
1.00052e-08
-1.28332e-08
1.33548e-08
-1.73023e-08
1.68004e-08
-2.24729e-08
2.02543e-08
-2.83297e-08
2.36482e-08
-3.48491e-08
2.69297e-08
-4.20018e-08
3.00597e-08
-4.97532e-08
3.30104e-08
-5.80653e-08
3.57631e-08
-6.68981e-08
3.83064e-08
-7.621e-08
4.0635e-08
-8.59591e-08
4.27483e-08
-9.61037e-08
4.46497e-08
-1.06603e-07
4.63454e-08
-1.17418e-07
4.78441e-08
-1.2851e-07
4.91559e-08
-1.39844e-07
5.02921e-08
-1.51387e-07
5.12649e-08
-1.63106e-07
5.20868e-08
-1.74973e-07
5.27703e-08
-1.86962e-07
5.33281e-08
-1.99048e-07
5.37724e-08
-2.1121e-07
5.41151e-08
-2.23427e-07
5.43674e-08
-2.35683e-07
5.45403e-08
-2.47961e-07
5.46437e-08
-2.60249e-07
5.46873e-08
-2.72535e-07
5.46797e-08
-2.84809e-07
5.46291e-08
-2.97061e-07
5.45429e-08
-3.09287e-07
5.44281e-08
-3.21479e-07
5.42908e-08
-3.33633e-07
5.41366e-08
-3.45747e-07
5.39708e-08
-3.57818e-07
5.37979e-08
-3.69844e-07
5.3622e-08
-3.81826e-07
5.34469e-08
-3.93763e-07
5.32758e-08
-4.05656e-07
5.31118e-08
-4.17507e-07
5.29575e-08
-4.29318e-07
5.28151e-08
-4.41091e-07
5.26868e-08
-4.5283e-07
5.25743e-08
-4.64537e-07
5.24792e-08
-4.76216e-07
5.24027e-08
-4.87872e-07
5.23461e-08
-4.99507e-07
5.23102e-08
-5.11127e-07
5.22957e-08