/*--------------------------------*- C++ -*----------------------------------*\
  =========                 |
  \\      /  F ield         | OpenFOAM: The Open Source CFD Toolbox
   \\    /   O peration     | Website:  https://openfoam.org
    \\  /    A nd           | Version:  7
     \\/     M anipulation  |
\*---------------------------------------------------------------------------*/
FoamFile
{
    version     2.0;
    format      ascii;
    class       surfaceScalarField;
    location    "0.475";
    object      phi;
}
// * * * * * * * * * * * * * * * * * * * * * * * * * * * * * * * * * * * * * //

dimensions      [0 3 -1 0 0 0 0];

internalField   nonuniform List<scalar> 
25360
(
1.14442e-10
-1.14205e-10
3.59652e-10
-2.45209e-10
6.04266e-10
-2.44613e-10
7.65139e-10
-1.60871e-10
7.98126e-10
-3.29864e-11
6.81419e-10
1.16709e-10
4.06384e-10
2.75037e-10
-2.76508e-11
4.34036e-10
-6.16553e-10
5.88904e-10
-1.3533e-09
7.36749e-10
-2.22913e-09
8.7583e-10
-3.23427e-09
1.00514e-09
-4.35841e-09
1.12414e-09
-5.59103e-09
1.23263e-09
-6.92162e-09
1.33059e-09
-8.3398e-09
1.41818e-09
-9.83546e-09
1.49567e-09
-1.13988e-08
1.56338e-09
-1.30205e-08
1.6217e-09
-1.46916e-08
1.67106e-09
-1.64035e-08
1.71191e-09
-1.81482e-08
1.74471e-09
-1.99182e-08
1.76994e-09
-2.17062e-08
1.78806e-09
-2.35058e-08
1.79956e-09
-2.53107e-08
1.80491e-09
-2.71152e-08
1.80456e-09
-2.89142e-08
1.79896e-09
-3.07028e-08
1.78856e-09
-3.24765e-08
1.77377e-09
-3.42315e-08
1.755e-09
-3.59642e-08
1.73264e-09
-3.76712e-08
1.70708e-09
-3.93499e-08
1.67866e-09
-4.09976e-08
1.64772e-09
-4.26122e-08
1.61459e-09
-4.41917e-08
1.57956e-09
-4.57347e-08
1.54291e-09
-4.72396e-08
1.50492e-09
-4.87054e-08
1.46584e-09
-5.01313e-08
1.42588e-09
-5.15165e-08
1.38526e-09
-5.28607e-08
1.34417e-09
-5.41635e-08
1.30281e-09
-5.54248e-08
1.26132e-09
-5.66447e-08
1.21986e-09
-5.78233e-08
1.17856e-09
-5.89608e-08
1.13753e-09
-6.00577e-08
1.09689e-09
-6.11144e-08
1.05673e-09
-6.21315e-08
1.01713e-09
-6.31097e-08
9.7815e-10
-6.40495e-08
9.39858e-10
-6.49518e-08
9.02299e-10
-6.58173e-08
8.65513e-10
-6.66469e-08
8.29528e-10
-6.74412e-08
7.94366e-10
-6.82013e-08
7.60037e-10
-6.89278e-08
7.26546e-10
-6.96217e-08
6.93892e-10
-7.02838e-08
6.62067e-10
-7.09148e-08
6.31056e-10
-7.15157e-08
6.00839e-10
-7.20871e-08
5.71389e-10
-7.26297e-08
5.42675e-10
-7.31444e-08
5.14661e-10
-7.36317e-08
4.87307e-10
-7.40923e-08
4.60573e-10
-7.45267e-08
4.3441e-10
-7.49354e-08
4.08767e-10
-7.5319e-08
3.8359e-10
-7.56778e-08
3.58821e-10
-7.60122e-08
3.34402e-10
-7.63225e-08
3.10272e-10
-7.66089e-08
2.86367e-10
-7.68715e-08
2.62622e-10
-7.71105e-08
2.38969e-10
-7.73258e-08
2.15336e-10
-7.75175e-08
1.91654e-10
-7.76853e-08
1.67852e-10
-7.78292e-08
1.43858e-10
-7.79488e-08
1.19597e-10
-7.80438e-08
9.49964e-11
-7.81137e-08
6.99804e-11
-7.81582e-08
4.44744e-11
-7.81766e-08
1.84044e-11
-7.81683e-08
-8.303e-12
-7.81326e-08
-3.57205e-11
-7.80687e-08
-6.39202e-11
-7.79757e-08
-9.2973e-11
-7.78527e-08
-1.22948e-10
-7.76988e-08
-1.53912e-10
-7.75129e-08
-1.85928e-10
-7.72938e-08
-2.19059e-10
-7.70405e-08
-2.5336e-10
-7.67516e-08
-2.88887e-10
-7.64259e-08
-3.25687e-10
-7.60621e-08
-3.63805e-10
-7.56588e-08
-4.03279e-10
-7.52147e-08
-4.44139e-10
-7.47283e-08
-4.86412e-10
-7.41982e-08
-5.30113e-10
-7.36229e-08
-5.7525e-10
-7.30011e-08
-6.21822e-10
-7.23313e-08
-6.69817e-10
-7.16121e-08
-7.19213e-10
-7.08421e-08
-7.69974e-10
-7.002e-08
-8.22055e-10
-6.91446e-08
-8.75393e-10
-6.82147e-08
-9.29914e-10
-6.72292e-08
-9.85526e-10
-6.61871e-08
-1.04212e-09
-6.50875e-08
-1.09958e-09
-6.39297e-08
-1.15776e-09
-6.27132e-08
-1.2165e-09
-6.14376e-08
-1.27561e-09
-6.01027e-08
-1.33491e-09
-5.87086e-08
-1.39416e-09
-5.72554e-08
-1.45314e-09
-5.57439e-08
-1.51157e-09
-5.41747e-08
-1.56918e-09
-5.2549e-08
-1.62566e-09
-5.08683e-08
-1.68068e-09
-4.91345e-08
-1.7339e-09
-4.73495e-08
-1.78495e-09
-4.55161e-08
-1.83344e-09
-4.36371e-08
-1.87896e-09
-4.1716e-08
-1.92109e-09
-3.97566e-08
-1.95939e-09
-3.77632e-08
-1.99339e-09
-3.57406e-08
-2.02262e-09
-3.3694e-08
-2.0466e-09
-3.16292e-08
-2.06482e-09
-2.95524e-08
-2.07679e-09
-2.74704e-08
-2.08199e-09
-2.53905e-08
-2.0799e-09
-2.33205e-08
-2.07001e-09
-2.12687e-08
-2.0518e-09
-1.9244e-08
-2.02478e-09
-1.72555e-08
-1.98845e-09
-1.53132e-08
-1.94231e-09
-1.34273e-08
-1.88592e-09
-1.16084e-08
-1.81885e-09
-9.86775e-09
-1.74069e-09
-8.21665e-09
-1.6511e-09
-6.66685e-09
-1.5498e-09
-5.23025e-09
-1.4366e-09
-3.91886e-09
-1.31139e-09
-2.74459e-09
-1.17428e-09
-1.71904e-09
-1.02555e-09
-8.53197e-10
-8.65846e-10
-1.56884e-10
-6.96314e-10
3.61979e-10
-5.18865e-10
6.98644e-10
-3.36667e-10
8.53604e-10
-1.54963e-10
8.36096e-10
1.75056e-11
6.6994e-10
1.66154e-10
4.03895e-10
2.66045e-10
1.30769e-10
2.73125e-10
1.30768e-10
2.45527e-10
-3.59731e-10
6.3413e-10
-6.33809e-10
9.50186e-10
-5.60666e-10
1.04698e-09
-2.57664e-10
8.28665e-10
1.85332e-10
2.38743e-10
7.06633e-10
-7.5116e-10
1.26494e-09
-2.15007e-09
1.83295e-09
-3.95387e-09
2.39271e-09
-6.14957e-09
2.93245e-09
-8.71831e-09
3.44457e-09
-1.16374e-08
3.92422e-09
-1.48817e-08
4.36847e-09
-1.84248e-08
4.77576e-09
-2.22397e-08
5.14546e-09
-2.62992e-08
5.47763e-09
-3.05763e-08
5.77283e-09
-3.50449e-08
6.03197e-09
-3.96795e-08
6.25625e-09
-4.44554e-08
6.44704e-09
-4.93494e-08
6.60586e-09
-5.4339e-08
6.7343e-09
-5.94031e-08
6.83404e-09
-6.45218e-08
6.90678e-09
-6.96764e-08
6.95424e-09
-7.48497e-08
6.97813e-09
-8.00252e-08
6.98014e-09
-8.51882e-08
6.96195e-09
-9.03248e-08
6.92518e-09
-9.54225e-08
6.87143e-09
-1.0047e-07
6.80222e-09
-1.05456e-07
6.71903e-09
-1.10372e-07
6.62329e-09
-1.1521e-07
6.51634e-09
-1.19962e-07
6.39948e-09
-1.24621e-07
6.27393e-09
-1.29182e-07
6.14085e-09
-1.33641e-07
6.00133e-09
-1.37992e-07
5.85638e-09
-1.42233e-07
5.70696e-09
-1.46361e-07
5.55396e-09
-1.50374e-07
5.39819e-09
-1.54271e-07
5.24043e-09
-1.58049e-07
5.08136e-09
-1.61709e-07
4.92161e-09
-1.65251e-07
4.76178e-09
-1.68675e-07
4.60237e-09
-1.71982e-07
4.44386e-09
-1.75171e-07
4.28667e-09
-1.78246e-07
4.13115e-09
-1.81206e-07
3.97764e-09
-1.84054e-07
3.82641e-09
-1.86792e-07
3.67769e-09
-1.89422e-07
3.53167e-09
-1.91945e-07
3.38852e-09
-1.94364e-07
3.24834e-09
-1.9668e-07
3.11124e-09
-1.98898e-07
2.97726e-09
-2.01017e-07
2.84643e-09
-2.03042e-07
2.71874e-09
-2.04974e-07
2.59418e-09
-2.06816e-07
2.47269e-09
-2.08569e-07
2.35419e-09
-2.10237e-07
2.23859e-09
-2.1182e-07
2.12579e-09
-2.13321e-07
2.01563e-09
-2.14741e-07
1.90798e-09
-2.16083e-07
1.80267e-09
-2.17349e-07
1.69952e-09
-2.18538e-07
1.59834e-09
-2.19653e-07
1.49893e-09
-2.20696e-07
1.40107e-09
-2.21666e-07
1.30453e-09
-2.22565e-07
1.20908e-09
-2.23393e-07
1.11447e-09
-2.24151e-07
1.02045e-09
-2.24838e-07
9.2677e-10
-2.25456e-07
8.33158e-10
-2.26004e-07
7.39345e-10
-2.26481e-07
6.45055e-10
-2.26887e-07
5.50012e-10
-2.27222e-07
4.53934e-10
-2.27483e-07
3.5654e-10
-2.27671e-07
2.57545e-10
-2.27783e-07
1.56666e-10
-2.27818e-07
5.36181e-11
-2.27774e-07
-5.18786e-11
-2.2765e-07
-1.60101e-10
-2.27443e-07
-2.71323e-10
-2.2715e-07
-3.85811e-10
-2.26769e-07
-5.03826e-10
-2.26297e-07
-6.25618e-10
-2.25732e-07
-7.5143e-10
-2.25069e-07
-8.8149e-10
-2.24307e-07
-1.01601e-09
-2.2344e-07
-1.1552e-09
-2.22467e-07
-1.29922e-09
-2.21382e-07
-1.44825e-09
-2.20183e-07
-1.60242e-09
-2.18866e-07
-1.76184e-09
-2.17425e-07
-1.9266e-09
-2.15859e-07
-2.09675e-09
-2.14162e-07
-2.2723e-09
-2.1233e-07
-2.45326e-09
-2.10361e-07
-2.63955e-09
-2.08249e-07
-2.83108e-09
-2.05991e-07
-3.02771e-09
-2.03584e-07
-3.22924e-09
-2.01024e-07
-3.43543e-09
-1.98308e-07
-3.64598e-09
-1.95433e-07
-3.86052e-09
-1.92396e-07
-4.07863e-09
-1.89196e-07
-4.29983e-09
-1.8583e-07
-4.52356e-09
-1.82297e-07
-4.7492e-09
-1.78597e-07
-4.97605e-09
-1.74728e-07
-5.20333e-09
-1.70692e-07
-5.4302e-09
-1.6649e-07
-5.65572e-09
-1.62123e-07
-5.87889e-09
-1.57593e-07
-6.09862e-09
-1.52905e-07
-6.31374e-09
-1.48063e-07
-6.523e-09
-1.43072e-07
-6.72507e-09
-1.37938e-07
-6.91855e-09
-1.32669e-07
-7.10197e-09
-1.27275e-07
-7.27377e-09
-1.21763e-07
-7.43233e-09
-1.16147e-07
-7.57598e-09
-1.10437e-07
-7.70298e-09
-1.04648e-07
-7.81154e-09
-9.8795e-08
-7.89984e-09
-9.28938e-08
-7.96602e-09
-8.69625e-08
-8.00817e-09
-8.102e-08
-8.02441e-09
-7.50871e-08
-8.01282e-09
-6.91856e-08
-7.97151e-09
-6.33388e-08
-7.89861e-09
-5.75713e-08
-7.79229e-09
-5.1909e-08
-7.65077e-09
-4.63789e-08
-7.47236e-09
-4.10094e-08
-7.25549e-09
-3.58295e-08
-6.99872e-09
-3.08694e-08
-6.70079e-09
-2.61598e-08
-6.36068e-09
-2.17319e-08
-5.97769e-09
-1.7617e-08
-5.55152e-09
-1.3846e-08
-5.08239e-09
-1.0449e-08
-4.5713e-09
-7.45436e-09
-4.02021e-09
-4.88765e-09
-3.43256e-09
-2.77016e-09
-2.81381e-09
-1.11658e-09
-2.17244e-09
6.81726e-11
-1.52142e-09
7.93731e-10
-8.80525e-10
1.09116e-09
-2.79927e-10
1.02286e-09
2.3445e-10
6.95416e-10
5.93481e-10
2.73152e-10
6.95385e-10
4.03919e-10
2.45877e-10
-6.05607e-10
5.63636e-10
-9.51566e-10
6.98068e-10
-6.95095e-10
4.75173e-10
-3.47653e-11
-2.24752e-10
8.85259e-10
-1.4776e-09
1.95948e-09
-3.32525e-09
3.1126e-09
-5.78425e-09
4.29196e-09
-8.85263e-09
5.46108e-09
-1.2515e-08
6.59487e-09
-1.67467e-08
7.67625e-09
-2.15164e-08
8.69386e-09
-2.67883e-08
9.6404e-09
-3.25241e-08
1.05115e-08
-3.86837e-08
1.13051e-08
-4.52266e-08
1.20205e-08
-5.2112e-08
1.26583e-08
-5.93e-08
1.32199e-08
-6.67513e-08
1.37076e-08
-7.44281e-08
1.41238e-08
-8.22938e-08
1.44716e-08
-9.03136e-08
1.47541e-08
-9.84544e-08
1.49748e-08
-1.06685e-07
1.51372e-08
-1.14975e-07
1.52448e-08
-1.23299e-07
1.53012e-08
-1.31628e-07
1.531e-08
-1.39941e-07
1.52748e-08
-1.48215e-07
1.51989e-08
-1.56429e-07
1.50858e-08
-1.64566e-07
1.49388e-08
-1.72608e-07
1.47611e-08
-1.8054e-07
1.45556e-08
-1.88349e-07
1.43255e-08
-1.96023e-07
1.40733e-08
-2.03551e-07
1.38018e-08
-2.10924e-07
1.35136e-08
-2.18133e-07
1.32109e-08
-2.25173e-07
1.2896e-08
-2.32037e-07
1.2571e-08
-2.38721e-07
1.22379e-08
-2.45221e-07
1.18983e-08
-2.51535e-07
1.15541e-08
-2.5766e-07
1.12067e-08
-2.63596e-07
1.08575e-08
-2.69342e-07
1.05079e-08
-2.74899e-07
1.01589e-08
-2.80266e-07
9.81155e-09
-2.85447e-07
9.46685e-09
-2.90441e-07
9.12558e-09
-2.95252e-07
8.78847e-09
-2.99882e-07
8.45612e-09
-3.04333e-07
8.12907e-09
-3.08609e-07
7.80773e-09
-3.12713e-07
7.49248e-09
-3.16648e-07
7.18358e-09
-3.20418e-07
6.88124e-09
-3.24026e-07
6.58558e-09
-3.27477e-07
6.29669e-09
-3.30773e-07
6.01455e-09
-3.33917e-07
5.73912e-09
-3.36915e-07
5.4703e-09
-3.39769e-07
5.20793e-09
-3.42482e-07
4.95182e-09
-3.45058e-07
4.70172e-09
-3.475e-07
4.45735e-09
-3.4981e-07
4.21838e-09
-3.51992e-07
3.98447e-09
-3.54048e-07
3.75523e-09
-3.5598e-07
3.53024e-09
-3.5779e-07
3.30906e-09
-3.5948e-07
3.09122e-09
-3.61051e-07
2.87624e-09
-3.62506e-07
2.66359e-09
-3.63844e-07
2.45276e-09
-3.65067e-07
2.24319e-09
-3.66175e-07
2.03432e-09
-3.67167e-07
1.82558e-09
-3.68044e-07
1.61639e-09
-3.68805e-07
1.40613e-09
-3.69449e-07
1.19422e-09
-3.69975e-07
9.80037e-10
-3.70382e-07
7.6297e-10
-3.70667e-07
5.42405e-10
-3.70828e-07
3.17725e-10
-3.70862e-07
8.83168e-11
-3.70768e-07
-1.46427e-10
-3.70541e-07
-3.87106e-10
-3.70178e-07
-6.34312e-10
-3.69675e-07
-8.88619e-10
-3.69028e-07
-1.15059e-09
-3.68233e-07
-1.42076e-09
-3.67285e-07
-1.69965e-09
-3.66179e-07
-1.98776e-09
-3.64909e-07
-2.28553e-09
-3.63471e-07
-2.59339e-09
-3.61858e-07
-2.91173e-09
-3.60066e-07
-3.24088e-09
-3.58087e-07
-3.58113e-09
-3.55916e-07
-3.9327e-09
-3.53547e-07
-4.29578e-09
-3.50973e-07
-4.67045e-09
-3.48189e-07
-5.05676e-09
-3.45188e-07
-5.45464e-09
-3.41963e-07
-5.86396e-09
-3.3851e-07
-6.28449e-09
-3.34822e-07
-6.71589e-09
-3.30893e-07
-7.15773e-09
-3.26719e-07
-7.60945e-09
-3.22295e-07
-8.07038e-09
-3.17615e-07
-8.53971e-09
-3.12678e-07
-9.01652e-09
-3.07478e-07
-9.49972e-09
-3.02013e-07
-9.98809e-09
-2.96282e-07
-1.04802e-08
-2.90284e-07
-1.09747e-08
-2.84017e-07
-1.14696e-08
-2.77484e-07
-1.19633e-08
-2.70686e-07
-1.24537e-08
-2.63627e-07
-1.29385e-08
-2.5631e-07
-1.34154e-08
-2.48742e-07
-1.38818e-08
-2.4093e-07
-1.43351e-08
-2.32882e-07
-1.47724e-08
-2.2461e-07
-1.51906e-08
-2.16126e-07
-1.55864e-08
-2.07443e-07
-1.59567e-08
-1.98577e-07
-1.62978e-08
-1.89547e-07
-1.66061e-08
-1.80372e-07
-1.6878e-08
-1.71074e-07
-1.71095e-08
-1.61677e-07
-1.72968e-08
-1.52207e-07
-1.74359e-08
-1.42693e-07
-1.75227e-08
-1.33164e-07
-1.75533e-08
-1.23653e-07
-1.75235e-08
-1.14196e-07
-1.74294e-08
-1.04827e-07
-1.7267e-08
-9.55869e-08
-1.70326e-08
-8.65152e-08
-1.67225e-08
-7.76542e-08
-1.63333e-08
-6.90478e-08
-1.58619e-08
-6.07412e-08
-1.53054e-08
-5.27805e-08
-1.46615e-08
-4.52127e-08
-1.39285e-08
-3.80849e-08
-1.31055e-08
-3.14441e-08
-1.21923e-08
-2.5336e-08
-1.11904e-08
-1.98046e-08
-1.01028e-08
-1.48901e-08
-8.93468e-09
-1.0628e-08
-7.69463e-09
-7.04632e-09
-6.39552e-09
-4.16239e-09
-5.05638e-09
-1.97875e-09
-3.70506e-09
-4.77387e-10
-2.38189e-09
3.87934e-10
-1.14525e-09
7.01365e-10
-7.89848e-11
5.96192e-10
6.9865e-10
2.66943e-10
1.02463e-09
6.70861e-10
1.63825e-10
-7.6943e-10
2.64918e-10
-1.05266e-09
4.45032e-11
-4.74678e-10
-6.77808e-10
6.87549e-10
-2.02879e-09
2.23624e-09
-4.09167e-09
4.02237e-09
-6.91457e-09
5.93549e-09
-1.0518e-08
7.8954e-09
-1.49013e-08
9.84434e-09
-2.00475e-08
1.17411e-08
-2.59281e-08
1.35568e-08
-3.25055e-08
1.52713e-08
-3.97363e-08
1.68712e-08
-4.7573e-08
1.83482e-08
-5.59653e-08
1.96974e-08
-6.48617e-08
2.09169e-08
-7.42104e-08
2.2007e-08
-8.39599e-08
2.29694e-08
-9.40593e-08
2.3807e-08
-1.04459e-07
2.45239e-08
-1.15112e-07
2.51246e-08
-1.25972e-07
2.56142e-08
-1.36996e-07
2.59983e-08
-1.48141e-07
2.62826e-08
-1.59369e-07
2.64729e-08
-1.70643e-07
2.65753e-08
-1.81929e-07
2.65957e-08
-1.93194e-07
2.65401e-08
-2.0441e-07
2.64143e-08
-2.15548e-07
2.62241e-08
-2.26584e-07
2.5975e-08
-2.37496e-07
2.56725e-08
-2.48262e-07
2.53218e-08
-2.58864e-07
2.49279e-08
-2.69287e-07
2.44956e-08
-2.79514e-07
2.40295e-08
-2.89535e-07
2.35339e-08
-2.99337e-07
2.30128e-08
-3.08911e-07
2.24702e-08
-3.18249e-07
2.19096e-08
-3.27346e-07
2.13344e-08
-3.36195e-07
2.07477e-08
-3.44794e-07
2.01524e-08
-3.53138e-07
1.95511e-08
-3.61227e-07
1.89464e-08
-3.69059e-07
1.83404e-08
-3.76636e-07
1.77352e-08
-3.83957e-07
1.71325e-08
-3.91024e-07
1.65339e-08
-3.97839e-07
1.5941e-08
-4.04406e-07
1.53549e-08
-4.10726e-07
1.47768e-08
-4.16805e-07
1.42075e-08
-4.22645e-07
1.36479e-08
-4.28251e-07
1.30986e-08
-4.33627e-07
1.256e-08
-4.38779e-07
1.20325e-08
-4.43709e-07
1.15164e-08
-4.48425e-07
1.10118e-08
-4.52929e-07
1.05188e-08
-4.57227e-07
1.00372e-08
-4.61323e-07
9.56686e-09
-4.65223e-07
9.10758e-09
-4.6893e-07
8.659e-09
-4.72449e-07
8.22071e-09
-4.75784e-07
7.79222e-09
-4.78939e-07
7.37299e-09
-4.81917e-07
6.96243e-09
-4.84721e-07
6.55985e-09
-4.87356e-07
6.16456e-09
-4.89822e-07
5.7758e-09
-4.92124e-07
5.39276e-09
-4.94262e-07
5.01459e-09
-4.96239e-07
4.64043e-09
-4.98056e-07
4.26935e-09
-4.99713e-07
3.90041e-09
-5.01211e-07
3.53266e-09
-5.02551e-07
3.1651e-09
-5.03731e-07
2.79671e-09
-5.04751e-07
2.42648e-09
-5.0561e-07
2.05336e-09
-5.06307e-07
1.6763e-09
-5.06838e-07
1.29425e-09
-5.07202e-07
9.06142e-10
-5.07395e-07
5.1093e-10
-5.07414e-07
1.07557e-10
-5.07256e-07
-3.0502e-10
-5.06915e-07
-7.27832e-10
-5.06387e-07
-1.16189e-09
-5.05668e-07
-1.60817e-09
-5.04751e-07
-2.06764e-09
-5.0363e-07
-2.54123e-09
-5.023e-07
-3.0298e-09
-5.00754e-07
-3.53419e-09
-4.98984e-07
-4.05519e-09
-4.96984e-07
-4.5935e-09
-4.94746e-07
-5.14977e-09
-4.92262e-07
-5.72456e-09
-4.89525e-07
-6.31835e-09
-4.86526e-07
-6.93152e-09
-4.83258e-07
-7.56434e-09
-4.79711e-07
-8.21696e-09
-4.75878e-07
-8.88942e-09
-4.71751e-07
-9.58159e-09
-4.67322e-07
-1.02932e-08
-4.62583e-07
-1.10239e-08
-4.57526e-07
-1.1773e-08
-4.52144e-07
-1.25397e-08
-4.4643e-07
-1.33231e-08
-4.40378e-07
-1.4122e-08
-4.33983e-07
-1.4935e-08
-4.27239e-07
-1.57604e-08
-4.20142e-07
-1.65964e-08
-4.1269e-07
-1.74408e-08
-4.04879e-07
-1.82912e-08
-3.96708e-07
-1.9145e-08
-3.88179e-07
-1.99992e-08
-3.79292e-07
-2.08506e-08
-3.7005e-07
-2.16957e-08
-3.60457e-07
-2.25307e-08
-3.50521e-07
-2.33515e-08
-3.4025e-07
-2.41536e-08
-3.29652e-07
-2.49326e-08
-3.18741e-07
-2.56833e-08
-3.07531e-07
-2.64006e-08
-2.96039e-07
-2.70789e-08
-2.84283e-07
-2.77126e-08
-2.72285e-07
-2.82956e-08
-2.60069e-07
-2.88218e-08
-2.47662e-07
-2.92848e-08
-2.35094e-07
-2.96781e-08
-2.22396e-07
-2.9995e-08
-2.09603e-07
-3.02288e-08
-1.96753e-07
-3.03726e-08
-1.83887e-07
-3.04196e-08
-1.71047e-07
-3.03631e-08
-1.5828e-07
-3.01963e-08
-1.45634e-07
-2.99128e-08
-1.33161e-07
-2.95063e-08
-1.20912e-07
-2.89708e-08
-1.08945e-07
-2.83008e-08
-9.73153e-08
-2.74913e-08
-8.60827e-08
-2.6538e-08
-7.53066e-08
-2.54375e-08
-6.50477e-08
-2.41875e-08
-5.53661e-08
-2.2787e-08
-4.63214e-08
-2.1237e-08
-3.79712e-08
-1.95407e-08
-3.03696e-08
-1.77043e-08
-2.35663e-08
-1.5738e-08
-1.76034e-08
-1.36575e-08
-1.25135e-08
-1.14855e-08
-8.31547e-09
-9.25437e-09
-5.01052e-09
-7.01001e-09
-2.57599e-09
-4.81643e-09
-9.58582e-10
-2.76266e-09
-6.58878e-11
-9.71682e-10
2.43054e-10
3.89704e-10
1.69041e-10
1.09864e-09
8.399e-10
3.77995e-11
-8.07228e-10
-1.74046e-10
-8.40809e-10
-8.70384e-10
2.21662e-10
-2.22131e-09
2.03848e-09
-4.34862e-09
4.36356e-09
-7.33387e-09
7.00762e-09
-1.1225e-08
9.82665e-09
-1.60426e-08
1.2713e-08
-2.17852e-08
1.55869e-08
-2.84339e-08
1.83899e-08
-3.59566e-08
2.10795e-08
-4.4311e-08
2.36257e-08
-5.34474e-08
2.60077e-08
-6.33111e-08
2.82118e-08
-7.38437e-08
3.023e-08
-8.49849e-08
3.20582e-08
-9.66736e-08
3.36957e-08
-1.08849e-07
3.51443e-08
-1.21449e-07
3.64078e-08
-1.34417e-07
3.74913e-08
-1.47694e-07
3.84013e-08
-1.61224e-07
3.91449e-08
-1.74956e-07
3.973e-08
-1.88838e-07
4.01648e-08
-2.02823e-07
4.0458e-08
-2.16866e-07
4.06183e-08
-2.30925e-07
4.06545e-08
-2.4496e-07
4.05754e-08
-2.58936e-07
4.03897e-08
-2.72818e-07
4.0106e-08
-2.86575e-07
3.97327e-08
-3.00181e-07
3.92778e-08
-3.13608e-07
3.87492e-08
-3.26834e-07
3.81544e-08
-3.39839e-07
3.75008e-08
-3.52605e-07
3.67951e-08
-3.65115e-07
3.6044e-08
-3.77356e-07
3.52536e-08
-3.89315e-07
3.44297e-08
-4.00984e-07
3.3578e-08
-4.12353e-07
3.27034e-08
-4.23416e-07
3.18107e-08
-4.34168e-07
3.09043e-08
-4.44605e-07
2.99884e-08
-4.54725e-07
2.90665e-08
-4.64527e-07
2.81422e-08
-4.7401e-07
2.72186e-08
-4.83176e-07
2.62983e-08
-4.92026e-07
2.53839e-08
-5.00562e-07
2.44775e-08
-5.08789e-07
2.35812e-08
-5.16709e-07
2.26966e-08
-5.24326e-07
2.18251e-08
-5.31646e-07
2.09679e-08
-5.38674e-07
2.01261e-08
-5.45414e-07
1.93003e-08
-5.51873e-07
1.84912e-08
-5.58055e-07
1.76991e-08
-5.63968e-07
1.69243e-08
-5.69616e-07
1.61669e-08
-5.75005e-07
1.54266e-08
-5.80142e-07
1.47034e-08
-5.85031e-07
1.39967e-08
-5.89678e-07
1.33062e-08
-5.94089e-07
1.26312e-08
-5.98268e-07
1.1971e-08
-6.02219e-07
1.13247e-08
-6.05948e-07
1.06916e-08
-6.09459e-07
1.00704e-08
-6.12755e-07
9.46032e-09
-6.15839e-07
8.86003e-09
-6.18715e-07
8.26838e-09
-6.21384e-07
7.68407e-09
-6.23849e-07
7.10579e-09
-6.26112e-07
6.53214e-09
-6.28174e-07
5.96171e-09
-6.30034e-07
5.39303e-09
-6.31693e-07
4.82459e-09
-6.33152e-07
4.25488e-09
-6.34407e-07
3.68233e-09
-6.35459e-07
3.10536e-09
-6.36306e-07
2.5224e-09
-6.36943e-07
1.93184e-09
-6.37369e-07
1.33208e-09
-6.3758e-07
7.21514e-10
-6.37571e-07
9.85633e-11
-6.37337e-07
-5.38352e-10
-6.36874e-07
-1.19079e-09
-6.36176e-07
-1.86026e-09
-6.35236e-07
-2.54826e-09
-6.34047e-07
-3.25623e-09
-6.32603e-07
-3.98556e-09
-6.30895e-07
-4.73756e-09
-6.28916e-07
-5.51348e-09
-6.26657e-07
-6.31448e-09
-6.24109e-07
-7.14163e-09
-6.21262e-07
-7.99588e-09
-6.18109e-07
-8.87807e-09
-6.14638e-07
-9.7889e-09
-6.10841e-07
-1.07289e-08
-6.06707e-07
-1.16985e-08
-6.02226e-07
-1.26979e-08
-5.97388e-07
-1.3727e-08
-5.92184e-07
-1.47858e-08
-5.86604e-07
-1.58736e-08
-5.80638e-07
-1.699e-08
-5.74277e-07
-1.8134e-08
-5.67512e-07
-1.93042e-08
-5.60336e-07
-2.04993e-08
-5.52741e-07
-2.17173e-08
-5.4472e-07
-2.29561e-08
-5.36267e-07
-2.42132e-08
-5.27378e-07
-2.54857e-08
-5.18048e-07
-2.67704e-08
-5.08276e-07
-2.80635e-08
-4.9806e-07
-2.93611e-08
-4.874e-07
-3.06586e-08
-4.763e-07
-3.19511e-08
-4.64762e-07
-3.32334e-08
-4.52793e-07
-3.44996e-08
-4.40401e-07
-3.57435e-08
-4.27596e-07
-3.69585e-08
-4.14391e-07
-3.81375e-08
-4.00801e-07
-3.92731e-08
-3.86845e-07
-4.03572e-08
-3.72542e-07
-4.13817e-08
-3.57916e-07
-4.23379e-08
-3.42995e-07
-4.32168e-08
-3.27808e-07
-4.40091e-08
-3.12387e-07
-4.47053e-08
-2.9677e-07
-4.52955e-08
-2.80995e-07
-4.57698e-08
-2.65106e-07
-4.6118e-08
-2.49149e-07
-4.63302e-08
-2.33172e-07
-4.6396e-08
-2.1723e-07
-4.63056e-08
-2.01377e-07
-4.6049e-08
-1.85673e-07
-4.56167e-08
-1.7018e-07
-4.49996e-08
-1.54962e-07
-4.4189e-08
-1.40085e-07
-4.31771e-08
-1.2562e-07
-4.1957e-08
-1.11635e-07
-4.05227e-08
-9.82028e-08
-3.88698e-08
-8.53946e-08
-3.69957e-08
-7.32816e-08
-3.49e-08
-6.19337e-08
-3.25849e-08
-5.14178e-08
-3.00566e-08
-4.17965e-08
-2.73256e-08
-3.31263e-08
-2.44082e-08
-2.54551e-08
-2.13288e-08
-1.88191e-08
-1.81214e-08
-1.32397e-08
-1.48338e-08
-8.71852e-09
-1.15312e-08
-5.23288e-09
-8.30207e-09
-2.7295e-09
-5.26604e-09
-1.1179e-09
-2.58329e-09
-2.63045e-10
-4.65155e-10
2.32929e-11
8.12296e-10
8.63191e-10
-1.10571e-10
-6.96656e-10
-6.93942e-10
-2.57434e-10
-1.94599e-09
1.47371e-09
-4.01456e-09
4.10705e-09
-7.00746e-09
7.35647e-09
-1.09975e-08
1.09976e-08
-1.60271e-08
1.48562e-08
-2.2113e-08
1.87989e-08
-2.92505e-08
2.27244e-08
-3.74176e-08
2.65569e-08
-4.65782e-08
3.02401e-08
-5.66855e-08
3.3733e-08
-6.76846e-08
3.70068e-08
-7.95144e-08
4.00417e-08
-9.211e-08
4.28256e-08
-1.05404e-07
4.53518e-08
-1.19326e-07
4.76184e-08
-1.33809e-07
4.96269e-08
-1.48783e-07
5.13815e-08
-1.6418e-07
5.28887e-08
-1.79935e-07
5.41565e-08
-1.95985e-07
5.51944e-08
-2.12267e-07
5.60127e-08
-2.28725e-07
5.66226e-08
-2.45302e-07
5.70354e-08
-2.61947e-07
5.72632e-08
-2.78611e-07
5.73179e-08
-2.95247e-07
5.72115e-08
-3.11813e-07
5.69559e-08
-3.2827e-07
5.6563e-08
-3.44581e-07
5.60442e-08
-3.60715e-07
5.54109e-08
-3.76639e-07
5.46739e-08
-3.92329e-07
5.38436e-08
-4.07758e-07
5.29302e-08
-4.22906e-07
5.19432e-08
-4.37754e-07
5.08918e-08
-4.52285e-07
4.97847e-08
-4.66485e-07
4.86299e-08
-4.80342e-07
4.74353e-08
-4.93847e-07
4.62079e-08
-5.06991e-07
4.49544e-08
-5.19767e-07
4.36811e-08
-5.32173e-07
4.23936e-08
-5.44203e-07
4.10973e-08
-5.55858e-07
3.97968e-08
-5.67136e-07
3.84966e-08
-5.78038e-07
3.72005e-08
-5.88567e-07
3.59122e-08
-5.98724e-07
3.46347e-08
-6.08513e-07
3.33707e-08
-6.17939e-07
3.21227e-08
-6.27007e-07
3.08926e-08
-6.35721e-07
2.96822e-08
-6.44088e-07
2.84929e-08
-6.52114e-07
2.73259e-08
-6.59804e-07
2.61818e-08
-6.67166e-07
2.50614e-08
-6.74207e-07
2.39649e-08
-6.80933e-07
2.28925e-08
-6.8735e-07
2.1844e-08
-6.93466e-07
2.08191e-08
-6.99286e-07
1.98173e-08
-7.04818e-07
1.8838e-08
-7.10067e-07
1.78802e-08
-7.15039e-07
1.6943e-08
-7.1974e-07
1.60253e-08
-7.24174e-07
1.51258e-08
-7.28347e-07
1.4243e-08
-7.32262e-07
1.33756e-08
-7.35924e-07
1.25219e-08
-7.39335e-07
1.16802e-08
-7.425e-07
1.08487e-08
-7.4542e-07
1.00256e-08
-7.48097e-07
9.20896e-09
-7.50532e-07
8.39675e-09
-7.52726e-07
7.58695e-09
-7.54679e-07
6.77745e-09
-7.5639e-07
5.96612e-09
-7.57858e-07
5.15079e-09
-7.59082e-07
4.32926e-09
-7.60059e-07
3.4993e-09
-7.60786e-07
2.65869e-09
-7.61259e-07
1.80519e-09
-7.61474e-07
9.36575e-10
-7.61426e-07
5.06211e-11
-7.6111e-07
-8.54863e-10
-7.60518e-07
-1.78204e-09
-7.59646e-07
-2.73303e-09
-7.58484e-07
-3.7099e-09
-7.57026e-07
-4.71465e-09
-7.55262e-07
-5.74919e-09
-7.53184e-07
-6.81537e-09
-7.50783e-07
-7.91491e-09
-7.48048e-07
-9.0494e-09
-7.44969e-07
-1.02203e-08
-7.41536e-07
-1.1429e-08
-7.37738e-07
-1.26765e-08
-7.33563e-07
-1.39638e-08
-7.29e-07
-1.52917e-08
-7.24038e-07
-1.66607e-08
-7.18665e-07
-1.8071e-08
-7.12869e-07
-1.95226e-08
-7.06639e-07
-2.10152e-08
-6.99965e-07
-2.25481e-08
-6.92835e-07
-2.41204e-08
-6.85238e-07
-2.57307e-08
-6.77165e-07
-2.73773e-08
-6.68606e-07
-2.9058e-08
-6.59553e-07
-3.07702e-08
-6.49998e-07
-3.25108e-08
-6.39935e-07
-3.42763e-08
-6.29358e-07
-3.60626e-08
-6.18264e-07
-3.78652e-08
-6.06648e-07
-3.96788e-08
-5.94511e-07
-4.14978e-08
-5.81854e-07
-4.3316e-08
-5.68679e-07
-4.51263e-08
-5.54991e-07
-4.69214e-08
-5.40797e-07
-4.86931e-08
-5.26108e-07
-5.04329e-08
-5.10935e-07
-5.21314e-08
-4.95294e-07
-5.37788e-08
-4.79202e-07
-5.53645e-08
-4.62682e-07
-5.68777e-08
-4.45757e-07
-5.83069e-08
-4.28455e-07
-5.96398e-08
-4.10808e-07
-6.08642e-08
-3.9285e-07
-6.19671e-08
-3.7462e-07
-6.29352e-08
-3.5616e-07
-6.3755e-08
-3.37517e-07
-6.44128e-08
-3.18741e-07
-6.48946e-08
-2.99884e-07
-6.51865e-08
-2.81006e-07
-6.52746e-08
-2.62166e-07
-6.51453e-08
-2.4343e-07
-6.4785e-08
-2.24866e-07
-6.4181e-08
-2.06544e-07
-6.33208e-08
-1.8854e-07
-6.21931e-08
-1.7093e-07
-6.07873e-08
-1.53793e-07
-5.90946e-08
-1.37208e-07
-5.71074e-08
-1.21257e-07
-5.48206e-08
-1.06021e-07
-5.22313e-08
-9.15814e-08
-4.934e-08
-7.80152e-08
-4.61512e-08
-6.53975e-08
-4.26743e-08
-5.37981e-08
-3.89249e-08
-4.32797e-08
-3.49267e-08
-3.3895e-08
-3.07134e-08
-2.56848e-08
-2.63317e-08
-1.86738e-08
-2.18448e-08
-1.28672e-08
-1.73378e-08
-8.2464e-09
-1.29229e-08
-4.7642e-09
-8.74825e-09
-2.33993e-09
-5.00755e-09
-8.54614e-10
-1.95048e-09
-1.45827e-10
1.03506e-10
7.17362e-10
-2.6884e-10
-4.27814e-10
-1.25598e-09
7.29712e-10
-3.11216e-09
3.32989e-09
-5.95569e-09
6.95058e-09
-9.87401e-09
1.12748e-08
-1.49258e-08
1.60494e-08
-2.11435e-08
2.10739e-08
-2.85366e-08
2.6192e-08
-3.70947e-08
3.12826e-08
-4.67909e-08
3.62531e-08
-5.75845e-08
4.10337e-08
-6.94239e-08
4.55724e-08
-8.22488e-08
4.98317e-08
-9.59929e-08
5.37858e-08
-1.10585e-07
5.74177e-08
-1.25951e-07
6.07181e-08
-1.42016e-07
6.36831e-08
-1.58703e-07
6.63138e-08
-1.75936e-07
6.86148e-08
-1.93641e-07
7.05936e-08
-2.11745e-07
7.22601e-08
-2.30176e-07
7.3626e-08
-2.48868e-07
7.47042e-08
-2.67754e-07
7.55087e-08
-2.86773e-07
7.60544e-08
-3.05866e-07
7.63563e-08
-3.24978e-07
7.643e-08
-3.44058e-07
7.6291e-08
-3.63056e-07
7.59548e-08
-3.8193e-07
7.54368e-08
-4.00638e-07
7.4752e-08
-4.19142e-07
7.39152e-08
-4.37409e-07
7.29405e-08
-4.55407e-07
7.18418e-08
-4.73109e-07
7.06322e-08
-4.90491e-07
6.93246e-08
-5.0753e-07
6.79308e-08
-5.24207e-07
6.64624e-08
-5.40508e-07
6.49302e-08
-5.56416e-07
6.33442e-08
-5.71923e-07
6.17141e-08
-5.87017e-07
6.00486e-08
-6.01692e-07
5.8356e-08
-6.15942e-07
5.66439e-08
-6.29764e-07
5.49193e-08
-6.43156e-07
5.31885e-08
-6.56116e-07
5.14574e-08
-6.68647e-07
4.97312e-08
-6.80749e-07
4.80145e-08
-6.92426e-07
4.63117e-08
-7.03682e-07
4.46262e-08
-7.14521e-07
4.29614e-08
-7.24948e-07
4.13199e-08
-7.3497e-07
3.97041e-08
-7.44593e-07
3.81159e-08
-7.53824e-07
3.65567e-08
-7.62669e-07
3.50276e-08
-7.71137e-07
3.35296e-08
-7.79236e-07
3.2063e-08
-7.86971e-07
3.0628e-08
-7.94351e-07
2.92245e-08
-8.01384e-07
2.7852e-08
-8.08077e-07
2.651e-08
-8.14436e-07
2.51975e-08
-8.2047e-07
2.39134e-08
-8.26183e-07
2.26565e-08
-8.31583e-07
2.14252e-08
-8.36675e-07
2.02179e-08
-8.41465e-07
1.90328e-08
-8.45957e-07
1.78678e-08
-8.50156e-07
1.67209e-08
-8.54066e-07
1.55899e-08
-8.57689e-07
1.44723e-08
-8.61029e-07
1.33657e-08
-8.64088e-07
1.22676e-08
-8.66867e-07
1.11754e-08
-8.69366e-07
1.00863e-08
-8.71586e-07
8.99757e-09
-8.73527e-07
7.90638e-09
-8.75186e-07
6.80986e-09
-8.76561e-07
5.70511e-09
-8.77651e-07
4.58919e-09
-8.78452e-07
3.45916e-09
-8.78959e-07
2.31208e-09
-8.79167e-07
1.14498e-09
-8.79071e-07
-4.50364e-11
-8.78665e-07
-1.26088e-09
-8.77942e-07
-2.50538e-09
-8.76894e-07
-3.78135e-09
-8.75512e-07
-5.09149e-09
-8.73788e-07
-6.43844e-09
-8.71713e-07
-7.82471e-09
-8.69276e-07
-9.25271e-09
-8.66466e-07
-1.07247e-08
-8.63272e-07
-1.22427e-08
-8.59684e-07
-1.38088e-08
-8.55688e-07
-1.54245e-08
-8.51273e-07
-1.70914e-08
-8.46426e-07
-1.88108e-08
-8.41135e-07
-2.05834e-08
-8.35385e-07
-2.241e-08
-8.29166e-07
-2.42909e-08
-8.22462e-07
-2.6226e-08
-8.15263e-07
-2.82148e-08
-8.07554e-07
-3.02565e-08
-7.99325e-07
-3.23497e-08
-7.90563e-07
-3.44926e-08
-7.81258e-07
-3.66828e-08
-7.71398e-07
-3.89174e-08
-7.60975e-07
-4.11931e-08
-7.49981e-07
-4.35055e-08
-7.38407e-07
-4.58501e-08
-7.26248e-07
-4.82215e-08
-7.135e-07
-5.06134e-08
-7.00159e-07
-5.30191e-08
-6.86226e-07
-5.54311e-08
-6.71701e-07
-5.78409e-08
-6.56588e-07
-6.02395e-08
-6.40892e-07
-6.26171e-08
-6.24623e-07
-6.49629e-08
-6.0779e-07
-6.72655e-08
-5.90409e-07
-6.95126e-08
-5.72496e-07
-7.16912e-08
-5.54073e-07
-7.37876e-08
-5.35164e-07
-7.57873e-08
-5.15795e-07
-7.76752e-08
-4.96e-07
-7.94353e-08
-4.75813e-07
-8.10514e-08
-4.55273e-07
-8.25065e-08
-4.34425e-07
-8.37832e-08
-4.13316e-07
-8.48639e-08
-3.91999e-07
-8.57305e-08
-3.70528e-07
-8.63649e-08
-3.48966e-07
-8.67491e-08
-3.27376e-07
-8.68648e-08
-3.05826e-07
-8.66945e-08
-2.84391e-07
-8.62208e-08
-2.63144e-07
-8.54272e-08
-2.42167e-07
-8.42979e-08
-2.21542e-07
-8.28184e-08
-2.01354e-07
-8.09758e-08
-1.81689e-07
-7.87588e-08
-1.62638e-07
-7.61586e-08
-1.44289e-07
-7.31693e-08
-1.26733e-07
-6.97881e-08
-1.10056e-07
-6.60168e-08
-9.43448e-08
-6.18623e-08
-7.96812e-08
-5.73379e-08
-6.61411e-08
-5.24651e-08
-5.37929e-08
-4.7275e-08
-4.26949e-08
-4.18114e-08
-3.28929e-08
-3.61336e-08
-2.44172e-08
-3.03206e-08
-1.7279e-08
-2.44759e-08
-1.14677e-08
-1.87341e-08
-6.94718e-09
-1.32688e-08
-3.65254e-09
-8.3022e-09
-1.48784e-09
-4.11518e-09
-3.24338e-10
-1.06e-09
3.93023e-10
-4.29746e-10
1.93328e-12
-1.8353e-09
2.13527e-09
-4.32128e-09
5.81587e-09
-7.9728e-09
1.06021e-08
-1.28529e-08
1.61549e-08
-1.90021e-08
2.21987e-08
-2.64396e-08
2.85114e-08
-3.51647e-08
3.4917e-08
-4.51589e-08
4.12768e-08
-5.63887e-08
4.7483e-08
-6.88076e-08
5.34526e-08
-8.23585e-08
5.91233e-08
-9.6976e-08
6.44492e-08
-1.12588e-07
6.93979e-08
-1.29118e-07
7.39479e-08
-1.46487e-07
7.80865e-08
-1.64612e-07
8.18081e-08
-1.83411e-07
8.51131e-08
-2.02803e-07
8.80063e-08
-2.22705e-07
9.04964e-08
-2.4304e-07
9.25949e-08
-2.6373e-07
9.43157e-08
-2.847e-07
9.56746e-08
-3.0588e-07
9.66887e-08
-3.27202e-07
9.73761e-08
-3.48601e-07
9.77556e-08
-3.70018e-07
9.78462e-08
-3.91394e-07
9.76674e-08
-4.12678e-07
9.72385e-08
-4.3382e-07
9.65788e-08
-4.54775e-07
9.57071e-08
-4.75501e-07
9.46418e-08
-4.95962e-07
9.3401e-08
-5.16122e-07
9.2002e-08
-5.35951e-07
9.04616e-08
-5.55423e-07
8.87957e-08
-5.74511e-07
8.70196e-08
-5.93197e-07
8.51478e-08
-6.1146e-07
8.31939e-08
-6.29287e-07
8.1171e-08
-6.46664e-07
7.9091e-08
-6.63581e-07
7.69653e-08
-6.80029e-07
7.48043e-08
-6.96003e-07
7.26178e-08
-7.11498e-07
7.04145e-08
-7.26513e-07
6.82027e-08
-7.41045e-07
6.59897e-08