/*--------------------------------*- C++ -*----------------------------------*\
  =========                 |
  \\      /  F ield         | OpenFOAM: The Open Source CFD Toolbox
   \\    /   O peration     | Website:  https://openfoam.org
    \\  /    A nd           | Version:  7
     \\/     M anipulation  |
\*---------------------------------------------------------------------------*/
FoamFile
{
    version     2.0;
    format      ascii;
    class       volVectorField;
    location    "0.475";
    object      U;
}
// * * * * * * * * * * * * * * * * * * * * * * * * * * * * * * * * * * * * * //

dimensions      [0 1 -1 0 0 0 0];

internalField   nonuniform List<vector> 
12800
(
(8.33683e-06 -8.31279e-06 0)
(3.71094e-05 -1.85312e-05 0)
(7.8558e-05 -1.97123e-05 0)
(0.000113276 -1.53561e-05 0)
(0.000130026 -8.31369e-06 0)
(0.000123917 -1.40303e-07 0)
(9.28038e-05 8.34308e-06 0)
(3.60724e-05 1.66963e-05 0)
(-4.59206e-05 2.46864e-05 0)
(-0.000152228 3.21939e-05 0)
(-0.00028155 3.91593e-05 0)
(-0.00043238 4.55573e-05 0)
(-0.000603096 5.13828e-05 0)
(-0.00079202 5.66421e-05 0)
(-0.000997461 6.13495e-05 0)
(-0.00121774 6.55235e-05 0)
(-0.00145122 6.91859e-05 0)
(-0.00169631 7.23603e-05 0)
(-0.00195146 7.50714e-05 0)
(-0.00221521 7.73444e-05 0)
(-0.00248617 7.9205e-05 0)
(-0.00276299 8.06787e-05 0)
(-0.00304445 8.17908e-05 0)
(-0.00332935 8.25662e-05 0)
(-0.00361661 8.30293e-05 0)
(-0.00390519 8.32038e-05 0)
(-0.00419416 8.31128e-05 0)
(-0.00448264 8.27785e-05 0)
(-0.00476982 8.22224e-05 0)
(-0.00505497 8.14651e-05 0)
(-0.00533742 8.05263e-05 0)
(-0.00561656 7.94248e-05 0)
(-0.00589186 7.81784e-05 0)
(-0.00616282 7.6804e-05 0)
(-0.00642903 7.53176e-05 0)
(-0.00669009 7.37342e-05 0)
(-0.00694569 7.20681e-05 0)
(-0.00719555 7.03322e-05 0)
(-0.00743943 6.85391e-05 0)
(-0.00767713 6.66999e-05 0)
(-0.00790849 6.48254e-05 0)
(-0.00813341 6.29253e-05 0)
(-0.00835178 6.10084e-05 0)
(-0.00856355 5.90829e-05 0)
(-0.00876868 5.71562e-05 0)
(-0.00896717 5.52349e-05 0)
(-0.00915904 5.33251e-05 0)
(-0.00934431 5.1432e-05 0)
(-0.00952305 4.95604e-05 0)
(-0.00969532 4.77143e-05 0)
(-0.00986121 4.58974e-05 0)
(-0.0100208 4.41126e-05 0)
(-0.0101742 4.23623e-05 0)
(-0.0103216 4.06487e-05 0)
(-0.010463 3.89734e-05 0)
(-0.0105985 3.73375e-05 0)
(-0.0107284 3.57419e-05 0)
(-0.0108527 3.41869e-05 0)
(-0.0109716 3.26726e-05 0)
(-0.0110852 3.11988e-05 0)
(-0.0111937 2.97649e-05 0)
(-0.0112971 2.83702e-05 0)
(-0.0113956 2.70137e-05 0)
(-0.0114894 2.56939e-05 0)
(-0.0115785 2.44093e-05 0)
(-0.011663 2.31582e-05 0)
(-0.0117432 2.19387e-05 0)
(-0.011819 2.07487e-05 0)
(-0.0118905 1.95861e-05 0)
(-0.011958 1.84483e-05 0)
(-0.0120213 1.73327e-05 0)
(-0.0120807 1.62367e-05 0)
(-0.0121362 1.51575e-05 0)
(-0.0121877 1.40923e-05 0)
(-0.0122355 1.30379e-05 0)
(-0.0122794 1.19915e-05 0)
(-0.0123195 1.09496e-05 0)
(-0.0123558 9.90909e-06 0)
(-0.0123884 8.86658e-06 0)
(-0.0124172 7.81876e-06 0)
(-0.0124421 6.76223e-06 0)
(-0.0124632 5.69355e-06 0)
(-0.0124804 4.60921e-06 0)
(-0.0124936 3.50567e-06 0)
(-0.0125028 2.3794e-06 0)
(-0.0125078 1.22688e-06 0)
(-0.0125087 4.4659e-08 0)
(-0.0125052 -1.17073e-06 0)
(-0.0124972 -2.42272e-06 0)
(-0.0124847 -3.7147e-06 0)
(-0.0124675 -5.04999e-06 0)
(-0.0124454 -6.4318e-06 0)
(-0.0124182 -7.86322e-06 0)
(-0.0123859 -9.34723e-06 0)
(-0.0123481 -1.08866e-05 0)
(-0.0123048 -1.24841e-05 0)
(-0.0122557 -1.4142e-05 0)
(-0.0122006 -1.58627e-05 0)
(-0.0121393 -1.7648e-05 0)
(-0.0120715 -1.94996e-05 0)
(-0.0119971 -2.14189e-05 0)
(-0.0119159 -2.34069e-05 0)
(-0.0118275 -2.54642e-05 0)
(-0.0117318 -2.75908e-05 0)
(-0.0116285 -2.97866e-05 0)
(-0.0115174 -3.20508e-05 0)
(-0.0113983 -3.43819e-05 0)
(-0.011271 -3.6778e-05 0)
(-0.0111353 -3.92366e-05 0)
(-0.0109909 -4.17544e-05 0)
(-0.0108377 -4.43274e-05 0)
(-0.0106755 -4.69509e-05 0)
(-0.0105042 -4.96193e-05 0)
(-0.0103236 -5.23263e-05 0)
(-0.0101337 -5.50646e-05 0)
(-0.00993436 -5.7826e-05 0)
(-0.00972552 -6.06014e-05 0)
(-0.00950719 -6.33807e-05 0)
(-0.00927938 -6.61527e-05 0)
(-0.00904218 -6.89054e-05 0)
(-0.00879568 -7.16256e-05 0)
(-0.00854004 -7.4299e-05 0)
(-0.00827547 -7.69105e-05 0)
(-0.00800222 -7.94436e-05 0)
(-0.00772062 -8.1881e-05 0)
(-0.00743104 -8.42045e-05 0)
(-0.00713393 -8.63946e-05 0)
(-0.00682978 -8.84311e-05 0)
(-0.00651918 -9.02928e-05 0)
(-0.00620279 -9.19577e-05 0)
(-0.00588131 -9.34029e-05 0)
(-0.00555556 -9.46049e-05 0)
(-0.00522641 -9.55395e-05 0)
(-0.00489483 -9.6182e-05 0)
(-0.00456186 -9.65071e-05 0)
(-0.00422862 -9.64893e-05 0)
(-0.00389632 -9.61027e-05 0)
(-0.00356624 -9.53213e-05 0)
(-0.00323977 -9.41191e-05 0)
(-0.00291835 -9.247e-05 0)
(-0.00260351 -9.03482e-05 0)
(-0.00229685 -8.77283e-05 0)
(-0.00200006 -8.45854e-05 0)
(-0.00171487 -8.08954e-05 0)
(-0.00144309 -7.66353e-05 0)
(-0.00118658 -7.17836e-05 0)
(-0.000947231 -6.63209e-05 0)
(-0.000726956 -6.02309e-05 0)
(-0.00052768 -5.35022e-05 0)
(-0.000351297 -4.61309e-05 0)
(-0.000199631 -3.81251e-05 0)
(-7.43707e-05 -2.95131e-05 0)
(2.30237e-05 -2.03588e-05 0)
(9.14791e-05 -1.07908e-05 0)
(0.000130566 -1.05961e-06 0)
(0.000140918 8.35568e-06 0)
(0.000124851 1.65513e-05 0)
(8.77293e-05 2.17944e-05 0)
(4.20488e-05 2.08637e-05 0)
(9.63463e-06 9.6329e-06 0)
(1.85629e-05 -3.70754e-05 0)
(7.03826e-05 -7.02958e-05 0)
(0.000132097 -6.77646e-05 0)
(0.000170214 -4.20986e-05 0)
(0.000163449 -3.16139e-06 0)
(0.000100366 4.27121e-05 0)
(-2.53014e-05 9.15525e-05 0)
(-0.000216292 0.000140878 0)
(-0.000472818 0.000189142 0)
(-0.000793374 0.000235383 0)
(-0.00117532 0.000279009 0)
(-0.00161525 0.000319666 0)
(-0.00210932 0.000357157 0)
(-0.00265335 0.000391392 0)
(-0.00324304 0.000422354 0)
(-0.00387403 0.000450078 0)
(-0.00454199 0.000474636 0)
(-0.00524266 0.000496125 0)
(-0.00597189 0.000514661 0)
(-0.00672567 0.000530373 0)
(-0.00750016 0.000543399 0)
(-0.0082917 0.000553881 0)
(-0.0090968 0.000561968 0)
(-0.00991218 0.000567806 0)
(-0.0107348 0.000571546 0)
(-0.0115617 0.000573333 0)
(-0.0123902 0.000573311 0)
(-0.0132178 0.000571624 0)
(-0.0140423 0.000568407 0)
(-0.0148615 0.000563796 0)
(-0.0156736 0.000557917 0)
(-0.0164766 0.000550896 0)
(-0.0172692 0.000542851 0)
(-0.0180498 0.000533893 0)
(-0.0188172 0.000524131 0)
(-0.0195704 0.000513666 0)
(-0.0203082 0.000502594 0)
(-0.02103 0.000491004 0)
(-0.0217349 0.000478981 0)
(-0.0224225 0.000466603 0)
(-0.0230921 0.000453943 0)
(-0.0237434 0.000441069 0)
(-0.0243762 0.000428043 0)
(-0.0249902 0.000414921 0)
(-0.0255854 0.000401756 0)
(-0.0261615 0.000388595 0)
(-0.0267188 0.00037548 0)
(-0.0272572 0.000362449 0)
(-0.0277768 0.000349536 0)
(-0.0282779 0.000336771 0)
(-0.0287606 0.00032418 0)
(-0.0292253 0.000311785 0)
(-0.0296721 0.000299605 0)
(-0.0301014 0.000287654 0)
(-0.0305135 0.000275946 0)
(-0.0309087 0.00026449 0)
(-0.0312875 0.000253293 0)
(-0.0316501 0.000242358 0)
(-0.031997 0.000231688 0)
(-0.0323285 0.000221282 0)
(-0.032645 0.000211137 0)
(-0.0329468 0.000201249 0)
(-0.0332343 0.000191611 0)
(-0.0335079 0.000182216 0)
(-0.0337678 0.000173053 0)
(-0.0340145 0.000164112 0)
(-0.0342481 0.00015538 0)
(-0.0344691 0.000146842 0)
(-0.0346776 0.000138486 0)
(-0.0348739 0.000130294 0)
(-0.0350583 0.000122249 0)
(-0.0352308 0.000114333 0)
(-0.0353918 0.000106527 0)
(-0.0355413 9.88132e-05 0)
(-0.0356794 9.11699e-05 0)
(-0.0358063 8.35767e-05 0)
(-0.0359219 7.60121e-05 0)
(-0.0360264 6.84541e-05 0)
(-0.0361196 6.08802e-05 0)
(-0.0362016 5.32678e-05 0)
(-0.0362723 4.55939e-05 0)
(-0.0363316 3.78353e-05 0)
(-0.0363793 2.99684e-05 0)
(-0.0364153 2.19698e-05 0)
(-0.0364393 1.38156e-05 0)
(-0.0364512 5.48257e-06 0)
(-0.0364506 -3.05278e-06 0)
(-0.0364372 -1.18135e-05 0)
(-0.0364108 -2.08222e-05 0)
(-0.0363709 -3.01014e-05 0)
(-0.0363171 -3.96727e-05 0)
(-0.036249 -4.95573e-05 0)
(-0.0361661 -5.97754e-05 0)
(-0.036068 -7.03461e-05 0)
(-0.0359541 -8.12876e-05 0)
(-0.035824 -9.26167e-05 0)
(-0.0356769 -0.000104349 0)
(-0.0355124 -0.000116498 0)
(-0.0353299 -0.000129075 0)
(-0.0351287 -0.000142091 0)
(-0.0349082 -0.000155553 0)
(-0.0346678 -0.000169465 0)
(-0.0344069 -0.000183831 0)
(-0.0341248 -0.000198649 0)
(-0.0338208 -0.000213916 0)
(-0.0334944 -0.000229624 0)
(-0.033145 -0.000245762 0)
(-0.032772 -0.000262315 0)
(-0.0323747 -0.000279263 0)
(-0.0319527 -0.000296581 0)
(-0.0315056 -0.000314241 0)
(-0.0310327 -0.000332209 0)
(-0.0305339 -0.000350445 0)
(-0.0300086 -0.000368903 0)
(-0.0294568 -0.000387533 0)
(-0.0288782 -0.000406278 0)
(-0.0282727 -0.000425074 0)
(-0.0276403 -0.00044385 0)
(-0.0269811 -0.000462532 0)
(-0.0262954 -0.000481035 0)
(-0.0255836 -0.00049927 0)
(-0.024846 -0.00051714 0)
(-0.0240834 -0.000534541 0)
(-0.0232965 -0.000551365 0)
(-0.0224862 -0.000567493 0)
(-0.0216537 -0.000582804 0)
(-0.0208003 -0.000597168 0)
(-0.0199274 -0.000610451 0)
(-0.0190367 -0.000622512 0)
(-0.0181301 -0.000633206 0)
(-0.0172096 -0.000642384 0)
(-0.0162777 -0.000649893 0)
(-0.0153366 -0.000655574 0)
(-0.0143893 -0.00065927 0)
(-0.0134386 -0.000660819 0)
(-0.0124877 -0.000660059 0)
(-0.0115401 -0.000656829 0)
(-0.0105993 -0.000650967 0)
(-0.00966916 -0.000642315 0)
(-0.00875374 -0.00063072 0)
(-0.00785727 -0.000616032 0)
(-0.00698417 -0.000598109 0)
(-0.00613906 -0.00057682 0)
(-0.00532668 -0.000552044 0)
(-0.0045519 -0.00052368 0)
(-0.00381969 -0.000491646 0)
(-0.00313506 -0.00045589 0)
(-0.00250301 -0.000416401 0)
(-0.00192844 -0.000373221 0)
(-0.00141608 -0.000326471 0)
(-0.000970279 -0.000276384 0)
(-0.000594869 -0.000223358 0)
(-0.000292829 -0.000168051 0)
(-6.58764e-05 -0.000111515 0)
(8.61654e-05 -5.54462e-05 0)
(0.000166267 -2.57869e-06 0)
(0.000181315 4.26846e-05 0)
(0.00014398 7.32526e-05 0)
(7.79844e-05 7.79506e-05 0)
(2.08643e-05 4.20345e-05 0)
(1.98118e-05 -7.86316e-05 0)
(6.81319e-05 -0.000132106 0)
(0.000111247 -0.000110692 0)
(0.000110454 -3.94793e-05 0)
(4.04903e-05 6.29492e-05 0)
(-0.000113506 0.000183372 0)
(-0.000360432 0.000312644 0)
(-0.000704689 0.000444552 0)
(-0.00114722 0.00057492 0)
(-0.00168647 0.00070095 0)
(-0.0023191 0.000820796 0)
(-0.00304051 0.000933261 0)
(-0.00384529 0.0010376 0)
(-0.00472745 0.00113341 0)
(-0.00568067 0.00122049 0)
(-0.00669847 0.00129884 0)
(-0.00777432 0.00136854 0)
(-0.00890176 0.00142981 0)
(-0.0100744 0.0014829 0)
(-0.0112861 0.00152812 0)
(-0.0125309 0.00156582 0)
(-0.0138031 0.00159636 0)
(-0.0150973 0.00162013 0)
(-0.0164082 0.00163753 0)
(-0.017731 0.00164896 0)
(-0.0190611 0.00165481 0)
(-0.0203944 0.00165549 0)
(-0.0217267 0.00165138 0)
(-0.0230544 0.00164287 0)
(-0.0243743 0.00163033 0)
(-0.025683 0.00161411 0)
(-0.026978 0.00159458 0)
(-0.0282565 0.00157206 0)
(-0.0295163 0.00154688 0)
(-0.0307554 0.00151933 0)
(-0.0319719 0.00148971 0)
(-0.0331643 0.0014583 0)
(-0.0343312 0.00142534 0)
(-0.0354714 0.00139109 0)
(-0.0365839 0.00135576 0)
(-0.0376679 0.00131956 0)
(-0.0387227 0.00128271 0)
(-0.0397479 0.00124536 0)
(-0.0407431 0.00120769 0)
(-0.041708 0.00116985 0)
(-0.0426426 0.00113197 0)
(-0.0435468 0.00109419 0)
(-0.0444207 0.00105661 0)
(-0.0452645 0.00101932 0)
(-0.0460783 0.000982432 0)
(-0.0468627 0.000946005 0)
(-0.0476178 0.00091011 0)
(-0.0483442 0.000874801 0)
(-0.0490423 0.000840125 0)
(-0.0497125 0.000806121 0)
(-0.0503555 0.000772816 0)
(-0.0509718 0.000740233 0)
(-0.0515619 0.000708384 0)
(-0.0521265 0.000677277 0)
(-0.052666 0.00064691 0)
(-0.0531811 0.000617279 0)
(-0.0536724 0.00058837 0)
(-0.0541404 0.000560168 0)
(-0.0545856 0.00053265 0)
(-0.0550086 0.000505789 0)
(-0.0554099 0.000479554 0)
(-0.05579 0.00045391 0)
(-0.0561492 0.000428817 0)
(-0.0564881 0.000404235 0)
(-0.0568071 0.000380117 0)
(-0.0571063 0.000356416 0)
(-0.0573863 0.00033308 0)
(-0.0576472 0.000310056 0)
(-0.0578893 0.000287288 0)
(-0.0581126 0.000264719 0)
(-0.0583175 0.000242289 0)
(-0.0585039 0.000219937 0)
(-0.0586719 0.000197601 0)
(-0.0588215 0.000175216 0)
(-0.0589526 0.000152718 0)
(-0.059065 0.00013004 0)
(-0.0591587 0.000107117 0)
(-0.0592334 8.38819e-05 0)
(-0.0592888 6.02674e-05 0)
(-0.0593245 3.62064e-05 0)
(-0.0593403 1.16321e-05 0)
(-0.0593356 -1.35218e-05 0)
(-0.0593101 -3.93209e-05 0)
(-0.059263 -6.58295e-05 0)
(-0.0591939 -9.31106e-05 0)
(-0.0591021 -0.000121226 0)
(-0.0589869 -0.000150234 0)
(-0.0588476 -0.000180192 0)
(-0.0586835 -0.000211153 0)
(-0.0584936 -0.000243169 0)
(-0.0582772 -0.000276286 0)
(-0.0580334 -0.000310545 0)
(-0.0577612 -0.000345985 0)
(-0.0574598 -0.000382638 0)
(-0.057128 -0.000420529 0)
(-0.0567651 -0.000459679 0)
(-0.0563699 -0.000500098 0)
(-0.0559415 -0.000541792 0)
(-0.0554789 -0.000584756 0)
(-0.054981 -0.000628976 0)
(-0.054447 -0.000674427 0)
(-0.0538759 -0.000721076 0)
(-0.0532668 -0.000768875 0)
(-0.0526188 -0.000817766 0)
(-0.0519311 -0.000867677 0)
(-0.051203 -0.000918521 0)
(-0.0504338 -0.000970199 0)
(-0.0496229 -0.00102259 0)
(-0.0487698 -0.00107557 0)
(-0.0478742 -0.00112899 0)
(-0.0469359 -0.00118268 0)
(-0.0459547 -0.00123645 0)
(-0.0449307 -0.00129011 0)
(-0.0438641 -0.00134344 0)
(-0.0427553 -0.00139619 0)
(-0.041605 -0.00144811 0)
(-0.0404139 -0.00149893 0)
(-0.0391832 -0.00154834 0)
(-0.0379141 -0.00159603 0)
(-0.0366081 -0.00164168 0)
(-0.035267 -0.00168493 0)
(-0.033893 -0.00172541 0)
(-0.0324885 -0.00176275 0)
(-0.0310561 -0.00179655 0)
(-0.0295989 -0.0018264 0)
(-0.0281201 -0.00185187 0)
(-0.0266235 -0.00187255 0)
(-0.0251131 -0.00188799 0)
(-0.0235932 -0.00189774 0)
(-0.0220685 -0.00190136 0)
(-0.020544 -0.00189841 0)
(-0.0190251 -0.00188844 0)
(-0.0175175 -0.00187101 0)
(-0.0160273 -0.0018457 0)
(-0.0145607 -0.0018121 0)
(-0.0131243 -0.00176981 0)
(-0.0117252 -0.00171847 0)
(-0.0103704 -0.00165776 0)
(-0.00906713 -0.0015874 0)
(-0.00782299 -0.00150716 0)
(-0.00664549 -0.00141691 0)
(-0.00554218 -0.00131659 0)
(-0.00452051 -0.0012063 0)
(-0.0035877 -0.0010863 0)
(-0.00275053 -0.000957128 0)
(-0.00201517 -0.000819633 0)
(-0.00138678 -0.000675172 0)
(-0.000869135 -0.000525803 0)
(-0.000464024 -0.000374617 0)
(-0.000170448 -0.000226226 0)
(1.64226e-05 -8.75051e-05 0)
(0.000106433 3.13642e-05 0)
(0.000116106 0.000115556 0)
(7.35536e-05 0.000144017 0)
(2.18492e-05 8.77588e-05 0)
(1.55844e-05 -0.000113679 0)
(4.29396e-05 -0.000170697 0)
(4.09245e-05 -0.000110105 0)
(-2.80823e-05 2.97007e-05 0)
(-0.000189782 0.000221179 0)
(-0.000460367 0.000443891 0)
(-0.000849911 0.000682967 0)
(-0.00136365 0.000927813 0)
(-0.00200294 0.00117096 0)
(-0.00276622 0.00140717 0)
(-0.00364967 0.00163285 0)
(-0.00464792 0.00184555 0)
(-0.00575438 0.00204368 0)
(-0.00696171 0.00222627 0)
(-0.00826203 0.00239279 0)
(-0.00964718 0.00254308 0)
(-0.0111088 0.00267721 0)
(-0.0126387 0.00279545 0)
(-0.0142286 0.00289823 0)
(-0.0158705 0.00298605 0)
(-0.0175566 0.00305952 0)
(-0.0192794 0.00311929 0)
(-0.0210318 0.00316607 0)
(-0.0228069 0.00320058 0)
(-0.0245983 0.00322355 0)
(-0.0263999 0.00323575 0)
(-0.028206 0.0032379 0)
(-0.0300113 0.00323076 0)
(-0.0318109 0.00321504 0)
(-0.0336002 0.00319145 0)
(-0.0353751 0.00316069 0)
(-0.0371318 0.00312343 0)
(-0.0388668 0.0030803 0)
(-0.040577 0.00303192 0)
(-0.0422596 0.00297888 0)
(-0.0439121 0.00292174 0)
(-0.0455324 0.00286103 0)
(-0.0471186 0.00279726 0)
(-0.048669 0.00273088 0)
(-0.0501823 0.00266234 0)
(-0.0516574 0.00259205 0)
(-0.0530932 0.0025204 0)
(-0.0544892 0.00244773 0)
(-0.0558447 0.00237436 0)
(-0.0571594 0.00230061 0)
(-0.0584331 0.00222672 0)
(-0.0596658 0.00215296 0)
(-0.0608575 0.00207953 0)
(-0.0620085 0.00200664 0)
(-0.063119 0.00193446 0)
(-0.0641894 0.00186313 0)
(-0.0652203 0.0017928 0)
(-0.066212 0.00172357 0)
(-0.0671654 0.00165554 0)
(-0.0680809 0.00158878 0)
(-0.0689593 0.00152335 0)
(-0.0698014 0.0014593 0)
(-0.0706077 0.00139665 0)
(-0.0713792 0.00133541 0)
(-0.0721166 0.0012756 0)
(-0.0728206 0.00121719 0)
(-0.073492 0.00116017 0)
(-0.0741315 0.00110451 0)
(-0.0747399 0.00105017 0)
(-0.0753178 0.000997083 0)
(-0.0758659 0.000945206 0)
(-0.0763849 0.000894466 0)
(-0.0768754 0.000844789 0)
(-0.0773379 0.000796094 0)
(-0.0777729 0.000748294 0)
(-0.0781809 0.000701295 0)
(-0.0785622 0.000654999 0)
(-0.0789174 0.000609302 0)
(-0.0792465 0.000564097 0)
(-0.0795499 0.000519273 0)
(-0.0798278 0.000474713 0)
(-0.0800803 0.0004303 0)
(-0.0803073 0.000385912 0)
(-0.0805089 0.000341426 0)
(-0.080685 0.000296716 0)
(-0.0808354 0.000251655 0)
(-0.0809599 0.000206113 0)
(-0.0810582 0.000159962 0)
(-0.0811299 0.000113072 0)
(-0.0811746 6.53139e-05 0)
(-0.0811917 1.65577e-05 0)
(-0.0811808 -3.33242e-05 0)
(-0.081141 -8.44581e-05 0)
(-0.0810717 -0.000136968 0)
(-0.0809722 -0.000190976 0)
(-0.0808415 -0.000246598 0)
(-0.0806787 -0.000303949 0)
(-0.0804829 -0.000363138 0)
(-0.0802531 -0.000424266 0)
(-0.0799881 -0.00048743 0)
(-0.0796868 -0.000552719 0)
(-0.079348 -0.000620211 0)
(-0.0789706 -0.000689979 0)
(-0.0785532 -0.000762081 0)
(-0.0780947 -0.000836565 0)
(-0.0775936 -0.000913466 0)
(-0.0770487 -0.000992804 0)
(-0.0764587 -0.00107458 0)
(-0.0758223 -0.00115879 0)
(-0.0751381 -0.0012454 0)
(-0.0744049 -0.00133436 0)
(-0.0736215 -0.0014256 0)
(-0.0727866 -0.00151902 0)
(-0.0718992 -0.00161451 0)
(-0.0709582 -0.00171192 0)
(-0.0699627 -0.00181108 0)
(-0.0689117 -0.0019118 0)
(-0.0678046 -0.00201384 0)
(-0.0666408 -0.00211695 0)
(-0.0654198 -0.00222083 0)
(-0.0641413 -0.00232516 0)
(-0.0628053 -0.00242959 0)
(-0.0614118 -0.00253371 0)
(-0.0599613 -0.0026371 0)
(-0.0584544 -0.00273929 0)
(-0.0568918 -0.00283979 0)
(-0.0552748 -0.00293806 0)
(-0.0536049 -0.00303352 0)
(-0.0518837 -0.00312556 0)
(-0.0501134 -0.00321356 0)
(-0.0482965 -0.00329683 0)
(-0.0464358 -0.00337466 0)
(-0.0445346 -0.00344633 0)
(-0.0425965 -0.00351107 0)
(-0.0406256 -0.0035681 0)
(-0.0386263 -0.00361661 0)
(-0.0366036 -0.00365578 0)
(-0.0345629 -0.00368478 0)
(-0.0325099 -0.00370277 0)
(-0.030451 -0.00370889 0)
(-0.0283927 -0.0037023 0)
(-0.0263423 -0.00368218 0)
(-0.0243073 -0.0036477 0)
(-0.0222957 -0.00359808 0)
(-0.0203158 -0.00353257 0)
(-0.0183763 -0.00345046 0)
(-0.0164862 -0.00335111 0)
(-0.0146549 -0.00323396 0)
(-0.0128918 -0.00309854 0)
(-0.0112066 -0.00294452 0)
(-0.00960902 -0.00277175 0)
(-0.0081086 -0.00258026 0)
(-0.00671479 -0.00237038 0)
(-0.0054366 -0.00214281 0)
(-0.00428239 -0.00189873 0)
(-0.00325961 -0.00164 0)
(-0.00237435 -0.0013694 0)
(-0.00163091 -0.00109094 0)
(-0.00103107 -0.00081044 0)
(-0.000573373 -0.000536168 0)
(-0.00025202 -0.000279879 0)
(-5.5834e-05 -5.8137e-05 0)
(3.3205e-05 0.000106155 0)
(4.35742e-05 0.000181886 0)
(1.67377e-05 0.000125153 0)
(8.6986e-06 -0.000131063 0)
(4.50278e-06 -0.000164846 0)
(-6.07245e-05 -4.07322e-05 0)
(-0.000218705 0.000191233 0)
(-0.000492943 0.0004952 0)
(-0.000899423 0.000843915 0)
(-0.00144821 0.00121692 0)
(-0.00214456 0.00159914 0)
(-0.00298979 0.00197957 0)
(-0.00398212 0.00235027 0)
(-0.00511732 0.00270555 0)
(-0.00638932 0.00304144 0)
(-0.00779067 0.00335527 0)
(-0.00931293 0.00364529 0)
(-0.010947 0.0039105 0)
(-0.0126833 0.00415047 0)
(-0.0145121 0.00436516 0)
(-0.0164236 0.00455487 0)
(-0.0184081 0.00472016 0)
(-0.0204559 0.00486174 0)
(-0.0225576 0.0049805 0)
(-0.0247044 0.00507742 0)
(-0.0268874 0.00515356 0)
(-0.0290985 0.00521003 0)
(-0.0313297 0.00524798 0)
(-0.0335737 0.00526856 0)
(-0.0358235 0.00527295 0)
(-0.0380725 0.00526231 0)
(-0.0403148 0.00523778 0)
(-0.0425446 0.0052005 0)
(-0.044757 0.00515157 0)
(-0.0469471 0.00509204 0)
(-0.0491106 0.00502295 0)
(-0.0512438 0.00494528 0)
(-0.0533431 0.00485999 0)
(-0.0554054 0.00476797 0)
(-0.0574281 0.00467007 0)
(-0.0594087 0.00456711 0)
(-0.0613451 0.00445985 0)
(-0.0632357 0.00434899 0)
(-0.065079 0.00423521 0)
(-0.0668738 0.00411911 0)
(-0.0686192 0.00400129 0)
(-0.0703144 0.00388226 0)
(-0.0719591 0.0037625 0)
(-0.0735529 0.00364246 0)
(-0.0750957 0.00352254 0)
(-0.0765875 0.0034031 0)
(-0.0780287 0.00328445 0)
(-0.0794195 0.00316689 0)
(-0.0807604 0.00305067 0)
(-0.0820519 0.00293599 0)
(-0.0832947 0.00282304 0)
(-0.0844895 0.00271199 0)
(-0.0856371 0.00260295 0)
(-0.0867384 0.00249603 0)
(-0.0877941 0.00239129 0)
(-0.0888051 0.00228879 0)
(-0.0897725 0.00218855 0)
(-0.0906971 0.00209058 0)
(-0.0915799 0.00199487 0)
(-0.0924218 0.00190138 0)
(-0.0932236 0.00181006 0)
(-0.0939863 0.00172085 0)
(-0.0947107 0.00163367 0)
(-0.0953977 0.00154843 0)
(-0.0960479 0.00146501 0)
(-0.0966622 0.0013833 0)
(-0.0972412 0.00130316 0)
(-0.0977856 0.00122447 0)
(-0.0982959 0.00114705 0)
(-0.0987726 0.00107077 0)
(-0.0992161 0.000995446 0)
(-0.0996268 0.000920911 0)
(-0.100005 0.000846984 0)
(-0.100351 0.000773479 0)
(-0.100665 0.000700204 0)
(-0.100946 0.000626965 0)
(-0.101196 0.000553561 0)
(-0.101413 0.00047979 0)
(-0.101598 0.000405446 0)
(-0.101749 0.000330322 0)
(-0.101868 0.00025421 0)
(-0.101953 0.0001769 0)
(-0.102005 9.8184e-05 0)
(-0.102021 1.78541e-05 0)
(-0.102002 -6.42956e-05 0)
(-0.101946 -0.000148468 0)
(-0.101854 -0.000234862 0)
(-0.101723 -0.000323673 0)
(-0.101553 -0.000415089 0)
(-0.101342 -0.000509291 0)
(-0.101091 -0.000606453 0)
(-0.100796 -0.000706738 0)
(-0.100457 -0.000810299 0)
(-0.100073 -0.000917277 0)
(-0.0996417 -0.0010278 0)
(-0.0991622 -0.00114197 0)
(-0.0986326 -0.00125989 0)
(-0.0980516 -0.00138162 0)
(-0.0974174 -0.00150723 0)
(-0.0967286 -0.00163674 0)
(-0.0959835 -0.00177015 0)
(-0.0951806 -0.00190745 0)
(-0.0943182 -0.00204857 0)
(-0.0933949 -0.00219342 0)
(-0.092409 -0.0023419 0)
(-0.0913593 -0.00249385 0)
(-0.0902444 -0.00264906 0)
(-0.089063 -0.0028073 0)
(-0.0878139 -0.0029683 0)
(-0.0864962 -0.00313172 0)
(-0.085109 -0.00329719 0)
(-0.0836516 -0.00346429 0)
(-0.0821236 -0.00363255 0)
(-0.0805245 -0.00380143 0)
(-0.0788544 -0.00397035 0)
(-0.0771135 -0.00413869 0)
(-0.0753022 -0.00430573 0)
(-0.0734214 -0.00447073 0)
(-0.0714722 -0.00463288 0)
(-0.0694559 -0.00479132 0)
(-0.0673746 -0.00494512 0)
(-0.0652304 -0.0050933 0)
(-0.0630259 -0.00523483 0)
(-0.0607642 -0.00536863 0)
(-0.058449 -0.00549357 0)
(-0.0560841 -0.00560847 0)
(-0.0536742 -0.00571211 0)
(-0.0512242 -0.00580324 0)
(-0.0487397 -0.00588058 0)
(-0.0462267 -0.0059428 0)
(-0.0436918 -0.0059886 0)
(-0.0411421 -0.00601662 0)
(-0.0385854 -0.00602554 0)
(-0.0360297 -0.00601403 0)
(-0.0334838 -0.00598079 0)
(-0.0309569 -0.00592454 0)
(-0.0284586 -0.00584406 0)
(-0.0259991 -0.00573821 0)
(-0.0235888 -0.00560591 0)
(-0.0212387 -0.00544622 0)
(-0.0189598 -0.00525832 0)
(-0.0167636 -0.00504158 0)
(-0.0146616 -0.00479559 0)
(-0.0126651 -0.00452022 0)
(-0.0107855 -0.00421573 0)
(-0.00903381 -0.0038828 0)
(-0.00742046 -0.00352276 0)
(-0.00595506 -0.00313768 0)
(-0.00464606 -0.0027307 0)
(-0.00350033 -0.00230633 0)
(-0.00252262 -0.00187093 0)
(-0.00171496 -0.00143336 0)
(-0.00107588 -0.00100583 0)
(-0.000599564 -0.000605065 0)
(-0.00027482 -0.000253859 0)
(-8.38717e-05 1.73206e-05 0)
(-8.44007e-07 0.000168151 0)
(8.74096e-06 0.000141895 0)
(6.69518e-07 -0.000125867 0)
(-4.10549e-05 -0.000102925 0)
(-0.000181025 0.000112704 0)
(-0.000441993 0.000461968 0)
(-0.000843364 0.000901901 0)
(-0.00139972 0.00139917 0)
(-0.00212014 0.00192816 0)
(-0.00300917 0.00246949 0)
(-0.0040676 0.00300864 0)
(-0.00529314 0.00353484 0)
(-0.00668101 0.0040402 0)
(-0.00822448 0.00451906 0)
(-0.00991531 0.00496745 0)
(-0.0117441 0.00538274 0)
(-0.0137008 0.00576333 0)
(-0.0157747 0.00610838 0)
(-0.0179547 0.0064177 0)
(-0.0202299 0.00669155 0)
(-0.0225891 0.00693058 0)
(-0.0250215 0.00713574 0)
(-0.0275162 0.00730818 0)
(-0.0300631 0.00744922 0)
(-0.032652 0.00756031 0)
(-0.0352735 0.007643 0)
(-0.0379185 0.00769889 0)
(-0.0405783 0.0077296 0)
(-0.0432448 0.0077368 0)
(-0.0459106 0.00772214 0)
(-0.0485684 0.00768725 0)
(-0.0512117 0.00763375 0)
(-0.0538346 0.00756322 0)
(-0.0564314 0.00747717 0)
(-0.0589972 0.00737711 0)
(-0.0615273 0.00726446 0)
(-0.0640177 0.00714059 0)
(-0.0664647 0.00700679 0)
(-0.0688651 0.00686433 0)
(-0.071216 0.00671436 0)
(-0.073515 0.006558 0)
(-0.0757601 0.00639628 0)
(-0.0779494 0.00623019 0)
(-0.0800815 0.00606062 0)
(-0.0821554 0.0058884 0)
(-0.0841701 0.00571433 0)
(-0.0861251 0.00553909 0)
(-0.0880199 0.00536335 0)
(-0.0898545 0.00518768 0)
(-0.0916289 0.00501263 0)
(-0.0933433 0.00483865 0)
(-0.094998 0.00466618 0)
(-0.0965936 0.00449558 0)
(-0.0981306 0.00432717 0)
(-0.0996099 0.00416123 0)
(-0.101032 0.00399798 0)
(-0.102398 0.00383762 0)
(-0.10371 0.00368029 0)
(-0.104967 0.00352611 0)
(-0.106171 0.00337514 0)
(-0.107323 0.00322744 0)
(-0.108424 0.00308301 0)
(-0.109475 0.00294183 0)
(-0.110477 0.00280387 0)
(-0.111432 0.00266906 0)
(-0.11234 0.00253729 0)
(-0.113202 0.00240846 0)
(-0.114019 0.00228243 0)
(-0.114793 0.00215904 0)
(-0.115524 0.00203813 0)
(-0.116212 0.0019195 0)
(-0.116859 0.00180295 0)
(-0.117465 0.00168826 0)
(-0.118031 0.00157521 0)
(-0.118557 0.00146355 0)
(-0.119043 0.00135302 0)
(-0.119491 0.00124338 0)
(-0.1199 0.00113434 0)
(-0.12027 0.00102563 0)
(-0.120602 0.000916961 0)
(-0.120895 0.000808049 0)
(-0.12115 0.000698597 0)
(-0.121365 0.000588305 0)
(-0.121541 0.000476874 0)
(-0.121678 0.000363999 0)
(-0.121774 0.000249378 0)
(-0.121829 0.000132707 0)
(-0.121843 1.36851e-05 0)
(-0.121814 -0.000107986 0)
(-0.121741 -0.000232599 0)
(-0.121625 -0.000360444 0)
(-0.121462 -0.000491802 0)
(-0.121253 -0.000626945 0)
(-0.120995 -0.000766134 0)
(-0.120688 -0.000909619 0)
(-0.12033 -0.00105764 0)
(-0.11992 -0.0012104 0)
(-0.119455 -0.00136812 0)
(-0.118935 -0.00153097 0)
(-0.118357 -0.00169911 0)
(-0.117719 -0.00187266 0)
(-0.117021 -0.00205174 0)
(-0.116259 -0.0022364 0)
(-0.115433 -0.0024267 0)
(-0.11454 -0.00262263 0)
(-0.113578 -0.00282414 0)
(-0.112546 -0.00303116 0)
(-0.111442 -0.00324355 0)
(-0.110265 -0.00346113 0)
(-0.109011 -0.00368367 0)
(-0.107681 -0.00391089 0)
(-0.106273 -0.00414242 0)
(-0.104784 -0.00437786 0)
(-0.103215 -0.00461672 0)
(-0.101564 -0.00485846 0)
(-0.0998305 -0.00510246 0)
(-0.0980137 -0.00534801 0)
(-0.0961136 -0.00559436 0)
(-0.0941299 -0.00584064 0)
(-0.0920632 -0.00608593 0)
(-0.0899139 -0.00632922 0)
(-0.087683 -0.0065694 0)
(-0.085372 -0.00680531 0)
(-0.0829824 -0.00703567 0)
(-0.0805167 -0.00725916 0)
(-0.0779773 -0.00747436 0)
(-0.0753674 -0.00767976 0)
(-0.0726907 -0.0078738 0)
(-0.0699514 -0.00805485 0)
(-0.0671541 -0.0082212 0)
(-0.0643042 -0.00837109 0)
(-0.0614076 -0.00850273 0)
(-0.0584707 -0.00861426 0)
(-0.0555005 -0.0087038 0)
(-0.0525049 -0.00876945 0)
(-0.0494921 -0.0088093 0)
(-0.0464709 -0.00882145 0)
(-0.0434509 -0.00880401 0)
(-0.0404422 -0.00875514 0)
(-0.0374554 -0.00867305 0)
(-0.0345017 -0.00855604 0)
(-0.0315926 -0.00840251 0)
(-0.0287404 -0.008211 0)
(-0.0259574 -0.00798024 0)
(-0.0232564 -0.00770916 0)
(-0.0206503 -0.00739699 0)
(-0.0181522 -0.00704327 0)
(-0.015775 -0.006648 0)
(-0.0135315 -0.0062117 0)
(-0.0114339 -0.00573559 0)
(-0.00949386 -0.00522172 0)
(-0.00772212 -0.00467329 0)
(-0.00612799 -0.00409489 0)
(-0.00471908 -0.00349297 0)
(-0.00350076 -0.00287642 0)
(-0.00247559 -0.00225724 0)
(-0.00164267 -0.00165157 0)
(-0.000996968 -0.00108093 0)
(-0.000528364 -0.000573809 0)
(-0.000220679 -0.000167365 0)
(-5.27509e-05 9.03016e-05 0)
(-4.33203e-07 0.000132738 0)
(-7.7226e-06 -9.58044e-05 0)
(-8.99868e-05 2.18092e-05 0)
(-0.000311407 0.000359937 0)
(-0.000684143 0.000853184 0)
(-0.00122226 0.00145292 0)
(-0.00193802 0.0021207 0)
(-0.00283876 0.00282634 0)
(-0.00392768 0.00354655 0)
(-0.00520454 0.00426348 0)
(-0.00666626 0.00496359 0)
(-0.0083073 0.00563678 0)
(-0.0101202 0.0062756 0)
(-0.0120958 0.00687475 0)
(-0.0142241 0.0074306 0)
(-0.0164939 0.00794082 0)
(-0.0188936 0.00840414 0)
(-0.0214111 0.00882013 0)
(-0.0240342 0.00918897 0)
(-0.0267509 0.00951139 0)
(-0.0295488 0.00978852 0)
(-0.0324164 0.0100218 0)
(-0.035342 0.0102129 0)
(-0.0383145 0.0103636 0)
(-0.0413232 0.0104761 0)
(-0.044358 0.0105523 0)
(-0.0474093 0.0105945 0)
(-0.0504678 0.0106048 0)
(-0.0535251 0.0105854 0)
(-0.0565732 0.0105385 0)
(-0.0596048 0.0104663 0)
(-0.0626129 0.0103709 0)
(-0.0655912 0.0102542 0)
(-0.0685342 0.0101185 0)
(-0.0714366 0.00996543 0)
(-0.0742936 0.00979701 0)
(-0.0771012 0.00961498 0)
(-0.0798557 0.00942101 0)
(-0.0825537 0.00921669 0)
(-0.0851925 0.00900355 0)
(-0.0877698 0.00878298 0)
(-0.0902834 0.00855631 0)
(-0.0927318 0.00832479 0)
(-0.0951135 0.00808954 0)
(-0.0974277 0.00785163 0)
(-0.0996736 0.00761203 0)
(-0.101851 0.00737163 0)
(-0.103959 0.00713123 0)
(-0.105998 0.00689156 0)
(-0.107969 0.00665326 0)
(-0.109871 0.00641693 0)
(-0.111705 0.00618306 0)
(-0.113473 0.00595209 0)
(-0.115174 0.00572442 0)
(-0.116809 0.00550035 0)
(-0.118381 0.00528014 0)
(-0.119889 0.00506401 0)
(-0.121335 0.0048521 0)
(-0.122719 0.00464453 0)
(-0.124044 0.00444137 0)
(-0.125311 0.00424262 0)
(-0.12652 0.00404827 0)
(-0.127673 0.00385826 0)
(-0.12877 0.0036725 0)
(-0.129814 0.00349088 0)
(-0.130805 0.00331322 0)
(-0.131745 0.00313935 0)
(-0.132634 0.00296907 0)
(-0.133473 0.00280213 0)
(-0.134263 0.00263829 0)
(-0.135006 0.00247726 0)
(-0.135701 0.00231876 0)
(-0.136349 0.00216246 0)
(-0.136952 0.00200805 0)
(-0.137509 0.00185518 0)
(-0.138021 0.0017035 0)
(-0.138488 0.00155263 0)
(-0.13891 0.0014022 0)
(-0.139287 0.00125183 0)
(-0.13962 0.00110111 0)
(-0.139908 0.00094966 0)
(-0.140151 0.000797059 0)
(-0.140349 0.000642903 0)
(-0.1405 0.000486782 0)
(-0.140605 0.000328283 0)
(-0.140662 0.000166995 0)
(-0.140671 2.51069e-06 0)
(-0.140631 -0.000165574 0)
(-0.140541 -0.000337658 0)
(-0.1404 -0.00051413 0)
(-0.140206 -0.000695371 0)
(-0.139958 -0.000881747 0)
(-0.139654 -0.00107361 0)
(-0.139294 -0.00127131 0)
(-0.138874 -0.00147514 0)
(-0.138395 -0.00168541 0)
(-0.137853 -0.00190238 0)
(-0.137246 -0.0021263 0)
(-0.136574 -0.00235737 0)
(-0.135833 -0.00259576 0)
(-0.135023 -0.00284161 0)
(-0.13414 -0.00309502 0)
(-0.133183 -0.00335601 0)
(-0.13215 -0.0036246 0)
(-0.131038 -0.00390071 0)
(-0.129846 -0.00418423 0)
(-0.128571 -0.00447497 0)
(-0.127213 -0.00477268 0)
(-0.125768 -0.00507704 0)
(-0.124235 -0.00538764 0)
(-0.122613 -0.005704 0)
(-0.120899 -0.00602556 0)
(-0.119094 -0.00635166 0)
(-0.117196 -0.00668153 0)
(-0.115203 -0.00701435 0)
(-0.113116 -0.00734915 0)
(-0.110934 -0.00768488 0)
(-0.108658 -0.00802038 0)
(-0.106287 -0.00835439 0)
(-0.103822 -0.00868552 0)
(-0.101264 -0.0090123 0)
(-0.0986152 -0.00933311 0)
(-0.0958775 -0.00964625 0)
(-0.0930532 -0.00994991 0)
(-0.0901455 -0.0102422 0)
(-0.0871578 -0.010521 0)
(-0.0840944 -0.0107842 0)
(-0.08096 -0.0110297 0)
(-0.0777599 -0.0112552 0)
(-0.0745001 -0.0114582 0)
(-0.0711873 -0.0116363 0)
(-0.0678287 -0.0117871 0)