/*--------------------------------*- C++ -*----------------------------------*\
  =========                 |
  \\      /  F ield         | OpenFOAM: The Open Source CFD Toolbox
   \\    /   O peration     | Website:  https://openfoam.org
    \\  /    A nd           | Version:  7
     \\/     M anipulation  |
\*---------------------------------------------------------------------------*/
FoamFile
{
    version     2.0;
    format      ascii;
    class       volScalarField;
    location    "0.45";
    object      p;
}
// * * * * * * * * * * * * * * * * * * * * * * * * * * * * * * * * * * * * * //

dimensions      [0 2 -2 0 0 0 0];

internalField   nonuniform List<scalar> 
12800
(
-3.49764e-08
2.99324e-05
8.05788e-07
-0.000101064
-0.000268702
-0.000492005
-0.000760222
-0.00106293
-0.00139066
-0.00173511
-0.00208928
-0.00244689
-0.00280299
-0.00315334
-0.0034945
-0.00382368
-0.0041387
-0.00443787
-0.00471992
-0.00498399
-0.00522949
-0.00545613
-0.00566378
-0.00585252
-0.00602254
-0.00617416
-0.00630774
-0.00642372
-0.00652256
-0.00660471
-0.00667066
-0.00672086
-0.00675574
-0.0067757
-0.00678109
-0.00677223
-0.00674938
-0.00671276
-0.00666253
-0.0065988
-0.00652161
-0.00643096
-0.00632681
-0.00620905
-0.0060775
-0.00593196
-0.00577215
-0.00559776
-0.00540842
-0.00520372
-0.00498318
-0.00474631
-0.00449252
-0.0042212
-0.00393169
-0.00362329
-0.00329524
-0.00294672
-0.00257688
-0.00218481
-0.00176955
-0.00133009
-0.000865364
-0.000374262
0.000144384
0.000691796
0.00126925
0.00187807
0.00251964
0.00319539
0.00390681
0.00465543
0.00544285
0.00627069
0.00714064
0.00805442
0.00901379
0.0100206
0.0110765
0.0121836
0.0133436
0.0145584
0.0158299
0.01716
0.0185505
0.0200032
0.02152
0.0231026
0.0247526
0.0264716
0.0282611
0.0301224
0.0320568
0.0340652
0.0361486
0.0383075
0.0405425
0.0428535
0.0452406
0.0477032
0.0502404
0.0528512
0.0555339
0.0582865
0.0611065
0.063991
0.0669365
0.069939
0.0729939
0.0760962
0.0792401
0.0824193
0.0856271
0.088856
0.0920979
0.0953443
0.0985861
0.101814
0.105017
0.108186
0.111309
0.114376
0.117374
0.120294
0.123123
0.125851
0.128465
0.130956
0.133313
0.135526
0.137587
0.139486
0.141217
0.142774
0.144151
0.145345
0.146353
0.147175
0.14781
0.148262
0.148533
0.14863
0.14856
0.148331
0.147954
0.147442
0.146808
0.14607
0.145244
0.14435
0.143411
0.142451
0.141497
0.140578
0.139729
0.138985
0.138387
0.137975
0.137789
0.137816
-2.42915e-05
5.52333e-06
-2.60042e-05
-0.000120035
-0.000267964
-0.000462979
-0.000697491
-0.000963428
-0.0012531
-0.00155951
-0.00187646
-0.0021985
-0.00252097
-0.00283992
-0.00315204
-0.0034546
-0.00374542
-0.00402275
-0.00428524
-0.00453189
-0.00476199
-0.00497506
-0.00517087
-0.00534931
-0.00551043
-0.00565439
-0.00578141
-0.00589178
-0.00598582
-0.00606388
-0.00612632
-0.00617347
-0.00620568
-0.00622324
-0.00622644
-0.0062155
-0.00619064
-0.00615201
-0.00609971
-0.00603381
-0.00595431
-0.00586118
-0.00575435
-0.00563367
-0.00549897
-0.00535
-0.00518649
-0.0050081
-0.00481446
-0.00460516
-0.00437972
-0.00413763
-0.00387832
-0.00360119
-0.00330559
-0.00299081
-0.0026561
-0.00230068
-0.0019237
-0.00152427
-0.00110146
-0.00065428
-0.000181689
0.000317392
0.000844097
0.00139961
0.00198517
0.00260206
0.0032516
0.00393519
0.00465425
0.00541027
0.00620475
0.00703928
0.00791545
0.00883492
0.00979936
0.0108105
0.01187
0.0129798
0.0141414
0.0153568
0.0166277
0.0179558
0.0193429
0.0207907
0.0223008
0.0238749
0.0255144
0.0272209
0.0289956
0.0308398
0.0327546
0.0347408
0.0367991
0.0389302
0.0411342
0.0434112
0.045761
0.048183
0.0506763
0.0532395
0.0558712
0.0585692
0.061331
0.0641537
0.0670339
0.0699675
0.0729502
0.0759769
0.0790422
0.0821398
0.0852633
0.0884053
0.0915583
0.094714
0.0978637
0.100998
0.104108
0.107183
0.110213
0.113188
0.116096
0.118928
0.121673
0.124319
0.126857
0.129277
0.131568
0.133722
0.135731
0.137587
0.139283
0.140813
0.142174
0.143362
0.144374
0.14521
0.145871
0.14636
0.14668
0.146836
0.146837
0.146689
0.146405
0.145995
0.145473
0.144855
0.144157
0.143398
0.142599
0.141782
0.140971
0.140192
0.139475
0.138848
0.138342
0.137985
0.137815
0.137843
1.3076e-05
4.34835e-05
1.06334e-05
-7.95537e-05
-0.000216551
-0.000394685
-0.00060789
-0.000849532
-0.00111312
-0.00139267
-0.00168271
-0.0019784
-0.00227549
-0.00257032
-0.00285977
-0.00314126
-0.00341263
-0.00367216
-0.00391848
-0.00415055
-0.00436756
-0.00456898
-0.00475444
-0.00492376
-0.00507688
-0.00521384
-0.00533477
-0.00543984
-0.00552928
-0.00560335
-0.00566231
-0.00570642
-0.00573594
-0.00575109
-0.00575208
-0.0057391
-0.0057123
-0.00567177
-0.00561758
-0.00554974
-0.00546824
-0.00537302
-0.00526396
-0.00514091
-0.00500367
-0.00485198
-0.00468554
-0.00450403
-0.00430705
-0.00409419
-0.00386498
-0.00361889
-0.00335537
-0.00307381
-0.00277358
-0.00245398
-0.00211426
-0.00175365
-0.00137133
-0.000966423
-0.000538012
-8.51309e-05
0.000393228
0.000898122
0.00143066
0.00199199
0.00258331
0.00320587
0.00386095
0.0045499
0.00527411
0.00603499
0.00683401
0.00767268
0.00855256
0.00947521
0.0104423
0.0114553
0.0125161
0.0136263
0.0147875
0.0160014
0.0172698
0.0185943
0.0199765
0.0214181
0.0229205
0.0244854
0.0261141
0.027808
0.0295683
0.0313962
0.0332926
0.0352583
0.037294
0.0394
0.0415766
0.0438238
0.0461412
0.0485282
0.0509839
0.0535069
0.0560956
0.058748
0.0614615
0.0642333
0.0670598
0.0699374
0.0728615
0.0758274
0.0788296
0.0818622
0.0849187
0.0879923
0.0910754
0.0941602
0.0972382
0.100301
0.103338
0.106341
0.1093
0.112205
0.115046
0.117811
0.120492
0.123078
0.125559
0.127926
0.130169
0.13228
0.134252
0.136076
0.137747
0.139259
0.140609
0.141793
0.14281
0.143658
0.14434
0.144858
0.145215
0.145417
0.14547
0.145384
0.145169
0.144835
0.144396
0.143866
0.143261
0.1426
0.1419
0.141183
0.14047
0.139784
0.139151
0.138595
0.138141
0.137813
0.137644
0.137658
0.000122978
0.000143774
0.000104638
1.3082e-05
-0.000120261
-0.000290074
-0.000491035
-0.000717401
-0.000963596
-0.00122437
-0.00149493
-0.00177094
-0.00204857
-0.00232448
-0.0025958
-0.0028601
-0.00311533
-0.00335985
-0.00359231
-0.00381167
-0.00401712
-0.00420807
-0.00438411
-0.00454499
-0.0046906
-0.0048209
-0.00493593
-0.0050358
-0.00512067
-0.00519071
-0.00524613
-0.0052871
-0.00531383
-0.00532649
-0.00532522
-0.00531016
-0.00528141
-0.00523903
-0.00518304
-0.00511342
-0.00503012
-0.00493306
-0.0048221
-0.00469706
-0.00455772
-0.00440381
-0.00423502
-0.00405102
-0.0038514
-0.00363576
-0.0034036
-0.00315442
-0.00288765
-0.0026027
-0.00229893
-0.00197566
-0.00163215
-0.00126765
-0.000881345
-0.000472373
-3.98386e-05
0.0004172
0.000899728
0.00140878
0.00194543
0.0025108
0.00310605
0.00373241
0.00439111
0.00508346
0.0058108
0.00657451
0.007376
0.00821674
0.00909821
0.0100219
0.0109895
0.0120025
0.0130624
0.0141709
0.0153297
0.0165403
0.0178044
0.0191234
0.0204991
0.021933
0.0234264
0.024981
0.0265979
0.0282785
0.0300239
0.0318353
0.0337134
0.035659
0.0376728
0.039755
0.0419059
0.0441254
0.046413
0.0487682
0.0511899
0.0536769
0.0562276
0.0588399
0.0615113
0.064239
0.0670196
0.0698493
0.0727239
0.0756387
0.0785883
0.081567
0.0845686
0.0875862
0.0906127
0.0936403
0.0966609
0.099666
0.102647
0.105593
0.108497
0.111348
0.114135
0.116851
0.119483
0.122023
0.124462
0.12679
0.128997
0.131077
0.133021
0.134823
0.136477
0.137978
0.139321
0.140504
0.141526
0.142385
0.143085
0.143625
0.144012
0.144249
0.144344
0.144305
0.144141
0.143864
0.143487
0.143022
0.142486
0.141894
0.141264
0.140615
0.139967
0.139341
0.138758
0.138239
0.137806
0.13748
0.137288
0.137251
0.00029845
0.000298093
0.000245686
0.000147572
1.25942e-05
-0.000154314
-0.000348389
-0.00056466
-0.000798315
-0.0010448
-0.00129991
-0.00155983
-0.00182114
-0.00208083
-0.0023363
-0.00258531
-0.00282598
-0.00305676
-0.00327637
-0.00348379
-0.00367823
-0.00385911
-0.00402598
-0.00417857
-0.0043167
-0.00444028
-0.00454931
-0.00464385
-0.00472398
-0.00478982
-0.0048415
-0.00487917
-0.00490295
-0.00491296
-0.00490931
-0.00489208
-0.00486132
-0.00481705
-0.00475925
-0.00468789
-0.00460288
-0.0045041
-0.00439139
-0.00426455
-0.00412335
-0.0039675
-0.00379669
-0.00361055
-0.0034087
-0.0031907
-0.00295608
-0.00270431
-0.00243486
-0.00214712
-0.00184045
-0.00151419
-0.00116762
-0.000799996
-0.000410512
1.66659e-06
0.000437421
0.000897669
0.00138337
0.00189554
0.00243521
0.00300349
0.0036015
0.00423041
0.00489145
0.00558587
0.00631497
0.00708009
0.00788258
0.00872387
0.00960539
0.0105286
0.0114951
0.0125062
0.0135636
0.0146689
0.0158235
0.017029
0.018287
0.019599
0.0209664
0.0223909
0.0238737
0.0254162
0.0270198
0.0286857
0.0304149
0.0322084
0.0340671
0.0359917
0.0379827
0.0400405
0.0421652
0.0443567
0.0466145
0.0489381
0.0513266
0.0537785
0.0562923
0.0588661
0.0614973
0.0641832
0.0669206
0.0697057
0.0725344
0.075402
0.0783035
0.0812333
0.0841852
0.0871527
0.0901287
0.0931058
0.096076
0.099031
0.101962
0.104861
0.107717
0.110522
0.113265
0.115938
0.118531
0.121034
0.123438
0.125734
0.127913
0.129969
0.131892
0.133678
0.135319
0.136811
0.138151
0.139336
0.140364
0.141235
0.14195
0.142511
0.142923
0.143191
0.143321
0.143322
0.143202
0.142972
0.142645
0.142233
0.14175
0.141213
0.140637
0.140039
0.139437
0.138851
0.138298
0.137796
0.137365
0.137022
0.136784
0.136663
0.000531238
0.000500606
0.000428611
0.000318963
0.000177457
8.57482e-06
-0.000183394
-0.000394199
-0.000619696
-0.000855971
-0.00109938
-0.00134656
-0.00159454
-0.00184064
-0.00208253
-0.00231819
-0.00254594
-0.00276432
-0.00297218
-0.00316855
-0.00335269
-0.00352401
-0.0036821
-0.00382665
-0.00395747
-0.00407443
-0.00417749
-0.00426667
-0.00434201
-0.00440356
-0.00445143
-0.0044857
-0.00450644
-0.00451373
-0.00450764
-0.00448821
-0.00445543
-0.00440929
-0.00434975
-0.00427674
-0.00419012
-0.00408978
-0.00397552
-0.00384712
-0.00370432
-0.00354683
-0.00337433
-0.00318645
-0.00298278
-0.00276289
-0.0025263
-0.0022725
-0.00200094
-0.00171102
-0.00140213
-0.00107359
-0.00072471
-0.000354747
3.70779e-05
0.000451585
0.000889633
0.00135212
0.00183998
0.00235419
0.00289578
0.0034658
0.00406535
0.00469557
0.00535764
0.00605277
0.00678223
0.0075473
0.00834931
0.00918962
0.0100696
0.0109907
0.0119544
0.0129621
0.0140153
0.0151155
0.0162642
0.0174629
0.0187131
0.0200163
0.0213738
0.0227871
0.0242577
0.0257867
0.0273754
0.029025
0.0307366
0.0325111
0.0343492
0.0362518
0.0382193
0.040252
0.0423501
0.0445133
0.0467414
0.0490338
0.0513895
0.0538072
0.0562854
0.0588221
0.0614151
0.0640615
0.0667583
0.0695019
0.0722882
0.0751127
0.0779704
0.080856
0.0837635
0.0866864
0.089618
0.092551
0.0954776
0.0983897
0.101279
0.104136
0.106953
0.10972
0.112428
0.115067
0.117627
0.120101
0.122478
0.12475
0.126909
0.128947
0.130856
0.13263
0.134264
0.135753
0.137092
0.138281
0.139316
0.140199
0.140929
0.14151
0.141945
0.142239
0.142399
0.142432
0.142348
0.142156
0.141869
0.141498
0.141057
0.14056
0.140023
0.13946
0.138889
0.138325
0.137785
0.137284
0.136838
0.136462
0.136161
0.135935
0.000812055
0.000744644
0.000647924
0.00052228
0.000369856
0.000194629
4.32172e-07
-0.000209102
-0.000430466
-0.000660315
-0.000895507
-0.00113317
-0.0013707
-0.00160578
-0.00183634
-0.00206064
-0.00227714
-0.00248457
-0.00268188
-0.0028682
-0.00304284
-0.00320526
-0.00335508
-0.00349198
-0.00361577
-0.00372632
-0.00382355
-0.00390746
-0.00397804
-0.00403534
-0.0040794
-0.00411025
-0.00412795
-0.00413254
-0.00412402
-0.0041024
-0.00406766
-0.00401973
-0.00395855
-0.003884
-0.00379595
-0.00369423
-0.00357865
-0.00344894
-0.00330485
-0.00314606
-0.00297224
-0.00278302
-0.00257798
-0.00235669
-0.00211867
-0.0018634
-0.00159034
-0.0012989
-0.000988467
-0.000658386
-0.000307971
6.35043e-05
0.000456804
0.000872726
0.00131211
0.00177583
0.00226479
0.00277995
0.0033223
0.00389287
0.00449271
0.00512294
0.0057847
0.00647916
0.00720754
0.00797108
0.00877108
0.00960884
0.0104857
0.0114031
0.0123623
0.0133649
0.0144121
0.0155056
0.0166466
0.0178367
0.0190773
0.0203699
0.0217158
0.0231163
0.0245729
0.0260867
0.0276591
0.029291
0.0309836
0.0327378
0.0345543
0.0364339
0.038377
0.040384
0.0424549
0.0445898
0.0467882
0.0490496
0.0513731
0.0537574
0.0562012
0.0587025
0.061259
0.0638683
0.0665272
0.0692322
0.0719795
0.0747648
0.0775831
0.0804292
0.0832973
0.0861813
0.0890744
0.0919695
0.0948592
0.0977354
0.10059
0.103414
0.106199
0.108936
0.111616
0.114229
0.116766
0.119218
0.121576
0.123832
0.125977
0.128004
0.129905
0.131674
0.133305
0.134794
0.136138
0.137333
0.138378
0.139272
0.140018
0.140617
0.141072
0.141389
0.141574
0.141634
0.141579
0.141417
0.14116
0.14082
0.140409
0.13994
0.139428
0.138887
0.138331
0.137775
0.137232
0.136717
0.136242
0.135821
0.135446
0.135104
0.00113155
0.00102286
0.000897403
0.000752067
0.000584981
0.000399659
0.000199553
-1.23208e-05
-0.000233032
-0.000459747
-0.000689818
-0.000920808
-0.00115049
-0.00137688
-0.00159822
-0.00181297
-0.00201984
-0.0022177
-0.00240565
-0.00258291
-0.00274889
-0.00290311
-0.00304521
-0.00317491
-0.00329203
-0.00339644
-0.00348807
-0.00356686
-0.00363282
-0.00368596
-0.00372627
-0.00375378
-0.0037685
-0.00377043
-0.00375955
-0.00373583
-0.00369921
-0.0036496
-0.00358691
-0.003511
-0.0034217
-0.00331883
-0.00320216
-0.00307143
-0.00292635
-0.00276661
-0.00259185
-0.00240171
-0.00219575
-0.00197354
-0.00173461
-0.00147844
-0.00120448
-0.000912159
-0.00060087
-0.000269972
8.12096e-05
0.000453386
0.000847303
0.00126374
0.00170351
0.00216747
0.00265649
0.00317151
0.00371349
0.00428341
0.00488232
0.00551127
0.00617138
0.00686379
0.00758966
0.0083502
0.00914667
0.00998032
0.0108525
0.0117644
0.0127176
0.0137132
0.0147528
0.0158377
0.0169693
0.0181491
0.0193784
0.0206585
0.021991
0.023377
0.0248179
0.0263149
0.0278692
0.029482
0.0311541
0.0328867
0.0346803
0.0365358
0.0384536
0.040434
0.0424773
0.0445834
0.0467519
0.0489824
0.051274
0.0536256
0.0560358
0.0585029
0.0610246
0.0635986
0.0662218
0.068891
0.0716023
0.0743516
0.0771343
0.0799451
0.0827785
0.0856285
0.0884884
0.0913515
0.0942102
0.0970569
0.0998834
0.102681
0.105442
0.108156
0.110815
0.11341
0.11593
0.118369
0.120715
0.122962
0.1251
0.127123
0.129022
0.130791
0.132426
0.13392
0.135271
0.136476
0.137532
0.138441
0.139202
0.139818
0.140292
0.14063
0.140836
0.140919
0.140886
0.140747
0.140513
0.140194
0.139803
0.139352
0.138854
0.138322
0.137769
0.137208
0.136652
0.13611
0.135596
0.135121
0.134663
0.134202
0.00148102
0.00132799
0.00117081
0.00100279
0.000817965
0.000619428
0.000410289
0.000193004
-3.00288e-05
-0.000256469
-0.000484123
-0.000710953
-0.000935105
-0.00115492
-0.00136893
-0.00157585
-0.00177459
-0.00196421
-0.00214393
-0.00231313
-0.00247129
-0.00261802
-0.00275301
-0.00287601
-0.00298688
-0.0030855
-0.00317179
-0.00324571
-0.00330723
-0.00335636
-0.00339307
-0.00341735
-0.00342921
-0.00342859
-0.00341547
-0.00338977
-0.00335141
-0.00330028
-0.00323625
-0.00315916
-0.00306883
-0.00296504
-0.00284756
-0.00271609
-0.00257035
-0.00241001
-0.0022347
-0.00204404
-0.00183761
-0.00161497
-0.00137565
-0.00111913
-0.000844865
-0.000552297
-0.000240825
9.01772e-05
0.000441372
0.000813453
0.00120715
0.00162321
0.00206244
0.00252565
0.00301372
0.00352753
0.00406801
0.00463612
0.00523286
0.00585927
0.00651641
0.00720539
0.00792734
0.00868342
0.00947483
0.0103028
0.0111686
0.0120735
0.0130189
0.014006
0.0150361
0.0161107
0.0172311
0.0183987
0.0196148
0.0208808
0.022198
0.0235677
0.0249912
0.0264697
0.0280043
0.0295962
0.0312464
0.0329558
0.0347253
0.0365554
0.0384468
0.0403998
0.0424146
0.0444913
0.0466295
0.048829
0.0510888
0.053408
0.0557853
0.058219
0.0607071
0.0632472
0.0658366
0.0684721
0.0711501
0.0738664
0.0766167
0.0793959
0.0821986
0.0850189
0.0878505
0.0906866
0.0935199
0.0963428
0.0991474
0.101925
0.104668
0.107366
0.110012
0.112595
0.115106
0.117538
0.11988
0.122124
0.124263
0.126287
0.12819
0.129966
0.131609
0.133113
0.134476
0.135694
0.136765
0.137689
0.138467
0.139101
0.139593
0.139949
0.140174
0.140276
0.140261
0.14014
0.139922
0.139617
0.139238
0.138795
0.138302
0.137769
0.137209
0.136634
0.136053
0.135477
0.134916
0.13438
0.133837
0.133256
0.00185248
0.00165312
0.00146204
0.00126903
0.00106398
0.000849645
0.000628862
0.00040357
0.000175664
-5.29701e-05
-0.000280556
-0.000505443
-0.000726136
-0.000941286
-0.00114971
-0.00135037
-0.00154239
-0.00172502
-0.00189764
-0.00205975
-0.00221094
-0.00235091
-0.00247941
-0.00259627
-0.00270135
-0.00279456
-0.00287585
-0.00294518
-0.00300253
-0.00304786
-0.00308116
-0.00310241
-0.00311156
-0.00310857
-0.00309337
-0.00306586
-0.00302593
-0.00297347
-0.0029083
-0.00283025
-0.00273912
-0.00263467
-0.00251665
-0.00238475
-0.00223868
-0.00207809
-0.00190261
-0.00171186
-0.00150541
-0.00128282
-0.00104362
-0.000787295
-0.000513313
-0.000221117
8.98767e-05
0.000420284
0.000770752
0.00114196
0.0015346
0.00194942
0.00238719
0.00284871
0.0033348
0.00384634
0.00438421
0.00494936
0.00554273
0.00616534
0.00681821
0.0075024
0.00821901
0.00896917
0.00975403
0.0105748
0.0114327
0.0123289
0.0132648
0.0142415
0.0152605
0.016323
0.0174304
0.018584
0.0197851
0.021035
0.0223352
0.0236867
0.0250909
0.0265491
0.0280623
0.0296317
0.0312583
0.0329431
0.0346868
0.0364903
0.038354
0.0402785
0.0422639
0.0443105
0.0464179
0.0485858
0.0508137
0.0531005
0.0554452
0.0578462
0.0603015
0.0628091
0.0653661
0.0679698
0.0706164
0.0733023
0.076023
0.0787738
0.0815494
0.084344
0.0871514
0.0899651
0.0927779
0.0955823
0.0983704
0.101134
0.103865
0.106554
0.109192
0.11177
0.114279
0.11671
0.119055
0.121304
0.123448
0.125481
0.127395
0.129183
0.130839
0.132359
0.133738
0.134972
0.136061
0.137004
0.1378
0.138452
0.138963
0.139337
0.13958
0.139698
0.139698
0.13959
0.139382
0.139086
0.138712
0.138271
0.137774
0.137232
0.136657
0.136059
0.135446
0.134828
0.134215
0.133614
0.132985
0.132286
0.00223873
0.00199181
0.00176527
0.00154548
0.00131824
0.00108602
0.000851447
0.000615969
0.000381022
0.000148077
-8.14784e-05
-0.00030637
-0.000525433
-0.000737625
-0.000942039
-0.00113789
-0.00132451
-0.00150133
-0.00166791
-0.00182388
-0.00196895
-0.0021029
-0.00222557
-0.00233684
-0.00243663
-0.00252488
-0.00260156
-0.00266665
-0.00272011
-0.00276192
-0.00279207
-0.0028105
-0.00281718
-0.00281202
-0.00279493
-0.00276582
-0.00272454
-0.00267095
-0.00260488
-0.00252611
-0.00243444
-0.00232961
-0.00221133
-0.00207932
-0.00193325
-0.00177277
-0.00159752
-0.00140708
-0.00120105
-0.000978989
-0.000740408
-0.000484813
-0.000211681
7.95356e-05
0.00038941
0.000718542
0.00106756
0.00143712
0.00182791
0.00224064
0.00267606
0.00313493
0.00361807
0.0041263
0.00466048
0.00522152
0.00581034
0.00642791
0.00707521
0.00775328
0.00846316
0.00920595
0.00998276
0.0107948
0.0116431
0.012529
0.0134537
0.0144184
0.0154245
0.0164731
0.0175656
0.0187034
0.0198876
0.0211197
0.0224008
0.0237324
0.0251155
0.0265515
0.0280415
0.0295866
0.031188
0.0328464
0.0345629
0.0363382
0.038173
0.0400677
0.0420226
0.044038
0.0461138
0.0482497
0.0504452
0.0526996
0.0550117
0.0573802
0.0598033
0.0622791
0.064805
0.0673781
0.0699953
0.0726528
0.0753463
0.0780714
0.0808229
0.0835951
0.0863822
0.0891776
0.0919742
0.0947648
0.0975416
0.100296
0.103021
0.105706
0.108343
0.110922
0.113435
0.115873
0.118226
0.120486
0.122643
0.124691
0.126621
0.128427
0.130103
0.131642
0.133042
0.134298
0.135408
0.136372
0.13719
0.137862
0.138393
0.138785
0.139044
0.139176
0.139189
0.139091
0.138891
0.138598
0.138224
0.137778
0.137272
0.136715
0.136118
0.13549
0.13484
0.134175
0.133505
0.132838
0.132123
0.131312
0.0026332
0.00233799
0.00207493
0.00182704
0.00157607
0.0013243
0.00107417
0.000826699
0.000582898
0.000343846
0.000110561
-0.000116023
-0.000335061
-0.000545817
-0.000747649
-0.000940006
-0.00112243
-0.00129457
-0.00145612
-0.00160686
-0.00174662
-0.0018753
-0.0019928
-0.00209909
-0.00219412
-0.00227788
-0.00235038
-0.00241159
-0.00246152
-0.00250013
-0.00252741
-0.00254331
-0.00254775
-0.00254067
-0.00252195
-0.00249147
-0.00244908
-0.00239461
-0.00232788
-0.00224866
-0.00215671
-0.00205177
-0.00193355
-0.00180174
-0.00165601
-0.001496
-0.00132134
-0.00113163
-0.000926455
-0.000705368
-0.000467898
-0.000213553
5.81784e-05
0.000347831
0.000655964
0.000983164
0.00133004
0.00169722
0.00208537
0.00249519
0.00292739
0.00338271
0.00386192
0.00436582
0.00489526
0.00545108
0.00603418
0.00664549
0.00728596
0.00795657
0.00865835
0.00939234
0.0101596
0.0109613
0.0117986
0.0126725
0.0135844
0.0145353
0.0155267
0.0165597
0.0176355
0.0187556
0.0199211
0.0211333
0.0223936
0.0237032
0.0250634
0.0264753
0.0279403
0.0294593
0.0310336
0.032664
0.0343516
0.0360972
0.0379015
0.039765
0.0416882
0.0436714
0.0457146
0.0478176
0.0499802
0.0522016
0.0544809
0.056817
0.0592082
0.0616527
0.0641482
0.0666919
0.0692809
0.0719116
0.07458
0.0772816
0.0800116
0.0827645
0.0855344
0.088315
0.0910995
0.0938805
0.0966504
0.0994011
0.102124
0.104811
0.107452
0.110039
0.112562
0.115012
0.11738
0.119656
0.121833
0.123902
0.125855
0.127685
0.129385
0.13095
0.132376
0.133658
0.134794
0.135783
0.136625
0.13732
0.137872
0.138283
0.138559
0.138705
0.13873
0.138639
0.138443
0.138151
0.137773
0.137318
0.136797
0.136219
0.135595
0.134933
0.134242
0.133526
0.132798
0.132063
0.131264
0.130344
0.00302985
0.002686
0.00238573
0.00210875
0.0018329
0.00156026
0.00129316
0.00103222
0.000778049
0.000531373
0.000292867
6.31367e-05
-0.00015729
-0.000367956
-0.000568474
-0.000758529
-0.000937885
-0.00110636
-0.00126384
-0.00141023
-0.00154549
-0.00166963
-0.00178263
-0.00188452
-0.00197535
-0.00205513
-0.00212389
-0.00218165
-0.00222842
-0.00226418
-0.00228892
-0.00230258
-0.00230509
-0.00229636
-0.00227628
-0.00224469
-0.00220145
-0.00214637
-0.00207924
-0.00199983
-0.00190788
-0.00180312
-0.00168526
-0.00155396
-0.0014089
-0.00124972
-0.00107602
-0.000887434
-0.000683526
-0.000463858
-0.000227966
2.4631e-05
0.000294433
0.000581963
0.000887762
0.0012124
0.00155646
0.00192055
0.00230532
0.00271143
0.00313957
0.00359045
0.00406481
0.00456342
0.00508707
0.0056366
0.00621285
0.00681671
0.00744911
0.00811098
0.0088033
0.0095271
0.0102834
0.0110733
0.0118979
0.0127582
0.0136556
0.0145911
0.015566
0.0165815
0.0176389
0.0187394
0.0198843
0.0210748
0.0223124
0.0235981
0.0249334
0.0263193
0.0277573
0.0292484
0.0307937
0.0323944
0.0340513
0.0357655
0.0375377
0.0393686
0.0412587
0.0432084
0.0452179
0.0472871
0.0494158
0.0516037
0.0538498
0.0561531
0.0585124
0.0609258
0.0633913
0.0659064
0.0684681
0.0710733
0.073718
0.0763981
0.0791087
0.0818447
0.0846003
0.0873693
0.0901449
0.0929201
0.0956872
0.0984382
0.101165
0.103858
0.106509
0.109108
0.111647
0.114115
0.116504
0.118803
0.121006
0.123102
0.125083
0.126943
0.128674
0.13027
0.131727
0.13304
0.134207
0.135225
0.136094
0.136816
0.137391
0.137823
0.138117
0.138278
0.138313
0.13823
0.138037
0.137743
0.137357
0.136889
0.13635
0.135748
0.135093
0.134394
0.133657
0.132889
0.132101
0.131299
0.130418
0.129395
0.00342312
0.00303053
0.00269262
0.00238588
0.00208427
0.00178974
0.00150455
0.00122894
0.000963158
0.000707599
0.00046261
0.000228477
5.43934e-06
-0.000206314
-0.000406647
-0.000595482
-0.000772785
-0.000938562
-0.00109285
-0.00123573
-0.00136727
-0.00148757
-0.00159673
-0.00169484
-0.00178201
-0.00185832
-0.00192382
-0.00197857
-0.00202259
-0.00205588
-0.00207843
-0.00209019
-0.00209108
-0.002081
-0.00205983
-0.00202742
-0.0019836
-0.00192818
-0.00186093
-0.00178161
-0.00168994
-0.00158565
-0.00146844
-0.00133797
-0.0011939
-0.00103587
-0.000863505
-0.000676406
-0.000474157
-0.000256324
-2.24533e-05
0.000227926
0.000495301
0.000780179
0.00108308
0.00140456
0.00174517
0.00210551
0.00248618
0.00288784
0.00331112
0.00375671
0.00422533
0.0047177
0.00523458
0.00577676
0.00634507
0.00694033
0.00756345
0.00821532
0.00889688
0.00960911
0.010353
0.0111296
0.01194
0.0127852
0.0136664
0.0145848
0.0155416
0.0165378
0.0175749
0.018654
0.0197764
0.0209434
0.0221562
0.0234161
0.0247245
0.0260826
0.0274917
0.0289529
0.0304674
0.0320364
0.0336609
0.035342
0.0370805
0.0388771
0.0407326
0.0426473
0.0446218
0.046656
0.04875
0.0509033
0.0531155
0.0553857
0.0577126
0.0600949
0.0625305
0.0650173
0.0675525
0.070133
0.0727552
0.0754151
0.0781081
0.0808292
0.0835728
0.0863328
0.0891027
0.0918753
0.0946433
0.0973985
0.100133
0.102837
0.105502
0.108119
0.110678
0.113171
0.115586
0.117915
0.120148
0.122278
0.124294
0.12619
0.127957
0.129591
0.131085
0.132434
0.133636
0.134688
0.135589
0.13634
0.136942
0.137398
0.137711
0.137889
0.137935
0.137859
0.137668
0.13737
0.136975
0.136493
0.135933
0.135304
0.134616
0.133876
0.133092
0.132271
0.131421
0.130552
0.129591
0.128471
0.00380781
0.00336656
0.00299079
0.00265383
0.00232582
0.00200865
0.00170448
0.00141324
0.00113485
0.000869375
0.000616839
0.000377239
0.00015054
-6.33286e-05
-0.00026448
-0.000453058
-0.000629229
-0.000793184
-0.000945127
-0.00108527
-0.00121382
-0.00133097
-0.00143693
-0.00153187
-0.00161595
-0.0016893
-0.00175203
-0.00180421
-0.0018459
-0.00187712
-0.00189785
-0.00190805
-0.00190764
-0.00189653
-0.00187459
-0.00184165
-0.00179754
-0.00174205
-0.00167495
-0.00159598
-0.00150487
-0.00140134
-0.00128506
-0.00115571
-0.00101293
-0.000856377
-0.000685666
-0.000500405
-0.000300182
-8.45711e-05
0.000146868
0.000394594
0.00065908
0.000940815
0.0012403
0.00155806
0.00189463
0.00225058
0.0026265
0.00302298
0.00344065
0.00388016
0.00434219
0.00482742
0.00533658
0.00587043
0.00642973
0.0070153
0.00762798
0.00826863
0.00893816
0.0096375
0.0103676
0.0111295
0.0119241
0.0127527
0.0136162
0.0145158
0.0154527
0.016428
0.0174429
0.0184988
0.0195969
0.0207383
0.0219246
0.0231568
0.0244364
0.0257647
0.0271428
0.0285722
0.030054
0.0315895
0.0331797
0.0348258
0.0365288
0.0382895
0.0401087
0.041987
0.043925
0.045923
0.0479809
0.0500988
0.0522761
0.0545124
0.0568065
0.0591572
0.0615628
0.0640213
0.0665302
0.0690865
0.071687
0.0743278
0.0770046
0.0797124
0.0824458
0.0851991
0.0879657
0.0907387
0.0935106
0.0962735
0.099019
0.101738
0.104423
0.107062
0.109647
0.112168
0.114616
0.11698
0.11925
0.121419
0.123476
0.125414
0.127224
0.128901
0.130437
0.131829
0.133072
0.134163
0.1351
0.135885
0.136517
0.137
0.137336
0.137531
0.137591
0.137522
0.137333
0.137032
0.136627
0.136129
0.135547
0.134889
0.134166
0.133384
0.132552
0.131675
0.130765
0.12983
0.128792
0.127577
0.00417902
0.00368932
0.00327563
0.00290816
0.00255332
0.00221293
0.00188913
0.00158153
0.00128973
0.00101347
0.000752503
0.000506545
0.00027529
5.84131e-05
-0.000144434
-0.000333611
-0.000509481
-0.000672417
-0.000822781
-0.000960923
-0.00108718
-0.00120185
-0.00130523
-0.00139758
-0.00147912
-0.00155003
-0.00161047
-0.00166054
-0.00170034
-0.00172987
-0.00174916
-0.00175815
-0.00175679
-0.00174496
-0.00172254
-0.00168936
-0.00164524
-0.00158995
-0.00152327
-0.00144492
-0.00135464
-0.00125211
-0.00113704
-0.00100907
-0.000867872
-0.000713083
-0.000544327
-0.000361217
-0.000163351
4.96864e-05
0.000278323
0.000523001
0.000784179
0.00106232
0.00135791
0.00167144
0.00200343
0.00235442
0.00272495
0.00311561
0.00352697
0.00395965
0.00441429
0.00489154
0.0053921
0.00591666
0.00646597
0.00704079
0.00764192
0.00827019
0.00892647
0.00961163
0.0103266
0.0110724
0.0118499
0.0126603
0.0135045
0.0143837
0.015299
0.0162517
0.0172428
0.0182737
0.0193455
0.0204597
0.0216174
0.02282
0.0240689
0.0253654
0.0267107
0.0281063
0.0295535
0.0310535
0.0326075
0.0342168
0.0358825
0.0376054
0.0393867
0.041227
0.043127
0.0450872
0.0471078
0.0491889
0.0513304
0.0535317
0.0557922
0.0581107
0.0604858
0.0629158
0.0653983
0.0679307
0.0705099
0.0731323
0.0757937
0.0784894
0.0812143
0.0839626
0.086728
0.0895037
0.0922823
0.095056
0.0978164
0.100555
0.103262
0.105928
0.108544
0.111099
0.113584
0.115988
0.118301
0.120515
0.122619
0.124605
0.126465
0.12819
0.129776
0.131216
0.132505
0.13364
0.13462
0.135443
0.13611
0.136623
0.136986
0.137201
0.137276
0.137217
0.137031
0.136726
0.136312
0.135798
0.135192
0.134505
0.133745
0.132921
0.132039
0.131107
0.130136
0.129137
0.128023
0.126719
0.00453213
0.00399424
0.00354269
0.00314457
0.00276262
0.00239862
0.00205471
0.00173018
0.00142432
0.00113659
0.000866479
0.00061342
0.00037685
0.000156199
-4.9107e-05
-0.000239637
-0.000415953
-0.000578598
-0.000728085
-0.000864903
-0.00098951
-0.00110233
-0.00120373
-0.00129405
-0.00137358
-0.00144257
-0.0015012
-0.00154962
-0.00158792
-0.00161618
-0.00163439
-0.00164254
-0.00164054
-0.00162831
-0.00160571
-0.00157258
-0.00152871
-0.00147388
-0.00140786
-0.00133038
-0.00124116
-0.00113989
-0.00102625
-0.00089991
-0.000760534
-0.000607762
-0.000441223
-0.000260539
-6.53178e-05
0.00014484
0.000370349
0.000611635
0.000869133
0.00114329
0.00143456
0.00174341
0.00207033
0.00241583
0.00278042
0.00316464
0.00356904
0.00399421
0.00444073
0.00490923
0.00540034
0.00591474
0.00645311
0.00701619
0.00760474
0.00821953
0.00886139
0.00953117
0.0102298
0.0109581
0.0117171
0.0125078
0.0133313
0.0141885
0.0150808
0.0160091
0.0169747
0.0179788
0.0190227
0.0201077
0.0212351
0.0224062
0.0236224
0.0248852
0.0261958
0.0275557
0.0289663
0.0304289
0.0319448
0.0335154
0.0351419
0.0368253
0.0385668
0.0403674
0.0422277
0.0441486
0.0461304
0.0481734
0.0502777
0.052443
0.0546688
0.0569543
0.0592983
0.0616991
0.064155
0.0666633
0.0692213
0.0718255
0.0744721
0.0771565
0.0798739
0.0826186
0.0853845
0.0881649
0.0909526
0.0937397
0.096518
0.0992785
0.102012
0.104709
0.10736
0.109954
0.112481
0.11493
0.117292
0.119557
0.121714
0.123754
0.125669
0.127451
0.129091
0.130585
0.131927
0.133113
0.13414
0.135007
0.135714
0.136262
0.136654
0.136894
0.136987
0.136939
0.136758
0.136452
0.136029
0.135499
0.13487
0.134153
0.133356
0.132489
0.131558
0.130571
0.12954
0.128476
0.12729
0.125899
0.0048627
0.00427697
0.00378768
0.00335888
0.00294966
0.00256181
0.00219743
0.00185555
0.00153514
0.00123541
0.000955574
0.000694804
0.000452285
0.00022721
1.87857e-05
-0.000173765
-0.000351187
-0.000514187
-0.000663433
-0.000799551
-0.000923119
-0.00103466
-0.00113464
-0.00122348
-0.00130152
-0.00136906
-0.00142634
-0.00147353
-0.00151077
-0.00153813
-0.00155563
-0.00156326
-0.00156096
-0.00154862
-0.00152612
-0.00149329
-0.00144992
-0.00139579
-0.00133066
-0.00125426
-0.0011663
-0.00106648
-0.000954481
-0.000829978
-0.000692628
-0.000542081
-0.000377974
-0.000199942
-7.60563e-06
0.00019942
0.000421533
0.000659136
0.000912642
0.00118247
0.00146905
0.00177283
0.00209426
0.00243381
0.00279196
0.00316921
0.00356608
0.00398311
0.00442085
0.00487988
0.00536079
0.0058642
0.00639078