/*--------------------------------*- C++ -*----------------------------------*\
  =========                 |
  \\      /  F ield         | OpenFOAM: The Open Source CFD Toolbox
   \\    /   O peration     | Website:  https://openfoam.org
    \\  /    A nd           | Version:  7
     \\/     M anipulation  |
\*---------------------------------------------------------------------------*/
FoamFile
{
    version     2.0;
    format      ascii;
    class       volVectorField;
    location    "0.45";
    object      U;
}
// * * * * * * * * * * * * * * * * * * * * * * * * * * * * * * * * * * * * * //

dimensions      [0 1 -1 0 0 0 0];

internalField   nonuniform List<vector> 
12800
(
(3.35989e-06 -3.1614e-06 0)
(1.82348e-05 -9.60229e-06 0)
(4.41456e-05 -1.19633e-05 0)
(7.04206e-05 -1.10844e-05 0)
(9.05746e-05 -8.43576e-06 0)
(0.000101172 -4.88956e-06 0)
(0.000100424 -9.4856e-07 0)
(8.74787e-05 3.09044e-06 0)
(6.21278e-05 7.05839e-06 0)
(2.45841e-05 1.08545e-05 0)
(-2.47011e-05 1.4416e-05 0)
(-8.50916e-05 1.7724e-05 0)
(-0.000155841 2.07578e-05 0)
(-0.000236169 2.35152e-05 0)
(-0.000325265 2.60001e-05 0)
(-0.00042232 2.82225e-05 0)
(-0.000526547 3.01962e-05 0)
(-0.000637186 3.19356e-05 0)
(-0.00075352 3.34574e-05 0)
(-0.000874877 3.47793e-05 0)
(-0.00100063 3.59188e-05 0)
(-0.00113022 3.68938e-05 0)
(-0.00126311 3.77221e-05 0)
(-0.00139884 3.84197e-05 0)
(-0.001537 3.90021e-05 0)
(-0.00167721 3.94852e-05 0)
(-0.00181916 3.98833e-05 0)
(-0.00196256 4.02094e-05 0)
(-0.00210718 4.04755e-05 0)
(-0.00225281 4.06928e-05 0)
(-0.00239931 4.08711e-05 0)
(-0.00254653 4.10197e-05 0)
(-0.00269437 4.11472e-05 0)
(-0.00284277 4.12613e-05 0)
(-0.00299166 4.13685e-05 0)
(-0.00314102 4.14741e-05 0)
(-0.00329085 4.15832e-05 0)
(-0.00344115 4.17004e-05 0)
(-0.00359193 4.18295e-05 0)
(-0.00374325 4.19741e-05 0)
(-0.00389513 4.21371e-05 0)
(-0.00404765 4.2321e-05 0)
(-0.00420086 4.25276e-05 0)
(-0.00435483 4.27582e-05 0)
(-0.00450965 4.30144e-05 0)
(-0.0046654 4.32975e-05 0)
(-0.00482215 4.36084e-05 0)
(-0.00498001 4.39477e-05 0)
(-0.00513905 4.43159e-05 0)
(-0.00529938 4.47132e-05 0)
(-0.00546109 4.51396e-05 0)
(-0.00562426 4.55948e-05 0)
(-0.005789 4.60788e-05 0)
(-0.0059554 4.65915e-05 0)
(-0.00612354 4.71322e-05 0)
(-0.00629351 4.77002e-05 0)
(-0.00646541 4.82947e-05 0)
(-0.0066393 4.89149e-05 0)
(-0.00681527 4.95598e-05 0)
(-0.0069934 5.02281e-05 0)
(-0.00717374 5.09181e-05 0)
(-0.00735637 5.1628e-05 0)
(-0.00754134 5.23561e-05 0)
(-0.00772869 5.31003e-05 0)
(-0.00791847 5.38585e-05 0)
(-0.00811071 5.46282e-05 0)
(-0.00830543 5.54063e-05 0)
(-0.00850263 5.61899e-05 0)
(-0.00870233 5.69753e-05 0)
(-0.00890449 5.77589e-05 0)
(-0.0091091 5.85366e-05 0)
(-0.0093161 5.9304e-05 0)
(-0.00952544 6.00565e-05 0)
(-0.00973704 6.07889e-05 0)
(-0.0099508 6.14956e-05 0)
(-0.0101666 6.21703e-05 0)
(-0.0103843 6.28065e-05 0)
(-0.0106037 6.33975e-05 0)
(-0.0108247 6.39361e-05 0)
(-0.011047 6.44147e-05 0)
(-0.0112704 6.4825e-05 0)
(-0.0114947 6.51581e-05 0)
(-0.0117194 6.54044e-05 0)
(-0.0119443 6.55543e-05 0)
(-0.0121691 6.55977e-05 0)
(-0.0123932 6.55243e-05 0)
(-0.0126163 6.53229e-05 0)
(-0.0128379 6.49821e-05 0)
(-0.0130575 6.44898e-05 0)
(-0.0132745 6.38338e-05 0)
(-0.0134883 6.30018e-05 0)
(-0.0136984 6.1981e-05 0)
(-0.0139039 6.07586e-05 0)
(-0.0141042 5.93217e-05 0)
(-0.0142986 5.76572e-05 0)
(-0.0144862 5.57522e-05 0)
(-0.0146662 5.3594e-05 0)
(-0.0148377 5.11703e-05 0)
(-0.0149998 4.84694e-05 0)
(-0.0151515 4.548e-05 0)
(-0.015292 4.21918e-05 0)
(-0.0154201 3.85954e-05 0)
(-0.0155348 3.46825e-05 0)
(-0.015635 3.04463e-05 0)
(-0.0157198 2.58818e-05 0)
(-0.015788 2.09856e-05 0)
(-0.0158386 1.57568e-05 0)
(-0.0158704 1.01963e-05 0)
(-0.0158824 4.3079e-06 0)
(-0.0158736 -1.90136e-06 0)
(-0.015843 -8.42235e-06 0)
(-0.0157896 -1.52419e-05 0)
(-0.0157126 -2.23433e-05 0)
(-0.015611 -2.9706e-05 0)
(-0.0154841 -3.73059e-05 0)
(-0.0153312 -4.51144e-05 0)
(-0.0151519 -5.3099e-05 0)
(-0.0149456 -6.12229e-05 0)
(-0.014712 -6.94449e-05 0)
(-0.0144509 -7.77196e-05 0)
(-0.0141624 -8.59976e-05 0)
(-0.0138465 -9.42253e-05 0)
(-0.0135037 -0.000102346 0)
(-0.0131344 -0.000110299 0)
(-0.0127393 -0.000118021 0)
(-0.0123195 -0.000125447 0)
(-0.011876 -0.000132508 0)
(-0.0114101 -0.000139138 0)
(-0.0109236 -0.000145265 0)
(-0.0104181 -0.000150823 0)
(-0.00989573 -0.000155743 0)
(-0.00935865 -0.000159961 0)
(-0.00880931 -0.000163414 0)
(-0.00825031 -0.000166045 0)
(-0.00768445 -0.000167799 0)
(-0.00711468 -0.000168629 0)
(-0.00654407 -0.000168493 0)
(-0.00597584 -0.000167357 0)
(-0.00541328 -0.000165195 0)
(-0.00485976 -0.000161987 0)
(-0.00431868 -0.000157724 0)
(-0.00379346 -0.000152402 0)
(-0.00328752 -0.000146028 0)
(-0.00280421 -0.000138616 0)
(-0.00234684 -0.000130189 0)
(-0.00191858 -0.000120775 0)
(-0.0015225 -0.00011041 0)
(-0.0011615 -9.91374e-05 0)
(-0.000838276 -8.70072e-05 0)
(-0.000555305 -7.40785e-05 0)
(-0.000314761 -6.04241e-05 0)
(-0.000118452 -4.614e-05 0)
(3.22905e-05 -3.13645e-05 0)
(0.000136816 -1.63162e-05 0)
(0.00019548 -1.3746e-06 0)
(0.000210207 1.27623e-05 0)
(0.000185345 2.48097e-05 0)
(0.000129548 3.22926e-05 0)
(6.15923e-05 3.06038e-05 0)
(1.39158e-05 1.39371e-05 0)
(9.87847e-06 -1.82892e-05 0)
(4.20146e-05 -4.16414e-05 0)
(8.86529e-05 -4.79887e-05 0)
(0.000131347 -4.12293e-05 0)
(0.000157589 -2.61438e-05 0)
(0.000159996 -6.11522e-06 0)
(0.000133937 1.65691e-05 0)
(7.68213e-05 4.03756e-05 0)
(-1.24035e-05 6.42897e-05 0)
(-0.000133693 8.76389e-05 0)
(-0.000286243 0.000109978 0)
(-0.000468725 0.000131046 0)
(-0.000679459 0.000150667 0)
(-0.00091656 0.000168754 0)
(-0.00117802 0.000185279 0)
(-0.0014618 0.000200254 0)
(-0.00176584 0.000213723 0)
(-0.00208817 0.00022575 0)
(-0.00242688 0.000236416 0)
(-0.00278014 0.00024581 0)
(-0.00314628 0.000254029 0)
(-0.00352372 0.000261173 0)
(-0.00391102 0.000267342 0)
(-0.00430688 0.000272636 0)
(-0.00471012 0.00027715 0)
(-0.00511969 0.000280979 0)
(-0.00553466 0.000284211 0)
(-0.00595424 0.000286929 0)
(-0.00637772 0.000289212 0)
(-0.00680452 0.000291133 0)
(-0.00723415 0.000292757 0)
(-0.00766619 0.000294147 0)
(-0.00810034 0.000295358 0)
(-0.00853635 0.000296442 0)
(-0.00897405 0.000297442 0)
(-0.00941333 0.0002984 0)
(-0.00985411 0.000299352 0)
(-0.0102964 0.000300329 0)
(-0.0107403 0.000301358 0)
(-0.0111857 0.000302465 0)
(-0.0116329 0.000303671 0)
(-0.0120819 0.000304995 0)
(-0.012533 0.00030645 0)
(-0.0129863 0.000308049 0)
(-0.0134419 0.000309804 0)
(-0.0139002 0.000311723 0)
(-0.0143614 0.000313812 0)
(-0.0148256 0.000316078 0)
(-0.0152932 0.000318525 0)
(-0.0157643 0.000321153 0)
(-0.0162392 0.000323965 0)
(-0.0167182 0.000326959 0)
(-0.0172016 0.000330134 0)
(-0.0176895 0.000333487 0)
(-0.0181822 0.000337016 0)
(-0.0186799 0.000340714 0)
(-0.019183 0.000344576 0)
(-0.0196915 0.000348595 0)
(-0.0202057 0.000352761 0)
(-0.0207258 0.000357065 0)
(-0.0212519 0.000361496 0)
(-0.0217842 0.000366041 0)
(-0.0223229 0.000370686 0)
(-0.022868 0.000375415 0)
(-0.0234197 0.000380211 0)
(-0.023978 0.000385055 0)
(-0.0245429 0.000389925 0)
(-0.0251144 0.0003948 0)
(-0.0256926 0.000399653 0)
(-0.0262772 0.000404458 0)
(-0.0268683 0.000409184 0)
(-0.0274656 0.0004138 0)
(-0.0280689 0.000418273 0)
(-0.0286779 0.000422565 0)
(-0.0292924 0.000426636 0)
(-0.029912 0.000430445 0)
(-0.0305361 0.000433947 0)
(-0.0311644 0.000437093 0)
(-0.0317962 0.000439833 0)
(-0.0324309 0.000442114 0)
(-0.0330676 0.000443879 0)
(-0.0337057 0.000445069 0)
(-0.0343443 0.000445621 0)
(-0.0349822 0.000445471 0)
(-0.0356184 0.00044455 0)
(-0.0362518 0.000442788 0)
(-0.036881 0.000440114 0)
(-0.0375047 0.000436451 0)
(-0.0381213 0.000431723 0)
(-0.0387293 0.000425852 0)
(-0.039327 0.000418757 0)
(-0.0399124 0.000410359 0)
(-0.0404837 0.000400576 0)
(-0.0410389 0.000389327 0)
(-0.0415758 0.000376533 0)
(-0.042092 0.000362115 0)
(-0.0425853 0.000345997 0)
(-0.0430532 0.000328105 0)
(-0.0434932 0.00030837 0)
(-0.0439025 0.00028673 0)
(-0.0442785 0.000263125 0)
(-0.0446183 0.000237506 0)
(-0.0449192 0.00020983 0)
(-0.0451782 0.000180065 0)
(-0.0453924 0.000148191 0)
(-0.0455589 0.0001142 0)
(-0.0456747 7.80968e-05 0)
(-0.0457371 3.99041e-05 0)
(-0.0457431 -3.39866e-07 0)
(-0.04569 -4.25777e-05 0)
(-0.0455751 -8.67329e-05 0)
(-0.0453959 -0.000132707 0)
(-0.04515 -0.00018038 0)
(-0.0448354 -0.000229607 0)
(-0.0444499 -0.000280221 0)
(-0.043992 -0.000332026 0)
(-0.0434603 -0.000384804 0)
(-0.0428537 -0.000438311 0)
(-0.0421716 -0.000492274 0)
(-0.0414135 -0.000546399 0)
(-0.0405797 -0.000600366 0)
(-0.0396707 -0.00065383 0)
(-0.0386876 -0.000706429 0)
(-0.037632 -0.000757779 0)
(-0.0365061 -0.000807481 0)
(-0.0353126 -0.000855123 0)
(-0.0340546 -0.000900282 0)
(-0.0327361 -0.000942532 0)
(-0.0313614 -0.000981445 0)
(-0.0299356 -0.0010166 0)
(-0.0284643 -0.00104757 0)
(-0.0269535 -0.00107397 0)
(-0.02541 -0.00109541 0)
(-0.0238409 -0.00111153 0)
(-0.0222538 -0.00112202 0)
(-0.0206567 -0.00112657 0)
(-0.0190581 -0.00112495 0)
(-0.0174666 -0.00111694 0)
(-0.0158911 -0.00110238 0)
(-0.0143409 -0.00108118 0)
(-0.0128251 -0.00105327 0)
(-0.0113529 -0.00101867 0)
(-0.00993352 -0.000977425 0)
(-0.00857602 -0.000929659 0)
(-0.00728919 -0.000875546 0)
(-0.00608155 -0.00081532 0)
(-0.00496117 -0.000749278 0)
(-0.00393564 -0.000677785 0)
(-0.00301191 -0.000601288 0)
(-0.00219615 -0.000520331 0)
(-0.00149356 -0.000435599 0)
(-0.000908133 -0.000347979 0)
(-0.000442265 -0.000258676 0)
(-9.62455e-05 -0.000169398 0)
(0.00013256 -8.2703e-05 0)
(0.000250909 -2.5489e-06 0)
(0.000271164 6.47997e-05 0)
(0.000213788 0.000109299 0)
(0.00011485 0.000115105 0)
(3.04183e-05 6.14717e-05 0)
(1.21532e-05 -4.43425e-05 0)
(4.84588e-05 -8.85303e-05 0)
(9.57038e-05 -9.50989e-05 0)
(0.000131102 -7.36163e-05 0)
(0.000139525 -3.29022e-05 0)
(0.00011151 2.01282e-05 0)
(4.07327e-05 8.03572e-05 0)
(-7.66252e-05 0.000144092 0)
(-0.000242333 0.000208708 0)
(-0.000456617 0.000272372 0)
(-0.000718578 0.000333814 0)
(-0.0010265 0.000392187 0)
(-0.00137808 0.000446942 0)
(-0.00177068 0.000497756 0)
(-0.00220139 0.000544477 0)
(-0.00266722 0.000587078 0)
(-0.00316514 0.000625626 0)
(-0.00369217 0.000660255 0)
(-0.00424541 0.00069115 0)
(-0.00482211 0.000718531 0)
(-0.00541965 0.000742642 0)
(-0.00603561 0.000763741 0)
(-0.00666775 0.000782091 0)
(-0.00731402 0.000797955 0)
(-0.00797255 0.000811595 0)
(-0.00864168 0.000823264 0)
(-0.00931994 0.000833203 0)
(-0.010006 0.000841645 0)
(-0.0106988 0.000848807 0)
(-0.0113973 0.000854891 0)
(-0.0121008 0.000860085 0)
(-0.0128084 0.000864564 0)
(-0.0135198 0.000868486 0)
(-0.0142345 0.000871995 0)
(-0.0149522 0.00087522 0)
(-0.0156726 0.000878279 0)
(-0.0163956 0.000881277 0)
(-0.0171212 0.000884307 0)
(-0.0178494 0.000887449 0)
(-0.0185804 0.000890775 0)
(-0.0193141 0.000894349 0)
(-0.0200509 0.000898224 0)
(-0.020791 0.000902445 0)
(-0.0215345 0.000907051 0)
(-0.0222819 0.000912075 0)
(-0.0230334 0.000917543 0)
(-0.0237894 0.000923476 0)
(-0.0245503 0.000929889 0)
(-0.0253163 0.000936795 0)
(-0.026088 0.000944201 0)
(-0.0268655 0.000952109 0)
(-0.0276494 0.000960517 0)
(-0.0284401 0.000969423 0)
(-0.0292378 0.000978818 0)
(-0.0300429 0.000988691 0)
(-0.0308559 0.000999026 0)
(-0.031677 0.00100981 0)
(-0.0325066 0.00102101 0)
(-0.0333449 0.0010326 0)
(-0.0341923 0.00104456 0)
(-0.035049 0.00105686 0)
(-0.0359152 0.00106945 0)
(-0.0367911 0.00108229 0)
(-0.0376768 0.00109533 0)
(-0.0385725 0.00110852 0)
(-0.0394783 0.00112181 0)
(-0.040394 0.00113513 0)
(-0.0413198 0.00114842 0)
(-0.0422554 0.0011616 0)
(-0.0432008 0.00117458 0)
(-0.0441556 0.00118729 0)
(-0.0451196 0.00119962 0)
(-0.0460924 0.00121148 0)
(-0.0470736 0.00122277 0)
(-0.0480625 0.00123335 0)
(-0.0490584 0.00124312 0)
(-0.0500608 0.00125195 0)
(-0.0510686 0.00125969 0)
(-0.0520808 0.00126619 0)
(-0.0530965 0.00127132 0)
(-0.0541143 0.00127489 0)
(-0.0551329 0.00127675 0)
(-0.0561508 0.00127671 0)
(-0.0571664 0.00127459 0)
(-0.0581778 0.00127021 0)
(-0.0591832 0.00126335 0)
(-0.0601803 0.00125382 0)
(-0.0611671 0.00124141 0)
(-0.062141 0.0012259 0)
(-0.0630994 0.00120708 0)
(-0.0640396 0.00118472 0)
(-0.0649587 0.0011586 0)
(-0.0658536 0.00112849 0)
(-0.066721 0.00109419 0)
(-0.0675575 0.00105547 0)
(-0.0683594 0.00101212 0)
(-0.0691231 0.000963936 0)
(-0.0698447 0.000910722 0)
(-0.0705201 0.000852298 0)
(-0.0711453 0.000788499 0)
(-0.0717158 0.000719176 0)
(-0.0722275 0.000644204 0)
(-0.0726758 0.000563483 0)
(-0.0730563 0.000476939 0)
(-0.0733645 0.000384533 0)
(-0.0735959 0.000286263 0)
(-0.073746 0.000182164 0)
(-0.0738105 7.23163e-05 0)
(-0.0737849 -4.31513e-05 0)
(-0.0736651 -0.00016406 0)
(-0.0734471 -0.000290174 0)
(-0.0731272 -0.000421202 0)
(-0.0727018 -0.000556787 0)
(-0.0721677 -0.000696511 0)
(-0.071522 -0.000839888 0)
(-0.0707625 -0.000986365 0)
(-0.069887 -0.00113532 0)
(-0.0688942 -0.00128605 0)
(-0.0677831 -0.00143781 0)
(-0.0665535 -0.00158977 0)
(-0.0652059 -0.00174102 0)
(-0.0637413 -0.00189063 0)
(-0.0621616 -0.00203758 0)
(-0.0604695 -0.00218081 0)
(-0.0586683 -0.00231923 0)
(-0.0567626 -0.0024517 0)
(-0.0547574 -0.00257707 0)
(-0.0526589 -0.00269416 0)
(-0.0504739 -0.00280182 0)
(-0.0482104 -0.00289888 0)
(-0.045877 -0.00298421 0)
(-0.0434833 -0.00305673 0)
(-0.0410396 -0.00311541 0)
(-0.0385569 -0.00315927 0)
(-0.0360471 -0.00318744 0)
(-0.0335224 -0.00319913 0)
(-0.030996 -0.00319367 0)
(-0.0284811 -0.00317052 0)
(-0.0259915 -0.00312924 0)
(-0.0235412 -0.00306958 0)
(-0.0211444 -0.0029914 0)
(-0.0188151 -0.00289474 0)
(-0.0165674 -0.00277979 0)
(-0.0144152 -0.00264691 0)
(-0.0123719 -0.00249664 0)
(-0.0104502 -0.0023297 0)
(-0.00866258 -0.002147 0)
(-0.0070202 -0.00194968 0)
(-0.00553338 -0.00173914 0)
(-0.00421107 -0.0015171 0)
(-0.0030606 -0.0012857 0)
(-0.00208727 -0.00104773 0)
(-0.00129382 -0.000806808 0)
(-0.000679706 -0.000567895 0)
(-0.000240074 -0.000337932 0)
(3.55903e-05 -0.000126867 0)
(0.000164973 5.08381e-05 0)
(0.000175068 0.000174309 0)
(0.000109148 0.000213936 0)
(3.19795e-05 0.000129014 0)
(1.13594e-05 -7.10992e-05 0)
(4.19997e-05 -0.00013168 0)
(7.46354e-05 -0.000130656 0)
(8.53301e-05 -8.4438e-05 0)
(5.79675e-05 -6.38478e-06 0)
(-1.78528e-05 9.28029e-05 0)
(-0.000149284 0.000204862 0)
(-0.000340778 0.000323586 0)
(-0.000594516 0.000444396 0)
(-0.000910898 0.000563959 0)
(-0.00128896 0.000679894 0)
(-0.00172673 0.000790545 0)
(-0.00222149 0.000894803 0)
(-0.00276999 0.00099198 0)
(-0.00336869 0.00108171 0)
(-0.00401385 0.00116386 0)
(-0.00470166 0.0012385 0)
(-0.00542832 0.00130583 0)
(-0.00619015 0.00136614 0)
(-0.00698358 0.00141982 0)
(-0.00780524 0.00146729 0)
(-0.00865196 0.00150902 0)
(-0.0095208 0.00154548 0)
(-0.0104091 0.00157716 0)
(-0.0113143 0.00160454 0)
(-0.0122342 0.00162809 0)
(-0.0131669 0.00164827 0)
(-0.0141106 0.00166551 0)
(-0.0150638 0.00168022 0)
(-0.0160252 0.00169279 0)
(-0.0169936 0.00170358 0)
(-0.017968 0.00171293 0)
(-0.0189479 0.00172113 0)
(-0.0199324 0.00172847 0)
(-0.0209213 0.0017352 0)
(-0.0219141 0.00174154 0)
(-0.0229106 0.00174771 0)
(-0.0239108 0.00175388 0)
(-0.0249146 0.00176021 0)
(-0.0259221 0.00176685 0)
(-0.0269335 0.00177392 0)
(-0.027949 0.00178153 0)
(-0.0289689 0.00178976 0)
(-0.0299934 0.0017987 0)
(-0.0310231 0.00180841 0)
(-0.0320582 0.00181895 0)
(-0.0330991 0.00183035 0)
(-0.0341465 0.00184265 0)
(-0.0352006 0.00185587 0)
(-0.036262 0.00187002 0)
(-0.0373312 0.00188512 0)
(-0.0384087 0.00190116 0)
(-0.0394949 0.00191813 0)
(-0.0405903 0.00193602 0)
(-0.0416954 0.00195479 0)
(-0.0428106 0.00197443 0)
(-0.0439363 0.0019949 0)
(-0.045073 0.00201614 0)
(-0.0462211 0.00203811 0)
(-0.0473808 0.00206075 0)
(-0.0485525 0.00208398 0)
(-0.0497364 0.00210773 0)
(-0.0509328 0.00213192 0)
(-0.0521417 0.00215645 0)
(-0.0533634 0.00218121 0)
(-0.0545978 0.0022061 0)
(-0.0558449 0.00223098 0)
(-0.0571046 0.00225572 0)
(-0.0583767 0.00228017 0)
(-0.059661 0.00230417 0)
(-0.0609571 0.00232756 0)
(-0.0622644 0.00235013 0)
(-0.0635825 0.00237171 0)
(-0.0649105 0.00239207 0)
(-0.0662478 0.00241098 0)
(-0.0675933 0.00242822 0)
(-0.068946 0.00244352 0)
(-0.0703046 0.00245661 0)
(-0.0716678 0.00246721 0)
(-0.0730339 0.00247501 0)
(-0.0744013 0.00247972 0)
(-0.0757681 0.00248099 0)
(-0.0771322 0.00247849 0)
(-0.0784914 0.00247185 0)
(-0.0798431 0.00246072 0)
(-0.0811848 0.00244471 0)
(-0.0825135 0.00242343 0)
(-0.0838262 0.00239648 0)
(-0.0851196 0.00236345 0)
(-0.0863902 0.00232393 0)
(-0.0876342 0.00227751 0)
(-0.0888478 0.00222375 0)
(-0.0900267 0.00216226 0)
(-0.0911665 0.00209261 0)
(-0.0922628 0.0020144 0)
(-0.0933108 0.00192724 0)
(-0.0943053 0.00183076 0)
(-0.0952414 0.0017246 0)
(-0.0961137 0.00160843 0)
(-0.0969168 0.00148196 0)
(-0.097645 0.00134492 0)
(-0.0982926 0.0011971 0)
(-0.0988539 0.00103833 0)
(-0.099323 0.000868496 0)
(-0.0996941 0.000687552 0)
(-0.0999614 0.000495516 0)
(-0.100119 0.000292488 0)
(-0.100161 7.86472e-05 0)
(-0.100083 -0.000145733 0)
(-0.0998785 -0.000380283 0)
(-0.0995427 -0.000624528 0)
(-0.0990709 -0.000877884 0)
(-0.0984588 -0.00113965 0)
(-0.0977022 -0.00140901 0)
(-0.0967978 -0.00168501 0)
(-0.0957425 -0.00196659 0)
(-0.094534 -0.00225254 0)
(-0.0931707 -0.00254154 0)
(-0.0916517 -0.00283213 0)
(-0.0899768 -0.00312274 0)
(-0.0881469 -0.00341167 0)
(-0.0861636 -0.00369712 0)
(-0.0840295 -0.00397718 0)
(-0.0817483 -0.00424986 0)
(-0.0793248 -0.00451308 0)
(-0.0767648 -0.00476472 0)
(-0.0740751 -0.00500261 0)
(-0.071264 -0.00522456 0)
(-0.0683405 -0.00542838 0)
(-0.065315 -0.00561192 0)
(-0.0621988 -0.00577306 0)
(-0.0590045 -0.00590978 0)
(-0.0557455 -0.00602014 0)
(-0.0524362 -0.00610234 0)
(-0.049092 -0.00615475 0)
(-0.045729 -0.00617592 0)
(-0.042364 -0.00616459 0)
(-0.0390142 -0.00611976 0)
(-0.0356977 -0.00604064 0)
(-0.0324324 -0.00592676 0)
(-0.0292367 -0.0057779 0)
(-0.0261288 -0.00559416 0)
(-0.0231269 -0.00537594 0)
(-0.0202487 -0.00512399 0)
(-0.0175116 -0.00483939 0)
(-0.014932 -0.0045236 0)
(-0.0125255 -0.00417845 0)
(-0.0103065 -0.00380626 0)
(-0.00828793 -0.00340985 0)
(-0.0064808 -0.00299272 0)
(-0.00489405 -0.00255918 0)
(-0.00353388 -0.00211472 0)
(-0.0024032 -0.00166636 0)
(-0.00150079 -0.00122339 0)
(-0.00082032 -0.000798268 0)
(-0.000349084 -0.000408031 0)
(-6.66184e-05 -7.6167e-05 0)
(5.7027e-05 0.000165199 0)
(6.64313e-05 0.000272609 0)
(2.46575e-05 0.00018467 0)
(8.80525e-06 -9.17821e-05 0)
(2.70326e-05 -0.000158421 0)
(3.3654e-05 -0.000139076 0)
(6.21478e-06 -5.69498e-05 0)
(-7.10159e-05 6.99887e-05 0)
(-0.000208607 0.00022726 0)
(-0.000413875 0.000403448 0)
(-0.000691407 0.000589762 0)
(-0.00104347 0.000779535 0)
(-0.00147046 0.000967783 0)
(-0.0019713 0.00115085 0)
(-0.00254375 0.00132614 0)
(-0.00318475 0.00149183 0)
(-0.00389061 0.00164679 0)
(-0.00465725 0.00179033 0)
(-0.00548034 0.00192219 0)
(-0.00635544 0.00204238 0)
(-0.00727809 0.00215115 0)
(-0.00824395 0.00224891 0)
(-0.00924879 0.00233622 0)
(-0.0102886 0.00241371 0)
(-0.0113595 0.00248206 0)
(-0.0124581 0.00254201 0)
(-0.0135809 0.0025943 0)
(-0.0147252 0.00263967 0)
(-0.015888 0.00267887 0)
(-0.0170671 0.0027126 0)
(-0.0182602 0.00274155 0)
(-0.0194655 0.00276637 0)
(-0.0206813 0.00278767 0)
(-0.0219061 0.00280602 0)
(-0.0231389 0.00282196 0)
(-0.0243785 0.00283597 0)
(-0.0256244 0.0028485 0)
(-0.0268757 0.00285997 0)
(-0.0281322 0.00287073 0)
(-0.0293934 0.00288112 0)
(-0.0306593 0.00289143 0)
(-0.0319298 0.00290194 0)
(-0.0332049 0.00291287 0)
(-0.0344848 0.00292442 0)
(-0.0357697 0.00293677 0)
(-0.0370599 0.00295008 0)
(-0.0383559 0.00296446 0)
(-0.0396579 0.00298003 0)
(-0.0409666 0.00299687 0)
(-0.0422823 0.00301506 0)
(-0.0436056 0.00303466 0)
(-0.044937 0.00305569 0)
(-0.0462771 0.00307818 0)
(-0.0476265 0.00310215 0)
(-0.0489858 0.00312758 0)
(-0.0503554 0.00315448 0)
(-0.051736 0.0031828 0)
(-0.0531281 0.00321251 0)
(-0.0545321 0.00324356 0)
(-0.0559487 0.00327589 0)
(-0.0573783 0.00330941 0)
(-0.0588212 0.00334405 0)
(-0.0602779 0.0033797 0)
(-0.0617487 0.00341624 0)
(-0.0632339 0.00345355 0)
(-0.0647336 0.00349148 0)
(-0.0662481 0.00352988 0)
(-0.0677774 0.00356857 0)
(-0.0693215 0.00360737 0)
(-0.0708803 0.00364605 0)
(-0.0724537 0.00368441 0)
(-0.0740412 0.00372219 0)
(-0.0756426 0.00375914 0)
(-0.0772573 0.00379496 0)
(-0.0788846 0.00382936 0)
(-0.0805238 0.003862 0)
(-0.0821739 0.00389255 0)
(-0.0838338 0.00392064 0)
(-0.0855023 0.00394586 0)
(-0.087178 0.00396781 0)
(-0.0888593 0.00398605 0)
(-0.0905443 0.00400012 0)
(-0.0922312 0.00400954 0)
(-0.0939176 0.00401379 0)
(-0.0956013 0.00401236 0)
(-0.0972795 0.00400468 0)
(-0.0989494 0.0039902 0)
(-0.100608 0.00396831 0)
(-0.102252 0.00393842 0)
(-0.103877 0.00389991 0)
(-0.10548 0.00385213 0)
(-0.107058 0.00379445 0)
(-0.108604 0.00372621 0)
(-0.110115 0.00364675 0)
(-0.111586 0.00355542 0)
(-0.113012 0.00345156 0)
(-0.114388 0.00333455 0)
(-0.115707 0.00320374 0)
(-0.116964 0.00305853 0)
(-0.118153 0.00289836 0)
(-0.119268 0.00272267 0)
(-0.120302 0.00253098 0)
(-0.121249 0.00232284 0)
(-0.122101 0.00209787 0)
(-0.122853 0.00185575 0)
(-0.123497 0.00159625 0)
(-0.124026 0.00131923 0)
(-0.124433 0.00102465 0)
(-0.124711 0.000712573 0)
(-0.124854 0.000383206 0)
(-0.124854 3.68691e-05 0)
(-0.124706 -0.000325964 0)
(-0.124402 -0.000704669 0)
(-0.123938 -0.00109845 0)
(-0.123307 -0.00150636 0)
(-0.122504 -0.00192724 0)
(-0.121525 -0.00235976 0)
(-0.120366 -0.00280239 0)
(-0.119024 -0.00325343 0)
(-0.117496 -0.00371094 0)
(-0.115779 -0.0041728 0)
(-0.113875 -0.00463671 0)
(-0.111781 -0.00510017 0)
(-0.109501 -0.00556048 0)
(-0.107035 -0.00601481 0)
(-0.104388 -0.00646014 0)
(-0.101564 -0.00689334 0)
(-0.0985681 -0.00731116 0)
(-0.0954086 -0.00771026 0)
(-0.0920935 -0.00808723 0)
(-0.0886326 -0.00843866 0)
(-0.0850371 -0.00876112 0)
(-0.0813193 -0.00905123 0)
(-0.0774931 -0.0093057 0)
(-0.0735733 -0.00952136 0)
(-0.0695761 -0.00969521 0)
(-0.0655189 -0.00982443 0)
(-0.0614199 -0.00990648 0)
(-0.0572984 -0.0099391 0)
(-0.0531744 -0.00992034 0)
(-0.0490686 -0.00984863 0)
(-0.0450023 -0.00972279 0)
(-0.0409971 -0.00954208 0)
(-0.0370748 -0.00930621 0)
(-0.0332571 -0.00901536 0)
(-0.0295656 -0.00867024 0)
(-0.0260214 -0.00827208 0)
(-0.0226449 -0.00782268 0)
(-0.0194557 -0.00732446 0)
(-0.0164722 -0.00678047 0)
(-0.0137111 -0.00619453 0)
(-0.0111877 -0.00557131 0)
(-0.00891455 -0.00491655 0)
(-0.00690203 -0.00423728 0)
(-0.00515709 -0.00354229 0)
(-0.00368291 -0.00284263 0)
(-0.00247808 -0.0021525 0)
(-0.00153571 -0.00149034 0)
(-0.000842331 -0.000880475 0)
(-0.000376782 -0.000355179 0)
(-0.000108725 4.29337e-05 0)
(3.42283e-06 0.00025787 0)
(1.32502e-05 0.0002108 0)
(5.29813e-06 -0.000102958 0)
(6.66944e-06 -0.000160875 0)
(-2.10218e-05 -0.000110005 0)
(-9.67831e-05 2.05356e-05 0)
(-0.00023488 0.000208445 0)
(-0.000445423 0.000435643 0)
(-0.000735368 0.000687679 0)
(-0.00110901 0.00095322 0)
(-0.0015684 0.0012235 0)
(-0.00211372 0.00149184 0)
(-0.00274364 0.00175325 0)
(-0.00345565 0.00200407 0)
(-0.00424634 0.00224174 0)
(-0.00511161 0.00246456 0)
(-0.00604694 0.00267151 0)
(-0.00704749 0.00286212 0)
(-0.0081083 0.00303633 0)
(-0.00922438 0.00319441 0)
(-0.0103908 0.00333689 0)
(-0.0116028 0.0034645 0)
(-0.0128558 0.00357807 0)
(-0.0141454 0.00367856 0)
(-0.0154676 0.00376697 0)
(-0.0168186 0.00384433 0)
(-0.018195 0.00391169 0)
(-0.0195936 0.00397008 0)
(-0.0210116 0.0040205 0)
(-0.0224465 0.00406392 0)
(-0.0238959 0.00410127 0)
(-0.0253581 0.00413343 0)
(-0.0268312 0.00416122 0)
(-0.028314 0.0041854 0)
(-0.0298051 0.00420668 0)
(-0.0313037 0.0042257 0)
(-0.0328089 0.00424305 0)
(-0.0343203 0.00425929 0)
(-0.0358375 0.00427487 0)
(-0.0373601 0.00429025 0)
(-0.0388881 0.00430581 0)
(-0.0404216 0.00432188 0)
(-0.0419606 0.00433876 0)
(-0.0435054 0.00435672 0)
(-0.0450563 0.00437598 0)
(-0.0466137 0.00439673 0)
(-0.048178 0.00441913 0)
(-0.0497498 0.00444331 0)
(-0.0513296 0.00446938 0)
(-0.052918 0.00449741 0)
(-0.0545155 0.00452747 0)
(-0.0561229 0.00455959 0)
(-0.0577406 0.00459379 0)
(-0.0593695 0.00463006 0)
(-0.06101 0.00466838 0)
(-0.0626628 0.00470871 0)
(-0.0643285 0.00475099 0)
(-0.0660077 0.00479514 0)
(-0.0677009 0.00484107 0)
(-0.0694086 0.00488866 0)
(-0.0711312 0.00493778 0)
(-0.0728691 0.00498827 0)
(-0.0746228 0.00503998 0)
(-0.0763924 0.00509269 0)
(-0.0781782 0.00514621 0)
(-0.0799803 0.00520028 0)
(-0.0817987 0.00525466 0)
(-0.0836333 0.00530906 0)
(-0.085484 0.00536317 0)
(-0.0873504 0.00541665 0)
(-0.0892322 0.00546915 0)
(-0.0911288 0.00552027 0)
(-0.0930396 0.00556959 0)
(-0.0949636 0.00561667 0)
(-0.0968999 0.00566103 0)
(-0.0988473 0.00570215 0)
(-0.100804 0.0057395 0)
(-0.10277 0.00577249 0)
(-0.104741 0.00580053 0)
(-0.106718 0.00582298 0)
(-0.108696 0.00583916 0)
(-0.110675 0.00584837 0)
(-0.112651 0.00584987 0)
(-0.114621 0.0058429 0)
(-0.116582 0.00582667 0)
(-0.118531 0.00580035 0)
(-0.120464 0.0057631 0)
(-0.122377 0.00571404 0)
(-0.124266 0.00565228 0)
(-0.126126 0.00557692 0)
(-0.127953 0.00548704 0)
(-0.129741 0.0053817 0)
(-0.131485 0.00525999 0)
(-0.13318 0.00512096 0)
(-0.134818 0.0049637 0)
(-0.136395 0.00478732 0)
(-0.137903 0.00459094 0)
(-0.139336 0.00437372 0)
(-0.140686 0.00413485 0)
(-0.141947 0.00387362 0)
(-0.143111 0.00358932 0)
(-0.144171 0.00328138 0)
(-0.145119 0.00294928 0)
(-0.145946 0.00259261 0)
(-0.146646 0.00221109 0)
(-0.14721 0.00180456 0)
(-0.14763 0.00137302 0)
(-0.147898 0.000916618 0)
(-0.148007 0.000435678 0)
(-0.14795 -6.92764e-05 0)
(-0.147718 -0.000597522 0)
(-0.147305 -0.00114811 0)
(-0.146705 -0.00171987 0)
(-0.145911 -0.00231138 0)
(-0.144918 -0.00292096 0)
(-0.14372 -0.00354667 0)
(-0.142314 -0.0041863 0)
(-0.140695 -0.00483736 0)
(-0.138862 -0.00549709 0)
(-0.136812 -0.00616244 0)
(-0.134545 -0.0068301 0)
(-0.132062 -0.00749651 0)
(-0.129362 -0.00815783 0)
(-0.126451 -0.00881001 0)
(-0.123331 -0.00944879 0)
(-0.120007 -0.0100697 0)
(-0.116488 -0.0106682 0)
(-0.112781 -0.0112394 0)
(-0.108896 -0.0117787 0)
(-0.104844 -0.0122811 0)
(-0.100639 -0.0127418 0)
(-0.0962931 -0.0131561 0)
(-0.0918235 -0.0135193 0)
(-0.0872468 -0.0138269 0)
(-0.0825816 -0.0140747 0)
(-0.0778474 -0.0142588 0)
(-0.0730651 -0.0143755 0)
(-0.0682566 -0.0144217 0)
(-0.0634447 -0.0143946 0)
(-0.0586529 -0.014292 0)
(-0.0539052 -0.0141124 0)
(-0.0492263 -0.0138545 0)
(-0.0446409 -0.0135182 0)
(-0.0401736 -0.0131036 0)
(-0.0358488 -0.0126119 0)
(-0.0316906 -0.0120449 0)
(-0.0277219 -0.0114053 0)
(-0.023965 -0.0106965 0)
(-0.0204405 -0.00992325 0)
(-0.0171674 -0.00909099 0)
(-0.0141625 -0.00820662 0)
(-0.0114403 -0.00727849 0)
(-0.00901216 -0.00631677 0)
(-0.00688595 -0.00533392 0)
(-0.00506543 -0.0043454 0)
(-0.00354958 -0.00337057 0)
(-0.00233183 -0.00243393 0)
(-0.00139926 -0.00156684 0)
(-0.000731623 -0.000809704 0)
(-0.000300181 -0.000214333 0)
(-6.93458e-05 0.000152842 0)
(3.33777e-07 0.000200274 0)
(1.28855e-06 -0.000102522 0)
(-1.70642e-05 -0.000133561 0)
(-8.49188e-05 -3.57345e-05 0)
(-0.000216567 0.000157053 0)
(-0.000423999 0.000418671 0)
(-0.000716355 0.000727762 0)
(-0.00109979 0.00106705 0)
(-0.00157797 0.0014228 0)
(-0.00215241 0.00178424 0)
(-0.00282288 0.00214301 0)
(-0.00358768 0.00249276 0)
(-0.00444391 0.00282879 0)
(-0.00538778 0.00314774 0)
(-0.00641481 0.00344732 0)
(-0.00752004 0.00372612 0)
(-0.00869819 0.00398345 0)
(-0.00994385 0.00421916 0)
(-0.0112515 0.00443352 0)
(-0.0126159 0.00462719 0)
(-0.0140316 0.00480103 0)
(-0.0154936 0.00495614 0)
(-0.0169972 0.00509372 0)
(-0.0185377 0.00521507 0)
(-0.0201111 0.00532154 0)
(-0.0217134 0.00541449 0)
(-0.0233412 0.00549529 0)
(-0.0249912 0.00556525 0)
(-0.0266605 0.00562567 0)
(-0.0283468 0.00567779 0)
(-0.0300476 0.00572276 0)
(-0.0317611 0.0057617 0)
(-0.0334858 0.00579562 0)
(-0.0352201 0.00582547 0)
(-0.036963 0.00585214 0)
(-0.0387135 0.00587642 0)
(-0.0404711 0.00589905 0)
(-0.0422352 0.00592067 0)
(-0.0440055 0.00594187 0)
(-0.0457819 0.0059632 0)
(-0.0475643 0.0059851 0)
(-0.0493528 0.006008 0)
(-0.0511476 0.00603225 0)
(-0.0529492 0.00605815 0)
(-0.0547578 0.00608598 0)
(-0.0565739 0.00611595 0)
(-0.0583982 0.00614824 0)
(-0.0602311 0.006183 0)
(-0.0620732 0.00622035 0)
(-0.0639253 0.00626035 0)
(-0.0657879 0.00630307 0)
(-0.0676619 0.00634853 0)
(-0.0695477 0.0063967 0)
(-0.0714461 0.00644758 0)
(-0.0733578 0.00650109 0)
(-0.0752834 0.00655716 0)
(-0.0772235 0.00661566 0)
(-0.0791786 0.00667648 0)
(-0.0811493 0.00673945 0)
(-0.083136 0.00680438 0)
(-0.0851392 0.00687107 0)
(-0.0871591 0.00693926 0)
(-0.089196 0.00700869 0)
(-0.0912502 0.00707906 0)
(-0.0933216 0.00715005 0)
(-0.0954102 0.00722128 0)
(-0.0975159 0.00729237 0)
(-0.0996384 0.00736289 0)
(-0.101777 0.00743238 0)
(-0.103932 0.00750032 0)
(-0.106102 0.00756619 0)
(-0.108286 0.00762941 0)
(-0.110484 0.00768936 0)
(-0.112693 0.00774538 0)
(-0.114913 0.00779677 0)
(-0.117143 0.00784279 0)
(-0.119379 0.00788266 0)
(-0.12162 0.00791554 0)
(-0.123864 0.00794058 0)
(-0.126109 0.00795685 0)
(-0.12835 0.0079634 0)
(-0.130586 0.00795924 0)
(-0.132813 0.00794333 0)
(-0.135028 0.0079146 0)
(-0.137225 0.00787195 0)
(-0.139402 0.00781423 0)
(-0.141553 0.00774028 0)
(-0.143674 0.00764891 0)
(-0.145759 0.0075389 0)
(-0.147804 0.00740904 0)
(-0.149801 0.00725808 0)
(-0.151746 0.00708481 0)
(-0.153631 0.006888 0)
(-0.155451 0.00666644 0)
(-0.157197 0.00641895 0)
(-0.158862 0.00614439 0)
(-0.16044 0.00584167 0)
(-0.161922 0.00550977 0)
(-0.1633 0.00514773 0)
(-0.164566 0.00475469 0)
(-0.165711 0.00432991 0)
(-0.166728 0.00387274 0)
(-0.167607 0.00338272 0)
(-0.168339 0.00285951 0)
(-0.168917 0.00230296 0)
(-0.169331 0.00171312 0)
(-0.169573 0.00109026 0)
(-0.169634 0.000434873 0)
(-0.169506 -0.000252281 0)
(-0.169182 -0.000970174 0)
(-0.168654 -0.00171749 0)
(-0.167914 -0.00249259 0)
(-0.166957 -0.00329354 0)
(-0.165776 -0.00411804 0)
(-0.164366 -0.00496346 0)
(-0.162722 -0.00582682 0)
(-0.160841 -0.00670476 0)
(-0.15872 -0.00759357 0)
(-0.156358 -0.00848918 0)
(-0.153754 -0.00938716 0)
(-0.150908 -0.0102828 0)
(-0.147822 -0.0111709 0)
(-0.144501 -0.0120461 0)
(-0.140947 -0.0129028 0)
(-0.137168 -0.0137351 0)
(-0.133172 -0.0145368 0)
(-0.128967 -0.0153017 0)
(-0.124565 -0.0160234 0)
(-0.119977 -0.0166956 0)
(-0.115218 -0.0173118 0)
(-0.110305 -0.0178657 0)
(-0.105253 -0.0183513 0)
(-0.100082 -0.0187625 0)
(-0.0948124 -0.0190939 0)
(-0.0894656 -0.0193401 0)
(-0.0840644 -0.0194965 0)
(-0.0786331 -0.0195588 0)
(-0.0731966 -0.0195234 0)
(-0.0677808 -0.0193874 0)