/*--------------------------------*- C++ -*----------------------------------*\
  =========                 |
  \\      /  F ield         | OpenFOAM: The Open Source CFD Toolbox
   \\    /   O peration     | Website:  https://openfoam.org
    \\  /    A nd           | Version:  7
     \\/     M anipulation  |
\*---------------------------------------------------------------------------*/
FoamFile
{
    version     2.0;
    format      ascii;
    class       volScalarField;
    location    "0.4875";
    object      p;
}
// * * * * * * * * * * * * * * * * * * * * * * * * * * * * * * * * * * * * * //

dimensions      [0 2 -2 0 0 0 0];

internalField   nonuniform List<scalar> 
12800
(
2.13071e-06
3.04963e-05
-2.63887e-06
-0.00010831
-0.0002788
-0.000504341
-0.000774428
-0.00107874
-0.00140786
-0.00175353
-0.00210874
-0.00246733
-0.0028243
-0.00317544
-0.00351732
-0.00384717
-0.00416281
-0.00446255
-0.00474515
-0.00500974
-0.00525573
-0.00548282
-0.00569091
-0.00588007
-0.00605049
-0.00620249
-0.00633645
-0.0064528
-0.006552
-0.00663452
-0.00670083
-0.00675139
-0.00678663
-0.00680695
-0.0068127
-0.00680421
-0.00678174
-0.00674551
-0.00669567
-0.00663233
-0.00655556
-0.00646535
-0.00636164
-0.00624432
-0.00611324
-0.00596819
-0.00580888
-0.00563502
-0.00544622
-0.00524207
-0.00502211
-0.00478582
-0.00453264
-0.00426194
-0.00397308
-0.00366533
-0.00333795
-0.00299011
-0.00262097
-0.00222962
-0.00181508
-0.00137635
-0.000912376
-0.000422027
9.58618e-05
0.000642514
0.00121921
0.00182727
0.00246809
0.0031431
0.00385379
0.0046017
0.00538842
0.00621558
0.00708488
0.00799803
0.00895679
0.00996297
0.0110184
0.0121249
0.0132844
0.0144987
0.0157698
0.0170995
0.0184896
0.019942
0.0214586
0.0230409
0.0246908
0.0264097
0.0281992
0.0300605
0.031995
0.0340036
0.0360873
0.0382465
0.0404819
0.0427934
0.045181
0.0476442
0.0501821
0.0527936
0.0554771
0.0582306
0.0610516
0.0639371
0.0668836
0.0698872
0.0729433
0.0760468
0.0791919
0.0823725
0.0855816
0.0888118
0.092055
0.0953028
0.098546
0.101775
0.10498
0.10815
0.111274
0.114342
0.117342
0.120263
0.123093
0.125822
0.128437
0.130929
0.133287
0.135501
0.137562
0.139463
0.141195
0.142752
0.14413
0.145324
0.146332
0.147154
0.147789
0.148241
0.148512
0.148609
0.148538
0.148309
0.147932
0.147419
0.146786
0.146047
0.14522
0.144326
0.143387
0.142426
0.141471
0.140552
0.139702
0.138958
0.13836
0.137947
0.137761
0.137788
-2.32578e-05
3.91336e-06
-3.09107e-05
-0.000127986
-0.00027844
-0.000475555
-0.000711837
-0.00097931
-0.00127034
-0.00157795
-0.00189596
-0.00221895
-0.00254228
-0.00286201
-0.00317485
-0.00347809
-0.00376952
-0.00404743
-0.00431046
-0.00455762
-0.00478819
-0.00500173
-0.00519797
-0.00537683
-0.00553835
-0.00568269
-0.00581009
-0.00592082
-0.00601522
-0.00609364
-0.00615643
-0.00620394
-0.0062365
-0.00625442
-0.00625797
-0.00624741
-0.00622292
-0.00618466
-0.00613275
-0.00606724
-0.00598816
-0.00589546
-0.00578906
-0.00566883
-0.00553459
-0.00538609
-0.00522308
-0.0050452
-0.0048521
-0.00464335
-0.00441847
-0.00417696
-0.00391826
-0.00364174
-0.00334677
-0.00303264
-0.00269859
-0.00234385
-0.00196756
-0.00156883
-0.00114674
-0.000700278
-0.000228422
0.000269916
0.000795875
0.00135064
0.00193545
0.00255159
0.00320039
0.00388325
0.00460159
0.0053569
0.0061507
0.00698456
0.00786009
0.00877893
0.00974277
0.0107533
0.0118123
0.0129215
0.0140827
0.0152976
0.016568
0.0178957
0.0192825
0.02073
0.0222398
0.0238137
0.0254531
0.0271595
0.0289341
0.0307784
0.0326932
0.0346796
0.0367382
0.0388696
0.041074
0.0433514
0.0457017
0.0481243
0.0506182
0.0531822
0.0558146
0.0585135
0.0612762
0.0640999
0.0669811
0.0699158
0.0728996
0.0759275
0.0789939
0.0820928
0.0852175
0.0883609
0.0915152
0.0946722
0.0978232
0.100959
0.10407
0.107146
0.110178
0.113154
0.116064
0.118897
0.121642
0.12429
0.126829
0.129249
0.131542
0.133697
0.135706
0.137563
0.139259
0.14079
0.142151
0.143339
0.144352
0.145188
0.14585
0.146338
0.146658
0.146815
0.146815
0.146667
0.146382
0.145972
0.14545
0.144831
0.144133
0.143374
0.142574
0.141757
0.140945
0.140166
0.139448
0.138821
0.138314
0.137957
0.137787
0.137815
1.05212e-05
3.89314e-05
3.82072e-06
-8.86407e-05
-0.000227742
-0.000407742
-0.000622581
-0.000865654
-0.00113053
-0.00141123
-0.00170231
-0.00199892
-0.00229686
-0.00259245
-0.00288262
-0.00316476
-0.00343675
-0.00369686
-0.00394372
-0.00417628
-0.00439377
-0.00459563
-0.00478153
-0.00495126
-0.00510477
-0.00524211
-0.00536341
-0.00546884
-0.00555865
-0.00563307
-0.00569238
-0.00573684
-0.0057667
-0.0057822
-0.00578356
-0.00577094
-0.0057445
-0.00570434
-0.00565052
-0.00558308
-0.00550199
-0.00540719
-0.00529856
-0.00517595
-0.00503916
-0.00488793
-0.00472199
-0.00454098
-0.00434453
-0.00413221
-0.00390356
-0.00365804
-0.00339511
-0.00311417
-0.00281456
-0.00249559
-0.00215653
-0.0017966
-0.00141496
-0.00101075
-0.000583043
-0.00013088
0.000346752
0.000850913
0.00138271
0.0019433
0.00253387
0.00315569
0.00381004
0.00449827
0.00522176
0.00598194
0.00678028
0.00761829
0.00849752
0.00941956
0.010386
0.0113985
0.0124588
0.0135684
0.0147291
0.0159426
0.0172105
0.0185346
0.0199164
0.0213577
0.0228599
0.0244245
0.0260531
0.0277469
0.0295072
0.0313351
0.0332315
0.0351974
0.0372333
0.0393396
0.0415166
0.0437642
0.0460821
0.0484697
0.050926
0.0534497
0.0560392
0.0586924
0.0614068
0.0641794
0.067007
0.0698856
0.0728108
0.0757778
0.0787812
0.081815
0.0848728
0.0879476
0.091032
0.0941181
0.0971973
0.100261
0.1033
0.106304
0.109265
0.112171
0.115012
0.117779
0.120461
0.123048
0.12553
0.127898
0.130142
0.132254
0.134226
0.136051
0.137723
0.139236
0.140586
0.14177
0.142787
0.143636
0.144318
0.144836
0.145193
0.145394
0.145448
0.145362
0.145146
0.144812
0.144372
0.143842
0.143237
0.142575
0.141875
0.141157
0.140444
0.139758
0.139124
0.138568
0.138114
0.137785
0.137616
0.13763
0.000116937
0.000136469
9.58014e-05
2.58548e-06
-0.000132428
-0.00030383
-0.000506245
-0.000733928
-0.000981305
-0.00124316
-0.0015147
-0.0017916
-0.00207005
-0.00234671
-0.00261872
-0.00288366
-0.0031395
-0.00338458
-0.00361757
-0.00383743
-0.00404334
-0.00423473
-0.0044112
-0.0045725
-0.00471849
-0.00484916
-0.00496455
-0.00506478
-0.00515
-0.0052204
-0.00527615
-0.00531747
-0.00534455
-0.00535755
-0.00535664
-0.00534193
-0.00531354
-0.00527152
-0.0052159
-0.00514667
-0.00506377
-0.00496712
-0.00485658
-0.00473197
-0.00459307
-0.00443962
-0.00427132
-0.00408782
-0.00388872
-0.00367361
-0.003442
-0.00319338
-0.0029272
-0.00264285
-0.0023397
-0.00201706
-0.00167421
-0.00131038
-0.000924746
-0.000516465
-8.46339e-05
0.000371691
0.000853497
0.00136182
0.00189773
0.00246236
0.00305688
0.0036825
0.00434047
0.0050321
0.00575873
0.00652174
0.00732255
0.00816263
0.00904347
0.00996659
0.0109336
0.0119459
0.0130053
0.0141133
0.0152716
0.0164817
0.0177453
0.019064
0.0204393
0.0218729
0.0233661
0.0249204
0.0265371
0.0282176
0.029963
0.0317743
0.0336525
0.0355983
0.0376123
0.0396948
0.041846
0.0440659
0.046354
0.0487097
0.0511321
0.0536198
0.0561712
0.0587842
0.0614565
0.0641851
0.0669667
0.0697974
0.0726731
0.075589
0.0785397
0.0815196
0.0845224
0.0875412
0.090569
0.0935979
0.0966197
0.099626
0.102608
0.105556
0.108461
0.111313
0.114102
0.116818
0.119452
0.121993
0.124433
0.126761
0.12897
0.13105
0.132995
0.134798
0.136452
0.137953
0.139297
0.140481
0.141503
0.142363
0.143062
0.143603
0.143989
0.144226
0.144321
0.144282
0.144118
0.143841
0.143463
0.142998
0.142461
0.141869
0.141238
0.140589
0.139941
0.139314
0.13873
0.138212
0.137778
0.137452
0.13726
0.137223
0.000289754
0.000288487
0.000234975
0.000135612
-6.804e-07
-0.000168899
-0.000364232
-0.000581681
-0.000816415
-0.00106389
-0.00131992
-0.00158069
-0.00184277
-0.00210319
-0.00235933
-0.00260897
-0.00285023
-0.00308155
-0.00330167
-0.00350958
-0.00370449
-0.0038858
-0.00405309
-0.00420607
-0.00434458
-0.00446854
-0.00457793
-0.00467282
-0.00475329
-0.00481947
-0.00487149
-0.0049095
-0.00493361
-0.00494396
-0.00494066
-0.00492377
-0.00489336
-0.00484945
-0.00479202
-0.00472104
-0.00463642
-0.00453804
-0.00442574
-0.00429933
-0.00415856
-0.00400317
-0.00383282
-0.00364718
-0.00344584
-0.00322836
-0.00299428
-0.00274308
-0.0024742
-0.00218705
-0.001881
-0.00155537
-0.00120945
-0.000842484
-0.000453673
-4.21801e-05
0.000392875
0.000852414
0.0013374
0.00184884
0.00238778
0.00295532
0.00355259
0.00418078
0.00484109
0.00553478
0.00626317
0.00702759
0.00782941
0.00867004
0.00955092
0.0104735
0.0114394
0.01245
0.0135068
0.0146115
0.0157656
0.0169707
0.0182282
0.0195398
0.0209069
0.022331
0.0238135
0.0253558
0.0269593
0.028625
0.0303541
0.0321476
0.0340064
0.0359311
0.0379224
0.0399804
0.0421054
0.0442973
0.0465556
0.0488797
0.0512687
0.0537213
0.0562359
0.0588104
0.0614424
0.0641292
0.0668675
0.0696536
0.0724834
0.0753521
0.0782547
0.0811856
0.0841387
0.0871074
0.0900847
0.093063
0.0960344
0.0989907
0.101923
0.104823
0.10768
0.110486
0.113231
0.115905
0.118499
0.121003
0.123408
0.125705
0.127885
0.129941
0.131866
0.133652
0.135294
0.136787
0.138127
0.139312
0.14034
0.141211
0.141926
0.142488
0.1429
0.143168
0.143298
0.143298
0.143178
0.142948
0.142621
0.142208
0.141725
0.141187
0.140611
0.140013
0.139411
0.138824
0.13827
0.137769
0.137337
0.136993
0.136756
0.136635
0.00052033
0.000489041
0.000416221
0.000305594
0.000163039
-6.91244e-06
-0.000199954
-0.000411786
-0.000638255
-0.000875436
-0.00111969
-0.00136767
-0.00161638
-0.00186317
-0.0021057
-0.00234198
-0.00257029
-0.0027892
-0.00299756
-0.0031944
-0.00337898
-0.00355074
-0.00370924
-0.00385418
-0.00398536
-0.00410269
-0.0042061
-0.00429562
-0.0043713
-0.00443319
-0.00448139
-0.00451598
-0.00453705
-0.00454469
-0.00453893
-0.00451983
-0.00448739
-0.00444161
-0.00438243
-0.00430978
-0.00422356
-0.0041236
-0.00400974
-0.00388175
-0.00373939
-0.00358235
-0.00341031
-0.0032229
-0.00301974
-0.00280036
-0.00256431
-0.00231106
-0.00204006
-0.00175074
-0.00144245
-0.00111454
-0.000766297
-0.000396991
-5.83579e-06
0.000407988
0.00084534
0.00130712
0.00179426
0.00230775
0.00284861
0.00341789
0.00401671
0.00464619
0.00530753
0.00600195
0.00673069
0.00749507
0.0082964
0.00913605
0.0100154
0.0109359
0.011899
0.0129061
0.0139588
0.0150584
0.0162066
0.0174048
0.0186546
0.0199573
0.0213144
0.0227274
0.0241977
0.0257264
0.027315
0.0289645
0.030676
0.0324504
0.0342887
0.0361913
0.038159
0.0401919
0.0422903
0.0444539
0.0466825
0.0489753
0.0513315
0.0537499
0.0562288
0.0587663
0.06136
0.0640074
0.0667051
0.0694496
0.0722369
0.0750624
0.0779213
0.080808
0.0837166
0.0866408
0.0895736
0.0925078
0.0954356
0.098349
0.101239
0.104098
0.106916
0.109684
0.112393
0.115033
0.117595
0.12007
0.122448
0.124721
0.12688
0.128919
0.130829
0.132604
0.134238
0.135727
0.137068
0.138256
0.139292
0.140175
0.140905
0.141486
0.141921
0.142216
0.142375
0.142409
0.142324
0.142132
0.141844
0.141473
0.141032
0.140535
0.139997
0.139434
0.138862
0.138298
0.137757
0.137256
0.136809
0.136433
0.136132
0.135906
0.00079925
0.000731354
0.000634006
0.000507601
0.000354322
0.000178205
-1.68867e-05
-0.000227308
-0.000449529
-0.000680193
-0.000916163
-0.00115456
-0.00139279
-0.00162851
-0.00185969
-0.00208456
-0.00230161
-0.00250955
-0.00270734
-0.00289411
-0.00306919
-0.00323203
-0.00338224
-0.00351952
-0.00364368
-0.00375458
-0.00385216
-0.0039364
-0.00400731
-0.00406494
-0.00410931
-0.0041405
-0.00415852
-0.00416343
-0.00415524
-0.00413395
-0.00409953
-0.00405195
-0.00399112
-0.00391694
-0.00382927
-0.00372794
-0.00361274
-0.00348344
-0.00333976
-0.00318142
-0.00300805
-0.0028193
-0.00261476
-0.00239398
-0.00215648
-0.00190175
-0.00162925
-0.00133839
-0.00102856
-0.000699095
-0.000349315
2.15085e-05
0.000414141
0.000829382
0.00126807
0.00173108
0.00221933
0.00273377
0.00327539
0.00384521
0.00444432
0.00507382
0.00573484
0.00642858
0.00715624
0.00791909
0.00871841
0.00955551
0.0104317
0.0113485
0.0123071
0.0133091
0.0143557
0.0154486
0.0165892
0.0177788
0.0190189
0.0203111
0.0216565
0.0230567
0.024513
0.0260266
0.0275987
0.0292305
0.030923
0.0326772
0.0344937
0.0363734
0.0383167
0.0403239
0.0423951
0.0445303
0.0467291
0.048991
0.051315
0.0537
0.0561444
0.0586464
0.0612038
0.0638139
0.0664736
0.0691796
0.0719279
0.0747142
0.0775336
0.0803808
0.0832501
0.0861352
0.0890295
0.0919259
0.0948168
0.0976942
0.10055
0.103375
0.106162
0.1089
0.111581
0.114195
0.116733
0.119186
0.121545
0.123802
0.125948
0.127975
0.129877
0.131647
0.133279
0.134769
0.136113
0.137308
0.138353
0.139248
0.139994
0.140593
0.141048
0.141365
0.14155
0.14161
0.141555
0.141393
0.141135
0.140795
0.140383
0.139914
0.139402
0.13886
0.138304
0.137747
0.137204
0.136689
0.136214
0.135792
0.135416
0.135075
0.00111711
0.00100803
0.000882097
0.000736162
0.000568385
0.000382327
0.000181463
-3.1172e-05
-0.000252631
-0.000480079
-0.000710859
-0.000942524
-0.00117285
-0.00139985
-0.00162176
-0.00183706
-0.00204444
-0.00224279
-0.0024312
-0.0026089
-0.0027753
-0.00292992
-0.00307241
-0.00320248
-0.00331995
-0.00342471
-0.00351666
-0.00359579
-0.00366207
-0.00371551
-0.00375614
-0.00378397
-0.00379901
-0.00380125
-0.00379069
-0.00376729
-0.00373099
-0.00368172
-0.00361938
-0.00354382
-0.00345489
-0.0033524
-0.00323611
-0.00310578
-0.00296111
-0.0028018
-0.00262749
-0.00243781
-0.00223234
-0.00201063
-0.00177222
-0.00151657
-0.00124317
-0.000951423
-0.000640729
-0.000310445
4.01064e-05
0.000411636
0.00080489
0.00122065
0.00165973
0.00212298
0.00261129
0.00312558
0.00366682
0.00423601
0.00483418
0.00546239
0.00612177
0.00681345
0.0075386
0.00829844
0.00909422
0.0099272
0.0107987
0.01171
0.0126625
0.0136576
0.0146966
0.0157809
0.016912
0.0180913
0.0193201
0.0205998
0.0219318
0.0233175
0.0247581
0.0262548
0.0278089
0.0294215
0.0310935
0.032826
0.0346197
0.0364752
0.0383932
0.0403738
0.0424174
0.0445237
0.0466927
0.0489236
0.0512157
0.0535679
0.0559788
0.0584466
0.0609691
0.0635438
0.0661679
0.068838
0.0715503
0.0743007
0.0770844
0.0798963
0.0827308
0.0855819
0.0884431
0.0913073
0.0941673
0.0970152
0.0998429
0.102642
0.105404
0.108119
0.110779
0.113375
0.115897
0.118336
0.120684
0.122932
0.125071
0.127094
0.128994
0.130764
0.132399
0.133894
0.135246
0.136451
0.137508
0.138416
0.139178
0.139794
0.140268
0.140606
0.140812
0.140894
0.140861
0.140722
0.140488
0.140169
0.139777
0.139326
0.138827
0.138295
0.137742
0.13718
0.136623
0.136082
0.135567
0.135091
0.134634
0.134172
0.00146512
0.00131179
0.00115423
0.000985748
0.000800366
0.000601218
0.00039144
0.000173502
-5.01884e-05
-0.000277282
-0.000505571
-0.000733018
-0.000957765
-0.00117815
-0.0013927
-0.00160013
-0.00179935
-0.00198943
-0.00216959
-0.00233921
-0.00249778
-0.00264489
-0.00278025
-0.00290361
-0.00301482
-0.00311376
-0.00320037
-0.0032746
-0.00333644
-0.00338587
-0.00342289
-0.00344749
-0.00345964
-0.00345934
-0.00344652
-0.00342113
-0.00338309
-0.00333229
-0.0032686
-0.00319186
-0.00310189
-0.00299847
-0.00288135
-0.00275028
-0.00260495
-0.00244503
-0.00227016
-0.00207996
-0.00187401
-0.00165187
-0.00141305
-0.00115705
-0.000883339
-0.00059134
-0.000280459
4.9934e-05
0.000400503
0.000771941
0.00116497
0.00158036
0.0020189
0.00248141
0.00296876
0.00348184
0.00402158
0.00458895
0.00518495
0.00581062
0.00646702
0.00715527
0.00787649
0.00863186
0.00942258
0.0102499
0.011115
0.0120193
0.012964
0.0139505
0.01498
0.0160541
0.0171739
0.018341
0.0195566
0.0208221
0.0221389
0.0235082
0.0249313
0.0264095
0.0279439
0.0295357
0.0311857
0.0328951
0.0346645
0.0364947
0.0383862
0.0403393
0.0423544
0.0444314
0.04657
0.0487699
0.0510302
0.0533499
0.0557279
0.0581622
0.0606511
0.063192
0.0657823
0.0684187
0.0710976
0.0738149
0.0765663
0.0793465
0.0821504
0.0849719
0.0878046
0.0906419
0.0934764
0.0963006
0.0991063
0.101885
0.104629
0.107329
0.109975
0.11256
0.115072
0.117505
0.119848
0.122093
0.124233
0.126258
0.128162
0.129939
0.131582
0.133087
0.13445
0.135668
0.13674
0.137664
0.138442
0.139076
0.139569
0.139925
0.14015
0.140251
0.140237
0.140115
0.139896
0.139592
0.139212
0.138769
0.138275
0.137742
0.137182
0.136606
0.136024
0.135448
0.134886
0.13435
0.133807
0.133225
0.00183528
0.0016357
0.00144432
0.00125093
0.00104543
0.000830594
0.000609274
0.000383419
0.000154936
-7.42777e-05
-0.000302434
-0.000527881
-0.000749115
-0.000964787
-0.00117371
-0.00137485
-0.00156732
-0.00175038
-0.00192341
-0.00208592
-0.0022375
-0.00237784
-0.00250669
-0.00262388
-0.00272928
-0.00282281
-0.00290441
-0.00297404
-0.00303169
-0.00307732
-0.00311092
-0.00313246
-0.00314191
-0.00313922
-0.00312431
-0.0030971
-0.00305749
-0.00300535
-0.00294051
-0.00286281
-0.00277203
-0.00266794
-0.00255028
-0.00241877
-0.0022731
-0.00211293
-0.00193789
-0.0017476
-0.00154162
-0.00131952
-0.00108082
-0.000825013
-0.000551574
-0.000259945
5.04625e-05
0.000380265
0.000730109
0.00110067
0.00149266
0.00190681
0.00234389
0.0028047
0.00329007
0.00380087
0.00433801
0.00490241
0.00549504
0.0061169
0.00676902
0.00745247
0.00816835
0.00891778
0.00970194
0.010522
0.0113792
0.0122748
0.01321
0.0141861
0.0152045
0.0162664
0.0173732
0.0185263
0.0197269
0.0209763
0.022276
0.0236271
0.025031
0.0264888
0.0280018
0.029571
0.0311975
0.0328821
0.0346258
0.0364293
0.0382932
0.0402178
0.0422034
0.0442502
0.046358
0.0485263
0.0507547
0.0530421
0.0553873
0.057789
0.060245
0.0627533
0.0653113
0.0679158
0.0705634
0.0732502
0.075972
0.0787238
0.0815005
0.0842963
0.0871049
0.0899198
0.0927337
0.0955394
0.0983288
0.101094
0.103825
0.106516
0.109155
0.111734
0.114245
0.116677
0.119022
0.121272
0.123418
0.125452
0.127366
0.129155
0.130812
0.132332
0.133711
0.134946
0.136036
0.136979
0.137775
0.138428
0.138939
0.139313
0.139555
0.139673
0.139673
0.139564
0.139357
0.13906
0.138686
0.138244
0.137747
0.137205
0.136629
0.13603
0.135417
0.134799
0.134185
0.133584
0.132954
0.132255
0.00222035
0.00197328
0.0017465
0.00152641
0.0012988
0.00106617
0.000831135
0.000595171
0.000359723
0.000126269
-0.000103797
-0.00032919
-0.000548743
-0.000761412
-0.000966285
-0.00116257
-0.00134961
-0.00152684
-0.00169381
-0.00185015
-0.00199558
-0.00212988
-0.00225288
-0.00236447
-0.00246457
-0.00255312
-0.0026301
-0.00269547
-0.00274922
-0.00279132
-0.00282175
-0.00284047
-0.00284742
-0.00284255
-0.00282575
-0.00279693
-0.00275596
-0.00270269
-0.00263694
-0.00255851
-0.00246718
-0.00236269
-0.00224478
-0.00211315
-0.00196748
-0.00180742
-0.0016326
-0.00144262
-0.00123706
-0.00101548
-0.000777395
-0.00052232
-0.00024973
4.09223e-05
0.000350212
0.00067874
0.00102714
0.00139606
0.00178619
0.00219825
0.00263298
0.00309114
0.00357355
0.00408105
0.00461448
0.00517477
0.00576284
0.00637965
0.00702619
0.0077035
0.00841264
0.00915469
0.00993078
0.0107421
0.0115897
0.0124749
0.013399
0.014363
0.0153685
0.0164165
0.0175084
0.0186456
0.0198293
0.0210609
0.0223415
0.0236726
0.0250554
0.026491
0.0279808
0.0295257
0.0311268
0.0327852
0.0345016
0.0362769
0.0381117
0.0400065
0.0419617
0.0439773
0.0460534
0.0481897
0.0503857
0.0526405
0.0549532
0.0573223
0.0597462
0.0622227
0.0647494
0.0673235
0.0699415
0.0726
0.0752946
0.0780207
0.0807733
0.0835467
0.0863349
0.0891315
0.0919293
0.0947212
0.0974992
0.100255
0.102981
0.105667
0.108305
0.110886
0.1134
0.115839
0.118193
0.120453
0.122612
0.124661
0.126592
0.128399
0.130075
0.131615
0.133015
0.134272
0.135382
0.136347
0.137164
0.137837
0.138368
0.13876
0.139019
0.139151
0.139164
0.139065
0.138865
0.138572
0.138197
0.137751
0.137244
0.136687
0.136089
0.135461
0.134811
0.134145
0.133475
0.132807
0.132092
0.13128
0.00261374
0.00231844
0.0020552
0.00180706
0.0015558
0.00130368
0.00105316
0.000805272
0.000561035
0.000321536
8.78027e-05
-0.000139228
-0.000358711
-0.000569898
-0.000772143
-0.000964901
-0.00114772
-0.00132023
-0.00148214
-0.00163323
-0.00177334
-0.00190234
-0.00202015
-0.00212673
-0.00222205
-0.0023061
-0.00237887
-0.00244037
-0.00249057
-0.00252946
-0.00255701
-0.00257317
-0.00257789
-0.00257108
-0.00255263
-0.00252244
-0.00248035
-0.00242619
-0.00235977
-0.00228088
-0.00218926
-0.00208467
-0.00196681
-0.00183537
-0.00169004
-0.00153044
-0.00135622
-0.00116696
-0.000962253
-0.000741645
-0.000504675
-0.000250851
2.03368e-05
0.000309425
0.000616973
0.000943566
0.00128982
0.00165636
0.00204386
0.002453
0.0028845
0.00333911
0.00381759
0.00432076
0.00484944
0.0054045
0.00598683
0.00659737
0.00723707
0.00790692
0.00860794
0.00934118
0.0101077
0.0109087
0.0117452
0.0126185
0.0135296
0.0144799
0.0154706
0.016503
0.0175782
0.0186976
0.0198626
0.0210743
0.0223341
0.0236432
0.025003
0.0264146
0.0278792
0.029398
0.030972
0.0326023
0.0342898
0.0360354
0.0378397
0.0397033
0.0416267
0.0436101
0.0456536
0.047757
0.04992
0.0521419
0.0544218
0.0567584
0.0591503
0.0615956
0.0640918
0.0666365
0.0692264
0.071858
0.0745274
0.0772301
0.0799611
0.0827152
0.0854863
0.0882681
0.0910538
0.093836
0.0966072
0.0993591
0.102083
0.104771
0.107414
0.110002
0.112526
0.114977
0.117346
0.119624
0.121802
0.123871
0.125825
0.127656
0.129357
0.130923
0.132349
0.133631
0.134768
0.135757
0.136599
0.137294
0.137846
0.138257
0.138533
0.13868
0.138704
0.138613
0.138417
0.138125
0.137746
0.13729
0.136769
0.136191
0.135566
0.134904
0.134212
0.133496
0.132767
0.132032
0.131232
0.130312
0.00300941
0.00266551
0.00236511
0.00208794
0.00181184
0.00153891
0.00127148
0.00101018
0.000755637
0.000508575
0.000269673
3.95429e-05
-0.000181279
-0.000392329
-0.000593221
-0.000783645
-0.00096336
-0.00113219
-0.00129
-0.00143671
-0.00157229
-0.00169672
-0.00181001
-0.00191219
-0.00200328
-0.00208332
-0.00215235
-0.00221037
-0.0022574
-0.00229343
-0.00231842
-0.00233234
-0.00233511
-0.00232664
-0.00230682
-0.00227551
-0.00223256
-0.00217778
-0.00211096
-0.00203186
-0.00194024
-0.00183583
-0.00171832
-0.0015874
-0.00144273
-0.00128396
-0.0011107
-0.000922558
-0.000719114
-0.000499926
-0.000264536
-1.24641e-05
0.000256791
0.000543752
0.000848963
0.00117299
0.00151642
0.00187988
0.00226399
0.00266942
0.00309686
0.00354702
0.00402064
0.0045185
0.00504139
0.00559014
0.00616561
0.00676869
0.0074003
0.00806139
0.00875294
0.00947596
0.0102315
0.0110206
0.0118445
0.0127041
0.0136008
0.0145356
0.0155098
0.0165247
0.0175814
0.0186812
0.0198255
0.0210155
0.0222525
0.0235378
0.0248726
0.0262582
0.0276958
0.0291866
0.0307317
0.0323321
0.033989
0.0357031
0.0374753
0.0393063
0.0411965
0.0431464
0.0451561
0.0472257
0.0493548
0.0515431
0.0537898
0.0560937
0.0584536
0.0608678
0.063334
0.0658499
0.0684126
0.0710187
0.0736645
0.0763456
0.0790573
0.0817944
0.0845512
0.0873214
0.0900983
0.0928747
0.0956431
0.0983953
0.101123
0.103817
0.10647
0.10907
0.11161
0.114079
0.116469
0.11877
0.120973
0.12307
0.125053
0.126913
0.128645
0.130242
0.131699
0.133013
0.13418
0.135199
0.136068
0.13679
0.137365
0.137797
0.138091
0.138252
0.138287
0.138204
0.13801
0.137716
0.13733
0.136862
0.136322
0.13572
0.135065
0.134365
0.133627
0.132859
0.132069
0.131267
0.130385
0.129362
0.00340178
0.00300917
0.00267118
0.00236429
0.00206247
0.0017677
0.00148223
0.00120632
0.00094022
0.000684325
0.000438987
0.000204503
-1.88821e-05
-0.000230979
-0.000431652
-0.000620821
-0.000798451
-0.000964548
-0.00111915
-0.00126232
-0.00139415
-0.00151472
-0.00162415
-0.00172252
-0.00180995
-0.0018865
-0.00195225
-0.00200725
-0.00205151
-0.00208505
-0.00210784
-0.00211984
-0.00212097
-0.00211114
-0.00209023
-0.0020581
-0.00201456
-0.00195943
-0.00189247
-0.00181345
-0.00172211
-0.00161816
-0.0015013
-0.0013712
-0.00122752
-0.00106991
-0.000897973
-0.000711321
-0.000509537
-0.000292187
-5.88222e-05
0.000191028
0.00045785
0.000742153
0.00104446
0.00136532
0.0017053
0.00206499
0.002445
0.00284596
0.00326854
0.0037134
0.00418127
0.00467288
0.00518899
0.00573039
0.0062979
0.00689237
0.00751468
0.00816575
0.00884651
0.00955794
0.010301
0.0110769
0.0118865
0.0127309
0.0136114
0.0145291
0.0154851
0.0164807
0.0175171
0.0185955
0.0197173
0.0208837
0.0220959
0.0233554
0.0246633
0.0260209
0.0274296
0.0288905
0.0304047
0.0319735
0.0335979
0.0352789
0.0370173
0.038814
0.0406695
0.0425845
0.0445592
0.0465937
0.048688
0.0508418
0.0530545
0.0553253
0.0576529
0.0600358
0.0624722
0.0649598
0.0674959
0.0700773
0.0727006
0.0753615
0.0780556
0.0807778
0.0835226
0.0862838
0.089055
0.0918289
0.0945981
0.0973546
0.10009
0.102795
0.105462
0.10808
0.110641
0.113134
0.11555
0.117881
0.120115
0.122245
0.124263
0.126159
0.127928
0.129562
0.131056
0.132406
0.133609
0.134661
0.135563
0.136314
0.136916
0.137372
0.137685
0.137862
0.137909
0.137832
0.137641
0.137343
0.136948
0.136465
0.135905
0.135276
0.134587
0.133847
0.133062
0.13224
0.131389
0.13052
0.129559
0.128437
0.00378563
0.0033444
0.00296858
0.0026315
0.00230333
0.00198596
0.00168157
0.00139008
0.00111141
0.00084564
0.000592801
0.000352897
0.000125893
-8.82836e-05
-0.000289742
-0.000478622
-0.000655092
-0.000819339
-0.000971565
-0.00111198
-0.00124079
-0.0013582
-0.0014644
-0.00155958
-0.00164389
-0.00171748
-0.00178044
-0.00183285
-0.00187477
-0.00190622
-0.00192717
-0.0019376
-0.00193743
-0.00192656
-0.00190486
-0.00187218
-0.00182834
-0.00177313
-0.00170632
-0.00162765
-0.00153686
-0.00143365
-0.00131772
-0.00118874
-0.00104636
-0.000890215
-0.000719934
-0.000535119
-0.000335362
-0.000120238
0.000110691
0.000357883
0.000621809
0.000902959
0.00120184
0.00151898
0.00185491
0.00221021
0.00258544
0.00298122
0.00339817
0.00383695
0.00429821
0.00478267
0.00529104
0.00582409
0.00638259
0.00696735
0.0075792
0.00821903
0.00888773
0.00958624
0.0103155
0.0110766
0.0118705
0.0126982
0.013561
0.0144598
0.0153959
0.0163705
0.0173848
0.0184399
0.0195373
0.0206782
0.0218638
0.0230955
0.0243746
0.0257023
0.0270801
0.0285091
0.0299906
0.0315258
0.0331159
0.0347619
0.0364647
0.0382254
0.0400447
0.0419232
0.0438614
0.0458596
0.0479179
0.0500362
0.0522141
0.0544508
0.0567456
0.059097
0.0615033
0.0639626
0.0664724
0.0690297
0.0716312
0.074273
0.0769509
0.0796598
0.0823945
0.085149
0.0879168
0.0906911
0.0934643
0.0962285
0.0989753
0.101696
0.104381
0.107022
0.109609
0.112131
0.114579
0.116944
0.119216
0.121386
0.123444
0.125383
0.127194
0.128871
0.130408
0.131801
0.133044
0.134135
0.135073
0.135858
0.136491
0.136973
0.13731
0.137505
0.137564
0.137496
0.137306
0.137004
0.1366
0.136101
0.135518
0.13486
0.134136
0.133354
0.132521
0.131644
0.130733
0.129797
0.128758
0.127543
0.00415609
0.00366642
0.00325271
0.00288516
0.00253019
0.00218965
0.00186566
0.00155785
0.00126581
0.000989297
0.000728073
0.000481851
0.000250326
3.31738e-05
-0.00016995
-0.0003594
-0.000535543
-0.000698744
-0.000849362
-0.000987748
-0.00111424
-0.00122914
-0.00133275
-0.00142532
-0.00150708
-0.00157821
-0.00163887
-0.00168916
-0.00172916
-0.00175891
-0.00177841
-0.00178762
-0.00178648
-0.00177488
-0.0017527
-0.00171977
-0.00167591
-0.00162089
-0.00155449
-0.00147643
-0.00138646
-0.00128426
-0.00116953
-0.00104193
-0.000901119
-0.000746738
-0.00057841
-0.000395747
-0.000198348
1.41988e-05
0.000242321
0.000486459
0.000747069
0.00102462
0.0013196
0.0016325
0.00196384
0.00231416
0.002684
0.00307394
0.00348456
0.00391649
0.00437035
0.00484682
0.00534657
0.00587032
0.0064188
0.00699279
0.00759308
0.0082205
0.00887593
0.00956024
0.0102744
0.0110193
0.011796
0.0126055
0.013449
0.0143274
0.0152419
0.0161938
0.0171842
0.0182143
0.0192855
0.0203989
0.021556
0.0227581
0.0240064
0.0253023
0.0266472
0.0280424
0.0294893
0.030989
0.0325428
0.0341519
0.0358174
0.0375404
0.0393217
0.0411621
0.0430623
0.0450227
0.0470436
0.0491251
0.0512671
0.0534689
0.05573
0.0580492
0.0604251
0.0628558
0.0653392
0.0678726
0.0704528
0.0730762
0.0757386
0.0784355
0.0811616
0.0839111
0.0866778
0.0894548
0.0922347
0.0950098
0.0977715
0.100511
0.103219
0.105887
0.108504
0.11106
0.113546
0.115952
0.118266
0.120481
0.122586
0.124573
0.126434
0.12816
0.129746
0.131187
0.132476
0.133612
0.134592
0.135416
0.136083
0.136596
0.136959
0.137174
0.137249
0.13719
0.137003
0.136699
0.136284
0.135769
0.135163
0.134476
0.133715
0.13289
0.132008
0.131075
0.130104
0.129104
0.127989
0.126684
0.0045085
0.00397067
0.00351912
0.00312095
0.00273891
0.00237479
0.00203072
0.00170601
0.00139995
0.00111201
0.00084168
0.000588391
0.000351582
0.000130684
-7.48719e-05
-0.000265652
-0.000442212
-0.000605091
-0.000754807
-0.000891848
-0.00101667
-0.0011297
-0.00123131
-0.00132184
-0.00140158
-0.00147077
-0.0015296
-0.00157822
-0.00161672
-0.00164518
-0.00166359
-0.00167194
-0.00167016
-0.00165815
-0.00163578
-0.00160289
-0.00155926
-0.0015047
-0.00143895
-0.00136176
-0.00127283
-0.00117188
-0.00105858
-0.000932613
-0.000793622
-0.000641255
-0.000475142
-0.000294905
-0.000100154
0.000109511
0.000334502
0.000575241
0.000832164
0.00110572
0.00139636
0.00170457
0.00203084
0.00237565
0.00273954
0.00312303
0.00352668
0.00395108
0.00439681
0.00486449
0.00535478
0.00586834
0.00640588
0.0069681
0.00755578
0.0081697
0.00881069
0.00947959
0.0101773
0.0109048
0.0116629
0.0124528
0.0132754
0.0141318
0.0150232
0.0159507
0.0169155
0.0179189
0.018962
0.0200463
0.021173
0.0223435
0.0235591
0.0248213
0.0261314
0.0274909
0.0289011
0.0303634
0.031879
0.0334494
0.0350757
0.0367591
0.0385007
0.0403013
0.0421618
0.0440828
0.0460649
0.0481083
0.050213
0.0523788
0.0546052
0.0568914
0.0592361
0.0616377
0.0640944
0.0666037
0.0691627
0.0717679
0.0744156
0.0771012
0.0798198
0.0825657
0.0853329
0.0881146
0.0909036
0.0936921
0.0964717
0.0992336
0.101969
0.104667
0.107319
0.109914
0.112442
0.114893
0.117256
0.119522
0.12168
0.123721
0.125637
0.12742
0.129061
0.130556
0.131898
0.133084
0.134112
0.134979
0.135686
0.136235
0.136627
0.136867
0.13696
0.136912
0.136731
0.136424
0.136001
0.13547
0.134841
0.134123
0.133326
0.132458
0.131527
0.130539
0.129507
0.128443
0.127256
0.125863
0.00483844
0.00425279
0.00376352
0.0033347
0.00292542
0.00253747
0.00217297
0.00183093
0.00151036
0.00121046
0.000930428
0.000669455
0.000426722
0.000201426
-7.22375e-06
-0.000199996
-0.000377633
-0.000540844
-0.000690297
-0.000826617
-0.000950383
-0.00106212
-0.0011623
-0.00125132
-0.00132956
-0.00139729
-0.00145475
-0.00150213
-0.00153956
-0.0015671
-0.00158479
-0.00159262
-0.00159052
-0.0015784
-0.00155612
-0.00152352
-0.00148038
-0.00142651
-0.00136164
-0.00128552
-0.00119786
-0.00109835
-0.000986695
-0.000862551
-0.000725583
-0.000575438
-0.000411757
-0.000234172
-4.23066e-05
0.000164224
0.000385813
0.000622863
0.000875787
0.00114501
0.00143096
0.00173409
0.00205484
0.00239369
0.00275112
0.00312763
0.00352374
0.00393997
0.0043769
0.0048351
0.00531516
0.00581772
0.00634343