/*--------------------------------*- C++ -*----------------------------------*\
  =========                 |
  \\      /  F ield         | OpenFOAM: The Open Source CFD Toolbox
   \\    /   O peration     | Website:  https://openfoam.org
    \\  /    A nd           | Version:  7
     \\/     M anipulation  |
\*---------------------------------------------------------------------------*/
FoamFile
{
    version     2.0;
    format      ascii;
    class       surfaceScalarField;
    location    "0.4875";
    object      phi;
}
// * * * * * * * * * * * * * * * * * * * * * * * * * * * * * * * * * * * * * //

dimensions      [0 3 -1 0 0 0 0];

internalField   nonuniform List<scalar> 
25360
(
5.02522e-11
-5.29892e-11
1.91711e-10
-1.41458e-10
3.58608e-10
-1.66908e-10
5.03943e-10
-1.45348e-10
5.99735e-10
-9.57907e-11
6.30082e-10
-3.03312e-11
5.86761e-10
4.333e-11
4.66559e-10
1.20199e-10
2.69502e-10
1.97053e-10
-2.30441e-12
2.71807e-10
-3.45372e-10
3.43071e-10
-7.55485e-10
4.10113e-10
-1.22789e-09
4.72399e-10
-1.75758e-09
5.29693e-10
-2.33952e-09
5.81936e-10
-2.96871e-09
6.29192e-10
-3.64033e-09
6.71618e-10
-4.34976e-09
7.09435e-10
-5.09267e-09
7.4291e-10
-5.86501e-09
7.72341e-10
-6.66306e-09
7.98043e-10
-7.48339e-09
8.20338e-10
-8.32294e-09
8.39549e-10
-9.17894e-09
8.55996e-10
-1.00489e-08
8.6999e-10
-1.09308e-08
8.81826e-10
-1.18225e-08
8.91789e-10
-1.27227e-08
9.00143e-10
-1.36298e-08
9.07138e-10
-1.45428e-08
9.13003e-10
-1.54608e-08
9.1795e-10
-1.6383e-08
9.22173e-10
-1.73088e-08
9.25848e-10
-1.82379e-08
9.29134e-10
-1.91701e-08
9.32175e-10
-2.01052e-08
9.35096e-10
-2.10432e-08
9.3801e-10
-2.19842e-08
9.41018e-10
-2.29284e-08
9.44206e-10
-2.38761e-08
9.4765e-10
-2.48275e-08
9.51417e-10
-2.57831e-08
9.55562e-10
-2.67432e-08
9.60132e-10
-2.77084e-08
9.65169e-10
-2.86791e-08
9.70704e-10
-2.96559e-08
9.76765e-10
-3.06392e-08
9.83374e-10
-3.16298e-08
9.90545e-10
-3.26281e-08
9.98291e-10
-3.36347e-08
1.00662e-09
-3.46502e-08
1.01553e-09
-3.56752e-08
1.02502e-09
-3.67103e-08
1.03509e-09
-3.77561e-08
1.04574e-09
-3.8813e-08
1.05693e-09
-3.98817e-08
1.06868e-09
-4.09626e-08
1.08094e-09
-4.20563e-08
1.09371e-09
-4.31633e-08
1.10695e-09
-4.42839e-08
1.12063e-09
-4.54187e-08
1.13473e-09
-4.65678e-08
1.14919e-09
-4.77318e-08
1.16398e-09
-4.89109e-08
1.17904e-09
-5.01052e-08
1.19433e-09
-5.1315e-08
1.20977e-09
-5.25403e-08
1.22532e-09
-5.37812e-08
1.24089e-09
-5.50376e-08
1.25641e-09
-5.63094e-08
1.27178e-09
-5.75963e-08
1.28693e-09
-5.8898e-08
1.30174e-09
-6.02142e-08
1.31612e-09
-6.15441e-08
1.32994e-09
-6.28872e-08
1.34309e-09
-6.42426e-08
1.35542e-09
-6.56094e-08
1.36681e-09
-6.69865e-08
1.37709e-09
-6.83726e-08
1.3861e-09
-6.97663e-08
1.39369e-09
-7.1166e-08
1.39967e-09
-7.25698e-08
1.40385e-09
-7.39759e-08
1.40603e-09
-7.53819e-08
1.40602e-09
-7.67855e-08
1.4036e-09
-7.8184e-08
1.39854e-09
-7.95747e-08
1.39061e-09
-8.09542e-08
1.37958e-09
-8.23194e-08
1.3652e-09
-8.36667e-08
1.34723e-09
-8.49921e-08
1.3254e-09
-8.62915e-08
1.29946e-09
-8.75607e-08
1.26916e-09
-8.87949e-08
1.23423e-09
-8.99894e-08
1.19443e-09
-9.11389e-08
1.14949e-09
-9.2238e-08
1.09918e-09
-9.32813e-08
1.04325e-09
-9.42628e-08
9.81496e-10
-9.51765e-08
9.13699e-10
-9.60162e-08
8.39676e-10
-9.67754e-08
7.5926e-10
-9.74477e-08
6.72316e-10
-9.80265e-08
5.78735e-10
-9.85049e-08
4.78447e-10
-9.88763e-08
3.7142e-10
-9.9134e-08
2.57667e-10
-9.92712e-08
1.37251e-10
-9.92815e-08
1.02922e-11
-9.91585e-08
-1.23046e-10
-9.8896e-08
-2.62511e-10
-9.84882e-08
-4.07805e-10
-9.79296e-08
-5.58548e-10
-9.72153e-08
-7.14288e-10
-9.63408e-08
-8.74496e-10
-9.53023e-08
-1.03856e-09
-9.40965e-08
-1.20579e-09
-9.27211e-08
-1.3754e-09
-9.11745e-08
-1.54654e-09
-8.94563e-08
-1.71828e-09
-8.75667e-08
-1.88958e-09
-8.55073e-08
-2.05937e-09
-8.32808e-08
-2.22649e-09
-8.08911e-08
-2.38971e-09
-7.83433e-08
-2.54776e-09
-7.5644e-08
-2.69932e-09
-7.2801e-08
-2.84306e-09
-6.98234e-08
-2.97759e-09
-6.67218e-08
-3.10157e-09
-6.35082e-08
-3.21362e-09
-6.01957e-08
-3.31243e-09
-5.6799e-08
-3.39671e-09
-5.33338e-08
-3.46524e-09
-4.98169e-08
-3.51687e-09
-4.62663e-08
-3.55058e-09
-4.27009e-08
-3.56542e-09
-3.91403e-08
-3.56059e-09
-3.56049e-08
-3.53544e-09
-3.21154e-08
-3.48946e-09
-2.86931e-08
-3.4223e-09
-2.53593e-08
-3.33379e-09
-2.21354e-08
-3.22394e-09
-1.90425e-08
-3.09292e-09
-1.61014e-08
-2.9411e-09
-1.33323e-08
-2.76902e-09
-1.07549e-08
-2.5774e-09
-8.38777e-09
-2.36716e-09
-6.24835e-09
-2.13942e-09
-4.35283e-09
-1.89552e-09
-2.71572e-09
-1.63711e-09
-1.34946e-09
-1.36626e-09
-2.63856e-10
-1.0856e-09
5.34906e-10
-7.98762e-10
1.04583e-09
-5.10921e-10
1.27582e-09
-2.29991e-10
1.24448e-09
3.134e-11
9.92293e-10
2.52192e-10
5.95092e-10
3.97195e-10
1.91494e-10
4.03576e-10
1.91474e-10
1.40404e-10
-1.93395e-10
4.05695e-10
-4.06753e-10
6.86517e-10
-4.47709e-10
9.0057e-10
-3.59402e-10
9.89361e-10
-1.84604e-10
9.14701e-10
4.43215e-11
6.53936e-10
3.04105e-10
1.95792e-10
5.78353e-10
-4.62823e-10
8.55667e-10
-1.31923e-09
1.1282e-09
-2.36677e-09
1.39062e-09
-3.59605e-09
1.63939e-09
-4.99595e-09
1.8723e-09
-6.55431e-09
2.08806e-09
-8.25848e-09
2.2861e-09
-1.00957e-08
2.46639e-09
-1.20533e-08
2.62927e-09
-1.41192e-08
2.77536e-09
-1.62818e-08
2.90549e-09
-1.85301e-08
3.02064e-09
-2.0854e-08
3.12188e-09
-2.32439e-08
3.21032e-09
-2.56915e-08
3.28709e-09
-2.81888e-08
3.35335e-09
-3.0729e-08
3.4102e-09
-3.3306e-08
3.45873e-09
-3.59142e-08
3.49999e-09
-3.8549e-08
3.53495e-09
-4.12064e-08
3.56453e-09
-4.3883e-08
3.58961e-09
-4.6576e-08
3.61099e-09
-4.92832e-08
3.62938e-09
-5.20028e-08
3.64548e-09
-5.47336e-08
3.65988e-09
-5.74746e-08
3.67314e-09
-6.02252e-08
3.68575e-09
-6.29854e-08
3.69815e-09
-6.57551e-08
3.71073e-09
-6.85347e-08
3.72383e-09
-7.13248e-08
3.73776e-09
-7.41262e-08
3.75277e-09
-7.69397e-08
3.76909e-09
-7.97665e-08
3.78691e-09
-8.26077e-08
3.80639e-09
-8.54646e-08
3.82767e-09
-8.83387e-08
3.85085e-09
-9.12314e-08
3.87603e-09
-9.41441e-08
3.90327e-09
-9.70784e-08
3.93262e-09
-1.00036e-07
3.9641e-09
-1.03018e-07
3.99773e-09
-1.06027e-07
4.0335e-09
-1.09063e-07
4.0714e-09
-1.12129e-07
4.1114e-09
-1.15225e-07
4.15344e-09
-1.18354e-07
4.19746e-09
-1.21516e-07
4.24338e-09
-1.24714e-07
4.29112e-09
-1.27947e-07
4.34056e-09
-1.31218e-07
4.39158e-09
-1.34528e-07
4.44404e-09
-1.37876e-07
4.49778e-09
-1.41265e-07
4.55261e-09
-1.44694e-07
4.60835e-09
-1.48165e-07
4.66478e-09
-1.51676e-07
4.72165e-09
-1.5523e-07
4.77871e-09
-1.58825e-07
4.83566e-09
-1.6246e-07
4.8922e-09
-1.66137e-07
4.94799e-09
-1.69852e-07
5.00266e-09
-1.73606e-07
5.05582e-09
-1.77397e-07
5.10705e-09
-1.81223e-07
5.1559e-09
-1.85082e-07
5.20188e-09
-1.88971e-07
5.24447e-09
-1.92887e-07
5.28313e-09
-1.96828e-07
5.31727e-09
-2.00788e-07
5.34627e-09
-2.04764e-07
5.3695e-09
-2.0875e-07
5.38625e-09
-2.12742e-07
5.39581e-09
-2.16734e-07
5.39744e-09
-2.20718e-07
5.39036e-09
-2.24688e-07
5.37373e-09
-2.28636e-07
5.34674e-09
-2.32554e-07
5.3085e-09
-2.36433e-07
5.25812e-09
-2.40262e-07
5.1947e-09
-2.44032e-07
5.11729e-09
-2.47732e-07
5.02497e-09
-2.51349e-07
4.91678e-09
-2.54872e-07
4.79176e-09
-2.58286e-07
4.64899e-09
-2.6158e-07
4.48752e-09
-2.64737e-07
4.30644e-09
-2.67742e-07
4.10489e-09
-2.70581e-07
3.88201e-09
-2.73237e-07
3.63703e-09
-2.75692e-07
3.36923e-09
-2.7793e-07
3.07796e-09
-2.79934e-07
2.76267e-09
-2.81684e-07
2.42292e-09
-2.83164e-07
2.05838e-09
-2.84354e-07
1.66885e-09
-2.85237e-07
1.25432e-09
-2.85795e-07
8.14894e-10
-2.86008e-07
3.5091e-10
-2.85861e-07
-1.37114e-10
-2.85335e-07
-6.48438e-10
-2.84416e-07
-1.18208e-09
-2.83087e-07
-1.73682e-09
-2.81334e-07
-2.31116e-09
-2.79145e-07
-2.90334e-09
-2.76508e-07
-3.51131e-09
-2.73414e-07
-4.13273e-09
-2.69855e-07
-4.76495e-09
-2.65825e-07
-5.40504e-09
-2.61322e-07
-6.04976e-09
-2.56345e-07
-6.69559e-09
-2.50896e-07
-7.33874e-09
-2.4498e-07
-7.97513e-09
-2.38606e-07
-8.60048e-09
-2.31785e-07
-9.21026e-09
-2.24533e-07
-9.79979e-09
-2.16868e-07
-1.03642e-08
-2.08813e-07
-1.08986e-08
-2.00393e-07
-1.13979e-08
-1.91637e-07
-1.18572e-08
-1.82579e-07
-1.22715e-08
-1.73256e-07
-1.26359e-08
-1.63707e-07
-1.29458e-08
-1.53975e-07
-1.31968e-08
-1.44107e-07
-1.33847e-08
-1.34152e-07
-1.35058e-08
-1.24161e-07
-1.35566e-08
-1.14187e-07
-1.35343e-08
-1.04286e-07
-1.34366e-08
-9.45138e-08
-1.32615e-08
-8.49281e-08
-1.3008e-08
-7.55864e-08
-1.26755e-08
-6.65463e-08
-1.2264e-08
-5.78647e-08
-1.17745e-08
-4.95975e-08
-1.12083e-08
-4.17988e-08
-1.05678e-08
-3.45204e-08
-9.85579e-09
-2.78113e-08
-9.07622e-09
-2.1717e-08
-8.23374e-09
-1.62784e-08
-7.33411e-09
-1.15311e-08
-6.38442e-09
-7.50381e-09
-5.39355e-09
-4.21651e-09
-4.3729e-09
-1.67766e-09
-3.33761e-09
1.19955e-10
-2.30854e-09
1.20545e-09
-1.31549e-09
1.6389e-09
-4.0211e-10
1.52485e-09
3.6625e-10
1.03003e-09
8.9205e-10
4.02015e-10
1.03164e-09
5.93475e-10
1.67748e-10
-3.61153e-10
4.49695e-10
-6.88714e-10
7.07676e-10
-7.0567e-10
8.42024e-10
-4.93725e-10
7.79522e-10
-1.22104e-10
4.69688e-10
3.54144e-10
-1.19372e-10
8.93162e-10
-1.00499e-09
1.46398e-09
-2.19338e-09
2.04406e-09
-3.68243e-09
2.61725e-09
-5.46395e-09
3.17213e-09
-7.52544e-09
3.70087e-09
-9.85143e-09
4.1983e-09
-1.24246e-08
4.66124e-09
-1.52266e-08
5.08808e-09
-1.82385e-08
5.47834e-09
-2.14417e-08
5.83241e-09
-2.48177e-08
6.15135e-09
-2.83489e-08
6.43669e-09
-3.20185e-08
6.69028e-09
-3.58109e-08
6.91424e-09
-3.97114e-08
7.1108e-09
-4.37066e-08
7.28229e-09
-4.77843e-08
7.43105e-09
-5.19335e-08
7.55941e-09
-5.61444e-08
7.66963e-09
-6.04083e-08
7.7639e-09
-6.47176e-08
7.8443e-09
-6.90659e-08
7.91279e-09
-7.34475e-08
7.97122e-09
-7.78578e-08
8.0213e-09
-8.2293e-08
8.06462e-09
-8.67502e-08
8.10263e-09
-9.1227e-08
8.13665e-09
-9.57217e-08
8.16788e-09
-1.00233e-07
8.1974e-09
-1.04761e-07
8.22617e-09
-1.09306e-07
8.25506e-09
-1.13867e-07
8.28481e-09
-1.18445e-07
8.31611e-09
-1.23042e-07
8.34953e-09
-1.27658e-07
8.38557e-09
-1.32296e-07
8.42467e-09
-1.36957e-07
8.46718e-09
-1.41643e-07
8.51341e-09
-1.46355e-07
8.56362e-09
-1.51097e-07
8.61799e-09
-1.55871e-07
8.67668e-09
-1.60678e-07
8.7398e-09
-1.65521e-07
8.80741e-09
-1.70403e-07
8.87954e-09
-1.75326e-07
8.95619e-09
-1.80292e-07
9.03731e-09
-1.85303e-07
9.12283e-09
-1.90362e-07
9.21264e-09
-1.95471e-07
9.30659e-09
-2.00633e-07
9.40452e-09
-2.05848e-07
9.5062e-09
-2.11118e-07
9.6114e-09
-2.16447e-07
9.71982e-09
-2.21834e-07
9.83116e-09
-2.27281e-07
9.94504e-09
-2.3279e-07
1.00611e-08
-2.3836e-07
1.01788e-08
-2.43993e-07
1.02978e-08
-2.49689e-07
1.04174e-08
-2.55447e-07
1.05371e-08
-2.61268e-07
1.06562e-08
-2.67149e-07
1.07741e-08
-2.73092e-07
1.089e-08
-2.79092e-07
1.10031e-08
-2.85149e-07
1.11125e-08
-2.91259e-07
1.12173e-08
-2.97419e-07
1.13164e-08
-3.03626e-07
1.14089e-08
-3.09875e-07
1.14935e-08
-3.16161e-07
1.15691e-08
-3.22478e-07
1.16344e-08
-3.2882e-07
1.1688e-08
-3.35179e-07
1.17285e-08
-3.41547e-07
1.17545e-08
-3.47916e-07
1.17643e-08
-3.54275e-07
1.17564e-08
-3.60614e-07
1.17291e-08
-3.6692e-07
1.16805e-08
-3.73183e-07
1.16089e-08
-3.79387e-07
1.15125e-08
-3.85518e-07
1.13893e-08
-3.9156e-07
1.12373e-08
-3.97498e-07
1.10547e-08
-4.03312e-07
1.08393e-08
-4.08984e-07
1.05892e-08
-4.14495e-07
1.03024e-08
-4.19823e-07
9.97697e-09
-4.24946e-07
9.61086e-09
-4.29842e-07
9.20224e-09
-4.34487e-07
8.74928e-09
-4.38855e-07
8.25027e-09
-4.42922e-07
7.70361e-09
-4.4666e-07
7.10787e-09
-4.50044e-07
6.46175e-09
-4.53045e-07
5.7642e-09
-4.55637e-07
5.01436e-09
-4.5779e-07
4.21166e-09
-4.59477e-07
3.35583e-09
-4.6067e-07
2.44692e-09
-4.6134e-07
1.48535e-09
-4.61461e-07
4.71939e-10
-4.61006e-07
-5.92057e-10
-4.5995e-07
-1.70492e-09
-4.58267e-07
-2.86442e-09
-4.55936e-07
-4.06782e-09
-4.52936e-07
-5.31182e-09
-4.49247e-07
-6.59252e-09
-4.44853e-07
-7.90546e-09
-4.3974e-07
-9.24554e-09
-4.33898e-07
-1.06071e-08
-4.27319e-07
-1.19837e-08
-4.2e-07
-1.33685e-08
-4.11942e-07
-1.4754e-08
-4.03149e-07
-1.6132e-08
-3.9363e-07
-1.74939e-08
-3.834e-07
-1.88306e-08
-3.72477e-07
-2.01326e-08
-3.60887e-07
-2.13899e-08
-3.48659e-07
-2.25923e-08
-3.35828e-07
-2.37294e-08
-3.22436e-07
-2.47906e-08
-3.08527e-07
-2.57656e-08
-2.94155e-07
-2.66439e-08
-2.79375e-07
-2.74154e-08
-2.64251e-07
-2.80702e-08
-2.48849e-07
-2.85992e-08
-2.3324e-07
-2.89937e-08
-2.175e-07
-2.92458e-08
-2.01708e-07
-2.93484e-08
-1.85946e-07
-2.92957e-08
-1.703e-07
-2.90827e-08
-1.54856e-07
-2.87056e-08
-1.39702e-07
-2.81621e-08
-1.24926e-07
-2.74512e-08
-1.10617e-07
-2.65733e-08
-9.68615e-08
-2.55301e-08
-8.37445e-08
-2.43253e-08
-7.13485e-08
-2.29638e-08
-5.97518e-08
-2.14525e-08
-4.90281e-08
-1.97999e-08
-3.92449e-08
-1.8017e-08
-3.04622e-08
-1.61167e-08
-2.27311e-08
-1.41156e-08
-1.60909e-08
-1.20337e-08
-1.05668e-08
-9.89697e-09
-6.16575e-09
-7.73868e-09
-2.8709e-09
-5.60338e-09
-6.34533e-10
-3.55186e-09
6.32016e-10
-1.66867e-09
1.07114e-09
-7.28977e-11
8.93577e-10
1.06958e-09
3.95291e-10
1.52995e-09
9.88766e-10
1.47886e-10
-5.09033e-10
3.64335e-10
-9.05188e-10
4.98957e-10
-8.40306e-10
4.43974e-10
-4.38727e-10
1.19961e-10
2.01923e-10
-5.29051e-10
1.00316e-09
-1.53951e-09
1.90361e-09
-2.93202e-09
2.85649e-09
-4.71464e-09
3.82668e-09
-6.88561e-09
4.78822e-09
-9.43576e-09
5.72227e-09
-1.23504e-08
6.61551e-09
-1.5611e-08
7.45886e-09
-1.91963e-08
8.24655e-09
-2.30835e-08
8.97534e-09
-2.72492e-08
9.64399e-09
-3.16695e-08
1.02527e-08
-3.63211e-08
1.0803e-08
-4.11813e-08
1.12969e-08
-4.62285e-08
1.17375e-08
-5.14423e-08
1.2128e-08
-5.68036e-08
1.2472e-08
-6.22947e-08
1.27734e-08
-6.78995e-08
1.30359e-08
-7.36034e-08
1.32634e-08
-7.93934e-08
1.34596e-08
-8.52576e-08
1.36282e-08
-9.1186e-08
1.37727e-08
-9.71696e-08
1.38964e-08
-1.03201e-07
1.40024e-08
-1.09273e-07
1.40936e-08
-1.15381e-07
1.41728e-08
-1.21521e-07
1.42424e-08
-1.27689e-07
1.43047e-08
-1.33883e-07
1.43618e-08
-1.40101e-07
1.44155e-08
-1.46342e-07
1.44675e-08
-1.52607e-07
1.45192e-08
-1.58894e-07
1.45721e-08
-1.65205e-07
1.46272e-08
-1.71541e-07
1.46857e-08
-1.77904e-07
1.47483e-08
-1.84295e-07
1.48159e-08
-1.90717e-07
1.4889e-08
-1.97172e-07
1.49683e-08
-2.03662e-07
1.50541e-08
-2.10191e-07
1.51469e-08
-2.16761e-07
1.52468e-08
-2.23376e-07
1.53541e-08
-2.30037e-07
1.54689e-08
-2.36749e-07
1.55913e-08
-2.43514e-07
1.57212e-08
-2.50335e-07
1.58586e-08
-2.57216e-07
1.60033e-08
-2.64158e-07
1.61551e-08
-2.71165e-07
1.63138e-08
-2.7824e-07
1.64791e-08
-2.85384e-07
1.66505e-08
-2.92601e-07
1.68277e-08
-2.99891e-07
1.70102e-08
-3.07257e-07
1.71973e-08
-3.147e-07
1.73884e-08
-3.22222e-07
1.75828e-08
-3.29823e-07
1.77797e-08
-3.37504e-07
1.79783e-08
-3.45264e-07
1.81776e-08
-3.53103e-07
1.83765e-08
-3.61021e-07
1.8574e-08
-3.69016e-07
1.87687e-08
-3.77085e-07
1.89594e-08
-3.85227e-07
1.91446e-08
-3.93437e-07
1.93229e-08
-4.01712e-07
1.94926e-08
-4.10048e-07
1.96518e-08
-4.18438e-07
1.97989e-08
-4.26876e-07
1.99317e-08
-4.35355e-07
2.00482e-08
-4.43867e-07
2.01462e-08
-4.52402e-07
2.02234e-08
-4.60951e-07
2.02773e-08
-4.69502e-07
2.03053e-08
-4.78042e-07
2.03047e-08
-4.86559e-07
2.02729e-08
-4.95036e-07
2.02068e-08
-5.03459e-07
2.01035e-08
-5.1181e-07
1.99599e-08
-5.20071e-07
1.97728e-08
-5.2822e-07
1.95391e-08
-5.36238e-07
1.92553e-08
-5.44102e-07
1.89182e-08
-5.51787e-07
1.85244e-08
-5.59269e-07
1.80706e-08
-5.66519e-07
1.75534e-08
-5.73512e-07
1.69696e-08
-5.80217e-07
1.63158e-08
-5.86604e-07
1.5589e-08
-5.92641e-07
1.47863e-08
-5.98295e-07
1.39048e-08
-6.03534e-07
1.2942e-08
-6.08321e-07
1.18955e-08
-6.12623e-07
1.07633e-08
-6.16402e-07
9.54382e-09
-6.19624e-07
8.23576e-09
-6.22251e-07
6.83834e-09
-6.24246e-07
5.35129e-09
-6.25574e-07
3.77489e-09
-6.26199e-07
2.11005e-09
-6.26085e-07
3.58367e-10
-6.25199e-07
-1.47783e-09
-6.23509e-07
-3.39542e-09
-6.20983e-07
-5.39046e-09
-6.17593e-07
-7.45809e-09
-6.13312e-07
-9.59257e-09
-6.08117e-07
-1.17871e-08
-6.01989e-07
-1.40341e-08
-5.94909e-07
-1.63247e-08
-5.86867e-07
-1.86492e-08
-5.77854e-07
-2.09968e-08
-5.67867e-07
-2.33558e-08
-5.56908e-07
-2.57133e-08
-5.44984e-07
-2.80557e-08
-5.32109e-07
-3.03685e-08
-5.18303e-07
-3.26363e-08
-5.03593e-07
-3.48431e-08
-4.88011e-07
-3.69722e-08
-4.71596e-07
-3.90064e-08
-4.54397e-07
-4.09286e-08
-4.36467e-07
-4.27209e-08
-4.17867e-07
-4.4366e-08
-3.98664e-07
-4.58465e-08
-3.78934e-07
-4.71456e-08
-3.58757e-07
-4.82469e-08
-3.38221e-07
-4.91351e-08
-3.17419e-07
-4.97957e-08
-2.96449e-07
-5.02158e-08
-2.75414e-07
-5.03835e-08
-2.5442e-07
-5.02891e-08
-2.33579e-07
-4.99244e-08
-2.13001e-07
-4.92833e-08
-1.92801e-07
-4.8362e-08
-1.73093e-07
-4.71589e-08
-1.53992e-07
-4.56749e-08
-1.35608e-07
-4.39135e-08
-1.18053e-07
-4.18808e-08
-1.01431e-07
-3.95859e-08
-8.58422e-08
-3.70409e-08
-7.13811e-08
-3.4261e-08
-5.81326e-08
-3.12655e-08
-4.61717e-08
-2.80777e-08
-3.55608e-08
-2.47264e-08
-2.63472e-08
-2.12473e-08
-1.85594e-08
-1.76848e-08
-1.22027e-08
-1.40954e-08
-7.25355e-09
-1.05525e-08
-3.65262e-09
-7.15277e-09
-1.29587e-09
-4.0254e-09
-2.39865e-11
-1.34479e-09
3.90222e-10
6.55358e-10
2.55341e-10
1.66484e-09
1.24411e-09
9.92863e-11
-6.083e-10
1.8956e-10
-9.9546e-10
1.23655e-10
-7.74419e-10
-2.05952e-10
-1.09123e-10
-8.78869e-10
8.7485e-10
-1.95171e-09
2.07601e-09
-3.46179e-09
3.41369e-09
-5.43045e-09
4.82514e-09
-7.86596e-09
6.26219e-09
-1.07662e-08
7.68844e-09
-1.41208e-08
9.07687e-09
-1.79132e-08
1.0408e-08
-2.21224e-08
1.16681e-08
-2.67242e-08
1.28483e-08
-3.16921e-08
1.39433e-08
-3.6999e-08
1.49508e-08
-4.26169e-08
1.58707e-08
-4.85185e-08
1.67045e-08
-5.46768e-08
1.74553e-08
-6.10662e-08
1.81269e-08
-6.76623e-08
1.8724e-08
-7.4442e-08
1.92518e-08
-8.13841e-08
1.97155e-08
-8.84691e-08
2.01209e-08
-9.56792e-08
2.04734e-08
-1.02998e-07
2.07786e-08
-1.10412e-07
2.10418e-08
-1.17908e-07
2.12683e-08
-1.25474e-07
2.14629e-08
-1.33102e-07
2.16303e-08
-1.40783e-07
2.17748e-08
-1.48511e-07
2.19005e-08
-1.5628e-07
2.20112e-08
-1.64085e-07
2.21102e-08
-1.71924e-07
2.22006e-08
-1.79794e-07
2.22854e-08
-1.87693e-07
2.2367e-08
-1.95622e-07
2.24477e-08
-2.03579e-07
2.25296e-08
-2.11566e-07
2.26144e-08
-2.19584e-07
2.27037e-08
-2.27635e-07
2.27989e-08
-2.3572e-07
2.29011e-08
-2.43842e-07
2.30113e-08
-2.52005e-07
2.31304e-08
-2.6021e-07
2.32591e-08
-2.68461e-07
2.33979e-08
-2.76761e-07
2.35472e-08
-2.85114e-07
2.37074e-08
-2.93524e-07
2.38785e-08
-3.01993e-07
2.40608e-08
-3.10526e-07
2.42541e-08
-3.19126e-07
2.44584e-08
-3.27796e-07
2.46734e-08
-3.3654e-07
2.48988e-08
-3.4536e-07
2.51343e-08
-3.54261e-07
2.53794e-08
-3.63243e-07
2.56333e-08
-3.72311e-07
2.58955e-08
-3.81466e-07
2.61652e-08
-3.9071e-07
2.64415e-08
-4.00045e-07
2.67232e-08
-4.09472e-07
2.70095e-08
-4.18991e-07
2.72989e-08
-4.28603e-07
2.75902e-08
-4.38307e-07
2.78818e-08
-4.48103e-07
2.81722e-08
-4.57988e-07
2.84596e-08
-4.67962e-07
2.8742e-08
-4.7802e-07
2.90176e-08
-4.88159e-07
2.9284e-08
-4.98375e-07
2.95389e-08
-5.08662e-07
2.97798e-08
-5.19015e-07
3.0004e-08
-5.29424e-07
3.02086e-08
-5.39883e-07
3.03907e-08
-5.50382e-07
3.05471e-08
-5.6091e-07
3.06743e-08
-5.71456e-07
3.07689e-08
-5.82006e-07
3.08271e-08
-5.92545e-07
3.0845e-08
-6.03059e-07
3.08187e-08
-6.1353e-07
3.07438e-08
-6.2394e-07
3.06161e-08
-6.34267e-07
3.0431e-08
-6.44491e-07
3.01839e-08
-6.54588e-07
2.98702e-08
-6.64534e-07
2.94849e-08
-6.74302e-07
2.90232e-08
-6.83864e-07
2.84802e-08
-6.93191e-07
2.78508e-08
-7.0225e-07
2.71302e-08
-7.1101e-07
2.63134e-08
-7.19436e-07
2.53956e-08
-7.27493e-07
2.43722e-08
-7.35142e-07
2.32385e-08
-7.42346e-07
2.19904e-08
-7.49065e-07
2.06239e-08
-7.55259e-07
1.91352e-08
-7.60884e-07
1.75211e-08
-7.659e-07
1.57788e-08
-7.70262e-07
1.39061e-08
-7.73928e-07
1.19014e-08
-7.76853e-07
9.76375e-09
-7.78995e-07
7.49299e-09
-7.8031e-07
5.08984e-09
-7.80755e-07
2.55592e-09
-7.80291e-07
-1.06099e-10
-7.78876e-07
-2.89249e-09
-7.76473e-07
-5.79833e-09
-7.73046e-07
-8.81747e-09
-7.68562e-07
-1.19424e-08
-7.6299e-07
-1.51644e-08
-7.56304e-07
-1.84732e-08
-7.48481e-07
-2.18571e-08
-7.39503e-07
-2.53029e-08
-7.29356e-07
-2.8796e-08
-7.18033e-07
-3.23202e-08
-7.0553e-07
-3.5858e-08
-6.91853e-07
-3.93904e-08
-6.77012e-07
-4.28971e-08
-6.61024e-07
-4.63563e-08
-6.43915e-07
-4.97455e-08
-6.25717e-07
-5.30409e-08
-6.06472e-07
-5.62179e-08
-5.86227e-07
-5.92512e-08
-5.6504e-07
-6.21153e-08
-5.42977e-07
-6.47843e-08
-5.2011e-07
-6.72323e-08
-4.96523e-07
-6.9434e-08
-4.72304e-07
-7.13646e-08
-4.47551e-07
-7.3e-08
-4.22368e-07
-7.43177e-08
-3.96867e-07
-7.52967e-08
-3.71166e-07
-7.59175e-08
-3.45386e-07
-7.61633e-08
-3.19655e-07
-7.60194e-08
-2.94106e-07
-7.54741e-08
-2.68871e-07
-7.45184e-08
-2.44086e-07
-7.3147e-08
-2.19887e-07
-7.13576e-08
-1.9641e-07
-6.91519e-08
-1.73788e-07
-6.65354e-08
-1.52151e-07
-6.35177e-08
-1.31624e-07
-6.01128e-08
-1.12326e-07
-5.63393e-08
-9.43659e-08
-5.2221e-08
-7.78442e-08
-4.77872e-08
-6.2848e-08
-4.30739e-08
-4.94491e-08
-3.81253e-08
-3.77014e-08
-3.2995e-08
-2.76367e-08
-2.77495e-08
-1.92606e-08
-2.24715e-08
-1.25471e-08
-1.7266e-08
-7.43259e-09
-1.22673e-08
-3.8088e-09
-7.64919e-09
-1.51452e-09
-3.63905e-09
-3.27202e-10
-5.31962e-10
4.79334e-11
1.2897e-09
1.29204e-09
3.32194e-11
-6.41517e-10
-4.52427e-11
-9.16978e-10
-3.69251e-10
-4.50409e-10
-1.03926e-09
5.6088e-10
-2.1302e-09
1.96579e-09
-3.69554e-09
3.64135e-09
-5.77045e-09
5.48861e-09
-8.37472e-09
7.4294e-09
-1.15153e-08
9.40273e-09
-1.51885e-08
1.13617e-08
-1.93825e-08
1.32708e-08
-2.40786e-08
1.51041e-08
-2.92536e-08
1.68431e-08
-3.48805e-08
1.84751e-08
-4.093e-08
1.99928e-08
-4.73716e-08
2.13924e-08
-5.41742e-08
2.26732e-08
-6.13068e-08
2.38371e-08
-6.87391e-08
2.48876e-08
-7.6442e-08
2.58298e-08
-8.43875e-08
2.66696e-08
-9.25495e-08
2.74138e-08
-1.00903e-07
2.80695e-08
-1.09427e-07
2.86444e-08
-1.18099e-07
2.91457e-08
-1.26902e-07
2.95811e-08
-1.35818e-07
2.99577e-08
-1.44832e-07
3.02827e-08
-1.53932e-07
3.05628e-08
-1.63106e-07
3.08044e-08
-1.72345e-07
3.10135e-08
-1.8164e-07
3.11956e-08
-1.90985e-07
3.1356e-08
-2.00374e-07
3.14994e-08
-2.09803e-07
3.16302e-08
-2.1927e-07
3.17522e-08
-2.28772e-07
3.18692e-08
-2.38309e-07
3.19842e-08
-2.4788e-07
3.21001e-08
-2.57485e-07
3.22195e-08
-2.67125e-07
3.23445e-08
-2.76804e-07
3.24771e-08
-2.86522e-07
3.2619e-08
-2.96282e-07
3.27715e-08
-3.06087e-07
3.29359e-08
-3.15941e-07
3.31131e-08
-3.25847e-07
3.3304e-08
-3.35809e-07
3.3509e-08
-3.45831e-07
3.37287e-08
-3.55915e-07
3.39633e-08
-3.66068e-07
3.4213e-08
-3.76291e-07
3.44777e-08
-3.8659e-07
3.47571e-08
-3.96968e-07
3.50511e-08
-4.07428e-07
3.53592e-08
-4.17974e-07
3.56807e-08
-4.2861e-07
3.6015e-08
-4.39338e-07
3.63612e-08
-4.50161e-07
3.67183e-08
-4.61081e-07
3.70852e-08
-4.721e-07
3.74606e-08
-4.8322e-07
3.7843e-08
-4.94441e-07
3.82307e-08
-5.05764e-07
3.86222e-08
-5.17189e-07
3.90153e-08
-5.28716e-07
3.94081e-08
-5.40342e-07
3.97981e-08
-5.52065e-07
4.01829e-08
-5.63882e-07
4.05597e-08
-5.75791e-07
4.09258e-08
-5.87785e-07
4.12779e-08
-5.99858e-07
4.16127e-08
-6.12005e-07
4.19267e-08
-6.24217e-07
4.2216e-08
-6.36485e-07
4.24768e-08
-6.48799e-07
4.27047e-08
-6.61147e-07
4.28952e-08
-6.73517e-07
4.30436e-08
-6.85893e-07
4.31449e-08
-6.9826e-07
4.31941e-08
-7.106e-07
4.31856e-08
-7.22896e-07
4.31139e-08
-7.35125e-07
4.29731e-08
-7.47266e-07
4.27571e-08
-7.59295e-07
4.24598e-08
-7.71186e-07
4.20748e-08
-7.82911e-07
4.15956e-08
-7.94442e-07
4.10155e-08
-8.05746e-07
4.03279e-08
-8.16792e-07
3.95261e-08
-8.27545e-07
3.86031e-08
-8.37967e-07
3.75524e-08
-8.48021e-07
3.63673e-08
-8.57666e-07
3.50413e-08
-8.66862e-07
3.35681e-08
-8.75565e-07
3.19417e-08
-8.83731e-07
3.01563e-08
-8.91314e-07
2.82067e-08
-8.98267e-07
2.60882e-08
-9.04542e-07
2.37964e-08
-9.10091e-07
2.13278e-08
-9.14865e-07
1.86797e-08
-9.18814e-07
1.58501e-08
-9.21888e-07
1.28382e-08
-9.24039e-07
9.64396e-09
-9.25218e-07
6.26878e-09
-9.25378e-07
2.71524e-09
-9.24471e-07
-1.01267e-09
-9.22454e-07
-4.90946e-09
-9.19284e-07
-8.96804e-09
-9.14922e-07
-1.31796e-08
-9.09331e-07
-1.75337e-08
-9.02477e-07
-2.20179e-08
-8.94333e-07
-2.66178e-08
-8.84873e-07
-3.13172e-08
-8.74078e-07
-3.60979e-08
-8.61934e-07
-4.09396e-08
-8.48434e-07
-4.58201e-08
-8.33577e-07
-5.07151e-08
-8.17369e-07
-5.55986e-08
-7.99823e-07
-6.04428e-08
-7.80962e-07
-6.5218e-08
-7.60814e-07
-6.98933e-08
-7.39418e-07
-7.44363e-08
-7.16823e-07
-7.88134e-08
-6.93084e-07
-8.29903e-08
-6.68267e-07
-8.69322e-08
-6.42447e-07
-9.06038e-08
-6.1571e-07
-9.39701e-08
-5.88147e-07
-9.69965e-08
-5.59862e-07
-9.96493e-08
-5.30966e-07
-1.01896e-07
-5.01578e-07
-1.03706e-07
-4.71824e-07
-1.05051e-07
-4.41838e-07
-1.05904e-07
-4.11759e-07
-1.06242e-07
-3.81733e-07
-1.06046e-07
-3.51908e-07
-1.05299e-07
-3.22436e-07
-1.0399e-07
-2.93471e-07
-1.02112e-07
-2.65168e-07
-9.96607e-08
-2.3768e-07
-9.66398e-08
-2.11159e-07
-9.3057e-08
-1.85751e-07
-8.89259e-08
-1.61597e-07
-8.42662e-08
-1.38832e-07
-7.91042e-08
-1.1758e-07
-7.34733e-08
-9.79523e-08
-6.74149e-08
-8.0047e-08
-6.09793e-08
-6.39446e-08
-5.42277e-08
-4.97054e-08
-4.72342e-08
-3.73658e-08
-4.0089e-08
-2.69344e-08
-3.29029e-08
-1.83875e-08
-2.5813e-08
-1.1664e-08
-1.89907e-08
-6.66051e-09
-1.26527e-08
-3.22584e-09
-7.07372e-09
-1.15615e-09
-2.60166e-09
-1.89831e-10
3.23379e-10
1.10221e-09
-4.33944e-11
-5.98133e-10
-3.19587e-10
-6.40774e-10
-9.43578e-10
1.73595e-10
-2.00385e-09
1.62115e-09
-3.56684e-09
3.52878e-09
-5.6798e-09
5.7543e-09
-8.37328e-09
8.18208e-09
-1.16635e-08
1.07196e-08
-1.55544e-08
1.32937e-08
-2.004e-08
1.58473e-08
-2.5106e-08
1.83368e-08
-3.07313e-08
2.07295e-08
-3.68903e-08
2.3002e-08
-4.35534e-08
2.51382e-08
-5.06886e-08
2.71281e-08
-5.82627e-08
2.89665e-08
-6.62415e-08
3.06521e-08
-7.45913e-08
3.21868e-08
-8.32785e-08
3.35749e-08
-9.22712e-08
3.48224e-08
-1.01538e-07
3.59368e-08
-1.11051e-07
3.69266e-08
-1.20782e-07
3.78007e-08
-1.30707e-07
3.85687e-08
-1.40801e-07
3.92402e-08
-1.51045e-07
3.98247e-08
-1.61419e-07
4.03316e-08
-1.71906e-07
4.077e-08
-1.82492e-07
4.11487e-08
-1.93164e-07
4.1476e-08
-2.0391e-07
4.17597e-08
-2.14721e-07
4.2007e-08
-2.2559e-07
4.22248e-08
-2.3651e-07
4.24193e-08
-2.47476e-07
4.25963e-08
-2.58485e-07
4.27609e-08
-2.69534e-07
4.29179e-08
-2.80621e-07
4.30715e-08
-2.91746e-07
4.32255e-08
-3.0291e-07
4.33832e-08
-3.14113e-07
4.35476e-08
-3.25357e-07
4.37213e-08
-3.36645e-07
4.39064e-08
-3.47978e-07
4.41049e-08
-3.59361e-07
4.43185e-08
-3.70796e-07
4.45483e-08
-3.82287e-07
4.47955e-08
-3.93839e-07
4.50608e-08
-4.05455e-07
4.53449e-08
-4.1714e-07
4.56481e-08
-4.28897e-07
4.59705e-08
-4.40732e-07
4.63121e-08
-4.52647e-07
4.66727e-08
-4.64648e-07
4.70518e-08
-4.76738e-07
4.74488e-08
-4.8892e-07
4.78629e-08
-5.01198e-07
4.82932e-08
-5.13575e-07
4.87384e-08
-5.26054e-07
4.91972e-08
-5.38637e-07
4.96681e-08
-5.51326e-07
5.01493e-08
-5.64121e-07
5.06388e-08
-5.77025e-07
5.11344e-08
-5.90037e-07
5.16338e-08
-6.03156e-07
5.21343e-08
-6.16381e-07
5.26331e-08
-6.2971e-07
5.31271e-08
-6.4314e-07
5.36128e-08
-6.56667e-07
5.40867e-08
-6.70286e-07
5.45449e-08
-6.83991e-07
5.49832e-08
-6.97776e-07
5.53971e-08
-7.11631e-07
5.57819e-08
-7.25547e-07
5.61325e-08
-7.39514e-07
5.64437e-08
-7.53519e-07
5.67097e-08
-7.67549e-07
5.69247e-08
-7.81588e-07
5.70823e-08
-7.95619e-07
5.71761e-08
-8.09624e-07
5.71991e-08
-8.23582e-07
5.71443e-08
-8.37473e-07
5.70043e-08
-8.51271e-07
5.67715e-08
-8.64952e-07
5.64378e-08
-8.78487e-07
5.59953e-08
-8.91848e-07
5.54356e-08
-9.05003e-07
5.47503e-08
-9.17918e-07
5.39308e-08
-9.30559e-07
5.29684e-08
-9.42887e-07
5.18543e-08
-9.54864e-07
5.058e-08
-9.66448e-07
4.91367e-08
-9.77597e-07
4.7516e-08
-9.88265e-07
4.57096e-08
-9.98406e-07
4.37095e-08
-1.00797e-06
4.15081e-08
-1.01691e-06
3.90983e-08
-1.02518e-06
3.64733e-08
-1.03272e-06
3.36274e-08
-1.03948e-06
3.05553e-08
-1.0454e-06
2.72528e-08
-1.05044e-06
2.37167e-08
-1.05454e-06
1.99447e-08
-1.05763e-06
1.59362e-08
-1.05968e-06
1.16917e-08
-1.06063e-06
7.21324e-09
-1.06042e-06
2.50468e-09
-1.059e-06
-2.42839e-09
-1.05633e-06
-7.57844e-09
-1.05236e-06
-1.29359e-08
-1.04705e-06
-1.8489e-08
-1.04036e-06
-2.42237e-08
-1.03226e-06
-3.01236e-08
-1.02271e-06
-3.61698e-08
-1.01168e-06
-4.2341e-08
-9.99167e-07
-4.86133e-08
-9.85146e-07
-5.49603e-08
-9.69613e-07
-6.1353e-08
-9.52568e-07
-6.776e-08
-9.3402e-07
-7.41474e-08
-9.13983e-07
-8.04792e-08
-8.92484e-07
-8.67172e-08
-8.69556e-07
-9.28212e-08
-8.45243e-07
-9.87495e-08
-8.19598e-07
-1.04459e-07
-7.92683e-07
-1.09905e-07
-7.64573e-07
-1.15043e-07
-7.35349e-07
-1.19827e-07
-7.05106e-07
-1.24213e-07
-6.73947e-07
-1.28156e-07
-6.41984e-07
-1.31612e-07
-6.0934e-07
-1.3454e-07
-5.76146e-07
-1.369e-07
-5.42541e-07
-1.38655e-07
-5.08672e-07
-1.39772e-07
-4.74693e-07
-1.40221e-07
-4.40763e-07
-1.39976e-07
-4.07046e-07
-1.39017e-07
-3.73708e-07
-1.37328e-07
-3.4092e-07
-1.349e-07
-3.08851e-07
-1.31729e-07
-2.77671e-07
-1.2782e-07
-2.47544e-07
-1.23183e-07
-2.18634e-07
-1.17836e-07
-1.91096e-07
-1.11804e-07
-1.65077e-07
-1.05124e-07
-1.40712e-07
-9.78379e-08
-1.18126e-07
-9.00013e-08
-9.74249e-08
-8.168e-08
-7.8699e-08
-7.29535e-08
-6.20158e-08
-6.39175e-08
-4.74179e-08
-5.46869e-08
-3.49201e-08
-4.54007e-08
-2.45053e-08
-3.62278e-08
-1.61209e-08
-2.73752e-08
-9.67566e-09
-1.90979e-08
-5.03715e-09
-1.17122e-08
-2.03009e-09
-5.60872e-09
-4.36697e-10
-1.27001e-09
6.65508e-10
-1.26228e-10
-4.71911e-10
-6.19487e-10
-1.47517e-10
-1.57329e-09
1.12741e-09
-3.06098e-09
3.10884e-09
-5.13767e-09
5.60547e-09
-7.84197e-09
8.45859e-09
-1.11977e-08
1.15378e-08
-1.52157e-08
1.47376e-08
-1.98958e-08
1.79738e-08
-2.52283e-08
2.11797e-08
-3.11955e-08
2.4304e-08
-3.77738e-08
2.73078e-08
-4.49347e-08
3.01628e-08
-5.26459e-08
3.28494e-08
-6.08728e-08
3.53551e-08
-6.95795e-08
3.76732e-08
-7.87293e-08
3.98019e-08
-8.82856e-08
4.17431e-08
-9.82124e-08
4.35017e-08
-1.08475e-07
4.5085e-08
-1.1904e-07
4.65018e-08
-1.29876e-07
4.77625e-08
-1.40953e-07
4.8878e-08
-1.52244e-07
4.98598e-08
-1.63724e-07
5.07199e-08
-1.75369e-07
5.147e-08
-1.87159e-07
5.21218e-08
-1.99076e-07
5.26865e-08
-2.11102e-07
5.3175e-08
-2.23224e-07
5.35977e-08
-2.35429e-07
5.39644e-08
-2.47706e-07
5.42843e-08
-2.60047e-07
5.45658e-08
-2.72444e-07
5.48168e-08
-2.84893e-07
5.50447e-08
-2.97388e-07
5.52558e-08
-3.09926e-07
5.54563e-08
-3.22506e-07
5.56515e-08
-3.35127e-07
5.58462e-08
-3.47788e-07
5.60446e-08
-3.60491e-07
5.62507e-08
-3.73237e-07
5.64676e-08
-3.86029e-07
5.66981e-08
-3.98869e-07
5.69448e-08
-4.1176e-07
5.72097e-08
-4.24706e-07
5.74945e-08
-4.37711e-07
5.78005e-08
-4.50779e-07
5.81287e-08
-4.63914e-07
5.848e-08
-4.77121e-07
5.88547e-08
-4.90404e-07
5.9253e-08
-5.03766e-07
5.96749e-08
-5.17214e-07
6.01201e-08