/*--------------------------------*- C++ -*----------------------------------*\
  =========                 |
  \\      /  F ield         | OpenFOAM: The Open Source CFD Toolbox
   \\    /   O peration     | Website:  https://openfoam.org
    \\  /    A nd           | Version:  7
     \\/     M anipulation  |
\*---------------------------------------------------------------------------*/
FoamFile
{
    version     2.0;
    format      ascii;
    class       volVectorField;
    location    "0.4875";
    object      U;
}
// * * * * * * * * * * * * * * * * * * * * * * * * * * * * * * * * * * * * * //

dimensions      [0 1 -1 0 0 0 0];

internalField   nonuniform List<vector> 
12800
(
(3.14293e-06 -3.37605e-06 0)
(1.80507e-05 -9.77221e-06 0)
(4.39856e-05 -1.19928e-05 0)
(7.02871e-05 -1.10778e-05 0)
(9.03642e-05 -8.41694e-06 0)
(0.000100895 -4.86893e-06 0)
(0.000100086 -9.30385e-07 0)
(8.70893e-05 3.10686e-06 0)
(6.16938e-05 7.07231e-06 0)
(2.41081e-05 1.08661e-05 0)
(-2.52081e-05 1.44275e-05 0)
(-8.56227e-05 1.77331e-05 0)
(-0.000156396 2.07657e-05 0)
(-0.000236743 2.35218e-05 0)
(-0.000325856 2.60063e-05 0)
(-0.000422926 2.82286e-05 0)
(-0.000527166 3.02016e-05 0)
(-0.000637817 3.19405e-05 0)
(-0.000754162 3.3462e-05 0)
(-0.000875529 3.47836e-05 0)
(-0.00100129 3.59232e-05 0)
(-0.00113089 3.68982e-05 0)
(-0.00126379 3.7726e-05 0)
(-0.00139954 3.84233e-05 0)
(-0.00153771 3.90061e-05 0)
(-0.00167793 3.94894e-05 0)
(-0.00181989 3.98874e-05 0)
(-0.0019633 4.02133e-05 0)
(-0.00210793 4.04792e-05 0)
(-0.00225358 4.06963e-05 0)
(-0.00240009 4.08747e-05 0)
(-0.00254733 4.10237e-05 0)
(-0.00269519 4.11514e-05 0)
(-0.0028436 4.12654e-05 0)
(-0.00299252 4.13722e-05 0)
(-0.0031419 4.14776e-05 0)
(-0.00329175 4.15868e-05 0)
(-0.00344207 4.17041e-05 0)
(-0.00359288 4.18335e-05 0)
(-0.00374422 4.19783e-05 0)
(-0.00389613 4.21413e-05 0)
(-0.00404868 4.23251e-05 0)
(-0.00420191 4.25315e-05 0)
(-0.00435592 4.27624e-05 0)
(-0.00451077 4.30189e-05 0)
(-0.00466655 4.33024e-05 0)
(-0.00482334 4.36136e-05 0)
(-0.00498123 4.39531e-05 0)
(-0.00514032 4.43215e-05 0)
(-0.00530069 4.4719e-05 0)
(-0.00546244 4.51456e-05 0)
(-0.00562566 4.56014e-05 0)
(-0.00579045 4.6086e-05 0)
(-0.0059569 4.65992e-05 0)
(-0.00612509 4.71405e-05 0)
(-0.00629512 4.77092e-05 0)
(-0.00646707 4.83045e-05 0)
(-0.00664102 4.89254e-05 0)
(-0.00681706 4.95709e-05 0)
(-0.00699525 5.02397e-05 0)
(-0.00717567 5.09303e-05 0)
(-0.00735837 5.16411e-05 0)
(-0.00754341 5.23702e-05 0)
(-0.00773084 5.31155e-05 0)
(-0.00792071 5.38748e-05 0)
(-0.00811303 5.46454e-05 0)
(-0.00830784 5.54246e-05 0)
(-0.00850514 5.62092e-05 0)
(-0.00870493 5.69956e-05 0)
(-0.00890719 5.77803e-05 0)
(-0.0091119 5.85592e-05 0)
(-0.00931901 5.93278e-05 0)
(-0.00952846 6.00814e-05 0)
(-0.00974018 6.08148e-05 0)
(-0.00995405 6.15224e-05 0)
(-0.01017 6.21982e-05 0)
(-0.0103878 6.28356e-05 0)
(-0.0106073 6.34279e-05 0)
(-0.0108285 6.39677e-05 0)
(-0.0110509 6.44472e-05 0)
(-0.0112744 6.48581e-05 0)
(-0.0114988 6.51917e-05 0)
(-0.0117237 6.54388e-05 0)
(-0.0119487 6.55895e-05 0)
(-0.0121736 6.56338e-05 0)
(-0.0123979 6.5561e-05 0)
(-0.0126211 6.536e-05 0)
(-0.0128429 6.50193e-05 0)
(-0.0130626 6.45272e-05 0)
(-0.0132797 6.38713e-05 0)
(-0.0134937 6.30393e-05 0)
(-0.0137038 6.20183e-05 0)
(-0.0139095 6.07956e-05 0)
(-0.01411 5.9358e-05 0)
(-0.0143045 5.76927e-05 0)
(-0.0144922 5.57868e-05 0)
(-0.0146723 5.36275e-05 0)
(-0.0148439 5.12026e-05 0)
(-0.0150061 4.85001e-05 0)
(-0.0151579 4.55091e-05 0)
(-0.0152985 4.22189e-05 0)
(-0.0154266 3.86204e-05 0)
(-0.0155414 3.47054e-05 0)
(-0.0156417 3.04669e-05 0)
(-0.0157266 2.59e-05 0)
(-0.0157948 2.10013e-05 0)
(-0.0158454 1.57696e-05 0)
(-0.0158772 1.0206e-05 0)
(-0.0158893 4.31443e-06 0)
(-0.0158805 -1.89811e-06 0)
(-0.0158499 -8.42241e-06 0)
(-0.0157964 -1.52453e-05 0)
(-0.0157193 -2.23501e-05 0)
(-0.0156177 -2.97165e-05 0)
(-0.0154907 -3.732e-05 0)
(-0.0153378 -4.51323e-05 0)
(-0.0151583 -5.31206e-05 0)
(-0.0149519 -6.12482e-05 0)
(-0.0147182 -6.94738e-05 0)
(-0.014457 -7.77521e-05 0)
(-0.0141683 -8.60335e-05 0)
(-0.0138523 -9.42647e-05 0)
(-0.0135093 -0.000102388 0)
(-0.0131398 -0.000110345 0)
(-0.0127446 -0.00011807 0)
(-0.0123246 -0.000125498 0)
(-0.0118808 -0.000132562 0)
(-0.0114148 -0.000139194 0)
(-0.0109281 -0.000145323 0)
(-0.0104224 -0.000150883 0)
(-0.00989974 -0.000155805 0)
(-0.00936244 -0.000160024 0)
(-0.00881286 -0.000163478 0)
(-0.00825363 -0.000166108 0)
(-0.00768754 -0.000167862 0)
(-0.00711753 -0.000168692 0)
(-0.0065467 -0.000168556 0)
(-0.00597824 -0.000167419 0)
(-0.00541546 -0.000165255 0)
(-0.00486172 -0.000162046 0)
(-0.00432043 -0.000157781 0)
(-0.00379501 -0.000152457 0)
(-0.00328887 -0.00014608 0)
(-0.00280538 -0.000138666 0)
(-0.00234783 -0.000130236 0)
(-0.00191941 -0.000120819 0)
(-0.00152317 -0.00011045 0)
(-0.00116203 -9.91742e-05 0)
(-0.000838683 -8.70401e-05 0)
(-0.000555598 -7.41074e-05 0)
(-0.000314953 -6.04489e-05 0)
(-0.000118559 -4.61603e-05 0)
(3.22536e-05 -3.13799e-05 0)
(0.000136832 -1.63261e-05 0)
(0.000195532 -1.37863e-06 0)
(0.000210277 1.27643e-05 0)
(0.000185416 2.48174e-05 0)
(0.000129604 3.23043e-05 0)
(6.16237e-05 3.06158e-05 0)
(1.39242e-05 1.3944e-05 0)
(9.66908e-06 -1.84204e-05 0)
(4.16318e-05 -4.18018e-05 0)
(8.82103e-05 -4.79515e-05 0)
(0.000130782 -4.11302e-05 0)
(0.000156875 -2.60261e-05 0)
(0.000159135 -6.00078e-06 0)
(0.000132946 1.66711e-05 0)
(7.57168e-05 4.0464e-05 0)
(-1.36069e-05 6.43643e-05 0)
(-0.000134979 8.77021e-05 0)
(-0.000287597 0.000110034 0)
(-0.000470133 0.000131092 0)
(-0.000680912 0.000150706 0)
(-0.00091805 0.000168787 0)
(-0.00117954 0.000185307 0)
(-0.00146334 0.000200279 0)
(-0.00176741 0.000213745 0)
(-0.00208976 0.00022577 0)
(-0.00242848 0.000236435 0)
(-0.00278176 0.000245828 0)
(-0.00314792 0.000254048 0)
(-0.00352537 0.000261192 0)
(-0.0039127 0.000267362 0)
(-0.00430858 0.000272656 0)
(-0.00471184 0.000277172 0)
(-0.00512144 0.000281002 0)
(-0.00553645 0.000284235 0)
(-0.00595606 0.000286955 0)
(-0.00637958 0.00028924 0)
(-0.00680642 0.000291162 0)
(-0.0072361 0.000292789 0)
(-0.0076682 0.000294181 0)
(-0.00810241 0.000295395 0)
(-0.00853848 0.00029648 0)
(-0.00897625 0.000297483 0)
(-0.0094156 0.000298443 0)
(-0.00985646 0.000299397 0)
(-0.0102988 0.000300377 0)
(-0.0107428 0.000301409 0)
(-0.0111883 0.00030252 0)
(-0.0116356 0.000303729 0)
(-0.0120848 0.000305055 0)
(-0.0125359 0.000306512 0)
(-0.0129893 0.000308115 0)
(-0.0134451 0.000309874 0)
(-0.0139036 0.000311796 0)
(-0.0143649 0.00031389 0)
(-0.0148292 0.00031616 0)
(-0.0152969 0.00031861 0)
(-0.0157682 0.000321243 0)
(-0.0162433 0.000324059 0)
(-0.0167225 0.000327057 0)
(-0.017206 0.000330237 0)
(-0.0176941 0.000333596 0)
(-0.0181871 0.00033713 0)
(-0.018685 0.000340833 0)
(-0.0191883 0.000344701 0)
(-0.019697 0.000348725 0)
(-0.0202114 0.000352897 0)
(-0.0207318 0.000357207 0)
(-0.0212582 0.000361644 0)
(-0.0217908 0.000366195 0)
(-0.0223297 0.000370846 0)
(-0.0228751 0.000375582 0)
(-0.0234271 0.000380385 0)
(-0.0239857 0.000385235 0)
(-0.0245509 0.000390112 0)
(-0.0251228 0.000394993 0)
(-0.0257012 0.000399853 0)
(-0.0262862 0.000404664 0)
(-0.0268776 0.000409397 0)
(-0.0274753 0.00041402 0)
(-0.0280789 0.000418499 0)
(-0.0286884 0.000422797 0)
(-0.0293032 0.000426874 0)
(-0.0299232 0.000430689 0)
(-0.0305477 0.000434195 0)
(-0.0311764 0.000437346 0)
(-0.0318086 0.000440091 0)
(-0.0324437 0.000442376 0)
(-0.0330808 0.000444144 0)
(-0.0337194 0.000445337 0)
(-0.0343583 0.000445892 0)
(-0.0349966 0.000445743 0)
(-0.0356333 0.000444823 0)
(-0.036267 0.000443063 0)
(-0.0368967 0.000440388 0)
(-0.0375208 0.000436723 0)
(-0.0381378 0.000431993 0)
(-0.0387462 0.000426119 0)
(-0.0393442 0.00041902 0)
(-0.03993 0.000410617 0)
(-0.0405017 0.000400827 0)
(-0.0410573 0.000389571 0)
(-0.0415944 0.000376768 0)
(-0.042111 0.00036234 0)
(-0.0426047 0.000346211 0)
(-0.0430728 0.000328307 0)
(-0.043513 0.000308559 0)
(-0.0439226 0.000286904 0)
(-0.0442988 0.000263283 0)
(-0.0446388 0.000237647 0)
(-0.0449398 0.000209953 0)
(-0.045199 0.00018017 0)
(-0.0454133 0.000148276 0)
(-0.0455799 0.000114264 0)
(-0.0456958 7.81401e-05 0)
(-0.0457581 3.99251e-05 0)
(-0.0457641 -3.41892e-07 0)
(-0.0457109 -4.26033e-05 0)
(-0.0455959 -8.67827e-05 0)
(-0.0454166 -0.000132782 0)
(-0.0451706 -0.000180479 0)
(-0.0448557 -0.000229732 0)
(-0.0444701 -0.00028037 0)
(-0.0440119 -0.000332201 0)
(-0.0434799 -0.000385004 0)
(-0.0428729 -0.000438536 0)
(-0.0421904 -0.000492523 0)
(-0.0414319 -0.000546672 0)
(-0.0405976 -0.000600661 0)
(-0.0396882 -0.000654148 0)
(-0.0387046 -0.000706768 0)
(-0.0376485 -0.000758138 0)
(-0.036522 -0.000807859 0)
(-0.0353278 -0.000855517 0)
(-0.0340693 -0.000900692 0)
(-0.0327501 -0.000942956 0)
(-0.0313748 -0.00098188 0)
(-0.0299484 -0.00101704 0)
(-0.0284764 -0.00104802 0)
(-0.0269649 -0.00107443 0)
(-0.0254207 -0.00109587 0)
(-0.0238509 -0.001112 0)
(-0.0222631 -0.00112248 0)
(-0.0206654 -0.00112703 0)
(-0.019066 -0.0011254 0)
(-0.0174739 -0.00111738 0)
(-0.0158978 -0.00110282 0)
(-0.0143469 -0.0010816 0)
(-0.0128305 -0.00105368 0)
(-0.0113577 -0.00101906 0)
(-0.00993778 -0.000977802 0)
(-0.00857974 -0.000930017 0)
(-0.0072924 -0.000875883 0)
(-0.00608427 -0.000815635 0)
(-0.00496345 -0.00074957 0)
(-0.0039375 -0.000678053 0)
(-0.0030134 -0.000601529 0)
(-0.00219729 -0.000520545 0)
(-0.00149441 -0.000435785 0)
(-0.000908716 -0.000348135 0)
(-0.00044263 -0.0002588 0)
(-9.64361e-05 -0.00016949 0)
(0.000132499 -8.27608e-05 0)
(0.000250931 -2.57225e-06 0)
(0.000271227 6.48089e-05 0)
(0.000213854 0.000109334 0)
(0.000114894 0.000115148 0)
(3.04327e-05 6.14996e-05 0)
(1.20596e-05 -4.43061e-05 0)
(4.82012e-05 -8.8431e-05 0)
(9.52193e-05 -9.48661e-05 0)
(0.000130401 -7.33214e-05 0)
(0.000138599 -3.26008e-05 0)
(0.000110375 2.04117e-05 0)
(3.94094e-05 8.06103e-05 0)
(-7.81099e-05 0.000144309 0)
(-0.000243954 0.000208892 0)
(-0.000458352 0.000272526 0)
(-0.000720403 0.000333942 0)
(-0.00102839 0.000392292 0)
(-0.00138003 0.000447027 0)
(-0.00177267 0.000497826 0)
(-0.00220341 0.000544535 0)
(-0.00266926 0.000587127 0)
(-0.0031672 0.000625668 0)
(-0.00369424 0.000660293 0)
(-0.0042475 0.000691186 0)
(-0.00482421 0.000718567 0)
(-0.00542176 0.00074268 0)
(-0.00603775 0.000763781 0)
(-0.00666991 0.000782135 0)
(-0.0073162 0.000798004 0)
(-0.00797476 0.00081165 0)
(-0.00864394 0.000823325 0)
(-0.00932225 0.000833272 0)
(-0.0100084 0.000841721 0)
(-0.0107012 0.000848891 0)
(-0.0113998 0.000854983 0)
(-0.0121033 0.000860187 0)
(-0.0128111 0.000864675 0)
(-0.0135226 0.000868606 0)
(-0.0142374 0.000872125 0)
(-0.0149552 0.00087536 0)
(-0.0156757 0.00087843 0)
(-0.0163989 0.000881439 0)
(-0.0171247 0.000884479 0)
(-0.0178531 0.000887633 0)
(-0.0185842 0.000890971 0)
(-0.0193182 0.000894557 0)
(-0.0200552 0.000898443 0)
(-0.0207955 0.000902677 0)
(-0.0215393 0.000907296 0)
(-0.0222869 0.000912333 0)
(-0.0230387 0.000917815 0)
(-0.023795 0.000923762 0)
(-0.0245562 0.00093019 0)
(-0.0253225 0.00093711 0)
(-0.0260945 0.000944531 0)
(-0.0268724 0.000952453 0)
(-0.0276566 0.000960878 0)
(-0.0284476 0.0009698 0)
(-0.0292457 0.000979211 0)
(-0.0300513 0.000989101 0)
(-0.0308647 0.000999453 0)
(-0.0316862 0.00101025 0)
(-0.0325162 0.00102147 0)
(-0.0333551 0.00103308 0)
(-0.0342029 0.00104506 0)
(-0.0350601 0.00105737 0)
(-0.0359268 0.00106998 0)
(-0.0368032 0.00108284 0)
(-0.0376895 0.0010959 0)
(-0.0385858 0.00110911 0)
(-0.0394921 0.00112242 0)
(-0.0404084 0.00113576 0)
(-0.0413347 0.00114907 0)
(-0.042271 0.00116226 0)
(-0.043217 0.00117526 0)
(-0.0441724 0.00118798 0)
(-0.0451371 0.00120033 0)
(-0.0461106 0.00121221 0)
(-0.0470924 0.00122351 0)
(-0.0480819 0.00123411 0)
(-0.0490786 0.0012439 0)
(-0.0500816 0.00125273 0)
(-0.0510901 0.00126048 0)
(-0.0521031 0.001267 0)
(-0.0531195 0.00127213 0)
(-0.054138 0.00127571 0)
(-0.0551573 0.00127757 0)
(-0.0561759 0.00127753 0)
(-0.0571922 0.00127542 0)
(-0.0582043 0.00127103 0)
(-0.0592103 0.00126417 0)
(-0.0602082 0.00125464 0)
(-0.0611956 0.00124222 0)
(-0.0621702 0.0012267 0)
(-0.0631292 0.00120786 0)
(-0.0640701 0.00118548 0)
(-0.0649898 0.00115934 0)
(-0.0658853 0.00112921 0)
(-0.0667532 0.00109488 0)
(-0.0675902 0.00105613 0)
(-0.0683927 0.00101275 0)
(-0.0691569 0.000964526 0)
(-0.0698789 0.000911272 0)
(-0.0705547 0.000852805 0)
(-0.0711801 0.00078896 0)
(-0.071751 0.000719587 0)
(-0.0722629 0.000644563 0)
(-0.0727115 0.000563786 0)
(-0.0730921 0.000477185 0)
(-0.0734005 0.00038472 0)
(-0.0736319 0.000286387 0)
(-0.0737821 0.000182223 0)
(-0.0738465 7.23088e-05 0)
(-0.0738208 -4.32273e-05 0)
(-0.0737008 -0.000164206 0)
(-0.0734827 -0.000290391 0)
(-0.0731624 -0.00042149 0)
(-0.0727367 -0.000557148 0)
(-0.0722022 -0.000696945 0)
(-0.0715561 -0.000840395 0)
(-0.070796 -0.000986944 0)
(-0.06992 -0.00113597 0)
(-0.0689265 -0.00128678 0)
(-0.0678148 -0.0014386 0)
(-0.0665845 -0.00159062 0)
(-0.0652361 -0.00174195 0)
(-0.0637707 -0.00189161 0)
(-0.0621901 -0.00203862 0)
(-0.060497 -0.00218191 0)
(-0.0586949 -0.00232038 0)
(-0.0567882 -0.00245289 0)
(-0.054782 -0.0025783 0)
(-0.0526824 -0.00269543 0)
(-0.0504964 -0.00280312 0)
(-0.0482317 -0.0029002 0)
(-0.0458972 -0.00298556 0)
(-0.0435024 -0.00305809 0)
(-0.0410575 -0.00311677 0)
(-0.0385737 -0.00316064 0)
(-0.0360627 -0.0031888 0)
(-0.033537 -0.00320048 0)
(-0.0310095 -0.00319501 0)
(-0.0284935 -0.00317183 0)
(-0.0260028 -0.00313052 0)
(-0.0235515 -0.00307083 0)
(-0.0211536 -0.00299261 0)
(-0.0188234 -0.0028959 0)
(-0.0165748 -0.0027809 0)
(-0.0144217 -0.00264796 0)
(-0.0123775 -0.00249763 0)
(-0.0104551 -0.00233063 0)
(-0.00866665 -0.00214786 0)
(-0.00702358 -0.00195047 0)
(-0.00553614 -0.00173986 0)
(-0.00421326 -0.00151773 0)
(-0.00306229 -0.00128626 0)
(-0.00208851 -0.0010482 0)
(-0.00129469 -0.000807197 0)
(-0.000680266 -0.000568195 0)
(-0.000240392 -0.000338142 0)
(3.54477e-05 -0.000126987 0)
(0.00016494 5.08013e-05 0)
(0.000175086 0.000174341 0)
(0.000109175 0.000214003 0)
(3.1991e-05 0.000129066 0)
(1.13046e-05 -7.08734e-05 0)
(4.17963e-05 -0.000131329 0)
(7.41934e-05 -0.000130163 0)
(8.46335e-05 -8.38837e-05 0)
(5.70159e-05 -5.83513e-06 0)
(-1.90474e-05 9.33108e-05 0)
(-0.000150698 0.000205311 0)
(-0.00034238 0.000323972 0)
(-0.000596275 0.00044472 0)
(-0.000912785 0.000564224 0)
(-0.00129095 0.000680108 0)
(-0.00172879 0.000790715 0)
(-0.0022236 0.000894937 0)
(-0.00277214 0.000992085 0)
(-0.00337086 0.00108179 0)
(-0.00401603 0.00116393 0)
(-0.00470384 0.00123855 0)
(-0.0054305 0.00130587 0)
(-0.00619233 0.00136618 0)
(-0.00698576 0.00141986 0)
(-0.00780742 0.00146734 0)
(-0.00865415 0.00150908 0)
(-0.00952301 0.00154555 0)
(-0.0104113 0.00157724 0)
(-0.0113165 0.00160463 0)
(-0.0122366 0.0016282 0)
(-0.0131693 0.0016484 0)
(-0.0141131 0.00166566 0)
(-0.0150664 0.00168039 0)
(-0.0160279 0.00169298 0)
(-0.0169964 0.0017038 0)
(-0.017971 0.00171316 0)
(-0.018951 0.00172139 0)
(-0.0199357 0.00172875 0)
(-0.0209248 0.00173551 0)
(-0.0219178 0.00174188 0)
(-0.0229146 0.00174807 0)
(-0.023915 0.00175427 0)
(-0.0249191 0.00176063 0)
(-0.0259269 0.0017673 0)
(-0.0269387 0.0017744 0)
(-0.0279545 0.00178203 0)
(-0.0289747 0.0017903 0)
(-0.0299997 0.00179927 0)
(-0.0310297 0.00180901 0)
(-0.0320652 0.00181957 0)
(-0.0331067 0.00183101 0)
(-0.0341545 0.00184334 0)
(-0.0352091 0.00185659 0)
(-0.0362711 0.00187078 0)
(-0.0373408 0.00188591 0)
(-0.0384188 0.00190199 0)
(-0.0395056 0.00191899 0)
(-0.0406017 0.00193691 0)
(-0.0417074 0.00195573 0)
(-0.0428232 0.0019754 0)
(-0.0439497 0.0019959 0)
(-0.0450871 0.00201718 0)
(-0.0462359 0.00203919 0)
(-0.0473964 0.00206186 0)
(-0.0485688 0.00208513 0)
(-0.0497535 0.00210892 0)
(-0.0509507 0.00213314 0)
(-0.0521605 0.00215771 0)
(-0.053383 0.00218251 0)
(-0.0546183 0.00220743 0)
(-0.0558663 0.00223234 0)
(-0.0571269 0.00225712 0)
(-0.0583999 0.0022816 0)
(-0.0596852 0.00230564 0)
(-0.0609822 0.00232905 0)
(-0.0622905 0.00235166 0)
(-0.0636095 0.00237326 0)
(-0.0649386 0.00239364 0)
(-0.0662768 0.00241258 0)
(-0.0676234 0.00242984 0)
(-0.0689771 0.00244515 0)
(-0.0703367 0.00245826 0)
(-0.0717009 0.00246887 0)
(-0.073068 0.00247669 0)
(-0.0744365 0.0024814 0)
(-0.0758043 0.00248267 0)
(-0.0771694 0.00248017 0)
(-0.0785295 0.00247353 0)
(-0.0798823 0.00246238 0)
(-0.0812249 0.00244636 0)
(-0.0825546 0.00242506 0)
(-0.0838682 0.00239808 0)
(-0.0851625 0.00236502 0)
(-0.0864339 0.00232547 0)
(-0.0876788 0.002279 0)
(-0.0888932 0.0022252 0)
(-0.0900728 0.00216365 0)
(-0.0912135 0.00209394 0)
(-0.0923104 0.00201566 0)
(-0.093359 0.00192843 0)
(-0.0943542 0.00183187 0)
(-0.0952908 0.00172563 0)
(-0.0961636 0.00160936 0)
(-0.0969671 0.00148279 0)
(-0.0976956 0.00134565 0)
(-0.0983436 0.00119772 0)
(-0.0989051 0.00103884 0)
(-0.0993744 0.000868888 0)
(-0.0997456 0.000687821 0)
(-0.100013 0.000495659 0)
(-0.10017 0.0002925 0)
(-0.100213 7.85258e-05 0)
(-0.100134 -0.000145991 0)
(-0.0999293 -0.00038068 0)
(-0.0995931 -0.000625066 0)
(-0.0991209 -0.000878564 0)
(-0.0985082 -0.00114047 0)
(-0.097751 -0.00140997 0)
(-0.0968459 -0.00168612 0)
(-0.0957898 -0.00196784 0)
(-0.0945805 -0.00225393 0)
(-0.0932163 -0.00254306 0)
(-0.0916963 -0.00283379 0)
(-0.0900204 -0.00312453 0)
(-0.0881893 -0.00341358 0)
(-0.0862047 -0.00369914 0)
(-0.0840694 -0.00397931 0)
(-0.0817869 -0.00425209 0)
(-0.079362 -0.00451541 0)
(-0.0768006 -0.00476714 0)
(-0.0741095 -0.00500511 0)
(-0.0712969 -0.00522712 0)
(-0.0683719 -0.005431 0)
(-0.0653448 -0.00561459 0)
(-0.0622271 -0.00577576 0)
(-0.0590312 -0.0059125 0)
(-0.0557706 -0.00602287 0)
(-0.0524598 -0.00610507 0)
(-0.049114 -0.00615747 0)
(-0.0457495 -0.00617861 0)
(-0.0423829 -0.00616724 0)
(-0.0390317 -0.00612236 0)
(-0.0357137 -0.00604318 0)
(-0.0324469 -0.00592923 0)
(-0.0292498 -0.00578029 0)
(-0.0261406 -0.00559646 0)
(-0.0231374 -0.00537814 0)
(-0.020258 -0.00512608 0)
(-0.0175197 -0.00484137 0)
(-0.014939 -0.00452544 0)
(-0.0125315 -0.00418017 0)
(-0.0103116 -0.00380784 0)
(-0.00829212 -0.00341129 0)
(-0.00648419 -0.002994 0)
(-0.00489673 -0.00256031 0)
(-0.00353593 -0.00211569 0)
(-0.0024047 -0.00166717 0)
(-0.00150183 -0.00122403 0)
(-0.000820997 -0.000798742 0)
(-0.000349476 -0.000408341 0)
(-6.68085e-05 -7.63233e-05 0)
(5.69609e-05 0.000165172 0)
(6.64257e-05 0.000272665 0)
(2.46624e-05 0.000184733 0)
(8.77092e-06 -9.14774e-05 0)
(2.68799e-05 -0.000157867 0)
(3.32804e-05 -0.000138335 0)
(5.59412e-06 -5.61305e-05 0)
(-7.18897e-05 7.07987e-05 0)
(-0.000209724 0.000228008 0)
(-0.000415214 0.00040411 0)
(-0.000692938 0.000590328 0)
(-0.00104516 0.000780005 0)
(-0.00147228 0.000968163 0)
(-0.0019732 0.00115115 0)
(-0.00254572 0.00132637 0)
(-0.00318675 0.001492 0)
(-0.00389263 0.00164691 0)
(-0.00465928 0.00179042 0)
(-0.00548236 0.00192225 0)
(-0.00635744 0.00204242 0)
(-0.00728008 0.00215118 0)
(-0.00824591 0.00224895 0)
(-0.00925073 0.00233626 0)
(-0.0102905 0.00241376 0)
(-0.0113614 0.00248213 0)
(-0.01246 0.0025421 0)
(-0.0135829 0.00259441 0)
(-0.0147272 0.00263982 0)
(-0.0158901 0.00267905 0)
(-0.0170693 0.00271282 0)
(-0.0182625 0.0027418 0)
(-0.0194679 0.00276666 0)
(-0.0206838 0.002788 0)
(-0.0219088 0.0028064 0)
(-0.0231418 0.00282238 0)
(-0.0243817 0.00283644 0)
(-0.0256278 0.00284902 0)
(-0.0268794 0.00286053 0)
(-0.0281362 0.00287134 0)
(-0.0293978 0.00288178 0)
(-0.030664 0.00289215 0)
(-0.0319349 0.00290271 0)
(-0.0332104 0.00291369 0)
(-0.0344908 0.0029253 0)
(-0.0357762 0.00293771 0)
(-0.037067 0.00295107 0)
(-0.0383635 0.00296551 0)
(-0.0396661 0.00298113 0)
(-0.0409754 0.00299804 0)
(-0.0422917 0.00301629 0)
(-0.0436157 0.00303594 0)
(-0.0449479 0.00305703 0)
(-0.0462887 0.00307958 0)
(-0.0476389 0.00310361 0)
(-0.048999 0.00312911 0)
(-0.0503695 0.00315606 0)
(-0.0517509 0.00318445 0)
(-0.0531439 0.00321422 0)
(-0.0545489 0.00324534 0)
(-0.0559665 0.00327772 0)
(-0.057397 0.00331131 0)
(-0.058841 0.00334601 0)
(-0.0602987 0.00338172 0)
(-0.0617706 0.00341832 0)
(-0.0632568 0.00345569 0)
(-0.0647577 0.00349368 0)
(-0.0662734 0.00353214 0)
(-0.0678039 0.00357089 0)
(-0.0693492 0.00360974 0)
(-0.0709092 0.00364848 0)
(-0.0724838 0.00368689 0)
(-0.0740726 0.00372472 0)
(-0.0756753 0.00376171 0)
(-0.0772912 0.00379758 0)
(-0.0789198 0.00383202 0)
(-0.0805603 0.00386471 0)
(-0.0822118 0.00389529 0)
(-0.083873 0.0039234 0)
(-0.0855429 0.00394865 0)
(-0.0872199 0.00397063 0)
(-0.0889025 0.00398889 0)
(-0.0905889 0.00400297 0)
(-0.0922771 0.00401239 0)
(-0.0939649 0.00401664 0)
(-0.0956498 0.0040152 0)
(-0.0973293 0.00400751 0)
(-0.0990005 0.003993 0)
(-0.10066 0.00397109 0)
(-0.102305 0.00394116 0)
(-0.103932 0.0039026 0)
(-0.105536 0.00385477 0)
(-0.107115 0.00379703 0)
(-0.108662 0.00372871 0)
(-0.110174 0.00364917 0)
(-0.111647 0.00355775 0)
(-0.113074 0.0034538 0)
(-0.11445 0.00333667 0)
(-0.11577 0.00320574 0)
(-0.117028 0.00306041 0)
(-0.118218 0.00290009 0)
(-0.119333 0.00272426 0)
(-0.120368 0.00253241 0)
(-0.121315 0.0023241 0)
(-0.122168 0.00209895 0)
(-0.12292 0.00185664 0)
(-0.123564 0.00159695 0)
(-0.124093 0.00131973 0)
(-0.1245 0.00102494 0)
(-0.124778 0.000712656 0)
(-0.124921 0.000383071 0)
(-0.124921 3.65119e-05 0)
(-0.124772 -0.000326548 0)
(-0.124468 -0.000705481 0)
(-0.124003 -0.0010995 0)
(-0.123371 -0.00150763 0)
(-0.122568 -0.00192875 0)
(-0.121588 -0.0023615 0)
(-0.120428 -0.00280436 0)
(-0.119085 -0.00325562 0)
(-0.117555 -0.00371336 0)
(-0.115838 -0.00417544 0)
(-0.113932 -0.00463956 0)
(-0.111837 -0.00510322 0)
(-0.109555 -0.00556373 0)
(-0.107088 -0.00601824 0)
(-0.104439 -0.00646375 0)
(-0.101613 -0.00689711 0)
(-0.0986158 -0.00731508 0)
(-0.0954544 -0.00771431 0)
(-0.0921375 -0.00809141 0)
(-0.0886747 -0.00844294 0)
(-0.0850772 -0.00876548 0)
(-0.0813575 -0.00905566 0)
(-0.0775293 -0.00931018 0)
(-0.0736075 -0.00952587 0)
(-0.0696084 -0.00969972 0)
(-0.0655491 -0.00982894 0)
(-0.0614482 -0.00991097 0)
(-0.0573247 -0.00994353 0)
(-0.0531987 -0.00992471 0)
(-0.0490911 -0.00985292 0)
(-0.045023 -0.00972698 0)
(-0.041016 -0.00954615 0)
(-0.0370919 -0.00931014 0)
(-0.0332725 -0.00901914 0)
(-0.0295794 -0.00867386 0)
(-0.0260336 -0.00827552 0)
(-0.0226556 -0.00782594 0)
(-0.0194651 -0.00732751 0)
(-0.0164802 -0.00678331 0)
(-0.013718 -0.00619715 0)
(-0.0111934 -0.0055737 0)
(-0.00891925 -0.00491869 0)
(-0.00690581 -0.00423919 0)
(-0.00516004 -0.00354394 0)
(-0.00368514 -0.00284403 0)
(-0.0024797 -0.00215363 0)
(-0.00153681 -0.00149121 0)
(-0.000843028 -0.000881082 0)
(-0.00037717 -0.000355544 0)
(-0.000108899 4.27782e-05 0)
(3.37523e-06 0.000257865 0)
(1.3247e-05 0.000210854 0)
(5.27503e-06 -0.00010259 0)
(6.55394e-06 -0.000160151 0)
(-2.13214e-05 -0.000109047 0)
(-9.72979e-05 2.15954e-05 0)
(-0.00023562 0.000209498 0)
(-0.000446382 0.000436621 0)
(-0.000736526 0.000688543 0)
(-0.00111034 0.000953955 0)
(-0.00156987 0.00122411 0)
(-0.00211529 0.00149233 0)
(-0.00274529 0.00175362 0)
(-0.00345734 0.00200434 0)
(-0.00424804 0.00224193 0)
(-0.0051133 0.00246468 0)
(-0.00604861 0.00267159 0)
(-0.00704912 0.00286216 0)
(-0.00810989 0.00303634 0)
(-0.00922593 0.00319442 0)
(-0.0103923 0.0033369 0)
(-0.0116043 0.00346452 0)
(-0.0128572 0.00357812 0)
(-0.0141468 0.00367863 0)
(-0.015469 0.00376708 0)
(-0.0168201 0.00384449 0)
(-0.0181965 0.00391189 0)
(-0.0195952 0.00397033 0)
(-0.0210133 0.00402081 0)
(-0.0224483 0.0040643 0)
(-0.0238979 0.00410172 0)
(-0.0253603 0.00413395 0)
(-0.0268336 0.00416181 0)
(-0.0283166 0.00418607 0)
(-0.0298081 0.00420742 0)
(-0.031307 0.00422652 0)
(-0.0328126 0.00424396 0)
(-0.0343245 0.00426028 0)
(-0.035842 0.00427595 0)
(-0.0373652 0.00429142 0)
(-0.0388937 0.00430706 0)
(-0.0404277 0.00432322 0)
(-0.0419674 0.0043402 0)
(-0.0435128 0.00435825 0)
(-0.0450644 0.0043776 0)
(-0.0466226 0.00439844 0)
(-0.0481877 0.00442094 0)
(-0.0497603 0.00444521 0)
(-0.051341 0.00447138 0)
(-0.0529302 0.00449951 0)
(-0.0545287 0.00452966 0)
(-0.0561371 0.00456188 0)
(-0.0577559 0.00459618 0)
(-0.0593858 0.00463254 0)
(-0.0610274 0.00467096 0)
(-0.0626814 0.00471139 0)
(-0.0643483 0.00475376 0)
(-0.0660287 0.00479801 0)
(-0.0677232 0.00484403 0)
(-0.0694321 0.00489171 0)
(-0.0711561 0.00494093 0)
(-0.0728954 0.00499152 0)
(-0.0746505 0.00504331 0)
(-0.0764216 0.00509612 0)
(-0.0782088 0.00514972 0)
(-0.0800124 0.00520388 0)
(-0.0818323 0.00525834 0)
(-0.0836684 0.00531282 0)
(-0.0855207 0.005367 0)
(-0.0873887 0.00542056 0)
(-0.0892721 0.00547312 0)
(-0.0911704 0.0055243 0)
(-0.0930827 0.00557369 0)
(-0.0950084 0.00562082 0)
(-0.0969464 0.00566522 0)
(-0.0988954 0.00570639 0)
(-0.100854 0.00574377 0)
(-0.102821 0.00577679 0)
(-0.104795 0.00580485 0)
(-0.106773 0.00582731 0)
(-0.108753 0.00584349 0)
(-0.110733 0.0058527 0)
(-0.11271 0.00585419 0)
(-0.114682 0.00584719 0)
(-0.116645 0.00583093 0)
(-0.118595 0.00580456 0)
(-0.12053 0.00576725 0)
(-0.122445 0.00571812 0)
(-0.124335 0.00565628 0)
(-0.126197 0.00558083 0)
(-0.128025 0.00549083 0)
(-0.129814 0.00538538 0)
(-0.131559 0.00526352 0)
(-0.133255 0.00512435 0)
(-0.134895 0.00496693 0)
(-0.136472 0.00479037 0)
(-0.137981 0.00459379 0)
(-0.139415 0.00437636 0)
(-0.140766 0.00413728 0)
(-0.142028 0.00387581 0)
(-0.143193 0.00359127 0)
(-0.144253 0.00328307 0)
(-0.145201 0.0029507 0)
(-0.146028 0.00259375 0)
(-0.146728 0.00221193 0)
(-0.147292 0.00180511 0)
(-0.147712 0.00137325 0)
(-0.14798 0.00091653 0)
(-0.148089 0.000435266 0)
(-0.148031 -7.002e-05 0)
(-0.147799 -0.000598601 0)
(-0.147386 -0.00114953 0)
(-0.146785 -0.00172163 0)
(-0.14599 -0.00231348 0)
(-0.144996 -0.0029234 0)
(-0.143797 -0.00354945 0)
(-0.142389 -0.00418942 0)
(-0.140769 -0.0048408 0)
(-0.138935 -0.00550085 0)
(-0.136883 -0.00616652 0)
(-0.134615 -0.00683449 0)
(-0.132129 -0.00750119 0)
(-0.129428 -0.00816279 0)
(-0.126515 -0.00881523 0)
(-0.123392 -0.00945426 0)
(-0.120067 -0.0100754 0)
(-0.116546 -0.0106741 0)
(-0.112837 -0.0112455 0)
(-0.108949 -0.0117849 0)
(-0.104895 -0.0122875 0)
(-0.100687 -0.0127483 0)
(-0.0963393 -0.0131627 0)
(-0.0918673 -0.0135259 0)
(-0.0872883 -0.0138336 0)
(-0.0826206 -0.0140814 0)
(-0.0778841 -0.0142655 0)
(-0.0730994 -0.0143821 0)
(-0.0682886 -0.0144283 0)
(-0.0634744 -0.0144011 0)
(-0.0586803 -0.0142984 0)
(-0.0539304 -0.0141186 0)
(-0.0492494 -0.0138606 0)
(-0.0446618 -0.013524 0)
(-0.0401925 -0.0131092 0)
(-0.0358658 -0.0126173 0)
(-0.0317057 -0.01205 0)
(-0.0277353 -0.0114101 0)
(-0.0239767 -0.0107011 0)
(-0.0204506 -0.00992748 0)
(-0.017176 -0.00909489 0)
(-0.0141698 -0.0082102 0)
(-0.0114464 -0.00728172 0)
(-0.0090171 -0.00631965 0)
(-0.00688987 -0.00533644 0)
(-0.00506845 -0.00434755 0)
(-0.00355183 -0.00337234 0)
(-0.00233341 -0.00243532 0)
(-0.0014003 -0.00156787 0)
(-0.000732233 -0.000810382 0)
(-0.000300477 -0.0002147 0)
(-6.94406e-05 0.000152718 0)
(3.21848e-07 0.000200294 0)
(1.27239e-06 -0.000102107 0)
(-1.71507e-05 -0.000132704 0)
(-8.51483e-05 -3.45976e-05 0)
(-0.000216967 0.000158313 0)
(-0.00042458 0.000419929 0)
(-0.000717112 0.000728932 0)
(-0.00110071 0.00106809 0)
(-0.00157902 0.00142368 0)
(-0.00215356 0.00178495 0)
(-0.0028241 0.00214356 0)
(-0.00358893 0.00249317 0)
(-0.00444517 0.00282907 0)
(-0.00538903 0.00314792 0)
(-0.00641602 0.00344741 0)
(-0.00752119 0.00372615 0)
(-0.00869928 0.00398344 0)
(-0.00994487 0.00421912 0)
(-0.0112525 0.00443348 0)
(-0.0126168 0.00462715 0)
(-0.0140324 0.00480102 0)
(-0.0154944 0.00495616 0)
(-0.0169979 0.00509379 0)
(-0.0185385 0.0052152 0)
(-0.0201119 0.00532173 0)
(-0.0217143 0.00541476 0)
(-0.0233422 0.00549564 0)
(-0.0249923 0.0055657 0)
(-0.0266618 0.00562622 0)
(-0.0283482 0.00567844 0)
(-0.0300493 0.00572352 0)
(-0.0317631 0.00576257 0)
(-0.0334881 0.0057966 0)
(-0.0352228 0.00582658 0)
(-0.0369661 0.00585337 0)
(-0.0387171 0.00587778 0)
(-0.0404752 0.00590053 0)
(-0.0422399 0.00592228 0)
(-0.0440108 0.00594362 0)
(-0.0457879 0.00596508 0)
(-0.047571 0.00598712 0)
(-0.0493603 0.00601015 0)
(-0.051156 0.00603454 0)
(-0.0529584 0.00606058 0)
(-0.0547679 0.00608855 0)
(-0.0565851 0.00611866 0)
(-0.0584103 0.0061511 0)
(-0.0602443 0.006186 0)
(-0.0620876 0.00622349 0)
(-0.0639409 0.00626364 0)
(-0.0658048 0.0063065 0)
(-0.06768 0.0063521 0)
(-0.0695672 0.00640042 0)
(-0.071467 0.00645143 0)
(-0.0733802 0.00650508 0)
(-0.0753073 0.00656129 0)
(-0.0772489 0.00661993 0)
(-0.0792056 0.00668089 0)
(-0.0811779 0.00674399 0)
(-0.0831663 0.00680905 0)
(-0.0851711 0.00687586 0)
(-0.0871928 0.00694418 0)
(-0.0892315 0.00701373 0)
(-0.0912874 0.00708422 0)
(-0.0933607 0.00715532 0)
(-0.0954512 0.00722667 0)
(-0.0975588 0.00729786 0)
(-0.0996832 0.00736848 0)
(-0.101824 0.00743805 0)
(-0.103981 0.00750609 0)
(-0.106153 0.00757203 0)
(-0.108339 0.00763532 0)
(-0.110538 0.00769533 0)
(-0.11275 0.00775141 0)
(-0.114972 0.00780284 0)
(-0.117203 0.0078489 0)
(-0.119441 0.00788879 0)
(-0.121685 0.00792169 0)
(-0.123931 0.00794673 0)
(-0.126177 0.00796298 0)
(-0.128421 0.00796951 0)
(-0.130659 0.00796531 0)
(-0.132888 0.00794935 0)
(-0.135104 0.00792055 0)
(-0.137303 0.00787782 0)
(-0.139482 0.00782 0)
(-0.141635 0.00774593 0)
(-0.143757 0.00765442 0)
(-0.145844 0.00754426 0)
(-0.14789 0.00741423 0)
(-0.149889 0.00726309 0)
(-0.151835 0.00708962 0)
(-0.153722 0.00689258 0)
(-0.155542 0.00667077 0)
(-0.157289 0.00642302 0)
(-0.158956 0.00614818 0)
(-0.160534 0.00584516 0)
(-0.162017 0.00551294 0)
(-0.163396 0.00515056 0)
(-0.164662 0.00475717 0)
(-0.165808 0.00433201 0)
(-0.166825 0.00387447 0)
(-0.167704 0.00338405 0)
(-0.168437 0.00286042 0)
(-0.169014 0.00230345 0)
(-0.169428 0.00171317 0)
(-0.16967 0.00108987 0)
(-0.16973 0.000434029 0)
(-0.169602 -0.000253583 0)
(-0.169277 -0.000971939 0)
(-0.168748 -0.00171972 0)
(-0.168008 -0.00249529 0)
(-0.167049 -0.0032967 0)
(-0.165867 -0.00412167 0)
(-0.164455 -0.00496755 0)
(-0.16281 -0.00583136 0)
(-0.160928 -0.00670975 0)
(-0.158805 -0.00759899 0)
(-0.156441 -0.00849502 0)
(-0.153835 -0.00939341 0)
(-0.150987 -0.0102894 0)
(-0.147899 -0.0111779 0)
(-0.144575 -0.0120535 0)
(-0.141019 -0.0129105 0)
(-0.137238 -0.013743 0)
(-0.133239 -0.014545 0)
(-0.129032 -0.0153102 0)
(-0.124626 -0.0160321 0)
(-0.120036 -0.0167045 0)
(-0.115275 -0.0173208 0)
(-0.110358 -0.0178749 0)
(-0.105304 -0.0183605 0)
(-0.10013 -0.0187718 0)
(-0.094858 -0.0191032 0)
(-0.0895084 -0.0193494 0)
(-0.0841045 -0.0195057 0)
(-0.0786705 -0.0195679 0)
(-0.0732313 -0.0195323 0)
(-0.0678129 -0.0193962 0)
(-0.0624418 -0.0191572 0)