/*--------------------------------*- C++ -*----------------------------------*\
  =========                 |
  \\      /  F ield         | OpenFOAM: The Open Source CFD Toolbox
   \\    /   O peration     | Website:  https://openfoam.org
    \\  /    A nd           | Version:  7
     \\/     M anipulation  |
\*---------------------------------------------------------------------------*/
FoamFile
{
    version     2.0;
    format      ascii;
    class       volScalarField;
    location    "0.375";
    object      p;
}
// * * * * * * * * * * * * * * * * * * * * * * * * * * * * * * * * * * * * * //

dimensions      [0 2 -2 0 0 0 0];

internalField   nonuniform List<scalar> 
51200
(
1.36066e-06
1.81062e-06
3.12921e-06
6.22698e-06
1.10218e-05
1.72594e-05
2.46509e-05
3.29322e-05
4.1845e-05
5.11388e-05
6.06094e-05
7.00989e-05
7.9482e-05
8.86425e-05
9.74601e-05
0.000105819
0.000113628
0.000120828
0.000127368
0.000133188
0.000138222
0.000142416
0.000145737
0.000148171
0.000149707
0.000150326
0.000150004
0.000148725
0.000146489
0.000143305
0.000139175
0.000134089
0.000128038
0.000121024
0.000113058
0.000104158
9.43334e-05
8.35852e-05
7.19174e-05
5.93477e-05
4.59053e-05
3.16196e-05
1.65117e-05
5.93592e-07
-1.61249e-05
-3.36291e-05
-5.18988e-05
-7.09127e-05
-9.06528e-05
-0.000111103
-0.000132244
-0.000154052
-0.000176497
-0.00019955
-0.000223188
-0.000247392
-0.000272147
-0.000297434
-0.000323226
-0.000349496
-0.000376223
-0.000403391
-0.000430983
-0.000458979
-0.000487351
-0.000516071
-0.000545111
-0.00057445
-0.000604067
-0.000633939
-0.000664043
-0.000694354
-0.000724852
-0.000755514
-0.000786319
-0.000817245
-0.000848277
-0.000879394
-0.000910574
-0.000941789
-0.000973011
-0.00100422
-0.00103538
-0.0010665
-0.00109754
-0.00112848
-0.00115929
-0.00118996
-0.00122046
-0.00125077
-0.00128087
-0.00131074
-0.00134035
-0.00136967
-0.00139869
-0.0014274
-0.00145575
-0.00148374
-0.00151133
-0.00153851
-0.00156525
-0.00159154
-0.00161735
-0.00164265
-0.00166741
-0.00169162
-0.00171525
-0.00173829
-0.00176071
-0.00178248
-0.00180359
-0.00182402
-0.00184374
-0.00186274
-0.001881
-0.00189849
-0.0019152
-0.0019311
-0.00194618
-0.00196041
-0.00197378
-0.00198627
-0.00199786
-0.00200854
-0.00201831
-0.00202715
-0.00203506
-0.00204202
-0.00204803
-0.00205307
-0.00205715
-0.00206028
-0.00206244
-0.00206364
-0.00206387
-0.00206317
-0.00206154
-0.002059
-0.00205559
-0.00205132
-0.00204623
-0.00204037
-0.00203379
-0.00202653
-0.00201866
-0.00201025
-0.00200139
-0.00199218
-0.00198274
-0.0019732
-0.0019637
-0.00195439
-0.00194549
-0.00193722
-0.00192985
-0.00192366
-0.00191891
-0.00191586
-0.00191476
-0.00191534
2.99611e-06
2.55737e-06
3.73716e-06
6.52017e-06
1.07034e-05
1.61061e-05
2.25398e-05
2.97805e-05
3.75854e-05
4.57427e-05
5.40857e-05
6.24885e-05
7.08364e-05
7.90072e-05
8.68741e-05
9.43279e-05
0.000101293
0.000107716
0.000113539
0.000118692
0.000123106
0.000126731
0.000129542
0.000131524
0.00013266
0.000132923
0.000132286
0.000130738
0.000128285
0.000124932
0.000120673
0.000115492
0.000109379
0.000102339
9.43878e-05
8.55378e-05
7.57916e-05
6.51463e-05
5.36072e-05
4.11956e-05
2.79426e-05
1.38748e-05
-9.93414e-07
-1.66539e-05
-3.30955e-05
-5.03014e-05
-6.8252e-05
-8.69289e-05
-0.000106316
-0.000126401
-0.000147164
-0.000168578
-0.000190613
-0.00021324
-0.000236441
-0.000260202
-0.000284505
-0.000309331
-0.00033465
-0.000360436
-0.000386671
-0.000413343
-0.000440434
-0.000467923
-0.000495782
-0.000523981
-0.000552497
-0.000581309
-0.000610394
-0.00063973
-0.000669294
-0.000699063
-0.000729017
-0.000759132
-0.000789386
-0.000819761
-0.000850241
-0.000880808
-0.000911437
-0.000942099
-0.000972764
-0.00100341
-0.00103403
-0.00106459
-0.00109508
-0.00112546
-0.00115573
-0.00118584
-0.0012158
-0.00124557
-0.00127513
-0.00130446
-0.00133353
-0.00136232
-0.00139082
-0.001419
-0.00144684
-0.00147431
-0.0015014
-0.00152807
-0.00155433
-0.00158013
-0.00160546
-0.00163029
-0.00165459
-0.00167835
-0.00170155
-0.00172416
-0.00174617
-0.00176754
-0.00178827
-0.00180832
-0.00182769
-0.00184635
-0.00186429
-0.00188149
-0.00189791
-0.00191355
-0.00192839
-0.00194241
-0.00195559
-0.00196792
-0.00197937
-0.00198995
-0.00199964
-0.00200844
-0.00201634
-0.00202332
-0.00202938
-0.00203452
-0.00203875
-0.00204205
-0.00204443
-0.00204589
-0.00204644
-0.00204609
-0.00204487
-0.00204279
-0.00203989
-0.00203618
-0.00203172
-0.00202653
-0.00202068
-0.00201422
-0.00200719
-0.00199968
-0.00199177
-0.00198356
-0.00197518
-0.00196672
-0.00195832
-0.00195013
-0.00194233
-0.00193512
-0.00192872
-0.00192337
-0.00191926
-0.00191658
-0.00191554
-0.00191598
2.16534e-06
1.57682e-06
2.6806e-06
5.30049e-06
9.13271e-06
1.40357e-05
1.9848e-05
2.63637e-05
3.33768e-05
4.07105e-05
4.82313e-05
5.5832e-05
6.3399e-05
7.08041e-05
7.79253e-05
8.46699e-05
9.09744e-05
9.67835e-05
0.000102031
0.00010664
0.000110546
0.000113708
0.000116105
0.00011772
0.000118522
0.00011848
0.000117573
0.000115799
0.000113163
0.000109665
0.000105291
0.00010002
9.38467e-05
8.67809e-05
7.88376e-05
7.00227e-05
6.03318e-05
4.97619e-05
3.8323e-05
2.60397e-05
1.29414e-05
-9.50662e-07
-1.56263e-05
-3.10787e-05
-4.72947e-05
-6.42557e-05
-8.19429e-05
-0.000100342
-0.000119441
-0.000139226
-0.000159677
-0.000180765
-0.000202457
-0.00022473
-0.000247569
-0.000270962
-0.000294891
-0.000319331
-0.000344254
-0.000369635
-0.000395459
-0.000421715
-0.000448386
-0.00047545
-0.000502877
-0.000530641
-0.000558717
-0.000587084
-0.000615721
-0.000644606
-0.000673716
-0.000703031
-0.000732526
-0.000762179
-0.000791969
-0.00082188
-0.000851898
-0.000882002
-0.000912167
-0.00094236
-0.000972555
-0.00100273
-0.00103288
-0.00106298
-0.00109301
-0.00112293
-0.00115272
-0.00118238
-0.00121188
-0.00124119
-0.0012703
-0.00129917
-0.00132778
-0.00135613
-0.00138419
-0.00141193
-0.00143934
-0.00146638
-0.00149304
-0.0015193
-0.00154514
-0.00157054
-0.00159547
-0.00161991
-0.00164383
-0.00166722
-0.00169005
-0.00171231
-0.00173397
-0.00175502
-0.00177542
-0.00179517
-0.00181424
-0.00183263
-0.00185031
-0.00186726
-0.00188345
-0.00189888
-0.00191353
-0.00192738
-0.00194041
-0.0019526
-0.00196395
-0.00197444
-0.00198408
-0.00199285
-0.00200074
-0.00200775
-0.00201387
-0.0020191
-0.00202345
-0.00202691
-0.00202948
-0.00203116
-0.00203196
-0.00203191
-0.00203103
-0.00202934
-0.00202686
-0.00202361
-0.00201965
-0.00201501
-0.00200975
-0.00200391
-0.00199755
-0.00199074
-0.00198357
-0.00197614
-0.00196855
-0.0019609
-0.00195331
-0.00194592
-0.00193889
-0.00193241
-0.00192665
-0.00192178
-0.00191796
-0.0019154
-0.00191442
-0.00191494
-7.8931e-07
-1.11319e-06
1.27783e-07
2.73604e-06
6.43795e-06
1.10861e-05
1.65157e-05
2.25451e-05
2.90004e-05
3.57448e-05
4.26713e-05
4.96756e-05
5.66403e-05
6.34403e-05
6.99683e-05
7.61484e-05
8.19236e-05
8.72326e-05
9.20009e-05
9.61526e-05
9.96309e-05
0.000102404
0.000104453
0.000105751
0.00010626
0.000105948
0.000104805
0.000102835
0.000100042
9.64128e-05
9.19275e-05
8.65689e-05
8.03368e-05
7.32442e-05
6.53022e-05
5.65091e-05
4.68563e-05
3.63434e-05
2.49864e-05
1.28117e-05
-1.5632e-07
-1.39021e-05
-2.84176e-05
-4.36944e-05
-5.97177e-05
-7.64681e-05
-9.39291e-05
-0.000112091
-0.000130944
-0.000150475
-0.000170657
-0.000191459
-0.000212853
-0.000234817
-0.000257343
-0.000280419
-0.000304023
-0.000328126
-0.000352701
-0.000377727
-0.000403192
-0.000429085
-0.000455389
-0.000482079
-0.000509127
-0.000536508
-0.000564198
-0.000592175
-0.000620417
-0.000648904
-0.000677616
-0.00070653
-0.000735622
-0.000764867
-0.000794247
-0.00082375
-0.000853361
-0.000883058
-0.000912811
-0.000942589
-0.000972371
-0.00100214
-0.00103188
-0.00106157
-0.00109118
-0.00112069
-0.00115008
-0.00117933
-0.00120842
-0.00123733
-0.00126603
-0.00129451
-0.00132273
-0.00135068
-0.00137835
-0.00140571
-0.00143273
-0.00145939
-0.00148568
-0.00151158
-0.00153707
-0.00156211
-0.00158669
-0.00161079
-0.00163437
-0.00165744
-0.00167996
-0.00170191
-0.00172328
-0.00174403
-0.00176416
-0.00178364
-0.00180247
-0.00182062
-0.00183807
-0.00185481
-0.00187081
-0.00188606
-0.00190055
-0.00191426
-0.00192716
-0.00193924
-0.0019505
-0.00196094
-0.00197053
-0.00197928
-0.00198718
-0.00199421
-0.00200039
-0.00200571
-0.00201016
-0.00201376
-0.00201649
-0.00201837
-0.00201941
-0.00201962
-0.00201904
-0.00201767
-0.00201554
-0.00201268
-0.00200914
-0.00200496
-0.00200019
-0.00199486
-0.00198904
-0.0019828
-0.00197622
-0.00196939
-0.00196241
-0.00195537
-0.00194837
-0.00194154
-0.00193505
-0.00192905
-0.0019237
-0.00191912
-0.00191543
-0.00191281
-0.00191164
-0.00191194
-5.50718e-06
-5.21973e-06
-3.64124e-06
-8.83548e-07
2.83452e-06
7.35828e-06
1.25378e-05
1.82117e-05
2.4247e-05
3.05418e-05
3.69988e-05
4.35117e-05
4.99623e-05
5.62395e-05
6.22563e-05
6.79493e-05
7.32614e-05
7.81224e-05
8.24533e-05
8.61857e-05
8.92758e-05
9.16973e-05
9.34244e-05
9.4421e-05
9.4648e-05
9.40813e-05
9.27191e-05
9.05683e-05
8.76234e-05
8.38634e-05
7.92651e-05
7.38185e-05
6.75293e-05
6.04092e-05
5.24624e-05
4.36809e-05
3.40558e-05
2.35917e-05
1.23093e-05
2.345e-07
-1.26142e-05
-2.62267e-05
-4.05955e-05
-5.57091e-05
-7.1551e-05
-8.81034e-05
-0.000105353
-0.000123295
-0.00014192
-0.000161212
-0.00018114
-0.000201671
-0.000222782
-0.000244457
-0.000266689
-0.000289465
-0.000312758
-0.000336539
-0.000360782
-0.00038547
-0.000410594
-0.000436143
-0.000462096
-0.00048843
-0.000515117
-0.000542133
-0.000569452
-0.000597055
-0.00062492
-0.000653028
-0.000681358
-0.000709888
-0.00073859
-0.000767443
-0.000796433
-0.000825546
-0.000854768
-0.000884072
-0.000913429
-0.000942811
-0.000972197
-0.00100157
-0.00103092
-0.00106021
-0.00108943
-0.00111855
-0.00114755
-0.00117641
-0.00120511
-0.00123363
-0.00126195
-0.00129004
-0.00131789
-0.00134547
-0.00137277
-0.00139975
-0.00142641
-0.00145271
-0.00147864
-0.0015042
-0.00152934
-0.00155405
-0.0015783
-0.00160207
-0.00162534
-0.00164809
-0.00167032
-0.00169198
-0.00171306
-0.00173354
-0.00175341
-0.00177265
-0.00179124
-0.00180917
-0.00182641
-0.00184295
-0.00185877
-0.00187386
-0.0018882
-0.00190178
-0.00191456
-0.00192655
-0.00193773
-0.00194811
-0.00195767
-0.00196641
-0.00197431
-0.00198138
-0.00198761
-0.00199301
-0.00199758
-0.00200131
-0.0020042
-0.00200626
-0.00200752
-0.00200798
-0.00200767
-0.00200661
-0.00200481
-0.00200231
-0.00199916
-0.00199539
-0.00199105
-0.00198618
-0.00198084
-0.0019751
-0.00196903
-0.00196272
-0.00195625
-0.00194971
-0.00194319
-0.00193682
-0.00193071
-0.00192502
-0.0019199
-0.00191547
-0.00191181
-0.00190904
-0.00190748
-0.00190721
-1.16789e-05
-1.05558e-05
-8.45041e-06
-5.40344e-06
-1.55719e-06
2.95579e-06
7.99604e-06
1.34411e-05
1.91938e-05
2.51668e-05
3.12642e-05
3.73773e-05
4.33986e-05
4.92388e-05
5.48296e-05
6.01125e-05
6.5023e-05
6.94841e-05
7.34204e-05
7.6776e-05
7.95186e-05
8.16224e-05
8.30519e-05
8.37645e-05
8.37268e-05
8.29262e-05
8.13662e-05
7.9048e-05
7.59568e-05
7.20658e-05
6.73555e-05
6.18238e-05
5.54802e-05
4.83317e-05
4.03732e-05
3.1593e-05
2.19863e-05
1.15643e-05
3.49926e-07
-1.16345e-05
-2.4376e-05
-3.78685e-05
-5.21033e-05
-6.70659e-05
-8.27384e-05
-9.91063e-05
-0.000116162
-0.000133902
-0.000152318
-0.000171387
-0.000191076
-0.000211353
-0.000232198
-0.000253605
-0.000275563
-0.000298055
-0.000321053
-0.000344528
-0.000368456
-0.000392826
-0.00041763
-0.000442854
-0.000468476
-0.000494472
-0.000520817
-0.000547484
-0.000574452
-0.000601699
-0.000629207
-0.000656956
-0.000684923
-0.000713085
-0.000741415
-0.000769897
-0.000798516
-0.000827261
-0.000856113
-0.000885042
-0.00091402
-0.000943023
-0.000972033
-0.00100103
-0.00103
-0.00105892
-0.00108776
-0.00111651
-0.00114514
-0.00117363
-0.00120196
-0.00123011
-0.00125806
-0.00128579
-0.00131328
-0.00134051
-0.00136745
-0.00139409
-0.00142039
-0.00144635
-0.00147196
-0.00149718
-0.001522
-0.00154639
-0.00157032
-0.00159378
-0.00161676
-0.00163923
-0.00166117
-0.00168256
-0.00170338
-0.0017236
-0.00174323
-0.00176224
-0.00178061
-0.00179833
-0.00181538
-0.00183174
-0.00184739
-0.00186233
-0.00187654
-0.00188999
-0.00190267
-0.00191457
-0.00192569
-0.00193602
-0.00194555
-0.00195428
-0.00196219
-0.0019693
-0.00197559
-0.00198108
-0.00198575
-0.0019896
-0.00199265
-0.00199489
-0.00199635
-0.00199705
-0.00199699
-0.0019962
-0.0019947
-0.00199253
-0.00198973
-0.00198633
-0.00198238
-0.00197792
-0.001973
-0.00196769
-0.00196205
-0.00195617
-0.00195011
-0.00194397
-0.00193783
-0.0019318
-0.00192598
-0.00192049
-0.00191544
-0.00191099
-0.00190721
-0.00190418
-0.00190211
-0.00190102
-1.9012e-05
-1.69017e-05
-1.41376e-05
-1.07023e-05
-6.62691e-06
-2.02837e-06
2.98693e-06
8.33308e-06
1.39309e-05
1.96942e-05
2.55253e-05
3.13243e-05
3.7004e-05
4.24973e-05
4.77474e-05
5.26911e-05
5.72555e-05
6.1364e-05
6.49522e-05
6.79785e-05
7.04163e-05
7.22343e-05
7.33891e-05
7.38386e-05
7.35601e-05
7.25513e-05
7.08145e-05
6.83405e-05
6.51063e-05
6.10867e-05
5.62692e-05
5.06585e-05
4.42636e-05
3.70831e-05
2.91046e-05
2.03166e-05
1.07215e-05
3.36375e-07
-1.08168e-05
-2.27213e-05
-3.53692e-05
-4.87553e-05
-6.28689e-05
-7.76927e-05
-9.32093e-05
-0.000109409
-0.000126289
-0.000143848
-0.000162072
-0.000180934
-0.000200399
-0.00022044
-0.000241042
-0.000262202
-0.000283906
-0.000306133
-0.000328853
-0.000352039
-0.000375674
-0.00039975
-0.000424255
-0.000449175
-0.000474487
-0.000500166
-0.000526187
-0.000552528
-0.000579165
-0.000606078
-0.000633251
-0.000660662
-0.000688287
-0.0007161
-0.00074408
-0.000772212
-0.000800485
-0.000828884
-0.000857386
-0.00088596
-0.00091458
-0.000943226
-0.000971881
-0.00100053
-0.00102914
-0.0010577
-0.00108619
-0.00111458
-0.00114287
-0.00117101
-0.00119899
-0.0012268
-0.0012544
-0.00128179
-0.00130895
-0.00133584
-0.00136245
-0.00138875
-0.00141473
-0.00144037
-0.00146566
-0.00149058
-0.0015151
-0.00153919
-0.00156283
-0.001586
-0.0016087
-0.0016309
-0.00165258
-0.00167372
-0.00169429
-0.00171428
-0.00173368
-0.00175248
-0.00177065
-0.00178818
-0.00180505
-0.00182124
-0.00183675
-0.00185155
-0.00186563
-0.00187897
-0.00189156
-0.00190338
-0.00191444
-0.00192474
-0.00193425
-0.00194297
-0.00195091
-0.00195805
-0.00196441
-0.00196997
-0.00197474
-0.00197871
-0.00198189
-0.0019843
-0.00198595
-0.00198686
-0.00198704
-0.0019865
-0.00198528
-0.0019834
-0.00198091
-0.00197784
-0.00197423
-0.00197011
-0.00196555
-0.0019606
-0.00195533
-0.00194979
-0.00194406
-0.00193821
-0.00193234
-0.00192655
-0.00192091
-0.00191552
-0.00191046
-0.00190585
-0.00190182
-0.00189842
-0.00189571
-0.00189365
-2.72306e-05
-2.40452e-05
-2.05541e-05
-1.66549e-05
-1.22695e-05
-7.48561e-06
-2.38024e-06
2.9829e-06
8.52897e-06
1.41691e-05
1.9812e-05
2.53775e-05
3.08023e-05
3.60341e-05
4.10163e-05
4.56781e-05
4.99432e-05
5.37437e-05
5.70321e-05
5.9777e-05
6.19486e-05
6.35073e-05
6.44087e-05
6.46195e-05
6.4128e-05
6.29359e-05
6.10383e-05
5.84152e-05
5.5041e-05
5.08974e-05
4.59812e-05
4.02991e-05
3.38539e-05
2.66359e-05
1.86294e-05
9.82745e-06
2.4004e-07
-1.01124e-05
-2.12116e-05
-3.30474e-05
-4.5615e-05
-5.89074e-05
-7.29113e-05
-8.76081e-05
-0.000102983
-0.000119032
-0.000135756
-0.000153151
-0.000171198
-0.000189867
-0.000209124
-0.000228947
-0.000249328
-0.000270261
-0.000291729
-0.000313707
-0.000336165
-0.000359083
-0.000382448
-0.000406251
-0.000430479
-0.000455115
-0.000480135
-0.000505516
-0.000531235
-0.000557268
-0.000583595
-0.000610197
-0.000637056
-0.00066415
-0.000691451
-0.000718936
-0.000746586
-0.000774392
-0.000802342
-0.000830417
-0.000858587
-0.000886825
-0.000915108
-0.000943419
-0.000971742
-0.00100006
-0.00102834
-0.00105656
-0.00108472
-0.00111278
-0.00114073
-0.00116855
-0.0011962
-0.00122368
-0.00125096
-0.00127803
-0.00130487
-0.00133145
-0.00135774
-0.00138374
-0.00140941
-0.00143476
-0.00145976
-0.00148439
-0.00150862
-0.00153242
-0.00155579
-0.0015787
-0.00160115
-0.0016231
-0.00164454
-0.00166544
-0.00168578
-0.00170556
-0.00172475
-0.00174336
-0.00176135
-0.0017787
-0.0017954
-0.00181144
-0.00182681
-0.0018415
-0.00185547
-0.00186871
-0.00188121
-0.00189297
-0.00190399
-0.00191425
-0.00192374
-0.00193247
-0.00194042
-0.00194761
-0.00195403
-0.00195967
-0.00196453
-0.00196861
-0.00197192
-0.00197449
-0.00197631
-0.00197741
-0.0019778
-0.00197749
-0.00197652
-0.0019749
-0.00197269
-0.0019699
-0.00196657
-0.00196276
-0.0019585
-0.00195385
-0.00194887
-0.0019436
-0.00193812
-0.00193249
-0.0019268
-0.00192113
-0.00191557
-0.00191018
-0.00190502
-0.0019002
-0.00189581
-0.00189195
-0.00188851
-0.00188538
-3.6107e-05
-3.18125e-05
-2.75534e-05
-2.31342e-05
-1.83575e-05
-1.32879e-05
-7.99037e-06
-2.52071e-06
3.04773e-06
8.63234e-06
1.41595e-05
1.95724e-05
2.48253e-05
2.9869e-05
3.46409e-05
3.90666e-05
4.30754e-05
4.66147e-05
4.96513e-05
5.21567e-05
5.40931e-05
5.5416e-05
5.60878e-05
5.60879e-05
5.54118e-05
5.4057e-05
5.20088e-05
4.92414e-05
4.57325e-05
4.14739e-05
3.64687e-05
3.07208e-05
2.42237e-05
1.69618e-05
8.92155e-06
1.03225e-07
-9.47819e-06
-1.98027e-05
-3.08568e-05
-4.26356e-05
-5.51352e-05
-6.83455e-05
-8.22501e-05
-9.68319e-05
-0.000112081
-0.000127997
-0.000144582
-0.000161828
-0.000179711
-0.000198198
-0.000217263
-0.00023689
-0.000257071
-0.000277795
-0.000299042
-0.000320787
-0.000343002
-0.000365673
-0.000388789
-0.00041234
-0.00043631
-0.000460679
-0.000485427
-0.00051053
-0.000535965
-0.000561711
-0.00058775
-0.000614062
-0.000640629
-0.000667424
-0.00069442
-0.000721597
-0.000748941
-0.000776444
-0.000804091
-0.000831858
-0.000859716
-0.000887638
-0.000915605
-0.000943603
-0.000971614
-0.000999614
-0.00102758
-0.00105549
-0.00108333
-0.00111109
-0.00113873
-0.00116623
-0.00119358
-0.00122075
-0.00124773
-0.00127451
-0.00130105
-0.00132733
-0.00135333
-0.00137904
-0.00140443
-0.0014295
-0.00145423
-0.00147859
-0.00150255
-0.0015261
-0.00154921
-0.00157188
-0.00159409
-0.00161581
-0.00163702
-0.0016577
-0.00167784
-0.00169742
-0.00171643
-0.00173485
-0.00175267
-0.00176986
-0.00178642
-0.00180233
-0.00181758
-0.00183215
-0.00184601
-0.00185917
-0.0018716
-0.00188331
-0.00189429
-0.00190452
-0.00191401
-0.00192274
-0.00193072
-0.00193795
-0.00194442
-0.00195013
-0.00195508
-0.00195927
-0.00196271
-0.00196541
-0.0019674
-0.00196867
-0.00196925
-0.00196915
-0.00196839
-0.00196701
-0.00196503
-0.00196249
-0.00195941
-0.00195585
-0.00195183
-0.00194743
-0.00194268
-0.00193762
-0.00193232
-0.00192684
-0.00192125
-0.00191562
-0.00191004
-0.00190456
-0.00189924
-0.00189413
-0.00188934
-0.00188493
-0.00188071
-0.00187645
-4.54554e-05
-4.00393e-05
-3.49813e-05
-2.99862e-05
-2.47416e-05
-1.93042e-05
-1.37405e-05
-8.10369e-06
-2.45799e-06
3.13273e-06
8.61725e-06
1.39565e-05
1.91096e-05
2.40222e-05
2.86275e-05
3.28564e-05
3.66533e-05
3.99802e-05
4.28096e-05
4.51087e-05
4.68343e-05
4.7945e-05
4.84151e-05
4.8235e-05
4.73997e-05
4.58969e-05
4.37046e-05
4.07983e-05
3.71644e-05
3.28031e-05
2.77185e-05
2.19071e-05
1.53541e-05
8.04264e-06
-3.43654e-08
-8.8696e-06
-1.84465e-05
-2.87488e-05
-3.97679e-05
-5.15012e-05
-6.39436e-05
-7.70816e-05
-9.08969e-05
-0.000105376
-0.000120515
-0.000136316
-0.000152778
-0.000169888
-0.000187618
-0.000205939
-0.000224829
-0.000244278
-0.000264277
-0.000284808
-0.00030585
-0.000327378
-0.00034937
-0.000371816
-0.000394704
-0.000418021
-0.00044175
-0.000465873
-0.000490367
-0.000515211
-0.000540384
-0.000565864
-0.000591634
-0.000617678
-0.00064397
-0.000670484
-0.000697195
-0.000724085
-0.000751146
-0.000778368
-0.000805731
-0.000833208
-0.000860771
-0.000888397
-0.000916072
-0.000943779
-0.000971497
-0.000999203
-0.00102687
-0.00105449
-0.00108204
-0.00110951
-0.00113686
-0.00116407
-0.00119113
-0.00121802
-0.00124472
-0.00127122
-0.00129748
-0.00132349
-0.00134921
-0.00137465
-0.00139978
-0.00142459
-0.00144907
-0.00147317
-0.00149689
-0.0015202
-0.00154308
-0.00156553
-0.00158752
-0.00160902
-0.00163003
-0.00165051
-0.00167046
-0.00168986
-0.0017087
-0.00172696
-0.00174462
-0.00176167
-0.00177809
-0.00179388
-0.00180902
-0.00182349
-0.00183727
-0.00185035
-0.00186272
-0.00187439
-0.00188533
-0.00189555
-0.00190502
-0.00191377
-0.00192177
-0.00192905
-0.00193558
-0.00194136
-0.00194639
-0.00195068
-0.00195423
-0.00195707
-0.0019592
-0.00196063
-0.00196138
-0.00196146
-0.0019609
-0.00195972
-0.00195794
-0.00195561
-0.00195274
-0.00194938
-0.00194557
-0.00194135
-0.00193677
-0.00193187
-0.00192669
-0.0019213
-0.00191574
-0.0019101
-0.00190442
-0.00189878
-0.00189321
-0.00188777
-0.00188251
-0.00187752
-0.00187247
-0.00186708
-5.50869e-05
-4.85501e-05
-4.26622e-05
-3.70403e-05
-3.12741e-05
-2.54192e-05
-1.95464e-05
-1.37007e-05
-7.92758e-06
-2.26756e-06
3.24596e-06
8.57864e-06
1.36857e-05
1.85081e-05
2.29824e-05
2.70544e-05
3.06855e-05
3.38465e-05
3.6506e-05
3.86248e-05
4.01617e-05
4.10866e-05
4.13859e-05
4.10538e-05
4.00785e-05
3.8438e-05
3.61079e-05
3.3072e-05
2.93267e-05
2.48756e-05
1.97179e-05
1.38415e-05
7.22768e-06
-1.36644e-07
-8.25098e-06
-1.71033e-05
-2.66786e-05
-3.69659e-05
-4.796e-05
-5.9658e-05
-7.20517e-05
-8.51251e-05
-9.88611e-05
-0.000113251
-0.000128297
-0.000144
-0.000160354
-0.000177338
-0.000194928
-0.000213097
-0.000231831
-0.00025112
-0.000270952
-0.000291307
-0.000312158
-0.000333487
-0.000355277
-0.000377518
-0.000400196
-0.000423298
-0.000446805
-0.000470699
-0.00049496
-0.000519565
-0.000544494
-0.000569729
-0.000595253
-0.000621046
-0.000647082
-0.000673333
-0.000699778
-0.000726405
-0.000753206
-0.000780166
-0.000807262
-0.000834466
-0.000861753
-0.000889106
-0.00091651
-0.000943946
-0.00097139
-0.00099882
-0.00102622
-0.00105356
-0.00108084
-0.00110804
-0.00113511
-0.00116206
-0.00118885
-0.00121548
-0.00124192
-0.00126816
-0.00129416
-0.00131991
-0.00134538
-0.00137057
-0.00139546
-0.00142004
-0.00144427
-0.00146815
-0.00149164
-0.00151472
-0.00153739
-0.00155963
-0.00158142
-0.00160274
-0.00162355
-0.00164385
-0.00166362
-0.00168286
-0.00170155
-0.00171966
-0.00173718
-0.0017541
-0.00177041
-0.00178609
-0.00180113
-0.00181551
-0.00182921
-0.00184223
-0.00185456
-0.00186619
-0.00187711
-0.00188731
-0.00189679
-0.00190554
-0.00191358
-0.00192089
-0.00192748
-0.00193332
-0.00193844
-0.00194282
-0.00194648
-0.00194944
-0.0019517
-0.00195328
-0.00195418
-0.00195442
-0.00195402
-0.00195301
-0.00195142
-0.00194926
-0.00194657
-0.00194338
-0.00193972
-0.00193564
-0.00193118
-0.00192637
-0.00192127
-0.00191591
-0.00191034
-0.00190461
-0.00189879
-0.00189292
-0.00188706
-0.00188122
-0.00187546
-0.00186985
-0.00186396
-0.00185744
-6.48099e-05
-5.71612e-05
-5.04242e-05
-4.41477e-05
-3.78351e-05
-3.15419e-05
-2.53343e-05
-1.92416e-05
-1.32877e-05
-7.49586e-06
-1.89393e-06
3.47951e-06
8.57528e-06
1.33381e-05
1.77177e-05
2.16768e-05
2.51875e-05
2.82203e-05
3.07373e-05
3.2698e-05
3.40713e-05
3.48408e-05
3.49992e-05
3.4537e-05
3.34339e-05
3.16634e-05
2.92057e-05
2.60546e-05
2.2213e-05
1.76819e-05
1.24524e-05
6.50674e-06
-1.71688e-07
-7.58915e-06
-1.57395e-05
-2.46097e-05
-3.41883e-05
-4.44688e-05
-5.54473e-05
-6.71182e-05
-7.94696e-05
-9.24854e-05
-0.000106153
-0.00012047
-0.000135439
-0.000151059
-0.000167316
-0.000184187
-0.000201648
-0.000219682
-0.000238278
-0.000257424
-0.000277105
-0.000297296
-0.000317974
-0.000339123
-0.000360731
-0.000382785
-0.000405272
-0.000428176
-0.00045148
-0.000475165
-0.00049921
-0.000523595
-0.000548301
-0.000573312
-0.000598609
-0.000624169
-0.000649964
-0.00067597
-0.000702172
-0.000728559
-0.000755121
-0.000781838
-0.000808683
-0.000835633
-0.000862666
-0.000889767
-0.000916921
-0.000944103
-0.000971291
-0.000998465
-0.00102561
-0.0010527
-0.00107973
-0.00110667
-0.0011335
-0.00116019
-0.00118674
-0.00121312
-0.00123933
-0.00126532
-0.00129109
-0.00131659
-0.00134184
-0.0013668
-0.00139147
-0.00141583
-0.00143984
-0.0014635
-0.00148678
-0.00150967
-0.00153214
-0.0015542
-0.00157581
-0.00159694
-0.00161758
-0.00163771
-0.00165733
-0.00167643
-0.00169497
-0.00171295
-0.00173035
-0.00174715
-0.00176336
-0.00177895
-0.0017939
-0.00180819
-0.00182183
-0.0018348
-0.00184709
-0.0018587
-0.0018696
-0.00187979
-0.00188928
-0.00189805
-0.00190612
-0.00191348
-0.00192011
-0.00192602
-0.00193121
-0.00193568
-0.00193944
-0.00194251
-0.00194489
-0.0019466
-0.00194763
-0.00194802
-0.00194777
-0.0019469
-0.00194545
-0.00194344
-0.0019409
-0.00193784
-0.0019343
-0.00193031
-0.00192592
-0.00192116
-0.00191608
-0.00191071
-0.00190508
-0.00189924
-0.00189323
-0.00188709
-0.00188088
-0.0018746
-0.00186831
-0.00186206
-0.00185534
-0.00184771
-7.44497e-05
-6.57083e-05
-5.81278e-05
-5.1197e-05
-4.43359e-05
-3.75933e-05
-3.10256e-05
-2.46434e-05
-1.84562e-05
-1.24822e-05
-6.75241e-06
-1.31001e-06
3.79854e-06
8.53135e-06
1.2856e-05
1.67462e-05
2.01746e-05
2.31061e-05
2.55013e-05
2.73274e-05
2.85667e-05
2.92122e-05
2.92549e-05
2.86771e-05
2.74536e-05
2.55616e-05
2.29904e-05
1.97411e-05
1.58164e-05
1.12102e-05
5.90673e-06
-1.11989e-07
-6.8562e-06
-1.43251e-05
-2.251e-05
-3.14007e-05
-4.09892e-05
-5.12713e-05
-6.22419e-05
-7.38914e-05
-8.62059e-05
-9.91724e-05
-0.000112785
-0.000127044
-0.000141952
-0.000157502
-0.000173673
-0.000190441
-0.000207789
-0.000225705
-0.00024418
-0.000263199
-0.000282742
-0.000302784
-0.000323305
-0.000344294
-0.000365737
-0.000387623
-0.000409936
-0.000432661
-0.00045578
-0.000479274
-0.000503123
-0.000527306
-0.00055181
-0.000576616
-0.000601705
-0.000627048
-0.00065262
-0.000678401
-0.00070438
-0.000730549
-0.000756891
-0.000783383
-0.000809996
-0.00083671
-0.000863511
-0.000890382
-0.000917303
-0.00094425
-0.000971201
-0.000998138
-0.00102505
-0.00105191
-0.00107871
-0.00110542
-0.00113201
-0.00115847
-0.00118479
-0.00121096
-0.00123694
-0.00126271
-0.00128825
-0.00131354
-0.00133857
-0.00136333
-0.0013878
-0.00141195
-0.00143577
-0.00145923
-0.00148232
-0.00150503
-0.00152733
-0.00154921
-0.00157065
-0.00159162
-0.00161211
-0.0016321
-0.00165158
-0.00167054
-0.00168896
-0.00170682
-0.00172411
-0.00174082
-0.00175693
-0.00177243
-0.00178731
-0.00180154
-0.00181512
-0.00182805
-0.00184032
-0.0018519
-0.00186279
-0.00187298
-0.00188248
-0.00189128
-0.00189939
-0.00190678
-0.00191346
-0.00191943
-0.00192469
-0.00192924
-0.0019331
-0.00193627
-0.00193876
-0.00194058
-0.00194174
-0.00194225
-0.00194212
-0.00194138
-0.00194005
-0.00193816
-0.00193573
-0.00193278
-0.00192933
-0.0019254
-0.00192103
-0.00191628
-0.00191118
-0.00190576
-0.00190003
-0.00189403
-0.0018878
-0.00188137
-0.00187477
-0.00186803
-0.00186119
-0.00185429
-0.00184674
-0.00183803
-8.38695e-05
-7.40693e-05
-6.56735e-05
-5.81044e-05
-5.06965e-05
-4.34896e-05
-3.65304e-05
-2.98178e-05
-2.33578e-05
-1.71722e-05
-1.12943e-05
-5.76457e-06
-6.18212e-07
4.11934e-06
8.42858e-06
1.22858e-05
1.56578e-05
1.85071e-05
2.08013e-05
2.25207e-05
2.36577e-05
2.42059e-05
2.41499e-05
2.34652e-05
2.21289e-05
2.01276e-05
1.74596e-05
1.41276e-05
1.01276e-05
5.44632e-06
6.59953e-08
-6.02667e-06
-1.28347e-05
-2.03525e-05
-2.85724e-05
-3.74877e-05
-4.70935e-05
-5.73846e-05
-6.83525e-05
-7.99851e-05
-9.22693e-05
-0.000105197
-0.000118769
-0.000132987
-0.000147848
-0.000163336
-0.00017943
-0.000196109
-0.000213359
-0.000231175
-0.000249546
-0.000268452
-0.00028787
-0.000307778
-0.000328161
-0.000349006
-0.000370303
-0.000392037
-0.000414194
-0.000436758
-0.000459711
-0.000483032
-0.000506701
-0.000530703
-0.000555024
-0.000579646
-0.000604543
-0.000629687
-0.000655053
-0.000680629
-0.000706408
-0.000732378
-0.000758518
-0.0007848
-0.0008112
-0.000837701
-0.00086429
-0.000890949
-0.000917656
-0.000944386
-0.000971119
-0.000997841
-0.00102454
-0.00105119
-0.00107778
-0.00110427
-0.00113064
-0.0011569
-0.00118302
-0.00120898
-0.00123475
-0.00126032
-0.00128566
-0.00131075
-0.00133559
-0.00136016
-0.00138444
-0.00140842
-0.00143205
-0.00145534
-0.00147825
-0.00150079
-0.00152294
-0.00154467
-0.00156596
-0.00158678
-0.00160713
-0.00162699
-0.00164635
-0.00166519
-0.0016835
-0.00170126
-0.00171846
-0.00173508
-0.00175112
-0.00176654
-0.00178135
-0.00179554
-0.00180908
-0.00182198
-0.00183422
-0.00184578
-0.00185667
-0.00186687
-0.00187639
-0.00188522
-0.00189336
-0.0019008
-0.00190753
-0.00191356
-0.00191888
-0.00192351
-0.00192745
-0.00193071
-0.00193329
-0.00193522
-0.00193649
-0.00193711
-0.0019371
-0.00193646
-0.00193523
-0.00193343
-0.00193108
-0.00192821
-0.00192482
-0.00192092
-0.00191656
-0.00191178
-0.00190662
-0.0019011
-0.00189524
-0.00188905
-0.00188257
-0.00187582
-0.00186883
-0.00186161
-0.00185421
-0.00184666
-0.00183831
-0.00182854
-9.2971e-05
-8.21593e-05
-7.29809e-05
-6.47869e-05
-5.68276e-05
-4.91361e-05
-4.17571e-05
-3.46879e-05
-2.79369e-05
-2.1528e-05
-1.54912e-05
-9.85439e-06
-4.63853e-06
1.41089e-07
4.46757e-06
8.31397e-06
1.16453e-05
1.44299e-05
1.66483e-05
1.82922e-05
1.9355e-05
1.98244e-05
1.96786e-05
1.88941e-05
1.74562e-05
1.53621e-05
1.26139e-05
9.20894e-06
5.1354e-06
3.76413e-07
-5.0822e-06
-1.12466e-05
-1.81144e-05
-2.56792e-05
-3.3936e-05
-4.28814e-05
-5.25111e-05
-6.28166e-05
-7.37857e-05
-8.54061e-05
-9.76692e-05
-0.000110573
-0.00012412
-0.000138311
-0.000153134
-0.000168569
-0.000184596
-0.000201199
-0.00021837
-0.000236103
-0.000254383
-0.000273188
-0.000292495
-0.000312287
-0.000332547
-0.000353266
-0.000374432
-0.000396032
-0.000418052
-0.000440473
-0.000463277
-0.000486442
-0.00050995
-0.00053379
-0.000557948
-0.000582403
-0.000607125
-0.000632085
-0.000657266
-0.000682659
-0.000708257
-0.000734046
-0.00076
-0.00078609
-0.000812297
-0.000838606
-0.000865003
-0.000891469
-0.000917979
-0.00094451
-0.000971046
-0.000997575
-0.00102408
-0.00105054
-0.00107692
-0.00110322
-0.0011294
-0.00115547
-0.00118141
-0.00120718
-0.00123277
-0.00125815
-0.00128331
-0.00130822
-0.00133289
-0.00135729
-0.0013814
-0.00140521
-0.00142868
-0.00145181
-0.00147457
-0.00149697
-0.00151897
-0.00154056
-0.00156172
-0.00158242
-0.00160265
-0.00162239
-0.00164164
-0.00166038
-0.00167859
-0.00169627
-0.00171339
-0.00172994
-0.00174591
-0.00176127
-0.00177603
-0.00179017
-0.00180369
-0.00181656
-0.00182878
-0.00184034
-0.00185123
-0.00186144
-0.00187098
-0.00187985
-0.00188803
-0.00189551
-0.0019023
-0.00190838
-0.00191377
-0.00191847
-0.00192249
-0.00192583
-0.0019285
-0.00193051
-0.00193188
-0.0019326
-0.00193268
-0.00193213
-0.00193098
-0.00192925
-0.00192696
-0.00192413
-0.00192078
-0.0019169
-0.00191252
-0.00190769
-0.00190243
-0.00189678
-0.00189075
-0.00188436
-0.00187761
-0.00187053
-0.00186313
-0.00185543
-0.00184747
-0.00183929