/*--------------------------------*- C++ -*----------------------------------*\
  =========                 |
  \\      /  F ield         | OpenFOAM: The Open Source CFD Toolbox
   \\    /   O peration     | Website:  https://openfoam.org
    \\  /    A nd           | Version:  7
     \\/     M anipulation  |
\*---------------------------------------------------------------------------*/
FoamFile
{
    version     2.0;
    format      ascii;
    class       surfaceScalarField;
    location    "0.375";
    object      phi;
}
// * * * * * * * * * * * * * * * * * * * * * * * * * * * * * * * * * * * * * //

dimensions      [0 3 -1 0 0 0 0];

internalField   nonuniform List<scalar> 
101920
(
-2.42636e-13
4.8623e-14
-5.64785e-13
3.25122e-13
-9.68721e-13
4.02074e-13
-1.30871e-12
3.3944e-13
-1.50889e-12
1.98472e-13
-1.52321e-12
1.44419e-14
-1.32989e-12
-1.94545e-13
-9.17716e-13
-4.14635e-13
-2.83293e-13
-6.35569e-13
5.69083e-13
-8.52218e-13
1.63215e-12
-1.06202e-12
2.89697e-12
-1.26437e-12
4.35444e-12
-1.45831e-12
5.99545e-12
-1.64228e-12
7.80995e-12
-1.81479e-12
9.78628e-12
-1.97565e-12
1.19121e-11
-2.12564e-12
1.41764e-11
-2.26532e-12
1.65696e-11
-2.39453e-12
1.90818e-11
-2.51294e-12
2.17025e-11
-2.62042e-12
2.44208e-11
-2.71751e-12
2.72263e-11
-2.8051e-12
3.01093e-11
-2.88377e-12
3.30617e-11
-2.95354e-12
3.60755e-11
-3.01427e-12
3.9142e-11
-3.06618e-12
4.22523e-11
-3.10986e-12
4.53982e-11
-3.14612e-12
4.85729e-11
-3.17544e-12
5.17699e-11
-3.19777e-12
5.49827e-11
-3.21294e-12
5.82043e-11
-3.22121e-12
6.1428e-11
-3.2233e-12
6.46475e-11
-3.21981e-12
6.78578e-11
-3.21085e-12
7.10541e-11
-3.19639e-12
7.42313e-11
-3.17647e-12
7.73837e-11
-3.15143e-12
8.05061e-11
-3.12182e-12
8.3594e-11
-3.08817e-12
8.66438e-11
-3.05071e-12
8.96523e-11
-3.00929e-12
9.26159e-11
-2.96388e-12
9.55308e-11
-2.91477e-12
9.83933e-11
-2.86239e-12
1.012e-10
-2.80695e-12
1.03949e-10
-2.74857e-12
1.06637e-10
-2.68733e-12
1.0926e-10
-2.62334e-12
1.11818e-10
-2.55672e-12
1.14306e-10
-2.48776e-12
1.16723e-10
-2.41684e-12
1.19067e-10
-2.34412e-12
1.21336e-10
-2.26947e-12
1.23529e-10
-2.19283e-12
1.25644e-10
-2.11436e-12
1.27679e-10
-2.03433e-12
1.29632e-10
-1.95298e-12
1.31503e-10
-1.87046e-12
1.3329e-10
-1.78676e-12
1.34992e-10
-1.70176e-12
1.36608e-10
-1.61546e-12
1.38137e-10
-1.52813e-12
1.39577e-10
-1.44001e-12
1.40928e-10
-1.35114e-12
1.4219e-10
-1.26145e-12
1.43361e-10
-1.171e-12
1.44442e-10
-1.07993e-12
1.4543e-10
-9.88349e-13
1.46326e-10
-8.96287e-13
1.4713e-10
-8.03742e-13
1.47841e-10
-7.10745e-13
1.48458e-10
-6.17394e-13
1.48982e-10
-5.23789e-13
1.49412e-10
-4.29932e-13
1.49748e-10
-3.35744e-13
1.4999e-10
-2.41235e-13
1.50137e-10
-1.46579e-13
1.50189e-10
-5.1989e-14
1.50146e-10
4.24756e-14
1.50009e-10
1.36925e-13
1.49777e-10
2.31469e-13
1.49452e-10
3.26059e-13
1.49031e-10
4.20509e-13
1.48516e-10
5.14659e-13
1.47907e-10
6.08505e-13
1.47205e-10
7.02143e-13
1.4641e-10
7.95592e-13
1.45521e-10
8.8871e-13
1.4454e-10
9.81302e-13
1.43466e-10
1.07328e-12
1.42301e-10
1.1647e-12
1.41045e-10
1.2556e-12
1.39699e-10
1.34592e-12
1.38264e-10
1.43549e-12
1.3674e-10
1.52412e-12
1.35127e-10
1.61177e-12
1.33428e-10
1.69848e-12
1.31644e-10
1.78421e-12
1.29775e-10
1.86888e-12
1.27823e-10
1.95236e-12
1.25788e-10
2.03445e-12
1.23673e-10
2.11496e-12
1.21478e-10
2.19381e-12
1.19207e-10
2.27102e-12
1.1686e-10
2.34656e-12
1.1444e-10
2.4202e-12
1.11948e-10
2.4917e-12
1.09387e-10
2.56092e-12
1.06759e-10
2.62774e-12
1.04067e-10
2.69208e-12
1.01313e-10
2.75386e-12
9.85003e-11
2.81292e-12
9.56315e-11
2.86894e-12
9.27099e-11
2.92162e-12
8.97388e-11
2.97092e-12
8.6722e-11
3.01676e-12
8.36634e-11
3.05887e-12
8.05666e-11
3.09687e-12
7.74358e-11
3.13057e-12
7.42756e-11
3.15979e-12
7.1091e-11
3.18431e-12
6.7887e-11
3.20396e-12
6.46687e-11
3.21857e-12
6.14412e-11
3.22784e-12
5.82101e-11
3.23129e-12
5.49815e-11
3.22859e-12
5.17618e-11
3.21965e-12
4.85577e-11
3.20434e-12
4.53759e-11
3.18228e-12
4.22231e-11
3.15301e-12
3.91069e-11
3.11615e-12
3.60354e-11
3.07136e-12
3.30168e-11
3.01835e-12
3.00598e-11
2.957e-12
2.71729e-11
2.88708e-12
2.43651e-11
2.80805e-12
2.16459e-11
2.71938e-12
1.90249e-11
2.62092e-12
1.65126e-11
2.5126e-12
1.41191e-11
2.39406e-12
1.18548e-11
2.26488e-12
9.73021e-12
2.12478e-12
7.75645e-12
1.97362e-12
5.94504e-12
1.81133e-12
4.30717e-12
1.63814e-12
2.85337e-12
1.45448e-12
1.59346e-12
1.26069e-12
5.36514e-13
1.05718e-12
-3.09239e-13
8.45107e-13
-9.36964e-13
6.2684e-13
-1.34279e-12
4.05773e-13
-1.52871e-12
1.86363e-13
-1.50595e-12
-2.38779e-14
-1.29825e-12
-2.10997e-13
-9.47012e-13
-3.52139e-13
-5.2343e-13
-4.14078e-13
-1.5048e-13
-3.53233e-13
-1.38186e-13
-4.19363e-13
4.70772e-13
-1.09617e-12
9.94069e-13
-1.75839e-12
1.06843e-12
-2.20968e-12
7.91107e-13
-2.29499e-12
2.81801e-13
-1.91337e-12
-3.73551e-13
-9.99004e-13
-1.11389e-12
4.83827e-13
-1.89742e-12
2.54748e-12
-2.69643e-12
5.18996e-12
-3.49196e-12
8.39951e-12
-4.27154e-12
1.21596e-11
-5.02679e-12
1.64503e-11
-5.75141e-12
2.12479e-11
-6.44055e-12
2.65255e-11
-7.0914e-12
3.22533e-11
-7.70317e-12
3.84017e-11
-8.27566e-12
4.49426e-11
-8.80856e-12
5.18484e-11
-9.30157e-12
5.90908e-11
-9.75472e-12
6.66406e-11
-1.01688e-11
7.4469e-11
-1.05453e-11
8.25486e-11
-1.08856e-11
9.08537e-11
-1.11908e-11
9.93598e-11
-1.1461e-11
1.08043e-10
-1.16973e-11
1.16878e-10
-1.1901e-11
1.25842e-10
-1.20741e-11
1.34913e-10
-1.22179e-11
1.44069e-10
-1.23332e-11
1.53292e-10
-1.24209e-11
1.62562e-10
-1.2482e-11
1.71859e-10
-1.25177e-11
1.81165e-10
-1.25295e-11
1.90463e-10
-1.25186e-11
1.99738e-10
-1.24858e-11
2.08974e-10
-1.24316e-11
2.18156e-10
-1.23571e-11
2.27269e-10
-1.22636e-11
2.36299e-10
-1.21523e-11
2.45234e-10
-1.20241e-11
2.54062e-10
-1.18797e-11
2.62771e-10
-1.17196e-11
2.71352e-10
-1.15448e-11
2.79794e-10
-1.1356e-11
2.88085e-10
-1.11541e-11
2.96218e-10
-1.09399e-11
3.04184e-10
-1.0714e-11
3.11974e-10
-1.04768e-11
3.19581e-10
-1.02291e-11
3.26997e-10
-9.97149e-12
3.34214e-10
-9.70487e-12
3.41227e-10
-9.42983e-12
3.48029e-10
-9.1468e-12
3.54616e-10
-8.85606e-12
3.60982e-10
-8.55795e-12
3.67122e-10
-8.25309e-12
3.7303e-10
-7.94215e-12
3.78703e-10
-7.62565e-12
3.84136e-10
-7.30387e-12
3.89327e-10
-6.97708e-12
3.94272e-10
-6.64553e-12
3.98968e-10
-6.30954e-12
4.0341e-10
-5.96954e-12
4.07596e-10
-5.62591e-12
4.11524e-10
-5.27894e-12
4.15192e-10
-4.92888e-12
4.18597e-10
-4.57602e-12
4.21738e-10
-4.22066e-12
4.24613e-10
-3.86302e-12
4.2722e-10
-3.50324e-12
4.29558e-10
-3.14152e-12
4.31625e-10
-2.77816e-12
4.33422e-10
-2.41344e-12
4.34945e-10
-2.0475e-12
4.36196e-10
-1.68039e-12
4.37174e-10
-1.31222e-12
4.37876e-10
-9.43244e-13
4.38304e-10
-5.73837e-13
4.38455e-10
-2.0428e-13
4.38332e-10
1.65347e-13
4.37934e-10
5.35063e-13
4.37261e-10
9.04771e-13
4.36313e-10
1.2742e-12
4.3509e-10
1.64302e-12
4.33593e-10
2.01101e-12
4.31824e-10
2.37809e-12
4.29782e-10
2.74417e-12
4.27469e-10
3.10904e-12
4.24885e-10
3.47238e-12
4.22032e-10
3.83387e-12
4.18911e-10
4.19334e-12
4.15525e-10
4.55064e-12
4.11875e-10
4.90558e-12
4.07963e-10
5.25785e-12
4.03791e-10
5.60706e-12
3.99362e-10
5.95286e-12
3.94678e-10
6.29501e-12
3.89742e-10
6.63332e-12
3.84559e-10
6.96754e-12
3.79131e-10
7.29725e-12
3.73461e-10
7.62194e-12
3.67554e-10
7.94116e-12
3.61413e-10
8.2545e-12
3.55045e-10
8.56156e-12
3.48454e-10
8.86199e-12
3.41645e-10
9.1554e-12
3.34624e-10
9.44119e-12
3.27396e-10
9.71868e-12
3.1997e-10
9.9873e-12
3.12351e-10
1.02466e-11
3.04547e-10
1.04961e-11
2.96566e-10
1.07351e-11
2.88416e-10
1.0963e-11
2.80106e-10
1.1179e-11
2.71645e-10
1.13824e-11
2.63044e-10
1.15724e-11
2.54312e-10
1.17485e-11
2.45461e-10
1.19098e-11
2.36503e-10
1.20553e-11
2.27449e-10
1.21841e-11
2.18312e-10
1.22955e-11
2.09108e-10
1.23888e-11
1.9985e-10
1.24629e-11
1.90552e-10
1.25169e-11
1.8123e-10
1.25495e-11
1.71902e-10
1.256e-11
1.62583e-10
1.25472e-11
1.53293e-10
1.25102e-11
1.4405e-10
1.24479e-11
1.34874e-10
1.23592e-11
1.25784e-10
1.22426e-11
1.16803e-10
1.2097e-11
1.07952e-10
1.19214e-11
9.9256e-11
1.17147e-11
9.07375e-11
1.14759e-11
8.24213e-11
1.12038e-11
7.43327e-11
1.0897e-11
6.64984e-11
1.05542e-11
5.89454e-11
1.01745e-11
5.17015e-11
9.75702e-12
4.47947e-11
9.30124e-12
3.82538e-11
8.8062e-12
3.21073e-11
8.27122e-12
2.63845e-11
7.69617e-12
2.1115e-11
7.08134e-12
1.63268e-11
6.42747e-12
1.2046e-11
5.73616e-12
8.2966e-12
5.01002e-12
5.09992e-12
4.25285e-12
2.47317e-12
3.4704e-12
4.26796e-13
2.67192e-12
-1.03874e-12
1.87122e-12
-1.93698e-12
1.08725e-12
-2.30151e-12
3.45922e-13
-2.19567e-12
-3.14473e-13
-1.72441e-12
-8.33993e-13
-1.04799e-12
-1.12095e-12
-3.90679e-13
-1.05231e-12
-5.13763e-13
-4.44551e-13
9.13949e-13
-1.13348e-12
1.68152e-12
-1.69386e-12
1.6266e-12
-1.86797e-12
9.65814e-13
-1.46808e-12
-1.20778e-13
-3.57438e-13
-1.48808e-12
1.55471e-12
-3.02792e-12
4.32159e-12
-4.66323e-12
7.96759e-12
-6.33926e-12
1.24953e-11
-8.01765e-12
1.78935e-11
-9.67086e-12
2.41426e-11
-1.12783e-11
3.12153e-11
-1.28253e-11
3.90773e-11
-1.4302e-11
4.76887e-11
-1.57022e-11
5.70072e-11
-1.70224e-11
6.69898e-11
-1.82605e-11
7.75941e-11
-1.94148e-11
8.8777e-11
-2.04847e-11
1.00494e-10
-2.14707e-11
1.12701e-10
-2.23743e-11
1.25352e-10
-2.31976e-11
1.38408e-10
-2.39424e-11
1.51826e-10
-2.46104e-11
1.65569e-10
-2.52034e-11
1.79596e-10
-2.57236e-11
1.93869e-10
-2.61739e-11
2.08351e-10
-2.65574e-11
2.23008e-10
-2.68763e-11
2.37806e-10
-2.71325e-11
2.52714e-10
-2.73282e-11
2.67699e-10
-2.74661e-11
2.8273e-10
-2.75489e-11
2.97779e-10
-2.7579e-11
3.12819e-10
-2.75588e-11
3.27823e-10
-2.749e-11
3.42768e-10
-2.73746e-11
3.57627e-10
-2.7215e-11
3.72378e-10
-2.70136e-11
3.86997e-10
-2.67726e-11
4.01466e-10
-2.64939e-11
4.15764e-10
-2.61789e-11
4.29874e-10
-2.58294e-11
4.43777e-10
-2.54475e-11
4.57455e-10
-2.50348e-11
4.70894e-10
-2.4593e-11
4.84078e-10
-2.41237e-11
4.96993e-10
-2.36283e-11
5.09625e-10
-2.3108e-11
5.21961e-10
-2.25643e-11
5.33989e-10
-2.1999e-11
5.45698e-10
-2.14135e-11
5.57076e-10
-2.08089e-11
5.68115e-10
-2.01861e-11
5.78805e-10
-1.95461e-11
5.89138e-10
-1.889e-11
5.99105e-10
-1.82189e-11
6.08697e-10
-1.75343e-11
6.17908e-10
-1.6837e-11
6.26732e-10
-1.61276e-11
6.35163e-10
-1.54069e-11
6.43194e-10
-1.46757e-11
6.5082e-10
-1.39348e-11
6.58036e-10
-1.31849e-11
6.64837e-10
-1.24268e-11
6.7122e-10
-1.16611e-11
6.7718e-10
-1.08885e-11
6.82714e-10
-1.01096e-11
6.87818e-10
-9.32502e-12
6.9249e-10
-8.53516e-12
6.96728e-10
-7.74051e-12
7.00528e-10
-6.9416e-12
7.03889e-10
-6.13903e-12
7.06809e-10
-5.33326e-12
7.09286e-10
-4.52461e-12
7.1132e-10
-3.71337e-12
7.12909e-10
-2.89999e-12
7.14051e-10
-2.08504e-12
7.14746e-10
-1.26905e-12
7.14993e-10
-4.52385e-13
7.14794e-10
3.64692e-13
7.14147e-10
1.18189e-12
7.13053e-10
1.99879e-12
7.11513e-10
2.81486e-12
7.09526e-10
3.62966e-12
7.07094e-10
4.44283e-12
7.04218e-10
5.25403e-12
7.009e-10
6.0628e-12
6.9714e-10
6.86858e-12
6.92942e-10
7.67082e-12
6.88306e-10
8.46908e-12
6.83236e-10
9.26298e-12
6.77734e-10
1.00521e-11
6.71804e-10
1.08357e-11
6.65449e-10
1.16131e-11
6.58672e-10
1.23837e-11
6.51477e-10
1.31467e-11
6.4387e-10
1.39017e-11
6.35855e-10
1.4648e-11
6.27438e-10
1.5385e-11
6.18624e-10
1.61117e-11
6.09418e-10
1.68271e-11
5.99829e-10
1.75303e-11
5.89862e-10
1.82204e-11
5.79527e-10
1.88967e-11
5.6883e-10
1.95582e-11
5.57782e-10
2.02037e-11
5.46391e-10
2.08321e-11
5.34667e-10
2.14421e-11
5.22622e-10
2.20325e-11
5.10266e-10
2.26022e-11
4.97612e-10
2.315e-11
4.84673e-10
2.36744e-11
4.71463e-10
2.41739e-11
4.57994e-10
2.4647e-11
4.44284e-10
2.50922e-11
4.30349e-10
2.55078e-11
4.16205e-10
2.58924e-11
4.01871e-10
2.62442e-11
3.87364e-10
2.65613e-11
3.72707e-10
2.68416e-11
3.57919e-10
2.70833e-11
3.43023e-10
2.72848e-11
3.28042e-10
2.74441e-11
3.13e-10
2.75588e-11
2.97923e-10
2.76268e-11
2.82837e-10
2.7646e-11
2.6777e-10
2.76142e-11
2.52752e-10
2.7529e-11
2.37812e-10
2.73883e-11
2.22982e-10
2.71895e-11
2.08294e-10
2.693e-11
1.93783e-10
2.66076e-11
1.79484e-10
2.62199e-11
1.65435e-10
2.57646e-11
1.51672e-10
2.52392e-11
1.38235e-10
2.46411e-11
1.25164e-10
2.39681e-11
1.125e-10
2.32181e-11
1.00286e-10
2.2389e-11
8.85649e-11
2.14791e-11
7.73797e-11
2.0487e-11
6.67745e-11
1.94114e-11
5.67934e-11
1.82518e-11
4.74806e-11
1.70085e-11
3.88792e-11
1.56828e-11
3.10307e-11
1.4277e-11
2.39726e-11
1.27952e-11
1.77387e-11
1.12438e-11
1.23575e-11
9.63263e-12
7.85094e-12
7.97572e-12
4.22954e-12
6.29301e-12
1.48727e-12
4.61317e-12
-4.02971e-13
2.97688e-12
-1.49422e-12
1.43953e-12
-1.87336e-12
7.55666e-14
-1.67534e-12
-1.01303e-12
-1.10032e-12
-1.68228e-12
-4.34985e-13
-1.73738e-12
-9.4257e-13
-3.60573e-13
1.27715e-12
-8.34314e-13
2.15247e-12
-1.01947e-12
1.80893e-12
-6.34618e-13
5.76684e-13
5.30518e-13
-1.28899e-12
2.62759e-12
-3.58613e-12
5.76015e-12
-6.15961e-12
9.99271e-12
-8.89276e-12
1.53569e-11
-1.17009e-11
2.1861e-11
-1.45216e-11
2.94963e-11
-1.73079e-11
3.82411e-11
-2.00249e-11
4.80629e-11
-2.26472e-11
5.89196e-11
-2.51577e-11
7.07626e-11
-2.7545e-11
8.35397e-11
-2.98013e-11
9.7198e-11
-3.19211e-11
1.11683e-10
-3.3901e-11
1.26938e-10
-3.57395e-11
1.42906e-10
-3.74372e-11
1.59528e-10
-3.89962e-11
1.76748e-10
-4.04187e-11
1.94511e-10
-4.17071e-11
2.12765e-10
-4.2864e-11
2.31455e-10
-4.38926e-11
2.50529e-10
-4.47972e-11
2.69937e-10
-4.5582e-11
2.89629e-10
-4.62512e-11
3.0956e-10
-4.68086e-11
3.29684e-10
-4.72575e-11
3.49959e-10
-4.76021e-11
3.7034e-10
-4.78469e-11
3.90787e-10
-4.79962e-11
4.11261e-10
-4.80538e-11
4.31725e-10
-4.80235e-11
4.52145e-10
-4.79087e-11
4.72485e-10
-4.77131e-11
4.92712e-10
-4.74408e-11
5.12794e-10
-4.70955e-11
5.32701e-10
-4.66809e-11
5.52406e-10
-4.61999e-11
5.71883e-10
-4.56557e-11
5.91104e-10
-4.50514e-11
6.10047e-10
-4.43902e-11
6.28687e-10
-4.36752e-11
6.47003e-10
-4.29091e-11
6.64974e-10
-4.20946e-11
6.8258e-10
-4.12341e-11
6.99804e-10
-4.03302e-11
7.16626e-10
-3.93855e-11
7.3303e-10
-3.84027e-11
7.49e-10
-3.73841e-11
7.64522e-10
-3.63317e-11
7.79583e-10
-3.52471e-11
7.9417e-10
-3.41324e-11
8.08271e-10
-3.29895e-11
8.21873e-10
-3.18204e-11
8.34965e-10
-3.06271e-11
8.47539e-10
-2.94112e-11
8.59585e-10
-2.81738e-11
8.71095e-10
-2.69164e-11
8.82061e-10
-2.56405e-11
8.92475e-10
-2.43474e-11
9.02329e-10
-2.30385e-11
9.11618e-10
-2.17151e-11
9.20335e-10
-2.03783e-11
9.28476e-10
-1.90291e-11
9.36035e-10
-1.76688e-11
9.43009e-10
-1.62982e-11
9.49392e-10
-1.49182e-11
9.55182e-10
-1.35298e-11
9.60374e-10
-1.21339e-11
9.64966e-10
-1.07315e-11
9.68956e-10
-9.32324e-12
9.72342e-10
-7.90978e-12
9.75121e-10
-6.49179e-12
9.77292e-10
-5.07017e-12
9.78853e-10
-3.64584e-12
9.79804e-10
-2.21958e-12
9.80143e-10
-7.91977e-13
9.79871e-10
6.3643e-13
9.78988e-10
2.06497e-12
9.77494e-10
3.49285e-12
9.7539e-10
4.91923e-12
9.72676e-10
6.34341e-12
9.69354e-10
7.76473e-12
9.65426e-10
9.18249e-12
9.60893e-10
1.05958e-11
9.55758e-10
1.20038e-11
9.50023e-10
1.34056e-11
9.43691e-10
1.48004e-11
9.36766e-10
1.61874e-11
9.29253e-10
1.75658e-11
9.21154e-10
1.89344e-11
9.12475e-10
2.0292e-11
9.03221e-10
2.16373e-11
8.93398e-10
2.29696e-11
8.83012e-10
2.42876e-11
8.7207e-10
2.55903e-11
8.60579e-10
2.68761e-11
8.48547e-10
2.81436e-11
8.35982e-10
2.93912e-11
8.22895e-10
3.06173e-11
8.09294e-10
3.18205e-11
7.95191e-10
3.29993e-11
7.80598e-10
3.41518e-11
7.65526e-10
3.52761e-11
7.49987e-10
3.63701e-11
7.33997e-10
3.74318e-11
7.1757e-10
3.84591e-11
7.00723e-10
3.945e-11
6.83471e-10
4.04023e-11
6.65832e-10
4.13135e-11
6.47825e-10
4.21808e-11
6.2947e-10
4.30018e-11
6.10788e-10
4.3774e-11
5.91802e-10
4.44945e-11
5.72534e-10
4.51604e-11
5.53009e-10
4.57687e-11
5.33254e-10
4.63162e-11
5.13295e-10
4.67998e-11
4.93162e-10
4.72162e-11
4.72885e-10
4.75621e-11
4.52495e-10
4.78343e-11
4.32025e-10
4.80289e-11
4.1151e-10
4.81422e-11
3.90985e-10
4.81705e-11
3.70489e-10
4.81102e-11
3.50062e-10
4.79573e-11
3.29742e-10
4.77079e-11
3.09574e-10
4.73579e-11
2.896e-10
4.69031e-11
2.69868e-10
4.63396e-11
2.50424e-10
4.56635e-11
2.31318e-10
4.4871e-11
2.126e-10
4.39579e-11
1.94321e-10
4.29201e-11
1.76535e-10
4.17541e-11
1.59296e-10
4.04567e-11
1.42661e-10
3.90248e-11
1.26685e-10
3.74557e-11
1.11425e-10
3.57474e-11
9.69372e-11
3.38987e-11
8.32792e-11
3.19094e-11
7.05069e-11
2.97807e-11
5.86743e-11
2.75157e-11
4.78324e-11
2.51195e-11
3.80279e-11
2.26002e-11
2.93013e-11
1.99699e-11
2.16859e-11
1.72468e-11
1.52055e-11
1.44559e-11
9.86981e-12
1.16306e-11
5.66836e-12
8.81686e-12
2.5642e-12
6.07879e-12
4.8966e-13
3.50516e-12
-6.5779e-13
1.21361e-12
-1.02465e-12
-6.44041e-13
-8.2107e-13
-1.87154e-12
-3.56037e-13
-2.20672e-12
-1.29922e-12
-2.11819e-13
1.48838e-12
-3.13462e-13
2.25435e-12
7.3108e-14
1.41658e-12
1.23205e-12
-5.8759e-13
3.37555e-12
-3.43458e-12
6.65812e-12
-6.8683e-12
1.11887e-11
-1.06863e-11
1.70346e-11
-1.4735e-11
2.4232e-11
-1.88975e-11
3.27934e-11
-2.30843e-11
4.27114e-11
-2.72277e-11
5.39626e-11
-3.12767e-11
6.651e-11
-3.5194e-11
8.0306e-11
-3.89533e-11
9.52958e-11
-4.2536e-11
1.1142e-10
-4.59284e-11
1.28618e-10
-4.9121e-11
1.46824e-10
-5.21077e-11
1.65971e-10
-5.48859e-11
1.85991e-10
-5.74559e-11
2.06814e-10
-5.98193e-11
2.28372e-10
-6.19787e-11
2.50601e-10
-6.39367e-11
2.73435e-10
-6.56971e-11
2.96809e-10
-6.72649e-11
3.20658e-10
-6.86461e-11
3.44921e-10
-6.98462e-11
3.69538e-10
-7.08708e-11
3.94454e-10
-7.17253e-11
4.19612e-10
-7.24152e-11
4.44957e-10
-7.29468e-11
4.70437e-10
-7.33265e-11
4.96e-10
-7.35607e-11
5.216e-10
-7.36548e-11
5.47191e-10
-7.36143e-11
5.72728e-10
-7.34445e-11
5.98168e-10
-7.31515e-11
6.23469e-10
-7.27412e-11
6.48592e-10
-7.2219e-11
6.73501e-10
-7.159e-11
6.98159e-10
-7.08592e-11
7.22534e-10
-7.00312e-11
7.46594e-10
-6.91109e-11
7.70306e-10
-6.81031e-11
7.93643e-10
-6.70125e-11
8.16577e-10
-6.58432e-11
8.39082e-10
-6.45991e-11
8.61133e-10
-6.32842e-11
8.82707e-10
-6.19024e-11
9.0378e-10
-6.04579e-11
9.24331e-10
-5.89544e-11
9.44342e-10
-5.73954e-11
9.63793e-10
-5.57838e-11
9.82669e-10
-5.41225e-11
1.00095e-09
-5.24147e-11
1.01863e-09
-5.06635e-11
1.03568e-09
-4.88718e-11
1.05209e-09
-4.70423e-11
1.06786e-09
-4.51774e-11
1.08297e-09
-4.32792e-11
1.0974e-09
-4.135e-11
1.11115e-09
-3.9392e-11
1.12421e-09
-3.74075e-11
1.13657e-09
-3.53984e-11
1.14823e-09
-3.33667e-11
1.15916e-09
-3.13141e-11
1.16938e-09
-2.92423e-11
1.17886e-09
-2.7153e-11
1.18761e-09
-2.50476e-11
1.19562e-09
-2.29276e-11
1.20288e-09
-2.07946e-11
1.2094e-09
-1.865e-11
1.21516e-09
-1.64951e-11
1.22017e-09
-1.43309e-11
1.22442e-09
-1.21586e-11
1.22791e-09
-9.97933e-12
1.23064e-09
-7.79455e-12
1.2326e-09
-5.60556e-12
1.23379e-09
-3.41346e-12
1.23422e-09
-1.21915e-12
1.23388e-09
9.7642e-13
1.23277e-09
3.17211e-12
1.2309e-09
5.36667e-12
1.22826e-09
7.5589e-12
1.22485e-09
9.74773e-12
1.22068e-09
1.19321e-11
1.21576e-09
1.41108e-11
1.21007e-09
1.62826e-11
1.20363e-09
1.8446e-11
1.19643e-09
2.05998e-11
1.18849e-09
2.27429e-11
1.1798e-09
2.48738e-11
1.17038e-09
2.6991e-11
1.16022e-09
2.90928e-11
1.14933e-09
3.11775e-11
1.13773e-09
3.32434e-11
1.12541e-09
3.52889e-11
1.11238e-09
3.73123e-11
1.09866e-09
3.93116e-11
1.08425e-09
4.12847e-11
1.06917e-09
4.32292e-11
1.05341e-09
4.51429e-11
1.03701e-09
4.70234e-11
1.01996e-09
4.88684e-11
1.00228e-09
5.06755e-11
9.83993e-10
5.24418e-11
9.65105e-10
5.41642e-11
9.45635e-10
5.58398e-11
9.25601e-10
5.74655e-11
9.05022e-10
5.90382e-11
8.83917e-10
6.05546e-11
8.62309e-10
6.20112e-11
8.40218e-10
6.34043e-11
8.17669e-10
6.47298e-11
7.94687e-10
6.59838e-11
7.71299e-10
6.71625e-11
7.47532e-10
6.82617e-11
7.23416e-10
6.92769e-11
6.98981e-10
7.02033e-11
6.7426e-10
7.10363e-11
6.49288e-10
7.17712e-11
6.24101e-10
7.24031e-11
5.98736e-10
7.2927e-11
5.73233e-10
7.33375e-11
5.47633e-10
7.36292e-11
5.21979e-10
7.37966e-11
4.96315e-10
7.38342e-11
4.7069e-10
7.37363e-11
4.4515e-10
7.34972e-11
4.19748e-10
7.31107e-11
3.94535e-10
7.25709e-11
3.69565e-10
7.1872e-11
3.44896e-10
7.10081e-11
3.20586e-10
6.99734e-11
2.96695e-10
6.87622e-11
2.73285e-10
6.73688e-11
2.50417e-10
6.57874e-11
2.28158e-10
6.40129e-11
2.06574e-10
6.2041e-11
1.85732e-10
5.98676e-11
1.65699e-10
5.74893e-11
1.46543e-10
5.49037e-11
1.28332e-10
5.21098e-11
1.11132e-10
4.91085e-11
9.50108e-11
4.59025e-11
8.00298e-11
4.24973e-11
6.6248e-11
3.8902e-11
5.37187e-11
3.51299e-11
4.24879e-11
3.12004e-11
3.25919e-11
2.71414e-11
2.4055e-11
2.2991e-11
1.68859e-11
1.87998e-11
1.10729e-11
1.46338e-11
6.57655e-12
1.05811e-11
3.32259e-12
6.76036e-12
1.1991e-12
3.33007e-12
5.36698e-14
4.93953e-13
-3.16176e-13
-1.49459e-12
-2.09861e-13
-2.3113e-12
-1.51107e-12
-2.40429e-14
1.51066e-12
3.44929e-13
1.88354e-12
1.44269e-12
3.14698e-13
3.53199e-12
-2.67923e-12
6.81166e-12
-6.71524e-12
1.14317e-11
-1.14854e-11
1.74959e-11
-1.67467e-11
2.50714e-11
-2.23087e-11
3.41953e-11
-2.80223e-11
4.48808e-11
-3.37718e-11
5.71198e-11
-3.94678e-11
7.08864e-11
-4.5043e-11
8.61398e-11
-5.0447e-11
1.02828e-10
-5.56429e-11
1.20893e-10
-6.0603e-11
1.40268e-10
-6.53069e-11
1.60886e-10
-6.97402e-11
1.82673e-10
-7.3894e-11
2.05552e-10
-7.77641e-11
2.29446e-10
-8.13493e-11
2.54276e-10
-8.46505e-11
2.79966e-10
-8.767e-11
3.06441e-10
-9.0411e-11
3.33623e-10
-9.28785e-11
3.61438e-10
-9.50792e-11
3.89812e-10
-9.70204e-11
4.18672e-10
-9.87091e-11
4.47952e-10
-1.00152e-10
4.77584e-10
-1.01357e-10
5.07502e-10
-1.02332e-10
5.37641e-10
-1.03086e-10
5.6794e-10
-1.03627e-10
5.98341e-10
-1.03962e-10
6.28786e-10
-1.04101e-10
6.59222e-10
-1.0405e-10
6.89596e-10
-1.03817e-10
7.19856e-10
-1.0341e-10
7.49954e-10
-1.02839e-10
7.79843e-10
-1.02109e-10
8.09479e-10
-1.01227e-10
8.38821e-10
-1.00202e-10
8.67829e-10
-9.90392e-11
8.96464e-10
-9.77458e-11
9.24689e-10
-9.63285e-11
9.52469e-10
-9.47937e-11
9.79773e-10
-9.3147e-11
1.00657e-09
-9.13942e-11
1.03283e-09
-8.95408e-11
1.05852e-09
-8.75927e-11
1.08362e-09
-8.55555e-11
1.1081e-09
-8.34343e-11
1.13193e-09
-8.12337e-11
1.15511e-09
-7.89581e-11
1.1776e-09
-7.66119e-11
1.19938e-09
-7.41994e-11
1.22045e-09
-7.17251e-11
1.24077e-09
-6.91931e-11
1.26033e-09
-6.6607e-11
1.27912e-09
-6.397e-11
1.29713e-09
-6.12854e-11
1.31434e-09
-5.85566e-11
1.33073e-09
-5.57868e-11
1.34631e-09
-5.2979e-11
1.36104e-09
-5.01361e-11
1.37494e-09
-4.72607e-11
1.38798e-09
-4.43554e-11
1.40016e-09
-4.14225e-11
1.41147e-09
-3.84644e-11
1.42191e-09
-3.54832e-11
1.43146e-09
-3.24812e-11
1.44013e-09
-2.94605e-11
1.4479e-09
-2.64231e-11
1.45478e-09
-2.33708e-11
1.46075e-09
-2.03051e-11
1.46582e-09
-1.72278e-11
1.46998e-09
-1.41407e-11
1.47324e-09
-1.10457e-11
1.47557e-09
-7.94465e-12
1.477e-09
-4.83898e-12
1.47751e-09
-1.73008e-12
1.47711e-09
1.38057e-12
1.47579e-09
4.49128e-12
1.47355e-09
7.60031e-12
1.47041e-09
1.0706e-11
1.46635e-09
1.38069e-11
1.46138e-09
1.69014e-11
1.4555e-09
1.99876e-11
1.44872e-09
2.30638e-11
1.44104e-09
2.61281e-11
1.43246e-09
2.91787e-11
1.42299e-09
3.22138e-11
1.41263e-09
3.52313e-11
1.40139e-09
3.82291e-11
1.38928e-09
4.12048e-11
1.3763e-09
4.4156e-11
1.36246e-09
4.70804e-11
1.34778e-09
4.99756e-11
1.33225e-09
5.28391e-11
1.31589e-09
5.5668e-11
1.29872e-09
5.84592e-11
1.28074e-09
6.12096e-11
1.26196e-09
6.39159e-11
1.24241e-09
6.65751e-11
1.2221e-09
6.91835e-11
1.20103e-09
7.17377e-11
1.17924e-09
7.42335e-11
1.15674e-09
7.66669e-11
1.13355e-09
7.90334e-11
1.10968e-09
8.13291e-11
1.08517e-09
8.35493e-11
1.06004e-09
8.56893e-11
1.0343e-09
8.77441e-11
1.008e-09
8.97084e-11
9.81153e-10
9.15768e-11
9.53793e-10
9.33439e-11
9.25952e-10
9.50039e-11
8.97663e-10
9.6551e-11
8.68961e-10
9.7979e-11
8.39883e-10
9.92813e-11
8.10467e-10
1.00451e-10
7.80755e-10
1.01483e-10
7.5079e-10
1.02368e-10
7.20616e-10
1.03101e-10
6.9028e-10
1.03674e-10
6.5983e-10
1.04079e-10
6.29318e-10
1.04309e-10
5.98797e-10
1.04356e-10
5.68322e-10
1.04212e-10
5.3795e-10
1.0387e-10
5.0774e-10
1.0332e-10
4.77755e-10
1.02556e-10
4.48059e-10
1.01568e-10
4.18717e-10
1.0035e-10
3.89798e-10
9.88926e-11
3.61372e-10
9.71887e-11
3.3351e-10
9.52308e-11
3.06285e-10
9.30116e-11
2.79774e-10
9.05247e-11
2.54051e-10
8.77641e-11
2.29194e-10
8.4725e-11
2.0528e-10
8.14035e-11
1.82387e-10
7.77971e-11
1.60592e-10
7.39055e-11
1.3997e-10
6.97309e-11
1.20595e-10
6.52783e-11
1.02536e-10
6.05565e-11
8.58594e-11
5.55792e-11
7.06228e-11
5.03664e-11
5.68771e-11
4.4946e-11
4.4662e-11
3.93562e-11
3.40025e-11
3.3649e-11
2.49064e-11
2.78929e-11
1.73618e-11
2.21766e-11
1.13316e-11
1.6614e-11
6.74465e-12
1.13526e-11
3.49042e-12
6.58538e-12
1.41713e-12
2.56156e-12
3.3538e-13
-4.10581e-13
-2.44615e-14
-1.94927e-12
-1.53632e-12
1.84709e-13
1.32287e-12
1.08583e-12
9.79413e-13
2.9867e-12
-1.58651e-12
6.11299e-12
-5.80471e-12
1.06425e-11
-1.1242e-11
1.6709e-11
-1.75489e-11
2.44075e-11
-2.44437e-11
3.38004e-11
-3.17022e-11
4.4922e-11
-3.91457e-11
5.77823e-11
-4.66334e-11
7.23702e-11
-5.40557e-11
8.86562e-11
-6.13286e-11
1.06596e-10
-6.83879e-11
1.26135e-10
-7.51845e-11
1.4721e-10
-8.16811e-11
1.69751e-10
-8.78501e-11
1.93682e-10
-9.36719e-11
2.18924e-10
-9.91342e-11
2.45391e-10
-1.0423e-10
2.72998e-10
-1.08957e-10
3.01661e-10
-1.13315e-10
3.31294e-10
-1.17304e-10
3.61813e-10
-1.20929e-10
3.93132e-10
-1.24196e-10
4.25166e-10
-1.27114e-10
4.57833e-10
-1.2969e-10
4.91055e-10
-1.31932e-10
5.24752e-10
-1.33851e-10
5.5885e-10
-1.35455e-10
5.93273e-10
-1.36755e-10
6.27948e-10
-1.37762e-10
6.62806e-10
-1.38486e-10
6.9778e-10
-1.38938e-10
7.32807e-10
-1.39128e-10
7.67823e-10
-1.39065e-10
8.02769e-10
-1.38761e-10
8.37585e-10
-1.38226e-10
8.72216e-10
-1.3747e-10
9.06609e-10
-1.36503e-10
9.40714e-10
-1.35333e-10
9.74483e-10
-1.33971e-10
1.00787e-09
-1.32426e-10
1.04083e-09
-1.30706e-10
1.07332e-09
-1.2882e-10
1.1053e-09
-1.26776e-10
1.13674e-09
-1.24582e-10
1.16759e-09
-1.22246e-10
1.19783e-09
-1.19776e-10
1.22741e-09
-1.17178e-10
1.25632e-09
-1.14461e-10
1.28451e-09
-1.1163e-10
1.31197e-09
-1.08693e-10
1.33867e-09
-1.05655e-10
1.36458e-09
-1.02521e-10
1.38968e-09
-9.92991e-11
1.41395e-09
-9.59936e-11
1.43737e-09
-9.26102e-11
1.45991e-09
-8.91536e-11
1.48157e-09
-8.56282e-11
1.50232e-09
-8.20388e-11
1.52216e-09
-7.83897e-11
1.54106e-09
-7.46854e-11
1.55901e-09
-7.09297e-11
1.576e-09
-6.71265e-11
1.59202e-09
-6.32794e-11
1.60706e-09
-5.93917e-11
1.6211e-09
-5.54667e-11
1.63414e-09
-5.15075e-11
1.64618e-09
-4.75171e-11
1.6572e-09
-4.34985e-11
1.66719e-09
-3.94546e-11
1.67615e-09
-3.5388e-11
1.68408e-09
-3.13011e-11
1.69098e-09
-2.7196e-11
1.69683e-09
-2.30752e-11
1.70163e-09
-1.89413e-11
1.70538e-09
-1.47969e-11
1.70808e-09
-1.0644e-11
1.70972e-09
-6.48481e-12
1.71031e-09
-2.32116e-12
1.70985e-09
1.84478e-12
1.70833e-09
6.01069e-12
1.70576e-09
1.01743e-11
1.70213e-09
1.43335e-11
1.69745e-09
1.84861e-11
1.69172e-09
2.263e-11
1.68495e-09
2.67626e-11
1.67713e-09
3.08816e-11
1.66827e-09
3.49845e-11
1.65838e-09
3.90689e-11
1.64746e-09
4.31322e-11
1.63552e-09
4.71717e-11
1.62257e-09
5.11843e-11
1.6086e-09
5.51669e-11
1.59364e-09
5.91166e-11
1.57769e-09
6.30301e-11
1.56076e-09
6.69041e-11
1.54287e-09
7.07351e-11
1.52402e-09
7.45192e-11
1.50422e-09
7.82523e-11
1.4835e-09
8.19304e-11
1.46187e-09
8.55492e-11
1.43934e-09
8.91043e-11
1.41593e-09
9.2591e-11
1.39166e-09
9.60044e-11
1.36656e-09
9.9339e-11
1.34064e-09
1.0259e-10
1.31392e-09
1.0575e-10
1.28643e-09
1.08816e-10
1.2582e-09
1.1178e-10
1.22926e-09
1.14636e-10
1.19962e-09
1.17377e-10
1.16933e-09
1.19997e-10
1.13842e-09
1.22488e-10
1.10692e-09
1.24843e-10
1.07487e-09
1.27055e-10
1.04231e-09
1.29116e-10
1.00927e-09
1.31016e-10
9.75804e-10
1.32749e-10
9.41951e-10
1.34304e-10
9.07759e-10
1.35674e-10
8.73278e-10
1.3685e-10
8.38558e-10
1.37821e-10
8.03653e-10
1.38579e-10
7.68619e-10
1.39113e-10
7.33515e-10
1.39414e-10
6.984e-10
1.39471e-10
6.63339e-10
1.39275e-10
6.28395e-10
1.38814e-10
5.93637e-10
1.38079e-10
5.59134e-10
1.37058e-10
5.24961e-10
1.35742e-10
4.9119e-10
1.3412e-10
4.57901e-10
1.32183e-10
4.2517e-10
1.2992e-10
3.93077e-10
1.27323e-10
3.61707e-10
1.24382e-10
3.31143e-10
1.21089e-10
3.01469e-10
1.17438e-10
2.72772e-10
1.13423e-10
2.45137e-10
1.09039e-10
2.1865e-10
1.04285e-10
1.93395e-10
9.91607e-11
1.69456e-10
9.36706e-11
1.46912e-10
8.78225e-11
1.2584e-10
8.16292e-11
1.06309e-10
7.51099e-11
8.83831e-11
6.82918e-11
7.21164e-11
6.12124e-11
5.75528e-11
5.39214e-11
4.47198e-11
4.64839e-11
3.36269e-11
3.89855e-11
2.42635e-11
3.15371e-11
1.65958e-11
2.42792e-11
1.05618e-11
1.73885e-11
6.06259e-12
1.10889e-11
2.95748e-12
5.66586e-12
1.07437e-12
1.47351e-12
1.82917e-13
-1.05704e-12
-1.35327e-12
4.03459e-13
9.1713e-13
1.87274e-12
-4.90754e-13
4.63119e-12
-4.34303e-12
8.86333e-12
-1.00329e-11
1.47168e-11
-1.7092e-11
2.23046e-11
-2.51355e-11
3.17081e-11
-3.38486e-11
4.29807e-11
-4.29769e-11
5.61495e-11
-5.23158e-11
7.12185e-11
-6.17022e-11
8.81709e-11
-7.10077e-11
1.06973e-10
-8.01314e-11
1.27577e-10
-8.89949e-11
1.49926e-10
-9.75365e-11
1.73951e-10
-1.05709e-10
1.99579e-10
-1.13478e-10
2.26726e-10
-1.20818e-10
2.55307e-10
-1.27714e-10
2.8523e-10
-1.34154e-10
3.16406e-10
-1.40134e-10
3.48742e-10
-1.45651e-10
3.82146e-10
-1.50707e-10
4.16524e-10
-1.55306e-10
4.51783e-10
-1.59455e-10
4.87832e-10
-1.63164e-10
5.2458e-10
-1.6644e-10
5.61941e-10
-1.69295e-10
5.99829e-10
-1.71739e-10
6.38159e-10
-1.73784e-10
6.76849e-10
-1.75444e-10
7.15818e-10
-1.76732e-10
7.5499e-10
-1.77659e-10
7.94292e-10
-1.7824e-10
8.3365e-10
-1.78486e-10
8.72997e-10
-1.7841e-10
9.12263e-10
-1.78026e-10
9.51384e-10
-1.77347e-10
9.90299e-10
-1.76385e-10
1.02895e-09
-1.75153e-10
1.06728e-09
-1.73661e-10
1.10523e-09
-1.71923e-10
1.14275e-09
-1.69949e-10
1.17979e-09
-1.67752e-10
1.21632e-09
-1.65341e-10
1.25227e-09
-1.62727e-10
1.28761e-09
-1.59921e-10
1.32229e-09
-1.56932e-10
1.35629e-09
-1.5377e-10
1.38956e-09
-1.50444e-10
1.42206e-09
-1.46964e-10
1.45377e-09
-1.43338e-10
1.48465e-09
-1.39574e-10
1.51467e-09
-1.3568e-10
1.54382e-09
-1.31664e-10
1.57205e-09
-1.27533e-10
1.59935e-09
-1.23294e-10
1.62569e-09
-1.18954e-10
1.65106e-09
-1.1452e-10
1.67543e-09
-1.09996e-10
1.69878e-09
-1.0539e-10
1.7211e-09
-1.00707e-10
1.74237e-09
-9.59522e-11
1.76257e-09
-9.11309e-11
1.78169e-09
-8.6248e-11
1.79972e-09
-8.13081e-11
1.81664e-09
-7.63155e-11
1.83245e-09
-7.12746e-11
1.84713e-09
-6.61892e-11
1.86068e-09
-6.10634e-11
1.87308e-09
-5.59011e-11
1.88433e-09
-5.07059e-11
1.89443e-09
-4.54811e-11
1.90335e-09
-4.02297e-11
1.91111e-09
-3.49548e-11
1.9177e-09
-2.96597e-11
1.92311e-09
-2.43478e-11
1.92733e-09
-1.9022e-11
1.93037e-09
-1.36852e-11
1.93223e-09
-8.33989e-12
1.9329e-09
-2.98886e-12
1.93238e-09
2.36501e-12
1.93067e-09
7.71876e-12
1.92777e-09
1.30696e-11
1.92369e-09
1.84146e-11
1.91843e-09
2.37512e-11
1.91198e-09
2.90762e-11
1.90436e-09
3.43866e-11
1.89556e-09
3.96793e-11