/*--------------------------------*- C++ -*----------------------------------*\
  =========                 |
  \\      /  F ield         | OpenFOAM: The Open Source CFD Toolbox
   \\    /   O peration     | Website:  https://openfoam.org
    \\  /    A nd           | Version:  7
     \\/     M anipulation  |
\*---------------------------------------------------------------------------*/
FoamFile
{
    version     2.0;
    format      ascii;
    class       volVectorField;
    location    "0.375";
    object      U;
}
// * * * * * * * * * * * * * * * * * * * * * * * * * * * * * * * * * * * * * //

dimensions      [0 1 -1 0 0 0 0];

internalField   nonuniform List<vector> 
51200
(
(-1.79298e-08 1.46348e-09 0)
(-6.28033e-08 2.17699e-08 0)
(-1.23609e-07 2.92682e-08 0)
(-1.85871e-07 2.70524e-08 0)
(-2.31323e-07 1.96562e-08 0)
(-2.4972e-07 9.86709e-09 0)
(-2.36053e-07 -1.1933e-09 0)
(-1.879e-07 -1.27066e-08 0)
(-1.04205e-07 -2.40706e-08 0)
(1.48269e-08 -3.50196e-08 0)
(1.68268e-07 -4.54626e-08 0)
(3.54803e-07 -5.54079e-08 0)
(5.72953e-07 -6.48661e-08 0)
(8.21221e-07 -7.37725e-08 0)
(1.09805e-06 -8.20586e-08 0)
(1.4017e-06 -8.97217e-08 0)
(1.73028e-06 -9.68208e-08 0)
(2.08191e-06 -1.03398e-07 0)
(2.45493e-06 -1.09453e-07 0)
(2.84776e-06 -1.14979e-07 0)
(3.25877e-06 -1.19966e-07 0)
(3.68625e-06 -1.24446e-07 0)
(4.12851e-06 -1.28469e-07 0)
(4.58395e-06 -1.3207e-07 0)
(5.05114e-06 -1.35246e-07 0)
(5.52876e-06 -1.37996e-07 0)
(6.01549e-06 -1.40334e-07 0)
(6.50994e-06 -1.42284e-07 0)
(7.01074e-06 -1.43887e-07 0)
(7.51668e-06 -1.45173e-07 0)
(8.0267e-06 -1.46142e-07 0)
(8.53974e-06 -1.46779e-07 0)
(9.05473e-06 -1.47092e-07 0)
(9.57058e-06 -1.47122e-07 0)
(1.00863e-05 -1.46901e-07 0)
(1.06009e-05 -1.46433e-07 0)
(1.11136e-05 -1.45714e-07 0)
(1.16237e-05 -1.44746e-07 0)
(1.21302e-05 -1.43545e-07 0)
(1.26324e-05 -1.42133e-07 0)
(1.31294e-05 -1.40543e-07 0)
(1.36206e-05 -1.38789e-07 0)
(1.41054e-05 -1.36861e-07 0)
(1.45833e-05 -1.3475e-07 0)
(1.50537e-05 -1.3247e-07 0)
(1.5516e-05 -1.30045e-07 0)
(1.59697e-05 -1.27485e-07 0)
(1.64143e-05 -1.24791e-07 0)
(1.68493e-05 -1.21971e-07 0)
(1.72743e-05 -1.19031e-07 0)
(1.76889e-05 -1.15973e-07 0)
(1.80926e-05 -1.12808e-07 0)
(1.84851e-05 -1.0956e-07 0)
(1.88661e-05 -1.06239e-07 0)
(1.92352e-05 -1.02832e-07 0)
(1.95922e-05 -9.93344e-08 0)
(1.99369e-05 -9.57553e-08 0)
(2.0269e-05 -9.21084e-08 0)
(2.05881e-05 -8.84038e-08 0)
(2.0894e-05 -8.46518e-08 0)
(2.11867e-05 -8.08532e-08 0)
(2.14659e-05 -7.69967e-08 0)
(2.17314e-05 -7.30783e-08 0)
(2.1983e-05 -6.91125e-08 0)
(2.22206e-05 -6.51145e-08 0)
(2.2444e-05 -6.10857e-08 0)
(2.2653e-05 -5.70216e-08 0)
(2.28477e-05 -5.29247e-08 0)
(2.30278e-05 -4.88016e-08 0)
(2.31933e-05 -4.46572e-08 0)
(2.33441e-05 -4.04935e-08 0)
(2.34802e-05 -3.63101e-08 0)
(2.36013e-05 -3.21072e-08 0)
(2.37076e-05 -2.78877e-08 0)
(2.37989e-05 -2.36569e-08 0)
(2.38753e-05 -1.94158e-08 0)
(2.39366e-05 -1.516e-08 0)
(2.39828e-05 -1.08887e-08 0)
(2.40139e-05 -6.61085e-09 0)
(2.40298e-05 -2.33771e-09 0)
(2.40305e-05 1.92779e-09 0)
(2.40161e-05 6.19206e-09 0)
(2.39866e-05 1.04618e-08 0)
(2.3942e-05 1.47355e-08 0)
(2.38823e-05 1.90038e-08 0)
(2.38075e-05 2.32583e-08 0)
(2.37176e-05 2.74986e-08 0)
(2.36127e-05 3.17307e-08 0)
(2.34929e-05 3.59565e-08 0)
(2.33581e-05 4.01693e-08 0)
(2.32085e-05 4.43587e-08 0)
(2.30441e-05 4.85203e-08 0)
(2.2865e-05 5.26574e-08 0)
(2.26713e-05 5.67738e-08 0)
(2.24631e-05 6.08668e-08 0)
(2.22406e-05 6.49264e-08 0)
(2.20037e-05 6.89438e-08 0)
(2.17528e-05 7.29182e-08 0)
(2.14878e-05 7.68528e-08 0)
(2.12091e-05 8.07467e-08 0)
(2.09168e-05 8.45955e-08 0)
(2.0611e-05 8.83937e-08 0)
(2.0292e-05 9.21323e-08 0)
(1.996e-05 9.57996e-08 0)
(1.96152e-05 9.93914e-08 0)
(1.92578e-05 1.02913e-07 0)
(1.88883e-05 1.06365e-07 0)
(1.85069e-05 1.09733e-07 0)
(1.81138e-05 1.13004e-07 0)
(1.77095e-05 1.16175e-07 0)
(1.72942e-05 1.19239e-07 0)
(1.68685e-05 1.22193e-07 0)
(1.64327e-05 1.25036e-07 0)
(1.59873e-05 1.27761e-07 0)
(1.55327e-05 1.30349e-07 0)
(1.50693e-05 1.32787e-07 0)
(1.45977e-05 1.35075e-07 0)
(1.41186e-05 1.37212e-07 0)
(1.36324e-05 1.3918e-07 0)
(1.31398e-05 1.4096e-07 0)
(1.26414e-05 1.42547e-07 0)
(1.21379e-05 1.43936e-07 0)
(1.16302e-05 1.4511e-07 0)
(1.11189e-05 1.46059e-07 0)
(1.06049e-05 1.46781e-07 0)
(1.0089e-05 1.47266e-07 0)
(9.5721e-06 1.47487e-07 0)
(9.05509e-06 1.47424e-07 0)
(8.53897e-06 1.47076e-07 0)
(8.0248e-06 1.46436e-07 0)
(7.51365e-06 1.45484e-07 0)
(7.0066e-06 1.44198e-07 0)
(6.50479e-06 1.42563e-07 0)
(6.00946e-06 1.40559e-07 0)
(5.52194e-06 1.38169e-07 0)
(5.04356e-06 1.35388e-07 0)
(4.5757e-06 1.32206e-07 0)
(4.11977e-06 1.28589e-07 0)
(3.67724e-06 1.24503e-07 0)
(3.24965e-06 1.19949e-07 0)
(2.8386e-06 1.14926e-07 0)
(2.44573e-06 1.09408e-07 0)
(2.07271e-06 1.03358e-07 0)
(1.72119e-06 9.67596e-08 0)
(1.39292e-06 8.9599e-08 0)
(1.08971e-06 8.18606e-08 0)
(8.13371e-07 7.35437e-08 0)
(5.65658e-07 6.4662e-08 0)
(3.48209e-07 5.52138e-08 0)
(1.62564e-07 4.51859e-08 0)
(1.01372e-08 3.46061e-08 0)
(-1.07844e-07 2.3574e-08 0)
(-1.90485e-07 1.22248e-08 0)
(-2.37549e-07 7.39901e-10 0)
(-2.49952e-07 -1.04977e-08 0)
(-2.3031e-07 -2.06004e-08 0)
(-1.83461e-07 -2.80083e-08 0)
(-1.18e-07 -3.03311e-08 0)
(-5.12846e-08 -2.45198e-08 0)
(-1.02645e-08 -8.8653e-09 0)
(-3.10184e-08 3.77496e-08 0)
(-1.18517e-07 1.00378e-07 0)
(-2.32153e-07 1.16149e-07 0)
(-3.28943e-07 9.51782e-08 0)
(-3.76738e-07 5.16169e-08 0)
(-3.56184e-07 -5.30738e-09 0)
(-2.54342e-07 -6.97283e-08 0)
(-6.34496e-08 -1.37606e-07 0)
(2.19928e-07 -2.06324e-07 0)
(5.96567e-07 -2.74239e-07 0)
(1.06521e-06 -3.40353e-07 0)
(1.62353e-06 -4.04163e-07 0)
(2.26851e-06 -4.65214e-07 0)
(2.99657e-06 -5.23107e-07 0)
(3.80362e-06 -5.7756e-07 0)
(4.68512e-06 -6.28547e-07 0)
(5.63635e-06 -6.76145e-07 0)
(6.65265e-06 -7.20396e-07 0)
(7.72954e-06 -7.61274e-07 0)
(8.8625e-06 -7.98763e-07 0)
(1.00469e-05 -8.3291e-07 0)
(1.12783e-05 -8.63872e-07 0)
(1.25519e-05 -8.9182e-07 0)
(1.38637e-05 -9.16864e-07 0)
(1.52096e-05 -9.39026e-07 0)
(1.65857e-05 -9.58334e-07 0)
(1.79881e-05 -9.74921e-07 0)
(1.94129e-05 -9.88964e-07 0)
(2.08565e-05 -1.00061e-06 0)
(2.23155e-05 -1.00995e-06 0)
(2.37867e-05 -1.01702e-06 0)
(2.52669e-05 -1.02188e-06 0)
(2.67529e-05 -1.02463e-06 0)
(2.82419e-05 -1.02542e-06 0)
(2.97309e-05 -1.02437e-06 0)
(3.12173e-05 -1.02155e-06 0)
(3.26988e-05 -1.01697e-06 0)
(3.41728e-05 -1.0107e-06 0)
(3.5637e-05 -1.00287e-06 0)
(3.70889e-05 -9.93585e-07 0)
(3.85266e-05 -9.82953e-07 0)
(3.99481e-05 -9.71029e-07 0)
(4.13515e-05 -9.5784e-07 0)
(4.27352e-05 -9.43424e-07 0)
(4.40974e-05 -9.2786e-07 0)
(4.54364e-05 -9.11242e-07 0)
(4.67508e-05 -8.93637e-07 0)
(4.8039e-05 -8.75079e-07 0)
(4.92998e-05 -8.55603e-07 0)
(5.05319e-05 -8.35261e-07 0)
(5.17339e-05 -8.14117e-07 0)
(5.29048e-05 -7.9224e-07 0)
(5.40435e-05 -7.69702e-07 0)
(5.51489e-05 -7.46539e-07 0)
(5.62203e-05 -7.22753e-07 0)
(5.72567e-05 -6.98357e-07 0)
(5.82573e-05 -6.73404e-07 0)
(5.92214e-05 -6.47964e-07 0)
(6.0148e-05 -6.22087e-07 0)
(6.10367e-05 -5.95801e-07 0)
(6.18868e-05 -5.69118e-07 0)
(6.26978e-05 -5.42041e-07 0)
(6.34692e-05 -5.14592e-07 0)
(6.42002e-05 -4.86815e-07 0)
(6.48906e-05 -4.58758e-07 0)
(6.55399e-05 -4.30441e-07 0)
(6.61476e-05 -4.01874e-07 0)
(6.67136e-05 -3.73078e-07 0)
(6.72374e-05 -3.44084e-07 0)
(6.77187e-05 -3.14913e-07 0)
(6.81573e-05 -2.85574e-07 0)
(6.85529e-05 -2.56081e-07 0)
(6.89054e-05 -2.26453e-07 0)
(6.92146e-05 -1.96718e-07 0)
(6.94802e-05 -1.66889e-07 0)
(6.97022e-05 -1.36967e-07 0)
(6.98805e-05 -1.06952e-07 0)
(7.00149e-05 -7.68622e-08 0)
(7.01053e-05 -4.6736e-08 0)
(7.01516e-05 -1.66103e-08 0)
(7.01539e-05 1.35075e-08 0)
(7.01122e-05 4.36307e-08 0)
(7.00265e-05 7.37642e-08 0)
(6.98968e-05 1.03886e-07 0)
(6.97231e-05 1.3396e-07 0)
(6.95056e-05 1.63958e-07 0)
(6.92442e-05 1.93877e-07 0)
(6.89392e-05 2.23721e-07 0)
(6.85908e-05 2.5348e-07 0)
(6.8199e-05 2.83119e-07 0)
(6.7764e-05 3.12606e-07 0)
(6.7286e-05 3.4192e-07 0)
(6.67654e-05 3.71061e-07 0)
(6.62024e-05 4.0002e-07 0)
(6.55974e-05 4.28774e-07 0)
(6.49505e-05 4.5728e-07 0)
(6.42623e-05 4.85505e-07 0)
(6.35332e-05 5.13432e-07 0)
(6.27635e-05 5.41053e-07 0)
(6.19539e-05 5.68355e-07 0)
(6.11048e-05 5.95302e-07 0)
(6.02168e-05 6.2185e-07 0)
(5.92905e-05 6.47955e-07 0)
(5.83265e-05 6.73576e-07 0)
(5.73256e-05 6.98686e-07 0)
(5.62886e-05 7.23267e-07 0)
(5.52164e-05 7.47291e-07 0)
(5.41097e-05 7.70703e-07 0)
(5.29696e-05 7.93438e-07 0)
(5.1797e-05 8.15452e-07 0)
(5.05931e-05 8.36709e-07 0)
(4.9359e-05 8.57174e-07 0)
(4.80959e-05 8.76803e-07 0)
(4.68051e-05 8.95539e-07 0)
(4.54879e-05 9.13308e-07 0)
(4.41458e-05 9.30038e-07 0)
(4.27805e-05 9.45689e-07 0)
(4.13934e-05 9.60219e-07 0)
(3.99863e-05 9.73552e-07 0)
(3.85611e-05 9.85588e-07 0)
(3.71196e-05 9.96256e-07 0)
(3.56639e-05 1.00551e-06 0)
(3.4196e-05 1.01328e-06 0)
(3.27184e-05 1.01949e-06 0)
(3.12333e-05 1.02406e-06 0)
(2.97432e-05 1.02691e-06 0)
(2.82505e-05 1.02792e-06 0)
(2.6758e-05 1.02702e-06 0)
(2.52686e-05 1.02413e-06 0)
(2.37852e-05 1.01919e-06 0)
(2.23109e-05 1.01208e-06 0)
(2.08488e-05 1.00267e-06 0)
(1.94022e-05 9.9086e-07 0)
(1.79748e-05 9.76565e-07 0)
(1.65701e-05 9.59694e-07 0)
(1.5192e-05 9.40164e-07 0)
(1.38442e-05 9.17884e-07 0)
(1.25308e-05 8.92719e-07 0)
(1.12559e-05 8.64533e-07 0)
(1.00239e-05 8.33244e-07 0)
(8.83901e-06 7.98809e-07 0)
(7.70583e-06 7.6115e-07 0)
(6.62889e-06 7.2016e-07 0)
(5.61276e-06 6.75757e-07 0)
(4.66212e-06 6.27906e-07 0)
(3.78165e-06 5.76605e-07 0)
(2.97597e-06 5.21898e-07 0)
(2.24945e-06 4.63895e-07 0)
(1.60615e-06 4.02763e-07 0)
(1.04975e-06 3.38736e-07 0)
(5.83409e-07 2.72231e-07 0)
(2.09417e-07 2.0399e-07 0)
(-7.12432e-08 1.35148e-07 0)
(-2.59433e-07 6.72477e-08 0)
(-3.58638e-07 2.57168e-09 0)
(-3.76216e-07 -5.51358e-08 0)
(-3.24939e-07 -9.96618e-08 0)
(-2.25304e-07 -1.21498e-07 0)
(-1.11246e-07 -1.08117e-07 0)
(-2.80552e-08 -4.91326e-08 0)
(-3.33762e-08 1.10766e-07 0)
(-1.25737e-07 2.17573e-07 0)
(-2.35599e-07 2.24439e-07 0)
(-3.04067e-07 1.56663e-07 0)
(-2.9257e-07 3.75582e-08 0)
(-1.75956e-07 -1.14527e-07 0)
(6.31833e-08 -2.8625e-07 0)
(4.35928e-07 -4.68499e-07 0)
(9.4836e-07 -6.54825e-07 0)
(1.60232e-06 -8.40865e-07 0)
(2.39701e-06 -1.02361e-06 0)
(3.32981e-06 -1.20086e-06 0)
(4.39683e-06 -1.3711e-06 0)
(5.59303e-06 -1.53324e-06 0)
(6.91243e-06 -1.68665e-06 0)
(8.34846e-06 -1.83103e-06 0)
(9.89427e-06 -1.96622e-06 0)
(1.1543e-05 -2.09211e-06 0)
(1.32877e-05 -2.20864e-06 0)
(1.51214e-05 -2.31586e-06 0)
(1.7037e-05 -2.41399e-06 0)
(1.90273e-05 -2.50327e-06 0)
(2.10856e-05 -2.58398e-06 0)
(2.32051e-05 -2.65632e-06 0)
(2.53796e-05 -2.72044e-06 0)
(2.76027e-05 -2.7766e-06 0)
(2.98681e-05 -2.82512e-06 0)
(3.217e-05 -2.86639e-06 0)
(3.45025e-05 -2.90066e-06 0)
(3.68602e-05 -2.92814e-06 0)
(3.92379e-05 -2.94908e-06 0)
(4.16305e-05 -2.96373e-06 0)
(4.4033e-05 -2.9724e-06 0)
(4.64405e-05 -2.97539e-06 0)
(4.88487e-05 -2.97296e-06 0)
(5.12533e-05 -2.96528e-06 0)
(5.36502e-05 -2.95257e-06 0)
(5.60354e-05 -2.93507e-06 0)
(5.84051e-05 -2.91306e-06 0)
(6.07555e-05 -2.8868e-06 0)
(6.30834e-05 -2.85649e-06 0)
(6.53855e-05 -2.82229e-06 0)
(6.76589e-05 -2.7844e-06 0)
(6.99006e-05 -2.74299e-06 0)
(7.21078e-05 -2.69827e-06 0)
(7.42778e-05 -2.65044e-06 0)
(7.64082e-05 -2.59966e-06 0)
(7.84966e-05 -2.54608e-06 0)
(8.05409e-05 -2.48982e-06 0)
(8.25389e-05 -2.43105e-06 0)
(8.44885e-05 -2.36995e-06 0)
(8.63878e-05 -2.3067e-06 0)
(8.82352e-05 -2.24142e-06 0)
(9.0029e-05 -2.1742e-06 0)
(9.17677e-05 -2.10515e-06 0)
(9.34499e-05 -2.03435e-06 0)
(9.50742e-05 -1.96197e-06 0)
(9.66392e-05 -1.88813e-06 0)
(9.81438e-05 -1.81294e-06 0)
(9.95868e-05 -1.73648e-06 0)
(0.000100967 -1.65881e-06 0)
(0.000102285 -1.58001e-06 0)
(0.000103537 -1.50017e-06 0)
(0.000104725 -1.41937e-06 0)
(0.000105846 -1.3377e-06 0)
(0.000106901 -1.25523e-06 0)
(0.000107889 -1.17202e-06 0)
(0.000108808 -1.08814e-06 0)
(0.00010966 -1.00366e-06 0)
(0.000110442 -9.18618e-07 0)
(0.000111155 -8.33069e-07 0)
(0.000111798 -7.47066e-07 0)
(0.000112371 -6.60674e-07 0)
(0.000112873 -5.73945e-07 0)
(0.000113305 -4.86913e-07 0)
(0.000113666 -3.99603e-07 0)
(0.000113956 -3.12058e-07 0)
(0.000114175 -2.24339e-07 0)
(0.000114322 -1.36512e-07 0)
(0.000114397 -4.86244e-08 0)
(0.000114401 3.92986e-08 0)
(0.000114333 1.27238e-07 0)
(0.000114194 2.15154e-07 0)
(0.000113983 3.0299e-07 0)
(0.000113701 3.90687e-07 0)
(0.000113347 4.78204e-07 0)
(0.000112923 5.6551e-07 0)
(0.000112427 6.52562e-07 0)
(0.000111861 7.39306e-07 0)
(0.000111224 8.25677e-07 0)
(0.000110517 9.11621e-07 0)
(0.000109741 9.97095e-07 0)
(0.000108895 1.08206e-06 0)
(0.00010798 1.16644e-06 0)
(0.000106997 1.25017e-06 0)
(0.000105946 1.33317e-06 0)
(0.000104828 1.41536e-06 0)
(0.000103644 1.49669e-06 0)
(0.000102394 1.57711e-06 0)
(0.000101079 1.65653e-06 0)
(9.97006e-05 1.73486e-06 0)
(9.82588e-05 1.81199e-06 0)
(9.67549e-05 1.88781e-06 0)
(9.51901e-05 1.96223e-06 0)
(9.35656e-05 2.03518e-06 0)
(9.18828e-05 2.10654e-06 0)
(9.01428e-05 2.1762e-06 0)
(8.83473e-05 2.24404e-06 0)
(8.64977e-05 2.3099e-06 0)
(8.45957e-05 2.37365e-06 0)
(8.26431e-05 2.4352e-06 0)
(8.06419e-05 2.49439e-06 0)
(7.85939e-05 2.55109e-06 0)
(7.65014e-05 2.60512e-06 0)
(7.43665e-05 2.65632e-06 0)
(7.21916e-05 2.70451e-06 0)
(6.99793e-05 2.74954e-06 0)
(6.77323e-05 2.79123e-06 0)
(6.54532e-05 2.8294e-06 0)
(6.31452e-05 2.86383e-06 0)
(6.08113e-05 2.89429e-06 0)
(5.84548e-05 2.92061e-06 0)
(5.60791e-05 2.94261e-06 0)
(5.3688e-05 2.96005e-06 0)
(5.12852e-05 2.97269e-06 0)
(4.88747e-05 2.98029e-06 0)
(4.64606e-05 2.98261e-06 0)
(4.40472e-05 2.97942e-06 0)
(4.16393e-05 2.97047e-06 0)
(3.92414e-05 2.95552e-06 0)
(3.68585e-05 2.93427e-06 0)
(3.44957e-05 2.90645e-06 0)
(3.21584e-05 2.87177e-06 0)
(2.98522e-05 2.83001e-06 0)
(2.75829e-05 2.78089e-06 0)
(2.53564e-05 2.72415e-06 0)
(2.31789e-05 2.6595e-06 0)
(2.10566e-05 2.58667e-06 0)
(1.89961e-05 2.50539e-06 0)
(1.70042e-05 2.41542e-06 0)
(1.50877e-05 2.31658e-06 0)
(1.32534e-05 2.20869e-06 0)
(1.15085e-05 2.09158e-06 0)
(9.85982e-06 1.96514e-06 0)
(8.31462e-06 1.82937e-06 0)
(6.87985e-06 1.68436e-06 0)
(5.56229e-06 1.53031e-06 0)
(4.36832e-06 1.36761e-06 0)
(3.30371e-06 1.19692e-06 0)
(2.37354e-06 1.01923e-06 0)
(1.58195e-06 8.35996e-07 0)
(9.31667e-07 6.49403e-07 0)
(4.23187e-07 4.62666e-07 0)
(5.40881e-08 2.80327e-07 0)
(-1.81733e-07 1.0862e-07 0)
(-2.95082e-07 -4.37165e-08 0)
(-3.02793e-07 -1.6396e-07 0)
(-2.30867e-07 -2.33343e-07 0)
(-1.21806e-07 -2.26767e-07 0)
(-3.23244e-08 -1.16982e-07 0)
(-2.88544e-08 1.7944e-07 0)
(-1.00735e-07 3.18233e-07 0)
(-1.64704e-07 2.93886e-07 0)
(-1.59388e-07 1.5014e-07 0)
(-4.25396e-08 -7.78886e-08 0)
(2.13591e-07 -3.62449e-07 0)
(6.28656e-07 -6.82647e-07 0)
(1.21595e-06 -1.02286e-06 0)
(1.98279e-06 -1.3721e-06 0)
(2.93225e-06 -1.72241e-06 0)
(4.06408e-06 -2.06789e-06 0)
(5.37565e-06 -2.40424e-06 0)
(6.86248e-06 -2.72833e-06 0)
(8.51849e-06 -3.03811e-06 0)
(1.03364e-05 -3.33222e-06 0)
(1.23081e-05 -3.60979e-06 0)
(1.44251e-05 -3.87027e-06 0)
(1.66788e-05 -4.11329e-06 0)
(1.90603e-05 -4.3387e-06 0)
(2.15604e-05 -4.54661e-06 0)
(2.41698e-05 -4.73732e-06 0)
(2.68794e-05 -4.91117e-06 0)
(2.96802e-05 -5.06851e-06 0)
(3.25637e-05 -5.20968e-06 0)
(3.55212e-05 -5.33508e-06 0)
(3.85444e-05 -5.44522e-06 0)
(4.16249e-05 -5.54066e-06 0)
(4.47548e-05 -5.62197e-06 0)
(4.79265e-05 -5.68961e-06 0)
(5.11327e-05 -5.74402e-06 0)
(5.43664e-05 -5.78566e-06 0)
(5.76205e-05 -5.81512e-06 0)
(6.08883e-05 -5.83293e-06 0)
(6.41635e-05 -5.83959e-06 0)
(6.744e-05 -5.83555e-06 0)
(7.07121e-05 -5.82123e-06 0)
(7.39742e-05 -5.79708e-06 0)
(7.72208e-05 -5.76358e-06 0)
(8.04467e-05 -5.72123e-06 0)
(8.36471e-05 -5.67047e-06 0)
(8.68172e-05 -5.61167e-06 0)
(8.99528e-05 -5.5452e-06 0)
(9.30496e-05 -5.47143e-06 0)
(9.61037e-05 -5.39077e-06 0)
(9.91112e-05 -5.30358e-06 0)
(0.000102068 -5.21022e-06 0)
(0.000104972 -5.111e-06 0)
(0.000107819 -5.00623e-06 0)
(0.000110606 -4.89619e-06 0)
(0.000113331 -4.7812e-06 0)
(0.000115989 -4.66161e-06 0)
(0.00011858 -4.53771e-06 0)
(0.0001211 -4.40973e-06 0)
(0.000123547 -4.27788e-06 0)
(0.000125919 -4.14238e-06 0)
(0.000128215 -4.00347e-06 0)
(0.000130432 -3.8614e-06 0)
(0.000132567 -3.71642e-06 0)
(0.000134621 -3.56872e-06 0)
(0.000136591 -3.41844e-06 0)
(0.000138476 -3.26576e-06 0)
(0.000140274 -3.11083e-06 0)
(0.000141985 -2.95384e-06 0)
(0.000143607 -2.79495e-06 0)
(0.000145138 -2.6343e-06 0)
(0.000146579 -2.47204e-06 0)
(0.000147928 -2.30831e-06 0)
(0.000149184 -2.14323e-06 0)
(0.000150347 -1.97692e-06 0)
(0.000151416 -1.80949e-06 0)
(0.00015239 -1.64105e-06 0)
(0.000153268 -1.4717e-06 0)
(0.000154051 -1.30157e-06 0)
(0.000154738 -1.13075e-06 0)
(0.000155328 -9.593e-07 0)
(0.000155821 -7.87306e-07 0)
(0.000156217 -6.14869e-07 0)
(0.000156516 -4.42104e-07 0)
(0.000156717 -2.69111e-07 0)
(0.00015682 -9.59621e-08 0)
(0.000156825 7.72796e-08 0)
(0.000156733 2.50541e-07 0)
(0.000156543 4.23728e-07 0)
(0.000156255 5.96739e-07 0)
(0.00015587 7.69483e-07 0)
(0.000155387 9.41883e-07 0)
(0.000154807 1.11386e-06 0)
(0.00015413 1.2853e-06 0)
(0.000153356 1.45611e-06 0)
(0.000152486 1.62617e-06 0)
(0.000151521 1.79539e-06 0)
(0.00015046 1.96368e-06 0)
(0.000149305 2.13093e-06 0)
(0.000148056 2.29701e-06 0)
(0.000146713 2.46176e-06 0)
(0.000145279 2.62506e-06 0)
(0.000143752 2.78676e-06 0)
(0.000142135 2.94675e-06 0)
(0.000140429 3.1049e-06 0)
(0.000138634 3.26103e-06 0)
(0.000136751 3.41496e-06 0)
(0.000134783 3.56649e-06 0)
(0.000132731 3.71542e-06 0)
(0.000130595 3.86159e-06 0)
(0.000128379 4.00482e-06 0)
(0.000126082 4.14488e-06 0)
(0.000123709 4.28154e-06 0)
(0.000121259 4.41456e-06 0)
(0.000118736 4.54366e-06 0)
(0.000116142 4.6686e-06 0)
(0.00011348 4.78915e-06 0)
(0.000110751 4.90504e-06 0)
(0.000107959 5.01595e-06 0)
(0.000105107 5.12157e-06 0)
(0.000102197 5.22158e-06 0)
(9.92332e-05 5.31567e-06 0)
(9.62188e-05 5.40351e-06 0)
(9.31576e-05 5.48473e-06 0)
(9.00532e-05 5.55899e-06 0)
(8.69097e-05 5.62587e-06 0)
(8.37314e-05 5.68498e-06 0)
(8.05229e-05 5.73593e-06 0)
(7.72889e-05 5.77835e-06 0)
(7.40342e-05 5.8118e-06 0)
(7.0764e-05 5.83582e-06 0)
(6.74838e-05 5.84995e-06 0)
(6.41992e-05 5.85374e-06 0)
(6.0916e-05 5.84675e-06 0)
(5.76406e-05 5.82847e-06 0)
(5.43792e-05 5.79844e-06 0)
(5.11384e-05 5.75612e-06 0)
(4.79252e-05 5.70102e-06 0)
(4.47469e-05 5.63261e-06 0)
(4.16109e-05 5.55044e-06 0)
(3.85249e-05 5.45402e-06 0)
(3.54969e-05 5.34281e-06 0)
(3.25351e-05 5.2163e-06 0)
(2.96478e-05 5.07404e-06 0)
(2.68436e-05 4.91559e-06 0)
(2.41315e-05 4.74056e-06 0)
(2.15203e-05 4.54858e-06 0)
(1.90192e-05 4.33936e-06 0)
(1.66371e-05 4.11272e-06 0)
(1.43832e-05 3.86856e-06 0)
(1.22667e-05 3.60698e-06 0)
(1.02962e-05 3.3283e-06 0)
(8.48028e-06 3.03309e-06 0)
(6.82682e-06 2.72223e-06 0)
(5.34285e-06 2.39716e-06 0)
(4.03439e-06 2.06004e-06 0)
(2.90612e-06 1.71389e-06 0)
(1.96087e-06 1.36288e-06 0)
(1.19878e-06 1.01288e-06 0)
(6.16276e-07 6.722e-07 0)
(2.05241e-07 3.52291e-07 0)
(-4.76354e-08 6.84173e-08 0)
(-1.61416e-07 -1.59199e-07 0)
(-1.63593e-07 -3.03314e-07 0)
(-9.88933e-08 -3.27057e-07 0)
(-2.84045e-08 -1.83274e-07 0)
(-2.07568e-08 2.27315e-07 0)
(-5.5283e-08 3.69091e-07 0)
(-4.41457e-08 2.83597e-07 0)
(6.92485e-08 3.31921e-08 0)
(3.26209e-07 -3.3553e-07 0)
(7.55136e-07 -7.85921e-07 0)
(1.37672e-06 -1.28907e-06 0)
(2.20469e-06 -1.82343e-06 0)
(3.24717e-06 -2.37278e-06 0)
(4.50784e-06 -2.92501e-06 0)
(5.98689e-06 -3.47104e-06 0)
(7.68167e-06 -4.00402e-06 0)
(9.58722e-06 -4.51904e-06 0)
(1.16967e-05 -5.01266e-06 0)
(1.40018e-05 -5.48251e-06 0)
(1.64933e-05 -5.92693e-06 0)
(1.91617e-05 -6.34476e-06 0)
(2.19966e-05 -6.73528e-06 0)
(2.49876e-05 -7.0982e-06 0)
(2.81236e-05 -7.43358e-06 0)
(3.13937e-05 -7.74175e-06 0)
(3.47869e-05 -8.0231e-06 0)
(3.82926e-05 -8.27803e-06 0)
(4.19002e-05 -8.50706e-06 0)
(4.55993e-05 -8.71087e-06 0)
(4.93796e-05 -8.89023e-06 0)
(5.32309e-05 -9.04596e-06 0)
(5.71437e-05 -9.17881e-06 0)
(6.11087e-05 -9.28951e-06 0)
(6.51167e-05 -9.37877e-06 0)
(6.91591e-05 -9.44742e-06 0)
(7.32271e-05 -9.49631e-06 0)
(7.73126e-05 -9.52628e-06 0)
(8.14075e-05 -9.53808e-06 0)
(8.55046e-05 -9.5324e-06 0)
(8.95966e-05 -9.50998e-06 0)
(9.36764e-05 -9.47155e-06 0)
(9.77373e-05 -9.41791e-06 0)
(0.000101773 -9.34978e-06 0)
(0.000105777 -9.26786e-06 0)
(0.000109743 -9.17275e-06 0)
(0.000113667 -9.06507e-06 0)
(0.000117543 -8.94546e-06 0)
(0.000121366 -8.81453e-06 0)
(0.000125131 -8.67291e-06 0)
(0.000128834 -8.52112e-06 0)
(0.00013247 -8.35968e-06 0)
(0.000136036 -8.1891e-06 0)
(0.000139527 -8.00989e-06 0)
(0.000142939 -7.82257e-06 0)
(0.00014627 -7.62766e-06 0)
(0.000149516 -7.4256e-06 0)
(0.000152673 -7.21678e-06 0)
(0.00015574 -7.00156e-06 0)
(0.000158714 -6.78034e-06 0)
(0.000161591 -6.55351e-06 0)
(0.00016437 -6.32149e-06 0)
(0.000167047 -6.0846e-06 0)
(0.000169622 -5.84317e-06 0)
(0.000172093 -5.59747e-06 0)
(0.000174456 -5.34778e-06 0)
(0.000176712 -5.09439e-06 0)
(0.000178857 -4.83759e-06 0)
(0.000180891 -4.57763e-06 0)
(0.000182812 -4.31477e-06 0)
(0.00018462 -4.04922e-06 0)
(0.000186312 -3.78122e-06 0)
(0.000187888 -3.51097e-06 0)
(0.000189347 -3.23866e-06 0)
(0.000190688 -2.96449e-06 0)
(0.00019191 -2.68863e-06 0)
(0.000193013 -2.41129e-06 0)
(0.000193995 -2.13263e-06 0)
(0.000194857 -1.85279e-06 0)
(0.000195598 -1.5719e-06 0)
(0.000196217 -1.29013e-06 0)
(0.000196714 -1.00763e-06 0)
(0.000197089 -7.24603e-07 0)
(0.000197341 -4.41177e-07 0)
(0.000197471 -1.57473e-07 0)
(0.000197478 1.26391e-07 0)
(0.000197362 4.10275e-07 0)
(0.000197124 6.9402e-07 0)
(0.000196763 9.77468e-07 0)
(0.000196279 1.26048e-06 0)
(0.000195673 1.54292e-06 0)
(0.000194945 1.82464e-06 0)
(0.000194096 2.10546e-06 0)
(0.000193126 2.38523e-06 0)
(0.000192035 2.66376e-06 0)
(0.000190823 2.9409e-06 0)
(0.000189493 3.21648e-06 0)
(0.000188044 3.49032e-06 0)
(0.000186477 3.7622e-06 0)
(0.000184793 4.03187e-06 0)
(0.000182993 4.29912e-06 0)
(0.000181079 4.56376e-06 0)
(0.000179051 4.82555e-06 0)
(0.000176911 5.08426e-06 0)
(0.00017466 5.33961e-06 0)
(0.0001723 5.59129e-06 0)
(0.000169833 5.839e-06 0)
(0.00016726 6.08244e-06 0)
(0.000164583 6.32131e-06 0)
(0.000161804 6.55531e-06 0)
(0.000158926 6.78406e-06 0)
(0.000155951 7.00717e-06 0)
(0.000152882 7.22425e-06 0)
(0.000149721 7.4349e-06 0)
(0.000146471 7.63871e-06 0)
(0.000143136 7.83527e-06 0)
(0.000139718 8.02413e-06 0)
(0.000136221 8.20478e-06 0)
(0.000132649 8.37672e-06 0)
(0.000129005 8.53944e-06 0)
(0.000125295 8.69244e-06 0)
(0.000121521 8.83516e-06 0)
(0.000117689 8.96703e-06 0)
(0.000113804 9.08743e-06 0)
(0.00010987 9.19576e-06 0)
(0.000105893 9.29139e-06 0)
(0.000101879 9.37368e-06 0)
(9.78333e-05 9.44198e-06 0)
(9.37623e-05 9.49561e-06 0)
(8.96723e-05 9.53385e-06 0)
(8.55702e-05 9.55597e-06 0)
(8.14629e-05 9.56124e-06 0)
(7.73579e-05 9.54894e-06 0)
(7.32627e-05 9.51829e-06 0)
(6.91854e-05 9.4685e-06 0)
(6.5134e-05 9.39879e-06 0)
(6.11171e-05 9.30836e-06 0)
(5.71438e-05 9.19643e-06 0)
(5.32231e-05 9.06224e-06 0)
(4.93646e-05 8.90503e-06 0)
(4.5578e-05 8.72402e-06 0)
(4.18732e-05 8.51844e-06 0)
(3.82605e-05 8.28758e-06 0)
(3.47504e-05 8.03084e-06 0)
(3.13536e-05 7.74765e-06 0)
(2.80809e-05 7.43751e-06 0)
(2.49431e-05 7.10006e-06 0)
(2.1951e-05 6.73512e-06 0)
(1.91155e-05 6.34271e-06 0)
(1.64473e-05 5.92311e-06 0)
(1.39567e-05 5.477e-06 0)
(1.16535e-05 5.00545e-06 0)
(9.54657e-06 4.51014e-06 0)
(7.64412e-06 3.99355e-06 0)
(5.95277e-06 3.45928e-06 0)
(4.47751e-06 2.91234e-06 0)
(3.22111e-06 2.35938e-06 0)
(2.18354e-06 1.80929e-06 0)
(1.36096e-06 1.27422e-06 0)
(7.44487e-07 7.70835e-07 0)
(3.19415e-07 3.21292e-07 0)
(6.52279e-08 -4.5903e-08 0)
(-4.55757e-08 -2.94689e-07 0)
(-5.50109e-08 -3.77795e-07 0)
(-2.04792e-08 -2.30792e-07 0)
(-1.06012e-08 2.4714e-07 0)
(2.27719e-09 3.50591e-07 0)
(1.08419e-07 1.6844e-07 0)
(3.54353e-07 -2.22173e-07 0)
(7.76915e-07 -7.64399e-07 0)
(1.4039e-06 -1.41266e-06 0)
(2.25519e-06 -2.1313e-06 0)
(3.34426e-06 -2.89255e-06 0)
(4.67926e-06 -3.67511e-06 0)
(6.26399e-06 -4.46253e-06 0)
(8.0987e-06 -5.24228e-06 0)
(1.01805e-05 -6.00492e-06 0)
(1.25039e-05 -6.74347e-06 0)
(1.50614e-05 -7.45287e-06 0)
(1.78441e-05 -8.12948e-06 0)
(2.08421e-05 -8.77058e-06 0)
(2.40444e-05 -9.37432e-06 0)
(2.74397e-05 -9.93954e-06 0)
(3.1016e-05 -1.04657e-05 0)
(3.47609e-05 -1.09527e-05 0)
(3.86619e-05 -1.14009e-05 0)
(4.27066e-05 -1.18105e-05 0)
(4.68828e-05 -1.21821e-05 0)
(5.11784e-05 -1.25165e-05 0)
(5.55811e-05 -1.28144e-05 0)
(6.00791e-05 -1.3077e-05 0)
(6.46607e-05 -1.33054e-05 0)
(6.93146e-05 -1.35004e-05 0)
(7.40302e-05 -1.36631e-05 0)
(7.87967e-05 -1.37946e-05 0)
(8.36038e-05 -1.38961e-05 0)
(8.84413e-05 -1.39688e-05 0)
(9.32996e-05 -1.40137e-05 0)
(9.81695e-05 -1.4032e-05 0)
(0.000103042 -1.40247e-05 0)
(0.000107909 -1.39928e-05 0)
(0.000112762 -1.39375e-05 0)
(0.000117592 -1.38598e-05 0)
(0.000122393 -1.37609e-05 0)
(0.000127157 -1.36415e-05 0)
(0.000131877 -1.35028e-05 0)
(0.000136546 -1.33455e-05 0)
(0.000141159 -1.31706e-05 0)
(0.000145709 -1.2979e-05 0)
(0.000150191 -1.27717e-05 0)
(0.000154599 -1.25492e-05 0)
(0.000158928 -1.23126e-05 0)
(0.000163174 -1.20623e-05 0)
(0.000167331 -1.17994e-05 0)
(0.000171395 -1.15245e-05 0)
(0.000175362 -1.12383e-05 0)
(0.000179228 -1.09414e-05 0)
(0.00018299 -1.06345e-05 0)
(0.000186644 -1.03181e-05 0)
(0.000190187 -9.99282e-06 0)
(0.000193616 -9.65924e-06 0)
(0.000196927 -9.31792e-06 0)
(0.000200118 -8.96935e-06 0)
(0.000203187 -8.61397e-06 0)
(0.000206132 -8.25223e-06 0)
(0.00020895 -7.88456e-06 0)
(0.000211638 -7.51138e-06 0)
(0.000214196 -7.13313e-06 0)
(0.000216622 -6.75018e-06 0)
(0.000218913 -6.36287e-06 0)
(0.000221068 -5.97157e-06 0)
(0.000223086 -5.57658e-06 0)
(0.000224965 -5.17823e-06 0)
(0.000226706 -4.77679e-06 0)
(0.000228305 -4.37257e-06 0)
(0.000229763 -3.96584e-06 0)
(0.000231078 -3.55689e-06 0)
(0.00023225 -3.14594e-06 0)
(0.000233278 -2.73322e-06 0)
(0.000234162 -2.31894e-06 0)
(0.000234901 -1.90334e-06 0)
(0.000235494 -1.48669e-06 0)
(0.000235941 -1.06923e-06 0)
(0.000236242 -6.5116e-07 0)
(0.000236397 -2.3266e-07 0)
(0.000236406 1.86075e-07 0)
(0.000236268 6.04824e-07 0)
(0.000235984 1.02335e-06 0)
(0.000235553 1.44144e-06 0)
(0.000234977 1.85888e-06 0)
(0.000234254 2.27546e-06 0)
(0.000233387 2.69095e-06 0)
(0.000232374 3.1051e-06 0)
(0.000231217 3.51765e-06 0)
(0.000229915 3.92837e-06 0)
(0.000228471 4.33702e-06 0)
(0.000226885 4.74334e-06 0)
(0.000225157 5.14701e-06 0)
(0.000223289 5.54774e-06 0)
(0.000221281 5.94519e-06 0)
(0.000219135 6.33904e-06 0)
(0.000216853 6.72899e-06 0)
(0.000214435 7.1147e-06 0)
(0.000211884 7.49579e-06 0)
(0.000209201 7.87184e-06 0)
(0.000206388 8.24242e-06 0)
(0.000203447 8.6071e-06 0)
(0.000200381 8.96544e-06 0)
(0.000197191 9.317e-06 0)
(0.00019388 9.66128e-06 0)
(0.000190451 9.99774e-06 0)
(0.000186907 1.03258e-05 0)
(0.00018325 1.0645e-05 0)
(0.000179484 1.09546e-05 0)
(0.000175614 1.1254e-05 0)
(0.000171641 1.15427e-05 0)
(0.000167571 1.182e-05 0)
(0.000163407 1.20851e-05 0)
(0.000159153 1.23373e-05 0)
(0.000154816 1.25759e-05 0)
(0.000150398 1.28001e-05 0)
(0.000145906 1.30091e-05 0)
(0.000141346 1.32021e-05 0)
(0.000136722 1.33782e-05 0)
(0.000132041 1.35364e-05 0)
(0.000127309 1.3676e-05 0)
(0.000122533 1.37959e-05 0)
(0.00011772 1.38952e-05 0)
(0.000112877 1.3973e-05 0)
(0.000108012 1.40281e-05 0)
(0.000103133 1.40595e-05 0)
(9.82485e-05 1.40663e-05 0)
(9.33665e-05 1.40473e-05 0)
(8.84964e-05 1.40014e-05 0)
(8.36475e-05 1.39275e-05 0)
(7.88294e-05 1.38245e-05 0)
(7.40523e-05 1.36912e-05 0)
(6.93266e-05 1.35267e-05 0)
(6.4663e-05 1.33298e-05 0)
(6.00726e-05 1.30994e-05 0)
(5.55666e-05 1.28344e-05 0)
(5.11567e-05 1.2534e-05 0)
(4.68548e-05 1.2197e-05 0)
(4.2673e-05 1.18227e-05 0)
(3.86235e-05 1.14104e-05 0)
(3.47188e-05 1.09595e-05 0)
(3.09712e-05 1.04695e-05 0)
(2.73931e-05 9.94044e-06 0)
(2.39967e-05 9.37242e-06 0)
(2.07941e-05 8.76608e-06 0)
(1.77967e-05 8.12254e-06 0)
(1.50154e-05 7.44358e-06 0)
(1.24602e-05 6.73183e-06 0)
(1.01398e-05 5.99104e-06 0)
(8.06164e-06 5.22645e-06 0)
(6.23098e-06 4.44524e-06 0)
(4.6506e-06 3.65694e-06 0)
(3.32034e-06 2.87391e-06 0)
(2.23648e-06 2.1123e-06 0)
(1.39063e-06 1.39345e-06 0)
(7.68411e-07 7.4566e-07 0)
(3.49106e-07 2.0538e-07 0)
(1.05872e-07 -1.8223e-07 0)
(1.7777e-09 -3.6026e-07 0)
(-1.04935e-08 -2.50926e-07 0)
(4.9738e-10 2.34547e-07 0)
(6.67045e-08 2.50481e-07 0)
(2.80621e-07 -6.89035e-08 0)
(6.75368e-07 -6.36164e-07 0)
(1.2817e-06 -1.3853e-06 0)
(2.12475e-06 -2.2635e-06 0)
(3.2228e-06 -3.2285e-06 0)
(4.58823e-06 -4.24696e-06 0)
(6.22857e-06 -5.29259e-06 0)
(8.14722e-06 -6.34478e-06 0)
(1.03439e-05 -7.38764e-06 0)
(1.28152e-05 -8.40902e-06 0)
(1.55553e-05 -9.39977e-06 0)
(1.85559e-05 -1.0353e-05 0)
(2.18077e-05 -1.12635e-05 0)
(2.52999e-05 -1.21276e-05 0)
(2.90209e-05 -1.29424e-05 0)
(3.29579e-05 -1.37064e-05 0)
(3.70979e-05 -1.44187e-05 0)
(4.14273e-05 -1.50789e-05 0)
(4.59323e-05 -1.56871e-05 0)
(5.05994e-05 -1.62437e-05 0)
(5.5415e-05 -1.67492e-05 0)
(6.03653e-05 -1.72045e-05 0)
(6.54369e-05 -1.76108e-05 0)
(7.06162e-05 -1.79693e-05 0)
(7.58905e-05 -1.82814e-05 0)
(8.12471e-05 -1.85481e-05 0)
(8.66737e-05 -1.8771e-05 0)
(9.21583e-05 -1.89515e-05 0)
(9.76889e-05 -1.90912e-05 0)
(0.000103254 -1.91916e-05 0)
(0.000108844 -1.9254e-05 0)
(0.000114446 -1.928e-05 0)
(0.000120052 -1.9271e-05 0)
(0.000125651 -1.92284e-05 0)
(0.000131235 -1.91537e-05 0)
(0.000136792 -1.90483e-05 0)
(0.000142316 -1.89137e-05 0)
(0.000147798 -1.87511e-05 0)
(0.00015323 -1.85617e-05 0)
(0.000158604 -1.83469e-05 0)
(0.000163914 -1.81079e-05 0)
(0.000169151 -1.7846e-05 0)
(0.000174311 -1.75622e-05 0)
(0.000179386 -1.72576e-05 0)
(0.00018437 -1.69334e-05 0)
(0.000189259 -1.65906e-05 0)
(0.000194046 -1.62302e-05 0)
(0.000198726 -1.58532e-05 0)
(0.000203296 -1.54606e-05 0)
(0.000207749 -1.50533e-05 0)
(0.000212082 -1.4632e-05 0)
(0.000216292 -1.41976e-05 0)
(0.000220374 -1.37509e-05 0)
(0.000224324 -1.32927e-05 0)
(0.00022814 -1.28238e-05 0)
(0.000231817 -1.23448e-05 0)
(0.000235354 -1.18563e-05 0)
(0.000238748 -1.1359e-05 0)
(0.000241996 -1.08535e-05 0)
(0.000245095 -1.03403e-05 0)
(0.000248044 -9.8201e-06 0)
(0.000250839 -9.29333e-06 0)
(0.000253481 -8.76051e-06 0)
(0.000255966 -8.22211e-06 0)
(0.000258292 -7.67857e-06 0)
(0.00026046 -7.13033e-06 0)
(0.000262466 -6.5778e-06 0)
(0.000264311 -6.02139e-06 0)
(0.000265992 -5.4615e-06 0)
(0.000267509 -4.89849e-06 0)
(0.000268861 -4.33268e-06 0)