/*--------------------------------*- C++ -*----------------------------------*\
  =========                 |
  \\      /  F ield         | OpenFOAM: The Open Source CFD Toolbox
   \\    /   O peration     | Website:  https://openfoam.org
    \\  /    A nd           | Version:  7
     \\/     M anipulation  |
\*---------------------------------------------------------------------------*/
FoamFile
{
    version     2.0;
    format      ascii;
    class       volScalarField;
    location    "0.4625";
    object      p;
}
// * * * * * * * * * * * * * * * * * * * * * * * * * * * * * * * * * * * * * //

dimensions      [0 2 -2 0 0 0 0];

internalField   nonuniform List<scalar> 
51200
(
-1.21188e-08
1.9665e-06
4.9363e-06
7.81878e-06
1.01815e-05
1.21978e-05
1.39456e-05
1.54692e-05
1.68017e-05
1.7956e-05
1.89495e-05
1.97914e-05
2.04899e-05
2.10528e-05
2.1484e-05
2.17887e-05
2.19719e-05
2.20394e-05
2.19955e-05
2.18448e-05
2.15902e-05
2.12341e-05
2.07829e-05
2.0238e-05
1.96046e-05
1.88886e-05
1.80901e-05
1.72116e-05
1.62566e-05
1.5228e-05
1.41296e-05
1.29648e-05
1.1737e-05
1.04498e-05
9.10504e-06
7.70513e-06
6.25533e-06
4.75893e-06
3.21744e-06
1.63373e-06
1.01455e-08
-1.6526e-06
-3.35314e-06
-5.08916e-06
-6.85897e-06
-8.66109e-06
-1.0494e-05
-1.23565e-05
-1.42454e-05
-1.61581e-05
-1.80944e-05
-2.00538e-05
-2.20343e-05
-2.40338e-05
-2.60514e-05
-2.80873e-05
-3.01407e-05
-3.22099e-05
-3.42949e-05
-3.63953e-05
-3.85095e-05
-4.06368e-05
-4.2777e-05
-4.49294e-05
-4.70938e-05
-4.92692e-05
-5.14536e-05
-5.36458e-05
-5.5847e-05
-5.80594e-05
-6.02825e-05
-6.2514e-05
-6.47526e-05
-6.69988e-05
-6.92526e-05
-7.15141e-05
-7.37826e-05
-7.6057e-05
-7.83364e-05
-8.06214e-05
-8.29121e-05
-8.5208e-05
-8.75079e-05
-8.98112e-05
-9.2119e-05
-9.44313e-05
-9.67468e-05
-9.90641e-05
-0.000101383
-0.000103703
-0.000106025
-0.000108347
-0.000110669
-0.000112989
-0.000115308
-0.000117625
-0.000119939
-0.000122251
-0.000124559
-0.00012686
-0.000129154
-0.000131441
-0.000133719
-0.000135986
-0.00013824
-0.000140481
-0.000142708
-0.00014492
-0.000147117
-0.000149296
-0.000151454
-0.000153589
-0.0001557
-0.000157785
-0.000159843
-0.000161873
-0.000163871
-0.000165835
-0.000167763
-0.000169654
-0.000171507
-0.000173319
-0.000175086
-0.000176805
-0.000178476
-0.000180096
-0.000181664
-0.000183177
-0.000184631
-0.000186024
-0.000187353
-0.000188617
-0.000189813
-0.00019094
-0.000191997
-0.000192979
-0.000193883
-0.000194709
-0.000195453
-0.000196117
-0.000196699
-0.000197196
-0.000197608
-0.000197934
-0.000198172
-0.000198324
-0.000198392
-0.000198378
-0.000198285
-0.000198117
-0.000197881
-0.000197583
-0.000197234
-0.000196847
-0.00019644
-0.000196033
-0.000195657
-0.000195349
-0.000195157
-0.000195106
1.8319e-06
3.72391e-06
6.1012e-06
8.41543e-06
1.04555e-05
1.22434e-05
1.3815e-05
1.52016e-05
1.64203e-05
1.74867e-05
1.84082e-05
1.91918e-05
1.98434e-05
2.0366e-05
2.07664e-05
2.1048e-05
2.12153e-05
2.12727e-05
2.12238e-05
2.10723e-05
2.0821e-05
2.0475e-05
2.00347e-05
1.95037e-05
1.88878e-05
1.81884e-05
1.74085e-05
1.65516e-05
1.56189e-05
1.46139e-05
1.354e-05
1.23999e-05
1.1198e-05
9.93747e-06
8.61916e-06
7.24681e-06
5.82363e-06
4.35103e-06
2.8329e-06
1.2732e-06
-3.26994e-07
-1.96633e-06
-3.64363e-06
-5.35797e-06
-7.10703e-06
-8.88865e-06
-1.07022e-05
-1.25462e-05
-1.44171e-05
-1.63134e-05
-1.82348e-05
-2.01801e-05
-2.21472e-05
-2.41351e-05
-2.61433e-05
-2.81704e-05
-3.02148e-05
-3.22757e-05
-3.43532e-05
-3.64472e-05
-3.85567e-05
-4.06803e-05
-4.28163e-05
-4.49646e-05
-4.71267e-05
-4.93022e-05
-5.14875e-05
-5.36807e-05
-5.58831e-05
-5.80959e-05
-6.03192e-05
-6.25522e-05
-6.4794e-05
-6.70438e-05
-6.93008e-05
-7.15649e-05
-7.38356e-05
-7.61121e-05
-7.83938e-05
-8.06817e-05
-8.29759e-05
-8.52749e-05
-8.75773e-05
-8.98831e-05
-9.21928e-05
-9.45058e-05
-9.68208e-05
-9.91372e-05
-0.000101455
-0.000103774
-0.000106094
-0.000108414
-0.000110733
-0.00011305
-0.000115363
-0.000117673
-0.00011998
-0.000122284
-0.000124582
-0.000126874
-0.000129157
-0.000131432
-0.000133696
-0.000135948
-0.000138187
-0.000140412
-0.000142622
-0.000144816
-0.000146993
-0.00014915
-0.000151287
-0.0001534
-0.000155488
-0.000157549
-0.000159582
-0.000161586
-0.000163557
-0.000165493
-0.000167394
-0.000169257
-0.000171081
-0.000172863
-0.000174602
-0.000176293
-0.000177935
-0.000179526
-0.000181064
-0.000182549
-0.000183976
-0.000185342
-0.000186646
-0.000187886
-0.00018906
-0.000190166
-0.000191202
-0.000192166
-0.000193056
-0.000193869
-0.000194606
-0.000195264
-0.000195844
-0.000196343
-0.00019676
-0.000197096
-0.000197351
-0.000197525
-0.00019762
-0.00019764
-0.000197588
-0.000197469
-0.000197287
-0.000197051
-0.000196771
-0.00019646
-0.000196133
-0.000195808
-0.000195506
-0.000195255
-0.000195092
-0.000195042
4.41286e-06
5.77343e-06
7.45408e-06
9.23474e-06
1.09292e-05
1.24791e-05
1.38783e-05
1.51293e-05
1.62425e-05
1.72215e-05
1.80733e-05
1.88009e-05
1.94045e-05
1.98896e-05
2.02593e-05
2.05181e-05
2.0669e-05
2.07148e-05
2.06579e-05
2.05016e-05
2.02515e-05
1.99076e-05
1.9473e-05
1.89524e-05
1.83469e-05
1.76596e-05
1.6894e-05
1.60513e-05
1.51343e-05
1.41464e-05
1.30898e-05
1.19686e-05
1.07864e-05
9.54464e-06
8.24641e-06
6.8953e-06
5.49259e-06
4.0405e-06
2.54282e-06
1.00216e-06
-5.79564e-07
-2.20034e-06
-3.85984e-06
-5.55695e-06
-7.28943e-06
-9.05644e-06
-1.08564e-05
-1.26862e-05
-1.45437e-05
-1.6428e-05
-1.83384e-05
-2.02725e-05
-2.22284e-05
-2.42066e-05
-2.62065e-05
-2.82261e-05
-3.02641e-05
-3.23195e-05
-3.43919e-05
-3.64818e-05
-3.85888e-05
-4.07108e-05
-4.28452e-05
-4.49919e-05
-4.71521e-05
-4.9325e-05
-5.1509e-05
-5.37042e-05
-5.59101e-05
-5.81254e-05
-6.03496e-05
-6.25835e-05
-6.48272e-05
-6.70799e-05
-6.93409e-05
-7.16089e-05
-7.38826e-05
-7.61615e-05
-7.8446e-05
-8.07369e-05
-8.30335e-05
-8.5334e-05
-8.76381e-05
-8.99465e-05
-9.22591e-05
-9.45741e-05
-9.68898e-05
-9.92062e-05
-0.000101524
-0.000103842
-0.000106161
-0.000108479
-0.000110796
-0.000113109
-0.000115418
-0.000117723
-0.000120025
-0.000122322
-0.000124614
-0.000126897
-0.000129173
-0.000131439
-0.000133692
-0.000135932
-0.000138158
-0.00014037
-0.000142567
-0.000144747
-0.000146908
-0.000149048
-0.000151167
-0.000153261
-0.00015533
-0.000157372
-0.000159386
-0.000161368
-0.000163317
-0.000165232
-0.000167111
-0.000168952
-0.000170754
-0.000172512
-0.000174226
-0.000175893
-0.000177512
-0.00017908
-0.000180597
-0.000182059
-0.000183465
-0.00018481
-0.000186094
-0.000187314
-0.00018847
-0.00018956
-0.000190582
-0.000191532
-0.00019241
-0.000193215
-0.000193944
-0.000194599
-0.000195177
-0.000195678
-0.000196101
-0.000196446
-0.000196713
-0.000196905
-0.000197023
-0.000197069
-0.000197048
-0.000196964
-0.000196822
-0.00019663
-0.000196397
-0.000196136
-0.00019586
-0.000195582
-0.000195321
-0.000195094
-0.000194927
-0.00019484
6.69914e-06
7.61698e-06
8.81269e-06
1.0166e-05
1.15458e-05
1.28676e-05
1.40943e-05
1.52154e-05
1.62233e-05
1.71183e-05
1.79016e-05
1.85711e-05
1.91287e-05
1.95748e-05
1.99131e-05
2.01468e-05
2.02789e-05
2.03103e-05
2.02432e-05
2.00813e-05
1.98269e-05
1.94813e-05
1.90497e-05
1.85338e-05
1.7935e-05
1.72571e-05
1.6501e-05
1.56692e-05
1.4765e-05
1.37899e-05
1.27473e-05
1.16415e-05
1.04738e-05
9.2468e-06
7.96421e-06
6.62789e-06
5.24018e-06
3.80436e-06
2.32275e-06
7.97752e-07
-7.68684e-07
-2.37568e-06
-4.02152e-06
-5.70448e-06
-7.42372e-06
-9.17884e-06
-1.09671e-05
-1.2785e-05
-1.46319e-05
-1.65071e-05
-1.84089e-05
-2.03348e-05
-2.22835e-05
-2.42549e-05
-2.62483e-05
-2.8262e-05
-3.0295e-05
-3.23461e-05
-3.44149e-05
-3.6502e-05
-3.86061e-05
-4.07255e-05
-4.28598e-05
-4.50087e-05
-4.717e-05
-4.93419e-05
-5.15247e-05
-5.37205e-05
-5.59287e-05
-5.81472e-05
-6.03747e-05
-6.26112e-05
-6.4857e-05
-6.71123e-05
-6.93764e-05
-7.16474e-05
-7.39238e-05
-7.62059e-05
-7.84944e-05
-8.07894e-05
-8.30889e-05
-8.53916e-05
-8.7698e-05
-9.00086e-05
-9.23231e-05
-9.46395e-05
-9.69566e-05
-9.92743e-05
-0.000101593
-0.000103912
-0.00010623
-0.000108547
-0.000110862
-0.000113172
-0.000115478
-0.00011778
-0.000120078
-0.00012237
-0.000124655
-0.000126933
-0.000129202
-0.00013146
-0.000133705
-0.000135936
-0.000138151
-0.000140352
-0.000142537
-0.000144705
-0.000146854
-0.000148981
-0.000151084
-0.000153162
-0.000155215
-0.000157242
-0.000159239
-0.000161204
-0.000163135
-0.000165031
-0.000166891
-0.000168714
-0.000170497
-0.000172236
-0.000173929
-0.000175577
-0.000177177
-0.000178726
-0.000180224
-0.000181669
-0.000183056
-0.000184385
-0.000185652
-0.000186856
-0.000187998
-0.000189075
-0.000190084
-0.000191024
-0.000191893
-0.000192691
-0.000193415
-0.000194067
-0.000194645
-0.000195148
-0.000195575
-0.000195928
-0.000196206
-0.000196412
-0.000196547
-0.000196615
-0.000196617
-0.000196558
-0.000196445
-0.000196283
-0.000196082
-0.000195852
-0.000195603
-0.000195348
-0.000195102
-0.000194877
-0.000194683
-0.000194532
8.35574e-06
9.10131e-06
1.00288e-05
1.1094e-05
1.22235e-05
1.33436e-05
1.44117e-05
1.54052e-05
1.63115e-05
1.7123e-05
1.78352e-05
1.84468e-05
1.89557e-05
1.93622e-05
1.96679e-05
1.98751e-05
1.9985e-05
1.99992e-05
1.99207e-05
1.97504e-05
1.94892e-05
1.91415e-05
1.87094e-05
1.81948e-05
1.76006e-05
1.6928e-05
1.61784e-05
1.53552e-05
1.446e-05
1.34953e-05
1.24651e-05
1.13714e-05
1.02163e-05
9.00313e-06
7.73408e-06
6.41071e-06
5.03642e-06
3.61408e-06
2.14619e-06
6.35247e-07
-9.18092e-07
-2.51289e-06
-4.14674e-06
-5.81827e-06
-7.52722e-06
-9.27221e-06
-1.10498e-05
-1.28578e-05
-1.46961e-05
-1.65629e-05
-1.84562e-05
-2.03748e-05
-2.23178e-05
-2.42841e-05
-2.62726e-05
-2.82817e-05
-3.03105e-05
-3.23589e-05
-3.44265e-05
-3.65124e-05
-3.86142e-05
-4.07312e-05
-4.2865e-05
-4.50149e-05
-4.71777e-05
-4.93513e-05
-5.15361e-05
-5.37332e-05
-5.59428e-05
-5.81636e-05
-6.03946e-05
-6.2635e-05
-6.48846e-05
-6.71437e-05
-6.94112e-05
-7.1685e-05
-7.39643e-05
-7.62501e-05
-7.85428e-05
-8.08413e-05
-8.31438e-05
-8.545e-05
-8.77602e-05
-9.00742e-05
-9.23907e-05
-9.47086e-05
-9.70273e-05
-9.93466e-05
-0.000101666
-0.000103986
-0.000106305
-0.000108622
-0.000110935
-0.000113242
-0.000115547
-0.000117847
-0.000120141
-0.000122429
-0.00012471
-0.000126982
-0.000129245
-0.000131496
-0.000133733
-0.000135956
-0.000138162
-0.000140353
-0.000142528
-0.000144684
-0.000146821
-0.000148936
-0.000151025
-0.00015309
-0.00015513
-0.000157141
-0.000159123
-0.000161072
-0.000162986
-0.000164866
-0.00016671
-0.000168515
-0.00017028
-0.000172002
-0.000173677
-0.000175307
-0.000176889
-0.000178422
-0.000179904
-0.000181332
-0.000182703
-0.000184015
-0.000185267
-0.000186459
-0.000187587
-0.000188652
-0.000189651
-0.000190582
-0.000191443
-0.000192234
-0.000192955
-0.000193604
-0.000194182
-0.000194687
-0.000195118
-0.000195478
-0.000195766
-0.000195984
-0.000196134
-0.000196218
-0.00019624
-0.000196202
-0.00019611
-0.000195972
-0.000195795
-0.000195585
-0.000195352
-0.000195105
-0.000194857
-0.00019462
-0.000194388
-0.00019416
9.62898e-06
1.03029e-05
1.10836e-05
1.19647e-05
1.29116e-05
1.38712e-05
1.48024e-05
1.56806e-05
1.64923e-05
1.7223e-05
1.78674e-05
1.84201e-05
1.888e-05
1.92462e-05
1.95193e-05
1.9699e-05
1.97855e-05
1.97816e-05
1.96889e-05
1.95064e-05
1.92383e-05
1.88863e-05
1.84514e-05
1.7937e-05
1.73444e-05
1.66745e-05
1.593e-05
1.51123e-05
1.42237e-05
1.32678e-05
1.22466e-05
1.11621e-05
1.00175e-05
8.8152e-06
7.55691e-06
6.24508e-06
4.88228e-06
3.47154e-06
2.01524e-06
5.15471e-07
-1.02705e-06
-2.61081e-06
-4.23397e-06
-5.8964e-06
-7.5969e-06
-9.33259e-06
-1.11011e-05
-1.2902e-05
-1.47336e-05
-1.65936e-05
-1.84802e-05
-2.0393e-05
-2.23312e-05
-2.42933e-05
-2.62781e-05
-2.82837e-05
-3.03093e-05
-3.23558e-05
-3.44228e-05
-3.65081e-05
-3.86099e-05
-4.07277e-05
-4.28621e-05
-4.50118e-05
-4.71749e-05
-4.93509e-05
-5.15395e-05
-5.37401e-05
-5.59522e-05
-5.81755e-05
-6.04096e-05
-6.26538e-05
-6.49081e-05
-6.71716e-05
-6.94428e-05
-7.172e-05
-7.40035e-05
-7.62941e-05
-7.85913e-05
-8.08932e-05
-8.31989e-05
-8.5509e-05
-8.78235e-05
-9.01412e-05
-9.24606e-05
-9.47808e-05
-9.71016e-05
-9.9423e-05
-0.000101745
-0.000104066
-0.000106386
-0.000108703
-0.000111015
-0.000113322
-0.000115625
-0.000117923
-0.000120214
-0.000122499
-0.000124776
-0.000127045
-0.000129303
-0.000131547
-0.000133777
-0.000135992
-0.000138191
-0.000140374
-0.00014254
-0.000144687
-0.000146812
-0.000148915
-0.000150993
-0.000153047
-0.000155074
-0.000157072
-0.000159039
-0.000160973
-0.000162873
-0.000164739
-0.000166568
-0.000168357
-0.000170106
-0.000171811
-0.000173471
-0.000175085
-0.000176652
-0.00017817
-0.000179637
-0.00018105
-0.000182406
-0.000183704
-0.000184943
-0.000186122
-0.00018724
-0.000188294
-0.000189283
-0.000190206
-0.00019106
-0.000191847
-0.000192564
-0.000193212
-0.000193789
-0.000194296
-0.000194731
-0.000195097
-0.000195393
-0.000195621
-0.000195784
-0.000195882
-0.000195918
-0.000195896
-0.000195821
-0.000195699
-0.000195537
-0.00019534
-0.000195114
-0.000194866
-0.000194606
-0.000194344
-0.000194066
-0.000193757
1.06489e-05
1.13006e-05
1.20054e-05
1.27686e-05
1.35889e-05
1.44264e-05
1.52455e-05
1.60269e-05
1.67519e-05
1.7409e-05
1.79893e-05
1.84869e-05
1.88996e-05
1.92264e-05
1.94659e-05
1.9617e-05
1.96807e-05
1.96578e-05
1.95478e-05
1.93529e-05
1.90755e-05
1.87165e-05
1.82776e-05
1.77609e-05
1.71671e-05
1.64983e-05
1.57559e-05
1.49414e-05
1.4058e-05
1.31083e-05
1.20934e-05
1.10166e-05
9.88023e-06
8.68596e-06
7.43614e-06
6.13343e-06
4.78022e-06
3.37936e-06
1.93266e-06
4.41379e-07
-1.0925e-06
-2.66708e-06
-4.28218e-06
-5.93772e-06
-7.6309e-06
-9.35872e-06
-1.11206e-05
-1.29156e-05
-1.47414e-05
-1.6596e-05
-1.8478e-05
-2.03868e-05
-2.23216e-05
-2.42808e-05
-2.6263e-05
-2.82666e-05
-3.02913e-05
-3.23374e-05
-3.44035e-05
-3.64877e-05
-3.85904e-05
-4.07111e-05
-4.28478e-05
-4.49986e-05
-4.71628e-05
-4.93411e-05
-5.15333e-05
-5.37381e-05
-5.59543e-05
-5.81815e-05
-6.04193e-05
-6.26681e-05
-6.49272e-05
-6.71952e-05
-6.94701e-05
-7.17513e-05
-7.404e-05
-7.63361e-05
-7.8638e-05
-8.09441e-05
-8.32543e-05
-8.5569e-05
-8.78878e-05
-9.02092e-05
-9.2532e-05
-9.48553e-05
-9.71789e-05
-9.95032e-05
-0.000101828
-0.000104151
-0.000106473
-0.000108789
-0.000111102
-0.000113409
-0.000115712
-0.000118009
-0.000120298
-0.000122581
-0.000124856
-0.000127121
-0.000129375
-0.000131614
-0.000133838
-0.000136047
-0.000138239
-0.000140415
-0.000142574
-0.000144712
-0.000146828
-0.000148921
-0.000150989
-0.000153032
-0.000155049
-0.000157035
-0.000158989
-0.00016091
-0.000162798
-0.00016465
-0.000166466
-0.000168242
-0.000169977
-0.000171668
-0.000173313
-0.000174914
-0.000176467
-0.000177971
-0.000179425
-0.000180825
-0.000182168
-0.000183454
-0.000184682
-0.00018585
-0.000186958
-0.000188003
-0.000188984
-0.000189899
-0.000190748
-0.000191531
-0.000192245
-0.000192892
-0.00019347
-0.000193978
-0.000194417
-0.000194787
-0.00019509
-0.000195327
-0.000195499
-0.000195608
-0.000195655
-0.000195645
-0.000195581
-0.00019547
-0.000195315
-0.000195123
-0.000194897
-0.000194641
-0.000194362
-0.00019407
-0.00019374
-0.000193352
1.15025e-05
1.21616e-05
1.28266e-05
1.35193e-05
1.42513e-05
1.49974e-05
1.57306e-05
1.6429e-05
1.70797e-05
1.76699e-05
1.81915e-05
1.86385e-05
1.90073e-05
1.92958e-05
1.95014e-05
1.96247e-05
1.96652e-05
1.96212e-05
1.94946e-05
1.92865e-05
1.89977e-05
1.86305e-05
1.81857e-05
1.76642e-05
1.70678e-05
1.63976e-05
1.56548e-05
1.48419e-05
1.39614e-05
1.3015e-05
1.20049e-05
1.09337e-05
9.80327e-06
8.61501e-06
7.37177e-06
6.0759e-06
4.73014e-06
3.3372e-06
1.89784e-06
4.13469e-07
-1.11304e-06
-2.68102e-06
-4.29073e-06
-5.94044e-06
-7.62747e-06
-9.35006e-06
-1.11076e-05
-1.28979e-05
-1.47191e-05
-1.65699e-05
-1.84489e-05
-2.03552e-05
-2.22881e-05
-2.42454e-05
-2.62256e-05
-2.82286e-05
-3.02543e-05
-3.23015e-05
-3.43678e-05
-3.64524e-05
-3.85565e-05
-4.06796e-05
-4.2819e-05
-4.49727e-05
-4.71403e-05
-4.93219e-05
-5.15177e-05
-5.37267e-05
-5.59476e-05
-5.81794e-05
-6.04222e-05
-6.26764e-05
-6.49409e-05
-6.72135e-05
-6.94928e-05
-7.17794e-05
-7.40738e-05
-7.63754e-05
-7.86821e-05
-8.09932e-05
-8.3309e-05
-8.56293e-05
-8.79529e-05
-9.02785e-05
-9.26052e-05
-9.49322e-05
-9.72593e-05
-9.95872e-05
-0.000101915
-0.000104242
-0.000106565
-0.000108883
-0.000111196
-0.000113505
-0.000115808
-0.000118105
-0.000120394
-0.000122676
-0.000124949
-0.000127212
-0.000129462
-0.000131697
-0.000133917
-0.00013612
-0.000138307
-0.000140478
-0.00014263
-0.000144761
-0.000146869
-0.000148954
-0.000151014
-0.000153048
-0.000155055
-0.00015703
-0.000158974
-0.000160884
-0.00016276
-0.000164601
-0.000166405
-0.000168169
-0.000169892
-0.00017157
-0.000173204
-0.000174792
-0.000176334
-0.000177827
-0.000179268
-0.000180656
-0.000181988
-0.000183263
-0.000184481
-0.000185641
-0.00018674
-0.000187777
-0.000188751
-0.00018966
-0.000190505
-0.000191284
-0.000191997
-0.000192643
-0.000193221
-0.000193731
-0.000194172
-0.000194546
-0.000194854
-0.000195098
-0.000195278
-0.000195394
-0.000195449
-0.000195447
-0.000195391
-0.000195286
-0.000195134
-0.00019494
-0.000194707
-0.000194438
-0.000194137
-0.000193812
-0.000193431
-0.000192966
1.22546e-05
1.29316e-05
1.35824e-05
1.42306e-05
1.4904e-05
1.55837e-05
1.62475e-05
1.68797e-05
1.74666e-05
1.79983e-05
1.8467e-05
1.88679e-05
1.91963e-05
1.9448e-05
1.96221e-05
1.97179e-05
1.97336e-05
1.96687e-05
1.95252e-05
1.93025e-05
1.90018e-05
1.8625e-05
1.81722e-05
1.76448e-05
1.70438e-05
1.63699e-05
1.56254e-05
1.48125e-05
1.39325e-05
1.29876e-05
1.19804e-05
1.09125e-05
9.78554e-06
8.60183e-06
7.36334e-06
6.07274e-06
4.73267e-06
3.34487e-06
1.91069e-06
4.323e-07
-1.08881e-06
-2.65304e-06
-4.25894e-06
-5.9038e-06
-7.58647e-06
-9.30597e-06
-1.10604e-05
-1.28477e-05
-1.4666e-05
-1.65144e-05
-1.83918e-05
-2.02973e-05
-2.22295e-05
-2.4186e-05
-2.61659e-05
-2.81698e-05
-3.01969e-05
-3.22452e-05
-3.43134e-05
-3.64009e-05
-3.8508e-05
-4.06334e-05
-4.27753e-05
-4.49326e-05
-4.71049e-05
-4.92915e-05
-5.1492e-05
-5.37057e-05
-5.59314e-05
-5.81686e-05
-6.04175e-05
-6.26779e-05
-6.49478e-05
-6.72253e-05
-6.95103e-05
-7.18034e-05
-7.41043e-05
-7.64115e-05
-7.87236e-05
-8.10407e-05
-8.33629e-05
-8.56891e-05
-8.80181e-05
-9.03486e-05
-9.26798e-05
-9.50112e-05
-9.7343e-05
-9.96754e-05
-0.000102007
-0.000104337
-0.000106662
-0.000108983
-0.000111299
-0.00011361
-0.000115914
-0.000118212
-0.000120501
-0.000122784
-0.000125056
-0.000127317
-0.000129565
-0.000131797
-0.000134013
-0.000136213
-0.000138396
-0.000140562
-0.000142708
-0.000144833
-0.000146935
-0.000149014
-0.000151067
-0.000153094
-0.000155092
-0.000157058
-0.000158992
-0.000160893
-0.000162759
-0.000164591
-0.000166385
-0.000168139
-0.000169851
-0.000171519
-0.000173142
-0.00017472
-0.000176251
-0.000177734
-0.000179165
-0.000180542
-0.000181865
-0.000183131
-0.000184342
-0.000185493
-0.000186585
-0.000187615
-0.000188583
-0.000189487
-0.000190328
-0.000191105
-0.000191817
-0.000192462
-0.000193041
-0.000193551
-0.000193994
-0.000194372
-0.000194685
-0.000194934
-0.000195119
-0.000195241
-0.000195302
-0.000195304
-0.000195252
-0.000195148
-0.000194996
-0.000194797
-0.000194553
-0.000194267
-0.000193942
-0.000193583
-0.000193152
-0.000192616
1.29427e-05
1.36491e-05
1.42962e-05
1.49198e-05
1.55543e-05
1.61842e-05
1.67946e-05
1.73723e-05
1.79065e-05
1.83878e-05
1.88108e-05
1.91703e-05
1.94601e-05
1.96784e-05
1.9823e-05
1.98913e-05
1.98828e-05
1.97979e-05
1.96361e-05
1.93982e-05
1.9085e-05
1.8697e-05
1.82352e-05
1.77002e-05
1.70927e-05
1.64139e-05
1.56663e-05
1.48512e-05
1.397e-05
1.30254e-05
1.20191e-05
1.09521e-05
9.82709e-06
8.64578e-06
7.41034e-06
6.1239e-06
4.78745e-06
3.40258e-06
1.97234e-06
4.98073e-07
-1.02041e-06
-2.58253e-06
-4.18564e-06
-5.8277e-06
-7.50823e-06
-9.22592e-06
-1.09785e-05
-1.27642e-05
-1.45811e-05
-1.64285e-05
-1.8306e-05
-2.02118e-05
-2.21441e-05
-2.41013e-05
-2.60831e-05
-2.80895e-05
-3.01185e-05
-3.21682e-05
-3.42392e-05
-3.63313e-05
-3.84426e-05
-4.05715e-05
-4.27168e-05
-4.48783e-05
-4.70558e-05
-4.92483e-05
-5.14546e-05
-5.36736e-05
-5.59049e-05
-5.81487e-05
-6.04047e-05
-6.26716e-05
-6.49472e-05
-6.72304e-05
-6.95221e-05
-7.18224e-05
-7.41301e-05
-7.64436e-05
-7.87623e-05
-8.10864e-05
-8.34154e-05
-8.57482e-05
-8.80833e-05
-9.04192e-05
-9.27556e-05
-9.50923e-05
-9.74298e-05
-9.97677e-05
-0.000102104
-0.000104437
-0.000106766
-0.000109091
-0.00011141
-0.000113724
-0.00011603
-0.000118329
-0.000120621
-0.000122904
-0.000125177
-0.000127437
-0.000129683
-0.000131913
-0.000134127
-0.000136324
-0.000138505
-0.000140668
-0.00014281
-0.00014493
-0.000147027
-0.000149101
-0.000151149
-0.00015317
-0.00015516
-0.000157118
-0.000159044
-0.000160938
-0.000162797
-0.00016462
-0.000166405
-0.000168151
-0.000169854
-0.000171513
-0.000173127
-0.000174696
-0.000176219
-0.000177693
-0.000179114
-0.000180483
-0.000181798
-0.000183057
-0.000184261
-0.000185406
-0.000186492
-0.000187516
-0.000188479
-0.00018938
-0.000190218
-0.000190993
-0.000191704
-0.000192349
-0.000192928
-0.000193439
-0.000193884
-0.000194264
-0.000194581
-0.000194834
-0.000195023
-0.000195149
-0.000195213
-0.000195217
-0.000195166
-0.000195061
-0.000194904
-0.000194698
-0.000194441
-0.000194136
-0.000193786
-0.000193394
-0.000192917
-0.000192315
1.36024e-05
1.43398e-05
1.49918e-05
1.56021e-05
1.62096e-05
1.6804e-05
1.73723e-05
1.79057e-05
1.8396e-05
1.88358e-05
1.92192e-05
1.95402e-05
1.97957e-05
1.99832e-05
2.00988e-05
2.0141e-05
2.01101e-05
2.00045e-05
1.98247e-05
1.95717e-05
1.92447e-05
1.88447e-05
1.83726e-05
1.78282e-05
1.72128e-05
1.65283e-05
1.57756e-05
1.49565e-05
1.40732e-05
1.3127e-05
1.21196e-05
1.10525e-05
9.92748e-06
8.74673e-06
7.51305e-06
6.22845e-06
4.89353e-06
3.51088e-06
2.08313e-06
6.10126e-07
-9.0771e-07
-2.46838e-06
-4.07011e-06
-5.71166e-06
-7.39195e-06
-9.10903e-06
-1.08611e-05
-1.26465e-05
-1.44637e-05
-1.63121e-05
-1.8191e-05
-2.00978e-05
-2.20311e-05
-2.39906e-05
-2.59759e-05
-2.79857e-05
-3.00176e-05
-3.20706e-05
-3.41457e-05
-3.62424e-05
-3.83585e-05
-4.04921e-05
-4.26425e-05
-4.48094e-05
-4.69927e-05
-4.91915e-05
-5.14041e-05
-5.36295e-05
-5.58676e-05
-5.8119e-05
-6.03826e-05
-6.26562e-05
-6.49381e-05
-6.72286e-05
-6.95281e-05
-7.18359e-05
-7.41506e-05
-7.64712e-05
-7.87976e-05
-8.11296e-05
-8.34661e-05
-8.5806e-05
-8.81477e-05
-9.04898e-05
-9.28322e-05
-9.51753e-05
-9.75195e-05
-9.98634e-05
-0.000102205
-0.000104543
-0.000106877
-0.000109206
-0.000111529
-0.000113846
-0.000116155
-0.000118457
-0.000120752
-0.000123037
-0.000125311
-0.000127572
-0.000129817
-0.000132047
-0.00013426
-0.000136456
-0.000138636
-0.000140796
-0.000142935
-0.000145052
-0.000147146
-0.000149215
-0.000151259
-0.000153275
-0.00015526
-0.000157212
-0.000159132
-0.000161019
-0.000162872
-0.000164689
-0.000166467
-0.000168205
-0.0001699
-0.000171552
-0.000173159
-0.000174721
-0.000176237
-0.000177703
-0.000179117
-0.000180479
-0.000181787
-0.000183042
-0.00018424
-0.00018538
-0.00018646
-0.00018748
-0.000188439
-0.000189337
-0.000190173
-0.000190947
-0.000191657
-0.000192302
-0.00019288
-0.000193392
-0.000193839
-0.000194222
-0.000194542
-0.000194798
-0.000194989
-0.000195117
-0.000195182
-0.000195187
-0.000195134
-0.000195026
-0.000194863
-0.000194648
-0.000194377
-0.000194052
-0.000193677
-0.000193254
-0.000192734
-0.000192073
1.4256e-05
1.50249e-05
1.56867e-05
1.62878e-05
1.68783e-05
1.74462e-05
1.79824e-05
1.84807e-05
1.89352e-05
1.93398e-05
1.96877e-05
1.99759e-05
2.02007e-05
2.03584e-05
2.04468e-05
2.04651e-05
2.04118e-05
2.0286e-05
2.00886e-05
1.98194e-05
1.94782e-05
1.90658e-05
1.85817e-05
1.80268e-05
1.74031e-05
1.67111e-05
1.59518e-05
1.51279e-05
1.42406e-05
1.32909e-05
1.2281e-05
1.1212e-05
1.00856e-05
8.90482e-06
7.67119e-06
6.38599e-06
5.05155e-06
3.6701e-06
2.24228e-06
7.68194e-07
-7.50165e-07
-2.31078e-06
-3.913e-06
-5.55559e-06
-7.2369e-06
-8.95484e-06
-1.07077e-05
-1.2494e-05
-1.43131e-05
-1.61641e-05
-1.80454e-05
-1.99543e-05
-2.18904e-05
-2.38539e-05
-2.58434e-05
-2.78568e-05
-2.9893e-05
-3.19516e-05
-3.40323e-05
-3.6134e-05
-3.82551e-05
-4.03943e-05
-4.2551e-05
-4.47247e-05
-4.69148e-05
-4.91204e-05
-5.13399e-05
-5.35727e-05
-5.5819e-05
-5.80789e-05
-6.03502e-05
-6.26309e-05
-6.49203e-05
-6.72192e-05
-6.95272e-05
-7.1843e-05
-7.41654e-05
-7.64941e-05
-7.88291e-05
-8.11696e-05
-8.35143e-05
-8.58618e-05
-8.82106e-05
-9.05596e-05
-9.29094e-05
-9.52602e-05
-9.76116e-05
-9.99621e-05
-0.000102309
-0.000104653
-0.000106993
-0.000109327
-0.000111656
-0.000113976
-0.00011629
-0.000118596
-0.000120894
-0.000123182
-0.000125458
-0.000127721
-0.000129967
-0.000132197
-0.000134411
-0.000136608
-0.000138787
-0.000140946
-0.000143084
-0.000145198
-0.00014729
-0.000149358
-0.000151399
-0.00015341
-0.000155391
-0.000157339
-0.000159255
-0.000161137
-0.000162985
-0.000164797
-0.00016657
-0.000168302
-0.000169991
-0.000171637
-0.000173239
-0.000174795
-0.000176304
-0.000177764
-0.000179173
-0.00018053
-0.000181834
-0.000183083
-0.000184277
-0.000185413
-0.000186489
-0.000187506
-0.000188462
-0.000189358
-0.000190193
-0.000190966
-0.000191676
-0.00019232
-0.000192898
-0.000193411
-0.00019386
-0.000194245
-0.000194568
-0.000194825
-0.000195019
-0.000195147
-0.000195212
-0.000195216
-0.000195161
-0.000195048
-0.000194878
-0.000194652
-0.000194367
-0.000194022
-0.000193623
-0.00019317
-0.000192611
-0.000191899
1.49208e-05
1.57197e-05
1.63917e-05
1.69898e-05
1.75675e-05
1.81163e-05
1.86283e-05
1.9099e-05
1.95241e-05
1.98973e-05
2.02153e-05
2.04747e-05
2.06707e-05
2.08013e-05
2.08652e-05
2.08601e-05
2.07851e-05
2.06406e-05
2.04254e-05
2.01396e-05
1.97838e-05
1.93572e-05
1.88603e-05
1.82948e-05
1.76611e-05
1.69602e-05
1.61939e-05
1.53638e-05
1.44709e-05
1.35167e-05
1.25026e-05
1.14298e-05
1.03013e-05
9.11892e-06
7.88318e-06
6.59638e-06
5.26153e-06
3.87908e-06
2.44906e-06
9.72927e-07
-5.47153e-07
-2.10982e-06
-3.71437e-06
-5.35929e-06
-7.04279e-06
-8.76299e-06
-1.05178e-05
-1.23068e-05
-1.41293e-05
-1.59837e-05
-1.78678e-05
-1.97805e-05
-2.17215e-05
-2.36903e-05
-2.56845e-05
-2.77025e-05
-2.97443e-05
-3.18097e-05
-3.38971e-05
-3.60051e-05
-3.81322e-05
-4.02778e-05
-4.24416e-05
-4.46231e-05
-4.68211e-05
-4.9034e-05
-5.12611e-05
-5.35026e-05
-5.57584e-05
-5.80272e-05
-6.03066e-05
-6.25952e-05
-6.48935e-05
-6.72016e-05
-6.95184e-05
-7.18428e-05
-7.4174e-05
-7.65119e-05
-7.88561e-05
-8.12059e-05
-8.35595e-05
-8.59152e-05
-8.82717e-05
-9.06287e-05
-9.29869e-05
-9.53464e-05
-9.77056e-05
-0.000100063
-0.000102418
-0.000104769
-0.000107115
-0.000109455
-0.000111789
-0.000114115
-0.000116434
-0.000118745
-0.000121048
-0.00012334
-0.00012562
-0.000127884
-0.000130133
-0.000132366
-0.000134582
-0.000136781
-0.00013896
-0.000141119
-0.000143256
-0.00014537
-0.000147461
-0.000149528
-0.000151567
-0.000153576
-0.000155554
-0.0001575
-0.000159413
-0.000161293
-0.000163138
-0.000164946
-0.000166714
-0.000168441
-0.000170126
-0.000171767
-0.000173365
-0.000174918
-0.000176423
-0.000177877
-0.000179282
-0.000180635
-0.000181936
-0.000183183
-0.000184373
-0.000185506
-0.000186579
-0.000187593
-0.000188548
-0.000189443
-0.000190277
-0.00019105
-0.000191759
-0.000192403
-0.000192982
-0.000193496
-0.000193946
-0.000194334
-0.000194658
-0.000194917
-0.000195111
-0.00019524
-0.000195304
-0.000195306
-0.000195248
-0.00019513
-0.000194952
-0.000194714
-0.000194414
-0.000194051
-0.000193629
-0.00019315
-0.000192556
-0.000191799
1.56122e-05
1.64345e-05
1.71193e-05
1.77166e-05
1.82857e-05
1.88203e-05
1.93142e-05
1.97627e-05
2.01622e-05
2.05096e-05
2.08017e-05
2.10342e-05
2.12044e-05
2.13105e-05
2.13512e-05
2.13235e-05
2.12286e-05
2.10652e-05
2.08321e-05
2.05304e-05
2.01588e-05
1.97173e-05
1.92077e-05
1.86301e-05
1.79851e-05
1.72748e-05
1.65003e-05
1.56624e-05
1.4763e-05
1.38028e-05
1.27829e-05
1.17061e-05
1.05741e-05
9.38787e-06
8.14895e-06
6.86009e-06
5.52276e-06
4.13672e-06
2.70319e-06
1.2242e-06
-2.99153e-07
-1.86569e-06
-3.47398e-06
-5.12248e-06
-6.80933e-06
-8.53277e-06
-1.02912e-05
-1.20846e-05
-1.39118e-05
-1.57702e-05
-1.76583e-05
-1.95764e-05
-2.15237e-05
-2.34984e-05
-2.54985e-05
-2.75227e-05
-2.95716e-05
-3.16444e-05
-3.37392e-05
-3.58543e-05
-3.79887e-05
-4.0142e-05
-4.2314e-05
-4.45039e-05
-4.67102e-05
-4.89314e-05
-5.11675e-05
-5.3419e-05
-5.56848e-05
-5.79627e-05
-6.02508e-05
-6.25488e-05
-6.48571e-05
-6.7175e-05
-6.95012e-05
-7.18348e-05
-7.41758e-05
-7.65239e-05
-7.88782e-05
-8.12379e-05
-8.36009e-05
-8.59654e-05
-8.83306e-05
-9.06967e-05
-9.30646e-05
-9.54333e-05
-9.78012e-05
-0.000100167
-0.000102529
-0.000104888
-0.000107242
-0.00010959
-0.00011193
-0.000114262
-0.000116587
-0.000118905
-0.000121213
-0.00012351
-0.000125794
-0.000128063
-0.000130315
-0.000132552
-0.000134771
-0.000136973
-0.000139154
-0.000141314
-0.000143451
-0.000145567
-0.000147659
-0.000149726
-0.000151765
-0.000153773
-0.00015575
-0.000157694
-0.000159606
-0.000161485
-0.000163328
-0.000165133
-0.000166899
-0.000168623
-0.000170305
-0.000171944
-0.000173539
-0.000175089
-0.000176591
-0.000178043
-0.000179445
-0.000180796
-0.000182094
-0.000183339
-0.000184527
-0.000185658
-0.00018673
-0.000187743
-0.000188697
-0.000189591
-0.000190425
-0.000191198
-0.000191907
-0.000192551
-0.000193131
-0.000193647
-0.000194099
-0.000194489
-0.000194814
-0.000195073
-0.000195268
-0.000195396
-0.000195459
-0.000195459
-0.000195398
-0.000195274
-0.000195087
-0.000194838
-0.000194524
-0.000194144
-0.000193701
-0.000193198
-0.000192575
-0.000191777
1.63403e-05
1.71823e-05
1.78778e-05
1.84769e-05
1.90408e-05
1.95649e-05
2.00435e-05
2.04728e-05
2.08517e-05
2.11771e-05
2.14452e-05
2.16537e-05
2.18011e-05
2.18847e-05
2.19028e-05
2.18552e-05
2.17404e-05
2.15579e-05
2.13076e-05
2.09885e-05
2.06006e-05
2.01449e-05
1.96214e-05
1.90307e-05
1.83744e-05
1.76538e-05
1.68695e-05
1.60231e-05
1.51157e-05
1.41478e-05
1.31219e-05
1.204e-05
1.09025e-05
9.71123e-06
8.46886e-06
7.17646e-06
5.83433e-06
4.44325e-06
3.00512e-06
1.52157e-06
-6.7139e-09
-1.57839e-06
-3.19187e-06
-4.84523e-06
-6.53639e-06
-8.26418e-06
-1.00281e-05
-1.18272e-05
-1.36595e-05
-1.55228e-05
-1.74171e-05
-1.93422e-05
-2.12963e-05
-2.32774e-05
-2.52846e-05
-2.73171e-05
-2.93743e-05
-3.14553e-05
-3.3558e-05
-3.56811e-05
-3.78239e-05
-3.99862e-05
-4.21674e-05
-4.43662e-05
-4.65813e-05
-4.8812e-05
-5.10587e-05
-5.33212e-05
-5.55973e-05
-5.78846e-05
-6.01826e-05
-6.24911e-05
-6.48102e-05
-6.71384e-05
-6.94747e-05
-7.18188e-05
-7.41705e-05
-7.65296e-05
-7.8895e-05
-8.12652e-05