/*--------------------------------*- C++ -*----------------------------------*\
  =========                 |
  \\      /  F ield         | OpenFOAM: The Open Source CFD Toolbox
   \\    /   O peration     | Website:  https://openfoam.org
    \\  /    A nd           | Version:  7
     \\/     M anipulation  |
\*---------------------------------------------------------------------------*/
FoamFile
{
    version     2.0;
    format      ascii;
    class       volVectorField;
    location    "0.4625";
    object      U;
}
// * * * * * * * * * * * * * * * * * * * * * * * * * * * * * * * * * * * * * //

dimensions      [0 1 -1 0 0 0 0];

internalField   nonuniform List<vector> 
51200
(
(4.94426e-08 7.31274e-08 0)
(-5.32172e-08 1.03739e-07 0)
(-8.94818e-08 4.59497e-08 0)
(-1.39373e-07 1.87309e-08 0)
(-1.04859e-07 -4.02105e-09 0)
(-3.43112e-08 -2.03531e-08 0)
(6.7954e-08 -3.24809e-08 0)
(1.96822e-07 -4.13976e-08 0)
(3.47988e-07 -4.84986e-08 0)
(5.17927e-07 -5.39653e-08 0)
(7.03674e-07 -5.84329e-08 0)
(9.02114e-07 -6.21895e-08 0)
(1.11143e-06 -6.50769e-08 0)
(1.3292e-06 -6.73992e-08 0)
(1.55341e-06 -6.90623e-08 0)
(1.78262e-06 -6.98793e-08 0)
(2.01479e-06 -7.03695e-08 0)
(2.24865e-06 -7.0578e-08 0)
(2.48328e-06 -7.03832e-08 0)
(2.71704e-06 -6.99673e-08 0)
(2.94884e-06 -6.91747e-08 0)
(3.17803e-06 -6.80006e-08 0)
(3.40367e-06 -6.65792e-08 0)
(3.62494e-06 -6.52255e-08 0)
(3.84131e-06 -6.37514e-08 0)
(4.05217e-06 -6.19725e-08 0)
(4.2569e-06 -6.01614e-08 0)
(4.45525e-06 -5.82691e-08 0)
(4.64697e-06 -5.61607e-08 0)
(4.83156e-06 -5.40899e-08 0)
(5.00881e-06 -5.20773e-08 0)
(5.17868e-06 -4.98782e-08 0)
(5.34094e-06 -4.75295e-08 0)
(5.49548e-06 -4.51803e-08 0)
(5.6424e-06 -4.28469e-08 0)
(5.78172e-06 -4.05628e-08 0)
(5.9134e-06 -3.83242e-08 0)
(6.03755e-06 -3.61305e-08 0)
(6.1543e-06 -3.40161e-08 0)
(6.26385e-06 -3.19079e-08 0)
(6.36641e-06 -2.97815e-08 0)
(6.46208e-06 -2.77883e-08 0)
(6.551e-06 -2.59091e-08 0)
(6.6335e-06 -2.39796e-08 0)
(6.70982e-06 -2.20717e-08 0)
(6.78014e-06 -2.03537e-08 0)
(6.8448e-06 -1.87895e-08 0)
(6.90408e-06 -1.73062e-08 0)
(6.95819e-06 -1.58777e-08 0)
(7.00742e-06 -1.45061e-08 0)
(7.05216e-06 -1.32368e-08 0)
(7.0927e-06 -1.20553e-08 0)
(7.12931e-06 -1.09137e-08 0)
(7.16227e-06 -9.82043e-09 0)
(7.19191e-06 -8.82729e-09 0)
(7.21854e-06 -7.96014e-09 0)
(7.24244e-06 -7.16059e-09 0)
(7.2639e-06 -6.39068e-09 0)
(7.28317e-06 -5.74055e-09 0)
(7.30045e-06 -5.28123e-09 0)
(7.31606e-06 -4.92198e-09 0)
(7.33032e-06 -4.56509e-09 0)
(7.34341e-06 -4.24477e-09 0)
(7.35547e-06 -3.9773e-09 0)
(7.36675e-06 -3.69654e-09 0)
(7.37752e-06 -3.41671e-09 0)
(7.38797e-06 -3.2419e-09 0)
(7.39832e-06 -3.21356e-09 0)
(7.40876e-06 -3.29385e-09 0)
(7.41933e-06 -3.41262e-09 0)
(7.43003e-06 -3.48533e-09 0)
(7.44106e-06 -3.4902e-09 0)
(7.45263e-06 -3.50741e-09 0)
(7.4648e-06 -3.62351e-09 0)
(7.47759e-06 -3.82247e-09 0)
(7.49107e-06 -4.0268e-09 0)
(7.50525e-06 -4.20589e-09 0)
(7.52009e-06 -4.38481e-09 0)
(7.53558e-06 -4.57599e-09 0)
(7.55177e-06 -4.74958e-09 0)
(7.56868e-06 -4.88214e-09 0)
(7.5862e-06 -4.97063e-09 0)
(7.60423e-06 -5.01806e-09 0)
(7.62273e-06 -5.0501e-09 0)
(7.64165e-06 -5.10412e-09 0)
(7.66081e-06 -5.19235e-09 0)
(7.68005e-06 -5.25128e-09 0)
(7.69919e-06 -5.18313e-09 0)
(7.71814e-06 -5.00022e-09 0)
(7.73675e-06 -4.7942e-09 0)
(7.7548e-06 -4.59499e-09 0)
(7.77213e-06 -4.35767e-09 0)
(7.78853e-06 -4.02501e-09 0)
(7.80375e-06 -3.6085e-09 0)
(7.81755e-06 -3.14694e-09 0)
(7.82966e-06 -2.60624e-09 0)
(7.83988e-06 -1.9649e-09 0)
(7.84791e-06 -1.25726e-09 0)
(7.85346e-06 -5.06033e-10 0)
(7.85627e-06 2.98964e-10 0)
(7.85605e-06 1.21497e-09 0)
(7.85251e-06 2.2679e-09 0)
(7.84536e-06 3.40481e-09 0)
(7.83428e-06 4.60797e-09 0)
(7.819e-06 5.88506e-09 0)
(7.79926e-06 7.23651e-09 0)
(7.77472e-06 8.67556e-09 0)
(7.74513e-06 1.01886e-08 0)
(7.71019e-06 1.17707e-08 0)
(7.66955e-06 1.34635e-08 0)
(7.62293e-06 1.52562e-08 0)
(7.57009e-06 1.71051e-08 0)
(7.51073e-06 1.90204e-08 0)
(7.44469e-06 2.10051e-08 0)
(7.37171e-06 2.30617e-08 0)
(7.29149e-06 2.52124e-08 0)
(7.20387e-06 2.74222e-08 0)
(7.10866e-06 2.96693e-08 0)
(7.00569e-06 3.19808e-08 0)
(6.89489e-06 3.43195e-08 0)
(6.77606e-06 3.66378e-08 0)
(6.649e-06 3.89658e-08 0)
(6.5137e-06 4.13407e-08 0)
(6.37016e-06 4.37756e-08 0)
(6.21834e-06 4.62666e-08 0)
(6.0583e-06 4.87437e-08 0)
(5.89012e-06 5.11371e-08 0)
(5.71382e-06 5.3471e-08 0)
(5.52962e-06 5.57566e-08 0)
(5.33773e-06 5.79539e-08 0)
(5.13829e-06 6.00871e-08 0)
(4.93161e-06 6.21983e-08 0)
(4.71811e-06 6.42522e-08 0)
(4.49818e-06 6.61871e-08 0)
(4.27227e-06 6.79354e-08 0)
(4.04101e-06 6.94274e-08 0)
(3.80494e-06 7.06836e-08 0)
(3.56473e-06 7.17862e-08 0)
(3.32129e-06 7.27124e-08 0)
(3.07547e-06 7.33661e-08 0)
(2.82814e-06 7.37215e-08 0)
(2.5804e-06 7.37558e-08 0)
(2.33348e-06 7.33903e-08 0)
(2.08861e-06 7.25956e-08 0)
(1.84725e-06 7.13708e-08 0)
(1.61107e-06 6.96511e-08 0)
(1.38176e-06 6.73618e-08 0)
(1.16114e-06 6.44641e-08 0)
(9.51305e-07 6.09035e-08 0)
(7.54431e-07 5.66007e-08 0)
(5.72783e-07 5.14947e-08 0)
(4.08931e-07 4.54924e-08 0)
(2.65656e-07 3.84507e-08 0)
(1.45626e-07 3.03135e-08 0)
(5.14684e-08 2.11584e-08 0)
(-1.42765e-08 1.11301e-08 0)
(-4.98577e-08 6.09912e-10 0)
(-5.56807e-08 -9.2466e-09 0)
(-3.78485e-08 -1.56473e-08 0)
(-1.23031e-08 -1.19476e-08 0)
(7.44547e-08 1.70355e-08 0)
(7.09463e-08 1.36168e-07 0)
(3.5717e-08 5.61258e-08 0)
(6.96305e-08 -1.90977e-08 0)
(1.90608e-07 -9.62171e-08 0)
(3.91855e-07 -1.64151e-07 0)
(6.68581e-07 -2.21676e-07 0)
(1.01249e-06 -2.7062e-07 0)
(1.41556e-06 -3.11572e-07 0)
(1.87056e-06 -3.45964e-07 0)
(2.36938e-06 -3.75013e-07 0)
(2.90603e-06 -3.98807e-07 0)
(3.4734e-06 -4.18266e-07 0)
(4.06576e-06 -4.33766e-07 0)
(4.67822e-06 -4.4524e-07 0)
(5.30503e-06 -4.53426e-07 0)
(5.94197e-06 -4.58591e-07 0)
(6.58538e-06 -4.60793e-07 0)
(7.23097e-06 -4.60755e-07 0)
(7.87556e-06 -4.58636e-07 0)
(8.5162e-06 -4.54385e-07 0)
(9.14984e-06 -4.48233e-07 0)
(9.77432e-06 -4.40442e-07 0)
(1.03876e-05 -4.31431e-07 0)
(1.09875e-05 -4.21188e-07 0)
(1.15724e-05 -4.09921e-07 0)
(1.2141e-05 -3.97808e-07 0)
(1.26918e-05 -3.8479e-07 0)
(1.32241e-05 -3.71089e-07 0)
(1.37369e-05 -3.57038e-07 0)
(1.42296e-05 -3.42619e-07 0)
(1.47016e-05 -3.27852e-07 0)
(1.51525e-05 -3.12884e-07 0)
(1.55821e-05 -2.97771e-07 0)
(1.59902e-05 -2.82612e-07 0)
(1.63771e-05 -2.67548e-07 0)
(1.67427e-05 -2.52632e-07 0)
(1.70874e-05 -2.3796e-07 0)
(1.74111e-05 -2.23549e-07 0)
(1.77146e-05 -2.09324e-07 0)
(1.79982e-05 -1.95432e-07 0)
(1.82624e-05 -1.82096e-07 0)
(1.85078e-05 -1.69192e-07 0)
(1.87351e-05 -1.56606e-07 0)
(1.89449e-05 -1.44483e-07 0)
(1.91379e-05 -1.32932e-07 0)
(1.93149e-05 -1.21942e-07 0)
(1.94768e-05 -1.11546e-07 0)
(1.96243e-05 -1.01736e-07 0)
(1.97583e-05 -9.25128e-08 0)
(1.98795e-05 -8.38865e-08 0)
(1.99889e-05 -7.58571e-08 0)
(2.00873e-05 -6.84116e-08 0)
(2.01756e-05 -6.15146e-08 0)
(2.02545e-05 -5.51993e-08 0)
(2.03248e-05 -4.94979e-08 0)
(2.03876e-05 -4.43038e-08 0)
(2.04436e-05 -3.95955e-08 0)
(2.04935e-05 -3.5501e-08 0)
(2.0538e-05 -3.20074e-08 0)
(2.05781e-05 -2.89795e-08 0)
(2.06144e-05 -2.64143e-08 0)
(2.06475e-05 -2.44045e-08 0)
(2.06782e-05 -2.28888e-08 0)
(2.07071e-05 -2.16928e-08 0)
(2.07346e-05 -2.07649e-08 0)
(2.07612e-05 -2.01597e-08 0)
(2.07877e-05 -1.99144e-08 0)
(2.08144e-05 -2.00861e-08 0)
(2.08419e-05 -2.06692e-08 0)
(2.08703e-05 -2.14655e-08 0)
(2.09001e-05 -2.23093e-08 0)
(2.09316e-05 -2.32589e-08 0)
(2.09647e-05 -2.44107e-08 0)
(2.09999e-05 -2.57156e-08 0)
(2.10374e-05 -2.70822e-08 0)
(2.10773e-05 -2.85056e-08 0)
(2.11194e-05 -3.00024e-08 0)
(2.11638e-05 -3.15139e-08 0)
(2.12104e-05 -3.29296e-08 0)
(2.12593e-05 -3.42166e-08 0)
(2.13101e-05 -3.53866e-08 0)
(2.13628e-05 -3.63746e-08 0)
(2.14169e-05 -3.7123e-08 0)
(2.14724e-05 -3.76659e-08 0)
(2.15288e-05 -3.80599e-08 0)
(2.15858e-05 -3.82553e-08 0)
(2.1643e-05 -3.80904e-08 0)
(2.16999e-05 -3.7513e-08 0)
(2.17559e-05 -3.65956e-08 0)
(2.18105e-05 -3.53329e-08 0)
(2.18633e-05 -3.36594e-08 0)
(2.19136e-05 -3.15353e-08 0)
(2.19607e-05 -2.89705e-08 0)
(2.20039e-05 -2.59859e-08 0)
(2.20425e-05 -2.24933e-08 0)
(2.20758e-05 -1.84217e-08 0)
(2.2103e-05 -1.38048e-08 0)
(2.21234e-05 -8.65944e-09 0)
(2.21361e-05 -2.98627e-09 0)
(2.21404e-05 3.26007e-09 0)
(2.21354e-05 1.01335e-08 0)
(2.21202e-05 1.75881e-08 0)
(2.2094e-05 2.5607e-08 0)
(2.2056e-05 3.4213e-08 0)
(2.20053e-05 4.33883e-08 0)
(2.1941e-05 5.31423e-08 0)
(2.18622e-05 6.3482e-08 0)
(2.17684e-05 7.43721e-08 0)
(2.16586e-05 8.58335e-08 0)
(2.15319e-05 9.78764e-08 0)
(2.13876e-05 1.10434e-07 0)
(2.12248e-05 1.235e-07 0)
(2.10429e-05 1.37076e-07 0)
(2.08414e-05 1.511e-07 0)
(2.06195e-05 1.65558e-07 0)
(2.03767e-05 1.80422e-07 0)
(2.01123e-05 1.95636e-07 0)
(1.98259e-05 2.11204e-07 0)
(1.95171e-05 2.2706e-07 0)
(1.91855e-05 2.43053e-07 0)
(1.8831e-05 2.59143e-07 0)
(1.84532e-05 2.7537e-07 0)
(1.80521e-05 2.91701e-07 0)
(1.76275e-05 3.08068e-07 0)
(1.71795e-05 3.24388e-07 0)
(1.67087e-05 3.40526e-07 0)
(1.62151e-05 3.56407e-07 0)
(1.56993e-05 3.71963e-07 0)
(1.51618e-05 3.87009e-07 0)
(1.46033e-05 4.01424e-07 0)
(1.40245e-05 4.15223e-07 0)
(1.34266e-05 4.28351e-07 0)
(1.28107e-05 4.4065e-07 0)
(1.21784e-05 4.51928e-07 0)
(1.15312e-05 4.61976e-07 0)
(1.08709e-05 4.70622e-07 0)
(1.01996e-05 4.77795e-07 0)
(9.51924e-06 4.83388e-07 0)
(8.83254e-06 4.87159e-07 0)
(8.1422e-06 4.88876e-07 0)
(7.45122e-06 4.88373e-07 0)
(6.76303e-06 4.85414e-07 0)
(6.08125e-06 4.79724e-07 0)
(5.40978e-06 4.71076e-07 0)
(4.75298e-06 4.59222e-07 0)
(4.11558e-06 4.43848e-07 0)
(3.50258e-06 4.24618e-07 0)
(2.91936e-06 4.01231e-07 0)
(2.37163e-06 3.73393e-07 0)
(1.86535e-06 3.4084e-07 0)
(1.40676e-06 3.03341e-07 0)
(1.00232e-06 2.60698e-07 0)
(6.58219e-07 2.12934e-07 0)
(3.7992e-07 1.60558e-07 0)
(1.71683e-07 1.04837e-07 0)
(3.54729e-08 4.84145e-08 0)
(-3.13495e-08 -3.31806e-09 0)
(-3.99258e-08 -3.97101e-08 0)
(-1.62903e-08 -3.79277e-08 0)
(3.11039e-08 7.16986e-09 0)
(6.81614e-08 6.28389e-08 0)
(1.62783e-07 -1.46753e-08 0)
(3.20272e-07 -1.60303e-07 0)
(5.73849e-07 -3.241e-07 0)
(9.30666e-07 -4.81915e-07 0)
(1.38791e-06 -6.25741e-07 0)
(1.93974e-06 -7.53361e-07 0)
(2.57781e-06 -8.64225e-07 0)
(3.29162e-06 -9.60039e-07 0)
(4.07256e-06 -1.04108e-06 0)
(4.91027e-06 -1.10899e-06 0)
(5.79557e-06 -1.16489e-06 0)
(6.72053e-06 -1.2091e-06 0)
(7.67626e-06 -1.24338e-06 0)
(8.65538e-06 -1.26828e-06 0)
(9.65133e-06 -1.28418e-06 0)
(1.06571e-05 -1.29245e-06 0)
(1.16672e-05 -1.29363e-06 0)
(1.26764e-05 -1.28834e-06 0)
(1.36796e-05 -1.27751e-06 0)
(1.46727e-05 -1.26134e-06 0)
(1.56517e-05 -1.24046e-06 0)
(1.66131e-05 -1.21562e-06 0)
(1.7554e-05 -1.18725e-06 0)
(1.84717e-05 -1.1558e-06 0)
(1.93638e-05 -1.12175e-06 0)
(2.02283e-05 -1.08538e-06 0)
(2.10635e-05 -1.04708e-06 0)
(2.18681e-05 -1.00724e-06 0)
(2.2641e-05 -9.66265e-07 0)
(2.33814e-05 -9.24487e-07 0)
(2.40887e-05 -8.8209e-07 0)
(2.47622e-05 -8.39361e-07 0)
(2.54019e-05 -7.96574e-07 0)
(2.60079e-05 -7.53803e-07 0)
(2.65803e-05 -7.11376e-07 0)
(2.71193e-05 -6.69664e-07 0)
(2.76255e-05 -6.2862e-07 0)
(2.80995e-05 -5.8828e-07 0)
(2.85419e-05 -5.4896e-07 0)
(2.89535e-05 -5.10803e-07 0)
(2.93354e-05 -4.73867e-07 0)
(2.96887e-05 -4.38248e-07 0)
(3.00141e-05 -4.04041e-07 0)
(3.0313e-05 -3.71263e-07 0)
(3.05866e-05 -3.39996e-07 0)
(3.08361e-05 -3.10353e-07 0)
(3.1063e-05 -2.82335e-07 0)
(3.12684e-05 -2.56018e-07 0)
(3.14536e-05 -2.31434e-07 0)
(3.16202e-05 -2.08536e-07 0)
(3.17694e-05 -1.87335e-07 0)
(3.19027e-05 -1.67873e-07 0)
(3.20212e-05 -1.50148e-07 0)
(3.21264e-05 -1.34084e-07 0)
(3.22197e-05 -1.19554e-07 0)
(3.23024e-05 -1.06582e-07 0)
(3.23755e-05 -9.5238e-08 0)
(3.24405e-05 -8.53847e-08 0)
(3.24986e-05 -7.69085e-08 0)
(3.25509e-05 -6.98548e-08 0)
(3.25984e-05 -6.41808e-08 0)
(3.26422e-05 -5.97911e-08 0)
(3.26835e-05 -5.66811e-08 0)
(3.27232e-05 -5.47582e-08 0)
(3.2762e-05 -5.37919e-08 0)
(3.28007e-05 -5.3667e-08 0)
(3.284e-05 -5.44411e-08 0)
(3.28807e-05 -5.60935e-08 0)
(3.29235e-05 -5.84459e-08 0)
(3.29689e-05 -6.13845e-08 0)
(3.30173e-05 -6.48883e-08 0)
(3.30689e-05 -6.88284e-08 0)
(3.31242e-05 -7.3003e-08 0)
(3.31835e-05 -7.73386e-08 0)
(3.32468e-05 -8.18596e-08 0)
(3.33142e-05 -8.64863e-08 0)
(3.33857e-05 -9.10532e-08 0)
(3.34612e-05 -9.5445e-08 0)
(3.35406e-05 -9.96004e-08 0)
(3.36236e-05 -1.03444e-07 0)
(3.37099e-05 -1.06832e-07 0)
(3.37992e-05 -1.09633e-07 0)
(3.38907e-05 -1.11787e-07 0)
(3.39841e-05 -1.13221e-07 0)
(3.40788e-05 -1.13859e-07 0)
(3.41743e-05 -1.13637e-07 0)
(3.42695e-05 -1.12481e-07 0)
(3.43637e-05 -1.10309e-07 0)
(3.4456e-05 -1.06987e-07 0)
(3.45457e-05 -1.0244e-07 0)
(3.46317e-05 -9.6681e-08 0)
(3.47128e-05 -8.96482e-08 0)
(3.47879e-05 -8.12459e-08 0)
(3.4856e-05 -7.13961e-08 0)
(3.49158e-05 -6.00092e-08 0)
(3.49662e-05 -4.70585e-08 0)
(3.50058e-05 -3.2507e-08 0)
(3.50335e-05 -1.63195e-08 0)
(3.50479e-05 1.4744e-09 0)
(3.50475e-05 2.09178e-08 0)
(3.50311e-05 4.20783e-08 0)
(3.49973e-05 6.49399e-08 0)
(3.49448e-05 8.94796e-08 0)
(3.48721e-05 1.15674e-07 0)
(3.47779e-05 1.43517e-07 0)
(3.46608e-05 1.73082e-07 0)
(3.45195e-05 2.04364e-07 0)
(3.43528e-05 2.37239e-07 0)
(3.41593e-05 2.7165e-07 0)
(3.39377e-05 3.07577e-07 0)
(3.36869e-05 3.44973e-07 0)
(3.34056e-05 3.83825e-07 0)
(3.3093e-05 4.24025e-07 0)
(3.27478e-05 4.65418e-07 0)
(3.23693e-05 5.07926e-07 0)
(3.19565e-05 5.5145e-07 0)
(3.15087e-05 5.95851e-07 0)
(3.10251e-05 6.41053e-07 0)
(3.05053e-05 6.86924e-07 0)
(2.99488e-05 7.33215e-07 0)
(2.93554e-05 7.79747e-07 0)
(2.87249e-05 8.26403e-07 0)
(2.80572e-05 8.72996e-07 0)
(2.73524e-05 9.19359e-07 0)
(2.66111e-05 9.65297e-07 0)
(2.58338e-05 1.01049e-06 0)
(2.50212e-05 1.05466e-06 0)
(2.41741e-05 1.09753e-06 0)
(2.32937e-05 1.13871e-06 0)
(2.23816e-05 1.17788e-06 0)
(2.14393e-05 1.21485e-06 0)
(2.04688e-05 1.24933e-06 0)
(1.94722e-05 1.28091e-06 0)
(1.84523e-05 1.30913e-06 0)
(1.74119e-05 1.33352e-06 0)
(1.63543e-05 1.35357e-06 0)
(1.52829e-05 1.36886e-06 0)
(1.42017e-05 1.37891e-06 0)
(1.31151e-05 1.38318e-06 0)
(1.20279e-05 1.38109e-06 0)
(1.09454e-05 1.37207e-06 0)
(9.87315e-06 1.35545e-06 0)
(8.8174e-06 1.33051e-06 0)
(7.78485e-06 1.29655e-06 0)
(6.78257e-06 1.2529e-06 0)
(5.81819e-06 1.1988e-06 0)
(4.89989e-06 1.13344e-06 0)
(4.03613e-06 1.05621e-06 0)
(3.23553e-06 9.66641e-07 0)
(2.50706e-06 8.64415e-07 0)
(1.85961e-06 7.49521e-07 0)
(1.30148e-06 6.22571e-07 0)
(8.39775e-07 4.85318e-07 0)
(4.79688e-07 3.41454e-07 0)
(2.22935e-07 1.97903e-07 0)
(6.54793e-08 6.68149e-08 0)
(-4.41293e-09 -3.10309e-08 0)
(-9.85677e-09 -5.63624e-08 0)
(2.39972e-08 -6.51967e-08 0)
(9.76644e-08 -5.96412e-08 0)
(2.81558e-07 -2.00369e-07 0)
(5.62806e-07 -4.3784e-07 0)
(9.59585e-07 -7.08011e-07 0)
(1.47859e-06 -9.77371e-07 0)
(2.11842e-06 -1.22999e-06 0)
(2.87316e-06 -1.45883e-06 0)
(3.73301e-06 -1.66265e-06 0)
(4.68822e-06 -1.84013e-06 0)
(5.72708e-06 -1.99268e-06 0)
(6.83817e-06 -2.12174e-06 0)
(8.01066e-06 -2.22778e-06 0)
(9.23327e-06 -2.31317e-06 0)
(1.0496e-05 -2.37933e-06 0)
(1.17897e-05 -2.42737e-06 0)
(1.31049e-05 -2.45927e-06 0)
(1.44334e-05 -2.47616e-06 0)
(1.57678e-05 -2.47919e-06 0)
(1.71007e-05 -2.47007e-06 0)
(1.84262e-05 -2.4498e-06 0)
(1.97386e-05 -2.41949e-06 0)
(2.10325e-05 -2.38036e-06 0)
(2.23033e-05 -2.33321e-06 0)
(2.35469e-05 -2.27911e-06 0)
(2.47598e-05 -2.21902e-06 0)
(2.59389e-05 -2.15374e-06 0)
(2.70815e-05 -2.08406e-06 0)
(2.81854e-05 -2.01068e-06 0)
(2.92485e-05 -1.93423e-06 0)
(3.02695e-05 -1.85541e-06 0)
(3.12471e-05 -1.77479e-06 0)
(3.21806e-05 -1.69301e-06 0)
(3.30693e-05 -1.61065e-06 0)
(3.3913e-05 -1.52801e-06 0)
(3.47116e-05 -1.44546e-06 0)
(3.54653e-05 -1.3636e-06 0)
(3.61744e-05 -1.28277e-06 0)
(3.68399e-05 -1.20319e-06 0)
(3.74623e-05 -1.12528e-06 0)
(3.80424e-05 -1.04933e-06 0)
(3.85815e-05 -9.75429e-07 0)
(3.90809e-05 -9.0385e-07 0)
(3.95419e-05 -8.34903e-07 0)
(3.9966e-05 -7.68746e-07 0)
(4.03546e-05 -7.05461e-07 0)
(4.07094e-05 -6.45136e-07 0)
(4.10322e-05 -5.8788e-07 0)
(4.13247e-05 -5.33828e-07 0)
(4.15886e-05 -4.83084e-07 0)
(4.18258e-05 -4.35644e-07 0)
(4.20381e-05 -3.9143e-07 0)
(4.22274e-05 -3.50513e-07 0)
(4.23954e-05 -3.13023e-07 0)
(4.25439e-05 -2.78848e-07 0)
(4.26751e-05 -2.47833e-07 0)
(4.27905e-05 -2.20016e-07 0)
(4.28919e-05 -1.95409e-07 0)
(4.29809e-05 -1.73848e-07 0)
(4.30595e-05 -1.55171e-07 0)
(4.31292e-05 -1.39348e-07 0)
(4.31914e-05 -1.26313e-07 0)
(4.32477e-05 -1.1585e-07 0)
(4.32995e-05 -1.07816e-07 0)
(4.33482e-05 -1.02171e-07 0)
(4.33952e-05 -9.87856e-08 0)
(4.34416e-05 -9.74759e-08 0)
(4.34884e-05 -9.80933e-08 0)
(4.35366e-05 -1.0043e-07 0)
(4.35872e-05 -1.04233e-07 0)
(4.36411e-05 -1.09345e-07 0)
(4.3699e-05 -1.15702e-07 0)
(4.37613e-05 -1.2317e-07 0)
(4.38288e-05 -1.3148e-07 0)
(4.39019e-05 -1.40366e-07 0)
(4.39807e-05 -1.49675e-07 0)
(4.40655e-05 -1.59285e-07 0)
(4.41564e-05 -1.68996e-07 0)
(4.42534e-05 -1.78562e-07 0)
(4.43564e-05 -1.87797e-07 0)
(4.4465e-05 -1.96522e-07 0)
(4.45792e-05 -2.04551e-07 0)
(4.46984e-05 -2.11744e-07 0)
(4.4822e-05 -2.17952e-07 0)
(4.49494e-05 -2.2296e-07 0)
(4.50798e-05 -2.26482e-07 0)
(4.52125e-05 -2.28348e-07 0)
(4.53466e-05 -2.28532e-07 0)
(4.54809e-05 -2.26919e-07 0)
(4.56143e-05 -2.23263e-07 0)
(4.57459e-05 -2.17352e-07 0)
(4.58742e-05 -2.09069e-07 0)
(4.59978e-05 -1.98375e-07 0)
(4.61154e-05 -1.85138e-07 0)
(4.62254e-05 -1.6916e-07 0)
(4.63263e-05 -1.50363e-07 0)
(4.64166e-05 -1.28656e-07 0)
(4.64944e-05 -1.03899e-07 0)
(4.65582e-05 -7.60056e-08 0)
(4.66062e-05 -4.49137e-08 0)
(4.66365e-05 -1.06275e-08 0)
(4.66473e-05 2.68664e-08 0)
(4.66369e-05 6.76893e-08 0)
(4.66034e-05 1.11889e-07 0)
(4.65448e-05 1.59392e-07 0)
(4.64593e-05 2.10156e-07 0)
(4.63451e-05 2.64178e-07 0)
(4.62004e-05 3.21476e-07 0)
(4.60233e-05 3.82083e-07 0)
(4.58121e-05 4.4588e-07 0)
(4.55651e-05 5.12693e-07 0)
(4.52804e-05 5.82471e-07 0)
(4.49566e-05 6.55119e-07 0)
(4.45921e-05 7.30486e-07 0)
(4.41854e-05 8.08456e-07 0)
(4.37351e-05 8.88835e-07 0)
(4.324e-05 9.71391e-07 0)
(4.2699e-05 1.05591e-06 0)
(4.21109e-05 1.14211e-06 0)
(4.14751e-05 1.22972e-06 0)
(4.07906e-05 1.3186e-06 0)
(4.00568e-05 1.40849e-06 0)
(3.92736e-05 1.49891e-06 0)
(3.84407e-05 1.58949e-06 0)
(3.7558e-05 1.67988e-06 0)
(3.66258e-05 1.76969e-06 0)
(3.56447e-05 1.8585e-06 0)
(3.46153e-05 1.94583e-06 0)
(3.35387e-05 2.0311e-06 0)
(3.24161e-05 2.11381e-06 0)
(3.12491e-05 2.19343e-06 0)
(3.00396e-05 2.26926e-06 0)
(2.87901e-05 2.34061e-06 0)
(2.75031e-05 2.40689e-06 0)
(2.61815e-05 2.46744e-06 0)
(2.48289e-05 2.52144e-06 0)
(2.34491e-05 2.56803e-06 0)
(2.20464e-05 2.60633e-06 0)
(2.06256e-05 2.63537e-06 0)
(1.9192e-05 2.65422e-06 0)
(1.77514e-05 2.66191e-06 0)
(1.63101e-05 2.65738e-06 0)
(1.48751e-05 2.63949e-06 0)
(1.34538e-05 2.60704e-06 0)
(1.2054e-05 2.55882e-06 0)
(1.06846e-05 2.49352e-06 0)
(9.35485e-06 2.40992e-06 0)
(8.0742e-06 2.30682e-06 0)
(6.85298e-06 2.18305e-06 0)
(5.70191e-06 2.03755e-06 0)
(4.63174e-06 1.8696e-06 0)
(3.6532e-06 1.67901e-06 0)
(2.77686e-06 1.46626e-06 0)
(2.01249e-06 1.23297e-06 0)
(1.36831e-06 9.82727e-07 0)
(8.50255e-07 7.22223e-07 0)
(4.6061e-07 4.62959e-07 0)
(1.9578e-07 2.23743e-07 0)
(4.69478e-08 3.47843e-08 0)
(1.11317e-10 -5.09679e-08 0)
(2.21946e-08 -1.12909e-07 0)
(1.32304e-07 -2.33043e-07 0)
(4.01518e-07 -4.87068e-07 0)
(8.03741e-07 -8.4611e-07 0)
(1.34287e-06 -1.24519e-06 0)
(2.02313e-06 -1.64459e-06 0)
(2.84135e-06 -2.02291e-06 0)
(3.78967e-06 -2.37082e-06 0)
(4.85921e-06 -2.68252e-06 0)
(6.03793e-06 -2.95721e-06 0)
(7.31323e-06 -3.19506e-06 0)
(8.67317e-06 -3.39667e-06 0)
(1.01044e-05 -3.56429e-06 0)
(1.15946e-05 -3.69967e-06 0)
(1.31323e-05 -3.80455e-06 0)
(1.4706e-05 -3.88153e-06 0)
(1.63053e-05 -3.93278e-06 0)
(1.79206e-05 -3.96016e-06 0)
(1.95423e-05 -3.96595e-06 0)
(2.11623e-05 -3.95187e-06 0)
(2.27731e-05 -3.91983e-06 0)
(2.43676e-05 -3.87191e-06 0)
(2.59397e-05 -3.80959e-06 0)
(2.74837e-05 -3.73454e-06 0)
(2.89945e-05 -3.64824e-06 0)
(3.04678e-05 -3.55209e-06 0)
(3.18997e-05 -3.44748e-06 0)
(3.3287e-05 -3.3357e-06 0)
(3.46269e-05 -3.21793e-06 0)
(3.59171e-05 -3.09529e-06 0)
(3.71556e-05 -2.96869e-06 0)
(3.8341e-05 -2.83912e-06 0)
(3.94721e-05 -2.7076e-06 0)
(4.05483e-05 -2.57489e-06 0)
(4.15695e-05 -2.44173e-06 0)
(4.25352e-05 -2.30896e-06 0)
(4.34457e-05 -2.17715e-06 0)
(4.43017e-05 -2.04679e-06 0)
(4.51039e-05 -1.91852e-06 0)
(4.58531e-05 -1.79298e-06 0)
(4.65507e-05 -1.6705e-06 0)
(4.71979e-05 -1.5514e-06 0)
(4.77962e-05 -1.43608e-06 0)
(4.83473e-05 -1.32492e-06 0)
(4.88531e-05 -1.2182e-06 0)
(4.93155e-05 -1.11618e-06 0)
(4.97366e-05 -1.019e-06 0)
(5.01183e-05 -9.26803e-07 0)
(5.04628e-05 -8.39841e-07 0)
(5.07724e-05 -7.58208e-07 0)
(5.10494e-05 -6.81885e-07 0)
(5.12961e-05 -6.10914e-07 0)
(5.15146e-05 -5.45388e-07 0)
(5.17072e-05 -4.85315e-07 0)
(5.18764e-05 -4.3053e-07 0)
(5.20244e-05 -3.8095e-07 0)
(5.21534e-05 -3.36636e-07 0)
(5.22655e-05 -2.97476e-07 0)
(5.23631e-05 -2.63224e-07 0)
(5.24482e-05 -2.33754e-07 0)
(5.25227e-05 -2.0898e-07 0)
(5.25886e-05 -1.88724e-07 0)
(5.2648e-05 -1.72742e-07 0)
(5.27024e-05 -1.60801e-07 0)
(5.27535e-05 -1.52641e-07 0)
(5.28031e-05 -1.48016e-07 0)
(5.28527e-05 -1.46791e-07 0)
(5.29034e-05 -1.48794e-07 0)
(5.29567e-05 -1.53632e-07 0)
(5.30136e-05 -1.60887e-07 0)
(5.30753e-05 -1.70342e-07 0)
(5.31426e-05 -1.81807e-07 0)
(5.32161e-05 -1.94958e-07 0)
(5.32968e-05 -2.09432e-07 0)
(5.33852e-05 -2.24944e-07 0)
(5.34814e-05 -2.41228e-07 0)
(5.35858e-05 -2.57955e-07 0)
(5.36985e-05 -2.74798e-07 0)
(5.38195e-05 -2.91463e-07 0)
(5.39486e-05 -3.0764e-07 0)
(5.40857e-05 -3.22968e-07 0)
(5.42302e-05 -3.37105e-07 0)
(5.43815e-05 -3.49835e-07 0)
(5.45391e-05 -3.6094e-07 0)
(5.47022e-05 -3.7008e-07 0)
(5.48698e-05 -3.7688e-07 0)
(5.5041e-05 -3.81051e-07 0)
(5.52143e-05 -3.82423e-07 0)
(5.53887e-05 -3.80763e-07 0)
(5.55628e-05 -3.75741e-07 0)
(5.57351e-05 -3.67107e-07 0)
(5.5904e-05 -3.54664e-07 0)
(5.60677e-05 -3.38208e-07 0)
(5.62246e-05 -3.17536e-07 0)
(5.63726e-05 -2.92402e-07 0)
(5.651e-05 -2.62642e-07 0)
(5.66346e-05 -2.28136e-07 0)
(5.67445e-05 -1.88693e-07 0)
(5.68375e-05 -1.44174e-07 0)
(5.69113e-05 -9.44972e-08 0)
(5.69636e-05 -3.95672e-08 0)
(5.69923e-05 2.06751e-08 0)
(5.69952e-05 8.62895e-08 0)
(5.69698e-05 1.57354e-07 0)
(5.69137e-05 2.33845e-07 0)
(5.68247e-05 3.1571e-07 0)
(5.67005e-05 4.02966e-07 0)
(5.65388e-05 4.95548e-07 0)
(5.63375e-05 5.9337e-07 0)
(5.60941e-05 6.96365e-07 0)
(5.58065e-05 8.04348e-07 0)
(5.54728e-05 9.17145e-07 0)
(5.50908e-05 1.03461e-06 0)
(5.46586e-05 1.15647e-06 0)
(5.41745e-05 1.28246e-06 0)
(5.36367e-05 1.41237e-06 0)
(5.30437e-05 1.54586e-06 0)
(5.23939e-05 1.68254e-06 0)
(5.16862e-05 1.82199e-06 0)
(5.09195e-05 1.96377e-06 0)
(5.0093e-05 2.10743e-06 0)
(4.92058e-05 2.25261e-06 0)
(4.82575e-05 2.39872e-06 0)
(4.72479e-05 2.5451e-06 0)
(4.61771e-05 2.69114e-06 0)
(4.50453e-05 2.83621e-06 0)
(4.38532e-05 2.97955e-06 0)
(4.26018e-05 3.12036e-06 0)
(4.12922e-05 3.2578e-06 0)
(3.99262e-05 3.39102e-06 0)
(3.85056e-05 3.51913e-06 0)
(3.70327e-05 3.64121e-06 0)
(3.55107e-05 3.75614e-06 0)
(3.39426e-05 3.86274e-06 0)
(3.23323e-05 3.95989e-06 0)
(3.06839e-05 4.0464e-06 0)
(2.90022e-05 4.12092e-06 0)
(2.72925e-05 4.18204e-06 0)
(2.55606e-05 4.22834e-06 0)
(2.3813e-05 4.25829e-06 0)
(2.20567e-05 4.2703e-06 0)
(2.02995e-05 4.26272e-06 0)
(1.85496e-05 4.2338e-06 0)
(1.6816e-05 4.18171e-06 0)
(1.51081e-05 4.10462e-06 0)
(1.34364e-05 4.00069e-06 0)
(1.18116e-05 3.86805e-06 0)
(1.02453e-05 3.70498e-06 0)
(8.74916e-06 3.50995e-06 0)
(7.33551e-06 3.28168e-06 0)
(6.01671e-06 3.0193e-06 0)
(4.80504e-06 2.72273e-06 0)
(3.7123e-06 2.39312e-06 0)
(2.74927e-06 2.03343e-06 0)
(1.9253e-06 1.64929e-06 0)
(1.24743e-06 1.2504e-06 0)
(7.19155e-07 8.52534e-07 0)
(3.38825e-07 4.79939e-07 0)
(1.03133e-07 1.69784e-07 0)
(1.0629e-08 -1.60479e-08 0)
(2.55723e-08 -1.83596e-07 0)
(1.73172e-07 -4.67434e-07 0)
(5.2402e-07 -8.72447e-07 0)
(1.04125e-06 -1.38197e-06 0)
(1.71801e-06 -1.93111e-06 0)
(2.55396e-06 -2.47769e-06 0)
(3.5422e-06 -2.99808e-06 0)
(4.67475e-06 -3.47787e-06 0)
(5.94009e-06 -3.91115e-06 0)
(7.32538e-06 -4.29491e-06 0)
(8.81803e-06 -4.6282e-06 0)
(1.04036e-05 -4.9124e-06 0)
(1.20683e-05 -5.14951e-06 0)
(1.37989e-05 -5.34136e-06 0)
(1.5582e-05 -5.49085e-06 0)
(1.74051e-05 -5.60075e-06 0)
(1.92567e-05 -5.67374e-06 0)
(2.11255e-05 -5.71307e-06 0)
(2.30013e-05 -5.72136e-06 0)
(2.48746e-05 -5.70118e-06 0)
(2.67365e-05 -5.65531e-06 0)
(2.85792e-05 -5.58622e-06 0)
(3.03956e-05 -5.49633e-06 0)
(3.2179e-05 -5.38804e-06 0)
(3.39238e-05 -5.26338e-06 0)
(3.56248e-05 -5.12445e-06 0)
(3.72775e-05 -4.97317e-06 0)
(3.88781e-05 -4.81132e-06 0)
(4.04234e-05 -4.64069e-06 0)
(4.19106e-05 -4.46287e-06 0)
(4.33376e-05 -4.27931e-06 0)
(4.47025e-05 -4.09151e-06 0)
(4.60041e-05 -3.90069e-06 0)
(4.72417e-05 -3.70797e-06 0)
(4.84146e-05 -3.51464e-06 0)
(4.95229e-05 -3.32183e-06 0)
(5.05669e-05 -3.13029e-06 0)
(5.1547e-05 -2.94092e-06 0)
(5.24642e-05 -2.75463e-06 0)
(5.33195e-05 -2.57212e-06 0)
(5.41145e-05 -2.39405e-06 0)
(5.48507e-05 -2.22102e-06 0)
(5.55298e-05 -2.05357e-06 0)
(5.61538e-05 -1.89214e-06 0)
(5.67249e-05 -1.73715e-06 0)
(5.72454e-05 -1.58899e-06 0)
(5.77177e-05 -1.44791e-06 0)
(5.81441e-05 -1.31421e-06 0)
(5.85273e-05 -1.18813e-06 0)
(5.88699e-05 -1.06974e-06 0)
(5.91747e-05 -9.5913e-07 0)
(5.94442e-05 -8.56476e-07 0)
(5.96811e-05 -7.61816e-07 0)
(5.98883e-05 -6.75042e-07 0)
(6.00685e-05 -5.96057e-07 0)
(6.02244e-05 -5.24845e-07 0)
(6.03584e-05 -4.61322e-07 0)
(6.04734e-05 -4.05255e-07 0)
(6.05719e-05 -3.56444e-07 0)
(6.06563e-05 -3.14721e-07 0)
(6.07291e-05 -2.79805e-07 0)
(6.07925e-05 -2.51449e-07 0)
(6.0849e-05 -2.2946e-07 0)
(6.09004e-05 -2.13482e-07 0)
(6.0949e-05 -2.03062e-07 0)
(6.09965e-05 -1.97869e-07 0)
(6.10447e-05 -1.97642e-07 0)
(6.10951e-05 -2.02018e-07 0)
(6.11496e-05 -2.10522e-07 0)
(6.12093e-05 -2.22726e-07 0)
(6.12754e-05 -2.38274e-07 0)
(6.1349e-05 -2.56737e-07 0)
(6.14311e-05 -2.776e-07 0)
(6.15225e-05 -3.00411e-07 0)
(6.16237e-05 -3.24786e-07 0)
(6.17353e-05 -3.50292e-07 0)
(6.18574e-05 -3.76419e-07 0)
(6.19902e-05 -4.02698e-07 0)
(6.21338e-05 -4.28715e-07 0)
(6.2288e-05 -4.54013e-07 0)
(6.24525e-05 -4.78109e-07 0)
(6.26267e-05 -5.00539e-07 0)
(6.28098e-05 -5.2089e-07 0)
(6.30013e-05 -5.3874e-07 0)
(6.32001e-05 -5.53624e-07 0)
(6.34053e-05 -5.65137e-07 0)
(6.36154e-05 -5.72904e-07 0)
(6.3829e-05 -5.76516e-07 0)
(6.40447e-05 -5.75567e-07 0)
(6.4261e-05 -5.69657e-07 0)
(6.44759e-05 -5.58464e-07 0)
(6.46877e-05 -5.41688e-07 0)
(6.48941e-05 -5.18975e-07 0)
(6.50932e-05 -4.90029e-07 0)
(6.52828e-05 -4.54577e-07 0)
(6.54603e-05 -4.12313e-07 0)
(6.56236e-05 -3.63005e-07 0)
(6.57702e-05 -3.06456e-07 0)
(6.58975e-05 -2.42488e-07 0)
(6.60029e-05 -1.7097e-07 0)
(6.60836e-05 -9.17371e-08 0)
(6.6137e-05 -4.62398e-09 0)
(6.61604e-05 9.0398e-08 0)
(6.61511e-05 1.93342e-07 0)
(6.61062e-05 3.04263e-07 0)
(6.60229e-05 4.23137e-07 0)
(6.58987e-05 5.49945e-07 0)
(6.57307e-05 6.84618e-07 0)
(6.55164e-05 8.26942e-07 0)
(6.5253e-05 9.76767e-07 0)
(6.49379e-05 1.13395e-06 0)
(6.45687e-05 1.29821e-06 0)
(6.4143e-05 1.46925e-06 0)
(6.36586e-05 1.64677e-06 0)
(6.31132e-05 1.83034e-06 0)
(6.2505e-05 2.01956e-06 0)
(6.1832e-05 2.214e-06 0)
(6.10925e-05 2.4131e-06 0)
(6.02849e-05 2.6163e-06 0)
(5.94082e-05 2.823e-06 0)
(5.84612e-05 3.03247e-06 0)
(5.74433e-05 3.24395e-06 0)
(5.63536e-05 3.4567e-06 0)
(5.51921e-05 3.66986e-06 0)
(5.39586e-05 3.88246e-06 0)
(5.26538e-05 4.09355e-06 0)
(5.12783e-05 4.30211e-06 0)
(4.98331e-05 4.50697e-06 0)
(4.83198e-05 4.70687e-06 0)
(4.67403e-05 4.90057e-06 0)
(4.50971e-05 5.08672e-06 0)
(4.33928e-05 5.26391e-06 0)
(4.16307e-05 5.43068e-06 0)
(3.98148e-05 5.58539e-06 0)
(3.79494e-05 5.72628e-06 0)
(3.60395e-05 5.8516e-06 0)
(3.40905e-05 5.95949e-06 0)
(3.21086e-05 6.04794e-06 0)
(3.01007e-05 6.11488e-06 0)
(2.80742e-05 6.15819e-06 0)
(2.60372e-05 6.17564e-06 0)
(2.39985e-05 6.16483e-06 0)
(2.19677e-05 6.12332e-06 0)
(1.99549e-05 6.04866e-06 0)
(1.79709e-05 5.93838e-06 0)
(1.60275e-05 5.78998e-06 0)
(1.41369e-05 5.60105e-06 0)
(1.23117e-05 5.36933e-06 0)
(1.05652e-05 5.09285e-06 0)
(8.91086e-06 4.77015e-06 0)
(7.36224e-06 4.40041e-06 0)
(5.93272e-06 3.98384e-06 0)
(4.63532e-06 3.52228e-06 0)
(3.48197e-06 3.01994e-06 0)
(2.48311e-06 2.48444e-06 0)
(1.64733e-06 1.92818e-06 0)
(9.80128e-07 1.37038e-06 0)
(4.82777e-07 8.39353e-07 0)
(1.58867e-07 3.76668e-07 0)
(2.06621e-08 4.87519e-08 0)
(3.10173e-08 -2.77343e-07 0)
(2.16483e-07 -7.62147e-07 0)
(6.44492e-07 -1.35373e-06 0)
(1.27018e-06 -2.04003e-06 0)
(2.07771e-06 -2.75946e-06 0)
(3.06019e-06 -3.47013e-06 0)
(4.20976e-06 -4.14483e-06 0)
(5.51437e-06 -4.76882e-06 0)
(6.96146e-06 -5.33388e-06 0)
(8.53804e-06 -5.83553e-06 0)
(1.02288e-05 -6.27291e-06 0)
(1.20192e-05 -6.64705e-06 0)
(1.38947e-05 -6.95933e-06 0)
(1.58404e-05 -7.21287e-06 0)
(1.78425e-05 -7.41073e-06 0)
(1.98874e-05 -7.55613e-06 0)
(2.1962e-05 -7.65279e-06 0)
(2.40545e-05 -7.70439e-06 0)
(2.61537e-05 -7.71447e-06 0)
(2.8249e-05 -7.68668e-06 0)
(3.03308e-05 -7.62431e-06 0)
(3.23903e-05 -7.53069e-06 0)
(3.44195e-05 -7.40905e-06 0)
(3.64112e-05 -7.26236e-06 0)
(3.8359e-05 -7.09364e-06 0)
(4.02571e-05 -6.90556e-06 0)
(4.21005e-05 -6.70068e-06 0)
(4.38849e-05 -6.4815e-06 0)
(4.56067e-05 -6.25026e-06 0)
(4.72628e-05 -6.00912e-06 0)
(4.88506e-05 -5.76024e-06 0)
(5.03683e-05 -5.50552e-06 0)
(5.18144e-05 -5.2466e-06 0)
(5.3188e-05 -4.98516e-06 0)
(5.44884e-05 -4.72286e-06 0)
(5.57158e-05 -4.46102e-06 0)
(5.68704e-05 -4.20093e-06 0)
(5.79528e-05 -3.94391e-06 0)
(5.8964e-05 -3.69105e-06 0)
(5.99053e-05 -3.44321e-06 0)
(6.07784e-05 -3.20139e-06 0)
(6.1585e-05 -2.96648e-06 0)
(6.23271e-05 -2.73918e-06 0)
(6.30071e-05 -2.52013e-06 0)
(6.36274e-05 -2.30987e-06 0)
(6.41905e-05 -2.10889e-06 0)
(6.46994e-05 -1.91763e-06 0)
(6.51566e-05 -1.73653e-06 0)
(6.55652e-05 -1.56577e-06 0)
(6.59282e-05 -1.4055e-06 0)
(6.62488e-05 -1.25598e-06 0)
(6.65298e-05 -1.11737e-06 0)
(6.67745e-05 -9.89591e-07 0)
(6.69861e-05 -8.72589e-07 0)
(6.71677e-05 -7.66364e-07 0)
(6.73222e-05 -6.70827e-07 0)
(6.74528e-05 -5.85768e-07 0)
(6.75626e-05 -5.1094e-07 0)
(6.76544e-05 -4.46123e-07 0)
(6.77311e-05 -3.91052e-07 0)
(6.77955e-05 -3.45335e-07 0)
(6.78502e-05 -3.08604e-07 0)
(6.78977e-05 -2.80526e-07 0)
(6.79407e-05 -2.60649e-07 0)
(6.79815e-05 -2.485e-07 0)
(6.8022e-05 -2.43662e-07 0)
(6.80643e-05 -2.45621e-07 0)
(6.81105e-05 -2.53767e-07 0)
(6.81622e-05 -2.6755e-07 0)