/*--------------------------------*- C++ -*----------------------------------*\
  =========                 |
  \\      /  F ield         | OpenFOAM: The Open Source CFD Toolbox
   \\    /   O peration     | Website:  https://openfoam.org
    \\  /    A nd           | Version:  7
     \\/     M anipulation  |
\*---------------------------------------------------------------------------*/
FoamFile
{
    version     2.0;
    format      ascii;
    class       surfaceScalarField;
    location    "0.1125";
    object      phi;
}
// * * * * * * * * * * * * * * * * * * * * * * * * * * * * * * * * * * * * * //

dimensions      [0 3 -1 0 0 0 0];

internalField   nonuniform List<scalar> 
25360
(
6.45086e-11
-6.45015e-11
2.14072e-10
-1.49565e-10
3.72653e-10
-1.58583e-10
4.91814e-10
-1.19156e-10
5.4394e-10
-5.21289e-11
5.14378e-10
2.9561e-11
3.96732e-10
1.17658e-10
1.898e-10
2.06925e-10
-1.04263e-10
2.94062e-10
-4.81349e-10
3.77084e-10
-9.36168e-10
4.54819e-10
-1.46277e-09
5.26593e-10
-2.05487e-09
5.92096e-10
-2.70613e-09
6.51257e-10
-3.41028e-09
7.04148e-10
-4.16128e-09
7.50993e-10
-4.95334e-09
7.92066e-10
-5.78105e-09
8.27712e-10
-6.63935e-09
8.58299e-10
-7.52355e-09
8.842e-10
-8.42936e-09
9.05817e-10
-9.35289e-09
9.23532e-10
-1.02906e-08
9.37704e-10
-1.12393e-08
9.48702e-10
-1.21962e-08
9.56878e-10
-1.31587e-08
9.62544e-10
-1.41247e-08
9.66002e-10
-1.50923e-08
9.67547e-10
-1.60597e-08
9.67426e-10
-1.70255e-08
9.65865e-10
-1.79886e-08
9.63083e-10
-1.89479e-08
9.59277e-10
-1.99025e-08
9.54611e-10
-2.08518e-08
9.4924e-10
-2.17951e-08
9.4331e-10
-2.2732e-08
9.36936e-10
-2.36622e-08
9.30216e-10
-2.45855e-08
9.23246e-10
-2.55016e-08
9.16114e-10
-2.64105e-08
9.08887e-10
-2.73121e-08
9.01615e-10
-2.82064e-08
8.94351e-10
-2.90936e-08
8.87147e-10
-2.99736e-08
8.80043e-10
-3.08467e-08
8.73066e-10
-3.17129e-08
8.66242e-10
-3.25725e-08
8.59601e-10
-3.34257e-08
8.53169e-10
-3.42727e-08
8.46962e-10
-3.51137e-08
8.40993e-10
-3.59489e-08
8.35278e-10
-3.67788e-08
8.29832e-10
-3.76034e-08
8.24668e-10
-3.84232e-08
8.19792e-10
-3.92384e-08
8.15219e-10
-4.00494e-08
8.10962e-10
-4.08564e-08
8.07032e-10
-4.16599e-08
8.03428e-10
-4.246e-08
8.00147e-10
-4.32572e-08
7.9719e-10
-4.40518e-08
7.94562e-10
-4.4844e-08
7.92263e-10
-4.56343e-08
7.90283e-10
-4.64229e-08
7.88613e-10
-4.72102e-08
7.87245e-10
-4.79963e-08
7.8617e-10
-4.87817e-08
7.85372e-10
-4.95665e-08
7.84828e-10
-5.0351e-08
7.84512e-10
-5.11354e-08
7.84394e-10
-5.19199e-08
7.84445e-10
-5.27045e-08
7.84627e-10
-5.34894e-08
7.84893e-10
-5.42746e-08
7.85187e-10
-5.506e-08
7.85452e-10
-5.58457e-08
7.85628e-10
-5.66313e-08
7.85647e-10
-5.74167e-08
7.85429e-10
-5.82016e-08
7.84885e-10
-5.89855e-08
7.83922e-10
-5.9768e-08
7.82445e-10
-6.05483e-08
7.80347e-10
-6.13258e-08
7.77513e-10
-6.20996e-08
7.73816e-10
-6.28688e-08
7.69124e-10
-6.36321e-08
7.63295e-10
-6.43882e-08
7.56185e-10
-6.51359e-08
7.47641e-10
-6.58734e-08
7.375e-10
-6.6599e-08
7.25589e-10
-6.73107e-08
7.1173e-10
-6.80064e-08
6.95742e-10
-6.86839e-08
6.7744e-10
-6.93405e-08
6.56631e-10
-6.99736e-08
6.33116e-10
-7.05803e-08
6.06699e-10
-7.11575e-08
5.77186e-10
-7.17019e-08
5.44383e-10
-7.221e-08
5.08101e-10
-7.26782e-08
4.68156e-10
-7.31025e-08
4.2437e-10
-7.34791e-08
3.76576e-10
-7.38037e-08
3.24623e-10
-7.40721e-08
2.68374e-10
-7.42798e-08
2.07714e-10
-7.44224e-08
1.42546e-10
-7.44952e-08
7.28024e-11
-7.44936e-08
-1.5623e-12
-7.44131e-08
-8.05497e-11
-7.42489e-08
-1.64131e-10
-7.39967e-08
-2.52228e-10
-7.3652e-08
-3.44722e-10
-7.32105e-08
-4.4145e-10
-7.26683e-08
-5.42192e-10
-7.20217e-08
-6.46678e-10
-7.12671e-08
-7.54577e-10
-7.04016e-08
-8.65499e-10
-6.94226e-08
-9.78993e-10
-6.83281e-08
-1.09455e-09
-6.71165e-08
-1.21159e-09
-6.5787e-08
-1.32947e-09
-6.43395e-08
-1.4475e-09
-6.27746e-08
-1.56492e-09
-6.10937e-08
-1.6809e-09
-5.92991e-08
-1.7946e-09
-5.7394e-08
-1.90509e-09
-5.53826e-08
-2.01144e-09
-5.32699e-08
-2.11265e-09
-5.10622e-08
-2.20774e-09
-4.87665e-08
-2.2957e-09
-4.6391e-08
-2.37551e-09
-4.39448e-08
-2.44616e-09
-4.14381e-08
-2.50669e-09
-3.8882e-08
-2.55614e-09
-3.62884e-08
-2.59362e-09
-3.36701e-08
-2.61828e-09
-3.10407e-08
-2.62936e-09
-2.84146e-08
-2.62616e-09
-2.58065e-08
-2.60809e-09
-2.32318e-08
-2.57464e-09
-2.07064e-08
-2.52542e-09
-1.82463e-08
-2.46015e-09
-1.58676e-08
-2.37865e-09
-1.35867e-08
-2.28088e-09
-1.14198e-08
-2.16692e-09
-9.38286e-09
-2.03697e-09
-7.4915e-09
-1.89136e-09
-5.76094e-09
-1.73056e-09
-4.20571e-09
-1.55522e-09
-2.8395e-09
-1.36621e-09
-1.67483e-09
-1.16467e-09
-7.22676e-10
-9.5215e-10
8.26453e-12
-7.30941e-10
5.13229e-10
-5.04963e-10
7.92179e-10
-2.7895e-10
8.54757e-10
-6.25797e-11
7.26275e-10
1.28482e-10
4.59696e-10
2.66578e-10
1.58689e-10
3.01007e-10
1.58688e-10
1.5295e-10
-2.17454e-10
4.10674e-10
-4.07289e-10
6.45784e-10
-3.93698e-10
7.71128e-10
-2.44497e-10
7.28156e-10
-9.1622e-12
4.81151e-10
2.76562e-10
1.14317e-11
5.87372e-10
-6.87503e-10
9.05867e-10
-1.61387e-09
1.22042e-09
-2.76007e-09
1.52329e-09
-4.11472e-09
1.80947e-09
-5.66405e-09
2.07593e-09
-7.3929e-09
2.32096e-09
-9.28541e-09
2.54377e-09
-1.13256e-08
2.74435e-09
-1.34978e-08
2.92313e-09
-1.57866e-08
3.08088e-09
-1.81775e-08
3.21867e-09
-2.06569e-08
3.33765e-09
-2.32118e-08
3.43912e-09
-2.58304e-08
3.52443e-09
-2.85018e-08
3.59491e-09
-3.1216e-08
3.6519e-09
-3.3964e-08
3.69671e-09
-3.67377e-08
3.73058e-09
-3.95299e-08
3.75469e-09
-4.2334e-08
3.77018e-09
-4.51446e-08
3.77809e-09
-4.79565e-08
3.77936e-09
-5.07656e-08
3.7749e-09
-5.3568e-08
3.76552e-09
-5.63606e-08
3.75193e-09
-5.91409e-08
3.73482e-09
-6.19064e-08
3.71478e-09
-6.46554e-08
3.69233e-09
-6.73864e-08
3.66796e-09
-7.00983e-08
3.64207e-09
-7.27901e-08
3.61503e-09
-7.54611e-08
3.58717e-09
-7.8111e-08
3.55876e-09
-8.07395e-08
3.53005e-09
-8.33463e-08
3.50124e-09
-8.59317e-08
3.47254e-09
-8.84958e-08
3.44409e-09
-9.10388e-08
3.41604e-09
-9.3561e-08
3.38851e-09
-9.6063e-08
3.36161e-09
-9.85453e-08
3.33543e-09
-1.01008e-07
3.31005e-09
-1.03453e-07
3.28555e-09
-1.0588e-07
3.26199e-09
-1.08289e-07
3.23944e-09
-1.10683e-07
3.21794e-09
-1.1306e-07
3.19752e-09
-1.15423e-07
3.17824e-09
-1.17772e-07
3.16011e-09
-1.20109e-07
3.14319e-09
-1.22433e-07
3.12749e-09
-1.24746e-07
3.11301e-09
-1.27048e-07
3.09976e-09
-1.29341e-07
3.08774e-09
-1.31626e-07
3.07694e-09
-1.33903e-07
3.06733e-09
-1.36173e-07
3.05888e-09
-1.38438e-07
3.05155e-09
-1.40697e-07
3.04528e-09
-1.42951e-07
3.04001e-09
-1.45202e-07
3.03566e-09
-1.4745e-07
3.03211e-09
-1.49695e-07
3.02925e-09
-1.51937e-07
3.02696e-09
-1.54178e-07
3.02507e-09
-1.56416e-07
3.02341e-09
-1.58653e-07
3.02178e-09
-1.60887e-07
3.01995e-09
-1.63119e-07
3.01767e-09
-1.65348e-07
3.01468e-09
-1.67574e-07
3.01066e-09
-1.69794e-07
3.0053e-09
-1.72008e-07
2.99822e-09
-1.74215e-07
2.98906e-09
-1.76412e-07
2.97739e-09
-1.78597e-07
2.96277e-09
-1.80768e-07
2.94473e-09
-1.82922e-07
2.92276e-09
-1.85055e-07
2.89634e-09
-1.87163e-07
2.8649e-09
-1.89244e-07
2.82786e-09
-1.91291e-07
2.7846e-09
-1.933e-07
2.73447e-09
-1.95265e-07
2.67681e-09
-1.9718e-07
2.61093e-09
-1.99039e-07
2.53614e-09
-2.00834e-07
2.45172e-09
-2.02558e-07
2.35695e-09
-2.04202e-07
2.2511e-09
-2.05758e-07
2.13345e-09
-2.07217e-07
2.00329e-09
-2.08569e-07
1.85993e-09
-2.09804e-07
1.70269e-09
-2.1091e-07
1.53094e-09
-2.11878e-07
1.34408e-09
-2.12695e-07
1.14158e-09
-2.13349e-07
9.22945e-10
-2.13829e-07
6.87788e-10
-2.14122e-07
4.3579e-10
-2.14216e-07
1.66735e-10
-2.14098e-07
-1.19478e-10
-2.13756e-07
-4.2282e-10
-2.13177e-07
-7.43124e-10
-2.12349e-07
-1.08006e-09
-2.11261e-07
-1.43315e-09
-2.09901e-07
-1.8017e-09
-2.08258e-07
-2.18486e-09
-2.06323e-07
-2.58155e-09
-2.04087e-07
-2.99051e-09
-2.01542e-07
-3.41024e-09
-1.98682e-07
-3.839e-09
-1.95502e-07
-4.27485e-09
-1.91998e-07
-4.71562e-09
-1.88169e-07
-5.1589e-09
-1.84014e-07
-5.60206e-09
-1.79537e-07
-6.04227e-09
-1.74741e-07
-6.4765e-09
-1.69634e-07
-6.90153e-09
-1.64225e-07
-7.31399e-09
-1.58526e-07
-7.71036e-09
-1.52552e-07
-8.08705e-09
-1.46319e-07
-8.44036e-09
-1.39849e-07
-8.76657e-09
-1.33162e-07
-9.06197e-09
-1.26285e-07
-9.32289e-09
-1.19246e-07
-9.54572e-09
-1.12075e-07
-9.72704e-09
-1.04806e-07
-9.86353e-09
-9.74717e-08
-9.95215e-09
-9.01109e-08
-9.99009e-09
-8.27622e-08
-9.97485e-09
-7.5466e-08
-9.90426e-09
-6.82642e-08
-9.77653e-09
-6.11993e-08
-9.59027e-09
-5.43149e-08
-9.34453e-09
-4.76548e-08
-9.03879e-09
-4.12626e-08
-8.67303e-09
-3.51818e-08
-8.24773e-09
-2.94549e-08
-7.76387e-09
-2.41232e-08
-7.22304e-09
-1.92263e-08
-6.62747e-09
-1.48013e-08
-5.9802e-09
-1.08823e-08
-5.28524e-09
-7.49905e-09
-4.54793e-09
-4.67566e-09
-3.77553e-09
-2.42841e-09
-2.97819e-09
-7.62841e-10
-2.17053e-09
3.32062e-10
-1.37385e-09
8.9036e-10
-6.20875e-10
9.80811e-10
3.80343e-11
7.2194e-10
5.25448e-10
2.99975e-10
7.2297e-10
4.58666e-10
1.66575e-10
-3.84031e-10
4.07935e-10
-6.48644e-10
5.68912e-10
-5.54682e-10
5.44224e-10
-2.19804e-10
2.60666e-10
2.74387e-10
-3.28863e-10
8.66096e-10
-1.25088e-09
1.50939e-09
-2.51628e-09
2.17125e-09
-4.12427e-09
2.82842e-09
-6.06576e-09
3.46477e-09
-8.32571e-09
4.06941e-09
-1.08851e-08
4.63533e-09
-1.37224e-08
5.15829e-09
-1.68148e-08
5.6361e-09
-2.01386e-08
6.06815e-09
-2.36704e-08
6.45491e-09
-2.73871e-08
6.79766e-09
-3.12667e-08
7.09827e-09
-3.52881e-08
7.35901e-09
-3.94314e-08
7.58239e-09
-4.3678e-08
7.77109e-09
-4.8011e-08
7.92785e-09
-5.24144e-08
8.0554e-09
-5.68742e-08
8.15645e-09
-6.13772e-08
8.2336e-09
-6.59119e-08
8.28935e-09
-7.04677e-08
8.32607e-09
-7.50356e-08
8.34597e-09
-7.96074e-08
8.35112e-09
-8.41759e-08
8.34343e-09
-8.8735e-08
8.32464e-09
-9.32795e-08
8.29635e-09
-9.78046e-08
8.26e-09
-1.02307e-07
8.2169e-09
-1.06783e-07
8.16821e-09
-1.1123e-07
8.11498e-09
-1.15646e-07
8.05812e-09
-1.20029e-07
7.99845e-09
-1.24379e-07
7.93671e-09
-1.28693e-07
7.87352e-09
-1.32973e-07
7.80943e-09
-1.37217e-07
7.74494e-09
-1.41424e-07
7.68045e-09
-1.45597e-07
7.61636e-09
-1.49734e-07
7.55299e-09
-1.53836e-07
7.49061e-09
-1.57904e-07
7.42949e-09
-1.61938e-07
7.36985e-09
-1.6594e-07
7.31185e-09
-1.6991e-07
7.25569e-09
-1.73849e-07
7.20151e-09
-1.7776e-07
7.14945e-09
-1.81641e-07
7.09963e-09
-1.85496e-07
7.05214e-09
-1.89325e-07
7.00707e-09
-1.93129e-07
6.96449e-09
-1.9691e-07
6.92447e-09
-2.0067e-07
6.88705e-09
-2.04409e-07
6.85225e-09
-2.08129e-07
6.82008e-09
-2.11832e-07
6.79054e-09
-2.15519e-07
6.7636e-09
-2.19191e-07
6.73919e-09
-2.22849e-07
6.71725e-09
-2.26495e-07
6.69768e-09
-2.3013e-07
6.68035e-09
-2.33755e-07
6.66511e-09
-2.37372e-07
6.65175e-09
-2.40979e-07
6.64006e-09
-2.4458e-07
6.62976e-09
-2.48174e-07
6.62057e-09
-2.51761e-07
6.61212e-09
-2.55341e-07
6.60404e-09
-2.58915e-07
6.59586e-09
-2.62482e-07
6.5871e-09
-2.66042e-07
6.57721e-09
-2.69593e-07
6.56559e-09
-2.73134e-07
6.55158e-09
-2.76663e-07
6.53446e-09
-2.80178e-07
6.51344e-09
-2.83677e-07
6.48769e-09
-2.87156e-07
6.45631e-09
-2.90611e-07
6.41834e-09
-2.94039e-07
6.37273e-09
-2.97435e-07
6.3184e-09
-3.00793e-07
6.25421e-09
-3.04107e-07
6.17893e-09
-3.0737e-07
6.0913e-09
-3.10576e-07
5.98998e-09
-3.13715e-07
5.8736e-09
-3.16779e-07
5.74074e-09
-3.19758e-07
5.58992e-09
-3.22641e-07
5.41965e-09
-3.25418e-07
5.22842e-09
-3.28076e-07
5.01469e-09
-3.30602e-07
4.77692e-09
-3.32982e-07
4.5136e-09
-3.35202e-07
4.22322e-09
-3.37246e-07
3.90432e-09
-3.39099e-07
3.55551e-09
-3.40743e-07
3.17546e-09
-3.42162e-07
2.76295e-09
-3.43338e-07
2.31687e-09
-3.44251e-07
1.83624e-09
-3.44883e-07
1.32028e-09
-3.45216e-07
7.6837e-10
-3.45229e-07
1.80126e-10
-3.44904e-07
-4.44595e-10
-3.44221e-07
-1.10566e-09
-3.43162e-07
-1.80262e-09
-3.41707e-07
-2.53471e-09
-3.3984e-07
-3.3008e-09
-3.37542e-07
-4.09938e-09
-3.34798e-07
-4.92852e-09
-3.31594e-07
-5.78588e-09
-3.27916e-07
-6.66865e-09
-3.23752e-07
-7.57358e-09
-3.19094e-07
-8.49693e-09
-3.13935e-07
-9.43449e-09
-3.08269e-07
-1.03816e-08
-3.02095e-07
-1.1333e-08
-2.95414e-07
-1.22832e-08
-2.8823e-07
-1.32262e-08
-2.80551e-07
-1.41553e-08
-2.72389e-07
-1.50638e-08
-2.63758e-07
-1.59446e-08
-2.54678e-07
-1.67902e-08
-2.45172e-07
-1.7593e-08
-2.35267e-07
-1.83451e-08
-2.24995e-07
-1.90388e-08
-2.14391e-07
-1.96661e-08
-2.03494e-07
-2.02194e-08
-1.92349e-07
-2.06911e-08
-1.81002e-07
-2.10739e-08
-1.69505e-07
-2.1361e-08
-1.57911e-07
-2.15458e-08
-1.46279e-07
-2.16226e-08
-1.34667e-07
-2.15861e-08
-1.2314e-07
-2.14319e-08
-1.1176e-07
-2.11562e-08
-1.00594e-07
-2.07562e-08
-8.97087e-08
-2.023e-08
-7.91707e-08
-1.95768e-08
-6.90471e-08
-1.87967e-08
-5.94038e-08
-1.7891e-08
-5.03053e-08
-1.68624e-08
-4.18137e-08
-1.57146e-08
-3.39881e-08
-1.44531e-08
-2.68831e-08
-1.30852e-08
-2.05478e-08
-1.16205e-08
-1.5024e-08
-1.00718e-08
-1.03438e-08
-8.45572e-09
-6.52663e-09
-6.79532e-09
-3.57497e-09
-5.12219e-09
-1.46801e-09
-3.48081e-09
-1.53762e-10
-1.93513e-09
4.61958e-10
-5.77687e-10
5.2869e-10
4.58717e-10
2.66048e-10
9.85609e-10
7.24714e-10
1.27073e-10
-5.11106e-10
2.60704e-10
-7.8227e-10
2.38984e-10
-5.3296e-10
-4.97698e-11
6.89603e-11
-6.83939e-10
9.08555e-10
-1.7151e-09
1.89727e-09
-3.17326e-09
2.96754e-09
-5.07126e-09
4.06927e-09
-7.40882e-09
5.16598e-09
-1.01756e-08
6.23156e-09
-1.3354e-08
7.24782e-09
-1.69212e-08
8.20256e-09
-2.0851e-08
9.08807e-09
-2.5115e-08
9.90008e-09
-2.96838e-08
1.06369e-08
-3.45276e-08
1.12988e-08
-3.96172e-08
1.18873e-08
-4.49242e-08
1.24052e-08
-5.04212e-08
1.2856e-08
-5.60824e-08
1.32436e-08
-6.18835e-08
1.35722e-08
-6.7802e-08
1.38464e-08
-7.38171e-08
1.40705e-08
-7.99096e-08
1.4249e-08
-8.60622e-08
1.43862e-08
-9.22593e-08
1.44864e-08
-9.84867e-08
1.45534e-08
-1.04732e-07
1.45911e-08
-1.10984e-07
1.46029e-08
-1.17232e-07
1.4592e-08
-1.23469e-07
1.45615e-08
-1.29687e-07
1.45141e-08
-1.35879e-07
1.44523e-08
-1.4204e-07
1.43782e-08
-1.48166e-07
1.4294e-08
-1.54253e-07
1.42015e-08
-1.60297e-07
1.41023e-08
-1.66296e-07
1.39978e-08
-1.72249e-07
1.38893e-08
-1.78153e-07
1.37779e-08
-1.84008e-07
1.36646e-08
-1.89814e-07
1.35503e-08
-1.95569e-07
1.34357e-08
-2.01274e-07
1.33215e-08
-2.06929e-07
1.32084e-08
-2.12536e-07
1.30968e-08
-2.18093e-07
1.29871e-08
-2.23603e-07
1.28799e-08
-2.29067e-07
1.27753e-08
-2.34485e-07
1.26739e-08
-2.39859e-07
1.25757e-08
-2.45191e-07
1.24811e-08
-2.50481e-07
1.23903e-08
-2.55733e-07
1.23034e-08
-2.60946e-07
1.22206e-08
-2.66124e-07
1.21421e-08
-2.71267e-07
1.20679e-08
-2.76378e-07
1.19981e-08
-2.81459e-07
1.19328e-08
-2.86511e-07
1.18719e-08
-2.91536e-07
1.18155e-08
-2.96536e-07
1.17636e-08
-3.01512e-07
1.17159e-08
-3.06467e-07
1.16723e-08
-3.11402e-07
1.16328e-08
-3.16319e-07
1.1597e-08
-3.21219e-07
1.15646e-08
-3.26102e-07
1.15354e-08
-3.30971e-07
1.1509e-08
-3.35826e-07
1.14847e-08
-3.40668e-07
1.14622e-08
-3.45496e-07
1.14408e-08
-3.50312e-07
1.14198e-08
-3.55115e-07
1.13984e-08
-3.59903e-07
1.13758e-08
-3.64677e-07
1.13511e-08
-3.69435e-07
1.13231e-08
-3.74174e-07
1.12907e-08
-3.78892e-07
1.12527e-08
-3.83586e-07
1.12078e-08
-3.88253e-07
1.11544e-08
-3.92888e-07
1.1091e-08
-3.97486e-07
1.1016e-08
-4.0204e-07
1.09276e-08
-4.06546e-07
1.08239e-08
-4.10995e-07
1.0703e-08
-4.15379e-07
1.05627e-08
-4.19688e-07
1.04009e-08
-4.23913e-07
1.02153e-08
-4.28043e-07
1.00036e-08
-4.32066e-07
9.76333e-09
-4.35968e-07
9.49203e-09
-4.39736e-07
9.18717e-09
-4.43353e-07
8.84617e-09
-4.46805e-07
8.46645e-09
-4.50074e-07
8.04543e-09
-4.53141e-07
7.58056e-09
-4.55987e-07
7.06932e-09
-4.58592e-07
6.50929e-09
-4.60934e-07
5.89815e-09
-4.62993e-07
5.2337e-09
-4.64744e-07
4.51392e-09
-4.66164e-07
3.73702e-09
-4.67229e-07
2.90143e-09
-4.67915e-07
2.0059e-09
-4.68196e-07
1.04947e-09
-4.68047e-07
3.15978e-11
-4.67444e-07
-1.04786e-09
-4.66361e-07
-2.18855e-09
-4.64774e-07
-3.38963e-09
-4.62659e-07
-4.64966e-09
-4.59993e-07
-5.96664e-09
-4.56755e-07
-7.33787e-09
-4.52923e-07
-8.75999e-09
-4.4848e-07
-1.02289e-08
-4.43409e-07
-1.17398e-08
-4.37695e-07
-1.32871e-08
-4.31328e-07
-1.48643e-08
-4.24298e-07
-1.64643e-08
-4.16601e-07
-1.80791e-08
-4.08234e-07
-1.96999e-08
-3.992e-07
-2.13171e-08
-3.89506e-07
-2.29205e-08
-3.79162e-07
-2.44993e-08
-3.68184e-07
-2.60418e-08
-3.56592e-07
-2.7536e-08
-3.44413e-07
-2.89694e-08
-3.31677e-07
-3.03291e-08
-3.1842e-07
-3.1602e-08
-3.04684e-07
-3.2775e-08
-2.90515e-07
-3.38349e-08
-2.75966e-07
-3.47688e-08
-2.61093e-07
-3.55639e-08
-2.45959e-07
-3.62082e-08
-2.30629e-07
-3.66901e-08
-2.15176e-07
-3.6999e-08
-1.99674e-07
-3.71249e-08
-1.84201e-07
-3.70593e-08
-1.68838e-07
-3.67948e-08
-1.53669e-07
-3.63251e-08
-1.38779e-07
-3.56459e-08
-1.24255e-07
-3.47542e-08
-1.10183e-07
-3.36487e-08
-9.66497e-08
-3.23301e-08
-8.37397e-08
-3.08011e-08
-7.15355e-08
-2.90665e-08
-6.01164e-08
-2.71337e-08
-4.95568e-08
-2.50127e-08
-3.99251e-08
-2.27169e-08
-3.12818e-08
-2.02638e-08
-2.36775e-08
-1.76761e-08
-1.71499e-08
-1.49834e-08
-1.17201e-08
-1.22251e-08
-7.3884e-09
-9.45384e-09
-4.12821e-09
-6.74099e-09
-1.87851e-09
-4.18483e-09
-5.34891e-10
-1.92131e-09
6.08352e-11
-1.37012e-10
1.32902e-10
9.13541e-10
8.57614e-10
5.83761e-11
-5.69487e-10
2.10826e-11
-7.44978e-10
-2.62896e-10
-2.48992e-10
-9.01558e-10
7.07615e-10
-1.97142e-09
1.97842e-09
-3.52333e-09
3.44916e-09
-5.58696e-09
5.03117e-09
-8.17484e-09
6.65715e-09
-1.12858e-08
8.27694e-09
-1.4908e-08
9.85374e-09
-1.90214e-08
1.13612e-08
-2.36001e-08
1.27813e-08
-2.86142e-08
1.41021e-08
-3.40308e-08
1.53167e-08
-3.98158e-08
1.64219e-08
-4.59345e-08
1.74175e-08
-5.23524e-08
1.83052e-08
-5.90358e-08
1.90887e-08
-6.59523e-08
1.97724e-08
-7.30708e-08
2.03621e-08
-8.03621e-08
2.08635e-08
-8.77989e-08
2.12832e-08
-9.53559e-08
2.16275e-08
-1.0301e-07
2.19028e-08
-1.10739e-07
2.21156e-08
-1.18525e-07
2.2272e-08
-1.26349e-07
2.23777e-08
-1.34196e-07
2.24385e-08
-1.42053e-07
2.24594e-08
-1.49906e-07
2.24453e-08
-1.57745e-07
2.24008e-08
-1.65561e-07
2.23299e-08
-1.73345e-07
2.22364e-08
-1.81091e-07
2.21238e-08
-1.88792e-07
2.1995e-08
-1.96443e-07
2.1853e-08
-2.04041e-07
2.17001e-08
-2.11582e-07
2.15387e-08
-2.19063e-07
2.13705e-08
-2.26483e-07
2.11975e-08
-2.3384e-07
2.10212e-08
-2.41132e-07
2.08429e-08
-2.4836e-07
2.06638e-08
-2.55524e-07
2.0485e-08
-2.62623e-07
2.03074e-08
-2.69658e-07
2.01318e-08
-2.7663e-07
1.9959e-08
-2.8354e-07
1.97896e-08
-2.90388e-07
1.96242e-08
-2.97178e-07
1.94632e-08
-3.03909e-07
1.93071e-08
-3.10585e-07
1.91563e-08
-3.17205e-07
1.90111e-08
-3.23774e-07
1.88719e-08
-3.30292e-07
1.87387e-08
-3.36762e-07
1.86119e-08
-3.43186e-07
1.84916e-08
-3.49565e-07
1.83779e-08
-3.55904e-07
1.82709e-08
-3.62202e-07
1.81706e-08
-3.68464e-07
1.8077e-08
-3.7469e-07
1.79899e-08
-3.80884e-07
1.79093e-08
-3.87046e-07
1.78348e-08
-3.9318e-07
1.77663e-08
-3.99286e-07
1.77033e-08
-4.05367e-07
1.76454e-08
-4.11423e-07
1.7592e-08
-4.17457e-07
1.75426e-08
-4.23468e-07
1.74964e-08
-4.29459e-07
1.74525e-08
-4.35428e-07
1.74101e-08
-4.41376e-07
1.7368e-08
-4.47303e-07
1.73251e-08
-4.53207e-07
1.72801e-08
-4.59087e-07
1.72314e-08
-4.64942e-07
1.71775e-08
-4.70768e-07
1.71167e-08
-4.76562e-07
1.70469e-08
-4.82321e-07
1.69663e-08
-4.88039e-07
1.68725e-08
-4.93711e-07
1.67633e-08
-4.99331e-07
1.66361e-08
-5.04892e-07
1.64881e-08
-5.10384e-07
1.63167e-08
-5.158e-07
1.61187e-08
-5.21129e-07
1.58912e-08
-5.26358e-07
1.56307e-08
-5.31477e-07
1.53339e-08
-5.36471e-07
1.49973e-08
-5.41325e-07
1.46173e-08
-5.46023e-07
1.419e-08
-5.50547e-07
1.37119e-08
-5.5488e-07
1.3179e-08
-5.59001e-07
1.25875e-08
-5.62889e-07
1.19336e-08
-5.66522e-07
1.12135e-08
-5.69876e-07
1.04235e-08
-5.72927e-07
9.55998e-09
-5.75649e-07
8.61963e-09
-5.78014e-07
7.59923e-09
-5.79996e-07
6.49584e-09
-5.81566e-07
5.30687e-09
-5.82695e-07
4.0301e-09
-5.83352e-07
2.66376e-09
-5.8351e-07
1.20658e-09
-5.83136e-07
-3.42154e-10
-5.82201e-07
-1.98249e-09
-5.80676e-07
-3.71377e-09
-5.78531e-07
-5.53458e-09
-5.75738e-07
-7.44265e-09
-5.7227e-07
-9.4348e-09
-5.68101e-07
-1.15069e-08
-5.63207e-07
-1.36538e-08
-5.57567e-07
-1.58692e-08
-5.51161e-07
-1.81459e-08
-5.43973e-07
-2.04753e-08
-5.35989e-07
-2.28478e-08
-5.27201e-07
-2.52525e-08
-5.17602e-07
-2.76776e-08
-5.07192e-07
-3.01098e-08
-4.95974e-07
-3.2535e-08
-4.83957e-07
-3.49378e-08
-4.71154e-07
-3.7302e-08
-4.57586e-07
-3.96104e-08
-4.43277e-07
-4.18452e-08
-4.28258e-07
-4.39876e-08
-4.12569e-07
-4.60187e-08
-3.96252e-07
-4.79191e-08
-3.79357e-07
-4.96693e-08
-3.61942e-07
-5.12499e-08
-3.4407e-07
-5.26416e-08
-3.25808e-07
-5.38257e-08
-3.07231e-07
-5.47845e-08
-2.88421e-07
-5.55007e-08
-2.69461e-07
-5.59587e-08
-2.50442e-07
-5.61441e-08
-2.31457e-07
-5.60442e-08
-2.12604e-07
-5.5648e-08
-1.93982e-07
-5.49468e-08
-1.75694e-07
-5.3934e-08
-1.57843e-07
-5.26057e-08
-1.40531e-07
-5.09603e-08
-1.23862e-07
-4.89993e-08
-1.07936e-07
-4.67273e-08
-9.28498e-08
-4.41522e-08
-7.86978e-08
-4.12858e-08
-6.55665e-08
-3.8144e-08
-5.35355e-08
-3.47479e-08
-4.26744e-08
-3.11248e-08
-3.30409e-08
-2.73096e-08
-2.46773e-08
-2.3347e-08
-1.76072e-08
-1.92952e-08
-1.18312e-08
-1.52299e-08
-7.32144e-09
-1.12507e-08
-4.01603e-09
-7.49024e-09
-1.81194e-09
-4.12539e-09
-5.58023e-10
-1.39093e-09
-4.69311e-11
4.02448e-10
8.10685e-10
-2.60503e-11
-5.43442e-10
-2.75057e-10
-4.95975e-10
-8.77065e-10
3.53023e-10
-1.92857e-09
1.75912e-09
-3.49864e-09
3.54847e-09
-5.6331e-09
5.58364e-09
-8.35822e-09
7.75629e-09
-1.16839e-08
9.9828e-09
-1.56065e-08
1.21996e-08
-2.0112e-08
1.43592e-08
-2.51776e-08
1.64269e-08
-3.07745e-08
1.83782e-08
-3.68694e-08
2.01969e-08
-4.34258e-08
2.18731e-08
-5.04056e-08
2.34017e-08
-5.77699e-08
2.47817e-08
-6.54798e-08
2.60151e-08
-7.34972e-08
2.71061e-08
-8.17851e-08
2.80604e-08
-9.03084e-08
2.88853e-08
-9.90334e-08
2.95885e-08
-1.07929e-07
3.01785e-08
-1.16965e-07
3.06638e-08
-1.26115e-07
3.10531e-08
-1.35355e-07
3.1355e-08
-1.44661e-07
3.15778e-08
-1.54012e-07
3.17295e-08
-1.63392e-07
3.18177e-08
-1.72782e-07
3.18495e-08
-1.82168e-07
3.18317e-08
-1.91538e-07
3.17705e-08
-2.00879e-07
3.16715e-08
-2.10183e-07
3.15401e-08
-2.1944e-07
3.1381e-08
-2.28644e-07
3.11985e-08
-2.37787e-07
3.09966e-08
-2.46866e-07
3.07788e-08
-2.55875e-07
3.05482e-08
-2.64813e-07
3.03076e-08
-2.73674e-07
3.00595e-08
-2.82459e-07
2.98061e-08
-2.91166e-07
2.95494e-08
-2.99793e-07
2.92912e-08
-3.08341e-07
2.90329e-08
-3.1681e-07
2.87759e-08
-3.25199e-07
2.85214e-08
-3.33511e-07
2.82704e-08
-3.41745e-07
2.8024e-08
-3.49904e-07
2.77828e-08
-3.57988e-07
2.75477e-08
-3.66e-07
2.73192e-08
-3.73942e-07
2.7098e-08
-3.81815e-07
2.68845e-08
-3.89623e-07
2.66792e-08
-3.97366e-07
2.64823e-08
-4.05049e-07
2.62942e-08
-4.12672e-07
2.61151e-08
-4.20239e-07
2.59452e-08
-4.27753e-07
2.57845e-08
-4.35215e-07
2.56331e-08
-4.42629e-07
2.54909e-08
-4.49997e-07
2.53577e-08
-4.57321e-07
2.52334e-08
-4.64604e-07
2.51176e-08
-4.71847e-07
2.50099e-08
-4.79054e-07
2.49098e-08
-4.86225e-07
2.48166e-08
-4.93363e-07
2.47296e-08
-5.00468e-07
2.46478e-08
-5.07542e-07
2.45702e-08
-5.14585e-07
2.44957e-08
-5.21598e-07
2.44229e-08
-5.2858e-07
2.43502e-08
-5.35531e-07
2.4276e-08
-5.42449e-07
2.41985e-08
-5.49333e-07
2.41155e-08
-5.56181e-07
2.40248e-08
-5.62988e-07
2.39239e-08
-5.69751e-07
2.38102e-08
-5.76466e-07
2.36808e-08
-5.83126e-07
2.35327e-08
-5.89725e-07
2.33624e-08
-5.96255e-07
2.31666e-08
-6.02709e-07
2.29414e-08
-6.09075e-07
2.26829e-08
-6.15343e-07
2.2387e-08
-6.21501e-07
2.20493e-08
-6.27536e-07
2.16652e-08
-6.33432e-07
2.12301e-08
-6.39174e-07
2.07392e-08
-6.44744e-07
2.01873e-08
-6.50123e-07
1.95694e-08
-6.55291e-07
1.88802e-08
-6.60227e-07
1.81146e-08
-6.64907e-07
1.72673e-08
-6.69306e-07
1.6333e-08
-6.734e-07
1.53066e-08
-6.77159e-07
1.41831e-08
-6.80557e-07
1.29575e-08
-6.83563e-07
1.16254e-08
-6.86146e-07
1.01823e-08
-6.88274e-07
8.62448e-09
-6.89916e-07
6.94834e-09
-6.91037e-07
5.151e-09
-6.91603e-07
3.23017e-09
-6.91581e-07
1.18424e-09
-6.90935e-07
-9.87581e-10
-6.89633e-07
-3.2852e-09
-6.87639e-07
-5.70755e-09
-6.84921e-07
-8.25249e-09
-6.81447e-07
-1.09167e-08
-6.77186e-07
-1.36957e-08
-6.72109e-07
-1.65835e-08
-6.6619e-07
-1.9573e-08
-6.59404e-07
-2.26553e-08
-6.5173e-07
-2.58202e-08
-6.43149e-07
-2.9056e-08
-6.33648e-07
-3.23492e-08
-6.23215e-07
-3.56848e-08
-6.11847e-07
-3.90464e-08
-5.99541e-07
-4.24157e-08
-5.86302e-07
-4.57732e-08
-5.72142e-07
-4.90979e-08
-5.57077e-07
-5.23673e-08
-5.4113e-07
-5.5558e-08
-5.24329e-07
-5.86453e-08
-5.06713e-07
-6.16039e-08
-4.88324e-07
-6.44076e-08
-4.69214e-07
-6.70298e-08
-4.49439e-07
-6.9444e-08
-4.29065e-07
-7.16235e-08
-4.08165e-07
-7.35421e-08
-3.86816e-07
-7.51743e-08
-3.65105e-07
-7.64957e-08
-3.43123e-07
-7.7483e-08
-3.20967e-07
-7.81147e-08
-2.9874e-07
-7.83712e-08
-2.76549e-07
-7.82353e-08
-2.54504e-07
-7.76922e-08
-2.32721e-07
-7.67302e-08
-2.11315e-07
-7.53404e-08
-1.90402e-07
-7.35177e-08
-1.70102e-07
-7.12607e-08
-1.5053e-07
-6.85717e-08
-1.31799e-07
-6.54578e-08
-1.14021e-07
-6.19306e-08
-9.72992e-08
-5.80072e-08
-8.17326e-08
-5.37106e-08
-6.74098e-08
-4.90708e-08
-5.44084e-08
-4.41262e-08
-4.27926e-08
-3.89254e-08
-3.26096e-08
-3.35299e-08
-2.38871e-08
-2.80177e-08
-1.66288e-08
-2.24882e-08
-1.08106e-08
-1.70689e-08
-6.37635e-09
-1.19245e-08
-3.23334e-09
-7.26841e-09
-1.24845e-09
-3.37582e-09
-2.45129e-10
-6.00876e-10
5.65557e-10
-1.18615e-10
-4.24816e-10
-6.04501e-10
-1.0097e-11
-1.56181e-09
1.31033e-09
-3.07057e-09
3.26788e-09
-5.18821e-09
5.66611e-09
-7.95223e-09
8.34765e-09
-1.13827e-08
1.11868e-08
-1.54848e-08
1.40849e-08
-2.02511e-08
1.69659e-08
-2.56641e-08
1.97721e-08
-3.16979e-08
2.24607e-08
-3.83205e-08
2.50009e-08
-4.54953e-08
2.73718e-08
-5.31826e-08
2.95603e-08
-6.13406e-08
3.15597e-08
-6.99267e-08
3.33679e-08
-7.88984e-08
3.49868e-08
-8.82137e-08
3.64214e-08
-9.7832e-08
3.76787e-08
-1.07714e-07
3.87673e-08
-1.17823e-07
3.96972e-08
-1.28123e-07
4.04787e-08
-1.38582e-07
4.11228e-08
-1.49169e-07
4.16406e-08
-1.59857e-07
4.2043e-08
-1.7062e-07
4.23406e-08
-1.81435e-07
4.25439e-08
-1.92279e-07
4.26626e-08
-2.03136e-07
4.27061e-08
-2.13987e-07
4.26831e-08
-2.24819e-07
4.26017e-08
-2.35617e-07
4.24695e-08
-2.4637e-07
4.22933e-08
-2.57068e-07
4.20795e-08
-2.67704e-07
4.18338e-08
-2.78269e-07
4.15615e-08
-2.88757e-07
4.12671e-08
-2.99164e-07
4.09549e-08
-3.09485e-07
4.06287e-08
-3.19717e-07
4.02918e-08
-3.29858e-07
3.99472e-08
-3.39906e-07
3.95976e-08
-3.4986e-07
3.92452e-08
-3.5972e-07
3.88923e-08
-3.69485e-07
3.85406e-08
-3.79155e-07
3.81918e-08
-3.88732e-07
3.78474e-08
-3.98217e-07
3.75085e-08
-4.0761e-07
3.71764e-08
-4.16915e-07
3.68521e-08
-4.26132e-07
3.65363e-08
-4.35264e-07
3.623e-08
-4.44313e-07
3.59336e-08
-4.53281e-07
3.5648e-08
-4.62173e-07
3.53734e-08
-4.70989e-07
3.51103e-08
-4.79733e-07
3.4859e-08
-4.88407e-07
3.46198e-08
-4.97015e-07
3.43926e-08
-5.0556e-07
3.41776e-08
-5.14044e-07
3.39747e-08
-5.2247e-07
3.37836e-08
-5.3084e-07
3.36041e-08
-5.39158e-07
3.34356e-08
-5.47426e-07
3.32777e-08
-5.55646e-07
3.31296e-08
-5.6382e-07
3.29904e-08
-5.71949e-07
3.28591e-08
-5.80036e-07
3.27345e-08
-5.88081e-07
3.26152e-08
-5.96085e-07
3.24996e-08
-6.04048e-07
3.23858e-08
-6.11969e-07
3.22719e-08
-6.19849e-07
3.21555e-08
-6.27685e-07
3.20343e-08
-6.35475e-07
3.19054e-08
-6.43216e-07
3.17659e-08
-6.50904e-07
3.16125e-08
-6.58536e-07
3.14416e-08
-6.66104e-07
3.12495e-08
-6.73604e-07
3.1032e-08
-6.81026e-07
3.07848e-08
-6.88363e-07
3.05033e-08
-6.95604e-07
3.01825e-08
-7.02739e-07
2.98173e-08
-7.09754e-07
2.94021e-08
-7.16636e-07
2.89313e-08
-7.23369e-07
2.83989e-08
-7.29938e-07
2.77987e-08
-7.36323e-07
2.71245e-08
-7.42506e-07
2.63695e-08
-7.48463e-07
2.55273e-08
-7.54174e-07
2.4591e-08
-7.59613e-07
2.35537e-08
-7.64755e-07
2.24088e-08
-7.69571e-07
2.11493e-08
-7.74033e-07
1.97686e-08
-7.7811e-07
1.82603e-08
-7.81771e-07
1.66181e-08
-7.84982e-07
1.48362e-08
-7.87708e-07
1.29089e-08
-7.89915e-07
1.08314e-08
-7.91566e-07
8.59924e-09
-7.92624e-07
6.20883e-09
-7.93051e-07
3.65732e-09
-7.92809e-07
9.42813e-10
-7.91861e-07
-1.93555e-09
-7.90169e-07
-4.97746e-09
-7.87695e-07
-8.18132e-09
-7.84404e-07
-1.15441e-08
-7.80259e-07
-1.50614e-08
-7.75228e-07
-1.8727e-08
-7.69278e-07
-2.25332e-08
-7.62381e-07
-2.64701e-08
-7.5451e-07
-3.05264e-08
-7.45641e-07
-3.46886e-08
-7.35756e-07
-3.8941e-08
-7.2484e-07
-4.32661e-08
-7.1288e-07
-4.76445e-08
-6.99872e-07
-5.20543e-08
-6.85816e-07
-5.64721e-08
-6.70717e-07
-6.08722e-08
-6.54587e-07
-6.52273e-08
-6.37446e-07
-6.95083e-08
-6.1932e-07
-7.36846e-08
-6.00241e-07
-7.77243e-08
-5.8025e-07
-8.15945e-08
-5.59396e-07
-8.52611e-08
-5.37736e-07
-8.869e-08
-5.15334e-07
-9.18464e-08
-4.92261e-07
-9.4696e-08
-4.68598e-07
-9.72049e-08
-4.44433e-07
-9.93399e-08
-4.19859e-07
-1.01069e-07
-3.94979e-07
-1.02363e-07
-3.699e-07
-1.03194e-07
-3.44735e-07
-1.03536e-07
-3.19603e-07
-1.03367e-07
-2.94627e-07
-1.02668e-07
-2.69933e-07
-1.01425e-07
-2.45648e-07
-9.96248e-08
-2.21903e-07
-9.72626e-08
-1.98828e-07
-9.43365e-08
-1.76549e-07
-9.08503e-08
-1.55193e-07
-8.68137e-08
-1.34881e-07
-8.22427e-08
-1.15728e-07
-7.71602e-08
-9.78415e-08
-7.15971e-08
-8.13189e-08
-6.55934e-08
-6.62455e-08
-5.91996e-08
-5.26922e-08
-5.24787e-08
-4.07124e-08
-4.55098e-08
-3.03394e-08
-3.83907e-08
-2.15834e-08
-3.12443e-08
-1.44281e-08
-2.42241e-08
-8.82871e-09
-1.75239e-08
-4.70898e-09
-1.13881e-08
-1.96102e-09
-6.12378e-09
-4.46215e-10
-2.11568e-09
1.1934e-10
-2.15098e-10
-2.09724e-10
-9.52033e-10
7.26842e-10
-2.28843e-09
2.64671e-09
-4.28447e-09
5.26393e-09
-6.98319e-09
8.36482e-09
-1.04111e-08
1.17756e-08
-1.458e-08
1.53557e-08
-1.94885e-08
1.89934e-08
-2.51239e-08
2.26013e-08
-3.14642e-08
2.61124e-08
-3.84798e-08
2.94762e-08
-4.61349e-08
3.2656e-08
-5.43897e-08
3.56265e-08
-6.32009e-08
3.83715e-08
-7.25235e-08
4.08823e-08
-8.23117e-08
4.31561e-08
-9.25195e-08
4.51946e-08
-1.03102e-07
4.70035e-08
-1.14014e-07
4.8591e-08
-1.25214e-07
4.99674e-08
-1.36662e-07
5.11447e-08
-1.48318e-07
5.21354e-08
-1.60148e-07
5.2953e-08
-1.72119e-07
5.36109e-08
-1.84198e-07
5.41226e-08
-1.96359e-07
5.45014e-08
-2.08575e-07
5.476e-08
-2.20823e-07
5.49107e-08
-2.33082e-07
5.49652e-08
-2.45334e-07
5.49344e-08
-2.5756e-07
5.48285e-08
-2.69748e-07
5.4657e-08
-2.81883e-07
5.44286e-08
-2.93955e-07
5.41513e-08
-3.05954e-07
5.38323e-08
-3.17871e-07
5.34784e-08
-3.29699e-07
5.30955e-08
-3.41433e-07
5.2689e-08
-3.53068e-07
5.22636e-08
-3.646e-07
5.18239e-08
-3.76026e-07
5.13735e-08
-3.87345e-07
5.09159e-08
-3.98554e-07
5.04543e-08
-4.09653e-07
4.99913e-08
-4.20641e-07
4.95293e-08
-4.3152e-07
4.90706e-08
-4.42289e-07
4.86168e-08
-4.52951e-07
4.81699e-08
-4.63506e-07
4.77312e-08
-4.73956e-07
4.7302e-08
-4.84303e-07
4.68836e-08
-4.9455e-07
4.64769e-08