/*--------------------------------*- C++ -*----------------------------------*\
  =========                 |
  \\      /  F ield         | OpenFOAM: The Open Source CFD Toolbox
   \\    /   O peration     | Website:  https://openfoam.org
    \\  /    A nd           | Version:  7
     \\/     M anipulation  |
\*---------------------------------------------------------------------------*/
FoamFile
{
    version     2.0;
    format      ascii;
    class       volVectorField;
    location    "0.1125";
    object      U;
}
// * * * * * * * * * * * * * * * * * * * * * * * * * * * * * * * * * * * * * //

dimensions      [0 1 -1 0 0 0 0];

internalField   nonuniform List<vector> 
12800
(
(4.45711e-06 -4.45387e-06 0)
(2.14591e-05 -1.07571e-05 0)
(4.74486e-05 -1.19897e-05 0)
(7.10719e-05 -1.00948e-05 0)
(8.55274e-05 -6.5005e-06 0)
(8.77199e-05 -2.09926e-06 0)
(7.61131e-05 2.5973e-06 0)
(5.01627e-05 7.2691e-06 0)
(9.99471e-06 1.17576e-05 0)
(-4.38428e-05 1.59614e-05 0)
(-0.000110591 1.98396e-05 0)
(-0.000189318 2.33772e-05 0)
(-0.000279039 2.65642e-05 0)
(-0.000378739 2.94074e-05 0)
(-0.000487396 3.19216e-05 0)
(-0.000604026 3.41196e-05 0)
(-0.00072768 3.60236e-05 0)
(-0.000857459 3.76616e-05 0)
(-0.000992523 3.90512e-05 0)
(-0.0011321 4.0213e-05 0)
(-0.00127545 4.11728e-05 0)
(-0.00142194 4.19466e-05 0)
(-0.00157097 4.25491e-05 0)
(-0.001722 4.30026e-05 0)
(-0.00187455 4.33268e-05 0)
(-0.00202819 4.35363e-05 0)
(-0.00218256 4.36474e-05 0)
(-0.00233731 4.36765e-05 0)
(-0.00249217 4.36341e-05 0)
(-0.00264689 4.35284e-05 0)
(-0.00280125 4.33702e-05 0)
(-0.00295508 4.3171e-05 0)
(-0.00310822 4.29379e-05 0)
(-0.00326056 4.26765e-05 0)
(-0.00341198 4.23935e-05 0)
(-0.00356242 4.20944e-05 0)
(-0.0037118 4.17831e-05 0)
(-0.00386009 4.14642e-05 0)
(-0.00400725 4.11429e-05 0)
(-0.00415325 4.08217e-05 0)
(-0.00429809 4.0501e-05 0)
(-0.00444177 4.01817e-05 0)
(-0.00458429 3.98676e-05 0)
(-0.00472566 3.95617e-05 0)
(-0.0048659 3.9265e-05 0)
(-0.00500504 3.89772e-05 0)
(-0.0051431 3.8699e-05 0)
(-0.00528012 3.8432e-05 0)
(-0.00541612 3.81767e-05 0)
(-0.00555114 3.7933e-05 0)
(-0.00568524 3.77014e-05 0)
(-0.00581843 3.74833e-05 0)
(-0.00595078 3.72798e-05 0)
(-0.00608233 3.7091e-05 0)
(-0.00621312 3.69164e-05 0)
(-0.0063432 3.67568e-05 0)
(-0.00647263 3.66132e-05 0)
(-0.00660145 3.64856e-05 0)
(-0.00672973 3.63737e-05 0)
(-0.0068575 3.62775e-05 0)
(-0.00698483 3.61975e-05 0)
(-0.00711176 3.61342e-05 0)
(-0.00723835 3.60871e-05 0)
(-0.00736465 3.60549e-05 0)
(-0.00749071 3.60367e-05 0)
(-0.00761657 3.60327e-05 0)
(-0.00774229 3.60431e-05 0)
(-0.00786789 3.60673e-05 0)
(-0.00799343 3.61038e-05 0)
(-0.00811894 3.6151e-05 0)
(-0.00824444 3.62075e-05 0)
(-0.00836996 3.62719e-05 0)
(-0.00849552 3.63424e-05 0)
(-0.00862113 3.64161e-05 0)
(-0.00874678 3.64906e-05 0)
(-0.00887248 3.65633e-05 0)
(-0.00899819 3.66315e-05 0)
(-0.00912388 3.66913e-05 0)
(-0.00924952 3.6738e-05 0)
(-0.00937505 3.6767e-05 0)
(-0.00950038 3.67739e-05 0)
(-0.00962543 3.67544e-05 0)
(-0.00975009 3.67034e-05 0)
(-0.00987423 3.6615e-05 0)
(-0.00999771 3.64824e-05 0)
(-0.0101203 3.62988e-05 0)
(-0.010242 3.60574e-05 0)
(-0.0103623 3.57514e-05 0)
(-0.0104812 3.53733e-05 0)
(-0.0105983 3.49144e-05 0)
(-0.0107134 3.43659e-05 0)
(-0.0108261 3.37188e-05 0)
(-0.010936 3.29643e-05 0)
(-0.0110428 3.20932e-05 0)
(-0.0111461 3.10959e-05 0)
(-0.0112454 2.99626e-05 0)
(-0.0113403 2.86832e-05 0)
(-0.0114301 2.72476e-05 0)
(-0.0115145 2.56462e-05 0)
(-0.0115927 2.38699e-05 0)
(-0.0116643 2.191e-05 0)
(-0.0117285 1.9758e-05 0)
(-0.0117847 1.74057e-05 0)
(-0.0118323 1.48453e-05 0)
(-0.0118706 1.20702e-05 0)
(-0.0118988 9.07507e-06 0)
(-0.0119162 5.85575e-06 0)
(-0.0119221 2.40926e-06 0)
(-0.0119157 -1.26601e-06 0)
(-0.0118963 -5.16938e-06 0)
(-0.0118631 -9.2983e-06 0)
(-0.0118155 -1.36481e-05 0)
(-0.0117528 -1.82119e-05 0)
(-0.0116742 -2.29803e-05 0)
(-0.0115793 -2.79408e-05 0)
(-0.0114673 -3.30786e-05 0)
(-0.0113378 -3.83752e-05 0)
(-0.0111903 -4.38096e-05 0)
(-0.0110245 -4.93575e-05 0)
(-0.01084 -5.49914e-05 0)
(-0.0106368 -6.06808e-05 0)
(-0.0104146 -6.63917e-05 0)
(-0.0101736 -7.20871e-05 0)
(-0.00991382 -7.77272e-05 0)
(-0.00963567 -8.32695e-05 0)
(-0.00933955 -8.86689e-05 0)
(-0.00902605 -9.38784e-05 0)
(-0.0086959 -9.88495e-05 0)
(-0.00835002 -0.000103532 0)
(-0.00798945 -0.000107876 0)
(-0.00761542 -0.00011183 0)
(-0.00722932 -0.000115344 0)
(-0.00683269 -0.00011837 0)
(-0.00642723 -0.000120859 0)
(-0.00601478 -0.000122767 0)
(-0.00559733 -0.00012405 0)
(-0.00517699 -0.000124669 0)
(-0.004756 -0.000124589 0)
(-0.00433668 -0.000123777 0)
(-0.00392148 -0.000122209 0)
(-0.00351288 -0.000119864 0)
(-0.00311342 -0.000116726 0)
(-0.00272571 -0.000112782 0)
(-0.00235234 -0.000108028 0)
(-0.00199591 -0.000102463 0)
(-0.00165901 -9.60931e-05 0)
(-0.00134418 -8.89261e-05 0)
(-0.00105388 -8.09744e-05 0)
(-0.000790503 -7.22564e-05 0)
(-0.000556322 -6.27975e-05 0)
(-0.000353447 -5.26289e-05 0)
(-0.000183779 -4.1795e-05 0)
(-4.88868e-05 -3.03749e-05 0)
(5.00012e-05 -1.85334e-05 0)
(0.000112407 -6.46058e-06 0)
(0.000139031 5.32477e-06 0)
(0.000132255 1.58665e-05 0)
(9.77943e-05 2.32669e-05 0)
(4.9368e-05 2.38142e-05 0)
(1.206e-05 1.20648e-05 0)
(1.12481e-05 -2.15983e-05 0)
(4.42446e-05 -4.35562e-05 0)
(8.68937e-05 -4.47839e-05 0)
(0.000118838 -3.25096e-05 0)
(0.000127225 -1.20335e-05 0)
(0.000105032 1.30048e-05 0)
(4.81834e-05 4.01481e-05 0)
(-4.52071e-05 6.77938e-05 0)
(-0.000175404 9.49139e-05 0)
(-0.000341572 0.000120852 0)
(-0.000542111 0.000145214 0)
(-0.000774984 0.000167774 0)
(-0.00103784 0.000188408 0)
(-0.00132816 0.000207087 0)
(-0.00164339 0.000223822 0)
(-0.00198098 0.000238668 0)
(-0.00233843 0.000251712 0)
(-0.00271337 0.000263054 0)
(-0.00310351 0.000272803 0)
(-0.00350674 0.000281078 0)
(-0.00392107 0.000288002 0)
(-0.00434468 0.000293688 0)
(-0.0047759 0.000298254 0)
(-0.00521321 0.000301813 0)
(-0.00565525 0.000304471 0)
(-0.00610079 0.000306329 0)
(-0.00654874 0.000307485 0)
(-0.00699813 0.000308027 0)
(-0.00744811 0.000308034 0)
(-0.00789795 0.000307581 0)
(-0.008347 0.000306735 0)
(-0.00879473 0.000305557 0)
(-0.00924065 0.000304101 0)
(-0.0096844 0.000302418 0)
(-0.0101256 0.000300551 0)
(-0.0105641 0.000298538 0)
(-0.0109996 0.000296409 0)
(-0.0114319 0.000294198 0)
(-0.0118609 0.00029193 0)
(-0.0122866 0.000289628 0)
(-0.0127089 0.00028731 0)
(-0.0131277 0.00028499 0)
(-0.0135431 0.000282686 0)
(-0.0139551 0.000280411 0)
(-0.0143636 0.000278174 0)
(-0.0147688 0.000275985 0)
(-0.0151707 0.000273853 0)
(-0.0155695 0.000271784 0)
(-0.0159651 0.000269785 0)
(-0.0163576 0.000267861 0)
(-0.0167473 0.000266017 0)
(-0.0171342 0.000264258 0)
(-0.0175184 0.000262588 0)
(-0.0179 0.00026101 0)
(-0.0182793 0.000259526 0)
(-0.0186562 0.000258141 0)
(-0.019031 0.000256858 0)
(-0.0194038 0.000255677 0)
(-0.0197747 0.000254599 0)
(-0.0201439 0.000253624 0)
(-0.0205115 0.000252752 0)
(-0.0208777 0.000251984 0)
(-0.0212426 0.000251317 0)
(-0.0216064 0.000250747 0)
(-0.0219691 0.000250273 0)
(-0.022331 0.000249889 0)
(-0.022692 0.000249591 0)
(-0.0230525 0.000249372 0)
(-0.0234123 0.000249224 0)
(-0.0237717 0.000249137 0)
(-0.0241307 0.000249102 0)
(-0.0244893 0.000249106 0)
(-0.0248476 0.000249134 0)
(-0.0252056 0.000249169 0)
(-0.0255633 0.000249194 0)
(-0.0259207 0.000249188 0)
(-0.0262776 0.00024913 0)
(-0.0266339 0.000248994 0)
(-0.0269896 0.000248752 0)
(-0.0273445 0.000248376 0)
(-0.0276982 0.000247834 0)
(-0.0280506 0.000247091 0)
(-0.0284013 0.000246113 0)
(-0.0287499 0.000244858 0)
(-0.029096 0.000243286 0)
(-0.029439 0.000241351 0)
(-0.0297785 0.000239008 0)
(-0.0301138 0.000236208 0)
(-0.0304442 0.000232899 0)
(-0.0307689 0.000229027 0)
(-0.031087 0.000224536 0)
(-0.0313977 0.000219369 0)
(-0.0316999 0.000213467 0)
(-0.0319925 0.00020677 0)
(-0.0322743 0.000199216 0)
(-0.0325441 0.000190743 0)
(-0.0328005 0.000181291 0)
(-0.0330421 0.000170798 0)
(-0.0332674 0.000159205 0)
(-0.0334747 0.000146454 0)
(-0.0336624 0.00013249 0)
(-0.0338288 0.000117262 0)
(-0.033972 0.000100722 0)
(-0.0340902 8.28285e-05 0)
(-0.0341814 6.35446e-05 0)
(-0.0342438 4.28416e-05 0)
(-0.0342752 2.06988e-05 0)
(-0.0342738 -2.89561e-06 0)
(-0.0342375 -2.79424e-05 0)
(-0.0341642 -5.443e-05 0)
(-0.0340522 -8.23339e-05 0)
(-0.0338993 -0.000111616 0)
(-0.0337038 -0.000142222 0)
(-0.033464 -0.000174082 0)
(-0.0331782 -0.000207111 0)
(-0.0328448 -0.000241202 0)
(-0.0324626 -0.000276233 0)
(-0.0320305 -0.000312059 0)
(-0.0315474 -0.00034852 0)
(-0.0310128 -0.000385433 0)
(-0.0304261 -0.000422596 0)
(-0.0297873 -0.00045979 0)
(-0.0290966 -0.000496775 0)
(-0.0283546 -0.000533295 0)
(-0.027562 -0.000569078 0)
(-0.0267204 -0.000603839 0)
(-0.0258312 -0.00063728 0)
(-0.0248967 -0.000669094 0)
(-0.0239194 -0.000698967 0)
(-0.0229023 -0.000726584 0)
(-0.0218488 -0.000751626 0)
(-0.0207627 -0.000773781 0)
(-0.0196483 -0.000792741 0)
(-0.0185102 -0.000808212 0)
(-0.0173536 -0.000819912 0)
(-0.0161839 -0.000827579 0)
(-0.0150069 -0.000830971 0)
(-0.0138286 -0.000829872 0)
(-0.0126554 -0.000824097 0)
(-0.0114939 -0.000813488 0)
(-0.0103509 -0.000797924 0)
(-0.00923323 -0.000777317 0)
(-0.00814796 -0.000751616 0)
(-0.00710207 -0.000720811 0)
(-0.00610257 -0.000684929 0)
(-0.00515632 -0.000644038 0)
(-0.00427007 -0.000598253 0)
(-0.0034503 -0.000547733 0)
(-0.00270317 -0.000492699 0)
(-0.00203443 -0.000433445 0)
(-0.00144922 -0.000370363 0)
(-0.000951929 -0.000303994 0)
(-0.000545885 -0.000235123 0)
(-0.00023299 -0.000164957 0)
(-1.30222e-05 -9.52214e-05 0)
(0.000117316 -2.88745e-05 0)
(0.000165579 2.9298e-05 0)
(0.000145764 7.138e-05 0)
(8.42311e-05 8.43685e-05 0)
(2.37045e-05 4.92715e-05 0)
(1.29068e-05 -4.86169e-05 0)
(4.67385e-05 -8.6717e-05 0)
(8.31457e-05 -8.06888e-05 0)
(9.7928e-05 -4.51877e-05 0)
(7.56313e-05 9.45433e-06 0)
(7.17002e-06 7.55711e-05 0)
(-0.000113038 0.000147567 0)
(-0.000287833 0.000221541 0)
(-0.000517907 0.000294784 0)
(-0.000802337 0.000365497 0)
(-0.00113912 0.000432475 0)
(-0.00152546 0.000494964 0)
(-0.00195807 0.000552549 0)
(-0.00243336 0.00060501 0)
(-0.00294758 0.000652317 0)
(-0.00349694 0.000694557 0)
(-0.00407771 0.000731889 0)
(-0.00468627 0.000764544 0)
(-0.00531916 0.000792793 0)
(-0.00597308 0.000816925 0)
(-0.00664498 0.000837249 0)
(-0.007332 0.000854078 0)
(-0.00803151 0.000867721 0)
(-0.00874111 0.00087848 0)
(-0.00945862 0.000886647 0)
(-0.0101821 0.000892498 0)
(-0.0109097 0.000896295 0)
(-0.01164 0.000898285 0)
(-0.0123714 0.000898692 0)
(-0.0131029 0.000897728 0)
(-0.0138334 0.000895583 0)
(-0.0145618 0.00089243 0)
(-0.0152876 0.000888427 0)
(-0.0160099 0.000883715 0)
(-0.0167283 0.000878422 0)
(-0.0174422 0.000872658 0)
(-0.0181513 0.000866522 0)
(-0.0188553 0.000860102 0)
(-0.019554 0.000853475 0)
(-0.0202472 0.00084671 0)
(-0.0209347 0.000839864 0)
(-0.0216166 0.000832987 0)
(-0.0222927 0.000826126 0)
(-0.0229631 0.00081932 0)
(-0.0236278 0.000812601 0)
(-0.0242869 0.000806001 0)
(-0.0249405 0.000799544 0)
(-0.0255887 0.000793255 0)
(-0.0262315 0.000787153 0)
(-0.0268692 0.000781255 0)
(-0.027502 0.000775576 0)
(-0.0281299 0.000770133 0)
(-0.0287532 0.000764937 0)
(-0.029372 0.000759998 0)
(-0.0299867 0.000755323 0)
(-0.0305973 0.000750922 0)
(-0.0312041 0.000746804 0)
(-0.0318073 0.000742971 0)
(-0.0324071 0.000739427 0)
(-0.0330038 0.000736172 0)
(-0.0335976 0.000733205 0)
(-0.0341887 0.000730524 0)
(-0.0347774 0.000728123 0)
(-0.0353637 0.000725995 0)
(-0.035948 0.000724128 0)
(-0.0365305 0.000722511 0)
(-0.0371113 0.000721126 0)
(-0.0376905 0.000719952 0)
(-0.0382684 0.000718966 0)
(-0.0388451 0.000718139 0)
(-0.0394206 0.000717441 0)
(-0.039995 0.000716834 0)
(-0.0405684 0.000716276 0)
(-0.0411408 0.000715718 0)
(-0.0417121 0.000715107 0)
(-0.0422823 0.000714385 0)
(-0.0428512 0.000713486 0)
(-0.0434186 0.000712339 0)
(-0.0439843 0.000710866 0)
(-0.0445479 0.000708982 0)
(-0.0451092 0.000706596 0)
(-0.0456675 0.00070361 0)
(-0.0462224 0.00069992 0)
(-0.0467733 0.000695413 0)
(-0.0473194 0.00068997 0)
(-0.0478599 0.000683466 0)
(-0.0483939 0.000675768 0)
(-0.0489204 0.000666739 0)
(-0.0494382 0.000656232 0)
(-0.0499461 0.000644096 0)
(-0.0504427 0.000630174 0)
(-0.0509265 0.000614306 0)
(-0.051396 0.000596326 0)
(-0.0518493 0.000576067 0)
(-0.0522845 0.000553361 0)
(-0.0526997 0.000528036 0)
(-0.0530928 0.000499923 0)
(-0.0534614 0.000468857 0)
(-0.0538031 0.000434676 0)
(-0.0541155 0.000397222 0)
(-0.054396 0.000356348 0)
(-0.0546418 0.000311915 0)
(-0.05485 0.000263799 0)
(-0.0550179 0.000211889 0)
(-0.0551423 0.000156093 0)
(-0.0552202 9.634e-05 0)
(-0.0552487 3.25819e-05 0)
(-0.0552245 -3.52019e-05 0)
(-0.0551446 -0.000107002 0)
(-0.055006 -0.000182776 0)
(-0.0548055 -0.000262443 0)
(-0.0545404 -0.000345885 0)
(-0.0542079 -0.000432941 0)
(-0.0538052 -0.000523404 0)
(-0.0533299 -0.000617022 0)
(-0.0527797 -0.00071349 0)
(-0.0521528 -0.000812454 0)
(-0.0514475 -0.000913508 0)
(-0.0506623 -0.00101619 0)
(-0.0497964 -0.00111999 0)
(-0.0488492 -0.00122433 0)
(-0.0478206 -0.00132861 0)
(-0.0467112 -0.00143216 0)
(-0.0455218 -0.00153426 0)
(-0.044254 -0.00163416 0)
(-0.0429098 -0.00173106 0)
(-0.0414922 -0.00182415 0)
(-0.0400043 -0.00191258 0)
(-0.0384503 -0.00199549 0)
(-0.0368348 -0.00207201 0)
(-0.0351632 -0.00214127 0)
(-0.0334415 -0.0022024 0)
(-0.0316764 -0.00225457 0)
(-0.0298751 -0.00229698 0)
(-0.0280454 -0.00232885 0)
(-0.0261959 -0.00234947 0)
(-0.0243355 -0.00235818 0)
(-0.0224736 -0.00235441 0)
(-0.02062 -0.00233765 0)
(-0.0187848 -0.00230748 0)
(-0.0169786 -0.00226359 0)
(-0.0152119 -0.00220575 0)
(-0.0134953 -0.00213385 0)
(-0.0118398 -0.0020479 0)
(-0.0102559 -0.00194801 0)
(-0.00875403 -0.00183445 0)
(-0.00734444 -0.0017076 0)
(-0.00603683 -0.00156801 0)
(-0.00484035 -0.00141644 0)
(-0.00376334 -0.00125388 0)
(-0.00281316 -0.00108164 0)
(-0.00199582 -0.000901518 0)
(-0.00131561 -0.000715964 0)
(-0.000774452 -0.000528478 0)
(-0.00037115 -0.000344081 0)
(-0.000100217 -0.000170269 0)
(4.93926e-05 -1.82496e-05 0)
(9.62396e-05 9.53037e-05 0)
(7.15277e-05 0.000145892 0)
(2.31133e-05 9.74686e-05 0)
(1.09308e-05 -7.35209e-05 0)
(3.45872e-05 -0.000119936 0)
(4.81883e-05 -9.5875e-05 0)
(2.74001e-05 -2.43329e-05 0)
(-4.38644e-05 7.89118e-05 0)
(-0.000175527 0.000201816 0)
(-0.000373845 0.000335324 0)
(-0.000642102 0.00047279 0)
(-0.000981166 0.000609504 0)
(-0.00139007 0.000742112 0)
(-0.00186649 0.000868333 0)
(-0.00240711 0.000986677 0)
(-0.00300796 0.00109621 0)
(-0.0036646 0.00119645 0)
(-0.00437239 0.00128722 0)
(-0.00512657 0.0013686 0)
(-0.00592239 0.00144082 0)
(-0.00675522 0.00150425 0)
(-0.00762059 0.00155935 0)
(-0.00851424 0.00160662 0)
(-0.00943216 0.00164662 0)
(-0.0103706 0.0016799 0)
(-0.0113261 0.00170704 0)
(-0.0122954 0.00172859 0)
(-0.0132757 0.0017451 0)
(-0.0142642 0.00175708 0)
(-0.0152587 0.00176503 0)
(-0.016257 0.00176941 0)
(-0.0172572 0.00177066 0)
(-0.0182576 0.00176917 0)
(-0.0192567 0.00176532 0)
(-0.0202534 0.00175944 0)
(-0.0212464 0.00175183 0)
(-0.0222349 0.00174277 0)
(-0.023218 0.00173251 0)
(-0.0241952 0.00172126 0)
(-0.0251657 0.00170922 0)
(-0.0261293 0.00169658 0)
(-0.0270855 0.00168347 0)
(-0.0280341 0.00167004 0)
(-0.0289749 0.0016564 0)
(-0.0299078 0.00164266 0)
(-0.0308326 0.00162891 0)
(-0.0317494 0.00161523 0)
(-0.0326583 0.00160169 0)
(-0.0335592 0.00158836 0)
(-0.0344522 0.00157527 0)
(-0.0353376 0.00156249 0)
(-0.0362154 0.00155006 0)
(-0.0370859 0.001538 0)
(-0.0379493 0.00152636 0)
(-0.0388057 0.00151516 0)
(-0.0396554 0.00150443 0)
(-0.0404987 0.00149419 0)
(-0.0413358 0.00148445 0)
(-0.042167 0.00147524 0)
(-0.0429926 0.00146657 0)
(-0.0438129 0.00145843 0)
(-0.0446281 0.00145085 0)
(-0.0454387 0.00144382 0)
(-0.0462447 0.00143734 0)
(-0.0470467 0.00143141 0)
(-0.0478447 0.001426 0)
(-0.0486392 0.00142111 0)
(-0.0494304 0.00141672 0)
(-0.0502184 0.00141279 0)
(-0.0510037 0.0014093 0)
(-0.0517863 0.0014062 0)
(-0.0525665 0.00140344 0)
(-0.0533443 0.00140097 0)
(-0.05412 0.00139872 0)
(-0.0548937 0.00139663 0)
(-0.0556652 0.00139459 0)
(-0.0564347 0.00139253 0)
(-0.057202 0.00139034 0)
(-0.0579671 0.00138789 0)
(-0.0587297 0.00138507 0)
(-0.0594895 0.00138173 0)
(-0.0602462 0.00137773 0)
(-0.0609993 0.00137289 0)
(-0.0617484 0.00136704 0)
(-0.0624927 0.00135998 0)
(-0.0632315 0.00135153 0)
(-0.0639639 0.00134145 0)
(-0.0646891 0.00132952 0)
(-0.0654057 0.0013155 0)
(-0.0661127 0.00129912 0)
(-0.0668085 0.00128013 0)
(-0.0674917 0.00125825 0)
(-0.0681606 0.00123318 0)
(-0.0688133 0.00120463 0)
(-0.0694478 0.00117228 0)
(-0.070062 0.00113584 0)
(-0.0706534 0.00109497 0)
(-0.0712197 0.00104935 0)
(-0.071758 0.000998676 0)
(-0.0722656 0.000942618 0)
(-0.0727394 0.000880866 0)
(-0.0731763 0.000813117 0)
(-0.073573 0.000739081 0)
(-0.0739259 0.000658481 0)
(-0.0742316 0.000571064 0)
(-0.0744862 0.000476601 0)
(-0.074686 0.000374895 0)
(-0.0748271 0.000265781 0)
(-0.0749054 0.000149138 0)
(-0.074917 2.48879e-05 0)
(-0.0748578 -0.000106992 0)
(-0.0747239 -0.000246469 0)
(-0.0745113 -0.000393446 0)
(-0.0742161 -0.000547754 0)
(-0.0738345 -0.000709152 0)
(-0.073363 -0.000877317 0)
(-0.0727981 -0.00105184 0)
(-0.0721369 -0.00123223 0)
(-0.0713764 -0.00141788 0)
(-0.0705141 -0.00160812 0)
(-0.069548 -0.00180215 0)
(-0.0684765 -0.0019991 0)
(-0.0672984 -0.00219797 0)
(-0.0660133 -0.00239769 0)
(-0.0646211 -0.00259707 0)
(-0.0631224 -0.00279486 0)
(-0.0615188 -0.00298969 0)
(-0.0598124 -0.00318013 0)
(-0.0580059 -0.0033647 0)
(-0.0561031 -0.00354183 0)
(-0.0541086 -0.00370994 0)
(-0.0520276 -0.00386738 0)
(-0.0498664 -0.00401254 0)
(-0.047632 -0.00414376 0)
(-0.0453324 -0.00425944 0)
(-0.0429763 -0.004358 0)
(-0.0405732 -0.00443793 0)
(-0.0381334 -0.00449778 0)
(-0.0356679 -0.00453624 0)
(-0.0331884 -0.00455206 0)
(-0.0307072 -0.00454417 0)
(-0.0282371 -0.00451164 0)
(-0.0257912 -0.0044537 0)
(-0.0233831 -0.00436977 0)
(-0.0210265 -0.00425947 0)
(-0.0187354 -0.00412263 0)
(-0.0165236 -0.0039593 0)
(-0.0144048 -0.00376979 0)
(-0.0123925 -0.00355465 0)
(-0.0104996 -0.00331473 0)
(-0.00873848 -0.00305122 0)
(-0.00712062 -0.00276571 0)
(-0.00565642 -0.00246028 0)
(-0.00435487 -0.00213767 0)
(-0.00322313 -0.00180148 0)
(-0.00226609 -0.00145657 0)
(-0.00148567 -0.00110958 0)
(-0.00088 -0.000769673 0)
(-0.000442396 -0.000449781 0)
(-0.000160103 -0.000168213 0)
(-1.27149e-05 4.93241e-05 0)
(3.10892e-05 0.000167001 0)
(1.59216e-05 0.000132055 0)
(7.17123e-06 -8.92091e-05 0)
(1.36776e-05 -0.000129681 0)
(-7.36868e-06 -7.41078e-05 0)
(-7.74049e-05 4.68921e-05 0)
(-0.00021157 0.000212256 0)
(-0.000419745 0.000405675 0)
(-0.000708176 0.000614593 0)
(-0.00108008 0.000829621 0)
(-0.00153626 0.00104381 0)
(-0.00207556 0.00125215 0)
(-0.00269532 0.00145111 0)
(-0.00339181 0.00163827 0)
(-0.00416048 0.00181209 0)
(-0.00499626 0.00197169 0)
(-0.00589376 0.00211669 0)
(-0.00684744 0.00224711 0)
(-0.00785172 0.00236323 0)
(-0.00890115 0.00246555 0)
(-0.0099904 0.00255471 0)
(-0.0111144 0.00263147 0)
(-0.0122683 0.00269665 0)
(-0.0134476 0.0027511 0)
(-0.0146481 0.00279568 0)
(-0.0158658 0.00283127 0)
(-0.0170973 0.00285869 0)
(-0.0183392 0.00287877 0)
(-0.0195887 0.00289229 0)
(-0.020843 0.00289996 0)
(-0.0220998 0.00290249 0)
(-0.0233571 0.00290051 0)
(-0.0246129 0.00289461 0)
(-0.0258656 0.00288532 0)
(-0.0271139 0.00287314 0)
(-0.0283566 0.00285851 0)
(-0.0295925 0.00284184 0)
(-0.0308209 0.00282349 0)
(-0.032041 0.00280377 0)
(-0.0332522 0.00278297 0)
(-0.0344541 0.00276135 0)
(-0.0356462 0.00273914 0)
(-0.0368284 0.00271652 0)
(-0.0380003 0.00269368 0)
(-0.039162 0.00267077 0)
(-0.0403133 0.00264792 0)
(-0.0414543 0.00262525 0)
(-0.042585 0.00260286 0)
(-0.0437055 0.00258086 0)
(-0.044816 0.00255932 0)
(-0.0459167 0.0025383 0)
(-0.0470077 0.00251788 0)
(-0.0480893 0.00249811 0)
(-0.0491617 0.00247903 0)
(-0.0502253 0.00246069 0)
(-0.0512804 0.00244313 0)
(-0.0523273 0.00242638 0)
(-0.0533662 0.00241046 0)
(-0.0543976 0.00239539 0)
(-0.0554218 0.00238119 0)
(-0.0564392 0.00236787 0)
(-0.05745 0.00235543 0)
(-0.0584547 0.00234386 0)
(-0.0594537 0.00233316 0)
(-0.0604472 0.00232329 0)
(-0.0614356 0.00231425 0)
(-0.0624192 0.00230598 0)
(-0.0633983 0.00229845 0)
(-0.0643732 0.0022916 0)
(-0.0653441 0.00228535 0)
(-0.0663113 0.00227963 0)
(-0.0672749 0.00227434 0)
(-0.068235 0.00226938 0)
(-0.0691918 0.00226463 0)
(-0.0701452 0.00225994 0)
(-0.0710952 0.00225516 0)
(-0.0720417 0.00225012 0)
(-0.0729846 0.00224464 0)
(-0.0739235 0.0022385 0)
(-0.074858 0.00223148 0)
(-0.0757878 0.00222333 0)
(-0.0767122 0.00221378 0)
(-0.0776305 0.00220254 0)
(-0.078542 0.00218932 0)
(-0.0794456 0.00217378 0)
(-0.0803404 0.00215556 0)
(-0.081225 0.00213431 0)
(-0.0820981 0.00210962 0)
(-0.082958 0.0020811 0)
(-0.0838032 0.00204831 0)
(-0.0846316 0.0020108 0)
(-0.0854411 0.00196812 0)
(-0.0862295 0.00191979 0)
(-0.0869944 0.00186531 0)
(-0.0877329 0.0018042 0)
(-0.0884423 0.00173595 0)
(-0.0891194 0.00166005 0)
(-0.089761 0.001576 0)
(-0.0903636 0.00148329 0)
(-0.0909235 0.00138144 0)
(-0.0914369 0.00126998 0)
(-0.0918997 0.00114845 0)
(-0.0923078 0.00101642 0)
(-0.0926567 0.000873509 0)
(-0.092942 0.000719362 0)
(-0.093159 0.000553679 0)
(-0.0933031 0.000376219 0)
(-0.0933695 0.000186805 0)
(-0.0933534 -1.46646e-05 0)
(-0.0932499 -0.000228208 0)
(-0.0930543 -0.000453751 0)
(-0.0927618 -0.000691116 0)
(-0.0923678 -0.000940017 0)
(-0.091868 -0.00120005 0)
(-0.091258 -0.00147067 0)
(-0.0905339 -0.00175122 0)
(-0.089692 -0.00204089 0)
(-0.088729 -0.00233872 0)
(-0.087642 -0.0026436 0)
(-0.0864287 -0.00295427 0)
(-0.0850873 -0.00326931 0)
(-0.0836165 -0.00358716 0)
(-0.0820158 -0.00390607 0)
(-0.0802853 -0.0042242 0)
(-0.078426 -0.00453951 0)
(-0.0764397 -0.00484987 0)
(-0.0743291 -0.00515301 0)
(-0.0720978 -0.00544658 0)
(-0.0697502 -0.00572812 0)
(-0.067292 -0.00599511 0)
(-0.0647296 -0.00624499 0)
(-0.0620705 -0.00647519 0)
(-0.0593234 -0.00668314 0)
(-0.0564978 -0.00686629 0)
(-0.0536042 -0.00702217 0)
(-0.050654 -0.00714842 0)
(-0.0476598 -0.00724278 0)
(-0.0446347 -0.00730316 0)
(-0.0415928 -0.00732764 0)
(-0.0385486 -0.00731455 0)
(-0.0355177 -0.00726243 0)
(-0.0325157 -0.00717011 0)
(-0.0295588 -0.00703671 0)
(-0.0266636 -0.00686167 0)
(-0.0238464 -0.00664477 0)
(-0.0211239 -0.00638618 0)
(-0.0185124 -0.00608645 0)
(-0.0160276 -0.00574657 0)
(-0.013685 -0.00536804 0)
(-0.011499 -0.00495288 0)
(-0.00948309 -0.0045038 0)
(-0.00764919 -0.0040243 0)
(-0.00600763 -0.00351893 0)
(-0.00456654 -0.00299358 0)
(-0.00333133 -0.00245597 0)
(-0.00230414 -0.00191631 0)
(-0.00148301 -0.00138828 0)
(-0.000861024 -0.000890413 0)
(-0.000425257 -0.00044788 0)
(-0.000155463 -9.46849e-05 0)
(-2.35576e-05 0.000123413 0)
(5.96048e-06 0.000140214 0)
(2.60106e-06 -9.22549e-05 0)
(-1.2223e-05 -0.000108011 0)
(-7.59351e-05 -5.0066e-06 0)
(-0.000205048 0.000180029 0)
(-0.000412504 0.000421261 0)
(-0.000707454 0.000698425 0)
(-0.00109552 0.000995697 0)
(-0.00157947 0.00130094 0)
(-0.00215971 0.00160504 0)
(-0.0028347 0.00190125 0)
(-0.00360142 0.00218467 0)
(-0.00445567 0.00245192 0)
(-0.00539241 0.00270075 0)
(-0.00640599 0.00292982 0)
(-0.00749043 0.00313848 0)
(-0.0086395 0.00332664 0)
(-0.00984697 0.00349461 0)
(-0.0111066 0.003643 0)
(-0.0124125 0.00377266 0)
(-0.0137588 0.00388458 0)
(-0.0151399 0.00397988 0)
(-0.0165508 0.00405973 0)
(-0.0179864 0.00412533 0)
(-0.0194424 0.00417787 0)
(-0.0209145 0.00421855 0)
(-0.022399 0.00424851 0)
(-0.0238924 0.00426885 0)
(-0.0253916 0.00428061 0)
(-0.0268937 0.00428478 0)
(-0.0283964 0.00428227 0)
(-0.0298974 0.00427393 0)
(-0.0313947 0.00426054 0)
(-0.0328867 0.00424281 0)
(-0.0343719 0.00422139 0)
(-0.035849 0.00419686 0)
(-0.037317 0.00416977 0)
(-0.0387749 0.00414057 0)
(-0.0402222 0.00410969 0)
(-0.041658 0.00407752 0)
(-0.043082 0.00404437 0)
(-0.0444938 0.00401056 0)
(-0.0458932 0.00397634 0)
(-0.0472799 0.00394194 0)
(-0.048654 0.00390757 0)
(-0.0500153 0.00387341 0)
(-0.0513639 0.00383961 0)
(-0.0526999 0.00380632 0)
(-0.0540235 0.00377365 0)
(-0.0553349 0.00374172 0)
(-0.0566343 0.00371063 0)
(-0.0579219 0.00368046 0)
(-0.0591982 0.00365128 0)
(-0.0604633 0.00362315 0)
(-0.0617176 0.00359613 0)
(-0.0629616 0.00357028 0)
(-0.0641956 0.00354562 0)
(-0.06542 0.0035222 0)
(-0.0666351 0.00350001 0)
(-0.0678415 0.00347909 0)
(-0.0690394 0.00345944 0)
(-0.0702294 0.00344104 0)
(-0.0714119 0.00342388 0)
(-0.0725871 0.00340793 0)
(-0.0737556 0.00339315 0)
(-0.0749176 0.00337947 0)
(-0.0760736 0.00336684 0)
(-0.0772237 0.00335516 0)
(-0.0783684 0.00334433 0)
(-0.0795077 0.00333423 0)
(-0.080642 0.00332473 0)
(-0.0817714 0.00331565 0)
(-0.0828959 0.00330683 0)
(-0.0840155 0.00329806 0)
(-0.0851302 0.00328911 0)
(-0.0862398 0.00327972 0)
(-0.087344 0.00326963 0)
(-0.0884427 0.00325853 0)
(-0.0895352 0.00324607 0)
(-0.090621 0.00323191 0)
(-0.0916994 0.00321565 0)
(-0.0927696 0.00319688 0)
(-0.0938307 0.00317515 0)
(-0.0948814 0.00314997 0)
(-0.0959204 0.00312085 0)
(-0.0969464 0.00308724 0)
(-0.0979576 0.00304858 0)
(-0.0989522 0.00300427 0)
(-0.0999282 0.00295371 0)
(-0.100883 0.00289625 0)
(-0.101815 0.00283121 0)
(-0.102721 0.00275793 0)
(-0.103597 0.00267569 0)
(-0.104442 0.00258379 0)
(-0.105251 0.00248151 0)
(-0.106021 0.00236813 0)
(-0.106749 0.00224293 0)
(-0.107429 0.00210519 0)
(-0.108059 0.00195424 0)
(-0.108632 0.00178939 0)
(-0.109146 0.00161001 0)
(-0.109594 0.0014155 0)
(-0.109972 0.00120533 0)
(-0.110275 0.000979004 0)
(-0.110498 0.000736119 0)
(-0.110634 0.000476348 0)
(-0.110679 0.000199461 0)
(-0.110627 -9.46632e-05 0)
(-0.110472 -0.000406026 0)
(-0.11021 -0.000734494 0)
(-0.109834 -0.00107979 0)
(-0.10934 -0.00144147 0)
(-0.108723 -0.00181892 0)
(-0.107977 -0.00221137 0)
(-0.107098 -0.00261782 0)
(-0.106082 -0.00303709 0)
(-0.104926 -0.00346779 0)
(-0.103627 -0.00390832 0)
(-0.102181 -0.00435684 0)
(-0.100586 -0.00481132 0)
(-0.0988422 -0.00526949 0)
(-0.0969482 -0.00572889 0)
(-0.0949043 -0.00618682 0)
(-0.0927119 -0.0066404 0)
(-0.0903731 -0.00708658 0)
(-0.087891 -0.00752212 0)
(-0.0852699 -0.00794366 0)
(-0.082515 -0.0083477 0)
(-0.0796327 -0.00873067 0)
(-0.0766306 -0.00908892 0)
(-0.0735173 -0.00941878 0)
(-0.0703027 -0.00971661 0)
(-0.0669978 -0.00997881 0)
(-0.0636146 -0.0102019 0)
(-0.0601663 -0.0103824 0)
(-0.0566671 -0.0105173 0)
(-0.053132 -0.0106035 0)
(-0.0495772 -0.0106383 0)
(-0.0460194 -0.0106194 0)
(-0.0424761 -0.0105448 0)
(-0.0389654 -0.0104127 0)
(-0.0355055 -0.0102221 0)
(-0.0321154 -0.00997207 0)
(-0.0288138 -0.00966247 0)
(-0.0256194 -0.00929358 0)
(-0.0225507 -0.0088663 0)
(-0.0196257 -0.00838219 0)
(-0.0168616 -0.00784351 0)
(-0.0142749 -0.00725334 0)
(-0.0118804 -0.00661574 0)
(-0.00969161 -0.0059359 0)
(-0.00772 -0.00522046 0)
(-0.00597458 -0.00447789 0)
(-0.00446149 -0.00371904 0)
(-0.00318337 -0.00295792 0)
(-0.00213881 -0.00221276 0)
(-0.00132158 -0.00150745 0)
(-0.000719806 -0.000873428 0)
(-0.000314918 -0.000351828 0)
(-8.42964e-05 3.601e-06 0)
(-4.82641e-06 0.000117315 0)
(-2.28931e-06 -8.09334e-05 0)
(-4.08489e-05 -5.00031e-05 0)
(-0.0001524 0.000118562 0)
(-0.000347331 0.000383403 0)
(-0.000635601 0.000714688 0)
(-0.00102497 0.00108871 0)
(-0.00152005 0.00148662 0)
(-0.00212272 0.0018938 0)
(-0.0028327 0.00229903 0)
(-0.00364792 0.00269384 0)
(-0.00456482 0.00307204 0)
(-0.00557871 0.00342919 0)
(-0.00668404 0.00376233 0)
(-0.00787464 0.00406961 0)
(-0.00914393 0.00435009 0)
(-0.0104852 0.00460353 0)
(-0.0118915 0.00483024 0)
(-0.0133561 0.00503095 0)
(-0.0148724 0.00520669 0)
(-0.0164339 0.00535872 0)
(-0.0180346 0.00548845 0)
(-0.0196687 0.0055974 0)
(-0.0213307 0.00568711 0)
(-0.0230156 0.00575915 0)
(-0.0247187 0.00581509 0)
(-0.0264357 0.00585643 0)
(-0.0281628 0.00588464 0)
(-0.0298963 0.0059011 0)
(-0.0316331 0.00590713 0)
(-0.0333704 0.00590394 0)
(-0.0351056 0.00589268 0)
(-0.0368364 0.00587441 0)
(-0.0385609 0.00585009 0)
(-0.0402774 0.0058206 0)
(-0.0419844 0.00578674 0)
(-0.0436807 0.00574923 0)
(-0.0453652 0.00570873 0)
(-0.047037 0.00566581 0)
(-0.0486954 0.005621 0)
(-0.0503398 0.00557475 0)
(-0.0519697 0.00552749 0)
(-0.0535849 0.00547958 0)
(-0.0551851 0.00543133 0)
(-0.0567702 0.00538305 0)
(-0.0583401 0.00533497 0)
(-0.0598949 0.00528733 0)
(-0.0614347 0.00524031 0)
(-0.0629596 0.00519411 0)
(-0.0644698 0.00514887 0)
(-0.0659655 0.00510472 0)
(-0.0674472 0.00506179 0)
(-0.068915 0.00502018 0)
(-0.0703694 0.00497999 0)
(-0.0718107 0.00494129 0)
(-0.0732394 0.00490414 0)
(-0.0746559 0.00486861 0)
(-0.0760605 0.00483472 0)
(-0.0774539 0.00480252 0)
(-0.0788364 0.00477202 0)
(-0.0802085 0.00474322 0)
(-0.0815707 0.0047161 0)
(-0.0829233 0.00469065 0)
(-0.084267 0.00466682 0)
(-0.085602 0.00464455 0)
(-0.0869287 0.00462377 0)
(-0.0882477 0.00460436 0)
(-0.0895591 0.00458622 0)
(-0.0908633 0.00456919 0)
(-0.0921605 0.00455312 0)
(-0.093451 0.0045378 0)
(-0.0947349 0.00452303 0)
(-0.0960123 0.00450854 0)
(-0.0972831 0.00449406 0)
(-0.0985472 0.00447927 0)
(-0.0998045 0.00446383 0)
(-0.101055 0.00444736 0)
(-0.102297 0.00442944 0)
(-0.103532 0.00440961 0)
(-0.104758 0.00438739 0)
(-0.105974 0.00436225 0)
(-0.10718 0.00433361 0)
(-0.108374 0.00430086 0)
(-0.109555 0.00426336 0)
(-0.110721 0.00422043 0)
(-0.111872 0.00417132 0)
(-0.113004 0.00411528 0)
(-0.114117 0.00405152 0)
(-0.115207 0.00397919 0)
(-0.116272 0.00389743 0)
(-0.117309 0.00380535 0)
(-0.118315 0.00370203 0)
(-0.119287 0.00358654 0)
(-0.120221 0.00345792 0)
(-0.121114 0.00331521 0)
(-0.121962 0.00315745 0)
(-0.12276 0.00298369 0)
(-0.123503 0.00279299 0)
(-0.124187 0.00258442 0)
(-0.124808 0.0023571 0)
(-0.125359 0.0021102 0)
(-0.125835 0.00184294 0)
(-0.126231 0.00155461 0)
(-0.126541 0.00124458 0)
(-0.12676 0.000912327 0)
(-0.12688 0.000557445 0)
(-0.126896 0.000179651 0)
(-0.126803 -0.00022119 0)
(-0.126593 -0.000645047 0)
(-0.126261 -0.00109171 0)
(-0.125801 -0.00156078 0)
(-0.125208 -0.00205163 0)
(-0.124475 -0.00256342 0)
(-0.123598 -0.00309506 0)
(-0.122571 -0.0036452 0)
(-0.121391 -0.00421225 0)
(-0.120052 -0.0047943 0)
(-0.118553 -0.00538919 0)
(-0.116889 -0.00599446 0)
(-0.115059 -0.00660736 0)
(-0.113062 -0.00722485 0)
(-0.110897 -0.00784361 0)
(-0.108564 -0.00846006 0)
(-0.106065 -0.00907033 0)
(-0.103402 -0.00967035 0)
(-0.10058 -0.0102558 0)
(-0.0976019 -0.0108222 0)
(-0.0944746 -0.0113648 0)
(-0.091205 -0.011879 0)
(-0.0878015 -0.0123599 0)
(-0.0842737 -0.0128025 0)
(-0.0806327 -0.0132021 0)