/*--------------------------------*- C++ -*----------------------------------*\
  =========                 |
  \\      /  F ield         | OpenFOAM: The Open Source CFD Toolbox
   \\    /   O peration     | Website:  https://openfoam.org
    \\  /    A nd           | Version:  7
     \\/     M anipulation  |
\*---------------------------------------------------------------------------*/
FoamFile
{
    version     2.0;
    format      ascii;
    class       volVectorField;
    location    "0.1625";
    object      U;
}
// * * * * * * * * * * * * * * * * * * * * * * * * * * * * * * * * * * * * * //

dimensions      [0 1 -1 0 0 0 0];

internalField   nonuniform List<vector> 
51200
(
(-1.23339e-07 8.84887e-08 0)
(-2.72168e-07 2.09837e-08 0)
(-3.02233e-07 -7.47257e-08 0)
(-1.91218e-07 -1.08746e-07 0)
(-3.58634e-08 -1.12002e-07 0)
(1.24632e-07 -1.04558e-07 0)
(2.86669e-07 -9.4834e-08 0)
(4.49919e-07 -8.46864e-08 0)
(6.15974e-07 -7.66661e-08 0)
(7.93173e-07 -7.13526e-08 0)
(9.8103e-07 -6.86953e-08 0)
(1.18645e-06 -6.67743e-08 0)
(1.41248e-06 -6.93277e-08 0)
(1.65727e-06 -6.98865e-08 0)
(1.9254e-06 -7.4572e-08 0)
(2.21585e-06 -7.89409e-08 0)
(2.52923e-06 -8.46487e-08 0)
(2.86402e-06 -9.18427e-08 0)
(3.22215e-06 -9.71743e-08 0)
(3.59963e-06 -1.02862e-07 0)
(3.99512e-06 -1.08297e-07 0)
(4.41048e-06 -1.13141e-07 0)
(4.83888e-06 -1.18543e-07 0)
(5.28115e-06 -1.22456e-07 0)
(5.73653e-06 -1.25573e-07 0)
(6.20126e-06 -1.29449e-07 0)
(6.67677e-06 -1.32336e-07 0)
(7.16044e-06 -1.34586e-07 0)
(7.64957e-06 -1.37314e-07 0)
(8.14507e-06 -1.3884e-07 0)
(8.64442e-06 -1.39495e-07 0)
(9.1452e-06 -1.40764e-07 0)
(9.64854e-06 -1.41428e-07 0)
(1.01524e-05 -1.40912e-07 0)
(1.0655e-05 -1.41213e-07 0)
(1.11562e-05 -1.40813e-07 0)
(1.16556e-05 -1.39011e-07 0)
(1.21509e-05 -1.38548e-07 0)
(1.26418e-05 -1.37693e-07 0)
(1.31293e-05 -1.35389e-07 0)
(1.36098e-05 -1.3363e-07 0)
(1.40836e-05 -1.32355e-07 0)
(1.45523e-05 -1.30217e-07 0)
(1.50131e-05 -1.27881e-07 0)
(1.54652e-05 -1.26552e-07 0)
(1.59099e-05 -1.24133e-07 0)
(1.63459e-05 -1.20973e-07 0)
(1.6772e-05 -1.1938e-07 0)
(1.71893e-05 -1.17758e-07 0)
(1.75976e-05 -1.14355e-07 0)
(1.79946e-05 -1.11058e-07 0)
(1.83805e-05 -1.08418e-07 0)
(1.87567e-05 -1.04644e-07 0)
(1.91219e-05 -1.00474e-07 0)
(1.94748e-05 -9.73616e-08 0)
(1.98164e-05 -9.41984e-08 0)
(2.01466e-05 -9.00024e-08 0)
(2.04635e-05 -8.63071e-08 0)
(2.0768e-05 -8.39599e-08 0)
(2.10612e-05 -8.14896e-08 0)
(2.13416e-05 -7.8209e-08 0)
(2.16082e-05 -7.49614e-08 0)
(2.18617e-05 -7.13845e-08 0)
(2.21025e-05 -6.63887e-08 0)
(2.23295e-05 -6.09552e-08 0)
(2.25427e-05 -5.66953e-08 0)
(2.27424e-05 -5.34653e-08 0)
(2.29284e-05 -5.04412e-08 0)
(2.31001e-05 -4.73436e-08 0)
(2.32577e-05 -4.40123e-08 0)
(2.34015e-05 -3.98205e-08 0)
(2.35313e-05 -3.47495e-08 0)
(2.36466e-05 -2.96921e-08 0)
(2.3747e-05 -2.55416e-08 0)
(2.38329e-05 -2.20489e-08 0)
(2.39043e-05 -1.83124e-08 0)
(2.39612e-05 -1.41354e-08 0)
(2.40035e-05 -9.93759e-09 0)
(2.40311e-05 -5.70669e-09 0)
(2.40439e-05 -1.20564e-09 0)
(2.40415e-05 3.36852e-09 0)
(2.40239e-05 7.57769e-09 0)
(2.39916e-05 1.14472e-08 0)
(2.39451e-05 1.54369e-08 0)
(2.38844e-05 1.97132e-08 0)
(2.3809e-05 2.39327e-08 0)
(2.37186e-05 2.80228e-08 0)
(2.36133e-05 3.22348e-08 0)
(2.34935e-05 3.65406e-08 0)
(2.33593e-05 4.0588e-08 0)
(2.3211e-05 4.42712e-08 0)
(2.30488e-05 4.79824e-08 0)
(2.28729e-05 5.20167e-08 0)
(2.26827e-05 5.6187e-08 0)
(2.24781e-05 6.02119e-08 0)
(2.22593e-05 6.41003e-08 0)
(2.2027e-05 6.79467e-08 0)
(2.17812e-05 7.17344e-08 0)
(2.15222e-05 7.53704e-08 0)
(2.125e-05 7.89372e-08 0)
(2.09645e-05 8.26871e-08 0)
(2.06657e-05 8.6664e-08 0)
(2.03537e-05 9.06024e-08 0)
(2.00285e-05 9.42675e-08 0)
(1.96909e-05 9.76887e-08 0)
(1.93413e-05 1.01054e-07 0)
(1.898e-05 1.04476e-07 0)
(1.86069e-05 1.07898e-07 0)
(1.82221e-05 1.11259e-07 0)
(1.78257e-05 1.14608e-07 0)
(1.74181e-05 1.17951e-07 0)
(1.69997e-05 1.21187e-07 0)
(1.6571e-05 1.24205e-07 0)
(1.61326e-05 1.26942e-07 0)
(1.56853e-05 1.29465e-07 0)
(1.52292e-05 1.31961e-07 0)
(1.47647e-05 1.34493e-07 0)
(1.42921e-05 1.36926e-07 0)
(1.3812e-05 1.39153e-07 0)
(1.33251e-05 1.4116e-07 0)
(1.28322e-05 1.42907e-07 0)
(1.23341e-05 1.44348e-07 0)
(1.18317e-05 1.455e-07 0)
(1.13256e-05 1.464e-07 0)
(1.08166e-05 1.47118e-07 0)
(1.03055e-05 1.47751e-07 0)
(9.7928e-06 1.4826e-07 0)
(9.27939e-06 1.48449e-07 0)
(8.76622e-06 1.48219e-07 0)
(8.25437e-06 1.47663e-07 0)
(7.74506e-06 1.46856e-07 0)
(7.2395e-06 1.45719e-07 0)
(6.73873e-06 1.44175e-07 0)
(6.2438e-06 1.42279e-07 0)
(5.75589e-06 1.40116e-07 0)
(5.27626e-06 1.3769e-07 0)
(4.80612e-06 1.34941e-07 0)
(4.34673e-06 1.31718e-07 0)
(3.89968e-06 1.27889e-07 0)
(3.46669e-06 1.23511e-07 0)
(3.04938e-06 1.18696e-07 0)
(2.64945e-06 1.13431e-07 0)
(2.26853e-06 1.07637e-07 0)
(1.90829e-06 1.01276e-07 0)
(1.57046e-06 9.43975e-08 0)
(1.25664e-06 8.70492e-08 0)
(9.68418e-07 7.92076e-08 0)
(7.0742e-07 7.08381e-08 0)
(4.75317e-07 6.19036e-08 0)
(2.73885e-07 5.23553e-08 0)
(1.04854e-07 4.21897e-08 0)
(-3.03523e-08 3.14285e-08 0)
(-1.30676e-07 2.00904e-08 0)
(-1.9548e-07 8.31856e-09 0)
(-2.24835e-07 -3.57216e-09 0)
(-2.20009e-07 -1.50075e-08 0)
(-1.84346e-07 -2.48722e-08 0)
(-1.2515e-07 -3.10163e-08 0)
(-5.80635e-08 -2.9313e-08 0)
(-1.30343e-08 -1.32485e-08 0)
(-1.61195e-07 3.06064e-07 0)
(-3.8824e-07 2.03123e-07 0)
(-4.57928e-07 -8.65896e-08 0)
(-2.98646e-07 -2.28126e-07 0)
(-5.98823e-08 -2.75329e-07 0)
(2.41753e-07 -2.92332e-07 0)
(5.86426e-07 -3.00801e-07 0)
(9.72986e-07 -3.13818e-07 0)
(1.41432e-06 -3.32757e-07 0)
(1.90291e-06 -3.5926e-07 0)
(2.45669e-06 -3.91444e-07 0)
(3.07456e-06 -4.30755e-07 0)
(3.75797e-06 -4.7114e-07 0)
(4.51294e-06 -5.16557e-07 0)
(5.33199e-06 -5.60537e-07 0)
(6.21895e-06 -6.04811e-07 0)
(7.16954e-06 -6.50546e-07 0)
(8.18235e-06 -6.93502e-07 0)
(9.25115e-06 -7.34806e-07 0)
(1.03747e-05 -7.74444e-07 0)
(1.15504e-05 -8.07953e-07 0)
(1.27687e-05 -8.40703e-07 0)
(1.403e-05 -8.69363e-07 0)
(1.5328e-05 -8.93773e-07 0)
(1.66562e-05 -9.17517e-07 0)
(1.8015e-05 -9.36744e-07 0)
(1.9398e-05 -9.53433e-07 0)
(2.08002e-05 -9.68349e-07 0)
(2.2222e-05 -9.79902e-07 0)
(2.36569e-05 -9.88673e-07 0)
(2.51002e-05 -9.95077e-07 0)
(2.65519e-05 -9.99303e-07 0)
(2.80072e-05 -1.00044e-06 0)
(2.94622e-05 -1.00115e-06 0)
(3.09162e-05 -9.98799e-07 0)
(3.2366e-05 -9.94432e-07 0)
(3.38074e-05 -9.88615e-07 0)
(3.524e-05 -9.81864e-07 0)
(3.66624e-05 -9.7271e-07 0)
(3.80692e-05 -9.61742e-07 0)
(3.94605e-05 -9.50766e-07 0)
(4.08356e-05 -9.37448e-07 0)
(4.21905e-05 -9.23333e-07 0)
(4.35248e-05 -9.09013e-07 0)
(4.48373e-05 -8.92992e-07 0)
(4.61258e-05 -8.75425e-07 0)
(4.7389e-05 -8.57946e-07 0)
(4.86267e-05 -8.40414e-07 0)
(4.98378e-05 -8.21199e-07 0)
(5.10197e-05 -8.00986e-07 0)
(5.21718e-05 -7.80662e-07 0)
(5.32941e-05 -7.59612e-07 0)
(5.43848e-05 -7.37393e-07 0)
(5.54431e-05 -7.15181e-07 0)
(5.64685e-05 -6.92421e-07 0)
(5.746e-05 -6.68189e-07 0)
(5.84162e-05 -6.4354e-07 0)
(5.9337e-05 -6.1938e-07 0)
(6.02225e-05 -5.94995e-07 0)
(6.10717e-05 -5.69879e-07 0)
(6.18835e-05 -5.44396e-07 0)
(6.26574e-05 -5.18805e-07 0)
(6.3393e-05 -4.92726e-07 0)
(6.40897e-05 -4.65958e-07 0)
(6.47475e-05 -4.38649e-07 0)
(6.53661e-05 -4.10963e-07 0)
(6.59447e-05 -3.82987e-07 0)
(6.64831e-05 -3.55046e-07 0)
(6.6981e-05 -3.27757e-07 0)
(6.74381e-05 -3.00778e-07 0)
(6.78541e-05 -2.7313e-07 0)
(6.82288e-05 -2.44157e-07 0)
(6.85619e-05 -2.14528e-07 0)
(6.88527e-05 -1.85084e-07 0)
(6.91012e-05 -1.56064e-07 0)
(6.93077e-05 -1.27308e-07 0)
(6.94723e-05 -9.85841e-08 0)
(6.95945e-05 -6.97501e-08 0)
(6.96738e-05 -4.0293e-08 0)
(6.97106e-05 -1.01292e-08 0)
(6.97045e-05 1.9954e-08 0)
(6.96552e-05 4.92489e-08 0)
(6.95632e-05 7.80219e-08 0)
(6.94294e-05 1.06862e-07 0)
(6.92537e-05 1.35953e-07 0)
(6.90353e-05 1.65109e-07 0)
(6.87742e-05 1.94343e-07 0)
(6.84709e-05 2.23741e-07 0)
(6.81256e-05 2.5277e-07 0)
(6.77387e-05 2.80921e-07 0)
(6.73105e-05 3.08569e-07 0)
(6.68414e-05 3.36427e-07 0)
(6.63317e-05 3.64698e-07 0)
(6.57807e-05 3.93041e-07 0)
(6.51887e-05 4.21023e-07 0)
(6.45563e-05 4.48611e-07 0)
(6.38842e-05 4.75797e-07 0)
(6.3173e-05 5.02434e-07 0)
(6.2423e-05 5.2865e-07 0)
(6.16344e-05 5.54869e-07 0)
(6.08073e-05 5.8138e-07 0)
(5.99421e-05 6.07935e-07 0)
(5.90392e-05 6.33946e-07 0)
(5.80994e-05 6.59056e-07 0)
(5.71236e-05 6.83383e-07 0)
(5.61128e-05 7.07204e-07 0)
(5.50677e-05 7.30683e-07 0)
(5.39887e-05 7.53927e-07 0)
(5.28764e-05 7.76897e-07 0)
(5.17316e-05 7.99384e-07 0)
(5.05553e-05 8.21152e-07 0)
(4.9349e-05 8.41951e-07 0)
(4.81137e-05 8.61604e-07 0)
(4.68509e-05 8.80172e-07 0)
(4.55619e-05 8.97874e-07 0)
(4.42482e-05 9.14838e-07 0)
(4.2911e-05 9.31015e-07 0)
(4.15514e-05 9.4627e-07 0)
(4.01709e-05 9.60396e-07 0)
(3.87716e-05 9.73132e-07 0)
(3.73557e-05 9.84284e-07 0)
(3.59253e-05 9.93775e-07 0)
(3.44824e-05 1.00161e-06 0)
(3.3029e-05 1.00795e-06 0)
(3.15673e-05 1.01304e-06 0)
(3.00995e-05 1.01688e-06 0)
(2.86281e-05 1.01912e-06 0)
(2.71553e-05 1.01935e-06 0)
(2.56837e-05 1.01748e-06 0)
(2.42167e-05 1.01351e-06 0)
(2.27573e-05 1.00739e-06 0)
(2.13087e-05 9.99018e-07 0)
(1.98737e-05 9.88359e-07 0)
(1.8456e-05 9.75393e-07 0)
(1.70589e-05 9.60141e-07 0)
(1.56857e-05 9.4256e-07 0)
(1.43402e-05 9.2241e-07 0)
(1.30263e-05 8.99315e-07 0)
(1.1748e-05 8.73006e-07 0)
(1.05097e-05 8.43478e-07 0)
(9.31613e-06 8.10782e-07 0)
(8.17183e-06 7.74777e-07 0)
(7.08093e-06 7.35389e-07 0)
(6.04782e-06 6.92773e-07 0)
(5.07739e-06 6.47013e-07 0)
(4.17437e-06 5.9802e-07 0)
(3.34296e-06 5.45684e-07 0)
(2.58744e-06 4.90002e-07 0)
(1.91228e-06 4.31091e-07 0)
(1.3216e-06 3.69102e-07 0)
(8.1887e-07 3.04312e-07 0)
(4.06916e-07 2.37192e-07 0)
(8.76361e-08 1.68467e-07 0)
(-1.38849e-07 9.93955e-08 0)
(-2.75044e-07 3.21984e-08 0)
(-3.26587e-07 -2.96525e-08 0)
(-3.03474e-07 -8.09858e-08 0)
(-2.2281e-07 -1.13676e-07 0)
(-1.1449e-07 -1.13866e-07 0)
(-2.92671e-08 -5.84572e-08 0)
(-1.12765e-07 5.37002e-07 0)
(-3.10511e-07 3.8895e-07 0)
(-3.55707e-07 -1.3846e-07 0)
(-2.18582e-07 -4.33379e-07 0)
(6.13367e-08 -5.76215e-07 0)
(4.45649e-07 -6.65594e-07 0)
(9.26196e-07 -7.47988e-07 0)
(1.50853e-06 -8.32299e-07 0)
(2.18974e-06 -9.31729e-07 0)
(2.98791e-06 -1.04302e-06 0)
(3.89168e-06 -1.1651e-06 0)
(4.91386e-06 -1.29416e-06 0)
(6.05594e-06 -1.42838e-06 0)
(7.30644e-06 -1.5643e-06 0)
(8.67288e-06 -1.69591e-06 0)
(1.01444e-05 -1.82769e-06 0)
(1.17186e-05 -1.9518e-06 0)
(1.33896e-05 -2.07181e-06 0)
(1.51493e-05 -2.18663e-06 0)
(1.69934e-05 -2.28942e-06 0)
(1.89124e-05 -2.38696e-06 0)
(2.0903e-05 -2.47363e-06 0)
(2.29581e-05 -2.55038e-06 0)
(2.50669e-05 -2.62128e-06 0)
(2.72278e-05 -2.68196e-06 0)
(2.94328e-05 -2.73519e-06 0)
(3.16732e-05 -2.78204e-06 0)
(3.3947e-05 -2.81987e-06 0)
(3.6247e-05 -2.85042e-06 0)
(3.85666e-05 -2.87539e-06 0)
(4.09025e-05 -2.89181e-06 0)
(4.32491e-05 -2.90171e-06 0)
(4.56005e-05 -2.90793e-06 0)
(4.79538e-05 -2.90615e-06 0)
(5.03043e-05 -2.89961e-06 0)
(5.26462e-05 -2.88819e-06 0)
(5.49778e-05 -2.87225e-06 0)
(5.72954e-05 -2.8509e-06 0)
(5.95933e-05 -2.82572e-06 0)
(6.187e-05 -2.79675e-06 0)
(6.41225e-05 -2.7624e-06 0)
(6.63467e-05 -2.72664e-06 0)
(6.85404e-05 -2.68708e-06 0)
(7.07016e-05 -2.64372e-06 0)
(7.28269e-05 -2.59749e-06 0)
(7.49137e-05 -2.54892e-06 0)
(7.69611e-05 -2.49795e-06 0)
(7.89669e-05 -2.44478e-06 0)
(8.0928e-05 -2.38929e-06 0)
(8.28432e-05 -2.33095e-06 0)
(8.4711e-05 -2.27058e-06 0)
(8.65294e-05 -2.20921e-06 0)
(8.82972e-05 -2.14641e-06 0)
(9.00128e-05 -2.08134e-06 0)
(9.16743e-05 -2.01418e-06 0)
(9.32805e-05 -1.94539e-06 0)
(9.48308e-05 -1.87525e-06 0)
(9.63238e-05 -1.80424e-06 0)
(9.77582e-05 -1.73221e-06 0)
(9.91334e-05 -1.65845e-06 0)
(0.000100448 -1.58283e-06 0)
(0.000101701 -1.50653e-06 0)
(0.000102893 -1.43039e-06 0)
(0.000104022 -1.35375e-06 0)
(0.000105088 -1.2759e-06 0)
(0.000106089 -1.19658e-06 0)
(0.000107025 -1.1158e-06 0)
(0.000107897 -1.03397e-06 0)
(0.000108702 -9.5249e-07 0)
(0.000109442 -8.71745e-07 0)
(0.000110115 -7.90528e-07 0)
(0.000110722 -7.07603e-07 0)
(0.00011126 -6.23395e-07 0)
(0.00011173 -5.38888e-07 0)
(0.000112132 -4.54454e-07 0)
(0.000112466 -3.70225e-07 0)
(0.000112733 -2.8621e-07 0)
(0.00011293 -2.0185e-07 0)
(0.000113058 -1.16332e-07 0)
(0.000113117 -2.9826e-08 0)
(0.000113108 5.63085e-08 0)
(0.000113029 1.4122e-07 0)
(0.000112881 2.25366e-07 0)
(0.000112665 3.09539e-07 0)
(0.000112381 3.93993e-07 0)
(0.000112027 4.78776e-07 0)
(0.000111605 5.63805e-07 0)
(0.000111115 6.48571e-07 0)
(0.000110557 7.32212e-07 0)
(0.000109931 8.14424e-07 0)
(0.000109239 8.95993e-07 0)
(0.00010848 9.77815e-07 0)
(0.000107654 1.05997e-06 0)
(0.000106761 1.14197e-06 0)
(0.000105803 1.22322e-06 0)
(0.000104779 1.30331e-06 0)
(0.000103691 1.3822e-06 0)
(0.00010254 1.45997e-06 0)
(0.000101325 1.53699e-06 0)
(0.000100047 1.61379e-06 0)
(9.87078e-05 1.69051e-06 0)
(9.73068e-05 1.76652e-06 0)
(9.58453e-05 1.84112e-06 0)
(9.43245e-05 1.91382e-06 0)
(9.27459e-05 1.98455e-06 0)
(9.11107e-05 2.05375e-06 0)
(8.942e-05 2.12183e-06 0)
(8.76747e-05 2.18885e-06 0)
(8.58758e-05 2.25464e-06 0)
(8.40251e-05 2.31877e-06 0)
(8.21247e-05 2.38062e-06 0)
(8.01763e-05 2.43972e-06 0)
(7.81817e-05 2.49591e-06 0)
(7.61431e-05 2.54933e-06 0)
(7.40627e-05 2.60028e-06 0)
(7.19424e-05 2.64895e-06 0)
(6.97846e-05 2.69506e-06 0)
(6.75915e-05 2.73806e-06 0)
(6.53657e-05 2.77757e-06 0)
(6.31104e-05 2.81327e-06 0)
(6.0829e-05 2.84475e-06 0)
(5.85245e-05 2.87179e-06 0)
(5.61998e-05 2.89445e-06 0)
(5.38586e-05 2.91288e-06 0)
(5.15045e-05 2.92719e-06 0)
(4.9141e-05 2.93732e-06 0)
(4.67717e-05 2.94269e-06 0)
(4.4401e-05 2.94256e-06 0)
(4.20332e-05 2.93657e-06 0)
(3.96731e-05 2.9246e-06 0)
(3.73255e-05 2.90646e-06 0)
(3.49955e-05 2.88194e-06 0)
(3.26877e-05 2.8509e-06 0)
(3.04076e-05 2.8133e-06 0)
(2.81607e-05 2.76898e-06 0)
(2.59529e-05 2.71754e-06 0)
(2.37897e-05 2.6585e-06 0)
(2.16772e-05 2.59133e-06 0)
(1.9622e-05 2.51561e-06 0)
(1.76311e-05 2.43107e-06 0)
(1.57112e-05 2.33755e-06 0)
(1.38691e-05 2.23488e-06 0)
(1.21115e-05 2.12302e-06 0)
(1.04456e-05 2.00208e-06 0)
(8.87824e-06 1.87225e-06 0)
(7.41649e-06 1.73351e-06 0)
(6.06716e-06 1.58578e-06 0)
(4.83677e-06 1.4292e-06 0)
(3.73151e-06 1.26414e-06 0)
(2.75711e-06 1.09133e-06 0)
(1.91837e-06 9.11984e-07 0)
(1.21866e-06 7.2785e-07 0)
(6.59458e-07 5.41504e-07 0)
(2.39722e-07 3.56783e-07 0)
(-4.49426e-08 1.79475e-07 0)
(-2.03634e-07 1.80476e-08 0)
(-2.51394e-07 -1.15487e-07 0)
(-2.11132e-07 -2.0415e-07 0)
(-1.18676e-07 -2.22907e-07 0)
(-3.24232e-08 -1.27198e-07 0)
(-7.16482e-08 6.96838e-07 0)
(-1.85827e-07 5.06683e-07 0)
(-1.85613e-07 -2.08572e-07 0)
(8.4734e-09 -6.71146e-07 0)
(3.63427e-07 -9.55349e-07 0)
(8.76144e-07 -1.17279e-06 0)
(1.53335e-06 -1.37576e-06 0)
(2.33558e-06 -1.58994e-06 0)
(3.29671e-06 -1.81969e-06 0)
(4.40488e-06 -2.06744e-06 0)
(5.67643e-06 -2.32892e-06 0)
(7.10603e-06 -2.596e-06 0)
(8.68987e-06 -2.8697e-06 0)
(1.04343e-05 -3.13673e-06 0)
(1.2323e-05 -3.40203e-06 0)
(1.4356e-05 -3.65399e-06 0)
(1.65256e-05 -3.89549e-06 0)
(1.882e-05 -4.12495e-06 0)
(2.12355e-05 -4.33818e-06 0)
(2.3759e-05 -4.5375e-06 0)
(2.63832e-05 -4.72004e-06 0)
(2.91006e-05 -4.88314e-06 0)
(3.18996e-05 -5.03203e-06 0)
(3.47751e-05 -5.16397e-06 0)
(3.77168e-05 -5.27894e-06 0)
(4.07147e-05 -5.38134e-06 0)
(4.37637e-05 -5.46764e-06 0)
(4.68544e-05 -5.53882e-06 0)
(4.99787e-05 -5.59856e-06 0)
(5.31312e-05 -5.64266e-06 0)
(5.63047e-05 -5.67444e-06 0)
(5.9491e-05 -5.6954e-06 0)
(6.2686e-05 -5.70435e-06 0)
(6.58831e-05 -5.7013e-06 0)
(6.90747e-05 -5.68919e-06 0)
(7.22578e-05 -5.66699e-06 0)
(7.54265e-05 -5.63491e-06 0)
(7.8575e-05 -5.59518e-06 0)
(8.16989e-05 -5.54604e-06 0)
(8.47944e-05 -5.48854e-06 0)
(8.78568e-05 -5.42461e-06 0)
(9.08819e-05 -5.3544e-06 0)
(9.38665e-05 -5.27695e-06 0)
(9.68062e-05 -5.19286e-06 0)
(9.96977e-05 -5.10348e-06 0)
(0.000102539 -5.00879e-06 0)
(0.000105326 -4.9094e-06 0)
(0.000108055 -4.80545e-06 0)
(0.000110725 -4.6962e-06 0)
(0.000113333 -4.58182e-06 0)
(0.000115875 -4.46406e-06 0)
(0.000118352 -4.34319e-06 0)
(0.000120759 -4.21871e-06 0)
(0.000123094 -4.09038e-06 0)
(0.000125356 -3.95822e-06 0)
(0.000127544 -3.82291e-06 0)
(0.000129655 -3.68558e-06 0)
(0.000131688 -3.54651e-06 0)
(0.000133642 -3.4047e-06 0)
(0.000135515 -3.25939e-06 0)
(0.000137304 -3.11126e-06 0)
(0.00013901 -2.96127e-06 0)
(0.000140632 -2.81031e-06 0)
(0.000142169 -2.65841e-06 0)
(0.00014362 -2.50508e-06 0)
(0.000144983 -2.34958e-06 0)
(0.000146258 -2.19146e-06 0)
(0.000147443 -2.03183e-06 0)
(0.000148539 -1.87207e-06 0)
(0.000149545 -1.7121e-06 0)
(0.000150461 -1.55074e-06 0)
(0.000151285 -1.38761e-06 0)
(0.000152017 -1.22319e-06 0)
(0.000152656 -1.05787e-06 0)
(0.000153203 -8.92196e-07 0)
(0.000153658 -7.26872e-07 0)
(0.000154019 -5.61746e-07 0)
(0.000154287 -3.95508e-07 0)
(0.000154461 -2.27559e-07 0)
(0.000154541 -5.8861e-08 0)
(0.000154527 1.09062e-07 0)
(0.000154419 2.75792e-07 0)
(0.000154219 4.41802e-07 0)
(0.000153925 6.07604e-07 0)
(0.000153537 7.73551e-07 0)
(0.000153055 9.4001e-07 0)
(0.00015248 1.10668e-06 0)
(0.000151812 1.27241e-06 0)
(0.000151052 1.43628e-06 0)
(0.000150201 1.59844e-06 0)
(0.000149257 1.75988e-06 0)
(0.000148223 1.92135e-06 0)
(0.000147097 2.08276e-06 0)
(0.000145881 2.24341e-06 0)
(0.000144575 2.40266e-06 0)
(0.000143181 2.55994e-06 0)
(0.000141699 2.71498e-06 0)
(0.00014013 2.86816e-06 0)
(0.000138474 3.02014e-06 0)
(0.000136734 3.17132e-06 0)
(0.000134909 3.32153e-06 0)
(0.000133 3.46979e-06 0)
(0.00013101 3.61519e-06 0)
(0.00012894 3.75734e-06 0)
(0.000126791 3.89629e-06 0)
(0.000124565 4.03232e-06 0)
(0.000122264 4.1658e-06 0)
(0.000119888 4.29673e-06 0)
(0.000117441 4.42474e-06 0)
(0.000114923 4.54915e-06 0)
(0.000112339 4.66915e-06 0)
(0.00010969 4.78397e-06 0)
(0.000106978 4.89338e-06 0)
(0.000104207 4.99769e-06 0)
(0.00010138 5.09715e-06 0)
(9.8499e-05 5.19163e-06 0)
(9.55673e-05 5.28075e-06 0)
(9.25882e-05 5.36378e-06 0)
(8.95658e-05 5.43989e-06 0)
(8.65042e-05 5.50851e-06 0)
(8.34074e-05 5.56921e-06 0)
(8.02794e-05 5.62161e-06 0)
(7.71246e-05 5.6657e-06 0)
(7.39476e-05 5.70167e-06 0)
(7.07534e-05 5.72937e-06 0)
(6.7547e-05 5.74817e-06 0)
(6.43334e-05 5.75728e-06 0)
(6.11183e-05 5.75596e-06 0)
(5.79077e-05 5.74355e-06 0)
(5.47082e-05 5.71956e-06 0)
(5.15259e-05 5.68357e-06 0)
(4.83672e-05 5.63526e-06 0)
(4.52389e-05 5.57435e-06 0)
(4.21484e-05 5.50058e-06 0)
(3.91029e-05 5.41356e-06 0)
(3.611e-05 5.31258e-06 0)
(3.31775e-05 5.19672e-06 0)
(3.03137e-05 5.06524e-06 0)
(2.75273e-05 4.91761e-06 0)
(2.48267e-05 4.75339e-06 0)
(2.22211e-05 4.57216e-06 0)
(1.97191e-05 4.37371e-06 0)
(1.73297e-05 4.15801e-06 0)
(1.50619e-05 3.92514e-06 0)
(1.2925e-05 3.67524e-06 0)
(1.09277e-05 3.40846e-06 0)
(9.07853e-06 3.12501e-06 0)
(7.38551e-06 2.82541e-06 0)
(5.85658e-06 2.51067e-06 0)
(4.49865e-06 2.18246e-06 0)
(3.31691e-06 1.84324e-06 0)
(2.31485e-06 1.49664e-06 0)
(1.49382e-06 1.14786e-06 0)
(8.52046e-07 8.04281e-07 0)
(3.83437e-07 4.76182e-07 0)
(7.67397e-08 1.77699e-07 0)
(-8.53371e-08 -7.17052e-08 0)
(-1.28248e-07 -2.45967e-07 0)
(-8.97726e-08 -3.08001e-07 0)
(-2.78191e-08 -1.90434e-07 0)
(-2.90719e-08 7.76083e-07 0)
(-5.31996e-08 5.41454e-07 0)
(4.42211e-08 -3.31835e-07 0)
(3.18316e-07 -9.84796e-07 0)
(7.96527e-07 -1.44499e-06 0)
(1.46858e-06 -1.83582e-06 0)
(2.33149e-06 -2.21067e-06 0)
(3.38835e-06 -2.59612e-06 0)
(4.63649e-06 -3.00267e-06 0)
(6.08637e-06 -3.42967e-06 0)
(7.72845e-06 -3.86914e-06 0)
(9.56656e-06 -4.31806e-06 0)
(1.16001e-05 -4.76163e-06 0)
(1.38177e-05 -5.20362e-06 0)
(1.62188e-05 -5.62892e-06 0)
(1.87931e-05 -6.03775e-06 0)
(2.153e-05 -6.42751e-06 0)
(2.4423e-05 -6.79174e-06 0)
(2.7458e-05 -7.13292e-06 0)
(3.06263e-05 -7.44991e-06 0)
(3.39184e-05 -7.73755e-06 0)
(3.73206e-05 -8.00153e-06 0)
(4.08246e-05 -8.23783e-06 0)
(4.44205e-05 -8.44657e-06 0)
(4.80957e-05 -8.63312e-06 0)
(5.18423e-05 -8.79381e-06 0)
(5.56508e-05 -8.93078e-06 0)
(5.9509e-05 -9.04698e-06 0)
(6.341e-05 -9.13913e-06 0)
(6.73458e-05 -9.2107e-06 0)
(7.13053e-05 -9.26239e-06 0)
(7.52832e-05 -9.29577e-06 0)
(7.92717e-05 -9.30879e-06 0)
(8.32607e-05 -9.30604e-06 0)
(8.72456e-05 -9.28563e-06 0)
(9.12199e-05 -9.24954e-06 0)
(9.51756e-05 -9.19958e-06 0)
(9.91071e-05 -9.13421e-06 0)
(0.000103009 -9.05543e-06 0)
(0.000106875 -8.96297e-06 0)
(0.000110701 -8.86058e-06 0)
(0.000114481 -8.74576e-06 0)
(0.00011821 -8.6203e-06 0)
(0.000121884 -8.48462e-06 0)
(0.000125499 -8.33909e-06 0)
(0.00012905 -8.18543e-06 0)
(0.000132535 -8.02392e-06 0)
(0.000135948 -7.85381e-06 0)
(0.000139287 -7.67549e-06 0)
(0.000142547 -7.4901e-06 0)
(0.000145728 -7.29833e-06 0)
(0.000148825 -7.10063e-06 0)
(0.000151835 -6.89691e-06 0)
(0.000154757 -6.68678e-06 0)
(0.000157586 -6.47063e-06 0)
(0.000160322 -6.24978e-06 0)
(0.000162963 -6.0254e-06 0)
(0.000165506 -5.79713e-06 0)
(0.00016795 -5.56428e-06 0)
(0.000170293 -5.32698e-06 0)
(0.000172532 -5.08602e-06 0)
(0.000174666 -4.84186e-06 0)
(0.000176696 -4.59492e-06 0)
(0.000178618 -4.34554e-06 0)
(0.000180432 -4.09317e-06 0)
(0.000182136 -3.83752e-06 0)
(0.00018373 -3.57936e-06 0)
(0.000185213 -3.32007e-06 0)
(0.000186584 -3.05973e-06 0)
(0.000187842 -2.79746e-06 0)
(0.000188987 -2.53263e-06 0)
(0.000190016 -2.26559e-06 0)
(0.00019093 -1.99689e-06 0)
(0.00019173 -1.72714e-06 0)
(0.000192414 -1.45721e-06 0)
(0.000192981 -1.18735e-06 0)
(0.000193432 -9.16761e-07 0)
(0.000193766 -6.44268e-07 0)
(0.000193983 -3.70168e-07 0)
(0.000194082 -9.5878e-08 0)
(0.000194064 1.77489e-07 0)
(0.000193929 4.49891e-07 0)
(0.000193678 7.21614e-07 0)
(0.000193309 9.93085e-07 0)
(0.000192823 1.26489e-06 0)
(0.000192219 1.53712e-06 0)
(0.000191499 1.80889e-06 0)
(0.000190663 2.07884e-06 0)
(0.000189712 2.34646e-06 0)
(0.000188646 2.61236e-06 0)
(0.000187464 2.87741e-06 0)
(0.000186169 3.14196e-06 0)
(0.000184759 3.40577e-06 0)
(0.000183236 3.66804e-06 0)
(0.000181601 3.92793e-06 0)
(0.000179856 4.18479e-06 0)
(0.000178 4.43839e-06 0)
(0.000176036 4.68932e-06 0)
(0.000173964 4.93836e-06 0)
(0.000171784 5.1856e-06 0)
(0.0001695 5.43036e-06 0)
(0.000167111 5.67154e-06 0)
(0.000164621 5.90816e-06 0)
(0.000162031 6.13976e-06 0)
(0.000159342 6.3665e-06 0)
(0.000156558 6.58872e-06 0)
(0.000153679 6.8065e-06 0)
(0.000150708 7.01961e-06 0)
(0.000147647 7.22746e-06 0)
(0.0001445 7.42898e-06 0)
(0.000141269 7.62315e-06 0)
(0.000137958 7.80931e-06 0)
(0.00013457 7.9872e-06 0)
(0.000131108 8.15684e-06 0)
(0.000127575 8.31838e-06 0)
(0.000123976 8.47149e-06 0)
(0.000120314 8.61537e-06 0)
(0.000116594 8.74913e-06 0)
(0.00011282 8.87181e-06 0)
(0.000108998 8.98239e-06 0)
(0.000105132 9.08014e-06 0)
(0.000101228 9.16479e-06 0)
(9.72908e-05 9.23628e-06 0)
(9.33263e-05 9.29447e-06 0)
(8.93408e-05 9.33881e-06 0)
(8.53401e-05 9.36834e-06 0)
(8.1331e-05 9.38191e-06 0)
(7.73207e-05 9.37849e-06 0)
(7.33167e-05 9.35727e-06 0)
(6.93264e-05 9.31748e-06 0)
(6.53577e-05 9.25833e-06 0)
(6.14186e-05 9.17924e-06 0)
(5.75175e-05 9.07986e-06 0)
(5.36632e-05 8.95963e-06 0)
(4.9865e-05 8.81771e-06 0)
(4.6132e-05 8.65304e-06 0)
(4.24738e-05 8.4645e-06 0)
(3.89006e-05 8.25107e-06 0)
(3.54229e-05 8.01189e-06 0)
(3.20511e-05 7.74634e-06 0)
(2.87954e-05 7.45395e-06 0)
(2.56667e-05 7.13446e-06 0)
(2.26756e-05 6.78784e-06 0)
(1.98332e-05 6.41423e-06 0)
(1.71499e-05 6.01375e-06 0)
(1.46362e-05 5.58671e-06 0)
(1.2302e-05 5.13371e-06 0)
(1.01569e-05 4.65602e-06 0)
(8.20939e-06 4.15563e-06 0)
(6.4672e-06 3.63537e-06 0)
(4.93616e-06 3.09936e-06 0)
(3.61996e-06 2.5535e-06 0)
(2.51958e-06 2.00603e-06 0)
(1.63266e-06 1.4682e-06 0)
(9.52599e-07 9.55082e-07 0)
(4.67481e-07 4.86739e-07 0)
(1.59175e-07 8.97622e-08 0)
(1.76813e-09 -2.01303e-07 0)
(-4.05734e-08 -3.38084e-07 0)
(-1.89778e-08 -2.31999e-07 0)
(7.27662e-09 7.70457e-07 0)
(7.52064e-08 4.61998e-07 0)
(2.75001e-07 -5.70431e-07 0)
(6.70245e-07 -1.41875e-06 0)
(1.28778e-06 -2.09658e-06 0)
(2.14089e-06 -2.7005e-06 0)
(3.23058e-06 -3.28993e-06 0)
(4.55417e-06 -3.89083e-06 0)
(6.1135e-06 -4.51186e-06 0)
(7.90384e-06 -5.15267e-06 0)
(9.92621e-06 -5.8077e-06 0)
(1.21771e-05 -6.46399e-06 0)
(1.46485e-05 -7.11786e-06 0)
(1.73371e-05 -7.7555e-06 0)
(2.02348e-05 -8.37352e-06 0)
(2.33294e-05 -8.96584e-06 0)
(2.66149e-05 -9.52535e-06 0)
(3.00775e-05 -1.00525e-05 0)
(3.37046e-05 -1.05442e-05 0)
(3.74874e-05 -1.09968e-05 0)
(4.14102e-05 -1.14136e-05 0)
(4.54623e-05 -1.17926e-05 0)
(4.96339e-05 -1.21319e-05 0)
(5.39092e-05 -1.24365e-05 0)
(5.82784e-05 -1.27035e-05 0)
(6.27316e-05 -1.29352e-05 0)
(6.7254e-05 -1.31346e-05 0)
(7.18373e-05 -1.3301e-05 0)
(7.64708e-05 -1.34342e-05 0)
(8.11427e-05 -1.35388e-05 0)
(8.58451e-05 -1.36144e-05 0)
(9.05686e-05 -1.36607e-05 0)
(9.53028e-05 -1.36823e-05 0)
(0.00010004 -1.36774e-05 0)
(0.000104772 -1.36481e-05 0)
(0.000109491 -1.35969e-05 0)
(0.000114189 -1.35237e-05 0)
(0.000118859 -1.34288e-05 0)
(0.000123493 -1.33141e-05 0)
(0.000128086 -1.31815e-05 0)
(0.000132632 -1.30311e-05 0)
(0.000137124 -1.28638e-05 0)
(0.000141556 -1.26805e-05 0)
(0.000145923 -1.24821e-05 0)
(0.00015022 -1.22698e-05 0)
(0.000154442 -1.2045e-05 0)
(0.000158585 -1.18074e-05 0)
(0.000162643 -1.15571e-05 0)
(0.000166613 -1.12954e-05 0)
(0.000170491 -1.10235e-05 0)
(0.000174274 -1.07419e-05 0)
(0.000177957 -1.04513e-05 0)
(0.000181538 -1.01512e-05 0)
(0.000185013 -9.84188e-06 0)
(0.000188379 -9.52448e-06 0)
(0.000191634 -9.20055e-06 0)
(0.000194776 -8.87045e-06 0)
(0.000197801 -8.53352e-06 0)
(0.000200708 -8.18958e-06 0)
(0.000203494 -7.83974e-06 0)
(0.000206158 -7.48503e-06 0)
(0.000208698 -7.12623e-06 0)
(0.000211113 -6.76353e-06 0)
(0.0002134 -6.39647e-06 0)
(0.000215558 -6.02417e-06 0)
(0.000217585 -5.64699e-06 0)
(0.000219481 -5.26692e-06 0)
(0.000221245 -4.88533e-06 0)
(0.000222876 -4.50177e-06 0)
(0.000224373 -4.11522e-06 0)
(0.000225734 -3.72529e-06 0)
(0.000226957 -3.33225e-06 0)
(0.000228045 -2.93679e-06 0)
(0.000228995 -2.5402e-06 0)
(0.000229809 -2.14351e-06 0)
(0.000230483 -1.74628e-06 0)
(0.000231019 -1.34719e-06 0)
(0.000231416 -9.45734e-07 0)
(0.000231673 -5.42993e-07 0)
(0.000231791 -1.40388e-07 0)
(0.000231769 2.61343e-07 0)
(0.000231609 6.62132e-07 0)
(0.00023131 1.06227e-06 0)
(0.00023087 1.46238e-06 0)
(0.000230291 1.86305e-06 0)
(0.000229572 2.26375e-06 0)
(0.000228716 2.66306e-06 0)
(0.000227721 3.05979e-06 0)
(0.000226588 3.45388e-06 0)
(0.000225319 3.84612e-06 0)
(0.000223913 4.23721e-06 0)
(0.00022237 4.62715e-06 0)
(0.000220692 5.01541e-06 0)
(0.000218879 5.40114e-06 0)
(0.000216933 5.78325e-06 0)
(0.000214856 6.16107e-06 0)
(0.000212647 6.53471e-06 0)
(0.000210309 6.90477e-06 0)
(0.000207843 7.27176e-06 0)
(0.000205249 7.63547e-06 0)
(0.00020253 7.99487e-06 0)
(0.000199688 8.34865e-06 0)
(0.000196725 8.69587e-06 0)
(0.000193644 9.03609e-06 0)
(0.000190446 9.36937e-06 0)
(0.000187133 9.69597e-06 0)
(0.000183709 1.00159e-05 0)
(0.000180176 1.03284e-05 0)
(0.000176536 1.06327e-05 0)
(0.000172795 1.09274e-05 0)
(0.000168954 1.12112e-05 0)
(0.000165018 1.14835e-05 0)
(0.000160991 1.1744e-05 0)
(0.000156877 1.19927e-05 0)
(0.000152679 1.22292e-05 0)
(0.000148403 1.24528e-05 0)
(0.000144052 1.26627e-05 0)
(0.000139633 1.28575e-05 0)
(0.000135151 1.30359e-05 0)
(0.000130612 1.31969e-05 0)
(0.000126022 1.33393e-05 0)
(0.000121386 1.34628e-05 0)
(0.000116711 1.35672e-05 0)
(0.000112005 1.36519e-05 0)
(0.000107273 1.3716e-05 0)
(0.000102524 1.37579e-05 0)
(9.77657e-05 1.37765e-05 0)
(9.30062e-05 1.37704e-05 0)
(8.82543e-05 1.37382e-05 0)
(8.35189e-05 1.3679e-05 0)
(7.88089e-05 1.35916e-05 0)
(7.41338e-05 1.34754e-05 0)
(6.95038e-05 1.33296e-05 0)
(6.49293e-05 1.31532e-05 0)
(6.04206e-05 1.29451e-05 0)
(5.59884e-05 1.27038e-05 0)
(5.16443e-05 1.2428e-05 0)
(4.74001e-05 1.21163e-05 0)
(4.32675e-05 1.17677e-05 0)
(3.92584e-05 1.13813e-05 0)
(3.53849e-05 1.09566e-05 0)
(3.16592e-05 1.04932e-05 0)
(2.80935e-05 9.99135e-06 0)
(2.47001e-05 9.45104e-06 0)
(2.14911e-05 8.87259e-06 0)
(1.8478e-05 8.25667e-06 0)
(1.56718e-05 7.60446e-06 0)
(1.30832e-05 6.91795e-06 0)
(1.07217e-05 6.20025e-06 0)
(8.59547e-06 5.45583e-06 0)
(6.71056e-06 4.69079e-06 0)
(5.07085e-06 3.91345e-06 0)
(3.67761e-06 3.13515e-06 0)
(2.52857e-06 2.37111e-06 0)
(1.61703e-06 1.64126e-06 0)
(9.31315e-07 9.71365e-07 0)
(4.54123e-07 3.94553e-07 0)
(1.60849e-07 -4.68777e-08 0)
(2.00652e-08 -2.94929e-07 0)
(-8.19697e-09 -2.43893e-07 0)
(3.40217e-08 6.99111e-07 0)
(1.77101e-07 2.70495e-07 0)
(4.96402e-07 -9.23764e-07 0)
(1.01601e-06 -1.99417e-06 0)
(1.7929e-06 -2.91727e-06 0)
(2.84334e-06 -3.77802e-06 0)
(4.16699e-06 -4.62262e-06 0)
(5.76642e-06 -5.47813e-06 0)
(7.63888e-06 -6.351e-06 0)
(9.77582e-06 -7.24181e-06 0)
(1.21762e-05 -8.13954e-06 0)
(1.48322e-05 -9.03749e-06 0)
(1.77382e-05 -9.92311e-06 0)
(2.08865e-05 -1.07859e-05 0)
(2.42642e-05 -1.16212e-05 0)
(2.78659e-05 -1.2417e-05 0)
(3.1677e-05 -1.31721e-05 0)
(3.56855e-05 -1.38822e-05 0)
(3.98805e-05 -1.45418e-05 0)
(4.42466e-05 -1.51529e-05 0)
(4.87708e-05 -1.57143e-05 0)
(5.34421e-05 -1.62226e-05 0)
(5.82439e-05 -1.6683e-05 0)
(6.31642e-05 -1.70932e-05 0)
(6.81921e-05 -1.74538e-05 0)
(7.33107e-05 -1.77684e-05 0)
(7.85104e-05 -1.80382e-05 0)
(8.3779e-05 -1.82612e-05 0)
(8.91022e-05 -1.84444e-05 0)
(9.4471e-05 -1.85854e-05 0)
(9.98747e-05 -1.86874e-05 0)
(0.000105301 -1.87521e-05 0)
(0.000110739 -1.87807e-05 0)
(0.000116183 -1.87745e-05 0)
(0.00012162 -1.8736e-05 0)
(0.000127041 -1.86667e-05 0)
(0.00013244 -1.85662e-05 0)
(0.000137806 -1.8438e-05 0)
(0.000143132 -1.82823e-05 0)
(0.000148412 -1.81023e-05 0)
(0.000153637 -1.7897e-05 0)
(0.0001588 -1.76691e-05 0)
(0.000163895 -1.74187e-05 0)
(0.000168917 -1.71477e-05 0)
(0.000173858 -1.68583e-05 0)
(0.000178714 -1.65505e-05 0)
(0.000183478 -1.62246e-05 0)
(0.000188146 -1.58814e-05 0)
(0.000192712 -1.55228e-05 0)
(0.000197174 -1.515e-05 0)
(0.000201525 -1.47637e-05 0)
(0.000205763 -1.43643e-05 0)
(0.000209882 -1.39516e-05 0)
(0.00021388 -1.35267e-05 0)
(0.000217753 -1.30913e-05 0)
(0.000221499 -1.26468e-05 0)
(0.000225114 -1.21931e-05 0)
(0.000228596 -1.17299e-05 0)
(0.000231941 -1.12572e-05 0)
(0.000235147 -1.07763e-05 0)
(0.000238212 -1.02886e-05 0)
(0.000241136 -9.79512e-06 0)
(0.000243915 -9.29621e-06 0)
(0.000246547 -8.79099e-06 0)
(0.000249031 -8.27893e-06 0)
(0.000251364 -7.76112e-06 0)
(0.000253546 -7.23948e-06 0)
(0.000255576 -6.71466e-06 0)
(0.000257454 -6.18637e-06 0)
(0.000259176 -5.65418e-06 0)
(0.000260742 -5.11789e-06 0)
(0.00026215 -4.5777e-06 0)
(0.000263402 -4.03462e-06 0)