/*--------------------------------*- C++ -*----------------------------------*\
  =========                 |
  \\      /  F ield         | OpenFOAM: The Open Source CFD Toolbox
   \\    /   O peration     | Website:  https://openfoam.org
    \\  /    A nd           | Version:  7
     \\/     M anipulation  |
\*---------------------------------------------------------------------------*/
FoamFile
{
    version     2.0;
    format      ascii;
    class       volScalarField;
    location    "0.4375";
    object      p;
}
// * * * * * * * * * * * * * * * * * * * * * * * * * * * * * * * * * * * * * //

dimensions      [0 2 -2 0 0 0 0];

internalField   nonuniform List<scalar> 
12800
(
-1.77882e-09
2.59497e-05
-9.3088e-06
-0.000116966
-0.000289121
-0.000516072
-0.000787358
-0.00109274
-0.00142282
-0.00176937
-0.00212544
-0.00248474
-0.00284237
-0.00319415
-0.00353661
-0.00386701
-0.00418316
-0.00448336
-0.00476637
-0.00503132
-0.00527766
-0.00550507
-0.00571343
-0.00590283
-0.00607347
-0.00622567
-0.0063598
-0.00647629
-0.00657559
-0.00665819
-0.00672455
-0.00677515
-0.0068104
-0.0068307
-0.00683642
-0.00682786
-0.00680528
-0.00676892
-0.00671894
-0.00665543
-0.00657845
-0.006488
-0.00638402
-0.00626641
-0.00613501
-0.0059896
-0.00582992
-0.00565564
-0.00546639
-0.00526176
-0.00504129
-0.00480447
-0.00455072
-0.00427943
-0.00398995
-0.00368156
-0.0033535
-0.00300497
-0.00263511
-0.00224301
-0.00182771
-0.00138822
-0.000923452
-0.000432299
8.64079e-05
0.000633893
0.00121143
0.00182034
0.002462
0.00313784
0.00384934
0.00459804
0.00538553
0.00621344
0.00708344
0.00799726
0.00895666
0.00996343
0.0110194
0.0121264
0.0132863
0.014501
0.0157724
0.0171023
0.0184926
0.0199452
0.0214617
0.023044
0.0246937
0.0264124
0.0282015
0.0300625
0.0319964
0.0340045
0.0360874
0.0382459
0.0404804
0.0427909
0.0451775
0.0476395
0.0501761
0.0527863
0.0554684
0.0582203
0.0610397
0.0639235
0.0668682
0.06987
0.0729241
0.0760256
0.0791687
0.0823471
0.0855541
0.0887821
0.0920232
0.0952688
0.0985098
0.101737
0.104939
0.108107
0.111229
0.114295
0.117293
0.120212
0.123041
0.125768
0.128381
0.130872
0.133228
0.135441
0.137501
0.1394
0.141131
0.142687
0.144064
0.145258
0.146266
0.147088
0.147723
0.148174
0.148446
0.148543
0.148472
0.148243
0.147867
0.147355
0.146722
0.145983
0.145157
0.144264
0.143325
0.142365
0.141411
0.140493
0.139644
0.1389
0.138302
0.13789
0.137704
0.137731
-2.88189e-05
-2.74171e-06
-3.90158e-05
-0.000137609
-0.000289433
-0.000487767
-0.000725139
-0.000993589
-0.0012855
-0.00159394
-0.00191274
-0.00223644
-0.00256043
-0.00288077
-0.00319417
-0.00349793
-0.00378986
-0.00406822
-0.00433166
-0.00457919
-0.00481012
-0.00502397
-0.00522049
-0.0053996
-0.00556135
-0.00570589
-0.00583346
-0.00594435
-0.00603887
-0.00611739
-0.00618025
-0.00622781
-0.00626039
-0.0062783
-0.00628183
-0.0062712
-0.00624663
-0.00620827
-0.00615622
-0.00609056
-0.00601128
-0.00591836
-0.00581171
-0.0056912
-0.00555665
-0.00540783
-0.00524445
-0.00506617
-0.00487263
-0.00466341
-0.00443805
-0.00419602
-0.00393677
-0.00365969
-0.00336411
-0.00304935
-0.00271465
-0.00235922
-0.00198223
-0.00158278
-0.00115995
-0.000712735
-0.000240109
0.000259017
0.000785777
0.00134136
0.001927
0.00254396
0.00319359
0.00387727
0.00459641
0.00535249
0.00614705
0.00698163
0.00785786
0.00877737
0.00974184
0.010753
0.0118125
0.0129222
0.0140838
0.0152991
0.0165698
0.0178978
0.0192847
0.0207323
0.0222421
0.0238159
0.0254552
0.0271614
0.0289358
0.0307796
0.032694
0.0346798
0.0367377
0.0388683
0.0410719
0.0433485
0.0456977
0.0481192
0.0506119
0.0531746
0.0558056
0.058503
0.0612642
0.0640862
0.0669656
0.0698986
0.0728805
0.0759065
0.0789709
0.0820678
0.0851905
0.0883317
0.0914839
0.0946388
0.0977876
0.100921
0.10403
0.107105
0.110134
0.113108
0.116016
0.118847
0.121591
0.124237
0.126774
0.129193
0.131484
0.133638
0.135646
0.137501
0.139197
0.140727
0.142088
0.143275
0.144287
0.145123
0.145784
0.146273
0.146593
0.146749
0.14675
0.146602
0.146318
0.145908
0.145387
0.144769
0.144071
0.143313
0.142514
0.141696
0.140885
0.140107
0.13939
0.138763
0.138257
0.1379
0.13773
0.137758
2.20525e-06
3.01666e-05
-5.81258e-06
-9.93529e-05
-0.000239519
-0.00042053
-0.000636332
-0.000880273
-0.00114596
-0.00142742
-0.00171923
-0.00201654
-0.0023151
-0.00261129
-0.00290201
-0.00318467
-0.00345713
-0.00371768
-0.00396494
-0.00419788
-0.00441572
-0.0046179
-0.00480408
-0.00497408
-0.00512782
-0.00526538
-0.00538686
-0.00549244
-0.00558237
-0.0056569
-0.0057163
-0.00576083
-0.00579073
-0.00580623
-0.00580756
-0.0057949
-0.0057684
-0.00572815
-0.00567422
-0.00560662
-0.00552535
-0.00543034
-0.00532148
-0.00519861
-0.00506152
-0.00490998
-0.00474368
-0.00456229
-0.00436542
-0.00415265
-0.00392351
-0.0036775
-0.00341404
-0.00313254
-0.00283235
-0.00251276
-0.00217305
-0.00181244
-0.00143011
-0.0010252
-0.00059677
-0.000143868
0.000334522
0.000839457
0.00137205
0.00193344
0.00252483
0.00314747
0.00380263
0.00449166
0.00521593
0.00597688
0.00677597
0.0076147
0.00849463
0.00941733
0.0103844
0.0113975
0.0124583
0.0135684
0.0147295
0.0159434
0.0172117
0.018536
0.019918
0.0213594
0.0228616
0.0244262
0.0260546
0.0277482
0.0295082
0.0313358
0.0332318
0.0351971
0.0372324
0.039338
0.0415142
0.0437609
0.0460778
0.0484643
0.0509194
0.0534419
0.05603
0.0586818
0.0613947
0.0641658
0.0669917
0.0698685
0.0727919
0.075757
0.0787585
0.0817903
0.0848461
0.0879189
0.0910012
0.0940852
0.0971624
0.100224
0.103261
0.106263
0.109222
0.112126
0.114965
0.11773
0.120411
0.122996
0.125476
0.127843
0.130085
0.132196
0.134167
0.135991
0.137661
0.139174
0.140523
0.141707
0.142723
0.143572
0.144254
0.144771
0.145128
0.14533
0.145384
0.145298
0.145082
0.144748
0.144309
0.14378
0.143176
0.142514
0.141815
0.141097
0.140384
0.139699
0.139066
0.13851
0.138056
0.137728
0.13756
0.137573
0.000106528
0.00012591
8.47261e-05
-9.22238e-06
-0.000145039
-0.000317269
-0.000520493
-0.00074896
-0.000997078
-0.00125963
-0.00153185
-0.00180939
-0.00208844
-0.00236567
-0.00263822
-0.00290366
-0.00315996
-0.00340546
-0.00363886
-0.0038591
-0.00406536
-0.00425706
-0.00443382
-0.00459538
-0.00474162
-0.00487251
-0.0049881
-0.00508848
-0.00517384
-0.00524435
-0.00530021
-0.00534161
-0.00536873
-0.00538175
-0.00538082
-0.00536609
-0.00533765
-0.00529555
-0.00523983
-0.00517046
-0.00508739
-0.00499054
-0.00487978
-0.00475492
-0.00461575
-0.004462
-0.00429335
-0.00410947
-0.00390997
-0.00369441
-0.00346234
-0.00321324
-0.00294654
-0.00266165
-0.00235792
-0.00203467
-0.00169118
-0.00132668
-0.000940365
-0.000531388
-9.88446e-05
0.000358209
0.000840762
0.00134985
0.00188655
0.00245198
0.00304731
0.00367373
0.00433251
0.00502493
0.00575234
0.00651611
0.00731767
0.00815846
0.00903999
0.00996377
0.0109314
0.0119443
0.0130043
0.0141128
0.0152715
0.016482
0.0177459
0.0190649
0.0204404
0.021874
0.0233673
0.0249215
0.0265382
0.0282185
0.0299636
0.0317746
0.0336524
0.0355977
0.0376111
0.0396929
0.0418434
0.0440624
0.0463495
0.0487042
0.0511254
0.0536119
0.056162
0.0587737
0.0614445
0.0641715
0.0669514
0.0697805
0.0726544
0.0755685
0.0785173
0.0814953
0.0844961
0.087513
0.0905387
0.0935655
0.0965854
0.0995896
0.102569
0.105516
0.108418
0.111268
0.114055
0.11677
0.119402
0.121942
0.12438
0.126707
0.128914
0.130993
0.132937
0.134739
0.136392
0.137892
0.139235
0.140418
0.14144
0.142299
0.142998
0.143539
0.143925
0.144162
0.144257
0.144218
0.144055
0.143778
0.143401
0.142936
0.1424
0.141808
0.141178
0.14053
0.139882
0.139256
0.138673
0.138154
0.137722
0.137395
0.137204
0.137166
0.000277852
0.000276503
0.000222669
0.000122798
-1.4111e-05
-0.000183003
-0.000379021
-0.000597154
-0.00083256
-0.0010807
-0.00133735
-0.0015987
-0.00186136
-0.00212232
-0.00237898
-0.00262909
-0.0028708
-0.00310254
-0.00332307
-0.00353135
-0.0037266
-0.00390822
-0.0040758
-0.00422906
-0.00436782
-0.00449199
-0.00460158
-0.00469664
-0.00477727
-0.00484358
-0.00489572
-0.00493381
-0.00495798
-0.00496836
-0.00496506
-0.00494816
-0.00491771
-0.00487373
-0.00481622
-0.00474511
-0.00466034
-0.00456177
-0.00444926
-0.00432262
-0.00418159
-0.0040259
-0.00385522
-0.00366921
-0.00346747
-0.00324957
-0.00301504
-0.00276336
-0.00249397
-0.00220629
-0.00189966
-0.00157343
-0.00122688
-0.000859257
-0.000469774
-5.75917e-05
0.000378168
0.000838428
0.00132415
0.00183635
0.00237608
0.00294441
0.00354248
0.00417147
0.00483258
0.00552707
0.00625623
0.00702141
0.00782396
0.00866531
0.00954689
0.0104702
0.0114367
0.0124478
0.0135053
0.0146105
0.015765
0.0169705
0.0182283
0.0195402
0.0209075
0.0223317
0.0238143
0.0253566
0.02696
0.0286255
0.0303544
0.0321476
0.034006
0.0359303
0.0379209
0.0399783
0.0421026
0.0442936
0.046551
0.0488742
0.0512621
0.0537135
0.0562268
0.0587999
0.0614305
0.0641158
0.0668525
0.069637
0.072465
0.0753319
0.0782327
0.0811617
0.0841129
0.0870796
0.0900549
0.0930312
0.0960006
0.0989549
0.101885
0.104783
0.107638
0.110442
0.113185
0.115858
0.11845
0.120952
0.123355
0.125651
0.12783
0.129885
0.131808
0.133593
0.135234
0.136726
0.138066
0.13925
0.140278
0.141149
0.141864
0.142425
0.142837
0.143105
0.143235
0.143236
0.143116
0.142886
0.142559
0.142147
0.141665
0.141127
0.140551
0.139954
0.139352
0.138766
0.138213
0.137712
0.137281
0.136937
0.1367
0.136579
0.000507297
0.000475936
0.000402889
0.000291884
0.000148851
-2.16572e-05
-0.00021529
-0.000427723
-0.000654803
-0.000892586
-0.00113741
-0.00138595
-0.0016352
-0.00188251
-0.00212553
-0.00236225
-0.002591
-0.00281033
-0.00301908
-0.00321629
-0.00340121
-0.00357328
-0.00373207
-0.00387729
-0.00400873
-0.00412628
-0.0042299
-0.0043196
-0.00439544
-0.00445748
-0.0045058
-0.00454049
-0.00456163
-0.0045693
-0.00456357
-0.00454447
-0.00451201
-0.00446618
-0.00440692
-0.00433416
-0.00424779
-0.00414766
-0.00403361
-0.0039054
-0.00376278
-0.00360546
-0.00343309
-0.00324533
-0.00304178
-0.00282199
-0.0025855
-0.00233178
-0.00206029
-0.00177043
-0.00146158
-0.00113307
-0.000784203
-0.00041425
-2.2431e-05
0.000392074
0.000830124
0.00129262
0.0017805
0.00229475
0.00283638
0.00340646
0.00400607
0.00463636
0.00529849
0.0059937
0.00672322
0.00748835
0.00829042
0.0091308
0.0100109
0.010932
0.0118958
0.0129035
0.0139567
0.0150569
0.0162055
0.0174042
0.0186543
0.0199573
0.0213146
0.0227278
0.0241981
0.0257269
0.0273154
0.0289647
0.030676
0.0324502
0.0342881
0.0361903
0.0381574
0.0401898
0.0422874
0.0444503
0.0466779
0.0489698
0.051325
0.0537422
0.0562199
0.058756
0.0613484
0.0639942
0.0666904
0.0694333
0.0722189
0.0750427
0.0778997
0.0807846
0.0836913
0.0866135
0.0895444
0.0924766
0.0954024
0.0983138
0.101202
0.104059
0.106875
0.109641
0.112348
0.114986
0.117547
0.12002
0.122396
0.124668
0.126826
0.128863
0.130772
0.132546
0.134179
0.135668
0.137007
0.138195
0.139231
0.140113
0.140843
0.141424
0.141859
0.142153
0.142313
0.142346
0.142262
0.142071
0.141783
0.141412
0.140972
0.140475
0.139938
0.139375
0.138804
0.138241
0.1377
0.137199
0.136753
0.136377
0.136077
0.135851
0.000785345
0.000717352
0.000619801
0.000493103
0.000339434
0.000162842
-3.27681e-05
-0.000243726
-0.000466492
-0.000697703
-0.000934208
-0.00117313
-0.00141186
-0.00164807
-0.00187971
-0.00210502
-0.00232249
-0.00253084
-0.00272901
-0.00291614
-0.00309155
-0.00325471
-0.00340522
-0.00354279
-0.0036672
-0.00377832
-0.00387611
-0.00396055
-0.00403165
-0.00408943
-0.00413394
-0.00416523
-0.00418333
-0.00418829
-0.00418014
-0.00415887
-0.00412445
-0.00407682
-0.00401592
-0.00394164
-0.00385384
-0.00375235
-0.00363697
-0.00350747
-0.00336355
-0.00320492
-0.00303125
-0.00284215
-0.00263723
-0.00241604
-0.00217811
-0.00192293
-0.00164994
-0.00135855
-0.00104816
-0.000718108
-0.000367711
3.75159e-06
0.000397042
0.000812959
0.00125234
0.00171606
0.00220505
0.00272025
0.00326264
0.00383326
0.00443317
0.00506347
0.00572529
0.00641982
0.00714827
0.00791188
0.00871194
0.00954977
0.0104267
0.0113441
0.0123034
0.013306
0.0143533
0.0154467
0.0165877
0.0177778
0.0190183
0.0203107
0.0216564
0.0230568
0.0245132
0.0260268
0.0275989
0.0292306
0.030923
0.0326768
0.0344931
0.0363723
0.0383151
0.0403217
0.0423923
0.0445268
0.0467248
0.0489857
0.0513087
0.0536925
0.0561358
0.0586365
0.0611925
0.0638011
0.0664594
0.0691638
0.0719104
0.074695
0.0775126
0.0803579
0.0832254
0.0861086
0.089001
0.0918954
0.0947843
0.0976598
0.100514
0.103337
0.106121
0.108858
0.111537
0.114149
0.116685
0.119137
0.121495
0.12375
0.125894
0.12792
0.129821
0.13159
0.133221
0.13471
0.136053
0.137248
0.138292
0.139187
0.139932
0.140531
0.140986
0.141303
0.141488
0.141549
0.141493
0.141332
0.141075
0.140734
0.140323
0.139855
0.139343
0.138802
0.138246
0.13769
0.137148
0.136633
0.136158
0.135737
0.135362
0.13502
0.00110246
0.000993278
0.000867147
0.000720958
0.000552851
0.000366386
0.000165059
-4.80679e-05
-0.000270021
-0.000497962
-0.000729238
-0.000961396
-0.0011922
-0.00141965
-0.001642
-0.00185773
-0.00206552
-0.00226427
-0.00245305
-0.0026311
-0.00279783
-0.00295276
-0.00309555
-0.00322591
-0.00334364
-0.00344863
-0.0035408
-0.00362014
-0.00368661
-0.00374023
-0.003781
-0.00380894
-0.00382406
-0.00382637
-0.00381587
-0.0037925
-0.00375621
-0.00370691
-0.00364451
-0.00356886
-0.00347981
-0.00337718
-0.00326073
-0.0031302
-0.0029853
-0.00282572
-0.00265111
-0.00246109
-0.00225525
-0.00203315
-0.00179431
-0.00153822
-0.00126433
-0.000972068
-0.000660819
-0.00032995
2.12129e-05
0.000393377
0.000787283
0.00120371
0.00164348
0.00210744
0.00259649
0.00311155
0.00365358
0.00422356
0.00482253
0.00545155
0.00611173
0.00680421
0.00753015
0.00829076
0.0090873
0.00992102
0.0107932
0.0117053
0.0126584
0.0136541
0.0146937
0.0157786
0.0169103
0.0180899
0.0193191
0.0205992
0.0219315
0.0233174
0.0247581
0.0262549
0.027809
0.0294215
0.0310935
0.0328257
0.0346191
0.0364743
0.0383917
0.0403718
0.0424148
0.0445204
0.0466886
0.0489186
0.0512097
0.0535609
0.0559706
0.0584371
0.0609582
0.0635316
0.0661542
0.0688227
0.0715334
0.074282
0.077064
0.0798741
0.0827068
0.085556
0.0884152
0.0912775
0.0941356
0.0969815
0.0998073
0.102604
0.105364
0.108078
0.110736
0.11333
0.11585
0.118288
0.120634
0.12288
0.125018
0.12704
0.128938
0.130708
0.132342
0.133836
0.135187
0.136391
0.137447
0.138356
0.139117
0.139733
0.140207
0.140544
0.140751
0.140833
0.140801
0.140662
0.140428
0.140109
0.139718
0.139267
0.138769
0.138237
0.137685
0.137124
0.136567
0.136026
0.135512
0.135037
0.13458
0.134118
0.00144983
0.00129639
0.00113864
0.000969916
0.000784233
0.000584724
0.000374528
0.000156145
-6.79941e-05
-0.000295547
-0.000524301
-0.000752205
-0.000977393
-0.0011982
-0.00141317
-0.00162102
-0.00182064
-0.0020111
-0.00219163
-0.00236159
-0.00252049
-0.00266792
-0.00280357
-0.00292721
-0.00303868
-0.00313787
-0.00322471
-0.00329917
-0.00336121
-0.00341081
-0.00344798
-0.00347269
-0.00348496
-0.00348474
-0.00347199
-0.00344665
-0.00340862
-0.00335781
-0.00329407
-0.00321725
-0.00312718
-0.00302363
-0.00290637
-0.00277511
-0.00262955
-0.00246937
-0.00229421
-0.00210368
-0.00189738
-0.00167485
-0.00143563
-0.00117919
-0.000904991
-0.000612475
-0.000301043
2.99315e-05
0.000381107
0.000753174
0.00114686
0.00156291
0.00200214
0.00246537
0.00295346
0.00346731
0.00400784
0.00457601
0.00517282
0.00579931
0.00645652
0.00714557
0.00786759
0.00862375
0.00941524
0.0102433
0.0111092
0.0120142
0.0129596
0.0139467
0.0149769
0.0160515
0.0171719
0.0183394
0.0195555
0.0208214
0.0221384
0.023508
0.0249313
0.0264096
0.0279441
0.0295358
0.0311857
0.0328949
0.0346641
0.0364939
0.038385
0.0403377
0.0423522
0.0444285
0.0465663
0.0487653
0.0510247
0.0533434
0.0557202
0.0581533
0.0606409
0.0631804
0.0657692
0.0684041
0.0710814
0.0737971
0.0765467
0.0793252
0.0821272
0.0849468
0.0877776
0.090613
0.0934455
0.0962677
0.0990716
0.101849
0.104591
0.107288
0.109933
0.112515
0.115027
0.117457
0.119799
0.122043
0.12418
0.126204
0.128107
0.129883
0.131525
0.133029
0.134392
0.135609
0.13668
0.137604
0.138382
0.139015
0.139508
0.139864
0.140089
0.140191
0.140176
0.140055
0.139837
0.139532
0.139153
0.138711
0.138217
0.137685
0.137125
0.13655
0.135969
0.135393
0.134832
0.134296
0.133753
0.133172
0.00181944
0.00161972
0.00142815
0.00123453
0.00102874
0.000813566
0.000591877
0.000365623
0.00013672
-9.29298e-05
-0.000321517
-0.000547382
-0.000769026
-0.000985108
-0.00119444
-0.00139598
-0.00158884
-0.00177226
-0.00194565
-0.00210849
-0.00226041
-0.00240107
-0.00253022
-0.00264768
-0.00275335
-0.00284713
-0.00292898
-0.00299884
-0.00305669
-0.0031025
-0.00313626
-0.00315794
-0.00316751
-0.00316492
-0.00315009
-0.00312294
-0.00308336
-0.0030312
-0.00296633
-0.00288856
-0.0027977
-0.0026935
-0.0025757
-0.00244402
-0.00229813
-0.00213771
-0.00196239
-0.00177177
-0.00156545
-0.00134298
-0.00110388
-0.000847635
-0.000573719
-0.000281576
2.93799e-05
0.00035976
0.000710208
0.0010814
0.00147403
0.00188885
0.00232662
0.00278816
0.00327428
0.00378586
0.00432379
0.004889
0.00548245
0.00610513
0.00675808
0.00744235
0.00815904
0.00890928
0.00969423
0.0105151
0.011373
0.0122693
0.0132053
0.0141821
0.0152011
0.0162636
0.017371
0.0185246
0.0197256
0.0209755
0.0222755
0.0236269
0.025031
0.026489
0.0280021
0.0295713
0.0311977
0.0328822
0.0346257
0.0364289
0.0382924
0.0402165
0.0422016
0.0442478
0.0463548
0.0485224
0.0507498
0.0530362
0.0553804
0.0577808
0.0602356
0.0627426
0.065299
0.067902
0.0705481
0.0732333
0.0759533
0.0787034
0.0814782
0.0842721
0.0870789
0.0898918
0.0927039
0.0955076
0.098295
0.101058
0.103788
0.106476
0.109113
0.111691
0.1142
0.11663
0.118974
0.121222
0.123367
0.125399
0.127313
0.1291
0.130756
0.132275
0.133653
0.134888
0.135977
0.136919
0.137715
0.138367
0.138878
0.139252
0.139495
0.139612
0.139613
0.139505
0.139298
0.139001
0.138627
0.138186
0.137689
0.137148
0.136573
0.135975
0.135363
0.134745
0.134131
0.133531
0.132902
0.132203
0.00220402
0.00195677
0.0017298
0.00150948
0.00128159
0.00104865
0.000813272
0.000576937
0.000341095
0.000107237
-0.000123226
-0.000349007
-0.000568951
-0.000782016
-0.000987285
-0.00118396
-0.00137136
-0.00154895
-0.00171626
-0.00187294
-0.00201871
-0.00215332
-0.00227661
-0.00238848
-0.00248885
-0.00257767
-0.0026549
-0.00272051
-0.00277447
-0.00281676
-0.00284735
-0.00286622
-0.00287331
-0.00286855
-0.00285186
-0.00282311
-0.00278217
-0.0027289
-0.00266312
-0.00258465
-0.00249325
-0.00238867
-0.00227062
-0.00213882
-0.00199295
-0.00183264
-0.00165755
-0.00146726
-0.00126137
-0.00103942
-0.000800944
-0.000545434
-0.00027237
1.87935e-05
0.000328629
0.000657734
0.00100673
0.00137628
0.00176706
0.00217979
0.00261522
0.00307412
0.00355729
0.00406556
0.00459981
0.00516092
0.00574982
0.00636747
0.00701485
0.007693
0.00840296
0.00914584
0.00992275
0.0107348
0.0115833
0.0124693
0.013394
0.0143588
0.0153649
0.0164136
0.0175062
0.0186439
0.0198281
0.0210601
0.0223412
0.0236726
0.0250556
0.0264915
0.0279813
0.0295263
0.0311274
0.0327857
0.034502
0.036277
0.0381115
0.0400059
0.0419605
0.0439756
0.046051
0.0481865
0.0503816
0.0526355
0.0549471
0.0573151
0.0597377
0.0622129
0.0647382
0.0673107
0.0699273
0.0725841
0.075277
0.0780013
0.0807521
0.0835237
0.08631
0.0891047
0.0919006
0.0946905
0.0974665
0.100221
0.102944
0.105628
0.108265
0.110844
0.113356
0.115793
0.118146
0.120405
0.122562
0.124609
0.126539
0.128344
0.13002
0.131559
0.132958
0.134214
0.135324
0.136288
0.137105
0.137778
0.138308
0.1387
0.138959
0.139091
0.139104
0.139006
0.138806
0.138514
0.13814
0.137694
0.137187
0.136631
0.136034
0.135406
0.134756
0.134092
0.133422
0.132755
0.13204
0.131229
0.00259695
0.00230144
0.002038
0.00178963
0.00153811
0.00128569
0.00103485
0.000786608
0.000542006
0.000302137
6.80347e-05
-0.000159367
-0.000379229
-0.000590801
-0.000793423
-0.000986545
-0.00116971
-0.00134257
-0.00150483
-0.00165626
-0.00179669
-0.001926
-0.00204411
-0.00215097
-0.00224657
-0.0023309
-0.00240393
-0.00246566
-0.00251607
-0.00255516
-0.00258288
-0.00259922
-0.00260408
-0.0025974
-0.00257907
-0.00254895
-0.0025069
-0.00245275
-0.00238633
-0.0023074
-0.00221573
-0.00211105
-0.00199306
-0.00186147
-0.00171594
-0.00155611
-0.00138162
-0.00119207
-0.000987032
-0.000766069
-0.000528704
-0.000274448
-2.78778e-06
0.00028681
0.000594903
0.000922072
0.00126892
0.00163609
0.00202424
0.00243406
0.00286628
0.00332162
0.00380088
0.00430484
0.00483434
0.00539024
0.00597343
0.00658482
0.00722538
0.00789608
0.00859795
0.00933204
0.0100994
0.0109012
0.0117386
0.0126126
0.0135246
0.0144756
0.0154671
0.0165001
0.017576
0.018696
0.0198615
0.0210737
0.0223339
0.0236435
0.0250035
0.0264154
0.0278801
0.029399
0.0309731
0.0326034
0.0342908
0.0360362
0.0378402
0.0397034
0.0416264
0.0436092
0.0456521
0.0477547
0.0499169
0.0521378
0.0544167
0.0567523
0.059143
0.0615869
0.0640818
0.0666249
0.0692133
0.0718433
0.074511
0.077212
0.0799413
0.0826934
0.0854627
0.0882426
0.0910263
0.0938066
0.0965758
0.0993257
0.102048
0.104734
0.107375
0.109961
0.112483
0.114932
0.1173
0.119576
0.121752
0.123821
0.125773
0.127602
0.129302
0.130867
0.132292
0.133574
0.13471
0.135699
0.13654
0.137235
0.137787
0.138198
0.138474
0.138621
0.138645
0.138555
0.138359
0.138067
0.137688
0.137234
0.136712
0.136135
0.135511
0.13485
0.134158
0.133443
0.132715
0.13198
0.131181
0.130262
0.0029922
0.00264807
0.00234744
0.00207005
0.0017937
0.00152048
0.00125273
0.000991097
0.000736219
0.000488817
0.000249565
1.90716e-05
-0.00020212
-0.000413538
-0.000614785
-0.000805556
-0.000985615
-0.00115479
-0.00131294
-0.00145999
-0.00159588
-0.00172062
-0.00183421
-0.00193668
-0.00202806
-0.00210838
-0.00217767
-0.00223593
-0.00228318
-0.00231941
-0.00234459
-0.00235869
-0.00236162
-0.0023533
-0.00233359
-0.00230237
-0.00225946
-0.00220471
-0.00213789
-0.00205878
-0.00196712
-0.00186262
-0.00174499
-0.00161392
-0.00146906
-0.00131006
-0.00113655
-0.000948121
-0.000744359
-0.000524818
-0.000289036
-3.65303e-05
0.000233198
0.00052067
0.000826425
0.00115103
0.00149506
0.00185914
0.00224391
0.00265003
0.00307819
0.00352911
0.00400352
0.00450219
0.00502592
0.00557553
0.00615187
0.00675582
0.00738831
0.00805028
0.00874271
0.00946661
0.010223
0.011013
0.0118377
0.0126982
0.0135957
0.0145313
0.0155063
0.0165219
0.0175793
0.0186798
0.0198247
0.0210152
0.0222527
0.0235384
0.0248736
0.0262595
0.0276973
0.0291883
0.0307334
0.0323339
0.0339907
0.0357047
0.0374767
0.0393073
0.0411972
0.0431465
0.0451557
0.0472245
0.0493529
0.0515403
0.0537859
0.0560888
0.0584475
0.0608604
0.0633253
0.0658398
0.068401
0.0710055
0.0736496
0.0763289
0.0790389
0.0817741
0.084529
0.0872973
0.0900722
0.0928467
0.0956131
0.0983634
0.101089
0.103782
0.106432
0.10903
0.111568
0.114036
0.116424
0.118723
0.120925
0.12302
0.125002
0.126861
0.128591
0.130188
0.131644
0.132957
0.134123
0.135141
0.13601
0.136731
0.137306
0.137738
0.138032
0.138194
0.138229
0.138146
0.137952
0.137658
0.137273
0.136805
0.136266
0.135665
0.13501
0.134311
0.133574
0.132806
0.132018
0.131216
0.130335
0.129312
0.00338418
0.00299131
0.00265308
0.00234596
0.00204388
0.00174883
0.00146306
0.00118683
0.000920424
0.000664205
0.000418525
0.000183686
-4.00519e-05
-0.000252494
-0.000453504
-0.000643012
-0.000820986
-0.000987426
-0.00114236
-0.00128586
-0.00141799
-0.00153887
-0.0016486
-0.00174728
-0.001835
-0.00191184
-0.00197785
-0.00203308
-0.00207757
-0.00211132
-0.00213432
-0.00214651
-0.00214782
-0.00213814
-0.00211735
-0.0020853
-0.00204183
-0.00198673
-0.0019198
-0.00184078
-0.00174939
-0.00164537
-0.0015284
-0.00139815
-0.00125429
-0.00109645
-0.000924268
-0.000737338
-0.00053524
-0.000317539
-8.37804e-05
0.000166504
0.000433802
0.000718618
0.00102147
0.00134291
0.0016835
0.00204382
0.0024245
0.00282616
0.00324947
0.00369511
0.00416378
0.00465622
0.00517319
0.00571546
0.00628386
0.00687923
0.00750245
0.00815443
0.00883611
0.00954846
0.0102925
0.0110692
0.0118797
0.0127251
0.0136064
0.014525
0.0154818
0.0164781
0.0175153
0.0185944
0.0197168
0.0208838
0.0220966
0.0233565
0.0246649
0.0260229
0.0274318
0.0288929
0.0304073
0.0319762
0.0336006
0.0352815
0.0370197
0.0388161
0.0406713
0.0425858
0.04456
0.0465938
0.0486874
0.0508404
0.0530521
0.0553218
0.0576483
0.06003
0.0624651
0.0649512
0.0674858
0.0700657
0.0726873
0.0753465
0.0780388
0.0807592
0.0835021
0.0862614
0.0890305
0.0918025
0.0945697
0.0973242
0.100058
0.102761
0.105426
0.108042
0.110601
0.113092
0.115507
0.117835
0.120068
0.122197
0.124213
0.126108
0.127875
0.129508
0.131002
0.132351
0.133552
0.134604
0.135505
0.136256
0.136858
0.137313
0.137627
0.137804
0.137851
0.137775
0.137583
0.137286
0.136891
0.136409
0.135849
0.135221
0.134533
0.133793
0.133009
0.132188
0.131338
0.13047
0.129509
0.128388
0.00376766
0.00332615
0.00295007
0.00261274
0.00228431
0.00196667
0.00166199
0.00137021
0.00109124
0.000825146
0.000571971
0.000331731
0.000104397
-0.000110107
-0.000311894
-0.00050111
-0.000677922
-0.000842506
-0.000995056
-0.00113578
-0.0012649
-0.00138262
-0.00148913
-0.00158463
-0.00166924
-0.0017431
-0.00180632
-0.00185898
-0.00190113
-0.00193281
-0.00195398
-0.00196461
-0.00196462
-0.0019539
-0.00193233
-0.00189975
-0.00185598
-0.00180083
-0.00173404
-0.00165538
-0.00156455
-0.00146128
-0.00134524
-0.00121611
-0.00107355
-0.000917195
-0.000746672
-0.000561582
-0.000361512
-0.000146035
8.52904e-05
0.000332921
0.000597327
0.000878995
0.00117843
0.00149614
0.00183269
0.00218863
0.00256454
0.00296104
0.00337875
0.00381831
0.0042804
0.00476572
0.00527498
0.00580892
0.00636833
0.00695402
0.00756681
0.00820759
0.00887724
0.00957671
0.010307
0.011069
0.0118638
0.0126925
0.0135562
0.0144559
0.0153929
0.0163683
0.0173833
0.0184393
0.0195373
0.0206788
0.0218651
0.0230973
0.0243769
0.0257051
0.0270832
0.0285125
0.0299942
0.0315296
0.0331197
0.0347656
0.0364684
0.0382289
0.0400479
0.041926
0.0438637
0.0458612
0.0479188
0.0500363
0.0522133
0.054449
0.0567426
0.0590928
0.0614979
0.0639558
0.0664641
0.0690198
0.0716197
0.0742598
0.0769359
0.079643
0.0823758
0.0851283
0.0878942
0.0906664
0.0934376
0.0961998
0.0989446
0.101663
0.104347
0.106985
0.10957
0.11209
0.114537
0.1169
0.119171
0.121338
0.123395
0.125332
0.127143
0.128819
0.130355
0.131746
0.132988
0.134079
0.135017
0.135801
0.136433
0.136916
0.137252
0.137447
0.137507
0.137438
0.137249
0.136948
0.136544
0.136046
0.135463
0.134806
0.134082
0.133301
0.132469
0.131592
0.130682
0.129748
0.12871
0.127495
0.00413774
0.00364777
0.00323379
0.00286598
0.00251076
0.00216995
0.0018457
0.0015376
0.00124525
0.00096842
0.000706876
0.00046034
0.000228502
1.10303e-05
-0.00019242
-0.000382205
-0.000558681
-0.000722205
-0.000873137
-0.00101183
-0.00113863
-0.00125386
-0.00135779
-0.00145067
-0.00153272
-0.00160413
-0.00166505
-0.00171559
-0.00175584
-0.00178583
-0.00180556
-0.00181498
-0.00181402
-0.00180258
-0.00178053
-0.00174771
-0.00170393
-0.00164898
-0.00158262
-0.00150457
-0.00141456
-0.0013123
-0.00119746
-0.00106972
-0.000928735
-0.000774148
-0.000605583
-0.000422646
-0.000224933
-1.20287e-05
0.000216495
0.000461079
0.000722177
0.00100025
0.00129578
0.00160927
0.00194123
0.00229221
0.00266274
0.00305342
0.00346482
0.00389757
0.00435228
0.00482963
0.00533029
0.00585496
0.00640439
0.00697934
0.0075806
0.00820902
0.00886543
0.00955075
0.0102659
0.0110118
0.0117895
0.0126
0.0134444
0.0143238
0.0152393
0.016192
0.0171833
0.0182142
0.0192861
0.0204003
0.0215581
0.0227607
0.0240096
0.025306
0.0266514
0.028047
0.029494
0.030994
0.0325479
0.034157
0.0358225
0.0375453
0.0393263
0.0411664
0.0430661
0.045026
0.0470463
0.049127
0.051268
0.0534689
0.0557289
0.058047
0.0604216
0.0628509
0.0653329
0.0678647
0.0704433
0.073065
0.0757256
0.0784207
0.0811448
0.0838924
0.0866571
0.0894321
0.09221
0.094983
0.0977426
0.10048
0.103187
0.105852
0.108467
0.111022
0.113506
0.115909
0.118222
0.120435
0.122539
0.124524
0.126383
0.128109
0.129694
0.131133
0.132422
0.133557
0.134536
0.135359
0.136026
0.136539
0.136902
0.137117
0.137192
0.137133
0.136947
0.136642
0.136229
0.135714
0.135109
0.134422
0.133662
0.132838
0.131956
0.131024
0.130054
0.129054
0.127941
0.126637
0.00448977
0.00395163
0.0034998
0.00310138
0.00271908
0.0023547
0.00201036
0.00168536
0.00137899
0.00109075
0.000820121
0.000566533
0.000329418
0.000108203
-9.76796e-05
-0.000288786
-0.000465665
-0.000628854
-0.000778877
-0.00091623
-0.00104138
-0.00115473
-0.00125666
-0.0013475
-0.00142753
-0.00149699
-0.00155608
-0.00160497
-0.00164373
-0.00167244
-0.00169109
-0.00169965
-0.00169806
-0.00168621
-0.00166398
-0.0016312
-0.00158768
-0.00153319
-0.00146748
-0.0013903
-0.00130135
-0.00120033
-0.00108693
-0.000960817
-0.000821656
-0.000669087
-0.000502738
-0.000322225
-0.000127156
8.28726e-05
0.000308272
0.000549466
0.000806884
0.00108097
0.00137218
0.00168099
0.00200788
0.00235337
0.00271797
0.00310222
0.00350668
0.00393192
0.00437853
0.00484713
0.00533836
0.00585288
0.00639139
0.00695461
0.00754331
0.00815825
0.00880028
0.00947023
0.010169
0.0108975
0.0116567
0.0124476
0.0132712
0.0141287
0.0150211
0.0159495
0.0169153
0.0179195
0.0189635
0.0200485
0.021176
0.0223471
0.0235634
0.0248262
0.0261368
0.0274967
0.0289072
0.0303698
0.0318856
0.0334561
0.0350824
0.0367657
0.038507
0.0403073
0.0421674
0.044088
0.0460695
0.0481121
0.050216
0.0523809
0.0546062
0.0568912
0.0592347
0.061635
0.0640902
0.066598
0.0691553
0.0717589
0.0744048
0.0770885
0.0798052
0.0825492
0.0853144
0.0880941
0.090881
0.0936674
0.0964449
0.0992047
0.101938
0.104634
0.107284
0.109877
0.112403
0.114852
0.117214
0.119478
0.121634
0.123674
0.125588
0.127369
0.12901
0.130503
0.131844
0.13303
0.134057
0.134924
0.135631
0.136179
0.136571
0.13681
0.136903
0.136856
0.136675
0.136368
0.135945
0.135415
0.134787
0.13407
0.133273
0.132406
0.131475
0.130488
0.129458
0.128394
0.127208
0.125817
0.00481933
0.00423336
0.00374381
0.00331473
0.0029052
0.00251698
0.00215219
0.00180987
0.00148901
0.00118882
0.000908507
0.000647238
0.0004042
0.000178588
-3.03806e-05
-0.000223465
-0.000401407
-0.000564921
-0.000714682
-0.000851321
-0.000975415
-0.00108748
-0.00118797
-0.0012773
-0.00135581
-0.00142382
-0.00148156
-0.00152922
-0.00156691
-0.00159472
-0.00161265
-0.00162069
-0.00161878
-0.00160682
-0.00158469
-0.00155221
-0.00150919
-0.00145539
-0.00139058
-0.00131446
-0.00122677
-0.0011272
-0.00101544
-0.000891163
-0.000754027
-0.000603682
-0.000439763
-0.000261898
-6.9708e-05
0.000137195
0.000359203
0.000596718
0.000850146
0.00111991
0.00140643
0.00171017
0.00203158
0.00237112
0.00272929
0.00310658
0.00350352
0.00392063
0.00435847
0.00481761
0.00529865