/*--------------------------------*- C++ -*----------------------------------*\
  =========                 |
  \\      /  F ield         | OpenFOAM: The Open Source CFD Toolbox
   \\    /   O peration     | Website:  https://openfoam.org
    \\  /    A nd           | Version:  7
     \\/     M anipulation  |
\*---------------------------------------------------------------------------*/
FoamFile
{
    version     2.0;
    format      ascii;
    class       volVectorField;
    location    "0.3875";
    object      U;
}
// * * * * * * * * * * * * * * * * * * * * * * * * * * * * * * * * * * * * * //

dimensions      [0 1 -1 0 0 0 0];

internalField   nonuniform List<vector> 
51200
(
(-1.33877e-08 5.9149e-09 0)
(-5.57602e-08 2.40469e-08 0)
(-1.19813e-07 3.04113e-08 0)
(-1.83735e-07 2.77123e-08 0)
(-2.2945e-07 2.01e-08 0)
(-2.4784e-07 1.00147e-08 0)
(-2.34266e-07 -1.127e-09 0)
(-1.86343e-07 -1.25158e-08 0)
(-1.03056e-07 -2.37701e-08 0)
(1.55552e-08 -3.4723e-08 0)
(1.68658e-07 -4.52678e-08 0)
(3.54953e-07 -5.5307e-08 0)
(5.72947e-07 -6.47696e-08 0)
(8.21068e-07 -7.36313e-08 0)
(1.09766e-06 -8.18995e-08 0)
(1.40098e-06 -8.959e-08 0)
(1.72925e-06 -9.67144e-08 0)
(2.08069e-06 -1.03283e-07 0)
(2.45356e-06 -1.0931e-07 0)
(2.84614e-06 -1.14813e-07 0)
(3.25677e-06 -1.1981e-07 0)
(3.68381e-06 -1.2432e-07 0)
(4.12568e-06 -1.28361e-07 0)
(4.58085e-06 -1.31955e-07 0)
(5.04785e-06 -1.35119e-07 0)
(5.52525e-06 -1.37871e-07 0)
(6.01168e-06 -1.40228e-07 0)
(6.50582e-06 -1.42207e-07 0)
(7.00641e-06 -1.43825e-07 0)
(7.51223e-06 -1.45099e-07 0)
(8.02212e-06 -1.46044e-07 0)
(8.53496e-06 -1.46675e-07 0)
(9.04968e-06 -1.47007e-07 0)
(9.56527e-06 -1.47054e-07 0)
(1.00808e-05 -1.4683e-07 0)
(1.05952e-05 -1.46351e-07 0)
(1.11077e-05 -1.45629e-07 0)
(1.16175e-05 -1.44676e-07 0)
(1.21238e-05 -1.43501e-07 0)
(1.26257e-05 -1.42117e-07 0)
(1.31225e-05 -1.40535e-07 0)
(1.36137e-05 -1.38767e-07 0)
(1.40985e-05 -1.36823e-07 0)
(1.45763e-05 -1.34711e-07 0)
(1.50466e-05 -1.32441e-07 0)
(1.55088e-05 -1.30022e-07 0)
(1.59623e-05 -1.27461e-07 0)
(1.64067e-05 -1.24767e-07 0)
(1.68415e-05 -1.21948e-07 0)
(1.72663e-05 -1.19012e-07 0)
(1.76808e-05 -1.15968e-07 0)
(1.80843e-05 -1.12822e-07 0)
(1.84768e-05 -1.09578e-07 0)
(1.88577e-05 -1.06244e-07 0)
(1.92268e-05 -1.02824e-07 0)
(1.95838e-05 -9.93251e-08 0)
(1.99283e-05 -9.57538e-08 0)
(2.02603e-05 -9.21149e-08 0)
(2.05793e-05 -8.8413e-08 0)
(2.08852e-05 -8.46523e-08 0)
(2.11778e-05 -8.08375e-08 0)
(2.14568e-05 -7.69727e-08 0)
(2.17222e-05 -7.30617e-08 0)
(2.19737e-05 -6.9108e-08 0)
(2.22111e-05 -6.51146e-08 0)
(2.24344e-05 -6.10852e-08 0)
(2.26435e-05 -5.7023e-08 0)
(2.28381e-05 -5.29314e-08 0)
(2.30182e-05 -4.88131e-08 0)
(2.31837e-05 -4.46704e-08 0)
(2.33345e-05 -4.05054e-08 0)
(2.34705e-05 -3.63201e-08 0)
(2.35917e-05 -3.21169e-08 0)
(2.36979e-05 -2.78978e-08 0)
(2.37892e-05 -2.36653e-08 0)
(2.38655e-05 -1.94215e-08 0)
(2.39268e-05 -1.5168e-08 0)
(2.39729e-05 -1.0906e-08 0)
(2.4004e-05 -6.63681e-09 0)
(2.40199e-05 -2.36228e-09 0)
(2.40207e-05 1.91464e-09 0)
(2.40064e-05 6.19073e-09 0)
(2.39769e-05 1.04634e-08 0)
(2.39323e-05 1.47313e-08 0)
(2.38725e-05 1.89936e-08 0)
(2.37977e-05 2.32493e-08 0)
(2.37079e-05 2.74963e-08 0)
(2.3603e-05 3.17318e-08 0)
(2.34831e-05 3.59529e-08 0)
(2.33484e-05 4.01572e-08 0)
(2.31988e-05 4.43428e-08 0)
(2.30344e-05 4.8508e-08 0)
(2.28554e-05 5.26502e-08 0)
(2.26617e-05 5.67663e-08 0)
(2.24536e-05 6.08534e-08 0)
(2.22311e-05 6.49087e-08 0)
(2.19943e-05 6.89289e-08 0)
(2.17434e-05 7.29104e-08 0)
(2.14785e-05 7.68488e-08 0)
(2.11998e-05 8.07407e-08 0)
(2.09075e-05 8.4583e-08 0)
(2.06018e-05 8.83722e-08 0)
(2.02828e-05 9.21037e-08 0)
(1.99508e-05 9.5772e-08 0)
(1.9606e-05 9.93711e-08 0)
(1.92488e-05 1.02896e-07 0)
(1.88793e-05 1.06341e-07 0)
(1.84979e-05 1.09701e-07 0)
(1.81048e-05 1.12973e-07 0)
(1.77006e-05 1.16148e-07 0)
(1.72854e-05 1.19219e-07 0)
(1.68597e-05 1.22179e-07 0)
(1.6424e-05 1.25019e-07 0)
(1.59785e-05 1.27733e-07 0)
(1.55239e-05 1.30315e-07 0)
(1.50606e-05 1.32756e-07 0)
(1.45892e-05 1.35045e-07 0)
(1.41101e-05 1.37171e-07 0)
(1.3624e-05 1.39127e-07 0)
(1.31315e-05 1.40904e-07 0)
(1.26333e-05 1.42494e-07 0)
(1.213e-05 1.43884e-07 0)
(1.16224e-05 1.45061e-07 0)
(1.11112e-05 1.46014e-07 0)
(1.05973e-05 1.46731e-07 0)
(1.00815e-05 1.472e-07 0)
(9.5647e-06 1.47409e-07 0)
(9.04783e-06 1.47347e-07 0)
(8.53187e-06 1.47001e-07 0)
(8.01786e-06 1.46354e-07 0)
(7.50687e-06 1.45391e-07 0)
(7.00001e-06 1.44094e-07 0)
(6.49847e-06 1.42448e-07 0)
(6.00345e-06 1.40442e-07 0)
(5.51622e-06 1.38062e-07 0)
(5.03812e-06 1.35289e-07 0)
(4.57053e-06 1.32099e-07 0)
(4.11489e-06 1.28474e-07 0)
(3.67267e-06 1.24398e-07 0)
(3.24538e-06 1.19857e-07 0)
(2.83462e-06 1.14833e-07 0)
(2.44204e-06 1.09302e-07 0)
(2.06931e-06 1.03243e-07 0)
(1.71812e-06 9.66455e-08 0)
(1.39022e-06 8.94958e-08 0)
(1.08738e-06 8.17776e-08 0)
(8.11361e-07 7.34754e-08 0)
(5.63916e-07 6.4582e-08 0)
(3.46729e-07 5.51021e-08 0)
(1.61384e-07 4.50635e-08 0)
(9.28116e-09 3.45271e-08 0)
(-1.08408e-07 2.35751e-08 0)
(-1.90805e-07 1.22806e-08 0)
(-2.376e-07 7.64345e-10 0)
(-2.49683e-07 -1.05695e-08 0)
(-2.29938e-07 -2.07628e-08 0)
(-1.83504e-07 -2.82044e-08 0)
(-1.18785e-07 -3.0749e-08 0)
(-5.19384e-08 -2.51908e-08 0)
(-1.02362e-08 -8.93051e-09 0)
(-2.86496e-08 4.45832e-08 0)
(-1.1325e-07 1.05015e-07 0)
(-2.27545e-07 1.18626e-07 0)
(-3.25405e-07 9.69893e-08 0)
(-3.73918e-07 5.30614e-08 0)
(-3.53313e-07 -4.2257e-09 0)
(-2.51339e-07 -6.8815e-08 0)
(-6.0862e-08 -1.36669e-07 0)
(2.21658e-07 -2.05295e-07 0)
(5.97259e-07 -2.73221e-07 0)
(1.06508e-06 -3.39495e-07 0)
(1.62285e-06 -4.03407e-07 0)
(2.26733e-06 -4.64434e-07 0)
(2.99474e-06 -5.2226e-07 0)
(3.80093e-06 -5.76731e-07 0)
(4.68153e-06 -6.27788e-07 0)
(5.63197e-06 -6.7541e-07 0)
(6.6476e-06 -7.19605e-07 0)
(7.72376e-06 -7.60407e-07 0)
(8.85583e-06 -7.97876e-07 0)
(1.00393e-05 -8.32091e-07 0)
(1.12696e-05 -8.63138e-07 0)
(1.25424e-05 -8.91111e-07 0)
(1.38534e-05 -9.1611e-07 0)
(1.51986e-05 -9.38237e-07 0)
(1.65739e-05 -9.57598e-07 0)
(1.79754e-05 -9.74292e-07 0)
(1.93995e-05 -9.88421e-07 0)
(2.08425e-05 -1.00009e-06 0)
(2.23009e-05 -1.00939e-06 0)
(2.37715e-05 -1.01644e-06 0)
(2.5251e-05 -1.02132e-06 0)
(2.67363e-05 -1.02414e-06 0)
(2.82247e-05 -1.02497e-06 0)
(2.97132e-05 -1.02392e-06 0)
(3.11991e-05 -1.02107e-06 0)
(3.268e-05 -1.0165e-06 0)
(3.41533e-05 -1.01031e-06 0)
(3.56168e-05 -1.00257e-06 0)
(3.70682e-05 -9.93349e-07 0)
(3.85055e-05 -9.82728e-07 0)
(3.99267e-05 -9.70779e-07 0)
(4.13298e-05 -9.57571e-07 0)
(4.27131e-05 -9.43171e-07 0)
(4.40748e-05 -9.27642e-07 0)
(4.54134e-05 -9.11045e-07 0)
(4.67274e-05 -8.9344e-07 0)
(4.80152e-05 -8.74882e-07 0)
(4.92756e-05 -8.55427e-07 0)
(5.05072e-05 -8.35127e-07 0)
(5.17088e-05 -8.14035e-07 0)
(5.28794e-05 -7.92199e-07 0)
(5.40178e-05 -7.69664e-07 0)
(5.51231e-05 -7.46472e-07 0)
(5.61942e-05 -7.22664e-07 0)
(5.72304e-05 -6.9828e-07 0)
(5.82307e-05 -6.73361e-07 0)
(5.91945e-05 -6.47944e-07 0)
(6.0121e-05 -6.22063e-07 0)
(6.10095e-05 -5.95749e-07 0)
(6.18594e-05 -5.69034e-07 0)
(6.26702e-05 -5.41948e-07 0)
(6.34412e-05 -5.14519e-07 0)
(6.41721e-05 -4.86772e-07 0)
(6.48623e-05 -4.58732e-07 0)
(6.55114e-05 -4.30423e-07 0)
(6.61191e-05 -4.01868e-07 0)
(6.66849e-05 -3.73088e-07 0)
(6.72086e-05 -3.44103e-07 0)
(6.76898e-05 -3.14934e-07 0)
(6.81283e-05 -2.85597e-07 0)
(6.85239e-05 -2.56109e-07 0)
(6.88763e-05 -2.26487e-07 0)
(6.91854e-05 -1.96747e-07 0)
(6.9451e-05 -1.66904e-07 0)
(6.96729e-05 -1.36975e-07 0)
(6.98511e-05 -1.06975e-07 0)
(6.99854e-05 -7.69171e-08 0)
(7.00758e-05 -4.68143e-08 0)
(7.01221e-05 -1.668e-08 0)
(7.01245e-05 1.34709e-08 0)
(7.00828e-05 4.36217e-08 0)
(6.99971e-05 7.3756e-08 0)
(6.98673e-05 1.03859e-07 0)
(6.96937e-05 1.33919e-07 0)
(6.94762e-05 1.63921e-07 0)
(6.92149e-05 1.93854e-07 0)
(6.89099e-05 2.237e-07 0)
(6.85615e-05 2.53441e-07 0)
(6.81697e-05 2.83059e-07 0)
(6.77348e-05 3.12538e-07 0)
(6.72569e-05 3.4186e-07 0)
(6.67364e-05 3.71006e-07 0)
(6.61735e-05 3.99957e-07 0)
(6.55685e-05 4.28691e-07 0)
(6.49218e-05 4.57185e-07 0)
(6.42337e-05 4.85418e-07 0)
(6.35047e-05 5.13363e-07 0)
(6.27351e-05 5.40993e-07 0)
(6.19256e-05 5.68281e-07 0)
(6.10765e-05 5.95198e-07 0)
(6.01886e-05 6.21717e-07 0)
(5.92624e-05 6.47807e-07 0)
(5.82985e-05 6.73431e-07 0)
(5.72978e-05 6.98554e-07 0)
(5.62609e-05 7.23137e-07 0)
(5.51888e-05 7.4714e-07 0)
(5.40823e-05 7.70524e-07 0)
(5.29423e-05 7.93248e-07 0)
(5.17699e-05 8.15271e-07 0)
(5.05661e-05 8.36542e-07 0)
(4.93321e-05 8.5701e-07 0)
(4.80692e-05 8.76621e-07 0)
(4.67786e-05 8.95324e-07 0)
(4.54616e-05 9.13069e-07 0)
(4.41198e-05 9.29797e-07 0)
(4.27547e-05 9.45443e-07 0)
(4.13679e-05 9.59942e-07 0)
(3.99612e-05 9.73229e-07 0)
(3.85363e-05 9.85241e-07 0)
(3.70952e-05 9.95911e-07 0)
(3.56398e-05 1.00517e-06 0)
(3.41724e-05 1.01293e-06 0)
(3.26952e-05 1.01912e-06 0)
(3.12105e-05 1.02365e-06 0)
(2.97207e-05 1.02646e-06 0)
(2.82285e-05 1.02744e-06 0)
(2.67365e-05 1.02653e-06 0)
(2.52476e-05 1.02362e-06 0)
(2.37647e-05 1.01864e-06 0)
(2.22909e-05 1.01148e-06 0)
(2.08294e-05 1.00203e-06 0)
(1.93836e-05 9.90206e-07 0)
(1.79569e-05 9.75906e-07 0)
(1.65531e-05 9.59042e-07 0)
(1.51757e-05 9.39512e-07 0)
(1.38287e-05 9.17203e-07 0)
(1.25161e-05 8.92002e-07 0)
(1.12421e-05 8.63814e-07 0)
(1.0011e-05 8.32554e-07 0)
(8.82704e-06 7.98136e-07 0)
(7.69478e-06 7.60462e-07 0)
(6.61879e-06 7.19446e-07 0)
(5.60367e-06 6.75036e-07 0)
(4.65406e-06 6.27208e-07 0)
(3.77458e-06 5.75955e-07 0)
(2.96979e-06 5.21295e-07 0)
(2.2441e-06 4.63308e-07 0)
(1.60166e-06 4.02155e-07 0)
(1.0462e-06 3.38118e-07 0)
(5.80815e-07 2.71695e-07 0)
(2.07603e-07 2.03665e-07 0)
(-7.2594e-08 1.35076e-07 0)
(-2.60507e-07 6.72697e-08 0)
(-3.59308e-07 2.39382e-09 0)
(-3.76239e-07 -5.55893e-08 0)
(-3.24824e-07 -9.99151e-08 0)
(-2.25315e-07 -1.21296e-07 0)
(-1.11667e-07 -1.07528e-07 0)
(-2.7475e-08 -4.83413e-08 0)
(-3.24229e-08 1.14579e-07 0)
(-1.23109e-07 2.21651e-07 0)
(-2.3194e-07 2.27368e-07 0)
(-3.00754e-07 1.58892e-07 0)
(-2.89661e-07 3.98509e-08 0)
(-1.7333e-07 -1.12042e-07 0)
(6.55449e-08 -2.8388e-07 0)
(4.37758e-07 -4.66344e-07 0)
(9.49112e-07 -6.52858e-07 0)
(1.6018e-06 -8.38946e-07 0)
(2.39537e-06 -1.0216e-06 0)
(3.32724e-06 -1.19875e-06 0)
(4.39331e-06 -1.36892e-06 0)
(5.58834e-06 -1.53108e-06 0)
(6.90642e-06 -1.68455e-06 0)
(8.34112e-06 -1.82896e-06 0)
(9.88572e-06 -1.9641e-06 0)
(1.15332e-05 -2.08991e-06 0)
(1.32767e-05 -2.2064e-06 0)
(1.51089e-05 -2.31369e-06 0)
(1.70229e-05 -2.41191e-06 0)
(1.90118e-05 -2.50126e-06 0)
(2.10687e-05 -2.58198e-06 0)
(2.3187e-05 -2.65428e-06 0)
(2.53602e-05 -2.71845e-06 0)
(2.75819e-05 -2.77473e-06 0)
(2.98461e-05 -2.82341e-06 0)
(3.21468e-05 -2.86476e-06 0)
(3.44783e-05 -2.89905e-06 0)
(3.6835e-05 -2.92655e-06 0)
(3.92117e-05 -2.94754e-06 0)
(4.16032e-05 -2.96229e-06 0)
(4.40046e-05 -2.97106e-06 0)
(4.64113e-05 -2.97411e-06 0)
(4.88186e-05 -2.97169e-06 0)
(5.12222e-05 -2.96405e-06 0)
(5.36181e-05 -2.95142e-06 0)
(5.60023e-05 -2.93404e-06 0)
(5.83711e-05 -2.91215e-06 0)
(6.07207e-05 -2.88595e-06 0)
(6.3048e-05 -2.85566e-06 0)
(6.53495e-05 -2.82148e-06 0)
(6.76222e-05 -2.78362e-06 0)
(6.98632e-05 -2.74227e-06 0)
(7.20698e-05 -2.6976e-06 0)
(7.42392e-05 -2.64981e-06 0)
(7.63689e-05 -2.59905e-06 0)
(7.84568e-05 -2.5455e-06 0)
(8.05004e-05 -2.48931e-06 0)
(8.24977e-05 -2.43063e-06 0)
(8.44467e-05 -2.36961e-06 0)
(8.63456e-05 -2.30639e-06 0)
(8.81926e-05 -2.2411e-06 0)
(8.9986e-05 -2.17388e-06 0)
(9.17244e-05 -2.10484e-06 0)
(9.34061e-05 -2.03409e-06 0)
(9.503e-05 -1.96176e-06 0)
(9.65947e-05 -1.88794e-06 0)
(9.8099e-05 -1.81274e-06 0)
(9.95418e-05 -1.73626e-06 0)
(0.000100922 -1.65858e-06 0)
(0.000102239 -1.57979e-06 0)
(0.000103491 -1.49998e-06 0)
(0.000104679 -1.41921e-06 0)
(0.0001058 -1.33758e-06 0)
(0.000106855 -1.25513e-06 0)
(0.000107842 -1.17195e-06 0)
(0.000108761 -1.0881e-06 0)
(0.000109612 -1.00362e-06 0)
(0.000110395 -9.18595e-07 0)
(0.000111107 -8.33062e-07 0)
(0.00011175 -7.47079e-07 0)
(0.000112323 -6.60697e-07 0)
(0.000112826 -5.73962e-07 0)
(0.000113257 -4.86921e-07 0)
(0.000113618 -3.99619e-07 0)
(0.000113908 -3.12102e-07 0)
(0.000114126 -2.24414e-07 0)
(0.000114273 -1.36598e-07 0)
(0.000114349 -4.86974e-08 0)
(0.000114353 3.92482e-08 0)
(0.000114285 1.27196e-07 0)
(0.000114146 2.15103e-07 0)
(0.000113935 3.02924e-07 0)
(0.000113653 3.90615e-07 0)
(0.000113299 4.78131e-07 0)
(0.000112874 5.65429e-07 0)
(0.000112379 6.52463e-07 0)
(0.000111813 7.39185e-07 0)
(0.000111176 8.25544e-07 0)
(0.000110469 9.11485e-07 0)
(0.000109693 9.96954e-07 0)
(0.000108847 1.0819e-06 0)
(0.000107932 1.16625e-06 0)
(0.00010695 1.24995e-06 0)
(0.000105899 1.33294e-06 0)
(0.000104781 1.41514e-06 0)
(0.000103597 1.49648e-06 0)
(0.000102347 1.57688e-06 0)
(0.000101033 1.65627e-06 0)
(9.96539e-05 1.73456e-06 0)
(9.82122e-05 1.81165e-06 0)
(9.67085e-05 1.88746e-06 0)
(9.51439e-05 1.96188e-06 0)
(9.35196e-05 2.03482e-06 0)
(9.18369e-05 2.10616e-06 0)
(9.00971e-05 2.17579e-06 0)
(8.83018e-05 2.24358e-06 0)
(8.64525e-05 2.30942e-06 0)
(8.45508e-05 2.37317e-06 0)
(8.25985e-05 2.4347e-06 0)
(8.05975e-05 2.49387e-06 0)
(7.85499e-05 2.55053e-06 0)
(7.64576e-05 2.60451e-06 0)
(7.43231e-05 2.65567e-06 0)
(7.21487e-05 2.70383e-06 0)
(6.99369e-05 2.74882e-06 0)
(6.76903e-05 2.79046e-06 0)
(6.54118e-05 2.82856e-06 0)
(6.31043e-05 2.86292e-06 0)
(6.0771e-05 2.89335e-06 0)
(5.84152e-05 2.91964e-06 0)
(5.60402e-05 2.94159e-06 0)
(5.36498e-05 2.95896e-06 0)
(5.12476e-05 2.97153e-06 0)
(4.88378e-05 2.97906e-06 0)
(4.64245e-05 2.98132e-06 0)
(4.40119e-05 2.97807e-06 0)
(4.16048e-05 2.96904e-06 0)
(3.92078e-05 2.95399e-06 0)
(3.68259e-05 2.93266e-06 0)
(3.44641e-05 2.90479e-06 0)
(3.2128e-05 2.87008e-06 0)
(2.9823e-05 2.82827e-06 0)
(2.7555e-05 2.7791e-06 0)
(2.53297e-05 2.72229e-06 0)
(2.31535e-05 2.65759e-06 0)
(2.10326e-05 2.58472e-06 0)
(1.89736e-05 2.50341e-06 0)
(1.69832e-05 2.41344e-06 0)
(1.50681e-05 2.3146e-06 0)
(1.32353e-05 2.20671e-06 0)
(1.14919e-05 2.08961e-06 0)
(9.84485e-06 1.96318e-06 0)
(8.30129e-06 1.82743e-06 0)
(6.86809e-06 1.68245e-06 0)
(5.55198e-06 1.52847e-06 0)
(4.35937e-06 1.36587e-06 0)
(3.29612e-06 1.1953e-06 0)
(2.36741e-06 1.01773e-06 0)
(1.57731e-06 8.34597e-07 0)
(9.28342e-07 6.4815e-07 0)
(4.20767e-07 4.61681e-07 0)
(5.21585e-08 2.79702e-07 0)
(-1.83186e-07 1.0822e-07 0)
(-2.95669e-07 -4.41543e-08 0)
(-3.02667e-07 -1.64388e-07 0)
(-2.30902e-07 -2.33239e-07 0)
(-1.21928e-07 -2.2645e-07 0)
(-3.21063e-08 -1.16048e-07 0)
(-2.86292e-08 1.81723e-07 0)
(-9.95735e-08 3.22089e-07 0)
(-1.62522e-07 2.97215e-07 0)
(-1.56727e-07 1.5307e-07 0)
(-4.00878e-08 -7.48547e-08 0)
(2.15423e-07 -3.59091e-07 0)
(6.29754e-07 -6.79045e-07 0)
(1.21604e-06 -1.01941e-06 0)
(1.9817e-06 -1.36885e-06 0)
(2.92985e-06 -1.71914e-06 0)
(4.06038e-06 -2.0644e-06 0)
(5.37066e-06 -2.40049e-06 0)
(6.85606e-06 -2.72448e-06 0)
(8.51046e-06 -3.03426e-06 0)
(1.03267e-05 -3.32839e-06 0)
(1.22967e-05 -3.60591e-06 0)
(1.44121e-05 -3.86627e-06 0)
(1.66642e-05 -4.10921e-06 0)
(1.90438e-05 -4.33464e-06 0)
(2.15418e-05 -4.54266e-06 0)
(2.41493e-05 -4.73347e-06 0)
(2.6857e-05 -4.90737e-06 0)
(2.96562e-05 -5.06473e-06 0)
(3.25379e-05 -5.20595e-06 0)
(3.54936e-05 -5.33148e-06 0)
(3.8515e-05 -5.44181e-06 0)
(4.15938e-05 -5.53742e-06 0)
(4.47223e-05 -5.61882e-06 0)
(4.78926e-05 -5.68651e-06 0)
(5.10974e-05 -5.741e-06 0)
(5.43296e-05 -5.7828e-06 0)
(5.75822e-05 -5.81242e-06 0)
(6.08487e-05 -5.83036e-06 0)
(6.41226e-05 -5.8371e-06 0)
(6.7398e-05 -5.83313e-06 0)
(7.06688e-05 -5.81892e-06 0)
(7.39296e-05 -5.79493e-06 0)
(7.71749e-05 -5.76161e-06 0)
(8.03996e-05 -5.71939e-06 0)
(8.35989e-05 -5.66871e-06 0)
(8.67681e-05 -5.60997e-06 0)
(8.99028e-05 -5.54358e-06 0)
(9.29988e-05 -5.46991e-06 0)
(9.6052e-05 -5.38934e-06 0)
(9.90587e-05 -5.30222e-06 0)
(0.000102015 -5.20892e-06 0)
(0.000104918 -5.10976e-06 0)
(0.000107764 -5.00507e-06 0)
(0.000110551 -4.89515e-06 0)
(0.000113274 -4.7803e-06 0)
(0.000115932 -4.66081e-06 0)
(0.000118522 -4.53694e-06 0)
(0.000121041 -4.40897e-06 0)
(0.000123488 -4.27715e-06 0)
(0.00012586 -4.14171e-06 0)
(0.000128155 -4.00289e-06 0)
(0.000130371 -3.86089e-06 0)
(0.000132507 -3.71594e-06 0)
(0.00013456 -3.56823e-06 0)
(0.00013653 -3.41795e-06 0)
(0.000138414 -3.26528e-06 0)
(0.000140212 -3.1104e-06 0)
(0.000141922 -2.95346e-06 0)
(0.000143544 -2.79461e-06 0)
(0.000145075 -2.63402e-06 0)
(0.000146515 -2.47181e-06 0)
(0.000147864 -2.30811e-06 0)
(0.00014912 -2.14307e-06 0)
(0.000150283 -1.97679e-06 0)
(0.000151351 -1.80938e-06 0)
(0.000152325 -1.64097e-06 0)
(0.000153203 -1.47165e-06 0)
(0.000153986 -1.30153e-06 0)
(0.000154673 -1.1307e-06 0)
(0.000155263 -9.59266e-07 0)
(0.000155756 -7.87306e-07 0)
(0.000156152 -6.14914e-07 0)
(0.00015645 -4.42178e-07 0)
(0.000156651 -2.69185e-07 0)
(0.000156754 -9.60227e-08 0)
(0.00015676 7.72248e-08 0)
(0.000156667 2.50473e-07 0)
(0.000156477 4.23638e-07 0)
(0.000156189 5.96633e-07 0)
(0.000155804 7.69369e-07 0)
(0.000155321 9.41756e-07 0)
(0.000154741 1.1137e-06 0)
(0.000154064 1.28511e-06 0)
(0.00015329 1.4559e-06 0)
(0.000152421 1.62595e-06 0)
(0.000151455 1.79516e-06 0)
(0.000150395 1.96343e-06 0)
(0.00014924 2.13064e-06 0)
(0.000147991 2.29666e-06 0)
(0.000146648 2.46138e-06 0)
(0.000145214 2.62466e-06 0)
(0.000143688 2.78637e-06 0)
(0.000142071 2.94635e-06 0)
(0.000140364 3.10446e-06 0)
(0.000138569 3.26054e-06 0)
(0.000136687 3.41441e-06 0)
(0.00013472 3.5659e-06 0)
(0.000132667 3.71482e-06 0)
(0.000130532 3.86097e-06 0)
(0.000128316 4.00417e-06 0)
(0.00012602 4.14417e-06 0)
(0.000123646 4.28078e-06 0)
(0.000121197 4.41373e-06 0)
(0.000118675 4.5428e-06 0)
(0.000116081 4.66772e-06 0)
(0.000113419 4.78823e-06 0)
(0.000110691 4.90405e-06 0)
(0.000107899 5.01488e-06 0)
(0.000105047 5.12043e-06 0)
(0.000102138 5.22037e-06 0)
(9.91746e-05 5.31439e-06 0)
(9.61608e-05 5.40214e-06 0)
(9.31002e-05 5.48327e-06 0)
(8.99965e-05 5.55741e-06 0)
(8.68538e-05 5.62419e-06 0)
(8.36764e-05 5.68322e-06 0)
(8.04688e-05 5.73409e-06 0)
(7.72356e-05 5.7764e-06 0)
(7.39819e-05 5.80972e-06 0)
(7.07127e-05 5.83362e-06 0)
(6.74335e-05 5.84764e-06 0)
(6.41499e-05 5.85132e-06 0)
(6.08679e-05 5.8442e-06 0)
(5.75936e-05 5.82578e-06 0)
(5.43334e-05 5.7956e-06 0)
(5.1094e-05 5.75315e-06 0)
(4.78824e-05 5.69793e-06 0)
(4.47056e-05 5.62945e-06 0)
(4.15712e-05 5.54718e-06 0)
(3.84869e-05 5.45062e-06 0)
(3.54606e-05 5.33928e-06 0)
(3.25005e-05 5.21268e-06 0)
(2.96151e-05 5.07036e-06 0)
(2.68129e-05 4.91186e-06 0)
(2.41027e-05 4.73677e-06 0)
(2.14935e-05 4.54475e-06 0)
(1.89944e-05 4.33553e-06 0)
(1.66144e-05 4.10891e-06 0)
(1.43627e-05 3.86479e-06 0)
(1.22482e-05 3.60327e-06 0)
(1.02798e-05 3.32464e-06 0)
(8.46592e-06 3.02949e-06 0)
(6.81435e-06 2.71878e-06 0)
(5.33224e-06 2.39397e-06 0)
(4.02563e-06 2.05714e-06 0)
(2.89921e-06 1.71122e-06 0)
(1.95567e-06 1.36039e-06 0)
(1.19495e-06 1.01066e-06 0)
(6.13299e-07 6.7051e-07 0)
(2.02823e-07 3.51257e-07 0)
(-4.91207e-08 6.77061e-08 0)
(-1.6172e-07 -1.59975e-07 0)
(-1.6343e-07 -3.03893e-07 0)
(-9.86859e-08 -3.27211e-07 0)
(-2.8301e-08 -1.83162e-07 0)
(-2.05645e-08 2.28984e-07 0)
(-5.47635e-08 3.72736e-07 0)
(-4.29617e-08 2.87752e-07 0)
(7.09829e-08 3.72308e-08 0)
(3.27824e-07 -3.31584e-07 0)
(7.5605e-07 -7.81651e-07 0)
(1.37638e-06 -1.28453e-06 0)
(2.20293e-06 -1.81873e-06 0)
(3.24403e-06 -2.36798e-06 0)
(4.50335e-06 -2.92001e-06 0)
(5.98096e-06 -3.4657e-06 0)
(7.6741e-06 -3.99839e-06 0)
(9.57778e-06 -4.51324e-06 0)
(1.16852e-05 -5.00678e-06 0)
(1.39884e-05 -5.47654e-06 0)
(1.6478e-05 -5.92079e-06 0)
(1.91444e-05 -6.33846e-06 0)
(2.19772e-05 -6.72892e-06 0)
(2.49658e-05 -7.09191e-06 0)
(2.80994e-05 -7.42743e-06 0)
(3.13671e-05 -7.7357e-06 0)
(3.47581e-05 -8.01708e-06 0)
(3.82617e-05 -8.27208e-06 0)
(4.18671e-05 -8.50126e-06 0)
(4.5564e-05 -8.7053e-06 0)
(4.93421e-05 -8.88489e-06 0)
(5.31915e-05 -9.04079e-06 0)
(5.71025e-05 -9.17375e-06 0)
(6.10657e-05 -9.28456e-06 0)
(6.5072e-05 -9.37401e-06 0)
(6.91125e-05 -9.44289e-06 0)
(7.31788e-05 -9.49201e-06 0)
(7.72626e-05 -9.52213e-06 0)
(8.13561e-05 -9.53405e-06 0)
(8.54516e-05 -9.52853e-06 0)
(8.9542e-05 -9.50631e-06 0)
(9.36202e-05 -9.46813e-06 0)
(9.76795e-05 -9.41472e-06 0)
(0.000101714 -9.34677e-06 0)
(0.000105716 -9.26496e-06 0)
(0.000109682 -9.16997e-06 0)
(0.000113605 -9.06243e-06 0)
(0.00011748 -8.94296e-06 0)
(0.000121302 -8.81218e-06 0)
(0.000125066 -8.67066e-06 0)
(0.000128768 -8.51896e-06 0)
(0.000132403 -8.35764e-06 0)
(0.000135967 -8.18721e-06 0)
(0.000139457 -8.00818e-06 0)
(0.000142869 -7.82104e-06 0)
(0.000146199 -7.62624e-06 0)
(0.000149444 -7.42424e-06 0)
(0.000152601 -7.21547e-06 0)
(0.000155667 -7.00033e-06 0)
(0.00015864 -6.77922e-06 0)
(0.000161516 -6.55251e-06 0)
(0.000164294 -6.32056e-06 0)
(0.000166972 -6.08372e-06 0)
(0.000169546 -5.84231e-06 0)
(0.000172016 -5.59664e-06 0)
(0.000174379 -5.347e-06 0)
(0.000176634 -5.09369e-06 0)
(0.000178779 -4.83696e-06 0)
(0.000180813 -4.57708e-06 0)
(0.000182734 -4.31428e-06 0)
(0.000184541 -4.04879e-06 0)
(0.000186233 -3.78084e-06 0)
(0.000187808 -3.51064e-06 0)
(0.000189267 -3.23838e-06 0)
(0.000190608 -2.96426e-06 0)
(0.00019183 -2.68845e-06 0)
(0.000192932 -2.41114e-06 0)
(0.000193915 -2.13248e-06 0)
(0.000194776 -1.85265e-06 0)
(0.000195517 -1.57181e-06 0)
(0.000196136 -1.29009e-06 0)
(0.000196633 -1.00766e-06 0)
(0.000197008 -7.24662e-07 0)
(0.00019726 -4.41233e-07 0)
(0.000197389 -1.57519e-07 0)
(0.000197396 1.26335e-07 0)
(0.000197281 4.10187e-07 0)
(0.000197042 6.93897e-07 0)
(0.000196681 9.77322e-07 0)
(0.000196198 1.26032e-06 0)
(0.000195592 1.54273e-06 0)
(0.000194864 1.82441e-06 0)
(0.000194015 2.10519e-06 0)
(0.000193044 2.38492e-06 0)
(0.000191953 2.66344e-06 0)
(0.000190742 2.94056e-06 0)
(0.000189412 3.2161e-06 0)
(0.000187963 3.48987e-06 0)
(0.000186396 3.76168e-06 0)
(0.000184712 4.03132e-06 0)
(0.000182913 4.29856e-06 0)
(0.000180999 4.56318e-06 0)
(0.000178971 4.82493e-06 0)
(0.000176831 5.08358e-06 0)
(0.000174581 5.33885e-06 0)
(0.000172221 5.59047e-06 0)
(0.000169754 5.83813e-06 0)
(0.000167181 6.08154e-06 0)
(0.000164504 6.32037e-06 0)
(0.000161726 6.55429e-06 0)
(0.000158848 6.78295e-06 0)
(0.000155874 7.00598e-06 0)
(0.000152805 7.22299e-06 0)
(0.000149644 7.43358e-06 0)
(0.000146395 7.63733e-06 0)
(0.00014306 7.8338e-06 0)
(0.000139642 8.02254e-06 0)
(0.000136146 8.20307e-06 0)
(0.000132574 8.37491e-06 0)
(0.000128932 8.53752e-06 0)
(0.000125222 8.69039e-06 0)
(0.000121449 8.83297e-06 0)
(0.000117618 8.96468e-06 0)
(0.000113733 9.08493e-06 0)
(0.000109801 9.19311e-06 0)
(0.000105825 9.2886e-06 0)
(0.000101812 9.37074e-06 0)
(9.77671e-05 9.43888e-06 0)
(9.36972e-05 9.49232e-06 0)
(8.96085e-05 9.53036e-06 0)
(8.55076e-05 9.5523e-06 0)
(8.14017e-05 9.55739e-06 0)
(7.72981e-05 9.54488e-06 0)
(7.32044e-05 9.51401e-06 0)
(6.91286e-05 9.46401e-06 0)
(6.50789e-05 9.39409e-06 0)
(6.10639e-05 9.30348e-06 0)
(5.70925e-05 9.19139e-06 0)
(5.31738e-05 9.05703e-06 0)
(4.93174e-05 8.89962e-06 0)
(4.55329e-05 8.71841e-06 0)
(4.18303e-05 8.51266e-06 0)
(3.82199e-05 8.28169e-06 0)
(3.47122e-05 8.02486e-06 0)
(3.13178e-05 7.74157e-06 0)
(2.80475e-05 7.43136e-06 0)
(2.49122e-05 7.09388e-06 0)
(2.19227e-05 6.72896e-06 0)
(1.90898e-05 6.33661e-06 0)
(1.64241e-05 5.9171e-06 0)
(1.3936e-05 5.47108e-06 0)
(1.16352e-05 4.99966e-06 0)
(9.5307e-06 4.50456e-06 0)
(7.63057e-06 3.98832e-06 0)
(5.94145e-06 3.4545e-06 0)
(4.4683e-06 2.90799e-06 0)
(3.21394e-06 2.35535e-06 0)
(2.17827e-06 1.80558e-06 0)
(1.35713e-06 1.2711e-06 0)
(7.41466e-07 7.68727e-07 0)
(3.17061e-07 3.20225e-07 0)
(6.39763e-08 -4.6552e-08 0)
(-4.5965e-08 -2.95204e-07 0)
(-5.47883e-08 -3.78234e-07 0)
(-2.0335e-08 -2.3114e-07 0)
(-1.03316e-08 2.4858e-07 0)
(2.86397e-09 3.54227e-07 0)
(1.09193e-07 1.73313e-07 0)
(3.5518e-07 -2.1701e-07 0)
(7.77506e-07 -7.5917e-07 0)
(1.40361e-06 -1.40737e-06 0)
(2.25346e-06 -2.1257e-06 0)
(3.34089e-06 -2.8865e-06 0)
(4.67431e-06 -3.66854e-06 0)
(6.25752e-06 -4.45546e-06 0)
(8.09053e-06 -5.23479e-06 0)
(1.01703e-05 -5.99711e-06 0)
(1.24915e-05 -6.73543e-06 0)
(1.50468e-05 -7.44461e-06 0)
(1.78273e-05 -8.12094e-06 0)
(2.0823e-05 -8.76178e-06 0)
(2.4023e-05 -9.36535e-06 0)
(2.74158e-05 -9.93055e-06 0)
(3.09893e-05 -1.04568e-05 0)
(3.47315e-05 -1.0944e-05 0)
(3.86298e-05 -1.13922e-05 0)
(4.26721e-05 -1.18019e-05 0)
(4.68457e-05 -1.21737e-05 0)
(5.11387e-05 -1.25083e-05 0)
(5.55388e-05 -1.28065e-05 0)
(6.00344e-05 -1.30694e-05 0)
(6.46138e-05 -1.32979e-05 0)
(6.92657e-05 -1.3493e-05 0)
(7.39792e-05 -1.3656e-05 0)
(7.87435e-05 -1.37878e-05 0)
(8.35485e-05 -1.38896e-05 0)
(8.8384e-05 -1.39625e-05 0)
(9.32405e-05 -1.40077e-05 0)
(9.81086e-05 -1.40262e-05 0)
(0.000102979 -1.40191e-05 0)
(0.000107844 -1.39876e-05 0)
(0.000112695 -1.39326e-05 0)
(0.000117524 -1.38552e-05 0)
(0.000122323 -1.37564e-05 0)
(0.000127086 -1.36373e-05 0)
(0.000131804 -1.34987e-05 0)
(0.000136473 -1.33416e-05 0)
(0.000141084 -1.3167e-05 0)
(0.000145633 -1.29756e-05 0)
(0.000150114 -1.27684e-05 0)
(0.000154521 -1.25461e-05 0)
(0.000158849 -1.23096e-05 0)
(0.000163093 -1.20596e-05 0)
(0.000167249 -1.17969e-05 0)
(0.000171312 -1.15222e-05 0)
(0.000175278 -1.12361e-05 0)
(0.000179144 -1.09394e-05 0)
(0.000182905 -1.06326e-05 0)
(0.000186558 -1.03163e-05 0)
(0.0001901 -9.99117e-06 0)
(0.000193528 -9.65773e-06 0)
(0.000196839 -9.3165e-06 0)
(0.00020003 -8.96798e-06 0)
(0.000203099 -8.61266e-06 0)
(0.000206042 -8.251e-06 0)
(0.00020886 -7.88342e-06 0)
(0.000211548 -7.51036e-06 0)
(0.000214105 -7.13221e-06 0)
(0.00021653 -6.74935e-06 0)
(0.000218821 -6.36213e-06 0)
(0.000220975 -5.9709e-06 0)
(0.000222993 -5.57598e-06 0)
(0.000224873 -5.17769e-06 0)
(0.000226612 -4.77633e-06 0)
(0.000228212 -4.37218e-06 0)
(0.000229669 -3.96552e-06 0)
(0.000230984 -3.5566e-06 0)
(0.000232156 -3.14567e-06 0)
(0.000233184 -2.73299e-06 0)
(0.000234068 -2.31877e-06 0)
(0.000234806 -1.90327e-06 0)
(0.000235399 -1.48669e-06 0)
(0.000235846 -1.06925e-06 0)
(0.000236147 -6.51184e-07 0)
(0.000236302 -2.32688e-07 0)
(0.000236311 1.86018e-07 0)
(0.000236173 6.04722e-07 0)
(0.000235889 1.02321e-06 0)
(0.000235458 1.44127e-06 0)
(0.000234882 1.85868e-06 0)
(0.000234159 2.27521e-06 0)
(0.000233292 2.69065e-06 0)
(0.000232279 3.10475e-06 0)
(0.000231122 3.51727e-06 0)
(0.000229821 3.92796e-06 0)
(0.000228376 4.33657e-06 0)
(0.00022679 4.74281e-06 0)
(0.000225062 5.1464e-06 0)
(0.000223194 5.54706e-06 0)
(0.000221187 5.94447e-06 0)
(0.000219041 6.3383e-06 0)
(0.000216759 6.72821e-06 0)
(0.000214342 7.11385e-06 0)
(0.000211791 7.49484e-06 0)
(0.000209108 7.8708e-06 0)
(0.000206295 8.2413e-06 0)
(0.000203355 8.60592e-06 0)
(0.000200288 8.96421e-06 0)
(0.000197099 9.31568e-06 0)
(0.000193788 9.65984e-06 0)
(0.000190359 9.99618e-06 0)
(0.000186816 1.03241e-05 0)
(0.000183159 1.06432e-05 0)
(0.000179394 1.09527e-05 0)
(0.000175524 1.1252e-05 0)
(0.000171552 1.15406e-05 0)
(0.000167482 1.18177e-05 0)
(0.000163319 1.20826e-05 0)
(0.000159066 1.23347e-05 0)
(0.000154729 1.25732e-05 0)
(0.000150313 1.27972e-05 0)
(0.000145822 1.3006e-05 0)
(0.000141262 1.31987e-05 0)
(0.000136639 1.33746e-05 0)
(0.000131959 1.35326e-05 0)
(0.000127229 1.3672e-05 0)
(0.000122454 1.37917e-05 0)
(0.000117642 1.38908e-05 0)
(0.000112801 1.39682e-05 0)
(0.000107937 1.40231e-05 0)
(0.00010306 1.40542e-05 0)
(9.81766e-05 1.40607e-05 0)
(9.32963e-05 1.40414e-05 0)
(8.84279e-05 1.39952e-05 0)
(8.35809e-05 1.3921e-05 0)
(7.87649e-05 1.38177e-05 0)
(7.39899e-05 1.36842e-05 0)
(6.92664e-05 1.35194e-05 0)
(6.46051e-05 1.33222e-05 0)
(6.0017e-05 1.30916e-05 0)
(5.55136e-05 1.28264e-05 0)
(5.11063e-05 1.25257e-05 0)
(4.68071e-05 1.21885e-05 0)
(4.2628e-05 1.18141e-05 0)
(3.85813e-05 1.14016e-05 0)
(3.46794e-05 1.09506e-05 0)
(3.09348e-05 1.04606e-05 0)
(2.73596e-05 9.93149e-06 0)
(2.39662e-05 9.36353e-06 0)
(2.07665e-05 8.7573e-06 0)
(1.7772e-05 8.1139e-06 0)
(1.49936e-05 7.43516e-06 0)
(1.24411e-05 6.72372e-06 0)
(1.01235e-05 5.98338e-06 0)
(8.04792e-06 5.21939e-06 0)
(6.21961e-06 4.43885e-06 0)
(4.6414e-06 3.65118e-06 0)
(3.31332e-06 2.86865e-06 0)
(2.23153e-06 2.10755e-06 0)
(1.38719e-06 1.38961e-06 0)
(7.65827e-07 7.43177e-07 0)
(3.47359e-07 2.04081e-07 0)
(1.04882e-07 -1.82865e-07 0)
(1.5136e-09 -3.60575e-07 0)
(-1.045e-08 -2.51286e-07 0)
(8.0542e-10 2.36182e-07 0)
(6.75094e-08 2.54346e-07 0)
(2.81272e-07 -6.36179e-08 0)
(6.75588e-07 -6.30093e-07 0)
(1.28114e-06 -1.37893e-06 0)
(2.12312e-06 -2.2569e-06 0)
(3.21975e-06 -3.22147e-06 0)
(4.58354e-06 -4.2392e-06 0)
(6.22214e-06 -5.28396e-06 0)
(8.13893e-06 -6.33542e-06 0)
(1.03336e-05 -7.37775e-06 0)
(1.28026e-05 -8.39875e-06 0)
(1.55403e-05 -9.38914e-06 0)
(1.85385e-05 -1.0342e-05 0)
(2.17879e-05 -1.12521e-05 0)
(2.52776e-05 -1.21158e-05 0)
(2.89957e-05 -1.29305e-05 0)
(3.29298e-05 -1.36945e-05 0)
(3.70668e-05 -1.44069e-05 0)
(4.13932e-05 -1.50673e-05 0)
(4.58954e-05 -1.56756e-05 0)
(5.05597e-05 -1.62322e-05 0)
(5.53723e-05 -1.6738e-05 0)
(6.03198e-05 -1.71936e-05 0)
(6.53885e-05 -1.76002e-05 0)
(7.05653e-05 -1.7959e-05 0)
(7.58372e-05 -1.82713e-05 0)
(8.11914e-05 -1.85383e-05 0)
(8.66156e-05 -1.87615e-05 0)
(9.20977e-05 -1.89424e-05 0)
(9.7626e-05 -1.90825e-05 0)
(0.000103189 -1.91831e-05 0)
(0.000108777 -1.92459e-05 0)
(0.000114377 -1.92722e-05 0)
(0.000119981 -1.92635e-05 0)
(0.000125578 -1.92213e-05 0)
(0.000131159 -1.9147e-05 0)
(0.000136715 -1.9042e-05 0)
(0.000142238 -1.89077e-05 0)
(0.000147718 -1.87453e-05 0)
(0.000153148 -1.85562e-05 0)
(0.000158521 -1.83417e-05 0)
(0.000163829 -1.8103e-05 0)
(0.000169066 -1.78413e-05 0)
(0.000174224 -1.75577e-05 0)
(0.000179297 -1.72534e-05 0)
(0.000184281 -1.69295e-05 0)
(0.000189168 -1.65869e-05 0)
(0.000193954 -1.62268e-05 0)
(0.000198633 -1.585e-05 0)
(0.000203202 -1.54576e-05 0)
(0.000207654 -1.50504e-05 0)
(0.000211987 -1.46293e-05 0)
(0.000216195 -1.41951e-05 0)
(0.000220276 -1.37487e-05 0)
(0.000224226 -1.32907e-05 0)
(0.000228041 -1.28218e-05 0)
(0.000231718 -1.23429e-05 0)
(0.000235255 -1.18545e-05 0)
(0.000238648 -1.13574e-05 0)
(0.000241895 -1.0852e-05 0)
(0.000244994 -1.0339e-05 0)
(0.000247942 -9.81885e-06 0)
(0.000250737 -9.29219e-06 0)
(0.000253378 -8.75946e-06 0)
(0.000255862 -8.22115e-06 0)
(0.000258189 -7.67771e-06 0)
(0.000260356 -7.12957e-06 0)
(0.000262362 -6.57715e-06 0)
(0.000264206 -6.02083e-06 0)
(0.000265887 -5.461e-06 0)
(0.000267404 -4.89803e-06 0)