/*--------------------------------*- C++ -*----------------------------------*\
  =========                 |
  \\      /  F ield         | OpenFOAM: The Open Source CFD Toolbox
   \\    /   O peration     | Website:  https://openfoam.org
    \\  /    A nd           | Version:  7
     \\/     M anipulation  |
\*---------------------------------------------------------------------------*/
FoamFile
{
    version     2.0;
    format      ascii;
    class       volVectorField;
    location    "0.175";
    object      U;
}
// * * * * * * * * * * * * * * * * * * * * * * * * * * * * * * * * * * * * * //

dimensions      [0 1 -1 0 0 0 0];

internalField   nonuniform List<vector> 
12800
(
(8.30326e-06 -8.34298e-06 0)
(3.70521e-05 -1.8546e-05 0)
(7.8511e-05 -1.97148e-05 0)
(0.000113226 -1.53542e-05 0)
(0.000129967 -8.31023e-06 0)
(0.000123852 -1.37118e-07 0)
(9.27384e-05 8.34423e-06 0)
(3.60119e-05 1.66948e-05 0)
(-4.59703e-05 2.46829e-05 0)
(-0.00015226 3.21887e-05 0)
(-0.000281558 3.91525e-05 0)
(-0.000432358 4.55488e-05 0)
(-0.000603039 5.13723e-05 0)
(-0.000791923 5.663e-05 0)
(-0.000997319 6.13362e-05 0)
(-0.00121755 6.55093e-05 0)
(-0.00145098 6.91707e-05 0)
(-0.001696 7.2344e-05 0)
(-0.0019511 7.5054e-05 0)
(-0.00221479 7.73264e-05 0)
(-0.00248568 7.91866e-05 0)
(-0.00276244 8.06599e-05 0)
(-0.00304382 8.17715e-05 0)
(-0.00332866 8.25464e-05 0)
(-0.00361584 8.30091e-05 0)
(-0.00390436 8.31833e-05 0)
(-0.00419326 8.30922e-05 0)
(-0.00448166 8.27579e-05 0)
(-0.00476877 8.22018e-05 0)
(-0.00505384 8.14444e-05 0)
(-0.00533622 8.05054e-05 0)
(-0.00561529 7.94038e-05 0)
(-0.00589051 7.81575e-05 0)
(-0.0061614 7.67833e-05 0)
(-0.00642753 7.5297e-05 0)
(-0.00668852 7.37138e-05 0)
(-0.00694405 7.20477e-05 0)
(-0.00719383 7.03119e-05 0)
(-0.00743764 6.85189e-05 0)
(-0.00767527 6.66799e-05 0)
(-0.00790656 6.48057e-05 0)
(-0.00813141 6.29057e-05 0)
(-0.00834971 6.0989e-05 0)
(-0.00856141 5.90637e-05 0)
(-0.00876647 5.71371e-05 0)
(-0.0089649 5.52161e-05 0)
(-0.00915669 5.33066e-05 0)
(-0.0093419 5.14138e-05 0)
(-0.00952058 4.95425e-05 0)
(-0.00969278 4.76967e-05 0)
(-0.00985861 4.58799e-05 0)
(-0.0100181 4.40953e-05 0)
(-0.0101715 4.23454e-05 0)
(-0.0103188 4.06323e-05 0)
(-0.0104601 3.89573e-05 0)
(-0.0105956 3.73218e-05 0)
(-0.0107255 3.57264e-05 0)
(-0.0108497 3.41717e-05 0)
(-0.0109686 3.26578e-05 0)
(-0.0110821 3.11844e-05 0)
(-0.0111905 2.9751e-05 0)
(-0.0112939 2.83567e-05 0)
(-0.0113924 2.70005e-05 0)
(-0.0114861 2.5681e-05 0)
(-0.0115751 2.43968e-05 0)
(-0.0116596 2.31462e-05 0)
(-0.0117397 2.19273e-05 0)
(-0.0118155 2.07378e-05 0)
(-0.011887 1.95755e-05 0)
(-0.0119544 1.8438e-05 0)
(-0.0120178 1.73229e-05 0)
(-0.0120771 1.62276e-05 0)
(-0.0121325 1.51492e-05 0)
(-0.0121841 1.40845e-05 0)
(-0.0122318 1.30306e-05 0)
(-0.0122756 1.19844e-05 0)
(-0.0123157 1.09429e-05 0)
(-0.0123521 9.90296e-06 0)
(-0.0123846 8.86121e-06 0)
(-0.0124134 7.81416e-06 0)
(-0.0124383 6.75826e-06 0)
(-0.0124594 5.69005e-06 0)
(-0.0124765 4.60617e-06 0)
(-0.0124897 3.50319e-06 0)
(-0.0124989 2.37757e-06 0)
(-0.012504 1.22572e-06 0)
(-0.0125048 4.41088e-08 0)
(-0.0125013 -1.17068e-06 0)
(-0.0124934 -2.42204e-06 0)
(-0.0124809 -3.71336e-06 0)
(-0.0124636 -5.04798e-06 0)
(-0.0124415 -6.42914e-06 0)
(-0.0124144 -7.85997e-06 0)
(-0.0123821 -9.34339e-06 0)
(-0.0123443 -1.08822e-05 0)
(-0.012301 -1.2479e-05 0)
(-0.0122519 -1.41362e-05 0)
(-0.0121968 -1.58561e-05 0)
(-0.0121355 -1.76407e-05 0)
(-0.0120678 -1.94917e-05 0)
(-0.0119935 -2.14103e-05 0)
(-0.0119122 -2.33976e-05 0)
(-0.0118239 -2.54542e-05 0)
(-0.0117282 -2.75801e-05 0)
(-0.011625 -2.97752e-05 0)
(-0.011514 -3.20386e-05 0)
(-0.0113949 -3.4369e-05 0)
(-0.0112677 -3.67645e-05 0)
(-0.011132 -3.92223e-05 0)
(-0.0109876 -4.17394e-05 0)
(-0.0108345 -4.43116e-05 0)
(-0.0106724 -4.69343e-05 0)
(-0.0105011 -4.9602e-05 0)
(-0.0103206 -5.23083e-05 0)
(-0.0101308 -5.50459e-05 0)
(-0.00993147 -5.78066e-05 0)
(-0.0097227 -6.05813e-05 0)
(-0.00950444 -6.33599e-05 0)
(-0.00927671 -6.61312e-05 0)
(-0.00903958 -6.88832e-05 0)
(-0.00879316 -7.16027e-05 0)
(-0.00853761 -7.42755e-05 0)
(-0.00827312 -7.68863e-05 0)
(-0.00799996 -7.94188e-05 0)
(-0.00771845 -8.18557e-05 0)
(-0.00742896 -8.41786e-05 0)
(-0.00713194 -8.63683e-05 0)
(-0.00682789 -8.84044e-05 0)
(-0.00651738 -9.02657e-05 0)
(-0.00620108 -9.19302e-05 0)
(-0.0058797 -9.33751e-05 0)
(-0.00555405 -9.45769e-05 0)
(-0.005225 -9.55114e-05 0)
(-0.00489352 -9.61539e-05 0)
(-0.00456064 -9.64791e-05 0)
(-0.0042275 -9.64614e-05 0)
(-0.0038953 -9.6075e-05 0)
(-0.00356532 -9.5294e-05 0)
(-0.00323894 -9.40923e-05 0)
(-0.00291761 -9.24438e-05 0)
(-0.00260286 -9.03227e-05 0)
(-0.00229629 -8.77038e-05 0)
(-0.00199958 -8.4562e-05 0)
(-0.00171447 -8.08732e-05 0)
(-0.00144277 -7.66144e-05 0)
(-0.00118633 -7.17641e-05 0)
(-0.000947046 -6.63031e-05 0)
(-0.00072683 -6.02153e-05 0)
(-0.000527606 -5.34891e-05 0)
(-0.000351268 -4.61201e-05 0)
(-0.000199638 -3.81166e-05 0)
(-7.44066e-05 -2.95071e-05 0)
(2.29685e-05 -2.03556e-05 0)
(9.14132e-05 -1.07908e-05 0)
(0.000130498 -1.0628e-06 0)
(0.000140856 8.34986e-06 0)
(0.000124802 1.65439e-05 0)
(8.76977e-05 2.17866e-05 0)
(4.20351e-05 2.08574e-05 0)
(9.63207e-06 9.6306e-06 0)
(1.85372e-05 -3.71128e-05 0)
(7.03215e-05 -7.03082e-05 0)
(0.000132015 -6.77568e-05 0)
(0.000170116 -4.20855e-05 0)
(0.000163338 -3.15007e-06 0)
(0.000100251 4.27166e-05 0)
(-2.54071e-05 9.15466e-05 0)
(-0.000216372 0.000140859 0)
(-0.000472855 0.00018911 0)
(-0.000793351 0.00023534 0)
(-0.00117522 0.000278955 0)
(-0.00161506 0.0003196 0)
(-0.00210902 0.00035708 0)
(-0.00265293 0.000391305 0)
(-0.00324249 0.000422259 0)
(-0.00387333 0.000449976 0)
(-0.00454114 0.000474527 0)
(-0.00524165 0.000496009 0)
(-0.0059707 0.000514539 0)
(-0.0067243 0.000530247 0)
(-0.0074986 0.000543268 0)
(-0.00828994 0.000553747 0)
(-0.00909485 0.00056183 0)
(-0.00991003 0.000567666 0)
(-0.0107324 0.000571403 0)
(-0.0115591 0.000573188 0)
(-0.0123874 0.000573166 0)
(-0.0132148 0.000571477 0)
(-0.0140391 0.00056826 0)
(-0.0148581 0.000563647 0)
(-0.0156699 0.000557769 0)
(-0.0164728 0.000550747 0)
(-0.0172651 0.000542702 0)
(-0.0180455 0.000533745 0)
(-0.0188127 0.000523984 0)
(-0.0195656 0.000513519 0)
(-0.0203033 0.000502448 0)
(-0.0210248 0.000490859 0)
(-0.0217296 0.000478837 0)
(-0.0224169 0.00046646 0)
(-0.0230863 0.000453802 0)
(-0.0237374 0.000440929 0)
(-0.02437 0.000427904 0)
(-0.0249838 0.000414783 0)
(-0.0255788 0.00040162 0)
(-0.0261547 0.00038846 0)
(-0.0267118 0.000375347 0)
(-0.02725 0.000362318 0)
(-0.0277694 0.000349407 0)
(-0.0282703 0.000336645 0)
(-0.0287529 0.000324056 0)
(-0.0292173 0.000311662 0)
(-0.029664 0.000299484 0)
(-0.0300931 0.000287536 0)
(-0.030505 0.000275831 0)
(-0.0309001 0.000264377 0)
(-0.0312787 0.000253182 0)
(-0.0316412 0.00024225 0)
(-0.0319879 0.000231583 0)
(-0.0323192 0.000221179 0)
(-0.0326356 0.000211037 0)
(-0.0329372 0.000201152 0)
(-0.0332246 0.000191517 0)
(-0.033498 0.000182125 0)
(-0.0337578 0.000172966 0)
(-0.0340044 0.000164027 0)
(-0.0342379 0.000155299 0)
(-0.0344588 0.000146765 0)
(-0.0346672 0.000138412 0)
(-0.0348634 0.000130223 0)
(-0.0350476 0.000122181 0)
(-0.0352201 0.000114269 0)
(-0.035381 0.000106468 0)
(-0.0355304 9.87575e-05 0)
(-0.0356684 9.11178e-05 0)
(-0.0357952 8.35282e-05 0)
(-0.0359108 7.59674e-05 0)
(-0.0360152 6.84135e-05 0)
(-0.0361084 6.0844e-05 0)
(-0.0361903 5.3236e-05 0)
(-0.036261 4.55662e-05 0)
(-0.0363202 3.78116e-05 0)
(-0.0363679 2.99487e-05 0)
(-0.0364038 2.19542e-05 0)
(-0.0364279 1.38045e-05 0)
(-0.0364397 5.47596e-06 0)
(-0.0364391 -3.05477e-06 0)
(-0.0364258 -1.18109e-05 0)
(-0.0363993 -2.08152e-05 0)
(-0.0363594 -3.009e-05 0)
(-0.0363057 -3.96569e-05 0)
(-0.0362376 -4.95369e-05 0)
(-0.0361548 -5.97503e-05 0)
(-0.0360567 -7.03163e-05 0)
(-0.0359429 -8.12532e-05 0)
(-0.0358128 -9.25776e-05 0)
(-0.0356658 -0.000104305 0)
(-0.0355013 -0.000116449 0)
(-0.0353189 -0.000129022 0)
(-0.0351178 -0.000142032 0)
(-0.0348974 -0.000155489 0)
(-0.0346571 -0.000169397 0)
(-0.0343963 -0.000183758 0)
(-0.0341143 -0.000198571 0)
(-0.0338104 -0.000213833 0)
(-0.0334842 -0.000229536 0)
(-0.0331349 -0.000245669 0)
(-0.032762 -0.000262216 0)
(-0.0323649 -0.000279159 0)
(-0.0319431 -0.000296472 0)
(-0.0314961 -0.000314127 0)
(-0.0310234 -0.00033209 0)
(-0.0305247 -0.00035032 0)
(-0.0299997 -0.000368774 0)
(-0.029448 -0.000387399 0)
(-0.0288696 -0.000406139 0)
(-0.0282643 -0.00042493 0)
(-0.0276321 -0.000443702 0)
(-0.0269732 -0.000462378 0)
(-0.0262877 -0.000480877 0)
(-0.0255761 -0.000499107 0)
(-0.0248388 -0.000516973 0)
(-0.0240764 -0.00053437 0)
(-0.0232898 -0.00055119 0)
(-0.0224798 -0.000567314 0)
(-0.0216475 -0.000582622 0)
(-0.0207944 -0.000596983 0)
(-0.0199217 -0.000610263 0)
(-0.0190313 -0.000622321 0)
(-0.018125 -0.000633014 0)
(-0.0172048 -0.00064219 0)
(-0.0162731 -0.000649697 0)
(-0.0153324 -0.000655378 0)
(-0.0143853 -0.000659074 0)
(-0.0134349 -0.000660623 0)
(-0.0124843 -0.000659865 0)
(-0.011537 -0.000656636 0)
(-0.0105965 -0.000650777 0)
(-0.0096666 -0.000642129 0)
(-0.00875144 -0.000630538 0)
(-0.00785523 -0.000615855 0)
(-0.00698239 -0.000597938 0)
(-0.00613752 -0.000576656 0)
(-0.00532536 -0.000551889 0)
(-0.0045508 -0.000523534 0)
(-0.0038188 -0.00049151 0)
(-0.00313436 -0.000455766 0)
(-0.00250248 -0.000416289 0)
(-0.00192807 -0.000373124 0)
(-0.00141584 -0.000326389 0)
(-0.000970155 -0.000276317 0)
(-0.000594836 -0.000223308 0)
(-0.000292864 -0.000168017 0)
(-6.59565e-05 -0.000111499 0)
(8.60629e-05 -5.54468e-05 0)
(0.000166162 -2.59383e-06 0)
(0.000181227 4.26584e-05 0)
(0.000143919 7.32211e-05 0)
(7.79542e-05 7.79229e-05 0)
(2.08567e-05 4.20222e-05 0)
(1.97963e-05 -7.86303e-05 0)
(6.80827e-05 -0.000132084 0)
(0.000111164 -0.000110656 0)
(0.00011035 -3.94468e-05 0)
(4.03789e-05 6.29661e-05 0)
(-0.000113607 0.000183365 0)
(-0.000360503 0.000312607 0)
(-0.000704704 0.000444484 0)
(-0.00114715 0.000574818 0)
(-0.0016863 0.000700816 0)
(-0.00231879 0.000820629 0)
(-0.00304005 0.000933062 0)
(-0.00384465 0.00103738 0)
(-0.00472661 0.00113316 0)
(-0.00567961 0.00122021 0)
(-0.00669717 0.00129853 0)
(-0.00777277 0.00136822 0)
(-0.00889993 0.00142947 0)
(-0.0100723 0.00148254 0)
(-0.0112837 0.00152775 0)
(-0.0125282 0.00156543 0)
(-0.0138001 0.00159597 0)
(-0.0150939 0.00161973 0)
(-0.0164045 0.00163712 0)
(-0.0177269 0.00164854 0)
(-0.0190568 0.00165439 0)
(-0.0203896 0.00165506 0)
(-0.0217216 0.00165095 0)
(-0.023049 0.00164244 0)
(-0.0243685 0.00162989 0)
(-0.0256769 0.00161368 0)
(-0.0269715 0.00159415 0)
(-0.0282496 0.00157163 0)
(-0.0295091 0.00154644 0)
(-0.0307478 0.0015189 0)
(-0.031964 0.00148928 0)
(-0.033156 0.00145787 0)
(-0.0343226 0.00142491 0)
(-0.0354624 0.00139066 0)
(-0.0365746 0.00135534 0)
(-0.0376582 0.00131915 0)
(-0.0387127 0.00128229 0)
(-0.0397376 0.00124495 0)
(-0.0407324 0.00120728 0)
(-0.041697 0.00116945 0)
(-0.0426313 0.00113158 0)
(-0.0435351 0.0010938 0)
(-0.0444087 0.00105622 0)
(-0.0452522 0.00101895 0)
(-0.0460658 0.00098206 0)
(-0.0468498 0.000945639 0)
(-0.0476046 0.000909749 0)
(-0.0483307 0.000874447 0)
(-0.0490285 0.000839779 0)
(-0.0496985 0.000805782 0)
(-0.0503412 0.000772485 0)
(-0.0509572 0.000739909 0)
(-0.0515471 0.000708068 0)
(-0.0521114 0.000676968 0)
(-0.0526507 0.00064661 0)
(-0.0531655 0.000616987 0)
(-0.0536566 0.000588087 0)
(-0.0541243 0.000559894 0)
(-0.0545693 0.000532385 0)
(-0.0549921 0.000505533 0)
(-0.0553932 0.000479307 0)
(-0.0557731 0.000453673 0)
(-0.0561322 0.000428591 0)
(-0.0564709 0.000404019 0)
(-0.0567896 0.000379911 0)
(-0.0570888 0.000356221 0)
(-0.0573686 0.000332895 0)
(-0.0576293 0.000309882 0)
(-0.0578712 0.000287126 0)
(-0.0580945 0.000264568 0)
(-0.0582992 0.00024215 0)
(-0.0584855 0.000219809 0)
(-0.0586534 0.000197484 0)
(-0.0588029 0.000175111 0)
(-0.0589339 0.000152625 0)
(-0.0590463 0.00012996 0)
(-0.05914 0.00010705 0)
(-0.0592146 8.38271e-05 0)
(-0.0592699 6.02251e-05 0)
(-0.0593057 3.61768e-05 0)
(-0.0593214 1.16153e-05 0)
(-0.0593167 -1.35256e-05 0)
(-0.0592912 -3.93115e-05 0)
(-0.0592441 -6.58068e-05 0)
(-0.059175 -9.30746e-05 0)
(-0.0590833 -0.000121176 0)
(-0.0589682 -0.000150171 0)
(-0.0588289 -0.000180115 0)
(-0.0586649 -0.000211063 0)
(-0.0584751 -0.000243065 0)
(-0.0582588 -0.000276168 0)
(-0.0580151 -0.000310413 0)
(-0.057743 -0.000345839 0)
(-0.0574417 -0.000382478 0)
(-0.0571101 -0.000420355 0)
(-0.0567473 -0.00045949 0)
(-0.0563522 -0.000499895 0)
(-0.055924 -0.000541574 0)
(-0.0554616 -0.000584523 0)
(-0.054964 -0.000628728 0)
(-0.0544302 -0.000674165 0)
(-0.0538593 -0.000720799 0)
(-0.0532504 -0.000768584 0)
(-0.0526027 -0.00081746 0)
(-0.0519152 -0.000867355 0)
(-0.0511874 -0.000918185 0)
(-0.0504184 -0.000969848 0)
(-0.0496078 -0.00102223 0)
(-0.0487551 -0.00107519 0)
(-0.0478598 -0.0011286 0)
(-0.0469218 -0.00118227 0)
(-0.0459409 -0.00123603 0)
(-0.0449172 -0.00128968 0)
(-0.043851 -0.00134299 0)
(-0.0427426 -0.00139573 0)
(-0.0415927 -0.00144764 0)
(-0.040402 -0.00149844 0)
(-0.0391717 -0.00154784 0)
(-0.037903 -0.00159552 0)
(-0.0365974 -0.00164116 0)
(-0.0352568 -0.00168439 0)
(-0.0338832 -0.00172487 0)
(-0.0324791 -0.0017622 0)
(-0.0310472 -0.00179599 0)
(-0.0295904 -0.00182583 0)
(-0.0281121 -0.00185131 0)
(-0.026616 -0.00187198 0)
(-0.025106 -0.00188742 0)
(-0.0235866 -0.00189717 0)
(-0.0220623 -0.00190079 0)
(-0.0205383 -0.00189785 0)
(-0.0190198 -0.00188788 0)
(-0.0175127 -0.00187046 0)
(-0.0160229 -0.00184516 0)
(-0.0145567 -0.00181157 0)
(-0.0131208 -0.00176929 0)
(-0.0117221 -0.00171798 0)
(-0.0103676 -0.00165729 0)
(-0.0090648 -0.00158695 0)
(-0.00782102 -0.00150674 0)
(-0.00664386 -0.00141651 0)
(-0.00554086 -0.00131622 0)
(-0.00451947 -0.00120597 0)
(-0.00358691 -0.00108601 0)
(-0.00274997 -0.000956879 0)
(-0.0020148 -0.000819428 0)
(-0.00138657 -0.000675013 0)
(-0.00086905 -0.00052569 0)
(-0.000464028 -0.000374549 0)
(-0.000170509 -0.000226202 0)
(1.63362e-05 -8.75195e-05 0)
(0.000106347 3.13194e-05 0)
(0.000116042 0.000115494 0)
(7.35199e-05 0.000143959 0)
(2.18401e-05 8.77289e-05 0)
(1.5574e-05 -0.00011365 0)
(4.29035e-05 -0.00017064 0)
(4.08595e-05 -0.000110044 0)
(-2.81617e-05 2.97453e-05 0)
(-0.000189854 0.000221188 0)
(-0.000460406 0.000443851 0)
(-0.000849889 0.00068287 0)
(-0.00136353 0.000927656 0)
(-0.0020027 0.00117074 0)
(-0.00276581 0.00140689 0)
(-0.00364908 0.00163251 0)
(-0.0046471 0.00184515 0)
(-0.00575331 0.00204323 0)
(-0.00696036 0.00222576 0)
(-0.00826038 0.00239224 0)
(-0.00964519 0.00254248 0)
(-0.0111065 0.00267657 0)
(-0.012636 0.00279478 0)
(-0.0142255 0.00289752 0)
(-0.015867 0.00298531 0)
(-0.0175527 0.00305876 0)
(-0.019275 0.00311851 0)
(-0.021027 0.00316527 0)
(-0.0228016 0.00319976 0)
(-0.0245925 0.00322273 0)
(-0.0263936 0.00323491 0)
(-0.0281993 0.00323706 0)
(-0.0300041 0.0032299 0)
(-0.0318032 0.00321418 0)
(-0.033592 0.00319059 0)
(-0.0353665 0.00315983 0)
(-0.0371226 0.00312256 0)
(-0.0388571 0.00307943 0)
(-0.0405668 0.00303106 0)
(-0.0422489 0.00297802 0)
(-0.043901 0.00292089 0)
(-0.0455208 0.00286018 0)
(-0.0471065 0.00279641 0)
(-0.0486565 0.00273004 0)
(-0.0501693 0.00266151 0)
(-0.0516439 0.00259123 0)
(-0.0530792 0.00251958 0)
(-0.0544747 0.00244692 0)
(-0.0558298 0.00237356 0)
(-0.057144 0.00229981 0)
(-0.0584173 0.00222594 0)
(-0.0596496 0.00215218 0)
(-0.0608409 0.00207877 0)
(-0.0619914 0.00200589 0)
(-0.0631015 0.00193372 0)
(-0.0641715 0.00186241 0)
(-0.0652019 0.00179209 0)
(-0.0661933 0.00172288 0)
(-0.0671462 0.00165486 0)
(-0.0680614 0.00158811 0)
(-0.0689394 0.0015227 0)
(-0.0697811 0.00145866 0)
(-0.0705871 0.00139602 0)
(-0.0713582 0.0013348 0)
(-0.0720952 0.001275 0)
(-0.0727989 0.00121661 0)
(-0.07347 0.00115961 0)
(-0.0741092 0.00110397 0)
(-0.0747173 0.00104964 0)
(-0.0752949 0.000996578 0)
(-0.0758428 0.00094472 0)
(-0.0763615 0.000894 0)
(-0.0768517 0.000844343 0)
(-0.0773139 0.000795668 0)
(-0.0777487 0.000747888 0)
(-0.0781565 0.00070091 0)
(-0.0785376 0.000654635 0)
(-0.0788926 0.000608961 0)
(-0.0792215 0.000563778 0)
(-0.0795248 0.000518976 0)
(-0.0798025 0.000474439 0)
(-0.0800548 0.000430049 0)
(-0.0802817 0.000385685 0)
(-0.0804832 0.000341223 0)
(-0.0806592 0.000296537 0)
(-0.0808095 0.0002515 0)
(-0.0809339 0.000205983 0)
(-0.0810322 0.000159857 0)
(-0.0811038 0.000112992 0)
(-0.0811485 6.5259e-05 0)
(-0.0811656 1.65282e-05 0)
(-0.0811546 -3.33278e-05 0)
(-0.0811148 -8.44355e-05 0)
(-0.0810456 -0.000136919 0)
(-0.0809461 -0.0001909 0)
(-0.0808154 -0.000246496 0)
(-0.0806527 -0.000303821 0)
(-0.080457 -0.000362982 0)
(-0.0802273 -0.000424083 0)
(-0.0799624 -0.00048722 0)
(-0.0796612 -0.000552481 0)
(-0.0793226 -0.000619946 0)
(-0.0789454 -0.000689686 0)
(-0.0785282 -0.000761759 0)
(-0.0780698 -0.000836215 0)
(-0.077569 -0.000913087 0)
(-0.0770243 -0.000992397 0)
(-0.0764345 -0.00107415 0)
(-0.0757984 -0.00115833 0)
(-0.0751145 -0.00124491 0)
(-0.0743816 -0.00133384 0)
(-0.0735984 -0.00142505 0)
(-0.0727639 -0.00151844 0)
(-0.0718769 -0.0016139 0)
(-0.0709362 -0.00171128 0)
(-0.0699411 -0.00181042 0)
(-0.0688905 -0.0019111 0)
(-0.0677838 -0.00201312 0)
(-0.0666204 -0.0021162 0)
(-0.0653998 -0.00222005 0)
(-0.0641218 -0.00232435 0)
(-0.0627862 -0.00242875 0)
(-0.0613933 -0.00253284 0)
(-0.0599433 -0.00263621 0)
(-0.0584368 -0.00273838 0)
(-0.0568748 -0.00283885 0)
(-0.0552583 -0.00293709 0)
(-0.0535889 -0.00303253 0)
(-0.0518683 -0.00312456 0)
(-0.0500986 -0.00321253 0)
(-0.0482822 -0.00329578 0)
(-0.0464222 -0.0033736 0)
(-0.0445216 -0.00344525 0)
(-0.0425841 -0.00350998 0)
(-0.0406138 -0.003567 0)
(-0.0386151 -0.0036155 0)
(-0.0365931 -0.00365467 0)
(-0.034553 -0.00368366 0)
(-0.0325006 -0.00370165 0)
(-0.0304423 -0.00370777 0)
(-0.0283847 -0.00370119 0)
(-0.0263349 -0.00368108 0)
(-0.0243005 -0.00364662 0)
(-0.0222895 -0.00359702 0)
(-0.0203102 -0.00353154 0)
(-0.0183713 -0.00344945 0)
(-0.0164818 -0.00335014 0)
(-0.014651 -0.00323302 0)
(-0.0128884 -0.00309765 0)
(-0.0112037 -0.00294369 0)
(-0.00960655 -0.00277096 0)
(-0.00810656 -0.00257954 0)
(-0.00671315 -0.00236972 0)
(-0.00543531 -0.00214223 0)
(-0.00428142 -0.00189823 0)
(-0.00325891 -0.00163958 0)
(-0.00237389 -0.00136906 0)
(-0.00163063 -0.00109069 0)
(-0.00103094 -0.000810276 0)
(-0.000573336 -0.000536085 0)
(-0.000252043 -0.000279868 0)
(-5.58833e-05 -5.81836e-05 0)
(3.31581e-05 0.000106073 0)
(4.35464e-05 0.0001818 0)
(1.67297e-05 0.000125105 0)
(8.69133e-06 -0.000131014 0)
(4.47913e-06 -0.000164764 0)
(-6.0762e-05 -4.06573e-05 0)
(-0.000218739 0.000191271 0)
(-0.000492946 0.000495176 0)
(-0.000899362 0.000843811 0)
(-0.00144805 0.00121673 0)
(-0.00214426 0.00159885 0)
(-0.00298932 0.00197918 0)
(-0.00398143 0.00234978 0)
(-0.00511638 0.00270496 0)
(-0.00638808 0.00304077 0)
(-0.0077891 0.0033545 0)
(-0.00931099 0.00364444 0)
(-0.0109447 0.00390958 0)
(-0.0126806 0.00414948 0)
(-0.0145089 0.00436411 0)
(-0.01642 0.00455376 0)
(-0.0184039 0.004719 0)
(-0.0204512 0.00486054 0)
(-0.0225524 0.00497926 0)
(-0.0246986 0.00507614 0)
(-0.0268811 0.00515225 0)
(-0.0290916 0.0052087 0)
(-0.0313222 0.00524662 0)
(-0.0335656 0.00526718 0)
(-0.0358148 0.00527156 0)
(-0.0380632 0.00526091 0)
(-0.0403048 0.00523637 0)
(-0.0425341 0.00519909 0)
(-0.0447458 0.00515015 0)
(-0.0469353 0.00509062 0)
(-0.0490982 0.00502153 0)
(-0.0512308 0.00494386 0)
(-0.0533294 0.00485857 0)
(-0.0553912 0.00476656 0)
(-0.0574132 0.00466867 0)
(-0.0593932 0.00456572 0)
(-0.061329 0.00445846 0)
(-0.063219 0.00434762 0)
(-0.0650617 0.00423384 0)
(-0.0668559 0.00411777 0)
(-0.0686007 0.00399995 0)
(-0.0702953 0.00388094 0)
(-0.0719394 0.0037612 0)
(-0.0735326 0.00364117 0)
(-0.0750749 0.00352127 0)
(-0.0765662 0.00340184 0)
(-0.0780068 0.00328322 0)
(-0.0793971 0.00316568 0)
(-0.0807375 0.00304947 0)
(-0.0820285 0.00293481 0)
(-0.0832708 0.00282189 0)
(-0.0844651 0.00271086 0)
(-0.0856122 0.00260185 0)
(-0.086713 0.00249495 0)
(-0.0877682 0.00239023 0)
(-0.0887788 0.00228776 0)
(-0.0897458 0.00218754 0)
(-0.0906699 0.0020896 0)
(-0.0915523 0.00199392 0)
(-0.0923937 0.00190046 0)
(-0.0931952 0.00180917 0)
(-0.0939575 0.00171999 0)
(-0.0946816 0.00163285 0)
(-0.0953681 0.00154763 0)
(-0.0960181 0.00146425 0)
(-0.096632 0.00138257 0)
(-0.0972108 0.00130247 0)
(-0.0977548 0.0012238 0)
(-0.0982648 0.00114642 0)
(-0.0987412 0.00107017 0)
(-0.0991845 0.000994888 0)
(-0.099595 0.00092039 0)
(-0.099973 0.0008465 0)
(-0.100319 0.000773033 0)
(-0.100632 0.000699797 0)
(-0.100914 0.000626596 0)
(-0.101163 0.000553231 0)
(-0.10138 0.0004795 0)
(-0.101565 0.000405196 0)
(-0.101716 0.000330113 0)
(-0.101835 0.000254042 0)
(-0.10192 0.000176773 0)
(-0.101971 9.80993e-05 0)
(-0.101988 1.78116e-05 0)
(-0.101968 -6.42953e-05 0)
(-0.101913 -0.000148425 0)
(-0.10182 -0.000234776 0)
(-0.10169 -0.000323543 0)
(-0.10152 -0.000414915 0)
(-0.101309 -0.000509073 0)
(-0.101058 -0.00060619 0)
(-0.100763 -0.000706431 0)
(-0.100425 -0.000809947 0)
(-0.10004 -0.000916879 0)
(-0.0996095 -0.00102735 0)
(-0.0991301 -0.00114148 0)
(-0.0986008 -0.00125935 0)
(-0.09802 -0.00138104 0)
(-0.0973862 -0.00150661 0)
(-0.0966977 -0.00163607 0)
(-0.0959529 -0.00176943 0)
(-0.0951503 -0.00190668 0)
(-0.0942882 -0.00204775 0)
(-0.0933652 -0.00219256 0)
(-0.0923798 -0.00234099 0)
(-0.0913305 -0.00249289 0)
(-0.090216 -0.00264805 0)
(-0.0890351 -0.00280625 0)
(-0.0877865 -0.00296719 0)
(-0.0864693 -0.00313057 0)
(-0.0850826 -0.00329599 0)
(-0.0836257 -0.00346305 0)
(-0.0820982 -0.00363126 0)
(-0.0804997 -0.00380009 0)
(-0.0788302 -0.00396898 0)
(-0.0770899 -0.00413726 0)
(-0.0752793 -0.00430427 0)
(-0.0733991 -0.00446923 0)
(-0.0714505 -0.00463134 0)
(-0.069435 -0.00478974 0)
(-0.0673543 -0.0049435 0)
(-0.0652108 -0.00509165 0)
(-0.063007 -0.00523315 0)
(-0.0607461 -0.00536692 0)
(-0.0584316 -0.00549183 0)
(-0.0560675 -0.0056067 0)
(-0.0536584 -0.00571033 0)
(-0.0512092 -0.00580144 0)
(-0.0487254 -0.00587876 0)
(-0.0462132 -0.00594098 0)
(-0.0436791 -0.00598677 0)
(-0.0411302 -0.00601479 0)
(-0.0385742 -0.00602372 0)
(-0.0360193 -0.00601222 0)
(-0.0334742 -0.00597899 0)
(-0.0309481 -0.00592277 0)
(-0.0284505 -0.00584233 0)
(-0.0259917 -0.00573651 0)
(-0.0235822 -0.00560426 0)
(-0.0212328 -0.00544463 0)
(-0.0189546 -0.00525679 0)
(-0.0167591 -0.00504012 0)
(-0.0146576 -0.00479421 0)
(-0.0126617 -0.00451893 0)
(-0.0107827 -0.00421454 0)
(-0.00903148 -0.00388172 0)
(-0.00741859 -0.00352179 0)
(-0.0059536 -0.00313683 0)
(-0.00464497 -0.00272998 0)
(-0.00349954 -0.00230575 0)
(-0.00252209 -0.00187049 0)
(-0.00171463 -0.00143305 0)
(-0.0010757 -0.00100564 0)
(-0.000599493 -0.000604992 0)
(-0.000274811 -0.000253879 0)
(-8.38878e-05 1.72383e-05 0)
(-8.60027e-07 0.000168049 0)
(8.73554e-06 0.000141835 0)
(6.64966e-07 -0.000125809 0)
(-4.10659e-05 -0.000102832 0)
(-0.00018103 0.000112773 0)
(-0.000441969 0.000461974 0)
(-0.000843278 0.000901811 0)
(-0.00139953 0.00139897 0)
(-0.00211981 0.00192782 0)
(-0.00300865 0.00246901 0)
(-0.00406685 0.00300802 0)
(-0.00529211 0.00353408 0)
(-0.00667966 0.00403931 0)
(-0.00822276 0.00451803 0)
(-0.00991318 0.0049663 0)
(-0.0117416 0.00538148 0)
(-0.0136978 0.00576195 0)
(-0.0157711 0.0061069 0)
(-0.0179506 0.00641613 0)
(-0.0202252 0.0066899 0)
(-0.0225838 0.00692886 0)
(-0.0250155 0.00713395 0)
(-0.0275097 0.00730633 0)
(-0.0300559 0.00744732 0)
(-0.0326441 0.00755837 0)
(-0.0352649 0.00764102 0)
(-0.0379092 0.00769687 0)
(-0.0405683 0.00772757 0)
(-0.0432341 0.00773474 0)
(-0.0458991 0.00772007 0)
(-0.0485562 0.00768516 0)
(-0.0511988 0.00763166 0)
(-0.0538209 0.00756111 0)
(-0.056417 0.00747507 0)
(-0.058982 0.00737501 0)
(-0.0615114 0.00726236 0)
(-0.064001 0.00713849 0)
(-0.0664473 0.00700471 0)
(-0.0688469 0.00686225 0)
(-0.0711971 0.00671229 0)
(-0.0734954 0.00655595 0)
(-0.0757397 0.00639425 0)
(-0.0779283 0.00622817 0)
(-0.0800598 0.00605862 0)
(-0.0821329 0.00588642 0)
(-0.0841469 0.00571237 0)
(-0.0861012 0.00553716 0)
(-0.0879954 0.00536144 0)
(-0.0898293 0.0051858 0)
(-0.091603 0.00501077 0)
(-0.0933167 0.00483682 0)
(-0.0949708 0.00466438 0)
(-0.0965658 0.00449381 0)
(-0.0981022 0.00432543 0)
(-0.0995809 0.00415953 0)
(-0.101003 0.00399631 0)
(-0.102368 0.00383599 0)
(-0.103679 0.00367869 0)
(-0.104935 0.00352454 0)
(-0.106139 0.00337362 0)
(-0.10729 0.00322595 0)
(-0.108391 0.00308156 0)
(-0.109441 0.00294043 0)
(-0.110443 0.00280251 0)
(-0.111397 0.00266774 0)
(-0.112305 0.00253602 0)
(-0.113167 0.00240724 0)
(-0.113984 0.00228125 0)
(-0.114757 0.00215791 0)
(-0.115487 0.00203705 0)
(-0.116175 0.00191847 0)
(-0.116822 0.00180197 0)
(-0.117427 0.00168734 0)
(-0.117993 0.00157434 0)
(-0.118519 0.00146273 0)
(-0.119005 0.00135226 0)
(-0.119452 0.00124267 0)
(-0.119861 0.00113368 0)
(-0.120231 0.00102503 0)
(-0.120563 0.000916421 0)
(-0.120856 0.000807567 0)
(-0.12111 0.000698174 0)
(-0.121325 0.000587942 0)
(-0.121501 0.000476571 0)
(-0.121638 0.000363758 0)
(-0.121734 0.000249198 0)
(-0.121789 0.00013259 0)
(-0.121803 1.36306e-05 0)
(-0.121774 -0.000107977 0)
(-0.121701 -0.000232527 0)
(-0.121584 -0.000360308 0)
(-0.121422 -0.000491601 0)
(-0.121213 -0.000626679 0)
(-0.120956 -0.000765803 0)
(-0.120649 -0.000909222 0)
(-0.120291 -0.00105717 0)
(-0.119881 -0.00120987 0)
(-0.119416 -0.00136752 0)
(-0.118896 -0.00153031 0)
(-0.118318 -0.00169837 0)
(-0.117681 -0.00187186 0)
(-0.116983 -0.00205087 0)
(-0.116221 -0.00223547 0)
(-0.115395 -0.00242569 0)
(-0.114503 -0.00262155 0)
(-0.113542 -0.00282299 0)
(-0.11251 -0.00302994 0)
(-0.111407 -0.00324226 0)
(-0.110229 -0.00345977 0)
(-0.108977 -0.00368225 0)
(-0.107647 -0.00390939 0)
(-0.106239 -0.00414085 0)
(-0.104751 -0.00437622 0)
(-0.103183 -0.00461502 0)
(-0.101532 -0.00485669 0)
(-0.0997992 -0.00510062 0)
(-0.0979832 -0.00534611 0)
(-0.0960837 -0.00559239 0)
(-0.0941008 -0.0058386 0)
(-0.0920348 -0.00608383 0)
(-0.0898862 -0.00632705 0)
(-0.0876561 -0.00656718 0)
(-0.0853459 -0.00680302 0)
(-0.0829571 -0.00703334 0)
(-0.0804922 -0.00725677 0)
(-0.0779536 -0.00747192 0)
(-0.0753446 -0.00767727 0)
(-0.0726688 -0.00787127 0)
(-0.0699304 -0.00805228 0)
(-0.067134 -0.00821859 0)
(-0.064285 -0.00836846 0)
(-0.0613893 -0.00850007 0)
(-0.0584533 -0.00861158 0)
(-0.0554842 -0.00870111 0)
(-0.0524895 -0.00876675 0)
(-0.0494776 -0.00880661 0)
(-0.0464573 -0.00881876 0)
(-0.0434383 -0.00880134 0)
(-0.0404305 -0.0087525 0)
(-0.0374446 -0.00867045 0)
(-0.0344918 -0.00855348 0)
(-0.0315836 -0.00840001 0)
(-0.0287322 -0.00820857 0)
(-0.0259501 -0.00797789 0)
(-0.0232499 -0.0077069 0)
(-0.0206446 -0.00739483 0)
(-0.0181472 -0.00704123 0)
(-0.0157707 -0.00664609 0)
(-0.0135278 -0.00620994 0)
(-0.0114308 -0.00573398 0)
(-0.00949136 -0.00522028 0)
(-0.00772013 -0.00467202 0)
(-0.00612645 -0.00409379 0)
(-0.00471793 -0.00349207 0)
(-0.00349994 -0.0028757 0)
(-0.00247503 -0.00225672 0)
(-0.00164233 -0.00165123 0)
(-0.00099678 -0.00108075 0)
(-0.00052828 -0.000573767 0)
(-0.000220656 -0.00016742 0)
(-5.27518e-05 9.02032e-05 0)
(-4.35814e-07 0.000132671 0)
(-7.72442e-06 -9.57438e-05 0)
(-8.99842e-05 2.18943e-05 0)
(-0.000311377 0.000359975 0)
(-0.000684052 0.000853127 0)
(-0.00122207 0.00145273 0)
(-0.00193769 0.00212035 0)
(-0.00283824 0.00282582 0)
(-0.00392691 0.00354584 0)
(-0.00520348 0.00426258 0)
(-0.00666486 0.0049625 0)
(-0.0083055 0.0056355 0)
(-0.0101179 0.00627415 0)
(-0.0120931 0.00687313 0)
(-0.0142209 0.00742882 0)
(-0.0164901 0.0079389 0)
(-0.0188892 0.00840209 0)
(-0.021406 0.00881795 0)
(-0.0240285 0.00918668 0)
(-0.0267444 0.009509 0)
(-0.0295417 0.00978604 0)
(-0.0324085 0.0100192 0)
(-0.0353333 0.0102102 0)
(-0.038305 0.010361 0)
(-0.0413129 0.0104734 0)
(-0.0443469 0.0105496 0)
(-0.0473973 0.0105917 0)
(-0.050455 0.010602 0)
(-0.0535115 0.0105826 0)
(-0.0565588 0.0105357 0)
(-0.0595894 0.0104634 0)
(-0.0625967 0.010368 0)
(-0.0655742 0.0102513 0)
(-0.0685163 0.0101155 0)
(-0.0714178 0.00996252 0)
(-0.074274 0.00979411 0)
(-0.0770807 0.00961209 0)
(-0.0798343 0.00941813 0)
(-0.0825315 0.00921384 0)
(-0.0851695 0.00900071 0)
(-0.0877459 0.00878016 0)
(-0.0902587 0.00855352 0)
(-0.0927062 0.00832202 0)
(-0.0950871 0.0080868 0)
(-0.0974005 0.00784892 0)
(-0.0996456 0.00760936 0)
(-0.101822 0.00736899 0)
(-0.103929 0.00712862 0)
(-0.105968 0.00688899 0)
(-0.107938 0.00665073 0)
(-0.109839 0.00641444 0)
(-0.111673 0.00618061 0)
(-0.113439 0.00594969 0)
(-0.11514 0.00572206 0)
(-0.116775 0.00549804 0)
(-0.118345 0.00527788 0)
(-0.119853 0.0050618 0)
(-0.121298 0.00484994 0)
(-0.122682 0.00464243 0)
(-0.124007 0.00443932 0)
(-0.125272 0.00424062 0)
(-0.126481 0.00404633 0)
(-0.127633 0.00385639 0)
(-0.12873 0.00367069 0)
(-0.129774 0.00348912 0)
(-0.130764 0.00331153 0)
(-0.131703 0.00313773 0)
(-0.132592 0.00296751 0)
(-0.13343 0.00280064 0)
(-0.13422 0.00263687 0)
(-0.134962 0.00247591 0)
(-0.135657 0.00231748 0)
(-0.136305 0.00216126 0)
(-0.136907 0.00200693 0)
(-0.137464 0.00185413 0)
(-0.137975 0.00170252 0)
(-0.138442 0.00155173 0)
(-0.138864 0.00140138 0)
(-0.139241 0.00125109 0)
(-0.139574 0.00110046 0)
(-0.139862 0.000949084 0)
(-0.140105 0.000796567 0)
(-0.140302 0.000642495 0)
(-0.140453 0.000486458 0)
(-0.140558 0.000328044 0)
(-0.140615 0.000166843 0)
(-0.140625 2.44572e-06 0)
(-0.140585 -0.000165552 0)
(-0.140495 -0.000337547 0)
(-0.140353 -0.000513931 0)
(-0.140159 -0.000695082 0)
(-0.139911 -0.000881369 0)
(-0.139608 -0.00107314 0)
(-0.139248 -0.00127074 0)
(-0.138828 -0.00147449 0)
(-0.138349 -0.00168466 0)
(-0.137807 -0.00190154 0)
(-0.137201 -0.00212537 0)
(-0.136529 -0.00235634 0)
(-0.135789 -0.00259464 0)
(-0.134979 -0.0028404 0)
(-0.134096 -0.00309371 0)
(-0.13314 -0.00335461 0)
(-0.132107 -0.0036231 0)
(-0.130996 -0.00389912 0)
(-0.129804 -0.00418254 0)
(-0.12853 -0.00447318 0)
(-0.127172 -0.0047708 0)
(-0.125727 -0.00507506 0)
(-0.124195 -0.00538557 0)
(-0.122573 -0.00570183 0)
(-0.120861 -0.0060233 0)
(-0.119056 -0.0063493 0)
(-0.117159 -0.00667908 0)
(-0.115167 -0.0070118 0)
(-0.113081 -0.00734651 0)
(-0.1109 -0.00768215 0)
(-0.108624 -0.00801757 0)
(-0.106253 -0.00835149 0)
(-0.103789 -0.00868254 0)
(-0.101233 -0.00900923 0)
(-0.0985848 -0.00932996 0)
(-0.095848 -0.00964303 0)
(-0.0930247 -0.00994661 0)
(-0.0901179 -0.0102388 0)
(-0.0871313 -0.0105175 0)
(-0.0840689 -0.0107807 0)
(-0.0809355 -0.0110262 0)
(-0.0777364 -0.0112516 0)
(-0.0744777 -0.0114546 0)
(-0.0711659 -0.0116327 0)
(-0.0678084 -0.0117835 0)