/*--------------------------------*- C++ -*----------------------------------*\
  =========                 |
  \\      /  F ield         | OpenFOAM: The Open Source CFD Toolbox
   \\    /   O peration     | Website:  https://openfoam.org
    \\  /    A nd           | Version:  7
     \\/     M anipulation  |
\*---------------------------------------------------------------------------*/
FoamFile
{
    version     2.0;
    format      ascii;
    class       volScalarField;
    location    "0.4";
    object      p;
}
// * * * * * * * * * * * * * * * * * * * * * * * * * * * * * * * * * * * * * //

dimensions      [0 2 -2 0 0 0 0];

internalField   nonuniform List<scalar> 
51200
(
1.49262e-06
2.0081e-06
3.32858e-06
6.39702e-06
1.11689e-05
1.73686e-05
2.47127e-05
3.29379e-05
4.17977e-05
5.10608e-05
6.05242e-05
7.00182e-05
7.9399e-05
8.85381e-05
9.73223e-05
0.000105656
0.000113455
0.000120644
0.000127156
0.000132934
0.000137933
0.000142113
0.00014544
0.000147884
0.00014942
0.000150027
0.000149692
0.000148407
0.000146168
0.00014297
0.000138814
0.000133698
0.000127623
0.000120592
0.000112612
0.000103692
9.38427e-05
8.30779e-05
7.14109e-05
5.88566e-05
4.54305e-05
3.11488e-05
1.60281e-05
8.64409e-08
-1.66573e-05
-3.41836e-05
-5.24727e-05
-7.15048e-05
-9.126e-05
-0.000111718
-0.000132859
-0.00015466
-0.0001771
-0.000200156
-0.000223808
-0.000248032
-0.000272806
-0.000298107
-0.000323913
-0.000350199
-0.000376943
-0.000404123
-0.000431717
-0.000459704
-0.00048806
-0.000516766
-0.000545796
-0.000575129
-0.00060474
-0.000634606
-0.000664705
-0.000695015
-0.000725513
-0.000756177
-0.000786985
-0.000817916
-0.000848947
-0.000880058
-0.000911226
-0.000942428
-0.000973642
-0.00100485
-0.00103601
-0.00106713
-0.00109816
-0.0011291
-0.00115991
-0.00119059
-0.00122109
-0.00125141
-0.00128151
-0.00131138
-0.001341
-0.00137033
-0.00139937
-0.00142807
-0.00145643
-0.00148442
-0.00151202
-0.00153921
-0.00156595
-0.00159224
-0.00161804
-0.00164333
-0.0016681
-0.00169231
-0.00171595
-0.00173899
-0.00176142
-0.0017832
-0.00180431
-0.00182474
-0.00184447
-0.00186347
-0.00188172
-0.0018992
-0.0019159
-0.00193179
-0.00194685
-0.00196107
-0.00197444
-0.00198692
-0.00199851
-0.0020092
-0.00201897
-0.00202781
-0.00203571
-0.00204266
-0.00204865
-0.00205368
-0.00205775
-0.00206085
-0.00206299
-0.00206418
-0.00206441
-0.00206371
-0.00206208
-0.00205954
-0.00205613
-0.00205186
-0.00204677
-0.00204091
-0.00203432
-0.00202706
-0.00201918
-0.00201078
-0.00200192
-0.00199272
-0.00198328
-0.00197374
-0.00196425
-0.00195497
-0.00194609
-0.00193784
-0.0019305
-0.00192434
-0.00191964
-0.00191659
-0.00191542
-0.00191587
3.19608e-06
2.77271e-06
3.90358e-06
6.669e-06
1.0845e-05
1.62295e-05
2.26106e-05
2.97778e-05
3.75309e-05
4.56755e-05
5.40329e-05
6.24473e-05
7.07835e-05
7.89207e-05
8.67519e-05
9.41855e-05
0.000101142
0.000107548
0.000113337
0.000118449
0.000122836
0.000126456
0.000129273
0.000131259
0.000132388
0.000132638
0.000131996
0.000130448
0.00012799
0.000124615
0.000120322
0.000115108
0.000108975
0.000101923
9.39561e-05
8.5082e-05
7.53096e-05
6.46502e-05
5.31165e-05
4.07224e-05
2.74825e-05
1.3412e-05
-1.47317e-06
-1.71567e-05
-3.36211e-05
-5.08483e-05
-6.88198e-05
-8.75166e-05
-0.00010692
-0.00012701
-0.000147768
-0.000169173
-0.000191204
-0.00021384
-0.000237059
-0.00026084
-0.00028516
-0.000309997
-0.000335329
-0.000361134
-0.000387389
-0.000414074
-0.000441166
-0.000468644
-0.000496486
-0.000524673
-0.000553179
-0.000581984
-0.000611063
-0.000640394
-0.000669955
-0.000699722
-0.000729675
-0.000759793
-0.000790052
-0.000820432
-0.000850912
-0.00088147
-0.000912085
-0.000942733
-0.000973394
-0.00100404
-0.00103466
-0.00106522
-0.0010957
-0.00112609
-0.00115635
-0.00118647
-0.00121643
-0.00124621
-0.00127577
-0.0013051
-0.00133418
-0.00136299
-0.00139149
-0.00141968
-0.00144752
-0.001475
-0.00150209
-0.00152877
-0.00155503
-0.00158083
-0.00160615
-0.00163098
-0.00165529
-0.00167905
-0.00170226
-0.00172487
-0.00174688
-0.00176826
-0.00178899
-0.00180905
-0.00182842
-0.00184709
-0.00186502
-0.0018822
-0.00189862
-0.00191425
-0.00192908
-0.00194308
-0.00195626
-0.00196858
-0.00198004
-0.00199062
-0.00200031
-0.0020091
-0.00201699
-0.00202397
-0.00203002
-0.00203515
-0.00203936
-0.00204264
-0.002045
-0.00204645
-0.002047
-0.00204665
-0.00204543
-0.00204335
-0.00204045
-0.00203675
-0.00203228
-0.0020271
-0.00202124
-0.00201476
-0.00200773
-0.00200023
-0.00199232
-0.00198412
-0.00197573
-0.00196727
-0.00195889
-0.00195073
-0.00194296
-0.00193577
-0.00192938
-0.00192402
-0.00191995
-0.00191731
-0.00191624
-0.00191665
2.37811e-06
1.77177e-06
2.85163e-06
5.44799e-06
9.26708e-06
1.41391e-05
1.98915e-05
2.63455e-05
3.33262e-05
4.06659e-05
4.82091e-05
5.58166e-05
6.33621e-05
7.07312e-05
7.7824e-05
8.45538e-05
9.08444e-05
9.66254e-05
0.000101832
0.000106405
0.000110295
0.000113457
0.000115856
0.000117463
0.000118252
0.000118205
0.000117302
0.000115533
0.000112888
0.000109361
0.000104948
9.96471e-05
9.34573e-05
8.63791e-05
7.84156e-05
6.95721e-05
5.98563e-05
4.92782e-05
3.78495e-05
2.55828e-05
1.24919e-05
-1.40861e-06
-1.61036e-05
-3.15775e-05
-4.7814e-05
-6.47964e-05
-8.25072e-05
-0.000100928
-0.000120041
-0.000139828
-0.00016027
-0.000181347
-0.000203038
-0.000225325
-0.000248184
-0.000271596
-0.000295538
-0.000319989
-0.000344926
-0.000370328
-0.000396174
-0.000422443
-0.000449114
-0.000476166
-0.000503578
-0.000531329
-0.000559396
-0.000587757
-0.000616389
-0.00064527
-0.000674377
-0.000703688
-0.000733183
-0.00076284
-0.000792637
-0.000822554
-0.00085257
-0.000882663
-0.000912811
-0.000942993
-0.000973186
-0.00100337
-0.00103352
-0.00106361
-0.00109363
-0.00112355
-0.00115335
-0.00118301
-0.00121251
-0.00124183
-0.00127094
-0.00129982
-0.00132844
-0.0013568
-0.00138486
-0.00141261
-0.00144002
-0.00146707
-0.00149374
-0.00152
-0.00154584
-0.00157124
-0.00159617
-0.00162061
-0.00164453
-0.00166793
-0.00169076
-0.00171303
-0.00173469
-0.00175574
-0.00177615
-0.00179591
-0.00181499
-0.00183337
-0.00185104
-0.00186798
-0.00188417
-0.00189959
-0.00191422
-0.00192806
-0.00194108
-0.00195327
-0.00196463
-0.00197513
-0.00198476
-0.00199353
-0.00200141
-0.00200841
-0.00201453
-0.00201975
-0.00202407
-0.00202751
-0.00203006
-0.00203174
-0.00203254
-0.00203249
-0.00203161
-0.00202992
-0.00202744
-0.00202419
-0.00202023
-0.00201559
-0.00201032
-0.00200447
-0.00199811
-0.00199131
-0.00198414
-0.00197671
-0.00196911
-0.00196145
-0.00195388
-0.00194653
-0.00193956
-0.0019331
-0.00192733
-0.00192242
-0.00191862
-0.00191614
-0.00191518
-0.0019157
-6.01731e-07
-9.27393e-07
3.03764e-07
2.89517e-06
6.56385e-06
1.11574e-05
1.65276e-05
2.25162e-05
2.89674e-05
3.57333e-05
4.26785e-05
4.96781e-05
5.66158e-05
6.33855e-05
6.98942e-05
7.60609e-05
8.18124e-05
8.70809e-05
9.18046e-05
9.59268e-05
9.93973e-05
0.000102172
0.000104215
0.000105497
0.000105994
0.000105686
0.000104556
0.00010259
9.97795e-05
9.61157e-05
9.1594e-05
8.62112e-05
7.99655e-05
7.28571e-05
6.48882e-05
5.60635e-05
4.63898e-05
3.58757e-05
2.45319e-05
1.23703e-05
-5.96753e-07
-1.43553e-05
-2.88905e-05
-4.41873e-05
-6.02306e-05
-7.70046e-05
-9.44927e-05
-0.000112678
-0.000131542
-0.000151067
-0.000171236
-0.000192029
-0.000213427
-0.00023541
-0.000257957
-0.000281047
-0.00030466
-0.000328773
-0.000353366
-0.000378416
-0.000403904
-0.00042981
-0.000456112
-0.00048279
-0.000509825
-0.000537193
-0.000564874
-0.000592845
-0.000621084
-0.000649568
-0.000678277
-0.000707187
-0.000736278
-0.000765529
-0.000794919
-0.000824427
-0.000854034
-0.000883716
-0.000913453
-0.000943223
-0.000973004
-0.00100277
-0.00103251
-0.00106219
-0.0010918
-0.00112131
-0.00115071
-0.00117996
-0.00120906
-0.00123797
-0.00126668
-0.00129516
-0.00132339
-0.00135136
-0.00137903
-0.00140639
-0.00143342
-0.00146009
-0.00148639
-0.00151229
-0.00153777
-0.00156281
-0.00158739
-0.00161149
-0.00163508
-0.00165815
-0.00168067
-0.00170263
-0.001724
-0.00174476
-0.0017649
-0.00178439
-0.00180322
-0.00182136
-0.00183881
-0.00185554
-0.00187153
-0.00188677
-0.00190125
-0.00191494
-0.00192784
-0.00193993
-0.00195119
-0.00196163
-0.00197122
-0.00197997
-0.00198786
-0.00199489
-0.00200106
-0.00200636
-0.0020108
-0.00201438
-0.0020171
-0.00201897
-0.00202
-0.00202022
-0.00201963
-0.00201826
-0.00201613
-0.00201328
-0.00200974
-0.00200556
-0.00200077
-0.00199544
-0.00198962
-0.00198338
-0.0019768
-0.00196997
-0.00196298
-0.00195593
-0.00194895
-0.00194216
-0.00193571
-0.00192975
-0.00192441
-0.00191979
-0.00191607
-0.0019135
-0.00191238
-0.0019127
-5.31905e-06
-5.04373e-06
-3.46473e-06
-7.30908e-07
2.93607e-06
7.40061e-06
1.25322e-05
1.81936e-05
2.42482e-05
3.05671e-05
3.7031e-05
4.35283e-05
4.99541e-05
5.62119e-05
6.22163e-05
6.78907e-05
7.31649e-05
7.79749e-05
8.22623e-05
8.59734e-05
8.90592e-05
9.14768e-05
9.31899e-05
9.41695e-05
9.43923e-05
9.38387e-05
9.24923e-05
9.03395e-05
8.73694e-05
8.35735e-05
7.89454e-05
7.34807e-05
6.71773e-05
6.00346e-05
5.20548e-05
4.32419e-05
3.36021e-05
2.31434e-05
1.18753e-05
-1.91643e-07
-1.30457e-05
-2.66739e-05
-4.10619e-05
-5.61952e-05
-7.20594e-05
-8.86396e-05
-0.00010592
-0.000123884
-0.000142515
-0.000161795
-0.000181707
-0.000202232
-0.000223353
-0.000245048
-0.000267299
-0.000290085
-0.000313385
-0.000337178
-0.000361443
-0.000386159
-0.000411306
-0.000436864
-0.000462815
-0.000489137
-0.00051581
-0.000542814
-0.000570125
-0.000597723
-0.000625586
-0.000653691
-0.000682017
-0.000710543
-0.000739247
-0.000768109
-0.000797108
-0.000826226
-0.000855439
-0.000884728
-0.000914071
-0.000943446
-0.000972832
-0.00100221
-0.00103155
-0.00106084
-0.00109005
-0.00111917
-0.00114817
-0.00117704
-0.00120574
-0.00123427
-0.00126259
-0.00129069
-0.00131855
-0.00134614
-0.00137344
-0.00140043
-0.0014271
-0.00145341
-0.00147935
-0.0015049
-0.00153004
-0.00155475
-0.001579
-0.00160277
-0.00162605
-0.00164881
-0.00167103
-0.0016927
-0.00171379
-0.00173428
-0.00175416
-0.0017734
-0.00179199
-0.00180992
-0.00182715
-0.00184369
-0.0018595
-0.00187458
-0.0018889
-0.00190247
-0.00191525
-0.00192724
-0.00193843
-0.00194881
-0.00195837
-0.00196711
-0.00197501
-0.00198207
-0.0019883
-0.00199368
-0.00199823
-0.00200194
-0.00200482
-0.00200689
-0.00200814
-0.0020086
-0.00200828
-0.00200722
-0.00200542
-0.00200293
-0.00199978
-0.001996
-0.00199165
-0.00198678
-0.00198144
-0.0019757
-0.00196963
-0.00196332
-0.00195684
-0.00195029
-0.00194378
-0.00193743
-0.00193136
-0.00192571
-0.00192063
-0.00191619
-0.0019125
-0.00190973
-0.00190819
-0.00190794
-1.14966e-05
-1.03914e-05
-8.30108e-06
-5.29069e-06
-1.48997e-06
2.97922e-06
8.00169e-06
1.34602e-05
1.92387e-05
2.52251e-05
3.13147e-05
3.74086e-05
4.34138e-05
4.92444e-05
5.48216e-05
6.00729e-05
6.49318e-05
6.9338e-05
7.32371e-05
7.65788e-05
7.93164e-05
8.14083e-05
8.28194e-05
8.3521e-05
8.349e-05
8.27076e-05
8.1158e-05
7.8828e-05
7.57063e-05
7.17835e-05
6.7052e-05
6.15068e-05
5.51447e-05
4.79653e-05
3.99702e-05
3.11631e-05
2.15499e-05
1.11381e-05
-6.40528e-08
-1.20468e-05
-2.47992e-05
-3.83089e-05
-5.25623e-05
-6.75457e-05
-8.32451e-05
-9.96463e-05
-0.000116734
-0.000134493
-0.000152907
-0.000171958
-0.000191631
-0.000211906
-0.000232766
-0.000254192
-0.000276165
-0.000298665
-0.00032167
-0.000345161
-0.000369116
-0.000393515
-0.00041834
-0.000443571
-0.000469189
-0.000495173
-0.000521505
-0.000548162
-0.000575123
-0.000602367
-0.000629872
-0.000657616
-0.000685579
-0.000713739
-0.000742075
-0.000770567
-0.000799195
-0.000827939
-0.000856779
-0.000885694
-0.000914661
-0.00094366
-0.000972669
-0.00100167
-0.00103063
-0.00105955
-0.00108838
-0.00111713
-0.00114576
-0.00117425
-0.00120259
-0.00123075
-0.00125871
-0.00128645
-0.00131394
-0.00134117
-0.00136812
-0.00139477
-0.00142109
-0.00144706
-0.00147267
-0.00149789
-0.0015227
-0.00154709
-0.00157103
-0.0015945
-0.00161748
-0.00163995
-0.00166189
-0.00168329
-0.00170411
-0.00172435
-0.00174398
-0.001763
-0.00178137
-0.00179909
-0.00181613
-0.00183248
-0.00184813
-0.00186306
-0.00187725
-0.00189069
-0.00190337
-0.00191528
-0.0019264
-0.00193674
-0.00194627
-0.001955
-0.00196291
-0.00197001
-0.0019763
-0.00198176
-0.00198641
-0.00199025
-0.00199329
-0.00199553
-0.00199699
-0.00199768
-0.00199762
-0.00199683
-0.00199534
-0.00199317
-0.00199037
-0.00198696
-0.001983
-0.00197853
-0.00197361
-0.0019683
-0.00196267
-0.00195678
-0.00195072
-0.00194458
-0.00193845
-0.00193242
-0.00192662
-0.00192115
-0.00191615
-0.00191173
-0.00190795
-0.00190492
-0.00190283
-0.00190174
-1.88536e-05
-1.67671e-05
-1.40392e-05
-1.06382e-05
-6.58918e-06
-1.99801e-06
3.0313e-06
8.4016e-06
1.40148e-05
1.97747e-05
2.55898e-05
3.13743e-05
3.70472e-05
4.25321e-05
4.7757e-05
5.26539e-05
5.71601e-05
6.1219e-05
6.47798e-05
6.77957e-05
7.0223e-05
7.20225e-05
7.31607e-05
7.36098e-05
7.33472e-05
7.23546e-05
7.0617e-05
6.81216e-05
6.4857e-05
6.08134e-05
5.59826e-05
5.03587e-05
4.39383e-05
3.67205e-05
2.87064e-05
1.98999e-05
1.03064e-05
-6.71737e-08
-1.12131e-05
-2.31226e-05
-3.5785e-05
-4.91886e-05
-6.33208e-05
-7.81683e-05
-9.37178e-05
-0.000109956
-0.000126867
-0.000144438
-0.000162652
-0.000181493
-0.000200944
-0.000220988
-0.000241607
-0.000262784
-0.000284498
-0.000306731
-0.000329461
-0.00035267
-0.000376335
-0.000400439
-0.000424962
-0.000449886
-0.000475192
-0.00050086
-0.00052687
-0.000553202
-0.000579833
-0.000606744
-0.000633913
-0.000661318
-0.000688939
-0.000716754
-0.000744743
-0.000772886
-0.000801164
-0.000829557
-0.000858044
-0.000886605
-0.000915219
-0.000943863
-0.000972517
-0.00100116
-0.00102977
-0.00105833
-0.00108681
-0.00111521
-0.00114349
-0.00117163
-0.00119962
-0.00122743
-0.00125505
-0.00128245
-0.0013096
-0.0013365
-0.00136312
-0.00138943
-0.00141543
-0.00144108
-0.00146638
-0.00149129
-0.0015158
-0.00153989
-0.00156354
-0.00158672
-0.00160942
-0.00163163
-0.00165331
-0.00167445
-0.00169503
-0.00171503
-0.00173444
-0.00175324
-0.00177141
-0.00178894
-0.0018058
-0.00182199
-0.00183749
-0.00185228
-0.00186635
-0.00187968
-0.00189227
-0.00190411
-0.00191518
-0.00192547
-0.00193498
-0.00194371
-0.00195164
-0.00195878
-0.00196512
-0.00197067
-0.00197542
-0.00197938
-0.00198256
-0.00198497
-0.00198662
-0.00198752
-0.00198769
-0.00198715
-0.00198593
-0.00198406
-0.00198157
-0.00197849
-0.00197486
-0.00197074
-0.00196618
-0.00196123
-0.00195595
-0.00195042
-0.00194469
-0.00193885
-0.00193299
-0.00192719
-0.00192156
-0.00191617
-0.00191114
-0.00190657
-0.00190257
-0.00189918
-0.00189645
-0.00189437
-2.71117e-05
-2.39539e-05
-2.04973e-05
-1.66184e-05
-1.22302e-05
-7.42315e-06
-2.28873e-06
3.09176e-06
8.63618e-06
1.42623e-05
1.98919e-05
2.54515e-05
3.08712e-05
3.60835e-05
4.10233e-05
4.56279e-05
4.98389e-05
5.36029e-05
5.68724e-05
5.96037e-05
6.17568e-05
6.32957e-05
6.41889e-05
6.44101e-05
6.39373e-05
6.2753e-05
6.08427e-05
5.81939e-05
5.47953e-05
5.0637e-05
4.57108e-05
4.00104e-05
3.3532e-05
2.62744e-05
1.82386e-05
9.42808e-06
-1.52037e-07
-1.04952e-05
-2.15942e-05
-3.34403e-05
-4.60238e-05
-5.93333e-05
-7.3357e-05
-8.80822e-05
-0.000103496
-0.000119585
-0.000136337
-0.000153735
-0.000171766
-0.000190414
-0.000209661
-0.000229492
-0.000249889
-0.000270834
-0.000292309
-0.000314294
-0.000336769
-0.000359714
-0.00038311
-0.000406938
-0.00043118
-0.000455817
-0.000480831
-0.000506203
-0.000531913
-0.00055794
-0.000584264
-0.000610862
-0.000637715
-0.000664802
-0.000692101
-0.000719592
-0.000747255
-0.00077507
-0.000803019
-0.000831081
-0.000859237
-0.000887465
-0.000915745
-0.000944055
-0.000972375
-0.00100068
-0.00102896
-0.00105719
-0.00108534
-0.0011134
-0.00114135
-0.00116917
-0.00119683
-0.00122432
-0.00125161
-0.00127868
-0.00130552
-0.00133211
-0.00135841
-0.00138442
-0.00141011
-0.00143547
-0.00146047
-0.00148509
-0.00150932
-0.00153313
-0.00155651
-0.00157943
-0.00160188
-0.00162383
-0.00164526
-0.00166617
-0.00168652
-0.00170631
-0.00172552
-0.00174412
-0.00176211
-0.00177946
-0.00179616
-0.0018122
-0.00182756
-0.00184223
-0.00185619
-0.00186943
-0.00188194
-0.00189371
-0.00190473
-0.00191499
-0.00192449
-0.00193321
-0.00194117
-0.00194835
-0.00195475
-0.00196037
-0.00196522
-0.0019693
-0.00197261
-0.00197518
-0.001977
-0.00197809
-0.00197847
-0.00197816
-0.00197719
-0.00197557
-0.00197335
-0.00197056
-0.00196723
-0.00196341
-0.00195914
-0.00195448
-0.00194949
-0.00194423
-0.00193877
-0.00193316
-0.00192747
-0.0019218
-0.00191623
-0.00191084
-0.00190569
-0.0019009
-0.00189654
-0.00189269
-0.00188925
-0.00188611
-3.60217e-05
-3.17458e-05
-2.7503e-05
-2.30817e-05
-1.8285e-05
-1.31863e-05
-7.8672e-06
-2.39444e-06
3.16329e-06
8.73691e-06
1.42605e-05
1.96712e-05
2.49085e-05
2.99135e-05
3.46282e-05
3.8996e-05
4.29629e-05
4.64792e-05
4.95e-05
5.19852e-05
5.38985e-05
5.52069e-05
5.58819e-05
5.58984e-05
5.52361e-05
5.38779e-05
5.18099e-05
4.90197e-05
4.5496e-05
4.12292e-05
3.62114e-05
3.04364e-05
2.39003e-05
1.66018e-05
8.5417e-06
-2.76856e-07
-9.84916e-06
-2.01691e-05
-3.12293e-05
-4.30215e-05
-5.55362e-05
-6.8763e-05
-8.26904e-05
-9.73063e-05
-0.000112598
-0.000128554
-0.00014516
-0.000162402
-0.000180266
-0.000198736
-0.000217797
-0.000237432
-0.000257625
-0.000278357
-0.000299611
-0.000321366
-0.000343604
-0.000366306
-0.000389451
-0.000413023
-0.000437003
-0.000461373
-0.000486116
-0.000511212
-0.000536641
-0.000562384
-0.000588419
-0.000614726
-0.000641284
-0.000668071
-0.000695069
-0.000722256
-0.000749614
-0.000777122
-0.000804762
-0.000832514
-0.000860358
-0.000888274
-0.000916241
-0.000944238
-0.000972244
-0.00100024
-0.0010282
-0.00105611
-0.00108396
-0.00111171
-0.00113935
-0.00116685
-0.00119421
-0.00122139
-0.00124838
-0.00127516
-0.0013017
-0.00132799
-0.001354
-0.00137973
-0.00140514
-0.00143021
-0.00145494
-0.0014793
-0.00150326
-0.00152681
-0.00154994
-0.00157261
-0.00159482
-0.00161654
-0.00163775
-0.00165844
-0.00167859
-0.00169818
-0.00171719
-0.00173562
-0.00175343
-0.00177063
-0.00178718
-0.00180309
-0.00181832
-0.00183288
-0.00184674
-0.0018599
-0.00187234
-0.00188406
-0.00189503
-0.00190527
-0.00191476
-0.00192349
-0.00193147
-0.00193869
-0.00194515
-0.00195085
-0.00195579
-0.00195998
-0.00196342
-0.00196612
-0.0019681
-0.00196937
-0.00196994
-0.00196983
-0.00196908
-0.00196769
-0.00196571
-0.00196316
-0.00196008
-0.00195651
-0.00195249
-0.00194807
-0.0019433
-0.00193825
-0.00193297
-0.00192752
-0.00192195
-0.00191632
-0.00191073
-0.00190524
-0.00189992
-0.00189482
-0.00189004
-0.00188565
-0.00188143
-0.00187718
-4.53706e-05
-3.99592e-05
-3.4897e-05
-2.98877e-05
-2.46273e-05
-1.91774e-05
-1.36103e-05
-7.97912e-06
-2.33924e-06
3.25246e-06
8.74003e-06
1.40693e-05
1.91876e-05
2.40438e-05
2.85874e-05
3.27678e-05
3.65363e-05
3.98469e-05
4.2658e-05
4.49327e-05
4.66382e-05
4.7745e-05
4.82268e-05
4.80611e-05
4.72289e-05
4.5714e-05
4.35025e-05
4.05823e-05
3.69425e-05
3.25735e-05
2.74679e-05
2.16201e-05
1.50265e-05
7.68588e-06
-4.00909e-07
-9.23122e-06
-1.88008e-05
-2.91038e-05
-4.01329e-05
-5.18799e-05
-6.43359e-05
-7.74907e-05
-9.13336e-05
-0.000105853
-0.000121037
-0.000136873
-0.000153348
-0.000170449
-0.000188161
-0.00020647
-0.000225361
-0.000244817
-0.000264823
-0.00028536
-0.000306411
-0.000327955
-0.000349974
-0.00037245
-0.000395365
-0.000418699
-0.000442437
-0.00046656
-0.000491051
-0.00051589
-0.000541059
-0.000566537
-0.000592303
-0.000618338
-0.00064462
-0.00067113
-0.000697846
-0.00072475
-0.000751822
-0.000779043
-0.000806394
-0.000833856
-0.00086141
-0.000889034
-0.000916707
-0.000944411
-0.000972123
-0.000999824
-0.0010275
-0.00105512
-0.00108267
-0.00111013
-0.00113748
-0.0011647
-0.00119176
-0.00121866
-0.00124537
-0.00127187
-0.00129813
-0.00132415
-0.00134989
-0.00137534
-0.00140049
-0.00142531
-0.00144978
-0.00147389
-0.00149761
-0.00152092
-0.00154382
-0.00156626
-0.00158825
-0.00160975
-0.00163076
-0.00165125
-0.00167121
-0.00169062
-0.00170946
-0.00172772
-0.00174538
-0.00176243
-0.00177886
-0.00179464
-0.00180977
-0.00182422
-0.001838
-0.00185109
-0.00186347
-0.00187514
-0.00188608
-0.0018963
-0.00190579
-0.00191453
-0.00192253
-0.00192979
-0.00193631
-0.00194208
-0.00194711
-0.0019514
-0.00195496
-0.00195779
-0.00195992
-0.00196134
-0.00196208
-0.00196216
-0.00196159
-0.00196041
-0.00195863
-0.00195629
-0.00195342
-0.00195006
-0.00194624
-0.00194201
-0.00193741
-0.0019325
-0.00192734
-0.00192197
-0.00191645
-0.00191082
-0.00190514
-0.00189949
-0.00189391
-0.00188846
-0.0018832
-0.00187821
-0.00187318
-0.00186781
-5.49724e-05
-4.84295e-05
-4.25312e-05
-3.69016e-05
-3.11365e-05
-2.5289e-05
-1.94244e-05
-1.35817e-05
-7.80271e-06
-2.13394e-06
3.37699e-06
8.68273e-06
1.37376e-05
1.84975e-05
2.29183e-05
2.69559e-05
3.05667e-05
3.37094e-05
3.63461e-05
3.8443e-05
3.99705e-05
4.09022e-05
4.12147e-05
4.08877e-05
3.99039e-05
3.8248e-05
3.59065e-05
3.28672e-05
2.91197e-05
2.46548e-05
1.94655e-05
1.35469e-05
6.89609e-06
-4.87766e-07
-8.60381e-06
-1.74497e-05
-2.70216e-05
-3.73137e-05
-4.8319e-05
-6.00292e-05
-7.24359e-05
-8.55292e-05
-9.92987e-05
-0.000113733
-0.000128822
-0.000144552
-0.000160911
-0.000177885
-0.000195461
-0.000213625
-0.000232362
-0.000251656
-0.000271492
-0.000291851
-0.000312715
-0.000334066
-0.000355885
-0.000378154
-0.000400856
-0.000423972
-0.000447487
-0.000471382
-0.00049564
-0.000520242
-0.000545169
-0.000570402
-0.00059592
-0.000621702
-0.000647729
-0.000673979
-0.000700434
-0.000727073
-0.00075388
-0.000780834
-0.000807917
-0.000835109
-0.000862392
-0.000889743
-0.000917144
-0.000944574
-0.000972013
-0.000999441
-0.00102684
-0.00105419
-0.00108147
-0.00110866
-0.00113574
-0.00116269
-0.00118949
-0.00121612
-0.00124257
-0.00126881
-0.00129481
-0.00132057
-0.00134607
-0.00137127
-0.00139618
-0.00142075
-0.00144499
-0.00146887
-0.00149236
-0.00151546
-0.00153814
-0.00156037
-0.00158216
-0.00160347
-0.00162429
-0.0016446
-0.00166438
-0.00168362
-0.00170231
-0.00172042
-0.00173795
-0.00175487
-0.00177117
-0.00178685
-0.00180188
-0.00181625
-0.00182995
-0.00184297
-0.0018553
-0.00186694
-0.00187786
-0.00188806
-0.00189755
-0.00190631
-0.00191434
-0.00192164
-0.00192821
-0.00193405
-0.00193916
-0.00194355
-0.00194722
-0.00195018
-0.00195243
-0.001954
-0.00195489
-0.00195513
-0.00195473
-0.00195371
-0.00195211
-0.00194995
-0.00194726
-0.00194407
-0.00194041
-0.00193632
-0.00193184
-0.00192702
-0.00192192
-0.00191658
-0.00191104
-0.00190535
-0.00189954
-0.00189366
-0.00188778
-0.00188193
-0.00187616
-0.00187054
-0.00186467
-0.00185817
-6.46587e-05
-5.7004e-05
-5.02671e-05
-4.39986e-05
-3.77006e-05
-3.14208e-05
-2.5219e-05
-1.9121e-05
-1.31568e-05
-7.36319e-06
-1.78058e-06
3.5501e-06
8.58919e-06
1.32984e-05
1.76395e-05
2.15742e-05
2.50642e-05
2.80731e-05
3.05671e-05
3.25157e-05
3.38924e-05
3.46738e-05
3.48392e-05
3.43706e-05
3.32521e-05
3.14697e-05
2.901e-05
2.58617e-05
2.20143e-05
1.74594e-05
1.21905e-05
6.20324e-06
-5.04219e-07
-7.93236e-06
-1.60803e-05
-2.49458e-05
-3.45249e-05
-4.48122e-05
-5.58007e-05
-6.74824e-05
-7.98488e-05
-9.28905e-05
-0.000106597
-0.000120959
-0.000135965
-0.000151602
-0.000167858
-0.00018472
-0.000202175
-0.000220209
-0.000238808
-0.000257957
-0.000277639
-0.000297837
-0.000318532
-0.000339707
-0.000361344
-0.000383424
-0.00040593
-0.000428847
-0.000452157
-0.000475843
-0.000499888
-0.000524272
-0.000548977
-0.000573983
-0.000599271
-0.00062482
-0.000650611
-0.000676622
-0.000702834
-0.00072923
-0.00075579
-0.000782497
-0.000809331
-0.000836274
-0.000863305
-0.000890404
-0.000917552
-0.000944729
-0.000971914
-0.000999088
-0.00102623
-0.00105333
-0.00108036
-0.00110729
-0.00113413
-0.00116083
-0.00118739
-0.00121377
-0.00123998
-0.00126597
-0.00129174
-0.00131727
-0.00134253
-0.00136751
-0.00139218
-0.00141654
-0.00144056
-0.00146423
-0.00148752
-0.00151041
-0.00153289
-0.00155494
-0.00157654
-0.00159767
-0.00161832
-0.00163846
-0.00165809
-0.00167719
-0.00169573
-0.00171371
-0.00173111
-0.00174792
-0.00176412
-0.0017797
-0.00179465
-0.00180894
-0.00182258
-0.00183555
-0.00184784
-0.00185944
-0.00187035
-0.00188055
-0.00189004
-0.00189882
-0.00190688
-0.00191422
-0.00192085
-0.00192675
-0.00193194
-0.00193642
-0.00194019
-0.00194326
-0.00194563
-0.00194733
-0.00194836
-0.00194873
-0.00194848
-0.00194761
-0.00194615
-0.00194414
-0.00194159
-0.00193853
-0.00193499
-0.00193101
-0.00192662
-0.00192185
-0.00191676
-0.00191138
-0.00190578
-0.00189997
-0.00189398
-0.00188785
-0.00188163
-0.00187533
-0.00186903
-0.00186277
-0.00185606
-0.00184845
-7.42804e-05
-6.55443e-05
-5.79782e-05
-5.10646e-05
-4.42167e-05
-3.74788e-05
-3.09075e-05
-2.45187e-05
-1.83321e-05
-1.23759e-05
-6.6828e-06
-1.28766e-06
3.77534e-06
8.47282e-06
1.27715e-05
1.66383e-05
2.00405e-05
2.29463e-05
2.53261e-05
2.71532e-05
2.84037e-05
2.90575e-05
2.90963e-05
2.85044e-05
2.72671e-05
2.53711e-05
2.28043e-05
1.95555e-05
1.56153e-05
1.09757e-05
5.63079e-06
-4.22704e-07
-7.18618e-06
-1.46597e-05
-2.28421e-05
-3.17311e-05
-4.13226e-05
-5.1611e-05
-6.25897e-05
-7.42508e-05
-8.65858e-05
-9.95857e-05
-0.000113241
-0.000127541
-0.000142475
-0.000158032
-0.0001742
-0.000190964
-0.000208313
-0.000226232
-0.000244709
-0.000263728
-0.000283272
-0.000303325
-0.000323869
-0.000344885
-0.000366355
-0.000388264
-0.000410594
-0.00043333
-0.000456454
-0.00047995
-0.000503799
-0.000527984
-0.000552485
-0.000577284
-0.000602361
-0.000627696
-0.000653269
-0.00067906
-0.00070505
-0.00073122
-0.000757554
-0.000784033
-0.000810638
-0.00083735
-0.00086415
-0.000891017
-0.000917931
-0.000944874
-0.000971825
-0.000998766
-0.00102568
-0.00105254
-0.00107933
-0.00110604
-0.00113264
-0.00115912
-0.00118545
-0.00121161
-0.00123759
-0.00126336
-0.00128891
-0.00131422
-0.00133927
-0.00136404
-0.00138851
-0.00141267
-0.0014365
-0.00145997
-0.00148307
-0.00150578
-0.00152808
-0.00154996
-0.00157139
-0.00159236
-0.00161285
-0.00163285
-0.00165234
-0.0016713
-0.00168972
-0.00170759
-0.00172488
-0.00174158
-0.00175769
-0.00177319
-0.00178806
-0.0018023
-0.00181588
-0.00182881
-0.00184107
-0.00185265
-0.00186354
-0.00187374
-0.00188324
-0.00189204
-0.00190014
-0.00190753
-0.00191421
-0.00192017
-0.00192544
-0.00193
-0.00193386
-0.00193702
-0.00193951
-0.00194132
-0.00194247
-0.00194297
-0.00194284
-0.0019421
-0.00194076
-0.00193886
-0.00193642
-0.00193346
-0.00193002
-0.0019261
-0.00192176
-0.00191701
-0.00191189
-0.00190645
-0.00190073
-0.00189475
-0.00188855
-0.00188213
-0.00187554
-0.00186879
-0.00186193
-0.00185503
-0.00184748
-0.00183878
-8.37106e-05
-7.39285e-05
-6.5551e-05
-5.79944e-05
-5.05882e-05
-4.33746e-05
-3.64095e-05
-2.97018e-05
-2.32632e-05
-1.71139e-05
-1.12794e-05
-5.78806e-06
-6.68996e-07
4.04873e-06
8.33631e-06
1.21656e-05
1.55088e-05
1.83388e-05
2.06302e-05
2.23598e-05
2.35069e-05
2.40539e-05
2.39851e-05
2.32864e-05
2.19443e-05
1.99467e-05
1.72822e-05
1.39408e-05
9.91363e-06
5.19377e-06
-2.23646e-07
-6.34139e-06
-1.31604e-05
-2.06804e-05
-2.88999e-05
-3.7816e-05
-4.74247e-05
-5.77203e-05
-6.86961e-05
-8.03445e-05
-9.2657e-05
-0.000105625
-0.000119239
-0.000133488
-0.000148364
-0.000163853
-0.000179944
-0.000196624
-0.000213881
-0.000231702
-0.000250071
-0.000268976
-0.000288398
-0.000308323
-0.00032873
-0.000349604
-0.000370927
-0.000392682
-0.000414853
-0.000437426
-0.000460382
-0.000483705
-0.000507377
-0.000531381
-0.000555698
-0.000580309
-0.000605194
-0.000630333
-0.000655707
-0.000681296
-0.000707082
-0.000733048
-0.000759175
-0.000785445
-0.00081184
-0.000838341
-0.000864928
-0.000891581
-0.000918282
-0.00094501
-0.000971747
-0.000998474
-0.00102517
-0.00105182
-0.0010784
-0.0011049
-0.00113129
-0.00115755
-0.00118367
-0.00120963
-0.00123541
-0.00126098
-0.00128633
-0.00131144
-0.0013363
-0.00136088
-0.00138516
-0.00140914
-0.00143278
-0.00145608
-0.00147901
-0.00150155
-0.00152369
-0.00154542
-0.0015667
-0.00158753
-0.00160788
-0.00162775
-0.00164711
-0.00166596
-0.00168427
-0.00170203
-0.00171923
-0.00173585
-0.00175188
-0.0017673
-0.00178211
-0.0017963
-0.00180984
-0.00182274
-0.00183497
-0.00184653
-0.00185742
-0.00186763
-0.00187715
-0.00188597
-0.0018941
-0.00190154
-0.00190827
-0.0019143
-0.00191963
-0.00192427
-0.00192822
-0.00193148
-0.00193406
-0.00193597
-0.00193723
-0.00193784
-0.00193782
-0.00193718
-0.00193594
-0.00193413
-0.00193177
-0.00192888
-0.00192549
-0.00192162
-0.00191729
-0.00191253
-0.00190736
-0.00190182
-0.00189595
-0.00188977
-0.00188331
-0.00187659
-0.00186961
-0.00186238
-0.00185497
-0.00184742
-0.00183905
-0.0018293
-9.28388e-05
-8.20491e-05
-7.28816e-05
-6.46897e-05
-5.67239e-05
-4.90255e-05
-4.16509e-05
-3.46039e-05
-2.78902e-05
-2.15234e-05
-1.55226e-05
-9.90969e-06
-4.7089e-06
5.50843e-08
4.35768e-06
8.17518e-06
1.14844e-05
1.42627e-05
1.64885e-05
1.81422e-05
1.92063e-05
1.96655e-05
1.95061e-05
1.87154e-05
1.72812e-05
1.51923e-05
1.24386e-05
9.01112e-06
4.90215e-06
1.05971e-07
-5.38127e-06
-1.15618e-05
-1.84363e-05
-2.60041e-05
-3.42631e-05
-4.32101e-05
-5.28408e-05
-6.31494e-05
-7.41292e-05
-8.57726e-05
-9.80714e-05
-0.000111017
-0.0001246
-0.000138811
-0.000153639
-0.000169072
-0.0001851
-0.00020171
-0.000218889
-0.000236625
-0.000254903
-0.000273708
-0.000293025
-0.000312836
-0.000333124
-0.000353872
-0.000375063
-0.000396682
-0.000418712
-0.000441138
-0.000463944
-0.000487113
-0.000510627
-0.000534469
-0.000558619
-0.00058306
-0.00060777
-0.000632732
-0.000657926
-0.000683333
-0.000708935
-0.000734714
-0.000760653
-0.000786734
-0.000812938
-0.000839246
-0.00086564
-0.000892099
-0.000918605
-0.000945138
-0.00097168
-0.000998211
-0.00102471
-0.00105117
-0.00107756
-0.00110386
-0.00113006
-0.00115613
-0.00118207
-0.00120784
-0.00123342
-0.00125881
-0.00128398
-0.00130892
-0.0013336
-0.001358
-0.00138212
-0.00140593
-0.00142942
-0.00145255
-0.00147533
-0.00149773
-0.00151973
-0.00154131
-0.00156246
-0.00158316
-0.0016034
-0.00162315
-0.0016424
-0.00166115
-0.00167936
-0.00169703
-0.00171415
-0.0017307
-0.00174666
-0.00176203
-0.0017768
-0.00179094
-0.00180445
-0.00181732
-0.00182954
-0.0018411
-0.00185199
-0.00186221
-0.00187175
-0.0018806
-0.00188877
-0.00189625
-0.00190303
-0.00190913
-0.00191453
-0.00191924
-0.00192326
-0.00192661
-0.00192927
-0.00193128
-0.00193263
-0.00193333
-0.00193341
-0.00193286
-0.0019317
-0.00192996
-0.00192765
-0.00192481
-0.00192145
-0.00191759
-0.00191324
-0.00190844
-0.0019032
-0.00189754
-0.0018915
-0.00188509
-0.00187835
-0.00187129
-0.0018639
-0.0018562
-0.00184823
-0.00184004
-0.00183088