/*--------------------------------*- C++ -*----------------------------------*\
  =========                 |
  \\      /  F ield         | OpenFOAM: The Open Source CFD Toolbox
   \\    /   O peration     | Website:  https://openfoam.org
    \\  /    A nd           | Version:  7
     \\/     M anipulation  |
\*---------------------------------------------------------------------------*/
FoamFile
{
    version     2.0;
    format      ascii;
    class       volScalarField;
    location    "0.0375";
    object      p;
}
// * * * * * * * * * * * * * * * * * * * * * * * * * * * * * * * * * * * * * //

dimensions      [0 2 -2 0 0 0 0];

internalField   nonuniform List<scalar> 
51200
(
6.64155e-08
-0.0537975
-0.13103
-0.202237
-0.257978
-0.304971
-0.346166
-0.383281
-0.417391
-0.449118
-0.47888
-0.506965
-0.533443
-0.55836
-0.581749
-0.603654
-0.62411
-0.643042
-0.660527
-0.676735
-0.691675
-0.705312
-0.717735
-0.728901
-0.739065
-0.748352
-0.756876
-0.76465
-0.771797
-0.778387
-0.784501
-0.790307
-0.795853
-0.801102
-0.806054
-0.810744
-0.815215
-0.819547
-0.823856
-0.828189
-0.832494
-0.836703
-0.840788
-0.844762
-0.848641
-0.852468
-0.856314
-0.860211
-0.864174
-0.868214
-0.872339
-0.876575
-0.880923
-0.88539
-0.889996
-0.894713
-0.89949
-0.904309
-0.909182
-0.914111
-0.919067
-0.923992
-0.928846
-0.933627
-0.938348
-0.943014
-0.94762
-0.952166
-0.956661
-0.96111
-0.965497
-0.969802
-0.974019
-0.978147
-0.982162
-0.986023
-0.989712
-0.993248
-0.99665
-0.999899
-1.00296
-1.0058
-1.00845
-1.01093
-1.01329
-1.01556
-1.01777
-1.01995
-1.02216
-1.02443
-1.02675
-1.02909
-1.03142
-1.03372
-1.036
-1.03827
-1.04051
-1.04267
-1.04473
-1.04668
-1.04856
-1.05041
-1.05227
-1.05412
-1.05596
-1.05782
-1.05972
-1.06168
-1.06369
-1.06574
-1.06779
-1.06981
-1.07181
-1.07376
-1.07569
-1.07759
-1.07946
-1.08132
-1.08319
-1.0851
-1.08704
-1.089
-1.09094
-1.09283
-1.09467
-1.09643
-1.09809
-1.09962
-1.10103
-1.10233
-1.10358
-1.1048
-1.10601
-1.10719
-1.10833
-1.10947
-1.11062
-1.11186
-1.11322
-1.11468
-1.11621
-1.11771
-1.11911
-1.12038
-1.12154
-1.12261
-1.12363
-1.12454
-1.12527
-1.12576
-1.12605
-1.12625
-1.12648
-1.12684
-1.1273
-1.12778
-1.12815
-1.12837
-1.12852
-1.12873
-0.0536361
-0.105704
-0.168249
-0.226764
-0.277065
-0.320782
-0.359533
-0.394663
-0.426984
-0.456984
-0.485089
-0.511604
-0.536669
-0.560208
-0.582322
-0.603128
-0.622572
-0.640668
-0.657462
-0.673014
-0.687461
-0.700809
-0.713034
-0.724244
-0.734513
-0.743958
-0.752654
-0.76073
-0.768191
-0.775089
-0.781536
-0.787607
-0.793378
-0.798915
-0.804251
-0.809377
-0.814284
-0.818996
-0.823577
-0.828088
-0.832546
-0.836943
-0.841258
-0.845465
-0.849561
-0.853572
-0.857556
-0.861555
-0.865591
-0.869706
-0.873921
-0.878217
-0.882579
-0.887018
-0.891554
-0.896174
-0.900841
-0.905543
-0.910293
-0.915078
-0.919867
-0.924631
-0.929343
-0.933989
-0.938573
-0.943095
-0.947558
-0.951981
-0.95638
-0.960741
-0.96504
-0.969251
-0.973369
-0.977408
-0.981358
-0.985166
-0.988808
-0.992309
-0.995689
-0.998923
-1.00197
-1.00482
-1.00748
-1.00999
-1.01239
-1.01471
-1.01698
-1.01924
-1.02152
-1.02388
-1.02628
-1.0287
-1.0311
-1.03349
-1.03587
-1.03822
-1.04052
-1.04274
-1.04486
-1.04689
-1.04885
-1.05077
-1.05266
-1.05453
-1.05639
-1.0583
-1.06026
-1.06226
-1.0643
-1.06633
-1.06837
-1.07039
-1.0724
-1.07439
-1.07633
-1.07823
-1.08011
-1.08197
-1.08385
-1.08576
-1.08768
-1.0896
-1.09148
-1.09331
-1.09509
-1.09679
-1.09839
-1.09985
-1.1012
-1.10246
-1.1037
-1.10494
-1.10617
-1.10736
-1.1085
-1.10961
-1.11074
-1.11196
-1.11329
-1.11472
-1.11619
-1.1176
-1.1189
-1.12007
-1.12116
-1.12222
-1.12326
-1.12421
-1.12497
-1.1255
-1.12583
-1.12609
-1.12644
-1.12692
-1.1275
-1.12803
-1.12841
-1.12861
-1.12875
-1.12896
-0.13085
-0.168216
-0.212118
-0.257615
-0.30039
-0.339432
-0.374976
-0.40757
-0.437794
-0.465982
-0.492397
-0.517335
-0.54094
-0.563199
-0.58413
-0.603824
-0.622329
-0.639676
-0.655782
-0.670749
-0.684683
-0.697667
-0.70964
-0.720795
-0.731029
-0.740529
-0.749336
-0.757527
-0.765192
-0.772367
-0.779079
-0.785397
-0.791392
-0.797123
-0.80268
-0.808096
-0.813332
-0.818381
-0.823262
-0.827995
-0.832615
-0.837168
-0.841658
-0.846037
-0.850303
-0.854489
-0.858611
-0.862702
-0.866808
-0.870981
-0.875251
-0.879591
-0.883972
-0.888401
-0.892885
-0.897417
-0.901988
-0.906594
-0.911245
-0.915926
-0.920595
-0.925229
-0.929824
-0.934366
-0.938837
-0.943234
-0.947575
-0.951894
-0.956207
-0.960491
-0.964713
-0.968851
-0.972904
-0.976881
-0.980764
-0.984515
-0.988122
-0.991602
-0.99496
-0.998166
-1.00119
-1.00404
-1.00672
-1.00926
-1.01168
-1.01403
-1.01634
-1.01865
-1.02102
-1.02344
-1.0259
-1.02836
-1.03083
-1.0333
-1.03576
-1.03818
-1.04051
-1.04276
-1.04492
-1.04701
-1.04905
-1.05105
-1.05299
-1.05488
-1.05677
-1.05871
-1.06072
-1.06278
-1.06484
-1.06688
-1.06891
-1.07095
-1.07298
-1.07499
-1.07694
-1.07884
-1.0807
-1.08257
-1.08445
-1.08636
-1.08826
-1.09013
-1.09196
-1.09375
-1.09548
-1.09714
-1.09867
-1.10008
-1.10137
-1.10261
-1.10384
-1.10509
-1.10632
-1.10751
-1.10862
-1.10969
-1.1108
-1.112
-1.11333
-1.11475
-1.11618
-1.11752
-1.11873
-1.11984
-1.12092
-1.122
-1.12307
-1.12403
-1.12478
-1.12529
-1.12564
-1.12597
-1.12641
-1.127
-1.12763
-1.12817
-1.12853
-1.12873
-1.12888
-1.12911
-0.202086
-0.226749
-0.25764
-0.29236
-0.327565
-0.361252
-0.392854
-0.422473
-0.450291
-0.476457
-0.50109
-0.524407
-0.546483
-0.567384
-0.587069
-0.605654
-0.623221
-0.639694
-0.655112
-0.669534
-0.682973
-0.695519
-0.707266
-0.718161
-0.728356
-0.737827
-0.74665
-0.754896
-0.762649
-0.769958
-0.776875
-0.783452
-0.789692
-0.795637
-0.801382
-0.806966
-0.812392
-0.817693
-0.822857
-0.827852
-0.832697
-0.837434
-0.84207
-0.846584
-0.850983
-0.855311
-0.859572
-0.863772
-0.867967
-0.872208
-0.87651
-0.880865
-0.885251
-0.889677
-0.894135
-0.898594
-0.903066
-0.907589
-0.912157
-0.916732
-0.921287
-0.925819
-0.930316
-0.934759
-0.939125
-0.943413
-0.947659
-0.951896
-0.956118
-0.960307
-0.964452
-0.968539
-0.972544
-0.976461
-0.98028
-0.983978
-0.98755
-0.991013
-0.994359
-0.997541
-1.00054
-1.00337
-1.00607
-1.00865
-1.01111
-1.01348
-1.01583
-1.0182
-1.02063
-1.02311
-1.02561
-1.0281
-1.0306
-1.03313
-1.03565
-1.03812
-1.0405
-1.04278
-1.04498
-1.04712
-1.04922
-1.05129
-1.05329
-1.05523
-1.05716
-1.05914
-1.0612
-1.06329
-1.06537
-1.06743
-1.06947
-1.07152
-1.07356
-1.07557
-1.07753
-1.07942
-1.08129
-1.08315
-1.08503
-1.08692
-1.08879
-1.09062
-1.09241
-1.09416
-1.09586
-1.09746
-1.09895
-1.10031
-1.10157
-1.10278
-1.10401
-1.10526
-1.1065
-1.10767
-1.10875
-1.10978
-1.11085
-1.11205
-1.11338
-1.1148
-1.11618
-1.11744
-1.11857
-1.11965
-1.12074
-1.12186
-1.12295
-1.12388
-1.12459
-1.12508
-1.12546
-1.12587
-1.12639
-1.12702
-1.12765
-1.12816
-1.1285
-1.12873
-1.12893
-1.1292
-0.257874
-0.277067
-0.300427
-0.327577
-0.356259
-0.384815
-0.412424
-0.438759
-0.463953
-0.487986
-0.51079
-0.532452
-0.553093
-0.57263
-0.59113
-0.60863
-0.625207
-0.640871
-0.655598
-0.669388
-0.682382
-0.69453
-0.705955
-0.716615
-0.726651
-0.736038
-0.74485
-0.753118
-0.760883
-0.768227
-0.775229
-0.781928
-0.788338
-0.794506
-0.800456
-0.806196
-0.811767
-0.817231
-0.822575
-0.827765
-0.832823
-0.837753
-0.842527
-0.847166
-0.851691
-0.856119
-0.86047
-0.864767
-0.869064
-0.873382
-0.877706
-0.882054
-0.886445
-0.890858
-0.895269
-0.899673
-0.904083
-0.908528
-0.913011
-0.917487
-0.921941
-0.92639
-0.930812
-0.93516
-0.939423
-0.943628
-0.947804
-0.951966
-0.956105
-0.960209
-0.964279
-0.96831
-0.972277
-0.976153
-0.979916
-0.983559
-0.987102
-0.990556
-0.993886
-0.997042
-1.00002
-1.00286
-1.00558
-1.00817
-1.01067
-1.01309
-1.01548
-1.01789
-1.02037
-1.02289
-1.02541
-1.02792
-1.03044
-1.033
-1.03555
-1.03805
-1.04046
-1.04278
-1.04504
-1.04724
-1.04939
-1.0515
-1.05354
-1.05554
-1.05754
-1.05958
-1.06167
-1.06377
-1.06586
-1.06793
-1.06999
-1.07206
-1.0741
-1.0761
-1.07805
-1.07995
-1.08182
-1.08368
-1.08555
-1.08741
-1.08925
-1.09105
-1.09281
-1.09452
-1.09618
-1.09775
-1.09919
-1.10051
-1.10174
-1.10295
-1.10419
-1.10546
-1.1067
-1.10785
-1.10889
-1.10988
-1.11094
-1.11214
-1.11348
-1.11486
-1.11617
-1.11735
-1.11843
-1.1195
-1.12062
-1.12176
-1.12283
-1.12372
-1.12439
-1.12488
-1.1253
-1.12576
-1.12633
-1.12696
-1.12756
-1.12804
-1.12839
-1.12866
-1.12892
-1.12923
-0.30491
-0.320785
-0.339456
-0.361242
-0.384777
-0.408836
-0.432671
-0.455851
-0.478335
-0.500103
-0.521062
-0.541154
-0.560377
-0.578673
-0.596064
-0.612563
-0.628261
-0.643152
-0.657201
-0.670475
-0.682964
-0.694762
-0.705846
-0.716308
-0.726101
-0.73535
-0.744075
-0.752301
-0.760078
-0.76744
-0.774448
-0.78116
-0.787631
-0.793901
-0.799978
-0.805874
-0.811605
-0.817185
-0.822634
-0.827952
-0.83314
-0.838191
-0.843085
-0.847839
-0.85247
-0.85697
-0.861377
-0.865748
-0.87011
-0.874474
-0.878833
-0.883186
-0.887559
-0.891945
-0.896306
-0.90065
-0.905012
-0.909402
-0.9138
-0.918189
-0.922569
-0.926946
-0.931294
-0.935569
-0.939753
-0.943881
-0.947996
-0.9521
-0.956164
-0.96019
-0.964205
-0.968195
-0.972114
-0.975939
-0.979666
-0.983289
-0.986808
-0.990233
-0.993538
-0.996681
-0.999657
-1.0025
-1.00524
-1.00786
-1.01038
-1.01283
-1.01527
-1.01773
-1.02024
-1.02276
-1.02528
-1.0278
-1.03036
-1.03294
-1.0355
-1.03799
-1.04041
-1.04277
-1.04509
-1.04735
-1.04955
-1.05168
-1.05376
-1.0558
-1.05786
-1.05996
-1.06209
-1.0642
-1.06628
-1.06836
-1.07044
-1.07251
-1.07456
-1.07655
-1.07849
-1.08038
-1.08225
-1.08411
-1.08596
-1.0878
-1.08961
-1.09137
-1.0931
-1.0948
-1.09644
-1.09799
-1.09939
-1.10066
-1.10187
-1.1031
-1.10438
-1.10568
-1.10691
-1.10801
-1.109
-1.10998
-1.11106
-1.11229
-1.11361
-1.11493
-1.11614
-1.11726
-1.11832
-1.11942
-1.12055
-1.12167
-1.12268
-1.12352
-1.12417
-1.12469
-1.12517
-1.12566
-1.12622
-1.12681
-1.12737
-1.12785
-1.12823
-1.12855
-1.12886
-1.1292
-0.346101
-0.359493
-0.374945
-0.392801
-0.412328
-0.432583
-0.453035
-0.473387
-0.493306
-0.512866
-0.531931
-0.550404
-0.568286
-0.585439
-0.601741
-0.617329
-0.632191
-0.646345
-0.659813
-0.672556
-0.68459
-0.696039
-0.706821
-0.717016
-0.726608
-0.735685
-0.744245
-0.752347
-0.760062
-0.76741
-0.774417
-0.78113
-0.78761
-0.793897
-0.800013
-0.80599
-0.811834
-0.817518
-0.823051
-0.828462
-0.833732
-0.838845
-0.84381
-0.848639
-0.853342
-0.857906
-0.862357
-0.866772
-0.871178
-0.875555
-0.879922
-0.884292
-0.888651
-0.892988
-0.897302
-0.901598
-0.905902
-0.910231
-0.914562
-0.918876
-0.923194
-0.927518
-0.931796
-0.935989
-0.940116
-0.9442
-0.948252
-0.952278
-0.956275
-0.960255
-0.964225
-0.968166
-0.972038
-0.97582
-0.979514
-0.983118
-0.986633
-0.990042
-0.993312
-0.996421
-0.999399
-1.00227
-1.00503
-1.00767
-1.0102
-1.0127
-1.01519
-1.01769
-1.02021
-1.02272
-1.02523
-1.02776
-1.03033
-1.03292
-1.03548
-1.03797
-1.0404
-1.04278
-1.04514
-1.04745
-1.04969
-1.05185
-1.05396
-1.05605
-1.05816
-1.0603
-1.06245
-1.06457
-1.06666
-1.06873
-1.07081
-1.07289
-1.07494
-1.07693
-1.07885
-1.08072
-1.08259
-1.08445
-1.0863
-1.08811
-1.08987
-1.0916
-1.09331
-1.09501
-1.09665
-1.09817
-1.09952
-1.10076
-1.10196
-1.10323
-1.10456
-1.10588
-1.10708
-1.10813
-1.1091
-1.1101
-1.11122
-1.11245
-1.11373
-1.11496
-1.1161
-1.11718
-1.11826
-1.11937
-1.12049
-1.12156
-1.1225
-1.1233
-1.12396
-1.12452
-1.12504
-1.12555
-1.12607
-1.1266
-1.12712
-1.12761
-1.12803
-1.12841
-1.12876
-1.12911
-0.383139
-0.394518
-0.407415
-0.422315
-0.438585
-0.455665
-0.473256
-0.490932
-0.508635
-0.52615
-0.543409
-0.560348
-0.57683
-0.592816
-0.608164
-0.622845
-0.636921
-0.650379
-0.663227
-0.675444
-0.687097
-0.698113
-0.708615
-0.718532
-0.727932
-0.736813
-0.745206
-0.753172
-0.760752
-0.767996
-0.774947
-0.781653
-0.788134
-0.79441
-0.800535
-0.806543
-0.812424
-0.818161
-0.823758
-0.829231
-0.834552
-0.839702
-0.844712
-0.849581
-0.854301
-0.858901
-0.863409
-0.867851
-0.872262
-0.876649
-0.881019
-0.885386
-0.889727
-0.894018
-0.898284
-0.90255
-0.906805
-0.911052
-0.915313
-0.919586
-0.923857
-0.928116
-0.932329
-0.936466
-0.940539
-0.944574
-0.948578
-0.952538
-0.956462
-0.960386
-0.964328
-0.968237
-0.972052
-0.975779
-0.979449
-0.983054
-0.986559
-0.989937
-0.993171
-0.996266
-0.999251
-1.00214
-1.00491
-1.00756
-1.01012
-1.01266
-1.01519
-1.01772
-1.02024
-1.02274
-1.02524
-1.02777
-1.03034
-1.03293
-1.03548
-1.03797
-1.04041
-1.04283
-1.04521
-1.04754
-1.0498
-1.05199
-1.05414
-1.05628
-1.05842
-1.06059
-1.06275
-1.06488
-1.06696
-1.06903
-1.07112
-1.07321
-1.07526
-1.07723
-1.07913
-1.081
-1.08287
-1.08474
-1.08657
-1.08833
-1.09005
-1.09175
-1.09348
-1.09519
-1.09681
-1.09828
-1.09958
-1.10081
-1.10205
-1.10338
-1.10474
-1.10604
-1.1072
-1.10823
-1.10921
-1.11025
-1.1114
-1.11261
-1.11381
-1.11496
-1.11606
-1.11714
-1.11824
-1.11935
-1.12043
-1.12142
-1.12231
-1.12308
-1.12376
-1.12437
-1.12492
-1.12542
-1.1259
-1.12638
-1.12686
-1.12733
-1.12779
-1.12821
-1.1286
-1.12897
-0.417115
-0.426689
-0.437461
-0.449943
-0.463626
-0.478029
-0.493035
-0.508462
-0.524083
-0.539765
-0.555386
-0.570793
-0.585976
-0.600815
-0.61517
-0.629007
-0.642328
-0.655106
-0.667326
-0.679044
-0.69024
-0.700868
-0.711035
-0.72066
-0.729817
-0.73849
-0.746723
-0.754542
-0.761979
-0.769097
-0.775947
-0.782583
-0.789029
-0.795293
-0.801423
-0.807437
-0.81332
-0.819078
-0.824709
-0.830197
-0.835539
-0.840722
-0.84575
-0.850631
-0.855357
-0.859965
-0.864501
-0.868965
-0.873371
-0.877761
-0.882142
-0.886488
-0.890791
-0.895052
-0.899285
-0.903507
-0.907716
-0.911908
-0.916102
-0.920319
-0.924556
-0.92877
-0.932915
-0.936993
-0.941033
-0.945031
-0.948968
-0.952854
-0.956726
-0.960615
-0.964512
-0.968362
-0.97213
-0.975831
-0.979487
-0.983071
-0.986544
-0.98989
-0.993102
-0.996191
-0.999176
-1.00206
-1.00484
-1.0075
-1.0101
-1.01268
-1.01525
-1.01779
-1.02031
-1.0228
-1.02529
-1.02782
-1.03039
-1.03297
-1.0355
-1.03798
-1.04044
-1.04288
-1.04529
-1.04763
-1.0499
-1.0521
-1.05428
-1.05646
-1.05866
-1.06085
-1.06301
-1.06512
-1.0672
-1.06929
-1.0714
-1.0735
-1.07553
-1.07747
-1.07936
-1.08124
-1.08314
-1.085
-1.08679
-1.08849
-1.09017
-1.09189
-1.09364
-1.09535
-1.09693
-1.09833
-1.09961
-1.10086
-1.10216
-1.10353
-1.10489
-1.10615
-1.10729
-1.10832
-1.10935
-1.11044
-1.11158
-1.11274
-1.11387
-1.11496
-1.11605
-1.11714
-1.11826
-1.11934
-1.12034
-1.12126
-1.12209
-1.12287
-1.12358
-1.12422
-1.12478
-1.12527
-1.12571
-1.12615
-1.12659
-1.12705
-1.12752
-1.12798
-1.12839
-1.12877
-0.448637
-0.4565
-0.465448
-0.475875
-0.487418
-0.499599
-0.512429
-0.525797
-0.539555
-0.553581
-0.56767
-0.581697
-0.59561
-0.609286
-0.62264
-0.635662
-0.648243
-0.660348
-0.671966
-0.683168
-0.693856
-0.704132
-0.713908
-0.723237
-0.732112
-0.740552
-0.748588
-0.756235
-0.763537
-0.770536
-0.777284
-0.783828
-0.790205
-0.796441
-0.802561
-0.808566
-0.814445
-0.820213
-0.825859
-0.831339
-0.836671
-0.841872
-0.846909
-0.851775
-0.856502
-0.861113
-0.865642
-0.870111
-0.874521
-0.878901
-0.883279
-0.887619
-0.891883
-0.896099
-0.900308
-0.904499
-0.908645
-0.912776
-0.916936
-0.921118
-0.925291
-0.92944
-0.933548
-0.937603
-0.941599
-0.945531
-0.949405
-0.953242
-0.957071
-0.960908
-0.964744
-0.968537
-0.972264
-0.975944
-0.979583
-0.983142
-0.986577
-0.98988
-0.993065
-0.996147
-0.999134
-1.00202
-1.00479
-1.00747
-1.01012
-1.01274
-1.01534
-1.01789
-1.02039
-1.02288
-1.02537
-1.02791
-1.03047
-1.03304
-1.03555
-1.03802
-1.04049
-1.04295
-1.04538
-1.04773
-1.04999
-1.0522
-1.05441
-1.05664
-1.05888
-1.06108
-1.06322
-1.06531
-1.06741
-1.06953
-1.07167
-1.07376
-1.07575
-1.07767
-1.07958
-1.0815
-1.08341
-1.08524
-1.08696
-1.08862
-1.0903
-1.09205
-1.09381
-1.09549
-1.097
-1.09836
-1.09964
-1.10093
-1.10228
-1.10366
-1.105
-1.10624
-1.10737
-1.10844
-1.10952
-1.11063
-1.11175
-1.11285
-1.11391
-1.11497
-1.11606
-1.11717
-1.11828
-1.11932
-1.12025
-1.12109
-1.12188
-1.12265
-1.12339
-1.12406
-1.12463
-1.12511
-1.12553
-1.12592
-1.12633
-1.12677
-1.12724
-1.12771
-1.12814
-1.12854
-0.478103
-0.484343
-0.491632
-0.500264
-0.509948
-0.520287
-0.531264
-0.542854
-0.554961
-0.567429
-0.580125
-0.592882
-0.605584
-0.618162
-0.630541
-0.642662
-0.654502
-0.665943
-0.676979
-0.687612
-0.697827
-0.707679
-0.717101
-0.726128
-0.7347
-0.742893
-0.750714
-0.758166
-0.765304
-0.77218
-0.778837
-0.785292
-0.791592
-0.79779
-0.803883
-0.809859
-0.815732
-0.821499
-0.827133
-0.832607
-0.837929
-0.84312
-0.848148
-0.852992
-0.857706
-0.862326
-0.866841
-0.871279
-0.875693
-0.880088
-0.884438
-0.888738
-0.892993
-0.897201
-0.901364
-0.905491
-0.909592
-0.913693
-0.917814
-0.921944
-0.926065
-0.93017
-0.934242
-0.938263
-0.942218
-0.946095
-0.949909
-0.953695
-0.95748
-0.961268
-0.965039
-0.968766
-0.972446
-0.976103
-0.979723
-0.983246
-0.986631
-0.98989
-0.993051
-0.996122
-0.999101
-1.00197
-1.00475
-1.00746
-1.01014
-1.01282
-1.01544
-1.01799
-1.02049
-1.02297
-1.02547
-1.02801
-1.03058
-1.03312
-1.03561
-1.03808
-1.04057
-1.04305
-1.04548
-1.0478
-1.05005
-1.05229
-1.05455
-1.05682
-1.05907
-1.06126
-1.06338
-1.06549
-1.06763
-1.06979
-1.07192
-1.07397
-1.07594
-1.07788
-1.07983
-1.08179
-1.08368
-1.08545
-1.08711
-1.08876
-1.09047
-1.09224
-1.09398
-1.0956
-1.09706
-1.0984
-1.0997
-1.10103
-1.10241
-1.10378
-1.10509
-1.10631
-1.10746
-1.10858
-1.1097
-1.11081
-1.11189
-1.11293
-1.11395
-1.115
-1.11609
-1.11722
-1.11831
-1.11929
-1.12015
-1.12092
-1.12166
-1.12242
-1.12318
-1.12388
-1.12448
-1.12495
-1.12535
-1.12571
-1.12608
-1.12651
-1.12697
-1.12744
-1.12787
-1.12827
-0.505824
-0.510501
-0.516254
-0.523308
-0.53133
-0.540075
-0.549443
-0.559534
-0.570129
-0.581206
-0.592613
-0.60417
-0.615791
-0.627338
-0.638752
-0.649999
-0.661084
-0.671843
-0.682259
-0.69231
-0.702093
-0.711476
-0.720525
-0.729213
-0.73752
-0.745465
-0.753043
-0.760294
-0.767268
-0.774007
-0.780547
-0.786909
-0.793147
-0.7993
-0.805348
-0.811288
-0.817145
-0.822892
-0.828491
-0.833953
-0.839274
-0.844428
-0.849421
-0.854264
-0.858963
-0.863546
-0.868048
-0.87249
-0.876891
-0.881263
-0.885597
-0.889878
-0.89411
-0.898297
-0.902435
-0.906519
-0.910568
-0.914626
-0.918715
-0.922807
-0.926882
-0.930946
-0.934993
-0.93899
-0.942901
-0.946719
-0.950479
-0.954224
-0.957967
-0.961695
-0.965394
-0.969058
-0.972699
-0.976325
-0.979902
-0.983367
-0.986697
-0.989918
-0.993056
-0.99611
-0.999069
-1.00193
-1.0047
-1.00744
-1.01018
-1.01289
-1.01553
-1.01808
-1.02057
-1.02307
-1.0256
-1.02815
-1.03069
-1.03319
-1.03567
-1.03816
-1.04067
-1.04316
-1.04555
-1.04784
-1.05009
-1.05238
-1.0547
-1.057
-1.05923
-1.06139
-1.06353
-1.06568
-1.06786
-1.07003
-1.07214
-1.07416
-1.07614
-1.07812
-1.08012
-1.08208
-1.08393
-1.08564
-1.08728
-1.08895
-1.09068
-1.09245
-1.09415
-1.09571
-1.09712
-1.09847
-1.0998
-1.10117
-1.10254
-1.10389
-1.10518
-1.1064
-1.10758
-1.10875
-1.10989
-1.11099
-1.11202
-1.113
-1.11398
-1.11503
-1.11614
-1.11727
-1.11833
-1.11926
-1.12004
-1.12075
-1.12145
-1.1222
-1.12297
-1.1237
-1.12431
-1.12479
-1.12516
-1.1255
-1.12585
-1.12626
-1.12671
-1.12716
-1.12758
-1.12796
-0.531919
-0.535144
-0.539441
-0.545023
-0.551659
-0.558985
-0.566993
-0.575694
-0.585016
-0.594836
-0.605023
-0.615488
-0.626083
-0.636685
-0.647205
-0.657656
-0.667951
-0.678021
-0.687805
-0.69731
-0.706563
-0.715511
-0.724188
-0.732509
-0.740524
-0.748208
-0.755557
-0.762615
-0.769422
-0.77601
-0.782416
-0.788692
-0.794865
-0.800946
-0.806945
-0.812853
-0.81867
-0.824383
-0.829952
-0.835373
-0.840667
-0.845804
-0.850753
-0.855554
-0.860242
-0.864808
-0.869271
-0.873692
-0.878096
-0.882459
-0.886757
-0.891007
-0.895225
-0.899399
-0.903504
-0.907547
-0.911561
-0.91559
-0.919639
-0.923683
-0.927721
-0.931768
-0.935802
-0.939769
-0.943633
-0.947405
-0.95113
-0.954838
-0.958525
-0.962179
-0.965808
-0.969421
-0.973023
-0.976606
-0.98012
-0.983511
-0.98678
-0.989965
-0.993082
-0.996113
-0.999041
-1.00188
-1.00466
-1.00745
-1.01024
-1.01298
-1.01561
-1.01814
-1.02065
-1.02319
-1.02575
-1.02829
-1.03079
-1.03326
-1.03574
-1.03826
-1.04079
-1.04324
-1.04559
-1.04787
-1.05016
-1.0525
-1.05486
-1.05715
-1.05936
-1.06152
-1.0637
-1.0659
-1.0681
-1.07026
-1.07233
-1.07435
-1.07636
-1.07839
-1.08042
-1.08236
-1.08416
-1.08584
-1.08748
-1.08917
-1.09092
-1.09266
-1.0943
-1.09581
-1.09721
-1.09857
-1.09994
-1.10132
-1.10269
-1.10401
-1.10527
-1.1065
-1.10772
-1.10892
-1.11008
-1.11115
-1.11213
-1.11305
-1.114
-1.11504
-1.11617
-1.11731
-1.11834
-1.11921
-1.11992
-1.12057
-1.12124
-1.12198
-1.12276
-1.1235
-1.12413
-1.1246
-1.12497
-1.1253
-1.12564
-1.12604
-1.12646
-1.12687
-1.12724
-1.12758
-0.556421
-0.558233
-0.561222
-0.56547
-0.570808
-0.576933
-0.583794
-0.591312
-0.599495
-0.608175
-0.617276
-0.626708
-0.636351
-0.646077
-0.655751
-0.665424
-0.675004
-0.684406
-0.693555
-0.702529
-0.711246
-0.719774
-0.728038
-0.736023
-0.743732
-0.751135
-0.758255
-0.765117
-0.771757
-0.778194
-0.784467
-0.79065
-0.796752
-0.802744
-0.808671
-0.814555
-0.820326
-0.82596
-0.831493
-0.836902
-0.842142
-0.847212
-0.852135
-0.856918
-0.861558
-0.866077
-0.870518
-0.874927
-0.879309
-0.883641
-0.887917
-0.892154
-0.896352
-0.90049
-0.904555
-0.908572
-0.91257
-0.916569
-0.920573
-0.924576
-0.928593
-0.932632
-0.93665
-0.940583
-0.944409
-0.948154
-0.951858
-0.955531
-0.959153
-0.962728
-0.966285
-0.969849
-0.973412
-0.976936
-0.980368
-0.983677
-0.986892
-0.990051
-0.993143
-0.996131
-0.999014
-1.00184
-1.00466
-1.0075
-1.01032
-1.01305
-1.01566
-1.01821
-1.02077
-1.02335
-1.02591
-1.02841
-1.03088
-1.03335
-1.03585
-1.03839
-1.04089
-1.0433
-1.04563
-1.04793
-1.05028
-1.05266
-1.05502
-1.05729
-1.05949
-1.06169
-1.06391
-1.06615
-1.06834
-1.07046
-1.07251
-1.07455
-1.07661
-1.07868
-1.0807
-1.08261
-1.08437
-1.08604
-1.0877
-1.08941
-1.09115
-1.09285
-1.09444
-1.09592
-1.09732
-1.09871
-1.10011
-1.1015
-1.10284
-1.10412
-1.10537
-1.10661
-1.10786
-1.10909
-1.11024
-1.11128
-1.1122
-1.11307
-1.114
-1.11504
-1.11617
-1.1173
-1.11831
-1.11912
-1.11978
-1.12039
-1.12104
-1.12177
-1.12254
-1.12328
-1.12391
-1.1244
-1.12477
-1.1251
-1.12544
-1.12582
-1.1262
-1.12656
-1.12686
-1.12715
-0.579301
-0.579859
-0.581658
-0.584648
-0.588831
-0.593903
-0.599706
-0.606263
-0.613444
-0.621136
-0.629287
-0.637767
-0.646519
-0.655398
-0.66432
-0.673237
-0.682121
-0.690879
-0.699473
-0.707889
-0.716126
-0.724219
-0.732078
-0.739744
-0.747139
-0.75426
-0.761157
-0.767824
-0.77427
-0.780556
-0.786725
-0.792791
-0.798779
-0.804708
-0.810573
-0.816368
-0.822075
-0.82767
-0.833145
-0.838489
-0.843678
-0.848707
-0.853587
-0.858318
-0.862907
-0.86739
-0.871811
-0.876191
-0.880526
-0.884821
-0.889087
-0.893316
-0.897484
-0.901576
-0.905606
-0.909605
-0.913583
-0.917548
-0.921511
-0.925488
-0.929501
-0.933537
-0.937533
-0.94143
-0.945228
-0.948962
-0.952654
-0.956287
-0.959838
-0.963335
-0.966837
-0.97036
-0.973866
-0.977303
-0.980636
-0.983876
-0.987061
-0.990199
-0.993244
-0.996168
-0.999011
-1.00185
-1.00471
-1.00759
-1.01041
-1.01311
-1.01572
-1.01831
-1.02092
-1.02352
-1.02605
-1.02851
-1.03097
-1.03346
-1.036
-1.03853
-1.04099
-1.04336
-1.04569
-1.04804
-1.05045
-1.05285
-1.05519
-1.05744
-1.05967
-1.06191
-1.06417
-1.06641
-1.06857
-1.07066
-1.07271
-1.07477
-1.07686
-1.07895
-1.08095
-1.08281
-1.08455
-1.08623
-1.08792
-1.08964
-1.09136
-1.09301
-1.09456
-1.09602
-1.09745
-1.09887
-1.10029
-1.10166
-1.10297
-1.10421
-1.10545
-1.10671
-1.10799
-1.10924
-1.11037
-1.11136
-1.11222
-1.11305
-1.11396
-1.115
-1.11613
-1.11725
-1.11822
-1.119
-1.11963
-1.12021
-1.12085
-1.12158
-1.12234
-1.12306
-1.12367
-1.12416
-1.12455
-1.1249
-1.12525
-1.12559
-1.12592
-1.1262
-1.12643
-1.12666
-0.600568
-0.600098
-0.60083
-0.602714
-0.605806
-0.609907
-0.61484
-0.62051
-0.626844
-0.633723
-0.640993
-0.648626
-0.656599
-0.664707
-0.672875
-0.68108
-0.689315
-0.697461
-0.705504
-0.713373
-0.721164
-0.728825
-0.736325
-0.743632
-0.750725
-0.757605
-0.764257
-0.770715
-0.776993
-0.783114
-0.789149
-0.795113
-0.800988
-0.806813
-0.812604
-0.81832
-0.823942
-0.829474
-0.834887
-0.840156
-0.845285
-0.850272
-0.8551
-0.859765
-0.864301
-0.868753
-0.873146
-0.877482
-0.881767
-0.886028
-0.890277
-0.894485
-0.898616
-0.902667
-0.906672
-0.910654
-0.914606
-0.918529
-0.922457
-0.926425
-0.930444
-0.934472
-0.938439
-0.942308
-0.946101
-0.94984
-0.953512
-0.957085
-0.960561
-0.964003
-0.967474
-0.970952
-0.974372
-0.977699
-0.980945
-0.984144
-0.987311
-0.990407
-0.993381
-0.996243
-0.999077
-1.00195
-1.00485
-1.00772
-1.0105
-1.01318
-1.01582
-1.01846
-1.02111
-1.02369
-1.02618
-1.02862
-1.03109
-1.03362
-1.03616
-1.03866
-1.04108
-1.04344
-1.04581
-1.04822
-1.05066
-1.05306
-1.05538
-1.05764
-1.0599
-1.06219
-1.06447
-1.06668
-1.0688
-1.07086
-1.07291
-1.075
-1.07711
-1.07918
-1.08114
-1.08297
-1.08471
-1.0864
-1.08812
-1.08984
-1.09152
-1.09313
-1.09465
-1.09612
-1.09758
-1.09904
-1.10046
-1.10181
-1.10307
-1.10428
-1.10551
-1.10679
-1.1081
-1.10935
-1.11046
-1.11139
-1.1122
-1.113
-1.1139
-1.11493
-1.11605
-1.11714
-1.11808
-1.11884
-1.11947
-1.12006
-1.12069
-1.1214
-1.12213
-1.12282
-1.12341
-1.12391
-1.12432
-1.12469
-1.12504
-1.12535
-1.1256
-1.1258
-1.12597
-1.12615
-0.620298
-0.618885
-0.618749
-0.61974
-0.621846
-0.625065
-0.629189
-0.634105
-0.639699
-0.645843
-0.652384
-0.659287
-0.666497
-0.673906
-0.681388
-0.688947
-0.696541
-0.704113
-0.711598
-0.719003
-0.726334
-0.733561
-0.740732
-0.747694
-0.754473
-0.761121
-0.767559
-0.773782
-0.779874
-0.78587
-0.79176
-0.797569
-0.803337
-0.809076
-0.814764
-0.820377
-0.825916
-0.831373
-0.836711
-0.841906
-0.846972
-0.851903
-0.856669
-0.861273
-0.865761
-0.870175
-0.874522
-0.878808
-0.883052
-0.887287
-0.891505
-0.895667
-0.899752
-0.903777
-0.907771
-0.91173
-0.915637
-0.919517
-0.923431
-0.927408
-0.931423
-0.935421
-0.939354
-0.94322
-0.947034
-0.950776
-0.954405
-0.957906
-0.961328
-0.964746
-0.968188
-0.971595
-0.974907
-0.978138
-0.981334
-0.984514
-0.987643
-0.990665
-0.993561
-0.996393
-0.999251
-1.00216
-1.00505
-1.00787
-1.0106
-1.01329
-1.01597
-1.01865
-1.02129
-1.02384
-1.02629
-1.02874
-1.03124
-1.03379
-1.03631
-1.03877
-1.04117
-1.04357
-1.046
-1.04846
-1.05091
-1.0533
-1.05562
-1.0579
-1.0602
-1.06252
-1.06479
-1.06696
-1.06903
-1.07106
-1.07313
-1.07524
-1.07734
-1.07937
-1.08128
-1.08309
-1.08484
-1.08657
-1.08829
-1.08999
-1.09163
-1.0932
-1.0947
-1.0962
-1.0977
-1.09919
-1.10061
-1.10191
-1.10313
-1.10431
-1.10554
-1.10685
-1.10817
-1.10941
-1.11048
-1.11137
-1.11215
-1.11293
-1.11382
-1.11484
-1.11592
-1.11698
-1.11791
-1.11868
-1.11933
-1.11994
-1.12057
-1.12124
-1.12193
-1.12258
-1.12315
-1.12365
-1.12409
-1.12448
-1.12481
-1.12508
-1.12526
-1.12538
-1.12549
-1.12563
-0.638494
-0.636274
-0.635441
-0.635626
-0.63696
-0.639407
-0.642794
-0.647037
-0.651977
-0.657462
-0.663351
-0.669593
-0.676137
-0.682901
-0.689755
-0.696712
-0.703733
-0.710771
-0.717715
-0.724671
-0.731596
-0.738449
-0.745214
-0.751876
-0.758413
-0.764784
-0.770978
-0.777013
-0.782938
-0.788777
-0.794507
-0.800165
-0.805821
-0.811465
-0.81704
-0.822541
-0.827988
-0.833361
-0.838618
-0.843742
-0.848739
-0.8536
-0.858303
-0.862862
-0.867309
-0.871663
-0.875943
-0.880183
-0.884408
-0.888613
-0.892773
-0.89687
-0.900919
-0.904936
-0.908912
-0.912822
-0.916674
-0.920534
-0.924458
-0.928436
-0.932418
-0.936371
-0.940291
-0.944181
-0.948013
-0.951728
-0.955295
-0.958748
-0.962155
-0.965563
-0.968949
-0.972254
-0.975466
-0.978643
-0.981824
-0.984977
-0.988037
-0.990971
-0.993814
-0.996652
-0.999541
-1.00244
-1.00528
-1.00804
-1.01075
-1.01346
-1.01618
-1.01886
-1.02146
-1.02396
-1.02641
-1.02889
-1.03143
-1.03397
-1.03646
-1.03889
-1.04131
-1.04376
-1.04625
-1.04874
-1.05119
-1.05356
-1.05589
-1.05822
-1.06056
-1.06288
-1.06511
-1.06722
-1.06926
-1.07129
-1.07337
-1.07547
-1.07753
-1.07951
-1.08139
-1.0832
-1.08497
-1.08672
-1.08845
-1.09011
-1.0917
-1.09323
-1.09474
-1.09627
-1.09781
-1.09931
-1.1007
-1.10197
-1.10314
-1.10431
-1.10555
-1.10687
-1.10819
-1.10941
-1.11046
-1.11133
-1.11209
-1.11286
-1.11373
-1.11472
-1.11578
-1.11681
-1.11774
-1.11853
-1.11921
-1.11984
-1.12047
-1.12111
-1.12175
-1.12235
-1.1229
-1.1234
-1.12385
-1.12425
-1.12458
-1.12481
-1.12492
-1.12497
-1.12502
-1.12512
-0.65526
-0.652359
-0.650856
-0.650403
-0.651103
-0.652897
-0.655702
-0.65933
-0.663661
-0.668564
-0.673888
-0.679524
-0.68546
-0.691612
-0.697926
-0.704344
-0.710816
-0.717316
-0.72386
-0.730381
-0.736866
-0.743376
-0.749812
-0.75619
-0.762461
-0.768561
-0.774528
-0.780397
-0.78616
-0.791804
-0.797362
-0.802901
-0.808444
-0.813952
-0.819399
-0.824803
-0.830163
-0.835443
-0.840609
-0.845653
-0.850578
-0.855371
-0.860021
-0.864535
-0.868927
-0.873215
-0.877439
-0.881645
-0.885837
-0.889985
-0.894075
-0.898124
-0.902155
-0.906151
-0.910076
-0.913924
-0.917745
-0.92161
-0.925537
-0.929479
-0.933406
-0.937334
-0.941272
-0.945186
-0.949001
-0.952659
-0.956177
-0.959624
-0.963041
-0.966421
-0.969721
-0.972924
-0.976076
-0.979239
-0.982405
-0.985502
-0.988475
-0.991344
-0.994176
-0.997037
-0.999927
-1.00278
-1.00554
-1.00825
-1.01097
-1.01371
-1.01643
-1.01907
-1.02161
-1.02409
-1.02656
-1.02908
-1.03163
-1.03414
-1.03659
-1.03903
-1.0415
-1.04402
-1.04655
-1.04905
-1.05148
-1.05386
-1.05622
-1.05859
-1.06095
-1.06325
-1.06542
-1.06748
-1.0695
-1.07155
-1.07363
-1.0757
-1.0777
-1.07963
-1.08149
-1.08332
-1.08512
-1.08688
-1.08858
-1.09019
-1.09173
-1.09325
-1.09478
-1.09634
-1.09791
-1.09939
-1.10075
-1.10197
-1.10312
-1.10429
-1.10554
-1.10686
-1.10817
-1.10937
-1.11041
-1.11128
-1.11205
-1.11283
-1.11367
-1.11462
-1.11563
-1.11664
-1.11757
-1.1184
-1.11912
-1.11977
-1.1204
-1.121
-1.12159
-1.12214
-1.12267
-1.12316
-1.12363
-1.12403
-1.12435
-1.12453
-1.12459
-1.12458
-1.12459
-1.12465
-0.670728
-0.667206
-0.665132
-0.664153
-0.664264
-0.665583
-0.667872
-0.670975
-0.674815
-0.679217
-0.683988
-0.689062
-0.69447
-0.700108
-0.705884
-0.711768
-0.717787
-0.723843
-0.729958
-0.736064
-0.742188
-0.748353
-0.754512
-0.7606
-0.766571
-0.772452
-0.778241
-0.783909
-0.78946
-0.794924
-0.800352
-0.80577
-0.811157
-0.816505
-0.821838
-0.827159
-0.832421
-0.837588
-0.842659
-0.847633
-0.852493
-0.857223
-0.86181
-0.866262
-0.870598
-0.874842
-0.879032
-0.883193
-0.887317
-0.891392
-0.895432
-0.899459
-0.903462
-0.907401
-0.911258
-0.915068
-0.918888
-0.922752
-0.926639
-0.930517
-0.934407
-0.938343
-0.942303
-0.946202
-0.949963
-0.953571
-0.957083
-0.96055
-0.96396
-0.967276
-0.970487
-0.97363
-0.976769
-0.979927
-0.983048