/*--------------------------------*- C++ -*----------------------------------*\
  =========                 |
  \\      /  F ield         | OpenFOAM: The Open Source CFD Toolbox
   \\    /   O peration     | Website:  https://openfoam.org
    \\  /    A nd           | Version:  7
     \\/     M anipulation  |
\*---------------------------------------------------------------------------*/
FoamFile
{
    version     2.0;
    format      ascii;
    class       surfaceScalarField;
    location    "0.0375";
    object      phi;
}
// * * * * * * * * * * * * * * * * * * * * * * * * * * * * * * * * * * * * * //

dimensions      [0 3 -1 0 0 0 0];

internalField   nonuniform List<scalar> 
101920
(
-1.36417e-11
1.3634e-11
1.1736e-09
-1.18725e-09
1.77481e-09
-6.012e-10
2.54087e-09
-7.66063e-10
3.27992e-09
-7.39047e-10
3.97655e-09
-6.96638e-10
4.61399e-09
-6.37441e-10
5.17124e-09
-5.57245e-10
5.63147e-09
-4.60235e-10
5.98823e-09
-3.56762e-10
6.23403e-09
-2.45796e-10
6.3595e-09
-1.25473e-10
6.36723e-09
-7.73591e-12
6.26515e-09
1.02085e-10
6.05944e-09
2.05708e-10
5.75852e-09
3.00917e-10
5.3766e-09
3.81925e-10
4.9346e-09
4.41992e-10
4.4439e-09
4.90706e-10
3.92025e-09
5.23649e-10
3.37334e-09
5.46914e-10
2.82636e-09
5.46976e-10
2.2882e-09
5.38163e-10
1.77782e-09
5.10379e-10
1.29202e-09
4.85794e-10
8.45362e-10
4.46665e-10
4.33112e-10
4.12253e-10
6.0531e-11
3.72577e-10
-2.6971e-10
3.30246e-10
-5.58069e-10
2.88356e-10
-8.08855e-10
2.50786e-10
-1.02303e-09
2.14174e-10
-1.20235e-09
1.79317e-10
-1.35057e-09
1.48217e-10
-1.46686e-09
1.16288e-10
-1.55188e-09
8.50212e-11
-1.60945e-09
5.75695e-11
-1.64135e-09
3.18963e-11
-1.64954e-09
8.19491e-12
-1.63842e-09
-1.11217e-11
-1.61096e-09
-2.74605e-11
-1.56657e-09
-4.4395e-11
-1.50466e-09
-6.19017e-11
-1.42743e-09
-7.72328e-11
-1.33526e-09
-9.21737e-11
-1.22733e-09
-1.0793e-10
-1.1047e-09
-1.22631e-10
-9.69472e-10
-1.35222e-10
-8.23866e-10
-1.45605e-10
-6.69102e-10
-1.54765e-10
-5.07351e-10
-1.61752e-10
-3.42284e-10
-1.65068e-10
-1.76681e-10
-1.65606e-10
-1.35978e-11
-1.63084e-10
1.43183e-10
-1.56783e-10
2.91243e-10
-1.4806e-10
4.28632e-10
-1.37392e-10
5.52326e-10
-1.23692e-10
6.59071e-10
-1.06747e-10
7.46674e-10
-8.76036e-11
8.14201e-10
-6.75275e-11
8.62313e-10
-4.81142e-11
8.93703e-10
-3.13901e-11
9.11455e-10
-1.77534e-11
9.1691e-10
-5.45538e-12
9.10325e-10
6.58635e-12
8.92234e-10
1.80929e-11
8.6327e-10
2.89662e-11
8.23771e-10
3.95037e-11
7.73446e-10
5.03242e-11
7.11427e-10
6.20163e-11
6.37574e-10
7.38518e-11
5.52949e-10
8.46213e-11
4.58445e-10
9.45026e-11
3.54948e-10
1.03501e-10
2.45062e-10
1.09888e-10
1.32083e-10
1.1298e-10
1.725e-11
1.14833e-10
-9.99392e-11
1.17189e-10
-2.19152e-10
1.19213e-10
-3.38531e-10
1.19379e-10
-4.55733e-10
1.17204e-10
-5.68208e-10
1.12477e-10
-6.73208e-10
1.04999e-10
-7.68745e-10
9.55361e-11
-8.54201e-10
8.5455e-11
-9.29715e-10
7.55146e-11
-9.95818e-10
6.61025e-11
-1.05384e-09
5.80259e-11
-1.10582e-09
5.19799e-11
-1.15335e-09
4.75276e-11
-1.19653e-09
4.3183e-11
-1.2341e-09
3.75656e-11
-1.26448e-09
3.03855e-11
-1.28679e-09
2.23112e-11
-1.30089e-09
1.40992e-11
-1.30725e-09
6.35466e-12
-1.30653e-09
-7.13353e-13
-1.2992e-09
-7.33339e-12
-1.28547e-09
-1.37298e-11
-1.26566e-09
-1.98084e-11
-1.24023e-09
-2.5435e-11
-1.20946e-09
-3.07707e-11
-1.17323e-09
-3.62324e-11
-1.13119e-09
-4.20339e-11
-1.08353e-09
-4.76597e-11
-1.03161e-09
-5.19205e-11
-9.77913e-10
-5.36946e-11
-9.252e-10
-5.2712e-11
-8.75458e-10
-4.97412e-11
-8.29339e-10
-4.61209e-11
-7.86243e-10
-4.30988e-11
-7.44842e-10
-4.14032e-11
-7.03599e-10
-4.1244e-11
-6.61015e-10
-4.25843e-11
-6.15767e-10
-4.52469e-11
-5.6697e-10
-4.8794e-11
-5.14485e-10
-5.24824e-11
-4.59103e-10
-5.53815e-11
-4.02514e-10
-5.65912e-11
-3.46949e-10
-5.55653e-11
-2.94557e-10
-5.23926e-11
-2.46871e-10
-4.76877e-11
-2.04791e-10
-4.20822e-11
-1.68844e-10
-3.59471e-11
-1.39124e-10
-2.97202e-11
-1.14928e-10
-2.41951e-11
-9.47305e-11
-2.0196e-11
-7.65341e-11
-1.81949e-11
-5.83359e-11
-1.81981e-11
-3.844e-11
-1.98984e-11
-1.56403e-11
-2.28032e-11
1.08071e-11
-2.6449e-11
4.12982e-11
-3.04907e-11
7.57435e-11
-3.44436e-11
1.1325e-10
-3.75041e-11
1.51966e-10
-3.87142e-11
1.89048e-10
-3.70811e-11
2.20745e-10
-3.16978e-11
2.42968e-10
-2.22249e-11
2.52252e-10
-9.28617e-12
2.46523e-10
5.73022e-12
2.25429e-10
2.1098e-11
1.90294e-10
3.51373e-11
1.43626e-10
4.66689e-11
8.84996e-11
5.51248e-11
2.84366e-11
6.0062e-11
-3.23031e-11
6.07397e-11
-8.86106e-11
5.6308e-11
-1.35192e-10
4.65831e-11
-1.67919e-10
3.27285e-11
-1.84895e-10
1.6977e-11
-1.86799e-10
1.90414e-12
-1.7653e-10
-1.02702e-11
-1.57697e-10
-1.8833e-11
-1.3297e-10
-2.47266e-11
-1.02835e-10
-3.01333e-11
-6.57804e-11
-3.70541e-11
-2.27522e-11
-4.30277e-11
-2.27517e-11
-1.23026e-09
1.24389e-09
-1.26124e-09
-1.15626e-09
-3.09372e-10
-1.55307e-09
7.46983e-10
-1.82241e-09
1.90143e-09
-1.89349e-09
3.03161e-09
-1.82681e-09
4.07127e-09
-1.6771e-09
4.98877e-09
-1.47475e-09
5.76536e-09
-1.23682e-09
6.38498e-09
-9.76389e-10
6.84067e-09
-7.01485e-10
7.1377e-09
-4.22499e-10
7.27376e-09
-1.43801e-10
7.25687e-09
1.18975e-10
7.09766e-09
3.64921e-10
6.81466e-09
5.83913e-10
6.42381e-09
7.72777e-10
5.93778e-09
9.28023e-10
5.37946e-09
1.04902e-09
4.7721e-09
1.13101e-09
4.13298e-09
1.18603e-09
3.48081e-09
1.19915e-09
2.83318e-09
1.18579e-09
2.19858e-09
1.14498e-09
1.59732e-09
1.08706e-09
1.02878e-09
1.0152e-09
5.02755e-10
9.38276e-10
2.3875e-11
8.51458e-10
-4.07797e-10
7.61912e-10
-7.94313e-10
6.74874e-10
-1.13176e-09
5.88234e-10
-1.42238e-09
5.04789e-10
-1.66983e-09
4.26771e-10
-1.87328e-09
3.51669e-10
-2.03459e-09
2.77603e-10
-2.15788e-09
2.08307e-10
-2.24535e-09
1.45036e-10
-2.29872e-09
8.52696e-11
-2.32145e-09
3.09294e-11
-2.31617e-09
-1.64033e-11
-2.28407e-09
-5.9564e-11
-2.22782e-09
-1.00648e-10
-2.14955e-09
-1.40175e-10
-2.04966e-09
-1.77119e-10
-1.92926e-09
-2.12576e-10
-1.78956e-09
-2.47642e-10
-1.6322e-09
-2.7999e-10
-1.45898e-09
-3.08443e-10
-1.27178e-09
-3.32809e-10
-1.07362e-09
-3.5292e-10
-8.67718e-10
-3.67654e-10
-6.57687e-10
-3.75097e-10
-4.47766e-10
-3.75524e-10
-2.40972e-10
-3.69875e-10
-4.03897e-11
-3.57365e-10
1.49391e-10
-3.3784e-10
3.24418e-10
-3.12416e-10
4.82322e-10
-2.81595e-10
6.20299e-10
-2.44722e-10
7.35105e-10
-2.02404e-10
8.25769e-10
-1.5819e-10
8.93669e-10
-1.1601e-10
9.40274e-10
-7.79905e-11
9.66924e-10
-4.44019e-11
9.75259e-10
-1.37879e-11
9.66539e-10
1.53028e-11
9.41772e-10
4.28545e-11
9.01591e-10
6.91448e-11
8.45546e-10
9.55469e-11
7.73399e-10
1.22473e-10
6.8625e-10
1.49171e-10
5.8484e-10
1.75265e-10
4.68898e-10
2.00562e-10
3.39623e-10
2.23775e-10
2.00199e-10
2.4292e-10
5.32222e-11
2.56862e-10
-9.99016e-11
2.66104e-10
-2.57219e-10
2.72151e-10
-4.16323e-10
2.76294e-10
-5.75852e-10
2.78742e-10
-7.34835e-10
2.78359e-10
-8.90918e-10
2.73286e-10
-1.04078e-09
2.62341e-10
-1.18187e-09
2.46085e-10
-1.3128e-09
2.26467e-10
-1.43269e-09
2.05357e-10
-1.5411e-09
1.8392e-10
-1.63845e-09
1.63454e-10
-1.726e-09
1.45579e-10
-1.8049e-09
1.30882e-10
-1.87557e-09
1.18195e-10
-1.93789e-09
1.05492e-10
-1.99148e-09
9.11558e-11
-2.03565e-09
7.4563e-11
-2.06936e-09
5.60108e-11
-2.09168e-09
3.64243e-11
-2.10254e-09
1.7217e-11
-2.10278e-09
-4.74322e-13
-2.09358e-09
-1.65321e-11
-2.07581e-09
-3.14924e-11
-2.04992e-09
-4.57001e-11
-2.0161e-09
-5.92518e-11
-1.97444e-09
-7.24347e-11
-1.92499e-09
-8.56795e-11
-1.86813e-09
-9.88984e-11
-1.80487e-09
-1.10925e-10
-1.73693e-09
-1.19858e-10
-1.6664e-09
-1.24224e-10
-1.59525e-09
-1.23865e-10
-1.52511e-09
-1.19879e-10
-1.45712e-09
-1.14108e-10
-1.39156e-09
-1.08656e-10
-1.32766e-09
-1.05299e-10
-1.2639e-09
-1.05001e-10
-1.19865e-09
-1.07834e-10
-1.13078e-09
-1.13118e-10
-1.05991e-09
-1.19669e-10
-9.86264e-10
-1.26135e-10
-9.10551e-10
-1.31095e-10
-8.33987e-10
-1.33154e-10
-7.58183e-10
-1.31368e-10
-6.84919e-10
-1.25657e-10
-6.15848e-10
-1.16758e-10
-5.52188e-10
-1.05741e-10
-4.94519e-10
-9.36142e-11
-4.42795e-10
-8.14463e-11
-3.96392e-10
-7.06035e-11
-3.54154e-10
-6.24364e-11
-3.14617e-10
-5.77311e-11
-2.76184e-10
-5.66283e-11
-2.37177e-10
-5.89025e-11
-1.9599e-10
-6.39898e-11
-1.51511e-10
-7.09278e-11
-1.03521e-10
-7.8482e-11
-5.28257e-11
-8.51446e-11
-1.20114e-12
-8.9133e-11
4.88349e-11
-8.87503e-11
9.4398e-11
-8.26417e-11
1.32418e-10
-6.97144e-11
1.5964e-10
-4.94436e-11
1.7294e-10
-2.25859e-11
1.70016e-10
8.65204e-12
1.4994e-10
4.1172e-11
1.13386e-10
7.16912e-11
6.26903e-11
9.73669e-11
1.74046e-12
1.16079e-10
-6.44186e-11
1.26224e-10
-1.30237e-10
1.26559e-10
-1.90416e-10
1.16485e-10
-2.40542e-10
9.6708e-11
-2.77537e-10
6.9724e-11
-2.99757e-10
3.91989e-11
-3.0664e-10
8.78676e-12
-2.98254e-10
-1.86556e-11
-2.75179e-10
-4.19082e-11
-2.38087e-10
-6.18178e-11
-1.87382e-10
-8.08388e-11
-1.22457e-10
-1.01978e-10
-4.74588e-11
-1.18025e-10
-7.02094e-11
-6.34579e-10
1.87847e-09
-1.63532e-09
-1.55524e-10
-1.65554e-09
-1.53285e-09
-1.22063e-09
-2.25732e-09
-5.64716e-10
-2.54941e-09
1.7836e-10
-2.56989e-09
9.24987e-10
-2.42372e-09
1.61669e-09
-2.16644e-09
2.22409e-09
-1.84422e-09
2.7388e-09
-1.4911e-09
3.15023e-09
-1.11291e-09
3.45576e-09
-7.28025e-10
3.66124e-09
-3.49288e-10
3.77015e-09
1.00705e-11
3.79171e-09
3.43356e-10
3.72735e-09
6.48272e-10
3.5918e-09
9.08318e-10
3.39495e-09
1.12488e-09
3.14913e-09
1.29485e-09
2.85678e-09
1.42336e-09
2.54335e-09
1.49946e-09
2.20282e-09
1.53969e-09
1.86137e-09
1.52723e-09
1.5104e-09
1.49595e-09
1.17004e-09
1.42742e-09
8.3593e-10
1.34931e-09
5.24061e-10
1.25014e-09
2.29154e-10
1.14636e-09
-4.30605e-11
1.03413e-09
-2.8846e-10
9.2027e-10
-5.09497e-10
8.09269e-10
-7.05538e-10
7.00833e-10
-8.75179e-10
5.9641e-10
-1.01845e-09
4.94941e-10
-1.13768e-09
3.96824e-10
-1.23304e-09
3.03671e-10
-1.30478e-09
2.16773e-10
-1.3552e-09
1.35681e-10
-1.38566e-09
6.13917e-11
-1.39722e-09
-4.84575e-12
-1.39069e-09
-6.60916e-11
-1.36728e-09
-1.24054e-10
-1.32944e-09
-1.7801e-10
-1.27713e-09
-2.2943e-10
-1.21113e-09
-2.78583e-10
-1.13374e-09
-3.2503e-10
-1.04614e-09
-3.67586e-10
-9.4969e-10
-4.04893e-10
-8.45004e-10
-4.37496e-10
-7.33853e-10
-4.64072e-10
-6.1955e-10
-4.8196e-10
-5.03065e-10
-4.91584e-10
-3.85457e-10
-4.93131e-10
-2.70121e-10
-4.85213e-10
-1.59522e-10
-4.67963e-10
-5.47115e-11
-4.42651e-10
4.26319e-11
-4.09761e-10
1.30143e-10
-3.69108e-10
2.06502e-10
-3.21083e-10
2.71659e-10
-2.67563e-10
3.25226e-10
-2.11758e-10
3.6643e-10
-1.57216e-10
3.94825e-10
-1.06388e-10
4.10098e-10
-5.96708e-11
4.12651e-10
-1.63393e-11
4.0356e-10
2.43971e-11
3.8297e-10
6.34469e-11
3.50689e-10
1.01423e-10
3.07631e-10
1.38601e-10
2.54818e-10
1.75283e-10
1.92028e-10
2.11958e-10
1.19461e-10
2.47831e-10
3.88829e-11
2.81143e-10
-4.83131e-11
3.10974e-10
-1.42073e-10
3.36679e-10
-2.41841e-10
3.56628e-10
-3.45712e-10
3.69974e-10
-4.52005e-10
3.78446e-10
-5.59872e-10
3.84162e-10
-6.67907e-10
3.86779e-10
-7.73901e-10
3.84356e-10
-8.76437e-10
3.75821e-10
-9.75419e-10
3.61319e-10
-1.07061e-09
3.41271e-10
-1.16074e-09
3.16606e-10
-1.24475e-09
2.89362e-10
-1.32272e-09
2.61888e-10
-1.39503e-09
2.35766e-10
-1.46125e-09
2.11803e-10
-1.52065e-09
1.90281e-10
-1.57315e-09
1.70695e-10
-1.61912e-09
1.51472e-10
-1.65859e-09
1.30623e-10
-1.69121e-09
1.07181e-10
-1.71697e-09
8.17676e-11
-1.73623e-09
5.5686e-11
-1.74901e-09
3.00011e-11
-1.75481e-09
5.32202e-12
-1.75328e-09
-1.80605e-11
-1.74478e-09
-3.99947e-11
-1.72996e-09
-6.05215e-11
-1.70919e-09
-8.00227e-11
-1.6826e-09
-9.90222e-11
-1.65058e-09
-1.177e-10
-1.61396e-09
-1.35515e-10
-1.57371e-09
-1.51176e-10
-1.53054e-09
-1.63029e-10
-1.48495e-09
-1.69815e-10
-1.43744e-09
-1.71377e-10
-1.38854e-09
-1.6878e-10
-1.33872e-09
-1.63933e-10
-1.28829e-09
-1.59078e-10
-1.23745e-09
-1.56141e-10
-1.1863e-09
-1.56153e-10
-1.13491e-09
-1.59217e-10
-1.08329e-09
-1.64739e-10
-1.03138e-09
-1.71579e-10
-9.79252e-10
-1.78266e-10
-9.2712e-10
-1.83228e-10
-8.75246e-10
-1.85029e-10
-8.2389e-10
-1.82725e-10
-7.73348e-10
-1.76202e-10
-7.23949e-10
-1.66158e-10
-6.75963e-10
-1.53727e-10
-6.29491e-10
-1.40083e-10
-5.84528e-10
-1.26408e-10
-5.411e-10
-1.14031e-10
-4.99218e-10
-1.04319e-10
-4.58651e-10
-9.83009e-11
-4.18923e-10
-9.63606e-11
-3.79577e-10
-9.82495e-11
-3.404e-10
-1.03165e-10
-3.01498e-10
-1.09827e-10
-2.63322e-10
-1.16654e-10
-2.26568e-10
-1.21898e-10
-1.91989e-10
-1.23713e-10
-1.60432e-10
-1.20309e-10
-1.32975e-10
-1.10101e-10
-1.10812e-10
-9.18788e-11
-9.4949e-11
-6.53038e-11
-8.60564e-11
-3.14741e-11
-8.44895e-11
7.08805e-12
-9.02968e-11
4.69791e-11
-1.03121e-10
8.45134e-11
-1.2206e-10
1.16305e-10
-1.45589e-10
1.39608e-10
-1.71653e-10
1.52289e-10
-1.98018e-10
1.52927e-10
-2.22735e-10
1.41203e-10
-2.44326e-10
1.18301e-10
-2.61599e-10
8.69965e-11
-2.73331e-10
5.09305e-11
-2.78027e-10
1.34822e-11
-2.7385e-10
-2.28306e-11
-2.58787e-10
-5.6969e-11
-2.30711e-10
-8.98938e-11
-1.87365e-10
-1.24185e-10
-1.26273e-10
-1.6307e-10
-5.02338e-11
-1.94063e-10
-1.20442e-10
-7.9112e-10
2.66959e-09
-1.88481e-09
9.38168e-10
-2.35117e-09
-1.06649e-09
-2.36388e-09
-2.24461e-09
-2.11534e-09
-2.79795e-09
-1.72593e-09
-2.9593e-09
-1.28079e-09
-2.86886e-09
-8.26729e-10
-2.62051e-09
-3.92711e-10
-2.27824e-09
-6.14285e-12
-1.87767e-09
3.3494e-10
-1.45399e-09
6.23165e-10
-1.01626e-09
8.60681e-10
-5.86806e-10
1.04326e-09
-1.7251e-10
1.179e-09
2.07608e-10
1.27252e-09
5.54759e-10
1.32639e-09
8.54453e-10
1.34019e-09
1.11107e-09
1.3211e-09
1.31393e-09
1.27837e-09
1.46609e-09
1.20903e-09
1.56879e-09
1.1218e-09
1.62691e-09
1.01337e-09
1.63567e-09
8.96272e-10
1.61304e-09
7.66302e-10
1.55739e-09
6.34739e-10
1.48088e-09
4.9743e-10
1.38745e-09
3.63333e-10
1.28046e-09
2.32419e-10
1.16505e-09
1.06389e-10
1.0463e-09
-1.01495e-11
9.2581e-10
-1.16094e-10
8.06773e-10
-2.11333e-10
6.91647e-10
-2.95939e-10
5.7955e-10
-3.71086e-10
4.7197e-10
-4.36541e-10
3.69127e-10
-4.90744e-10
2.70977e-10
-5.34416e-10
1.7935e-10
-5.67392e-10
9.43662e-11
-5.88569e-10
1.63299e-11
-5.9957e-10
-5.50948e-11
-6.02088e-10
-1.21537e-10
-5.96851e-10
-1.83248e-10
-5.8435e-10
-2.41935e-10
-5.65085e-10
-2.9785e-10
-5.40727e-10
-3.4939e-10
-5.11469e-10
-3.96845e-10
-4.77443e-10
-4.3892e-10
-4.41071e-10
-4.73866e-10
-4.03092e-10
-5.02051e-10
-3.63112e-10
-5.21941e-10
-3.22632e-10
-5.32063e-10
-2.82676e-10
-5.33088e-10
-2.43232e-10
-5.24655e-10
-2.04957e-10
-5.06239e-10
-1.69287e-10
-4.78319e-10
-1.37193e-10
-4.41854e-10
-1.08481e-10
-3.9782e-10
-8.29398e-11
-3.46622e-10
-6.08206e-11
-2.8968e-10
-4.22968e-11
-2.30282e-10
-2.81319e-11
-1.7138e-10
-1.96683e-11
-1.14852e-10
-1.75555e-11
-6.17865e-11
-2.23186e-11
-1.15762e-11
-3.44879e-11
3.65667e-11
-5.32666e-11
8.22295e-11
-7.78545e-11
1.26014e-10
-1.08889e-10
1.69636e-10
-1.46472e-10
2.12867e-10
-1.8857e-10
2.54055e-10
-2.33865e-10
2.93124e-10
-2.8325e-10
3.30527e-10
-3.36889e-10
3.64613e-10
-3.93057e-10
3.92848e-10
-4.50978e-10
4.14551e-10
-5.11592e-10
4.30587e-10
-5.74711e-10
4.41563e-10
-6.38137e-10
4.47586e-10
-7.00185e-10
4.48828e-10
-7.60912e-10
4.45085e-10
-8.20432e-10
4.3534e-10
-8.7797e-10
4.18857e-10
-9.33171e-10
3.96472e-10
-9.86768e-10
3.70204e-10
-1.03921e-09
3.418e-10
-1.08958e-09
3.12258e-10
-1.13657e-09
2.8276e-10
-1.17978e-09
2.55008e-10
-1.21933e-09
2.29831e-10
-1.2548e-09
2.06169e-10
-1.28542e-09
1.82087e-10
-1.31115e-09
1.56355e-10
-1.33284e-09
1.28877e-10
-1.35119e-09
1.00111e-10
-1.36606e-09
7.05643e-11
-1.37697e-09
4.09111e-11
-1.38372e-09
1.20701e-11
-1.38641e-09
-1.53622e-11
-1.38495e-09
-4.14564e-11
-1.37896e-09
-6.65145e-11
-1.36837e-09
-9.06143e-11
-1.35375e-09
-1.13648e-10
-1.336e-09
-1.35451e-10
-1.31589e-09
-1.55617e-10
-1.29385e-09
-1.73226e-10
-1.26991e-09
-1.86961e-10
-1.24394e-09
-1.95787e-10
-1.21566e-09
-1.99654e-10
-1.18484e-09
-1.99596e-10
-1.1515e-09
-1.97271e-10
-1.1161e-09
-1.94476e-10
-1.07945e-09
-1.92799e-10
-1.04235e-09
-1.93257e-10
-1.00545e-09
-1.96117e-10
-9.69217e-10
-2.00967e-10
-9.33931e-10
-2.06865e-10
-8.99684e-10
-2.12513e-10
-8.66432e-10
-2.16479e-10
-8.33967e-10
-2.17494e-10
-8.0187e-10
-2.14823e-10
-7.69618e-10
-2.08454e-10
-7.36784e-10
-1.98991e-10
-7.03141e-10
-1.87372e-10
-6.68653e-10
-1.74572e-10
-6.33467e-10
-1.61594e-10
-5.97841e-10
-1.49653e-10
-5.62081e-10
-1.40077e-10
-5.26512e-10
-1.33869e-10
-4.91523e-10
-1.31351e-10
-4.57617e-10
-1.32158e-10
-4.25418e-10
-1.35366e-10
-3.95585e-10
-1.39661e-10
-3.68637e-10
-1.43602e-10
-3.44827e-10
-1.45707e-10
-3.24245e-10
-1.44291e-10
-3.06989e-10
-1.37563e-10
-2.93083e-10
-1.24008e-10
-2.82297e-10
-1.02667e-10
-2.7416e-10
-7.34428e-11
-2.68068e-10
-3.75647e-11
-2.63379e-10
2.40144e-12
-2.59575e-10
4.31753e-11
-2.56419e-10
8.13586e-11
-2.53905e-10
1.13792e-10
-2.52098e-10
1.37801e-10
-2.51061e-10
1.51252e-10
-2.50887e-10
1.52752e-10
-2.51673e-10
1.41991e-10
-2.53313e-10
1.19942e-10
-2.55319e-10
8.90027e-11
-2.56788e-10
5.23991e-11
-2.56281e-10
1.29741e-11
-2.51598e-10
-2.75132e-11
-2.39773e-10
-6.87927e-11
-2.17224e-10
-1.12442e-10
-1.79954e-10
-1.61454e-10
-1.238e-10
-2.19222e-10
-4.99671e-11
-2.67895e-10
-1.70409e-10
-7.56594e-10
3.42619e-09
-1.94109e-09
2.12267e-09
-2.62415e-09
-3.83424e-10
-2.89485e-09
-1.97391e-09
-2.90379e-09
-2.789e-09
-2.75555e-09
-3.10755e-09
-2.51932e-09
-3.10509e-09
-2.23541e-09
-2.90443e-09
-1.94153e-09
-2.57212e-09
-1.64673e-09
-2.17247e-09
-1.36775e-09
-1.73297e-09
-1.10898e-09
-1.27502e-09
-8.69495e-10
-8.26288e-10
-6.46762e-10
-3.9524e-10
-4.49236e-10
1.0083e-11
-2.69138e-10
3.74657e-10
-1.14238e-10
6.99553e-10
2.51838e-11
9.71645e-10
1.43049e-10
1.19608e-09
2.42519e-10
1.36662e-09
3.18305e-10
1.493e-09
3.84483e-10
1.56074e-09
4.21851e-10
1.5983e-09
4.49148e-10
1.58575e-09
4.54253e-10
1.55228e-09
4.4986e-10
1.48527e-09
4.33502e-10
1.4038e-09
4.0718e-10
1.30679e-09
3.72113e-10
1.20011e-09
3.31721e-10
1.08669e-09
2.88147e-10
9.69383e-10
2.42478e-10
8.52442e-10
1.97891e-10
7.36233e-10
1.55597e-10
6.21841e-10
1.15228e-10
5.12335e-10
7.62309e-11
4.08125e-10
3.9434e-11
3.07773e-10
5.29584e-12
2.13488e-10
-2.60906e-11
1.25755e-10
-5.31182e-11
4.33562e-11
-7.53438e-11
-3.2869e-11
-9.35014e-11
-1.03379e-10
-1.08246e-10
-1.68504e-10
-1.20868e-10
-2.29312e-10
-1.31259e-10
-2.87457e-10
-1.40039e-10
-3.40611e-10
-1.48942e-10
-3.87944e-10
-1.57122e-10
-4.30738e-10
-1.64008e-10
-4.66983e-10
-1.71392e-10
-4.94665e-10
-1.79685e-10
-5.13647e-10
-1.87999e-10
-5.2375e-10
-1.96222e-10
-5.24864e-10
-2.049e-10
-5.15978e-10
-2.14059e-10
-4.97081e-10
-2.2301e-10
-4.69368e-10
-2.31662e-10
-4.33205e-10
-2.40336e-10
-3.89144e-10
-2.48667e-10
-3.3829e-10
-2.56204e-10
-2.82145e-10
-2.6289e-10
-2.23592e-10
-2.68993e-10
-1.65275e-10
-2.76148e-10
-1.07696e-10
-2.8633e-10
-5.16034e-11
-2.99285e-10
1.37726e-12
-3.14141e-10
5.14208e-11
-3.32135e-10
1.00222e-10
-3.54295e-10
1.48173e-10
-3.79012e-10
1.94355e-10
-4.04893e-10
2.38749e-10
-4.3282e-10
2.8198e-10
-4.63035e-10
3.2334e-10
-4.93694e-10
3.61186e-10
-5.23929e-10
3.94845e-10
-5.55189e-10
4.24106e-10
-5.88289e-10
4.47654e-10
-6.21946e-10
4.64246e-10
-6.55167e-10
4.74782e-10
-6.88532e-10
4.80952e-10
-7.22143e-10
4.82438e-10
-7.54609e-10
4.77549e-10
-7.85189e-10
4.65921e-10
-8.15134e-10
4.48803e-10
-8.45822e-10
4.27159e-10
-8.76862e-10
4.01242e-10
-9.07109e-10
3.72046e-10
-9.36472e-10
3.41622e-10
-9.65416e-10
3.11706e-10
-9.93325e-10
2.82915e-10
-1.01864e-09
2.55142e-10
-1.04046e-09
2.27997e-10
-1.05922e-09
2.00847e-10
-1.07569e-09
1.72825e-10
-1.09011e-09
1.433e-10
-1.1024e-09
1.12398e-10
-1.11266e-09
8.08225e-11
-1.12101e-09
4.92644e-11
-1.12715e-09
1.82103e-11
-1.13057e-09
-1.19432e-11
-1.13113e-09
-4.08983e-11
-1.1291e-09
-6.85459e-11
-1.12474e-09
-9.49745e-11
-1.11809e-09
-1.20292e-10
-1.10925e-09
-1.44291e-10
-1.09862e-09
-1.66252e-10
-1.08673e-09
-1.85111e-10
-1.07378e-09
-1.99915e-10
-1.05933e-09
-2.10237e-10
-1.04263e-09
-2.16351e-10
-1.02313e-09
-2.19092e-10
-1.0008e-09
-2.196e-10
-9.76134e-10
-2.19146e-10
-9.49969e-10
-2.18963e-10
-9.23261e-10
-2.19966e-10
-8.96805e-10
-2.22573e-10
-8.71116e-10
-2.26657e-10
-8.4649e-10
-2.31491e-10
-8.23117e-10
-2.35885e-10
-8.01019e-10
-2.38576e-10
-7.79879e-10
-2.38636e-10
-7.58992e-10
-2.3571e-10
-7.37482e-10
-2.29962e-10
-7.14683e-10
-2.21787e-10
-6.90357e-10
-2.11697e-10
-6.64568e-10
-2.00363e-10
-6.37481e-10
-1.88683e-10
-6.09328e-10
-1.77805e-10
-5.80441e-10
-1.68963e-10
-5.51306e-10
-1.63004e-10
-5.22672e-10
-1.59984e-10
-4.95533e-10
-1.59294e-10
-4.70823e-10
-1.60076e-10
-4.49122e-10
-1.61364e-10
-4.30703e-10
-1.62024e-10
-4.15643e-10
-1.60768e-10
-4.03803e-10
-1.56131e-10
-3.9485e-10
-1.46514e-10
-3.88307e-10
-1.3055e-10
-3.83426e-10
-1.07546e-10
-3.79089e-10
-7.77803e-11
-3.74022e-10
-4.26324e-11
-3.67207e-10
-4.41515e-12
-3.58151e-10
3.41199e-11
-3.4692e-10
7.01292e-11
-3.33967e-10
1.0084e-10
-3.19966e-10
1.23799e-10
-3.05741e-10
1.37027e-10
-2.92218e-10
1.39229e-10
-2.80317e-10
1.3009e-10
-2.70716e-10
1.10341e-10
-2.63452e-10
8.174e-11
-2.57802e-10
4.67485e-11
-2.52337e-10
7.50942e-12
-2.44765e-10
-3.50843e-11
-2.31976e-10
-8.15819e-11
-2.10194e-10
-1.34225e-10
-1.75029e-10
-1.96618e-10
-1.2155e-10
-2.727e-10
-4.98072e-11
-3.39637e-10
-2.20216e-10
-7.0933e-10
4.13552e-09
-1.86402e-09
3.27736e-09
-2.63064e-09
3.83192e-10
-3.03992e-09
-1.56464e-09
-3.20332e-09
-2.62561e-09
-3.2091e-09
-3.10177e-09
-3.11237e-09
-3.20181e-09
-2.95665e-09
-3.06014e-09
-2.76281e-09
-2.76596e-09
-2.55093e-09
-2.38436e-09
-2.32944e-09
-1.95446e-09
-2.09625e-09
-1.50821e-09
-1.87035e-09
-1.0522e-09
-1.64462e-09
-6.20972e-10
-1.42208e-09
-2.12458e-10
-1.2046e-09
1.57179e-10
-9.91361e-10
4.86321e-10
-7.9001e-10
7.70292e-10
-5.99166e-10
1.00523e-09
-4.22067e-10
1.18953e-09
-2.55221e-10
1.32616e-09
-1.1286e-10
1.41838e-09
1.86821e-11
1.46675e-09
1.26386e-10
1.47804e-09
2.19792e-10
1.45888e-09
2.92129e-10
1.41293e-09
3.49085e-10
1.34685e-09
3.92348e-10
1.26352e-09
4.22918e-10
1.16954e-09
4.41663e-10
1.06794e-09
4.49017e-10
9.62027e-10
4.48263e-10
8.53196e-10
4.41321e-10
7.43174e-10
4.28055e-10
6.35105e-10
4.10692e-10
5.29699e-10
3.91342e-10
4.27472e-10
3.69246e-10
3.29867e-10
3.44569e-10
2.38164e-10
3.18139e-10
1.52185e-10
2.91198e-10
7.0296e-11
2.63797e-10
-5.46768e-12
2.35525e-10
-7.51073e-11
2.08223e-10
-1.41204e-10
1.81275e-10
-2.02362e-10
1.52101e-10
-2.58285e-10
1.21481e-10
-3.09991e-10
9.03091e-11
-3.56771e-10
5.72742e-11
-3.97705e-10
2.20643e-11
-4.31771e-10
-1.45777e-11
-4.58023e-10
-5.17923e-11
-4.76431e-10
-8.94354e-11
-4.86105e-10
-1.27991e-10
-4.8631e-10
-1.66888e-10
-4.77079e-10
-2.04913e-10
-4.59054e-10
-2.41337e-10
-4.32947e-10
-2.75992e-10
-3.98548e-10
-3.08971e-10
-3.56166e-10
-3.39469e-10
-3.07794e-10
-3.66199e-10
-2.55416e-10
-3.89669e-10
-2.00123e-10
-4.11602e-10
-1.43343e-10
-4.31984e-10
-8.73123e-11
-4.50552e-10
-3.30347e-11
-4.69178e-10
2.00033e-11
-4.89222e-10
7.14653e-11
-5.09418e-10
1.20414e-10
-5.28939e-10
1.67693e-10
-5.49204e-10
2.1462e-10
-5.70532e-10
2.60075e-10
-5.90894e-10
3.02343e-10
-6.09421e-10
3.41869e-10
-6.27606e-10
3.79368e-10
-6.46002e-10
4.1324e-10
-6.63082e-10
4.41188e-10
-6.78367e-10
4.62937e-10
-6.93682e-10
4.79562e-10
-7.10098e-10
4.912e-10
-7.26123e-10
4.96978e-10
-7.40248e-10
4.96563e-10
-7.53262e-10
4.90561e-10
-7.66765e-10
4.79424e-10
-7.80926e-10
4.62964e-10
-7.95094e-10
4.41326e-10
-8.09532e-10
4.15678e-10
-8.2508e-10
3.87594e-10
-8.41635e-10
3.58177e-10
-8.58085e-10
3.28154e-10
-8.73564e-10
2.98395e-10
-8.87934e-10
2.69514e-10
-9.01019e-10
2.41081e-10
-9.12239e-10
2.12066e-10
-9.21364e-10
1.81951e-10
-9.2905e-10
1.50988e-10
-9.36186e-10
1.19535e-10
-9.42938e-10
8.75733e-11
-9.48721e-10
5.50474e-11
-9.5295e-10
2.244e-11
-9.55525e-10
-9.36893e-12
-9.56639e-10
-3.97848e-11
-9.564e-10
-6.87851e-11
-9.54786e-10
-9.65862e-11
-9.51864e-10
-1.23215e-10
-9.47841e-10
-1.48315e-10
-9.42919e-10
-1.71172e-10
-9.3712e-10
-1.90909e-10
-9.30242e-10
-2.06793e-10
-9.21934e-10
-2.18547e-10
-9.11744e-10
-2.26542e-10
-8.99195e-10
-2.31641e-10
-8.8407e-10
-2.34726e-10
-8.66713e-10
-2.36504e-10
-8.47936e-10
-2.3774e-10
-8.286e-10
-2.393e-10
-8.0935e-10
-2.41824e-10
-7.90627e-10
-2.45382e-10
-7.72786e-10
-2.49333e-10
-7.56118e-10
-2.52551e-10
-7.4068e-10
-2.54014e-10
-7.26071e-10
-2.53247e-10
-7.11512e-10
-2.5027e-10
-6.96195e-10
-2.45278e-10
-6.79582e-10
-2.38399e-10
-6.61497e-10
-2.29781e-10
-6.41999e-10
-2.19859e-10
-6.21183e-10
-2.09498e-10
-5.99162e-10
-1.99826e-10
-5.76296e-10
-1.91831e-10
-5.5329e-10
-1.86011e-10
-5.31024e-10
-1.8225e-10
-5.10362e-10
-1.79954e-10
-4.92083e-10
-1.78354e-10
-4.76753e-10
-1.76694e-10
-4.64588e-10
-1.74187e-10
-4.55473e-10
-1.69883e-10
-4.49071e-10
-1.62534e-10
-4.44905e-10
-1.50681e-10
-4.42302e-10
-1.33153e-10
-4.40259e-10
-1.09587e-10
-4.37481e-10
-8.0557e-11
-4.32646e-10
-4.74677e-11
-4.24711e-10
-1.23513e-11
-4.13166e-10
2.2574e-11
-3.98213e-10
5.51773e-11
-3.8063e-10
8.32582e-11
-3.61404e-10
1.04573e-10
-3.41554e-10
1.17176e-10
-3.22091e-10
1.19766e-10
-3.0406e-10
1.12059e-10
-2.88451e-10
9.47314e-11
-2.75679e-10
6.89685e-11
-2.65275e-10
3.63451e-11
-2.55845e-10
-1.91987e-12
-2.45128e-10
-4.58011e-11
-2.30033e-10
-9.66768e-11
-2.06961e-10
-1.57298e-10
-1.71752e-10
-2.31828e-10
-1.19271e-10
-3.2518e-10
-4.90259e-11
-4.09882e-10
-2.69242e-10
-6.48535e-10
4.78405e-09
-1.70966e-09
4.33849e-09
-2.47611e-09
1.14965e-09
-2.93813e-09
-1.10261e-09
-3.18665e-09
-2.37709e-09
-3.29149e-09
-2.99692e-09
-3.29369e-09
-3.19961e-09
-3.22715e-09
-3.12668e-09
-3.1082e-09
-2.88491e-09
-2.96042e-09
-2.53215e-09
-2.78672e-09
-2.12816e-09
-2.6009e-09
-1.69402e-09
-2.39405e-09
-1.25905e-09
-2.17773e-09
-8.37299e-10
-1.95367e-09
-4.36508e-10
-1.72667e-09
-6.98305e-11
-1.49729e-09
2.56937e-10
-1.26958e-09
5.42581e-10
-1.04372e-09
7.79373e-10
-8.29745e-10
9.75544e-10
-6.22297e-10
1.11871e-09
-4.33e-10
1.22908e-09
-2.53626e-10
1.28738e-09
-9.83635e-11
1.32278e-09
4.29442e-11
1.31757e-09
1.63348e-10
1.29253e-09
2.66706e-10
1.24349e-09
3.51876e-10
1.17835e-09
4.20578e-10
1.10084e-09
4.75934e-10
1.01258e-09
5.18592e-10
9.19368e-10
5.49067e-10
8.22722e-10
5.68219e-10
7.2402e-10
5.77789e-10
6.25533e-10
5.7939e-10
5.28096e-10
5.73792e-10
4.33069e-10
5.6169e-10
3.41969e-10
5.45183e-10
2.54671e-10
5.24698e-10
1.72669e-10
4.99205e-10
9.57907e-11
4.706e-10
2.31377e-11
4.39607e-10
-4.41167e-11
4.05247e-10
-1.06843e-10
3.68274e-10
-1.65392e-10
3.28902e-10
-2.18914e-10
2.86589e-10
-2.67678e-10
2.41337e-10
-3.1152e-10
1.929e-10
-3.49266e-10
1.41787e-10
-3.80658e-10
8.88132e-11
-4.05048e-10
3.40052e-11
-4.21622e-10
-2.20811e-11
-4.30021e-10
-7.84448e-11
-4.29944e-10
-1.34293e-10
-4.21231e-10
-1.89149e-10
-4.04202e-10
-2.42772e-10
-3.79323e-10
-2.94039e-10
-3.4728e-10
-3.41422e-10
-3.08784e-10
-3.85081e-10
-2.64132e-10
-4.25586e-10
-2.14911e-10
-4.6177e-10
-1.6394e-10
-4.93152e-10
-1.1196e-10
-5.21919e-10
-5.85483e-11
-5.49394e-10
-5.55938e-12
-5.74184e-10
4.4796e-11
-5.96092e-10
9.33757e-11
-6.17546e-10
1.41868e-10
-6.39194e-10
1.89343e-10
-6.58647e-10
2.34073e-10
-6.74946e-10
2.76371e-10
-6.90016e-10
3.17416e-10
-7.0468e-10
3.56533e-10
-7.17055e-10
3.91741e-10
-7.2607e-10
4.22258e-10
-7.33338e-10
4.48456e-10
-7.40336e-10
4.69933e-10
-7.46443e-10
4.85668e-10
-7.50861e-10
4.9562e-10
-7.54341e-10
5.00458e-10
-7.57873e-10
5.00095e-10
-7.61201e-10
4.93888e-10
-7.63788e-10
4.8201e-10
-7.66314e-10
4.65489e-10
-7.70066e-10
4.45078e-10
-7.75354e-10
4.20966e-10
-7.81465e-10
3.93704e-10
-7.87934e-10
3.64645e-10
-7.94968e-10
3.35186e-10
-8.02539e-10
3.05967e-10
-8.09851e-10
2.76827e-10
-8.16012e-10
2.47242e-10
-8.20868e-10
2.1692e-10
-8.249e-10
1.85984e-10
-8.28523e-10
1.54612e-10
-8.31762e-10
1.22774e-10
-8.34562e-10
9.03748e-11
-8.37026e-10
5.7514e-11
-8.39201e-10
2.46146e-11
-8.40875e-10
-7.69748e-12
-8.41745e-10
-3.89143e-11
-8.41707e-10
-6.8821e-11
-8.40908e-10
-9.73852e-11
-8.39552e-10
-1.24572e-10
-8.37723e-10
-1.50144e-10
-8.3541e-10
-1.73483e-10
-8.32583e-10
-1.93736e-10
-8.29042e-10
-2.10335e-10
-8.24275e-10
-2.23314e-10
-8.17679e-10
-2.33137e-10
-8.08941e-10
-2.4038e-10
-7.98147e-10
-2.45522e-10
-7.85673e-10
-2.48979e-10
-7.72016e-10
-2.51397e-10
-7.57639e-10
-2.53677e-10
-7.4298e-10
-2.56483e-10
-7.2858e-10
-2.59782e-10
-7.15001e-10
-2.62911e-10
-7.02538e-10
-2.65013e-10
-6.9104e-10
-2.65511e-10
-6.79996e-10
-2.64289e-10
-6.68785e-10
-2.61481e-10
-6.5692e-10
-2.57142e-10
-6.44144e-10
-2.51176e-10
-6.30317e-10
-2.43608e-10
-6.15309e-10
-2.34865e-10
-5.99066e-10
-2.25737e-10
-5.81769e-10
-2.17122e-10
-5.63875e-10
-2.09725e-10
-5.46048e-10
-2.03838e-10
-5.29064e-10
-1.99234e-10
-5.13696e-10
-1.95323e-10
-5.00547e-10
-1.91505e-10
-4.89927e-10
-1.87314e-10
-4.81912e-10
-1.82201e-10
-4.76427e-10
-1.75367e-10
-4.7317e-10
-1.65791e-10
-4.71549e-10
-1.52303e-10
-4.70769e-10
-1.33934e-10
-4.69834e-10
-1.10521e-10
-4.67503e-10
-8.2888e-11
-4.62517e-10
-5.24529e-11
-4.53997e-10
-2.08717e-11
-4.41613e-10
1.01905e-11
-4.25602e-10
3.91666e-11
-4.06659e-10
6.43147e-11
-3.85753e-10
8.36655e-11
-3.63971e-10
9.5395e-11
-3.42365e-10
9.81608e-11
-3.219e-10
9.15946e-11
-3.03436e-10
7.62679e-11
-2.87496e-10
5.30273e-11
-2.73745e-10
2.25942e-11
-2.61024e-10
-1.46403e-11
-2.47359e-10
-5.94663e-11
-2.29904e-10
-1.14131e-10
-2.05205e-10
-1.81997e-10
-1.69283e-10
-2.6775e-10
-1.17114e-10
-3.77349e-10
-4.79458e-11
-4.7905e-10
-3.17188e-10
-5.68307e-10
5.35236e-09
-1.5063e-09
5.27648e-09
-2.21486e-09
1.85822e-09
-2.68203e-09
-6.35448e-10
-2.97524e-09
-2.08388e-09
-3.13597e-09
-2.8362e-09
-3.20381e-09
-3.13177e-09
-3.20249e-09
-3.128e-09
-3.15099e-09
-2.9364e-09
-3.05463e-09
-2.62851e-09
-2.92808e-09
-2.2547e-09
-2.77252e-09
-1.84958e-09
-2.59618e-09
-1.43539e-09
-2.40564e-09
-1.02784e-09
-2.19704e-09
-6.45108e-10
-1.97667e-09
-2.90193e-10
-1.74982e-09
3.00931e-11
-1.51625e-09
3.09012e-10
-1.28832e-09
5.51439e-10
-1.05776e-09
7.44992e-10
-8.40592e-10
9.01543e-10
-6.27814e-10
1.0163e-09
-4.35133e-10
1.0947e-09
-2.52288e-10
1.13993e-09
-8.87923e-11
1.15408e-09
5.79229e-11
1.14581e-09
1.86397e-10
1.11502e-09
2.9721e-10
1.06754e-09
3.91508e-10
1.00654e-09
4.68769e-10
9.35323e-10
5.31439e-10
8.56697e-10
5.8123e-10
7.72928e-10
6.18608e-10
6.86642e-10
6.44324e-10
5.99819e-10
6.59505e-10
5.12913e-10
6.65313e-10
4.27262e-10
6.62377e-10
3.44904e-10
6.51725e-10
2.65319e-10
6.35544e-10
1.88852e-10
6.13515e-10
1.17818e-10
5.85522e-10
5.11303e-11
5.53262e-10
-1.18536e-11
5.16751e-10
-7.03349e-11
4.75764e-10
-1.24401e-10
4.30588e-10
-1.73739e-10
3.81243e-10
-2.18333e-10
3.28414e-10
-2.5869e-10
2.72491e-10
-2.93345e-10
2.12839e-10
-3.21005e-10
1.50052e-10
-3.4226e-10
8.55986e-11
-3.57169e-10
2.03491e-11
-3.64769e-10
-4.56388e-11