/*--------------------------------*- C++ -*----------------------------------*\
  =========                 |
  \\      /  F ield         | OpenFOAM: The Open Source CFD Toolbox
   \\    /   O peration     | Website:  https://openfoam.org
    \\  /    A nd           | Version:  7
     \\/     M anipulation  |
\*---------------------------------------------------------------------------*/
FoamFile
{
    version     2.0;
    format      ascii;
    class       volVectorField;
    location    "0.0375";
    object      U;
}
// * * * * * * * * * * * * * * * * * * * * * * * * * * * * * * * * * * * * * //

dimensions      [0 1 -1 0 0 0 0];

internalField   nonuniform List<vector> 
51200
(
(-0.000196853 -0.000194201 0)
(5.984e-05 -0.000280587 0)
(0.000133876 -0.000131258 0)
(0.000375783 -0.00010959 0)
(0.000478733 -9.59296e-05 0)
(0.000589059 -8.79402e-05 0)
(0.000694036 -7.95368e-05 0)
(0.000789093 -7.0775e-05 0)
(0.000869541 -5.94046e-05 0)
(0.000935133 -4.70592e-05 0)
(0.000982889 -3.39929e-05 0)
(0.00101245 -2.01338e-05 0)
(0.00102288 -6.66412e-06 0)
(0.00101488 6.11927e-06 0)
(0.00099025 1.86659e-05 0)
(0.000948986 2.98994e-05 0)
(0.000893287 3.92435e-05 0)
(0.000827712 4.70749e-05 0)
(0.000752405 5.28848e-05 0)
(0.000669723 5.80095e-05 0)
(0.000584528 6.17276e-05 0)
(0.000495495 6.3353e-05 0)
(0.000408647 6.15893e-05 0)
(0.000325158 6.00103e-05 0)
(0.000244501 5.67033e-05 0)
(0.000169649 5.28572e-05 0)
(0.000100946 4.98296e-05 0)
(3.84007e-05 4.53141e-05 0)
(-1.86072e-05 4.03536e-05 0)
(-6.72122e-05 3.61206e-05 0)
(-0.000110328 3.25881e-05 0)
(-0.000148205 2.8937e-05 0)
(-0.000179404 2.55236e-05 0)
(-0.000205352 2.18409e-05 0)
(-0.000226605 1.6959e-05 0)
(-0.000242532 1.18908e-05 0)
(-0.00025358 7.76445e-06 0)
(-0.000260724 4.54542e-06 0)
(-0.000264218 2.0896e-06 0)
(-0.000263962 3.89332e-07 0)
(-0.000260755 -1.06257e-06 0)
(-0.000254921 -3.28424e-06 0)
(-0.000246298 -5.95163e-06 0)
(-0.000235104 -8.3309e-06 0)
(-0.000221398 -1.03829e-05 0)
(-0.000205455 -1.21679e-05 0)
(-0.000187091 -1.3869e-05 0)
(-0.000166318 -1.518e-05 0)
(-0.000143853 -1.60972e-05 0)
(-0.000119721 -1.72501e-05 0)
(-9.42538e-05 -1.83565e-05 0)
(-6.80796e-05 -1.89308e-05 0)
(-4.14096e-05 -1.90158e-05 0)
(-1.50093e-05 -1.85245e-05 0)
(1.04968e-05 -1.76683e-05 0)
(3.50045e-05 -1.67138e-05 0)
(5.80791e-05 -1.55263e-05 0)
(7.91491e-05 -1.40739e-05 0)
(9.76283e-05 -1.23101e-05 0)
(0.000113088 -1.01653e-05 0)
(0.000125498 -7.8982e-06 0)
(0.000134807 -5.77883e-06 0)
(0.000141115 -3.95117e-06 0)
(0.000144952 -2.47433e-06 0)
(0.000146744 -1.11353e-06 0)
(0.000146631 3.56733e-07 0)
(0.000144678 1.78559e-06 0)
(0.000140904 2.9779e-06 0)
(0.000135358 4.01557e-06 0)
(0.000128154 5.08328e-06 0)
(0.000119229 6.26852e-06 0)
(0.000108384 7.53333e-06 0)
(9.56311e-05 8.76171e-06 0)
(8.11854e-05 9.86789e-06 0)
(6.52683e-05 1.07699e-05 0)
(4.81891e-05 1.1385e-05 0)
(3.03462e-05 1.17672e-05 0)
(1.20366e-05 1.20695e-05 0)
(-6.63072e-06 1.23472e-05 0)
(-2.55898e-05 1.25225e-05 0)
(-4.46622e-05 1.25447e-05 0)
(-6.35847e-05 1.24183e-05 0)
(-8.20248e-05 1.20655e-05 0)
(-9.95445e-05 1.14058e-05 0)
(-0.000115689 1.05089e-05 0)
(-0.000130164 9.49224e-06 0)
(-0.000142949 8.40791e-06 0)
(-0.000154227 7.32401e-06 0)
(-0.000164209 6.37829e-06 0)
(-0.000173076 5.64329e-06 0)
(-0.000181029 5.01881e-06 0)
(-0.000188242 4.33964e-06 0)
(-0.000194693 3.5303e-06 0)
(-0.000200167 2.63457e-06 0)
(-0.000204457 1.72648e-06 0)
(-0.000207442 8.389e-07 0)
(-0.000209086 -1.02293e-08 0)
(-0.000209444 -8.23816e-07 0)
(-0.000208647 -1.65414e-06 0)
(-0.000206862 -2.49902e-06 0)
(-0.000204207 -3.24034e-06 0)
(-0.000200673 -3.76105e-06 0)
(-0.000196211 -4.08615e-06 0)
(-0.000190819 -4.41076e-06 0)
(-0.000184509 -4.93582e-06 0)
(-0.000177301 -5.63067e-06 0)
(-0.000169313 -6.23183e-06 0)
(-0.000160823 -6.4811e-06 0)
(-0.000152249 -6.32138e-06 0)
(-0.000144001 -5.91572e-06 0)
(-0.000136304 -5.51597e-06 0)
(-0.000129159 -5.28384e-06 0)
(-0.00012243 -5.23189e-06 0)
(-0.00011589 -5.31218e-06 0)
(-0.000109257 -5.49164e-06 0)
(-0.000102256 -5.74628e-06 0)
(-9.4709e-05 -6.05209e-06 0)
(-8.65687e-05 -6.37942e-06 0)
(-7.79251e-05 -6.65734e-06 0)
(-6.8971e-05 -6.76058e-06 0)
(-5.99737e-05 -6.56894e-06 0)
(-5.12601e-05 -6.06122e-06 0)
(-4.31588e-05 -5.34271e-06 0)
(-3.59242e-05 -4.55195e-06 0)
(-2.96992e-05 -3.75706e-06 0)
(-2.44927e-05 -2.96825e-06 0)
(-2.01876e-05 -2.20973e-06 0)
(-1.66033e-05 -1.55075e-06 0)
(-1.35293e-05 -1.09761e-06 0)
(-1.06945e-05 -9.52918e-07 0)
(-7.77461e-06 -1.12389e-06 0)
(-4.47561e-06 -1.48393e-06 0)
(-5.90226e-07 -1.88022e-06 0)
(4.00355e-06 -2.25085e-06 0)
(9.31216e-06 -2.59486e-06 0)
(1.51913e-05 -2.88239e-06 0)
(2.13743e-05 -3.02348e-06 0)
(2.74806e-05 -2.88322e-06 0)
(3.29919e-05 -2.34058e-06 0)
(3.73169e-05 -1.37821e-06 0)
(3.99125e-05 -9.65533e-08 0)
(4.03474e-05 1.37279e-06 0)
(3.83509e-05 2.90972e-06 0)
(3.38975e-05 4.36626e-06 0)
(2.72307e-05 5.57189e-06 0)
(1.88087e-05 6.38247e-06 0)
(9.2642e-06 6.70491e-06 0)
(-6.31588e-07 6.50828e-06 0)
(-1.00361e-05 5.82399e-06 0)
(-1.81611e-05 4.75159e-06 0)
(-2.44229e-05 3.41762e-06 0)
(-2.84691e-05 1.89617e-06 0)
(-3.01754e-05 2.84472e-07 0)
(-2.97005e-05 -1.18914e-06 0)
(-2.74129e-05 -2.26473e-06 0)
(-2.37545e-05 -2.81997e-06 0)
(-1.90574e-05 -2.99693e-06 0)
(-1.34099e-05 -3.14747e-06 0)
(-6.79067e-06 -3.40253e-06 0)
(-1.91953e-06 -1.9522e-06 0)
(-0.000284255 6.76397e-05 0)
(-0.000349944 -0.000337912 0)
(-0.000165271 -0.000239244 0)
(3.40581e-05 -0.000237699 0)
(0.000217501 -0.0002251 0)
(0.000403396 -0.000210039 0)
(0.000577076 -0.00019029 0)
(0.000731955 -0.000165443 0)
(0.000868227 -0.000137152 0)
(0.000979961 -0.000106496 0)
(0.00106561 -7.41651e-05 0)
(0.00112449 -3.99992e-05 0)
(0.001159 -7.56186e-06 0)
(0.00116941 2.39667e-05 0)
(0.00115371 5.30492e-05 0)
(0.00111713 7.88751e-05 0)
(0.00106369 0.000102178 0)
(0.000992301 0.000119319 0)
(0.000908236 0.000133319 0)
(0.000814267 0.000143288 0)
(0.000712862 0.000149894 0)
(0.000609489 0.000149467 0)
(0.000505194 0.000149222 0)
(0.000401978 0.000140863 0)
(0.000302455 0.000134602 0)
(0.000209254 0.000124175 0)
(0.000120955 0.000114698 0)
(3.99401e-05 0.00010323 0)
(-3.18955e-05 9.19141e-05 0)
(-9.7757e-05 8.06429e-05 0)
(-0.000155844 6.96015e-05 0)
(-0.00020574 5.97952e-05 0)
(-0.000248906 5.07208e-05 0)
(-0.000285207 4.19666e-05 0)
(-0.000314305 3.30383e-05 0)
(-0.000336842 2.43198e-05 0)
(-0.000353498 1.61834e-05 0)
(-0.000364521 8.53243e-06 0)
(-0.000370602 1.97281e-06 0)
(-0.000372137 -3.29116e-06 0)
(-0.000369096 -7.92346e-06 0)
(-0.000361972 -1.25063e-05 0)
(-0.000351128 -1.72655e-05 0)
(-0.000336746 -2.16662e-05 0)
(-0.000318941 -2.60876e-05 0)
(-0.000297993 -3.0551e-05 0)
(-0.000274336 -3.4383e-05 0)
(-0.0002478 -3.77955e-05 0)
(-0.00021876 -4.06616e-05 0)
(-0.000188035 -4.30257e-05 0)
(-0.000155683 -4.49711e-05 0)
(-0.000122101 -4.59534e-05 0)
(-8.82685e-05 -4.60894e-05 0)
(-5.48737e-05 -4.54669e-05 0)
(-2.23193e-05 -4.37346e-05 0)
(9.09809e-06 -4.12462e-05 0)
(3.86167e-05 -3.82355e-05 0)
(6.52958e-05 -3.44189e-05 0)
(8.89524e-05 -2.98405e-05 0)
(0.000109309 -2.46681e-05 0)
(0.000125714 -1.91292e-05 0)
(0.000138325 -1.38262e-05 0)
(0.000147554 -9.23221e-06 0)
(0.000153362 -5.28839e-06 0)
(0.000156044 -1.70341e-06 0)
(0.000156058 1.70682e-06 0)
(0.000153387 4.99485e-06 0)
(0.000148084 8.14935e-06 0)
(0.000140343 1.11718e-05 0)
(0.000130039 1.41922e-05 0)
(0.000117253 1.73742e-05 0)
(0.000102307 2.06331e-05 0)
(8.49531e-05 2.37168e-05 0)
(6.50063e-05 2.6491e-05 0)
(4.32891e-05 2.8863e-05 0)
(2.05713e-05 3.05887e-05 0)
(-3.3388e-06 3.15864e-05 0)
(-2.84752e-05 3.22029e-05 0)
(-5.40454e-05 3.27904e-05 0)
(-7.94795e-05 3.32657e-05 0)
(-0.00010488 3.32902e-05 0)
(-0.000130151 3.26586e-05 0)
(-0.000154705 3.13553e-05 0)
(-0.000178036 2.94249e-05 0)
(-0.000199892 2.70074e-05 0)
(-0.000220004 2.43539e-05 0)
(-0.000238186 2.16895e-05 0)
(-0.000254591 1.9181e-05 0)
(-0.000269489 1.69914e-05 0)
(-0.000282937 1.52241e-05 0)
(-0.000294903 1.37968e-05 0)
(-0.000305458 1.24127e-05 0)
(-0.0003147 1.07461e-05 0)
(-0.000322586 8.68178e-06 0)
(-0.000328918 6.35887e-06 0)
(-0.000333464 4.02475e-06 0)
(-0.000336095 1.85373e-06 0)
(-0.000336859 -1.29002e-07 0)
(-0.000335987 -2.00057e-06 0)
(-0.00033376 -3.81925e-06 0)
(-0.000330308 -5.54814e-06 0)
(-0.00032558 -7.13487e-06 0)
(-0.000319505 -8.61749e-06 0)
(-0.000312137 -1.00884e-05 0)
(-0.000303609 -1.15934e-05 0)
(-0.000294038 -1.30498e-05 0)
(-0.000283564 -1.42156e-05 0)
(-0.000272432 -1.48081e-05 0)
(-0.00026098 -1.47031e-05 0)
(-0.00024957 -1.40189e-05 0)
(-0.000238489 -1.30722e-05 0)
(-0.000227841 -1.22579e-05 0)
(-0.000217545 -1.18515e-05 0)
(-0.00020739 -1.19001e-05 0)
(-0.000197087 -1.23176e-05 0)
(-0.000186402 -1.30068e-05 0)
(-0.000175265 -1.38717e-05 0)
(-0.000163718 -1.47859e-05 0)
(-0.000151819 -1.5554e-05 0)
(-0.000139656 -1.5922e-05 0)
(-0.000127412 -1.56993e-05 0)
(-0.000115375 -1.48859e-05 0)
(-0.000103893 -1.36466e-05 0)
(-9.32571e-05 -1.21691e-05 0)
(-8.3603e-05 -1.05713e-05 0)
(-7.48851e-05 -8.94871e-06 0)
(-6.69779e-05 -7.46553e-06 0)
(-5.97809e-05 -6.33175e-06 0)
(-5.32091e-05 -5.69287e-06 0)
(-4.70906e-05 -5.58139e-06 0)
(-4.11065e-05 -5.94743e-06 0)
(-3.48641e-05 -6.69038e-06 0)
(-2.80466e-05 -7.67572e-06 0)
(-2.05326e-05 -8.7562e-06 0)
(-1.24373e-05 -9.75926e-06 0)
(-4.07287e-06 -1.04614e-05 0)
(4.13877e-06 -1.0624e-05 0)
(1.17508e-05 -1.00405e-05 0)
(1.83434e-05 -8.54525e-06 0)
(2.35239e-05 -6.06498e-06 0)
(2.68804e-05 -2.7011e-06 0)
(2.79674e-05 1.2626e-06 0)
(2.63885e-05 5.42366e-06 0)
(2.19384e-05 9.33703e-06 0)
(1.47424e-05 1.26035e-05 0)
(5.35634e-06 1.494e-05 0)
(-5.27733e-06 1.6166e-05 0)
(-1.60638e-05 1.61548e-05 0)
(-2.60424e-05 1.48356e-05 0)
(-3.45806e-05 1.22692e-05 0)
(-4.13896e-05 8.74817e-06 0)
(-4.63168e-05 4.74556e-06 0)
(-4.9111e-05 7.69971e-07 0)
(-4.9433e-05 -2.72139e-06 0)
(-4.70284e-05 -5.46768e-06 0)
(-4.19096e-05 -7.5332e-06 0)
(-3.43648e-05 -9.27937e-06 0)
(-2.48295e-05 -1.1176e-05 0)
(-1.32528e-05 -1.25937e-05 0)
(-3.78391e-06 -7.05032e-06 0)
(-0.000134297 0.000147995 0)
(-0.000248655 -0.000144293 0)
(-0.000312748 -0.000296271 0)
(-0.000250245 -0.000364274 0)
(-0.000148127 -0.000383916 0)
(-3.07927e-05 -0.000372108 0)
(9.20942e-05 -0.000343722 0)
(0.000208346 -0.000302937 0)
(0.000311552 -0.000255102 0)
(0.000402198 -0.000203342 0)
(0.000476504 -0.000148172 0)
(0.000532687 -9.33287e-05 0)
(0.00057308 -3.67314e-05 0)
(0.000598665 1.44906e-05 0)
(0.000608501 6.29361e-05 0)
(0.000605227 0.000107326 0)
(0.000587765 0.000143901 0)
(0.000560991 0.000174822 0)
(0.000526166 0.000199527 0)
(0.000482389 0.000215556 0)
(0.000432403 0.000226825 0)
(0.000381009 0.000231496 0)
(0.000325369 0.000228077 0)
(0.000269476 0.000222574 0)
(0.000215262 0.000211326 0)
(0.000159476 0.000198916 0)
(0.000108588 0.000183486 0)
(5.98237e-05 0.000168188 0)
(1.37698e-05 0.000150785 0)
(-2.7363e-05 0.000133328 0)
(-6.43983e-05 0.000116719 0)
(-9.80978e-05 0.000100051 0)
(-0.000127239 8.42923e-05 0)
(-0.00015211 6.99148e-05 0)
(-0.000173555 5.61257e-05 0)
(-0.000190804 4.28511e-05 0)
(-0.000203826 3.05013e-05 0)
(-0.000213553 1.87068e-05 0)
(-0.000219972 7.51989e-06 0)
(-0.000223158 -2.38369e-06 0)
(-0.000223601 -1.11553e-05 0)
(-0.000221399 -1.92705e-05 0)
(-0.000216484 -2.69522e-05 0)
(-0.000208969 -3.42146e-05 0)
(-0.000199454 -4.10594e-05 0)
(-0.000187977 -4.79773e-05 0)
(-0.000174581 -5.4507e-05 0)
(-0.000159825 -6.00031e-05 0)
(-0.00014369 -6.47661e-05 0)
(-0.00012647 -6.86272e-05 0)
(-0.000108572 -7.12988e-05 0)
(-8.99161e-05 -7.28025e-05 0)
(-7.09919e-05 -7.29316e-05 0)
(-5.23148e-05 -7.18397e-05 0)
(-3.41778e-05 -6.95157e-05 0)
(-1.69323e-05 -6.56912e-05 0)
(-6.04402e-07 -6.07055e-05 0)
(1.43101e-05 -5.4743e-05 0)
(2.7232e-05 -4.75711e-05 0)
(3.8527e-05 -3.95363e-05 0)
(4.82338e-05 -3.12356e-05 0)
(5.5822e-05 -2.30475e-05 0)
(6.13308e-05 -1.5522e-05 0)
(6.48735e-05 -8.91497e-06 0)
(6.63292e-05 -2.82048e-06 0)
(6.58607e-05 3.06144e-06 0)
(6.35237e-05 8.61857e-06 0)
(5.9143e-05 1.39127e-05 0)
(5.29251e-05 1.92207e-05 0)
(4.52544e-05 2.45883e-05 0)
(3.6123e-05 2.98746e-05 0)
(2.53345e-05 3.4986e-05 0)
(1.29513e-05 3.98632e-05 0)
(-6.46248e-07 4.4346e-05 0)
(-1.51072e-05 4.81207e-05 0)
(-3.04544e-05 5.09166e-05 0)
(-4.67896e-05 5.27832e-05 0)
(-6.38129e-05 5.40212e-05 0)
(-8.10546e-05 5.48552e-05 0)
(-9.83105e-05 5.52772e-05 0)
(-0.000115434 5.5109e-05 0)
(-0.000132106 5.40744e-05 0)
(-0.000148169 5.1945e-05 0)
(-0.000163714 4.88003e-05 0)
(-0.000178625 4.50452e-05 0)
(-0.000192548 4.1072e-05 0)
(-0.000205415 3.70514e-05 0)
(-0.000217506 3.31275e-05 0)
(-0.000228829 2.9576e-05 0)
(-0.000238989 2.65763e-05 0)
(-0.000247819 2.39768e-05 0)
(-0.000255596 2.13912e-05 0)
(-0.000262504 1.84726e-05 0)
(-0.000268386 1.51096e-05 0)
(-0.000273066 1.13953e-05 0)
(-0.000276601 7.52173e-06 0)
(-0.000279108 3.74779e-06 0)
(-0.000280551 2.88311e-07 0)
(-0.000280848 -2.83769e-06 0)
(-0.000280051 -5.77381e-06 0)
(-0.000278248 -8.66454e-06 0)
(-0.000275405 -1.15367e-05 0)
(-0.000271478 -1.43248e-05 0)
(-0.000266626 -1.69831e-05 0)
(-0.000261136 -1.94893e-05 0)
(-0.000255158 -2.17356e-05 0)
(-0.000248633 -2.34878e-05 0)
(-0.000241491 -2.44828e-05 0)
(-0.000233868 -2.46059e-05 0)
(-0.000226034 -2.40091e-05 0)
(-0.000218169 -2.30541e-05 0)
(-0.000210258 -2.21502e-05 0)
(-0.000202203 -2.16126e-05 0)
(-0.000193979 -2.15907e-05 0)
(-0.000185658 -2.20798e-05 0)
(-0.000177336 -2.29773e-05 0)
(-0.000169062 -2.41136e-05 0)
(-0.000160823 -2.52557e-05 0)
(-0.000152576 -2.61255e-05 0)
(-0.000144282 -2.64658e-05 0)
(-0.000135968 -2.61207e-05 0)
(-0.00012775 -2.50869e-05 0)
(-0.000119748 -2.34942e-05 0)
(-0.000112011 -2.15167e-05 0)
(-0.000104511 -1.9319e-05 0)
(-9.71812e-05 -1.71013e-05 0)
(-8.99867e-05 -1.51244e-05 0)
(-8.29987e-05 -1.36261e-05 0)
(-7.63398e-05 -1.27284e-05 0)
(-7.00246e-05 -1.24501e-05 0)
(-6.38964e-05 -1.2763e-05 0)
(-5.77516e-05 -1.35882e-05 0)
(-5.14853e-05 -1.47678e-05 0)
(-4.51404e-05 -1.60558e-05 0)
(-3.89089e-05 -1.71214e-05 0)
(-3.3063e-05 -1.76149e-05 0)
(-2.78197e-05 -1.72715e-05 0)
(-2.32924e-05 -1.59145e-05 0)
(-1.95427e-05 -1.33878e-05 0)
(-1.65999e-05 -9.58446e-06 0)
(-1.44938e-05 -4.5754e-06 0)
(-1.33614e-05 1.30695e-06 0)
(-1.34466e-05 7.49108e-06 0)
(-1.49236e-05 1.32928e-05 0)
(-1.77337e-05 1.81104e-05 0)
(-2.15301e-05 2.15415e-05 0)
(-2.57653e-05 2.33539e-05 0)
(-2.99199e-05 2.34114e-05 0)
(-3.36885e-05 2.16512e-05 0)
(-3.70236e-05 1.81672e-05 0)
(-4.00363e-05 1.33065e-05 0)
(-4.26863e-05 7.64224e-06 0)
(-4.45751e-05 1.8373e-06 0)
(-4.50833e-05 -3.5485e-06 0)
(-4.36226e-05 -8.25385e-06 0)
(-3.98858e-05 -1.24464e-05 0)
(-3.37772e-05 -1.66124e-05 0)
(-2.53149e-05 -2.13171e-05 0)
(-1.40914e-05 -2.49642e-05 0)
(-4.04758e-06 -1.52584e-05 0)
(-0.000111976 0.000394671 0)
(-0.000244915 6.1925e-05 0)
(-0.000376779 -0.000228 0)
(-0.000401338 -0.000384403 0)
(-0.000370498 -0.000449831 0)
(-0.000310784 -0.000461218 0)
(-0.00024074 -0.000437572 0)
(-0.000167708 -0.000395013 0)
(-9.5736e-05 -0.000339059 0)
(-2.9009e-05 -0.000277068 0)
(2.87391e-05 -0.000210839 0)
(7.90005e-05 -0.000142456 0)
(0.000120961 -7.65829e-05 0)
(0.000154151 -1.22524e-05 0)
(0.000180583 4.68755e-05 0)
(0.000197331 0.000100209 0)
(0.000209309 0.000146456 0)
(0.00021544 0.000186289 0)
(0.000213871 0.000215947 0)
(0.000208985 0.000240057 0)
(0.000200783 0.00025339 0)
(0.000186814 0.00026244 0)
(0.000171767 0.000260932 0)
(0.000153672 0.000258184 0)
(0.000132953 0.000246633 0)
(0.000112818 0.000234239 0)
(9.08522e-05 0.000218487 0)
(6.89693e-05 0.000200752 0)
(4.7665e-05 0.000182551 0)
(2.71098e-05 0.000163927 0)
(7.33519e-06 0.000144543 0)
(-1.05689e-05 0.000125359 0)
(-2.62597e-05 0.000106987 0)
(-4.06359e-05 8.87946e-05 0)
(-5.37673e-05 7.15947e-05 0)
(-6.49554e-05 5.59052e-05 0)
(-7.45003e-05 4.11595e-05 0)
(-8.26153e-05 2.69773e-05 0)
(-8.86615e-05 1.37431e-05 0)
(-9.27427e-05 1.61926e-06 0)
(-9.52923e-05 -9.78671e-06 0)
(-9.65026e-05 -2.0346e-05 0)
(-9.63348e-05 -2.97737e-05 0)
(-9.46088e-05 -3.87462e-05 0)
(-9.20332e-05 -4.73907e-05 0)
(-8.87678e-05 -5.54214e-05 0)
(-8.42362e-05 -6.29002e-05 0)
(-7.89823e-05 -6.95419e-05 0)
(-7.34331e-05 -7.52744e-05 0)
(-6.75833e-05 -7.9932e-05 0)
(-6.14753e-05 -8.28898e-05 0)
(-5.48729e-05 -8.43876e-05 0)
(-4.8311e-05 -8.46705e-05 0)
(-4.21972e-05 -8.33438e-05 0)
(-3.58872e-05 -8.05075e-05 0)
(-2.96092e-05 -7.6221e-05 0)
(-2.4263e-05 -7.03663e-05 0)
(-1.96833e-05 -6.33534e-05 0)
(-1.5334e-05 -5.53121e-05 0)
(-1.13879e-05 -4.61323e-05 0)
(-8.11279e-06 -3.65454e-05 0)
(-5.49036e-06 -2.73571e-05 0)
(-3.67081e-06 -1.8598e-05 0)
(-2.79342e-06 -1.02488e-05 0)
(-2.8236e-06 -2.50345e-06 0)
(-4.05652e-06 4.71468e-06 0)
(-6.72844e-06 1.16457e-05 0)
(-1.03609e-05 1.84016e-05 0)
(-1.47013e-05 2.50556e-05 0)
(-2.02087e-05 3.16568e-05 0)
(-2.6779e-05 3.81142e-05 0)
(-3.37244e-05 4.42757e-05 0)
(-4.11648e-05 5.00118e-05 0)
(-4.95514e-05 5.52043e-05 0)
(-5.84417e-05 5.96893e-05 0)
(-6.73732e-05 6.32303e-05 0)
(-7.68001e-05 6.56726e-05 0)
(-8.69889e-05 6.71718e-05 0)
(-9.72647e-05 6.80631e-05 0)
(-0.000107105 6.84395e-05 0)
(-0.000116776 6.80251e-05 0)
(-0.000126498 6.65274e-05 0)
(-0.000135969 6.39382e-05 0)
(-0.000144909 6.04433e-05 0)
(-0.000153466 5.62619e-05 0)
(-0.000161899 5.16615e-05 0)
(-0.000170215 4.69572e-05 0)
(-0.000178195 4.24191e-05 0)
(-0.000185582 3.8202e-05 0)
(-0.000192213 3.43275e-05 0)
(-0.000198098 3.07077e-05 0)
(-0.000203333 2.71701e-05 0)
(-0.000207923 2.347e-05 0)
(-0.00021182 1.93991e-05 0)
(-0.00021505 1.49388e-05 0)
(-0.000217654 1.02682e-05 0)
(-0.000219601 5.64377e-06 0)
(-0.000220896 1.25551e-06 0)
(-0.000221636 -2.85631e-06 0)
(-0.000221859 -6.74464e-06 0)
(-0.000221402 -1.04551e-05 0)
(-0.000220038 -1.40265e-05 0)
(-0.000217791 -1.75089e-05 0)
(-0.000215014 -2.09045e-05 0)
(-0.000212046 -2.40935e-05 0)
(-0.000208905 -2.68298e-05 0)
(-0.000205387 -2.88493e-05 0)
(-0.000201347 -3.00337e-05 0)
(-0.000196846 -3.04585e-05 0)
(-0.000192039 -3.03033e-05 0)
(-0.000186974 -2.97874e-05 0)
(-0.000181574 -2.91748e-05 0)
(-0.000175809 -2.8745e-05 0)
(-0.0001698 -2.87172e-05 0)
(-0.00016374 -2.91846e-05 0)
(-0.000157806 -3.00693e-05 0)
(-0.000152106 -3.11463e-05 0)
(-0.000146641 -3.21437e-05 0)
(-0.000141334 -3.28194e-05 0)
(-0.000136102 -3.2992e-05 0)
(-0.000130904 -3.25672e-05 0)
(-0.000125731 -3.15342e-05 0)
(-0.000120565 -2.99492e-05 0)
(-0.000115323 -2.79412e-05 0)
(-0.00010991 -2.57026e-05 0)
(-0.000104287 -2.34652e-05 0)
(-9.84887e-05 -2.14768e-05 0)
(-9.26132e-05 -1.9949e-05 0)
(-8.68169e-05 -1.89903e-05 0)
(-8.12494e-05 -1.86063e-05 0)
(-7.59336e-05 -1.87651e-05 0)
(-7.07839e-05 -1.9401e-05 0)
(-6.57727e-05 -2.03419e-05 0)
(-6.10027e-05 -2.12968e-05 0)
(-5.6664e-05 -2.19215e-05 0)
(-5.29825e-05 -2.18928e-05 0)
(-5.01103e-05 -2.09662e-05 0)
(-4.79823e-05 -1.89776e-05 0)
(-4.63302e-05 -1.57844e-05 0)
(-4.48744e-05 -1.12857e-05 0)
(-4.35038e-05 -5.579e-06 0)
(-4.23066e-05 9.37029e-07 0)
(-4.1454e-05 7.64426e-06 0)
(-4.1025e-05 1.38702e-05 0)
(-4.09109e-05 1.90484e-05 0)
(-4.0866e-05 2.27985e-05 0)
(-4.06651e-05 2.48739e-05 0)
(-4.02854e-05 2.50927e-05 0)
(-3.99191e-05 2.33605e-05 0)
(-3.98211e-05 1.97557e-05 0)
(-4.01585e-05 1.46344e-05 0)
(-4.08423e-05 8.59021e-06 0)
(-4.14477e-05 2.22726e-06 0)
(-4.13661e-05 -4.00624e-06 0)
(-4.00439e-05 -1.00066e-05 0)
(-3.70706e-05 -1.60665e-05 0)
(-3.20877e-05 -2.27275e-05 0)
(-2.47365e-05 -3.054e-05 0)
(-1.41157e-05 -3.69889e-05 0)
(-4.15422e-06 -2.32832e-05 0)
(-9.73766e-05 0.000500901 0)
(-0.000230484 0.000250699 0)
(-0.000393667 -0.000121128 0)
(-0.000463443 -0.000349422 0)
(-0.000475661 -0.000458554 0)
(-0.000459889 -0.00049566 0)
(-0.00042441 -0.000488279 0)
(-0.000380756 -0.000447997 0)
(-0.000334738 -0.000393369 0)
(-0.000287082 -0.000327346 0)
(-0.000239201 -0.000257785 0)
(-0.000197532 -0.000185147 0)
(-0.000157969 -0.000114221 0)
(-0.000119752 -4.49924e-05 0)
(-8.69018e-05 1.76633e-05 0)
(-5.62798e-05 7.58653e-05 0)
(-2.97475e-05 0.000126772 0)
(-6.99314e-06 0.000168832 0)
(1.50608e-05 0.000204214 0)
(3.17947e-05 0.000230349 0)
(4.54327e-05 0.00024902 0)
(5.73386e-05 0.000258613 0)
(6.53854e-05 0.000263524 0)
(7.06911e-05 0.000259134 0)
(7.2836e-05 0.000253138 0)
(7.30911e-05 0.000241081 0)
(7.10858e-05 0.000226527 0)
(6.79537e-05 0.000209791 0)
(6.29688e-05 0.000191647 0)
(5.67214e-05 0.000172903 0)
(4.97193e-05 0.000154044 0)
(4.25982e-05 0.000135365 0)
(3.53494e-05 0.000116628 0)
(2.81698e-05 9.79559e-05 0)
(2.16599e-05 7.99808e-05 0)
(1.55495e-05 6.28673e-05 0)
(9.3003e-06 4.66646e-05 0)
(3.23012e-06 3.18528e-05 0)
(-1.81037e-06 1.8112e-05 0)
(-6.36059e-06 5.26435e-06 0)
(-1.06174e-05 -6.725e-06 0)
(-1.36848e-05 -1.8044e-05 0)
(-1.61014e-05 -2.84595e-05 0)
(-1.83619e-05 -3.82591e-05 0)
(-2.01872e-05 -4.76184e-05 0)
(-2.16767e-05 -5.59653e-05 0)
(-2.29378e-05 -6.3523e-05 0)
(-2.43299e-05 -7.04619e-05 0)
(-2.5785e-05 -7.62712e-05 0)
(-2.68089e-05 -8.09384e-05 0)
(-2.79029e-05 -8.41768e-05 0)
(-2.94502e-05 -8.56769e-05 0)
(-3.08651e-05 -8.58765e-05 0)
(-3.2104e-05 -8.45396e-05 0)
(-3.35187e-05 -8.13469e-05 0)
(-3.48835e-05 -7.68753e-05 0)
(-3.62377e-05 -7.12279e-05 0)
(-3.78912e-05 -6.40393e-05 0)
(-3.9347e-05 -5.56543e-05 0)
(-4.03403e-05 -4.6592e-05 0)
(-4.15079e-05 -3.70434e-05 0)
(-4.27755e-05 -2.74507e-05 0)
(-4.36699e-05 -1.82846e-05 0)
(-4.47815e-05 -9.53474e-06 0)
(-4.66412e-05 -1.0568e-06 0)
(-4.88992e-05 7.00065e-06 0)
(-5.15218e-05 1.45529e-05 0)
(-5.48297e-05 2.18853e-05 0)
(-5.86327e-05 2.9215e-05 0)
(-6.26418e-05 3.64045e-05 0)
(-6.69666e-05 4.32587e-05 0)
(-7.1711e-05 4.97516e-05 0)
(-7.66638e-05 5.58388e-05 0)
(-8.14939e-05 6.13279e-05 0)
(-8.62185e-05 6.59829e-05 0)
(-9.12933e-05 6.96565e-05 0)
(-9.68718e-05 7.23434e-05 0)
(-0.000102428 7.41474e-05 0)
(-0.000107602 7.51395e-05 0)
(-0.00011274 7.52785e-05 0)
(-0.00011808 7.4501e-05 0)
(-0.000123236 7.27924e-05 0)
(-0.000128 7.01564e-05 0)
(-0.000132746 6.66209e-05 0)
(-0.000137685 6.23472e-05 0)
(-0.000142566 5.76578e-05 0)
(-0.000147296 5.28572e-05 0)
(-0.000152111 4.81089e-05 0)
(-0.000156936 4.35235e-05 0)
(-0.000161254 3.91977e-05 0)
(-0.000164812 3.50892e-05 0)
(-0.000167927 3.09777e-05 0)
(-0.000170896 2.66374e-05 0)
(-0.000173567 2.20279e-05 0)
(-0.000175697 1.72727e-05 0)
(-0.000177343 1.24666e-05 0)
(-0.000178711 7.59724e-06 0)
(-0.000179857 2.6795e-06 0)
(-0.000180679 -2.14601e-06 0)
(-0.000181064 -6.70459e-06 0)
(-0.000180969 -1.0925e-05 0)
(-0.000180392 -1.48836e-05 0)
(-0.000179379 -1.87195e-05 0)
(-0.000178066 -2.24706e-05 0)
(-0.000176593 -2.59877e-05 0)
(-0.000174952 -2.90101e-05 0)
(-0.000173038 -3.13035e-05 0)
(-0.000170791 -3.27766e-05 0)
(-0.00016822 -3.35277e-05 0)
(-0.000165321 -3.37609e-05 0)
(-0.000162045 -3.36669e-05 0)
(-0.000158336 -3.34252e-05 0)
(-0.000154222 -3.32488e-05 0)
(-0.000149873 -3.33322e-05 0)
(-0.000145515 -3.37686e-05 0)
(-0.000141299 -3.45167e-05 0)
(-0.000137291 -3.54047e-05 0)
(-0.000133516 -3.61995e-05 0)
(-0.00012995 -3.6705e-05 0)
(-0.000126522 -3.67911e-05 0)
(-0.000123148 -3.63744e-05 0)
(-0.00011975 -3.5425e-05 0)
(-0.000116253 -3.3993e-05 0)
(-0.000112569 -3.22164e-05 0)
(-0.000108603 -3.02767e-05 0)
(-0.000104303 -2.83415e-05 0)
(-9.97114e-05 -2.65559e-05 0)
(-9.49677e-05 -2.50717e-05 0)
(-9.02618e-05 -2.40461e-05 0)
(-8.57579e-05 -2.3575e-05 0)
(-8.15179e-05 -2.3626e-05 0)
(-7.74973e-05 -2.40322e-05 0)
(-7.36711e-05 -2.45388e-05 0)
(-7.01537e-05 -2.48879e-05 0)
(-6.71828e-05 -2.48793e-05 0)
(-6.49867e-05 -2.43342e-05 0)
(-6.36099e-05 -2.30299e-05 0)
(-6.28141e-05 -2.07102e-05 0)
(-6.21866e-05 -1.71675e-05 0)
(-6.1393e-05 -1.23614e-05 0)
(-6.03309e-05 -6.51787e-06 0)
(-5.90842e-05 -1.04369e-07 0)
(-5.7772e-05 6.32488e-06 0)
(-5.63949e-05 1.22677e-05 0)
(-5.47964e-05 1.73126e-05 0)
(-5.27993e-05 2.11125e-05 0)
(-5.03897e-05 2.33381e-05 0)
(-4.77939e-05 2.37167e-05 0)
(-4.5387e-05 2.21428e-05 0)
(-4.34932e-05 1.87452e-05 0)
(-4.22628e-05 1.39114e-05 0)
(-4.16143e-05 8.1387e-06 0)
(-4.11522e-05 1.82757e-06 0)
(-4.0325e-05 -4.83234e-06 0)
(-3.86487e-05 -1.18796e-05 0)
(-3.5738e-05 -1.96308e-05 0)
(-3.11268e-05 -2.86053e-05 0)
(-2.43087e-05 -3.93628e-05 0)
(-1.40593e-05 -4.86409e-05 0)
(-4.2924e-06 -3.12612e-05 0)
(-8.86053e-05 0.00061342 0)
(-0.000214166 0.000440777 0)
(-0.000379987 7.47031e-08 0)
(-0.000472321 -0.000286516 0)
(-0.000509865 -0.000440023 0)
(-0.000520996 -0.000504415 0)
(-0.000509241 -0.00050969 0)
(-0.000487043 -0.000484237 0)
(-0.000459255 -0.000430762 0)
(-0.000425551 -0.000367426 0)
(-0.000391188 -0.000296597 0)
(-0.000354258 -0.000223745 0)
(-0.000316967 -0.000150582 0)
(-0.000281374 -8.20609e-05 0)
(-0.000244791 -1.54395e-05 0)
(-0.000209567 4.30885e-05 0)
(-0.000175958 9.56108e-05 0)
(-0.000141544 0.000140624 0)
(-0.00011073 0.000177709 0)
(-8.10854e-05 0.000205147 0)
(-5.32514e-05 0.000227781 0)
(-2.86046e-05 0.000239529 0)
(-6.80683e-06 0.000247053 0)
(1.24249e-05 0.000246602 0)
(2.8977e-05 0.000242859 0)
(4.15077e-05 0.000233623 0)
(5.21529e-05 0.000222102 0)
(5.99414e-05 0.000207656 0)
(6.58675e-05 0.000191082 0)
(6.99287e-05 0.000173397 0)
(7.18538e-05 0.000155287 0)
(7.22491e-05 0.000137282 0)
(7.15031e-05 0.000119271 0)
(6.97853e-05 0.000101611 0)
(6.72683e-05 8.44698e-05 0)
(6.42819e-05 6.76493e-05 0)
(6.10618e-05 5.12875e-05 0)
(5.72413e-05 3.6179e-05 0)
(5.30183e-05 2.22611e-05 0)
(4.87935e-05 8.97779e-06 0)
(4.43385e-05 -3.15764e-06 0)
(3.9917e-05 -1.4315e-05 0)
(3.55905e-05 -2.49462e-05 0)
(3.11688e-05 -3.48464e-05 0)
(2.67796e-05 -4.41991e-05 0)
(2.21688e-05 -5.27142e-05 0)
(1.71508e-05 -6.0155e-05 0)
(1.19565e-05 -6.69351e-05 0)
(6.44667e-06 -7.26224e-05 0)
(5.62371e-07 -7.68249e-05 0)
(-5.22802e-06 -7.99509e-05 0)
(-1.11494e-05 -8.16742e-05 0)
(-1.75242e-05 -8.1641e-05 0)
(-2.37204e-05 -8.0194e-05 0)
(-2.96345e-05 -7.72883e-05 0)
(-3.56605e-05 -7.27578e-05 0)
(-4.15021e-05 -6.7042e-05 0)
(-4.69537e-05 -6.03224e-05 0)
(-5.20573e-05 -5.2321e-05 0)
(-5.6572e-05 -4.34064e-05 0)
(-6.056e-05 -3.43306e-05 0)
(-6.43221e-05 -2.51921e-05 0)
(-6.7744e-05 -1.59265e-05 0)
(-7.06158e-05 -6.94507e-06 0)
(-7.33063e-05 1.50659e-06 0)
(-7.64948e-05 9.66318e-06 0)
(-8.00466e-05 1.76533e-05 0)
(-8.31861e-05 2.53791e-05 0)
(-8.60573e-05 3.28283e-05 0)
(-8.94831e-05 4.00323e-05 0)
(-9.31841e-05 4.6946e-05 0)
(-9.6254e-05 5.34979e-05 0)
(-9.89391e-05 5.95901e-05 0)
(-0.00010192 6.50263e-05 0)
(-0.000104859 6.95997e-05 0)
(-0.000107307 7.32311e-05 0)
(-0.000109716 7.59401e-05 0)
(-0.000112459 7.77627e-05 0)
(-0.000115095 7.87297e-05 0)
(-0.000117283 7.88197e-05 0)
(-0.000119332 7.79511e-05 0)
(-0.000121548 7.60754e-05 0)
(-0.000123828 7.32801e-05 0)
(-0.000126009 6.97681e-05 0)
(-0.000128158 6.57114e-05 0)
(-0.000130497 6.11944e-05 0)
(-0.000133177 5.63409e-05 0)
(-0.000136047 5.14157e-05 0)
(-0.000138728 4.67075e-05 0)
(-0.000141003 4.22736e-05 0)
(-0.000143043 3.78884e-05 0)
(-0.000145057 3.33105e-05 0)
(-0.000146905 2.8508e-05 0)
(-0.000148313 2.35946e-05 0)
(-0.000149337 1.86458e-05 0)
(-0.000150299 1.36411e-05 0)
(-0.000151313 8.55328e-06 0)
(-0.000152196 3.43895e-06 0)
(-0.000152781 -1.58521e-06 0)
(-0.000153071 -6.42945e-06 0)
(-0.000153101 -1.10601e-05 0)
(-0.000152868 -1.546e-05 0)
(-0.000152414 -1.96133e-05 0)
(-0.000151863 -2.35082e-05 0)
(-0.000151283 -2.70853e-05 0)
(-0.00015057 -3.02046e-05 0)
(-0.00014956 -3.27121e-05 0)
(-0.000148232 -3.45248e-05 0)
(-0.000146691 -3.56681e-05 0)
(-0.000144941 -3.62751e-05 0)
(-0.000142834 -3.65337e-05 0)
(-0.000140257 -3.6629e-05 0)
(-0.000137285 -3.673e-05 0)
(-0.000134113 -3.69661e-05 0)
(-0.000130937 -3.73821e-05 0)
(-0.00012788 -3.79432e-05 0)
(-0.000124989 -3.85714e-05 0)
(-0.000122289 -3.91492e-05 0)
(-0.000119776 -3.95187e-05 0)
(-0.000117382 -3.95209e-05 0)
(-0.000115011 -3.90591e-05 0)
(-0.000112608 -3.81406e-05 0)
(-0.000110138 -3.68659e-05 0)
(-0.000107504 -3.53754e-05 0)
(-0.000104554 -3.37782e-05 0)
(-0.000101195 -3.2131e-05 0)
(-9.75047e-05 -3.05097e-05 0)
(-9.37099e-05 -2.90805e-05 0)
(-9.00638e-05 -2.80496e-05 0)
(-8.6695e-05 -2.75183e-05 0)
(-8.35356e-05 -2.73928e-05 0)
(-8.04507e-05 -2.74339e-05 0)
(-7.74833e-05 -2.73912e-05 0)
(-7.49063e-05 -2.7111e-05 0)
(-7.30107e-05 -2.65288e-05 0)
(-7.19027e-05 -2.55415e-05 0)
(-7.14475e-05 -2.39087e-05 0)
(-7.13012e-05 -2.13196e-05 0)
(-7.10576e-05 -1.7577e-05 0)
(-7.04805e-05 -1.27396e-05 0)
(-6.95738e-05 -7.12957e-06 0)
(-6.84108e-05 -1.20538e-06 0)
(-6.69678e-05 4.61107e-06 0)
(-6.51178e-05 9.99611e-06 0)
(-6.27252e-05 1.46601e-05 0)
(-5.97718e-05 1.82755e-05 0)
(-5.64133e-05 2.04764e-05 0)
(-5.29474e-05 2.09569e-05 0)
(-4.97192e-05 1.96006e-05 0)
(-4.69621e-05 1.65469e-05 0)
(-4.4782e-05 1.21316e-05 0)
(-4.31722e-05 6.76035e-06 0)
(-4.18929e-05 6.79412e-07 0)
(-4.04652e-05 -6.15678e-06 0)
(-3.84052e-05 -1.39786e-05 0)
(-3.53047e-05 -2.31742e-05 0)
(-3.06533e-05 -3.4282e-05 0)
(-2.39389e-05 -4.79223e-05 0)
(-1.38284e-05 -6.00512e-05 0)
(-4.26751e-06 -3.91927e-05 0)
(-7.99102e-05 0.000720398 0)
(-0.000193766 0.000618196 0)
(-0.000350771 0.000126577 0)
(-0.000447227 -0.000213697 0)
(-0.000500222 -0.000402699 0)
(-0.000523628 -0.000491168 0)
(-0.00053196 -0.000516917 0)
(-0.000524603 -0.000498387 0)
(-0.000507525 -0.000456155 0)
(-0.000488145 -0.000396562 0)
(-0.000459915 -0.000328744 0)
(-0.000431832 -0.000257758 0)
(-0.000401527 -0.000186062 0)
(-0.00036548 -0.000117512 0)
(-0.000330348 -5.25388e-05 0)
(-0.000294903 6.55726e-06 0)
(-0.000257499 5.94274e-05 0)
(-0.000221472 0.000105326 0)
(-0.000185077 0.000142397 0)
(-0.00014878 0.000174094 0)
(-0.000115801 0.000195352 0)
(-8.39695e-05 0.00021246 0)
(-5.39629e-05 0.000220312 0)
(-2.73372e-05 0.00022481 0)
(-3.45499e-06 0.000222171 0)
(1.71717e-05 0.000216771 0)
(3.55535e-05 0.000207742 0)
(5.03309e-05 0.000196055 0)
(6.24235e-05 0.000182568 0)
(7.2365e-05 0.000167308 0)
(8.02814e-05 0.000151128 0)
(8.61363e-05 0.000134329 0)
(8.98795e-05 0.000117478 0)
(9.21156e-05 0.000100997 0)
(9.30201e-05 8.48552e-05 0)
(9.24337e-05 6.91473e-05 0)
(9.09595e-05 5.40248e-05 0)
(8.8865e-05 3.95101e-05 0)
(8.58025e-05 2.59216e-05 0)
(8.19598e-05 1.304e-05 0)
(7.7668e-05 1.0568e-06 0)
(7.29768e-05 -9.81551e-06 0)
(6.78022e-05 -2.01709e-05 0)
(6.19535e-05 -2.97941e-05 0)
(5.5796e-05 -3.84967e-05 0)
(4.96382e-05 -4.66796e-05 0)
(4.26686e-05 -5.40192e-05 0)
(3.47537e-05 -6.02529e-05 0)