/*--------------------------------*- C++ -*----------------------------------*\
  =========                 |
  \\      /  F ield         | OpenFOAM: The Open Source CFD Toolbox
   \\    /   O peration     | Website:  https://openfoam.org
    \\  /    A nd           | Version:  7
     \\/     M anipulation  |
\*---------------------------------------------------------------------------*/
FoamFile
{
    version     2.0;
    format      ascii;
    class       volScalarField;
    location    "0.4625";
    object      p;
}
// * * * * * * * * * * * * * * * * * * * * * * * * * * * * * * * * * * * * * //

dimensions      [0 2 -2 0 0 0 0];

internalField   nonuniform List<scalar> 
51200
(
1.64663e-07
-2.99743e-07
7.27163e-07
3.59356e-06
8.29756e-06
1.4605e-05
2.20573e-05
3.0244e-05
3.8968e-05
4.81334e-05
5.75886e-05
6.71092e-05
7.64921e-05
8.56141e-05
9.43943e-05
0.000102743
0.000110558
0.000117748
0.000124245
0.000130007
0.000135006
0.000139199
0.00014254
0.000144995
0.000146551
0.000147194
0.0001469
0.000145651
0.000143437
0.000140259
0.00013612
0.00013102
0.000124961
0.00011795
0.000109993
0.000101101
9.12833e-05
8.05536e-05
6.89225e-05
5.64021e-05
4.30083e-05
2.87599e-05
1.36735e-05
-2.23464e-06
-1.89458e-05
-3.64398e-05
-5.46952e-05
-7.36907e-05
-9.34064e-05
-0.000113824
-0.000134925
-0.000156683
-0.000179075
-0.000202083
-0.000225688
-0.000249867
-0.000274596
-0.000299849
-0.000325603
-0.000351838
-0.000378534
-0.000405666
-0.00043321
-0.000461144
-0.000489447
-0.000518097
-0.000547071
-0.000576347
-0.000605902
-0.000635712
-0.000665756
-0.00069601
-0.000726455
-0.000757067
-0.000787822
-0.000818699
-0.000849674
-0.000880727
-0.000911836
-0.00094298
-0.000974135
-0.00100528
-0.00103639
-0.00106745
-0.00109843
-0.00112931
-0.00116006
-0.00119067
-0.00122112
-0.00125138
-0.00128143
-0.00131124
-0.0013408
-0.00137007
-0.00139905
-0.00142769
-0.00145599
-0.00148391
-0.00151145
-0.00153858
-0.00156526
-0.00159149
-0.00161723
-0.00164246
-0.00166716
-0.00169131
-0.00171488
-0.00173785
-0.0017602
-0.00178191
-0.00180296
-0.00182333
-0.00184299
-0.00186192
-0.0018801
-0.00189752
-0.00191415
-0.00192997
-0.00194497
-0.00195913
-0.00197242
-0.00198484
-0.00199638
-0.002007
-0.00201671
-0.0020255
-0.00203334
-0.00204023
-0.00204617
-0.00205114
-0.00205516
-0.00205821
-0.0020603
-0.00206144
-0.00206163
-0.00206088
-0.00205921
-0.00205665
-0.00205321
-0.00204892
-0.00204381
-0.00203793
-0.00203133
-0.00202406
-0.00201618
-0.00200777
-0.00199892
-0.00198973
-0.0019803
-0.00197077
-0.00196129
-0.00195203
-0.00194318
-0.00193498
-0.00192765
-0.00192147
-0.00191675
-0.00191379
-0.00191282
-0.00191351
8.2946e-07
3.05508e-07
1.4609e-06
4.10974e-06
8.08891e-06
1.34013e-05
1.98543e-05
2.70808e-05
3.47803e-05
4.28129e-05
5.10996e-05
5.95138e-05
6.78775e-05
7.60296e-05
8.38634e-05
9.13042e-05
9.8276e-05
0.000104692
0.000110473
0.000115568
0.000119945
0.000123572
0.000126405
0.000128408
0.000129556
0.000129833
0.000129222
0.000127708
0.000125279
0.000121927
0.000117651
0.000112454
0.000106337
9.93038e-05
9.13598e-05
8.25107e-05
7.27654e-05
6.21356e-05
5.06341e-05
3.82727e-05
2.50654e-05
1.10291e-05
-3.82054e-06
-1.94697e-05
-3.59014e-05
-5.30962e-05
-7.10341e-05
-8.96951e-05
-0.00010906
-0.000129111
-0.00014983
-0.000171195
-0.000193183
-0.000215771
-0.000238942
-0.000262676
-0.00028695
-0.000311738
-0.000337019
-0.000362773
-0.000388978
-0.000415614
-0.000442657
-0.000470085
-0.000497875
-0.000526007
-0.000554459
-0.000583206
-0.000612227
-0.000641501
-0.000671005
-0.000700719
-0.000730619
-0.000760683
-0.000790889
-0.000821215
-0.000851639
-0.00088214
-0.000912697
-0.000943288
-0.00097389
-0.00100448
-0.00103504
-0.00106554
-0.00109596
-0.00112629
-0.0011565
-0.00118656
-0.00121646
-0.00124618
-0.00127568
-0.00130496
-0.00133398
-0.00136272
-0.00139117
-0.00141929
-0.00144707
-0.00147449
-0.00150152
-0.00152814
-0.00155434
-0.00158008
-0.00160534
-0.00163011
-0.00165435
-0.00167805
-0.00170118
-0.00172373
-0.00174567
-0.00176698
-0.00178764
-0.00180764
-0.00182694
-0.00184554
-0.0018634
-0.00188052
-0.00189687
-0.00191243
-0.0019272
-0.00194114
-0.00195425
-0.00196651
-0.00197791
-0.00198844
-0.00199807
-0.00200681
-0.00201465
-0.00202157
-0.00202756
-0.00203264
-0.00203679
-0.00204002
-0.00204233
-0.00204374
-0.00204425
-0.00204386
-0.0020426
-0.0020405
-0.00203757
-0.00203385
-0.00202936
-0.00202415
-0.00201828
-0.00201179
-0.00200476
-0.00199725
-0.00198935
-0.00198116
-0.00197278
-0.00196434
-0.00195596
-0.00194781
-0.00194007
-0.00193292
-0.00192657
-0.00192123
-0.00191707
-0.00191433
-0.0019133
-0.00191402
-2.82988e-07
-9.23551e-07
2.91191e-07
2.97373e-06
6.69121e-06
1.13922e-05
1.70791e-05
2.35691e-05
3.05722e-05
3.7861e-05
4.53262e-05
5.28961e-05
6.04578e-05
6.7862e-05
7.49771e-05
8.17145e-05
8.80083e-05
9.37899e-05
9.89895e-05
0.00010355
0.000107429
0.000110592
0.000113005
0.000114636
0.000115456
0.000115435
0.000114556
0.000112812
0.000110194
0.000106692
0.000102297
9.70098e-05
9.08336e-05
8.37729e-05
7.58324e-05
6.70162e-05
5.73293e-05
4.678e-05
3.53807e-05
2.31452e-05
1.00868e-05
-3.77993e-06
-1.84411e-05
-3.38834e-05
-5.00899e-05
-6.70407e-05
-8.47165e-05
-0.000103101
-0.000122177
-0.000141927
-0.000162329
-0.000183364
-0.000205011
-0.00022725
-0.000250064
-0.000273431
-0.000297325
-0.000321725
-0.000346611
-0.000371963
-0.00039776
-0.000423981
-0.000450603
-0.000477605
-0.000504964
-0.00053266
-0.000560673
-0.000588978
-0.000617553
-0.000646375
-0.000675425
-0.000704683
-0.000734126
-0.00076373
-0.000793473
-0.000823335
-0.000853294
-0.000883329
-0.000913419
-0.000943544
-0.00097368
-0.0010038
-0.00103389
-0.00106393
-0.00109389
-0.00112375
-0.00115349
-0.00118309
-0.00121254
-0.00124179
-0.00127085
-0.00129967
-0.00132824
-0.00135654
-0.00138454
-0.00141222
-0.00143957
-0.00146656
-0.00149316
-0.00151937
-0.00154516
-0.00157049
-0.00159536
-0.00161973
-0.00164359
-0.00166692
-0.00168968
-0.00171188
-0.00173348
-0.00175446
-0.0017748
-0.0017945
-0.00181351
-0.00183183
-0.00184944
-0.00186631
-0.00188243
-0.00189778
-0.00191235
-0.00192613
-0.00193909
-0.00195122
-0.00196251
-0.00197296
-0.00198254
-0.00199125
-0.00199909
-0.00200603
-0.00201209
-0.00201726
-0.00202153
-0.00202491
-0.00202741
-0.00202904
-0.00202982
-0.00202974
-0.00202882
-0.0020271
-0.00202459
-0.00202133
-0.00201734
-0.00201268
-0.00200739
-0.00200153
-0.00199517
-0.00198837
-0.00198121
-0.00197378
-0.00196619
-0.00195855
-0.00195099
-0.00194365
-0.00193667
-0.00193023
-0.00192451
-0.0019197
-0.00191592
-0.00191333
-0.00191224
-0.0019129
-3.17898e-06
-3.65535e-06
-2.41868e-06
3.07138e-07
4.02943e-06
8.52215e-06
1.37571e-05
1.96915e-05
2.61551e-05
3.29247e-05
3.98339e-05
4.6792e-05
5.37246e-05
6.05259e-05
6.70727e-05
7.32595e-05
7.90104e-05
8.42668e-05
8.89783e-05
9.30921e-05
9.65553e-05
9.93263e-05
0.000101378
0.000102686
0.000103219
0.000102943
0.000101836
9.98904e-05
9.71024e-05
9.34624e-05
8.89593e-05
8.35902e-05
7.73574e-05
7.02644e-05
6.23162e-05
5.35179e-05
4.38735e-05
3.33883e-05
2.20734e-05
9.94321e-06
-2.98997e-06
-1.67145e-05
-3.12176e-05
-4.64853e-05
-6.25007e-05
-7.92437e-05
-9.6696e-05
-0.000114844
-0.000133673
-0.000153165
-0.000173296
-0.000194045
-0.000215395
-0.000237331
-0.000259834
-0.00028288
-0.000306443
-0.000330505
-0.000355045
-0.000380047
-0.000405488
-0.000431346
-0.0004576
-0.000484228
-0.000511208
-0.000538522
-0.000566148
-0.000594065
-0.000622247
-0.000650672
-0.000679323
-0.000708179
-0.000737218
-0.000766417
-0.000795753
-0.000825206
-0.000854755
-0.00088438
-0.000914059
-0.000943771
-0.000973495
-0.00100321
-0.00103289
-0.00106251
-0.00109206
-0.00112151
-0.00115084
-0.00118004
-0.00120908
-0.00123793
-0.00126658
-0.00129501
-0.00132318
-0.00135109
-0.0013787
-0.001406
-0.00143297
-0.00145958
-0.00148582
-0.00151166
-0.00153708
-0.00156206
-0.00158658
-0.00161062
-0.00163414
-0.00165714
-0.00167959
-0.00170148
-0.00172278
-0.00174348
-0.00176355
-0.00178298
-0.00180175
-0.00181983
-0.00183721
-0.00185387
-0.0018698
-0.00188498
-0.00189939
-0.00191302
-0.00192585
-0.00193788
-0.00194909
-0.00195948
-0.00196902
-0.00197771
-0.00198555
-0.00199253
-0.00199864
-0.00200389
-0.00200828
-0.0020118
-0.00201447
-0.0020163
-0.0020173
-0.00201748
-0.00201687
-0.00201546
-0.00201331
-0.00201044
-0.00200688
-0.00200268
-0.00199787
-0.00199253
-0.0019867
-0.00198047
-0.00197389
-0.00196707
-0.00196008
-0.00195305
-0.00194609
-0.00193932
-0.00193287
-0.00192688
-0.00192153
-0.00191697
-0.00191336
-0.00191081
-0.00190956
-0.00190989
-7.80776e-06
-7.63694e-06
-6.19108e-06
-3.45104e-06
3.02878e-07
4.78295e-06
9.8292e-06
1.53897e-05
2.14017e-05
2.77272e-05
3.4198e-05
4.06835e-05
4.70999e-05
5.33722e-05
5.94088e-05
6.5108e-05
7.03836e-05
7.51774e-05
7.94487e-05
8.31521e-05
8.62346e-05
8.86523e-05
9.03763e-05
9.13807e-05
9.16366e-05
9.11157e-05
8.97956e-05
8.7663e-05
8.4711e-05
8.09327e-05
7.63201e-05
7.08695e-05
6.45813e-05
5.74567e-05
4.9498e-05
4.07099e-05
3.10976e-05
2.06667e-05
9.42726e-06
-2.60788e-06
-1.54278e-05
-2.90232e-05
-4.33815e-05
-5.84873e-05
-7.43235e-05
-9.08723e-05
-0.000108117
-0.000126044
-0.000144641
-0.000163888
-0.000183763
-0.000204244
-0.000225317
-0.000246966
-0.000269173
-0.000291914
-0.000315164
-0.000338904
-0.000363117
-0.000387784
-0.000412886
-0.000438399
-0.000464301
-0.000490573
-0.000517193
-0.000544141
-0.000571398
-0.00059894
-0.000626746
-0.000654793
-0.000683062
-0.000711533
-0.000740185
-0.000768995
-0.00079794
-0.000827001
-0.000856156
-0.000885388
-0.000914673
-0.00094399
-0.000973318
-0.00100263
-0.00103192
-0.00106115
-0.0010903
-0.00111936
-0.00114831
-0.00117711
-0.00120576
-0.00123423
-0.0012625
-0.00129054
-0.00131834
-0.00134587
-0.00137311
-0.00140004
-0.00142664
-0.0014529
-0.00147878
-0.00150428
-0.00152936
-0.001554
-0.00157819
-0.0016019
-0.00162511
-0.0016478
-0.00166996
-0.00169155
-0.00171257
-0.001733
-0.00175282
-0.001772
-0.00179053
-0.00180839
-0.00182556
-0.00184203
-0.00185778
-0.00187279
-0.00188705
-0.00190055
-0.00191327
-0.00192521
-0.00193634
-0.00194667
-0.00195618
-0.00196487
-0.00197272
-0.00197973
-0.0019859
-0.00199123
-0.00199572
-0.00199939
-0.00200222
-0.00200424
-0.00200546
-0.00200589
-0.00200554
-0.00200445
-0.00200263
-0.00200011
-0.00199694
-0.00199315
-0.00198879
-0.0019839
-0.00197855
-0.00197281
-0.00196675
-0.00196043
-0.00195396
-0.00194742
-0.00194094
-0.00193461
-0.00192857
-0.00192291
-0.00191779
-0.00191333
-0.00190971
-0.00190703
-0.00190546
-0.00190519
-1.40481e-05
-1.289e-05
-1.09112e-05
-8.01683e-06
-4.22752e-06
2.84113e-07
5.29952e-06
1.06891e-05
1.63996e-05
2.23663e-05
2.84744e-05
3.45896e-05
4.0604e-05
4.64413e-05
5.20324e-05
5.72974e-05
6.2158e-05
6.6553e-05
7.04367e-05
7.3767e-05
7.6501e-05
7.85999e-05
8.00301e-05
8.07582e-05
8.07555e-05
8.00017e-05
7.84797e-05
7.61723e-05
7.30669e-05
6.91564e-05
6.44356e-05
5.89018e-05
5.25557e-05
4.53979e-05
3.74272e-05
2.86449e-05
1.90571e-05
8.67194e-06
-2.50095e-06
-1.44512e-05
-2.71698e-05
-4.06487e-05
-5.48751e-05
-6.98321e-05
-8.55026e-05
-0.000101872
-0.000118925
-0.00013665
-0.00015503
-0.000174047
-0.00019368
-0.000213911
-0.000234726
-0.000256107
-0.000278036
-0.000300489
-0.000323444
-0.000346882
-0.000370786
-0.000395138
-0.000419917
-0.000445103
-0.000470672
-0.000496606
-0.000522885
-0.000549488
-0.000576394
-0.00060358
-0.000631027
-0.000658714
-0.000686621
-0.000714727
-0.000743011
-0.00077145
-0.000800024
-0.000828711
-0.000857492
-0.000886349
-0.000915259
-0.0009442
-0.000973151
-0.00100209
-0.001031
-0.00105986
-0.00108864
-0.00111732
-0.00114589
-0.00117433
-0.00120261
-0.00123071
-0.00125861
-0.00128629
-0.00131373
-0.0013409
-0.00136779
-0.00139437
-0.00142063
-0.00144655
-0.0014721
-0.00149726
-0.00152202
-0.00154635
-0.00157022
-0.00159363
-0.00161654
-0.00163894
-0.00166081
-0.00168214
-0.0017029
-0.00172307
-0.00174265
-0.0017616
-0.00177991
-0.00179757
-0.00181454
-0.00183083
-0.00184641
-0.00186127
-0.0018754
-0.00188878
-0.0019014
-0.00191325
-0.00192433
-0.00193461
-0.00194409
-0.00195277
-0.00196064
-0.00196768
-0.00197391
-0.00197932
-0.00198392
-0.00198771
-0.00199071
-0.00199291
-0.00199433
-0.00199499
-0.0019949
-0.00199408
-0.00199257
-0.00199038
-0.00198756
-0.00198413
-0.00198016
-0.00197568
-0.00197075
-0.00196544
-0.0019598
-0.00195392
-0.00194787
-0.00194173
-0.00193561
-0.0019296
-0.00192383
-0.00191839
-0.00191338
-0.00190892
-0.00190514
-0.00190217
-0.00190012
-0.00189903
-2.15339e-05
-1.93253e-05
-1.6586e-05
-1.32922e-05
-9.34017e-06
-4.771e-06
2.6977e-07
5.62457e-06
1.11956e-05
1.69267e-05
2.27511e-05
2.85687e-05
3.42707e-05
3.97674e-05
4.49914e-05
4.98844e-05
5.43874e-05
5.84408e-05
6.19904e-05
6.49939e-05
6.74172e-05
6.92275e-05
7.03902e-05
7.08688e-05
7.06334e-05
6.96666e-05
6.79548e-05
6.54819e-05
6.2233e-05
5.81997e-05
5.33772e-05
4.77626e-05
4.13568e-05
3.41613e-05
2.61735e-05
1.73921e-05
7.82298e-06
-2.52392e-06
-1.36395e-05
-2.55159e-05
-3.81457e-05
-5.15201e-05
-6.56267e-05
-8.04482e-05
-9.59675e-05
-0.000112172
-0.000129051
-0.00014659
-0.000164771
-0.000183576
-0.000202986
-0.000222986
-0.000243562
-0.000264696
-0.000286365
-0.000308549
-0.000331228
-0.000354385
-0.000378001
-0.000402059
-0.000426538
-0.000451416
-0.000476673
-0.00050229
-0.000528248
-0.000554527
-0.000581103
-0.000607955
-0.000635065
-0.000662412
-0.000689978
-0.00071774
-0.000745676
-0.000773767
-0.00080199
-0.000830326
-0.000858755
-0.000887257
-0.000915812
-0.000944399
-0.000972996
-0.00100158
-0.00103014
-0.00105864
-0.00108706
-0.0011154
-0.00114362
-0.0011717
-0.00119964
-0.00122739
-0.00125495
-0.00128229
-0.00130939
-0.00133623
-0.00136278
-0.00138904
-0.00141497
-0.00144057
-0.00146581
-0.00149066
-0.00151512
-0.00153915
-0.00156273
-0.00158585
-0.00160848
-0.00163062
-0.00165223
-0.0016733
-0.00169382
-0.00171376
-0.00173311
-0.00175185
-0.00176996
-0.00178743
-0.00180423
-0.00182035
-0.00183578
-0.0018505
-0.00186451
-0.00187779
-0.00189032
-0.00190209
-0.00191311
-0.00192335
-0.00193282
-0.00194149
-0.00194938
-0.00195646
-0.00196275
-0.00196825
-0.00197295
-0.00197686
-0.00198
-0.00198237
-0.00198398
-0.00198485
-0.00198499
-0.00198443
-0.00198319
-0.00198129
-0.00197878
-0.00197568
-0.00197204
-0.00196791
-0.00196334
-0.00195839
-0.00195311
-0.00194757
-0.00194185
-0.00193603
-0.00193017
-0.00192438
-0.00191876
-0.0019134
-0.0019084
-0.00190383
-0.0018998
-0.00189643
-0.00189374
-0.00189169
-2.98322e-05
-2.66349e-05
-2.31079e-05
-1.92469e-05
-1.49464e-05
-1.02164e-05
-5.10643e-06
2.77645e-07
5.82104e-06
1.14401e-05
1.7076e-05
2.26629e-05
2.81159e-05
3.33451e-05
3.82793e-05
4.28686e-05
4.70678e-05
5.08248e-05
5.40859e-05
5.68099e-05
5.89643e-05
6.05166e-05
6.14341e-05
6.16851e-05
6.12413e-05
6.00827e-05
5.81956e-05
5.55664e-05
5.21818e-05
4.80328e-05
4.31149e-05
3.74247e-05
3.09608e-05
2.37239e-05
1.57127e-05
6.92672e-06
-2.62828e-06
-1.29428e-05
-2.40096e-05
-3.58233e-05
-4.83764e-05
-6.16583e-05
-7.5656e-05
-9.03541e-05
-0.000105737
-0.000121795
-0.000138515
-0.000155883
-0.00017388
-0.000192489
-0.000211695
-0.000231484
-0.00025184
-0.000272743
-0.000294171
-0.000316106
-0.000338529
-0.000361424
-0.000384773
-0.000408556
-0.000432754
-0.000457345
-0.000482311
-0.000507632
-0.00053329
-0.000559263
-0.00058553
-0.00061207
-0.000638864
-0.000665892
-0.000693136
-0.000720575
-0.000748186
-0.000775948
-0.000803841
-0.000831847
-0.000859945
-0.000888115
-0.000916336
-0.000944589
-0.000972852
-0.0010011
-0.00102932
-0.00105749
-0.00108559
-0.00111359
-0.00114148
-0.00116924
-0.00119684
-0.00122428
-0.00125151
-0.00127853
-0.00130531
-0.00133183
-0.00135808
-0.00138403
-0.00140966
-0.00143496
-0.0014599
-0.00148447
-0.00150864
-0.0015324
-0.00155571
-0.00157856
-0.00160094
-0.00162282
-0.00164419
-0.00166503
-0.00168532
-0.00170505
-0.00172419
-0.00174274
-0.00176066
-0.00177795
-0.00179459
-0.00181057
-0.00182586
-0.00184046
-0.00185436
-0.00186754
-0.00187999
-0.00189171
-0.00190267
-0.00191289
-0.00192234
-0.00193102
-0.00193892
-0.00194604
-0.00195239
-0.00195796
-0.00196276
-0.00196679
-0.00197006
-0.00197259
-0.00197438
-0.00197544
-0.00197579
-0.00197546
-0.00197446
-0.00197282
-0.00197058
-0.00196777
-0.00196443
-0.00196059
-0.00195632
-0.00195166
-0.00194667
-0.00194141
-0.00193594
-0.00193034
-0.00192467
-0.00191901
-0.00191345
-0.00190807
-0.00190295
-0.00189818
-0.00189382
-0.00188997
-0.00188655
-0.00188344
-3.86788e-05
-3.44821e-05
-3.02195e-05
-2.57677e-05
-2.0993e-05
-1.59603e-05
-1.0694e-05
-5.2324e-06
3.4237e-07
5.93686e-06
1.14776e-05
1.69077e-05
2.2167e-05
2.71853e-05
3.18963e-05
3.62476e-05
4.01957e-05
4.36983e-05
4.67112e-05
4.91967e-05
5.11202e-05
5.2446e-05
5.31431e-05
5.31872e-05
5.25546e-05
5.12231e-05
4.91765e-05
4.64028e-05
4.28905e-05
3.86312e-05
3.36216e-05
2.78595e-05
2.13401e-05
1.40609e-05
6.02209e-06
-2.77345e-06
-1.23193e-05
-2.26078e-05
-3.36342e-05
-4.5395e-05
-5.78822e-05
-7.10827e-05
-8.49825e-05
-9.95691e-05
-0.000114831
-0.000130756
-0.000147333
-0.000164544
-0.000182373
-0.000200804
-0.000219824
-0.000239419
-0.000259571
-0.00028026
-0.000301467
-0.000323172
-0.000345359
-0.000368011
-0.000391111
-0.000414638
-0.000438574
-0.000462899
-0.000487594
-0.00051264
-0.000538016
-0.000563703
-0.000589681
-0.000615929
-0.000642428
-0.000669159
-0.000696102
-0.000723236
-0.000750541
-0.000777996
-0.00080558
-0.000833276
-0.000861064
-0.000888922
-0.000916831
-0.00094477
-0.000972719
-0.00100066
-0.00102856
-0.00105642
-0.0010842
-0.00111189
-0.00113947
-0.00116693
-0.00119423
-0.00122135
-0.00124829
-0.00127501
-0.00130149
-0.00132772
-0.00135367
-0.00137933
-0.00140468
-0.0014297
-0.00145438
-0.00147868
-0.00150259
-0.00152608
-0.00154914
-0.00157174
-0.00159388
-0.00161553
-0.00163668
-0.0016573
-0.00167739
-0.00169692
-0.00171588
-0.00173424
-0.001752
-0.00176913
-0.00178562
-0.00180146
-0.00181663
-0.00183112
-0.00184492
-0.00185802
-0.0018704
-0.00188207
-0.00189299
-0.00190318
-0.00191263
-0.00192131
-0.00192924
-0.0019364
-0.00194281
-0.00194845
-0.00195334
-0.00195748
-0.00196088
-0.00196355
-0.0019655
-0.00196674
-0.00196728
-0.00196715
-0.00196637
-0.00196496
-0.00196295
-0.00196039
-0.00195729
-0.00195371
-0.00194969
-0.00194527
-0.00194051
-0.00193546
-0.00193017
-0.00192471
-0.00191915
-0.00191354
-0.00190797
-0.00190249
-0.00189718
-0.0018921
-0.00188734
-0.00188295
-0.00187875
-0.00187453
-4.79686e-05
-4.26695e-05
-3.76645e-05
-3.26499e-05
-2.7372e-05
-2.19392e-05
-1.64107e-05
-1.08023e-05
-5.15214e-06
4.69388e-07
5.98468e-06
1.13289e-05
1.6454e-05
2.13135e-05
2.58545e-05
3.00222e-05
3.37703e-05
3.70638e-05
3.98688e-05
4.21505e-05
4.38733e-05
4.50017e-05
4.55055e-05
4.53645e-05
4.45599e-05
4.30706e-05
4.08793e-05
3.79738e-05
3.4344e-05
2.99815e-05
2.48838e-05
1.90503e-05
1.24756e-05
5.15402e-06
-2.91334e-06
-1.17211e-05
-2.12629e-05
-3.15332e-05
-4.25287e-05
-5.42458e-05
-6.6676e-05
-7.98051e-05
-9.36188e-05
-0.000108107
-0.000123261
-0.000139069
-0.000155515
-0.000172584
-0.00019026
-0.00020853
-0.000227382
-0.0002468
-0.000266765
-0.000287257
-0.000308259
-0.000329753
-0.000351723
-0.000374152
-0.000397021
-0.000420312
-0.000444005
-0.000468082
-0.000492526
-0.000517316
-0.000542432
-0.000567853
-0.00059356
-0.000619536
-0.00064576
-0.000672214
-0.000698876
-0.000725727
-0.000752746
-0.000779913
-0.000807209
-0.000834615
-0.000862111
-0.000889678
-0.000917295
-0.000944942
-0.000972598
-0.00100024
-0.00102786
-0.00105542
-0.00108291
-0.00111031
-0.0011376
-0.00116477
-0.00119178
-0.00121863
-0.00124528
-0.00127172
-0.00129792
-0.00132388
-0.00134956
-0.00137495
-0.00140004
-0.0014248
-0.00144922
-0.00147327
-0.00149694
-0.00152019
-0.00154302
-0.0015654
-0.00158731
-0.00160875
-0.00162969
-0.00165012
-0.00167002
-0.00168937
-0.00170815
-0.00172635
-0.00174396
-0.00176095
-0.00177731
-0.00179302
-0.00180809
-0.00182248
-0.00183619
-0.00184922
-0.00186154
-0.00187316
-0.00188406
-0.00189423
-0.00190366
-0.00191236
-0.00192031
-0.00192752
-0.00193398
-0.0019397
-0.00194467
-0.00194892
-0.00195244
-0.00195524
-0.00195733
-0.00195873
-0.00195944
-0.00195949
-0.0019589
-0.00195769
-0.00195589
-0.00195353
-0.00195065
-0.00194728
-0.00194345
-0.00193922
-0.00193463
-0.00192973
-0.00192457
-0.00191919
-0.00191366
-0.00190804
-0.00190238
-0.00189674
-0.00189118
-0.00188575
-0.00188051
-0.00187553
-0.00187052
-0.00186517
-5.75863e-05
-5.1107e-05
-4.52839e-05
-3.96935e-05
-3.3922e-05
-2.80591e-05
-2.21963e-05
-1.63647e-05
-1.05852e-05
-4.89772e-06
6.36532e-07
5.95343e-06
1.10065e-05
1.57605e-05
2.01752e-05
2.42016e-05
2.77954e-05
3.09252e-05
3.35612e-05
3.56696e-05
3.72176e-05
3.81742e-05
3.85114e-05
3.82079e-05
3.72475e-05
3.56133e-05
3.32889e-05
3.02625e-05
2.65252e-05
2.20689e-05
1.68891e-05
1.09849e-05
4.35261e-06
-3.01242e-06
-1.11086e-05
-1.993e-05
-2.94722e-05
-3.97322e-05
-5.07065e-05
-6.23889e-05
-7.47699e-05
-8.78366e-05
-0.000101576
-0.00011598
-0.00013104
-0.000146743
-0.000163072
-0.000180013
-0.000197552
-0.000215678
-0.000234377
-0.000253634
-0.000273428
-0.000293741
-0.000314556
-0.000335857
-0.000357628
-0.000379852
-0.000402509
-0.000425582
-0.000449051
-0.000472901
-0.000497112
-0.000521664
-0.000546538
-0.000571713
-0.000597172
-0.000622895
-0.000648864
-0.00067506
-0.000701461
-0.000728049
-0.000754801
-0.000781701
-0.000808728
-0.000835864
-0.00086309
-0.000890385
-0.00091773
-0.000945105
-0.000972488
-0.000999859
-0.0010272
-0.00105449
-0.00108171
-0.00110884
-0.00113586
-0.00116276
-0.00118951
-0.00121609
-0.00124248
-0.00126865
-0.0012946
-0.0013203
-0.00134574
-0.00137088
-0.00139573
-0.00142025
-0.00144444
-0.00146826
-0.00149169
-0.00151473
-0.00153734
-0.00155951
-0.00158123
-0.00160247
-0.00162322
-0.00164347
-0.00166319
-0.00168238
-0.00170101
-0.00171906
-0.00173653
-0.00175339
-0.00176963
-0.00178524
-0.00180021
-0.00181452
-0.00182815
-0.00184112
-0.00185339
-0.00186497
-0.00187584
-0.001886
-0.00189544
-0.00190415
-0.00191214
-0.00191938
-0.0019259
-0.00193168
-0.00193674
-0.00194108
-0.00194471
-0.00194763
-0.00194986
-0.0019514
-0.00195227
-0.00195248
-0.00195205
-0.00195101
-0.00194939
-0.0019472
-0.0019445
-0.00194129
-0.00193762
-0.00193353
-0.00192906
-0.00192426
-0.00191916
-0.00191382
-0.00190828
-0.00190258
-0.00189678
-0.00189093
-0.00188506
-0.00187922
-0.00187347
-0.00186788
-0.00186203
-0.00185556
-6.73347e-05
-5.96931e-05
-5.29932e-05
-4.67722e-05
-4.04928e-05
-3.41994e-05
-2.79759e-05
-2.18666e-05
-1.59008e-05
-1.01058e-05
-4.51732e-06
8.17494e-07
5.85329e-06
1.05525e-05
1.48818e-05
1.88047e-05
2.22844e-05
2.52896e-05
2.77899e-05
2.97528e-05
3.11498e-05
3.19574e-05
3.21508e-05
3.17071e-05
3.06093e-05
2.88438e-05
2.63968e-05
2.32578e-05
1.94203e-05
1.48775e-05
9.62211e-06
3.65003e-06
-3.04054e-06
-1.04505e-05
-1.85769e-05
-2.74149e-05
-3.69624e-05
-4.72188e-05
-5.81799e-05
-6.98361e-05
-8.21761e-05
-9.51894e-05
-0.000108867
-0.000123199
-0.000138177
-0.000153787
-0.000170013
-0.00018684
-0.000204258
-0.000222256
-0.000240819
-0.00025993
-0.000279569
-0.00029972
-0.000320366
-0.000341492
-0.000363081
-0.000385117
-0.00040758
-0.000430453
-0.000453718
-0.000477359
-0.000501356
-0.000525689
-0.000550339
-0.000575288
-0.000600517
-0.000626008
-0.000651742
-0.000677699
-0.000703859
-0.000730202
-0.000756709
-0.000783361
-0.000810139
-0.000837025
-0.000864
-0.000891043
-0.000918136
-0.000945258
-0.000972388
-0.000999506
-0.00102659
-0.00105363
-0.0010806
-0.00110748
-0.00113425
-0.0011609
-0.00118741
-0.00121374
-0.00123989
-0.00126582
-0.00129153
-0.001317
-0.0013422
-0.00136712
-0.00139174
-0.00141605
-0.00144001
-0.00146362
-0.00148685
-0.00150968
-0.0015321
-0.00155408
-0.00157561
-0.00159668
-0.00161726
-0.00163734
-0.00165691
-0.00167595
-0.00169444
-0.00171236
-0.0017297
-0.00174645
-0.00176259
-0.0017781
-0.00179299
-0.00180722
-0.0018208
-0.00183371
-0.00184594
-0.00185749
-0.00186835
-0.0018785
-0.00188794
-0.00189667
-0.00190469
-0.00191198
-0.00191855
-0.0019244
-0.00192953
-0.00193396
-0.00193769
-0.00194072
-0.00194307
-0.00194474
-0.00194574
-0.00194609
-0.00194581
-0.00194492
-0.00194344
-0.00194141
-0.00193884
-0.00193576
-0.00193222
-0.00192823
-0.00192384
-0.00191908
-0.001914
-0.00190864
-0.00190303
-0.00189722
-0.00189123
-0.00188512
-0.00187891
-0.00187264
-0.00186636
-0.00186012
-0.00185343
-0.00184585
-7.6994e-05
-6.82682e-05
-6.07024e-05
-5.38093e-05
-4.69841e-05
-4.0248e-05
-3.36574e-05
-2.72462e-05
-2.10516e-05
-1.51032e-05
-9.421e-06
-4.03151e-06
1.02673e-06
5.71315e-06
9.99712e-06
1.38535e-05
1.72531e-05
2.01645e-05
2.25571e-05
2.44014e-05
2.56723e-05
2.6351e-05
2.64183e-05
2.58521e-05
2.46345e-05
2.27528e-05
2.0196e-05
1.69542e-05
1.30224e-05
8.39641e-06
3.06821e-06
-2.96875e-06
-9.71555e-06
-1.717e-05
-2.53286e-05
-3.41881e-05
-4.37474e-05
-5.40065e-05
-6.49602e-05
-7.65971e-05
-8.89052e-05
-0.000101876
-0.000115502
-0.000129775
-0.000144683
-0.000160212
-0.000176347
-0.000193076
-0.000210389
-0.000228274
-0.000246715
-0.000265694
-0.000285194
-0.000305199
-0.000325694
-0.000346663
-0.000368088
-0.000389953
-0.00041224
-0.000434931
-0.00045801
-0.000481461
-0.000505263
-0.000529395
-0.000553841
-0.000578582
-0.000603601
-0.000628878
-0.000654396
-0.000680134
-0.000706072
-0.00073219
-0.00075847
-0.000784894
-0.000811443
-0.000838099
-0.000864842
-0.000891654
-0.000918514
-0.000945403
-0.000972299
-0.000999182
-0.00102604
-0.00105284
-0.00107958
-0.00110623
-0.00113277
-0.00115919
-0.00118547
-0.00121158
-0.0012375
-0.00126322
-0.00128871
-0.00131396
-0.00133895
-0.00136366
-0.00138808
-0.00141218
-0.00143595
-0.00145937
-0.00148241
-0.00150505
-0.00152729
-0.0015491
-0.00157047
-0.00159137
-0.0016118
-0.00163174
-0.00165116
-0.00167007
-0.00168843
-0.00170624
-0.00172347
-0.00174012
-0.00175617
-0.0017716
-0.00178641
-0.00180058
-0.00181411
-0.00182698
-0.00183918
-0.0018507
-0.00186155
-0.0018717
-0.00188116
-0.00188991
-0.00189795
-0.00190529
-0.00191191
-0.00191783
-0.00192304
-0.00192755
-0.00193137
-0.00193451
-0.00193696
-0.00193874
-0.00193986
-0.00194034
-0.00194019
-0.00193942
-0.00193807
-0.00193615
-0.00193368
-0.00193071
-0.00192725
-0.00192333
-0.00191898
-0.00191424
-0.00190914
-0.00190371
-0.00189799
-0.00189201
-0.00188581
-0.00187941
-0.00187283
-0.0018661
-0.00185926
-0.00185238
-0.00184486
-0.00183619
-8.64087e-05
-7.66645e-05
-6.82861e-05
-6.07258e-05
-5.33273e-05
-4.61221e-05
-3.91535e-05
-3.24324e-05
-2.59848e-05
-1.98418e-05
-1.40236e-05
-8.54685e-06
-3.43764e-06
1.26979e-06
5.54655e-06
9.37084e-06
1.27178e-05
1.55587e-05
1.78669e-05
1.96176e-05
2.07877e-05
2.13589e-05
2.13156e-05
2.06402e-05
1.93156e-05
1.73305e-05
1.46762e-05
1.13434e-05
7.32545e-06
2.6188e-06
-2.7822e-06
-8.88296e-06
-1.56838e-05
-2.31815e-05
-3.13741e-05
-4.02603e-05
-4.98388e-05
-6.01069e-05
-7.1058e-05
-8.26814e-05
-9.49666e-05
-0.000107906
-0.000121494
-0.000135719
-0.000150567
-0.000166026
-0.000182083
-0.000198729
-0.000215952
-0.000233739
-0.000252073
-0.000270936
-0.000290313
-0.000310188
-0.000330547
-0.000351376
-0.000372654
-0.000394366
-0.000416493
-0.000439021
-0.000461933
-0.000485211
-0.000508835
-0.000532787
-0.000557047
-0.0005816
-0.000606426
-0.00063151
-0.00065683
-0.000682367
-0.000708101
-0.000734014
-0.000760088
-0.000786303
-0.000812642
-0.000839086
-0.000865618
-0.000892217
-0.000918864
-0.000945538
-0.000972219
-0.000998888
-0.00102553
-0.00105212
-0.00107864
-0.00110508
-0.00113142
-0.00115763
-0.0011837
-0.0012096
-0.00123532
-0.00126083
-0.00128612
-0.00131118
-0.00133597
-0.0013605
-0.00138473
-0.00140865
-0.00143224
-0.00145548
-0.00147835
-0.00150083
-0.00152291
-0.00154456
-0.00156578
-0.00158654
-0.00160683
-0.00162664
-0.00164594
-0.00166473
-0.00168298
-0.00170069
-0.00171783
-0.00173439
-0.00175036
-0.00176572
-0.00178047
-0.00179459
-0.00180808
-0.00182091
-0.00183309
-0.00184461
-0.00185545
-0.00186561
-0.00187508
-0.00188385
-0.00189193
-0.00189931
-0.00190598
-0.00191196
-0.00191725
-0.00192184
-0.00192575
-0.00192897
-0.00193152
-0.00193341
-0.00193463
-0.00193522
-0.00193517
-0.00193451
-0.00193325
-0.00193143
-0.00192905
-0.00192615
-0.00192274
-0.00191885
-0.00191452
-0.00190976
-0.0019046
-0.00189907
-0.00189321
-0.00188704
-0.00188058
-0.00187387
-0.0018669
-0.00185969
-0.0018523
-0.00184477
-0.00183644
-0.00182672
-9.55029e-05
-8.47652e-05
-7.56164e-05
-6.74203e-05
-5.94505e-05
-5.17578e-05
-4.43935e-05
-3.73513e-05
-3.06359e-05
-2.4271e-05
-1.82827e-05
-1.26886e-05
-7.50275e-06
-2.74629e-06
1.55459e-06
5.37605e-06
8.69462e-06
1.14863e-05
1.37298e-05
1.54068e-05
1.64971e-05
1.69813e-05
1.68447e-05
1.60733e-05
1.4653e-05
1.25744e-05
9.83169e-06
6.41645e-06
2.31985e-06
-2.46322e-06
-7.93563e-06
-1.40993e-05
-2.09532e-05
-2.84949e-05
-3.67243e-05
-4.56421e-05
-5.52459e-05
-6.55289e-05
-7.64829e-05
-8.80995e-05
-0.000100371
-0.000113291
-0.00012685
-0.000141036
-0.000155836
-0.000171238
-0.000187232
-0.000203809
-0.000220955
-0.000238657
-0.000256898
-0.000275661
-0.00029493
-0.000314692
-0.000334933
-0.000355636
-0.000376784
-0.000398359
-0.000420346
-0.000442729
-0.000465492
-0.000488614
-0.000512079
-0.000535867
-0.000559961
-0.000584343
-0.000608997
-0.000633905
-0.000659046
-0.000684401
-0.00070995
-0.000735677
-0.000761563
-0.000787589
-0.000813737
-0.000839989
-0.000866328
-0.000892733
-0.000919186
-0.000945665
-0.00097215
-0.000998624
-0.00102507
-0.00105146
-0.0010778
-0.00110404
-0.00113019
-0.00115621
-0.00118209
-0.00120781
-0.00123334
-0.00125867
-0.00128378
-0.00130865
-0.00133328
-0.00135763
-0.0013817
-0.00140545
-0.00142888
-0.00145196
-0.00147468
-0.00149701
-0.00151895
-0.00154046
-0.00156155
-0.00158218
-0.00160235
-0.00162205
-0.00164124
-0.00165993
-0.00167808
-0.0016957
-0.00171276
-0.00172925
-0.00174515
-0.00176046
-0.00177516
-0.00178924
-0.00180269
-0.00181551
-0.00182767
-0.00183918
-0.00185003
-0.0018602
-0.00186969
-0.00187849
-0.0018866
-0.00189403
-0.00190075
-0.00190679
-0.00191215
-0.00191682
-0.0019208
-0.00192411
-0.00192676
-0.00192873
-0.00193005
-0.00193072
-0.00193076
-0.00193018
-0.00192901
-0.00192726
-0.00192495
-0.00192209
-0.00191871
-0.00191483
-0.00191048
-0.00190567
-0.00190043
-0.00189479
-0.00188875
-0.00188236
-0.00187562
-0.00186857
-0.00186119
-0.00185351
-0.00184556
-0.0018374