/*--------------------------------*- C++ -*----------------------------------*\
  =========                 |
  \\      /  F ield         | OpenFOAM: The Open Source CFD Toolbox
   \\    /   O peration     | Website:  https://openfoam.org
    \\  /    A nd           | Version:  7
     \\/     M anipulation  |
\*---------------------------------------------------------------------------*/
FoamFile
{
    version     2.0;
    format      ascii;
    class       volVectorField;
    location    "0.4625";
    object      U;
}
// * * * * * * * * * * * * * * * * * * * * * * * * * * * * * * * * * * * * * //

dimensions      [0 1 -1 0 0 0 0];

internalField   nonuniform List<vector> 
51200
(
(-1.08173e-08 8.64476e-09 0)
(-5.13659e-08 2.53909e-08 0)
(-1.164e-07 3.04325e-08 0)
(-1.81652e-07 2.73991e-08 0)
(-2.29561e-07 2.02271e-08 0)
(-2.49188e-07 1.05733e-08 0)
(-2.3544e-07 -5.6263e-10 0)
(-1.87165e-07 -1.2293e-08 0)
(-1.04589e-07 -2.37649e-08 0)
(1.25307e-08 -3.46006e-08 0)
(1.64171e-07 -4.49158e-08 0)
(3.49417e-07 -5.48674e-08 0)
(5.66517e-07 -6.43781e-08 0)
(8.13487e-07 -7.32981e-08 0)
(1.08871e-06 -8.15724e-08 0)
(1.39073e-06 -8.92322e-08 0)
(1.71782e-06 -9.63374e-08 0)
(2.0681e-06 -1.02945e-07 0)
(2.43973e-06 -1.09028e-07 0)
(2.831e-06 -1.14534e-07 0)
(3.24031e-06 -1.19491e-07 0)
(3.66611e-06 -1.23995e-07 0)
(4.10684e-06 -1.28075e-07 0)
(4.56089e-06 -1.31692e-07 0)
(5.02676e-06 -1.3484e-07 0)
(5.50308e-06 -1.37571e-07 0)
(5.98853e-06 -1.39936e-07 0)
(6.48178e-06 -1.41944e-07 0)
(6.98151e-06 -1.43587e-07 0)
(7.48646e-06 -1.44873e-07 0)
(7.9955e-06 -1.45829e-07 0)
(8.50755e-06 -1.46479e-07 0)
(9.02154e-06 -1.46831e-07 0)
(9.53646e-06 -1.46893e-07 0)
(1.00513e-05 -1.4668e-07 0)
(1.05652e-05 -1.46204e-07 0)
(1.10771e-05 -1.45481e-07 0)
(1.15863e-05 -1.44529e-07 0)
(1.20921e-05 -1.43365e-07 0)
(1.25935e-05 -1.41993e-07 0)
(1.309e-05 -1.40416e-07 0)
(1.35807e-05 -1.38651e-07 0)
(1.40652e-05 -1.36721e-07 0)
(1.45427e-05 -1.34635e-07 0)
(1.50126e-05 -1.32386e-07 0)
(1.54746e-05 -1.29973e-07 0)
(1.59279e-05 -1.27403e-07 0)
(1.63721e-05 -1.247e-07 0)
(1.68067e-05 -1.21889e-07 0)
(1.72314e-05 -1.18975e-07 0)
(1.76456e-05 -1.15945e-07 0)
(1.80491e-05 -1.1279e-07 0)
(1.84414e-05 -1.09528e-07 0)
(1.88222e-05 -1.06192e-07 0)
(1.91912e-05 -1.02793e-07 0)
(1.95481e-05 -9.93209e-08 0)
(1.98926e-05 -9.57591e-08 0)
(2.02245e-05 -9.21126e-08 0)
(2.05435e-05 -8.84034e-08 0)
(2.08494e-05 -8.46488e-08 0)
(2.11419e-05 -8.08483e-08 0)
(2.14209e-05 -7.69937e-08 0)
(2.16862e-05 -7.30831e-08 0)
(2.19377e-05 -6.91226e-08 0)
(2.21751e-05 -6.51214e-08 0)
(2.23984e-05 -6.10886e-08 0)
(2.26074e-05 -5.70309e-08 0)
(2.28019e-05 -5.29483e-08 0)
(2.2982e-05 -4.88349e-08 0)
(2.31475e-05 -4.46879e-08 0)
(2.32983e-05 -4.05143e-08 0)
(2.34343e-05 -3.63247e-08 0)
(2.35554e-05 -3.21225e-08 0)
(2.36616e-05 -2.7905e-08 0)
(2.37529e-05 -2.36705e-08 0)
(2.38291e-05 -1.94216e-08 0)
(2.38903e-05 -1.51624e-08 0)
(2.39365e-05 -1.08967e-08 0)
(2.39675e-05 -6.62681e-09 0)
(2.39834e-05 -2.35306e-09 0)
(2.39841e-05 1.92446e-09 0)
(2.39698e-05 6.20307e-09 0)
(2.39402e-05 1.04782e-08 0)
(2.38956e-05 1.47468e-08 0)
(2.38358e-05 1.90088e-08 0)
(2.37609e-05 2.32642e-08 0)
(2.3671e-05 2.75102e-08 0)
(2.35661e-05 3.17444e-08 0)
(2.34462e-05 3.59666e-08 0)
(2.33114e-05 4.01764e-08 0)
(2.31617e-05 4.43699e-08 0)
(2.29973e-05 4.85411e-08 0)
(2.28181e-05 5.26865e-08 0)
(2.26243e-05 5.6805e-08 0)
(2.24161e-05 6.08933e-08 0)
(2.21934e-05 6.49468e-08 0)
(2.19566e-05 6.89619e-08 0)
(2.17056e-05 7.29386e-08 0)
(2.14406e-05 7.6876e-08 0)
(2.11619e-05 8.07698e-08 0)
(2.08695e-05 8.46144e-08 0)
(2.05637e-05 8.84068e-08 0)
(2.02447e-05 9.21438e-08 0)
(1.99127e-05 9.58178e-08 0)
(1.95679e-05 9.9418e-08 0)
(1.92106e-05 1.02939e-07 0)
(1.88411e-05 1.0638e-07 0)
(1.84597e-05 1.09738e-07 0)
(1.80667e-05 1.13005e-07 0)
(1.76624e-05 1.1617e-07 0)
(1.72473e-05 1.19227e-07 0)
(1.68217e-05 1.22173e-07 0)
(1.63861e-05 1.25005e-07 0)
(1.59408e-05 1.27712e-07 0)
(1.54864e-05 1.30286e-07 0)
(1.50234e-05 1.32718e-07 0)
(1.45522e-05 1.34999e-07 0)
(1.40735e-05 1.37118e-07 0)
(1.35877e-05 1.39067e-07 0)
(1.30956e-05 1.40837e-07 0)
(1.25978e-05 1.42416e-07 0)
(1.20949e-05 1.43793e-07 0)
(1.15878e-05 1.44956e-07 0)
(1.10772e-05 1.45895e-07 0)
(1.05639e-05 1.46597e-07 0)
(1.00488e-05 1.47053e-07 0)
(9.53273e-06 1.47255e-07 0)
(9.01665e-06 1.47186e-07 0)
(8.50155e-06 1.46824e-07 0)
(7.98846e-06 1.4615e-07 0)
(7.47843e-06 1.45156e-07 0)
(6.97255e-06 1.43837e-07 0)
(6.47203e-06 1.42184e-07 0)
(5.97808e-06 1.40177e-07 0)
(5.492e-06 1.37789e-07 0)
(5.01513e-06 1.3499e-07 0)
(4.54881e-06 1.31768e-07 0)
(4.09443e-06 1.28127e-07 0)
(3.65349e-06 1.24051e-07 0)
(3.22757e-06 1.195e-07 0)
(2.81825e-06 1.14447e-07 0)
(2.4271e-06 1.0889e-07 0)
(2.05577e-06 1.02825e-07 0)
(1.70599e-06 9.6232e-08 0)
(1.37951e-06 8.90878e-08 0)
(1.07808e-06 8.1373e-08 0)
(8.03441e-07 7.30738e-08 0)
(5.57314e-07 6.41934e-08 0)
(3.41358e-07 5.47467e-08 0)
(1.57174e-07 4.47513e-08 0)
(6.20406e-09 3.42318e-08 0)
(-1.10387e-07 2.32517e-08 0)
(-1.91886e-07 1.19539e-08 0)
(-2.38217e-07 6.07341e-10 0)
(-2.50213e-07 -1.03846e-08 0)
(-2.3014e-07 -2.0374e-08 0)
(-1.82598e-07 -2.82101e-08 0)
(-1.16395e-07 -3.16183e-08 0)
(-4.93312e-08 -2.66577e-08 0)
(-9.38987e-09 -9.73606e-09 0)
(-2.7233e-08 4.89244e-08 0)
(-1.11268e-07 1.08757e-07 0)
(-2.25198e-07 1.19946e-07 0)
(-3.22486e-07 9.66078e-08 0)
(-3.72446e-07 5.30113e-08 0)
(-3.55132e-07 -2.73067e-09 0)
(-2.55923e-07 -6.64736e-08 0)
(-6.70229e-08 -1.3474e-07 0)
(2.14159e-07 -2.0398e-07 0)
(5.87364e-07 -2.71895e-07 0)
(1.05182e-06 -3.3763e-07 0)
(1.60611e-06 -4.01075e-07 0)
(2.24741e-06 -4.62068e-07 0)
(2.97175e-06 -5.20058e-07 0)
(3.77468e-06 -5.74549e-07 0)
(4.65175e-06 -6.25466e-07 0)
(5.59855e-06 -6.72998e-07 0)
(6.61063e-06 -7.17236e-07 0)
(7.68332e-06 -7.58132e-07 0)
(8.81191e-06 -7.95637e-07 0)
(9.99182e-06 -8.2984e-07 0)
(1.12187e-05 -8.60898e-07 0)
(1.24882e-05 -8.8895e-07 0)
(1.37961e-05 -9.14057e-07 0)
(1.51382e-05 -9.36265e-07 0)
(1.65105e-05 -9.55665e-07 0)
(1.79091e-05 -9.72392e-07 0)
(1.93303e-05 -9.86587e-07 0)
(2.07707e-05 -9.9836e-07 0)
(2.22267e-05 -1.00778e-06 0)
(2.36948e-05 -1.01491e-06 0)
(2.5172e-05 -1.01987e-06 0)
(2.66552e-05 -1.02276e-06 0)
(2.81416e-05 -1.02368e-06 0)
(2.96282e-05 -1.02272e-06 0)
(3.11125e-05 -1.01996e-06 0)
(3.25917e-05 -1.01548e-06 0)
(3.40634e-05 -1.00936e-06 0)
(3.55254e-05 -1.00168e-06 0)
(3.69755e-05 -9.92519e-07 0)
(3.84116e-05 -9.81948e-07 0)
(3.98316e-05 -9.70052e-07 0)
(4.12337e-05 -9.56921e-07 0)
(4.2616e-05 -9.42604e-07 0)
(4.3977e-05 -9.27138e-07 0)
(4.53149e-05 -9.1058e-07 0)
(4.66283e-05 -8.93001e-07 0)
(4.79155e-05 -8.74475e-07 0)
(4.91754e-05 -8.55074e-07 0)
(5.04065e-05 -8.34848e-07 0)
(5.16078e-05 -8.13815e-07 0)
(5.2778e-05 -7.91998e-07 0)
(5.39161e-05 -7.69466e-07 0)
(5.50211e-05 -7.46298e-07 0)
(5.60919e-05 -7.22543e-07 0)
(5.71279e-05 -6.98215e-07 0)
(5.8128e-05 -6.73326e-07 0)
(5.90917e-05 -6.47914e-07 0)
(6.00181e-05 -6.22036e-07 0)
(6.09065e-05 -5.95745e-07 0)
(6.17563e-05 -5.69068e-07 0)
(6.25669e-05 -5.42014e-07 0)
(6.33379e-05 -5.14594e-07 0)
(6.40687e-05 -4.86837e-07 0)
(6.47589e-05 -4.58789e-07 0)
(6.54079e-05 -4.30481e-07 0)
(6.60154e-05 -4.01931e-07 0)
(6.65811e-05 -3.73153e-07 0)
(6.71048e-05 -3.44168e-07 0)
(6.7586e-05 -3.1499e-07 0)
(6.80245e-05 -2.85637e-07 0)
(6.842e-05 -2.56131e-07 0)
(6.87724e-05 -2.26498e-07 0)
(6.90814e-05 -1.96753e-07 0)
(6.93469e-05 -1.66906e-07 0)
(6.95688e-05 -1.36966e-07 0)
(6.97468e-05 -1.06951e-07 0)
(6.98811e-05 -7.6883e-08 0)
(6.99713e-05 -4.67777e-08 0)
(7.00176e-05 -1.66382e-08 0)
(7.00198e-05 1.35273e-08 0)
(6.9978e-05 4.36951e-08 0)
(6.98922e-05 7.38381e-08 0)
(6.97623e-05 1.03943e-07 0)
(6.95885e-05 1.34008e-07 0)
(6.93708e-05 1.64022e-07 0)
(6.91093e-05 1.93965e-07 0)
(6.88042e-05 2.23815e-07 0)
(6.84555e-05 2.53563e-07 0)
(6.80635e-05 2.83201e-07 0)
(6.76284e-05 3.12706e-07 0)
(6.71503e-05 3.42049e-07 0)
(6.66295e-05 3.71205e-07 0)
(6.60664e-05 4.0016e-07 0)
(6.54611e-05 4.28897e-07 0)
(6.48141e-05 4.5739e-07 0)
(6.41257e-05 4.85616e-07 0)
(6.33965e-05 5.13554e-07 0)
(6.26267e-05 5.41185e-07 0)
(6.1817e-05 5.68478e-07 0)
(6.09678e-05 5.954e-07 0)
(6.00797e-05 6.21919e-07 0)
(5.91534e-05 6.4801e-07 0)
(5.81895e-05 6.73634e-07 0)
(5.71887e-05 6.98741e-07 0)
(5.61518e-05 7.2329e-07 0)
(5.50797e-05 7.47255e-07 0)
(5.39732e-05 7.70612e-07 0)
(5.28333e-05 7.93314e-07 0)
(5.16609e-05 8.15298e-07 0)
(5.04574e-05 8.36513e-07 0)
(4.92236e-05 8.56921e-07 0)
(4.7961e-05 8.76481e-07 0)
(4.66709e-05 8.95142e-07 0)
(4.53545e-05 9.12839e-07 0)
(4.40134e-05 9.2951e-07 0)
(4.26491e-05 9.4509e-07 0)
(4.12632e-05 9.59516e-07 0)
(3.98574e-05 9.72729e-07 0)
(3.84336e-05 9.84667e-07 0)
(3.69936e-05 9.95258e-07 0)
(3.55396e-05 1.00442e-06 0)
(3.40736e-05 1.01209e-06 0)
(3.2598e-05 1.01819e-06 0)
(3.1115e-05 1.02264e-06 0)
(2.96271e-05 1.02535e-06 0)
(2.8137e-05 1.02624e-06 0)
(2.66472e-05 1.02524e-06 0)
(2.51607e-05 1.02225e-06 0)
(2.36804e-05 1.01715e-06 0)
(2.22093e-05 1.00983e-06 0)
(2.07507e-05 1.00024e-06 0)
(1.93078e-05 9.88299e-07 0)
(1.78843e-05 9.73911e-07 0)
(1.64836e-05 9.56972e-07 0)
(1.51095e-05 9.37345e-07 0)
(1.3766e-05 9.14905e-07 0)
(1.24571e-05 8.89588e-07 0)
(1.11869e-05 8.61341e-07 0)
(9.95948e-06 8.3004e-07 0)
(8.77943e-06 7.95546e-07 0)
(7.65116e-06 7.57782e-07 0)
(6.57915e-06 7.16712e-07 0)
(5.56799e-06 6.723e-07 0)
(4.62228e-06 6.24504e-07 0)
(3.74665e-06 5.73297e-07 0)
(2.94565e-06 5.18691e-07 0)
(2.22364e-06 4.60778e-07 0)
(1.5847e-06 3.99761e-07 0)
(1.03247e-06 3.35946e-07 0)
(5.70034e-07 2.69767e-07 0)
(1.99622e-07 2.01865e-07 0)
(-7.7844e-08 1.33285e-07 0)
(-2.63417e-07 6.57075e-08 0)
(-3.60902e-07 1.70533e-09 0)
(-3.77801e-07 -5.49968e-08 0)
(-3.26349e-07 -9.88964e-08 0)
(-2.25759e-07 -1.21447e-07 0)
(-1.08619e-07 -1.09869e-07 0)
(-2.58956e-08 -5.04677e-08 0)
(-3.14023e-08 1.1579e-07 0)
(-1.21851e-07 2.24888e-07 0)
(-2.32076e-07 2.31103e-07 0)
(-3.00578e-07 1.61698e-07 0)
(-2.89977e-07 4.1557e-08 0)
(-1.76123e-07 -1.0984e-07 0)
(5.86299e-08 -2.80121e-07 0)
(4.26919e-07 -4.61321e-07 0)
(9.34866e-07 -6.47617e-07 0)
(1.58397e-06 -8.33893e-07 0)
(2.37312e-06 -1.01635e-06 0)
(3.29984e-06 -1.19295e-06 0)
(4.36063e-06 -1.36264e-06 0)
(5.55055e-06 -1.5246e-06 0)
(6.8635e-06 -1.67805e-06 0)
(8.29281e-06 -1.82241e-06 0)
(9.83177e-06 -1.95743e-06 0)
(1.14736e-05 -2.08313e-06 0)
(1.32114e-05 -2.19963e-06 0)
(1.50381e-05 -2.30702e-06 0)
(1.69467e-05 -2.40535e-06 0)
(1.89301e-05 -2.49481e-06 0)
(2.09817e-05 -2.57564e-06 0)
(2.3095e-05 -2.64814e-06 0)
(2.52633e-05 -2.71254e-06 0)
(2.74803e-05 -2.76908e-06 0)
(2.97398e-05 -2.81798e-06 0)
(3.20361e-05 -2.85951e-06 0)
(3.43633e-05 -2.89401e-06 0)
(3.6716e-05 -2.92176e-06 0)
(3.90889e-05 -2.94303e-06 0)
(4.14767e-05 -2.95803e-06 0)
(4.38747e-05 -2.96703e-06 0)
(4.62781e-05 -2.97028e-06 0)
(4.86824e-05 -2.96808e-06 0)
(5.10832e-05 -2.96069e-06 0)
(5.34764e-05 -2.94833e-06 0)
(5.58581e-05 -2.93122e-06 0)
(5.82245e-05 -2.90954e-06 0)
(6.05721e-05 -2.88354e-06 0)
(6.28973e-05 -2.85344e-06 0)
(6.51971e-05 -2.81945e-06 0)
(6.74681e-05 -2.78178e-06 0)
(6.97077e-05 -2.74061e-06 0)
(7.19129e-05 -2.69609e-06 0)
(7.40812e-05 -2.64841e-06 0)
(7.621e-05 -2.59778e-06 0)
(7.82969e-05 -2.54436e-06 0)
(8.03396e-05 -2.48832e-06 0)
(8.23362e-05 -2.42978e-06 0)
(8.42846e-05 -2.36888e-06 0)
(8.6183e-05 -2.30577e-06 0)
(8.80295e-05 -2.24059e-06 0)
(8.98225e-05 -2.17347e-06 0)
(9.15604e-05 -2.10453e-06 0)
(9.32418e-05 -2.03387e-06 0)
(9.48654e-05 -1.9616e-06 0)
(9.64299e-05 -1.88782e-06 0)
(9.79341e-05 -1.81267e-06 0)
(9.93767e-05 -1.73623e-06 0)
(0.000100757 -1.65861e-06 0)
(0.000102074 -1.57987e-06 0)
(0.000103326 -1.50007e-06 0)
(0.000104513 -1.41932e-06 0)
(0.000105634 -1.33769e-06 0)
(0.000106689 -1.25526e-06 0)
(0.000107676 -1.17209e-06 0)
(0.000108595 -1.08823e-06 0)
(0.000109446 -1.00374e-06 0)
(0.000110229 -9.18682e-07 0)
(0.000110941 -8.33129e-07 0)
(0.000111584 -7.47125e-07 0)
(0.000112157 -6.60714e-07 0)
(0.000112659 -5.73949e-07 0)
(0.000113091 -4.8688e-07 0)
(0.000113452 -3.99555e-07 0)
(0.000113741 -3.12015e-07 0)
(0.00011396 -2.24306e-07 0)
(0.000114106 -1.36474e-07 0)
(0.000114182 -4.85564e-08 0)
(0.000114185 3.94176e-08 0)
(0.000114117 1.27405e-07 0)
(0.000113978 2.15348e-07 0)
(0.000113767 3.03191e-07 0)
(0.000113484 3.90898e-07 0)
(0.000113131 4.78439e-07 0)
(0.000112706 5.65772e-07 0)
(0.00011221 6.5284e-07 0)
(0.000111643 7.39589e-07 0)
(0.000111006 8.25975e-07 0)
(0.000110299 9.11952e-07 0)
(0.000109522 9.9746e-07 0)
(0.000108676 1.08243e-06 0)
(0.000107761 1.16679e-06 0)
(0.000106778 1.25049e-06 0)
(0.000105727 1.33348e-06 0)
(0.000104609 1.41568e-06 0)
(0.000103424 1.49701e-06 0)
(0.000102174 1.57741e-06 0)
(0.000100859 1.65679e-06 0)
(9.94801e-05 1.73507e-06 0)
(9.80382e-05 1.81215e-06 0)
(9.65343e-05 1.88792e-06 0)
(9.49696e-05 1.96231e-06 0)
(9.33453e-05 2.0352e-06 0)
(9.16625e-05 2.10646e-06 0)
(8.99228e-05 2.17599e-06 0)
(8.81275e-05 2.24368e-06 0)
(8.62783e-05 2.30942e-06 0)
(8.43767e-05 2.37308e-06 0)
(8.24248e-05 2.43449e-06 0)
(8.04242e-05 2.49352e-06 0)
(7.83771e-05 2.55002e-06 0)
(7.62857e-05 2.60386e-06 0)
(7.4152e-05 2.65486e-06 0)
(7.19787e-05 2.70286e-06 0)
(6.9768e-05 2.74767e-06 0)
(6.75228e-05 2.78911e-06 0)
(6.52459e-05 2.82698e-06 0)
(6.29401e-05 2.86111e-06 0)
(6.06087e-05 2.89131e-06 0)
(5.82549e-05 2.91735e-06 0)
(5.58822e-05 2.93903e-06 0)
(5.34942e-05 2.95613e-06 0)
(5.10949e-05 2.96843e-06 0)
(4.86881e-05 2.97569e-06 0)
(4.6278e-05 2.97765e-06 0)
(4.3869e-05 2.97409e-06 0)
(4.14657e-05 2.96478e-06 0)
(3.90726e-05 2.94945e-06 0)
(3.66949e-05 2.92781e-06 0)
(3.43377e-05 2.89959e-06 0)
(3.20063e-05 2.86453e-06 0)
(2.97062e-05 2.82238e-06 0)
(2.74432e-05 2.77291e-06 0)
(2.52233e-05 2.71585e-06 0)
(2.30526e-05 2.6509e-06 0)
(2.09374e-05 2.57775e-06 0)
(1.88843e-05 2.49619e-06 0)
(1.68999e-05 2.40606e-06 0)
(1.49909e-05 2.3071e-06 0)
(1.31643e-05 2.19909e-06 0)
(1.14272e-05 2.08189e-06 0)
(9.7864e-06 1.95544e-06 0)
(8.24901e-06 1.81974e-06 0)
(6.82188e-06 1.67489e-06 0)
(5.5117e-06 1.52111e-06 0)
(4.32485e-06 1.35876e-06 0)
(3.26715e-06 1.18851e-06 0)
(2.34365e-06 1.01139e-06 0)
(1.55827e-06 8.28915e-07 0)
(9.1352e-07 6.43219e-07 0)
(4.09913e-07 4.5733e-07 0)
(4.51885e-08 2.75661e-07 0)
(-1.86867e-07 1.04696e-07 0)
(-2.97642e-07 -4.62278e-08 0)
(-3.04595e-07 -1.64153e-07 0)
(-2.32847e-07 -2.31498e-07 0)
(-1.21593e-07 -2.25076e-07 0)
(-3.12174e-08 -1.17209e-07 0)
(-2.75927e-08 1.81367e-07 0)
(-9.75842e-08 3.22873e-07 0)
(-1.63014e-07 3.00774e-07 0)
(-1.59072e-07 1.58189e-07 0)
(-4.35363e-08 -6.93905e-08 0)
(2.09874e-07 -3.53547e-07 0)
(6.20275e-07 -6.72317e-07 0)
(1.2013e-06 -1.01092e-06 0)
(1.9615e-06 -1.35901e-06 0)
(2.90432e-06 -1.70867e-06 0)
(4.02914e-06 -2.05361e-06 0)
(5.33301e-06 -2.38921e-06 0)
(6.81152e-06 -2.71251e-06 0)
(8.45892e-06 -3.0217e-06 0)
(1.02681e-05 -3.31553e-06 0)
(1.2231e-05 -3.59295e-06 0)
(1.43391e-05 -3.85324e-06 0)
(1.65836e-05 -4.09609e-06 0)
(1.89557e-05 -4.32151e-06 0)
(2.14464e-05 -4.52964e-06 0)
(2.40466e-05 -4.72068e-06 0)
(2.67472e-05 -4.89484e-06 0)
(2.95393e-05 -5.05245e-06 0)
(3.24143e-05 -5.19395e-06 0)
(3.53634e-05 -5.31985e-06 0)
(3.83784e-05 -5.43062e-06 0)
(4.14512e-05 -5.5267e-06 0)
(4.45737e-05 -5.60852e-06 0)
(4.77383e-05 -5.67663e-06 0)
(5.09377e-05 -5.73158e-06 0)
(5.41647e-05 -5.77389e-06 0)
(5.74124e-05 -5.80402e-06 0)
(6.06743e-05 -5.82244e-06 0)
(6.3944e-05 -5.82963e-06 0)
(6.72153e-05 -5.8261e-06 0)
(7.04823e-05 -5.81234e-06 0)
(7.37394e-05 -5.78883e-06 0)
(7.69814e-05 -5.75598e-06 0)
(8.02031e-05 -5.7142e-06 0)
(8.33995e-05 -5.66391e-06 0)
(8.65661e-05 -5.60556e-06 0)
(8.96984e-05 -5.53956e-06 0)
(9.27921e-05 -5.46628e-06 0)
(9.58434e-05 -5.38606e-06 0)
(9.88484e-05 -5.29925e-06 0)
(0.000101803 -5.20621e-06 0)
(0.000104705 -5.10732e-06 0)
(0.00010755 -5.00292e-06 0)
(0.000110335 -4.89328e-06 0)
(0.000113057 -4.77868e-06 0)
(0.000115715 -4.65938e-06 0)
(0.000118304 -4.5357e-06 0)
(0.000120823 -4.40793e-06 0)
(0.000123269 -4.27632e-06 0)
(0.00012564 -4.14107e-06 0)
(0.000127935 -4.0024e-06 0)
(0.000130151 -3.86051e-06 0)
(0.000132286 -3.71566e-06 0)
(0.000134339 -3.56805e-06 0)
(0.000136308 -3.41788e-06 0)
(0.000138193 -3.2653e-06 0)
(0.000139991 -3.11047e-06 0)
(0.000141701 -2.95356e-06 0)
(0.000143322 -2.79473e-06 0)
(0.000144853 -2.63416e-06 0)
(0.000146294 -2.47197e-06 0)
(0.000147642 -2.30831e-06 0)
(0.000148898 -2.14326e-06 0)
(0.000150061 -1.97694e-06 0)
(0.000151129 -1.8095e-06 0)
(0.000152103 -1.64105e-06 0)
(0.000152981 -1.47171e-06 0)
(0.000153764 -1.30155e-06 0)
(0.000154451 -1.13067e-06 0)
(0.00015504 -9.59178e-07 0)
(0.000155533 -7.87166e-07 0)
(0.000155929 -6.14726e-07 0)
(0.000156228 -4.41943e-07 0)
(0.000156428 -2.68904e-07 0)
(0.000156531 -9.56927e-08 0)
(0.000156536 7.7608e-08 0)
(0.000156444 2.50917e-07 0)
(0.000156253 4.24146e-07 0)
(0.000155965 5.97198e-07 0)
(0.000155579 7.69981e-07 0)
(0.000155096 9.42415e-07 0)
(0.000154515 1.11441e-06 0)
(0.000153838 1.28589e-06 0)
(0.000153064 1.45673e-06 0)
(0.000152194 1.62683e-06 0)
(0.000151228 1.7961e-06 0)
(0.000150167 1.96441e-06 0)
(0.000149011 2.13165e-06 0)
(0.000147762 2.2977e-06 0)
(0.000146419 2.46242e-06 0)
(0.000144984 2.6257e-06 0)
(0.000143457 2.7874e-06 0)
(0.00014184 2.94737e-06 0)
(0.000140133 3.10545e-06 0)
(0.000138337 3.26149e-06 0)
(0.000136455 3.41532e-06 0)
(0.000134487 3.56676e-06 0)
(0.000132434 3.71561e-06 0)
(0.000130299 3.86167e-06 0)
(0.000128082 4.00474e-06 0)
(0.000125786 4.14462e-06 0)
(0.000123413 4.28106e-06 0)
(0.000120964 4.41383e-06 0)
(0.000118441 4.54269e-06 0)
(0.000115848 4.6674e-06 0)
(0.000113186 4.78768e-06 0)
(0.000110458 4.90323e-06 0)
(0.000107668 5.01378e-06 0)
(0.000104817 5.11902e-06 0)
(0.000101909 5.21864e-06 0)
(9.89468e-05 5.31232e-06 0)
(9.59346e-05 5.3997e-06 0)
(9.28757e-05 5.48044e-06 0)
(8.9774e-05 5.55417e-06 0)
(8.66336e-05 5.62051e-06 0)
(8.34586e-05 5.67907e-06 0)
(8.02537e-05 5.72946e-06 0)
(7.70236e-05 5.77126e-06 0)
(7.37732e-05 5.80405e-06 0)
(7.05076e-05 5.82741e-06 0)
(6.72324e-05 5.84088e-06 0)
(6.39532e-05 5.84399e-06 0)
(6.06759e-05 5.83626e-06 0)
(5.74065e-05 5.81724e-06 0)
(5.41517e-05 5.78646e-06 0)
(5.09179e-05 5.74341e-06 0)
(4.77121e-05 5.68761e-06 0)
(4.45415e-05 5.61852e-06 0)
(4.14137e-05 5.53564e-06 0)
(3.83362e-05 5.43848e-06 0)
(3.5317e-05 5.32661e-06 0)
(3.23642e-05 5.19954e-06 0)
(2.94863e-05 5.05676e-06 0)
(2.66919e-05 4.89782e-06 0)
(2.39897e-05 4.72237e-06 0)
(2.13887e-05 4.53009e-06 0)
(1.88978e-05 4.32068e-06 0)
(1.6526e-05 4.09396e-06 0)
(1.42826e-05 3.84984e-06 0)
(1.21763e-05 3.58842e-06 0)
(1.0216e-05 3.31003e-06 0)
(8.40995e-06 3.01527e-06 0)
(6.76601e-06 2.70509e-06 0)
(5.29126e-06 2.38091e-06 0)
(3.99168e-06 2.04486e-06 0)
(2.87174e-06 1.69996e-06 0)
(1.93392e-06 1.3505e-06 0)
(1.1782e-06 1.00233e-06 0)
(6.0125e-07 6.63486e-07 0)
(1.95377e-07 3.45094e-07 0)
(-5.28802e-08 6.25995e-08 0)
(-1.63752e-07 -1.62968e-07 0)
(-1.65488e-07 -3.04075e-07 0)
(-9.98482e-08 -3.2572e-07 0)
(-2.82497e-08 -1.82879e-07 0)
(-2.00554e-08 2.29568e-07 0)
(-5.32788e-08 3.73025e-07 0)
(-4.30724e-08 2.90477e-07 0)
(6.76563e-08 4.35143e-08 0)
(3.21447e-07 -3.22638e-07 0)
(7.46884e-07 -7.71242e-07 0)
(1.3633e-06 -1.27294e-06 0)
(2.18417e-06 -1.80545e-06 0)
(3.21847e-06 -2.35275e-06 0)
(4.47065e-06 -2.90324e-06 0)
(5.94102e-06 -3.44796e-06 0)
(7.62658e-06 -3.9799e-06 0)
(9.52215e-06 -4.49392e-06 0)
(1.16211e-05 -4.98664e-06 0)
(1.39154e-05 -5.45578e-06 0)
(1.63963e-05 -5.89972e-06 0)
(1.90538e-05 -6.31727e-06 0)
(2.18775e-05 -6.70769e-06 0)
(2.48571e-05 -7.07071e-06 0)
(2.79817e-05 -7.40638e-06 0)
(3.12406e-05 -7.71497e-06 0)
(3.46229e-05 -7.99677e-06 0)
(3.8118e-05 -8.25223e-06 0)
(4.17151e-05 -8.48191e-06 0)
(4.54039e-05 -8.6865e-06 0)
(4.91742e-05 -8.86673e-06 0)
(5.30162e-05 -9.02333e-06 0)
(5.692e-05 -9.15702e-06 0)
(6.08763e-05 -9.26856e-06 0)
(6.48759e-05 -9.35876e-06 0)
(6.89101e-05 -9.42843e-06 0)
(7.29705e-05 -9.47832e-06 0)
(7.70487e-05 -9.50922e-06 0)
(8.1137e-05 -9.52191e-06 0)
(8.52276e-05 -9.51714e-06 0)
(8.93133e-05 -9.49568e-06 0)
(9.33871e-05 -9.45825e-06 0)
(9.74424e-05 -9.40557e-06 0)
(0.000101473 -9.33831e-06 0)
(0.000105472 -9.25716e-06 0)
(0.000109434 -9.16282e-06 0)
(0.000113354 -9.05592e-06 0)
(0.000117227 -8.93707e-06 0)
(0.000121046 -8.80684e-06 0)
(0.000124808 -8.66582e-06 0)
(0.000128508 -8.51459e-06 0)
(0.000132142 -8.35373e-06 0)
(0.000135705 -8.18377e-06 0)
(0.000139193 -8.00519e-06 0)
(0.000142604 -7.81844e-06 0)
(0.000145933 -7.62397e-06 0)
(0.000149177 -7.42227e-06 0)
(0.000152333 -7.21382e-06 0)
(0.000155399 -6.999e-06 0)
(0.000158371 -6.77817e-06 0)
(0.000161247 -6.55169e-06 0)
(0.000164025 -6.31992e-06 0)
(0.000166702 -6.08325e-06 0)
(0.000169276 -5.84201e-06 0)
(0.000171746 -5.5965e-06 0)
(0.000174109 -5.347e-06 0)
(0.000176364 -5.09376e-06 0)
(0.000178509 -4.83709e-06 0)
(0.000180542 -4.57724e-06 0)
(0.000182463 -4.31448e-06 0)
(0.00018427 -4.04903e-06 0)
(0.000185962 -3.78111e-06 0)
(0.000187538 -3.5109e-06 0)
(0.000188997 -3.23861e-06 0)
(0.000190337 -2.96442e-06 0)
(0.000191559 -2.68856e-06 0)
(0.000192662 -2.4112e-06 0)
(0.000193644 -2.13249e-06 0)
(0.000194506 -1.85259e-06 0)
(0.000195246 -1.57166e-06 0)
(0.000195865 -1.28986e-06 0)
(0.000196362 -1.00735e-06 0)
(0.000196736 -7.24273e-07 0)
(0.000196988 -4.40756e-07 0)
(0.000197118 -1.56949e-07 0)
(0.000197124 1.26998e-07 0)
(0.000197008 4.10943e-07 0)
(0.000196769 6.94748e-07 0)
(0.000196408 9.78271e-07 0)
(0.000195924 1.26136e-06 0)
(0.000195317 1.54386e-06 0)
(0.000194589 1.82562e-06 0)
(0.000193739 2.10649e-06 0)
(0.000192768 2.38632e-06 0)
(0.000191677 2.66491e-06 0)
(0.000190465 2.9421e-06 0)
(0.000189134 3.2177e-06 0)
(0.000187684 3.49152e-06 0)
(0.000186117 3.76336e-06 0)
(0.000184432 4.033e-06 0)
(0.000182632 4.30024e-06 0)
(0.000180717 4.56484e-06 0)
(0.000178689 4.82658e-06 0)
(0.000176548 5.08517e-06 0)
(0.000174297 5.34037e-06 0)
(0.000171937 5.5919e-06 0)
(0.000169469 5.83946e-06 0)
(0.000166896 6.08274e-06 0)
(0.000164219 6.32141e-06 0)
(0.00016144 6.55513e-06 0)
(0.000158563 6.78357e-06 0)
(0.000155588 7.00635e-06 0)
(0.000152519 7.22307e-06 0)
(0.000149359 7.43333e-06 0)
(0.000146109 7.63671e-06 0)
(0.000142775 7.83279e-06 0)
(0.000139358 8.02111e-06 0)
(0.000135863 8.20118e-06 0)
(0.000132292 8.37253e-06 0)
(0.000128651 8.53462e-06 0)
(0.000124942 8.68693e-06 0)
(0.000121171 8.82891e-06 0)
(0.000117343 8.95998e-06 0)
(0.00011346 9.07956e-06 0)
(0.00010953 9.18703e-06 0)
(0.000105558 9.28176e-06 0)
(0.000101548 9.36311e-06 0)
(9.75068e-05 9.43042e-06 0)
(9.34409e-05 9.483e-06 0)
(8.93566e-05 9.52016e-06 0)
(8.52606e-05 9.5412e-06 0)
(8.11599e-05 9.54537e-06 0)
(7.70619e-05 9.53192e-06 0)
(7.29742e-05 9.50007e-06 0)
(6.89048e-05 9.44909e-06 0)
(6.48619e-05 9.37819e-06 0)
(6.08541e-05 9.28662e-06 0)
(5.68902e-05 9.17359e-06 0)
(5.29794e-05 9.0383e-06 0)
(4.91312e-05 8.87998e-06 0)
(4.53553e-05 8.69789e-06 0)
(4.16616e-05 8.49136e-06 0)
(3.80605e-05 8.25969e-06 0)
(3.45622e-05 8.00221e-06 0)
(3.11775e-05 7.71837e-06 0)
(2.79171e-05 7.40774e-06 0)
(2.47917e-05 7.06998e-06 0)
(2.18123e-05 6.7049e-06 0)
(1.89895e-05 6.31255e-06 0)
(1.63338e-05 5.89323e-06 0)
(1.38555e-05 5.4476e-06 0)
(1.15643e-05 4.97679e-06 0)
(9.46909e-06 4.48253e-06 0)
(7.57791e-06 3.96736e-06 0)
(5.89737e-06 3.43479e-06 0)
(4.43234e-06 2.88971e-06 0)
(3.18536e-06 2.33888e-06 0)
(2.15602e-06 1.79144e-06 0)
(1.3403e-06 1.25957e-06 0)
(7.2973e-07 7.59458e-07 0)
(3.10213e-07 3.12648e-07 0)
(6.07855e-08 -5.22176e-08 0)
(-4.77044e-08 -2.98074e-07 0)
(-5.61872e-08 -3.78129e-07 0)
(-2.06863e-08 -2.30357e-07 0)
(-1.0645e-08 2.50177e-07 0)
(2.42507e-09 3.56157e-07 0)
(1.08533e-07 1.77005e-07 0)
(3.51367e-07 -2.09531e-07 0)
(7.69401e-07 -7.47188e-07 0)
(1.39099e-06 -1.39191e-06 0)
(2.23597e-06 -2.10797e-06 0)
(3.31738e-06 -2.86683e-06 0)
(4.64336e-06 -3.64672e-06 0)
(6.21819e-06 -4.43147e-06 0)
(8.0425e-06 -5.20899e-06 0)
(1.01134e-05 -5.96995e-06 0)
(1.24254e-05 -6.70719e-06 0)
(1.49709e-05 -7.4154e-06 0)
(1.77413e-05 -8.09091e-06 0)
(2.07268e-05 -8.73121e-06 0)
(2.39165e-05 -9.33453e-06 0)
(2.72989e-05 -9.8997e-06 0)
(3.0862e-05 -1.04261e-05 0)
(3.45938e-05 -1.09135e-05 0)
(3.84819e-05 -1.13621e-05 0)
(4.25142e-05 -1.17724e-05 0)
(4.66781e-05 -1.21448e-05 0)
(5.09616e-05 -1.24802e-05 0)
(5.53525e-05 -1.27793e-05 0)
(5.9839e-05 -1.3043e-05 0)
(6.44098e-05 -1.32725e-05 0)
(6.90534e-05 -1.34687e-05 0)
(7.3759e-05 -1.36327e-05 0)
(7.85157e-05 -1.37657e-05 0)
(8.33134e-05 -1.38686e-05 0)
(8.81421e-05 -1.39426e-05 0)
(9.29922e-05 -1.39889e-05 0)
(9.78543e-05 -1.40085e-05 0)
(0.000102719 -1.40026e-05 0)
(0.000107579 -1.39721e-05 0)
(0.000112425 -1.39182e-05 0)
(0.000117249 -1.38419e-05 0)
(0.000122044 -1.37441e-05 0)
(0.000126803 -1.3626e-05 0)
(0.000131517 -1.34883e-05 0)
(0.000136182 -1.33322e-05 0)
(0.000140791 -1.31584e-05 0)
(0.000145337 -1.29678e-05 0)
(0.000149816 -1.27613e-05 0)
(0.000154221 -1.25398e-05 0)
(0.000158547 -1.2304e-05 0)
(0.000162789 -1.20547e-05 0)
(0.000166944 -1.17926e-05 0)
(0.000171006 -1.15184e-05 0)
(0.000174971 -1.12328e-05 0)
(0.000178836 -1.09366e-05 0)
(0.000182596 -1.06302e-05 0)
(0.000186248 -1.03144e-05 0)
(0.00018979 -9.98969e-06 0)
(0.000193217 -9.65657e-06 0)
(0.000196528 -9.31561e-06 0)
(0.000199719 -8.96734e-06 0)
(0.000202787 -8.61227e-06 0)
(0.000205731 -8.25082e-06 0)
(0.000208548 -7.88342e-06 0)
(0.000211236 -7.51047e-06 0)
(0.000213794 -7.1324e-06 0)
(0.000216219 -6.74961e-06 0)
(0.000218509 -6.36246e-06 0)
(0.000220664 -5.97127e-06 0)
(0.000222682 -5.57637e-06 0)
(0.000224561 -5.17806e-06 0)
(0.000226301 -4.77666e-06 0)
(0.0002279 -4.37245e-06 0)
(0.000229358 -3.96571e-06 0)
(0.000230673 -3.5567e-06 0)
(0.000231845 -3.14568e-06 0)
(0.000232873 -2.73289e-06 0)
(0.000233756 -2.31856e-06 0)
(0.000234495 -1.90293e-06 0)
(0.000235087 -1.48623e-06 0)
(0.000235534 -1.06867e-06 0)
(0.000235835 -6.50467e-07 0)
(0.00023599 -2.31825e-07 0)
(0.000235998 1.87029e-07 0)
(0.00023586 6.05873e-07 0)
(0.000235575 1.0245e-06 0)
(0.000235144 1.4427e-06 0)
(0.000234567 1.86026e-06 0)
(0.000233844 2.27693e-06 0)
(0.000232975 2.6925e-06 0)
(0.000231962 3.10672e-06 0)
(0.000230804 3.51937e-06 0)
(0.000229502 3.93018e-06 0)
(0.000228057 4.33889e-06 0)
(0.00022647 4.74521e-06 0)
(0.000224741 5.14886e-06 0)
(0.000222872 5.54956e-06 0)
(0.000220864 5.94698e-06 0)
(0.000218718 6.3408e-06 0)
(0.000216435 6.73069e-06 0)
(0.000214016 7.11628e-06 0)
(0.000211465 7.4972e-06 0)
(0.000208781 7.87305e-06 0)
(0.000205968 8.24342e-06 0)
(0.000203026 8.60788e-06 0)
(0.00019996 8.96597e-06 0)
(0.000196769 9.3172e-06 0)
(0.000193458 9.66108e-06 0)
(0.000190029 9.99708e-06 0)
(0.000186485 1.03247e-05 0)
(0.000182829 1.06433e-05 0)
(0.000179064 1.09523e-05 0)
(0.000175194 1.12511e-05 0)
(0.000171222 1.15391e-05 0)
(0.000167153 1.18156e-05 0)
(0.000162991 1.20799e-05 0)
(0.000158739 1.23312e-05 0)
(0.000154404 1.25689e-05 0)
(0.000149989 1.27921e-05 0)
(0.0001455 1.3e-05 0)
(0.000140943 1.31919e-05 0)
(0.000136322 1.33667e-05 0)
(0.000131645 1.35237e-05 0)
(0.000126918 1.3662e-05 0)
(0.000122147 1.37805e-05 0)
(0.00011734 1.38784e-05 0)
(0.000112503 1.39546e-05 0)
(0.000107644 1.40081e-05 0)
(0.000102772 1.4038e-05 0)
(9.78952e-05 1.40431e-05 0)
(9.30213e-05 1.40224e-05 0)
(8.81598e-05 1.39749e-05 0)
(8.33201e-05 1.38993e-05 0)
(7.85118e-05 1.37946e-05 0)
(7.37451e-05 1.36597e-05 0)
(6.90303e-05 1.34935e-05 0)
(6.4378e-05 1.3295e-05 0)
(5.97994e-05 1.3063e-05 0)
(5.53058e-05 1.27966e-05 0)
(5.09088e-05 1.24947e-05 0)
(4.66202e-05 1.21565e-05 0)
(4.2452e-05 1.17812e-05 0)
(3.84165e-05 1.1368e-05 0)
(3.45259e-05 1.09164e-05 0)
(3.07927e-05 1.0426e-05 0)
(2.72292e-05 9.89667e-06 0)
(2.38474e-05 9.32873e-06 0)
(2.06592e-05 8.72276e-06 0)
(1.7676e-05 8.07992e-06 0)
(1.49087e-05 7.40203e-06 0)
(1.23671e-05 6.69178e-06 0)
(1.00598e-05 5.95297e-06 0)
(7.99415e-06 5.19084e-06 0)
(6.17524e-06 4.41239e-06 0)
(4.60588e-06 3.62704e-06 0)
(3.28571e-06 2.8473e-06 0)
(2.21055e-06 2.08965e-06 0)
(1.37182e-06 1.37545e-06 0)
(7.55693e-07 7.32325e-07 0)
(3.41988e-07 1.95953e-07 0)
(1.02638e-07 -1.88113e-07 0)
(4.75337e-10 -3.62529e-07 0)
(-1.07574e-08 -2.50946e-07 0)
(1.74912e-10 2.37608e-07 0)
(6.54614e-08 2.58663e-07 0)
(2.7867e-07 -5.69757e-08 0)
(6.70601e-07 -6.19627e-07 0)
(1.27161e-06 -1.36352e-06 0)
(2.10774e-06 -2.23658e-06 0)
(3.19804e-06 -3.19723e-06 0)
(4.55489e-06 -4.21203e-06 0)
(6.18554e-06 -5.25422e-06 0)
(8.09329e-06 -6.30309e-06 0)
(1.02782e-05 -7.34293e-06 0)
(1.27371e-05 -8.36188e-06 0)
(1.54644e-05 -9.35071e-06 0)
(1.84519e-05 -1.03023e-05 0)
(2.16901e-05 -1.12115e-05 0)
(2.51684e-05 -1.20745e-05 0)
(2.8875e-05 -1.28888e-05 0)
(3.27976e-05 -1.36528e-05 0)
(3.69231e-05 -1.43654e-05 0)
(4.1238e-05 -1.50261e-05 0)
(4.57289e-05 -1.56349e-05 0)
(5.03821e-05 -1.61923e-05 0)
(5.5184e-05 -1.66989e-05 0)
(6.01209e-05 -1.71556e-05 0)
(6.51795e-05 -1.75634e-05 0)
(7.03464e-05 -1.79234e-05 0)
(7.56087e-05 -1.8237e-05 0)
(8.09538e-05 -1.85054e-05 0)
(8.63692e-05 -1.87301e-05 0)
(9.18429e-05 -1.89126e-05 0)
(9.73634e-05 -1.90541e-05 0)
(0.000102919 -1.91563e-05 0)
(0.000108499 -1.92205e-05 0)
(0.000114093 -1.92483e-05 0)
(0.000119691 -1.92412e-05 0)
(0.000125282 -1.92005e-05 0)
(0.000130858 -1.91277e-05 0)
(0.000136409 -1.90241e-05 0)
(0.000141927 -1.88911e-05 0)
(0.000147403 -1.87301e-05 0)
(0.000152829 -1.85423e-05 0)
(0.000158198 -1.83291e-05 0)
(0.000163503 -1.80915e-05 0)
(0.000168737 -1.78309e-05 0)
(0.000173893 -1.75483e-05 0)
(0.000178964 -1.7245e-05 0)
(0.000183945 -1.69221e-05 0)
(0.000188831 -1.65804e-05 0)
(0.000193615 -1.62211e-05 0)
(0.000198294 -1.58451e-05 0)
(0.000202861 -1.54534e-05 0)
(0.000207312 -1.50468e-05 0)
(0.000211644 -1.46264e-05 0)
(0.000215852 -1.41928e-05 0)
(0.000219933 -1.37468e-05 0)
(0.000223882 -1.32892e-05 0)
(0.000227697 -1.28208e-05 0)
(0.000231374 -1.23422e-05 0)
(0.000234911 -1.18541e-05 0)
(0.000238304 -1.13572e-05 0)
(0.000241551 -1.0852e-05 0)
(0.00024465 -1.03392e-05 0)
(0.000247598 -9.8192e-06 0)
(0.000250393 -9.29264e-06 0)
(0.000253034 -8.76001e-06 0)
(0.000255519 -8.22175e-06 0)
(0.000257845 -7.67831e-06 0)
(0.000260013 -7.13013e-06 0)
(0.000262019 -6.57764e-06 0)
(0.000263863 -6.02125e-06 0)
(0.000265544 -5.46132e-06 0)
(0.000267061 -4.89823e-06 0)