/*--------------------------------*- C++ -*----------------------------------*\
  =========                 |
  \\      /  F ield         | OpenFOAM: The Open Source CFD Toolbox
   \\    /   O peration     | Website:  https://openfoam.org
    \\  /    A nd           | Version:  7
     \\/     M anipulation  |
\*---------------------------------------------------------------------------*/
FoamFile
{
    version     2.0;
    format      ascii;
    class       volVectorField;
    location    "0.425";
    object      U;
}
// * * * * * * * * * * * * * * * * * * * * * * * * * * * * * * * * * * * * * //

dimensions      [0 1 -1 0 0 0 0];

internalField   nonuniform List<vector> 
51200
(
(6.67669e-08 8.83708e-08 0)
(-4.52093e-08 1.1706e-07 0)
(-7.26982e-08 4.44476e-08 0)
(-1.18958e-07 1.47515e-08 0)
(-7.20668e-08 -7.88205e-09 0)
(7.67747e-09 -2.32585e-08 0)
(1.15434e-07 -3.4345e-08 0)
(2.46237e-07 -4.18264e-08 0)
(3.95542e-07 -4.80037e-08 0)
(5.59712e-07 -5.2198e-08 0)
(7.36028e-07 -5.55614e-08 0)
(9.21125e-07 -5.82106e-08 0)
(1.11348e-06 -5.96626e-08 0)
(1.31056e-06 -6.08808e-08 0)
(1.51072e-06 -6.16081e-08 0)
(1.71273e-06 -6.1661e-08 0)
(1.9144e-06 -6.13347e-08 0)
(2.11471e-06 -6.05282e-08 0)
(2.31277e-06 -5.91592e-08 0)
(2.50737e-06 -5.78284e-08 0)
(2.69772e-06 -5.67481e-08 0)
(2.88319e-06 -5.52597e-08 0)
(3.0628e-06 -5.3603e-08 0)
(3.23587e-06 -5.18108e-08 0)
(3.40237e-06 -4.96015e-08 0)
(3.56162e-06 -4.7415e-08 0)
(3.71313e-06 -4.54424e-08 0)
(3.85706e-06 -4.32532e-08 0)
(3.99305e-06 -4.06961e-08 0)
(4.12061e-06 -3.80115e-08 0)
(4.23991e-06 -3.5349e-08 0)
(4.351e-06 -3.27617e-08 0)
(4.45372e-06 -3.02729e-08 0)
(4.54819e-06 -2.79279e-08 0)
(4.63453e-06 -2.5651e-08 0)
(4.71288e-06 -2.329e-08 0)
(4.78347e-06 -2.09986e-08 0)
(4.84649e-06 -1.89857e-08 0)
(4.90208e-06 -1.69552e-08 0)
(4.95055e-06 -1.46586e-08 0)
(4.99212e-06 -1.24112e-08 0)
(5.027e-06 -1.04716e-08 0)
(5.05567e-06 -8.76444e-09 0)
(5.07854e-06 -7.2144e-09 0)
(5.09582e-06 -5.7896e-09 0)
(5.10778e-06 -4.33656e-09 0)
(5.11481e-06 -2.83766e-09 0)
(5.11729e-06 -1.39729e-09 0)
(5.11559e-06 -1.24087e-10 0)
(5.11002e-06 8.97723e-10 0)
(5.10098e-06 1.73435e-09 0)
(5.08882e-06 2.60572e-09 0)
(5.07393e-06 3.53058e-09 0)
(5.05678e-06 4.27409e-09 0)
(5.03762e-06 4.71661e-09 0)
(5.01681e-06 5.0011e-09 0)
(4.99478e-06 5.34733e-09 0)
(4.97183e-06 5.78324e-09 0)
(4.94814e-06 6.12935e-09 0)
(4.92411e-06 6.24797e-09 0)
(4.90017e-06 6.14341e-09 0)
(4.87656e-06 5.88823e-09 0)
(4.85347e-06 5.63305e-09 0)
(4.83123e-06 5.5129e-09 0)
(4.81008e-06 5.43618e-09 0)
(4.79026e-06 5.18751e-09 0)
(4.77201e-06 4.68592e-09 0)
(4.75555e-06 3.99913e-09 0)
(4.74104e-06 3.24528e-09 0)
(4.7286e-06 2.56809e-09 0)
(4.71847e-06 2.0365e-09 0)
(4.71086e-06 1.54909e-09 0)
(4.70581e-06 9.64921e-10 0)
(4.70327e-06 2.77046e-10 0)
(4.70338e-06 -4.54594e-10 0)
(4.70631e-06 -1.21943e-09 0)
(4.71204e-06 -2.01695e-09 0)
(4.72054e-06 -2.81492e-09 0)
(4.73185e-06 -3.57055e-09 0)
(4.74602e-06 -4.27706e-09 0)
(4.76299e-06 -4.99116e-09 0)
(4.78267e-06 -5.74266e-09 0)
(4.80497e-06 -6.47353e-09 0)
(4.82985e-06 -7.16127e-09 0)
(4.85726e-06 -7.84339e-09 0)
(4.88709e-06 -8.49104e-09 0)
(4.91919e-06 -9.02191e-09 0)
(4.95339e-06 -9.43488e-09 0)
(4.98947e-06 -9.84902e-09 0)
(5.02727e-06 -1.03563e-08 0)
(5.06661e-06 -1.08844e-08 0)
(5.1073e-06 -1.129e-08 0)
(5.14906e-06 -1.15085e-08 0)
(5.19155e-06 -1.15885e-08 0)
(5.23458e-06 -1.16157e-08 0)
(5.27791e-06 -1.16112e-08 0)
(5.32125e-06 -1.15525e-08 0)
(5.3643e-06 -1.14058e-08 0)
(5.40673e-06 -1.11455e-08 0)
(5.44827e-06 -1.07987e-08 0)
(5.4886e-06 -1.03885e-08 0)
(5.52727e-06 -9.8844e-09 0)
(5.56391e-06 -9.26261e-09 0)
(5.59826e-06 -8.51591e-09 0)
(5.63001e-06 -7.62521e-09 0)
(5.65879e-06 -6.60199e-09 0)
(5.68414e-06 -5.49002e-09 0)
(5.70571e-06 -4.34613e-09 0)
(5.72324e-06 -3.20368e-09 0)
(5.73638e-06 -1.97614e-09 0)
(5.7447e-06 -5.42621e-10 0)
(5.74787e-06 1.11311e-09 0)
(5.74554e-06 2.91336e-09 0)
(5.73747e-06 4.71612e-09 0)
(5.72339e-06 6.4514e-09 0)
(5.70284e-06 8.23811e-09 0)
(5.6755e-06 1.02057e-08 0)
(5.64113e-06 1.23478e-08 0)
(5.59944e-06 1.45952e-08 0)
(5.55018e-06 1.68768e-08 0)
(5.49314e-06 1.91603e-08 0)
(5.42802e-06 2.15173e-08 0)
(5.35464e-06 2.39998e-08 0)
(5.27292e-06 2.65105e-08 0)
(5.18273e-06 2.89741e-08 0)
(5.08395e-06 3.14216e-08 0)
(4.9766e-06 3.38808e-08 0)
(4.86061e-06 3.64028e-08 0)
(4.73589e-06 3.90345e-08 0)
(4.60255e-06 4.16897e-08 0)
(4.46071e-06 4.42186e-08 0)
(4.3105e-06 4.65568e-08 0)
(4.15227e-06 4.8743e-08 0)
(3.98627e-06 5.08952e-08 0)
(3.8127e-06 5.31447e-08 0)
(3.63192e-06 5.54372e-08 0)
(3.4445e-06 5.74993e-08 0)
(3.25099e-06 5.91628e-08 0)
(3.05198e-06 6.05347e-08 0)
(2.84826e-06 6.17669e-08 0)
(2.64061e-06 6.2868e-08 0)
(2.42993e-06 6.37375e-08 0)
(2.21732e-06 6.42521e-08 0)
(2.00392e-06 6.4353e-08 0)
(1.79092e-06 6.40561e-08 0)
(1.57984e-06 6.33219e-08 0)
(1.37241e-06 6.20221e-08 0)
(1.17032e-06 6.01108e-08 0)
(9.75342e-07 5.76345e-08 0)
(7.8964e-07 5.4524e-08 0)
(6.15662e-07 5.05607e-08 0)
(4.55976e-07 4.55728e-08 0)
(3.1336e-07 3.95407e-08 0)
(1.90786e-07 3.2466e-08 0)
(9.12558e-08 2.42704e-08 0)
(1.76734e-08 1.48912e-08 0)
(-2.73852e-08 4.46008e-09 0)
(-4.29042e-08 -6.23689e-09 0)
(-3.28727e-08 -1.42831e-08 0)
(-1.12642e-08 -1.21609e-08 0)
(9.44855e-08 1.31592e-08 0)
(1.06121e-07 1.4105e-07 0)
(8.07442e-08 4.0317e-08 0)
(1.31518e-07 -3.82667e-08 0)
(2.70819e-07 -1.13032e-07 0)
(4.84765e-07 -1.75817e-07 0)
(7.66805e-07 -2.27007e-07 0)
(1.1072e-06 -2.69012e-07 0)
(1.49753e-06 -3.02676e-07 0)
(1.93004e-06 -3.29756e-07 0)
(2.39613e-06 -3.51497e-07 0)
(2.89022e-06 -3.68032e-07 0)
(3.4047e-06 -3.80331e-07 0)
(3.93436e-06 -3.88706e-07 0)
(4.47478e-06 -3.93415e-07 0)
(5.02038e-06 -3.95441e-07 0)
(5.56762e-06 -3.94772e-07 0)
(6.11271e-06 -3.91382e-07 0)
(6.65182e-06 -3.85657e-07 0)
(7.18244e-06 -3.7802e-07 0)
(7.70209e-06 -3.68898e-07 0)
(8.20812e-06 -3.58429e-07 0)
(8.69871e-06 -3.46894e-07 0)
(9.17241e-06 -3.34081e-07 0)
(9.62726e-06 -3.20105e-07 0)
(1.00621e-05 -3.05665e-07 0)
(1.04763e-05 -2.90708e-07 0)
(1.08687e-05 -2.75197e-07 0)
(1.12387e-05 -2.5934e-07 0)
(1.1586e-05 -2.43106e-07 0)
(1.19102e-05 -2.26587e-07 0)
(1.22113e-05 -2.10071e-07 0)
(1.24893e-05 -1.93681e-07 0)
(1.27442e-05 -1.77606e-07 0)
(1.29763e-05 -1.61796e-07 0)
(1.31861e-05 -1.4606e-07 0)
(1.3374e-05 -1.30708e-07 0)
(1.35405e-05 -1.16037e-07 0)
(1.36863e-05 -1.01773e-07 0)
(1.38121e-05 -8.77861e-08 0)
(1.39184e-05 -7.44003e-08 0)
(1.40062e-05 -6.16906e-08 0)
(1.40764e-05 -4.95926e-08 0)
(1.413e-05 -3.82227e-08 0)
(1.41679e-05 -2.76594e-08 0)
(1.4191e-05 -1.77294e-08 0)
(1.42002e-05 -8.3416e-09 0)
(1.41967e-05 4.72247e-10 0)
(1.41817e-05 8.52163e-09 0)
(1.4156e-05 1.5681e-08 0)
(1.41207e-05 2.19758e-08 0)
(1.40768e-05 2.76381e-08 0)
(1.40255e-05 3.27999e-08 0)
(1.39678e-05 3.72024e-08 0)
(1.39046e-05 4.06658e-08 0)
(1.3837e-05 4.33921e-08 0)
(1.37662e-05 4.55498e-08 0)
(1.36929e-05 4.70745e-08 0)
(1.36179e-05 4.79783e-08 0)
(1.35424e-05 4.83396e-08 0)
(1.34674e-05 4.80546e-08 0)
(1.33936e-05 4.7043e-08 0)
(1.33216e-05 4.54632e-08 0)
(1.32524e-05 4.35153e-08 0)
(1.31865e-05 4.12155e-08 0)
(1.31247e-05 3.84901e-08 0)
(1.3068e-05 3.52519e-08 0)
(1.30167e-05 3.14258e-08 0)
(1.29713e-05 2.70897e-08 0)
(1.29322e-05 2.2509e-08 0)
(1.29e-05 1.78727e-08 0)
(1.28752e-05 1.30941e-08 0)
(1.28579e-05 8.00901e-09 0)
(1.28484e-05 2.67724e-09 0)
(1.2847e-05 -2.72302e-09 0)
(1.2854e-05 -8.18046e-09 0)
(1.28694e-05 -1.37794e-08 0)
(1.28933e-05 -1.94759e-08 0)
(1.29255e-05 -2.5134e-08 0)
(1.29662e-05 -3.06862e-08 0)
(1.30153e-05 -3.61718e-08 0)
(1.30727e-05 -4.16222e-08 0)
(1.31382e-05 -4.69436e-08 0)
(1.32115e-05 -5.20419e-08 0)
(1.32921e-05 -5.69292e-08 0)
(1.338e-05 -6.15861e-08 0)
(1.34747e-05 -6.59181e-08 0)
(1.35757e-05 -6.98703e-08 0)
(1.36825e-05 -7.34882e-08 0)
(1.37944e-05 -7.68098e-08 0)
(1.39111e-05 -7.97533e-08 0)
(1.40319e-05 -8.22165e-08 0)
(1.4156e-05 -8.41509e-08 0)
(1.42827e-05 -8.55236e-08 0)
(1.44113e-05 -8.63536e-08 0)
(1.4541e-05 -8.66463e-08 0)
(1.46708e-05 -8.63786e-08 0)
(1.48e-05 -8.55242e-08 0)
(1.49277e-05 -8.4007e-08 0)
(1.50529e-05 -8.18077e-08 0)
(1.51749e-05 -7.89958e-08 0)
(1.52925e-05 -7.55566e-08 0)
(1.54048e-05 -7.14035e-08 0)
(1.55109e-05 -6.65181e-08 0)
(1.56095e-05 -6.09149e-08 0)
(1.56997e-05 -5.46121e-08 0)
(1.57804e-05 -4.76032e-08 0)
(1.58506e-05 -3.98449e-08 0)
(1.59095e-05 -3.14024e-08 0)
(1.59561e-05 -2.23512e-08 0)
(1.59891e-05 -1.26332e-08 0)
(1.60076e-05 -2.17603e-09 0)
(1.60106e-05 9.06146e-09 0)
(1.59971e-05 2.10066e-08 0)
(1.59665e-05 3.3478e-08 0)
(1.59177e-05 4.6449e-08 0)
(1.58497e-05 6.00351e-08 0)
(1.57618e-05 7.42619e-08 0)
(1.56531e-05 8.90465e-08 0)
(1.55229e-05 1.043e-07 0)
(1.53707e-05 1.1994e-07 0)
(1.51959e-05 1.35953e-07 0)
(1.49979e-05 1.52387e-07 0)
(1.47762e-05 1.69144e-07 0)
(1.45305e-05 1.86047e-07 0)
(1.42605e-05 2.03058e-07 0)
(1.39661e-05 2.20146e-07 0)
(1.36474e-05 2.37242e-07 0)
(1.33043e-05 2.54321e-07 0)
(1.29369e-05 2.71293e-07 0)
(1.25456e-05 2.87985e-07 0)
(1.21308e-05 3.04234e-07 0)
(1.16933e-05 3.1993e-07 0)
(1.12339e-05 3.34994e-07 0)
(1.07534e-05 3.49396e-07 0)
(1.02531e-05 3.63085e-07 0)
(9.73429e-06 3.75814e-07 0)
(9.19871e-06 3.87222e-07 0)
(8.64801e-06 3.97133e-07 0)
(8.08421e-06 4.05529e-07 0)
(7.50972e-06 4.12304e-07 0)
(6.92726e-06 4.17196e-07 0)
(6.33984e-06 4.1988e-07 0)
(5.75067e-06 4.20087e-07 0)
(5.16323e-06 4.17608e-07 0)
(4.58148e-06 4.12193e-07 0)
(4.00994e-06 4.0346e-07 0)
(3.45345e-06 3.90998e-07 0)
(2.91705e-06 3.74512e-07 0)
(2.4063e-06 3.53725e-07 0)
(1.92733e-06 3.28222e-07 0)
(1.48666e-06 2.97519e-07 0)
(1.091e-06 2.6129e-07 0)
(7.47082e-07 2.19495e-07 0)
(4.61358e-07 1.72385e-07 0)
(2.39451e-07 1.20734e-07 0)
(8.52362e-08 6.6425e-08 0)
(-8.5956e-10 1.36351e-08 0)
(-2.62921e-08 -2.76776e-08 0)
(-1.2632e-08 -3.41903e-08 0)
(3.80669e-08 -6.71076e-09 0)
(8.96032e-08 4.02648e-08 0)
(2.05875e-07 -5.21702e-08 0)
(3.84067e-07 -2.00174e-07 0)
(6.5538e-07 -3.56684e-07 0)
(1.02244e-06 -5.01546e-07 0)
(1.47869e-06 -6.29255e-07 0)
(2.01701e-06 -7.38447e-07 0)
(2.62734e-06 -8.29845e-07 0)
(3.29833e-06 -9.05611e-07 0)
(4.02138e-06 -9.66303e-07 0)
(4.78534e-06 -1.0143e-06 0)
(5.58157e-06 -1.05048e-06 0)
(6.40214e-06 -1.07524e-06 0)
(7.23836e-06 -1.0908e-06 0)
(8.08376e-06 -1.09751e-06 0)
(8.93212e-06 -1.09633e-06 0)
(9.77707e-06 -1.08853e-06 0)
(1.06137e-05 -1.07412e-06 0)
(1.14373e-05 -1.05406e-06 0)
(1.22433e-05 -1.02921e-06 0)
(1.30286e-05 -1.00012e-06 0)
(1.379e-05 -9.67244e-07 0)
(1.45245e-05 -9.31239e-07 0)
(1.52296e-05 -8.92657e-07 0)
(1.59036e-05 -8.51656e-07 0)
(1.65446e-05 -8.08924e-07 0)
(1.71515e-05 -7.64957e-07 0)
(1.77232e-05 -7.19861e-07 0)
(1.8259e-05 -6.74011e-07 0)
(1.87582e-05 -6.27767e-07 0)
(1.9221e-05 -5.81254e-07 0)
(1.96472e-05 -5.34908e-07 0)
(2.00368e-05 -4.89189e-07 0)
(2.03905e-05 -4.44006e-07 0)
(2.07087e-05 -3.99462e-07 0)
(2.0992e-05 -3.5606e-07 0)
(2.12415e-05 -3.13925e-07 0)
(2.14582e-05 -2.73044e-07 0)
(2.16432e-05 -2.33665e-07 0)
(2.17974e-05 -1.95917e-07 0)
(2.19223e-05 -1.59844e-07 0)
(2.20193e-05 -1.25498e-07 0)
(2.20899e-05 -9.29962e-08 0)
(2.21356e-05 -6.24706e-08 0)
(2.21581e-05 -3.40296e-08 0)
(2.21587e-05 -7.61801e-09 0)
(2.21394e-05 1.69267e-08 0)
(2.21017e-05 3.94612e-08 0)
(2.20471e-05 5.97396e-08 0)
(2.19776e-05 7.77818e-08 0)
(2.1895e-05 9.37906e-08 0)
(2.18008e-05 1.07792e-07 0)
(2.16964e-05 1.19664e-07 0)
(2.15837e-05 1.29464e-07 0)
(2.14645e-05 1.37288e-07 0)
(2.13403e-05 1.43096e-07 0)
(2.12126e-05 1.46923e-07 0)
(2.10828e-05 1.48952e-07 0)
(2.09525e-05 1.49314e-07 0)
(2.08232e-05 1.47955e-07 0)
(2.06962e-05 1.44845e-07 0)
(2.0573e-05 1.40079e-07 0)
(2.04545e-05 1.33781e-07 0)
(2.03419e-05 1.26123e-07 0)
(2.02365e-05 1.17335e-07 0)
(2.01393e-05 1.07453e-07 0)
(2.00512e-05 9.62895e-08 0)
(1.99731e-05 8.38704e-08 0)
(1.99058e-05 7.05238e-08 0)
(1.98502e-05 5.64709e-08 0)
(1.98067e-05 4.17013e-08 0)
(1.97757e-05 2.62528e-08 0)
(1.9758e-05 1.03153e-08 0)
(1.97538e-05 -5.94411e-09 0)
(1.97636e-05 -2.24785e-08 0)
(1.97873e-05 -3.92606e-08 0)
(1.98253e-05 -5.61833e-08 0)
(1.98774e-05 -7.30954e-08 0)
(1.99435e-05 -8.98609e-08 0)
(2.00236e-05 -1.06357e-07 0)
(2.01176e-05 -1.22502e-07 0)
(2.02251e-05 -1.38254e-07 0)
(2.03456e-05 -1.53541e-07 0)
(2.04785e-05 -1.68232e-07 0)
(2.06236e-05 -1.82135e-07 0)
(2.078e-05 -1.95148e-07 0)
(2.0947e-05 -2.07254e-07 0)
(2.11236e-05 -2.18349e-07 0)
(2.13091e-05 -2.28283e-07 0)
(2.15025e-05 -2.36955e-07 0)
(2.17029e-05 -2.443e-07 0)
(2.19092e-05 -2.50269e-07 0)
(2.212e-05 -2.54731e-07 0)
(2.23342e-05 -2.57585e-07 0)
(2.25505e-05 -2.58852e-07 0)
(2.27676e-05 -2.58486e-07 0)
(2.2984e-05 -2.56377e-07 0)
(2.31984e-05 -2.52425e-07 0)
(2.34091e-05 -2.46545e-07 0)
(2.36148e-05 -2.38745e-07 0)
(2.38138e-05 -2.29047e-07 0)
(2.40047e-05 -2.17356e-07 0)
(2.41859e-05 -2.03636e-07 0)
(2.43556e-05 -1.87931e-07 0)
(2.4512e-05 -1.70204e-07 0)
(2.46536e-05 -1.50408e-07 0)
(2.47788e-05 -1.28478e-07 0)
(2.48859e-05 -1.04411e-07 0)
(2.49734e-05 -7.83814e-08 0)
(2.50396e-05 -5.04705e-08 0)
(2.50827e-05 -2.05937e-08 0)
(2.51013e-05 1.12891e-08 0)
(2.50937e-05 4.51318e-08 0)
(2.50586e-05 8.08078e-08 0)
(2.49945e-05 1.18177e-07 0)
(2.49001e-05 1.57195e-07 0)
(2.47739e-05 1.97839e-07 0)
(2.46147e-05 2.39983e-07 0)
(2.44213e-05 2.83484e-07 0)
(2.41929e-05 3.2827e-07 0)
(2.39285e-05 3.74188e-07 0)
(2.36272e-05 4.21052e-07 0)
(2.32883e-05 4.68725e-07 0)
(2.29111e-05 5.17006e-07 0)
(2.24953e-05 5.65693e-07 0)
(2.20407e-05 6.14626e-07 0)
(2.15473e-05 6.63546e-07 0)
(2.10152e-05 7.12154e-07 0)
(2.04447e-05 7.60231e-07 0)
(1.98363e-05 8.0757e-07 0)
(1.91907e-05 8.5385e-07 0)
(1.85091e-05 8.9867e-07 0)
(1.77928e-05 9.4168e-07 0)
(1.70433e-05 9.82548e-07 0)
(1.62625e-05 1.02093e-06 0)
(1.54526e-05 1.05644e-06 0)
(1.46161e-05 1.08853e-06 0)
(1.3756e-05 1.11657e-06 0)
(1.28757e-05 1.14014e-06 0)
(1.19788e-05 1.15885e-06 0)
(1.10694e-05 1.17213e-06 0)
(1.01523e-05 1.1792e-06 0)
(9.23261e-06 1.17931e-06 0)
(8.31589e-06 1.1718e-06 0)
(7.40826e-06 1.15596e-06 0)
(6.51656e-06 1.13096e-06 0)
(5.64809e-06 1.09591e-06 0)
(4.81065e-06 1.04989e-06 0)
(4.01267e-06 9.92118e-07 0)
(3.26296e-06 9.21872e-07 0)
(2.57074e-06 8.38436e-07 0)
(1.94556e-06 7.4127e-07 0)
(1.39679e-06 6.30426e-07 0)
(9.32933e-07 5.07028e-07 0)
(5.60882e-07 3.73938e-07 0)
(2.84742e-07 2.3685e-07 0)
(1.04322e-07 1.05908e-07 0)
(1.33787e-08 -3.75791e-10 0)
(-5.41357e-09 -4.35835e-08 0)
(2.87256e-08 -9.64154e-08 0)
(1.15309e-07 -1.04809e-07 0)
(3.18649e-07 -2.60092e-07 0)
(6.16548e-07 -4.96879e-07 0)
(1.02441e-06 -7.52378e-07 0)
(1.54362e-06 -9.98085e-07 0)
(2.17026e-06 -1.22074e-06 0)
(2.89548e-06 -1.41566e-06 0)
(3.70759e-06 -1.58321e-06 0)
(4.59608e-06 -1.72271e-06 0)
(5.54774e-06 -1.83699e-06 0)
(6.55161e-06 -1.92771e-06 0)
(7.59686e-06 -1.99594e-06 0)
(8.67204e-06 -2.04457e-06 0)
(9.76782e-06 -2.07472e-06 0)
(1.08752e-05 -2.08802e-06 0)
(1.19856e-05 -2.08666e-06 0)
(1.3092e-05 -2.07178e-06 0)
(1.41873e-05 -2.04481e-06 0)
(1.5265e-05 -2.00725e-06 0)
(1.632e-05 -1.96021e-06 0)
(1.73472e-05 -1.90465e-06 0)
(1.83426e-05 -1.8419e-06 0)
(1.93025e-05 -1.77309e-06 0)
(2.02235e-05 -1.69897e-06 0)
(2.1103e-05 -1.62038e-06 0)
(2.19387e-05 -1.53822e-06 0)
(2.27288e-05 -1.45317e-06 0)
(2.34722e-05 -1.36607e-06 0)
(2.41677e-05 -1.27768e-06 0)
(2.48147e-05 -1.18831e-06 0)
(2.54129e-05 -1.09856e-06 0)
(2.59621e-05 -1.00923e-06 0)
(2.64626e-05 -9.20673e-07 0)
(2.69153e-05 -8.33192e-07 0)
(2.73204e-05 -7.47372e-07 0)
(2.7679e-05 -6.63508e-07 0)
(2.79923e-05 -5.81785e-07 0)
(2.82618e-05 -5.02636e-07 0)
(2.84888e-05 -4.26463e-07 0)
(2.86749e-05 -3.53432e-07 0)
(2.8822e-05 -2.83733e-07 0)
(2.89319e-05 -2.1746e-07 0)
(2.90065e-05 -1.54702e-07 0)
(2.90478e-05 -9.56868e-08 0)
(2.9058e-05 -4.0655e-08 0)
(2.90396e-05 1.04287e-08 0)
(2.89946e-05 5.75296e-08 0)
(2.89252e-05 1.00523e-07 0)
(2.88334e-05 1.39397e-07 0)
(2.87221e-05 1.74219e-07 0)
(2.85933e-05 2.04933e-07 0)
(2.84494e-05 2.31409e-07 0)
(2.82924e-05 2.53737e-07 0)
(2.81247e-05 2.72217e-07 0)
(2.79486e-05 2.86892e-07 0)
(2.77663e-05 2.97608e-07 0)
(2.75797e-05 3.04473e-07 0)
(2.73912e-05 3.07705e-07 0)
(2.72025e-05 3.07457e-07 0)
(2.70156e-05 3.03942e-07 0)
(2.68324e-05 2.97292e-07 0)
(2.66546e-05 2.87459e-07 0)
(2.6484e-05 2.74504e-07 0)
(2.63223e-05 2.58762e-07 0)
(2.6171e-05 2.40543e-07 0)
(2.60314e-05 2.19965e-07 0)
(2.59044e-05 1.97134e-07 0)
(2.57917e-05 1.72278e-07 0)
(2.56944e-05 1.45626e-07 0)
(2.56135e-05 1.17327e-07 0)
(2.55495e-05 8.75341e-08 0)
(2.55034e-05 5.64946e-08 0)
(2.54759e-05 2.44761e-08 0)
(2.54675e-05 -8.30854e-09 0)
(2.54785e-05 -4.16666e-08 0)
(2.55091e-05 -7.54019e-08 0)
(2.55596e-05 -1.0935e-07 0)
(2.56301e-05 -1.43345e-07 0)
(2.57204e-05 -1.77136e-07 0)
(2.58304e-05 -2.10406e-07 0)
(2.59597e-05 -2.4294e-07 0)
(2.61079e-05 -2.74654e-07 0)
(2.62744e-05 -3.05369e-07 0)
(2.64585e-05 -3.34791e-07 0)
(2.66596e-05 -3.6267e-07 0)
(2.68768e-05 -3.88887e-07 0)
(2.71088e-05 -4.13369e-07 0)
(2.73547e-05 -4.35861e-07 0)
(2.76132e-05 -4.56033e-07 0)
(2.78831e-05 -4.73717e-07 0)
(2.81629e-05 -4.88799e-07 0)
(2.84512e-05 -5.01152e-07 0)
(2.87464e-05 -5.10602e-07 0)
(2.90468e-05 -5.16939e-07 0)
(2.93506e-05 -5.2008e-07 0)
(2.96559e-05 -5.19949e-07 0)
(2.9961e-05 -5.16382e-07 0)
(3.02638e-05 -5.09283e-07 0)
(3.05624e-05 -4.98559e-07 0)
(3.08545e-05 -4.84067e-07 0)
(3.11381e-05 -4.6573e-07 0)
(3.14113e-05 -4.43459e-07 0)
(3.16716e-05 -4.17196e-07 0)
(3.19169e-05 -3.87031e-07 0)
(3.21449e-05 -3.52958e-07 0)
(3.23533e-05 -3.14856e-07 0)
(3.25401e-05 -2.72672e-07 0)
(3.27028e-05 -2.26371e-07 0)
(3.28391e-05 -1.76038e-07 0)
(3.2947e-05 -1.21864e-07 0)
(3.30244e-05 -6.39067e-08 0)
(3.3069e-05 -2.16506e-09 0)
(3.30787e-05 6.32942e-08 0)
(3.30514e-05 1.32372e-07 0)
(3.29853e-05 2.04922e-07 0)
(3.28785e-05 2.80711e-07 0)
(3.27293e-05 3.59529e-07 0)
(3.25358e-05 4.41237e-07 0)
(3.22966e-05 5.25636e-07 0)
(3.20105e-05 6.1251e-07 0)
(3.1676e-05 7.01608e-07 0)
(3.12921e-05 7.92539e-07 0)
(3.08578e-05 8.8493e-07 0)
(3.03723e-05 9.78493e-07 0)
(2.98351e-05 1.07289e-06 0)
(2.9246e-05 1.1677e-06 0)
(2.86048e-05 1.26248e-06 0)
(2.79118e-05 1.35669e-06 0)
(2.71674e-05 1.44978e-06 0)
(2.63726e-05 1.54125e-06 0)
(2.5528e-05 1.63065e-06 0)
(2.46352e-05 1.71732e-06 0)
(2.36961e-05 1.80047e-06 0)
(2.27128e-05 1.87936e-06 0)
(2.16879e-05 1.95324e-06 0)
(2.06243e-05 2.02136e-06 0)
(1.95253e-05 2.08288e-06 0)
(1.83948e-05 2.13683e-06 0)
(1.72375e-05 2.18213e-06 0)
(1.60583e-05 2.2178e-06 0)
(1.48627e-05 2.24283e-06 0)
(1.36566e-05 2.25602e-06 0)
(1.2447e-05 2.25596e-06 0)
(1.12412e-05 2.24131e-06 0)
(1.00471e-05 2.21077e-06 0)
(8.87345e-06 2.16296e-06 0)
(7.72966e-06 2.09636e-06 0)
(6.62566e-06 2.00947e-06 0)
(5.57205e-06 1.9009e-06 0)
(4.57982e-06 1.76949e-06 0)
(3.66015e-06 1.61438e-06 0)
(2.82434e-06 1.4352e-06 0)
(2.08352e-06 1.23251e-06 0)
(1.44788e-06 1.0085e-06 0)
(9.25626e-07 7.68292e-07 0)
(5.21498e-07 5.21709e-07 0)
(2.35577e-07 2.85247e-07 0)
(6.53664e-08 8.56245e-08 0)
(4.46772e-09 -2.79586e-08 0)
(2.61292e-08 -1.50922e-07 0)
(1.46833e-07 -2.94348e-07 0)
(4.30326e-07 -5.62451e-07 0)
(8.41172e-07 -9.15132e-07 0)
(1.37941e-06 -1.29026e-06 0)
(2.04556e-06 -1.65216e-06 0)
(2.83278e-06 -1.98367e-06 0)
(3.73057e-06 -2.2788e-06 0)
(4.72826e-06 -2.53329e-06 0)
(5.81184e-06 -2.7488e-06 0)
(6.96821e-06 -2.92607e-06 0)
(8.18484e-06 -3.06678e-06 0)
(9.44829e-06 -3.17427e-06 0)
(1.07468e-05 -3.25056e-06 0)
(1.20691e-05 -3.29816e-06 0)
(1.34039e-05 -3.31974e-06 0)
(1.47419e-05 -3.31738e-06 0)
(1.60742e-05 -3.29347e-06 0)
(1.73923e-05 -3.25054e-06 0)
(1.8689e-05 -3.19047e-06 0)
(1.99577e-05 -3.11518e-06 0)
(2.11925e-05 -3.0264e-06 0)
(2.2388e-05 -2.92592e-06 0)
(2.35399e-05 -2.81547e-06 0)
(2.46443e-05 -2.6964e-06 0)
(2.56979e-05 -2.57034e-06 0)
(2.66979e-05 -2.43839e-06 0)
(2.76421e-05 -2.3017e-06 0)
(2.85286e-05 -2.16164e-06 0)
(2.93565e-05 -2.01914e-06 0)
(3.01249e-05 -1.87517e-06 0)
(3.08333e-05 -1.73087e-06 0)
(3.14816e-05 -1.58695e-06 0)
(3.20702e-05 -1.44403e-06 0)
(3.25997e-05 -1.30308e-06 0)
(3.3071e-05 -1.16483e-06 0)
(3.34852e-05 -1.02963e-06 0)
(3.38439e-05 -8.97983e-07 0)
(3.41485e-05 -7.70517e-07 0)
(3.44009e-05 -6.47638e-07 0)
(3.46032e-05 -5.29769e-07 0)
(3.47576e-05 -4.17282e-07 0)
(3.48664e-05 -3.10477e-07 0)
(3.4932e-05 -2.09584e-07 0)
(3.49568e-05 -1.1478e-07 0)
(3.49437e-05 -2.61905e-08 0)
(3.48954e-05 5.60681e-08 0)
(3.48146e-05 1.31648e-07 0)
(3.47042e-05 2.00412e-07 0)
(3.45669e-05 2.62571e-07 0)
(3.44057e-05 3.1818e-07 0)
(3.42234e-05 3.67037e-07 0)
(3.40227e-05 4.09086e-07 0)
(3.38068e-05 4.4448e-07 0)
(3.35784e-05 4.73403e-07 0)
(3.334e-05 4.95983e-07 0)
(3.30945e-05 5.12324e-07 0)
(3.28445e-05 5.22564e-07 0)
(3.25927e-05 5.26818e-07 0)
(3.23416e-05 5.25251e-07 0)
(3.20936e-05 5.18177e-07 0)
(3.18509e-05 5.05889e-07 0)
(3.16156e-05 4.88582e-07 0)
(3.139e-05 4.6651e-07 0)
(3.11763e-05 4.3996e-07 0)
(3.09764e-05 4.09112e-07 0)
(3.07917e-05 3.74181e-07 0)
(3.06239e-05 3.35588e-07 0)
(3.04747e-05 2.93787e-07 0)
(3.03454e-05 2.49058e-07 0)
(3.02371e-05 2.01599e-07 0)
(3.01511e-05 1.51742e-07 0)
(3.00881e-05 9.99121e-08 0)
(3.00491e-05 4.64502e-08 0)
(3.00348e-05 -8.37148e-09 0)
(3.00456e-05 -6.42025e-08 0)
(3.00818e-05 -1.20627e-07 0)
(3.01436e-05 -1.77323e-07 0)
(3.02311e-05 -2.34012e-07 0)
(3.03442e-05 -2.90331e-07 0)
(3.04828e-05 -3.4588e-07 0)
(3.06462e-05 -4.0034e-07 0)
(3.08341e-05 -4.53448e-07 0)
(3.10456e-05 -5.04829e-07 0)
(3.12801e-05 -5.54042e-07 0)
(3.15365e-05 -6.00779e-07 0)
(3.18136e-05 -6.44786e-07 0)
(3.21101e-05 -6.85801e-07 0)
(3.24247e-05 -7.23508e-07 0)
(3.2756e-05 -7.57546e-07 0)
(3.31023e-05 -7.87614e-07 0)
(3.34617e-05 -8.13419e-07 0)
(3.38325e-05 -8.34674e-07 0)
(3.42126e-05 -8.51196e-07 0)
(3.46e-05 -8.62755e-07 0)
(3.49924e-05 -8.69078e-07 0)
(3.53875e-05 -8.69958e-07 0)
(3.57831e-05 -8.65194e-07 0)
(3.61765e-05 -8.5465e-07 0)
(3.65652e-05 -8.38229e-07 0)
(3.69468e-05 -8.15708e-07 0)
(3.73186e-05 -7.86891e-07 0)
(3.76779e-05 -7.51712e-07 0)
(3.80219e-05 -7.10072e-07 0)
(3.83477e-05 -6.61926e-07 0)
(3.86526e-05 -6.07279e-07 0)
(3.89339e-05 -5.46069e-07 0)
(3.91889e-05 -4.78314e-07 0)
(3.94145e-05 -4.04053e-07 0)
(3.96081e-05 -3.23238e-07 0)
(3.97666e-05 -2.35941e-07 0)
(3.98877e-05 -1.42366e-07 0)
(3.99686e-05 -4.26891e-08 0)
(4.00067e-05 6.29602e-08 0)
(3.99994e-05 1.74422e-07 0)
(3.99444e-05 2.91516e-07 0)
(3.98392e-05 4.13965e-07 0)
(3.96817e-05 5.41374e-07 0)
(3.94698e-05 6.73429e-07 0)
(3.92016e-05 8.09864e-07 0)
(3.88756e-05 9.50272e-07 0)
(3.84901e-05 1.09419e-06 0)
(3.80435e-05 1.2411e-06 0)
(3.75348e-05 1.39044e-06 0)
(3.69632e-05 1.54162e-06 0)
(3.63278e-05 1.69406e-06 0)
(3.56285e-05 1.84714e-06 0)
(3.48652e-05 2.00011e-06 0)
(3.40379e-05 2.15218e-06 0)
(3.31474e-05 2.30252e-06 0)
(3.21948e-05 2.45017e-06 0)
(3.11812e-05 2.59419e-06 0)
(3.01083e-05 2.73369e-06 0)
(2.89784e-05 2.86759e-06 0)
(2.77942e-05 2.99465e-06 0)
(2.65588e-05 3.11357e-06 0)
(2.52759e-05 3.22305e-06 0)
(2.39497e-05 3.32173e-06 0)
(2.25848e-05 3.40822e-06 0)
(2.11869e-05 3.48094e-06 0)
(1.97621e-05 3.53819e-06 0)
(1.83169e-05 3.57821e-06 0)
(1.68587e-05 3.5992e-06 0)
(1.53956e-05 3.59922e-06 0)
(1.39364e-05 3.57615e-06 0)
(1.24908e-05 3.5279e-06 0)
(1.10691e-05 3.45241e-06 0)
(9.68205e-06 3.34763e-06 0)
(8.34143e-06 3.21144e-06 0)
(7.05952e-06 3.04189e-06 0)
(5.84893e-06 2.83736e-06 0)
(4.72238e-06 2.5969e-06 0)
(3.69258e-06 2.32045e-06 0)
(2.77186e-06 2.00947e-06 0)
(1.97154e-06 1.66761e-06 0)
(1.3014e-06 1.30207e-06 0)
(7.68011e-07 9.25865e-07 0)
(3.73234e-07 5.6045e-07 0)
(1.19795e-07 2.38839e-07 0)
(1.45955e-08 1.67583e-08 0)
(2.87771e-08 -2.27478e-07 0)
(1.83736e-07 -5.40187e-07 0)
(5.41456e-07 -9.54829e-07 0)
(1.056e-06 -1.44951e-06 0)
(1.71736e-06 -1.9614e-06 0)
(2.52108e-06 -2.4538e-06 0)
(3.45678e-06 -2.90776e-06 0)
(4.51428e-06 -3.31201e-06 0)
(5.67947e-06 -3.66434e-06 0)
(6.93844e-06 -3.96346e-06 0)
(8.27748e-06 -4.21032e-06 0)
(9.6813e-06 -4.40768e-06 0)
(1.11364e-05 -4.55823e-06 0)
(1.26295e-05 -4.66501e-06 0)
(1.41476e-05 -4.7318e-06 0)
(1.56792e-05 -4.76152e-06 0)
(1.72131e-05 -4.75723e-06 0)
(1.87391e-05 -4.72239e-06 0)
(2.02478e-05 -4.6599e-06 0)
(2.17309e-05 -4.57271e-06 0)
(2.3181e-05 -4.46351e-06 0)
(2.45911e-05 -4.335e-06 0)
(2.59553e-05 -4.18955e-06 0)
(2.72684e-05 -4.02939e-06 0)
(2.85258e-05 -3.85679e-06 0)
(2.97238e-05 -3.67381e-06 0)
(3.08593e-05 -3.48234e-06 0)
(3.19294e-05 -3.28422e-06 0)
(3.29323e-05 -3.08095e-06 0)
(3.38667e-05 -2.874e-06 0)
(3.47314e-05 -2.66507e-06 0)
(3.55258e-05 -2.45552e-06 0)
(3.62503e-05 -2.24634e-06 0)
(3.69048e-05 -2.03876e-06 0)
(3.74901e-05 -1.83399e-06 0)
(3.80073e-05 -1.63287e-06 0)
(3.8458e-05 -1.43625e-06 0)
(3.88437e-05 -1.24503e-06 0)
(3.91663e-05 -1.05992e-06 0)
(3.94279e-05 -8.81482e-07 0)
(3.96309e-05 -7.10287e-07 0)
(3.97779e-05 -5.4682e-07 0)
(3.98718e-05 -3.91633e-07 0)
(3.99153e-05 -2.45221e-07 0)
(3.99116e-05 -1.07803e-07 0)
(3.98637e-05 2.05535e-08 0)
(3.97749e-05 1.39521e-07 0)
(3.96483e-05 2.48772e-07 0)
(3.94875e-05 3.48205e-07 0)
(3.92958e-05 4.37865e-07 0)
(3.90767e-05 5.177e-07 0)
(3.88332e-05 5.87625e-07 0)
(3.8569e-05 6.47778e-07 0)
(3.82874e-05 6.98281e-07 0)
(3.7992e-05 7.3913e-07 0)
(3.76858e-05 7.70499e-07 0)
(3.7372e-05 7.92713e-07 0)
(3.70537e-05 8.06022e-07 0)
(3.67342e-05 8.10636e-07 0)
(3.64164e-05 8.06819e-07 0)
(3.61032e-05 7.94823e-07 0)
(3.57973e-05 7.7491e-07 0)
(3.55014e-05 7.47541e-07 0)
(3.52179e-05 7.13287e-07 0)
(3.49494e-05 6.72513e-07 0)
(3.4698e-05 6.25417e-07 0)
(3.44658e-05 5.72378e-07 0)
(3.42547e-05 5.13987e-07 0)
(3.40668e-05 4.50768e-07 0)
(3.39034e-05 3.8311e-07 0)
(3.37661e-05 3.11445e-07 0)
(3.3656e-05 2.36315e-07 0)
(3.35746e-05 1.58275e-07 0)
(3.35226e-05 7.7811e-08 0)
(3.35008e-05 -4.62362e-09 0)
(3.35099e-05 -8.85521e-08 0)
(3.35503e-05 -1.73453e-07 0)
(3.36221e-05 -2.58795e-07 0)
(3.37255e-05 -3.4404e-07 0)
(3.38603e-05 -4.28653e-07 0)
(3.40263e-05 -5.12167e-07 0)
(3.42229e-05 -5.94126e-07 0)
(3.44495e-05 -6.7402e-07 0)
(3.47053e-05 -7.51305e-07 0)
(3.49894e-05 -8.2546e-07 0)
(3.53006e-05 -8.96062e-07 0)
(3.56373e-05 -9.62654e-07 0)
(3.5998e-05 -1.02471e-06 0)
(3.63814e-05 -1.08181e-06 0)
(3.67854e-05 -1.13352e-06 0)
(3.72083e-05 -1.17943e-06 0)
(3.76478e-05 -1.2191e-06 0)
(3.81018e-05 -1.25208e-06 0)
(3.85678e-05 -1.27807e-06 0)
(3.90433e-05 -1.29677e-06 0)
(3.95258e-05 -1.30779e-06 0)
(4.00125e-05 -1.31079e-06 0)
(4.05006e-05 -1.30552e-06 0)
(4.0987e-05 -1.29172e-06 0)
(4.14689e-05 -1.26918e-06 0)
(4.19431e-05 -1.23765e-06 0)
(4.24067e-05 -1.19688e-06 0)
(4.28563e-05 -1.14678e-06 0)
(4.32886e-05 -1.0873e-06 0)
(4.37001e-05 -1.01825e-06 0)
(4.40878e-05 -9.39524e-07 0)
(4.44483e-05 -8.51102e-07 0)
(4.47782e-05 -7.5303e-07 0)
(4.50742e-05 -6.45435e-07 0)
(4.5333e-05 -5.28366e-07 0)
(4.55513e-05 -4.01828e-07 0)
(4.57257e-05 -2.65975e-07 0)
(4.58532e-05 -1.21096e-07 0)
(4.59308e-05 3.25651e-08 0)
(4.59554e-05 1.94757e-07 0)
(4.59241e-05 3.65116e-07 0)
(4.58342e-05 5.43271e-07 0)
(4.56829e-05 7.2879e-07 0)
(4.5468e-05 9.21153e-07 0)
(4.51873e-05 1.11987e-06 0)
(4.48386e-05 1.32436e-06 0)
(4.44202e-05 1.53392e-06 0)
(4.39302e-05 1.7478e-06 0)
(4.33674e-05 1.96528e-06 0)
(4.27308e-05 2.18551e-06 0)
(4.20195e-05 2.40751e-06 0)
(4.12333e-05 2.63032e-06 0)
(4.03719e-05 2.85292e-06 0)
(3.94357e-05 3.07419e-06 0)
(3.84254e-05 3.29292e-06 0)
(3.73421e-05 3.5078e-06 0)
(3.61874e-05 3.71732e-06 0)
(3.49634e-05 3.92001e-06 0)
(3.36727e-05 4.11443e-06 0)
(3.23181e-05 4.29892e-06 0)
(3.09036e-05 4.47164e-06 0)
(2.94335e-05 4.63061e-06 0)
(2.79125e-05 4.77385e-06 0)
(2.63463e-05 4.89934e-06 0)
(2.47411e-05 5.00487e-06 0)
(2.31041e-05 5.08806e-06 0)
(2.14428e-05 5.14639e-06 0)
(1.97656e-05 5.17725e-06 0)
(1.80818e-05 5.17804e-06 0)
(1.64015e-05 5.14597e-06 0)
(1.47354e-05 5.07815e-06 0)
(1.30954e-05 4.97168e-06 0)
(1.14936e-05 4.82382e-06 0)
(9.94286e-06 4.63196e-06 0)
(8.4567e-06 4.39368e-06 0)
(7.04912e-06 4.107e-06 0)
(5.73411e-06 3.77084e-06 0)
(4.52557e-06 3.38547e-06 0)
(3.43698e-06 2.95317e-06 0)
(2.48085e-06 2.47911e-06 0)
(1.66844e-06 1.97256e-06 0)
(1.00875e-06 1.44887e-06 0)
(5.06854e-07 9.32457e-07 0)
(1.71842e-07 4.59963e-07 0)
(2.39821e-08 8.98463e-08 0)
(3.32507e-08 -3.25546e-07 0)
(2.21942e-07 -8.40015e-07 0)
(6.47553e-07 -1.43335e-06 0)
(1.25751e-06 -2.09152e-06 0)
(2.03251e-06 -2.75705e-06 0)
(2.96176e-06 -3.39349e-06 0)
(4.03491e-06 -3.97841e-06 0)
(5.2368e-06 -4.50178e-06 0)
(6.5531e-06 -4.95837e-06 0)
(7.96942e-06 -5.34675e-06 0)
(9.46936e-06 -5.66851e-06 0)
(1.10381e-05 -5.92604e-06 0)
(1.26604e-05 -6.12233e-06 0)
(1.43218e-05 -6.26159e-06 0)
(1.60089e-05 -6.34761e-06 0)
(1.77089e-05 -6.3846e-06 0)
(1.94095e-05 -6.37674e-06 0)
(2.10997e-05 -6.32803e-06 0)
(2.27693e-05 -6.24241e-06 0)
(2.44091e-05 -6.12347e-06 0)
(2.60106e-05 -5.97498e-06 0)
(2.75665e-05 -5.80049e-06 0)
(2.90701e-05 -5.60312e-06 0)
(3.05155e-05 -5.38589e-06 0)
(3.18977e-05 -5.15181e-06 0)
(3.32125e-05 -4.90345e-06 0)
(3.44562e-05 -4.64362e-06 0)
(3.5626e-05 -4.3747e-06 0)
(3.67198e-05 -4.09871e-06 0)
(3.77358e-05 -3.81792e-06 0)
(3.86728e-05 -3.53437e-06 0)
(3.95305e-05 -3.2497e-06 0)
(4.03088e-05 -2.96566e-06 0)
(4.10079e-05 -2.68394e-06 0)
(4.16287e-05 -2.40586e-06 0)
(4.21726e-05 -2.13265e-06 0)
(4.26411e-05 -1.86561e-06 0)
(4.3036e-05 -1.6059e-06 0)
(4.33595e-05 -1.3545e-06 0)
(4.36143e-05 -1.1123e-06 0)
(4.38029e-05 -8.8001e-07 0)
(4.39284e-05 -6.58305e-07 0)
(4.39937e-05 -4.47901e-07 0)
(4.40023e-05 -2.49366e-07 0)
(4.39578e-05 -6.30694e-08 0)
(4.38638e-05 1.10627e-07 0)
(4.37237e-05 2.71267e-07 0)
(4.35414e-05 4.18729e-07 0)
(4.33208e-05 5.52959e-07 0)
(4.30658e-05 6.73693e-07 0)
(4.27803e-05 7.80773e-07 0)
(4.24681e-05 8.7431e-07 0)
(4.21331e-05 9.54506e-07 0)
(4.17793e-05 1.02146e-06 0)
(4.14105e-05 1.07524e-06 0)
(4.10304e-05 1.11605e-06 0)
(4.06429e-05 1.14415e-06 0)
(4.02514e-05 1.15991e-06 0)
(3.98596e-05 1.16378e-06 0)
(3.94708e-05 1.15616e-06 0)
(3.90884e-05 1.13733e-06 0)
(3.87155e-05 1.10768e-06 0)
(3.83553e-05 1.0678e-06 0)
(3.80107e-05 1.01829e-06 0)
(3.76844e-05 9.59645e-07 0)
(3.73788e-05 8.92384e-07 0)
(3.70964e-05 8.17126e-07 0)
(3.68398e-05 7.34535e-07 0)
(3.66107e-05 6.45209e-07 0)
(3.64111e-05 5.49731e-07 0)
(3.62426e-05 4.48782e-07 0)
(3.61069e-05 3.43077e-07 0)
(3.60052e-05 2.33296e-07 0)
(3.59386e-05 1.20137e-07 0)
(3.59079e-05 4.3221e-09 0)