/*--------------------------------*- C++ -*----------------------------------*\
  =========                 |
  \\      /  F ield         | OpenFOAM: The Open Source CFD Toolbox
   \\    /   O peration     | Website:  https://openfoam.org
    \\  /    A nd           | Version:  7
     \\/     M anipulation  |
\*---------------------------------------------------------------------------*/
FoamFile
{
    version     2.0;
    format      ascii;
    class       volVectorField;
    location    "0.5";
    object      U;
}
// * * * * * * * * * * * * * * * * * * * * * * * * * * * * * * * * * * * * * //

dimensions      [0 1 -1 0 0 0 0];

internalField   nonuniform List<vector> 
51200
(
(4.01007e-08 6.44065e-08 0)
(-5.56451e-08 9.3267e-08 0)
(-9.63081e-08 4.39716e-08 0)
(-1.46866e-07 1.96853e-08 0)
(-1.20668e-07 -1.56865e-09 0)
(-5.82792e-08 -1.75555e-08 0)
(3.75335e-08 -2.99404e-08 0)
(1.62469e-07 -3.96601e-08 0)
(3.12653e-07 -4.77327e-08 0)
(4.84946e-07 -5.43429e-08 0)
(6.76495e-07 -5.9955e-08 0)
(8.84384e-07 -6.47089e-08 0)
(1.10654e-06 -6.85448e-08 0)
(1.34052e-06 -7.17443e-08 0)
(1.58433e-06 -7.44011e-08 0)
(1.83642e-06 -7.63369e-08 0)
(2.09471e-06 -7.78867e-08 0)
(2.35774e-06 -7.89927e-08 0)
(2.62435e-06 -7.95614e-08 0)
(2.89274e-06 -7.98942e-08 0)
(3.16181e-06 -7.98487e-08 0)
(3.43077e-06 -7.94402e-08 0)
(3.69841e-06 -7.87127e-08 0)
(3.96382e-06 -7.791e-08 0)
(4.22634e-06 -7.69755e-08 0)
(4.48518e-06 -7.57478e-08 0)
(4.73961e-06 -7.44306e-08 0)
(4.9892e-06 -7.29854e-08 0)
(5.23348e-06 -7.12374e-08 0)
(5.47188e-06 -6.94045e-08 0)
(5.70406e-06 -6.75859e-08 0)
(5.92985e-06 -6.56019e-08 0)
(6.14892e-06 -6.35042e-08 0)
(6.36096e-06 -6.14011e-08 0)
(6.56595e-06 -5.92453e-08 0)
(6.76382e-06 -5.70556e-08 0)
(6.95439e-06 -5.48616e-08 0)
(7.1377e-06 -5.26959e-08 0)
(7.31376e-06 -5.06053e-08 0)
(7.48254e-06 -4.85164e-08 0)
(7.64415e-06 -4.63743e-08 0)
(7.79867e-06 -4.42851e-08 0)
(7.94617e-06 -4.22712e-08 0)
(8.08686e-06 -4.02383e-08 0)
(8.2209e-06 -3.82359e-08 0)
(8.34834e-06 -3.6398e-08 0)
(8.46938e-06 -3.4665e-08 0)
(8.58428e-06 -3.29459e-08 0)
(8.69314e-06 -3.12199e-08 0)
(8.79617e-06 -2.9505e-08 0)
(8.89366e-06 -2.78607e-08 0)
(8.98587e-06 -2.63103e-08 0)
(9.07299e-06 -2.48528e-08 0)
(9.15521e-06 -2.34727e-08 0)
(9.23278e-06 -2.21371e-08 0)
(9.306e-06 -2.08603e-08 0)
(9.37508e-06 -1.96589e-08 0)
(9.44023e-06 -1.85184e-08 0)
(9.50167e-06 -1.74763e-08 0)
(9.55954e-06 -1.656e-08 0)
(9.61405e-06 -1.56816e-08 0)
(9.66551e-06 -1.47798e-08 0)
(9.71409e-06 -1.39233e-08 0)
(9.75987e-06 -1.31455e-08 0)
(9.80307e-06 -1.23761e-08 0)
(9.84393e-06 -1.16022e-08 0)
(9.88258e-06 -1.09061e-08 0)
(9.91916e-06 -1.03256e-08 0)
(9.95383e-06 -9.82092e-09 0)
(9.98669e-06 -9.36103e-09 0)
(1.00177e-05 -8.91848e-09 0)
(1.00471e-05 -8.42888e-09 0)
(1.00749e-05 -7.87818e-09 0)
(1.01012e-05 -7.35378e-09 0)
(1.01261e-05 -6.91451e-09 0)
(1.01496e-05 -6.52496e-09 0)
(1.01717e-05 -6.1391e-09 0)
(1.01924e-05 -5.74289e-09 0)
(1.02116e-05 -5.32417e-09 0)
(1.02293e-05 -4.866e-09 0)
(1.02457e-05 -4.36391e-09 0)
(1.02605e-05 -3.83079e-09 0)
(1.02737e-05 -3.30447e-09 0)
(1.02853e-05 -2.79978e-09 0)
(1.02951e-05 -2.29252e-09 0)
(1.03031e-05 -1.77737e-09 0)
(1.03091e-05 -1.22283e-09 0)
(1.0313e-05 -5.68821e-10 0)
(1.03145e-05 1.74271e-10 0)
(1.03137e-05 9.4647e-10 0)
(1.03102e-05 1.72622e-09 0)
(1.0304e-05 2.56024e-09 0)
(1.02949e-05 3.48548e-09 0)
(1.02827e-05 4.44569e-09 0)
(1.0267e-05 5.40294e-09 0)
(1.02478e-05 6.40841e-09 0)
(1.02248e-05 7.52302e-09 0)
(1.01978e-05 8.77566e-09 0)
(1.01665e-05 1.01062e-08 0)
(1.01308e-05 1.14414e-08 0)
(1.00904e-05 1.28156e-08 0)
(1.0045e-05 1.42626e-08 0)
(9.99444e-06 1.57949e-08 0)
(9.93838e-06 1.74472e-08 0)
(9.87665e-06 1.91847e-08 0)
(9.80907e-06 2.09409e-08 0)
(9.73533e-06 2.2711e-08 0)
(9.65521e-06 2.45187e-08 0)
(9.56845e-06 2.64217e-08 0)
(9.47486e-06 2.84708e-08 0)
(9.37432e-06 3.06084e-08 0)
(9.26662e-06 3.27629e-08 0)
(9.15154e-06 3.49264e-08 0)
(9.02895e-06 3.7092e-08 0)
(8.8987e-06 3.92928e-08 0)
(8.7606e-06 4.15727e-08 0)
(8.61456e-06 4.39158e-08 0)
(8.46043e-06 4.63219e-08 0)
(8.29817e-06 4.87665e-08 0)
(8.12785e-06 5.11533e-08 0)
(7.94939e-06 5.34663e-08 0)
(7.7627e-06 5.57841e-08 0)
(7.56789e-06 5.81309e-08 0)
(7.36506e-06 6.04916e-08 0)
(7.15429e-06 6.28529e-08 0)
(6.93578e-06 6.51446e-08 0)
(6.70967e-06 6.73287e-08 0)
(6.47614e-06 6.94572e-08 0)
(6.23553e-06 7.15225e-08 0)
(5.98815e-06 7.34727e-08 0)
(5.73428e-06 7.53193e-08 0)
(5.47442e-06 7.70482e-08 0)
(5.20915e-06 7.86106e-08 0)
(4.93896e-06 8.00116e-08 0)
(4.66448e-06 8.12404e-08 0)
(4.38644e-06 8.22404e-08 0)
(4.10547e-06 8.30044e-08 0)
(3.82243e-06 8.35286e-08 0)
(3.53838e-06 8.37462e-08 0)
(3.25426e-06 8.36461e-08 0)
(2.97107e-06 8.32671e-08 0)
(2.69015e-06 8.25286e-08 0)
(2.41289e-06 8.13123e-08 0)
(2.14062e-06 7.96191e-08 0)
(1.87491e-06 7.74739e-08 0)
(1.61747e-06 7.48255e-08 0)
(1.37001e-06 7.16027e-08 0)
(1.13446e-06 6.77502e-08 0)
(9.1299e-07 6.31695e-08 0)
(7.07845e-07 5.77713e-08 0)
(5.21269e-07 5.15757e-08 0)
(3.55755e-07 4.45787e-08 0)
(2.1395e-07 3.66471e-08 0)
(9.83402e-08 2.76652e-08 0)
(1.12033e-08 1.77021e-08 0)
(-4.55694e-08 7.09345e-09 0)
(-7.11698e-08 -3.38026e-09 0)
(-6.73771e-08 -1.21294e-08 0)
(-4.22305e-08 -1.65912e-08 0)
(-1.3155e-08 -1.14393e-08 0)
(5.93073e-08 2.275e-08 0)
(4.36854e-08 1.33226e-07 0)
(-1.01829e-09 6.38328e-08 0)
(1.97906e-08 -6.91422e-09 0)
(1.26364e-07 -8.27361e-08 0)
(3.15639e-07 -1.52238e-07 0)
(5.84944e-07 -2.13414e-07 0)
(9.27978e-07 -2.67467e-07 0)
(1.33797e-06 -3.14442e-07 0)
(1.80824e-06 -3.55432e-07 0)
(2.33136e-06 -3.91224e-07 0)
(2.9015e-06 -4.21851e-07 0)
(3.51166e-06 -4.48045e-07 0)
(4.15603e-06 -4.70079e-07 0)
(4.82955e-06 -4.88007e-07 0)
(5.52641e-06 -5.02532e-07 0)
(6.24211e-06 -5.13828e-07 0)
(6.97263e-06 -5.2187e-07 0)
(7.71329e-06 -5.27378e-07 0)
(8.46054e-06 -5.30461e-07 0)
(9.21114e-06 -5.3112e-07 0)
(9.96164e-06 -5.29711e-07 0)
(1.07094e-05 -5.26328e-07 0)
(1.14519e-05 -5.21357e-07 0)
(1.21867e-05 -5.149e-07 0)
(1.29118e-05 -5.07095e-07 0)
(1.36252e-05 -4.98182e-07 0)
(1.43255e-05 -4.88152e-07 0)
(1.50111e-05 -4.7712e-07 0)
(1.56808e-05 -4.65392e-07 0)
(1.63335e-05 -4.52981e-07 0)
(1.69683e-05 -4.3995e-07 0)
(1.75845e-05 -4.26547e-07 0)
(1.81815e-05 -4.12786e-07 0)
(1.87588e-05 -3.98693e-07 0)
(1.9316e-05 -3.84435e-07 0)
(1.9853e-05 -3.70027e-07 0)
(2.03696e-05 -3.55588e-07 0)
(2.08657e-05 -3.41279e-07 0)
(2.13416e-05 -3.27026e-07 0)
(2.17973e-05 -3.12872e-07 0)
(2.22329e-05 -2.99e-07 0)
(2.26487e-05 -2.85329e-07 0)
(2.30453e-05 -2.71809e-07 0)
(2.3423e-05 -2.58608e-07 0)
(2.37821e-05 -2.45844e-07 0)
(2.41233e-05 -2.33458e-07 0)
(2.44471e-05 -2.21462e-07 0)
(2.4754e-05 -2.09879e-07 0)
(2.50446e-05 -1.98689e-07 0)
(2.53194e-05 -1.87879e-07 0)
(2.55792e-05 -1.77506e-07 0)
(2.58247e-05 -1.67653e-07 0)
(2.60564e-05 -1.58291e-07 0)
(2.6275e-05 -1.49348e-07 0)
(2.64811e-05 -1.40842e-07 0)
(2.66754e-05 -1.3275e-07 0)
(2.68587e-05 -1.25065e-07 0)
(2.70315e-05 -1.17907e-07 0)
(2.71943e-05 -1.11276e-07 0)
(2.73478e-05 -1.04976e-07 0)
(2.74927e-05 -9.89761e-08 0)
(2.76293e-05 -9.34221e-08 0)
(2.77583e-05 -8.82898e-08 0)
(2.78801e-05 -8.3407e-08 0)
(2.79952e-05 -7.87522e-08 0)
(2.81041e-05 -7.44103e-08 0)
(2.82071e-05 -7.03834e-08 0)
(2.83048e-05 -6.66381e-08 0)
(2.83974e-05 -6.31804e-08 0)
(2.84852e-05 -5.99608e-08 0)
(2.85685e-05 -5.68349e-08 0)
(2.86475e-05 -5.37295e-08 0)
(2.87221e-05 -5.07254e-08 0)
(2.87928e-05 -4.78561e-08 0)
(2.88596e-05 -4.50424e-08 0)
(2.89227e-05 -4.22697e-08 0)
(2.89819e-05 -3.95628e-08 0)
(2.90372e-05 -3.68333e-08 0)
(2.90885e-05 -3.39602e-08 0)
(2.91358e-05 -3.09386e-08 0)
(2.91789e-05 -2.78075e-08 0)
(2.92176e-05 -2.45596e-08 0)
(2.92516e-05 -2.11483e-08 0)
(2.92808e-05 -1.75289e-08 0)
(2.93048e-05 -1.37381e-08 0)
(2.93234e-05 -9.76582e-09 0)
(2.9336e-05 -5.47205e-09 0)
(2.93422e-05 -8.03382e-10 0)
(2.93416e-05 4.17621e-09 0)
(2.93336e-05 9.45717e-09 0)
(2.93179e-05 1.51148e-08 0)
(2.92939e-05 2.1208e-08 0)
(2.9261e-05 2.76649e-08 0)
(2.92187e-05 3.44333e-08 0)
(2.91662e-05 4.16201e-08 0)
(2.9103e-05 4.93098e-08 0)
(2.90284e-05 5.75244e-08 0)
(2.89418e-05 6.62397e-08 0)
(2.88424e-05 7.53728e-08 0)
(2.87297e-05 8.49364e-08 0)
(2.8603e-05 9.49717e-08 0)
(2.84616e-05 1.05459e-07 0)
(2.83046e-05 1.1645e-07 0)
(2.81315e-05 1.27979e-07 0)
(2.79417e-05 1.3996e-07 0)
(2.77343e-05 1.5233e-07 0)
(2.75089e-05 1.65088e-07 0)
(2.72647e-05 1.78269e-07 0)
(2.70012e-05 1.9195e-07 0)
(2.67178e-05 2.06093e-07 0)
(2.6414e-05 2.20575e-07 0)
(2.60891e-05 2.35372e-07 0)
(2.57429e-05 2.50472e-07 0)
(2.53749e-05 2.65832e-07 0)
(2.49848e-05 2.81438e-07 0)
(2.45721e-05 2.97236e-07 0)
(2.41365e-05 3.13203e-07 0)
(2.36779e-05 3.29353e-07 0)
(2.31962e-05 3.45568e-07 0)
(2.26915e-05 3.61689e-07 0)
(2.21637e-05 3.77718e-07 0)
(2.16129e-05 3.93685e-07 0)
(2.10394e-05 4.09511e-07 0)
(2.04435e-05 4.25113e-07 0)
(1.98257e-05 4.40387e-07 0)
(1.91864e-05 4.55201e-07 0)
(1.85265e-05 4.69516e-07 0)
(1.78466e-05 4.8327e-07 0)
(1.71478e-05 4.96281e-07 0)
(1.64311e-05 5.08435e-07 0)
(1.56977e-05 5.1969e-07 0)
(1.49492e-05 5.29932e-07 0)
(1.41871e-05 5.39025e-07 0)
(1.34133e-05 5.46845e-07 0)
(1.26296e-05 5.53212e-07 0)
(1.18384e-05 5.57954e-07 0)
(1.10418e-05 5.60943e-07 0)
(1.02427e-05 5.61987e-07 0)
(9.44389e-06 5.60882e-07 0)
(8.64846e-06 5.57513e-07 0)
(7.85981e-06 5.5172e-07 0)
(7.08176e-06 5.43213e-07 0)
(6.31828e-06 5.31715e-07 0)
(5.57354e-06 5.17017e-07 0)
(4.85213e-06 4.98908e-07 0)
(4.15891e-06 4.77123e-07 0)
(3.49905e-06 4.51402e-07 0)
(2.87808e-06 4.21488e-07 0)
(2.30174e-06 3.8709e-07 0)
(1.7759e-06 3.48013e-07 0)
(1.30648e-06 3.04235e-07 0)
(8.99463e-07 2.55795e-07 0)
(5.60398e-07 2.02862e-07 0)
(2.93855e-07 1.46078e-07 0)
(1.02652e-07 8.70941e-08 0)
(-1.33564e-08 2.93897e-08 0)
(-6.01198e-08 -2.03094e-08 0)
(-5.26772e-08 -5.06436e-08 0)
(-1.96644e-08 -4.07122e-08 0)
(2.17193e-08 2.4828e-08 0)
(4.20032e-08 8.51499e-08 0)
(1.13726e-07 1.27428e-08 0)
(2.50315e-07 -1.3005e-07 0)
(4.86461e-07 -2.95799e-07 0)
(8.32015e-07 -4.6078e-07 0)
(1.28652e-06 -6.15828e-07 0)
(1.84604e-06 -7.57575e-07 0)
(2.50375e-06 -8.84808e-07 0)
(3.25046e-06 -9.98224e-07 0)
(4.078e-06 -1.09765e-06 0)
(4.97659e-06 -1.18424e-06 0)
(5.9372e-06 -1.25881e-06 0)
(6.9517e-06 -1.32155e-06 0)
(8.01117e-06 -1.37393e-06 0)
(9.108e-06 -1.41643e-06 0)
(1.02353e-05 -1.44934e-06 0)
(1.13854e-05 -1.47398e-06 0)
(1.25525e-05 -1.49084e-06 0)
(1.37307e-05 -1.50039e-06 0)
(1.49144e-05 -1.5036e-06 0)
(1.60989e-05 -1.50076e-06 0)
(1.72796e-05 -1.49243e-06 0)
(1.84523e-05 -1.47931e-06 0)
(1.96134e-05 -1.46175e-06 0)
(2.07597e-05 -1.44025e-06 0)
(2.18879e-05 -1.41536e-06 0)
(2.29957e-05 -1.38735e-06 0)
(2.40807e-05 -1.35667e-06 0)
(2.51408e-05 -1.32368e-06 0)
(2.61743e-05 -1.28871e-06 0)
(2.71798e-05 -1.25214e-06 0)
(2.81559e-05 -1.21422e-06 0)
(2.91019e-05 -1.17522e-06 0)
(3.00166e-05 -1.1355e-06 0)
(3.08998e-05 -1.09517e-06 0)
(3.1751e-05 -1.05438e-06 0)
(3.25698e-05 -1.01352e-06 0)
(3.33563e-05 -9.72736e-07 0)
(3.41107e-05 -9.32068e-07 0)
(3.4833e-05 -8.91856e-07 0)
(3.55235e-05 -8.52263e-07 0)
(3.61828e-05 -8.13243e-07 0)
(3.68115e-05 -7.74911e-07 0)
(3.741e-05 -7.37454e-07 0)
(3.79791e-05 -7.00911e-07 0)
(3.85197e-05 -6.6538e-07 0)
(3.90327e-05 -6.31021e-07 0)
(3.95188e-05 -5.97853e-07 0)
(3.99791e-05 -5.659e-07 0)
(4.04144e-05 -5.35188e-07 0)
(4.08257e-05 -5.05712e-07 0)
(4.12143e-05 -4.77519e-07 0)
(4.15811e-05 -4.50689e-07 0)
(4.19271e-05 -4.25247e-07 0)
(4.22533e-05 -4.01108e-07 0)
(4.25608e-05 -3.78126e-07 0)
(4.28507e-05 -3.56341e-07 0)
(4.31238e-05 -3.35898e-07 0)
(4.33813e-05 -3.16711e-07 0)
(4.36242e-05 -2.98611e-07 0)
(4.38533e-05 -2.81652e-07 0)
(4.40694e-05 -2.65862e-07 0)
(4.42734e-05 -2.51101e-07 0)
(4.44663e-05 -2.37308e-07 0)
(4.46488e-05 -2.2448e-07 0)
(4.48214e-05 -2.12471e-07 0)
(4.49849e-05 -2.0114e-07 0)
(4.51399e-05 -1.90507e-07 0)
(4.52868e-05 -1.8056e-07 0)
(4.54264e-05 -1.71182e-07 0)
(4.5559e-05 -1.62299e-07 0)
(4.56849e-05 -1.53869e-07 0)
(4.58042e-05 -1.45772e-07 0)
(4.59174e-05 -1.37831e-07 0)
(4.60246e-05 -1.29936e-07 0)
(4.61258e-05 -1.22119e-07 0)
(4.62211e-05 -1.144e-07 0)
(4.63105e-05 -1.06631e-07 0)
(4.63938e-05 -9.86196e-08 0)
(4.64708e-05 -9.03215e-08 0)
(4.65414e-05 -8.17224e-08 0)
(4.66051e-05 -7.2697e-08 0)
(4.66617e-05 -6.31348e-08 0)
(4.67106e-05 -5.29844e-08 0)
(4.67513e-05 -4.21847e-08 0)
(4.67833e-05 -3.06673e-08 0)
(4.68062e-05 -1.83489e-08 0)
(4.6819e-05 -5.19186e-09 0)
(4.68211e-05 8.819e-09 0)
(4.68116e-05 2.38171e-08 0)
(4.679e-05 3.99352e-08 0)
(4.67551e-05 5.71959e-08 0)
(4.67061e-05 7.55938e-08 0)
(4.6642e-05 9.51412e-08 0)
(4.65619e-05 1.15924e-07 0)
(4.64648e-05 1.38008e-07 0)
(4.63497e-05 1.61384e-07 0)
(4.62153e-05 1.86118e-07 0)
(4.60607e-05 2.12254e-07 0)
(4.58847e-05 2.39745e-07 0)
(4.56864e-05 2.68572e-07 0)
(4.54646e-05 2.98714e-07 0)
(4.52182e-05 3.30192e-07 0)
(4.49461e-05 3.63093e-07 0)
(4.46471e-05 3.97383e-07 0)
(4.43202e-05 4.32938e-07 0)
(4.39644e-05 4.69745e-07 0)
(4.35788e-05 5.07781e-07 0)
(4.31623e-05 5.46992e-07 0)
(4.27141e-05 5.87356e-07 0)
(4.22332e-05 6.28762e-07 0)
(4.17189e-05 6.7114e-07 0)
(4.11703e-05 7.14486e-07 0)
(4.05869e-05 7.58643e-07 0)
(3.99681e-05 8.03411e-07 0)
(3.93134e-05 8.48689e-07 0)
(3.86223e-05 8.94387e-07 0)
(3.78946e-05 9.40424e-07 0)
(3.713e-05 9.86694e-07 0)
(3.63286e-05 1.03296e-06 0)
(3.54905e-05 1.07899e-06 0)
(3.46159e-05 1.12469e-06 0)
(3.37052e-05 1.16988e-06 0)
(3.27589e-05 1.21427e-06 0)
(3.17776e-05 1.25767e-06 0)
(3.07624e-05 1.29987e-06 0)
(2.97144e-05 1.34056e-06 0)
(2.86349e-05 1.37951e-06 0)
(2.75255e-05 1.4164e-06 0)
(2.63878e-05 1.45087e-06 0)
(2.5224e-05 1.48264e-06 0)
(2.40364e-05 1.51147e-06 0)
(2.28275e-05 1.53696e-06 0)
(2.16002e-05 1.55868e-06 0)
(2.03577e-05 1.57622e-06 0)
(1.91034e-05 1.58916e-06 0)
(1.78412e-05 1.59704e-06 0)
(1.65754e-05 1.5994e-06 0)
(1.53104e-05 1.59572e-06 0)
(1.40512e-05 1.58549e-06 0)
(1.28032e-05 1.56822e-06 0)
(1.15722e-05 1.54336e-06 0)
(1.03642e-05 1.51027e-06 0)
(9.186e-06 1.46824e-06 0)
(8.04457e-06 1.41667e-06 0)
(6.94729e-06 1.35501e-06 0)
(5.90203e-06 1.28265e-06 0)
(4.91703e-06 1.19902e-06 0)
(4.00066e-06 1.10366e-06 0)
(3.16143e-06 9.96265e-07 0)
(2.40784e-06 8.76849e-07 0)
(1.74793e-06 7.45977e-07 0)
(1.1888e-06 6.04912e-07 0)
(7.36135e-07 4.5602e-07 0)
(3.93258e-07 3.03697e-07 0)
(1.5958e-07 1.55923e-07 0)
(2.73427e-08 2.67296e-08 0)
(-2.12075e-08 -6.06455e-08 0)
(-1.39155e-08 -6.76397e-08 0)
(1.69819e-08 -2.88648e-08 0)
(7.39422e-08 -1.11907e-08 0)
(2.33226e-07 -1.47997e-07 0)
(4.92981e-07 -3.86709e-07 0)
(8.74722e-07 -6.65647e-07 0)
(1.38818e-06 -9.51421e-07 0)
(2.03464e-06 -1.22683e-06 0)
(2.81011e-06 -1.48338e-06 0)
(3.70675e-06 -1.71821e-06 0)
(4.71596e-06 -1.92906e-06 0)
(5.82693e-06 -2.11631e-06 0)
(7.02881e-06 -2.28066e-06 0)
(8.31096e-06 -2.42226e-06 0)
(9.66216e-06 -2.54293e-06 0)
(1.10722e-05 -2.64373e-06 0)
(1.25315e-05 -2.72551e-06 0)
(1.40304e-05 -2.79009e-06 0)
(1.55599e-05 -2.83849e-06 0)
(1.7112e-05 -2.87174e-06 0)
(1.86789e-05 -2.89141e-06 0)
(2.02535e-05 -2.89837e-06 0)
(2.18296e-05 -2.89378e-06 0)
(2.34008e-05 -2.87894e-06 0)
(2.49619e-05 -2.8545e-06 0)
(2.6508e-05 -2.82151e-06 0)
(2.80344e-05 -2.78093e-06 0)
(2.95374e-05 -2.73352e-06 0)
(3.10134e-05 -2.68013e-06 0)
(3.24593e-05 -2.62151e-06 0)
(3.38722e-05 -2.5583e-06 0)
(3.525e-05 -2.49124e-06 0)
(3.65905e-05 -2.42091e-06 0)
(3.78921e-05 -2.34787e-06 0)
(3.91534e-05 -2.27279e-06 0)
(4.03733e-05 -2.19606e-06 0)
(4.15512e-05 -2.11811e-06 0)
(4.26863e-05 -2.0395e-06 0)
(4.37783e-05 -1.96059e-06 0)
(4.48273e-05 -1.88163e-06 0)
(4.58331e-05 -1.80304e-06 0)
(4.67961e-05 -1.72524e-06 0)
(4.77167e-05 -1.6484e-06 0)
(4.85956e-05 -1.57274e-06 0)
(4.94334e-05 -1.49859e-06 0)
(5.02311e-05 -1.42614e-06 0)
(5.09895e-05 -1.35547e-06 0)
(5.17097e-05 -1.28675e-06 0)
(5.23927e-05 -1.22014e-06 0)
(5.304e-05 -1.15581e-06 0)
(5.36526e-05 -1.09387e-06 0)
(5.4232e-05 -1.03439e-06 0)
(5.47794e-05 -9.77324e-07 0)
(5.52963e-05 -9.22688e-07 0)
(5.5784e-05 -8.7067e-07 0)
(5.62439e-05 -8.21291e-07 0)
(5.66775e-05 -7.74407e-07 0)
(5.70863e-05 -7.30006e-07 0)
(5.74715e-05 -6.88134e-07 0)
(5.78344e-05 -6.4869e-07 0)
(5.81765e-05 -6.11543e-07 0)
(5.84992e-05 -5.76674e-07 0)
(5.88035e-05 -5.44064e-07 0)
(5.90906e-05 -5.13571e-07 0)
(5.93619e-05 -4.85044e-07 0)
(5.96183e-05 -4.58439e-07 0)
(5.9861e-05 -4.3368e-07 0)
(6.00908e-05 -4.10596e-07 0)
(6.03087e-05 -3.89047e-07 0)
(6.05154e-05 -3.68912e-07 0)
(6.07117e-05 -3.49961e-07 0)
(6.08982e-05 -3.31986e-07 0)
(6.10755e-05 -3.14963e-07 0)
(6.12442e-05 -2.98853e-07 0)
(6.14045e-05 -2.83421e-07 0)
(6.15569e-05 -2.68393e-07 0)
(6.17016e-05 -2.53595e-07 0)
(6.18385e-05 -2.38919e-07 0)
(6.19677e-05 -2.2424e-07 0)
(6.20893e-05 -2.09378e-07 0)
(6.22031e-05 -1.94145e-07 0)
(6.23087e-05 -1.78393e-07 0)
(6.24059e-05 -1.6198e-07 0)
(6.24944e-05 -1.44734e-07 0)
(6.25734e-05 -1.26526e-07 0)
(6.26425e-05 -1.07235e-07 0)
(6.27009e-05 -8.66222e-08 0)
(6.2748e-05 -6.44967e-08 0)
(6.27828e-05 -4.08125e-08 0)
(6.28043e-05 -1.54911e-08 0)
(6.28117e-05 1.16119e-08 0)
(6.28039e-05 4.06716e-08 0)
(6.27799e-05 7.1813e-08 0)
(6.27384e-05 1.05068e-07 0)
(6.26781e-05 1.40559e-07 0)
(6.25977e-05 1.78449e-07 0)
(6.24959e-05 2.18808e-07 0)
(6.23713e-05 2.61673e-07 0)
(6.22226e-05 3.07044e-07 0)
(6.20484e-05 3.54983e-07 0)
(6.1847e-05 4.05612e-07 0)
(6.16171e-05 4.58934e-07 0)
(6.13571e-05 5.14919e-07 0)
(6.10656e-05 5.73583e-07 0)
(6.07411e-05 6.34879e-07 0)
(6.03822e-05 6.98788e-07 0)
(5.99873e-05 7.65326e-07 0)
(5.95548e-05 8.34411e-07 0)
(5.90836e-05 9.05992e-07 0)
(5.85723e-05 9.80041e-07 0)
(5.80195e-05 1.05638e-06 0)
(5.74241e-05 1.13484e-06 0)
(5.67848e-05 1.21533e-06 0)
(5.61006e-05 1.2977e-06 0)
(5.53705e-05 1.38182e-06 0)
(5.45935e-05 1.46755e-06 0)
(5.37688e-05 1.55458e-06 0)
(5.28959e-05 1.64265e-06 0)
(5.19743e-05 1.73153e-06 0)
(5.10035e-05 1.82095e-06 0)
(4.99833e-05 1.91066e-06 0)
(4.89137e-05 2.00042e-06 0)
(4.77948e-05 2.08984e-06 0)
(4.6627e-05 2.17852e-06 0)
(4.54108e-05 2.26608e-06 0)
(4.41468e-05 2.3521e-06 0)
(4.28362e-05 2.43609e-06 0)
(4.14803e-05 2.51766e-06 0)
(4.00804e-05 2.59631e-06 0)
(3.86386e-05 2.67147e-06 0)
(3.71567e-05 2.7426e-06 0)
(3.56373e-05 2.80912e-06 0)
(3.40832e-05 2.87037e-06 0)
(3.24974e-05 2.92571e-06 0)
(3.08834e-05 2.97448e-06 0)
(2.92451e-05 3.01594e-06 0)
(2.75867e-05 3.04922e-06 0)
(2.5913e-05 3.07354e-06 0)
(2.4229e-05 3.08811e-06 0)
(2.25403e-05 3.092e-06 0)
(2.08531e-05 3.08426e-06 0)
(1.91739e-05 3.06394e-06 0)
(1.75097e-05 3.03003e-06 0)
(1.58681e-05 2.98148e-06 0)
(1.42572e-05 2.91722e-06 0)
(1.26854e-05 2.83614e-06 0)
(1.1162e-05 2.73708e-06 0)
(9.69659e-06 2.61904e-06 0)
(8.29898e-06 2.48111e-06 0)
(6.97949e-06 2.32245e-06 0)
(5.7486e-06 2.14241e-06 0)
(4.61675e-06 1.94072e-06 0)
(3.59422e-06 1.71771e-06 0)
(2.69062e-06 1.47466e-06 0)
(1.91416e-06 1.21438e-06 0)
(1.27102e-06 9.41877e-07 0)
(7.64651e-07 6.65347e-07 0)
(3.94828e-07 3.97768e-07 0)
(1.54738e-07 1.59807e-07 0)
(2.89139e-08 -1.51952e-08 0)
(-3.93635e-09 -7.22405e-08 0)
(1.7189e-08 -6.58038e-08 0)
(1.13279e-07 -1.62547e-07 0)
(3.61428e-07 -4.12516e-07 0)
(7.46895e-07 -7.78349e-07 0)
(1.27838e-06 -1.1956e-06 0)
(1.96345e-06 -1.62377e-06 0)
(2.80185e-06 -2.03996e-06 0)
(3.78819e-06 -2.4325e-06 0)
(4.91529e-06 -2.7939e-06 0)
(6.17261e-06 -3.1217e-06 0)
(7.54855e-06 -3.41468e-06 0)
(9.03159e-06 -3.67254e-06 0)
(1.06088e-05 -3.89668e-06 0)
(1.22679e-05 -4.08825e-06 0)
(1.39974e-05 -4.24845e-06 0)
(1.57852e-05 -4.37946e-06 0)
(1.76205e-05 -4.48314e-06 0)
(1.9493e-05 -4.56104e-06 0)
(2.13924e-05 -4.61534e-06 0)
(2.33099e-05 -4.64764e-06 0)
(2.52369e-05 -4.65963e-06 0)
(2.71653e-05 -4.65332e-06 0)
(2.90883e-05 -4.63014e-06 0)
(3.0999e-05 -4.5917e-06 0)
(3.28915e-05 -4.53956e-06 0)
(3.47603e-05 -4.47504e-06 0)
(3.66005e-05 -4.39951e-06 0)
(3.84078e-05 -4.31426e-06 0)
(4.01784e-05 -4.22046e-06 0)
(4.19089e-05 -4.11929e-06 0)
(4.35963e-05 -4.01178e-06 0)
(4.52382e-05 -3.8989e-06 0)
(4.68324e-05 -3.7817e-06 0)
(4.83773e-05 -3.66098e-06 0)
(4.98716e-05 -3.53745e-06 0)
(5.13141e-05 -3.41203e-06 0)
(5.27042e-05 -3.28546e-06 0)
(5.40416e-05 -3.15824e-06 0)
(5.5326e-05 -3.03102e-06 0)
(5.65574e-05 -2.90446e-06 0)
(5.77361e-05 -2.77897e-06 0)
(5.88629e-05 -2.65494e-06 0)
(5.99383e-05 -2.53285e-06 0)
(6.09632e-05 -2.41313e-06 0)
(6.19387e-05 -2.29609e-06 0)
(6.2866e-05 -2.18203e-06 0)
(6.37464e-05 -2.07121e-06 0)
(6.45811e-05 -1.96377e-06 0)
(6.53718e-05 -1.85996e-06 0)
(6.61198e-05 -1.75998e-06 0)
(6.68271e-05 -1.66393e-06 0)
(6.74953e-05 -1.57189e-06 0)
(6.81258e-05 -1.48392e-06 0)
(6.87206e-05 -1.40011e-06 0)
(6.92813e-05 -1.32039e-06 0)
(6.98099e-05 -1.24472e-06 0)
(7.03079e-05 -1.1732e-06 0)
(7.07771e-05 -1.1058e-06 0)
(7.12192e-05 -1.04227e-06 0)
(7.16359e-05 -9.82548e-07 0)
(7.20288e-05 -9.26618e-07 0)
(7.23995e-05 -8.74323e-07 0)
(7.27494e-05 -8.25444e-07 0)
(7.30799e-05 -7.79841e-07 0)
(7.33925e-05 -7.37333e-07 0)
(7.36885e-05 -6.97682e-07 0)
(7.3969e-05 -6.60729e-07 0)
(7.42351e-05 -6.26355e-07 0)
(7.44879e-05 -5.94311e-07 0)
(7.47283e-05 -5.64246e-07 0)
(7.49571e-05 -5.35874e-07 0)
(7.51749e-05 -5.09034e-07 0)
(7.53823e-05 -4.83509e-07 0)
(7.558e-05 -4.58976e-07 0)
(7.57684e-05 -4.35181e-07 0)
(7.59476e-05 -4.11922e-07 0)
(7.61178e-05 -3.88899e-07 0)
(7.62789e-05 -3.65788e-07 0)
(7.6431e-05 -3.42351e-07 0)
(7.65739e-05 -3.18362e-07 0)
(7.67073e-05 -2.93527e-07 0)
(7.68306e-05 -2.67545e-07 0)
(7.69435e-05 -2.40187e-07 0)
(7.70452e-05 -2.11256e-07 0)
(7.71351e-05 -1.80522e-07 0)
(7.72122e-05 -1.47672e-07 0)
(7.72757e-05 -1.12431e-07 0)
(7.73244e-05 -7.46756e-08 0)
(7.73572e-05 -3.42048e-08 0)
(7.73728e-05 9.27862e-09 0)
(7.737e-05 5.59755e-08 0)
(7.73475e-05 1.06026e-07 0)
(7.73035e-05 1.59543e-07 0)
(7.72367e-05 2.16692e-07 0)
(7.71455e-05 2.77707e-07 0)
(7.7028e-05 3.42719e-07 0)
(7.68827e-05 4.1181e-07 0)
(7.67077e-05 4.85076e-07 0)
(7.65013e-05 5.62554e-07 0)
(7.62617e-05 6.44305e-07 0)
(7.5987e-05 7.304e-07 0)
(7.56753e-05 8.20862e-07 0)
(7.53248e-05 9.15732e-07 0)
(7.49337e-05 1.01498e-06 0)
(7.45e-05 1.11847e-06 0)
(7.4022e-05 1.22614e-06 0)
(7.34978e-05 1.33796e-06 0)
(7.29257e-05 1.45383e-06 0)
(7.23042e-05 1.57363e-06 0)
(7.16315e-05 1.69719e-06 0)
(7.09061e-05 1.82424e-06 0)
(7.01265e-05 1.9546e-06 0)
(6.92915e-05 2.08803e-06 0)
(6.83998e-05 2.22419e-06 0)
(6.74502e-05 2.36281e-06 0)
(6.64418e-05 2.5036e-06 0)
(6.53738e-05 2.64617e-06 0)
(6.42456e-05 2.79008e-06 0)
(6.30567e-05 2.93486e-06 0)
(6.1807e-05 3.08002e-06 0)
(6.04964e-05 3.2251e-06 0)
(5.91249e-05 3.36964e-06 0)
(5.7693e-05 3.51296e-06 0)
(5.62015e-05 3.65436e-06 0)
(5.46512e-05 3.79322e-06 0)
(5.30434e-05 3.92883e-06 0)
(5.13798e-05 4.06041e-06 0)
(4.96623e-05 4.18715e-06 0)
(4.78931e-05 4.30821e-06 0)
(4.60748e-05 4.42269e-06 0)
(4.42104e-05 4.52964e-06 0)
(4.23034e-05 4.62809e-06 0)
(4.03577e-05 4.71692e-06 0)
(3.83774e-05 4.79498e-06 0)
(3.63674e-05 4.86115e-06 0)
(3.43329e-05 4.91419e-06 0)
(3.22797e-05 4.95275e-06 0)
(3.0214e-05 4.97551e-06 0)
(2.81428e-05 4.98112e-06 0)
(2.60733e-05 4.96809e-06 0)
(2.40135e-05 4.9349e-06 0)
(2.19721e-05 4.88e-06 0)
(1.9958e-05 4.80175e-06 0)
(1.7981e-05 4.69851e-06 0)
(1.60511e-05 4.56871e-06 0)
(1.41794e-05 4.41076e-06 0)
(1.2377e-05 4.22317e-06 0)
(1.06556e-05 4.00458e-06 0)
(9.02719e-06 3.75394e-06 0)
(7.50363e-06 3.47063e-06 0)
(6.09683e-06 3.15461e-06 0)
(4.81841e-06 2.8067e-06 0)
(3.67917e-06 2.42916e-06 0)
(2.68838e-06 2.02638e-06 0)
(1.85316e-06 1.60597e-06 0)
(1.17752e-06 1.18014e-06 0)
(6.61707e-07 7.67246e-07 0)
(3.00996e-07 3.93871e-07 0)
(8.59877e-08 1.00426e-07 0)
(6.8269e-09 -4.72139e-08 0)
(2.20194e-08 -1.28244e-07 0)
(1.59553e-07 -3.79916e-07 0)
(4.96047e-07 -7.82134e-07 0)
(1.00532e-06 -1.30603e-06 0)
(1.68597e-06 -1.88546e-06 0)
(2.54101e-06 -2.47647e-06 0)
(3.56696e-06 -3.05282e-06 0)
(4.75821e-06 -3.59771e-06 0)
(6.10521e-06 -4.10271e-06 0)
(7.59672e-06 -4.56281e-06 0)
(9.22104e-06 -4.97545e-06 0)
(1.09644e-05 -5.34057e-06 0)
(1.28132e-05 -5.65904e-06 0)
(1.47546e-05 -5.93178e-06 0)
(1.67748e-05 -6.16102e-06 0)
(1.8861e-05 -6.34895e-06 0)
(2.10011e-05 -6.49778e-06 0)
(2.3183e-05 -6.61031e-06 0)
(2.53958e-05 -6.68888e-06 0)
(2.7629e-05 -6.73592e-06 0)
(2.98727e-05 -6.75406e-06 0)
(3.21181e-05 -6.74553e-06 0)
(3.43569e-05 -6.71264e-06 0)
(3.65813e-05 -6.65773e-06 0)
(3.87846e-05 -6.58281e-06 0)
(4.09602e-05 -6.48998e-06 0)
(4.31026e-05 -6.38114e-06 0)
(4.52067e-05 -6.25806e-06 0)
(4.7268e-05 -6.12254e-06 0)
(4.92826e-05 -5.9762e-06 0)
(5.12471e-05 -5.82053e-06 0)
(5.31584e-05 -5.65709e-06 0)
(5.50142e-05 -5.48723e-06 0)
(5.68124e-05 -5.3121e-06 0)
(5.85515e-05 -5.13294e-06 0)
(6.02302e-05 -4.95096e-06 0)
(6.18476e-05 -4.76707e-06 0)
(6.34034e-05 -4.58222e-06 0)
(6.48972e-05 -4.39741e-06 0)
(6.63292e-05 -4.21346e-06 0)
(6.76997e-05 -4.03098e-06 0)
(6.90093e-05 -3.8507e-06 0)
(7.02589e-05 -3.67328e-06 0)
(7.14494e-05 -3.49917e-06 0)
(7.25822e-05 -3.32889e-06 0)
(7.36586e-05 -3.16297e-06 0)
(7.46801e-05 -3.00176e-06 0)
(7.56484e-05 -2.84557e-06 0)
(7.65651e-05 -2.69471e-06 0)
(7.74321e-05 -2.54935e-06 0)
(7.82515e-05 -2.40964e-06 0)
(7.90251e-05 -2.27586e-06 0)
(7.9755e-05 -2.14813e-06 0)
(8.04431e-05 -2.02642e-06 0)
(8.10918e-05 -1.91067e-06 0)
(8.17029e-05 -1.80094e-06 0)
(8.22784e-05 -1.69726e-06 0)
(8.28206e-05 -1.59948e-06 0)
(8.33313e-05 -1.50743e-06 0)
(8.38127e-05 -1.42104e-06 0)
(8.42664e-05 -1.34016e-06 0)
(8.46945e-05 -1.26454e-06 0)
(8.50987e-05 -1.19399e-06 0)
(8.54807e-05 -1.12831e-06 0)
(8.58422e-05 -1.06716e-06 0)
(8.61847e-05 -1.01021e-06 0)
(8.65094e-05 -9.5725e-07 0)
(8.68178e-05 -9.07976e-07 0)
(8.71111e-05 -8.61999e-07 0)
(8.73904e-05 -8.18986e-07 0)
(8.76567e-05 -7.78632e-07 0)
(8.79107e-05 -7.40558e-07 0)
(8.81532e-05 -7.04323e-07 0)
(8.83848e-05 -6.69497e-07 0)
(8.8606e-05 -6.35759e-07 0)
(8.8817e-05 -6.0281e-07 0)
(8.9018e-05 -5.70214e-07 0)
(8.92091e-05 -5.37504e-07 0)
(8.93902e-05 -5.04323e-07 0)
(8.9561e-05 -4.70324e-07 0)
(8.97212e-05 -4.35087e-07 0)
(8.98704e-05 -3.98194e-07 0)
(9.00077e-05 -3.59306e-07 0)
(9.01325e-05 -3.18059e-07 0)
(9.0244e-05 -2.74054e-07 0)
(9.03411e-05 -2.26941e-07 0)
(9.04226e-05 -1.76403e-07 0)
(9.04873e-05 -1.22159e-07 0)
(9.05338e-05 -6.38861e-08 0)
(9.05607e-05 -1.18505e-09 0)
(9.05664e-05 6.62113e-08 0)
(9.05493e-05 1.38514e-07 0)
(9.05075e-05 2.15992e-07 0)
(9.04392e-05 2.98872e-07 0)
(9.03426e-05 3.87365e-07 0)
(9.02156e-05 4.81666e-07 0)
(9.00562e-05 5.81928e-07 0)
(8.98623e-05 6.8834e-07 0)
(8.96317e-05 8.0102e-07 0)
(8.93623e-05 9.19978e-07 0)
(8.9052e-05 1.04527e-06 0)
(8.86984e-05 1.17698e-06 0)
(8.82995e-05 1.31513e-06 0)
(8.78529e-05 1.45969e-06 0)
(8.73565e-05 1.61054e-06 0)
(8.68081e-05 1.76752e-06 0)
(8.62057e-05 1.93061e-06 0)
(8.55471e-05 2.09962e-06 0)
(8.48305e-05 2.2743e-06 0)
(8.40538e-05 2.45441e-06 0)
(8.32152e-05 2.63969e-06 0)
(8.2313e-05 2.82981e-06 0)
(8.13457e-05 3.02445e-06 0)
(8.03118e-05 3.22313e-06 0)
(7.92099e-05 3.42534e-06 0)
(7.80391e-05 3.63063e-06 0)
(7.67982e-05 3.83851e-06 0)
(7.54866e-05 4.04836e-06 0)
(7.41037e-05 4.25948e-06 0)
(7.26494e-05 4.47119e-06 0)
(7.11235e-05 4.68271e-06 0)
(6.95263e-05 4.89326e-06 0)
(6.78583e-05 5.10198e-06 0)
(6.61201e-05 5.30789e-06 0)
(6.43131e-05 5.51e-06 0)
(6.24387e-05 5.70732e-06 0)
(6.04989e-05 5.89875e-06 0)
(5.84958e-05 6.08306e-06 0)
(5.64322e-05 6.25898e-06 0)
(5.43112e-05 6.42526e-06 0)
(5.21362e-05 6.5805e-06 0)
(4.99114e-05 6.72322e-06 0)
(4.76413e-05 6.8519e-06 0)
(4.53308e-05 6.96489e-06 0)
(4.29855e-05 7.06048e-06 0)
(4.06116e-05 7.13698e-06 0)
(3.82157e-05 7.19252e-06 0)
(3.58052e-05 7.22512e-06 0)
(3.33881e-05 7.2328e-06 0)
(3.09729e-05 7.21356e-06 0)
(2.85686e-05 7.16528e-06 0)
(2.61851e-05 7.08575e-06 0)
(2.38328e-05 6.97275e-06 0)
(2.15226e-05 6.82406e-06 0)
(1.92663e-05 6.63754e-06 0)
(1.7076e-05 6.41114e-06 0)
(1.49644e-05 6.14295e-06 0)
(1.29444e-05 5.83127e-06 0)
(1.10294e-05 5.47478e-06 0)
(9.23247e-06 5.07289e-06 0)
(7.56669e-06 4.62596e-06 0)
(6.04458e-06 4.13561e-06 0)
(4.67798e-06 3.60525e-06 0)
(3.47725e-06 3.04091e-06 0)
(2.4508e-06 2.45249e-06 0)
(1.60417e-06 1.8554e-06 0)
(9.39034e-07 1.27257e-06 0)
(4.53103e-07 7.35903e-07 0)
(1.44502e-07 2.90782e-07 0)
(1.73204e-08 8.77455e-09 0)
(2.87801e-08 -2.16589e-07 0)
(2.08752e-07 -6.645e-07 0)
(6.3121e-07 -1.25697e-06 0)
(1.26052e-06 -1.96774e-06 0)
(2.08632e-06 -2.73248e-06 0)
(3.10558e-06 -3.50607e-06 0)
(4.31345e-06 -4.25819e-06 0)
(5.70057e-06 -4.97088e-06 0)
(7.25635e-06 -5.63294e-06 0)
(8.96918e-06 -6.23755e-06 0)
(1.0825e-05 -6.78177e-06 0)
(1.28097e-05 -7.26486e-06 0)
(1.49091e-05 -7.68672e-06 0)
(1.71088e-05 -8.0493e-06 0)
(1.93942e-05 -8.35475e-06 0)
(2.17516e-05 -8.60549e-06 0)
(2.41675e-05 -8.80468e-06 0)
(2.66289e-05 -8.95541e-06 0)
(2.91238e-05 -9.06073e-06 0)
(3.16407e-05 -9.12408e-06 0)
(3.41688e-05 -9.14854e-06 0)
(3.66982e-05 -9.13714e-06 0)
(3.92196e-05 -9.09303e-06 0)
(4.17246e-05 -9.01904e-06 0)
(4.42053e-05 -8.91804e-06 0)
(4.66548e-05 -8.79276e-06 0)
(4.90667e-05 -8.6457e-06 0)
(5.14352e-05 -8.47935e-06 0)
(5.37553e-05 -8.29607e-06 0)
(5.60226e-05 -8.09796e-06 0)
(5.82332e-05 -7.8872e-06 0)
(6.03838e-05 -7.66578e-06 0)
(6.24716e-05 -7.43543e-06 0)
(6.44944e-05 -7.19794e-06 0)
(6.64502e-05 -6.95502e-06 0)
(6.83377e-05 -6.70808e-06 0)
(7.0156e-05 -6.45846e-06 0)
(7.19045e-05 -6.20757e-06 0)
(7.35828e-05 -5.95665e-06 0)
(7.51913e-05 -5.70671e-06 0)
(7.67302e-05 -5.4588e-06 0)
(7.82002e-05 -5.21392e-06 0)
(7.96023e-05 -4.97287e-06 0)
(8.09377e-05 -4.73638e-06 0)
(8.22077e-05 -4.50512e-06 0)
(8.34139e-05 -4.27969e-06 0)
(8.45581e-05 -4.06064e-06 0)
(8.56421e-05 -3.84852e-06 0)
(8.66679e-05 -3.64367e-06 0)
(8.76377e-05 -3.4463e-06 0)
(8.85537e-05 -3.25671e-06 0)
(8.9418e-05 -3.0752e-06 0)
(9.0233e-05 -2.90187e-06 0)
(9.10012e-05 -2.73673e-06 0)
(9.17248e-05 -2.57986e-06 0)
(9.24062e-05 -2.4313e-06 0)
(9.30478e-05 -2.29094e-06 0)
(9.36519e-05 -2.15861e-06 0)
(9.42209e-05 -2.0342e-06 0)
(9.4757e-05 -1.91756e-06 0)
(9.52624e-05 -1.80843e-06 0)
(9.57391e-05 -1.70651e-06 0)
(9.61894e-05 -1.61153e-06 0)
(9.6615e-05 -1.52317e-06 0)
(9.70181e-05 -1.44103e-06 0)
(9.74002e-05 -1.36476e-06 0)
(9.77628e-05 -1.29399e-06 0)
(9.81076e-05 -1.22822e-06 0)
(9.8436e-05 -1.16689e-06 0)
(9.87493e-05 -1.10963e-06 0)
(9.90483e-05 -1.05606e-06 0)
(9.93343e-05 -1.00559e-06 0)