/*--------------------------------*- C++ -*----------------------------------*\
  =========                 |
  \\      /  F ield         | OpenFOAM: The Open Source CFD Toolbox
   \\    /   O peration     | Website:  https://openfoam.org
    \\  /    A nd           | Version:  7
     \\/     M anipulation  |
\*---------------------------------------------------------------------------*/
FoamFile
{
    version     2.0;
    format      ascii;
    class       volScalarField;
    location    "0.2375";
    object      p;
}
// * * * * * * * * * * * * * * * * * * * * * * * * * * * * * * * * * * * * * //

dimensions      [0 2 -2 0 0 0 0];

internalField   nonuniform List<scalar> 
51200
(
-7.18872e-08
2.96204e-06
7.43934e-06
1.16446e-05
1.49007e-05
1.74798e-05
1.95301e-05
2.11571e-05
2.24349e-05
2.34216e-05
2.41661e-05
2.46999e-05
2.50483e-05
2.52346e-05
2.52775e-05
2.52018e-05
2.5022e-05
2.4743e-05
2.43764e-05
2.39363e-05
2.34321e-05
2.28713e-05
2.22599e-05
2.15979e-05
2.08933e-05
2.01581e-05
1.93967e-05
1.86132e-05
1.78151e-05
1.70096e-05
1.61984e-05
1.538e-05
1.45559e-05
1.37298e-05
1.29048e-05
1.20874e-05
1.12862e-05
1.05035e-05
9.73438e-06
8.97486e-06
8.22617e-06
7.49217e-06
6.77608e-06
6.07977e-06
5.40445e-06
4.75036e-06
4.11612e-06
3.50177e-06
2.91067e-06
2.34541e-06
1.80482e-06
1.28748e-06
7.94706e-07
3.28581e-07
-1.11805e-07
-5.30948e-07
-9.32208e-07
-1.31333e-06
-1.67012e-06
-2.0037e-06
-2.31906e-06
-2.61835e-06
-2.89905e-06
-3.15718e-06
-3.39227e-06
-3.60899e-06
-3.81145e-06
-3.99929e-06
-4.17089e-06
-4.32729e-06
-4.47237e-06
-4.61012e-06
-4.74194e-06
-4.866e-06
-4.97984e-06
-5.08313e-06
-5.17738e-06
-5.265e-06
-5.34971e-06
-5.43512e-06
-5.52279e-06
-5.61264e-06
-5.70476e-06
-5.80087e-06
-5.90346e-06
-6.01367e-06
-6.13173e-06
-6.25942e-06
-6.40075e-06
-6.55875e-06
-6.7333e-06
-6.92293e-06
-7.12709e-06
-7.34776e-06
-7.58909e-06
-7.85363e-06
-8.14167e-06
-8.4526e-06
-8.78589e-06
-9.14263e-06
-9.52567e-06
-9.93821e-06
-1.03825e-05
-1.08587e-05
-1.13646e-05
-1.1898e-05
-1.24585e-05
-1.30479e-05
-1.36696e-05
-1.43263e-05
-1.502e-05
-1.57502e-05
-1.65134e-05
-1.73055e-05
-1.81244e-05
-1.89724e-05
-1.98551e-05
-2.07749e-05
-2.17288e-05
-2.27106e-05
-2.37171e-05
-2.47503e-05
-2.58132e-05
-2.69044e-05
-2.80188e-05
-2.91514e-05
-3.03003e-05
-3.14669e-05
-3.26528e-05
-3.38555e-05
-3.50689e-05
-3.62875e-05
-3.75075e-05
-3.87262e-05
-3.99422e-05
-4.11534e-05
-4.23556e-05
-4.35439e-05
-4.4712e-05
-4.58534e-05
-4.69627e-05
-4.80364e-05
-4.90708e-05
-5.00613e-05
-5.10026e-05
-5.18882e-05
-5.27106e-05
-5.34625e-05
-5.4137e-05
-5.47285e-05
-5.52335e-05
-5.56486e-05
-5.59681e-05
-5.61853e-05
-5.62979e-05
-5.63108e-05
-5.6236e-05
-5.60933e-05
-5.59186e-05
-5.57785e-05
2.71486e-06
5.6994e-06
9.29483e-06
1.26612e-05
1.548e-05
1.77837e-05
1.96589e-05
2.11788e-05
2.23943e-05
2.33525e-05
2.40867e-05
2.46291e-05
2.50044e-05
2.52244e-05
2.53083e-05
2.52751e-05
2.51377e-05
2.49082e-05
2.45948e-05
2.42049e-05
2.3751e-05
2.32444e-05
2.26876e-05
2.20831e-05
2.14371e-05
2.07553e-05
2.00433e-05
1.93059e-05
1.85493e-05
1.77795e-05
1.7001e-05
1.62164e-05
1.54285e-05
1.46386e-05
1.38468e-05
1.30575e-05
1.22781e-05
1.15123e-05
1.07592e-05
1.00171e-05
9.28522e-06
8.56349e-06
7.85292e-06
7.15724e-06
6.48122e-06
5.82603e-06
5.18899e-06
4.5694e-06
3.97079e-06
3.39564e-06
2.84241e-06
2.30904e-06
1.79721e-06
1.31069e-06
8.49077e-07
4.07764e-07
-1.68567e-08
-4.24359e-07
-8.11567e-07
-1.1779e-06
-1.52669e-06
-1.85951e-06
-2.17433e-06
-2.46896e-06
-2.74354e-06
-3.00053e-06
-3.242e-06
-3.46863e-06
-3.68149e-06
-3.8824e-06
-4.07314e-06
-4.25489e-06
-4.42838e-06
-4.59441e-06
-4.75393e-06
-4.90737e-06
-5.05332e-06
-5.18993e-06
-5.31926e-06
-5.44741e-06
-5.57929e-06
-5.71576e-06
-5.85502e-06
-5.99698e-06
-6.14489e-06
-6.30196e-06
-6.46834e-06
-6.64245e-06
-6.8251e-06
-7.02047e-06
-7.23295e-06
-7.46463e-06
-7.71384e-06
-7.97746e-06
-8.25599e-06
-8.55307e-06
-8.87252e-06
-9.21641e-06
-9.58432e-06
-9.97516e-06
-1.03894e-05
-1.08293e-05
-1.12976e-05
-1.17959e-05
-1.23229e-05
-1.28758e-05
-1.34539e-05
-1.40595e-05
-1.46963e-05
-1.53666e-05
-1.60702e-05
-1.68058e-05
-1.7571e-05
-1.83641e-05
-1.91845e-05
-2.00324e-05
-2.091e-05
-2.18195e-05
-2.27603e-05
-2.37287e-05
-2.4721e-05
-2.57366e-05
-2.67774e-05
-2.78436e-05
-2.89313e-05
-3.00359e-05
-3.11539e-05
-3.22853e-05
-3.3432e-05
-3.45939e-05
-3.57663e-05
-3.69431e-05
-3.81187e-05
-3.92897e-05
-4.04548e-05
-4.16129e-05
-4.27613e-05
-4.38953e-05
-4.50087e-05
-4.60948e-05
-4.71478e-05
-4.81643e-05
-4.91419e-05
-5.0077e-05
-5.09647e-05
-5.17988e-05
-5.25728e-05
-5.32801e-05
-5.39152e-05
-5.44728e-05
-5.49491e-05
-5.53425e-05
-5.56508e-05
-5.58706e-05
-5.60003e-05
-5.60451e-05
-5.6019e-05
-5.5939e-05
-5.58175e-05
-5.56741e-05
6.88191e-06
9.08673e-06
1.16113e-05
1.41666e-05
1.64751e-05
1.84553e-05
2.01198e-05
2.1497e-05
2.26245e-05
2.35248e-05
2.42247e-05
2.47519e-05
2.51242e-05
2.53585e-05
2.54656e-05
2.54553e-05
2.53456e-05
2.51492e-05
2.48713e-05
2.452e-05
2.41046e-05
2.36337e-05
2.31144e-05
2.25507e-05
2.19447e-05
2.13026e-05
2.063e-05
1.99307e-05
1.92099e-05
1.84715e-05
1.77194e-05
1.69592e-05
1.61959e-05
1.54313e-05
1.46657e-05
1.39013e-05
1.31416e-05
1.23895e-05
1.1647e-05
1.09155e-05
1.01955e-05
9.4839e-06
8.7792e-06
8.0858e-06
7.40981e-06
6.75259e-06
6.11212e-06
5.48805e-06
4.88319e-06
4.29951e-06
3.73531e-06
3.1889e-06
2.66235e-06
2.15863e-06
1.67724e-06
1.21549e-06
7.71236e-07
3.43247e-07
-6.81514e-08
-4.62548e-07
-8.40752e-07
-1.20169e-06
-1.54359e-06
-1.86763e-06
-2.17559e-06
-2.46721e-06
-2.74179e-06
-3.0006e-06
-3.24747e-06
-3.48623e-06
-3.71751e-06
-3.93904e-06
-4.14934e-06
-4.35062e-06
-4.54682e-06
-4.73965e-06
-4.92695e-06
-5.10506e-06
-5.27447e-06
-5.4414e-06
-5.61234e-06
-5.78906e-06
-5.9691e-06
-6.15072e-06
-6.33675e-06
-6.53204e-06
-6.73812e-06
-6.95223e-06
-7.17232e-06
-7.4016e-06
-7.64664e-06
-7.91248e-06
-8.19843e-06
-8.49914e-06
-8.81181e-06
-9.13927e-06
-9.48679e-06
-9.85827e-06
-1.02543e-05
-1.06733e-05
-1.11148e-05
-1.15801e-05
-1.20713e-05
-1.25897e-05
-1.31344e-05
-1.37031e-05
-1.42956e-05
-1.4915e-05
-1.55659e-05
-1.62498e-05
-1.69645e-05
-1.77062e-05
-1.84733e-05
-1.92667e-05
-2.00881e-05
-2.09375e-05
-2.1814e-05
-2.2717e-05
-2.36468e-05
-2.46033e-05
-2.55841e-05
-2.65871e-05
-2.76118e-05
-2.86578e-05
-2.9723e-05
-3.08041e-05
-3.1898e-05
-3.30031e-05
-3.41202e-05
-3.52494e-05
-3.63879e-05
-3.75299e-05
-3.86695e-05
-3.98026e-05
-4.09279e-05
-4.20445e-05
-4.31501e-05
-4.42405e-05
-4.53097e-05
-4.63515e-05
-4.73605e-05
-4.83332e-05
-4.92671e-05
-5.01595e-05
-5.1006e-05
-5.18004e-05
-5.25362e-05
-5.32086e-05
-5.38134e-05
-5.43462e-05
-5.4803e-05
-5.51815e-05
-5.5481e-05
-5.57004e-05
-5.58381e-05
-5.58958e-05
-5.58849e-05
-5.58237e-05
-5.57129e-05
-5.55386e-05
1.08757e-05
1.23387e-05
1.40916e-05
1.5971e-05
1.77912e-05
1.94344e-05
2.08612e-05
2.20747e-05
2.30855e-05
2.39091e-05
2.45603e-05
2.50509e-05
2.54024e-05
2.56315e-05
2.57418e-05
2.57435e-05
2.56499e-05
2.54696e-05
2.5215e-05
2.48931e-05
2.45069e-05
2.40634e-05
2.35714e-05
2.30345e-05
2.24553e-05
2.18404e-05
2.11951e-05
2.05248e-05
1.9834e-05
1.91243e-05
1.83983e-05
1.76609e-05
1.69159e-05
1.61674e-05
1.54199e-05
1.46759e-05
1.39352e-05
1.31976e-05
1.2465e-05
1.17409e-05
1.10263e-05
1.03195e-05
9.62018e-06
8.93149e-06
8.25645e-06
7.5962e-06
6.95143e-06
6.32339e-06
5.71302e-06
5.12026e-06
4.545e-06
3.98845e-06
3.45199e-06
2.93485e-06
2.43518e-06
1.95303e-06
1.48977e-06
1.04405e-06
6.12356e-07
1.93313e-07
-2.11265e-07
-5.97501e-07
-9.63862e-07
-1.31379e-06
-1.65028e-06
-1.97196e-06
-2.27667e-06
-2.56532e-06
-2.84246e-06
-3.11306e-06
-3.37819e-06
-3.63483e-06
-3.88061e-06
-4.11722e-06
-4.34783e-06
-4.57353e-06
-4.79356e-06
-5.00684e-06
-5.21416e-06
-5.41932e-06
-5.62669e-06
-5.83843e-06
-6.05403e-06
-6.27239e-06
-6.49454e-06
-6.72391e-06
-6.96297e-06
-7.2109e-06
-7.46617e-06
-7.7305e-06
-8.00835e-06
-8.30408e-06
-8.61884e-06
-8.9498e-06
-9.29425e-06
-9.65316e-06
-1.003e-05
-1.04279e-05
-1.08479e-05
-1.12901e-05
-1.17549e-05
-1.2244e-05
-1.27583e-05
-1.32969e-05
-1.38582e-05
-1.44411e-05
-1.50467e-05
-1.56794e-05
-1.63433e-05
-1.70397e-05
-1.77656e-05
-1.85157e-05
-1.92869e-05
-2.00814e-05
-2.09027e-05
-2.17528e-05
-2.26299e-05
-2.35304e-05
-2.44528e-05
-2.53989e-05
-2.63692e-05
-2.73626e-05
-2.83762e-05
-2.94069e-05
-3.04523e-05
-3.15117e-05
-3.25844e-05
-3.36689e-05
-3.47643e-05
-3.58686e-05
-3.69786e-05
-3.80899e-05
-3.9198e-05
-4.02992e-05
-4.13922e-05
-4.2476e-05
-4.35474e-05
-4.46017e-05
-4.56338e-05
-4.66382e-05
-4.76108e-05
-4.85487e-05
-4.94489e-05
-5.03078e-05
-5.11214e-05
-5.18841e-05
-5.25895e-05
-5.32334e-05
-5.38133e-05
-5.43266e-05
-5.47696e-05
-5.51384e-05
-5.54312e-05
-5.56482e-05
-5.57898e-05
-5.58552e-05
-5.58486e-05
-5.57827e-05
-5.56533e-05
-5.54352e-05
1.40749e-05
1.51781e-05
1.64578e-05
1.78575e-05
1.92734e-05
2.06062e-05
2.18049e-05
2.28449e-05
2.37261e-05
2.44597e-05
2.50469e-05
2.54948e-05
2.5817e-05
2.60241e-05
2.61266e-05
2.61321e-05
2.60445e-05
2.58742e-05
2.56335e-05
2.53295e-05
2.49654e-05
2.4546e-05
2.40769e-05
2.35627e-05
2.30076e-05
2.24155e-05
2.17925e-05
2.11447e-05
2.04759e-05
1.97888e-05
1.90868e-05
1.83722e-05
1.76462e-05
1.69131e-05
1.61798e-05
1.545e-05
1.47235e-05
1.39995e-05
1.32793e-05
1.25638e-05
1.18525e-05
1.11474e-05
1.04517e-05
9.76719e-06
9.09318e-06
8.4301e-06
7.78152e-06
7.15003e-06
6.53404e-06
5.93168e-06
5.34488e-06
4.77771e-06
4.23102e-06
3.70151e-06
3.18607e-06
2.68549e-06
2.20302e-06
1.73807e-06
1.28577e-06
8.44401e-07
4.16951e-07
6.90266e-09
-3.85053e-07
-7.61525e-07
-1.12458e-06
-1.47324e-06
-1.80659e-06
-2.12627e-06
-2.43575e-06
-2.73789e-06
-3.03309e-06
-3.32027e-06
-3.59946e-06
-3.87233e-06
-4.13915e-06
-4.39807e-06
-4.64881e-06
-4.89419e-06
-5.13775e-06
-5.38158e-06
-5.62618e-06
-5.87218e-06
-6.12129e-06
-6.37534e-06
-6.63479e-06
-6.89956e-06
-7.17025e-06
-7.44812e-06
-7.73549e-06
-8.03539e-06
-8.34949e-06
-8.67805e-06
-9.02119e-06
-9.37913e-06
-9.75226e-06
-1.01417e-05
-1.0549e-05
-1.09751e-05
-1.14202e-05
-1.18855e-05
-1.23728e-05
-1.28846e-05
-1.34213e-05
-1.39801e-05
-1.45586e-05
-1.51569e-05
-1.57774e-05
-1.6425e-05
-1.71027e-05
-1.78105e-05
-1.85456e-05
-1.9304e-05
-2.00823e-05
-2.08814e-05
-2.17045e-05
-2.25543e-05
-2.34305e-05
-2.43296e-05
-2.5248e-05
-2.61865e-05
-2.71474e-05
-2.8131e-05
-2.91346e-05
-3.01532e-05
-3.11826e-05
-3.22225e-05
-3.32745e-05
-3.43392e-05
-3.54149e-05
-3.64982e-05
-3.75839e-05
-3.86677e-05
-3.97465e-05
-4.08182e-05
-4.18816e-05
-4.29356e-05
-4.39768e-05
-4.49996e-05
-4.59987e-05
-4.69695e-05
-4.79092e-05
-4.88156e-05
-4.96858e-05
-5.05156e-05
-5.13003e-05
-5.20349e-05
-5.27144e-05
-5.33347e-05
-5.38935e-05
-5.43892e-05
-5.48197e-05
-5.51803e-05
-5.54671e-05
-5.56794e-05
-5.58197e-05
-5.58891e-05
-5.58872e-05
-5.58167e-05
-5.5665e-05
-5.54061e-05
1.67942e-05
1.76711e-05
1.86527e-05
1.97231e-05
2.08272e-05
2.18998e-05
2.28905e-05
2.37671e-05
2.45229e-05
2.51548e-05
2.56686e-05
2.60677e-05
2.63523e-05
2.65314e-05
2.66167e-05
2.66129e-05
2.6525e-05
2.63608e-05
2.61274e-05
2.58322e-05
2.54814e-05
2.50777e-05
2.46247e-05
2.41282e-05
2.35922e-05
2.30203e-05
2.24183e-05
2.17901e-05
2.11388e-05
2.04689e-05
1.97843e-05
1.90871e-05
1.83789e-05
1.76631e-05
1.69445e-05
1.62258e-05
1.55082e-05
1.4794e-05
1.40843e-05
1.33765e-05
1.26694e-05
1.19666e-05
1.12732e-05
1.05899e-05
9.91534e-06
9.25037e-06
8.599e-06
7.96313e-06
7.34073e-06
6.73035e-06
6.13444e-06
5.55681e-06
4.99756e-06
4.45396e-06
3.92442e-06
3.40917e-06
2.90916e-06
2.42343e-06
1.94915e-06
1.48676e-06
1.03934e-06
6.07522e-07
1.90266e-07
-2.12968e-07
-6.0166e-07
-9.74966e-07
-1.33433e-06
-1.68362e-06
-2.02561e-06
-2.35992e-06
-2.68499e-06
-3.00118e-06
-3.31111e-06
-3.6172e-06
-3.91845e-06
-4.21106e-06
-4.49387e-06
-4.77108e-06
-5.0484e-06
-5.32825e-06
-5.60915e-06
-5.88969e-06
-6.17174e-06
-6.45941e-06
-6.75455e-06
-7.05516e-06
-7.35908e-06
-7.66727e-06
-7.9846e-06
-8.31675e-06
-8.6653e-06
-9.02779e-06
-9.40185e-06
-9.78798e-06
-1.01887e-05
-1.06061e-05
-1.10415e-05
-1.14947e-05
-1.19655e-05
-1.24555e-05
-1.29669e-05
-1.35016e-05
-1.40595e-05
-1.46376e-05
-1.5233e-05
-1.58471e-05
-1.6484e-05
-1.71481e-05
-1.78413e-05
-1.85612e-05
-1.93045e-05
-2.00694e-05
-2.08546e-05
-2.16609e-05
-2.24894e-05
-2.33409e-05
-2.42157e-05
-2.51123e-05
-2.60282e-05
-2.69629e-05
-2.79175e-05
-2.88923e-05
-2.98853e-05
-3.08923e-05
-3.1909e-05
-3.29338e-05
-3.39685e-05
-3.50149e-05
-3.6072e-05
-3.71356e-05
-3.81998e-05
-3.926e-05
-4.03134e-05
-4.1359e-05
-4.23963e-05
-4.34234e-05
-4.44369e-05
-4.54317e-05
-4.64022e-05
-4.73442e-05
-4.82553e-05
-4.9134e-05
-4.99776e-05
-5.07814e-05
-5.15407e-05
-5.22509e-05
-5.2908e-05
-5.35094e-05
-5.40523e-05
-5.45344e-05
-5.49538e-05
-5.53073e-05
-5.55899e-05
-5.57986e-05
-5.59354e-05
-5.60038e-05
-5.60042e-05
-5.59325e-05
-5.5765e-05
-5.54759e-05
1.91996e-05
1.9921e-05
2.0703e-05
2.15405e-05
2.24134e-05
2.32709e-05
2.40772e-05
2.48093e-05
2.54446e-05
2.59786e-05
2.64155e-05
2.6755e-05
2.69966e-05
2.71447e-05
2.72043e-05
2.71821e-05
2.70864e-05
2.69211e-05
2.66899e-05
2.63994e-05
2.60554e-05
2.56605e-05
2.52175e-05
2.47319e-05
2.42085e-05
2.36515e-05
2.30658e-05
2.2454e-05
2.18189e-05
2.11642e-05
2.04923e-05
1.98065e-05
1.91114e-05
1.84107e-05
1.77059e-05
1.69978e-05
1.62889e-05
1.5582e-05
1.48777e-05
1.41743e-05
1.34715e-05
1.27727e-05
1.20808e-05
1.13965e-05
1.07203e-05
1.00543e-05
9.40042e-06
8.75854e-06
8.12827e-06
7.51074e-06
6.90814e-06
6.32134e-06
5.749e-06
5.19027e-06
4.64665e-06
4.11821e-06
3.60229e-06
3.09662e-06
2.60111e-06
2.11864e-06
1.65181e-06
1.19908e-06
7.58229e-07
3.30048e-07
-8.33042e-08
-4.81055e-07
-8.65918e-07
-1.24278e-06
-1.61409e-06
-1.97823e-06
-2.33312e-06
-2.67964e-06
-3.02034e-06
-3.3568e-06
-3.68816e-06
-4.01193e-06
-4.32753e-06
-4.6382e-06
-4.94867e-06
-5.2615e-06
-5.57598e-06
-5.89074e-06
-6.20667e-06
-6.5272e-06
-6.85473e-06
-7.18791e-06
-7.52466e-06
-7.8657e-06
-8.21523e-06
-8.57866e-06
-8.95804e-06
-9.35128e-06
-9.75574e-06
-1.01715e-05
-1.0601e-05
-1.10463e-05
-1.1508e-05
-1.19861e-05
-1.24812e-05
-1.29958e-05
-1.35324e-05
-1.40913e-05
-1.46706e-05
-1.52674e-05
-1.58799e-05
-1.65105e-05
-1.7164e-05
-1.78447e-05
-1.85534e-05
-1.92865e-05
-2.00396e-05
-2.08113e-05
-2.16027e-05
-2.2416e-05
-2.32515e-05
-2.41077e-05
-2.4983e-05
-2.58773e-05
-2.67906e-05
-2.77234e-05
-2.8675e-05
-2.9644e-05
-3.06277e-05
-3.16232e-05
-3.26278e-05
-3.36407e-05
-3.46625e-05
-3.56942e-05
-3.67349e-05
-3.77803e-05
-3.88247e-05
-3.98639e-05
-4.08957e-05
-4.19196e-05
-4.29347e-05
-4.39388e-05
-4.49278e-05
-4.58971e-05
-4.68423e-05
-4.77597e-05
-4.8647e-05
-4.95023e-05
-5.03231e-05
-5.11046e-05
-5.18423e-05
-5.25319e-05
-5.31705e-05
-5.37564e-05
-5.42874e-05
-5.47601e-05
-5.51713e-05
-5.55181e-05
-5.57971e-05
-5.60047e-05
-5.61403e-05
-5.6207e-05
-5.62074e-05
-5.6136e-05
-5.59609e-05
-5.56549e-05
2.14012e-05
2.20077e-05
2.26398e-05
2.33108e-05
2.40074e-05
2.46924e-05
2.53444e-05
2.59405e-05
2.64663e-05
2.69112e-05
2.72706e-05
2.75459e-05
2.77404e-05
2.78519e-05
2.78821e-05
2.78379e-05
2.77263e-05
2.75511e-05
2.73157e-05
2.70247e-05
2.6682e-05
2.62909e-05
2.58537e-05
2.5375e-05
2.486e-05
2.43128e-05
2.3737e-05
2.31364e-05
2.25143e-05
2.18722e-05
2.12112e-05
2.05351e-05
1.985e-05
1.91592e-05
1.84637e-05
1.77651e-05
1.70653e-05
1.63647e-05
1.56628e-05
1.49609e-05
1.42614e-05
1.35659e-05
1.28746e-05
1.21884e-05
1.15106e-05
1.08436e-05
1.01866e-05
9.53825e-06
8.89994e-06
8.27522e-06
7.66581e-06
7.06994e-06
6.48556e-06
5.91333e-06
5.35594e-06
4.81309e-06
4.28065e-06
3.75655e-06
3.24258e-06
2.74161e-06
2.25497e-06
1.78098e-06
1.31814e-06
8.67926e-07
4.32095e-07
9.96418e-09
-4.01565e-07
-8.05825e-07
-1.20375e-06
-1.5942e-06
-1.97704e-06
-2.3542e-06
-2.72661e-06
-3.09289e-06
-3.45174e-06
-3.80354e-06
-4.15043e-06
-4.4949e-06
-4.83877e-06
-5.18304e-06
-5.5284e-06
-5.87586e-06
-6.22639e-06
-6.58086e-06
-6.93965e-06
-7.30209e-06
-7.66874e-06
-8.04236e-06
-8.42608e-06
-8.82232e-06
-9.23177e-06
-9.65336e-06
-1.0086e-05
-1.05305e-05
-1.09888e-05
-1.14619e-05
-1.19498e-05
-1.24524e-05
-1.29715e-05
-1.35105e-05
-1.4072e-05
-1.46549e-05
-1.52557e-05
-1.58714e-05
-1.65016e-05
-1.715e-05
-1.78211e-05
-1.85181e-05
-1.92412e-05
-1.99868e-05
-2.0751e-05
-2.15319e-05
-2.2331e-05
-2.31513e-05
-2.39934e-05
-2.48551e-05
-2.57335e-05
-2.66278e-05
-2.75394e-05
-2.84705e-05
-2.94207e-05
-3.03864e-05
-3.13636e-05
-3.23495e-05
-3.33431e-05
-3.43454e-05
-3.53571e-05
-3.63776e-05
-3.74047e-05
-3.84343e-05
-3.94611e-05
-4.04817e-05
-4.14949e-05
-4.25004e-05
-4.34969e-05
-4.44815e-05
-4.54495e-05
-4.63966e-05
-4.73196e-05
-4.82158e-05
-4.90833e-05
-4.99194e-05
-5.07208e-05
-5.14835e-05
-5.22032e-05
-5.28765e-05
-5.35007e-05
-5.40749e-05
-5.45973e-05
-5.50638e-05
-5.54697e-05
-5.58115e-05
-5.60871e-05
-5.62945e-05
-5.6432e-05
-5.65001e-05
-5.65016e-05
-5.64321e-05
-5.62564e-05
-5.59459e-05
2.34718e-05
2.3987e-05
2.45059e-05
2.50421e-05
2.56002e-05
2.61525e-05
2.6672e-05
2.71481e-05
2.75727e-05
2.79322e-05
2.82177e-05
2.84309e-05
2.85726e-05
2.86418e-05
2.86409e-05
2.85726e-05
2.84406e-05
2.82501e-05
2.80049e-05
2.77067e-05
2.73593e-05
2.69664e-05
2.65304e-05
2.60551e-05
2.55453e-05
2.50042e-05
2.44348e-05
2.38412e-05
2.32265e-05
2.25919e-05
2.19394e-05
2.1273e-05
2.05964e-05
1.9912e-05
1.92223e-05
1.85304e-05
1.78374e-05
1.71412e-05
1.64408e-05
1.574e-05
1.50422e-05
1.43474e-05
1.36551e-05
1.29675e-05
1.22884e-05
1.16189e-05
1.09574e-05
1.03031e-05
9.65834e-06
9.02685e-06
8.4089e-06
7.80244e-06
7.20706e-06
6.6239e-06
6.05379e-06
5.49527e-06
4.9452e-06
4.40361e-06
3.87332e-06
3.35538e-06
2.84911e-06
2.35375e-06
1.86988e-06
1.39971e-06
9.43428e-07
4.97883e-07
5.97639e-08
-3.71662e-07
-7.95235e-07
-1.21061e-06
-1.61984e-06
-2.02588e-06
-2.42853e-06
-2.8241e-06
-3.21039e-06
-3.58949e-06
-3.9659e-06
-4.3425e-06
-4.71897e-06
-5.09432e-06
-5.4696e-06
-5.84796e-06
-6.2316e-06
-6.61968e-06
-7.01001e-06
-7.40158e-06
-7.79695e-06
-8.20124e-06
-8.6178e-06
-9.04662e-06
-9.4864e-06
-9.93635e-06
-1.03968e-05
-1.08691e-05
-1.13549e-05
-1.18544e-05
-1.23675e-05
-1.2895e-05
-1.34391e-05
-1.40035e-05
-1.45897e-05
-1.51956e-05
-1.58172e-05
-1.64516e-05
-1.71e-05
-1.77671e-05
-1.84571e-05
-1.91712e-05
-1.99082e-05
-2.06653e-05
-2.14401e-05
-2.2232e-05
-2.30416e-05
-2.38706e-05
-2.47193e-05
-2.55859e-05
-2.64681e-05
-2.7365e-05
-2.82776e-05
-2.92084e-05
-3.01572e-05
-3.11205e-05
-3.20933e-05
-3.30725e-05
-3.40579e-05
-3.50516e-05
-3.60547e-05
-3.7066e-05
-3.80821e-05
-3.90982e-05
-4.011e-05
-4.11153e-05
-4.2113e-05
-4.31027e-05
-4.40832e-05
-4.50509e-05
-4.6001e-05
-4.69295e-05
-4.78339e-05
-4.87126e-05
-4.95636e-05
-5.03842e-05
-5.11702e-05
-5.19172e-05
-5.2622e-05
-5.32824e-05
-5.38962e-05
-5.44624e-05
-5.49791e-05
-5.54421e-05
-5.58456e-05
-5.61851e-05
-5.64589e-05
-5.66667e-05
-5.68079e-05
-5.68811e-05
-5.68871e-05
-5.68227e-05
-5.66523e-05
-5.63477e-05
2.54573e-05
2.59022e-05
2.63276e-05
2.67543e-05
2.71985e-05
2.76367e-05
2.80483e-05
2.84224e-05
2.87516e-05
2.90288e-05
2.92462e-05
2.93987e-05
2.94855e-05
2.95101e-05
2.9474e-05
2.93772e-05
2.9222e-05
2.90134e-05
2.87534e-05
2.84436e-05
2.80868e-05
2.7687e-05
2.72474e-05
2.67712e-05
2.62624e-05
2.57239e-05
2.51586e-05
2.45693e-05
2.39576e-05
2.3326e-05
2.26788e-05
2.20193e-05
2.13491e-05
2.06697e-05
1.99847e-05
1.92969e-05
1.86064e-05
1.79113e-05
1.72125e-05
1.65131e-05
1.58151e-05
1.51186e-05
1.44246e-05
1.3736e-05
1.3055e-05
1.23812e-05
1.17137e-05
1.10538e-05
1.04042e-05
9.76625e-06
9.13865e-06
8.52067e-06
7.91446e-06
7.32115e-06
6.73868e-06
6.16437e-06
5.59719e-06
5.03924e-06
4.49333e-06
3.95873e-06
3.43347e-06
2.91797e-06
2.41451e-06
1.9251e-06
1.44841e-06
9.80081e-07
5.17207e-07
6.06305e-08
-3.87919e-07
-8.28965e-07
-1.26497e-06
-1.69808e-06
-2.12755e-06
-2.55004e-06
-2.9638e-06
-3.37118e-06
-3.77667e-06
-4.18318e-06
-4.59022e-06
-4.99634e-06
-5.40237e-06
-5.81157e-06
-6.2262e-06
-6.64503e-06
-7.06548e-06
-7.48689e-06
-7.91232e-06
-8.34699e-06
-8.79423e-06
-9.25333e-06
-9.72224e-06
-1.02006e-05
-1.06893e-05
-1.11897e-05
-1.17026e-05
-1.22274e-05
-1.27646e-05
-1.33166e-05
-1.38864e-05
-1.44769e-05
-1.50879e-05
-1.57161e-05
-1.63577e-05
-1.70109e-05
-1.76778e-05
-1.83638e-05
-1.9073e-05
-1.98049e-05
-2.05567e-05
-2.13256e-05
-2.21109e-05
-2.2914e-05
-2.37356e-05
-2.45754e-05
-2.5432e-05
-2.63035e-05
-2.71892e-05
-2.80897e-05
-2.9006e-05
-2.99389e-05
-3.08875e-05
-3.18486e-05
-3.2818e-05
-3.37928e-05
-3.4773e-05
-3.5761e-05
-3.67576e-05
-3.77612e-05
-3.87678e-05
-3.97727e-05
-4.07721e-05
-4.17649e-05
-4.27504e-05
-4.37274e-05
-4.4694e-05
-4.56469e-05
-4.65816e-05
-4.74947e-05
-4.83844e-05
-4.92492e-05
-5.00872e-05
-5.08954e-05
-5.16692e-05
-5.24042e-05
-5.30974e-05
-5.37479e-05
-5.43544e-05
-5.49158e-05
-5.54296e-05
-5.5891e-05
-5.62945e-05
-5.66349e-05
-5.69099e-05
-5.71201e-05
-5.72665e-05
-5.73475e-05
-5.73621e-05
-5.73066e-05
-5.71472e-05
-5.68571e-05
2.73918e-05
2.77729e-05
2.8124e-05
2.84638e-05
2.88067e-05
2.91456e-05
2.94659e-05
2.97509e-05
2.99935e-05
3.01936e-05
3.03441e-05
3.04371e-05
3.04726e-05
3.04522e-05
3.03767e-05
3.02476e-05
3.00665e-05
2.98353e-05
2.95564e-05
2.92313e-05
2.88618e-05
2.84517e-05
2.80049e-05
2.75238e-05
2.70115e-05
2.64718e-05
2.59073e-05
2.53188e-05
2.47077e-05
2.40775e-05
2.34326e-05
2.27757e-05
2.21082e-05
2.14325e-05
2.07517e-05
2.00658e-05
1.93741e-05
1.8678e-05
1.79798e-05
1.72805e-05
1.65804e-05
1.58809e-05
1.5185e-05
1.44949e-05
1.38109e-05
1.31315e-05
1.24576e-05
1.17924e-05
1.11376e-05
1.04923e-05
9.85506e-06
9.22675e-06
8.61009e-06
8.00534e-06
7.40912e-06
6.81933e-06
6.23692e-06
5.66416e-06
5.10249e-06
4.55056e-06
4.00701e-06
3.47354e-06
2.95245e-06
2.44403e-06
1.94591e-06
1.45466e-06
9.68919e-07
4.89785e-07
1.76157e-08
-4.49511e-07
-9.13172e-07
-1.37283e-06
-1.82673e-06
-2.27347e-06
-2.71362e-06
-3.14973e-06
-3.58451e-06
-4.01945e-06
-4.45471e-06
-4.89045e-06
-5.32794e-06
-5.769e-06
-6.21392e-06
-6.66098e-06
-7.109e-06
-7.55938e-06
-8.0156e-06
-8.48126e-06
-8.95832e-06
-9.44602e-06
-9.94263e-06
-1.04486e-05
-1.09654e-05
-1.14938e-05
-1.20336e-05
-1.25835e-05
-1.31447e-05
-1.37213e-05
-1.4317e-05
-1.49335e-05
-1.55689e-05
-1.62185e-05
-1.68793e-05
-1.75515e-05
-1.8238e-05
-1.89435e-05
-1.96713e-05
-2.04204e-05
-2.11875e-05
-2.19697e-05
-2.2767e-05
-2.35818e-05
-2.44155e-05
-2.52667e-05
-2.61323e-05
-2.70098e-05
-2.78999e-05
-2.88046e-05
-2.97257e-05
-3.06627e-05
-3.16131e-05
-3.2573e-05
-3.35398e-05
-3.45118e-05
-3.54892e-05
-3.6474e-05
-3.74664e-05
-3.8464e-05
-3.94626e-05
-4.04583e-05
-4.14479e-05
-4.24309e-05
-4.34067e-05
-4.43736e-05
-4.53288e-05
-4.62689e-05
-4.71905e-05
-4.80913e-05
-4.897e-05
-4.98247e-05
-5.0653e-05
-5.14515e-05
-5.22158e-05
-5.29415e-05
-5.36265e-05
-5.42702e-05
-5.48724e-05
-5.54316e-05
-5.59449e-05
-5.6407e-05
-5.68123e-05
-5.71561e-05
-5.74357e-05
-5.76514e-05
-5.78053e-05
-5.78964e-05
-5.79229e-05
-5.78804e-05
-5.77373e-05
-5.7469e-05
2.93009e-05
2.96197e-05
2.9907e-05
3.01722e-05
3.04317e-05
3.0684e-05
3.09189e-05
3.11244e-05
3.12925e-05
3.14199e-05
3.15029e-05
3.15386e-05
3.15248e-05
3.14595e-05
3.1344e-05
3.11808e-05
3.09702e-05
3.07128e-05
3.04111e-05
3.00669e-05
2.96816e-05
2.92586e-05
2.88015e-05
2.8312e-05
2.77935e-05
2.72493e-05
2.66808e-05
2.6089e-05
2.54766e-05
2.48467e-05
2.42019e-05
2.35442e-05
2.28766e-05
2.22027e-05
2.15232e-05
2.08363e-05
2.01422e-05
1.94444e-05
1.87447e-05
1.80428e-05
1.73391e-05
1.66364e-05
1.59383e-05
1.52453e-05
1.45561e-05
1.38707e-05
1.31915e-05
1.25211e-05
1.18593e-05
1.12047e-05
1.05581e-05
9.92111e-06
9.29447e-06
8.67685e-06
8.06562e-06
7.46069e-06
6.86445e-06
6.27786e-06
5.70026e-06
5.13064e-06
4.56958e-06
4.01981e-06
3.4825e-06
2.95536e-06
2.43538e-06
1.92126e-06
1.41361e-06
9.13105e-07
4.182e-07
-7.4145e-08
-5.64452e-07
-1.04976e-06
-1.52728e-06
-1.99735e-06
-2.46294e-06
-2.92708e-06
-3.39075e-06
-3.85358e-06
-4.31609e-06
-4.78036e-06
-5.24854e-06
-5.72106e-06
-6.19584e-06
-6.67037e-06
-7.14493e-06
-7.62307e-06
-8.109e-06
-8.60492e-06
-9.11113e-06
-9.62678e-06
-1.01509e-05
-1.06844e-05
-1.12289e-05
-1.17843e-05
-1.235e-05
-1.29249e-05
-1.35108e-05
-1.41126e-05
-1.47344e-05
-1.53762e-05
-1.60346e-05
-1.67047e-05
-1.73844e-05
-1.80757e-05
-1.87829e-05
-1.95091e-05
-2.02554e-05
-2.10206e-05
-2.18024e-05
-2.25988e-05
-2.34103e-05
-2.42386e-05
-2.50844e-05
-2.59462e-05
-2.68207e-05
-2.77056e-05
-2.86018e-05
-2.95122e-05
-3.04388e-05
-3.13806e-05
-3.23339e-05
-3.32946e-05
-3.42603e-05
-3.5231e-05
-3.62075e-05
-3.7191e-05
-3.81809e-05
-3.91741e-05
-4.01667e-05
-4.11552e-05
-4.21375e-05
-4.31132e-05
-4.40817e-05
-4.50405e-05
-4.59864e-05
-4.69162e-05
-4.78273e-05
-4.87185e-05
-4.95891e-05
-5.04371e-05
-5.1259e-05
-5.20507e-05
-5.28076e-05
-5.35265e-05
-5.42057e-05
-5.48455e-05
-5.5446e-05
-5.60056e-05
-5.65208e-05
-5.69857e-05
-5.73949e-05
-5.77443e-05
-5.80313e-05
-5.8256e-05
-5.84203e-05
-5.85242e-05
-5.85654e-05
-5.85394e-05
-5.84173e-05
-5.8177e-05
3.12096e-05
3.14647e-05
3.16847e-05
3.18858e-05
3.20771e-05
3.2251e-05
3.24069e-05
3.25405e-05
3.26401e-05
3.27e-05
3.27206e-05
3.27001e-05
3.26357e-05
3.25258e-05
3.23706e-05
3.21718e-05
3.19289e-05
3.16428e-05
3.13153e-05
3.09485e-05
3.05448e-05
3.0106e-05
2.96352e-05
2.91351e-05
2.86082e-05
2.80562e-05
2.748e-05
2.68819e-05
2.62655e-05
2.56334e-05
2.4986e-05
2.43258e-05
2.36573e-05
2.29823e-05
2.22997e-05
2.1609e-05
2.09122e-05
2.02117e-05
1.95081e-05
1.88012e-05
1.80931e-05
1.73872e-05
1.66857e-05
1.59875e-05
1.52917e-05
1.46005e-05
1.39165e-05
1.32404e-05
1.25701e-05
1.19055e-05
1.12493e-05
1.06034e-05
9.9662e-06
9.33505e-06
8.70889e-06
8.08968e-06
7.48007e-06
6.87939e-06
6.28563e-06
5.69892e-06
5.12164e-06
4.55641e-06
4.00279e-06
3.45686e-06
2.91581e-06
2.38017e-06
1.85136e-06
1.32896e-06
8.1054e-07
2.93716e-07
-2.20851e-07
-7.29611e-07
-1.23014e-06
-1.72393e-06
-2.21475e-06
-2.70553e-06
-3.19654e-06
-3.68681e-06
-4.17706e-06
-4.67015e-06
-5.16805e-06
-5.66992e-06
-6.17273e-06
-6.67426e-06
-7.17584e-06
-7.68181e-06
-8.19639e-06
-8.72085e-06
-9.25469e-06
-9.79745e-06
-1.03492e-05
-1.09109e-05
-1.1483e-05
-1.20646e-05
-1.26548e-05
-1.32541e-05
-1.38653e-05
-1.44933e-05
-1.5141e-05
-1.58071e-05
-1.64871e-05
-1.71767e-05
-1.78754e-05
-1.85864e-05
-1.93145e-05
-2.00619e-05
-2.08273e-05
-2.16084e-05
-2.24043e-05
-2.3215e-05
-2.40417e-05
-2.48851e-05
-2.5744e-05
-2.6616e-05
-2.74988e-05
-2.83916e-05
-2.92958e-05
-3.02137e-05
-3.11469e-05
-3.2094e-05
-3.30509e-05
-3.40135e-05
-3.49801e-05
-3.59513e-05
-3.69284e-05
-3.79121e-05
-3.89009e-05
-3.9891e-05
-4.08793e-05
-4.18629e-05
-4.28402e-05
-4.3811e-05
-4.47742e-05
-4.57269e-05
-4.66657e-05
-4.75876e-05
-4.84909e-05
-4.93751e-05
-5.024e-05
-5.10836e-05
-5.19018e-05
-5.26895e-05
-5.34417e-05
-5.41557e-05
-5.48314e-05
-5.54698e-05
-5.6071e-05
-5.66333e-05
-5.71525e-05
-5.76225e-05
-5.80378e-05
-5.83949e-05
-5.8692e-05
-5.89289e-05
-5.9107e-05
-5.92263e-05
-5.9285e-05
-5.92784e-05
-5.91812e-05
-5.89742e-05
3.313e-05
3.33178e-05
3.34739e-05
3.36137e-05
3.37402e-05
3.38467e-05
3.39324e-05
3.39958e-05
3.40295e-05
3.40291e-05
3.39925e-05
3.39169e-05
3.38021e-05
3.36475e-05
3.3452e-05
3.32153e-05
3.29385e-05
3.26219e-05
3.22665e-05
3.18753e-05
3.14504e-05
3.09927e-05
3.05059e-05
2.99927e-05
2.94541e-05
2.88912e-05
2.83053e-05
2.76994e-05
2.70766e-05
2.6438e-05
2.57854e-05
2.51223e-05
2.44512e-05
2.37714e-05
2.30827e-05
2.23869e-05
2.16858e-05
2.09803e-05
2.02704e-05
1.95574e-05
1.88447e-05
1.81346e-05
1.74276e-05
1.67225e-05
1.60198e-05
1.53229e-05
1.46332e-05
1.39493e-05
1.327e-05
1.25962e-05
1.19309e-05
1.12745e-05
1.06246e-05
9.97927e-06
9.33931e-06
8.70705e-06
8.0837e-06
7.46771e-06
6.85772e-06
6.25545e-06
5.66353e-06
5.08286e-06
4.51162e-06
3.94634e-06
3.38548e-06
2.83026e-06
2.28118e-06
1.73632e-06
1.1935e-06
6.52574e-07
1.15645e-07
-4.14595e-07
-9.37534e-07
-1.45553e-06
-1.97178e-06
-2.48802e-06
-3.0044e-06
-3.52098e-06
-4.03935e-06
-4.56199e-06
-5.08919e-06
-5.61844e-06
-6.14698e-06
-6.67439e-06
-7.2032e-06
-7.7375e-06
-8.28038e-06
-8.83219e-06
-9.39239e-06
-9.96147e-06
-1.05406e-05
-1.11304e-05
-1.17299e-05
-1.23369e-05
-1.29508e-05
-1.3574e-05
-1.42109e-05
-1.48654e-05
-1.55385e-05
-1.62273e-05
-1.69277e-05
-1.76367e-05
-1.83552e-05
-1.90869e-05
-1.98358e-05
-2.06034e-05
-2.13875e-05
-2.21851e-05
-2.29957e-05
-2.3821e-05
-2.46629e-05
-2.55214e-05
-2.63938e-05
-2.72767e-05
-2.81683e-05
-2.90694e-05
-2.99826e-05
-3.09096e-05
-3.18506e-05
-3.28035e-05
-3.37644e-05
-3.47299e-05
-3.5699e-05
-3.66726e-05
-3.76519e-05
-3.86369e-05
-3.96255e-05
-4.0614e-05
-4.15995e-05
-4.25803e-05
-4.3555e-05
-4.45232e-05
-4.54831e-05
-4.64314e-05
-4.73649e-05
-4.82813e-05
-4.91795e-05
-5.00594e-05
-5.0921e-05
-5.17621e-05
-5.25782e-05
-5.33638e-05
-5.41137e-05
-5.48257e-05
-5.55003e-05
-5.61394e-05
-5.67434e-05
-5.73104e-05
-5.78357e-05
-5.83129e-05
-5.87364e-05
-5.91036e-05
-5.94132e-05
-5.96652e-05
-5.98603e-05
-5.99981e-05
-6.00768e-05
-6.00924e-05
-6.00233e-05
-5.98536e-05
3.50577e-05
3.51863e-05
3.52835e-05
3.5359e-05
3.54239e-05
3.54711e-05
3.54929e-05
3.54899e-05
3.54616e-05
3.54036e-05
3.5312e-05
3.51845e-05
3.50208e-05
3.48211e-05
3.45834e-05
3.43082e-05
3.39959e-05
3.36467e-05
3.32626e-05
3.28454e-05
3.23967e-05
3.19186e-05
3.1414e-05
3.08846e-05
3.03309e-05
2.97541e-05
2.91571e-05
2.85421e-05
2.79097e-05
2.72621e-05
2.66031e-05
2.5935e-05
2.52576e-05
2.45701e-05
2.3874e-05
2.31719e-05
2.24642e-05
2.17508e-05
2.10327e-05
2.03134e-05
1.95956e-05
1.88794e-05
1.81642e-05
1.74513e-05
1.67426e-05
1.60398e-05
1.5342e-05
1.46482e-05
1.39594e-05
1.32775e-05
1.26029e-05
1.19345e-05
1.12702e-05
1.06105e-05
9.9576e-06
9.31256e-06
8.67452e-06
8.04229e-06
7.41652e-06
6.80009e-06
6.1945e-06
5.59809e-06
5.00821e-06
4.42332e-06
3.8435e-06
3.26956e-06
2.70025e-06
2.13271e-06
1.56592e-06
1.00199e-06
4.43989e-07
-1.06832e-07
-6.51903e-07
-1.19413e-06
-1.73557e-06
-2.27651e-06
-2.81719e-06
-3.35934e-06
-3.90559e-06
-4.45733e-06
-5.01279e-06
-5.56816e-06
-6.12132e-06
-6.67393e-06
-7.22957e-06
-7.79168e-06
-8.36217e-06
-8.94067e-06
-9.52694e-06
-1.01224e-05
-1.07285e-05
-1.13455e-05
-1.19711e-05
-1.26025e-05
-1.32398e-05
-1.38871e-05
-1.45496e-05
-1.52303e-05
-1.59278e-05
-1.66381e-05
-1.73579e-05
-1.80862e-05
-1.88256e-05
-1.95791e-05
-2.0349e-05
-2.11357e-05
-2.1937e-05
-2.27508e-05
-2.35772e-05
-2.4418e-05