/*--------------------------------*- C++ -*----------------------------------*\
  =========                 |
  \\      /  F ield         | OpenFOAM: The Open Source CFD Toolbox
   \\    /   O peration     | Website:  https://openfoam.org
    \\  /    A nd           | Version:  7
     \\/     M anipulation  |
\*---------------------------------------------------------------------------*/
FoamFile
{
    version     2.0;
    format      ascii;
    class       volVectorField;
    location    "0.2375";
    object      U;
}
// * * * * * * * * * * * * * * * * * * * * * * * * * * * * * * * * * * * * * //

dimensions      [0 1 -1 0 0 0 0];

internalField   nonuniform List<vector> 
51200
(
(9.21956e-08 1.04466e-07 0)
(-2.52832e-08 1.41851e-07 0)
(-3.70131e-08 5.38397e-08 0)
(-7.59318e-08 1.40158e-08 0)
(-4.97351e-09 -1.52528e-08 0)
(9.29782e-08 -3.07716e-08 0)
(2.07558e-07 -3.86704e-08 0)
(3.27383e-07 -4.06249e-08 0)
(4.44565e-07 -4.04633e-08 0)
(5.54909e-07 -3.81194e-08 0)
(6.55888e-07 -3.50625e-08 0)
(7.43858e-07 -3.12932e-08 0)
(8.18393e-07 -2.62198e-08 0)
(8.77657e-07 -2.11346e-08 0)
(9.20704e-07 -1.64909e-08 0)
(9.48128e-07 -1.16298e-08 0)
(9.58224e-07 -6.66314e-09 0)
(9.50724e-07 -1.62401e-09 0)
(9.26526e-07 3.80069e-09 0)
(8.84886e-07 8.8602e-09 0)
(8.26009e-07 1.33982e-08 0)
(7.50936e-07 1.84374e-08 0)
(6.59062e-07 2.40308e-08 0)
(5.5061e-07 2.92692e-08 0)
(4.27052e-07 3.42068e-08 0)
(2.88548e-07 3.90016e-08 0)
(1.35147e-07 4.32433e-08 0)
(-3.2091e-08 4.69775e-08 0)
(-2.12307e-07 5.05124e-08 0)
(-4.05115e-07 5.37065e-08 0)
(-6.09825e-07 5.65709e-08 0)
(-8.25452e-07 5.95698e-08 0)
(-1.05129e-06 6.28503e-08 0)
(-1.28686e-06 6.60152e-08 0)
(-1.53138e-06 6.86834e-08 0)
(-1.78376e-06 7.07925e-08 0)
(-2.04311e-06 7.24837e-08 0)
(-2.30883e-06 7.39316e-08 0)
(-2.58019e-06 7.53071e-08 0)
(-2.85625e-06 7.67882e-08 0)
(-3.13625e-06 7.82541e-08 0)
(-3.4196e-06 7.92727e-08 0)
(-3.70548e-06 7.96654e-08 0)
(-3.99289e-06 7.97268e-08 0)
(-4.28113e-06 7.98201e-08 0)
(-4.56973e-06 7.99469e-08 0)
(-4.85802e-06 7.98947e-08 0)
(-5.1451e-06 7.95481e-08 0)
(-5.4302e-06 7.89963e-08 0)
(-5.71281e-06 7.83174e-08 0)
(-5.99239e-06 7.73937e-08 0)
(-6.26817e-06 7.61219e-08 0)
(-6.53933e-06 7.45973e-08 0)
(-6.8053e-06 7.29696e-08 0)
(-7.06569e-06 7.13206e-08 0)
(-7.31999e-06 6.9632e-08 0)
(-7.56758e-06 6.77812e-08 0)
(-7.8079e-06 6.56669e-08 0)
(-8.04048e-06 6.33304e-08 0)
(-8.26498e-06 6.09298e-08 0)
(-8.48104e-06 5.85733e-08 0)
(-8.68807e-06 5.61772e-08 0)
(-8.88561e-06 5.35616e-08 0)
(-9.07339e-06 5.06487e-08 0)
(-9.25107e-06 4.75548e-08 0)
(-9.41828e-06 4.45043e-08 0)
(-9.57481e-06 4.15847e-08 0)
(-9.72039e-06 3.86499e-08 0)
(-9.85471e-06 3.54985e-08 0)
(-9.97751e-06 3.2082e-08 0)
(-1.00885e-05 2.85969e-08 0)
(-1.01876e-05 2.53033e-08 0)
(-1.02746e-05 2.21808e-08 0)
(-1.03495e-05 1.89291e-08 0)
(-1.04121e-05 1.53342e-08 0)
(-1.04623e-05 1.14871e-08 0)
(-1.04997e-05 7.67541e-09 0)
(-1.05246e-05 4.15952e-09 0)
(-1.05368e-05 9.64576e-10 0)
(-1.05365e-05 -2.17639e-09 0)
(-1.05236e-05 -5.56685e-09 0)
(-1.04979e-05 -9.21591e-09 0)
(-1.04596e-05 -1.28866e-08 0)
(-1.04088e-05 -1.64107e-08 0)
(-1.03458e-05 -1.98593e-08 0)
(-1.02705e-05 -2.3393e-08 0)
(-1.01831e-05 -2.6937e-08 0)
(-1.00835e-05 -3.01839e-08 0)
(-9.97226e-06 -3.30262e-08 0)
(-9.84952e-06 -3.57641e-08 0)
(-9.71546e-06 -3.87902e-08 0)
(-9.57025e-06 -4.21902e-08 0)
(-9.41411e-06 -4.56661e-08 0)
(-9.24736e-06 -4.87876e-08 0)
(-9.07043e-06 -5.13684e-08 0)
(-8.88368e-06 -5.3629e-08 0)
(-8.68735e-06 -5.59527e-08 0)
(-8.48174e-06 -5.85262e-08 0)
(-8.26722e-06 -6.12293e-08 0)
(-8.04421e-06 -6.37759e-08 0)
(-7.81319e-06 -6.59696e-08 0)
(-7.57465e-06 -6.78331e-08 0)
(-7.32904e-06 -6.95018e-08 0)
(-7.07686e-06 -7.11021e-08 0)
(-6.81856e-06 -7.27036e-08 0)
(-6.55466e-06 -7.42587e-08 0)
(-6.28576e-06 -7.56557e-08 0)
(-6.01246e-06 -7.68616e-08 0)
(-5.73527e-06 -7.7897e-08 0)
(-5.45474e-06 -7.87271e-08 0)
(-5.1715e-06 -7.92586e-08 0)
(-4.88629e-06 -7.94627e-08 0)
(-4.5998e-06 -7.9511e-08 0)
(-4.31261e-06 -7.96261e-08 0)
(-4.02533e-06 -7.97652e-08 0)
(-3.73866e-06 -7.96315e-08 0)
(-3.45333e-06 -7.90125e-08 0)
(-3.17011e-06 -7.80192e-08 0)
(-2.88968e-06 -7.69583e-08 0)
(-2.61269e-06 -7.59551e-08 0)
(-2.33993e-06 -7.47912e-08 0)
(-2.0722e-06 -7.3204e-08 0)
(-1.81028e-06 -7.12257e-08 0)
(-1.55484e-06 -6.91044e-08 0)
(-1.30654e-06 -6.69923e-08 0)
(-1.06613e-06 -6.47792e-08 0)
(-8.34425e-07 -6.22292e-08 0)
(-6.12136e-07 -5.926e-08 0)
(-3.99986e-07 -5.60099e-08 0)
(-1.98668e-07 -5.26671e-08 0)
(-8.77613e-09 -4.93149e-08 0)
(1.69059e-07 -4.58799e-08 0)
(3.34125e-07 -4.22062e-08 0)
(4.85787e-07 -3.82071e-08 0)
(6.23486e-07 -3.39268e-08 0)
(7.46677e-07 -2.94762e-08 0)
(8.54903e-07 -2.49627e-08 0)
(9.47774e-07 -2.04524e-08 0)
(1.02491e-06 -1.59234e-08 0)
(1.08603e-06 -1.12885e-08 0)
(1.13096e-06 -6.49943e-09 0)
(1.15958e-06 -1.58331e-09 0)
(1.17184e-06 3.39174e-09 0)
(1.16791e-06 8.3242e-09 0)
(1.14806e-06 1.31034e-08 0)
(1.11269e-06 1.76657e-08 0)
(1.06235e-06 2.1979e-08 0)
(9.97879e-07 2.59798e-08 0)
(9.20375e-07 2.9641e-08 0)
(8.31221e-07 3.29876e-08 0)
(7.32187e-07 3.59302e-08 0)
(6.25438e-07 3.81822e-08 0)
(5.13682e-07 3.93212e-08 0)
(4.00434e-07 3.8924e-08 0)
(2.89977e-07 3.67203e-08 0)
(1.8735e-07 3.25265e-08 0)
(9.86998e-08 2.59563e-08 0)
(3.16304e-08 1.63115e-08 0)
(-5.25945e-09 3.51661e-09 0)
(-7.47039e-09 -6.83314e-09 0)
(1.50625e-07 -2.29168e-08 0)
(2.23566e-07 1.20603e-07 0)
(2.52093e-07 9.49843e-09 0)
(3.50013e-07 -7.49306e-08 0)
(5.19084e-07 -1.47236e-07 0)
(7.35339e-07 -1.91595e-07 0)
(9.79901e-07 -2.12328e-07 0)
(1.23421e-06 -2.17451e-07 0)
(1.48483e-06 -2.10176e-07 0)
(1.72147e-06 -1.9514e-07 0)
(1.934e-06 -1.75124e-07 0)
(2.11838e-06 -1.50557e-07 0)
(2.26753e-06 -1.22969e-07 0)
(2.37777e-06 -9.32306e-08 0)
(2.4478e-06 -6.14181e-08 0)
(2.47374e-06 -2.9167e-08 0)
(2.4542e-06 3.60581e-09 0)
(2.38891e-06 3.75365e-08 0)
(2.27635e-06 7.14066e-08 0)
(2.11673e-06 1.04908e-07 0)
(1.91098e-06 1.38036e-07 0)
(1.65851e-06 1.70553e-07 0)
(1.36003e-06 2.02533e-07 0)
(1.01724e-06 2.34003e-07 0)
(6.31001e-07 2.64597e-07 0)
(2.02654e-07 2.9393e-07 0)
(-2.66035e-07 3.21945e-07 0)
(-7.73561e-07 3.48804e-07 0)
(-1.31806e-06 3.74346e-07 0)
(-1.89761e-06 3.98177e-07 0)
(-2.51036e-06 4.2039e-07 0)
(-3.15426e-06 4.41352e-07 0)
(-3.82715e-06 4.6105e-07 0)
(-4.52695e-06 4.79259e-07 0)
(-5.25145e-06 4.95962e-07 0)
(-5.99827e-06 5.11119e-07 0)
(-6.76504e-06 5.24467e-07 0)
(-7.54977e-06 5.35938e-07 0)
(-8.35039e-06 5.45894e-07 0)
(-9.16445e-06 5.54651e-07 0)
(-9.98964e-06 5.62059e-07 0)
(-1.08239e-05 5.67775e-07 0)
(-1.1665e-05 5.71806e-07 0)
(-1.25106e-05 5.74322e-07 0)
(-1.33586e-05 5.75401e-07 0)
(-1.42071e-05 5.75083e-07 0)
(-1.50541e-05 5.73417e-07 0)
(-1.58974e-05 5.70457e-07 0)
(-1.67349e-05 5.66156e-07 0)
(-1.75648e-05 5.60447e-07 0)
(-1.83854e-05 5.5339e-07 0)
(-1.91948e-05 5.45109e-07 0)
(-1.99908e-05 5.35608e-07 0)
(-2.07719e-05 5.24857e-07 0)
(-2.15366e-05 5.12947e-07 0)
(-2.22834e-05 5.00078e-07 0)
(-2.30107e-05 4.86378e-07 0)
(-2.37167e-05 4.71748e-07 0)
(-2.44001e-05 4.55969e-07 0)
(-2.50599e-05 4.39109e-07 0)
(-2.56948e-05 4.21546e-07 0)
(-2.63033e-05 4.03393e-07 0)
(-2.68841e-05 3.84437e-07 0)
(-2.74363e-05 3.64589e-07 0)
(-2.7959e-05 3.43948e-07 0)
(-2.84514e-05 3.22723e-07 0)
(-2.89123e-05 3.0114e-07 0)
(-2.93411e-05 2.79173e-07 0)
(-2.97368e-05 2.56596e-07 0)
(-3.00991e-05 2.33329e-07 0)
(-3.04271e-05 2.09576e-07 0)
(-3.07202e-05 1.85629e-07 0)
(-3.09779e-05 1.61581e-07 0)
(-3.11999e-05 1.37282e-07 0)
(-3.13857e-05 1.12586e-07 0)
(-3.1535e-05 8.75191e-08 0)
(-3.16475e-05 6.22508e-08 0)
(-3.17231e-05 3.69844e-08 0)
(-3.17618e-05 1.18663e-08 0)
(-3.17636e-05 -1.31131e-08 0)
(-3.17284e-05 -3.8102e-08 0)
(-3.16561e-05 -6.31642e-08 0)
(-3.1547e-05 -8.81682e-08 0)
(-3.14011e-05 -1.12952e-07 0)
(-3.1219e-05 -1.37482e-07 0)
(-3.1001e-05 -1.61833e-07 0)
(-3.07473e-05 -1.85995e-07 0)
(-3.04585e-05 -2.09762e-07 0)
(-3.01352e-05 -2.32919e-07 0)
(-2.9778e-05 -2.55482e-07 0)
(-2.93875e-05 -2.77673e-07 0)
(-2.89643e-05 -2.99635e-07 0)
(-2.85091e-05 -3.21276e-07 0)
(-2.80228e-05 -3.42339e-07 0)
(-2.75063e-05 -3.62543e-07 0)
(-2.69608e-05 -3.81804e-07 0)
(-2.63871e-05 -4.00306e-07 0)
(-2.57863e-05 -4.18221e-07 0)
(-2.51594e-05 -4.35534e-07 0)
(-2.45075e-05 -4.52102e-07 0)
(-2.38321e-05 -4.67748e-07 0)
(-2.31346e-05 -4.82378e-07 0)
(-2.24162e-05 -4.95979e-07 0)
(-2.16784e-05 -5.08531e-07 0)
(-2.09224e-05 -5.20055e-07 0)
(-2.01499e-05 -5.30602e-07 0)
(-1.93625e-05 -5.40123e-07 0)
(-1.8562e-05 -5.48523e-07 0)
(-1.775e-05 -5.55757e-07 0)
(-1.69283e-05 -5.61762e-07 0)
(-1.60985e-05 -5.66433e-07 0)
(-1.52625e-05 -5.69662e-07 0)
(-1.44222e-05 -5.71485e-07 0)
(-1.35794e-05 -5.72124e-07 0)
(-1.27363e-05 -5.717e-07 0)
(-1.18948e-05 -5.70016e-07 0)
(-1.10571e-05 -5.66762e-07 0)
(-1.02249e-05 -5.61833e-07 0)
(-9.40046e-06 -5.55402e-07 0)
(-8.58568e-06 -5.477e-07 0)
(-7.78289e-06 -5.38723e-07 0)
(-6.99431e-06 -5.28222e-07 0)
(-6.22202e-06 -5.16041e-07 0)
(-5.46803e-06 -5.02301e-07 0)
(-4.73434e-06 -4.87222e-07 0)
(-4.02309e-06 -4.70873e-07 0)
(-3.33656e-06 -4.53127e-07 0)
(-2.67688e-06 -4.33855e-07 0)
(-2.046e-06 -4.13065e-07 0)
(-1.44579e-06 -3.90864e-07 0)
(-8.78088e-07 -3.67393e-07 0)
(-3.44676e-07 -3.42753e-07 0)
(1.52571e-07 -3.16949e-07 0)
(6.11862e-07 -2.89964e-07 0)
(1.03159e-06 -2.61831e-07 0)
(1.41031e-06 -2.32663e-07 0)
(1.74678e-06 -2.02624e-07 0)
(2.03997e-06 -1.71879e-07 0)
(2.28901e-06 -1.40572e-07 0)
(2.49312e-06 -1.08815e-07 0)
(2.65179e-06 -7.67259e-08 0)
(2.76479e-06 -4.44927e-08 0)
(2.83215e-06 -1.23485e-08 0)
(2.85433e-06 1.94471e-08 0)
(2.83225e-06 5.05653e-08 0)
(2.76728e-06 8.05995e-08 0)
(2.66127e-06 1.09134e-07 0)
(2.51665e-06 1.357e-07 0)
(2.33655e-06 1.59736e-07 0)
(2.12486e-06 1.80663e-07 0)
(1.88653e-06 1.97804e-07 0)
(1.62764e-06 2.10234e-07 0)
(1.35552e-06 2.16724e-07 0)
(1.07901e-06 2.15711e-07 0)
(8.08587e-07 2.05418e-07 0)
(5.56352e-07 1.84116e-07 0)
(3.35616e-07 1.50437e-07 0)
(1.60134e-07 1.03792e-07 0)
(4.41806e-08 4.67882e-08 0)
(1.73149e-09 -3.44584e-09 0)
(8.73003e-08 -1.13394e-07 0)
(2.23667e-07 -8.76051e-08 0)
(4.38455e-07 -1.56806e-07 0)
(6.78538e-07 -2.83516e-07 0)
(9.63555e-07 -3.98492e-07 0)
(1.2887e-06 -4.75671e-07 0)
(1.63442e-06 -5.14513e-07 0)
(1.98442e-06 -5.20576e-07 0)
(2.32333e-06 -5.00571e-07 0)
(2.63588e-06 -4.62174e-07 0)
(2.91361e-06 -4.08077e-07 0)
(3.1453e-06 -3.43186e-07 0)
(3.32357e-06 -2.70073e-07 0)
(3.44324e-06 -1.88854e-07 0)
(3.49824e-06 -1.03233e-07 0)
(3.48581e-06 -1.41308e-08 0)
(3.40383e-06 7.81646e-08 0)
(3.249e-06 1.71567e-07 0)
(3.02089e-06 2.65783e-07 0)
(2.71957e-06 3.60383e-07 0)
(2.34443e-06 4.53776e-07 0)
(1.89662e-06 5.45588e-07 0)
(1.37712e-06 6.35948e-07 0)
(7.86899e-07 7.24033e-07 0)
(1.28259e-07 8.0938e-07 0)
(-5.9661e-07 8.91998e-07 0)
(-1.38574e-06 9.71383e-07 0)
(-2.23644e-06 1.04739e-06 0)
(-3.14571e-06 1.11988e-06 0)
(-4.11072e-06 1.18836e-06 0)
(-5.12844e-06 1.25263e-06 0)
(-6.19547e-06 1.3127e-06 0)
(-7.30846e-06 1.3685e-06 0)
(-8.46424e-06 1.41992e-06 0)
(-9.65934e-06 1.467e-06 0)
(-1.08899e-05 1.50982e-06 0)
(-1.21524e-05 1.54811e-06 0)
(-1.34435e-05 1.58164e-06 0)
(-1.47596e-05 1.61065e-06 0)
(-1.60968e-05 1.63536e-06 0)
(-1.74518e-05 1.65567e-06 0)
(-1.88211e-05 1.67152e-06 0)
(-2.02011e-05 1.68299e-06 0)
(-2.15881e-05 1.69021e-06 0)
(-2.29786e-05 1.69317e-06 0)
(-2.43696e-05 1.69191e-06 0)
(-2.57577e-05 1.68658e-06 0)
(-2.71395e-05 1.67733e-06 0)
(-2.85116e-05 1.66419e-06 0)
(-2.98712e-05 1.64714e-06 0)
(-3.12154e-05 1.62631e-06 0)
(-3.25409e-05 1.60197e-06 0)
(-3.38448e-05 1.57422e-06 0)
(-3.51244e-05 1.54301e-06 0)
(-3.63771e-05 1.50841e-06 0)
(-3.76004e-05 1.47073e-06 0)
(-3.87918e-05 1.43032e-06 0)
(-3.99486e-05 1.38713e-06 0)
(-4.10687e-05 1.34102e-06 0)
(-4.21498e-05 1.29207e-06 0)
(-4.319e-05 1.24062e-06 0)
(-4.41872e-05 1.18695e-06 0)
(-4.51396e-05 1.13111e-06 0)
(-4.60453e-05 1.07312e-06 0)
(-4.69028e-05 1.01307e-06 0)
(-4.77105e-05 9.51196e-07 0)
(-4.84669e-05 8.87787e-07 0)
(-4.91706e-05 8.22929e-07 0)
(-4.98206e-05 7.56537e-07 0)
(-5.04156e-05 6.88654e-07 0)
(-5.09546e-05 6.19515e-07 0)
(-5.14366e-05 5.49374e-07 0)
(-5.18607e-05 4.78392e-07 0)
(-5.22265e-05 4.06663e-07 0)
(-5.25332e-05 3.34264e-07 0)
(-5.27803e-05 2.61252e-07 0)
(-5.29672e-05 1.87721e-07 0)
(-5.30936e-05 1.13851e-07 0)
(-5.31596e-05 3.98575e-08 0)
(-5.31653e-05 -3.40965e-08 0)
(-5.31104e-05 -1.07905e-07 0)
(-5.29949e-05 -1.81469e-07 0)
(-5.28191e-05 -2.54657e-07 0)
(-5.25833e-05 -3.27314e-07 0)
(-5.22883e-05 -3.99323e-07 0)
(-5.19344e-05 -4.70644e-07 0)
(-5.1522e-05 -5.41245e-07 0)
(-5.1052e-05 -6.10964e-07 0)
(-5.05253e-05 -6.79552e-07 0)
(-4.99431e-05 -7.46787e-07 0)
(-4.93064e-05 -8.12556e-07 0)
(-4.86162e-05 -8.76875e-07 0)
(-4.78736e-05 -9.39725e-07 0)
(-4.70799e-05 -1.00094e-06 0)
(-4.62366e-05 -1.0603e-06 0)
(-4.53456e-05 -1.11765e-06 0)
(-4.44084e-05 -1.17285e-06 0)
(-4.34268e-05 -1.22581e-06 0)
(-4.24024e-05 -1.27646e-06 0)
(-4.13371e-05 -1.32472e-06 0)
(-4.02331e-05 -1.37052e-06 0)
(-3.90927e-05 -1.4137e-06 0)
(-3.79179e-05 -1.4541e-06 0)
(-3.67111e-05 -1.49154e-06 0)
(-3.54745e-05 -1.52589e-06 0)
(-3.42108e-05 -1.55706e-06 0)
(-3.29225e-05 -1.58502e-06 0)
(-3.16124e-05 -1.60969e-06 0)
(-3.02833e-05 -1.631e-06 0)
(-2.89379e-05 -1.64882e-06 0)
(-2.7579e-05 -1.663e-06 0)
(-2.62095e-05 -1.67334e-06 0)
(-2.48327e-05 -1.67975e-06 0)
(-2.34517e-05 -1.68229e-06 0)
(-2.20696e-05 -1.68108e-06 0)
(-2.06897e-05 -1.67606e-06 0)
(-1.93152e-05 -1.66693e-06 0)
(-1.79494e-05 -1.65349e-06 0)
(-1.65958e-05 -1.63576e-06 0)
(-1.52576e-05 -1.61386e-06 0)
(-1.39381e-05 -1.58787e-06 0)
(-1.26411e-05 -1.5577e-06 0)
(-1.13698e-05 -1.52317e-06 0)
(-1.01278e-05 -1.48429e-06 0)
(-8.9183e-06 -1.44117e-06 0)
(-7.74458e-06 -1.39397e-06 0)
(-6.61015e-06 -1.34274e-06 0)
(-5.51841e-06 -1.28746e-06 0)
(-4.47258e-06 -1.22812e-06 0)
(-3.47573e-06 -1.16479e-06 0)
(-2.53079e-06 -1.09764e-06 0)
(-1.64066e-06 -1.02688e-06 0)
(-8.08221e-07 -9.52711e-07 0)
(-3.61605e-08 -8.7538e-07 0)
(6.73049e-07 -7.95083e-07 0)
(1.31715e-06 -7.12041e-07 0)
(1.89417e-06 -6.26548e-07 0)
(2.40247e-06 -5.38941e-07 0)
(2.84067e-06 -4.49616e-07 0)
(3.20768e-06 -3.5906e-07 0)
(3.50283e-06 -2.67806e-07 0)
(3.7258e-06 -1.76442e-07 0)
(3.87686e-06 -8.56506e-08 0)
(3.95688e-06 3.82709e-09 0)
(3.96736e-06 9.11911e-08 0)
(3.91047e-06 1.75474e-07 0)
(3.78926e-06 2.5551e-07 0)
(3.60768e-06 3.29936e-07 0)
(3.37075e-06 3.97176e-07 0)
(3.08467e-06 4.55462e-07 0)
(2.75703e-06 5.02803e-07 0)
(2.39694e-06 5.36906e-07 0)
(2.01516e-06 5.55048e-07 0)
(1.6244e-06 5.54024e-07 0)
(1.23933e-06 5.30244e-07 0)
(8.76507e-07 4.80028e-07 0)
(5.53818e-07 4.00446e-07 0)
(2.88976e-07 2.91162e-07 0)
(1.01058e-07 1.58946e-07 0)
(1.44824e-08 3.1781e-08 0)
(6.71236e-08 -2.89683e-07 0)
(2.2827e-07 -3.42497e-07 0)
(5.15571e-07 -4.45091e-07 0)
(8.51817e-07 -6.10529e-07 0)
(1.2296e-06 -7.59616e-07 0)
(1.63696e-06 -8.60387e-07 0)
(2.05795e-06 -9.06867e-07 0)
(2.47465e-06 -9.03869e-07 0)
(2.86834e-06 -8.61565e-07 0)
(3.22571e-06 -7.84932e-07 0)
(3.53199e-06 -6.82484e-07 0)
(3.77664e-06 -5.59865e-07 0)
(3.95148e-06 -4.19875e-07 0)
(4.04708e-06 -2.6747e-07 0)
(4.0574e-06 -1.04818e-07 0)
(3.97886e-06 6.58975e-08 0)
(3.80675e-06 2.41343e-07 0)
(3.53905e-06 4.19925e-07 0)
(3.17462e-06 6.00638e-07 0)
(2.71172e-06 7.8146e-07 0)
(2.15088e-06 9.61247e-07 0)
(1.49327e-06 1.13886e-06 0)
(7.39879e-07 1.31302e-06 0)
(-1.0741e-07 1.48303e-06 0)
(-1.0461e-06 1.64825e-06 0)
(-2.07355e-06 1.80776e-06 0)
(-3.18667e-06 1.96107e-06 0)
(-4.38201e-06 2.10791e-06 0)
(-5.65606e-06 2.24777e-06 0)
(-7.00492e-06 2.38016e-06 0)
(-8.42431e-06 2.50487e-06 0)
(-9.90985e-06 2.6216e-06 0)
(-1.14571e-05 2.72987e-06 0)
(-1.30615e-05 2.82949e-06 0)
(-1.47182e-05 2.92066e-06 0)
(-1.64227e-05 3.00339e-06 0)
(-1.81703e-05 3.07737e-06 0)
(-1.99562e-05 3.14253e-06 0)
(-2.17752e-05 3.19902e-06 0)
(-2.36225e-05 3.24679e-06 0)
(-2.54934e-05 3.28572e-06 0)
(-2.73832e-05 3.31599e-06 0)
(-2.92869e-05 3.33791e-06 0)
(-3.11999e-05 3.35154e-06 0)
(-3.31174e-05 3.35676e-06 0)
(-3.5035e-05 3.35368e-06 0)
(-3.6948e-05 3.34267e-06 0)
(-3.8852e-05 3.32397e-06 0)
(-4.07426e-05 3.29758e-06 0)
(-4.26157e-05 3.26349e-06 0)
(-4.44671e-05 3.22206e-06 0)
(-4.62925e-05 3.17372e-06 0)
(-4.80884e-05 3.11868e-06 0)
(-4.98509e-05 3.05693e-06 0)
(-5.15762e-05 2.98859e-06 0)
(-5.32608e-05 2.91411e-06 0)
(-5.49012e-05 2.83393e-06 0)
(-5.64944e-05 2.7482e-06 0)
(-5.80372e-05 2.65698e-06 0)
(-5.95264e-05 2.56046e-06 0)
(-6.09591e-05 2.45892e-06 0)
(-6.23326e-05 2.35274e-06 0)
(-6.36445e-05 2.24219e-06 0)
(-6.48925e-05 2.12748e-06 0)
(-6.60742e-05 2.00886e-06 0)
(-6.71873e-05 1.88668e-06 0)
(-6.82297e-05 1.76122e-06 0)
(-6.91998e-05 1.63264e-06 0)
(-7.00959e-05 1.50113e-06 0)
(-7.09165e-05 1.36699e-06 0)
(-7.166e-05 1.23052e-06 0)
(-7.2325e-05 1.0919e-06 0)
(-7.29105e-05 9.51326e-07 0)
(-7.34156e-05 8.09117e-07 0)
(-7.38394e-05 6.65634e-07 0)
(-7.41814e-05 5.21202e-07 0)
(-7.44407e-05 3.7601e-07 0)
(-7.4617e-05 2.30156e-07 0)
(-7.47101e-05 8.38194e-08 0)
(-7.47198e-05 -6.26482e-08 0)
(-7.46462e-05 -2.08846e-07 0)
(-7.44894e-05 -3.54498e-07 0)
(-7.42495e-05 -4.99478e-07 0)
(-7.39272e-05 -6.43605e-07 0)
(-7.35233e-05 -7.86517e-07 0)
(-7.30383e-05 -9.27824e-07 0)
(-7.24732e-05 -1.06736e-06 0)
(-7.18287e-05 -1.20508e-06 0)
(-7.11061e-05 -1.34084e-06 0)
(-7.03067e-05 -1.47429e-06 0)
(-6.94321e-05 -1.60502e-06 0)
(-6.84839e-05 -1.73268e-06 0)
(-6.74637e-05 -1.8571e-06 0)
(-6.63733e-05 -1.97814e-06 0)
(-6.52146e-05 -2.09564e-06 0)
(-6.39898e-05 -2.2094e-06 0)
(-6.27013e-05 -2.31907e-06 0)
(-6.13514e-05 -2.42431e-06 0)
(-5.99426e-05 -2.52488e-06 0)
(-5.84777e-05 -2.62061e-06 0)
(-5.69594e-05 -2.71138e-06 0)
(-5.53906e-05 -2.79698e-06 0)
(-5.37743e-05 -2.87713e-06 0)
(-5.21136e-05 -2.95156e-06 0)
(-5.04118e-05 -3.02e-06 0)
(-4.86725e-05 -3.0822e-06 0)
(-4.68991e-05 -3.13803e-06 0)
(-4.50955e-05 -3.18732e-06 0)
(-4.32653e-05 -3.22984e-06 0)
(-4.14123e-05 -3.26542e-06 0)
(-3.95404e-05 -3.29389e-06 0)
(-3.76535e-05 -3.31507e-06 0)
(-3.5756e-05 -3.32878e-06 0)
(-3.38523e-05 -3.33481e-06 0)
(-3.19468e-05 -3.33307e-06 0)
(-3.00436e-05 -3.32357e-06 0)
(-2.81471e-05 -3.30618e-06 0)
(-2.62618e-05 -3.28066e-06 0)
(-2.43924e-05 -3.24684e-06 0)
(-2.25436e-05 -3.20467e-06 0)
(-2.07201e-05 -3.15425e-06 0)
(-1.89262e-05 -3.09565e-06 0)
(-1.71666e-05 -3.0288e-06 0)
(-1.54461e-05 -2.95359e-06 0)
(-1.37693e-05 -2.87002e-06 0)
(-1.21407e-05 -2.77825e-06 0)
(-1.05648e-05 -2.67848e-06 0)
(-9.04614e-06 -2.57088e-06 0)
(-7.5889e-06 -2.45555e-06 0)
(-6.19736e-06 -2.3326e-06 0)
(-4.87558e-06 -2.20228e-06 0)
(-3.62747e-06 -2.06494e-06 0)
(-2.45683e-06 -1.92095e-06 0)
(-1.36715e-06 -1.77078e-06 0)
(-3.616e-07 -1.61494e-06 0)
(5.56887e-07 -1.45394e-06 0)
(1.38569e-06 -1.28833e-06 0)
(2.12261e-06 -1.11878e-06 0)
(2.7658e-06 -9.4605e-07 0)
(3.31386e-06 -7.71048e-07 0)
(3.766e-06 -5.94848e-07 0)
(4.122e-06 -4.18627e-07 0)
(4.38232e-06 -2.43674e-07 0)
(4.54824e-06 -7.14579e-08 0)
(4.62187e-06 9.63732e-08 0)
(4.60619e-06 2.57971e-07 0)
(4.50519e-06 4.11219e-07 0)
(4.32409e-06 5.53657e-07 0)
(4.06949e-06 6.82417e-07 0)
(3.74946e-06 7.94217e-07 0)
(3.37383e-06 8.85338e-07 0)
(2.95416e-06 9.51602e-07 0)
(2.50375e-06 9.8842e-07 0)
(2.03792e-06 9.90755e-07 0)
(1.57408e-06 9.53242e-07 0)
(1.13159e-06 8.70637e-07 0)
(7.31285e-07 7.38741e-07 0)
(3.94543e-07 5.56489e-07 0)
(1.46973e-07 3.31665e-07 0)
(2.44481e-08 9.60614e-08 0)
(5.02722e-08 -3.95211e-07 0)
(2.17232e-07 -6.10219e-07 0)
(5.43555e-07 -7.9309e-07 0)
(9.39066e-07 -1.00846e-06 0)
(1.37521e-06 -1.19262e-06 0)
(1.83668e-06 -1.30991e-06 0)
(2.30339e-06 -1.35395e-06 0)
(2.75422e-06 -1.33298e-06 0)
(3.17325e-06 -1.25368e-06 0)
(3.54197e-06 -1.12731e-06 0)
(3.84534e-06 -9.61865e-07 0)
(4.07222e-06 -7.63482e-07 0)
(4.21095e-06 -5.39952e-07 0)
(4.25275e-06 -2.96191e-07 0)
(4.19086e-06 -3.57028e-08 0)
(4.01857e-06 2.36776e-07 0)
(3.73212e-06 5.17735e-07 0)
(3.32882e-06 8.04663e-07 0)
(2.80647e-06 1.09407e-06 0)
(2.16412e-06 1.384e-06 0)
(1.40161e-06 1.67278e-06 0)
(5.19903e-07 1.95812e-06 0)
(-4.7931e-07 2.23852e-06 0)
(-1.59391e-06 2.51255e-06 0)
(-2.82108e-06 2.77889e-06 0)
(-4.15747e-06 3.03635e-06 0)
(-5.59922e-06 3.28403e-06 0)
(-7.1422e-06 3.52104e-06 0)
(-8.78203e-06 3.74658e-06 0)
(-1.05138e-05 3.96018e-06 0)
(-1.23325e-05 4.16147e-06 0)
(-1.4233e-05 4.34991e-06 0)
(-1.62097e-05 4.52497e-06 0)
(-1.82567e-05 4.68639e-06 0)
(-2.03682e-05 4.83393e-06 0)
(-2.25385e-05 4.96732e-06 0)
(-2.47618e-05 5.08652e-06 0)
(-2.7032e-05 5.19171e-06 0)
(-2.93431e-05 5.28285e-06 0)
(-3.1689e-05 5.35975e-06 0)
(-3.40637e-05 5.42237e-06 0)
(-3.64611e-05 5.47092e-06 0)
(-3.88752e-05 5.50569e-06 0)
(-4.13004e-05 5.52677e-06 0)
(-4.37308e-05 5.53425e-06 0)
(-4.61605e-05 5.5284e-06 0)
(-4.85838e-05 5.50955e-06 0)
(-5.09952e-05 5.47798e-06 0)
(-5.33895e-05 5.43384e-06 0)
(-5.57612e-05 5.37738e-06 0)
(-5.8105e-05 5.30901e-06 0)
(-6.04157e-05 5.22914e-06 0)
(-6.26888e-05 5.13806e-06 0)
(-6.49196e-05 5.03615e-06 0)
(-6.71033e-05 4.9238e-06 0)
(-6.92353e-05 4.80139e-06 0)
(-7.13113e-05 4.66925e-06 0)
(-7.33274e-05 4.52776e-06 0)
(-7.52797e-05 4.37739e-06 0)
(-7.71644e-05 4.2186e-06 0)
(-7.89776e-05 4.05174e-06 0)
(-8.07159e-05 3.87716e-06 0)
(-8.23764e-05 3.69522e-06 0)
(-8.3956e-05 3.5064e-06 0)
(-8.54516e-05 3.31126e-06 0)
(-8.68606e-05 3.11031e-06 0)
(-8.81803e-05 2.90382e-06 0)
(-8.94086e-05 2.69209e-06 0)
(-9.05434e-05 2.47554e-06 0)
(-9.15824e-05 2.25476e-06 0)
(-9.25241e-05 2.03021e-06 0)
(-9.33667e-05 1.8022e-06 0)
(-9.41089e-05 1.57104e-06 0)
(-9.47493e-05 1.33709e-06 0)
(-9.52869e-05 1.10084e-06 0)
(-9.57207e-05 8.62871e-07 0)
(-9.60502e-05 6.23683e-07 0)
(-9.6275e-05 3.83602e-07 0)
(-9.63946e-05 1.42893e-07 0)
(-9.64087e-05 -9.80451e-08 0)
(-9.63174e-05 -3.38672e-07 0)
(-9.61209e-05 -5.78479e-07 0)
(-9.58196e-05 -8.1715e-07 0)
(-9.5414e-05 -1.05444e-06 0)
(-9.4905e-05 -1.28993e-06 0)
(-9.42933e-05 -1.523e-06 0)
(-9.35803e-05 -1.7531e-06 0)
(-9.27671e-05 -1.97993e-06 0)
(-9.18553e-05 -2.20324e-06 0)
(-9.08463e-05 -2.42278e-06 0)
(-8.97419e-05 -2.63812e-06 0)
(-8.85442e-05 -2.8487e-06 0)
(-8.72554e-05 -3.05397e-06 0)
(-8.58777e-05 -3.25356e-06 0)
(-8.44138e-05 -3.44716e-06 0)
(-8.28664e-05 -3.6345e-06 0)
(-8.1238e-05 -3.8152e-06 0)
(-7.95318e-05 -3.98878e-06 0)
(-7.7751e-05 -4.15483e-06 0)
(-7.58989e-05 -4.31298e-06 0)
(-7.39792e-05 -4.46285e-06 0)
(-7.19955e-05 -4.60408e-06 0)
(-6.99516e-05 -4.73629e-06 0)
(-6.78513e-05 -4.85912e-06 0)
(-6.56987e-05 -4.97222e-06 0)
(-6.34983e-05 -5.07522e-06 0)
(-6.12546e-05 -5.16781e-06 0)
(-5.89721e-05 -5.24969e-06 0)
(-5.66556e-05 -5.32047e-06 0)
(-5.43099e-05 -5.37978e-06 0)
(-5.19398e-05 -5.42736e-06 0)
(-4.95505e-05 -5.46302e-06 0)
(-4.71471e-05 -5.48661e-06 0)
(-4.47351e-05 -5.49783e-06 0)
(-4.232e-05 -5.4963e-06 0)
(-3.99073e-05 -5.4818e-06 0)
(-3.75023e-05 -5.45425e-06 0)
(-3.51106e-05 -5.41356e-06 0)
(-3.2738e-05 -5.35956e-06 0)
(-3.03904e-05 -5.29207e-06 0)
(-2.80736e-05 -5.21097e-06 0)
(-2.57934e-05 -5.11632e-06 0)
(-2.35553e-05 -5.00823e-06 0)
(-2.1365e-05 -4.88673e-06 0)
(-1.92285e-05 -4.75178e-06 0)
(-1.71514e-05 -4.60349e-06 0)
(-1.51394e-05 -4.44206e-06 0)
(-1.3198e-05 -4.26779e-06 0)
(-1.13324e-05 -4.081e-06 0)
(-9.54767e-06 -3.88203e-06 0)
(-7.84903e-06 -3.67128e-06 0)
(-6.24124e-06 -3.44926e-06 0)
(-4.72895e-06 -3.21657e-06 0)
(-3.31646e-06 -2.97387e-06 0)
(-2.00768e-06 -2.72196e-06 0)
(-8.06078e-07 -2.46177e-06 0)
(2.85187e-07 -2.19432e-06 0)
(1.26345e-06 -1.92074e-06 0)
(2.12652e-06 -1.64231e-06 0)
(2.87272e-06 -1.36048e-06 0)
(3.50113e-06 -1.0769e-06 0)
(4.01157e-06 -7.93457e-07 0)
(4.40473e-06 -5.12225e-07 0)
(4.68221e-06 -2.35542e-07 0)
(4.84665e-06 3.39303e-08 0)
(4.90176e-06 2.93151e-07 0)
(4.85248e-06 5.38717e-07 0)
(4.70507e-06 7.66847e-07 0)
(4.46731e-06 9.73239e-07 0)
(4.14874e-06 1.15301e-06 0)
(3.76072e-06 1.30064e-06 0)
(3.31663e-06 1.40992e-06 0)
(2.83181e-06 1.47407e-06 0)
(2.32365e-06 1.48592e-06 0)
(1.81153e-06 1.4382e-06 0)
(1.31676e-06 1.32413e-06 0)
(8.62226e-07 1.13828e-06 0)
(4.72445e-07 8.78125e-07 0)
(1.79855e-07 5.49468e-07 0)
(3.12254e-08 1.81789e-07 0)
(4.14394e-08 -4.98679e-07 0)
(2.08437e-07 -8.85925e-07 0)
(5.50887e-07 -1.16927e-06 0)
(9.75418e-07 -1.44657e-06 0)
(1.44216e-06 -1.66404e-06 0)
(1.92959e-06 -1.79195e-06 0)
(2.41177e-06 -1.8275e-06 0)
(2.8698e-06 -1.7751e-06 0)
(3.28287e-06 -1.64832e-06 0)
(3.63265e-06 -1.45814e-06 0)
(3.90452e-06 -1.21393e-06 0)
(4.08321e-06 -9.25388e-07 0)
(4.15739e-06 -6.00971e-07 0)
(4.11813e-06 -2.46977e-07 0)
(3.95638e-06 1.29676e-07 0)
(3.66591e-06 5.2374e-07 0)
(3.24205e-06 9.30853e-07 0)
(2.68106e-06 1.34628e-06 0)
(1.98097e-06 1.76598e-06 0)
(1.14089e-06 2.18665e-06 0)
(1.60431e-07 2.60533e-06 0)
(-9.59334e-07 3.0194e-06 0)
(-2.21652e-06 3.42639e-06 0)
(-3.60873e-06 3.82432e-06 0)
(-5.13269e-06 4.21128e-06 0)
(-6.78455e-06 4.58569e-06 0)
(-8.55995e-06 4.94612e-06 0)
(-1.04541e-05 5.29117e-06 0)
(-1.24617e-05 5.61974e-06 0)
(-1.4577e-05 5.93096e-06 0)
(-1.67941e-05 6.22397e-06 0)
(-1.91069e-05 6.49806e-06 0)
(-2.15091e-05 6.7529e-06 0)
(-2.39938e-05 6.98809e-06 0)
(-2.65542e-05 7.20301e-06 0)
(-2.91836e-05 7.39726e-06 0)
(-3.18748e-05 7.57083e-06 0)
(-3.46205e-05 7.72373e-06 0)
(-3.7414e-05 7.85585e-06 0)
(-4.02482e-05 7.96716e-06 0)
(-4.31158e-05 8.05781e-06 0)
(-4.60094e-05 8.12792e-06 0)
(-4.89222e-05 8.17762e-06 0)
(-5.18472e-05 8.20709e-06 0)
(-5.47777e-05 8.21666e-06 0)
(-5.77065e-05 8.20674e-06 0)
(-6.06269e-05 8.17766e-06 0)
(-6.35324e-05 8.12966e-06 0)
(-6.64168e-05 8.06318e-06 0)
(-6.92734e-05 7.97879e-06 0)
(-7.2096e-05 7.87698e-06 0)
(-7.48787e-05 7.75809e-06 0)
(-7.76156e-05 7.62252e-06 0)
(-8.03013e-05 7.47097e-06 0)
(-8.29301e-05 7.30415e-06 0)
(-8.54966e-05 7.12257e-06 0)
(-8.79957e-05 6.92659e-06 0)
(-9.04225e-05 6.71673e-06 0)
(-9.27724e-05 6.49367e-06 0)
(-9.50407e-05 6.25816e-06 0)
(-9.72231e-05 6.01079e-06 0)
(-9.93156e-05 5.75204e-06 0)
(-0.000101314 5.48245e-06 0)
(-0.000103216 5.20269e-06 0)
(-0.000105016 4.91354e-06 0)
(-0.000106712 4.61566e-06 0)
(-0.000108301 4.30953e-06 0)
(-0.00010978 3.99571e-06 0)
(-0.000111146 3.67483e-06 0)
(-0.000112397 3.34757e-06 0)
(-0.000113531 3.01458e-06 0)
(-0.000114546 2.67648e-06 0)
(-0.000115441 2.33388e-06 0)
(-0.000116213 1.98735e-06 0)
(-0.000116861 1.63746e-06 0)
(-0.000117384 1.28484e-06 0)
(-0.000117782 9.3017e-07 0)
(-0.000118054 5.74096e-07 0)
(-0.0001182 2.17208e-07 0)
(-0.000118218 -1.39897e-07 0)
(-0.00011811 -4.96593e-07 0)
(-0.000117875 -8.52218e-07 0)
(-0.000117515 -1.20614e-06 0)
(-0.000117029 -1.55782e-06 0)
(-0.000116419 -1.90674e-06 0)
(-0.000115685 -2.25229e-06 0)
(-0.000114829 -2.59378e-06 0)
(-0.000113852 -2.93051e-06 0)
(-0.000112757 -3.26189e-06 0)
(-0.000111545 -3.58741e-06 0)
(-0.000110219 -3.90656e-06 0)
(-0.00010878 -4.21875e-06 0)
(-0.000107231 -4.52332e-06 0)
(-0.000105575 -4.81967e-06 0)
(-0.000103815 -5.10719e-06 0)
(-0.000101955 -5.38531e-06 0)
(-9.99976e-05 -5.65344e-06 0)
(-9.79462e-05 -5.91102e-06 0)
(-9.58048e-05 -6.15753e-06 0)
(-9.35776e-05 -6.39248e-06 0)
(-9.12687e-05 -6.61525e-06 0)
(-8.88826e-05 -6.82523e-06 0)
(-8.64237e-05 -7.02182e-06 0)
(-8.38968e-05 -7.20448e-06 0)
(-8.13067e-05 -7.37275e-06 0)
(-7.86588e-05 -7.52615e-06 0)
(-7.59584e-05 -7.66421e-06 0)
(-7.32109e-05 -7.78648e-06 0)
(-7.04219e-05 -7.89245e-06 0)
(-6.75971e-05 -7.98159e-06 0)
(-6.47425e-05 -8.05341e-06 0)
(-6.18642e-05 -8.10757e-06 0)
(-5.89684e-05 -8.1438e-06 0)
(-5.60615e-05 -8.16187e-06 0)
(-5.31498e-05 -8.16134e-06 0)
(-5.024e-05 -8.14175e-06 0)
(-4.73387e-05 -8.10282e-06 0)
(-4.44524e-05 -8.04446e-06 0)
(-4.1588e-05 -7.96657e-06 0)
(-3.87522e-05 -7.86901e-06 0)
(-3.59522e-05 -7.7516e-06 0)
(-3.31947e-05 -7.61423e-06 0)
(-3.04865e-05 -7.45696e-06 0)
(-2.78342e-05 -7.27995e-06 0)
(-2.52447e-05 -7.08336e-06 0)
(-2.27248e-05 -6.86736e-06 0)
(-2.02812e-05 -6.6322e-06 0)
(-1.79203e-05 -6.37823e-06 0)
(-1.56483e-05 -6.1059e-06 0)
(-1.34713e-05 -5.8158e-06 0)
(-1.13953e-05 -5.50857e-06 0)
(-9.42579e-06 -5.18499e-06 0)
(-7.56826e-06 -4.84598e-06 0)
(-5.82767e-06 -4.49253e-06 0)
(-4.20862e-06 -4.12575e-06 0)
(-2.71522e-06 -3.74699e-06 0)
(-1.35107e-06 -3.35777e-06 0)
(-1.19236e-07 -2.95981e-06 0)
(9.7775e-07 -2.55504e-06 0)
(1.93805e-06 -2.14561e-06 0)
(2.76065e-06 -1.73393e-06 0)
(3.44541e-06 -1.32266e-06 0)
(3.99316e-06 -9.14811e-07 0)
(4.40582e-06 -5.13751e-07 0)
(4.68639e-06 -1.23261e-07 0)
(4.83909e-06 2.52361e-07 0)
(4.86963e-06 6.08242e-07 0)
(4.78521e-06 9.38978e-07 0)
(4.59463e-06 1.2386e-06 0)
(4.30848e-06 1.50046e-06 0)
(3.93932e-06 1.71719e-06 0)
(3.50172e-06 1.88066e-06 0)
(3.01235e-06 1.98198e-06 0)
(2.4901e-06 2.01173e-06 0)
(1.95609e-06 1.96037e-06 0)
(1.43342e-06 1.819e-06 0)
(9.46772e-07 1.58031e-06 0)
(5.23188e-07 1.23953e-06 0)
(2.00796e-07 7.98743e-07 0)
(3.52931e-08 2.8186e-07 0)
(3.61003e-08 -5.98611e-07 0)
(2.0203e-07 -1.16189e-06 0)
(5.44933e-07 -1.55838e-06 0)
(9.7668e-07 -1.9003e-06 0)
(1.45002e-06 -2.14839e-06 0)
(1.93566e-06 -2.28198e-06 0)
(2.41011e-06 -2.29709e-06 0)
(2.84773e-06 -2.20455e-06 0)
(3.22755e-06 -2.01741e-06 0)
(3.53238e-06 -1.74872e-06 0)
(3.74412e-06 -1.41164e-06 0)
(3.84817e-06 -1.01746e-06 0)
(3.8323e-06 -5.75103e-07 0)
(3.68584e-06 -9.45087e-08 0)
(3.40009e-06 4.16406e-07 0)
(2.96837e-06 9.50856e-07 0)
(2.38529e-06 1.50232e-06 0)
(1.64673e-06 2.06515e-06 0)
(7.50472e-07 2.6343e-06 0)
(-3.04411e-07 3.20498e-06 0)
(-1.51814e-06 3.77318e-06 0)
(-2.88969e-06 4.33535e-06 0)
(-4.4169e-06 4.88804e-06 0)
(-6.09696e-06 5.42856e-06 0)
(-7.92631e-06 5.95433e-06 0)
(-9.90056e-06 6.46313e-06 0)
(-1.20149e-05 6.95297e-06 0)
(-1.42639e-05 7.42211e-06 0)
(-1.66415e-05 7.86916e-06 0)
(-1.91413e-05 8.29274e-06 0)
(-2.17567e-05 8.69148e-06 0)
(-2.44806e-05 9.06449e-06 0)
(-2.73054e-05 9.41122e-06 0)
(-3.02238e-05 9.731e-06 0)
(-3.32283e-05 1.00231e-05 0)
(-3.63107e-05 1.02873e-05 0)
(-3.94629e-05 1.05234e-05 0)
(-4.26769e-05 1.0731e-05 0)
(-4.59446e-05 1.091e-05 0)
(-4.92579e-05 1.10606e-05 0)
(-5.26085e-05 1.11829e-05 0)
(-5.59882e-05 1.12771e-05 0)
(-5.9389e-05 1.13433e-05 0)
(-6.28029e-05 1.13817e-05 0)
(-6.62219e-05 1.13929e-05 0)
(-6.9638e-05 1.13774e-05 0)
(-7.30436e-05 1.13354e-05 0)
(-7.64311e-05 1.12674e-05 0)
(-7.97932e-05 1.1174e-05 0)
(-8.31222e-05 1.10561e-05 0)
(-8.64113e-05 1.09141e-05 0)