/*--------------------------------*- C++ -*----------------------------------*\
  =========                 |
  \\      /  F ield         | OpenFOAM: The Open Source CFD Toolbox
   \\    /   O peration     | Website:  https://openfoam.org
    \\  /    A nd           | Version:  7
     \\/     M anipulation  |
\*---------------------------------------------------------------------------*/
FoamFile
{
    version     2.0;
    format      ascii;
    class       volScalarField;
    location    "0.1625";
    object      p;
}
// * * * * * * * * * * * * * * * * * * * * * * * * * * * * * * * * * * * * * //

dimensions      [0 2 -2 0 0 0 0];

internalField   nonuniform List<scalar> 
51200
(
-1.15166e-08
1.77156e-07
-2.54191e-07
-1.80222e-06
-3.71594e-06
-5.51306e-06
-7.14494e-06
-8.67344e-06
-1.01594e-05
-1.16191e-05
-1.30687e-05
-1.45221e-05
-1.59906e-05
-1.74691e-05
-1.89606e-05
-2.0457e-05
-2.19583e-05
-2.34768e-05
-2.49988e-05
-2.65127e-05
-2.80106e-05
-2.94886e-05
-3.09537e-05
-3.24082e-05
-3.3841e-05
-3.52462e-05
-3.66164e-05
-3.79481e-05
-3.92474e-05
-4.05143e-05
-4.17428e-05
-4.29349e-05
-4.40903e-05
-4.52044e-05
-4.62806e-05
-4.73175e-05
-4.83049e-05
-4.92455e-05
-5.0146e-05
-5.10024e-05
-5.18134e-05
-5.25826e-05
-5.33032e-05
-5.39684e-05
-5.4584e-05
-5.51517e-05
-5.56666e-05
-5.61316e-05
-5.65505e-05
-5.69205e-05
-5.72433e-05
-5.75239e-05
-5.77589e-05
-5.79396e-05
-5.80625e-05
-5.81309e-05
-5.81496e-05
-5.8123e-05
-5.80569e-05
-5.79574e-05
-5.78234e-05
-5.76514e-05
-5.74455e-05
-5.72104e-05
-5.69413e-05
-5.66289e-05
-5.62717e-05
-5.58781e-05
-5.54572e-05
-5.50171e-05
-5.4567e-05
-5.41105e-05
-5.36412e-05
-5.31518e-05
-5.26442e-05
-5.2127e-05
-5.16049e-05
-5.1079e-05
-5.05511e-05
-5.00241e-05
-4.95e-05
-4.89773e-05
-4.84548e-05
-4.79357e-05
-4.74212e-05
-4.69083e-05
-4.63963e-05
-4.589e-05
-4.5395e-05
-4.49137e-05
-4.44476e-05
-4.40003e-05
-4.3575e-05
-4.3171e-05
-4.27868e-05
-4.24249e-05
-4.20925e-05
-4.17957e-05
-4.15338e-05
-4.13018e-05
-4.10987e-05
-4.09306e-05
-4.08044e-05
-4.07234e-05
-4.06864e-05
-4.06911e-05
-4.07339e-05
-4.08108e-05
-4.09219e-05
-4.10747e-05
-4.12791e-05
-4.15392e-05
-4.18503e-05
-4.2206e-05
-4.26053e-05
-4.30516e-05
-4.35486e-05
-4.40958e-05
-4.46906e-05
-4.53318e-05
-4.60185e-05
-4.67497e-05
-4.75256e-05
-4.83494e-05
-4.92254e-05
-5.01541e-05
-5.11308e-05
-5.21492e-05
-5.3206e-05
-5.43017e-05
-5.54366e-05
-5.66078e-05
-5.78091e-05
-5.90349e-05
-6.02829e-05
-6.15535e-05
-6.28465e-05
-6.41582e-05
-6.54812e-05
-6.68082e-05
-6.81332e-05
-6.94494e-05
-7.07467e-05
-7.2014e-05
-7.32428e-05
-7.44291e-05
-7.55694e-05
-7.66565e-05
-7.7681e-05
-7.86339e-05
-7.9507e-05
-8.02896e-05
-8.09677e-05
-8.15269e-05
-8.1956e-05
-8.22467e-05
-8.23946e-05
-8.24054e-05
-8.23053e-05
-8.21632e-05
-9.85594e-08
-9.57938e-07
-1.91623e-06
-3.41813e-06
-5.03381e-06
-6.49594e-06
-7.83888e-06
-9.14138e-06
-1.0442e-05
-1.17581e-05
-1.30879e-05
-1.44367e-05
-1.57992e-05
-1.71843e-05
-1.85913e-05
-2.00063e-05
-2.14335e-05
-2.28645e-05
-2.43038e-05
-2.57455e-05
-2.71746e-05
-2.8591e-05
-2.99921e-05
-3.1375e-05
-3.27463e-05
-3.40976e-05
-3.54198e-05
-3.67127e-05
-3.79709e-05
-3.91921e-05
-4.03812e-05
-4.15376e-05
-4.26574e-05
-4.37445e-05
-4.47997e-05
-4.58158e-05
-4.67909e-05
-4.7726e-05
-4.86172e-05
-4.94665e-05
-5.02802e-05
-5.10542e-05
-5.17836e-05
-5.24696e-05
-5.31074e-05
-5.36918e-05
-5.4226e-05
-5.47123e-05
-5.51497e-05
-5.55389e-05
-5.58822e-05
-5.6181e-05
-5.6436e-05
-5.66457e-05
-5.68087e-05
-5.69236e-05
-5.69898e-05
-5.70089e-05
-5.69864e-05
-5.69294e-05
-5.6838e-05
-5.6708e-05
-5.65426e-05
-5.63457e-05
-5.61155e-05
-5.58511e-05
-5.55544e-05
-5.52249e-05
-5.48618e-05
-5.44723e-05
-5.40686e-05
-5.36565e-05
-5.32345e-05
-5.28007e-05
-5.23553e-05
-5.18988e-05
-5.1432e-05
-5.09593e-05
-5.0487e-05
-5.00166e-05
-4.95471e-05
-4.90788e-05
-4.8613e-05
-4.81514e-05
-4.76927e-05
-4.72342e-05
-4.67775e-05
-4.63274e-05
-4.58865e-05
-4.54551e-05
-4.50369e-05
-4.46395e-05
-4.42671e-05
-4.39167e-05
-4.35843e-05
-4.32717e-05
-4.29841e-05
-4.27257e-05
-4.24993e-05
-4.23071e-05
-4.21526e-05
-4.20366e-05
-4.19564e-05
-4.19107e-05
-4.19036e-05
-4.19392e-05
-4.20159e-05
-4.21274e-05
-4.22713e-05
-4.24532e-05
-4.26812e-05
-4.29573e-05
-4.32792e-05
-4.36459e-05
-4.40595e-05
-4.45211e-05
-4.50281e-05
-4.55775e-05
-4.61701e-05
-4.68096e-05
-4.74961e-05
-4.82247e-05
-4.89919e-05
-4.98009e-05
-5.06583e-05
-5.15669e-05
-5.2522e-05
-5.35157e-05
-5.4544e-05
-5.56069e-05
-5.67032e-05
-5.7828e-05
-5.89764e-05
-6.01471e-05
-6.13413e-05
-6.25581e-05
-6.37927e-05
-6.50391e-05
-6.62922e-05
-6.75485e-05
-6.8803e-05
-7.00461e-05
-7.12657e-05
-7.24527e-05
-7.36025e-05
-7.4713e-05
-7.5779e-05
-7.67906e-05
-7.77376e-05
-7.86149e-05
-7.94206e-05
-8.01485e-05
-8.07836e-05
-8.13083e-05
-8.17118e-05
-8.19926e-05
-8.21546e-05
-8.22035e-05
-8.21444e-05
-8.20046e-05
-7.52145e-07
-2.03387e-06
-3.25335e-06
-4.64488e-06
-6.00969e-06
-7.23012e-06
-8.37661e-06
-9.50677e-06
-1.06635e-05
-1.18491e-05
-1.30776e-05
-1.43324e-05
-1.56107e-05
-1.69143e-05
-1.82416e-05
-1.9595e-05
-2.09536e-05
-2.23164e-05
-2.36883e-05
-2.50614e-05
-2.64365e-05
-2.78051e-05
-2.9154e-05
-3.04872e-05
-3.18059e-05
-3.31064e-05
-3.43905e-05
-3.56496e-05
-3.68739e-05
-3.80651e-05
-3.92252e-05
-4.03525e-05
-4.14503e-05
-4.25191e-05
-4.35538e-05
-4.45539e-05
-4.55196e-05
-4.64449e-05
-4.73293e-05
-4.81781e-05
-4.899e-05
-4.97629e-05
-5.04986e-05
-5.11944e-05
-5.18437e-05
-5.24446e-05
-5.29967e-05
-5.35002e-05
-5.3958e-05
-5.43707e-05
-5.47369e-05
-5.50572e-05
-5.53329e-05
-5.5564e-05
-5.57528e-05
-5.59001e-05
-5.60014e-05
-5.60561e-05
-5.60705e-05
-5.60502e-05
-5.59954e-05
-5.59058e-05
-5.57824e-05
-5.56215e-05
-5.54222e-05
-5.5193e-05
-5.49401e-05
-5.46588e-05
-5.43455e-05
-5.40059e-05
-5.36487e-05
-5.32774e-05
-5.28945e-05
-5.25047e-05
-5.21086e-05
-5.17017e-05
-5.12819e-05
-5.08561e-05
-5.04323e-05
-5.00107e-05
-4.95881e-05
-4.91667e-05
-4.875e-05
-4.83376e-05
-4.79259e-05
-4.75135e-05
-4.71046e-05
-4.67036e-05
-4.63097e-05
-4.59221e-05
-4.55465e-05
-4.51918e-05
-4.4861e-05
-4.45505e-05
-4.42585e-05
-4.39892e-05
-4.37446e-05
-4.35228e-05
-4.33261e-05
-4.31645e-05
-4.30474e-05
-4.29744e-05
-4.29361e-05
-4.29268e-05
-4.29507e-05
-4.30135e-05
-4.31146e-05
-4.32503e-05
-4.34203e-05
-4.36294e-05
-4.38803e-05
-4.41711e-05
-4.45007e-05
-4.48738e-05
-4.52964e-05
-4.57679e-05
-4.62817e-05
-4.68333e-05
-4.74254e-05
-4.80635e-05
-4.87488e-05
-4.94755e-05
-5.02388e-05
-5.10407e-05
-5.1887e-05
-5.278e-05
-5.37154e-05
-5.46867e-05
-5.5691e-05
-5.67277e-05
-5.77933e-05
-5.88808e-05
-5.99855e-05
-6.11097e-05
-6.22586e-05
-6.34312e-05
-6.46191e-05
-6.58137e-05
-6.70112e-05
-6.82113e-05
-6.94092e-05
-7.05932e-05
-7.17506e-05
-7.28746e-05
-7.39643e-05
-7.50189e-05
-7.60313e-05
-7.69892e-05
-7.78818e-05
-7.8705e-05
-7.94598e-05
-8.01434e-05
-8.07428e-05
-8.12394e-05
-8.16219e-05
-8.18905e-05
-8.20517e-05
-8.21094e-05
-8.20502e-05
-8.18721e-05
-2.30147e-06
-3.47143e-06
-4.54847e-06
-5.64746e-06
-6.73496e-06
-7.74755e-06
-8.73438e-06
-9.74143e-06
-1.07816e-05
-1.18705e-05
-1.30023e-05
-1.41779e-05
-1.53892e-05
-1.66198e-05
-1.78833e-05
-1.9173e-05
-2.04773e-05
-2.17911e-05
-2.31042e-05
-2.4421e-05
-2.57433e-05
-2.70616e-05
-2.83719e-05
-2.96686e-05
-3.09453e-05
-3.22085e-05
-3.34565e-05
-3.46795e-05
-3.58761e-05
-3.70436e-05
-3.81779e-05
-3.92858e-05
-4.03695e-05
-4.14222e-05
-4.24433e-05
-4.34341e-05
-4.4388e-05
-4.53049e-05
-4.61887e-05
-4.70367e-05
-4.78478e-05
-4.86237e-05
-4.93622e-05
-5.00599e-05
-5.0716e-05
-5.13276e-05
-5.18909e-05
-5.2409e-05
-5.28849e-05
-5.33181e-05
-5.37085e-05
-5.40553e-05
-5.43555e-05
-5.46094e-05
-5.48218e-05
-5.49923e-05
-5.51181e-05
-5.52025e-05
-5.52491e-05
-5.52583e-05
-5.52336e-05
-5.51804e-05
-5.50965e-05
-5.49735e-05
-5.481e-05
-5.4615e-05
-5.43941e-05
-5.41459e-05
-5.38723e-05
-5.3579e-05
-5.32683e-05
-5.29399e-05
-5.25969e-05
-5.22467e-05
-5.18905e-05
-5.15237e-05
-5.11456e-05
-5.07633e-05
-5.03834e-05
-5.00047e-05
-4.96245e-05
-4.92468e-05
-4.88748e-05
-4.85053e-05
-4.81346e-05
-4.77643e-05
-4.73991e-05
-4.70413e-05
-4.66886e-05
-4.63422e-05
-4.60094e-05
-4.5696e-05
-4.54013e-05
-4.51227e-05
-4.48631e-05
-4.46294e-05
-4.44221e-05
-4.42363e-05
-4.4073e-05
-4.39431e-05
-4.38566e-05
-4.38135e-05
-4.38074e-05
-4.38344e-05
-4.38948e-05
-4.3988e-05
-4.4111e-05
-4.42644e-05
-4.4454e-05
-4.46845e-05
-4.49543e-05
-4.52582e-05
-4.55963e-05
-4.59761e-05
-4.64045e-05
-4.68806e-05
-4.73985e-05
-4.79549e-05
-4.85517e-05
-4.91913e-05
-4.98725e-05
-5.05926e-05
-5.13513e-05
-5.21512e-05
-5.2994e-05
-5.38773e-05
-5.47965e-05
-5.5748e-05
-5.67311e-05
-5.77442e-05
-5.87819e-05
-5.98369e-05
-6.09063e-05
-6.19943e-05
-6.31054e-05
-6.42379e-05
-6.53839e-05
-6.65352e-05
-6.76887e-05
-6.88437e-05
-6.99943e-05
-7.11278e-05
-7.22339e-05
-7.33094e-05
-7.43548e-05
-7.53672e-05
-7.63378e-05
-7.72553e-05
-7.81107e-05
-7.88989e-05
-7.96169e-05
-8.02614e-05
-8.08242e-05
-8.12931e-05
-8.16586e-05
-8.19187e-05
-8.2076e-05
-8.21303e-05
-8.20574e-05
-8.18405e-05
-3.96475e-06
-4.79658e-06
-5.60593e-06
-6.43169e-06
-7.28206e-06
-8.11948e-06
-8.97557e-06
-9.87526e-06
-1.08314e-05
-1.18333e-05
-1.28818e-05
-1.39841e-05
-1.51254e-05
-1.63012e-05
-1.75033e-05
-1.87292e-05
-1.99819e-05
-2.12447e-05
-2.25131e-05
-2.37857e-05
-2.50544e-05
-2.63235e-05
-2.75926e-05
-2.88493e-05
-3.00952e-05
-3.13289e-05
-3.25417e-05
-3.37336e-05
-3.49038e-05
-3.60446e-05
-3.71575e-05
-3.82492e-05
-3.93153e-05
-4.03535e-05
-4.13658e-05
-4.2345e-05
-4.3288e-05
-4.41997e-05
-4.50793e-05
-4.59247e-05
-4.67385e-05
-4.75188e-05
-4.82609e-05
-4.89643e-05
-4.96279e-05
-5.02477e-05
-5.08232e-05
-5.13563e-05
-5.18472e-05
-5.22969e-05
-5.27075e-05
-5.3076e-05
-5.33998e-05
-5.36811e-05
-5.39195e-05
-5.41125e-05
-5.42628e-05
-5.43763e-05
-5.44529e-05
-5.44913e-05
-5.44972e-05
-5.44748e-05
-5.44209e-05
-5.43327e-05
-5.42106e-05
-5.40564e-05
-5.38701e-05
-5.36546e-05
-5.34174e-05
-5.31637e-05
-5.28939e-05
-5.26081e-05
-5.23094e-05
-5.20008e-05
-5.16821e-05
-5.13525e-05
-5.10157e-05
-5.06765e-05
-5.03374e-05
-4.99982e-05
-4.96598e-05
-4.93259e-05
-4.89968e-05
-4.86676e-05
-4.83376e-05
-4.80106e-05
-4.76888e-05
-4.73705e-05
-4.70555e-05
-4.67497e-05
-4.64599e-05
-4.61873e-05
-4.5929e-05
-4.56853e-05
-4.54608e-05
-4.52597e-05
-4.50821e-05
-4.49275e-05
-4.4801e-05
-4.47099e-05
-4.46567e-05
-4.46398e-05
-4.46589e-05
-4.4716e-05
-4.48093e-05
-4.49322e-05
-4.50797e-05
-4.52547e-05
-4.54646e-05
-4.57129e-05
-4.59962e-05
-4.63112e-05
-4.66609e-05
-4.70521e-05
-4.74878e-05
-4.7966e-05
-4.84849e-05
-4.90458e-05
-4.96493e-05
-5.0293e-05
-5.09719e-05
-5.16849e-05
-5.24375e-05
-5.32342e-05
-5.40732e-05
-5.49481e-05
-5.58539e-05
-5.67897e-05
-5.77553e-05
-5.87463e-05
-5.9756e-05
-6.07799e-05
-6.18188e-05
-6.28771e-05
-6.39559e-05
-6.50507e-05
-6.61552e-05
-6.72658e-05
-6.83806e-05
-6.94956e-05
-7.06027e-05
-7.16903e-05
-7.27519e-05
-7.37879e-05
-7.47984e-05
-7.57764e-05
-7.67101e-05
-7.75902e-05
-7.84124e-05
-7.91732e-05
-7.98648e-05
-8.04785e-05
-8.10081e-05
-8.14503e-05
-8.18013e-05
-8.20569e-05
-8.22133e-05
-8.22655e-05
-8.21836e-05
-8.19455e-05
-5.2209e-06
-5.7244e-06
-6.30124e-06
-6.92995e-06
-7.61701e-06
-8.33494e-06
-9.09141e-06
-9.90603e-06
-1.07884e-05
-1.17237e-05
-1.27097e-05
-1.37397e-05
-1.48224e-05
-1.59467e-05
-1.70946e-05
-1.82718e-05
-1.94676e-05
-2.06805e-05
-2.19087e-05
-2.31394e-05
-2.43681e-05
-2.55971e-05
-2.68212e-05
-2.80412e-05
-2.9258e-05
-3.04606e-05
-3.16456e-05
-3.28124e-05
-3.39545e-05
-3.50723e-05
-3.61698e-05
-3.72434e-05
-3.82933e-05
-3.93211e-05
-4.03215e-05
-4.12901e-05
-4.2228e-05
-4.31348e-05
-4.4009e-05
-4.4853e-05
-4.56674e-05
-4.64493e-05
-4.7196e-05
-4.79062e-05
-4.85763e-05
-4.92047e-05
-4.97934e-05
-5.03418e-05
-5.08493e-05
-5.13174e-05
-5.17451e-05
-5.21302e-05
-5.2475e-05
-5.27804e-05
-5.30422e-05
-5.32597e-05
-5.34367e-05
-5.35764e-05
-5.368e-05
-5.37503e-05
-5.37908e-05
-5.37984e-05
-5.37702e-05
-5.37115e-05
-5.36257e-05
-5.35091e-05
-5.33601e-05
-5.31837e-05
-5.2986e-05
-5.2769e-05
-5.25349e-05
-5.22887e-05
-5.20328e-05
-5.17648e-05
-5.14828e-05
-5.11905e-05
-5.08943e-05
-5.05961e-05
-5.0295e-05
-4.99936e-05
-4.96957e-05
-4.94031e-05
-4.91129e-05
-4.88218e-05
-4.85323e-05
-4.82485e-05
-4.79682e-05
-4.7688e-05
-4.74113e-05
-4.71462e-05
-4.68967e-05
-4.6661e-05
-4.64382e-05
-4.62327e-05
-4.60476e-05
-4.58808e-05
-4.57309e-05
-4.56038e-05
-4.551e-05
-4.54547e-05
-4.54349e-05
-4.54467e-05
-4.54923e-05
-4.55754e-05
-4.56928e-05
-4.58377e-05
-4.60077e-05
-4.62072e-05
-4.64407e-05
-4.67066e-05
-4.70016e-05
-4.73274e-05
-4.76905e-05
-4.80957e-05
-4.85418e-05
-4.90251e-05
-4.95466e-05
-5.01103e-05
-5.07167e-05
-5.1361e-05
-5.20378e-05
-5.27473e-05
-5.3496e-05
-5.42883e-05
-5.51204e-05
-5.59855e-05
-5.68799e-05
-5.7804e-05
-5.8756e-05
-5.97285e-05
-6.07136e-05
-6.17099e-05
-6.27223e-05
-6.37547e-05
-6.48046e-05
-6.58652e-05
-6.69324e-05
-6.80065e-05
-6.90865e-05
-7.01658e-05
-7.1234e-05
-7.22819e-05
-7.33063e-05
-7.43095e-05
-7.52905e-05
-7.62399e-05
-7.71436e-05
-7.79923e-05
-7.87844e-05
-7.95189e-05
-8.01881e-05
-8.07807e-05
-8.12898e-05
-8.17152e-05
-8.20573e-05
-8.23113e-05
-8.24697e-05
-8.25233e-05
-8.24407e-05
-8.21994e-05
-6.02935e-06
-6.2932e-06
-6.70478e-06
-7.19159e-06
-7.7668e-06
-8.40248e-06
-9.09167e-06
-9.84267e-06
-1.06596e-05
-1.15448e-05
-1.24762e-05
-1.34548e-05
-1.44829e-05
-1.55528e-05
-1.6662e-05
-1.77931e-05
-1.89435e-05
-2.01141e-05
-2.12962e-05
-2.2487e-05
-2.36828e-05
-2.48749e-05
-2.60644e-05
-2.72554e-05
-2.84404e-05
-2.96146e-05
-3.07764e-05
-3.19167e-05
-3.30338e-05
-3.41342e-05
-3.52143e-05
-3.62721e-05
-3.73111e-05
-3.83274e-05
-3.93153e-05
-4.02761e-05
-4.12092e-05
-4.21113e-05
-4.2984e-05
-4.38283e-05
-4.46427e-05
-4.54263e-05
-4.61778e-05
-4.68932e-05
-4.75693e-05
-4.82068e-05
-4.8806e-05
-4.93671e-05
-4.98914e-05
-5.03773e-05
-5.08218e-05
-5.12254e-05
-5.15906e-05
-5.19154e-05
-5.21978e-05
-5.24404e-05
-5.26437e-05
-5.28071e-05
-5.29355e-05
-5.3036e-05
-5.31086e-05
-5.31471e-05
-5.31498e-05
-5.31228e-05
-5.30678e-05
-5.2982e-05
-5.28675e-05
-5.27303e-05
-5.25723e-05
-5.23929e-05
-5.21958e-05
-5.19883e-05
-5.1771e-05
-5.15395e-05
-5.12938e-05
-5.10393e-05
-5.07817e-05
-5.05207e-05
-5.0256e-05
-4.99923e-05
-4.97334e-05
-4.9478e-05
-4.92232e-05
-4.8969e-05
-4.87191e-05
-4.84747e-05
-4.82317e-05
-4.79889e-05
-4.77526e-05
-4.75293e-05
-4.7319e-05
-4.7119e-05
-4.69321e-05
-4.67645e-05
-4.6617e-05
-4.64847e-05
-4.63665e-05
-4.62704e-05
-4.62068e-05
-4.6179e-05
-4.61849e-05
-4.62237e-05
-4.62974e-05
-4.64055e-05
-4.65425e-05
-4.67042e-05
-4.68936e-05
-4.7116e-05
-4.7372e-05
-4.76566e-05
-4.79668e-05
-4.83075e-05
-4.8686e-05
-4.91047e-05
-4.95608e-05
-5.00522e-05
-5.05806e-05
-5.11488e-05
-5.17547e-05
-5.23944e-05
-5.3066e-05
-5.37727e-05
-5.45195e-05
-5.53071e-05
-5.61309e-05
-5.6986e-05
-5.78713e-05
-5.87866e-05
-5.97271e-05
-6.06839e-05
-6.16498e-05
-6.26253e-05
-6.36159e-05
-6.46244e-05
-6.56465e-05
-6.66758e-05
-6.77111e-05
-6.87547e-05
-6.98046e-05
-7.0852e-05
-7.18865e-05
-7.2902e-05
-7.38977e-05
-7.48738e-05
-7.58269e-05
-7.67481e-05
-7.76262e-05
-7.84522e-05
-7.92222e-05
-7.99343e-05
-8.0583e-05
-8.11602e-05
-8.166e-05
-8.20815e-05
-8.24235e-05
-8.268e-05
-8.28423e-05
-8.29013e-05
-8.2827e-05
-8.25995e-05
-6.46825e-06
-6.58815e-06
-6.88455e-06
-7.28e-06
-7.76813e-06
-8.34156e-06
-8.98639e-06
-9.68952e-06
-1.04591e-05
-1.12925e-05
-1.21849e-05
-1.3126e-05
-1.4105e-05
-1.51321e-05
-1.61966e-05
-1.72881e-05
-1.84058e-05
-1.95382e-05
-2.06815e-05
-2.18369e-05
-2.29962e-05
-2.41556e-05
-2.53201e-05
-2.64832e-05
-2.76406e-05
-2.87922e-05
-2.99286e-05
-3.10453e-05
-3.21446e-05
-3.32264e-05
-3.42893e-05
-3.53353e-05
-3.63636e-05
-3.73685e-05
-3.83479e-05
-3.93022e-05
-4.02289e-05
-4.11274e-05
-4.19998e-05
-4.28445e-05
-4.36601e-05
-4.44469e-05
-4.52025e-05
-4.59228e-05
-4.66065e-05
-4.72532e-05
-4.78624e-05
-4.84356e-05
-4.89734e-05
-4.94725e-05
-4.99328e-05
-5.03559e-05
-5.074e-05
-5.10829e-05
-5.13863e-05
-5.16526e-05
-5.18802e-05
-5.20687e-05
-5.22245e-05
-5.23517e-05
-5.24489e-05
-5.25153e-05
-5.25516e-05
-5.25584e-05
-5.25342e-05
-5.24792e-05
-5.23986e-05
-5.22965e-05
-5.21735e-05
-5.20312e-05
-5.18736e-05
-5.17044e-05
-5.15224e-05
-5.13252e-05
-5.11158e-05
-5.08991e-05
-5.0677e-05
-5.04499e-05
-5.02205e-05
-4.9994e-05
-4.97714e-05
-4.95494e-05
-4.93281e-05
-4.91112e-05
-4.88996e-05
-4.86906e-05
-4.84818e-05
-4.82762e-05
-4.80807e-05
-4.78979e-05
-4.77258e-05
-4.75642e-05
-4.7417e-05
-4.72875e-05
-4.71733e-05
-4.70718e-05
-4.69866e-05
-4.69252e-05
-4.68923e-05
-4.68883e-05
-4.6915e-05
-4.69764e-05
-4.70739e-05
-4.7203e-05
-4.73571e-05
-4.75358e-05
-4.77449e-05
-4.79884e-05
-4.82636e-05
-4.85661e-05
-4.88956e-05
-4.92569e-05
-4.96541e-05
-5.00861e-05
-5.05512e-05
-5.10506e-05
-5.15873e-05
-5.21607e-05
-5.27655e-05
-5.33987e-05
-5.40636e-05
-5.47665e-05
-5.55102e-05
-5.6292e-05
-5.71072e-05
-5.79543e-05
-5.88337e-05
-5.97427e-05
-6.06731e-05
-6.16156e-05
-6.25662e-05
-6.35267e-05
-6.45004e-05
-6.5487e-05
-6.64824e-05
-6.74837e-05
-6.84926e-05
-6.95113e-05
-7.05355e-05
-7.15547e-05
-7.25605e-05
-7.35502e-05
-7.45238e-05
-7.54783e-05
-7.64059e-05
-7.72988e-05
-7.81514e-05
-7.89591e-05
-7.97155e-05
-8.04136e-05
-8.10475e-05
-8.1614e-05
-8.21112e-05
-8.25368e-05
-8.28854e-05
-8.31485e-05
-8.3318e-05
-8.33877e-05
-8.33322e-05
-8.31348e-05
-6.61273e-06
-6.65291e-06
-6.88579e-06
-7.22043e-06
-7.65596e-06
-8.17643e-06
-8.77991e-06
-9.45482e-06
-1.01865e-05
-1.09803e-05
-1.18383e-05
-1.2743e-05
-1.36927e-05
-1.46806e-05
-1.57045e-05
-1.67632e-05
-1.78461e-05
-1.89471e-05
-2.00621e-05
-2.11843e-05
-2.23109e-05
-2.34459e-05
-2.4584e-05
-2.57219e-05
-2.6859e-05
-2.79864e-05
-2.90988e-05
-3.01977e-05
-3.12803e-05
-3.23451e-05
-3.33954e-05
-3.44303e-05
-3.54466e-05
-3.64424e-05
-3.74162e-05
-3.83649e-05
-3.92868e-05
-4.01837e-05
-4.10554e-05
-4.19004e-05
-4.27187e-05
-4.35085e-05
-4.42669e-05
-4.4992e-05
-4.56827e-05
-4.63381e-05
-4.69587e-05
-4.75447e-05
-4.80938e-05
-4.86048e-05
-4.908e-05
-4.95194e-05
-4.99199e-05
-5.02816e-05
-5.06061e-05
-5.08926e-05
-5.11416e-05
-5.13572e-05
-5.15428e-05
-5.16961e-05
-5.18161e-05
-5.19086e-05
-5.19752e-05
-5.20121e-05
-5.20182e-05
-5.19968e-05
-5.19513e-05
-5.18819e-05
-5.17913e-05
-5.16851e-05
-5.15661e-05
-5.14331e-05
-5.12842e-05
-5.1121e-05
-5.09481e-05
-5.07675e-05
-5.0579e-05
-5.03849e-05
-5.01903e-05
-4.99988e-05
-4.98088e-05
-4.96178e-05
-4.94297e-05
-4.92491e-05
-4.9073e-05
-4.8897e-05
-4.87224e-05
-4.85553e-05
-4.83998e-05
-4.82547e-05
-4.81195e-05
-4.7998e-05
-4.7893e-05
-4.78018e-05
-4.77198e-05
-4.76478e-05
-4.7594e-05
-4.75648e-05
-4.75604e-05
-4.75799e-05
-4.76281e-05
-4.77106e-05
-4.78269e-05
-4.79711e-05
-4.814e-05
-4.8337e-05
-4.85674e-05
-4.88313e-05
-4.91242e-05
-4.94443e-05
-4.97947e-05
-5.01788e-05
-5.05956e-05
-5.10417e-05
-5.1517e-05
-5.2025e-05
-5.25685e-05
-5.31444e-05
-5.3747e-05
-5.43751e-05
-5.50353e-05
-5.57343e-05
-5.64731e-05
-5.72475e-05
-5.80547e-05
-5.88961e-05
-5.97722e-05
-6.06763e-05
-6.15976e-05
-6.25278e-05
-6.3466e-05
-6.44147e-05
-6.53741e-05
-6.63409e-05
-6.73127e-05
-6.82905e-05
-6.92784e-05
-7.02768e-05
-7.1279e-05
-7.22746e-05
-7.32571e-05
-7.42258e-05
-7.51806e-05
-7.61161e-05
-7.70221e-05
-7.7891e-05
-7.87212e-05
-7.95125e-05
-8.02588e-05
-8.09493e-05
-8.15761e-05
-8.21382e-05
-8.26368e-05
-8.30693e-05
-8.34272e-05
-8.37004e-05
-8.38824e-05
-8.39707e-05
-8.39457e-05
-8.37939e-05
-6.51962e-06
-6.5252e-06
-6.7156e-06
-7.029e-06
-7.43245e-06
-7.91557e-06
-8.48962e-06
-9.13666e-06
-9.84686e-06
-1.06144e-05
-1.14358e-05
-1.23147e-05
-1.32368e-05
-1.4194e-05
-1.51915e-05
-1.62181e-05
-1.72688e-05
-1.83431e-05
-1.943e-05
-2.05236e-05
-2.16288e-05
-2.27402e-05
-2.38553e-05
-2.49747e-05
-2.60909e-05
-2.71958e-05
-2.82895e-05
-2.93713e-05
-3.04375e-05
-3.14894e-05
-3.25298e-05
-3.35543e-05
-3.45601e-05
-3.55488e-05
-3.6517e-05
-3.74605e-05
-3.83807e-05
-3.92769e-05
-4.01481e-05
-4.09951e-05
-4.18165e-05
-4.26092e-05
-4.33709e-05
-4.41005e-05
-4.47968e-05
-4.54601e-05
-4.60913e-05
-4.66878e-05
-4.72478e-05
-4.77722e-05
-4.82618e-05
-4.87149e-05
-4.9131e-05
-4.95121e-05
-4.98565e-05
-5.01615e-05
-5.04312e-05
-5.06717e-05
-5.08834e-05
-5.1062e-05
-5.12086e-05
-5.13289e-05
-5.14225e-05
-5.14858e-05
-5.15212e-05
-5.15327e-05
-5.15203e-05
-5.14832e-05
-5.14258e-05
-5.13554e-05
-5.1272e-05
-5.11721e-05
-5.10558e-05
-5.09271e-05
-5.07893e-05
-5.06422e-05
-5.04863e-05
-5.03261e-05
-5.01658e-05
-5.00061e-05
-4.98457e-05
-4.96857e-05
-4.95312e-05
-4.93842e-05
-4.92401e-05
-4.90961e-05
-4.89571e-05
-4.88291e-05
-4.87119e-05
-4.86033e-05
-4.85055e-05
-4.84236e-05
-4.8358e-05
-4.83023e-05
-4.82525e-05
-4.82126e-05
-4.819e-05
-4.81885e-05
-4.82081e-05
-4.82506e-05
-4.8322e-05
-4.84258e-05
-4.85584e-05
-4.87154e-05
-4.88986e-05
-4.91144e-05
-4.93657e-05
-4.96489e-05
-4.99598e-05
-5.02992e-05
-5.06709e-05
-5.10754e-05
-5.15089e-05
-5.19684e-05
-5.24557e-05
-5.29741e-05
-5.35236e-05
-5.40996e-05
-5.46987e-05
-5.53239e-05
-5.59823e-05
-5.66786e-05
-5.74117e-05
-5.81791e-05
-5.89805e-05
-5.98184e-05
-6.06912e-05
-6.15898e-05
-6.25022e-05
-6.34223e-05
-6.43509e-05
-6.52896e-05
-6.62358e-05
-6.71853e-05
-6.81379e-05
-6.90983e-05
-7.00703e-05
-7.10517e-05
-7.20345e-05
-7.30108e-05
-7.39761e-05
-7.4929e-05
-7.58669e-05
-7.67834e-05
-7.76702e-05
-7.85218e-05
-7.93373e-05
-8.01167e-05
-8.08543e-05
-8.15394e-05
-8.21638e-05
-8.27267e-05
-8.32299e-05
-8.367e-05
-8.40383e-05
-8.43254e-05
-8.45274e-05
-8.46441e-05
-8.46615e-05
-8.45682e-05
-6.23066e-06
-6.23691e-06
-6.41162e-06
-6.70618e-06
-7.09955e-06
-7.57054e-06
-8.11658e-06
-8.74467e-06
-9.4429e-06
-1.01902e-05
-1.09918e-05
-1.18439e-05
-1.27378e-05
-1.36763e-05
-1.46488e-05
-1.56505e-05
-1.6679e-05
-1.7726e-05
-1.87864e-05
-1.98603e-05
-2.0945e-05
-2.20364e-05
-2.31348e-05
-2.42357e-05
-2.53317e-05
-2.64201e-05
-2.74983e-05
-2.8564e-05
-2.96169e-05
-3.06589e-05
-3.16893e-05
-3.27046e-05
-3.37043e-05
-3.4687e-05
-3.56492e-05
-3.65898e-05
-3.75089e-05
-3.84043e-05
-3.92763e-05
-4.01255e-05
-4.09491e-05
-4.17447e-05
-4.25103e-05
-4.32447e-05
-4.39475e-05
-4.46192e-05
-4.52589e-05
-4.58638e-05
-4.64345e-05
-4.6972e-05
-4.74743e-05
-4.79406e-05
-4.83731e-05
-4.8772e-05
-4.91343e-05
-4.94597e-05
-4.97528e-05
-5.00155e-05
-5.02473e-05
-5.04491e-05
-5.06234e-05
-5.07713e-05
-5.08907e-05
-5.09813e-05
-5.10463e-05
-5.10875e-05
-5.11045e-05
-5.10992e-05
-5.10765e-05
-5.10404e-05
-5.09893e-05
-5.09208e-05
-5.08376e-05
-5.07435e-05
-5.06388e-05
-5.0523e-05
-5.03995e-05
-5.02736e-05
-5.01461e-05
-5.00151e-05
-4.98831e-05
-4.97553e-05
-4.96342e-05
-4.95182e-05
-4.9404e-05
-4.92927e-05
-4.91903e-05
-4.90992e-05
-4.90176e-05
-4.89453e-05
-4.88863e-05
-4.88429e-05
-4.88112e-05
-4.87859e-05
-4.87673e-05
-4.87607e-05
-4.87692e-05
-4.87931e-05
-4.88349e-05
-4.89006e-05
-4.89956e-05
-4.91196e-05
-4.92677e-05
-4.94393e-05
-4.96398e-05
-4.98748e-05
-5.01447e-05
-5.0445e-05
-5.07738e-05
-5.11335e-05
-5.15256e-05
-5.19469e-05
-5.23931e-05
-5.28641e-05
-5.33638e-05
-5.38933e-05
-5.44486e-05
-5.50246e-05
-5.56218e-05
-5.62468e-05
-5.6906e-05
-5.76007e-05
-5.83291e-05
-5.90912e-05
-5.98898e-05
-6.0726e-05
-6.15946e-05
-6.24851e-05
-6.33882e-05
-6.43e-05
-6.52215e-05
-6.61514e-05
-6.70854e-05
-6.80208e-05
-6.89602e-05
-6.99091e-05
-7.08697e-05
-7.18367e-05
-7.28024e-05
-7.37626e-05
-7.47156e-05
-7.56578e-05
-7.6582e-05
-7.74812e-05
-7.83512e-05
-7.91909e-05
-7.99994e-05
-8.07731e-05
-8.15047e-05
-8.21853e-05
-8.2809e-05
-8.33756e-05
-8.38857e-05
-8.43349e-05
-8.47157e-05
-8.50222e-05
-8.5253e-05
-8.54082e-05
-8.54774e-05
-8.54517e-05
-5.77058e-06
-5.81612e-06
-5.99008e-06
-6.2748e-06
-6.6692e-06
-7.13628e-06
-7.67573e-06
-8.29079e-06
-8.97189e-06
-9.71341e-06
-1.05015e-05
-1.13319e-05
-1.22106e-05
-1.31265e-05
-1.40782e-05
-1.50636e-05
-1.60701e-05
-1.70947e-05
-1.81368e-05
-1.9193e-05
-2.02598e-05
-2.1337e-05
-2.24205e-05
-2.35031e-05
-2.45826e-05
-2.56574e-05
-2.67214e-05
-2.77742e-05
-2.88186e-05
-2.98516e-05
-3.0872e-05
-3.18814e-05
-3.28765e-05
-3.38535e-05
-3.48121e-05
-3.57513e-05
-3.66692e-05
-3.75651e-05
-3.84391e-05
-3.92896e-05
-4.01148e-05
-4.09126e-05
-4.1681e-05
-4.24201e-05
-4.31304e-05
-4.38104e-05
-4.4458e-05
-4.50722e-05
-4.56541e-05
-4.62029e-05
-4.67168e-05
-4.71977e-05
-4.76464e-05
-4.806e-05
-4.84385e-05
-4.87857e-05
-4.91029e-05
-4.93866e-05
-4.96378e-05
-4.98625e-05
-5.00621e-05
-5.02339e-05
-5.03783e-05
-5.04976e-05
-5.05924e-05
-5.06611e-05
-5.07057e-05
-5.0732e-05
-5.07431e-05
-5.07385e-05
-5.0717e-05
-5.06796e-05
-5.06298e-05
-5.05689e-05
-5.04955e-05
-5.0411e-05
-5.03205e-05
-5.02273e-05
-5.01298e-05
-5.00265e-05
-4.99239e-05
-4.98286e-05
-4.97394e-05
-4.96524e-05
-4.95683e-05
-4.94913e-05
-4.94246e-05
-4.93672e-05
-4.93183e-05
-4.92815e-05
-4.92605e-05
-4.92522e-05
-4.92502e-05
-4.92524e-05
-4.92633e-05
-4.92878e-05
-4.9325e-05
-4.93739e-05
-4.944e-05
-4.95306e-05
-4.96488e-05
-4.97914e-05
-4.99555e-05
-5.01449e-05
-5.0366e-05
-5.06209e-05
-5.09073e-05
-5.12228e-05
-5.15687e-05
-5.1947e-05
-5.23559e-05
-5.27899e-05
-5.32465e-05
-5.37286e-05
-5.424e-05
-5.47792e-05
-5.53399e-05
-5.59181e-05
-5.65175e-05
-5.7146e-05
-5.78081e-05
-5.85024e-05
-5.9228e-05
-5.99877e-05
-6.07856e-05
-6.16202e-05
-6.24829e-05
-6.33637e-05
-6.42573e-05
-6.51626e-05
-6.60784e-05
-6.70005e-05
-6.79244e-05
-6.885e-05
-6.9782e-05
-7.07246e-05
-7.16766e-05
-7.26315e-05
-7.35833e-05
-7.45309e-05
-7.54744e-05
-7.64084e-05
-7.73228e-05
-7.82098e-05
-7.90684e-05
-7.99011e-05
-8.07069e-05
-8.14788e-05
-8.22075e-05
-8.28858e-05
-8.35108e-05
-8.40833e-05
-8.46029e-05
-8.50646e-05
-8.54629e-05
-8.57957e-05
-8.60636e-05
-8.6265e-05
-8.63914e-05
-8.64371e-05
-5.155e-06
-5.26092e-06
-5.46492e-06
-5.75615e-06
-6.14566e-06
-6.62367e-06
-7.17013e-06
-7.77648e-06
-8.4516e-06
-9.18401e-06
-9.96082e-06
-1.07858e-05
-1.16497e-05
-1.25499e-05
-1.34875e-05
-1.44543e-05
-1.54434e-05
-1.64525e-05
-1.74798e-05
-1.85204e-05
-1.9575e-05
-2.06401e-05
-2.17087e-05
-2.27771e-05
-2.38445e-05
-2.49062e-05
-2.59581e-05
-2.70031e-05
-2.80402e-05
-2.90653e-05
-3.00797e-05
-3.10844e-05
-3.20743e-05
-3.30474e-05
-3.40041e-05
-3.49416e-05
-3.58587e-05
-3.67563e-05
-3.76323e-05
-3.84844e-05
-3.93112e-05
-4.01109e-05
-4.08821e-05
-4.1626e-05
-4.23428e-05
-4.30296e-05
-4.36853e-05
-4.43102e-05
-4.49031e-05
-4.54625e-05
-4.59895e-05
-4.6486e-05
-4.69496e-05
-4.73775e-05
-4.77733e-05
-4.81408e-05
-4.8478e-05
-4.87816e-05
-4.90547e-05
-4.93029e-05
-4.95248e-05
-4.97188e-05
-4.98881e-05
-5.00348e-05
-5.01566e-05
-5.02519e-05
-5.03253e-05
-5.03829e-05
-5.0425e-05
-5.04491e-05
-5.04565e-05
-5.04503e-05
-5.04324e-05
-5.0402e-05
-5.03592e-05
-5.03074e-05
-5.02498e-05
-5.01865e-05
-5.01164e-05
-5.00421e-05
-4.99708e-05
-4.99069e-05
-4.9847e-05
-4.97888e-05
-4.97363e-05
-4.96937e-05
-4.96602e-05
-4.96337e-05
-4.96165e-05
-4.96137e-05
-4.96259e-05
-4.96469e-05
-4.96714e-05
-4.97011e-05
-4.97409e-05
-4.97928e-05
-4.98552e-05
-4.99295e-05
-5.00226e-05
-5.01402e-05
-5.0281e-05
-5.0442e-05
-5.06243e-05
-5.08345e-05
-5.10773e-05
-5.13512e-05
-5.1653e-05
-5.19835e-05
-5.23454e-05
-5.27386e-05
-5.31589e-05
-5.36018e-05
-5.4068e-05
-5.45621e-05
-5.50851e-05
-5.56323e-05
-5.61979e-05
-5.67813e-05
-5.73875e-05
-5.8023e-05
-5.86894e-05
-5.93849e-05
-6.01106e-05
-6.0871e-05
-6.1669e-05
-6.25001e-05
-6.33551e-05
-6.42264e-05
-6.5112e-05
-6.6012e-05
-6.69229e-05
-6.78384e-05
-6.87551e-05
-6.9676e-05
-7.06058e-05
-7.15451e-05
-7.24898e-05
-7.34343e-05
-7.43758e-05
-7.53151e-05
-7.62517e-05
-7.71786e-05
-7.80856e-05
-7.89661e-05
-7.98206e-05
-8.06517e-05
-8.1457e-05
-8.22282e-05
-8.2956e-05
-8.36355e-05
-8.42664e-05
-8.48493e-05
-8.53827e-05
-8.58622e-05
-8.62844e-05
-8.66503e-05
-8.69609e-05
-8.72119e-05
-8.73965e-05
-8.75138e-05
-4.401e-06
-4.58306e-06
-4.83889e-06
-5.14973e-06
-5.55113e-06
-6.03895e-06
-6.59424e-06
-7.21202e-06
-7.88399e-06
-8.60859e-06
-9.38478e-06
-1.02012e-05
-1.10566e-05
-1.19497e-05
-1.28735e-05
-1.38255e-05
-1.48026e-05
-1.5801e-05
-1.68162e-05
-1.78467e-05
-1.88913e-05
-1.99432e-05
-2.09992e-05
-2.20583e-05
-2.31143e-05
-2.41648e-05
-2.52103e-05
-2.62489e-05
-2.72789e-05
-2.82999e-05
-2.93113e-05
-3.03112e-05
-3.12976e-05
-3.2269e-05
-3.32238e-05
-3.41599e-05
-3.50773e-05
-3.5976e-05
-3.68529e-05
-3.77061e-05
-3.8534e-05
-3.93358e-05
-4.01113e-05
-4.08608e-05
-4.15832e-05
-4.22766e-05
-4.29413e-05
-4.35764e-05
-4.41792e-05
-4.47502e-05
-4.52915e-05
-4.58021e-05
-4.62794e-05
-4.67245e-05
-4.71401e-05
-4.75255e-05
-4.78788e-05
-4.82017e-05
-4.84974e-05
-4.8767e-05
-4.90099e-05
-4.92273e-05
-4.9422e-05
-4.95931e-05
-4.97385e-05
-4.98604e-05
-4.99633e-05
-5.00505e-05
-5.01205e-05
-5.01721e-05
-5.02088e-05
-5.02334e-05
-5.0245e-05
-5.02433e-05
-5.02312e-05
-5.02126e-05
-5.01865e-05
-5.01506e-05
-5.01076e-05
-5.00641e-05
-5.00249e-05
-4.99905e-05
-4.99585e-05
-4.99302e-05
-4.99101e-05
-4.98993e-05
-4.98952e-05
-4.98981e-05
-4.99128e-05
-4.99417e-05
-4.99812e-05
-5.00258e-05
-5.00749e-05
-5.01323e-05
-5.01998e-05
-5.02765e-05
-5.03627e-05
-5.04635e-05
-5.05851e-05
-5.07289e-05
-5.08916e-05
-5.10725e-05
-5.12764e-05
-5.15093e-05
-5.17726e-05
-5.20633e-05
-5.23799e-05
-5.27256e-05
-5.31023e-05
-5.3507e-05
-5.39345e-05
-5.43841e-05
-5.48602e-05
-5.53666e-05
-5.59007e-05
-5.64554e-05
-5.7027e-05
-5.76184e-05
-5.82347e-05
-5.88788e-05
-5.95501e-05
-6.02483e-05
-6.0977e-05
-6.17407e-05
-6.25385e-05
-6.33644e-05
-6.4211e-05
-6.50745e-05
-6.59549e-05
-6.68507e-05
-6.77567e-05
-6.86666e-05
-6.95797e-05
-7.05004e-05
-7.14312e-05
-7.23686e-05
-7.33068e-05
-7.42428e-05
-7.51774e-05
-7.61122e-05
-7.70445e-05
-7.79659e-05
-7.88674e-05
-7.97457e-05
-8.06019e-05
-8.14357e-05
-8.22422e-05
-8.30131e-05
-8.37421e-05
-8.44275e-05
-8.50705e-05
-8.56705e-05
-8.62243e-05
-8.67278e-05
-8.71801e-05
-8.75836e-05
-8.79386e-05
-8.82382e-05
-8.84791e-05
-8.86667e-05
-3.54764e-06
-3.80279e-06
-4.11146e-06
-4.46882e-06
-4.89317e-06
-5.38891e-06
-5.96247e-06
-6.59151e-06
-7.26919e-06
-7.99912e-06
-8.77245e-06
-9.58501e-06
-1.04382e-05
-1.13236e-05
-1.22376e-05
-1.31805e-05
-1.41498e-05
-1.51393e-05
-1.61472e-05
-1.71719e-05
-1.82064e-05
-1.92474e-05
-2.02954e-05
-2.13452e-05
-2.23915e-05
-2.34363e-05
-2.44775e-05
-2.55103e-05
-2.65361e-05
-2.75556e-05
-2.8564e-05
-2.95604e-05
-3.05454e-05
-3.15155e-05
-3.24687e-05