/*--------------------------------*- C++ -*----------------------------------*\
  =========                 |
  \\      /  F ield         | OpenFOAM: The Open Source CFD Toolbox
   \\    /   O peration     | Website:  https://openfoam.org
    \\  /    A nd           | Version:  7
     \\/     M anipulation  |
\*---------------------------------------------------------------------------*/
FoamFile
{
    version     2.0;
    format      ascii;
    class       surfaceScalarField;
    location    "0.1625";
    object      phi;
}
// * * * * * * * * * * * * * * * * * * * * * * * * * * * * * * * * * * * * * //

dimensions      [0 3 -1 0 0 0 0];

internalField   nonuniform List<scalar> 
101920
(
3.1108e-14
-1.57453e-14
1.22382e-12
-1.19384e-12
3.59617e-12
-2.3699e-12
5.59729e-12
-2.00349e-12
6.92512e-12
-1.32662e-12
7.7436e-12
-8.18104e-13
8.23626e-12
-4.92111e-13
8.51467e-12
-2.77466e-13
8.63664e-12
-1.23542e-13
8.62674e-12
8.09001e-15
8.49651e-12
1.32085e-13
8.24355e-12
2.53364e-13
7.86092e-12
3.82036e-13
7.35463e-12
5.08258e-13
6.71589e-12
6.37018e-13
5.9493e-12
7.65119e-13
5.05451e-12
8.95765e-13
4.02561e-12
1.02808e-12
2.87111e-12
1.15772e-12
1.59055e-12
1.28142e-12
1.91551e-13
1.4004e-12
-1.32162e-12
1.51339e-12
-2.94643e-12
1.62306e-12
-4.67769e-12
1.72953e-12
-6.50926e-12
1.83013e-12
-8.43535e-12
1.92443e-12
-1.04472e-11
2.01245e-12
-1.25404e-11
2.09339e-12
-1.47083e-11
2.16846e-12
-1.69449e-11
2.23697e-12
-1.92454e-11
2.29882e-12
-2.16002e-11
2.35458e-12
-2.40028e-11
2.40241e-12
-2.64492e-11
2.44506e-12
-2.89314e-11
2.48209e-12
-3.14447e-11
2.51143e-12
-3.39833e-11
2.53589e-12
-3.65384e-11
2.55512e-12
-3.91048e-11
2.56708e-12
-4.16783e-11
2.5744e-12
-4.42521e-11
2.57622e-12
-4.68214e-11
2.56999e-12
-4.93825e-11
2.56044e-12
-5.19291e-11
2.54775e-12
-5.44558e-11
2.52805e-12
-5.69586e-11
2.50355e-12
-5.9433e-11
2.47624e-12
-6.18742e-11
2.44192e-12
-6.42774e-11
2.40181e-12
-6.66392e-11
2.3614e-12
-6.89564e-11
2.31818e-12
-7.12257e-11
2.2687e-12
-7.34431e-11
2.21697e-12
-7.56062e-11
2.16277e-12
-7.77102e-11
2.10196e-12
-7.97499e-11
2.03754e-12
-8.17232e-11
1.97365e-12
-8.36298e-11
1.90711e-12
-8.54663e-11
1.83603e-12
-8.72297e-11
1.76395e-12
-8.89195e-11
1.69076e-12
-9.05334e-11
1.61374e-12
-9.20675e-11
1.53444e-12
-9.35214e-11
1.4551e-12
-9.48965e-11
1.37479e-12
-9.6189e-11
1.29129e-12
-9.73931e-11
1.20406e-12
-9.85089e-11
1.11563e-12
-9.95375e-11
1.02788e-12
-1.00476e-10
9.39411e-13
-1.01324e-10
8.49419e-13
-1.02083e-10
7.58773e-13
-1.02751e-10
6.67641e-13
-1.03327e-10
5.7537e-13
-1.0381e-10
4.8168e-13
-1.04198e-10
3.88029e-13
-1.04494e-10
2.95795e-13
-1.04696e-10
2.03158e-13
-1.04804e-10
1.08162e-13
-1.04816e-10
1.28169e-14
-1.04736e-10
-8.02069e-14
-1.04562e-10
-1.72514e-13
-1.04294e-10
-2.66606e-13
-1.03933e-10
-3.60859e-13
-1.0348e-10
-4.53028e-13
-1.02935e-10
-5.44539e-13
-1.02299e-10
-6.3685e-13
-1.01572e-10
-7.28579e-13
-1.00755e-10
-8.18003e-13
-9.98483e-11
-9.05602e-13
-9.88539e-11
-9.93403e-13
-9.77714e-11
-1.08196e-12
-9.66022e-11
-1.16918e-12
-9.53488e-11
-1.25328e-12
-9.40131e-11
-1.33523e-12
-9.25956e-11
-1.41666e-12
-9.10972e-11
-1.49713e-12
-8.95214e-11
-1.57489e-12
-8.78721e-11
-1.64965e-12
-8.61499e-11
-1.7231e-12
-8.43546e-11
-1.79572e-12
-8.24888e-11
-1.86546e-12
-8.05574e-11
-1.93105e-12
-7.85648e-11
-1.99329e-12
-7.65135e-11
-2.05293e-12
-7.44043e-11
-2.10984e-12
-7.22398e-11
-2.16385e-12
-7.00235e-11
-2.21523e-12
-6.77582e-11
-2.26424e-12
-6.54478e-11
-2.30988e-12
-6.30972e-11
-2.35044e-12
-6.07118e-11
-2.38543e-12
-5.82956e-11
-2.41632e-12
-5.58516e-11
-2.44473e-12
-5.33828e-11
-2.47029e-12
-5.08939e-11
-2.49079e-12
-4.83911e-11
-2.50444e-12
-4.58803e-11
-2.51145e-12
-4.33663e-11
-2.51341e-12
-4.0854e-11
-2.51116e-12
-3.83482e-11
-2.50439e-12
-3.58537e-11
-2.49286e-12
-3.3376e-11
-2.47659e-12
-3.0921e-11
-2.45513e-12
-2.84949e-11
-2.4275e-12
-2.6104e-11
-2.39252e-12
-2.37547e-11
-2.34993e-12
-2.14537e-11
-2.30064e-12
-1.9208e-11
-2.24534e-12
-1.70238e-11
-2.18362e-12
-1.49076e-11
-2.11505e-12
-1.28665e-11
-2.03988e-12
-1.09073e-11
-1.95875e-12
-9.03634e-12
-1.87191e-12
-7.25906e-12
-1.77873e-12
-5.58117e-12
-1.6783e-12
-4.01016e-12
-1.57044e-12
-2.55408e-12
-1.45594e-12
-1.2189e-12
-1.33601e-12
-8.78154e-15
-1.21111e-12
1.07229e-12
-1.08108e-12
2.01988e-12
-9.46503e-13
2.82948e-12
-8.08784e-13
3.4982e-12
-6.68913e-13
4.025e-12
-5.27256e-13
4.40866e-12
-3.83939e-13
4.64754e-12
-2.39232e-13
4.74162e-12
-9.44086e-14
4.6932e-12
4.81708e-14
4.50744e-12
1.85708e-13
4.19301e-12
3.14859e-13
3.76252e-12
4.31213e-13
3.2332e-12
5.29651e-13
2.62824e-12
6.04638e-13
1.97914e-12
6.48669e-13
1.32844e-12
6.50504e-13
7.32796e-13
5.95702e-13
2.64734e-13
4.68378e-13
7.68976e-15
2.57159e-13
7.58442e-15
-6.54847e-13
6.38002e-13
8.95821e-14
-1.93979e-12
2.54962e-12
-4.82917e-12
5.32023e-12
-4.77552e-12
7.77583e-12
-3.77851e-12
9.74383e-12
-2.78911e-12
1.12483e-11
-1.99743e-12
1.23332e-11
-1.36145e-12
1.30262e-11
-8.13692e-13
1.33332e-11
-3.0083e-13
1.32584e-11
2.05529e-13
1.27911e-11
7.19164e-13
1.19331e-11
1.24027e-12
1.06734e-11
1.76921e-12
9.00914e-12
2.30239e-12
6.94496e-12
2.83211e-12
4.48023e-12
3.35792e-12
1.62912e-12
3.87918e-12
-1.60735e-12
4.39013e-12
-5.2132e-12
4.88674e-12
-9.17762e-12
5.36491e-12
-1.34883e-11
5.82504e-12
-1.81258e-11
6.26447e-12
-2.30759e-11
6.68197e-12
-2.83231e-11
7.07799e-12
-3.38457e-11
7.4489e-12
-3.96299e-11
7.79478e-12
-4.56545e-11
8.11785e-12
-5.18992e-11
8.41541e-12
-5.83491e-11
8.6869e-12
-6.49817e-11
8.93416e-12
-7.17791e-11
9.15421e-12
-7.87245e-11
9.34793e-12
-8.57955e-11
9.51943e-12
-9.29748e-11
9.6654e-12
-1.00246e-10
9.78513e-12
-1.0759e-10
9.88241e-12
-1.1499e-10
9.95409e-12
-1.22429e-10
1.00025e-11
-1.29888e-10
1.00324e-11
-1.37351e-10
1.00385e-11
-1.44804e-10
1.00217e-11
-1.52232e-10
9.9879e-12
-1.59619e-10
9.93315e-12
-1.66952e-10
9.85727e-12
-1.74216e-10
9.76651e-12
-1.81397e-10
9.65789e-12
-1.88484e-10
9.52806e-12
-1.95464e-10
9.38297e-12
-2.02326e-10
9.22457e-12
-2.09059e-10
9.04988e-12
-2.1565e-10
8.86091e-12
-2.22091e-10
8.66023e-12
-2.28369e-10
8.44387e-12
-2.34477e-10
8.21057e-12
-2.40405e-10
7.96671e-12
-2.46145e-10
7.71441e-12
-2.51691e-10
7.45013e-12
-2.57032e-10
7.17596e-12
-2.62163e-10
6.89488e-12
-2.6708e-10
6.60445e-12
-2.71773e-10
6.30452e-12
-2.76236e-10
5.99826e-12
-2.80466e-10
5.68563e-12
-2.84457e-10
5.36564e-12
-2.88202e-10
5.03837e-12
-2.91699e-10
4.70321e-12
-2.94945e-10
4.36194e-12
-2.97936e-10
4.0177e-12
-3.00666e-10
3.6698e-12
-3.03135e-10
3.31751e-12
-3.05339e-10
2.96268e-12
-3.07275e-10
2.60512e-12
-3.08941e-10
2.24322e-12
-3.10338e-10
1.87793e-12
-3.11464e-10
1.51206e-12
-3.12315e-10
1.14673e-12
-3.12891e-10
7.79803e-13
-3.13193e-10
4.10003e-13
-3.1322e-10
3.99427e-14
-3.12972e-10
-3.27981e-13
-3.1245e-10
-6.95234e-13
-3.11653e-10
-1.06331e-12
-3.10584e-10
-1.42973e-12
-3.09243e-10
-1.79227e-12
-3.07632e-10
-2.15308e-12
-3.05753e-10
-2.51345e-12
-3.0361e-10
-2.87083e-12
-3.01204e-10
-3.22344e-12
-2.98537e-10
-3.57232e-12
-2.95613e-10
-3.91865e-12
-2.92433e-10
-4.26173e-12
-2.89001e-10
-4.59966e-12
-2.85323e-10
-4.93125e-12
-2.81403e-10
-5.25655e-12
-2.77247e-10
-5.57532e-12
-2.72858e-10
-5.88648e-12
-2.68242e-10
-6.18975e-12
-2.63404e-10
-6.4858e-12
-2.58352e-10
-6.77484e-12
-2.53092e-10
-7.05538e-12
-2.47632e-10
-7.32495e-12
-2.41979e-10
-7.58264e-12
-2.36141e-10
-7.82985e-12
-2.30124e-10
-8.06747e-12
-2.2394e-10
-8.29454e-12
-2.17596e-10
-8.50956e-12
-2.11102e-10
-8.71146e-12
-2.04468e-10
-8.89981e-12
-1.97705e-10
-9.07381e-12
-1.90825e-10
-9.23177e-12
-1.8384e-10
-9.37261e-12
-1.76759e-10
-9.4972e-12
-1.69595e-10
-9.60697e-12
-1.62362e-10
-9.70154e-12
-1.55073e-10
-9.77837e-12
-1.47743e-10
-9.83485e-12
-1.40385e-10
-9.87023e-12
-1.33014e-10
-9.88544e-12
-1.25646e-10
-9.8809e-12
-1.18297e-10
-9.85549e-12
-1.10983e-10
-9.80829e-12
-1.03718e-10
-9.73997e-12
-9.65198e-11
-9.65085e-12
-8.9406e-11
-9.5393e-12
-8.23944e-11
-9.40304e-12
-7.55027e-11
-9.24099e-12
-6.87489e-11
-9.05377e-12
-6.21525e-11
-8.84215e-12
-5.57325e-11
-8.60532e-12
-4.95073e-11
-8.34201e-12
-4.34949e-11
-8.05266e-12
-3.77135e-11
-7.73911e-12
-3.2182e-11
-7.40237e-12
-2.69196e-11
-7.04148e-12
-2.19441e-11
-6.65482e-12
-1.7272e-11
-6.24248e-12
-1.29202e-11
-5.80679e-12
-8.90507e-12
-5.35046e-12
-5.24165e-12
-4.87506e-12
-1.94296e-12
-4.38138e-12
9.8014e-13
-3.87107e-12
3.51789e-12
-3.3472e-12
5.66212e-12
-2.81325e-12
7.40756e-12
-2.2721e-12
8.75118e-12
-1.7264e-12
9.69274e-12
-1.17995e-12
1.02373e-11
-6.38777e-13
1.03963e-11
-1.1088e-13
1.01871e-11
3.94379e-13
9.63511e-12
8.65973e-13
8.77533e-12
1.29011e-12
7.65573e-12
1.64927e-12
6.33892e-12
1.92225e-12
4.90462e-12
2.08391e-12
3.4518e-12
2.1038e-12
2.1001e-12
1.94719e-12
9.87027e-13
1.58146e-12
2.52576e-13
9.92538e-13
2.60438e-13
-1.43059e-12
2.07104e-12
-1.64404e-12
-1.72527e-12
-9.53174e-14
-6.37583e-12
2.33709e-12
-7.21231e-12
4.94497e-12
-6.38991e-12
7.35876e-12
-5.20179e-12
9.38651e-12
-4.02711e-12
1.09357e-11
-2.9106e-12
1.1945e-11
-1.82672e-12
1.2387e-11
-7.38455e-13
1.22194e-11
3.71615e-13
1.14304e-11
1.50891e-12
9.99766e-12
2.67039e-12
7.91532e-12
3.85037e-12
5.18225e-12
5.03679e-12
1.79324e-12
6.22059e-12
-2.23866e-12
7.39429e-12
-6.9069e-12
8.5476e-12
-1.21931e-11
9.677e-12
-1.8079e-11
1.07731e-11
-2.45473e-11
1.18294e-11
-3.15716e-11
1.28488e-11
-3.91296e-11
1.38207e-11
-4.71941e-11
1.47446e-11
-5.57353e-11
1.5621e-11
-6.47273e-11
1.64406e-11
-7.41392e-11
1.72066e-11
-8.39411e-11
1.79202e-11
-9.41045e-11
1.85762e-11
-1.04595e-10
1.91771e-11
-1.15384e-10
1.97234e-11
-1.26442e-10
2.02106e-11
-1.37737e-10
2.06423e-11
-1.49241e-10
2.10208e-11
-1.60923e-10
2.13441e-11
-1.7275e-10
2.1614e-11
-1.84697e-10
2.18312e-11
-1.96736e-10
2.19944e-11
-2.08838e-10
2.2107e-11
-2.20977e-10
2.21715e-11
-2.33127e-10
2.21871e-11
-2.4526e-10
2.21569e-11
-2.57352e-10
2.20817e-11
-2.6938e-10
2.19615e-11
-2.8132e-10
2.17989e-11
-2.93149e-10
2.15962e-11
-3.04846e-10
2.13533e-11
-3.1639e-10
2.1072e-11
-3.27761e-10
2.07548e-11
-3.38939e-10
2.04022e-11
-3.49907e-10
2.00163e-11
-3.60646e-10
1.95999e-11
-3.71141e-10
1.91527e-11
-3.81374e-10
1.86745e-11
-3.9133e-10
1.81673e-11
-4.00995e-10
1.76335e-11
-4.10357e-10
1.70751e-11
-4.194e-10
1.64932e-11
-4.28112e-10
1.58898e-11
-4.36483e-10
1.52657e-11
-4.445e-10
1.46213e-11
-4.52154e-10
1.39587e-11
-4.59436e-10
1.32799e-11
-4.66337e-10
1.25852e-11
-4.72847e-10
1.18751e-11
-4.78958e-10
1.11502e-11
-4.84666e-10
1.04106e-11
-4.89962e-10
9.65853e-12
-4.9484e-10
8.89662e-12
-4.99294e-10
8.12493e-12
-5.03322e-10
7.34431e-12
-5.06918e-10
6.55723e-12
-5.10076e-10
5.76354e-12
-5.12795e-10
4.96233e-12
-5.15073e-10
4.15546e-12
-5.16905e-10
3.34536e-12
-5.18291e-10
2.53274e-12
-5.19228e-10
1.71705e-12
-5.19717e-10
8.99024e-13
-5.19757e-10
8.08639e-14
-5.19346e-10
-7.36467e-13
-5.18488e-10
-1.5534e-12
-5.17182e-10
-2.36909e-12
-5.15431e-10
-3.18119e-12
-5.13236e-10
-3.98831e-12
-5.10599e-10
-4.79097e-12
-5.07524e-10
-5.58874e-12
-5.04014e-10
-6.37942e-12
-5.00074e-10
-7.16233e-12
-4.95707e-10
-7.9381e-12
-4.9092e-10
-8.70593e-12
-4.85718e-10
-9.46384e-12
-4.80106e-10
-1.02103e-11
-4.74091e-10
-1.09448e-11
-4.6768e-10
-1.16667e-11
-4.60881e-10
-1.23741e-11
-4.53703e-10
-1.30648e-11
-4.46155e-10
-1.37382e-11
-4.38247e-10
-1.43948e-11
-4.29987e-10
-1.50342e-11
-4.21387e-10
-1.56545e-11
-4.1246e-10
-1.62529e-11
-4.03217e-10
-1.68272e-11
-3.9367e-10
-1.73771e-11
-3.83833e-10
-1.79033e-11
-3.73721e-10
-1.84049e-11
-3.63349e-10
-1.88803e-11
-3.52733e-10
-1.93275e-11
-3.41888e-10
-1.97445e-11
-3.30832e-10
-2.01295e-11
-3.19584e-10
-2.04807e-11
-3.08161e-10
-2.07967e-11
-2.96584e-10
-2.10772e-11
-2.84871e-10
-2.13219e-11
-2.73044e-10
-2.15294e-11
-2.61126e-10
-2.16969e-11
-2.49138e-10
-2.18217e-11
-2.37104e-10
-2.19028e-11
-2.25048e-10
-2.19403e-11
-2.12994e-10
-2.19336e-11
-2.00968e-10
-2.18812e-11
-1.88996e-10
-2.17811e-11
-1.77105e-10
-2.16325e-11
-1.65322e-10
-2.14348e-11
-1.53675e-10
-2.11863e-11
-1.42193e-10
-2.0885e-11
-1.30903e-10
-2.05296e-11
-1.19835e-10
-2.01204e-11
-1.09019e-10
-1.96574e-11
-9.84833e-11
-1.91398e-11
-8.82592e-11
-1.85664e-11
-7.83762e-11
-1.79371e-11
-6.88633e-11
-1.72534e-11
-5.97492e-11
-1.65165e-11
-5.10631e-11
-1.57269e-11
-4.28337e-11
-1.48843e-11
-3.50881e-11
-1.39894e-11
-2.78513e-11
-1.30447e-11
-2.11469e-11
-1.20545e-11
-1.4998e-11
-1.10226e-11
-9.42662e-12
-9.95226e-12
-4.45052e-12
-8.84766e-12
-8.42572e-14
-7.71429e-12
3.66056e-12
-6.55865e-12
6.7765e-12
-5.38819e-12
9.2611e-12
-4.21113e-12
1.11178e-11
-3.037e-12
1.23576e-11
-1.87842e-12
1.29993e-11
-7.5192e-13
1.3072e-11
3.2261e-13
1.26165e-11
1.32194e-12
1.16872e-11
2.21887e-12
1.03549e-11
2.98066e-12
8.70995e-12
3.56714e-12
6.86386e-12
3.9307e-12
4.95063e-12
4.01757e-12
3.12696e-12
3.77076e-12
1.56893e-12
3.13931e-12
4.61911e-13
2.10008e-12
7.22637e-13
-8.35141e-13
2.90366e-12
-9.26554e-13
-1.63506e-12
2.26173e-13
-7.53302e-12
2.23727e-12
-9.21548e-12
4.57059e-12
-8.72182e-12
6.83373e-12
-7.46807e-12
8.76193e-12
-5.95232e-12
1.01731e-11
-4.32472e-12
1.09568e-11
-2.60995e-12
1.10296e-11
-8.13339e-13
1.03377e-11
1.06501e-12
8.8347e-12
3.01202e-12
6.49165e-12
5.01253e-12
3.2959e-12
7.04739e-12
-7.6822e-13
9.09831e-12
-5.69594e-12
1.11489e-11
-1.14806e-11
1.31785e-11
-1.81104e-11
1.51772e-11
-2.55653e-11
1.71346e-11
-3.38243e-11
1.9032e-11
-4.28601e-11
2.0868e-11
-5.26431e-11
2.26318e-11
-6.31391e-11
2.43158e-11
-7.43145e-11
2.59205e-11
-8.61327e-11
2.74375e-11
-9.8555e-11
2.88632e-11
-1.11544e-10
3.01978e-11
-1.25059e-10
3.14348e-11
-1.39058e-10
3.25762e-11
-1.53501e-10
3.36222e-11
-1.68347e-10
3.45687e-11
-1.83553e-10
3.54189e-11
-1.9908e-10
3.61725e-11
-2.14889e-10
3.68287e-11
-2.30937e-10
3.73916e-11
-2.47185e-10
3.78618e-11
-2.63595e-10
3.82388e-11
-2.80127e-10
3.85259e-11
-2.96742e-10
3.87244e-11
-3.13408e-10
3.88359e-11
-3.30086e-10
3.88645e-11
-3.46742e-10
3.88122e-11
-3.63343e-10
3.86807e-11
-3.79855e-10
3.84729e-11
-3.96244e-10
3.81908e-11
-4.12484e-10
3.78361e-11
-4.28543e-10
3.74117e-11
-4.44392e-10
3.69219e-11
-4.60005e-10
3.6368e-11
-4.75355e-10
3.57517e-11
-4.90414e-10
3.50776e-11
-5.05159e-10
3.43474e-11
-5.19571e-10
3.35623e-11
-5.33623e-10
3.27264e-11
-5.47297e-10
3.18417e-11
-5.60575e-10
3.09095e-11
-5.73434e-10
2.99334e-11
-5.85857e-10
2.89165e-11
-5.97829e-10
2.78603e-11
-6.09332e-10
2.67674e-11
-6.2035e-10
2.56396e-11
-6.30868e-10
2.44787e-11
-6.40876e-10
2.32875e-11
-6.5036e-10
2.20686e-11
-6.59306e-10
2.08229e-11
-6.67708e-10
1.95517e-11
-6.75556e-10
1.82574e-11
-6.82839e-10
1.69417e-11
-6.89548e-10
1.56061e-11
-6.95675e-10
1.42526e-11
-7.01214e-10
1.28839e-11
-7.06159e-10
1.15024e-11
-7.10504e-10
1.01086e-11
-7.14246e-10
8.70349e-12
-7.17381e-10
7.28988e-12
-7.19904e-10
5.86912e-12
-7.21813e-10
4.44167e-12
-7.23106e-10
3.00947e-12
-7.23783e-10
1.57512e-12
-7.23842e-10
1.40162e-13
-7.23284e-10
-1.29488e-12
-7.22108e-10
-2.7286e-12
-7.20318e-10
-4.15842e-12
-7.17914e-10
-5.58273e-12
-7.14901e-10
-7.00074e-12
-7.11281e-10
-8.41105e-12
-7.07059e-10
-9.81136e-12
-7.02238e-10
-1.11994e-11
-6.96825e-10
-1.25747e-11
-6.90826e-10
-1.39371e-11
-6.84247e-10
-1.52842e-11
-6.77099e-10
-1.66129e-11
-6.69388e-10
-1.79215e-11
-6.61125e-10
-1.92089e-11
-6.52317e-10
-2.0474e-11
-6.42976e-10
-2.17141e-11
-6.33113e-10
-2.29268e-11
-6.22741e-10
-2.41101e-11
-6.11873e-10
-2.52626e-11
-6.00524e-10
-2.63826e-11
-5.88709e-10
-2.74682e-11
-5.76444e-10
-2.85173e-11
-5.63744e-10
-2.95273e-11
-5.50626e-10
-3.04959e-11
-5.37109e-10
-3.1421e-11
-5.23214e-10
-3.23003e-11
-5.08962e-10
-3.31321e-11
-4.94375e-10
-3.39146e-11
-4.79474e-10
-3.46452e-11
-4.64284e-10
-3.53203e-11
-4.48827e-10
-3.59371e-11
-4.3313e-10
-3.64935e-11
-4.17218e-10
-3.69882e-11
-4.01121e-10
-3.74193e-11
-3.84868e-10
-3.77836e-11
-3.68488e-10
-3.80778e-11
-3.52011e-10
-3.82994e-11
-3.35469e-10
-3.84462e-11
-3.18894e-10
-3.85164e-11
-3.0232e-10
-3.85074e-11
-2.85782e-10
-3.84178e-11
-2.69315e-10
-3.82461e-11
-2.52957e-10
-3.79906e-11
-2.36743e-10
-3.76486e-11
-2.20712e-10
-3.72173e-11
-2.04902e-10
-3.66947e-11
-1.89352e-10
-3.60798e-11
-1.74101e-10
-3.53721e-11
-1.59189e-10
-3.45704e-11
-1.44654e-10
-3.36739e-11
-1.30537e-10
-3.26824e-11
-1.16878e-10
-3.1596e-11
-1.03717e-10
-3.04157e-11
-9.10913e-11
-2.91425e-11
-7.90398e-11
-2.77777e-11
-6.75998e-11
-2.63233e-11
-5.68071e-11
-2.47824e-11
-4.66954e-11
-2.31582e-11
-3.72952e-11
-2.14558e-11
-2.86363e-11
-1.96812e-11
-2.07468e-11
-1.78416e-11
-1.36497e-11
-1.59447e-11
-7.36355e-12
-1.40002e-11
-1.9028e-12
-1.20192e-11
2.72403e-12
-1.00147e-11
6.51515e-12
-8.0022e-12
9.477e-12
-5.99952e-12
1.16263e-11
-4.02828e-12
1.29898e-11
-2.1153e-12
1.36051e-11
-2.92421e-13
1.35245e-11
1.40301e-12
1.28172e-11
2.92673e-12
1.15712e-11
4.22664e-12
9.8964e-12
5.24171e-12
7.92584e-12
5.90154e-12
5.81621e-12
6.12779e-12
3.74855e-12
5.83877e-12
1.92878e-12
4.95939e-12
5.87006e-13
3.44226e-12
1.30964e-12
-4.99075e-14
2.95472e-12
3.36397e-13
-2.01756e-12
1.43102e-12
-8.63122e-12
3.13035e-12
-1.09134e-11
5.07679e-12
-1.0669e-11
6.92772e-12
-9.31882e-12
8.40933e-12
-7.43402e-12
9.32058e-12
-5.23314e-12
9.51062e-12
-2.80114e-12
8.87104e-12
-1.74365e-13
7.32551e-12
2.61026e-12
4.81463e-12
5.52369e-12
1.29822e-12
8.53055e-12
-3.251e-12
1.15962e-11
-8.84453e-12
1.4693e-11
-1.54872e-11
1.77905e-11
-2.3174e-11
2.0864e-11
-3.18871e-11
2.38918e-11
-4.16095e-11
2.68535e-11
-5.23133e-11
2.97365e-11
-6.39681e-11
3.25233e-11
-7.65388e-11
3.5202e-11
-8.9987e-11
3.77655e-11
-1.04269e-10
4.02025e-11
-1.19341e-10
4.25081e-11
-1.35158e-10
4.46803e-11
-1.51671e-10
4.67098e-11
-1.68832e-10
4.85955e-11
-1.86592e-10
5.03369e-11
-2.049e-10
5.19291e-11
-2.23705e-10
5.33727e-11
-2.42957e-10
5.46709e-11
-2.62605e-10
5.58204e-11
-2.82598e-10
5.68229e-11
-3.02886e-10
5.76823e-11
-3.23423e-10
5.83981e-11
-3.44158e-10
5.89731e-11
-3.65043e-10
5.94116e-11
-3.86034e-10
5.97142e-11
-4.07081e-10
5.9884e-11
-4.28142e-10
5.99265e-11
-4.49173e-10
5.98433e-11
-4.70133e-10
5.96389e-11
-4.90978e-10
5.9318e-11
-5.1167e-10
5.88828e-11
-5.32171e-10
5.83365e-11
-5.52442e-10
5.76842e-11
-5.7245e-10
5.69297e-11
-5.92161e-10
5.60764e-11
-6.11538e-10
5.51291e-11
-6.30552e-10
5.40918e-11
-6.49172e-10
5.29669e-11
-6.67367e-10
5.17582e-11
-6.85111e-10
5.04712e-11
-7.02379e-10
4.91088e-11
-7.19144e-10
4.76741e-11
-7.35382e-10
4.61719e-11
-7.51071e-10
4.46058e-11
-7.6619e-10
4.29785e-11
-7.80718e-10
4.12945e-11
-7.94635e-10
3.9557e-11
-8.07925e-10
3.77682e-11
-8.20571e-10
3.5932e-11
-8.32553e-10
3.40519e-11
-8.43859e-10
3.21295e-11
-8.54476e-10
3.01685e-11
-8.64392e-10
2.81731e-11
-8.73595e-10
2.61447e-11
-8.82075e-10
2.40853e-11
-8.89822e-10
2.19991e-11
-8.96826e-10
1.9889e-11
-9.0308e-10
1.77569e-11
-9.08576e-10
1.56051e-11
-9.13311e-10
1.34372e-11
-9.17277e-10
1.12564e-11
-9.20471e-10
9.06378e-12
-9.2289e-10
6.86055e-12
-9.24532e-10
4.65076e-12
-9.25394e-10
2.43766e-12
-9.25477e-10
2.22432e-13
-9.24779e-10
-1.99328e-12
-9.23303e-10
-4.20588e-12
-9.2105e-10
-6.41193e-12
-9.18021e-10
-8.61015e-12
-9.14222e-10
-1.07992e-11
-9.09656e-10
-1.2976e-11
-9.0433e-10
-1.51371e-11
-8.98248e-10
-1.72804e-11
-8.91419e-10
-1.94042e-11
-8.83849e-10
-2.15067e-11
-8.75547e-10
-2.35848e-11
-8.66525e-10
-2.56349e-11
-8.56791e-10
-2.76547e-11
-8.4636e-10
-2.96418e-11
-8.35241e-10
-3.15927e-11
-8.2345e-10
-3.35046e-11
-8.11001e-10
-3.53752e-11
-7.97909e-10
-3.7202e-11
-7.8419e-10
-3.89816e-11
-7.69863e-10
-4.07101e-11
-7.54947e-10
-4.23842e-11
-7.39462e-10
-4.40013e-11
-7.23429e-10
-4.55593e-11
-7.06869e-10
-4.70545e-11
-6.89807e-10
-4.84829e-11
-6.72267e-10
-4.98406e-11
-6.54275e-10
-5.11242e-11
-6.35858e-10
-5.23314e-11
-6.17045e-10
-5.34582e-11
-5.97868e-10
-5.44998e-11
-5.78354e-10
-5.54522e-11
-5.58535e-10
-5.63124e-11
-5.38445e-10
-5.70778e-11
-5.18119e-10
-5.77444e-11
-4.97595e-10
-5.83075e-11
-4.76909e-10
-5.87631e-11
-4.561e-10
-5.91086e-11
-4.35206e-10
-5.93408e-11
-4.14268e-10
-5.94553e-11
-3.9333e-10
-5.94478e-11
-3.72432e-10
-5.93154e-11
-3.51621e-10
-5.90567e-11
-3.30941e-10
-5.86693e-11
-3.1044e-10
-5.81493e-11
-2.90164e-10
-5.74929e-11
-2.7016e-10
-5.66979e-11
-2.50476e-10
-5.57632e-11
-2.31161e-10
-5.46873e-11
-2.12265e-10
-5.3468e-11
-1.93835e-10
-5.21038e-11
-1.75922e-10
-5.05955e-11
-1.58573e-10
-4.89443e-11
-1.41837e-10
-4.71513e-11
-1.25763e-10
-4.52175e-11
-1.10396e-10
-4.3145e-11
-9.57816e-11
-4.09374e-11
-8.1963e-11
-3.86004e-11
-6.89815e-11
-3.61402e-11
-5.68748e-11
-3.35632e-11
-4.56784e-11
-3.0878e-11
-3.5425e-11
-2.80954e-11
-2.61416e-11
-2.52284e-11
-1.78496e-11
-2.2292e-11
-1.05653e-11
-1.93032e-11
-4.29868e-12
-1.62814e-11
9.49523e-13
-1.32503e-11
5.18829e-12
-1.02382e-11
8.43796e-12
-7.27784e-12
1.07309e-11
-4.40797e-12
1.21125e-11
-1.67418e-12
1.26444e-11
8.70584e-13
1.24069e-11
3.16435e-12
1.14998e-11
5.13436e-12
1.00451e-11
6.6967e-12
8.18959e-12
7.7569e-12
6.10582e-12
8.21146e-12
3.99348e-12
7.95124e-12
2.08295e-12
6.87037e-12
6.41106e-13
4.88446e-12
1.95052e-12
4.36989e-13
2.5182e-12
1.22686e-12
-2.81012e-12
2.33685e-12
-9.73993e-12
3.7625e-12
-1.23422e-11
5.27574e-12
-1.21818e-11
6.58467e-12
-1.06286e-11
7.43576e-12
-8.28612e-12
7.62331e-12
-5.42185e-12
6.98441e-12
-2.16178e-12
5.40279e-12
1.40789e-12
2.77945e-12
5.23096e-12
-9.48183e-13
9.25101e-12
-5.83135e-12
1.34128e-11
-1.19041e-11
1.76688e-11
-1.91801e-11
2.19707e-11
-2.76711e-11
2.62804e-11
-3.73672e-11
3.05626e-11
-4.82576e-11
3.47812e-11
-6.03178e-11
3.89146e-11
-7.35198e-11
4.29389e-11
-8.78281e-11
4.68302e-11
-1.03204e-10
5.05783e-11
-1.19603e-10
5.41644e-11
-1.36977e-10
5.75759e-11
-1.55275e-10
6.08078e-11
-1.74444e-10
6.38488e-11
-1.94429e-10
6.66937e-11
-2.15172e-10
6.93397e-11
-2.36616e-10
7.1781e-11
-2.58702e-10
7.40154e-11
-2.81371e-10
7.6043e-11
-3.04565e-10
7.78634e-11
-3.28223e-10
7.94776e-11
-3.52286e-10
8.08862e-11
-3.76696e-10
8.20918e-11
-4.01393e-10
8.30961e-11
-4.26321e-10
8.39028e-11
-4.51426e-10
8.45156e-11
-4.76651e-10
8.49376e-11
-5.0194e-10
8.51742e-11
-5.27244e-10
8.52292e-11
-5.52508e-10
8.51072e-11
-5.77682e-10
8.48142e-11
-6.02718e-10
8.43547e-11
-6.27571e-10
8.37334e-11
-6.5219e-10
8.29569e-11
-6.76534e-10
8.20296e-11
-7.00562e-10
8.09562e-11
-7.24228e-10
7.97439e-11
-7.47496e-10
7.8398e-11
-7.7033e-10
7.69234e-11
-7.9269e-10
7.53258e-11
-8.1454e-10
7.36103e-11
-8.35852e-10
7.17819e-11
-8.56591e-10
6.98467e-11
-8.76726e-10
6.78094e-11
-8.96229e-10
6.56757e-11
-9.15075e-10
6.34507e-11
-9.33235e-10
6.11386e-11
-9.50685e-10
5.87451e-11
-9.67403e-10
5.62751e-11
-9.83369e-10
5.37329e-11
-9.9856e-10
5.11231e-11
-1.01296e-09
4.84499e-11
-1.02655e-09
4.57168e-11
-1.03931e-09
4.29286e-11
-1.05122e-09
4.00905e-11
-1.06228e-09
3.72053e-11
-1.07247e-09
3.42767e-11
-1.08179e-09
3.13105e-11
-1.09021e-09
2.83098e-11
-1.09773e-09
2.52769e-11
-1.10434e-09
2.22161e-11
-1.11003e-09
1.91324e-11
-1.11481e-09
1.60291e-11
-1.11865e-09
1.29085e-11
-1.12157e-09
9.77413e-12
-1.12355e-09
6.63099e-12
-1.12459e-09
3.48214e-12
-1.1247e-09
3.2958e-13
-1.12387e-09
-2.82293e-12
-1.1221e-09
-5.97069e-12
-1.1194e-09
-9.11018e-12
-1.11578e-09
-1.22391e-11
-1.11122e-09
-1.53544e-11
-1.10574e-09
-1.84514e-11
-1.09935e-09
-2.15266e-11
-1.09206e-09
-2.45776e-11
-1.08386e-09
-2.76007e-11
-1.07478e-09
-3.05919e-11
-1.06481e-09
-3.35475e-11
-1.05398e-09
-3.64637e-11
-1.0423e-09
-3.93374e-11
-1.02978e-09
-4.21646e-11
-1.01643e-09
-4.49402e-11
-1.00227e-09
-4.76598e-11
-9.87329e-10
-5.03204e-11
-9.71612e-10
-5.29185e-11
-9.55142e-10
-5.54499e-11
-9.37943e-10
-5.79094e-11
-9.20037e-10
-6.02917e-11
-9.01445e-10
-6.25928e-11
-8.82195e-10
-6.48088e-11
-8.62314e-10
-6.69351e-11
-8.4183e-10
-6.89665e-11
-8.20773e-10
-7.0898e-11
-7.99172e-10
-7.2725e-11
-7.7706e-10
-7.44427e-11
-7.54472e-10
-7.60457e-11
-7.31444e-10
-7.7528e-11
-7.08013e-10
-7.88844e-11
-6.84215e-10
-8.01106e-11
-6.60091e-10
-8.1202e-11
-6.35683e-10
-8.21527e-11
-6.11034e-10
-8.29567e-11
-5.86188e-10
-8.36089e-11
-5.61191e-10
-8.41052e-11
-5.36091e-10
-8.44412e-11
-5.10935e-10
-8.46109e-11
-4.85775e-10
-8.46089e-11
-4.60659e-10
-8.44311e-11
-4.35642e-10
-8.40741e-11
-4.10777e-10
-8.35343e-11
-3.86119e-10
-8.28069e-11
-3.61724e-10
-8.18877e-11
-3.37647e-10
-8.07743e-11
-3.13946e-10
-7.94644e-11
-2.90677e-10
-7.79561e-11
-2.67898e-10
-7.62467e-11
-2.45668e-10
-7.43348e-11
-2.24043e-10
-7.22207e-11
-2.0308e-10
-6.99067e-11
-1.82836e-10
-6.73947e-11
-1.63367e-10
-6.46865e-11
-1.44727e-10
-6.17855e-11
-1.26968e-10
-5.8697e-11
-1.1014e-10
-5.54288e-11
-9.42897e-11
-5.19899e-11
-7.94626e-11
-4.83903e-11
-6.56991e-11
-4.46418e-11
-5.30352e-11
-4.07597e-11
-4.15016e-11
-3.67622e-11
-3.11228e-11
-3.26706e-11
-2.19168e-11
-2.85091e-11
-1.38934e-11
-2.43052e-11
-7.05285e-12
-2.00914e-11
-1.3844e-12
-1.59066e-11
3.1348e-12
-1.17964e-11
6.54074e-12
-7.8133e-12
8.88404e-12
-4.01756e-12
1.0233e-11
-4.79082e-13
1.06758e-11
2.72114e-12
1.0321e-11
5.48961e-12
9.29852e-12
7.71974e-12
7.7635e-12
9.29212e-12
5.89856e-12
1.00762e-11
3.91689e-12
9.93271e-12
2.06685e-12
8.72047e-12
6.40518e-13
6.31082e-12
2.5907e-12
6.63015e-13
1.85568e-12
1.65117e-12
-3.79918e-12
2.69357e-12
-1.07841e-11
3.80943e-12
-1.34552e-11
4.8241e-12
-1.31966e-11
5.49042e-12
-1.1296e-11
5.5773e-12
-8.37348e-12
4.88453e-12
-4.72857e-12
3.25397e-12
-5.30696e-13
5.52062e-13
4.10831e-12
-3.31362e-12
9.09758e-12
-8.41993e-12
1.43564e-11
-1.48213e-11
1.98146e-11
-2.25526e-11
2.54003e-11
-3.16373e-11
3.10537e-11
-4.20797e-11
3.67237e-11
-5.38786e-11
4.23599e-11
-6.70178e-11
4.79209e-11
-8.14744e-11
5.33725e-11
-9.72172e-11
5.86804e-11
-1.14207e-10
6.38213e-11
-1.324e-10
6.87712e-11
-1.51748e-10
7.35113e-11
-1.72198e-10
7.80266e-11
-1.93693e-10
8.23023e-11
-2.16173e-10
8.6328e-11
-2.39576e-10
9.00976e-11
-2.6384e-10
9.36021e-11
-2.88897e-10
9.6837e-11
-3.1468e-10
9.98008e-11
-3.41126e-10
1.02489e-10
-3.68165e-10
1.04902e-10
-3.95729e-10
1.07042e-10
-4.23753e-10
1.0891e-10
-4.52169e-10
1.10506e-10
-4.80909e-10
1.11837e-10
-5.0991e-10
1.12904e-10
-5.39107e-10
1.13712e-10
-5.68436e-10
1.14267e-10
-5.97837e-10
1.14574e-10
-6.27248e-10
1.14639e-10
-6.56609e-10
1.14469e-10
-6.85863e-10
1.14069e-10
-7.14955e-10
1.13445e-10
-7.43828e-10
1.12607e-10
-7.72432e-10
1.11561e-10
-8.00715e-10
1.10312e-10
-8.28627e-10
1.08869e-10
-8.56121e-10
1.07239e-10
-8.83152e-10
1.05429e-10
-9.09676e-10
1.03446e-10
-9.35649e-10
1.013e-10
-9.61033e-10
9.89947e-11
-9.85791e-10
9.65382e-11
-1.00988e-09
9.39382e-11
-1.03327e-09
9.12014e-11
-1.05593e-09
8.83346e-11
-1.07783e-09
8.53449e-11
-1.09893e-09
8.22385e-11
-1.1192e-09
7.90215e-11
-1.13863e-09
7.57012e-11
-1.15718e-09
7.22839e-11
-1.17483e-09
6.87751e-11
-1.19156e-09
6.51808e-11
-1.20736e-09
6.15071e-11
-1.22219e-09
5.77593e-11
-1.23604e-09
5.39426e-11
-1.2489e-09
5.00627e-11
-1.26074e-09
4.61252e-11
-1.27157e-09
4.21362e-11
-1.28136e-09
3.80998e-11
-1.2901e-09
3.40208e-11
-1.29779e-09
2.99051e-11
-1.30442e-09
2.57576e-11
-1.30997e-09
2.15822e-11
-1.31445e-09
1.73838e-11
-1.31784e-09
1.31681e-11
-1.32015e-09
8.93991e-12
-1.32137e-09
4.70302e-12
-1.3215e-09
4.61633e-13
-1.32055e-09
-3.77856e-12
-1.31851e-09
-8.01265e-12
-1.31538e-09
-1.2237e-11
-1.31117e-09
-1.64473e-11
-1.30589e-09
-2.06384e-11
-1.29953e-09
-2.48048e-11
-1.29212e-09
-2.89423e-11
-1.28365e-09
-3.30476e-11
-1.27413e-09
-3.71152e-11
-1.26358e-09
-4.11391e-11
-1.25202e-09
-4.51148e-11
-1.23944e-09
-4.90377e-11
-1.22588e-09
-5.29029e-11
-1.21134e-09
-5.67051e-11
-1.19584e-09
-6.04385e-11
-1.1794e-09
-6.40974e-11
-1.16204e-09
-6.76766e-11
-1.14379e-09
-7.11709e-11
-1.12467e-09
-7.45747e-11
-1.10469e-09
-7.7882e-11
-1.0839e-09
-8.10867e-11
-1.06231e-09
-8.41828e-11
-1.03995e-09
-8.7164e-11
-1.01686e-09
-9.00238e-11
-9.93074e-10
-9.27557e-11
-9.68617e-10
-9.5354e-11
-9.4353e-10
-9.78122e-11
-9.1785e-10
-1.00123e-10
-8.91616e-10
-1.0228e-10
-8.64869e-10
-1.04275e-10
-8.37651e-10
-1.06102e-10
-8.10007e-10
-1.07754e-10
-7.81984e-10
-1.09225e-10
-7.53629e-10
-1.10508e-10
-7.24991e-10
-1.11594e-10
-6.96122e-10
-1.12478e-10
-6.67075e-10
-1.13154e-10
-6.37903e-10
-1.13614e-10
-6.08663e-10
-1.13851e-10
-5.79412e-10
-1.13859e-10
-5.50209e-10
-1.13634e-10
-5.21114e-10
-1.13169e-10
-4.92188e-10
-1.1246e-10
-4.63494e-10
-1.115e-10
-4.35097e-10
-1.10285e-10
-4.07059e-10
-1.08812e-10
-3.79447e-10
-1.07078e-10
-3.52323e-10
-1.05079e-10
-3.25755e-10
-1.02814e-10
-2.99809e-10
-1.00281e-10
-2.74549e-10
-9.74811e-11
-2.5004e-10
-9.44161e-11
-2.26345e-10
-9.10885e-11
-2.03529e-10
-8.75022e-11
-1.81652e-10
-8.36625e-11
-1.60773e-10
-7.9577e-11
-1.40947e-10
-7.52552e-11
-1.22228e-10
-7.07089e-11
-1.04666e-10
-6.59524e-11
-8.83055e-11
-6.10024e-11
-7.31867e-11
-5.58788e-11
-5.93431e-11
-5.06059e-11
-4.68021e-11
-4.52115e-11
-3.55836e-11
-3.97276e-11
-2.5698e-11
-3.41911e-11
-1.71447e-11
-2.8645e-11
-9.91189e-12
-2.31395e-11
-3.97533e-12
-1.77329e-11
7.03491e-13
-1.24918e-11
4.17856e-12
-7.49264e-12
6.52219e-12
-2.82313e-12
7.82697e-12
1.4161e-12
8.2063e-12
5.11033e-12
7.79577e-12
8.13039e-12
6.75603e-12
1.0332e-11
5.27577e-12
1.15565e-11
3.5759e-12
1.16325e-11
1.91523e-12
1.0381e-11
5.99176e-13
7.62655e-12
3.18952e-12
7.18896e-13
1.13799e-12
1.71014e-12
-4.78944e-12
2.56685e-12
-1.16404e-11
3.2835e-12
-1.41746e-11
3.7174e-12
-1.36275e-11
3.64443e-12
-1.12243e-11
2.85572e-12
-7.58458e-12
1.15759e-12
-3.03229e-12
-1.60488e-12
2.23122e-12
-5.55906e-12
8.0638e-12
-1.08065e-11
1.43449e-11
-1.74242e-11
2.09742e-11
-2.54652e-11
2.7856e-11
-3.49729e-11
3.49066e-11
-4.59659e-11
4.20482e-11
-5.8453e-11
4.92102e-11
-7.24313e-11
5.63371e-11
-8.78835e-11
6.33744e-11
-1.04786e-10
7.02737e-11
-1.23105e-10
7.70002e-11
-1.428e-10
8.35158e-11
-1.63821e-10
8.9792e-11
-1.86117e-10
9.58069e-11
-2.09628e-10
1.01538e-10
-2.34294e-10
1.06967e-10
-2.60048e-10
1.12083e-10
-2.86823e-10
1.16873e-10
-3.14549e-10
1.21327e-10
-3.43152e-10
1.2544e-10
-3.72561e-10
1.29209e-10
-4.02701e-10
1.32628e-10
-4.33496e-10
1.35698e-10
-4.64872e-10
1.38419e-10
-4.96756e-10
1.40792e-10
-5.2907e-10
1.42821e-10
-5.61744e-10
1.4451e-10
-5.94703e-10
1.45863e-10
-6.27874e-10
1.46884e-10
-6.61189e-10
1.47583e-10
-6.94578e-10
1.47962e-10
-7.27971e-10
1.48033e-10
-7.61304e-10
1.47801e-10
-7.94511e-10
1.47275e-10
-8.27529e-10
1.46464e-10
-8.60297e-10
1.45376e-10
-8.92757e-10
1.4402e-10
-9.24851e-10
1.42405e-10
-9.56522e-10
1.4054e-10
-9.87719e-10
1.38435e-10
-1.01839e-09
1.36099e-10
-1.04848e-09
1.3354e-10
-1.07795e-09