/*--------------------------------*- C++ -*----------------------------------*\
  =========                 |
  \\      /  F ield         | OpenFOAM: The Open Source CFD Toolbox
   \\    /   O peration     | Website:  https://openfoam.org
    \\  /    A nd           | Version:  7
     \\/     M anipulation  |
\*---------------------------------------------------------------------------*/
FoamFile
{
    version     2.0;
    format      ascii;
    class       volScalarField;
    location    "0.1";
    object      p;
}
// * * * * * * * * * * * * * * * * * * * * * * * * * * * * * * * * * * * * * //

dimensions      [0 2 -2 0 0 0 0];

internalField   nonuniform List<scalar> 
12800
(
-9.52628e-08
0.000181668
-0.000903245
-0.00334675
-0.00690348
-0.0113266
-0.0163832
-0.0218598
-0.0275697
-0.0333528
-0.039073
-0.044615
-0.0498816
-0.0547912
-0.0592759
-0.0632797
-0.0667568
-0.0696705
-0.0719921
-0.0736997
-0.0747775
-0.0752152
-0.0750068
-0.0741508
-0.0726489
-0.0705063
-0.0677305
-0.0643315
-0.0603212
-0.0557132
-0.0505224
-0.0447648
-0.0384575
-0.031618
-0.0242645
-0.0164155
-0.0080896
0.000694387
0.00991776
0.0195619
0.0296086
0.0400396
0.0508373
0.0619846
0.0734645
0.0852608
0.0973577
0.10974
0.122393
0.135303
0.148457
0.161841
0.175444
0.189254
0.203261
0.217453
0.231822
0.246358
0.261053
0.275899
0.290888
0.306013
0.321268
0.336646
0.352143
0.367753
0.383471
0.399293
0.415214
0.431232
0.447343
0.463543
0.479829
0.4962
0.512651
0.529182
0.545789
0.562471
0.579225
0.596048
0.61294
0.629898
0.646918
0.664
0.68114
0.698336
0.715585
0.732884
0.750228
0.767615
0.785039
0.802497
0.819983
0.837492
0.855017
0.872553
0.89009
0.907622
0.92514
0.942634
0.960094
0.977509
0.994868
1.01216
1.02936
1.04647
1.06346
1.08033
1.09704
1.11359
1.12996
1.14612
1.16205
1.17773
1.19313
1.20824
1.22303
1.23747
1.25153
1.26519
1.27842
1.29119
1.30347
1.31524
1.32647
1.33712
1.34717
1.35659
1.36535
1.37344
1.38082
1.38747
1.39338
1.39852
1.40287
1.40643
1.40919
1.41113
1.41226
1.41258
1.41209
1.41082
1.40879
1.40601
1.40254
1.39841
1.39368
1.38842
1.38271
1.37664
1.37034
1.36392
1.35756
1.35142
1.34573
1.34073
1.33668
1.33388
1.3326
1.33276
-0.000181854
1.00884e-06
-0.00100169
-0.0031333
-0.00617004
-0.00993638
-0.0142587
-0.0189665
-0.0239032
-0.0289295
-0.0339235
-0.0387792
-0.0434053
-0.0477241
-0.0516695
-0.0551863
-0.0582286
-0.0607588
-0.0627468
-0.0641692
-0.0650081
-0.0652511
-0.06489
-0.0639209
-0.0623432
-0.0601594
-0.0573749
-0.0539971
-0.0500357
-0.045502
-0.0404086
-0.0347693
-0.0285992
-0.0219139
-0.0147296
-0.00706301
0.00106896
0.00964914
0.0186603
0.0280853
0.0379072
0.048109
0.0586742
0.0695867
0.0808305
0.0923903
0.104251
0.116398
0.128818
0.141497
0.154422
0.167582
0.180963
0.194555
0.208348
0.222331
0.236495
0.250831
0.26533
0.279984
0.294786
0.309728
0.324805
0.34001
0.355337
0.37078
0.386336
0.401999
0.417765
0.43363
0.44959
0.465642
0.481782
0.498008
0.514316
0.530704
0.547169
0.563709
0.58032
0.597001
0.613749
0.630561
0.647434
0.664366
0.681353
0.698393
0.715482
0.732617
0.749793
0.767007
0.784253
0.801528
0.818824
0.836137
0.85346
0.870786
0.888108
0.905416
0.922703
0.939958
0.957172
0.974333
0.991429
1.00845
1.02538
1.0422
1.0589
1.07546
1.09187
1.10811
1.12416
1.13999
1.1556
1.17095
1.18602
1.2008
1.21525
1.22935
1.24308
1.25642
1.26932
1.28178
1.29376
1.30523
1.31617
1.32656
1.33636
1.34555
1.35411
1.36202
1.36924
1.37577
1.38159
1.38667
1.39101
1.39459
1.39741
1.39947
1.40076
1.40129
1.40107
1.40013
1.39847
1.39614
1.39316
1.38959
1.38548
1.3809
1.37592
1.37065
1.36517
1.35962
1.35415
1.34889
1.34405
1.33981
1.33637
1.33393
1.33276
1.33292
0.000902089
0.00100472
1.30387e-06
-0.00198222
-0.0047308
-0.00810217
-0.0119561
-0.016151
-0.0205537
-0.0250426
-0.0295088
-0.0338561
-0.0380001
-0.0418676
-0.045396
-0.0485318
-0.05123
-0.0534536
-0.0551721
-0.0563614
-0.0570027
-0.0570822
-0.0565905
-0.055522
-0.0538745
-0.0516488
-0.0488485
-0.0454794
-0.0415492
-0.0370676
-0.0320455
-0.0264951
-0.0204297
-0.0138634
-0.00681084
0.000712618
0.00869144
0.0171098
0.0259516
0.035201
0.044842
0.0548588
0.0652358
0.0759576
0.0870091
0.0983756
0.110043
0.121997
0.134225
0.146713
0.15945
0.172422
0.18562
0.199031
0.212645
0.226453
0.240445
0.254613
0.268947
0.28344
0.298084
0.312872
0.327798
0.342855
0.358037
0.373339
0.388756
0.404283
0.419915
0.435649
0.451479
0.467404
0.483418
0.499519
0.515703
0.531968
0.54831
0.564727
0.581215
0.597772
0.614395
0.631081
0.647826
0.664629
0.681484
0.69839
0.715341
0.732335
0.749368
0.766433
0.783527
0.800645
0.81778
0.834927
0.852078
0.869227
0.886366
0.903487
0.920579
0.937634
0.954642
0.97159
0.988468
1.00526
1.02196
1.03855
1.05501
1.07132
1.08748
1.10346
1.11925
1.13482
1.15016
1.16524
1.18005
1.19455
1.20873
1.22257
1.23604
1.24911
1.26176
1.27396
1.2857
1.29694
1.30766
1.31784
1.32745
1.33646
1.34487
1.35263
1.35975
1.36618
1.37193
1.37698
1.38131
1.38493
1.38781
1.38996
1.39139
1.3921
1.3921
1.39142
1.39007
1.38808
1.3855
1.38236
1.37873
1.37466
1.37024
1.36554
1.36067
1.35574
1.35087
1.34621
1.34191
1.33812
1.33501
1.33275
1.33158
1.33164
0.00334697
0.00313951
0.00198324
-5.43323e-06
-0.0026474
-0.00581906
-0.00940042
-0.0132709
-0.0173159
-0.0214293
-0.0255145
-0.0294847
-0.0332629
-0.0367815
-0.0399819
-0.0428134
-0.0452332
-0.0472052
-0.0486998
-0.0496928
-0.0501652
-0.0501028
-0.0494953
-0.0483363
-0.0466225
-0.0443535
-0.0415318
-0.0381616
-0.0342496
-0.029804
-0.0248344
-0.0193518
-0.013368
-0.00689586
5.10555e-05
0.00745871
0.0153127
0.0235982
0.0323002
0.0414039
0.050894
0.0607558
0.0709744
0.0815352
0.0924239
0.103626
0.115129
0.126918
0.138981
0.151306
0.163879
0.176691
0.189728
0.202982
0.216441
0.230096
0.243938
0.257958
0.272147
0.286497
0.301002
0.315653
0.330445
0.345371
0.360424
0.3756
0.390892
0.406297
0.421809
0.437425
0.453139
0.468948
0.484848
0.500836
0.516908
0.533061
0.549291
0.565596
0.581973
0.598417
0.614927
0.631498
0.648127
0.664812
0.681548
0.698332
0.71516
0.732027
0.748929
0.765862
0.78282
0.799797
0.816789
0.833787
0.850786
0.867779
0.884757
0.901711
0.918633
0.935513
0.95234
0.969103
0.985791
1.00239
1.01889
1.03527
1.05152
1.06763
1.08357
1.09934
1.1149
1.13025
1.14536
1.16022
1.1748
1.18908
1.20303
1.21665
1.22989
1.24275
1.25519
1.26719
1.27873
1.28978
1.30032
1.31033
1.31979
1.32866
1.33694
1.3446
1.35163
1.358
1.36371
1.36874
1.37308
1.37672
1.37966
1.38191
1.38346
1.38432
1.3845
1.38404
1.38293
1.38123
1.37896
1.37617
1.37291
1.36924
1.36523
1.36096
1.35653
1.35203
1.34757
1.34328
1.33929
1.33573
1.33275
1.33049
1.32915
1.32884
0.00691575
0.00618799
0.00473509
0.00262448
-2.79875e-05
-0.00311645
-0.00653775
-0.0101902
-0.0139761
-0.0178037
-0.0215884
-0.0252528
-0.0287278
-0.0319517
-0.0348705
-0.0374373
-0.0396115
-0.0413591
-0.0426515
-0.0434652
-0.0437817
-0.0435864
-0.0428689
-0.0416221
-0.039842
-0.0375276
-0.0346801
-0.031303
-0.0274017
-0.0229833
-0.0180564
-0.0126306
-0.00671692
-0.000326933
0.00652693
0.0138316
0.0215738
0.0297397
0.0383152
0.0472863
0.0566388
0.0663585
0.0764314
0.0868437
0.0975816
0.108632
0.119981
0.131616
0.143525
0.155696
0.168117
0.180776
0.193663
0.206768
0.22008
0.23359
0.247289
0.261167
0.275218
0.289432
0.303803
0.318323
0.332985
0.347784
0.362713
0.377766
0.392938
0.408224
0.423619
0.439119
0.45472
0.470416
0.486205
0.502082
0.518044
0.534087
0.550208
0.566403
0.582669
0.599003
0.615401
0.63186
0.648376
0.664945
0.681564
0.698229
0.714936
0.731679
0.748455
0.765258
0.782084
0.798925
0.815778
0.832633
0.849486
0.866328
0.883151
0.899946
0.916705
0.933418
0.950074
0.966662
0.98317
0.999586
1.0159
1.03209
1.04815
1.06406
1.0798
1.09536
1.11072
1.12586
1.14077
1.15541
1.16978
1.18385
1.1976
1.21101
1.22406
1.23672
1.24897
1.26079
1.27215
1.28303
1.29342
1.30328
1.3126
1.32136
1.32953
1.3371
1.34406
1.35038
1.35605
1.36107
1.36542
1.3691
1.3721
1.37444
1.3761
1.3771
1.37746
1.37718
1.37631
1.37485
1.37286
1.37036
1.36742
1.36408
1.36042
1.3565
1.3524
1.34823
1.34407
1.34003
1.33622
1.33277
1.32978
1.32738
1.3257
1.32479
0.0113724
0.00998287
0.00812127
0.00578999
0.00302739
-7.73405e-05
-0.00343572
-0.00696323
-0.0105777
-0.0142006
-0.0177586
-0.0211838
-0.0244147
-0.027396
-0.0300787
-0.0324196
-0.0343815
-0.0359323
-0.0370452
-0.0376978
-0.0378723
-0.0375546
-0.036734
-0.0354035
-0.0335586
-0.0311976
-0.0283213
-0.0249322
-0.0210351
-0.016636
-0.0117426
-0.00636371
-0.000509111
0.00581042
0.0125834
0.0197978
0.0274412
0.0355005
0.0439628
0.0528146
0.0620427
0.0716336
0.0815739
0.0918505
0.10245
0.11336
0.124568
0.136061
0.147828
0.159856
0.172134
0.184651
0.197398
0.210363
0.223537
0.23691
0.250473
0.264219
0.278138
0.292223
0.306466
0.320861
0.3354
0.350077
0.364886
0.379822
0.394878
0.41005
0.425332
0.440721
0.45621
0.471798
0.487478
0.503247
0.519102
0.535038
0.551052
0.567141
0.5833
0.599526
0.615815
0.632165
0.64857
0.665027
0.681533
0.698082
0.714671
0.731294
0.747948
0.764627
0.781324
0.798036
0.814754
0.831473
0.848185
0.864883
0.881559
0.898204
0.914809
0.931363
0.947858
0.964281
0.980621
0.996865
1.013
1.02901
1.04489
1.06062
1.07617
1.09155
1.10672
1.12167
1.13639
1.15084
1.16502
1.17891
1.19247
1.2057
1.21857
1.23105
1.24313
1.25479
1.26599
1.27673
1.28698
1.29671
1.30592
1.31457
1.32266
1.33015
1.33705
1.34333
1.34898
1.354
1.35837
1.36209
1.36515
1.36757
1.36934
1.37047
1.37098
1.37088
1.3702
1.36896
1.3672
1.36496
1.36228
1.35921
1.35582
1.35217
1.34833
1.34439
1.34043
1.33653
1.3328
1.32933
1.32622
1.32358
1.32143
1.31977
0.0164957
0.0143593
0.0120087
0.00937732
0.00642134
0.00321521
-0.000164938
-0.00365008
-0.00717206
-0.0106645
-0.0140644
-0.0173131
-0.0203565
-0.0231456
-0.0256365
-0.0277904
-0.0295731
-0.0309553
-0.0319122
-0.0324229
-0.0324706
-0.0320417
-0.0311262
-0.029717
-0.0278097
-0.0254021
-0.0224947
-0.0190895
-0.0151907
-0.0108035
-0.00593496
-0.000593058
0.00521314
0.0114737
0.0181781
0.0253149
0.0328725
0.0408388
0.0492014
0.0579477
0.0670651
0.0765409
0.0863624
0.0965169
0.106992
0.117775
0.128854
0.140217
0.151853
0.16375
0.175898
0.188284
0.200901
0.213736
0.226781
0.240027
0.253465
0.267086
0.280882
0.294845
0.308969
0.323245
0.337667
0.352229
0.366925
0.381749
0.396694
0.411757
0.426932
0.442213
0.457598
0.47308
0.488656
0.504322
0.520073
0.535906
0.551817
0.567803
0.583858
0.59998
0.616165
0.632408
0.648707
0.665056
0.681452
0.69789
0.714366
0.730875
0.747412
0.763971
0.780547
0.797134
0.813725
0.830314
0.846894
0.863456
0.879993
0.896496
0.912956
0.929363
0.945707
0.961976
0.97816
0.994245
1.01022
1.02607
1.04178
1.05734
1.07273
1.08793
1.10293
1.11771
1.13225
1.14654
1.16055
1.17427
1.18767
1.20073
1.21344
1.22577
1.23771
1.24922
1.26029
1.2709
1.28104
1.29066
1.29977
1.30834
1.31635
1.32379
1.33065
1.3369
1.34254
1.34756
1.35195
1.35571
1.35884
1.36133
1.3632
1.36445
1.3651
1.36515
1.36464
1.36358
1.36202
1.35998
1.35751
1.35466
1.35148
1.34803
1.34437
1.34057
1.33671
1.33287
1.32912
1.32554
1.32221
1.31924
1.31654
1.31404
0.0220845
0.0191557
0.0162627
0.0132717
0.0100573
0.00668148
0.00321019
-0.000301328
-0.00379757
-0.00722309
-0.0105246
-0.0136518
-0.016558
-0.0192002
-0.0215397
-0.0235418
-0.0251762
-0.0264162
-0.0272391
-0.0276261
-0.0275614
-0.0270327
-0.0260304
-0.0245478
-0.0225807
-0.020127
-0.0171869
-0.0137621
-0.00985635
-0.00547455
-0.000623008
0.00469082
0.0104585
0.0166709
0.0233179
0.030389
0.0378732
0.0457591
0.0540349
0.0626889
0.0717088
0.0810826
0.0907983
0.100844
0.111207
0.121875
0.132838
0.144084
0.155601
0.167379
0.179406
0.191673
0.20417
0.216886
0.229812
0.24294
0.256261
0.269766
0.283447
0.297297
0.311308
0.325473
0.339785
0.354239
0.368827
0.383545
0.398386
0.413345
0.428416
0.443596
0.458879
0.474261
0.489737
0.505304
0.520956
0.53669
0.552502
0.568388
0.584344
0.600366
0.61645
0.632592
0.648787
0.665033
0.681324
0.697655
0.714023
0.730422
0.746847
0.763292
0.779752
0.79622
0.812691
0.829157
0.845612
0.862046
0.878453
0.894824
0.911148
0.927417
0.943621
0.959748
0.975787
0.991725
1.00755
1.02325
1.03881
1.05421
1.06945
1.0845
1.09935
1.11397
1.12836
1.1425
1.15636
1.16993
1.18318
1.19611
1.20868
1.22088
1.23268
1.24407
1.25503
1.26554
1.27557
1.28511
1.29414
1.30265
1.3106
1.318
1.32482
1.33106
1.3367
1.34173
1.34615
1.34995
1.35314
1.35571
1.35767
1.35902
1.35978
1.35997
1.3596
1.3587
1.3573
1.35543
1.35313
1.35044
1.34741
1.34409
1.34054
1.33681
1.33298
1.32911
1.32526
1.32149
1.31788
1.31451
1.31121
1.30782
0.0279638
0.0242238
0.0207561
0.0173634
0.0138417
0.0102428
0.00662469
0.00303042
-0.000495682
-0.00390807
-0.00716227
-0.0102158
-0.0130287
-0.0155641
-0.0177882
-0.0196707
-0.0211847
-0.0223065
-0.023016
-0.0232962
-0.0231329
-0.0225149
-0.0214336
-0.0198829
-0.017859
-0.0153599
-0.0123858
-0.00893847
-0.00502124
-0.000638829
0.00420288
0.00949689
0.0152353
0.0214094
0.0280097
0.0350263
0.0424487
0.0502662
0.0584676
0.0670415
0.0759766
0.0852611
0.0948835
0.104832
0.115096
0.125662
0.136521
0.147661
0.159071
0.17074
0.182659
0.194816
0.207203
0.21981
0.232627
0.245647
0.258859
0.272256
0.285831
0.299575
0.313481
0.327542
0.341752
0.356103
0.370591
0.385208
0.39995
0.41481
0.429784
0.444867
0.460054
0.47534
0.490721
0.506192
0.521749
0.537388
0.553105
0.568896
0.584756
0.600682
0.616669
0.632714
0.648811
0.664957
0.681147
0.697377
0.713641
0.729935
0.746253
0.76259
0.778939
0.795296
0.811653
0.828003
0.844339
0.860654
0.876939
0.893185
0.909383
0.925525
0.941598
0.957594
0.973499
0.989303
1.00499
1.02056
1.03598
1.05124
1.06634
1.08125
1.09596
1.11045
1.1247
1.13871
1.15243
1.16587
1.179
1.1918
1.20426
1.21634
1.22804
1.23933
1.2502
1.26062
1.27057
1.28004
1.28901
1.29746
1.30538
1.31275
1.31955
1.32578
1.33143
1.33648
1.34093
1.34478
1.34803
1.35067
1.35271
1.35416
1.35502
1.35533
1.35508
1.35431
1.35303
1.35129
1.34911
1.34654
1.34361
1.34037
1.33687
1.33316
1.3293
1.32533
1.32132
1.3173
1.31336
1.30953
1.3056
1.30132
0.0339828
0.0294313
0.0253723
0.0215499
0.0176852
0.0138226
0.0100136
0.0062909
0.00268895
-0.000755483
-0.00400584
-0.00702685
-0.00978499
-0.0122489
-0.0143896
-0.016181
-0.0175998
-0.0186254
-0.0192403
-0.0194293
-0.0191801
-0.0184828
-0.01733
-0.0157162
-0.0136382
-0.0110945
-0.00808538
-0.00461276
-0.000679906
0.00370865
0.00854724
0.0138292
0.0195469
0.0256922
0.032256
0.0392288
0.0466006
0.0543612
0.0624999
0.0710059
0.0798681
0.0890754
0.0986168
0.108481
0.118657
0.129133
0.1399
0.150945
0.162259
0.173831
0.185652
0.197711
0.209998
0.222506
0.235223
0.248143
0.261256
0.274555
0.288031
0.301676
0.315485
0.32945
0.343563
0.357819
0.372212
0.386735
0.401384
0.416151
0.431033
0.446024
0.46112
0.476315
0.491605
0.506985
0.522452
0.538
0.553627
0.569326
0.585095
0.600929
0.616823
0.632774
0.648777
0.664828
0.680922
0.697054
0.71322
0.729414
0.74563
0.761864
0.77811
0.794361
0.81061
0.826851
0.843076
0.859279
0.875449
0.89158
0.907662
0.923684
0.939638
0.955513
0.971296
0.986978
1.00254
1.01798
1.03328
1.04842
1.0634
1.07818
1.09277
1.10714
1.12127
1.13516
1.14877
1.1621
1.17512
1.18782
1.20017
1.21217
1.22377
1.23498
1.24577
1.25612
1.26601
1.27543
1.28436
1.29277
1.30066
1.30802
1.31482
1.32105
1.32671
1.33179
1.33628
1.34018
1.34348
1.34619
1.34831
1.34984
1.3508
1.3512
1.35105
1.35038
1.34921
1.34757
1.34548
1.34298
1.3401
1.3369
1.3334
1.32965
1.3257
1.3216
1.31737
1.31307
1.30874
1.30444
1.29986
1.29468
0.0400129
0.0346611
0.0300059
0.0257364
0.0215042
0.0173475
0.0133136
0.00942602
0.00571078
0.00219688
-0.00108625
-0.00410981
-0.0068462
-0.00926921
-0.0113546
-0.0130803
-0.0144265
-0.0153756
-0.0159126
-0.0160246
-0.0157011
-0.0149337
-0.013716
-0.0120437
-0.00991421
-0.00732656
-0.00428147
-0.000780977
0.00317152
0.00757149
0.0124134
0.0176907
0.0233961
0.0295216
0.0360586
0.0429979
0.0503299
0.0580447
0.0661322
0.0745818
0.0833829
0.092525
0.101997
0.111789
0.121889
0.132287
0.142972
0.153935
0.165164
0.17665
0.188383
0.200353
0.212552
0.224969
0.237597
0.250426
0.263449
0.276657
0.290042
0.303598
0.317317
0.331192
0.345217
0.359385
0.373689
0.388124
0.402685
0.417366
0.432161
0.447065
0.462075
0.477183
0.492387
0.507682
0.523062
0.538525
0.554064
0.569677
0.585358
0.601104
0.616911
0.632773
0.648686
0.664646
0.680648
0.696688
0.71276
0.728859
0.744979
0.761116
0.777263
0.793414
0.809562
0.825701
0.841823
0.85792
0.873985
0.890009
0.905982
0.921896
0.93774
0.953504
0.969176
0.984746
1.0002
1.01553
1.03071
1.04575
1.06061
1.07529
1.08977
1.10403
1.11806
1.13185
1.14537
1.1586
1.17153
1.18414
1.19641
1.20833
1.21987
1.23101
1.24174
1.25204
1.26189
1.27127
1.28017
1.28856
1.29644
1.30379
1.3106
1.31685
1.32254
1.32765
1.33218
1.33613
1.33949
1.34226
1.34445
1.34606
1.3471
1.34759
1.34753
1.34694
1.34584
1.34427
1.34223
1.33978
1.33692
1.33371
1.33017
1.32635
1.32227
1.31798
1.3135
1.30887
1.30414
1.29936
1.29412
1.28807
0.0459434
0.0398099
0.0345614
0.0298363
0.0252204
0.0207482
0.0164635
0.0123827
0.0085242
0.00491027
0.00156404
-0.00149158
-0.00423429
-0.00664278
-0.00869713
-0.0103791
-0.0116724
-0.0125623
-0.0130363
-0.013084
-0.0126964
-0.0118669
-0.0105904
-0.00886353
-0.00668466
-0.0040535
-0.000971225
0.00255975
0.00653584
0.0109524
0.0158038
0.0210837
0.0267848
0.0328994
0.039419
0.0463347
0.0536373
0.0613173
0.0693645
0.0777691
0.0865207
0.095609
0.105024
0.114754
0.12479
0.135121
0.145737
0.156627
0.167783
0.179193
0.190849
0.202741
0.214861
0.227198
0.239745
0.252493
0.265434
0.278561
0.291864
0.305338
0.318975
0.332768
0.34671
0.360796
0.375019
0.389373
0.403852
0.418451
0.433165
0.447989
0.462917
0.477944
0.493067
0.50828
0.523579
0.53896
0.554417
0.569948
0.585546
0.601209
0.616931
0.632708
0.648536
0.66441
0.680325
0.696277
0.71226
0.728269
0.7443
0.760345
0.776399
0.792456
0.80851
0.824553
0.840578
0.856578
0.872545
0.888469
0.904343
0.920157
0.935901
0.951564
0.967136
0.982606
0.997961
1.01319
1.02828
1.04321
1.05798
1.07256
1.08695
1.10112
1.11507
1.12877
1.1422
1.15536
1.16822
1.18076
1.19297
1.20483
1.21631
1.22741
1.2381
1.24836
1.25818
1.26755
1.27643
1.28482
1.2927
1.30006
1.30689
1.31316
1.31888
1.32403
1.32861
1.33261
1.33603
1.33887
1.34113
1.34281
1.34393
1.34448
1.34449
1.34396
1.34293
1.3414
1.33939
1.33695
1.33408
1.33083
1.32722
1.32328
1.31904
1.31453
1.30978
1.30481
1.29966
1.29437
1.28849
1.28159
0.0516791
0.0447866
0.0389536
0.0337703
0.0287615
0.0239592
0.0194052
0.0151094
0.0110841
0.00734555
0.00391144
0.000799399
-0.00197312
-0.00438931
-0.00643332
-0.00809052
-0.00934778
-0.0101934
-0.0106175
-0.0106115
-0.0101688
-0.00928407
-0.00795374
-0.00617563
-0.00394897
-0.00127429
0.00184663
0.00541092
0.00941465
0.0138529
0.0187201
0.0240096
0.0297144
0.0358267
0.0423382
0.0492401
0.0565236
0.0641792
0.0721972
0.0805678
0.0892811
0.098327
0.107695
0.117376
0.127359
0.137634
0.148192
0.159022
0.170114
0.18146
0.193049
0.204874
0.216924
0.229191
0.241666
0.254342
0.267211
0.280264
0.293494
0.306893
0.320456
0.334174
0.348042
0.362053
0.3762
0.390479
0.404883
0.419407
0.434045
0.448793
0.463645
0.478597
0.493643
0.50878
0.524002
0.539305
0.554685
0.570138
0.585658
0.601241
0.616884
0.632581
0.648328
0.66412
0.679953
0.695822
0.711721
0.727646
0.74359
0.759549
0.775517
0.791486
0.807451
0.823405
0.839341
0.855251
0.871127
0.886961
0.902744
0.918467
0.934119
0.949692
0.965174
0.980554
0.99582
1.01096
1.02596
1.04081
1.0555
1.07
1.08431
1.09841
1.11228
1.12591
1.13928
1.15238
1.16518
1.17767
1.18983
1.20165
1.2131
1.22416
1.23483
1.24507
1.25488
1.26424
1.27313
1.28153
1.28942
1.29681
1.30366
1.30997
1.31573
1.32094
1.32557
1.32963
1.33311
1.33601
1.33834
1.34008
1.34126
1.34188
1.34194
1.34147
1.34047
1.33897
1.33697
1.33451
1.33161
1.32829
1.32458
1.3205
1.31608
1.31133
1.30628
1.30094
1.29536
1.28958
1.28306
1.27535
0.0571371
0.0495107
0.0431054
0.0374663
0.0320607
0.0269193
0.022083
0.0175563
0.0133461
0.00946371
0.00592188
0.00273361
-8.80534e-05
-0.00253037
-0.00458127
-0.00622955
-0.00746516
-0.00827915
-0.00866409
-0.0086137
-0.00812314
-0.00718889
-0.00580875
-0.00398176
-0.00170819
0.00101054
0.004172
0.00777274
0.0118084
0.0162738
0.0211629
0.0264693
0.0321856
0.0383041
0.0448167
0.0517145
0.0589889
0.0666306
0.07463
0.0829776
0.0916637
0.100678
0.110012
0.119654
0.129596
0.139826
0.150336
0.161116
0.172157
0.183448
0.194982
0.206748
0.218739
0.230945
0.243359
0.255972
0.268776
0.281764
0.294929
0.308262
0.321758
0.335409
0.349209
0.363152
0.377231
0.391441
0.405776
0.42023
0.434799
0.449476
0.464258
0.479139
0.494114
0.509179
0.524329
0.53956
0.554867
0.570246
0.585692
0.601201
0.616769
0.63239
0.648061
0.663776
0.679531
0.695322
0.711142
0.726987
0.742852
0.75873
0.774616
0.790504
0.806387
0.822258
0.838111
0.853938
0.869731
0.885482
0.901182
0.916822
0.932393
0.947885
0.963286
0.978587
0.993776
1.00884
1.02377
1.03854
1.05316
1.0676
1.08184
1.09588
1.10969
1.12327
1.13659
1.14964
1.1624
1.17486
1.18699
1.19878
1.21021
1.22126
1.23192
1.24216
1.25198
1.26134
1.27025
1.27867
1.2866
1.29402
1.30091
1.30727
1.31309
1.31834
1.32303
1.32716
1.3307
1.33367
1.33606
1.33787
1.33911
1.33978
1.3399
1.33946
1.33848
1.33699
1.33499
1.3325
1.32954
1.32613
1.3223
1.31805
1.31342
1.30842
1.30306
1.29735
1.29134
1.28506
1.27793
1.26943
0.0622453
0.053911
0.0469479
0.0408586
0.0350564
0.0295714
0.0244443
0.0196755
0.0152671
0.0112262
0.00756113
0.0042809
0.00139454
-0.00108888
-0.00316073
-0.00481307
-0.00603872
-0.00683145
-0.00718613
-0.00709869
-0.00656618
-0.00558676
-0.00415966
-0.00228524
3.51253e-05
0.00279914
0.00600357
0.00964433
0.0137165
0.0182146
0.0231322
0.0284626
0.0341985
0.0403319
0.0468546
0.053758
0.0610333
0.0686714
0.0766629
0.0849984
0.0936683
0.102663
0.111973
0.121588
0.131499
0.141696
0.15217
0.16291
0.173909
0.185157
0.196645
0.208364
0.220305
0.23246
0.244821
0.25738
0.27013
0.283062
0.296169
0.309444
0.322881
0.336472
0.350212
0.364093
0.378111
0.392258
0.40653
0.420921
0.435425
0.450039
0.464755
0.47957
0.49448
0.509478
0.524561
0.539724
0.554963
0.570273
0.58565
0.601088
0.616585
0.632135
0.647734
0.663377
0.679059
0.694776
0.710523
0.726293
0.742083
0.757886
0.773696
0.789508
0.805315
0.82111
0.836887
0.852638
0.868355
0.884031
0.899656
0.915222
0.93072
0.94614
0.961471
0.976703
0.991824
1.00682
1.02169
1.0364
1.05096
1.06534
1.07954
1.09353
1.1073
1.12083
1.13412
1.14714
1.15988
1.17231
1.18443
1.19621
1.20763
1.21869
1.22936
1.23962
1.24945
1.25884
1.26778
1.27624
1.28421
1.29168
1.29863
1.30505
1.31092
1.31624
1.321
1.32519
1.32881
1.33185
1.3343
1.33618
1.33747
1.33819
1.33835
1.33794
1.33698
1.33548
1.33345
1.33092
1.32789
1.32438
1.3204
1.31598
1.31113
1.30586
1.30018
1.29409
1.28765
1.28089
1.27316
1.26391
0.0669402
0.0579239
0.0504188
0.0438873
0.0376915
0.0318619
0.0264396
0.0214213
0.0168053
0.012595
0.00879505
0.00541074
0.00244763
-8.866e-05
-0.00219265
-0.00385933
-0.00508427
-0.00586387
-0.00619521
-0.00607634
-0.00550618
-0.00448454
-0.00301221
-0.0010908
0.0012772
0.00408847
0.00733895
0.0110238
0.0151376
0.0196743
0.0246272
0.0299892
0.0357527
0.0419097
0.0484518
0.0553705
0.0626569
0.0703018
0.078296
0.0866302
0.0952948
0.104281
0.113578
0.123177
0.133068
0.143243
0.153691
0.164404
0.175372
0.186587
0.198039
0.20972
0.221621
0.233735
0.246053
0.258568
0.271271
0.284155
0.297213
0.310438
0.323824
0.337363
0.351049
0.364876
0.378838
0.39293
0.407145
0.421479
0.435925
0.450479
0.465136
0.479891
0.494739
0.509676
0.524697
0.539797
0.554972
0.570218
0.58553
0.600903
0.616334
0.631817
0.647349
0.662924
0.678538
0.694186
0.709863
0.725564
0.741284
0.757016
0.772757
0.788498
0.804235
0.81996
0.835667
0.851349
0.866998
0.882605
0.898164
0.913664
0.929097
0.944454
0.959724
0.974896
0.989961
1.00491
1.01972
1.03439
1.0489
1.06324
1.07739
1.09135
1.10509
1.1186
1.13187
1.14487
1.1576
1.17003
1.18214
1.19393
1.20537
1.21644
1.22713
1.23742
1.24729
1.25673
1.26571
1.27423
1.28226
1.28979
1.2968
1.30329
1.30924
1.31463
1.31947
1.32373
1.32742
1.33053
1.33306
1.335
1.33635
1.33712
1.3373
1.33692
1.33597
1.33445
1.3324
1.3298
1.32668
1.32306
1.31893
1.31432
1.30924
1.30369
1.29769
1.29123
1.28436
1.27713
1.26882
1.25885
0.0711654
0.0614925
0.0534618
0.0464975
0.0399134
0.0337407
0.0280216
0.0227498
0.0179201
0.013533
0.00958982
0.00609255
0.00304362
0.000445641
-0.00169886
-0.00338764
-0.00461889
-0.00539133
-0.00570428
-0.00555784
-0.00495277
-0.00389052
-0.00237338
-0.000404286
0.00201312
0.00487446
0.0081748
0.0119085
0.0160696
0.0206513
0.0256466
0.031048
0.0368476
0.0430372
0.0496082
0.0565519
0.0638595
0.0715217
0.0795294
0.0878732
0.0965436
0.105531
0.114827
0.124421
0.134305
0.144468
0.154902
0.165597
0.176545
0.187737
0.199163
0.210817
0.222689
0.23477
0.247054
0.259533
0.272199
0.285044
0.298061
0.311244
0.324586
0.33808
0.35172
0.3655
0.379414
0.393457
0.407621
0.421903
0.436297
0.450798
0.465401
0.480101
0.494894
0.509774
0.524737
0.539779
0.554895
0.570081
0.585332
0.600645
0.616014
0.631435
0.646904
0.662416
0.677966
0.69355
0.709162
0.724799
0.740454
0.756122
0.771797
0.787474
0.803146
0.818808
0.834451
0.85007
0.865657
0.881204
0.896703
0.912146
0.927523
0.942825
0.958043
0.973165
0.988183
1.00308
1.01785
1.03248
1.04696
1.06127
1.0754
1.08934
1.10306
1.11656
1.12982
1.14282
1.15555
1.16799
1.18012
1.19193
1.2034
1.21451
1.22524
1.23557
1.2455
1.25499
1.26403
1.27262
1.28072
1.28832
1.29542
1.30199
1.30802
1.3135
1.31842
1.32277
1.32654
1.32973
1.33233
1.33433
1.33574
1.33655
1.33678
1.33641
1.33546
1.33393
1.33183
1.32917
1.32596
1.32221
1.31792
1.31312
1.3078
1.30197
1.29564
1.28881
1.28152
1.27382
1.26496
1.2543
0.0748706
0.0645653
0.0560255
0.0486388
0.0416733
0.0351611
0.029146
0.0236191
0.0185726
0.014004
0.00991205
0.00629577
0.00315477
0.000488883
-0.00170204
-0.00341832
-0.0046606
-0.00542982
-0.00572749
-0.00555563
-0.00491679
-0.00381409
-0.00225127
-0.000232631
0.00223698
0.00515215
0.00850699
0.0122951
0.0165097
0.0211435
0.0261888
0.0316379
0.0374823
0.0437137
0.0503233
0.0573022
0.0646414
0.0723316
0.0803635
0.0887278
0.0974152
0.106416
0.115722
0.125322
0.135208
0.145371
0.155801
0.16649
0.177428
0.188607
0.200019
0.211655
0.223507
0.235566
0.247826
0.260278
0.272914
0.285729
0.298714
0.311863
0.325169
0.338626
0.352227
0.365967
0.379839
0.393838
0.407959
0.422196
0.436543
0.450997
0.465551
0.480201
0.494943
0.509771
0.524682
0.53967
0.554732
0.569863
0.585059
0.600315
0.615626
0.63099
0.6464
0.661853
0.677344
0.692869
0.708422
0.723998
0.739593
0.755201
0.770817
0.786435
0.802048
0.817651
0.833238
0.848801
0.864332
0.879826
0.895272
0.910665
0.925993
0.94125
0.956424
0.971506
0.986486
1.00135
1.01609
1.0307
1.04515
1.05944
1.07356
1.08748
1.1012
1.1147
1.12797
1.14099
1.15374
1.1662
1.17836
1.19021
1.20172
1.21288
1.22366
1.23406
1.24405
1.25361
1.26274
1.2714
1.27959
1.28728
1.29447
1.30113
1.30726
1.31284
1.31786
1.3223
1.32616
1.32943
1.33211
1.33418
1.33565
1.33651
1.33677
1.33642
1.33547
1.33392
1.33178
1.32905
1.32574
1.32185
1.31741
1.3124
1.30684
1.30074
1.29409
1.28688
1.27919
1.27104
1.26163
1.25031
0.0780101
0.0670956
0.0580627
0.0502645
0.0429253
0.0360789
0.0297705
0.0239891
0.0187248
0.0139726
0.00972877
0.00598993
0.00275307
1.54743e-05
-0.00222546
-0.00397244
-0.00522835
-0.00599637
-0.00628
-0.00608314
-0.00541009
-0.00426562
-0.00265495
-0.000583684
0.00194207
0.00491584
0.00833074
0.0121795
0.0164546
0.0211481
0.0262517
0.0317572
0.0376558
0.0439388
0.050597
0.0576214
0.0650028
0.0727317
0.0807989
0.089195
0.0979105
0.106936
0.116262
0.12588
0.13578
0.145954
0.156391
0.167084
0.178023
0.189201
0.200608
0.212236
0.224077
0.236124
0.248368
0.260802
0.273419
0.286211
0.299172
0.312295
0.325573
0.339
0.35257
0.366276
0.380114
0.394076
0.408159
0.422356
0.436663
0.451075
0.465586
0.480191
0.494888
0.509669
0.524532
0.539472
0.554484
0.569565
0.584709
0.599913
0.615172
0.630482
0.645838
0.661237
0.676673
0.692143
0.70764
0.723162
0.738702
0.754255
0.769816
0.78538
0.80094
0.816491
0.832026
0.847539
0.863022
0.878468
0.89387
0.909219
0.924507
0.939725
0.954865
0.969915
0.984866
0.999707
1.01443
1.02901
1.04346
1.05774
1.07185
1.08578
1.09951
1.11303
1.12632
1.13936
1.15214
1.16464
1.17685
1.18875
1.20032
1.21154
1.2224
1.23287
1.24294
1.2526
1.26181
1.27057
1.27886
1.28666
1.29395
1.30073
1.30696
1.31265
1.31777
1.32232
1.32628
1.32965
1.33241
1.33456
1.33609
1.33701
1.3373
1.33697
1.33602
1.33445
1.33226
1.32946
1.32605
1.32203
1.31742
1.31221
1.30641
1.30003
1.29306
1.2855
1.2774
1.26881
1.25888
1.24692
0.0805427
0.0690402
0.0595298
0.0513311
0.0436268
0.0364522
0.0298546
0.0238212
0.01834
0.0134041
0.00900757
0.00514478
0.00181045
-0.00100046
-0.00329282
-0.00507163
-0.00634183
-0.00710874
-0.00737774
-0.0071546
-0.00644535
-0.00525633
-0.00359422
-0.00146599
0.00112102
0.00415921
0.00764071
0.0115574
0.0159007
0.0206623
0.0258331
0.0314044
0.037367
0.0437116
0.0504289
0.0575095
0.0649441
0.0727229
0.0808367
0.0892758
0.0980308
0.107092
0.116451
0.126098
0.136023
0.146218
0.156674
0.167382
0.178333
0.189518
0.200931
0.212561
0.224402
0.236445
0.248683
0.261109
0.273714
0.286493
0.299438
0.312543
0.3258
0.339205
0.35275
0.36643
0.380239
0.394172
0.408223
0.422387
0.436659
0.451034
0.465507
0.480074
0.49473
0.50947
0.52429
0.539186
0.554153
0.569187
0.584284
0.59944
0.614651
0.629912
0.645219
0.660567
0.675953
0.691372
0.706819
0.72229
0.737779
0.753283
0.768794
0.784309
0.799821
0.815325
0.830815
0.846283
0.861724
0.877129
0.892493
0.907806
0.923061
0.938249
0.953362
0.968388
0.98332
0.998146
1.01285
1.02744
1.04188
1.05616
1.07029
1.08423
1.09798
1.11152
1.12484
1.13793
1.15075
1.16331
1.17558
1.18755
1.19919
1.21049
1.22143
1.232
1.24217
1.25193
1.26125
1.27012
1.27853
1.28645
1.29386
1.30076
1.30712
1.31293
1.31817
1.32283
1.3269
1.33037
1.33322
1.33546
1.33707
1.33804
1.33838
1.33807
1.33712
1.33553
1.3333
1.33043
1.32691
1.32277
1.31799
1.31258
1.30655
1.29989
1.2926
1.28469
1.2762
1.26718
1.25675
1.24417
0.0824303
0.0703596
0.0603862
0.051798
0.0437373
0.0362415
0.0293598
0.0230781
0.0173825
0.0122645
0.00771632
0.00373022
0.000298826
-0.002585
-0.00492828
-0.00673802
-0.00802131
-0.00878533
-0.00903739
-0.00878502
-0.00803595
-0.00679808
-0.00507955
-0.00288872
-0.000234133
0.00287545
0.00643112
0.0104238
0.0148441
0.0196829
0.0249306
0.0305777
0.0366146
0.0430315
0.0498189
0.056967
0.064466
0.0723062