/*--------------------------------*- C++ -*----------------------------------*\
  =========                 |
  \\      /  F ield         | OpenFOAM: The Open Source CFD Toolbox
   \\    /   O peration     | Website:  https://openfoam.org
    \\  /    A nd           | Version:  7
     \\/     M anipulation  |
\*---------------------------------------------------------------------------*/
FoamFile
{
    version     2.0;
    format      ascii;
    class       volVectorField;
    location    "0.1";
    object      U;
}
// * * * * * * * * * * * * * * * * * * * * * * * * * * * * * * * * * * * * * //

dimensions      [0 1 -1 0 0 0 0];

internalField   nonuniform List<vector> 
12800
(
(8.32461e-06 -8.31871e-06 0)
(3.70752e-05 -1.8527e-05 0)
(7.85018e-05 -1.97017e-05 0)
(0.000113191 -1.53444e-05 0)
(0.000129913 -8.30313e-06 0)
(0.000123782 -1.32032e-07 0)
(9.26556e-05 8.34862e-06 0)
(3.59204e-05 1.6699e-05 0)
(-4.60661e-05 2.46855e-05 0)
(-0.000152356 3.21894e-05 0)
(-0.000281652 3.91518e-05 0)
(-0.000432446 4.55473e-05 0)
(-0.000603118 5.13706e-05 0)
(-0.000791991 5.66283e-05 0)
(-0.000997374 6.13337e-05 0)
(-0.00121759 6.5506e-05 0)
(-0.001451 6.91668e-05 0)
(-0.00169601 7.23398e-05 0)
(-0.00195109 7.50496e-05 0)
(-0.00221476 7.7322e-05 0)
(-0.00248563 7.91821e-05 0)
(-0.00276237 8.06548e-05 0)
(-0.00304373 8.17664e-05 0)
(-0.00332854 8.25417e-05 0)
(-0.00361571 8.30041e-05 0)
(-0.0039042 8.31781e-05 0)
(-0.00419307 8.30869e-05 0)
(-0.00448145 8.27524e-05 0)
(-0.00476854 8.21963e-05 0)
(-0.00505359 8.1439e-05 0)
(-0.00533594 8.05001e-05 0)
(-0.00561499 7.93983e-05 0)
(-0.00589018 7.81518e-05 0)
(-0.00616105 7.67775e-05 0)
(-0.00642716 7.52914e-05 0)
(-0.00668813 7.37082e-05 0)
(-0.00694363 7.20423e-05 0)
(-0.00719339 7.03067e-05 0)
(-0.00743717 6.85138e-05 0)
(-0.00767478 6.6675e-05 0)
(-0.00790606 6.48007e-05 0)
(-0.00813088 6.29006e-05 0)
(-0.00834916 6.09842e-05 0)
(-0.00856084 5.90594e-05 0)
(-0.00876588 5.71331e-05 0)
(-0.00896429 5.52121e-05 0)
(-0.00915607 5.33024e-05 0)
(-0.00934126 5.14095e-05 0)
(-0.00951991 4.95382e-05 0)
(-0.0096921 4.76926e-05 0)
(-0.00985791 4.58762e-05 0)
(-0.0100174 4.4092e-05 0)
(-0.0101708 4.23424e-05 0)
(-0.010318 4.06294e-05 0)
(-0.0104594 3.89545e-05 0)
(-0.0105949 3.7319e-05 0)
(-0.0107247 3.57237e-05 0)
(-0.0108489 3.41691e-05 0)
(-0.0109678 3.26553e-05 0)
(-0.0110813 3.1182e-05 0)
(-0.0111897 2.97487e-05 0)
(-0.011293 2.83545e-05 0)
(-0.0113915 2.69981e-05 0)
(-0.0114852 2.56787e-05 0)
(-0.0115742 2.43946e-05 0)
(-0.0116587 2.3144e-05 0)
(-0.0117388 2.1925e-05 0)
(-0.0118146 2.07356e-05 0)
(-0.0118861 1.95734e-05 0)
(-0.0119535 1.84361e-05 0)
(-0.0120168 1.7321e-05 0)
(-0.0120762 1.62255e-05 0)
(-0.0121316 1.51469e-05 0)
(-0.0121831 1.40824e-05 0)
(-0.0122308 1.30288e-05 0)
(-0.0122747 1.1983e-05 0)
(-0.0123148 1.09417e-05 0)
(-0.0123511 9.9016e-06 0)
(-0.0123836 8.85958e-06 0)
(-0.0124124 7.81247e-06 0)
(-0.0124373 6.75682e-06 0)
(-0.0124584 5.68896e-06 0)
(-0.0124755 4.6053e-06 0)
(-0.0124887 3.50239e-06 0)
(-0.0124979 2.3768e-06 0)
(-0.0125029 1.22498e-06 0)
(-0.0125038 4.33239e-08 0)
(-0.0125003 -1.17161e-06 0)
(-0.0124923 -2.42307e-06 0)
(-0.0124798 -3.71435e-06 0)
(-0.0124626 -5.04895e-06 0)
(-0.0124405 -6.4302e-06 0)
(-0.0124134 -7.86107e-06 0)
(-0.012381 -9.34437e-06 0)
(-0.0123433 -1.08829e-05 0)
(-0.0123 -1.24794e-05 0)
(-0.0122509 -1.41363e-05 0)
(-0.0121958 -1.58559e-05 0)
(-0.0121345 -1.76402e-05 0)
(-0.0120668 -1.94909e-05 0)
(-0.0119925 -2.14093e-05 0)
(-0.0119112 -2.33965e-05 0)
(-0.0118229 -2.54531e-05 0)
(-0.0117272 -2.75791e-05 0)
(-0.011624 -2.97742e-05 0)
(-0.011513 -3.20374e-05 0)
(-0.0113939 -3.43677e-05 0)
(-0.0112667 -3.67631e-05 0)
(-0.011131 -3.92208e-05 0)
(-0.0109867 -4.17375e-05 0)
(-0.0108335 -4.43091e-05 0)
(-0.0106714 -4.69313e-05 0)
(-0.0105002 -4.95988e-05 0)
(-0.0103197 -5.2305e-05 0)
(-0.0101299 -5.50426e-05 0)
(-0.0099306 -5.78031e-05 0)
(-0.00972185 -6.05774e-05 0)
(-0.00950361 -6.33555e-05 0)
(-0.0092759 -6.61266e-05 0)
(-0.0090388 -6.88785e-05 0)
(-0.0087924 -7.15978e-05 0)
(-0.00853687 -7.42702e-05 0)
(-0.00827241 -7.68804e-05 0)
(-0.00799927 -7.94123e-05 0)
(-0.00771779 -8.18487e-05 0)
(-0.00742833 -8.41713e-05 0)
(-0.00713133 -8.63609e-05 0)
(-0.00682731 -8.8397e-05 0)
(-0.00651684 -9.02582e-05 0)
(-0.00620057 -9.19225e-05 0)
(-0.00587922 -9.3367e-05 0)
(-0.00555361 -9.45684e-05 0)
(-0.00522459 -9.55029e-05 0)
(-0.00489315 -9.61453e-05 0)
(-0.00456031 -9.64703e-05 0)
(-0.0042272 -9.64522e-05 0)
(-0.00389503 -9.60655e-05 0)
(-0.00356509 -9.52844e-05 0)
(-0.00323875 -9.40829e-05 0)
(-0.00291745 -9.24348e-05 0)
(-0.00260273 -9.0314e-05 0)
(-0.0022962 -8.76951e-05 0)
(-0.00199953 -8.45533e-05 0)
(-0.00171445 -8.08648e-05 0)
(-0.00144278 -7.66066e-05 0)
(-0.00118637 -7.17573e-05 0)
(-0.000947107 -6.62977e-05 0)
(-0.000726913 -6.02111e-05 0)
(-0.000527707 -5.34857e-05 0)
(-0.000351381 -4.61177e-05 0)
(-0.00019976 -3.81157e-05 0)
(-7.45323e-05 -2.95081e-05 0)
(2.28441e-05 -2.03585e-05 0)
(9.12961e-05 -1.07954e-05 0)
(0.000130394 -1.06911e-06 0)
(0.000140771 8.34168e-06 0)
(0.000124739 1.65344e-05 0)
(8.76594e-05 2.17768e-05 0)
(4.20197e-05 2.08489e-05 0)
(9.62892e-06 9.62774e-06 0)
(1.85465e-05 -3.70703e-05 0)
(7.03229e-05 -7.02586e-05 0)
(0.000131979 -6.77117e-05 0)
(0.000170036 -4.2045e-05 0)
(0.000163222 -3.11616e-06 0)
(0.000100105 4.27426e-05 0)
(-2.55739e-05 9.15655e-05 0)
(-0.000216551 0.000140872 0)
(-0.000473037 0.000189116 0)
(-0.000793526 0.000235338 0)
(-0.00117538 0.000278945 0)
(-0.0016152 0.000319585 0)
(-0.00210912 0.00035706 0)
(-0.00265299 0.000391281 0)
(-0.0032425 0.000422231 0)
(-0.0038733 0.000449945 0)
(-0.00454105 0.000474493 0)
(-0.0052415 0.000495973 0)
(-0.00597049 0.000514502 0)
(-0.00672403 0.000530207 0)
(-0.00749826 0.000543227 0)
(-0.00828954 0.000553704 0)
(-0.00909437 0.000561787 0)
(-0.00990948 0.000567622 0)
(-0.0107318 0.000571359 0)
(-0.0115584 0.000573143 0)
(-0.0123866 0.00057312 0)
(-0.013214 0.00057143 0)
(-0.0140382 0.000568212 0)
(-0.0148571 0.0005636 0)
(-0.0156688 0.000557722 0)
(-0.0164716 0.000550701 0)
(-0.0172639 0.000542655 0)
(-0.0180442 0.000533698 0)
(-0.0188113 0.000523937 0)
(-0.0195642 0.000513473 0)
(-0.0203017 0.000502402 0)
(-0.0210232 0.000490814 0)
(-0.0217279 0.000478792 0)
(-0.0224151 0.000466416 0)
(-0.0230845 0.000453758 0)
(-0.0237355 0.000440886 0)
(-0.024368 0.000427862 0)
(-0.0249818 0.000414742 0)
(-0.0255766 0.00040158 0)
(-0.0261526 0.000388422 0)
(-0.0267095 0.00037531 0)
(-0.0272477 0.000362282 0)
(-0.0277671 0.000349372 0)
(-0.0282679 0.00033661 0)
(-0.0287504 0.000324022 0)
(-0.0292148 0.00031163 0)
(-0.0296614 0.000299453 0)
(-0.0300904 0.000287506 0)
(-0.0305023 0.000275802 0)
(-0.0308974 0.000264349 0)
(-0.0312759 0.000253155 0)
(-0.0316383 0.000242224 0)
(-0.031985 0.000231557 0)
(-0.0323163 0.000221154 0)
(-0.0326326 0.000211013 0)
(-0.0329342 0.000201128 0)
(-0.0332215 0.000191494 0)
(-0.0334949 0.000182102 0)
(-0.0337547 0.000172943 0)
(-0.0340012 0.000164006 0)
(-0.0342347 0.000155277 0)
(-0.0344555 0.000146745 0)
(-0.0346639 0.000138392 0)
(-0.0348601 0.000130204 0)
(-0.0350443 0.000122163 0)
(-0.0352167 0.000114252 0)
(-0.0353776 0.000106451 0)
(-0.0355269 9.87421e-05 0)
(-0.035665 9.1104e-05 0)
(-0.0357917 8.35158e-05 0)
(-0.0359073 7.59561e-05 0)
(-0.0360117 6.84029e-05 0)
(-0.0361048 6.08339e-05 0)
(-0.0361868 5.32267e-05 0)
(-0.0362574 4.55582e-05 0)
(-0.0363166 3.78052e-05 0)
(-0.0363643 2.99437e-05 0)
(-0.0364003 2.19502e-05 0)
(-0.0364243 1.38011e-05 0)
(-0.0364361 5.47297e-06 0)
(-0.0364355 -3.05742e-06 0)
(-0.0364222 -1.18132e-05 0)
(-0.0363957 -2.08172e-05 0)
(-0.0363558 -3.00914e-05 0)
(-0.0363021 -3.96576e-05 0)
(-0.036234 -4.95369e-05 0)
(-0.0361512 -5.97495e-05 0)
(-0.0360531 -7.03146e-05 0)
(-0.0359393 -8.12503e-05 0)
(-0.0358092 -9.25736e-05 0)
(-0.0356622 -0.0001043 0)
(-0.0354978 -0.000116443 0)
(-0.0353154 -0.000129014 0)
(-0.0351143 -0.000142023 0)
(-0.0348939 -0.000155479 0)
(-0.0346536 -0.000169385 0)
(-0.0343928 -0.000183745 0)
(-0.0341108 -0.000198557 0)
(-0.033807 -0.000213818 0)
(-0.0334808 -0.000229519 0)
(-0.0331316 -0.000245651 0)
(-0.0327587 -0.000262197 0)
(-0.0323616 -0.000279138 0)
(-0.0319398 -0.000296449 0)
(-0.0314929 -0.000314102 0)
(-0.0310203 -0.000332062 0)
(-0.0305216 -0.000350291 0)
(-0.0299966 -0.000368743 0)
(-0.029445 -0.000387367 0)
(-0.0288667 -0.000406105 0)
(-0.0282614 -0.000424893 0)
(-0.0276293 -0.000443662 0)
(-0.0269705 -0.000462337 0)
(-0.0262851 -0.000480833 0)
(-0.0255735 -0.000499061 0)
(-0.0248363 -0.000516925 0)
(-0.024074 -0.00053432 0)
(-0.0232874 -0.000551136 0)
(-0.0224775 -0.000567259 0)
(-0.0216454 -0.000582564 0)
(-0.0207923 -0.000596923 0)
(-0.0199198 -0.000610201 0)
(-0.0190294 -0.000622258 0)
(-0.0181232 -0.000632949 0)
(-0.0172032 -0.000642123 0)
(-0.0162716 -0.000649629 0)
(-0.0153309 -0.000655308 0)
(-0.014384 -0.000659003 0)
(-0.0134337 -0.000660552 0)
(-0.0124832 -0.000659793 0)
(-0.011536 -0.000656564 0)
(-0.0105956 -0.000650704 0)
(-0.00966581 -0.000642057 0)
(-0.00875077 -0.000630467 0)
(-0.00785466 -0.000615786 0)
(-0.00698193 -0.000597871 0)
(-0.00613716 -0.000576591 0)
(-0.00532511 -0.000551827 0)
(-0.00455064 -0.000523476 0)
(-0.00381873 -0.000491457 0)
(-0.00313437 -0.00045572 0)
(-0.00250256 -0.000416251 0)
(-0.00192821 -0.000373093 0)
(-0.00141602 -0.000326367 0)
(-0.000970374 -0.000276305 0)
(-0.000595077 -0.000223306 0)
(-0.000293112 -0.000168026 0)
(-6.61968e-05 -0.000111518 0)
(8.58437e-05 -5.54767e-05 0)
(0.000165977 -2.63278e-06 0)
(0.000181086 4.26137e-05 0)
(0.000143828 7.31751e-05 0)
(7.79126e-05 7.78829e-05 0)
(2.08471e-05 4.20049e-05 0)
(1.97955e-05 -7.85875e-05 0)
(6.80642e-05 -0.000132006 0)
(0.000111108 -0.000110572 0)
(0.00011025 -3.93654e-05 0)
(4.02407e-05 6.30362e-05 0)
(-0.000113773 0.00018342 0)
(-0.000360684 0.000312643 0)
(-0.000704886 0.0004445 0)
(-0.00114732 0.000574814 0)
(-0.00168644 0.000700793 0)
(-0.00231889 0.000820589 0)
(-0.0030401 0.000933006 0)
(-0.00384463 0.00103731 0)
(-0.00472651 0.00113307 0)
(-0.00567943 0.00122012 0)
(-0.0066969 0.00129843 0)
(-0.00777239 0.00136811 0)
(-0.00889945 0.00142935 0)
(-0.0100717 0.00148242 0)
(-0.011283 0.00152762 0)
(-0.0125274 0.0015653 0)
(-0.0137992 0.00159583 0)
(-0.0150928 0.00161959 0)
(-0.0164033 0.00163698 0)
(-0.0177256 0.0016484 0)
(-0.0190553 0.00165424 0)
(-0.020388 0.00165491 0)
(-0.0217199 0.0016508 0)
(-0.0230471 0.00164228 0)
(-0.0243665 0.00162974 0)
(-0.0256747 0.00161353 0)
(-0.0269692 0.00159399 0)
(-0.0282472 0.00157148 0)
(-0.0295065 0.00154629 0)
(-0.0307451 0.00151875 0)
(-0.0319612 0.00148913 0)
(-0.0331531 0.00145772 0)
(-0.0343195 0.00142477 0)
(-0.0354592 0.00139052 0)
(-0.0365712 0.00135519 0)
(-0.0376547 0.00131901 0)
(-0.0387091 0.00128215 0)
(-0.0397338 0.00124481 0)
(-0.0407285 0.00120715 0)
(-0.041693 0.00116931 0)
(-0.0426271 0.00113145 0)
(-0.0435309 0.00109367 0)
(-0.0444043 0.0010561 0)
(-0.0452477 0.00101883 0)
(-0.0460612 0.000981944 0)
(-0.0468451 0.000945526 0)
(-0.0475998 0.00090964 0)
(-0.0483258 0.000874341 0)
(-0.0490235 0.000839675 0)
(-0.0496934 0.000805681 0)
(-0.050336 0.000772387 0)
(-0.0509519 0.000739814 0)
(-0.0515417 0.000707976 0)
(-0.0521059 0.000676879 0)
(-0.0526451 0.000646523 0)
(-0.0531599 0.000616902 0)
(-0.0536508 0.000588005 0)
(-0.0541185 0.000559814 0)
(-0.0545634 0.000532307 0)
(-0.0549861 0.000505457 0)
(-0.0553872 0.000479234 0)
(-0.055767 0.000453602 0)
(-0.056126 0.000428522 0)
(-0.0564646 0.000403953 0)
(-0.0567833 0.000379849 0)
(-0.0570824 0.000356161 0)
(-0.0573621 0.000332839 0)
(-0.0576228 0.000309829 0)
(-0.0578647 0.000287076 0)
(-0.0580879 0.000264522 0)
(-0.0582926 0.000242107 0)
(-0.0584789 0.000219771 0)
(-0.0586468 0.00019745 0)
(-0.0587962 0.00017508 0)
(-0.0589272 0.000152598 0)
(-0.0590396 0.000129936 0)
(-0.0591332 0.00010703 0)
(-0.0592078 8.38111e-05 0)
(-0.0592631 6.02126e-05 0)
(-0.0592989 3.61671e-05 0)
(-0.0593146 1.16081e-05 0)
(-0.0593099 -1.35305e-05 0)
(-0.0592843 -3.93141e-05 0)
(-0.0592373 -6.58072e-05 0)
(-0.0591682 -9.30729e-05 0)
(-0.0590765 -0.000121172 0)
(-0.0589614 -0.000150164 0)
(-0.0588222 -0.000180105 0)
(-0.0586581 -0.00021105 0)
(-0.0584683 -0.000243048 0)
(-0.0582521 -0.000276147 0)
(-0.0580084 -0.000310389 0)
(-0.0577363 -0.000345811 0)
(-0.057435 -0.000382446 0)
(-0.0571035 -0.00042032 0)
(-0.0567407 -0.000459451 0)
(-0.0563457 -0.000499852 0)
(-0.0559175 -0.000541527 0)
(-0.0554552 -0.000584472 0)
(-0.0549576 -0.000628672 0)
(-0.0544239 -0.000674104 0)
(-0.053853 -0.000720733 0)
(-0.0532442 -0.000768513 0)
(-0.0525965 -0.000817383 0)
(-0.0519092 -0.000867274 0)
(-0.0511814 -0.000918097 0)
(-0.0504126 -0.000969754 0)
(-0.0496021 -0.00102213 0)
(-0.0487494 -0.00107509 0)
(-0.0478542 -0.00112848 0)
(-0.0469163 -0.00118215 0)
(-0.0459356 -0.00123591 0)
(-0.044912 -0.00128955 0)
(-0.0438459 -0.00134285 0)
(-0.0427377 -0.00139559 0)
(-0.0415879 -0.00144749 0)
(-0.0403974 -0.00149828 0)
(-0.0391672 -0.00154767 0)
(-0.0378986 -0.00159535 0)
(-0.0365932 -0.00164098 0)
(-0.0352527 -0.00168421 0)
(-0.0338793 -0.00172468 0)
(-0.0324754 -0.00176201 0)
(-0.0310437 -0.00179579 0)
(-0.029587 -0.00182563 0)
(-0.0281089 -0.0018511 0)
(-0.026613 -0.00187176 0)
(-0.0251032 -0.0018872 0)
(-0.023584 -0.00189695 0)
(-0.0220599 -0.00190057 0)
(-0.0205361 -0.00189762 0)
(-0.0190178 -0.00188766 0)
(-0.0175109 -0.00187024 0)
(-0.0160213 -0.00184494 0)
(-0.0145553 -0.00181135 0)
(-0.0131196 -0.00176908 0)
(-0.0117211 -0.00171777 0)
(-0.0103668 -0.00165709 0)
(-0.00906411 -0.00158676 0)
(-0.00782049 -0.00150656 0)
(-0.00664348 -0.00141635 0)
(-0.00554062 -0.00131608 0)
(-0.00451936 -0.00120584 0)
(-0.00358691 -0.00108591 0)
(-0.00275007 -0.000956798 0)
(-0.00201497 -0.000819374 0)
(-0.00138679 -0.000674987 0)
(-0.0008693 -0.000525693 0)
(-0.000464287 -0.000374581 0)
(-0.000170756 -0.000226261 0)
(1.61203e-05 -8.76018e-05 0)
(0.000106178 3.12218e-05 0)
(0.00011593 0.000115392 0)
(7.34669e-05 0.000143867 0)
(2.18276e-05 8.76838e-05 0)
(1.5568e-05 -0.000113596 0)
(4.28764e-05 -0.000170531 0)
(4.08003e-05 -0.00010992 0)
(-2.8256e-05 2.98634e-05 0)
(-0.000189975 0.000221287 0)
(-0.00046054 0.000443923 0)
(-0.000850019 0.000682908 0)
(-0.00136364 0.000927657 0)
(-0.00200277 0.0011707 0)
(-0.00276583 0.00140682 0)
(-0.00364902 0.00163241 0)
(-0.00464694 0.00184502 0)
(-0.00575305 0.00204306 0)
(-0.00695998 0.00222557 0)
(-0.00825986 0.00239203 0)
(-0.00964453 0.00254225 0)
(-0.0111057 0.00267633 0)
(-0.012635 0.00279453 0)
(-0.0142244 0.00289725 0)
(-0.0158657 0.00298504 0)
(-0.0175511 0.00305847 0)
(-0.0192733 0.00311822 0)
(-0.0210251 0.00316497 0)
(-0.0227995 0.00319946 0)
(-0.0245903 0.00322242 0)
(-0.0263912 0.0032346 0)
(-0.0281966 0.00323674 0)
(-0.0300012 0.00322958 0)
(-0.0318001 0.00321386 0)
(-0.0335887 0.00319027 0)
(-0.035363 0.00315951 0)
(-0.0371189 0.00312224 0)
(-0.0388532 0.00307911 0)
(-0.0405627 0.00303073 0)
(-0.0422446 0.0029777 0)
(-0.0438965 0.00292057 0)
(-0.0455161 0.00285987 0)
(-0.0471016 0.0027961 0)
(-0.0486513 0.00272973 0)
(-0.050164 0.0026612 0)
(-0.0516383 0.00259092 0)
(-0.0530735 0.00251928 0)
(-0.0544688 0.00244662 0)
(-0.0558236 0.00237327 0)
(-0.0571377 0.00229953 0)
(-0.0584108 0.00222566 0)
(-0.0596429 0.00215191 0)
(-0.060834 0.0020785 0)
(-0.0619844 0.00200563 0)
(-0.0630943 0.00193346 0)
(-0.0641641 0.00186216 0)
(-0.0651944 0.00179185 0)
(-0.0661856 0.00172264 0)
(-0.0671384 0.00165463 0)
(-0.0680534 0.00158789 0)
(-0.0689313 0.00152248 0)
(-0.0697728 0.00145845 0)
(-0.0705786 0.00139581 0)
(-0.0713496 0.0013346 0)
(-0.0720865 0.00127481 0)
(-0.0727901 0.00121642 0)
(-0.073461 0.00115943 0)
(-0.0741001 0.00110379 0)
(-0.074708 0.00104947 0)
(-0.0752856 0.000996411 0)
(-0.0758333 0.000944558 0)
(-0.0763519 0.000893843 0)
(-0.0768421 0.000844193 0)
(-0.0773042 0.000795524 0)
(-0.0777389 0.000747752 0)
(-0.0781465 0.000700781 0)
(-0.0785276 0.000654513 0)
(-0.0788825 0.000608846 0)
(-0.0792114 0.000563671 0)
(-0.0795145 0.000518877 0)
(-0.0797922 0.000474348 0)
(-0.0800444 0.000429966 0)
(-0.0802713 0.00038561 0)
(-0.0804727 0.000341156 0)
(-0.0806487 0.000296479 0)
(-0.080799 0.00025145 0)
(-0.0809234 0.000205942 0)
(-0.0810216 0.000159824 0)
(-0.0810932 0.000112967 0)
(-0.0811378 6.52405e-05 0)
(-0.081155 1.65162e-05 0)
(-0.081144 -3.33337e-05 0)
(-0.0811042 -8.44357e-05 0)
(-0.081035 -0.000136914 0)
(-0.0809355 -0.000190889 0)
(-0.0808048 -0.000246479 0)
(-0.0806422 -0.000303796 0)
(-0.0804465 -0.000362951 0)
(-0.0802168 -0.000424045 0)
(-0.0799519 -0.000487174 0)
(-0.0796508 -0.000552428 0)
(-0.0793122 -0.000619885 0)
(-0.078935 -0.000689617 0)
(-0.0785179 -0.000761682 0)
(-0.0780596 -0.00083613 0)
(-0.0775588 -0.000912994 0)
(-0.0770142 -0.000992294 0)
(-0.0764245 -0.00107404 0)
(-0.0757884 -0.00115821 0)
(-0.0751046 -0.00124478 0)
(-0.0743718 -0.0013337 0)
(-0.0735888 -0.0014249 0)
(-0.0727544 -0.00151828 0)
(-0.0718675 -0.00161373 0)
(-0.070927 -0.0017111 0)
(-0.0699319 -0.00181022 0)
(-0.0688815 -0.00191089 0)
(-0.0677749 -0.0020129 0)
(-0.0666117 -0.00211596 0)
(-0.0653913 -0.00221981 0)
(-0.0641134 -0.0023241 0)
(-0.062778 -0.00242848 0)
(-0.0613852 -0.00253256 0)
(-0.0599354 -0.00263591 0)
(-0.0584292 -0.00273807 0)
(-0.0568674 -0.00283853 0)
(-0.0552511 -0.00293676 0)
(-0.0535819 -0.00303218 0)
(-0.0518615 -0.00312419 0)
(-0.0500921 -0.00321215 0)
(-0.048276 -0.00329539 0)
(-0.0464161 -0.0033732 0)
(-0.0445158 -0.00344484 0)
(-0.0425786 -0.00350955 0)
(-0.0406085 -0.00356656 0)
(-0.0386102 -0.00361506 0)
(-0.0365884 -0.00365422 0)
(-0.0345486 -0.00368321 0)
(-0.0324965 -0.00370118 0)
(-0.0304385 -0.0037073 0)
(-0.0283812 -0.00370072 0)
(-0.0263317 -0.00368061 0)
(-0.0242976 -0.00364615 0)
(-0.0222868 -0.00359656 0)
(-0.0203078 -0.00353108 0)
(-0.0183691 -0.00344901 0)
(-0.0164799 -0.00334971 0)
(-0.0146494 -0.00323261 0)
(-0.0128871 -0.00309725 0)
(-0.0112026 -0.00294331 0)
(-0.00960569 -0.00277062 0)
(-0.00810591 -0.00257922 0)
(-0.00671268 -0.00236945 0)
(-0.00543502 -0.00214199 0)
(-0.00428127 -0.00189804 0)
(-0.00325889 -0.00163945 0)
(-0.00237396 -0.00136898 0)
(-0.00163077 -0.00109066 0)
(-0.00103112 -0.000810299 0)
(-0.000573534 -0.000536159 0)
(-0.000252231 -0.000279985 0)
(-5.60381e-05 -5.83314e-05 0)
(3.30518e-05 0.000105912 0)
(4.34946e-05 0.000181654 0)
(1.6717e-05 0.00012503 0)
(8.68497e-06 -0.000130947 0)
(4.45473e-06 -0.000164628 0)
(-6.08094e-05 -4.05034e-05 0)
(-0.000218803 0.000191413 0)
(-0.000493014 0.000495286 0)
(-0.000899418 0.000843878 0)
(-0.00144807 0.00121674 0)
(-0.00214423 0.0015988 0)
(-0.00298921 0.00197908 0)
(-0.00398122 0.00234962 0)
(-0.00511605 0.00270475 0)
(-0.00638762 0.00304051 0)
(-0.00778848 0.0033542 0)
(-0.0093102 0.0036441 0)
(-0.0109437 0.00390921 0)
(-0.0126794 0.00414908 0)
(-0.0145075 0.00436368 0)
(-0.0164183 0.00455331 0)
(-0.018402 0.00471853 0)
(-0.0204491 0.00486005 0)
(-0.0225501 0.00497875 0)
(-0.024696 0.00507563 0)
(-0.0268782 0.00515173 0)
(-0.0290885 0.00520816 0)
(-0.0313188 0.00524608 0)
(-0.0335619 0.00526663 0)
(-0.0358108 0.005271 0)
(-0.038059 0.00526035 0)
(-0.0403003 0.00523581 0)
(-0.0425293 0.00519852 0)
(-0.0447407 0.00514958 0)
(-0.0469299 0.00509005 0)
(-0.0490926 0.00502096 0)
(-0.0512249 0.0049433 0)
(-0.0533233 0.00485801 0)
(-0.0553847 0.004766 0)
(-0.0574065 0.00466811 0)
(-0.0593861 0.00456517 0)
(-0.0613217 0.00445791 0)
(-0.0632114 0.00434707 0)
(-0.0650539 0.00423331 0)
(-0.0668478 0.00411724 0)
(-0.0685923 0.00399943 0)
(-0.0702867 0.00388042 0)
(-0.0719305 0.00376069 0)
(-0.0735235 0.00364068 0)
(-0.0750655 0.00352078 0)
(-0.0765566 0.00340137 0)
(-0.0779969 0.00328275 0)
(-0.079387 0.00316522 0)
(-0.0807271 0.00304903 0)
(-0.0820179 0.00293438 0)
(-0.08326 0.00282147 0)
(-0.0844541 0.00271045 0)
(-0.085601 0.00260144 0)
(-0.0867015 0.00249455 0)
(-0.0877565 0.00238985 0)
(-0.0887669 0.00228738 0)
(-0.0897337 0.00218718 0)
(-0.0906577 0.00208925 0)
(-0.0915399 0.00199357 0)
(-0.0923811 0.00190012 0)
(-0.0931824 0.00180885 0)
(-0.0939445 0.00171968 0)
(-0.0946684 0.00163254 0)
(-0.0953549 0.00154734 0)
(-0.0960046 0.00146396 0)
(-0.0966185 0.0013823 0)
(-0.097197 0.00130221 0)
(-0.097741 0.00122356 0)
(-0.0982509 0.00114619 0)
(-0.0987272 0.00106996 0)
(-0.0991703 0.000994683 0)
(-0.0995807 0.000920198 0)
(-0.0999586 0.000846323 0)
(-0.100304 0.00077287 0)
(-0.100618 0.000699649 0)
(-0.100899 0.000626463 0)
(-0.101148 0.000553113 0)
(-0.101365 0.000479397 0)
(-0.10155 0.000405109 0)
(-0.101702 0.000330041 0)
(-0.10182 0.000253984 0)
(-0.101905 0.00017673 0)
(-0.101956 9.80691e-05 0)
(-0.101973 1.77942e-05 0)
(-0.101954 -6.43006e-05 0)
(-0.101898 -0.000148418 0)
(-0.101805 -0.000234758 0)
(-0.101675 -0.000323513 0)
(-0.101505 -0.000414872 0)
(-0.101295 -0.000509018 0)
(-0.101043 -0.000606123 0)
(-0.100748 -0.00070635 0)
(-0.10041 -0.000809853 0)
(-0.100026 -0.000916772 0)
(-0.099595 -0.00102723 0)
(-0.0991157 -0.00114134 0)
(-0.0985864 -0.0012592 0)
(-0.0980057 -0.00138088 0)
(-0.097372 -0.00150642 0)
(-0.0966836 -0.00163587 0)
(-0.0959389 -0.00176922 0)
(-0.0951364 -0.00190645 0)
(-0.0942745 -0.0020475 0)
(-0.0933517 -0.0021923 0)
(-0.0923664 -0.00234071 0)
(-0.0913173 -0.00249259 0)
(-0.090203 -0.00264773 0)
(-0.0890222 -0.00280591 0)
(-0.0877738 -0.00296683 0)
(-0.0864568 -0.00313019 0)
(-0.0850703 -0.00329559 0)
(-0.0836136 -0.00346263 0)
(-0.0820863 -0.00363082 0)
(-0.0804881 -0.00379963 0)
(-0.0788188 -0.00396849 0)
(-0.0770788 -0.00413676 0)
(-0.0752684 -0.00430374 0)
(-0.0733885 -0.00446868 0)
(-0.0714402 -0.00463077 0)
(-0.069425 -0.00478914 0)
(-0.0673446 -0.00494288 0)
(-0.0652014 -0.00509101 0)
(-0.062998 -0.00523249 0)
(-0.0607374 -0.00536624 0)
(-0.0584232 -0.00549113 0)
(-0.0560595 -0.00560599 0)
(-0.0536507 -0.00570959 0)
(-0.0512018 -0.00580069 0)
(-0.0487184 -0.005878 0)
(-0.0462066 -0.0059402 0)
(-0.0436728 -0.00598598 0)
(-0.0411244 -0.006014 0)
(-0.0385688 -0.00602292 0)
(-0.0360143 -0.00601142 0)
(-0.0334695 -0.00597819 0)
(-0.0309437 -0.00592197 0)
(-0.0284466 -0.00584154 0)
(-0.0259882 -0.00573573 0)
(-0.023579 -0.0056035 0)
(-0.02123 -0.00544388 0)
(-0.0189521 -0.00525607 0)
(-0.0167569 -0.00503943 0)
(-0.0146558 -0.00479356 0)
(-0.0126602 -0.00451833 0)
(-0.0107814 -0.00421399 0)
(-0.00903052 -0.00388123 0)
(-0.00741787 -0.00352137 0)
(-0.00595309 -0.00313648 0)
(-0.00464464 -0.00272971 0)
(-0.00349937 -0.00230556 0)
(-0.00252203 -0.00187038 0)
(-0.00171466 -0.00143302 0)
(-0.00107579 -0.0010057 0)
(-0.000599602 -0.000605119 0)
(-0.000274916 -0.000254058 0)
(-8.39666e-05 1.70335e-05 0)
(-9.01159e-07 0.000167858 0)
(8.72453e-06 0.000141732 0)
(6.60423e-07 -0.00012573 0)
(-4.10798e-05 -0.000102681 0)
(-0.000181049 0.00011294 0)
(-0.000441981 0.000462116 0)
(-0.000843264 0.000901904 0)
(-0.00139947 0.00139899 0)
(-0.00211968 0.00192777 0)
(-0.00300842 0.00246888 0)
(-0.00406649 0.00300781 0)
(-0.00529161 0.0035338 0)
(-0.00667899 0.00403895 0)
(-0.0082219 0.0045176 0)
(-0.00991211 0.00496581 0)
(-0.0117403 0.00538093 0)
(-0.0136962 0.00576136 0)
(-0.0157693 0.00610627 0)
(-0.0179485 0.00641545 0)
(-0.0202228 0.00668919 0)
(-0.0225812 0.00692812 0)
(-0.0250126 0.00713319 0)
(-0.0275064 0.00730554 0)
(-0.0300522 0.00744651 0)
(-0.0326402 0.00755754 0)
(-0.0352606 0.00764018 0)
(-0.0379045 0.00769602 0)
(-0.0405633 0.0077267 0)
(-0.0432287 0.00773388 0)
(-0.0458934 0.00771919 0)
(-0.0485501 0.00768428 0)
(-0.0511923 0.00763077 0)
(-0.0538141 0.00756023 0)
(-0.0564098 0.00747418 0)
(-0.0589745 0.00737412 0)
(-0.0615035 0.00726148 0)
(-0.0639928 0.00713761 0)
(-0.0664387 0.00700383 0)
(-0.068838 0.00686138 0)
(-0.0711878 0.00671143 0)
(-0.0734858 0.00655509 0)
(-0.0757297 0.00639339 0)
(-0.0779179 0.00622732 0)
(-0.080049 0.00605778 0)
(-0.0821218 0.0058856 0)
(-0.0841355 0.00571155 0)
(-0.0860895 0.00553636 0)
(-0.0879833 0.00536065 0)
(-0.0898169 0.00518503 0)
(-0.0915903 0.00501001 0)
(-0.0933037 0.00483608 0)
(-0.0949575 0.00466365 0)
(-0.0965521 0.0044931 0)
(-0.0980882 0.00432474 0)
(-0.0995666 0.00415885 0)
(-0.100988 0.00399565 0)
(-0.102353 0.00383534 0)
(-0.103664 0.00367806 0)
(-0.10492 0.00352393 0)
(-0.106123 0.00337302 0)
(-0.107274 0.00322537 0)
(-0.108375 0.00308099 0)
(-0.109425 0.00293988 0)
(-0.110427 0.00280198 0)
(-0.111381 0.00266722 0)
(-0.112288 0.00253552 0)
(-0.113149 0.00240675 0)
(-0.113966 0.00228078 0)
(-0.114739 0.00215746 0)
(-0.115469 0.00203662 0)
(-0.116157 0.00191806 0)
(-0.116803 0.00180158 0)
(-0.117409 0.00168697 0)
(-0.117974 0.00157399 0)
(-0.1185 0.0014624 0)
(-0.118986 0.00135195 0)
(-0.119433 0.00124238 0)
(-0.119842 0.00113342 0)
(-0.120212 0.00102479 0)
(-0.120543 0.00091621 0)
(-0.120836 0.000807381 0)
(-0.121091 0.000698012 0)
(-0.121306 0.000587805 0)
(-0.121482 0.000476458 0)
(-0.121618 0.000363667 0)
(-0.121714 0.000249131 0)
(-0.121769 0.000132545 0)
(-0.121783 1.36075e-05 0)
(-0.121754 -0.000107979 0)
(-0.121682 -0.000232508 0)
(-0.121565 -0.000360269 0)
(-0.121403 -0.000491541 0)
(-0.121193 -0.000626598 0)
(-0.120936 -0.000765701 0)
(-0.120629 -0.0009091 0)
(-0.120272 -0.00105703 0)
(-0.119861 -0.00120971 0)
(-0.119397 -0.00136734 0)
(-0.118877 -0.0015301 0)
(-0.118299 -0.00169814 0)
(-0.117662 -0.00187161 0)
(-0.116964 -0.00205059 0)
(-0.116203 -0.00223516 0)
(-0.115377 -0.00242536 0)
(-0.114485 -0.00262119 0)
(-0.113524 -0.00282261 0)
(-0.112492 -0.00302953 0)
(-0.111389 -0.00324182 0)
(-0.110212 -0.00345931 0)
(-0.108959 -0.00368175 0)
(-0.10763 -0.00390887 0)
(-0.106222 -0.0041403 0)
(-0.104735 -0.00437564 0)
(-0.103166 -0.0046144 0)
(-0.101516 -0.00485604 0)
(-0.0997835 -0.00509994 0)
(-0.0979677 -0.0053454 0)
(-0.0960685 -0.00559165 0)
(-0.094086 -0.00583783 0)
(-0.0920203 -0.00608303 0)
(-0.0898721 -0.00632622 0)
(-0.0876423 -0.00656631 0)
(-0.0853324 -0.00680212 0)
(-0.0829441 -0.0070324 0)
(-0.0804795 -0.00725581 0)
(-0.0779414 -0.00747092 0)
(-0.0753328 -0.00767624 0)
(-0.0726574 -0.00787021 0)
(-0.0699194 -0.00805119 0)
(-0.0671234 -0.00821748 0)
(-0.0642749 -0.00836733 0)
(-0.0613797 -0.00849891 0)
(-0.0584441 -0.0086104 0)
(-0.0554754 -0.00869991 0)
(-0.0524812 -0.00876554 0)
(-0.0494698 -0.00880538 0)
(-0.04645 -0.00881753 0)
(-0.0434315 -0.00880011 0)
(-0.0404242 -0.00875126 0)
(-0.0374388 -0.00866922 0)
(-0.0344864 -0.00855226 0)
(-0.0315787 -0.00839881 0)
(-0.0287278 -0.0082074 0)
(-0.0259461 -0.00797675 0)
(-0.0232464 -0.0077058 0)
(-0.0206415 -0.00739377 0)
(-0.0181445 -0.00704023 0)
(-0.0157684 -0.00664515 0)
(-0.0135259 -0.00620907 0)
(-0.0114292 -0.00573319 0)
(-0.00949009 -0.00521959 0)
(-0.00771914 -0.00467143 0)
(-0.00612571 -0.00409332 0)
(-0.00471741 -0.00349171 0)
(-0.0034996 -0.00287547 0)
(-0.00247485 -0.0022566 0)
(-0.00164225 -0.00165123 0)
(-0.00099677 -0.00108085 0)
(-0.000528307 -0.000573944 0)
(-0.00022069 -0.000167644 0)
(-5.27753e-05 8.99833e-05 0)
(-4.43452e-07 0.00013255 0)
(-7.72548e-06 -9.56603e-05 0)
(-8.9982e-05 2.20459e-05 0)
(-0.000311357 0.000360129 0)
(-0.000683995 0.000853238 0)
(-0.00122195 0.00145277 0)
(-0.00193748 0.0021203 0)
(-0.00283791 0.00282566 0)
(-0.00392643 0.00354558 0)
(-0.00520283 0.00426221 0)
(-0.00666401 0.00496203 0)
(-0.00830442 0.00563494 0)
(-0.0101166 0.00627349 0)
(-0.0120915 0.00687239 0)
(-0.014219 0.007428 0)
(-0.0164879 0.00793801 0)
(-0.0188866 0.00840115 0)
(-0.0214031 0.00881695 0)
(-0.0240252 0.00918564 0)
(-0.0267408 0.00950792 0)
(-0.0295377 0.00978492 0)
(-0.0324041 0.0100181 0)
(-0.0353285 0.0102091 0)
(-0.0382998 0.0103598 0)
(-0.0413073 0.0104721 0)
(-0.0443409 0.0105483 0)
(-0.0473908 0.0105905 0)
(-0.0504481 0.0106007 0)
(-0.0535041 0.0105813 0)
(-0.056551 0.0105344 0)
(-0.0595812 0.0104621 0)
(-0.062588 0.0103667 0)
(-0.0655651 0.01025 0)
(-0.0685067 0.0101143 0)
(-0.0714078 0.00996123 0)
(-0.0742635 0.00979283 0)
(-0.0770698 0.00961081 0)
(-0.0798229 0.00941686 0)
(-0.0825197 0.00921257 0)
(-0.0851573 0.00899945 0)
(-0.0877332 0.00877891 0)
(-0.0902456 0.00855229 0)
(-0.0926927 0.0083208 0)
(-0.0950732 0.00808559 0)
(-0.0973862 0.00784773 0)
(-0.0996308 0.00760818 0)
(-0.101807 0.00736783 0)
(-0.103914 0.00712749 0)
(-0.105952 0.00688787 0)
(-0.107921 0.00664964 0)
(-0.109822 0.00641336 0)
(-0.111656 0.00617956 0)
(-0.113422 0.00594866 0)
(-0.115122 0.00572105 0)
(-0.116757 0.00549705 0)
(-0.118327 0.00527692 0)
(-0.119834 0.00506086 0)
(-0.121279 0.00484903 0)
(-0.122663 0.00464154 0)
(-0.123987 0.00443844 0)
(-0.125252 0.00423978 0)
(-0.12646 0.00404551 0)
(-0.127612 0.00385559 0)
(-0.128709 0.00366992 0)
(-0.129752 0.00348837 0)
(-0.130742 0.00331081 0)
(-0.131681 0.00313703 0)
(-0.132569 0.00296684 0)
(-0.133408 0.0028 0)
(-0.134197 0.00263626 0)
(-0.134939 0.00247533 0)
(-0.135634 0.00231693 0)
(-0.136282 0.00216074 0)
(-0.136884 0.00200644 0)
(-0.13744 0.00185368 0)
(-0.137952 0.00170211 0)
(-0.138418 0.00155135 0)
(-0.13884 0.00140104 0)
(-0.139217 0.00125078 0)
(-0.13955 0.00110018 0)
(-0.139838 0.000948847 0)
(-0.14008 0.000796365 0)
(-0.140277 0.000642329 0)
(-0.140429 0.000486328 0)
(-0.140533 0.000327949 0)
(-0.140591 0.000166782 0)
(-0.1406 2.418e-06 0)
(-0.14056 -0.000165546 0)
(-0.14047 -0.000337509 0)
(-0.140329 -0.00051386 0)
(-0.140135 -0.000694979 0)
(-0.139887 -0.000881233 0)
(-0.139584 -0.00107298 0)
(-0.139223 -0.00127055 0)
(-0.138804 -0.00147425 0)
(-0.138325 -0.0016844 0)
(-0.137783 -0.00190125 0)
(-0.137177 -0.00212504 0)
(-0.136505 -0.00235598 0)
(-0.135765 -0.00259424 0)
(-0.134955 -0.00283997 0)
(-0.134073 -0.00309324 0)
(-0.133117 -0.0033541 0)
(-0.132084 -0.00362255 0)
(-0.130973 -0.00389853 0)
(-0.129781 -0.00418191 0)
(-0.128508 -0.00447252 0)
(-0.12715 -0.00477009 0)
(-0.125706 -0.00507431 0)
(-0.124174 -0.00538478 0)
(-0.122552 -0.005701 0)
(-0.12084 -0.00602242 0)
(-0.119036 -0.00634838 0)
(-0.117139 -0.00667812 0)
(-0.115147 -0.0070108 0)
(-0.113062 -0.00734546 0)
(-0.110881 -0.00768106 0)
(-0.108605 -0.00801643 0)
(-0.106235 -0.00835031 0)
(-0.103772 -0.00868131 0)
(-0.101215 -0.00900796 0)
(-0.098568 -0.00932865 0)
(-0.0958317 -0.00964167 0)
(-0.0930089 -0.00994521 0)
(-0.0901026 -0.0102373 0)
(-0.0871165 -0.0105161 0)
(-0.0840546 -0.0107792 0)
(-0.0809217 -0.0110246 0)
(-0.0777232 -0.01125 0)
(-0.074465 -0.0114529 0)
(-0.0711538 -0.011631 0)
(-0.0677969 -0.0117818 0)
(-0.0644022 -0.0119027 0)