/*--------------------------------*- C++ -*----------------------------------*\
  =========                 |
  \\      /  F ield         | OpenFOAM: The Open Source CFD Toolbox
   \\    /   O peration     | Website:  https://openfoam.org
    \\  /    A nd           | Version:  7
     \\/     M anipulation  |
\*---------------------------------------------------------------------------*/
FoamFile
{
    version     2.0;
    format      ascii;
    class       volScalarField;
    location    "0.05";
    object      p;
}
// * * * * * * * * * * * * * * * * * * * * * * * * * * * * * * * * * * * * * //

dimensions      [0 2 -2 0 0 0 0];

internalField   nonuniform List<scalar> 
51200
(
-1.19229e-08
-2.52085e-06
-7.20826e-06
-1.3497e-05
-1.96942e-05
-2.52006e-05
-3.00424e-05
-3.43668e-05
-3.82901e-05
-4.18564e-05
-4.51333e-05
-4.8168e-05
-5.09882e-05
-5.35962e-05
-5.60152e-05
-5.82786e-05
-6.03922e-05
-6.23514e-05
-6.41281e-05
-6.57197e-05
-6.71449e-05
-6.84105e-05
-6.9514e-05
-7.04266e-05
-7.11234e-05
-7.16205e-05
-7.19381e-05
-7.20878e-05
-7.20764e-05
-7.18858e-05
-7.15097e-05
-7.0975e-05
-7.0307e-05
-6.95204e-05
-6.86218e-05
-6.75994e-05
-6.64446e-05
-6.51717e-05
-6.37962e-05
-6.23199e-05
-6.07457e-05
-5.90744e-05
-5.72952e-05
-5.54016e-05
-5.33913e-05
-5.12501e-05
-4.89676e-05
-4.65557e-05
-4.40258e-05
-4.13814e-05
-3.86328e-05
-3.57887e-05
-3.28505e-05
-2.98317e-05
-2.67623e-05
-2.36606e-05
-2.05156e-05
-1.73067e-05
-1.40267e-05
-1.06911e-05
-7.32928e-06
-3.96341e-06
-5.8658e-07
2.8317e-06
6.31107e-06
9.83513e-06
1.33662e-05
1.68782e-05
2.03685e-05
2.3847e-05
2.73238e-05
3.07996e-05
3.42621e-05
3.76936e-05
4.10839e-05
4.44348e-05
4.77529e-05
5.10423e-05
5.43066e-05
5.75515e-05
6.07822e-05
6.40021e-05
6.72177e-05
7.04361e-05
7.36551e-05
7.68641e-05
8.0055e-05
8.32281e-05
8.63838e-05
8.95166e-05
9.26209e-05
9.56981e-05
9.87544e-05
0.000101791
0.000104802
0.000107785
0.000110748
0.000113695
0.000116627
0.000119537
0.000122424
0.000125291
0.000128137
0.000130957
0.000133739
0.000136477
0.000139166
0.000141801
0.000144379
0.0001469
0.000149367
0.000151776
0.000154115
0.000156378
0.000158577
0.000160724
0.000162817
0.000164841
0.000166776
0.000168622
0.000170388
0.000172078
0.00017369
0.000175219
0.000176663
0.000178024
0.000179295
0.000180464
0.000181522
0.000182471
0.000183313
0.000184048
0.000184671
0.000185176
0.000185563
0.00018583
0.000185969
0.00018597
0.000185832
0.000185563
0.000185177
0.000184675
0.000184054
0.000183306
0.000182435
0.000181447
0.000180346
0.000179143
0.00017786
0.000176535
0.00017521
0.000173919
0.00017268
0.000171508
0.000170428
0.000169482
0.00016872
0.000168203
0.000167991
0.000168096
-2.65874e-06
-6.62035e-06
-1.13622e-05
-1.67758e-05
-2.19908e-05
-2.66047e-05
-3.0738e-05
-3.45182e-05
-3.80014e-05
-4.12165e-05
-4.41976e-05
-4.69873e-05
-4.95987e-05
-5.20424e-05
-5.43224e-05
-5.64417e-05
-5.84298e-05
-6.02789e-05
-6.19786e-05
-6.35162e-05
-6.48799e-05
-6.60867e-05
-6.71392e-05
-6.80184e-05
-6.87113e-05
-6.92019e-05
-6.94967e-05
-6.96249e-05
-6.95955e-05
-6.94095e-05
-6.90672e-05
-6.85639e-05
-6.79141e-05
-6.71441e-05
-6.6263e-05
-6.52707e-05
-6.4168e-05
-6.29508e-05
-6.16201e-05
-6.01845e-05
-5.86445e-05
-5.69949e-05
-5.52355e-05
-5.33675e-05
-5.13864e-05
-4.92846e-05
-4.7057e-05
-4.47009e-05
-4.22194e-05
-3.96243e-05
-3.69297e-05
-3.41434e-05
-3.12664e-05
-2.83029e-05
-2.52681e-05
-2.21828e-05
-1.90626e-05
-1.59085e-05
-1.27078e-05
-9.4508e-06
-6.14788e-06
-2.82268e-06
5.12502e-07
3.86636e-06
7.25534e-06
1.06859e-05
1.41476e-05
1.76192e-05
2.10789e-05
2.45159e-05
2.79341e-05
3.13407e-05
3.47329e-05
3.81007e-05
4.14383e-05
4.47437e-05
4.80138e-05
5.12472e-05
5.44505e-05
5.76344e-05
6.08029e-05
6.39561e-05
6.71014e-05
7.02503e-05
7.34035e-05
7.65498e-05
7.96801e-05
8.27951e-05
8.58939e-05
8.8969e-05
9.20146e-05
9.50345e-05
9.80353e-05
0.000101017
0.000103974
0.000106905
0.000109815
0.000112706
0.000115574
0.00011842
0.000121245
0.000124051
0.000126834
0.000129588
0.00013231
0.000134996
0.000137638
0.000140226
0.000142753
0.000145222
0.000147639
0.000150003
0.000152307
0.000154542
0.000156709
0.000158814
0.000160857
0.00016283
0.000164726
0.000166538
0.000168269
0.00016992
0.000171493
0.00017299
0.00017441
0.000175748
0.000176993
0.000178138
0.000179181
0.000180122
0.000180962
0.000181698
0.000182327
0.000182843
0.000183245
0.00018353
0.000183694
0.000183732
0.000183644
0.000183433
0.000183105
0.000182664
0.000182112
0.00018145
0.00018068
0.000179803
0.000178826
0.000177763
0.000176638
0.000175483
0.000174333
0.000173213
0.00017214
0.00017113
0.000170204
0.000169395
0.000168742
0.000168294
0.000168109
0.000168225
-7.01832e-06
-1.09343e-05
-1.51365e-05
-1.96522e-05
-2.399e-05
-2.79049e-05
-3.148e-05
-3.48001e-05
-3.79135e-05
-4.08269e-05
-4.35571e-05
-4.61232e-05
-4.85488e-05
-5.08464e-05
-5.29995e-05
-5.50102e-05
-5.68807e-05
-5.86233e-05
-6.02444e-05
-6.17182e-05
-6.3034e-05
-6.41885e-05
-6.51801e-05
-6.60208e-05
-6.66937e-05
-6.71756e-05
-6.74698e-05
-6.75818e-05
-6.75313e-05
-6.73438e-05
-6.70152e-05
-6.65369e-05
-6.59169e-05
-6.51634e-05
-6.42907e-05
-6.33177e-05
-6.22445e-05
-6.10623e-05
-5.97726e-05
-5.8377e-05
-5.68716e-05
-5.52556e-05
-5.3528e-05
-5.16842e-05
-4.97252e-05
-4.7652e-05
-4.54587e-05
-4.31398e-05
-4.0696e-05
-3.81349e-05
-3.54711e-05
-3.27202e-05
-2.98897e-05
-2.69793e-05
-2.39894e-05
-2.09304e-05
-1.7827e-05
-1.47024e-05
-1.1556e-05
-8.3701e-06
-5.13552e-06
-1.86095e-06
1.43783e-06
4.74961e-06
8.07431e-06
1.14237e-05
1.48091e-05
1.82248e-05
2.16463e-05
2.50511e-05
2.8434e-05
3.17986e-05
3.51428e-05
3.84629e-05
4.1759e-05
4.50286e-05
4.82616e-05
5.14524e-05
5.46085e-05
5.7742e-05
6.08572e-05
6.39546e-05
6.7042e-05
7.01311e-05
7.32232e-05
7.63097e-05
7.93854e-05
8.2451e-05
8.55032e-05
8.85329e-05
9.15356e-05
9.45149e-05
9.74742e-05
0.000100411
0.000103324
0.000106213
0.00010908
0.00011192
0.00011473
0.000117516
0.000120286
0.000123037
0.00012576
0.000128451
0.000131114
0.000133748
0.000136344
0.000138892
0.000141384
0.000143821
0.000146203
0.000148531
0.000150802
0.000153015
0.000155164
0.000157242
0.000159244
0.000161173
0.000163031
0.000164814
0.000166516
0.000168133
0.000169672
0.000171142
0.000172541
0.000173859
0.000175084
0.000176212
0.000177246
0.000178186
0.000179028
0.000179766
0.0001804
0.000180928
0.000181348
0.000181651
0.000181835
0.000181904
0.000181859
0.000181698
0.000181416
0.000181015
0.000180507
0.000179903
0.000179207
0.00017842
0.000177547
0.000176601
0.000175607
0.000174588
0.000173565
0.000172556
0.000171581
0.000170664
0.000169828
0.000169101
0.000168515
0.000168107
0.000167934
0.000168045
-1.22593e-05
-1.54223e-05
-1.87624e-05
-2.22899e-05
-2.57711e-05
-2.908e-05
-3.21846e-05
-3.51183e-05
-3.79055e-05
-4.05584e-05
-4.30764e-05
-4.54551e-05
-4.77148e-05
-4.98621e-05
-5.19015e-05
-5.38157e-05
-5.559e-05
-5.72411e-05
-5.87655e-05
-6.01671e-05
-6.14355e-05
-6.25411e-05
-6.34876e-05
-6.42786e-05
-6.49062e-05
-6.53738e-05
-6.56692e-05
-6.57832e-05
-6.57355e-05
-6.55409e-05
-6.52073e-05
-6.47457e-05
-6.41517e-05
-6.34223e-05
-6.25728e-05
-6.16157e-05
-6.0555e-05
-5.93937e-05
-5.81303e-05
-5.67598e-05
-5.52841e-05
-5.3704e-05
-5.20117e-05
-5.02014e-05
-4.82714e-05
-4.62204e-05
-4.40476e-05
-4.17539e-05
-3.93399e-05
-3.68084e-05
-3.41688e-05
-3.14359e-05
-2.86267e-05
-2.57534e-05
-2.28146e-05
-1.98059e-05
-1.67385e-05
-1.36365e-05
-1.0516e-05
-7.37664e-06
-4.20997e-06
-1.00612e-06
2.23769e-06
5.51002e-06
8.79568e-06
1.20939e-05
1.54155e-05
1.87637e-05
2.21275e-05
2.5492e-05
2.88476e-05
3.21872e-05
3.55033e-05
3.87933e-05
4.20585e-05
4.52951e-05
4.8494e-05
5.16515e-05
5.47721e-05
5.78627e-05
6.09287e-05
6.39778e-05
6.70189e-05
7.00574e-05
7.30935e-05
7.61256e-05
7.91538e-05
8.21762e-05
8.5186e-05
8.81768e-05
9.1148e-05
9.40999e-05
9.70284e-05
9.9929e-05
0.000102803
0.000105655
0.000108481
0.000111274
0.000114033
0.000116766
0.000119483
0.000122181
0.00012485
0.000127488
0.000130099
0.000132683
0.000135232
0.000137739
0.000140205
0.000142624
0.000144986
0.000147285
0.000149524
0.000151709
0.000153838
0.000155895
0.000157869
0.000159764
0.000161588
0.000163342
0.000165017
0.000166607
0.00016812
0.000169566
0.000170943
0.000172241
0.00017345
0.000174569
0.000175601
0.000176543
0.000177386
0.000178124
0.000178758
0.000179293
0.000179725
0.000180046
0.000180252
0.000180348
0.000180337
0.000180211
0.000179962
0.000179589
0.000179109
0.000178545
0.000177908
0.000177199
0.000176419
0.000175575
0.000174686
0.000173766
0.000172825
0.00017188
0.000170957
0.000170088
0.000169301
0.000168621
0.000168069
0.000167671
0.000167476
0.000167528
-1.6778e-05
-1.92307e-05
-2.18101e-05
-2.45404e-05
-2.73771e-05
-3.01533e-05
-3.28471e-05
-3.54415e-05
-3.79388e-05
-4.03462e-05
-4.26619e-05
-4.48802e-05
-4.6985e-05
-4.89902e-05
-5.0902e-05
-5.2706e-05
-5.43989e-05
-5.59617e-05
-5.73974e-05
-5.87184e-05
-5.99136e-05
-6.09742e-05
-6.18852e-05
-6.26302e-05
-6.32182e-05
-6.36533e-05
-6.39305e-05
-6.4055e-05
-6.40229e-05
-6.3833e-05
-6.35047e-05
-6.30487e-05
-6.24647e-05
-6.17613e-05
-6.09417e-05
-6.00053e-05
-5.8964e-05
-5.78233e-05
-5.65761e-05
-5.5223e-05
-5.37665e-05
-5.22036e-05
-5.05333e-05
-4.87522e-05
-4.68505e-05
-4.48233e-05
-4.26714e-05
-4.03969e-05
-3.80068e-05
-3.55085e-05
-3.2905e-05
-3.02016e-05
-2.74142e-05
-2.45617e-05
-2.16551e-05
-1.86966e-05
-1.56857e-05
-1.26271e-05
-9.53402e-06
-6.42287e-06
-3.30003e-06
-1.56803e-07
3.01938e-06
6.23076e-06
9.47063e-06
1.27328e-05
1.60127e-05
1.93064e-05
2.2612e-05
2.59277e-05
2.92444e-05
3.25501e-05
3.58374e-05
3.9103e-05
4.23416e-05
4.55448e-05
4.87091e-05
5.18366e-05
5.49276e-05
5.79808e-05
6.10034e-05
6.40105e-05
6.70112e-05
7.0005e-05
7.29918e-05
7.59776e-05
7.8965e-05
8.19473e-05
8.49154e-05
8.78673e-05
9.08058e-05
9.37276e-05
9.66239e-05
9.94907e-05
0.000102331
0.000105146
0.000107931
0.000110679
0.000113396
0.000116087
0.000118757
0.000121403
0.000124023
0.000126617
0.000129187
0.000131727
0.000134231
0.000136698
0.000139132
0.000141526
0.000143868
0.000146144
0.000148355
0.000150509
0.000152606
0.000154634
0.000156584
0.000158456
0.000160255
0.000161982
0.00016363
0.000165199
0.000166695
0.000168122
0.000169478
0.000170757
0.000171952
0.000173066
0.000174096
0.000175036
0.000175875
0.000176609
0.000177241
0.000177773
0.000178207
0.00017854
0.000178769
0.000178894
0.00017891
0.000178808
0.00017858
0.000178232
0.000177784
0.00017726
0.000176678
0.000176039
0.000175342
0.000174587
0.000173779
0.000172924
0.000172034
0.00017113
0.000170243
0.000169409
0.000168656
0.000168
0.000167453
0.000167034
0.000166777
0.000166714
-2.01764e-05
-2.20482e-05
-2.4102e-05
-2.63088e-05
-2.86587e-05
-3.10335e-05
-3.33918e-05
-3.57119e-05
-3.79701e-05
-4.0158e-05
-4.22883e-05
-4.43487e-05
-4.63255e-05
-4.8208e-05
-4.99919e-05
-5.16875e-05
-5.32819e-05
-5.47652e-05
-5.61324e-05
-5.73719e-05
-5.84926e-05
-5.94953e-05
-6.03576e-05
-6.1073e-05
-6.16364e-05
-6.20394e-05
-6.22969e-05
-6.24164e-05
-6.23891e-05
-6.2218e-05
-6.19079e-05
-6.14591e-05
-6.08848e-05
-6.01981e-05
-5.93964e-05
-5.84822e-05
-5.74626e-05
-5.63372e-05
-5.51056e-05
-5.37698e-05
-5.23263e-05
-5.07727e-05
-4.91123e-05
-4.73432e-05
-4.54586e-05
-4.34529e-05
-4.1323e-05
-3.9069e-05
-3.66994e-05
-3.42271e-05
-3.16605e-05
-2.90034e-05
-2.62605e-05
-2.34403e-05
-2.05589e-05
-1.76336e-05
-1.46694e-05
-1.1663e-05
-8.61692e-06
-5.54133e-06
-2.44511e-06
6.67351e-07
3.79664e-06
6.94959e-06
1.0135e-05
1.33534e-05
1.65943e-05
1.98465e-05
2.3108e-05
2.63779e-05
2.96473e-05
3.29072e-05
3.61553e-05
3.93883e-05
4.25947e-05
4.57645e-05
4.88972e-05
5.19964e-05
5.50598e-05
5.80844e-05
6.10778e-05
6.40546e-05
6.7022e-05
6.99785e-05
7.29271e-05
7.58758e-05
7.88258e-05
8.17686e-05
8.46972e-05
8.76116e-05
9.05122e-05
9.33939e-05
9.62507e-05
9.90828e-05
0.000101892
0.000104672
0.000107417
0.000110128
0.000112814
0.000115477
0.000118113
0.00012072
0.0001233
0.000125857
0.000128389
0.00013089
0.000133356
0.000135788
0.000138185
0.00014054
0.000142844
0.000145092
0.000147281
0.000149408
0.00015147
0.000153463
0.000155388
0.000157245
0.000159028
0.000160734
0.000162362
0.000163916
0.000165402
0.000166816
0.000168155
0.000169417
0.000170602
0.00017171
0.000172733
0.000173662
0.00017449
0.000175216
0.000175842
0.000176369
0.000176797
0.000177132
0.000177378
0.000177527
0.000177568
0.000177484
0.000177276
0.000176957
0.000176548
0.00017607
0.000175537
0.000174953
0.000174317
0.000173623
0.000172868
0.000172054
0.000171195
0.00017032
0.000169466
0.000168662
0.000167926
0.000167268
0.000166695
0.000166222
0.000165869
0.000165656
-2.25698e-05
-2.40642e-05
-2.57617e-05
-2.76211e-05
-2.96374e-05
-3.17091e-05
-3.38056e-05
-3.59013e-05
-3.79661e-05
-3.99848e-05
-4.1947e-05
-4.38608e-05
-4.57159e-05
-4.7487e-05
-4.91723e-05
-5.0762e-05
-5.22557e-05
-5.36595e-05
-5.4955e-05
-5.61322e-05
-5.71921e-05
-5.81261e-05
-5.89344e-05
-5.96148e-05
-6.01508e-05
-6.05406e-05
-6.0789e-05
-6.08948e-05
-6.0866e-05
-6.07068e-05
-6.041e-05
-5.9979e-05
-5.94234e-05
-5.87475e-05
-5.79593e-05
-5.70632e-05
-5.6056e-05
-5.49389e-05
-5.37157e-05
-5.23862e-05
-5.09494e-05
-4.94039e-05
-4.77487e-05
-4.5983e-05
-4.41051e-05
-4.2112e-05
-4.00025e-05
-3.77762e-05
-3.54358e-05
-3.29909e-05
-3.04565e-05
-2.78437e-05
-2.51545e-05
-2.2388e-05
-1.95517e-05
-1.66604e-05
-1.37266e-05
-1.07577e-05
-7.75724e-06
-4.72437e-06
-1.65855e-06
1.43246e-06
4.53894e-06
7.66169e-06
1.08088e-05
1.39828e-05
1.71784e-05
2.03888e-05
2.36092e-05
2.68333e-05
3.00526e-05
3.32631e-05
3.64646e-05
3.96522e-05
4.28169e-05
4.59526e-05
4.90578e-05
5.21308e-05
5.51692e-05
5.81747e-05
6.11542e-05
6.41146e-05
6.70586e-05
6.99893e-05
7.29122e-05
7.58314e-05
7.8744e-05
8.16451e-05
8.45334e-05
8.74083e-05
9.02654e-05
9.30999e-05
9.59125e-05
9.87074e-05
0.000101483
0.00010423
0.000106944
0.00010963
0.000112295
0.000114939
0.000117553
0.000120136
0.00012269
0.000125216
0.00012771
0.000130169
0.000132597
0.000134994
0.000137352
0.000139661
0.000141918
0.000144126
0.000146285
0.000148387
0.00015042
0.000152385
0.000154289
0.000156132
0.000157903
0.000159597
0.000161212
0.000162757
0.000164234
0.000165638
0.000166964
0.000168212
0.000169386
0.000170483
0.000171493
0.000172405
0.000173217
0.000173931
0.000174549
0.000175068
0.00017549
0.000175824
0.000176077
0.000176243
0.000176304
0.000176243
0.000176062
0.000175778
0.000175413
0.000174981
0.000174488
0.000173938
0.000173332
0.000172668
0.000171942
0.000171155
0.000170324
0.000169481
0.000168656
0.00016787
0.000167129
0.00016644
0.000165811
0.000165261
0.000164796
0.000164416
-2.41771e-05
-2.5463e-05
-2.69312e-05
-2.85531e-05
-3.03357e-05
-3.21945e-05
-3.4089e-05
-3.59976e-05
-3.79097e-05
-3.97897e-05
-4.16244e-05
-4.34134e-05
-4.51455e-05
-4.68195e-05
-4.84146e-05
-4.99161e-05
-5.13283e-05
-5.2645e-05
-5.38662e-05
-5.49878e-05
-5.59907e-05
-5.68707e-05
-5.76304e-05
-5.82612e-05
-5.87656e-05
-5.91437e-05
-5.93831e-05
-5.94857e-05
-5.94589e-05
-5.92989e-05
-5.90093e-05
-5.85964e-05
-5.8057e-05
-5.73953e-05
-5.66222e-05
-5.57379e-05
-5.4739e-05
-5.36278e-05
-5.24043e-05
-5.10697e-05
-4.96286e-05
-4.80823e-05
-4.64277e-05
-4.46642e-05
-4.27894e-05
-4.08033e-05
-3.87096e-05
-3.65115e-05
-3.421e-05
-3.18084e-05
-2.93167e-05
-2.67463e-05
-2.41049e-05
-2.13959e-05
-1.86193e-05
-1.57769e-05
-1.2878e-05
-9.93662e-06
-6.96278e-06
-3.95747e-06
-9.19644e-07
2.14693e-06
5.23703e-06
8.348e-06
1.14768e-05
1.46197e-05
1.77759e-05
2.09448e-05
2.41194e-05
2.72911e-05
3.04566e-05
3.3616e-05
3.67666e-05
3.99023e-05
4.30206e-05
4.61217e-05
4.92016e-05
5.2252e-05
5.52718e-05
5.82676e-05
6.12431e-05
6.41962e-05
6.71272e-05
7.0043e-05
7.29491e-05
7.58433e-05
7.872e-05
8.15792e-05
8.44242e-05
8.72537e-05
9.00617e-05
9.28474e-05
9.56171e-05
9.83745e-05
0.000101115
0.000103833
0.000106525
0.000109196
0.000111848
0.000114474
0.000117071
0.000119637
0.000122171
0.00012467
0.000127127
0.000129544
0.000131928
0.00013428
0.000136593
0.000138857
0.00014107
0.000143238
0.000145363
0.000147435
0.000149445
0.000151393
0.000153282
0.00015511
0.000156869
0.000158552
0.00016016
0.000161698
0.000163166
0.000164557
0.00016587
0.000167105
0.000168265
0.000169345
0.000170336
0.000171232
0.00017203
0.000172734
0.000173342
0.000173853
0.000174271
0.000174605
0.000174863
0.000175038
0.000175115
0.000175081
0.000174938
0.000174698
0.000174374
0.000173975
0.000173504
0.000172967
0.000172369
0.000171713
0.000171001
0.000170238
0.00016944
0.000168631
0.000167829
0.000167042
0.000166273
0.000165529
0.000164827
0.000164192
0.000163611
0.000163058
-2.51727e-05
-2.63708e-05
-2.77125e-05
-2.91688e-05
-3.07864e-05
-3.24962e-05
-3.42458e-05
-3.60176e-05
-3.77942e-05
-3.9562e-05
-4.13009e-05
-4.29866e-05
-4.46229e-05
-4.62007e-05
-4.77084e-05
-4.91425e-05
-5.04824e-05
-5.17255e-05
-5.28794e-05
-5.39331e-05
-5.48796e-05
-5.57162e-05
-5.64293e-05
-5.70179e-05
-5.74909e-05
-5.78419e-05
-5.80684e-05
-5.81723e-05
-5.81455e-05
-5.79875e-05
-5.77055e-05
-5.73015e-05
-5.67751e-05
-5.61299e-05
-5.53682e-05
-5.44906e-05
-5.34971e-05
-5.23878e-05
-5.1161e-05
-4.98184e-05
-4.83665e-05
-4.68101e-05
-4.51497e-05
-4.33856e-05
-4.1516e-05
-3.954e-05
-3.74615e-05
-3.52874e-05
-3.30236e-05
-3.06737e-05
-2.82392e-05
-2.57224e-05
-2.31308e-05
-2.04732e-05
-1.77506e-05
-1.4961e-05
-1.21078e-05
-9.19898e-06
-6.24262e-06
-3.2477e-06
-2.23045e-07
2.8276e-06
5.90495e-06
9.00629e-06
1.21221e-05
1.52442e-05
1.83719e-05
2.15037e-05
2.46313e-05
2.77492e-05
3.086e-05
3.39661e-05
3.70635e-05
4.01484e-05
4.32235e-05
4.62912e-05
4.93452e-05
5.23769e-05
5.53865e-05
5.83794e-05
6.1354e-05
6.43043e-05
6.72299e-05
7.01372e-05
7.30281e-05
7.58974e-05
7.87415e-05
8.15631e-05
8.43652e-05
8.71459e-05
8.99041e-05
9.26456e-05
9.53782e-05
9.81018e-05
0.00010081
0.000103501
0.000106177
0.000108837
0.000111475
0.000114083
0.000116661
0.000119206
0.000121716
0.000124182
0.000126602
0.000128979
0.000131319
0.000133622
0.000135884
0.000138105
0.000140284
0.000142423
0.000144518
0.000146563
0.000148553
0.00015049
0.000152368
0.000154181
0.000155921
0.00015759
0.000159188
0.000160717
0.000162171
0.000163546
0.000164843
0.000166064
0.000167206
0.000168264
0.000169235
0.000170117
0.000170911
0.000171612
0.000172215
0.000172722
0.000173139
0.000173478
0.00017374
0.000173921
0.000174011
0.000174005
0.000173902
0.000173703
0.00017341
0.000173025
0.000172557
0.000172017
0.000171417
0.000170764
0.000170065
0.000169327
0.000168561
0.000167778
0.000166983
0.000166176
0.000165362
0.000164553
0.000163779
0.000163062
0.000162366
0.00016164
-2.56776e-05
-2.68751e-05
-2.81627e-05
-2.95252e-05
-3.10287e-05
-3.26271e-05
-3.42852e-05
-3.59585e-05
-3.76357e-05
-3.93112e-05
-4.09624e-05
-4.25775e-05
-4.41378e-05
-4.56322e-05
-4.70674e-05
-4.84292e-05
-4.97066e-05
-5.08956e-05
-5.19847e-05
-5.29737e-05
-5.38646e-05
-5.46465e-05
-5.53151e-05
-5.58722e-05
-5.63113e-05
-5.6634e-05
-5.68452e-05
-5.69384e-05
-5.6909e-05
-5.67578e-05
-5.64827e-05
-5.60855e-05
-5.55721e-05
-5.4941e-05
-5.41889e-05
-5.33168e-05
-5.23242e-05
-5.12108e-05
-4.99777e-05
-4.86273e-05
-4.71651e-05
-4.5597e-05
-4.39271e-05
-4.21584e-05
-4.02935e-05
-3.83321e-05
-3.62745e-05
-3.41267e-05
-3.18976e-05
-2.95937e-05
-2.72157e-05
-2.47606e-05
-2.22283e-05
-1.9622e-05
-1.69442e-05
-1.41983e-05
-1.13879e-05
-8.5135e-06
-5.57809e-06
-2.59333e-06
4.26541e-07
3.47424e-06
6.54658e-06
9.63739e-06
1.27381e-05
1.58422e-05
1.89456e-05
2.20425e-05
2.51267e-05
2.81976e-05
3.12594e-05
3.43138e-05
3.73603e-05
4.04018e-05
4.34417e-05
4.64783e-05
4.95064e-05
5.25224e-05
5.55263e-05
5.85167e-05
6.14879e-05
6.44352e-05
6.73586e-05
7.02586e-05
7.31318e-05
7.59753e-05
7.87906e-05
8.15806e-05
8.43449e-05
8.70827e-05
8.98e-05
9.25077e-05
9.52114e-05
9.79073e-05
0.00010059
0.000103259
0.000105917
0.000108559
0.000111175
0.000113759
0.000116311
0.000118828
0.000121302
0.000123727
0.000126106
0.000128446
0.000130748
0.000133008
0.000135227
0.000137413
0.000139569
0.00014169
0.000143766
0.000145792
0.000147767
0.000149692
0.000151555
0.000153347
0.000155064
0.000156711
0.000158293
0.000159803
0.000161237
0.000162592
0.00016387
0.000165073
0.000166195
0.000167233
0.000168187
0.000169063
0.00016986
0.000170569
0.000171178
0.000171688
0.000172109
0.000172452
0.000172719
0.000172905
0.000173005
0.00017302
0.000172945
0.000172773
0.000172495
0.00017211
0.000171634
0.000171087
0.000170485
0.000169839
0.000169155
0.000168438
0.000167692
0.000166917
0.000166109
0.000165268
0.000164405
0.00016354
0.000162702
0.000161909
0.000161098
0.000160198
-2.58027e-05
-2.70472e-05
-2.83367e-05
-2.96656e-05
-3.11024e-05
-3.26279e-05
-3.42139e-05
-3.58287e-05
-3.74455e-05
-3.90448e-05
-4.06296e-05
-4.21823e-05
-4.36805e-05
-4.51208e-05
-4.64889e-05
-4.77826e-05
-4.90036e-05
-5.01347e-05
-5.11674e-05
-5.21039e-05
-5.29352e-05
-5.36601e-05
-5.42847e-05
-5.4802e-05
-5.5209e-05
-5.55101e-05
-5.57012e-05
-5.57787e-05
-5.5745e-05
-5.55969e-05
-5.53283e-05
-5.49412e-05
-5.44394e-05
-5.38195e-05
-5.30772e-05
-5.22115e-05
-5.12192e-05
-5.00996e-05
-4.88578e-05
-4.74993e-05
-4.60288e-05
-4.44527e-05
-4.27761e-05
-4.10035e-05
-3.91405e-05
-3.71911e-05
-3.51564e-05
-3.30398e-05
-3.08468e-05
-2.85823e-05
-2.62498e-05
-2.38488e-05
-2.13742e-05
-1.882e-05
-1.61862e-05
-1.3478e-05
-1.06992e-05
-7.85126e-06
-4.93898e-06
-1.97211e-06
1.03899e-06
4.08466e-06
7.15281e-06
1.0232e-05
1.33166e-05
1.64021e-05
1.94801e-05
2.25429e-05
2.55897e-05
2.86235e-05
3.16457e-05
3.46567e-05
3.76624e-05
4.06708e-05
4.36826e-05
4.66921e-05
4.96968e-05
5.26985e-05
5.56947e-05
5.86771e-05
6.16388e-05
6.45789e-05
6.74964e-05
7.03853e-05
7.32393e-05
7.60597e-05
7.8852e-05
8.1617e-05
8.43525e-05
8.70618e-05
8.97557e-05
9.2444e-05
9.51279e-05
9.78028e-05
0.000100466
0.000103117
0.000105752
0.000108364
0.000110944
0.000113493
0.000116009
0.000118486
0.000120916
0.000123297
0.000125637
0.000127941
0.000130211
0.000132442
0.000134638
0.000136807
0.000138951
0.000141061
0.000143126
0.000145142
0.000147105
0.000149012
0.00015085
0.000152613
0.000154301
0.000155921
0.000157475
0.000158958
0.000160366
0.000161698
0.000162956
0.000164139
0.000165242
0.000166265
0.000167213
0.000168091
0.000168898
0.000169618
0.00017024
0.000170763
0.000171194
0.000171542
0.000171809
0.000171995
0.0001721
0.000172124
0.000172058
0.00017189
0.000171609
0.000171219
0.000170738
0.00017019
0.000169594
0.000168957
0.000168284
0.000167577
0.000166831
0.000166042
0.000165206
0.000164328
0.000163424
0.000162516
0.000161623
0.000160753
0.000159821
0.000158743
-2.56494e-05
-2.69702e-05
-2.82827e-05
-2.96157e-05
-3.10425e-05
-3.25262e-05
-3.40657e-05
-3.56428e-05
-3.72178e-05
-3.87779e-05
-4.03111e-05
-4.18061e-05
-4.32598e-05
-4.46506e-05
-4.59663e-05
-4.72079e-05
-4.83667e-05
-4.94375e-05
-5.04183e-05
-5.12988e-05
-5.20754e-05
-5.27517e-05
-5.33268e-05
-5.38002e-05
-5.41764e-05
-5.44525e-05
-5.46234e-05
-5.46893e-05
-5.46493e-05
-5.45001e-05
-5.42394e-05
-5.38647e-05
-5.33736e-05
-5.27632e-05
-5.20299e-05
-5.11698e-05
-5.01788e-05
-4.90566e-05
-4.78089e-05
-4.64433e-05
-4.49661e-05
-4.33856e-05
-4.17076e-05
-3.99361e-05
-3.80758e-05
-3.61339e-05
-3.41166e-05
-3.20279e-05
-2.98692e-05
-2.76412e-05
-2.53458e-05
-2.29843e-05
-2.05513e-05
-1.80404e-05
-1.54492e-05
-1.27771e-05
-1.00248e-05
-7.19845e-06
-4.30837e-06
-1.36279e-06
1.63189e-06
4.66432e-06
7.7181e-06
1.07807e-05
1.3847e-05
1.69108e-05
1.99616e-05
2.29944e-05
2.6012e-05
2.90174e-05
3.20097e-05
3.49912e-05
3.79711e-05
4.09567e-05
4.39457e-05
4.69328e-05
4.99185e-05
5.29049e-05
5.58863e-05
5.88529e-05
6.17995e-05
6.4726e-05
6.76289e-05
7.05001e-05
7.33359e-05
7.61399e-05
7.89167e-05
8.1665e-05
8.43845e-05
8.70835e-05
8.97725e-05
9.24552e-05
9.51283e-05
9.77887e-05
0.000100436
0.000103066
0.00010567
0.000108241
0.000110776
0.000113279
0.000115748
0.000118175
0.000120557
0.000122899
0.000125207
0.000127484
0.00012973
0.000131947
0.000134138
0.000136307
0.000138447
0.00014055
0.000142607
0.000144614
0.000146563
0.000148445
0.000150249
0.000151976
0.00015363
0.000155218
0.000156739
0.000158189
0.000159569
0.000160881
0.000162122
0.000163287
0.000164375
0.000165389
0.000166339
0.000167227
0.000168043
0.000168776
0.000169413
0.000169952
0.000170395
0.000170747
0.000171009
0.000171189
0.000171288
0.000171304
0.000171227
0.000171046
0.000170754
0.000170362
0.000169888
0.000169352
0.000168765
0.000168133
0.000167458
0.000166739
0.000165973
0.000165156
0.000164288
0.000163379
0.000162446
0.0001615
0.00016055
0.000159592
0.000158531
0.000157278
-2.53012e-05
-2.67061e-05
-2.80601e-05
-2.94187e-05
-3.08588e-05
-3.23452e-05
-3.38658e-05
-3.5411e-05
-3.6968e-05
-3.85055e-05
-4.00039e-05
-4.14644e-05
-4.28722e-05
-4.42164e-05
-4.54931e-05
-4.66842e-05
-4.7787e-05
-4.88036e-05
-4.97247e-05
-5.05471e-05
-5.12743e-05
-5.19024e-05
-5.24303e-05
-5.28652e-05
-5.32078e-05
-5.34554e-05
-5.36087e-05
-5.36653e-05
-5.36193e-05
-5.34698e-05
-5.32171e-05
-5.28538e-05
-5.23736e-05
-5.17736e-05
-5.1048e-05
-5.01914e-05
-4.92021e-05
-4.80813e-05
-4.68332e-05
-4.54652e-05
-4.39855e-05
-4.24031e-05
-4.07261e-05
-3.89592e-05
-3.71054e-05
-3.51713e-05
-3.31654e-05
-3.10939e-05
-2.89593e-05
-2.67609e-05
-2.44965e-05
-2.21625e-05
-1.97556e-05
-1.72738e-05
-1.47146e-05
-1.20733e-05
-9.34844e-06
-6.5478e-06
-3.68206e-06
-7.5919e-07
2.21183e-06
5.21753e-06
8.24432e-06
1.12824e-05
1.4324e-05
1.73602e-05
2.03838e-05
2.33935e-05
2.63906e-05
2.93748e-05
3.23473e-05
3.53145e-05
3.82829e-05
4.1254e-05
4.42253e-05
4.71958e-05
5.01663e-05
5.31347e-05
5.6094e-05
5.90386e-05
6.19661e-05
6.48733e-05
6.77538e-05
7.06033e-05
7.34235e-05
7.62179e-05
7.89864e-05
8.17275e-05
8.44452e-05
8.7149e-05
8.9845e-05
9.25301e-05
9.51988e-05
9.78492e-05
0.000100479
0.000103082
0.000105648
0.000108173
0.00011066
0.000113113
0.000115529
0.000117903
0.000120242
0.000122552
0.000124839
0.000127099
0.000129333
0.000131546
0.000133742
0.000135915
0.000138054
0.000140149
0.000142195
0.000144187
0.000146114
0.000147963
0.00014973
0.00015142
0.000153042
0.000154597
0.000156084
0.000157505
0.000158863
0.00016016
0.00016139
0.000162544
0.000163622
0.000164634
0.000165588
0.000166483
0.000167305
0.000168044
0.000168692
0.000169244
0.000169698
0.000170051
0.000170306
0.00017047
0.000170551
0.000170548
0.000170449
0.000170248
0.000169949
0.000169565
0.000169108
0.000168588
0.000168007
0.000167367
0.000166673
0.000165926
0.000165128
0.000164279
0.000163383
0.00016245
0.000161489
0.000160499
0.000159478
0.000158421
0.000157228
0.00015581
-2.4799e-05
-2.63128e-05
-2.77289e-05
-2.91137e-05
-3.05828e-05
-3.20954e-05
-3.36195e-05
-3.51601e-05
-3.67023e-05
-3.82231e-05
-3.97117e-05
-4.11458e-05
-4.25163e-05
-4.38247e-05
-4.50549e-05
-4.61986e-05
-4.72544e-05
-4.82159e-05
-4.90793e-05
-4.9849e-05
-5.05247e-05
-5.1104e-05
-5.15922e-05
-5.19921e-05
-5.23016e-05
-5.25237e-05
-5.26607e-05
-5.27072e-05
-5.26579e-05
-5.25114e-05
-5.22645e-05
-5.19091e-05
-5.14391e-05
-5.0849e-05
-5.013e-05
-4.92766e-05
-4.82904e-05
-4.71726e-05
-4.59274e-05
-4.45629e-05
-4.30869e-05
-4.15067e-05
-3.98317e-05
-3.80687e-05
-3.62223e-05
-3.42982e-05
-3.23025e-05
-3.02409e-05
-2.81186e-05
-2.59373e-05
-2.36921e-05
-2.13765e-05
-1.89876e-05
-1.65245e-05
-1.39844e-05
-1.13648e-05
-8.66749e-06
-5.8977e-06
-3.06109e-06
-1.66289e-07
2.77281e-06
5.7425e-06
8.73434e-06
1.17405e-05
1.47501e-05
1.77546e-05
2.07525e-05
2.37443e-05
2.67268e-05
2.96972e-05
3.26606e-05
3.56249e-05
3.85909e-05
4.15544e-05
4.45148e-05
4.74746e-05
5.04323e-05
5.33811e-05
5.63161e-05
5.92372e-05
6.21431e-05
6.50271e-05
6.78831e-05
7.07126e-05
7.3521e-05
7.63089e-05
7.90733e-05
8.18151e-05
8.45411e-05
8.7257e-05
8.99616e-05
9.26487e-05
9.53141e-05
9.79549e-05
0.000100565
0.000103136
0.000105661
0.000108142
0.000110585
0.000112991
0.000115359
0.00011769
0.000119994
0.000122282
0.000124553
0.000126804
0.000129034
0.000131249
0.000133446
0.000135616
0.000137746
0.000139826
0.000141853
0.00014382
0.000145714
0.000147527
0.000149261
0.000150923
0.000152518
0.000154046
0.000155509
0.000156911
0.000158258
0.000159549
0.000160774
0.000161925
0.000163002
0.000164014
0.000164967
0.000165857
0.000166675
0.000167412
0.000168063
0.000168621
0.000169079
0.00016943
0.000169674
0.000169822
0.00016988
0.000169851
0.00016973
0.000169517
0.000169222
0.000168852
0.000168414
0.000167903
0.000167316
0.000166657
0.000165932
0.000165152
0.000164321
0.000163444
0.000162523
0.000161564
0.000160564
0.000159512
0.000158406
0.000157244
0.000155927
0.000154363
-2.41809e-05
-2.58223e-05
-2.73145e-05
-2.87467e-05
-3.02463e-05
-3.17849e-05
-3.33404e-05
-3.48911e-05
-3.64276e-05
-3.79457e-05
-3.9422e-05
-4.08395e-05
-4.21909e-05
-4.34619e-05
-4.46489e-05
-4.57495e-05
-4.67551e-05
-4.76637e-05
-4.84786e-05
-4.91988e-05
-4.98249e-05
-5.03623e-05
-5.08142e-05
-5.11802e-05
-5.14629e-05
-5.16652e-05
-5.17853e-05
-5.18217e-05
-5.17717e-05
-5.16283e-05
-5.13844e-05
-5.10344e-05
-5.05708e-05
-4.99852e-05
-4.92704e-05
-4.84218e-05
-4.74397e-05
-4.63263e-05
-4.50863e-05
-4.37285e-05
-4.22605e-05
-4.06875e-05
-3.90171e-05
-3.72576e-05
-3.54169e-05
-3.35012e-05
-3.15153e-05
-2.94628e-05
-2.73483e-05
-2.51735e-05
-2.2935e-05
-2.06286e-05
-1.82522e-05
-1.58019e-05
-1.32743e-05
-1.06714e-05
-7.99875e-06
-5.25861e-06
-2.45368e-06
4.06151e-07
3.30648e-06
6.23666e-06
9.19051e-06
1.21596e-05
1.51335e-05
1.81075e-05
2.10829e-05
2.40581e-05
2.70282e-05
2.99921e-05
3.29554e-05
3.59223e-05
3.88889e-05
4.18504e-05
4.48079e-05
4.77625e-05
5.07091e-05
5.36412e-05
5.65572e-05
5.94588e-05
6.23432e-05
6.52038e-05
6.80389e-05
7.08539e-05
7.36531e-05
7.64343e-05
7.91952e-05
8.19402e-05
8.46753e-05
8.73994e-05
9.01057e-05
9.27887e-05
9.54463e-05
9.80735e-05
0.000100661
0.000103199
0.00010569
0.000108138
0.000110547
0.000112916
0.000115248
0.000117551
0.000119835
0.000122106
0.000124363
0.000126605
0.000128831
0.000131042
0.000133229
0.000135379
0.000137484
0.000139538
0.000141535
0.000143467
0.000145325
0.000147107
0.000148819
0.000150464
0.000152044
0.000153558
0.00015501
0.00015641
0.000157759
0.000159053
0.00016028
0.000161434
0.000162513
0.000163523
0.000164465
0.000165337
0.000166136
0.00016686
0.000167505
0.000168061
0.000168515
0.00016886
0.000169096
0.000169231
0.000169272
0.000169223
0.000169089
0.000168876
0.000168591
0.000168236
0.000167805
0.000167288
0.000166684
0.000165998