/*--------------------------------*- C++ -*----------------------------------*\
  =========                 |
  \\      /  F ield         | OpenFOAM: The Open Source CFD Toolbox
   \\    /   O peration     | Website:  https://openfoam.org
    \\  /    A nd           | Version:  7
     \\/     M anipulation  |
\*---------------------------------------------------------------------------*/
FoamFile
{
    version     2.0;
    format      ascii;
    class       volVectorField;
    location    "0.275";
    object      U;
}
// * * * * * * * * * * * * * * * * * * * * * * * * * * * * * * * * * * * * * //

dimensions      [0 1 -1 0 0 0 0];

internalField   nonuniform List<vector> 
12800
(
(8.33841e-06 -8.30983e-06 0)
(3.71066e-05 -1.85277e-05 0)
(7.85447e-05 -1.97086e-05 0)
(0.000113256 -1.53531e-05 0)
(0.000130001 -8.31198e-06 0)
(0.000123886 -1.39265e-07 0)
(9.27696e-05 8.34397e-06 0)
(3.60393e-05 1.66966e-05 0)
(-4.5948e-05 2.46856e-05 0)
(-0.000152246 3.21919e-05 0)
(-0.000281557 3.91562e-05 0)
(-0.000432374 4.55533e-05 0)
(-0.000603074 5.1378e-05 0)
(-0.00079198 5.66366e-05 0)
(-0.0009974 6.13433e-05 0)
(-0.00121766 6.55165e-05 0)
(-0.00145111 6.91783e-05 0)
(-0.00169617 7.23521e-05 0)
(-0.00195129 7.50626e-05 0)
(-0.00221501 7.73352e-05 0)
(-0.00248593 7.91954e-05 0)
(-0.00276273 8.06688e-05 0)
(-0.00304414 8.17806e-05 0)
(-0.00332901 8.25558e-05 0)
(-0.00361623 8.30187e-05 0)
(-0.00390478 8.3193e-05 0)
(-0.00419371 8.31018e-05 0)
(-0.00448215 8.27673e-05 0)
(-0.00476929 8.22111e-05 0)
(-0.0050544 8.14537e-05 0)
(-0.0053368 8.05149e-05 0)
(-0.00561591 7.94133e-05 0)
(-0.00589117 7.81669e-05 0)
(-0.00616209 7.67925e-05 0)
(-0.00642825 7.53061e-05 0)
(-0.00668928 7.37228e-05 0)
(-0.00694484 7.20567e-05 0)
(-0.00719465 7.03209e-05 0)
(-0.00743849 6.85278e-05 0)
(-0.00767615 6.66887e-05 0)
(-0.00790748 6.48143e-05 0)
(-0.00813235 6.29142e-05 0)
(-0.00835068 6.09975e-05 0)
(-0.00856241 5.90721e-05 0)
(-0.00876751 5.71455e-05 0)
(-0.00896596 5.52243e-05 0)
(-0.00915779 5.33146e-05 0)
(-0.00934303 5.14217e-05 0)
(-0.00952173 4.95502e-05 0)
(-0.00969397 4.77043e-05 0)
(-0.00985982 4.58875e-05 0)
(-0.0100194 4.41028e-05 0)
(-0.0101728 4.23528e-05 0)
(-0.0103201 4.06394e-05 0)
(-0.0104614 3.89643e-05 0)
(-0.010597 3.73286e-05 0)
(-0.0107268 3.57331e-05 0)
(-0.0108511 3.41783e-05 0)
(-0.01097 3.26642e-05 0)
(-0.0110836 3.11906e-05 0)
(-0.011192 2.9757e-05 0)
(-0.0112954 2.83625e-05 0)
(-0.0113939 2.70061e-05 0)
(-0.0114876 2.56864e-05 0)
(-0.0115767 2.44021e-05 0)
(-0.0116612 2.31513e-05 0)
(-0.0117413 2.19322e-05 0)
(-0.0118171 2.07425e-05 0)
(-0.0118886 1.958e-05 0)
(-0.0119561 1.84424e-05 0)
(-0.0120194 1.73272e-05 0)
(-0.0120788 1.62316e-05 0)
(-0.0121342 1.51527e-05 0)
(-0.0121857 1.40878e-05 0)
(-0.0122334 1.30336e-05 0)
(-0.0122773 1.19874e-05 0)
(-0.0123175 1.09458e-05 0)
(-0.0123538 9.90567e-06 0)
(-0.0123863 8.86358e-06 0)
(-0.0124151 7.81611e-06 0)
(-0.01244 6.75985e-06 0)
(-0.0124611 5.69143e-06 0)
(-0.0124783 4.6074e-06 0)
(-0.0124915 3.50424e-06 0)
(-0.0125007 2.37837e-06 0)
(-0.0125057 1.22624e-06 0)
(-0.0125066 4.43317e-08 0)
(-0.0125031 -1.17076e-06 0)
(-0.0124951 -2.42242e-06 0)
(-0.0124826 -3.71401e-06 0)
(-0.0124654 -5.04888e-06 0)
(-0.0124433 -6.43028e-06 0)
(-0.0124161 -7.86134e-06 0)
(-0.0123838 -9.34501e-06 0)
(-0.012346 -1.08841e-05 0)
(-0.0123027 -1.24811e-05 0)
(-0.0122536 -1.41387e-05 0)
(-0.0121985 -1.58589e-05 0)
(-0.0121372 -1.76438e-05 0)
(-0.0120695 -1.9495e-05 0)
(-0.0119951 -2.1414e-05 0)
(-0.0119139 -2.34016e-05 0)
(-0.0118255 -2.54584e-05 0)
(-0.0117298 -2.75846e-05 0)
(-0.0116266 -2.978e-05 0)
(-0.0115155 -3.20437e-05 0)
(-0.0113965 -3.43745e-05 0)
(-0.0112692 -3.67702e-05 0)
(-0.0111335 -3.92284e-05 0)
(-0.0109891 -4.17458e-05 0)
(-0.010836 -4.43183e-05 0)
(-0.0106738 -4.69414e-05 0)
(-0.0105025 -4.96094e-05 0)
(-0.010322 -5.23159e-05 0)
(-0.0101321 -5.50538e-05 0)
(-0.00993281 -5.78148e-05 0)
(-0.00972401 -6.05898e-05 0)
(-0.00950572 -6.33687e-05 0)
(-0.00927796 -6.61404e-05 0)
(-0.0090408 -6.88928e-05 0)
(-0.00879434 -7.16126e-05 0)
(-0.00853875 -7.42857e-05 0)
(-0.00827423 -7.68968e-05 0)
(-0.00800103 -7.94296e-05 0)
(-0.00771948 -8.18668e-05 0)
(-0.00742995 -8.419e-05 0)
(-0.00713289 -8.63799e-05 0)
(-0.0068288 -8.84162e-05 0)
(-0.00651825 -9.02777e-05 0)
(-0.00620191 -9.19425e-05 0)
(-0.00588048 -9.33876e-05 0)
(-0.00555479 -9.45895e-05 0)
(-0.00522569 -9.55242e-05 0)
(-0.00489417 -9.61668e-05 0)
(-0.00456125 -9.6492e-05 0)
(-0.00422806 -9.64742e-05 0)
(-0.00389581 -9.60879e-05 0)
(-0.00356579 -9.53068e-05 0)
(-0.00323936 -9.4105e-05 0)
(-0.00291799 -9.24564e-05 0)
(-0.00260319 -9.03351e-05 0)
(-0.00229658 -8.77157e-05 0)
(-0.00199983 -8.45733e-05 0)
(-0.00171469 -8.0884e-05 0)
(-0.00144295 -7.6625e-05 0)
(-0.00118647 -7.17744e-05 0)
(-0.00094715 -6.63126e-05 0)
(-0.000726904 -6.02234e-05 0)
(-0.000527653 -5.34956e-05 0)
(-0.00035129 -4.61257e-05 0)
(-0.00019964 -3.81215e-05 0)
(-7.43929e-05 -2.9511e-05 0)
(2.29922e-05 -2.03578e-05 0)
(9.14434e-05 -1.0791e-05 0)
(0.000130532 -1.06128e-06 0)
(0.000140888 8.35247e-06 0)
(0.000124826 1.65477e-05 0)
(8.77104e-05 2.17924e-05 0)
(4.2037e-05 2.08645e-05 0)
(9.63158e-06 9.63414e-06 0)
(1.85615e-05 -3.70691e-05 0)
(7.03717e-05 -7.0285e-05 0)
(0.000132069 -6.77497e-05 0)
(0.000170172 -4.20848e-05 0)
(0.0001634 -3.15265e-06 0)
(0.000100312 4.27152e-05 0)
(-2.53547e-05 9.15509e-05 0)
(-0.000216337 0.000140872 0)
(-0.000472845 0.00018913 0)
(-0.000793373 0.000235365 0)
(-0.00117528 0.000278985 0)
(-0.00161518 0.000319636 0)
(-0.00210919 0.000357121 0)
(-0.00265316 0.000391351 0)
(-0.00324279 0.000422308 0)
(-0.00387371 0.000450028 0)
(-0.0045416 0.000474582 0)
(-0.00524219 0.000496067 0)
(-0.00597133 0.0005146 0)
(-0.00672502 0.000530308 0)
(-0.00749941 0.000543331 0)
(-0.00829085 0.000553811 0)
(-0.00909584 0.000561896 0)
(-0.00991112 0.000567733 0)
(-0.0107336 0.00057147 0)
(-0.0115604 0.000573256 0)
(-0.0123888 0.000573233 0)
(-0.0132163 0.000571544 0)
(-0.0140407 0.000568327 0)
(-0.0148598 0.000563715 0)
(-0.0156717 0.000557836 0)
(-0.0164747 0.000550815 0)
(-0.0172671 0.000542769 0)
(-0.0180476 0.000533811 0)
(-0.0188149 0.00052405 0)
(-0.0195679 0.000513585 0)
(-0.0203057 0.000502513 0)
(-0.0210273 0.000490923 0)
(-0.0217321 0.000478901 0)
(-0.0224195 0.000466523 0)
(-0.023089 0.000453864 0)
(-0.0237403 0.000440991 0)
(-0.024373 0.000427965 0)
(-0.0249869 0.000414844 0)
(-0.0255819 0.00040168 0)
(-0.0261579 0.000388519 0)
(-0.0267151 0.000375405 0)
(-0.0272533 0.000362375 0)
(-0.0277729 0.000349464 0)
(-0.0282739 0.0003367 0)
(-0.0287565 0.00032411 0)
(-0.029221 0.000311716 0)
(-0.0296677 0.000299537 0)
(-0.0300969 0.000287588 0)
(-0.0305089 0.000275881 0)
(-0.0309041 0.000264426 0)
(-0.0312828 0.00025323 0)
(-0.0316453 0.000242297 0)
(-0.0319921 0.000231628 0)
(-0.0323235 0.000221223 0)
(-0.0326399 0.00021108 0)
(-0.0329416 0.000201194 0)
(-0.0332291 0.000191558 0)
(-0.0335026 0.000182164 0)
(-0.0337624 0.000173003 0)
(-0.034009 0.000164064 0)
(-0.0342426 0.000155333 0)
(-0.0344635 0.000146798 0)
(-0.0346719 0.000138444 0)
(-0.0348682 0.000130253 0)
(-0.0350525 0.00012221 0)
(-0.035225 0.000114296 0)
(-0.0353859 0.000106493 0)
(-0.0355354 9.87814e-05 0)
(-0.0356734 9.11401e-05 0)
(-0.0358003 8.35489e-05 0)
(-0.0359159 7.59863e-05 0)
(-0.0360203 6.84306e-05 0)
(-0.0361135 6.08593e-05 0)
(-0.0361955 5.32494e-05 0)
(-0.0362661 4.55779e-05 0)
(-0.0363254 3.78215e-05 0)
(-0.0363731 2.99569e-05 0)
(-0.0364091 2.19606e-05 0)
(-0.0364331 1.3809e-05 0)
(-0.0364449 5.47859e-06 0)
(-0.0364443 -3.05415e-06 0)
(-0.036431 -1.18123e-05 0)
(-0.0364045 -2.08186e-05 0)
(-0.0363646 -3.00952e-05 0)
(-0.0363109 -3.96639e-05 0)
(-0.0362428 -4.95458e-05 0)
(-0.0361599 -5.97611e-05 0)
(-0.0360619 -7.03291e-05 0)
(-0.035948 -8.1268e-05 0)
(-0.0358179 -9.25944e-05 0)
(-0.0356708 -0.000104324 0)
(-0.0355064 -0.00011647 0)
(-0.0353239 -0.000129044 0)
(-0.0351228 -0.000142057 0)
(-0.0349023 -0.000155516 0)
(-0.034662 -0.000169426 0)
(-0.0344011 -0.000183789 0)
(-0.0341191 -0.000198604 0)
(-0.0338152 -0.000213868 0)
(-0.0334889 -0.000229573 0)
(-0.0331395 -0.000245709 0)
(-0.0327666 -0.000262258 0)
(-0.0323694 -0.000279203 0)
(-0.0319475 -0.000296518 0)
(-0.0315004 -0.000314176 0)
(-0.0310277 -0.000332141 0)
(-0.0305289 -0.000350373 0)
(-0.0300038 -0.000368829 0)
(-0.0294521 -0.000387456 0)
(-0.0288736 -0.000406198 0)
(-0.0282682 -0.000424991 0)
(-0.0276359 -0.000443766 0)
(-0.0269769 -0.000462445 0)
(-0.0262913 -0.000480945 0)
(-0.0255796 -0.000499178 0)
(-0.0248422 -0.000517045 0)
(-0.0240797 -0.000534445 0)
(-0.0232929 -0.000551266 0)
(-0.0224828 -0.000567393 0)
(-0.0216505 -0.000582702 0)
(-0.0207972 -0.000597065 0)
(-0.0199245 -0.000610346 0)
(-0.0190339 -0.000622406 0)
(-0.0181275 -0.0006331 0)
(-0.0172072 -0.000642278 0)
(-0.0162753 -0.000649786 0)
(-0.0153345 -0.000655468 0)
(-0.0143873 -0.000659164 0)
(-0.0134368 -0.000660714 0)
(-0.012486 -0.000659955 0)
(-0.0115385 -0.000656726 0)
(-0.0105979 -0.000650866 0)
(-0.0096679 -0.000642217 0)
(-0.00875261 -0.000630625 0)
(-0.00785627 -0.000615941 0)
(-0.00698331 -0.000598022 0)
(-0.00613832 -0.000576737 0)
(-0.00532606 -0.000551965 0)
(-0.00455139 -0.000523606 0)
(-0.00381928 -0.000491579 0)
(-0.00313474 -0.00045583 0)
(-0.00250277 -0.000416348 0)
(-0.00192828 -0.000373175 0)
(-0.00141598 -0.000326432 0)
(-0.000970236 -0.000276353 0)
(-0.000594867 -0.000223337 0)
(-0.000292857 -0.000168037 0)
(-6.59242e-05 -0.000111509 0)
(8.61094e-05 -5.54479e-05 0)
(0.000166214 -2.58867e-06 0)
(0.000181273 4.26682e-05 0)
(0.000143952 7.3236e-05 0)
(7.79646e-05 7.79421e-05 0)
(2.08573e-05 4.20341e-05 0)
(1.98084e-05 -7.86205e-05 0)
(6.81187e-05 -0.000132084 0)
(0.000111217 -0.000110665 0)
(0.000110408 -3.94531e-05 0)
(4.04365e-05 6.29665e-05 0)
(-0.000113558 0.000183376 0)
(-0.000360472 0.000312631 0)
(-0.000704706 0.000444525 0)
(-0.0011472 0.000574877 0)
(-0.0016864 0.000700892 0)
(-0.00231897 0.000820721 0)
(-0.00304031 0.000933169 0)
(-0.00384501 0.0010375 0)
(-0.00472707 0.00113329 0)
(-0.00568018 0.00122036 0)
(-0.00669787 0.00129869 0)
(-0.0077736 0.00136838 0)
(-0.0089009 0.00142964 0)
(-0.0100734 0.00148272 0)
(-0.011285 0.00152793 0)
(-0.0125296 0.00156562 0)
(-0.0138017 0.00159616 0)
(-0.0150956 0.00161992 0)
(-0.0164063 0.00163732 0)
(-0.017729 0.00164874 0)
(-0.0190589 0.00165459 0)
(-0.020392 0.00165526 0)
(-0.0217241 0.00165115 0)
(-0.0230517 0.00164263 0)
(-0.0243713 0.00163009 0)
(-0.0256799 0.00161388 0)
(-0.0269746 0.00159434 0)
(-0.028253 0.00157182 0)
(-0.0295126 0.00154664 0)
(-0.0307515 0.00151909 0)
(-0.0319678 0.00148948 0)
(-0.03316 0.00145806 0)
(-0.0343267 0.0014251 0)
(-0.0354667 0.00139085 0)
(-0.036579 0.00135552 0)
(-0.0376628 0.00131933 0)
(-0.0387175 0.00128247 0)
(-0.0397425 0.00124513 0)
(-0.0407375 0.00120746 0)
(-0.0417022 0.00116962 0)
(-0.0426366 0.00113175 0)
(-0.0435406 0.00109397 0)
(-0.0444143 0.00105639 0)
(-0.0452579 0.00101911 0)
(-0.0460716 0.000982223 0)
(-0.0468558 0.000945799 0)
(-0.0476108 0.000909907 0)
(-0.048337 0.000874602 0)
(-0.0490349 0.00083993 0)
(-0.049705 0.000805929 0)
(-0.0503479 0.000772629 0)
(-0.050964 0.00074005 0)
(-0.051554 0.000708205 0)
(-0.0521184 0.000677102 0)
(-0.0526578 0.00064674 0)
(-0.0531727 0.000617113 0)
(-0.0536639 0.00058821 0)
(-0.0541317 0.000560013 0)
(-0.0545768 0.0005325 0)
(-0.0549997 0.000505644 0)
(-0.0554009 0.000479414 0)
(-0.0557808 0.000453775 0)
(-0.05614 0.000428688 0)
(-0.0564788 0.000404112 0)
(-0.0567976 0.00038 0)
(-0.0570968 0.000356305 0)
(-0.0573767 0.000332975 0)
(-0.0576375 0.000309957 0)
(-0.0578795 0.000287195 0)
(-0.0581028 0.000264633 0)
(-0.0583076 0.000242209 0)
(-0.058494 0.000219864 0)
(-0.0586619 0.000197534 0)
(-0.0588114 0.000175156 0)
(-0.0589425 0.000152664 0)
(-0.0590549 0.000129994 0)
(-0.0591485 0.000107078 0)
(-0.0592232 8.38498e-05 0)
(-0.0592785 6.02422e-05 0)
(-0.0593143 3.61884e-05 0)
(-0.05933 1.16215e-05 0)
(-0.0593254 -1.35248e-05 0)
(-0.0592998 -3.93162e-05 0)
(-0.0592527 -6.58172e-05 0)
(-0.0591836 -9.30908e-05 0)
(-0.0590919 -0.000121198 0)
(-0.0589767 -0.000150199 0)
(-0.0588375 -0.000180149 0)
(-0.0586734 -0.000211102 0)
(-0.0584836 -0.00024311 0)
(-0.0582672 -0.000276218 0)
(-0.0580234 -0.00031047 0)
(-0.0577513 -0.000345902 0)
(-0.0574499 -0.000382546 0)
(-0.0571183 -0.000420429 0)
(-0.0567554 -0.00045957 0)
(-0.0563603 -0.000499982 0)
(-0.055932 -0.000541667 0)
(-0.0554695 -0.000584622 0)
(-0.0549718 -0.000628834 0)
(-0.0544379 -0.000674277 0)
(-0.0538669 -0.000720917 0)
(-0.053258 -0.000768708 0)
(-0.0526101 -0.00081759 0)
(-0.0519226 -0.000867493 0)
(-0.0511946 -0.000918329 0)
(-0.0504255 -0.000969998 0)
(-0.0496148 -0.00102238 0)
(-0.0487619 -0.00107536 0)
(-0.0478665 -0.00112876 0)
(-0.0469283 -0.00118244 0)
(-0.0459473 -0.00123621 0)
(-0.0449235 -0.00128986 0)
(-0.0438571 -0.00134318 0)
(-0.0427486 -0.00139593 0)
(-0.0415985 -0.00144784 0)
(-0.0404077 -0.00149865 0)
(-0.0391771 -0.00154806 0)
(-0.0379082 -0.00159575 0)
(-0.0366025 -0.00164139 0)
(-0.0352617 -0.00168463 0)
(-0.0338879 -0.00172511 0)
(-0.0324836 -0.00176244 0)
(-0.0310515 -0.00179624 0)
(-0.0295945 -0.00182609 0)
(-0.028116 -0.00185156 0)
(-0.0266197 -0.00187224 0)
(-0.0251095 -0.00188768 0)
(-0.0235898 -0.00189743 0)
(-0.0220654 -0.00190106 0)
(-0.0205411 -0.00189811 0)
(-0.0190225 -0.00188814 0)
(-0.0175151 -0.00187072 0)
(-0.0160251 -0.00184542 0)
(-0.0145587 -0.00181182 0)
(-0.0131226 -0.00176954 0)
(-0.0117237 -0.00171822 0)
(-0.0103691 -0.00165752 0)
(-0.00906602 -0.00158717 0)
(-0.00782206 -0.00150695 0)
(-0.00664473 -0.00141671 0)
(-0.00554157 -0.00131641 0)
(-0.00452004 -0.00120614 0)
(-0.00358734 -0.00108617 0)
(-0.00275029 -0.000957011 0)
(-0.00201502 -0.000819537 0)
(-0.0013867 -0.000675099 0)
(-0.000869112 -0.000525754 0)
(-0.00046404 -0.000374589 0)
(-0.000170489 -0.000226218 0)
(1.63721e-05 -8.75151e-05 0)
(0.000106388 3.1338e-05 0)
(0.000116077 0.00011552 0)
(7.35378e-05 0.000143986 0)
(2.18435e-05 8.77472e-05 0)
(1.558e-05 -0.000113659 0)
(4.29257e-05 -0.000170659 0)
(4.08996e-05 -0.000110066 0)
(-2.81181e-05 2.97326e-05 0)
(-0.00018982 0.000221195 0)
(-0.000460394 0.000443884 0)
(-0.000849912 0.000682932 0)
(-0.00136361 0.000927749 0)
(-0.00200285 0.00117086 0)
(-0.00276605 0.00140705 0)
(-0.00364942 0.0016327 0)
(-0.00464756 0.00184537 0)
(-0.0057539 0.00204347 0)
(-0.0069611 0.00222602 0)
(-0.00826127 0.00239252 0)
(-0.00964626 0.00254278 0)
(-0.0111077 0.00267689 0)
(-0.0126374 0.00279512 0)
(-0.0142271 0.00289787 0)
(-0.0158688 0.00298567 0)
(-0.0175547 0.00305912 0)
(-0.0192773 0.00311888 0)
(-0.0210294 0.00316565 0)
(-0.0228043 0.00320015 0)
(-0.0245954 0.00322312 0)
(-0.0263968 0.0032353 0)
(-0.0282026 0.00323745 0)
(-0.0300077 0.0032303 0)
(-0.031807 0.00321457 0)
(-0.0335961 0.00319098 0)
(-0.0353707 0.00316022 0)
(-0.0371271 0.00312295 0)
(-0.0388618 0.00307982 0)
(-0.0405717 0.00303144 0)
(-0.0422541 0.00297841 0)
(-0.0439064 0.00292127 0)
(-0.0455264 0.00286056 0)
(-0.0471123 0.00279679 0)
(-0.0486625 0.00273041 0)
(-0.0501755 0.00266188 0)
(-0.0516503 0.00259159 0)
(-0.0530859 0.00251994 0)
(-0.0544816 0.00244728 0)
(-0.0558368 0.00237392 0)
(-0.0571513 0.00230016 0)
(-0.0584248 0.00222628 0)
(-0.0596572 0.00215252 0)
(-0.0608487 0.0020791 0)
(-0.0619994 0.00200622 0)
(-0.0631097 0.00193404 0)
(-0.0641799 0.00186273 0)
(-0.0652105 0.0017924 0)
(-0.066202 0.00172318 0)
(-0.0671552 0.00165516 0)
(-0.0680705 0.0015884 0)
(-0.0689487 0.00152298 0)
(-0.0697905 0.00145894 0)
(-0.0705967 0.00139629 0)
(-0.071368 0.00133507 0)
(-0.0721051 0.00127526 0)
(-0.0728089 0.00121686 0)
(-0.0734801 0.00115986 0)
(-0.0741195 0.00110421 0)
(-0.0747277 0.00104987 0)
(-0.0753055 0.000996797 0)
(-0.0758534 0.00094493 0)
(-0.0763723 0.000894201 0)
(-0.0768626 0.000844536 0)
(-0.077325 0.000795852 0)
(-0.0777598 0.000748063 0)
(-0.0781677 0.000701076 0)
(-0.0785489 0.000654792 0)
(-0.078904 0.000609107 0)
(-0.079233 0.000563915 0)
(-0.0795363 0.000519103 0)
(-0.0798141 0.000474556 0)
(-0.0800665 0.000430156 0)
(-0.0802934 0.000385782 0)
(-0.080495 0.000341309 0)
(-0.080671 0.000296613 0)
(-0.0808214 0.000251565 0)
(-0.0809458 0.000206037 0)
(-0.0810441 0.000159901 0)
(-0.0811158 0.000113025 0)
(-0.0811604 6.52808e-05 0)
(-0.0811776 1.65391e-05 0)
(-0.0811666 -3.33281e-05 0)
(-0.0811268 -8.44471e-05 0)
(-0.0810576 -0.000136942 0)
(-0.080958 -0.000190934 0)
(-0.0808273 -0.000246542 0)
(-0.0806646 -0.000303877 0)
(-0.0804689 -0.00036305 0)
(-0.0802391 -0.000424163 0)
(-0.0799741 -0.000487311 0)
(-0.0796729 -0.000552584 0)
(-0.0793343 -0.000620061 0)
(-0.0789569 -0.000689812 0)
(-0.0785397 -0.000761898 0)
(-0.0780812 -0.000836365 0)
(-0.0775803 -0.00091325 0)
(-0.0770355 -0.000992571 0)
(-0.0764456 -0.00107433 0)
(-0.0758093 -0.00115853 0)
(-0.0751253 -0.00124512 0)
(-0.0743923 -0.00133406 0)
(-0.0736091 -0.00142528 0)
(-0.0727744 -0.00151869 0)
(-0.0718872 -0.00161416 0)
(-0.0709464 -0.00171156 0)
(-0.0699511 -0.0018107 0)
(-0.0689003 -0.0019114 0)
(-0.0677935 -0.00201343 0)
(-0.0666299 -0.00211652 0)
(-0.0654091 -0.00222039 0)
(-0.0641309 -0.0023247 0)
(-0.0627951 -0.00242911 0)
(-0.0614019 -0.00253322 0)
(-0.0599517 -0.00263659 0)
(-0.0584451 -0.00273877 0)
(-0.0568828 -0.00283926 0)
(-0.0552661 -0.00293751 0)
(-0.0535965 -0.00303296 0)
(-0.0518756 -0.003125 0)
(-0.0501056 -0.00321298 0)
(-0.048289 -0.00329624 0)
(-0.0464287 -0.00337407 0)
(-0.0445278 -0.00344573 0)
(-0.0425901 -0.00351046 0)
(-0.0406195 -0.00356749 0)
(-0.0386206 -0.003616 0)
(-0.0365982 -0.00365517 0)
(-0.0345578 -0.00368417 0)
(-0.0325052 -0.00370216 0)
(-0.0304466 -0.00370828 0)
(-0.0283887 -0.00370171 0)
(-0.0263386 -0.00368159 0)
(-0.024304 -0.00364713 0)
(-0.0222926 -0.00359753 0)
(-0.020313 -0.00353203 0)
(-0.0183738 -0.00344994 0)
(-0.0164841 -0.00335061 0)
(-0.014653 -0.00323348 0)
(-0.0128902 -0.00309809 0)
(-0.0112052 -0.00294411 0)
(-0.00960786 -0.00277136 0)
(-0.00810766 -0.0025799 0)
(-0.00671404 -0.00237006 0)
(-0.00543601 -0.00214253 0)
(-0.00428196 -0.00189849 0)
(-0.00325931 -0.00163981 0)
(-0.00237416 -0.00136924 0)
(-0.0016308 -0.00109083 0)
(-0.00103103 -0.000810371 0)
(-0.000573369 -0.000536137 0)
(-0.000252043 -0.000279879 0)
(-5.58661e-05 -5.8163e-05 0)
(3.31806e-05 0.000106111 0)
(4.3562e-05 0.00018184 0)
(1.67337e-05 0.000125129 0)
(8.69466e-06 -0.000131036 0)
(4.4905e-06 -0.000164795 0)
(-6.07418e-05 -4.06835e-05 0)
(-0.000218722 0.000191265 0)
(-0.000492951 0.000495203 0)
(-0.000899406 0.000843883 0)
(-0.00144815 0.00121685 0)
(-0.00214444 0.00159902 0)
(-0.00298959 0.0019794 0)
(-0.00398182 0.00235005 0)
(-0.00511691 0.00270528 0)
(-0.00638877 0.00304113 0)
(-0.00778996 0.0033549 0)
(-0.00931204 0.00364488 0)
(-0.0109459 0.00391006 0)
(-0.012682 0.00414998 0)
(-0.0145106 0.00436464 0)
(-0.0164219 0.00455432 0)
(-0.0184061 0.00471957 0)
(-0.0204536 0.00486112 0)
(-0.0225551 0.00497986 0)
(-0.0247016 0.00507676 0)
(-0.0268843 0.00515288 0)
(-0.0290951 0.00520933 0)
(-0.031326 0.00524726 0)
(-0.0335697 0.00526783 0)
(-0.0358191 0.0052722 0)
(-0.0380678 0.00526155 0)
(-0.0403097 0.00523702 0)
(-0.0425393 0.00519973 0)
(-0.0447513 0.00515079 0)
(-0.046941 0.00509126 0)
(-0.0491043 0.00502217 0)
(-0.0512371 0.0049445 0)
(-0.0533361 0.00485921 0)
(-0.0553981 0.00476719 0)
(-0.0574204 0.0046693 0)
(-0.0594006 0.00456634 0)
(-0.0613367 0.00445908 0)
(-0.063227 0.00434823 0)
(-0.06507 0.00423445 0)
(-0.0668644 0.00411836 0)
(-0.0686095 0.00400054 0)
(-0.0703044 0.00388152 0)
(-0.0719487 0.00376177 0)
(-0.0735422 0.00364174 0)
(-0.0750847 0.00352183 0)
(-0.0765763 0.0034024 0)
(-0.0780171 0.00328376 0)
(-0.0794076 0.00316621 0)
(-0.0807482 0.00305 0)
(-0.0820395 0.00293533 0)
(-0.083282 0.0028224 0)
(-0.0844765 0.00271136 0)
(-0.0856239 0.00260233 0)
(-0.0867248 0.00249542 0)
(-0.0877802 0.00239069 0)
(-0.0887911 0.00228821 0)
(-0.0897582 0.00218798 0)
(-0.0906826 0.00209003 0)
(-0.0915651 0.00199433 0)
(-0.0924068 0.00190086 0)
(-0.0932084 0.00180956 0)
(-0.0939708 0.00172037 0)
(-0.0946951 0.00163321 0)
(-0.0953818 0.00154798 0)
(-0.0960319 0.00146458 0)
(-0.096646 0.00138288 0)
(-0.0972248 0.00130277 0)
(-0.097769 0.00122409 0)
(-0.0982792 0.0011467 0)
(-0.0987557 0.00107043 0)
(-0.0991991 0.000995129 0)
(-0.0996097 0.000920614 0)
(-0.0999877 0.000846708 0)
(-0.100334 0.000773224 0)
(-0.100647 0.000699971 0)
(-0.100929 0.000626753 0)
(-0.101178 0.000553371 0)
(-0.101395 0.000479622 0)
(-0.10158 0.000405301 0)
(-0.101732 0.0003302 0)
(-0.10185 0.000254111 0)
(-0.101936 0.000176825 0)
(-0.101987 9.81329e-05 0)
(-0.102003 1.78268e-05 0)
(-0.101984 -6.42988e-05 0)
(-0.101928 -0.000148447 0)
(-0.101836 -0.000234816 0)
(-0.101705 -0.000323602 0)
(-0.101535 -0.000414993 0)
(-0.101325 -0.000509169 0)
(-0.101073 -0.000606306 0)
(-0.100778 -0.000706565 0)
(-0.10044 -0.0008101 0)
(-0.100055 -0.000917052 0)
(-0.0996243 -0.00102755 0)
(-0.0991449 -0.00114169 0)
(-0.0986154 -0.00125958 0)
(-0.0980345 -0.00138129 0)
(-0.0974006 -0.00150687 0)
(-0.0967119 -0.00163636 0)
(-0.095967 -0.00176974 0)
(-0.0951643 -0.00190701 0)
(-0.0943021 -0.0020481 0)
(-0.0933789 -0.00219293 0)
(-0.0923933 -0.00234138 0)
(-0.0913439 -0.0024933 0)
(-0.0902292 -0.00264848 0)
(-0.089048 -0.0028067 0)
(-0.0877992 -0.00296767 0)
(-0.0864818 -0.00313106 0)
(-0.0850949 -0.00329651 0)
(-0.0836378 -0.00346358 0)
(-0.08211 -0.00363181 0)
(-0.0805113 -0.00380067 0)
(-0.0788415 -0.00396957 0)
(-0.077101 -0.00413788 0)
(-0.0752901 -0.0043049 0)
(-0.0734096 -0.00446988 0)
(-0.0714608 -0.00463201 0)
(-0.0694449 -0.00479043 0)
(-0.067364 -0.00494421 0)
(-0.0652201 -0.00509237 0)
(-0.063016 -0.00523389 0)
(-0.0607548 -0.00536768 0)
(-0.05844 -0.0054926 0)
(-0.0560755 -0.00560749 0)
(-0.053666 -0.00571113 0)
(-0.0512165 -0.00580225 0)
(-0.0487324 -0.00587958 0)
(-0.0462198 -0.00594181 0)
(-0.0436853 -0.0059876 0)
(-0.0411361 -0.00601563 0)
(-0.0385798 -0.00602456 0)
(-0.0360245 -0.00601306 0)
(-0.033479 -0.00597983 0)
(-0.0309525 -0.0059236 0)
(-0.0284546 -0.00584315 0)
(-0.0259955 -0.00573733 0)
(-0.0235856 -0.00560506 0)
(-0.0212358 -0.0054454 0)
(-0.0189573 -0.00525754 0)
(-0.0167615 -0.00504084 0)
(-0.0146597 -0.0047949 0)
(-0.0126635 -0.00451959 0)
(-0.0107842 -0.00421514 0)
(-0.00903273 -0.00388228 0)
(-0.0074196 -0.00352229 0)
(-0.0059544 -0.00313728 0)
(-0.00464558 -0.00273037 0)
(-0.00349999 -0.00230606 0)
(-0.0025224 -0.00187073 0)
(-0.00171482 -0.00143322 0)
(-0.00107581 -0.00100575 0)
(-0.000599543 -0.000605043 0)
(-0.000274825 -0.000253877 0)
(-8.38844e-05 1.72755e-05 0)
(-8.5217e-07 0.000168097 0)
(8.7383e-06 0.000141864 0)
(6.67209e-07 -0.000125837 0)
(-4.1062e-05 -0.000102869 0)
(-0.000181031 0.000112754 0)
(-0.000441987 0.000461989 0)
(-0.000843332 0.000901879 0)
(-0.00139964 0.0013991 0)
(-0.00212 0.00192802 0)
(-0.00300895 0.00246929 0)
(-0.00406727 0.00300837 0)
(-0.00529269 0.0035345 0)
(-0.00668041 0.00403979 0)
(-0.00822371 0.00451858 0)
(-0.00991434 0.0049669 0)
(-0.011743 0.00538213 0)
(-0.0136994 0.00576266 0)
(-0.015773 0.00610765 0)
(-0.0179528 0.00641691 0)
(-0.0202277 0.00669072 0)
(-0.0225866 0.00692971 0)
(-0.0250186 0.00713483 0)
(-0.0275131 0.00730722 0)
(-0.0300596 0.00744823 0)
(-0.0326482 0.0075593 0)
(-0.0352693 0.00764196 0)
(-0.0379139 0.00769782 0)
(-0.0405733 0.00772852 0)
(-0.0432395 0.0077357 0)
(-0.0459048 0.00772103 0)
(-0.0485622 0.00768613 0)
(-0.0512052 0.00763262 0)
(-0.0538276 0.00756207 0)
(-0.0564241 0.00747603 0)
(-0.0589894 0.00737596 0)
(-0.0615192 0.00726331 0)
(-0.0640091 0.00713943 0)
(-0.0664557 0.00700564 0)
(-0.0688557 0.00686318 0)
(-0.0712062 0.00671322 0)
(-0.0735049 0.00655686 0)
(-0.0757495 0.00639516 0)
(-0.0779384 0.00622907 0)
(-0.0800702 0.0060595 0)
(-0.0821436 0.0058873 0)
(-0.084158 0.00571323 0)
(-0.0861125 0.00553801 0)
(-0.088007 0.00536228 0)
(-0.0898413 0.00518663 0)
(-0.0916153 0.00501159 0)
(-0.0933293 0.00483763 0)
(-0.0949836 0.00466517 0)
(-0.0965788 0.00449459 0)
(-0.0981156 0.0043262 0)
(-0.0995945 0.00416027 0)
(-0.101016 0.00399705 0)
(-0.102382 0.0038367 0)
(-0.103693 0.00367939 0)
(-0.10495 0.00352523 0)
(-0.106154 0.00337428 0)
(-0.107305 0.0032266 0)
(-0.108406 0.00308219 0)
(-0.109457 0.00294104 0)
(-0.110459 0.00280311 0)
(-0.111413 0.00266832 0)
(-0.112321 0.00253658 0)
(-0.113183 0.00240777 0)
(-0.114 0.00228177 0)
(-0.114774 0.00215841 0)
(-0.115504 0.00203752 0)
(-0.116192 0.00191892 0)
(-0.116839 0.0018024 0)
(-0.117445 0.00168774 0)
(-0.11801 0.00157471 0)
(-0.118536 0.00146308 0)
(-0.119023 0.00135259 0)
(-0.11947 0.00124297 0)
(-0.119879 0.00113396 0)
(-0.120249 0.00102529 0)
(-0.120581 0.000916652 0)
(-0.120874 0.000807772 0)
(-0.121128 0.000698353 0)
(-0.121344 0.000588095 0)
(-0.12152 0.000476698 0)
(-0.121656 0.000363857 0)
(-0.121752 0.000249271 0)
(-0.121807 0.000132635 0)
(-0.121821 1.36492e-05 0)
(-0.121792 -0.000107986 0)
(-0.12172 -0.000232563 0)
(-0.121603 -0.000360372 0)
(-0.121441 -0.000491693 0)
(-0.121231 -0.000626798 0)
(-0.120974 -0.00076595 0)
(-0.120667 -0.000909397 0)
(-0.120309 -0.00105738 0)
(-0.119899 -0.00121011 0)
(-0.119434 -0.00136778 0)
(-0.118914 -0.0015306 0)
(-0.118336 -0.00169869 0)
(-0.117699 -0.00187221 0)
(-0.117 -0.00205124 0)
(-0.116239 -0.00223587 0)
(-0.115413 -0.00242613 0)
(-0.11452 -0.00262201 0)
(-0.113559 -0.00282348 0)
(-0.112527 -0.00303046 0)
(-0.111423 -0.00324281 0)
(-0.110246 -0.00346036 0)
(-0.108993 -0.00368286 0)
(-0.107663 -0.00391003 0)
(-0.106255 -0.00414153 0)
(-0.104767 -0.00437692 0)
(-0.103198 -0.00461575 0)
(-0.101547 -0.00485745 0)
(-0.0998139 -0.00510141 0)
(-0.0979975 -0.00534693 0)
(-0.0960977 -0.00559324 0)
(-0.0941145 -0.00583948 0)
(-0.0920482 -0.00608474 0)
(-0.0898993 -0.00632799 0)
(-0.0876689 -0.00656814 0)
(-0.0853583 -0.00680402 0)
(-0.0829692 -0.00703436 0)
(-0.0805039 -0.00725782 0)
(-0.0779649 -0.00747299 0)
(-0.0753555 -0.00767837 0)
(-0.0726793 -0.00787239 0)
(-0.0699405 -0.00805342 0)
(-0.0671437 -0.00821975 0)
(-0.0642943 -0.00836964 0)
(-0.0613982 -0.00850127 0)
(-0.0584618 -0.00861279 0)
(-0.0554922 -0.00870233 0)
(-0.0524971 -0.00876799 0)
(-0.0494847 -0.00880785 0)
(-0.0464641 -0.00882001 0)
(-0.0434446 -0.00880258 0)
(-0.0404364 -0.00875374 0)
(-0.0374501 -0.00867168 0)
(-0.0344968 -0.0085547 0)
(-0.0315882 -0.00840121 0)
(-0.0287364 -0.00820975 0)
(-0.0259539 -0.00797904 0)
(-0.0232533 -0.00770802 0)
(-0.0206476 -0.0073959 0)
(-0.0181498 -0.00704225 0)
(-0.015773 -0.00664705 0)
(-0.0135297 -0.00621084 0)
(-0.0114324 -0.00573481 0)
(-0.00949271 -0.00522103 0)
(-0.00772121 -0.00467268 0)
(-0.0061273 -0.00409438 0)
(-0.00471857 -0.00349256 0)
(-0.0035004 -0.00287609 0)
(-0.00247535 -0.00225701 0)
(-0.00164253 -0.00165143 0)
(-0.000996892 -0.00108086 0)
(-0.000528334 -0.000573804 0)
(-0.000220674 -0.000167401 0)
(-5.27534e-05 9.02479e-05 0)
(-4.34815e-07 0.000132703 0)
(-7.72314e-06 -9.57736e-05 0)
(-8.99866e-05 2.18608e-05 0)
(-0.000311398 0.000359975 0)
(-0.000684108 0.000853181 0)
(-0.00122218 0.00145286 0)
(-0.00193788 0.00212056 0)
(-0.00283854 0.00282612 0)
(-0.00392734 0.00354624 0)
(-0.00520408 0.00426308 0)
(-0.00666564 0.0049631 0)
(-0.00830649 0.00563619 0)
(-0.0101192 0.00627492 0)
(-0.0120946 0.00687398 0)
(-0.0142226 0.00742974 0)
(-0.0164921 0.00793988 0)
(-0.0188915 0.00840313 0)
(-0.0214087 0.00881904 0)
(-0.0240315 0.00918782 0)
(-0.0267478 0.00951018 0)
(-0.0295454 0.00978725 0)
(-0.0324126 0.0100205 0)
(-0.0353378 0.0102115 0)
(-0.0383098 0.0103622 0)
(-0.0413182 0.0104747 0)
(-0.0443525 0.0105509 0)
(-0.0474033 0.010593 0)
(-0.0504614 0.0106033 0)
(-0.0535183 0.0105839 0)
(-0.056566 0.010537 0)
(-0.059597 0.0104647 0)
(-0.0626047 0.0103693 0)
(-0.0655826 0.0102527 0)
(-0.0685251 0.0101169 0)
(-0.071427 0.00996384 0)
(-0.0742836 0.00979542 0)
(-0.0770907 0.00961339 0)
(-0.0798447 0.00941942 0)
(-0.0825422 0.00921512 0)
(-0.0851806 0.00900198 0)
(-0.0877574 0.00878142 0)
(-0.0902706 0.00855477 0)
(-0.0927185 0.00832325 0)
(-0.0950998 0.00808802 0)
(-0.0974135 0.00785013 0)
(-0.099659 0.00761054 0)
(-0.101836 0.00737016 0)
(-0.103943 0.00712978 0)
(-0.105982 0.00689012 0)
(-0.107952 0.00665185 0)
(-0.109854 0.00641554 0)
(-0.111688 0.00618169 0)
(-0.113455 0.00595075 0)
(-0.115156 0.0057231 0)
(-0.116791 0.00549905 0)
(-0.118362 0.00527887 0)
(-0.11987 0.00506277 0)
(-0.121315 0.00485089 0)
(-0.1227 0.00464335 0)
(-0.124024 0.00444022 0)
(-0.12529 0.0042415 0)
(-0.126499 0.00404718 0)
(-0.127652 0.00385721 0)
(-0.128749 0.00367148 0)
(-0.129793 0.00348989 0)
(-0.130783 0.00331227 0)
(-0.131723 0.00313844 0)
(-0.132611 0.00296819 0)
(-0.13345 0.00280129 0)
(-0.13424 0.00263748 0)
(-0.134982 0.0024765 0)
(-0.135677 0.00231803 0)
(-0.136326 0.00216178 0)
(-0.136928 0.00200741 0)
(-0.137485 0.00185459 0)
(-0.137996 0.00170294 0)
(-0.138463 0.00155212 0)
(-0.138885 0.00140174 0)
(-0.139263 0.00125141 0)
(-0.139596 0.00110074 0)
(-0.139883 0.000949329 0)
(-0.140126 0.000796774 0)
(-0.140324 0.000642666 0)
(-0.140475 0.000486592 0)
(-0.14058 0.000328141 0)
(-0.140637 0.000166902 0)
(-0.140646 2.46697e-06 0)
(-0.140606 -0.000165568 0)
(-0.140516 -0.000337602 0)
(-0.140375 -0.000514024 0)
(-0.140181 -0.000695213 0)
(-0.139933 -0.000881539 0)
(-0.139629 -0.00107335 0)
(-0.139269 -0.00127099 0)
(-0.13885 -0.00147477 0)
(-0.13837 -0.00168499 0)
(-0.137828 -0.00190191 0)
(-0.137222 -0.00212577 0)
(-0.13655 -0.00235679 0)
(-0.13581 -0.00259513 0)
(-0.134999 -0.00284093 0)
(-0.134117 -0.00309427 0)
(-0.13316 -0.00335522 0)
(-0.132127 -0.00362375 0)
(-0.131015 -0.0038998 0)
(-0.129823 -0.00418327 0)
(-0.128549 -0.00447395 0)
(-0.127191 -0.00477161 0)
(-0.125746 -0.00507591 0)
(-0.124214 -0.00538646 0)
(-0.122592 -0.00570277 0)
(-0.120879 -0.00602427 0)
(-0.119074 -0.00635031 0)
(-0.117176 -0.00668014 0)
(-0.115184 -0.0070129 0)
(-0.113098 -0.00734765 0)
(-0.110916 -0.00768333 0)
(-0.10864 -0.00801878 0)
(-0.106269 -0.00835275 0)
(-0.103805 -0.00868384 0)
(-0.101247 -0.00901057 0)
(-0.0985993 -0.00933134 0)
(-0.0958621 -0.00964444 0)
(-0.0930384 -0.00994806 0)
(-0.0901312 -0.0102403 0)
(-0.0871441 -0.0105191 0)
(-0.0840812 -0.0107823 0)
(-0.0809473 -0.0110278 0)
(-0.0777478 -0.0112532 0)
(-0.0744886 -0.0114562 0)
(-0.0711764 -0.0116343 0)
(-0.0678184 -0.0117851 0)
(-0.0644227 -0.0119061 0)