/*--------------------------------*- C++ -*----------------------------------*\
  =========                 |
  \\      /  F ield         | OpenFOAM: The Open Source CFD Toolbox
   \\    /   O peration     | Website:  https://openfoam.org
    \\  /    A nd           | Version:  7
     \\/     M anipulation  |
\*---------------------------------------------------------------------------*/
FoamFile
{
    version     2.0;
    format      ascii;
    class       surfaceScalarField;
    location    "0.25";
    object      phi;
}
// * * * * * * * * * * * * * * * * * * * * * * * * * * * * * * * * * * * * * //

dimensions      [0 3 -1 0 0 0 0];

internalField   nonuniform List<scalar> 
25360
(
5.23065e-11
-5.44028e-11
1.9614e-10
-1.43825e-10
3.64545e-10
-1.68403e-10
5.09393e-10
-1.44841e-10
6.02384e-10
-9.30065e-11
6.27628e-10
-2.52494e-11
5.77076e-10
5.05546e-11
4.47733e-10
1.29356e-10
2.3985e-10
2.07887e-10
-4.4227e-11
2.84076e-10
-4.00823e-10
3.56594e-10
-8.2543e-10
4.24602e-10
-1.31307e-09
4.87637e-10
-1.85854e-09
5.45481e-10
-2.45662e-09
5.9807e-10
-3.10211e-09
6.45489e-10
-3.79002e-09
6.87915e-10
-4.51561e-09
7.25578e-10
-5.27436e-09
7.58753e-10
-6.06212e-09
7.8775e-10
-6.87502e-09
8.12899e-10
-7.70955e-09
8.34533e-10
-8.56253e-09
8.52982e-10
-9.43108e-09
8.68567e-10
-1.03127e-08
8.81601e-10
-1.12051e-08
8.92396e-10
-1.21063e-08
9.01248e-10
-1.30148e-08
9.08426e-10
-1.39289e-08
9.14172e-10
-1.48476e-08
9.1872e-10
-1.57699e-08
9.2229e-10
-1.6695e-08
9.25084e-10
-1.76223e-08
9.27278e-10
-1.85513e-08
9.29033e-10
-1.94818e-08
9.30492e-10
-2.04136e-08
9.31787e-10
-2.13466e-08
9.33031e-10
-2.2281e-08
9.34328e-10
-2.32167e-08
9.35769e-10
-2.41542e-08
9.37434e-10
-2.50935e-08
9.39389e-10
-2.60352e-08
9.41692e-10
-2.69796e-08
9.44392e-10
-2.79272e-08
9.47536e-10
-2.88783e-08
9.51163e-10
-2.98336e-08
9.553e-10
-3.07936e-08
9.59969e-10
-3.17588e-08
9.65192e-10
-3.27298e-08
9.70985e-10
-3.37071e-08
9.77359e-10
-3.46914e-08
9.84322e-10
-3.56833e-08
9.91875e-10
-3.66833e-08
1.00002e-09
-3.76921e-08
1.00875e-09
-3.87101e-08
1.01805e-09
-3.97381e-08
1.02793e-09
-4.07764e-08
1.03835e-09
-4.18257e-08
1.04931e-09
-4.28865e-08
1.06078e-09
-4.39593e-08
1.07274e-09
-4.50444e-08
1.08515e-09
-4.61424e-08
1.09797e-09
-4.72536e-08
1.11118e-09
-4.83783e-08
1.12472e-09
-4.95168e-08
1.13855e-09
-5.06694e-08
1.1526e-09
-5.18363e-08
1.16683e-09
-5.30174e-08
1.18115e-09
-5.42129e-08
1.19551e-09
-5.54227e-08
1.20981e-09
-5.66467e-08
1.22398e-09
-5.78846e-08
1.23791e-09
-5.91361e-08
1.25151e-09
-6.04008e-08
1.26466e-09
-6.16781e-08
1.27725e-09
-6.29672e-08
1.28914e-09
-6.42674e-08
1.30021e-09
-6.55777e-08
1.31031e-09
-6.6897e-08
1.31927e-09
-6.82239e-08
1.32695e-09
-6.95571e-08
1.33316e-09
-7.08948e-08
1.33772e-09
-7.22353e-08
1.34044e-09
-7.35764e-08
1.34113e-09
-7.49159e-08
1.33956e-09
-7.62515e-08
1.33553e-09
-7.75803e-08
1.32881e-09
-7.88995e-08
1.31917e-09
-8.02058e-08
1.30635e-09
-8.14959e-08
1.29013e-09
-8.27662e-08
1.27024e-09
-8.40126e-08
1.24643e-09
-8.52311e-08
1.21845e-09
-8.64171e-08
1.18604e-09
-8.7566e-08
1.14894e-09
-8.86729e-08
1.1069e-09
-8.97326e-08
1.05968e-09
-9.07397e-08
1.00704e-09
-9.16884e-08
9.4876e-10
-9.2573e-08
8.84621e-10
-9.33875e-08
8.14432e-10
-9.41255e-08
7.38024e-10
-9.47807e-08
6.55251e-10
-9.53467e-08
5.65998e-10
-9.58169e-08
4.70184e-10
-9.61847e-08
3.67766e-10
-9.64434e-08
2.58744e-10
-9.65866e-08
1.43166e-10
-9.66077e-08
2.11364e-11
-9.65005e-08
-1.07193e-10
-9.62589e-08
-2.41596e-10
-9.58772e-08
-3.81791e-10
-9.53497e-08
-5.27423e-10
-9.46717e-08
-6.78062e-10
-9.38385e-08
-8.33203e-10
-9.28462e-08
-9.9226e-10
-9.16916e-08
-1.15457e-09
-9.03723e-08
-1.31938e-09
-8.88864e-08
-1.48586e-09
-8.72333e-08
-1.6531e-09
-8.54132e-08
-1.82012e-09
-8.34273e-08
-1.98586e-09
-8.12782e-08
-2.14918e-09
-7.89692e-08
-2.3089e-09
-7.65055e-08
-2.46378e-09
-7.38929e-08
-2.61253e-09
-7.11391e-08
-2.75383e-09
-6.82528e-08
-2.88634e-09
-6.52441e-08
-3.00871e-09
-6.21245e-08
-3.11961e-09
-5.89067e-08
-3.21774e-09
-5.56049e-08
-3.30182e-09
-5.22342e-08
-3.37065e-09
-4.88112e-08
-3.42309e-09
-4.5353e-08
-3.45811e-09
-4.18783e-08
-3.47478e-09
-3.8406e-08
-3.47229e-09
-3.4956e-08
-3.44996e-09
-3.15487e-08
-3.40728e-09
-2.82049e-08
-3.34388e-09
-2.49453e-08
-3.25956e-09
-2.1791e-08
-3.1543e-09
-1.87628e-08
-3.02824e-09
-1.58811e-08
-2.88171e-09
-1.31658e-08
-2.7152e-09
-1.06364e-08
-2.5294e-09
-8.31129e-09
-2.32516e-09
-6.20773e-09
-2.10356e-09
-4.34186e-09
-1.86587e-09
-2.72818e-09
-1.61368e-09
-1.3792e-09
-1.34898e-09
-3.04877e-10
-1.07432e-09
4.88347e-10
-7.93225e-10
9.99085e-10
-5.10738e-10
1.2336e-09
-2.34512e-10
1.21062e-09
2.2975e-11
9.69307e-10
2.41315e-10
5.83478e-10
3.8583e-10
1.88711e-10
3.94766e-10
1.88714e-10
1.42968e-10
-1.97367e-10
4.10436e-10
-4.11315e-10
6.90407e-10
-4.48371e-10
8.99034e-10
-3.53464e-10
9.77071e-10
-1.71029e-10
8.86168e-10
6.56463e-11
6.03864e-10
3.32851e-10
1.193e-10
6.1391e-10
-5.70107e-10
8.97292e-10
-1.46112e-09
1.1751e-09
-2.54649e-09
1.44196e-09
-3.81623e-09
1.69434e-09
-5.25864e-09
1.93006e-09
-6.86101e-09
2.14785e-09
-8.61014e-09
2.3472e-09
-1.04927e-08
2.52811e-09
-1.24958e-08
2.69096e-09
-1.46066e-08
2.83643e-09
-1.68133e-08
2.96539e-09
-1.91044e-08
3.07885e-09
-2.14694e-08
3.17791e-09
-2.38986e-08
3.26373e-09
-2.63831e-08
3.33749e-09
-2.89149e-08
3.40034e-09
-3.14867e-08
3.45344e-09
-3.40922e-08
3.49788e-09
-3.67257e-08
3.53474e-09
-3.93823e-08
3.56502e-09
-4.20578e-08
3.58966e-09
-4.47486e-08
3.60953e-09
-4.74517e-08
3.62545e-09
-5.01648e-08
3.63818e-09
-5.28859e-08
3.64838e-09
-5.56136e-08
3.65669e-09
-5.83468e-08
3.66367e-09
-6.10848e-08
3.66982e-09
-6.38274e-08
3.67559e-09
-6.65744e-08
3.68138e-09
-6.93262e-08
3.68756e-09
-7.20832e-08
3.69442e-09
-7.4846e-08
3.70224e-09
-7.76156e-08
3.71125e-09
-8.03929e-08
3.72168e-09
-8.3179e-08
3.73368e-09
-8.59753e-08
3.74741e-09
-8.87829e-08
3.76299e-09
-9.16035e-08
3.78052e-09
-9.44384e-08
3.80009e-09
-9.72892e-08
3.82175e-09
-1.00157e-07
3.84556e-09
-1.03045e-07
3.87154e-09
-1.05952e-07
3.8997e-09
-1.08882e-07
3.93004e-09
-1.11836e-07
3.96256e-09
-1.14815e-07
3.99721e-09
-1.17821e-07
4.03394e-09
-1.20856e-07
4.07271e-09
-1.2392e-07
4.11343e-09
-1.27015e-07
4.15601e-09
-1.30143e-07
4.20034e-09
-1.33304e-07
4.24631e-09
-1.365e-07
4.29376e-09
-1.39731e-07
4.34255e-09
-1.42999e-07
4.39248e-09
-1.46304e-07
4.44337e-09
-1.49646e-07
4.49498e-09
-1.53026e-07
4.54708e-09
-1.56444e-07
4.5994e-09
-1.59901e-07
4.65164e-09
-1.63394e-07
4.70349e-09
-1.66925e-07
4.75461e-09
-1.70492e-07
4.80461e-09
-1.74093e-07
4.85311e-09
-1.77728e-07
4.89966e-09
-1.81395e-07
4.9438e-09
-1.85091e-07
4.98504e-09
-1.88813e-07
5.02284e-09
-1.9256e-07
5.05664e-09
-1.96326e-07
5.08585e-09
-2.00109e-07
5.10982e-09
-2.03904e-07
5.12791e-09
-2.07706e-07
5.1394e-09
-2.11509e-07
5.14356e-09
-2.15307e-07
5.13964e-09
-2.19094e-07
5.12683e-09
-2.22863e-07
5.10431e-09
-2.26606e-07
5.07123e-09
-2.30313e-07
5.0267e-09
-2.33977e-07
4.96983e-09
-2.37586e-07
4.89969e-09
-2.41131e-07
4.81535e-09
-2.44601e-07
4.71587e-09
-2.47983e-07
4.6003e-09
-2.51264e-07
4.4677e-09
-2.54432e-07
4.31713e-09
-2.57473e-07
4.14768e-09
-2.60372e-07
3.95848e-09
-2.63114e-07
3.74866e-09
-2.65682e-07
3.51743e-09
-2.68062e-07
3.26405e-09
-2.70235e-07
2.98785e-09
-2.72185e-07
2.68825e-09
-2.73895e-07
2.36479e-09
-2.75346e-07
2.01708e-09
-2.76521e-07
1.64491e-09
-2.77401e-07
1.24819e-09
-2.77969e-07
8.27009e-10
-2.78208e-07
3.81622e-10
-2.78099e-07
-8.75059e-11
-2.77627e-07
-5.79703e-10
-2.76774e-07
-1.09406e-09
-2.75527e-07
-1.62943e-09
-2.7387e-07
-2.18441e-09
-2.7179e-07
-2.75732e-09
-2.69277e-07
-3.3462e-09
-2.66321e-07
-3.94879e-09
-2.62913e-07
-4.56258e-09
-2.59047e-07
-5.1847e-09
-2.54721e-07
-5.81204e-09
-2.49933e-07
-6.44119e-09
-2.44685e-07
-7.06845e-09
-2.38981e-07
-7.68987e-09
-2.32829e-07
-8.30126e-09
-2.26239e-07
-8.89821e-09
-2.19227e-07
-9.47614e-09
-2.11809e-07
-1.00303e-08
-2.04007e-07
-1.05559e-08
-1.95846e-07
-1.10479e-08
-1.87353e-07
-1.15015e-08
-1.78561e-07
-1.19117e-08
-1.69505e-07
-1.22739e-08
-1.60223e-07
-1.25834e-08
-1.50758e-07
-1.28357e-08
-1.41154e-07
-1.30269e-08
-1.31459e-07
-1.3153e-08
-1.21723e-07
-1.32109e-08
-1.11998e-07
-1.31974e-08
-1.02338e-07
-1.31103e-08
-9.27973e-08
-1.29477e-08
-8.34329e-08
-1.27083e-08
-7.43011e-08
-1.23914e-08
-6.54583e-08
-1.19971e-08
-5.69605e-08
-1.1526e-08
-4.88626e-08
-1.09795e-08
-4.12182e-08
-1.03597e-08
-3.40782e-08
-9.66931e-09
-2.74914e-08
-8.91199e-09
-2.15027e-08
-8.09223e-09
-1.61531e-08
-7.21553e-09
-1.1478e-08
-6.28875e-09
-7.5065e-09
-5.32047e-09
-4.25906e-09
-4.32175e-09
-1.74497e-09
-3.30732e-09
4.17906e-11
-2.2975e-09
1.12875e-09
-1.32147e-09
1.57355e-09
-4.21826e-10
1.47759e-09
3.37279e-10
1.0034e-09
8.60019e-10
3.93223e-10
1.00495e-09
5.81938e-10
1.68965e-10
-3.6633e-10
4.49948e-10
-6.92298e-10
7.01839e-10
-7.00287e-10
8.2332e-10
-4.7494e-10
7.40315e-10
-8.80257e-11
4.02114e-10
4.03858e-10
-2.22972e-10
9.57938e-10
-1.15178e-09
1.54271e-09
-2.38982e-09
2.13534e-09
-3.9342e-09
2.71947e-09
-5.77587e-09
3.28363e-09
-7.90146e-09
3.81994e-09
-1.02947e-08
4.32325e-09
-1.29373e-08
4.79047e-09
-1.58101e-08
5.22003e-09
-1.88936e-08
5.61154e-09
-2.21681e-08
5.96548e-09
-2.56147e-08
6.28299e-09
-2.92149e-08
6.56568e-09
-3.29516e-08
6.8155e-09
-3.68083e-08
7.03462e-09
-4.07699e-08
7.22536e-09
-4.48225e-08
7.39012e-09
-4.89535e-08
7.53131e-09
-5.31514e-08
7.65129e-09
-5.74059e-08
7.75241e-09
-6.1708e-08
7.83687e-09
-6.60498e-08
7.90681e-09
-7.04244e-08
7.96424e-09
-7.48259e-08
8.01103e-09
-7.92494e-08
8.04894e-09
-8.36908e-08
8.07957e-09
-8.81468e-08
8.10442e-09
-9.26149e-08
8.12481e-09
-9.70932e-08
8.142e-09
-1.0158e-07
8.15707e-09
-1.06076e-07
8.17102e-09
-1.10579e-07
8.18473e-09
-1.15091e-07
8.199e-09
-1.19611e-07
8.21452e-09
-1.2414e-07
8.23189e-09
-1.28681e-07
8.25165e-09
-1.33233e-07
8.27425e-09
-1.378e-07
8.30009e-09
-1.42382e-07
8.32951e-09
-1.46982e-07
8.36279e-09
-1.51601e-07
8.40015e-09
-1.56243e-07
8.4418e-09
-1.60909e-07
8.48787e-09
-1.65602e-07
8.53846e-09
-1.70324e-07
8.59364e-09
-1.75078e-07
8.65344e-09
-1.79866e-07
8.71785e-09
-1.8469e-07
8.78684e-09
-1.89553e-07
8.86035e-09
-1.94457e-07
8.93826e-09
-1.99405e-07
9.02044e-09
-2.04398e-07
9.10671e-09
-2.09439e-07
9.19687e-09
-2.1453e-07
9.29067e-09
-2.19671e-07
9.38784e-09
-2.24865e-07
9.48805e-09
-2.30114e-07
9.59095e-09
-2.35418e-07
9.69612e-09
-2.40777e-07
9.80313e-09
-2.46194e-07
9.91146e-09
-2.51667e-07
1.00206e-08
-2.57198e-07
1.01299e-08
-2.62785e-07
1.02387e-08
-2.68428e-07
1.03464e-08
-2.74125e-07
1.04521e-08
-2.79876e-07
1.0555e-08
-2.85677e-07
1.06543e-08
-2.91526e-07
1.0749e-08
-2.9742e-07
1.0838e-08
-3.03355e-07
1.09202e-08
-3.09327e-07
1.09946e-08
-3.1533e-07
1.10598e-08
-3.21359e-07
1.11145e-08
-3.27407e-07
1.11574e-08
-3.33466e-07
1.11871e-08
-3.39528e-07
1.12019e-08
-3.45585e-07
1.12004e-08
-3.51626e-07
1.11808e-08
-3.57641e-07
1.11414e-08
-3.63617e-07
1.10805e-08
-3.69542e-07
1.09962e-08
-3.75402e-07
1.08866e-08
-3.81182e-07
1.07499e-08
-3.86866e-07
1.0584e-08
-3.92438e-07
1.03869e-08
-3.97879e-07
1.01568e-08
-4.0317e-07
9.89146e-09
-4.08291e-07
9.58904e-09
-4.13222e-07
9.24754e-09
-4.17939e-07
8.86508e-09
-4.2242e-07
8.43981e-09
-4.26642e-07
7.96998e-09
-4.30578e-07
7.45397e-09
-4.34204e-07
6.89027e-09
-4.37494e-07
6.27755e-09
-4.40421e-07
5.61468e-09
-4.42957e-07
4.90074e-09
-4.45075e-07
4.13508e-09
-4.46747e-07
3.31731e-09
-4.47946e-07
2.4474e-09
-4.48645e-07
1.52564e-09
-4.48816e-07
5.52732e-10
-4.48433e-07
-4.70207e-10
-4.47471e-07
-1.5416e-09
-4.45906e-07
-2.6594e-09
-4.43714e-07
-3.821e-09
-4.40875e-07
-5.02329e-09
-4.3737e-07
-6.26258e-09
-4.33182e-07
-7.53457e-09
-4.28296e-07
-8.83439e-09
-4.22702e-07
-1.01565e-08
-4.16392e-07
-1.14949e-08
-4.09361e-07
-1.28428e-08
-4.0161e-07
-1.41928e-08
-3.93141e-07
-1.55372e-08
-3.83963e-07
-1.68675e-08
-3.7409e-07
-1.81749e-08
-3.63538e-07
-1.94499e-08
-3.52331e-07
-2.06829e-08
-3.40498e-07
-2.18639e-08
-3.28071e-07
-2.29827e-08
-3.1509e-07
-2.40289e-08
-3.01599e-07
-2.49922e-08
-2.87648e-07
-2.58624e-08
-2.73293e-07
-2.66295e-08
-2.58592e-07
-2.72838e-08
-2.43612e-07
-2.78162e-08
-2.28421e-07
-2.82179e-08
-2.13093e-07
-2.84812e-08
-1.97704e-07
-2.85991e-08
-1.82336e-07
-2.85654e-08
-1.67071e-07
-2.83752e-08
-1.51994e-07
-2.80247e-08
-1.37191e-07
-2.75114e-08
-1.22749e-07
-2.68338e-08
-1.08754e-07
-2.59924e-08
-9.52912e-08
-2.49885e-08
-8.24452e-08
-2.38255e-08
-7.02968e-08
-2.2508e-08
-5.89237e-08
-2.10425e-08
-4.83986e-08
-1.94371e-08
-3.87887e-08
-1.77022e-08
-3.01538e-08
-1.58504e-08
-2.25449e-08
-1.38977e-08
-1.60019e-08
-1.18634e-08
-1.05509e-08
-9.77278e-09
-6.19994e-09
-7.65824e-09
-2.93416e-09
-5.56328e-09
-7.08313e-10
-3.54731e-09
5.63018e-10
-1.69315e-09
1.01792e-09
-1.17619e-10
8.61872e-10
1.01607e-09
3.84089e-10
1.48274e-09
9.66028e-10
1.47224e-10
-5.13545e-10
3.58099e-10
-9.03172e-10
4.79774e-10
-8.21954e-10
4.02957e-10
-3.9814e-10
4.75108e-11
2.67423e-10
-6.42707e-10
1.09407e-09
-1.70386e-09
2.01909e-09
-3.15595e-09
2.99482e-09
-5.00624e-09
3.98562e-09
-7.25198e-09
4.96521e-09
-9.88294e-09
5.91459e-09
-1.28834e-08
6.82037e-09
-1.62336e-08
7.67347e-09
-1.99113e-08
8.46821e-09
-2.38927e-08
9.20144e-09
-2.81532e-08
9.87202e-09
-3.26681e-08
1.04803e-08
-3.7413e-08
1.10279e-08
-4.23644e-08
1.15171e-08
-4.74999e-08
1.1951e-08
-5.27982e-08
1.23329e-08
-5.82396e-08
1.26667e-08
-6.38057e-08
1.29562e-08
-6.94797e-08
1.32053e-08
-7.52464e-08
1.3418e-08
-8.10922e-08
1.35982e-08
-8.70048e-08
1.37495e-08
-9.29735e-08
1.38755e-08
-9.89889e-08
1.39797e-08
-1.05043e-07
1.40652e-08
-1.11129e-07
1.41349e-08
-1.17241e-07
1.41917e-08
-1.23375e-07
1.4238e-08
-1.29526e-07
1.42763e-08
-1.35693e-07
1.43085e-08
-1.41872e-07
1.43367e-08
-1.48064e-07
1.43625e-08
-1.54267e-07
1.43875e-08
-1.60481e-07
1.4413e-08
-1.66706e-07
1.44403e-08
-1.72945e-07
1.44705e-08
-1.79198e-07
1.45044e-08
-1.85466e-07
1.45429e-08
-1.91753e-07
1.45867e-08
-1.9806e-07
1.46364e-08
-2.0439e-07
1.46925e-08
-2.10745e-07
1.47554e-08
-2.17129e-07
1.48254e-08
-2.23544e-07
1.49028e-08
-2.29993e-07
1.49878e-08
-2.3648e-07
1.50805e-08
-2.43007e-07
1.5181e-08
-2.49579e-07
1.52891e-08
-2.56197e-07
1.5405e-08
-2.62865e-07
1.55284e-08
-2.69586e-07
1.56592e-08
-2.76362e-07
1.57971e-08
-2.83198e-07
1.59418e-08
-2.90094e-07
1.6093e-08
-2.97053e-07
1.62501e-08
-3.04078e-07
1.64128e-08
-3.1117e-07
1.65804e-08
-3.18332e-07
1.67523e-08
-3.25563e-07
1.69277e-08
-3.32866e-07
1.71059e-08
-3.40241e-07
1.7286e-08
-3.47687e-07
1.74671e-08
-3.55205e-07
1.7648e-08
-3.62794e-07
1.78276e-08
-3.70452e-07
1.80047e-08
-3.78178e-07
1.81779e-08
-3.85969e-07
1.83457e-08
-3.93821e-07
1.85067e-08
-4.01731e-07
1.8659e-08
-4.09694e-07
1.8801e-08
-4.17705e-07
1.89307e-08
-4.25756e-07
1.90461e-08
-4.33842e-07
1.91451e-08
-4.41953e-07
1.92254e-08
-4.5008e-07
1.92846e-08
-4.58213e-07
1.93202e-08
-4.66341e-07
1.93296e-08
-4.7445e-07
1.931e-08
-4.82528e-07
1.92587e-08
-4.90559e-07
1.91727e-08
-4.98528e-07
1.9049e-08
-5.06416e-07
1.88843e-08
-5.14205e-07
1.86756e-08
-5.21875e-07
1.84196e-08
-5.29404e-07
1.81129e-08
-5.36769e-07
1.77522e-08
-5.43946e-07
1.73341e-08
-5.5091e-07
1.68554e-08
-5.57634e-07
1.63127e-08
-5.64089e-07
1.57027e-08
-5.70246e-07
1.50224e-08
-5.76075e-07
1.42686e-08
-5.81544e-07
1.34386e-08
-5.86619e-07
1.25296e-08
-5.91268e-07
1.15394e-08
-5.95457e-07
1.04657e-08
-5.99149e-07
9.30673e-09
-6.02309e-07
8.06121e-09
-6.04902e-07
6.72814e-09
-6.06892e-07
5.30708e-09
-6.08243e-07
3.79814e-09
-6.08919e-07
2.20202e-09
-6.08886e-07
5.20095e-10
-6.08111e-07
-1.24554e-09
-6.06561e-07
-3.09202e-09
-6.04204e-07
-5.01566e-09
-6.01013e-07
-7.01192e-09
-5.96961e-07
-9.07531e-09
-5.92025e-07
-1.11994e-08
-5.86182e-07
-1.33769e-08
-5.79417e-07
-1.55993e-08
-5.71717e-07
-1.78572e-08
-5.63071e-07
-2.01402e-08
-5.53477e-07
-2.24369e-08
-5.42935e-07
-2.4735e-08
-5.31451e-07
-2.70211e-08
-5.19038e-07
-2.92809e-08
-5.05713e-07
-3.14997e-08
-4.91501e-07
-3.36616e-08
-4.76434e-07
-3.57503e-08
-4.60549e-07
-3.77492e-08
-4.4389e-07
-3.96411e-08
-4.2651e-07
-4.14088e-08
-4.08467e-07
-4.3035e-08
-3.89827e-07
-4.45027e-08
-3.70662e-07
-4.57951e-08
-3.51049e-07
-4.68961e-08
-3.31075e-07
-4.77906e-08
-3.10829e-07
-4.8464e-08
-2.90407e-07
-4.89035e-08
-2.69908e-07
-4.90973e-08
-2.49438e-07
-4.90354e-08
-2.29104e-07
-4.87096e-08
-2.09015e-07
-4.81135e-08
-1.89283e-07
-4.72431e-08
-1.70021e-07
-4.60964e-08
-1.51339e-07
-4.4674e-08
-1.33349e-07
-4.29788e-08
-1.16158e-07
-4.10166e-08
-9.98703e-08
-3.87957e-08
-8.45851e-08
-3.63277e-08
-7.03951e-08
-3.36271e-08
-5.7385e-08
-3.07123e-08
-4.56296e-08
-2.76059e-08
-3.51915e-08
-2.43358e-08
-2.61185e-08
-2.09364e-08
-1.84402e-08
-1.7451e-08
-1.21636e-08
-1.39348e-08
-7.26749e-09
-1.04594e-08
-3.69545e-09
-7.11935e-09
-1.34734e-09
-4.04126e-09
-6.86466e-11
-1.39631e-09
3.61565e-10
5.85863e-10
2.44717e-10
1.59959e-09
1.21075e-09
9.64408e-11
-6.09996e-10
1.75825e-10
-9.82546e-10
8.91897e-11
-7.35322e-10
-2.72043e-10
-3.69016e-11
-9.87978e-10
9.83352e-10
-2.11521e-09
2.22131e-09
-3.69064e-09
3.59453e-09
-5.73489e-09
5.03907e-09
-8.25529e-09
6.50601e-09
-1.12486e-08
7.95848e-09
-1.47032e-08
9.36921e-09
-1.86013e-08
1.07185e-08
-2.29207e-08
1.19928e-08
-2.76356e-08
1.31832e-08
-3.27186e-08
1.42845e-08
-3.81411e-08
1.52945e-08
-4.38742e-08
1.62134e-08
-4.98891e-08
1.70428e-08
-5.61581e-08
1.77861e-08
-6.26542e-08
1.84472e-08
-6.93523e-08
1.9031e-08
-7.62283e-08
1.95427e-08
-8.32602e-08
1.99881e-08
-9.04275e-08
2.03727e-08
-9.77118e-08
2.07023e-08
-1.05096e-07
2.09826e-08
-1.12566e-07
2.1219e-08
-1.20107e-07
2.14168e-08
-1.27708e-07
2.15811e-08
-1.3536e-07
2.17166e-08
-1.43053e-07
2.18278e-08
-1.5078e-07
2.19187e-08
-1.58535e-07
2.19933e-08
-1.66314e-07
2.20549e-08
-1.74112e-07
2.21069e-08
-1.81927e-07
2.21521e-08
-1.89758e-07
2.21931e-08
-1.97603e-07
2.22323e-08
-2.05462e-07
2.22718e-08
-2.13335e-07
2.23135e-08
-2.21223e-07
2.2359e-08
-2.29129e-07
2.24098e-08
-2.37053e-07
2.24671e-08
-2.44998e-07
2.25319e-08
-2.52967e-07
2.26054e-08
-2.60963e-07
2.26881e-08
-2.68988e-07
2.27808e-08
-2.77047e-07
2.2884e-08
-2.85142e-07
2.29981e-08
-2.93277e-07
2.31233e-08
-3.01457e-07
2.326e-08
-3.09684e-07
2.3408e-08
-3.17962e-07
2.35675e-08
-3.26296e-07
2.37383e-08
-3.34687e-07
2.39203e-08
-3.43141e-07
2.41131e-08
-3.51661e-07
2.43163e-08
-3.60248e-07
2.45295e-08
-3.68907e-07
2.47521e-08
-3.77641e-07
2.49834e-08
-3.86451e-07
2.52226e-08
-3.95339e-07
2.54689e-08
-4.04308e-07
2.57211e-08
-4.13359e-07
2.59783e-08
-4.22492e-07
2.62391e-08
-4.31708e-07
2.65021e-08
-4.41007e-07
2.6766e-08
-4.50388e-07
2.7029e-08
-4.59849e-07
2.72893e-08
-4.6939e-07
2.75451e-08
-4.79006e-07
2.77942e-08
-4.88695e-07
2.80344e-08
-4.98452e-07
2.82633e-08
-5.08271e-07
2.84783e-08
-5.18147e-07
2.86767e-08
-5.28071e-07
2.88556e-08
-5.38037e-07
2.90118e-08
-5.48034e-07
2.91422e-08
-5.58052e-07
2.92432e-08
-5.68079e-07
2.93113e-08
-5.78101e-07
2.93427e-08
-5.88105e-07
2.93333e-08
-5.98074e-07
2.92792e-08
-6.07991e-07
2.91759e-08
-6.17838e-07
2.90192e-08
-6.27593e-07
2.88044e-08
-6.37236e-07
2.85268e-08
-6.46742e-07
2.81818e-08
-6.56087e-07
2.77643e-08
-6.65243e-07
2.72695e-08
-6.74184e-07
2.66925e-08
-6.82878e-07
2.60283e-08
-6.91294e-07
2.52719e-08
-6.994e-07
2.44185e-08
-7.07161e-07
2.34634e-08
-7.1454e-07
2.2402e-08
-7.21502e-07
2.12299e-08
-7.28006e-07
1.9943e-08
-7.34014e-07
1.85375e-08
-7.39484e-07
1.701e-08
-7.44376e-07
1.53575e-08
-7.48647e-07
1.35777e-08
-7.52255e-07
1.16686e-08
-7.55156e-07
9.62918e-09
-7.57308e-07
7.45892e-09
-7.58668e-07
5.15827e-09
-7.59194e-07
2.72855e-09
-7.58846e-07
1.72084e-10
-7.57584e-07
-2.50775e-09
-7.5537e-07
-5.30643e-09
-7.52167e-07
-8.2182e-09
-7.47943e-07
-1.1236e-08
-7.42667e-07
-1.43515e-08
-7.36311e-07
-1.7555e-08
-7.28853e-07
-2.08351e-08
-7.20273e-07
-2.41793e-08
-7.10557e-07
-2.75734e-08
-6.99695e-07
-3.10018e-08
-6.87684e-07
-3.44475e-08
-6.74527e-07
-3.7892e-08
-6.60233e-07
-4.13155e-08
-6.44817e-07
-4.46969e-08
-6.28303e-07
-4.8014e-08
-6.10721e-07
-5.12436e-08
-5.92109e-07
-5.43617e-08
-5.72515e-07
-5.73436e-08
-5.51992e-07
-6.01639e-08
-5.30604e-07
-6.27972e-08
-5.08421e-07
-6.52183e-08
-4.85521e-07
-6.74019e-08
-4.61993e-07
-6.93235e-08
-4.37929e-07
-7.09595e-08
-4.13433e-07
-7.22874e-08
-3.88611e-07
-7.32861e-08
-3.63578e-07
-7.39365e-08
-3.38454e-07
-7.42215e-08
-3.13363e-07
-7.41264e-08
-2.88433e-07
-7.36391e-08
-2.63796e-07
-7.27505e-08
-2.39584e-07
-7.14547e-08
-2.15932e-07
-6.97492e-08
-1.92971e-07
-6.76349e-08
-1.70833e-07
-6.51166e-08
-1.49646e-07
-6.22034e-08
-1.29534e-07
-5.89081e-08
-1.10613e-07
-5.52486e-08
-9.29923e-08
-5.12476e-08
-7.67714e-08
-4.69332e-08
-6.2037e-08
-4.23403e-08
-4.88612e-08
-3.75115e-08
-3.72985e-08
-3.24991e-08
-2.73821e-08
-2.73675e-08
-1.91193e-08
-2.21976e-08
-1.24867e-08
-1.7092e-08
-7.42419e-09
-1.21819e-08
-3.82749e-09
-7.63796e-09
-1.54064e-09
-3.68316e-09
-3.4727e-10
-6.07505e-10
3.9725e-11
1.2126e-09
1.25047e-09
2.81367e-11
-6.38137e-10
-6.68393e-11
-8.87577e-10
-4.19728e-10
-3.82428e-10
-1.13152e-09
6.74893e-10
-2.27729e-09
2.12912e-09
-3.91023e-09
3.85425e-09
-6.06493e-09
5.74923e-09
-8.76029e-09
7.73442e-09
-1.20021e-08
9.74786e-09
-1.57856e-08
1.1742e-08
-2.00975e-08
1.3681e-08
-2.49177e-08
1.55387e-08
-3.02214e-08
1.72965e-08
-3.59803e-08
1.8942e-08
-4.21636e-08
2.04678e-08
-4.87394e-08
2.18703e-08
-5.56753e-08
2.31492e-08
-6.29389e-08
2.43064e-08
-7.04987e-08
2.53459e-08
-7.83242e-08
2.62727e-08
-8.63866e-08
2.70933e-08
-9.46585e-08
2.78146e-08
-1.03114e-07
2.8444e-08
-1.11731e-07
2.89891e-08
-1.20486e-07
2.94577e-08
-1.29361e-07
2.98574e-08
-1.38338e-07
3.01957e-08
-1.47401e-07
3.04798e-08
-1.56536e-07
3.07166e-08
-1.65732e-07
3.09127e-08
-1.74979e-07
3.1074e-08
-1.84266e-07
3.12065e-08
-1.93588e-07
3.13153e-08
-2.02939e-07
3.14053e-08
-2.12313e-07
3.14811e-08
-2.21708e-07
3.15466e-08
-2.3112e-07
3.16056e-08
-2.40549e-07
3.16614e-08
-2.49994e-07
3.17168e-08
-2.59455e-07
3.17747e-08
-2.68934e-07
3.18373e-08
-2.7843e-07
3.19066e-08
-2.87948e-07
3.19844e-08
-2.97488e-07
3.20724e-08
-3.07055e-07
3.21718e-08
-3.1665e-07
3.22837e-08
-3.26278e-07
3.24091e-08
-3.35943e-07
3.25486e-08
-3.45648e-07
3.2703e-08
-3.55397e-07
3.28726e-08
-3.65195e-07
3.30576e-08
-3.75045e-07
3.32582e-08
-3.84952e-07
3.34744e-08
-3.94919e-07
3.3706e-08
-4.04952e-07
3.39527e-08
-4.15053e-07
3.42142e-08
-4.25226e-07
3.44897e-08
-4.35476e-07
3.47788e-08
-4.45804e-07
3.50804e-08
-4.56214e-07
3.53936e-08
-4.66709e-07
3.57173e-08
-4.7729e-07
3.60502e-08
-4.8796e-07
3.63909e-08
-4.98719e-07
3.67377e-08
-5.09569e-07
3.70888e-08
-5.20509e-07
3.74424e-08
-5.3154e-07
3.77962e-08
-5.42659e-07
3.81479e-08
-5.53864e-07
3.8495e-08
-5.65154e-07
3.88347e-08
-5.76524e-07
3.91641e-08
-5.87969e-07
3.94799e-08
-5.99485e-07
3.97789e-08
-6.11064e-07
4.00572e-08
-6.22698e-07
4.03112e-08
-6.34379e-07
4.05366e-08
-6.46097e-07
4.07292e-08
-6.57839e-07
4.08843e-08
-6.69593e-07
4.09972e-08
-6.81344e-07
4.10628e-08
-6.93077e-07
4.10757e-08
-7.04774e-07
4.10305e-08
-7.16417e-07
4.09215e-08
-7.27983e-07
4.07426e-08
-7.39452e-07
4.04879e-08
-7.50799e-07
4.01509e-08
-7.61997e-07
3.97253e-08
-7.7302e-07
3.92044e-08
-7.83837e-07
3.85817e-08
-7.94418e-07
3.78502e-08
-8.04729e-07
3.70034e-08
-8.14735e-07
3.60344e-08
-8.244e-07
3.49365e-08
-8.33684e-07
3.37032e-08
-8.42549e-07
3.23281e-08
-8.50952e-07
3.08051e-08
-8.5885e-07
2.91282e-08
-8.662e-07
2.72921e-08
-8.72954e-07
2.52918e-08
-8.79067e-07
2.31227e-08
-8.8449e-07
2.07812e-08
-8.89177e-07
1.82641e-08
-8.93077e-07
1.55692e-08
-8.96143e-07
1.26952e-08
-8.98326e-07
9.64186e-09
-8.99578e-07
6.41008e-09
-8.99851e-07
3.00201e-09
-8.99101e-07
-5.78825e-10
-8.97281e-07
-4.32745e-09
-8.9435e-07
-8.23731e-09
-8.90268e-07
-1.23002e-08
-8.84998e-07
-1.65061e-08
-8.78506e-07
-2.08434e-08
-8.70763e-07
-2.52982e-08
-8.61743e-07
-2.98551e-08
-8.51426e-07
-3.44963e-08
-8.39797e-07
-3.92025e-08
-8.26847e-07
-4.39519e-08
-8.12573e-07
-4.87212e-08
-7.9698e-07
-5.3485e-08
-7.80079e-07
-5.82162e-08
-7.6189e-07
-6.28858e-08
-7.42441e-07
-6.74636e-08
-7.21767e-07
-7.19178e-08
-6.99913e-07
-7.62156e-08
-6.76933e-07
-8.03233e-08
-6.5289e-07
-8.42066e-08
-6.27856e-07
-8.78309e-08
-6.01913e-07
-9.11616e-08
-5.7515e-07
-9.41646e-08
-5.47668e-07
-9.68065e-08
-5.19572e-07
-9.90552e-08
-4.90979e-07
-1.0088e-07
-4.62013e-07
-1.02253e-07
-4.32802e-07
-1.03147e-07
-4.03484e-07
-1.0354e-07
-3.742e-07
-1.03411e-07
-3.45095e-07
-1.02744e-07
-3.16318e-07
-1.01527e-07
-2.88021e-07
-9.97523e-08
-2.60354e-07
-9.7416e-08
-2.33468e-07
-9.45202e-08
-2.07513e-07
-9.10717e-08
-1.82633e-07
-8.70832e-08
-1.58968e-07
-8.25733e-08
-1.3665e-07
-7.7567e-08
-1.15801e-07
-7.20962e-08
-9.65337e-08
-6.62008e-08
-7.89447e-08
-5.99294e-08
-6.31149e-08
-5.33413e-08
-4.91054e-08
-4.65085e-08
-3.6954e-08
-3.95189e-08
-2.66712e-08
-3.24804e-08
-1.82359e-08
-2.55272e-08
-1.15906e-08
-1.88272e-08
-6.63614e-09
-1.25925e-08
-3.22649e-09
-7.0928e-09
-1.16404e-09
-2.66996e-09
-1.94555e-10
2.43124e-10
1.05592e-09
-5.06789e-11
-5.87457e-10
-3.48939e-10
-5.89321e-10
-1.00996e-09
2.78588e-10
-2.12215e-09
1.78708e-09
-3.75166e-09
3.75864e-09
-5.94521e-09
6.04779e-09
-8.7325e-09
8.53651e-09
-1.21287e-08
1.11306e-08
-1.61365e-08
1.37557e-08
-2.07485e-08
1.6354e-08
-2.59488e-08
1.88814e-08
-3.17151e-08
2.1305e-08
-3.80197e-08
2.36012e-08
-4.48318e-08
2.57541e-08
-5.21176e-08
2.77537e-08
-5.98424e-08
2.95951e-08
-6.79705e-08
3.12773e-08
-7.64665e-08
3.28025e-08
-8.52958e-08
3.41751e-08
-9.44247e-08
3.54017e-08
-1.03821e-07
3.64899e-08
-1.13455e-07
3.74486e-08
-1.23298e-07
3.82869e-08
-1.33324e-07
3.90148e-08
-1.43508e-07
3.96419e-08
-1.53829e-07
4.01783e-08
-1.64266e-07
4.06334e-08
-1.74803e-07
4.10165e-08
-1.85423e-07
4.13367e-08
-1.96113e-07
4.16024e-08
-2.06861e-07
4.18217e-08
-2.17656e-07
4.20019e-08
-2.28491e-07
4.21501e-08
-2.39358e-07
4.22726e-08
-2.50253e-07
4.23753e-08
-2.6117e-07
4.24637e-08
-2.72107e-07
4.25425e-08
-2.83061e-07
4.26162e-08
-2.94033e-07
4.26887e-08
-3.05022e-07
4.27635e-08
-3.16029e-07
4.28438e-08
-3.27054e-07
4.29323e-08
-3.38101e-07
4.30313e-08
-3.49172e-07
4.31431e-08
-3.60269e-07
4.32692e-08
-3.71397e-07
4.34114e-08
-3.82559e-07
4.35707e-08
-3.93758e-07
4.37483e-08
-4.05e-07
4.39448e-08
-4.16289e-07
4.41609e-08
-4.27628e-07
4.43969e-08
-4.39023e-07
4.4653e-08
-4.50477e-07
4.49291e-08
-4.61997e-07
4.52251e-08
-4.73584e-07
4.55404e-08
-4.85245e-07
4.58747e-08
-4.96982e-07
4.6227e-08
-5.088e-07
4.65964e-08
-5.20701e-07
4.69818e-08
-5.32689e-07
4.73819e-08
-5.44767e-07
4.77951e-08
-5.56937e-07
4.82196e-08
-5.69199e-07
4.86535e-08
-5.81556e-07
4.90947e-08
-5.94008e-07
4.95406e-08
-6.06554e-07
4.99887e-08
-6.19194e-07
5.04361e-08
-6.31926e-07
5.08796e-08
-6.44747e-07
5.13157e-08
-6.57653e-07
5.17409e-08
-6.7064e-07
5.21511e-08
-6.83702e-07
5.25421e-08
-6.96832e-07
5.29093e-08
-7.10023e-07
5.32479e-08
-7.23265e-07
5.35528e-08
-7.36547e-07
5.38185e-08
-7.49856e-07
5.40391e-08
-7.63181e-07
5.42088e-08
-7.76505e-07
5.4321e-08
-7.89811e-07
5.43691e-08
-8.03081e-07
5.43461e-08
-8.16296e-07
5.42448e-08
-8.29432e-07
5.40577e-08
-8.42466e-07
5.37769e-08
-8.55373e-07
5.33944e-08
-8.68124e-07
5.29021e-08
-8.8069e-07
5.22915e-08
-8.9304e-07
5.15541e-08
-9.05139e-07
5.06811e-08
-9.16953e-07
4.9664e-08
-9.28443e-07
4.84939e-08
-9.39571e-07
4.71623e-08
-9.50295e-07
4.56604e-08
-9.60572e-07
4.39799e-08
-9.70356e-07
4.21127e-08
-9.79602e-07
4.00509e-08
-9.88261e-07
3.77873e-08
-9.96284e-07
3.53149e-08
-1.00362e-06
3.26274e-08
-1.01022e-06
2.97196e-08
-1.01602e-06
2.65866e-08
-1.02098e-06
2.32249e-08
-1.02505e-06
1.9632e-08
-1.02816e-06
1.58064e-08
-1.03026e-06
1.17484e-08
-1.03131e-06
7.45934e-09
-1.03125e-06
2.94255e-09
-1.03003e-06
-1.79703e-09
-1.02761e-06
-6.75255e-09
-1.02393e-06
-1.19151e-08
-1.01896e-06
-1.72737e-08
-1.01265e-06
-2.2815e-08
-1.00497e-06
-2.85234e-08
-9.95887e-07
-3.43809e-08
-9.85375e-07
-4.0367e-08
-9.73413e-07
-4.64586e-08
-9.59985e-07
-5.26302e-08
-9.45083e-07
-5.88537e-08
-9.28706e-07
-6.50986e-08
-9.10859e-07
-7.1332e-08
-8.91556e-07
-7.75187e-08
-8.70821e-07
-8.36213e-08
-8.48684e-07
-8.96005e-08
-8.25186e-07
-9.54155e-08
-8.00378e-07
-1.01024e-07
-7.74319e-07
-1.06382e-07
-7.47079e-07
-1.11446e-07
-7.18739e-07
-1.16171e-07
-6.89388e-07
-1.20513e-07
-6.59127e-07
-1.24427e-07
-6.28063e-07
-1.2787e-07
-5.96316e-07
-1.30802e-07
-5.64014e-07
-1.33183e-07
-5.31291e-07
-1.34975e-07
-4.98292e-07
-1.36146e-07
-4.65165e-07
-1.36666e-07
-4.32067e-07
-1.36509e-07
-3.99158e-07
-1.35653e-07
-3.66601e-07
-1.34084e-07
-3.34564e-07
-1.3179e-07
-3.03211e-07
-1.28768e-07
-2.72711e-07
-1.25021e-07
-2.43226e-07
-1.20557e-07
-2.14915e-07
-1.15394e-07
-1.87932e-07
-1.09556e-07
-1.62423e-07
-1.03076e-07
-1.38522e-07
-9.59971e-08
-1.16352e-07
-8.83709e-08
-9.60195e-08
-8.02616e-08
-7.76146e-08
-7.17463e-08
-6.12053e-08
-6.29178e-08
-4.68358e-08
-5.38883e-08
-3.45229e-08
-4.47934e-08
-2.4252e-08
-3.57981e-08
-1.5974e-08
-2.71052e-08
-9.60191e-09
-1.89645e-08
-5.00829e-09
-1.16864e-08
-2.02375e-09
-5.6545e-09
-4.37368e-10
-1.34326e-09
6.18549e-10
-1.35585e-10
-4.51862e-10
-6.56242e-10
-6.86717e-11
-1.65493e-09
1.27727e-09
-3.20436e-09
3.33652e-09
-5.35892e-09
5.9132e-09
-8.1563e-09
8.84517e-09
-1.16193e-08
1.19995e-08
-1.57574e-08
1.52687e-08
-2.0569e-08
1.85673e-08
-2.60429e-08
2.18279e-08
-3.21599e-08
2.49983e-08
-3.88945e-08
2.80396e-08
-4.62164e-08
3.09231e-08
-5.40918e-08
3.36294e-08
-6.24842e-08
3.61462e-08
-7.13561e-08
3.8467e-08
-8.06691e-08
4.05903e-08
-9.03849e-08
4.25183e-08
-1.00466e-07
4.42563e-08
-1.10876e-07
4.5812e-08
-1.21581e-07
4.71945e-08
-1.32547e-07
4.84146e-08
-1.43744e-07
4.94835e-08
-1.55142e-07
5.04132e-08
-1.66716e-07
5.12158e-08
-1.78441e-07
5.19034e-08
-1.90296e-07
5.2488e-08
-2.0226e-07
5.29811e-08
-2.14317e-07
5.33939e-08
-2.26452e-07
5.37369e-08
-2.3865e-07
5.40201e-08
-2.50901e-07
5.42531e-08
-2.63196e-07
5.44444e-08
-2.75526e-07
5.46023e-08
-2.87884e-07
5.4734e-08
-3.00267e-07
5.48465e-08
-3.1267e-07
5.49459e-08
-3.25092e-07
5.50378e-08
-3.37531e-07
5.51272e-08
-3.49986e-07
5.52186e-08
-3.62458e-07
5.53161e-08
-3.74949e-07
5.5423e-08
-3.8746e-07
5.55425e-08
-3.99994e-07
5.56773e-08
-4.12554e-07
5.58297e-08
-4.25145e-07
5.60016e-08
-4.37768e-07
5.61945e-08
-4.5043e-07
5.641e-08
-4.63134e-07
5.66488e-08
-4.75885e-07
5.69117e-08
-4.88687e-07
5.71993e-08
-5.01546e-07
5.75117e-08