/*--------------------------------*- C++ -*----------------------------------*\
  =========                 |
  \\      /  F ield         | OpenFOAM: The Open Source CFD Toolbox
   \\    /   O peration     | Website:  https://openfoam.org
    \\  /    A nd           | Version:  7
     \\/     M anipulation  |
\*---------------------------------------------------------------------------*/
FoamFile
{
    version     2.0;
    format      ascii;
    class       volVectorField;
    location    "0.25";
    object      U;
}
// * * * * * * * * * * * * * * * * * * * * * * * * * * * * * * * * * * * * * //

dimensions      [0 1 -1 0 0 0 0];

internalField   nonuniform List<vector> 
12800
(
(3.32826e-06 -3.48102e-06 0)
(1.8591e-05 -9.9782e-06 0)
(4.48732e-05 -1.21758e-05 0)
(7.12675e-05 -1.11429e-05 0)
(9.10942e-05 -8.35276e-06 0)
(0.000100987 -4.67438e-06 0)
(9.91896e-05 -6.17824e-07 0)
(8.48746e-05 3.52138e-06 0)
(5.78731e-05 7.57278e-06 0)
(1.84266e-05 1.14407e-05 0)
(-3.29622e-05 1.50673e-05 0)
(-9.56219e-05 1.842e-05 0)
(-0.000168781 2.14883e-05 0)
(-0.000251617 2.42721e-05 0)
(-0.00034329 2.67747e-05 0)
(-0.000442963 2.9005e-05 0)
(-0.000549817 3.09779e-05 0)
(-0.000663069 3.271e-05 0)
(-0.000781979 3.4218e-05 0)
(-0.000905851 3.55201e-05 0)
(-0.00103404 3.66347e-05 0)
(-0.00116597 3.75802e-05 0)
(-0.00130108 3.83742e-05 0)
(-0.00143891 3.90334e-05 0)
(-0.00157902 3.95737e-05 0)
(-0.00172102 4.00106e-05 0)
(-0.00186458 4.03595e-05 0)
(-0.00200942 4.06338e-05 0)
(-0.00215528 4.08452e-05 0)
(-0.00230195 4.10047e-05 0)
(-0.00244927 4.1123e-05 0)
(-0.00259708 4.12095e-05 0)
(-0.0027453 4.12726e-05 0)
(-0.00289382 4.13199e-05 0)
(-0.00304259 4.1358e-05 0)
(-0.00319158 4.13926e-05 0)
(-0.00334076 4.14287e-05 0)
(-0.00349015 4.1471e-05 0)
(-0.00363975 4.1524e-05 0)
(-0.0037896 4.15912e-05 0)
(-0.00393973 4.16755e-05 0)
(-0.0040902 4.17787e-05 0)
(-0.00424108 4.19029e-05 0)
(-0.00439241 4.20503e-05 0)
(-0.00454429 4.22226e-05 0)
(-0.00469679 4.24213e-05 0)
(-0.00484999 4.2647e-05 0)
(-0.00500398 4.29006e-05 0)
(-0.00515885 4.31825e-05 0)
(-0.0053147 4.34932e-05 0)
(-0.00547161 4.38329e-05 0)
(-0.00562968 4.42019e-05 0)
(-0.00578901 4.46002e-05 0)
(-0.00594969 4.50278e-05 0)
(-0.00611182 4.54841e-05 0)
(-0.00627547 4.59687e-05 0)
(-0.00644076 4.64807e-05 0)
(-0.00660775 4.70195e-05 0)
(-0.00677654 4.75842e-05 0)
(-0.0069472 4.81738e-05 0)
(-0.00711982 4.87869e-05 0)
(-0.00729445 4.9422e-05 0)
(-0.00747117 5.00774e-05 0)
(-0.00765004 5.07512e-05 0)
(-0.00783109 5.14413e-05 0)
(-0.00801437 5.21454e-05 0)
(-0.00819992 5.28609e-05 0)
(-0.00838776 5.35848e-05 0)
(-0.0085779 5.43139e-05 0)
(-0.00877033 5.50445e-05 0)
(-0.00896504 5.57731e-05 0)
(-0.009162 5.64956e-05 0)
(-0.00936117 5.72076e-05 0)
(-0.00956249 5.79041e-05 0)
(-0.00976587 5.85795e-05 0)
(-0.00997121 5.92282e-05 0)
(-0.0101784 5.98437e-05 0)
(-0.0103873 6.04196e-05 0)
(-0.0105977 6.09487e-05 0)
(-0.0108094 6.14235e-05 0)
(-0.0110223 6.18358e-05 0)
(-0.0112361 6.21772e-05 0)
(-0.0114504 6.24386e-05 0)
(-0.011665 6.26108e-05 0)
(-0.0118795 6.2684e-05 0)
(-0.0120937 6.2648e-05 0)
(-0.0123069 6.24917e-05 0)
(-0.0125189 6.2204e-05 0)
(-0.012729 6.1773e-05 0)
(-0.0129369 6.11869e-05 0)
(-0.0131419 6.04333e-05 0)
(-0.0133434 5.94997e-05 0)
(-0.0135407 5.83732e-05 0)
(-0.0137333 5.70409e-05 0)
(-0.0139202 5.54901e-05 0)
(-0.0141009 5.3708e-05 0)
(-0.0142744 5.1682e-05 0)
(-0.01444 4.93998e-05 0)
(-0.0145967 4.68495e-05 0)
(-0.0147436 4.40199e-05 0)
(-0.0148797 4.09002e-05 0)
(-0.0150042 3.74809e-05 0)
(-0.0151159 3.37535e-05 0)
(-0.0152138 2.97109e-05 0)
(-0.015297 2.53477e-05 0)
(-0.0153642 2.066e-05 0)
(-0.0154146 1.56461e-05 0)
(-0.015447 1.03066e-05 0)
(-0.0154604 4.64456e-06 0)
(-0.0154537 -1.3339e-06 0)
(-0.0154261 -7.62018e-06 0)
(-0.0153764 -1.42022e-05 0)
(-0.0153038 -2.10643e-05 0)
(-0.0152076 -2.81873e-05 0)
(-0.0150868 -3.55481e-05 0)
(-0.0149409 -4.31196e-05 0)
(-0.0147693 -5.08702e-05 0)
(-0.0145714 -5.87647e-05 0)
(-0.0143471 -6.67631e-05 0)
(-0.0140959 -7.48214e-05 0)
(-0.013818 -8.28918e-05 0)
(-0.0135135 -9.09222e-05 0)
(-0.0131826 -9.88575e-05 0)
(-0.0128258 -0.000106639 0)
(-0.0124437 -0.000114204 0)
(-0.0120374 -0.00012149 0)
(-0.0116077 -0.000128429 0)
(-0.0111562 -0.000134956 0)
(-0.0106841 -0.000141002 0)
(-0.0101934 -0.000146499 0)
(-0.00968591 -0.000151382 0)
(-0.00916379 -0.000155585 0)
(-0.00862939 -0.000159048 0)
(-0.00808525 -0.000161713 0)
(-0.00753408 -0.000163526 0)
(-0.00697874 -0.000164441 0)
(-0.00642224 -0.000164415 0)
(-0.0058677 -0.000163413 0)
(-0.00531835 -0.000161408 0)
(-0.00477747 -0.000158381 0)
(-0.00424841 -0.000154318 0)
(-0.00373452 -0.000149218 0)
(-0.00323914 -0.000143083 0)
(-0.00276559 -0.000135928 0)
(-0.0023171 -0.000127771 0)
(-0.00189683 -0.000118639 0)
(-0.0015078 -0.000108566 0)
(-0.00115289 -9.75927e-05 0)
(-0.000834789 -8.57664e-05 0)
(-0.000555949 -7.31431e-05 0)
(-0.000318556 -5.97925e-05 0)
(-0.000124439 -4.58061e-05 0)
(2.50418e-05 -3.13177e-05 0)
(0.000129183 -1.65393e-05 0)
(0.000188258 -1.83605e-06 0)
(0.000204074 1.21055e-05 0)
(0.00018081 2.4034e-05 0)
(0.000126866 3.15213e-05 0)
(6.05777e-05 3.0036e-05 0)
(1.37698e-05 1.37906e-05 0)
(9.90869e-06 -1.8875e-05 0)
(4.23059e-05 -4.24297e-05 0)
(8.90457e-05 -4.82807e-05 0)
(0.000131161 -4.08673e-05 0)
(0.000155977 -2.50763e-05 0)
(0.000156078 -4.35327e-06 0)
(0.000126852 1.89752e-05 0)
(6.57704e-05 4.33642e-05 0)
(-2.81495e-05 6.77906e-05 0)
(-0.000154777 9.15816e-05 0)
(-0.000313212 0.000114298 0)
(-0.000502033 0.000135663 0)
(-0.000719473 0.000155514 0)
(-0.000963553 0.000173769 0)
(-0.00123218 0.000190399 0)
(-0.00152323 0.000205425 0)
(-0.00183458 0.000218891 0)
(-0.00216417 0.000230868 0)
(-0.00251003 0.000241438 0)
(-0.00287027 0.000250693 0)
(-0.00324316 0.000258736 0)
(-0.00362706 0.000265669 0)
(-0.00402049 0.000271595 0)
(-0.00442209 0.000276614 0)
(-0.00483065 0.000280826 0)
(-0.00524508 0.000284325 0)
(-0.0056644 0.000287203 0)
(-0.00608779 0.000289546 0)
(-0.00651451 0.000291432 0)
(-0.00694395 0.000292934 0)
(-0.00737557 0.000294122 0)
(-0.00780896 0.000295057 0)
(-0.00824376 0.000295797 0)
(-0.00867971 0.000296392 0)
(-0.00911662 0.000296889 0)
(-0.00955433 0.00029733 0)
(-0.00999279 0.00029775 0)
(-0.010432 0.000298182 0)
(-0.0108719 0.000298657 0)
(-0.0113125 0.000299198 0)
(-0.0117541 0.000299828 0)
(-0.0121966 0.000300565 0)
(-0.0126404 0.000301425 0)
(-0.0130854 0.000302424 0)
(-0.0135319 0.000303572 0)
(-0.0139802 0.00030488 0)
(-0.0144304 0.000306355 0)
(-0.0148828 0.000308003 0)
(-0.0153376 0.000309831 0)
(-0.015795 0.000311841 0)
(-0.0162554 0.000314035 0)
(-0.0167189 0.000316415 0)
(-0.0171859 0.00031898 0)
(-0.0176565 0.000321729 0)
(-0.0181311 0.00032466 0)
(-0.0186099 0.000327769 0)
(-0.019093 0.000331052 0)
(-0.0195809 0.000334501 0)
(-0.0200736 0.00033811 0)
(-0.0205713 0.00034187 0)
(-0.0210744 0.000345772 0)
(-0.0215829 0.000349805 0)
(-0.0220971 0.000353955 0)
(-0.022617 0.000358208 0)
(-0.0231427 0.000362549 0)
(-0.0236745 0.000366959 0)
(-0.0242123 0.00037142 0)
(-0.0247562 0.000375909 0)
(-0.0253061 0.000380404 0)
(-0.0258622 0.000384877 0)
(-0.0264241 0.000389303 0)
(-0.026992 0.00039365 0)
(-0.0275655 0.000397887 0)
(-0.0281445 0.000401978 0)
(-0.0287287 0.000405884 0)
(-0.0293178 0.000409566 0)
(-0.0299114 0.00041298 0)
(-0.030509 0.000416079 0)
(-0.0311102 0.000418815 0)
(-0.0317143 0.000421136 0)
(-0.0323207 0.000422987 0)
(-0.0329286 0.000424309 0)
(-0.0335373 0.000425043 0)
(-0.0341456 0.000425125 0)
(-0.0347528 0.000424488 0)
(-0.0353576 0.000423064 0)
(-0.0359588 0.000420782 0)
(-0.0365551 0.000417568 0)
(-0.0371452 0.000413345 0)
(-0.0377274 0.000408036 0)
(-0.0383002 0.000401563 0)
(-0.0388619 0.000393845 0)
(-0.0394104 0.000384802 0)
(-0.039944 0.000374354 0)
(-0.0404606 0.000362419 0)
(-0.0409578 0.000348921 0)
(-0.0414336 0.000333782 0)
(-0.0418854 0.000316928 0)
(-0.0423109 0.00029829 0)
(-0.0427074 0.000277802 0)
(-0.0430723 0.000255404 0)
(-0.0434028 0.000231045 0)
(-0.0436963 0.000204679 0)
(-0.0439499 0.000176273 0)
(-0.0441606 0.000145802 0)
(-0.0443257 0.000113254 0)
(-0.0444423 7.86312e-05 0)
(-0.0445075 4.19511e-05 0)
(-0.0445186 3.2471e-06 0)
(-0.0444727 -3.74289e-05 0)
(-0.0443673 -8.00061e-05 0)
(-0.0441999 -0.000124393 0)
(-0.0439681 -0.000170475 0)
(-0.0436696 -0.000218116 0)
(-0.0433027 -0.000267156 0)
(-0.0428654 -0.000317407 0)
(-0.0423565 -0.00036866 0)
(-0.0417748 -0.000420678 0)
(-0.0411196 -0.000473198 0)
(-0.0403904 -0.000525935 0)
(-0.0395874 -0.000578577 0)
(-0.038711 -0.00063079 0)
(-0.0377621 -0.000682221 0)
(-0.0367423 -0.000732495 0)
(-0.0356535 -0.000781223 0)
(-0.0344984 -0.000828 0)
(-0.0332799 -0.000872413 0)
(-0.0320017 -0.000914043 0)
(-0.0306682 -0.000952469 0)
(-0.0292841 -0.000987274 0)
(-0.0278548 -0.00101805 0)
(-0.0263862 -0.00104439 0)
(-0.0248848 -0.00106594 0)
(-0.0233575 -0.00108232 0)
(-0.0218117 -0.00109322 0)
(-0.0202552 -0.00109835 0)
(-0.0186962 -0.00109746 0)
(-0.0171432 -0.00109033 0)
(-0.015605 -0.00107681 0)
(-0.0140904 -0.00105678 0)
(-0.0126085 -0.00103018 0)
(-0.0111684 -0.000997001 0)
(-0.00977894 -0.000957301 0)
(-0.00844919 -0.000911179 0)
(-0.00718776 -0.000858797 0)
(-0.00600307 -0.000800376 0)
(-0.00490312 -0.000736196 0)
(-0.00389542 -0.000666606 0)
(-0.00298688 -0.000592031 0)
(-0.00218366 -0.000512996 0)
(-0.001491 -0.000430162 0)
(-0.00091294 -0.000344388 0)
(-0.000451984 -0.000256843 0)
(-0.000108574 -0.000169191 0)
(0.000119687 -8.39285e-05 0)
(0.000239238 -4.92385e-06 0)
(0.00026203 6.1684e-05 0)
(0.000207957 0.000106026 0)
(0.000112252 0.000112495 0)
(2.9856e-05 6.04591e-05 0)
(1.22124e-05 -4.50799e-05 0)
(4.84817e-05 -8.9228e-05 0)
(9.50077e-05 -9.47265e-05 0)
(0.000128719 -7.16761e-05 0)
(0.000134276 -2.92089e-05 0)
(0.000102138 2.55798e-05 0)
(2.60056e-05 8.74865e-05 0)
(-9.78736e-05 0.000152762 0)
(-0.000271173 0.000218754 0)
(-0.000494002 0.000283615 0)
(-0.000765325 0.000346069 0)
(-0.00108329 0.000405262 0)
(-0.00144547 0.000460655 0)
(-0.00184907 0.000511931 0)
(-0.00229107 0.000558946 0)
(-0.00276834 0.000601682 0)
(-0.00327774 0.000640216 0)
(-0.00381616 0.000674692 0)
(-0.00438061 0.000705306 0)
(-0.00496823 0.000732284 0)
(-0.00557632 0.000755879 0)
(-0.00620236 0.000776358 0)
(-0.00684403 0.000793992 0)
(-0.00749919 0.000809051 0)
(-0.00816593 0.0008218 0)
(-0.0088425 0.000832501 0)
(-0.00952737 0.0008414 0)
(-0.0102192 0.000848732 0)
(-0.0109167 0.00085472 0)
(-0.011619 0.000859569 0)
(-0.0123252 0.000863472 0)
(-0.0130346 0.000866606 0)
(-0.0137465 0.000869131 0)
(-0.0144605 0.000871194 0)
(-0.0151763 0.00087293 0)
(-0.0158936 0.000874457 0)
(-0.0166122 0.000875883 0)
(-0.0173321 0.000877303 0)
(-0.0180533 0.000878802 0)
(-0.0187758 0.000880454 0)
(-0.0194997 0.000882324 0)
(-0.0202253 0.000884468 0)
(-0.0209526 0.000886937 0)
(-0.0216821 0.000889772 0)
(-0.0224139 0.000893008 0)
(-0.0231484 0.000896677 0)
(-0.0238858 0.000900801 0)
(-0.0246266 0.000905401 0)
(-0.0253712 0.000910491 0)
(-0.0261198 0.000916084 0)
(-0.0268729 0.000922185 0)
(-0.0276309 0.000928798 0)
(-0.0283941 0.000935922 0)
(-0.029163 0.000943553 0)
(-0.0299379 0.000951685 0)
(-0.0307192 0.000960307 0)
(-0.0315073 0.000969402 0)
(-0.0323025 0.000978954 0)
(-0.0331051 0.000988941 0)
(-0.0339155 0.000999336 0)
(-0.034734 0.00101011 0)
(-0.0355608 0.00102123 0)
(-0.0363962 0.00103266 0)
(-0.0372403 0.00104435 0)
(-0.0380934 0.00105625 0)
(-0.0389554 0.00106832 0)
(-0.0398266 0.0010805 0)
(-0.040707 0.00109271 0)
(-0.0415964 0.0011049 0)
(-0.0424948 0.00111698 0)
(-0.0434021 0.00112887 0)
(-0.044318 0.00114049 0)
(-0.0452423 0.00115174 0)
(-0.0461744 0.00116251 0)
(-0.047114 0.0011727 0)
(-0.0480606 0.00118218 0)
(-0.0490133 0.00119084 0)
(-0.0499715 0.00119853 0)
(-0.0509343 0.00120512 0)
(-0.0519007 0.00121045 0)
(-0.0528695 0.00121437 0)
(-0.0538396 0.00121672 0)
(-0.0548095 0.00121731 0)
(-0.0557778 0.00121598 0)
(-0.0567427 0.00121252 0)
(-0.0577025 0.00120676 0)
(-0.0586551 0.00119848 0)
(-0.0595984 0.00118747 0)
(-0.0605303 0.00117354 0)
(-0.0614481 0.00115645 0)
(-0.0623492 0.001136 0)
(-0.063231 0.00111195 0)
(-0.0640903 0.00108409 0)
(-0.0649241 0.0010522 0)
(-0.0657291 0.00101607 0)
(-0.0665018 0.000975465 0)
(-0.0672387 0.000930195 0)
(-0.0679358 0.000880059 0)
(-0.0685895 0.000824871 0)
(-0.0691955 0.000764462 0)
(-0.0697498 0.000698679 0)
(-0.0702482 0.000627388 0)
(-0.0706863 0.000550481 0)
(-0.0710597 0.000467879 0)
(-0.071364 0.000379531 0)
(-0.0715948 0.000285424 0)
(-0.0717477 0.00018558 0)
(-0.0718183 8.00682e-05 0)
(-0.0718024 -3.09986e-05 0)
(-0.0716958 -0.000147457 0)
(-0.0714946 -0.000269088 0)
(-0.0711949 -0.000395617 0)
(-0.0707932 -0.000526709 0)
(-0.0702864 -0.000661964 0)
(-0.0696715 -0.000800918 0)
(-0.0689461 -0.00094304 0)
(-0.0681081 -0.00108773 0)
(-0.067156 -0.00123432 0)
(-0.0660888 -0.00138206 0)
(-0.0649061 -0.00153017 0)
(-0.0636082 -0.00167777 0)
(-0.0621961 -0.00182393 0)
(-0.0606714 -0.00196767 0)
(-0.0590365 -0.00210796 0)
(-0.0572949 -0.00224372 0)
(-0.0554504 -0.00237384 0)
(-0.0535081 -0.0024972 0)
(-0.0514738 -0.00261263 0)
(-0.0493542 -0.002719 0)
(-0.0471568 -0.00281516 0)
(-0.0448901 -0.0029 0)
(-0.0425631 -0.00297244 0)
(-0.040186 -0.00303146 0)
(-0.0377695 -0.0030761 0)
(-0.0353249 -0.00310547 0)
(-0.0328645 -0.00311881 0)
(-0.0304008 -0.00311542 0)
(-0.0279469 -0.00309475 0)
(-0.0255162 -0.00305636 0)
(-0.0231223 -0.00299998 0)
(-0.0207793 -0.00292544 0)
(-0.0185009 -0.00283275 0)
(-0.0163009 -0.00272209 0)
(-0.014193 -0.00259377 0)
(-0.0121903 -0.0024483 0)
(-0.0103056 -0.00228636 0)
(-0.00855104 -0.00210881 0)
(-0.00693774 -0.00191674 0)
(-0.00547597 -0.0017115 0)
(-0.00417468 -0.00149474 0)
(-0.00304124 -0.00126855 0)
(-0.00208105 -0.00103561 0)
(-0.00129702 -0.00079947 0)
(-0.000688846 -0.000564955 0)
(-0.000252026 -0.000338857 0)
(2.34988e-05 -0.000130908 0)
(0.000154827 4.4697e-05 0)
(0.000168221 0.000167427 0)
(0.000105912 0.000208105 0)
(3.12241e-05 0.000126352 0)
(1.13558e-05 -7.17235e-05 0)
(4.15014e-05 -0.000131648 0)
(7.24854e-05 -0.000128557 0)
(8.01874e-05 -7.95051e-05 0)
(4.83244e-05 1.68096e-06 0)
(-3.35529e-05 0.000104041 0)
(-0.000172573 0.000219146 0)
(-0.000373107 0.000340689 0)
(-0.000637218 0.000464032 0)
(-0.000965161 0.000585807 0)
(-0.00135582 0.000703615 0)
(-0.00180703 0.000815797 0)
(-0.00231591 0.000921245 0)
(-0.00287906 0.00101928 0)
(-0.00349275 0.00110955 0)
(-0.00415308 0.00119194 0)
(-0.00485608 0.00126653 0)
(-0.00559781 0.00133354 0)
(-0.00637443 0.00139329 0)
(-0.00718225 0.00144617 0)
(-0.00801777 0.00149261 0)
(-0.0088777 0.00153311 0)
(-0.00975899 0.00156816 0)
(-0.0106588 0.00159823 0)
(-0.0115747 0.00162385 0)
(-0.0125042 0.00164548 0)
(-0.0134453 0.00166359 0)
(-0.0143962 0.00167862 0)
(-0.0153553 0.001691 0)
(-0.0163212 0.00170112 0)
(-0.0172926 0.00170934 0)
(-0.0182687 0.00171601 0)
(-0.0192485 0.00172143 0)
(-0.0202314 0.00172589 0)
(-0.021217 0.00172966 0)
(-0.0222047 0.00173295 0)
(-0.0231944 0.00173599 0)
(-0.024186 0.00173896 0)
(-0.0251793 0.00174203 0)
(-0.0261745 0.00174534 0)
(-0.0271716 0.00174902 0)
(-0.0281708 0.00175319 0)
(-0.0291725 0.00175795 0)
(-0.0301768 0.00176338 0)
(-0.0311842 0.00176954 0)
(-0.032195 0.00177651 0)
(-0.0332097 0.00178433 0)
(-0.0342287 0.00179304 0)
(-0.0352525 0.00180268 0)
(-0.0362815 0.00181325 0)
(-0.0373163 0.00182479 0)
(-0.0383573 0.00183729 0)
(-0.0394051 0.00185075 0)
(-0.0404601 0.00186517 0)
(-0.0415229 0.00188053 0)
(-0.0425939 0.00189681 0)
(-0.0436736 0.00191397 0)
(-0.0447624 0.00193199 0)
(-0.0458608 0.00195082 0)
(-0.0469692 0.0019704 0)
(-0.0480879 0.00199068 0)
(-0.0492172 0.00201159 0)
(-0.0503574 0.00203305 0)
(-0.0515088 0.00205497 0)
(-0.0526715 0.00207726 0)
(-0.0538457 0.00209981 0)
(-0.0550314 0.00212251 0)
(-0.0562286 0.00214523 0)
(-0.0574372 0.00216782 0)
(-0.058657 0.00219014 0)
(-0.0598878 0.00221203 0)
(-0.0611293 0.00223331 0)
(-0.0623809 0.00225378 0)
(-0.063642 0.00227326 0)
(-0.0649121 0.00229151 0)
(-0.0661902 0.00230831 0)
(-0.0674754 0.00232341 0)
(-0.0687667 0.00233655 0)
(-0.0700628 0.00234745 0)
(-0.0713622 0.00235582 0)
(-0.0726634 0.00236136 0)
(-0.0739648 0.00236375 0)
(-0.0752643 0.00236265 0)
(-0.0765599 0.00235771 0)
(-0.0778492 0.00234857 0)
(-0.0791299 0.00233486 0)
(-0.0803992 0.00231618 0)
(-0.0816541 0.00229216 0)
(-0.0828916 0.00226238 0)
(-0.0841084 0.00222642 0)
(-0.0853008 0.00218389 0)
(-0.0864652 0.00213435 0)
(-0.0875976 0.0020774 0)
(-0.0886937 0.00201262 0)
(-0.0897491 0.0019396 0)
(-0.0907593 0.00185795 0)
(-0.0917195 0.00176728 0)
(-0.0926245 0.00166725 0)
(-0.0934694 0.0015575 0)
(-0.0942487 0.00143773 0)
(-0.0949571 0.00130768 0)
(-0.0955889 0.0011671 0)
(-0.0961385 0.00101582 0)
(-0.0966002 0.000853707 0)
(-0.0969683 0.000680688 0)
(-0.0972369 0.000496764 0)
(-0.0974005 0.000302009 0)
(-0.0974533 9.65765e-05 0)
(-0.09739 -0.000119288 0)
(-0.0972052 -0.000345246 0)
(-0.0968938 -0.000580856 0)
(-0.0964511 -0.000825567 0)
(-0.0958727 -0.00107872 0)
(-0.0951544 -0.00133952 0)
(-0.0942928 -0.00160708 0)
(-0.0932849 -0.00188036 0)
(-0.0921281 -0.0021582 0)
(-0.0908206 -0.00243933 0)
(-0.0893615 -0.00272233 0)
(-0.0877505 -0.00300567 0)
(-0.085988 -0.0032877 0)
(-0.0840756 -0.00356667 0)
(-0.0820157 -0.00384072 0)
(-0.0798117 -0.00410789 0)
(-0.077468 -0.00436616 0)
(-0.0749901 -0.00461344 0)
(-0.0723847 -0.00484761 0)
(-0.0696595 -0.00506651 0)
(-0.0668232 -0.00526799 0)
(-0.0638858 -0.00544992 0)
(-0.0608584 -0.00561021 0)
(-0.0577529 -0.00574687 0)
(-0.0545825 -0.00585796 0)
(-0.0513612 -0.00594171 0)
(-0.0481038 -0.00599649 0)
(-0.0448261 -0.00602082 0)
(-0.0415445 -0.00601346 0)
(-0.0382758 -0.00597338 0)
(-0.0350376 -0.00589977 0)
(-0.0318475 -0.00579211 0)
(-0.0287236 -0.00565016 0)
(-0.0256836 -0.00547396 0)
(-0.0227456 -0.00526387 0)
(-0.0199269 -0.00502055 0)
(-0.0172445 -0.00474503 0)
(-0.0147149 -0.00443867 0)
(-0.0123534 -0.00410325 0)
(-0.0101742 -0.00374096 0)
(-0.00819024 -0.00335453 0)
(-0.00641257 -0.00294734 0)
(-0.00485014 -0.00252358 0)
(-0.0035093 -0.00208856 0)
(-0.00239317 -0.00164916 0)
(-0.00150084 -0.00121442 0)
(-0.000826421 -0.000796539 0)
(-0.000357732 -0.000412211 0)
(-7.50103e-05 -8.44944e-05 0)
(5.08773e-05 0.000155018 0)
(6.33602e-05 0.000263493 0)
(2.39072e-05 0.00018019 0)
(8.69825e-06 -9.20519e-05 0)
(2.59165e-05 -0.000156886 0)
(2.98521e-05 -0.000134051 0)
(-2.00613e-06 -4.75026e-05 0)
(-8.54523e-05 8.42535e-05 0)
(-0.000231087 0.00024638 0)
(-0.000446179 0.000427235 0)
(-0.000735212 0.000617881 0)
(-0.00110031 0.000811556 0)
(-0.00154171 0.00100322 0)
(-0.00205813 0.00118919 0)
(-0.00264716 0.00136684 0)
(-0.00330551 0.00153437 0)
(-0.00402931 0.00169065 0)
(-0.00481426 0.00183501 0)
(-0.00565585 0.00196721 0)
(-0.00654944 0.00208728 0)
(-0.0074904 0.0021955 0)
(-0.0084742 0.00229231 0)
(-0.00949644 0.00237828 0)
(-0.010553 0.00245407 0)
(-0.0116398 0.00252039 0)
(-0.0127533 0.00257799 0)
(-0.01389 0.00262764 0)
(-0.0150468 0.0026701 0)
(-0.016221 0.00270613 0)
(-0.0174098 0.00273645 0)
(-0.0186112 0.00276175 0)
(-0.019823 0.00278272 0)
(-0.0210437 0.00279996 0)
(-0.0222715 0.00281406 0)
(-0.0235054 0.00282557 0)
(-0.0247442 0.00283499 0)
(-0.0259871 0.00284277 0)
(-0.0272333 0.00284933 0)
(-0.0284825 0.00285505 0)
(-0.0297343 0.00286028 0)
(-0.0309883 0.00286531 0)
(-0.0322446 0.00287042 0)
(-0.0335031 0.00287585 0)
(-0.034764 0.00288181 0)
(-0.0360275 0.0028885 0)
(-0.0372937 0.00289607 0)
(-0.0385632 0.00290466 0)
(-0.0398362 0.0029144 0)
(-0.0411133 0.00292538 0)
(-0.0423948 0.00293769 0)
(-0.0436814 0.00295138 0)
(-0.0449736 0.00296652 0)
(-0.0462719 0.00298315 0)
(-0.0475769 0.00300127 0)
(-0.0488893 0.00302092 0)
(-0.0502096 0.00304207 0)
(-0.0515384 0.00306473 0)
(-0.0528763 0.00308887 0)
(-0.0542238 0.00311444 0)
(-0.0555815 0.0031414 0)
(-0.0569499 0.00316969 0)
(-0.0583296 0.00319923 0)
(-0.0597209 0.00322994 0)
(-0.0611242 0.00326171 0)
(-0.06254 0.00329444 0)
(-0.0639686 0.00332798 0)
(-0.0654101 0.00336221 0)
(-0.0668647 0.00339695 0)
(-0.0683327 0.00343204 0)
(-0.0698139 0.00346727 0)
(-0.0713083 0.00350245 0)
(-0.0728158 0.00353733 0)
(-0.0743361 0.00357167 0)
(-0.0758688 0.00360521 0)
(-0.0774133 0.00363764 0)
(-0.0789691 0.00366867 0)
(-0.0805354 0.00369795 0)
(-0.0821113 0.00372514 0)
(-0.0836957 0.00374985 0)
(-0.0852873 0.00377169 0)
(-0.0868847 0.00379022 0)
(-0.0884863 0.00380501 0)
(-0.0900904 0.00381557 0)
(-0.0916949 0.00382142 0)
(-0.0932976 0.00382205 0)
(-0.0948961 0.0038169 0)
(-0.0964877 0.00380542 0)
(-0.0980696 0.00378703 0)
(-0.0996386 0.00376114 0)
(-0.101191 0.00372713 0)
(-0.102724 0.00368437 0)
(-0.104233 0.00363221 0)
(-0.105714 0.00357002 0)
(-0.107163 0.00349713 0)
(-0.108575 0.0034129 0)
(-0.109946 0.00331666 0)
(-0.111269 0.00320777 0)
(-0.112539 0.0030856 0)
(-0.113752 0.00294953 0)
(-0.114901 0.00279899 0)
(-0.11598 0.00263342 0)
(-0.116982 0.0024523 0)
(-0.117902 0.00225518 0)
(-0.118733 0.00204165 0)
(-0.119468 0.00181137 0)
(-0.120099 0.00156408 0)
(-0.120622 0.00129962 0)
(-0.121028 0.0010179 0)
(-0.12131 0.000718963 0)
(-0.121463 0.000402964 0)
(-0.121479 7.01854e-05 0)
(-0.121352 -0.000278947 0)
(-0.121075 -0.000643856 0)
(-0.120643 -0.00102381 0)
(-0.12005 -0.00141789 0)
(-0.119291 -0.00182501 0)
(-0.118362 -0.00224391 0)
(-0.117257 -0.00267313 0)
(-0.115975 -0.003111 0)
(-0.114512 -0.00355567 0)
(-0.112866 -0.0040051 0)
(-0.111036 -0.00445704 0)
(-0.109022 -0.00490905 0)
(-0.106826 -0.00535854 0)
(-0.104448 -0.00580272 0)
(-0.101893 -0.00623865 0)
(-0.0991635 -0.00666327 0)
(-0.0962664 -0.00707339 0)
(-0.0932079 -0.00746574 0)
(-0.0899962 -0.00783697 0)
(-0.0866407 -0.00818372 0)
(-0.083152 -0.00850262 0)
(-0.0795421 -0.00879033 0)
(-0.0758243 -0.0090436 0)
(-0.072013 -0.00925929 0)
(-0.068124 -0.00943441 0)
(-0.0641741 -0.00956619 0)
(-0.0601811 -0.00965206 0)
(-0.0561637 -0.00968976 0)
(-0.0521414 -0.00967734 0)
(-0.0481347 -0.00961318 0)
(-0.0441641 -0.00949608 0)
(-0.0402509 -0.00932523 0)
(-0.0364165 -0.00910028 0)
(-0.0326821 -0.00882135 0)
(-0.0290691 -0.00848904 0)
(-0.0255981 -0.0081045 0)
(-0.0222894 -0.00766941 0)
(-0.0191623 -0.00718606 0)
(-0.0162348 -0.00665737 0)
(-0.0135238 -0.00608701 0)
(-0.0110442 -0.00547948 0)
(-0.00880886 -0.00484034 0)
(-0.00682803 -0.00417642 0)
(-0.00510887 -0.00349626 0)
(-0.00365481 -0.00281064 0)
(-0.00246479 -0.00213343 0)
(-0.00153239 -0.0014827 0)
(-0.000844744 -0.000882265 0)
(-0.000381419 -0.000363833 0)
(-0.000112959 3.07064e-05 0)
(1.04326e-06 0.000246183 0)
(1.26191e-05 0.000204753 0)
(5.08105e-06 -0.000102538 0)
(4.89903e-06 -0.000156979 0)
(-2.65643e-05 -0.000100803 0)
(-0.000108197 3.60906e-05 0)
(-0.000254252 0.000230777 0)
(-0.000474826 0.000464755 0)
(-0.000776791 0.000723291 0)
(-0.00116432 0.000994864 0)
(-0.00163929 0.00127058 0)
(-0.00220169 0.00154369 0)
(-0.00284998 0.00180913 0)
(-0.00358144 0.00206325 0)
(-0.00439242 0.00230347 0)
(-0.00527861 0.00252811 0)
(-0.00623524 0.00273617 0)
(-0.00725725 0.00292719 0)
(-0.00833947 0.00310116 0)
(-0.0094767 0.00325837 0)
(-0.0106638 0.0033994 0)
(-0.0118958 0.00352499 0)
(-0.013168 0.00363603 0)
(-0.0144758 0.00373349 0)
(-0.015815 0.0038184 0)
(-0.0171817 0.00389184 0)
(-0.0185722 0.00395486 0)
(-0.0199834 0.00400853 0)
(-0.0214122 0.00405387 0)
(-0.0228559 0.00409188 0)
(-0.0243123 0.0041235 0)
(-0.0257793 0.00414963 0)
(-0.0272551 0.0041711 0)
(-0.0287381 0.0041887 0)
(-0.0302271 0.00420314 0)
(-0.0317211 0.0042151 0)
(-0.0332193 0.00422517 0)
(-0.0347209 0.00423391 0)
(-0.0362255 0.00424182 0)
(-0.0377329 0.00424934 0)
(-0.0392428 0.00425688 0)
(-0.0407553 0.00426479 0)
(-0.0422704 0.00427339 0)
(-0.0437883 0.00428294 0)
(-0.0453094 0.00429371 0)
(-0.0468339 0.00430588 0)
(-0.0483623 0.00431964 0)
(-0.0498951 0.00433514 0)
(-0.0514329 0.00435251 0)
(-0.0529762 0.00437183 0)
(-0.0545256 0.0043932 0)
(-0.0560818 0.00441666 0)
(-0.0576453 0.00444224 0)
(-0.059217 0.00446998 0)
(-0.0607974 0.00449986 0)
(-0.0623872 0.00453187 0)
(-0.0639871 0.00456596 0)
(-0.0655976 0.00460209 0)
(-0.0672194 0.00464016 0)
(-0.0688531 0.0046801 0)
(-0.0704992 0.00472179 0)
(-0.0721581 0.0047651 0)
(-0.0738304 0.00480988 0)
(-0.0755164 0.00485595 0)
(-0.0772165 0.00490313 0)
(-0.0789308 0.00495119 0)
(-0.0806595 0.0049999 0)
(-0.0824027 0.00504901 0)
(-0.0841604 0.00509821 0)
(-0.0859324 0.00514719 0)
(-0.0877184 0.00519562 0)
(-0.0895182 0.00524313 0)
(-0.0913311 0.00528931 0)
(-0.0931566 0.00533374 0)
(-0.0949937 0.00537596 0)
(-0.0968415 0.00541549 0)
(-0.0986989 0.00545179 0)
(-0.100565 0.00548432 0)
(-0.102437 0.00551248 0)
(-0.104314 0.00553566 0)
(-0.106194 0.00555321 0)
(-0.108075 0.00556443 0)
(-0.109955 0.00556862 0)
(-0.11183 0.00556501 0)
(-0.113698 0.00555283 0)
(-0.115556 0.00553128 0)
(-0.117399 0.00549951 0)
(-0.119226 0.00545666 0)
(-0.12103 0.00540186 0)
(-0.122809 0.0053342 0)
(-0.124557 0.00525276 0)
(-0.126271 0.00515663 0)
(-0.127943 0.00504487 0)
(-0.12957 0.00491655 0)
(-0.131145 0.00477075 0)
(-0.132663 0.00460656 0)
(-0.134116 0.0044231 0)
(-0.135499 0.00421951 0)
(-0.136805 0.00399498 0)
(-0.138027 0.00374874 0)
(-0.139157 0.00348009 0)
(-0.140188 0.00318842 0)
(-0.141113 0.00287316 0)
(-0.141924 0.00253389 0)
(-0.142613 0.00217028 0)
(-0.143172 0.00178212 0)
(-0.143594 0.00136936 0)
(-0.14387 0.00093209 0)
(-0.143994 0.000470582 0)
(-0.143958 -1.47066e-05 0)
(-0.143754 -0.000523119 0)
(-0.143376 -0.00105378 0)
(-0.142816 -0.00160559 0)
(-0.142069 -0.00217721 0)
(-0.14113 -0.00276704 0)
(-0.139992 -0.00337323 0)
(-0.138652 -0.00399366 0)
(-0.137105 -0.00462592 0)
(-0.13535 -0.00526736 0)
(-0.133384 -0.00591501 0)
(-0.131206 -0.00656568 0)
(-0.128817 -0.00721589 0)
(-0.126216 -0.0078619 0)
(-0.123408 -0.00849976 0)
(-0.120396 -0.0091253 0)
(-0.117184 -0.00973417 0)
(-0.11378 -0.0103218 0)
(-0.110191 -0.0108837 0)
(-0.106427 -0.0114149 0)
(-0.102498 -0.0119109 0)
(-0.098416 -0.0123667 0)
(-0.0941957 -0.0127778 0)
(-0.0898519 -0.0131394 0)
(-0.0854012 -0.0134472 0)
(-0.0808614 -0.013697 0)
(-0.0762516 -0.0138849 0)
(-0.0715922 -0.0140072 0)
(-0.0669044 -0.0140607 0)
(-0.0622105 -0.0140427 0)
(-0.0575335 -0.0139509 0)
(-0.052897 -0.0137837 0)
(-0.0483251 -0.01354 0)
(-0.0438419 -0.0132192 0)
(-0.0394718 -0.0128216 0)
(-0.0352387 -0.0123481 0)
(-0.0311662 -0.0118005 0)
(-0.0272772 -0.0111811 0)
(-0.0235935 -0.0104935 0)
(-0.0201354 -0.00974192 0)
(-0.016922 -0.00893176 0)
(-0.0139699 -0.00806965 0)
(-0.0112935 -0.00716367 0)
(-0.00890441 -0.0062237 0)
(-0.00681055 -0.00526187 0)
(-0.00501598 -0.00429327 0)
(-0.00352005 -0.00333682 0)
(-0.00231666 -0.0024165 0)
(-0.00139354 -0.00156307 0)
(-0.000731172 -0.000816187 0)
(-0.000301714 -0.000226775 0)
(-7.0709e-05 0.000139762 0)
(-1.16615e-07 0.00019313 0)
(9.62381e-07 -0.000101059 0)
(-1.94871e-05 -0.000126448 0)
(-9.21861e-05 -2.10746e-05 0)
(-0.000231149 0.000180314 0)
(-0.000448257 0.000450926 0)
(-0.000752585 0.000768936 0)
(-0.00115017 0.00111674 0)
(-0.00164451 0.00148038 0)
(-0.00223693 0.00184892 0)
(-0.002927 0.0022139 0)
(-0.00371275 0.00256892 0)
(-0.00459108 0.00290923 0)
(-0.00555792 0.00323148 0)
(-0.00660855 0.00353339 0)
(-0.00773775 0.00381357 0)
(-0.00894001 0.00407135 0)
(-0.0102096 0.00430661 0)
(-0.011541 0.0045197 0)
(-0.0129284 0.00471129 0)
(-0.0143663 0.0048823 0)
(-0.0158496 0.00503386 0)
(-0.0173732 0.00516721 0)
(-0.0189325 0.0052837 0)
(-0.020523 0.00538471 0)
(-0.0221407 0.00547165 0)
(-0.0237819 0.00554589 0)
(-0.0254433 0.00560881 0)
(-0.0271219 0.00566172 0)
(-0.0288151 0.00570588 0)
(-0.0305204 0.00574248 0)
(-0.0322358 0.00577265 0)
(-0.0339596 0.00579744 0)
(-0.0356903 0.00581782 0)
(-0.0374268 0.00583468 0)
(-0.0391679 0.00584886 0)
(-0.0409129 0.0058611 0)
(-0.0426614 0.00587207 0)
(-0.0444127 0.00588239 0)
(-0.0461669 0.00589261 0)
(-0.0479238 0.00590322 0)
(-0.0496833 0.00591464 0)
(-0.0514459 0.00592726 0)
(-0.0532116 0.00594142 0)
(-0.0549809 0.00595739 0)
(-0.0567542 0.00597543 0)
(-0.0585321 0.00599574 0)
(-0.0603151 0.0060185 0)
(-0.0621038 0.00604384 0)
(-0.0638989 0.00607187 0)
(-0.0657012 0.00610267 0)
(-0.0675112 0.00613629 0)
(-0.0693298 0.00617275 0)
(-0.0711576 0.00621205 0)
(-0.0729953 0.00625416 0)
(-0.0748437 0.00629902 0)
(-0.0767034 0.00634655 0)
(-0.078575 0.00639666 0)
(-0.0804593 0.0064492 0)
(-0.0823567 0.00650403 0)
(-0.0842677 0.00656095 0)
(-0.0861929 0.00661976 0)
(-0.0881326 0.00668022 0)
(-0.0900872 0.00674205 0)
(-0.0920567 0.00680496 0)
(-0.0940414 0.00686862 0)
(-0.0960413 0.00693266 0)
(-0.0980562 0.00699667 0)
(-0.100086 0.00706023 0)
(-0.10213 0.00712287 0)
(-0.104189 0.00718407 0)
(-0.10626 0.00724328 0)
(-0.108345 0.00729992 0)
(-0.11044 0.00735336 0)
(-0.112546 0.00740291 0)
(-0.114661 0.00744788 0)
(-0.116784 0.00748749 0)
(-0.118911 0.00752095 0)
(-0.121043 0.00754741 0)
(-0.123175 0.00756598 0)
(-0.125306 0.00757573 0)
(-0.127433 0.00757569 0)
(-0.129553 0.00756484 0)
(-0.131662 0.00754212 0)
(-0.133756 0.00750646 0)
(-0.135833 0.00745671 0)
(-0.137887 0.00739173 0)
(-0.139913 0.00731034 0)
(-0.141908 0.00721133 0)
(-0.143865 0.00709348 0)
(-0.14578 0.00695556 0)
(-0.147645 0.00679633 0)
(-0.149457 0.00661457 0)
(-0.151206 0.00640906 0)
(-0.152888 0.00617861 0)
(-0.154495 0.00592205 0)
(-0.156019 0.00563828 0)
(-0.157454 0.00532624 0)
(-0.15879 0.00498493 0)
(-0.160021 0.00461348 0)
(-0.161137 0.00421108 0)
(-0.162132 0.00377706 0)
(-0.162995 0.00331087 0)
(-0.163719 0.00281214 0)
(-0.164295 0.00228064 0)
(-0.164715 0.00171636 0)
(-0.164969 0.00111949 0)
(-0.16505 0.000490447 0)
(-0.16495 -0.000170101 0)
(-0.164661 -0.000861215 0)
(-0.164174 -0.00158167 0)
(-0.163484 -0.00232994 0)
(-0.162583 -0.00310419 0)
(-0.161465 -0.00390223 0)
(-0.160125 -0.00472155 0)
(-0.158558 -0.00555927 0)
(-0.156761 -0.00641217 0)
(-0.15473 -0.00727665 0)
(-0.152464 -0.00814877 0)
(-0.149962 -0.00902424 0)
(-0.147223 -0.0098984 0)
(-0.144251 -0.0107663 0)
(-0.141047 -0.0116227 0)
(-0.137615 -0.012462 0)
(-0.133963 -0.0132784 0)
(-0.130096 -0.014066 0)
(-0.126024 -0.0148186 0)
(-0.121757 -0.01553 0)
(-0.117308 -0.0161938 0)
(-0.112688 -0.0168038 0)
(-0.107915 -0.0173537 0)
(-0.103005 -0.0178374 0)
(-0.097975 -0.0182491 0)
(-0.0928458 -0.0185833 0)
(-0.0876383 -0.0188347 0)
(-0.0823747 -0.0189986 0)
(-0.0770785 -0.0190707 0)
(-0.0717743 -0.0190475 0)
(-0.0664872 -0.018926 0)