/*--------------------------------*- C++ -*----------------------------------*\
  =========                 |
  \\      /  F ield         | OpenFOAM: The Open Source CFD Toolbox
   \\    /   O peration     | Website:  https://openfoam.org
    \\  /    A nd           | Version:  7
     \\/     M anipulation  |
\*---------------------------------------------------------------------------*/
FoamFile
{
    version     2.0;
    format      ascii;
    class       surfaceScalarField;
    location    "0.1375";
    object      phi;
}
// * * * * * * * * * * * * * * * * * * * * * * * * * * * * * * * * * * * * * //

dimensions      [0 3 -1 0 0 0 0];

internalField   nonuniform List<scalar> 
25360
(
6.07118e-11
-6.0723e-11
2.096e-10
-1.48891e-10
3.74134e-10
-1.64529e-10
5.05348e-10
-1.31212e-10
5.74989e-10
-6.96426e-11
5.67642e-10
7.34674e-12
4.76133e-10
9.15074e-11
2.98519e-10
1.77612e-10
3.61803e-11
2.62338e-10
-3.07451e-10
3.43621e-10
-7.27654e-10
4.20204e-10
-1.21899e-09
4.91331e-10
-1.77562e-09
5.56628e-10
-2.39157e-09
6.15953e-10
-3.0609e-09
6.69339e-10
-3.77785e-09
7.16943e-10
-4.53686e-09
7.59008e-10
-5.33268e-09
7.95825e-10
-6.16041e-09
8.27732e-10
-7.0155e-09
8.55086e-10
-7.89375e-09
8.78249e-10
-8.79134e-09
8.97589e-10
-9.7048e-09
9.13466e-10
-1.0631e-08
9.2623e-10
-1.15672e-08
9.36211e-10
-1.2511e-08
9.43731e-10
-1.346e-08
9.49085e-10
-1.44126e-08
9.52541e-10
-1.53669e-08
9.5436e-10
-1.63217e-08
9.54777e-10
-1.72757e-08
9.54009e-10
-1.8228e-08
9.52245e-10
-1.91776e-08
9.49662e-10
-2.0124e-08
9.46417e-10
-2.10667e-08
9.42652e-10
-2.20052e-08
9.38491e-10
-2.29392e-08
9.34044e-10
-2.38686e-08
9.29406e-10
-2.47933e-08
9.2466e-10
-2.57132e-08
9.19878e-10
-2.66283e-08
9.15128e-10
-2.75388e-08
9.10472e-10
-2.84447e-08
9.05954e-10
-2.93463e-08
9.01613e-10
-3.02438e-08
8.97487e-10
-3.11374e-08
8.93613e-10
-3.20275e-08
8.90021e-10
-3.29142e-08
8.86733e-10
-3.3798e-08
8.83769e-10
-3.46791e-08
8.81154e-10
-3.5558e-08
8.7891e-10
-3.64351e-08
8.77049e-10
-3.73107e-08
8.7558e-10
-3.81852e-08
8.74514e-10
-3.9059e-08
8.73864e-10
-3.99327e-08
8.73639e-10
-4.08065e-08
8.73841e-10
-4.1681e-08
8.74473e-10
-4.25565e-08
8.75536e-10
-4.34335e-08
8.77032e-10
-4.43125e-08
8.78954e-10
-4.51938e-08
8.81287e-10
-4.60778e-08
8.84021e-10
-4.69649e-08
8.87146e-10
-4.78556e-08
8.90646e-10
-4.87501e-08
8.94495e-10
-4.96487e-08
8.98662e-10
-5.05519e-08
9.03111e-10
-5.14597e-08
9.07808e-10
-5.23724e-08
9.12712e-10
-5.32901e-08
9.17772e-10
-5.42131e-08
9.22929e-10
-5.51412e-08
9.28118e-10
-5.60745e-08
9.3327e-10
-5.70128e-08
9.3831e-10
-5.79559e-08
9.43152e-10
-5.89036e-08
9.47698e-10
-5.98555e-08
9.51847e-10
-6.0811e-08
9.55491e-10
-6.17695e-08
9.58508e-10
-6.27302e-08
9.60771e-10
-6.36924e-08
9.62138e-10
-6.46548e-08
9.62466e-10
-6.56164e-08
9.61602e-10
-6.65758e-08
9.59382e-10
-6.75315e-08
9.55636e-10
-6.84816e-08
9.5018e-10
-6.94245e-08
9.42823e-10
-7.03578e-08
9.33371e-10
-7.12795e-08
9.21618e-10
-7.21868e-08
9.07357e-10
-7.30772e-08
8.90371e-10
-7.39476e-08
8.70437e-10
-7.4795e-08
8.47332e-10
-7.56158e-08
8.20828e-10
-7.64065e-08
7.90701e-10
-7.71632e-08
7.56729e-10
-7.78819e-08
7.18694e-10
-7.85583e-08
6.76383e-10
-7.91879e-08
6.29589e-10
-7.9766e-08
5.78115e-10
-8.02878e-08
5.21783e-10
-8.07482e-08
4.60432e-10
-8.11422e-08
3.93925e-10
-8.14643e-08
3.22144e-10
-8.17093e-08
2.45001e-10
-8.18717e-08
1.62441e-10
-8.19462e-08
7.44478e-11
-8.19272e-08
-1.89558e-11
-8.18095e-08
-1.17701e-10
-8.15879e-08
-2.21673e-10
-8.12572e-08
-3.30699e-10
-8.08126e-08
-4.44551e-10
-8.02497e-08
-5.62942e-10
-7.95642e-08
-6.85517e-10
-7.87523e-08
-8.11856e-10
-7.78108e-08
-9.41469e-10
-7.6737e-08
-1.0738e-09
-7.55288e-08
-1.20822e-09
-7.41848e-08
-1.34403e-09
-7.27043e-08
-1.48045e-09
-7.10877e-08
-1.61666e-09
-6.93359e-08
-1.75175e-09
-6.74512e-08
-1.88476e-09
-6.54365e-08
-2.01467e-09
-6.32961e-08
-2.14043e-09
-6.10351e-08
-2.26094e-09
-5.86601e-08
-2.37507e-09
-5.61784e-08
-2.48169e-09
-5.35987e-08
-2.57964e-09
-5.09309e-08
-2.6678e-09
-4.81859e-08
-2.74504e-09
-4.53756e-08
-2.81029e-09
-4.25131e-08
-2.86251e-09
-3.96124e-08
-2.90073e-09
-3.66883e-08
-2.92406e-09
-3.37566e-08
-2.93171e-09
-3.08336e-08
-2.92297e-09
-2.79364e-08
-2.89725e-09
-2.50823e-08
-2.85411e-09
-2.22891e-08
-2.79319e-09
-1.95748e-08
-2.7143e-09
-1.69574e-08
-2.61738e-09
-1.44549e-08
-2.50252e-09
-1.20849e-08
-2.36992e-09
-9.86494e-09
-2.21999e-09
-7.81172e-09
-2.05323e-09
-5.94137e-09
-1.87035e-09
-4.26915e-09
-1.67222e-09
-2.80916e-09
-1.45999e-09
-1.57404e-09
-1.23512e-09
-5.74469e-10
-9.99568e-10
1.81611e-10
-7.56079e-10
6.90342e-10
-5.0873e-10
9.54209e-10
-2.63866e-10
9.86155e-10
-3.19433e-11
8.16493e-10
1.69664e-10
5.0595e-10
3.10546e-10
1.70066e-10
3.35887e-10
1.70068e-10
1.51015e-10
-2.11741e-10
4.16089e-10
-4.1395e-10
6.72672e-10
-4.2112e-10
8.33973e-10
-2.92516e-10
8.40368e-10
-7.60302e-11
6.54588e-10
1.9313e-10
2.5611e-10
4.89987e-10
-3.6346e-10
7.9719e-10
-1.20409e-09
1.10297e-09
-2.25985e-09
1.39939e-09
-3.52089e-09
1.68125e-09
-4.9748e-09
1.94524e-09
-6.6076e-09
2.18943e-09
-8.40449e-09
2.41285e-09
-1.03504e-08
2.61523e-09
-1.24303e-08
2.79685e-09
-1.46296e-08
2.95833e-09
-1.69343e-08
3.10056e-09
-1.93312e-08
3.22461e-09
-2.18078e-08
3.33167e-09
-2.43525e-08
3.42297e-09
-2.69547e-08
3.4998e-09
-2.96047e-08
3.56344e-09
-3.22936e-08
3.61514e-09
-3.50135e-08
3.65612e-09
-3.77573e-08
3.68753e-09
-4.05187e-08
3.71046e-09
-4.32921e-08
3.72594e-09
-4.60727e-08
3.73494e-09
-4.88563e-08
3.73833e-09
-5.16392e-08
3.73694e-09
-5.44184e-08
3.7315e-09
-5.71914e-08
3.72267e-09
-5.99561e-08
3.71107e-09
-6.27107e-08
3.69725e-09
-6.54539e-08
3.68167e-09
-6.81846e-08
3.6648e-09
-7.09022e-08
3.64699e-09
-7.36061e-08
3.62859e-09
-7.62961e-08
3.60989e-09
-7.89722e-08
3.59116e-09
-8.16344e-08
3.57263e-09
-8.42829e-08
3.55451e-09
-8.69183e-08
3.53697e-09
-8.9541e-08
3.52016e-09
-9.21516e-08
3.50422e-09
-9.47508e-08
3.48928e-09
-9.73395e-08
3.47544e-09
-9.99186e-08
3.46279e-09
-1.02489e-07
3.45142e-09
-1.05051e-07
3.44139e-09
-1.07607e-07
3.43278e-09
-1.10157e-07
3.42562e-09
-1.12703e-07
3.41998e-09
-1.15245e-07
3.41588e-09
-1.17784e-07
3.41338e-09
-1.20323e-07
3.41246e-09
-1.22862e-07
3.41316e-09
-1.25402e-07
3.41546e-09
-1.27944e-07
3.41936e-09
-1.3049e-07
3.42484e-09
-1.3304e-07
3.43186e-09
-1.35597e-07
3.44036e-09
-1.3816e-07
3.45029e-09
-1.40731e-07
3.46157e-09
-1.4331e-07
3.47411e-09
-1.45899e-07
3.48779e-09
-1.48499e-07
3.50246e-09
-1.51109e-07
3.51799e-09
-1.5373e-07
3.5342e-09
-1.56364e-07
3.55089e-09
-1.59009e-07
3.56784e-09
-1.61665e-07
3.58479e-09
-1.64333e-07
3.60148e-09
-1.67013e-07
3.61759e-09
-1.69702e-07
3.63279e-09
-1.72401e-07
3.64671e-09
-1.75108e-07
3.65896e-09
-1.77822e-07
3.6691e-09
-1.8054e-07
3.67669e-09
-1.83261e-07
3.68121e-09
-1.85981e-07
3.68215e-09
-1.88697e-07
3.67894e-09
-1.91407e-07
3.67099e-09
-1.94105e-07
3.65768e-09
-1.96788e-07
3.63836e-09
-1.9945e-07
3.61233e-09
-2.02086e-07
3.57888e-09
-2.0469e-07
3.53726e-09
-2.07255e-07
3.4867e-09
-2.09774e-07
3.42642e-09
-2.12239e-07
3.35561e-09
-2.14642e-07
3.27343e-09
-2.16974e-07
3.17907e-09
-2.19225e-07
3.07169e-09
-2.21384e-07
2.95045e-09
-2.23442e-07
2.81455e-09
-2.25387e-07
2.66316e-09
-2.27206e-07
2.49554e-09
-2.28887e-07
2.31092e-09
-2.30418e-07
2.10862e-09
-2.31784e-07
1.88801e-09
-2.32972e-07
1.64851e-09
-2.33968e-07
1.38966e-09
-2.34757e-07
1.11107e-09
-2.35324e-07
8.12465e-10
-2.35655e-07
4.93693e-10
-2.35736e-07
1.5475e-10
-2.3555e-07
-2.04217e-10
-2.35085e-07
-5.82889e-10
-2.34326e-07
-9.80763e-10
-2.3326e-07
-1.39713e-09
-2.31873e-07
-1.83109e-09
-2.30155e-07
-2.28148e-09
-2.28093e-07
-2.74693e-09
-2.25679e-07
-3.22583e-09
-2.22904e-07
-3.71631e-09
-2.19762e-07
-4.21622e-09
-2.16247e-07
-4.72319e-09
-2.12357e-07
-5.23458e-09
-2.08089e-07
-5.74748e-09
-2.03447e-07
-6.25878e-09
-1.98434e-07
-6.7651e-09
-1.93056e-07
-7.26288e-09
-1.87322e-07
-7.74835e-09
-1.81245e-07
-8.21759e-09
-1.74839e-07
-8.66656e-09
-1.68123e-07
-9.09111e-09
-1.61118e-07
-9.48705e-09
-1.53847e-07
-9.85017e-09
-1.46339e-07
-1.01763e-08
-1.38623e-07
-1.04614e-08
-1.30732e-07
-1.07014e-08
-1.22701e-07
-1.08927e-08
-1.14571e-07
-1.10316e-08
-1.0638e-07
-1.1115e-08
-9.81714e-08
-1.11399e-08
-8.99905e-08
-1.11039e-08
-8.1883e-08
-1.10048e-08
-7.38962e-08
-1.08409e-08
-6.60782e-08
-1.06112e-08
-5.84777e-08
-1.03149e-08
-5.11431e-08
-9.95198e-09
-4.41227e-08
-9.52289e-09
-3.74639e-08
-9.02867e-09
-3.12129e-08
-8.47098e-09
-2.5414e-08
-7.85213e-09
-2.01092e-08
-7.17522e-09
-1.53372e-08
-6.44419e-09
-1.11331e-08
-5.66412e-09
-7.52659e-09
-4.84159e-09
-4.54086e-09
-3.98531e-09
-2.18981e-09
-3.10713e-09
-4.74763e-10
-2.22378e-09
6.20988e-10
-1.35962e-09
1.14017e-09
-5.51124e-10
1.16356e-09
1.46266e-10
8.2604e-10
6.4807e-10
3.34664e-10
8.27265e-10
5.04732e-10
1.6987e-10
-3.81607e-10
4.30781e-10
-6.74868e-10
6.31383e-10
-6.21726e-10
6.66691e-10
-3.27834e-10
4.62238e-10
1.28422e-10
-3.12228e-11
6.8658e-10
-8.42654e-10
1.30142e-09
-1.98554e-09
1.94007e-09
-3.4617e-09
2.57911e-09
-5.26438e-09
3.20208e-09
-7.38082e-09
3.79768e-09
-9.79402e-09
4.35844e-09
-1.24843e-08
4.87966e-09
-1.54302e-08
5.35877e-09
-1.86097e-08
5.79473e-09
-2.20005e-08
6.18763e-09
-2.55806e-08
6.53845e-09
-2.93288e-08
6.84876e-09
-3.32247e-08
7.12057e-09
-3.72493e-08
7.35617e-09
-4.13843e-08
7.55806e-09
-4.56133e-08
7.72881e-09
-4.9921e-08
7.87105e-09
-5.42932e-08
7.98736e-09
-5.87173e-08
8.08027e-09
-6.3182e-08
8.15221e-09
-6.7677e-08
8.20549e-09
-7.21934e-08
8.2423e-09
-7.67231e-08
8.26468e-09
-8.12593e-08
8.27453e-09
-8.5796e-08
8.27361e-09
-9.0328e-08
8.26351e-09
-9.4851e-08
8.24569e-09
-9.93614e-08
8.22147e-09
-1.03856e-07
8.19205e-09
-1.08333e-07
8.15849e-09
-1.1279e-07
8.12176e-09
-1.17226e-07
8.08271e-09
-1.21639e-07
8.04208e-09
-1.2603e-07
8.00055e-09
-1.30397e-07
7.95871e-09
-1.34742e-07
7.91708e-09
-1.39063e-07
7.87612e-09
-1.43363e-07
7.83625e-09
-1.4764e-07
7.79781e-09
-1.51897e-07
7.76113e-09
-1.56134e-07
7.72648e-09
-1.60353e-07
7.6941e-09
-1.64555e-07
7.66422e-09
-1.6874e-07
7.63703e-09
-1.72911e-07
7.61268e-09
-1.7707e-07
7.59132e-09
-1.81217e-07
7.57307e-09
-1.85356e-07
7.55803e-09
-1.89486e-07
7.5463e-09
-1.9361e-07
7.53793e-09
-1.97731e-07
7.53297e-09
-2.01849e-07
7.53144e-09
-2.05967e-07
7.53333e-09
-2.10086e-07
7.53863e-09
-2.14209e-07
7.54726e-09
-2.18336e-07
7.55916e-09
-2.2247e-07
7.5742e-09
-2.26612e-07
7.59224e-09
-2.30763e-07
7.61311e-09
-2.34926e-07
7.63657e-09
-2.39101e-07
7.66239e-09
-2.43288e-07
7.69024e-09
-2.4749e-07
7.7198e-09
-2.51707e-07
7.75067e-09
-2.55938e-07
7.78241e-09
-2.60185e-07
7.81451e-09
-2.64446e-07
7.84642e-09
-2.68722e-07
7.87754e-09
-2.73012e-07
7.90718e-09
-2.77314e-07
7.93461e-09
-2.81626e-07
7.95902e-09
-2.85947e-07
7.97954e-09
-2.90273e-07
7.99523e-09
-2.94601e-07
8.00509e-09
-2.98928e-07
8.00803e-09
-3.03249e-07
8.0029e-09
-3.07558e-07
7.98848e-09
-3.11851e-07
7.96349e-09
-3.1612e-07
7.92658e-09
-3.20358e-07
7.87632e-09
-3.24557e-07
7.81122e-09
-3.28708e-07
7.72975e-09
-3.32801e-07
7.6303e-09
-3.36825e-07
7.51122e-09
-3.4077e-07
7.37082e-09
-3.44621e-07
7.20738e-09
-3.48367e-07
7.01913e-09
-3.51992e-07
6.80432e-09
-3.55482e-07
6.56117e-09
-3.58819e-07
6.28795e-09
-3.61988e-07
5.98291e-09
-3.64969e-07
5.64439e-09
-3.67744e-07
5.27076e-09
-3.70294e-07
4.8605e-09
-3.72597e-07
4.41217e-09
-3.74634e-07
3.92449e-09
-3.76381e-07
3.39631e-09
-3.77818e-07
2.82669e-09
-3.78922e-07
2.21488e-09
-3.7967e-07
1.56038e-09
-3.80039e-07
8.62974e-10
-3.80007e-07
1.22733e-10
-3.79552e-07
-6.5993e-10
-3.7865e-07
-1.48423e-09
-3.77282e-07
-2.34901e-09
-3.75427e-07
-3.25265e-09
-3.73065e-07
-4.1931e-09
-3.70178e-07
-5.16784e-09
-3.66751e-07
-6.17384e-09
-3.6277e-07
-7.20756e-09
-3.58221e-07
-8.26493e-09
-3.53096e-07
-9.34135e-09
-3.47387e-07
-1.04317e-08
-3.41092e-07
-1.15302e-08
-3.34208e-07
-1.26308e-08
-3.26741e-07
-1.37267e-08
-3.18695e-07
-1.48108e-08
-3.10082e-07
-1.58755e-08
-3.00918e-07
-1.69127e-08
-2.91221e-07
-1.79143e-08
-2.81016e-07
-1.88716e-08
-2.70331e-07
-1.97759e-08
-2.592e-07
-2.06183e-08
-2.4766e-07
-2.139e-08
-2.35754e-07
-2.20822e-08
-2.2353e-07
-2.26863e-08
-2.11037e-07
-2.3194e-08
-1.98332e-07
-2.35975e-08
-1.85474e-07
-2.38893e-08
-1.72527e-07
-2.40626e-08
-1.59555e-07
-2.41115e-08
-1.46629e-07
-2.40306e-08
-1.33818e-07
-2.38155e-08
-1.21196e-07
-2.3463e-08
-1.08836e-07
-2.29707e-08
-9.68137e-08
-2.23374e-08
-8.52027e-08
-2.1563e-08
-7.40768e-08
-2.06488e-08
-6.35082e-08
-1.95973e-08
-5.35666e-08
-1.84125e-08
-4.43188e-08
-1.70999e-08
-3.58273e-08
-1.56667e-08
-2.81492e-08
-1.41223e-08
-2.13348e-08
-1.24785e-08
-1.54257e-08
-1.07507e-08
-1.04521e-08
-8.95887e-09
-6.42976e-09
-7.12947e-09
-3.35492e-09
-5.29862e-09
-1.19804e-09
-3.5165e-09
1.05002e-10
-1.85417e-09
6.64592e-10
-4.13323e-10
6.50952e-10
6.6171e-10
3.09627e-10
1.16859e-09
8.14359e-10
1.37117e-10
-5.1872e-10
3.04382e-10
-8.42136e-10
3.41579e-10
-6.5893e-10
1.36554e-10
-1.22794e-10
-3.90807e-10
6.55785e-10
-1.29465e-09
1.59042e-09
-2.60785e-09
2.61463e-09
-4.34642e-09
3.67863e-09
-6.51306e-09
4.74576e-09
-9.10046e-09
5.78947e-09
-1.20937e-08
6.79094e-09
-1.54726e-08
7.73731e-09
-1.92131e-08
8.62017e-09
-2.32889e-08
9.43459e-09
-2.76724e-08
1.01782e-08
-3.23355e-08
1.08507e-08
-3.72503e-08
1.14532e-08
-4.23895e-08
1.1988e-08
-4.77269e-08
1.2458e-08
-5.32375e-08
1.28668e-08
-5.88979e-08
1.32184e-08
-6.4686e-08
1.3517e-08
-7.05817e-08
1.37667e-08
-7.65663e-08
1.3972e-08
-8.26228e-08
1.41368e-08
-8.87361e-08
1.42654e-08
-9.48922e-08
1.43616e-08
-1.01079e-07
1.4429e-08
-1.07285e-07
1.44712e-08
-1.13502e-07
1.44913e-08
-1.19721e-07
1.44923e-08
-1.25934e-07
1.44769e-08
-1.32136e-07
1.44478e-08
-1.38322e-07
1.44071e-08
-1.44487e-07
1.43569e-08
-1.50627e-07
1.42991e-08
-1.56741e-07
1.42354e-08
-1.62825e-07
1.41672e-08
-1.68879e-07
1.40958e-08
-1.74901e-07
1.40226e-08
-1.80891e-07
1.39484e-08
-1.86848e-07
1.38743e-08
-1.92773e-07
1.3801e-08
-1.98666e-07
1.37293e-08
-2.04528e-07
1.36599e-08
-2.1036e-07
1.35933e-08
-2.16164e-07
1.35299e-08
-2.2194e-07
1.34703e-08
-2.27691e-07
1.34149e-08
-2.33418e-07
1.33639e-08
-2.39123e-07
1.33177e-08
-2.44808e-07
1.32765e-08
-2.50475e-07
1.32406e-08
-2.56127e-07
1.32101e-08
-2.61766e-07
1.31852e-08
-2.67394e-07
1.3166e-08
-2.73014e-07
1.31526e-08
-2.78627e-07
1.31449e-08
-2.84237e-07
1.31431e-08
-2.89845e-07
1.31469e-08
-2.95455e-07
1.31565e-08
-3.01067e-07
1.31715e-08
-3.06684e-07
1.31917e-08
-3.12309e-07
1.3217e-08
-3.17943e-07
1.3247e-08
-3.23588e-07
1.32813e-08
-3.29245e-07
1.33194e-08
-3.34915e-07
1.33608e-08
-3.40601e-07
1.3405e-08
-3.46301e-07
1.34511e-08
-3.52017e-07
1.34985e-08
-3.57749e-07
1.35462e-08
-3.63496e-07
1.35933e-08
-3.69257e-07
1.36387e-08
-3.75031e-07
1.36812e-08
-3.80816e-07
1.37195e-08
-3.86609e-07
1.37523e-08
-3.92408e-07
1.37781e-08
-3.98207e-07
1.37951e-08
-4.04004e-07
1.38016e-08
-4.09792e-07
1.37959e-08
-4.15565e-07
1.37758e-08
-4.21316e-07
1.37394e-08
-4.27036e-07
1.36843e-08
-4.32718e-07
1.36083e-08
-4.38351e-07
1.3509e-08
-4.43923e-07
1.33837e-08
-4.49423e-07
1.32298e-08
-4.54838e-07
1.30447e-08
-4.60152e-07
1.28255e-08
-4.65351e-07
1.25693e-08
-4.70416e-07
1.22733e-08
-4.75332e-07
1.19343e-08
-4.80077e-07
1.15496e-08
-4.84632e-07
1.11161e-08
-4.88975e-07
1.06308e-08
-4.93083e-07
1.0091e-08
-4.96932e-07
9.4937e-09
-5.00498e-07
8.83634e-09
-5.03754e-07
8.11637e-09
-5.06673e-07
7.33145e-09
-5.09228e-07
6.47948e-09
-5.1139e-07
5.55864e-09
-5.13131e-07
4.56743e-09
-5.14421e-07
3.50469e-09
-5.1523e-07
2.36973e-09
-5.15529e-07
1.16228e-09
-5.15289e-07
-1.17388e-10
-5.14481e-07
-1.46842e-09
-5.13076e-07
-2.88936e-09
-5.11047e-07
-4.37808e-09
-5.08367e-07
-5.93171e-09
-5.05014e-07
-7.54665e-09
-5.00963e-07
-9.21849e-09
-4.96195e-07
-1.0942e-08
-4.90692e-07
-1.2711e-08
-4.84438e-07
-1.45185e-08
-4.77423e-07
-1.63567e-08
-4.69638e-07
-1.82168e-08
-4.61079e-07
-2.00891e-08
-4.51746e-07
-2.19631e-08
-4.41646e-07
-2.38275e-08
-4.30786e-07
-2.56701e-08
-4.19184e-07
-2.74781e-08
-4.06858e-07
-2.92382e-08
-3.93836e-07
-3.09363e-08
-3.8015e-07
-3.2558e-08
-3.65837e-07
-3.40886e-08
-3.50942e-07
-3.55134e-08
-3.35515e-07
-3.68175e-08
-3.19611e-07
-3.79862e-08
-3.03292e-07
-3.90051e-08
-2.86625e-07
-3.98604e-08
-2.69684e-07
-4.05389e-08
-2.52545e-07
-4.10283e-08
-2.3529e-07
-4.13172e-08
-2.18006e-07
-4.13957e-08
-2.00782e-07
-4.1255e-08
-1.83709e-07
-4.08879e-08
-1.66883e-07
-4.02889e-08
-1.504e-07
-3.94543e-08
-1.34355e-07
-3.83822e-08
-1.18845e-07
-3.7073e-08
-1.03965e-07
-3.55291e-08
-8.98068e-08
-3.37552e-08
-7.64608e-08
-3.17586e-08
-6.40114e-08
-2.95493e-08
-5.25377e-08
-2.71404e-08
-4.21111e-08
-2.45489e-08
-3.27935e-08
-2.17961e-08
-2.4635e-08
-1.89092e-08
-1.7671e-08
-1.59229e-08
-1.19177e-08
-1.28827e-08
-7.36803e-09
-9.84833e-09
-3.98453e-09
-6.9e-09
-1.692e-09
-4.1467e-09
-3.67598e-10
-1.73772e-09
1.7004e-10
1.24074e-10
1.73869e-10
1.16476e-09
9.88231e-10
7.48574e-11
-5.93579e-10
8.52151e-11
-8.52488e-10
-1.21053e-10
-4.52664e-10
-6.53559e-10
4.09716e-10
-1.59129e-09
1.59351e-09
-2.98809e-09
2.98723e-09
-4.87701e-09
4.50354e-09
-7.274e-09
6.07564e-09
-1.01814e-08
7.65312e-09
-1.35905e-08
9.19863e-09
-1.74847e-08
1.06851e-08
-2.18408e-08
1.20934e-08
-2.66315e-08
1.34109e-08
-3.18265e-08
1.46296e-08
-3.73938e-08
1.57455e-08
-4.33005e-08
1.67575e-08
-4.95139e-08
1.76666e-08
-5.60017e-08
1.84758e-08
-6.27326e-08
1.91889e-08
-6.96769e-08
1.98111e-08
-7.68063e-08
2.03478e-08
-8.40943e-08
2.08049e-08
-9.15163e-08
2.11887e-08
-9.90496e-08
2.15052e-08
-1.06673e-07
2.17606e-08
-1.14369e-07
2.19608e-08
-1.22119e-07
2.21116e-08
-1.29908e-07
2.22183e-08
-1.37723e-07
2.22862e-08
-1.45552e-07
2.232e-08
-1.53384e-07
2.23243e-08
-1.6121e-07
2.23032e-08
-1.69023e-07
2.22603e-08
-1.76815e-07
2.21993e-08
-1.84581e-07
2.21233e-08
-1.92317e-07
2.2035e-08
-2.00019e-07
2.19371e-08
-2.07683e-07
2.18318e-08
-2.15309e-07
2.17212e-08
-2.22893e-07
2.16071e-08
-2.30436e-07
2.14912e-08
-2.37937e-07
2.13749e-08
-2.45395e-07
2.12595e-08
-2.52812e-07
2.11461e-08
-2.60188e-07
2.10358e-08
-2.67524e-07
2.09294e-08
-2.74822e-07
2.08277e-08
-2.82083e-07
2.07315e-08
-2.89309e-07
2.06413e-08
-2.96503e-07
2.05577e-08
-3.03667e-07
2.04812e-08
-3.10802e-07
2.04121e-08
-3.17912e-07
2.03508e-08
-3.25e-07
2.02976e-08
-3.32068e-07
2.02528e-08
-3.39118e-07
2.02164e-08
-3.46154e-07
2.01886e-08
-3.53179e-07
2.01695e-08
-3.60194e-07
2.0159e-08
-3.67204e-07
2.0157e-08
-3.74211e-07
2.01633e-08
-3.81218e-07
2.01778e-08
-3.88226e-07
2.02002e-08
-3.95239e-07
2.02298e-08
-4.02258e-07
2.02664e-08
-4.09286e-07
2.03092e-08
-4.16325e-07
2.03576e-08
-4.23374e-07
2.04107e-08
-4.30437e-07
2.04676e-08
-4.37513e-07
2.05272e-08
-4.44603e-07
2.05883e-08
-4.51706e-07
2.06495e-08
-4.58822e-07
2.07093e-08
-4.6595e-07
2.07661e-08
-4.73087e-07
2.08181e-08
-4.8023e-07
2.08633e-08
-4.87378e-07
2.08996e-08
-4.94524e-07
2.09246e-08
-5.01665e-07
2.09359e-08
-5.08794e-07
2.09309e-08
-5.15905e-07
2.09066e-08
-5.22989e-07
2.08601e-08
-5.30038e-07
2.07883e-08
-5.37042e-07
2.06876e-08
-5.43988e-07
2.05548e-08
-5.50865e-07
2.03859e-08
-5.57659e-07
2.01774e-08
-5.64354e-07
1.99251e-08
-5.70934e-07
1.96249e-08
-5.77381e-07
1.92728e-08
-5.83676e-07
1.88643e-08
-5.89798e-07
1.83952e-08
-5.95725e-07
1.7861e-08
-6.01433e-07
1.72573e-08
-6.06896e-07
1.65797e-08
-6.12089e-07
1.58239e-08
-6.16984e-07
1.49857e-08
-6.21551e-07
1.40608e-08
-6.2576e-07
1.30455e-08
-6.2958e-07
1.1936e-08
-6.32978e-07
1.07291e-08
-6.3592e-07
9.42155e-09
-6.38372e-07
8.01093e-09
-6.403e-07
6.4951e-09
-6.41668e-07
4.87252e-09
-6.4244e-07
3.14229e-09
-6.42582e-07
1.30423e-09
-6.42058e-07
-6.41089e-10
-6.40835e-07
-2.69221e-09
-6.38877e-07
-4.84676e-09
-6.36154e-07
-7.10137e-09
-6.32634e-07
-9.4516e-09
-6.28289e-07
-1.18919e-08
-6.23092e-07
-1.44154e-08
-6.1702e-07
-1.70143e-08
-6.10051e-07
-1.96792e-08
-6.0217e-07
-2.23996e-08
-5.93363e-07
-2.51636e-08
-5.83622e-07
-2.7958e-08
-5.72943e-07
-3.07685e-08
-5.61327e-07
-3.35793e-08
-5.48781e-07
-3.63734e-08
-5.35318e-07
-3.91329e-08
-5.20957e-07
-4.18387e-08
-5.05725e-07
-4.44709e-08
-4.89652e-07
-4.70087e-08
-4.72779e-07
-4.94309e-08
-4.55152e-07
-5.17157e-08
-4.36824e-07
-5.38412e-08
-4.17856e-07
-5.57855e-08
-3.98316e-07
-5.75269e-08
-3.78277e-07
-5.90442e-08
-3.5782e-07
-6.0317e-08
-3.37033e-07
-6.13259e-08
-3.16008e-07
-6.20527e-08
-2.94845e-07
-6.24809e-08
-2.73645e-07
-6.25956e-08
-2.52516e-07
-6.2384e-08
-2.31568e-07
-6.18357e-08
-2.10914e-07
-6.09427e-08
-1.90669e-07
-5.96998e-08
-1.70946e-07
-5.81045e-08
-1.51862e-07
-5.61576e-08
-1.33528e-07
-5.38633e-08
-1.16054e-07
-5.12291e-08
-9.95457e-08
-4.82666e-08
-8.41035e-08
-4.49915e-08
-6.98194e-08
-4.14245e-08
-5.67764e-08
-3.75919e-08
-4.50461e-08
-3.35265e-08
-3.46854e-08
-2.92699e-08
-2.57339e-08
-2.48744e-08
-1.82099e-08
-2.04067e-08
-1.21055e-08
-1.59528e-08
-7.38123e-09
-1.16242e-08
-3.95986e-09
-7.56806e-09
-1.71893e-09
-3.97865e-09
-4.83151e-10
-1.1117e-09
-1.56011e-11
6.97215e-10
9.72631e-10
-4.06694e-12
-5.8951e-10
-1.92813e-10
-6.63737e-10
-6.99962e-10
5.4475e-11
-1.62504e-09
1.3348e-09
-3.04051e-09
3.00897e-09
-4.99578e-09
4.9425e-09
-7.52084e-09
7.0286e-09
-1.06294e-08
9.18416e-09
-1.43216e-08
1.13453e-08
-1.85868e-08
1.34639e-08
-2.3406e-08
1.55042e-08
-2.87533e-08
1.74407e-08
-3.45984e-08
1.92559e-08
-4.09075e-08
2.09387e-08
-4.76449e-08
2.24829e-08
-5.47739e-08
2.38865e-08
-6.22575e-08
2.51502e-08
-7.00593e-08
2.62776e-08
-7.81439e-08
2.72735e-08
-8.64772e-08
2.81444e-08
-9.5027e-08
2.88975e-08
-1.03763e-07
2.95406e-08
-1.12656e-07
3.00819e-08
-1.2168e-07
3.05296e-08
-1.30812e-07
3.0892e-08
-1.40028e-07
3.11771e-08
-1.49309e-07
3.13928e-08
-1.58637e-07
3.15465e-08
-1.67997e-07
3.16453e-08
-1.77372e-07
3.16958e-08
-1.86752e-07
3.17041e-08
-1.96125e-07
3.16761e-08
-2.05482e-07
3.16169e-08
-2.14814e-07
3.15315e-08
-2.24115e-07
3.14241e-08
-2.33379e-07
3.12989e-08
-2.42601e-07
3.11594e-08
-2.51778e-07
3.10088e-08
-2.60907e-07
3.08501e-08
-2.69985e-07
3.06858e-08
-2.79013e-07
3.05184e-08
-2.87987e-07
3.03498e-08
-2.9691e-07
3.01819e-08
-3.0578e-07
3.00164e-08
-3.14599e-07
2.98548e-08
-3.23368e-07
2.96982e-08
-3.32088e-07
2.95479e-08
-3.40762e-07
2.94049e-08
-3.4939e-07
2.927e-08
-3.57977e-07
2.91441e-08
-3.66523e-07
2.90278e-08
-3.75033e-07
2.89217e-08
-3.83508e-07
2.88263e-08
-3.91953e-07
2.8742e-08
-4.00369e-07
2.86692e-08
-4.08761e-07
2.86081e-08
-4.17131e-07
2.85588e-08
-4.25483e-07
2.85213e-08
-4.3382e-07
2.84958e-08
-4.42145e-07
2.84819e-08
-4.50461e-07
2.84795e-08
-4.58771e-07
2.84883e-08
-4.67079e-07
2.85077e-08
-4.75386e-07
2.85371e-08
-4.83695e-07
2.85759e-08
-4.92009e-07
2.8623e-08
-5.00329e-07
2.86776e-08
-5.08657e-07
2.87384e-08
-5.16993e-07
2.88041e-08
-5.25339e-07
2.88731e-08
-5.33695e-07
2.89437e-08
-5.42059e-07
2.90139e-08
-5.50432e-07
2.90818e-08
-5.5881e-07
2.91448e-08
-5.67193e-07
2.92006e-08
-5.75576e-07
2.92462e-08
-5.83955e-07
2.92787e-08
-5.92325e-07
2.92948e-08
-6.0068e-07
2.92911e-08
-6.09013e-07
2.92638e-08
-6.17315e-07
2.9209e-08
-6.25578e-07
2.91225e-08
-6.33789e-07
2.89997e-08
-6.41938e-07
2.88362e-08
-6.5001e-07
2.86268e-08
-6.57991e-07
2.83667e-08
-6.65864e-07
2.80504e-08
-6.73611e-07
2.76724e-08
-6.81213e-07
2.72271e-08
-6.88649e-07
2.67087e-08
-6.95896e-07
2.61113e-08
-7.0293e-07
2.54289e-08
-7.09724e-07
2.46554e-08
-7.16252e-07
2.37848e-08
-7.22483e-07
2.28111e-08
-7.28387e-07
2.17283e-08
-7.33932e-07
2.05308e-08
-7.39085e-07
1.9213e-08
-7.43809e-07
1.77695e-08
-7.48068e-07
1.61955e-08
-7.51826e-07
1.44865e-08
-7.55042e-07
1.26385e-08
-7.5768e-07
1.06481e-08
-7.59697e-07
8.51258e-09
-7.61055e-07
6.23008e-09
-7.61712e-07
3.79955e-09
-7.61629e-07
1.22095e-09
-7.60765e-07
-1.50468e-09
-7.59082e-07
-4.37512e-09
-7.56542e-07
-7.38686e-09
-7.53108e-07
-1.0535e-08
-7.48747e-07
-1.38133e-08
-7.43425e-07
-1.72138e-08
-7.37113e-07
-2.07269e-08
-7.29786e-07
-2.43417e-08
-7.2142e-07
-2.8045e-08
-7.11997e-07
-3.18223e-08
-7.01504e-07
-3.5657e-08
-6.89931e-07
-3.95311e-08
-6.77275e-07
-4.34246e-08
-6.63538e-07
-4.73158e-08
-6.4873e-07
-5.11814e-08
-6.32866e-07
-5.49968e-08
-6.15969e-07
-5.87358e-08
-5.98069e-07
-6.23711e-08
-5.79203e-07
-6.58743e-08
-5.59418e-07
-6.92164e-08
-5.38766e-07
-7.23676e-08
-5.17309e-07
-7.52979e-08
-4.95117e-07
-7.79776e-08
-4.72267e-07
-8.03769e-08
-4.48844e-07
-8.24671e-08
-4.24941e-07
-8.42203e-08
-4.00657e-07
-8.56099e-08
-3.76098e-07
-8.66113e-08
-3.51377e-07
-8.7202e-08
-3.26611e-07
-8.73617e-08
-3.01922e-07
-8.70732e-08
-2.77435e-07
-8.63223e-08
-2.5328e-07
-8.50983e-08
-2.29585e-07
-8.33942e-08
-2.06483e-07
-8.12071e-08
-1.84102e-07
-7.85385e-08
-1.62571e-07
-7.53946e-08
-1.42013e-07
-7.17865e-08
-1.22549e-07
-6.77307e-08
-1.04291e-07
-6.32499e-08
-8.73419e-08
-5.83734e-08
-7.17956e-08
-5.31381e-08
-5.77316e-08
-4.75905e-08
-4.52135e-08
-4.17879e-08
-3.42859e-08
-3.5802e-08
-2.49707e-08
-2.9722e-08
-1.72628e-08
-2.36606e-08
-1.11265e-08
-1.77606e-08
-6.48967e-09
-1.22048e-08
-3.24026e-09
-7.22806e-09
-1.22128e-09
-3.13068e-09
-2.27382e-10
-2.96682e-10
7.45248e-10
-9.22186e-11
-4.97294e-10
-5.07094e-10
-2.48861e-10
-1.3548e-09
9.02179e-10
-2.71973e-09
2.69974e-09
-4.66363e-09
4.95287e-09
-7.22823e-09
7.50709e-09
-1.04378e-08
1.02381e-08
-1.43015e-08
1.30479e-08
-1.88161e-08
1.58599e-08
-2.39677e-08
1.86155e-08
-2.97343e-08
2.12708e-08
-3.60871e-08
2.37936e-08
-4.29928e-08
2.61616e-08
-5.04143e-08
2.83602e-08
-5.83127e-08
3.03813e-08
-6.66477e-08
3.22215e-08
-7.53789e-08
3.38814e-08
-8.44662e-08
3.53649e-08
-9.38706e-08
3.66779e-08
-1.03554e-07
3.78282e-08
-1.13482e-07
3.88248e-08
-1.23619e-07
3.96776e-08
-1.33934e-07
4.03967e-08
-1.44397e-07
4.09928e-08
-1.54981e-07
4.14764e-08
-1.65662e-07
4.18578e-08
-1.76416e-07
4.21471e-08
-1.87223e-07
4.23539e-08
-1.98066e-07
4.24875e-08
-2.08926e-07
4.25564e-08
-2.19791e-07
4.25687e-08
-2.30647e-07
4.2532e-08
-2.41483e-07
4.24531e-08
-2.5229e-07
4.23385e-08
-2.6306e-07
4.2194e-08
-2.73786e-07
4.20248e-08
-2.84462e-07
4.18358e-08
-2.95085e-07
4.16312e-08
-3.0565e-07
4.14151e-08
-3.16155e-07
4.11908e-08
-3.26598e-07
4.09615e-08
-3.36978e-07
4.07301e-08
-3.47295e-07
4.04989e-08
-3.57549e-07
4.02703e-08
-3.6774e-07
4.00462e-08
-3.7787e-07
3.98283e-08
-3.87941e-07
3.96184e-08
-3.97954e-07
3.94176e-08
-4.07911e-07
3.92272e-08
-4.17815e-07
3.90484e-08
-4.2767e-07
3.8882e-08
-4.37477e-07
3.87288e-08
-4.4724e-07
3.85896e-08
-4.56963e-07
3.84648e-08
-4.66648e-07
3.83549e-08
-4.76301e-07
3.82602e-08
-4.85923e-07
3.81809e-08
-4.95518e-07
3.81171e-08
-5.05091e-07
3.80688e-08
-5.14645e-07
3.80356e-08
-5.24183e-07
3.80174e-08
-5.33708e-07
3.80136e-08
-5.43224e-07
3.80235e-08
-5.52733e-07
3.80464e-08
-5.62239e-07
3.80812e-08
-5.71742e-07
3.81268e-08
-5.81246e-07
3.81817e-08
-5.90752e-07
3.82444e-08
-6.00261e-07
3.8313e-08
-6.09774e-07
3.83854e-08
-6.19289e-07
3.84594e-08
-6.28808e-07
3.85324e-08
-6.38328e-07
3.86015e-08
-6.47846e-07
3.86636e-08
-6.57361e-07
3.87153e-08
-6.66868e-07
3.87529e-08
-6.76361e-07
3.87724e-08
-6.85836e-07
3.87694e-08
-6.95284e-07
3.87395e-08
-7.04698e-07
3.86776e-08
-7.14067e-07
3.85784e-08
-7.23382e-07
3.84365e-08
-7.32628e-07
3.8246e-08
-7.41792e-07
3.80008e-08
-7.5086e-07
3.76943e-08
-7.59813e-07
3.73199e-08
-7.68633e-07
3.68706e-08
-7.773e-07
3.63392e-08
-7.85791e-07
3.57184e-08
-7.94083e-07
3.50006e-08
-8.0215e-07
3.4178e-08
-8.09964e-07
3.32428e-08
-8.17496e-07
3.21873e-08
-8.24715e-07
3.10036e-08
-8.31587e-07
2.96838e-08
-8.3808e-07
2.82205e-08
-8.44155e-07
2.66063e-08
-8.49776e-07
2.48338e-08
-8.54903e-07
2.28966e-08
-8.59496e-07
2.07882e-08
-8.63512e-07
1.85031e-08
-8.6691e-07
1.60362e-08
-8.69645e-07
1.33834e-08
-8.71674e-07
1.05412e-08
-8.72951e-07
7.50763e-09
-8.73433e-07
4.28142e-09
-8.73075e-07
8.62838e-10
-8.71833e-07
-2.74651e-09
-8.69665e-07
-6.54345e-09
-8.66529e-07
-1.05232e-08
-8.62385e-07
-1.46791e-08
-8.57195e-07
-1.90026e-08
-8.50926e-07
-2.34833e-08
-8.43544e-07
-2.81085e-08
-8.35022e-07
-3.28636e-08
-8.25336e-07
-3.77314e-08
-8.14465e-07
-4.26929e-08
-8.02396e-07
-4.77264e-08
-7.89119e-07
-5.28082e-08
-7.74631e-07
-5.79122e-08
-7.58937e-07
-6.30104e-08
-7.42046e-07
-6.80724e-08
-7.23977e-07
-7.30661e-08
-7.04755e-07
-7.79577e-08
-6.84414e-07
-8.27118e-08
-6.62997e-07
-8.72915e-08
-6.40554e-07
-9.16592e-08
-6.17145e-07
-9.57766e-08
-5.92838e-07
-9.96048e-08
-5.67711e-07
-1.03105e-07
-5.41848e-07
-1.06239e-07
-5.15345e-07
-1.0897e-07
-4.88303e-07
-1.11262e-07
-4.60833e-07
-1.1308e-07
-4.33052e-07
-1.14392e-07
-4.05084e-07
-1.1517e-07
-3.77059e-07
-1.15387e-07
-3.49111e-07
-1.15021e-07
-3.21379e-07
-1.14054e-07
-2.94004e-07
-1.12473e-07
-2.67131e-07
-1.10267e-07
-2.40904e-07
-1.07435e-07
-2.15465e-07
-1.03977e-07
-1.90955e-07
-9.9904e-08
-1.67512e-07
-9.52294e-08
-1.45267e-07
-8.9976e-08
-1.24343e-07
-8.41739e-08
-1.04854e-07
-7.78621e-08
-8.69027e-08
-7.10896e-08
-7.05763e-08
-6.39169e-08
-5.59456e-08
-5.64186e-08
-4.30617e-08
-4.86859e-08
-3.19521e-08
-4.08315e-08
-2.26186e-08
-3.29941e-08
-1.50333e-08
-2.5346e-08
-9.13581e-09
-1.81023e-08
-4.83133e-09
-1.15325e-08
-1.98926e-09
-5.97275e-09
-4.44139e-10
-1.8418e-09
3.0111e-10
-1.85166e-10
-3.1213e-10
-8.42727e-10
4.0871e-10
-2.05741e-09
2.11686e-09
-3.89541e-09
4.53773e-09
-6.40489e-09
7.46237e-09
-9.6173e-09
1.07195e-08
-1.35489e-08
1.41698e-08
-1.82028e-08
1.77018e-08
-2.35706e-08
2.12277e-08
-2.96342e-08
2.46792e-08
-3.63678e-08
2.80044e-08
-4.37394e-08
3.11651e-08
-5.17122e-08
3.41343e-08
-6.0246e-08
3.68941e-08
-6.92988e-08
3.94341e-08
-7.88271e-08
4.17497e-08
-8.87872e-08
4.38415e-08
-9.91358e-08
4.57136e-08
-1.09831e-07
4.73729e-08
-1.20831e-07
4.88287e-08
-1.32098e-07
5.00918e-08
-1.43595e-07
5.11741e-08
-1.55286e-07
5.20882e-08
-1.6714e-07
5.28469e-08
-1.79127e-07
5.34632e-08
-1.91219e-07
5.39499e-08
-2.03392e-07
5.43195e-08
-2.15622e-07
5.45839e-08
-2.27889e-07
5.47546e-08
-2.40175e-07
5.48424e-08
-2.52464e-07
5.48575e-08
-2.64741e-07
5.48092e-08
-2.76994e-07
5.47064e-08
-2.89213e-07
5.45571e-08
-3.01387e-07
5.43687e-08
-3.1351e-07
5.41479e-08
-3.25576e-07
5.39008e-08
-3.37577e-07
5.3633e-08
-3.49512e-07
5.33495e-08
-3.61376e-07
5.30547e-08
-3.73167e-07
5.27527e-08
-3.84884e-07
5.24471e-08
-3.96526e-07
5.21411e-08
-4.08093e-07
5.18377e-08
-4.19587e-07
5.15394e-08
-4.31007e-07
5.12485e-08
-4.42356e-07
5.09671e-08
-4.53635e-07
5.06968e-08
-4.64847e-07
5.04394e-08
-4.75995e-07
5.01962e-08
-4.87081e-07
4.99685e-08
-4.9811e-07
4.97572e-08