/*--------------------------------*- C++ -*----------------------------------*\
  =========                 |
  \\      /  F ield         | OpenFOAM: The Open Source CFD Toolbox
   \\    /   O peration     | Website:  https://openfoam.org
    \\  /    A nd           | Version:  7
     \\/     M anipulation  |
\*---------------------------------------------------------------------------*/
FoamFile
{
    version     2.0;
    format      ascii;
    class       volVectorField;
    location    "0.15";
    object      U;
}
// * * * * * * * * * * * * * * * * * * * * * * * * * * * * * * * * * * * * * //

dimensions      [0 1 -1 0 0 0 0];

internalField   nonuniform List<vector> 
51200
(
(1.25264e-08 1.53999e-08 0)
(6.0147e-08 -4.26378e-08 0)
(1.66823e-07 -7.66327e-08 0)
(3.19409e-07 -7.37394e-08 0)
(4.64266e-07 -5.97789e-08 0)
(5.86928e-07 -4.77543e-08 0)
(6.87447e-07 -3.76533e-08 0)
(7.67017e-07 -2.99843e-08 0)
(8.24487e-07 -2.04439e-08 0)
(8.58355e-07 -1.1326e-08 0)
(8.67797e-07 -2.70993e-09 0)
(8.53713e-07 5.12759e-09 0)
(8.13981e-07 1.14825e-08 0)
(7.49967e-07 1.77466e-08 0)
(6.61558e-07 2.51624e-08 0)
(5.46869e-07 3.29709e-08 0)
(4.08617e-07 4.03157e-08 0)
(2.47363e-07 4.7862e-08 0)
(6.14778e-08 5.56438e-08 0)
(-1.46992e-07 6.30932e-08 0)
(-3.76438e-07 6.96934e-08 0)
(-6.27147e-07 7.43786e-08 0)
(-8.96915e-07 7.75375e-08 0)
(-1.18413e-06 8.08659e-08 0)
(-1.48913e-06 8.48985e-08 0)
(-1.81059e-06 8.9656e-08 0)
(-2.14686e-06 9.50776e-08 0)
(-2.4973e-06 1.00175e-07 0)
(-2.86082e-06 1.03926e-07 0)
(-3.23561e-06 1.06576e-07 0)
(-3.62042e-06 1.09089e-07 0)
(-4.0148e-06 1.11837e-07 0)
(-4.41767e-06 1.14572e-07 0)
(-4.82761e-06 1.17012e-07 0)
(-5.24346e-06 1.18468e-07 0)
(-5.66392e-06 1.18573e-07 0)
(-6.08805e-06 1.18418e-07 0)
(-6.51519e-06 1.19027e-07 0)
(-6.9442e-06 1.20116e-07 0)
(-7.37413e-06 1.21044e-07 0)
(-7.80438e-06 1.21371e-07 0)
(-8.23368e-06 1.20808e-07 0)
(-8.66084e-06 1.19697e-07 0)
(-9.08542e-06 1.18522e-07 0)
(-9.50679e-06 1.17272e-07 0)
(-9.9239e-06 1.15848e-07 0)
(-1.03359e-05 1.14369e-07 0)
(-1.07424e-05 1.12864e-07 0)
(-1.11426e-05 1.11288e-07 0)
(-1.15359e-05 1.09677e-07 0)
(-1.19216e-05 1.07803e-07 0)
(-1.2299e-05 1.05169e-07 0)
(-1.26678e-05 1.01813e-07 0)
(-1.30274e-05 9.84309e-08 0)
(-1.33772e-05 9.55913e-08 0)
(-1.37168e-05 9.33121e-08 0)
(-1.40458e-05 9.10969e-08 0)
(-1.43638e-05 8.82251e-08 0)
(-1.46703e-05 8.44526e-08 0)
(-1.49647e-05 8.03439e-08 0)
(-1.52469e-05 7.65894e-08 0)
(-1.55167e-05 7.32539e-08 0)
(-1.57738e-05 6.99169e-08 0)
(-1.60175e-05 6.62726e-08 0)
(-1.62477e-05 6.24041e-08 0)
(-1.64642e-05 5.85665e-08 0)
(-1.6667e-05 5.48605e-08 0)
(-1.6856e-05 5.1164e-08 0)
(-1.70309e-05 4.72351e-08 0)
(-1.71913e-05 4.28966e-08 0)
(-1.73369e-05 3.82548e-08 0)
(-1.74677e-05 3.36735e-08 0)
(-1.75836e-05 2.94942e-08 0)
(-1.76847e-05 2.58019e-08 0)
(-1.77708e-05 2.23326e-08 0)
(-1.78419e-05 1.86174e-08 0)
(-1.78978e-05 1.43401e-08 0)
(-1.79385e-05 9.5482e-09 0)
(-1.79639e-05 4.58851e-09 0)
(-1.79739e-05 -1.20126e-10 0)
(-1.79686e-05 -4.34971e-09 0)
(-1.79481e-05 -8.16033e-09 0)
(-1.79124e-05 -1.18008e-08 0)
(-1.78616e-05 -1.55877e-08 0)
(-1.77957e-05 -1.9771e-08 0)
(-1.77145e-05 -2.43738e-08 0)
(-1.76183e-05 -2.91497e-08 0)
(-1.7507e-05 -3.37337e-08 0)
(-1.73809e-05 -3.78554e-08 0)
(-1.72402e-05 -4.15055e-08 0)
(-1.70851e-05 -4.49996e-08 0)
(-1.69157e-05 -4.8766e-08 0)
(-1.67321e-05 -5.29274e-08 0)
(-1.65343e-05 -5.72015e-08 0)
(-1.63228e-05 -6.12452e-08 0)
(-1.60977e-05 -6.49379e-08 0)
(-1.58595e-05 -6.83823e-08 0)
(-1.56083e-05 -7.17704e-08 0)
(-1.53444e-05 -7.52135e-08 0)
(-1.50679e-05 -7.86979e-08 0)
(-1.47793e-05 -8.21767e-08 0)
(-1.44789e-05 -8.55771e-08 0)
(-1.41671e-05 -8.8774e-08 0)
(-1.38443e-05 -9.16822e-08 0)
(-1.3511e-05 -9.43485e-08 0)
(-1.31677e-05 -9.69355e-08 0)
(-1.28146e-05 -9.95992e-08 0)
(-1.24522e-05 -1.02317e-07 0)
(-1.20811e-05 -1.04879e-07 0)
(-1.17019e-05 -1.07123e-07 0)
(-1.13151e-05 -1.09072e-07 0)
(-1.09213e-05 -1.10831e-07 0)
(-1.05211e-05 -1.12462e-07 0)
(-1.01151e-05 -1.14004e-07 0)
(-9.70407e-06 -1.15453e-07 0)
(-9.28866e-06 -1.16693e-07 0)
(-8.86973e-06 -1.17588e-07 0)
(-8.44809e-06 -1.18142e-07 0)
(-8.02448e-06 -1.18485e-07 0)
(-7.59967e-06 -1.18694e-07 0)
(-7.1745e-06 -1.18705e-07 0)
(-6.74994e-06 -1.18406e-07 0)
(-6.32702e-06 -1.1777e-07 0)
(-5.90671e-06 -1.16875e-07 0)
(-5.48993e-06 -1.15766e-07 0)
(-5.07759e-06 -1.1437e-07 0)
(-4.67072e-06 -1.12587e-07 0)
(-4.27038e-06 -1.10442e-07 0)
(-3.87764e-06 -1.08046e-07 0)
(-3.49361e-06 -1.05433e-07 0)
(-3.11939e-06 -1.02511e-07 0)
(-2.75616e-06 -9.91791e-08 0)
(-2.40505e-06 -9.54388e-08 0)
(-2.06718e-06 -9.13801e-08 0)
(-1.74368e-06 -8.70706e-08 0)
(-1.43566e-06 -8.24985e-08 0)
(-1.14426e-06 -7.76069e-08 0)
(-8.70608e-07 -7.23252e-08 0)
(-6.15809e-07 -6.65994e-08 0)
(-3.80925e-07 -6.04568e-08 0)
(-1.66965e-07 -5.40342e-08 0)
(2.51445e-08 -4.74915e-08 0)
(1.94538e-07 -4.0846e-08 0)
(3.40409e-07 -3.39474e-08 0)
(4.621e-07 -2.66753e-08 0)
(5.5914e-07 -1.9055e-08 0)
(6.31199e-07 -1.12636e-08 0)
(6.78199e-07 -3.59019e-09 0)
(7.00424e-07 3.76202e-09 0)
(6.98434e-07 1.08547e-08 0)
(6.73075e-07 1.78082e-08 0)
(6.25698e-07 2.45088e-08 0)
(5.58348e-07 3.05645e-08 0)
(4.74086e-07 3.53791e-08 0)
(3.77301e-07 3.83625e-08 0)
(2.73889e-07 3.89177e-08 0)
(1.71781e-07 3.60315e-08 0)
(8.17007e-08 2.81342e-08 0)
(1.84381e-08 1.38388e-08 0)
(-2.21856e-09 -2.3866e-09 0)
(-1.09781e-08 1.84865e-08 0)
(6.73648e-08 -1.24776e-07 0)
(2.56038e-07 -2.44176e-07 0)
(5.19744e-07 -2.67268e-07 0)
(8.05938e-07 -2.46051e-07 0)
(1.07123e-06 -2.12057e-07 0)
(1.30032e-06 -1.74301e-07 0)
(1.48334e-06 -1.3283e-07 0)
(1.61035e-06 -8.91693e-08 0)
(1.67511e-06 -4.21982e-08 0)
(1.67637e-06 6.88317e-09 0)
(1.60806e-06 5.57768e-08 0)
(1.4709e-06 1.05042e-07 0)
(1.26409e-06 1.54227e-07 0)
(9.85295e-07 2.02491e-07 0)
(6.36608e-07 2.51634e-07 0)
(2.19177e-07 3.00157e-07 0)
(-2.66451e-07 3.46344e-07 0)
(-8.1803e-07 3.92004e-07 0)
(-1.43345e-06 4.36752e-07 0)
(-2.11068e-06 4.7913e-07 0)
(-2.84611e-06 5.18928e-07 0)
(-3.63663e-06 5.56087e-07 0)
(-4.4801e-06 5.90427e-07 0)
(-5.37329e-06 6.22675e-07 0)
(-6.31302e-06 6.53591e-07 0)
(-7.29635e-06 6.8306e-07 0)
(-8.31975e-06 7.1026e-07 0)
(-9.37981e-06 7.34769e-07 0)
(-1.04731e-05 7.56685e-07 0)
(-1.15963e-05 7.76007e-07 0)
(-1.27466e-05 7.9306e-07 0)
(-1.39208e-05 8.08374e-07 0)
(-1.51157e-05 8.21996e-07 0)
(-1.63277e-05 8.33312e-07 0)
(-1.75535e-05 8.41619e-07 0)
(-1.87905e-05 8.47353e-07 0)
(-2.00361e-05 8.51705e-07 0)
(-2.12872e-05 8.54772e-07 0)
(-2.2541e-05 8.56017e-07 0)
(-2.3795e-05 8.55442e-07 0)
(-2.50463e-05 8.5303e-07 0)
(-2.62922e-05 8.48532e-07 0)
(-2.75307e-05 8.42209e-07 0)
(-2.87597e-05 8.34505e-07 0)
(-2.99765e-05 8.25482e-07 0)
(-3.11788e-05 8.14993e-07 0)
(-3.23649e-05 8.02933e-07 0)
(-3.35329e-05 7.89519e-07 0)
(-3.46809e-05 7.75227e-07 0)
(-3.58068e-05 7.60173e-07 0)
(-3.69087e-05 7.4378e-07 0)
(-3.79853e-05 7.25593e-07 0)
(-3.90352e-05 7.06035e-07 0)
(-4.00569e-05 6.85793e-07 0)
(-4.10487e-05 6.65103e-07 0)
(-4.20096e-05 6.4385e-07 0)
(-4.29382e-05 6.21757e-07 0)
(-4.38332e-05 5.98531e-07 0)
(-4.46934e-05 5.74218e-07 0)
(-4.5518e-05 5.49204e-07 0)
(-4.63064e-05 5.23816e-07 0)
(-4.70575e-05 4.98094e-07 0)
(-4.77702e-05 4.7188e-07 0)
(-4.84435e-05 4.45021e-07 0)
(-4.90769e-05 4.17567e-07 0)
(-4.967e-05 3.89707e-07 0)
(-5.02222e-05 3.61611e-07 0)
(-5.07328e-05 3.33303e-07 0)
(-5.12012e-05 3.04586e-07 0)
(-5.16267e-05 2.75243e-07 0)
(-5.20092e-05 2.45358e-07 0)
(-5.23484e-05 2.153e-07 0)
(-5.26439e-05 1.85444e-07 0)
(-5.28954e-05 1.55875e-07 0)
(-5.31027e-05 1.2628e-07 0)
(-5.32657e-05 9.62537e-08 0)
(-5.33841e-05 6.57094e-08 0)
(-5.34578e-05 3.4876e-08 0)
(-5.34867e-05 4.06316e-09 0)
(-5.34706e-05 -2.65312e-08 0)
(-5.34101e-05 -5.68613e-08 0)
(-5.33051e-05 -8.69433e-08 0)
(-5.31557e-05 -1.16846e-07 0)
(-5.29618e-05 -1.46739e-07 0)
(-5.27235e-05 -1.76778e-07 0)
(-5.24412e-05 -2.06929e-07 0)
(-5.21154e-05 -2.36971e-07 0)
(-5.17464e-05 -2.66614e-07 0)
(-5.13344e-05 -2.95626e-07 0)
(-5.08799e-05 -3.24009e-07 0)
(-5.03834e-05 -3.52055e-07 0)
(-4.98454e-05 -3.80049e-07 0)
(-4.92665e-05 -4.07936e-07 0)
(-4.86473e-05 -4.35404e-07 0)
(-4.79885e-05 -4.62198e-07 0)
(-4.72908e-05 -4.88266e-07 0)
(-4.65551e-05 -5.13716e-07 0)
(-4.57822e-05 -5.38652e-07 0)
(-4.49731e-05 -5.63052e-07 0)
(-4.41287e-05 -5.8684e-07 0)
(-4.32498e-05 -6.09954e-07 0)
(-4.23375e-05 -6.32304e-07 0)
(-4.13931e-05 -6.53786e-07 0)
(-4.0418e-05 -6.74338e-07 0)
(-3.94134e-05 -6.93946e-07 0)
(-3.83806e-05 -7.1264e-07 0)
(-3.73207e-05 -7.30443e-07 0)
(-3.62353e-05 -7.47278e-07 0)
(-3.5126e-05 -7.63017e-07 0)
(-3.39948e-05 -7.77593e-07 0)
(-3.28432e-05 -7.90956e-07 0)
(-3.16732e-05 -8.03005e-07 0)
(-3.04865e-05 -8.13667e-07 0)
(-2.9285e-05 -8.22942e-07 0)
(-2.80708e-05 -8.30804e-07 0)
(-2.68463e-05 -8.3715e-07 0)
(-2.56138e-05 -8.41886e-07 0)
(-2.43756e-05 -8.44978e-07 0)
(-2.31341e-05 -8.46392e-07 0)
(-2.18916e-05 -8.46046e-07 0)
(-2.06509e-05 -8.43845e-07 0)
(-1.94145e-05 -8.39735e-07 0)
(-1.81853e-05 -8.33733e-07 0)
(-1.69661e-05 -8.25846e-07 0)
(-1.57598e-05 -8.15983e-07 0)
(-1.45693e-05 -8.03992e-07 0)
(-1.33976e-05 -7.898e-07 0)
(-1.22476e-05 -7.73455e-07 0)
(-1.11225e-05 -7.55015e-07 0)
(-1.00256e-05 -7.34442e-07 0)
(-8.96019e-06 -7.1162e-07 0)
(-7.92943e-06 -6.86447e-07 0)
(-6.93647e-06 -6.58915e-07 0)
(-5.98446e-06 -6.29107e-07 0)
(-5.07655e-06 -5.97139e-07 0)
(-4.21588e-06 -5.63101e-07 0)
(-3.40557e-06 -5.27002e-07 0)
(-2.64871e-06 -4.88771e-07 0)
(-1.94816e-06 -4.48368e-07 0)
(-1.30655e-06 -4.05902e-07 0)
(-7.26238e-07 -3.61665e-07 0)
(-2.09447e-07 -3.15988e-07 0)
(2.41772e-07 -2.69089e-07 0)
(6.25735e-07 -2.2112e-07 0)
(9.41313e-07 -1.72325e-07 0)
(1.18796e-06 -1.23092e-07 0)
(1.36583e-06 -7.39755e-08 0)
(1.4758e-06 -2.56913e-08 0)
(1.51964e-06 2.10064e-08 0)
(1.50027e-06 6.5308e-08 0)
(1.4221e-06 1.061e-07 0)
(1.29135e-06 1.4182e-07 0)
(1.11638e-06 1.70388e-07 0)
(9.08284e-07 1.8909e-07 0)
(6.81479e-07 1.9459e-07 0)
(4.54076e-07 1.82832e-07 0)
(2.47826e-07 1.49119e-07 0)
(9.05543e-08 9.05793e-08 0)
(1.40048e-08 1.8928e-08 0)
(-1.86623e-08 -6.51428e-09 0)
(6.09871e-08 -2.57898e-07 0)
(2.5885e-07 -4.96932e-07 0)
(5.53559e-07 -5.72828e-07 0)
(8.87174e-07 -5.60205e-07 0)
(1.20688e-06 -5.01898e-07 0)
(1.48763e-06 -4.15914e-07 0)
(1.70573e-06 -3.12219e-07 0)
(1.84304e-06 -1.95929e-07 0)
(1.89035e-06 -6.84346e-08 0)
(1.83661e-06 6.44352e-08 0)
(1.67837e-06 2.02297e-07 0)
(1.41159e-06 3.43414e-07 0)
(1.03375e-06 4.8365e-07 0)
(5.45606e-07 6.2439e-07 0)
(-5.39703e-08 7.64208e-07 0)
(-7.63505e-07 9.00646e-07 0)
(-1.57904e-06 1.03411e-06 0)
(-2.49942e-06 1.1637e-06 0)
(-3.5217e-06 1.28847e-06 0)
(-4.64097e-06 1.4086e-06 0)
(-5.85404e-06 1.52364e-06 0)
(-7.15643e-06 1.63242e-06 0)
(-8.54255e-06 1.73478e-06 0)
(-1.0008e-05 1.83083e-06 0)
(-1.15481e-05 1.92029e-06 0)
(-1.31574e-05 2.00342e-06 0)
(-1.4831e-05 2.08014e-06 0)
(-1.65637e-05 2.1503e-06 0)
(-1.835e-05 2.21387e-06 0)
(-2.01843e-05 2.27069e-06 0)
(-2.20618e-05 2.32079e-06 0)
(-2.39775e-05 2.36453e-06 0)
(-2.59266e-05 2.40243e-06 0)
(-2.79037e-05 2.43441e-06 0)
(-2.99036e-05 2.45998e-06 0)
(-3.19214e-05 2.47924e-06 0)
(-3.39528e-05 2.49288e-06 0)
(-3.59929e-05 2.50104e-06 0)
(-3.80375e-05 2.50367e-06 0)
(-4.00825e-05 2.50113e-06 0)
(-4.21231e-05 2.49366e-06 0)
(-4.41552e-05 2.48114e-06 0)
(-4.61754e-05 2.46367e-06 0)
(-4.818e-05 2.44176e-06 0)
(-5.01649e-05 2.41569e-06 0)
(-5.21265e-05 2.38533e-06 0)
(-5.40616e-05 2.35051e-06 0)
(-5.59671e-05 2.31155e-06 0)
(-5.78401e-05 2.26922e-06 0)
(-5.96774e-05 2.22398e-06 0)
(-6.14764e-05 2.17561e-06 0)
(-6.32343e-05 2.12376e-06 0)
(-6.49484e-05 2.06851e-06 0)
(-6.66161e-05 2.01024e-06 0)
(-6.82354e-05 1.94928e-06 0)
(-6.98046e-05 1.88594e-06 0)
(-7.13215e-05 1.82044e-06 0)
(-7.27838e-05 1.75276e-06 0)
(-7.41895e-05 1.68281e-06 0)
(-7.5537e-05 1.61067e-06 0)
(-7.68253e-05 1.53657e-06 0)
(-7.80527e-05 1.46079e-06 0)
(-7.92176e-05 1.38357e-06 0)
(-8.03186e-05 1.30494e-06 0)
(-8.13545e-05 1.22486e-06 0)
(-8.23245e-05 1.14338e-06 0)
(-8.32276e-05 1.06076e-06 0)
(-8.40626e-05 9.7725e-07 0)
(-8.48286e-05 8.9287e-07 0)
(-8.5525e-05 8.07485e-07 0)
(-8.61511e-05 7.2107e-07 0)
(-8.67064e-05 6.3382e-07 0)
(-8.71901e-05 5.46044e-07 0)
(-8.76017e-05 4.57989e-07 0)
(-8.7941e-05 3.69696e-07 0)
(-8.8208e-05 2.81085e-07 0)
(-8.84023e-05 1.92146e-07 0)
(-8.85235e-05 1.0298e-07 0)
(-8.85713e-05 1.3696e-08 0)
(-8.85458e-05 -7.56645e-08 0)
(-8.84473e-05 -1.65038e-07 0)
(-8.82759e-05 -2.54221e-07 0)
(-8.80319e-05 -3.42964e-07 0)
(-8.77152e-05 -4.3119e-07 0)
(-8.73263e-05 -5.19006e-07 0)
(-8.68655e-05 -6.0646e-07 0)
(-8.63334e-05 -6.93431e-07 0)
(-8.57306e-05 -7.79713e-07 0)
(-8.50575e-05 -8.65087e-07 0)
(-8.43149e-05 -9.49393e-07 0)
(-8.35036e-05 -1.03262e-06 0)
(-8.26244e-05 -1.11483e-06 0)
(-8.16785e-05 -1.19592e-06 0)
(-8.06669e-05 -1.2757e-06 0)
(-7.95905e-05 -1.35399e-06 0)
(-7.84505e-05 -1.43069e-06 0)
(-7.72482e-05 -1.50579e-06 0)
(-7.5985e-05 -1.57926e-06 0)
(-7.46627e-05 -1.6509e-06 0)
(-7.32826e-05 -1.72048e-06 0)
(-7.18464e-05 -1.78789e-06 0)
(-7.03557e-05 -1.8531e-06 0)
(-6.88125e-05 -1.91602e-06 0)
(-6.72189e-05 -1.97652e-06 0)
(-6.5577e-05 -2.03437e-06 0)
(-6.38891e-05 -2.08939e-06 0)
(-6.21572e-05 -2.14145e-06 0)
(-6.03837e-05 -2.19045e-06 0)
(-5.85714e-05 -2.23628e-06 0)
(-5.67232e-05 -2.27882e-06 0)
(-5.48418e-05 -2.31787e-06 0)
(-5.29303e-05 -2.35313e-06 0)
(-5.09917e-05 -2.38436e-06 0)
(-4.90291e-05 -2.41144e-06 0)
(-4.70459e-05 -2.43429e-06 0)
(-4.50457e-05 -2.45277e-06 0)
(-4.30324e-05 -2.46669e-06 0)
(-4.10096e-05 -2.4759e-06 0)
(-3.89812e-05 -2.48021e-06 0)
(-3.69513e-05 -2.47937e-06 0)
(-3.49239e-05 -2.47317e-06 0)
(-3.29035e-05 -2.46149e-06 0)
(-3.08945e-05 -2.4443e-06 0)
(-2.89014e-05 -2.42154e-06 0)
(-2.69287e-05 -2.39305e-06 0)
(-2.49814e-05 -2.35858e-06 0)
(-2.30642e-05 -2.31791e-06 0)
(-2.11821e-05 -2.27097e-06 0)
(-1.93399e-05 -2.21776e-06 0)
(-1.7543e-05 -2.15824e-06 0)
(-1.57963e-05 -2.09234e-06 0)
(-1.4105e-05 -2.02001e-06 0)
(-1.24741e-05 -1.9412e-06 0)
(-1.09086e-05 -1.85591e-06 0)
(-9.41361e-06 -1.76426e-06 0)
(-7.99406e-06 -1.66647e-06 0)
(-6.65473e-06 -1.56279e-06 0)
(-5.40024e-06 -1.45338e-06 0)
(-4.23505e-06 -1.33835e-06 0)
(-3.16327e-06 -1.21792e-06 0)
(-2.18859e-06 -1.09257e-06 0)
(-1.31426e-06 -9.63022e-07 0)
(-5.43169e-07 -8.30052e-07 0)
(1.22323e-07 -6.94462e-07 0)
(6.80619e-07 -5.57157e-07 0)
(1.13104e-06 -4.19228e-07 0)
(1.47407e-06 -2.8211e-07 0)
(1.71146e-06 -1.47614e-07 0)
(1.84631e-06 -1.7835e-08 0)
(1.88334e-06 1.0472e-07 0)
(1.82952e-06 2.16869e-07 0)
(1.69444e-06 3.14549e-07 0)
(1.49079e-06 3.92672e-07 0)
(1.23469e-06 4.45079e-07 0)
(9.46129e-07 4.64563e-07 0)
(6.49031e-07 4.4296e-07 0)
(3.70982e-07 3.72056e-07 0)
(1.48214e-07 2.47443e-07 0)
(2.78391e-08 8.24311e-08 0)
(-1.47204e-09 -3.79765e-08 0)
(9.95447e-08 -4.09018e-07 0)
(3.12369e-07 -7.55493e-07 0)
(6.05613e-07 -8.94803e-07 0)
(9.3213e-07 -8.982e-07 0)
(1.24596e-06 -8.14306e-07 0)
(1.50995e-06 -6.70767e-07 0)
(1.69602e-06 -4.86446e-07 0)
(1.78377e-06 -2.70118e-07 0)
(1.75413e-06 -3.37244e-08 0)
(1.59766e-06 2.1826e-07 0)
(1.30525e-06 4.81087e-07 0)
(8.6929e-07 7.49247e-07 0)
(2.88993e-07 1.02095e-06 0)
(-4.36945e-07 1.29219e-06 0)
(-1.31051e-06 1.56077e-06 0)
(-2.32864e-06 1.82583e-06 0)
(-3.48869e-06 2.08463e-06 0)
(-4.78814e-06 2.33533e-06 0)
(-6.22177e-06 2.57741e-06 0)
(-7.78506e-06 2.80954e-06 0)
(-9.47358e-06 3.0312e-06 0)
(-1.12817e-05 3.24224e-06 0)
(-1.32029e-05 3.44183e-06 0)
(-1.52307e-05 3.62914e-06 0)
(-1.73582e-05 3.80406e-06 0)
(-1.95785e-05 3.96628e-06 0)
(-2.1885e-05 4.11554e-06 0)
(-2.42708e-05 4.25223e-06 0)
(-2.6729e-05 4.37658e-06 0)
(-2.92526e-05 4.48816e-06 0)
(-3.18343e-05 4.58673e-06 0)
(-3.44669e-05 4.67251e-06 0)
(-3.71439e-05 4.74602e-06 0)
(-3.9859e-05 4.80775e-06 0)
(-4.26055e-05 4.85777e-06 0)
(-4.53763e-05 4.89618e-06 0)
(-4.81651e-05 4.92341e-06 0)
(-5.0966e-05 4.93955e-06 0)
(-5.37725e-05 4.94465e-06 0)
(-5.65788e-05 4.93949e-06 0)
(-5.93794e-05 4.92461e-06 0)
(-6.21688e-05 4.89991e-06 0)
(-6.49417e-05 4.86562e-06 0)
(-6.76928e-05 4.82251e-06 0)
(-7.04171e-05 4.77113e-06 0)
(-7.31101e-05 4.71148e-06 0)
(-7.5767e-05 4.64357e-06 0)
(-7.83831e-05 4.56776e-06 0)
(-8.09541e-05 4.48461e-06 0)
(-8.34764e-05 4.3947e-06 0)
(-8.59465e-05 4.29842e-06 0)
(-8.83606e-05 4.19602e-06 0)
(-9.07149e-05 4.08773e-06 0)
(-9.30059e-05 3.97366e-06 0)
(-9.52305e-05 3.85384e-06 0)
(-9.73859e-05 3.7287e-06 0)
(-9.94695e-05 3.599e-06 0)
(-0.000101479 3.46521e-06 0)
(-0.00010341 3.32731e-06 0)
(-0.000105263 3.18525e-06 0)
(-0.000107034 3.03924e-06 0)
(-0.000108721 2.88974e-06 0)
(-0.000110322 2.73719e-06 0)
(-0.000111836 2.58178e-06 0)
(-0.000113261 2.42353e-06 0)
(-0.000114595 2.26256e-06 0)
(-0.000115836 2.09918e-06 0)
(-0.000116985 1.93379e-06 0)
(-0.000118038 1.76657e-06 0)
(-0.000118997 1.59759e-06 0)
(-0.000119858 1.42697e-06 0)
(-0.000120623 1.255e-06 0)
(-0.000121289 1.08185e-06 0)
(-0.000121856 9.07656e-07 0)
(-0.000122323 7.32515e-07 0)
(-0.000122691 5.5664e-07 0)
(-0.000122958 3.80356e-07 0)
(-0.000123126 2.03942e-07 0)
(-0.000123193 2.7512e-08 0)
(-0.000123159 -1.48942e-07 0)
(-0.000123025 -3.25408e-07 0)
(-0.00012279 -5.01703e-07 0)
(-0.000122455 -6.77478e-07 0)
(-0.00012202 -8.52425e-07 0)
(-0.000121486 -1.02642e-06 0)
(-0.000120854 -1.19938e-06 0)
(-0.000120124 -1.37114e-06 0)
(-0.000119296 -1.54148e-06 0)
(-0.000118372 -1.71019e-06 0)
(-0.000117352 -1.87707e-06 0)
(-0.000116237 -2.04194e-06 0)
(-0.00011503 -2.20467e-06 0)
(-0.00011373 -2.36504e-06 0)
(-0.00011234 -2.52278e-06 0)
(-0.000110862 -2.67761e-06 0)
(-0.000109296 -2.82935e-06 0)
(-0.000107644 -2.9779e-06 0)
(-0.000105909 -3.12317e-06 0)
(-0.000104092 -3.26488e-06 0)
(-0.000102195 -3.40261e-06 0)
(-0.000100222 -3.53599e-06 0)
(-9.81742e-05 -3.66487e-06 0)
(-9.60542e-05 -3.78915e-06 0)
(-9.38648e-05 -3.90867e-06 0)
(-9.16091e-05 -4.02306e-06 0)
(-8.929e-05 -4.13188e-06 0)
(-8.69106e-05 -4.23479e-06 0)
(-8.44745e-05 -4.33158e-06 0)
(-8.19852e-05 -4.42203e-06 0)
(-7.94465e-05 -4.50587e-06 0)
(-7.68623e-05 -4.58278e-06 0)
(-7.42365e-05 -4.65234e-06 0)
(-7.15736e-05 -4.71407e-06 0)
(-6.88778e-05 -4.76764e-06 0)
(-6.61538e-05 -4.81283e-06 0)
(-6.34065e-05 -4.84938e-06 0)
(-6.06408e-05 -4.87697e-06 0)
(-5.7862e-05 -4.89524e-06 0)
(-5.50752e-05 -4.90385e-06 0)
(-5.2286e-05 -4.90248e-06 0)
(-4.95001e-05 -4.89077e-06 0)
(-4.67233e-05 -4.86841e-06 0)
(-4.39618e-05 -4.83512e-06 0)
(-4.12216e-05 -4.79071e-06 0)
(-3.8509e-05 -4.73497e-06 0)
(-3.58304e-05 -4.66764e-06 0)
(-3.31922e-05 -4.58838e-06 0)
(-3.06013e-05 -4.49698e-06 0)
(-2.80644e-05 -4.39331e-06 0)
(-2.55883e-05 -4.27728e-06 0)
(-2.31799e-05 -4.14883e-06 0)
(-2.08458e-05 -4.00793e-06 0)
(-1.85928e-05 -3.85461e-06 0)
(-1.64276e-05 -3.68897e-06 0)
(-1.4357e-05 -3.51112e-06 0)
(-1.23876e-05 -3.32132e-06 0)
(-1.05257e-05 -3.12002e-06 0)
(-8.77722e-06 -2.90774e-06 0)
(-7.14783e-06 -2.68501e-06 0)
(-5.64289e-06 -2.45242e-06 0)
(-4.26733e-06 -2.21077e-06 0)
(-3.02541e-06 -1.96123e-06 0)
(-1.92068e-06 -1.70528e-06 0)
(-9.55882e-07 -1.44461e-06 0)
(-1.32762e-07 -1.18113e-06 0)
(5.48028e-07 -9.17033e-07 0)
(1.08719e-06 -6.54994e-07 0)
(1.48715e-06 -3.98377e-07 0)
(1.75225e-06 -1.5126e-07 0)
(1.88893e-06 8.15526e-08 0)
(1.90622e-06 2.9427e-07 0)
(1.81615e-06 4.79856e-07 0)
(1.63427e-06 6.29729e-07 0)
(1.38015e-06 7.33628e-07 0)
(1.07752e-06 7.79883e-07 0)
(7.54035e-07 7.55906e-07 0)
(4.41078e-07 6.49429e-07 0)
(1.81568e-07 4.52509e-07 0)
(3.56316e-08 1.72401e-07 0)
(1.72537e-08 -9.7723e-08 0)
(1.39171e-07 -5.73642e-07 0)
(3.55661e-07 -1.00515e-06 0)
(6.27949e-07 -1.19478e-06 0)
(9.1845e-07 -1.20192e-06 0)
(1.1822e-06 -1.08327e-06 0)
(1.38223e-06 -8.7188e-07 0)
(1.48983e-06 -5.88656e-07 0)
(1.47704e-06 -2.55365e-07 0)
(1.3262e-06 1.16548e-07 0)
(1.02355e-06 5.15347e-07 0)
(5.57045e-07 9.30764e-07 0)
(-7.99571e-08 1.35829e-06 0)
(-8.92291e-07 1.79201e-06 0)
(-1.88211e-06 2.22566e-06 0)
(-3.04894e-06 2.65655e-06 0)
(-4.39254e-06 3.08173e-06 0)
(-5.90987e-06 3.49734e-06 0)
(-7.59688e-06 3.90184e-06 0)
(-9.44901e-06 4.29286e-06 0)
(-1.14599e-05 4.66789e-06 0)
(-1.36235e-05 5.02593e-06 0)
(-1.59336e-05 5.36623e-06 0)
(-1.83827e-05 5.68826e-06 0)
(-2.0963e-05 5.99119e-06 0)
(-2.36665e-05 6.2745e-06 0)
(-2.64848e-05 6.53753e-06 0)
(-2.94092e-05 6.77983e-06 0)
(-3.24311e-05 7.00146e-06 0)
(-3.55424e-05 7.20261e-06 0)
(-3.87346e-05 7.38343e-06 0)
(-4.1999e-05 7.544e-06 0)
(-4.53266e-05 7.68422e-06 0)
(-4.87088e-05 7.80403e-06 0)
(-5.21376e-05 7.90399e-06 0)
(-5.5605e-05 7.98486e-06 0)
(-5.91025e-05 8.04711e-06 0)
(-6.26224e-05 8.09108e-06 0)
(-6.61573e-05 8.11724e-06 0)
(-6.9699e-05 8.12591e-06 0)
(-7.32399e-05 8.1176e-06 0)
(-7.67734e-05 8.09288e-06 0)
(-8.02929e-05 8.05222e-06 0)
(-8.37913e-05 7.99623e-06 0)
(-8.72619e-05 7.92559e-06 0)
(-9.06988e-05 7.84083e-06 0)
(-9.40962e-05 7.74252e-06 0)
(-9.74483e-05 7.63136e-06 0)
(-0.000100749 7.50789e-06 0)
(-0.000103994 7.37237e-06 0)
(-0.000107177 7.22509e-06 0)
(-0.000110294 7.06673e-06 0)
(-0.00011334 6.89819e-06 0)
(-0.000116311 6.72019e-06 0)
(-0.000119203 6.5331e-06 0)
(-0.000122011 6.33706e-06 0)
(-0.000124732 6.13236e-06 0)
(-0.000127363 5.91965e-06 0)
(-0.000129899 5.69961e-06 0)
(-0.000132338 5.47272e-06 0)
(-0.000134677 5.23927e-06 0)
(-0.000136914 4.99965e-06 0)
(-0.000139044 4.7543e-06 0)
(-0.000141067 4.50366e-06 0)
(-0.000142979 4.24808e-06 0)
(-0.000144779 3.98791e-06 0)
(-0.000146464 3.72349e-06 0)
(-0.000148033 3.45518e-06 0)
(-0.000149484 3.18326e-06 0)
(-0.000150816 2.90799e-06 0)
(-0.000152027 2.6297e-06 0)
(-0.000153116 2.34884e-06 0)
(-0.000154082 2.06595e-06 0)
(-0.000154924 1.78132e-06 0)
(-0.000155641 1.49499e-06 0)
(-0.000156233 1.20707e-06 0)
(-0.000156699 9.17809e-07 0)
(-0.000157038 6.27674e-07 0)
(-0.00015725 3.37093e-07 0)
(-0.000157335 4.63816e-08 0)
(-0.000157293 -2.44197e-07 0)
(-0.000157125 -5.34414e-07 0)
(-0.00015683 -8.24077e-07 0)
(-0.000156408 -1.11296e-06 0)
(-0.00015586 -1.40077e-06 0)
(-0.000155186 -1.68721e-06 0)
(-0.000154389 -1.97196e-06 0)
(-0.000153467 -2.25463e-06 0)
(-0.000152422 -2.5348e-06 0)
(-0.000151256 -2.81221e-06 0)
(-0.000149969 -3.08667e-06 0)
(-0.000148563 -3.35793e-06 0)
(-0.000147039 -3.62565e-06 0)
(-0.000145399 -3.88945e-06 0)
(-0.000143644 -4.14893e-06 0)
(-0.000141778 -4.40372e-06 0)
(-0.000139801 -4.65349e-06 0)
(-0.000137716 -4.89793e-06 0)
(-0.000135526 -5.13675e-06 0)
(-0.000133232 -5.36964e-06 0)
(-0.000130839 -5.59612e-06 0)
(-0.000128348 -5.81565e-06 0)
(-0.000125763 -6.02778e-06 0)
(-0.000123087 -6.23218e-06 0)
(-0.000120324 -6.42851e-06 0)
(-0.000117476 -6.61635e-06 0)
(-0.000114549 -6.79517e-06 0)
(-0.000111546 -6.96441e-06 0)
(-0.000108471 -7.1236e-06 0)
(-0.000105329 -7.27228e-06 0)
(-0.000102125 -7.40994e-06 0)
(-9.8864e-05 -7.53607e-06 0)
(-9.55501e-05 -7.65015e-06 0)
(-9.21891e-05 -7.7516e-06 0)
(-8.87867e-05 -7.83983e-06 0)
(-8.53486e-05 -7.91434e-06 0)
(-8.18809e-05 -7.97466e-06 0)
(-7.83899e-05 -8.02025e-06 0)
(-7.48819e-05 -8.05055e-06 0)
(-7.13637e-05 -8.06503e-06 0)
(-6.7842e-05 -8.0632e-06 0)
(-6.43241e-05 -8.04461e-06 0)
(-6.08171e-05 -8.00877e-06 0)
(-5.73287e-05 -7.95518e-06 0)
(-5.38665e-05 -7.88338e-06 0)
(-5.04384e-05 -7.79299e-06 0)
(-4.70521e-05 -7.68365e-06 0)
(-4.37159e-05 -7.55502e-06 0)
(-4.0438e-05 -7.4068e-06 0)
(-3.72268e-05 -7.23877e-06 0)
(-3.40907e-05 -7.05075e-06 0)
(-3.10381e-05 -6.8426e-06 0)
(-2.80774e-05 -6.61431e-06 0)
(-2.52167e-05 -6.36602e-06 0)
(-2.24642e-05 -6.09799e-06 0)
(-1.98282e-05 -5.81054e-06 0)
(-1.73167e-05 -5.50403e-06 0)
(-1.49375e-05 -5.17903e-06 0)
(-1.26977e-05 -4.83636e-06 0)
(-1.06042e-05 -4.47708e-06 0)
(-8.66316e-06 -4.10245e-06 0)
(-6.88046e-06 -3.7139e-06 0)
(-5.26121e-06 -3.31321e-06 0)
(-3.80965e-06 -2.90259e-06 0)
(-2.52889e-06 -2.48471e-06 0)
(-1.4208e-06 -2.06277e-06 0)
(-4.85856e-07 -1.64046e-06 0)
(2.76961e-07 -1.22209e-06 0)
(8.70621e-07 -8.12882e-07 0)
(1.30037e-06 -4.19112e-07 0)
(1.57394e-06 -4.8239e-08 0)
(1.70191e-06 2.90909e-07 0)
(1.69811e-06 5.87916e-07 0)
(1.57998e-06 8.3052e-07 0)
(1.36921e-06 1.00435e-06 0)
(1.09196e-06 1.09314e-06 0)
(7.78464e-07 1.07942e-06 0)
(4.6308e-07 9.45743e-07 0)
(1.93586e-07 6.78391e-07 0)
(3.87225e-08 2.74226e-07 0)
(2.71148e-08 -1.79007e-07 0)
(1.57521e-07 -7.51684e-07 0)
(3.63252e-07 -1.24318e-06 0)
(5.99191e-07 -1.45589e-06 0)
(8.28924e-07 -1.44873e-06 0)
(1.01164e-06 -1.27795e-06 0)
(1.11499e-06 -9.77962e-07 0)
(1.10456e-06 -5.81361e-07 0)
(9.55703e-07 -1.08986e-07 0)
(6.47744e-07 4.19847e-07 0)
(1.62714e-07 9.88592e-07 0)
(-5.0905e-07 1.58496e-06 0)
(-1.3768e-06 2.19934e-06 0)
(-2.44753e-06 2.82287e-06 0)
(-3.72251e-06 3.44915e-06 0)
(-5.2026e-06 4.07189e-06 0)
(-6.88726e-06 4.68601e-06 0)
(-8.77304e-06 5.28758e-06 0)
(-1.0856e-05 5.87319e-06 0)
(-1.31313e-05 6.44015e-06 0)
(-1.55923e-05 6.98552e-06 0)
(-1.82315e-05 7.50677e-06 0)
(-2.10411e-05 8.00248e-06 0)
(-2.4013e-05 8.47141e-06 0)
(-2.71384e-05 8.91261e-06 0)
(-3.04078e-05 9.32522e-06 0)
(-3.38119e-05 9.70871e-06 0)
(-3.73406e-05 1.00626e-05 0)
(-4.09837e-05 1.03864e-05 0)
(-4.47313e-05 1.06799e-05 0)
(-4.85736e-05 1.09435e-05 0)
(-5.25005e-05 1.11777e-05 0)
(-5.65021e-05 1.13825e-05 0)
(-6.05681e-05 1.1558e-05 0)
(-6.46886e-05 1.17046e-05 0)
(-6.88539e-05 1.18231e-05 0)
(-7.30544e-05 1.19139e-05 0)
(-7.7281e-05 1.19775e-05 0)
(-8.15247e-05 1.2015e-05 0)
(-8.57761e-05 1.20273e-05 0)
(-9.00265e-05 1.20147e-05 0)
(-9.42677e-05 1.19778e-05 0)
(-9.84916e-05 1.19176e-05 0)
(-0.00010269 1.18351e-05 0)
(-0.000106855 1.1731e-05 0)
(-0.00011098 1.16057e-05 0)
(-0.000115057 1.14601e-05 0)
(-0.000119079 1.12955e-05 0)
(-0.00012304 1.11128e-05 0)
(-0.000126934 1.09127e-05 0)
(-0.000130755 1.06956e-05 0)
(-0.000134496 1.04622e-05 0)
(-0.000138152 1.02134e-05 0)
(-0.000141717 9.95001e-06 0)
(-0.000145188 9.6729e-06 0)
(-0.000148559 9.38287e-06 0)
(-0.000151826 9.08056e-06 0)
(-0.000154984 8.76654e-06 0)
(-0.000158029 8.44138e-06 0)
(-0.000160958 8.10571e-06 0)
(-0.000163767 7.76027e-06 0)
(-0.000166452 7.4058e-06 0)
(-0.000169011 7.0429e-06 0)
(-0.00017144 6.67201e-06 0)
(-0.000173736 6.2936e-06 0)
(-0.000175898 5.90829e-06 0)
(-0.000177923 5.51678e-06 0)
(-0.000179807 5.11963e-06 0)
(-0.000181551 4.71719e-06 0)
(-0.000183151 4.30979e-06 0)
(-0.000184606 3.89786e-06 0)
(-0.000185915 3.48196e-06 0)
(-0.000187076 3.06276e-06 0)
(-0.000188088 2.64078e-06 0)
(-0.00018895 2.21637e-06 0)
(-0.000189662 1.78986e-06 0)
(-0.000190223 1.36167e-06 0)
(-0.000190631 9.32222e-07 0)
(-0.000190887 5.01928e-07 0)
(-0.00019099 7.11592e-08 0)
(-0.000190941 -3.59615e-07 0)
(-0.00019074 -7.89843e-07 0)
(-0.000190386 -1.21906e-06 0)
(-0.00018988 -1.64692e-06 0)
(-0.000189223 -2.07312e-06 0)
(-0.000188416 -2.49727e-06 0)
(-0.000187459 -2.91895e-06 0)
(-0.000186353 -3.33763e-06 0)
(-0.000185099 -3.75273e-06 0)
(-0.000183699 -4.16376e-06 0)
(-0.000182155 -4.57035e-06 0)
(-0.000180467 -4.97214e-06 0)
(-0.000178638 -5.36863e-06 0)
(-0.00017667 -5.75928e-06 0)
(-0.000174564 -6.14355e-06 0)
(-0.000172323 -6.52095e-06 0)
(-0.000169951 -6.89103e-06 0)
(-0.000167448 -7.25323e-06 0)
(-0.000164819 -7.60696e-06 0)
(-0.000162066 -7.95168e-06 0)
(-0.000159193 -8.28684e-06 0)
(-0.000156203 -8.61185e-06 0)
(-0.0001531 -8.92608e-06 0)
(-0.000149889 -9.22889e-06 0)
(-0.000146572 -9.5196e-06 0)
(-0.000143154 -9.79754e-06 0)
(-0.000139641 -1.0062e-05 0)
(-0.000136037 -1.03124e-05 0)
(-0.000132346 -1.0548e-05 0)
(-0.000128575 -1.07681e-05 0)
(-0.00012473 -1.09719e-05 0)
(-0.000120815 -1.11586e-05 0)
(-0.000116838 -1.13274e-05 0)
(-0.000112803 -1.14775e-05 0)
(-0.000108719 -1.16082e-05 0)
(-0.000104592 -1.17188e-05 0)
(-0.00010043 -1.18084e-05 0)
(-9.62387e-05 -1.18764e-05 0)
(-9.2027e-05 -1.19219e-05 0)
(-8.78025e-05 -1.19441e-05 0)
(-8.35734e-05 -1.19422e-05 0)
(-7.93482e-05 -1.19157e-05 0)
(-7.51355e-05 -1.18638e-05 0)
(-7.09442e-05 -1.1786e-05 0)
(-6.67834e-05 -1.16815e-05 0)
(-6.26624e-05 -1.15498e-05 0)
(-5.85904e-05 -1.13902e-05 0)
(-5.45771e-05 -1.12024e-05 0)
(-5.06323e-05 -1.0986e-05 0)
(-4.67657e-05 -1.07407e-05 0)
(-4.29871e-05 -1.04664e-05 0)
(-3.93064e-05 -1.01628e-05 0)
(-3.57334e-05 -9.82992e-06 0)
(-3.22777e-05 -9.46792e-06 0)
(-2.89491e-05 -9.07724e-06 0)
(-2.57567e-05 -8.6585e-06 0)
(-2.271e-05 -8.21239e-06 0)
(-1.98179e-05 -7.73978e-06 0)
(-1.70887e-05 -7.24177e-06 0)
(-1.45304e-05 -6.71988e-06 0)
(-1.215e-05 -6.17605e-06 0)
(-9.95416e-06 -5.61257e-06 0)
(-7.94861e-06 -5.03214e-06 0)
(-6.13807e-06 -4.43796e-06 0)
(-4.52607e-06 -3.83383e-06 0)
(-3.11463e-06 -3.22432e-06 0)
(-1.90412e-06 -2.6148e-06 0)
(-8.9323e-07 -2.01152e-06 0)
(-7.85913e-08 -1.42183e-06 0)
(5.45661e-07 -8.54452e-07 0)
(9.8813e-07 -3.19685e-07 0)
(1.26048e-06 1.70413e-07 0)
(1.37776e-06 6.01827e-07 0)
(1.35864e-06 9.58442e-07 0)
(1.22603e-06 1.22173e-06 0)
(1.00749e-06 1.37079e-06 0)
(7.34995e-07 1.38289e-06 0)
(4.4516e-07 1.23446e-06 0)
(1.88711e-07 9.0433e-07 0)
(3.833e-08 3.7763e-07 0)
(3.13603e-08 -2.66911e-07 0)
(1.54353e-07 -9.2361e-07 0)
(3.34435e-07 -1.44739e-06 0)
(5.17192e-07 -1.65958e-06 0)
(6.66324e-07 -1.61544e-06 0)
(7.47822e-07 -1.36885e-06 0)
(7.24511e-07 -9.63039e-07 0)
(5.68386e-07 -4.29791e-07 0)
(2.53903e-07 2.02145e-07 0)
(-2.4247e-07 9.08403e-07 0)
(-9.36523e-07 1.67037e-06 0)
(-1.84099e-06 2.47156e-06 0)
(-2.96524e-06 3.2969e-06 0)
(-4.31571e-06 4.13666e-06 0)
(-5.89564e-06 4.98118e-06 0)
(-7.7059e-06 5.8219e-06 0)
(-9.74579e-06 6.6524e-06 0)
(-1.20118e-05 7.46665e-06 0)
(-1.44992e-05 8.25951e-06 0)
(-1.7203e-05 9.0273e-06 0)
(-2.01163e-05 9.76665e-06 0)
(-2.32309e-05 1.04744e-05 0)
(-2.65381e-05 1.1148e-05 0)
(-3.00285e-05 1.17856e-05 0)
(-3.36924e-05 1.23858e-05 0)
(-3.75193e-05 1.29471e-05 0)
(-4.14985e-05 1.3469e-05 0)
(-4.5619e-05 1.39511e-05 0)
(-4.98695e-05 1.43925e-05 0)
(-5.42386e-05 1.47929e-05 0)
(-5.87146e-05 1.51524e-05 0)
(-6.32863e-05 1.54713e-05 0)
(-6.79428e-05 1.57501e-05 0)
(-7.26723e-05 1.59891e-05 0)
(-7.74634e-05 1.61891e-05 0)
(-8.23053e-05 1.63506e-05 0)
(-8.71872e-05 1.64743e-05 0)
(-9.20981e-05 1.65608e-05 0)
(-9.70275e-05 1.66113e-05 0)
(-0.000101965 1.6627e-05 0)
(-0.000106902 1.66086e-05 0)
(-0.000111827 1.65569e-05 0)
(-0.000116731 1.64733e-05 0)
(-0.000121605 1.6359e-05 0)
(-0.000126441 1.6215e-05 0)
(-0.00013123 1.60422e-05 0)
(-0.000135963 1.58416e-05 0)
(-0.000140633 1.56145e-05 0)