/*--------------------------------*- C++ -*----------------------------------*\
  =========                 |
  \\      /  F ield         | OpenFOAM: The Open Source CFD Toolbox
   \\    /   O peration     | Website:  https://openfoam.org
    \\  /    A nd           | Version:  7
     \\/     M anipulation  |
\*---------------------------------------------------------------------------*/
FoamFile
{
    version     2.0;
    format      ascii;
    class       volVectorField;
    location    "0.0875";
    object      U;
}
// * * * * * * * * * * * * * * * * * * * * * * * * * * * * * * * * * * * * * //

dimensions      [0 1 -1 0 0 0 0];

internalField   nonuniform List<vector> 
51200
(
(-3.68868e-08 -5.76135e-08 0)
(9.51744e-08 -2.18949e-07 0)
(4.28842e-07 -2.64806e-07 0)
(8.1829e-07 -2.01216e-07 0)
(1.09515e-06 -1.23048e-07 0)
(1.25403e-06 -6.55297e-08 0)
(1.32636e-06 -2.77093e-08 0)
(1.33478e-06 -7.5522e-10 0)
(1.29025e-06 1.8433e-08 0)
(1.19997e-06 3.43071e-08 0)
(1.06866e-06 4.6639e-08 0)
(8.98542e-07 5.66442e-08 0)
(6.93145e-07 6.71366e-08 0)
(4.52145e-07 7.68759e-08 0)
(1.78025e-07 8.83518e-08 0)
(-1.27478e-07 9.71099e-08 0)
(-4.62688e-07 1.03651e-07 0)
(-8.23921e-07 1.0969e-07 0)
(-1.21202e-06 1.15665e-07 0)
(-1.6239e-06 1.231e-07 0)
(-2.05747e-06 1.30604e-07 0)
(-2.51211e-06 1.35862e-07 0)
(-2.98375e-06 1.40723e-07 0)
(-3.47159e-06 1.4507e-07 0)
(-3.97524e-06 1.48903e-07 0)
(-4.49061e-06 1.52593e-07 0)
(-5.01708e-06 1.54449e-07 0)
(-5.55324e-06 1.55002e-07 0)
(-6.09609e-06 1.56548e-07 0)
(-6.64619e-06 1.5867e-07 0)
(-7.2021e-06 1.60093e-07 0)
(-7.7605e-06 1.6076e-07 0)
(-8.32143e-06 1.60022e-07 0)
(-8.88375e-06 1.58026e-07 0)
(-9.4448e-06 1.5669e-07 0)
(-1.00048e-05 1.56005e-07 0)
(-1.0563e-05 1.54809e-07 0)
(-1.11171e-05 1.53906e-07 0)
(-1.1667e-05 1.53592e-07 0)
(-1.22123e-05 1.52934e-07 0)
(-1.27515e-05 1.5258e-07 0)
(-1.32837e-05 1.52638e-07 0)
(-1.38089e-05 1.51293e-07 0)
(-1.43261e-05 1.48352e-07 0)
(-1.48339e-05 1.45113e-07 0)
(-1.53327e-05 1.4141e-07 0)
(-1.58221e-05 1.36794e-07 0)
(-1.63004e-05 1.32295e-07 0)
(-1.67675e-05 1.28629e-07 0)
(-1.7224e-05 1.25398e-07 0)
(-1.7669e-05 1.22671e-07 0)
(-1.81018e-05 1.20597e-07 0)
(-1.85228e-05 1.18107e-07 0)
(-1.89316e-05 1.14222e-07 0)
(-1.93271e-05 1.09475e-07 0)
(-1.97089e-05 1.04781e-07 0)
(-2.00774e-05 1.00577e-07 0)
(-2.04324e-05 9.74436e-08 0)
(-2.07737e-05 9.54351e-08 0)
(-2.11012e-05 9.28259e-08 0)
(-2.14146e-05 8.78603e-08 0)
(-2.17132e-05 8.12353e-08 0)
(-2.19963e-05 7.51097e-08 0)
(-2.22645e-05 7.06709e-08 0)
(-2.25177e-05 6.76238e-08 0)
(-2.27559e-05 6.51384e-08 0)
(-2.29788e-05 6.22871e-08 0)
(-2.31864e-05 5.80311e-08 0)
(-2.33784e-05 5.22821e-08 0)
(-2.35544e-05 4.64716e-08 0)
(-2.37146e-05 4.17791e-08 0)
(-2.38591e-05 3.78067e-08 0)
(-2.39878e-05 3.3621e-08 0)
(-2.41005e-05 2.90876e-08 0)
(-2.4197e-05 2.46629e-08 0)
(-2.42776e-05 2.03978e-08 0)
(-2.43423e-05 1.59273e-08 0)
(-2.43907e-05 1.1419e-08 0)
(-2.44228e-05 7.32198e-09 0)
(-2.4439e-05 3.17063e-09 0)
(-2.44389e-05 -1.87443e-09 0)
(-2.44224e-05 -7.48152e-09 0)
(-2.43894e-05 -1.25582e-08 0)
(-2.43402e-05 -1.6734e-08 0)
(-2.42751e-05 -2.05252e-08 0)
(-2.41941e-05 -2.46127e-08 0)
(-2.40968e-05 -2.92151e-08 0)
(-2.39833e-05 -3.39355e-08 0)
(-2.38539e-05 -3.83802e-08 0)
(-2.37091e-05 -4.26468e-08 0)
(-2.35485e-05 -4.69706e-08 0)
(-2.33722e-05 -5.1376e-08 0)
(-2.31805e-05 -5.58222e-08 0)
(-2.29735e-05 -6.02492e-08 0)
(-2.27514e-05 -6.44222e-08 0)
(-2.2514e-05 -6.8224e-08 0)
(-2.22615e-05 -7.19852e-08 0)
(-2.19941e-05 -7.59858e-08 0)
(-2.17121e-05 -8.00426e-08 0)
(-2.14155e-05 -8.40246e-08 0)
(-2.11044e-05 -8.81739e-08 0)
(-2.07789e-05 -9.26439e-08 0)
(-2.04394e-05 -9.71722e-08 0)
(-2.00861e-05 -1.01289e-07 0)
(-1.97193e-05 -1.0469e-07 0)
(-1.93393e-05 -1.07513e-07 0)
(-1.89466e-05 -1.10288e-07 0)
(-1.85416e-05 -1.13546e-07 0)
(-1.81243e-05 -1.17381e-07 0)
(-1.7695e-05 -1.21415e-07 0)
(-1.72542e-05 -1.25213e-07 0)
(-1.68024e-05 -1.28563e-07 0)
(-1.63397e-05 -1.31353e-07 0)
(-1.58668e-05 -1.33536e-07 0)
(-1.5384e-05 -1.35343e-07 0)
(-1.48919e-05 -1.37299e-07 0)
(-1.43912e-05 -1.39807e-07 0)
(-1.38821e-05 -1.42732e-07 0)
(-1.33651e-05 -1.4547e-07 0)
(-1.2841e-05 -1.47462e-07 0)
(-1.23107e-05 -1.48733e-07 0)
(-1.1775e-05 -1.49848e-07 0)
(-1.12347e-05 -1.51178e-07 0)
(-1.06904e-05 -1.52459e-07 0)
(-1.01434e-05 -1.5325e-07 0)
(-9.59453e-06 -1.5347e-07 0)
(-9.04503e-06 -1.53339e-07 0)
(-8.49597e-06 -1.5307e-07 0)
(-7.94847e-06 -1.52738e-07 0)
(-7.40374e-06 -1.52212e-07 0)
(-6.86317e-06 -1.51149e-07 0)
(-6.32835e-06 -1.49254e-07 0)
(-5.8007e-06 -1.46588e-07 0)
(-5.28153e-06 -1.43417e-07 0)
(-4.77242e-06 -1.39937e-07 0)
(-4.27528e-06 -1.36269e-07 0)
(-3.79204e-06 -1.32433e-07 0)
(-3.32454e-06 -1.28234e-07 0)
(-2.87449e-06 -1.23267e-07 0)
(-2.44384e-06 -1.17126e-07 0)
(-2.03476e-06 -1.09878e-07 0)
(-1.64931e-06 -1.02094e-07 0)
(-1.28937e-06 -9.42138e-08 0)
(-9.56851e-07 -8.61799e-08 0)
(-6.53647e-07 -7.75963e-08 0)
(-3.81663e-07 -6.81129e-08 0)
(-1.42751e-07 -5.7761e-08 0)
(6.13958e-08 -4.68635e-08 0)
(2.29297e-07 -3.57048e-08 0)
(3.59682e-07 -2.4266e-08 0)
(4.51485e-07 -1.23567e-08 0)
(5.04224e-07 -1.18461e-11 0)
(5.18316e-07 1.24434e-08 0)
(4.95297e-07 2.44303e-08 0)
(4.38423e-07 3.49616e-08 0)
(3.53319e-07 4.27767e-08 0)
(2.48653e-07 4.6321e-08 0)
(1.3808e-07 4.29846e-08 0)
(4.56508e-08 2.85678e-08 0)
(3.85986e-09 4.11463e-09 0)
(-1.49376e-07 -2.47981e-08 0)
(-7.46674e-08 -3.91367e-07 0)
(2.6875e-07 -6.2391e-07 0)
(7.32503e-07 -5.52188e-07 0)
(1.16613e-06 -3.81884e-07 0)
(1.46669e-06 -2.23389e-07 0)
(1.63018e-06 -8.85554e-08 0)
(1.66148e-06 2.2358e-08 0)
(1.56647e-06 1.19758e-07 0)
(1.34936e-06 2.07093e-07 0)
(1.01293e-06 2.877e-07 0)
(5.66388e-07 3.63629e-07 0)
(1.07191e-08 4.33903e-07 0)
(-6.47359e-07 5.02326e-07 0)
(-1.4038e-06 5.6831e-07 0)
(-2.25392e-06 6.29962e-07 0)
(-3.18886e-06 6.8823e-07 0)
(-4.20748e-06 7.39962e-07 0)
(-5.30209e-06 7.88761e-07 0)
(-6.46758e-06 8.35288e-07 0)
(-7.70006e-06 8.77676e-07 0)
(-8.99021e-06 9.16872e-07 0)
(-1.03345e-05 9.51546e-07 0)
(-1.17288e-05 9.81528e-07 0)
(-1.31651e-05 1.00949e-06 0)
(-1.46407e-05 1.03402e-06 0)
(-1.61498e-05 1.0542e-06 0)
(-1.76857e-05 1.07136e-06 0)
(-1.92467e-05 1.08511e-06 0)
(-2.0828e-05 1.09627e-06 0)
(-2.24236e-05 1.10603e-06 0)
(-2.40309e-05 1.11252e-06 0)
(-2.56458e-05 1.11525e-06 0)
(-2.72636e-05 1.11563e-06 0)
(-2.88824e-05 1.11372e-06 0)
(-3.0499e-05 1.10958e-06 0)
(-3.21089e-05 1.1039e-06 0)
(-3.371e-05 1.09658e-06 0)
(-3.53002e-05 1.08704e-06 0)
(-3.68761e-05 1.07597e-06 0)
(-3.84357e-05 1.0641e-06 0)
(-3.99776e-05 1.05112e-06 0)
(-4.14986e-05 1.03644e-06 0)
(-4.29964e-05 1.0204e-06 0)
(-4.447e-05 1.00292e-06 0)
(-4.59176e-05 9.83654e-07 0)
(-4.73368e-05 9.63158e-07 0)
(-4.87266e-05 9.4182e-07 0)
(-5.00856e-05 9.19392e-07 0)
(-5.14127e-05 8.96183e-07 0)
(-5.27066e-05 8.73013e-07 0)
(-5.39664e-05 8.49746e-07 0)
(-5.51907e-05 8.25563e-07 0)
(-5.63783e-05 8.00317e-07 0)
(-5.75282e-05 7.74187e-07 0)
(-5.86394e-05 7.46978e-07 0)
(-5.97116e-05 7.18968e-07 0)
(-6.07445e-05 6.91373e-07 0)
(-6.17374e-05 6.64803e-07 0)
(-6.26892e-05 6.38065e-07 0)
(-6.35991e-05 6.09633e-07 0)
(-6.44662e-05 5.79479e-07 0)
(-6.52902e-05 5.4855e-07 0)
(-6.60712e-05 5.17652e-07 0)
(-6.68086e-05 4.8737e-07 0)
(-6.7502e-05 4.57852e-07 0)
(-6.81505e-05 4.28447e-07 0)
(-6.87537e-05 3.98107e-07 0)
(-6.93114e-05 3.66404e-07 0)
(-6.98234e-05 3.3416e-07 0)
(-7.02895e-05 3.02364e-07 0)
(-7.07095e-05 2.7091e-07 0)
(-7.10829e-05 2.39296e-07 0)
(-7.14094e-05 2.07522e-07 0)
(-7.16889e-05 1.75733e-07 0)
(-7.19213e-05 1.43784e-07 0)
(-7.21067e-05 1.11543e-07 0)
(-7.22451e-05 7.92599e-08 0)
(-7.23363e-05 4.73438e-08 0)
(-7.23802e-05 1.55726e-08 0)
(-7.23768e-05 -1.67759e-08 0)
(-7.2326e-05 -4.97104e-08 0)
(-7.22278e-05 -8.24655e-08 0)
(-7.20824e-05 -1.14721e-07 0)
(-7.18901e-05 -1.46687e-07 0)
(-7.16511e-05 -1.78438e-07 0)
(-7.13649e-05 -2.10113e-07 0)
(-7.10317e-05 -2.41931e-07 0)
(-7.06522e-05 -2.73761e-07 0)
(-7.02269e-05 -3.05245e-07 0)
(-6.97554e-05 -3.36235e-07 0)
(-6.92379e-05 -3.66957e-07 0)
(-6.86747e-05 -3.97762e-07 0)
(-6.80667e-05 -4.28642e-07 0)
(-6.74141e-05 -4.59149e-07 0)
(-6.6717e-05 -4.8896e-07 0)
(-6.59757e-05 -5.18375e-07 0)
(-6.51909e-05 -5.47842e-07 0)
(-6.43636e-05 -5.77146e-07 0)
(-6.3494e-05 -6.05806e-07 0)
(-6.25823e-05 -6.33993e-07 0)
(-6.16291e-05 -6.62195e-07 0)
(-6.06353e-05 -6.90337e-07 0)
(-5.96018e-05 -7.17865e-07 0)
(-5.85291e-05 -7.44383e-07 0)
(-5.7418e-05 -7.69949e-07 0)
(-5.62695e-05 -7.9486e-07 0)
(-5.50844e-05 -8.19318e-07 0)
(-5.38634e-05 -8.43332e-07 0)
(-5.26073e-05 -8.66834e-07 0)
(-5.13174e-05 -8.89757e-07 0)
(-4.99952e-05 -9.11966e-07 0)
(-4.8642e-05 -9.33175e-07 0)
(-4.72589e-05 -9.53064e-07 0)
(-4.58471e-05 -9.71557e-07 0)
(-4.44081e-05 -9.88944e-07 0)
(-4.29436e-05 -1.00562e-06 0)
(-4.14556e-05 -1.02162e-06 0)
(-3.99456e-05 -1.03658e-06 0)
(-3.84157e-05 -1.05004e-06 0)
(-3.68681e-05 -1.06171e-06 0)
(-3.53053e-05 -1.0716e-06 0)
(-3.37294e-05 -1.07983e-06 0)
(-3.21427e-05 -1.08635e-06 0)
(-3.05482e-05 -1.09094e-06 0)
(-2.89488e-05 -1.09344e-06 0)
(-2.73477e-05 -1.09374e-06 0)
(-2.5748e-05 -1.09166e-06 0)
(-2.41531e-05 -1.08709e-06 0)
(-2.25663e-05 -1.08009e-06 0)
(-2.09917e-05 -1.07064e-06 0)
(-1.94338e-05 -1.05833e-06 0)
(-1.78968e-05 -1.04266e-06 0)
(-1.63848e-05 -1.02349e-06 0)
(-1.49024e-05 -1.00095e-06 0)
(-1.34544e-05 -9.75158e-07 0)
(-1.2046e-05 -9.46139e-07 0)
(-1.06823e-05 -9.13676e-07 0)
(-9.36843e-06 -8.77386e-07 0)
(-8.10979e-06 -8.36909e-07 0)
(-6.91187e-06 -7.92086e-07 0)
(-5.7802e-06 -7.43139e-07 0)
(-4.72023e-06 -6.90452e-07 0)
(-3.73722e-06 -6.34237e-07 0)
(-2.83629e-06 -5.74541e-07 0)
(-2.0227e-06 -5.11287e-07 0)
(-1.30144e-06 -4.4448e-07 0)
(-6.76759e-07 -3.74403e-07 0)
(-1.51928e-07 -3.01631e-07 0)
(2.70736e-07 -2.26985e-07 0)
(5.89963e-07 -1.51369e-07 0)
(8.05989e-07 -7.59785e-08 0)
(9.2112e-07 -2.60056e-09 0)
(9.40497e-07 6.61998e-08 0)
(8.7338e-07 1.26559e-07 0)
(7.34265e-07 1.72918e-07 0)
(5.43661e-07 1.97832e-07 0)
(3.30043e-07 1.91042e-07 0)
(1.37958e-07 1.39898e-07 0)
(2.71107e-08 4.51838e-08 0)
(-1.79236e-07 1.12727e-07 0)
(-2.29187e-07 -4.42485e-07 0)
(-9.56593e-08 -9.60595e-07 0)
(2.18366e-07 -9.61863e-07 0)
(5.62733e-07 -7.41673e-07 0)
(8.22178e-07 -4.66304e-07 0)
(9.4812e-07 -1.90397e-07 0)
(9.142e-07 7.40987e-08 0)
(7.10298e-07 3.25202e-07 0)
(3.28297e-07 5.6325e-07 0)
(-2.29167e-07 7.92977e-07 0)
(-9.62148e-07 1.01158e-06 0)
(-1.86187e-06 1.22015e-06 0)
(-2.92434e-06 1.42003e-06 0)
(-4.14493e-06 1.60866e-06 0)
(-5.51196e-06 1.79056e-06 0)
(-7.0209e-06 1.95879e-06 0)
(-8.66075e-06 2.11657e-06 0)
(-1.04228e-05 2.26339e-06 0)
(-1.23015e-05 2.39767e-06 0)
(-1.42846e-05 2.52274e-06 0)
(-1.63644e-05 2.63666e-06 0)
(-1.85327e-05 2.73774e-06 0)
(-2.07786e-05 2.82969e-06 0)
(-2.30966e-05 2.91086e-06 0)
(-2.54783e-05 2.98176e-06 0)
(-2.79134e-05 3.04459e-06 0)
(-3.0396e-05 3.09676e-06 0)
(-3.29182e-05 3.13918e-06 0)
(-3.5472e-05 3.17444e-06 0)
(-3.80526e-05 3.20122e-06 0)
(-4.06526e-05 3.21986e-06 0)
(-4.32646e-05 3.23184e-06 0)
(-4.58842e-05 3.23612e-06 0)
(-4.85057e-05 3.23315e-06 0)
(-5.11232e-05 3.22478e-06 0)
(-5.37322e-05 3.21044e-06 0)
(-5.63283e-05 3.18981e-06 0)
(-5.8906e-05 3.16413e-06 0)
(-6.14613e-05 3.13324e-06 0)
(-6.39914e-05 3.09728e-06 0)
(-6.64921e-05 3.05754e-06 0)
(-6.89598e-05 3.01431e-06 0)
(-7.13917e-05 2.96715e-06 0)
(-7.37843e-05 2.91655e-06 0)
(-7.61347e-05 2.86296e-06 0)
(-7.84408e-05 2.80609e-06 0)
(-8.06997e-05 2.74609e-06 0)
(-8.29087e-05 2.68328e-06 0)
(-8.50661e-05 2.61769e-06 0)
(-8.717e-05 2.5497e-06 0)
(-8.92181e-05 2.47977e-06 0)
(-9.12089e-05 2.40792e-06 0)
(-9.31412e-05 2.3343e-06 0)
(-9.50128e-05 2.25907e-06 0)
(-9.68221e-05 2.18189e-06 0)
(-9.85679e-05 2.10257e-06 0)
(-0.000100249 2.02183e-06 0)
(-0.000101865 1.94057e-06 0)
(-0.000103415 1.85876e-06 0)
(-0.000104897 1.7757e-06 0)
(-0.00010631 1.69099e-06 0)
(-0.000107652 1.60467e-06 0)
(-0.000108925 1.51695e-06 0)
(-0.000110126 1.42826e-06 0)
(-0.000111255 1.33921e-06 0)
(-0.000112312 1.25001e-06 0)
(-0.000113295 1.16012e-06 0)
(-0.000114204 1.06912e-06 0)
(-0.000115039 9.77303e-07 0)
(-0.000115799 8.85127e-07 0)
(-0.000116483 7.92551e-07 0)
(-0.000117092 6.99504e-07 0)
(-0.000117624 6.06172e-07 0)
(-0.00011808 5.12675e-07 0)
(-0.000118459 4.18827e-07 0)
(-0.000118762 3.24461e-07 0)
(-0.000118987 2.29852e-07 0)
(-0.000119135 1.35447e-07 0)
(-0.000119207 4.11806e-08 0)
(-0.000119201 -5.32973e-08 0)
(-0.000119118 -1.47937e-07 0)
(-0.000118958 -2.42484e-07 0)
(-0.00011872 -3.36904e-07 0)
(-0.000118406 -4.3113e-07 0)
(-0.000118015 -5.24876e-07 0)
(-0.000117548 -6.18074e-07 0)
(-0.000117004 -7.11001e-07 0)
(-0.000116384 -8.03706e-07 0)
(-0.000115689 -8.95825e-07 0)
(-0.000114919 -9.87051e-07 0)
(-0.000114074 -1.07749e-06 0)
(-0.000113155 -1.16755e-06 0)
(-0.000112162 -1.25737e-06 0)
(-0.000111096 -1.34645e-06 0)
(-0.000109957 -1.43441e-06 0)
(-0.000108747 -1.5215e-06 0)
(-0.000107466 -1.60802e-06 0)
(-0.000106115 -1.6937e-06 0)
(-0.000104695 -1.77802e-06 0)
(-0.000103207 -1.86092e-06 0)
(-0.000101651 -1.94275e-06 0)
(-0.000100029 -2.02359e-06 0)
(-9.83421e-05 -2.10306e-06 0)
(-9.6591e-05 -2.18085e-06 0)
(-9.47772e-05 -2.25685e-06 0)
(-9.29025e-05 -2.33102e-06 0)
(-9.09683e-05 -2.40318e-06 0)
(-8.89759e-05 -2.47313e-06 0)
(-8.69266e-05 -2.54084e-06 0)
(-8.48226e-05 -2.60646e-06 0)
(-8.26658e-05 -2.67009e-06 0)
(-8.04584e-05 -2.7314e-06 0)
(-7.82022e-05 -2.7899e-06 0)
(-7.58996e-05 -2.84525e-06 0)
(-7.35534e-05 -2.89733e-06 0)
(-7.11662e-05 -2.94618e-06 0)
(-6.87407e-05 -2.99177e-06 0)
(-6.62795e-05 -3.03383e-06 0)
(-6.37863e-05 -3.07191e-06 0)
(-6.12648e-05 -3.10559e-06 0)
(-5.87188e-05 -3.13447e-06 0)
(-5.61518e-05 -3.15824e-06 0)
(-5.35674e-05 -3.17663e-06 0)
(-5.09705e-05 -3.18943e-06 0)
(-4.83659e-05 -3.1964e-06 0)
(-4.5759e-05 -3.1971e-06 0)
(-4.31546e-05 -3.1909e-06 0)
(-4.05582e-05 -3.17731e-06 0)
(-3.79755e-05 -3.15614e-06 0)
(-3.54129e-05 -3.12735e-06 0)
(-3.2877e-05 -3.0906e-06 0)
(-3.03744e-05 -3.04524e-06 0)
(-2.79123e-05 -2.99059e-06 0)
(-2.54979e-05 -2.92624e-06 0)
(-2.31393e-05 -2.85197e-06 0)
(-2.08442e-05 -2.76765e-06 0)
(-1.86203e-05 -2.67311e-06 0)
(-1.64755e-05 -2.56811e-06 0)
(-1.44185e-05 -2.45228e-06 0)
(-1.24581e-05 -2.32533e-06 0)
(-1.06029e-05 -2.18728e-06 0)
(-8.86112e-06 -2.03831e-06 0)
(-7.2407e-06 -1.87876e-06 0)
(-5.74948e-06 -1.70915e-06 0)
(-4.39514e-06 -1.53007e-06 0)
(-3.18488e-06 -1.34214e-06 0)
(-2.12472e-06 -1.14624e-06 0)
(-1.21922e-06 -9.43757e-07 0)
(-4.71434e-07 -7.36826e-07 0)
(1.17373e-07 -5.28435e-07 0)
(5.4834e-07 -3.22527e-07 0)
(8.25818e-07 -1.24153e-07 0)
(9.58191e-07 6.01021e-08 0)
(9.59243e-07 2.21208e-07 0)
(8.49482e-07 3.46867e-07 0)
(6.56671e-07 4.21055e-07 0)
(4.17294e-07 4.23292e-07 0)
(1.86092e-07 3.30469e-07 0)
(4.05357e-08 1.3457e-07 0)
(-1.13167e-07 2.73874e-07 0)
(-1.57919e-07 -4.03714e-07 0)
(-1.23648e-07 -1.11498e-06 0)
(2.02429e-08 -1.21745e-06 0)
(1.95555e-07 -9.8098e-07 0)
(2.95962e-07 -6.06766e-07 0)
(2.61605e-07 -1.80369e-07 0)
(5.26684e-08 2.64622e-07 0)
(-3.57828e-07 7.08863e-07 0)
(-9.80432e-07 1.14947e-06 0)
(-1.82534e-06 1.57916e-06 0)
(-2.89108e-06 1.99756e-06 0)
(-4.17355e-06 2.40213e-06 0)
(-5.66833e-06 2.78681e-06 0)
(-7.36507e-06 3.15635e-06 0)
(-9.25927e-06 3.50505e-06 0)
(-1.13395e-05 3.83472e-06 0)
(-1.3594e-05 4.14456e-06 0)
(-1.60143e-05 4.43094e-06 0)
(-1.85858e-05 4.6967e-06 0)
(-2.12985e-05 4.94151e-06 0)
(-2.41426e-05 5.1637e-06 0)
(-2.71037e-05 5.36633e-06 0)
(-3.01717e-05 5.54727e-06 0)
(-3.33361e-05 5.70671e-06 0)
(-3.65844e-05 5.84831e-06 0)
(-3.99081e-05 5.97091e-06 0)
(-4.32964e-05 6.07476e-06 0)
(-4.67375e-05 6.16176e-06 0)
(-5.02231e-05 6.23111e-06 0)
(-5.37443e-05 6.28374e-06 0)
(-5.72914e-05 6.32203e-06 0)
(-6.08571e-05 6.34572e-06 0)
(-6.44337e-05 6.35494e-06 0)
(-6.80123e-05 6.35161e-06 0)
(-7.15865e-05 6.33594e-06 0)
(-7.515e-05 6.30829e-06 0)
(-7.86957e-05 6.27027e-06 0)
(-8.22175e-05 6.22221e-06 0)
(-8.57103e-05 6.1636e-06 0)
(-8.91677e-05 6.09569e-06 0)
(-9.25852e-05 6.0193e-06 0)
(-9.59586e-05 5.93459e-06 0)
(-9.92829e-05 5.84246e-06 0)
(-0.000102554 5.74346e-06 0)
(-0.000105768 5.63758e-06 0)
(-0.000108922 5.52565e-06 0)
(-0.000112012 5.40844e-06 0)
(-0.000115035 5.28576e-06 0)
(-0.000117988 5.15789e-06 0)
(-0.000120867 5.02545e-06 0)
(-0.00012367 4.88838e-06 0)
(-0.000126396 4.74681e-06 0)
(-0.00012904 4.60163e-06 0)
(-0.000131603 4.45349e-06 0)
(-0.000134082 4.30231e-06 0)
(-0.000136474 4.14789e-06 0)
(-0.000138778 3.99021e-06 0)
(-0.000140991 3.82944e-06 0)
(-0.000143113 3.6661e-06 0)
(-0.000145143 3.50084e-06 0)
(-0.000147079 3.33385e-06 0)
(-0.00014892 3.16479e-06 0)
(-0.000150664 2.99335e-06 0)
(-0.000152311 2.81968e-06 0)
(-0.000153858 2.64417e-06 0)
(-0.000155306 2.46715e-06 0)
(-0.000156654 2.28888e-06 0)
(-0.000157901 2.10949e-06 0)
(-0.000159045 1.92897e-06 0)
(-0.000160087 1.74719e-06 0)
(-0.000161026 1.5642e-06 0)
(-0.000161861 1.38044e-06 0)
(-0.000162591 1.1962e-06 0)
(-0.000163217 1.01133e-06 0)
(-0.000163737 8.25792e-07 0)
(-0.000164153 6.39838e-07 0)
(-0.000164462 4.53548e-07 0)
(-0.000164666 2.66804e-07 0)
(-0.000164764 7.97763e-08 0)
(-0.000164756 -1.071e-07 0)
(-0.000164643 -2.93543e-07 0)
(-0.000164423 -4.79714e-07 0)
(-0.000164098 -6.65935e-07 0)
(-0.000163667 -8.51992e-07 0)
(-0.000163131 -1.03723e-06 0)
(-0.000162491 -1.22147e-06 0)
(-0.000161745 -1.4051e-06 0)
(-0.000160896 -1.58824e-06 0)
(-0.000159943 -1.77038e-06 0)
(-0.000158886 -1.95112e-06 0)
(-0.000157728 -2.13055e-06 0)
(-0.000156467 -2.30886e-06 0)
(-0.000155106 -2.48605e-06 0)
(-0.000153645 -2.66182e-06 0)
(-0.000152084 -2.83583e-06 0)
(-0.000150425 -3.00808e-06 0)
(-0.000148668 -3.1787e-06 0)
(-0.000146816 -3.3475e-06 0)
(-0.000144868 -3.51411e-06 0)
(-0.000142827 -3.67828e-06 0)
(-0.000140695 -3.83994e-06 0)
(-0.000138472 -3.99888e-06 0)
(-0.000136159 -4.15481e-06 0)
(-0.000133759 -4.3076e-06 0)
(-0.000131273 -4.45733e-06 0)
(-0.000128703 -4.60387e-06 0)
(-0.000126051 -4.74667e-06 0)
(-0.00012332 -4.88519e-06 0)
(-0.000120512 -5.01925e-06 0)
(-0.000117629 -5.14885e-06 0)
(-0.000114674 -5.27385e-06 0)
(-0.00011165 -5.39392e-06 0)
(-0.000108559 -5.50867e-06 0)
(-0.000105405 -5.61779e-06 0)
(-0.000102191 -5.72088e-06 0)
(-9.89219e-05 -5.81734e-06 0)
(-9.56004e-05 -5.90661e-06 0)
(-9.22308e-05 -5.98838e-06 0)
(-8.88176e-05 -6.06239e-06 0)
(-8.53657e-05 -6.128e-06 0)
(-8.18803e-05 -6.18426e-06 0)
(-7.83665e-05 -6.23039e-06 0)
(-7.48297e-05 -6.2659e-06 0)
(-7.12762e-05 -6.29045e-06 0)
(-6.77125e-05 -6.30354e-06 0)
(-6.41453e-05 -6.3044e-06 0)
(-6.05815e-05 -6.292e-06 0)
(-5.70288e-05 -6.26539e-06 0)
(-5.34953e-05 -6.22393e-06 0)
(-4.99894e-05 -6.16713e-06 0)
(-4.65197e-05 -6.09434e-06 0)
(-4.3095e-05 -6.00482e-06 0)
(-3.97245e-05 -5.89782e-06 0)
(-3.64185e-05 -5.77259e-06 0)
(-3.31875e-05 -5.62841e-06 0)
(-3.00417e-05 -5.46456e-06 0)
(-2.69917e-05 -5.28052e-06 0)
(-2.40481e-05 -5.07605e-06 0)
(-2.12218e-05 -4.8511e-06 0)
(-1.85243e-05 -4.60553e-06 0)
(-1.59666e-05 -4.33925e-06 0)
(-1.35596e-05 -4.05237e-06 0)
(-1.13136e-05 -3.74534e-06 0)
(-9.23889e-06 -3.41915e-06 0)
(-7.34483e-06 -3.07519e-06 0)
(-5.64009e-06 -2.71515e-06 0)
(-4.13191e-06 -2.34116e-06 0)
(-2.82587e-06 -1.95612e-06 0)
(-1.72573e-06 -1.56416e-06 0)
(-8.32768e-07 -1.17086e-06 0)
(-1.44904e-07 -7.83579e-07 0)
(3.44081e-07 -4.11679e-07 0)
(6.45021e-07 -6.69491e-08 0)
(7.74539e-07 2.35424e-07 0)
(7.56608e-07 4.75634e-07 0)
(6.23108e-07 6.28426e-07 0)
(4.15096e-07 6.62402e-07 0)
(1.92913e-07 5.4174e-07 0)
(4.39488e-08 2.41365e-07 0)
(-4.18031e-08 3.39699e-07 0)
(-4.16012e-08 -3.47969e-07 0)
(-6.21931e-08 -1.14284e-06 0)
(-6.28734e-08 -1.28762e-06 0)
(-7.78488e-08 -1.01825e-06 0)
(-1.87392e-07 -5.39139e-07 0)
(-4.4674e-07 4.93246e-08 0)
(-9.03992e-07 6.90859e-07 0)
(-1.58473e-06 1.35941e-06 0)
(-2.51041e-06 2.03284e-06 0)
(-3.69037e-06 2.70226e-06 0)
(-5.12831e-06 3.36106e-06 0)
(-6.82566e-06 4.00021e-06 0)
(-8.7731e-06 4.61878e-06 0)
(-1.09657e-05 5.20869e-06 0)
(-1.33933e-05 5.76907e-06 0)
(-1.60443e-05 6.29993e-06 0)
(-1.89103e-05 6.79693e-06 0)
(-2.19751e-05 7.26146e-06 0)
(-2.52259e-05 7.69245e-06 0)
(-2.86505e-05 8.08743e-06 0)
(-3.22333e-05 8.44968e-06 0)
(-3.59619e-05 8.77852e-06 0)
(-3.98233e-05 9.07301e-06 0)
(-4.38016e-05 9.33575e-06 0)
(-4.78845e-05 9.56634e-06 0)
(-5.20603e-05 9.76547e-06 0)
(-5.63149e-05 9.93642e-06 0)
(-6.06369e-05 1.0079e-05 0)
(-6.50147e-05 1.01933e-05 0)
(-6.94358e-05 1.0282e-05 0)
(-7.38898e-05 1.03455e-05 0)
(-7.83675e-05 1.03845e-05 0)
(-8.28579e-05 1.04015e-05 0)
(-8.73516e-05 1.03973e-05 0)
(-9.18406e-05 1.03722e-05 0)
(-9.63153e-05 1.03282e-05 0)
(-0.000100768 1.02666e-05 0)
(-0.000105192 1.0188e-05 0)
(-0.00010958 1.00938e-05 0)
(-0.000113924 9.98474e-06 0)
(-0.000118219 9.86117e-06 0)
(-0.000122458 9.72431e-06 0)
(-0.000126636 9.57511e-06 0)
(-0.000130748 9.41403e-06 0)
(-0.000134789 9.24175e-06 0)
(-0.000138753 9.05921e-06 0)
(-0.000142638 8.86717e-06 0)
(-0.000146439 8.66637e-06 0)
(-0.000150152 8.45764e-06 0)
(-0.000153774 8.24144e-06 0)
(-0.000157301 8.01794e-06 0)
(-0.00016073 7.78743e-06 0)
(-0.000164058 7.55024e-06 0)
(-0.000167282 7.30688e-06 0)
(-0.000170401 7.05833e-06 0)
(-0.000173411 6.80547e-06 0)
(-0.000176311 6.54817e-06 0)
(-0.000179098 6.28587e-06 0)
(-0.00018177 6.01864e-06 0)
(-0.000184325 5.74719e-06 0)
(-0.000186762 5.47207e-06 0)
(-0.000189079 5.19367e-06 0)
(-0.000191276 4.91242e-06 0)
(-0.000193349 4.62851e-06 0)
(-0.000195299 4.34158e-06 0)
(-0.000197122 4.05143e-06 0)
(-0.00019882 3.75866e-06 0)
(-0.00020039 3.46396e-06 0)
(-0.000201831 3.16742e-06 0)
(-0.000203144 2.86892e-06 0)
(-0.000204327 2.56869e-06 0)
(-0.000205378 2.26721e-06 0)
(-0.000206298 1.96459e-06 0)
(-0.000207087 1.66065e-06 0)
(-0.000207743 1.35573e-06 0)
(-0.000208267 1.05047e-06 0)
(-0.000208657 7.44912e-07 0)
(-0.000208915 4.38581e-07 0)
(-0.000209039 1.31587e-07 0)
(-0.000209029 -1.75404e-07 0)
(-0.000208886 -4.81969e-07 0)
(-0.00020861 -7.88086e-07 0)
(-0.000208202 -1.09379e-06 0)
(-0.00020766 -1.39892e-06 0)
(-0.000206985 -1.70312e-06 0)
(-0.000206178 -2.00626e-06 0)
(-0.00020524 -2.30826e-06 0)
(-0.00020417 -2.6089e-06 0)
(-0.00020297 -2.90788e-06 0)
(-0.00020164 -3.20513e-06 0)
(-0.000200181 -3.50062e-06 0)
(-0.000198594 -3.79402e-06 0)
(-0.00019688 -4.08499e-06 0)
(-0.00019504 -4.3735e-06 0)
(-0.000193074 -4.65951e-06 0)
(-0.000190985 -4.94267e-06 0)
(-0.000188774 -5.22258e-06 0)
(-0.000186442 -5.49907e-06 0)
(-0.00018399 -5.77214e-06 0)
(-0.000181421 -6.04169e-06 0)
(-0.000178735 -6.30727e-06 0)
(-0.000175936 -6.56825e-06 0)
(-0.000173024 -6.82415e-06 0)
(-0.000170003 -7.07479e-06 0)
(-0.000166873 -7.32011e-06 0)
(-0.000163639 -7.55985e-06 0)
(-0.000160302 -7.7936e-06 0)
(-0.000156864 -8.02093e-06 0)
(-0.00015333 -8.24145e-06 0)
(-0.000149702 -8.45467e-06 0)
(-0.000145983 -8.6599e-06 0)
(-0.000142178 -8.85646e-06 0)
(-0.000138289 -9.044e-06 0)
(-0.000134322 -9.22228e-06 0)
(-0.000130279 -9.39076e-06 0)
(-0.000126167 -9.54851e-06 0)
(-0.000121989 -9.69445e-06 0)
(-0.000117751 -9.8278e-06 0)
(-0.000113459 -9.94801e-06 0)
(-0.000109119 -1.00543e-05 0)
(-0.000104737 -1.01456e-05 0)
(-0.000100319 -1.02205e-05 0)
(-9.58725e-05 -1.02784e-05 0)
(-9.14055e-05 -1.03182e-05 0)
(-8.69261e-05 -1.03389e-05 0)
(-8.24424e-05 -1.03393e-05 0)
(-7.79629e-05 -1.03183e-05 0)
(-7.3497e-05 -1.02748e-05 0)
(-6.9055e-05 -1.02076e-05 0)
(-6.46473e-05 -1.01154e-05 0)
(-6.02846e-05 -9.99684e-06 0)
(-5.59778e-05 -9.85079e-06 0)
(-5.17385e-05 -9.67642e-06 0)
(-4.75788e-05 -9.47292e-06 0)
(-4.35112e-05 -9.23925e-06 0)
(-3.95484e-05 -8.9743e-06 0)
(-3.57034e-05 -8.6771e-06 0)
(-3.19892e-05 -8.34709e-06 0)
(-2.84195e-05 -7.98415e-06 0)
(-2.50076e-05 -7.5883e-06 0)
(-2.17666e-05 -7.15971e-06 0)
(-1.87092e-05 -6.69886e-06 0)
(-1.5848e-05 -6.2066e-06 0)
(-1.31949e-05 -5.6844e-06 0)
(-1.07613e-05 -5.13446e-06 0)
(-8.55673e-06 -4.55971e-06 0)
(-6.58953e-06 -3.96405e-06 0)
(-4.86595e-06 -3.35259e-06 0)
(-3.39011e-06 -2.73197e-06 0)
(-2.16333e-06 -2.11077e-06 0)
(-1.18309e-06 -1.49996e-06 0)
(-4.42052e-07 -9.13595e-07 0)
(7.23406e-08 -3.69318e-07 0)
(3.7848e-07 1.10904e-07 0)
(5.01992e-07 4.99484e-07 0)
(4.76572e-07 7.6204e-07 0)
(3.45444e-07 8.56135e-07 0)
(1.70487e-07 7.31884e-07 0)
(4.10027e-08 3.43414e-07 0)
(4.04545e-10 3.30826e-07 0)
(2.30546e-08 -3.18441e-07 0)
(-4.25684e-08 -1.08736e-06 0)
(-1.75627e-07 -1.1999e-06 0)
(-3.84733e-07 -8.50413e-07 0)
(-7.24836e-07 -2.33972e-07 0)
(-1.24661e-06 5.36765e-07 0)
(-1.98827e-06 1.40198e-06 0)
(-2.98363e-06 2.31752e-06 0)
(-4.25098e-06 3.25653e-06 0)
(-5.80096e-06 4.19973e-06 0)
(-7.64276e-06 5.13097e-06 0)
(-9.77342e-06 6.04405e-06 0)
(-1.21918e-05 6.92817e-06 0)
(-1.48896e-05 7.777e-06 0)
(-1.7855e-05 8.58747e-06 0)
(-2.10795e-05 9.35274e-06 0)
(-2.45484e-05 1.00733e-05 0)
(-2.82479e-05 1.07476e-05 0)
(-3.21646e-05 1.13722e-05 0)
(-3.62809e-05 1.19487e-05 0)
(-4.05817e-05 1.24763e-05 0)
(-4.50532e-05 1.29543e-05 0)
(-4.9678e-05 1.33856e-05 0)
(-5.44409e-05 1.37703e-05 0)
(-5.93273e-05 1.41079e-05 0)
(-6.43205e-05 1.44013e-05 0)
(-6.94066e-05 1.46519e-05 0)
(-7.45726e-05 1.48603e-05 0)
(-7.98033e-05 1.50296e-05 0)
(-8.50857e-05 1.51608e-05 0)
(-9.04079e-05 1.52547e-05 0)
(-9.57566e-05 1.53139e-05 0)
(-0.000101121 1.53404e-05 0)
(-0.00010649 1.53351e-05 0)
(-0.000111852 1.53001e-05 0)
(-0.000117198 1.52373e-05 0)
(-0.000122519 1.51473e-05 0)
(-0.000127804 1.50322e-05 0)
(-0.000133046 1.48941e-05 0)
(-0.000138237 1.47336e-05 0)
(-0.00014337 1.45524e-05 0)
(-0.000148436 1.43517e-05 0)
(-0.000153431 1.41326e-05 0)
(-0.000158346 1.38964e-05 0)
(-0.000163177 1.36441e-05 0)
(-0.000167918 1.33765e-05 0)
(-0.000172563 1.30945e-05 0)
(-0.000177108 1.27993e-05 0)
(-0.000181549 1.24918e-05 0)
(-0.00018588 1.21728e-05 0)
(-0.000190099 1.18433e-05 0)
(-0.000194201 1.15042e-05 0)
(-0.000198183 1.11554e-05 0)
(-0.000202041 1.07973e-05 0)
(-0.000205772 1.04306e-05 0)
(-0.000209374 1.00565e-05 0)
(-0.000212844 9.67574e-06 0)
(-0.00021618 9.28847e-06 0)
(-0.000219379 8.89494e-06 0)
(-0.000222437 8.49519e-06 0)
(-0.000225355 8.08931e-06 0)
(-0.000228128 7.67787e-06 0)
(-0.000230757 7.26177e-06 0)
(-0.000233239 6.84163e-06 0)
(-0.000235573 6.41744e-06 0)
(-0.000237757 5.98911e-06 0)
(-0.000239789 5.55707e-06 0)
(-0.000241669 5.12172e-06 0)
(-0.000243395 4.68325e-06 0)
(-0.000244967 4.24197e-06 0)
(-0.000246383 3.79839e-06 0)
(-0.000247643 3.35282e-06 0)
(-0.000248745 2.90532e-06 0)
(-0.00024969 2.456e-06 0)
(-0.000250476 2.00526e-06 0)
(-0.000251103 1.55363e-06 0)
(-0.000251571 1.10135e-06 0)
(-0.00025188 6.48466e-07 0)
(-0.000252029 1.9517e-07 0)
(-0.000252018 -2.58232e-07 0)
(-0.000251848 -7.116e-07 0)
(-0.000251518 -1.16466e-06 0)
(-0.000251028 -1.61685e-06 0)
(-0.00025038 -2.06785e-06 0)
(-0.000249572 -2.51768e-06 0)
(-0.000248606 -2.96628e-06 0)
(-0.000247483 -3.4132e-06 0)
(-0.000246203 -3.85784e-06 0)
(-0.000244767 -4.29996e-06 0)
(-0.000243175 -4.73964e-06 0)
(-0.000241428 -5.17678e-06 0)
(-0.000239529 -5.6108e-06 0)
(-0.000237477 -6.04114e-06 0)
(-0.000235274 -6.46772e-06 0)
(-0.000232921 -6.89062e-06 0)
(-0.000230421 -7.30937e-06 0)
(-0.000227774 -7.72323e-06 0)
(-0.000224982 -8.13182e-06 0)
(-0.000222048 -8.5351e-06 0)
(-0.000218973 -8.93291e-06 0)
(-0.000215759 -9.32476e-06 0)
(-0.000212408 -9.71002e-06 0)
(-0.000208923 -1.00882e-05 0)
(-0.000205307 -1.04589e-05 0)
(-0.000201562 -1.08217e-05 0)
(-0.000197692 -1.11758e-05 0)
(-0.000193698 -1.15206e-05 0)
(-0.000189586 -1.18559e-05 0)
(-0.000185357 -1.21812e-05 0)
(-0.000181017 -1.24958e-05 0)
(-0.000176568 -1.27988e-05 0)
(-0.000172016 -1.30891e-05 0)
(-0.000167365 -1.3366e-05 0)
(-0.00016262 -1.36287e-05 0)
(-0.000157786 -1.38765e-05 0)
(-0.000152868 -1.41083e-05 0)
(-0.000147872 -1.43228e-05 0)
(-0.000142805 -1.45189e-05 0)
(-0.000137673 -1.46955e-05 0)
(-0.000132484 -1.48513e-05 0)
(-0.000127245 -1.49847e-05 0)
(-0.000121964 -1.50945e-05 0)
(-0.000116649 -1.51793e-05 0)
(-0.00011131 -1.52377e-05 0)
(-0.000105955 -1.52679e-05 0)
(-0.000100596 -1.52682e-05 0)
(-9.52413e-05 -1.52368e-05 0)
(-8.99032e-05 -1.51724e-05 0)
(-8.45931e-05 -1.50736e-05 0)
(-7.9323e-05 -1.49385e-05 0)
(-7.41055e-05 -1.47653e-05 0)
(-6.89537e-05 -1.4552e-05 0)
(-6.38815e-05 -1.42973e-05 0)
(-5.89027e-05 -1.4e-05 0)
(-5.40318e-05 -1.36588e-05 0)
(-4.92833e-05 -1.32724e-05 0)
(-4.46722e-05 -1.28399e-05 0)
(-4.0214e-05 -1.23604e-05 0)
(-3.59241e-05 -1.18337e-05 0)
(-3.18179e-05 -1.12596e-05 0)
(-2.79104e-05 -1.06384e-05 0)
(-2.4216e-05 -9.97121e-06 0)
(-2.07488e-05 -9.25961e-06 0)
(-1.75223e-05 -8.50602e-06 0)
(-1.4549e-05 -7.71366e-06 0)
(-1.184e-05 -6.88678e-06 0)
(-9.40423e-06 -6.03116e-06 0)
(-7.24863e-06 -5.15438e-06 0)
(-5.37762e-06 -4.26614e-06 0)
(-3.79246e-06 -3.37847e-06 0)
(-2.49044e-06 -2.50626e-06 0)
(-1.46391e-06 -1.66825e-06 0)
(-6.99723e-07 -8.87948e-07 0)
(-1.78767e-07 -1.94353e-07 0)
(1.25137e-07 3.76978e-07 0)
(2.46003e-07 7.82571e-07 0)
(2.27148e-07 9.69289e-07 0)
(1.28403e-07 8.73356e-07 0)
(3.43159e-08 4.28034e-07 0)
(1.79635e-08 2.92934e-07 0)
(3.70547e-08 -2.79155e-07 0)
(-9.0955e-08 -9.41269e-07 0)
(-3.56866e-07 -9.50478e-07 0)
(-7.60058e-07 -4.66161e-07 0)
(-1.34559e-06 3.24729e-07 0)
(-2.14554e-06 1.31423e-06 0)
(-3.19867e-06 2.42776e-06 0)
(-4.53233e-06 3.61842e-06 0)
(-6.16571e-06 4.85122e-06 0)
(-8.11318e-06 6.09537e-06 0)
(-1.03766e-05 7.33405e-06 0)
(-1.29602e-05 8.54993e-06 0)
(-1.58605e-05 9.73105e-06 0)
(-1.90684e-05 1.08714e-05 0)
(-2.25766e-05 1.19596e-05 0)
(-2.63707e-05 1.29924e-05 0)
(-3.04369e-05 1.39662e-05 0)
(-3.47621e-05 1.48765e-05 0)
(-3.93289e-05 1.57236e-05 0)
(-4.41203e-05 1.65063e-05 0)
(-4.91202e-05 1.72221e-05 0)
(-5.431e-05 1.7873e-05 0)
(-5.96727e-05 1.84601e-05 0)
(-6.51924e-05 1.89829e-05 0)
(-7.08506e-05 1.94446e-05 0)
(-7.663e-05 1.98461e-05 0)
(-8.25155e-05 2.01881e-05 0)
(-8.849e-05 2.0474e-05 0)
(-9.45379e-05 2.0706e-05 0)
(-0.000100646 2.08853e-05 0)
(-0.000106798 2.10149e-05 0)
(-0.00011298 2.10971e-05 0)
(-0.00011918 2.11335e-05 0)
(-0.000125384 2.1127e-05 0)
(-0.000131581 2.10801e-05 0)
(-0.00013776 2.09947e-05 0)
(-0.000143909 2.08726e-05 0)
(-0.000150018 2.07161e-05 0)
(-0.000156077 2.0527e-05 0)
(-0.000162078 2.03073e-05 0)
(-0.00016801 2.00591e-05 0)
(-0.000173868 1.97837e-05 0)
(-0.000179641 1.94829e-05 0)
(-0.000185324 1.91584e-05 0)