/*--------------------------------*- C++ -*----------------------------------*\
  =========                 |
  \\      /  F ield         | OpenFOAM: The Open Source CFD Toolbox
   \\    /   O peration     | Website:  https://openfoam.org
    \\  /    A nd           | Version:  7
     \\/     M anipulation  |
\*---------------------------------------------------------------------------*/
FoamFile
{
    version     2.0;
    format      ascii;
    class       surfaceScalarField;
    location    "0.1";
    object      phi;
}
// * * * * * * * * * * * * * * * * * * * * * * * * * * * * * * * * * * * * * //

dimensions      [0 3 -1 0 0 0 0];

internalField   nonuniform List<scalar> 
25360
(
1.14275e-10
-1.1426e-10
3.59383e-10
-2.45111e-10
6.03833e-10
-2.44439e-10
7.64519e-10
-1.60692e-10
7.97348e-10
-3.28308e-11
6.80533e-10
1.16817e-10
4.05447e-10
2.75087e-10
-2.85828e-11
4.34026e-10
-6.17412e-10
5.88832e-10
-1.35402e-09
7.36611e-10
-2.22966e-09
8.75631e-10
-3.23455e-09
1.00489e-09
-4.35839e-09
1.12384e-09
-5.59067e-09
1.23228e-09
-6.92087e-09
1.33021e-09
-8.33863e-09
1.41776e-09
-9.83385e-09
1.49522e-09
-1.13967e-08
1.5629e-09
-1.30179e-08
1.6212e-09
-1.46885e-08
1.67054e-09
-1.63999e-08
1.71137e-09
-1.8144e-08
1.74416e-09
-1.99134e-08
1.76937e-09
-2.17009e-08
1.78749e-09
-2.34999e-08
1.79898e-09
-2.53042e-08
1.80432e-09
-2.71081e-08
1.80396e-09
-2.89065e-08
1.79836e-09
-3.06944e-08
1.78795e-09
-3.24676e-08
1.77316e-09
-3.4222e-08
1.75439e-09
-3.5954e-08
1.73203e-09
-3.76605e-08
1.70647e-09
-3.93385e-08
1.67805e-09
-4.09856e-08
1.64711e-09
-4.25996e-08
1.61398e-09
-4.41786e-08
1.57896e-09
-4.57209e-08
1.54232e-09
-4.72252e-08
1.50434e-09
-4.86905e-08
1.46525e-09
-5.01158e-08
1.4253e-09
-5.15004e-08
1.38468e-09
-5.28441e-08
1.34361e-09
-5.41463e-08
1.30225e-09
-5.54071e-08
1.26078e-09
-5.66264e-08
1.21932e-09
-5.78044e-08
1.17803e-09
-5.89414e-08
1.13701e-09
-6.00378e-08
1.09638e-09
-6.1094e-08
1.05622e-09
-6.21107e-08
1.01663e-09
-6.30883e-08
9.77666e-10
-6.40277e-08
9.39387e-10
-6.49296e-08
9.01841e-10
-6.57946e-08
8.65065e-10
-6.66237e-08
8.2909e-10
-6.74176e-08
7.93936e-10
-6.81773e-08
7.59616e-10
-6.89034e-08
7.26136e-10
-6.95969e-08
6.93494e-10
-7.02586e-08
6.61681e-10
-7.08893e-08
6.30681e-10
-7.14897e-08
6.00474e-10
-7.20608e-08
5.71035e-10
-7.26031e-08
5.42333e-10
-7.31174e-08
5.14331e-10
-7.36044e-08
4.8699e-10
-7.40647e-08
4.60268e-10
-7.44988e-08
4.34117e-10
-7.49073e-08
4.08486e-10
-7.52906e-08
3.83321e-10
-7.56492e-08
3.58567e-10
-7.59833e-08
3.34165e-10
-7.62934e-08
3.10051e-10
-7.65795e-08
2.86162e-10
-7.6842e-08
2.62431e-10
-7.70807e-08
2.38792e-10
-7.72959e-08
2.15173e-10
-7.74874e-08
1.91506e-10
-7.76552e-08
1.6772e-10
-7.77989e-08
1.43744e-10
-7.79184e-08
1.19501e-10
-7.80133e-08
9.49165e-11
-7.80832e-08
6.99157e-11
-7.81277e-08
4.44257e-11
-7.8146e-08
1.83723e-11
-7.81377e-08
-8.31923e-12
-7.8102e-08
-3.57226e-11
-7.80381e-08
-6.39085e-11
-7.79451e-08
-9.29458e-11
-7.78222e-08
-1.22904e-10
-7.76684e-08
-1.53851e-10
-7.74825e-08
-1.85851e-10
-7.72636e-08
-2.18964e-10
-7.70103e-08
-2.53248e-10
-7.67216e-08
-2.88755e-10
-7.6396e-08
-3.25537e-10
-7.60324e-08
-3.63636e-10
-7.56293e-08
-4.0309e-10
-7.51854e-08
-4.4393e-10
-7.46992e-08
-4.86182e-10
-7.41693e-08
-5.29864e-10
-7.35944e-08
-5.74984e-10
-7.29728e-08
-6.21537e-10
-7.23033e-08
-6.69512e-10
-7.15844e-08
-7.18888e-10
-7.08148e-08
-7.6963e-10
-6.99931e-08
-8.2169e-10
-6.91181e-08
-8.75006e-10
-6.81886e-08
-9.29501e-10
-6.72035e-08
-9.85088e-10
-6.61618e-08
-1.04166e-09
-6.50627e-08
-1.0991e-09
-6.39055e-08
-1.15726e-09
-6.26895e-08
-1.21598e-09
-6.14144e-08
-1.27507e-09
-6.00801e-08
-1.33435e-09
-5.86865e-08
-1.39358e-09
-5.7234e-08
-1.45253e-09
-5.5723e-08
-1.51094e-09
-5.41545e-08
-1.56853e-09
-5.25295e-08
-1.62499e-09
-5.08496e-08
-1.67999e-09
-4.91164e-08
-1.73318e-09
-4.73322e-08
-1.78421e-09
-4.54995e-08
-1.83268e-09
-4.36213e-08
-1.87819e-09
-4.1701e-08
-1.92031e-09
-3.97424e-08
-1.9586e-09
-3.77498e-08
-1.99258e-09
-3.5728e-08
-2.0218e-09
-3.36822e-08
-2.04577e-09
-3.16182e-08
-2.06399e-09
-2.95423e-08
-2.07596e-09
-2.74611e-08
-2.08115e-09
-2.53821e-08
-2.07906e-09
-2.33129e-08
-2.06918e-09
-2.12619e-08
-2.05098e-09
-1.92379e-08
-2.02397e-09
-1.72503e-08
-1.98765e-09
-1.53088e-08
-1.94154e-09
-1.34236e-08
-1.88518e-09
-1.16055e-08
-1.81813e-09
-9.86546e-09
-1.74e-09
-8.215e-09
-1.65046e-09
-6.66579e-09
-1.54921e-09
-5.22973e-09
-1.43606e-09
-3.91881e-09
-1.31092e-09
-2.74494e-09
-1.17387e-09
-1.71971e-09
-1.02522e-09
-8.54107e-10
-8.656e-10
-1.57952e-10
-6.96153e-10
3.60842e-10
-5.18796e-10
6.97531e-10
-3.36689e-10
8.52603e-10
-1.55073e-10
8.35283e-10
1.73159e-11
6.69371e-10
1.65908e-10
4.03588e-10
2.6578e-10
1.30686e-10
2.729e-10
1.30687e-10
2.453e-10
-3.59571e-10
6.33576e-10
-6.33379e-10
9.4926e-10
-5.60128e-10
1.04572e-09
-2.5714e-10
8.27133e-10
1.85745e-10
2.37072e-10
7.06878e-10
-7.5282e-10
1.26498e-09
-2.15156e-09
1.83276e-09
-3.95503e-09
2.39229e-09
-6.15024e-09
2.93182e-09
-8.71832e-09
3.44372e-09
-1.16366e-08
3.92316e-09
-1.488e-08
4.36723e-09
-1.84221e-08
4.77435e-09
-2.22358e-08
5.1439e-09
-2.62939e-08
5.47594e-09
-3.05697e-08
5.77102e-09
-3.50369e-08
6.03006e-09
-3.96699e-08
6.25425e-09
-4.44444e-08
6.44496e-09
-4.93367e-08
6.6037e-09
-5.43246e-08
6.73208e-09
-5.9387e-08
6.83177e-09
-6.4504e-08
6.90447e-09
-6.96569e-08
6.95189e-09
-7.48283e-08
6.97575e-09
-8.00021e-08
6.97773e-09
-8.51633e-08
6.95952e-09
-9.0298e-08
6.92274e-09
-9.53939e-08
6.86898e-09
-1.00439e-07
6.79976e-09
-1.05424e-07
6.71658e-09
-1.10338e-07
6.62084e-09
-1.15174e-07
6.5139e-09
-1.19924e-07
6.39705e-09
-1.24581e-07
6.27151e-09
-1.29141e-07
6.13844e-09
-1.33598e-07
5.99893e-09
-1.37947e-07
5.85401e-09
-1.42187e-07
5.70461e-09
-1.46313e-07
5.55163e-09
-1.50324e-07
5.39589e-09
-1.54219e-07
5.23815e-09
-1.57995e-07
5.0791e-09
-1.61654e-07
4.91939e-09
-1.65194e-07
4.75959e-09
-1.68617e-07
4.60023e-09
-1.71921e-07
4.44176e-09
-1.7511e-07
4.2846e-09
-1.78182e-07
4.12912e-09
-1.81141e-07
3.97565e-09
-1.83988e-07
3.82445e-09
-1.86725e-07
3.67577e-09
-1.89353e-07
3.5298e-09
-1.91874e-07
3.38669e-09
-1.94292e-07
3.24656e-09
-1.96607e-07
3.10949e-09
-1.98823e-07
2.97556e-09
-2.00942e-07
2.84477e-09
-2.02965e-07
2.71713e-09
-2.04896e-07
2.59261e-09
-2.06737e-07
2.47117e-09
-2.08489e-07
2.35271e-09
-2.10155e-07
2.23716e-09
-2.11737e-07
2.1244e-09
-2.13237e-07
2.01429e-09
-2.14657e-07
1.90669e-09
-2.15998e-07
1.80144e-09
-2.17262e-07
1.69834e-09
-2.18451e-07
1.59722e-09
-2.19566e-07
1.49787e-09
-2.20607e-07
1.40006e-09
-2.21577e-07
1.30358e-09
-2.22475e-07
1.20819e-09
-2.23302e-07
1.11364e-09
-2.24059e-07
1.01969e-09
-2.24747e-07
9.26074e-10
-2.25364e-07
8.32525e-10
-2.25911e-07
7.38775e-10
-2.26388e-07
6.44551e-10
-2.26794e-07
5.49575e-10
-2.27128e-07
4.53566e-10
-2.27389e-07
3.5624e-10
-2.27577e-07
2.57312e-10
-2.27689e-07
1.56495e-10
-2.27724e-07
5.35107e-11
-2.2768e-07
-5.19221e-11
-2.27556e-07
-1.60081e-10
-2.27349e-07
-2.71239e-10
-2.27056e-07
-3.85664e-10
-2.26675e-07
-5.03613e-10
-2.26204e-07
-6.25338e-10
-2.25639e-07
-7.5108e-10
-2.24976e-07
-8.81068e-10
-2.24214e-07
-1.01552e-09
-2.23348e-07
-1.15463e-09
-2.22375e-07
-1.29858e-09
-2.21291e-07
-1.44754e-09
-2.20093e-07
-1.60163e-09
-2.18776e-07
-1.76097e-09
-2.17336e-07
-1.92566e-09
-2.1577e-07
-2.09573e-09
-2.14074e-07
-2.27121e-09
-2.12244e-07
-2.45208e-09
-2.10275e-07
-2.63829e-09
-2.08164e-07
-2.82974e-09
-2.05907e-07
-3.02629e-09
-2.03501e-07
-3.22774e-09
-2.00942e-07
-3.43385e-09
-1.98228e-07
-3.64431e-09
-1.95354e-07
-3.85876e-09
-1.92319e-07
-4.07678e-09
-1.8912e-07
-4.29789e-09
-1.85756e-07
-4.52154e-09
-1.82225e-07
-4.74709e-09
-1.78526e-07
-4.97386e-09
-1.74659e-07
-5.20106e-09
-1.70625e-07
-5.42784e-09
-1.66424e-07
-5.65327e-09
-1.62059e-07
-5.87636e-09
-1.57531e-07
-6.096e-09
-1.52845e-07
-6.31104e-09
-1.48005e-07
-6.52022e-09
-1.43016e-07
-6.72222e-09
-1.37885e-07
-6.91563e-09
-1.32618e-07
-7.09898e-09
-1.27226e-07
-7.27071e-09
-1.21717e-07
-7.42922e-09
-1.16103e-07
-7.57282e-09
-1.10395e-07
-7.69977e-09
-1.04609e-07
-7.80829e-09
-9.87581e-08
-7.89656e-09
-9.28594e-08
-7.96271e-09
-8.69305e-08
-8.00486e-09
-8.09906e-08
-8.02109e-09
-7.50601e-08
-8.00952e-09
-6.9161e-08
-7.96823e-09
-6.33167e-08
-7.89536e-09
-5.75516e-08
-7.78909e-09
-5.18916e-08
-7.64763e-09
-4.63638e-08
-7.4693e-09
-4.09964e-08
-7.25253e-09
-3.58187e-08
-6.99588e-09
-3.08606e-08
-6.6981e-09
-2.61529e-08
-6.35815e-09
-2.17268e-08
-5.97535e-09
-1.76135e-08
-5.54938e-09
-1.38439e-08
-5.08049e-09
-1.04481e-08
-4.56966e-09
-7.45449e-09
-4.01885e-09
-4.8886e-09
-3.4315e-09
-2.77169e-09
-2.81307e-09
-1.11847e-09
-2.17202e-09
6.61633e-11
-1.52132e-09
7.91817e-10
-8.8073e-10
1.08953e-09
-2.80399e-10
1.02166e-09
2.33784e-10
6.94715e-10
5.92726e-10
2.72909e-10
6.94706e-10
4.03597e-10
2.45641e-10
-6.05203e-10
5.62988e-10
-9.50737e-10
6.96995e-10
-6.94142e-10
4.73757e-10
-3.38991e-11
-2.26367e-10
8.85871e-10
-1.47922e-09
1.95973e-09
-3.32665e-09
3.11241e-09
-5.78519e-09
4.29131e-09
-8.85286e-09
5.45995e-09
-1.25143e-08
6.59327e-09
-1.67448e-08
7.6742e-09
-2.1513e-08
8.69138e-09
-2.67833e-08
9.63753e-09
-3.25173e-08
1.05083e-08
-3.86749e-08
1.13015e-08
-4.52156e-08
1.20166e-08
-5.20988e-08
1.26542e-08
-5.92843e-08
1.32156e-08
-6.67331e-08
1.3703e-08
-7.44072e-08
1.41191e-08
-8.22702e-08
1.44667e-08
-9.02873e-08
1.47491e-08
-9.84252e-08
1.49697e-08
-1.06653e-07
1.5132e-08
-1.1494e-07
1.52395e-08
-1.2326e-07
1.52958e-08
-1.31587e-07
1.53046e-08
-1.39897e-07
1.52693e-08
-1.48168e-07
1.51934e-08
-1.56379e-07
1.50803e-08
-1.64513e-07
1.49333e-08
-1.72551e-07
1.47555e-08
-1.80481e-07
1.45501e-08
-1.88287e-07
1.43199e-08
-1.95957e-07
1.40678e-08
-2.03482e-07
1.37963e-08
-2.10852e-07
1.35081e-08
-2.18059e-07
1.32055e-08
-2.25095e-07
1.28906e-08
-2.31956e-07
1.25657e-08
-2.38637e-07
1.22326e-08
-2.45134e-07
1.18931e-08
-2.51445e-07
1.15489e-08
-2.57568e-07
1.12016e-08
-2.63501e-07
1.08525e-08
-2.69244e-07
1.05029e-08
-2.74798e-07
1.0154e-08
-2.80163e-07
9.80674e-09
-2.8534e-07
9.46213e-09
-2.90332e-07
9.12096e-09
-2.95141e-07
8.78393e-09
-2.99768e-07
8.45167e-09
-3.04217e-07
8.12471e-09
-3.0849e-07
7.80347e-09
-3.12592e-07
7.48831e-09
-3.16525e-07
7.1795e-09
-3.20293e-07
6.87726e-09
-3.23899e-07
6.5817e-09
-3.27347e-07
6.2929e-09
-3.30641e-07
6.01087e-09
-3.33784e-07
5.73555e-09
-3.36779e-07
5.46684e-09
-3.39631e-07
5.20458e-09
-3.42343e-07
4.94857e-09
-3.44917e-07
4.69858e-09
-3.47357e-07
4.45432e-09
-3.49666e-07
4.21547e-09
-3.51846e-07
3.98168e-09
-3.539e-07
3.75257e-09
-3.5583e-07
3.5277e-09
-3.57639e-07
3.30666e-09
-3.59328e-07
3.08895e-09
-3.60899e-07
2.8741e-09
-3.62352e-07
2.66159e-09
-3.63689e-07
2.4509e-09
-3.64911e-07
2.24148e-09
-3.66018e-07
2.03276e-09
-3.67009e-07
1.82417e-09
-3.67886e-07
1.61512e-09
-3.68646e-07
1.40502e-09
-3.6929e-07
1.19326e-09
-3.69816e-07
9.79227e-10
-3.70222e-07
7.62316e-10
-3.70506e-07
5.41903e-10
-3.70667e-07
3.17373e-10
-3.70702e-07
8.81119e-11
-3.70607e-07
-1.46484e-10
-3.7038e-07
-3.87015e-10
-3.70017e-07
-6.34071e-10
-3.69515e-07
-8.88229e-10
-3.68868e-07
-1.15005e-09
-3.68074e-07
-1.42007e-09
-3.67126e-07
-1.6988e-09
-3.6602e-07
-1.98674e-09
-3.64751e-07
-2.28435e-09
-3.63314e-07
-2.59205e-09
-3.61702e-07
-2.91022e-09
-3.59911e-07
-3.2392e-09
-3.57933e-07
-3.57928e-09
-3.55763e-07
-3.93068e-09
-3.53395e-07
-4.29359e-09
-3.50823e-07
-4.66809e-09
-3.4804e-07
-5.05422e-09
-3.4504e-07
-5.45192e-09
-3.41817e-07
-5.86106e-09
-3.38366e-07
-6.2814e-09
-3.34679e-07
-6.71262e-09
-3.30753e-07
-7.15427e-09
-3.26581e-07
-7.6058e-09
-3.22159e-07
-8.06654e-09
-3.17482e-07
-8.53568e-09
-3.12546e-07
-9.01229e-09
-3.07349e-07
-9.4953e-09
-3.01887e-07
-9.98348e-09
-2.96159e-07
-1.04754e-08
-2.90163e-07
-1.09697e-08
-2.83899e-07
-1.14645e-08
-2.77369e-07
-1.1958e-08
-2.70574e-07
-1.24481e-08
-2.63518e-07
-1.29327e-08
-2.56204e-07
-1.34095e-08
-2.4864e-07
-1.38758e-08
-2.40831e-07
-1.43289e-08
-2.32787e-07
-1.4766e-08
-2.24519e-07
-1.5184e-08
-2.16038e-07
-1.55797e-08
-2.07359e-07
-1.59498e-08
-1.98498e-07
-1.62908e-08
-1.89471e-07
-1.6599e-08
-1.803e-07
-1.68708e-08
-1.71006e-07
-1.71022e-08
-1.61614e-07
-1.72895e-08
-1.52148e-07
-1.74285e-08
-1.42637e-07
-1.75153e-08
-1.33113e-07
-1.75458e-08
-1.23606e-07
-1.75161e-08
-1.14152e-07
-1.7422e-08
-1.04788e-07
-1.72597e-08
-9.55515e-08
-1.70254e-08
-8.64836e-08
-1.67155e-08
-7.76265e-08
-1.63265e-08
-6.90237e-08
-1.58552e-08
-6.07206e-08
-1.5299e-08
-5.27633e-08
-1.46554e-08
-4.51986e-08
-1.39228e-08
-3.80737e-08
-1.31002e-08
-3.14356e-08
-1.21875e-08
-2.533e-08
-1.11861e-08
-1.98006e-08
-1.0099e-08
-1.4888e-08
-8.93149e-09
-1.06274e-08
-7.69208e-09
-7.04687e-09
-6.39362e-09
-4.16372e-09
-5.05516e-09
-1.98054e-09
-3.70451e-09
-4.79296e-10
-2.38198e-09
3.86192e-10
-1.14589e-09
7.00015e-10
-8.004e-11
5.95367e-10
6.97374e-10
2.66642e-10
1.02343e-09
6.70242e-10
1.636e-10
-7.68808e-10
2.64331e-10
-1.05146e-09
4.35671e-11
-4.73383e-10
-6.78954e-10
6.88619e-10
-2.02993e-09
2.23685e-09
-4.09255e-09
4.02235e-09
-6.91489e-09
5.93475e-09
-1.05174e-08
7.89387e-09
-1.48995e-08
9.84201e-09
-2.00443e-08
1.1738e-08
-2.5923e-08
1.35529e-08
-3.24983e-08
1.52667e-08
-3.97268e-08
1.6866e-08
-4.75608e-08
1.83423e-08
-5.59502e-08
1.9691e-08
-6.48435e-08
2.091e-08
-7.4189e-08
2.19996e-08
-8.3935e-08
2.29616e-08
-9.40308e-08
2.37989e-08
-1.04427e-07
2.45154e-08
-1.15076e-07
2.51158e-08
-1.25932e-07
2.56052e-08
-1.36952e-07
2.59891e-08
-1.48093e-07
2.62732e-08
-1.59317e-07
2.64634e-08
-1.70587e-07
2.65657e-08
-1.81868e-07
2.6586e-08
-1.93129e-07
2.65303e-08
-2.0434e-07
2.64045e-08
-2.15474e-07
2.62142e-08
-2.26506e-07
2.59651e-08
-2.37413e-07
2.56626e-08
-2.48175e-07
2.53119e-08
-2.58773e-07
2.49181e-08
-2.69191e-07
2.44858e-08
-2.79415e-07
2.40197e-08
-2.89431e-07
2.35241e-08
-2.99228e-07
2.30031e-08
-3.08798e-07
2.24606e-08
-3.18133e-07
2.19e-08
-3.27225e-07
2.13249e-08
-3.3607e-07
2.07383e-08
-3.44664e-07
2.01431e-08
-3.53005e-07
1.9542e-08
-3.61089e-07
1.89374e-08
-3.68918e-07
1.83315e-08
-3.76491e-07
1.77264e-08
-3.83808e-07
1.71239e-08
-3.90871e-07
1.65255e-08
-3.97683e-07
1.59327e-08
-4.04246e-07
1.53468e-08
-4.10563e-07
1.47688e-08
-4.16638e-07
1.41997e-08
-4.22474e-07
1.36402e-08
-4.28077e-07
1.3091e-08
-4.3345e-07
1.25526e-08
-4.38598e-07
1.20253e-08
-4.43526e-07
1.15094e-08
-4.48238e-07
1.1005e-08
-4.5274e-07
1.05122e-08
-4.57035e-07
1.00307e-08
-4.61129e-07
9.56063e-09
-4.65026e-07
9.10155e-09
-4.6873e-07
8.65316e-09
-4.72247e-07
8.21507e-09
-4.75579e-07
7.78679e-09
-4.78731e-07
7.36778e-09
-4.81707e-07
6.95743e-09
-4.8451e-07
6.55508e-09
-4.87142e-07
6.16003e-09
-4.89607e-07
5.7715e-09
-4.91907e-07
5.3887e-09
-4.94043e-07
5.01078e-09
-4.96018e-07
4.63687e-09
-4.97834e-07
4.26604e-09
-4.9949e-07
3.89737e-09
-5.00987e-07
3.52988e-09
-5.02325e-07
3.16258e-09
-5.03504e-07
2.79447e-09
-5.04524e-07
2.42451e-09
-5.05382e-07
2.05166e-09
-5.06078e-07
1.67488e-09
-5.06609e-07
1.29311e-09
-5.06972e-07
9.05281e-10
-5.07165e-07
5.10343e-10
-5.07184e-07
1.07242e-10
-5.07026e-07
-3.05065e-10
-5.06685e-07
-7.27606e-10
-5.06158e-07
-1.16139e-09
-5.05439e-07
-1.6074e-09
-5.04522e-07
-2.06659e-09
-5.03402e-07
-2.53989e-09
-5.02073e-07
-3.02818e-09
-5.00527e-07
-3.53229e-09
-4.98759e-07
-4.053e-09
-4.9676e-07
-4.59101e-09
-4.94523e-07
-5.14698e-09
-4.92041e-07
-5.72147e-09
-4.89305e-07
-6.31496e-09
-4.86308e-07
-6.92783e-09
-4.83041e-07
-7.56034e-09
-4.79496e-07
-8.21265e-09
-4.75666e-07
-8.88479e-09
-4.71541e-07
-9.57664e-09
-4.67114e-07
-1.0288e-08
-4.62377e-07
-1.10183e-08
-4.57323e-07
-1.17671e-08
-4.51944e-07
-1.25335e-08
-4.46233e-07
-1.33165e-08
-4.40184e-07
-1.41151e-08
-4.33792e-07
-1.49277e-08
-4.27052e-07
-1.57528e-08
-4.19959e-07
-1.65884e-08
-4.1251e-07
-1.74325e-08
-4.04703e-07
-1.82826e-08
-3.96536e-07
-1.9136e-08
-3.88011e-07
-1.99899e-08
-3.79128e-07
-2.0841e-08
-3.6989e-07
-2.16858e-08
-3.60302e-07
-2.25204e-08
-3.50371e-07
-2.33409e-08
-3.40104e-07
-2.41428e-08
-3.29511e-07
-2.49214e-08
-3.18606e-07
-2.56718e-08
-3.07401e-07
-2.63889e-08
-2.95913e-07
-2.70669e-08
-2.84163e-07
-2.77004e-08
-2.7217e-07
-2.82832e-08
-2.5996e-07
-2.88092e-08
-2.47559e-07
-2.92721e-08
-2.34996e-07
-2.96652e-08
-2.22303e-07
-2.9982e-08
-2.09516e-07
-3.02157e-08
-1.96672e-07
-3.03594e-08
-1.83812e-07
-3.04064e-08
-1.70978e-07
-3.035e-08
-1.58216e-07
-3.01833e-08
-1.45576e-07
-2.99e-08
-1.33108e-07
-2.94936e-08
-1.20865e-07
-2.89584e-08
-1.08903e-07
-2.82887e-08
-9.72784e-08
-2.74796e-08
-8.60506e-08
-2.65268e-08
-7.52792e-08
-2.54268e-08
-6.50247e-08
-2.41774e-08
-5.53472e-08
-2.27776e-08
-4.63064e-08
-2.12284e-08
-3.79596e-08
-1.95329e-08
-3.03612e-08
-1.76974e-08
-2.35605e-08
-1.57322e-08
-1.75999e-08
-1.36527e-08
-1.25118e-08
-1.14817e-08
-8.31519e-09
-9.25177e-09
-5.01117e-09
-7.00853e-09
-2.57715e-09
-4.81599e-09
-9.5988e-10
-2.76316e-09
-6.70103e-11
-9.72912e-10
2.42323e-10
3.88047e-10
1.68763e-10
1.09699e-09
8.39005e-10
3.76254e-11
-8.06437e-10
-1.74462e-10
-8.39364e-10
-8.7096e-10
2.23115e-10
-2.22184e-09
2.0395e-09
-4.34883e-09
4.36384e-09
-7.33343e-09
7.00694e-09
-1.12236e-08
9.82488e-09
-1.60398e-08
1.27101e-08
-2.17805e-08
1.55828e-08
-2.84271e-08
1.83846e-08
-3.59473e-08
2.10731e-08
-4.42988e-08
2.36182e-08
-5.34321e-08
2.59992e-08
-6.32922e-08
2.82025e-08
-7.38211e-08
3.02198e-08
-8.49583e-08
3.20472e-08
-9.66427e-08
3.36841e-08
-1.08813e-07
3.51321e-08
-1.21409e-07
3.6395e-08
-1.34372e-07
3.74781e-08
-1.47644e-07
3.83876e-08
-1.61169e-07
3.91308e-08
-1.74896e-07
3.97156e-08
-1.88773e-07
4.01502e-08
-2.02752e-07
4.04431e-08
-2.1679e-07
4.06032e-08
-2.30843e-07
4.06393e-08
-2.44873e-07
4.05601e-08
-2.58843e-07
4.03743e-08
-2.72719e-07
4.00905e-08
-2.86471e-07
3.97171e-08
-3.00071e-07
3.92622e-08
-3.13492e-07
3.87336e-08
-3.26713e-07
3.81389e-08
-3.39713e-07
3.74853e-08
-3.52473e-07
3.67797e-08
-3.64977e-07
3.60286e-08
-3.77212e-07
3.52383e-08
-3.89166e-07
3.44146e-08
-4.00829e-07
3.3563e-08
-4.12193e-07
3.26885e-08
-4.23251e-07
3.17959e-08
-4.33997e-07
3.08898e-08
-4.44429e-07
2.9974e-08
-4.54544e-07
2.90523e-08
-4.64341e-07
2.81282e-08
-4.73819e-07
2.72048e-08
-4.8298e-07
2.62847e-08
-4.91825e-07
2.53705e-08
-5.00357e-07
2.44644e-08
-5.08578e-07
2.35683e-08
-5.16494e-07
2.2684e-08
-5.24107e-07
2.18127e-08
-5.31422e-07
2.09558e-08
-5.38445e-07
2.01142e-08
-5.45181e-07
1.92887e-08
-5.51636e-07
1.84799e-08
-5.57815e-07
1.76881e-08
-5.63723e-07
1.69136e-08
-5.69367e-07
1.61564e-08
-5.74753e-07
1.54165e-08
-5.79886e-07
1.46935e-08
-5.84772e-07
1.39872e-08
-5.89416e-07
1.3297e-08
-5.93823e-07
1.26223e-08
-5.97999e-07
1.19624e-08
-6.01947e-07
1.13165e-08
-6.05674e-07
1.06837e-08
-6.09181e-07
1.0063e-08
-6.12475e-07
9.45319e-09
-6.15556e-07
8.85328e-09
-6.1843e-07
8.26201e-09
-6.21097e-07
7.67809e-09
-6.2356e-07
7.10021e-09
-6.25821e-07
6.52697e-09
-6.27881e-07
5.95695e-09
-6.2974e-07
5.38869e-09
-6.31398e-07
4.82068e-09
-6.32855e-07
4.25139e-09
-6.34109e-07
3.67927e-09
-6.35161e-07
3.10275e-09
-6.36006e-07
2.52022e-09
-6.36643e-07
1.9301e-09
-6.37068e-07
1.33077e-09
-6.37279e-07
7.20649e-10
-6.3727e-07
9.81346e-11
-6.37036e-07
-5.38346e-10
-6.36574e-07
-1.19035e-09
-6.35876e-07
-1.85938e-09
-6.34936e-07
-2.54695e-09
-6.33748e-07
-3.25447e-09
-6.32305e-07
-3.98335e-09
-6.30598e-07
-4.7349e-09
-6.2862e-07
-5.51036e-09
-6.26362e-07
-6.31091e-09
-6.23815e-07
-7.1376e-09
-6.20971e-07
-7.99138e-09
-6.17819e-07
-8.8731e-09
-6.14351e-07
-9.78346e-09
-6.10556e-07
-1.0723e-08
-6.06424e-07
-1.16921e-08
-6.01946e-07
-1.2691e-08
-5.97111e-07
-1.37196e-08
-5.9191e-07
-1.47779e-08
-5.86332e-07
-1.58653e-08
-5.80369e-07
-1.69811e-08
-5.74012e-07
-1.81245e-08
-5.67251e-07
-1.92943e-08
-5.60079e-07
-2.04888e-08
-5.52488e-07
-2.17063e-08
-5.44471e-07
-2.29446e-08
-5.36023e-07
-2.42012e-08
-5.27138e-07
-2.54732e-08
-5.17813e-07
-2.67573e-08
-5.08046e-07
-2.805e-08
-4.97835e-07
-2.9347e-08
-4.87181e-07
-3.0644e-08
-4.76085e-07
-3.19361e-08
-4.64553e-07
-3.32178e-08
-4.5259e-07
-3.44835e-08
-4.40204e-07
-3.5727e-08
-4.27406e-07
-3.69415e-08
-4.14207e-07
-3.81201e-08
-4.00624e-07
-3.92552e-08
-3.86674e-07
-4.03389e-08
-3.72377e-07
-4.1363e-08
-3.57759e-07
-4.23189e-08
-3.42845e-07
-4.31975e-08
-3.27664e-07
-4.39895e-08
-3.12251e-07
-4.46854e-08
-2.96641e-07
-4.52754e-08
-2.80873e-07
-4.57495e-08
-2.64991e-07
-4.60977e-08
-2.49041e-07
-4.63097e-08
-2.33072e-07
-4.63756e-08
-2.17137e-07
-4.62852e-08
-2.01291e-07
-4.60288e-08
-1.85595e-07
-4.55967e-08
-1.70108e-07
-4.49799e-08
-1.54897e-07
-4.41697e-08
-1.40027e-07
-4.31583e-08
-1.25568e-07
-4.19387e-08
-1.1159e-07
-4.05051e-08
-9.81637e-08
-3.88531e-08
-8.53612e-08
-3.69799e-08
-7.32537e-08
-3.48852e-08
-6.19108e-08
-3.25713e-08
-5.13994e-08
-3.00442e-08
-4.17823e-08
-2.73146e-08
-3.31157e-08
-2.43987e-08
-2.54476e-08
-2.13208e-08
-1.88143e-08
-1.81151e-08
-1.32369e-08
-1.48291e-08
-8.71731e-09
-1.15281e-08
-5.23272e-09
-8.30059e-09
-2.72992e-09
-5.26595e-09
-1.1185e-09
-2.58433e-09
-2.63523e-10
-4.66927e-10
2.30891e-11
8.10381e-10
8.62093e-10
-1.10668e-10
-6.95774e-10
-6.94095e-10
-2.55932e-10
-1.94603e-09
1.47505e-09
-4.01421e-09
4.10768e-09
-7.00637e-09
7.35601e-09
-1.09953e-08
1.09958e-08
-1.60233e-08
1.48529e-08
-2.21072e-08
1.8794e-08
-2.92423e-08
2.27179e-08
-3.74065e-08
2.65488e-08
-4.65638e-08
3.02304e-08
-5.66675e-08
3.37219e-08
-6.76625e-08
3.69943e-08
-7.94879e-08
4.00279e-08
-9.20788e-08
4.28106e-08
-1.05367e-07
4.53358e-08
-1.19285e-07
4.76015e-08
-1.33762e-07
4.96091e-08
-1.4873e-07
5.1363e-08
-1.64121e-07
5.28694e-08
-1.7987e-07
5.41367e-08
-1.95914e-07
5.51741e-08
-2.1219e-07
5.59919e-08
-2.28641e-07
5.66014e-08
-2.45212e-07
5.7014e-08
-2.6185e-07
5.72415e-08
-2.78507e-07
5.72959e-08
-2.95136e-07
5.71893e-08
-3.11695e-07
5.69336e-08
-3.28145e-07
5.65406e-08
-3.4445e-07
5.60218e-08
-3.60576e-07
5.53884e-08
-3.76494e-07
5.46514e-08
-3.92176e-07
5.38212e-08
-4.07599e-07
5.29078e-08
-4.2274e-07
5.19209e-08
-4.37581e-07
5.08696e-08
-4.52105e-07
4.97626e-08
-4.66299e-07
4.8608e-08
-4.80149e-07
4.74135e-08
-4.93647e-07
4.61863e-08
-5.06784e-07
4.49331e-08
-5.19555e-07
4.366e-08
-5.31953e-07
4.23728e-08
-5.43978e-07
4.10767e-08
-5.55626e-07
3.97765e-08
-5.66898e-07
3.84766e-08
-5.77794e-07
3.71809e-08
-5.88316e-07
3.58928e-08
-5.98468e-07
3.46156e-08
-6.08251e-07
3.3352e-08
-6.17672e-07
3.21043e-08
-6.26734e-07
3.08746e-08
-6.35442e-07
2.96646e-08
-6.43804e-07
2.84757e-08
-6.51824e-07
2.73091e-08
-6.5951e-07
2.61654e-08
-6.66867e-07
2.50454e-08
-6.73903e-07
2.39493e-08
-6.80624e-07
2.28773e-08
-6.87036e-07
2.18293e-08
-6.93148e-07
2.08048e-08
-6.98964e-07
1.98035e-08
-7.04492e-07
1.88246e-08
-7.09737e-07
1.78673e-08
-7.14705e-07
1.69306e-08
-7.19402e-07
1.60134e-08
-7.23832e-07
1.51144e-08
-7.28002e-07
1.42322e-08
-7.31914e-07
1.33653e-08
-7.35573e-07
1.25121e-08
-7.38982e-07
1.1671e-08
-7.42144e-07
1.08401e-08
-7.45061e-07
1.00176e-08
-7.47735e-07
9.20151e-09
-7.50168e-07
8.3899e-09
-7.5236e-07
7.58071e-09
-7.54312e-07
6.77183e-09
-7.56021e-07
5.96113e-09
-7.57489e-07
5.14643e-09
-7.58711e-07
4.32553e-09
-7.59687e-07
3.49621e-09
-7.60413e-07
2.65624e-09
-7.60886e-07
1.80338e-09
-7.61101e-07
9.35402e-10
-7.61053e-07
5.00893e-11
-7.60736e-07
-8.54754e-10
-7.60145e-07
-1.78129e-09
-7.59273e-07
-2.73164e-09
-7.58112e-07
-3.70786e-09
-7.56655e-07
-4.71196e-09
-7.54892e-07
-5.74585e-09
-7.52816e-07
-6.81137e-09
-7.50416e-07
-7.91025e-09
-7.47683e-07
-9.04407e-09
-7.44606e-07
-1.02143e-08
-7.41175e-07
-1.14223e-08
-7.37379e-07
-1.26691e-08
-7.33207e-07
-1.39558e-08
-7.28647e-07
-1.5283e-08
-7.23688e-07
-1.66513e-08
-7.18318e-07
-1.80608e-08
-7.12526e-07
-1.95117e-08
-7.063e-07
-2.10036e-08
-6.99629e-07
-2.25358e-08
-6.92503e-07
-2.41074e-08
-6.84911e-07
-2.5717e-08
-6.76842e-07
-2.73628e-08
-6.68288e-07
-2.90427e-08
-6.5924e-07
-3.07542e-08
-6.49691e-07
-3.24941e-08
-6.39633e-07
-3.42588e-08
-6.29062e-07
-3.60444e-08
-6.17973e-07
-3.78462e-08
-6.06364e-07
-3.96591e-08
-5.94233e-07
-4.14774e-08
-5.81583e-07
-4.32948e-08
-5.68414e-07
-4.51044e-08
-5.54733e-07
-4.68988e-08
-5.40547e-07
-4.86699e-08
-5.25865e-07
-5.0409e-08
-5.10699e-07
-5.21069e-08
-4.95066e-07
-5.37536e-08
-4.78982e-07
-5.53388e-08
-4.6247e-07
-5.68514e-08
-4.45553e-07
-5.828e-08
-4.28259e-07
-5.96125e-08
-4.1062e-07
-6.08364e-08
-3.92671e-07
-6.19388e-08
-3.7445e-07
-6.29066e-08
-3.55999e-07
-6.37262e-08
-3.37365e-07
-6.43837e-08
-3.18597e-07
-6.48654e-08
-2.9975e-07
-6.51572e-08
-2.8088e-07
-6.52454e-08
-2.62049e-07
-6.51161e-08
-2.43322e-07
-6.47561e-08
-2.24766e-07
-6.41523e-08
-2.06453e-07
-6.32926e-08
-1.88457e-07
-6.21654e-08
-1.70855e-07
-6.07603e-08
-1.53726e-07
-5.90684e-08
-1.37149e-07
-5.70822e-08
-1.21205e-07
-5.47965e-08
-1.05977e-07
-5.22084e-08
-9.15432e-08
-4.93186e-08
-7.79831e-08
-4.61314e-08
-6.53712e-08
-4.26562e-08
-5.37771e-08
-3.89087e-08
-4.32632e-08
-3.49125e-08
-3.38827e-08
-3.07013e-08
-2.5676e-08
-2.63218e-08
-1.86678e-08
-2.18372e-08
-1.28636e-08
-1.73324e-08
-8.24446e-09
-1.29197e-08
-4.7634e-09
-8.74701e-09
-2.33979e-09
-5.00794e-09
-8.54727e-10
-1.95199e-09
-1.45923e-10
1.01582e-10
7.16173e-10
-2.68839e-10
-4.26939e-10
-1.25581e-09
7.31047e-10
-3.11154e-09
3.33078e-09
-5.95426e-09
6.95039e-09
-9.87135e-09
1.12731e-08
-1.49214e-08
1.60459e-08
-2.11369e-08
2.10684e-08
-2.85273e-08
2.61844e-08
-3.70823e-08
3.12729e-08
-4.67749e-08
3.62414e-08
-5.75644e-08
4.10199e-08
-6.93992e-08
4.55567e-08
-8.22192e-08
4.98143e-08
-9.5958e-08
5.37667e-08
-1.10544e-07
5.73971e-08
-1.25905e-07
6.06961e-08
-1.41963e-07
6.36599e-08
-1.58643e-07
6.62894e-08
-1.7587e-07
6.85894e-08
-1.93568e-07
7.05673e-08
-2.11664e-07
7.2233e-08
-2.30088e-07
7.35982e-08
-2.48772e-07
7.46758e-08
-2.6765e-07
7.54799e-08
-2.86662e-07
7.60251e-08
-3.05747e-07
7.63266e-08
-3.24851e-07
7.64e-08
-3.43922e-07
7.62608e-08
-3.62913e-07
7.59244e-08
-3.81779e-07
7.54063e-08
-4.00478e-07
7.47214e-08
-4.18975e-07
7.38845e-08
-4.37233e-07
7.29098e-08
-4.55223e-07
7.18112e-08
-4.72917e-07
7.06017e-08
-4.9029e-07
6.92942e-08
-5.07321e-07
6.79005e-08
-5.23991e-07
6.64323e-08
-5.40283e-07
6.49003e-08
-5.56184e-07
6.33145e-08
-5.71682e-07
6.16846e-08
-5.86769e-07
6.00194e-08
-6.01436e-07
5.83272e-08
-6.15678e-07
5.66154e-08
-6.29493e-07
5.48911e-08
-6.42877e-07
5.31607e-08
-6.55831e-07
5.143e-08
-6.68354e-07
4.97042e-08
-6.80449e-07
4.7988e-08
-6.92119e-07
4.62856e-08
-7.03368e-07
4.46006e-08
-7.142e-07
4.29363e-08
-7.2462e-07
4.12953e-08
-7.34636e-07
3.968e-08
-7.44252e-07
3.80923e-08
-7.53477e-07
3.65336e-08
-7.62316e-07
3.50051e-08
-7.70779e-07
3.35076e-08
-7.78871e-07
3.20416e-08
-7.86601e-07
3.06072e-08
-7.93976e-07
2.92043e-08
-8.01003e-07
2.78324e-08
-8.07691e-07
2.6491e-08
-8.14046e-07
2.51792e-08
-8.20074e-07
2.38958e-08
-8.25783e-07
2.26395e-08
-8.31179e-07
2.1409e-08
-8.36266e-07
2.02024e-08
-8.41052e-07
1.9018e-08
-8.45541e-07
1.78537e-08
-8.49736e-07
1.67076e-08
-8.53642e-07
1.55773e-08
-8.57263e-07
1.44605e-08
-8.606e-07
1.33548e-08
-8.63656e-07
1.22575e-08
-8.66432e-07
1.11661e-08
-8.68929e-07
1.00778e-08
-8.71148e-07
8.98996e-09
-8.73086e-07
7.89962e-09
-8.74744e-07
6.80397e-09
-8.76118e-07
5.70009e-09
-8.77207e-07
4.58505e-09
-8.78007e-07
3.4559e-09
-8.78513e-07
2.30969e-09
-8.78721e-07
1.14349e-09
-8.78625e-07
-4.56467e-11
-8.78219e-07
-1.2606e-09
-8.77497e-07
-2.50422e-09
-8.76449e-07
-3.77929e-09
-8.75068e-07
-5.08853e-09
-8.73346e-07
-6.43458e-09
-8.71271e-07
-7.81995e-09
-8.68836e-07
-9.24705e-09
-8.66028e-07
-1.07181e-08
-8.62837e-07
-1.22353e-08
-8.59251e-07
-1.38004e-08
-8.55258e-07
-1.54152e-08
-8.50846e-07
-1.70812e-08
-8.46002e-07
-1.87995e-08
-8.40714e-07
-2.05712e-08
-8.34968e-07
-2.23969e-08
-8.28752e-07
-2.42768e-08
-8.22053e-07
-2.62109e-08
-8.14858e-07
-2.81988e-08
-8.07154e-07
-3.02395e-08
-7.9893e-07
-3.23317e-08
-7.90173e-07
-3.44736e-08
-7.80873e-07
-3.66628e-08
-7.71019e-07
-3.88965e-08
-7.60603e-07
-4.11711e-08
-7.49614e-07
-4.34825e-08
-7.38047e-07
-4.58262e-08
-7.25895e-07
-4.81965e-08
-7.13154e-07
-5.05874e-08
-6.9982e-07
-5.29922e-08
-6.85895e-07
-5.54031e-08
-6.71378e-07
-5.7812e-08
-6.56272e-07
-6.02097e-08
-6.40585e-07
-6.25863e-08
-6.24324e-07
-6.49312e-08
-6.075e-07
-6.72329e-08
-5.90127e-07
-6.94792e-08
-5.72224e-07
-7.1657e-08
-5.5381e-07
-7.37526e-08
-5.3491e-07
-7.57515e-08
-5.15551e-07
-7.76387e-08
-4.95766e-07
-7.93982e-08
-4.75588e-07
-8.10137e-08
-4.55059e-07
-8.24682e-08
-4.34221e-07
-8.37445e-08
-4.13122e-07
-8.48248e-08
-3.91815e-07
-8.56911e-08
-3.70355e-07
-8.63254e-08
-3.48803e-07
-8.67094e-08
-3.27223e-07
-8.68252e-08
-3.05684e-07
-8.6655e-08
-2.84259e-07
-8.61816e-08
-2.63023e-07
-8.53884e-08
-2.42055e-07
-8.42597e-08
-2.2144e-07
-8.27809e-08
-2.01261e-07
-8.09392e-08
-1.81606e-07
-7.87233e-08
-1.62564e-07
-7.61244e-08
-1.44224e-07
-7.31365e-08
-1.26675e-07
-6.97569e-08
-1.10007e-07
-6.59875e-08
-9.43029e-08
-6.1835e-08
-7.96462e-08
-5.73129e-08
-6.61124e-08
-5.24425e-08
-5.37699e-08
-4.7255e-08
-4.2677e-08
-4.17942e-08
-3.28795e-08
-3.61193e-08
-2.44075e-08
-3.03092e-08
-1.72725e-08
-2.44675e-08
-1.14637e-08
-1.87285e-08
-6.94493e-09
-1.32658e-08
-3.65151e-09
-8.30136e-09
-1.48751e-09
-4.11598e-09
-3.24303e-10
-1.06163e-09
3.91873e-10
-4.29637e-10
2.69324e-12
-1.83476e-09
2.13617e-09
-4.31991e-09
5.81593e-09
-7.97015e-09
1.06006e-08
-1.28484e-08
1.61514e-08
-1.89954e-08
2.21928e-08
-2.643e-08
2.85031e-08
-3.51516e-08
3.4906e-08
-4.51419e-08
4.12632e-08
-5.63673e-08
4.74667e-08
-6.87812e-08
5.34339e-08
-8.23267e-08
5.91022e-08
-9.69383e-08
6.44259e-08
-1.12544e-07
6.93725e-08
-1.29068e-07
7.39206e-08
-1.46429e-07
7.80574e-08
-1.64547e-07
8.17775e-08
-1.83338e-07
8.50811e-08
-2.02722e-07
8.7973e-08
-2.22617e-07
9.04619e-08
-2.42943e-07
9.25594e-08
-2.63624e-07
9.42794e-08
-2.84586e-07
9.56375e-08
-3.05757e-07
9.6651e-08
-3.2707e-07
9.73378e-08
-3.4846e-07
9.77168e-08
-3.69867e-07
9.7807e-08
-3.91234e-07
9.76279e-08
-4.12508e-07
9.71988e-08
-4.33641e-07
9.65389e-08
-4.54587e-07
9.56671e-08
-4.75304e-07
9.46018e-08
-4.95755e-07
9.3361e-08
-5.15906e-07
9.1962e-08
-5.35726e-07
9.04217e-08
-5.55188e-07
8.87559e-08
-5.74267e-07
8.698e-08
-5.92943e-07
8.51084e-08
-6.11198e-07
8.31548e-08
-6.29015e-07
8.11322e-08
-6.46383e-07
7.90525e-08
-6.63291e-07
7.69272e-08
-6.7973e-07
7.47666e-08
-6.95695e-07
7.25804e-08
-7.11182e-07
7.03776e-08
-7.26187e-07
6.81663e-08
-7.40711e-07
6.59539e-08