/*--------------------------------*- C++ -*----------------------------------*\
  =========                 |
  \\      /  F ield         | OpenFOAM: The Open Source CFD Toolbox
   \\    /   O peration     | Website:  https://openfoam.org
    \\  /    A nd           | Version:  7
     \\/     M anipulation  |
\*---------------------------------------------------------------------------*/
FoamFile
{
    version     2.0;
    format      ascii;
    class       volScalarField;
    location    "0.4625";
    object      p;
}
// * * * * * * * * * * * * * * * * * * * * * * * * * * * * * * * * * * * * * //

dimensions      [0 2 -2 0 0 0 0];

internalField   nonuniform List<scalar> 
12800
(
-1.47257e-06
0.000179515
-0.000905912
-0.00335027
-0.0069085
-0.0113338
-0.0163929
-0.0218723
-0.0275855
-0.033372
-0.0390959
-0.0446415
-0.0499118
-0.054825
-0.0593133
-0.0633206
-0.0668011
-0.0697182
-0.072043
-0.0737537
-0.0748345
-0.075275
-0.0750693
-0.074216
-0.0727167
-0.0705766
-0.0678033
-0.0644068
-0.0603989
-0.0557932
-0.0506047
-0.0448493
-0.0385441
-0.0317065
-0.0243549
-0.0165076
-0.00818331
0.000599143
0.00982106
0.0194639
0.0295092
0.039939
0.0507355
0.0618816
0.0733603
0.0851555
0.0972515
0.109633
0.122285
0.135195
0.148348
0.161732
0.175334
0.189144
0.203151
0.217343
0.231712
0.246248
0.260943
0.275789
0.290778
0.305904
0.321159
0.336538
0.352035
0.367645
0.383364
0.399187
0.415109
0.431128
0.44724
0.463441
0.479729
0.496101
0.512554
0.529086
0.545695
0.562378
0.579133
0.595959
0.612852
0.629812
0.646835
0.663918
0.681061
0.698259
0.71551
0.732811
0.750158
0.767547
0.784975
0.802435
0.819924
0.837436
0.854964
0.872502
0.890043
0.907578
0.925099
0.942596
0.960059
0.977477
0.994838
1.01213
1.02934
1.04645
1.06345
1.08031
1.09703
1.11358
1.12995
1.14611
1.16205
1.17773
1.19314
1.20825
1.22304
1.23748
1.25155
1.26521
1.27844
1.29121
1.3035
1.31526
1.32649
1.33714
1.34719
1.35661
1.36538
1.37347
1.38085
1.3875
1.39341
1.39854
1.4029
1.40646
1.40921
1.41115
1.41227
1.41259
1.41211
1.41083
1.40879
1.40602
1.40254
1.39841
1.39367
1.38841
1.38269
1.37662
1.37031
1.36389
1.35752
1.35139
1.34569
1.34069
1.33664
1.33383
1.33255
1.33271
-0.000184679
-1.74211e-06
-0.00100481
-0.00313728
-0.00617537
-0.00994363
-0.0142683
-0.0189787
-0.0239183
-0.0289478
-0.0339451
-0.0388041
-0.0434337
-0.0477559
-0.0517047
-0.0552248
-0.0582704
-0.0608037
-0.0627949
-0.0642202
-0.065062
-0.0653077
-0.0649493
-0.0639827
-0.0624075
-0.0602263
-0.0574442
-0.0540689
-0.0501099
-0.0455784
-0.0404873
-0.0348503
-0.0286823
-0.0219989
-0.0148165
-0.00715159
0.000978738
0.00955735
0.018567
0.0279906
0.0378111
0.0480116
0.0585756
0.0694869
0.0807295
0.0922882
0.104148
0.116294
0.128713
0.141392
0.154316
0.167475
0.180856
0.194448
0.208241
0.222224
0.236388
0.250723
0.265222
0.279876
0.294678
0.309621
0.324698
0.339903
0.35523
0.370675
0.386231
0.401895
0.417661
0.433527
0.449489
0.465542
0.481683
0.49791
0.51422
0.530609
0.547076
0.563617
0.58023
0.596913
0.613662
0.630475
0.64735
0.664284
0.681274
0.698316
0.715407
0.732544
0.749723
0.766939
0.784188
0.801465
0.818765
0.836081
0.853406
0.870735
0.888059
0.905371
0.92266
0.939919
0.957135
0.974299
0.991398
1.00842
1.02535
1.04218
1.05888
1.07545
1.09186
1.1081
1.12415
1.13999
1.15559
1.17095
1.18602
1.2008
1.21526
1.22936
1.2431
1.25643
1.26934
1.2818
1.29378
1.30525
1.31619
1.32658
1.33638
1.34557
1.35414
1.36204
1.36927
1.3758
1.38161
1.38669
1.39103
1.39461
1.39743
1.39948
1.40077
1.4013
1.40108
1.40013
1.39847
1.39614
1.39316
1.38958
1.38547
1.38088
1.37591
1.37062
1.36515
1.3596
1.35411
1.34886
1.34401
1.33977
1.33632
1.33389
1.33271
1.33288
0.0008991
0.00100213
-1.61482e-06
-0.00198602
-0.0047359
-0.00810902
-0.0119652
-0.0161626
-0.020568
-0.0250598
-0.0295292
-0.0338796
-0.0380268
-0.0418976
-0.0454292
-0.0485681
-0.0512696
-0.0534962
-0.0552176
-0.0564098
-0.0570538
-0.057136
-0.0566469
-0.0555809
-0.0539358
-0.0517126
-0.0489148
-0.0455481
-0.0416203
-0.037141
-0.0321211
-0.0265729
-0.0205096
-0.0139452
-0.00689461
0.000627079
0.00860421
0.0170209
0.0258613
0.0351092
0.0447488
0.0547643
0.0651399
0.0758604
0.0869107
0.0982762
0.109942
0.121896
0.134123
0.14661
0.159346
0.172318
0.185515
0.198926
0.21254
0.226348
0.24034
0.254507
0.268841
0.283334
0.297978
0.312766
0.327692
0.34275
0.357932
0.373235
0.388652
0.40418
0.419813
0.435548
0.451379
0.467305
0.48332
0.499423
0.515608
0.531874
0.548218
0.564636
0.581126
0.597684
0.614309
0.630996
0.647743
0.664548
0.681405
0.698313
0.715267
0.732263
0.749297
0.766365
0.783462
0.800582
0.81772
0.83487
0.852024
0.869176
0.886317
0.90344
0.920535
0.937593
0.954604
0.971555
0.988436
1.00523
1.02193
1.03852
1.05498
1.07131
1.08747
1.10345
1.11924
1.13482
1.15016
1.16524
1.18005
1.19455
1.20874
1.22258
1.23604
1.24912
1.26177
1.27398
1.28571
1.29696
1.30768
1.31786
1.32747
1.33648
1.34489
1.35265
1.35976
1.3662
1.37195
1.377
1.38133
1.38494
1.38782
1.38997
1.3914
1.39211
1.39211
1.39142
1.39007
1.38808
1.38549
1.38235
1.37871
1.37465
1.37022
1.36552
1.36064
1.35571
1.35084
1.34617
1.34187
1.33808
1.33497
1.33271
1.33154
1.3316
0.00334486
0.00313775
0.00198116
-8.45004e-06
-0.00265176
-0.00582512
-0.00940859
-0.0132815
-0.0173292
-0.0214454
-0.0255335
-0.0295067
-0.033288
-0.0368097
-0.0400132
-0.0428478
-0.0452706
-0.0472456
-0.0487429
-0.0497386
-0.0502137
-0.0501539
-0.049549
-0.0483925
-0.0466811
-0.0444146
-0.0415952
-0.0382275
-0.0343179
-0.0298746
-0.0249072
-0.0194267
-0.013445
-0.00697491
-2.99057e-05
0.00737594
0.0152282
0.023512
0.0322125
0.0413147
0.0508034
0.0606638
0.0708811
0.0814406
0.092328
0.103529
0.115031
0.126819
0.138881
0.151205
0.163778
0.176589
0.189626
0.202879
0.216338
0.229993
0.243835
0.257854
0.272043
0.286394
0.300898
0.31555
0.330341
0.345267
0.360321
0.375497
0.39079
0.406196
0.421709
0.437325
0.45304
0.46885
0.484751
0.50074
0.516814
0.532968
0.5492
0.565506
0.581884
0.59833
0.614841
0.631413
0.648045
0.664731
0.681469
0.698255
0.715085
0.731954
0.748859
0.765794
0.782754
0.799734
0.816728
0.833729
0.850731
0.867726
0.884706
0.901663
0.918588
0.935471
0.952301
0.969067
0.985758
1.00236
1.01886
1.03525
1.0515
1.06761
1.08356
1.09932
1.11489
1.13024
1.14536
1.16022
1.1748
1.18908
1.20304
1.21665
1.2299
1.24275
1.2552
1.2672
1.27874
1.28979
1.30034
1.31035
1.3198
1.32868
1.33696
1.34462
1.35164
1.35802
1.36372
1.36875
1.37309
1.37673
1.37967
1.38191
1.38346
1.38432
1.38451
1.38403
1.38293
1.38122
1.37895
1.37616
1.37289
1.36922
1.36521
1.36094
1.3565
1.35199
1.34753
1.34324
1.33925
1.33569
1.33271
1.33045
1.3291
1.3288
0.0069153
0.00618773
0.00473441
0.00262278
-3.11414e-05
-0.00312133
-0.00654469
-0.0101995
-0.013988
-0.0178184
-0.0216058
-0.0252732
-0.0287511
-0.031978
-0.0348999
-0.0374696
-0.0396467
-0.0413972
-0.0426923
-0.0435087
-0.0438277
-0.043635
-0.04292
-0.0416756
-0.039898
-0.037586
-0.0347409
-0.0313661
-0.0274672
-0.0230511
-0.0181264
-0.0127028
-0.00679121
-0.000403236
0.00644868
0.0137516
0.021492
0.0296561
0.0382301
0.0471996
0.0565506
0.0662689
0.0763405
0.0867514
0.0974881
0.108537
0.119885
0.131519
0.143427
0.155597
0.168017
0.180676
0.193563
0.206667
0.219979
0.233488
0.247187
0.261066
0.275116
0.28933
0.303701
0.318221
0.332883
0.347682
0.362611
0.377665
0.392837
0.408124
0.42352
0.439021
0.454622
0.470319
0.486109
0.501987
0.51795
0.533995
0.550117
0.566313
0.582581
0.598916
0.615316
0.631776
0.648294
0.664865
0.681486
0.698153
0.714861
0.731607
0.748385
0.76519
0.782018
0.798862
0.815717
0.832575
0.84943
0.866274
0.8831
0.899898
0.916659
0.933375
0.950033
0.966624
0.983135
0.999554
1.01587
1.03206
1.04812
1.06403
1.07978
1.09534
1.1107
1.12585
1.14076
1.15541
1.16978
1.18385
1.1976
1.21102
1.22406
1.23672
1.24897
1.26079
1.27216
1.28304
1.29343
1.30329
1.31261
1.32137
1.32954
1.33712
1.34407
1.35039
1.35606
1.36108
1.36543
1.36911
1.37211
1.37444
1.3761
1.3771
1.37746
1.37718
1.3763
1.37484
1.37284
1.37035
1.3674
1.36406
1.36039
1.35647
1.35237
1.34819
1.34403
1.33999
1.33618
1.33272
1.32973
1.32734
1.32565
1.32475
0.0113743
0.00998469
0.0081225
0.00579007
0.00302591
-8.06647e-05
-0.00344111
-0.00697096
-0.010588
-0.0142136
-0.0177743
-0.0212023
-0.0244361
-0.0274204
-0.030106
-0.0324498
-0.0344145
-0.0359681
-0.0370837
-0.037739
-0.037916
-0.0376007
-0.0367826
-0.0354545
-0.033612
-0.0312534
-0.0283794
-0.0249928
-0.0210979
-0.0167011
-0.01181
-0.00643323
-0.000580749
0.00573674
0.0125078
0.0197203
0.0273619
0.0354195
0.0438802
0.0527304
0.061957
0.0715464
0.0814854
0.0917606
0.102359
0.113268
0.124474
0.135966
0.147732
0.159759
0.172036
0.184553
0.197299
0.210264
0.223437
0.23681
0.250373
0.264119
0.278038
0.292122
0.306366
0.32076
0.335299
0.349977
0.364786
0.379722
0.394779
0.409951
0.425234
0.440623
0.456114
0.471702
0.487383
0.503154
0.51901
0.534947
0.550962
0.567052
0.583212
0.59944
0.61573
0.632081
0.648488
0.664947
0.681454
0.698006
0.714596
0.731222
0.747878
0.764558
0.781258
0.797972
0.814693
0.831414
0.848129
0.864829
0.881507
0.898155
0.914762
0.931319
0.947816
0.964241
0.980584
0.996831
1.01297
1.02899
1.04486
1.06059
1.07615
1.09153
1.1067
1.12166
1.13637
1.15083
1.16502
1.1789
1.19247
1.2057
1.21857
1.23105
1.24313
1.25479
1.266
1.27674
1.28699
1.29672
1.30593
1.31458
1.32267
1.33016
1.33706
1.34334
1.34899
1.35401
1.35837
1.36209
1.36516
1.36757
1.36934
1.37047
1.37097
1.37087
1.37019
1.36895
1.36719
1.36494
1.36226
1.35919
1.3558
1.35214
1.3483
1.34435
1.34039
1.33649
1.33276
1.32928
1.32618
1.32353
1.32138
1.31973
0.0165007
0.0143638
0.0120123
0.00937958
0.00642192
0.0032138
-0.00016849
-0.00365598
-0.00718049
-0.0106756
-0.0140782
-0.0173297
-0.0203759
-0.0231679
-0.0256617
-0.0278184
-0.0296039
-0.0309889
-0.0319485
-0.0324618
-0.0325119
-0.0320855
-0.0311725
-0.0297657
-0.0278607
-0.0254555
-0.0225504
-0.0191476
-0.015251
-0.0108661
-0.00599981
-0.000660084
0.005144
0.0114025
0.0181049
0.0252398
0.0327956
0.0407602
0.0491212
0.0578659
0.0669818
0.0764561
0.0862761
0.0964291
0.106903
0.117685
0.128762
0.140125
0.151759
0.163656
0.175802
0.188188
0.200804
0.213639
0.226684
0.239929
0.253367
0.266987
0.280783
0.294746
0.30887
0.323146
0.337568
0.352131
0.366827
0.38165
0.396597
0.41166
0.426835
0.442117
0.457502
0.472986
0.488563
0.504229
0.519982
0.535816
0.551728
0.567714
0.583771
0.599894
0.616081
0.632326
0.648626
0.664977
0.681374
0.697814
0.714292
0.730803
0.747341
0.763903
0.780481
0.79707
0.813663
0.830255
0.846836
0.863401
0.879941
0.896446
0.912908
0.929318
0.945664
0.961936
0.978122
0.994209
1.01019
1.02604
1.04175
1.05731
1.0727
1.08791
1.10291
1.11769
1.13224
1.14653
1.16054
1.17426
1.18766
1.20073
1.21344
1.22577
1.23771
1.24922
1.2603
1.27091
1.28104
1.29067
1.29978
1.30835
1.31636
1.3238
1.33065
1.33691
1.34255
1.34757
1.35196
1.35572
1.35884
1.36133
1.3632
1.36445
1.36509
1.36514
1.36463
1.36357
1.362
1.35996
1.35749
1.35464
1.35145
1.348
1.34433
1.34054
1.33667
1.33282
1.32907
1.32549
1.32216
1.31918
1.31649
1.31399
0.0220931
0.0191632
0.0162689
0.0132764
0.0100602
0.00668227
0.00320873
-0.00030522
-0.00380401
-0.00723219
-0.0105364
-0.0136664
-0.0165754
-0.0192204
-0.0215628
-0.0235677
-0.0252048
-0.0264475
-0.0272732
-0.0276627
-0.0276005
-0.0270742
-0.0260743
-0.0245941
-0.0226294
-0.020178
-0.0172402
-0.0138178
-0.0099143
-0.00553476
-0.000685452
0.0046262
0.0103918
0.0166021
0.0232471
0.0303164
0.0377988
0.0456829
0.0539571
0.0626094
0.0716278
0.0810001
0.0907142
0.100758
0.11112
0.121787
0.132749
0.143993
0.155509
0.167286
0.179313
0.191579
0.204075
0.21679
0.229716
0.242844
0.256164
0.269669
0.28335
0.297199
0.31121
0.325375
0.339688
0.354141
0.36873
0.383448
0.398289
0.413249
0.428321
0.443501
0.458785
0.474168
0.489645
0.505212
0.520865
0.5366
0.552413
0.5683
0.584257
0.600281
0.616366
0.632509
0.648706
0.664953
0.681246
0.697579
0.713949
0.730349
0.746776
0.763223
0.779685
0.796156
0.812629
0.829097
0.845554
0.861991
0.8784
0.894772
0.911099
0.927371
0.943577
0.959706
0.975747
0.991688
1.00752
1.02322
1.03878
1.05419
1.06942
1.08448
1.09932
1.11395
1.12835
1.14248
1.15635
1.16992
1.18317
1.1961
1.20867
1.22087
1.23268
1.24407
1.25503
1.26554
1.27557
1.28512
1.29415
1.30265
1.31061
1.318
1.32483
1.33106
1.3367
1.34173
1.34615
1.34995
1.35314
1.35571
1.35766
1.35901
1.35978
1.35996
1.35959
1.35869
1.35728
1.35541
1.3531
1.35041
1.34738
1.34405
1.3405
1.33678
1.33294
1.32907
1.32521
1.32144
1.31783
1.31445
1.31115
1.30777
0.0279764
0.0242347
0.0207652
0.0173707
0.013847
0.0102459
0.00662542
0.00302865
-0.000500061
-0.00391513
-0.00717205
-0.0102283
-0.0130441
-0.0155823
-0.0178092
-0.0196945
-0.0212112
-0.0223357
-0.0230479
-0.0233306
-0.0231698
-0.0225543
-0.0214754
-0.0199271
-0.0179054
-0.0154086
-0.0124369
-0.00899183
-0.00507689
-0.000696729
0.00414276
0.00943459
0.0151709
0.0213429
0.0279413
0.034956
0.0423767
0.0501924
0.0583921
0.0669644
0.0758979
0.0851808
0.0948016
0.104749
0.115011
0.125576
0.136433
0.147572
0.158981
0.170649
0.182567
0.194724
0.20711
0.219716
0.232533
0.245552
0.258764
0.272161
0.285735
0.299479
0.313385
0.327446
0.341655
0.356007
0.370495
0.385112
0.399854
0.414715
0.42969
0.444774
0.459961
0.475248
0.49063
0.506102
0.52166
0.5373
0.553018
0.568809
0.584671
0.600598
0.616586
0.632632
0.64873
0.664878
0.681069
0.6973
0.713566
0.729862
0.746182
0.762521
0.778872
0.795231
0.81159
0.827942
0.844281
0.860597
0.876884
0.893133
0.909333
0.925477
0.941553
0.957551
0.973459
0.989265
1.00496
1.02052
1.03595
1.05122
1.06631
1.08123
1.09594
1.11043
1.12469
1.13869
1.15242
1.16586
1.17899
1.1918
1.20425
1.21634
1.22804
1.23933
1.2502
1.26062
1.27057
1.28004
1.28901
1.29746
1.30538
1.31275
1.31955
1.32578
1.33143
1.33648
1.34093
1.34478
1.34802
1.35066
1.3527
1.35415
1.35501
1.35531
1.35506
1.35429
1.35301
1.35127
1.34909
1.34651
1.34357
1.34033
1.33683
1.33312
1.32925
1.32528
1.32127
1.31725
1.3133
1.30948
1.30554
1.30125
0.0339994
0.0294457
0.0253846
0.02156
0.0176931
0.013828
0.0100165
0.00629126
0.00268664
-0.000760496
-0.00401362
-0.00703742
-0.00979834
-0.012265
-0.0144085
-0.0162027
-0.0176243
-0.0186526
-0.0192701
-0.0194616
-0.0192149
-0.0185201
-0.0173696
-0.0157582
-0.0136825
-0.011141
-0.00813426
-0.00466394
-0.000733354
0.00365296
0.00848934
0.0137691
0.0194848
0.025628
0.0321898
0.0391608
0.0465308
0.0542897
0.0624267
0.070931
0.0797916
0.0889973
0.098537
0.1084
0.118574
0.129049
0.139814
0.150858
0.162171
0.173742
0.185562
0.19762
0.209907
0.222413
0.235131
0.24805
0.261162
0.27446
0.287936
0.301582
0.31539
0.329355
0.343468
0.357724
0.372117
0.386641
0.40129
0.416058
0.43094
0.445932
0.461028
0.476224
0.491514
0.506896
0.522363
0.537913
0.55354
0.56924
0.58501
0.600845
0.61674
0.632692
0.648697
0.664749
0.680844
0.696978
0.713145
0.729341
0.745559
0.761795
0.778043
0.794295
0.810546
0.82679
0.843017
0.859221
0.875394
0.891527
0.907611
0.923636
0.939592
0.955468
0.971254
0.986938
1.00251
1.01795
1.03325
1.04839
1.06337
1.07816
1.09275
1.10712
1.12125
1.13514
1.14876
1.16209
1.17511
1.18781
1.20017
1.21216
1.22377
1.23498
1.24577
1.25612
1.26601
1.27543
1.28436
1.29277
1.30066
1.30802
1.31481
1.32105
1.32671
1.33179
1.33628
1.34017
1.34347
1.34618
1.3483
1.34983
1.35079
1.35119
1.35104
1.35037
1.34919
1.34754
1.34545
1.34295
1.34007
1.33686
1.33336
1.32961
1.32566
1.32155
1.31732
1.31301
1.30868
1.30438
1.29979
1.29462
0.0400336
0.0346791
0.0300213
0.0257493
0.0215145
0.0173553
0.0133187
0.00942846
0.00571048
0.00219382
-0.0010921
-0.00411849
-0.00685765
-0.00928345
-0.0113716
-0.0131001
-0.014449
-0.0154008
-0.0159404
-0.0160549
-0.0157339
-0.0149689
-0.0137536
-0.0120836
-0.0099564
-0.00737106
-0.00432825
-0.000830045
0.00312018
0.00751792
0.0123576
0.0176328
0.0233361
0.0294595
0.0359946
0.042932
0.0502622
0.0579753
0.066061
0.0745089
0.0833084
0.0924488
0.101919
0.111709
0.121808
0.132204
0.142888
0.15385
0.165078
0.176563
0.188295
0.200264
0.212462
0.224879
0.237506
0.250334
0.263356
0.276564
0.289949
0.303505
0.317224
0.331099
0.345123
0.359291
0.373595
0.388031
0.402592
0.417273
0.432069
0.446974
0.461984
0.477093
0.492298
0.507593
0.522974
0.538437
0.553978
0.569591
0.585274
0.601021
0.616828
0.632691
0.648605
0.664567
0.68057
0.696611
0.712685
0.728786
0.744908
0.761047
0.777195
0.793348
0.809498
0.825639
0.841763
0.857862
0.873929
0.889954
0.90593
0.921846
0.937692
0.953458
0.969133
0.984705
1.00016
1.01549
1.03068
1.04571
1.06058
1.07526
1.08974
1.10401
1.11804
1.13183
1.14535
1.15858
1.17152
1.18413
1.1964
1.20832
1.21986
1.23101
1.24174
1.25204
1.26189
1.27127
1.28016
1.28856
1.29644
1.30379
1.3106
1.31685
1.32253
1.32764
1.33217
1.33612
1.33948
1.34225
1.34444
1.34605
1.34709
1.34757
1.34751
1.34692
1.34582
1.34424
1.34221
1.33974
1.33689
1.33367
1.33013
1.3263
1.32222
1.31793
1.31345
1.30881
1.30408
1.29929
1.29405
1.288
0.0459682
0.0398314
0.03458
0.029852
0.0252333
0.0207582
0.0164708
0.0123872
0.0085258
0.00490905
0.00155999
-0.00149846
-0.00424395
-0.00665521
-0.00871234
-0.0103971
-0.011693
-0.0125856
-0.0130622
-0.0131123
-0.0127272
-0.0119001
-0.010626
-0.00890145
-0.00672488
-0.00409601
-0.00101602
0.00251269
0.00648651
0.0109008
0.01575
0.0210278
0.0267268
0.0328393
0.0393569
0.0462708
0.0535716
0.0612497
0.0692953
0.0776981
0.0864481
0.0955347
0.104948
0.114676
0.124711
0.13504
0.145655
0.156544
0.167698
0.179108
0.190763
0.202654
0.214773
0.227109
0.239655
0.252403
0.265343
0.278469
0.291772
0.305246
0.318882
0.332675
0.346618
0.360703
0.374926
0.38928
0.40376
0.41836
0.433074
0.447898
0.462827
0.477855
0.492979
0.508192
0.523492
0.538873
0.554332
0.569863
0.585462
0.601125
0.616849
0.632627
0.648456
0.664331
0.680248
0.696201
0.712185
0.728196
0.744228
0.760275
0.776331
0.79239
0.808445
0.82449
0.840517
0.856519
0.872488
0.888414
0.90429
0.920106
0.935852
0.951517
0.967092
0.982563
0.99792
1.01315
1.02824
1.04318
1.05795
1.07253
1.08692
1.1011
1.11505
1.12875
1.14218
1.15534
1.1682
1.18075
1.19296
1.20482
1.2163
1.2274
1.23809
1.24836
1.25818
1.26754
1.27642
1.28481
1.2927
1.30006
1.30688
1.31316
1.31887
1.32403
1.3286
1.3326
1.33602
1.33886
1.34112
1.3428
1.34391
1.34446
1.34447
1.34394
1.3429
1.34137
1.33936
1.33691
1.33405
1.33079
1.32718
1.32323
1.31899
1.31448
1.30972
1.30474
1.29959
1.2943
1.28842
1.28152
0.0517079
0.0448115
0.0389751
0.0337887
0.0287769
0.0239715
0.0194145
0.0151158
0.0110875
0.00734608
0.0039091
0.000794224
-0.0019811
-0.00440005
-0.00644678
-0.00810669
-0.00936661
-0.0102149
-0.0106415
-0.010638
-0.0101977
-0.00931541
-0.00798744
-0.00621166
-0.00398731
-0.00131493
0.00180371
0.00536573
0.0093672
0.0138033
0.0186682
0.0239556
0.0296582
0.0357684
0.0422779
0.049178
0.0564596
0.0641133
0.0721296
0.0804985
0.0892101
0.0982544
0.107621
0.1173
0.127282
0.137555
0.148112
0.15894
0.170031
0.181376
0.192965
0.204788
0.216837
0.229103
0.241578
0.254254
0.267121
0.280174
0.293403
0.306802
0.320364
0.334083
0.34795
0.361961
0.376108
0.390387
0.404792
0.419316
0.433955
0.448703
0.463556
0.478508
0.493555
0.508692
0.523915
0.539219
0.5546
0.570053
0.585574
0.601158
0.616802
0.6325
0.648248
0.664041
0.679875
0.695745
0.711646
0.727572
0.743518
0.759479
0.775448
0.791419
0.807386
0.823342
0.839279
0.855191
0.871069
0.886905
0.90269
0.918414
0.934069
0.949644
0.965128
0.98051
0.995778
1.01092
1.02592
1.04078
1.05546
1.06997
1.08428
1.09838
1.11226
1.12589
1.13926
1.15236
1.16516
1.17765
1.18982
1.20163
1.21308
1.22415
1.23482
1.24507
1.25488
1.26423
1.27312
1.28152
1.28942
1.2968
1.30365
1.30997
1.31573
1.32093
1.32556
1.32962
1.3331
1.336
1.33832
1.34007
1.34125
1.34186
1.34192
1.34145
1.34044
1.33894
1.33694
1.33448
1.33158
1.32825
1.32454
1.32045
1.31602
1.31127
1.30622
1.30088
1.2953
1.28951
1.28299
1.27527
0.0571699
0.049539
0.0431298
0.0374873
0.0320785
0.0269338
0.0220943
0.0175645
0.0133512
0.00946589
0.00592117
0.00273004
-9.44342e-05
-0.00253951
-0.00459311
-0.00624405
-0.00748225
-0.00829887
-0.00868633
-0.00863843
-0.00815032
-0.00721846
-0.00584068
-0.00401604
-0.00174479
0.000971647
0.00413082
0.00772929
0.0117627
0.0162258
0.0211128
0.026417
0.0321311
0.0382476
0.0447581
0.051654
0.0589265
0.0665663
0.0745639
0.0829098
0.0915942
0.100607
0.109939
0.11958
0.12952
0.139749
0.150258
0.161036
0.172076
0.183366
0.194898
0.206664
0.218654
0.230859
0.243272
0.255884
0.268688
0.281676
0.29484
0.308173
0.321668
0.335319
0.349119
0.363061
0.37714
0.39135
0.405686
0.42014
0.434709
0.449387
0.46417
0.479051
0.494027
0.509092
0.524243
0.539475
0.554782
0.570162
0.585609
0.601118
0.616687
0.632309
0.647981
0.663697
0.679453
0.695245
0.711067
0.726913
0.742779
0.758659
0.774547
0.790436
0.806321
0.822194
0.838049
0.853877
0.869672
0.885425
0.901127
0.916769
0.932342
0.947835
0.963239
0.978542
0.993733
1.0088
1.02373
1.03851
1.05312
1.06756
1.08181
1.09585
1.10967
1.12324
1.13657
1.14962
1.16238
1.17484
1.18697
1.19876
1.21019
1.22125
1.23191
1.24215
1.25197
1.26133
1.27024
1.27866
1.28659
1.29401
1.3009
1.30726
1.31308
1.31833
1.32302
1.32714
1.33069
1.33366
1.33605
1.33786
1.33909
1.33976
1.33987
1.33943
1.33846
1.33696
1.33495
1.33246
1.3295
1.32609
1.32225
1.318
1.31337
1.30836
1.303
1.29728
1.29127
1.28499
1.27785
1.26935
0.0622819
0.0539425
0.0469752
0.0408822
0.0350764
0.0295879
0.0244575
0.0196855
0.0152739
0.0112299
0.00756194
0.00427883
0.00138969
-0.00109647
-0.00317102
-0.00482599
-0.00605423
-0.00684953
-0.00720674
-0.00712178
-0.0065917
-0.00561468
-0.00418997
-0.00231791
1.40128e-07
0.00276186
0.005964
0.00960247
0.0136724
0.0181682
0.0230837
0.0284119
0.0341456
0.0402768
0.0467975
0.053699
0.0609724
0.0686086
0.0765983
0.084932
0.0936003
0.102593
0.111901
0.121515
0.131425
0.14162
0.152093
0.162832
0.17383
0.185077
0.196563
0.208281
0.220221
0.232375
0.244736
0.257294
0.270043
0.282974
0.296081
0.309356
0.322792
0.336383
0.350122
0.364004
0.378021
0.392169
0.406441
0.420832
0.435337
0.44995
0.464667
0.479483
0.494393
0.509392
0.524475
0.539639
0.554878
0.570189
0.585566
0.601006
0.616503
0.632054
0.647654
0.663298
0.678982
0.6947
0.710447
0.726219
0.74201
0.757814
0.773626
0.78944
0.805248
0.821045
0.836823
0.852576
0.868295
0.883972
0.8996
0.915168
0.930668
0.946089
0.961422
0.976656
0.991779
1.00678
1.02165
1.03637
1.05092
1.06531
1.0795
1.0935
1.10727
1.12081
1.1341
1.14712
1.15985
1.17229
1.18441
1.19619
1.20762
1.21867
1.22934
1.2396
1.24944
1.25883
1.26777
1.27623
1.2842
1.29167
1.29862
1.30504
1.31091
1.31623
1.32099
1.32518
1.3288
1.33183
1.33429
1.33616
1.33745
1.33817
1.33832
1.33791
1.33695
1.33545
1.33342
1.33088
1.32785
1.32433
1.32035
1.31593
1.31107
1.3058
1.30011
1.29403
1.28758
1.28081
1.27308
1.26382
0.0669803
0.0579585
0.0504488
0.0439133
0.0377137
0.0318804
0.0264546
0.0214329
0.0168137
0.0126002
0.00879731
0.00541011
0.00244418
-9.48205e-05
-0.00220147
-0.00387078
-0.00509833
-0.00588047
-0.00621433
-0.00609793
-0.00553021
-0.004511
-0.00304104
-0.00112199
0.00124368
0.00405264
0.00730083
0.0109834
0.015095
0.0196294
0.0245801
0.0299399
0.0357013
0.0418561
0.0483962
0.0553129
0.0625973
0.0702403
0.0782328
0.0865652
0.0952282
0.104212
0.113508
0.123105
0.132996
0.143169
0.153616
0.164327
0.175294
0.186507
0.197958
0.209638
0.221539
0.233652
0.245969
0.258482
0.271185
0.284068
0.297126
0.310351
0.323736
0.337274
0.35096
0.364788
0.37875
0.392841
0.407057
0.42139
0.435837
0.450392
0.465049
0.479805
0.494653
0.50959
0.524612
0.539712
0.554888
0.570134
0.585447
0.600821
0.616252
0.631736
0.647268
0.662845
0.67846
0.694109
0.709787
0.725489
0.74121
0.756945
0.772686
0.788429
0.804167
0.819894
0.835603
0.851286
0.866937
0.882546
0.898106
0.913609
0.929044
0.944402
0.959674
0.974849
0.989915
1.00486
1.01968
1.03435
1.04886
1.0632
1.07736
1.09132
1.10506
1.11857
1.13184
1.14484
1.15757
1.17
1.18212
1.19391
1.20535
1.21643
1.22712
1.23741
1.24728
1.25672
1.2657
1.27421
1.28224
1.28977
1.29679
1.30328
1.30922
1.31462
1.31945
1.32372
1.32741
1.33052
1.33304
1.33498
1.33633
1.33709
1.33728
1.33689
1.33594
1.33442
1.33236
1.32976
1.32664
1.32301
1.31888
1.31427
1.30918
1.30363
1.29762
1.29116
1.28429
1.27705
1.26873
1.25875
0.0712087
0.0615299
0.0534944
0.0465259
0.0399377
0.0337612
0.0280384
0.022763
0.01793
0.0135397
0.00959345
0.00609325
0.0030415
0.000440791
-0.00170639
-0.00339779
-0.00463162
-0.00540661
-0.00572209
-0.00557814
-0.0049755
-0.00391567
-0.00240091
-0.000434168
0.00198089
0.00483994
0.00813799
0.0118695
0.0160283
0.0206078
0.0256009
0.0310001
0.0367976
0.042985
0.049554
0.0564957
0.0638013
0.0714616
0.0794675
0.0878095
0.0964783
0.105464
0.114759
0.124351
0.134233
0.144395
0.154827
0.165521
0.176468
0.187658
0.199084
0.210737
0.222607
0.234688
0.246971
0.259449
0.272114
0.284958
0.297975
0.311158
0.324499
0.337993
0.351633
0.365413
0.379327
0.393369
0.407534
0.421816
0.43621
0.450712
0.465315
0.480015
0.494808
0.509688
0.524652
0.539694
0.554811
0.569998
0.58525
0.600563
0.615932
0.631354
0.646824
0.662336
0.677888
0.693473
0.709086
0.724724
0.74038
0.756049
0.771726
0.787404
0.803078
0.818741
0.834386
0.850007
0.865595
0.881144
0.896645
0.912089
0.927468
0.942772
0.957991
0.973116
0.988135
1.00304
1.01781
1.03244
1.04692
1.06123
1.07536
1.0893
1.10303
1.11653
1.12979
1.14279
1.15553
1.16797
1.1801
1.19191
1.20338
1.21449
1.22522
1.23556
1.24548
1.25497
1.26402
1.2726
1.2807
1.28831
1.2954
1.30197
1.308
1.31348
1.3184
1.32275
1.32653
1.32971
1.33231
1.33431
1.33572
1.33653
1.33675
1.33638
1.33543
1.3339
1.33179
1.32913
1.32592
1.32216
1.31787
1.31306
1.30774
1.30191
1.29558
1.28874
1.28145
1.27374
1.26487
1.2542
0.0749168
0.0646053
0.0560604
0.0486693
0.0416995
0.0351833
0.0291644
0.0236339
0.0185839
0.014012
0.00991693
0.00629767
0.00315382
0.000485178
-0.00170844
-0.00342736
-0.00467221
-0.00544399
-0.00574419
-0.0055748
-0.0049384
-0.00383811
-0.00227768
-0.000261386
0.0022059
0.00511877
0.00847134
0.0122572
0.0164695
0.0211011
0.0261443
0.0315912
0.0374335
0.0436628
0.0502704
0.0572473
0.0645844
0.0722727
0.0803028
0.0886654
0.0973511
0.106351
0.115654
0.125253
0.135138
0.145299
0.155728
0.166415
0.177352
0.188531
0.199941
0.211576
0.223427
0.235485
0.247744
0.260195
0.272831
0.285644
0.298629
0.311777
0.325083
0.338539
0.35214
0.36588
0.379752
0.393752
0.407872
0.422109
0.436457
0.45091
0.465465
0.480115
0.494857
0.509686
0.524597
0.539586
0.554648
0.56978
0.584976
0.600232
0.615545
0.630909
0.64632
0.661774
0.677266
0.692791
0.708345
0.723923
0.739519
0.755128
0.770745
0.786364
0.801979
0.817584
0.833172
0.848736
0.864269
0.879764
0.895213
0.910607
0.925937
0.941195
0.956371
0.971455
0.986436
1.0013
1.01605
1.03065
1.04511
1.0594
1.07352
1.08745
1.10117
1.11467
1.12794
1.14096
1.15371
1.16617
1.17834
1.19019
1.2017
1.21286
1.22364
1.23404
1.24403
1.2536
1.26272
1.27139
1.27957
1.28727
1.29446
1.30112
1.30725
1.31282
1.31784
1.32228
1.32614
1.32941
1.33209
1.33416
1.33563
1.33649
1.33675
1.33639
1.33544
1.33389
1.33174
1.32901
1.32569
1.32181
1.31736
1.31235
1.30678
1.30068
1.29402
1.28681
1.27911
1.27095
1.26154
1.25021
0.0780589
0.0671378
0.0580996
0.0502968
0.0429532
0.0361026
0.0297903
0.0240052
0.0187373
0.0139818
0.00973477
0.0059929
0.00275313
1.27573e-05
-0.00223089
-0.00398051
-0.00523903
-0.0060096
-0.00629574
-0.00610135
-0.00543074
-0.00428868
-0.00268037
-0.000611456
0.00191198
0.00488346
0.00829609
0.0121426
0.0164155
0.0211068
0.0262083
0.0317116
0.0376081
0.043889
0.0505452
0.0575676
0.0649469
0.072674
0.0807393
0.0891336
0.0978474
0.106871
0.116196
0.125812
0.135711
0.145883
0.156319
0.167011
0.177949
0.189125
0.200531
0.212158
0.223998
0.236044
0.248287
0.26072
0.273336
0.286128
0.299088
0.31221
0.325488
0.338914
0.352484
0.36619
0.380027
0.39399
0.408073
0.422271
0.436578
0.450989
0.4655
0.480106
0.494803
0.509585
0.524448
0.539388
0.554401
0.569482
0.584626
0.59983
0.61509
0.6304
0.645758
0.661157
0.676594
0.692065
0.707563
0.723086
0.738627
0.754181
0.769744
0.785309
0.80087
0.816423
0.831959
0.847473
0.862958
0.878405
0.893809
0.90916
0.92445
0.93967
0.954811
0.969863
0.984815
0.999658
1.01438
1.02897
1.04341
1.0577
1.07181
1.08574
1.09948
1.11299
1.12628
1.13933
1.15211
1.16461
1.17683
1.18872
1.20029
1.21152
1.22238
1.23285
1.24292
1.25258
1.26179
1.27056
1.27884
1.28664
1.29394
1.30071
1.30695
1.31263
1.31775
1.3223
1.32626
1.32963
1.33239
1.33454
1.33607
1.33698
1.33727
1.33694
1.33599
1.33442
1.33222
1.32942
1.326
1.32199
1.31737
1.31216
1.30635
1.29997
1.29299
1.28542
1.27732
1.26872
1.25879
1.24682
0.0805938
0.0690845
0.0595685
0.0513651
0.0436562
0.0364773
0.0298756
0.0238384
0.0183535
0.0134142
0.00901449
0.00514864
0.00181138
-0.00100235
-0.00329746
-0.00507891
-0.00635174
-0.00712118
-0.00739269
-0.00717202
-0.00646519
-0.00527856
-0.0036188
-0.00149292
0.00109177
0.00412768
0.0076069
0.0115213
0.0158625
0.0206218
0.0257906
0.0313597
0.0373202
0.0436627
0.050378
0.0574567
0.0648892
0.0726662
0.080778
0.0892154
0.0979687
0.107029
0.116386
0.126031
0.135955
0.146148
0.156603
0.167309
0.178259
0.189444
0.200855
0.212484
0.224324
0.236366
0.248603
0.261028
0.273633
0.286411
0.299355
0.312459
0.325716
0.33912
0.352665
0.366345
0.380154
0.394087
0.408138
0.422302
0.436574
0.450949
0.465423
0.479989
0.494645
0.509385
0.524206
0.539102
0.554069
0.569104
0.584202
0.599358
0.614569
0.62983
0.645138
0.660487
0.675874
0.691294
0.706742
0.722213
0.737704
0.753208
0.768721
0.784237
0.799751
0.815256
0.830747
0.846217
0.861659
0.877066
0.892431
0.907746
0.923003
0.938192
0.953306
0.968335
0.983268
0.998095
1.01281
1.02739
1.04183
1.05612
1.07025
1.08419
1.09794
1.11149
1.12481
1.13789
1.15072
1.16328
1.17555
1.18752
1.19916
1.21046
1.22141
1.23198
1.24215
1.25191
1.26123
1.2701
1.27851
1.28643
1.29385
1.30074
1.3071
1.31291
1.31815
1.32281
1.32688
1.33035
1.3332
1.33544
1.33704
1.33802
1.33835
1.33804
1.33709
1.3355
1.33326
1.33039
1.32687
1.32272
1.31794
1.31253
1.30649
1.29983
1.29254
1.28461
1.27612
1.26709
1.25666
1.24407
0.0824831
0.0704054
0.0604264
0.0518333
0.0437679
0.0362677
0.0293818
0.0230962
0.0173969
0.0122754
0.00772399
0.00373479
0.000300431
-0.00258623
-0.00493226
-0.00674467
-0.00803056
-0.00879711
-0.00905167
-0.00880176
-0.00805509
-0.0068196
-0.00510343
-0.00291493
-0.000262655
0.00284464
0.00639803
0.0103884
0.0148066
0.0196432
0.0248888
0.0305338
0.0365686
0.0429835
0.0497689
0.0569149
0.064412
0.0722503
0.0804203