/*--------------------------------*- C++ -*----------------------------------*\
  =========                 |
  \\      /  F ield         | OpenFOAM: The Open Source CFD Toolbox
   \\    /   O peration     | Website:  https://openfoam.org
    \\  /    A nd           | Version:  7
     \\/     M anipulation  |
\*---------------------------------------------------------------------------*/
FoamFile
{
    version     2.0;
    format      ascii;
    class       surfaceScalarField;
    location    "0.4625";
    object      phi;
}
// * * * * * * * * * * * * * * * * * * * * * * * * * * * * * * * * * * * * * //

dimensions      [0 3 -1 0 0 0 0];

internalField   nonuniform List<scalar> 
25360
(
1.14427e-10
-1.14219e-10
3.59642e-10
-2.45215e-10
6.04258e-10
-2.44615e-10
7.6513e-10
-1.60871e-10
7.98117e-10
-3.29869e-11
6.81409e-10
1.16708e-10
4.06374e-10
2.75035e-10
-2.76614e-11
4.34034e-10
-6.16563e-10
5.88902e-10
-1.35331e-09
7.36747e-10
-2.22914e-09
8.75827e-10
-3.23427e-09
1.00514e-09
-4.35841e-09
1.12414e-09
-5.59103e-09
1.23262e-09
-6.92161e-09
1.33058e-09
-8.33978e-09
1.41817e-09
-9.83544e-09
1.49566e-09
-1.13988e-08
1.56337e-09
-1.30205e-08
1.62169e-09
-1.46916e-08
1.67105e-09
-1.64035e-08
1.7119e-09
-1.81482e-08
1.7447e-09
-1.99181e-08
1.76993e-09
-2.17061e-08
1.78805e-09
-2.35057e-08
1.79955e-09
-2.53106e-08
1.8049e-09
-2.71151e-08
1.80455e-09
-2.89141e-08
1.79895e-09
-3.07026e-08
1.78855e-09
-3.24764e-08
1.77376e-09
-3.42314e-08
1.75499e-09
-3.5964e-08
1.73263e-09
-3.76711e-08
1.70707e-09
-3.93497e-08
1.67865e-09
-4.09974e-08
1.64771e-09
-4.2612e-08
1.61458e-09
-4.41915e-08
1.57955e-09
-4.57344e-08
1.5429e-09
-4.72394e-08
1.50491e-09
-4.87052e-08
1.46582e-09
-5.0131e-08
1.42586e-09
-5.15163e-08
1.38525e-09
-5.28604e-08
1.34416e-09
-5.41632e-08
1.3028e-09
-5.54246e-08
1.26131e-09
-5.66444e-08
1.21985e-09
-5.78229e-08
1.17855e-09
-5.89605e-08
1.13752e-09
-6.00574e-08
1.09688e-09
-6.11141e-08
1.05672e-09
-6.21312e-08
1.01712e-09
-6.31093e-08
9.78139e-10
-6.40492e-08
9.39848e-10
-6.49515e-08
9.0229e-10
-6.5817e-08
8.65505e-10
-6.66465e-08
8.2952e-10
-6.74408e-08
7.94357e-10
-6.82009e-08
7.60027e-10
-6.89274e-08
7.26537e-10
-6.96213e-08
6.93884e-10
-7.02833e-08
6.62061e-10
-7.09144e-08
6.3105e-10
-7.15152e-08
6.00832e-10
-7.20866e-08
5.7138e-10
-7.26293e-08
5.42666e-10
-7.31439e-08
5.14653e-10
-7.36312e-08
4.87302e-10
-7.40918e-08
4.60568e-10
-7.45262e-08
4.34405e-10
-7.4935e-08
4.0876e-10
-7.53185e-08
3.83582e-10
-7.56774e-08
3.58814e-10
-7.60117e-08
3.34397e-10
-7.6322e-08
3.10268e-10
-7.66084e-08
2.86364e-10
-7.6871e-08
2.62618e-10
-7.711e-08
2.38963e-10
-7.73253e-08
2.1533e-10
-7.75169e-08
1.9165e-10
-7.76848e-08
1.67849e-10
-7.78286e-08
1.43856e-10
-7.79482e-08
1.19595e-10
-7.80432e-08
9.49936e-11
-7.81132e-08
6.9977e-11
-7.81577e-08
4.44713e-11
-7.81761e-08
1.84023e-11
-7.81678e-08
-8.30399e-12
-7.81321e-08
-3.57209e-11
-7.80681e-08
-6.39206e-11
-7.79752e-08
-9.29735e-11
-7.78522e-08
-1.22948e-10
-7.76983e-08
-1.53912e-10
-7.75124e-08
-1.85928e-10
-7.72933e-08
-2.19058e-10
-7.704e-08
-2.53359e-10
-7.67511e-08
-2.88885e-10
-7.64254e-08
-3.25685e-10
-7.60616e-08
-3.63802e-10
-7.56583e-08
-4.03276e-10
-7.52142e-08
-4.44136e-10
-7.47278e-08
-4.86409e-10
-7.41977e-08
-5.30109e-10
-7.36224e-08
-5.75246e-10
-7.30006e-08
-6.21817e-10
-7.23308e-08
-6.69812e-10
-7.16116e-08
-7.19207e-10
-7.08416e-08
-7.69968e-10
-7.00196e-08
-8.22049e-10
-6.91442e-08
-8.75387e-10
-6.82143e-08
-9.29907e-10
-6.72288e-08
-9.85519e-10
-6.61867e-08
-1.04212e-09
-6.50871e-08
-1.09957e-09
-6.39294e-08
-1.15775e-09
-6.27129e-08
-1.21649e-09
-6.14373e-08
-1.2756e-09
-6.01024e-08
-1.3349e-09
-5.87082e-08
-1.39415e-09
-5.72551e-08
-1.45313e-09
-5.57435e-08
-1.51156e-09
-5.41744e-08
-1.56917e-09
-5.25487e-08
-1.62564e-09
-5.08681e-08
-1.68067e-09
-4.91342e-08
-1.73389e-09
-4.73493e-08
-1.78493e-09
-4.55158e-08
-1.83342e-09
-4.36369e-08
-1.87895e-09
-4.17158e-08
-1.92108e-09
-3.97564e-08
-1.95938e-09
-3.77631e-08
-1.99338e-09
-3.57405e-08
-2.02261e-09
-3.36939e-08
-2.04659e-09
-3.16291e-08
-2.06481e-09
-2.95523e-08
-2.07678e-09
-2.74703e-08
-2.08197e-09
-2.53904e-08
-2.07988e-09
-2.33204e-08
-2.07e-09
-2.12687e-08
-2.05179e-09
-1.92439e-08
-2.02477e-09
-1.72554e-08
-1.98843e-09
-1.53131e-08
-1.9423e-09
-1.34272e-08
-1.88591e-09
-1.16084e-08
-1.81884e-09
-9.86772e-09
-1.74068e-09
-8.21663e-09
-1.65109e-09
-6.66684e-09
-1.5498e-09
-5.23025e-09
-1.43659e-09
-3.91886e-09
-1.31139e-09
-2.74459e-09
-1.17427e-09
-1.71905e-09
-1.02554e-09
-8.53208e-10
-8.65844e-10
-1.56898e-10
-6.96312e-10
3.61965e-10
-5.18863e-10
6.9863e-10
-3.36665e-10
8.53592e-10
-1.54961e-10
8.36087e-10
1.75062e-11
6.69935e-10
1.66152e-10
4.03892e-10
2.66042e-10
1.30769e-10
2.73123e-10
1.30768e-10
2.45518e-10
-3.59737e-10
6.34118e-10
-6.33815e-10
9.50171e-10
-5.60668e-10
1.04696e-09
-2.57664e-10
8.28647e-10
1.85331e-10
2.38725e-10
7.06631e-10
-7.51177e-10
1.26494e-09
-2.15009e-09
1.83294e-09
-3.95388e-09
2.3927e-09
-6.14958e-09
2.93244e-09
-8.71831e-09
3.44456e-09
-1.16374e-08
3.9242e-09
-1.48817e-08
4.36845e-09
-1.84248e-08
4.77574e-09
-2.22397e-08
5.14544e-09
-2.62991e-08
5.4776e-09
-3.05762e-08
5.7728e-09
-3.50448e-08
6.03194e-09
-3.96793e-08
6.25622e-09
-4.44553e-08
6.44701e-09
-4.93492e-08
6.60582e-09
-5.43388e-08
6.73426e-09
-5.94028e-08
6.834e-09
-6.45215e-08
6.90674e-09
-6.96762e-08
6.9542e-09
-7.48494e-08
6.97809e-09
-8.00249e-08
6.9801e-09
-8.51879e-08
6.96191e-09
-9.03245e-08
6.92514e-09
-9.54221e-08
6.87139e-09
-1.00469e-07
6.80218e-09
-1.05456e-07
6.71899e-09
-1.10372e-07
6.62325e-09
-1.15209e-07
6.5163e-09
-1.19961e-07
6.39944e-09
-1.24621e-07
6.27389e-09
-1.29182e-07
6.14081e-09
-1.3364e-07
6.00128e-09
-1.37992e-07
5.85634e-09
-1.42233e-07
5.70692e-09
-1.46361e-07
5.55392e-09
-1.50374e-07
5.39815e-09
-1.5427e-07
5.24039e-09
-1.58048e-07
5.08132e-09
-1.61709e-07
4.92157e-09
-1.65251e-07
4.76174e-09
-1.68674e-07
4.60233e-09
-1.71981e-07
4.44382e-09
-1.7517e-07
4.28663e-09
-1.78245e-07
4.13112e-09
-1.81205e-07
3.97761e-09
-1.84053e-07
3.82637e-09
-1.86791e-07
3.67765e-09
-1.89421e-07
3.53164e-09
-1.91944e-07
3.38848e-09
-1.94362e-07
3.24831e-09
-1.96679e-07
3.11121e-09
-1.98896e-07
2.97722e-09
-2.01016e-07
2.84639e-09
-2.03041e-07
2.71871e-09
-2.04973e-07
2.59415e-09
-2.06815e-07
2.47266e-09
-2.08568e-07
2.35416e-09
-2.10235e-07
2.23857e-09
-2.11818e-07
2.12576e-09
-2.13319e-07
2.0156e-09
-2.1474e-07
1.90795e-09
-2.16082e-07
1.80265e-09
-2.17347e-07
1.6995e-09
-2.18537e-07
1.59832e-09
-2.19652e-07
1.49891e-09
-2.20694e-07
1.40105e-09
-2.21664e-07
1.30451e-09
-2.22563e-07
1.20906e-09
-2.23391e-07
1.11445e-09
-2.24149e-07
1.02044e-09
-2.24837e-07
9.26755e-10
-2.25455e-07
8.33142e-10
-2.26002e-07
7.39329e-10
-2.2648e-07
6.45041e-10
-2.26886e-07
5.5e-10
-2.2722e-07
4.53925e-10
-2.27482e-07
3.56532e-10
-2.27669e-07
2.57538e-10
-2.27781e-07
1.56658e-10
-2.27817e-07
5.36118e-11
-2.27773e-07
-5.1883e-11
-2.27649e-07
-1.60104e-10
-2.27441e-07
-2.71324e-10
-2.27148e-07
-3.85811e-10
-2.26767e-07
-5.03824e-10
-2.26296e-07
-6.25616e-10
-2.2573e-07
-7.51426e-10
-2.25068e-07
-8.81484e-10
-2.24305e-07
-1.01601e-09
-2.23439e-07
-1.15519e-09
-2.22465e-07
-1.29921e-09
-2.21381e-07
-1.44824e-09
-2.20182e-07
-1.60241e-09
-2.18864e-07
-1.76182e-09
-2.17424e-07
-1.92658e-09
-2.15857e-07
-2.09673e-09
-2.1416e-07
-2.27229e-09
-2.12329e-07
-2.45324e-09
-2.10359e-07
-2.63953e-09
-2.08247e-07
-2.83106e-09
-2.0599e-07
-3.02769e-09
-2.03582e-07
-3.22922e-09
-2.01022e-07
-3.43541e-09
-1.98306e-07
-3.64595e-09
-1.95431e-07
-3.86049e-09
-1.92395e-07
-4.0786e-09
-1.89195e-07
-4.2998e-09
-1.85829e-07
-4.52353e-09
-1.82296e-07
-4.74917e-09
-1.78596e-07
-4.97601e-09
-1.74727e-07
-5.20329e-09
-1.70691e-07
-5.43016e-09
-1.66489e-07
-5.65568e-09
-1.62122e-07
-5.87885e-09
-1.57592e-07
-6.09858e-09
-1.52904e-07
-6.31369e-09
-1.48062e-07
-6.52295e-09
-1.43071e-07
-6.72502e-09
-1.37937e-07
-6.91851e-09
-1.32669e-07
-7.10192e-09
-1.27274e-07
-7.27372e-09
-1.21763e-07
-7.43228e-09
-1.16146e-07
-7.57593e-09
-1.10437e-07
-7.70293e-09
-1.04648e-07
-7.81149e-09
-9.87946e-08
-7.89979e-09
-9.28934e-08
-7.96597e-09
-8.69621e-08
-8.00812e-09
-8.10197e-08
-8.02436e-09
-7.50868e-08
-8.01277e-09
-6.91853e-08
-7.97147e-09
-6.33385e-08
-7.89857e-09
-5.75711e-08
-7.79224e-09
-5.19088e-08
-7.65072e-09
-4.63788e-08
-7.47232e-09
-4.10092e-08
-7.25545e-09
-3.58294e-08
-6.99868e-09
-3.08693e-08
-6.70075e-09
-2.61598e-08
-6.36065e-09
-2.17319e-08
-5.97766e-09
-1.7617e-08
-5.55149e-09
-1.3846e-08
-5.08237e-09
-1.0449e-08
-4.57127e-09
-7.45437e-09
-4.02019e-09
-4.88767e-09
-3.43255e-09
-2.77018e-09
-2.8138e-09
-1.1166e-09
-2.17244e-09
6.81471e-11
-1.52142e-09
7.93707e-10
-8.80521e-10
1.09114e-09
-2.79925e-10
1.02284e-09
2.3445e-10
6.95409e-10
5.93479e-10
2.73151e-10
6.95382e-10
4.03918e-10
2.45872e-10
-6.05609e-10
5.63626e-10
-9.51568e-10
6.98053e-10
-6.95096e-10
4.75154e-10
-3.47661e-11
-2.24772e-10
8.85257e-10
-1.47762e-09
1.95948e-09
-3.32526e-09
3.11259e-09
-5.78426e-09
4.29194e-09
-8.85263e-09
5.46106e-09
-1.2515e-08
6.59484e-09
-1.67467e-08
7.67622e-09
-2.15163e-08
8.69382e-09
-2.67882e-08
9.64036e-09
-3.2524e-08
1.05115e-08
-3.86836e-08
1.13051e-08
-4.52264e-08
1.20204e-08
-5.21119e-08
1.26582e-08
-5.92998e-08
1.32199e-08
-6.67511e-08
1.37075e-08
-7.44278e-08
1.41237e-08
-8.22935e-08
1.44715e-08
-9.03133e-08
1.47541e-08
-9.84541e-08
1.49748e-08
-1.06684e-07
1.51371e-08
-1.14975e-07
1.52447e-08
-1.23298e-07
1.53011e-08
-1.31628e-07
1.53099e-08
-1.39941e-07
1.52747e-08
-1.48214e-07
1.51988e-08
-1.56429e-07
1.50857e-08
-1.64565e-07
1.49387e-08
-1.72607e-07
1.4761e-08
-1.8054e-07
1.45556e-08
-1.88349e-07
1.43254e-08
-1.96022e-07
1.40732e-08
-2.0355e-07
1.38017e-08
-2.10923e-07
1.35135e-08
-2.18132e-07
1.32108e-08
-2.25172e-07
1.28959e-08
-2.32036e-07
1.25709e-08
-2.3872e-07
1.22378e-08
-2.4522e-07
1.18983e-08
-2.51534e-07
1.1554e-08
-2.57659e-07
1.12066e-08
-2.63595e-07
1.08574e-08
-2.69341e-07
1.05078e-08
-2.74897e-07
1.01588e-08
-2.80265e-07
9.81146e-09
-2.85445e-07
9.46676e-09
-2.90439e-07
9.1255e-09
-2.9525e-07
8.78839e-09
-2.9988e-07
8.45604e-09
-3.04331e-07
8.12898e-09
-3.08607e-07
7.80765e-09
-3.12711e-07
7.4924e-09
-3.16646e-07
7.18351e-09
-3.20416e-07
6.88117e-09
-3.24024e-07
6.58551e-09
-3.27475e-07
6.29661e-09
-3.3077e-07
6.01448e-09
-3.33915e-07
5.73905e-09
-3.36913e-07
5.47024e-09
-3.39767e-07
5.20787e-09
-3.4248e-07
4.95176e-09
-3.45056e-07
4.70166e-09
-3.47497e-07
4.45729e-09
-3.49808e-07
4.21833e-09
-3.5199e-07
3.98442e-09
-3.54045e-07
3.75518e-09
-3.55977e-07
3.53019e-09
-3.57787e-07
3.30901e-09
-3.59477e-07
3.09118e-09
-3.61049e-07
2.87619e-09
-3.62504e-07
2.66355e-09
-3.63842e-07
2.45272e-09
-3.65065e-07
2.24315e-09
-3.66172e-07
2.03429e-09
-3.67164e-07
1.82555e-09
-3.68042e-07
1.61636e-09
-3.68803e-07
1.40611e-09
-3.69447e-07
1.1942e-09
-3.69973e-07
9.80017e-10
-3.70379e-07
7.62954e-10
-3.70664e-07
5.42391e-10
-3.70825e-07
3.17713e-10
-3.7086e-07
8.83072e-11
-3.70765e-07
-1.46434e-10
-3.70538e-07
-3.8711e-10
-3.70175e-07
-6.34312e-10
-3.69673e-07
-8.88616e-10
-3.69026e-07
-1.15058e-09
-3.68231e-07
-1.42075e-09
-3.67282e-07
-1.69964e-09
-3.66176e-07
-1.98774e-09
-3.64907e-07
-2.28551e-09
-3.63469e-07
-2.59337e-09
-3.61856e-07
-2.91171e-09
-3.60063e-07
-3.24085e-09
-3.58085e-07
-3.58109e-09
-3.55914e-07
-3.93267e-09
-3.53545e-07
-4.29574e-09
-3.50971e-07
-4.67041e-09
-3.48187e-07
-5.05671e-09
-3.45185e-07
-5.45459e-09
-3.41961e-07
-5.86391e-09
-3.38508e-07
-6.28443e-09
-3.34819e-07
-6.71583e-09
-3.30891e-07
-7.15767e-09
-3.26717e-07
-7.60938e-09
-3.22293e-07
-8.07031e-09
-3.17613e-07
-8.53964e-09
-3.12676e-07
-9.01645e-09
-3.07476e-07
-9.49964e-09
-3.02011e-07
-9.988e-09
-2.9628e-07
-1.04802e-08
-2.90282e-07
-1.09746e-08
-2.84016e-07
-1.14695e-08
-2.77482e-07
-1.19632e-08
-2.70685e-07
-1.24536e-08
-2.63625e-07
-1.29384e-08
-2.56308e-07
-1.34153e-08
-2.4874e-07
-1.38817e-08
-2.40928e-07
-1.4335e-08
-2.32881e-07
-1.47723e-08
-2.24609e-07
-1.51905e-08
-2.16125e-07
-1.55863e-08
-2.07442e-07
-1.59566e-08
-1.98576e-07
-1.62977e-08
-1.89546e-07
-1.6606e-08
-1.80371e-07
-1.68779e-08
-1.71073e-07
-1.71094e-08
-1.61677e-07
-1.72967e-08
-1.52207e-07
-1.74358e-08
-1.42692e-07
-1.75226e-08
-1.33163e-07
-1.75532e-08
-1.23653e-07
-1.75234e-08
-1.14195e-07
-1.74292e-08
-1.04827e-07
-1.72669e-08
-9.55865e-08
-1.70325e-08
-8.65148e-08
-1.67224e-08
-7.76539e-08
-1.63332e-08
-6.90476e-08
-1.58618e-08
-6.0741e-08
-1.53053e-08
-5.27803e-08
-1.46614e-08
-4.52125e-08
-1.39284e-08
-3.80848e-08
-1.31054e-08
-3.1444e-08
-1.21923e-08
-2.5336e-08
-1.11904e-08
-1.98045e-08
-1.01027e-08
-1.48901e-08
-8.93464e-09
-1.0628e-08
-7.6946e-09
-7.04634e-09
-6.39549e-09
-4.16241e-09
-5.05637e-09
-1.97878e-09
-3.70505e-09
-4.77413e-10
-2.38189e-09
3.8791e-10
-1.14525e-09
7.01347e-10
-7.89858e-11
5.96182e-10
6.98646e-10
2.66941e-10
1.02463e-09
6.70858e-10
1.63821e-10
-7.6943e-10
2.64909e-10
-1.05266e-09
4.44909e-11
-4.74678e-10
-6.77823e-10
6.87547e-10
-2.0288e-09
2.23624e-09
-4.09169e-09
4.02236e-09
-6.91458e-09
5.93548e-09
-1.0518e-08
7.89537e-09
-1.49012e-08
9.84431e-09
-2.00475e-08
1.17411e-08
-2.5928e-08
1.35568e-08
-3.25054e-08
1.52712e-08
-3.97362e-08
1.68712e-08
-4.75728e-08
1.83481e-08
-5.59651e-08
1.96973e-08
-6.48615e-08
2.09169e-08
-7.42102e-08
2.20069e-08
-8.39596e-08
2.29693e-08
-9.40589e-08
2.38069e-08
-1.04459e-07
2.45238e-08
-1.15112e-07
2.51244e-08
-1.25972e-07
2.56141e-08
-1.36995e-07
2.59982e-08
-1.48141e-07
2.62824e-08
-1.59369e-07
2.64728e-08
-1.70643e-07
2.65752e-08
-1.81928e-07
2.65956e-08
-1.93194e-07
2.654e-08
-2.04409e-07
2.64142e-08
-2.15547e-07
2.62239e-08
-2.26583e-07
2.59749e-08
-2.37495e-07
2.56724e-08
-2.48261e-07
2.53217e-08
-2.58863e-07
2.49278e-08
-2.69285e-07
2.44955e-08
-2.79513e-07
2.40294e-08
-2.89533e-07
2.35337e-08
-2.99335e-07
2.30127e-08
-3.08909e-07
2.247e-08
-3.18248e-07
2.19094e-08
-3.27344e-07
2.13342e-08
-3.36193e-07
2.07475e-08
-3.44792e-07
2.01522e-08
-3.53136e-07
1.9551e-08
-3.61225e-07
1.89463e-08
-3.69057e-07
1.83403e-08
-3.76634e-07
1.7735e-08
-3.83954e-07
1.71323e-08
-3.91021e-07
1.65338e-08
-3.97837e-07
1.59409e-08
-4.04403e-07
1.53548e-08
-4.10724e-07
1.47767e-08
-4.16802e-07
1.42074e-08
-4.22642e-07
1.36478e-08
-4.28248e-07
1.30984e-08
-4.33625e-07
1.25598e-08
-4.38776e-07
1.20324e-08
-4.43707e-07
1.15163e-08
-4.48422e-07
1.10117e-08
-4.52926e-07
1.05187e-08
-4.57224e-07
1.00371e-08
-4.6132e-07
9.56675e-09
-4.6522e-07
9.10747e-09
-4.68927e-07
8.6589e-09
-4.72446e-07
8.2206e-09
-4.75781e-07
7.79212e-09
-4.78936e-07
7.3729e-09
-4.81913e-07
6.96233e-09
-4.84718e-07
6.55976e-09
-4.87352e-07
6.16448e-09
-4.89819e-07
5.77572e-09
-4.92121e-07
5.39268e-09
-4.94259e-07
5.01452e-09
-4.96236e-07
4.64036e-09
-4.98052e-07
4.26928e-09
-4.99709e-07
3.90035e-09
-5.01208e-07
3.53261e-09
-5.02547e-07
3.16505e-09
-5.03728e-07
2.79667e-09
-5.04748e-07
2.42644e-09
-5.05607e-07
2.05332e-09
-5.06303e-07
1.67626e-09
-5.06835e-07
1.29422e-09
-5.07198e-07
9.06121e-10
-5.07391e-07
5.10913e-10
-5.07411e-07
1.07545e-10
-5.07252e-07
-3.05028e-10
-5.06911e-07
-7.27834e-10
-5.06384e-07
-1.16188e-09
-5.05664e-07
-1.60816e-09
-5.04747e-07
-2.06763e-09
-5.03627e-07
-2.54121e-09
-5.02297e-07
-3.02977e-09
-5.0075e-07
-3.53416e-09
-4.98981e-07
-4.05515e-09
-4.9698e-07
-4.59346e-09
-4.94742e-07
-5.14972e-09
-4.92259e-07
-5.7245e-09
-4.89522e-07
-6.31829e-09
-4.86523e-07
-6.93145e-09
-4.83254e-07
-7.56427e-09
-4.79708e-07
-8.21688e-09
-4.75875e-07
-8.88933e-09
-4.71748e-07
-9.5815e-09
-4.67319e-07
-1.02931e-08
-4.6258e-07
-1.10238e-08
-4.57523e-07
-1.17729e-08
-4.52141e-07
-1.25396e-08
-4.46427e-07
-1.3323e-08
-4.40376e-07
-1.41219e-08
-4.3398e-07
-1.49349e-08
-4.27236e-07
-1.57603e-08
-4.2014e-07
-1.65963e-08
-4.12687e-07
-1.74406e-08
-4.04876e-07
-1.8291e-08
-3.96706e-07
-1.91448e-08
-3.88177e-07
-1.9999e-08
-3.79289e-07
-2.08504e-08
-3.70047e-07
-2.16955e-08
-3.60455e-07
-2.25305e-08
-3.50519e-07
-2.33513e-08
-3.40248e-07
-2.41535e-08
-3.2965e-07
-2.49324e-08
-3.18739e-07
-2.56831e-08
-3.0753e-07
-2.64004e-08
-2.96037e-07
-2.70787e-08
-2.84281e-07
-2.77124e-08
-2.72284e-07
-2.82954e-08
-2.60068e-07
-2.88216e-08
-2.47661e-07
-2.92846e-08
-2.35093e-07
-2.96779e-08
-2.22395e-07
-2.99948e-08
-2.09602e-07
-3.02286e-08
-1.96752e-07
-3.03724e-08
-1.83886e-07
-3.04194e-08
-1.71046e-07
-3.03629e-08
-1.58279e-07
-3.01961e-08
-1.45634e-07
-2.99126e-08
-1.3316e-07
-2.95061e-08
-1.20912e-07
-2.89707e-08
-1.08944e-07
-2.83007e-08
-9.7315e-08
-2.74912e-08
-8.60823e-08
-2.65379e-08
-7.53064e-08
-2.54374e-08
-6.50474e-08
-2.41874e-08
-5.53659e-08
-2.27869e-08
-4.63213e-08
-2.12369e-08
-3.79711e-08
-1.95406e-08
-3.03696e-08
-1.77042e-08
-2.35663e-08
-1.5738e-08
-1.76034e-08
-1.36575e-08
-1.25135e-08
-1.14854e-08
-8.31548e-09
-9.25434e-09
-5.01054e-09
-7.00999e-09
-2.57601e-09
-4.81642e-09
-9.58602e-10
-2.76265e-09
-6.59051e-11
-9.71683e-10
2.43043e-10
3.897e-10
1.69038e-10
1.09863e-09
8.39896e-10
3.77962e-11
-8.07226e-10
-1.74053e-10
-8.40806e-10
-8.70393e-10
2.21663e-10
-2.22132e-09
2.03847e-09
-4.34863e-09
4.36355e-09
-7.33388e-09
7.0076e-09
-1.1225e-08
9.82662e-09
-1.60426e-08
1.27129e-08
-2.17851e-08
1.55868e-08
-2.84338e-08
1.83898e-08
-3.59565e-08
2.10794e-08
-4.43108e-08
2.36256e-08
-5.34473e-08
2.60076e-08
-6.33109e-08
2.82117e-08
-7.38434e-08
3.02299e-08
-8.49846e-08
3.2058e-08
-9.66733e-08
3.36955e-08
-1.08848e-07
3.51442e-08
-1.21449e-07
3.64076e-08
-1.34416e-07
3.74912e-08
-1.47693e-07
3.84011e-08
-1.61224e-07
3.91447e-08
-1.74955e-07
3.97298e-08
-1.88837e-07
4.01646e-08
-2.02822e-07
4.04578e-08
-2.16865e-07
4.06181e-08
-2.30924e-07
4.06543e-08
-2.44959e-07
4.05752e-08
-2.58935e-07
4.03895e-08
-2.72816e-07
4.01058e-08
-2.86574e-07
3.97324e-08
-3.00179e-07
3.92775e-08
-3.13606e-07
3.87489e-08
-3.26833e-07
3.81542e-08
-3.39838e-07
3.75005e-08
-3.52603e-07
3.67948e-08
-3.65113e-07
3.60437e-08
-3.77354e-07
3.52533e-08
-3.89313e-07
3.44295e-08
-4.00982e-07
3.35777e-08
-4.12351e-07
3.27031e-08
-4.23414e-07
3.18104e-08
-4.34165e-07
3.09041e-08
-4.44603e-07
2.99881e-08
-4.54723e-07
2.90663e-08
-4.64524e-07
2.8142e-08
-4.74008e-07
2.72183e-08
-4.83173e-07
2.6298e-08
-4.92023e-07
2.53836e-08
-5.0056e-07
2.44773e-08
-5.08786e-07
2.3581e-08
-5.16705e-07
2.26964e-08
-5.24323e-07
2.18249e-08
-5.31643e-07
2.09677e-08
-5.3867e-07
2.01259e-08
-5.45411e-07
1.93001e-08
-5.51869e-07
1.8491e-08
-5.58052e-07
1.76989e-08
-5.63964e-07
1.69241e-08
-5.69612e-07
1.61667e-08
-5.75002e-07
1.54264e-08
-5.80138e-07
1.47032e-08
-5.85027e-07
1.39966e-08
-5.89674e-07
1.3306e-08
-5.94085e-07
1.2631e-08
-5.98264e-07
1.19708e-08
-6.02215e-07
1.13246e-08
-6.05944e-07
1.06914e-08
-6.09455e-07
1.00703e-08
-6.12751e-07
9.46019e-09
-6.15835e-07
8.85991e-09
-6.1871e-07
8.26826e-09
-6.2138e-07
7.68396e-09
-6.23845e-07
7.10568e-09
-6.26108e-07
6.53204e-09
-6.28169e-07
5.96162e-09
-6.3003e-07
5.39294e-09
-6.31689e-07
4.82452e-09
-6.33147e-07
4.25481e-09
-6.34403e-07
3.68227e-09
-6.35455e-07
3.10531e-09
-6.36301e-07
2.52235e-09
-6.36939e-07
1.9318e-09
-6.37365e-07
1.33204e-09
-6.37575e-07
7.21491e-10
-6.37566e-07
9.85483e-11
-6.37333e-07
-5.3836e-10
-6.3687e-07
-1.19079e-09
-6.36172e-07
-1.86025e-09
-6.35231e-07
-2.54825e-09
-6.34043e-07
-3.25621e-09
-6.32599e-07
-3.98552e-09
-6.30891e-07
-4.73751e-09
-6.28912e-07
-5.51343e-09
-6.26652e-07
-6.31442e-09
-6.24104e-07
-7.14156e-09
-6.21258e-07
-7.9958e-09
-6.18105e-07
-8.87799e-09
-6.14634e-07
-9.7888e-09
-6.10837e-07
-1.07288e-08
-6.06703e-07
-1.16984e-08
-6.02222e-07
-1.26977e-08
-5.97384e-07
-1.37269e-08
-5.9218e-07
-1.47856e-08
-5.866e-07
-1.58735e-08
-5.80634e-07
-1.69899e-08
-5.74273e-07
-1.81338e-08
-5.67508e-07
-1.9304e-08
-5.60332e-07
-2.04991e-08
-5.52737e-07
-2.17171e-08
-5.44716e-07
-2.29559e-08
-5.36263e-07
-2.4213e-08
-5.27374e-07
-2.54855e-08
-5.18045e-07
-2.67702e-08
-5.08272e-07
-2.80633e-08
-4.98056e-07
-2.93608e-08
-4.87397e-07
-3.06583e-08
-4.76297e-07
-3.19509e-08
-4.64759e-07
-3.32331e-08
-4.5279e-07
-3.44993e-08
-4.40398e-07
-3.57432e-08
-4.27594e-07
-3.69582e-08
-4.14389e-07
-3.81372e-08
-4.00799e-07
-3.92728e-08
-3.86842e-07
-4.03569e-08
-3.7254e-07
-4.13814e-08
-3.57914e-07
-4.23376e-08
-3.42993e-07
-4.32165e-08
-3.27806e-07
-4.40088e-08
-3.12386e-07
-4.4705e-08
-2.96769e-07
-4.52952e-08
-2.80994e-07
-4.57695e-08
-2.65105e-07
-4.61177e-08
-2.49147e-07
-4.63299e-08
-2.33171e-07
-4.63957e-08
-2.17229e-07
-4.63053e-08
-2.01376e-07
-4.60487e-08
-1.85672e-07
-4.56164e-08
-1.70179e-07
-4.49993e-08
-1.54961e-07
-4.41887e-08
-1.40085e-07
-4.31769e-08
-1.25619e-07
-4.19567e-08
-1.11635e-07
-4.05225e-08
-9.82024e-08
-3.88696e-08
-8.53942e-08
-3.69955e-08
-7.32814e-08
-3.48998e-08
-6.19335e-08
-3.25848e-08
-5.14176e-08
-3.00565e-08
-4.17964e-08
-2.73255e-08
-3.31262e-08
-2.44081e-08
-2.5455e-08
-2.13287e-08
-1.88191e-08
-1.81213e-08
-1.32397e-08
-1.48338e-08
-8.71852e-09
-1.15311e-08
-5.23289e-09
-8.30205e-09
-2.72952e-09
-5.26603e-09
-1.11792e-09
-2.58329e-09
-2.63055e-10
-4.65161e-10
2.32893e-11
8.12289e-10
8.63186e-10
-1.10574e-10
-6.96653e-10
-6.93947e-10
-2.57432e-10
-1.94599e-09
1.47371e-09
-4.01456e-09
4.10704e-09
-7.00746e-09
7.35645e-09
-1.09975e-08
1.09976e-08
-1.60271e-08
1.48562e-08
-2.21129e-08
1.87988e-08
-2.92504e-08
2.27243e-08
-3.74175e-08
2.65568e-08
-4.6578e-08
3.024e-08
-5.66853e-08
3.37329e-08
-6.76844e-08
3.70066e-08
-7.95142e-08
4.00415e-08
-9.21097e-08
4.28254e-08
-1.05403e-07
4.53516e-08
-1.19326e-07
4.76182e-08
-1.33808e-07
4.96267e-08
-1.48782e-07
5.13813e-08
-1.64179e-07
5.28884e-08
-1.79934e-07
5.41562e-08
-1.95984e-07
5.51941e-08
-2.12266e-07
5.60124e-08
-2.28724e-07
5.66223e-08
-2.45301e-07
5.70351e-08
-2.61946e-07
5.72629e-08
-2.7861e-07
5.73176e-08
-2.95245e-07
5.72111e-08
-3.11812e-07
5.69556e-08
-3.28268e-07
5.65626e-08
-3.4458e-07
5.60439e-08
-3.60713e-07
5.54106e-08
-3.76637e-07
5.46735e-08
-3.92327e-07
5.38432e-08
-4.07756e-07
5.29298e-08
-4.22904e-07
5.19428e-08
-4.37752e-07
5.08914e-08
-4.52283e-07
4.97843e-08
-4.66483e-07
4.86296e-08
-4.8034e-07
4.74349e-08
-4.93844e-07
4.62075e-08
-5.06988e-07
4.49541e-08
-5.19765e-07
4.36808e-08
-5.3217e-07
4.23933e-08
-5.442e-07
4.10969e-08
-5.55855e-07
3.97965e-08
-5.67133e-07
3.84963e-08
-5.78035e-07
3.72002e-08
-5.88563e-07
3.59119e-08
-5.9872e-07
3.46344e-08
-6.0851e-07
3.33704e-08
-6.17936e-07
3.21223e-08
-6.27003e-07
3.08923e-08
-6.35717e-07
2.96819e-08
-6.44084e-07
2.84927e-08
-6.5211e-07
2.73256e-08
-6.598e-07
2.61816e-08
-6.67162e-07
2.50611e-08
-6.74203e-07
2.39647e-08
-6.80928e-07
2.28922e-08
-6.87346e-07
2.18437e-08
-6.93461e-07
2.08189e-08
-6.99282e-07
1.98171e-08
-7.04814e-07
1.88377e-08
-7.10062e-07
1.788e-08
-7.15034e-07
1.69428e-08
-7.19735e-07
1.60251e-08
-7.24169e-07
1.51256e-08
-7.28342e-07
1.42428e-08
-7.32257e-07
1.33754e-08
-7.35919e-07
1.25217e-08
-7.3933e-07
1.168e-08
-7.42495e-07
1.08486e-08
-7.45415e-07
1.00255e-08
-7.48092e-07
9.20882e-09
-7.50527e-07
8.39663e-09
-7.5272e-07
7.58683e-09
-7.54673e-07
6.77735e-09
-7.56385e-07
5.96603e-09
-7.57853e-07
5.15071e-09
-7.59077e-07
4.32919e-09
-7.60054e-07
3.49924e-09
-7.60781e-07
2.65864e-09
-7.61254e-07
1.80515e-09
-7.61469e-07
9.36545e-10
-7.61421e-07
5.0603e-11
-7.61104e-07
-8.5487e-10
-7.60513e-07
-1.78204e-09
-7.5964e-07
-2.73302e-09
-7.58479e-07
-3.70987e-09
-7.5702e-07
-4.71461e-09
-7.55257e-07
-5.74914e-09
-7.53179e-07
-6.81531e-09
-7.50777e-07
-7.91483e-09
-7.48043e-07
-9.04931e-09
-7.44964e-07
-1.02202e-08
-7.41531e-07
-1.14288e-08
-7.37733e-07
-1.26764e-08
-7.33558e-07
-1.39637e-08
-7.28995e-07
-1.52916e-08
-7.24033e-07
-1.66605e-08
-7.1866e-07
-1.80708e-08
-7.12864e-07
-1.95224e-08
-7.06635e-07
-2.1015e-08
-6.9996e-07
-2.25479e-08
-6.9283e-07
-2.41202e-08
-6.85233e-07
-2.57305e-08
-6.7716e-07
-2.73771e-08
-6.68602e-07
-2.90577e-08
-6.59549e-07
-3.07699e-08
-6.49994e-07
-3.25105e-08
-6.39931e-07
-3.4276e-08
-6.29354e-07
-3.60623e-08
-6.1826e-07
-3.78649e-08
-6.06644e-07
-3.96785e-08
-5.94508e-07
-4.14975e-08
-5.81851e-07
-4.33156e-08
-5.68675e-07
-4.51259e-08
-5.54988e-07
-4.6921e-08
-5.40794e-07
-4.86928e-08
-5.26105e-07
-5.04325e-08
-5.10932e-07
-5.2131e-08
-4.95291e-07
-5.37784e-08
-4.792e-07
-5.53641e-08
-4.62679e-07
-5.68773e-08
-4.45754e-07
-5.83064e-08
-4.28453e-07
-5.96394e-08
-4.10805e-07
-6.08638e-08
-3.92848e-07
-6.19666e-08
-3.74618e-07
-6.29348e-08
-3.56158e-07
-6.37546e-08
-3.37516e-07
-6.44124e-08
-3.18739e-07
-6.48942e-08
-2.99883e-07
-6.51861e-08
-2.81004e-07
-6.52742e-08
-2.62165e-07
-6.51449e-08
-2.43429e-07
-6.47847e-08
-2.24865e-07
-6.41806e-08
-2.06543e-07
-6.33204e-08
-1.8854e-07
-6.21927e-08
-1.70929e-07
-6.0787e-08
-1.53792e-07
-5.90942e-08
-1.37207e-07
-5.71071e-08
-1.21257e-07
-5.48203e-08
-1.06021e-07
-5.2231e-08
-9.15811e-08
-4.93398e-08
-7.80149e-08
-4.6151e-08
-6.53973e-08
-4.26741e-08
-5.3798e-08
-3.89248e-08
-4.32795e-08
-3.49266e-08
-3.38949e-08
-3.07133e-08
-2.56847e-08
-2.63315e-08
-1.86737e-08
-2.18447e-08
-1.28672e-08
-1.73377e-08
-8.2464e-09
-1.29228e-08
-4.7642e-09
-8.74823e-09
-2.33994e-09
-5.00755e-09
-8.5462e-10
-1.95048e-09
-1.4583e-10
1.03499e-10
7.17357e-10
-2.68841e-10
-4.27813e-10
-1.25599e-09
7.29712e-10
-3.11216e-09
3.32989e-09
-5.95568e-09
6.95056e-09
-9.874e-09
1.12748e-08
-1.49257e-08
1.60494e-08
-2.11434e-08
2.10739e-08
-2.85365e-08
2.61919e-08
-3.70946e-08
3.12825e-08
-4.67908e-08
3.6253e-08
-5.75843e-08
4.10335e-08
-6.94236e-08
4.55722e-08
-8.22486e-08
4.98315e-08
-9.59926e-08
5.37856e-08
-1.10585e-07
5.74175e-08
-1.25951e-07
6.07178e-08
-1.42015e-07
6.36828e-08
-1.58702e-07
6.63135e-08
-1.75935e-07
6.86144e-08
-1.9364e-07
7.05932e-08
-2.11744e-07
7.22597e-08
-2.30175e-07
7.36256e-08
-2.48867e-07
7.47038e-08
-2.67753e-07
7.55083e-08
-2.86771e-07
7.6054e-08
-3.05864e-07
7.63559e-08
-3.24976e-07
7.64296e-08
-3.44056e-07
7.62906e-08
-3.63055e-07
7.59544e-08
-3.81928e-07
7.54364e-08
-4.00636e-07
7.47516e-08
-4.1914e-07
7.39147e-08
-4.37407e-07
7.294e-08
-4.55405e-07
7.18413e-08
-4.73107e-07
7.06318e-08
-4.90488e-07
6.93241e-08
-5.07527e-07
6.79304e-08
-5.24205e-07
6.6462e-08
-5.40505e-07
6.49297e-08
-5.56413e-07
6.33437e-08
-5.7192e-07
6.17136e-08
-5.87014e-07
6.00481e-08
-6.01688e-07
5.83555e-08
-6.15938e-07
5.66434e-08
-6.2976e-07
5.49188e-08
-6.43152e-07
5.31881e-08
-6.56113e-07
5.14569e-08
-6.68643e-07
4.97307e-08
-6.80745e-07
4.80141e-08
-6.92422e-07
4.63112e-08
-7.03678e-07
4.46258e-08
-7.14516e-07
4.2961e-08
-7.24944e-07
4.13195e-08
-7.34965e-07
3.97037e-08
-7.44588e-07
3.81155e-08
-7.53819e-07
3.65563e-08
-7.62665e-07
3.50273e-08
-7.71133e-07
3.35292e-08
-7.79231e-07
3.20626e-08
-7.86966e-07
3.06276e-08
-7.94346e-07
2.92241e-08
-8.01379e-07
2.78517e-08
-8.08072e-07
2.65096e-08
-8.14431e-07
2.51972e-08
-8.20464e-07
2.39131e-08
-8.26178e-07
2.26562e-08
-8.31577e-07
2.14249e-08
-8.3667e-07
2.02176e-08
-8.41459e-07
1.90325e-08
-8.45951e-07
1.78676e-08
-8.5015e-07
1.67207e-08
-8.5406e-07
1.55896e-08
-8.57683e-07
1.44721e-08
-8.61024e-07
1.33655e-08
-8.64082e-07
1.22675e-08
-8.66861e-07
1.11752e-08
-8.6936e-07
1.00861e-08
-8.7158e-07
8.99743e-09
-8.7352e-07
7.90626e-09
-8.75179e-07
6.80975e-09
-8.76555e-07
5.70502e-09
-8.77645e-07
4.58911e-09
-8.78446e-07
3.4591e-09
-8.78952e-07
2.31202e-09
-8.79161e-07
1.14495e-09
-8.79065e-07
-4.5058e-11
-8.78659e-07
-1.26088e-09
-8.77936e-07
-2.50537e-09
-8.76888e-07
-3.78133e-09
-8.75506e-07
-5.09145e-09
-8.73782e-07
-6.43838e-09
-8.71707e-07
-7.82464e-09
-8.69269e-07
-9.25262e-09
-8.6646e-07
-1.07246e-08
-8.63266e-07
-1.22426e-08
-8.59678e-07
-1.38087e-08
-8.55682e-07
-1.54244e-08
-8.51267e-07
-1.70913e-08
-8.46421e-07
-1.88106e-08
-8.41129e-07
-2.05832e-08
-8.3538e-07
-2.24098e-08
-8.2916e-07
-2.42906e-08
-8.22457e-07
-2.62257e-08
-8.15257e-07
-2.82145e-08
-8.07549e-07
-3.02562e-08
-7.9932e-07
-3.23494e-08
-7.90558e-07
-3.44922e-08
-7.81252e-07
-3.66824e-08
-7.71393e-07
-3.89171e-08
-7.6097e-07
-4.11927e-08
-7.49976e-07
-4.35052e-08
-7.38402e-07
-4.58497e-08
-7.26243e-07
-4.8221e-08
-7.13495e-07
-5.0613e-08
-7.00155e-07
-5.30187e-08
-6.86222e-07
-5.54306e-08
-6.71697e-07
-5.78404e-08
-6.56584e-07
-6.0239e-08
-6.40888e-07
-6.26166e-08
-6.24619e-07
-6.49624e-08
-6.07786e-07
-6.72649e-08
-5.90405e-07
-6.9512e-08
-5.72493e-07
-7.16907e-08
-5.5407e-07
-7.37871e-08
-5.35161e-07
-7.57868e-08
-5.15792e-07
-7.76746e-08
-4.95997e-07
-7.94348e-08
-4.7581e-07
-8.10508e-08
-4.55271e-07
-8.25059e-08
-4.34423e-07
-8.37827e-08
-4.13314e-07
-8.48633e-08
-3.91997e-07
-8.57299e-08
-3.70526e-07
-8.63644e-08
-3.48964e-07
-8.67485e-08
-3.27374e-07
-8.68643e-08
-3.05825e-07
-8.6694e-08
-2.84389e-07
-8.62203e-08
-2.63143e-07
-8.54267e-08
-2.42166e-07
-8.42974e-08
-2.21541e-07
-8.28179e-08
-2.01353e-07
-8.09753e-08
-1.81689e-07
-7.87584e-08
-1.62637e-07
-7.61582e-08
-1.44289e-07
-7.31689e-08
-1.26732e-07
-6.97877e-08
-1.10055e-07
-6.60165e-08
-9.43445e-08
-6.1862e-08
-7.96809e-08
-5.73377e-08
-6.61409e-08
-5.24648e-08
-5.37927e-08
-4.72748e-08
-4.26947e-08
-4.18112e-08
-3.28928e-08
-3.61335e-08
-2.44171e-08
-3.03205e-08
-1.7279e-08
-2.44758e-08
-1.14677e-08
-1.87341e-08
-6.94718e-09
-1.32688e-08
-3.65254e-09
-8.30218e-09
-1.48785e-09
-4.11517e-09
-3.2434e-10
-1.06001e-09
3.93018e-10
-4.29746e-10
1.93374e-12
-1.8353e-09
2.13527e-09
-4.32128e-09
5.81586e-09
-7.97279e-09
1.06021e-08
-1.28529e-08
1.61548e-08
-1.90021e-08
2.21986e-08
-2.64396e-08
2.85113e-08
-3.51646e-08
3.49169e-08
-4.51588e-08
4.12767e-08
-5.63885e-08
4.74828e-08
-6.88074e-08
5.34524e-08
-8.23582e-08
5.9123e-08
-9.69756e-08
6.44489e-08
-1.12588e-07
6.93976e-08
-1.29118e-07
7.39476e-08
-1.46486e-07
7.80861e-08
-1.64611e-07
8.18078e-08
-1.8341e-07
8.51127e-08
-2.02802e-07
8.80059e-08
-2.22704e-07
9.04959e-08
-2.43039e-07
9.25944e-08
-2.63729e-07
9.43152e-08
-2.84699e-07
9.56741e-08
-3.05879e-07
9.66882e-08
-3.27201e-07
9.73756e-08
-3.486e-07
9.7755e-08
-3.70016e-07
9.78456e-08
-3.91392e-07
9.76668e-08
-4.12676e-07
9.7238e-08
-4.33817e-07
9.65782e-08
-4.54772e-07
9.57065e-08
-4.75499e-07
9.46412e-08
-4.95959e-07
9.34004e-08
-5.1612e-07
9.20015e-08
-5.35949e-07
9.0461e-08
-5.5542e-07
8.87951e-08
-5.74508e-07
8.7019e-08
-5.93194e-07
8.51471e-08
-6.11457e-07
8.31933e-08
-6.29284e-07
8.11704e-08
-6.46661e-07
7.90904e-08
-6.63577e-07
7.69647e-08
-6.80025e-07
7.48038e-08
-6.95999e-07
7.26172e-08
-7.11494e-07
7.04139e-08
-7.26508e-07
6.82021e-08