/*--------------------------------*- C++ -*----------------------------------*\
  =========                 |
  \\      /  F ield         | OpenFOAM: The Open Source CFD Toolbox
   \\    /   O peration     | Website:  https://openfoam.org
    \\  /    A nd           | Version:  7
     \\/     M anipulation  |
\*---------------------------------------------------------------------------*/
FoamFile
{
    version     2.0;
    format      ascii;
    class       volVectorField;
    location    "0.4625";
    object      U;
}
// * * * * * * * * * * * * * * * * * * * * * * * * * * * * * * * * * * * * * //

dimensions      [0 1 -1 0 0 0 0];

internalField   nonuniform List<vector> 
12800
(
(8.33561e-06 -8.31398e-06 0)
(3.71073e-05 -1.85318e-05 0)
(7.85564e-05 -1.97125e-05 0)
(0.000113275 -1.53562e-05 0)
(0.000130024 -8.31373e-06 0)
(0.000123915 -1.40376e-07 0)
(9.28021e-05 8.34297e-06 0)
(3.60707e-05 1.66962e-05 0)
(-4.59223e-05 2.46863e-05 0)
(-0.000152229 3.21938e-05 0)
(-0.000281551 3.91591e-05 0)
(-0.00043238 4.55571e-05 0)
(-0.000603096 5.13825e-05 0)
(-0.000792019 5.66418e-05 0)
(-0.00099746 6.13492e-05 0)
(-0.00121774 6.55232e-05 0)
(-0.00145122 6.91856e-05 0)
(-0.0016963 7.236e-05 0)
(-0.00195145 7.5071e-05 0)
(-0.00221521 7.7344e-05 0)
(-0.00248616 7.92046e-05 0)
(-0.00276298 8.06782e-05 0)
(-0.00304444 8.17903e-05 0)
(-0.00332934 8.25657e-05 0)
(-0.00361659 8.30288e-05 0)
(-0.00390518 8.32033e-05 0)
(-0.00419415 8.31123e-05 0)
(-0.00448262 8.2778e-05 0)
(-0.0047698 8.2222e-05 0)
(-0.00505495 8.14647e-05 0)
(-0.00533739 8.05259e-05 0)
(-0.00561654 7.94243e-05 0)
(-0.00589183 7.81779e-05 0)
(-0.0061628 7.68035e-05 0)
(-0.006429 7.53171e-05 0)
(-0.00669006 7.37338e-05 0)
(-0.00694566 7.20676e-05 0)
(-0.00719552 7.03317e-05 0)
(-0.00743939 6.85386e-05 0)
(-0.00767709 6.66995e-05 0)
(-0.00790846 6.4825e-05 0)
(-0.00813337 6.29248e-05 0)
(-0.00835174 6.10079e-05 0)
(-0.0085635 5.90824e-05 0)
(-0.00876863 5.71557e-05 0)
(-0.00896712 5.52344e-05 0)
(-0.00915899 5.33246e-05 0)
(-0.00934426 5.14316e-05 0)
(-0.009523 4.956e-05 0)
(-0.00969527 4.77139e-05 0)
(-0.00986115 4.58969e-05 0)
(-0.0100207 4.41121e-05 0)
(-0.0101742 4.23618e-05 0)
(-0.0103215 4.06483e-05 0)
(-0.0104629 3.8973e-05 0)
(-0.0105985 3.73372e-05 0)
(-0.0107283 3.57415e-05 0)
(-0.0108527 3.41864e-05 0)
(-0.0109716 3.26722e-05 0)
(-0.0110852 3.11984e-05 0)
(-0.0111936 2.97646e-05 0)
(-0.011297 2.83699e-05 0)
(-0.0113955 2.70133e-05 0)
(-0.0114893 2.56934e-05 0)
(-0.0115784 2.44088e-05 0)
(-0.0116629 2.31578e-05 0)
(-0.0117431 2.19384e-05 0)
(-0.0118189 2.07485e-05 0)
(-0.0118905 1.95858e-05 0)
(-0.0119579 1.84479e-05 0)
(-0.0120213 1.73323e-05 0)
(-0.0120806 1.62364e-05 0)
(-0.0121361 1.51573e-05 0)
(-0.0121877 1.40921e-05 0)
(-0.0122354 1.30378e-05 0)
(-0.0122793 1.19913e-05 0)
(-0.0123194 1.09493e-05 0)
(-0.0123558 9.90876e-06 0)
(-0.0123883 8.86632e-06 0)
(-0.0124171 7.8186e-06 0)
(-0.012442 6.76214e-06 0)
(-0.0124631 5.69346e-06 0)
(-0.0124803 4.60906e-06 0)
(-0.0124935 3.50547e-06 0)
(-0.0125027 2.3792e-06 0)
(-0.0125077 1.22674e-06 0)
(-0.0125086 4.45833e-08 0)
(-0.0125051 -1.17077e-06 0)
(-0.0124971 -2.42276e-06 0)
(-0.0124846 -3.71476e-06 0)
(-0.0124674 -5.05006e-06 0)
(-0.0124453 -6.43185e-06 0)
(-0.0124181 -7.86325e-06 0)
(-0.0123858 -9.34723e-06 0)
(-0.012348 -1.08866e-05 0)
(-0.0123047 -1.2484e-05 0)
(-0.0122556 -1.4142e-05 0)
(-0.0122005 -1.58626e-05 0)
(-0.0121392 -1.76479e-05 0)
(-0.0120714 -1.94995e-05 0)
(-0.011997 -2.14188e-05 0)
(-0.0119158 -2.34068e-05 0)
(-0.0118274 -2.5464e-05 0)
(-0.0117317 -2.75906e-05 0)
(-0.0116284 -2.97864e-05 0)
(-0.0115173 -3.20506e-05 0)
(-0.0113983 -3.43817e-05 0)
(-0.011271 -3.67778e-05 0)
(-0.0111352 -3.92364e-05 0)
(-0.0109908 -4.17542e-05 0)
(-0.0108376 -4.43271e-05 0)
(-0.0106755 -4.69506e-05 0)
(-0.0105041 -4.9619e-05 0)
(-0.0103236 -5.2326e-05 0)
(-0.0101337 -5.50643e-05 0)
(-0.0099343 -5.78257e-05 0)
(-0.00972546 -6.0601e-05 0)
(-0.00950713 -6.33803e-05 0)
(-0.00927933 -6.61523e-05 0)
(-0.00904213 -6.8905e-05 0)
(-0.00879563 -7.16251e-05 0)
(-0.00853999 -7.42986e-05 0)
(-0.00827542 -7.691e-05 0)
(-0.00800218 -7.94431e-05 0)
(-0.00772058 -8.18805e-05 0)
(-0.007431 -8.4204e-05 0)
(-0.00713389 -8.63941e-05 0)
(-0.00682975 -8.84306e-05 0)
(-0.00651915 -9.02923e-05 0)
(-0.00620276 -9.19572e-05 0)
(-0.00588128 -9.34024e-05 0)
(-0.00555553 -9.46043e-05 0)
(-0.00522639 -9.55389e-05 0)
(-0.00489481 -9.61814e-05 0)
(-0.00456184 -9.65065e-05 0)
(-0.0042286 -9.64887e-05 0)
(-0.0038963 -9.61022e-05 0)
(-0.00356623 -9.53208e-05 0)
(-0.00323976 -9.41186e-05 0)
(-0.00291834 -9.24694e-05 0)
(-0.0026035 -9.03476e-05 0)
(-0.00229684 -8.77278e-05 0)
(-0.00200005 -8.4585e-05 0)
(-0.00171487 -8.08951e-05 0)
(-0.00144309 -7.6635e-05 0)
(-0.00118658 -7.17833e-05 0)
(-0.00094723 -6.63205e-05 0)
(-0.000726956 -6.02305e-05 0)
(-0.000527681 -5.35019e-05 0)
(-0.000351298 -4.61307e-05 0)
(-0.000199632 -3.8125e-05 0)
(-7.43727e-05 -2.9513e-05 0)
(2.30215e-05 -2.03587e-05 0)
(9.14769e-05 -1.07907e-05 0)
(0.000130564 -1.05949e-06 0)
(0.000140916 8.35572e-06 0)
(0.00012485 1.65512e-05 0)
(8.77287e-05 2.17942e-05 0)
(4.20485e-05 2.08636e-05 0)
(9.63457e-06 9.63291e-06 0)
(1.85622e-05 -3.70772e-05 0)
(7.03809e-05 -7.02969e-05 0)
(0.000132095 -6.77649e-05 0)
(0.000170212 -4.20987e-05 0)
(0.000163446 -3.16149e-06 0)
(0.000100363 4.27118e-05 0)
(-2.53044e-05 9.1552e-05 0)
(-0.000216295 0.000140877 0)
(-0.00047282 0.000189141 0)
(-0.000793376 0.000235382 0)
(-0.00117532 0.000279008 0)
(-0.00161525 0.000319664 0)
(-0.00210931 0.000357155 0)
(-0.00265334 0.00039139 0)
(-0.00324303 0.000422352 0)
(-0.00387402 0.000450076 0)
(-0.00454198 0.000474634 0)
(-0.00524265 0.000496123 0)
(-0.00597187 0.000514659 0)
(-0.00672565 0.000530371 0)
(-0.00750014 0.000543396 0)
(-0.00829167 0.000553878 0)
(-0.00909677 0.000561965 0)
(-0.00991215 0.000567803 0)
(-0.0107347 0.000571543 0)
(-0.0115616 0.000573329 0)
(-0.0123901 0.000573308 0)
(-0.0132178 0.00057162 0)
(-0.0140423 0.000568404 0)
(-0.0148615 0.000563792 0)
(-0.0156735 0.000557914 0)
(-0.0164766 0.000550893 0)
(-0.0172691 0.000542847 0)
(-0.0180497 0.00053389 0)
(-0.0188172 0.000524128 0)
(-0.0195703 0.000513663 0)
(-0.0203081 0.000502591 0)
(-0.0210299 0.000491001 0)
(-0.0217348 0.000478978 0)
(-0.0224223 0.0004666 0)
(-0.023092 0.00045394 0)
(-0.0237433 0.000441066 0)
(-0.0243761 0.00042804 0)
(-0.0249901 0.000414918 0)
(-0.0255852 0.000401753 0)
(-0.0261614 0.000388591 0)
(-0.0267186 0.000375476 0)
(-0.027257 0.000362446 0)
(-0.0277767 0.000349533 0)
(-0.0282777 0.000336768 0)
(-0.0287605 0.000324177 0)
(-0.0292251 0.000311782 0)
(-0.0296719 0.000299602 0)
(-0.0301012 0.000287651 0)
(-0.0305133 0.000275944 0)
(-0.0309086 0.000264488 0)
(-0.0312873 0.00025329 0)
(-0.03165 0.000242355 0)
(-0.0319968 0.000231685 0)
(-0.0323283 0.000221279 0)
(-0.0326448 0.000211134 0)
(-0.0329466 0.000201246 0)
(-0.0332341 0.000191609 0)
(-0.0335077 0.000182213 0)
(-0.0337676 0.000173051 0)
(-0.0340142 0.000164109 0)
(-0.0342479 0.000155377 0)
(-0.0344689 0.000146841 0)
(-0.0346774 0.000138484 0)
(-0.0348737 0.000130292 0)
(-0.035058 0.000122246 0)
(-0.0352306 0.000114331 0)
(-0.0353915 0.000106526 0)
(-0.035541 9.88117e-05 0)
(-0.0356792 9.11686e-05 0)
(-0.035806 8.35754e-05 0)
(-0.0359217 7.60107e-05 0)
(-0.0360261 6.84526e-05 0)
(-0.0361194 6.08788e-05 0)
(-0.0362014 5.32667e-05 0)
(-0.0362721 4.5593e-05 0)
(-0.0363313 3.78345e-05 0)
(-0.036379 2.99677e-05 0)
(-0.036415 2.19689e-05 0)
(-0.0364391 1.38149e-05 0)
(-0.0364509 5.48193e-06 0)
(-0.0364503 -3.0532e-06 0)
(-0.036437 -1.18137e-05 0)
(-0.0364105 -2.08223e-05 0)
(-0.0363706 -3.01015e-05 0)
(-0.0363168 -3.96727e-05 0)
(-0.0362487 -4.95572e-05 0)
(-0.0361659 -5.97752e-05 0)
(-0.0360678 -7.03458e-05 0)
(-0.0359539 -8.12872e-05 0)
(-0.0358237 -9.26162e-05 0)
(-0.0356767 -0.000104348 0)
(-0.0355122 -0.000116497 0)
(-0.0353296 -0.000129074 0)
(-0.0351285 -0.00014209 0)
(-0.034908 -0.000155551 0)
(-0.0346676 -0.000169464 0)
(-0.0344067 -0.00018383 0)
(-0.0341245 -0.000198648 0)
(-0.0338206 -0.000213915 0)
(-0.0334942 -0.000229623 0)
(-0.0331448 -0.00024576 0)
(-0.0327717 -0.000262313 0)
(-0.0323745 -0.00027926 0)
(-0.0319525 -0.000296579 0)
(-0.0315054 -0.000314239 0)
(-0.0310325 -0.000332206 0)
(-0.0305337 -0.000350442 0)
(-0.0300085 -0.0003689 0)
(-0.0294566 -0.00038753 0)
(-0.028878 -0.000406275 0)
(-0.0282725 -0.000425071 0)
(-0.0276401 -0.000443847 0)
(-0.026981 -0.000462529 0)
(-0.0262953 -0.000481032 0)
(-0.0255834 -0.000499266 0)
(-0.0248459 -0.000517136 0)
(-0.0240833 -0.000534538 0)
(-0.0232963 -0.000551361 0)
(-0.0224861 -0.000567489 0)
(-0.0216536 -0.0005828 0)
(-0.0208002 -0.000597164 0)
(-0.0199273 -0.000610447 0)
(-0.0190366 -0.000622508 0)
(-0.01813 -0.000633202 0)
(-0.0172096 -0.000642381 0)
(-0.0162776 -0.000649889 0)
(-0.0153366 -0.00065557 0)
(-0.0143892 -0.000659266 0)
(-0.0134385 -0.000660815 0)
(-0.0124877 -0.000660055 0)
(-0.0115401 -0.000656825 0)
(-0.0105993 -0.000650963 0)
(-0.00966912 -0.000642312 0)
(-0.0087537 -0.000630717 0)
(-0.00785724 -0.000616029 0)
(-0.00698415 -0.000598106 0)
(-0.00613904 -0.000576817 0)
(-0.00532666 -0.000552041 0)
(-0.00455188 -0.000523677 0)
(-0.00381968 -0.000491643 0)
(-0.00313505 -0.000455888 0)
(-0.002503 -0.000416399 0)
(-0.00192844 -0.000373219 0)
(-0.00141608 -0.00032647 0)
(-0.000970281 -0.000276383 0)
(-0.000594872 -0.000223358 0)
(-0.000292833 -0.00016805 0)
(-6.58805e-05 -0.000111514 0)
(8.61613e-05 -5.54458e-05 0)
(0.000166263 -2.5785e-06 0)
(0.000181313 4.26845e-05 0)
(0.000143979 7.32522e-05 0)
(7.79838e-05 7.79502e-05 0)
(2.08642e-05 4.20344e-05 0)
(1.98114e-05 -7.86323e-05 0)
(6.81306e-05 -0.000132107 0)
(0.000111245 -0.000110692 0)
(0.000110451 -3.94794e-05 0)
(4.04871e-05 6.2949e-05 0)
(-0.000113509 0.000183372 0)
(-0.000360435 0.000312642 0)
(-0.000704691 0.000444551 0)
(-0.00114722 0.000574917 0)
(-0.00168647 0.000700948 0)
(-0.00231909 0.000820793 0)
(-0.00304051 0.000933257 0)
(-0.00384528 0.0010376 0)
(-0.00472744 0.00113341 0)
(-0.00568065 0.00122049 0)
(-0.00669845 0.00129883 0)
(-0.0077743 0.00136854 0)
(-0.00890173 0.0014298 0)
(-0.0100744 0.00148289 0)
(-0.0112861 0.00152811 0)
(-0.0125309 0.00156581 0)
(-0.0138031 0.00159635 0)
(-0.0150972 0.00162013 0)
(-0.0164081 0.00163753 0)
(-0.0177309 0.00164895 0)
(-0.0190611 0.00165481 0)
(-0.0203943 0.00165548 0)
(-0.0217266 0.00165137 0)
(-0.0230543 0.00164286 0)
(-0.0243742 0.00163032 0)
(-0.0256829 0.0016141 0)
(-0.0269778 0.00159457 0)
(-0.0282564 0.00157205 0)
(-0.0295162 0.00154687 0)
(-0.0307552 0.00151932 0)
(-0.0319718 0.0014897 0)
(-0.0331642 0.00145829 0)
(-0.034331 0.00142533 0)
(-0.0354712 0.00139108 0)
(-0.0365837 0.00135575 0)
(-0.0376677 0.00131955 0)
(-0.0387225 0.0012827 0)
(-0.0397477 0.00124535 0)
(-0.0407429 0.00120768 0)
(-0.0417078 0.00116984 0)
(-0.0426424 0.00113196 0)
(-0.0435466 0.00109418 0)
(-0.0444204 0.0010566 0)
(-0.0452642 0.00101932 0)
(-0.0460781 0.000982424 0)
(-0.0468624 0.000945997 0)
(-0.0476175 0.000910101 0)
(-0.0483439 0.000874792 0)
(-0.049042 0.000840117 0)
(-0.0497122 0.000806113 0)
(-0.0503552 0.000772808 0)
(-0.0509715 0.000740225 0)
(-0.0515616 0.000708376 0)
(-0.0521262 0.000677269 0)
(-0.0526657 0.000646903 0)
(-0.0531808 0.000617271 0)
(-0.0536721 0.000588363 0)
(-0.05414 0.000560162 0)
(-0.0545853 0.000532644 0)
(-0.0550083 0.000505782 0)
(-0.0554095 0.000479547 0)
(-0.0557896 0.000453903 0)
(-0.0561489 0.000428811 0)
(-0.0564878 0.00040423 0)
(-0.0568067 0.000380112 0)
(-0.057106 0.000356411 0)
(-0.0573859 0.000333075 0)
(-0.0576468 0.000310051 0)
(-0.0578889 0.000287284 0)
(-0.0581123 0.000264715 0)
(-0.0583171 0.000242286 0)
(-0.0585035 0.000219934 0)
(-0.0586715 0.000197597 0)
(-0.0588211 0.000175213 0)
(-0.0589522 0.000152715 0)
(-0.0590646 0.000130037 0)
(-0.0591583 0.000107115 0)
(-0.059233 8.38801e-05 0)
(-0.0592884 6.02657e-05 0)
(-0.0593241 3.62049e-05 0)
(-0.0593399 1.16308e-05 0)
(-0.0593352 -1.35228e-05 0)
(-0.0593096 -3.93214e-05 0)
(-0.0592626 -6.58296e-05 0)
(-0.0591935 -9.31104e-05 0)
(-0.0591017 -0.000121225 0)
(-0.0589865 -0.000150233 0)
(-0.0588472 -0.000180191 0)
(-0.0586831 -0.000211152 0)
(-0.0584932 -0.000243167 0)
(-0.0582768 -0.000276283 0)
(-0.058033 -0.000310543 0)
(-0.0577608 -0.000345982 0)
(-0.0574594 -0.000382635 0)
(-0.0571277 -0.000420526 0)
(-0.0567647 -0.000459675 0)
(-0.0563695 -0.000500094 0)
(-0.0559411 -0.000541788 0)
(-0.0554785 -0.000584751 0)
(-0.0549807 -0.00062897 0)
(-0.0544467 -0.000674421 0)
(-0.0538756 -0.00072107 0)
(-0.0532665 -0.000768869 0)
(-0.0526185 -0.000817759 0)
(-0.0519308 -0.00086767 0)
(-0.0512027 -0.000918514 0)
(-0.0504335 -0.000970191 0)
(-0.0496226 -0.00102259 0)
(-0.0487695 -0.00107557 0)
(-0.0478739 -0.00112898 0)
(-0.0469356 -0.00118267 0)
(-0.0459544 -0.00123644 0)
(-0.0449304 -0.0012901 0)
(-0.0438638 -0.00134343 0)
(-0.0427551 -0.00139618 0)
(-0.0416048 -0.0014481 0)
(-0.0404137 -0.00149892 0)
(-0.039183 -0.00154833 0)
(-0.0379138 -0.00159602 0)
(-0.0366079 -0.00164167 0)
(-0.0352668 -0.00168492 0)
(-0.0338929 -0.0017254 0)
(-0.0324883 -0.00176274 0)
(-0.031056 -0.00179654 0)
(-0.0295987 -0.00182638 0)
(-0.02812 -0.00185186 0)
(-0.0266234 -0.00187254 0)
(-0.025113 -0.00188797 0)
(-0.0235931 -0.00189773 0)
(-0.0220684 -0.00190135 0)
(-0.0205439 -0.0018984 0)
(-0.019025 -0.00188843 0)
(-0.0175174 -0.001871 0)
(-0.0160272 -0.00184569 0)
(-0.0145606 -0.00181209 0)
(-0.0131243 -0.0017698 0)
(-0.0117252 -0.00171846 0)
(-0.0103703 -0.00165775 0)
(-0.0090671 -0.00158739 0)
(-0.00782297 -0.00150716 0)
(-0.00664547 -0.0014169 0)
(-0.00554217 -0.00131658 0)
(-0.0045205 -0.00120629 0)
(-0.00358769 -0.0010863 0)
(-0.00275053 -0.000957123 0)
(-0.00201517 -0.000819629 0)
(-0.00138678 -0.000675169 0)
(-0.000869138 -0.000525801 0)
(-0.000464028 -0.000374616 0)
(-0.000170453 -0.000226225 0)
(1.64185e-05 -8.75048e-05 0)
(0.000106429 3.13641e-05 0)
(0.000116104 0.000115556 0)
(7.35527e-05 0.000144017 0)
(2.18491e-05 8.77584e-05 0)
(1.55841e-05 -0.00011368 0)
(4.29386e-05 -0.000170697 0)
(4.09228e-05 -0.000110105 0)
(-2.80845e-05 2.97006e-05 0)
(-0.000189785 0.000221178 0)
(-0.000460369 0.00044389 0)
(-0.000849913 0.000682965 0)
(-0.00136365 0.00092781 0)
(-0.00200294 0.00117095 0)
(-0.00276621 0.00140717 0)
(-0.00364967 0.00163285 0)
(-0.00464791 0.00184555 0)
(-0.00575437 0.00204367 0)
(-0.00696169 0.00222626 0)
(-0.00826201 0.00239278 0)
(-0.00964715 0.00254307 0)
(-0.0111088 0.0026772 0)
(-0.0126387 0.00279544 0)
(-0.0142286 0.00289821 0)
(-0.0158704 0.00298603 0)
(-0.0175565 0.0030595 0)
(-0.0192793 0.00311927 0)
(-0.0210317 0.00316605 0)
(-0.0228068 0.00320056 0)
(-0.0245982 0.00322354 0)
(-0.0263998 0.00323573 0)
(-0.0282059 0.00323788 0)
(-0.0300111 0.00323074 0)
(-0.0318107 0.00321502 0)
(-0.0336 0.00319143 0)
(-0.0353749 0.00316067 0)
(-0.0371316 0.00312341 0)
(-0.0388666 0.00308028 0)
(-0.0405768 0.0030319 0)
(-0.0422594 0.00297886 0)
(-0.0439119 0.00292172 0)
(-0.0455322 0.00286101 0)
(-0.0471184 0.00279724 0)
(-0.0486688 0.00273086 0)
(-0.0501821 0.00266232 0)
(-0.0516571 0.00259204 0)
(-0.0530929 0.00252038 0)
(-0.0544889 0.00244771 0)
(-0.0558444 0.00237435 0)
(-0.0571591 0.00230059 0)
(-0.0584328 0.0022267 0)
(-0.0596655 0.00215294 0)
(-0.0608572 0.00207951 0)
(-0.0620081 0.00200662 0)
(-0.0631186 0.00193444 0)
(-0.0641891 0.00186312 0)
(-0.0652199 0.00179279 0)
(-0.0662117 0.00172356 0)
(-0.067165 0.00165553 0)
(-0.0680805 0.00158877 0)
(-0.0689589 0.00152334 0)
(-0.0698009 0.00145928 0)
(-0.0706073 0.00139663 0)
(-0.0713788 0.0013354 0)
(-0.0721161 0.00127558 0)
(-0.0728201 0.00121718 0)
(-0.0734915 0.00116016 0)
(-0.074131 0.0011045 0)
(-0.0747394 0.00105015 0)
(-0.0753173 0.000997071 0)
(-0.0758654 0.000945194 0)
(-0.0763844 0.000894454 0)
(-0.0768749 0.000844778 0)
(-0.0773374 0.000796083 0)
(-0.0777724 0.000748284 0)
(-0.0781803 0.000701285 0)
(-0.0785617 0.000654989 0)
(-0.0789168 0.000609293 0)
(-0.079246 0.000564089 0)
(-0.0795494 0.000519265 0)
(-0.0798273 0.000474706 0)
(-0.0800797 0.000430293 0)
(-0.0803067 0.000385906 0)
(-0.0805083 0.000341421 0)
(-0.0806844 0.000296711 0)
(-0.0808349 0.00025165 0)
(-0.0809594 0.000206109 0)
(-0.0810577 0.000159959 0)
(-0.0811294 0.00011307 0)
(-0.081174 6.53117e-05 0)
(-0.0811912 1.6556e-05 0)
(-0.0811802 -3.33254e-05 0)
(-0.0811404 -8.44587e-05 0)
(-0.0810712 -0.000136968 0)
(-0.0809716 -0.000190975 0)
(-0.0808409 -0.000246597 0)
(-0.0806781 -0.000303947 0)
(-0.0804824 -0.000363135 0)
(-0.0802525 -0.000424262 0)
(-0.0799875 -0.000487426 0)
(-0.0796862 -0.000552714 0)
(-0.0793475 -0.000620206 0)
(-0.07897 -0.000689973 0)
(-0.0785527 -0.000762074 0)
(-0.0780941 -0.000836557 0)
(-0.0775931 -0.000913457 0)
(-0.0770482 -0.000992795 0)
(-0.0764582 -0.00107457 0)
(-0.0758218 -0.00115878 0)
(-0.0751376 -0.00124539 0)
(-0.0744044 -0.00133435 0)
(-0.073621 -0.00142559 0)
(-0.0727861 -0.00151901 0)
(-0.0718988 -0.0016145 0)
(-0.0709578 -0.00171191 0)
(-0.0699622 -0.00181107 0)
(-0.0689113 -0.00191178 0)
(-0.0678042 -0.00201383 0)
(-0.0666404 -0.00211693 0)
(-0.0654194 -0.00222081 0)
(-0.0641409 -0.00232515 0)
(-0.0628049 -0.00242957 0)
(-0.0614115 -0.00253369 0)
(-0.059961 -0.00263708 0)
(-0.058454 -0.00273927 0)
(-0.0568915 -0.00283977 0)
(-0.0552745 -0.00293804 0)
(-0.0536045 -0.00303349 0)
(-0.0518834 -0.00312554 0)
(-0.0501131 -0.00321354 0)
(-0.0482962 -0.0032968 0)
(-0.0464355 -0.00337464 0)
(-0.0445343 -0.0034463 0)
(-0.0425963 -0.00351105 0)
(-0.0406253 -0.00356807 0)
(-0.0386261 -0.00361659 0)
(-0.0366034 -0.00365576 0)
(-0.0345627 -0.00368476 0)
(-0.0325098 -0.00370274 0)
(-0.0304508 -0.00370886 0)
(-0.0283926 -0.00370228 0)
(-0.0263422 -0.00368215 0)
(-0.0243072 -0.00364768 0)
(-0.0222956 -0.00359806 0)
(-0.0203157 -0.00353255 0)
(-0.0183762 -0.00345044 0)
(-0.0164862 -0.00335109 0)
(-0.0146549 -0.00323394 0)
(-0.0128918 -0.00309852 0)
(-0.0112066 -0.00294451 0)
(-0.00960899 -0.00277173 0)
(-0.00810858 -0.00258024 0)
(-0.00671478 -0.00237037 0)
(-0.00543659 -0.0021428 0)
(-0.00428239 -0.00189872 0)
(-0.00325961 -0.00164 0)
(-0.00237435 -0.00136939 0)
(-0.00163091 -0.00109094 0)
(-0.00103108 -0.000810438 0)
(-0.000573376 -0.000536167 0)
(-0.000252023 -0.000279878 0)
(-5.58371e-05 -5.81373e-05 0)
(3.32027e-05 0.000106154 0)
(4.35732e-05 0.000181885 0)
(1.67375e-05 0.000125152 0)
(8.69835e-06 -0.000131063 0)
(4.50195e-06 -0.000164846 0)
(-6.07259e-05 -4.07321e-05 0)
(-0.000218706 0.000191233 0)
(-0.000492944 0.000495199 0)
(-0.000899423 0.000843913 0)
(-0.00144821 0.00121692 0)
(-0.00214456 0.00159913 0)
(-0.00298979 0.00197956 0)
(-0.00398211 0.00235026 0)
(-0.00511731 0.00270553 0)
(-0.0063893 0.00304143 0)
(-0.00779065 0.00335525 0)
(-0.0093129 0.00364527 0)
(-0.010947 0.00391049 0)
(-0.0126833 0.00415045 0)
(-0.0145121 0.00436514 0)
(-0.0164236 0.00455485 0)
(-0.018408 0.00472013 0)
(-0.0204558 0.00486172 0)
(-0.0225575 0.00498048 0)
(-0.0247043 0.0050774 0)
(-0.0268873 0.00515354 0)
(-0.0290984 0.00521001 0)
(-0.0313296 0.00524795 0)
(-0.0335736 0.00526853 0)
(-0.0358233 0.00527292 0)
(-0.0380723 0.00526228 0)
(-0.0403146 0.00523775 0)
(-0.0425444 0.00520047 0)
(-0.0447568 0.00515153 0)
(-0.0469468 0.00509201 0)
(-0.0491104 0.00502291 0)
(-0.0512436 0.00494525 0)
(-0.0533428 0.00485996 0)
(-0.0554052 0.00476793 0)
(-0.0574278 0.00467004 0)
(-0.0594084 0.00456708 0)
(-0.0613448 0.00445981 0)
(-0.0632354 0.00434896 0)
(-0.0650787 0.00423517 0)
(-0.0668734 0.00411908 0)
(-0.0686188 0.00400126 0)
(-0.070314 0.00388223 0)
(-0.0719587 0.00376247 0)
(-0.0735524 0.00364243 0)
(-0.0750952 0.00352251 0)
(-0.0765871 0.00340307 0)
(-0.0780283 0.00328442 0)
(-0.0794191 0.00316686 0)
(-0.0807599 0.00305064 0)
(-0.0820514 0.00293596 0)
(-0.0832942 0.00282302 0)
(-0.084489 0.00271196 0)
(-0.0856366 0.00260293 0)
(-0.0867378 0.002496 0)
(-0.0877935 0.00239126 0)
(-0.0888046 0.00228876 0)
(-0.089772 0.00218852 0)
(-0.0906966 0.00209055 0)
(-0.0915793 0.00199484 0)
(-0.0924212 0.00190135 0)
(-0.093223 0.00181004 0)
(-0.0939857 0.00172083 0)
(-0.0947101 0.00163365 0)
(-0.095397 0.00154841 0)
(-0.0960473 0.00146499 0)
(-0.0966616 0.00138328 0)
(-0.0972406 0.00130315 0)
(-0.097785 0.00122445 0)
(-0.0982952 0.00114704 0)
(-0.0987719 0.00107075 0)
(-0.0992154 0.000995432 0)
(-0.0996261 0.000920898 0)
(-0.100004 0.000846972 0)
(-0.10035 0.000773467 0)
(-0.100664 0.000700194 0)
(-0.100946 0.000626955 0)
(-0.101195 0.000553552 0)
(-0.101412 0.000479782 0)
(-0.101597 0.000405439 0)
(-0.101749 0.000330316 0)
(-0.101868 0.000254205 0)
(-0.101953 0.000176896 0)
(-0.102004 9.81809e-05 0)
(-0.10202 1.78519e-05 0)
(-0.102001 -6.42968e-05 0)
(-0.101945 -0.000148468 0)
(-0.101853 -0.000234862 0)
(-0.101722 -0.000323671 0)
(-0.101552 -0.000415086 0)
(-0.101342 -0.000509287 0)
(-0.10109 -0.000606447 0)
(-0.100795 -0.000706732 0)
(-0.100456 -0.000810292 0)
(-0.100072 -0.000917268 0)
(-0.0996411 -0.00102779 0)
(-0.0991615 -0.00114196 0)
(-0.0986319 -0.00125988 0)
(-0.0980509 -0.00138161 0)
(-0.0974168 -0.00150722 0)
(-0.096728 -0.00163673 0)
(-0.0959829 -0.00177014 0)
(-0.09518 -0.00190743 0)
(-0.0943176 -0.00204855 0)
(-0.0933942 -0.0021934 0)
(-0.0924084 -0.00234188 0)
(-0.0913587 -0.00249382 0)
(-0.0902438 -0.00264904 0)
(-0.0890624 -0.00280728 0)
(-0.0878134 -0.00296827 0)
(-0.0864957 -0.00313169 0)
(-0.0851085 -0.00329716 0)
(-0.0836511 -0.00346426 0)
(-0.082123 -0.00363252 0)
(-0.080524 -0.0038014 0)
(-0.0788539 -0.00397032 0)
(-0.077113 -0.00413865 0)
(-0.0753018 -0.00430569 0)
(-0.073421 -0.0044707 0)
(-0.0714717 -0.00463285 0)
(-0.0694555 -0.00479128 0)
(-0.0673742 -0.00494508 0)
(-0.06523 -0.00509326 0)
(-0.0630255 -0.0052348 0)
(-0.0607639 -0.0053686 0)
(-0.0584487 -0.00549354 0)
(-0.0560838 -0.00560843 0)
(-0.0536739 -0.00571207 0)
(-0.0512239 -0.0058032 0)
(-0.0487394 -0.00588054 0)
(-0.0462264 -0.00594276 0)
(-0.0436915 -0.00598856 0)
(-0.0411419 -0.00601658 0)
(-0.0385852 -0.00602551 0)
(-0.0360295 -0.006014 0)
(-0.0334836 -0.00598075 0)
(-0.0309567 -0.0059245 0)
(-0.0284585 -0.00584403 0)
(-0.0259989 -0.00573818 0)
(-0.0235887 -0.00560588 0)
(-0.0212386 -0.00544619 0)
(-0.0189598 -0.00525829 0)
(-0.0167636 -0.00504155 0)
(-0.0146615 -0.00479556 0)
(-0.012665 -0.0045202 0)
(-0.0107855 -0.00421571 0)
(-0.00903378 -0.00388278 0)
(-0.00742044 -0.00352274 0)
(-0.00595505 -0.00313766 0)
(-0.00464606 -0.00273069 0)
(-0.00350033 -0.00230632 0)
(-0.00252262 -0.00187092 0)
(-0.00171496 -0.00143336 0)
(-0.00107588 -0.00100582 0)
(-0.000599566 -0.000605064 0)
(-0.000274822 -0.000253859 0)
(-8.38736e-05 1.73197e-05 0)
(-8.4507e-07 0.00016815 0)
(8.7407e-06 0.000141894 0)
(6.6932e-07 -0.000125867 0)
(-4.10556e-05 -0.000102924 0)
(-0.000181026 0.000112704 0)
(-0.000441993 0.000461968 0)
(-0.000843364 0.000901898 0)
(-0.00139971 0.00139917 0)
(-0.00212014 0.00192815 0)
(-0.00300916 0.00246948 0)
(-0.00406759 0.00300863 0)
(-0.00529313 0.00353483 0)
(-0.00668099 0.00404019 0)
(-0.00822446 0.00451904 0)
(-0.00991528 0.00496743 0)
(-0.0117441 0.00538272 0)
(-0.0137008 0.0057633 0)
(-0.0157746 0.00610835 0)
(-0.0179547 0.00641767 0)
(-0.0202298 0.00669152 0)
(-0.022589 0.00693055 0)
(-0.0250214 0.00713571 0)
(-0.0275161 0.00730814 0)
(-0.030063 0.00744918 0)
(-0.0326519 0.00756027 0)
(-0.0352734 0.00764296 0)
(-0.0379183 0.00769884 0)
(-0.0405781 0.00772956 0)
(-0.0432447 0.00773676 0)
(-0.0459104 0.0077221 0)
(-0.0485681 0.00768721 0)
(-0.0512115 0.00763371 0)
(-0.0538343 0.00756317 0)
(-0.0564311 0.00747713 0)
(-0.0589969 0.00737707 0)
(-0.061527 0.00726441 0)
(-0.0640174 0.00714054 0)
(-0.0664644 0.00700675 0)
(-0.0688648 0.00686428 0)
(-0.0712157 0.00671431 0)
(-0.0735147 0.00655795 0)
(-0.0757597 0.00639624 0)
(-0.077949 0.00623014 0)
(-0.0800811 0.00606057 0)
(-0.0821549 0.00588836 0)
(-0.0841696 0.00571428 0)
(-0.0861246 0.00553905 0)
(-0.0880194 0.0053633 0)
(-0.089854 0.00518764 0)
(-0.0916284 0.00501258 0)
(-0.0933427 0.00483861 0)
(-0.0949974 0.00466614 0)
(-0.096593 0.00449554 0)
(-0.09813 0.00432713 0)
(-0.0996093 0.00416119 0)
(-0.101032 0.00399794 0)
(-0.102398 0.00383758 0)
(-0.103709 0.00368025 0)
(-0.104966 0.00352607 0)
(-0.10617 0.0033751 0)
(-0.107322 0.0032274 0)
(-0.108423 0.00308297 0)
(-0.109474 0.0029418 0)
(-0.110476 0.00280384 0)
(-0.111431 0.00266903 0)
(-0.112339 0.00253726 0)
(-0.113201 0.00240843 0)
(-0.114019 0.0022824 0)
(-0.114792 0.00215902 0)
(-0.115523 0.0020381 0)
(-0.116211 0.00191947 0)
(-0.116858 0.00180293 0)
(-0.117464 0.00168824 0)
(-0.11803 0.00157519 0)
(-0.118556 0.00146353 0)
(-0.119043 0.001353 0)
(-0.11949 0.00124336 0)
(-0.119899 0.00113432 0)
(-0.120269 0.00102561 0)
(-0.120601 0.000916947 0)
(-0.120894 0.000808036 0)
(-0.121149 0.000698585 0)
(-0.121364 0.000588295 0)
(-0.12154 0.000476865 0)
(-0.121677 0.000363992 0)
(-0.121773 0.000249372 0)
(-0.121828 0.000132703 0)
(-0.121842 1.36824e-05 0)
(-0.121813 -0.000107987 0)
(-0.12174 -0.000232599 0)
(-0.121624 -0.000360443 0)
(-0.121461 -0.000491799 0)
(-0.121252 -0.00062694 0)
(-0.120995 -0.000766127 0)
(-0.120688 -0.000909611 0)
(-0.12033 -0.00105763 0)
(-0.119919 -0.00121039 0)
(-0.119454 -0.00136811 0)
(-0.118934 -0.00153096 0)
(-0.118356 -0.00169909 0)
(-0.117718 -0.00187264 0)
(-0.11702 -0.00205172 0)
(-0.116258 -0.00223638 0)
(-0.115432 -0.00242668 0)
(-0.114539 -0.0026226 0)
(-0.113577 -0.00282411 0)
(-0.112546 -0.00303113 0)
(-0.111442 -0.00324352 0)
(-0.110264 -0.0034611 0)
(-0.109011 -0.00368364 0)
(-0.10768 -0.00391085 0)
(-0.106272 -0.00414238 0)
(-0.104784 -0.00437782 0)
(-0.103214 -0.00461668 0)
(-0.101563 -0.00485842 0)
(-0.0998298 -0.00510241 0)
(-0.0980131 -0.00534797 0)
(-0.096113 -0.00559431 0)
(-0.0941294 -0.0058406 0)
(-0.0920626 -0.00608588 0)
(-0.0899134 -0.00632917 0)
(-0.0876825 -0.00656935 0)
(-0.0853715 -0.00680525 0)
(-0.082982 -0.00703562 0)
(-0.0805162 -0.00725911 0)
(-0.0779768 -0.0074743 0)
(-0.075367 -0.0076797 0)
(-0.0726903 -0.00787375 0)
(-0.069951 -0.00805479 0)
(-0.0671537 -0.00822114 0)
(-0.0643039 -0.00837104 0)
(-0.0614072 -0.00850267 0)
(-0.0584703 -0.0086142 0)
(-0.0555002 -0.00870374 0)
(-0.0525046 -0.00876939 0)
(-0.0494918 -0.00880924 0)
(-0.0464707 -0.00882139 0)
(-0.0434507 -0.00880395 0)
(-0.040442 -0.00875509 0)
(-0.0374552 -0.008673 0)
(-0.0345015 -0.00855599 0)
(-0.0315925 -0.00840246 0)
(-0.0287403 -0.00821096 0)
(-0.0259573 -0.0079802 0)
(-0.0232563 -0.00770912 0)
(-0.0206503 -0.00739695 0)
(-0.0181522 -0.00704323 0)
(-0.015775 -0.00664797 0)
(-0.0135314 -0.00621167 0)
(-0.0114338 -0.00573556 0)
(-0.00949382 -0.0052217 0)
(-0.0077221 -0.00467327 0)
(-0.00612798 -0.00409487 0)
(-0.00471907 -0.00349296 0)
(-0.00350075 -0.0028764 0)
(-0.00247558 -0.00225723 0)
(-0.00164267 -0.00165157 0)
(-0.000996968 -0.00108093 0)
(-0.000528365 -0.000573809 0)
(-0.00022068 -0.000167366 0)
(-5.27518e-05 9.03003e-05 0)
(-4.33462e-07 0.000132737 0)
(-7.72272e-06 -9.5804e-05 0)
(-8.99872e-05 2.18096e-05 0)
(-0.000311408 0.000359936 0)
(-0.000684143 0.000853183 0)
(-0.00122226 0.00145292 0)
(-0.00193802 0.00212069 0)
(-0.00283876 0.00282633 0)
(-0.00392767 0.00354654 0)
(-0.00520453 0.00426346 0)
(-0.00666624 0.00496358 0)
(-0.00830727 0.00563676 0)
(-0.0101201 0.00627557 0)
(-0.0120958 0.00687472 0)
(-0.0142241 0.00743056 0)
(-0.0164939 0.00794078 0)
(-0.0188935 0.00840411 0)
(-0.021411 0.00882008 0)
(-0.0240341 0.00918893 0)
(-0.0267507 0.00951135 0)
(-0.0295487 0.00978847 0)
(-0.0324163 0.0100217 0)
(-0.0353418 0.0102128 0)
(-0.0383143 0.0103636 0)
(-0.041323 0.010476 0)
(-0.0443578 0.0105523 0)
(-0.047409 0.0105945 0)
(-0.0504676 0.0106048 0)
(-0.0535249 0.0105854 0)
(-0.056573 0.0105385 0)
(-0.0596045 0.0104663 0)
(-0.0626126 0.0103708 0)
(-0.0655909 0.0102542 0)
(-0.0685339 0.0101184 0)
(-0.0714362 0.00996536 0)
(-0.0742932 0.00979695 0)
(-0.0771008 0.00961491 0)
(-0.0798552 0.00942094 0)
(-0.0825533 0.00921663 0)
(-0.0851921 0.00900348 0)
(-0.0877693 0.00878291 0)
(-0.0902829 0.00855625 0)
(-0.0927312 0.00832472 0)
(-0.095113 0.00808948 0)
(-0.0974272 0.00785157 0)
(-0.099673 0.00761197 0)
(-0.10185 0.00737157 0)
(-0.103958 0.00713117 0)
(-0.105998 0.0068915 0)
(-0.107968 0.0066532 0)
(-0.10987 0.00641687 0)
(-0.111705 0.006183 0)
(-0.113472 0.00595204 0)
(-0.115173 0.00572436 0)
(-0.116809 0.00550029 0)
(-0.11838 0.00528009 0)
(-0.119888 0.00506395 0)
(-0.121334 0.00485205 0)
(-0.122719 0.00464448 0)
(-0.124044 0.00444132 0)
(-0.12531 0.00424257 0)
(-0.126519 0.00404822 0)
(-0.127672 0.00385822 0)
(-0.12877 0.00367246 0)
(-0.129813 0.00349083 0)
(-0.130805 0.00331318 0)
(-0.131744 0.00313931 0)
(-0.132633 0.00296903 0)
(-0.133472 0.00280209 0)
(-0.134262 0.00263825 0)
(-0.135005 0.00247723 0)
(-0.1357 0.00231872 0)
(-0.136348 0.00216243 0)
(-0.136951 0.00200802 0)
(-0.137508 0.00185516 0)
(-0.13802 0.00170347 0)
(-0.138487 0.00155261 0)
(-0.138909 0.00140218 0)
(-0.139286 0.00125181 0)
(-0.139619 0.0011011 0)
(-0.139907 0.000949644 0)
(-0.14015 0.000797046 0)
(-0.140348 0.000642892 0)
(-0.140499 0.000486772 0)
(-0.140604 0.000328275 0)
(-0.140661 0.00016699 0)
(-0.14067 2.50749e-06 0)
(-0.14063 -0.000165575 0)
(-0.14054 -0.000337657 0)
(-0.140399 -0.000514127 0)
(-0.140205 -0.000695365 0)
(-0.139957 -0.00088174 0)
(-0.139653 -0.0010736 0)
(-0.139293 -0.00127129 0)
(-0.138873 -0.00147512 0)
(-0.138394 -0.00168539 0)
(-0.137852 -0.00190236 0)
(-0.137245 -0.00212628 0)
(-0.136573 -0.00235734 0)
(-0.135833 -0.00259573 0)
(-0.135022 -0.00284159 0)
(-0.134139 -0.00309499 0)
(-0.133182 -0.00335598 0)
(-0.132149 -0.00362456 0)
(-0.131037 -0.00390067 0)
(-0.129845 -0.00418419 0)
(-0.12857 -0.00447493 0)
(-0.127212 -0.00477264 0)
(-0.125767 -0.00507699 0)
(-0.124234 -0.00538759 0)
(-0.122612 -0.00570395 0)
(-0.120899 -0.00602551 0)
(-0.119093 -0.0063516 0)
(-0.117195 -0.00668148 0)
(-0.115203 -0.00701429 0)
(-0.113116 -0.00734908 0)
(-0.110934 -0.00768481 0)
(-0.108657 -0.00802032 0)
(-0.106286 -0.00835432 0)
(-0.103821 -0.00868546 0)
(-0.101263 -0.00901223 0)
(-0.0986146 -0.00933304 0)
(-0.0958769 -0.00964618 0)
(-0.0930527 -0.00994983 0)
(-0.090145 -0.0102421 0)
(-0.0871573 -0.0105209 0)
(-0.0840939 -0.0107842 0)
(-0.0809595 -0.0110297 0)
(-0.0777594 -0.0112551 0)
(-0.0744997 -0.0114581 0)
(-0.0711869 -0.0116363 0)
(-0.0678284 -0.0117871 0)
(-0.0644321 -0.011908 0)