/*--------------------------------*- C++ -*----------------------------------*\
  =========                 |
  \\      /  F ield         | OpenFOAM: The Open Source CFD Toolbox
   \\    /   O peration     | Website:  https://openfoam.org
    \\  /    A nd           | Version:  7
     \\/     M anipulation  |
\*---------------------------------------------------------------------------*/
FoamFile
{
    version     2.0;
    format      ascii;
    class       surfaceScalarField;
    location    "0.025";
    object      phi;
}
// * * * * * * * * * * * * * * * * * * * * * * * * * * * * * * * * * * * * * //

dimensions      [0 3 -1 0 0 0 0];

internalField   nonuniform List<scalar> 
101920
(
4.79788e-13
-4.68091e-13
1.0332e-11
-9.85163e-12
2.80752e-11
-1.77456e-11
4.11128e-11
-1.30341e-11
4.69929e-11
-5.87957e-12
4.77523e-11
-7.60662e-13
4.54189e-11
2.33457e-12
4.13346e-11
4.08356e-12
3.63059e-11
5.02895e-12
3.07602e-11
5.54522e-12
2.49375e-11
5.8221e-12
1.89859e-11
5.95103e-12
1.29785e-11
6.00796e-12
6.93625e-12
6.04199e-12
8.80074e-13
6.05609e-12
-5.1761e-12
6.05606e-12
-1.12003e-11
6.02424e-12
-1.71738e-11
5.97389e-12
-2.31016e-11
5.92746e-12
-2.89787e-11
5.87733e-12
-3.48089e-11
5.82878e-12
-4.057e-11
5.75998e-12
-4.62453e-11
5.67402e-12
-5.18391e-11
5.59305e-12
-5.73499e-11
5.5115e-12
-6.27832e-11
5.4342e-12
-6.81407e-11
5.35783e-12
-7.34083e-11
5.26834e-12
-7.8583e-11
5.17454e-12
-8.36628e-11
5.08028e-12
-8.86478e-11
4.98627e-12
-9.35456e-11
4.8984e-12
-9.83545e-11
4.80977e-12
-1.03073e-10
4.7188e-12
-1.07706e-10
4.63258e-12
-1.1225e-10
4.54413e-12
-1.16702e-10
4.45307e-12
-1.21065e-10
4.36317e-12
-1.25331e-10
4.26672e-12
-1.29503e-10
4.17237e-12
-1.3359e-10
4.08664e-12
-1.37589e-10
3.99838e-12
-1.41493e-10
3.90443e-12
-1.45306e-10
3.81183e-12
-1.49021e-10
3.71499e-12
-1.52638e-10
3.61657e-12
-1.56167e-10
3.52797e-12
-1.59609e-10
3.44105e-12
-1.62955e-10
3.34503e-12
-1.66205e-10
3.2497e-12
-1.69365e-10
3.16072e-12
-1.72432e-10
3.0683e-12
-1.75405e-10
2.97411e-12
-1.78289e-10
2.88544e-12
-1.81078e-10
2.79147e-12
-1.83762e-10
2.68443e-12
-1.86341e-10
2.57908e-12
-1.88825e-10
2.48447e-12
-1.91218e-10
2.39163e-12
-1.93516e-10
2.29693e-12
-1.95721e-10
2.20333e-12
-1.97826e-10
2.10317e-12
-1.9982e-10
1.99226e-12
-2.01705e-10
1.88455e-12
-2.03491e-10
1.78764e-12
-2.05178e-10
1.68786e-12
-2.06752e-10
1.57509e-12
-2.08207e-10
1.45618e-12
-2.09544e-10
1.33729e-12
-2.10761e-10
1.21632e-12
-2.11857e-10
1.0957e-12
-2.12839e-10
9.82513e-13
-2.13714e-10
8.74075e-13
-2.14474e-10
7.59794e-13
-2.15113e-10
6.38992e-13
-2.15635e-10
5.21289e-13
-2.16045e-10
4.094e-13
-2.16341e-10
2.9706e-13
-2.16524e-10
1.84052e-13
-2.16602e-10
7.81354e-14
-2.16582e-10
-1.99582e-14
-2.16462e-10
-1.19991e-13
-2.16236e-10
-2.26631e-13
-2.15904e-10
-3.32409e-13
-2.15472e-10
-4.32489e-13
-2.14938e-10
-5.33779e-13
-2.14297e-10
-6.41911e-13
-2.13546e-10
-7.50652e-13
-2.12695e-10
-8.52252e-13
-2.11744e-10
-9.50262e-13
-2.10691e-10
-1.05364e-12
-2.09529e-10
-1.16288e-12
-2.08259e-10
-1.27057e-12
-2.06885e-10
-1.37349e-12
-2.0541e-10
-1.47544e-12
-2.03831e-10
-1.57863e-12
-2.0215e-10
-1.6809e-12
-2.00367e-10
-1.78208e-12
-1.98482e-10
-1.88546e-12
-1.96491e-10
-1.99088e-12
-1.94399e-10
-2.09262e-12
-1.92211e-10
-2.18779e-12
-1.89928e-10
-2.28223e-12
-1.87545e-10
-2.38305e-12
-1.85056e-10
-2.48861e-12
-1.82465e-10
-2.59125e-12
-1.79777e-10
-2.68785e-12
-1.76994e-10
-2.7826e-12
-1.74115e-10
-2.87903e-12
-1.71141e-10
-2.97462e-12
-1.68075e-10
-3.06572e-12
-1.64921e-10
-3.15362e-12
-1.61679e-10
-3.24195e-12
-1.58348e-10
-3.33019e-12
-1.54934e-10
-3.41445e-12
-1.5144e-10
-3.49434e-12
-1.47866e-10
-3.57419e-12
-1.44209e-10
-3.65618e-12
-1.40472e-10
-3.73602e-12
-1.36663e-10
-3.80825e-12
-1.32789e-10
-3.87365e-12
-1.28852e-10
-3.93804e-12
-1.24848e-10
-4.00461e-12
-1.20779e-10
-4.0705e-12
-1.16647e-10
-4.13168e-12
-1.12458e-10
-4.18892e-12
-1.08211e-10
-4.24596e-12
-1.03906e-10
-4.30289e-12
-9.95495e-11
-4.35582e-12
-9.51462e-11
-4.40319e-12
-9.06981e-11
-4.44843e-12
-8.62035e-11
-4.49512e-12
-8.16625e-11
-4.54134e-12
-7.70823e-11
-4.58053e-12
-7.24739e-11
-4.60876e-12
-6.7846e-11
-4.62832e-12
-6.32036e-11
-4.64257e-12
-5.85534e-11
-4.64993e-12
-5.39077e-11
-4.64512e-12
-4.92824e-11
-4.62495e-12
-4.46917e-11
-4.59061e-12
-4.01487e-11
-4.54343e-12
-3.5669e-11
-4.48022e-12
-3.12755e-11
-4.39388e-12
-2.69973e-11
-4.27831e-12
-2.2866e-11
-4.13135e-12
-1.89137e-11
-3.95216e-12
-1.51757e-11
-3.73763e-12
-1.16924e-11
-3.48271e-12
-8.50801e-12
-3.18393e-12
-5.66734e-12
-2.84049e-12
-3.21602e-12
-2.45155e-12
-1.20268e-12
-2.01394e-12
3.21458e-13
-1.52491e-12
1.31098e-12
-9.90013e-13
1.74349e-12
-4.32325e-13
1.64321e-12
1.00948e-13
1.11634e-12
5.27394e-13
4.14899e-13
7.01511e-13
4.14688e-13
-8.52545e-12
8.05792e-12
-7.87244e-12
-1.05013e-11
4.78598e-12
-3.04051e-11
1.72915e-11
-2.55407e-11
2.49547e-11
-1.35433e-11
2.71872e-11
-2.99289e-12
2.49754e-11
4.54607e-12
1.94816e-11
9.57607e-12
1.16519e-11
1.28582e-11
2.14067e-12
1.50571e-11
-8.6215e-12
1.65845e-11
-2.03281e-11
1.76578e-11
-3.277e-11
1.8449e-11
-4.57638e-11
1.90368e-11
-5.91976e-11
1.94901e-11
-7.29648e-11
1.98227e-11
-8.69784e-11
2.00378e-11
-1.01181e-10
2.01739e-11
-1.15487e-10
2.02335e-11
-1.29859e-10
2.02485e-11
-1.44244e-10
2.02141e-11
-1.58606e-10
2.01225e-11
-1.72921e-10
1.99882e-11
-1.8715e-10
1.9821e-11
-2.01274e-10
1.96329e-11
-2.15275e-10
1.94328e-11
-2.29127e-10
1.92099e-11
-2.42827e-10
1.89676e-11
-2.56364e-10
1.87104e-11
-2.69723e-10
1.84378e-11
-2.82902e-10
1.81629e-11
-2.95892e-10
1.78867e-11
-3.08685e-10
1.76013e-11
-3.21281e-10
1.73133e-11
-3.33671e-10
1.70216e-11
-3.45849e-10
1.67204e-11
-3.57816e-10
1.64177e-11
-3.69565e-10
1.61117e-11
-3.81092e-10
1.57948e-11
-3.92398e-10
1.54794e-11
-4.03476e-10
1.51672e-11
-4.1432e-10
1.48442e-11
-4.24932e-10
1.4517e-11
-4.35307e-10
1.41897e-11
-4.45438e-10
1.38484e-11
-4.55327e-10
1.35071e-11
-4.64974e-10
1.31769e-11
-4.74371e-10
1.28405e-11
-4.83523e-10
1.24965e-11
-4.92432e-10
1.21593e-11
-5.01091e-10
1.18202e-11
-5.09496e-10
1.14713e-11
-5.17649e-10
1.11244e-11
-5.25543e-10
1.07778e-11
-5.33172e-10
1.04174e-11
-5.40537e-10
1.00482e-11
-5.47642e-10
9.68338e-12
-5.54478e-10
9.32022e-12
-5.61039e-10
8.95294e-12
-5.67327e-10
8.58604e-12
-5.73338e-10
8.21692e-12
-5.79067e-10
7.83302e-12
-5.84509e-10
7.43568e-12
-5.89665e-10
7.04037e-12
-5.94528e-10
6.64954e-12
-5.99093e-10
6.2505e-12
-6.03357e-10
5.83878e-12
-6.07322e-10
5.42056e-12
-6.10983e-10
4.99724e-12
-6.14334e-10
4.56732e-12
-6.17376e-10
4.13753e-12
-6.20108e-10
3.71544e-12
-6.22529e-10
3.29533e-12
-6.24634e-10
2.86617e-12
-6.26423e-10
2.42998e-12
-6.27899e-10
1.99736e-12
-6.29059e-10
1.56948e-12
-6.29903e-10
1.14039e-12
-6.30433e-10
7.12559e-13
-6.3065e-10
2.94093e-13
-6.30553e-10
-1.16806e-13
-6.30142e-10
-5.30529e-13
-6.29418e-10
-9.49667e-13
-6.28385e-10
-1.36632e-12
-6.27041e-10
-1.77728e-12
-6.25386e-10
-2.18914e-12
-6.23425e-10
-2.60483e-12
-6.21159e-10
-3.018e-12
-6.18588e-10
-3.42457e-12
-6.15709e-10
-3.82965e-12
-6.12524e-10
-4.23848e-12
-6.09039e-10
-4.64817e-12
-6.05256e-10
-5.05317e-12
-6.01176e-10
-5.45371e-12
-5.96798e-10
-5.85289e-12
-5.92127e-10
-6.24956e-12
-5.87166e-10
-6.641e-12
-5.81918e-10
-7.02958e-12
-5.76383e-10
-7.41953e-12
-5.70566e-10
-7.8087e-12
-5.64468e-10
-8.19037e-12
-5.58094e-10
-8.56339e-12
-5.51442e-10
-8.93487e-12
-5.44516e-10
-9.31032e-12
-5.37318e-10
-9.68625e-12
-5.29853e-10
-1.00558e-11
-5.22122e-10
-1.04182e-11
-5.14126e-10
-1.0778e-11
-5.05867e-10
-1.11367e-11
-4.9735e-10
-1.14903e-11
-4.8858e-10
-1.18357e-11
-4.79559e-10
-1.21746e-11
-4.70292e-10
-1.25092e-11
-4.60784e-10
-1.28378e-11
-4.51041e-10
-1.31564e-11
-4.4107e-10
-1.34656e-11
-4.30875e-10
-1.37697e-11
-4.20463e-10
-1.40698e-11
-4.09838e-10
-1.43611e-11
-3.99007e-10
-1.4639e-11
-3.87975e-10
-1.49056e-11
-3.76744e-10
-1.51669e-11
-3.65322e-10
-1.54253e-11
-3.53715e-10
-1.5677e-11
-3.41929e-10
-1.59182e-11
-3.29968e-10
-1.61494e-11
-3.1784e-10
-1.63743e-11
-3.0555e-10
-1.65926e-11
-2.93107e-10
-1.67995e-11
-2.80518e-10
-1.69922e-11
-2.67794e-10
-1.71731e-11
-2.54944e-10
-1.73448e-11
-2.41981e-10
-1.75037e-11
-2.28919e-10
-1.76421e-11
-2.15773e-10
-1.77544e-11
-2.0256e-10
-1.78407e-11
-1.89303e-10
-1.79015e-11
-1.76023e-10
-1.7931e-11
-1.62751e-10
-1.79185e-11
-1.4952e-10
-1.78555e-11
-1.36371e-10
-1.77382e-11
-1.23352e-10
-1.7562e-11
-1.10518e-10
-1.73155e-11
-9.79297e-11
-1.69825e-11
-8.56596e-11
-1.65481e-11
-7.37876e-11
-1.60022e-11
-6.24034e-11
-1.53355e-11
-5.16053e-11
-1.45358e-11
-4.15003e-11
-1.35885e-11
-3.22038e-11
-1.24813e-11
-2.38361e-11
-1.12086e-11
-1.65171e-11
-9.77011e-12
-1.03594e-11
-8.17036e-12
-5.45955e-12
-6.42367e-12
-1.88312e-12
-4.56674e-12
3.58884e-13
-2.67596e-12
1.34563e-12
-8.87329e-13
1.29486e-12
5.77806e-13
6.24032e-13
1.37282e-12
1.03874e-12
-1.69152e-11
2.49707e-11
-2.96365e-11
2.21842e-12
-3.0865e-11
-2.9176e-11
-2.75338e-11
-2.88689e-11
-2.48074e-11
-1.62695e-11
-2.49122e-11
-2.8861e-12
-2.84176e-11
8.05182e-12
-3.51499e-11
1.63086e-11
-4.47162e-11
2.24251e-11
-5.66709e-11
2.70105e-11
-7.05892e-11
3.05035e-11
-8.6163e-11
3.32308e-11
-1.03097e-10
3.5385e-11
-1.2116e-10
3.70988e-11
-1.40135e-10
3.8465e-11
-1.59839e-10
3.95278e-11
-1.80135e-10
4.03326e-11
-2.00883e-10
4.0923e-11
-2.21974e-10
4.13222e-11
-2.43303e-10
4.15758e-11
-2.64778e-10
4.16888e-11
-2.8633e-10
4.16728e-11
-3.07901e-10
4.15604e-11
-3.29435e-10
4.13558e-11
-3.50887e-10
4.10851e-11
-3.72217e-10
4.07637e-11
-3.93391e-10
4.03833e-11
-4.14383e-10
3.99601e-11
-4.35171e-10
3.9501e-11
-4.55737e-10
3.90047e-11
-4.76063e-10
3.8489e-11
-4.96134e-10
3.79587e-11
-5.15939e-10
3.74056e-11
-5.35464e-10
3.68392e-11
-5.54702e-10
3.6261e-11
-5.73644e-10
3.56616e-11
-5.92275e-10
3.50497e-11
-6.10592e-10
3.44281e-11
-6.2859e-10
3.37919e-11
-6.46258e-10
3.31471e-11
-6.63589e-10
3.2498e-11
-6.8058e-10
3.18342e-11
-6.9722e-10
3.11576e-11
-7.13502e-10
3.0471e-11
-7.29428e-10
2.9772e-11
-7.44988e-10
2.90664e-11
-7.60168e-10
2.83573e-11
-7.74968e-10
2.76405e-11
-7.89386e-10
2.69152e-11
-8.03411e-10
2.61861e-11
-8.1704e-10
2.54511e-11
-8.30276e-10
2.47086e-11
-8.43109e-10
2.39602e-11
-8.55531e-10
2.32003e-11
-8.67538e-10
2.2424e-11
-8.79127e-10
2.16371e-11
-8.9029e-10
2.08457e-11
-9.01022e-10
2.00495e-11
-9.11318e-10
1.92481e-11
-9.21174e-10
1.84409e-11
-9.30582e-10
1.76225e-11
-9.39537e-10
1.67886e-11
-9.48043e-10
1.59432e-11
-9.56095e-10
1.50933e-11
-9.63683e-10
1.42381e-11
-9.70803e-10
1.33716e-11
-9.77455e-10
1.24914e-11
-9.83634e-10
1.15994e-11
-9.89335e-10
1.06972e-11
-9.94555e-10
9.78752e-12
-9.99295e-10
8.87653e-12
-1.00355e-09
7.96754e-12
-1.00731e-09
7.05604e-12
-1.01058e-09
6.1363e-12
-1.01336e-09
5.21008e-12
-1.01564e-09
4.28268e-12
-1.01743e-09
3.35475e-12
-1.01871e-09
2.42561e-12
-1.0195e-09
1.49937e-12
-1.01979e-09
5.80125e-13
-1.01957e-09
-3.34961e-13
-1.01885e-09
-1.25118e-12
-1.01763e-09
-2.16828e-12
-1.01591e-09
-3.08262e-12
-1.0137e-09
-3.99433e-12
-1.01098e-09
-4.90621e-12
-1.00777e-09
-5.81658e-12
-1.00407e-09
-6.72068e-12
-9.99872e-10
-7.61867e-12
-9.95188e-10
-8.51524e-12
-9.90016e-10
-9.41168e-12
-9.8436e-10
-1.0304e-11
-9.78224e-10
-1.11891e-11
-9.7161e-10
-1.20677e-11
-9.64523e-10
-1.29406e-11
-9.56966e-10
-1.3806e-11
-9.48945e-10
-1.46629e-11
-9.4046e-10
-1.55143e-11
-9.31518e-10
-1.63619e-11
-9.22125e-10
-1.7202e-11
-9.12285e-10
-1.80298e-11
-9.02001e-10
-1.88468e-11
-8.91277e-10
-1.96588e-11
-8.80119e-10
-2.04683e-11
-8.68533e-10
-2.12715e-11
-8.56524e-10
-2.20641e-11
-8.44096e-10
-2.28465e-11
-8.31253e-10
-2.36216e-11
-8.18001e-10
-2.43888e-11
-8.04345e-10
-2.51452e-11
-7.90292e-10
-2.58888e-11
-7.75845e-10
-2.66205e-11
-7.61015e-10
-2.73401e-11
-7.45808e-10
-2.80448e-11
-7.30232e-10
-2.87323e-11
-7.14293e-10
-2.94041e-11
-6.97998e-10
-3.00637e-11
-6.81356e-10
-3.07109e-11
-6.64376e-10
-3.13413e-11
-6.47064e-10
-3.19516e-11
-6.29427e-10
-3.25438e-11
-6.11473e-10
-3.31219e-11
-5.93211e-10
-3.36869e-11
-5.74652e-10
-3.42362e-11
-5.55801e-10
-3.47673e-11
-5.36669e-10
-3.52805e-11
-5.17266e-10
-3.57766e-11
-4.97605e-10
-3.62536e-11
-4.77698e-10
-3.67069e-11
-4.57557e-10
-3.71337e-11
-4.37196e-10
-3.75345e-11
-4.16633e-10
-3.79082e-11
-3.95888e-10
-3.82489e-11
-3.74984e-10
-3.85473e-11
-3.53942e-10
-3.87959e-11
-3.32791e-10
-3.89906e-11
-3.11566e-10
-3.91257e-11
-2.90308e-10
-3.91892e-11
-2.69062e-10
-3.91646e-11
-2.47882e-10
-3.90353e-11
-2.26834e-10
-3.87868e-11
-2.05993e-10
-3.8403e-11
-1.85447e-10
-3.78622e-11
-1.65292e-10
-3.71378e-11
-1.45636e-10
-3.62032e-11
-1.26603e-10
-3.50346e-11
-1.08329e-10
-3.36088e-11
-9.09633e-11
-3.19007e-11
-7.46661e-11
-2.98854e-11
-5.96036e-11
-2.7544e-11
-4.59459e-11
-2.48672e-11
-3.38598e-11
-2.18571e-11
-2.3499e-11
-1.85314e-11
-1.4989e-11
-1.4933e-11
-8.409e-12
-1.11456e-11
-3.76661e-12
-7.31791e-12
-9.61089e-13
-3.69321e-12
2.63343e-13
-6.47128e-13
3.5949e-13
1.27651e-12
1.39825e-12
-1.31242e-11
3.80986e-11
-2.78605e-11
1.69533e-11
-3.68723e-11
-2.01613e-11
-4.18392e-11
-2.39047e-11
-4.59744e-11
-1.21353e-11
-5.14393e-11
2.57907e-12
-5.93747e-11
1.59874e-11
-7.01224e-11
2.70567e-11
-8.36591e-11
3.596e-11
-9.9759e-11
4.31116e-11
-1.18159e-10
4.8902e-11
-1.38556e-10
5.36287e-11
-1.60671e-10
5.74981e-11
-1.84244e-10
6.06714e-11
-2.09026e-10
6.32482e-11
-2.34813e-10
6.53136e-11
-2.61416e-10
6.69356e-11
-2.88652e-10
6.81597e-11
-3.16384e-10
6.9054e-11
-3.44466e-10
6.96572e-11
-3.72786e-10
7.00071e-11
-4.01259e-10
7.01455e-11
-4.29788e-10
7.0088e-11
-4.583e-10
6.98674e-11
-4.86735e-10
6.95207e-11
-5.15029e-10
6.90573e-11
-5.43146e-10
6.84986e-11
-5.71051e-10
6.78648e-11
-5.98705e-10
6.71545e-11
-6.26085e-10
6.63848e-11
-6.53166e-10
6.55702e-11
-6.79918e-10
6.47097e-11
-7.06328e-10
6.38147e-11
-7.32381e-10
6.28922e-11
-7.5806e-10
6.19382e-11
-7.83355e-10
6.09569e-11
-8.08255e-10
5.99507e-11
-8.32745e-10
5.89188e-11
-8.56815e-10
5.78624e-11
-8.80453e-10
5.67865e-11
-9.03648e-10
5.56928e-11
-9.2639e-10
5.45775e-11
-9.48674e-10
5.34424e-11
-9.7049e-10
5.22878e-11
-9.91831e-10
5.11133e-11
-1.01268e-09
4.99207e-11
-1.03304e-09
4.87152e-11
-1.0529e-09
4.74936e-11
-1.07224e-09
4.6255e-11
-1.09105e-09
4.5002e-11
-1.10934e-09
4.37329e-11
-1.12708e-09
4.24499e-11
-1.14427e-09
4.11551e-11
-1.16092e-09
3.98437e-11
-1.17701e-09
3.85134e-11
-1.19253e-09
3.71662e-11
-1.20749e-09
3.58019e-11
-1.22186e-09
3.44218e-11
-1.23564e-09
3.30298e-11
-1.24883e-09
3.16257e-11
-1.26141e-09
3.0205e-11
-1.27339e-09
2.87659e-11
-1.28476e-09
2.73113e-11
-1.29551e-09
2.58435e-11
-1.30563e-09
2.4363e-11
-1.31513e-09
2.28698e-11
-1.324e-09
2.13629e-11
-1.33224e-09
1.98402e-11
-1.33985e-09
1.83006e-11
-1.34681e-09
1.67481e-11
-1.35312e-09
1.51889e-11
-1.35878e-09
1.3625e-11
-1.36377e-09
1.20546e-11
-1.36811e-09
1.04772e-11
-1.3718e-09
8.89481e-12
-1.37482e-09
7.30737e-12
-1.37718e-09
5.71383e-12
-1.37888e-09
4.11688e-12
-1.3799e-09
2.52174e-12
-1.38025e-09
9.29779e-13
-1.37992e-09
-6.61187e-13
-1.37892e-09
-2.25099e-12
-1.37725e-09
-3.83698e-12
-1.37492e-09
-5.41912e-12
-1.37191e-09
-7.00028e-12
-1.36824e-09
-8.58074e-12
-1.3639e-09
-1.01564e-11
-1.35889e-09
-1.17241e-11
-1.35323e-09
-1.32854e-11
-1.3469e-09
-1.48418e-11
-1.33992e-09
-1.63907e-11
-1.3323e-09
-1.79297e-11
-1.32403e-09
-1.94602e-11
-1.31511e-09
-2.09834e-11
-1.30556e-09
-2.24962e-11
-1.29537e-09
-2.39942e-11
-1.28455e-09
-2.54776e-11
-1.27312e-09
-2.69503e-11
-1.26107e-09
-2.84133e-11
-1.24841e-09
-2.98622e-11
-1.23514e-09
-3.12937e-11
-1.22128e-09
-3.27097e-11
-1.20683e-09
-3.41137e-11
-1.19179e-09
-3.55055e-11
-1.17618e-09
-3.68823e-11
-1.16e-09
-3.82432e-11
-1.14325e-09
-3.95898e-11
-1.12595e-09
-4.09219e-11
-1.10811e-09
-4.22361e-11
-1.08972e-09
-4.35297e-11
-1.07081e-09
-4.48034e-11
-1.05137e-09
-4.60588e-11
-1.03141e-09
-4.72937e-11
-1.01096e-09
-4.85035e-11
-9.90003e-10
-4.96861e-11
-9.68563e-10
-5.08439e-11
-9.46647e-10
-5.19798e-11
-9.24265e-10
-5.30926e-11
-9.01426e-10
-5.41788e-11
-8.78141e-10
-5.52366e-11
-8.54417e-10
-5.62676e-11
-8.30266e-10
-5.72731e-11
-8.05702e-10
-5.82515e-11
-7.80738e-10
-5.92007e-11
-7.55386e-10
-6.01204e-11
-7.29654e-10
-6.10114e-11
-7.03559e-10
-6.18722e-11
-6.77115e-10
-6.26973e-11
-6.50341e-10
-6.34807e-11
-6.23255e-10
-6.42196e-11
-5.95876e-10
-6.49129e-11
-5.68228e-10
-6.55563e-11
-5.40337e-10
-6.61404e-11
-5.12232e-10
-6.66532e-11
-4.83945e-10
-6.70831e-11
-4.55516e-10
-6.74194e-11
-4.26993e-10
-6.76484e-11
-3.98431e-10
-6.775e-11
-3.69895e-10
-6.77e-11
-3.41458e-10
-6.7473e-11
-3.13203e-10
-6.70426e-11
-2.85228e-10
-6.6378e-11
-2.57647e-10
-6.54422e-11
-2.3059e-10
-6.41948e-11
-2.04197e-10
-6.25954e-11
-1.78627e-10
-6.06054e-11
-1.5405e-10
-5.81858e-11
-1.30654e-10
-5.52968e-11
-1.08636e-10
-5.19022e-11
-8.82034e-11
-4.79762e-11
-6.95613e-11
-4.35087e-11
-5.29094e-11
-3.85091e-11
-3.84287e-11
-3.30129e-11
-2.62669e-11
-2.70955e-11
-1.65182e-11
-2.08943e-11
-9.19808e-12
-1.46375e-11
-4.21208e-12
-8.6788e-12
-1.31896e-12
-3.54048e-12
-1.0692e-13
6.39348e-14
1.29129e-12
-7.04203e-12
4.51412e-11
-1.94913e-11
2.94019e-11
-3.15953e-11
-8.05719e-12
-4.20534e-11
-1.34474e-11
-5.21738e-11
-2.01425e-12
-6.33733e-11
1.3777e-11
-7.66145e-11
2.92286e-11
-9.2411e-11
4.28511e-11
-1.10893e-10
5.44422e-11
-1.31978e-10
6.41963e-11
-1.55478e-10
7.24008e-11
-1.81144e-10
7.92947e-11
-2.08727e-10
8.50811e-11
-2.37952e-10
8.98965e-11
-2.68577e-10
9.38722e-11
-3.00369e-10
9.71054e-11
-3.33114e-10
9.96797e-11
-3.66629e-10
1.01674e-10
-4.00731e-10
1.03157e-10
-4.35265e-10
1.0419e-10
-4.70096e-10
1.0484e-10
-5.05107e-10
1.05156e-10
-5.40198e-10
1.05179e-10
-5.75289e-10
1.04958e-10
-6.10288e-10
1.0452e-10
-6.45131e-10
1.039e-10
-6.79767e-10
1.03136e-10
-7.14141e-10
1.02239e-10
-7.48218e-10
1.01232e-10
-7.81969e-10
1.00137e-10
-8.15355e-10
9.89557e-11
-8.4835e-10
9.77052e-11
-8.80933e-10
9.6399e-11
-9.13078e-10
9.50365e-11
-9.44767e-10
9.3626e-11
-9.75986e-10
9.21761e-11
-1.00672e-09
9.06822e-11
-1.03695e-09
8.91499e-11
-1.06667e-09
8.75823e-11
-1.09586e-09
8.59782e-11
-1.12451e-09
8.43398e-11
-1.1526e-09
8.26706e-11
-1.18013e-09
8.09691e-11
-1.20708e-09
7.92363e-11
-1.23344e-09
7.74746e-11
-1.2592e-09
7.56827e-11
-1.28435e-09
7.38638e-11
-1.30887e-09
7.20196e-11
-1.33277e-09
7.01497e-11
-1.35602e-09
6.82532e-11
-1.37862e-09
6.63301e-11
-1.40055e-09
6.43807e-11
-1.4218e-09
6.24055e-11
-1.44236e-09
6.04053e-11
-1.46223e-09
5.83815e-11
-1.4814e-09
5.63339e-11
-1.49985e-09
5.42605e-11
-1.51759e-09
5.21621e-11
-1.53461e-09
5.00416e-11
-1.55088e-09
4.78987e-11
-1.5664e-09
4.57324e-11
-1.58118e-09
4.35446e-11
-1.59521e-09
4.13359e-11
-1.60847e-09
3.91042e-11
-1.62096e-09
3.68505e-11
-1.63267e-09
3.45789e-11
-1.64359e-09
3.22904e-11
-1.65374e-09
2.99824e-11
-1.66309e-09
2.76551e-11
-1.67166e-09
2.53122e-11
-1.67942e-09
2.29562e-11
-1.68638e-09
2.05864e-11
-1.69253e-09
1.8204e-11
-1.69787e-09
1.58135e-11
-1.70239e-09
1.34163e-11
-1.70609e-09
1.10104e-11
-1.70898e-09
8.59636e-12
-1.71104e-09
6.17911e-12
-1.71228e-09
3.76178e-12
-1.71269e-09
1.34277e-12
-1.71227e-09
-1.07819e-12
-1.71103e-09
-3.49653e-12
-1.70896e-09
-5.90908e-12
-1.70606e-09
-8.31791e-12
-1.70233e-09
-1.07248e-11
-1.69779e-09
-1.31269e-11
-1.69242e-09
-1.55204e-11
-1.68624e-09
-1.79058e-11
-1.67924e-09
-2.02846e-11
-1.67143e-09
-2.26545e-11
-1.66281e-09
-2.50102e-11
-1.65339e-09
-2.73506e-11
-1.64317e-09
-2.96786e-11
-1.63216e-09
-3.19945e-11
-1.62037e-09
-3.42943e-11
-1.60779e-09
-3.65743e-11
-1.59443e-09
-3.8835e-11
-1.5803e-09
-4.1078e-11
-1.56541e-09
-4.33012e-11
-1.54977e-09
-4.55018e-11
-1.53339e-09
-4.76796e-11
-1.51626e-09
-4.98371e-11
-1.4984e-09
-5.1974e-11
-1.47982e-09
-5.40872e-11
-1.46052e-09
-5.61749e-11
-1.44053e-09
-5.82391e-11
-1.41984e-09
-6.02814e-11
-1.39846e-09
-6.22994e-11
-1.37641e-09
-6.42886e-11
-1.35369e-09
-6.6247e-11
-1.33032e-09
-6.81761e-11
-1.3063e-09
-7.00761e-11
-1.28165e-09
-7.19439e-11
-1.25638e-09
-7.37757e-11
-1.23049e-09
-7.5571e-11
-1.204e-09
-7.73315e-11
-1.17693e-09
-7.90571e-11
-1.14928e-09
-8.0745e-11
-1.12106e-09
-8.23931e-11
-1.0923e-09
-8.4002e-11
-1.06299e-09
-8.55732e-11
-1.03316e-09
-8.71051e-11
-1.00281e-09
-8.85943e-11
-9.71977e-10
-9.00383e-11
-9.4066e-10
-9.1438e-11
-9.08879e-10
-9.27932e-11
-8.76651e-10
-9.41e-11
-8.43997e-10
-9.53513e-11
-8.10937e-10
-9.65405e-11
-7.77493e-10
-9.76638e-11
-7.43689e-10
-9.87163e-11
-7.09557e-10
-9.96886e-11
-6.7513e-10
-1.00567e-10
-6.40445e-10
-1.01338e-10
-6.05543e-10
-1.01985e-10
-5.70472e-10
-1.0249e-10
-5.35293e-10
-1.02828e-10
-5.00074e-10
-1.02969e-10
-4.64895e-10
-1.02879e-10
-4.29845e-10
-1.02523e-10
-3.95027e-10
-1.01861e-10
-3.6056e-10
-1.00846e-10
-3.26578e-10
-9.94238e-11
-2.93233e-10
-9.75387e-11
-2.60694e-10
-9.51343e-11
-2.29145e-10
-9.21543e-11
-1.98789e-10
-8.85427e-11
-1.6984e-10
-8.42452e-11
-1.42527e-10
-7.92157e-11
-1.1708e-10
-7.34227e-11
-9.37324e-11
-6.68559e-11
-7.27085e-11
-5.95325e-11
-5.42132e-11
-5.15079e-11
-3.84148e-11
-4.28941e-11
-2.54257e-11
-3.38838e-11
-1.52815e-11
-2.47816e-11
-7.91869e-12
-1.60413e-11
-3.14905e-12
-8.31005e-12
-6.503e-13
-2.4352e-12
6.40971e-13
-3.01581e-12
4.81557e-11
-1.27229e-11
3.91092e-11
-2.58939e-11
5.11545e-12
-3.99248e-11
5.84031e-13
-5.46251e-11
1.26848e-11
-7.07923e-11
2.99446e-11
-8.90824e-11
4.75192e-11
-1.09898e-10
6.3667e-11
-1.3338e-10
7.7923e-11
-1.59499e-10
9.03152e-11
-1.88097e-10
1.00999e-10
-2.18969e-10
1.10166e-10
-2.51862e-10
1.17974e-10
-2.86533e-10
1.24567e-10
-3.22723e-10
1.30063e-10
-3.60188e-10
1.3457e-10
-3.98709e-10
1.382e-10
-4.38077e-10
1.41042e-10
-4.78105e-10
1.43184e-10
-5.18626e-10
1.44711e-10
-5.59486e-10
1.45699e-10
-6.00545e-10
1.46215e-10
-6.41699e-10
1.46333e-10
-6.82841e-10
1.46099e-10
-7.23886e-10
1.45564e-10
-7.64763e-10
1.44778e-10
-8.05397e-10
1.43769e-10
-8.45732e-10
1.42574e-10
-8.85726e-10
1.41226e-10
-9.25332e-10
1.39742e-10
-9.64516e-10
1.3814e-10
-1.00325e-09
1.3644e-10
-1.0415e-09
1.34651e-10
-1.07925e-09
1.32781e-10
-1.11646e-09
1.30843e-10
-1.15313e-09
1.28841e-10
-1.18922e-09
1.26777e-10
-1.22473e-09
1.24658e-10
-1.25964e-09
1.22489e-10
-1.29392e-09
1.20266e-10
-1.32758e-09
1.17993e-10
-1.36058e-09
1.15676e-10
-1.39292e-09
1.13309e-10
-1.42458e-09
1.10899e-10
-1.45556e-09
1.08446e-10
-1.48582e-09
1.05949e-10
-1.51537e-09
1.0341e-10
-1.54418e-09
1.00833e-10
-1.57225e-09
9.82162e-11
-1.59956e-09
9.55615e-11
-1.6261e-09
9.28708e-11
-1.65186e-09
9.01412e-11
-1.67682e-09
8.73718e-11
-1.70098e-09
8.45655e-11
-1.72433e-09
8.17238e-11
-1.74684e-09
7.88466e-11
-1.76851e-09
7.59354e-11
-1.78934e-09
7.29915e-11
-1.80932e-09
7.00144e-11
-1.82842e-09
6.70035e-11
-1.84665e-09
6.39608e-11
-1.86399e-09
6.089e-11
-1.88045e-09
5.77908e-11
-1.89601e-09
5.46618e-11
-1.91066e-09
5.15044e-11
-1.9244e-09
4.8321e-11
-1.93722e-09
4.51118e-11
-1.94912e-09
4.18771e-11
-1.96008e-09
3.86202e-11
-1.97012e-09
3.53445e-11
-1.97921e-09
3.20498e-11
-1.98736e-09
2.87356e-11
-1.99456e-09
2.5405e-11
-2.00081e-09
2.20622e-11
-2.0061e-09
1.87071e-11
-2.01043e-09
1.53391e-11
-2.01379e-09
1.19623e-11
-2.0162e-09
8.58172e-12
-2.01763e-09
5.19806e-12
-2.0181e-09
1.81032e-12
-2.0176e-09
-1.57885e-12
-2.01613e-09
-4.9646e-12
-2.01369e-09
-8.34599e-12
-2.01029e-09
-1.17248e-11
-2.00591e-09
-1.50993e-11
-2.00058e-09
-1.84644e-11
-1.99428e-09
-2.18184e-11
-1.98702e-09
-2.51628e-11
-1.97881e-09
-2.8497e-11
-1.96965e-09
-3.18169e-11
-1.95954e-09
-3.51188e-11
-1.94849e-09
-3.84026e-11
-1.9365e-09
-4.16687e-11
-1.92358e-09
-4.49142e-11
-1.90974e-09
-4.81355e-11
-1.89498e-09
-5.13325e-11
-1.87931e-09
-5.45059e-11
-1.86273e-09
-5.76534e-11
-1.84526e-09
-6.07706e-11
-1.82691e-09
-6.38559e-11
-1.80768e-09
-6.69114e-11
-1.78758e-09
-6.99385e-11
-1.76662e-09
-7.29343e-11
-1.74481e-09
-7.58954e-11
-1.72216e-09
-7.88214e-11
-1.69869e-09
-8.17141e-11
-1.67439e-09
-8.45729e-11
-1.6493e-09
-8.73944e-11
-1.62341e-09
-9.01755e-11
-1.59674e-09
-9.29161e-11
-1.5693e-09
-9.56162e-11
-1.54111e-09
-9.82733e-11
-1.51217e-09
-1.00883e-10
-1.4825e-09
-1.03445e-10
-1.45211e-09
-1.05959e-10
-1.42101e-09
-1.08426e-10
-1.38923e-09
-1.10844e-10
-1.35677e-09
-1.13208e-10
-1.32364e-09
-1.15517e-10
-1.28987e-09
-1.17773e-10
-1.25547e-09
-1.19976e-10
-1.22045e-09
-1.22122e-10
-1.18484e-09
-1.24209e-10
-1.14864e-09
-1.26233e-10
-1.11188e-09
-1.28196e-10
-1.07458e-09
-1.30095e-10
-1.03676e-09
-1.31921e-10
-9.98445e-10
-1.33669e-10
-9.59654e-10
-1.35331e-10
-9.20416e-10
-1.36902e-10
-8.80761e-10
-1.38372e-10
-8.40724e-10
-1.39726e-10
-8.00347e-10
-1.40945e-10
-7.59672e-10
-1.42012e-10
-7.1875e-10
-1.42906e-10
-6.7764e-10
-1.43599e-10
-6.36412e-10
-1.44056e-10
-5.95145e-10
-1.44236e-10
-5.5393e-10
-1.44094e-10
-5.12871e-10
-1.43582e-10
-4.72087e-10
-1.42645e-10
-4.31715e-10
-1.41218e-10
-3.91908e-10
-1.3923e-10
-3.52838e-10
-1.3661e-10
-3.1469e-10
-1.33282e-10
-2.77671e-10
-1.29173e-10
-2.42006e-10
-1.24208e-10
-2.07933e-10
-1.18317e-10
-1.75702e-10
-1.11447e-10
-1.45566e-10
-1.03559e-10
-1.17777e-10
-9.46452e-11
-9.25802e-11
-8.47293e-11
-7.02e-11
-7.38874e-11
-5.08268e-11
-6.22667e-11
-3.45987e-11
-5.0112e-11
-2.15851e-11
-3.77955e-11
-1.17722e-11
-2.58543e-11
-5.04962e-12
-1.50324e-11
-1.20892e-12
-6.27586e-12
-5.67843e-13
-1.02263e-12
4.91794e-11
-8.91276e-12
4.69991e-11
-2.25307e-11
1.87336e-11
-3.89071e-11
1.69604e-11
-5.71899e-11
3.0968e-11
-7.75344e-11
5.029e-11
-1.00296e-10
7.02811e-11
-1.2572e-10
8.90902e-11
-1.53896e-10
1.06099e-10
-1.84768e-10
1.21187e-10
-2.18199e-10
1.34429e-10
-2.53976e-10
1.45943e-10
-2.91862e-10
1.55859e-10
-3.3161e-10
1.64314e-10
-3.7296e-10
1.71413e-10
-4.15674e-10
1.77284e-10
-4.59511e-10
1.82038e-10
-5.04254e-10
1.85785e-10
-5.49708e-10
1.88638e-10
-5.95696e-10
1.90699e-10
-6.4205e-10
1.92053e-10
-6.88631e-10
1.92797e-10
-7.35308e-10
1.93009e-10
-7.81968e-10
1.92759e-10
-8.28522e-10
1.92118e-10
-8.74881e-10
1.91136e-10
-9.20973e-10
1.8986e-10
-9.66737e-10
1.88339e-10
-1.01211e-09
1.86604e-10
-1.05706e-09
1.84684e-10
-1.10153e-09
1.8261e-10
-1.14549e-09
1.80398e-10
-1.1889e-09
1.78065e-10
-1.23174e-09
1.75625e-10
-1.27399e-09
1.7309e-10
-1.31561e-09
1.70465e-10
-1.3566e-09
1.67758e-10
-1.39691e-09
1.64975e-10
-1.43655e-09
1.6212e-10
-1.47547e-09
1.59196e-10
-1.51369e-09
1.56205e-10
-1.55116e-09
1.5315e-10
-1.58788e-09
1.50031e-10
-1.62383e-09
1.46851e-10
-1.659e-09
1.43612e-10
-1.69336e-09
1.40316e-10
-1.72692e-09
1.36962e-10
-1.75964e-09
1.33553e-10
-1.79151e-09
1.30088e-10
-1.82252e-09
1.26571e-10
-1.85265e-09
1.23003e-10
-1.88189e-09
1.19384e-10
-1.91023e-09
1.15713e-10
-1.93766e-09
1.11994e-10
-1.96416e-09
1.08224e-10
-1.98972e-09
1.04405e-10
-2.01433e-09
1.00542e-10
-2.03797e-09
9.66346e-11
-2.06064e-09
9.2683e-11
-2.08232e-09
8.8688e-11
-2.10301e-09
8.46522e-11
-2.1227e-09
8.05764e-11
-2.14137e-09
7.64618e-11
-2.15902e-09
7.23112e-11
-2.17564e-09
6.81267e-11
-2.19123e-09
6.39079e-11
-2.20577e-09
5.96547e-11
-2.21927e-09
5.53699e-11
-2.2317e-09
5.10574e-11
-2.24308e-09
4.67187e-11
-2.25338e-09
4.23543e-11
-2.26261e-09
3.79671e-11
-2.27077e-09
3.35609e-11
-2.27784e-09
2.9137e-11
-2.28383e-09
2.46951e-11
-2.28873e-09
2.02382e-11
-2.29254e-09
1.57714e-11
-2.29525e-09
1.12971e-11
-2.29687e-09
6.81568e-12
-2.29739e-09
2.32986e-12
-2.29681e-09
-2.15527e-12
-2.29514e-09
-6.63727e-12
-2.29237e-09
-1.11168e-11
-2.2885e-09
-1.5593e-11
-2.28354e-09
-2.00613e-11
-2.27749e-09
-2.4518e-11
-2.27034e-09
-2.8963e-11
-2.26211e-09
-3.33958e-11
-2.2528e-09
-3.78119e-11
-2.24241e-09
-4.22071e-11
-2.23094e-09
-4.65811e-11
-2.21841e-09
-5.09344e-11
-2.20482e-09
-5.52638e-11
-2.19017e-09
-5.9564e-11
-2.17447e-09
-6.38325e-11
-2.15773e-09
-6.80704e-11
-2.13996e-09
-7.22775e-11
-2.12117e-09
-7.64491e-11
-2.10136e-09
-8.05811e-11
-2.08054e-09
-8.46732e-11
-2.05872e-09
-8.87266e-11
-2.03592e-09
-9.27398e-11
-2.01215e-09
-9.67091e-11
-1.98741e-09
-1.00633e-10
-1.96172e-09
-1.04512e-10
-1.93509e-09
-1.08346e-10
-1.90753e-09
-1.12132e-10
-1.87906e-09
-1.15866e-10
-1.84969e-09
-1.19546e-10
-1.81943e-09
-1.23175e-10
-1.78829e-09
-1.26749e-10
-1.7563e-09
-1.30266e-10
-1.72347e-09
-1.3372e-10
-1.6898e-09
-1.37111e-10
-1.65532e-09
-1.40441e-10
-1.62004e-09
-1.43708e-10
-1.58397e-09
-1.46908e-10
-1.54714e-09
-1.50039e-10
-1.50956e-09
-1.53099e-10
-1.47124e-09
-1.5609e-10
-1.43221e-09
-1.59008e-10
-1.39248e-09
-1.6185e-10
-1.35208e-09
-1.64612e-10
-1.31102e-09
-1.67294e-10
-1.26932e-09
-1.69894e-10
-1.22701e-09
-1.72405e-10
-1.18411e-09
-1.74819e-10
-1.14065e-09
-1.77127e-10
-1.09666e-09
-1.79323e-10
-1.05216e-09
-1.81397e-10
-1.0072e-09
-1.83334e-10
-9.61811e-10
-1.85115e-10
-9.1604e-10
-1.86717e-10
-8.69937e-10
-1.88115e-10
-8.2356e-10
-1.89282e-10
-7.76978e-10
-1.90181e-10
-7.30271e-10
-1.90764e-10
-6.83526e-10
-1.90982e-10
-6.36844e-10
-1.90777e-10
-5.9034e-10
-1.90086e-10
-5.44147e-10
-1.88837e-10
-4.98417e-10
-1.86947e-10
-4.53319e-10
-1.84329e-10
-4.09036e-10
-1.80893e-10
-3.65773e-10
-1.76546e-10
-3.23752e-10
-1.71195e-10
-2.83214e-10
-1.64745e-10
-2.44415e-10
-1.57116e-10
-2.07622e-10
-1.4824e-10
-1.73105e-10
-1.38076e-10
-1.41136e-10
-1.26614e-10
-1.11979e-10
-1.13887e-10
-8.58762e-11
-9.99894e-11
-6.30427e-11
-8.50997e-11
-4.36478e-11
-6.95066e-11
-2.7806e-11
-5.36375e-11
-1.55666e-11
-3.80938e-11
-6.90804e-12
-2.36908e-11
-1.74315e-12
-1.14404e-11
-2.31083e-12
-2.38043e-13
4.94166e-11
-7.36373e-12
5.4124e-11
-2.1453e-11
3.28234e-11
-3.96588e-11
3.51665e-11
-6.07949e-11
5.21022e-11
-8.4648e-11
7.4144e-11
-1.11312e-10
9.69447e-11
-1.40867e-10
1.18645e-10
-1.73312e-10
1.38544e-10
-2.08559e-10
1.56433e-10
-2.46445e-10
1.72315e-10
-2.86752e-10
1.86249e-10
-3.29243e-10
1.9835e-10
-3.73653e-10
2.08723e-10
-4.19736e-10
2.17494e-10
-4.67237e-10
2.24785e-10
-5.15916e-10
2.30717e-10
-5.65552e-10
2.35421e-10
-6.15933e-10
2.3902e-10
-6.6687e-10
2.41636e-10
-7.18202e-10
2.43384e-10
-7.69771e-10
2.44366e-10
-8.2144e-10
2.44678e-10
-8.73095e-10
2.44414e-10
-9.24625e-10
2.43649e-10
-9.75942e-10
2.42451e-10
-1.02697e-09
2.40887e-10
-1.07763e-09
2.39004e-10
-1.12788e-09
2.36846e-10
-1.17765e-09
2.34454e-10
-1.22689e-09
2.31859e-10
-1.27558e-09
2.29083e-10
-1.32367e-09
2.26152e-10
-1.37113e-09
2.23084e-10
-1.41792e-09
2.19887e-10
-1.46403e-09
2.16576e-10
-1.50944e-09
2.13161e-10
-1.55411e-09
2.09643e-10
-1.59802e-09
2.06032e-10
-1.64115e-09
2.02331e-10
-1.68349e-09
1.98543e-10
-1.72501e-09
1.94671e-10
-1.7657e-09
1.9072e-10
-1.80554e-09
1.86686e-10
-1.8445e-09