/*--------------------------------*- C++ -*----------------------------------*\
  =========                 |
  \\      /  F ield         | OpenFOAM: The Open Source CFD Toolbox
   \\    /   O peration     | Website:  https://openfoam.org
    \\  /    A nd           | Version:  7
     \\/     M anipulation  |
\*---------------------------------------------------------------------------*/
FoamFile
{
    version     2.0;
    format      ascii;
    class       volScalarField;
    location    "0.1125";
    object      p;
}
// * * * * * * * * * * * * * * * * * * * * * * * * * * * * * * * * * * * * * //

dimensions      [0 2 -2 0 0 0 0];

internalField   nonuniform List<scalar> 
12800
(
-1.06961e-08
1.87093e-05
-3.46889e-05
-0.000167731
-0.000369195
-0.000626399
-0.000926226
-0.00125631
-0.00160574
-0.00196521
-0.00232692
-0.00268445
-0.00303242
-0.00336648
-0.00368312
-0.00397955
-0.00425366
-0.00450389
-0.00472911
-0.00492859
-0.00510192
-0.00524888
-0.0053695
-0.00546392
-0.00553243
-0.00557542
-0.00559337
-0.00558677
-0.00555614
-0.00550197
-0.00542477
-0.00532498
-0.00520306
-0.00505948
-0.00489465
-0.0047089
-0.00450254
-0.00427585
-0.00402909
-0.00376244
-0.00347602
-0.00316991
-0.00284416
-0.00249881
-0.00213384
-0.00174919
-0.00134483
-0.000920641
-0.000476475
-1.21838e-05
0.000472373
0.000977359
0.00150298
0.00204947
0.00261707
0.00320603
0.00381665
0.00444924
0.00510419
0.00578183
0.00648256
0.00720676
0.00795485
0.00872726
0.00952442
0.0103468
0.0111949
0.0120694
0.0129706
0.0138994
0.0148562
0.0158418
0.016857
0.0179024
0.0189788
0.0200869
0.0212277
0.0224017
0.02361
0.0248533
0.0261325
0.0274485
0.0288021
0.0301942
0.0316259
0.0330978
0.0346109
0.036166
0.0377638
0.0394051
0.0410906
0.0428208
0.0445964
0.0464177
0.0482852
0.050199
0.0521592
0.0541659
0.0562187
0.0583173
0.060461
0.062649
0.0648801
0.067153
0.0694661
0.0718174
0.0742047
0.0766254
0.0790766
0.081555
0.0840569
0.0865782
0.0891147
0.0916615
0.0942133
0.0967646
0.0993094
0.101841
0.104354
0.10684
0.109293
0.111704
0.114067
0.116372
0.118614
0.120782
0.122871
0.124871
0.126776
0.128577
0.13027
0.131845
0.133299
0.134626
0.135821
0.136881
0.137802
0.138584
0.139225
0.139725
0.140087
0.140312
0.140405
0.140371
0.140216
0.139949
0.139579
0.139117
0.138574
0.137966
0.137307
0.136617
0.135916
0.135225
0.134574
0.133991
0.133508
0.133163
0.132992
0.132995
-1.83985e-05
2.08119e-06
-4.82336e-05
-0.000166391
-0.000340867
-0.00056269
-0.000822134
-0.00110949
-0.00141566
-0.00173279
-0.00205397
-0.00237329
-0.00268581
-0.00298736
-0.0032745
-0.00354451
-0.00379516
-0.00402475
-0.00423202
-0.00441608
-0.0045763
-0.00471235
-0.00482406
-0.00491141
-0.0049745
-0.00501357
-0.00502888
-0.00502078
-0.00498966
-0.00493589
-0.00485984
-0.00476188
-0.00464234
-0.0045016
-0.00433999
-0.0041578
-0.00395527
-0.00373261
-0.00349001
-0.00322761
-0.00294549
-0.00264374
-0.00232237
-0.00198136
-0.00162067
-0.00124025
-0.000840014
-0.000419851
2.03947e-05
0.000480874
0.000961744
0.00146319
0.00198545
0.00252874
0.00309329
0.00367936
0.00428725
0.00491731
0.0055699
0.00624536
0.00694408
0.00766647
0.00841292
0.00918384
0.00997967
0.0108008
0.0116479
0.0125214
0.0134218
0.0143498
0.015306
0.016291
0.0173056
0.0183504
0.0194261
0.0205336
0.0216735
0.0228466
0.0240537
0.0252955
0.0265729
0.0278867
0.0292376
0.0306266
0.0320544
0.0335219
0.0350298
0.0365788
0.0381696
0.039803
0.0414793
0.0431992
0.0449631
0.0467713
0.0486242
0.0505217
0.052464
0.0544508
0.0564819
0.0585566
0.0606744
0.0628342
0.065035
0.0672751
0.0695531
0.0718668
0.0742141
0.0765924
0.0789987
0.0814297
0.083882
0.0863514
0.0888337
0.0913243
0.093818
0.0963095
0.0987931
0.101263
0.103712
0.106134
0.108522
0.11087
0.113168
0.115412
0.117592
0.119701
0.121733
0.123679
0.125533
0.127288
0.128938
0.130477
0.1319
0.133201
0.134377
0.135425
0.136341
0.137126
0.137777
0.138297
0.138686
0.138947
0.139084
0.139103
0.13901
0.138813
0.138521
0.138143
0.137693
0.137184
0.136629
0.136047
0.135456
0.134876
0.13433
0.133843
0.13344
0.133146
0.132994
0.132997
3.73054e-05
5.60888e-05
5.81176e-06
-0.000105348
-0.000265091
-0.00046589
-0.000699881
-0.000958925
-0.00123547
-0.0015227
-0.00181451
-0.00210559
-0.00239135
-0.0026679
-0.00293204
-0.00318109
-0.00341285
-0.00362563
-0.00381809
-0.00398923
-0.00413836
-0.00426501
-0.00436888
-0.00444986
-0.00450794
-0.0045432
-0.00455583
-0.00454604
-0.00451407
-0.00446024
-0.00438481
-0.00428806
-0.00417027
-0.00403173
-0.00387268
-0.00369336
-0.00349398
-0.0032747
-0.00303563
-0.00277687
-0.00249849
-0.00220053
-0.00188299
-0.00154582
-0.00118897
-0.000812358
-0.000415884
5.96915e-07
0.000437233
0.00089417
0.00137158
0.00186968
0.00238871
0.00292889
0.00349046
0.00407367
0.00467884
0.00530632
0.00595644
0.00662958
0.0073261
0.00804643
0.00879095
0.00956006
0.0103541
0.0111737
0.0120192
0.0128912
0.0137903
0.014717
0.0156718
0.0166556
0.0176689
0.0187124
0.0197869
0.0208929
0.0220313
0.0232027
0.0244078
0.0256475
0.0269224
0.0282333
0.029581
0.0309663
0.0323899
0.0338526
0.0353551
0.036898
0.038482
0.0401076
0.0417753
0.0434856
0.0452388
0.0470352
0.048875
0.0507582
0.0526847
0.0546543
0.0566666
0.058721
0.0608168
0.062953
0.0651284
0.0673414
0.0695904
0.0718734
0.074188
0.0765319
0.0789019
0.081295
0.0837076
0.0861357
0.0885752
0.0910214
0.0934696
0.0959144
0.0983503
0.100772
0.103172
0.105545
0.107884
0.110182
0.112433
0.114629
0.116762
0.118827
0.120816
0.122722
0.124539
0.12626
0.127879
0.129391
0.130791
0.132074
0.133237
0.134276
0.135191
0.135978
0.136639
0.137173
0.137583
0.137872
0.138043
0.138103
0.138056
0.13791
0.137675
0.137361
0.136978
0.136539
0.136059
0.135553
0.135037
0.13453
0.134051
0.133621
0.133261
0.132992
0.132841
0.132828
0.000176179
0.000179384
0.000120699
8.3285e-06
-0.000146522
-0.000337017
-0.000556375
-0.000797686
-0.00105448
-0.00132082
-0.00159137
-0.00186137
-0.00212665
-0.00238368
-0.00262944
-0.0028614
-0.00307753
-0.00327614
-0.00345592
-0.00361588
-0.00375525
-0.00387349
-0.00397024
-0.00404529
-0.00409857
-0.00413009
-0.00413994
-0.00412825
-0.00409518
-0.00404096
-0.00396577
-0.00386984
-0.0037534
-0.00361664
-0.00345975
-0.00328291
-0.00308629
-0.00287
-0.00263411
-0.00237867
-0.00210372
-0.00180928
-0.0014953
-0.00116174
-0.000808534
-0.000435581
-4.274e-05
0.000370147
0.000803228
0.00125666
0.00173063
0.00222538
0.00274114
0.00327813
0.00383658
0.00441679
0.00501907
0.00564376
0.0062912
0.00696175
0.00765579
0.00837372
0.00911593
0.00988279
0.0106747
0.0114922
0.0123356
0.0132057
0.0141028
0.0150275
0.0159805
0.0169623
0.0179737
0.0190153
0.0200877
0.0211916
0.0223276
0.0234966
0.0246991
0.0259358
0.0272074
0.0285148
0.0298586
0.0312396
0.0326584
0.0341158
0.0356124
0.0371488
0.0387256
0.0403434
0.0420025
0.0437033
0.0454462
0.0472313
0.0490587
0.0509284
0.0528404
0.0547942
0.0567896
0.0588258
0.060902
0.0630173
0.0651704
0.0673599
0.0695839
0.0718405
0.0741274
0.0764422
0.0787818
0.0811433
0.0835229
0.085917
0.0883214
0.0907316
0.0931429
0.0955501
0.0979479
0.100331
0.102692
0.105027
0.107327
0.109587
0.111801
0.11396
0.116059
0.11809
0.120047
0.121923
0.123712
0.125407
0.127004
0.128496
0.12988
0.13115
0.132304
0.133338
0.134252
0.135043
0.135711
0.136258
0.136685
0.136996
0.137193
0.137283
0.137271
0.137165
0.136973
0.136705
0.136371
0.135983
0.135554
0.135099
0.134633
0.134171
0.133731
0.133331
0.132988
0.13272
0.132548
0.132486
0.000385738
0.000360028
0.000284243
0.000164012
7.53809e-06
-0.000179151
-0.000390206
-0.000619801
-0.000862366
-0.00111285
-0.00136658
-0.00161934
-0.00186751
-0.00210786
-0.00233762
-0.00255451
-0.0027566
-0.00294231
-0.00311041
-0.00325991
-0.00339005
-0.00350026
-0.00359012
-0.00365938
-0.00370789
-0.00373562
-0.00374257
-0.00372883
-0.00369451
-0.00363971
-0.00356458
-0.0034693
-0.00335404
-0.00321892
-0.00306406
-0.00288961
-0.00269567
-0.0024823
-0.00224953
-0.0019974
-0.0017259
-0.00143501
-0.00112465
-0.000794773
-0.000445301
-7.61049e-05
0.000312978
0.00072211
0.00115144
0.00160116
0.00207149
0.00256266
0.0030749
0.00360843
0.00416349
0.0047404
0.00533948
0.00596104
0.00660543
0.00727302
0.0079642
0.00867933
0.00941878
0.0101829
0.0109722
0.0117871
0.012628
0.0134955
0.0143901
0.0153123
0.0162628
0.0172422
0.018251
0.0192899
0.0203596
0.0214606
0.0225937
0.0237595
0.0249585
0.0261915
0.0274592
0.0287623
0.0301014
0.0314773
0.0328906
0.0343419
0.0358319
0.0373612
0.0389303
0.0405396
0.0421896
0.0438804
0.0456125
0.0473859
0.0492008
0.051057
0.0529543
0.0548925
0.0568712
0.0588895
0.0609469
0.0630421
0.0651739
0.0673409
0.0695413
0.0717733
0.0740344
0.0763223
0.078634
0.0809665
0.0833163
0.0856797
0.0880526
0.0904307
0.0928093
0.0951834
0.0975478
0.099897
0.102225
0.104526
0.106794
0.109022
0.111204
0.113332
0.115402
0.117405
0.119335
0.121187
0.122953
0.124628
0.126207
0.127684
0.129055
0.130316
0.131464
0.132496
0.133409
0.134205
0.134881
0.135439
0.135882
0.136211
0.136431
0.136546
0.136564
0.136489
0.136332
0.136101
0.135805
0.135457
0.135068
0.13465
0.134219
0.133787
0.13337
0.132983
0.13264
0.132358
0.132146
0.132011
0.000652961
0.000588956
0.000489158
0.000355318
0.000191525
2.97342e-06
-0.000205315
-0.000428435
-0.000661759
-0.000900939
-0.00114194
-0.00138115
-0.0016154
-0.00184181
-0.00205797
-0.00226179
-0.00245152
-0.00262573
-0.00278328
-0.00292321
-0.00304478
-0.00314744
-0.00323077
-0.00329448
-0.00333838
-0.00336237
-0.00336644
-0.00335061
-0.00331493
-0.00325946
-0.00318431
-0.00308958
-0.00297537
-0.00284177
-0.00268886
-0.00251673
-0.00232541
-0.00211491
-0.00188524
-0.00163639
-0.00136834
-0.00108101
-0.000774321
-0.00044821
-0.000102556
0.000262795
0.000648008
0.00105324
0.00147867
0.00192451
0.00239101
0.00287839
0.00338687
0.00391669
0.00446813
0.00504148
0.00563705
0.00625517
0.00689618
0.00756047
0.0082484
0.00896034
0.00969662
0.0104577
0.0112438
0.0120557
0.0128936
0.0137581
0.0146497
0.0155689
0.0165163
0.0174926
0.0184983
0.0195339
0.0206002
0.0216977
0.0228271
0.0239889
0.0251838
0.0264125
0.0276755
0.0289735
0.0303072
0.0316773
0.0330843
0.034529
0.0360117
0.0375333
0.039094
0.0406943
0.0423346
0.0440151
0.045736
0.0474974
0.0492995
0.051142
0.0530248
0.0549476
0.0569098
0.0589108
0.0609498
0.0630257
0.0651373
0.0672831
0.0694614
0.0716703
0.0739076
0.0761708
0.078457
0.0807633
0.0830862
0.0854222
0.0877672
0.090117
0.092467
0.0948124
0.0971481
0.0994686
0.101768
0.104041
0.106282
0.108483
0.110639
0.112743
0.114789
0.116769
0.118679
0.120511
0.122261
0.12392
0.125486
0.126952
0.128315
0.12957
0.130714
0.131745
0.13266
0.13346
0.134144
0.134713
0.135169
0.135514
0.135753
0.13589
0.135931
0.135883
0.135753
0.13555
0.135283
0.134964
0.134603
0.134211
0.133801
0.133386
0.132978
0.13259
0.132234
0.131924
0.131659
0.131436
0.000965601
0.000857272
0.000728245
0.000576031
0.000399997
0.000204585
-5.78313e-06
-0.000227171
-0.000455711
-0.000687728
-0.000919869
-0.00114903
-0.00137244
-0.00158766
-0.00179257
-0.00198535
-0.00216446
-0.00232865
-0.00247686
-0.00260822
-0.00272204
-0.00281778
-0.00289505
-0.00295355
-0.00299309
-0.00301353
-0.00301482
-0.00299694
-0.0029599
-0.00290374
-0.00282852
-0.00273428
-0.00262106
-0.00248892
-0.0023379
-0.00216802
-0.00197926
-0.00177159
-0.001545
-0.00129944
-0.00103482
-0.000751064
-0.000448093
-0.000125796
0.000215977
0.000577399
0.000958632
0.00135984
0.00178124
0.00222308
0.00268558
0.00316898
0.00367351
0.00419942
0.004747
0.00531654
0.00590835
0.00652274
0.00716009
0.00782077
0.00850512
0.00921349
0.00994624
0.0107038
0.0114865
0.0122949
0.0131293
0.0139903
0.0148784
0.0157941
0.016738
0.0177106
0.0187125
0.0197443
0.0208066
0.0218999
0.0230249
0.0241822
0.0253723
0.0265958
0.0278534
0.0291457
0.0304734
0.031837
0.0332371
0.0346743
0.0361493
0.0376624
0.0392142
0.040805
0.0424351
0.0441047
0.0458141
0.0475634
0.0493525
0.0511813
0.0530496
0.054957
0.0569031
0.0588873
0.0609087
0.0629661
0.0650585
0.0671844
0.069342
0.0715296
0.0737449
0.0759856
0.0782487
0.0805315
0.0828306
0.0851424
0.087463
0.0897884
0.0921139
0.0944349
0.0967464
0.0990432
0.10132
0.10357
0.105788
0.107968
0.110104
0.112189
0.114217
0.116181
0.118075
0.119894
0.121631
0.123281
0.124838
0.126297
0.127655
0.128907
0.130051
0.131083
0.132003
0.132808
0.1335
0.134079
0.134547
0.134906
0.13516
0.135314
0.135374
0.135345
0.135236
0.135054
0.134808
0.134508
0.134164
0.133787
0.133387
0.132977
0.132566
0.132165
0.131785
0.131438
0.131111
0.130793
0.00131233
0.00115613
0.00099402
0.000819592
0.000627314
0.000420985
0.000204413
-1.92168e-05
-0.000246759
-0.000475233
-0.000701854
-0.000924016
-0.00113939
-0.00134591
-0.00154178
-0.00172545
-0.00189563
-0.0020512
-0.00219125
-0.00231504
-0.00242194
-0.00251145
-0.0025832
-0.00263692
-0.00267241
-0.00268954
-0.00268823
-0.00266843
-0.00263012
-0.00257331
-0.00249803
-0.00240427
-0.00229204
-0.00216135
-0.00201219
-0.00184452
-0.0016583
-0.00145347
-0.00122996
-0.000987677
-0.000726516
-0.000446382
-0.000147172
0.000171261
0.000509094
0.000866497
0.00124364
0.00164072
0.00205797
0.00249566
0.00295402
0.00343327
0.00393367
0.00445549
0.00499901
0.00556452
0.00615231
0.00676274
0.00739617
0.00805294
0.0087334
0.00943788
0.0101668
0.0109204
0.0116993
0.0125038
0.0133344
0.0141915
0.0150756
0.0159873
0.0169271
0.0178956
0.0188932
0.0199205
0.0209782
0.0220667
0.0231867
0.0243387
0.0255233
0.0267411
0.0279926
0.0292785
0.0305994
0.0319559
0.0333484
0.0347777
0.0362441
0.0377483
0.0392905
0.0408712
0.0424906
0.044149
0.0458465
0.0475832
0.0493591
0.051174
0.0530278
0.0549201
0.0568504
0.0588181
0.0608223
0.062862
0.0649361
0.067043
0.0691813
0.0713491
0.0735442
0.0757642
0.0780065
0.0802682
0.0825461
0.0848367
0.0871362
0.0894406
0.0917454
0.094046
0.0963377
0.098615
0.100873
0.103105
0.105307
0.107471
0.109591
0.111662
0.113677
0.11563
0.117515
0.119325
0.121055
0.122699
0.124252
0.125709
0.127066
0.128319
0.129465
0.130501
0.131426
0.132239
0.132939
0.133527
0.134006
0.134377
0.134645
0.134812
0.134886
0.134872
0.134777
0.134609
0.134376
0.134088
0.133752
0.133381
0.132982
0.132566
0.132142
0.131719
0.131308
0.130915
0.130522
0.130107
0.00168285
0.00147658
0.00127898
0.00107949
0.000867877
0.000647329
0.000421226
0.000192062
-3.77394e-05
-0.000265763
-0.000489744
-0.000707589
-0.00091739
-0.00111745
-0.00130629
-0.00148266
-0.00164547
-0.0017938
-0.00192688
-0.00204409
-0.0021449
-0.00222887
-0.00229569
-0.00234511
-0.00237693
-0.00239106
-0.00238738
-0.00236583
-0.0023264
-0.00226907
-0.0021938
-0.00210056
-0.00198935
-0.00186014
-0.00171285
-0.0015474
-0.00136373
-0.00116175
-0.000941332
-0.000702355
-0.000444698
-0.000168242
0.000127158
0.000441676
0.000775495
0.00112879
0.00150174
0.00189459
0.00230759
0.00274101
0.00319508
0.00367004
0.00416616
0.00468372
0.005223
0.00578428
0.00636787
0.00697412
0.00760338
0.008256
0.00893229
0.00963259
0.0103573
0.0111068
0.0118815
0.0126818
0.0135081
0.0143609
0.0152406
0.0161479
0.0170831
0.0180468
0.0190396
0.020062
0.0211145
0.0221976
0.023312
0.0244582
0.0256366
0.026848
0.0280928
0.0293717
0.0306851
0.0320337
0.0334181
0.0348386
0.036296
0.0377905
0.0393226
0.0408926
0.0425008
0.0441474
0.0458326
0.0475563
0.0493187
0.0511196
0.0529588
0.0548359
0.0567505
0.0587019
0.0606894
0.0627119
0.0647684
0.0668574
0.0689773
0.0711265
0.0733028
0.075504
0.0777274
0.0799702
0.0822293
0.0845014
0.0867827
0.0890692
0.0913567
0.0936406
0.0959162
0.0981783
0.100422
0.102641
0.10483
0.106982
0.109093
0.111155
0.113163
0.11511
0.116989
0.118796
0.120524
0.122167
0.12372
0.125179
0.126539
0.127796
0.128947
0.12999
0.130922
0.131743
0.132452
0.13305
0.133539
0.133921
0.1342
0.134379
0.134463
0.13446
0.134374
0.134214
0.133988
0.133704
0.13337
0.132995
0.132589
0.13216
0.131715
0.131264
0.130814
0.130372
0.12991
0.129399
0.00206817
0.00181085
0.00157608
0.00134947
0.00111611
0.000878777
0.000640499
0.00040306
0.000168292
-6.19037e-05
-0.000285761
-0.000501654
-0.000708068
-0.000903676
-0.00108733
-0.00125804
-0.00141495
-0.00155734
-0.00168459
-0.0017962
-0.00189176
-0.00197093
-0.00203342
-0.00207904
-0.00210765
-0.00211912
-0.00211336
-0.00209032
-0.00204997
-0.00199225
-0.00191711
-0.00182451
-0.0017144
-0.00158671
-0.00144132
-0.00127815
-0.00109707
-0.000897962
-0.000680664
-0.000445032
-0.000190931
8.17994e-05
0.000373343
0.000683889
0.00101362
0.00136272
0.00173141
0.00211995
0.00252861
0.00295765
0.00340731
0.00387786
0.00436959
0.00488275
0.00541764
0.00597453
0.00655375
0.00715564
0.00778054
0.00842876
0.00910063
0.0097965
0.0105168
0.0112618
0.012032
0.0128277
0.0136494
0.0144975
0.0153725
0.0162748
0.017205
0.0181636
0.0191511
0.0201679
0.0212147
0.022292
0.0234002
0.0245399
0.0257116
0.0269159
0.0281534
0.0294245
0.0307299
0.03207
0.0334454
0.0348567
0.0363042
0.0377885
0.0393098
0.0408685
0.0424649
0.0440992
0.0457716
0.047482
0.0492305
0.0510171
0.0528414
0.0547033
0.0566022
0.0585375
0.0605085
0.0625142
0.0645536
0.0666253
0.0687279
0.0708596
0.0730184
0.0752021
0.0774082
0.0796341
0.0818766
0.0841325
0.0863982
0.0886697
0.0909429
0.0932135
0.0954766
0.0977272
0.0999602
0.10217
0.104351
0.106497
0.108602
0.11066
0.112665
0.11461
0.116489
0.118297
0.120027
0.121674
0.123232
0.124697
0.126064
0.127329
0.128488
0.12954
0.130482
0.131312
0.132032
0.13264
0.13314
0.133532
0.13382
0.134007
0.1341
0.134103
0.134023
0.133867
0.133642
0.133356
0.133017
0.132634
0.132213
0.131764
0.131294
0.130808
0.130315
0.129821
0.12929
0.128686
0.00246022
0.0021516
0.00187875
0.00162355
0.00136669
0.0011106
0.000857968
0.000610042
0.000368102
0.00013353
-9.2356e-05
-0.000308336
-0.000513299
-0.000706275
-0.000886411
-0.00105297
-0.00120534
-0.00134301
-0.00146552
-0.00157249
-0.00166364
-0.00173871
-0.00179751
-0.00183989
-0.00186573
-0.00187494
-0.00186744
-0.00184321
-0.00180217
-0.00174426
-0.00166942
-0.00157759
-0.00146869
-0.00134259
-0.00119918
-0.00103834
-0.000859906
-0.000663713
-0.00044958
-0.000217349
3.31496e-05
0.000302116
0.000589761
0.000896278
0.00122185
0.0015667
0.00193107
0.00231525
0.00271949
0.00314407
0.00358924
0.0040553
0.00454253
0.00505119
0.00558156
0.00613394
0.00670866
0.00730603
0.00792639
0.00857002
0.00923727
0.00992851
0.0106441
0.0113844
0.0121498
0.0129406
0.0137574
0.0146004
0.0154703
0.0163674
0.0172921
0.0182451
0.0192268
0.0202377
0.0212784
0.0223492
0.0234506
0.0245833
0.0257477
0.0269444
0.0281738
0.0294366
0.0307332
0.0320641
0.03343
0.0348313
0.0362684
0.0377417
0.0392516
0.0407984
0.0423824
0.0440038
0.0456628
0.0473594
0.0490937
0.0508655
0.0526748
0.0545211
0.0564042
0.0583234
0.060278
0.0622672
0.0642899
0.0663449
0.0684308
0.0705458
0.0726882
0.0748557
0.0770461
0.0792566
0.0814843
0.0837262
0.0859785
0.0882376
0.0904994
0.0927595
0.0950133
0.0972559
0.0994821
0.101686
0.103863
0.106007
0.10811
0.110169
0.112175
0.114123
0.116007
0.117821
0.119558
0.121213
0.12278
0.124255
0.125632
0.126908
0.12808
0.129143
0.130097
0.13094
0.131671
0.132291
0.132801
0.133202
0.133499
0.133695
0.133793
0.133801
0.133723
0.133566
0.133338
0.133046
0.132697
0.132299
0.131859
0.131385
0.130883
0.130359
0.12982
0.129273
0.128673
0.127979
0.00285185
0.00249218
0.0021808
0.0018961
0.00161451
0.00133813
0.00106946
0.00080927
0.000558322
0.000317535
8.78206e-05
-0.000130005
-0.000335212
-0.000527148
-0.000705249
-0.000869043
-0.00101814
-0.00115222
-0.001271
-0.00137426
-0.00146182
-0.00153353
-0.00158928
-0.00162897
-0.00165252
-0.0016599
-0.00165105
-0.00162592
-0.00158446
-0.00152659
-0.00145225
-0.00136136
-0.00125378
-0.00112939
-0.000988055
-0.00082962
-0.000653888
-0.000460663
-0.000249758
-2.09832e-05
0.000225877
0.000491052
0.000774757
0.00107719
0.00139857
0.00173914
0.00209916
0.00247893
0.00287871
0.00329878
0.00373942
0.00420093
0.00468359
0.00518767
0.00571344
0.00626121
0.00683132
0.00742405
0.00803971
0.00867861
0.00934109
0.0100275
0.0107382
0.0114736
0.0122339
0.0130196
0.0138312
0.0146689
0.0155333
0.0164247
0.0173437
0.0182907
0.0192662
0.0202708
0.0213047
0.0223686
0.0234628
0.0245879
0.0257445
0.0269329
0.0281537
0.0294075
0.0306946
0.0320158
0.0333714
0.034762
0.0361879
0.0376496
0.0391474
0.0406816
0.0422526
0.0438606
0.0455056
0.0471879
0.0489074
0.0506641
0.0524578
0.0542884
0.0561554
0.0580584
0.0599966
0.0619693
0.0639755
0.0660141
0.0680838
0.0701829
0.0723096
0.074462
0.0766377
0.0788343
0.0810489
0.0832784
0.0855195
0.0877684
0.0900211
0.0922735
0.0945209
0.0967586
0.0989813
0.101184
0.10336
0.105505
0.107611
0.109674
0.111687
0.113642
0.115535
0.117359
0.119107
0.120775
0.122355
0.123844
0.125236
0.126527
0.127713
0.128792
0.129761
0.130618
0.131362
0.131995
0.132516
0.132928
0.133233
0.133436
0.133539
0.133548
0.13347
0.13331
0.133075
0.132773
0.13241
0.131993
0.13153
0.131027
0.13049
0.129925
0.129338
0.128737
0.12807
0.12729
0.00323673
0.00282651
0.00247653
0.00216181
0.0018546
0.00155684
0.00127087
0.000996991
0.000735545
0.000487033
0.000251963
3.07733e-05
-0.000176136
-0.000368419
-0.000545806
-0.000708075
-0.000855046
-0.000986594
-0.00110262
-0.00120304
-0.0012878
-0.00135685
-0.00141018
-0.00144774
-0.00146952
-0.00147551
-0.00146569
-0.00144002
-0.00139842
-0.00134086
-0.00126724
-0.00117744
-0.00107134
-0.000948796
-0.000809646
-0.000653695
-0.000480728
-0.00029054
-8.29212e-05
0.000142361
0.000385558
0.000646914
0.000926648
0.00122498
0.00154214
0.00187843
0.0022341
0.00260945
0.00300474
0.00342029
0.00385639
0.00431332
0.00479137
0.00529081
0.00581193
0.00635505
0.00692046
0.00750846
0.00811933
0.00875338
0.00941097
0.0100924
0.0107981
0.0115283
0.0122835
0.0130639
0.0138699
0.0147021
0.0155607
0.0164462
0.0173591
0.0182998
0.0192687
0.0202664
0.0212933
0.0223498
0.0234363
0.0245533
0.0257014
0.026881
0.0280927
0.0293368
0.0306139
0.0319245
0.0332692
0.0346484
0.0360625
0.0375118
0.0389968
0.0405179
0.0420752
0.043669
0.0452995
0.0469667
0.0486709
0.0504119
0.0521897
0.054004
0.0558546
0.057741
0.0596627
0.0616188
0.0636087
0.0656311
0.0676848
0.0697684
0.0718801
0.0740181
0.0761802
0.078364
0.0805668
0.0827855
0.085017
0.0872576
0.0895035
0.0917505
0.0939941
0.0962296
0.0984519
0.100656
0.102835
0.104985
0.107098
0.109169
0.111192
0.113159
0.115065
0.116903
0.118667
0.120351
0.12195
0.123457
0.124867
0.126177
0.127382
0.128479
0.129465
0.130339
0.1311
0.131747
0.132281
0.132704
0.133018
0.133226
0.133334
0.133344
0.133264
0.133098
0.132854
0.132538
0.132157
0.131719
0.131229
0.130694
0.13012
0.12951
0.128875
0.128219
0.127486
0.126625
0.00360909
0.00314907
0.00276068
0.00241561
0.00208223
0.00176233
0.0014581
0.00116945
0.000896325
0.000638848
0.000397143
0.000171317
-3.85441e-05
-0.000232395
-0.000410232
-0.000572073
-0.000717956
-0.000847945
-0.000962113
-0.00106052
-0.00114324
-0.00121033
-0.00126185
-0.00129784
-0.00131836
-0.00132342
-0.00131302
-0.00128714
-0.00124573
-0.00118874
-0.00111605
-0.00102755
-0.000923098
-0.000802539
-0.000665681
-0.000512301
-0.000342179
-0.000155096
4.91916e-05
0.00027096
0.00051048
0.000767997
0.00104374
0.00133796
0.00165094
0.00198296
0.0023343
0.00270524
0.00309608
0.00350713
0.00393869
0.00439105
0.00486449
0.00535929
0.00587575
0.00641418
0.00697486
0.00755806
0.00816407
0.00879323
0.00944586
0.0101223
0.0108228
0.0115478
0.0122976
0.0130725
0.0138729
0.0146993
0.0155519
0.0164312
0.0173377
0.0182717
0.0192338
0.0202243
0.0212436
0.0222922
0.0233705
0.0244791
0.0256182
0.0267885
0.0279903
0.0292242
0.0304906
0.0317901
0.0331232
0.0344903
0.0358918
0.0373281
0.0387996
0.0403067
0.0418496
0.0434285
0.0450438
0.0466954
0.0483835
0.0501082
0.0518695
0.0536671
0.0555008
0.0573703
0.0592751
0.0612145
0.0631877
0.0651939
0.0672318
0.0693001
0.0713972
0.0735214
0.0756706
0.0778425
0.0800344
0.0822437
0.084467
0.086701
0.0889418
0.0911856
0.0934277
0.0956636
0.0978881
0.100096
0.102282
0.10444
0.106563
0.108647
0.110683
0.112666
0.114589
0.116446
0.11823
0.119935
0.121556
0.123085
0.124518
0.125851
0.127078
0.128197
0.129205
0.130099
0.130878
0.131541
0.13209
0.132525
0.132849
0.133064
0.133175
0.133185
0.133102
0.132929
0.132674
0.132342
0.131941
0.131478
0.130959
0.130389
0.129776
0.129122
0.128436
0.127726
0.126929
0.125989
0.00396367
0.00345472
0.00302823
0.00265278
0.00229293
0.00195035
0.00162717
0.00132292
0.00103719
0.000769729
0.000520347
0.000288829
7.49513e-05
-0.000121517
-0.000300819
-0.00046321
-0.000608941
-0.000738254
-0.000851388
-0.000948562
-0.00102996
-0.00109574
-0.00114605
-0.00118103
-0.00120078
-0.00120535
-0.00119476
-0.00116903
-0.00112813
-0.00107197
-0.00100045
-0.000913448
-0.00081082
-0.000692383
-0.00055792
-0.000407205
-0.000240011
-5.60877e-05
0.000144848
0.000363091
0.000598922
0.000852593
0.00112436
0.00141451
0.00172334
0.00205114
0.00239818
0.00276477
0.00315121
0.00355783
0.00398492
0.00443274
0.0049016
0.0053918
0.00590364
0.00643739
0.00699333
0.00757172
0.00817288
0.00879712
0.00944476
0.0101161
0.0108114
0.0115311
0.0122754
0.0130447
0.0138394
0.0146598
0.0155062
0.0163791
0.017279
0.0182061
0.0191609
0.0201438
0.0211553
0.0221956
0.0232653
0.0243648
0.0254945
0.0266549
0.0278464
0.0290694
0.0303246
0.0316124
0.0329332
0.0342875
0.0356757
0.0370983
0.0385556
0.0400479
0.0415756
0.043139
0.0447381
0.0463734
0.0480448
0.0497525
0.0514965
0.0532768
0.0550931
0.0569451
0.0588325
0.0607548
0.0627113
0.064701
0.0667231
0.0687761
0.0708588
0.0729695
0.0751062
0.0772667
0.0794487
0.0816494
0.0838657
0.0860944
0.0883319
0.0905741
0.0928168
0.0950552
0.0972846
0.0994995
0.101694
0.103864
0.106001
0.1081
0.110154
0.112156
0.114101
0.115981
0.117789
0.119519
0.121166
0.122722
0.124182
0.125542
0.126796
0.12794
0.128972
0.129889
0.13069
0.131373
0.131938
0.132387
0.132722
0.132945
0.133059
0.13307
0.132982
0.132802
0.132534
0.132185
0.131763
0.131273
0.130722
0.130117
0.129462
0.128762
0.128026
0.127262
0.126403
0.125388
0.00429563
0.00373862
0.00327453
0.00286883
0.00248235
0.00211678
0.00177417
0.00145372
0.00115464
0.000876405
0.000618505
0.000380417
0.00016163
-3.83451e-05
-0.000219994
-0.000383797
-0.000530208
-0.000659648
-0.000772511
-0.00086916
-0.000949894
-0.00101498
-0.00106467
-0.00109917
-0.00111862
-0.00112312
-0.00111274
-0.00108752
-0.00104741
-0.000992353
-0.000922233
-0.000836934
-0.000736294
-0.000620105
-0.000488144
-0.000340188
-0.000175987
4.74812e-06
0.000202326
0.000417046
0.00064919
0.000899035
0.00116688
0.00145302
0.00175777
0.00208141
0.00242424
0.00278657
0.00316872
0.00357099
0.00399368
0.00443707
0.00490145
0.00538714
0.00589441
0.00642354
0.00697479
0.00754844
0.00814478
0.00876414
0.0094068
0.010073
0.0107632
0.0114775
0.0122163
0.01298
0.0137688
0.0145831
0.0154232
0.0162896
0.0171825
0.0181025
0.0190498
0.0200248
0.021028
0.0220597
0.0231204
0.0242105
0.0253303
0.0264802
0.0276609
0.0288726
0.0301159
0.0313913
0.0326992
0.03404
0.0354142
0.0368223
0.0382645
0.0397414
0.0412531
0.0428
0.0443823
0.0460004
0.0476543
0.0493442
0.0510703
0.0528325
0.0546306
0.0564646
0.0583341
0.0602388
0.062178
0.0641509
0.0661568
0.0681945
0.0702627
0.0723599
0.0744844
0.076634
0.0788065
0.0809993
0.0832096
0.0854342
0.0876695
0.0899117
0.0921566
0.0943996
0.0966358
0.0988601
0.101067
0.10325
0.105404
0.107522
0.109597
0.111623
0.113593
0.115499
0.117336
0.119096
0.120773
0.12236
0.123852
0.125242
0.126527
0.127701
0.128762
0.129706
0.130531
0.131236
0.131821
0.132286
0.132634
0.132865
0.132985
0.132997
0.132905
0.132716
0.132435
0.132068
0.131623
0.131105
0.130522
0.129879
0.129182
0.128435
0.127649
0.126831
0.12591
0.124823
0.00460045
0.00399631
0.00349515
0.00305941
0.00264635
0.00225762
0.00189527
0.00155816
0.00124521
0.000955591
0.000688494
0.000443119
0.000218685
1.44493e-05
-0.000170308
-0.000336276
-0.000484101
-0.000614384
-0.000727668
-0.000824433
-0.000905112
-0.000970093
-0.0010197
-0.0010542
-0.0010738
-0.00107865
-0.00106886
-0.00104447
-0.00100544
-0.000951729
-0.000883237
-0.000799829
-0.000701318
-0.000587494
-0.000458141
-0.00031302
-0.000151846
2.56976e-05
0.000219926
0.000431137
0.000659626
0.000905706
0.0011697
0.00145192
0.00175268
0.00207227
0.00241101
0.00276922
0.00314721
0.00354528
0.00396371
0.0044028
0.00486285
0.00534416
0.005847
0.00637162
0.0069183
0.0074873
0.00807895
0.0086935
0.00933125
0.00999245
0.0106774
0.0113864
0.0121198
0.0128778
0.0136607
0.0144688
0.0153025
0.0161621
0.0170481
0.0179606
0.0189001
0.019867
0.0208617
0.0218844
0.0229357
0.0240159
0.0251254
0.0262645
0.0274338
0.0286336
0.0298645
0.0311269
0.0324212
0.0337479
0.0351074
0.0365002
0.0379266
0.0393871
0.040882
0.0424116
0.0439763
0.0455763
0.0472119
0.0488832
0.0505905
0.0523337
0.054113
0.0559281
0.0577791
0.0596654
0.0615867
0.0635424
0.0655317
0.0675536
0.0696071
0.0716907
0.0738028
0.0759416
0.078105
0.0802904
0.0824952
0.0847164
0.0869505
0.089194
0.0914425
0.0936917
0.0959368
0.0981726
0.100394
0.102594
0.104767
0.106907
0.109007
0.111059
0.113058
0.114995
0.116865
0.118658
0.12037
0.121993
0.12352
0.124946
0.126266
0.127475
0.128568
0.129542
0.130396
0.131127
0.131734
0.132219
0.132581
0.132824
0.13295
0.132963
0.132868
0.132671
0.132376
0.131991
0.131522
0.130976
0.130359
0.129678
0.128937
0.128144
0.127307
0.126436
0.125455
0.124296
0.00487393
0.00422358
0.00368589
0.00322041
0.00278091
0.00236899
0.00198669
0.00163264
0.00130544
0.00100397
0.000727151
0.000473918
0.000243233
3.41014e-05
-0.000154409
-0.000323189
-0.000473079
-0.000604835
-0.000719142
-0.00081661
-0.0008978
-0.000963202
-0.00101322
-0.00104817
-0.00106834
-0.00107393
-0.00106507
-0.0010418
-0.00100412
-0.000951993
-0.000885328
-0.000803963
-0.000707708
-0.000596361
-0.000469698
-0.000327448
-0.000169301
5.0695e-06
0.000195973
0.000403718
0.000628628
0.000871046
0.00113131
0.00140973
0.00170663
0.00202233
0.00235715
0.00271141
0.00308542
0.00347946
0.00389381
0.0043288
0.00478472
0.00526185
0.00576043
0.00628072
0.006823
0.00738754
0.00797463
0.00858452
0.00921746
0.00987374
0.0105536
0.0112574
0.0119853
0.0127376
0.0135146
0.0143166
0.0151438
0.0159967
0.0168754
0.0177804
0.018712
0.0196705
0.0206564
0.0216699
0.0227115
0.0237814
0.0248801
0.026008
0.0271654
0.0283529
0.0295707
0.0308195
0.0320995
0.0334114
0.0347555
0.0361322
0.0375421
0.0389854
0.0404626
0.0419741
0.0435202
0.0451012
0.0467175
0.0483693
0.0500569
0.0517803
0.0535398
0.0553353
0.0571668
0.059034
0.0609367
0.0628743
0.0648464