/*--------------------------------*- C++ -*----------------------------------*\
  =========                 |
  \\      /  F ield         | OpenFOAM: The Open Source CFD Toolbox
   \\    /   O peration     | Website:  https://openfoam.org
    \\  /    A nd           | Version:  7
     \\/     M anipulation  |
\*---------------------------------------------------------------------------*/
FoamFile
{
    version     2.0;
    format      ascii;
    class       surfaceScalarField;
    location    "0.0125";
    object      phi;
}
// * * * * * * * * * * * * * * * * * * * * * * * * * * * * * * * * * * * * * //

dimensions      [0 3 -1 0 0 0 0];

internalField   nonuniform List<scalar> 
25360
(
1.05101e-10
-1.05116e-10
1.62677e-10
-5.75769e-11
7.42007e-11
8.84752e-11
-1.76791e-10
2.50992e-10
-5.80233e-10
4.03445e-10
-1.11606e-09
5.35826e-10
-1.76169e-09
6.45627e-10
-2.49541e-09
7.3373e-10
-3.29778e-09
8.02368e-10
-4.15202e-09
8.54233e-10
-5.04402e-09
8.92002e-10
-5.96215e-09
9.18132e-10
-6.89697e-09
9.34822e-10
-7.84097e-09
9.43999e-10
-8.78825e-09
9.47285e-10
-9.73424e-09
9.45986e-10
-1.06754e-08
9.41135e-10
-1.1609e-08
9.33579e-10
-1.25329e-08
9.23981e-10
-1.34458e-08
9.12858e-10
-1.43464e-08
9.0057e-10
-1.52337e-08
8.87377e-10
-1.61072e-08
8.73479e-10
-1.69663e-08
8.59036e-10
-1.78104e-08
8.44152e-10
-1.86393e-08
8.28874e-10
-1.94525e-08
8.13262e-10
-2.02499e-08
7.9735e-10
-2.10311e-08
7.81168e-10
-2.17958e-08
7.6474e-10
-2.25439e-08
7.48124e-10
-2.32753e-08
7.31376e-10
-2.39898e-08
7.14492e-10
-2.46873e-08
6.97522e-10
-2.53678e-08
6.8047e-10
-2.60311e-08
6.63349e-10
-2.66773e-08
6.4621e-10
-2.73064e-08
6.2909e-10
-2.79184e-08
6.11983e-10
-2.85133e-08
5.94887e-10
-2.90911e-08
5.77848e-10
-2.9652e-08
5.60848e-10
-3.0196e-08
5.43955e-10
-3.07231e-08
5.27189e-10
-3.12337e-08
5.10514e-10
-3.17276e-08
4.93978e-10
-3.22052e-08
4.77586e-10
-3.26666e-08
4.61399e-10
-3.31121e-08
4.45444e-10
-3.35418e-08
4.29697e-10
-3.39559e-08
4.14189e-10
-3.43549e-08
3.9893e-10
-3.47388e-08
3.83926e-10
-3.5108e-08
3.69164e-10
-3.54626e-08
3.54622e-10
-3.58029e-08
3.40308e-10
-3.61291e-08
3.26166e-10
-3.64412e-08
3.12167e-10
-3.67396e-08
2.98362e-10
-3.70243e-08
2.8472e-10
-3.72955e-08
2.71203e-10
-3.75534e-08
2.57895e-10
-3.77982e-08
2.44804e-10
-3.80301e-08
2.31866e-10
-3.82492e-08
2.19136e-10
-3.84559e-08
2.06668e-10
-3.86503e-08
1.94388e-10
-3.88325e-08
1.82281e-10
-3.9003e-08
1.70424e-10
-3.91617e-08
1.58768e-10
-3.93089e-08
1.47195e-10
-3.94447e-08
1.35723e-10
-3.95691e-08
1.24401e-10
-3.96822e-08
1.13137e-10
-3.9784e-08
1.01836e-10
-3.98746e-08
9.05327e-11
-3.99538e-08
7.92643e-11
-4.00218e-08
6.79749e-11
-4.00784e-08
5.66379e-11
-4.01238e-08
4.53128e-11
-4.01578e-08
3.40222e-11
-4.01805e-08
2.27099e-11
-4.01918e-08
1.13541e-11
-4.01918e-08
-1.79229e-15
-4.01805e-08
-1.13562e-11
-4.01577e-08
-2.27929e-11
-4.01233e-08
-3.43729e-11
-4.00772e-08
-4.60826e-11
-4.00193e-08
-5.79131e-11
-3.99494e-08
-6.99219e-11
-3.98672e-08
-8.21707e-11
-3.97726e-08
-9.46517e-11
-3.96652e-08
-1.07323e-10
-3.95451e-08
-1.20187e-10
-3.94118e-08
-1.33283e-10
-3.92651e-08
-1.46628e-10
-3.91049e-08
-1.60205e-10
-3.89309e-08
-1.74011e-10
-3.87428e-08
-1.88086e-10
-3.85404e-08
-2.02476e-10
-3.83232e-08
-2.17194e-10
-3.80909e-08
-2.32229e-10
-3.78434e-08
-2.47589e-10
-3.75801e-08
-2.63296e-10
-3.73007e-08
-2.7936e-10
-3.70049e-08
-2.95771e-10
-3.66924e-08
-3.12524e-10
-3.63628e-08
-3.29635e-10
-3.60156e-08
-3.47134e-10
-3.56506e-08
-3.65034e-10
-3.52673e-08
-3.83329e-10
-3.48653e-08
-4.02007e-10
-3.44442e-08
-4.21061e-10
-3.40037e-08
-4.40487e-10
-3.35434e-08
-4.60275e-10
-3.3063e-08
-4.80398e-10
-3.25622e-08
-5.00831e-10
-3.20406e-08
-5.21557e-10
-3.14981e-08
-5.42562e-10
-3.09343e-08
-5.63832e-10
-3.03489e-08
-5.85336e-10
-2.97419e-08
-6.0704e-10
-2.9113e-08
-6.28909e-10
-2.8462e-08
-6.5092e-10
-2.7789e-08
-6.73054e-10
-2.70937e-08
-6.95285e-10
-2.63761e-08
-7.1758e-10
-2.56362e-08
-7.39895e-10
-2.4874e-08
-7.6219e-10
-2.40896e-08
-7.84435e-10
-2.3283e-08
-8.06597e-10
-2.24544e-08
-8.28628e-10
-2.16039e-08
-8.50467e-10
-2.07319e-08
-8.72048e-10
-1.98386e-08
-8.933e-10
-1.89244e-08
-9.14138e-10
-1.799e-08
-9.34453e-10
-1.70359e-08
-9.54109e-10
-1.60629e-08
-9.72948e-10
-1.50721e-08
-9.90774e-10
-1.40648e-08
-1.00733e-09
-1.30425e-08
-1.02228e-09
-1.20074e-08
-1.03517e-09
-1.09619e-08
-1.04545e-09
-9.90954e-09
-1.05238e-09
-8.85449e-09
-1.05505e-09
-7.80216e-09
-1.05232e-09
-6.75935e-09
-1.04281e-09
-5.7345e-09
-1.02485e-09
-4.73808e-09
-9.96426e-10
-3.78284e-09
-9.55239e-10
-2.88415e-09
-8.98683e-10
-2.06021e-09
-8.2394e-10
-1.33207e-09
-7.28144e-10
-7.23306e-10
-6.08762e-10
-2.58778e-10
-4.64528e-10
3.87935e-11
-2.97571e-10
1.56736e-10
-1.17942e-10
1.10394e-10
4.63415e-11
1.10395e-10
5.70592e-11
-1.62176e-10
-8.17047e-11
8.11917e-11
-5.47813e-10
5.54584e-10
-1.37809e-09
1.08127e-09
-2.56167e-09
1.58702e-09
-4.06386e-09
2.03802e-09
-5.8397e-09
2.42147e-09
-7.84204e-09
2.73607e-09
-1.00259e-08
2.98626e-09
-1.23507e-08
3.17904e-09
-1.47811e-08
3.32232e-09
-1.72869e-08
3.42393e-09
-1.98432e-08
3.49114e-09
-2.24296e-08
3.53045e-09
-2.50298e-08
3.54744e-09
-2.76306e-08
3.54681e-09
-3.02218e-08
3.53238e-09
-3.27955e-08
3.50724e-09
-3.53454e-08
3.47386e-09
-3.78667e-08
3.43416e-09
-4.03557e-08
3.38958e-09
-4.28095e-08
3.3412e-09
-4.52259e-08
3.28983e-09
-4.76029e-08
3.23609e-09
-4.99392e-08
3.18041e-09
-5.22334e-08
3.12308e-09
-5.44845e-08
3.06434e-09
-5.66915e-08
3.00436e-09
-5.88536e-08
2.94332e-09
-6.09702e-08
2.88136e-09
-6.30408e-08
2.81863e-09
-6.50647e-08
2.75529e-09
-6.70416e-08
2.69144e-09
-6.89713e-08
2.62722e-09
-7.08536e-08
2.56271e-09
-7.26882e-08
2.498e-09
-7.44752e-08
2.43321e-09
-7.62145e-08
2.3684e-09
-7.79062e-08
2.30366e-09
-7.95503e-08
2.23903e-09
-8.11471e-08
2.17461e-09
-8.26967e-08
2.11046e-09
-8.41994e-08
2.04664e-09
-8.56555e-08
1.98328e-09
-8.70654e-08
1.9204e-09
-8.84294e-08
1.85805e-09
-8.97482e-08
1.79632e-09
-9.1022e-08
1.73527e-09
-9.22516e-08
1.67499e-09
-9.34374e-08
1.61553e-09
-9.45802e-08
1.55693e-09
-9.56804e-08
1.49919e-09
-9.67389e-08
1.44237e-09
-9.77562e-08
1.38648e-09
-9.8733e-08
1.3314e-09
-9.96698e-08
1.27711e-09
-1.00567e-07
1.22358e-09
-1.01426e-07
1.17072e-09
-1.02246e-07
1.11851e-09
-1.03028e-07
1.06699e-09
-1.03773e-07
1.01613e-09
-1.04481e-07
9.65938e-10
-1.05153e-07
9.16505e-10
-1.05789e-07
8.67841e-10
-1.0639e-07
8.199e-10
-1.06956e-07
7.7271e-10
-1.07487e-07
7.26295e-10
-1.07986e-07
6.80595e-10
-1.08451e-07
6.35542e-10
-1.08883e-07
5.91095e-10
-1.09283e-07
5.47183e-10
-1.09651e-07
5.03702e-10
-1.09987e-07
4.60554e-10
-1.10292e-07
4.17649e-10
-1.10565e-07
3.74893e-10
-1.10807e-07
3.32198e-10
-1.11017e-07
2.89514e-10
-1.11196e-07
2.4683e-10
-1.11343e-07
2.0415e-10
-1.11459e-07
1.61471e-10
-1.11544e-07
1.18776e-10
-1.11597e-07
7.60403e-11
-1.11619e-07
3.32419e-11
-1.1161e-07
-9.66163e-12
-1.11568e-07
-5.2758e-11
-1.11495e-07
-9.61577e-11
-1.11389e-07
-1.3995e-10
-1.11251e-07
-1.84205e-10
-1.1108e-07
-2.29003e-10
-1.10876e-07
-2.74445e-10
-1.10637e-07
-3.20607e-10
-1.10364e-07
-3.67525e-10
-1.10056e-07
-4.15218e-10
-1.09713e-07
-4.63716e-10
-1.09333e-07
-5.13051e-10
-1.08916e-07
-5.63241e-10
-1.08462e-07
-6.14308e-10
-1.0797e-07
-6.663e-10
-1.07439e-07
-7.19298e-10
-1.06868e-07
-7.73385e-10
-1.06257e-07
-8.28629e-10
-1.05604e-07
-8.85083e-10
-1.04908e-07
-9.42792e-10
-1.0417e-07
-1.00178e-09
-1.03387e-07
-1.06205e-09
-1.02559e-07
-1.12359e-09
-1.01686e-07
-1.18642e-09
-1.00765e-07
-1.25057e-09
-9.97957e-08
-1.3161e-09
-9.87777e-08
-1.38304e-09
-9.77096e-08
-1.45142e-09
-9.65904e-08
-1.52124e-09
-9.5419e-08
-1.59247e-09
-9.41944e-08
-1.66505e-09
-9.29157e-08
-1.73892e-09
-9.15821e-08
-1.81399e-09
-9.01928e-08
-1.89019e-09
-8.87469e-08
-1.96747e-09
-8.72437e-08
-2.04578e-09
-8.56824e-08
-2.12506e-09
-8.40626e-08
-2.20523e-09
-8.23834e-08
-2.28619e-09
-8.06445e-08
-2.3678e-09
-7.88455e-08
-2.44994e-09
-7.69861e-08
-2.53248e-09
-7.50661e-08
-2.61529e-09
-7.30854e-08
-2.69827e-09
-7.1044e-08
-2.78131e-09
-6.89419e-08
-2.86428e-09
-6.67793e-08
-2.94703e-09
-6.45565e-08
-3.02939e-09
-6.2274e-08
-3.11113e-09
-5.99325e-08
-3.19202e-09
-5.75327e-08
-3.27179e-09
-5.50759e-08
-3.35016e-09
-5.25632e-08
-3.4268e-09
-4.99964e-08
-3.50131e-09
-4.73773e-08
-3.5732e-09
-4.47084e-08
-3.6418e-09
-4.19929e-08
-3.7063e-09
-3.92346e-08
-3.76566e-09
-3.64383e-08
-3.81855e-09
-3.36102e-08
-3.8633e-09
-3.07578e-08
-3.89778e-09
-2.78909e-08
-3.9193e-09
-2.50214e-08
-3.92453e-09
-2.21644e-08
-3.90934e-09
-1.93385e-08
-3.86876e-09
-1.65664e-08
-3.79691e-09
-1.38758e-08
-3.68701e-09
-1.12996e-08
-3.53146e-09
-8.87618e-09
-3.32208e-09
-6.64955e-09
-3.05057e-09
-4.66831e-09
-2.70938e-09
-2.9837e-09
-2.29337e-09
-1.64516e-09
-1.80306e-09
-6.92025e-10
-1.25071e-09
-1.39448e-10
-6.7052e-10
4.66147e-11
-1.39721e-10
1.5701e-10
-8.59059e-11
-7.62713e-11
-5.51239e-10
5.46527e-10
-1.49723e-09
1.50058e-09
-2.95272e-09
2.53675e-09
-4.90124e-09
3.53554e-09
-7.29921e-09
4.43599e-09
-1.00891e-08
5.21139e-09
-1.32088e-08
5.85576e-09
-1.65972e-08
6.37461e-09
-2.01975e-08
6.77937e-09
-2.39592e-08
7.08406e-09
-2.78386e-08
7.30332e-09
-3.17986e-08
7.45116e-09
-3.58086e-08
7.54038e-09
-3.98433e-08
7.58217e-09
-4.38826e-08
7.58608e-09
-4.79102e-08
7.56004e-09
-5.19135e-08
7.51052e-09
-5.58823e-08
7.44269e-09
-5.98088e-08
7.36061e-09
-6.36866e-08
7.26741e-09
-6.75109e-08
7.16549e-09
-7.12777e-08
7.05665e-09
-7.49839e-08
6.94224e-09
-7.86268e-08
6.82329e-09
-8.22042e-08
6.70055e-09
-8.57145e-08
6.57456e-09
-8.91559e-08
6.44581e-09
-9.25273e-08
6.31468e-09
-9.58274e-08
6.18152e-09
-9.90555e-08
6.04667e-09
-1.02211e-07
5.91043e-09
-1.05292e-07
5.77306e-09
-1.083e-07
5.63483e-09
-1.11233e-07
5.49596e-09
-1.14092e-07
5.35667e-09
-1.16876e-07
5.21719e-09
-1.19585e-07
5.07767e-09
-1.2222e-07
4.9383e-09
-1.2478e-07
4.79927e-09
-1.27266e-07
4.66069e-09
-1.29678e-07
4.52279e-09
-1.32017e-07
4.38568e-09
-1.34284e-07
4.24951e-09
-1.36478e-07
4.11446e-09
-1.386e-07
3.98059e-09
-1.40652e-07
3.84806e-09
-1.42634e-07
3.71704e-09
-1.44546e-07
3.58759e-09
-1.46391e-07
3.45982e-09
-1.48167e-07
3.33384e-09
-1.49878e-07
3.20967e-09
-1.51523e-07
3.08734e-09
-1.53103e-07
2.96688e-09
-1.5462e-07
2.8482e-09
-1.56074e-07
2.73126e-09
-1.57467e-07
2.61595e-09
-1.58798e-07
2.50224e-09
-1.6007e-07
2.39009e-09
-1.61282e-07
2.27946e-09
-1.62436e-07
2.17035e-09
-1.63533e-07
2.06282e-09
-1.64574e-07
1.95686e-09
-1.65558e-07
1.85243e-09
-1.66488e-07
1.74958e-09
-1.67363e-07
1.6483e-09
-1.68186e-07
1.54847e-09
-1.68955e-07
1.45003e-09
-1.69673e-07
1.35295e-09
-1.70339e-07
1.2571e-09
-1.70954e-07
1.16226e-09
-1.71518e-07
1.06831e-09
-1.72033e-07
9.75157e-10
-1.72498e-07
8.82595e-10
-1.72913e-07
7.90407e-10
-1.7328e-07
6.98494e-10
-1.73597e-07
6.06798e-10
-1.73865e-07
5.15213e-10
-1.74085e-07
4.23647e-10
-1.74255e-07
3.32082e-10
-1.74377e-07
2.40495e-10
-1.7445e-07
1.48786e-10
-1.74473e-07
5.68319e-11
-1.74448e-07
-3.54725e-11
-1.74372e-07
-1.28245e-10
-1.74247e-07
-2.21661e-10
-1.74071e-07
-3.15911e-10
-1.73844e-07
-4.11155e-10
-1.73565e-07
-5.07526e-10
-1.73234e-07
-6.05169e-10
-1.72851e-07
-7.04233e-10
-1.72413e-07
-8.04833e-10
-1.71922e-07
-9.07047e-10
-1.71374e-07
-1.01094e-09
-1.70771e-07
-1.11659e-09
-1.7011e-07
-1.22408e-09
-1.69391e-07
-1.3335e-09
-1.68612e-07
-1.44495e-09
-1.67773e-07
-1.55854e-09
-1.66872e-07
-1.67442e-09
-1.65908e-07
-1.79272e-09
-1.64879e-07
-1.91356e-09
-1.63785e-07
-2.037e-09
-1.62624e-07
-2.16311e-09
-1.61394e-07
-2.29192e-09
-1.60094e-07
-2.42347e-09
-1.58723e-07
-2.55778e-09
-1.57278e-07
-2.69492e-09
-1.5576e-07
-2.83495e-09
-1.54165e-07
-2.97792e-09
-1.52492e-07
-3.12388e-09
-1.50741e-07
-3.27281e-09
-1.48908e-07
-3.42465e-09
-1.46994e-07
-3.57931e-09
-1.44996e-07
-3.73668e-09
-1.42914e-07
-3.8966e-09
-1.40745e-07
-4.05896e-09
-1.38489e-07
-4.22364e-09
-1.36144e-07
-4.39051e-09
-1.3371e-07
-4.55942e-09
-1.31185e-07
-4.73021e-09
-1.28568e-07
-4.90265e-09
-1.2586e-07
-5.07649e-09
-1.23058e-07
-5.25145e-09
-1.20163e-07
-5.42728e-09
-1.17175e-07
-5.6037e-09
-1.14093e-07
-5.78046e-09
-1.10917e-07
-5.95727e-09
-1.07647e-07
-6.13384e-09
-1.04284e-07
-6.30981e-09
-1.00829e-07
-6.48476e-09
-9.7282e-08
-6.65824e-09
-9.36443e-08
-6.82973e-09
-8.99174e-08
-6.99865e-09
-8.61032e-08
-7.16438e-09
-8.22038e-08
-7.32617e-09
-7.8222e-08
-7.48311e-09
-7.41611e-08
-7.63409e-09
-7.00252e-08
-7.77768e-09
-6.58195e-08
-7.91208e-09
-6.15501e-08
-8.03504e-09
-5.72249e-08
-8.14369e-09
-5.28538e-08
-8.23444e-09
-4.84488e-08
-8.30274e-09
-4.40252e-08
-8.34295e-09
-3.96017e-08
-8.34805e-09
-3.52014e-08
-8.30957e-09
-3.08528e-08
-8.2174e-09
-2.65899e-08
-8.05977e-09
-2.24536e-08
-7.82336e-09
-1.84915e-08
-7.49356e-09
-1.47584e-08
-7.05513e-09
-1.13157e-08
-6.49335e-09
-8.22914e-09
-5.7959e-09
-5.56628e-09
-4.95624e-09
-3.39001e-09
-3.97933e-09
-1.74947e-09
-2.89125e-09
-6.66347e-10
-1.75364e-09
-1.16223e-10
-6.89844e-10
4.07872e-11
-2.49115e-10
1.72842e-10
-1.0796e-09
1.37701e-09
-2.53689e-09
2.95787e-09
-4.62341e-09
4.62328e-09
-7.30798e-09
6.22011e-09
-1.05366e-08
7.66461e-09
-1.42422e-08
8.917e-09
-1.83526e-08
9.96617e-09
-2.27962e-08
1.08182e-08
-2.75056e-08
1.14887e-08
-3.24198e-08
1.19983e-08
-3.74853e-08
1.23688e-08
-4.26561e-08
1.2622e-08
-4.78937e-08
1.27779e-08
-5.3166e-08
1.28545e-08
-5.84469e-08
1.2867e-08
-6.37154e-08
1.28285e-08
-6.89545e-08
1.27496e-08
-7.41507e-08
1.26389e-08
-7.92934e-08
1.25033e-08
-8.43739e-08
1.2348e-08
-8.93855e-08
1.21771e-08
-9.43226e-08
1.19938e-08
-9.91808e-08
1.18005e-08
-1.03956e-07
1.15989e-08
-1.08646e-07
1.13905e-08
-1.13248e-07
1.11764e-08
-1.1776e-07
1.09573e-08
-1.22179e-07
1.07341e-08
-1.26505e-07
1.05073e-08
-1.30736e-07
1.02776e-08
-1.34871e-07
1.00455e-08
-1.38909e-07
9.81132e-09
-1.4285e-07
9.57565e-09
-1.46693e-07
9.33889e-09
-1.50438e-07
9.1014e-09
-1.54084e-07
8.86355e-09
-1.57632e-07
8.6257e-09
-1.61082e-07
8.38812e-09
-1.64434e-07
8.15117e-09
-1.67688e-07
7.91509e-09
-1.70846e-07
7.68017e-09
-1.73907e-07
7.4467e-09
-1.76872e-07
7.21487e-09
-1.79742e-07
6.98496e-09
-1.82519e-07
6.75718e-09
-1.85203e-07
6.53167e-09
-1.87794e-07
6.3087e-09
-1.90295e-07
6.0884e-09
-1.92706e-07
5.87092e-09
-1.95029e-07
5.6564e-09
-1.97264e-07
5.44487e-09
-1.99413e-07
5.23642e-09
-2.01477e-07
5.03105e-09
-2.03458e-07
4.82868e-09
-2.05356e-07
4.6293e-09
-2.07173e-07
4.43284e-09
-2.0891e-07
4.23915e-09
-2.10568e-07
4.04824e-09
-2.12148e-07
3.8601e-09
-2.13653e-07
3.67463e-09
-2.15082e-07
3.4918e-09
-2.16436e-07
3.3117e-09
-2.17718e-07
3.13425e-09
-2.18928e-07
2.95934e-09
-2.20067e-07
2.78694e-09
-2.21135e-07
2.617e-09
-2.22134e-07
2.44934e-09
-2.23065e-07
2.28379e-09
-2.23928e-07
2.1202e-09
-2.24724e-07
1.95836e-09
-2.25454e-07
1.79805e-09
-2.26118e-07
1.63902e-09
-2.26717e-07
1.48104e-09
-2.2725e-07
1.32391e-09
-2.27719e-07
1.16739e-09
-2.28123e-07
1.01131e-09
-2.28464e-07
8.55503e-10
-2.2874e-07
6.99861e-10
-2.28952e-07
5.44251e-10
-2.291e-07
3.88524e-10
-2.29184e-07
2.32516e-10
-2.29203e-07
7.60529e-11
-2.29158e-07
-8.10593e-11
-2.29047e-07
-2.39054e-10
-2.2887e-07
-3.98189e-10
-2.28627e-07
-5.58715e-10
-2.28318e-07
-7.20867e-10
-2.2794e-07
-8.84881e-10
-2.27494e-07
-1.05099e-09
-2.26979e-07
-1.21941e-09
-2.26394e-07
-1.39033e-09
-2.25737e-07
-1.56389e-09
-2.25008e-07
-1.74027e-09
-2.24205e-07
-1.91962e-09
-2.23327e-07
-2.10209e-09
-2.22372e-07
-2.28785e-09
-2.2134e-07
-2.47707e-09
-2.20229e-07
-2.66994e-09
-2.19036e-07
-2.86666e-09
-2.17762e-07
-3.06742e-09
-2.16403e-07
-3.27239e-09
-2.14958e-07
-3.48169e-09
-2.13426e-07
-3.69545e-09
-2.11804e-07
-3.91374e-09
-2.10091e-07
-4.13665e-09
-2.08284e-07
-4.36425e-09
-2.06383e-07
-4.59663e-09
-2.04384e-07
-4.83385e-09
-2.02286e-07
-5.07598e-09
-2.00087e-07
-5.32304e-09
-1.97784e-07
-5.575e-09
-1.95377e-07
-5.83179e-09
-1.92863e-07
-6.09326e-09
-1.90241e-07
-6.35926e-09
-1.87508e-07
-6.6296e-09
-1.84663e-07
-6.90408e-09
-1.81704e-07
-7.18248e-09
-1.7863e-07
-7.46457e-09
-1.75439e-07
-7.75008e-09
-1.72131e-07
-8.03871e-09
-1.68703e-07
-8.3301e-09
-1.65156e-07
-8.62384e-09
-1.61488e-07
-8.91949e-09
-1.57698e-07
-9.21663e-09
-1.53787e-07
-9.51476e-09
-1.49754e-07
-9.81343e-09
-1.45599e-07
-1.01121e-08
-1.41323e-07
-1.04102e-08
-1.36926e-07
-1.07071e-08
-1.32408e-07
-1.10021e-08
-1.27772e-07
-1.12945e-08
-1.23019e-07
-1.15832e-08
-1.1815e-07
-1.18674e-08
-1.13168e-07
-1.21459e-08
-1.08077e-07
-1.24174e-08
-1.0288e-07
-1.26803e-08
-9.75816e-08
-1.29326e-08
-9.21874e-08
-1.31719e-08
-8.67043e-08
-1.33951e-08
-8.1141e-08
-1.35984e-08
-7.55077e-08
-1.37769e-08
-6.98177e-08
-1.39245e-08
-6.40869e-08
-1.40336e-08
-5.83351e-08
-1.40947e-08
-5.25867e-08
-1.40964e-08
-4.68715e-08
-1.40248e-08
-4.12252e-08
-1.38637e-08
-3.56907e-08
-1.35943e-08
-3.03183e-08
-1.31957e-08
-2.51664e-08
-1.26455e-08
-2.03009e-08
-1.19207e-08
-1.57944e-08
-1.09999e-08
-1.17241e-08
-9.86623e-09
-8.16786e-09
-8.51245e-09
-5.19884e-09
-6.94835e-09
-2.87723e-09
-5.21286e-09
-1.24068e-09
-3.3902e-09
-2.93738e-10
-1.63678e-09
-2.5295e-10
-4.03524e-10
5.76368e-10
-1.59208e-09
2.56556e-09
-3.54921e-09
4.91501e-09
-6.24174e-09
7.31581e-09
-9.61731e-09
9.59567e-09
-1.36086e-08
1.16559e-08
-1.8139e-08
1.34474e-08
-2.31282e-08
1.49554e-08
-2.84973e-08
1.61872e-08
-3.41713e-08
1.71628e-08
-4.00823e-08
1.79093e-08
-4.61698e-08
1.84563e-08
-5.23816e-08
1.88338e-08
-5.86731e-08
1.90695e-08
-6.50072e-08
1.91886e-08
-7.13533e-08
1.9213e-08
-7.76861e-08
1.91614e-08
-8.39856e-08
1.90491e-08
-9.02353e-08
1.88886e-08
-9.6422e-08
1.869e-08
-1.02535e-07
1.84612e-08
-1.08566e-07
1.82083e-08
-1.14509e-07
1.79361e-08
-1.20357e-07
1.76482e-08
-1.26105e-07
1.73475e-08
-1.31751e-07
1.70361e-08
-1.3729e-07
1.67157e-08
-1.4272e-07
1.63877e-08
-1.4804e-07
1.60533e-08
-1.53246e-07
1.57134e-08
-1.58337e-07
1.53691e-08
-1.63313e-07
1.5021e-08
-1.68171e-07
1.46698e-08
-1.72912e-07
1.43164e-08
-1.77534e-07
1.39613e-08
-1.82038e-07
1.36051e-08
-1.86423e-07
1.32483e-08
-1.90688e-07
1.28916e-08
-1.94836e-07
1.25353e-08
-1.98865e-07
1.21801e-08
-2.02776e-07
1.18262e-08
-2.0657e-07
1.14741e-08
-2.10247e-07
1.11243e-08
-2.13809e-07
1.0777e-08
-2.17257e-07
1.04326e-08
-2.20591e-07
1.00915e-08
-2.23814e-07
9.75383e-09
-2.26925e-07
9.41994e-09
-2.29926e-07
9.09005e-09
-2.3282e-07
8.76434e-09
-2.35606e-07
8.443e-09
-2.38288e-07
8.12613e-09
-2.40865e-07
7.81375e-09
-2.4334e-07
7.50596e-09
-2.45714e-07
7.2027e-09
-2.47989e-07
6.90389e-09
-2.50165e-07
6.6095e-09
-2.52246e-07
6.31946e-09
-2.54231e-07
6.03367e-09
-2.56123e-07
5.75205e-09
-2.57923e-07
5.47457e-09
-2.59632e-07
5.20117e-09
-2.61252e-07
4.93177e-09
-2.62784e-07
4.66626e-09
-2.6423e-07
4.40459e-09
-2.65589e-07
4.14663e-09
-2.66864e-07
3.89215e-09
-2.68056e-07
3.64098e-09
-2.69165e-07
3.39294e-09
-2.70193e-07
3.14776e-09
-2.71139e-07
2.90511e-09
-2.72006e-07
2.66472e-09
-2.72793e-07
2.42631e-09
-2.73502e-07
2.18955e-09
-2.74132e-07
1.95411e-09
-2.74684e-07
1.71971e-09
-2.75159e-07
1.4861e-09
-2.75557e-07
1.25303e-09
-2.75877e-07
1.02023e-09
-2.7612e-07
7.87474e-10
-2.76286e-07
5.54543e-10
-2.76375e-07
3.21175e-10
-2.76386e-07
8.70645e-11
-2.76319e-07
-1.48095e-10
-2.76173e-07
-3.84617e-10
-2.75949e-07
-6.22837e-10
-2.75644e-07
-8.6311e-10
-2.7526e-07
-1.10578e-09
-2.74793e-07
-1.35118e-09
-2.74245e-07
-1.59962e-09
-2.73613e-07
-1.85142e-09
-2.72896e-07
-2.10684e-09
-2.72094e-07
-2.36617e-09
-2.71204e-07
-2.62964e-09
-2.70227e-07
-2.89752e-09
-2.69159e-07
-3.17005e-09
-2.67999e-07
-3.44749e-09
-2.66746e-07
-3.7301e-09
-2.65398e-07
-4.01815e-09
-2.63952e-07
-4.31192e-09
-2.62408e-07
-4.61164e-09
-2.60763e-07
-4.91755e-09
-2.59015e-07
-5.22986e-09
-2.57162e-07
-5.54874e-09
-2.55201e-07
-5.87434e-09
-2.53131e-07
-6.20679e-09
-2.50949e-07
-6.54622e-09
-2.48653e-07
-6.89272e-09
-2.4624e-07
-7.2464e-09
-2.43709e-07
-7.60729e-09
-2.41057e-07
-7.97542e-09
-2.38281e-07
-8.35072e-09
-2.3538e-07
-8.7331e-09
-2.3235e-07
-9.12239e-09
-2.29191e-07
-9.51837e-09
-2.259e-07
-9.9208e-09
-2.22475e-07
-1.03294e-08
-2.18913e-07
-1.07438e-08
-2.15214e-07
-1.11637e-08
-2.11376e-07
-1.15887e-08
-2.07396e-07
-1.20182e-08
-2.03275e-07
-1.24518e-08
-1.99009e-07
-1.28889e-08
-1.946e-07
-1.33289e-08
-1.90046e-07
-1.3771e-08
-1.85346e-07
-1.42146e-08
-1.805e-07
-1.4659e-08
-1.75509e-07
-1.51032e-08
-1.70373e-07
-1.55465e-08
-1.65092e-07
-1.59878e-08
-1.59668e-07
-1.64261e-08
-1.54103e-07
-1.68601e-08
-1.48397e-07
-1.72886e-08
-1.42555e-07
-1.771e-08
-1.36578e-07
-1.81226e-08
-1.30471e-07
-1.85243e-08
-1.24238e-07
-1.89128e-08
-1.17886e-07
-1.92849e-08
-1.11421e-07
-1.96371e-08
-1.04851e-07
-1.99647e-08
-9.81876e-08
-2.0262e-08
-9.14429e-08
-2.05217e-08
-8.46326e-08
-2.07347e-08
-7.77762e-08
-2.089e-08
-7.08972e-08
-2.09737e-08
-6.40244e-08
-2.09692e-08
-5.71924e-08
-2.08568e-08
-5.04429e-08
-2.06133e-08
-4.38248e-08
-2.02123e-08
-3.73956e-08
-1.9625e-08
-3.12207e-08
-1.88204e-08
-2.53737e-08
-1.77676e-08
-1.9935e-08
-1.64385e-08
-1.49897e-08
-1.48116e-08
-1.06241e-08
-1.28781e-08
-6.92115e-09
-1.06512e-08
-3.95531e-09
-8.1787e-09
-1.7867e-09
-5.5588e-09
-4.58241e-10
-2.96524e-09
-7.11191e-10
-5.39205e-10
1.11558e-09
-2.05504e-09
4.08139e-09
-4.47444e-09
7.33441e-09
-7.72675e-09
1.05681e-08
-1.17353e-08
1.36043e-08
-1.64172e-08
1.63377e-08
-2.16853e-08
1.87155e-08
-2.74517e-08
2.07219e-08
-3.36311e-08
2.23666e-08
-4.01433e-08
2.3675e-08
-4.6915e-08
2.4681e-08
-5.38812e-08
2.54225e-08
-6.0985e-08
2.59376e-08
-6.81778e-08
2.62622e-08
-7.54185e-08
2.64293e-08
-8.26731e-08
2.64676e-08
-8.99134e-08
2.64017e-08
-9.71165e-08
2.62522e-08
-1.04264e-07
2.60358e-08
-1.1134e-07
2.57663e-08
-1.18333e-07
2.54542e-08
-1.25233e-07
2.51081e-08
-1.32031e-07
2.47346e-08
-1.38722e-07
2.43387e-08
-1.45299e-07
2.39245e-08
-1.51758e-07
2.34951e-08
-1.58095e-07
2.30528e-08
-1.64307e-07
2.25998e-08
-1.70392e-07
2.21377e-08
-1.76346e-07
2.16679e-08
-1.82169e-07
2.11918e-08
-1.87858e-07
2.07104e-08
-1.93413e-07
2.02248e-08
-1.98833e-07
1.97359e-08
-2.04116e-07
1.92447e-08
-2.09263e-07
1.87521e-08
-2.14273e-07
1.82587e-08
-2.19147e-07
1.77654e-08
-2.23885e-07
1.72728e-08
-2.28486e-07
1.67817e-08
-2.32953e-07
1.62925e-08
-2.37285e-07
1.5806e-08
-2.41483e-07
1.53226e-08
-2.45549e-07
1.48428e-08
-2.49483e-07
1.43671e-08
-2.53288e-07
1.38959e-08
-2.56963e-07
1.34296e-08
-2.60512e-07
1.29686e-08
-2.63935e-07
1.2513e-08
-2.67234e-07
1.20633e-08
-2.7041e-07
1.16195e-08
-2.73466e-07
1.11818e-08
-2.76403e-07
1.07504e-08
-2.79222e-07
1.03253e-08
-2.81926e-07
9.90642e-09
-2.84516e-07
9.4938e-09
-2.86994e-07
9.08732e-09
-2.89361e-07
8.68689e-09
-2.9162e-07
8.29246e-09
-2.93772e-07
7.90394e-09
-2.95818e-07
7.52116e-09
-2.97761e-07
7.14403e-09
-2.99602e-07
6.77248e-09
-3.01342e-07
6.40631e-09
-3.02983e-07
6.04534e-09
-3.04525e-07
5.6894e-09
-3.05971e-07
5.33826e-09
-3.07322e-07
4.99162e-09
-3.08578e-07
4.64916e-09
-3.09741e-07
4.31058e-09
-3.10812e-07
3.97552e-09
-3.1179e-07
3.64357e-09
-3.12678e-07
3.31435e-09
-3.13476e-07
2.98745e-09
-3.14185e-07
2.66248e-09
-3.14804e-07
2.33906e-09
-3.15335e-07
2.01682e-09
-3.15777e-07
1.69536e-09
-3.16131e-07
1.37436e-09
-3.16397e-07
1.05346e-09
-3.16575e-07
7.32302e-10
-3.16664e-07
4.10494e-10
-3.16665e-07
8.76281e-11
-3.16576e-07
-2.36696e-10
-3.16398e-07
-5.6291e-10
-3.16129e-07
-8.91476e-10
-3.1577e-07
-1.22286e-09
-3.15318e-07
-1.5575e-09
-3.14773e-07
-1.89582e-09
-3.14135e-07
-2.23826e-09
-3.13401e-07
-2.58523e-09
-3.12571e-07
-2.93713e-09
-3.11642e-07
-3.29433e-09
-3.10615e-07
-3.65719e-09
-3.09486e-07
-4.02608e-09
-3.08255e-07
-4.40137e-09
-3.06919e-07
-4.7834e-09
-3.05477e-07
-5.17254e-09
-3.03926e-07
-5.56914e-09
-3.02264e-07
-5.97356e-09
-3.00489e-07
-6.38612e-09
-2.986e-07
-6.80714e-09
-2.96593e-07
-7.23687e-09
-2.94466e-07
-7.67558e-09
-2.92217e-07
-8.12349e-09
-2.89843e-07
-8.58078e-09
-2.87341e-07
-9.04762e-09
-2.8471e-07
-9.52413e-09
-2.81946e-07
-1.00104e-08
-2.79047e-07
-1.05066e-08
-2.7601e-07
-1.10126e-08
-2.72832e-07
-1.15283e-08
-2.69511e-07
-1.20537e-08
-2.66045e-07
-1.25884e-08
-2.62431e-07
-1.31324e-08
-2.58667e-07
-1.36851e-08
-2.5475e-07
-1.42463e-08
-2.50678e-07
-1.48155e-08
-2.4645e-07
-1.53923e-08
-2.42063e-07
-1.59759e-08
-2.37515e-07
-1.65658e-08
-2.32806e-07
-1.71613e-08
-2.27933e-07
-1.77615e-08
-2.22896e-07
-1.83657e-08
-2.17694e-07
-1.89728e-08
-2.12327e-07
-1.9582e-08
-2.06794e-07
-2.01921e-08
-2.01095e-07
-2.08019e-08
-1.95231e-07
-2.14103e-08
-1.89204e-07
-2.20158e-08
-1.83013e-07
-2.26169e-08
-1.76661e-07
-2.32119e-08
-1.70151e-07
-2.3799e-08
-1.63484e-07
-2.43761e-08
-1.56666e-07
-2.49407e-08
-1.49701e-07
-2.549e-08
-1.42593e-07
-2.60204e-08
-1.3535e-07
-2.65279e-08
-1.2798e-07
-2.70073e-08
-1.20492e-07
-2.74523e-08
-1.12899e-07
-2.78549e-08
-1.05216e-07
-2.82052e-08
-9.74596e-08
-2.8491e-08
-8.96525e-08
-2.86971e-08
-8.1821e-08
-2.88051e-08
-7.39973e-08
-2.87929e-08
-6.62198e-08
-2.86343e-08
-5.85341e-08
-2.82989e-08
-5.09939e-08
-2.77525e-08
-4.36613e-08
-2.69576e-08
-3.66068e-08
-2.58748e-08
-2.99095e-08
-2.44649e-08
-2.36555e-08
-2.26925e-08
-1.79363e-08
-2.05308e-08
-1.28462e-08
-1.79682e-08
-8.47915e-09
-1.50183e-08
-4.92587e-09
-1.1732e-08
-2.27209e-09
-8.21258e-09
-6.00264e-10
-4.63707e-09
-1.31145e-09
-6.53814e-10
1.76939e-09
-2.45619e-09
5.88377e-09
-5.28706e-09
1.01653e-08
-9.04091e-09
1.4322e-08
-1.36166e-08
1.818e-08
-1.89146e-08
2.16357e-08
-2.48362e-08
2.46371e-08
-3.12859e-08
2.71715e-08
-3.81725e-08
2.92531e-08
-4.5411e-08
3.09136e-08
-5.29245e-08
3.21946e-08
-6.06443e-08
3.31423e-08
-6.85104e-08
3.38036e-08
-7.6471e-08
3.42229e-08
-8.44826e-08
3.44409e-08
-9.25084e-08
3.44934e-08
-1.00518e-07
3.44115e-08
-1.08487e-07
3.42209e-08
-1.16394e-07
3.3943e-08
-1.24223e-07
3.35952e-08
-1.3196e-07
3.31914e-08
-1.39594e-07
3.27423e-08
-1.47116e-07
3.22567e-08
-1.54519e-07
3.17412e-08
-1.61795e-07
3.12011e-08
-1.68941e-07
3.06407e-08
-1.75951e-07
3.00631e-08
-1.82823e-07
2.94711e-08
-1.89552e-07
2.8867e-08
-1.96137e-07
2.82527e-08
-2.02575e-07
2.763e-08
-2.08865e-07
2.70003e-08
-2.15005e-07
2.63651e-08
-2.20995e-07
2.57257e-08
-2.26833e-07
2.50832e-08
-2.3252e-07
2.44388e-08
-2.38055e-07
2.37935e-08
-2.43438e-07
2.31484e-08
-2.4867e-07
2.25044e-08
-2.5375e-07
2.18623e-08
-2.58681e-07
2.12229e-08
-2.63462e-07
2.0587e-08
-2.68094e-07
1.99554e-08
-2.7258e-07
1.93286e-08
-2.7692e-07
1.87072e-08
-2.81116e-07
1.80917e-08
-2.85169e-07
1.74828e-08
-2.89081e-07
1.68807e-08
-2.92854e-07
1.62859e-08
-2.9649e-07
1.56987e-08
-2.99989e-07
1.51193e-08
-3.03355e-07
1.45478e-08
-3.0659e-07
1.39846e-08
-3.09694e-07
1.34295e-08
-3.1267e-07
1.28827e-08
-3.1552e-07
1.23441e-08
-3.18246e-07
1.18135e-08
-3.20851e-07
1.1291e-08
-3.23335e-07
1.07764e-08
-3.257e-07
1.02696e-08
-3.2795e-07
9.7704e-09
-3.30084e-07
9.27864e-09
-3.32106e-07
8.79412e-09
-3.34016e-07
8.31663e-09
-3.35817e-07
7.84595e-09
-3.37509e-07
7.38178e-09
-3.39095e-07
6.92378e-09
-3.40575e-07
6.47159e-09
-3.4195e-07
6.02487e-09
-3.43223e-07
5.58316e-09
-3.44393e-07
5.14597e-09
-3.45463e-07
4.71285e-09
-3.46432e-07
4.28335e-09
-3.47301e-07
3.85695e-09
-3.48072e-07
3.43313e-09
-3.48744e-07
3.01138e-09
-3.49318e-07
2.59124e-09
-3.49795e-07
2.17224e-09
-3.50175e-07
1.75388e-09
-3.50457e-07
1.33566e-09
-3.50642e-07
9.17102e-10
-3.50729e-07
4.97691e-10
-3.50718e-07
7.68998e-11
-3.50609e-07
-3.45809e-10
-3.50401e-07
-7.70996e-10
-3.50093e-07
-1.19924e-09
-3.49685e-07
-1.63111e-09
-3.49175e-07
-2.06718e-09
-3.48563e-07
-2.50798e-09
-3.47848e-07
-2.95408e-09
-3.47027e-07
-3.406e-09
-3.461e-07
-3.86428e-09
-3.45065e-07
-4.32939e-09
-3.4392e-07
-4.80183e-09
-3.42664e-07
-5.2821e-09
-3.41295e-07
-5.77066e-09
-3.3981e-07
-6.26799e-09
-3.38208e-07
-6.77454e-09
-3.36486e-07
-7.29077e-09
-3.34643e-07
-7.81714e-09
-3.32675e-07
-8.35406e-09
-3.3058e-07
-8.90191e-09
-3.28356e-07
-9.46105e-09
-3.26e-07
-1.00318e-08
-3.23509e-07
-1.06145e-08
-3.2088e-07
-1.12093e-08
-3.18111e-07
-1.18165e-08
-3.15199e-07
-1.24363e-08
-3.12141e-07
-1.30687e-08
-3.08934e-07
-1.37138e-08
-3.05575e-07
-1.43716e-08
-3.02061e-07
-1.5042e-08
-2.9839e-07
-1.57249e-08
-2.94558e-07
-1.64199e-08
-2.90564e-07
-1.71268e-08
-2.86404e-07
-1.78452e-08
-2.82076e-07
-1.85745e-08
-2.77577e-07
-1.93142e-08
-2.72905e-07
-2.00636e-08
-2.68059e-07
-2.08221e-08
-2.63036e-07
-2.15887e-08
-2.57835e-07
-2.23625e-08
-2.52454e-07
-2.31425e-08
-2.46892e-07
-2.39276e-08
-2.41148e-07
-2.47167e-08
-2.35222e-07
-2.55082e-08
-2.29113e-07
-2.6301e-08
-2.22822e-07
-2.70933e-08
-2.16349e-07
-2.78836e-08
-2.09694e-07
-2.86699e-08
-2.02861e-07
-2.94504e-08
-1.9585e-07
-3.02228e-08
-1.88665e-07
-3.09846e-08
-1.81308e-07
-3.1733e-08
-1.73784e-07
-3.24647e-08
-1.66098e-07
-3.31761e-08
-1.58256e-07
-3.38625e-08
-1.50265e-07
-3.45184e-08
-1.42135e-07
-3.51372e-08
-1.33877e-07
-3.57106e-08
-1.25504e-07
-3.62282e-08
-1.17031e-07
-3.66774e-08
-1.0848e-07
-3.70423e-08
-9.98733e-08
-3.73038e-08
-9.124e-08
-3.74385e-08
-8.26145e-08
-3.74184e-08
-7.40381e-08
-3.72107e-08
-6.55593e-08
-3.67777e-08
-5.7235e-08
-3.60768e-08
-4.91308e-08
-3.50619e-08
-4.13209e-08
-3.36847e-08
-3.38885e-08
-3.18974e-08
-2.69243e-08
-2.96566e-08
-2.05261e-08
-2.6929e-08
-1.47963e-08
-2.36981e-08
-9.84051e-09
-1.99741e-08
-5.76688e-09
-1.58056e-08
-2.68659e-09
-1.12929e-08
-7.18272e-10
-6.60539e-09
-2.02973e-09
-7.48307e-10
2.5177e-09
-2.79462e-09
7.93009e-09
-5.98194e-09
1.33526e-08
-1.01747e-08
1.85147e-08
-1.52489e-08
2.32543e-08
-2.10886e-08
2.74753e-08
-2.75835e-08
3.11321e-08
-3.46299e-08
3.42179e-08
-4.21307e-08
3.67539e-08
-4.99969e-08
3.87798e-08
-5.8148e-08
4.03457e-08
-6.65127e-08
4.1507e-08
-7.50285e-08
4.23194e-08
-8.36417e-08
4.28361e-08
-9.23065e-08
4.31057e-08
-1.00985e-07
4.31715e-08
-1.09644e-07
4.30708e-08
-1.18258e-07
4.2835e-08
-1.26805e-07
4.24901e-08
-1.35267e-07
4.20574e-08
-1.4363e-07
4.1554e-08
-1.51881e-07
4.09933e-08
-1.6001e-07
4.03861e-08
-1.6801e-07
3.97408e-08
-1.75873e-07
3.90641e-08
-1.83593e-07
3.83613e-08
-1.91167e-07
3.76366e-08
-1.98589e-07
3.68936e-08
-2.05857e-07
3.61351e-08
-2.12968e-07
3.53637e-08
-2.1992e-07
3.45815e-08
-2.2671e-07
3.37906e-08
-2.33338e-07
3.29928e-08
-2.39802e-07
3.21896e-08
-2.46102e-07
3.13827e-08
-2.52236e-07
3.05735e-08
-2.58206e-07
2.97632e-08
-2.64011e-07
2.89533e-08
-2.69651e-07
2.81448e-08
-2.75128e-07
2.73389e-08
-2.80441e-07
2.65365e-08
-2.85593e-07
2.57387e-08
-2.90584e-07
2.49462e-08
-2.95415e-07
2.416e-08
-3.00089e-07
2.33808e-08
-3.04606e-07