/*--------------------------------*- C++ -*----------------------------------*\
  =========                 |
  \\      /  F ield         | OpenFOAM: The Open Source CFD Toolbox
   \\    /   O peration     | Website:  https://openfoam.org
    \\  /    A nd           | Version:  7
     \\/     M anipulation  |
\*---------------------------------------------------------------------------*/
FoamFile
{
    version     2.0;
    format      ascii;
    class       surfaceScalarField;
    location    "0.1875";
    object      phi;
}
// * * * * * * * * * * * * * * * * * * * * * * * * * * * * * * * * * * * * * //

dimensions      [0 3 -1 0 0 0 0];

internalField   nonuniform List<scalar> 
101920
(
2.3551e-14
1.16379e-14
7.75313e-13
-7.49241e-13
2.27456e-12
-1.50188e-12
3.67153e-12
-1.40102e-12
4.75953e-12
-1.08777e-12
5.57713e-12
-8.17459e-13
6.20697e-12
-6.28729e-13
6.6926e-12
-4.88388e-13
7.06287e-12
-3.69093e-13
7.31995e-12
-2.58037e-13
7.46638e-12
-1.49271e-13
7.5061e-12
-3.76313e-14
7.42923e-12
7.65695e-14
7.23138e-12
1.99457e-13
6.90922e-12
3.21609e-13
6.46341e-12
4.47515e-13
5.8954e-12
5.67891e-13
5.20491e-12
6.90273e-13
4.39301e-12
8.12616e-13
3.45944e-12
9.31366e-13
2.41006e-12
1.04976e-12
1.24633e-12
1.16273e-12
-2.5412e-14
1.27191e-12
-1.4013e-12
1.3778e-12
-2.87764e-12
1.47697e-12
-4.44865e-12
1.57199e-12
-6.10949e-12
1.66224e-12
-7.85598e-12
1.74603e-12
-9.68069e-12
1.82604e-12
-1.15788e-11
1.89917e-12
-1.35441e-11
1.96481e-12
-1.55694e-11
2.02562e-12
-1.76503e-11
2.0794e-12
-1.97803e-11
2.12737e-12
-2.19533e-11
2.17199e-12
-2.41651e-11
2.21061e-12
-2.64093e-11
2.24343e-12
-2.86798e-11
2.27098e-12
-3.09716e-11
2.2906e-12
-3.32777e-11
2.30358e-12
-3.55933e-11
2.31413e-12
-3.79138e-11
2.31966e-12
-4.02331e-11
2.31886e-12
-4.25465e-11
2.31457e-12
-4.48505e-11
2.30525e-12
-4.71391e-11
2.28901e-12
-4.94066e-11
2.26909e-12
-5.16499e-11
2.24516e-12
-5.38642e-11
2.21434e-12
-5.60436e-11
2.17957e-12
-5.81859e-11
2.14292e-12
-6.02878e-11
2.10207e-12
-6.23448e-11
2.05689e-12
-6.43537e-11
2.00948e-12
-6.63127e-11
1.95829e-12
-6.82169e-11
1.9023e-12
-7.00613e-11
1.84392e-12
-7.18457e-11
1.78426e-12
-7.35682e-11
1.72174e-12
-7.52236e-11
1.65561e-12
-7.68091e-11
1.58643e-12
-7.83234e-11
1.51435e-12
-7.97641e-11
1.43995e-12
-8.11286e-11
1.36463e-12
-8.24172e-11
1.28885e-12
-8.36286e-11
1.21154e-12
-8.47594e-11
1.13135e-12
-8.5807e-11
1.04814e-12
-8.67707e-11
9.6349e-13
-8.76502e-11
8.79077e-13
-8.8444e-11
7.9424e-13
-8.91499e-11
7.06974e-13
-8.97673e-11
6.18118e-13
-9.02969e-11
5.30114e-13
-9.07389e-11
4.42402e-13
-9.10927e-11
3.53383e-13
-9.13579e-11
2.63862e-13
-9.1534e-11
1.74652e-13
-9.16188e-11
8.45421e-14
-9.1611e-11
-6.93768e-15
-9.15122e-11
-9.80519e-14
-9.1325e-11
-1.87276e-13
-9.10501e-11
-2.75153e-13
-9.06873e-11
-3.63265e-13
-9.02357e-11
-4.51941e-13
-8.96955e-11
-5.39715e-13
-8.90681e-11
-6.26058e-13
-8.83543e-11
-7.12402e-13
-8.75547e-11
-7.98834e-13
-8.66707e-11
-8.83627e-13
-8.57041e-11
-9.66276e-13
-8.46562e-11
-1.0477e-12
-8.35276e-11
-1.12828e-12
-8.23198e-11
-1.20744e-12
-8.1035e-11
-1.28465e-12
-7.96758e-11
-1.35998e-12
-7.82442e-11
-1.4335e-12
-7.67416e-11
-1.50447e-12
-7.51706e-11
-1.57179e-12
-7.35338e-11
-1.63607e-12
-7.18333e-11
-1.69928e-12
-7.00714e-11
-1.76145e-12
-6.82507e-11
-1.82041e-12
-6.63749e-11
-1.87517e-12
-6.44476e-11
-1.9268e-12
-6.24711e-11
-1.97648e-12
-6.04482e-11
-2.02354e-12
-5.83831e-11
-2.0662e-12
-5.62797e-11
-2.10424e-12
-5.41414e-11
-2.13901e-12
-5.19708e-11
-2.17095e-12
-4.9772e-11
-2.19887e-12
-4.75504e-11
-2.22153e-12
-4.53107e-11
-2.23908e-12
-4.30571e-11
-2.25264e-12
-4.07932e-11
-2.26267e-12
-3.85239e-11
-2.2684e-12
-3.6256e-11
-2.26853e-12
-3.39954e-11
-2.26264e-12
-3.17456e-11
-2.25167e-12
-2.95106e-11
-2.23611e-12
-2.72959e-11
-2.21521e-12
-2.51075e-11
-2.18843e-12
-2.29516e-11
-2.15589e-12
-2.08337e-11
-2.11807e-12
-1.8758e-11
-2.0755e-12
-1.67302e-11
-2.02761e-12
-1.4757e-11
-1.97319e-12
-1.28444e-11
-1.91255e-12
-1.09981e-11
-1.84668e-12
-9.22359e-12
-1.77557e-12
-7.52616e-12
-1.69865e-12
-5.91174e-12
-1.61552e-12
-4.38553e-12
-1.52634e-12
-2.95249e-12
-1.43198e-12
-1.61812e-12
-1.33309e-12
-3.87762e-13
-1.22959e-12
7.33627e-13
-1.12113e-12
1.74126e-12
-1.00785e-12
2.63113e-12
-8.90539e-13
3.40008e-12
-7.69867e-13
4.04531e-12
-6.46036e-13
4.56464e-12
-5.19407e-13
4.95697e-12
-3.91155e-13
5.22146e-12
-2.62912e-13
5.35795e-12
-1.3586e-13
5.36832e-12
-1.08476e-14
5.25628e-12
1.11067e-13
5.02685e-12
2.28517e-13
4.68629e-12
3.39995e-13
4.24414e-12
4.42139e-13
3.71414e-12
5.30408e-13
3.11467e-12
6.00382e-13
2.46974e-12
6.46485e-13
1.80935e-12
6.61273e-13
1.17244e-12
6.35982e-13
6.10945e-13
5.59838e-13
1.90122e-13
4.19814e-13
-1.72303e-14
2.0733e-13
-1.65331e-14
-2.96232e-13
3.10522e-13
3.7533e-13
-1.42329e-12
2.24178e-12
-3.36344e-12
4.46866e-12
-3.62812e-12
6.62751e-12
-3.24897e-12
8.57366e-12
-2.76255e-12
1.02458e-11
-2.30329e-12
1.16334e-11
-1.87551e-12
1.27258e-11
-1.46157e-12
1.351e-11
-1.04042e-12
1.39701e-11
-6.08673e-13
1.4094e-11
-1.64308e-13
1.38698e-11
2.99638e-13
1.32936e-11
7.72465e-13
1.23566e-11
1.25816e-12
1.10587e-11
1.74401e-12
9.39732e-12
2.22837e-12
7.37699e-12
2.71078e-12
5.00272e-12
3.18564e-12
2.28207e-12
3.65414e-12
-7.77819e-13
4.10915e-12
-4.16478e-12
4.54865e-12
-7.86803e-12
4.97407e-12
-1.18741e-11
5.38072e-12
-1.6169e-11
5.76983e-12
-2.0739e-11
6.14114e-12
-2.55694e-11
6.48995e-12
-3.06433e-11
6.81949e-12
-3.5945e-11
7.12705e-12
-4.14579e-11
7.41014e-12
-4.71642e-11
7.67249e-12
-5.30481e-11
7.91126e-12
-5.90927e-11
8.12597e-12
-6.52805e-11
8.31941e-12
-7.15965e-11
8.48937e-12
-7.80227e-11
8.63645e-12
-8.45412e-11
8.76369e-12
-9.11368e-11
8.86852e-12
-9.77922e-11
8.94895e-12
-1.04492e-10
9.00799e-12
-1.11222e-10
9.04651e-12
-1.17966e-10
9.06318e-12
-1.24708e-10
9.06127e-12
-1.31434e-10
9.04104e-12
-1.3813e-10
8.99946e-12
-1.44781e-10
8.93879e-12
-1.51374e-10
8.86167e-12
-1.57897e-10
8.76583e-12
-1.64335e-10
8.6517e-12
-1.70677e-10
8.52307e-12
-1.76915e-10
8.37915e-12
-1.83033e-10
8.21924e-12
-1.89021e-10
8.04621e-12
-1.94871e-10
7.86045e-12
-2.00571e-10
7.65974e-12
-2.06113e-10
7.44534e-12
-2.11487e-10
7.21959e-12
-2.16686e-10
6.98264e-12
-2.21699e-10
6.73458e-12
-2.26519e-10
6.47611e-12
-2.31141e-10
6.20791e-12
-2.35557e-10
5.93037e-12
-2.3976e-10
5.64402e-12
-2.43745e-10
5.34995e-12
-2.47506e-10
5.0495e-12
-2.51039e-10
4.74302e-12
-2.54335e-10
4.42925e-12
-2.57394e-10
4.10772e-12
-2.60211e-10
3.78037e-12
-2.62781e-10
3.44908e-12
-2.65101e-10
3.11357e-12
-2.67168e-10
2.77324e-12
-2.68982e-10
2.42981e-12
-2.70537e-10
2.08547e-12
-2.71833e-10
1.73926e-12
-2.72869e-10
1.38977e-12
-2.73642e-10
1.03818e-12
-2.74152e-10
6.85556e-13
-2.74399e-10
3.31305e-13
-2.74383e-10
-2.37168e-14
-2.74104e-10
-3.76898e-13
-2.73561e-10
-7.27435e-13
-2.72757e-10
-1.07699e-12
-2.71692e-10
-1.42666e-12
-2.70368e-10
-1.77522e-12
-2.68788e-10
-2.12075e-12
-2.66952e-10
-2.46281e-12
-2.64863e-10
-2.80207e-12
-2.62525e-10
-3.13769e-12
-2.5994e-10
-3.46802e-12
-2.57112e-10
-3.79341e-12
-2.54046e-10
-4.11468e-12
-2.50744e-10
-4.43054e-12
-2.47213e-10
-4.7391e-12
-2.43456e-10
-5.04014e-12
-2.39478e-10
-5.33462e-12
-2.35287e-10
-5.62258e-12
-2.30888e-10
-5.90245e-12
-2.26288e-10
-6.17234e-12
-2.21495e-10
-6.4319e-12
-2.16514e-10
-6.6823e-12
-2.11354e-10
-6.92345e-12
-2.06022e-10
-7.15323e-12
-2.00529e-10
-7.37028e-12
-1.94882e-10
-7.57502e-12
-1.8909e-10
-7.76791e-12
-1.83163e-10
-7.94851e-12
-1.77111e-10
-8.11552e-12
-1.70946e-10
-8.26801e-12
-1.64679e-10
-8.40621e-12
-1.58319e-10
-8.5301e-12
-1.51879e-10
-8.63841e-12
-1.45372e-10
-8.72972e-12
-1.3881e-10
-8.80336e-12
-1.32206e-10
-8.8592e-12
-1.25574e-10
-8.89691e-12
-1.18926e-10
-8.91593e-12
-1.12277e-10
-8.91586e-12
-1.05643e-10
-8.89644e-12
-9.90367e-11
-8.85756e-12
-9.24745e-11
-8.79897e-12
-8.59724e-11
-8.71942e-12
-7.95452e-11
-8.61762e-12
-7.32082e-11
-8.4938e-12
-6.69777e-11
-8.34886e-12
-6.08706e-11
-8.18311e-12
-5.49034e-11
-7.99583e-12
-4.90921e-11
-7.7857e-12
-4.34524e-11
-7.55253e-12
-3.80006e-11
-7.29765e-12
-3.27533e-11
-7.02203e-12
-2.77263e-11
-6.72527e-12
-2.29355e-11
-6.40676e-12
-1.83962e-11
-6.06676e-12
-1.41229e-11
-5.70626e-12
-1.01303e-11
-5.32631e-12
-6.43237e-12
-4.92767e-12
-3.04172e-12
-4.51113e-12
3.02509e-14
-4.0782e-12
2.7729e-12
-3.63136e-12
5.17672e-12
-3.17274e-12
7.234e-12
-2.70373e-12
8.93906e-12
-2.2261e-12
1.02887e-11
-1.74268e-12
1.12826e-11
-1.25766e-12
1.19234e-11
-7.76224e-13
1.22172e-11
-3.03289e-13
1.2174e-11
1.55922e-13
1.18093e-11
5.94573e-13
1.11453e-11
1.00439e-12
1.02112e-11
1.37542e-12
9.04485e-12
1.69527e-12
7.69422e-12
1.94912e-12
6.22105e-12
2.119e-12
4.70169e-12
2.18238e-12
3.22732e-12
2.11291e-12
1.90578e-12
1.8829e-12
8.58202e-13
1.46775e-12
2.02067e-13
8.6344e-13
1.859e-13
-6.46125e-13
9.54002e-13
-3.74047e-13
-1.69141e-12
1.13692e-12
-4.87286e-12
3.38145e-12
-5.87041e-12
5.8899e-12
-5.75517e-12
8.36661e-12
-5.23717e-12
1.06225e-11
-4.55907e-12
1.25487e-11
-3.80331e-12
1.40683e-11
-2.98071e-12
1.51279e-11
-2.10151e-12
1.56894e-11
-1.16948e-12
1.57193e-11
-1.91833e-13
1.51969e-11
8.21057e-13
1.41083e-11
1.86256e-12
1.24429e-11
2.92245e-12
1.01978e-11
3.988e-12
7.3727e-12
5.05449e-12
3.97035e-12
6.11087e-12
1.5362e-15
7.15465e-12
-4.52364e-12
8.17918e-12
-9.5907e-12
9.17636e-12
-1.51822e-11
1.0143e-11
-2.12822e-11
1.1075e-11
-2.78684e-11
1.19676e-11
-3.49185e-11
1.28215e-11
-4.2411e-11
1.36327e-11
-5.03187e-11
1.43991e-11
-5.8618e-11
1.51202e-11
-6.72847e-11
1.57925e-11
-7.62901e-11
1.64157e-11
-8.56091e-11
1.69895e-11
-9.52149e-11
1.75133e-11
-1.05078e-10
1.79879e-11
-1.15172e-10
1.84128e-11
-1.25471e-10
1.87872e-11
-1.35946e-10
1.91124e-11
-1.46573e-10
1.93885e-11
-1.57324e-10
1.96158e-11
-1.68172e-10
1.97956e-11
-1.79091e-10
1.99277e-11
-1.90058e-10
2.00126e-11
-2.01046e-10
2.00526e-11
-2.12031e-10
2.00487e-11
-2.22991e-10
2.0001e-11
-2.33901e-10
1.99111e-11
-2.44739e-10
1.97798e-11
-2.55485e-10
1.96076e-11
-2.66116e-10
1.93965e-11
-2.76612e-10
1.91488e-11
-2.86954e-10
1.88651e-11
-2.97122e-10
1.85466e-11
-3.07097e-10
1.81954e-11
-3.16865e-10
1.78126e-11
-3.26406e-10
1.7399e-11
-3.35702e-10
1.69558e-11
-3.44741e-10
1.64845e-11
-3.53509e-10
1.59866e-11
-3.6199e-10
1.54636e-11
-3.70171e-10
1.49165e-11
-3.7804e-10
1.43456e-11
-3.85586e-10
1.37526e-11
-3.92795e-10
1.31396e-11
-3.99658e-10
1.25078e-11
-4.06166e-10
1.18583e-11
-4.12309e-10
1.11927e-11
-4.18078e-10
1.05121e-11
-4.23465e-10
9.81635e-12
-4.28464e-10
9.10663e-12
-4.33068e-10
8.38495e-12
-4.3727e-10
7.65228e-12
-4.41064e-10
6.90888e-12
-4.44447e-10
6.15609e-12
-4.47413e-10
5.39602e-12
-4.49958e-10
4.63055e-12
-4.52081e-10
3.86023e-12
-4.53778e-10
3.08534e-12
-4.55047e-10
2.30692e-12
-4.55885e-10
1.52513e-12
-4.56293e-10
7.40038e-13
-4.56272e-10
-4.58269e-14
-4.5582e-10
-8.2915e-13
-4.54939e-10
-1.60922e-12
-4.53629e-10
-2.387e-12
-4.51892e-10
-3.1624e-12
-4.49732e-10
-3.93384e-12
-4.47151e-10
-4.69999e-12
-4.44153e-10
-5.46016e-12
-4.40741e-10
-6.21315e-12
-4.36922e-10
-6.95704e-12
-4.32698e-10
-7.69033e-12
-4.28078e-10
-8.41316e-12
-4.23066e-10
-9.12566e-12
-4.17671e-10
-9.82602e-12
-4.119e-10
-1.05119e-11
-4.0576e-10
-1.1182e-11
-3.99261e-10
-1.1836e-11
-3.92411e-10
-1.24729e-11
-3.85221e-10
-1.30914e-11
-3.77701e-10
-1.36903e-11
-3.69865e-10
-1.42686e-11
-3.61721e-10
-1.48255e-11
-3.53284e-10
-1.53598e-11
-3.44567e-10
-1.58698e-11
-3.35584e-10
-1.6354e-11
-3.26349e-10
-1.68116e-11
-3.16877e-10
-1.72413e-11
-3.07185e-10
-1.76419e-11
-2.97288e-10
-1.80126e-11
-2.87204e-10
-1.83519e-11
-2.76952e-10
-1.86589e-11
-2.66549e-10
-1.89324e-11
-2.56016e-10
-1.91708e-11
-2.45371e-10
-1.93729e-11
-2.34635e-10
-1.95379e-11
-2.23829e-10
-1.96647e-11
-2.12976e-10
-1.97517e-11
-2.02097e-10
-1.97971e-11
-1.91216e-10
-1.97996e-11
-1.80354e-10
-1.97591e-11
-1.69536e-10
-1.96754e-11
-1.58788e-10
-1.95475e-11
-1.48134e-10
-1.9374e-11
-1.37599e-10
-1.91533e-11
-1.27208e-10
-1.88849e-11
-1.16987e-10
-1.85694e-11
-1.06963e-10
-1.82071e-11
-9.71627e-11
-1.77971e-11
-8.76112e-11
-1.73384e-11
-7.83343e-11
-1.68309e-11
-6.93582e-11
-1.62752e-11
-6.0709e-11
-1.5672e-11
-5.24118e-11
-1.5022e-11
-4.44916e-11
-1.43257e-11
-3.69725e-11
-1.35843e-11
-2.98783e-11
-1.27997e-11
-2.32318e-11
-1.19733e-11
-1.70534e-11
-1.11068e-11
-1.13629e-11
-1.02025e-11
-6.17896e-12
-9.26327e-12
-1.51731e-12
-8.29343e-12
2.60864e-12
-7.29788e-12
6.18767e-12
-6.28111e-12
9.21163e-12
-5.24841e-12
1.16762e-11
-4.20667e-12
1.35813e-11
-3.16383e-12
1.49323e-11
-2.12894e-12
1.57409e-11
-1.11282e-12
1.60246e-11
-1.28046e-13
1.58084e-11
8.10882e-13
1.51276e-11
1.68625e-12
1.4028e-11
2.47659e-12
1.25677e-11
3.15696e-12
1.08185e-11
3.69873e-12
8.868e-12
4.06826e-12
6.82246e-12
4.22606e-12
4.80688e-12
4.12765e-12
2.96281e-12
3.72776e-12
1.44374e-12
2.98806e-12
4.06653e-13
1.90109e-12
5.92621e-13
-2.84548e-13
1.23508e-12
1.21037e-13
-2.09771e-12
1.50447e-12
-6.25451e-12
3.61257e-12
-7.98355e-12
6.08786e-12
-8.23223e-12
8.61685e-12
-7.76567e-12
1.09619e-11
-6.90518e-12
1.29516e-11
-5.79236e-12
1.44617e-11
-4.49193e-12
1.54021e-11
-3.04347e-12
1.57068e-11
-1.47338e-12
1.53246e-11
1.88798e-13
1.42218e-11
1.92383e-12
1.2372e-11
3.71244e-12
9.76237e-12
5.53214e-12
6.38135e-12
7.36958e-12
2.22874e-12
9.20643e-12
-2.69012e-12
1.10297e-11
-8.36606e-12
1.28301e-11
-1.47845e-11
1.45956e-11
-2.19265e-11
1.63179e-11
-2.97731e-11
1.79886e-11
-3.82986e-11
1.95992e-11
-4.7476e-11
2.11455e-11
-5.72787e-11
2.26227e-11
-6.76728e-11
2.4026e-11
-7.86265e-11
2.53533e-11
-9.01081e-11
2.66008e-11
-1.0208e-10
2.77655e-11
-1.14509e-10
2.88463e-11
-1.27361e-10
2.98416e-11
-1.40597e-10
3.07507e-11
-1.54182e-10
3.15736e-11
-1.6808e-10
3.23097e-11
-1.82251e-10
3.29596e-11
-1.9666e-10
3.35234e-11
-2.11272e-10
3.40012e-11
-2.2605e-10
3.43951e-11
-2.40959e-10
3.47058e-11
-2.55967e-10
3.49336e-11
-2.71035e-10
3.50808e-11
-2.86131e-10
3.51491e-11
-3.01223e-10
3.5139e-11
-3.16276e-10
3.50538e-11
-3.3126e-10
3.4896e-11
-3.46146e-10
3.46656e-11
-3.60904e-10
3.43652e-11
-3.75504e-10
3.3998e-11
-3.89921e-10
3.35653e-11
-4.04126e-10
3.30694e-11
-4.18092e-10
3.25137e-11
-4.31794e-10
3.18993e-11
-4.45211e-10
3.12288e-11
-4.58317e-10
3.05049e-11
-4.7109e-10
2.97294e-11
-4.8351e-10
2.89041e-11
-4.95556e-10
2.80319e-11
-5.07209e-10
2.71159e-11
-5.18449e-10
2.61577e-11
-5.29263e-10
2.5159e-11
-5.39633e-10
2.41225e-11
-5.49543e-10
2.30501e-11
-5.58979e-10
2.19433e-11
-5.67927e-10
2.08053e-11
-5.76371e-10
1.96386e-11
-5.84303e-10
1.84445e-11
-5.91711e-10
1.72242e-11
-5.98586e-10
1.59808e-11
-6.04918e-10
1.47166e-11
-6.10698e-10
1.34323e-11
-6.1592e-10
1.213e-11
-6.20575e-10
1.08123e-11
-6.24659e-10
9.48083e-12
-6.28164e-10
8.13699e-12
-6.31087e-10
6.78333e-12
-6.33425e-10
5.42246e-12
-6.35175e-10
4.05618e-12
-6.36335e-10
2.68497e-12
-6.36903e-10
1.30949e-12
-6.36881e-10
-6.74953e-14
-6.36266e-10
-1.4428e-12
-6.3506e-10
-2.81502e-12
-6.33266e-10
-4.18301e-12
-6.30884e-10
-5.54461e-12
-6.2792e-10
-6.89799e-12
-6.24377e-10
-8.2423e-12
-6.20261e-10
-9.57624e-12
-6.15576e-10
-1.08973e-11
-6.1033e-10
-1.22028e-11
-6.04529e-10
-1.34911e-11
-5.98181e-10
-1.47608e-11
-5.91295e-10
-1.60106e-11
-5.83881e-10
-1.72383e-11
-5.7595e-10
-1.84415e-11
-5.67514e-10
-1.96189e-11
-5.58582e-10
-2.07685e-11
-5.49169e-10
-2.18874e-11
-5.39288e-10
-2.29733e-11
-5.28954e-10
-2.4025e-11
-5.18182e-10
-2.50411e-11
-5.0699e-10
-2.60191e-11
-4.95393e-10
-2.69565e-11
-4.83411e-10
-2.78514e-11
-4.71063e-10
-2.8702e-11
-4.58367e-10
-2.95065e-11
-4.45345e-10
-3.02624e-11
-4.3202e-10
-3.09671e-11
-4.18415e-10
-3.16187e-11
-4.04551e-10
-3.22158e-11
-3.90454e-10
-3.27563e-11
-3.76149e-10
-3.32378e-11
-3.61664e-10
-3.36575e-11
-3.47024e-10
-3.40131e-11
-3.32258e-10
-3.43035e-11
-3.17394e-10
-3.45272e-11
-3.02463e-10
-3.46822e-11
-2.87495e-10
-3.47658e-11
-2.7252e-10
-3.47756e-11
-2.5757e-10
-3.47101e-11
-2.42678e-10
-3.45684e-11
-2.27877e-10
-3.4349e-11
-2.13202e-10
-3.405e-11
-1.98685e-10
-3.36701e-11
-1.84362e-10
-3.32086e-11
-1.70267e-10
-3.26649e-11
-1.56437e-10
-3.20384e-11
-1.42906e-10
-3.13286e-11
-1.29709e-10
-3.05349e-11
-1.16882e-10
-2.9658e-11
-1.04459e-10
-2.86985e-11
-9.24754e-11
-2.76567e-11
-8.09646e-11
-2.65333e-11
-6.99603e-11
-2.53301e-11
-5.94946e-11
-2.40497e-11
-4.95985e-11
-2.26952e-11
-4.03021e-11
-2.12696e-11
-3.16329e-11
-1.97757e-11
-2.3616e-11
-1.82184e-11
-1.62758e-11
-1.66036e-11
-9.63322e-12
-1.49373e-11
-3.70532e-12
-1.32267e-11
1.49428e-12
-1.14807e-11
5.95584e-12
-9.70933e-12
9.67505e-12
-7.92473e-12
1.26531e-11
-6.14105e-12
1.48977e-11
-4.3738e-12
1.64252e-11
-2.6405e-12
1.72594e-11
-9.6235e-13
1.74339e-11
6.35494e-13
1.69948e-11
2.12419e-12
1.60012e-11
3.46999e-12
1.45262e-11
4.63317e-12
1.26588e-11
5.56794e-12
1.05059e-11
6.22236e-12
8.19384e-12
6.53819e-12
5.86813e-12
6.45266e-12
3.69361e-12
5.90239e-12
1.85236e-12
4.83056e-12
5.44209e-13
3.21009e-12
1.13668e-12
1.72104e-13
1.06358e-12
9.00823e-13
-2.82851e-12
2.30632e-12
-7.65785e-12
4.28113e-12
-9.95975e-12
6.56881e-12
-1.05226e-11
8.89433e-12
-1.009e-11
1.10141e-11
-9.02618e-12
1.27363e-11
-7.51387e-12
1.39098e-11
-5.66561e-12
1.44205e-11
-3.55298e-12
1.41775e-11
-1.23331e-12
1.3119e-11
1.2477e-12
1.11913e-11
3.85032e-12
8.36549e-12
6.53768e-12
4.61517e-12
9.28181e-12
-7.07186e-14
1.20544e-11
-5.69498e-12
1.48308e-11
-1.22564e-11
1.75917e-11
-1.97435e-11
2.03169e-11
-2.81381e-11
2.29919e-11
-3.74235e-11
2.56027e-11
-4.75712e-11
2.81359e-11
-5.85525e-11
3.05813e-11
-7.03381e-11
3.29301e-11
-8.28897e-11
3.5174e-11
-9.61711e-11
3.73081e-11
-1.10145e-10
3.93257e-11
-1.24767e-10
4.12222e-11
-1.39997e-10
4.29945e-11
-1.55792e-10
4.46391e-11
-1.72105e-10
4.61548e-11
-1.88893e-10
4.75397e-11
-2.06113e-10
4.87924e-11
-2.23717e-10
4.99135e-11
-2.41661e-10
5.09029e-11
-2.599e-10
5.17605e-11
-2.78386e-10
5.24884e-11
-2.97076e-10
5.3087e-11
-3.15928e-10
5.35578e-11
-3.34898e-10
5.39032e-11
-3.53942e-10
5.41255e-11
-3.73018e-10
5.42261e-11
-3.92087e-10
5.42076e-11
-4.11106e-10
5.40739e-11
-4.30037e-10
5.38269e-11
-4.48842e-10
5.34697e-11
-4.67482e-10
5.30064e-11
-4.85923e-10
5.24396e-11
-5.04131e-10
5.17722e-11
-5.22071e-10
5.10086e-11
-5.39709e-10
5.01522e-11
-5.57016e-10
4.92056e-11
-5.7396e-10
4.81726e-11
-5.90512e-10
4.70573e-11
-6.06645e-10
4.58627e-11
-6.22334e-10
4.45919e-11
-6.37551e-10
4.32489e-11
-6.52272e-10
4.18369e-11
-6.66474e-10
4.03593e-11
-6.80136e-10
3.88201e-11
-6.93235e-10
3.72228e-11
-7.05754e-10
3.557e-11
-7.17677e-10
3.38646e-11
-7.28983e-10
3.2111e-11
-7.39655e-10
3.03122e-11
-7.49681e-10
2.84702e-11
-7.59045e-10
2.65886e-11
-7.67735e-10
2.46714e-11
-7.75739e-10
2.27209e-11
-7.83047e-10
2.07394e-11
-7.89648e-10
1.87308e-11
-7.95535e-10
1.6699e-11
-8.007e-10
1.46458e-11
-8.05136e-10
1.25731e-11
-8.08837e-10
1.04848e-11
-8.11798e-10
8.38424e-12
-8.14016e-10
6.27385e-12
-8.15488e-10
4.15616e-12
-8.16213e-10
2.03422e-12
-8.16192e-10
-8.90206e-14
-8.15422e-10
-2.21119e-12
-8.13907e-10
-4.33018e-12
-8.11647e-10
-6.44281e-12
-8.08646e-10
-8.5454e-12
-8.04909e-10
-1.06355e-11
-8.0044e-10
-1.27115e-11
-7.95246e-10
-1.47703e-11
-7.89333e-10
-1.68087e-11
-7.82711e-10
-1.88237e-11
-7.75389e-10
-2.08133e-11
-7.67376e-10
-2.27746e-11
-7.58683e-10
-2.47042e-11
-7.49323e-10
-2.65986e-11
-7.39309e-10
-2.84555e-11
-7.28655e-10
-3.02727e-11
-7.17376e-10
-3.20469e-11
-7.05489e-10
-3.37742e-11
-6.93011e-10
-3.54513e-11
-6.79961e-10
-3.70758e-11
-6.66357e-10
-3.86452e-11
-6.5222e-10
-4.01557e-11
-6.37574e-10
-4.16036e-11
-6.2244e-10
-4.2986e-11
-6.06843e-10
-4.43001e-11
-5.90807e-10
-4.55427e-11
-5.74358e-10
-4.67106e-11
-5.57526e-10
-4.77999e-11
-5.40337e-10
-4.88074e-11
-5.22822e-10
-4.97306e-11
-5.05011e-10
-5.05664e-11
-4.86937e-10
-5.13115e-11
-4.68632e-10
-5.19622e-11
-4.50131e-10
-5.25151e-11
-4.31468e-10
-5.29673e-11
-4.1268e-10
-5.33161e-11
-3.93804e-10
-5.35586e-11
-3.74878e-10
-5.36917e-11
-3.5594e-10
-5.3713e-11
-3.37031e-10
-5.36198e-11
-3.1819e-10
-5.34095e-11
-2.9946e-10
-5.30796e-11
-2.80883e-10
-5.26278e-11
-2.625e-10
-5.20526e-11
-2.44356e-10
-5.13535e-11
-2.26493e-10
-5.0529e-11
-2.08956e-10
-4.95776e-11
-1.91787e-10
-4.84983e-11
-1.75031e-10
-4.72914e-11
-1.58731e-10
-4.59579e-11
-1.42929e-10
-4.44989e-11
-1.2767e-10
-4.29152e-11
-1.12995e-10
-4.12082e-11
-9.89441e-11
-3.93809e-11
-8.55576e-11
-3.7437e-11
-7.2873e-11
-3.53806e-11
-6.09265e-11
-3.32166e-11
-4.97521e-11
-3.09505e-11
-3.93803e-11
-2.85894e-11
-2.98396e-11
-2.6143e-11
-2.11551e-11
-2.36212e-11
-1.33471e-11
-2.10346e-11
-6.43167e-12
-1.83961e-11
-4.19923e-13
-1.57216e-11
4.68412e-12
-1.30295e-11
8.88337e-12
-1.03405e-11
1.21878e-11
-7.67811e-12
1.46168e-11
-5.06925e-12
1.62003e-11
-2.54516e-12
1.69792e-11
-1.42742e-13
1.70073e-11
2.09591e-12
1.63532e-11
4.12328e-12
1.51011e-11
5.88453e-12
1.3353e-11
7.3163e-12
1.12287e-11
8.34726e-12
8.86819e-12
8.89917e-12
6.43212e-12
8.88892e-12
4.10247e-12
8.23208e-12
2.08617e-12
6.84762e-12
6.21483e-13
4.67547e-12
1.75804e-12
4.7193e-13
5.91717e-13
1.46874e-12
-3.82404e-12
2.90928e-12
-9.09657e-12
4.73605e-12
-1.17857e-11
6.75555e-12
-1.25402e-11
8.72567e-12
-1.20637e-11
1.04256e-11
-1.07252e-11
1.16558e-11
-8.74528e-12
1.2259e-11
-6.26833e-12
1.21025e-11
-3.39818e-12
1.1089e-11
-2.19565e-13
9.13796e-12
3.19878e-12
6.1909e-12
6.79651e-12
2.20598e-12
1.05238e-11
-2.84641e-12
1.43334e-11
-8.98114e-12
1.81881e-11
-1.62051e-11
2.20553e-11
-2.45176e-11
2.59022e-11
-3.39048e-11
2.97052e-11
-4.4353e-11
3.344e-11
-5.58372e-11
3.70864e-11
-6.8328e-11
4.06272e-11
-8.17956e-11
4.40477e-11
-9.62006e-11
4.73341e-11
-1.11502e-10
5.04765e-11
-1.2766e-10
5.34654e-11
-1.44626e-10
5.62919e-11
-1.62353e-10
5.89504e-11
-1.80794e-10
6.14346e-11
-1.99897e-10
6.37408e-11
-2.19608e-10
6.58667e-11
-2.39878e-10
6.78089e-11
-2.60651e-10
6.95663e-11
-2.81875e-10
7.11387e-11
-3.03498e-10
7.25252e-11
-3.25466e-10
7.37275e-11
-3.47724e-10
7.47469e-11
-3.70221e-10
7.55838e-11
-3.92905e-10
7.62412e-11
-4.15723e-10
7.67219e-11
-4.38626e-10
7.70281e-11
-4.61564e-10
7.71631e-11
-4.84486e-10
7.71317e-11
-5.07348e-10
7.69362e-11
-5.30102e-10
7.65805e-11
-5.52702e-10
7.60699e-11
-5.75103e-10
7.54085e-11
-5.97264e-10
7.46002e-11
-6.19143e-10
7.36505e-11
-6.40697e-10
7.25639e-11
-6.6189e-10
7.13452e-11
-6.82685e-10
6.99992e-11
-7.03043e-10
6.85307e-11
-7.2293e-10
6.69448e-11
-7.42314e-10
6.52462e-11
-7.61163e-10
6.34402e-11
-7.79445e-10
6.15318e-11
-7.97134e-10
5.95251e-11
-8.142e-10
5.74251e-11
-8.30617e-10
5.52371e-11
-8.4636e-10
5.29657e-11
-8.61405e-10
5.06154e-11
-8.75732e-10
4.81913e-11
-8.89319e-10
4.56981e-11
-9.02146e-10
4.31396e-11
-9.14197e-10
4.05203e-11
-9.25454e-10
3.78452e-11
-9.35901e-10
3.51187e-11
-9.45524e-10
3.23444e-11
-9.54311e-10
2.95265e-11
-9.6225e-10
2.66698e-11
-9.69329e-10
2.37789e-11
-9.75541e-10
2.08573e-11
-9.80878e-10
1.79091e-11
-9.85332e-10
1.49392e-11
-9.88898e-10
1.19511e-11
-9.91571e-10
8.94753e-12
-9.93349e-10
5.93322e-12
-9.94228e-10
2.91346e-12
-9.94209e-10
-1.08112e-13
-9.93293e-10
-3.12856e-12
-9.91479e-10
-6.14405e-12
-9.88772e-10
-9.15008e-12
-9.85175e-10
-1.21425e-11
-9.80692e-10
-1.51181e-11
-9.7533e-10
-1.80733e-11
-9.69097e-10
-2.10035e-11
-9.62e-10
-2.39042e-11
-9.54051e-10
-2.67721e-11
-9.45259e-10
-2.9604e-11
-9.35638e-10
-3.23955e-11
-9.252e-10
-3.51418e-11
-9.13961e-10
-3.78386e-11
-9.01936e-10
-4.04821e-11
-8.89141e-10
-4.30683e-11
-8.75595e-10
-4.55928e-11
-8.61318e-10
-4.8051e-11
-8.46331e-10
-5.04385e-11
-8.30656e-10
-5.27513e-11
-8.14316e-10
-5.49852e-11
-7.97336e-10
-5.71354e-11
-7.79743e-10
-5.91972e-11
-7.61563e-10
-6.11661e-11
-7.42826e-10
-6.30379e-11
-7.23561e-10
-6.48079e-11
-7.038e-10
-6.64715e-11
-6.83576e-10
-6.80239e-11
-6.62924e-10
-6.94607e-11
-6.41878e-10
-7.07773e-11
-6.20475e-10
-7.19694e-11
-5.98754e-10
-7.30321e-11
-5.76754e-10
-7.39615e-11
-5.54515e-10
-7.47532e-11
-5.3208e-10
-7.54028e-11
-5.09491e-10
-7.59057e-11
-4.86793e-10
-7.62575e-11
-4.64031e-10
-7.64544e-11
-4.4125e-10
-7.64931e-11
-4.18499e-10
-7.63706e-11
-3.95826e-10
-7.60829e-11
-3.7328e-10
-7.56263e-11
-3.5091e-10
-7.4998e-11
-3.28767e-10
-7.41961e-11
-3.06902e-10
-7.32192e-11
-2.85366e-10
-7.20656e-11
-2.64211e-10
-7.07333e-11
-2.43488e-10
-6.92217e-11
-2.23249e-10
-6.75313e-11
-2.03544e-10
-6.56628e-11
-1.84425e-10
-6.36176e-11
-1.65942e-10
-6.13978e-11
-1.48143e-10
-5.9006e-11
-1.31077e-10
-5.64465e-11
-1.1479e-10
-5.37248e-11
-9.93248e-11
-5.08462e-11
-8.47241e-11
-4.78176e-11
-7.10272e-11
-4.46476e-11
-5.82699e-11
-4.13471e-11
-4.64842e-11
-3.79285e-11
-3.56985e-11
-3.4406e-11
-2.59363e-11
-3.07957e-11
-1.72156e-11
-2.71162e-11
-9.5481e-12
-2.33891e-11
-2.93822e-12
-1.964e-11
2.61777e-12
-1.58972e-11
7.13206e-12
-1.2193e-11
1.06271e-11
-8.56458e-12
1.31366e-11
-5.05476e-12
1.47068e-11
-1.71278e-12
1.53984e-11
1.40516e-12
1.52868e-11
4.23583e-12
1.44629e-11
6.70803e-12
1.30373e-11
8.74116e-12
1.11399e-11
1.02446e-11
8.92017e-12
1.11194e-11
6.54952e-12
1.12603e-11
4.22329e-12
1.05585e-11
2.16789e-12
8.90309e-12
6.50281e-13
6.19322e-12
2.40834e-12
6.13728e-13
-2.0996e-14
1.75045e-12
-4.96277e-12
3.16686e-12
-1.05134e-11
4.79068e-12
-1.34111e-11
6.46222e-12
-1.42124e-11
7.97112e-12
-1.35709e-11
9.10618e-12
-1.18622e-11
9.68195e-12
-9.32063e-12
9.53435e-12
-6.1204e-12
8.53041e-12
-2.39467e-12
6.56236e-12
1.74866e-12
3.54399e-12
6.21588e-12
-5.89011e-13
1.09297e-11
-5.88669e-12
1.58202e-11
-1.23808e-11
2.08271e-11
-2.00914e-11
2.58997e-11
-2.90281e-11
3.09904e-11
-3.91867e-11
3.6062e-11
-5.056e-11
4.10777e-11
-6.31272e-11
4.6007e-11
-7.68633e-11
5.08233e-11
-9.1739e-11
5.55026e-11
-1.07717e-10
6.00246e-11
-1.24755e-10
6.43727e-11
-1.42811e-10
6.85311e-11
-1.61834e-10
7.24875e-11
-1.81772e-10
7.62309e-11
-2.02575e-10
7.9752e-11
-2.24185e-10
8.3044e-11
-2.46544e-10
8.61008e-11
-2.69596e-10
8.89176e-11
-2.93281e-10
9.14922e-11
-3.17535e-10
9.38217e-11
-3.42301e-10
9.59048e-11
-3.67518e-10
9.77417e-11
-3.93123e-10
9.93336e-11
-4.19058e-10
1.00681e-10
-4.45262e-10
1.01787e-10
-4.71674e-10
1.02654e-10
-4.98236e-10
1.03284e-10
-5.2489e-10
1.03682e-10
-5.51579e-10
1.03852e-10
-5.78246e-10
1.03799e-10
-6.04838e-10
1.03527e-10
-6.31299e-10
1.03043e-10
-6.57579e-10
1.0235e-10
-6.83627e-10
1.01456e-10
-7.09393e-10
1.00365e-10
-7.34827e-10
9.90855e-11
-7.59885e-10
9.76219e-11
-7.84521e-10
9.59813e-11
-8.08693e-10
9.41704e-11
-8.32357e-10
9.21953e-11
-8.55475e-10
9.00622e-11
-8.78008e-10
8.77781e-11
-8.99917e-10
8.53496e-11
-9.21168e-10
8.27832e-11
-9.41728e-10
8.00852e-11
-9.61566e-10
7.72624e-11
-9.80649e-10
7.43209e-11
-9.98951e-10
7.12665e-11
-1.01644e-09
6.81065e-11
-1.0331e-09
6.48473e-11
-1.04889e-09
6.14943e-11
-1.06381e-09
5.80534e-11
-1.07782e-09
5.45313e-11
-1.09091e-09
5.09339e-11
-1.10306e-09
4.72665e-11
-1.11425e-09
4.3535e-11
-1.12447e-09
3.97459e-11
-1.1337e-09
3.59043e-11
-1.14194e-09
3.20153e-11
-1.14916e-09
2.80846e-11
-1.15537e-09
2.41187e-11
-1.16056e-09
2.01233e-11
-1.16471e-09
1.61031e-11
-1.16782e-09
1.20625e-11
-1.1699e-09
8.00771e-12
-1.17093e-09
3.9448e-12
-1.17092e-09
-1.21596e-13
-1.16986e-09
-4.18658e-12
-1.16776e-09
-8.24411e-12
-1.16462e-09
-1.22887e-11
-1.16045e-09
-1.63156e-11
-1.15525e-09
-2.03202e-11
-1.14902e-09
-2.42969e-11
-1.14179e-09
-2.82398e-11
-1.13355e-09
-3.21436e-11
-1.12431e-09
-3.60036e-11
-1.1141e-09
-3.98145e-11
-1.10293e-09
-4.35704e-11
-1.0908e-09
-4.72656e-11
-1.07775e-09
-5.0895e-11
-1.06378e-09
-5.4453e-11
-1.04891e-09
-5.79334e-11
-1.03318e-09
-6.13303e-11
-1.01659e-09
-6.46384e-11
-9.99176e-10
-6.78522e-11
-9.80962e-10
-7.09654e-11
-9.61976e-10
-7.3972e-11
-9.42246e-10
-7.68659e-11
-9.21802e-10
-7.96415e-11
-9.00675e-10
-8.22927e-11
-8.789e-10
-8.48135e-11
-8.56511e-10
-8.71973e-11
-8.33545e-10
-8.94378e-11
-8.10039e-10
-9.15295e-11
-7.86033e-10
-9.34666e-11
-7.61568e-10
-9.52426e-11
-7.36687e-10
-9.68512e-11
-7.11434e-10
-9.82863e-11
-6.85853e-10
-9.95421e-11
-6.59992e-10
-1.00614e-10
-6.33899e-10
-1.01495e-10
-6.07624e-10
-1.0218e-10
-5.81218e-10
-1.02664e-10
-5.54733e-10
-1.0294e-10
-5.28221e-10
-1.03005e-10
-5.01738e-10
-1.02854e-10
-4.75339e-10
-1.02482e-10
-4.49079e-10
-1.01886e-10
-4.23017e-10
-1.0106e-10
-3.9721e-10
-1.00004e-10
-3.71716e-10
-9.87144e-11
-3.46593e-10
-9.71885e-11
-3.21902e-10
-9.54251e-11
-2.97699e-10
-9.34237e-11
-2.74045e-10
-9.11854e-11
-2.50997e-10
-8.87109e-11
-2.28613e-10
-8.60015e-11
-2.0695e-10
-8.30604e-11
-1.86064e-10
-7.98922e-11
-1.66008e-10
-7.65025e-11
-1.46835e-10
-7.28981e-11
-1.28594e-10
-6.90868e-11
-1.11333e-10
-6.50784e-11
-9.5095e-11
-6.0885e-11
-7.99208e-11
-5.65211e-11
-6.58466e-11
-5.2003e-11
-5.29034e-11
-4.73493e-11
-4.1117e-11
-4.25816e-11
-3.05076e-11
-3.77252e-11
-2.10879e-11
-3.28091e-11
-1.28622e-11
-2.78659e-11
-5.82629e-12
-2.29329e-11
3.29799e-14
-1.80521e-11
4.74007e-12
-1.32719e-11
8.33208e-12
-8.64717e-12
1.08588e-11
-4.24015e-12
1.23849e-11
-1.21159e-13
1.29909e-11
3.63074e-12
1.27729e-11
6.92653e-12
1.18466e-11
9.66705e-12
1.03477e-11
1.17429e-11
8.43294e-12
1.30344e-11
6.28144e-12
1.34126e-11
4.09863e-12
1.27418e-11
2.12387e-12
1.08778e-11
6.41461e-13
7.6755e-12
3.04991e-12
6.48282e-13
-6.72231e-13
1.79436e-12
-6.10738e-12
3.08886e-12
-1.18093e-11
4.43717e-12
-1.47595e-11
5.68251e-12
-1.54576e-11
6.6307e-12
-1.45199e-11
7.08834e-12
-1.23188e-11
6.87522e-12
-9.10939e-12
5.83548e-12
-5.0823e-12
3.83582e-12
-3.94506e-13
7.63138e-13
4.81949e-12
-3.46822e-12
1.0448e-11
-8.92982e-12
1.63905e-11
-1.56719e-11
2.25615e-11
-2.37305e-11
2.88868e-11
-3.31295e-11
3.52973e-11
-4.38765e-11
4.17381e-11
-5.59715e-11
4.81571e-11
-6.94041e-11
5.45094e-11
-8.41534e-11
6.07565e-11
-1.00194e-10
6.68632e-11
-1.17491e-10
7.2799e-11
-1.36004e-10
7.85388e-11
-1.55692e-10
8.40597e-11
-1.76503e-10
8.93417e-11
-1.98384e-10
9.43689e-11
-2.2128e-10
9.91261e-11
-2.45132e-10
1.03602e-10
-2.69875e-10
1.07788e-10
-2.9545e-10
1.11675e-10
-3.2179e-10
1.15257e-10
-3.48828e-10
1.18531e-10
-3.765e-10
1.21493e-10
-4.04738e-10
1.24141e-10
-4.3347e-10
1.26475e-10
-4.62633e-10
1.28496e-10
-4.92158e-10
1.30205e-10
-5.21976e-10
1.31606e-10
-5.52022e-10
1.327e-10
-5.82231e-10
1.33492e-10
-6.12536e-10
1.33987e-10
-6.42873e-10
1.34191e-10
-6.73182e-10
1.34107e-10
-7.03398e-10
1.33744e-10
-7.33463e-10
1.33108e-10
-7.63317e-10
1.32204e-10
-7.92904e-10
1.31042e-10
-8.22167e-10
1.29629e-10
-8.51053e-10
1.27971e-10
-8.79509e-10
1.26078e-10
-9.07485e-10
1.23957e-10
-9.3493e-10
1.21617e-10
-9.618e-10
1.19065e-10