/*--------------------------------*- C++ -*----------------------------------*\
  =========                 |
  \\      /  F ield         | OpenFOAM: The Open Source CFD Toolbox
   \\    /   O peration     | Website:  https://openfoam.org
    \\  /    A nd           | Version:  7
     \\/     M anipulation  |
\*---------------------------------------------------------------------------*/
FoamFile
{
    version     2.0;
    format      ascii;
    class       volVectorField;
    location    "0.1875";
    object      U;
}
// * * * * * * * * * * * * * * * * * * * * * * * * * * * * * * * * * * * * * //

dimensions      [0 1 -1 0 0 0 0];

internalField   nonuniform List<vector> 
51200
(
(-6.09098e-09 2.62293e-10 0)
(3.15573e-08 -9.61031e-08 0)
(2.35444e-07 -1.59555e-07 0)
(4.7553e-07 -1.31083e-07 0)
(6.85418e-07 -8.96563e-08 0)
(8.35427e-07 -5.89829e-08 0)
(9.49071e-07 -3.9657e-08 0)
(1.03716e-06 -2.76292e-08 0)
(1.10475e-06 -1.90573e-08 0)
(1.15477e-06 -1.23177e-08 0)
(1.18721e-06 -7.88195e-09 0)
(1.20259e-06 -2.3604e-09 0)
(1.19947e-06 2.29983e-09 0)
(1.17721e-06 8.88414e-09 0)
(1.1358e-06 1.47267e-08 0)
(1.07415e-06 2.00188e-08 0)
(9.93827e-07 2.55192e-08 0)
(8.92943e-07 3.07515e-08 0)
(7.72378e-07 3.66593e-08 0)
(6.32866e-07 4.26367e-08 0)
(4.73719e-07 4.76489e-08 0)
(2.96776e-07 5.28712e-08 0)
(1.02077e-07 5.78803e-08 0)
(-1.10371e-07 6.23298e-08 0)
(-3.38405e-07 6.71191e-08 0)
(-5.82365e-07 7.14504e-08 0)
(-8.415e-07 7.52745e-08 0)
(-1.11396e-06 7.9497e-08 0)
(-1.3999e-06 8.34212e-08 0)
(-1.69833e-06 8.652e-08 0)
(-2.00731e-06 8.93999e-08 0)
(-2.32664e-06 9.16772e-08 0)
(-2.65566e-06 9.31972e-08 0)
(-2.99247e-06 9.51132e-08 0)
(-3.33681e-06 9.73934e-08 0)
(-3.68836e-06 9.92056e-08 0)
(-4.04502e-06 1.00896e-07 0)
(-4.40611e-06 1.02329e-07 0)
(-4.7715e-06 1.02606e-07 0)
(-5.13949e-06 1.02676e-07 0)
(-5.50912e-06 1.0355e-07 0)
(-5.88044e-06 1.04305e-07 0)
(-6.25212e-06 1.04762e-07 0)
(-6.62269e-06 1.05543e-07 0)
(-6.99226e-06 1.05777e-07 0)
(-7.36014e-06 1.04878e-07 0)
(-7.72467e-06 1.0365e-07 0)
(-8.08543e-06 1.02118e-07 0)
(-8.44231e-06 9.98077e-08 0)
(-8.79406e-06 9.74188e-08 0)
(-9.13975e-06 9.56361e-08 0)
(-9.47944e-06 9.40155e-08 0)
(-9.81263e-06 9.21086e-08 0)
(-1.01381e-05 9.00728e-08 0)
(-1.04554e-05 8.78847e-08 0)
(-1.07645e-05 8.54061e-08 0)
(-1.10646e-05 8.29632e-08 0)
(-1.13551e-05 8.08496e-08 0)
(-1.16357e-05 7.85309e-08 0)
(-1.19061e-05 7.53139e-08 0)
(-1.21655e-05 7.12832e-08 0)
(-1.24133e-05 6.71328e-08 0)
(-1.26496e-05 6.3439e-08 0)
(-1.28744e-05 6.02969e-08 0)
(-1.3087e-05 5.75019e-08 0)
(-1.3287e-05 5.46876e-08 0)
(-1.34742e-05 5.13781e-08 0)
(-1.36485e-05 4.73975e-08 0)
(-1.38095e-05 4.31749e-08 0)
(-1.39569e-05 3.92066e-08 0)
(-1.40909e-05 3.52813e-08 0)
(-1.42109e-05 3.09936e-08 0)
(-1.43168e-05 2.67274e-08 0)
(-1.44086e-05 2.30948e-08 0)
(-1.44864e-05 1.98416e-08 0)
(-1.45502e-05 1.62771e-08 0)
(-1.45998e-05 1.224e-08 0)
(-1.4635e-05 7.86963e-09 0)
(-1.46556e-05 3.2725e-09 0)
(-1.46617e-05 -1.24175e-09 0)
(-1.46534e-05 -5.28006e-09 0)
(-1.46306e-05 -8.76085e-09 0)
(-1.45936e-05 -1.20629e-08 0)
(-1.45426e-05 -1.5779e-08 0)
(-1.44774e-05 -2.00559e-08 0)
(-1.43979e-05 -2.4382e-08 0)
(-1.43044e-05 -2.8387e-08 0)
(-1.41971e-05 -3.22383e-08 0)
(-1.4076e-05 -3.60644e-08 0)
(-1.39414e-05 -3.97387e-08 0)
(-1.37932e-05 -4.32038e-08 0)
(-1.36319e-05 -4.66053e-08 0)
(-1.34578e-05 -5.01756e-08 0)
(-1.3271e-05 -5.39618e-08 0)
(-1.30714e-05 -5.77117e-08 0)
(-1.28597e-05 -6.11708e-08 0)
(-1.26364e-05 -6.43421e-08 0)
(-1.24016e-05 -6.73395e-08 0)
(-1.21557e-05 -7.01731e-08 0)
(-1.1899e-05 -7.28901e-08 0)
(-1.16318e-05 -7.56931e-08 0)
(-1.13546e-05 -7.86064e-08 0)
(-1.1068e-05 -8.13481e-08 0)
(-1.07723e-05 -8.37411e-08 0)
(-1.04678e-05 -8.59151e-08 0)
(-1.01553e-05 -8.80653e-08 0)
(-9.83527e-06 -9.02174e-08 0)
(-9.50816e-06 -9.22139e-08 0)
(-9.17452e-06 -9.3927e-08 0)
(-8.83493e-06 -9.54158e-08 0)
(-8.49e-06 -9.67662e-08 0)
(-8.14038e-06 -9.79348e-08 0)
(-7.7867e-06 -9.88778e-08 0)
(-7.42961e-06 -9.9667e-08 0)
(-7.06985e-06 -1.00363e-07 0)
(-6.70823e-06 -1.00906e-07 0)
(-6.34547e-06 -1.01149e-07 0)
(-5.9824e-06 -1.00964e-07 0)
(-5.61993e-06 -1.00439e-07 0)
(-5.2588e-06 -9.98617e-08 0)
(-4.89972e-06 -9.93197e-08 0)
(-4.54355e-06 -9.85486e-08 0)
(-4.19114e-06 -9.72905e-08 0)
(-3.84338e-06 -9.55656e-08 0)
(-3.50121e-06 -9.36178e-08 0)
(-3.16548e-06 -9.16608e-08 0)
(-2.83701e-06 -8.96124e-08 0)
(-2.51677e-06 -8.72156e-08 0)
(-2.20568e-06 -8.43902e-08 0)
(-1.9047e-06 -8.12471e-08 0)
(-1.61481e-06 -7.78886e-08 0)
(-1.3369e-06 -7.4318e-08 0)
(-1.07178e-06 -7.04711e-08 0)
(-8.20267e-07 -6.63336e-08 0)
(-5.8324e-07 -6.1954e-08 0)
(-3.6165e-07 -5.73605e-08 0)
(-1.56371e-07 -5.25615e-08 0)
(3.18842e-08 -4.75237e-08 0)
(2.0238e-07 -4.21828e-08 0)
(3.5436e-07 -3.65653e-08 0)
(4.87193e-07 -3.0798e-08 0)
(6.0039e-07 -2.49841e-08 0)
(6.93614e-07 -1.90922e-08 0)
(7.66634e-07 -1.30212e-08 0)
(8.19229e-07 -6.78326e-09 0)
(8.51254e-07 -5.213e-10 0)
(8.6284e-07 5.57081e-09 0)
(8.54521e-07 1.13746e-08 0)
(8.27002e-07 1.70068e-08 0)
(7.81057e-07 2.25673e-08 0)
(7.17927e-07 2.77954e-08 0)
(6.39526e-07 3.22665e-08 0)
(5.48399e-07 3.57125e-08 0)
(4.47901e-07 3.79499e-08 0)
(3.42276e-07 3.86683e-08 0)
(2.36942e-07 3.71947e-08 0)
(1.39165e-07 3.24629e-08 0)
(5.83993e-08 2.32357e-08 0)
(6.74405e-09 8.87396e-09 0)
(-5.05013e-09 -5.08686e-09 0)
(-7.41261e-08 9.12739e-09 0)
(-3.33996e-08 -1.87389e-07 0)
(1.82233e-07 -3.95261e-07 0)
(5.2541e-07 -3.89727e-07 0)
(8.94645e-07 -3.22303e-07 0)
(1.22672e-06 -2.54559e-07 0)
(1.51678e-06 -2.02263e-07 0)
(1.76183e-06 -1.5962e-07 0)
(1.9609e-06 -1.21961e-07 0)
(2.11074e-06 -8.63865e-08 0)
(2.21156e-06 -5.05511e-08 0)
(2.25877e-06 -1.50366e-08 0)
(2.25086e-06 2.22697e-08 0)
(2.18732e-06 6.12485e-08 0)
(2.06536e-06 1.00281e-07 0)
(1.88762e-06 1.40772e-07 0)
(1.65075e-06 1.79445e-07 0)
(1.35608e-06 2.18602e-07 0)
(1.00471e-06 2.57858e-07 0)
(5.95864e-07 2.95759e-07 0)
(1.3332e-07 3.33341e-07 0)
(-3.82493e-07 3.69554e-07 0)
(-9.50736e-07 4.03868e-07 0)
(-1.56735e-06 4.37563e-07 0)
(-2.23213e-06 4.69448e-07 0)
(-2.94246e-06 4.99411e-07 0)
(-3.69452e-06 5.28279e-07 0)
(-4.48764e-06 5.5528e-07 0)
(-5.31866e-06 5.8032e-07 0)
(-6.18402e-06 6.03914e-07 0)
(-7.08239e-06 6.25428e-07 0)
(-8.0106e-06 6.44537e-07 0)
(-8.9651e-06 6.6192e-07 0)
(-9.94426e-06 6.77555e-07 0)
(-1.09455e-05 6.91114e-07 0)
(-1.19655e-05 7.03289e-07 0)
(-1.30017e-05 7.14155e-07 0)
(-1.40518e-05 7.22639e-07 0)
(-1.51124e-05 7.28965e-07 0)
(-1.61811e-05 7.33603e-07 0)
(-1.72561e-05 7.36485e-07 0)
(-1.83348e-05 7.37688e-07 0)
(-1.94141e-05 7.37785e-07 0)
(-2.04923e-05 7.36505e-07 0)
(-2.15669e-05 7.33305e-07 0)
(-2.26351e-05 7.28547e-07 0)
(-2.3695e-05 7.22503e-07 0)
(-2.47449e-05 7.14595e-07 0)
(-2.57821e-05 7.04819e-07 0)
(-2.68049e-05 6.93977e-07 0)
(-2.78117e-05 6.82074e-07 0)
(-2.88006e-05 6.68847e-07 0)
(-2.97698e-05 6.54695e-07 0)
(-3.07173e-05 6.39724e-07 0)
(-3.16416e-05 6.23319e-07 0)
(-3.25412e-05 6.05557e-07 0)
(-3.34147e-05 5.87105e-07 0)
(-3.42608e-05 5.68112e-07 0)
(-3.50782e-05 5.4827e-07 0)
(-3.58654e-05 5.27373e-07 0)
(-3.66211e-05 5.05426e-07 0)
(-3.73442e-05 4.82434e-07 0)
(-3.80338e-05 4.58594e-07 0)
(-3.86892e-05 4.34406e-07 0)
(-3.93092e-05 4.10166e-07 0)
(-3.98929e-05 3.85637e-07 0)
(-4.04393e-05 3.60327e-07 0)
(-4.09479e-05 3.34111e-07 0)
(-4.14181e-05 3.07355e-07 0)
(-4.18491e-05 2.80376e-07 0)
(-4.22405e-05 2.5307e-07 0)
(-4.25917e-05 2.25178e-07 0)
(-4.29022e-05 1.96955e-07 0)
(-4.31717e-05 1.68914e-07 0)
(-4.33999e-05 1.40997e-07 0)
(-4.35866e-05 1.1286e-07 0)
(-4.37315e-05 8.44931e-08 0)
(-4.38341e-05 5.59538e-08 0)
(-4.38944e-05 2.70168e-08 0)
(-4.39128e-05 -2.23869e-09 0)
(-4.38893e-05 -3.12024e-08 0)
(-4.38236e-05 -5.95332e-08 0)
(-4.37158e-05 -8.7543e-08 0)
(-4.35663e-05 -1.15656e-07 0)
(-4.33753e-05 -1.43925e-07 0)
(-4.31428e-05 -1.7205e-07 0)
(-4.28692e-05 -1.99841e-07 0)
(-4.2555e-05 -2.2745e-07 0)
(-4.22008e-05 -2.54848e-07 0)
(-4.18069e-05 -2.81706e-07 0)
(-4.13736e-05 -3.07997e-07 0)
(-4.09019e-05 -3.33942e-07 0)
(-4.03925e-05 -3.59548e-07 0)
(-3.98459e-05 -3.84655e-07 0)
(-3.92625e-05 -4.09195e-07 0)
(-3.86433e-05 -4.33211e-07 0)
(-3.79895e-05 -4.56676e-07 0)
(-3.73022e-05 -4.7937e-07 0)
(-3.65821e-05 -5.01074e-07 0)
(-3.58303e-05 -5.21878e-07 0)
(-3.50479e-05 -5.421e-07 0)
(-3.42363e-05 -5.61786e-07 0)
(-3.33968e-05 -5.80563e-07 0)
(-3.25305e-05 -5.98135e-07 0)
(-3.16388e-05 -6.14627e-07 0)
(-3.07232e-05 -6.30272e-07 0)
(-2.97854e-05 -6.4501e-07 0)
(-2.88268e-05 -6.58584e-07 0)
(-2.7849e-05 -6.70901e-07 0)
(-2.68537e-05 -6.82081e-07 0)
(-2.5843e-05 -6.92168e-07 0)
(-2.48187e-05 -7.00983e-07 0)
(-2.37826e-05 -7.08291e-07 0)
(-2.27366e-05 -7.14083e-07 0)
(-2.16827e-05 -7.18541e-07 0)
(-2.06232e-05 -7.21692e-07 0)
(-1.95603e-05 -7.23336e-07 0)
(-1.84962e-05 -7.2327e-07 0)
(-1.74329e-05 -7.21458e-07 0)
(-1.63729e-05 -7.18061e-07 0)
(-1.53189e-05 -7.1321e-07 0)
(-1.42732e-05 -7.06739e-07 0)
(-1.32381e-05 -6.98368e-07 0)
(-1.22163e-05 -6.8805e-07 0)
(-1.12102e-05 -6.75969e-07 0)
(-1.02226e-05 -6.62303e-07 0)
(-9.2561e-06 -6.46967e-07 0)
(-8.31327e-06 -6.29708e-07 0)
(-7.39647e-06 -6.10483e-07 0)
(-6.5084e-06 -5.89475e-07 0)
(-5.65188e-06 -5.66778e-07 0)
(-4.82943e-06 -5.42333e-07 0)
(-4.0434e-06 -5.16048e-07 0)
(-3.2963e-06 -4.87918e-07 0)
(-2.59065e-06 -4.58098e-07 0)
(-1.92883e-06 -4.26744e-07 0)
(-1.31317e-06 -3.93869e-07 0)
(-7.45703e-07 -3.59444e-07 0)
(-2.28219e-07 -3.23561e-07 0)
(2.37459e-07 -2.86447e-07 0)
(6.49508e-07 -2.48309e-07 0)
(1.00652e-06 -2.09256e-07 0)
(1.30763e-06 -1.69435e-07 0)
(1.55221e-06 -1.29096e-07 0)
(1.73978e-06 -8.85748e-08 0)
(1.87037e-06 -4.82927e-08 0)
(1.9447e-06 -8.67307e-09 0)
(1.96419e-06 2.98373e-08 0)
(1.93085e-06 6.67336e-08 0)
(1.84759e-06 1.01443e-07 0)
(1.71841e-06 1.33086e-07 0)
(1.54862e-06 1.60403e-07 0)
(1.34506e-06 1.81997e-07 0)
(1.11659e-06 1.9622e-07 0)
(8.74169e-07 2.00925e-07 0)
(6.31008e-07 1.93493e-07 0)
(4.02855e-07 1.70872e-07 0)
(2.07997e-07 1.29981e-07 0)
(6.88377e-08 7.00843e-08 0)
(8.05304e-09 6.66989e-09 0)
(-1.13277e-07 1.05974e-07 0)
(-1.30068e-07 -2.54987e-07 0)
(2.26434e-08 -6.65454e-07 0)
(3.39657e-07 -7.59585e-07 0)
(7.4022e-07 -7.105e-07 0)
(1.14733e-06 -6.25748e-07 0)
(1.53019e-06 -5.3354e-07 0)
(1.86919e-06 -4.40462e-07 0)
(2.14661e-06 -3.45804e-07 0)
(2.35504e-06 -2.4655e-07 0)
(2.48557e-06 -1.43822e-07 0)
(2.53385e-06 -3.79384e-08 0)
(2.49588e-06 7.3011e-08 0)
(2.36655e-06 1.84668e-07 0)
(2.14729e-06 3.00852e-07 0)
(1.834e-06 4.16002e-07 0)
(1.42829e-06 5.31391e-07 0)
(9.30816e-07 6.46435e-07 0)
(3.39841e-07 7.58807e-07 0)
(-3.40068e-07 8.69991e-07 0)
(-1.10782e-06 9.78434e-07 0)
(-1.9618e-06 1.08237e-06 0)
(-2.89717e-06 1.18382e-06 0)
(-3.91282e-06 1.28064e-06 0)
(-5.00529e-06 1.37256e-06 0)
(-6.16923e-06 1.46097e-06 0)
(-7.40233e-06 1.54378e-06 0)
(-8.70022e-06 1.62131e-06 0)
(-1.00579e-05 1.69447e-06 0)
(-1.14728e-05 1.76186e-06 0)
(-1.29403e-05 1.82379e-06 0)
(-1.4455e-05 1.88101e-06 0)
(-1.60136e-05 1.93256e-06 0)
(-1.76115e-05 1.97816e-06 0)
(-1.92437e-05 2.01867e-06 0)
(-2.09067e-05 2.05385e-06 0)
(-2.25962e-05 2.0835e-06 0)
(-2.43075e-05 2.10844e-06 0)
(-2.60363e-05 2.1282e-06 0)
(-2.77788e-05 2.1423e-06 0)
(-2.95306e-05 2.15132e-06 0)
(-3.12877e-05 2.15551e-06 0)
(-3.30467e-05 2.1547e-06 0)
(-3.48034e-05 2.14922e-06 0)
(-3.65537e-05 2.13942e-06 0)
(-3.82945e-05 2.12523e-06 0)
(-4.00222e-05 2.1068e-06 0)
(-4.17331e-05 2.08441e-06 0)
(-4.34241e-05 2.05799e-06 0)
(-4.50919e-05 2.02753e-06 0)
(-4.67332e-05 1.99323e-06 0)
(-4.83454e-05 1.95535e-06 0)
(-4.99257e-05 1.91413e-06 0)
(-5.14711e-05 1.8697e-06 0)
(-5.29788e-05 1.82202e-06 0)
(-5.44462e-05 1.7711e-06 0)
(-5.58712e-05 1.71718e-06 0)
(-5.72514e-05 1.66065e-06 0)
(-5.85848e-05 1.60179e-06 0)
(-5.98696e-05 1.54065e-06 0)
(-6.11034e-05 1.47725e-06 0)
(-6.22842e-05 1.41159e-06 0)
(-6.34103e-05 1.34362e-06 0)
(-6.44804e-05 1.27349e-06 0)
(-6.54927e-05 1.20167e-06 0)
(-6.64459e-05 1.12849e-06 0)
(-6.73387e-05 1.05379e-06 0)
(-6.81701e-05 9.77478e-07 0)
(-6.89384e-05 8.99887e-07 0)
(-6.96429e-05 8.21313e-07 0)
(-7.0283e-05 7.41639e-07 0)
(-7.08576e-05 6.60773e-07 0)
(-7.13656e-05 5.7901e-07 0)
(-7.18065e-05 4.96725e-07 0)
(-7.218e-05 4.13899e-07 0)
(-7.24858e-05 3.30575e-07 0)
(-7.27231e-05 2.47091e-07 0)
(-7.28917e-05 1.63467e-07 0)
(-7.29914e-05 7.94002e-08 0)
(-7.30224e-05 -5.03021e-09 0)
(-7.29846e-05 -8.93264e-08 0)
(-7.28777e-05 -1.73164e-07 0)
(-7.27023e-05 -2.56628e-07 0)
(-7.24587e-05 -3.39847e-07 0)
(-7.2147e-05 -4.22644e-07 0)
(-7.17674e-05 -5.04759e-07 0)
(-7.13207e-05 -5.86174e-07 0)
(-7.08078e-05 -6.66949e-07 0)
(-7.02292e-05 -7.4688e-07 0)
(-6.95856e-05 -8.25645e-07 0)
(-6.88777e-05 -9.03217e-07 0)
(-6.81068e-05 -9.79685e-07 0)
(-6.72742e-05 -1.05483e-06 0)
(-6.63808e-05 -1.12831e-06 0)
(-6.54275e-05 -1.20004e-06 0)
(-6.44158e-05 -1.27013e-06 0)
(-6.33475e-05 -1.33859e-06 0)
(-6.2224e-05 -1.40517e-06 0)
(-6.10467e-05 -1.46948e-06 0)
(-5.98176e-05 -1.53139e-06 0)
(-5.85388e-05 -1.59105e-06 0)
(-5.7212e-05 -1.64844e-06 0)
(-5.58392e-05 -1.70322e-06 0)
(-5.44225e-05 -1.75512e-06 0)
(-5.29643e-05 -1.80408e-06 0)
(-5.14672e-05 -1.8501e-06 0)
(-4.99335e-05 -1.89309e-06 0)
(-4.83657e-05 -1.93281e-06 0)
(-4.67665e-05 -1.96908e-06 0)
(-4.51387e-05 -2.00195e-06 0)
(-4.34855e-05 -2.03136e-06 0)
(-4.181e-05 -2.05702e-06 0)
(-4.0115e-05 -2.07866e-06 0)
(-3.84036e-05 -2.09615e-06 0)
(-3.66795e-05 -2.10948e-06 0)
(-3.4946e-05 -2.11866e-06 0)
(-3.32066e-05 -2.12351e-06 0)
(-3.14648e-05 -2.12371e-06 0)
(-2.97243e-05 -2.11916e-06 0)
(-2.79889e-05 -2.10992e-06 0)
(-2.62628e-05 -2.09596e-06 0)
(-2.45497e-05 -2.07711e-06 0)
(-2.28533e-05 -2.05313e-06 0)
(-2.1178e-05 -2.02392e-06 0)
(-1.95281e-05 -1.98959e-06 0)
(-1.79077e-05 -1.95026e-06 0)
(-1.63208e-05 -1.90582e-06 0)
(-1.47716e-05 -1.85602e-06 0)
(-1.32642e-05 -1.80084e-06 0)
(-1.18029e-05 -1.74051e-06 0)
(-1.03919e-05 -1.67516e-06 0)
(-9.03529e-06 -1.60477e-06 0)
(-7.73688e-06 -1.52927e-06 0)
(-6.50065e-06 -1.44876e-06 0)
(-5.33064e-06 -1.36348e-06 0)
(-4.23063e-06 -1.27364e-06 0)
(-3.20394e-06 -1.17945e-06 0)
(-2.25369e-06 -1.08108e-06 0)
(-1.38296e-06 -9.78805e-07 0)
(-5.94622e-07 -8.73138e-07 0)
(1.08841e-07 -7.64641e-07 0)
(7.25461e-07 -6.53759e-07 0)
(1.25386e-06 -5.41011e-07 0)
(1.69315e-06 -4.27136e-07 0)
(2.04278e-06 -3.13049e-07 0)
(2.30296e-06 -1.99777e-07 0)
(2.47502e-06 -8.84736e-08 0)
(2.56147e-06 1.95208e-08 0)
(2.56577e-06 1.22624e-07 0)
(2.49254e-06 2.1889e-07 0)
(2.34805e-06 3.05919e-07 0)
(2.14056e-06 3.80826e-07 0)
(1.88054e-06 4.40197e-07 0)
(1.58082e-06 4.79982e-07 0)
(1.25685e-06 4.95352e-07 0)
(9.26945e-07 4.8078e-07 0)
(6.12155e-07 4.30558e-07 0)
(3.35529e-07 3.39844e-07 0)
(1.26447e-07 2.08315e-07 0)
(2.13921e-08 5.67022e-08 0)
(-6.75385e-08 1.80933e-07 0)
(-4.92221e-08 -3.00551e-07 0)
(9.5708e-08 -8.95212e-07 0)
(3.86746e-07 -1.1148e-06 0)
(7.70259e-07 -1.12495e-06 0)
(1.17995e-06 -1.04511e-06 0)
(1.57816e-06 -9.21207e-07 0)
(1.92969e-06 -7.73636e-07 0)
(2.21468e-06 -6.06206e-07 0)
(2.41357e-06 -4.24e-07 0)
(2.5147e-06 -2.28945e-07 0)
(2.51072e-06 -2.19925e-08 0)
(2.39215e-06 1.90371e-07 0)
(2.15767e-06 4.10935e-07 0)
(1.80136e-06 6.33978e-07 0)
(1.32187e-06 8.59006e-07 0)
(7.19859e-07 1.08509e-06 0)
(-6.86563e-09 1.30775e-06 0)
(-8.54687e-07 1.52814e-06 0)
(-1.82259e-06 1.74469e-06 0)
(-2.90889e-06 1.95464e-06 0)
(-4.10842e-06 2.1593e-06 0)
(-5.41892e-06 2.35636e-06 0)
(-6.83675e-06 2.54456e-06 0)
(-8.35601e-06 2.72546e-06 0)
(-9.97308e-06 2.89699e-06 0)
(-1.16827e-05 3.05871e-06 0)
(-1.34785e-05 3.21137e-06 0)
(-1.5356e-05 3.35338e-06 0)
(-1.73097e-05 3.48461e-06 0)
(-1.93334e-05 3.60612e-06 0)
(-2.14217e-05 3.71715e-06 0)
(-2.35693e-05 3.81742e-06 0)
(-2.57694e-05 3.90764e-06 0)
(-2.80162e-05 3.98704e-06 0)
(-3.03043e-05 4.05542e-06 0)
(-3.26272e-05 4.11361e-06 0)
(-3.49796e-05 4.16181e-06 0)
(-3.73563e-05 4.19976e-06 0)
(-3.9751e-05 4.22789e-06 0)
(-4.21583e-05 4.24628e-06 0)
(-4.45729e-05 4.25476e-06 0)
(-4.69892e-05 4.25367e-06 0)
(-4.9402e-05 4.24347e-06 0)
(-5.18064e-05 4.22414e-06 0)
(-5.41971e-05 4.19598e-06 0)
(-5.65697e-05 4.15949e-06 0)
(-5.89194e-05 4.1149e-06 0)
(-6.12419e-05 4.06255e-06 0)
(-6.35328e-05 4.00275e-06 0)
(-6.57875e-05 3.93553e-06 0)
(-6.8002e-05 3.86096e-06 0)
(-7.01723e-05 3.77964e-06 0)
(-7.2295e-05 3.69201e-06 0)
(-7.43663e-05 3.59822e-06 0)
(-7.63827e-05 3.4984e-06 0)
(-7.83407e-05 3.3928e-06 0)
(-8.02372e-05 3.28162e-06 0)
(-8.20692e-05 3.16513e-06 0)
(-8.38343e-05 3.04387e-06 0)
(-8.55296e-05 2.91846e-06 0)
(-8.71528e-05 2.78896e-06 0)
(-8.87012e-05 2.6552e-06 0)
(-9.01724e-05 2.51744e-06 0)
(-9.15641e-05 2.3761e-06 0)
(-9.28745e-05 2.2314e-06 0)
(-9.41022e-05 2.08354e-06 0)
(-9.52454e-05 1.93296e-06 0)
(-9.63021e-05 1.77991e-06 0)
(-9.72712e-05 1.62443e-06 0)
(-9.81518e-05 1.46675e-06 0)
(-9.89424e-05 1.30735e-06 0)
(-9.96417e-05 1.14643e-06 0)
(-0.000100249 9.8396e-07 0)
(-0.000100764 8.2006e-07 0)
(-0.000101185 6.5513e-07 0)
(-0.000101511 4.8968e-07 0)
(-0.000101744 3.23853e-07 0)
(-0.000101883 1.57565e-07 0)
(-0.000101927 -8.91126e-09 0)
(-0.000101875 -1.75161e-07 0)
(-0.00010173 -3.41104e-07 0)
(-0.000101489 -5.06695e-07 0)
(-0.000101155 -6.71564e-07 0)
(-0.000100728 -8.35299e-07 0)
(-0.000100207 -9.978e-07 0)
(-9.95937e-05 -1.15908e-06 0)
(-9.88895e-05 -1.31888e-06 0)
(-9.80948e-05 -1.47676e-06 0)
(-9.72105e-05 -1.63245e-06 0)
(-9.62383e-05 -1.78598e-06 0)
(-9.51793e-05 -1.93732e-06 0)
(-9.40351e-05 -2.08602e-06 0)
(-9.28071e-05 -2.23154e-06 0)
(-9.14971e-05 -2.37373e-06 0)
(-9.01071e-05 -2.51258e-06 0)
(-8.86392e-05 -2.6479e-06 0)
(-8.70951e-05 -2.77931e-06 0)
(-8.54771e-05 -2.90657e-06 0)
(-8.37879e-05 -3.02945e-06 0)
(-8.20302e-05 -3.14773e-06 0)
(-8.02066e-05 -3.26116e-06 0)
(-7.83195e-05 -3.36941e-06 0)
(-7.63721e-05 -3.47223e-06 0)
(-7.43677e-05 -3.56947e-06 0)
(-7.23096e-05 -3.66086e-06 0)
(-7.02011e-05 -3.74604e-06 0)
(-6.80456e-05 -3.82474e-06 0)
(-6.58469e-05 -3.89674e-06 0)
(-6.3609e-05 -3.9619e-06 0)
(-6.1336e-05 -4.02004e-06 0)
(-5.90317e-05 -4.07078e-06 0)
(-5.67005e-05 -4.11372e-06 0)
(-5.43469e-05 -4.14869e-06 0)
(-5.19755e-05 -4.17554e-06 0)
(-4.95909e-05 -4.19401e-06 0)
(-4.71978e-05 -4.20384e-06 0)
(-4.48008e-05 -4.20477e-06 0)
(-4.24054e-05 -4.19657e-06 0)
(-4.00168e-05 -4.17907e-06 0)
(-3.76402e-05 -4.15209e-06 0)
(-3.52808e-05 -4.11539e-06 0)
(-3.29439e-05 -4.0688e-06 0)
(-3.06351e-05 -4.01228e-06 0)
(-2.83604e-05 -3.94583e-06 0)
(-2.61252e-05 -3.86933e-06 0)
(-2.39349e-05 -3.78262e-06 0)
(-2.17953e-05 -3.68564e-06 0)
(-1.97118e-05 -3.57845e-06 0)
(-1.76904e-05 -3.46118e-06 0)
(-1.57367e-05 -3.33392e-06 0)
(-1.38558e-05 -3.19676e-06 0)
(-1.20532e-05 -3.04979e-06 0)
(-1.03342e-05 -2.89329e-06 0)
(-8.70412e-06 -2.72771e-06 0)
(-7.16769e-06 -2.55338e-06 0)
(-5.72942e-06 -2.37061e-06 0)
(-4.39352e-06 -2.17992e-06 0)
(-3.16398e-06 -1.98205e-06 0)
(-2.04454e-06 -1.77784e-06 0)
(-1.03835e-06 -1.56819e-06 0)
(-1.47824e-07 -1.35408e-06 0)
(6.25328e-07 -1.13667e-06 0)
(1.27995e-06 -9.17483e-07 0)
(1.81561e-06 -6.98315e-07 0)
(2.23294e-06 -4.81064e-07 0)
(2.53389e-06 -2.6782e-07 0)
(2.72168e-06 -6.11449e-08 0)
(2.80088e-06 1.35793e-07 0)
(2.77771e-06 3.19254e-07 0)
(2.66048e-06 4.84899e-07 0)
(2.45968e-06 6.277e-07 0)
(2.18828e-06 7.4178e-07 0)
(1.86203e-06 8.20255e-07 0)
(1.49963e-06 8.55275e-07 0)
(1.12268e-06 8.38322e-07 0)
(7.55563e-07 7.6094e-07 0)
(4.24943e-07 6.15867e-07 0)
(1.66628e-07 4.00957e-07 0)
(3.02618e-08 1.34827e-07 0)
(-1.64565e-08 1.96164e-07 0)
(5.93723e-08 -3.81794e-07 0)
(2.32038e-07 -1.10962e-06 0)
(5.07867e-07 -1.43936e-06 0)
(8.61899e-07 -1.50932e-06 0)
(1.24212e-06 -1.43918e-06 0)
(1.60496e-06 -1.28767e-06 0)
(1.91953e-06 -1.0795e-06 0)
(2.15629e-06 -8.30768e-07 0)
(2.29455e-06 -5.50487e-07 0)
(2.3199e-06 -2.42936e-07 0)
(2.21674e-06 8.26384e-08 0)
(1.97978e-06 4.25156e-07 0)
(1.60086e-06 7.77417e-07 0)
(1.07522e-06 1.13581e-06 0)
(4.01528e-07 1.49918e-06 0)
(-4.23977e-07 1.86132e-06 0)
(-1.39922e-06 2.2218e-06 0)
(-2.5232e-06 2.57805e-06 0)
(-3.79501e-06 2.92638e-06 0)
(-5.21006e-06 3.26709e-06 0)
(-6.76539e-06 3.59768e-06 0)
(-8.45751e-06 3.91573e-06 0)
(-1.02799e-05 4.22186e-06 0)
(-1.22282e-05 4.51415e-06 0)
(-1.42968e-05 4.79144e-06 0)
(-1.64786e-05 5.05441e-06 0)
(-1.87678e-05 5.30161e-06 0)
(-2.11581e-05 5.53193e-06 0)
(-2.36416e-05 5.74606e-06 0)
(-2.62117e-05 5.9432e-06 0)
(-2.88618e-05 6.12277e-06 0)
(-3.15841e-05 6.2857e-06 0)
(-3.43717e-05 6.43175e-06 0)
(-3.72178e-05 6.56044e-06 0)
(-4.01142e-05 6.67217e-06 0)
(-4.30538e-05 6.76699e-06 0)
(-4.60298e-05 6.84463e-06 0)
(-4.90349e-05 6.90584e-06 0)
(-5.20622e-05 6.95098e-06 0)
(-5.5105e-05 6.98004e-06 0)
(-5.81564e-05 6.99353e-06 0)
(-6.12096e-05 6.99165e-06 0)
(-6.42582e-05 6.97478e-06 0)
(-6.72958e-05 6.9433e-06 0)
(-7.03162e-05 6.89746e-06 0)
(-7.33132e-05 6.83763e-06 0)
(-7.62811e-05 6.76432e-06 0)
(-7.92142e-05 6.67811e-06 0)
(-8.21073e-05 6.57959e-06 0)
(-8.49551e-05 6.46914e-06 0)
(-8.77521e-05 6.34705e-06 0)
(-9.04932e-05 6.21372e-06 0)
(-9.3174e-05 6.06962e-06 0)
(-9.57899e-05 5.91528e-06 0)
(-9.83367e-05 5.75138e-06 0)
(-0.00010081 5.57836e-06 0)
(-0.000103206 5.39636e-06 0)
(-0.000105521 5.20564e-06 0)
(-0.000107751 5.00675e-06 0)
(-0.000109892 4.80032e-06 0)
(-0.000111943 4.58683e-06 0)
(-0.000113899 4.3668e-06 0)
(-0.000115758 4.14077e-06 0)
(-0.000117517 3.90889e-06 0)
(-0.000119173 3.67123e-06 0)
(-0.000120725 3.42837e-06 0)
(-0.00012217 3.18106e-06 0)
(-0.000123505 2.92953e-06 0)
(-0.000124731 2.67381e-06 0)
(-0.000125844 2.41448e-06 0)
(-0.000126843 2.1523e-06 0)
(-0.000127728 1.88756e-06 0)
(-0.000128496 1.62037e-06 0)
(-0.000129147 1.35118e-06 0)
(-0.000129681 1.08039e-06 0)
(-0.000130095 8.08213e-07 0)
(-0.00013039 5.34914e-07 0)
(-0.000130566 2.61019e-07 0)
(-0.000130622 -1.28269e-08 0)
(-0.000130559 -2.86278e-07 0)
(-0.000130376 -5.59332e-07 0)
(-0.000130074 -8.3175e-07 0)
(-0.000129653 -1.10293e-06 0)
(-0.000129114 -1.37242e-06 0)
(-0.000128457 -1.64009e-06 0)
(-0.000127684 -1.90565e-06 0)
(-0.000126795 -2.16858e-06 0)
(-0.000125792 -2.42834e-06 0)
(-0.000124676 -2.6847e-06 0)
(-0.000123448 -2.93744e-06 0)
(-0.000122112 -3.18624e-06 0)
(-0.000120667 -3.43061e-06 0)
(-0.000119116 -3.67012e-06 0)
(-0.000117462 -3.90447e-06 0)
(-0.000115707 -4.13326e-06 0)
(-0.000113853 -4.35594e-06 0)
(-0.000111903 -4.57207e-06 0)
(-0.00010986 -4.78147e-06 0)
(-0.000107727 -4.98387e-06 0)
(-0.000105507 -5.17869e-06 0)
(-0.000103204 -5.36536e-06 0)
(-0.00010082 -5.54351e-06 0)
(-9.83606e-05 -5.71283e-06 0)
(-9.5829e-05 -5.87299e-06 0)
(-9.32292e-05 -6.02354e-06 0)
(-9.05656e-05 -6.1639e-06 0)
(-8.78426e-05 -6.29367e-06 0)
(-8.5065e-05 -6.41259e-06 0)
(-8.22377e-05 -6.5202e-06 0)
(-7.93657e-05 -6.61602e-06 0)
(-7.64541e-05 -6.69963e-06 0)
(-7.35081e-05 -6.77066e-06 0)
(-7.05336e-05 -6.82876e-06 0)
(-6.75362e-05 -6.87355e-06 0)
(-6.45217e-05 -6.90453e-06 0)
(-6.1496e-05 -6.92122e-06 0)
(-5.84652e-05 -6.92337e-06 0)
(-5.54357e-05 -6.91081e-06 0)
(-5.24141e-05 -6.88318e-06 0)
(-4.94069e-05 -6.84e-06 0)
(-4.64206e-05 -6.7809e-06 0)
(-4.34619e-05 -6.70576e-06 0)
(-4.05379e-05 -6.61453e-06 0)
(-3.76558e-05 -6.50709e-06 0)
(-3.48222e-05 -6.38323e-06 0)
(-3.20439e-05 -6.24277e-06 0)
(-2.93281e-05 -6.08567e-06 0)
(-2.66818e-05 -5.91213e-06 0)
(-2.41121e-05 -5.7223e-06 0)
(-2.16257e-05 -5.51618e-06 0)
(-1.92293e-05 -5.29395e-06 0)
(-1.69294e-05 -5.05602e-06 0)
(-1.47328e-05 -4.80289e-06 0)
(-1.26457e-05 -4.53509e-06 0)
(-1.0674e-05 -4.2532e-06 0)
(-8.82297e-06 -3.95788e-06 0)
(-7.09797e-06 -3.65004e-06 0)
(-5.50388e-06 -3.33093e-06 0)
(-4.04503e-06 -3.00187e-06 0)
(-2.72499e-06 -2.66429e-06 0)
(-1.54663e-06 -2.31983e-06 0)
(-5.12105e-07 -1.97046e-06 0)
(3.7726e-07 -1.61858e-06 0)
(1.12123e-06 -1.26697e-06 0)
(1.72087e-06 -9.18761e-07 0)
(2.17862e-06 -5.77418e-07 0)
(2.49836e-06 -2.47014e-07 0)
(2.68558e-06 6.75438e-08 0)
(2.74768e-06 3.60545e-07 0)
(2.69445e-06 6.25441e-07 0)
(2.53819e-06 8.54734e-07 0)
(2.29376e-06 1.03983e-06 0)
(1.97883e-06 1.17096e-06 0)
(1.61413e-06 1.23715e-06 0)
(1.22371e-06 1.22672e-06 0)
(8.34495e-07 1.12798e-06 0)
(4.76116e-07 9.30268e-07 0)
(1.89761e-07 6.27049e-07 0)
(3.52935e-08 2.29802e-07 0)
(1.63782e-08 1.40587e-07 0)
(1.36816e-07 -5.23442e-07 0)
(3.32982e-07 -1.33864e-06 0)
(5.98276e-07 -1.74598e-06 0)
(9.17245e-07 -1.85607e-06 0)
(1.24518e-06 -1.78876e-06 0)
(1.54797e-06 -1.5998e-06 0)
(1.78894e-06 -1.32346e-06 0)
(1.94072e-06 -9.81396e-07 0)
(1.98176e-06 -5.85812e-07 0)
(1.89083e-06 -1.51385e-07 0)
(1.65685e-06 3.16182e-07 0)
(1.26699e-06 8.07587e-07 0)
(7.13122e-07 1.31497e-06 0)
(-7.95648e-09 1.83479e-06 0)
(-9.02726e-07 2.35869e-06 0)
(-1.97162e-06 2.88438e-06 0)
(-3.21442e-06 3.40774e-06 0)
(-4.63145e-06 3.92375e-06 0)
(-6.21902e-06 4.43095e-06 0)
(-7.9741e-06 4.92631e-06 0)
(-9.89374e-06 5.40629e-06 0)
(-1.19717e-05 5.87044e-06 0)
(-1.42029e-05 6.31643e-06 0)
(-1.65815e-05 6.74186e-06 0)
(-1.90999e-05 7.14699e-06 0)
(-2.17513e-05 7.53014e-06 0)
(-2.45291e-05 7.88984e-06 0)
(-2.74245e-05 8.22656e-06 0)
(-3.04297e-05 8.53926e-06 0)
(-3.35372e-05 8.82705e-06 0)
(-3.67378e-05 9.09011e-06 0)
(-4.0023e-05 9.32815e-06 0)
(-4.33851e-05 9.54079e-06 0)
(-4.6815e-05 9.7286e-06 0)
(-5.03043e-05 9.89178e-06 0)
(-5.38447e-05 1.003e-05 0)
(-5.74272e-05 1.01436e-05 0)
(-6.10436e-05 1.0233e-05 0)
(-6.46858e-05 1.02983e-05 0)
(-6.83455e-05 1.03401e-05 0)
(-7.20147e-05 1.03588e-05 0)
(-7.56856e-05 1.0355e-05 0)
(-7.93502e-05 1.03291e-05 0)
(-8.30013e-05 1.02818e-05 0)
(-8.66314e-05 1.02137e-05 0)
(-9.02333e-05 1.01252e-05 0)
(-9.38e-05 1.00169e-05 0)
(-9.73246e-05 9.88941e-06 0)
(-0.000100801 9.74343e-06 0)
(-0.000104222 9.57976e-06 0)
(-0.000107583 9.39916e-06 0)
(-0.000110876 9.20205e-06 0)
(-0.000114097 8.98899e-06 0)
(-0.00011724 8.76068e-06 0)
(-0.0001203 8.51792e-06 0)
(-0.000123272 8.26146e-06 0)
(-0.000126151 7.99199e-06 0)
(-0.000128932 7.71016e-06 0)
(-0.000131612 7.41648e-06 0)
(-0.000134186 7.11134e-06 0)
(-0.00013665 6.79541e-06 0)
(-0.000139 6.46962e-06 0)
(-0.000141234 6.13477e-06 0)
(-0.000143348 5.79123e-06 0)
(-0.000145339 5.43944e-06 0)
(-0.000147204 5.08015e-06 0)
(-0.000148941 4.71405e-06 0)
(-0.000150547 4.34157e-06 0)
(-0.000152021 3.96317e-06 0)
(-0.000153359 3.57956e-06 0)
(-0.000154561 3.19134e-06 0)
(-0.000155624 2.7989e-06 0)
(-0.000156549 2.40285e-06 0)
(-0.000157332 2.00408e-06 0)
(-0.000157974 1.60311e-06 0)
(-0.000158473 1.20007e-06 0)
(-0.000158829 7.95353e-07 0)
(-0.000159042 3.89773e-07 0)
(-0.000159111 -1.59878e-08 0)
(-0.000159036 -4.21488e-07 0)
(-0.000158818 -8.26317e-07 0)
(-0.000158456 -1.22988e-06 0)
(-0.000157951 -1.63153e-06 0)
(-0.000157305 -2.03088e-06 0)
(-0.000156517 -2.42758e-06 0)
(-0.000155589 -2.82102e-06 0)
(-0.000154522 -3.21048e-06 0)
(-0.000153318 -3.59547e-06 0)
(-0.000151978 -3.97565e-06 0)
(-0.000150505 -4.35042e-06 0)
(-0.0001489 -4.71905e-06 0)
(-0.000147165 -5.08094e-06 0)
(-0.000145303 -5.43573e-06 0)
(-0.000143316 -5.783e-06 0)
(-0.000141208 -6.12204e-06 0)
(-0.000138982 -6.45206e-06 0)
(-0.00013664 -6.77246e-06 0)
(-0.000134186 -7.08284e-06 0)
(-0.000131624 -7.38274e-06 0)
(-0.000128957 -7.67143e-06 0)
(-0.00012619 -7.94812e-06 0)
(-0.000123327 -8.2123e-06 0)
(-0.000120373 -8.46348e-06 0)
(-0.000117331 -8.70101e-06 0)
(-0.000114208 -8.92421e-06 0)
(-0.000111008 -9.1324e-06 0)
(-0.000107736 -9.32502e-06 0)
(-0.000104399 -9.50162e-06 0)
(-0.000101002 -9.66154e-06 0)
(-9.75502e-05 -9.80401e-06 0)
(-9.40509e-05 -9.92838e-06 0)
(-9.05101e-05 -1.00342e-05 0)
(-8.69346e-05 -1.0121e-05 0)
(-8.3331e-05 -1.01881e-05 0)
(-7.97063e-05 -1.02349e-05 0)
(-7.60675e-05 -1.02607e-05 0)
(-7.24222e-05 -1.02651e-05 0)
(-6.87779e-05 -1.02477e-05 0)
(-6.51421e-05 -1.02082e-05 0)
(-6.15225e-05 -1.01459e-05 0)
(-5.79271e-05 -1.00604e-05 0)
(-5.43639e-05 -9.95139e-06 0)
(-5.08413e-05 -9.81881e-06 0)
(-4.73673e-05 -9.66238e-06 0)
(-4.39501e-05 -9.48179e-06 0)
(-4.05977e-05 -9.27693e-06 0)
(-3.73186e-05 -9.04787e-06 0)
(-3.41211e-05 -8.79477e-06 0)
(-3.10133e-05 -8.51781e-06 0)
(-2.80032e-05 -8.21715e-06 0)
(-2.50986e-05 -7.89307e-06 0)
(-2.23074e-05 -7.54619e-06 0)
(-1.96374e-05 -7.1773e-06 0)
(-1.70956e-05 -6.78713e-06 0)
(-1.46887e-05 -6.37655e-06 0)
(-1.24233e-05 -5.94666e-06 0)
(-1.03055e-05 -5.4989e-06 0)
(-8.34088e-06 -5.03504e-06 0)
(-6.53425e-06 -4.55697e-06 0)
(-4.88972e-06 -4.06681e-06 0)
(-3.41051e-06 -3.56706e-06 0)
(-2.09904e-06 -3.06071e-06 0)
(-9.56754e-07 -2.55118e-06 0)
(1.61007e-08 -2.04232e-06 0)
(8.20925e-07 -1.53861e-06 0)
(1.46067e-06 -1.04514e-06 0)
(1.93969e-06 -5.67801e-07 0)
(2.26407e-06 -1.13428e-07 0)
(2.44221e-06 3.10135e-07 0)
(2.48508e-06 6.94014e-07 0)
(2.40613e-06 1.02811e-06 0)
(2.22148e-06 1.30097e-06 0)
(1.95018e-06 1.49973e-06 0)
(1.61445e-06 1.61029e-06 0)
(1.23993e-06 1.61761e-06 0)
(8.55499e-07 1.50626e-06 0)
(4.93336e-07 1.26105e-06 0)
(1.98519e-07 8.69357e-07 0)
(3.74176e-08 3.3303e-07 0)
(3.33732e-08 4.92602e-08 0)
(1.74964e-07 -6.99928e-07 0)
(3.82657e-07 -1.57171e-06 0)
(6.30392e-07 -2.02419e-06 0)
(9.02527e-07 -2.15542e-06 0)
(1.16557e-06 -2.07041e-06 0)
(1.38548e-06 -1.83158e-06 0)
(1.52907e-06 -1.47457e-06 0)
(1.5695e-06 -1.02345e-06 0)
(1.48114e-06 -5.00655e-07 0)
(1.24759e-06 8.11393e-08 0)
(8.51998e-07 7.07688e-07 0)
(2.81542e-07 1.367e-06 0)
(-4.70591e-07 2.05262e-06 0)
(-1.4132e-06 2.75256e-06 0)
(-2.54921e-06 3.46157e-06 0)
(-3.88032e-06 4.17343e-06 0)
(-5.40876e-06 4.88127e-06 0)
(-7.13192e-06 5.58151e-06 0)
(-9.04752e-06 6.26998e-06 0)
(-1.11533e-05 6.94144e-06 0)
(-1.34435e-05 7.59405e-06 0)
(-1.5913e-05 8.22499e-06 0)
(-1.85565e-05 8.83067e-06 0)
(-2.13659e-05 9.41043e-06 0)
(-2.43338e-05 9.96212e-06 0)
(-2.74532e-05 1.04832e-05 0)
(-3.07146e-05 1.09736e-05 0)
(-3.41096e-05 1.14322e-05 0)
(-3.76296e-05 1.18576e-05 0)
(-4.12648e-05 1.225e-05 0)
(-4.5006e-05 1.26089e-05 0)
(-4.88437e-05 1.29332e-05 0)
(-5.27679e-05 1.32232e-05 0)
(-5.67688e-05 1.34791e-05 0)
(-6.0837e-05 1.37008e-05 0)
(-6.49627e-05 1.38887e-05 0)
(-6.91361e-05 1.40432e-05 0)
(-7.33476e-05 1.41644e-05 0)
(-7.75879e-05 1.42527e-05 0)
(-8.18475e-05 1.43089e-05 0)
(-8.61173e-05 1.43333e-05 0)
(-9.03881e-05 1.43269e-05 0)
(-9.46509e-05 1.429e-05 0)
(-9.88973e-05 1.42235e-05 0)
(-0.000103119 1.41283e-05 0)
(-0.000107307 1.40053e-05 0)
(-0.000111454 1.38552e-05 0)
(-0.000115552 1.36788e-05 0)