/*--------------------------------*- C++ -*----------------------------------*\
  =========                 |
  \\      /  F ield         | OpenFOAM: The Open Source CFD Toolbox
   \\    /   O peration     | Website:  https://openfoam.org
    \\  /    A nd           | Version:  7
     \\/     M anipulation  |
\*---------------------------------------------------------------------------*/
FoamFile
{
    version     2.0;
    format      ascii;
    class       volScalarField;
    location    "0.25";
    object      p;
}
// * * * * * * * * * * * * * * * * * * * * * * * * * * * * * * * * * * * * * //

dimensions      [0 2 -2 0 0 0 0];

internalField   nonuniform List<scalar> 
12800
(
1.64263e-06
2.95137e-05
-5.55938e-06
-0.000114796
-0.000289962
-0.00052076
-0.000796277
-0.00110588
-0.00143996
-0.00179009
-0.00214903
-0.00251063
-0.00286975
-0.00322217
-0.0035644
-0.00389368
-0.00420781
-0.00450511
-0.00478431
-0.00504455
-0.00528531
-0.00550627
-0.00570734
-0.00588859
-0.00605025
-0.00619263
-0.00631614
-0.00642121
-0.00650829
-0.00657788
-0.00663047
-0.00666654
-0.00668654
-0.00669086
-0.00667987
-0.00665389
-0.00661323
-0.00655812
-0.00648874
-0.0064052
-0.00630756
-0.00619583
-0.00606999
-0.00592995
-0.00577559
-0.00560669
-0.00542302
-0.00522427
-0.00501012
-0.00478019
-0.00453406
-0.00427127
-0.00399127
-0.0036935
-0.00337735
-0.00304215
-0.0026872
-0.00231175
-0.00191501
-0.00149612
-0.0010542
-0.000588293
-9.73942e-05
0.00041954
0.000963603
0.00153594
0.00213773
0.00277025
0.00343477
0.00413267
0.00486534
0.00563424
0.00644088
0.00728679
0.00817357
0.00910284
0.0100762
0.0110955
0.0121622
0.0132783
0.0144454
0.0156653
0.0169398
0.0182708
0.0196599
0.0211088
0.0226194
0.0241933
0.0258319
0.0275369
0.0293097
0.0311514
0.0330634
0.0350465
0.0371016
0.0392294
0.0414302
0.0437042
0.0460514
0.0484711
0.0509628
0.0535253
0.0561571
0.0588563
0.0616204
0.0644468
0.0673321
0.0702724
0.0732635
0.0763003
0.0793775
0.082489
0.0856281
0.0887878
0.0919603
0.0951373
0.0983101
0.101469
0.104605
0.107708
0.110767
0.113771
0.11671
0.119572
0.122346
0.125022
0.127589
0.130035
0.132351
0.134528
0.136556
0.138428
0.140136
0.141674
0.143036
0.14422
0.145222
0.146042
0.14668
0.147138
0.147419
0.147529
0.147474
0.147264
0.146908
0.146419
0.145809
0.145096
0.144295
0.143427
0.142513
0.141577
0.140645
0.139746
0.138914
0.138184
0.137596
0.137189
0.137005
0.13703
-2.34233e-05
3.44856e-06
-3.30534e-05
-0.000133066
-0.000287307
-0.000488685
-0.000729424
-0.00100129
-0.00129642
-0.00160771
-0.00192886
-0.00225433
-0.00257942
-0.00290012
-0.0032131
-0.00351566
-0.0038056
-0.00408114
-0.00434094
-0.00458402
-0.00480969
-0.00501749
-0.00520717
-0.00537863
-0.00553194
-0.00566727
-0.00578488
-0.00588504
-0.00596808
-0.00603435
-0.00608424
-0.00611812
-0.00613633
-0.00613917
-0.00612692
-0.00609985
-0.00605817
-0.00600208
-0.00593167
-0.00584702
-0.00574815
-0.00563503
-0.00550762
-0.0053658
-0.00520941
-0.00503823
-0.00485198
-0.00465038
-0.00443307
-0.00419968
-0.00394979
-0.00368292
-0.00339854
-0.00309607
-0.0027749
-0.00243439
-0.00207385
-0.00169254
-0.00128967
-0.000864414
-0.000415893
5.68236e-05
0.00055471
0.00107878
0.00163011
0.00220978
0.00281898
0.00345889
0.00413078
0.00483596
0.00557578
0.00635164
0.00716498
0.00801729
0.00891008
0.00984488
0.0108233
0.0118469
0.0129173
0.0140362
0.0152052
0.0164261
0.0177004
0.0190299
0.0204162
0.0218609
0.0233657
0.0249319
0.0265612
0.0282548
0.030014
0.03184
0.0337337
0.0356961
0.0377279
0.0398295
0.0420013
0.0442433
0.0465552
0.0489365
0.0513864
0.0539037
0.0564869
0.0591339
0.0618425
0.0646097
0.0674323
0.0703065
0.073228
0.0761921
0.0791934
0.082226
0.0852837
0.0883593
0.0914456
0.0945346
0.0976179
0.100687
0.103731
0.106743
0.109711
0.112625
0.115475
0.118252
0.120943
0.123539
0.12603
0.128407
0.130658
0.132777
0.134753
0.136581
0.138254
0.139765
0.14111
0.142286
0.143291
0.144124
0.144786
0.145279
0.145607
0.145774
0.145787
0.145656
0.145389
0.144999
0.144499
0.143902
0.143227
0.14249
0.141713
0.140916
0.140124
0.139363
0.13866
0.138046
0.137548
0.137197
0.137029
0.137055
1.27989e-05
4.05051e-05
3.59493e-06
-9.16019e-05
-0.000234035
-0.000417718
-0.000636415
-0.000883293
-0.00115172
-0.00143559
-0.00172934
-0.00202807
-0.00232747
-0.00262383
-0.002914
-0.00319542
-0.00346591
-0.00372373
-0.00396751
-0.00419621
-0.00440907
-0.00460553
-0.00478524
-0.00494801
-0.0050938
-0.00522268
-0.00533475
-0.00543022
-0.00550929
-0.00557225
-0.00561939
-0.00565097
-0.00566725
-0.00566846
-0.00565482
-0.00562655
-0.00558381
-0.00552671
-0.00545531
-0.00536964
-0.00526969
-0.00515542
-0.00502674
-0.00488352
-0.00472556
-0.00455263
-0.00436444
-0.00416068
-0.003941
-0.00370503
-0.00345234
-0.00318243
-0.00289478
-0.00258882
-0.00226394
-0.0019195
-0.00155482
-0.00116919
-0.000761813
-0.000331887
0.000121458
0.00059913
0.00110208
0.0016313
0.00218783
0.00277273
0.00338714
0.00403223
0.00470922
0.00541937
0.00616399
0.00694444
0.00776211
0.00861842
0.00951482
0.0104528
0.0114338
0.0124595
0.0135313
0.0146509
0.0158198
0.0170396
0.018312
0.0196384
0.0210204
0.0224597
0.0239576
0.0255156
0.027135
0.0288171
0.030563
0.0323739
0.0342506
0.0361939
0.0382045
0.0402827
0.0424287
0.0446425
0.0469238
0.049272
0.0516862
0.0541653
0.0567075
0.059311
0.0619733
0.0646917
0.0674629
0.0702833
0.0731485
0.0760539
0.0789943
0.0819641
0.084957
0.0879663
0.0909849
0.094005
0.0970186
0.100017
0.102992
0.105933
0.108831
0.111677
0.114461
0.117172
0.119801
0.122338
0.124773
0.127097
0.129301
0.131377
0.133316
0.135113
0.136759
0.138252
0.139586
0.140758
0.141766
0.14261
0.143292
0.143812
0.144175
0.144385
0.14445
0.144378
0.144178
0.143862
0.143441
0.142931
0.142347
0.141705
0.141025
0.140326
0.13963
0.138961
0.138341
0.137796
0.13735
0.137026
0.13686
0.136871
0.000123078
0.000141181
9.83585e-05
2.36361e-06
-0.000135841
-0.000310682
-0.000516608
-0.000747727
-0.000998318
-0.00126301
-0.00153691
-0.00181567
-0.00209537
-0.00237263
-0.00264458
-0.00290877
-0.00316313
-0.003406
-0.00363606
-0.00385226
-0.0040538
-0.00424009
-0.00441072
-0.00456544
-0.00470417
-0.00482686
-0.00493355
-0.00502435
-0.00509943
-0.00515899
-0.00520325
-0.00523238
-0.00524657
-0.00524601
-0.00523086
-0.00520129
-0.0051574
-0.00509926
-0.00502688
-0.00494026
-0.00483936
-0.00472411
-0.0045944
-0.00445006
-0.00429088
-0.00411661
-0.00392695
-0.00372157
-0.00350014
-0.00326225
-0.00300748
-0.00273533
-0.00244527
-0.00213673
-0.00180912
-0.0014618
-0.0010941
-0.000705307
-0.000294663
0.000138639
0.00059545
0.00107666
0.0015832
0.00211604
0.00267617
0.00326466
0.00388258
0.0045311
0.00521139
0.00592467
0.00667222
0.00745535
0.0082754
0.00913375
0.0100318
0.0109709
0.0119527
0.0129784
0.0140497
0.015168
0.0163349
0.0175518
0.0188204
0.0201421
0.0215184
0.0229507
0.0244405
0.025989
0.0275976
0.0292675
0.0309997
0.0327953
0.034655
0.0365796
0.0385697
0.0406255
0.0427473
0.044935
0.0471881
0.0495062
0.0518883
0.0543331
0.0568391
0.0594043
0.0620263
0.0647025
0.0674296
0.070204
0.0730216
0.0758777
0.0787674
0.0816851
0.0846248
0.0875799
0.0905435
0.0935081
0.0964658
0.0994085
0.102327
0.105214
0.108058
0.110851
0.113583
0.116244
0.118826
0.121318
0.123711
0.125996
0.128165
0.130209
0.132122
0.133896
0.135525
0.137005
0.138332
0.139502
0.140515
0.141369
0.142067
0.142609
0.143
0.143244
0.143349
0.143322
0.143173
0.142912
0.142551
0.142104
0.141586
0.141012
0.1404
0.139768
0.139136
0.138524
0.137954
0.137445
0.13702
0.136699
0.136509
0.13647
0.000300666
0.000297041
0.000240902
0.000138597
-9.42314e-07
-0.00017252
-0.000371183
-0.000591835
-0.000829527
-0.00107961
-0.0013378
-0.00160021
-0.00186338
-0.0021243
-0.00238033
-0.00262921
-0.00286902
-0.00309823
-0.00331557
-0.00352004
-0.00371083
-0.00388733
-0.00404912
-0.00419593
-0.00432761
-0.00444407
-0.00454527
-0.00463128
-0.0047022
-0.00475818
-0.00479936
-0.00482586
-0.00483779
-0.0048353
-0.00481853
-0.00478756
-0.00474245
-0.00468322
-0.00460985
-0.00452231
-0.00442054
-0.00430442
-0.00417382
-0.00402855
-0.00386837
-0.00369302
-0.00350218
-0.00329553
-0.00307271
-0.00283332
-0.00257691
-0.002303
-0.00201105
-0.0017005
-0.00137076
-0.0010212
-0.000651158
-0.000259934
0.00015322
0.000589099
0.00104854
0.0015324
0.0020416
0.00257708
0.0031398
0.0037308
0.00435114
0.00500193
0.00568432
0.0063995
0.00714869
0.00793318
0.00875424
0.00961321
0.0105114
0.0114503
0.0124311
0.0134554
0.0145246
0.0156401
0.0168033
0.0180158
0.019279
0.0205943
0.0219632
0.023387
0.0248671
0.0264047
0.0280011
0.0296573
0.0313745
0.0331536
0.0349952
0.0369002
0.038869
0.0409019
0.042999
0.0451603
0.0473854
0.0496736
0.052024
0.0544354
0.0569063
0.0594347
0.0620184
0.0646546
0.0673402
0.0700717
0.072845
0.0756558
0.0784991
0.0813694
0.084261
0.0871675
0.090082
0.0929975
0.0959062
0.0988001
0.101671
0.10451
0.107307
0.110055
0.112744
0.115364
0.117906
0.120361
0.12272
0.124974
0.127115
0.129135
0.131026
0.132783
0.1344
0.135871
0.137194
0.138365
0.139383
0.140248
0.14096
0.141522
0.141938
0.142212
0.14235
0.142362
0.142254
0.142039
0.141727
0.141331
0.140865
0.140345
0.139785
0.139203
0.138617
0.138044
0.137502
0.137011
0.136587
0.136249
0.136014
0.135892
0.000536608
0.000501933
0.000425886
0.000312015
0.000166071
-7.28275e-06
-0.000203614
-0.000418528
-0.000647794
-0.000887426
-0.00113369
-0.00138318
-0.00163288
-0.00188011
-0.0021225
-0.00235802
-0.00258494
-0.00280186
-0.0030076
-0.00320121
-0.00338193
-0.00354916
-0.00370251
-0.00384168
-0.00396647
-0.00407677
-0.0041725
-0.00425369
-0.0043204
-0.00437272
-0.00441072
-0.00443447
-0.00444406
-0.00443957
-0.00442111
-0.00438869
-0.00434234
-0.00428204
-0.00420772
-0.00411934
-0.00401679
-0.00389994
-0.00376863
-0.00362263
-0.0034617
-0.00328554
-0.00309384
-0.00288627
-0.00266245
-0.00242199
-0.00216442
-0.00188925
-0.00159595
-0.00128397
-0.000952713
-0.000601566
-0.000229879
0.000163041
0.00057793
0.00101557
0.00147677
0.00196239
0.00247331
0.00301043
0.00357471
0.00416714
0.00478877
0.00544066
0.00612394
0.00683975
0.00758929
0.00837378
0.00919447
0.0100526
0.0109496
0.0118866
0.0128651
0.0138864
0.0149518
0.0160628
0.0172208
0.0184272
0.0196834
0.0209907
0.0223506
0.0237643
0.0252331
0.0267583
0.0283411
0.0299824
0.0316832
0.0334446
0.0352671
0.0371515
0.0390983
0.0411076
0.0431797
0.0453144
0.0475114
0.04977
0.0520893
0.0544682
0.0569052
0.0593983
0.0619454
0.0645438
0.0671905
0.069882
0.0726146
0.0753837
0.0781847
0.0810123
0.0838609
0.0867241
0.0895956
0.0924681
0.0953343
0.0981863
0.101016
0.103815
0.106574
0.109285
0.111938
0.114524
0.117035
0.119461
0.121793
0.124023
0.126143
0.128145
0.130022
0.131767
0.133376
0.134843
0.136165
0.13734
0.138365
0.13924
0.139966
0.140547
0.140984
0.141283
0.14145
0.141493
0.141421
0.141242
0.140969
0.140613
0.140187
0.139706
0.139184
0.138637
0.13808
0.137529
0.137
0.136509
0.136071
0.1357
0.135402
0.135177
0.000821153
0.000748819
0.000647551
0.000517516
0.000360625
0.000180978
-1.74519e-05
-0.000230934
-0.000455892
-0.000688911
-0.000926794
-0.00116663
-0.00140579
-0.00164193
-0.00187296
-0.0020971
-0.00231285
-0.00251893
-0.00271428
-0.00289803
-0.00306947
-0.0032281
-0.00337351
-0.00350542
-0.00362361
-0.00372794
-0.00381833
-0.00389478
-0.00395733
-0.004006
-0.0040408
-0.00406179
-0.00406902
-0.00406253
-0.00404237
-0.00400852
-0.00396096
-0.00389963
-0.00382446
-0.00373534
-0.00363216
-0.00351475
-0.00338292
-0.00323643
-0.00307501
-0.00289835
-0.00270614
-0.00249802
-0.00227362
-0.00203252
-0.00177427
-0.00149836
-0.00120427
-0.00089145
-0.000559313
-0.000207257
0.00016536
0.00055922
0.000975049
0.00141361
0.0018757
0.00236215
0.0028738
0.00341155
0.00397633
0.00456909
0.00519085
0.00584265
0.00652557
0.00724072
0.00798927
0.0087724
0.0095913
0.0104472
0.0113414
0.0122751
0.0132496
0.0142663
0.0153264
0.0164313
0.0175825
0.0187811
0.0200286
0.0213263
0.0226755
0.0240776
0.0255336
0.0270449
0.0286125
0.0302374
0.0319207
0.0336632
0.0354656
0.0373285
0.0392524
0.0412376
0.0432842
0.0453922
0.0475611
0.0497904
0.0520792
0.0544264
0.0568306
0.0592899
0.0618022
0.0643649
0.0669753
0.0696298
0.0723248
0.0750561
0.077819
0.0806084
0.0834188
0.0862443
0.0890783
0.091914
0.0947442
0.0975611
0.100357
0.103123
0.105851
0.108532
0.111158
0.113718
0.116206
0.11861
0.120923
0.123137
0.125243
0.127233
0.129102
0.130842
0.132448
0.133915
0.13524
0.13642
0.137453
0.13834
0.139081
0.139678
0.140135
0.140456
0.140647
0.140716
0.140671
0.140521
0.140277
0.139951
0.139555
0.139101
0.138604
0.138077
0.137535
0.136991
0.13646
0.135954
0.135488
0.135073
0.134701
0.134362
0.00114458
0.00103004
0.000899499
0.000749487
0.000577792
0.000388029
0.000183726
-3.20269e-05
-0.000256226
-0.00048599
-0.000718642
-0.000951723
-0.00118298
-0.00141038
-0.00163216
-0.00184679
-0.00205298
-0.00224962
-0.00243576
-0.00261065
-0.00277367
-0.00292438
-0.00306242
-0.00318751
-0.00329944
-0.00339806
-0.00348333
-0.00355521
-0.00361371
-0.00365879
-0.00369047
-0.00370875
-0.00371366
-0.00370521
-0.00368341
-0.00364819
-0.0035995
-0.00353724
-0.00346131
-0.0033716
-0.00326795
-0.00315018
-0.00301806
-0.00287132
-0.00270969
-0.00253284
-0.00234045
-0.00213216
-0.00190759
-0.00166631
-0.00140785
-0.00113171
-0.000837382
-0.000524303
-0.00019191
0.000160393
0.000533237
0.000927298
0.00134329
0.00178195
0.00224406
0.00273042
0.00324186
0.00377925
0.00434348
0.00493548
0.00555624
0.00620676
0.00688809
0.00760132
0.00834757
0.00912796
0.00994367
0.0107959
0.0116858
0.0126146
0.0135836
0.0145941
0.0156473
0.0167445
0.0178871
0.0190763
0.0203135
0.0215999
0.0229369
0.0243256
0.0257672
0.027263
0.028814
0.0304211
0.0320854
0.0338078
0.0355888
0.0374292
0.0393294
0.0412898
0.0433104
0.0453912
0.0475319
0.0497319
0.0519905
0.0543066
0.0566788
0.0591055
0.0615845
0.0641135
0.0666896
0.0693096
0.07197
0.0746667
0.0773951
0.0801504
0.0829272
0.0857196
0.0885213
0.0913258
0.0941257
0.0969138
0.099682
0.102422
0.105126
0.107785
0.11039
0.112932
0.115403
0.117794
0.120095
0.122299
0.124398
0.126384
0.12825
0.12999
0.131598
0.133069
0.134401
0.13559
0.136634
0.137534
0.138289
0.138903
0.139378
0.139718
0.13993
0.14002
0.139997
0.139869
0.139647
0.139342
0.138965
0.138528
0.138044
0.137526
0.136986
0.136438
0.135893
0.135362
0.134856
0.134388
0.133936
0.133478
0.00149784
0.00133812
0.00117529
0.00100226
0.000812615
0.000609532
0.000396167
0.000175023
-5.14458e-05
-0.000280875
-0.000511055
-0.00073993
-0.000965612
-0.00118642
-0.00140089
-0.00160774
-0.0018059
-0.00199441
-0.00217249
-0.00233951
-0.00249497
-0.00263848
-0.00276975
-0.0028885
-0.00299457
-0.00308784
-0.00316826
-0.0032358
-0.0032904
-0.00333205
-0.00336072
-0.0033764
-0.00337911
-0.00336881
-0.00334546
-0.00330897
-0.00325926
-0.0031962
-0.00311967
-0.00302954
-0.00292562
-0.00280769
-0.0026755
-0.00252878
-0.00236721
-0.0021905
-0.00199828
-0.0017902
-0.00156587
-0.00132483
-0.00106663
-0.000790769
-0.000496726
-0.000183966
0.000148073
0.000499976
0.000872366
0.00126591
0.00168129
0.00211925
0.00258054
0.00306593
0.00357623
0.00411227
0.00467492
0.00526509
0.00588373
0.00653182
0.00721036
0.00792041
0.00866305
0.00943937
0.0102505
0.0110975
0.0119817
0.0129042
0.0138661
0.0148688
0.0159135
0.0170013
0.0181337
0.0193118
0.020537
0.0218104
0.0231334
0.0245071
0.0259327
0.0274114
0.0289441
0.030532
0.0321759
0.0338767
0.0356352
0.0374519
0.0393274
0.0412619
0.0432558
0.0453089
0.047421
0.0495916
0.0518201
0.0541054
0.0564463
0.0588411
0.061288
0.0637846
0.0663283
0.068916
0.0715442
0.0742091
0.0769063
0.079631
0.082378
0.0851416
0.0879157
0.0906938
0.0934689
0.0962336
0.0989802
0.101701
0.104387
0.10703
0.109621
0.112152
0.114613
0.116997
0.119293
0.121494
0.123593
0.12558
0.127449
0.129195
0.13081
0.132291
0.133634
0.134835
0.135893
0.136807
0.137579
0.138209
0.138701
0.139059
0.139289
0.139397
0.139391
0.13928
0.139074
0.138782
0.138416
0.137987
0.137507
0.136988
0.136442
0.135878
0.135309
0.134744
0.134192
0.133664
0.133128
0.132553
0.00187279
0.00166593
0.00146865
0.00127028
0.00106016
0.000841117
0.000616035
0.000386869
0.000155529
-7.60901e-05
-0.000306188
-0.000533091
-0.000755285
-0.000971432
-0.00118036
-0.00138104
-0.00157258
-0.00175423
-0.00192536
-0.00208549
-0.00223425
-0.00237131
-0.00249641
-0.00260936
-0.00271003
-0.00279835
-0.00287426
-0.00293772
-0.00298867
-0.00302708
-0.00305292
-0.00306619
-0.00306684
-0.00305483
-0.00303008
-0.00299247
-0.00294188
-0.00287819
-0.00280125
-0.00271089
-0.0026069
-0.00248904
-0.00235703
-0.00221058
-0.00204939
-0.00187312
-0.00168143
-0.00147393
-0.00125022
-0.00100986
-0.000752379
-0.000477277
-0.000184049
0.000127835
0.000458926
0.000809801
0.00118107
0.00157339
0.00198743
0.00242391
0.00288354
0.00336709
0.00387533
0.00440907
0.00496915
0.00555645
0.00617188
0.00681638
0.00749095
0.00819658
0.00893433
0.00970523
0.0105104
0.0113509
0.0122278
0.0131424
0.0140957
0.015089
0.0161235
0.0172004
0.0183208
0.0194862
0.0206976
0.0219564
0.0232636
0.0246206
0.0260285
0.0274883
0.0290013
0.0305682
0.0321902
0.0338681
0.0356026
0.0373943
0.0392439
0.0411517
0.0431179
0.0451425
0.0472255
0.0493664
0.0515646
0.0538191
0.056129
0.0584926
0.0609082
0.0633736
0.0658863
0.0684433
0.0710415
0.073677
0.0763456
0.0790428
0.0817634
0.084502
0.0872526
0.0900088
0.0927638
0.0955103
0.0982406
0.100947
0.103621
0.106254
0.108838
0.111364
0.113822
0.116205
0.118503
0.120708
0.122812
0.124807
0.126686
0.128443
0.130071
0.131566
0.132923
0.134141
0.135215
0.136147
0.136936
0.137584
0.138093
0.138469
0.138715
0.138838
0.138847
0.138748
0.138552
0.138268
0.137906
0.137478
0.136995
0.136467
0.135905
0.135319
0.134719
0.134112
0.133509
0.132917
0.132296
0.131606
0.00226206
0.00200687
0.00177361
0.00154812
0.00131555
0.00107843
0.000839453
0.000600039
0.000361619
0.000125669
-0.000106399
-0.000333295
-0.000553867
-0.000767098
-0.000972086
-0.00116804
-0.00135428
-0.00153025
-0.00169552
-0.00184974
-0.00199263
-0.00212396
-0.00224355
-0.00235126
-0.00244704
-0.00253084
-0.00260262
-0.00266232
-0.00270991
-0.00274534
-0.00276861
-0.00277967
-0.00277847
-0.00276493
-0.00273895
-0.0027004
-0.00264913
-0.002585
-0.00250785
-0.00241747
-0.00231363
-0.00219607
-0.0020645
-0.0019186
-0.00175808
-0.00158258
-0.00139175
-0.00118519
-0.000962506
-0.000723234
-0.000466908
-0.000193043
9.88657e-05
0.000409335
0.000738906
0.00108815
0.00145766
0.00184807
0.00226005
0.00269428
0.00315147
0.00363234
0.00413763
0.00466814
0.00522467
0.00580806
0.00641921
0.00705902
0.00772844
0.00842845
0.00916003
0.0099242
0.010722
0.0115545
0.0124228
0.0133279
0.0142711
0.0152535
0.0162761
0.0173403
0.0184472
0.0195981
0.020794
0.0220363
0.0233262
0.0246647
0.0260531
0.0274924
0.0289838
0.0305283
0.0321267
0.03378
0.0354891
0.0372545
0.0390769
0.0409567
0.0428942
0.0448895
0.0469426
0.0490532
0.0512206
0.0534443
0.0557232
0.0580558
0.0604406
0.0628756
0.0653584
0.0678863
0.070456
0.0730641
0.0757064
0.0783787
0.081076
0.0837929
0.0865236
0.0892619
0.0920009
0.0947338
0.0974528
0.10015
0.102818
0.105447
0.108029
0.110556
0.113017
0.115406
0.117712
0.119927
0.122043
0.124052
0.125946
0.12772
0.129366
0.13088
0.132257
0.133494
0.134589
0.135541
0.13635
0.137017
0.137545
0.137938
0.1382
0.138337
0.138357
0.138268
0.138078
0.137797
0.137435
0.137002
0.136509
0.135966
0.135382
0.134767
0.13413
0.133477
0.132818
0.132161
0.131456
0.130654
0.00265894
0.00235475
0.00208448
0.00183053
0.001574
0.00131715
0.00106248
0.000810976
0.000563641
0.000321562
8.57576e-05
-0.000142854
-0.000363451
-0.000575307
-0.000777783
-0.000970326
-0.00115249
-0.00132392
-0.00148435
-0.00163358
-0.00177143
-0.00189776
-0.00201249
-0.00211557
-0.002207
-0.00228675
-0.00235479
-0.0024111
-0.00245565
-0.00248842
-0.00250938
-0.00251849
-0.00251568
-0.00250084
-0.00247385
-0.00243456
-0.00238282
-0.00231848
-0.00224133
-0.00215116
-0.00204771
-0.00193069
-0.00179981
-0.00165474
-0.00149518
-0.00132076
-0.00113112
-0.000925868
-0.00070457
-0.000466783
-0.00021204
6.01369e-05
0.00035024
0.000658779
0.000986284
0.00133331
0.00170045
0.00208831
0.00249754
0.0029288
0.00338277
0.00386013
0.00436163
0.004888
0.00544003
0.00601854
0.00662436
0.00725839
0.00792152
0.0086147
0.00933888
0.010095
0.0108841
0.0117073
0.0125654
0.0134597
0.0143911
0.0153609
0.0163702
0.01742
0.0185117
0.0196463
0.020825
0.0220491
0.0233198
0.0246381
0.0260052
0.0274223
0.0288904
0.0304105
0.0319838
0.033611
0.035293
0.0370306
0.0388244
0.0406749
0.0425825
0.0445474
0.0465697
0.0486492
0.0507854
0.0529777
0.0552254
0.0575271
0.0598814
0.0622865
0.0647401
0.0672397
0.0697823
0.0723645
0.0749826
0.0776322
0.0803086
0.0830066
0.0857205
0.0884443
0.0911713
0.0938946
0.0966067
0.0992998
0.101966
0.104596
0.107182
0.109715
0.112186
0.114586
0.116906
0.119137
0.121271
0.1233
0.125216
0.127012
0.128681
0.13022
0.131622
0.132884
0.134003
0.134979
0.135811
0.136499
0.137047
0.137458
0.137736
0.137886
0.137917
0.137835
0.137649
0.137368
0.137001
0.136559
0.136051
0.135487
0.134877
0.134228
0.13355
0.132847
0.13213
0.131407
0.130619
0.129711
0.00305727
0.00270382
0.00239587
0.00211253
0.00183087
0.00155297
0.00128117
0.00101609
0.000758337
0.000508605
0.000267544
3.57301e-05
-0.000186321
-0.000398154
-0.000599391
-0.000789728
-0.000968944
-0.00113689
-0.00129345
-0.00143856
-0.00157215
-0.00169421
-0.00180475
-0.00190382
-0.00199144
-0.00206762
-0.00213237
-0.00218569
-0.00222757
-0.00225801
-0.00227699
-0.00228444
-0.00228027
-0.00226438
-0.00223661
-0.00219682
-0.00214486
-0.00208053
-0.00200362
-0.00191389
-0.00181106
-0.00169484
-0.0015649
-0.00142094
-0.00126262
-0.00108958
-0.000901457
-0.000697829
-0.000478273
-0.000242346
1.04129e-05
0.000280473
0.000568315
0.000874438
0.00119936
0.00154363
0.00190781
0.00229251
0.00269834
0.00312593
0.00357594
0.00404903
0.00454591
0.00506728
0.0056139
0.00618655
0.00678604
0.00741322
0.00806896
0.00875415
0.00946971
0.0102166
0.0109957
0.011808
0.0126546
0.0135365
0.0144548
0.0154104
0.0164046
0.0174385
0.0185132
0.0196299
0.0207897
0.0219938
0.0232434
0.0245397
0.0258837
0.0272768
0.0287198
0.0302139
0.0317602
0.0333596
0.0350129
0.0367211
0.0384847
0.0403045
0.0421809
0.0441143
0.0461046
0.048152
0.0502561
0.0524166
0.0546326
0.0569031
0.0592268
0.0616021
0.064027
0.066499
0.0690154
0.0715731
0.0741682
0.0767969
0.0794545
0.0821361
0.084836
0.0875483
0.0902666
0.0929839
0.095693
0.098386
0.101055
0.103691
0.106286
0.108831
0.111316
0.113734
0.116073
0.118326
0.120484
0.122539
0.124482
0.126307
0.128006
0.129574
0.131005
0.132297
0.133445
0.134449
0.135307
0.13602
0.136591
0.137021
0.137316
0.13748
0.137521
0.137445
0.137261
0.136977
0.136603
0.136148
0.135622
0.135034
0.134393
0.133707
0.132984
0.132229
0.131453
0.130664
0.129795
0.128786
0.00345136
0.00304865
0.00270267
0.00238927
0.00208161
0.00178164
0.00149162
0.00121179
0.000942363
0.000683692
0.000436083
0.000199801
-2.49244e-05
-0.000237915
-0.000439051
-0.000628276
-0.000805586
-0.000971012
-0.0011246
-0.00126641
-0.00139651
-0.00151502
-0.00162205
-0.0017177
-0.00180205
-0.00187516
-0.00193708
-0.00198783
-0.00202745
-0.00205593
-0.00207325
-0.00207935
-0.00207411
-0.00205743
-0.00202915
-0.00198913
-0.00193718
-0.00187311
-0.00179668
-0.00170762
-0.00160565
-0.00149046
-0.00136172
-0.00121912
-0.00106232
-0.000890956
-0.000704631
-0.00050294
-0.000285454
-5.17347e-05
0.000198669
0.000466214
0.000751372
0.00105463
0.00137649
0.00171749
0.00207818
0.00245914
0.00286095
0.00328423
0.00372958
0.00419767
0.00468914
0.00520469
0.00574502
0.0063109
0.00690309
0.00752241
0.00816968
0.00884575
0.00955151
0.0102878
0.0110556
0.0118559
0.0126896
0.0135576
0.0144612
0.0154012
0.0163788
0.017395
0.0184511
0.0195481
0.0206872
0.0218696
0.0230964
0.0243688
0.025688
0.0270551
0.0284712
0.0299375
0.031455
0.0330248
0.0346477
0.0363248
0.0380567
0.0398443
0.041688
0.0435883
0.0455455
0.0475597
0.0496308
0.0517585
0.0539421
0.056181
0.0584738
0.0608193
0.0632155
0.0656603
0.0681511
0.0706849
0.0732583
0.0758675
0.078508
0.081175
0.0838631
0.0865665
0.0892789
0.0919936
0.0947031
0.0973999
0.100076
0.102723
0.105331
0.107893
0.110398
0.112838
0.115202
0.117483
0.119671
0.121758
0.123734
0.125593
0.127327
0.12893
0.130398
0.131724
0.132906
0.133942
0.13483
0.135572
0.136167
0.13662
0.136933
0.137113
0.137164
0.137094
0.136911
0.136624
0.13624
0.135771
0.135224
0.134608
0.133934
0.133208
0.132439
0.13163
0.130795
0.129939
0.128992
0.127886
0.00383597
0.00338415
0.00299998
0.0026561
0.00232182
0.00199904
0.00168994
0.00139441
0.0011123
0.000843627
0.000588398
0.000346587
0.000118139
-9.70407e-05
-0.00029909
-0.000488187
-0.000664527
-0.000828313
-0.000979744
-0.00111903
-0.00124639
-0.00136205
-0.00146621
-0.00155903
-0.00164067
-0.00171121
-0.00177077
-0.0018194
-0.00185716
-0.00188406
-0.00190008
-0.00190514
-0.00189914
-0.00188196
-0.00185345
-0.00181345
-0.00176177
-0.0016982
-0.00162248
-0.00153432
-0.00143344
-0.00131951
-0.00119221
-0.00105123
-0.000896196
-0.000726751
-0.000542497
-0.000343022
-0.000127903
0.000103294
0.000351005
0.000615675
0.000897764
0.00119775
0.00151612
0.00185339
0.00221009
0.00258678
0.002984
0.00340235
0.00384242
0.0043048
0.00479014
0.00529908
0.00583231
0.00639054
0.00697451
0.00758498
0.00822276
0.00888864
0.00958345
0.0103081
0.0110633
0.0118502
0.0126696
0.0135224
0.0144098
0.0153326
0.016292
0.017289
0.0183248
0.0194005
0.0205172
0.021676
0.0228783
0.024125
0.0254175
0.0267568
0.0281442
0.0295808
0.0310678
0.0326061
0.0341969
0.0358411
0.0375396
0.0392933
0.0411027
0.0429686
0.0448913
0.046871
0.0489078
0.0510017
0.0531521
0.0553585
0.0576199
0.0599351
0.0623025
0.0647201
0.0671855
0.069696
0.0722485
0.0748391
0.0774637
0.0801177
0.0827959
0.0854926
0.0882016
0.0909163
0.0936294
0.0963334
0.0990201
0.101681
0.104308
0.10689
0.10942
0.111888
0.114283
0.116597
0.118821
0.120945
0.12296
0.12486
0.126635
0.128279
0.129788
0.131154
0.132375
0.133448
0.134372
0.135145
0.13577
0.136248
0.136582
0.136778
0.136842
0.136779
0.136597
0.136305
0.135912
0.135426
0.134856
0.134212
0.133503
0.132736
0.131918
0.131055
0.130159
0.129239
0.128216
0.127018
0.00420616
0.00370549
0.00328311
0.0029085
0.00254722
0.0022011
0.00187228
0.00156029
0.00126468
0.000985154
0.000721433
0.000473206
0.000240136
2.18639e-05
-0.000181996
-0.000371836
-0.000548037
-0.000710972
-0.000861008
-0.00099851
-0.00112384
-0.00123731
-0.00133922
-0.00142979
-0.00150924
-0.00157773
-0.0016354
-0.00168236
-0.00171868
-0.00174439
-0.00175945
-0.0017638
-0.00175734
-0.00173995
-0.00171148
-0.00167177
-0.00162061
-0.00155777
-0.00148298
-0.00139595
-0.00129636
-0.00118392
-0.00105828
-0.000919124
-0.000766086
-0.00059879
-0.00041684
-0.000219826
-7.33183e-06
0.000221064
0.000465787
0.000727268
0.00100595
0.0013023
0.00161679
0.00194992
0.00230219
0.00267412
0.00306625
0.00347913
0.0039133
0.00436935
0.00484787
0.00534949
0.00587484
0.0064246
0.00699948
0.00760019
0.0082275
0.00888215
0.00956495
0.0102767
0.0110182
0.0117904
0.0125942
0.0134305
0.0143002
0.0152044
0.0161441
0.0171204
0.0181343
0.0191869
0.0202795
0.0214131
0.0225889
0.0238082
0.0250722
0.0263819
0.0277388
0.0291438
0.0305983
0.0321034
0.0336601
0.0352697
0.036933
0.0386511
0.0404247
0.0422545
0.0441411
0.0460849
0.0480862
0.050145
0.0522611
0.0544341
0.0566633
0.0589476
0.0612857
0.0636758
0.0661158
0.0686032
0.071135
0.0737077
0.0763173
0.0789595
0.0816292
0.0843209
0.0870285
0.0897456
0.092465
0.0951791
0.0978799
0.100559
0.103207
0.105816
0.108375
0.110875
0.113306
0.115659
0.117924
0.120091
0.122151
0.124097
0.125919
0.127611
0.129166
0.130579
0.131844
0.13296
0.133923
0.134734
0.135391
0.135898
0.136257
0.136473
0.13655
0.136495
0.136316
0.13602
0.135617
0.135114
0.134521
0.133847
0.133102
0.132292
0.131425
0.130509
0.129553
0.128568
0.127471
0.126184
0.00455724
0.00400807
0.00354759
0.00314216
0.00275364
0.00238381
0.00203476
0.00170576
0.00139602
0.00110497
0.000832051
0.000576667
0.000338207
0.00011606
-9.03873e-05
-0.000281724
-0.000458518
-0.000621319
-0.000770667
-0.000907078
-0.00103103
-0.00114294
-0.00124317
-0.00133205
-0.00140983
-0.00147676
-0.00153302
-0.00157875
-0.00161404
-0.00163893
-0.00165338
-0.00165735
-0.00165073
-0.00163342
-0.00160527
-0.0015661
-0.0015157
-0.0014538
-0.00138015
-0.00129443
-0.00119634
-0.00108556
-0.000961779
-0.000824637
-0.000673777
-0.000508818
-0.000329364
-0.000135014
7.46393e-05
0.000300004
0.00054149
0.000799515
0.00107451
0.00136692
0.0016772
0.00200583
0.00235328
0.00272004
0.00310661
0.00351352
0.00394127
0.00439041
0.0048615
0.00535512
0.00587188
0.00641242
0.0069774
0.0075675
0.00818342
0.00882588
0.00949563
0.0101934
0.0109201
0.0116765
0.0124634
0.0132818
0.0141326
0.0150167
0.0159353
0.0168892
0.0178796
0.0189076
0.0199744
0.0210811
0.0222288
0.0234189
0.0246524
0.0259308
0.0272552
0.0286268
0.030047
0.031517
0.0330379
0.034611
0.0362373
0.037918
0.0396539
0.041446
0.0432949
0.0452013
0.0471656
0.049188
0.0512685
0.053407
0.055603
0.0578555
0.0601636
0.0625257
0.0649399
0.067404
0.0699152
0.0724702
0.0750654
0.0776965
0.0803587
0.0830467
0.0857546
0.088476
0.0912039
0.0939307
0.0966485
0.0993487
0.102022
0.10466
0.107253
0.10979
0.112262
0.114659
0.11697
0.119186
0.121298
0.123295
0.125171
0.126916
0.128524
0.129989
0.131305
0.132469
0.133478
0.13433
0.135026
0.135566
0.135953
0.136191
0.136285
0.136241
0.136066
0.135768
0.135354
0.134835
0.134219
0.133515
0.132733
0.13188
0.130965
0.129994
0.128979
0.127931
0.126761
0.125389
0.00488477
0.0042875
0.0037891
0.00335287
0.00293698
0.00254319
0.00217359
0.00182716
0.00150282
0.00119973
0.00091704
0.000653878
0.000409381
0.000182698
-2.69896e-05
-0.00022047
-0.000398504
-0.000561825
-0.000711137
-0.000847089
-0.000970264
-0.00108118
-0.00118029
-0.00126799
-0.00134462
-0.00141047
-0.00146577
-0.00151069
-0.00154534
-0.00156976
-0.00158394
-0.00158783
-0.00158136
-0.0015644
-0.00153682
-0.00149842
-0.00144897
-0.00138822
-0.00131587
-0.00123164
-0.00113521
-0.00102627
-0.000904479
-0.000769497
-0.000620956
-0.000458476
-0.000281666
-9.01341e-05
0.000116512
0.000338666
0.000576722
0.000831082
0.00110216
0.00139039
0.00169619
0.00202002
0.00236232
0.00272355
0.00310418
0.00350468
0.00392555
0.00436727
0.00483038
0.00531542
0.00582295
0.00635358
0.00690792
0.0074866
0.00809029
0.00871966