/*--------------------------------*- C++ -*----------------------------------*\
  =========                 |
  \\      /  F ield         | OpenFOAM: The Open Source CFD Toolbox
   \\    /   O peration     | Website:  https://openfoam.org
    \\  /    A nd           | Version:  7
     \\/     M anipulation  |
\*---------------------------------------------------------------------------*/
FoamFile
{
    version     2.0;
    format      ascii;
    class       volScalarField;
    location    "0.475";
    object      p;
}
// * * * * * * * * * * * * * * * * * * * * * * * * * * * * * * * * * * * * * //

dimensions      [0 2 -2 0 0 0 0];

internalField   nonuniform List<scalar> 
12800
(
-1.68078e-06
0.000179149
-0.000906328
-0.00335071
-0.00690898
-0.0113343
-0.0163934
-0.0218729
-0.0275861
-0.0333727
-0.0390966
-0.0446423
-0.0499126
-0.0548258
-0.0593142
-0.0633215
-0.0668021
-0.0697193
-0.0720441
-0.0737548
-0.0748357
-0.0752762
-0.0750706
-0.0742173
-0.0727181
-0.070578
-0.0678048
-0.0644083
-0.0604004
-0.0557947
-0.0506062
-0.0448509
-0.0385457
-0.0317082
-0.0243565
-0.0165092
-0.008185
0.000597435
0.00981934
0.0194621
0.0295074
0.0399372
0.0507337
0.0618798
0.0733586
0.0851538
0.0972497
0.109631
0.122284
0.135193
0.148346
0.16173
0.175333
0.189143
0.203149
0.217342
0.231711
0.246247
0.260942
0.275788
0.290777
0.305902
0.321157
0.336536
0.352034
0.367644
0.383363
0.399186
0.415108
0.431127
0.447239
0.46344
0.479728
0.4961
0.512553
0.529085
0.545694
0.562377
0.579133
0.595958
0.612852
0.629811
0.646834
0.663918
0.681061
0.698259
0.71551
0.732811
0.750158
0.767547
0.784975
0.802436
0.819925
0.837436
0.854965
0.872503
0.890044
0.907579
0.925099
0.942597
0.96006
0.977478
0.994839
1.01213
1.02934
1.04645
1.06345
1.08031
1.09703
1.11359
1.12995
1.14611
1.16205
1.17773
1.19314
1.20825
1.22304
1.23748
1.25155
1.26521
1.27844
1.29121
1.3035
1.31527
1.32649
1.33714
1.34719
1.35662
1.36538
1.37347
1.38085
1.3875
1.39341
1.39855
1.4029
1.40646
1.40921
1.41115
1.41228
1.41259
1.41211
1.41083
1.4088
1.40602
1.40254
1.39841
1.39367
1.38841
1.38269
1.37662
1.37031
1.36389
1.35752
1.35139
1.34569
1.34069
1.33664
1.33383
1.33255
1.33272
-0.000185052
-2.1377e-06
-0.00100522
-0.00313773
-0.00617584
-0.00994413
-0.0142688
-0.0189793
-0.0239189
-0.0289484
-0.0339458
-0.0388049
-0.0434345
-0.0477567
-0.0517056
-0.0552257
-0.0582713
-0.0608048
-0.0627959
-0.0642213
-0.0650631
-0.0653088
-0.0649505
-0.063984
-0.0624088
-0.0602276
-0.0574456
-0.0540703
-0.0501113
-0.0455799
-0.0404888
-0.0348518
-0.0286838
-0.0220005
-0.0148181
-0.00715319
0.000977108
0.00955571
0.0185654
0.027989
0.0378094
0.0480099
0.0585739
0.0694852
0.0807278
0.0922865
0.104146
0.116293
0.128712
0.14139
0.154315
0.167473
0.180854
0.194447
0.208239
0.222222
0.236386
0.250722
0.265221
0.279875
0.294677
0.30962
0.324697
0.339902
0.355229
0.370673
0.38623
0.401893
0.41766
0.433526
0.449487
0.46554
0.481682
0.497909
0.514219
0.530609
0.547075
0.563616
0.580229
0.596912
0.613661
0.630475
0.64735
0.664284
0.681273
0.698316
0.715407
0.732544
0.749723
0.766939
0.784189
0.801466
0.818765
0.836081
0.853407
0.870736
0.88806
0.905371
0.922661
0.939919
0.957136
0.9743
0.991399
1.00842
1.02535
1.04218
1.05888
1.07545
1.09186
1.1081
1.12415
1.13999
1.1556
1.17095
1.18603
1.2008
1.21526
1.22936
1.2431
1.25643
1.26934
1.2818
1.29378
1.30525
1.3162
1.32658
1.33638
1.34558
1.35414
1.36204
1.36927
1.3758
1.38161
1.38669
1.39103
1.39461
1.39743
1.39948
1.40077
1.4013
1.40108
1.40013
1.39847
1.39614
1.39316
1.38958
1.38547
1.38089
1.37591
1.37062
1.36515
1.3596
1.35411
1.34886
1.34401
1.33977
1.33632
1.33389
1.33271
1.33288
0.000898679
0.00100171
-2.04022e-06
-0.00198647
-0.00473637
-0.00810953
-0.0119657
-0.0161632
-0.0205686
-0.0250604
-0.0295298
-0.0338804
-0.0380276
-0.0418984
-0.0454301
-0.048569
-0.0512705
-0.0534971
-0.0552187
-0.0564108
-0.0570549
-0.0571371
-0.056648
-0.0555821
-0.0539371
-0.0517139
-0.0489161
-0.0455494
-0.0416217
-0.0371424
-0.0321225
-0.0265744
-0.0205111
-0.0139468
-0.00689614
0.000625525
0.00860264
0.0170194
0.0258597
0.0351076
0.0447472
0.0547626
0.0651383
0.0758587
0.086909
0.0982745
0.109941
0.121894
0.134121
0.146609
0.159344
0.172317
0.185513
0.198924
0.212539
0.226346
0.240338
0.254506
0.26884
0.283333
0.297977
0.312765
0.327691
0.342748
0.357931
0.373234
0.388651
0.404179
0.419812
0.435546
0.451378
0.467304
0.483319
0.499422
0.515607
0.531874
0.548217
0.564635
0.581125
0.597684
0.614308
0.630996
0.647743
0.664547
0.681405
0.698312
0.715266
0.732263
0.749297
0.766365
0.783462
0.800583
0.81772
0.83487
0.852024
0.869176
0.886318
0.903441
0.920536
0.937594
0.954604
0.971556
0.988437
1.00523
1.02193
1.03852
1.05499
1.07131
1.08747
1.10345
1.11924
1.13482
1.15016
1.16524
1.18005
1.19456
1.20874
1.22258
1.23605
1.24912
1.26177
1.27398
1.28572
1.29696
1.30768
1.31786
1.32747
1.33648
1.34489
1.35265
1.35977
1.3662
1.37195
1.377
1.38133
1.38494
1.38782
1.38998
1.3914
1.39211
1.39211
1.39142
1.39007
1.38808
1.38549
1.38235
1.37872
1.37465
1.37022
1.36552
1.36065
1.35571
1.35084
1.34618
1.34187
1.33808
1.33497
1.33271
1.33154
1.3316
0.00334443
0.00313732
0.00198073
-8.8971e-06
-0.00265222
-0.00582561
-0.00940912
-0.0132821
-0.0173298
-0.021446
-0.0255341
-0.0295074
-0.0332887
-0.0368105
-0.040014
-0.0428487
-0.0452715
-0.0472465
-0.0487439
-0.0497397
-0.0502148
-0.050155
-0.0495501
-0.0483936
-0.0466823
-0.0444158
-0.0415965
-0.0382288
-0.0343192
-0.0298759
-0.0249086
-0.0194281
-0.0134465
-0.00697638
-3.13953e-05
0.00737443
0.0152266
0.0235105
0.032211
0.0413131
0.0508018
0.0606622
0.0708795
0.081439
0.0923263
0.103528
0.115029
0.126817
0.13888
0.151203
0.163776
0.176587
0.189624
0.202878
0.216337
0.229992
0.243833
0.257853
0.272042
0.286392
0.300897
0.315548
0.33034
0.345266
0.360319
0.375496
0.390789
0.406195
0.421708
0.437324
0.453039
0.468849
0.48475
0.50074
0.516813
0.532967
0.549199
0.565505
0.581883
0.598329
0.61484
0.631413
0.648044
0.664731
0.681469
0.698255
0.715085
0.731954
0.748859
0.765794
0.782754
0.799734
0.816728
0.83373
0.850731
0.867727
0.884707
0.901664
0.918589
0.935471
0.952301
0.969068
0.985758
1.00236
1.01886
1.03525
1.0515
1.06761
1.08356
1.09932
1.11489
1.13024
1.14536
1.16022
1.1748
1.18908
1.20304
1.21665
1.2299
1.24276
1.2552
1.2672
1.27874
1.28979
1.30034
1.31035
1.3198
1.32868
1.33696
1.34462
1.35165
1.35802
1.36373
1.36875
1.37309
1.37673
1.37967
1.38192
1.38346
1.38432
1.38451
1.38404
1.38293
1.38122
1.37895
1.37616
1.37289
1.36922
1.36521
1.36094
1.3565
1.352
1.34754
1.34324
1.33925
1.33569
1.33271
1.33045
1.3291
1.3288
0.00691487
0.0061873
0.00473397
0.00262233
-3.16068e-05
-0.00312181
-0.00654521
-0.0102001
-0.0139886
-0.017819
-0.0216065
-0.0252738
-0.0287518
-0.0319788
-0.0349007
-0.0374704
-0.0396476
-0.0413981
-0.0426932
-0.0435097
-0.0438288
-0.0436361
-0.0429211
-0.0416768
-0.0398992
-0.0375872
-0.0347421
-0.0313674
-0.0274685
-0.0230524
-0.0181277
-0.0127042
-0.00679261
-0.000404662
0.00644724
0.0137501
0.0214905
0.0296546
0.0382285
0.0471981
0.0565491
0.0662674
0.0763389
0.0867499
0.0974865
0.108535
0.119883
0.131518
0.143426
0.155596
0.168016
0.180675
0.193561
0.206666
0.219977
0.233487
0.247186
0.261064
0.275114
0.289329
0.303699
0.318219
0.332882
0.347681
0.36261
0.377663
0.392836
0.408123
0.423519
0.43902
0.454621
0.470318
0.486108
0.501986
0.517949
0.533994
0.550116
0.566313
0.58258
0.598916
0.615315
0.631776
0.648293
0.664864
0.681485
0.698152
0.714861
0.731606
0.748385
0.76519
0.782018
0.798862
0.815717
0.832575
0.84943
0.866275
0.8831
0.899898
0.91666
0.933375
0.950034
0.966625
0.983136
0.999555
1.01587
1.03206
1.04812
1.06403
1.07978
1.09534
1.11071
1.12585
1.14076
1.15541
1.16978
1.18385
1.19761
1.21102
1.22406
1.23673
1.24898
1.2608
1.27216
1.28305
1.29343
1.30329
1.31262
1.32137
1.32955
1.33712
1.34407
1.35039
1.35606
1.36108
1.36543
1.36911
1.37211
1.37444
1.3761
1.3771
1.37746
1.37718
1.3763
1.37484
1.37285
1.37035
1.3674
1.36406
1.36039
1.35647
1.35237
1.34819
1.34403
1.33999
1.33618
1.33272
1.32973
1.32734
1.32565
1.32475
0.0113739
0.00998426
0.00812205
0.00578962
0.00302544
-8.11476e-05
-0.00344162
-0.0069715
-0.0105886
-0.0142142
-0.0177749
-0.021203
-0.0244368
-0.0274211
-0.0301068
-0.0324506
-0.0344153
-0.035969
-0.0370846
-0.0377399
-0.037917
-0.0376017
-0.0367837
-0.0354556
-0.0336131
-0.0312546
-0.0283806
-0.024994
-0.0210992
-0.0167024
-0.0118113
-0.00643456
-0.000582105
0.00573536
0.0125064
0.0197189
0.0273604
0.0354181
0.0438787
0.052729
0.0619555
0.0715449
0.0814838
0.0917591
0.102358
0.113266
0.124473
0.135965
0.14773
0.159757
0.172035
0.184552
0.197298
0.210262
0.223436
0.236808
0.250372
0.264117
0.278036
0.292121
0.306364
0.320759
0.335298
0.349975
0.364785
0.379721
0.394777
0.40995
0.425233
0.440622
0.456113
0.471701
0.487382
0.503153
0.519009
0.534946
0.550961
0.567051
0.583211
0.599439
0.61573
0.632081
0.648488
0.664947
0.681454
0.698005
0.714596
0.731222
0.747878
0.764558
0.781258
0.797972
0.814693
0.831414
0.848129
0.864829
0.881508
0.898155
0.914762
0.93132
0.947817
0.964242
0.980585
0.996832
1.01297
1.02899
1.04487
1.06059
1.07615
1.09153
1.1067
1.12166
1.13638
1.15083
1.16502
1.1789
1.19247
1.2057
1.21857
1.23105
1.24314
1.25479
1.266
1.27674
1.28699
1.29672
1.30593
1.31458
1.32267
1.33017
1.33706
1.34334
1.34899
1.35401
1.35838
1.36209
1.36516
1.36757
1.36934
1.37047
1.37098
1.37088
1.37019
1.36895
1.36719
1.36494
1.36226
1.35919
1.3558
1.35214
1.3483
1.34436
1.34039
1.33649
1.33276
1.32929
1.32618
1.32353
1.32138
1.31973
0.0165003
0.0143633
0.0120118
0.00937913
0.00642145
0.00321332
-0.000168991
-0.00365651
-0.00718105
-0.0106762
-0.0140789
-0.0173303
-0.0203766
-0.0231687
-0.0256625
-0.0278192
-0.0296048
-0.0309898
-0.0319494
-0.0324627
-0.0325129
-0.0320865
-0.0311735
-0.0297667
-0.0278618
-0.0254566
-0.0225516
-0.0191488
-0.0152522
-0.0108674
-0.00600108
-0.000661377
0.00514269
0.0114012
0.0181035
0.0252385
0.0327942
0.0407588
0.0491197
0.0578645
0.0669804
0.0764547
0.0862746
0.0964277
0.106901
0.117683
0.128761
0.140123
0.151758
0.163654
0.175801
0.188187
0.200802
0.213637
0.226682
0.239928
0.253365
0.266986
0.280782
0.294745
0.308868
0.323145
0.337567
0.352129
0.366825
0.381649
0.396595
0.411659
0.426834
0.442116
0.457501
0.472985
0.488562
0.504228
0.519981
0.535815
0.551727
0.567714
0.583771
0.599894
0.61608
0.632325
0.648625
0.664976
0.681374
0.697814
0.714292
0.730803
0.747341
0.763902
0.780481
0.79707
0.813663
0.830255
0.846837
0.863401
0.879941
0.896447
0.912909
0.929318
0.945665
0.961936
0.978122
0.99421
1.01019
1.02604
1.04175
1.05731
1.0727
1.08791
1.10291
1.1177
1.13224
1.14653
1.16054
1.17426
1.18766
1.20073
1.21344
1.22577
1.23771
1.24922
1.2603
1.27091
1.28104
1.29067
1.29978
1.30835
1.31636
1.3238
1.33066
1.33691
1.34255
1.34757
1.35196
1.35572
1.35884
1.36134
1.3632
1.36445
1.36509
1.36514
1.36463
1.36357
1.362
1.35997
1.35749
1.35464
1.35145
1.348
1.34434
1.34054
1.33667
1.33283
1.32907
1.32549
1.32217
1.31919
1.31649
1.31399
0.0220927
0.0191628
0.0162685
0.013276
0.0100597
0.00668178
0.00320823
-0.000305739
-0.00380456
-0.00723277
-0.010537
-0.0136671
-0.0165761
-0.0192211
-0.0215635
-0.0235685
-0.0252057
-0.0264484
-0.0272741
-0.0276636
-0.0276015
-0.0270752
-0.0260753
-0.0245952
-0.0226304
-0.0201791
-0.0172413
-0.0138189
-0.00991548
-0.00553597
-0.000686687
0.00462494
0.0103905
0.0166008
0.0232458
0.030315
0.0377974
0.0456815
0.0539557
0.062608
0.0716264
0.0809987
0.0907128
0.100757
0.111118
0.121786
0.132747
0.143992
0.155508
0.167285
0.179311
0.191577
0.204073
0.216789
0.229715
0.242842
0.256163
0.269667
0.283348
0.297198
0.311209
0.325374
0.339686
0.35414
0.368729
0.383447
0.398288
0.413248
0.42832
0.4435
0.458784
0.474167
0.489644
0.505211
0.520865
0.5366
0.552413
0.5683
0.584257
0.60028
0.616365
0.632509
0.648706
0.664953
0.681246
0.697579
0.713948
0.730349
0.746776
0.763223
0.779685
0.796156
0.812629
0.829097
0.845554
0.861991
0.8784
0.894773
0.9111
0.927371
0.943577
0.959707
0.975748
0.991689
1.00752
1.02322
1.03878
1.05419
1.06943
1.08448
1.09933
1.11396
1.12835
1.14249
1.15635
1.16992
1.18318
1.1961
1.20867
1.22087
1.23268
1.24408
1.25504
1.26554
1.27558
1.28512
1.29415
1.30265
1.31061
1.31801
1.32483
1.33106
1.3367
1.34173
1.34615
1.34996
1.35314
1.35571
1.35766
1.35902
1.35978
1.35996
1.35959
1.35869
1.35728
1.35541
1.3531
1.35041
1.34738
1.34405
1.3405
1.33678
1.33294
1.32907
1.32521
1.32144
1.31783
1.31445
1.31115
1.30777
0.027976
0.0242343
0.0207648
0.0173703
0.0138466
0.0102454
0.00662492
0.00302814
-0.000500598
-0.00391569
-0.00717265
-0.010229
-0.0130448
-0.015583
-0.0178099
-0.0196953
-0.021212
-0.0223366
-0.0230488
-0.0233315
-0.0231707
-0.0225552
-0.0214764
-0.0199281
-0.0179064
-0.0154097
-0.0124379
-0.00899295
-0.00507804
-0.0006979
0.00414156
0.00943337
0.0151696
0.0213416
0.02794
0.0349547
0.0423754
0.0501911
0.0583908
0.0669631
0.0758965
0.0851794
0.0948002
0.104747
0.115009
0.125575
0.136432
0.147571
0.158979
0.170648
0.182565
0.194722
0.207109
0.219715
0.232532
0.24555
0.258762
0.272159
0.285734
0.299477
0.313383
0.327445
0.341654
0.356006
0.370494
0.385111
0.399853
0.414714
0.429689
0.444773
0.45996
0.475247
0.490629
0.506101
0.521659
0.537299
0.553017
0.568809
0.58467
0.600597
0.616585
0.632631
0.64873
0.664877
0.681069
0.6973
0.713566
0.729862
0.746182
0.762521
0.778872
0.795231
0.81159
0.827942
0.844281
0.860598
0.876885
0.893133
0.909334
0.925477
0.941554
0.957551
0.973459
0.989266
1.00496
1.02052
1.03595
1.05122
1.06632
1.08123
1.09594
1.11043
1.12469
1.13869
1.15242
1.16586
1.17899
1.1918
1.20425
1.21634
1.22804
1.23933
1.2502
1.26062
1.27057
1.28004
1.28901
1.29746
1.30538
1.31275
1.31955
1.32578
1.33143
1.33648
1.34093
1.34478
1.34802
1.35066
1.3527
1.35415
1.35501
1.35531
1.35506
1.35429
1.35301
1.35127
1.34909
1.34651
1.34358
1.34033
1.33683
1.33312
1.32925
1.32528
1.32127
1.31725
1.3133
1.30948
1.30554
1.30126
0.0339991
0.0294454
0.0253842
0.0215596
0.0176926
0.0138276
0.0100161
0.00629075
0.00268611
-0.000761051
-0.0040142
-0.00703804
-0.009799
-0.0122657
-0.0144092
-0.0162035
-0.017625
-0.0186534
-0.0192709
-0.0194625
-0.0192158
-0.018521
-0.0173706
-0.0157591
-0.0136835
-0.0111421
-0.00813532
-0.00466503
-0.000734467
0.00365182
0.00848818
0.0137679
0.0194836
0.0256268
0.0321886
0.0391595
0.0465295
0.0542884
0.0624254
0.0709297
0.0797902
0.088996
0.0985357
0.108398
0.118573
0.129048
0.139813
0.150857
0.16217
0.173741
0.18556
0.197618
0.209905
0.222412
0.235129
0.248048
0.261161
0.274459
0.287935
0.30158
0.315389
0.329353
0.343467
0.357723
0.372116
0.38664
0.401288
0.416057
0.430939
0.445931
0.461027
0.476223
0.491514
0.506895
0.522362
0.537912
0.553539
0.569239
0.585009
0.600844
0.61674
0.632692
0.648696
0.664749
0.680844
0.696978
0.713145
0.729341
0.745559
0.761795
0.778043
0.794295
0.810547
0.82679
0.843017
0.859222
0.875394
0.891527
0.907611
0.923636
0.939592
0.955469
0.971255
0.986939
1.00251
1.01795
1.03325
1.04839
1.06337
1.07816
1.09275
1.10712
1.12126
1.13514
1.14876
1.16209
1.17511
1.18781
1.20017
1.21216
1.22377
1.23498
1.24577
1.25612
1.26601
1.27543
1.28436
1.29277
1.30066
1.30802
1.31482
1.32105
1.32671
1.33179
1.33628
1.34017
1.34348
1.34618
1.3483
1.34983
1.35079
1.35119
1.35104
1.35037
1.34919
1.34754
1.34545
1.34295
1.34007
1.33686
1.33336
1.32961
1.32566
1.32155
1.31732
1.31301
1.30868
1.30439
1.2998
1.29462
0.0400333
0.0346787
0.0300209
0.0257489
0.0215141
0.0173548
0.0133182
0.00942796
0.00570994
0.00219326
-0.00109267
-0.00411909
-0.00685829
-0.00928412
-0.0113723
-0.0131008
-0.0144497
-0.0154016
-0.0159412
-0.0160558
-0.0157348
-0.0149698
-0.0137545
-0.0120846
-0.00995738
-0.00737206
-0.00432928
-0.000831108
0.0031191
0.00751681
0.0123565
0.0176316
0.0233349
0.0294584
0.0359934
0.0429307
0.050261
0.057974
0.0660597
0.0745076
0.0833071
0.0924475
0.101918
0.111708
0.121806
0.132203
0.142887
0.153848
0.165076
0.176561
0.188293
0.200263
0.21246
0.224877
0.237504
0.250333
0.263355
0.276563
0.289948
0.303504
0.317222
0.331097
0.345122
0.35929
0.373594
0.38803
0.402591
0.417272
0.432068
0.446973
0.461983
0.477092
0.492297
0.507592
0.522974
0.538437
0.553977
0.569591
0.585273
0.60102
0.616827
0.63269
0.648605
0.664566
0.68057
0.696611
0.712685
0.728785
0.744908
0.761047
0.777195
0.793348
0.809498
0.825639
0.841763
0.857862
0.873929
0.889955
0.90593
0.921846
0.937693
0.953459
0.969134
0.984706
1.00016
1.01549
1.03068
1.04572
1.06058
1.07526
1.08974
1.10401
1.11804
1.13183
1.14535
1.15858
1.17152
1.18413
1.19641
1.20832
1.21986
1.23101
1.24174
1.25204
1.26189
1.27127
1.28017
1.28856
1.29644
1.30379
1.3106
1.31685
1.32253
1.32764
1.33218
1.33612
1.33948
1.34225
1.34444
1.34605
1.34709
1.34757
1.34751
1.34692
1.34582
1.34424
1.34221
1.33974
1.33689
1.33367
1.33013
1.3263
1.32222
1.31793
1.31345
1.30882
1.30408
1.29929
1.29405
1.288
0.0459679
0.039831
0.0345796
0.0298516
0.0252329
0.0207578
0.0164703
0.0123867
0.00852528
0.00490849
0.00155941
-0.00149905
-0.00424457
-0.00665586
-0.00871303
-0.0103978
-0.0116938
-0.0125863
-0.013063
-0.0131132
-0.0127281
-0.011901
-0.0106269
-0.00890238
-0.00672583
-0.00409699
-0.00101702
0.00251165
0.00648545
0.0108997
0.015749
0.0210266
0.0267256
0.0328382
0.0393558
0.0462696
0.0535704
0.0612485
0.069294
0.0776969
0.0864468
0.0955334
0.104946
0.114675
0.124709
0.135039
0.145653
0.156543
0.167697
0.179106
0.190762
0.202653
0.214771
0.227108
0.239654
0.252402
0.265342
0.278468
0.291771
0.305245
0.318881
0.332674
0.346617
0.360702
0.374925
0.389279
0.403759
0.418359
0.433073
0.447897
0.462826
0.477854
0.492978
0.508192
0.523491
0.538873
0.554331
0.569862
0.585461
0.601125
0.616848
0.632626
0.648455
0.664331
0.680247
0.6962
0.712185
0.728196
0.744228
0.760275
0.776331
0.79239
0.808445
0.82449
0.840517
0.856519
0.872488
0.888415
0.904291
0.920106
0.935852
0.951518
0.967092
0.982564
0.997921
1.01315
1.02824
1.04318
1.05795
1.07253
1.08692
1.1011
1.11505
1.12875
1.14219
1.15534
1.1682
1.18075
1.19296
1.20482
1.2163
1.2274
1.23809
1.24836
1.25818
1.26754
1.27643
1.28482
1.2927
1.30006
1.30688
1.31316
1.31888
1.32403
1.32861
1.33261
1.33603
1.33886
1.34112
1.3428
1.34391
1.34446
1.34447
1.34394
1.3429
1.34137
1.33936
1.33691
1.33405
1.33079
1.32718
1.32323
1.31899
1.31448
1.30973
1.30475
1.29959
1.2943
1.28842
1.28152
0.0517076
0.0448112
0.0389747
0.0337883
0.0287765
0.023971
0.019414
0.0151153
0.011087
0.00734553
0.00390853
0.000793635
-0.00198171
-0.00440069
-0.00644745
-0.00810739
-0.00936734
-0.0102156
-0.0106423
-0.0106388
-0.0101986
-0.00931627
-0.00798833
-0.00621257
-0.00398824
-0.00131589
0.00180273
0.00536472
0.00936617
0.0138022
0.0186672
0.0239545
0.0296571
0.0357673
0.0422768
0.0491768
0.0564584
0.0641121
0.0721284
0.0804973
0.0892089
0.0982531
0.10762
0.117299
0.127281
0.137554
0.14811
0.158939
0.17003
0.181375
0.192963
0.204787
0.216836
0.229102
0.241577
0.254252
0.26712
0.280172
0.293402
0.306801
0.320363
0.334081
0.347949
0.36196
0.376107
0.390386
0.404791
0.419315
0.433954
0.448702
0.463555
0.478507
0.493554
0.508692
0.523915
0.539219
0.554599
0.570052
0.585573
0.601158
0.616801
0.632499
0.648247
0.664041
0.679875
0.695745
0.711646
0.727572
0.743518
0.759479
0.775448
0.791419
0.807386
0.823342
0.83928
0.855191
0.871069
0.886905
0.90269
0.918415
0.93407
0.949644
0.965129
0.980511
0.995779
1.01092
1.02593
1.04078
1.05546
1.06997
1.08428
1.09838
1.11226
1.12589
1.13926
1.15236
1.16516
1.17765
1.18982
1.20163
1.21309
1.22415
1.23482
1.24507
1.25488
1.26423
1.27312
1.28152
1.28942
1.2968
1.30365
1.30997
1.31573
1.32093
1.32556
1.32962
1.3331
1.336
1.33832
1.34007
1.34125
1.34186
1.34192
1.34145
1.34045
1.33894
1.33694
1.33448
1.33158
1.32825
1.32454
1.32045
1.31602
1.31127
1.30622
1.30088
1.2953
1.28951
1.28299
1.27527
0.0571696
0.0495387
0.0431295
0.037487
0.0320781
0.0269333
0.0220938
0.017564
0.0133507
0.00946536
0.00592061
0.00272945
-9.50407e-05
-0.00254014
-0.00459376
-0.00624473
-0.00748297
-0.00829961
-0.0086871
-0.00863922
-0.00815112
-0.0072193
-0.00584155
-0.00401693
-0.00174571
0.000970714
0.00412987
0.00772831
0.0117617
0.0162248
0.0211117
0.0264159
0.0321301
0.0382465
0.0447569
0.0516529
0.0589253
0.0665651
0.0745627
0.0829086
0.091593
0.100606
0.109938
0.119579
0.129519
0.139748
0.150257
0.161035
0.172074
0.183365
0.194897
0.206663
0.218652
0.230858
0.243271
0.255883
0.268687
0.281674
0.294838
0.308171
0.321667
0.335318
0.349117
0.36306
0.377139
0.391349
0.405685
0.420139
0.434708
0.449386
0.464169
0.47905
0.494026
0.509092
0.524242
0.539474
0.554782
0.570161
0.585608
0.601118
0.616686
0.632308
0.64798
0.663697
0.679453
0.695245
0.711066
0.726913
0.742779
0.758659
0.774547
0.790436
0.806321
0.822194
0.838049
0.853877
0.869672
0.885425
0.901127
0.916769
0.932342
0.947836
0.96324
0.978543
0.993733
1.0088
1.02373
1.03851
1.05312
1.06756
1.08181
1.09585
1.10967
1.12324
1.13657
1.14962
1.16238
1.17484
1.18697
1.19876
1.21019
1.22125
1.23191
1.24215
1.25197
1.26134
1.27024
1.27866
1.28659
1.29401
1.3009
1.30726
1.31308
1.31833
1.32303
1.32715
1.33069
1.33366
1.33605
1.33786
1.3391
1.33976
1.33987
1.33943
1.33846
1.33696
1.33495
1.33246
1.3295
1.32609
1.32225
1.318
1.31337
1.30836
1.303
1.29728
1.29127
1.28499
1.27785
1.26935
0.0622816
0.0539422
0.0469749
0.0408819
0.035076
0.0295875
0.0244571
0.019685
0.0152734
0.0112294
0.0075614
0.00427826
0.00138909
-0.00109709
-0.00317166
-0.00482665
-0.00605492
-0.00685025
-0.00720749
-0.00712255
-0.0065925
-0.0056155
-0.00419081
-0.00231878
-7.50922e-07
0.00276094
0.00596306
0.00960152
0.0136714
0.0181672
0.0230827
0.0284109
0.0341445
0.0402758
0.0467964
0.0536979
0.0609712
0.0686074
0.0765971
0.0849309
0.0935991
0.102592
0.1119
0.121514
0.131423
0.141619
0.152091
0.162831
0.173829
0.185075
0.196562
0.20828
0.22022
0.232374
0.244735
0.257293
0.270042
0.282973
0.29608
0.309355
0.322791
0.336382
0.350121
0.364003
0.37802
0.392168
0.40644
0.420831
0.435336
0.449949
0.464667
0.479482
0.494392
0.509391
0.524475
0.539638
0.554878
0.570188
0.585566
0.601005
0.616503
0.632054
0.647654
0.663298
0.678981
0.694699
0.710447
0.726219
0.74201
0.757814
0.773626
0.78944
0.805248
0.821045
0.836824
0.852576
0.868295
0.883973
0.8996
0.915168
0.930668
0.94609
0.961423
0.976657
0.99178
1.00678
1.02165
1.03637
1.05093
1.06531
1.0795
1.0935
1.10727
1.12081
1.1341
1.14712
1.15986
1.17229
1.18441
1.19619
1.20762
1.21868
1.22934
1.2396
1.24944
1.25883
1.26777
1.27623
1.2842
1.29167
1.29862
1.30504
1.31091
1.31623
1.32099
1.32518
1.3288
1.33183
1.33429
1.33616
1.33745
1.33817
1.33832
1.33791
1.33695
1.33545
1.33342
1.33088
1.32785
1.32433
1.32035
1.31593
1.31107
1.3058
1.30012
1.29403
1.28758
1.28081
1.27308
1.26382
0.06698
0.0579582
0.0504485
0.043913
0.0377134
0.03188
0.0264542
0.0214325
0.0168132
0.0125997
0.00879679
0.00540955
0.00244359
-9.54364e-05
-0.00220211
-0.00387143
-0.00509901
-0.00588117
-0.00621506
-0.00609869
-0.00553099
-0.0045118
-0.00304186
-0.00112283
0.00124281
0.00405175
0.00729992
0.0109825
0.0150941
0.0196285
0.0245791
0.0299389
0.0357002
0.0418551
0.0483952
0.0553118
0.0625962
0.0702392
0.0782316
0.0865641
0.0952271
0.104211
0.113507
0.123104
0.132994
0.143168
0.153614
0.164326
0.175293
0.186506
0.197957
0.209637
0.221538
0.233651
0.245968
0.258481
0.271184
0.284067
0.297125
0.31035
0.323735
0.337273
0.350959
0.364786
0.378749
0.39284
0.407056
0.42139
0.435836
0.450391
0.465048
0.479804
0.494652
0.50959
0.524611
0.539712
0.554887
0.570133
0.585446
0.60082
0.616251
0.631736
0.647268
0.662844
0.678459
0.694108
0.709787
0.725489
0.74121
0.756944
0.772686
0.788429
0.804167
0.819894
0.835603
0.851286
0.866937
0.882546
0.898107
0.913609
0.929044
0.944403
0.959675
0.974849
0.989915
1.00486
1.01968
1.03435
1.04886
1.0632
1.07736
1.09132
1.10506
1.11857
1.13184
1.14485
1.15757
1.17
1.18212
1.19391
1.20535
1.21643
1.22712
1.23741
1.24728
1.25672
1.2657
1.27421
1.28224
1.28977
1.29679
1.30328
1.30922
1.31462
1.31945
1.32372
1.32741
1.33052
1.33304
1.33498
1.33633
1.33709
1.33728
1.33689
1.33594
1.33442
1.33236
1.32976
1.32664
1.32301
1.31888
1.31427
1.30918
1.30363
1.29763
1.29116
1.28429
1.27705
1.26873
1.25875
0.0712085
0.0615297
0.0534941
0.0465255
0.0399374
0.0337608
0.028038
0.0227626
0.0179296
0.0135392
0.00959293
0.00609271
0.00304093
0.000440188
-0.00170702
-0.00339844
-0.00463229
-0.00540729
-0.00572281
-0.00557888
-0.00497626
-0.00391646
-0.00240172
-0.000434992
0.00198005
0.00483907
0.0081371
0.0118686
0.0160274
0.0206069
0.0256
0.0309991
0.0367965
0.042984
0.0495529
0.0564947
0.0638002
0.0714605
0.0794664
0.0878084
0.0964772
0.105463
0.114757
0.12435
0.134232
0.144394
0.154826
0.16552
0.176467
0.187657
0.199083
0.210735
0.222606
0.234687
0.24697
0.259448
0.272113
0.284957
0.297974
0.311157
0.324498
0.337992
0.351632
0.365412
0.379326
0.393368
0.407533
0.421815
0.436209
0.450711
0.465314
0.480014
0.494807
0.509688
0.524651
0.539694
0.55481
0.569997
0.585249
0.600562
0.615932
0.631354
0.646823
0.662336
0.677887
0.693472
0.709086
0.724724
0.74038
0.756049
0.771726
0.787404
0.803078
0.818741
0.834386
0.850007
0.865595
0.881144
0.896645
0.912089
0.927468
0.942772
0.957992
0.973117
0.988136
1.00304
1.01781
1.03244
1.04692
1.06123
1.07537
1.0893
1.10303
1.11653
1.12979
1.1428
1.15553
1.16797
1.1801
1.19191
1.20338
1.21449
1.22522
1.23556
1.24548
1.25497
1.26402
1.2726
1.2807
1.28831
1.2954
1.30197
1.308
1.31349
1.31841
1.32276
1.32653
1.32971
1.33231
1.33431
1.33572
1.33653
1.33675
1.33638
1.33543
1.3339
1.3318
1.32913
1.32592
1.32216
1.31787
1.31306
1.30774
1.30191
1.29558
1.28874
1.28145
1.27374
1.26487
1.2542
0.0749165
0.0646051
0.0560601
0.0486689
0.0416991
0.0351829
0.029164
0.0236334
0.0185834
0.0140115
0.00991641
0.00629713
0.00315326
0.00048459
-0.00170905
-0.003428
-0.00467287
-0.00544467
-0.00574489
-0.00557553
-0.00493915
-0.00383889
-0.00227847
-0.000262194
0.00220507
0.00511793
0.00847047
0.0122563
0.0164686
0.0211002
0.0261434
0.0315902
0.0374326
0.0436618
0.0502694
0.0572462
0.0645834
0.0722716
0.0803017
0.0886643
0.09735
0.106349
0.115653
0.125252
0.135137
0.145298
0.155727
0.166414
0.177351
0.18853
0.19994
0.211575
0.223425
0.235484
0.247742
0.260193
0.272829
0.285643
0.298628
0.311776
0.325082
0.338538
0.352139
0.365879
0.379751
0.39375
0.407871
0.422108
0.436456
0.45091
0.465464
0.480115
0.494857
0.509685
0.524597
0.539585
0.554648
0.569779
0.584975
0.600232
0.615544
0.630908
0.646319
0.661773
0.677265
0.692791
0.708345
0.723922
0.739519
0.755128
0.770745
0.786364
0.801979
0.817584
0.833172
0.848736
0.86427
0.879764
0.895213
0.910607
0.925938
0.941196
0.956372
0.971456
0.986437
1.0013
1.01605
1.03065
1.04511
1.0594
1.07352
1.08745
1.10117
1.11467
1.12794
1.14096
1.15371
1.16617
1.17834
1.19019
1.2017
1.21286
1.22364
1.23404
1.24403
1.2536
1.26272
1.27139
1.27957
1.28727
1.29446
1.30112
1.30725
1.31283
1.31784
1.32228
1.32614
1.32941
1.33209
1.33416
1.33563
1.33649
1.33675
1.3364
1.33544
1.33389
1.33174
1.32901
1.3257
1.32181
1.31736
1.31235
1.30678
1.30068
1.29402
1.28681
1.27911
1.27095
1.26154
1.25021
0.0780587
0.0671376
0.0580993
0.0502965
0.0429529
0.0361022
0.0297899
0.0240048
0.0187368
0.0139813
0.00973426
0.00599236
0.00275258
1.21804e-05
-0.00223149
-0.00398114
-0.00523968
-0.00601027
-0.00629643
-0.00610206
-0.00543147
-0.00428943
-0.00268114
-0.000612249
0.00191117
0.00488263
0.00829524
0.0121418
0.0164146
0.0211059
0.0262074
0.0317107
0.0376072
0.043888
0.0505442
0.0575665
0.0649459
0.072673
0.0807383
0.0891326
0.0978463
0.10687
0.116195
0.125811
0.13571
0.145882
0.156318
0.16701
0.177948
0.189124
0.20053
0.212157
0.223997
0.236043
0.248286
0.260719
0.273335
0.286127
0.299087
0.312209
0.325487
0.338913
0.352483
0.366189
0.380027
0.393989
0.408072
0.42227
0.436577
0.450988
0.465499
0.480106
0.494802
0.509584
0.524447
0.539387
0.5544
0.569481
0.584626
0.59983
0.615089
0.6304
0.645757
0.661157
0.676594
0.692064
0.707563
0.723085
0.738627
0.754181
0.769744
0.785309
0.80087
0.816423
0.831959
0.847473
0.862958
0.878406
0.893809
0.90916
0.92445
0.93967
0.954811
0.969863
0.984816
0.999659
1.01438
1.02897
1.04341
1.0577
1.07182
1.08575
1.09948
1.11299
1.12628
1.13933
1.15211
1.16462
1.17683
1.18873
1.2003
1.21152
1.22238
1.23285
1.24292
1.25258
1.26179
1.27056
1.27885
1.28665
1.29394
1.30071
1.30695
1.31263
1.31776
1.3223
1.32626
1.32963
1.33239
1.33454
1.33607
1.33698
1.33728
1.33694
1.33599
1.33442
1.33222
1.32942
1.326
1.32199
1.31737
1.31216
1.30636
1.29997
1.29299
1.28542
1.27732
1.26872
1.25879
1.24682
0.0805936
0.0690842
0.0595682
0.0513648
0.0436558
0.036477
0.0298752
0.023838
0.0183531
0.0134137
0.00901397
0.00514811
0.00181082
-0.00100292
-0.00329805
-0.00507952
-0.00635238
-0.00712184
-0.00739337
-0.00717271
-0.0064659
-0.00527929
-0.00361956
-0.0014937
0.00109098
0.00412687
0.00760608
0.0115205
0.0158616
0.020621
0.0257897
0.0313588
0.0373193
0.0436618
0.0503771
0.0574557
0.0648882
0.0726652
0.080777
0.0892143
0.0979676
0.107028
0.116385
0.12603
0.135954
0.146147
0.156602
0.167308
0.178258
0.189443
0.200854
0.212483
0.224323
0.236365
0.248602
0.261027
0.273632
0.28641
0.299354
0.312458
0.325715
0.339119
0.352664
0.366344
0.380153
0.394086
0.408137
0.422301
0.436573
0.450948
0.465422
0.479989
0.494644
0.509385
0.524205
0.539101
0.554069
0.569103
0.584201
0.599357
0.614568
0.62983
0.645137
0.660487
0.675874
0.691293
0.706741
0.722213
0.737704
0.753208
0.768721
0.784237
0.799751
0.815256
0.830747
0.846217
0.861659
0.877066
0.892431
0.907746
0.923003
0.938193
0.953307
0.968335
0.983268
0.998096
1.01281
1.02739
1.04183
1.05612
1.07025
1.08419
1.09794
1.11149
1.12481
1.13789
1.15072
1.16328
1.17555
1.18752
1.19916
1.21047
1.22141
1.23198
1.24215
1.25191
1.26123
1.27011
1.27851
1.28643
1.29385
1.30074
1.3071
1.31291
1.31815
1.32281
1.32688
1.33035
1.3332
1.33544
1.33704
1.33802
1.33835
1.33804
1.33709
1.3355
1.33326
1.33039
1.32687
1.32272
1.31794
1.31253
1.30649
1.29983
1.29254
1.28461
1.27612
1.2671
1.25666
1.24407
0.0824829
0.0704051
0.0604261
0.0518329
0.0437675
0.0362673
0.0293814
0.0230957
0.0173964
0.012275
0.00772349
0.00373426
0.00029988
-0.0025868
-0.00493284
-0.00674528
-0.00803119
-0.00879776
-0.00905234
-0.00880245
-0.0080558
-0.00682032
-0.00510417
-0.00291569
-0.000263436
0.00284384
0.00639722
0.0103876
0.0148058
0.0196424
0.0248879
0.0305329
0.0365677
0.0429826
0.049768
0.056914
0.064411