/*--------------------------------*- C++ -*----------------------------------*\
  =========                 |
  \\      /  F ield         | OpenFOAM: The Open Source CFD Toolbox
   \\    /   O peration     | Website:  https://openfoam.org
    \\  /    A nd           | Version:  7
     \\/     M anipulation  |
\*---------------------------------------------------------------------------*/
FoamFile
{
    version     2.0;
    format      ascii;
    class       surfaceScalarField;
    location    "0.2875";
    object      phi;
}
// * * * * * * * * * * * * * * * * * * * * * * * * * * * * * * * * * * * * * //

dimensions      [0 3 -1 0 0 0 0];

internalField   nonuniform List<scalar> 
101920
(
3.35278e-13
6.30062e-13
-2.95238e-13
6.23018e-13
-8.20908e-13
5.34021e-13
-1.23118e-12
4.00209e-13
-1.46667e-12
2.28418e-13
-1.49105e-12
3.09296e-14
-1.29732e-12
-1.89152e-13
-8.75228e-13
-4.19504e-13
-2.3289e-13
-6.47791e-13
6.29929e-13
-8.67568e-13
1.70891e-12
-1.0796e-12
2.99489e-12
-1.28451e-12
4.4781e-12
-1.47923e-12
6.14421e-12
-1.66486e-12
7.98255e-12
-1.83938e-12
9.9844e-12
-2.00217e-12
1.21359e-11
-2.1535e-12
1.44275e-11
-2.29225e-12
1.68489e-11
-2.41974e-12
1.9388e-11
-2.5379e-12
2.20353e-11
-2.64622e-12
2.47807e-11
-2.74411e-12
2.76128e-11
-2.83234e-12
3.05216e-11
-2.91048e-12
3.34995e-11
-2.97875e-12
3.65384e-11
-3.03862e-12
3.96292e-11
-3.09041e-12
4.27641e-11
-3.13401e-12
4.59347e-11
-3.17008e-12
4.91332e-11
-3.19898e-12
5.23532e-11
-3.22041e-12
5.5588e-11
-3.23466e-12
5.88305e-11
-3.24243e-12
6.20744e-11
-3.24415e-12
6.53145e-11
-3.24016e-12
6.85455e-11
-3.23084e-12
7.17616e-11
-3.21617e-12
7.49571e-11
-3.19587e-12
7.81268e-11
-3.16999e-12
8.12667e-11
-3.13935e-12
8.43728e-11
-3.10503e-12
8.7441e-11
-3.06755e-12
9.04667e-11
-3.02643e-12
9.34456e-11
-2.98087e-12
9.63749e-11
-2.93071e-12
9.9252e-11
-2.8768e-12
1.02074e-10
-2.82033e-12
1.04837e-10
-2.76185e-12
1.07538e-10
-2.70096e-12
1.10173e-10
-2.63696e-12
1.12742e-10
-2.56977e-12
1.15241e-10
-2.50003e-12
1.1767e-10
-2.42848e-12
1.20026e-10
-2.35535e-12
1.22306e-10
-2.2805e-12
1.2451e-10
-2.20371e-12
1.26634e-10
-2.12495e-12
1.28679e-10
-2.04434e-12
1.30641e-10
-1.96216e-12
1.3252e-10
-1.87885e-12
1.34315e-10
-1.79479e-12
1.36024e-10
-1.7099e-12
1.37646e-10
-1.62369e-12
1.39181e-10
-1.53582e-12
1.40628e-10
-1.44655e-12
1.41986e-10
-1.35658e-12
1.43253e-10
-1.26652e-12
1.4443e-10
-1.1764e-12
1.45514e-10
-1.08574e-12
1.46507e-10
-9.94086e-13
1.47408e-10
-9.01334e-13
1.48216e-10
-8.07812e-13
1.48931e-10
-7.13971e-13
1.49552e-10
-6.20098e-13
1.50079e-10
-5.26205e-13
1.50511e-10
-4.32116e-13
1.50848e-10
-3.37666e-13
1.51091e-10
-2.4288e-13
1.51239e-10
-1.47956e-13
1.51291e-10
-5.30475e-14
1.51249e-10
4.18904e-14
1.51112e-10
1.36979e-13
1.5088e-10
2.3214e-13
1.50554e-10
3.27068e-13
1.50133e-10
4.21538e-13
1.49617e-10
5.157e-13
1.49006e-10
6.09937e-13
1.48302e-10
7.04359e-13
1.47504e-10
7.98549e-13
1.46613e-10
8.91944e-13
1.45629e-10
9.84458e-13
1.44552e-10
1.07656e-12
1.43383e-10
1.16864e-12
1.42122e-10
1.26041e-12
1.40772e-10
1.35119e-12
1.39332e-10
1.44069e-12
1.37802e-10
1.52926e-12
1.36185e-10
1.61741e-12
1.3448e-10
1.7051e-12
1.32689e-10
1.79176e-12
1.30813e-10
1.87681e-12
1.28853e-10
1.96019e-12
1.26811e-10
2.04216e-12
1.24687e-10
2.12295e-12
1.22485e-10
2.20245e-12
1.20204e-10
2.2804e-12
1.17848e-10
2.35649e-12
1.15418e-10
2.43052e-12
1.12917e-10
2.50236e-12
1.10345e-10
2.57198e-12
1.07706e-10
2.63935e-12
1.05002e-10
2.70436e-12
1.02235e-10
2.76671e-12
9.94095e-11
2.82605e-12
9.65273e-11
2.88217e-12
9.35919e-11
2.9351e-12
9.06066e-11
2.9849e-12
8.75753e-11
3.03135e-12
8.45018e-11
3.07397e-12
8.139e-11
3.11235e-12
7.82437e-11
3.14637e-12
7.50673e-11
3.17606e-12
7.18656e-11
3.20133e-12
6.86438e-11
3.22182e-12
6.54069e-11
3.23712e-12
6.21604e-11
3.24685e-12
5.89098e-11
3.25073e-12
5.56614e-11
3.24851e-12
5.24212e-11
3.24002e-12
4.91957e-11
3.22519e-12
4.59916e-11
3.20385e-12
4.28164e-11
3.17552e-12
3.96776e-11
3.13949e-12
3.65831e-11
3.0952e-12
3.35406e-11
3.04259e-12
3.05584e-11
2.98182e-12
2.76457e-11
2.91275e-12
2.48116e-11
2.83471e-12
2.20657e-11
2.74682e-12
1.94174e-11
2.64861e-12
1.68767e-11
2.54023e-12
1.44542e-11
2.42188e-12
1.21608e-11
2.29334e-12
1.00075e-11
2.15391e-12
8.00499e-12
2.00309e-12
6.16428e-12
1.84089e-12
4.49671e-12
1.66754e-12
3.01362e-12
1.48313e-12
1.72557e-12
1.28795e-12
6.42053e-13
1.08303e-12
-2.28395e-13
8.69936e-13
-8.78859e-13
6.50536e-13
-1.30558e-12
4.27491e-13
-1.51007e-12
2.05352e-13
-1.50177e-12
-8.06793e-15
-1.30225e-12
-1.99941e-13
-9.52616e-13
-3.502e-13
-5.2608e-13
-4.26902e-13
-1.49027e-13
-3.77297e-13
-1.48938e-13
-1.29787e-13
7.57494e-13
-8.05754e-13
1.31121e-12
-1.53949e-12
1.28165e-12
-2.04848e-12
9.18285e-13
-2.17005e-12
3.51629e-13
-1.80302e-12
-3.43932e-13
-8.85551e-13
-1.11114e-12
6.21781e-13
-1.91608e-12
2.71796e-12
-2.73574e-12
5.39823e-12
-3.54985e-12
8.655e-12
-4.34145e-12
1.24747e-11
-5.10393e-12
1.68302e-11
-5.83465e-12
2.16948e-11
-6.52903e-12
2.70407e-11
-7.18486e-12
3.28414e-11
-7.80045e-12
3.90656e-11
-8.37561e-12
4.56831e-11
-8.91029e-12
5.26645e-11
-9.40398e-12
5.99818e-11
-9.85701e-12
6.76078e-11
-1.02707e-11
7.55131e-11
-1.06461e-11
8.36697e-11
-1.09855e-11
9.20497e-11
-1.12899e-11
1.00628e-10
-1.1559e-11
1.09383e-10
-1.17934e-11
1.18289e-10
-1.19955e-11
1.27323e-10
-1.21669e-11
1.36463e-10
-1.23088e-11
1.45688e-10
-1.24224e-11
1.54977e-10
-1.25086e-11
1.6431e-10
-1.25681e-11
1.73669e-10
-1.2602e-11
1.83035e-10
-1.26118e-11
1.92393e-10
-1.25983e-11
2.01727e-10
-1.25625e-11
2.1102e-10
-1.25061e-11
2.20257e-10
-1.24306e-11
2.29423e-10
-1.23364e-11
2.38505e-10
-1.22234e-11
2.4749e-10
-1.20922e-11
2.56368e-10
-1.19446e-11
2.65126e-10
-1.17825e-11
2.73754e-10
-1.16067e-11
2.8224e-10
-1.1417e-11
2.90574e-10
-1.12132e-11
2.98749e-10
-1.09959e-11
3.06755e-10
-1.0767e-11
3.14584e-10
-1.0528e-11
3.22228e-10
-1.02795e-11
3.29679e-10
-1.00214e-11
3.36931e-10
-9.75368e-12
3.43978e-10
-9.47653e-12
3.50814e-10
-9.19082e-12
3.57432e-10
-8.89764e-12
3.63829e-10
-8.59797e-12
3.69998e-10
-8.29233e-12
3.75934e-10
-7.98073e-12
3.81633e-10
-7.66296e-12
3.87091e-10
-7.33904e-12
3.92305e-10
-7.0096e-12
3.97272e-10
-6.6757e-12
4.01989e-10
-6.33815e-12
4.06451e-10
-5.99715e-12
4.10657e-10
-5.65247e-12
4.14603e-10
-5.30408e-12
4.18287e-10
-4.95238e-12
4.21708e-10
-4.5979e-12
4.24864e-10
-4.24101e-12
4.27753e-10
-3.8818e-12
4.30373e-10
-3.52033e-12
4.32723e-10
-3.15686e-12
4.34801e-10
-2.79184e-12
4.36607e-10
-2.4256e-12
4.38138e-10
-2.05821e-12
4.39396e-10
-1.6896e-12
4.40378e-10
-1.31987e-12
4.41084e-10
-9.49341e-13
4.41515e-10
-5.78377e-13
4.41669e-10
-2.07242e-13
4.41547e-10
1.63939e-13
4.41149e-10
5.35141e-13
4.40475e-10
9.06319e-13
4.39525e-10
1.27727e-12
4.38299e-10
1.64759e-12
4.36799e-10
2.01691e-12
4.35024e-10
2.38515e-12
4.32975e-10
2.75255e-12
4.30654e-10
3.11917e-12
4.28062e-10
3.48448e-12
4.252e-10
3.84759e-12
4.22069e-10
4.208e-12
4.18671e-10
4.56607e-12
4.15008e-10
4.92234e-12
4.11081e-10
5.27669e-12
4.06895e-10
5.62816e-12
4.0245e-10
5.97577e-12
3.9775e-10
6.31918e-12
3.92797e-10
6.65863e-12
3.87593e-10
6.99418e-12
3.82144e-10
7.32537e-12
3.76453e-10
7.65153e-12
3.70523e-10
7.97219e-12
3.64359e-10
8.28705e-12
3.57965e-10
8.59581e-12
3.51348e-10
8.89797e-12
3.44511e-10
9.19299e-12
3.37461e-10
9.48037e-12
3.30205e-10
9.75955e-12
3.22748e-10
1.00299e-11
3.15097e-10
1.02908e-11
3.07259e-10
1.05417e-11
2.99242e-10
1.07825e-11
2.91055e-10
1.10122e-11
2.82707e-10
1.12301e-11
2.74207e-10
1.1435e-11
2.65565e-10
1.16264e-11
2.56791e-10
1.18039e-11
2.47897e-10
1.19671e-11
2.38894e-10
1.21148e-11
2.29794e-10
1.22459e-11
2.20611e-10
1.23595e-11
2.11357e-10
1.24547e-11
2.02047e-10
1.25309e-11
1.92697e-10
1.25869e-11
1.83321e-10
1.26218e-11
1.73936e-10
1.26346e-11
1.6456e-10
1.26241e-11
1.55211e-10
1.25894e-11
1.45907e-10
1.25292e-11
1.36667e-10
1.24425e-11
1.27513e-10
1.23285e-11
1.18465e-10
1.21861e-11
1.09547e-10
1.20137e-11
1.00781e-10
1.18096e-11
9.21908e-11
1.15726e-11
8.38008e-11
1.13019e-11
7.56365e-11
1.0997e-11
6.77248e-11
1.06567e-11
6.00932e-11
1.02797e-11
5.27695e-11
9.86453e-12
4.57816e-11
9.41036e-12
3.91585e-11
8.91651e-12
3.29294e-11
8.38233e-12
2.7124e-11
7.80738e-12
2.17715e-11
7.19195e-12
1.69001e-11
6.53717e-12
1.25377e-11
5.84458e-12
8.71005e-12
5.11608e-12
5.43926e-12
4.35485e-12
2.74259e-12
3.56669e-12
6.31069e-13
2.76084e-12
-8.93557e-13
1.9505e-12
-1.84362e-12
1.15437e-12
-2.25168e-12
3.9997e-13
-2.17915e-12
-2.71781e-13
-1.72793e-12
-8.00833e-13
-1.05373e-12
-1.10107e-12
-3.77199e-13
-1.05377e-12
-5.2623e-13
-3.19094e-13
1.08283e-12
-9.41129e-13
1.93325e-12
-1.50065e-12
1.84101e-12
-1.68235e-12
1.11456e-12
-1.29005e-12
-3.88929e-14
-1.72782e-13
-1.46503e-12
1.75882e-12
-3.05108e-12
4.56625e-12
-4.72408e-12
8.26723e-12
-6.43427e-12
1.28646e-11
-8.14262e-12
1.83438e-11
-9.82086e-12
2.46855e-11
-1.14459e-11
3.18585e-11
-1.30078e-11
3.98249e-11
-1.44976e-11
4.85455e-11
-1.59071e-11
5.79793e-11
-1.72332e-11
6.80808e-11
-1.84756e-11
7.88055e-11
-1.96334e-11
9.01083e-11
-2.07062e-11
1.01945e-10
-2.16943e-11
1.14272e-10
-2.25975e-11
1.27045e-10
-2.34185e-11
1.40221e-10
-2.41604e-11
1.53759e-10
-2.48261e-11
1.67618e-10
-2.54172e-11
1.81759e-10
-2.59351e-11
1.96145e-10
-2.63823e-11
2.10739e-10
-2.6762e-11
2.25507e-10
-2.70766e-11
2.40413e-10
-2.73282e-11
2.55426e-10
-2.75197e-11
2.70513e-10
-2.76539e-11
2.85644e-10
-2.77332e-11
3.00791e-10
-2.77596e-11
3.15927e-10
-2.77346e-11
3.31024e-10
-2.76606e-11
3.46059e-10
-2.75401e-11
3.61006e-10
-2.73764e-11
3.75843e-10
-2.71716e-11
3.90547e-10
-2.69273e-11
4.05097e-10
-2.66443e-11
4.19474e-10
-2.63241e-11
4.3366e-10
-2.59694e-11
4.47638e-10
-2.55827e-11
4.6139e-10
-2.51663e-11
4.74898e-10
-2.47212e-11
4.88149e-10
-2.4248e-11
5.01128e-10
-2.3748e-11
5.13822e-10
-2.32231e-11
5.26218e-10
-2.26755e-11
5.38305e-10
-2.21069e-11
5.5007e-10
-2.15183e-11
5.61504e-10
-2.09103e-11
5.72596e-10
-2.02837e-11
5.83337e-10
-1.96399e-11
5.93718e-10
-1.898e-11
6.03731e-10
-1.83053e-11
6.13368e-10
-1.7617e-11
6.22623e-10
-1.6916e-11
6.31487e-10
-1.62031e-11
6.39955e-10
-1.54788e-11
6.48022e-10
-1.47441e-11
6.55682e-10
-1.39997e-11
6.62932e-10
-1.32465e-11
6.69765e-10
-1.2485e-11
6.76176e-10
-1.17159e-11
6.82164e-10
-1.09398e-11
6.87723e-10
-1.01574e-11
6.92851e-10
-9.36936e-12
6.97546e-10
-8.57613e-12
7.01805e-10
-7.77814e-12
7.05624e-10
-6.97585e-12
7.09001e-10
-6.16973e-12
7.11936e-10
-5.36027e-12
7.14426e-10
-4.54797e-12
7.1647e-10
-3.73332e-12
7.18068e-10
-2.91673e-12
7.19217e-10
-2.09855e-12
7.19917e-10
-1.27913e-12
7.20168e-10
-4.58894e-13
7.19971e-10
3.61655e-13
7.19324e-10
1.18205e-12
7.18229e-10
2.00199e-12
7.16685e-10
2.82126e-12
7.14692e-10
3.63948e-12
7.12254e-10
4.45604e-12
7.0937e-10
5.27026e-12
7.06041e-10
6.08175e-12
7.0227e-10
6.89044e-12
6.98057e-10
7.69617e-12
6.93406e-10
8.4983e-12
6.88318e-10
9.29581e-12
6.82798e-10
1.00879e-11
6.76847e-10
1.08742e-11
6.70469e-10
1.16547e-11
6.63668e-10
1.24289e-11
6.56448e-10
1.31958e-11
6.48814e-10
1.39542e-11
6.4077e-10
1.47035e-11
6.32321e-10
1.54432e-11
6.23473e-10
1.6173e-11
6.14233e-10
1.68919e-11
6.04607e-10
1.75988e-11
5.94602e-10
1.82925e-11
5.84226e-10
1.8972e-11
5.73488e-10
1.96366e-11
5.62395e-10
2.02854e-11
5.50958e-10
2.09174e-11
5.39187e-10
2.15314e-11
5.27092e-10
2.21258e-11
5.14685e-10
2.26992e-11
5.01977e-10
2.32503e-11
4.88981e-10
2.37779e-11
4.75711e-10
2.42809e-11
4.62182e-10
2.47579e-11
4.4841e-10
2.52072e-11
4.3441e-10
2.56269e-11
4.20199e-10
2.60153e-11
4.05795e-10
2.6371e-11
3.91218e-10
2.66922e-11
3.76486e-10
2.69772e-11
3.61622e-10
2.72238e-11
3.46647e-10
2.74299e-11
3.31584e-10
2.75936e-11
3.16458e-10
2.77129e-11
3.01294e-10
2.77856e-11
2.86118e-10
2.78097e-11
2.70959e-10
2.77831e-11
2.55846e-10
2.77033e-11
2.40808e-10
2.75679e-11
2.25877e-10
2.73742e-11
2.11086e-10
2.71198e-11
1.96469e-10
2.68027e-11
1.82061e-10
2.64205e-11
1.67899e-10
2.59708e-11
1.54022e-10
2.54506e-11
1.40467e-10
2.48574e-11
1.27276e-10
2.41891e-11
1.14489e-10
2.34437e-11
1.0215e-10
2.26191e-11
9.03012e-11
2.17133e-11
7.89871e-11
2.07244e-11
6.82515e-11
1.96514e-11
5.81391e-11
1.84939e-11
4.86948e-11
1.72517e-11
3.99625e-11
1.59253e-11
3.19835e-11
1.45169e-11
2.47971e-11
1.30307e-11
1.8439e-11
1.14733e-11
1.29397e-11
9.85358e-12
8.32175e-12
8.18477e-12
4.59615e-12
6.4866e-12
1.75911e-12
4.78727e-12
-2.13306e-13
3.12628e-12
-1.37231e-12
1.55883e-12
-1.80592e-12
1.62167e-13
-1.65066e-12
-9.56282e-13
-1.10249e-12
-1.65034e-12
-4.27193e-13
-1.72926e-12
-9.5342e-13
-2.98683e-13
1.37976e-12
-7.05952e-13
2.33757e-12
-8.57533e-13
1.98608e-12
-4.44415e-13
7.05273e-13
7.44995e-13
-1.22921e-12
2.88145e-12
-3.59531e-12
6.05939e-12
-6.23331e-12
1.03542e-11
-9.02336e-12
1.57988e-11
-1.18818e-11
2.24007e-11
-1.47451e-11
3.01498e-11
-1.75671e-11
3.90175e-11
-2.03136e-11
4.89712e-11
-2.29608e-11
5.9968e-11
-2.54919e-11
7.19573e-11
-2.78954e-11
8.48865e-11
-3.01629e-11
9.87006e-11
-3.22907e-11
1.13343e-10
-3.42764e-11
1.28756e-10
-3.61191e-11
1.44884e-10
-3.78193e-11
1.61668e-10
-3.93781e-11
1.79048e-10
-4.07982e-11
1.96969e-10
-4.20833e-11
2.15379e-10
-4.32364e-11
2.34224e-10
-4.42611e-11
2.53451e-10
-4.51614e-11
2.73009e-10
-4.59409e-11
2.92851e-10
-4.66037e-11
3.12928e-10
-4.7154e-11
3.33196e-10
-4.75958e-11
3.5361e-10
-4.79335e-11
3.74128e-10
-4.81714e-11
3.94708e-10
-4.83135e-11
4.15313e-10
-4.8364e-11
4.35905e-10
-4.83265e-11
4.56449e-10
-4.82044e-11
4.76908e-10
-4.8001e-11
4.97252e-10
-4.77206e-11
5.17449e-10
-4.73676e-11
5.37469e-10
-4.69458e-11
5.57283e-10
-4.64581e-11
5.76864e-10
-4.59069e-11
5.96188e-10
-4.52948e-11
6.15229e-10
-4.46254e-11
6.33966e-10
-4.39023e-11
6.52375e-10
-4.31288e-11
6.70436e-10
-4.23075e-11
6.88129e-10
-4.14405e-11
7.05435e-10
-4.05302e-11
7.22336e-10
-3.95791e-11
7.38818e-10
-3.85898e-11
7.54864e-10
-3.75646e-11
7.7046e-10
-3.65058e-11
7.85592e-10
-3.5415e-11
8.00246e-10
-3.42942e-11
8.1441e-10
-3.31449e-11
8.28074e-10
-3.19692e-11
8.41227e-10
-3.07691e-11
8.53858e-10
-2.95468e-11
8.65958e-10
-2.83037e-11
8.77518e-10
-2.70409e-11
8.88532e-10
-2.57592e-11
8.98992e-10
-2.44599e-11
9.0889e-10
-2.31445e-11
9.18221e-10
-2.18149e-11
9.26977e-10
-2.04723e-11
9.35155e-10
-1.91176e-11
9.42748e-10
-1.77516e-11
9.49753e-10
-1.6375e-11
9.56166e-10
-1.4989e-11
9.61983e-10
-1.35945e-11
9.67201e-10
-1.21926e-11
9.71815e-10
-1.0784e-11
9.75825e-10
-9.36957e-12
9.79227e-10
-7.95016e-12
9.8202e-10
-6.5265e-12
9.84203e-10
-5.09929e-12
9.85774e-10
-3.66926e-12
9.86731e-10
-2.23712e-12
9.87076e-10
-8.03509e-13
9.86806e-10
6.3088e-13
9.85924e-10
2.06521e-12
9.84428e-10
3.49856e-12
9.82319e-10
4.9302e-12
9.79598e-10
6.35971e-12
9.76267e-10
7.78665e-12
9.72327e-10
9.21019e-12
9.67781e-10
1.06291e-11
9.62631e-10
1.20424e-11
9.56877e-10
1.34495e-11
9.50525e-10
1.48501e-11
9.43577e-10
1.62433e-11
9.36038e-10
1.76275e-11
9.27912e-10
1.90013e-11
9.19204e-10
2.03639e-11
9.09917e-10
2.17147e-11
9.0006e-10
2.30528e-11
8.89637e-10
2.4377e-11
8.78656e-10
2.56855e-11
8.67124e-10
2.69768e-11
8.55048e-10
2.82497e-11
8.42437e-10
2.95027e-11
8.29301e-10
3.07346e-11
8.15649e-10
3.19438e-11
8.01493e-10
3.31285e-11
7.86843e-10
3.42869e-11
7.71712e-10
3.54172e-11
7.56114e-10
3.65172e-11
7.4006e-10
3.75851e-11
7.23567e-10
3.86187e-11
7.0665e-10
3.96161e-11
6.89326e-10
4.05746e-11
6.71612e-10
4.14919e-11
6.53528e-10
4.23653e-11
6.35092e-10
4.31928e-11
6.16327e-10
4.39719e-11
5.97254e-10
4.46996e-11
5.77897e-10
4.53728e-11
5.58281e-10
4.59882e-11
5.3843e-10
4.65429e-11
5.18373e-10
4.7034e-11
4.98139e-10
4.74584e-11
4.77756e-10
4.78124e-11
4.57257e-10
4.80926e-11
4.36674e-10
4.82952e-11
4.16043e-10
4.84169e-11
3.95399e-10
4.84539e-11
3.7478e-10
4.84023e-11
3.54225e-10
4.82584e-11
3.33775e-10
4.80179e-11
3.13473e-10
4.76768e-11
2.93361e-10
4.72312e-11
2.73487e-10
4.66769e-11
2.53898e-10
4.601e-11
2.34641e-10
4.52267e-11
2.1577e-10
4.43225e-11
1.97334e-10
4.32934e-11
1.79388e-10
4.21355e-11
1.61986e-10
4.08457e-11
1.45184e-10
3.94211e-11
1.29038e-10
3.78588e-11
1.13607e-10
3.61564e-11
9.89467e-11
3.43121e-11
8.51146e-11
3.23257e-11
7.21674e-11
3.01983e-11
6.01605e-11
2.79323e-11
4.91463e-11
2.55319e-11
3.91724e-11
2.30048e-11
3.02814e-11
2.03632e-11
2.25086e-11
1.76247e-11
1.58791e-11
1.48135e-11
1.04033e-11
1.19627e-11
6.07283e-12
9.11857e-12
2.85506e-12
6.3445e-12
6.86886e-13
3.72705e-12
-5.34183e-13
1.38322e-12
-9.60403e-13
-5.30187e-13
-8.0427e-13
-1.80663e-12
-3.50814e-13
-2.18179e-12
-1.30401e-12
-1.77538e-13
1.55914e-12
-2.18212e-13
2.38874e-12
2.19284e-13
1.54197e-12
1.42862e-12
-5.10624e-13
3.62655e-12
-3.42599e-12
6.9779e-12
-6.93751e-12
1.15828e-11
-1.08374e-11
1.75177e-11
-1.49619e-11
2.48232e-11
-1.91897e-11
3.35104e-11
-2.34334e-11
4.357e-11
-2.76263e-11
5.49719e-11
-3.17176e-11
6.768e-11
-3.567e-11
8.16466e-11
-3.9458e-11
9.68152e-11
-4.30631e-11
1.13124e-10
-4.6472e-11
1.30509e-10
-4.96771e-11
1.48904e-10
-5.2673e-11
1.68242e-10
-5.54569e-11
1.88456e-10
-5.80293e-11
2.09474e-10
-6.03925e-11
2.31226e-10
-6.25499e-11
2.53645e-10
-6.45042e-11
2.76668e-10
-6.62593e-11
3.00228e-10
-6.78211e-11
3.24262e-10
-6.91951e-11
3.48708e-10
-7.03867e-11
3.73507e-10
-7.14016e-11
3.98599e-10
-7.2246e-11
4.2393e-10
-7.2926e-11
4.49444e-10
-7.34478e-11
4.75089e-10
-7.38173e-11
5.00814e-10
-7.40402e-11
5.26573e-10
-7.41225e-11
5.52319e-10
-7.40705e-11
5.78006e-10
-7.38899e-11
6.03591e-10
-7.35863e-11
6.29034e-10
-7.31647e-11
6.54295e-10
-7.26307e-11
6.79339e-10
-7.19898e-11
7.04129e-10
-7.12476e-11
7.28632e-10
-7.04088e-11
7.52815e-10
-6.94777e-11
7.76647e-10
-6.84585e-11
8.001e-10
-6.73561e-11
8.23146e-10
-6.61751e-11
8.4576e-10
-6.49201e-11
8.67915e-10
-6.35953e-11
8.89589e-10
-6.22043e-11
9.10758e-10
-6.07504e-11
9.31404e-10
-5.92371e-11
9.51506e-10
-5.76677e-11
9.71047e-10
-5.60458e-11
9.90007e-10
-5.43747e-11
1.00837e-09
-5.26575e-11
1.02612e-09
-5.0897e-11
1.04325e-09
-4.90959e-11
1.05974e-09
-4.72566e-11
1.07557e-09
-4.5382e-11
1.09074e-09
-4.34747e-11
1.10524e-09
-4.15367e-11
1.11905e-09
-3.95701e-11
1.13216e-09
-3.75765e-11
1.14458e-09
-3.55582e-11
1.15628e-09
-3.35174e-11
1.16726e-09
-3.1456e-11
1.17752e-09
-2.93755e-11
1.18705e-09
-2.72772e-11
1.19583e-09
-2.51628e-11
1.20388e-09
-2.30336e-11
1.21118e-09
-2.08915e-11
1.21772e-09
-1.87379e-11
1.22351e-09
-1.6574e-11
1.22854e-09
-1.44009e-11
1.23281e-09
-1.22197e-11
1.23632e-09
-1.00318e-11
1.23906e-09
-7.83841e-12
1.24103e-09
-5.64088e-12
1.24223e-09
-3.44013e-12
1.24267e-09
-1.23701e-12
1.24233e-09
9.67469e-13
1.24122e-09
3.17198e-12
1.23935e-09
5.37506e-12
1.2367e-09
7.57545e-12
1.23329e-09
9.77225e-12
1.22911e-09
1.19647e-11
1.22417e-09
1.41519e-11
1.21847e-09
1.63324e-11
1.21201e-09
1.85045e-11
1.20479e-09
2.06666e-11
1.19682e-09
2.28177e-11
1.18811e-09
2.49567e-11
1.17865e-09
2.70822e-11
1.16846e-09
2.91925e-11
1.15754e-09
3.12858e-11
1.14589e-09
3.33603e-11
1.13353e-09
3.54143e-11
1.12047e-09
3.74462e-11
1.1067e-09
3.94539e-11
1.09224e-09
4.14354e-11
1.0771e-09
4.33883e-11
1.06129e-09
4.53106e-11
1.04483e-09
4.71999e-11
1.02772e-09
4.90538e-11
1.00998e-09
5.08696e-11
9.9162e-10
5.26447e-11
9.72662e-10
5.4376e-11
9.53119e-10
5.60607e-11
9.33009e-10
5.76957e-11
9.1235e-10
5.92778e-11
8.91162e-10
6.08038e-11
8.69466e-10
6.22701e-11
8.47285e-10
6.36728e-11
8.24643e-10
6.50081e-11
8.01564e-10
6.62721e-11
7.78075e-10
6.74611e-11
7.54204e-10
6.85708e-11
7.2998e-10
6.95968e-11
7.05433e-10
7.05345e-11
6.80598e-10
7.1379e-11
6.55507e-10
7.21255e-11
6.30196e-10
7.27692e-11
6.04704e-10
7.3305e-11
5.79068e-10
7.37277e-11
5.53332e-10
7.4032e-11
5.27537e-10
7.42122e-11
5.01728e-10
7.42628e-11
4.75953e-10
7.4178e-11
4.50259e-10
7.39521e-11
4.24698e-10
7.35793e-11
3.99321e-10
7.30535e-11
3.74184e-10
7.23686e-11
3.49343e-10
7.15185e-11
3.24856e-10
7.04975e-11
3.00782e-10
6.92998e-11
2.77185e-10
6.79197e-11
2.54127e-10
6.63514e-11
2.31674e-10
6.45894e-11
2.09891e-10
6.26289e-11
1.88846e-10
6.04662e-11
1.68607e-10
5.80978e-11
1.49243e-10
5.55211e-11
1.30822e-10
5.27342e-11
1.13412e-10
4.97368e-11
9.70782e-11
4.65315e-11
8.18854e-11
4.31237e-11
6.78942e-11
3.95219e-11
5.51597e-11
3.57389e-11
4.37293e-11
3.17936e-11
3.36417e-11
2.77127e-11
2.49229e-11
2.35328e-11
1.7583e-11
1.93032e-11
1.16113e-11
1.50906e-11
6.97125e-12
1.09842e-11
3.59445e-12
7.1029e-12
1.37359e-12
3.60329e-12
1.53906e-13
6.89528e-13
-2.77523e-13
-1.37518e-12
-2.01414e-13
-2.25671e-12
-1.50512e-12
3.42943e-16
1.56052e-12
4.22966e-13
1.96769e-12
1.58606e-12
3.76223e-13
3.74641e-12
-2.67618e-12
7.10415e-12
-6.78991e-12
1.18155e-11
-1.16496e-11
1.79827e-11
-1.70039e-11
2.56775e-11
-2.26554e-11
3.49364e-11
-2.84499e-11
4.57727e-11
-3.42696e-11
5.81784e-11
-4.00286e-11
7.21213e-11
-4.56595e-11
8.75609e-11
-5.11096e-11
1.04446e-10
-5.63423e-11
1.22717e-10
-6.13313e-11
1.42302e-10
-6.6058e-11
1.63133e-10
-7.05093e-11
1.85137e-10
-7.4676e-11
2.08234e-10
-7.8554e-11
2.32349e-10
-8.21418e-11
2.57401e-10
-8.54423e-11
2.83311e-10
-8.84592e-11
3.10003e-10
-9.11956e-11
3.37401e-10
-9.36567e-11
3.65429e-10
-9.58491e-11
3.94014e-10
-9.778e-11
4.23084e-10
-9.94567e-11
4.52569e-10
-1.00887e-10
4.82402e-10
-1.02078e-10
5.12517e-10
-1.0304e-10
5.42849e-10
-1.0378e-10
5.73337e-10
-1.04306e-10
6.03922e-10
-1.04626e-10
6.34548e-10
-1.04749e-10
6.6516e-10
-1.04681e-10
6.95704e-10
-1.04433e-10
7.26131e-10
-1.04011e-10
7.5639e-10
-1.03424e-10
7.86436e-10
-1.02678e-10
8.16226e-10
-1.01781e-10
8.45718e-10
-1.00739e-10
8.74871e-10
-9.95607e-11
9.03646e-10
-9.82522e-11
9.32007e-10
-9.68196e-11
9.5992e-10
-9.52689e-11
9.87351e-10
-9.36064e-11
1.01427e-09
-9.18384e-11
1.04065e-09
-8.99711e-11
1.06645e-09
-8.80098e-11
1.09166e-09
-8.59594e-11
1.11624e-09
-8.38244e-11
1.14019e-09
-8.16095e-11
1.16346e-09
-7.93197e-11
1.18605e-09
-7.69597e-11
1.20792e-09
-7.45341e-11
1.22907e-09
-7.20468e-11
1.24948e-09
-6.95017e-11
1.26913e-09
-6.69023e-11
1.28799e-09
-6.42523e-11
1.30607e-09
-6.1555e-11
1.32335e-09
-5.88138e-11
1.33981e-09
-5.60319e-11
1.35545e-09
-5.32119e-11
1.37025e-09
-5.03564e-11
1.3842e-09
-4.74683e-11
1.39729e-09
-4.45504e-11
1.40952e-09
-4.16053e-11
1.42088e-09
-3.86351e-11
1.43136e-09
-3.56417e-11
1.44095e-09
-3.2627e-11
1.44965e-09
-2.95935e-11
1.45746e-09
-2.65435e-11
1.46437e-09
-2.3479e-11
1.47037e-09
-2.04016e-11
1.47546e-09
-1.73126e-11
1.47964e-09
-1.42137e-11
1.48291e-09
-1.11067e-11
1.48526e-09
-7.99331e-12
1.4867e-09
-4.87536e-12
1.48721e-09
-1.75448e-12
1.48681e-09
1.36779e-12
1.48549e-09
4.49007e-12
1.48326e-09
7.6109e-12
1.48011e-09
1.07285e-11
1.47604e-09
1.3841e-11
1.47106e-09
1.69467e-11
1.46516e-09
2.0044e-11
1.45837e-09
2.31316e-11
1.45066e-09
2.62076e-11
1.44206e-09
2.92699e-11
1.43256e-09
3.23163e-11
1.42217e-09
3.5345e-11
1.4109e-09
3.83542e-11
1.39875e-09
4.13417e-11
1.38573e-09
4.43048e-11
1.37185e-09
4.72409e-11
1.35712e-09
5.01476e-11
1.34154e-09
5.30225e-11
1.32513e-09
5.5863e-11
1.3079e-09
5.8666e-11
1.28986e-09
6.14284e-11
1.27103e-09
6.41469e-11
1.25141e-09
6.6818e-11
1.23103e-09
6.94383e-11
1.20989e-09
7.20042e-11
1.18802e-09
7.4512e-11
1.16544e-09
7.69579e-11
1.14216e-09
7.93376e-11
1.11821e-09
8.16465e-11
1.09361e-09
8.38797e-11
1.06839e-09
8.60326e-11
1.04255e-09
8.81004e-11
1.01615e-09
9.00782e-11
9.89195e-10
9.19607e-11
9.61726e-10
9.37421e-11
9.3377e-10
9.54166e-11
9.05363e-10
9.69784e-11
8.76538e-10
9.84214e-11
8.47333e-10
9.97393e-11
8.17787e-10
1.00926e-10
7.87939e-10
1.01973e-10
7.57833e-10
1.02875e-10
7.27513e-10
1.03625e-10
6.97026e-10
1.04215e-10
6.66421e-10
1.04637e-10
6.35748e-10
1.04885e-10
6.05061e-10
1.0495e-10
5.74414e-10
1.04825e-10
5.43865e-10
1.04501e-10
5.13474e-10
1.0397e-10
4.83302e-10
1.03225e-10
4.53413e-10
1.02257e-10
4.23874e-10
1.01058e-10
3.94752e-10
9.96201e-11
3.66116e-10
9.79348e-11
3.3804e-10
9.59951e-11
3.10596e-10
9.3794e-11
2.83861e-10
9.13247e-11
2.5791e-10
8.85807e-11
2.32822e-10
8.55565e-11
2.08672e-10
8.2248e-11
1.8554e-10
7.86528e-11
1.63504e-10
7.477e-11
1.42639e-10
7.06007e-11
1.2302e-10
6.61492e-11
1.04719e-10
6.14241e-11
8.78023e-11
5.64385e-11
7.23302e-11
5.12113e-11
5.83551e-11
4.57693e-11
4.5918e-11
4.01498e-11
3.50468e-11
3.44033e-11
2.57523e-11
2.85967e-11
1.80241e-11
2.28179e-11
1.18263e-11
1.71818e-11
7.09128e-12
1.18381e-11
3.71415e-12
6.98019e-12
1.54776e-12
2.85616e-12
3.92195e-13
-2.19823e-13
-1.09183e-14
-1.85296e-12
-1.51596e-12
2.05378e-13
1.35337e-12
1.15866e-12
1.01494e-12
3.13602e-12
-1.59401e-12
6.35215e-12
-5.88799e-12
1.09796e-11
-1.14212e-11
1.71598e-11
-1.78325e-11
2.49865e-11
-2.48329e-11
3.45255e-11
-3.21937e-11
4.58084e-11
-3.97324e-11
5.88413e-11
-4.73057e-11
7.36163e-11
-5.4804e-11
9.01017e-11
-6.21439e-11
1.08251e-10
-6.92586e-11
1.28009e-10
-7.60999e-11
1.4931e-10
-8.26325e-11
1.72081e-10
-8.88306e-11
1.96247e-10
-9.46748e-11
2.21726e-10
-1.00153e-10
2.48434e-10
-1.05259e-10
2.76284e-10
-1.0999e-10
3.05189e-10
-1.14347e-10
3.35062e-10
-1.18333e-10
3.65819e-10
-1.21952e-10
3.97373e-10
-1.25211e-10
4.29641e-10
-1.28117e-10
4.6254e-10
-1.30679e-10
4.95991e-10
-1.32906e-10
5.29912e-10
-1.34809e-10
5.64229e-10
-1.36396e-10
5.98867e-10
-1.37678e-10
6.33753e-10
-1.38666e-10
6.68818e-10
-1.3937e-10
7.03994e-10
-1.39802e-10
7.39217e-10
-1.39972e-10
7.74425e-10
-1.39888e-10
8.09556e-10
-1.39564e-10
8.44553e-10
-1.39008e-10
8.7936e-10
-1.38232e-10
9.13926e-10
-1.37244e-10
9.48198e-10
-1.36054e-10
9.82128e-10
-1.34671e-10
1.01567e-09
-1.33105e-10
1.04879e-09
-1.31364e-10
1.08142e-09
-1.29457e-10
1.11355e-09
-1.27394e-10
1.14512e-09
-1.2518e-10
1.17611e-09
-1.22825e-10
1.20647e-09
-1.20336e-10
1.23618e-09
-1.1772e-10
1.26521e-09
-1.14985e-10
1.29352e-09
-1.12136e-10
1.32109e-09
-1.0918e-10
1.34789e-09
-1.06124e-10
1.37391e-09
-1.02973e-10
1.39911e-09
-9.97333e-11
1.42347e-09
-9.64102e-11
1.44698e-09
-9.30094e-11
1.46961e-09
-8.95359e-11
1.49135e-09
-8.59942e-11
1.51219e-09
-8.23885e-11
1.53209e-09
-7.87231e-11
1.55106e-09
-7.50024e-11
1.56908e-09
-7.12305e-11
1.58614e-09
-6.74114e-11
1.60222e-09
-6.35482e-11
1.61731e-09
-5.96444e-11
1.63141e-09
-5.5703e-11
1.6445e-09
-5.17274e-11
1.65658e-09
-4.77209e-11
1.66764e-09
-4.36863e-11
1.67768e-09
-3.96267e-11
1.68668e-09
-3.55443e-11
1.69464e-09
-3.14416e-11
1.70156e-09
-2.73209e-11
1.70743e-09
-2.31848e-11
1.71225e-09
-1.90356e-11
1.71602e-09
-1.48757e-11
1.71873e-09
-1.07072e-11
1.72039e-09
-6.53227e-12
1.72099e-09
-2.35313e-12
1.72053e-09
1.82798e-12
1.71901e-09
6.00887e-12
1.71643e-09
1.01875e-11
1.7128e-09
1.43618e-11
1.70811e-09
1.85294e-11
1.70237e-09
2.26881e-11
1.69558e-09
2.68353e-11
1.68774e-09
3.09688e-11
1.67887e-09
3.50865e-11
1.66895e-09
3.91859e-11
1.658e-09
4.32641e-11
1.64603e-09
4.73182e-11
1.63304e-09
5.13455e-11
1.61904e-09
5.53431e-11
1.60403e-09
5.9308e-11
1.58804e-09
6.32367e-11
1.57106e-09
6.71259e-11
1.55311e-09
7.09718e-11
1.5342e-09
7.47709e-11
1.51435e-09
7.85192e-11
1.49357e-09
8.22127e-11
1.47187e-09
8.5847e-11
1.44927e-09
8.94177e-11
1.42578e-09
9.292e-11
1.40144e-09
9.63491e-11
1.37625e-09
9.96998e-11
1.35024e-09
1.02967e-10
1.32344e-09
1.06144e-10
1.29586e-09
1.09226e-10
1.26753e-09
1.12207e-10
1.23848e-09
1.1508e-10
1.20875e-09
1.17839e-10
1.17835e-09
1.20477e-10
1.14732e-09
1.22987e-10
1.1157e-09
1.25361e-10
1.08353e-09
1.27591e-10
1.05084e-09
1.29671e-10
1.01767e-09
1.31591e-10
9.8406e-10
1.33344e-10
9.50064e-10
1.34921e-10
9.15724e-10
1.36313e-10
8.81089e-10
1.37511e-10
8.4621e-10
1.38504e-10
8.1114e-10
1.39284e-10
7.75936e-10
1.39841e-10
7.40655e-10
1.40165e-10
7.05359e-10
1.40247e-10
6.70109e-10
1.40075e-10
6.34972e-10
1.39639e-10
6.00014e-10
1.38928e-10
5.65306e-10
1.37933e-10
5.30921e-10
1.36642e-10
4.96933e-10
1.35046e-10
4.63418e-10
1.33134e-10
4.30457e-10
1.30896e-10
3.98129e-10
1.28323e-10
3.66518e-10
1.25406e-10
3.35707e-10
1.22136e-10
3.05782e-10
1.18506e-10
2.76829e-10
1.1451e-10
2.48934e-10
1.10144e-10
2.22184e-10
1.05404e-10
1.96663e-10
1.00291e-10
1.72455e-10
9.48076e-11
1.49643e-10
8.89615e-11
1.28303e-10
8.27641e-11
1.08507e-10
7.62339e-11
9.03203e-11
6.93973e-11
7.37994e-11
6.229e-11
5.89889e-11
5.49605e-11
4.59191e-11
4.74731e-11
3.46031e-11
3.99124e-11
2.50336e-11
3.23871e-11
1.71786e-11
2.50368e-11
1.09767e-11
1.80401e-11
6.33278e-12
1.16238e-11
3.11462e-12
6.07442e-12
1.14566e-12
1.74934e-12
2.01364e-13
-9.08232e-13
-1.31487e-12
4.25706e-13
9.24964e-13
1.94842e-12
-5.13291e-13
4.79034e-12
-4.43322e-12
9.12679e-12
-1.02203e-11
1.50982e-11
-1.7394e-11
2.28219e-11
-2.55577e-11
3.23757e-11
-3.43898e-11
4.38168e-11
-4.36323e-11
5.7169e-11
-5.30802e-11
7.24303e-11
-6.25675e-11
8.95882e-11
-7.19614e-11
1.0861e-10
-8.11619e-11
1.29442e-10
-9.00906e-11
1.52027e-10
-9.86857e-11
1.76294e-10
-1.06902e-10
2.02167e-10
-1.14706e-10
2.29565e-10
-1.22072e-10
2.58399e-10
-1.28986e-10
2.8858e-10
-1.35437e-10
3.20014e-10
-1.41422e-10
3.52606e-10
-1.46939e-10
3.86264e-10
-1.51991e-10
4.20894e-10
-1.56582e-10
4.56404e-10
-1.6072e-10
4.927e-10
-1.64414e-10
5.29695e-10
-1.67673e-10
5.67297e-10
-1.70509e-10
6.05422e-10
-1.72933e-10
6.43984e-10
-1.74957e-10
6.82901e-10
-1.76595e-10
7.22094e-10
-1.77858e-10
7.61484e-10
-1.78761e-10
8.00999e-10
-1.79316e-10
8.40564e-10
-1.79537e-10
8.80112e-10
-1.79436e-10
9.19574e-10
-1.79026e-10
9.58885e-10
-1.78321e-10
9.97985e-10
-1.77333e-10
1.03682e-09
-1.76074e-10
1.07532e-09
-1.74557e-10
1.11344e-09
-1.72793e-10
1.15113e-09
-1.70793e-10
1.18833e-09
-1.6857e-10
1.22501e-09
-1.66133e-10
1.26111e-09
-1.63494e-10
1.29659e-09
-1.60663e-10
1.33142e-09
-1.57651e-10
1.36555e-09
-1.54465e-10
1.39894e-09
-1.51117e-10
1.43157e-09
-1.47614e-10
1.4634e-09
-1.43965e-10
1.4944e-09
-1.40178e-10
1.52453e-09
-1.36261e-10
1.55379e-09
-1.32223e-10
1.58212e-09
-1.2807e-10
1.60952e-09
-1.23809e-10
1.63596e-09
-1.19448e-10
1.66141e-09
-1.14992e-10
1.68587e-09
-1.10449e-10
1.7093e-09
-1.05823e-10
1.7317e-09
-1.01119e-10
1.75304e-09
-9.63442e-11
1.77331e-09
-9.15023e-11
1.7925e-09
-8.65989e-11
1.81059e-09
-8.16389e-11
1.82757e-09
-7.66266e-11
1.84343e-09
-7.1566e-11
1.85817e-09
-6.6461e-11
1.87176e-09
-6.13154e-11
1.88421e-09
-5.61332e-11
1.8955e-09
-5.0918e-11
1.90563e-09
-4.56734e-11
1.91459e-09
-4.04027e-11
1.92238e-09
-3.51089e-11
1.92899e-09
-2.97951e-11
1.93442e-09
-2.44642e-11
1.93866e-09
-1.91193e-11
1.94172e-09
-1.37632e-11
1.94358e-09
-8.39884e-12
1.94426e-09
-3.02882e-12
1.94374e-09
2.34387e-12
1.94204e-09
7.71615e-12
1.93914e-09
1.30851e-11
1.93505e-09
1.84483e-11
1.92978e-09
2.38032e-11