/*--------------------------------*- C++ -*----------------------------------*\
  =========                 |
  \\      /  F ield         | OpenFOAM: The Open Source CFD Toolbox
   \\    /   O peration     | Website:  https://openfoam.org
    \\  /    A nd           | Version:  7
     \\/     M anipulation  |
\*---------------------------------------------------------------------------*/
FoamFile
{
    version     2.0;
    format      ascii;
    class       volVectorField;
    location    "0.2875";
    object      U;
}
// * * * * * * * * * * * * * * * * * * * * * * * * * * * * * * * * * * * * * //

dimensions      [0 1 -1 0 0 0 0];

internalField   nonuniform List<vector> 
51200
(
(3.17421e-08 5.14123e-08 0)
(1.13139e-08 5.18017e-08 0)
(-8.73919e-08 4.24472e-08 0)
(-1.69411e-07 3.2708e-08 0)
(-2.22672e-07 2.22961e-08 0)
(-2.44246e-07 1.12992e-08 0)
(-2.31177e-07 -6.24028e-10 0)
(-1.82097e-07 -1.28249e-08 0)
(-9.69983e-08 -2.46345e-08 0)
(2.35864e-08 -3.57288e-08 0)
(1.79209e-07 -4.62469e-08 0)
(3.68723e-07 -5.63222e-08 0)
(5.90616e-07 -6.58209e-08 0)
(8.42949e-07 -7.48285e-08 0)
(1.1237e-06 -8.32176e-08 0)
(1.43134e-06 -9.09764e-08 0)
(1.76403e-06 -9.81421e-08 0)
(2.11988e-06 -1.04651e-07 0)
(2.49732e-06 -1.10607e-07 0)
(2.89458e-06 -1.1613e-07 0)
(3.30988e-06 -1.21167e-07 0)
(3.74168e-06 -1.25677e-07 0)
(4.18825e-06 -1.29728e-07 0)
(4.64788e-06 -1.33297e-07 0)
(5.11915e-06 -1.36392e-07 0)
(5.60083e-06 -1.39104e-07 0)
(6.09152e-06 -1.41439e-07 0)
(6.58989e-06 -1.43381e-07 0)
(7.09462e-06 -1.44976e-07 0)
(7.60444e-06 -1.46245e-07 0)
(8.11819e-06 -1.47165e-07 0)
(8.63483e-06 -1.47749e-07 0)
(9.15327e-06 -1.48038e-07 0)
(9.67241e-06 -1.48056e-07 0)
(1.01914e-05 -1.47818e-07 0)
(1.07093e-05 -1.47341e-07 0)
(1.12252e-05 -1.46617e-07 0)
(1.17384e-05 -1.45625e-07 0)
(1.22478e-05 -1.44371e-07 0)
(1.27527e-05 -1.42907e-07 0)
(1.32526e-05 -1.41294e-07 0)
(1.37467e-05 -1.39552e-07 0)
(1.42343e-05 -1.37644e-07 0)
(1.47148e-05 -1.35522e-07 0)
(1.51876e-05 -1.33183e-07 0)
(1.56523e-05 -1.30678e-07 0)
(1.61083e-05 -1.28072e-07 0)
(1.65552e-05 -1.25386e-07 0)
(1.69925e-05 -1.22591e-07 0)
(1.74194e-05 -1.19646e-07 0)
(1.78358e-05 -1.16552e-07 0)
(1.82414e-05 -1.13351e-07 0)
(1.86358e-05 -1.1008e-07 0)
(1.90186e-05 -1.06748e-07 0)
(1.93896e-05 -1.03338e-07 0)
(1.97484e-05 -9.98354e-08 0)
(2.00947e-05 -9.62391e-08 0)
(2.04282e-05 -9.25577e-08 0)
(2.07488e-05 -8.88085e-08 0)
(2.10561e-05 -8.50175e-08 0)
(2.13501e-05 -8.12047e-08 0)
(2.16304e-05 -7.73619e-08 0)
(2.1897e-05 -7.3456e-08 0)
(2.21497e-05 -6.94641e-08 0)
(2.23882e-05 -6.54007e-08 0)
(2.26126e-05 -6.13092e-08 0)
(2.28227e-05 -5.72261e-08 0)
(2.30182e-05 -5.31547e-08 0)
(2.31991e-05 -4.90667e-08 0)
(2.33654e-05 -4.49292e-08 0)
(2.35169e-05 -4.07326e-08 0)
(2.36536e-05 -3.6494e-08 0)
(2.37755e-05 -3.22414e-08 0)
(2.38824e-05 -2.79946e-08 0)
(2.39742e-05 -2.37556e-08 0)
(2.40509e-05 -1.95116e-08 0)
(2.41124e-05 -1.52484e-08 0)
(2.41588e-05 -1.09642e-08 0)
(2.41901e-05 -6.67085e-09 0)
(2.42061e-05 -2.38105e-09 0)
(2.4207e-05 1.90563e-09 0)
(2.41926e-05 6.1978e-09 0)
(2.41631e-05 1.0495e-08 0)
(2.41185e-05 1.47822e-08 0)
(2.40587e-05 1.90467e-08 0)
(2.39837e-05 2.32963e-08 0)
(2.38935e-05 2.75534e-08 0)
(2.37883e-05 3.18253e-08 0)
(2.36681e-05 3.60892e-08 0)
(2.3533e-05 4.0313e-08 0)
(2.3383e-05 4.44931e-08 0)
(2.32181e-05 4.8658e-08 0)
(2.30384e-05 5.28299e-08 0)
(2.2844e-05 5.69919e-08 0)
(2.26351e-05 6.11053e-08 0)
(2.24118e-05 6.51556e-08 0)
(2.21742e-05 6.91672e-08 0)
(2.19224e-05 7.31696e-08 0)
(2.16565e-05 7.71583e-08 0)
(2.13768e-05 8.10984e-08 0)
(2.10835e-05 8.49614e-08 0)
(2.07766e-05 8.87476e-08 0)
(2.04564e-05 9.24753e-08 0)
(2.0123e-05 9.61553e-08 0)
(1.97768e-05 9.97814e-08 0)
(1.94181e-05 1.03339e-07 0)
(1.90471e-05 1.06815e-07 0)
(1.86642e-05 1.10202e-07 0)
(1.82696e-05 1.13493e-07 0)
(1.78636e-05 1.16687e-07 0)
(1.74467e-05 1.19781e-07 0)
(1.70191e-05 1.22768e-07 0)
(1.65814e-05 1.25634e-07 0)
(1.61338e-05 1.28365e-07 0)
(1.56771e-05 1.30952e-07 0)
(1.52115e-05 1.33401e-07 0)
(1.47377e-05 1.35715e-07 0)
(1.42563e-05 1.37878e-07 0)
(1.37677e-05 1.39866e-07 0)
(1.32727e-05 1.4166e-07 0)
(1.27719e-05 1.43259e-07 0)
(1.22659e-05 1.44667e-07 0)
(1.17555e-05 1.45878e-07 0)
(1.12414e-05 1.46875e-07 0)
(1.07245e-05 1.47634e-07 0)
(1.02056e-05 1.48139e-07 0)
(9.68564e-06 1.48374e-07 0)
(9.16548e-06 1.48328e-07 0)
(8.64613e-06 1.47995e-07 0)
(8.12862e-06 1.47375e-07 0)
(7.61398e-06 1.46463e-07 0)
(7.10335e-06 1.4523e-07 0)
(6.59794e-06 1.43637e-07 0)
(6.09897e-06 1.41651e-07 0)
(5.60768e-06 1.39274e-07 0)
(5.12537e-06 1.36518e-07 0)
(4.65344e-06 1.33378e-07 0)
(4.19333e-06 1.29815e-07 0)
(3.74657e-06 1.25777e-07 0)
(3.31465e-06 1.21236e-07 0)
(2.89914e-06 1.16201e-07 0)
(2.50169e-06 1.10684e-07 0)
(2.12402e-06 1.04669e-07 0)
(1.76787e-06 9.81126e-08 0)
(1.43499e-06 9.0976e-08 0)
(1.12712e-06 8.32497e-08 0)
(8.46052e-07 7.49326e-08 0)
(5.93617e-07 6.60116e-08 0)
(3.71572e-07 5.64862e-08 0)
(1.81537e-07 4.6392e-08 0)
(2.49787e-08 3.57788e-08 0)
(-9.68272e-08 2.46981e-08 0)
(-1.8297e-07 1.32478e-08 0)
(-2.33195e-07 1.63766e-09 0)
(-2.48265e-07 -9.72549e-09 0)
(-2.30482e-07 -2.00976e-08 0)
(-1.84461e-07 -2.81884e-08 0)
(-1.1885e-07 -3.17296e-08 0)
(-5.12766e-08 -2.68534e-08 0)
(-9.98826e-09 -9.99272e-09 0)
(-1.68818e-09 1.13474e-07 0)
(-6.44258e-08 1.57302e-07 0)
(-1.90243e-07 1.47475e-07 0)
(-2.99482e-07 1.1168e-07 0)
(-3.54917e-07 6.02872e-08 0)
(-3.38074e-07 -1.12183e-09 0)
(-2.36971e-07 -6.84795e-08 0)
(-4.39393e-08 -1.38793e-07 0)
(2.44139e-07 -2.09561e-07 0)
(6.26523e-07 -2.78993e-07 0)
(1.10209e-06 -3.46084e-07 0)
(1.66897e-06 -4.10531e-07 0)
(2.32392e-06 -4.72007e-07 0)
(3.06253e-06 -5.30366e-07 0)
(3.88045e-06 -5.8531e-07 0)
(4.77332e-06 -6.36696e-07 0)
(5.73648e-06 -6.84571e-07 0)
(6.76496e-06 -7.28849e-07 0)
(7.85399e-06 -7.69618e-07 0)
(8.99903e-06 -8.07077e-07 0)
(1.01956e-05 -8.41264e-07 0)
(1.14392e-05 -8.72205e-07 0)
(1.27252e-05 -9.00128e-07 0)
(1.40491e-05 -9.25084e-07 0)
(1.54068e-05 -9.47042e-07 0)
(1.67944e-05 -9.66173e-07 0)
(1.82082e-05 -9.82654e-07 0)
(1.96443e-05 -9.96581e-07 0)
(2.10991e-05 -1.00809e-06 0)
(2.25691e-05 -1.01729e-06 0)
(2.4051e-05 -1.0242e-06 0)
(2.55415e-05 -1.02889e-06 0)
(2.70376e-05 -1.03148e-06 0)
(2.85364e-05 -1.03212e-06 0)
(3.00349e-05 -1.03087e-06 0)
(3.15309e-05 -1.02782e-06 0)
(3.30216e-05 -1.02309e-06 0)
(3.45046e-05 -1.01674e-06 0)
(3.59774e-05 -1.00881e-06 0)
(3.74378e-05 -9.99347e-07 0)
(3.88836e-05 -9.88467e-07 0)
(4.03131e-05 -9.76332e-07 0)
(4.17245e-05 -9.63038e-07 0)
(4.31158e-05 -9.48568e-07 0)
(4.44853e-05 -9.32878e-07 0)
(4.58313e-05 -9.16011e-07 0)
(4.71523e-05 -8.98117e-07 0)
(4.84471e-05 -8.79356e-07 0)
(4.97143e-05 -8.59796e-07 0)
(5.09525e-05 -8.39422e-07 0)
(5.21604e-05 -8.18217e-07 0)
(5.33369e-05 -7.96219e-07 0)
(5.4481e-05 -7.735e-07 0)
(5.55918e-05 -7.50132e-07 0)
(5.66684e-05 -7.26171e-07 0)
(5.77098e-05 -7.01667e-07 0)
(5.87152e-05 -6.76653e-07 0)
(5.96838e-05 -6.51136e-07 0)
(6.06148e-05 -6.25118e-07 0)
(6.15075e-05 -5.9863e-07 0)
(6.23614e-05 -5.71743e-07 0)
(6.31761e-05 -5.44523e-07 0)
(6.39509e-05 -5.16985e-07 0)
(6.46853e-05 -4.89109e-07 0)
(6.53789e-05 -4.60898e-07 0)
(6.60311e-05 -4.32406e-07 0)
(6.66416e-05 -4.03709e-07 0)
(6.72102e-05 -3.74844e-07 0)
(6.77364e-05 -3.45795e-07 0)
(6.822e-05 -3.16525e-07 0)
(6.86608e-05 -2.87027e-07 0)
(6.90585e-05 -2.57342e-07 0)
(6.94127e-05 -2.27541e-07 0)
(6.97235e-05 -1.97669e-07 0)
(6.99905e-05 -1.67731e-07 0)
(7.02136e-05 -1.37702e-07 0)
(7.03928e-05 -1.07572e-07 0)
(7.05279e-05 -7.73641e-08 0)
(7.06189e-05 -4.712e-08 0)
(7.06657e-05 -1.6871e-08 0)
(7.06683e-05 1.338e-08 0)
(7.06267e-05 4.36446e-08 0)
(7.05409e-05 7.39166e-08 0)
(7.04109e-05 1.04158e-07 0)
(7.02368e-05 1.34322e-07 0)
(7.00187e-05 1.64397e-07 0)
(6.97566e-05 1.94412e-07 0)
(6.94508e-05 2.24399e-07 0)
(6.91012e-05 2.5433e-07 0)
(6.87081e-05 2.8412e-07 0)
(6.82717e-05 3.13699e-07 0)
(6.77922e-05 3.43074e-07 0)
(6.72698e-05 3.72306e-07 0)
(6.67048e-05 4.01417e-07 0)
(6.60975e-05 4.30343e-07 0)
(6.54484e-05 4.58993e-07 0)
(6.47578e-05 4.87327e-07 0)
(6.40261e-05 5.1537e-07 0)
(6.32537e-05 5.43139e-07 0)
(6.2441e-05 5.70595e-07 0)
(6.15887e-05 5.9766e-07 0)
(6.06973e-05 6.24287e-07 0)
(5.97674e-05 6.50467e-07 0)
(5.87997e-05 6.76205e-07 0)
(5.77949e-05 7.01475e-07 0)
(5.67538e-05 7.26223e-07 0)
(5.56773e-05 7.50392e-07 0)
(5.45661e-05 7.73934e-07 0)
(5.34214e-05 7.96806e-07 0)
(5.2244e-05 8.1896e-07 0)
(5.10351e-05 8.40357e-07 0)
(4.97956e-05 8.60964e-07 0)
(4.85269e-05 8.80739e-07 0)
(4.72303e-05 8.99613e-07 0)
(4.59071e-05 9.175e-07 0)
(4.45589e-05 9.34343e-07 0)
(4.31871e-05 9.50111e-07 0)
(4.17935e-05 9.64773e-07 0)
(4.03796e-05 9.78257e-07 0)
(3.89473e-05 9.90462e-07 0)
(3.74986e-05 1.0013e-06 0)
(3.60355e-05 1.01073e-06 0)
(3.45599e-05 1.01868e-06 0)
(3.30743e-05 1.02508e-06 0)
(3.15808e-05 1.02984e-06 0)
(3.00821e-05 1.03285e-06 0)
(2.85805e-05 1.03404e-06 0)
(2.7079e-05 1.03332e-06 0)
(2.55802e-05 1.03061e-06 0)
(2.40872e-05 1.02583e-06 0)
(2.26029e-05 1.01889e-06 0)
(2.11306e-05 1.00973e-06 0)
(1.96736e-05 9.98196e-07 0)
(1.82354e-05 9.8415e-07 0)
(1.68197e-05 9.6747e-07 0)
(1.54303e-05 9.48089e-07 0)
(1.40709e-05 9.25958e-07 0)
(1.27455e-05 9.00983e-07 0)
(1.14584e-05 8.73021e-07 0)
(1.02139e-05 8.41934e-07 0)
(9.01633e-06 8.07642e-07 0)
(7.87028e-06 7.701e-07 0)
(6.78026e-06 7.29237e-07 0)
(5.75093e-06 6.84943e-07 0)
(4.78704e-06 6.37129e-07 0)
(3.89329e-06 5.858e-07 0)
(3.0743e-06 5.31031e-07 0)
(2.33459e-06 4.72902e-07 0)
(1.67848e-06 4.1152e-07 0)
(1.10985e-06 3.47126e-07 0)
(6.31914e-07 2.80177e-07 0)
(2.47046e-07 2.11377e-07 0)
(-4.35947e-08 1.4175e-07 0)
(-2.40668e-07 7.2846e-08 0)
(-3.4752e-07 7.10349e-09 0)
(-3.71335e-07 -5.16442e-08 0)
(-3.24461e-07 -9.75098e-08 0)
(-2.26467e-07 -1.2155e-07 0)
(-1.10675e-07 -1.10687e-07 0)
(-2.68274e-08 -5.12822e-08 0)
(-2.08498e-08 1.50141e-07 0)
(-9.68903e-08 2.64462e-07 0)
(-2.03567e-07 2.60353e-07 0)
(-2.73843e-07 1.80159e-07 0)
(-2.63915e-07 5.08704e-08 0)
(-1.47609e-07 -1.09276e-07 0)
(9.35477e-08 -2.87016e-07 0)
(4.71201e-07 -4.73933e-07 0)
(9.91288e-07 -6.64547e-07 0)
(1.65539e-06 -8.54349e-07 0)
(2.46222e-06 -1.03992e-06 0)
(3.40894e-06 -1.21906e-06 0)
(4.49139e-06 -1.39089e-06 0)
(5.70403e-06 -1.55443e-06 0)
(7.04061e-06 -1.70892e-06 0)
(8.49468e-06 -1.85401e-06 0)
(1.00592e-05 -1.98972e-06 0)
(1.17271e-05 -2.116e-06 0)
(1.3491e-05 -2.2328e-06 0)
(1.5344e-05 -2.34018e-06 0)
(1.72788e-05 -2.43822e-06 0)
(1.92886e-05 -2.52724e-06 0)
(2.13661e-05 -2.60765e-06 0)
(2.35048e-05 -2.67976e-06 0)
(2.56981e-05 -2.74366e-06 0)
(2.79396e-05 -2.79951e-06 0)
(3.02233e-05 -2.84768e-06 0)
(3.25432e-05 -2.88852e-06 0)
(3.48935e-05 -2.92233e-06 0)
(3.72687e-05 -2.94935e-06 0)
(3.96635e-05 -2.96985e-06 0)
(4.20727e-05 -2.9841e-06 0)
(4.44914e-05 -2.99239e-06 0)
(4.69147e-05 -2.99495e-06 0)
(4.93384e-05 -2.99196e-06 0)
(5.17581e-05 -2.98368e-06 0)
(5.41697e-05 -2.97042e-06 0)
(5.65692e-05 -2.95254e-06 0)
(5.89528e-05 -2.93023e-06 0)
(6.13169e-05 -2.9036e-06 0)
(6.3658e-05 -2.87275e-06 0)
(6.59729e-05 -2.83793e-06 0)
(6.82587e-05 -2.79948e-06 0)
(7.05125e-05 -2.75766e-06 0)
(7.27315e-05 -2.7126e-06 0)
(7.4913e-05 -2.66437e-06 0)
(7.70543e-05 -2.61307e-06 0)
(7.91533e-05 -2.55891e-06 0)
(8.12076e-05 -2.50218e-06 0)
(8.32153e-05 -2.44306e-06 0)
(8.51744e-05 -2.3817e-06 0)
(8.7083e-05 -2.31813e-06 0)
(8.89393e-05 -2.25244e-06 0)
(9.07418e-05 -2.18475e-06 0)
(9.24888e-05 -2.11523e-06 0)
(9.41788e-05 -2.04404e-06 0)
(9.58107e-05 -1.97132e-06 0)
(9.7383e-05 -1.89715e-06 0)
(9.88946e-05 -1.8216e-06 0)
(0.000100344 -1.74471e-06 0)
(0.000101731 -1.66658e-06 0)
(0.000103054 -1.58734e-06 0)
(0.000104313 -1.50713e-06 0)
(0.000105506 -1.42601e-06 0)
(0.000106632 -1.34401e-06 0)
(0.000107692 -1.26117e-06 0)
(0.000108684 -1.17758e-06 0)
(0.000109608 -1.09332e-06 0)
(0.000110463 -1.00847e-06 0)
(0.000111249 -9.23072e-07 0)
(0.000111966 -8.37149e-07 0)
(0.000112612 -7.5076e-07 0)
(0.000113188 -6.63974e-07 0)
(0.000113693 -5.76855e-07 0)
(0.000114127 -4.89444e-07 0)
(0.000114489 -4.01769e-07 0)
(0.000114781 -3.13868e-07 0)
(0.000115001 -2.25793e-07 0)
(0.000115149 -1.37595e-07 0)
(0.000115225 -4.9325e-08 0)
(0.000115229 3.8972e-08 0)
(0.000115161 1.2726e-07 0)
(0.000115022 2.15514e-07 0)
(0.000114811 3.037e-07 0)
(0.000114528 3.91762e-07 0)
(0.000114173 4.79628e-07 0)
(0.000113748 5.67242e-07 0)
(0.000113251 6.54594e-07 0)
(0.000112682 7.41686e-07 0)
(0.000112044 8.28465e-07 0)
(0.000111334 9.14818e-07 0)
(0.000110555 1.00063e-06 0)
(0.000109707 1.08587e-06 0)
(0.000108789 1.17056e-06 0)
(0.000107802 1.25467e-06 0)
(0.000106748 1.33811e-06 0)
(0.000105626 1.42072e-06 0)
(0.000104437 1.50241e-06 0)
(0.000103183 1.58312e-06 0)
(0.000101863 1.66285e-06 0)
(0.000100479 1.74152e-06 0)
(9.9032e-05 1.81902e-06 0)
(9.75224e-05 1.89522e-06 0)
(9.59516e-05 1.97003e-06 0)
(9.43208e-05 2.04334e-06 0)
(9.26313e-05 2.11506e-06 0)
(9.08845e-05 2.18509e-06 0)
(8.90818e-05 2.25331e-06 0)
(8.72247e-05 2.3196e-06 0)
(8.5315e-05 2.38378e-06 0)
(8.33543e-05 2.44572e-06 0)
(8.13446e-05 2.50527e-06 0)
(7.92878e-05 2.56232e-06 0)
(7.7186e-05 2.61675e-06 0)
(7.50415e-05 2.66837e-06 0)
(7.28567e-05 2.71698e-06 0)
(7.06343e-05 2.76241e-06 0)
(6.83767e-05 2.8045e-06 0)
(6.60868e-05 2.8431e-06 0)
(6.37675e-05 2.878e-06 0)
(6.1422e-05 2.90899e-06 0)
(5.90535e-05 2.93583e-06 0)
(5.66655e-05 2.95831e-06 0)
(5.42615e-05 2.97623e-06 0)
(5.18454e-05 2.98936e-06 0)
(4.94211e-05 2.99748e-06 0)
(4.69929e-05 3.00034e-06 0)
(4.4565e-05 2.99771e-06 0)
(4.2142e-05 2.98933e-06 0)
(3.97286e-05 2.97492e-06 0)
(3.73299e-05 2.95421e-06 0)
(3.49508e-05 2.92696e-06 0)
(3.25968e-05 2.89292e-06 0)
(3.02733e-05 2.85181e-06 0)
(2.79863e-05 2.8033e-06 0)
(2.57416e-05 2.74708e-06 0)
(2.35455e-05 2.6829e-06 0)
(2.14042e-05 2.61056e-06 0)
(1.93244e-05 2.52982e-06 0)
(1.73126e-05 2.44039e-06 0)
(1.53758e-05 2.34203e-06 0)
(1.3521e-05 2.2345e-06 0)
(1.17553e-05 2.11769e-06 0)
(1.00857e-05 1.99147e-06 0)
(8.51941e-06 1.8558e-06 0)
(7.0636e-06 1.7107e-06 0)
(5.7251e-06 1.55638e-06 0)
(4.51039e-06 1.39327e-06 0)
(3.42555e-06 1.22196e-06 0)
(2.47594e-06 1.04332e-06 0)
(1.66591e-06 8.5876e-07 0)
(9.98268e-07 6.70439e-07 0)
(4.73797e-07 4.81477e-07 0)
(9.05151e-08 2.9631e-07 0)
(-1.57305e-07 1.21314e-07 0)
(-2.80456e-07 -3.43109e-08 0)
(-2.96157e-07 -1.57403e-07 0)
(-2.29803e-07 -2.29628e-07 0)
(-1.21685e-07 -2.26539e-07 0)
(-3.17433e-08 -1.18909e-07 0)
(-2.34492e-08 1.99772e-07 0)
(-8.45933e-08 3.5276e-07 0)
(-1.40805e-07 3.25864e-07 0)
(-1.30973e-07 1.73614e-07 0)
(-1.04238e-08 -6.52832e-08 0)
(2.50444e-07 -3.60218e-07 0)
(6.72248e-07 -6.89271e-07 0)
(1.26809e-06 -1.03712e-06 0)
(2.04648e-06 -1.39311e-06 0)
(3.01027e-06 -1.74917e-06 0)
(4.15911e-06 -2.09947e-06 0)
(5.48961e-06 -2.43954e-06 0)
(6.99688e-06 -2.76678e-06 0)
(8.67473e-06 -3.07919e-06 0)
(1.05156e-05 -3.37529e-06 0)
(1.25113e-05 -3.6542e-06 0)
(1.46529e-05 -3.91565e-06 0)
(1.69317e-05 -4.15939e-06 0)
(1.93385e-05 -4.38534e-06 0)
(2.18641e-05 -4.59361e-06 0)
(2.44992e-05 -4.78426e-06 0)
(2.72345e-05 -4.95776e-06 0)
(3.00609e-05 -5.11462e-06 0)
(3.29695e-05 -5.25531e-06 0)
(3.5952e-05 -5.38026e-06 0)
(3.89997e-05 -5.48987e-06 0)
(4.21045e-05 -5.58465e-06 0)
(4.52584e-05 -5.66517e-06 0)
(4.84538e-05 -5.73193e-06 0)
(5.16833e-05 -5.78543e-06 0)
(5.49395e-05 -5.82621e-06 0)
(5.82157e-05 -5.85484e-06 0)
(6.15051e-05 -5.87183e-06 0)
(6.48014e-05 -5.87763e-06 0)
(6.80987e-05 -5.87267e-06 0)
(7.13909e-05 -5.85737e-06 0)
(7.46725e-05 -5.83223e-06 0)
(7.79381e-05 -5.7978e-06 0)
(8.11825e-05 -5.75459e-06 0)
(8.4401e-05 -5.703e-06 0)
(8.75889e-05 -5.64335e-06 0)
(9.07416e-05 -5.57594e-06 0)
(9.38549e-05 -5.50116e-06 0)
(9.69251e-05 -5.41951e-06 0)
(9.99482e-05 -5.33141e-06 0)
(0.000102921 -5.2372e-06 0)
(0.000105839 -5.13714e-06 0)
(0.0001087 -5.03151e-06 0)
(0.000111501 -4.92062e-06 0)
(0.000114238 -4.80484e-06 0)
(0.000116909 -4.6845e-06 0)
(0.000119512 -4.55984e-06 0)
(0.000122044 -4.4311e-06 0)
(0.000124503 -4.29848e-06 0)
(0.000126886 -4.16221e-06 0)
(0.000129192 -4.02252e-06 0)
(0.000131419 -3.87965e-06 0)
(0.000133565 -3.73386e-06 0)
(0.000135628 -3.58537e-06 0)
(0.000137607 -3.43437e-06 0)
(0.0001395 -3.28099e-06 0)
(0.000141306 -3.12534e-06 0)
(0.000143024 -2.9676e-06 0)
(0.000144653 -2.80796e-06 0)
(0.000146192 -2.64657e-06 0)
(0.000147639 -2.4836e-06 0)
(0.000148994 -2.31916e-06 0)
(0.000150256 -2.15337e-06 0)
(0.000151424 -1.98633e-06 0)
(0.000152497 -1.81817e-06 0)
(0.000153476 -1.649e-06 0)
(0.000154359 -1.47892e-06 0)
(0.000155145 -1.30803e-06 0)
(0.000155835 -1.13644e-06 0)
(0.000156428 -9.64245e-07 0)
(0.000156924 -7.91546e-07 0)
(0.000157322 -6.18426e-07 0)
(0.000157623 -4.44968e-07 0)
(0.000157825 -2.71252e-07 0)
(0.000157929 -9.73602e-08 0)
(0.000157935 7.66155e-08 0)
(0.000157843 2.50576e-07 0)
(0.000157653 4.24428e-07 0)
(0.000157364 5.98096e-07 0)
(0.000156978 7.71518e-07 0)
(0.000156494 9.44615e-07 0)
(0.000155912 1.11727e-06 0)
(0.000155233 1.28937e-06 0)
(0.000154457 1.46082e-06 0)
(0.000153585 1.63157e-06 0)
(0.000152616 1.80153e-06 0)
(0.000151552 1.97056e-06 0)
(0.000150393 2.1385e-06 0)
(0.000149139 2.3052e-06 0)
(0.000147792 2.47059e-06 0)
(0.000146353 2.63458e-06 0)
(0.000144821 2.79704e-06 0)
(0.000143198 2.95777e-06 0)
(0.000141486 3.1166e-06 0)
(0.000139684 3.27337e-06 0)
(0.000137795 3.42796e-06 0)
(0.00013582 3.58018e-06 0)
(0.00013376 3.72986e-06 0)
(0.000131616 3.87676e-06 0)
(0.000129391 4.0207e-06 0)
(0.000127086 4.16146e-06 0)
(0.000124703 4.29884e-06 0)
(0.000122244 4.4326e-06 0)
(0.000119712 4.56248e-06 0)
(0.000117107 4.68823e-06 0)
(0.000114434 4.80957e-06 0)
(0.000111694 4.9262e-06 0)
(0.00010889 5.03783e-06 0)
(0.000106026 5.14419e-06 0)
(0.000103103 5.245e-06 0)
(0.000100126 5.33995e-06 0)
(9.70983e-05 5.42865e-06 0)
(9.40229e-05 5.51074e-06 0)
(9.09041e-05 5.58584e-06 0)
(8.77457e-05 5.65361e-06 0)
(8.4552e-05 5.71367e-06 0)
(8.13274e-05 5.76561e-06 0)
(7.80768e-05 5.809e-06 0)
(7.4805e-05 5.84341e-06 0)
(7.15171e-05 5.8684e-06 0)
(6.82186e-05 5.88355e-06 0)
(6.49151e-05 5.88839e-06 0)
(6.16126e-05 5.88248e-06 0)
(5.83171e-05 5.86531e-06 0)
(5.5035e-05 5.83638e-06 0)
(5.17731e-05 5.79516e-06 0)
(4.85382e-05 5.74115e-06 0)
(4.53375e-05 5.67388e-06 0)
(4.21785e-05 5.59286e-06 0)
(3.90688e-05 5.49756e-06 0)
(3.60166e-05 5.38745e-06 0)
(3.30299e-05 5.262e-06 0)
(3.01173e-05 5.12074e-06 0)
(2.72872e-05 4.96324e-06 0)
(2.45486e-05 4.78912e-06 0)
(2.19106e-05 4.59799e-06 0)
(1.93821e-05 4.38949e-06 0)
(1.69725e-05 4.16339e-06 0)
(1.46909e-05 3.91962e-06 0)
(1.25463e-05 3.65824e-06 0)
(1.05479e-05 3.37943e-06 0)
(8.70419e-06 3.08368e-06 0)
(7.02334e-06 2.77188e-06 0)
(5.51261e-06 2.44547e-06 0)
(4.17833e-06 2.10648e-06 0)
(3.02545e-06 1.75781e-06 0)
(2.05697e-06 1.40362e-06 0)
(1.27325e-06 1.04972e-06 0)
(6.71251e-07 7.04248e-07 0)
(2.43604e-07 3.78459e-07 0)
(-2.26129e-08 8.78507e-08 0)
(-1.47128e-07 -1.46438e-07 0)
(-1.58038e-07 -2.96136e-07 0)
(-9.7828e-08 -3.24725e-07 0)
(-2.82262e-08 -1.84638e-07 0)
(-1.82263e-08 2.4052e-07 0)
(-4.51431e-08 3.94365e-07 0)
(-2.47823e-08 3.0838e-07 0)
(9.67445e-08 5.05706e-08 0)
(3.61682e-07 -3.29028e-07 0)
(8.00308e-07 -7.91052e-07 0)
(1.43313e-06 -1.30598e-06 0)
(2.27426e-06 -1.85092e-06 0)
(3.33252e-06 -2.40954e-06 0)
(4.61197e-06 -2.96974e-06 0)
(6.11242e-06 -3.5226e-06 0)
(7.83063e-06 -4.06132e-06 0)
(9.76115e-06 -4.58111e-06 0)
(1.18972e-05 -5.07864e-06 0)
(1.42303e-05 -5.55155e-06 0)
(1.6751e-05 -5.99817e-06 0)
(1.9449e-05 -6.41763e-06 0)
(2.23142e-05 -6.80936e-06 0)
(2.53356e-05 -7.17305e-06 0)
(2.85025e-05 -7.50882e-06 0)
(3.18037e-05 -7.81695e-06 0)
(3.5228e-05 -8.09795e-06 0)
(3.87644e-05 -8.35234e-06 0)
(4.24024e-05 -8.58066e-06 0)
(4.61315e-05 -8.78367e-06 0)
(4.99416e-05 -8.96213e-06 0)
(5.38224e-05 -9.11677e-06 0)
(5.77643e-05 -9.24835e-06 0)
(6.17579e-05 -9.3577e-06 0)
(6.5794e-05 -9.44563e-06 0)
(6.98637e-05 -9.51296e-06 0)
(7.39584e-05 -9.56049e-06 0)
(7.807e-05 -9.58901e-06 0)
(8.21906e-05 -9.59932e-06 0)
(8.63128e-05 -9.59217e-06 0)
(9.04291e-05 -9.56831e-06 0)
(9.45326e-05 -9.52845e-06 0)
(9.86164e-05 -9.4733e-06 0)
(0.000102674 -9.40364e-06 0)
(0.0001067 -9.32021e-06 0)
(0.000110688 -9.22367e-06 0)
(0.000114633 -9.11458e-06 0)
(0.000118529 -8.9935e-06 0)
(0.000122371 -8.86104e-06 0)
(0.000126155 -8.71785e-06 0)
(0.000129876 -8.56456e-06 0)
(0.00013353 -8.40173e-06 0)
(0.000137113 -8.22986e-06 0)
(0.00014062 -8.04942e-06 0)
(0.000144048 -7.86086e-06 0)
(0.000147394 -7.66466e-06 0)
(0.000150655 -7.46128e-06 0)
(0.000153827 -7.25114e-06 0)
(0.000156908 -7.03465e-06 0)
(0.000159894 -6.81221e-06 0)
(0.000162784 -6.58416e-06 0)
(0.000165575 -6.35086e-06 0)
(0.000168265 -6.11268e-06 0)
(0.000170851 -5.86999e-06 0)
(0.000173332 -5.62312e-06 0)
(0.000175705 -5.37231e-06 0)
(0.00017797 -5.11778e-06 0)
(0.000180125 -4.85977e-06 0)
(0.000182168 -4.59859e-06 0)
(0.000184097 -4.33452e-06 0)
(0.000185912 -4.06783e-06 0)
(0.000187612 -3.7987e-06 0)
(0.000189195 -3.52729e-06 0)
(0.00019066 -3.2538e-06 0)
(0.000192007 -2.97842e-06 0)
(0.000193234 -2.70137e-06 0)
(0.000194342 -2.42284e-06 0)
(0.000195329 -2.14299e-06 0)
(0.000196195 -1.86196e-06 0)
(0.000196939 -1.57991e-06 0)
(0.000197561 -1.297e-06 0)
(0.000198061 -1.01339e-06 0)
(0.000198438 -7.29232e-07 0)
(0.000198692 -4.44658e-07 0)
(0.000198823 -1.59786e-07 0)
(0.00019883 1.25253e-07 0)
(0.000198715 4.10289e-07 0)
(0.000198476 6.95139e-07 0)
(0.000198114 9.79647e-07 0)
(0.00019763 1.26371e-06 0)
(0.000197023 1.54723e-06 0)
(0.000196293 1.83007e-06 0)
(0.000195441 2.11203e-06 0)
(0.000194468 2.39289e-06 0)
(0.000193374 2.6725e-06 0)
(0.000192159 2.95074e-06 0)
(0.000190824 3.22744e-06 0)
(0.00018937 3.50239e-06 0)
(0.000187798 3.77534e-06 0)
(0.000186109 4.04609e-06 0)
(0.000184303 4.31445e-06 0)
(0.000182383 4.58023e-06 0)
(0.000180348 4.84317e-06 0)
(0.000178201 5.103e-06 0)
(0.000175942 5.35943e-06 0)
(0.000173574 5.6122e-06 0)
(0.000171098 5.86103e-06 0)
(0.000168516 6.10561e-06 0)
(0.000165829 6.34565e-06 0)
(0.000163041 6.5808e-06 0)
(0.000160152 6.81071e-06 0)
(0.000157166 7.03499e-06 0)
(0.000154085 7.25326e-06 0)
(0.000150912 7.46512e-06 0)
(0.00014765 7.67018e-06 0)
(0.000144302 7.86799e-06 0)
(0.00014087 8.0581e-06 0)
(0.000137359 8.23999e-06 0)
(0.000133772 8.41319e-06 0)
(0.000130113 8.5772e-06 0)
(0.000126387 8.73155e-06 0)
(0.000122597 8.87566e-06 0)
(0.000118748 9.00895e-06 0)
(0.000114845 9.13079e-06 0)
(0.000110893 9.24059e-06 0)
(0.000106898 9.33772e-06 0)
(0.000102864 9.42157e-06 0)
(9.87985e-05 9.49144e-06 0)
(9.47066e-05 9.54666e-06 0)
(9.05952e-05 9.58651e-06 0)
(8.64709e-05 9.6103e-06 0)
(8.23408e-05 9.61727e-06 0)
(7.82122e-05 9.60669e-06 0)
(7.40927e-05 9.57778e-06 0)
(6.99902e-05 9.52976e-06 0)
(6.59131e-05 9.46185e-06 0)
(6.18698e-05 9.37323e-06 0)
(5.78693e-05 9.26312e-06 0)
(5.39206e-05 9.13074e-06 0)
(5.00333e-05 8.97531e-06 0)
(4.62172e-05 8.79605e-06 0)
(4.24822e-05 8.59218e-06 0)
(3.88387e-05 8.36294e-06 0)
(3.52971e-05 8.1077e-06 0)
(3.18682e-05 7.82593e-06 0)
(2.85628e-05 7.51712e-06 0)
(2.53919e-05 7.18084e-06 0)
(2.23663e-05 6.81678e-06 0)
(1.94972e-05 6.4249e-06 0)
(1.67951e-05 6.00547e-06 0)
(1.42705e-05 5.55907e-06 0)
(1.19335e-05 5.08668e-06 0)
(9.79338e-06 4.5899e-06 0)
(7.85846e-06 4.07117e-06 0)
(6.13573e-06 3.53395e-06 0)
(4.6305e-06 2.98306e-06 0)
(3.3458e-06 2.42504e-06 0)
(2.28178e-06 1.86886e-06 0)
(1.43488e-06 1.32671e-06 0)
(7.96973e-07 8.15043e-07 0)
(3.54289e-07 3.55788e-07 0)
(8.63697e-08 -2.20543e-08 0)
(-3.5458e-08 -2.807e-07 0)
(-5.22104e-08 -3.719e-07 0)
(-2.01984e-08 -2.30864e-07 0)
(-9.11973e-09 2.56638e-07 0)
(9.74799e-09 3.6807e-07 0)
(1.25748e-07 1.83864e-07 0)
(3.82603e-07 -2.15077e-07 0)
(8.17115e-07 -7.68749e-07 0)
(1.45745e-06 -1.4304e-06 0)
(2.32426e-06 -2.16292e-06 0)
(3.4311e-06 -2.9374e-06 0)
(4.78649e-06 -3.73166e-06 0)
(6.39407e-06 -4.52929e-06 0)
(8.25421e-06 -5.31808e-06 0)
(1.03635e-05 -6.08857e-06 0)
(1.27159e-05 -6.8336e-06 0)
(1.53042e-05 -7.54824e-06 0)
(1.81193e-05 -8.22894e-06 0)
(2.11505e-05 -8.8732e-06 0)
(2.43867e-05 -9.47938e-06 0)
(2.78165e-05 -1.00464e-05 0)
(3.14276e-05 -1.05736e-05 0)
(3.52077e-05 -1.1061e-05 0)
(3.91442e-05 -1.15091e-05 0)
(4.32242e-05 -1.19184e-05 0)
(4.74355e-05 -1.22894e-05 0)
(5.17657e-05 -1.26227e-05 0)
(5.62027e-05 -1.29196e-05 0)
(6.07346e-05 -1.31808e-05 0)
(6.53498e-05 -1.34075e-05 0)
(7.0037e-05 -1.36007e-05 0)
(7.47852e-05 -1.37616e-05 0)
(7.95836e-05 -1.38912e-05 0)
(8.44218e-05 -1.39908e-05 0)
(8.92898e-05 -1.40615e-05 0)
(9.4178e-05 -1.41044e-05 0)
(9.90771e-05 -1.41205e-05 0)
(0.000103978 -1.4111e-05 0)
(0.000108873 -1.4077e-05 0)
(0.000113752 -1.40197e-05 0)
(0.000118609 -1.39399e-05 0)
(0.000123435 -1.38387e-05 0)
(0.000128224 -1.37172e-05 0)
(0.000132968 -1.35762e-05 0)
(0.000137661 -1.34168e-05 0)
(0.000142297 -1.32399e-05 0)
(0.000146869 -1.30462e-05 0)
(0.000151373 -1.28366e-05 0)
(0.000155801 -1.2612e-05 0)
(0.000160151 -1.23733e-05 0)
(0.000164415 -1.21212e-05 0)
(0.000168591 -1.18564e-05 0)
(0.000172673 -1.15797e-05 0)
(0.000176658 -1.12916e-05 0)
(0.000180541 -1.09929e-05 0)
(0.000184319 -1.0684e-05 0)
(0.000187988 -1.03657e-05 0)
(0.000191546 -1.00387e-05 0)
(0.000194989 -9.70331e-06 0)
(0.000198314 -9.36019e-06 0)
(0.000201519 -9.00981e-06 0)
(0.000204601 -8.65264e-06 0)
(0.000207557 -8.28916e-06 0)
(0.000210386 -7.91982e-06 0)
(0.000213086 -7.54499e-06 0)
(0.000215654 -7.16504e-06 0)
(0.000218089 -6.78036e-06 0)
(0.000220389 -6.39133e-06 0)
(0.000222553 -5.99833e-06 0)
(0.000224579 -5.60168e-06 0)
(0.000226467 -5.20166e-06 0)
(0.000228214 -4.79852e-06 0)
(0.00022982 -4.39256e-06 0)
(0.000231284 -3.9841e-06 0)
(0.000232605 -3.57343e-06 0)
(0.000233782 -3.16081e-06 0)
(0.000234815 -2.74644e-06 0)
(0.000235702 -2.33053e-06 0)
(0.000236444 -1.91331e-06 0)
(0.00023704 -1.49502e-06 0)
(0.00023749 -1.0759e-06 0)
(0.000237793 -6.56164e-07 0)
(0.000237949 -2.3601e-07 0)
(0.000237959 1.8436e-07 0)
(0.000237821 6.0473e-07 0)
(0.000237537 1.02487e-06 0)
(0.000237106 1.44455e-06 0)
(0.000236528 1.86355e-06 0)
(0.000235804 2.28166e-06 0)
(0.000234934 2.6987e-06 0)
(0.000233919 3.11445e-06 0)
(0.000232758 3.52862e-06 0)
(0.000231453 3.94094e-06 0)
(0.000230005 4.35113e-06 0)
(0.000228414 4.75897e-06 0)
(0.000226681 5.16421e-06 0)
(0.000224807 5.56654e-06 0)
(0.000222793 5.96562e-06 0)
(0.000220641 6.36109e-06 0)
(0.000218352 6.75264e-06 0)
(0.000215926 7.13992e-06 0)
(0.000213367 7.5226e-06 0)
(0.000210676 7.90025e-06 0)
(0.000207853 8.27245e-06 0)
(0.000204903 8.63877e-06 0)
(0.000201826 8.99876e-06 0)
(0.000198625 9.35195e-06 0)
(0.000195303 9.69787e-06 0)
(0.000191862 1.0036e-05 0)
(0.000188305 1.03658e-05 0)
(0.000184636 1.06867e-05 0)
(0.000180857 1.0998e-05 0)
(0.000176972 1.12993e-05 0)
(0.000172984 1.15898e-05 0)
(0.000168899 1.18688e-05 0)
(0.000164719 1.21358e-05 0)
(0.000160449 1.23899e-05 0)
(0.000156094 1.26304e-05 0)
(0.000151658 1.28566e-05 0)
(0.000147148 1.30676e-05 0)
(0.000142568 1.32626e-05 0)
(0.000137924 1.34408e-05 0)
(0.000133222 1.36012e-05 0)
(0.000128469 1.3743e-05 0)
(0.000123671 1.38651e-05 0)
(0.000118835 1.39667e-05 0)
(0.000113969 1.40468e-05 0)
(0.000109079 1.41043e-05 0)
(0.000104175 1.41381e-05 0)
(9.92642e-05 1.41474e-05 0)
(9.43552e-05 1.41308e-05 0)
(8.94573e-05 1.40874e-05 0)
(8.45797e-05 1.40161e-05 0)
(7.97321e-05 1.39158e-05 0)
(7.49247e-05 1.37852e-05 0)
(7.01677e-05 1.36233e-05 0)
(6.5472e-05 1.3429e-05 0)
(6.08486e-05 1.32011e-05 0)
(5.63087e-05 1.29387e-05 0)
(5.18642e-05 1.26407e-05 0)
(4.75268e-05 1.23061e-05 0)
(4.33089e-05 1.1934e-05 0)
(3.92227e-05 1.15237e-05 0)
(3.52805e-05 1.10746e-05 0)
(3.14949e-05 1.05863e-05 0)
(2.78783e-05 1.00584e-05 0)
(2.44432e-05 9.49114e-06 0)
(2.12017e-05 8.88494e-06 0)
(1.81653e-05 8.24092e-06 0)
(1.53454e-05 7.56078e-06 0)
(1.2752e-05 6.84702e-06 0)
(1.03944e-05 6.10325e-06 0)
(8.27999e-06 5.33456e-06 0)
(6.41454e-06 4.54788e-06 0)
(4.80126e-06 3.75249e-06 0)
(3.44035e-06 2.96074e-06 0)
(2.3283e-06 2.189e-06 0)
(1.45704e-06 1.45884e-06 0)
(8.1305e-07 7.98333e-07 0)
(3.76463e-07 2.43877e-07 0)
(1.19749e-07 -1.58055e-07 0)
(6.25805e-09 -3.48647e-07 0)
(-9.93037e-09 -2.48988e-07 0)
(1.61322e-09 2.40903e-07 0)
(7.31946e-08 2.60167e-07 0)
(2.97591e-07 -6.43065e-08 0)
(7.05885e-07 -6.41947e-07 0)
(1.32722e-06 -1.40484e-06 0)
(2.18723e-06 -2.29842e-06 0)
(3.3046e-06 -3.27926e-06 0)
(4.69201e-06 -4.31305e-06 0)
(6.35693e-06 -5.37281e-06 0)
(8.3023e-06 -6.43752e-06 0)
(1.05278e-05 -7.49155e-06 0)
(1.30301e-05 -8.52276e-06 0)
(1.58029e-05 -9.52163e-06 0)
(1.88379e-05 -1.04814e-05 0)
(2.21254e-05 -1.13971e-05 0)
(2.56542e-05 -1.22654e-05 0)
(2.94123e-05 -1.30835e-05 0)
(3.33872e-05 -1.38497e-05 0)
(3.75656e-05 -1.45635e-05 0)
(4.19336e-05 -1.52242e-05 0)
(4.64774e-05 -1.58323e-05 0)
(5.11831e-05 -1.63884e-05 0)
(5.6037e-05 -1.68931e-05 0)
(6.10253e-05 -1.73472e-05 0)
(6.61343e-05 -1.7752e-05 0)
(7.1351e-05 -1.81086e-05 0)
(7.66621e-05 -1.84184e-05 0)
(8.2055e-05 -1.86829e-05 0)
(8.75171e-05 -1.89034e-05 0)
(9.30364e-05 -1.90814e-05 0)
(9.86011e-05 -1.92185e-05 0)
(0.0001042 -1.93161e-05 0)
(0.000109822 -1.93757e-05 0)
(0.000115456 -1.93989e-05 0)
(0.000121093 -1.93869e-05 0)
(0.000126723 -1.93414e-05 0)
(0.000132335 -1.92638e-05 0)
(0.000137922 -1.91557e-05 0)
(0.000143474 -1.90182e-05 0)
(0.000148983 -1.88526e-05 0)
(0.000154441 -1.86603e-05 0)
(0.00015984 -1.84425e-05 0)
(0.000165175 -1.82007e-05 0)
(0.000170436 -1.79359e-05 0)
(0.000175619 -1.76492e-05 0)
(0.000180717 -1.73419e-05 0)
(0.000185723 -1.7015e-05 0)
(0.000190632 -1.66695e-05 0)
(0.000195439 -1.63066e-05 0)
(0.000200139 -1.59271e-05 0)
(0.000204727 -1.5532e-05 0)
(0.000209199 -1.5122e-05 0)
(0.00021355 -1.46982e-05 0)
(0.000217776 -1.42613e-05 0)
(0.000221874 -1.38122e-05 0)
(0.00022584 -1.33516e-05 0)
(0.000229671 -1.28802e-05 0)
(0.000233363 -1.23988e-05 0)
(0.000236913 -1.1908e-05 0)
(0.00024032 -1.14084e-05 0)
(0.00024358 -1.09006e-05 0)
(0.00024669 -1.03852e-05 0)
(0.00024965 -9.86266e-06 0)
(0.000252457 -9.3336e-06 0)
(0.000255108 -8.79849e-06 0)
(0.000257602 -8.25781e-06 0)
(0.000259937 -7.71201e-06 0)
(0.000262113 -7.1615e-06 0)
(0.000264127 -6.60669e-06 0)
(0.000265979 -6.048e-06 0)
(0.000267667 -5.48582e-06 0)
(0.000269189 -4.92055e-06 0)
(0.000270547 -4.35252e-06 0)