/*--------------------------------*- C++ -*----------------------------------*\
  =========                 |
  \\      /  F ield         | OpenFOAM: The Open Source CFD Toolbox
   \\    /   O peration     | Website:  https://openfoam.org
    \\  /    A nd           | Version:  7
     \\/     M anipulation  |
\*---------------------------------------------------------------------------*/
FoamFile
{
    version     2.0;
    format      ascii;
    class       volVectorField;
    location    "0.4";
    object      U;
}
// * * * * * * * * * * * * * * * * * * * * * * * * * * * * * * * * * * * * * //

dimensions      [0 1 -1 0 0 0 0];

internalField   nonuniform List<vector> 
51200
(
(7.55684e-08 9.59707e-08 0)
(-4.46446e-08 1.26983e-07 0)
(-6.76802e-08 4.57615e-08 0)
(-1.14686e-07 1.46717e-08 0)
(-6.16986e-08 -9.10758e-09 0)
(2.28971e-08 -2.45366e-08 0)
(1.3393e-07 -3.51671e-08 0)
(2.65654e-07 -4.23531e-08 0)
(4.13644e-07 -4.75999e-08 0)
(5.73435e-07 -5.15068e-08 0)
(7.42748e-07 -5.39146e-08 0)
(9.18504e-07 -5.56256e-08 0)
(1.09863e-06 -5.66098e-08 0)
(1.28156e-06 -5.6905e-08 0)
(1.46486e-06 -5.68434e-08 0)
(1.64729e-06 -5.63746e-08 0)
(1.82787e-06 -5.52626e-08 0)
(2.00488e-06 -5.39784e-08 0)
(2.17746e-06 -5.25309e-08 0)
(2.34502e-06 -5.03956e-08 0)
(2.50632e-06 -4.81773e-08 0)
(2.66074e-06 -4.60293e-08 0)
(2.80827e-06 -4.37551e-08 0)
(2.94788e-06 -4.15988e-08 0)
(3.07923e-06 -3.94814e-08 0)
(3.20243e-06 -3.70691e-08 0)
(3.31686e-06 -3.44336e-08 0)
(3.42235e-06 -3.18332e-08 0)
(3.51908e-06 -2.93302e-08 0)
(3.60694e-06 -2.66749e-08 0)
(3.68584e-06 -2.38971e-08 0)
(3.75585e-06 -2.12388e-08 0)
(3.8171e-06 -1.85546e-08 0)
(3.86984e-06 -1.58918e-08 0)
(3.9141e-06 -1.35514e-08 0)
(3.95006e-06 -1.13929e-08 0)
(3.97813e-06 -9.10702e-09 0)
(3.99851e-06 -6.76925e-09 0)
(4.01141e-06 -4.57589e-09 0)
(4.01731e-06 -2.56603e-09 0)
(4.01661e-06 -6.72945e-10 0)
(4.00951e-06 1.19477e-09 0)
(3.99638e-06 2.96506e-09 0)
(3.97769e-06 4.5031e-09 0)
(3.95382e-06 5.90056e-09 0)
(3.9253e-06 7.2509e-09 0)
(3.8925e-06 8.477e-09 0)
(3.85566e-06 9.53164e-09 0)
(3.81528e-06 1.05655e-08 0)
(3.77191e-06 1.15565e-08 0)
(3.72587e-06 1.23412e-08 0)
(3.67754e-06 1.28811e-08 0)
(3.62738e-06 1.33321e-08 0)
(3.57579e-06 1.37939e-08 0)
(3.52306e-06 1.41802e-08 0)
(3.46961e-06 1.43695e-08 0)
(3.41592e-06 1.43245e-08 0)
(3.36239e-06 1.41566e-08 0)
(3.30931e-06 1.40016e-08 0)
(3.25704e-06 1.38325e-08 0)
(3.20588e-06 1.35445e-08 0)
(3.15616e-06 1.31215e-08 0)
(3.10833e-06 1.26423e-08 0)
(3.06266e-06 1.2151e-08 0)
(3.01925e-06 1.1567e-08 0)
(2.97836e-06 1.0806e-08 0)
(2.94038e-06 9.9305e-09 0)
(2.90562e-06 9.03243e-09 0)
(2.87416e-06 8.09771e-09 0)
(2.84608e-06 7.08847e-09 0)
(2.82154e-06 6.01909e-09 0)
(2.80078e-06 4.91717e-09 0)
(2.78395e-06 3.82785e-09 0)
(2.77119e-06 2.79889e-09 0)
(2.76263e-06 1.77938e-09 0)
(2.75826e-06 6.49615e-10 0)
(2.75808e-06 -5.97112e-10 0)
(2.76213e-06 -1.83037e-09 0)
(2.77048e-06 -2.96151e-09 0)
(2.78311e-06 -4.04362e-09 0)
(2.79995e-06 -5.15017e-09 0)
(2.82103e-06 -6.28346e-09 0)
(2.84631e-06 -7.43733e-09 0)
(2.87567e-06 -8.62287e-09 0)
(2.90892e-06 -9.78706e-09 0)
(2.94588e-06 -1.08359e-08 0)
(2.9865e-06 -1.17703e-08 0)
(3.03074e-06 -1.26593e-08 0)
(3.0784e-06 -1.35316e-08 0)
(3.1293e-06 -1.4362e-08 0)
(3.18312e-06 -1.50901e-08 0)
(3.23954e-06 -1.57191e-08 0)
(3.29842e-06 -1.63398e-08 0)
(3.35956e-06 -1.69718e-08 0)
(3.42267e-06 -1.75406e-08 0)
(3.48736e-06 -1.79694e-08 0)
(3.55322e-06 -1.82261e-08 0)
(3.62002e-06 -1.83616e-08 0)
(3.68752e-06 -1.84219e-08 0)
(3.75534e-06 -1.84012e-08 0)
(3.82311e-06 -1.82911e-08 0)
(3.89041e-06 -1.80571e-08 0)
(3.9569e-06 -1.77197e-08 0)
(4.02231e-06 -1.73354e-08 0)
(4.08613e-06 -1.68577e-08 0)
(4.14796e-06 -1.62191e-08 0)
(4.20744e-06 -1.53924e-08 0)
(4.26415e-06 -1.43905e-08 0)
(4.31773e-06 -1.33141e-08 0)
(4.36778e-06 -1.22348e-08 0)
(4.41388e-06 -1.11005e-08 0)
(4.45563e-06 -9.83401e-09 0)
(4.49257e-06 -8.38475e-09 0)
(4.52431e-06 -6.76749e-09 0)
(4.55059e-06 -5.07816e-09 0)
(4.57109e-06 -3.32674e-09 0)
(4.58539e-06 -1.44477e-09 0)
(4.59316e-06 5.53308e-10 0)
(4.59395e-06 2.64635e-09 0)
(4.58738e-06 4.82084e-09 0)
(4.57331e-06 7.03261e-09 0)
(4.55139e-06 9.33808e-09 0)
(4.52129e-06 1.1784e-08 0)
(4.48286e-06 1.42852e-08 0)
(4.43583e-06 1.67997e-08 0)
(4.37998e-06 1.93629e-08 0)
(4.31526e-06 2.19631e-08 0)
(4.24154e-06 2.46028e-08 0)
(4.15868e-06 2.73135e-08 0)
(4.06678e-06 3.00312e-08 0)
(3.96579e-06 3.26802e-08 0)
(3.85564e-06 3.52748e-08 0)
(3.73656e-06 3.78261e-08 0)
(3.60874e-06 4.0363e-08 0)
(3.47232e-06 4.29256e-08 0)
(3.32765e-06 4.53998e-08 0)
(3.17513e-06 4.76399e-08 0)
(3.01504e-06 4.97158e-08 0)
(2.84794e-06 5.17463e-08 0)
(2.67454e-06 5.36547e-08 0)
(2.49551e-06 5.52928e-08 0)
(2.31161e-06 5.65952e-08 0)
(2.12386e-06 5.75488e-08 0)
(1.93328e-06 5.8209e-08 0)
(1.741e-06 5.86363e-08 0)
(1.54849e-06 5.869e-08 0)
(1.35726e-06 5.81314e-08 0)
(1.16888e-06 5.69126e-08 0)
(9.8524e-07 5.51018e-08 0)
(8.08517e-07 5.26731e-08 0)
(6.40967e-07 4.95154e-08 0)
(4.85122e-07 4.5451e-08 0)
(3.43909e-07 4.02436e-08 0)
(2.20369e-07 3.37591e-08 0)
(1.1763e-07 2.60498e-08 0)
(3.91162e-08 1.72338e-08 0)
(-1.19408e-08 7.58713e-09 0)
(-3.42327e-08 -1.93339e-09 0)
(-3.09964e-08 -9.69773e-09 0)
(-1.2311e-08 -1.02043e-08 0)
(1.086e-07 6.31697e-09 0)
(1.29286e-07 1.45267e-07 0)
(1.09327e-07 3.48478e-08 0)
(1.6758e-07 -4.67521e-08 0)
(3.13995e-07 -1.21119e-07 0)
(5.3306e-07 -1.81713e-07 0)
(8.15457e-07 -2.29361e-07 0)
(1.15137e-06 -2.6631e-07 0)
(1.53028e-06 -2.95797e-07 0)
(1.94495e-06 -3.1785e-07 0)
(2.38664e-06 -3.34555e-07 0)
(2.84851e-06 -3.46158e-07 0)
(3.32513e-06 -3.53167e-07 0)
(3.80995e-06 -3.56884e-07 0)
(4.29857e-06 -3.57405e-07 0)
(4.78675e-06 -3.54739e-07 0)
(5.26994e-06 -3.49698e-07 0)
(5.74514e-06 -3.42523e-07 0)
(6.20954e-06 -3.33162e-07 0)
(6.65996e-06 -3.22151e-07 0)
(7.0943e-06 -3.09643e-07 0)
(7.51091e-06 -2.95725e-07 0)
(7.90752e-06 -2.80942e-07 0)
(8.28303e-06 -2.65595e-07 0)
(8.63653e-06 -2.49438e-07 0)
(8.96657e-06 -2.32734e-07 0)
(9.27265e-06 -2.15528e-07 0)
(9.55436e-06 -1.98029e-07 0)
(9.81116e-06 -1.80486e-07 0)
(1.0043e-05 -1.62888e-07 0)
(1.025e-05 -1.45409e-07 0)
(1.0432e-05 -1.28125e-07 0)
(1.05894e-05 -1.10814e-07 0)
(1.07228e-05 -9.37707e-08 0)
(1.08326e-05 -7.73925e-08 0)
(1.09194e-05 -6.15207e-08 0)
(1.09838e-05 -4.60575e-08 0)
(1.10266e-05 -3.11804e-08 0)
(1.10487e-05 -1.69538e-08 0)
(1.10511e-05 -3.37965e-09 0)
(1.10346e-05 9.49449e-09 0)
(1.10005e-05 2.17003e-08 0)
(1.09496e-05 3.31584e-08 0)
(1.08831e-05 4.37153e-08 0)
(1.0802e-05 5.3535e-08 0)
(1.07079e-05 6.2608e-08 0)
(1.06015e-05 7.06957e-08 0)
(1.0484e-05 7.78787e-08 0)
(1.03568e-05 8.44716e-08 0)
(1.02211e-05 9.0322e-08 0)
(1.0078e-05 9.52407e-08 0)
(9.92869e-06 9.9228e-08 0)
(9.77448e-06 1.02417e-07 0)
(9.61647e-06 1.04896e-07 0)
(9.45581e-06 1.06607e-07 0)
(9.2936e-06 1.07514e-07 0)
(9.13087e-06 1.0759e-07 0)
(8.96876e-06 1.06884e-07 0)
(8.80844e-06 1.05535e-07 0)
(8.65087e-06 1.03536e-07 0)
(8.49681e-06 1.00832e-07 0)
(8.34719e-06 9.75299e-08 0)
(8.20314e-06 9.37519e-08 0)
(8.06553e-06 8.94289e-08 0)
(7.93499e-06 8.44564e-08 0)
(7.81222e-06 7.89231e-08 0)
(7.69801e-06 7.30122e-08 0)
(7.59305e-06 6.67203e-08 0)
(7.49795e-06 5.99564e-08 0)
(7.41324e-06 5.27682e-08 0)
(7.33935e-06 4.52523e-08 0)
(7.27669e-06 3.74606e-08 0)
(7.22561e-06 2.95108e-08 0)
(7.18646e-06 2.15169e-08 0)
(7.1595e-06 1.33954e-08 0)
(7.14494e-06 4.99706e-09 0)
(7.14301e-06 -3.6008e-09 0)
(7.15395e-06 -1.2193e-08 0)
(7.17767e-06 -2.0719e-08 0)
(7.21391e-06 -2.92108e-08 0)
(7.26259e-06 -3.76119e-08 0)
(7.32377e-06 -4.5845e-08 0)
(7.39733e-06 -5.39361e-08 0)
(7.48298e-06 -6.19693e-08 0)
(7.58039e-06 -6.99129e-08 0)
(7.68919e-06 -7.75673e-08 0)
(7.80888e-06 -8.47908e-08 0)
(7.93898e-06 -9.1589e-08 0)
(8.07906e-06 -9.79879e-08 0)
(8.22869e-06 -1.04032e-07 0)
(8.38718e-06 -1.09704e-07 0)
(8.55361e-06 -1.14883e-07 0)
(8.72733e-06 -1.19523e-07 0)
(8.90776e-06 -1.23629e-07 0)
(9.09414e-06 -1.27197e-07 0)
(9.28544e-06 -1.30208e-07 0)
(9.48063e-06 -1.32556e-07 0)
(9.6789e-06 -1.34182e-07 0)
(9.87945e-06 -1.35109e-07 0)
(1.00812e-05 -1.35352e-07 0)
(1.0283e-05 -1.34943e-07 0)
(1.04838e-05 -1.33799e-07 0)
(1.06826e-05 -1.31831e-07 0)
(1.08785e-05 -1.29129e-07 0)
(1.10701e-05 -1.25705e-07 0)
(1.12566e-05 -1.21485e-07 0)
(1.14366e-05 -1.16451e-07 0)
(1.1609e-05 -1.1056e-07 0)
(1.17724e-05 -1.03843e-07 0)
(1.19259e-05 -9.64016e-08 0)
(1.20684e-05 -8.82259e-08 0)
(1.21988e-05 -7.92869e-08 0)
(1.23159e-05 -6.95823e-08 0)
(1.24184e-05 -5.90553e-08 0)
(1.25053e-05 -4.77534e-08 0)
(1.25757e-05 -3.57539e-08 0)
(1.26285e-05 -2.30041e-08 0)
(1.26626e-05 -9.55557e-09 0)
(1.26772e-05 4.50235e-09 0)
(1.26711e-05 1.91916e-08 0)
(1.26437e-05 3.44404e-08 0)
(1.2594e-05 5.02058e-08 0)
(1.25211e-05 6.65458e-08 0)
(1.24246e-05 8.33652e-08 0)
(1.2304e-05 1.00518e-07 0)
(1.21587e-05 1.17988e-07 0)
(1.19882e-05 1.35714e-07 0)
(1.17921e-05 1.53581e-07 0)
(1.15702e-05 1.71593e-07 0)
(1.13225e-05 1.89686e-07 0)
(1.10493e-05 2.07654e-07 0)
(1.07506e-05 2.25401e-07 0)
(1.04267e-05 2.4288e-07 0)
(1.00781e-05 2.5998e-07 0)
(9.70534e-06 2.76643e-07 0)
(9.30945e-06 2.92731e-07 0)
(8.8916e-06 3.07926e-07 0)
(8.45299e-06 3.22048e-07 0)
(7.99499e-06 3.35116e-07 0)
(7.51943e-06 3.4699e-07 0)
(7.02843e-06 3.57325e-07 0)
(6.52431e-06 3.65838e-07 0)
(6.00974e-06 3.72327e-07 0)
(5.48771e-06 3.76588e-07 0)
(4.96146e-06 3.78444e-07 0)
(4.43471e-06 3.77596e-07 0)
(3.91179e-06 3.73531e-07 0)
(3.39729e-06 3.65783e-07 0)
(2.89616e-06 3.54091e-07 0)
(2.41396e-06 3.3818e-07 0)
(1.9567e-06 3.17617e-07 0)
(1.53088e-06 2.91904e-07 0)
(1.14354e-06 2.60541e-07 0)
(8.01943e-07 2.23123e-07 0)
(5.13129e-07 1.7961e-07 0)
(2.83595e-07 1.30563e-07 0)
(1.18624e-07 7.76713e-08 0)
(1.90834e-08 2.53538e-08 0)
(-1.90962e-08 -1.779e-08 0)
(-1.33017e-08 -3.01306e-08 0)
(4.46893e-08 -2.10403e-08 0)
(1.07512e-07 2.65782e-08 0)
(2.38017e-07 -6.98955e-08 0)
(4.26957e-07 -2.18709e-07 0)
(7.06032e-07 -3.71392e-07 0)
(1.07442e-06 -5.09138e-07 0)
(1.52631e-06 -6.25942e-07 0)
(2.0503e-06 -7.23532e-07 0)
(2.63695e-06 -8.01677e-07 0)
(3.27457e-06 -8.6382e-07 0)
(3.95273e-06 -9.113e-07 0)
(4.66248e-06 -9.44984e-07 0)
(5.39342e-06 -9.67416e-07 0)
(6.13796e-06 -9.79452e-07 0)
(6.88881e-06 -9.81819e-07 0)
(7.63844e-06 -9.76399e-07 0)
(8.38119e-06 -9.63518e-07 0)
(9.11194e-06 -9.44001e-07 0)
(9.82542e-06 -9.19131e-07 0)
(1.05178e-05 -8.89265e-07 0)
(1.11855e-05 -8.54836e-07 0)
(1.18245e-05 -8.16901e-07 0)
(1.24327e-05 -7.7587e-07 0)
(1.3008e-05 -7.32048e-07 0)
(1.35479e-05 -6.86392e-07 0)
(1.40514e-05 -6.39089e-07 0)
(1.45172e-05 -5.90384e-07 0)
(1.49442e-05 -5.40999e-07 0)
(1.5332e-05 -4.91135e-07 0)
(1.56805e-05 -4.41077e-07 0)
(1.59894e-05 -3.91382e-07 0)
(1.62589e-05 -3.42134e-07 0)
(1.64896e-05 -2.93349e-07 0)
(1.6682e-05 -2.45416e-07 0)
(1.6837e-05 -1.98648e-07 0)
(1.69555e-05 -1.53215e-07 0)
(1.70387e-05 -1.09299e-07 0)
(1.70877e-05 -6.70092e-08 0)
(1.71039e-05 -2.65311e-08 0)
(1.70886e-05 1.19785e-08 0)
(1.70436e-05 4.85944e-08 0)
(1.69706e-05 8.32117e-08 0)
(1.6871e-05 1.15529e-07 0)
(1.67467e-05 1.45584e-07 0)
(1.65998e-05 1.73499e-07 0)
(1.64318e-05 1.9911e-07 0)
(1.62445e-05 2.22178e-07 0)
(1.60401e-05 2.42839e-07 0)
(1.58205e-05 2.61228e-07 0)
(1.55875e-05 2.77212e-07 0)
(1.53431e-05 2.90781e-07 0)
(1.50891e-05 3.01967e-07 0)
(1.48277e-05 3.10769e-07 0)
(1.45606e-05 3.173e-07 0)
(1.42896e-05 3.21603e-07 0)
(1.40165e-05 3.2361e-07 0)
(1.37431e-05 3.23379e-07 0)
(1.34713e-05 3.21122e-07 0)
(1.32026e-05 3.16925e-07 0)
(1.29387e-05 3.10639e-07 0)
(1.2681e-05 3.02301e-07 0)
(1.24312e-05 2.92227e-07 0)
(1.21908e-05 2.80571e-07 0)
(1.19611e-05 2.67257e-07 0)
(1.17431e-05 2.52288e-07 0)
(1.15384e-05 2.35818e-07 0)
(1.1348e-05 2.18049e-07 0)
(1.11729e-05 1.99124e-07 0)
(1.10141e-05 1.79124e-07 0)
(1.08724e-05 1.58095e-07 0)
(1.07486e-05 1.36061e-07 0)
(1.06435e-05 1.13122e-07 0)
(1.05579e-05 8.95132e-08 0)
(1.04921e-05 6.5413e-08 0)
(1.04464e-05 4.08672e-08 0)
(1.0421e-05 1.59578e-08 0)
(1.04166e-05 -9.15322e-09 0)
(1.04334e-05 -3.43889e-08 0)
(1.04712e-05 -5.97487e-08 0)
(1.05299e-05 -8.51052e-08 0)
(1.06095e-05 -1.10205e-07 0)
(1.07097e-05 -1.34865e-07 0)
(1.08301e-05 -1.5902e-07 0)
(1.09704e-05 -1.82626e-07 0)
(1.11303e-05 -2.05639e-07 0)
(1.13089e-05 -2.27987e-07 0)
(1.15058e-05 -2.49511e-07 0)
(1.172e-05 -2.69996e-07 0)
(1.19508e-05 -2.89256e-07 0)
(1.21972e-05 -3.07263e-07 0)
(1.24583e-05 -3.24086e-07 0)
(1.27328e-05 -3.396e-07 0)
(1.30195e-05 -3.53558e-07 0)
(1.33175e-05 -3.65861e-07 0)
(1.36252e-05 -3.76521e-07 0)
(1.39414e-05 -3.85538e-07 0)
(1.42644e-05 -3.92768e-07 0)
(1.4593e-05 -3.98022e-07 0)
(1.49255e-05 -4.01296e-07 0)
(1.52603e-05 -4.02584e-07 0)
(1.55957e-05 -4.01813e-07 0)
(1.59301e-05 -3.98914e-07 0)
(1.62617e-05 -3.93781e-07 0)
(1.65887e-05 -3.86409e-07 0)
(1.69094e-05 -3.76837e-07 0)
(1.72221e-05 -3.6499e-07 0)
(1.75249e-05 -3.50882e-07 0)
(1.78158e-05 -3.34552e-07 0)
(1.80929e-05 -3.15892e-07 0)
(1.83542e-05 -2.94842e-07 0)
(1.85982e-05 -2.71467e-07 0)
(1.8823e-05 -2.4583e-07 0)
(1.90267e-05 -2.18026e-07 0)
(1.92075e-05 -1.88069e-07 0)
(1.93636e-05 -1.5589e-07 0)
(1.94933e-05 -1.21581e-07 0)
(1.9595e-05 -8.52325e-08 0)
(1.9667e-05 -4.68519e-08 0)
(1.97078e-05 -6.58168e-09 0)
(1.97158e-05 3.54278e-08 0)
(1.96898e-05 7.90734e-08 0)
(1.96284e-05 1.24208e-07 0)
(1.95303e-05 1.70782e-07 0)
(1.93945e-05 2.18765e-07 0)
(1.92203e-05 2.67909e-07 0)
(1.90066e-05 3.17902e-07 0)
(1.8753e-05 3.68558e-07 0)
(1.84587e-05 4.19678e-07 0)
(1.81235e-05 4.71059e-07 0)
(1.77474e-05 5.22568e-07 0)
(1.73304e-05 5.739e-07 0)
(1.6873e-05 6.2461e-07 0)
(1.63757e-05 6.74428e-07 0)
(1.58393e-05 7.23133e-07 0)
(1.52648e-05 7.7037e-07 0)
(1.46536e-05 8.15742e-07 0)
(1.40075e-05 8.58769e-07 0)
(1.33288e-05 8.98886e-07 0)
(1.26198e-05 9.35648e-07 0)
(1.18833e-05 9.68711e-07 0)
(1.11224e-05 9.97522e-07 0)
(1.03409e-05 1.02133e-06 0)
(9.54325e-06 1.03943e-06 0)
(8.73404e-06 1.05118e-06 0)
(7.91844e-06 1.05581e-06 0)
(7.10223e-06 1.05258e-06 0)
(6.29179e-06 1.04064e-06 0)
(5.4942e-06 1.01897e-06 0)
(4.71729e-06 9.86552e-07 0)
(3.96934e-06 9.42462e-07 0)
(3.25907e-06 8.85838e-07 0)
(2.59594e-06 8.15763e-07 0)
(1.98989e-06 7.31481e-07 0)
(1.4508e-06 6.32661e-07 0)
(9.88113e-07 5.19679e-07 0)
(6.10366e-07 3.94317e-07 0)
(3.24113e-07 2.61122e-07 0)
(1.30136e-07 1.29906e-07 0)
(2.42375e-08 1.91973e-08 0)
(-4.14335e-09 -3.53215e-08 0)
(3.38176e-08 -1.24349e-07 0)
(1.29292e-07 -1.35033e-07 0)
(3.46189e-07 -2.92135e-07 0)
(6.53771e-07 -5.24968e-07 0)
(1.06419e-06 -7.70918e-07 0)
(1.5797e-06 -1.00026e-06 0)
(2.19174e-06 -1.20363e-06 0)
(2.89101e-06 -1.37594e-06 0)
(3.66473e-06 -1.51854e-06 0)
(4.50056e-06 -1.63317e-06 0)
(5.38744e-06 -1.72087e-06 0)
(6.31215e-06 -1.78532e-06 0)
(7.26386e-06 -1.82814e-06 0)
(8.23266e-06 -1.85102e-06 0)
(9.20832e-06 -1.85679e-06 0)
(1.01824e-05 -1.84672e-06 0)
(1.11474e-05 -1.82244e-06 0)
(1.20956e-05 -1.78583e-06 0)
(1.30212e-05 -1.73824e-06 0)
(1.39189e-05 -1.68087e-06 0)
(1.47832e-05 -1.61551e-06 0)
(1.56102e-05 -1.54301e-06 0)
(1.63962e-05 -1.46422e-06 0)
(1.71379e-05 -1.38047e-06 0)
(1.78329e-05 -1.29264e-06 0)
(1.84793e-05 -1.20135e-06 0)
(1.90754e-05 -1.1078e-06 0)
(1.96199e-05 -1.0126e-06 0)
(2.01123e-05 -9.16219e-07 0)
(2.05518e-05 -8.19609e-07 0)
(2.09386e-05 -7.23356e-07 0)
(2.12731e-05 -6.27874e-07 0)
(2.15557e-05 -5.33696e-07 0)
(2.1787e-05 -4.412e-07 0)
(2.19683e-05 -3.50773e-07 0)
(2.21009e-05 -2.62871e-07 0)
(2.21862e-05 -1.77846e-07 0)
(2.22259e-05 -9.60493e-08 0)
(2.22216e-05 -1.77972e-08 0)
(2.21755e-05 5.68414e-08 0)
(2.20897e-05 1.27709e-07 0)
(2.19664e-05 1.94421e-07 0)
(2.18076e-05 2.56804e-07 0)
(2.16163e-05 3.1494e-07 0)
(2.13946e-05 3.68646e-07 0)
(2.11448e-05 4.17737e-07 0)
(2.08696e-05 4.62204e-07 0)
(2.05717e-05 5.02091e-07 0)
(2.02538e-05 5.37275e-07 0)
(1.99184e-05 5.67726e-07 0)
(1.9568e-05 5.93475e-07 0)
(1.92052e-05 6.14579e-07 0)
(1.88329e-05 6.31101e-07 0)
(1.84535e-05 6.43106e-07 0)
(1.80694e-05 6.50613e-07 0)
(1.7683e-05 6.53681e-07 0)
(1.72969e-05 6.52511e-07 0)
(1.69135e-05 6.47309e-07 0)
(1.65349e-05 6.38147e-07 0)
(1.61632e-05 6.25019e-07 0)
(1.58008e-05 6.08108e-07 0)
(1.54498e-05 5.87743e-07 0)
(1.5112e-05 5.64036e-07 0)
(1.47893e-05 5.37024e-07 0)
(1.44833e-05 5.06952e-07 0)
(1.41959e-05 4.74046e-07 0)
(1.39286e-05 4.38434e-07 0)
(1.36828e-05 4.00353e-07 0)
(1.34598e-05 3.60096e-07 0)
(1.32606e-05 3.17847e-07 0)
(1.30865e-05 2.73796e-07 0)
(1.29384e-05 2.28229e-07 0)
(1.28173e-05 1.81341e-07 0)
(1.27238e-05 1.33197e-07 0)
(1.26584e-05 8.39902e-08 0)
(1.26216e-05 3.41291e-08 0)
(1.26139e-05 -1.6044e-08 0)
(1.26353e-05 -6.64191e-08 0)
(1.2686e-05 -1.16916e-07 0)
(1.27658e-05 -1.67299e-07 0)
(1.28748e-05 -2.17286e-07 0)
(1.30125e-05 -2.66643e-07 0)
(1.31785e-05 -3.15115e-07 0)
(1.33721e-05 -3.62421e-07 0)
(1.35928e-05 -4.08366e-07 0)
(1.38397e-05 -4.52836e-07 0)
(1.4112e-05 -4.95636e-07 0)
(1.44086e-05 -5.36472e-07 0)
(1.47284e-05 -5.75076e-07 0)
(1.50699e-05 -6.11286e-07 0)
(1.54319e-05 -6.45034e-07 0)
(1.58129e-05 -6.76148e-07 0)
(1.62114e-05 -7.04304e-07 0)
(1.66256e-05 -7.29289e-07 0)
(1.70536e-05 -7.5101e-07 0)
(1.74936e-05 -7.69345e-07 0)
(1.79438e-05 -7.84146e-07 0)
(1.8402e-05 -7.95209e-07 0)
(1.88662e-05 -8.02409e-07 0)
(1.93341e-05 -8.05674e-07 0)
(1.98035e-05 -8.04864e-07 0)
(2.02721e-05 -7.99911e-07 0)
(2.07374e-05 -7.90739e-07 0)
(2.11972e-05 -7.7719e-07 0)
(2.1649e-05 -7.59176e-07 0)
(2.20904e-05 -7.36666e-07 0)
(2.25188e-05 -7.09687e-07 0)
(2.29316e-05 -6.78338e-07 0)
(2.33264e-05 -6.42565e-07 0)
(2.37005e-05 -6.02182e-07 0)
(2.40515e-05 -5.57198e-07 0)
(2.4377e-05 -5.07749e-07 0)
(2.46744e-05 -4.5393e-07 0)
(2.49412e-05 -3.95843e-07 0)
(2.51751e-05 -3.33513e-07 0)
(2.53737e-05 -2.67008e-07 0)
(2.55348e-05 -1.9655e-07 0)
(2.56562e-05 -1.2227e-07 0)
(2.57359e-05 -4.42569e-08 0)
(2.57716e-05 3.72609e-08 0)
(2.57616e-05 1.22009e-07 0)
(2.57042e-05 2.09724e-07 0)
(2.55978e-05 3.00151e-07 0)
(2.54411e-05 3.93087e-07 0)
(2.52326e-05 4.88268e-07 0)
(2.49712e-05 5.85242e-07 0)
(2.46562e-05 6.83526e-07 0)
(2.42869e-05 7.82742e-07 0)
(2.38628e-05 8.82442e-07 0)
(2.33841e-05 9.82139e-07 0)
(2.28507e-05 1.08141e-06 0)
(2.2263e-05 1.17969e-06 0)
(2.1622e-05 1.27627e-06 0)
(2.09288e-05 1.37048e-06 0)
(2.01848e-05 1.46164e-06 0)
(1.93919e-05 1.54903e-06 0)
(1.85525e-05 1.63186e-06 0)
(1.76695e-05 1.70925e-06 0)
(1.67461e-05 1.78017e-06 0)
(1.57863e-05 1.8436e-06 0)
(1.47942e-05 1.89858e-06 0)
(1.37747e-05 1.94405e-06 0)
(1.27335e-05 1.97868e-06 0)
(1.16768e-05 2.00108e-06 0)
(1.06115e-05 2.00985e-06 0)
(9.54506e-06 2.00353e-06 0)
(8.4859e-06 1.98061e-06 0)
(7.44288e-06 1.93955e-06 0)
(6.42584e-06 1.87865e-06 0)
(5.44544e-06 1.79616e-06 0)
(4.51268e-06 1.69055e-06 0)
(3.63902e-06 1.56058e-06 0)
(2.83641e-06 1.40539e-06 0)
(2.11661e-06 1.22493e-06 0)
(1.49054e-06 1.02062e-06 0)
(9.67925e-07 7.96224e-07 0)
(5.56835e-07 5.59275e-07 0)
(2.60143e-07 3.24127e-07 0)
(7.69621e-08 1.17284e-07 0)
(6.79248e-09 -1.3088e-08 0)
(2.93955e-08 -1.84367e-07 0)
(1.56866e-07 -3.3744e-07 0)
(4.49845e-07 -6.04428e-07 0)
(8.64513e-07 -9.48554e-07 0)
(1.39944e-06 -1.30423e-06 0)
(2.05064e-06 -1.64026e-06 0)
(2.8112e-06 -1.94018e-06 0)
(3.66873e-06 -2.19893e-06 0)
(4.60964e-06 -2.41547e-06 0)
(5.62167e-06 -2.58982e-06 0)
(6.68983e-06 -2.72566e-06 0)
(7.80109e-06 -2.82531e-06 0)
(8.94315e-06 -2.89135e-06 0)
(1.01033e-05 -2.92729e-06 0)
(1.12708e-05 -2.93576e-06 0)
(1.24355e-05 -2.9192e-06 0)
(1.35878e-05 -2.88059e-06 0)
(1.47196e-05 -2.82212e-06 0)
(1.58233e-05 -2.74572e-06 0)
(1.6892e-05 -2.65406e-06 0)
(1.79199e-05 -2.54908e-06 0)
(1.89021e-05 -2.43244e-06 0)
(1.98338e-05 -2.30616e-06 0)
(2.07113e-05 -2.17169e-06 0)
(2.15316e-05 -2.03035e-06 0)
(2.22921e-05 -1.88379e-06 0)
(2.29908e-05 -1.7333e-06 0)
(2.36265e-05 -1.57995e-06 0)
(2.41979e-05 -1.42499e-06 0)
(2.47045e-05 -1.26948e-06 0)
(2.51462e-05 -1.11418e-06 0)
(2.55236e-05 -9.60107e-07 0)
(2.58372e-05 -8.08215e-07 0)
(2.6088e-05 -6.59104e-07 0)
(2.62773e-05 -5.13398e-07 0)
(2.64066e-05 -3.71704e-07 0)
(2.64779e-05 -2.34622e-07 0)
(2.64929e-05 -1.02774e-07 0)
(2.64542e-05 2.34967e-08 0)
(2.63641e-05 1.43918e-07 0)
(2.62252e-05 2.57995e-07 0)
(2.60401e-05 3.65347e-07 0)
(2.58119e-05 4.65946e-07 0)
(2.55436e-05 5.59539e-07 0)
(2.52382e-05 6.45728e-07 0)
(2.48986e-05 7.24433e-07 0)
(2.45281e-05 7.95744e-07 0)
(2.41301e-05 8.5955e-07 0)
(2.37076e-05 9.15661e-07 0)
(2.32641e-05 9.64096e-07 0)
(2.28027e-05 1.00487e-06 0)
(2.23268e-05 1.03808e-06 0)
(2.18395e-05 1.06387e-06 0)
(2.13441e-05 1.08227e-06 0)
(2.08435e-05 1.09328e-06 0)
(2.0341e-05 1.09714e-06 0)
(1.98396e-05 1.09417e-06 0)
(1.93423e-05 1.08444e-06 0)
(1.88518e-05 1.06806e-06 0)
(1.83707e-05 1.04538e-06 0)
(1.79021e-05 1.01669e-06 0)
(1.74484e-05 9.82202e-07 0)
(1.7012e-05 9.42121e-07 0)
(1.65952e-05 8.96751e-07 0)
(1.62003e-05 8.46456e-07 0)
(1.58293e-05 7.91537e-07 0)
(1.54841e-05 7.32274e-07 0)
(1.51667e-05 6.68997e-07 0)
(1.48785e-05 6.02003e-07 0)
(1.46212e-05 5.31609e-07 0)
(1.43959e-05 4.58291e-07 0)
(1.42041e-05 3.82527e-07 0)
(1.40468e-05 3.04583e-07 0)
(1.39247e-05 2.24664e-07 0)
(1.38386e-05 1.43142e-07 0)
(1.37893e-05 6.04853e-08 0)
(1.37772e-05 -2.29234e-08 0)
(1.38024e-05 -1.06753e-07 0)
(1.38648e-05 -1.9063e-07 0)
(1.39647e-05 -2.7414e-07 0)
(1.41017e-05 -3.56936e-07 0)
(1.42755e-05 -4.38724e-07 0)
(1.44856e-05 -5.19146e-07 0)
(1.47312e-05 -5.97779e-07 0)
(1.50114e-05 -6.74227e-07 0)
(1.53252e-05 -7.48155e-07 0)
(1.56715e-05 -8.19231e-07 0)
(1.60491e-05 -8.87103e-07 0)
(1.64565e-05 -9.51443e-07 0)
(1.6892e-05 -1.01193e-06 0)
(1.73537e-05 -1.06824e-06 0)
(1.78401e-05 -1.12009e-06 0)
(1.83491e-05 -1.16721e-06 0)
(1.88786e-05 -1.20929e-06 0)
(1.94263e-05 -1.24607e-06 0)
(1.99897e-05 -1.27724e-06 0)
(2.05666e-05 -1.30255e-06 0)
(2.11544e-05 -1.32182e-06 0)
(2.17504e-05 -1.33483e-06 0)
(2.23519e-05 -1.34135e-06 0)
(2.29559e-05 -1.3412e-06 0)
(2.35597e-05 -1.33425e-06 0)
(2.41603e-05 -1.32044e-06 0)
(2.47547e-05 -1.29958e-06 0)
(2.534e-05 -1.27146e-06 0)
(2.59129e-05 -1.23603e-06 0)
(2.64703e-05 -1.19326e-06 0)
(2.70089e-05 -1.14317e-06 0)
(2.75257e-05 -1.08578e-06 0)
(2.80177e-05 -1.02104e-06 0)
(2.84815e-05 -9.48891e-07 0)
(2.8914e-05 -8.69465e-07 0)
(2.93123e-05 -7.82877e-07 0)
(2.96731e-05 -6.89236e-07 0)
(2.99935e-05 -5.88709e-07 0)
(3.02706e-05 -4.81435e-07 0)
(3.05016e-05 -3.67635e-07 0)
(3.06838e-05 -2.47633e-07 0)
(3.08146e-05 -1.21692e-07 0)
(3.08914e-05 9.92776e-09 0)
(3.09119e-05 1.46862e-07 0)
(3.08739e-05 2.88692e-07 0)
(3.07756e-05 4.34996e-07 0)
(3.06152e-05 5.85264e-07 0)
(3.03912e-05 7.38943e-07 0)
(3.0102e-05 8.95495e-07 0)
(2.97467e-05 1.05428e-06 0)
(2.93244e-05 1.21461e-06 0)
(2.88348e-05 1.37575e-06 0)
(2.82778e-05 1.53685e-06 0)
(2.76536e-05 1.69702e-06 0)
(2.69627e-05 1.85548e-06 0)
(2.6206e-05 2.01129e-06 0)
(2.53851e-05 2.16325e-06 0)
(2.45017e-05 2.31015e-06 0)
(2.35583e-05 2.45081e-06 0)
(2.25579e-05 2.58402e-06 0)
(2.15038e-05 2.70842e-06 0)
(2.04e-05 2.82249e-06 0)
(1.92514e-05 2.92454e-06 0)
(1.80631e-05 3.01282e-06 0)
(1.68412e-05 3.08562e-06 0)
(1.55924e-05 3.14111e-06 0)
(1.43241e-05 3.17721e-06 0)
(1.30445e-05 3.19168e-06 0)
(1.17629e-05 3.18228e-06 0)
(1.0489e-05 3.14671e-06 0)
(9.23345e-06 3.0826e-06 0)
(8.00761e-06 2.98764e-06 0)
(6.82367e-06 2.85948e-06 0)
(5.6944e-06 2.69597e-06 0)
(4.63301e-06 2.49541e-06 0)
(3.65291e-06 2.25691e-06 0)
(2.7673e-06 1.98081e-06 0)
(1.98853e-06 1.66961e-06 0)
(1.32751e-06 1.32925e-06 0)
(7.93504e-07 9.70494e-07 0)
(3.92312e-07 6.11134e-07 0)
(1.29492e-07 2.8196e-07 0)
(1.68712e-08 3.78652e-08 0)
(3.09514e-08 -2.64792e-07 0)
(1.89432e-07 -5.90644e-07 0)
(5.5032e-07 -1.00143e-06 0)
(1.06213e-06 -1.47843e-06 0)
(1.70927e-06 -1.9619e-06 0)
(2.48583e-06 -2.41551e-06 0)
(3.38042e-06 -2.8226e-06 0)
(4.37946e-06 -3.17596e-06 0)
(5.46963e-06 -3.47214e-06 0)
(6.63485e-06 -3.71312e-06 0)
(7.86067e-06 -3.90098e-06 0)
(9.13287e-06 -4.03864e-06 0)
(1.04368e-05 -4.13012e-06 0)
(1.17594e-05 -4.17912e-06 0)
(1.30886e-05 -4.18899e-06 0)
(1.44126e-05 -4.16383e-06 0)
(1.57211e-05 -4.10696e-06 0)
(1.70049e-05 -4.02154e-06 0)
(1.82551e-05 -3.91093e-06 0)
(1.94639e-05 -3.77816e-06 0)
(2.06247e-05 -3.6258e-06 0)
(2.17316e-05 -3.45676e-06 0)
(2.27794e-05 -3.27351e-06 0)
(2.37639e-05 -3.0783e-06 0)
(2.46814e-05 -2.87331e-06 0)
(2.55288e-05 -2.66062e-06 0)
(2.63041e-05 -2.44198e-06 0)
(2.70054e-05 -2.21929e-06 0)
(2.76316e-05 -1.99429e-06 0)
(2.81822e-05 -1.76835e-06 0)
(2.86569e-05 -1.54277e-06 0)
(2.90562e-05 -1.31891e-06 0)
(2.93808e-05 -1.09801e-06 0)
(2.9632e-05 -8.81182e-07 0)
(2.98113e-05 -6.69327e-07 0)
(2.99205e-05 -4.63363e-07 0)
(2.99617e-05 -2.64205e-07 0)
(2.99372e-05 -7.25646e-08 0)
(2.985e-05 1.11054e-07 0)
(2.97027e-05 2.85959e-07 0)
(2.94984e-05 4.51497e-07 0)
(2.92404e-05 6.07375e-07 0)
(2.89322e-05 7.53367e-07 0)
(2.85771e-05 8.88962e-07 0)
(2.81788e-05 1.01378e-06 0)
(2.77411e-05 1.12772e-06 0)
(2.72677e-05 1.23071e-06 0)
(2.67624e-05 1.32256e-06 0)
(2.6229e-05 1.40323e-06 0)
(2.56716e-05 1.47262e-06 0)
(2.50938e-05 1.53078e-06 0)
(2.44998e-05 1.57787e-06 0)
(2.38932e-05 1.61398e-06 0)
(2.32778e-05 1.63915e-06 0)
(2.26573e-05 1.65359e-06 0)
(2.20354e-05 1.65762e-06 0)
(2.14159e-05 1.65152e-06 0)
(2.0802e-05 1.63542e-06 0)
(2.01972e-05 1.60955e-06 0)
(1.96048e-05 1.57444e-06 0)
(1.9028e-05 1.53049e-06 0)
(1.847e-05 1.47796e-06 0)
(1.79334e-05 1.41718e-06 0)
(1.74212e-05 1.34862e-06 0)
(1.6936e-05 1.27276e-06 0)
(1.64803e-05 1.19007e-06 0)
(1.60564e-05 1.10105e-06 0)
(1.56663e-05 1.00615e-06 0)
(1.5312e-05 9.05786e-07 0)
(1.49953e-05 8.00473e-07 0)
(1.47181e-05 6.90836e-07 0)
(1.44818e-05 5.77406e-07 0)
(1.42873e-05 4.60618e-07 0)
(1.41357e-05 3.41017e-07 0)
(1.40281e-05 2.19247e-07 0)
(1.39653e-05 9.58351e-08 0)
(1.39477e-05 -2.8806e-08 0)
(1.39754e-05 -1.54147e-07 0)
(1.40488e-05 -2.7955e-07 0)
(1.41677e-05 -4.04418e-07 0)
(1.43317e-05 -5.2821e-07 0)
(1.45405e-05 -6.5042e-07 0)
(1.47936e-05 -7.70539e-07 0)
(1.50899e-05 -8.8806e-07 0)
(1.54284e-05 -1.00246e-06 0)
(1.5808e-05 -1.11315e-06 0)
(1.62274e-05 -1.21955e-06 0)
(1.66849e-05 -1.32121e-06 0)
(1.71788e-05 -1.41774e-06 0)
(1.77072e-05 -1.50868e-06 0)
(1.8268e-05 -1.59344e-06 0)
(1.8859e-05 -1.6715e-06 0)
(1.94779e-05 -1.74256e-06 0)
(2.01221e-05 -1.80626e-06 0)
(2.0789e-05 -1.86216e-06 0)
(2.14758e-05 -1.90981e-06 0)
(2.21794e-05 -1.94883e-06 0)
(2.28971e-05 -1.97896e-06 0)
(2.36255e-05 -1.99989e-06 0)
(2.43613e-05 -2.01129e-06 0)
(2.51012e-05 -2.01291e-06 0)
(2.58417e-05 -2.00452e-06 0)
(2.65793e-05 -1.9859e-06 0)
(2.73106e-05 -1.95687e-06 0)
(2.80319e-05 -1.91726e-06 0)
(2.87395e-05 -1.86698e-06 0)
(2.94295e-05 -1.80597e-06 0)
(3.00982e-05 -1.7341e-06 0)
(3.07418e-05 -1.65133e-06 0)
(3.13568e-05 -1.55776e-06 0)
(3.19393e-05 -1.45343e-06 0)
(3.24856e-05 -1.33841e-06 0)
(3.2992e-05 -1.21286e-06 0)
(3.34548e-05 -1.07696e-06 0)
(3.38705e-05 -9.30927e-07 0)
(3.42357e-05 -7.75052e-07 0)
(3.4547e-05 -6.09594e-07 0)
(3.48012e-05 -4.34914e-07 0)
(3.49952e-05 -2.51536e-07 0)
(3.51261e-05 -5.99558e-08 0)
(3.51911e-05 1.39392e-07 0)
(3.51876e-05 3.45941e-07 0)
(3.51134e-05 5.59029e-07 0)
(3.49663e-05 7.77953e-07 0)
(3.47446e-05 1.00183e-06 0)
(3.44465e-05 1.22978e-06 0)
(3.4071e-05 1.46095e-06 0)
(3.3617e-05 1.69439e-06 0)
(3.3084e-05 1.92898e-06 0)
(3.24719e-05 2.16353e-06 0)
(3.17811e-05 2.39676e-06 0)
(3.10121e-05 2.6273e-06 0)
(3.01662e-05 2.85379e-06 0)
(2.92448e-05 3.07469e-06 0)
(2.82503e-05 3.28828e-06 0)
(2.71854e-05 3.49273e-06 0)
(2.60538e-05 3.68624e-06 0)
(2.48592e-05 3.86686e-06 0)
(2.36064e-05 4.0324e-06 0)
(2.23008e-05 4.18058e-06 0)
(2.09485e-05 4.30894e-06 0)
(1.95564e-05 4.41486e-06 0)
(1.81324e-05 4.4957e-06 0)
(1.66848e-05 4.54871e-06 0)
(1.5223e-05 4.57089e-06 0)
(1.37574e-05 4.55911e-06 0)
(1.22992e-05 4.51021e-06 0)
(1.086e-05 4.42101e-06 0)
(9.45273e-06 4.28838e-06 0)
(8.09087e-06 4.10936e-06 0)
(6.78834e-06 3.88139e-06 0)
(5.55955e-06 3.60252e-06 0)
(4.41923e-06 3.27179e-06 0)
(3.38186e-06 2.88989e-06 0)
(2.4613e-06 2.46011e-06 0)
(1.6702e-06 1.9899e-06 0)
(1.01953e-06 1.49257e-06 0)
(5.18012e-07 9.88625e-07 0)
(1.78551e-07 5.10781e-07 0)
(2.58075e-08 1.1565e-07 0)
(3.45434e-08 -3.64308e-07 0)
(2.23072e-07 -8.92607e-07 0)
(6.45539e-07 -1.47506e-06 0)
(1.24197e-06 -2.10674e-06 0)
(1.99117e-06 -2.73104e-06 0)
(2.8798e-06 -3.31348e-06 0)
(3.89386e-06 -3.836e-06 0)
(5.01941e-06 -4.28889e-06 0)
(6.23937e-06 -4.67069e-06 0)
(7.53808e-06 -4.98143e-06 0)
(8.89978e-06 -5.22348e-06 0)
(1.03085e-05 -5.40097e-06 0)
(1.17493e-05 -5.51811e-06 0)
(1.32081e-05 -5.57908e-06 0)
(1.46714e-05 -5.58889e-06 0)
(1.61267e-05 -5.55196e-06 0)
(1.7563e-05 -5.47262e-06 0)
(1.89697e-05 -5.35536e-06 0)
(2.03373e-05 -5.20449e-06 0)
(2.16575e-05 -5.02367e-06 0)
(2.29227e-05 -4.81672e-06 0)
(2.41263e-05 -4.58726e-06 0)
(2.52627e-05 -4.33837e-06 0)
(2.63271e-05 -4.07335e-06 0)
(2.73154e-05 -3.79517e-06 0)
(2.82244e-05 -3.50637e-06 0)
(2.90514e-05 -3.20956e-06 0)
(2.97945e-05 -2.90723e-06 0)
(3.04525e-05 -2.60154e-06 0)
(3.10248e-05 -2.29456e-06 0)
(3.15113e-05 -1.98822e-06 0)
(3.19123e-05 -1.68421e-06 0)
(3.22288e-05 -1.38413e-06 0)
(3.24621e-05 -1.08951e-06 0)
(3.2614e-05 -8.01661e-07 0)
(3.26865e-05 -5.21928e-07 0)
(3.2682e-05 -2.51463e-07 0)
(3.26035e-05 8.91112e-09 0)
(3.24539e-05 2.58221e-07 0)
(3.22364e-05 4.95499e-07 0)
(3.19545e-05 7.20125e-07 0)
(3.16123e-05 9.31619e-07 0)
(3.12134e-05 1.12934e-06 0)
(3.07617e-05 1.31279e-06 0)
(3.02615e-05 1.48166e-06 0)
(2.97171e-05 1.63567e-06 0)
(2.91328e-05 1.77455e-06 0)
(2.85131e-05 1.89813e-06 0)
(2.78621e-05 2.00637e-06 0)
(2.71845e-05 2.09917e-06 0)
(2.64849e-05 2.17663e-06 0)
(2.57676e-05 2.2389e-06 0)
(2.5037e-05 2.286e-06 0)
(2.42973e-05 2.31805e-06 0)
(2.3553e-05 2.33547e-06 0)
(2.28084e-05 2.33861e-06 0)
(2.20674e-05 2.3277e-06 0)
(2.13341e-05 2.30303e-06 0)
(2.06124e-05 2.26508e-06 0)
(1.99062e-05 2.21442e-06 0)
(1.92192e-05 2.1515e-06 0)
(1.85548e-05 2.07676e-06 0)
(1.79164e-05 1.99078e-06 0)
(1.73071e-05 1.89414e-06 0)
(1.67302e-05 1.78739e-06 0)
(1.61884e-05 1.67122e-06 0)
(1.56844e-05 1.5463e-06 0)
(1.52205e-05 1.41319e-06 0)
(1.4799e-05 1.27263e-06 0)
(1.44222e-05 1.1254e-06 0)
(1.4092e-05 9.72235e-07 0)
(1.38098e-05 8.13701e-07 0)
(1.35772e-05 6.50477e-07 0)
(1.33953e-05 4.83413e-07 0)
(1.32654e-05 3.13352e-07 0)