/*--------------------------------*- C++ -*----------------------------------*\
  =========                 |
  \\      /  F ield         | OpenFOAM: The Open Source CFD Toolbox
   \\    /   O peration     | Website:  https://openfoam.org
    \\  /    A nd           | Version:  7
     \\/     M anipulation  |
\*---------------------------------------------------------------------------*/
FoamFile
{
    version     2.0;
    format      ascii;
    class       volScalarField;
    location    "0.125";
    object      p;
}
// * * * * * * * * * * * * * * * * * * * * * * * * * * * * * * * * * * * * * //

dimensions      [0 2 -2 0 0 0 0];

internalField   nonuniform List<scalar> 
12800
(
-1.67805e-07
0.000181516
-0.000903553
-0.00334719
-0.00690416
-0.0113278
-0.0163848
-0.0218619
-0.0275724
-0.0333563
-0.0390773
-0.0446201
-0.0498874
-0.0547978
-0.0592833
-0.0632877
-0.0667656
-0.0696801
-0.0720024
-0.0737107
-0.0747891
-0.0752273
-0.0750196
-0.0741642
-0.072663
-0.0705211
-0.0677461
-0.0643479
-0.0603385
-0.0557315
-0.0505416
-0.0447851
-0.0384787
-0.0316401
-0.0242874
-0.0164392
-0.00811401
0.000669247
0.00989189
0.0195354
0.0295812
0.0400115
0.0508085
0.0619548
0.0734339
0.0852293
0.0973254
0.109707
0.122359
0.135269
0.148422
0.161806
0.175408
0.189218
0.203224
0.217416
0.231785
0.24632
0.261015
0.27586
0.290848
0.305972
0.321226
0.336604
0.352101
0.36771
0.383428
0.399249
0.415171
0.431188
0.447299
0.463499
0.479785
0.496156
0.512607
0.529138
0.545745
0.562426
0.57918
0.596003
0.612895
0.629852
0.646873
0.663955
0.681095
0.698292
0.715541
0.732839
0.750184
0.767571
0.784996
0.802454
0.819941
0.83745
0.854976
0.872512
0.89005
0.907582
0.9251
0.942595
0.960056
0.977471
0.99483
1.01212
1.02932
1.04643
1.06343
1.08029
1.09701
1.11356
1.12992
1.14608
1.16201
1.1777
1.1931
1.20821
1.223
1.23744
1.2515
1.26516
1.27839
1.29116
1.30345
1.31522
1.32644
1.33709
1.34714
1.35656
1.36533
1.37341
1.3808
1.38745
1.39335
1.39849
1.40285
1.40641
1.40916
1.4111
1.41223
1.41255
1.41207
1.4108
1.40876
1.40598
1.40251
1.39838
1.39365
1.38839
1.38268
1.37661
1.3703
1.36389
1.35752
1.35139
1.3457
1.34069
1.33665
1.33384
1.33256
1.33272
-0.000182108
6.16426e-07
-0.00100219
-0.00313398
-0.00617091
-0.00993766
-0.0142605
-0.0189688
-0.023906
-0.0289331
-0.0339278
-0.0387841
-0.043411
-0.0477305
-0.0516767
-0.0551943
-0.0582372
-0.0607681
-0.0627569
-0.0641799
-0.0650194
-0.0652629
-0.0649024
-0.0639339
-0.0623568
-0.0601738
-0.05739
-0.0540131
-0.0500527
-0.0455198
-0.0404274
-0.0347892
-0.02862
-0.0219356
-0.0147521
-0.0070863
0.00104493
0.00962438
0.0186348
0.0280591
0.0378802
0.0480812
0.0586456
0.0695572
0.0808002
0.0923591
0.104219
0.116366
0.128785
0.141463
0.154388
0.167546
0.180927
0.194519
0.208312
0.222294
0.236458
0.250793
0.265291
0.279945
0.294746
0.309688
0.324764
0.339968
0.355294
0.370738
0.386293
0.401956
0.417721
0.433586
0.449546
0.465598
0.481738
0.497964
0.514272
0.53066
0.547125
0.563664
0.580276
0.596956
0.613704
0.630515
0.647389
0.66432
0.681308
0.698348
0.715437
0.732572
0.749749
0.766963
0.78421
0.801485
0.818782
0.836095
0.853419
0.870745
0.888067
0.905376
0.922663
0.939919
0.957133
0.974294
0.991391
1.00841
1.02534
1.04216
1.05886
1.07543
1.09184
1.10808
1.12412
1.13996
1.15556
1.17092
1.18599
1.20077
1.21522
1.22932
1.24306
1.25639
1.2693
1.28175
1.29373
1.3052
1.31615
1.32653
1.33633
1.34553
1.35409
1.36199
1.36922
1.37575
1.38156
1.38664
1.39098
1.39456
1.39738
1.39944
1.40073
1.40126
1.40105
1.4001
1.39844
1.39611
1.39313
1.38956
1.38545
1.38087
1.37589
1.37061
1.36514
1.35959
1.35411
1.34886
1.34401
1.33977
1.33633
1.33389
1.33272
1.33289
0.000901617
0.00100435
7.84713e-07
-0.00198291
-0.0047317
-0.00810339
-0.0119579
-0.0161533
-0.0205565
-0.0250461
-0.029513
-0.033861
-0.0380057
-0.0418739
-0.045403
-0.0485395
-0.0512385
-0.0534627
-0.0551819
-0.0563718
-0.0570137
-0.0570938
-0.0566026
-0.0555346
-0.0538877
-0.0516628
-0.0488632
-0.045495
-0.0415657
-0.0370851
-0.0320639
-0.0265145
-0.02045
-0.0138846
-0.00683293
0.000689721
0.00866776
0.0170853
0.0259265
0.0351751
0.0448153
0.0548313
0.0652074
0.0759283
0.0869789
0.0983446
0.110011
0.121965
0.134192
0.146679
0.159415
0.172387
0.185584
0.198995
0.212609
0.226417
0.240408
0.254575
0.268908
0.2834
0.298044
0.312831
0.327756
0.342813
0.357995
0.373296
0.388713
0.40424
0.419872
0.435605
0.451436
0.46736
0.483374
0.499475
0.51566
0.531924
0.548266
0.564683
0.581171
0.597728
0.61435
0.631036
0.647781
0.664584
0.681439
0.698345
0.715297
0.732291
0.749324
0.76639
0.783484
0.800602
0.817738
0.834885
0.852037
0.869187
0.886326
0.903446
0.920539
0.937595
0.954603
0.971552
0.98843
1.00522
1.02192
1.03851
1.05497
1.07129
1.08745
1.10343
1.11922
1.13479
1.15013
1.16521
1.18002
1.19452
1.2087
1.22254
1.23601
1.24908
1.26173
1.27394
1.28567
1.29691
1.30764
1.31781
1.32742
1.33644
1.34484
1.35261
1.35972
1.36616
1.37191
1.37696
1.38129
1.3849
1.38778
1.38994
1.39136
1.39207
1.39208
1.39139
1.39004
1.38805
1.38547
1.38233
1.3787
1.37463
1.37021
1.36551
1.36064
1.35571
1.35084
1.34618
1.34187
1.33808
1.33498
1.33272
1.33155
1.33161
0.00334663
0.00313925
0.00198294
-5.97425e-06
-0.00264819
-0.00582013
-0.00940198
-0.0132731
-0.0173186
-0.0214327
-0.0255185
-0.0294894
-0.0332683
-0.0367876
-0.0399886
-0.0428209
-0.0452414
-0.0472141
-0.0487092
-0.0497027
-0.0501757
-0.0501138
-0.0495069
-0.0483485
-0.0466353
-0.0443671
-0.041546
-0.0381768
-0.0342657
-0.029821
-0.0248524
-0.0193707
-0.0133878
-0.00691665
2.93934e-05
0.00743622
0.0152894
0.0235741
0.0322754
0.0413782
0.0508676
0.0607286
0.0709463
0.0815062
0.092394
0.103596
0.115097
0.126886
0.138948
0.151272
0.163845
0.176656
0.189693
0.202946
0.216405
0.23006
0.243901
0.25792
0.272108
0.286458
0.300962
0.315613
0.330404
0.345329
0.360382
0.375557
0.39085
0.406254
0.421766
0.437381
0.453095
0.468904
0.484805
0.500792
0.516864
0.533017
0.549247
0.565552
0.581928
0.598373
0.614882
0.631453
0.648083
0.664767
0.681503
0.698287
0.715115
0.731983
0.748885
0.765818
0.782777
0.799755
0.816746
0.833745
0.850745
0.867738
0.884716
0.901671
0.918593
0.935473
0.952301
0.969065
0.985753
1.00235
1.01885
1.03524
1.05149
1.0676
1.08354
1.0993
1.11487
1.13022
1.14533
1.16019
1.17477
1.18905
1.203
1.21662
1.22986
1.24272
1.25516
1.26716
1.2787
1.28975
1.3003
1.31031
1.31976
1.32864
1.33692
1.34458
1.3516
1.35798
1.36368
1.36871
1.37305
1.37669
1.37963
1.38188
1.38343
1.38429
1.38448
1.38401
1.3829
1.3812
1.37893
1.37614
1.37288
1.36921
1.3652
1.36093
1.3565
1.35199
1.34753
1.34324
1.33925
1.3357
1.33272
1.33046
1.32911
1.3288
0.00691566
0.00618806
0.00473516
0.00262431
-2.84888e-05
-0.00311727
-0.00653902
-0.0101921
-0.0139786
-0.0178069
-0.0215921
-0.0252572
-0.0287328
-0.0319575
-0.034877
-0.0374444
-0.0396193
-0.0413676
-0.0426605
-0.0434748
-0.0437918
-0.043597
-0.0428801
-0.0416339
-0.0398545
-0.0375407
-0.034694
-0.0313177
-0.0274173
-0.0229999
-0.0180739
-0.0126491
-0.00673636
-0.000347297
0.00650566
0.0138095
0.0215509
0.0297159
0.0382906
0.0472609
0.0566126
0.0663315
0.0764035
0.0868149
0.0975519
0.108601
0.119949
0.131584
0.143492
0.155662
0.168082
0.180741
0.193628
0.206732
0.220044
0.233553
0.247252
0.26113
0.27518
0.289393
0.303763
0.318283
0.332945
0.347743
0.362671
0.377724
0.392896
0.408182
0.423577
0.439077
0.454677
0.470373
0.486162
0.502038
0.518
0.534043
0.550164
0.566359
0.582625
0.598959
0.615357
0.631815
0.648331
0.664901
0.68152
0.698185
0.714891
0.731635
0.748411
0.765215
0.782041
0.798883
0.815735
0.832592
0.849444
0.866287
0.88311
0.899906
0.916665
0.933378
0.950035
0.966623
0.983132
0.999549
1.01586
1.03205
1.04811
1.06402
1.07976
1.09532
1.11068
1.12583
1.14073
1.15538
1.16975
1.18382
1.19757
1.21098
1.22403
1.23669
1.24894
1.26076
1.27212
1.28301
1.29339
1.30325
1.31257
1.32133
1.3295
1.33708
1.34403
1.35035
1.35602
1.36104
1.36539
1.36907
1.37208
1.37441
1.37607
1.37707
1.37743
1.37716
1.37628
1.37482
1.37283
1.37033
1.36739
1.36405
1.36038
1.35646
1.35237
1.34819
1.34403
1.33999
1.33619
1.33273
1.32974
1.32734
1.32566
1.32476
0.011373
0.00998348
0.00812187
0.00579036
0.00302736
-7.77992e-05
-0.00343661
-0.00696469
-0.0105798
-0.0142034
-0.0177619
-0.0211878
-0.0244193
-0.0274014
-0.0300847
-0.0324263
-0.0343889
-0.0359403
-0.0370538
-0.037707
-0.037882
-0.0375648
-0.0367448
-0.0354148
-0.0335706
-0.0312103
-0.0283348
-0.0249466
-0.0210503
-0.0166522
-0.0117597
-0.00638177
-0.000528141
0.00579044
0.0125625
0.0197761
0.0274185
0.0354771
0.0439385
0.0527895
0.0620168
0.0716068
0.0815463
0.0918219
0.102421
0.11333
0.124537
0.136029
0.147795
0.159822
0.1721
0.184617
0.197363
0.210327
0.2235
0.236873
0.250436
0.264181
0.2781
0.292184
0.306427
0.320821
0.335359
0.350036
0.364845
0.37978
0.394836
0.410007
0.42529
0.440678
0.456168
0.471755
0.487435
0.503204
0.519059
0.534995
0.551009
0.567097
0.583256
0.599482
0.615771
0.63212
0.648526
0.664983
0.681488
0.698038
0.714627
0.731251
0.747905
0.764584
0.781282
0.797993
0.814712
0.831431
0.848144
0.864842
0.881519
0.898164
0.914769
0.931324
0.947818
0.964242
0.980582
0.996827
1.01296
1.02898
1.04486
1.06058
1.07614
1.09151
1.10668
1.12164
1.13635
1.15081
1.16499
1.17888
1.19244
1.20567
1.21854
1.23102
1.2431
1.25476
1.26596
1.2767
1.28695
1.29669
1.30589
1.31454
1.32263
1.33013
1.33702
1.3433
1.34896
1.35397
1.35834
1.36206
1.36512
1.36754
1.36931
1.37044
1.37095
1.37085
1.37017
1.36893
1.36717
1.36493
1.36225
1.35918
1.35579
1.35214
1.3483
1.34436
1.34039
1.33649
1.33276
1.32929
1.32619
1.32354
1.32139
1.31974
0.0164971
0.0143606
0.0120099
0.00937829
0.00642191
0.00321528
-0.000165365
-0.00365103
-0.00717362
-0.0106667
-0.0140673
-0.0173166
-0.0203606
-0.0231504
-0.0256421
-0.0277966
-0.02958
-0.0309629
-0.0319204
-0.0324317
-0.0324799
-0.0320516
-0.0311367
-0.029728
-0.0278213
-0.0254145
-0.0225078
-0.0191035
-0.0152055
-0.0108193
-0.00595171
-0.000610776
0.00519446
0.0114541
0.0181575
0.0252934
0.0328502
0.0408156
0.0491774
0.0579229
0.0670395
0.0765144
0.086335
0.0964885
0.106963
0.117745
0.128823
0.140185
0.151821
0.163717
0.175864
0.18825
0.200865
0.213701
0.226745
0.239991
0.253428
0.267048
0.280844
0.294806
0.308929
0.323205
0.337627
0.352189
0.366884
0.381707
0.396653
0.411715
0.42689
0.442171
0.457555
0.473037
0.488613
0.504279
0.52003
0.535863
0.551774
0.567759
0.583815
0.599936
0.616121
0.632365
0.648663
0.665012
0.681408
0.697847
0.714323
0.730832
0.747369
0.763928
0.780505
0.797092
0.813683
0.830273
0.846853
0.863415
0.879953
0.896456
0.912916
0.929324
0.945668
0.961937
0.978121
0.994207
1.01018
1.02603
1.04174
1.0573
1.07269
1.08789
1.1029
1.11768
1.13222
1.14651
1.16052
1.17424
1.18764
1.2007
1.21341
1.22574
1.23768
1.24919
1.26026
1.27088
1.28101
1.29064
1.29974
1.30831
1.31633
1.32377
1.33062
1.33687
1.34251
1.34753
1.35193
1.35569
1.35881
1.36131
1.36317
1.36442
1.36507
1.36512
1.36461
1.36355
1.36199
1.35995
1.35748
1.35463
1.35145
1.34799
1.34433
1.34054
1.33668
1.33283
1.32908
1.3255
1.32218
1.3192
1.3165
1.31401
0.0220869
0.0191578
0.0162646
0.0132733
0.0100585
0.00668217
0.00321036
-0.000301733
-0.00379857
-0.00722473
-0.0105269
-0.0136548
-0.0165616
-0.0192044
-0.0215446
-0.0235475
-0.0251826
-0.0264233
-0.0272469
-0.0276344
-0.0275703
-0.0270421
-0.0260404
-0.0245585
-0.022592
-0.020139
-0.0171996
-0.0137757
-0.00987086
-0.00549
-0.000639418
0.00467343
0.0104402
0.0166516
0.0232976
0.0303679
0.0378512
0.0457363
0.0540113
0.0626644
0.0716835
0.0810564
0.0907711
0.100816
0.111178
0.121845
0.132807
0.144052
0.155569
0.167346
0.179372
0.191639
0.204135
0.21685
0.229776
0.242904
0.256224
0.269728
0.283409
0.297258
0.311268
0.325433
0.339745
0.354198
0.368786
0.383503
0.398344
0.413303
0.428374
0.443554
0.458837
0.474219
0.489695
0.505261
0.520913
0.536647
0.552459
0.568345
0.584301
0.600322
0.616406
0.632548
0.648744
0.664989
0.68128
0.697612
0.71398
0.730379
0.746804
0.763249
0.77971
0.796179
0.81265
0.829116
0.845571
0.862006
0.878413
0.894783
0.911108
0.927378
0.943581
0.959709
0.975748
0.991687
1.00751
1.02321
1.03877
1.05418
1.06941
1.08446
1.09931
1.11394
1.12833
1.14246
1.15633
1.1699
1.18315
1.19608
1.20865
1.22085
1.23265
1.24405
1.25501
1.26551
1.27554
1.28509
1.29412
1.30262
1.31058
1.31797
1.3248
1.33103
1.33667
1.3417
1.34612
1.34993
1.35311
1.35568
1.35764
1.35899
1.35975
1.35994
1.35957
1.35867
1.35727
1.3554
1.35309
1.3504
1.34737
1.34405
1.3405
1.33678
1.33295
1.32907
1.32522
1.32145
1.31785
1.31447
1.31117
1.30779
0.0279673
0.0242269
0.0207587
0.0173656
0.0138435
0.0102441
0.00662545
0.00303057
-0.000496129
-0.00390916
-0.00716401
-0.0102182
-0.0130318
-0.0155679
-0.0177927
-0.0196759
-0.0211906
-0.0223131
-0.0230233
-0.0233041
-0.0231414
-0.022524
-0.0214433
-0.0198933
-0.0178699
-0.0153716
-0.0123982
-0.00895176
-0.00503543
-0.000653946
0.00418679
0.00947983
0.0152173
0.0213904
0.0279898
0.0350055
0.0424271
0.0502438
0.0584444
0.0670175
0.0759516
0.0852352
0.0948566
0.104804
0.115067
0.125633
0.13649
0.147629
0.159038
0.170707
0.182625
0.194782
0.207168
0.219775
0.232592
0.24561
0.258822
0.272219
0.285793
0.299536
0.313442
0.327502
0.341711
0.356063
0.37055
0.385167
0.399908
0.414769
0.429743
0.444826
0.460012
0.475298
0.490679
0.50615
0.521707
0.537346
0.553063
0.568853
0.584713
0.600639
0.616626
0.63267
0.648768
0.664914
0.681104
0.697333
0.713598
0.729892
0.74621
0.762547
0.778897
0.795254
0.811611
0.827962
0.844298
0.860613
0.876898
0.893145
0.909343
0.925485
0.941559
0.957555
0.973461
0.989265
1.00496
1.02052
1.03594
1.05121
1.06631
1.08122
1.09593
1.11042
1.12467
1.13867
1.1524
1.16584
1.17897
1.19177
1.20423
1.21631
1.22801
1.2393
1.25017
1.26059
1.27054
1.28001
1.28898
1.29743
1.30535
1.31272
1.31952
1.32575
1.3314
1.33645
1.3409
1.34475
1.348
1.35064
1.35268
1.35413
1.35499
1.3553
1.35505
1.35428
1.353
1.35126
1.34908
1.3465
1.34357
1.34033
1.33683
1.33312
1.32926
1.32529
1.32128
1.31727
1.31332
1.30949
1.30556
1.30128
0.0339872
0.0294353
0.0253757
0.0215527
0.0176876
0.0138244
0.0100149
0.00629155
0.00268898
-0.000756073
-0.00400708
-0.00702877
-0.00978759
-0.0122521
-0.0143936
-0.0161857
-0.0176053
-0.0186316
-0.0192472
-0.0194368
-0.0191882
-0.0184916
-0.0173394
-0.0157262
-0.0136488
-0.0111059
-0.00809754
-0.00462577
-0.000693805
0.00369383
0.00853146
0.0138124
0.0195292
0.0256736
0.0322364
0.0392084
0.0465794
0.0543392
0.062477
0.0709822
0.0798435
0.0890499
0.0985903
0.108453
0.118628
0.129104
0.139869
0.150914
0.162227
0.173799
0.185618
0.197677
0.209964
0.22247
0.235188
0.248107
0.261219
0.274517
0.287992
0.301638
0.315446
0.32941
0.343523
0.357779
0.372171
0.386694
0.401342
0.41611
0.430992
0.445983
0.461078
0.476273
0.491563
0.506944
0.52241
0.537959
0.553585
0.569284
0.585052
0.600886
0.61678
0.632731
0.648734
0.664785
0.680879
0.697011
0.713177
0.729371
0.745588
0.761822
0.778068
0.794319
0.810569
0.82681
0.843036
0.859238
0.875409
0.89154
0.907622
0.923645
0.939599
0.955474
0.971258
0.98694
1.00251
1.01795
1.03324
1.04839
1.06336
1.07815
1.09274
1.10711
1.12124
1.13513
1.14874
1.16207
1.17509
1.18779
1.20014
1.21214
1.22375
1.23495
1.24574
1.25609
1.26599
1.2754
1.28433
1.29275
1.30064
1.30799
1.31479
1.32102
1.32669
1.33176
1.33625
1.34015
1.34345
1.34616
1.34828
1.34981
1.35077
1.35117
1.35102
1.35035
1.34918
1.34754
1.34545
1.34295
1.34007
1.33686
1.33337
1.32962
1.32567
1.32156
1.31733
1.31303
1.3087
1.30441
1.29982
1.29464
0.0400182
0.0346658
0.03001
0.0257399
0.0215071
0.0173498
0.0133153
0.00942709
0.00571117
0.00219664
-0.00108711
-0.00411134
-0.00684839
-0.00927209
-0.0113582
-0.0130847
-0.0144316
-0.0153814
-0.0159191
-0.0160318
-0.0157089
-0.0149421
-0.0137251
-0.0120534
-0.00992458
-0.00733768
-0.00429336
-0.000793719
0.0031579
0.00755693
0.0123979
0.0176742
0.0233787
0.0295033
0.0360394
0.0429778
0.050309
0.058023
0.0661096
0.0745583
0.0833586
0.0924997
0.101971
0.111761
0.12186
0.132258
0.142942
0.153904
0.165132
0.176617
0.18835
0.200319
0.212517
0.224934
0.237561
0.25039
0.263412
0.276619
0.290004
0.30356
0.317278
0.331153
0.345177
0.359344
0.373648
0.388084
0.402644
0.417325
0.43212
0.447024
0.462034
0.477142
0.492346
0.507641
0.523021
0.538483
0.554023
0.569635
0.585316
0.601062
0.616868
0.63273
0.648643
0.664603
0.680605
0.696645
0.712717
0.728816
0.744937
0.761074
0.777222
0.793373
0.809521
0.82566
0.841782
0.85788
0.873945
0.889969
0.905942
0.921856
0.937701
0.953465
0.969138
0.984708
1.00016
1.01549
1.03068
1.04571
1.06057
1.07525
1.08973
1.104
1.11803
1.13182
1.14533
1.15857
1.1715
1.18411
1.19639
1.2083
1.21984
1.23098
1.24172
1.25201
1.26186
1.27124
1.28014
1.28854
1.29642
1.30377
1.31057
1.31682
1.32251
1.32762
1.33215
1.3361
1.33946
1.34223
1.34442
1.34603
1.34707
1.34756
1.3475
1.34691
1.34581
1.34424
1.3422
1.33974
1.33689
1.33367
1.33014
1.32631
1.32223
1.31794
1.31346
1.30883
1.3041
1.29932
1.29408
1.28803
0.0459496
0.0398153
0.0345662
0.0298403
0.0252237
0.0207508
0.0164656
0.0123841
0.00852489
0.00491029
0.00156343
-0.00149285
-0.00423621
-0.00664538
-0.00870045
-0.0103832
-0.0116771
-0.0125678
-0.0130426
-0.0130908
-0.0127039
-0.011875
-0.0105992
-0.008873
-0.00669482
-0.0040644
-0.000982897
0.00254724
0.00652244
0.0109381
0.0157885
0.0210675
0.0267676
0.0328813
0.0394
0.0463149
0.0536167
0.0612957
0.0693422
0.0777459
0.0864966
0.095584
0.104998
0.114727
0.124762
0.135092
0.145707
0.156597
0.167751
0.179161
0.190816
0.202708
0.214827
0.227163
0.23971
0.252457
0.265398
0.278523
0.291826
0.305299
0.318936
0.332728
0.34667
0.360756
0.374978
0.389332
0.403811
0.418411
0.433125
0.447948
0.462876
0.477904
0.493026
0.508239
0.523538
0.538919
0.554376
0.569906
0.585504
0.601167
0.616889
0.632666
0.648494
0.664367
0.680283
0.696234
0.712218
0.728227
0.744257
0.760303
0.776357
0.792415
0.808469
0.824512
0.840538
0.856538
0.872505
0.888429
0.904304
0.920118
0.935862
0.951525
0.967098
0.982568
0.997924
1.01315
1.02824
1.04318
1.05794
1.07253
1.08692
1.10109
1.11504
1.12874
1.14217
1.15533
1.16819
1.18073
1.19294
1.2048
1.21628
1.22738
1.23807
1.24834
1.25816
1.26752
1.2764
1.28479
1.29267
1.30003
1.30686
1.31313
1.31885
1.32401
1.32858
1.33259
1.33601
1.33884
1.3411
1.34278
1.3439
1.34445
1.34446
1.34393
1.3429
1.34136
1.33936
1.33692
1.33405
1.3308
1.32718
1.32324
1.319
1.3145
1.30974
1.30477
1.29962
1.29433
1.28845
1.28155
0.0516861
0.0447926
0.0389588
0.0337748
0.0287653
0.0239621
0.0194075
0.015111
0.0110849
0.00734573
0.003911
0.000798321
-0.00197484
-0.0043917
-0.00643638
-0.0080943
-0.00935225
-0.0101986
-0.0106234
-0.0106181
-0.010176
-0.00929197
-0.00796231
-0.00618488
-0.00395895
-0.00128502
0.00183512
0.00539857
0.00940141
0.0138388
0.018705
0.0239936
0.0296974
0.0358088
0.0423193
0.0492204
0.056503
0.0641577
0.0721749
0.0805446
0.0892571
0.0983021
0.10767
0.117349
0.127332
0.137606
0.148162
0.158991
0.170083
0.181428
0.193017
0.20484
0.21689
0.229156
0.241631
0.254307
0.267174
0.280226
0.293456
0.306855
0.320417
0.334135
0.348002
0.362012
0.37616
0.390438
0.404842
0.419366
0.434004
0.448752
0.463604
0.478556
0.493603
0.508739
0.523961
0.539264
0.554644
0.570096
0.585616
0.601199
0.616842
0.632539
0.648286
0.664078
0.679911
0.695779
0.711679
0.727604
0.743549
0.759508
0.775475
0.791445
0.807411
0.823365
0.839301
0.855211
0.871087
0.886921
0.902704
0.918427
0.93408
0.949654
0.965136
0.980516
0.995783
1.01092
1.02593
1.04078
1.05546
1.06997
1.08428
1.09837
1.11225
1.12588
1.13925
1.15235
1.16515
1.17764
1.1898
1.20162
1.21307
1.22413
1.2348
1.24505
1.25486
1.26421
1.2731
1.2815
1.2894
1.29678
1.30363
1.30995
1.31571
1.32091
1.32554
1.3296
1.33308
1.33598
1.33831
1.34006
1.34124
1.34185
1.34192
1.34144
1.34044
1.33893
1.33694
1.33448
1.33158
1.32826
1.32455
1.32046
1.31604
1.31129
1.30624
1.3009
1.29532
1.28954
1.28302
1.27531
0.057145
0.0495174
0.0431111
0.0374712
0.0320648
0.0269225
0.0220854
0.017558
0.0133471
0.00946403
0.00592158
0.00273266
-8.96456e-05
-0.00253262
-0.00458415
-0.0062331
-0.00746938
-0.0082841
-0.00866972
-0.00862002
-0.00813015
-0.00719658
-0.00581712
-0.00399086
-0.00171804
0.000999943
0.0041606
0.00776049
0.0117952
0.0162597
0.0211479
0.0264533
0.0321687
0.0382863
0.0447978
0.0516948
0.0589683
0.0666091
0.0746077
0.0829545
0.0916397
0.100654
0.109986
0.119628
0.129568
0.139798
0.150307
0.161086
0.172126
0.183417
0.194949
0.206715
0.218705
0.230911
0.243324
0.255936
0.26874
0.281727
0.294891
0.308224
0.321719
0.33537
0.34917
0.363112
0.377191
0.391401
0.405735
0.42019
0.434758
0.449436
0.464218
0.479099
0.494074
0.509139
0.524289
0.53952
0.554827
0.570205
0.585651
0.60116
0.616727
0.632348
0.648019
0.663734
0.679489
0.69528
0.7111
0.726945
0.74281
0.758688
0.774575
0.790463
0.806346
0.822218
0.838071
0.853898
0.869691
0.885442
0.901143
0.916783
0.932355
0.947846
0.963249
0.97855
0.993739
1.0088
1.02373
1.03851
1.05312
1.06756
1.08181
1.09584
1.10966
1.12324
1.13656
1.14961
1.16237
1.17483
1.18696
1.19875
1.21018
1.22123
1.23189
1.24213
1.25195
1.26132
1.27022
1.27864
1.28657
1.29399
1.30089
1.30725
1.31306
1.31832
1.32301
1.32713
1.33068
1.33364
1.33603
1.33785
1.33908
1.33976
1.33987
1.33943
1.33846
1.33696
1.33496
1.33247
1.32951
1.3261
1.32226
1.31802
1.31339
1.30838
1.30302
1.29731
1.2913
1.28502
1.27789
1.26939
0.062254
0.0539184
0.0469541
0.0408639
0.0350608
0.0295749
0.024447
0.0196774
0.0152682
0.0112266
0.00756092
0.00428007
0.00139311
-0.00109093
-0.00316345
-0.00481641
-0.00604273
-0.00683616
-0.00719153
-0.0071048
-0.00657297
-0.00559425
-0.0041679
-0.00229423
2.53808e-05
0.00278863
0.00599223
0.00963213
0.0137034
0.0182006
0.0231173
0.0284467
0.0341816
0.040314
0.0468358
0.0537383
0.0610127
0.0686499
0.0766406
0.0849753
0.0936443
0.102638
0.111947
0.121561
0.131472
0.141668
0.152141
0.162881
0.173879
0.185126
0.196613
0.208331
0.220271
0.232426
0.244787
0.257345
0.270094
0.283025
0.296131
0.309406
0.322842
0.336433
0.350172
0.364054
0.378071
0.392218
0.40649
0.420881
0.435386
0.449999
0.464715
0.479531
0.49444
0.509438
0.524521
0.539684
0.554923
0.570232
0.585609
0.601047
0.616544
0.632094
0.647693
0.663335
0.679018
0.694735
0.710481
0.726252
0.742041
0.757845
0.773655
0.789467
0.805274
0.82107
0.836847
0.852598
0.868315
0.883991
0.899617
0.915183
0.930682
0.946102
0.961433
0.976665
0.991787
1.00679
1.02165
1.03637
1.05093
1.06531
1.0795
1.09349
1.10727
1.1208
1.13409
1.14711
1.15985
1.17228
1.1844
1.19618
1.20761
1.21866
1.22933
1.23959
1.24942
1.25882
1.26775
1.27621
1.28419
1.29165
1.2986
1.30502
1.3109
1.31622
1.32098
1.32517
1.32878
1.33182
1.33428
1.33615
1.33745
1.33817
1.33832
1.33791
1.33695
1.33545
1.33342
1.33089
1.32785
1.32434
1.32037
1.31595
1.31109
1.30582
1.30014
1.29405
1.28761
1.28085
1.27312
1.26387
0.0669495
0.0579319
0.0504255
0.043893
0.0376962
0.0318656
0.0264425
0.0214234
0.0168066
0.0125955
0.00879497
0.00541004
0.00244631
-9.0561e-05
-0.00219517
-0.00386251
-0.00508814
-0.0058684
-0.00620045
-0.00608227
-0.00551283
-0.00449193
-0.00302036
-0.00109971
0.00126751
0.00407799
0.00732763
0.0110117
0.0151246
0.0196603
0.0246123
0.0299733
0.0357358
0.0418918
0.048433
0.0553508
0.0626362
0.0702803
0.0782736
0.086607
0.0952709
0.104256
0.113552
0.123151
0.133041
0.143215
0.153663
0.164375
0.175342
0.186556
0.198007
0.209688
0.221588
0.233701
0.246019
0.258532
0.271235
0.284118
0.297176
0.3104
0.323785
0.337324
0.35101
0.364837
0.378799
0.392891
0.407106
0.421439
0.435886
0.45044
0.465097
0.479852
0.4947
0.509637
0.524657
0.539757
0.554932
0.570178
0.585489
0.600862
0.616293
0.631776
0.647307
0.662882
0.678496
0.694144
0.709822
0.725523
0.741243
0.756976
0.772716
0.788458
0.804195
0.81992
0.835627
0.851309
0.866958
0.882566
0.898125
0.913625
0.929059
0.944416
0.959686
0.974859
0.989924
1.00487
1.01968
1.03435
1.04886
1.0632
1.07736
1.09131
1.10506
1.11857
1.13183
1.14484
1.15757
1.17
1.18211
1.1939
1.20534
1.21641
1.2271
1.23739
1.24727
1.2567
1.26569
1.2742
1.28223
1.28976
1.29677
1.30326
1.30921
1.31461
1.31944
1.32371
1.3274
1.33051
1.33303
1.33497
1.33632
1.33709
1.33728
1.33689
1.33594
1.33443
1.33237
1.32977
1.32665
1.32302
1.3189
1.31429
1.3092
1.30366
1.29765
1.29119
1.28432
1.27708
1.26877
1.2588
0.0711754
0.061501
0.0534691
0.0465037
0.0399186
0.0337449
0.0280248
0.0227521
0.0179217
0.0135338
0.00958987
0.00609199
0.00304246
0.000443855
-0.00170127
-0.00339072
-0.00462263
-0.00539575
-0.00570944
-0.00556371
-0.00495936
-0.00389789
-0.00238151
-0.000413201
0.0020034
0.00486394
0.00816344
0.0118963
0.0160565
0.0206373
0.0256317
0.0310321
0.0368308
0.0430193
0.0495894
0.0565322
0.0638389
0.0715002
0.079507
0.08785
0.0965197
0.105507
0.114802
0.124395
0.134278
0.14444
0.154873
0.165568
0.176515
0.187706
0.199132
0.210785
0.222656
0.234737
0.24702
0.259498
0.272163
0.285007
0.298024
0.311207
0.324548
0.338042
0.351682
0.365462
0.379376
0.393418
0.407582
0.421864
0.436258
0.450759
0.465362
0.480062
0.494855
0.509735
0.524698
0.53974
0.554855
0.570041
0.585292
0.600604
0.615973
0.631394
0.646863
0.662375
0.677925
0.693509
0.709121
0.724758
0.740413
0.756081
0.771757
0.787434
0.803106
0.818768
0.834412
0.850031
0.865618
0.881165
0.896664
0.912107
0.927485
0.942787
0.958005
0.973128
0.988146
1.00305
1.01782
1.03245
1.04693
1.06124
1.07537
1.0893
1.10303
1.11653
1.12979
1.14279
1.15552
1.16796
1.1801
1.1919
1.20337
1.21448
1.22521
1.23555
1.24547
1.25496
1.26401
1.27259
1.28069
1.2883
1.29539
1.30196
1.30799
1.31347
1.31839
1.32274
1.32652
1.3297
1.3323
1.3343
1.33571
1.33653
1.33675
1.33638
1.33543
1.3339
1.3318
1.32914
1.32593
1.32217
1.31789
1.31308
1.30776
1.30194
1.29561
1.28877
1.28148
1.27378
1.26492
1.25425
0.0748812
0.0645744
0.0560333
0.0486455
0.0416788
0.0351657
0.0291496
0.0236217
0.0185743
0.014005
0.00991227
0.00629533
0.00315371
0.000487187
-0.00170439
-0.00342135
-0.00466431
-0.00543425
-0.00573265
-0.00556152
-0.00492342
-0.0038215
-0.00225946
-0.000241633
0.00222717
0.00514154
0.00849555
0.0122828
0.0164965
0.0211294
0.0261738
0.0316219
0.0374654
0.0436959
0.0503045
0.0572825
0.0646207
0.07231
0.0803411
0.0887047
0.0973913
0.106392
0.115696
0.125296
0.135181
0.145343
0.155773
0.166461
0.177399
0.188577
0.199988
0.211623
0.223474
0.235533
0.247792
0.260243
0.272879
0.285693
0.298677
0.311826
0.325131
0.338588
0.352189
0.365928
0.379801
0.3938
0.40792
0.422157
0.436505
0.450958
0.465512
0.480163
0.494904
0.509733
0.524643
0.539631
0.554693
0.569824
0.585019
0.600274
0.615586
0.630949
0.646359
0.661812
0.677303
0.692828
0.708381
0.723957
0.739553
0.755161
0.770777
0.786395
0.802008
0.817612
0.833198
0.848761
0.864293
0.879787
0.895234
0.910626
0.925955
0.941212
0.956387
0.971469
0.986449
1.00132
1.01606
1.03066
1.04512
1.05941
1.07352
1.08745
1.10117
1.11467
1.12794
1.14096
1.1537
1.16617
1.17833
1.19018
1.20169
1.21285
1.22364
1.23403
1.24402
1.25359
1.26271
1.27137
1.27956
1.28726
1.29444
1.30111
1.30724
1.31281
1.31783
1.32227
1.32614
1.32941
1.33208
1.33416
1.33563
1.33649
1.33674
1.3364
1.33544
1.33389
1.33175
1.32902
1.32571
1.32182
1.31737
1.31237
1.30681
1.3007
1.29405
1.28685
1.27915
1.271
1.26159
1.25026
0.0780215
0.0671052
0.058071
0.0502717
0.0429314
0.0360838
0.0297744
0.0239921
0.0187268
0.0139738
0.00972918
0.00598962
0.00275207
1.38248e-05
-0.0022278
-0.00397548
-0.00523212
-0.00600086
-0.00628521
-0.0060891
-0.00541682
-0.00427313
-0.00266323
-0.000592793
0.00193215
0.00490508
0.00831914
0.0121671
0.0164413
0.0211338
0.0262366
0.0317412
0.0376388
0.0439208
0.0505782
0.0576016
0.0649821
0.0727101
0.0807765
0.0891718
0.0978866
0.106911
0.116237
0.125854
0.135754
0.145926
0.156363
0.167055
0.177994
0.189171
0.200577
0.212204
0.224045
0.236091
0.248334
0.260768
0.273384
0.286176
0.299136
0.312258
0.325536
0.338963
0.352532
0.366238
0.380076
0.394038
0.408121
0.422318
0.436625
0.451037
0.465548
0.480153
0.494849
0.509631
0.524494
0.539434
0.554446
0.569526
0.58467
0.599873
0.615132
0.630442
0.645798
0.661196
0.676633
0.692102
0.7076
0.723121
0.738661
0.754215
0.769776
0.78534
0.800901
0.816452
0.831987
0.8475
0.862983
0.878429
0.893831
0.909181
0.924469
0.939688
0.954828
0.969878
0.98483
0.999671
1.01439
1.02898
1.04342
1.05771
1.07182
1.08575
1.09948
1.113
1.12628
1.13933
1.15211
1.16461
1.17682
1.18872
1.20029
1.21151
1.22237
1.23284
1.24292
1.25257
1.26179
1.27055
1.27884
1.28664
1.29393
1.3007
1.30694
1.31262
1.31775
1.32229
1.32626
1.32962
1.33238
1.33453
1.33607
1.33698
1.33728
1.33695
1.33599
1.33442
1.33223
1.32943
1.32602
1.322
1.31739
1.31218
1.30638
1.3
1.29302
1.28546
1.27736
1.26877
1.25884
1.24687
0.0805548
0.0690505
0.0595387
0.0513388
0.0436333
0.0364576
0.0298589
0.0238244
0.0183422
0.0134054
0.00900813
0.00514458
0.00180951
-0.00100211
-0.00329521
-0.00507473
-0.00634569
-0.00711332
-0.00738308
-0.00716069
-0.0064522
-0.00526396
-0.00360264
-0.00147526
0.00111092
0.00414828
0.00762892
0.0115447
0.0158872
0.0206478
0.0258178
0.0313882
0.0373498
0.0436935
0.0504099
0.0574897
0.0649233
0.0727013
0.0808142
0.0892525
0.0980068
0.107068
0.116426
0.126072
0.135996
0.146191
0.156646
0.167353
0.178303
0.189488
0.2009
0.21253
0.22437
0.236413
0.24865
0.261075
0.27368
0.286458
0.299402
0.312506
0.325764
0.339168
0.352713
0.366393
0.380202
0.394135
0.408186
0.42235
0.436622
0.450997
0.46547
0.480036
0.494692
0.509432
0.524252
0.539147
0.554114
0.569148
0.584245
0.599401
0.614611
0.629872
0.645179
0.660527
0.675913
0.691332
0.706779
0.72225
0.737739
0.753243
0.768755
0.78427
0.799782
0.815286
0.830776
0.846244
0.861685
0.877091
0.892455
0.907768
0.923024
0.938212
0.953325
0.968352
0.983284
0.99811
1.01282
1.0274
1.04184
1.05613
1.07025
1.0842
1.09795
1.11149
1.12481
1.1379
1.15072
1.16328
1.17555
1.18752
1.19916
1.21046
1.2214
1.23197
1.24214
1.2519
1.26122
1.2701
1.2785
1.28642
1.29384
1.30073
1.30709
1.3129
1.31814
1.3228
1.32688
1.33034
1.3332
1.33544
1.33704
1.33802
1.33835
1.33805
1.3371
1.33551
1.33327
1.3304
1.32689
1.32274
1.31796
1.31255
1.30651
1.29986
1.29257
1.28465
1.27616
1.26714
1.25671
1.24413
0.0824429
0.0703704
0.0603957
0.0518062
0.0437442
0.0362473
0.0293644
0.0230816
0.017385
0.0122661
0.00771701
0.0037301
0.000297925
-0.00258668
-0.00493071
-0.00674122
-0.00802524
-0.00879002
-0.00904285
-0.00879124
-0.00804293
-0.00680586
-0.00508814
-0.00289815
-0.000244421
0.00286431
0.0064191
0.0104109
0.0148304
0.0196683
0.0249151
0.0305613
0.0365973
0.0430134
0.0497998
0.056947
0.0644451