/*--------------------------------*- C++ -*----------------------------------*\
  =========                 |
  \\      /  F ield         | OpenFOAM: The Open Source CFD Toolbox
   \\    /   O peration     | Website:  https://openfoam.org
    \\  /    A nd           | Version:  7
     \\/     M anipulation  |
\*---------------------------------------------------------------------------*/
FoamFile
{
    version     2.0;
    format      ascii;
    class       volVectorField;
    location    "0.125";
    object      U;
}
// * * * * * * * * * * * * * * * * * * * * * * * * * * * * * * * * * * * * * //

dimensions      [0 1 -1 0 0 0 0];

internalField   nonuniform List<vector> 
12800
(
(8.32499e-06 -8.32092e-06 0)
(3.70809e-05 -1.85306e-05 0)
(7.85155e-05 -1.97061e-05 0)
(0.000113214 -1.53481e-05 0)
(0.000129946 -8.30622e-06 0)
(0.000123825 -1.3502e-07 0)
(9.27068e-05 8.34546e-06 0)
(3.59783e-05 1.66959e-05 0)
(-4.60031e-05 2.46833e-05 0)
(-0.00015229 3.21882e-05 0)
(-0.000281584 3.91512e-05 0)
(-0.000432379 4.5547e-05 0)
(-0.000603052 5.13703e-05 0)
(-0.000791928 5.6628e-05 0)
(-0.000997315 6.1334e-05 0)
(-0.00121754 6.55069e-05 0)
(-0.00145095 6.91682e-05 0)
(-0.00169597 7.23412e-05 0)
(-0.00195105 7.50513e-05 0)
(-0.00221473 7.73236e-05 0)
(-0.00248561 7.91836e-05 0)
(-0.00276235 8.06568e-05 0)
(-0.00304373 8.17682e-05 0)
(-0.00332855 8.2543e-05 0)
(-0.00361572 8.30059e-05 0)
(-0.00390422 8.31803e-05 0)
(-0.00419311 8.30893e-05 0)
(-0.0044815 8.27551e-05 0)
(-0.00476859 8.21989e-05 0)
(-0.00505365 8.14414e-05 0)
(-0.00533601 8.05025e-05 0)
(-0.00561507 7.9401e-05 0)
(-0.00589028 7.81545e-05 0)
(-0.00616116 7.67802e-05 0)
(-0.00642727 7.52941e-05 0)
(-0.00668825 7.37109e-05 0)
(-0.00694377 7.20449e-05 0)
(-0.00719354 7.03093e-05 0)
(-0.00743733 6.85161e-05 0)
(-0.00767495 6.66771e-05 0)
(-0.00790624 6.48029e-05 0)
(-0.00813107 6.29031e-05 0)
(-0.00834936 6.09865e-05 0)
(-0.00856104 5.90613e-05 0)
(-0.0087661 5.71349e-05 0)
(-0.00896451 5.52139e-05 0)
(-0.0091563 5.33044e-05 0)
(-0.0093415 5.14117e-05 0)
(-0.00952017 4.95404e-05 0)
(-0.00969236 4.76947e-05 0)
(-0.00985818 4.58781e-05 0)
(-0.0100177 4.40935e-05 0)
(-0.0101711 4.23436e-05 0)
(-0.0103183 4.06304e-05 0)
(-0.0104597 3.89556e-05 0)
(-0.0105952 3.73201e-05 0)
(-0.010725 3.57248e-05 0)
(-0.0108492 3.41703e-05 0)
(-0.0109681 3.26566e-05 0)
(-0.0110816 3.11832e-05 0)
(-0.01119 2.97496e-05 0)
(-0.0112934 2.83554e-05 0)
(-0.0113918 2.69992e-05 0)
(-0.0114855 2.56799e-05 0)
(-0.0115746 2.43958e-05 0)
(-0.0116591 2.31453e-05 0)
(-0.0117392 2.19264e-05 0)
(-0.0118149 2.07369e-05 0)
(-0.0118865 1.95747e-05 0)
(-0.0119539 1.84373e-05 0)
(-0.0120172 1.73223e-05 0)
(-0.0120765 1.62268e-05 0)
(-0.012132 1.51483e-05 0)
(-0.0121835 1.40836e-05 0)
(-0.0122312 1.30297e-05 0)
(-0.0122751 1.19836e-05 0)
(-0.0123152 1.09422e-05 0)
(-0.0123515 9.90214e-06 0)
(-0.012384 8.86038e-06 0)
(-0.0124128 7.81337e-06 0)
(-0.0124377 6.75762e-06 0)
(-0.0124588 5.6896e-06 0)
(-0.0124759 4.60588e-06 0)
(-0.0124891 3.50298e-06 0)
(-0.0124983 2.37733e-06 0)
(-0.0125034 1.22548e-06 0)
(-0.0125042 4.39297e-08 0)
(-0.0125007 -1.17081e-06 0)
(-0.0124928 -2.42215e-06 0)
(-0.0124803 -3.71347e-06 0)
(-0.012463 -5.0481e-06 0)
(-0.0124409 -6.42925e-06 0)
(-0.0124138 -7.85995e-06 0)
(-0.0123815 -9.34322e-06 0)
(-0.0123437 -1.0882e-05 0)
(-0.0123004 -1.24788e-05 0)
(-0.0122513 -1.4136e-05 0)
(-0.0121962 -1.5856e-05 0)
(-0.0121349 -1.76405e-05 0)
(-0.0120672 -1.94914e-05 0)
(-0.0119929 -2.14099e-05 0)
(-0.0119116 -2.3397e-05 0)
(-0.0118233 -2.54534e-05 0)
(-0.0117276 -2.75793e-05 0)
(-0.0116244 -2.97744e-05 0)
(-0.0115134 -3.20379e-05 0)
(-0.0113944 -3.43683e-05 0)
(-0.0112671 -3.67637e-05 0)
(-0.0111314 -3.92215e-05 0)
(-0.0109871 -4.17383e-05 0)
(-0.0108339 -4.43104e-05 0)
(-0.0106718 -4.69329e-05 0)
(-0.0105006 -4.96006e-05 0)
(-0.0103201 -5.23068e-05 0)
(-0.0101302 -5.50443e-05 0)
(-0.00993097 -5.78048e-05 0)
(-0.00972221 -6.05793e-05 0)
(-0.00950396 -6.33577e-05 0)
(-0.00927624 -6.61288e-05 0)
(-0.00903913 -6.88806e-05 0)
(-0.00879272 -7.16e-05 0)
(-0.00853718 -7.42726e-05 0)
(-0.0082727 -7.68832e-05 0)
(-0.00799956 -7.94156e-05 0)
(-0.00771806 -8.18524e-05 0)
(-0.00742859 -8.41751e-05 0)
(-0.00713158 -8.63646e-05 0)
(-0.00682754 -8.84006e-05 0)
(-0.00651706 -9.02618e-05 0)
(-0.00620077 -9.19262e-05 0)
(-0.00587941 -9.33709e-05 0)
(-0.00555377 -9.45725e-05 0)
(-0.00522474 -9.55068e-05 0)
(-0.00489328 -9.61491e-05 0)
(-0.00456043 -9.64741e-05 0)
(-0.0042273 -9.64564e-05 0)
(-0.00389512 -9.607e-05 0)
(-0.00356516 -9.5289e-05 0)
(-0.0032388 -9.40873e-05 0)
(-0.00291749 -9.24389e-05 0)
(-0.00260276 -9.03179e-05 0)
(-0.00229621 -8.7699e-05 0)
(-0.00199952 -8.45573e-05 0)
(-0.00171443 -8.08688e-05 0)
(-0.00144274 -7.66103e-05 0)
(-0.00118632 -7.17604e-05 0)
(-0.000947047 -6.62999e-05 0)
(-0.000726843 -6.02124e-05 0)
(-0.000527631 -5.34866e-05 0)
(-0.000351301 -4.61183e-05 0)
(-0.000199678 -3.81158e-05 0)
(-7.44513e-05 -2.95073e-05 0)
(2.29217e-05 -2.03567e-05 0)
(9.13674e-05 -1.07926e-05 0)
(0.000130456 -1.0652e-06 0)
(0.000140821 8.3468e-06 0)
(0.000124777 1.65399e-05 0)
(8.76834e-05 2.17822e-05 0)
(4.20301e-05 2.08539e-05 0)
(9.63136e-06 9.62994e-06 0)
(1.85498e-05 -3.70766e-05 0)
(7.03378e-05 -7.02744e-05 0)
(0.000132013 -6.77306e-05 0)
(0.000170092 -4.20646e-05 0)
(0.000163298 -3.13462e-06 0)
(0.000100201 4.27261e-05 0)
(-2.54623e-05 9.15514e-05 0)
(-0.000216428 0.00014086 0)
(-0.000472905 0.000189108 0)
(-0.000793392 0.000235333 0)
(-0.00117524 0.000278944 0)
(-0.00161507 0.000319587 0)
(-0.002109 0.000357065 0)
(-0.00265289 0.000391288 0)
(-0.00324241 0.00042224 0)
(-0.00387323 0.000449955 0)
(-0.004541 0.000474505 0)
(-0.00524147 0.000495987 0)
(-0.00597049 0.000514516 0)
(-0.00672405 0.000530222 0)
(-0.00749832 0.000543243 0)
(-0.00828962 0.000553721 0)
(-0.00909448 0.000561804 0)
(-0.00990962 0.00056764 0)
(-0.0107319 0.000571377 0)
(-0.0115586 0.000573162 0)
(-0.0123869 0.000573139 0)
(-0.0132142 0.000571451 0)
(-0.0140385 0.000568234 0)
(-0.0148574 0.000563622 0)
(-0.0156692 0.000557743 0)
(-0.016472 0.000550722 0)
(-0.0172643 0.000542677 0)
(-0.0180447 0.00053372 0)
(-0.0188119 0.000523959 0)
(-0.0195647 0.000513495 0)
(-0.0203023 0.000502424 0)
(-0.0210238 0.000490835 0)
(-0.0217285 0.000478813 0)
(-0.0224158 0.000466437 0)
(-0.0230852 0.000453778 0)
(-0.0237363 0.000440906 0)
(-0.0243689 0.000427881 0)
(-0.0249826 0.000414762 0)
(-0.0255775 0.000401599 0)
(-0.0261535 0.00038844 0)
(-0.0267105 0.000375327 0)
(-0.0272486 0.000362299 0)
(-0.0277681 0.000349389 0)
(-0.0282689 0.000336627 0)
(-0.0287514 0.000324038 0)
(-0.0292159 0.000311646 0)
(-0.0296625 0.000299468 0)
(-0.0300916 0.00028752 0)
(-0.0305035 0.000275815 0)
(-0.0308985 0.000264362 0)
(-0.0312771 0.000253168 0)
(-0.0316396 0.000242236 0)
(-0.0319863 0.000231569 0)
(-0.0323176 0.000221166 0)
(-0.0326339 0.000211025 0)
(-0.0329355 0.00020114 0)
(-0.0332229 0.000191505 0)
(-0.0334963 0.000182114 0)
(-0.0337561 0.000172954 0)
(-0.0340026 0.000164017 0)
(-0.0342361 0.000155288 0)
(-0.0344569 0.000146755 0)
(-0.0346653 0.000138402 0)
(-0.0348615 0.000130214 0)
(-0.0350458 0.000122172 0)
(-0.0352182 0.000114261 0)
(-0.0353791 0.00010646 0)
(-0.0355285 9.87498e-05 0)
(-0.0356665 9.11108e-05 0)
(-0.0357933 8.35217e-05 0)
(-0.0359088 7.59611e-05 0)
(-0.0360132 6.84074e-05 0)
(-0.0361064 6.08381e-05 0)
(-0.0361884 5.32306e-05 0)
(-0.036259 4.55616e-05 0)
(-0.0363182 3.78078e-05 0)
(-0.0363659 2.99458e-05 0)
(-0.0364019 2.1952e-05 0)
(-0.0364259 1.38027e-05 0)
(-0.0364377 5.47455e-06 0)
(-0.0364371 -3.05576e-06 0)
(-0.0364238 -1.18115e-05 0)
(-0.0363973 -2.08154e-05 0)
(-0.0363574 -3.00897e-05 0)
(-0.0363037 -3.9656e-05 0)
(-0.0362356 -4.95356e-05 0)
(-0.0361528 -5.97485e-05 0)
(-0.0360547 -7.03141e-05 0)
(-0.0359409 -8.12505e-05 0)
(-0.0358108 -9.25745e-05 0)
(-0.0356638 -0.000104301 0)
(-0.0354994 -0.000116445 0)
(-0.0353169 -0.000129017 0)
(-0.0351158 -0.000142027 0)
(-0.0348955 -0.000155483 0)
(-0.0346552 -0.00016939 0)
(-0.0343944 -0.00018375 0)
(-0.0341124 -0.000198563 0)
(-0.0338086 -0.000213824 0)
(-0.0334823 -0.000229527 0)
(-0.0331331 -0.000245659 0)
(-0.0327602 -0.000262206 0)
(-0.0323631 -0.000279148 0)
(-0.0319413 -0.00029646 0)
(-0.0314943 -0.000314114 0)
(-0.0310217 -0.000332076 0)
(-0.030523 -0.000350305 0)
(-0.029998 -0.000368758 0)
(-0.0294464 -0.000387382 0)
(-0.028868 -0.000406121 0)
(-0.0282627 -0.00042491 0)
(-0.0276306 -0.000443681 0)
(-0.0269717 -0.000462357 0)
(-0.0262863 -0.000480854 0)
(-0.0255747 -0.000499083 0)
(-0.0248374 -0.000516947 0)
(-0.0240751 -0.000534344 0)
(-0.0232884 -0.000551162 0)
(-0.0224785 -0.000567286 0)
(-0.0216463 -0.000582592 0)
(-0.0207932 -0.000596952 0)
(-0.0199206 -0.000610231 0)
(-0.0190303 -0.000622289 0)
(-0.018124 -0.00063298 0)
(-0.0172039 -0.000642155 0)
(-0.0162722 -0.000649662 0)
(-0.0153315 -0.000655342 0)
(-0.0143845 -0.000659037 0)
(-0.0134342 -0.000660586 0)
(-0.0124837 -0.000659826 0)
(-0.0115364 -0.000656597 0)
(-0.0105959 -0.000650738 0)
(-0.0096661 -0.00064209 0)
(-0.008751 -0.0006305 0)
(-0.00785484 -0.000615817 0)
(-0.00698206 -0.000597902 0)
(-0.00613725 -0.000576621 0)
(-0.00532515 -0.000551855 0)
(-0.00455064 -0.000523502 0)
(-0.00381868 -0.00049148 0)
(-0.00313428 -0.000455739 0)
(-0.00250245 -0.000416266 0)
(-0.00192807 -0.000373104 0)
(-0.00141587 -0.000326373 0)
(-0.000970209 -0.000276306 0)
(-0.000594907 -0.000223302 0)
(-0.000292946 -0.000168017 0)
(-6.60407e-05 -0.000111503 0)
(8.59826e-05 -5.54567e-05 0)
(0.000166093 -2.60813e-06 0)
(0.000181173 4.26409e-05 0)
(0.000143886 7.32026e-05 0)
(7.79402e-05 7.79078e-05 0)
(2.08541e-05 4.20166e-05 0)
(1.97991e-05 -7.86032e-05 0)
(6.8084e-05 -0.000132041 0)
(0.000111153 -0.000110614 0)
(0.000110321 -3.941e-05 0)
(4.0336e-05 6.29944e-05 0)
(-0.000113658 0.000183383 0)
(-0.000360552 0.000312614 0)
(-0.000704745 0.000444479 0)
(-0.00114718 0.000574803 0)
(-0.0016863 0.00070079 0)
(-0.00231876 0.000820595 0)
(-0.00303999 0.000933021 0)
(-0.00384455 0.00103733 0)
(-0.00472646 0.0011331 0)
(-0.0056794 0.00122015 0)
(-0.00669691 0.00129847 0)
(-0.00777245 0.00136815 0)
(-0.00889955 0.0014294 0)
(-0.0100719 0.00148247 0)
(-0.0112832 0.00152767 0)
(-0.0125276 0.00156536 0)
(-0.0137995 0.00159589 0)
(-0.0150932 0.00161965 0)
(-0.0164037 0.00163704 0)
(-0.0177261 0.00164846 0)
(-0.0190558 0.00165431 0)
(-0.0203886 0.00165498 0)
(-0.0217205 0.00165087 0)
(-0.0230479 0.00164235 0)
(-0.0243672 0.00162981 0)
(-0.0256756 0.0016136 0)
(-0.0269701 0.00159406 0)
(-0.0282482 0.00157155 0)
(-0.0295076 0.00154636 0)
(-0.0307462 0.00151882 0)
(-0.0319623 0.0014892 0)
(-0.0331543 0.00145779 0)
(-0.0343208 0.00142484 0)
(-0.0354605 0.00139059 0)
(-0.0365726 0.00135526 0)
(-0.0376562 0.00131907 0)
(-0.0387107 0.00128222 0)
(-0.0397355 0.00124488 0)
(-0.0407302 0.00120721 0)
(-0.0416948 0.00116938 0)
(-0.042629 0.00113151 0)
(-0.0435328 0.00109373 0)
(-0.0444063 0.00105616 0)
(-0.0452497 0.00101889 0)
(-0.0460632 0.000982001 0)
(-0.0468472 0.000945582 0)
(-0.047602 0.000909694 0)
(-0.048328 0.000874393 0)
(-0.0490257 0.000839727 0)
(-0.0496957 0.000805731 0)
(-0.0503384 0.000772436 0)
(-0.0509543 0.000739861 0)
(-0.0515441 0.000708021 0)
(-0.0521084 0.000676923 0)
(-0.0526476 0.000646566 0)
(-0.0531625 0.000616944 0)
(-0.0536535 0.000588046 0)
(-0.0541212 0.000559854 0)
(-0.0545661 0.000532346 0)
(-0.0549889 0.000505496 0)
(-0.05539 0.000479271 0)
(-0.0557698 0.000453638 0)
(-0.0561288 0.000428557 0)
(-0.0564675 0.000403987 0)
(-0.0567863 0.000379881 0)
(-0.0570854 0.000356191 0)
(-0.0573651 0.000332867 0)
(-0.0576259 0.000309856 0)
(-0.0578677 0.000287101 0)
(-0.058091 0.000264545 0)
(-0.0582957 0.000242128 0)
(-0.058482 0.000219789 0)
(-0.0586499 0.000197466 0)
(-0.0587994 0.000175095 0)
(-0.0589303 0.00015261 0)
(-0.0590427 0.000129947 0)
(-0.0591363 0.000107038 0)
(-0.059211 8.38176e-05 0)
(-0.0592663 6.02176e-05 0)
(-0.059302 3.61713e-05 0)
(-0.0593178 1.16118e-05 0)
(-0.0593131 -1.35273e-05 0)
(-0.0592875 -3.93115e-05 0)
(-0.0592405 -6.58052e-05 0)
(-0.0591714 -9.30715e-05 0)
(-0.0590797 -0.000121172 0)
(-0.0589645 -0.000150165 0)
(-0.0588253 -0.000180108 0)
(-0.0586613 -0.000211054 0)
(-0.0584715 -0.000243054 0)
(-0.0582552 -0.000276155 0)
(-0.0580115 -0.000310399 0)
(-0.0577395 -0.000345823 0)
(-0.0574381 -0.00038246 0)
(-0.0571066 -0.000420335 0)
(-0.0567438 -0.000459468 0)
(-0.0563488 -0.000499871 0)
(-0.0559206 -0.000541548 0)
(-0.0554582 -0.000584495 0)
(-0.0549606 -0.000628698 0)
(-0.0544268 -0.000674133 0)
(-0.053856 -0.000720764 0)
(-0.0532471 -0.000768546 0)
(-0.0525994 -0.00081742 0)
(-0.051912 -0.000867313 0)
(-0.0511842 -0.00091814 0)
(-0.0504153 -0.0009698 0)
(-0.0496047 -0.00102218 0)
(-0.048752 -0.00107514 0)
(-0.0478568 -0.00112854 0)
(-0.0469189 -0.00118221 0)
(-0.045938 -0.00123597 0)
(-0.0449144 -0.00128961 0)
(-0.0438483 -0.00134292 0)
(-0.04274 -0.00139565 0)
(-0.0415901 -0.00144756 0)
(-0.0403995 -0.00149836 0)
(-0.0391693 -0.00154775 0)
(-0.0379006 -0.00159543 0)
(-0.0365951 -0.00164107 0)
(-0.0352546 -0.0016843 0)
(-0.0338811 -0.00172477 0)
(-0.0324771 -0.0017621 0)
(-0.0310452 -0.00179589 0)
(-0.0295886 -0.00182573 0)
(-0.0281104 -0.0018512 0)
(-0.0266143 -0.00187187 0)
(-0.0251045 -0.0018873 0)
(-0.0235851 -0.00189705 0)
(-0.0220609 -0.00190068 0)
(-0.020537 -0.00189773 0)
(-0.0190187 -0.00188776 0)
(-0.0175116 -0.00187034 0)
(-0.0160219 -0.00184504 0)
(-0.0145559 -0.00181145 0)
(-0.0131201 -0.00176918 0)
(-0.0117214 -0.00171786 0)
(-0.0103671 -0.00165718 0)
(-0.00906433 -0.00158684 0)
(-0.00782063 -0.00150664 0)
(-0.00664355 -0.00141642 0)
(-0.00554063 -0.00131614 0)
(-0.00451931 -0.00120589 0)
(-0.00358681 -0.00108595 0)
(-0.00274993 -0.000956826 0)
(-0.00201481 -0.000819387 0)
(-0.00138661 -0.000674985 0)
(-0.000869115 -0.000525677 0)
(-0.000464107 -0.000374551 0)
(-0.000170591 -0.000226218 0)
(1.62609e-05 -8.75475e-05 0)
(0.000106287 3.12828e-05 0)
(0.000116002 0.000115455 0)
(7.35015e-05 0.000143925 0)
(2.18362e-05 8.77139e-05 0)
(1.55734e-05 -0.000113623 0)
(4.28972e-05 -0.000170587 0)
(4.08447e-05 -0.000109988 0)
(-2.81858e-05 2.97939e-05 0)
(-0.000189884 0.000221223 0)
(-0.000460434 0.000443869 0)
(-0.000849905 0.000682869 0)
(-0.00136353 0.000927635 0)
(-0.00200267 0.0011707 0)
(-0.00276574 0.00140683 0)
(-0.00364896 0.00163243 0)
(-0.00464692 0.00184506 0)
(-0.00575306 0.00204312 0)
(-0.00696004 0.00222564 0)
(-0.00825998 0.00239211 0)
(-0.00964471 0.00254234 0)
(-0.0111059 0.00267643 0)
(-0.0126353 0.00279463 0)
(-0.0142247 0.00289737 0)
(-0.0158661 0.00298515 0)
(-0.0175517 0.00305859 0)
(-0.019274 0.00311834 0)
(-0.0210258 0.0031651 0)
(-0.0228003 0.00319959 0)
(-0.0245912 0.00322256 0)
(-0.0263922 0.00323474 0)
(-0.0281977 0.00323688 0)
(-0.0300024 0.00322973 0)
(-0.0318014 0.00321401 0)
(-0.0335901 0.00319042 0)
(-0.0353644 0.00315966 0)
(-0.0371205 0.00312239 0)
(-0.0388549 0.00307926 0)
(-0.0405645 0.00303089 0)
(-0.0422465 0.00297785 0)
(-0.0438984 0.00292072 0)
(-0.0455182 0.00286002 0)
(-0.0471038 0.00279625 0)
(-0.0486536 0.00272988 0)
(-0.0501663 0.00266135 0)
(-0.0516408 0.00259107 0)
(-0.0530761 0.00251943 0)
(-0.0544715 0.00244677 0)
(-0.0558264 0.00237342 0)
(-0.0571406 0.00229967 0)
(-0.0584138 0.0022258 0)
(-0.0596459 0.00215205 0)
(-0.0608371 0.00207863 0)
(-0.0619876 0.00200576 0)
(-0.0630976 0.00193359 0)
(-0.0641675 0.00186228 0)
(-0.0651979 0.00179197 0)
(-0.0661892 0.00172276 0)
(-0.067142 0.00165474 0)
(-0.0680571 0.001588 0)
(-0.0689351 0.00152259 0)
(-0.0697767 0.00145855 0)
(-0.0705826 0.00139592 0)
(-0.0713537 0.0013347 0)
(-0.0720906 0.00127491 0)
(-0.0727942 0.00121652 0)
(-0.0734652 0.00115952 0)
(-0.0741044 0.00110388 0)
(-0.0747124 0.00104956 0)
(-0.07529 0.000996498 0)
(-0.0758378 0.000944642 0)
(-0.0763565 0.000893924 0)
(-0.0768467 0.00084427 0)
(-0.0773088 0.000795599 0)
(-0.0777436 0.000747823 0)
(-0.0781513 0.000700848 0)
(-0.0785324 0.000654576 0)
(-0.0788873 0.000608904 0)
(-0.0792162 0.000563725 0)
(-0.0795194 0.000518926 0)
(-0.0797971 0.000474393 0)
(-0.0800494 0.000430007 0)
(-0.0802763 0.000385647 0)
(-0.0804777 0.000341188 0)
(-0.0806537 0.000296506 0)
(-0.080804 0.000251473 0)
(-0.0809284 0.00020596 0)
(-0.0810266 0.000159838 0)
(-0.0810983 0.000112978 0)
(-0.0811429 6.5249e-05 0)
(-0.0811601 1.65224e-05 0)
(-0.0811491 -3.33298e-05 0)
(-0.0811093 -8.44338e-05 0)
(-0.0810401 -0.000136914 0)
(-0.0809406 -0.000190891 0)
(-0.0808099 -0.000246483 0)
(-0.0806472 -0.000303804 0)
(-0.0804516 -0.000362962 0)
(-0.0802218 -0.00042406 0)
(-0.0799569 -0.000487193 0)
(-0.0796558 -0.00055245 0)
(-0.0793172 -0.000619912 0)
(-0.07894 -0.000689647 0)
(-0.0785228 -0.000761717 0)
(-0.0780645 -0.000836169 0)
(-0.0775637 -0.000913037 0)
(-0.0770191 -0.000992342 0)
(-0.0764294 -0.00107409 0)
(-0.0757932 -0.00115827 0)
(-0.0751093 -0.00124484 0)
(-0.0743765 -0.00133377 0)
(-0.0735934 -0.00142497 0)
(-0.072759 -0.00151836 0)
(-0.071872 -0.00161381 0)
(-0.0709314 -0.00171119 0)
(-0.0699363 -0.00181032 0)
(-0.0688858 -0.001911 0)
(-0.0677792 -0.00201301 0)
(-0.0666158 -0.00211608 0)
(-0.0653953 -0.00221993 0)
(-0.0641174 -0.00232422 0)
(-0.0627819 -0.00242861 0)
(-0.0613891 -0.0025327 0)
(-0.0599392 -0.00263606 0)
(-0.0584328 -0.00273822 0)
(-0.0568709 -0.00283869 0)
(-0.0552545 -0.00293692 0)
(-0.0535852 -0.00303235 0)
(-0.0518647 -0.00312437 0)
(-0.0500951 -0.00321234 0)
(-0.0482789 -0.00329558 0)
(-0.046419 -0.00337339 0)
(-0.0445185 -0.00344504 0)
(-0.0425811 -0.00350976 0)
(-0.040611 -0.00356677 0)
(-0.0386125 -0.00361527 0)
(-0.0365906 -0.00365444 0)
(-0.0345506 -0.00368343 0)
(-0.0324984 -0.00370141 0)
(-0.0304402 -0.00370753 0)
(-0.0283827 -0.00370095 0)
(-0.0263331 -0.00368084 0)
(-0.0242989 -0.00364638 0)
(-0.022288 -0.00359678 0)
(-0.0203088 -0.0035313 0)
(-0.01837 -0.00344922 0)
(-0.0164807 -0.00334991 0)
(-0.01465 -0.0032328 0)
(-0.0128876 -0.00309744 0)
(-0.011203 -0.00294348 0)
(-0.00960598 -0.00277077 0)
(-0.0081061 -0.00257936 0)
(-0.00671279 -0.00236957 0)
(-0.00543505 -0.00214209 0)
(-0.00428124 -0.00189811 0)
(-0.00325881 -0.00163949 0)
(-0.00237384 -0.001369 0)
(-0.00163063 -0.00109065 0)
(-0.00103097 -0.000810262 0)
(-0.000573387 -0.000536097 0)
(-0.0002521 -0.000279902 0)
(-5.59341e-05 -5.82354e-05 0)
(3.31218e-05 0.000106013 0)
(4.35286e-05 0.000181747 0)
(1.67254e-05 0.00012508 0)
(8.68982e-06 -0.000130986 0)
(4.47223e-06 -0.000164706 0)
(-6.07728e-05 -4.05941e-05 0)
(-0.000218749 0.000191323 0)
(-0.000492948 0.000495207 0)
(-0.000899347 0.000843817 0)
(-0.00144801 0.0012167 0)
(-0.00214418 0.00159879 0)
(-0.00298919 0.0019791 0)
(-0.00398124 0.00234966 0)
(-0.00511611 0.00270482 0)
(-0.00638773 0.0030406 0)
(-0.00778866 0.00335432 0)
(-0.00931045 0.00364424 0)
(-0.010944 0.00390936 0)
(-0.0126798 0.00414924 0)
(-0.014508 0.00436386 0)
(-0.016419 0.0045535 0)
(-0.0184028 0.00471873 0)
(-0.0204499 0.00486026 0)
(-0.022551 0.00497897 0)
(-0.0246971 0.00507586 0)
(-0.0268794 0.00515196 0)
(-0.0290897 0.0052084 0)
(-0.0313202 0.00524632 0)
(-0.0335635 0.00526689 0)
(-0.0358125 0.00527126 0)
(-0.0380608 0.00526061 0)
(-0.0403023 0.00523607 0)
(-0.0425314 0.00519879 0)
(-0.0447429 0.00514985 0)
(-0.0469323 0.00509032 0)
(-0.0490951 0.00502123 0)
(-0.0512275 0.00494357 0)
(-0.053326 0.00485828 0)
(-0.0553876 0.00476627 0)
(-0.0574095 0.00466838 0)
(-0.0593893 0.00456544 0)
(-0.061325 0.00445818 0)
(-0.0632149 0.00434734 0)
(-0.0650574 0.00423357 0)
(-0.0668515 0.0041175 0)
(-0.0685962 0.00399969 0)
(-0.0702907 0.00388068 0)
(-0.0719347 0.00376094 0)
(-0.0735277 0.00364093 0)
(-0.0750699 0.00352103 0)
(-0.0765611 0.00340161 0)
(-0.0780016 0.00328299 0)
(-0.0793917 0.00316545 0)
(-0.080732 0.00304925 0)
(-0.0820229 0.0029346 0)
(-0.0832651 0.00282169 0)
(-0.0844593 0.00271066 0)
(-0.0856063 0.00260165 0)
(-0.0867069 0.00249476 0)
(-0.0877621 0.00239005 0)
(-0.0887726 0.00228758 0)
(-0.0897395 0.00218737 0)
(-0.0906636 0.00208943 0)
(-0.0915458 0.00199375 0)
(-0.0923872 0.0019003 0)
(-0.0931885 0.00180902 0)
(-0.0939508 0.00171985 0)
(-0.0946747 0.0016327 0)
(-0.0953613 0.00154749 0)
(-0.0960111 0.00146411 0)
(-0.096625 0.00138244 0)
(-0.0972037 0.00130234 0)
(-0.0977477 0.00122368 0)
(-0.0982576 0.00114631 0)
(-0.098734 0.00107007 0)
(-0.0991772 0.000994789 0)
(-0.0995877 0.000920297 0)
(-0.0999656 0.000846413 0)
(-0.100311 0.000772952 0)
(-0.100625 0.000699723 0)
(-0.100906 0.000626529 0)
(-0.101155 0.000553171 0)
(-0.101372 0.000479447 0)
(-0.101557 0.000405151 0)
(-0.101709 0.000330075 0)
(-0.101828 0.000254012 0)
(-0.101913 0.000176751 0)
(-0.101964 9.80838e-05 0)
(-0.10198 1.78033e-05 0)
(-0.101961 -6.42966e-05 0)
(-0.101905 -0.000148419 0)
(-0.101813 -0.000234763 0)
(-0.101682 -0.000323524 0)
(-0.101512 -0.000414889 0)
(-0.101302 -0.00050904 0)
(-0.10105 -0.000606151 0)
(-0.100756 -0.000706385 0)
(-0.100417 -0.000809894 0)
(-0.100033 -0.00091682 0)
(-0.0996021 -0.00102729 0)
(-0.0991227 -0.00114141 0)
(-0.0985935 -0.00125927 0)
(-0.0980127 -0.00138096 0)
(-0.0973789 -0.00150651 0)
(-0.0966904 -0.00163596 0)
(-0.0959457 -0.00176932 0)
(-0.0951432 -0.00190656 0)
(-0.0942812 -0.00204762 0)
(-0.0933583 -0.00219243 0)
(-0.0923729 -0.00234085 0)
(-0.0913237 -0.00249274 0)
(-0.0902093 -0.00264789 0)
(-0.0890284 -0.00280608 0)
(-0.0877799 -0.00296701 0)
(-0.0864628 -0.00313038 0)
(-0.0850763 -0.00329579 0)
(-0.0836195 -0.00346284 0)
(-0.0820921 -0.00363104 0)
(-0.0804937 -0.00379986 0)
(-0.0788243 -0.00396873 0)
(-0.0770841 -0.00413701 0)
(-0.0752736 -0.004304 0)
(-0.0733936 -0.00446895 0)
(-0.0714452 -0.00463105 0)
(-0.0694298 -0.00478944 0)
(-0.0673493 -0.00494319 0)
(-0.0652059 -0.00509133 0)
(-0.0630023 -0.00523282 0)
(-0.0607416 -0.00536658 0)
(-0.0584272 -0.00549148 0)
(-0.0560633 -0.00560634 0)
(-0.0536543 -0.00570996 0)
(-0.0512053 -0.00580106 0)
(-0.0487217 -0.00587837 0)
(-0.0462097 -0.00594058 0)
(-0.0436757 -0.00598637 0)
(-0.0411271 -0.00601439 0)
(-0.0385713 -0.00602331 0)
(-0.0360166 -0.00601181 0)
(-0.0334717 -0.00597858 0)
(-0.0309457 -0.00592236 0)
(-0.0284484 -0.00584192 0)
(-0.0259898 -0.00573611 0)
(-0.0235804 -0.00560386 0)
(-0.0212312 -0.00544424 0)
(-0.0189532 -0.00525641 0)
(-0.0167578 -0.00503975 0)
(-0.0146565 -0.00479386 0)
(-0.0126608 -0.00451861 0)
(-0.0107819 -0.00421424 0)
(-0.00903086 -0.00388145 0)
(-0.0074181 -0.00352155 0)
(-0.00595323 -0.00313663 0)
(-0.0046447 -0.00272981 0)
(-0.00349937 -0.00230562 0)
(-0.00252198 -0.00187039 0)
(-0.00171458 -0.001433 0)
(-0.0010757 -0.00100563 0)
(-0.000599509 -0.00060502 0)
(-0.000274836 -0.000253935 0)
(-8.3911e-05 1.71666e-05 0)
(-8.73316e-07 0.000167982 0)
(8.73165e-06 0.0001418 0)
(6.64095e-07 -0.000125778 0)
(-4.10677e-05 -0.000102774 0)
(-0.000181028 0.000112834 0)
(-0.000441953 0.000462017 0)
(-0.000843238 0.000901824 0)
(-0.00139945 0.00139894 0)
(-0.00211969 0.00192776 0)
(-0.00300846 0.0024689 0)
(-0.00406658 0.00300787 0)
(-0.00529176 0.00353389 0)
(-0.00667921 0.00403908 0)
(-0.0082222 0.00451777 0)
(-0.0099125 0.004966 0)
(-0.0117407 0.00538115 0)
(-0.0136968 0.0057616 0)
(-0.01577 0.00610654 0)
(-0.0179494 0.00641574 0)
(-0.0202238 0.00668949 0)
(-0.0225823 0.00692844 0)
(-0.0250138 0.00713352 0)
(-0.0275077 0.00730589 0)
(-0.0300538 0.00744687 0)
(-0.0326419 0.00755792 0)
(-0.0352625 0.00764056 0)
(-0.0379065 0.00769641 0)
(-0.0405654 0.0077271 0)
(-0.0432311 0.00773428 0)
(-0.0458959 0.0077196 0)
(-0.0485528 0.0076847 0)
(-0.0511952 0.00763119 0)
(-0.0538171 0.00756065 0)
(-0.056413 0.00747461 0)
(-0.0589779 0.00737455 0)
(-0.0615071 0.00726191 0)
(-0.0639965 0.00713804 0)
(-0.0664426 0.00700426 0)
(-0.0688421 0.0068618 0)
(-0.0711921 0.00671185 0)
(-0.0734902 0.00655551 0)
(-0.0757343 0.00639382 0)
(-0.0779228 0.00622775 0)
(-0.080054 0.0060582 0)
(-0.082127 0.00588601 0)
(-0.0841408 0.00571196 0)
(-0.086095 0.00553676 0)
(-0.087989 0.00536105 0)
(-0.0898228 0.00518542 0)
(-0.0915963 0.00501039 0)
(-0.0933099 0.00483646 0)
(-0.0949638 0.00466402 0)
(-0.0965586 0.00449346 0)
(-0.0980949 0.0043251 0)
(-0.0995734 0.0041592 0)
(-0.100995 0.00399599 0)
(-0.102361 0.00383567 0)
(-0.103671 0.00367839 0)
(-0.104927 0.00352425 0)
(-0.106131 0.00337333 0)
(-0.107282 0.00322567 0)
(-0.108382 0.00308129 0)
(-0.109433 0.00294017 0)
(-0.110435 0.00280226 0)
(-0.111389 0.0026675 0)
(-0.112296 0.00253578 0)
(-0.113158 0.00240701 0)
(-0.113975 0.00228103 0)
(-0.114748 0.0021577 0)
(-0.115478 0.00203685 0)
(-0.116166 0.00191828 0)
(-0.116812 0.00180179 0)
(-0.117418 0.00168716 0)
(-0.117983 0.00157417 0)
(-0.118509 0.00146257 0)
(-0.118995 0.00135211 0)
(-0.119443 0.00124253 0)
(-0.119851 0.00113356 0)
(-0.120221 0.00102491 0)
(-0.120553 0.000916317 0)
(-0.120846 0.000807475 0)
(-0.1211 0.000698093 0)
(-0.121315 0.000587873 0)
(-0.121491 0.000476514 0)
(-0.121628 0.000363712 0)
(-0.121724 0.000249164 0)
(-0.121779 0.000132567 0)
(-0.121793 1.36201e-05 0)
(-0.121764 -0.000107976 0)
(-0.121691 -0.000232514 0)
(-0.121575 -0.000360284 0)
(-0.121412 -0.000491566 0)
(-0.121203 -0.000626633 0)
(-0.120946 -0.000765746 0)
(-0.120639 -0.000909154 0)
(-0.120281 -0.00105709 0)
(-0.119871 -0.00120978 0)
(-0.119406 -0.00136742 0)
(-0.118886 -0.0015302 0)
(-0.118308 -0.00169825 0)
(-0.117671 -0.00187173 0)
(-0.116973 -0.00205072 0)
(-0.116212 -0.00223531 0)
(-0.115386 -0.00242553 0)
(-0.114494 -0.00262137 0)
(-0.113532 -0.0028228 0)
(-0.112501 -0.00302973 0)
(-0.111398 -0.00324204 0)
(-0.11022 -0.00345954 0)
(-0.108968 -0.003682 0)
(-0.107638 -0.00390913 0)
(-0.10623 -0.00414058 0)
(-0.104743 -0.00437593 0)
(-0.103174 -0.00461471 0)
(-0.101524 -0.00485637 0)
(-0.0997912 -0.00510028 0)
(-0.0979752 -0.00534575 0)
(-0.0960759 -0.00559202 0)
(-0.0940932 -0.00583822 0)
(-0.0920273 -0.00608343 0)
(-0.089879 -0.00632664 0)
(-0.087649 -0.00656674 0)
(-0.0853389 -0.00680257 0)
(-0.0829504 -0.00703287 0)
(-0.0804856 -0.00725629 0)
(-0.0779473 -0.00747142 0)
(-0.0753385 -0.00767676 0)
(-0.0726629 -0.00787074 0)
(-0.0699246 -0.00805173 0)
(-0.0671285 -0.00821804 0)
(-0.0642798 -0.00836789 0)
(-0.0613843 -0.00849949 0)
(-0.0584485 -0.00861099 0)
(-0.0554796 -0.0087005 0)
(-0.0524851 -0.00876614 0)
(-0.0494734 -0.00880599 0)
(-0.0464535 -0.00881814 0)
(-0.0434347 -0.00880071 0)
(-0.0404271 -0.00875187 0)
(-0.0374415 -0.00866982 0)
(-0.0344889 -0.00855286 0)
(-0.031581 -0.00839939 0)
(-0.0287298 -0.00820796 0)
(-0.0259479 -0.00797729 0)
(-0.0232479 -0.00770633 0)
(-0.0206429 -0.00739427 0)
(-0.0181457 -0.0070407 0)
(-0.0157694 -0.00664559 0)
(-0.0135267 -0.00620947 0)
(-0.0114299 -0.00573355 0)
(-0.00949059 -0.00521989 0)
(-0.00771951 -0.00467168 0)
(-0.00612597 -0.00409351 0)
(-0.00471758 -0.00349184 0)
(-0.00349969 -0.00287554 0)
(-0.00247487 -0.00225661 0)
(-0.00164224 -0.00165118 0)
(-0.000996736 -0.00108075 0)
(-0.000528268 -0.000573811 0)
(-0.000220658 -0.000167492 0)
(-5.27576e-05 9.01291e-05 0)
(-4.38533e-07 0.00013263 0)
(-7.72452e-06 -9.57121e-05 0)
(-8.99791e-05 2.19474e-05 0)
(-0.000311356 0.000360021 0)
(-0.000684002 0.000853144 0)
(-0.00122198 0.00145271 0)
(-0.00193753 0.00212027 0)
(-0.00283801 0.00282568 0)
(-0.00392659 0.00354565 0)
(-0.00520306 0.00426233 0)
(-0.00666432 0.0049622 0)
(-0.00830483 0.00563515 0)
(-0.0101171 0.00627375 0)
(-0.0120922 0.00687269 0)
(-0.0142197 0.00742834 0)
(-0.0164888 0.00793839 0)
(-0.0188877 0.00840155 0)
(-0.0214043 0.00881738 0)
(-0.0240266 0.0091861 0)
(-0.0267423 0.0095084 0)
(-0.0295394 0.00978542 0)
(-0.032406 0.0100186 0)
(-0.0353306 0.0102096 0)
(-0.038302 0.0103603 0)
(-0.0413098 0.0104727 0)
(-0.0443435 0.0105489 0)
(-0.0473937 0.010591 0)
(-0.0504512 0.0106013 0)
(-0.0535074 0.0105819 0)
(-0.0565545 0.010535 0)
(-0.0595849 0.0104627 0)
(-0.0625919 0.0103673 0)
(-0.0655692 0.0102507 0)
(-0.0685111 0.0101149 0)
(-0.0714123 0.00996186 0)
(-0.0742683 0.00979346 0)
(-0.0770748 0.00961144 0)
(-0.0798282 0.00941749 0)
(-0.0825251 0.0092132 0)
(-0.0851629 0.00900007 0)
(-0.0877391 0.00877954 0)
(-0.0902517 0.0085529 0)
(-0.092699 0.00832141 0)
(-0.0950797 0.0080862 0)
(-0.0973929 0.00784833 0)
(-0.0996378 0.00760878 0)
(-0.101814 0.00736842 0)
(-0.103921 0.00712806 0)
(-0.105959 0.00688844 0)
(-0.107929 0.0066502 0)
(-0.10983 0.00641391 0)
(-0.111664 0.0061801 0)
(-0.11343 0.00594919 0)
(-0.11513 0.00572157 0)
(-0.116765 0.00549756 0)
(-0.118336 0.00527742 0)
(-0.119843 0.00506135 0)
(-0.121288 0.00484951 0)
(-0.122672 0.00464201 0)
(-0.123996 0.0044389 0)
(-0.125262 0.00424022 0)
(-0.12647 0.00404594 0)
(-0.127622 0.00385601 0)
(-0.128719 0.00367033 0)
(-0.129763 0.00348877 0)
(-0.130753 0.00331119 0)
(-0.131692 0.0031374 0)
(-0.13258 0.0029672 0)
(-0.133419 0.00280034 0)
(-0.134209 0.00263658 0)
(-0.13495 0.00247564 0)
(-0.135645 0.00231722 0)
(-0.136293 0.00216102 0)
(-0.136895 0.0020067 0)
(-0.137452 0.00185392 0)
(-0.137963 0.00170232 0)
(-0.13843 0.00155155 0)
(-0.138852 0.00140122 0)
(-0.139229 0.00125094 0)
(-0.139562 0.00110032 0)
(-0.13985 0.000948969 0)
(-0.140092 0.000796468 0)
(-0.14029 0.000642414 0)
(-0.140441 0.000486395 0)
(-0.140546 0.000327998 0)
(-0.140603 0.000166814 0)
(-0.140612 2.43446e-06 0)
(-0.140572 -0.000165546 0)
(-0.140482 -0.000337524 0)
(-0.140341 -0.00051389 0)
(-0.140147 -0.000695025 0)
(-0.139899 -0.000881295 0)
(-0.139596 -0.00107305 0)
(-0.139235 -0.00127064 0)
(-0.138816 -0.00147436 0)
(-0.138337 -0.00168452 0)
(-0.137795 -0.00190139 0)
(-0.137189 -0.0021252 0)
(-0.136517 -0.00235616 0)
(-0.135777 -0.00259444 0)
(-0.134967 -0.00284018 0)
(-0.134085 -0.00309347 0)
(-0.133128 -0.00335436 0)
(-0.132095 -0.00362283 0)
(-0.130984 -0.00389883 0)
(-0.129792 -0.00418223 0)
(-0.128519 -0.00447285 0)
(-0.12716 -0.00477045 0)
(-0.125716 -0.00507469 0)
(-0.124184 -0.00538518 0)
(-0.122563 -0.00570143 0)
(-0.12085 -0.00602287 0)
(-0.119046 -0.00634885 0)
(-0.117149 -0.00667861 0)
(-0.115157 -0.00701131 0)
(-0.113071 -0.00734599 0)
(-0.11089 -0.00768161 0)
(-0.108614 -0.008017 0)
(-0.106244 -0.0083509 0)
(-0.10378 -0.00868193 0)
(-0.101224 -0.0090086 0)
(-0.0985762 -0.00932931 0)
(-0.0958396 -0.00964235 0)
(-0.0930166 -0.00994591 0)
(-0.09011 -0.0102381 0)
(-0.0871236 -0.0105168 0)
(-0.0840615 -0.01078 0)
(-0.0809283 -0.0110254 0)
(-0.0777295 -0.0112508 0)
(-0.0744711 -0.0114537 0)
(-0.0711596 -0.0116318 0)
(-0.0678024 -0.0117826 0)