/*--------------------------------*- C++ -*----------------------------------*\
  =========                 |
  \\      /  F ield         | OpenFOAM: The Open Source CFD Toolbox
   \\    /   O peration     | Website:  https://openfoam.org
    \\  /    A nd           | Version:  7
     \\/     M anipulation  |
\*---------------------------------------------------------------------------*/
FoamFile
{
    version     2.0;
    format      ascii;
    class       volScalarField;
    location    "0.075";
    object      p;
}
// * * * * * * * * * * * * * * * * * * * * * * * * * * * * * * * * * * * * * //

dimensions      [0 2 -2 0 0 0 0];

internalField   nonuniform List<scalar> 
51200
(
3.21419e-09
6.66606e-07
1.48386e-06
2.10466e-06
2.316e-06
2.14065e-06
1.63977e-06
8.63162e-07
-1.20545e-07
-1.24718e-06
-2.45411e-06
-3.70983e-06
-5.0062e-06
-6.33986e-06
-7.69158e-06
-9.02461e-06
-1.03139e-05
-1.15586e-05
-1.27627e-05
-1.39168e-05
-1.49957e-05
-1.59778e-05
-1.68718e-05
-1.77139e-05
-1.85278e-05
-1.93016e-05
-2.00004e-05
-2.05927e-05
-2.10691e-05
-2.14415e-05
-2.17264e-05
-2.19348e-05
-2.20742e-05
-2.21457e-05
-2.21424e-05
-2.20533e-05
-2.18699e-05
-2.15921e-05
-2.12284e-05
-2.07858e-05
-2.02622e-05
-1.96549e-05
-1.897e-05
-1.82161e-05
-1.73928e-05
-1.64939e-05
-1.55195e-05
-1.44785e-05
-1.3382e-05
-1.2236e-05
-1.1037e-05
-9.77545e-06
-8.44897e-06
-7.06622e-06
-5.63619e-06
-4.16136e-06
-2.64201e-06
-1.08026e-06
5.22908e-07
2.17092e-06
3.8681e-06
5.61267e-06
7.39435e-06
9.20178e-06
1.10325e-05
1.28932e-05
1.4791e-05
1.67253e-05
1.86874e-05
2.06672e-05
2.2659e-05
2.4663e-05
2.66804e-05
2.87108e-05
3.07537e-05
3.28072e-05
3.48684e-05
3.69357e-05
3.901e-05
4.10908e-05
4.31736e-05
4.5252e-05
4.73226e-05
4.93872e-05
5.14488e-05
5.35037e-05
5.55418e-05
5.75534e-05
5.95356e-05
6.14917e-05
6.34237e-05
6.53305e-05
6.7212e-05
6.90711e-05
7.09077e-05
7.27129e-05
7.44746e-05
7.61897e-05
7.78682e-05
7.95218e-05
8.11494e-05
8.27357e-05
8.4263e-05
8.5724e-05
8.71235e-05
8.84703e-05
8.97696e-05
9.10193e-05
9.22122e-05
9.33402e-05
9.43992e-05
9.53903e-05
9.63182e-05
9.71879e-05
9.79995e-05
9.8745e-05
9.94139e-05
0.000100003
0.000100517
0.000100961
0.000101329
0.000101608
0.000101794
0.000101897
0.000101929
0.000101886
0.000101757
0.000101529
0.000101204
0.000100788
0.00010029
9.97122e-05
9.90542e-05
9.83128e-05
9.7481e-05
9.6554e-05
9.55373e-05
9.44454e-05
9.32911e-05
9.20747e-05
9.07872e-05
8.94244e-05
8.79967e-05
8.65239e-05
8.50204e-05
8.34903e-05
8.19372e-05
8.03765e-05
7.88364e-05
7.7344e-05
7.59128e-05
7.45487e-05
7.32673e-05
7.2105e-05
7.11093e-05
7.0319e-05
6.97556e-05
6.94338e-05
6.93653e-05
6.95008e-05
3.96783e-07
1.15383e-06
1.84026e-06
2.31487e-06
2.46578e-06
2.28559e-06
1.82814e-06
1.15607e-06
3.05436e-07
-6.85061e-07
-1.76764e-06
-2.90163e-06
-4.07051e-06
-5.26552e-06
-6.47917e-06
-7.69574e-06
-8.88422e-06
-1.00295e-05
-1.11399e-05
-1.22182e-05
-1.32536e-05
-1.42221e-05
-1.51017e-05
-1.5895e-05
-1.66229e-05
-1.73e-05
-1.79235e-05
-1.84777e-05
-1.89476e-05
-1.93301e-05
-1.96286e-05
-1.98446e-05
-1.99798e-05
-2.00391e-05
-2.00263e-05
-1.99393e-05
-1.97707e-05
-1.95147e-05
-1.91736e-05
-1.87545e-05
-1.82581e-05
-1.76805e-05
-1.70246e-05
-1.63001e-05
-1.5512e-05
-1.46578e-05
-1.37334e-05
-1.27391e-05
-1.16814e-05
-1.05685e-05
-9.40482e-06
-8.18783e-06
-6.9148e-06
-5.5877e-06
-4.2102e-06
-2.78382e-06
-1.30976e-06
2.07623e-07
1.76282e-06
3.35538e-06
4.99065e-06
6.67277e-06
8.39826e-06
1.01578e-05
1.1944e-05
1.37559e-05
1.55962e-05
1.74655e-05
1.93601e-05
2.12745e-05
2.32055e-05
2.51523e-05
2.71134e-05
2.9086e-05
3.10684e-05
3.3061e-05
3.50632e-05
3.70727e-05
3.9087e-05
4.11041e-05
4.31227e-05
4.51406e-05
4.71545e-05
4.9161e-05
5.11585e-05
5.3145e-05
5.51163e-05
5.70668e-05
5.89935e-05
6.08967e-05
6.27758e-05
6.46263e-05
6.64446e-05
6.82343e-05
7.0003e-05
7.17523e-05
7.34722e-05
7.51487e-05
7.67762e-05
7.83613e-05
7.99138e-05
8.14349e-05
8.2915e-05
8.43405e-05
8.57027e-05
8.70013e-05
8.82417e-05
8.94302e-05
9.05692e-05
9.16551e-05
9.26807e-05
9.36396e-05
9.45296e-05
9.53542e-05
9.61192e-05
9.68252e-05
9.74643e-05
9.80269e-05
9.85103e-05
9.89183e-05
9.92539e-05
9.95128e-05
9.96877e-05
9.97781e-05
9.97905e-05
9.97287e-05
9.95885e-05
9.93624e-05
9.90473e-05
9.86452e-05
9.81602e-05
9.75954e-05
9.69533e-05
9.62355e-05
9.54408e-05
9.45645e-05
9.36048e-05
9.25684e-05
9.14677e-05
9.03117e-05
8.90997e-05
8.78264e-05
8.6494e-05
8.51166e-05
8.37138e-05
8.22996e-05
8.08799e-05
7.94604e-05
7.80562e-05
7.66918e-05
7.53902e-05
7.41653e-05
7.30276e-05
7.19969e-05
7.11059e-05
7.03899e-05
6.98718e-05
6.95629e-05
6.94823e-05
6.96204e-05
1.3123e-06
1.96607e-06
2.48119e-06
2.8222e-06
2.88961e-06
2.66723e-06
2.20488e-06
1.56841e-06
7.90522e-07
-1.08527e-07
-1.10098e-06
-2.15596e-06
-3.24288e-06
-4.34287e-06
-5.45815e-06
-6.58342e-06
-7.69471e-06
-8.77022e-06
-9.80145e-06
-1.07964e-05
-1.17655e-05
-1.26993e-05
-1.35689e-05
-1.4351e-05
-1.50443e-05
-1.56656e-05
-1.62315e-05
-1.67426e-05
-1.71894e-05
-1.75651e-05
-1.78671e-05
-1.80903e-05
-1.82303e-05
-1.82888e-05
-1.82718e-05
-1.81842e-05
-1.8024e-05
-1.77837e-05
-1.74611e-05
-1.70609e-05
-1.65866e-05
-1.60364e-05
-1.54096e-05
-1.47118e-05
-1.39502e-05
-1.31271e-05
-1.22405e-05
-1.12883e-05
-1.027e-05
-9.18892e-06
-8.05307e-06
-6.86859e-06
-5.63571e-06
-4.3532e-06
-3.02114e-06
-1.63918e-06
-2.07402e-07
1.27022e-06
2.78694e-06
4.33874e-06
5.92699e-06
7.55569e-06
9.2267e-06
1.0937e-05
1.26803e-05
1.44511e-05
1.62468e-05
1.80652e-05
1.99047e-05
2.17641e-05
2.36429e-05
2.55404e-05
2.74539e-05
2.9378e-05
3.13096e-05
3.32499e-05
3.5201e-05
3.71614e-05
3.91255e-05
4.1089e-05
4.30515e-05
4.50157e-05
4.69807e-05
4.89404e-05
5.08879e-05
5.28195e-05
5.47344e-05
5.66311e-05
5.85074e-05
6.03623e-05
6.2195e-05
6.40011e-05
6.57736e-05
6.75114e-05
6.92222e-05
7.09152e-05
7.25891e-05
7.42298e-05
7.5822e-05
7.73614e-05
7.88565e-05
8.03174e-05
8.1745e-05
8.31298e-05
8.44589e-05
8.57244e-05
8.69265e-05
8.80709e-05
8.91643e-05
9.02087e-05
9.11998e-05
9.21302e-05
9.29928e-05
9.37855e-05
9.45137e-05
9.51839e-05
9.57947e-05
9.63354e-05
9.67955e-05
9.71743e-05
9.74796e-05
9.77168e-05
9.78821e-05
9.79679e-05
9.79721e-05
9.78978e-05
9.77468e-05
9.75173e-05
9.72074e-05
9.68172e-05
9.63483e-05
9.5801e-05
9.51752e-05
9.44739e-05
9.37021e-05
9.28617e-05
9.19502e-05
9.09659e-05
8.99144e-05
8.88064e-05
8.76499e-05
8.64451e-05
8.51902e-05
8.38916e-05
8.2567e-05
8.12376e-05
7.99171e-05
7.86086e-05
7.73149e-05
7.60499e-05
7.48379e-05
7.37026e-05
7.26595e-05
7.17207e-05
7.09052e-05
7.02405e-05
6.97494e-05
6.94471e-05
6.93658e-05
6.95197e-05
2.52945e-06
3.00098e-06
3.34789e-06
3.52715e-06
3.48151e-06
3.1982e-06
2.71463e-06
2.07669e-06
1.32807e-06
4.86966e-07
-4.36959e-07
-1.42577e-06
-2.45389e-06
-3.49782e-06
-4.54455e-06
-5.59452e-06
-6.64316e-06
-7.67044e-06
-8.65584e-06
-9.59215e-06
-1.04865e-05
-1.135e-05
-1.21761e-05
-1.29423e-05
-1.36314e-05
-1.42431e-05
-1.47866e-05
-1.52687e-05
-1.5689e-05
-1.60445e-05
-1.6333e-05
-1.65514e-05
-1.66956e-05
-1.67626e-05
-1.67514e-05
-1.66653e-05
-1.65088e-05
-1.62801e-05
-1.59737e-05
-1.55891e-05
-1.51309e-05
-1.46027e-05
-1.40042e-05
-1.33354e-05
-1.25984e-05
-1.1797e-05
-1.09354e-05
-1.00159e-05
-9.03566e-06
-7.99117e-06
-6.88691e-06
-5.7322e-06
-4.53132e-06
-3.28311e-06
-1.98654e-06
-6.42569e-07
7.47307e-07
2.1822e-06
3.66096e-06
5.18043e-06
6.73616e-06
8.32534e-06
9.94859e-06
1.16081e-05
1.3304e-05
1.50326e-05
1.67879e-05
1.85638e-05
2.0358e-05
2.21713e-05
2.40044e-05
2.58564e-05
2.77244e-05
2.96038e-05
3.14905e-05
3.33852e-05
3.52907e-05
3.72065e-05
3.9127e-05
4.10453e-05
4.29596e-05
4.48736e-05
4.679e-05
4.87044e-05
5.06077e-05
5.24934e-05
5.43608e-05
5.62111e-05
5.80426e-05
5.98517e-05
6.16371e-05
6.33984e-05
6.51332e-05
6.68368e-05
6.85081e-05
7.0151e-05
7.17696e-05
7.33608e-05
7.4915e-05
7.64234e-05
7.78842e-05
7.93016e-05
8.06793e-05
8.2015e-05
8.33023e-05
8.45348e-05
8.57097e-05
8.68276e-05
8.78906e-05
8.88995e-05
8.98536e-05
9.0751e-05
9.15878e-05
9.23585e-05
9.30613e-05
9.37003e-05
9.42796e-05
9.47959e-05
9.52385e-05
9.55994e-05
9.58815e-05
9.60947e-05
9.62441e-05
9.63248e-05
9.63286e-05
9.62521e-05
9.60966e-05
9.58636e-05
9.55543e-05
9.51705e-05
9.47143e-05
9.41857e-05
9.35817e-05
9.29004e-05
9.21461e-05
9.13273e-05
9.04493e-05
8.95111e-05
8.85097e-05
8.74476e-05
8.63337e-05
8.51775e-05
8.39836e-05
8.27554e-05
8.15017e-05
8.02398e-05
7.89891e-05
7.77608e-05
7.6556e-05
7.53765e-05
7.42358e-05
7.31581e-05
7.21681e-05
7.12834e-05
7.0518e-05
6.98892e-05
6.94145e-05
6.911e-05
6.90142e-05
6.9151e-05
3.79707e-06
4.10131e-06
4.29048e-06
4.31267e-06
4.15087e-06
3.81137e-06
3.30968e-06
2.67324e-06
1.93859e-06
1.12709e-06
2.53701e-07
-6.71795e-07
-1.64352e-06
-2.64066e-06
-3.63751e-06
-4.62714e-06
-5.61027e-06
-6.58245e-06
-7.53336e-06
-8.44306e-06
-9.29935e-06
-1.01076e-05
-1.08744e-05
-1.15958e-05
-1.22625e-05
-1.28649e-05
-1.33991e-05
-1.38685e-05
-1.42758e-05
-1.46186e-05
-1.48931e-05
-1.50987e-05
-1.52377e-05
-1.5309e-05
-1.53063e-05
-1.52263e-05
-1.50746e-05
-1.48557e-05
-1.4565e-05
-1.41974e-05
-1.37552e-05
-1.32447e-05
-1.26697e-05
-1.20294e-05
-1.1321e-05
-1.0545e-05
-9.70648e-06
-8.81148e-06
-7.86108e-06
-6.85157e-06
-5.78328e-06
-4.66299e-06
-3.49551e-06
-2.27962e-06
-1.01384e-06
2.98505e-07
1.65208e-06
3.04561e-06
4.48209e-06
5.963e-06
7.48427e-06
9.03886e-06
1.06229e-05
1.22381e-05
1.38876e-05
1.55708e-05
1.72819e-05
1.90146e-05
2.07659e-05
2.25368e-05
2.43274e-05
2.61353e-05
2.79576e-05
2.97918e-05
3.16354e-05
3.34877e-05
3.53492e-05
3.72191e-05
3.90939e-05
4.09689e-05
4.28409e-05
4.47102e-05
4.6579e-05
4.84451e-05
5.03016e-05
5.21418e-05
5.39644e-05
5.57718e-05
5.75631e-05
5.93316e-05
6.10711e-05
6.27824e-05
6.44706e-05
6.61376e-05
6.77787e-05
6.93869e-05
7.09588e-05
7.24955e-05
7.39986e-05
7.5467e-05
7.68963e-05
7.82823e-05
7.96225e-05
8.09153e-05
8.2159e-05
8.33524e-05
8.44954e-05
8.55879e-05
8.66274e-05
8.76097e-05
8.85313e-05
8.9393e-05
9.01977e-05
9.09446e-05
9.1628e-05
9.22437e-05
9.27931e-05
9.32792e-05
9.36995e-05
9.40468e-05
9.43167e-05
9.45138e-05
9.46459e-05
9.4715e-05
9.47146e-05
9.46382e-05
9.44835e-05
9.42519e-05
9.39455e-05
9.35665e-05
9.31176e-05
9.26012e-05
9.20166e-05
9.13598e-05
9.06298e-05
8.9833e-05
8.89797e-05
8.8076e-05
8.712e-05
8.61066e-05
8.50369e-05
8.39216e-05
8.27751e-05
8.16073e-05
8.04234e-05
7.92301e-05
7.80408e-05
7.68715e-05
7.57312e-05
7.46218e-05
7.3547e-05
7.25216e-05
7.157e-05
7.07162e-05
6.99777e-05
6.93681e-05
6.88989e-05
6.8582e-05
6.84515e-05
6.85308e-05
5.07017e-06
5.21218e-06
5.26041e-06
5.15244e-06
4.89067e-06
4.48855e-06
3.9664e-06
3.33588e-06
2.61269e-06
1.81753e-06
9.71124e-07
8.7223e-08
-8.3248e-07
-1.78117e-06
-2.74005e-06
-3.69055e-06
-4.62265e-06
-5.53641e-06
-6.43538e-06
-7.31206e-06
-8.14915e-06
-8.9349e-06
-9.66745e-06
-1.03496e-05
-1.09827e-05
-1.15619e-05
-1.20805e-05
-1.25379e-05
-1.29362e-05
-1.3273e-05
-1.35425e-05
-1.37421e-05
-1.38744e-05
-1.39426e-05
-1.39435e-05
-1.38716e-05
-1.37278e-05
-1.35165e-05
-1.32377e-05
-1.28873e-05
-1.24642e-05
-1.19724e-05
-1.14161e-05
-1.07968e-05
-1.01145e-05
-9.3683e-06
-8.55845e-06
-7.68786e-06
-6.76122e-06
-5.7802e-06
-4.74507e-06
-3.65918e-06
-2.52548e-06
-1.3428e-06
-1.09839e-07
1.17045e-06
2.49245e-06
3.85297e-06
5.25281e-06
6.69365e-06
8.17426e-06
9.69017e-06
1.12374e-05
1.28157e-05
1.4426e-05
1.60666e-05
1.77334e-05
1.9422e-05
2.11309e-05
2.28604e-05
2.46096e-05
2.63747e-05
2.81521e-05
2.99413e-05
3.1743e-05
3.35564e-05
3.53783e-05
3.72043e-05
3.90321e-05
4.08616e-05
4.26923e-05
4.4522e-05
4.63485e-05
4.81687e-05
4.99782e-05
5.17729e-05
5.35514e-05
5.53157e-05
5.70662e-05
5.8797e-05
6.04987e-05
6.21672e-05
6.38076e-05
6.54281e-05
6.70302e-05
6.86059e-05
7.01443e-05
7.16404e-05
7.30971e-05
7.45197e-05
7.59096e-05
7.72621e-05
7.85706e-05
7.98302e-05
8.10389e-05
8.21971e-05
8.33062e-05
8.43677e-05
8.53802e-05
8.63381e-05
8.72345e-05
8.80663e-05
8.88379e-05
8.95547e-05
9.0216e-05
9.08146e-05
9.1344e-05
9.18039e-05
9.21975e-05
9.25256e-05
9.27856e-05
9.2976e-05
9.30992e-05
9.31574e-05
9.31487e-05
9.30681e-05
9.29128e-05
9.26836e-05
9.23829e-05
9.20121e-05
9.15715e-05
9.10629e-05
9.04892e-05
8.98508e-05
8.91468e-05
8.83784e-05
8.75518e-05
8.66753e-05
8.5753e-05
8.47824e-05
8.37595e-05
8.2688e-05
8.1582e-05
8.04589e-05
7.93306e-05
7.82007e-05
7.70722e-05
7.5954e-05
7.48585e-05
7.37948e-05
7.27689e-05
7.17893e-05
7.08723e-05
7.00393e-05
6.93097e-05
6.86987e-05
6.82173e-05
6.78742e-05
6.76914e-05
6.76838e-05
6.35464e-06
6.33969e-06
6.25308e-06
6.0438e-06
5.7006e-06
5.23917e-06
4.68504e-06
4.04684e-06
3.33393e-06
2.55433e-06
1.72208e-06
8.57178e-07
-2.77501e-08
-9.32288e-07
-1.85198e-06
-2.77252e-06
-3.67773e-06
-4.55591e-06
-5.4082e-06
-6.23987e-06
-7.04426e-06
-7.80824e-06
-8.5229e-06
-9.18488e-06
-9.79445e-06
-1.03519e-05
-1.08547e-05
-1.12996e-05
-1.16857e-05
-1.20123e-05
-1.22778e-05
-1.24779e-05
-1.2609e-05
-1.26736e-05
-1.26745e-05
-1.26096e-05
-1.24755e-05
-1.22723e-05
-1.20015e-05
-1.16641e-05
-1.12605e-05
-1.07904e-05
-1.02536e-05
-9.65188e-06
-8.98975e-06
-8.26981e-06
-7.48947e-06
-6.64628e-06
-5.74422e-06
-4.7894e-06
-3.78415e-06
-2.72906e-06
-1.625e-06
-4.7281e-07
7.26312e-07
1.97079e-06
3.25898e-06
4.58901e-06
5.95862e-06
7.36535e-06
8.80719e-06
1.0283e-05
1.17925e-05
1.33354e-05
1.49101e-05
1.65122e-05
1.81376e-05
1.97847e-05
2.14529e-05
2.31422e-05
2.48507e-05
2.65738e-05
2.83081e-05
3.00539e-05
3.18141e-05
3.35888e-05
3.53734e-05
3.71606e-05
3.89462e-05
4.07317e-05
4.25202e-05
4.43103e-05
4.60968e-05
4.78745e-05
4.96405e-05
5.13934e-05
5.31318e-05
5.48546e-05
5.65609e-05
5.82485e-05
5.9912e-05
6.15462e-05
6.31505e-05
6.47292e-05
6.62863e-05
6.78199e-05
6.93224e-05
7.07863e-05
7.22096e-05
7.35957e-05
7.49475e-05
7.62633e-05
7.75375e-05
7.87646e-05
7.99428e-05
8.10721e-05
8.21525e-05
8.31836e-05
8.41645e-05
8.5093e-05
8.59642e-05
8.67727e-05
8.75179e-05
8.82051e-05
8.88393e-05
8.94182e-05
8.99331e-05
9.03771e-05
9.075e-05
9.1057e-05
9.13023e-05
9.14855e-05
9.16042e-05
9.16567e-05
9.16412e-05
9.15552e-05
9.13968e-05
9.1167e-05
9.08693e-05
9.05062e-05
9.00768e-05
8.95792e-05
8.90144e-05
8.8387e-05
8.77015e-05
8.69603e-05
8.61646e-05
8.5317e-05
8.44221e-05
8.34835e-05
8.25011e-05
8.14751e-05
8.04119e-05
7.93263e-05
7.82361e-05
7.71514e-05
7.60738e-05
7.50037e-05
7.39469e-05
7.29143e-05
7.19177e-05
7.09677e-05
7.0076e-05
6.92573e-05
6.85271e-05
6.79001e-05
6.73891e-05
6.70035e-05
6.67526e-05
6.66381e-05
7.67527e-06
7.50442e-06
7.28813e-06
6.98025e-06
6.56918e-06
6.05839e-06
5.46374e-06
4.802e-06
4.08555e-06
3.31742e-06
2.49865e-06
1.64476e-06
7.75199e-07
-1.01862e-07
-9.84469e-07
-1.8702e-06
-2.75065e-06
-3.61107e-06
-4.44097e-06
-5.24101e-06
-6.01128e-06
-6.74671e-06
-7.44101e-06
-8.08695e-06
-8.67989e-06
-9.22109e-06
-9.7123e-06
-1.01495e-05
-1.05265e-05
-1.08425e-05
-1.11008e-05
-1.13001e-05
-1.14328e-05
-1.14968e-05
-1.14975e-05
-1.14372e-05
-1.1312e-05
-1.11181e-05
-1.0856e-05
-1.05291e-05
-1.01404e-05
-9.68956e-06
-9.17358e-06
-8.59226e-06
-7.94996e-06
-7.25127e-06
-6.49553e-06
-5.67901e-06
-4.8034e-06
-3.87565e-06
-2.89941e-06
-1.87338e-06
-7.96607e-07
3.28166e-07
1.49655e-06
2.70665e-06
3.95994e-06
5.25736e-06
6.59634e-06
7.97173e-06
9.37965e-06
1.08199e-05
1.22942e-05
1.38028e-05
1.53423e-05
1.69073e-05
1.84942e-05
2.01025e-05
2.17324e-05
2.33828e-05
2.50509e-05
2.67335e-05
2.8428e-05
3.01347e-05
3.18556e-05
3.35906e-05
3.53361e-05
3.70857e-05
3.88346e-05
4.05822e-05
4.23316e-05
4.40822e-05
4.58283e-05
4.75642e-05
4.9288e-05
5.10014e-05
5.27039e-05
5.43909e-05
5.60568e-05
5.76989e-05
5.93177e-05
6.09143e-05
6.24877e-05
6.40355e-05
6.55558e-05
6.70472e-05
6.85085e-05
6.99373e-05
7.13312e-05
7.26889e-05
7.40098e-05
7.52923e-05
7.65322e-05
7.77258e-05
7.88722e-05
7.9973e-05
8.10278e-05
8.20327e-05
8.29839e-05
8.38799e-05
8.47212e-05
8.55061e-05
8.62315e-05
8.68971e-05
8.75065e-05
8.80618e-05
8.85589e-05
8.89899e-05
8.93502e-05
8.96425e-05
8.98732e-05
9.00455e-05
9.01573e-05
9.02045e-05
9.01837e-05
9.00932e-05
8.99323e-05
8.97017e-05
8.94047e-05
8.90452e-05
8.86243e-05
8.81389e-05
8.75866e-05
8.69702e-05
8.62976e-05
8.55763e-05
8.48087e-05
8.39927e-05
8.3127e-05
8.22149e-05
8.12625e-05
8.0274e-05
7.92525e-05
7.82052e-05
7.71461e-05
7.60904e-05
7.50457e-05
7.40127e-05
7.29912e-05
7.19864e-05
7.10098e-05
7.00745e-05
6.91928e-05
6.83768e-05
6.76377e-05
6.69862e-05
6.64341e-05
6.59927e-05
6.56605e-05
6.54256e-05
9.03332e-06
8.71854e-06
8.37649e-06
7.9701e-06
7.48869e-06
6.92898e-06
6.29756e-06
5.60478e-06
4.86706e-06
4.09362e-06
3.28495e-06
2.4439e-06
1.58225e-06
7.15259e-07
-1.47455e-07
-1.00351e-06
-1.85474e-06
-2.6949e-06
-3.51083e-06
-4.29456e-06
-5.04368e-06
-5.75638e-06
-6.43021e-06
-7.05988e-06
-7.63913e-06
-8.16724e-06
-8.64703e-06
-9.07641e-06
-9.44868e-06
-9.75999e-06
-1.00123e-05
-1.02074e-05
-1.03405e-05
-1.04074e-05
-1.04105e-05
-1.03527e-05
-1.02325e-05
-1.00471e-05
-9.79635e-06
-9.48172e-06
-9.10524e-06
-8.66817e-06
-8.17034e-06
-7.6112e-06
-6.99122e-06
-6.31261e-06
-5.57723e-06
-4.78441e-06
-3.93531e-06
-3.03492e-06
-2.08615e-06
-1.08765e-06
-3.86744e-08
1.05787e-06
2.19742e-06
3.37779e-06
4.60018e-06
5.86571e-06
7.17215e-06
8.51499e-06
9.89093e-06
1.12999e-05
1.2743e-05
1.42193e-05
1.57245e-05
1.72539e-05
1.88048e-05
2.03775e-05
2.19715e-05
2.35841e-05
2.52124e-05
2.6855e-05
2.85121e-05
3.01844e-05
3.1871e-05
3.3569e-05
3.52744e-05
3.69846e-05
3.86974e-05
4.04113e-05
4.21261e-05
4.38398e-05
4.55474e-05
4.72435e-05
4.89269e-05
5.06005e-05
5.22658e-05
5.39183e-05
5.55494e-05
5.71531e-05
5.873e-05
6.02857e-05
6.18237e-05
6.33416e-05
6.4832e-05
6.62897e-05
6.7714e-05
6.91071e-05
7.047e-05
7.18e-05
7.30931e-05
7.43454e-05
7.55538e-05
7.67156e-05
7.78307e-05
7.89017e-05
7.99293e-05
8.09095e-05
8.18352e-05
8.27023e-05
8.35126e-05
8.42703e-05
8.49757e-05
8.56262e-05
8.62193e-05
8.67544e-05
8.72304e-05
8.7644e-05
8.79919e-05
8.82743e-05
8.84949e-05
8.86571e-05
8.87601e-05
8.87999e-05
8.87725e-05
8.86765e-05
8.85129e-05
8.82831e-05
8.79887e-05
8.76321e-05
8.72155e-05
8.67384e-05
8.61987e-05
8.55967e-05
8.49381e-05
8.4232e-05
8.34848e-05
8.26963e-05
8.18613e-05
8.09776e-05
8.005e-05
7.90872e-05
7.8097e-05
7.70841e-05
7.6056e-05
7.50246e-05
7.4001e-05
7.29904e-05
7.19937e-05
7.10121e-05
7.00518e-05
6.91235e-05
6.82397e-05
6.7413e-05
6.6654e-05
6.59705e-05
6.53709e-05
6.48656e-05
6.44425e-05
6.40785e-05
1.04203e-05
9.96897e-06
9.51329e-06
9.01298e-06
8.45042e-06
7.83435e-06
7.16684e-06
6.44564e-06
5.67997e-06
4.88611e-06
4.07274e-06
3.23939e-06
2.38803e-06
1.5274e-06
6.70408e-07
-1.73565e-07
-1.00495e-06
-1.82405e-06
-2.62357e-06
-3.39428e-06
-4.13081e-06
-4.82899e-06
-5.4864e-06
-6.1015e-06
-6.67118e-06
-7.19149e-06
-7.66066e-06
-8.07967e-06
-8.44739e-06
-8.75824e-06
-9.00785e-06
-9.19778e-06
-9.32954e-06
-9.40054e-06
-9.40886e-06
-9.35453e-06
-9.23715e-06
-9.0576e-06
-8.81777e-06
-8.51694e-06
-8.15317e-06
-7.72797e-06
-7.24526e-06
-6.70639e-06
-6.10878e-06
-5.4506e-06
-4.73448e-06
-3.96378e-06
-3.14028e-06
-2.26599e-06
-1.34211e-06
-3.68741e-07
6.52706e-07
1.7197e-06
2.83012e-06
3.98316e-06
5.17874e-06
6.41561e-06
7.69071e-06
9.00117e-06
1.03461e-05
1.17259e-05
1.314e-05
1.4585e-05
1.60568e-05
1.75519e-05
1.90696e-05
2.06098e-05
2.21709e-05
2.37486e-05
2.53394e-05
2.69439e-05
2.85648e-05
3.02039e-05
3.18588e-05
3.35235e-05
3.51927e-05
3.68648e-05
3.85413e-05
4.02215e-05
4.19027e-05
4.35809e-05
4.52517e-05
4.69119e-05
4.85602e-05
5.01976e-05
5.18247e-05
5.34389e-05
5.50342e-05
5.66047e-05
5.81491e-05
5.96706e-05
6.11734e-05
6.26574e-05
6.41167e-05
6.55447e-05
6.69385e-05
6.83004e-05
6.96329e-05
7.09342e-05
7.21989e-05
7.34215e-05
7.45993e-05
7.57317e-05
7.68187e-05
7.78613e-05
7.88604e-05
7.98139e-05
8.07156e-05
8.15596e-05
8.23449e-05
8.30765e-05
8.37596e-05
8.43941e-05
8.49748e-05
8.54958e-05
8.59538e-05
8.63483e-05
8.66804e-05
8.69517e-05
8.71639e-05
8.73178e-05
8.74124e-05
8.74444e-05
8.741e-05
8.73077e-05
8.714e-05
8.69103e-05
8.66203e-05
8.62692e-05
8.58571e-05
8.53847e-05
8.48535e-05
8.42652e-05
8.36233e-05
8.29334e-05
8.22021e-05
8.14327e-05
8.06228e-05
7.97672e-05
7.8865e-05
7.79228e-05
7.69523e-05
7.5963e-05
7.49616e-05
7.39546e-05
7.29497e-05
7.19535e-05
7.09696e-05
7.00002e-05
6.90489e-05
6.8122e-05
6.72293e-05
6.63828e-05
6.55943e-05
6.48713e-05
6.42195e-05
6.36455e-05
6.31258e-05
6.26276e-05
1.18336e-05
1.12441e-05
1.06832e-05
1.00959e-05
9.45267e-06
8.7689e-06
8.05388e-06
7.30177e-06
6.51274e-06
5.69625e-06
4.86376e-06
4.02377e-06
3.17764e-06
2.32535e-06
1.47248e-06
6.29974e-07
-1.94797e-07
-1.00156e-06
-1.7871e-06
-2.54583e-06
-3.27262e-06
-3.96093e-06
-4.60595e-06
-5.20892e-06
-5.77098e-06
-6.28672e-06
-6.74967e-06
-7.16042e-06
-7.52267e-06
-7.83274e-06
-8.08194e-06
-8.26924e-06
-8.39959e-06
-8.47315e-06
-8.4863e-06
-8.43691e-06
-8.32469e-06
-8.15153e-06
-7.92042e-06
-7.63093e-06
-7.28013e-06
-6.8685e-06
-6.40033e-06
-5.87842e-06
-5.30016e-06
-4.66189e-06
-3.96582e-06
-3.21727e-06
-2.41817e-06
-1.56804e-06
-6.66933e-07
2.83298e-07
1.27915e-06
2.31827e-06
3.40091e-06
4.52776e-06
5.69771e-06
6.90743e-06
8.15318e-06
9.43358e-06
1.07497e-05
1.21019e-05
1.34876e-05
1.49023e-05
1.63418e-05
1.78046e-05
1.92908e-05
2.08002e-05
2.23301e-05
2.38756e-05
2.54335e-05
2.7005e-05
2.85931e-05
3.0199e-05
3.18206e-05
3.34523e-05
3.50884e-05
3.67271e-05
3.83701e-05
4.00174e-05
4.16649e-05
4.33073e-05
4.49414e-05
4.65669e-05
4.81839e-05
4.97909e-05
5.13848e-05
5.29617e-05
5.45189e-05
5.60554e-05
5.75713e-05
5.90665e-05
6.05407e-05
6.19926e-05
6.3419e-05
6.48162e-05
6.61818e-05
6.7516e-05
6.88201e-05
7.00927e-05
7.13284e-05
7.25212e-05
7.3669e-05
7.47733e-05
7.58351e-05
7.68534e-05
7.78264e-05
7.87524e-05
7.96289e-05
8.04519e-05
8.1219e-05
8.19319e-05
8.25953e-05
8.32114e-05
8.37767e-05
8.42838e-05
8.4727e-05
8.51053e-05
8.5422e-05
8.5681e-05
8.58838e-05
8.60294e-05
8.61154e-05
8.61393e-05
8.60985e-05
8.59915e-05
8.58205e-05
8.55903e-05
8.53036e-05
8.49591e-05
8.45536e-05
8.40863e-05
8.35606e-05
8.29818e-05
8.23549e-05
8.16827e-05
8.09676e-05
8.02125e-05
7.94187e-05
7.85838e-05
7.77045e-05
7.67828e-05
7.58284e-05
7.48543e-05
7.38709e-05
7.28838e-05
7.18966e-05
7.09122e-05
6.99341e-05
6.89663e-05
6.8013e-05
6.70794e-05
6.61722e-05
6.53012e-05
6.44776e-05
6.37093e-05
6.30008e-05
6.23551e-05
6.17352e-05
6.11009e-05
1.3271e-05
1.25391e-05
1.18662e-05
1.11988e-05
1.04857e-05
9.73187e-06
8.95663e-06
8.1626e-06
7.34778e-06
6.51147e-06
5.65869e-06
4.80104e-06
3.94708e-06
3.09651e-06
2.24715e-06
1.4055e-06
5.81329e-07
-2.21269e-07
-9.99583e-07
-1.74995e-06
-2.46857e-06
-3.14972e-06
-3.78796e-06
-4.38324e-06
-4.93729e-06
-5.44733e-06
-5.90766e-06
-6.31574e-06
-6.67335e-06
-6.97982e-06
-7.22915e-06
-7.41831e-06
-7.55007e-06
-7.62509e-06
-7.64054e-06
-7.59552e-06
-7.49093e-06
-7.32692e-06
-7.10404e-06
-6.8232e-06
-6.48442e-06
-6.08801e-06
-5.63545e-06
-5.12814e-06
-4.56527e-06
-3.94509e-06
-3.26962e-06
-2.54323e-06
-1.76668e-06
-9.38448e-07
-5.90854e-08
8.68357e-07
1.84029e-06
2.8552e-06
3.91413e-06
5.01734e-06
6.16234e-06
7.34513e-06
8.56287e-06
9.81564e-06
1.11049e-05
1.24301e-05
1.37873e-05
1.51723e-05
1.65819e-05
1.80155e-05
1.9473e-05
2.09529e-05
2.24518e-05
2.3966e-05
2.5494e-05
2.70377e-05
2.85982e-05
3.01739e-05
3.17618e-05
3.33588e-05
3.4962e-05
3.65699e-05
3.81824e-05
3.97986e-05
4.14136e-05
4.30218e-05
4.46209e-05
4.62125e-05
4.77985e-05
4.93769e-05
5.0942e-05
5.24876e-05
5.40113e-05
5.55151e-05
5.70025e-05
5.84732e-05
5.99229e-05
6.13469e-05
6.27424e-05
6.41088e-05
6.5446e-05
6.67538e-05
6.8031e-05
6.92751e-05
7.04816e-05
7.16457e-05
7.27655e-05
7.38433e-05
7.48816e-05
7.58787e-05
7.68301e-05
7.77325e-05
7.85845e-05
7.93859e-05
8.01365e-05
8.08362e-05
8.14859e-05
8.20858e-05
8.26332e-05
8.31229e-05
8.35502e-05
8.39144e-05
8.42183e-05
8.44659e-05
8.46592e-05
8.47965e-05
8.48741e-05
8.48895e-05
8.4842e-05
8.47319e-05
8.45607e-05
8.43315e-05
8.40471e-05
8.37072e-05
8.33081e-05
8.28477e-05
8.23283e-05
8.17566e-05
8.114e-05
8.04822e-05
7.97832e-05
7.90419e-05
7.82591e-05
7.74356e-05
7.65715e-05
7.56675e-05
7.47299e-05
7.37699e-05
7.2799e-05
7.18242e-05
7.08482e-05
6.98714e-05
6.88951e-05
6.79224e-05
6.69585e-05
6.60097e-05
6.50824e-05
6.41836e-05
6.33217e-05
6.25037e-05
6.17342e-05
6.1014e-05
6.02931e-05
5.95234e-05
1.47237e-05
1.38473e-05
1.3057e-05
1.23049e-05
1.1524e-05
1.07086e-05
9.87507e-06
9.0301e-06
8.17709e-06
7.31742e-06
6.44734e-06
5.57134e-06
4.70046e-06
3.83966e-06
2.98769e-06
2.14588e-06
1.32083e-06
5.18293e-07
-2.58475e-07
-1.00442e-06
-1.71618e-06
-2.39214e-06
-3.02885e-06
-3.62186e-06
-4.1696e-06
-4.67329e-06
-5.13233e-06
-5.54148e-06
-5.89645e-06
-6.19819e-06
-6.44691e-06
-6.63998e-06
-6.77599e-06
-6.85376e-06
-6.87166e-06
-6.83114e-06
-6.73446e-06
-6.57999e-06
-6.36553e-06
-6.09292e-06
-5.7655e-06
-5.3842e-06
-4.9474e-06
-4.45396e-06
-3.90486e-06
-3.30156e-06
-2.64591e-06
-1.93992e-06
-1.18305e-06
-3.74173e-07
4.84638e-07
1.38975e-06
2.33908e-06
3.33272e-06
4.37133e-06
5.45339e-06
6.57477e-06
7.73191e-06
8.92388e-06
1.01517e-05
1.14157e-05
1.27137e-05
1.40418e-05
1.5397e-05
1.67785e-05
1.81861e-05
1.9618e-05
2.10707e-05
2.25402e-05
2.40245e-05
2.55244e-05
2.70421e-05
2.85775e-05
3.01262e-05
3.16833e-05
3.3247e-05
3.48178e-05
3.63954e-05
3.79786e-05
3.95642e-05
4.11475e-05
4.27241e-05
4.42927e-05
4.58547e-05
4.74113e-05
4.89604e-05
5.04966e-05
5.20144e-05
5.35112e-05
5.49886e-05
5.64501e-05
5.78959e-05
5.93209e-05
6.07186e-05
6.20856e-05
6.34228e-05
6.47321e-05
6.60139e-05
6.72653e-05
6.84822e-05
6.96606e-05
7.07978e-05
7.18928e-05
7.29473e-05
7.39636e-05
7.49405e-05
7.58732e-05
7.67568e-05
7.75891e-05
7.83707e-05
7.9104e-05
7.97903e-05
8.04282e-05
8.10148e-05
8.15458e-05
8.20174e-05
8.24279e-05
8.27782e-05
8.30709e-05
8.33087e-05
8.34929e-05
8.36221e-05
8.36924e-05
8.37006e-05
8.36471e-05
8.35345e-05
8.33649e-05
8.31394e-05
8.28582e-05
8.25206e-05
8.21251e-05
8.16705e-05
8.11588e-05
8.0595e-05
7.99863e-05
7.9338e-05
7.86506e-05
7.79214e-05
7.71483e-05
7.6332e-05
7.54756e-05
7.45833e-05
7.36605e-05
7.27152e-05
7.17556e-05
7.07877e-05
6.9815e-05
6.88384e-05
6.78582e-05
6.68761e-05
6.58969e-05
6.49276e-05
6.39754e-05
6.30459e-05
6.21432e-05
6.12719e-05
6.04369e-05
5.96392e-05
5.88177e-05
5.79158e-05
1.61677e-05
1.51611e-05
1.4259e-05
1.34103e-05
1.25542e-05
1.16802e-05
1.07952e-05
9.90092e-06
9.00229e-06
8.10877e-06
7.21795e-06
6.32504e-06
5.43532e-06
4.55798e-06
3.69578e-06
2.849e-06
2.02101e-06
1.21572e-06
4.3734e-07
-3.07737e-07
-1.01607e-06
-1.68911e-06
-2.32557e-06
-2.91872e-06
-3.46443e-06
-3.96527e-06
-4.42335e-06
-4.83328e-06
-5.18808e-06
-5.48825e-06
-5.73709e-06
-5.93289e-06
-6.07215e-06
-6.15358e-06
-6.17696e-06
-6.1434e-06
-6.0543e-06
-5.90802e-06
-5.70234e-06
-5.43935e-06
-5.12318e-06
-4.75482e-06
-4.33157e-06
-3.85147e-06
-3.31683e-06
-2.73074e-06
-2.09371e-06
-1.40548e-06
-6.65648e-07
1.25562e-07
9.65378e-07
1.85058e-06
2.78042e-06
3.75564e-06
4.77559e-06
5.837e-06
6.93541e-06
8.06866e-06
9.23749e-06
1.04429e-05
1.16833e-05
1.29551e-05
1.42548e-05
1.55814e-05
1.6936e-05
1.83186e-05
1.97262e-05
2.11533e-05
2.25962e-05
2.40543e-05
2.55291e-05
2.70219e-05
2.85316e-05
3.00537e-05
3.15828e-05
3.31173e-05
3.46587e-05
3.62078e-05
3.77621e-05
3.93175e-05
4.08696e-05
4.24163e-05
4.39578e-05
4.5495e-05
4.70267e-05
4.85488e-05
5.00565e-05
5.15468e-05
5.30194e-05
5.44751e-05
5.59146e-05
5.73364e-05
5.87361e-05
6.01077e-05
6.14479e-05
6.27581e-05
6.4041e-05
6.52975e-05
6.65243e-05
6.77161e-05
6.8869e-05
6.99821e-05
7.10558e-05
7.20906e-05
7.30875e-05
7.40451e-05
7.49595e-05
7.58261e-05
7.66423e-05
7.74083e-05
7.81262e-05
7.87978e-05
7.94221e-05
7.99947e-05
8.05107e-05
8.09665e-05
8.13621e-05
8.17e-05
8.19832e-05
8.22125e-05
8.23882e-05
8.2509e-05
8.25725e-05
8.25757e-05
8.25186e-05
8.24047e-05
8.22371e-05
8.20159e-05
8.17388e-05
8.14033e-05
8.10091e-05
8.05577e-05
8.00521e-05
7.94966e-05
7.8896e-05
7.82546e-05
7.7574e-05
7.68523e-05
7.60869e-05
7.5277e-05
7.44262e-05
7.3541e-05
7.26283e-05
7.16944e-05
7.07439e-05
6.97799e-05
6.88051e-05
6.78218e-05
6.68317e-05
6.58363e-05
6.4839e-05
6.38464e-05
6.28658e-05
6.19021e-05
6.09561e-05
6.00285e-05
5.91245e-05
5.82472e-05
5.73264e-05
5.6297e-05
1.75769e-05
1.64605e-05
1.54576e-05
1.45164e-05
1.35798e-05
1.26389e-05
1.1701e-05
1.07635e-05
9.8216e-06
8.88713e-06
7.96605e-06
7.05188e-06
6.14381e-06
5.24897e-06
4.37261e-06
3.51578e-06
2.68088e-06
1.87127e-06
1.08998e-06
3.4187e-07
-3.69209e-07
-1.043e-06
-1.67846e-06
-2.2717e-06
-2.81986e-06
-3.32244e-06
-3.77938e-06
-4.18815e-06
-4.54449e-06
-4.84774e-06
-5.09947e-06
-5.29741e-06
-5.43837e-06
-5.52336e-06
-5.55378e-06
-5.52847e-06
-5.44636e-06
-5.30725e-06
-5.11124e-06
-4.86004e-06
-4.5557e-06
-4.19817e-06
-3.78577e-06
-3.31815e-06
-2.79843e-06
-2.22921e-06
-1.60879e-06
-9.35589e-07
-2.11132e-07
5.62612e-07
1.384e-06
2.25178e-06
3.16591e-06
4.12585e-06
5.12855e-06
6.16964e-06
7.24603e-06
8.35742e-06
9.5051e-06
1.0689e-05
1.19065e-05
1.31536e-05
1.44276e-05
1.57289e-05
1.70589e-05
1.8417e-05
1.97997e-05
2.12016e-05
2.262e-05
2.40556e-05
2.55092e-05
2.69795e-05
2.84637e-05
2.99583e-05
3.14604e-05
3.29692e-05
3.44855e-05
3.60088e-05
3.75359e-05
3.90624e-05
4.05857e-05
4.21053e-05
4.36222e-05
4.51366e-05
4.66459e-05
4.81444e-05
4.96268e-05
5.10917e-05
5.25413e-05
5.39765e-05
5.53952e-05
5.67937e-05
5.81678e-05
5.95135e-05
6.08291e-05
6.21154e-05
6.3375e-05
6.46081e-05
6.58116e-05
6.69806e-05
6.81115e-05
6.92042e-05
7.02596e-05
7.12776e-05
7.22574e-05
7.31974e-05
7.40939e-05
7.49432e-05
7.57436e-05
7.64956e-05
7.72005e-05
7.78588e-05
7.84687e-05
7.90262e-05
7.95273e-05
7.99696e-05
8.03533e-05
8.06813e-05
8.09566e-05
8.11794e-05
8.13482e-05
8.14613e-05
8.15178e-05
8.1517e-05
8.1459e-05
8.1346e-05
8.11804e-05
8.09622e-05
8.0688e-05
8.03547e-05
7.99618e-05
7.95121e-05
7.90105e-05
7.84614e-05
7.7868e-05
7.72328e-05
7.65567e-05
7.58388e-05
7.50777e-05
7.4273e-05
7.3428e-05
7.25487e-05
7.16422e-05
7.0714e-05
6.97674e-05
6.88033e-05
6.7823e-05
6.68291e-05
6.58251e-05
6.48132e-05
6.37962e-05
6.27786e-05
6.17668e-05
6.07649e-05
5.97718e-05
5.87855e-05
5.78112e-05
5.68541e-05
5.58364e-05
5.46848e-05
1.89457e-05
1.77234e-05
1.66326e-05
1.56109e-05
1.4597e-05
1.35851e-05
1.25869e-05
1.1605e-05
1.06255e-05
9.65074e-06
8.69225e-06
7.75011e-06
6.82092e-06
5.90774e-06
5.01538e-06
4.14503e-06