/*--------------------------------*- C++ -*----------------------------------*\
  =========                 |
  \\      /  F ield         | OpenFOAM: The Open Source CFD Toolbox
   \\    /   O peration     | Website:  https://openfoam.org
    \\  /    A nd           | Version:  7
     \\/     M anipulation  |
\*---------------------------------------------------------------------------*/
FoamFile
{
    version     2.0;
    format      ascii;
    class       volVectorField;
    location    "0.075";
    object      U;
}
// * * * * * * * * * * * * * * * * * * * * * * * * * * * * * * * * * * * * * //

dimensions      [0 1 -1 0 0 0 0];

internalField   nonuniform List<vector> 
51200
(
(2.38206e-08 7.80015e-09 0)
(4.69934e-08 -5.38946e-09 0)
(1.485e-07 -3.634e-08 0)
(2.73214e-07 -4.6332e-08 0)
(4.08592e-07 -4.45388e-08 0)
(5.14529e-07 -3.58222e-08 0)
(5.78949e-07 -2.23415e-08 0)
(5.94452e-07 -6.69365e-09 0)
(5.58521e-07 1.07191e-08 0)
(4.73337e-07 2.62536e-08 0)
(3.41121e-07 3.90131e-08 0)
(1.63486e-07 5.21157e-08 0)
(-5.71302e-08 6.51766e-08 0)
(-3.18759e-07 7.83099e-08 0)
(-6.1827e-07 9.09921e-08 0)
(-9.52881e-07 1.0099e-07 0)
(-1.31967e-06 1.092e-07 0)
(-1.71621e-06 1.17393e-07 0)
(-2.14028e-06 1.2449e-07 0)
(-2.58911e-06 1.29179e-07 0)
(-3.05971e-06 1.31537e-07 0)
(-3.54914e-06 1.32786e-07 0)
(-4.05561e-06 1.35493e-07 0)
(-4.57774e-06 1.41673e-07 0)
(-5.11349e-06 1.50199e-07 0)
(-5.66115e-06 1.57784e-07 0)
(-6.21876e-06 1.62104e-07 0)
(-6.78392e-06 1.6313e-07 0)
(-7.35534e-06 1.62366e-07 0)
(-7.93181e-06 1.61174e-07 0)
(-8.51144e-06 1.60304e-07 0)
(-9.09317e-06 1.60502e-07 0)
(-9.67648e-06 1.62044e-07 0)
(-1.02603e-05 1.63888e-07 0)
(-1.08432e-05 1.64648e-07 0)
(-1.1424e-05 1.63933e-07 0)
(-1.20016e-05 1.62321e-07 0)
(-1.25749e-05 1.60646e-07 0)
(-1.31438e-05 1.59411e-07 0)
(-1.37068e-05 1.58084e-07 0)
(-1.42627e-05 1.55971e-07 0)
(-1.48105e-05 1.53446e-07 0)
(-1.53501e-05 1.51249e-07 0)
(-1.58807e-05 1.49109e-07 0)
(-1.64016e-05 1.46091e-07 0)
(-1.69117e-05 1.42139e-07 0)
(-1.74105e-05 1.38108e-07 0)
(-1.78977e-05 1.34535e-07 0)
(-1.83732e-05 1.31425e-07 0)
(-1.88365e-05 1.28567e-07 0)
(-1.92877e-05 1.25327e-07 0)
(-1.97264e-05 1.21278e-07 0)
(-2.01523e-05 1.16995e-07 0)
(-2.05656e-05 1.13209e-07 0)
(-2.0966e-05 1.09857e-07 0)
(-2.13532e-05 1.06647e-07 0)
(-2.17269e-05 1.03565e-07 0)
(-2.20873e-05 1.00442e-07 0)
(-2.24341e-05 9.67798e-08 0)
(-2.27669e-05 9.22923e-08 0)
(-2.30851e-05 8.73676e-08 0)
(-2.33889e-05 8.27883e-08 0)
(-2.36781e-05 7.90116e-08 0)
(-2.39526e-05 7.58064e-08 0)
(-2.42121e-05 7.24398e-08 0)
(-2.4456e-05 6.82784e-08 0)
(-2.46843e-05 6.33305e-08 0)
(-2.48968e-05 5.81099e-08 0)
(-2.50932e-05 5.30995e-08 0)
(-2.52735e-05 4.84213e-08 0)
(-2.54376e-05 4.3871e-08 0)
(-2.55854e-05 3.9326e-08 0)
(-2.57172e-05 3.49251e-08 0)
(-2.58332e-05 3.06601e-08 0)
(-2.59332e-05 2.634e-08 0)
(-2.6017e-05 2.20229e-08 0)
(-2.60846e-05 1.77735e-08 0)
(-2.61358e-05 1.32509e-08 0)
(-2.61703e-05 8.17777e-09 0)
(-2.61881e-05 2.85869e-09 0)
(-2.61893e-05 -2.12161e-09 0)
(-2.61738e-05 -6.52846e-09 0)
(-2.61419e-05 -1.077e-08 0)
(-2.60933e-05 -1.54931e-08 0)
(-2.60277e-05 -2.08272e-08 0)
(-2.59451e-05 -2.62437e-08 0)
(-2.58457e-05 -3.11979e-08 0)
(-2.57297e-05 -3.56242e-08 0)
(-2.55972e-05 -3.98001e-08 0)
(-2.54485e-05 -4.39793e-08 0)
(-2.52839e-05 -4.8259e-08 0)
(-2.51038e-05 -5.27668e-08 0)
(-2.4908e-05 -5.77578e-08 0)
(-2.46962e-05 -6.31655e-08 0)
(-2.44685e-05 -6.81698e-08 0)
(-2.42254e-05 -7.1851e-08 0)
(-2.39674e-05 -7.44528e-08 0)
(-2.36944e-05 -7.7457e-08 0)
(-2.34062e-05 -8.20993e-08 0)
(-2.31026e-05 -8.80817e-08 0)
(-2.27838e-05 -9.38857e-08 0)
(-2.24504e-05 -9.8222e-08 0)
(-2.21027e-05 -1.01151e-07 0)
(-2.1741e-05 -1.03817e-07 0)
(-2.13653e-05 -1.07232e-07 0)
(-2.09759e-05 -1.11547e-07 0)
(-2.05728e-05 -1.16251e-07 0)
(-2.01564e-05 -1.20673e-07 0)
(-1.97271e-05 -1.24342e-07 0)
(-1.92854e-05 -1.27227e-07 0)
(-1.88317e-05 -1.29743e-07 0)
(-1.83663e-05 -1.32485e-07 0)
(-1.78896e-05 -1.35839e-07 0)
(-1.74016e-05 -1.39647e-07 0)
(-1.69028e-05 -1.43184e-07 0)
(-1.63938e-05 -1.45789e-07 0)
(-1.58751e-05 -1.4766e-07 0)
(-1.53472e-05 -1.49779e-07 0)
(-1.48101e-05 -1.52778e-07 0)
(-1.42644e-05 -1.56074e-07 0)
(-1.3711e-05 -1.58435e-07 0)
(-1.3151e-05 -1.59434e-07 0)
(-1.25853e-05 -1.60024e-07 0)
(-1.20142e-05 -1.61415e-07 0)
(-1.14383e-05 -1.63583e-07 0)
(-1.08586e-05 -1.65363e-07 0)
(-1.02765e-05 -1.65902e-07 0)
(-9.69319e-06 -1.65451e-07 0)
(-9.10963e-06 -1.64731e-07 0)
(-8.52718e-06 -1.64054e-07 0)
(-7.94732e-06 -1.63281e-07 0)
(-7.37142e-06 -1.62256e-07 0)
(-6.80077e-06 -1.60856e-07 0)
(-6.23683e-06 -1.58749e-07 0)
(-5.68147e-06 -1.55553e-07 0)
(-5.13673e-06 -1.51385e-07 0)
(-4.60447e-06 -1.46974e-07 0)
(-4.08631e-06 -1.42934e-07 0)
(-3.58399e-06 -1.38964e-07 0)
(-3.09969e-06 -1.34011e-07 0)
(-2.63591e-06 -1.27432e-07 0)
(-2.195e-06 -1.19762e-07 0)
(-1.779e-06 -1.12018e-07 0)
(-1.39008e-06 -1.04314e-07 0)
(-1.03091e-06 -9.56135e-08 0)
(-7.04448e-07 -8.49648e-08 0)
(-4.13407e-07 -7.26925e-08 0)
(-1.59933e-07 -6.01614e-08 0)
(5.4354e-08 -4.83018e-08 0)
(2.27952e-07 -3.6562e-08 0)
(3.59351e-07 -2.36889e-08 0)
(4.47476e-07 -9.30099e-09 0)
(4.92144e-07 5.53144e-09 0)
(4.94588e-07 1.90673e-08 0)
(4.57657e-07 3.0416e-08 0)
(3.85848e-07 3.96899e-08 0)
(2.86595e-07 4.61336e-08 0)
(1.7294e-07 4.67874e-08 0)
(6.82568e-08 3.65994e-08 0)
(1.14535e-08 1.14577e-08 0)
(5.99811e-08 -6.77773e-08 0)
(1.70571e-07 -1.3229e-07 0)
(3.61562e-07 -2.20148e-07 0)
(6.06664e-07 -2.46407e-07 0)
(8.41175e-07 -2.16975e-07 0)
(1.00664e-06 -1.47562e-07 0)
(1.06871e-06 -6.12282e-08 0)
(1.01175e-06 3.39304e-08 0)
(8.29106e-07 1.31378e-07 0)
(5.18888e-07 2.26493e-07 0)
(8.52793e-08 3.16826e-07 0)
(-4.69522e-07 4.02168e-07 0)
(-1.1412e-06 4.83257e-07 0)
(-1.92215e-06 5.60754e-07 0)
(-2.80791e-06 6.33766e-07 0)
(-3.7908e-06 7.01006e-07 0)
(-4.86333e-06 7.62075e-07 0)
(-6.02071e-06 8.18389e-07 0)
(-7.25533e-06 8.70265e-07 0)
(-8.55949e-06 9.1692e-07 0)
(-9.92693e-06 9.58003e-07 0)
(-1.13509e-05 9.92724e-07 0)
(-1.28256e-05 1.02241e-06 0)
(-1.43461e-05 1.05005e-06 0)
(-1.59065e-05 1.07637e-06 0)
(-1.75007e-05 1.10004e-06 0)
(-1.91229e-05 1.11975e-06 0)
(-2.07684e-05 1.1346e-06 0)
(-2.24324e-05 1.14504e-06 0)
(-2.41109e-05 1.15236e-06 0)
(-2.57998e-05 1.15715e-06 0)
(-2.74951e-05 1.15987e-06 0)
(-2.91935e-05 1.16125e-06 0)
(-3.08917e-05 1.16112e-06 0)
(-3.25861e-05 1.15876e-06 0)
(-3.42732e-05 1.15379e-06 0)
(-3.59502e-05 1.14629e-06 0)
(-3.76145e-05 1.13658e-06 0)
(-3.9264e-05 1.12539e-06 0)
(-4.0896e-05 1.11293e-06 0)
(-4.25077e-05 1.09852e-06 0)
(-4.4097e-05 1.0821e-06 0)
(-4.56623e-05 1.06449e-06 0)
(-4.72018e-05 1.04599e-06 0)
(-4.87134e-05 1.02612e-06 0)
(-5.0195e-05 1.00462e-06 0)
(-5.16457e-05 9.81849e-07 0)
(-5.30644e-05 9.584e-07 0)
(-5.44499e-05 9.3475e-07 0)
(-5.5801e-05 9.11092e-07 0)
(-5.71166e-05 8.87061e-07 0)
(-5.83958e-05 8.62081e-07 0)
(-5.96383e-05 8.36284e-07 0)
(-6.08435e-05 8.10269e-07 0)
(-6.20105e-05 7.84135e-07 0)
(-6.31385e-05 7.57657e-07 0)
(-6.42269e-05 7.30877e-07 0)
(-6.52753e-05 7.03888e-07 0)
(-6.6283e-05 6.76514e-07 0)
(-6.72491e-05 6.48424e-07 0)
(-6.81727e-05 6.19427e-07 0)
(-6.90537e-05 5.8973e-07 0)
(-6.98918e-05 5.59845e-07 0)
(-7.06865e-05 5.3016e-07 0)
(-7.14369e-05 5.00502e-07 0)
(-7.21422e-05 4.70223e-07 0)
(-7.28021e-05 4.38955e-07 0)
(-7.34165e-05 4.06985e-07 0)
(-7.39849e-05 3.74783e-07 0)
(-7.4507e-05 3.42639e-07 0)
(-7.49825e-05 3.10625e-07 0)
(-7.54109e-05 2.78639e-07 0)
(-7.57924e-05 2.46642e-07 0)
(-7.6127e-05 2.14652e-07 0)
(-7.64146e-05 1.82534e-07 0)
(-7.6655e-05 1.50236e-07 0)
(-7.68477e-05 1.1786e-07 0)
(-7.69926e-05 8.52639e-08 0)
(-7.70895e-05 5.21904e-08 0)
(-7.71382e-05 1.87853e-08 0)
(-7.7139e-05 -1.45216e-08 0)
(-7.70918e-05 -4.74734e-08 0)
(-7.69965e-05 -8.02038e-08 0)
(-7.6853e-05 -1.13163e-07 0)
(-7.66612e-05 -1.46671e-07 0)
(-7.64214e-05 -1.80468e-07 0)
(-7.61338e-05 -2.13931e-07 0)
(-7.57987e-05 -2.46673e-07 0)
(-7.54161e-05 -2.78754e-07 0)
(-7.49864e-05 -3.10471e-07 0)
(-7.451e-05 -3.42031e-07 0)
(-7.39875e-05 -3.73441e-07 0)
(-7.34188e-05 -4.04799e-07 0)
(-7.28039e-05 -4.36373e-07 0)
(-7.21434e-05 -4.68045e-07 0)
(-7.1438e-05 -4.99063e-07 0)
(-7.06885e-05 -5.28849e-07 0)
(-6.98948e-05 -5.57882e-07 0)
(-6.90569e-05 -5.87261e-07 0)
(-6.8175e-05 -6.17478e-07 0)
(-6.725e-05 -6.47916e-07 0)
(-6.6283e-05 -6.77495e-07 0)
(-6.52744e-05 -7.0572e-07 0)
(-6.42248e-05 -7.33034e-07 0)
(-6.31344e-05 -7.6013e-07 0)
(-6.2004e-05 -7.87221e-07 0)
(-6.08344e-05 -8.14069e-07 0)
(-5.96265e-05 -8.40379e-07 0)
(-5.83811e-05 -8.65919e-07 0)
(-5.70993e-05 -8.90496e-07 0)
(-5.57821e-05 -9.14046e-07 0)
(-5.44304e-05 -9.36763e-07 0)
(-5.30451e-05 -9.58994e-07 0)
(-5.16272e-05 -9.80933e-07 0)
(-5.01782e-05 -1.00233e-06 0)
(-4.86995e-05 -1.02259e-06 0)
(-4.71926e-05 -1.04134e-06 0)
(-4.56587e-05 -1.05891e-06 0)
(-4.40989e-05 -1.07594e-06 0)
(-4.2515e-05 -1.09237e-06 0)
(-4.09095e-05 -1.10732e-06 0)
(-3.92845e-05 -1.11998e-06 0)
(-3.76421e-05 -1.13048e-06 0)
(-3.59841e-05 -1.13971e-06 0)
(-3.43129e-05 -1.14813e-06 0)
(-3.26318e-05 -1.15504e-06 0)
(-3.09439e-05 -1.15933e-06 0)
(-2.92523e-05 -1.16059e-06 0)
(-2.756e-05 -1.1592e-06 0)
(-2.58705e-05 -1.15544e-06 0)
(-2.41877e-05 -1.1492e-06 0)
(-2.25159e-05 -1.1402e-06 0)
(-2.08594e-05 -1.12831e-06 0)
(-1.92227e-05 -1.11327e-06 0)
(-1.76106e-05 -1.09456e-06 0)
(-1.60282e-05 -1.07173e-06 0)
(-1.44805e-05 -1.04487e-06 0)
(-1.29729e-05 -1.01448e-06 0)
(-1.1511e-05 -9.80824e-07 0)
(-1.01011e-05 -9.43309e-07 0)
(-8.74948e-06 -9.00952e-07 0)
(-7.4623e-06 -8.53362e-07 0)
(-6.24552e-06 -8.01038e-07 0)
(-5.10539e-06 -7.44518e-07 0)
(-4.0487e-06 -6.83507e-07 0)
(-3.0823e-06 -6.17218e-07 0)
(-2.2124e-06 -5.45508e-07 0)
(-1.44427e-06 -4.69396e-07 0)
(-7.82544e-07 -3.90414e-07 0)
(-2.31447e-07 -3.0949e-07 0)
(2.05692e-07 -2.26731e-07 0)
(5.27466e-07 -1.42555e-07 0)
(7.35121e-07 -5.87478e-08 0)
(8.32964e-07 2.13905e-08 0)
(8.28867e-07 9.35451e-08 0)
(7.35441e-07 1.52865e-07 0)
(5.71927e-07 1.92703e-07 0)
(3.67053e-07 2.02387e-07 0)
(1.65952e-07 1.66236e-07 0)
(3.67715e-08 6.84509e-08 0)
(5.08709e-08 -1.58555e-07 0)
(1.60207e-07 -3.20259e-07 0)
(3.53852e-07 -4.56565e-07 0)
(5.76481e-07 -4.99553e-07 0)
(7.69441e-07 -4.16094e-07 0)
(8.68064e-07 -2.43328e-07 0)
(8.27142e-07 -1.95971e-08 0)
(6.21101e-07 2.27022e-07 0)
(2.31739e-07 4.81623e-07 0)
(-3.42955e-07 7.35573e-07 0)
(-1.1043e-06 9.8244e-07 0)
(-2.04964e-06 1.21918e-06 0)
(-3.17155e-06 1.4456e-06 0)
(-4.46491e-06 1.65973e-06 0)
(-5.92077e-06 1.8617e-06 0)
(-7.52811e-06 2.05045e-06 0)
(-9.27805e-06 2.22451e-06 0)
(-1.11611e-05 2.38505e-06 0)
(-1.31671e-05 2.53298e-06 0)
(-1.52861e-05 2.66823e-06 0)
(-1.75076e-05 2.7906e-06 0)
(-1.98202e-05 2.89903e-06 0)
(-2.22142e-05 2.99353e-06 0)
(-2.46813e-05 3.07568e-06 0)
(-2.72125e-05 3.1472e-06 0)
(-2.97991e-05 3.20902e-06 0)
(-3.24325e-05 3.26112e-06 0)
(-3.5104e-05 3.30376e-06 0)
(-3.78063e-05 3.33745e-06 0)
(-4.05328e-05 3.36255e-06 0)
(-4.32761e-05 3.37953e-06 0)
(-4.60292e-05 3.38891e-06 0)
(-4.87866e-05 3.3911e-06 0)
(-5.1543e-05 3.38672e-06 0)
(-5.42929e-05 3.37631e-06 0)
(-5.70311e-05 3.36008e-06 0)
(-5.97526e-05 3.33788e-06 0)
(-6.24529e-05 3.31008e-06 0)
(-6.51285e-05 3.27727e-06 0)
(-6.77758e-05 3.23978e-06 0)
(-7.03904e-05 3.19766e-06 0)
(-7.29689e-05 3.15099e-06 0)
(-7.55087e-05 3.10031e-06 0)
(-7.80072e-05 3.04636e-06 0)
(-8.04612e-05 2.98927e-06 0)
(-8.28681e-05 2.92886e-06 0)
(-8.52256e-05 2.86539e-06 0)
(-8.75318e-05 2.79935e-06 0)
(-8.97847e-05 2.73128e-06 0)
(-9.19827e-05 2.66181e-06 0)
(-9.41241e-05 2.59106e-06 0)
(-9.62068e-05 2.51856e-06 0)
(-9.82294e-05 2.44426e-06 0)
(-0.000100191 2.36863e-06 0)
(-0.00010209 2.2917e-06 0)
(-0.000103925 2.21323e-06 0)
(-0.000105696 2.13335e-06 0)
(-0.0001074 2.05239e-06 0)
(-0.000109038 1.97053e-06 0)
(-0.000110608 1.88769e-06 0)
(-0.000112109 1.80353e-06 0)
(-0.00011354 1.71778e-06 0)
(-0.000114901 1.6306e-06 0)
(-0.00011619 1.54249e-06 0)
(-0.000117407 1.45377e-06 0)
(-0.000118551 1.36425e-06 0)
(-0.000119622 1.27365e-06 0)
(-0.000120618 1.18197e-06 0)
(-0.00012154 1.08943e-06 0)
(-0.000122387 9.9639e-07 0)
(-0.000123158 9.03109e-07 0)
(-0.000123854 8.09663e-07 0)
(-0.000124473 7.15997e-07 0)
(-0.000125015 6.21978e-07 0)
(-0.00012548 5.27448e-07 0)
(-0.000125867 4.32457e-07 0)
(-0.000126178 3.37234e-07 0)
(-0.00012641 2.41828e-07 0)
(-0.000126565 1.46114e-07 0)
(-0.000126642 5.00816e-08 0)
(-0.000126641 -4.61093e-08 0)
(-0.000126562 -1.4224e-07 0)
(-0.000126405 -2.38206e-07 0)
(-0.00012617 -3.34151e-07 0)
(-0.000125857 -4.30287e-07 0)
(-0.000125467 -5.26529e-07 0)
(-0.000124999 -6.22444e-07 0)
(-0.000124455 -7.1762e-07 0)
(-0.000123833 -8.11938e-07 0)
(-0.000123135 -9.0551e-07 0)
(-0.000122361 -9.98411e-07 0)
(-0.000121511 -1.09052e-06 0)
(-0.000120587 -1.18181e-06 0)
(-0.000119588 -1.27262e-06 0)
(-0.000118514 -1.36331e-06 0)
(-0.000117367 -1.45363e-06 0)
(-0.000116147 -1.54288e-06 0)
(-0.000114856 -1.63068e-06 0)
(-0.000113493 -1.71732e-06 0)
(-0.00011206 -1.80332e-06 0)
(-0.000110556 -1.88881e-06 0)
(-0.000108984 -1.97337e-06 0)
(-0.000107344 -2.05652e-06 0)
(-0.000105637 -2.13812e-06 0)
(-0.000103865 -2.21831e-06 0)
(-0.000102027 -2.29711e-06 0)
(-0.000100126 -2.3744e-06 0)
(-9.81631e-05 -2.45003e-06 0)
(-9.61389e-05 -2.52395e-06 0)
(-9.40553e-05 -2.59606e-06 0)
(-9.1914e-05 -2.66611e-06 0)
(-8.97166e-05 -2.73381e-06 0)
(-8.7465e-05 -2.79913e-06 0)
(-8.51605e-05 -2.86232e-06 0)
(-8.28049e-05 -2.92348e-06 0)
(-8.04007e-05 -2.98222e-06 0)
(-7.79508e-05 -3.03786e-06 0)
(-7.54576e-05 -3.09004e-06 0)
(-7.29235e-05 -3.13891e-06 0)
(-7.03507e-05 -3.18461e-06 0)
(-6.77423e-05 -3.22665e-06 0)
(-6.51022e-05 -3.2642e-06 0)
(-6.24342e-05 -3.29676e-06 0)
(-5.97418e-05 -3.3244e-06 0)
(-5.70287e-05 -3.34723e-06 0)
(-5.42994e-05 -3.36481e-06 0)
(-5.1559e-05 -3.37625e-06 0)
(-4.88127e-05 -3.38077e-06 0)
(-4.60655e-05 -3.37807e-06 0)
(-4.3323e-05 -3.36795e-06 0)
(-4.05913e-05 -3.35001e-06 0)
(-3.78773e-05 -3.32379e-06 0)
(-3.51876e-05 -3.28892e-06 0)
(-3.25294e-05 -3.24495e-06 0)
(-2.99104e-05 -3.19121e-06 0)
(-2.73388e-05 -3.12688e-06 0)
(-2.48229e-05 -3.0514e-06 0)
(-2.23713e-05 -2.96467e-06 0)
(-1.99928e-05 -2.86677e-06 0)
(-1.76967e-05 -2.75738e-06 0)
(-1.5493e-05 -2.63566e-06 0)
(-1.33917e-05 -2.50081e-06 0)
(-1.14026e-05 -2.35266e-06 0)
(-9.5348e-06 -2.19164e-06 0)
(-7.79773e-06 -2.01812e-06 0)
(-6.20113e-06 -1.8321e-06 0)
(-4.75451e-06 -1.63371e-06 0)
(-3.46612e-06 -1.42402e-06 0)
(-2.34249e-06 -1.20522e-06 0)
(-1.38884e-06 -9.79955e-07 0)
(-6.09064e-07 -7.50907e-07 0)
(-4.93307e-09 -5.2119e-07 0)
(4.25321e-07 -2.95389e-07 0)
(6.88455e-07 -8.0545e-08 0)
(7.96984e-07 1.13645e-07 0)
(7.69775e-07 2.74724e-07 0)
(6.33452e-07 3.86351e-07 0)
(4.25138e-07 4.26663e-07 0)
(2.01365e-07 3.67052e-07 0)
(4.69604e-08 1.72675e-07 0)
(4.00533e-08 -2.48151e-07 0)
(1.17272e-07 -4.65831e-07 0)
(2.36314e-07 -6.34149e-07 0)
(3.52397e-07 -6.68394e-07 0)
(4.10038e-07 -5.12692e-07 0)
(3.50486e-07 -2.07893e-07 0)
(1.24314e-07 1.87887e-07 0)
(-3.02928e-07 6.30088e-07 0)
(-9.5074e-07 1.09388e-06 0)
(-1.83286e-06 1.56181e-06 0)
(-2.95202e-06 2.02273e-06 0)
(-4.30567e-06 2.47111e-06 0)
(-5.88964e-06 2.90069e-06 0)
(-7.69476e-06 3.30899e-06 0)
(-9.71217e-06 3.69548e-06 0)
(-1.19314e-05 4.0578e-06 0)
(-1.43386e-05 4.39445e-06 0)
(-1.69216e-05 4.70512e-06 0)
(-1.96676e-05 4.98982e-06 0)
(-2.25637e-05 5.24979e-06 0)
(-2.55981e-05 5.48628e-06 0)
(-2.87574e-05 5.69939e-06 0)
(-3.20274e-05 5.88829e-06 0)
(-3.53952e-05 6.05355e-06 0)
(-3.88485e-05 6.19646e-06 0)
(-4.23761e-05 6.3181e-06 0)
(-4.5967e-05 6.42006e-06 0)
(-4.96104e-05 6.50354e-06 0)
(-5.32964e-05 6.56911e-06 0)
(-5.70156e-05 6.61814e-06 0)
(-6.07584e-05 6.65199e-06 0)
(-6.45154e-05 6.67089e-06 0)
(-6.82782e-05 6.67517e-06 0)
(-7.20388e-05 6.66585e-06 0)
(-7.57904e-05 6.64396e-06 0)
(-7.95265e-05 6.61067e-06 0)
(-8.32409e-05 6.56658e-06 0)
(-8.69267e-05 6.5117e-06 0)
(-9.05786e-05 6.44672e-06 0)
(-9.41918e-05 6.37284e-06 0)
(-9.77614e-05 6.29056e-06 0)
(-0.000101283 6.19999e-06 0)
(-0.000104751 6.10157e-06 0)
(-0.000108163 5.99622e-06 0)
(-0.000111515 5.88475e-06 0)
(-0.000114804 5.76753e-06 0)
(-0.000118026 5.64488e-06 0)
(-0.000121179 5.51711e-06 0)
(-0.000124259 5.38462e-06 0)
(-0.000127265 5.2482e-06 0)
(-0.000130193 5.1085e-06 0)
(-0.000133042 4.96552e-06 0)
(-0.000135809 4.81924e-06 0)
(-0.000138492 4.66999e-06 0)
(-0.000141091 4.51801e-06 0)
(-0.000143602 4.36319e-06 0)
(-0.000146024 4.20543e-06 0)
(-0.000148355 4.04488e-06 0)
(-0.000150595 3.88202e-06 0)
(-0.000152742 3.71725e-06 0)
(-0.000154795 3.55052e-06 0)
(-0.000156753 3.38144e-06 0)
(-0.000158613 3.20989e-06 0)
(-0.000160376 3.03619e-06 0)
(-0.00016204 2.86071e-06 0)
(-0.000163604 2.68366e-06 0)
(-0.000165068 2.50507e-06 0)
(-0.00016643 2.32493e-06 0)
(-0.000167691 2.14328e-06 0)
(-0.000168849 1.9604e-06 0)
(-0.000169903 1.77667e-06 0)
(-0.000170853 1.59229e-06 0)
(-0.000171699 1.40726e-06 0)
(-0.00017244 1.22164e-06 0)
(-0.000173075 1.03532e-06 0)
(-0.000173605 8.48137e-07 0)
(-0.000174027 6.60161e-07 0)
(-0.000174344 4.71725e-07 0)
(-0.000174555 2.83134e-07 0)
(-0.000174659 9.44781e-08 0)
(-0.000174657 -9.43736e-08 0)
(-0.000174547 -2.83501e-07 0)
(-0.000174331 -4.7268e-07 0)
(-0.000174008 -6.61595e-07 0)
(-0.00017358 -8.50153e-07 0)
(-0.000173045 -1.03836e-06 0)
(-0.000172405 -1.22598e-06 0)
(-0.00017166 -1.41264e-06 0)
(-0.000170809 -1.59819e-06 0)
(-0.000169853 -1.78275e-06 0)
(-0.000168794 -1.96647e-06 0)
(-0.000167631 -2.1491e-06 0)
(-0.000166365 -2.33004e-06 0)
(-0.000164998 -2.50911e-06 0)
(-0.000163529 -2.68677e-06 0)
(-0.00016196 -2.86361e-06 0)
(-0.00016029 -3.0395e-06 0)
(-0.000158521 -3.21374e-06 0)
(-0.000156656 -3.38567e-06 0)
(-0.000154694 -3.55513e-06 0)
(-0.000152637 -3.72247e-06 0)
(-0.000150486 -3.88798e-06 0)
(-0.000148242 -4.05149e-06 0)
(-0.000145906 -4.21259e-06 0)
(-0.00014348 -4.37089e-06 0)
(-0.000140966 -4.52614e-06 0)
(-0.000138365 -4.67818e-06 0)
(-0.00013568 -4.82691e-06 0)
(-0.000132911 -4.97222e-06 0)
(-0.000130061 -5.11408e-06 0)
(-0.000127131 -5.25233e-06 0)
(-0.000124125 -5.38647e-06 0)
(-0.000121045 -5.51588e-06 0)
(-0.000117894 -5.64027e-06 0)
(-0.000114673 -5.75981e-06 0)
(-0.000111386 -5.87461e-06 0)
(-0.000108035 -5.98411e-06 0)
(-0.000104626 -6.08726e-06 0)
(-0.000101162 -6.18323e-06 0)
(-9.76455e-05 -6.27186e-06 0)
(-9.40814e-05 -6.35315e-06 0)
(-9.04736e-05 -6.42658e-06 0)
(-8.68275e-05 -6.49109e-06 0)
(-8.31488e-05 -6.54571e-06 0)
(-7.94429e-05 -6.58983e-06 0)
(-7.57155e-05 -6.62302e-06 0)
(-7.19731e-05 -6.64453e-06 0)
(-6.82223e-05 -6.65331e-06 0)
(-6.44705e-05 -6.6484e-06 0)
(-6.07254e-05 -6.62899e-06 0)
(-5.69953e-05 -6.59427e-06 0)
(-5.32891e-05 -6.54323e-06 0)
(-4.96161e-05 -6.47491e-06 0)
(-4.59859e-05 -6.38853e-06 0)
(-4.24084e-05 -6.28334e-06 0)
(-3.8894e-05 -6.15841e-06 0)
(-3.54544e-05 -6.01252e-06 0)
(-3.21015e-05 -5.84461e-06 0)
(-2.88471e-05 -5.65413e-06 0)
(-2.57032e-05 -5.44093e-06 0)
(-2.26821e-05 -5.20459e-06 0)
(-1.97968e-05 -4.94423e-06 0)
(-1.70605e-05 -4.65903e-06 0)
(-1.44858e-05 -4.34899e-06 0)
(-1.20847e-05 -4.01507e-06 0)
(-9.86832e-06 -3.65865e-06 0)
(-7.84799e-06 -3.28099e-06 0)
(-6.03448e-06 -2.88359e-06 0)
(-4.43678e-06 -2.46921e-06 0)
(-3.06133e-06 -2.04238e-06 0)
(-1.91172e-06 -1.60912e-06 0)
(-9.88683e-07 -1.17668e-06 0)
(-2.89529e-07 -7.53879e-07 0)
(1.93522e-07 -3.52478e-07 0)
(4.75283e-07 1.13247e-08 0)
(5.7854e-07 3.16307e-07 0)
(5.34451e-07 5.35545e-07 0)
(3.84692e-07 6.35013e-07 0)
(1.9126e-07 5.71154e-07 0)
(4.63022e-08 2.85309e-07 0)
(3.03124e-08 -2.99648e-07 0)
(6.83866e-08 -5.42663e-07 0)
(9.89344e-08 -6.98927e-07 0)
(7.31934e-08 -6.83135e-07 0)
(-5.20277e-08 -4.23593e-07 0)
(-3.27315e-07 3.74862e-08 0)
(-8.01707e-07 6.31541e-07 0)
(-1.50602e-06 1.30388e-06 0)
(-2.46722e-06 2.01445e-06 0)
(-3.69921e-06 2.73768e-06 0)
(-5.20779e-06 3.45748e-06 0)
(-6.9951e-06 4.16123e-06 0)
(-9.05574e-06 4.84103e-06 0)
(-1.13807e-05 5.49063e-06 0)
(-1.39606e-05 6.10583e-06 0)
(-1.67833e-05 6.68511e-06 0)
(-1.98351e-05 7.22618e-06 0)
(-2.31013e-05 7.72768e-06 0)
(-2.65658e-05 8.18853e-06 0)
(-3.02127e-05 8.60833e-06 0)
(-3.40271e-05 8.98857e-06 0)
(-3.79944e-05 9.3311e-06 0)
(-4.20991e-05 9.63692e-06 0)
(-4.63255e-05 9.90695e-06 0)
(-5.06587e-05 1.01418e-05 0)
(-5.50839e-05 1.03424e-05 0)
(-5.95872e-05 1.05105e-05 0)
(-6.41557e-05 1.06475e-05 0)
(-6.8777e-05 1.07549e-05 0)
(-7.34387e-05 1.08348e-05 0)
(-7.81299e-05 1.08891e-05 0)
(-8.28399e-05 1.09195e-05 0)
(-8.75579e-05 1.0927e-05 0)
(-9.22739e-05 1.09125e-05 0)
(-9.69786e-05 1.08769e-05 0)
(-0.000101664 1.08221e-05 0)
(-0.000106322 1.07495e-05 0)
(-0.000110946 1.06599e-05 0)
(-0.000115527 1.05541e-05 0)
(-0.00012006 1.04334e-05 0)
(-0.000124539 1.0299e-05 0)
(-0.000128958 1.01518e-05 0)
(-0.000133312 9.9925e-06 0)
(-0.000137595 9.82176e-06 0)
(-0.000141803 9.64049e-06 0)
(-0.000145932 9.44963e-06 0)
(-0.000149979 9.25013e-06 0)
(-0.000153939 9.04271e-06 0)
(-0.000157808 8.82777e-06 0)
(-0.000161583 8.6057e-06 0)
(-0.000165262 8.37719e-06 0)
(-0.000168841 8.14287e-06 0)
(-0.000172318 7.90306e-06 0)
(-0.000175691 7.65807e-06 0)
(-0.000178956 7.40833e-06 0)
(-0.000182111 7.15412e-06 0)
(-0.000185156 6.89549e-06 0)
(-0.000188087 6.63242e-06 0)
(-0.000190902 6.36505e-06 0)
(-0.000193601 6.09379e-06 0)
(-0.000196181 5.81901e-06 0)
(-0.000198641 5.54097e-06 0)
(-0.00020098 5.25975e-06 0)
(-0.000203195 4.97535e-06 0)
(-0.000205287 4.68782e-06 0)
(-0.000207253 4.39737e-06 0)
(-0.000209093 4.10434e-06 0)
(-0.000210805 3.80901e-06 0)
(-0.00021239 3.51156e-06 0)
(-0.000213845 3.21217e-06 0)
(-0.00021517 2.9111e-06 0)
(-0.000216364 2.60852e-06 0)
(-0.000217427 2.30459e-06 0)
(-0.000218358 1.99963e-06 0)
(-0.000219156 1.69383e-06 0)
(-0.000219821 1.38705e-06 0)
(-0.000220352 1.07911e-06 0)
(-0.00022075 7.70195e-07 0)
(-0.000221014 4.6074e-07 0)
(-0.000221144 1.51203e-07 0)
(-0.00022114 -1.58238e-07 0)
(-0.000221002 -4.67714e-07 0)
(-0.00022073 -7.773e-07 0)
(-0.000220324 -1.08676e-06 0)
(-0.000219785 -1.39571e-06 0)
(-0.000219112 -1.70383e-06 0)
(-0.000218306 -2.01085e-06 0)
(-0.000217368 -2.31648e-06 0)
(-0.000216298 -2.62048e-06 0)
(-0.000215097 -2.92277e-06 0)
(-0.000213765 -3.22353e-06 0)
(-0.000212302 -3.5229e-06 0)
(-0.00021071 -3.82052e-06 0)
(-0.00020899 -4.11564e-06 0)
(-0.000207142 -4.40779e-06 0)
(-0.000205169 -4.69713e-06 0)
(-0.00020307 -4.98419e-06 0)
(-0.000200847 -5.26913e-06 0)
(-0.000198501 -5.55142e-06 0)
(-0.000196034 -5.83024e-06 0)
(-0.000193447 -6.1051e-06 0)
(-0.000190742 -6.37608e-06 0)
(-0.000187921 -6.64331e-06 0)
(-0.000184984 -6.90666e-06 0)
(-0.000181935 -7.16578e-06 0)
(-0.000178774 -7.42028e-06 0)
(-0.000175504 -7.66978e-06 0)
(-0.000172128 -7.91386e-06 0)
(-0.000168648 -8.15205e-06 0)
(-0.000165066 -8.38409e-06 0)
(-0.000161385 -8.60994e-06 0)
(-0.000157607 -8.82944e-06 0)
(-0.000153737 -9.0419e-06 0)
(-0.000149776 -9.24633e-06 0)
(-0.00014573 -9.44206e-06 0)
(-0.0001416 -9.62896e-06 0)
(-0.000137393 -9.80693e-06 0)
(-0.00013311 -9.97521e-06 0)
(-0.000128758 -1.01325e-05 0)
(-0.000124342 -1.02774e-05 0)
(-0.000119867 -1.04095e-05 0)
(-0.000115338 -1.05281e-05 0)
(-0.000110761 -1.06326e-05 0)
(-0.000106143 -1.07215e-05 0)
(-0.000101491 -1.07934e-05 0)
(-9.68134e-05 -1.08471e-05 0)
(-9.2117e-05 -1.08814e-05 0)
(-8.74104e-05 -1.08951e-05 0)
(-8.27027e-05 -1.08867e-05 0)
(-7.80036e-05 -1.08549e-05 0)
(-7.33231e-05 -1.07985e-05 0)
(-6.86721e-05 -1.07157e-05 0)
(-6.40623e-05 -1.06051e-05 0)
(-5.95057e-05 -1.04648e-05 0)
(-5.50148e-05 -1.02937e-05 0)
(-5.06021e-05 -1.00907e-05 0)
(-4.62812e-05 -9.85447e-06 0)
(-4.20665e-05 -9.58358e-06 0)
(-3.79729e-05 -9.27646e-06 0)
(-3.40155e-05 -8.93214e-06 0)
(-3.02088e-05 -8.55032e-06 0)
(-2.65678e-05 -8.13082e-06 0)
(-2.31078e-05 -7.6732e-06 0)
(-1.98444e-05 -7.17714e-06 0)
(-1.67923e-05 -6.64328e-06 0)
(-1.39649e-05 -6.07372e-06 0)
(-1.13746e-05 -5.47158e-06 0)
(-9.03301e-06 -4.84044e-06 0)
(-6.95057e-06 -4.18462e-06 0)
(-5.13517e-06 -3.51023e-06 0)
(-3.5912e-06 -2.82595e-06 0)
(-2.31892e-06 -2.14343e-06 0)
(-1.31435e-06 -1.47721e-06 0)
(-5.68515e-07 -8.453e-07 0)
(-6.55741e-08 -2.70775e-07 0)
(2.18679e-07 2.16727e-07 0)
(3.17232e-07 5.79894e-07 0)
(2.73653e-07 7.72236e-07 0)
(1.50856e-07 7.34317e-07 0)
(3.91854e-08 3.83468e-07 0)
(2.07017e-08 -3.27222e-07 0)
(2.00578e-08 -5.51203e-07 0)
(-4.88684e-08 -6.42555e-07 0)
(-2.30422e-07 -5.20668e-07 0)
(-5.64471e-07 -1.11914e-07 0)
(-1.09157e-06 5.39688e-07 0)
(-1.8509e-06 1.36466e-06 0)
(-2.87582e-06 2.29666e-06 0)
(-4.1889e-06 3.28775e-06 0)
(-5.8057e-06 4.30363e-06 0)
(-7.73425e-06 5.31886e-06 0)
(-9.97596e-06 6.31675e-06 0)
(-1.2528e-05 7.28545e-06 0)
(-1.53818e-05 8.21471e-06 0)
(-1.85258e-05 9.09792e-06 0)
(-2.19478e-05 9.93063e-06 0)
(-2.56328e-05 1.07103e-05 0)
(-2.95653e-05 1.14354e-05 0)
(-3.37286e-05 1.21048e-05 0)
(-3.81038e-05 1.27171e-05 0)
(-4.26729e-05 1.32723e-05 0)
(-4.74189e-05 1.37715e-05 0)
(-5.23241e-05 1.42167e-05 0)
(-5.73716e-05 1.46096e-05 0)
(-6.25444e-05 1.4952e-05 0)
(-6.78253e-05 1.52458e-05 0)
(-7.31984e-05 1.54928e-05 0)
(-7.86487e-05 1.56949e-05 0)
(-8.41611e-05 1.58543e-05 0)
(-8.97211e-05 1.5973e-05 0)
(-9.53154e-05 1.60532e-05 0)
(-0.000100932 1.60973e-05 0)
(-0.000106558 1.61079e-05 0)
(-0.000112182 1.60867e-05 0)
(-0.000117794 1.60351e-05 0)
(-0.000123382 1.5955e-05 0)
(-0.000128939 1.58482e-05 0)
(-0.000134455 1.57168e-05 0)
(-0.000139921 1.55621e-05 0)
(-0.00014533 1.53853e-05 0)
(-0.000150675 1.51879e-05 0)
(-0.000155948 1.49718e-05 0)
(-0.000161145 1.47382e-05 0)
(-0.000166258 1.44883e-05 0)
(-0.000171282 1.42229e-05 0)
(-0.000176212 1.39431e-05 0)
(-0.000181044 1.36501e-05 0)
(-0.000185772 1.33453e-05 0)
(-0.000190393 1.30296e-05 0)
(-0.000194903 1.27033e-05 0)
(-0.000199297 1.23672e-05 0)
(-0.000203573 1.20222e-05 0)
(-0.000207727 1.16689e-05 0)
(-0.000211756 1.13075e-05 0)
(-0.000215657 1.09385e-05 0)
(-0.000219427 1.05626e-05 0)
(-0.000223065 1.01802e-05 0)
(-0.000226568 9.79169e-06 0)
(-0.000229933 9.39722e-06 0)
(-0.000233158 8.99677e-06 0)
(-0.000236241 8.59064e-06 0)
(-0.000239181 8.17942e-06 0)
(-0.000241976 7.76359e-06 0)
(-0.000244624 7.34338e-06 0)
(-0.000247124 6.91887e-06 0)
(-0.000249474 6.49021e-06 0)
(-0.000251673 6.05768e-06 0)
(-0.00025372 5.62166e-06 0)
(-0.000255613 5.18259e-06 0)
(-0.000257352 4.74078e-06 0)
(-0.000258936 4.29642e-06 0)
(-0.000260363 3.8497e-06 0)
(-0.000261633 3.4008e-06 0)
(-0.000262745 2.95007e-06 0)
(-0.000263699 2.49794e-06 0)
(-0.000264493 2.0446e-06 0)
(-0.000265128 1.59002e-06 0)
(-0.000265604 1.13426e-06 0)
(-0.000265919 6.7754e-07 0)
(-0.000266074 2.20321e-07 0)
(-0.000266069 -2.36861e-07 0)
(-0.000265904 -6.93741e-07 0)
(-0.000265578 -1.15035e-06 0)
(-0.000265093 -1.60664e-06 0)
(-0.000264447 -2.06223e-06 0)
(-0.000263643 -2.51668e-06 0)
(-0.00026268 -2.96966e-06 0)
(-0.000261558 -3.42095e-06 0)
(-0.000260278 -3.87022e-06 0)
(-0.000258841 -4.31698e-06 0)
(-0.000257249 -4.76093e-06 0)
(-0.000255501 -5.20218e-06 0)
(-0.000253597 -5.64094e-06 0)
(-0.000251541 -6.07696e-06 0)
(-0.000249331 -6.5095e-06 0)
(-0.000246972 -6.93785e-06 0)
(-0.000244463 -7.36186e-06 0)
(-0.000241806 -7.78172e-06 0)
(-0.000239002 -8.19752e-06 0)
(-0.000236053 -8.60882e-06 0)
(-0.00023296 -9.01496e-06 0)
(-0.000229727 -9.41545e-06 0)
(-0.000226354 -9.81006e-06 0)
(-0.000222844 -1.01985e-05 0)
(-0.0002192 -1.05805e-05 0)
(-0.000215422 -1.09556e-05 0)
(-0.000211515 -1.13234e-05 0)
(-0.00020748 -1.16835e-05 0)
(-0.000203321 -1.20353e-05 0)
(-0.000199041 -1.23779e-05 0)
(-0.000194643 -1.27108e-05 0)
(-0.00019013 -1.30338e-05 0)
(-0.000185506 -1.33465e-05 0)
(-0.000180775 -1.36479e-05 0)
(-0.000175941 -1.39368e-05 0)
(-0.000171009 -1.42122e-05 0)
(-0.000165984 -1.44734e-05 0)
(-0.000160871 -1.472e-05 0)
(-0.000155674 -1.49509e-05 0)
(-0.000150401 -1.51642e-05 0)
(-0.000145058 -1.53585e-05 0)
(-0.000139652 -1.55325e-05 0)
(-0.000134189 -1.5685e-05 0)
(-0.000128677 -1.58146e-05 0)
(-0.000123126 -1.59196e-05 0)
(-0.000117543 -1.59981e-05 0)
(-0.000111938 -1.60481e-05 0)
(-0.000106322 -1.60678e-05 0)
(-0.000100704 -1.60552e-05 0)
(-9.50969e-05 -1.60083e-05 0)
(-8.95118e-05 -1.5925e-05 0)
(-8.39615e-05 -1.58036e-05 0)
(-7.84593e-05 -1.56418e-05 0)
(-7.30193e-05 -1.54374e-05 0)
(-6.76564e-05 -1.51879e-05 0)
(-6.23858e-05 -1.48916e-05 0)
(-5.72229e-05 -1.45468e-05 0)
(-5.21837e-05 -1.41522e-05 0)
(-4.72854e-05 -1.3706e-05 0)
(-4.25456e-05 -1.32063e-05 0)
(-3.79816e-05 -1.26523e-05 0)
(-3.36104e-05 -1.20439e-05 0)
(-2.94489e-05 -1.13814e-05 0)
(-2.55142e-05 -1.06653e-05 0)
(-2.18231e-05 -9.89649e-06 0)
(-1.83917e-05 -9.07727e-06 0)
(-1.5234e-05 -8.21179e-06 0)
(-1.23623e-05 -7.3059e-06 0)
(-9.78733e-06 -6.36679e-06 0)
(-7.5178e-06 -5.40338e-06 0)
(-5.55899e-06 -4.4273e-06 0)
(-3.91174e-06 -3.45399e-06 0)
(-2.57176e-06 -2.50339e-06 0)
(-1.52939e-06 -1.60024e-06 0)
(-7.68446e-07 -7.75188e-07 0)
(-2.64691e-07 -6.64383e-08 0)
(1.48237e-08 4.78669e-07 0)
(1.13338e-07 8.01702e-07 0)
(9.07638e-08 8.28113e-07 0)
(2.85136e-08 4.54162e-07 0)
(9.47799e-09 -3.26478e-07 0)
(-3.72023e-08 -4.84008e-07 0)
(-2.11612e-07 -4.54421e-07 0)
(-5.60209e-07 -1.688e-07 0)
(-1.11882e-06 4.38159e-07 0)
(-1.91596e-06 1.32557e-06 0)
(-2.98654e-06 2.41586e-06 0)
(-4.35666e-06 3.64068e-06 0)
(-6.04769e-06 4.94444e-06 0)
(-8.07459e-06 6.28443e-06 0)
(-1.04437e-05 7.6291e-06 0)
(-1.31569e-05 8.95503e-06 0)
(-1.62116e-05 1.02456e-05 0)
(-1.95996e-05 1.14884e-05 0)
(-2.33097e-05 1.2673e-05 0)
(-2.73276e-05 1.37925e-05 0)
(-3.16373e-05 1.48422e-05 0)
(-3.62219e-05 1.58191e-05 0)
(-4.10641e-05 1.67225e-05 0)
(-4.61445e-05 1.75515e-05 0)
(-5.1443e-05 1.83055e-05 0)
(-5.694e-05 1.89851e-05 0)
(-6.2616e-05 1.95918e-05 0)
(-6.84518e-05 2.01271e-05 0)
(-7.44286e-05 2.05939e-05 0)
(-8.05277e-05 2.09947e-05 0)
(-8.67312e-05 2.13314e-05 0)
(-9.30219e-05 2.16075e-05 0)
(-9.93832e-05 2.1826e-05 0)
(-0.000105799 2.19894e-05 0)
(-0.000112254 2.21003e-05 0)
(-0.000118733 2.21614e-05 0)
(-0.000125224 2.21759e-05 0)
(-0.000131712 2.21468e-05 0)
(-0.000138187 2.20764e-05 0)
(-0.000144635 2.19669e-05 0)
(-0.000151046 2.18207e-05 0)
(-0.000157411 2.16407e-05 0)
(-0.000163719 2.14288e-05 0)
(-0.000169962 2.1187e-05 0)
(-0.000176131 2.0917e-05 0)
(-0.000182218 2.06208e-05 0)
(-0.000188217 2.03006e-05 0)
(-0.00019412 1.99579e-05 0)