/*--------------------------------*- C++ -*----------------------------------*\
  =========                 |
  \\      /  F ield         | OpenFOAM: The Open Source CFD Toolbox
   \\    /   O peration     | Website:  https://openfoam.org
    \\  /    A nd           | Version:  7
     \\/     M anipulation  |
\*---------------------------------------------------------------------------*/
FoamFile
{
    version     2.0;
    format      ascii;
    class       surfaceScalarField;
    location    "0.1";
    object      phi;
}
// * * * * * * * * * * * * * * * * * * * * * * * * * * * * * * * * * * * * * //

dimensions      [0 3 -1 0 0 0 0];

internalField   nonuniform List<scalar> 
101920
(
3.6007e-13
-3.62765e-13
-4.50798e-12
4.86707e-12
-1.53685e-11
1.08602e-11
-2.71392e-11
1.17691e-11
-3.72753e-11
1.01371e-11
-4.52655e-11
7.99303e-12
-5.11861e-11
5.92377e-12
-5.5295e-11
4.10926e-12
-5.78578e-11
2.56358e-12
-5.91098e-11
1.25486e-12
-5.92641e-11
1.50883e-13
-5.84837e-11
-7.78314e-13
-5.69114e-11
-1.57793e-12
-5.46755e-11
-2.23533e-12
-5.19022e-11
-2.77407e-12
-4.86927e-11
-3.21333e-12
-4.51178e-11
-3.57133e-12
-4.1282e-11
-3.83605e-12
-3.72396e-11
-4.04125e-12
-3.30622e-11
-4.17554e-12
-2.87916e-11
-4.27189e-12
-2.44727e-11
-4.31755e-12
-2.01455e-11
-4.33063e-12
-1.58346e-11
-4.3135e-12
-1.15531e-11
-4.27953e-12
-7.32671e-12
-4.22671e-12
-3.16372e-12
-4.16293e-12
9.22444e-13
-4.08768e-12
4.91931e-12
-3.99795e-12
8.8191e-12
-3.89997e-12
1.26105e-11
-3.79139e-12
1.62903e-11
-3.67804e-12
1.98582e-11
-3.56695e-12
2.3317e-11
-3.4581e-12
2.66706e-11
-3.35439e-12
2.99229e-11
-3.25202e-12
3.30822e-11
-3.16105e-12
3.61528e-11
-3.06996e-12
3.91391e-11
-2.98654e-12
4.20425e-11
-2.90459e-12
4.48686e-11
-2.82415e-12
4.76153e-11
-2.74622e-12
5.02841e-11
-2.66861e-12
5.28788e-11
-2.59243e-12
5.5404e-11
-2.5227e-12
5.78597e-11
-2.45431e-12
6.02466e-11
-2.38412e-12
6.25706e-11
-2.32328e-12
6.48362e-11
-2.26697e-12
6.70452e-11
-2.20957e-12
6.92024e-11
-2.15531e-12
7.13074e-11
-2.10501e-12
7.33584e-11
-2.05067e-12
7.53563e-11
-1.99611e-12
7.73001e-11
-1.94495e-12
7.91856e-11
-1.88671e-12
8.10085e-11
-1.82341e-12
8.2768e-11
-1.76066e-12
8.44622e-11
-1.6961e-12
8.60902e-11
-1.6277e-12
8.76528e-11
-1.56205e-12
8.91549e-11
-1.50262e-12
9.05923e-11
-1.43747e-12
9.19627e-11
-1.36851e-12
9.32675e-11
-1.30435e-12
9.45105e-11
-1.24354e-12
9.5696e-11
-1.18379e-12
9.6821e-11
-1.12451e-12
9.78883e-11
-1.06764e-12
9.88939e-11
-1.00541e-12
9.98302e-11
-9.3583e-13
1.00694e-10
-8.6516e-13
1.01485e-10
-7.92075e-13
1.02201e-10
-7.16239e-13
1.02839e-10
-6.37806e-13
1.03398e-10
-5.58976e-13
1.0388e-10
-4.80669e-13
1.04282e-10
-4.00472e-13
1.04602e-10
-3.18752e-13
1.04837e-10
-2.34427e-13
1.04987e-10
-1.50451e-13
1.05058e-10
-7.10306e-14
1.0505e-10
6.43183e-15
1.04964e-10
8.50129e-14
1.048e-10
1.65441e-13
1.04552e-10
2.48186e-13
1.04222e-10
3.31177e-13
1.03813e-10
4.10041e-13
1.03332e-10
4.815e-13
1.02786e-10
5.45755e-13
1.02178e-10
6.07426e-13
1.01505e-10
6.72378e-13
1.00765e-10
7.39998e-13
9.99629e-11
8.02614e-13
9.91081e-11
8.55383e-13
9.8207e-11
9.01387e-13
9.72617e-11
9.44956e-13
9.62701e-11
9.90112e-13
9.52296e-11
1.03929e-12
9.41387e-11
1.0907e-12
9.30008e-11
1.13886e-12
9.18248e-11
1.1774e-12
9.06191e-11
1.20593e-12
8.93865e-11
1.23176e-12
8.81216e-11
1.26419e-12
8.68139e-11
1.3075e-12
8.54571e-11
1.35742e-12
8.40507e-11
1.40689e-12
8.2596e-11
1.45442e-12
8.10934e-11
1.50193e-12
7.95399e-11
1.55253e-12
7.79279e-11
1.61186e-12
7.62456e-11
1.68333e-12
7.44814e-11
1.76503e-12
7.26303e-11
1.85152e-12
7.06958e-11
1.93466e-12
6.86878e-11
2.00813e-12
6.66162e-11
2.07247e-12
6.4485e-11
2.13221e-12
6.22941e-11
2.19103e-12
6.00435e-11
2.25047e-12
5.77338e-11
2.30913e-12
5.53698e-11
2.36352e-12
5.29592e-11
2.41127e-12
5.05079e-11
2.45121e-12
4.80258e-11
2.48184e-12
4.552e-11
2.50629e-12
4.29878e-11
2.5324e-12
4.04268e-11
2.56163e-12
3.78404e-11
2.58804e-12
3.52337e-11
2.60689e-12
3.262e-11
2.61324e-12
3.00182e-11
2.60152e-12
2.7444e-11
2.57243e-12
2.4914e-11
2.52884e-12
2.24435e-11
2.47137e-12
2.00396e-11
2.40423e-12
1.77066e-11
2.33334e-12
1.54492e-11
2.25825e-12
1.32733e-11
2.17549e-12
1.11884e-11
2.0848e-12
9.20508e-12
1.98441e-12
7.33467e-12
1.87015e-12
5.59083e-12
1.74263e-12
3.98466e-12
1.60545e-12
2.52481e-12
1.4589e-12
1.22396e-12
1.30026e-12
9.57307e-14
1.12924e-12
-8.50807e-13
9.48324e-13
-1.60524e-12
7.55981e-13
-2.1536e-12
5.49315e-13
-2.48755e-12
3.32816e-13
-2.60809e-12
1.17282e-13
-2.52113e-12
-8.87859e-14
-2.2412e-12
-2.79151e-13
-1.79831e-12
-4.40928e-13
-1.24125e-12
-5.54519e-13
-6.49837e-13
-5.89834e-13
-1.64971e-13
-4.84965e-13
-1.64908e-13
5.96913e-12
-6.333e-12
6.69104e-12
4.14816e-12
-2.63781e-12
2.01906e-11
-1.63818e-11
2.55123e-11
-3.04422e-11
2.41979e-11
-4.28121e-11
2.0358e-11
-5.27402e-11
1.58513e-11
-6.00692e-11
1.14362e-11
-6.49186e-11
7.41274e-12
-6.75086e-11
3.84626e-12
-6.80928e-11
7.35192e-13
-6.69066e-11
-1.96251e-12
-6.42141e-11
-4.26724e-12
-6.02045e-11
-6.24337e-12
-5.50745e-11
-7.90535e-12
-4.89891e-11
-9.29295e-12
-4.21352e-11
-1.04308e-11
-3.46182e-11
-1.13553e-11
-2.65849e-11
-1.20751e-11
-1.81276e-11
-1.26346e-11
-9.35132e-12
-1.30472e-11
-3.2734e-13
-1.334e-11
8.86948e-12
-1.35254e-11
1.8184e-11
-1.36267e-11
2.75618e-11
-1.36605e-11
3.69697e-11
-1.36343e-11
4.63715e-11
-1.35622e-11
5.57291e-11
-1.34453e-11
6.50245e-11
-1.32895e-11
7.42232e-11
-1.31004e-11
8.33106e-11
-1.28813e-11
9.2274e-11
-1.26403e-11
1.01092e-10
-1.23892e-11
1.09767e-10
-1.21303e-11
1.18292e-10
-1.18782e-11
1.26664e-10
-1.16243e-11
1.34882e-10
-1.1377e-11
1.42944e-10
-1.11323e-11
1.50848e-10
-1.08928e-11
1.58596e-10
-1.06508e-11
1.66182e-10
-1.04113e-11
1.73607e-10
-1.01733e-11
1.80865e-10
-9.92905e-12
1.87961e-10
-9.69313e-12
1.94888e-10
-9.45528e-12
2.0165e-10
-9.21808e-12
2.08247e-10
-8.98137e-12
2.14679e-10
-8.75595e-12
2.20945e-10
-8.53237e-12
2.27051e-10
-8.31399e-12
2.32994e-10
-8.10229e-12
2.38774e-10
-7.88615e-12
2.4439e-10
-7.66625e-12
2.49842e-10
-7.44848e-12
2.55123e-10
-7.22509e-12
2.60227e-10
-6.98797e-12
2.65154e-10
-6.74699e-12
2.69898e-10
-6.50591e-12
2.74457e-10
-6.25449e-12
2.78832e-10
-5.99981e-12
2.83015e-10
-5.74939e-12
2.8701e-10
-5.49816e-12
2.90816e-10
-5.24262e-12
2.94434e-10
-4.98948e-12
2.97868e-10
-4.74072e-12
3.01115e-10
-4.49022e-12
3.04173e-10
-4.24166e-12
3.07039e-10
-3.99373e-12
3.09716e-10
-3.74329e-12
3.122e-10
-3.48739e-12
3.14488e-10
-3.22314e-12
3.16578e-10
-2.95392e-12
3.18466e-10
-2.6779e-12
3.20145e-10
-2.39475e-12
3.21613e-10
-2.10698e-12
3.22869e-10
-1.8165e-12
3.23914e-10
-1.52591e-12
3.24743e-10
-1.2321e-12
3.25357e-10
-9.33941e-13
3.25756e-10
-6.31842e-13
3.25938e-10
-3.30784e-13
3.25906e-10
-3.71808e-14
3.25661e-10
2.52173e-13
3.25204e-10
5.42588e-13
3.24534e-10
8.34625e-13
3.23651e-10
1.12976e-12
3.22555e-10
1.4262e-12
3.2125e-10
1.71484e-12
3.19744e-10
1.98818e-12
3.18042e-10
2.24822e-12
3.16148e-10
2.50235e-12
3.14064e-10
2.75656e-12
3.11793e-10
3.00992e-12
3.09339e-10
3.25477e-12
3.06709e-10
3.4844e-12
3.0391e-10
3.70104e-12
3.00946e-10
3.91114e-12
2.97817e-10
4.11974e-12
2.94524e-10
4.33117e-12
2.91069e-10
4.54444e-12
2.87454e-10
4.75088e-12
2.83689e-10
4.94116e-12
2.7978e-10
5.1155e-12
2.75728e-10
5.28497e-12
2.71529e-10
5.46293e-12
2.67179e-10
5.65631e-12
2.62673e-10
5.86185e-12
2.5801e-10
6.0702e-12
2.53189e-10
6.27632e-12
2.48211e-10
6.48174e-12
2.43073e-10
6.69135e-12
2.37769e-10
6.91444e-12
2.32295e-10
7.15797e-12
2.26642e-10
7.41818e-12
2.2081e-10
7.68371e-12
2.14804e-10
7.94087e-12
2.08632e-10
8.17914e-12
2.02306e-10
8.39854e-12
1.95833e-10
8.6059e-12
1.8922e-10
8.80461e-12
1.82477e-10
8.99505e-12
1.75611e-10
9.17682e-12
1.68629e-10
9.34522e-12
1.61547e-10
9.49319e-12
1.54382e-10
9.61765e-12
1.47144e-10
9.7197e-12
1.39847e-10
9.80352e-12
1.32502e-10
9.87662e-12
1.25119e-10
9.94264e-12
1.17711e-10
9.99455e-12
1.103e-10
1.002e-11
1.02905e-10
1.0009e-11
9.55547e-11
9.95356e-12
8.8279e-11
9.84922e-12
8.11067e-11
9.7001e-12
7.40636e-11
9.51426e-12
6.7171e-11
9.29629e-12
6.0452e-11
9.05048e-12
5.3929e-11
8.78099e-12
4.76205e-11
8.48418e-12
4.1552e-11
8.15236e-12
3.57542e-11
7.78203e-12
3.02525e-11
7.3726e-12
2.50729e-11
6.92326e-12
2.02485e-11
6.43208e-12
1.58092e-11
5.89949e-12
1.17788e-11
5.32883e-12
8.18332e-12
4.72126e-12
5.05331e-12
4.07609e-12
2.41407e-12
3.3946e-12
2.83341e-13
2.68192e-12
-1.32516e-12
1.94643e-12
-2.40751e-12
1.20341e-12
-2.97543e-12
4.78885e-13
-3.06136e-12
-1.95441e-13
-2.72376e-12
-7.81893e-13
-2.05628e-12
-1.22471e-12
-1.2108e-12
-1.43566e-12
-4.15811e-13
-1.27976e-12
-5.80239e-13
1.16319e-11
-1.79651e-11
2.19679e-11
-6.18865e-12
2.23759e-11
1.97823e-11
1.62181e-11
3.16665e-11
7.29963e-12
3.31171e-11
-1.91175e-12
2.95707e-11
-1.00122e-11
2.39506e-11
-1.62932e-11
1.77193e-11
-2.04929e-11
1.16086e-11
-2.25701e-11
5.92462e-12
-2.26305e-11
7.94692e-13
-2.08367e-11
-3.75716e-12
-1.73428e-11
-7.76023e-12
-1.2349e-11
-1.12365e-11
-6.03762e-12
-1.42168e-11
1.44285e-12
-1.67771e-11
9.94661e-12
-1.8928e-11
1.93163e-11
-2.07259e-11
2.94423e-11
-2.22023e-11
4.0206e-11
-2.33975e-11
5.15069e-11
-2.43521e-11
6.32641e-11
-2.50928e-11
7.53808e-11
-2.56445e-11
8.78032e-11
-2.60486e-11
1.00457e-10
-2.63123e-11
1.13288e-10
-2.64662e-11
1.26246e-10
-2.65231e-11
1.39285e-10
-2.64849e-11
1.52368e-10
-2.63736e-11
1.6546e-10
-2.61911e-11
1.78527e-10
-2.59455e-11
1.91544e-10
-2.56581e-11
2.04484e-10
-2.53312e-11
2.17329e-10
-2.49763e-11
2.30052e-10
-2.46041e-11
2.42647e-10
-2.42175e-11
2.5509e-10
-2.38186e-11
2.67372e-10
-2.34146e-11
2.79477e-10
-2.29966e-11
2.91397e-10
-2.25702e-11
3.03116e-10
-2.21316e-11
3.14631e-10
-2.16841e-11
3.25933e-10
-2.12264e-11
3.37008e-10
-2.07654e-11
3.47852e-10
-2.02974e-11
3.58458e-10
-1.98225e-11
3.68821e-10
-1.93454e-11
3.78933e-10
-1.88681e-11
3.88793e-10
-1.83902e-11
3.98392e-10
-1.79129e-11
4.07724e-10
-1.74341e-11
4.16789e-10
-1.69499e-11
4.25583e-10
-1.64605e-11
4.34095e-10
-1.59652e-11
4.42327e-10
-1.54566e-11
4.50275e-10
-1.49362e-11
4.5793e-10
-1.44052e-11
4.6529e-10
-1.38654e-11
4.72354e-10
-1.33168e-11
4.79119e-10
-1.27651e-11
4.8558e-10
-1.22114e-11
4.91736e-10
-1.16512e-11
4.97582e-10
-1.10889e-11
5.03118e-10
-1.05268e-11
5.08346e-10
-9.96608e-12
5.13261e-10
-9.40557e-12
5.17865e-10
-8.84581e-12
5.22155e-10
-8.28448e-12
5.26128e-10
-7.7159e-12
5.29781e-10
-7.14193e-12
5.33115e-10
-6.55921e-12
5.36128e-10
-5.96631e-12
5.38818e-10
-5.36622e-12
5.4118e-10
-4.75751e-12
5.43217e-10
-4.14242e-12
5.44927e-10
-3.52396e-12
5.46306e-10
-2.90355e-12
5.47353e-10
-2.27943e-12
5.48069e-10
-1.65026e-12
5.48455e-10
-1.01842e-12
5.4851e-10
-3.87324e-13
5.48233e-10
2.39153e-13
5.47627e-10
8.60307e-13
5.4669e-10
1.48027e-12
5.45425e-10
2.10099e-12
5.43832e-10
2.72258e-12
5.41916e-10
3.34215e-12
5.39679e-10
3.95184e-12
5.37121e-10
4.54577e-12
5.34243e-10
5.12505e-12
5.3105e-10
5.69574e-12
5.27546e-10
6.26175e-12
5.23736e-10
6.82068e-12
5.19623e-10
7.36752e-12
5.15208e-10
7.89861e-12
5.10493e-10
8.41412e-12
5.05483e-10
8.9202e-12
5.00181e-10
9.42215e-12
4.94591e-10
9.922e-12
4.88718e-10
1.04185e-11
4.82564e-10
1.09042e-11
4.76131e-10
1.13725e-11
4.6942e-10
1.18257e-11
4.62432e-10
1.22732e-11
4.55171e-10
1.27254e-11
4.47639e-10
1.31884e-11
4.39839e-10
1.36602e-11
4.31773e-10
1.41345e-11
4.23441e-10
1.46078e-11
4.14843e-10
1.50797e-11
4.05983e-10
1.55528e-11
3.96862e-10
1.60354e-11
3.87487e-10
1.65335e-11
3.77864e-10
1.70422e-11
3.67999e-10
1.75488e-11
3.57901e-10
1.80401e-11
3.47575e-10
1.85063e-11
3.37029e-10
1.89444e-11
3.26277e-10
1.93578e-11
3.15331e-10
1.97495e-11
3.04207e-10
2.01194e-11
2.9292e-10
2.04647e-11
2.81487e-10
2.07795e-11
2.69921e-10
2.1058e-11
2.58243e-10
2.12965e-11
2.4647e-10
2.14935e-11
2.34622e-10
2.16528e-11
2.22721e-10
2.1779e-11
2.10793e-10
2.18711e-11
1.98864e-10
2.19229e-11
1.8696e-10
2.19231e-11
1.75111e-10
2.1857e-11
1.63347e-10
2.17165e-11
1.51698e-10
2.14994e-11
1.40196e-10
2.12035e-11
1.28878e-10
2.08325e-11
1.17779e-10
2.03958e-11
1.06931e-10
1.98981e-11
9.63757e-11
1.93369e-11
8.61528e-11
1.87076e-11
7.62983e-11
1.80067e-11
6.68487e-11
1.72303e-11
5.78469e-11
1.6373e-11
4.93363e-11
1.5433e-11
4.13562e-11
1.44122e-11
3.39467e-11
1.33107e-11
2.71513e-11
1.2127e-11
2.10093e-11
1.08643e-11
1.55547e-11
9.52986e-12
1.08191e-11
8.12837e-12
6.82925e-12
6.66815e-12
3.60346e-12
5.17009e-12
1.14549e-12
3.66358e-12
-5.58037e-13
2.18605e-12
-1.54159e-12
7.90233e-13
-1.87366e-12
-4.49065e-13
-1.66781e-12
-1.43076e-12
-1.09661e-12
-2.00743e-12
-4.12954e-13
-1.96399e-12
-9.93007e-13
1.23087e-11
-3.02743e-11
2.69281e-11
-2.08074e-11
3.41442e-11
1.25682e-11
3.5008e-11
3.08032e-11
3.21576e-11
3.59671e-11
2.77441e-11
3.3985e-11
2.33178e-11
2.83763e-11
1.98123e-11
2.12204e-11
1.77902e-11
1.36317e-11
1.74861e-11
6.23087e-12
1.89839e-11
-7.0491e-13
2.22583e-11
-7.03276e-12
2.72012e-11
-1.27042e-11
3.36955e-11
-1.77309e-11
4.16302e-11
-2.2154e-11
5.08454e-11
-2.59854e-11
6.12155e-11
-2.93024e-11
7.26186e-11
-3.2128e-11
8.49422e-11
-3.45236e-11
9.80671e-11
-3.65253e-11
1.11903e-10
-3.81848e-11
1.26341e-10
-3.95349e-11
1.41315e-10
-4.06167e-11
1.56726e-10
-4.14608e-11
1.72511e-10
-4.20968e-11
1.88605e-10
-4.25589e-11
2.04937e-10
-4.28533e-11
2.2146e-10
-4.30088e-11
2.3812e-10
-4.30341e-11
2.54872e-10
-4.29411e-11
2.71676e-10
-4.27518e-11
2.88496e-10
-4.24759e-11
3.0529e-10
-4.21214e-11
3.22027e-10
-4.17145e-11
3.38677e-10
-4.12534e-11
3.55209e-10
-4.07487e-11
3.71594e-10
-4.0206e-11
3.87814e-10
-3.96328e-11
4.03841e-10
-3.90238e-11
4.19654e-10
-3.83858e-11
4.35241e-10
-3.772e-11
4.50578e-10
-3.70215e-11
4.65655e-10
-3.63054e-11
4.80448e-10
-3.55603e-11
4.94957e-10
-3.48026e-11
5.09155e-10
-3.40222e-11
5.23039e-10
-3.32297e-11
5.36595e-10
-3.2424e-11
5.49814e-10
-3.16092e-11
5.62684e-10
-3.07849e-11
5.752e-10
-2.9947e-11
5.87348e-10
-2.90966e-11
5.99122e-10
-2.8236e-11
6.1052e-10
-2.73593e-11
6.2153e-10
-2.64657e-11
6.32149e-10
-2.55562e-11
6.42373e-10
-2.46309e-11
6.522e-10
-2.36905e-11
6.61619e-10
-2.27383e-11
6.70629e-10
-2.17772e-11
6.79228e-10
-2.08087e-11
6.87411e-10
-1.98338e-11
6.95175e-10
-1.88559e-11
7.02521e-10
-1.78726e-11
7.09442e-10
-1.68845e-11
7.15929e-10
-1.58946e-11
7.21986e-10
-1.49017e-11
7.2761e-10
-1.39069e-11
7.32801e-10
-1.29069e-11
7.3756e-10
-1.19002e-11
7.41885e-10
-1.08843e-11
7.45775e-10
-9.85517e-12
7.49223e-10
-8.81623e-12
7.52233e-10
-7.76841e-12
7.54803e-10
-6.71287e-12
7.56933e-10
-5.65438e-12
7.58623e-10
-4.59329e-12
7.59873e-10
-3.52804e-12
7.60682e-10
-2.45781e-12
7.6105e-10
-1.38593e-12
7.60977e-10
-3.15428e-13
7.60463e-10
7.5285e-13
7.59507e-10
1.81656e-12
7.5811e-10
2.87677e-12
7.56274e-10
3.9362e-12
7.54003e-10
4.99402e-12
7.51299e-10
6.04697e-12
7.48162e-10
7.08876e-12
7.44594e-10
8.11464e-12
7.40592e-10
9.12634e-12
7.36159e-10
1.01275e-11
7.313e-10
1.11201e-11
7.26019e-10
1.2102e-11
7.20318e-10
1.3069e-11
7.14199e-10
1.40194e-11
7.07659e-10
1.49532e-11
7.00704e-10
1.58736e-11
6.93338e-10
1.67861e-11
6.85567e-10
1.76929e-11
6.77395e-10
1.85915e-11
6.68823e-10
1.9476e-11
6.59854e-10
2.0342e-11
6.50486e-10
2.11924e-11
6.40723e-10
2.20355e-11
6.30571e-10
2.28778e-11
6.20038e-10
2.3722e-11
6.09131e-10
2.45682e-11
5.97852e-10
2.54132e-11
5.86207e-10
2.62524e-11
5.74201e-10
2.70855e-11
5.61839e-10
2.79151e-11
5.49131e-10
2.87443e-11
5.3609e-10
2.95751e-11
5.22728e-10
3.04034e-11
5.09059e-10
3.1218e-11
4.95092e-10
3.20068e-11
4.8084e-10
3.27604e-11
4.66311e-10
3.34744e-11
4.5152e-10
3.41487e-11
4.36487e-10
3.47828e-11
4.21233e-10
3.53743e-11
4.05776e-10
3.59211e-11
3.90139e-10
3.64171e-11
3.74343e-10
3.68544e-11
3.5841e-10
3.7229e-11
3.42365e-10
3.75386e-11
3.26236e-10
3.77822e-11
3.10052e-10
3.79628e-11
2.93848e-10
3.80767e-11
2.77661e-10
3.81117e-11
2.61526e-10
3.80587e-11
2.45474e-10
3.79089e-11
2.29541e-10
3.76494e-11
2.13766e-10
3.72729e-11
1.9819e-10
3.67802e-11
1.8285e-10
3.61734e-11
1.67792e-10
3.54536e-11
1.53068e-10
3.46215e-11
1.38727e-10
3.36783e-11
1.24815e-10
3.262e-11
1.11385e-10
3.14375e-11
9.84913e-11
3.01256e-11
8.61797e-11
2.86843e-11
7.4501e-11
2.71112e-11
6.35104e-11
2.54018e-11
5.32606e-11
2.35581e-11
4.38004e-11
2.15864e-11
3.51771e-11
1.94897e-11
2.74357e-11
1.72734e-11
2.06151e-11
1.49507e-11
1.47419e-11
1.25416e-11
9.83416e-12
1.0075e-11
5.90154e-12
7.59334e-12
2.93187e-12
5.15581e-12
8.8321e-13
2.83983e-12
-3.16627e-13
7.50421e-13
-7.83372e-13
-9.63888e-13
-6.93323e-13
-2.09739e-12
-3.03598e-13
-2.35438e-12
-1.29699e-12
1.05968e-11
-4.08727e-11
2.57218e-11
-3.59296e-11
3.63585e-11
1.93065e-12
4.20706e-11
2.50938e-11
4.42741e-11
3.37631e-11
4.45398e-11
3.37176e-11
4.41557e-11
2.87629e-11
4.40993e-11
2.1279e-11
4.50033e-11
1.27312e-11
4.72524e-11
3.97805e-12
5.10439e-11
-4.49568e-12
5.64446e-11
-1.24322e-11
6.34585e-11
-1.97156e-11
7.20239e-11
-2.62969e-11
8.20317e-11
-3.21627e-11
9.34115e-11
-3.73699e-11
1.06033e-10
-4.19241e-11
1.198e-10
-4.58935e-11
1.34591e-10
-4.93169e-11
1.50314e-10
-5.22491e-11
1.66861e-10
-5.47318e-11
1.84145e-10
-5.68197e-11
2.02068e-10
-5.85393e-11
2.20548e-10
-5.99419e-11
2.3951e-10
-6.10607e-11
2.58869e-10
-6.19167e-11
2.78563e-10
-6.25477e-11
2.98525e-10
-6.29705e-11
3.18696e-10
-6.32054e-11
3.39022e-10
-6.32689e-11
3.59453e-10
-6.31827e-11
3.79938e-10
-6.29614e-11
4.00438e-10
-6.26226e-11
4.20902e-10
-6.21806e-11
4.41294e-10
-6.16446e-11
4.61573e-10
-6.10292e-11
4.81707e-10
-6.03403e-11
5.01658e-10
-5.95826e-11
5.214e-10
-5.87648e-11
5.40902e-10
-5.78879e-11
5.60141e-10
-5.69581e-11
5.7909e-10
-5.59728e-11
5.97729e-10
-5.49458e-11
6.1604e-10
-5.3871e-11
6.33997e-10
-5.276e-11
6.51587e-10
-5.16128e-11
6.68794e-10
-5.04351e-11
6.85598e-10
-4.92273e-11
7.01984e-10
-4.79973e-11
7.17942e-10
-4.67421e-11
7.33457e-10
-4.54624e-11
7.48519e-10
-4.41609e-11
7.63119e-10
-4.2836e-11
7.77246e-10
-4.14851e-11
7.9089e-10
-4.01113e-11
8.04049e-10
-3.87147e-11
8.16715e-10
-3.72957e-11
8.28881e-10
-3.58563e-11
8.40542e-10
-3.44002e-11
8.51693e-10
-3.2928e-11
8.62326e-10
-3.14419e-11
8.72437e-10
-2.99454e-11
8.82023e-10
-2.8443e-11
8.91085e-10
-2.69341e-11
8.99616e-10
-2.5416e-11
9.07611e-10
-2.38917e-11
9.1507e-10
-2.23594e-11
9.21984e-10
-2.08207e-11
9.28352e-10
-1.92765e-11
9.34177e-10
-1.77245e-11
9.39458e-10
-1.61646e-11
9.44197e-10
-1.45929e-11
9.48389e-10
-1.3009e-11
9.52037e-10
-1.14154e-11
9.55138e-10
-9.81422e-12
9.57691e-10
-8.20919e-12
9.59696e-10
-6.59957e-12
9.61154e-10
-4.98568e-12
9.62065e-10
-3.36923e-12
9.62431e-10
-1.7513e-12
9.6225e-10
-1.34163e-13
9.61522e-10
1.48074e-12
9.60248e-10
3.09132e-12
9.58427e-10
4.69711e-12
9.56061e-10
6.30088e-12
9.53154e-10
7.90139e-12
9.49707e-10
9.49408e-12
9.4572e-10
1.1075e-11
9.41194e-10
1.26408e-11
9.36128e-10
1.41927e-11
9.30523e-10
1.5732e-11
9.24384e-10
1.72582e-11
9.17713e-10
1.87717e-11
9.10511e-10
2.02703e-11
9.0278e-10
2.1751e-11
8.94521e-10
2.32131e-11
8.85736e-10
2.46585e-11
8.7643e-10
2.60916e-11
8.66607e-10
2.75148e-11
8.56273e-10
2.8925e-11
8.45431e-10
3.03176e-11
8.34083e-10
3.16909e-11
8.22229e-10
3.30465e-11
8.09875e-10
3.43888e-11
7.97029e-10
3.57233e-11
7.83699e-10
3.70515e-11
7.69895e-10
3.8372e-11
7.55626e-10
3.96832e-11
7.40897e-10
4.09819e-11
7.25717e-10
4.22651e-11
7.10098e-10
4.35335e-11
6.94054e-10
4.4789e-11
6.77599e-10
4.60304e-11
6.60751e-10
4.72516e-11
6.43528e-10
4.84417e-11
6.25943e-10
4.95913e-11
6.0801e-10
5.06929e-11
5.89747e-10
5.17389e-11
5.71171e-10
5.2725e-11
5.52305e-10
5.36488e-11
5.33174e-10
5.4506e-11
5.13803e-10
5.52926e-11
4.94216e-10
5.60037e-11
4.74443e-10
5.66283e-11
4.54514e-10
5.71595e-11
4.34455e-10
5.75971e-11
4.14302e-10
5.79363e-11
3.94092e-10
5.81709e-11
3.73871e-10
5.8298e-11
3.53675e-10
5.8309e-11
3.33546e-10
5.81888e-11
3.13529e-10
5.79259e-11
2.93667e-10
5.75127e-11
2.73998e-10
5.69415e-11
2.54573e-10
5.62053e-11
2.35446e-10
5.53016e-11
2.16667e-10
5.42328e-11
1.9829e-10
5.29981e-11
1.80379e-10
5.15908e-11
1.62993e-10
5.00051e-11
1.46192e-10
4.8238e-11
1.30034e-10
4.62847e-11
1.14582e-10
4.41381e-11
9.98977e-11
4.17961e-11
8.60407e-11
3.92595e-11
7.30693e-11
3.65289e-11
6.10436e-11
3.36098e-11
5.00197e-11
3.05125e-11
4.00445e-11
2.72486e-11
3.11608e-11
2.38349e-11
2.34045e-11
2.02995e-11
1.67961e-11
1.66848e-11
1.13392e-11
1.30496e-11
7.02278e-12
9.47027e-12
3.81027e-12
6.05136e-12
1.62888e-12
2.93122e-12
3.63072e-13
3.01303e-13
-1.51653e-13
-1.58256e-12
-1.52339e-13
-2.35423e-12
-1.45008e-12
8.47137e-12
-4.93455e-11
2.23159e-11
-4.97769e-11
3.41939e-11
-9.94616e-12
4.28875e-11
1.63956e-11
4.89024e-11
2.77521e-11
5.31712e-11
2.94521e-11
5.66478e-11
2.52862e-11
6.01468e-11
1.77727e-11
6.42872e-11
8.59194e-12
6.94852e-11
-1.21868e-12
7.59954e-11
-1.10076e-11
8.39704e-11
-2.04079e-11
9.34533e-11
-2.91991e-11
1.04431e-10
-3.72753e-11
1.16882e-10
-4.46128e-11
1.30705e-10
-5.11911e-11
1.45836e-10
-5.7052e-11
1.6217e-10
-6.22293e-11
1.79614e-10
-6.67608e-11
1.98075e-10
-7.07054e-11
2.17445e-10
-7.41041e-11
2.37638e-10
-7.70093e-11
2.58561e-10
-7.94648e-11
2.80126e-10
-8.15057e-11
3.02243e-10
-8.31787e-11
3.24839e-10
-8.45126e-11
3.47836e-10
-8.55456e-11
3.71158e-10
-8.62929e-11
3.94745e-10
-8.67898e-11
4.18531e-10
-8.70556e-11
4.42458e-10
-8.71087e-11
4.66466e-10
-8.69714e-11
4.90511e-10
-8.66655e-11
5.14534e-10
-8.62009e-11
5.38489e-10
-8.56007e-11
5.62329e-10
-8.48712e-11
5.86014e-10
-8.40246e-11
6.09505e-10
-8.30741e-11
6.32758e-10
-8.20202e-11
6.55748e-10
-8.08758e-11
6.78433e-10
-7.9643e-11
7.00797e-10
-7.83355e-11
7.22798e-10
-7.69449e-11
7.44421e-10
-7.54937e-11
7.65631e-10
-7.39733e-11
7.86418e-10
-7.23985e-11
8.06754e-10
-7.07706e-11
8.26619e-10
-6.90943e-11
8.45997e-10
-6.73739e-11
8.64869e-10
-6.56126e-11
8.83218e-10
-6.38121e-11
9.01032e-10
-6.19756e-11
9.18299e-10
-6.01013e-11
9.35005e-10
-5.81937e-11
9.51145e-10
-5.62512e-11
9.66707e-10
-5.42758e-11
9.81681e-10
-5.22708e-11
9.96064e-10
-5.02395e-11
1.00985e-09
-4.8185e-11
1.02303e-09
-4.6106e-11
1.03559e-09
-4.40079e-11
1.04754e-09
-4.18937e-11
1.05886e-09
-3.97653e-11
1.06956e-09
-3.76269e-11
1.07962e-09
-3.54773e-11
1.08904e-09
-3.33181e-11
1.09783e-09
-3.11485e-11
1.10598e-09
-2.89677e-11
1.11348e-09
-2.67783e-11
1.12033e-09
-2.45792e-11
1.12654e-09
-2.23707e-11
1.1321e-09
-2.01512e-11
1.13701e-09
-1.79198e-11
1.14127e-09
-1.56798e-11
1.14489e-09
-1.3432e-11
1.14786e-09
-1.11785e-11
1.15018e-09
-8.92004e-12
1.15185e-09
-6.6571e-12
1.15287e-09
-4.39256e-12
1.15325e-09
-2.1268e-12
1.15298e-09
1.38527e-13
1.15206e-09
2.40059e-12
1.15049e-09
4.65837e-12
1.14828e-09
6.91125e-12
1.14542e-09
9.16065e-12
1.14191e-09
1.14046e-11
1.13777e-09
1.36383e-11
1.13298e-09
1.58604e-11
1.12755e-09
1.8069e-11
1.12148e-09
2.02626e-11
1.11477e-09
2.24418e-11
1.10743e-09
2.46056e-11
1.09944e-09
2.67537e-11
1.09083e-09
2.88857e-11
1.08158e-09
3.09985e-11
1.0717e-09
3.30912e-11
1.06119e-09
3.51652e-11
1.05006e-09
3.72223e-11
1.03831e-09
3.92636e-11
1.02595e-09
4.12871e-11
1.01298e-09
4.32891e-11
9.99401e-10
4.52686e-11
9.85221e-10
4.72274e-11
9.70444e-10
4.91662e-11
9.5508e-10
5.10863e-11
9.3914e-10
5.29904e-11
9.22634e-10
5.4878e-11
9.05572e-10
5.67451e-11
8.87967e-10
5.85875e-11
8.69829e-10
6.04025e-11
8.51173e-10
6.21896e-11
8.32015e-10
6.39475e-11
8.12374e-10
6.5672e-11
7.9227e-10
6.73558e-11
7.71722e-10
6.89896e-11
7.50751e-10
7.05639e-11
7.29372e-10
7.2071e-11
7.07609e-10
7.35023e-11
6.85485e-10
7.48496e-11
6.63025e-10
7.61089e-11
6.40256e-10
7.72755e-11
6.17209e-10
7.834e-11
5.93916e-10
7.92954e-11
5.7041e-10
8.01352e-11
5.46723e-10
8.08484e-11
5.22893e-10
8.14269e-11
4.98963e-10
8.18673e-11
4.74971e-10
8.21634e-11
4.50965e-10
8.23043e-11
4.26996e-10
8.22775e-11
4.03112e-10
8.20732e-11
3.79357e-10
8.16811e-11
3.55784e-10
8.10873e-11
3.32447e-10
8.02793e-11
3.09399e-10
7.9253e-11
2.86696e-10
7.80051e-11
2.64401e-10
7.65291e-11
2.42581e-10
7.48191e-11
2.21301e-10
7.28715e-11
2.00627e-10
7.06794e-11
1.8063e-10
6.82353e-11
1.61378e-10
6.55358e-11
1.4294e-10
6.25765e-11
1.25384e-10
5.93525e-11
1.0878e-10
5.58637e-11
9.31947e-11
5.21153e-11
7.869e-11
4.81154e-11
6.53267e-11
4.3875e-11
5.31609e-11
3.94123e-11
4.22397e-11
3.47549e-11
3.25981e-11
2.99407e-11
2.42605e-11
2.50227e-11
1.7238e-11
2.00731e-11
1.15181e-11
1.51903e-11
7.06529e-12
1.0503e-11
3.81469e-12
6.181e-12
1.66364e-12
2.45131e-12
4.66363e-13
-3.85777e-13
1.87201e-14
-1.90716e-12
-1.43226e-12
6.49373e-12
-5.58376e-11
1.84526e-11
-6.17373e-11
3.03682e-11
-2.18609e-11
4.07206e-11
6.04151e-12
4.94468e-11
1.90252e-11
5.69442e-11
2.1952e-11
6.38361e-11
1.83939e-11
7.07147e-11
1.0899e-11
7.80973e-11
1.21228e-12
8.6362e-11
-9.48955e-12
9.58032e-11
-2.04434e-11
1.06565e-10
-3.11726e-11
1.1875e-10
-4.13837e-11
1.32396e-10
-5.09156e-11
1.47464e-10
-5.96837e-11
1.63926e-10
-6.76548e-11
1.81719e-10
-7.48454e-11
2.00749e-10
-8.12626e-11
2.20949e-10
-8.69592e-11
2.42209e-10
-9.19707e-11
2.64452e-10
-9.63468e-11
2.87576e-10
-1.00133e-10
3.1149e-10
-1.03378e-10
3.3611e-10
-1.06123e-10
3.61342e-10
-1.08411e-10
3.87104e-10
-1.10277e-10
4.13315e-10
-1.11753e-10
4.39898e-10
-1.12878e-10
4.66782e-10
-1.13675e-10
4.93897e-10
-1.14169e-10
5.21176e-10
-1.14388e-10
5.48557e-10
-1.14354e-10
5.75983e-10
-1.14091e-10
6.03391e-10
-1.1361e-10
6.30731e-10
-1.12941e-10
6.57953e-10
-1.12091e-10
6.85002e-10
-1.11074e-10
7.11836e-10
-1.09909e-10
7.38414e-10
-1.08597e-10
7.64694e-10
-1.07156e-10
7.90637e-10
-1.05588e-10
8.16212e-10
-1.03911e-10
8.41387e-10
-1.02118e-10
8.66126e-10
-1.00235e-10
8.9041e-10
-9.82555e-11
9.14205e-10
-9.61931e-11
9.37486e-10
-9.40531e-11
9.60235e-10
-9.18426e-11
9.82427e-10
-8.95656e-11
1.00404e-09
-8.72289e-11
1.02506e-09
-8.48332e-11
1.04547e-09
-8.23843e-11
1.06526e-09
-7.98847e-11
1.0844e-09
-7.7338e-11
1.10289e-09
-7.47438e-11
1.12073e-09
-7.21065e-11
1.13788e-09
-6.94309e-11
1.15436e-09
-6.67179e-11
1.17015e-09
-6.39736e-11
1.18525e-09
-6.11994e-11
1.19964e-09
-5.83994e-11
1.21332e-09
-5.55773e-11
1.22629e-09
-5.27328e-11
1.23853e-09
-4.98717e-11
1.25005e-09
-4.69953e-11
1.26084e-09
-4.41039e-11
1.27089e-09
-4.12005e-11
1.2802e-09
-3.82842e-11
1.28878e-09
-3.53559e-11
1.29662e-09
-3.24152e-11
1.30371e-09
-2.94628e-11
1.31006e-09
-2.64991e-11
1.31566e-09
-2.35235e-11
1.32052e-09
-2.05398e-11
1.32464e-09
-1.75488e-11
1.32801e-09
-1.45502e-11
1.33064e-09
-1.15471e-11
1.33252e-09
-8.54009e-12
1.33366e-09
-5.53094e-12
1.33405e-09
-2.5212e-12
1.3337e-09
4.87932e-13
1.33261e-09
3.49311e-12
1.33077e-09
6.49423e-12
1.32819e-09
9.49049e-12
1.32487e-09
1.24814e-11
1.32081e-09
1.54653e-11
1.31601e-09
1.84377e-11
1.31047e-09
2.13971e-11
1.3042e-09
2.4344e-11
1.29718e-09
2.72755e-11
1.28943e-09
3.01909e-11
1.28095e-09
3.30896e-11
1.27174e-09
3.59704e-11
1.26179e-09
3.88323e-11
1.25111e-09
4.16728e-11
1.23971e-09
4.44907e-11
1.22759e-09
4.72881e-11
1.21475e-09
5.00655e-11
1.20119e-09
5.28206e-11
1.18693e-09
5.55511e-11
1.17196e-09
5.82562e-11
1.15629e-09
6.09348e-11
1.13993e-09
6.35856e-11
1.12289e-09
6.62085e-11
1.10518e-09
6.88034e-11
1.0868e-09
7.13706e-11
1.06776e-09
7.39087e-11
1.0481e-09
7.64131e-11
1.0278e-09
7.88791e-11
1.0069e-09
8.13034e-11
9.85412e-10
8.36828e-11
9.63344e-10
8.60142e-11
9.40725e-10
8.82909e-11
9.17577e-10
9.05044e-11
8.9392e-10
9.26466e-11
8.69777e-10
9.47072e-11
8.45173e-10
9.66751e-11
8.20132e-10
9.85428e-11
7.94681e-10
1.00302e-10
7.68849e-10
1.01941e-10
7.42671e-10
1.03453e-10
7.16178e-10
1.04834e-10
6.89405e-10
1.0607e-10
6.62392e-10
1.07147e-10
6.35182e-10
1.08059e-10
6.07811e-10
1.08798e-10
5.80325e-10
1.09354e-10
5.52778e-10
1.09711e-10
5.25221e-10
1.09863e-10
4.97701e-10
1.09797e-10
4.70275e-10
1.095e-10
4.43001e-10
1.08956e-10
4.15937e-10
1.08153e-10
3.89138e-10
1.07079e-10
3.62667e-10
1.05724e-10
3.36592e-10
1.04081e-10
3.10978e-10
1.02142e-10
2.85899e-10
9.98995e-11
2.61428e-10
9.73437e-11
2.37639e-10
9.4469e-11
2.14608e-10
9.12682e-11
1.92409e-10
8.77347e-11
1.71121e-10
8.38642e-11
1.50818e-10
7.96548e-11
1.31574e-10
7.5107e-11
1.13462e-10
7.02267e-11
9.65532e-11
6.50253e-11
8.09111e-11
5.95188e-11
6.65925e-11
5.37305e-11
5.36502e-11
4.76956e-11
4.21272e-11
4.14632e-11
3.20485e-11
3.51007e-11
2.34267e-11
2.86941e-11
1.62578e-11
2.23589e-11
1.05136e-11
1.62462e-11
6.13891e-12
1.05552e-11
3.04737e-12
5.54172e-12
1.12162e-12
1.53901e-12
1.97504e-13
-9.83667e-13
-1.23534e-12
4.81933e-12
-6.06557e-11
1.4846e-11
-7.17654e-11
2.61981e-11
-3.32117e-11
3.74078e-11
-5.17148e-12
4.80165e-11
8.41751e-12
5.80671e-11
1.19008e-11
6.78689e-11
8.59304e-12
7.77996e-11
9.59128e-13
8.82641e-11
-9.24654e-12
9.95619e-11
-2.07901e-11
1.11947e-10
-3.28277e-11
1.25588e-10
-4.4814e-11
1.40585e-10
-5.63809e-11
1.56986e-10
-6.73181e-11
1.74792e-10
-7.74921e-11
1.9399e-10
-8.68505e-11
2.14512e-10
-9.53653e-11
2.36307e-10
-1.03055e-10
2.5929e-10
-1.09943e-10
2.83381e-10
-1.1606e-10
3.08487e-10
-1.21454e-10
3.34521e-10
-1.26168e-10
3.61393e-10
-1.30249e-10
3.89007e-10
-1.33737e-10
4.17276e-10
-1.3668e-10
4.46114e-10
-1.39115e-10
4.75438e-10
-1.41078e-10
5.05164e-10
-1.42605e-10
5.35215e-10
-1.43725e-10
5.65519e-10
-1.44473e-10
5.96001e-10
-1.44871e-10
6.26597e-10
-1.44949e-10
6.57237e-10
-1.44731e-10
6.87865e-10
-1.44238e-10
7.18416e-10
-1.43491e-10
7.48831e-10
-1.42508e-10
7.79064e-10
-1.41308e-10
8.09058e-10
-1.39902e-10
8.38773e-10
-1.38311e-10
8.6815e-10
-1.36537e-10
8.97168e-10
-1.34604e-10
9.25768e-10
-1.32511e-10
9.5393e-10
-1.30281e-10
9.81606e-10
-1.27911e-10
1.00877e-09
-1.25422e-10
1.0354e-09
-1.22819e-10
1.06146e-09
-1.20111e-10
1.08692e-09
-1.17303e-10
1.11176e-09
-1.14405e-10
1.13595e-09
-1.11425e-10
1.15949e-09
-1.08368e-10
1.18234e-09
-1.05236e-10
1.20449e-09
-1.02036e-10
1.22593e-09
-9.87743e-11
1.24664e-09
-9.54532e-11
1.26661e-09
-9.20752e-11
1.28582e-09
-8.86483e-11
1.30428e-09
-8.51739e-11
1.32196e-09
-8.16556e-11
1.33886e-09
-7.81008e-11
1.35498e-09
-7.45124e-11
1.37029e-09
-7.08952e-11
1.38481e-09
-6.725e-11
1.39852e-09
-6.35806e-11
1.41142e-09
-5.98904e-11
1.42349e-09
-5.61793e-11
1.43474e-09
-5.24522e-11
1.44517e-09
-4.87098e-11
1.45476e-09
-4.49526e-11
1.46353e-09
-4.11815e-11
1.47146e-09
-3.73961e-11
1.47856e-09
-3.35982e-11
1.48483e-09
-2.97888e-11
1.49026e-09
-2.59703e-11
1.49485e-09
-2.21446e-11
1.49861e-09
-1.83106e-11
1.50154e-09
-1.44716e-11
1.50363e-09
-1.06299e-11
1.50488e-09
-6.78522e-12
1.5053e-09
-2.94019e-12
1.50489e-09
9.03001e-13
1.50364e-09
4.74215e-12
1.50155e-09
8.57725e-12
1.49863e-09
1.2408e-11
1.49488e-09
1.62314e-11
1.4903e-09
2.00456e-11