/*--------------------------------*- C++ -*----------------------------------*\
  =========                 |
  \\      /  F ield         | OpenFOAM: The Open Source CFD Toolbox
   \\    /   O peration     | Website:  https://openfoam.org
    \\  /    A nd           | Version:  7
     \\/     M anipulation  |
\*---------------------------------------------------------------------------*/
FoamFile
{
    version     2.0;
    format      ascii;
    class       volVectorField;
    location    "0.1";
    object      U;
}
// * * * * * * * * * * * * * * * * * * * * * * * * * * * * * * * * * * * * * //

dimensions      [0 1 -1 0 0 0 0];

internalField   nonuniform List<vector> 
51200
(
(1.88769e-07 1.12513e-07 0)
(-1.23737e-07 7.93469e-07 0)
(-1.45077e-06 1.27236e-06 0)
(-3.38581e-06 1.24726e-06 0)
(-5.21337e-06 1.03465e-06 0)
(-6.67768e-06 8.07449e-07 0)
(-7.78753e-06 6.07537e-07 0)
(-8.58079e-06 4.40355e-07 0)
(-9.10573e-06 3.02599e-07 0)
(-9.4044e-06 1.884e-07 0)
(-9.50939e-06 9.12808e-08 0)
(-9.45226e-06 9.4623e-09 0)
(-9.26135e-06 -6.21582e-08 0)
(-8.94918e-06 -1.18632e-07 0)
(-8.54584e-06 -1.68367e-07 0)
(-8.06533e-06 -2.04023e-07 0)
(-7.51676e-06 -2.36108e-07 0)
(-6.9223e-06 -2.60087e-07 0)
(-6.28906e-06 -2.75917e-07 0)
(-5.629e-06 -2.86741e-07 0)
(-4.95265e-06 -2.93546e-07 0)
(-4.26253e-06 -2.94447e-07 0)
(-3.57025e-06 -2.94621e-07 0)
(-2.879e-06 -2.90976e-07 0)
(-2.18845e-06 -2.85364e-07 0)
(-1.50956e-06 -2.79562e-07 0)
(-8.37099e-07 -2.71547e-07 0)
(-1.75889e-07 -2.62554e-07 0)
(4.6972e-07 -2.53748e-07 0)
(1.10296e-06 -2.43064e-07 0)
(1.71865e-06 -2.31201e-07 0)
(2.31531e-06 -2.20489e-07 0)
(2.89582e-06 -2.08875e-07 0)
(3.45854e-06 -1.98027e-07 0)
(4.00208e-06 -1.88482e-07 0)
(4.53093e-06 -1.79347e-07 0)
(5.0444e-06 -1.70212e-07 0)
(5.54176e-06 -1.63222e-07 0)
(6.02628e-06 -1.56542e-07 0)
(6.49833e-06 -1.49097e-07 0)
(6.95593e-06 -1.42871e-07 0)
(7.40084e-06 -1.37637e-07 0)
(7.83556e-06 -1.31103e-07 0)
(8.25585e-06 -1.25566e-07 0)
(8.66466e-06 -1.22371e-07 0)
(9.06422e-06 -1.16598e-07 0)
(9.45135e-06 -1.11204e-07 0)
(9.82715e-06 -1.08084e-07 0)
(1.01948e-05 -1.04601e-07 0)
(1.05535e-05 -1.00722e-07 0)
(1.09016e-05 -9.85333e-08 0)
(1.12422e-05 -9.68076e-08 0)
(1.15758e-05 -9.45697e-08 0)
(1.18995e-05 -9.39633e-08 0)
(1.22143e-05 -9.44951e-08 0)
(1.25214e-05 -9.31249e-08 0)
(1.28186e-05 -9.02868e-08 0)
(1.31043e-05 -8.77146e-08 0)
(1.33804e-05 -8.49894e-08 0)
(1.36468e-05 -8.16023e-08 0)
(1.39022e-05 -7.89764e-08 0)
(1.41472e-05 -7.65673e-08 0)
(1.43822e-05 -7.23136e-08 0)
(1.46068e-05 -6.7414e-08 0)
(1.48203e-05 -6.43538e-08 0)
(1.50242e-05 -6.40326e-08 0)
(1.52193e-05 -6.43955e-08 0)
(1.54045e-05 -6.37338e-08 0)
(1.55799e-05 -6.14098e-08 0)
(1.57451e-05 -5.65097e-08 0)
(1.59e-05 -5.06209e-08 0)
(1.60443e-05 -4.58387e-08 0)
(1.6177e-05 -4.28847e-08 0)
(1.62981e-05 -4.08359e-08 0)
(1.64066e-05 -3.81499e-08 0)
(1.65024e-05 -3.47042e-08 0)
(1.65857e-05 -3.01836e-08 0)
(1.66558e-05 -2.50703e-08 0)
(1.67136e-05 -2.01272e-08 0)
(1.67581e-05 -1.50824e-08 0)
(1.6789e-05 -1.05032e-08 0)
(1.68069e-05 -6.95645e-09 0)
(1.68118e-05 -3.59411e-09 0)
(1.68042e-05 2.24688e-10 0)
(1.67843e-05 4.27367e-09 0)
(1.67514e-05 8.55477e-09 0)
(1.67049e-05 1.31676e-08 0)
(1.66457e-05 1.745e-08 0)
(1.65747e-05 2.09937e-08 0)
(1.64922e-05 2.38362e-08 0)
(1.63995e-05 2.60667e-08 0)
(1.62968e-05 2.84088e-08 0)
(1.61838e-05 3.11699e-08 0)
(1.60605e-05 3.35346e-08 0)
(1.59279e-05 3.50064e-08 0)
(1.57872e-05 3.5955e-08 0)
(1.56394e-05 3.69713e-08 0)
(1.54844e-05 3.82493e-08 0)
(1.53217e-05 3.94673e-08 0)
(1.51511e-05 4.07391e-08 0)
(1.49726e-05 4.19821e-08 0)
(1.47876e-05 4.22695e-08 0)
(1.45972e-05 4.16379e-08 0)
(1.44018e-05 4.08906e-08 0)
(1.4202e-05 4.04787e-08 0)
(1.39966e-05 4.11799e-08 0)
(1.37835e-05 4.29563e-08 0)
(1.35627e-05 4.45116e-08 0)
(1.33339e-05 4.578e-08 0)
(1.30972e-05 4.74735e-08 0)
(1.28529e-05 4.95342e-08 0)
(1.26e-05 5.23635e-08 0)
(1.23364e-05 5.64887e-08 0)
(1.20608e-05 6.15201e-08 0)
(1.17719e-05 6.72808e-08 0)
(1.14691e-05 7.34257e-08 0)
(1.11536e-05 7.86888e-08 0)
(1.08271e-05 8.28684e-08 0)
(1.04905e-05 8.70204e-08 0)
(1.01446e-05 9.13617e-08 0)
(9.7894e-06 9.56561e-08 0)
(9.42433e-06 1.00033e-07 0)
(9.04996e-06 1.04056e-07 0)
(8.66789e-06 1.07281e-07 0)
(8.27885e-06 1.10087e-07 0)
(7.88396e-06 1.12482e-07 0)
(7.48486e-06 1.14277e-07 0)
(7.08158e-06 1.16214e-07 0)
(6.67377e-06 1.18775e-07 0)
(6.26196e-06 1.21359e-07 0)
(5.84639e-06 1.23372e-07 0)
(5.42815e-06 1.2448e-07 0)
(5.01017e-06 1.24203e-07 0)
(4.59554e-06 1.22355e-07 0)
(4.1868e-06 1.19415e-07 0)
(3.78641e-06 1.1582e-07 0)
(3.39613e-06 1.11508e-07 0)
(3.01692e-06 1.0678e-07 0)
(2.64935e-06 1.02233e-07 0)
(2.29442e-06 9.77722e-08 0)
(1.95337e-06 9.28774e-08 0)
(1.62749e-06 8.71825e-08 0)
(1.31855e-06 8.06493e-08 0)
(1.02886e-06 7.33585e-08 0)
(7.6057e-07 6.54253e-08 0)
(5.14973e-07 5.71129e-08 0)
(2.93544e-07 4.82645e-08 0)
(9.87122e-08 3.86472e-08 0)
(-6.75882e-08 2.84486e-08 0)
(-2.03887e-07 1.7664e-08 0)
(-3.08238e-07 6.11118e-09 0)
(-3.789e-07 -6.10715e-09 0)
(-4.1524e-07 -1.83448e-08 0)
(-4.17633e-07 -2.97201e-08 0)
(-3.87472e-07 -3.96152e-08 0)
(-3.28248e-07 -4.73132e-08 0)
(-2.45948e-07 -5.16264e-08 0)
(-1.50576e-07 -5.06279e-08 0)
(-6.05162e-08 -3.98244e-08 0)
(-1.17573e-08 -1.36909e-08 0)
(8.97305e-07 -3.32949e-07 0)
(1.37441e-06 1.07095e-06 0)
(5.98488e-07 2.76953e-06 0)
(-1.40004e-06 3.16136e-06 0)
(-3.7783e-06 2.82316e-06 0)
(-5.94642e-06 2.28095e-06 0)
(-7.74395e-06 1.71913e-06 0)
(-9.12387e-06 1.20968e-06 0)
(-1.00917e-05 7.64436e-07 0)
(-1.06774e-05 3.8216e-07 0)
(-1.09222e-05 5.80226e-08 0)
(-1.08655e-05 -2.18676e-07 0)
(-1.05423e-05 -4.53722e-07 0)
(-1.0003e-05 -6.50315e-07 0)
(-9.26432e-06 -8.13187e-07 0)
(-8.35759e-06 -9.454e-07 0)
(-7.32112e-06 -1.05429e-06 0)
(-6.16322e-06 -1.13564e-06 0)
(-4.91545e-06 -1.20053e-06 0)
(-3.59351e-06 -1.24429e-06 0)
(-2.20876e-06 -1.27546e-06 0)
(-7.83938e-07 -1.29262e-06 0)
(6.75707e-07 -1.30071e-06 0)
(2.16145e-06 -1.29845e-06 0)
(3.65607e-06 -1.2928e-06 0)
(5.16193e-06 -1.2804e-06 0)
(6.66808e-06 -1.26311e-06 0)
(8.16854e-06 -1.24475e-06 0)
(9.66348e-06 -1.22022e-06 0)
(1.11437e-05 -1.19328e-06 0)
(1.26061e-05 -1.16509e-06 0)
(1.40518e-05 -1.1335e-06 0)
(1.54749e-05 -1.10207e-06 0)
(1.68736e-05 -1.07183e-06 0)
(1.82504e-05 -1.04264e-06 0)
(1.96025e-05 -1.01246e-06 0)
(2.09294e-05 -9.87054e-07 0)
(2.2232e-05 -9.607e-07 0)
(2.35099e-05 -9.35346e-07 0)
(2.47617e-05 -9.11628e-07 0)
(2.59884e-05 -8.88584e-07 0)
(2.71899e-05 -8.64033e-07 0)
(2.83641e-05 -8.41293e-07 0)
(2.95118e-05 -8.19805e-07 0)
(3.06348e-05 -7.97411e-07 0)
(3.17301e-05 -7.76082e-07 0)
(3.27976e-05 -7.55529e-07 0)
(3.38407e-05 -7.35652e-07 0)
(3.48571e-05 -7.16215e-07 0)
(3.58459e-05 -6.9845e-07 0)
(3.68098e-05 -6.81362e-07 0)
(3.77484e-05 -6.63468e-07 0)
(3.86597e-05 -6.45598e-07 0)
(3.95449e-05 -6.28561e-07 0)
(4.0404e-05 -6.11216e-07 0)
(4.12351e-05 -5.92496e-07 0)
(4.20378e-05 -5.73395e-07 0)
(4.28116e-05 -5.53582e-07 0)
(4.35555e-05 -5.32445e-07 0)
(4.42702e-05 -5.11464e-07 0)
(4.4955e-05 -4.91289e-07 0)
(4.56096e-05 -4.71525e-07 0)
(4.62339e-05 -4.50263e-07 0)
(4.68276e-05 -4.28522e-07 0)
(4.73913e-05 -4.07527e-07 0)
(4.79252e-05 -3.87173e-07 0)
(4.84302e-05 -3.68555e-07 0)
(4.8905e-05 -3.50362e-07 0)
(4.93489e-05 -3.31844e-07 0)
(4.97617e-05 -3.11467e-07 0)
(5.01428e-05 -2.88725e-07 0)
(5.04928e-05 -2.65482e-07 0)
(5.0811e-05 -2.4183e-07 0)
(5.10968e-05 -2.18334e-07 0)
(5.13492e-05 -1.9459e-07 0)
(5.15674e-05 -1.70357e-07 0)
(5.17515e-05 -1.46177e-07 0)
(5.19011e-05 -1.21008e-07 0)
(5.20161e-05 -9.50638e-08 0)
(5.20972e-05 -6.87498e-08 0)
(5.2144e-05 -4.25516e-08 0)
(5.2156e-05 -1.74795e-08 0)
(5.21338e-05 6.79414e-09 0)
(5.20778e-05 3.12448e-08 0)
(5.19874e-05 5.62944e-08 0)
(5.18629e-05 8.17228e-08 0)
(5.17048e-05 1.07253e-07 0)
(5.1513e-05 1.32149e-07 0)
(5.12879e-05 1.55058e-07 0)
(5.10309e-05 1.76027e-07 0)
(5.07426e-05 1.96369e-07 0)
(5.04238e-05 2.16996e-07 0)
(5.00754e-05 2.37798e-07 0)
(4.96977e-05 2.57436e-07 0)
(4.9291e-05 2.74913e-07 0)
(4.88566e-05 2.90847e-07 0)
(4.83953e-05 3.06023e-07 0)
(4.79076e-05 3.21373e-07 0)
(4.73934e-05 3.3752e-07 0)
(4.68531e-05 3.53724e-07 0)
(4.62879e-05 3.69114e-07 0)
(4.56978e-05 3.82633e-07 0)
(4.50838e-05 3.93594e-07 0)
(4.44467e-05 4.03855e-07 0)
(4.37863e-05 4.15871e-07 0)
(4.31023e-05 4.30051e-07 0)
(4.23945e-05 4.45846e-07 0)
(4.16611e-05 4.62162e-07 0)
(4.09022e-05 4.77922e-07 0)
(4.01187e-05 4.93667e-07 0)
(3.93096e-05 5.1054e-07 0)
(3.84738e-05 5.29259e-07 0)
(3.76113e-05 5.50801e-07 0)
(3.67212e-05 5.75193e-07 0)
(3.58026e-05 6.00512e-07 0)
(3.4856e-05 6.24837e-07 0)
(3.38817e-05 6.47225e-07 0)
(3.28812e-05 6.67276e-07 0)
(3.18569e-05 6.85776e-07 0)
(3.08099e-05 7.04087e-07 0)
(2.97407e-05 7.22229e-07 0)
(2.86514e-05 7.39471e-07 0)
(2.75432e-05 7.55538e-07 0)
(2.64175e-05 7.69826e-07 0)
(2.52774e-05 7.8155e-07 0)
(2.41252e-05 7.90933e-07 0)
(2.29617e-05 7.98948e-07 0)
(2.17891e-05 8.06562e-07 0)
(2.06104e-05 8.14237e-07 0)
(1.94269e-05 8.21312e-07 0)
(1.82404e-05 8.26136e-07 0)
(1.70549e-05 8.26957e-07 0)
(1.58744e-05 8.2289e-07 0)
(1.47031e-05 8.14089e-07 0)
(1.35464e-05 8.00792e-07 0)
(1.24087e-05 7.83485e-07 0)
(1.12926e-05 7.6349e-07 0)
(1.02022e-05 7.41816e-07 0)
(9.14234e-06 7.18372e-07 0)
(8.11535e-06 6.92645e-07 0)
(7.12388e-06 6.64338e-07 0)
(6.17325e-06 6.32886e-07 0)
(5.26851e-06 5.9744e-07 0)
(4.41284e-06 5.58157e-07 0)
(3.61098e-06 5.15568e-07 0)
(2.86896e-06 4.69543e-07 0)
(2.19067e-06 4.19919e-07 0)
(1.5792e-06 3.66833e-07 0)
(1.0398e-06 3.10538e-07 0)
(5.78028e-07 2.50851e-07 0)
(1.96578e-07 1.8769e-07 0)
(-1.03215e-07 1.22052e-07 0)
(-3.18983e-07 5.60224e-08 0)
(-4.50087e-07 -7.8167e-09 0)
(-5.00489e-07 -6.67779e-08 0)
(-4.77769e-07 -1.16994e-07 0)
(-3.92859e-07 -1.5285e-07 0)
(-2.6428e-07 -1.65732e-07 0)
(-1.24616e-07 -1.40327e-07 0)
(-3.00016e-08 -5.77196e-08 0)
(1.34482e-06 -1.81509e-06 0)
(2.98545e-06 9.97311e-08 0)
(3.8759e-06 3.52558e-06 0)
(3.29601e-06 4.85774e-06 0)
(1.93175e-06 4.80131e-06 0)
(4.07473e-07 4.14363e-06 0)
(-1.01728e-06 3.28735e-06 0)
(-2.18261e-06 2.40166e-06 0)
(-3.02742e-06 1.57212e-06 0)
(-3.52736e-06 8.22269e-07 0)
(-3.69207e-06 1.59179e-07 0)
(-3.54694e-06 -4.19721e-07 0)
(-3.11922e-06 -9.18844e-07 0)
(-2.42969e-06 -1.35238e-06 0)
(-1.51943e-06 -1.71324e-06 0)
(-4.13623e-07 -2.02558e-06 0)
(8.75063e-07 -2.27752e-06 0)
(2.30757e-06 -2.48958e-06 0)
(3.87159e-06 -2.65552e-06 0)
(5.549e-06 -2.78922e-06 0)
(7.31605e-06 -2.88934e-06 0)
(9.16527e-06 -2.9662e-06 0)
(1.1078e-05 -3.01523e-06 0)
(1.30423e-05 -3.05024e-06 0)
(1.50526e-05 -3.06734e-06 0)
(1.70937e-05 -3.07013e-06 0)
(1.9157e-05 -3.0657e-06 0)
(2.12397e-05 -3.04694e-06 0)
(2.33314e-05 -3.02109e-06 0)
(2.54252e-05 -2.98839e-06 0)
(2.75202e-05 -2.94717e-06 0)
(2.9608e-05 -2.9013e-06 0)
(3.16845e-05 -2.85377e-06 0)
(3.37489e-05 -2.80229e-06 0)
(3.57957e-05 -2.75014e-06 0)
(3.78207e-05 -2.69907e-06 0)
(3.98248e-05 -2.6465e-06 0)
(4.18045e-05 -2.59379e-06 0)
(4.37544e-05 -2.54269e-06 0)
(4.56771e-05 -2.4902e-06 0)
(4.75698e-05 -2.4363e-06 0)
(4.94281e-05 -2.38408e-06 0)
(5.12531e-05 -2.32972e-06 0)
(5.30446e-05 -2.27577e-06 0)
(5.47979e-05 -2.22176e-06 0)
(5.6514e-05 -2.16916e-06 0)
(5.81925e-05 -2.11442e-06 0)
(5.98303e-05 -2.06158e-06 0)
(6.14283e-05 -2.01039e-06 0)
(6.29856e-05 -1.95856e-06 0)
(6.44998e-05 -1.90696e-06 0)
(6.59716e-05 -1.8559e-06 0)
(6.74012e-05 -1.80333e-06 0)
(6.87856e-05 -1.74947e-06 0)
(7.01243e-05 -1.695e-06 0)
(7.14191e-05 -1.63895e-06 0)
(7.26684e-05 -1.58143e-06 0)
(7.38697e-05 -1.52356e-06 0)
(7.50233e-05 -1.46428e-06 0)
(7.61296e-05 -1.40404e-06 0)
(7.71875e-05 -1.34449e-06 0)
(7.81969e-05 -1.28527e-06 0)
(7.91581e-05 -1.22575e-06 0)
(8.00692e-05 -1.16555e-06 0)
(8.09297e-05 -1.10518e-06 0)
(8.17404e-05 -1.04419e-06 0)
(8.25019e-05 -9.83204e-07 0)
(8.3214e-05 -9.23172e-07 0)
(8.38756e-05 -8.63444e-07 0)
(8.44862e-05 -8.03393e-07 0)
(8.50452e-05 -7.4147e-07 0)
(8.55523e-05 -6.77488e-07 0)
(8.60081e-05 -6.11845e-07 0)
(8.64122e-05 -5.44451e-07 0)
(8.67648e-05 -4.7651e-07 0)
(8.70651e-05 -4.08429e-07 0)
(8.7312e-05 -3.40511e-07 0)
(8.75058e-05 -2.72502e-07 0)
(8.76467e-05 -2.03402e-07 0)
(8.77347e-05 -1.33259e-07 0)
(8.77702e-05 -6.33405e-08 0)
(8.77528e-05 5.58327e-09 0)
(8.7682e-05 7.39851e-08 0)
(8.75584e-05 1.42186e-07 0)
(8.73822e-05 2.10323e-07 0)
(8.71531e-05 2.79072e-07 0)
(8.68725e-05 3.4771e-07 0)
(8.65411e-05 4.14691e-07 0)
(8.61575e-05 4.79321e-07 0)
(8.57219e-05 5.41514e-07 0)
(8.52356e-05 6.02333e-07 0)
(8.46995e-05 6.63096e-07 0)
(8.41143e-05 7.23435e-07 0)
(8.34807e-05 7.81952e-07 0)
(8.27986e-05 8.37612e-07 0)
(8.20685e-05 8.90906e-07 0)
(8.12902e-05 9.43088e-07 0)
(8.04645e-05 9.94617e-07 0)
(7.95926e-05 1.04628e-06 0)
(7.86751e-05 1.09826e-06 0)
(7.77137e-05 1.1486e-06 0)
(7.67077e-05 1.19609e-06 0)
(7.56556e-05 1.24129e-06 0)
(7.45591e-05 1.28527e-06 0)
(7.34192e-05 1.33039e-06 0)
(7.22352e-05 1.3784e-06 0)
(7.10086e-05 1.42809e-06 0)
(6.97398e-05 1.47806e-06 0)
(6.84279e-05 1.52817e-06 0)
(6.70737e-05 1.57799e-06 0)
(6.56772e-05 1.62835e-06 0)
(6.42375e-05 1.68129e-06 0)
(6.27568e-05 1.73722e-06 0)
(6.12371e-05 1.79546e-06 0)
(5.96781e-05 1.85478e-06 0)
(5.80811e-05 1.91228e-06 0)
(5.64475e-05 1.96575e-06 0)
(5.47771e-05 2.01583e-06 0)
(5.30724e-05 2.06325e-06 0)
(5.13364e-05 2.10806e-06 0)
(4.957e-05 2.15098e-06 0)
(4.77756e-05 2.19175e-06 0)
(4.59576e-05 2.22874e-06 0)
(4.41176e-05 2.26148e-06 0)
(4.22575e-05 2.28984e-06 0)
(4.03808e-05 2.31296e-06 0)
(3.84903e-05 2.33147e-06 0)
(3.65887e-05 2.34737e-06 0)
(3.46811e-05 2.36062e-06 0)
(3.2772e-05 2.36953e-06 0)
(3.08642e-05 2.37261e-06 0)
(2.89624e-05 2.3681e-06 0)
(2.70725e-05 2.354e-06 0)
(2.51988e-05 2.32971e-06 0)
(2.33453e-05 2.29614e-06 0)
(2.15181e-05 2.25423e-06 0)
(1.97233e-05 2.20457e-06 0)
(1.7966e-05 2.1482e-06 0)
(1.62521e-05 2.08576e-06 0)
(1.45885e-05 2.01634e-06 0)
(1.29811e-05 1.93872e-06 0)
(1.14349e-05 1.85242e-06 0)
(9.95695e-06 1.75716e-06 0)
(8.55442e-06 1.65257e-06 0)
(7.23377e-06 1.53862e-06 0)
(6.00091e-06 1.41548e-06 0)
(4.86259e-06 1.28318e-06 0)
(3.82595e-06 1.1419e-06 0)
(2.89717e-06 9.92241e-07 0)
(2.08139e-06 8.34782e-07 0)
(1.38279e-06 6.70398e-07 0)
(8.04867e-07 5.01171e-07 0)
(3.49963e-07 3.30696e-07 0)
(1.77792e-08 1.63984e-07 0)
(-1.95188e-07 7.75754e-09 0)
(-2.97055e-07 -1.2929e-07 0)
(-3.01685e-07 -2.3484e-07 0)
(-2.31143e-07 -2.90066e-07 0)
(-1.20421e-07 -2.67423e-07 0)
(-3.05892e-08 -1.28148e-07 0)
(1.29398e-06 -3.84662e-06 0)
(3.3178e-06 -2.03214e-06 0)
(5.15442e-06 2.81894e-06 0)
(5.75773e-06 5.26207e-06 0)
(5.47231e-06 5.77714e-06 0)
(4.81555e-06 5.30165e-06 0)
(4.06331e-06 4.36728e-06 0)
(3.39874e-06 3.2647e-06 0)
(2.944e-06 2.14479e-06 0)
(2.75119e-06 1.08046e-06 0)
(2.84563e-06 1.03057e-07 0)
(3.23135e-06 -7.73303e-07 0)
(3.89376e-06 -1.55198e-06 0)
(4.81178e-06 -2.22957e-06 0)
(5.97105e-06 -2.82554e-06 0)
(7.3511e-06 -3.33101e-06 0)
(8.92006e-06 -3.76689e-06 0)
(1.06675e-05 -4.13211e-06 0)
(1.25706e-05 -4.4373e-06 0)
(1.46088e-05 -4.68815e-06 0)
(1.67719e-05 -4.89444e-06 0)
(1.90366e-05 -5.05496e-06 0)
(2.13923e-05 -5.18285e-06 0)
(2.38261e-05 -5.27776e-06 0)
(2.63258e-05 -5.34407e-06 0)
(2.88775e-05 -5.39096e-06 0)
(3.14742e-05 -5.4143e-06 0)
(3.41055e-05 -5.41972e-06 0)
(3.67608e-05 -5.4105e-06 0)
(3.9436e-05 -5.3855e-06 0)
(4.21224e-05 -5.3472e-06 0)
(4.48131e-05 -5.30155e-06 0)
(4.75038e-05 -5.2449e-06 0)
(5.01884e-05 -5.18204e-06 0)
(5.28597e-05 -5.11551e-06 0)
(5.55154e-05 -5.04414e-06 0)
(5.81514e-05 -4.96753e-06 0)
(6.07595e-05 -4.89036e-06 0)
(6.33396e-05 -4.80874e-06 0)
(6.58891e-05 -4.72403e-06 0)
(6.84007e-05 -4.63696e-06 0)
(7.08754e-05 -4.54763e-06 0)
(7.33097e-05 -4.45448e-06 0)
(7.56993e-05 -4.36012e-06 0)
(7.80437e-05 -4.26485e-06 0)
(8.03413e-05 -4.16594e-06 0)
(8.25889e-05 -4.06753e-06 0)
(8.47836e-05 -3.96842e-06 0)
(8.69267e-05 -3.86756e-06 0)
(8.90144e-05 -3.76695e-06 0)
(9.10447e-05 -3.66597e-06 0)
(9.30184e-05 -3.56295e-06 0)
(9.49332e-05 -3.45899e-06 0)
(9.67867e-05 -3.35361e-06 0)
(9.85791e-05 -3.24497e-06 0)
(0.00010031 -3.13386e-06 0)
(0.000101977 -3.02166e-06 0)
(0.000103582 -2.90792e-06 0)
(0.000105122 -2.79191e-06 0)
(0.000106597 -2.67469e-06 0)
(0.000108004 -2.55669e-06 0)
(0.000109347 -2.43772e-06 0)
(0.000110624 -2.31921e-06 0)
(0.000111833 -2.20137e-06 0)
(0.000112974 -2.08318e-06 0)
(0.000114047 -1.96355e-06 0)
(0.000115051 -1.84258e-06 0)
(0.000115985 -1.72124e-06 0)
(0.00011685 -1.59955e-06 0)
(0.000117646 -1.47788e-06 0)
(0.000118374 -1.35547e-06 0)
(0.00011903 -1.23118e-06 0)
(0.000119617 -1.10498e-06 0)
(0.000120134 -9.76396e-07 0)
(0.00012058 -8.46266e-07 0)
(0.000120957 -7.16065e-07 0)
(0.000121262 -5.85787e-07 0)
(0.000121497 -4.5503e-07 0)
(0.000121662 -3.23769e-07 0)
(0.000121756 -1.92131e-07 0)
(0.00012178 -6.02996e-08 0)
(0.000121733 7.0999e-08 0)
(0.000121615 2.01489e-07 0)
(0.000121427 3.31833e-07 0)
(0.000121168 4.61882e-07 0)
(0.000120839 5.91642e-07 0)
(0.000120442 7.21274e-07 0)
(0.000119975 8.49229e-07 0)
(0.000119438 9.74198e-07 0)
(0.000118832 1.09683e-06 0)
(0.000118157 1.21807e-06 0)
(0.000117413 1.3382e-06 0)
(0.000116602 1.45686e-06 0)
(0.000115724 1.57354e-06 0)
(0.000114778 1.68771e-06 0)
(0.000113766 1.79904e-06 0)
(0.000112686 1.90851e-06 0)
(0.000111539 2.01701e-06 0)
(0.000110328 2.12461e-06 0)
(0.000109053 2.23156e-06 0)
(0.000107713 2.33695e-06 0)
(0.000106311 2.43914e-06 0)
(0.000104843 2.53873e-06 0)
(0.000103312 2.63763e-06 0)
(0.000101719 2.73675e-06 0)
(0.000100064 2.83693e-06 0)
(9.8348e-05 2.93837e-06 0)
(9.65733e-05 3.03983e-06 0)
(9.47397e-05 3.14093e-06 0)
(9.28475e-05 3.24195e-06 0)
(9.08976e-05 3.34256e-06 0)
(8.88907e-05 3.4438e-06 0)
(8.68294e-05 3.54709e-06 0)
(8.47172e-05 3.65122e-06 0)
(8.25551e-05 3.75402e-06 0)
(8.03439e-05 3.85404e-06 0)
(7.80859e-05 3.94932e-06 0)
(7.57831e-05 4.03895e-06 0)
(7.3437e-05 4.12402e-06 0)
(7.105e-05 4.20446e-06 0)
(6.86258e-05 4.27926e-06 0)
(6.61677e-05 4.34881e-06 0)
(6.36795e-05 4.41273e-06 0)
(6.11647e-05 4.469e-06 0)
(5.86259e-05 4.51695e-06 0)
(5.60663e-05 4.55712e-06 0)
(5.34907e-05 4.58922e-06 0)
(5.09042e-05 4.61332e-06 0)
(4.83118e-05 4.62987e-06 0)
(4.57191e-05 4.63772e-06 0)
(4.31318e-05 4.63432e-06 0)
(4.05556e-05 4.61776e-06 0)
(3.79956e-05 4.58719e-06 0)
(3.54576e-05 4.54166e-06 0)
(3.29483e-05 4.48042e-06 0)
(3.04734e-05 4.40425e-06 0)
(2.8039e-05 4.31441e-06 0)
(2.56542e-05 4.2111e-06 0)
(2.33278e-05 4.09414e-06 0)
(2.10658e-05 3.96304e-06 0)
(1.88757e-05 3.81667e-06 0)
(1.67676e-05 3.6541e-06 0)
(1.47498e-05 3.4752e-06 0)
(1.28286e-05 3.27985e-06 0)
(1.10124e-05 3.06744e-06 0)
(9.31116e-06 2.83795e-06 0)
(7.73262e-06 2.59206e-06 0)
(6.28377e-06 2.33035e-06 0)
(4.97291e-06 2.05355e-06 0)
(3.80748e-06 1.76293e-06 0)
(2.79157e-06 1.46094e-06 0)
(1.92796e-06 1.15161e-06 0)
(1.22018e-06 8.4038e-07 0)
(6.69274e-07 5.34919e-07 0)
(2.70248e-07 2.45686e-07 0)
(1.33704e-08 -1.28815e-08 0)
(-1.14332e-07 -2.21125e-07 0)
(-1.35828e-07 -3.50269e-07 0)
(-8.65164e-08 -3.59059e-07 0)
(-2.45621e-08 -1.87921e-07 0)
(1.065e-06 -5.75165e-06 0)
(2.96536e-06 -4.55665e-06 0)
(5.14797e-06 1.24555e-06 0)
(6.46772e-06 4.62553e-06 0)
(7.01261e-06 5.75212e-06 0)
(7.15346e-06 5.59145e-06 0)
(7.09684e-06 4.7285e-06 0)
(7.03338e-06 3.54219e-06 0)
(7.08052e-06 2.23368e-06 0)
(7.32125e-06 9.27943e-07 0)
(7.80145e-06 -3.13196e-07 0)
(8.53434e-06 -1.46211e-06 0)
(9.52916e-06 -2.50075e-06 0)
(1.07793e-05 -3.43223e-06 0)
(1.22686e-05 -4.25232e-06 0)
(1.39824e-05 -4.97433e-06 0)
(1.59084e-05 -5.60263e-06 0)
(1.80233e-05 -6.14035e-06 0)
(2.03115e-05 -6.60372e-06 0)
(2.27569e-05 -6.99346e-06 0)
(2.53419e-05 -7.32016e-06 0)
(2.80539e-05 -7.59241e-06 0)
(3.08715e-05 -7.81255e-06 0)
(3.37887e-05 -7.98832e-06 0)
(3.67868e-05 -8.12575e-06 0)
(3.98548e-05 -8.22824e-06 0)
(4.29828e-05 -8.29821e-06 0)
(4.61568e-05 -8.3431e-06 0)
(4.93697e-05 -8.36127e-06 0)
(5.26125e-05 -8.35578e-06 0)
(5.58741e-05 -8.33343e-06 0)
(5.9149e-05 -8.29179e-06 0)
(6.24309e-05 -8.23444e-06 0)
(6.57087e-05 -8.16695e-06 0)
(6.89784e-05 -8.08682e-06 0)
(7.22348e-05 -7.9961e-06 0)
(7.54688e-05 -7.89903e-06 0)
(7.86769e-05 -7.79367e-06 0)
(8.18536e-05 -7.67924e-06 0)
(8.4994e-05 -7.55957e-06 0)
(8.80944e-05 -7.43426e-06 0)
(9.11502e-05 -7.29975e-06 0)
(9.41584e-05 -7.16366e-06 0)
(9.71145e-05 -7.0197e-06 0)
(0.000100017 -6.87239e-06 0)
(0.000102862 -6.72019e-06 0)
(0.000105646 -6.56572e-06 0)
(0.000108368 -6.40736e-06 0)
(0.000111024 -6.24643e-06 0)
(0.000113611 -6.0831e-06 0)
(0.00011613 -5.91657e-06 0)
(0.000118576 -5.74744e-06 0)
(0.00012095 -5.57647e-06 0)
(0.000123248 -5.40228e-06 0)
(0.00012547 -5.22453e-06 0)
(0.000127615 -5.0437e-06 0)
(0.00012968 -4.85971e-06 0)
(0.000131668 -4.67296e-06 0)
(0.000133574 -4.48464e-06 0)
(0.000135399 -4.2947e-06 0)
(0.000137142 -4.10222e-06 0)
(0.000138802 -3.90738e-06 0)
(0.000140378 -3.71195e-06 0)
(0.000141869 -3.51645e-06 0)
(0.000143277 -3.32073e-06 0)
(0.0001446 -3.12496e-06 0)
(0.000145836 -2.92809e-06 0)
(0.000146986 -2.72961e-06 0)
(0.000148049 -2.52925e-06 0)
(0.000149024 -2.32767e-06 0)
(0.000149913 -2.12556e-06 0)
(0.000150714 -1.92195e-06 0)
(0.000151428 -1.7168e-06 0)
(0.000152056 -1.51023e-06 0)
(0.000152596 -1.30199e-06 0)
(0.000153048 -1.09292e-06 0)
(0.000153413 -8.83238e-07 0)
(0.00015369 -6.72724e-07 0)
(0.000153879 -4.61623e-07 0)
(0.000153981 -2.50722e-07 0)
(0.000153997 -4.00362e-08 0)
(0.000153924 1.7067e-07 0)
(0.000153763 3.80436e-07 0)
(0.000153516 5.89346e-07 0)
(0.00015318 7.98369e-07 0)
(0.000152758 1.007e-06 0)
(0.000152251 1.21445e-06 0)
(0.000151657 1.42021e-06 0)
(0.000150975 1.62348e-06 0)
(0.000150207 1.82434e-06 0)
(0.000149353 2.02339e-06 0)
(0.000148413 2.22078e-06 0)
(0.000147389 2.41604e-06 0)
(0.000146279 2.60881e-06 0)
(0.000145085 2.79924e-06 0)
(0.000143806 2.98699e-06 0)
(0.000142442 3.17187e-06 0)
(0.000140993 3.35521e-06 0)
(0.000139463 3.53753e-06 0)
(0.000137851 3.71793e-06 0)
(0.000136157 3.8959e-06 0)
(0.000134382 4.07101e-06 0)
(0.000132525 4.24329e-06 0)
(0.000130588 4.41421e-06 0)
(0.000128572 4.58468e-06 0)
(0.000126477 4.75436e-06 0)
(0.000124306 4.92372e-06 0)
(0.00012206 5.09275e-06 0)
(0.000119741 5.26026e-06 0)
(0.000117348 5.42618e-06 0)
(0.000114882 5.59098e-06 0)
(0.000112348 5.75443e-06 0)
(0.000109747 5.917e-06 0)
(0.000107083 6.0784e-06 0)
(0.000104357 6.23604e-06 0)
(0.000101572 6.38812e-06 0)
(9.87301e-05 6.53429e-06 0)
(9.58337e-05 6.67316e-06 0)
(9.2886e-05 6.80368e-06 0)
(8.98895e-05 6.92639e-06 0)
(8.68477e-05 7.04088e-06 0)
(8.37664e-05 7.14578e-06 0)
(8.06495e-05 7.24066e-06 0)
(7.75e-05 7.32485e-06 0)
(7.43226e-05 7.3967e-06 0)
(7.11225e-05 7.45546e-06 0)
(6.79035e-05 7.50163e-06 0)
(6.46723e-05 7.53515e-06 0)
(6.14365e-05 7.5546e-06 0)
(5.82019e-05 7.55835e-06 0)
(5.49735e-05 7.54516e-06 0)
(5.17599e-05 7.51322e-06 0)
(4.8569e-05 7.46058e-06 0)
(4.54052e-05 7.38635e-06 0)
(4.22752e-05 7.29002e-06 0)
(3.91887e-05 7.17125e-06 0)
(3.61543e-05 7.03052e-06 0)
(3.31794e-05 6.86819e-06 0)
(3.02739e-05 6.68349e-06 0)
(2.74479e-05 6.47533e-06 0)
(2.47104e-05 6.24313e-06 0)
(2.2071e-05 5.9863e-06 0)
(1.95401e-05 5.70392e-06 0)
(1.71271e-05 5.39549e-06 0)
(1.48411e-05 5.06106e-06 0)
(1.26921e-05 4.70082e-06 0)
(1.06899e-05 4.31536e-06 0)
(8.84402e-06 3.90576e-06 0)
(7.1626e-06 3.47368e-06 0)
(5.6528e-06 3.02137e-06 0)
(4.32066e-06 2.55236e-06 0)
(3.17058e-06 2.0724e-06 0)
(2.20519e-06 1.58979e-06 0)
(1.42433e-06 1.11548e-06 0)
(8.24218e-07 6.63564e-07 0)
(3.95853e-07 2.53625e-07 0)
(1.2538e-07 -8.65055e-08 0)
(-9.41504e-09 -3.20009e-07 0)
(-3.96595e-08 -3.93173e-07 0)
(-1.61048e-08 -2.2562e-07 0)
(8.26212e-07 -7.28894e-06 0)
(2.43773e-06 -6.92193e-06 0)
(4.6161e-06 -6.21521e-07 0)
(6.30858e-06 3.40529e-06 0)
(7.43188e-06 5.05217e-06 0)
(8.21332e-06 5.19554e-06 0)
(8.79815e-06 4.47111e-06 0)
(9.32866e-06 3.2621e-06 0)
(9.91942e-06 1.83587e-06 0)
(1.0655e-05 3.43761e-07 0)
(1.15812e-05 -1.12711e-06 0)
(1.27381e-05 -2.51801e-06 0)
(1.41344e-05 -3.808e-06 0)
(1.57713e-05 -4.98303e-06 0)
(1.76485e-05 -6.03826e-06 0)
(1.97529e-05 -6.98302e-06 0)
(2.20733e-05 -7.81093e-06 0)
(2.45943e-05 -8.54423e-06 0)
(2.72998e-05 -9.17584e-06 0)
(3.01765e-05 -9.72411e-06 0)
(3.32068e-05 -1.01908e-05 0)
(3.63747e-05 -1.05879e-05 0)
(3.96688e-05 -1.09183e-05 0)
(4.30703e-05 -1.1191e-05 0)
(4.65684e-05 -1.14133e-05 0)
(5.01495e-05 -1.1584e-05 0)
(5.37988e-05 -1.17163e-05 0)
(5.75067e-05 -1.18081e-05 0)
(6.12638e-05 -1.18641e-05 0)
(6.50547e-05 -1.18897e-05 0)
(6.88732e-05 -1.18862e-05 0)
(7.27125e-05 -1.18559e-05 0)
(7.65573e-05 -1.18042e-05 0)
(8.04042e-05 -1.17317e-05 0)
(8.42461e-05 -1.16396e-05 0)
(8.80704e-05 -1.15329e-05 0)
(9.1874e-05 -1.1411e-05 0)
(9.56505e-05 -1.12739e-05 0)
(9.93913e-05 -1.11264e-05 0)
(0.000103091 -1.09655e-05 0)
(0.000106748 -1.07937e-05 0)
(0.000110352 -1.06119e-05 0)
(0.000113902 -1.04207e-05 0)
(0.000117393 -1.02207e-05 0)
(0.000120821 -1.00122e-05 0)
(0.000124182 -9.79735e-06 0)
(0.000127472 -9.57473e-06 0)
(0.000130689 -9.34655e-06 0)
(0.000133829 -9.11449e-06 0)
(0.00013689 -8.87611e-06 0)
(0.000139868 -8.63208e-06 0)
(0.000142761 -8.38422e-06 0)
(0.000145568 -8.13143e-06 0)
(0.000148287 -7.87383e-06 0)
(0.000150915 -7.61222e-06 0)
(0.000153451 -7.34627e-06 0)
(0.000155895 -7.07549e-06 0)
(0.000158243 -6.80082e-06 0)
(0.000160497 -6.52366e-06 0)
(0.000162654 -6.24381e-06 0)
(0.000164714 -5.96146e-06 0)
(0.000166676 -5.67683e-06 0)
(0.000168537 -5.39004e-06 0)
(0.000170298 -5.10126e-06 0)
(0.000171959 -4.81071e-06 0)
(0.000173518 -4.51977e-06 0)
(0.000174976 -4.22817e-06 0)
(0.000176331 -3.93537e-06 0)
(0.000177583 -3.64108e-06 0)
(0.000178731 -3.34478e-06 0)
(0.000179776 -3.04689e-06 0)
(0.000180717 -2.74719e-06 0)
(0.000181554 -2.44554e-06 0)
(0.000182289 -2.14281e-06 0)
(0.000182919 -1.83926e-06 0)
(0.000183446 -1.53481e-06 0)
(0.000183869 -1.22934e-06 0)
(0.000184188 -9.23225e-07 0)
(0.000184404 -6.16607e-07 0)
(0.000184515 -3.09573e-07 0)
(0.000184524 -2.93929e-09 0)
(0.000184429 3.03232e-07 0)
(0.000184229 6.08902e-07 0)
(0.000183926 9.13501e-07 0)
(0.000183521 1.21764e-06 0)
(0.000183012 1.52144e-06 0)
(0.0001824 1.82368e-06 0)
(0.000181686 2.12368e-06 0)
(0.000180868 2.42152e-06 0)
(0.000179948 2.71741e-06 0)
(0.000178926 3.01106e-06 0)
(0.000177801 3.30221e-06 0)
(0.000176575 3.59121e-06 0)
(0.000175247 3.87769e-06 0)
(0.000173818 4.16102e-06 0)
(0.000172288 4.44151e-06 0)
(0.000170656 4.71914e-06 0)
(0.000168925 4.99422e-06 0)
(0.000167094 5.26761e-06 0)
(0.000165166 5.53861e-06 0)
(0.000163139 5.80611e-06 0)
(0.000161015 6.07045e-06 0)
(0.000158794 6.33196e-06 0)
(0.000156477 6.59071e-06 0)
(0.000154065 6.84759e-06 0)
(0.00015156 7.1027e-06 0)
(0.000148964 7.35556e-06 0)
(0.000146279 7.60644e-06 0)
(0.000143505 7.85471e-06 0)
(0.000140645 8.09918e-06 0)
(0.000137701 8.34041e-06 0)
(0.000134674 8.57884e-06 0)
(0.000131569 8.8132e-06 0)
(0.000128389 9.04261e-06 0)
(0.000125136 9.26618e-06 0)
(0.000121814 9.48165e-06 0)
(0.000118426 9.68758e-06 0)
(0.000114974 9.88375e-06 0)
(0.000111462 1.00689e-05 0)
(0.000107894 1.02414e-05 0)
(0.000104274 1.04013e-05 0)
(0.000100607 1.05483e-05 0)
(9.68992e-05 1.06806e-05 0)
(9.31548e-05 1.07963e-05 0)
(8.93775e-05 1.08949e-05 0)
(8.5574e-05 1.09757e-05 0)
(8.17516e-05 1.10376e-05 0)
(7.79162e-05 1.10799e-05 0)
(7.40741e-05 1.11015e-05 0)
(7.02339e-05 1.11005e-05 0)
(6.64039e-05 1.10748e-05 0)
(6.25912e-05 1.10233e-05 0)
(5.88032e-05 1.0944e-05 0)
(5.50484e-05 1.08349e-05 0)
(5.13354e-05 1.06955e-05 0)
(4.76728e-05 1.05256e-05 0)
(4.40702e-05 1.03244e-05 0)
(4.05384e-05 1.00912e-05 0)
(3.70881e-05 9.82565e-06 0)
(3.37289e-05 9.52681e-06 0)
(3.04719e-05 9.19335e-06 0)
(2.73293e-05 8.82465e-06 0)
(2.43122e-05 8.42031e-06 0)
(2.14299e-05 7.97971e-06 0)
(1.86936e-05 7.50235e-06 0)
(1.61157e-05 6.98867e-06 0)
(1.37063e-05 6.44021e-06 0)
(1.14746e-05 5.85872e-06 0)
(9.43037e-06 5.24619e-06 0)
(7.58235e-06 4.60612e-06 0)
(5.93626e-06 3.94398e-06 0)
(4.49662e-06 3.26734e-06 0)
(3.26758e-06 2.5867e-06 0)
(2.24959e-06 1.91581e-06 0)
(1.43757e-06 1.27397e-06 0)
(8.23722e-07 6.85393e-07 0)
(3.96465e-07 1.83843e-07 0)
(1.34903e-07 -1.8545e-07 0)
(1.36996e-08 -3.58908e-07 0)
(-6.81369e-09 -2.36969e-07 0)
(6.19963e-07 -8.48178e-06 0)
(1.91239e-06 -8.99561e-06 0)
(3.92917e-06 -2.55851e-06 0)
(5.7771e-06 1.84234e-06 0)
(7.27037e-06 3.82986e-06 0)
(8.54723e-06 4.22826e-06 0)
(9.67353e-06 3.62041e-06 0)
(1.07514e-05 2.42346e-06 0)
(1.18786e-05 9.12238e-07 0)
(1.31142e-05 -7.35445e-07 0)
(1.45238e-05 -2.39603e-06 0)
(1.61343e-05 -4.01174e-06 0)
(1.79663e-05 -5.53644e-06 0)
(2.00362e-05 -6.94408e-06 0)
(2.23313e-05 -8.23707e-06 0)
(2.48571e-05 -9.39718e-06 0)
(2.76008e-05 -1.04437e-05 0)
(3.0548e-05 -1.13681e-05 0)
(3.36922e-05 -1.21861e-05 0)
(3.70112e-05 -1.28997e-05 0)
(4.04949e-05 -1.35209e-05 0)
(4.41294e-05 -1.40525e-05 0)
(4.78953e-05 -1.45069e-05 0)
(5.17803e-05 -1.48885e-05 0)
(5.57739e-05 -1.52014e-05 0)
(5.98563e-05 -1.54571e-05 0)
(6.40159e-05 -1.56565e-05 0)
(6.8244e-05 -1.58034e-05 0)
(7.25234e-05 -1.59067e-05 0)
(7.68459e-05 -1.59675e-05 0)
(8.12005e-05 -1.59869e-05 0)
(8.55751e-05 -1.59735e-05 0)
(8.99622e-05 -1.59288e-05 0)
(9.43518e-05 -1.58515e-05 0)
(9.87333e-05 -1.57511e-05 0)
(0.0001031 -1.56255e-05 0)
(0.000107445 -1.5476e-05 0)
(0.000111756 -1.53082e-05 0)
(0.00011603 -1.512e-05 0)
(0.000120262 -1.49146e-05 0)
(0.000124441 -1.46911e-05 0)
(0.000128563 -1.44553e-05 0)
(0.000132624 -1.4201e-05 0)
(0.000136619 -1.39371e-05 0)
(0.000140542 -1.36592e-05 0)
(0.000144389 -1.33704e-05 0)
(0.000148157 -1.30715e-05 0)
(0.000151839 -1.27629e-05 0)
(0.000155435 -1.24453e-05 0)
(0.000158942 -1.21205e-05 0)
(0.000162353 -1.17882e-05 0)
(0.000165667 -1.14484e-05 0)
(0.000168884 -1.11011e-05 0)
(0.000171999 -1.07477e-05 0)
(0.000175009 -1.03882e-05 0)
(0.000177916 -1.00227e-05 0)
(0.000180716 -9.65177e-06 0)
(0.000183407 -9.27554e-06 0)
(0.000185988 -8.89468e-06 0)
(0.000188459 -8.50923e-06 0)
(0.000190819 -8.1207e-06 0)
(0.000193065 -7.72997e-06 0)
(0.000195197 -7.33653e-06 0)
(0.000197215 -6.94051e-06 0)
(0.000199116 -6.54166e-06 0)
(0.0002009 -6.14064e-06 0)
(0.000202567 -5.73801e-06 0)
(0.000204117 -5.33374e-06 0)
(0.000205549 -4.92838e-06 0)
(0.000206862 -4.52149e-06 0)
(0.000208056 -4.11257e-06 0)
(0.000209131 -3.70153e-06 0)