/*--------------------------------*- C++ -*----------------------------------*\
  =========                 |
  \\      /  F ield         | OpenFOAM: The Open Source CFD Toolbox
   \\    /   O peration     | Website:  https://openfoam.org
    \\  /    A nd           | Version:  7
     \\/     M anipulation  |
\*---------------------------------------------------------------------------*/
FoamFile
{
    version     2.0;
    format      ascii;
    class       volScalarField;
    location    "0.2875";
    object      p;
}
// * * * * * * * * * * * * * * * * * * * * * * * * * * * * * * * * * * * * * //

dimensions      [0 2 -2 0 0 0 0];

internalField   nonuniform List<scalar> 
12800
(
1.86609e-06
0.000185663
-0.00089789
-0.00334082
-0.00689794
-0.0113221
-0.0163803
-0.0218587
-0.0275707
-0.0333562
-0.0390789
-0.0446235
-0.0498926
-0.0548048
-0.0592919
-0.0632982
-0.0667777
-0.0696938
-0.0720178
-0.0737277
-0.0748077
-0.0752475
-0.0750411
-0.0741872
-0.0726874
-0.0705468
-0.0677732
-0.0643763
-0.0603682
-0.0557622
-0.0505735
-0.044818
-0.0385127
-0.0316751
-0.0243235
-0.0164763
-0.00815221
0.000630063
0.00985177
0.0194943
0.0295394
0.0399688
0.0507651
0.0619109
0.0733893
0.0851843
0.0972799
0.109661
0.122313
0.135222
0.148375
0.161758
0.175361
0.18917
0.203176
0.217368
0.231736
0.246272
0.260966
0.275812
0.2908
0.305925
0.321179
0.336558
0.352054
0.367664
0.383382
0.399204
0.415126
0.431144
0.447255
0.463455
0.479742
0.496113
0.512566
0.529097
0.545705
0.562387
0.579142
0.595966
0.612859
0.629817
0.646839
0.663922
0.681064
0.698261
0.715511
0.732811
0.750157
0.767545
0.784971
0.802431
0.819919
0.837429
0.854957
0.872494
0.890033
0.907567
0.925087
0.942583
0.960045
0.977462
0.994822
1.01211
1.02932
1.04643
1.06343
1.08029
1.09701
1.11356
1.12993
1.14609
1.16202
1.1777
1.19311
1.20822
1.22301
1.23745
1.25151
1.26517
1.2784
1.29118
1.30346
1.31523
1.32645
1.33711
1.34716
1.35658
1.36534
1.37343
1.38081
1.38746
1.39337
1.39851
1.40286
1.40642
1.40917
1.41111
1.41224
1.41256
1.41207
1.4108
1.40876
1.40599
1.40251
1.39838
1.39364
1.38838
1.38266
1.3766
1.37029
1.36387
1.3575
1.35136
1.34567
1.34067
1.33662
1.33381
1.33253
1.3327
-0.00017836
5.91422e-06
-0.000996128
-0.00312759
-0.00616466
-0.00993194
-0.0142557
-0.0189652
-0.0239037
-0.0289322
-0.0339285
-0.0387866
-0.0434152
-0.0477363
-0.051684
-0.0552031
-0.0582478
-0.0607803
-0.0627707
-0.0641952
-0.0650363
-0.0652813
-0.0649222
-0.0639551
-0.0623794
-0.0601977
-0.0574153
-0.0540397
-0.0500804
-0.0455487
-0.0404574
-0.0348202
-0.0286522
-0.0219688
-0.0147864
-0.00712165
0.00100853
0.00958696
0.0185965
0.0280198
0.03784
0.0480402
0.0586039
0.0695149
0.0807573
0.0923157
0.104175
0.116321
0.12874
0.141418
0.154342
0.167501
0.180881
0.194473
0.208265
0.222247
0.236411
0.250746
0.265244
0.279898
0.294699
0.309641
0.324718
0.339922
0.355249
0.370692
0.386248
0.401911
0.417677
0.433542
0.449503
0.465555
0.481696
0.497922
0.514231
0.53062
0.547086
0.563626
0.580238
0.59692
0.613668
0.630481
0.647355
0.664288
0.681276
0.698318
0.715408
0.732544
0.749722
0.766937
0.784185
0.801461
0.818759
0.836074
0.853399
0.870727
0.88805
0.90536
0.922649
0.939906
0.957122
0.974284
0.991382
1.0084
1.02533
1.04216
1.05886
1.07543
1.09184
1.10808
1.12413
1.13996
1.15557
1.17092
1.186
1.20077
1.21523
1.22933
1.24307
1.2564
1.26931
1.28176
1.29374
1.30522
1.31616
1.32654
1.33635
1.34554
1.3541
1.362
1.36923
1.37576
1.38157
1.38665
1.39099
1.39457
1.39739
1.39945
1.40074
1.40127
1.40105
1.4001
1.39844
1.39611
1.39313
1.38955
1.38544
1.38086
1.37588
1.3706
1.36512
1.35957
1.35409
1.34884
1.34399
1.33974
1.3363
1.33387
1.33269
1.33286
0.000907231
0.00101074
7.67352e-06
-0.00197597
-0.004725
-0.00809728
-0.0119527
-0.0161492
-0.0205536
-0.0250445
-0.029513
-0.0338625
-0.0380088
-0.0418786
-0.0454092
-0.0485471
-0.0512477
-0.0534736
-0.0551943
-0.0563857
-0.057029
-0.0571105
-0.0566208
-0.0555542
-0.0539087
-0.0516851
-0.048887
-0.0455199
-0.0415919
-0.0371124
-0.0320923
-0.026544
-0.0204806
-0.0139163
-0.00686572
0.000655879
0.00863288
0.0170494
0.0258896
0.0351373
0.0447766
0.0547918
0.0651672
0.0758874
0.0869375
0.0983027
0.109969
0.121922
0.134148
0.146636
0.159371
0.172343
0.185539
0.19895
0.212564
0.226371
0.240362
0.254529
0.268863
0.283355
0.297998
0.312786
0.327711
0.342768
0.35795
0.373252
0.388669
0.404196
0.419828
0.435562
0.451393
0.467318
0.483333
0.499434
0.515619
0.531885
0.548227
0.564645
0.581134
0.597691
0.614315
0.631001
0.647748
0.664551
0.681408
0.698314
0.715267
0.732263
0.749296
0.766363
0.783459
0.800578
0.817715
0.834863
0.852017
0.869167
0.886308
0.90343
0.920524
0.937581
0.954591
0.971541
0.988421
1.00522
1.02192
1.0385
1.05497
1.07129
1.08745
1.10343
1.11922
1.13479
1.15013
1.16521
1.18002
1.19453
1.20871
1.22255
1.23602
1.24909
1.26174
1.27395
1.28568
1.29693
1.30765
1.31782
1.32743
1.33645
1.34485
1.35262
1.35973
1.36617
1.37192
1.37696
1.3813
1.38491
1.38779
1.38994
1.39137
1.39208
1.39208
1.39139
1.39004
1.38805
1.38546
1.38232
1.37869
1.37462
1.37019
1.36549
1.36062
1.35569
1.35082
1.34615
1.34185
1.33806
1.33495
1.33269
1.33152
1.33158
0.00335398
0.003147
0.00199095
1.91868e-06
-0.00264078
-0.00581338
-0.00939611
-0.0132682
-0.017315
-0.0214303
-0.0255177
-0.02949
-0.0332704
-0.0367912
-0.0399937
-0.0428274
-0.0452495
-0.0472237
-0.0487204
-0.0497153
-0.0501898
-0.0501293
-0.0495238
-0.0483667
-0.0466549
-0.0443881
-0.0415684
-0.0382004
-0.0342905
-0.029847
-0.0248795
-0.0193989
-0.0134171
-0.006947
-2.04596e-06
0.00740371
0.0152558
0.0235395
0.0322398
0.0413417
0.0508302
0.0606904
0.0709073
0.0814666
0.0923538
0.103555
0.115056
0.126844
0.138906
0.151229
0.163802
0.176612
0.189649
0.202902
0.216361
0.230015
0.243856
0.257875
0.272064
0.286414
0.300918
0.315568
0.33036
0.345285
0.360338
0.375513
0.390806
0.406211
0.421723
0.437339
0.453053
0.468863
0.484763
0.500752
0.516824
0.532978
0.549209
0.565514
0.581891
0.598336
0.614847
0.631419
0.648049
0.664735
0.681472
0.698257
0.715086
0.731954
0.748858
0.765792
0.782751
0.79973
0.816723
0.833723
0.850724
0.867718
0.884698
0.901654
0.918577
0.935459
0.952288
0.969053
0.985743
1.00234
1.01885
1.03523
1.05148
1.06759
1.08354
1.0993
1.11487
1.13022
1.14533
1.16019
1.17477
1.18905
1.20301
1.21662
1.22987
1.24273
1.25517
1.26717
1.27871
1.28976
1.3003
1.31031
1.31977
1.32865
1.33693
1.34459
1.35161
1.35798
1.36369
1.36872
1.37305
1.3767
1.37964
1.38188
1.38343
1.38429
1.38448
1.38401
1.3829
1.3812
1.37892
1.37613
1.37287
1.36919
1.36518
1.36091
1.35648
1.35197
1.34751
1.34322
1.33923
1.33567
1.33269
1.33043
1.32908
1.32878
0.00692481
0.00619735
0.00474442
0.00263328
-2.00744e-05
-0.00310966
-0.00653229
-0.0101863
-0.0139741
-0.0178037
-0.0215904
-0.0252569
-0.028734
-0.03196
-0.0348809
-0.0374499
-0.0396263
-0.0413761
-0.0426705
-0.0434862
-0.0438046
-0.0436112
-0.0428956
-0.0416508
-0.0398728
-0.0375604
-0.034715
-0.03134
-0.0274408
-0.0230245
-0.0180996
-0.012676
-0.00676431
-0.000376338
0.00647553
0.0137783
0.0215186
0.0296826
0.0382563
0.0472257
0.0565764
0.0662945
0.0763658
0.0867766
0.097513
0.108562
0.119909
0.131543
0.143451
0.155621
0.168041
0.180699
0.193585
0.206689
0.220001
0.23351
0.247208
0.261086
0.275136
0.289349
0.303719
0.318239
0.332901
0.347699
0.362627
0.37768
0.392853
0.408139
0.423534
0.439034
0.454635
0.470332
0.486121
0.501998
0.51796
0.534004
0.550125
0.566321
0.582588
0.598923
0.615321
0.631781
0.648298
0.664868
0.681488
0.698154
0.714862
0.731606
0.748384
0.765188
0.782015
0.798858
0.815712
0.832569
0.849423
0.866267
0.883091
0.899888
0.916649
0.933364
0.950021
0.966611
0.983121
0.999539
1.01585
1.03205
1.04811
1.06402
1.07976
1.09532
1.11068
1.12583
1.14073
1.15538
1.16975
1.18383
1.19758
1.21099
1.22404
1.2367
1.24895
1.26077
1.27213
1.28301
1.2934
1.30326
1.31258
1.32134
1.32951
1.33708
1.34404
1.35036
1.35603
1.36105
1.3654
1.36907
1.37208
1.37441
1.37607
1.37707
1.37743
1.37715
1.37627
1.37482
1.37282
1.37032
1.36738
1.36404
1.36037
1.35645
1.35235
1.34817
1.34401
1.33997
1.33616
1.3327
1.32971
1.32732
1.32563
1.32473
0.011384
0.00999443
0.00813254
0.0058005
0.0030369
-6.9072e-05
-0.00342881
-0.00695799
-0.0105744
-0.0141993
-0.0177593
-0.0211865
-0.0244195
-0.0274029
-0.0300876
-0.0324308
-0.0343948
-0.0359477
-0.0370626
-0.0377173
-0.0378937
-0.0375778
-0.0367592
-0.0354306
-0.0335877
-0.0312288
-0.0283546
-0.0249676
-0.0210725
-0.0166755
-0.0117842
-0.00640736
-0.000554839
0.00576265
0.0125336
0.0197461
0.0273875
0.035445
0.0439055
0.0527555
0.0619819
0.0715711
0.0815098
0.0917848
0.102383
0.113292
0.124498
0.13599
0.147755
0.159782
0.172059
0.184576
0.197321
0.210285
0.223458
0.23683
0.250393
0.264138
0.278057
0.292141
0.306384
0.320778
0.335316
0.349993
0.364802
0.379737
0.394793
0.409965
0.425248
0.440636
0.456126
0.471714
0.487395
0.503164
0.519019
0.534956
0.550971
0.56706
0.583219
0.599446
0.615736
0.632086
0.648492
0.66495
0.681457
0.698007
0.714597
0.731222
0.747877
0.764557
0.781256
0.797968
0.814688
0.831409
0.848122
0.864822
0.881499
0.898146
0.914752
0.931308
0.947804
0.964229
0.980571
0.996817
1.01295
1.02897
1.04485
1.06058
1.07613
1.09151
1.10668
1.12164
1.13635
1.15081
1.16499
1.17888
1.19244
1.20567
1.21854
1.23103
1.24311
1.25476
1.26597
1.27671
1.28696
1.29669
1.3059
1.31455
1.32263
1.33013
1.33703
1.34331
1.34896
1.35397
1.35834
1.36206
1.36513
1.36754
1.36931
1.37044
1.37095
1.37085
1.37016
1.36892
1.36716
1.36491
1.36223
1.35916
1.35577
1.35212
1.34828
1.34433
1.34037
1.33647
1.33274
1.32926
1.32616
1.32351
1.32136
1.31971
0.0165102
0.0143734
0.0120222
0.00938993
0.00643284
0.00322529
-0.000156394
-0.00364332
-0.00716722
-0.0106617
-0.0140636
-0.0173143
-0.0203597
-0.023151
-0.025644
-0.0278001
-0.0295849
-0.0309693
-0.0319282
-0.0324409
-0.0324904
-0.0320634
-0.0311499
-0.0297427
-0.0278373
-0.0254318
-0.0225264
-0.0191234
-0.0152265
-0.0108415
-0.00597499
-0.000635162
0.00516897
0.0114275
0.0181298
0.0252647
0.0328204
0.0407848
0.0491455
0.0578901
0.0670058
0.0764799
0.0862997
0.0964525
0.106926
0.117708
0.128785
0.140147
0.151782
0.163678
0.175824
0.18821
0.200825
0.21366
0.226704
0.239949
0.253386
0.267006
0.280801
0.294764
0.308887
0.323163
0.337585
0.352146
0.366842
0.381665
0.396611
0.411673
0.426848
0.44213
0.457514
0.472997
0.488573
0.504239
0.519991
0.535825
0.551736
0.567722
0.583778
0.599901
0.616086
0.63233
0.64863
0.66498
0.681377
0.697816
0.714293
0.730803
0.747341
0.763901
0.780478
0.797066
0.813659
0.83025
0.846831
0.863394
0.879933
0.896438
0.912899
0.929308
0.945653
0.961924
0.978109
0.994196
1.01017
1.02602
1.04174
1.0573
1.07269
1.08789
1.10289
1.11767
1.13222
1.14651
1.16052
1.17424
1.18764
1.20071
1.21342
1.22575
1.23768
1.2492
1.26027
1.27088
1.28101
1.29064
1.29975
1.30832
1.31633
1.32377
1.33062
1.33688
1.34252
1.34754
1.35193
1.35569
1.35881
1.36131
1.36317
1.36442
1.36506
1.36511
1.3646
1.36354
1.36198
1.35994
1.35747
1.35461
1.35143
1.34798
1.34431
1.34051
1.33665
1.33281
1.32905
1.32547
1.32215
1.31917
1.31647
1.31397
0.0221024
0.0191727
0.0162787
0.0132866
0.010071
0.00669354
0.00322051
-0.000292897
-0.00379111
-0.00721865
-0.0105222
-0.0136514
-0.0165596
-0.019204
-0.0215457
-0.0235501
-0.0251865
-0.0264286
-0.0272536
-0.0276425
-0.0275798
-0.0270529
-0.0260526
-0.024572
-0.0226069
-0.0201553
-0.0172172
-0.0137945
-0.00989075
-0.00551101
-0.000661548
0.0046502
0.0104158
0.0166261
0.0232711
0.0303403
0.0378226
0.0457066
0.0539806
0.0626327
0.0716509
0.081023
0.090737
0.100781
0.111142
0.121809
0.132771
0.144015
0.155531
0.167307
0.179334
0.1916
0.204095
0.21681
0.229736
0.242863
0.256183
0.269687
0.283367
0.297216
0.311227
0.325391
0.339703
0.354157
0.368745
0.383462
0.398303
0.413262
0.428333
0.443513
0.458797
0.474179
0.489655
0.505222
0.520875
0.536609
0.552421
0.568308
0.584264
0.600287
0.616371
0.632514
0.64871
0.664957
0.681248
0.697581
0.71395
0.73035
0.746775
0.763222
0.779683
0.796153
0.812625
0.829093
0.845548
0.861984
0.878393
0.894764
0.91109
0.927361
0.943566
0.959695
0.975735
0.991676
1.0075
1.0232
1.03877
1.05417
1.06941
1.08446
1.09931
1.11394
1.12833
1.14246
1.15633
1.1699
1.18315
1.19608
1.20865
1.22085
1.23266
1.24405
1.25501
1.26551
1.27555
1.28509
1.29412
1.30262
1.31058
1.31798
1.3248
1.33103
1.33667
1.3417
1.34612
1.34993
1.35311
1.35568
1.35763
1.35899
1.35975
1.35993
1.35956
1.35866
1.35726
1.35538
1.35308
1.35039
1.34735
1.34403
1.34048
1.33675
1.33292
1.32905
1.32519
1.32142
1.31781
1.31444
1.31113
1.30775
0.0279853
0.024244
0.0207748
0.0173808
0.0138575
0.0102568
0.00663683
0.0030406
-0.000487553
-0.00390198
-0.00715819
-0.0102138
-0.0130289
-0.0155665
-0.0177928
-0.0196775
-0.0211936
-0.0223175
-0.0230291
-0.0233112
-0.0231499
-0.0225338
-0.0214545
-0.0199058
-0.0178838
-0.0153868
-0.0124147
-0.00896939
-0.00505422
-0.000673866
0.00416577
0.0094577
0.015194
0.021366
0.0279644
0.034979
0.0423996
0.0502152
0.0584147
0.0669869
0.0759201
0.0852029
0.0948235
0.10477
0.115032
0.125597
0.136455
0.147593
0.159002
0.17067
0.182587
0.194744
0.20713
0.219736
0.232552
0.24557
0.258782
0.272179
0.285752
0.299496
0.313401
0.327462
0.341671
0.356022
0.370509
0.385126
0.399868
0.414728
0.429702
0.444785
0.459972
0.475259
0.49064
0.506111
0.521669
0.537308
0.553025
0.568816
0.584677
0.600603
0.616591
0.632636
0.648734
0.664881
0.681072
0.697302
0.713567
0.729862
0.746182
0.76252
0.778871
0.795228
0.811586
0.827938
0.844276
0.860591
0.876878
0.893125
0.909325
0.925468
0.941543
0.95754
0.973447
0.989253
1.00494
1.02051
1.03593
1.0512
1.0663
1.08121
1.09592
1.11041
1.12467
1.13867
1.1524
1.16584
1.17897
1.19177
1.20423
1.21631
1.22801
1.23931
1.25017
1.26059
1.27054
1.28002
1.28898
1.29744
1.30535
1.31272
1.31952
1.32576
1.3314
1.33645
1.3409
1.34475
1.34799
1.35063
1.35267
1.35412
1.35499
1.35529
1.35504
1.35426
1.35299
1.35124
1.34906
1.34649
1.34355
1.34031
1.33681
1.3331
1.32923
1.32527
1.32125
1.31723
1.31328
1.30946
1.30552
1.30124
0.0340078
0.0294546
0.0253939
0.0215696
0.0177031
0.0138385
0.0100275
0.00630281
0.00269879
-0.000747682
-0.00400013
-0.00702334
-0.0097837
-0.0122498
-0.0143927
-0.0161864
-0.0176073
-0.0186351
-0.0192519
-0.0194429
-0.0191957
-0.0185005
-0.0173496
-0.0157378
-0.0136617
-0.01112
-0.00811295
-0.00464237
-0.000711547
0.00367496
0.00851148
0.0137914
0.019507
0.0256503
0.032212
0.0391829
0.0465529
0.0543116
0.0624484
0.0709526
0.079813
0.0890186
0.0985581
0.108421
0.118595
0.12907
0.139834
0.150879
0.162191
0.173762
0.185581
0.197639
0.209926
0.222432
0.235149
0.248068
0.26118
0.274478
0.287953
0.301598
0.315406
0.32937
0.343483
0.357739
0.372131
0.386654
0.401302
0.41607
0.430952
0.445943
0.461039
0.476234
0.491524
0.506905
0.522372
0.537921
0.553547
0.569247
0.585016
0.60085
0.616745
0.632697
0.648701
0.664752
0.680847
0.69698
0.713146
0.729341
0.745559
0.761794
0.778041
0.794293
0.810543
0.826786
0.843012
0.859216
0.875388
0.89152
0.907603
0.923627
0.939582
0.955458
0.971244
0.986926
1.00249
1.01793
1.03323
1.04838
1.06335
1.07814
1.09273
1.1071
1.12124
1.13512
1.14874
1.16207
1.17509
1.18779
1.20014
1.21214
1.22375
1.23495
1.24574
1.25609
1.26599
1.2754
1.28433
1.29275
1.30064
1.30799
1.31479
1.32102
1.32668
1.33176
1.33625
1.34015
1.34345
1.34615
1.34827
1.3498
1.35076
1.35116
1.35101
1.35034
1.34917
1.34752
1.34543
1.34293
1.34005
1.33684
1.33334
1.32959
1.32564
1.32153
1.3173
1.31299
1.30867
1.30437
1.29978
1.2946
0.0400414
0.0346874
0.03003
0.0257585
0.0215242
0.0173654
0.0133293
0.00943966
0.0057223
0.00220627
-0.00107908
-0.00410495
-0.00684359
-0.00926885
-0.0113565
-0.0130844
-0.0144327
-0.0153839
-0.0159229
-0.016037
-0.0157155
-0.0149501
-0.0137344
-0.0120641
-0.00993652
-0.00735086
-0.00430777
-0.00080932
0.00314113
0.00753905
0.0123789
0.0176541
0.0233575
0.0294809
0.0360159
0.0429532
0.0502833
0.0579963
0.0660819
0.0745297
0.0833291
0.0924693
0.10194
0.111729
0.121828
0.132224
0.142908
0.153869
0.165097
0.176582
0.188314
0.200283
0.21248
0.224897
0.237523
0.250352
0.263373
0.276581
0.289965
0.303521
0.317239
0.331113
0.345137
0.359304
0.373609
0.388044
0.402604
0.417285
0.43208
0.446985
0.461994
0.477103
0.492307
0.507602
0.522983
0.538445
0.553985
0.569598
0.58528
0.601026
0.616833
0.632696
0.648609
0.66457
0.680573
0.696613
0.712686
0.728786
0.744908
0.761046
0.777194
0.793346
0.809495
0.825635
0.841759
0.857857
0.873923
0.889948
0.905923
0.921838
0.937683
0.953448
0.969123
0.984694
1.00015
1.01548
1.03067
1.0457
1.06056
1.07525
1.08973
1.10399
1.11803
1.13181
1.14533
1.15856
1.1715
1.18411
1.19638
1.2083
1.21984
1.23098
1.24171
1.25201
1.26186
1.27124
1.28014
1.28854
1.29642
1.30376
1.31057
1.31682
1.32251
1.32762
1.33215
1.33609
1.33945
1.34223
1.34442
1.34603
1.34707
1.34755
1.34748
1.34689
1.3458
1.34422
1.34218
1.33972
1.33687
1.33365
1.33011
1.32628
1.3222
1.31791
1.31343
1.3088
1.30407
1.29928
1.29404
1.28799
0.0459754
0.0398391
0.0345882
0.0298606
0.0252424
0.0207679
0.0164811
0.012398
0.00853724
0.00492103
0.00157247
-0.00148548
-0.00423045
-0.00664119
-0.00869778
-0.010382
-0.0116773
-0.0125693
-0.0130455
-0.0130951
-0.0127096
-0.0118821
-0.0106076
-0.00888273
-0.00670582
-0.00407665
-0.000996375
0.00253258
0.00650663
0.0109211
0.0157705
0.0210483
0.0267473
0.0328598
0.0393774
0.0462912
0.0535919
0.0612699
0.0693153
0.0777181
0.0864679
0.0955544
0.104967
0.114696
0.12473
0.135059
0.145674
0.156563
0.167717
0.179126
0.190781
0.202672
0.21479
0.227127
0.239673
0.25242
0.26536
0.278485
0.291788
0.305261
0.318897
0.332689
0.346631
0.360717
0.374939
0.389293
0.403772
0.418371
0.433085
0.447909
0.462837
0.477865
0.492988
0.508201
0.5235
0.538881
0.554339
0.569869
0.585468
0.601131
0.616854
0.632631
0.64846
0.664334
0.68025
0.696203
0.712187
0.728197
0.744228
0.760274
0.77633
0.792388
0.808443
0.824487
0.840513
0.856515
0.872482
0.888408
0.904283
0.920098
0.935844
0.951508
0.967082
0.982553
0.997909
1.01314
1.02823
1.04316
1.05793
1.07252
1.08691
1.10108
1.11503
1.12873
1.14217
1.15532
1.16818
1.18073
1.19294
1.20479
1.21628
1.22738
1.23807
1.24833
1.25816
1.26752
1.2764
1.28479
1.29267
1.30003
1.30686
1.31313
1.31885
1.324
1.32858
1.33258
1.336
1.33884
1.34109
1.34278
1.34389
1.34444
1.34445
1.34392
1.34288
1.34135
1.33934
1.33689
1.33403
1.33077
1.32716
1.32321
1.31897
1.31446
1.30971
1.30473
1.29958
1.29429
1.2884
1.2815
0.0517144
0.0448186
0.0389827
0.0337969
0.0287856
0.0239808
0.0194244
0.0151263
0.0110985
0.00735755
0.00392105
0.00080666
-0.00196815
-0.00438659
-0.00643279
-0.00809215
-0.00935152
-0.0101993
-0.0106254
-0.0106216
-0.0101809
-0.00929819
-0.00796985
-0.00619373
-0.00396906
-0.00129637
0.00182255
0.00538481
0.00938649
0.0138227
0.0186878
0.0239753
0.0296779
0.0357881
0.0422976
0.0491976
0.0564791
0.0641327
0.0721488
0.0805176
0.0892291
0.0982733
0.10764
0.117319
0.1273
0.137574
0.14813
0.158958
0.17005
0.181394
0.192982
0.204805
0.216854
0.22912
0.241595
0.25427
0.267137
0.280189
0.293418
0.306817
0.320379
0.334096
0.347963
0.361974
0.376121
0.390399
0.404803
0.419327
0.433965
0.448713
0.463566
0.478517
0.493564
0.508701
0.523923
0.539227
0.554607
0.57006
0.58558
0.601164
0.616807
0.632504
0.648252
0.664045
0.679878
0.695748
0.711648
0.727573
0.743519
0.759479
0.775447
0.791418
0.807384
0.823339
0.839276
0.855187
0.871064
0.886899
0.902683
0.918407
0.934062
0.949636
0.965119
0.9805
0.995768
1.01091
1.02591
1.04076
1.05545
1.06995
1.08427
1.09837
1.11224
1.12587
1.13924
1.15234
1.16514
1.17763
1.1898
1.20161
1.21306
1.22413
1.2348
1.24504
1.25485
1.26421
1.2731
1.2815
1.28939
1.29678
1.30363
1.30994
1.3157
1.3209
1.32553
1.32959
1.33307
1.33598
1.3383
1.34005
1.34122
1.34184
1.3419
1.34143
1.34042
1.33892
1.33692
1.33446
1.33156
1.32823
1.32452
1.32044
1.31601
1.31126
1.30621
1.30086
1.29528
1.2895
1.28298
1.27526
0.0571757
0.0495455
0.043137
0.0374951
0.0320868
0.0269427
0.0221038
0.0175745
0.0133617
0.00947684
0.00593258
0.00274195
-8.20183e-05
-0.00252658
-0.00457965
-0.00623006
-0.00746776
-0.00828392
-0.00867097
-0.00862269
-0.00813422
-0.007202
-0.00582386
-0.00399887
-0.00172731
0.000989431
0.00414888
0.00774758
0.0117812
0.0162445
0.0211316
0.0264358
0.03215
0.0382664
0.0447769
0.0516728
0.0589451
0.0665848
0.0745824
0.0829282
0.0916125
0.100626
0.109957
0.119598
0.129538
0.139767
0.150275
0.161054
0.172093
0.183383
0.194915
0.206681
0.21867
0.230875
0.243288
0.2559
0.268704
0.281691
0.294854
0.308187
0.321682
0.335332
0.349132
0.363074
0.377152
0.391362
0.405697
0.420151
0.43472
0.449397
0.464179
0.47906
0.494036
0.509101
0.524251
0.539482
0.554789
0.570168
0.585615
0.601124
0.616692
0.632313
0.647985
0.663701
0.679457
0.695248
0.711069
0.726915
0.74278
0.758659
0.774546
0.790435
0.806319
0.822192
0.838046
0.853874
0.869668
0.88542
0.901121
0.916763
0.932335
0.947828
0.963231
0.978533
0.993723
1.00879
1.02372
1.0385
1.05311
1.06755
1.0818
1.09583
1.10965
1.12323
1.13655
1.1496
1.16236
1.17482
1.18695
1.19874
1.21017
1.22123
1.23188
1.24213
1.25195
1.26131
1.27022
1.27864
1.28657
1.29399
1.30088
1.30724
1.31305
1.31831
1.323
1.32712
1.33067
1.33364
1.33602
1.33784
1.33907
1.33974
1.33985
1.33941
1.33844
1.33694
1.33494
1.33244
1.32948
1.32607
1.32223
1.31799
1.31335
1.30835
1.30298
1.29727
1.29126
1.28498
1.27784
1.26934
0.062287
0.0539485
0.0469819
0.0408896
0.0350844
0.0295964
0.0244666
0.019695
0.0152839
0.0112404
0.00757287
0.00429024
0.00140159
-0.00108406
-0.00315809
-0.00481256
-0.00604034
-0.00683524
-0.00719208
-0.00710675
-0.00657633
-0.00559895
-0.00417389
-0.00230149
1.68831e-05
0.0027789
0.0059813
0.00962001
0.0136901
0.0181861
0.0231017
0.02843
0.0341637
0.0402949
0.0468155
0.0537169
0.0609903
0.0686264
0.0766161
0.0849497
0.0936179
0.102611
0.111919
0.121532
0.131442
0.141637
0.15211
0.162849
0.173847
0.185093
0.19658
0.208297
0.220237
0.232391
0.244751
0.25731
0.270058
0.282989
0.296095
0.309369
0.322805
0.336396
0.350135
0.364016
0.378033
0.39218
0.406452
0.420842
0.435347
0.44996
0.464677
0.479492
0.494401
0.5094
0.524483
0.539646
0.554885
0.570195
0.585572
0.601011
0.616509
0.632059
0.647658
0.663302
0.678985
0.694702
0.710449
0.726221
0.742011
0.757815
0.773626
0.789439
0.805247
0.821043
0.836821
0.852573
0.868291
0.883968
0.899594
0.915162
0.930661
0.946082
0.961414
0.976648
0.99177
1.00677
1.02164
1.03635
1.05091
1.0653
1.07949
1.09348
1.10725
1.12079
1.13408
1.1471
1.15984
1.17227
1.18439
1.19617
1.2076
1.21866
1.22932
1.23958
1.24942
1.25881
1.26775
1.27621
1.28418
1.29165
1.2986
1.30501
1.31089
1.31621
1.32097
1.32516
1.32877
1.33181
1.33426
1.33614
1.33743
1.33815
1.3383
1.33789
1.33693
1.33543
1.3334
1.33086
1.32783
1.32432
1.32034
1.31591
1.31106
1.30578
1.3001
1.29401
1.28757
1.2808
1.27307
1.26381
0.0669849
0.057964
0.0504551
0.0439202
0.0377212
0.0318884
0.0264631
0.0214419
0.0168232
0.0126102
0.00880776
0.00542103
0.0024556
-8.29049e-05
-0.00218908
-0.00385794
-0.00508509
-0.00586685
-0.00620035
-0.0060836
-0.00551553
-0.00449597
-0.00302567
-0.00110627
0.00125971
0.00406897
0.0073174
0.0110002
0.015112
0.0196466
0.0245974
0.0299572
0.0357186
0.0418734
0.0484135
0.0553301
0.0626145
0.0702574
0.0782498
0.0865822
0.0952451
0.104229
0.113525
0.123122
0.133012
0.143185
0.153632
0.164344
0.17531
0.186524
0.197974
0.209654
0.221555
0.233667
0.245984
0.258497
0.271199
0.284082
0.29714
0.310364
0.323749
0.337287
0.350973
0.364799
0.378761
0.392852
0.407067
0.421401
0.435847
0.450401
0.465058
0.479813
0.494662
0.509598
0.524619
0.53972
0.554895
0.570141
0.585453
0.600826
0.616257
0.631741
0.647273
0.662848
0.678463
0.694112
0.709789
0.725491
0.741212
0.756945
0.772686
0.788429
0.804167
0.819893
0.835601
0.851284
0.866933
0.882542
0.898102
0.913603
0.929038
0.944396
0.959667
0.974841
0.989906
1.00485
1.01967
1.03434
1.04885
1.06319
1.07735
1.0913
1.10504
1.11856
1.13182
1.14483
1.15756
1.16999
1.1821
1.19389
1.20533
1.21641
1.2271
1.23739
1.24726
1.2567
1.26568
1.27419
1.28222
1.28975
1.29677
1.30325
1.3092
1.3146
1.31943
1.3237
1.32739
1.3305
1.33302
1.33496
1.33631
1.33707
1.33726
1.33687
1.33592
1.3344
1.33234
1.32975
1.32663
1.323
1.31887
1.31425
1.30917
1.30362
1.29761
1.29115
1.28428
1.27704
1.26872
1.25875
0.0712127
0.0615349
0.0535001
0.0465322
0.0399446
0.0337686
0.0280464
0.0227715
0.0179391
0.0135492
0.00960342
0.0061037
0.00305243
0.000452181
-0.00169457
-0.00338558
-0.00461903
-0.00539365
-0.00570879
-0.00556448
-0.00496149
-0.00390132
-0.00238621
-0.000419126
0.00199625
0.00485556
0.00815385
0.0118855
0.0160445
0.0206242
0.0256174
0.0310167
0.0368141
0.0430016
0.0495705
0.0565122
0.0638178
0.071478
0.0794838
0.0878258
0.0964946
0.105481
0.114775
0.124367
0.134249
0.144411
0.154843
0.165537
0.176484
0.187674
0.1991
0.210752
0.222622
0.234703
0.246986
0.259463
0.272128
0.284972
0.297989
0.311171
0.324512
0.338005
0.351645
0.365424
0.379338
0.39338
0.407544
0.421826
0.43622
0.450721
0.465324
0.480024
0.494816
0.509696
0.52466
0.539702
0.554818
0.570004
0.585256
0.600568
0.615937
0.631359
0.646828
0.66234
0.677891
0.693476
0.709089
0.724726
0.740382
0.75605
0.771727
0.787404
0.803078
0.81874
0.834385
0.850005
0.865592
0.88114
0.89664
0.912084
0.927462
0.942766
0.957985
0.973109
0.988127
1.00303
1.0178
1.03243
1.04691
1.06122
1.07535
1.08929
1.10301
1.11652
1.12978
1.14278
1.15551
1.16795
1.18009
1.1919
1.20336
1.21447
1.2252
1.23554
1.24546
1.25495
1.264
1.27258
1.28068
1.28829
1.29538
1.30195
1.30798
1.31346
1.31838
1.32273
1.32651
1.32969
1.33229
1.33429
1.3357
1.33651
1.33673
1.33636
1.33541
1.33388
1.33178
1.32912
1.3259
1.32215
1.31786
1.31305
1.30773
1.3019
1.29557
1.28873
1.28144
1.27373
1.26486
1.25419
0.0749201
0.0646097
0.0560654
0.048675
0.0417058
0.0351902
0.0291719
0.0236419
0.0185924
0.0140211
0.00992645
0.00630766
0.00316425
0.000496019
-0.00169722
-0.00341577
-0.00466025
-0.00543166
-0.00573151
-0.00556179
-0.00492504
-0.0038244
-0.00226362
-0.000246993
0.00222059
0.00513372
0.00848651
0.0122726
0.0164851
0.0211168
0.0261601
0.031607
0.0374494
0.0436787
0.0502862
0.0572631
0.0646002
0.0722884
0.0803185
0.0886811
0.0973667
0.106366
0.11567
0.125269
0.135153
0.145315
0.155743
0.166431
0.177368
0.188546
0.199956
0.211591
0.223441
0.2355
0.247758
0.260209
0.272844
0.285658
0.298642
0.31179
0.325095
0.338551
0.352152
0.365891
0.379763
0.393762
0.407883
0.422119
0.436466
0.45092
0.465474
0.480124
0.494866
0.509694
0.524605
0.539593
0.554655
0.569786
0.584982
0.600238
0.61555
0.630914
0.646324
0.661778
0.677269
0.692794
0.708348
0.723925
0.739521
0.75513
0.770746
0.786365
0.801979
0.817583
0.833171
0.848734
0.864267
0.879761
0.895209
0.910602
0.925932
0.94119
0.956365
0.971449
0.986429
1.0013
1.01604
1.03064
1.0451
1.05939
1.07351
1.08743
1.10116
1.11466
1.12793
1.14094
1.15369
1.16616
1.17832
1.19017
1.20168
1.21284
1.22363
1.23402
1.24401
1.25358
1.2627
1.27137
1.27955
1.28725
1.29444
1.3011
1.30723
1.3128
1.31782
1.32226
1.32612
1.32939
1.33207
1.33414
1.33561
1.33647
1.33673
1.33638
1.33542
1.33387
1.33173
1.32899
1.32568
1.32179
1.31734
1.31233
1.30677
1.30066
1.29401
1.2868
1.2791
1.27094
1.26153
1.2502
0.0780616
0.0671415
0.0581041
0.050302
0.0429591
0.0361091
0.0297973
0.0240128
0.0187454
0.0139904
0.00974385
0.00600242
0.00276305
2.30411e-05
-0.00222024
-0.00396952
-0.00522767
-0.00599787
-0.00628366
-0.00608893
-0.00541798
-0.00427557
-0.00266692
-0.000597688
0.00192604
0.00489776
0.00831061
0.0121573
0.0164304
0.0211218
0.0262234
0.0317268
0.0376233
0.0439042
0.0505604
0.0575827
0.0649621
0.0726891
0.0807544
0.0891487
0.0978625
0.106886
0.116211
0.125828
0.135726
0.145898
0.156334
0.167026
0.177964
0.18914
0.200545
0.212172
0.224012
0.236058
0.248301
0.260734
0.27335
0.286141
0.299101
0.312223
0.3255
0.338926
0.352495
0.366201
0.380038
0.394001
0.408083
0.42228
0.436587
0.450998
0.465509
0.480115
0.494811
0.509593
0.524456
0.539395
0.554408
0.569488
0.584632
0.599836
0.615095
0.630406
0.645762
0.661161
0.676598
0.692068
0.707566
0.723088
0.738629
0.754183
0.769745
0.78531
0.800871
0.816422
0.831958
0.847472
0.862956
0.878403
0.893806
0.909156
0.924445
0.939665
0.954805
0.969857
0.984809
0.999651
1.01437
1.02896
1.0434
1.05769
1.0718
1.08573
1.09946
1.11298
1.12627
1.13931
1.1521
1.1646
1.17681
1.18871
1.20028
1.2115
1.22236
1.23283
1.24291
1.25256
1.26178
1.27054
1.27883
1.28663
1.29392
1.30069
1.30693
1.31261
1.31774
1.32228
1.32624
1.32961
1.33237
1.33452
1.33605
1.33697
1.33726
1.33693
1.33597
1.3344
1.33221
1.3294
1.32599
1.32197
1.31735
1.31214
1.30634
1.29996
1.29298
1.28541
1.27731
1.26872
1.25878
1.24681
0.0805959
0.0690876
0.0595725
0.0513698
0.0436616
0.0364834
0.0298823
0.0238456
0.0183612
0.0134224
0.00902311
0.00515766
0.00182076
-0.000992613
-0.00328737
-0.00506846
-0.00634093
-0.00711002
-0.00738118
-0.00716017
-0.006453
-0.00526602
-0.00360594
-0.00147976
0.00110521
0.00414136
0.0076208
0.0115354
0.0158767
0.0206362
0.025805
0.0313743
0.0373348
0.0436773
0.0503926
0.0574712
0.0649038
0.0726807
0.0807926
0.0892299
0.0979832
0.107043
0.1164
0.126045
0.135969
0.146163
0.156617
0.167324
0.178273
0.189458
0.200869
0.212498
0.224338
0.23638
0.248617
0.261041
0.273646
0.286423
0.299368
0.312471
0.325728
0.339132
0.352676
0.366356
0.380165
0.394097
0.408148
0.422312
0.436584
0.450958
0.465431
0.479998
0.494653
0.509393
0.524213
0.539109
0.554076
0.569111
0.584208
0.599364
0.614575
0.629836
0.645143
0.660492
0.675878
0.691298
0.706745
0.722216
0.737707
0.75321
0.768723
0.784239
0.799752
0.815256
0.830747
0.846216
0.861657
0.877064
0.892428
0.907743
0.922999
0.938188
0.953301
0.968329
0.983262
0.998089
1.0128
1.02738
1.04182
1.05611
1.07024
1.08418
1.09793
1.11148
1.1248
1.13788
1.15071
1.16327
1.17554
1.1875
1.19915
1.21045
1.22139
1.23196
1.24213
1.25189
1.26121
1.27009
1.27849
1.28641
1.29383
1.30072
1.30708
1.31289
1.31813
1.32279
1.32686
1.33033
1.33319
1.33542
1.33703
1.338
1.33833
1.33803
1.33708
1.33548
1.33325
1.33037
1.32686
1.32271
1.31793
1.31251
1.30648
1.29982
1.29253
1.2846
1.27611
1.26709
1.25665
1.24407
0.0824847
0.0704081
0.06043
0.0518376
0.0437729
0.0362734
0.0293881
0.023103
0.0174042
0.0122832
0.00773215
0.0037433
0.000309293
-0.00257703
-0.0049227
-0.00673476
-0.00802029
-0.00878649
-0.00904071
-0.00879046
-0.00804345
-0.00680763
-0.00509115
-0.00290236
-0.00024982
0.00285772
0.00641133
0.0104019
0.0148203
0.019657
0.0249027
0.0305478
0.0365826
0.0429975
0.0497829
0.0569289