/*--------------------------------*- C++ -*----------------------------------*\
  =========                 |
  \\      /  F ield         | OpenFOAM: The Open Source CFD Toolbox
   \\    /   O peration     | Website:  https://openfoam.org
    \\  /    A nd           | Version:  7
     \\/     M anipulation  |
\*---------------------------------------------------------------------------*/
FoamFile
{
    version     2.0;
    format      ascii;
    class       volScalarField;
    location    "0.275";
    object      p;
}
// * * * * * * * * * * * * * * * * * * * * * * * * * * * * * * * * * * * * * //

dimensions      [0 2 -2 0 0 0 0];

internalField   nonuniform List<scalar> 
12800
(
-2.19992e-06
0.000178265
-0.000906955
-0.00335089
-0.00690891
-0.0113339
-0.0163923
-0.0218707
-0.0275828
-0.0333685
-0.0390914
-0.0446362
-0.0499054
-0.0548176
-0.0593049
-0.0633112
-0.0667908
-0.0697069
-0.0720308
-0.0737406
-0.0748205
-0.0752601
-0.0750537
-0.0741996
-0.0726997
-0.070559
-0.067785
-0.0643879
-0.0603794
-0.0557732
-0.0505841
-0.0448283
-0.0385226
-0.0316846
-0.0243326
-0.0164849
-0.00816032
0.000622379
0.0098445
0.0194875
0.0295329
0.0399629
0.0507595
0.0619057
0.0733845
0.0851797
0.0972756
0.109657
0.122309
0.135219
0.148372
0.161755
0.175358
0.189168
0.203174
0.217366
0.231735
0.246271
0.260965
0.275811
0.2908
0.305925
0.321179
0.336558
0.352055
0.367665
0.383383
0.399205
0.415127
0.431145
0.447256
0.463457
0.479744
0.496115
0.512568
0.529099
0.545707
0.562389
0.579144
0.595969
0.612861
0.62982
0.646842
0.663925
0.681066
0.698264
0.715514
0.732814
0.75016
0.767548
0.784974
0.802434
0.819922
0.837433
0.85496
0.872497
0.890036
0.90757
0.92509
0.942586
0.960048
0.977465
0.994825
1.01212
1.02932
1.04643
1.06343
1.08029
1.09701
1.11356
1.12993
1.14609
1.16202
1.17771
1.19311
1.20823
1.22301
1.23745
1.25152
1.26518
1.27841
1.29118
1.30347
1.31523
1.32646
1.33711
1.34716
1.35658
1.36535
1.37344
1.38082
1.38747
1.39337
1.39851
1.40287
1.40642
1.40918
1.41112
1.41225
1.41256
1.41208
1.41081
1.40877
1.40599
1.40252
1.39838
1.39365
1.38839
1.38267
1.3766
1.37029
1.36388
1.35751
1.35137
1.34568
1.34068
1.33663
1.33382
1.33254
1.33271
-0.000185739
-2.96744e-06
-0.00100585
-0.00313786
-0.00617559
-0.00994358
-0.0142678
-0.0189774
-0.023916
-0.0289446
-0.0339411
-0.0387993
-0.043428
-0.0477492
-0.0516971
-0.0552164
-0.058261
-0.0607935
-0.0627837
-0.0642082
-0.0650491
-0.065294
-0.0649349
-0.0639677
-0.0623918
-0.06021
-0.0574273
-0.0540513
-0.0500918
-0.0455598
-0.0404682
-0.0348307
-0.0286622
-0.0219785
-0.0147956
-0.00713035
0.00100028
0.00957914
0.018589
0.0280128
0.0378335
0.0480341
0.0585983
0.0695096
0.0807523
0.092311
0.104171
0.116317
0.128736
0.141414
0.154339
0.167497
0.180878
0.19447
0.208263
0.222246
0.236409
0.250744
0.265243
0.279897
0.294699
0.309641
0.324718
0.339922
0.355249
0.370693
0.386249
0.401912
0.417678
0.433544
0.449504
0.465557
0.481698
0.497924
0.514233
0.530622
0.547088
0.563628
0.58024
0.596922
0.613671
0.630483
0.647357
0.66429
0.681279
0.69832
0.715411
0.732547
0.749725
0.76694
0.784188
0.801464
0.818763
0.836077
0.853402
0.87073
0.888053
0.905364
0.922652
0.939909
0.957125
0.974288
0.991386
1.00841
1.02534
1.04216
1.05886
1.07543
1.09184
1.10808
1.12413
1.13997
1.15557
1.17092
1.186
1.20078
1.21523
1.22934
1.24307
1.2564
1.26931
1.28177
1.29375
1.30522
1.31616
1.32655
1.33635
1.34554
1.3541
1.36201
1.36924
1.37577
1.38158
1.38666
1.391
1.39458
1.3974
1.39945
1.40074
1.40127
1.40106
1.40011
1.39845
1.39611
1.39314
1.38956
1.38545
1.38087
1.37589
1.37061
1.36513
1.35958
1.3541
1.34885
1.344
1.33975
1.33631
1.33388
1.3327
1.33287
0.00089814
0.00100109
-2.78428e-06
-0.00198697
-0.0047364
-0.00810906
-0.0119647
-0.0161614
-0.0205661
-0.0250571
-0.0295257
-0.0338753
-0.0380217
-0.0418916
-0.0454224
-0.0485605
-0.051261
-0.0534868
-0.0552075
-0.0563987
-0.057042
-0.0571234
-0.0566336
-0.055567
-0.0539213
-0.0516975
-0.048899
-0.0455317
-0.0416034
-0.0371236
-0.0321032
-0.0265546
-0.0204908
-0.013926
-0.00687497
0.000647079
0.00862451
0.0170415
0.0258821
0.0351302
0.04477
0.0547856
0.0651614
0.075882
0.0869323
0.0982978
0.109964
0.121917
0.134144
0.146632
0.159368
0.17234
0.185536
0.198947
0.212561
0.226369
0.240361
0.254528
0.268861
0.283354
0.297998
0.312786
0.327711
0.342768
0.35795
0.373253
0.38867
0.404197
0.419829
0.435563
0.451395
0.467319
0.483334
0.499436
0.515621
0.531886
0.548229
0.564647
0.581136
0.597694
0.614317
0.631004
0.64775
0.664554
0.68141
0.698317
0.71527
0.732266
0.749299
0.766366
0.783462
0.800581
0.817718
0.834867
0.85202
0.869171
0.886311
0.903433
0.920528
0.937585
0.954594
0.971544
0.988424
1.00522
1.02192
1.03851
1.05497
1.07129
1.08745
1.10343
1.11922
1.1348
1.15013
1.16522
1.18002
1.19453
1.20871
1.22255
1.23602
1.24909
1.26174
1.27395
1.28569
1.29693
1.30765
1.31783
1.32744
1.33645
1.34486
1.35262
1.35974
1.36617
1.37192
1.37697
1.3813
1.38491
1.38779
1.38995
1.39138
1.39208
1.39208
1.3914
1.39004
1.38805
1.38547
1.38233
1.3787
1.37463
1.3702
1.3655
1.36063
1.3557
1.35083
1.34616
1.34185
1.33807
1.33496
1.3327
1.33153
1.33159
0.00334371
0.00313667
0.0019799
-9.72416e-06
-0.0026527
-0.00582547
-0.00940828
-0.0132806
-0.0173276
-0.0214431
-0.0255305
-0.0295029
-0.0332834
-0.0368044
-0.040007
-0.0428408
-0.0452629
-0.047237
-0.0487336
-0.0497285
-0.0502029
-0.0501423
-0.0495368
-0.0483796
-0.0466676
-0.0444005
-0.0415805
-0.0382122
-0.0343021
-0.0298583
-0.0248905
-0.0194095
-0.0134274
-0.00695681
-1.13883e-05
0.00739481
0.0152473
0.0235314
0.0322322
0.0413345
0.0508235
0.0606841
0.0709014
0.0814611
0.0923485
0.10355
0.115051
0.12684
0.138902
0.151225
0.163798
0.176609
0.189646
0.202899
0.216358
0.230013
0.243854
0.257874
0.272062
0.286413
0.300917
0.315568
0.33036
0.345285
0.360338
0.375514
0.390807
0.406212
0.421724
0.43734
0.453055
0.468864
0.484765
0.500753
0.516826
0.53298
0.549211
0.565516
0.581893
0.598339
0.614849
0.631421
0.648052
0.664737
0.681475
0.69826
0.715088
0.731957
0.748861
0.765795
0.782754
0.799733
0.816726
0.833727
0.850728
0.867722
0.884701
0.901657
0.918581
0.935462
0.952291
0.969057
0.985746
1.00235
1.01885
1.03523
1.05149
1.0676
1.08354
1.09931
1.11487
1.13022
1.14534
1.16019
1.17477
1.18905
1.20301
1.21663
1.22987
1.24273
1.25517
1.26717
1.27871
1.28977
1.30031
1.31032
1.31977
1.32865
1.33693
1.34459
1.35162
1.35799
1.3637
1.36872
1.37306
1.3767
1.37965
1.38189
1.38344
1.3843
1.38448
1.38401
1.38291
1.3812
1.37893
1.37614
1.37287
1.3692
1.36519
1.36092
1.35649
1.35198
1.34752
1.34323
1.33924
1.33568
1.3327
1.33044
1.32909
1.32879
0.00691352
0.00618612
0.00473287
0.00262126
-3.23868e-05
-0.00312202
-0.00654474
-0.010199
-0.0139869
-0.0178166
-0.0216034
-0.0252699
-0.0287471
-0.0319733
-0.0348944
-0.0374633
-0.0396398
-0.0413895
-0.0426838
-0.0434994
-0.0438178
-0.0436244
-0.0429087
-0.0416638
-0.0398856
-0.0375729
-0.0347272
-0.0313519
-0.0274524
-0.0230359
-0.0181107
-0.0126867
-0.00677464
-0.000386226
0.0064661
0.0137693
0.02151
0.0296744
0.0382486
0.0472184
0.0565696
0.0662881
0.0763598
0.0867709
0.0975076
0.108557
0.119905
0.131539
0.143447
0.155617
0.168037
0.180696
0.193582
0.206686
0.219998
0.233508
0.247206
0.261084
0.275134
0.289348
0.303719
0.318238
0.332901
0.347699
0.362628
0.377681
0.392853
0.40814
0.423535
0.439036
0.454636
0.470333
0.486122
0.502
0.517962
0.534006
0.550127
0.566323
0.58259
0.598925
0.615324
0.631783
0.6483
0.664871
0.681491
0.698157
0.714865
0.731609
0.748387
0.765191
0.782018
0.798861
0.815715
0.832572
0.849427
0.86627
0.883095
0.899892
0.916653
0.933367
0.950025
0.966614
0.983124
0.999543
1.01586
1.03205
1.04811
1.06402
1.07976
1.09533
1.11069
1.12583
1.14074
1.15539
1.16976
1.18383
1.19758
1.21099
1.22404
1.2367
1.24895
1.26077
1.27213
1.28302
1.2934
1.30327
1.31259
1.32134
1.32952
1.33709
1.34404
1.35036
1.35604
1.36105
1.3654
1.36908
1.37209
1.37442
1.37608
1.37708
1.37743
1.37716
1.37628
1.37482
1.37283
1.37033
1.36738
1.36404
1.36038
1.35646
1.35236
1.34818
1.34402
1.33998
1.33617
1.33271
1.32972
1.32733
1.32564
1.32474
0.0113719
0.00998231
0.0081204
0.00578824
0.00302442
-8.16965e-05
-0.00344161
-0.00697091
-0.0105874
-0.0142123
-0.0177723
-0.0211997
-0.0244328
-0.0274163
-0.0301012
-0.0324443
-0.0344083
-0.0359612
-0.037076
-0.0377306
-0.0379069
-0.037591
-0.0367723
-0.0354436
-0.0336005
-0.0312414
-0.0283668
-0.0249796
-0.0210843
-0.016687
-0.0117954
-0.00641819
-0.000565243
0.00575268
0.0125241
0.019737
0.0273788
0.0354367
0.0438976
0.0527482
0.0619749
0.0715645
0.0815036
0.091779
0.102378
0.113286
0.124493
0.135985
0.14775
0.159778
0.172055
0.184572
0.197318
0.210282
0.223455
0.236828
0.250391
0.264136
0.278055
0.29214
0.306383
0.320777
0.335316
0.349993
0.364802
0.379738
0.394794
0.409966
0.425249
0.440638
0.456128
0.471715
0.487396
0.503166
0.519021
0.534958
0.550973
0.567062
0.583221
0.599448
0.615738
0.632088
0.648495
0.664953
0.681459
0.69801
0.7146
0.731225
0.74788
0.76456
0.781259
0.797971
0.814691
0.831412
0.848126
0.864825
0.881503
0.898149
0.914756
0.931312
0.947808
0.964233
0.980574
0.99682
1.01296
1.02897
1.04485
1.06058
1.07614
1.09151
1.10669
1.12164
1.13636
1.15081
1.165
1.17888
1.19245
1.20568
1.21854
1.23103
1.24311
1.25477
1.26597
1.27671
1.28696
1.2967
1.3059
1.31456
1.32264
1.33014
1.33704
1.34332
1.34897
1.35398
1.35835
1.36207
1.36513
1.36755
1.36932
1.37045
1.37095
1.37085
1.37017
1.36893
1.36717
1.36492
1.36224
1.35917
1.35578
1.35213
1.34829
1.34434
1.34038
1.33648
1.33275
1.32927
1.32617
1.32352
1.32137
1.31972
0.0164977
0.0143607
0.0120095
0.00937729
0.00642004
0.00321233
-0.000169508
-0.00365648
-0.00718041
-0.0106749
-0.0140768
-0.0173276
-0.0203732
-0.0231646
-0.0256577
-0.0278137
-0.0295985
-0.0309828
-0.0319416
-0.0324542
-0.0325038
-0.0320768
-0.0311632
-0.0297558
-0.0278502
-0.0254444
-0.0225387
-0.0191354
-0.0152384
-0.010853
-0.00598627
-0.000646068
0.00515849
0.0114175
0.0181202
0.0252554
0.0328115
0.0407764
0.0491376
0.0578826
0.0669987
0.0764732
0.0862934
0.0964466
0.10692
0.117702
0.12878
0.140142
0.151777
0.163673
0.17582
0.188206
0.200821
0.213656
0.226701
0.239947
0.253384
0.267004
0.2808
0.294763
0.308886
0.323162
0.337584
0.352146
0.366842
0.381666
0.396611
0.411674
0.426849
0.442131
0.457516
0.472998
0.488575
0.504241
0.519993
0.535827
0.551738
0.567724
0.58378
0.599903
0.616088
0.632333
0.648632
0.664982
0.681379
0.697819
0.714296
0.730806
0.747344
0.763904
0.780481
0.797069
0.813662
0.830253
0.846834
0.863398
0.879936
0.896441
0.912903
0.929311
0.945656
0.961927
0.978113
0.9942
1.01018
1.02603
1.04174
1.0573
1.07269
1.08789
1.1029
1.11768
1.13222
1.14651
1.16052
1.17424
1.18764
1.20071
1.21342
1.22575
1.23769
1.2492
1.26027
1.27089
1.28102
1.29065
1.29976
1.30832
1.31634
1.32378
1.33063
1.33688
1.34252
1.34754
1.35193
1.35569
1.35882
1.36131
1.36318
1.36443
1.36507
1.36512
1.36461
1.36355
1.36199
1.35995
1.35748
1.35462
1.35144
1.34798
1.34432
1.34052
1.33666
1.33281
1.32906
1.32548
1.32216
1.31918
1.31648
1.31398
0.0220895
0.0191596
0.0162656
0.0132735
0.0100577
0.00668021
0.00320713
-0.000306285
-0.00380449
-0.00723206
-0.0105357
-0.013665
-0.0165734
-0.0192178
-0.0215595
-0.0235638
-0.0252002
-0.0264422
-0.0272671
-0.027656
-0.0275932
-0.0270664
-0.0260659
-0.0245851
-0.0226198
-0.0201679
-0.0172295
-0.0138066
-0.00990269
-0.00552268
-0.000672902
0.00463923
0.0104053
0.016616
0.0232614
0.0303309
0.0378136
0.0456981
0.0539725
0.0626251
0.0716437
0.0810162
0.0907305
0.100775
0.111136
0.121804
0.132766
0.14401
0.155526
0.167303
0.179329
0.191596
0.204091
0.216807
0.229733
0.24286
0.256181
0.269685
0.283366
0.297215
0.311226
0.325391
0.339703
0.354157
0.368745
0.383463
0.398304
0.413263
0.428335
0.443515
0.458798
0.47418
0.489657
0.505224
0.520876
0.536611
0.552423
0.56831
0.584266
0.600289
0.616374
0.632516
0.648713
0.664959
0.681251
0.697584
0.713952
0.730352
0.746778
0.763225
0.779686
0.796156
0.812628
0.829096
0.845552
0.861988
0.878396
0.894768
0.911094
0.927365
0.94357
0.959698
0.975739
0.991679
1.00751
1.02321
1.03877
1.05418
1.06941
1.08446
1.09931
1.11394
1.12833
1.14247
1.15633
1.1699
1.18316
1.19608
1.20865
1.22085
1.23266
1.24405
1.25501
1.26552
1.27555
1.28509
1.29412
1.30263
1.31058
1.31798
1.3248
1.33104
1.33668
1.34171
1.34613
1.34993
1.35312
1.35569
1.35764
1.359
1.35976
1.35994
1.35957
1.35867
1.35727
1.35539
1.35309
1.3504
1.34736
1.34404
1.34049
1.33676
1.33293
1.32906
1.3252
1.32143
1.31783
1.31445
1.31114
1.30776
0.027972
0.0242306
0.0207613
0.0173672
0.0138438
0.0102432
0.00662321
0.00302699
-0.000501136
-0.00391561
-0.00717194
-0.0102277
-0.0130428
-0.0155804
-0.0178067
-0.0196913
-0.0212073
-0.0223312
-0.0230427
-0.0233248
-0.0231635
-0.0225473
-0.0214679
-0.019919
-0.0178967
-0.0153994
-0.0124271
-0.00898165
-0.00506625
-0.000685619
0.00415435
0.00944666
0.0151834
0.0213558
0.0279545
0.0349696
0.0423906
0.0502066
0.0584066
0.0669791
0.0759128
0.0851959
0.0948169
0.104764
0.115026
0.125592
0.136449
0.147588
0.158997
0.170665
0.182583
0.19474
0.207126
0.219732
0.232549
0.245568
0.25878
0.272177
0.285751
0.299494
0.3134
0.327461
0.34167
0.356022
0.370509
0.385127
0.399868
0.414729
0.429703
0.444787
0.459974
0.47526
0.490641
0.506113
0.52167
0.53731
0.553027
0.568819
0.584679
0.600606
0.616593
0.632639
0.648737
0.664883
0.681074
0.697305
0.71357
0.729865
0.746184
0.762522
0.778874
0.795231
0.81159
0.827941
0.844279
0.860595
0.876881
0.893129
0.909329
0.925471
0.941547
0.957543
0.973451
0.989256
1.00495
1.02051
1.03594
1.0512
1.0663
1.08121
1.09592
1.11042
1.12467
1.13867
1.1524
1.16584
1.17898
1.19178
1.20423
1.21632
1.22802
1.23931
1.25018
1.2606
1.27055
1.28002
1.28899
1.29744
1.30536
1.31273
1.31953
1.32576
1.33141
1.33646
1.34091
1.34476
1.348
1.35064
1.35268
1.35413
1.355
1.3553
1.35505
1.35427
1.353
1.35125
1.34907
1.3465
1.34356
1.34032
1.33682
1.33311
1.32924
1.32528
1.32126
1.31724
1.31329
1.30947
1.30553
1.30125
0.033994
0.0294407
0.0253799
0.0215556
0.0176892
0.0138246
0.0100137
0.00628897
0.00268493
-0.000761635
-0.00401419
-0.00703743
-0.00979777
-0.0122638
-0.0144067
-0.0162002
-0.0176211
-0.0186488
-0.0192657
-0.0194567
-0.0192094
-0.018514
-0.017363
-0.0157509
-0.0136747
-0.0111328
-0.00812549
-0.00465471
-0.00072366
0.00366314
0.00850001
0.0137803
0.0194963
0.0256399
0.0322021
0.0391734
0.0465438
0.0543029
0.0624402
0.0709448
0.0798056
0.0890115
0.0985514
0.108414
0.118589
0.129064
0.139829
0.150873
0.162186
0.173758
0.185577
0.197635
0.209922
0.222429
0.235146
0.248065
0.261177
0.274475
0.287951
0.301596
0.315405
0.329369
0.343482
0.357739
0.372131
0.386655
0.401303
0.416071
0.430953
0.445944
0.46104
0.476236
0.491526
0.506907
0.522374
0.537923
0.553549
0.569249
0.585018
0.600853
0.616748
0.632699
0.648703
0.664755
0.680849
0.696983
0.713149
0.729344
0.745562
0.761797
0.778044
0.794296
0.810546
0.826789
0.843016
0.859219
0.875391
0.891523
0.907606
0.923631
0.939586
0.955462
0.971247
0.98693
1.0025
1.01794
1.03324
1.04838
1.06336
1.07814
1.09273
1.1071
1.12124
1.13513
1.14874
1.16207
1.17509
1.18779
1.20015
1.21214
1.22375
1.23496
1.24575
1.2561
1.26599
1.27541
1.28434
1.29275
1.30064
1.308
1.31479
1.32103
1.32669
1.33177
1.33626
1.34015
1.34346
1.34616
1.34828
1.34981
1.35077
1.35117
1.35102
1.35035
1.34918
1.34753
1.34544
1.34294
1.34006
1.33685
1.33335
1.3296
1.32565
1.32154
1.31731
1.313
1.30868
1.30438
1.29979
1.29461
0.0400271
0.0346731
0.0300157
0.0257442
0.0215099
0.0173512
0.0133152
0.00942551
0.00570808
0.00219198
-0.00109338
-0.0041192
-0.00685778
-0.00928296
-0.0113705
-0.0130983
-0.0144466
-0.0153978
-0.0159368
-0.0160508
-0.0157293
-0.0149637
-0.0137478
-0.0120772
-0.0099495
-0.00736367
-0.0043204
-0.000821735
0.00312897
0.0075272
0.0123674
0.017643
0.0233467
0.0294705
0.0360059
0.0429437
0.0502742
0.0579876
0.0660736
0.0745218
0.0833215
0.0924621
0.101933
0.111723
0.121822
0.132218
0.142903
0.153864
0.165092
0.176577
0.188309
0.200279
0.212476
0.224893
0.23752
0.250349
0.263371
0.276578
0.289964
0.303519
0.317238
0.331112
0.345137
0.359304
0.373609
0.388044
0.402605
0.417286
0.432081
0.446986
0.461996
0.477105
0.492309
0.507604
0.522985
0.538447
0.553987
0.5696
0.585282
0.601029
0.616835
0.632698
0.648612
0.664573
0.680576
0.696616
0.712689
0.728789
0.744911
0.761049
0.777197
0.793349
0.809499
0.825639
0.841762
0.85786
0.873926
0.889951
0.905926
0.921841
0.937687
0.953452
0.969126
0.984698
1.00015
1.01548
1.03067
1.0457
1.06057
1.07525
1.08973
1.104
1.11803
1.13181
1.14533
1.15857
1.1715
1.18411
1.19639
1.2083
1.21984
1.23099
1.24172
1.25202
1.26187
1.27125
1.28015
1.28854
1.29642
1.30377
1.31058
1.31683
1.32251
1.32762
1.33216
1.3361
1.33946
1.34223
1.34442
1.34603
1.34707
1.34756
1.34749
1.3469
1.34581
1.34423
1.34219
1.33973
1.33688
1.33366
1.33012
1.32629
1.32221
1.31792
1.31344
1.30881
1.30408
1.29929
1.29405
1.288
0.0459606
0.0398244
0.0345735
0.0298461
0.0252279
0.0207534
0.0164666
0.0123835
0.0085227
0.0049065
0.001558
-0.00149986
-0.00424476
-0.00665539
-0.00871189
-0.010396
-0.0116913
-0.0125834
-0.0130595
-0.013109
-0.0127234
-0.0118957
-0.010621
-0.00889591
-0.00671884
-0.00408951
-0.00100905
0.00252013
0.00649444
0.0109092
0.0157589
0.0210371
0.0267365
0.0328494
0.0393674
0.0462816
0.0535827
0.0612611
0.0693069
0.0777101
0.0864603
0.0955471
0.10496
0.114689
0.124724
0.135053
0.145668
0.156557
0.167712
0.179121
0.190777
0.202668
0.214786
0.227123
0.239669
0.252417
0.265357
0.278483
0.291786
0.305259
0.318896
0.332689
0.346631
0.360717
0.374939
0.389293
0.403773
0.418372
0.433086
0.44791
0.462838
0.477866
0.492989
0.508203
0.523502
0.538883
0.554341
0.569871
0.58547
0.601133
0.616856
0.632634
0.648462
0.664337
0.680253
0.696205
0.712189
0.7282
0.744231
0.760277
0.776332
0.792391
0.808446
0.82449
0.840516
0.856518
0.872486
0.888412
0.904287
0.920102
0.935847
0.951512
0.967086
0.982557
0.997913
1.01314
1.02823
1.04317
1.05794
1.07252
1.08691
1.10109
1.11503
1.12873
1.14217
1.15533
1.16819
1.18073
1.19294
1.2048
1.21629
1.22738
1.23807
1.24834
1.25816
1.26752
1.27641
1.2848
1.29268
1.30004
1.30686
1.31314
1.31886
1.32401
1.32859
1.33259
1.33601
1.33884
1.3411
1.34278
1.3439
1.34445
1.34445
1.34393
1.34289
1.34136
1.33935
1.3369
1.33404
1.33078
1.32717
1.32322
1.31898
1.31447
1.30972
1.30474
1.29959
1.2943
1.28841
1.28151
0.0516992
0.0448035
0.0389678
0.033782
0.0287708
0.0239659
0.0194096
0.0151114
0.0110837
0.00734282
0.00390642
0.000792146
-0.00198256
-0.00440089
-0.00644701
-0.00810633
-0.0093657
-0.0102134
-0.0106395
-0.0106355
-0.0101946
-0.00931175
-0.00798324
-0.00620695
-0.00398213
-0.00130928
0.00180983
0.00537234
0.00937431
0.0138108
0.0186762
0.023964
0.0296671
0.0357776
0.0422875
0.0491879
0.0564698
0.0641239
0.0721404
0.0805096
0.0892214
0.0982659
0.107633
0.117312
0.127294
0.137568
0.148124
0.158953
0.170044
0.181389
0.192978
0.204801
0.21685
0.229116
0.241591
0.254267
0.267134
0.280187
0.293416
0.306815
0.320377
0.334095
0.347963
0.361973
0.376121
0.3904
0.404804
0.419328
0.433966
0.448714
0.463567
0.478519
0.493566
0.508703
0.523925
0.539229
0.554609
0.570062
0.585582
0.601166
0.616809
0.632507
0.648254
0.664047
0.679881
0.69575
0.71165
0.727576
0.743522
0.759482
0.77545
0.791421
0.807387
0.823342
0.839279
0.85519
0.871068
0.886903
0.902687
0.918411
0.934065
0.949639
0.965123
0.980504
0.995772
1.01091
1.02592
1.04077
1.05545
1.06996
1.08427
1.09837
1.11224
1.12588
1.13925
1.15234
1.16515
1.17764
1.1898
1.20162
1.21307
1.22414
1.2348
1.24505
1.25486
1.26422
1.2731
1.2815
1.2894
1.29678
1.30364
1.30995
1.31571
1.32091
1.32554
1.3296
1.33308
1.33598
1.33831
1.34005
1.34123
1.34185
1.34191
1.34143
1.34043
1.33893
1.33693
1.33447
1.33157
1.32824
1.32453
1.32045
1.31602
1.31127
1.30622
1.30087
1.29529
1.28951
1.28299
1.27527
0.0571602
0.0495301
0.0431217
0.0374798
0.0320716
0.0269275
0.0220886
0.0175594
0.0133467
0.00946195
0.00591783
0.00272731
-9.65397e-05
-0.00254101
-0.00459402
-0.00624441
-0.00748209
-0.00829818
-0.0086851
-0.00863664
-0.00814796
-0.00721556
-0.00583727
-0.00401214
-0.00174043
0.000976478
0.00413614
0.00773511
0.011769
0.0162326
0.02112
0.0264245
0.0321391
0.0382559
0.0447667
0.051663
0.0589358
0.0665759
0.0745739
0.0829201
0.0916047
0.100618
0.10995
0.119591
0.129531
0.139761
0.15027
0.161048
0.172088
0.183378
0.194911
0.206676
0.218666
0.230872
0.243285
0.255897
0.268701
0.281688
0.294852
0.308185
0.32168
0.335331
0.349131
0.363073
0.377152
0.391362
0.405697
0.420152
0.434721
0.449398
0.46418
0.479062
0.494037
0.509102
0.524253
0.539484
0.554791
0.570171
0.585617
0.601126
0.616694
0.632316
0.647987
0.663703
0.679459
0.69525
0.711071
0.726917
0.742783
0.758662
0.774549
0.790438
0.806322
0.822195
0.838049
0.853877
0.869671
0.885423
0.901125
0.916766
0.932338
0.947831
0.963235
0.978537
0.993727
1.00879
1.02372
1.0385
1.05312
1.06755
1.0818
1.09584
1.10965
1.12323
1.13656
1.14961
1.16237
1.17482
1.18696
1.19875
1.21018
1.22123
1.23189
1.24214
1.25195
1.26132
1.27022
1.27865
1.28657
1.29399
1.30089
1.30725
1.31306
1.31832
1.32301
1.32713
1.33068
1.33364
1.33603
1.33784
1.33908
1.33975
1.33986
1.33942
1.33845
1.33695
1.33494
1.33245
1.32949
1.32608
1.32224
1.318
1.31336
1.30836
1.30299
1.29728
1.29127
1.28499
1.27785
1.26935
0.0622711
0.0539327
0.0469661
0.0408738
0.0350687
0.0295808
0.0244511
0.0196796
0.0152687
0.0112253
0.00755797
0.00427547
0.00138693
-0.00109865
-0.00317266
-0.0048271
-0.0060548
-0.00684957
-0.00720622
-0.0071207
-0.00659007
-0.00561253
-0.00418734
-0.00231482
3.70488e-06
0.00276591
0.00596856
0.00960753
0.0136779
0.0181742
0.02309
0.0284187
0.0341527
0.0402844
0.0468054
0.0537072
0.0609809
0.0686174
0.0766074
0.0849415
0.09361
0.102603
0.111912
0.121526
0.131435
0.141631
0.152104
0.162843
0.173841
0.185088
0.196575
0.208293
0.220233
0.232387
0.244748
0.257306
0.270055
0.282986
0.296093
0.309368
0.322804
0.336395
0.350134
0.364015
0.378033
0.39218
0.406452
0.420843
0.435348
0.449961
0.464678
0.479494
0.494403
0.509402
0.524485
0.539648
0.554887
0.570198
0.585574
0.601014
0.616511
0.632061
0.647661
0.663304
0.678987
0.694705
0.710452
0.726223
0.742014
0.757818
0.773629
0.789442
0.80525
0.821046
0.836824
0.852576
0.868295
0.883971
0.899598
0.915166
0.930665
0.946086
0.961418
0.976651
0.991774
1.00677
1.02164
1.03636
1.05092
1.0653
1.0795
1.09349
1.10726
1.1208
1.13409
1.14711
1.15984
1.17228
1.1844
1.19618
1.2076
1.21866
1.22933
1.23959
1.24942
1.25882
1.26775
1.27622
1.28419
1.29165
1.2986
1.30502
1.3109
1.31622
1.32098
1.32517
1.32878
1.33182
1.33427
1.33615
1.33744
1.33816
1.33831
1.3379
1.33694
1.33544
1.33341
1.33087
1.32784
1.32432
1.32035
1.31592
1.31107
1.3058
1.30011
1.29402
1.28758
1.28081
1.27308
1.26382
0.0669685
0.0579478
0.0504389
0.0439042
0.0377053
0.0318726
0.0264474
0.0214264
0.0168078
0.012595
0.00879271
0.00540611
0.00244075
-9.77103e-05
-0.00220384
-0.00387261
-0.00509962
-0.00588119
-0.00621449
-0.00609755
-0.00552931
-0.00450961
-0.00303919
-0.00111966
0.00124649
0.00405597
0.00730466
0.0109878
0.0150998
0.0196346
0.0245857
0.0299459
0.0357076
0.0418628
0.0484033
0.0553203
0.062605
0.0702484
0.0782411
0.0865739
0.0952372
0.104222
0.113517
0.123115
0.133005
0.143179
0.153626
0.164338
0.175305
0.186518
0.197969
0.209649
0.22155
0.233663
0.24598
0.258494
0.271196
0.28408
0.297138
0.310362
0.323747
0.337286
0.350972
0.364799
0.378761
0.392853
0.407068
0.421402
0.435848
0.450402
0.46506
0.479815
0.494663
0.5096
0.524621
0.539722
0.554897
0.570143
0.585455
0.600828
0.616259
0.631743
0.647275
0.662851
0.678466
0.694114
0.709792
0.725494
0.741214
0.756948
0.772689
0.788432
0.80417
0.819896
0.835604
0.851287
0.866937
0.882545
0.898105
0.913607
0.929042
0.944399
0.959671
0.974845
0.98991
1.00486
1.01967
1.03434
1.04885
1.06319
1.07735
1.09131
1.10505
1.11856
1.13183
1.14483
1.15756
1.16999
1.18211
1.1939
1.20534
1.21641
1.2271
1.23739
1.24727
1.2567
1.26569
1.2742
1.28223
1.28976
1.29677
1.30326
1.30921
1.31461
1.31944
1.32371
1.3274
1.3305
1.33303
1.33496
1.33632
1.33708
1.33727
1.33688
1.33593
1.33441
1.33235
1.32976
1.32664
1.32301
1.31888
1.31426
1.30918
1.30363
1.29762
1.29116
1.28429
1.27705
1.26873
1.25876
0.071196
0.0615183
0.0534836
0.0465159
0.0399285
0.0337526
0.0280306
0.0227559
0.0179235
0.0135339
0.00958821
0.00608859
0.00303739
0.000437196
-0.00170946
-0.00340032
-0.00463358
-0.00540799
-0.00572293
-0.00557845
-0.00497533
-0.00391504
-0.00239981
-0.000432572
0.001983
0.00484256
0.00814112
0.0118731
0.0160323
0.0206122
0.0256057
0.0310053
0.0368031
0.042991
0.0495603
0.0565023
0.0638083
0.0714689
0.0794751
0.0878174
0.0964865
0.105473
0.114767
0.12436
0.134242
0.144404
0.154837
0.165531
0.176478
0.187669
0.199095
0.210747
0.222618
0.234699
0.246982
0.25946
0.272125
0.284969
0.297986
0.311169
0.32451
0.338004
0.351644
0.365424
0.379338
0.39338
0.407545
0.421827
0.436221
0.450722
0.465325
0.480025
0.494818
0.509698
0.524662
0.539704
0.55482
0.570006
0.585258
0.60057
0.61594
0.631361
0.64683
0.662343
0.677894
0.693478
0.709092
0.724729
0.740384
0.756053
0.771729
0.787407
0.803081
0.818743
0.834388
0.850008
0.865596
0.881144
0.896644
0.912088
0.927466
0.94277
0.957989
0.973113
0.988131
1.00303
1.01781
1.03244
1.04692
1.06123
1.07536
1.08929
1.10302
1.11652
1.12978
1.14279
1.15552
1.16796
1.18009
1.1919
1.20337
1.21448
1.22521
1.23554
1.24547
1.25496
1.26401
1.27259
1.28069
1.2883
1.29539
1.30196
1.30799
1.31347
1.31839
1.32274
1.32651
1.3297
1.3323
1.3343
1.33571
1.33652
1.33674
1.33637
1.33542
1.33389
1.33179
1.32912
1.32591
1.32216
1.31787
1.31306
1.30774
1.30191
1.29558
1.28874
1.28145
1.27374
1.26487
1.2542
0.0749032
0.0645929
0.0560488
0.0486585
0.0416895
0.0351741
0.0291559
0.0236261
0.0185768
0.0140056
0.00991104
0.00629234
0.00314902
0.000480908
-0.00171216
-0.00343052
-0.0046748
-0.00544602
-0.00574569
-0.00557581
-0.00493894
-0.00383819
-0.00227727
-0.000260468
0.00220734
0.00512073
0.00847379
0.0122601
0.0164729
0.0211048
0.0261484
0.0315957
0.0374384
0.0436681
0.050276
0.0572532
0.0645907
0.0722793
0.0803097
0.0886726
0.0973586
0.106358
0.115662
0.125262
0.135147
0.145308
0.155737
0.166425
0.177362
0.18854
0.199951
0.211586
0.223437
0.235495
0.247754
0.260205
0.272841
0.285655
0.29864
0.311788
0.325094
0.33855
0.352151
0.365891
0.379763
0.393762
0.407883
0.42212
0.436467
0.450921
0.465475
0.480125
0.494867
0.509696
0.524607
0.539595
0.554657
0.569788
0.584984
0.60024
0.615552
0.630916
0.646327
0.66178
0.677272
0.692797
0.708351
0.723928
0.739524
0.755132
0.770749
0.786368
0.801982
0.817586
0.833174
0.848738
0.86427
0.879765
0.895213
0.910606
0.925936
0.941194
0.956369
0.971453
0.986433
1.0013
1.01604
1.03065
1.0451
1.0594
1.07351
1.08744
1.10116
1.11466
1.12793
1.14095
1.1537
1.16616
1.17833
1.19018
1.20169
1.21285
1.22363
1.23403
1.24402
1.25359
1.26271
1.27137
1.27956
1.28726
1.29444
1.30111
1.30724
1.31281
1.31783
1.32227
1.32613
1.3294
1.33208
1.33415
1.33562
1.33648
1.33674
1.33639
1.33543
1.33388
1.33173
1.329
1.32569
1.3218
1.31735
1.31234
1.30678
1.30067
1.29402
1.28681
1.27911
1.27096
1.26155
1.25021
0.0780446
0.0671247
0.0580874
0.0502855
0.0429427
0.0360928
0.0297812
0.0239968
0.0187296
0.0139747
0.00972824
0.00598691
0.00274769
7.86753e-06
-0.00223521
-0.00398426
-0.00524221
-0.00601225
-0.00629789
-0.00610303
-0.00543196
-0.00428942
-0.00268061
-0.000611167
0.0019128
0.00488477
0.00829787
0.0121448
0.0164181
0.0211098
0.0262117
0.0317154
0.0376123
0.0438935
0.0505501
0.0575728
0.0649525
0.0726799
0.0807456
0.0891402
0.0978543
0.106879
0.116204
0.12582
0.135719
0.145891
0.156328
0.167019
0.177958
0.189134
0.20054
0.212167
0.224008
0.236054
0.248297
0.26073
0.273346
0.286138
0.299098
0.312221
0.325498
0.338925
0.352494
0.366201
0.380038
0.394001
0.408083
0.422281
0.436588
0.450999
0.46551
0.480116
0.494812
0.509594
0.524457
0.539397
0.55441
0.56949
0.584635
0.599838
0.615098
0.630408
0.645765
0.661164
0.676601
0.692071
0.707569
0.723091
0.738632
0.754186
0.769748
0.785313
0.800874
0.816426
0.831962
0.847475
0.862959
0.878407
0.893809
0.90916
0.924449
0.939669
0.954809
0.969861
0.984813
0.999655
1.01438
1.02897
1.04341
1.05769
1.07181
1.08574
1.09947
1.11299
1.12628
1.13932
1.1521
1.16461
1.17682
1.18872
1.20029
1.21151
1.22237
1.23284
1.24291
1.25257
1.26178
1.27054
1.27883
1.28663
1.29393
1.3007
1.30694
1.31262
1.31774
1.32229
1.32625
1.32962
1.33238
1.33453
1.33606
1.33697
1.33727
1.33694
1.33598
1.33441
1.33222
1.32941
1.326
1.32198
1.31736
1.31215
1.30635
1.29997
1.29299
1.28542
1.27732
1.26873
1.2588
1.24682
0.0805788
0.0690706
0.0595557
0.0513531
0.0436451
0.036467
0.029866
0.0238295
0.0183452
0.0134065
0.00900734
0.00514205
0.00180535
-0.0010078
-0.00330233
-0.00508321
-0.0063555
-0.00712444
-0.00739548
-0.00717434
-0.00646703
-0.0052799
-0.00361963
-0.00149323
0.00109198
0.00412836
0.00760803
0.0115229
0.0158644
0.0206242
0.0257933
0.0313629
0.0373237
0.0436666
0.0503823
0.0574613
0.0648942
0.0726715
0.0807837
0.0892213
0.0979749
0.107035
0.116393
0.126038
0.135962
0.146156
0.156611
0.167317
0.178267
0.189452
0.200864
0.212493
0.224333
0.236376
0.248613
0.261038
0.273643
0.286421
0.299365
0.312469
0.325726
0.33913
0.352675
0.366355
0.380164
0.394097
0.408148
0.422312
0.436584
0.450959
0.465432
0.479999
0.494655
0.509395
0.524215
0.539111
0.554078
0.569113
0.58421
0.599366
0.614577
0.629838
0.645145
0.660494
0.675881
0.6913
0.706748
0.722219
0.737709
0.753213
0.768726
0.784242
0.799755
0.81526
0.83075
0.846219
0.861661
0.877068
0.892432
0.907747
0.923003
0.938192
0.953306
0.968334
0.983266
0.998093
1.0128
1.02739
1.04183
1.05612
1.07024
1.08419
1.09794
1.11148
1.1248
1.13789
1.15072
1.16327
1.17554
1.18751
1.19915
1.21046
1.2214
1.23197
1.24214
1.2519
1.26122
1.27009
1.2785
1.28642
1.29384
1.30073
1.30709
1.3129
1.31814
1.3228
1.32687
1.33034
1.33319
1.33543
1.33703
1.33801
1.33834
1.33803
1.33708
1.33549
1.33326
1.33038
1.32687
1.32272
1.31794
1.31252
1.30649
1.29983
1.29254
1.28461
1.27612
1.2671
1.25666
1.24408
0.0824675
0.070391
0.060413
0.0518207
0.0437562
0.0362568
0.0293716
0.0230866
0.017388
0.0122672
0.00771629
0.00372766
0.00029389
-0.0025922
-0.00493765
-0.00674953
-0.00803491
-0.00880098
-0.00905507
-0.00880468
-0.00805751
-0.0068215
-0.00510481
-0.0029158
-0.000263044
0.00284471
0.00639854
0.0103894
0.014808
0.019645
0.024891
0.0305363
0.0365715
0.0429868
0.0497725
0.0569189
0.0644163
0.072255