/*--------------------------------*- C++ -*----------------------------------*\
  =========                 |
  \\      /  F ield         | OpenFOAM: The Open Source CFD Toolbox
   \\    /   O peration     | Website:  https://openfoam.org
    \\  /    A nd           | Version:  7
     \\/     M anipulation  |
\*---------------------------------------------------------------------------*/
FoamFile
{
    version     2.0;
    format      ascii;
    class       surfaceScalarField;
    location    "0.275";
    object      phi;
}
// * * * * * * * * * * * * * * * * * * * * * * * * * * * * * * * * * * * * * //

dimensions      [0 3 -1 0 0 0 0];

internalField   nonuniform List<scalar> 
25360
(
1.14456e-10
-1.14167e-10
3.59593e-10
-2.45162e-10
6.04156e-10
-2.44558e-10
7.65006e-10
-1.60829e-10
7.9796e-10
-3.29682e-11
6.81216e-10
1.16714e-10
4.06169e-10
2.75038e-10
-2.78427e-11
4.34026e-10
-6.16695e-10
5.88873e-10
-1.35338e-09
7.36694e-10
-2.22913e-09
8.75753e-10
-3.23418e-09
1.00504e-09
-4.35822e-09
1.12403e-09
-5.59072e-09
1.2325e-09
-6.92116e-09
1.33044e-09
-8.33918e-09
1.41802e-09
-9.83468e-09
1.49549e-09
-1.13979e-08
1.56319e-09
-1.30194e-08
1.62151e-09
-1.46902e-08
1.67086e-09
-1.64019e-08
1.7117e-09
-1.81464e-08
1.74449e-09
-1.99161e-08
1.76971e-09
-2.1704e-08
1.78783e-09
-2.35033e-08
1.79933e-09
-2.5308e-08
1.80467e-09
-2.71123e-08
1.80431e-09
-2.8911e-08
1.79871e-09
-3.06993e-08
1.7883e-09
-3.24728e-08
1.77351e-09
-3.42276e-08
1.75474e-09
-3.59599e-08
1.73239e-09
-3.76668e-08
1.70682e-09
-3.93452e-08
1.6784e-09
-4.09926e-08
1.64746e-09
-4.2607e-08
1.61433e-09
-4.41863e-08
1.5793e-09
-4.57289e-08
1.54266e-09
-4.72336e-08
1.50467e-09
-4.86992e-08
1.46558e-09
-5.01248e-08
1.42563e-09
-5.15098e-08
1.38501e-09
-5.28538e-08
1.34393e-09
-5.41563e-08
1.30257e-09
-5.54174e-08
1.26108e-09
-5.6637e-08
1.21962e-09
-5.78154e-08
1.17832e-09
-5.89527e-08
1.1373e-09
-6.00493e-08
1.09667e-09
-6.11058e-08
1.05651e-09
-6.21227e-08
1.01691e-09
-6.31007e-08
9.77932e-10
-6.40403e-08
9.39644e-10
-6.49424e-08
9.0209e-10
-6.58077e-08
8.65309e-10
-6.66371e-08
8.29329e-10
-6.74312e-08
7.9417e-10
-6.81911e-08
7.59844e-10
-6.89174e-08
7.26359e-10
-6.96111e-08
6.93711e-10
-7.0273e-08
6.61892e-10
-7.09039e-08
6.30885e-10
-7.15046e-08
6.00672e-10
-7.20758e-08
5.71225e-10
-7.26183e-08
5.42516e-10
-7.31329e-08
5.14509e-10
-7.362e-08
4.87164e-10
-7.40805e-08
4.60436e-10
-7.45147e-08
4.34277e-10
-7.49234e-08
4.08639e-10
-7.53068e-08
3.83468e-10
-7.56655e-08
3.58707e-10
-7.59998e-08
3.34296e-10
-7.631e-08
3.10173e-10
-7.65963e-08
2.86273e-10
-7.68588e-08
2.62533e-10
-7.70977e-08
2.38886e-10
-7.7313e-08
2.15262e-10
-7.75046e-08
1.91589e-10
-7.76724e-08
1.67795e-10
-7.78162e-08
1.43807e-10
-7.79357e-08
1.19552e-10
-7.80307e-08
9.49588e-11
-7.81006e-08
6.99514e-11
-7.81451e-08
4.44545e-11
-7.81635e-08
1.83928e-11
-7.81552e-08
-8.30738e-12
-7.81194e-08
-3.57182e-11
-7.80555e-08
-6.39105e-11
-7.79626e-08
-9.29548e-11
-7.78396e-08
-1.2292e-10
-7.76858e-08
-1.53875e-10
-7.74999e-08
-1.85883e-10
-7.72809e-08
-2.19006e-10
-7.70276e-08
-2.533e-10
-7.67388e-08
-2.88818e-10
-7.64132e-08
-3.25609e-10
-7.60494e-08
-3.63718e-10
-7.56462e-08
-4.03182e-10
-7.52022e-08
-4.44034e-10
-7.47159e-08
-4.86298e-10
-7.41859e-08
-5.29991e-10
-7.36108e-08
-5.75119e-10
-7.29891e-08
-6.21681e-10
-7.23195e-08
-6.69666e-10
-7.16004e-08
-7.19053e-10
-7.08306e-08
-7.69806e-10
-7.00087e-08
-8.21877e-10
-6.91335e-08
-8.75207e-10
-6.82038e-08
-9.29718e-10
-6.72185e-08
-9.85321e-10
-6.61766e-08
-1.04191e-09
-6.50772e-08
-1.09936e-09
-6.39197e-08
-1.15753e-09
-6.27034e-08
-1.21625e-09
-6.14281e-08
-1.27536e-09
-6.00934e-08
-1.33465e-09
-5.86995e-08
-1.3939e-09
-5.72467e-08
-1.45286e-09
-5.57354e-08
-1.51129e-09
-5.41665e-08
-1.56889e-09
-5.25411e-08
-1.62536e-09
-5.08608e-08
-1.68037e-09
-4.91272e-08
-1.73359e-09
-4.73425e-08
-1.78463e-09
-4.55094e-08
-1.83312e-09
-4.36308e-08
-1.87863e-09
-4.171e-08
-1.92076e-09
-3.9751e-08
-1.95906e-09
-3.77579e-08
-1.99305e-09
-3.57356e-08
-2.02228e-09
-3.36894e-08
-2.04626e-09
-3.16249e-08
-2.06449e-09
-2.95484e-08
-2.07646e-09
-2.74668e-08
-2.08165e-09
-2.53872e-08
-2.07957e-09
-2.33175e-08
-2.06968e-09
-2.1266e-08
-2.05149e-09
-1.92415e-08
-2.02448e-09
-1.72534e-08
-1.98815e-09
-1.53114e-08
-1.94203e-09
-1.34257e-08
-1.88565e-09
-1.16072e-08
-1.81858e-09
-9.86671e-09
-1.74044e-09
-8.21583e-09
-1.65087e-09
-6.66624e-09
-1.5496e-09
-5.22984e-09
-1.43641e-09
-3.91862e-09
-1.31123e-09
-2.74448e-09
-1.17413e-09
-1.71905e-09
-1.02542e-09
-8.53294e-10
-8.65754e-10
-1.57053e-10
-6.96252e-10
3.61766e-10
-5.18827e-10
6.98421e-10
-3.3665e-10
8.53403e-10
-1.54973e-10
8.35929e-10
1.74681e-11
6.69805e-10
1.66109e-10
4.03794e-10
2.66026e-10
1.30716e-10
2.7315e-10
1.30793e-10
2.45499e-10
-3.59689e-10
6.34009e-10
-6.33714e-10
9.49959e-10
-5.60532e-10
1.0467e-09
-2.57528e-10
8.28349e-10
1.8542e-10
2.38412e-10
7.06653e-10
-7.51471e-10
1.26489e-09
-2.1503e-09
1.83284e-09
-3.95395e-09
2.39254e-09
-6.14945e-09
2.93222e-09
-8.71795e-09
3.44426e-09
-1.16367e-08
3.92384e-09
-1.48807e-08
4.36802e-09
-1.84235e-08
4.77525e-09
-2.22379e-08
5.14489e-09
-2.62969e-08
5.47701e-09
-3.05736e-08
5.77215e-09
-3.50417e-08
6.03126e-09
-3.96756e-08
6.25549e-09
-4.4451e-08
6.44625e-09
-4.93444e-08
6.60502e-09
-5.43333e-08
6.73344e-09
-5.93967e-08
6.83315e-09
-6.45148e-08
6.90587e-09
-6.96688e-08
6.95331e-09
-7.48413e-08
6.97718e-09
-8.00161e-08
6.97918e-09
-8.51784e-08
6.96097e-09
-9.03143e-08
6.9242e-09
-9.54112e-08
6.87043e-09
-1.00458e-07
6.80122e-09
-1.05443e-07
6.71803e-09
-1.10359e-07
6.62228e-09
-1.15196e-07
6.51533e-09
-1.19947e-07
6.39847e-09
-1.24605e-07
6.27293e-09
-1.29166e-07
6.13985e-09
-1.33624e-07
6.00033e-09
-1.37974e-07
5.85539e-09
-1.42215e-07
5.70597e-09
-1.46342e-07
5.55298e-09
-1.50354e-07
5.39722e-09
-1.5425e-07
5.23947e-09
-1.58028e-07
5.08041e-09
-1.61687e-07
4.92067e-09
-1.65228e-07
4.76085e-09
-1.68652e-07
4.60145e-09
-1.71957e-07
4.44296e-09
-1.75146e-07
4.28577e-09
-1.7822e-07
4.13028e-09
-1.8118e-07
3.97678e-09
-1.84028e-07
3.82556e-09
-1.86765e-07
3.67685e-09
-1.89394e-07
3.53085e-09
-1.91916e-07
3.38771e-09
-1.94334e-07
3.24756e-09
-1.96651e-07
3.11047e-09
-1.98867e-07
2.97651e-09
-2.00987e-07
2.84569e-09
-2.03011e-07
2.71803e-09
-2.04942e-07
2.59348e-09
-2.06784e-07
2.47201e-09
-2.08536e-07
2.35354e-09
-2.10203e-07
2.23796e-09
-2.11786e-07
2.12517e-09
-2.13286e-07
2.01504e-09
-2.14707e-07
1.90741e-09
-2.16048e-07
1.80213e-09
-2.17313e-07
1.69901e-09
-2.18502e-07
1.59785e-09
-2.19617e-07
1.49846e-09
-2.20659e-07
1.40062e-09
-2.21629e-07
1.30411e-09
-2.22528e-07
1.20869e-09
-2.23355e-07
1.1141e-09
-2.24113e-07
1.02011e-09
-2.24801e-07
9.26458e-10
-2.25418e-07
8.32873e-10
-2.25966e-07
7.39089e-10
-2.26443e-07
6.44831e-10
-2.26849e-07
5.49819e-10
-2.27183e-07
4.5377e-10
-2.27444e-07
3.56404e-10
-2.27632e-07
2.57437e-10
-2.27744e-07
1.56588e-10
-2.27779e-07
5.3572e-11
-2.27736e-07
-5.18916e-11
-2.27611e-07
-1.60082e-10
-2.27404e-07
-2.71272e-10
-2.27111e-07
-3.85729e-10
-2.2673e-07
-5.03712e-10
-2.26259e-07
-6.25472e-10
-2.25693e-07
-7.51251e-10
-2.25031e-07
-8.81277e-10
-2.24269e-07
-1.01577e-09
-2.23402e-07
-1.15492e-09
-2.22429e-07
-1.29891e-09
-2.21345e-07
-1.4479e-09
-2.20146e-07
-1.60204e-09
-2.18829e-07
-1.76142e-09
-2.17389e-07
-1.92614e-09
-2.15823e-07
-2.09626e-09
-2.14126e-07
-2.27178e-09
-2.12295e-07
-2.4527e-09
-2.10326e-07
-2.63896e-09
-2.08214e-07
-2.83045e-09
-2.05957e-07
-3.02705e-09
-2.0355e-07
-3.22854e-09
-2.00991e-07
-3.4347e-09
-1.98275e-07
-3.6452e-09
-1.95401e-07
-3.85971e-09
-1.92365e-07
-4.07779e-09
-1.89165e-07
-4.29895e-09
-1.858e-07
-4.52265e-09
-1.82268e-07
-4.74826e-09
-1.78569e-07
-4.97507e-09
-1.74701e-07
-5.20232e-09
-1.70666e-07
-5.42915e-09
-1.66464e-07
-5.65465e-09
-1.62097e-07
-5.87779e-09
-1.57569e-07
-6.09749e-09
-1.52882e-07
-6.31258e-09
-1.4804e-07
-6.52181e-09
-1.4305e-07
-6.72386e-09
-1.37917e-07
-6.91732e-09
-1.3265e-07
-7.10072e-09
-1.27256e-07
-7.2725e-09
-1.21745e-07
-7.43105e-09
-1.1613e-07
-7.57469e-09
-1.10421e-07
-7.70168e-09
-1.04633e-07
-7.81024e-09
-9.8781e-08
-7.89853e-09
-9.28808e-08
-7.96471e-09
-8.69504e-08
-8.00687e-09
-8.10089e-08
-8.02312e-09
-7.50769e-08
-8.01155e-09
-6.91763e-08
-7.97026e-09
-6.33304e-08
-7.89738e-09
-5.75638e-08
-7.79109e-09
-5.19024e-08
-7.6496e-09
-4.63731e-08
-7.47124e-09
-4.10044e-08
-7.25442e-09
-3.58253e-08
-6.9977e-09
-3.08659e-08
-6.69983e-09
-2.6157e-08
-6.35978e-09
-2.17297e-08
-5.97687e-09
-1.76153e-08
-5.55077e-09
-1.38448e-08
-5.08174e-09
-1.04482e-08
-4.57072e-09
-7.45393e-09
-4.01972e-09
-4.88751e-09
-3.43216e-09
-2.77024e-09
-2.81352e-09
-1.11682e-09
-2.17225e-09
6.7845e-11
-1.52132e-09
7.93387e-10
-8.80506e-10
1.09086e-09
-2.8e-10
1.02265e-09
2.34291e-10
6.95276e-10
5.93285e-10
2.73039e-10
6.95241e-10
4.03884e-10
2.45826e-10
-6.0551e-10
5.63512e-10
-9.51384e-10
6.9783e-10
-6.94892e-10
4.74857e-10
-3.45832e-11
-2.2508e-10
8.85371e-10
-1.47788e-09
1.95947e-09
-3.32543e-09
3.11245e-09
-5.78425e-09
4.29167e-09
-8.85236e-09
5.46065e-09
-1.25144e-08
6.59429e-09
-1.67457e-08
7.67553e-09
-2.15149e-08
8.69299e-09
-2.67862e-08
9.63939e-09
-3.25214e-08
1.05104e-08
-3.86803e-08
1.13038e-08
-4.52224e-08
1.20191e-08
-5.2107e-08
1.26568e-08
-5.92941e-08
1.32183e-08
-6.67445e-08
1.37059e-08
-7.44203e-08
1.4122e-08
-8.22851e-08
1.44698e-08
-9.03039e-08
1.47522e-08
-9.84436e-08
1.49729e-08
-1.06673e-07
1.51352e-08
-1.14962e-07
1.52427e-08
-1.23284e-07
1.52991e-08
-1.31613e-07
1.53079e-08
-1.39925e-07
1.52726e-08
-1.48197e-07
1.51967e-08
-1.5641e-07
1.50836e-08
-1.64546e-07
1.49366e-08
-1.72587e-07
1.47589e-08
-1.80518e-07
1.45534e-08
-1.88326e-07
1.43232e-08
-1.95998e-07
1.40711e-08
-2.03525e-07
1.37996e-08
-2.10896e-07
1.35114e-08
-2.18105e-07
1.32087e-08
-2.25143e-07
1.28938e-08
-2.32006e-07
1.25688e-08
-2.38689e-07
1.22357e-08
-2.45188e-07
1.18962e-08
-2.515e-07
1.1552e-08
-2.57624e-07
1.12046e-08
-2.63559e-07
1.08554e-08
-2.69304e-07
1.05058e-08
-2.7486e-07
1.01568e-08
-2.80226e-07
9.80953e-09
-2.85405e-07
9.46487e-09
-2.90399e-07
9.12363e-09
-2.95208e-07
8.78655e-09
-2.99837e-07
8.45424e-09
-3.04287e-07
8.12721e-09
-3.08562e-07
7.80591e-09
-3.12665e-07
7.4907e-09
-3.166e-07
7.18184e-09
-3.20369e-07
6.87953e-09
-3.23976e-07
6.58392e-09
-3.27426e-07
6.29506e-09
-3.30721e-07
6.01297e-09
-3.33865e-07
5.73758e-09
-3.36861e-07
5.46881e-09
-3.39714e-07
5.20649e-09
-3.42427e-07
4.95043e-09
-3.45002e-07
4.70037e-09
-3.47443e-07
4.45605e-09
-3.49753e-07
4.21713e-09
-3.51934e-07
3.98328e-09
-3.53989e-07
3.75409e-09
-3.5592e-07
3.52915e-09
-3.5773e-07
3.30803e-09
-3.5942e-07
3.09025e-09
-3.60991e-07
2.87532e-09
-3.62445e-07
2.66273e-09
-3.63783e-07
2.45196e-09
-3.65005e-07
2.24245e-09
-3.66112e-07
2.03364e-09
-3.67104e-07
1.82497e-09
-3.67981e-07
1.61583e-09
-3.68742e-07
1.40564e-09
-3.69386e-07
1.19379e-09
-3.69912e-07
9.79678e-10
-3.70318e-07
7.62678e-10
-3.70603e-07
5.42178e-10
-3.70764e-07
3.17564e-10
-3.70798e-07
8.82243e-11
-3.70704e-07
-1.46449e-10
-3.70477e-07
-3.87057e-10
-3.70114e-07
-6.34191e-10
-3.69611e-07
-8.88427e-10
-3.68965e-07
-1.15033e-09
-3.6817e-07
-1.42043e-09
-3.67222e-07
-1.69925e-09
-3.66116e-07
-1.98728e-09
-3.64846e-07
-2.28497e-09
-3.63408e-07
-2.59276e-09
-3.61796e-07
-2.91102e-09
-3.60004e-07
-3.2401e-09
-3.58026e-07
-3.58027e-09
-3.55856e-07
-3.93177e-09
-3.53487e-07
-4.29476e-09
-3.50914e-07
-4.66936e-09
-3.4813e-07
-5.05558e-09
-3.45129e-07
-5.45339e-09
-3.41906e-07
-5.86263e-09
-3.38453e-07
-6.28308e-09
-3.34766e-07
-6.7144e-09
-3.30838e-07
-7.15616e-09
-3.26665e-07
-7.60781e-09
-3.22242e-07
-8.06866e-09
-3.17563e-07
-8.53792e-09
-3.12626e-07
-9.01464e-09
-3.07428e-07
-9.49777e-09
-3.01964e-07
-9.98606e-09
-2.96234e-07
-1.04781e-08
-2.90237e-07
-1.09725e-08
-2.83972e-07
-1.14674e-08
-2.7744e-07
-1.1961e-08
-2.70643e-07
-1.24513e-08
-2.63585e-07
-1.2936e-08
-2.5627e-07
-1.34129e-08
-2.48703e-07
-1.38793e-08
-2.40892e-07
-1.43325e-08
-2.32847e-07
-1.47697e-08
-2.24576e-07
-1.51878e-08
-2.16093e-07
-1.55837e-08
-2.07412e-07
-1.59539e-08
-1.98548e-07
-1.62949e-08
-1.89519e-07
-1.66033e-08
-1.80346e-07
-1.68751e-08
-1.71049e-07
-1.71066e-08
-1.61654e-07
-1.72939e-08
-1.52186e-07
-1.7433e-08
-1.42673e-07
-1.75199e-08
-1.33145e-07
-1.75504e-08
-1.23636e-07
-1.75207e-08
-1.1418e-07
-1.74266e-08
-1.04813e-07
-1.72643e-08
-9.55741e-08
-1.703e-08
-8.65038e-08
-1.672e-08
-7.76442e-08
-1.63308e-08
-6.90391e-08
-1.58595e-08
-6.07337e-08
-1.53031e-08
-5.27741e-08
-1.46594e-08
-4.52074e-08
-1.39265e-08
-3.80806e-08
-1.31036e-08
-3.14407e-08
-1.21907e-08
-2.53335e-08
-1.1189e-08
-1.98027e-08
-1.01015e-08
-1.48889e-08
-8.93358e-09
-1.06273e-08
-7.69372e-09
-7.04601e-09
-6.39481e-09
-4.16236e-09
-5.05588e-09
-1.97893e-09
-3.70475e-09
-4.77677e-10
-2.38176e-09
3.87628e-10
-1.14527e-09
7.01136e-10
-7.91363e-11
5.96076e-10
6.98401e-10
2.66856e-10
1.02438e-09
6.70749e-10
1.63761e-10
-7.69274e-10
2.64807e-10
-1.05237e-09
4.43181e-11
-4.74404e-10
-6.78041e-10
6.87743e-10
-2.029e-09
2.2363e-09
-4.09176e-09
4.02225e-09
-6.91445e-09
5.93516e-09
-1.05176e-08
7.89482e-09
-1.49004e-08
9.84352e-09
-2.00462e-08
1.17401e-08
-2.59262e-08
1.35555e-08
-3.25029e-08
1.52697e-08
-3.97329e-08
1.68694e-08
-4.75687e-08
1.83461e-08
-5.596e-08
1.96951e-08
-6.48554e-08
2.09145e-08
-7.4203e-08
2.20044e-08
-8.39512e-08
2.29666e-08
-9.40493e-08
2.38041e-08
-1.04448e-07
2.45208e-08
-1.151e-07
2.51213e-08
-1.25958e-07
2.56109e-08
-1.3698e-07
2.59949e-08
-1.48124e-07
2.6279e-08
-1.59351e-07
2.64693e-08
-1.70623e-07
2.65716e-08
-1.81907e-07
2.6592e-08
-1.93171e-07
2.65363e-08
-2.04385e-07
2.64105e-08
-2.15521e-07
2.62202e-08
-2.26556e-07
2.59712e-08
-2.37466e-07
2.56686e-08
-2.4823e-07
2.53179e-08
-2.58831e-07
2.4924e-08
-2.69252e-07
2.44917e-08
-2.79478e-07
2.40256e-08
-2.89496e-07
2.353e-08
-2.99297e-07
2.30089e-08
-3.08869e-07
2.24663e-08
-3.18206e-07
2.19058e-08
-3.27301e-07
2.13306e-08
-3.36149e-07
2.07439e-08
-3.44745e-07
2.01486e-08
-3.53088e-07
1.95474e-08
-3.61175e-07
1.89428e-08
-3.69006e-07
1.83368e-08
-3.76581e-07
1.77316e-08
-3.83901e-07
1.71289e-08
-3.90966e-07
1.65305e-08
-3.9778e-07
1.59376e-08
-4.04345e-07
1.53516e-08
-4.10664e-07
1.47735e-08
-4.16742e-07
1.42043e-08
-4.2258e-07
1.36447e-08
-4.28185e-07
1.30954e-08
-4.3356e-07
1.25569e-08
-4.3871e-07
1.20295e-08
-4.4364e-07
1.15135e-08
-4.48354e-07
1.1009e-08
-4.52857e-07
1.0516e-08
-4.57154e-07
1.00345e-08
-4.61249e-07
9.56426e-09
-4.65148e-07
9.10506e-09
-4.68854e-07
8.65656e-09
-4.72372e-07
8.21835e-09
-4.75706e-07
7.78995e-09
-4.78859e-07
7.37081e-09
-4.81836e-07
6.96034e-09
-4.8464e-07
6.55786e-09
-4.87274e-07
6.16267e-09
-4.8974e-07
5.774e-09
-4.9204e-07
5.39106e-09
-4.94178e-07
5.01299e-09
-4.96154e-07
4.63893e-09
-4.9797e-07
4.26795e-09
-4.99627e-07
3.89913e-09
-5.01125e-07
3.53148e-09
-5.02464e-07
3.16403e-09
-5.03644e-07
2.79575e-09
-5.04664e-07
2.42563e-09
-5.05523e-07
2.05262e-09
-5.06219e-07
1.67568e-09
-5.0675e-07
1.29375e-09
-5.07113e-07
9.05761e-10
-5.07306e-07
5.10667e-10
-5.07326e-07
1.07414e-10
-5.07167e-07
-3.05043e-10
-5.06826e-07
-7.27731e-10
-5.06299e-07
-1.16166e-09
-5.05579e-07
-1.60782e-09
-5.04663e-07
-2.06717e-09
-5.03542e-07
-2.54062e-09
-5.02213e-07
-3.02907e-09
-5.00666e-07
-3.53333e-09
-4.98897e-07
-4.0542e-09
-4.96898e-07
-4.59237e-09
-4.9466e-07
-5.14851e-09
-4.92177e-07
-5.72317e-09
-4.8944e-07
-6.31682e-09
-4.86442e-07
-6.92986e-09
-4.83175e-07
-7.56254e-09
-4.79629e-07
-8.21503e-09
-4.75797e-07
-8.88735e-09
-4.71671e-07
-9.57939e-09
-4.67243e-07
-1.02909e-08
-4.62505e-07
-1.10214e-08
-4.57449e-07
-1.17704e-08
-4.52068e-07
-1.2537e-08
-4.46355e-07
-1.33202e-08
-4.40305e-07
-1.4119e-08
-4.33911e-07
-1.49319e-08
-4.27169e-07
-1.57571e-08
-4.20073e-07
-1.6593e-08
-4.12622e-07
-1.74372e-08
-4.04813e-07
-1.82875e-08
-3.96644e-07
-1.91412e-08
-3.88116e-07
-1.99952e-08
-3.79231e-07
-2.08465e-08
-3.69991e-07
-2.16915e-08
-3.604e-07
-2.25264e-08
-3.50466e-07
-2.33471e-08
-3.40196e-07
-2.41492e-08
-3.29601e-07
-2.4928e-08
-3.18692e-07
-2.56786e-08
-3.07484e-07
-2.63958e-08
-2.95993e-07
-2.70741e-08
-2.8424e-07
-2.77077e-08
-2.72244e-07
-2.82907e-08
-2.6003e-07
-2.88168e-08
-2.47626e-07
-2.92798e-08
-2.35059e-07
-2.96731e-08
-2.22363e-07
-2.999e-08
-2.09572e-07
-3.02238e-08
-1.96725e-07
-3.03676e-08
-1.8386e-07
-3.04146e-08
-1.71023e-07
-3.03582e-08
-1.58258e-07
-3.01915e-08
-1.45614e-07
-2.99081e-08
-1.33142e-07
-2.95017e-08
-1.20896e-07
-2.89664e-08
-1.0893e-07
-2.82965e-08
-9.73026e-08
-2.74872e-08
-8.60716e-08
-2.65341e-08
-7.52972e-08
-2.54338e-08
-6.50397e-08
-2.4184e-08
-5.53595e-08
-2.27838e-08
-4.63161e-08
-2.12341e-08
-3.7967e-08
-1.95381e-08
-3.03665e-08
-1.7702e-08
-2.3564e-08
-1.57361e-08
-1.76018e-08
-1.36559e-08
-1.25125e-08
-1.14842e-08
-8.31498e-09
-9.2534e-09
-5.01035e-09
-7.00938e-09
-2.57604e-09
-4.8161e-09
-9.58761e-10
-2.76259e-09
-6.6073e-11
-9.71814e-10
2.42959e-10
3.89432e-10
1.68988e-10
1.09832e-09
8.39725e-10
3.77436e-11
-8.07046e-10
-1.74138e-10
-8.40467e-10
-8.70486e-10
2.21974e-10
-2.22139e-09
2.03864e-09
-4.3486e-09
4.3635e-09
-7.33364e-09
7.00728e-09
-1.12245e-08
9.82599e-09
-1.60416e-08
1.2712e-08
-2.17836e-08
1.55855e-08
-2.84316e-08
1.83881e-08
-3.59535e-08
2.10774e-08
-4.4307e-08
2.36232e-08
-5.34424e-08
2.60048e-08
-6.3305e-08
2.82087e-08
-7.38363e-08
3.02265e-08
-8.49762e-08
3.20544e-08
-9.66634e-08
3.36916e-08
-1.08837e-07
3.514e-08
-1.21436e-07
3.64032e-08
-1.34402e-07
3.74865e-08
-1.47677e-07
3.83963e-08
-1.61206e-07
3.91398e-08
-1.74936e-07
3.97247e-08
-1.88816e-07
4.01594e-08
-2.02799e-07
4.04525e-08
-2.1684e-07
4.06126e-08
-2.30897e-07
4.06487e-08
-2.4493e-07
4.05696e-08
-2.58903e-07
4.03838e-08
-2.72783e-07
4.01001e-08
-2.86539e-07
3.97267e-08
-3.00142e-07
3.92717e-08
-3.13567e-07
3.87431e-08
-3.26791e-07
3.81484e-08
-3.39794e-07
3.74947e-08
-3.52558e-07
3.67891e-08
-3.65066e-07
3.6038e-08
-3.77305e-07
3.52476e-08
-3.89262e-07
3.44238e-08
-4.00928e-07
3.35721e-08
-4.12295e-07
3.26975e-08
-4.23356e-07
3.18049e-08
-4.34106e-07
3.08986e-08
-4.44541e-07
2.99827e-08
-4.54659e-07
2.90609e-08
-4.64459e-07
2.81367e-08
-4.73941e-07
2.7213e-08
-4.83105e-07
2.62928e-08
-4.91953e-07
2.53785e-08
-5.00487e-07
2.44722e-08
-5.08712e-07
2.3576e-08
-5.1663e-07
2.26915e-08
-5.24246e-07
2.18201e-08
-5.31564e-07
2.0963e-08
-5.3859e-07
2.01213e-08
-5.45329e-07
1.92956e-08
-5.51786e-07
1.84866e-08
-5.57967e-07
1.76946e-08
-5.63878e-07
1.692e-08
-5.69524e-07
1.61626e-08
-5.74912e-07
1.54225e-08
-5.80047e-07
1.46994e-08
-5.84935e-07
1.39928e-08
-5.89581e-07
1.33025e-08
-5.9399e-07
1.26276e-08
-5.98168e-07
1.19675e-08
-6.02118e-07
1.13214e-08
-6.05846e-07
1.06884e-08
-6.09356e-07
1.00674e-08
-6.12651e-07
9.45741e-09
-6.15734e-07
8.85727e-09
-6.18609e-07
8.26577e-09
-6.21277e-07
7.68162e-09
-6.23742e-07
7.1035e-09
-6.26004e-07
6.53001e-09
-6.28065e-07
5.95974e-09
-6.29924e-07
5.39123e-09
-6.31583e-07
4.82296e-09
-6.33041e-07
4.25342e-09
-6.34296e-07
3.68104e-09
-6.35348e-07
3.10425e-09
-6.36194e-07
2.52147e-09
-6.36831e-07
1.93109e-09
-6.37257e-07
1.33151e-09
-6.37467e-07
7.21132e-10
-6.37458e-07
9.83665e-11
-6.37225e-07
-5.38362e-10
-6.36762e-07
-1.19061e-09
-6.36064e-07
-1.85989e-09
-6.35124e-07
-2.5477e-09
-6.33936e-07
-3.25547e-09
-6.32492e-07
-3.9846e-09
-6.30784e-07
-4.7364e-09
-6.28806e-07
-5.51212e-09
-6.26547e-07
-6.31292e-09
-6.23999e-07
-7.13987e-09
-6.21154e-07
-7.99392e-09
-6.18001e-07
-8.87591e-09
-6.14531e-07
-9.78653e-09
-6.10735e-07
-1.07263e-08
-6.06602e-07
-1.16957e-08
-6.02122e-07
-1.26949e-08
-5.97286e-07
-1.37238e-08
-5.92083e-07
-1.47823e-08
-5.86503e-07
-1.587e-08
-5.80539e-07
-1.69862e-08
-5.74179e-07
-1.81299e-08
-5.67416e-07
-1.92999e-08
-5.60242e-07
-2.04948e-08
-5.52648e-07
-2.17126e-08
-5.44629e-07
-2.29512e-08
-5.36178e-07
-2.42081e-08
-5.2729e-07
-2.54804e-08
-5.17963e-07
-2.67649e-08
-5.08192e-07
-2.80578e-08
-4.97978e-07
-2.93552e-08
-4.87321e-07
-3.06525e-08
-4.76223e-07
-3.19449e-08
-4.64687e-07
-3.3227e-08
-4.5272e-07
-3.4493e-08
-4.40331e-07
-3.57368e-08
-4.27528e-07
-3.69516e-08
-4.14326e-07
-3.81305e-08
-4.00739e-07
-3.92659e-08
-3.86784e-07
-4.03499e-08
-3.72484e-07
-4.13743e-08
-3.57861e-07
-4.23304e-08
-3.42943e-07
-4.32093e-08
-3.27758e-07
-4.40015e-08
-3.1234e-07
-4.46976e-08
-2.96726e-07
-4.52878e-08
-2.80954e-07
-4.57621e-08
-2.65067e-07
-4.61104e-08
-2.49112e-07
-4.63225e-08
-2.33138e-07
-4.63885e-08
-2.17198e-07
-4.62981e-08
-2.01348e-07
-4.60416e-08
-1.85647e-07
-4.56095e-08
-1.70156e-07
-4.49925e-08
-1.5494e-07
-4.41822e-08
-1.40066e-07
-4.31705e-08
-1.25603e-07
-4.19507e-08
-1.1162e-07
-4.05166e-08
-9.81901e-08
-3.88641e-08
-8.53837e-08
-3.69904e-08
-7.32726e-08
-3.4895e-08
-6.19262e-08
-3.25804e-08
-5.14118e-08
-3.00526e-08
-4.17918e-08
-2.7322e-08
-3.31227e-08
-2.44051e-08
-2.54525e-08
-2.13261e-08
-1.88174e-08
-1.81193e-08
-1.32386e-08
-1.48322e-08
-8.71789e-09
-1.153e-08
-5.2326e-09
-8.30139e-09
-2.72945e-09
-5.26576e-09
-1.11797e-09
-2.58333e-09
-2.63102e-10
-4.65408e-10
2.32638e-11
8.1196e-10
8.62982e-10
-1.10597e-10
-6.96469e-10
-6.93989e-10
-2.57099e-10
-1.94599e-09
1.47399e-09
-4.01444e-09
4.1071e-09
-7.00713e-09
7.3562e-09
-1.09968e-08
1.0997e-08
-1.6026e-08
1.48551e-08
-2.21113e-08
1.87973e-08
-2.92481e-08
2.27223e-08
-3.74143e-08
2.65543e-08
-4.65739e-08
3.0237e-08
-5.66801e-08
3.37294e-08
-6.76779e-08
3.70026e-08
-7.95063e-08
4.00371e-08
-9.21004e-08
4.28205e-08
-1.05392e-07
4.53464e-08
-1.19313e-07
4.76126e-08
-1.33794e-07
4.96207e-08
-1.48766e-07
5.1375e-08
-1.64161e-07
5.28818e-08
-1.79914e-07
5.41494e-08
-1.95962e-07
5.51871e-08
-2.12242e-07
5.60052e-08
-2.28697e-07
5.66148e-08
-2.45273e-07
5.70275e-08
-2.61915e-07
5.72552e-08
-2.78576e-07
5.73097e-08
-2.9521e-07
5.72032e-08
-3.11773e-07
5.69475e-08
-3.28228e-07
5.65545e-08
-3.44537e-07
5.60357e-08
-3.60667e-07
5.54024e-08
-3.7659e-07
5.46653e-08
-3.92276e-07
5.3835e-08
-4.07703e-07
5.29216e-08
-4.22849e-07
5.19346e-08
-4.37694e-07
5.08833e-08
-4.52223e-07
4.97762e-08
-4.6642e-07
4.86215e-08
-4.80275e-07
4.74269e-08
-4.93777e-07
4.61995e-08
-5.06918e-07
4.49462e-08
-5.19693e-07
4.36729e-08
-5.32096e-07
4.23855e-08
-5.44124e-07
4.10893e-08
-5.55776e-07
3.97889e-08
-5.67052e-07
3.84888e-08
-5.77952e-07
3.71928e-08
-5.88478e-07
3.59046e-08
-5.98633e-07
3.46272e-08
-6.0842e-07
3.33633e-08
-6.17844e-07
3.21154e-08
-6.2691e-07
3.08855e-08
-6.35622e-07
2.96753e-08
-6.43987e-07
2.84861e-08
-6.5201e-07
2.73192e-08
-6.59699e-07
2.61753e-08
-6.67059e-07
2.50551e-08
-6.74098e-07
2.39587e-08
-6.80822e-07
2.28865e-08
-6.87238e-07
2.18381e-08
-6.93352e-07
2.08134e-08
-6.99171e-07
1.98118e-08
-7.04701e-07
1.88326e-08
-7.09948e-07
1.78751e-08
-7.14919e-07
1.69381e-08
-7.19618e-07
1.60206e-08
-7.24051e-07
1.51212e-08
-7.28222e-07
1.42387e-08
-7.32136e-07
1.33715e-08
-7.35797e-07
1.2518e-08
-7.39208e-07
1.16765e-08
-7.42372e-07
1.08453e-08
-7.4529e-07
1.00224e-08
-7.47966e-07
9.20596e-09
-7.50401e-07
8.39399e-09
-7.52594e-07
7.58442e-09
-7.54546e-07
6.77516e-09
-7.56257e-07
5.96408e-09
-7.57725e-07
5.149e-09
-7.58948e-07
4.32771e-09
-7.59925e-07
3.49801e-09
-7.60651e-07
2.65766e-09
-7.61124e-07
1.80442e-09
-7.61339e-07
9.36061e-10
-7.61291e-07
5.03726e-11
-7.60975e-07
-8.54845e-10
-7.60383e-07
-1.78175e-09
-7.59511e-07
-2.73247e-09
-7.58349e-07
-3.70907e-09
-7.56891e-07
-4.71354e-09
-7.55128e-07
-5.7478e-09
-7.53051e-07
-6.8137e-09
-7.5065e-07
-7.91295e-09
-7.47916e-07
-9.04716e-09
-7.44838e-07
-1.02178e-08
-7.41406e-07
-1.14261e-08
-7.37608e-07
-1.26734e-08
-7.33434e-07
-1.39604e-08
-7.28873e-07
-1.5288e-08
-7.23912e-07
-1.66567e-08
-7.1854e-07
-1.80667e-08
-7.12746e-07
-1.9518e-08
-7.06518e-07
-2.10103e-08
-6.99845e-07
-2.25429e-08
-6.92716e-07
-2.41149e-08
-6.85121e-07
-2.5725e-08
-6.7705e-07
-2.73712e-08
-6.68493e-07
-2.90516e-08
-6.59442e-07
-3.07635e-08
-6.49889e-07
-3.25039e-08
-6.39828e-07
-3.42691e-08
-6.29253e-07
-3.60551e-08
-6.18161e-07
-3.78574e-08
-6.06548e-07
-3.96708e-08
-5.94414e-07
-4.14895e-08
-5.81759e-07
-4.33073e-08
-5.68586e-07
-4.51174e-08
-5.54901e-07
-4.69123e-08
-5.4071e-07
-4.86838e-08
-5.26024e-07
-5.04233e-08
-5.10854e-07
-5.21216e-08
-4.95215e-07
-5.37688e-08
-4.79127e-07
-5.53544e-08
-4.62609e-07
-5.68674e-08
-4.45687e-07
-5.82964e-08
-4.28389e-07
-5.96292e-08
-4.10744e-07
-6.08535e-08
-3.9279e-07
-6.19563e-08
-3.74563e-07
-6.29243e-08
-3.56107e-07
-6.37441e-08
-3.37467e-07
-6.44019e-08
-3.18693e-07
-6.48837e-08
-2.9984e-07
-6.51757e-08
-2.80965e-07
-6.5264e-08
-2.62128e-07
-6.51347e-08
-2.43395e-07
-6.47747e-08
-2.24834e-07
-6.41708e-08
-2.06515e-07
-6.33109e-08
-1.88514e-07
-6.21834e-08
-1.70907e-07
-6.0778e-08
-1.53772e-07
-5.90856e-08
-1.37189e-07
-5.70989e-08
-1.21241e-07
-5.48125e-08
-1.06008e-07
-5.22237e-08
-9.15697e-08
-4.9333e-08
-7.80054e-08
-4.61448e-08
-6.53895e-08
-4.26685e-08
-5.37917e-08
-3.89197e-08
-4.32746e-08
-3.49222e-08
-3.38912e-08
-3.07095e-08
-2.56821e-08
-2.63285e-08
-1.86719e-08
-2.18423e-08
-1.2866e-08
-1.73359e-08
-8.24572e-09
-1.29217e-08
-4.76386e-09
-8.74761e-09
-2.33983e-09
-5.00738e-09
-8.54605e-10
-1.95063e-09
-1.45836e-10
1.032e-10
7.17148e-10
-2.68833e-10
-4.27627e-10
-1.25596e-09
7.29995e-10
-3.11203e-09
3.33005e-09
-5.95534e-09
6.95043e-09
-9.87333e-09
1.12742e-08
-1.49246e-08
1.60483e-08
-2.11417e-08
2.10722e-08
-2.85341e-08
2.61896e-08
-3.70913e-08
3.12796e-08
-4.67865e-08
3.62495e-08
-5.75789e-08
4.10293e-08
-6.94168e-08
4.55674e-08
-8.22403e-08
4.98261e-08
-9.59827e-08
5.37795e-08
-1.10573e-07
5.74109e-08
-1.25937e-07
6.07107e-08
-1.42e-07
6.36752e-08
-1.58685e-07
6.63054e-08
-1.75916e-07
6.8606e-08
-1.93618e-07
7.05844e-08
-2.1172e-07
7.22506e-08
-2.30149e-07
7.36161e-08
-2.48837e-07
7.4694e-08
-2.67721e-07
7.54983e-08
-2.86737e-07
7.60438e-08
-3.05827e-07
7.63455e-08
-3.24937e-07
7.6419e-08
-3.44014e-07
7.62799e-08
-3.6301e-07
7.59436e-08
-3.81881e-07
7.54255e-08
-4.00585e-07
7.47406e-08
-4.19087e-07
7.39037e-08
-4.3735e-07
7.2929e-08
-4.55346e-07
7.18303e-08
-4.73045e-07
7.06207e-08
-4.90423e-07
6.93131e-08
-5.07459e-07
6.79194e-08
-5.24134e-07
6.6451e-08
-5.40432e-07
6.49188e-08
-5.56338e-07
6.33329e-08
-5.71841e-07
6.17029e-08
-5.86932e-07
6.00375e-08
-6.01604e-07
5.8345e-08
-6.15852e-07
5.6633e-08
-6.29671e-07
5.49085e-08
-6.4306e-07
5.31779e-08
-6.56018e-07
5.14469e-08
-6.68546e-07
4.97208e-08
-6.80646e-07
4.80043e-08
-6.9232e-07
4.63016e-08
-7.03573e-07
4.46163e-08
-7.1441e-07
4.29517e-08
-7.24835e-07
4.13104e-08
-7.34854e-07
3.96948e-08
-7.44475e-07
3.81067e-08
-7.53703e-07
3.65477e-08
-7.62547e-07
3.50189e-08
-7.71013e-07
3.35211e-08
-7.79109e-07
3.20547e-08
-7.86842e-07
3.06199e-08
-7.94221e-07
2.92166e-08
-8.01252e-07
2.78444e-08
-8.07942e-07
2.65026e-08
-8.143e-07
2.51903e-08
-8.20332e-07
2.39065e-08
-8.26043e-07
2.26499e-08
-8.31442e-07
2.14189e-08
-8.36532e-07
2.02119e-08
-8.41321e-07
1.9027e-08
-8.45811e-07
1.78623e-08
-8.50009e-07
1.67157e-08
-8.53918e-07
1.55849e-08
-8.5754e-07
1.44677e-08
-8.60879e-07
1.33614e-08
-8.63937e-07
1.22636e-08
-8.66714e-07
1.11717e-08
-8.69213e-07
1.00829e-08
-8.71432e-07
8.99454e-09
-8.73372e-07
7.90368e-09
-8.7503e-07
6.80749e-09
-8.76406e-07
5.70308e-09
-8.77495e-07
4.5875e-09
-8.78295e-07
3.45782e-09
-8.78802e-07
2.31107e-09
-8.7901e-07
1.14433e-09
-8.78915e-07
-4.53294e-11
-8.78509e-07
-1.26081e-09
-8.77785e-07
-2.50496e-09
-8.76737e-07
-3.78056e-09
-8.75356e-07
-5.09033e-09
-8.73633e-07
-6.4369e-09
-8.71558e-07
-7.8228e-09
-8.69121e-07
-9.25042e-09
-8.66312e-07
-1.0722e-08
-8.63119e-07
-1.22397e-08
-8.59532e-07
-1.38054e-08
-8.55537e-07
-1.54207e-08
-8.51123e-07
-1.70872e-08
-8.46278e-07
-1.88062e-08
-8.40987e-07
-2.05784e-08
-8.35239e-07
-2.24046e-08
-8.29021e-07
-2.42851e-08
-8.22319e-07
-2.62198e-08
-8.15121e-07
-2.82082e-08
-8.07415e-07
-3.02495e-08
-7.99187e-07
-3.23423e-08
-7.90428e-07
-3.44848e-08
-7.81124e-07
-3.66746e-08
-7.71267e-07
-3.89089e-08
-7.60846e-07
-4.11841e-08
-7.49854e-07
-4.34962e-08
-7.38283e-07
-4.58404e-08
-7.26126e-07
-4.82114e-08
-7.13381e-07
-5.06029e-08
-7.00043e-07
-5.30083e-08
-6.86113e-07
-5.54199e-08
-6.71591e-07
-5.78294e-08
-6.56481e-07
-6.02277e-08
-6.40788e-07
-6.26049e-08
-6.24521e-07
-6.49504e-08
-6.07692e-07
-6.72526e-08
-5.90314e-07
-6.94995e-08
-5.72405e-07
-7.16779e-08
-5.53986e-07
-7.3774e-08
-5.35079e-07
-7.57735e-08
-5.15715e-07
-7.76612e-08
-4.95923e-07
-7.94212e-08
-4.75739e-07
-8.10371e-08
-4.55203e-07
-8.24921e-08
-4.34359e-07
-8.37687e-08
-4.13254e-07
-8.48494e-08
-3.9194e-07
-8.5716e-08
-3.70473e-07
-8.63505e-08
-3.48914e-07
-8.67347e-08
-3.27327e-07
-8.68505e-08
-3.05782e-07
-8.66804e-08
-2.84349e-07
-8.62069e-08
-2.63107e-07
-8.54136e-08
-2.42133e-07
-8.42846e-08
-2.21511e-07
-8.28055e-08
-2.01325e-07
-8.09633e-08
-1.81664e-07
-7.87468e-08
-1.62616e-07
-7.61472e-08
-1.4427e-07
-7.31584e-08
-1.26716e-07
-6.97779e-08
-1.10041e-07
-6.60073e-08
-9.43327e-08
-6.18536e-08
-7.96711e-08
-5.733e-08
-6.61329e-08
-5.2458e-08
-5.37863e-08
-4.72687e-08
-4.26898e-08
-4.1806e-08
-3.28891e-08
-3.61292e-08
-2.44145e-08
-3.0317e-08
-1.72772e-08
-2.44732e-08
-1.14666e-08
-1.87323e-08
-6.94654e-09
-1.32677e-08
-3.65224e-09
-8.30168e-09
-1.48775e-09
-4.11513e-09
-3.24324e-10
-1.06022e-09
3.92828e-10
-4.29718e-10
2.11112e-12
-1.83519e-09
2.13547e-09
-4.32099e-09
5.81585e-09
-7.97219e-09
1.06017e-08
-1.28518e-08
1.61539e-08
-1.90005e-08
2.2197e-08
-2.64372e-08
2.8509e-08
-3.51613e-08
3.49138e-08
-4.51545e-08
4.12727e-08
-5.6383e-08
4.7478e-08
-6.88005e-08
5.34468e-08
-8.23498e-08
5.91167e-08
-9.69655e-08
6.44418e-08
-1.12576e-07
6.93897e-08
-1.29104e-07
7.3939e-08
-1.4647e-07
7.80769e-08
-1.64593e-07
8.17979e-08
-1.8339e-07
8.51023e-08
-2.02779e-07
8.7995e-08
-2.22679e-07
9.04845e-08
-2.43011e-07
9.25826e-08
-2.63698e-07
9.4303e-08
-2.84665e-07
9.56616e-08
-3.05842e-07
9.66753e-08
-3.27161e-07
9.73624e-08
-3.48557e-07
9.77416e-08
-3.6997e-07
9.7832e-08
-3.91343e-07
9.76531e-08
-4.12624e-07
9.72241e-08
-4.33762e-07
9.65642e-08
-4.54714e-07
9.56924e-08
-4.75438e-07
9.46271e-08
-4.95895e-07
9.33862e-08
-5.16052e-07
9.19872e-08
-5.35878e-07
9.04468e-08
-5.55346e-07
8.87809e-08
-5.74431e-07
8.70048e-08
-5.93113e-07
8.51331e-08
-6.11374e-07
8.31793e-08
-6.29197e-07
8.11565e-08
-6.46571e-07
7.90766e-08
-6.63485e-07
7.6951e-08
-6.7993e-07
7.47902e-08
-6.95901e-07
7.26037e-08
-7.11393e-07
7.04006e-08
-7.26404e-07
6.8189e-08
-7.40933e-07
6.59762e-08