/*--------------------------------*- C++ -*----------------------------------*\
  =========                 |
  \\      /  F ield         | OpenFOAM: The Open Source CFD Toolbox
   \\    /   O peration     | Website:  https://openfoam.org
    \\  /    A nd           | Version:  7
     \\/     M anipulation  |
\*---------------------------------------------------------------------------*/
FoamFile
{
    version     2.0;
    format      ascii;
    class       volScalarField;
    location    "0.2375";
    object      p;
}
// * * * * * * * * * * * * * * * * * * * * * * * * * * * * * * * * * * * * * //

dimensions      [0 2 -2 0 0 0 0];

internalField   nonuniform List<scalar> 
12800
(
3.14798e-06
3.16687e-05
-4.09136e-06
-0.000114409
-0.000290753
-0.000522807
-0.000799601
-0.00111046
-0.00144571
-0.00179689
-0.00215674
-0.00251909
-0.00287877
-0.00323153
-0.00357388
-0.00390304
-0.00421681
-0.00451348
-0.00479181
-0.00505093
-0.00529031
-0.00550963
-0.00570883
-0.00588799
-0.00604735
-0.00618723
-0.00630804
-0.00641024
-0.00649431
-0.00656073
-0.00660998
-0.00664255
-0.00665886
-0.00665933
-0.00664432
-0.00661416
-0.00656912
-0.00650945
-0.00643531
-0.00634683
-0.00624409
-0.00612712
-0.00599589
-0.00585032
-0.00569028
-0.00551559
-0.00532602
-0.00512129
-0.00490108
-0.00466499
-0.00441262
-0.00414349
-0.00385709
-0.00355287
-0.00323022
-0.0028885
-0.00252702
-0.00214502
-0.00174172
-0.00131629
-0.000867851
-0.000395463
0.000101848
0.000625111
0.0011754
0.00175386
0.00236165
0.00300001
0.00367021
0.00437357
0.00511147
0.00588534
0.00669664
0.00754689
0.00843765
0.00937052
0.0103471
0.0113692
0.0124383
0.0135563
0.0147249
0.0159458
0.0172208
0.0185517
0.0199402
0.0213879
0.0228966
0.024468
0.0261035
0.0278047
0.0295729
0.0314095
0.0333156
0.0352921
0.03734
0.0394598
0.0416519
0.0439165
0.0462534
0.0486623
0.0511424
0.0536926
0.0563114
0.0589969
0.0617468
0.0645583
0.0674281
0.0703525
0.0733271
0.0763471
0.0794071
0.0825012
0.0856227
0.0887645
0.0919192
0.0950783
0.0982333
0.101375
0.104494
0.107579
0.110621
0.113609
0.116532
0.11938
0.12214
0.124802
0.127356
0.129791
0.132096
0.134263
0.136283
0.138147
0.139848
0.141381
0.142739
0.14392
0.144921
0.14574
0.146378
0.146837
0.14712
0.147233
0.147183
0.146977
0.146626
0.146142
0.145539
0.144832
0.144038
0.143176
0.142268
0.141338
0.140411
0.139518
0.13869
0.137963
0.137378
0.136972
0.136788
0.136812
-2.08716e-05
5.81342e-06
-3.13598e-05
-0.000132232
-0.000287432
-0.000489855
-0.000731655
-0.00100455
-0.00130066
-0.00161285
-0.00193475
-0.00226086
-0.00258641
-0.00290738
-0.00322044
-0.00352286
-0.00381241
-0.00408735
-0.00434631
-0.00458831
-0.00481265
-0.00501888
-0.00520676
-0.00537623
-0.00552735
-0.00566031
-0.00577535
-0.00587278
-0.00595296
-0.00601623
-0.00606296
-0.00609351
-0.00610823
-0.00610743
-0.00609138
-0.00606034
-0.00601451
-0.00595407
-0.00587913
-0.00578979
-0.00568608
-0.00556798
-0.00543544
-0.00528836
-0.00512656
-0.00494987
-0.00475802
-0.00455072
-0.00432765
-0.0040884
-0.00383255
-0.00355964
-0.00326914
-0.0029605
-0.00263314
-0.0022864
-0.00191961
-0.00153203
-0.00112288
-0.00069135
-0.000236569
0.000242368
0.000746416
0.00127658
0.0018339
0.00241948
0.00303446
0.00368002
0.0043574
0.00506788
0.00581278
0.00659347
0.00741135
0.00826788
0.00916455
0.0101029
0.0110844
0.0121108
0.0131836
0.0143044
0.015475
0.0166969
0.0179717
0.0193013
0.0206871
0.0221307
0.0236338
0.0251978
0.0268241
0.0285141
0.0302691
0.0320902
0.0339785
0.0359347
0.0379596
0.0400536
0.0422172
0.0444501
0.0467524
0.0491234
0.0515623
0.0540678
0.0566386
0.0592726
0.0619675
0.0647205
0.0675283
0.0703872
0.0732931
0.076241
0.0792259
0.0822418
0.0852825
0.0883411
0.0914102
0.094482
0.0975482
0.1006
0.103628
0.106623
0.109575
0.112474
0.115309
0.118071
0.120748
0.123331
0.12581
0.128175
0.130416
0.132525
0.134493
0.136314
0.137979
0.139485
0.140826
0.141999
0.143002
0.143834
0.144496
0.14499
0.145319
0.145488
0.145505
0.145377
0.145115
0.14473
0.144234
0.143644
0.142974
0.142243
0.141471
0.140679
0.139892
0.139136
0.138436
0.137825
0.137329
0.13698
0.136812
0.136837
1.58509e-05
4.31962e-05
5.70063e-06
-9.02183e-05
-0.00023349
-0.000418098
-0.000637714
-0.000885482
-0.00115476
-0.00143939
-0.00173381
-0.00203308
-0.00233286
-0.00262944
-0.00291966
-0.0032009
-0.003471
-0.00372822
-0.00397119
-0.00419885
-0.00441043
-0.00460538
-0.00478338
-0.00494424
-0.00508794
-0.00521452
-0.00532415
-0.00541703
-0.00549338
-0.00555349
-0.00559761
-0.00562602
-0.00563898
-0.00563673
-0.00561948
-0.00558743
-0.00554072
-0.00547946
-0.00540374
-0.0053136
-0.00520904
-0.00509001
-0.00495643
-0.00480817
-0.00464504
-0.00446683
-0.00427328
-0.00406409
-0.00383889
-0.0035973
-0.00333889
-0.00306319
-0.00276967
-0.00245779
-0.00212696
-0.00177653
-0.00140584
-0.00101416
-0.000600732
-0.000164744
0.000294646
0.00077833
0.00128724
0.00182236
0.0023847
0.00297533
0.00359537
0.00424596
0.0049283
0.00564363
0.00639322
0.00717839
0.0080005
0.00886095
0.00976116
0.0107026
0.0116868
0.0127152
0.0137894
0.014911
0.0160815
0.0173024
0.0185754
0.0199019
0.0212836
0.0227219
0.0242183
0.0257742
0.0273909
0.0290697
0.0308117
0.032618
0.0344895
0.036427
0.038431
0.040502
0.0426401
0.0448454
0.0471175
0.0494558
0.0518595
0.0543273
0.0568577
0.0594486
0.0620978
0.0648025
0.0675595
0.0703651
0.0732152
0.0761051
0.0790297
0.0819833
0.0849599
0.0879527
0.0909546
0.0939581
0.0969552
0.0999373
0.102896
0.105821
0.108704
0.111535
0.114304
0.117001
0.119616
0.12214
0.124563
0.126876
0.12907
0.131136
0.133067
0.134856
0.136496
0.137983
0.139312
0.140481
0.141487
0.14233
0.14301
0.143531
0.143895
0.144108
0.144176
0.144107
0.143911
0.143598
0.143183
0.142677
0.142098
0.141461
0.140785
0.140091
0.1394
0.138734
0.138118
0.137575
0.137131
0.136809
0.136642
0.136653
0.000126902
0.00014451
0.000101078
4.38248e-06
-0.000134616
-0.000310297
-0.000517065
-0.000748993
-0.00100033
-0.00126571
-0.00154021
-0.00181943
-0.00209946
-0.00237691
-0.00264887
-0.00291285
-0.00316682
-0.00340912
-0.00363838
-0.00385356
-0.00405386
-0.00423871
-0.0044077
-0.0045606
-0.00469731
-0.00481781
-0.00492217
-0.00501052
-0.00508301
-0.00513985
-0.00518121
-0.00520732
-0.00521836
-0.0052145
-0.00519591
-0.00516272
-0.00511504
-0.00505292
-0.00497641
-0.00488552
-0.00478021
-0.0046604
-0.00452599
-0.00437682
-0.00421269
-0.00403336
-0.00383856
-0.00362798
-0.00340124
-0.00315795
-0.00289767
-0.00261994
-0.00232423
-0.00200999
-0.00167664
-0.00132354
-0.000950034
-0.000555398
-0.000138884
0.000300296
0.000762974
0.00125002
0.00176235
0.00230092
0.00286673
0.0034608
0.00408423
0.00473813
0.00542367
0.00614204
0.00689447
0.00768225
0.00850668
0.00936911
0.0102709
0.0112135
0.0121984
0.0132269
0.0143006
0.015421
0.0165895
0.0178077
0.019077
0.020399
0.021775
0.0232066
0.024695
0.0262417
0.0278478
0.0295146
0.0312431
0.0330344
0.0348893
0.0368083
0.0387922
0.0408413
0.0429556
0.045135
0.0473794
0.049688
0.0520599
0.0544939
0.0569885
0.0595416
0.062151
0.064814
0.0675274
0.0702875
0.0730904
0.0759315
0.0788059
0.0817079
0.0846317
0.0875707
0.0905181
0.0934666
0.0964082
0.0993348
0.102238
0.105108
0.107938
0.110716
0.113433
0.116081
0.118649
0.121128
0.12351
0.125784
0.127942
0.129977
0.131881
0.133648
0.135271
0.136745
0.138067
0.139234
0.140244
0.141097
0.141793
0.142335
0.142727
0.142973
0.143081
0.143057
0.142911
0.142653
0.142297
0.141854
0.14134
0.140771
0.140163
0.139536
0.138908
0.1383
0.137732
0.137226
0.136803
0.136483
0.136293
0.136253
0.000305574
0.000301257
0.000244394
0.000141327
1.01687e-06
-0.000171357
-0.000370812
-0.000592211
-0.000830595
-0.0010813
-0.00134002
-0.00160285
-0.00186632
-0.00212737
-0.00238337
-0.00263204
-0.00287148
-0.00310013
-0.00331669
-0.00352017
-0.00370976
-0.00388488
-0.00404512
-0.00419019
-0.00431994
-0.00443431
-0.00453331
-0.00461699
-0.00468545
-0.00473883
-0.00477726
-0.00480087
-0.00480981
-0.0048042
-0.00478414
-0.00474971
-0.00470097
-0.00463795
-0.00456065
-0.00446904
-0.00436304
-0.00424257
-0.00410747
-0.00395757
-0.00379264
-0.00361245
-0.00341669
-0.00320504
-0.00297713
-0.00273254
-0.00247084
-0.00219155
-0.00189416
-0.00157812
-0.00124284
-0.000887705
-0.000512044
-0.00011516
0.000303687
0.000745272
0.00121041
0.00169995
0.00221479
0.00275585
0.00332412
0.00392059
0.00454632
0.0052024
0.00588996
0.00661015
0.00736416
0.00815323
0.00897864
0.00984167
0.0107437
0.011686
0.01267
0.0136971
0.0147687
0.0158863
0.0170513
0.0182651
0.0195292
0.020845
0.0222138
0.023637
0.025116
0.0266519
0.0282461
0.0298995
0.0316133
0.0333884
0.0352255
0.0371253
0.0390883
0.0411147
0.0432047
0.0453582
0.0475749
0.049854
0.0521947
0.0545958
0.0570557
0.0595725
0.062144
0.0647674
0.0674397
0.0701574
0.0729166
0.0757127
0.0785411
0.0813962
0.0842723
0.0871631
0.090062
0.0929616
0.0958546
0.0987328
0.101588
0.104411
0.107194
0.109928
0.112602
0.115209
0.117738
0.12018
0.122527
0.12477
0.126901
0.128911
0.130794
0.132544
0.134154
0.13562
0.136938
0.138105
0.13912
0.139983
0.140694
0.141256
0.141672
0.141947
0.142088
0.142102
0.141998
0.141786
0.141477
0.141085
0.140624
0.140107
0.139552
0.138974
0.138391
0.137821
0.137283
0.136794
0.136372
0.136035
0.1358
0.135677
0.000542712
0.000507125
0.00043023
0.000315545
0.000168793
-5.35116e-06
-0.000202442
-0.000418073
-0.000647996
-0.000888196
-0.00113494
-0.00138483
-0.00163479
-0.00188211
-0.00212445
-0.00235976
-0.00258633
-0.00280269
-0.00300768
-0.00320033
-0.00337991
-0.00354584
-0.0036977
-0.00383521
-0.00395817
-0.00406649
-0.00416014
-0.00423912
-0.0043035
-0.00435334
-0.00438873
-0.00440975
-0.0044165
-0.00440904
-0.00438744
-0.00435173
-0.00430192
-0.00423801
-0.00415994
-0.00406768
-0.0039611
-0.00384009
-0.00370446
-0.00355403
-0.00338856
-0.00320777
-0.00301137
-0.002799
-0.00257029
-0.00232482
-0.00206215
-0.00178181
-0.00148327
-0.00116599
-0.000829383
-0.000472844
-9.57149e-05
0.000302695
0.000723113
0.0011663
0.00163305
0.0021242
0.00264062
0.0031832
0.00375291
0.00435071
0.00497765
0.00563476
0.00632315
0.00704392
0.00779823
0.00858728
0.00941229
0.0102745
0.0111752
0.0121158
0.0130974
0.0141216
0.0151896
0.0163029
0.0174627
0.0186706
0.0199278
0.0212358
0.0225958
0.0240091
0.0254771
0.0270009
0.0285816
0.0302204
0.0319182
0.0336759
0.0354942
0.0373738
0.0393151
0.0413184
0.0433837
0.045511
0.0477
0.0499499
0.05226
0.054629
0.0570553
0.0595373
0.0620726
0.0646586
0.0672925
0.0699707
0.0726894
0.0754444
0.0782309
0.0810437
0.0838771
0.0867251
0.0895812
0.0924382
0.095289
0.0981256
0.10094
0.103724
0.106468
0.109165
0.111804
0.114377
0.116874
0.119288
0.121608
0.123827
0.125937
0.127929
0.129798
0.131536
0.133138
0.134599
0.135917
0.137087
0.138109
0.138982
0.139707
0.140287
0.140724
0.141025
0.141194
0.141239
0.141169
0.140993
0.140724
0.140371
0.13995
0.139473
0.138954
0.138411
0.137857
0.137309
0.136783
0.136294
0.135858
0.135488
0.135191
0.134966
0.000828488
0.000755022
0.00065279
0.000521866
0.000364111
0.000183657
-1.55276e-05
-0.000229717
-0.000455307
-0.000688871
-0.000927218
-0.00116741
-0.0014068
-0.00164302
-0.00187399
-0.00209794
-0.00231333
-0.00251887
-0.00271348
-0.00289632
-0.0030667
-0.00322409
-0.00336809
-0.00349841
-0.00361486
-0.00371733
-0.00380576
-0.00388013
-0.00394046
-0.00398677
-0.00401911
-0.00403752
-0.00404206
-0.00403274
-0.00400959
-0.00397261
-0.00392176
-0.00385699
-0.00377825
-0.00368543
-0.0035784
-0.00345701
-0.00332105
-0.00317032
-0.00300456
-0.00282347
-0.00262675
-0.00241402
-0.00218491
-0.001939
-0.00167584
-0.00139494
-0.0010958
-0.00077786
-0.000440557
-8.32814e-05
0.000294613
0.000693808
0.00111502
0.00155898
0.00202648
0.00251833
0.00303537
0.00357848
0.00414859
0.00474665
0.00537366
0.00603063
0.00671861
0.0074387
0.00819201
0.00897969
0.00980292
0.0106629
0.0115609
0.0124982
0.013476
0.0144956
0.0155584
0.0166657
0.0178189
0.0190191
0.0202679
0.0215664
0.022916
0.0243179
0.0257733
0.0272835
0.0288494
0.0304722
0.0321527
0.0338918
0.0356903
0.0375488
0.0394676
0.0414471
0.0434874
0.0455884
0.0477497
0.0499707
0.0522507
0.0545884
0.0569824
0.0594309
0.0619318
0.0644827
0.0670806
0.0697222
0.0724038
0.0751213
0.07787
0.080645
0.0834407
0.0862512
0.0890701
0.0918906
0.0947055
0.0975073
0.100288
0.103039
0.105753
0.10842
0.111031
0.113579
0.116053
0.118445
0.120746
0.122949
0.125045
0.127026
0.128886
0.130618
0.132217
0.133678
0.134998
0.136174
0.137204
0.138089
0.138828
0.139425
0.139881
0.140203
0.140396
0.140467
0.140424
0.140277
0.140037
0.139714
0.139321
0.138871
0.138377
0.137854
0.137315
0.136774
0.136246
0.135743
0.135278
0.134864
0.134494
0.134155
0.00115314
0.00103726
0.00090562
0.000754639
0.000582027
0.000391411
0.000186333
-3.01196e-05
-0.000254946
-0.000485257
-0.000718355
-0.000951761
-0.00118322
-0.00141071
-0.00163244
-0.00184689
-0.00205272
-0.00224883
-0.00243427
-0.00260831
-0.00277032
-0.00291985
-0.00305654
-0.00318013
-0.00329043
-0.00338733
-0.00347074
-0.00354065
-0.00359703
-0.00363989
-0.00366925
-0.0036851
-0.00368746
-0.00367633
-0.00365168
-0.00361348
-0.00356166
-0.00349614
-0.00341682
-0.00332359
-0.00321626
-0.00309467
-0.0029586
-0.00280781
-0.00264203
-0.00246094
-0.00226423
-0.00205151
-0.0018224
-0.00157648
-0.00131329
-0.00103234
-0.000733125
-0.000415105
-7.77134e-05
0.000279651
0.000657624
0.00105688
0.00147811
0.00192206
0.00238946
0.00288111
0.00339783
0.0039405
0.00450999
0.00510724
0.0057332
0.00638887
0.00707526
0.00779342
0.00854443
0.0093294
0.0101495
0.0110058
0.0118996
0.0128321
0.0138045
0.0148181
0.0158741
0.0169739
0.0181186
0.0193097
0.0205483
0.0218358
0.0231734
0.0245622
0.0260036
0.0274985
0.0290481
0.0306534
0.0323153
0.0340347
0.0358123
0.0376486
0.0395441
0.0414991
0.0435138
0.045588
0.0477215
0.0499137
0.0521638
0.0544708
0.0568333
0.0592496
0.0617176
0.0642351
0.0667992
0.0694067
0.072054
0.0747373
0.0774519
0.080193
0.0829553
0.0857331
0.08852
0.0913095
0.0940944
0.0968675
0.0996208
0.102346
0.105036
0.10768
0.110271
0.1128
0.115258
0.117636
0.119926
0.122119
0.124208
0.126184
0.128041
0.129773
0.131374
0.13284
0.134166
0.135351
0.136392
0.137289
0.138043
0.138656
0.13913
0.139471
0.139684
0.139776
0.139755
0.13963
0.139411
0.139109
0.138735
0.138301
0.137821
0.137306
0.13677
0.136225
0.135682
0.135153
0.13465
0.134183
0.133733
0.133276
0.0015076
0.00134631
0.00118224
0.00100816
0.000817543
0.000613553
0.000399386
0.000177531
-4.95789e-05
-0.000279559
-0.000510168
-0.000739349
-0.000965232
-0.00118613
-0.00140056
-0.00160724
-0.00180504
-0.00199305
-0.00217048
-0.0023367
-0.00249121
-0.0026336
-0.00276359
-0.00288094
-0.00298549
-0.00307714
-0.00315582
-0.00322148
-0.0032741
-0.00331366
-0.00334015
-0.00335355
-0.00335384
-0.00334099
-0.00331493
-0.00327561
-0.00322293
-0.00315679
-0.00307705
-0.00298355
-0.00287611
-0.00275453
-0.00261857
-0.00246797
-0.00230244
-0.00212167
-0.00192529
-0.00171295
-0.00148424
-0.00123873
-0.000975961
-0.000695452
-0.000396695
-7.91531e-05
0.000257734
0.000614558
0.000991946
0.00139056
0.00181107
0.0022542
0.00272067
0.00321126
0.00372677
0.00426802
0.0048359
0.00543128
0.00605511
0.00670835
0.00739196
0.00810696
0.0088544
0.00963534
0.0104509
0.0113022
0.0121903
0.0131165
0.014082
0.015088
0.0161356
0.0172262
0.018361
0.0195412
0.0207681
0.0220429
0.0233667
0.0247409
0.0261665
0.0276447
0.0291764
0.0307628
0.0324047
0.0341029
0.0358582
0.0376713
0.0395424
0.0414721
0.0434604
0.0455073
0.0476127
0.0497759
0.0519963
0.0542729
0.0566045
0.0589894
0.0614257
0.0639112
0.0664432
0.0690187
0.0716343
0.074286
0.0769697
0.0796805
0.0824134
0.0851625
0.0879221
0.0906854
0.0934456
0.0961955
0.0989274
0.101633
0.104305
0.106934
0.109511
0.112028
0.114477
0.116848
0.119132
0.121323
0.12341
0.125388
0.127249
0.128986
0.130594
0.132069
0.133406
0.134603
0.135657
0.136569
0.137338
0.137967
0.138459
0.138817
0.139048
0.139158
0.139154
0.139045
0.138842
0.138553
0.13819
0.137764
0.137288
0.136772
0.136229
0.135669
0.135103
0.134539
0.13399
0.133464
0.132929
0.132355
0.00188364
0.00167503
0.00147636
0.00127685
0.00106569
0.000845701
0.000619775
0.000389863
0.000157873
-7.42864e-05
-0.000304809
-0.000532029
-0.000754439
-0.000970688
-0.00117958
-0.00138007
-0.00157128
-0.00175246
-0.001923
-0.00208239
-0.00223023
-0.00236623
-0.00249014
-0.00260179
-0.00270105
-0.00278785
-0.00286212
-0.00292382
-0.00297291
-0.00300937
-0.00303317
-0.00304428
-0.00304265
-0.00302822
-0.00300091
-0.00296062
-0.00290723
-0.00284061
-0.00276061
-0.00266704
-0.00255969
-0.00243833
-0.00230273
-0.00215258
-0.0019876
-0.00180743
-0.00161174
-0.00140014
-0.00117221
-0.000927523
-0.000665621
-0.000386027
-8.8235e-05
0.000228286
0.000564092
0.000919766
0.00129592
0.0016932
0.00211228
0.00255383
0.00301857
0.00350725
0.00402064
0.00455956
0.00512483
0.00571734
0.00633796
0.00698763
0.0076673
0.00837793
0.00912053
0.00989613
0.0107058
0.0115506
0.0124317
0.0133502
0.0143072
0.015304
0.0163417
0.0174215
0.0185446
0.0197123
0.0209258
0.0221861
0.0234946
0.0248524
0.0262606
0.0277204
0.0292327
0.0307985
0.0324189
0.0340946
0.0358263
0.0376148
0.0394605
0.0413638
0.0433249
0.0453438
0.0474204
0.0495543
0.0517448
0.0539911
0.056292
0.0586461
0.0610515
0.0635062
0.0660076
0.0685528
0.0711386
0.0737613
0.0764167
0.0791003
0.081807
0.0845314
0.0872676
0.0900092
0.0927494
0.0954812
0.0981969
0.100889
0.103548
0.106167
0.108737
0.111249
0.113695
0.116065
0.118351
0.120545
0.122638
0.124624
0.126494
0.128242
0.129863
0.131351
0.132703
0.133915
0.134986
0.135915
0.136702
0.137348
0.137857
0.138232
0.138479
0.138604
0.138614
0.138518
0.138324
0.138043
0.137685
0.13726
0.13678
0.136255
0.135696
0.135114
0.134516
0.133912
0.133311
0.132722
0.132103
0.131414
0.00227384
0.00201674
0.00178198
0.00155525
0.00132158
0.00108347
0.000843595
0.000603403
0.00036433
0.000127845
-0.000104661
-0.000331898
-0.000552699
-0.000766028
-0.000970976
-0.00116676
-0.0013527
-0.00152826
-0.00169297
-0.00184648
-0.00198851
-0.00211885
-0.00223734
-0.00234386
-0.00243833
-0.0025207
-0.00259094
-0.002649
-0.00269485
-0.00272847
-0.00274982
-0.00275885
-0.0027555
-0.00273967
-0.00271128
-0.0026702
-0.00261629
-0.00254939
-0.00246932
-0.00237587
-0.00226883
-0.00214794
-0.00201293
-0.0018635
-0.00169934
-0.0015201
-0.00132542
-0.0011149
-0.000888132
-0.000644674
-0.000384073
-0.000105853
0.000190484
0.000505465
0.000839638
0.00119357
0.00156788
0.00196317
0.0023801
0.00281933
0.00328157
0.00376751
0.00427793
0.0048136
0.00537533
0.00596394
0.00658031
0.00722533
0.00789991
0.00860497
0.0093415
0.0101105
0.0109129
0.0117499
0.0126225
0.0135317
0.0144788
0.0154649
0.016491
0.0175584
0.0186683
0.0198218
0.02102
0.0222643
0.0235557
0.0248954
0.0262845
0.0277241
0.0292153
0.030759
0.0323563
0.0340079
0.0357146
0.0374772
0.0392961
0.0411719
0.0431047
0.0450947
0.0471419
0.0492458
0.0514061
0.053622
0.0558923
0.0582158
0.0605909
0.0630155
0.0654873
0.0680037
0.0705614
0.073157
0.0757864
0.0784453
0.0811289
0.0838317
0.0865482
0.089272
0.0919965
0.0947146
0.097419
0.100102
0.102755
0.10537
0.107938
0.110451
0.1129
0.115275
0.117569
0.119773
0.121878
0.123877
0.125762
0.127527
0.129165
0.130672
0.132044
0.133276
0.134367
0.135316
0.136122
0.136787
0.137314
0.137707
0.137969
0.138108
0.138129
0.138042
0.137855
0.137577
0.137218
0.136788
0.136298
0.135758
0.135177
0.134566
0.133931
0.133281
0.132625
0.13197
0.131267
0.130468
0.00267147
0.00236526
0.00209338
0.00183812
0.00158041
0.00132251
0.00106691
0.000814608
0.000566605
0.000323967
8.77012e-05
-0.000141265
-0.000362092
-0.000574046
-0.000776491
-0.00096889
-0.0011508
-0.00132185
-0.00148176
-0.00163032
-0.00176737
-0.00189279
-0.00200652
-0.0021085
-0.00219871
-0.00227712
-0.00234373
-0.00239852
-0.00244147
-0.00247255
-0.00249172
-0.00249892
-0.00249407
-0.00247708
-0.00244782
-0.00240615
-0.00235192
-0.00228495
-0.00220502
-0.00211193
-0.00200542
-0.00188523
-0.00175106
-0.00160262
-0.00143957
-0.00126156
-0.0010682
-0.000859108
-0.000633857
-0.000392014
-0.000133125
0.000143281
0.0004377
0.000750647
0.00108266
0.0014343
0.00180615
0.00219882
0.00261295
0.00304916
0.00350813
0.00399056
0.00449717
0.00502871
0.00558596
0.00616973
0.00678083
0.00742012
0.00808849
0.00878683
0.00951606
0.0102771
0.0110711
0.0118988
0.0127615
0.0136601
0.0145957
0.0155695
0.0165825
0.0176359
0.0187308
0.0198684
0.0210498
0.0222762
0.0235488
0.0248686
0.0262369
0.0276546
0.029123
0.0306429
0.0322153
0.0338413
0.0355214
0.0372566
0.0390474
0.0408943
0.0427977
0.0447578
0.0467746
0.0488479
0.0509774
0.0531623
0.0554019
0.0576949
0.0600398
0.0624348
0.0648779
0.0673663
0.0698972
0.0724672
0.0750726
0.077709
0.0803719
0.0830561
0.0857559
0.0884653
0.0911778
0.0938864
0.0965839
0.0992623
0.101914
0.10453
0.107102
0.109621
0.112079
0.114465
0.116773
0.118992
0.121115
0.123134
0.12504
0.126827
0.128489
0.13002
0.131416
0.132673
0.133788
0.13476
0.135589
0.136276
0.136822
0.137232
0.13751
0.137662
0.137694
0.137614
0.13743
0.137152
0.136788
0.136349
0.135844
0.135284
0.134676
0.134031
0.133356
0.132656
0.131942
0.131221
0.130436
0.12953
0.00307036
0.00271479
0.00240516
0.00212042
0.00183751
0.00155851
0.00128577
0.00101987
0.00076141
0.000511084
0.000269544
3.73742e-05
-0.000184904
-0.000396844
-0.000598077
-0.000788307
-0.000967303
-0.0011349
-0.00129097
-0.00143546
-0.00156833
-0.00168957
-0.0017992
-0.00189724
-0.00198372
-0.00205866
-0.00212209
-0.00217401
-0.00221442
-0.00224329
-0.00226059
-0.00226624
-0.00226017
-0.00224225
-0.00221236
-0.00217034
-0.00211602
-0.0020492
-0.00196964
-0.00187713
-0.00177138
-0.00165213
-0.00151906
-0.00137187
-0.00121021
-0.0010337
-0.000841974
-0.000634626
-0.000411237
-0.000171371
8.54195e-05
0.000359601
0.000651662
0.000962109
0.00129147
0.00164028
0.00200912
0.00239858
0.00280926
0.00324178
0.00369679
0.00417494
0.00467695
0.00520352
0.00575541
0.00633338
0.00693823
0.00757077
0.00823185
0.00892232
0.00964308
0.010395
0.0111791
0.0119964
0.0128477
0.0137342
0.0146569
0.0156169
0.0166151
0.0176529
0.0187312
0.0198512
0.0210141
0.0222209
0.0234729
0.0247711
0.0261167
0.0275109
0.0289546
0.0304489
0.0319949
0.0335935
0.0352455
0.0369517
0.0387129
0.0405295
0.0424022
0.0443311
0.0463164
0.0483581
0.050456
0.0526094
0.0548177
0.0570799
0.0593947
0.0617603
0.064175
0.0666361
0.0691411
0.0716868
0.0742696
0.0768853
0.0795296
0.0821974
0.0848833
0.0875813
0.0902851
0.0929879
0.0956822
0.0983606
0.101015
0.103637
0.106217
0.108748
0.11122
0.113624
0.115951
0.118192
0.120339
0.122383
0.124316
0.126131
0.127822
0.129383
0.130808
0.132094
0.133237
0.134237
0.135092
0.135803
0.136372
0.136801
0.137096
0.137261
0.137303
0.137229
0.137047
0.136766
0.136395
0.135943
0.13542
0.134835
0.134197
0.133515
0.132795
0.132043
0.13127
0.130484
0.129618
0.128611
0.00346484
0.00305989
0.00271216
0.0023973
0.00208834
0.00178723
0.00149623
0.00121555
0.000945381
0.000686091
0.000437997
0.000201362
-2.35997e-05
-0.00023672
-0.000437884
-0.000627032
-0.000804145
-0.000969246
-0.00112239
-0.00126364
-0.0013931
-0.00151087
-0.00161706
-0.00171176
-0.00179506
-0.00186704
-0.00192775
-0.00197723
-0.00201548
-0.00204251
-0.00205826
-0.00206267
-0.00205566
-0.00203709
-0.00200683
-0.0019647
-0.00191053
-0.00184408
-0.00176513
-0.00167342
-0.00156867
-0.00145059
-0.00131887
-0.00117318
-0.00101315
-0.000838428
-0.000648617
-0.000443316
-0.000222104
1.54492e-05
0.000269785
0.000541363
0.000830661
0.00113818
0.00146442
0.00180993
0.00217524
0.00256093
0.00296757
0.00339577
0.00384614
0.00431931
0.00481596
0.00533677
0.00588245
0.00645374
0.0070514
0.00767619
0.00832894
0.00901045
0.00972159
0.0104632
0.0112363
0.0120416
0.0128803
0.0137533
0.0146616
0.0156062
0.0165882
0.0176087
0.0186688
0.0197696
0.0209121
0.0220977
0.0233273
0.0246021
0.0259233
0.027292
0.0287093
0.0301763
0.0316941
0.0332635
0.0348856
0.0365613
0.0382912
0.0400761
0.0419166
0.043813
0.0457656
0.0477746
0.0498398
0.0519609
0.0541373
0.0563682
0.0586525
0.0609887
0.063375
0.0658092
0.0682889
0.0708111
0.0733723
0.0759687
0.078596
0.0812494
0.0839236
0.0866128
0.0893108
0.0920108
0.0947057
0.0973877
0.100049
0.102681
0.105275
0.107822
0.110314
0.11274
0.115092
0.117361
0.119537
0.121612
0.123578
0.125428
0.127153
0.128749
0.130209
0.131529
0.132706
0.133737
0.134622
0.135361
0.135955
0.136406
0.136719
0.136899
0.136951
0.136883
0.136702
0.136417
0.136036
0.13557
0.135026
0.134414
0.133743
0.133021
0.132254
0.131449
0.130617
0.129764
0.12882
0.127718
0.00384962
0.00339546
0.00300947
0.00266409
0.00232848
0.00200452
0.0016944
0.00139797
0.0011151
0.000845801
0.000590084
0.000347909
0.000119205
-9.61324e-05
-0.000298238
-0.000487278
-0.000663441
-0.000826932
-0.00097797
-0.00111678
-0.00124357
-0.00135856
-0.00146195
-0.00155391
-0.00163458
-0.0017041
-0.00176256
-0.00181003
-0.00184654
-0.00187209
-0.00188664
-0.00189014
-0.00188248
-0.00186354
-0.00183318
-0.0017912
-0.00173741
-0.00167158
-0.00159346
-0.00150278
-0.00139925
-0.00128258
-0.00115242
-0.00100846
-0.000850313
-0.000677615
-0.000489975
-0.000286991
-6.82424e-05
0.000166696
0.000418258
0.000686891
0.000973064
0.00127726
0.00159998
0.00194173
0.00230303
0.00268444
0.00308651
0.00350981
0.00395492
0.00442245
0.00491303
0.00542733
0.00596601
0.00652977
0.00711934
0.00773545
0.00837887
0.00905037
0.00975078
0.0104809
0.0112417
0.012034
0.0128587
0.0137168
0.0146092
0.0155371
0.0165013
0.017503
0.0185432
0.019623
0.0207436
0.0219061
0.0231116
0.0243613
0.0256562
0.0269977
0.0283868
0.0298246
0.0313123
0.0328509
0.0344413
0.0360846
0.0377817
0.0395332
0.0413399
0.0432024
0.045121
0.0470959
0.0491274
0.0512151
0.0533587
0.0555576
0.0578108
0.0601171
0.0624749
0.0648823
0.0673369
0.069836
0.0723764
0.0749544
0.077566
0.0802066
0.0828709
0.0855534
0.088248
0.090948
0.0936464
0.0963355
0.0990073
0.101654
0.104265
0.106834
0.10935
0.111803
0.114186
0.116487
0.118698
0.120811
0.122816
0.124705
0.126471
0.128107
0.129608
0.130968
0.132183
0.133252
0.134171
0.134942
0.135564
0.136041
0.136375
0.136571
0.136635
0.136573
0.136393
0.136103
0.135713
0.135229
0.134663
0.134022
0.133316
0.132553
0.131738
0.130879
0.129987
0.12907
0.12805
0.126856
0.00421976
0.00371667
0.00329241
0.00291627
0.00255362
0.00220627
0.00187638
0.00156348
0.0012671
0.000986945
0.000722726
0.000474116
0.000240765
2.23123e-05
-0.000181619
-0.000371415
-0.000547464
-0.000710153
-0.000859861
-0.000996955
-0.00112178
-0.00123465
-0.00133585
-0.00142564
-0.00150423
-0.0015718
-0.00162849
-0.00167439
-0.00170956
-0.00173401
-0.00174771
-0.00175061
-0.00174262
-0.0017236
-0.0016934
-0.00165183
-0.00159867
-0.00153367
-0.0014566
-0.00136716
-0.00126507
-0.00115
-0.00102162
-0.000879588
-0.000723534
-0.000553079
-0.000367835
-0.0001674
4.86374e-05
0.000280699
0.000529208
0.0007946
0.00107733
0.00137787
0.00169669
0.00203429
0.00239117
0.00276785
0.00316485
0.00358271
0.00402199
0.00448327
0.00496714
0.00547423
0.00600517
0.00656062
0.00714126
0.00774779
0.00838094
0.00904144
0.00973007
0.0104476
0.0111949
0.0119729
0.0127823
0.0136242
0.0144995
0.0154091
0.016354
0.0173354
0.0183541
0.0194114
0.0205084
0.0216461
0.0228257
0.0240485
0.0253155
0.0266279
0.0279869
0.0293938
0.0308495
0.0323554
0.0339124
0.0355216
0.037184
0.0389005
0.0406718
0.0424987
0.0443817
0.0463213
0.0483176
0.0503707
0.0524805
0.0546464
0.0568677
0.0591435
0.0614724
0.0638526
0.066282
0.0687582
0.0712782
0.0738385
0.0764353
0.0790641
0.08172
0.0843976
0.0870908
0.0897931
0.0924976
0.0951967
0.0978825
0.100546
0.10318
0.105774
0.108318
0.110804
0.113222
0.115562
0.117814
0.119969
0.122019
0.123954
0.125766
0.127449
0.128996
0.130402
0.131661
0.132772
0.133731
0.134538
0.135193
0.135698
0.136056
0.136271
0.136349
0.136295
0.136117
0.135824
0.135422
0.134922
0.134333
0.133662
0.13292
0.132114
0.131251
0.130338
0.129386
0.128405
0.127311
0.126029
0.00457056
0.00401891
0.00355649
0.00314949
0.00275956
0.00238847
0.00203833
0.0017084
0.00139789
0.0011062
0.000832766
0.000576975
0.000338218
0.000115881
-9.06426e-05
-0.000281954
-0.000458637
-0.000621253
-0.000770337
-0.000906396
-0.0010299
-0.00114127
-0.00124088
-0.00132906
-0.00140609
-0.00147221
-0.00152758
-0.00157234
-0.00160657
-0.0016303
-0.0016435
-0.00164614
-0.00163811
-0.00161929
-0.00158951
-0.00154858
-0.00149627
-0.00143233
-0.0013565
-0.0012685
-0.00116802
-0.00105473
-0.000928305
-0.000788382
-0.000634594
-0.000466561
-0.000283896
-8.62025e-05
0.000126923
0.000355891
0.000601116
0.000863022
0.00114205
0.00143864
0.00175326
0.00208637
0.00243845
0.00281
0.0032015
0.00361346
0.00404641
0.00450089
0.00497746
0.00547671
0.00599923
0.00654564
0.00711658
0.0077127
0.00833469
0.00898325
0.00965911
0.010363
0.0110958
0.0118583
0.0126512
0.0134756
0.0143324
0.0152223
0.0161466
0.0171061
0.0181019
0.019135
0.0202067
0.021318
0.0224701
0.0236641
0.0249013
0.0261829
0.0275101
0.0288841
0.0303062
0.0317775
0.0332992
0.0348725
0.0364984
0.0381781
0.0399123
0.041702
0.0435478
0.0454505
0.0474102
0.0494274
0.051502
0.0536338
0.0558223
0.0580667
0.0603658
0.0627183
0.0651223
0.0675754
0.070075
0.0726179
0.0752003
0.0778181
0.0804666
0.0831405
0.0858339
0.0885405
0.0912534
0.0939651
0.0966677
0.0993527
0.102011
0.104634
0.107212
0.109735
0.112193
0.114576
0.116874
0.119078
0.121178
0.123165
0.12503
0.126766
0.128365
0.129822
0.131132
0.13229
0.133294
0.134142
0.134835
0.135373
0.135759
0.135996
0.13609
0.136047
0.135873
0.135576
0.135165
0.134649
0.134036
0.133335
0.132556
0.131708
0.130796
0.129828
0.128817
0.127773
0.126607
0.12524
0.00489753
0.00429775
0.00379738
0.00335953
0.00294219
0.00254713
0.00217644
0.00182908
0.00150395
0.00120021
0.000916983
0.000653401
0.000408601
0.000181729
-2.80478e-05
-0.000221537
-0.000399512
-0.000562705
-0.000711804
-0.000847452
-0.000970234
-0.00108068
-0.00117925
-0.00126635
-0.00134232
-0.00140745
-0.00146196
-0.001506
-0.00153968
-0.00156304
-0.00157608
-0.00157876
-0.00157099
-0.00155262
-0.0015235
-0.00148343
-0.00143217
-0.00136948
-0.00129507
-0.00120867
-0.00110995
-0.00099859
-0.000874249
-0.000736569
-0.000585179
-0.000419701
-0.000239751
-4.49414e-05
0.000165122
0.000390837
0.000632603
0.000890832
0.00116594
0.00145837
0.00176853
0.00209688
0.00244387
0.00280994
0.00319558
0.00360124
0.00402741
0.00447461
0.00494336
0.0054342
0.00594769
0.0064844
0.00704492
0.00762987