/*--------------------------------*- C++ -*----------------------------------*\
  =========                 |
  \\      /  F ield         | OpenFOAM: The Open Source CFD Toolbox
   \\    /   O peration     | Website:  https://openfoam.org
    \\  /    A nd           | Version:  7
     \\/     M anipulation  |
\*---------------------------------------------------------------------------*/
FoamFile
{
    version     2.0;
    format      ascii;
    class       volVectorField;
    location    "0.2375";
    object      U;
}
// * * * * * * * * * * * * * * * * * * * * * * * * * * * * * * * * * * * * * //

dimensions      [0 1 -1 0 0 0 0];

internalField   nonuniform List<vector> 
12800
(
(3.2646e-06 -3.6096e-06 0)
(1.85669e-05 -1.00683e-05 0)
(4.4918e-05 -1.21975e-05 0)
(7.13059e-05 -1.11373e-05 0)
(9.10262e-05 -8.31752e-06 0)
(0.000100745 -4.61557e-06 0)
(9.86904e-05 -5.35893e-07 0)
(8.40483e-05 3.626e-06 0)
(5.6653e-05 7.69841e-06 0)
(1.67553e-05 1.15823e-05 0)
(-3.51319e-05 1.52216e-05 0)
(-9.83291e-05 1.85867e-05 0)
(-0.000172058 2.16646e-05 0)
(-0.00025549 2.44537e-05 0)
(-0.000347775 2.69598e-05 0)
(-0.000448071 2.91932e-05 0)
(-0.000555554 3.11674e-05 0)
(-0.000669436 3.28986e-05 0)
(-0.000788969 3.44045e-05 0)
(-0.000913456 3.57035e-05 0)
(-0.00104225 3.6814e-05 0)
(-0.00117475 3.77537e-05 0)
(-0.00131043 3.85407e-05 0)
(-0.0014488 3.91924e-05 0)
(-0.00158941 3.97249e-05 0)
(-0.00173189 4.01535e-05 0)
(-0.00187589 4.04927e-05 0)
(-0.00202114 4.07559e-05 0)
(-0.00216736 4.09556e-05 0)
(-0.00231436 4.11029e-05 0)
(-0.00246195 4.12084e-05 0)
(-0.00261001 4.12813e-05 0)
(-0.0027584 4.13304e-05 0)
(-0.00290705 4.1363e-05 0)
(-0.0030559 4.13859e-05 0)
(-0.00320491 4.1405e-05 0)
(-0.00335407 4.14254e-05 0)
(-0.00350336 4.14515e-05 0)
(-0.0036528 4.14872e-05 0)
(-0.00380243 4.15357e-05 0)
(-0.00395227 4.16001e-05 0)
(-0.00410239 4.16834e-05 0)
(-0.00425283 4.1788e-05 0)
(-0.00440367 4.19157e-05 0)
(-0.00455497 4.20676e-05 0)
(-0.00470682 4.22446e-05 0)
(-0.0048593 4.24483e-05 0)
(-0.0050125 4.26801e-05 0)
(-0.00516649 4.29405e-05 0)
(-0.00532138 4.32295e-05 0)
(-0.00547726 4.3547e-05 0)
(-0.00563422 4.38932e-05 0)
(-0.00579235 4.42684e-05 0)
(-0.00595176 4.46728e-05 0)
(-0.00611253 4.51063e-05 0)
(-0.00627475 4.55684e-05 0)
(-0.00643852 4.6058e-05 0)
(-0.00660392 4.65745e-05 0)
(-0.00677105 4.71172e-05 0)
(-0.00693997 4.76848e-05 0)
(-0.00711076 4.82763e-05 0)
(-0.00728351 4.88903e-05 0)
(-0.00745826 4.95253e-05 0)
(-0.00763509 5.01793e-05 0)
(-0.00781405 5.08499e-05 0)
(-0.00799517 5.1535e-05 0)
(-0.00817849 5.22322e-05 0)
(-0.00836405 5.2939e-05 0)
(-0.00855184 5.36523e-05 0)
(-0.00874188 5.43681e-05 0)
(-0.00893415 5.50824e-05 0)
(-0.00912862 5.57912e-05 0)
(-0.00932526 5.64903e-05 0)
(-0.00952401 5.71751e-05 0)
(-0.00972479 5.78404e-05 0)
(-0.00992751 5.84802e-05 0)
(-0.010132 5.9088e-05 0)
(-0.0103383 5.96573e-05 0)
(-0.010546 6.01812e-05 0)
(-0.010755 6.06525e-05 0)
(-0.0109652 6.10633e-05 0)
(-0.0111763 6.1405e-05 0)
(-0.0113879 6.16686e-05 0)
(-0.0115999 6.18445e-05 0)
(-0.0118118 6.1923e-05 0)
(-0.0120233 6.1894e-05 0)
(-0.0122339 6.17467e-05 0)
(-0.0124434 6.14702e-05 0)
(-0.012651 6.10528e-05 0)
(-0.0128565 6.04825e-05 0)
(-0.0130591 5.97468e-05 0)
(-0.0132583 5.88332e-05 0)
(-0.0134535 5.77293e-05 0)
(-0.0136439 5.64223e-05 0)
(-0.0138289 5.48995e-05 0)
(-0.0140076 5.31479e-05 0)
(-0.0141793 5.11544e-05 0)
(-0.0143432 4.89068e-05 0)
(-0.0144984 4.63936e-05 0)
(-0.0146439 4.36035e-05 0)
(-0.0147788 4.05261e-05 0)
(-0.0149021 3.71513e-05 0)
(-0.0150129 3.34705e-05 0)
(-0.01511 2.94768e-05 0)
(-0.0151926 2.51645e-05 0)
(-0.0152595 2.05299e-05 0)
(-0.0153096 1.55712e-05 0)
(-0.015342 1.02884e-05 0)
(-0.0153555 4.68459e-06 0)
(-0.0153492 -1.23459e-06 0)
(-0.0153221 -7.46068e-06 0)
(-0.0152732 -1.39817e-05 0)
(-0.0152016 -2.07821e-05 0)
(-0.0151065 -2.78428e-05 0)
(-0.0149872 -3.5141e-05 0)
(-0.0148429 -4.265e-05 0)
(-0.0146731 -5.0339e-05 0)
(-0.0144772 -5.81729e-05 0)
(-0.0142551 -6.61119e-05 0)
(-0.0140063 -7.41124e-05 0)
(-0.013731 -8.2127e-05 0)
(-0.0134292 -9.01045e-05 0)
(-0.0131012 -9.799e-05 0)
(-0.0127475 -0.000105725 0)
(-0.0123687 -0.000113247 0)
(-0.0119657 -0.000120494 0)
(-0.0115395 -0.000127399 0)
(-0.0110915 -0.000133896 0)
(-0.0106232 -0.000139918 0)
(-0.0101362 -0.000145397 0)
(-0.00963244 -0.000150267 0)
(-0.00911412 -0.000154465 0)
(-0.00858352 -0.000157928 0)
(-0.00804316 -0.0001606 0)
(-0.00749574 -0.000162427 0)
(-0.00694409 -0.000163362 0)
(-0.0063912 -0.000163362 0)
(-0.00584018 -0.000162394 0)
(-0.00529422 -0.000160428 0)
(-0.0047566 -0.000157446 0)
(-0.00423063 -0.000153435 0)
(-0.00371965 -0.000148391 0)
(-0.003227 -0.000142319 0)
(-0.00275596 -0.00013523 0)
(-0.00230977 -0.000127143 0)
(-0.00189156 -0.000118085 0)
(-0.00150435 -0.000108089 0)
(-0.00115101 -9.71939e-05 0)
(-0.000834217 -8.54477e-05 0)
(-0.000556431 -7.29052e-05 0)
(-0.000319835 -5.96349e-05 0)
(-0.000126261 -4.57277e-05 0)
(2.29209e-05 -3.13166e-05 0)
(0.000127 -1.66119e-05 0)
(0.000186219 -1.9685e-06 0)
(0.000202353 1.192e-05 0)
(0.000179545 2.38171e-05 0)
(0.000126121 3.13069e-05 0)
(6.02983e-05 2.98775e-05 0)
(1.37293e-05 1.375e-05 0)
(9.90265e-06 -1.91024e-05 0)
(4.23259e-05 -4.26148e-05 0)
(8.90494e-05 -4.82903e-05 0)
(0.000130976 -4.07297e-05 0)
(0.000155411 -2.47869e-05 0)
(0.000154935 -3.91614e-06 0)
(0.000124945 1.95571e-05 0)
(6.29111e-05 4.40801e-05 0)
(-3.21283e-05 6.86254e-05 0)
(-0.000160022 9.25181e-05 0)
(-0.00031985 0.00011532 0)
(-0.000510169 0.000136757 0)
(-0.000729191 0.000156664 0)
(-0.000974921 0.000174959 0)
(-0.00124525 0.000191618 0)
(-0.00153802 0.00020666 0)
(-0.00185111 0.000220131 0)
(-0.00218244 0.000232102 0)
(-0.00253001 0.000242657 0)
(-0.00289195 0.000251891 0)
(-0.00326649 0.000259903 0)
(-0.00365199 0.000266797 0)
(-0.00404696 0.000272675 0)
(-0.00445003 0.000277641 0)
(-0.00485997 0.000281794 0)
(-0.00527569 0.000285229 0)
(-0.00569621 0.000288037 0)
(-0.00612068 0.000290303 0)
(-0.00654837 0.000292107 0)
(-0.00697865 0.000293524 0)
(-0.00741099 0.00029462 0)
(-0.00784496 0.000295459 0)
(-0.00828019 0.000296098 0)
(-0.00871642 0.000296589 0)
(-0.00915345 0.000296977 0)
(-0.00959112 0.000297303 0)
(-0.0100294 0.000297606 0)
(-0.0104681 0.000297916 0)
(-0.0109075 0.000298265 0)
(-0.0113474 0.000298675 0)
(-0.011788 0.00029917 0)
(-0.0122294 0.000299768 0)
(-0.0126717 0.000300488 0)
(-0.0131152 0.000301343 0)
(-0.0135599 0.000302344 0)
(-0.0140062 0.000303502 0)
(-0.0144542 0.000304824 0)
(-0.0149041 0.000306319 0)
(-0.0153562 0.000307991 0)
(-0.0158108 0.000309845 0)
(-0.016268 0.000311882 0)
(-0.0167282 0.000314103 0)
(-0.0171916 0.00031651 0)
(-0.0176584 0.0003191 0)
(-0.0181289 0.000321872 0)
(-0.0186034 0.000324824 0)
(-0.0190821 0.00032795 0)
(-0.0195652 0.000331245 0)
(-0.0200529 0.000334702 0)
(-0.0205455 0.000338313 0)
(-0.0210432 0.000342068 0)
(-0.0215461 0.000345957 0)
(-0.0220545 0.000349968 0)
(-0.0225684 0.000354087 0)
(-0.023088 0.000358297 0)
(-0.0236134 0.000362582 0)
(-0.0241447 0.000366923 0)
(-0.0246819 0.000371299 0)
(-0.025225 0.000375686 0)
(-0.025774 0.000380061 0)
(-0.0263288 0.000384394 0)
(-0.0268894 0.000388656 0)
(-0.0274556 0.000392815 0)
(-0.0280271 0.000396836 0)
(-0.0286038 0.000400682 0)
(-0.0291853 0.000404314 0)
(-0.0297712 0.000407687 0)
(-0.0303611 0.000410755 0)
(-0.0309546 0.000413471 0)
(-0.0315509 0.000415783 0)
(-0.0321496 0.000417637 0)
(-0.0327498 0.000418974 0)
(-0.0333508 0.000419736 0)
(-0.0339515 0.000419858 0)
(-0.0345511 0.000419275 0)
(-0.0351485 0.000417918 0)
(-0.0357424 0.000415717 0)
(-0.0363316 0.000412598 0)
(-0.0369146 0.000408486 0)
(-0.0374901 0.000403304 0)
(-0.0380562 0.000396972 0)
(-0.0386115 0.000389411 0)
(-0.0391539 0.000380541 0)
(-0.0396817 0.000370281 0)
(-0.0401926 0.000358552 0)
(-0.0406846 0.000345275 0)
(-0.0411555 0.000330373 0)
(-0.0416028 0.000313772 0)
(-0.0420241 0.000295402 0)
(-0.0424168 0.000275197 0)
(-0.0427784 0.000253098 0)
(-0.0431061 0.000229052 0)
(-0.0433971 0.000203014 0)
(-0.0436488 0.000174948 0)
(-0.0438581 0.000144829 0)
(-0.0440223 0.000112646 0)
(-0.0441385 7.83995e-05 0)
(-0.0442039 4.21044e-05 0)
(-0.0442157 3.79363e-06 0)
(-0.0441711 -3.64824e-05 0)
(-0.0440676 -7.86543e-05 0)
(-0.0439026 -0.000122632 0)
(-0.0436737 -0.000168303 0)
(-0.0433789 -0.000215532 0)
(-0.0430161 -0.000264161 0)
(-0.0425837 -0.000314005 0)
(-0.0420801 -0.000364856 0)
(-0.0415042 -0.00041648 0)
(-0.0408554 -0.000468618 0)
(-0.0401332 -0.000520984 0)
(-0.0393376 -0.000573272 0)
(-0.0384691 -0.000625148 0)
(-0.0375286 -0.000676262 0)
(-0.0365175 -0.000726243 0)
(-0.035438 -0.000774702 0)
(-0.0342923 -0.000821237 0)
(-0.0330836 -0.000865439 0)
(-0.0318156 -0.000906891 0)
(-0.0304923 -0.000945173 0)
(-0.0291187 -0.00097987 0)
(-0.0277 -0.00101057 0)
(-0.026242 -0.00103689 0)
(-0.0247512 -0.00105844 0)
(-0.0232345 -0.00107488 0)
(-0.0216992 -0.00108587 0)
(-0.0201531 -0.00109114 0)
(-0.0186042 -0.00109042 0)
(-0.0170611 -0.00108351 0)
(-0.0155324 -0.00107024 0)
(-0.0140269 -0.0010505 0)
(-0.0125537 -0.00102423 0)
(-0.0111218 -0.00099142 0)
(-0.00974005 -0.000952114 0)
(-0.00841742 -0.000906415 0)
(-0.00716253 -0.00085448 0)
(-0.00598374 -0.000796527 0)
(-0.00488903 -0.00073283 0)
(-0.0038859 -0.000663736 0)
(-0.00298125 -0.000589663 0)
(-0.00218123 -0.000511133 0)
(-0.00149108 -0.000428798 0)
(-0.00091486 -0.00034351 0)
(-0.000455102 -0.000256427 0)
(-0.000112273 -0.000169205 0)
(0.000115939 -8.43215e-05 0)
(0.000235888 -5.61824e-06 0)
(0.000259436 6.07988e-05 0)
(0.000206311 0.000105107 0)
(0.000111523 0.000111764 0)
(2.96989e-05 6.01804e-05 0)
(1.2238e-05 -4.53297e-05 0)
(4.8479e-05 -8.93643e-05 0)
(9.4809e-05 -9.45277e-05 0)
(0.000128081 -7.1115e-05 0)
(0.000132915 -2.82683e-05 0)
(9.97811e-05 2.69155e-05 0)
(2.23689e-05 8.92024e-05 0)
(-0.000103057 0.000154831 0)
(-0.000278148 0.00022114 0)
(-0.000502986 0.000286276 0)
(-0.000776506 0.000348962 0)
(-0.00109682 0.000408348 0)
(-0.00146149 0.000463892 0)
(-0.00186767 0.000515281 0)
(-0.00231232 0.000562373 0)
(-0.00279229 0.000605153 0)
(-0.0033044 0.000643699 0)
(-0.00384553 0.000678158 0)
(-0.00441266 0.000708726 0)
(-0.00500292 0.000735636 0)
(-0.00561358 0.000759141 0)
(-0.0062421 0.000779506 0)
(-0.00688614 0.000797004 0)
(-0.00754357 0.000811907 0)
(-0.00821243 0.000824484 0)
(-0.00889098 0.000834994 0)
(-0.00957766 0.000843685 0)
(-0.0102711 0.000850794 0)
(-0.0109701 0.000856543 0)
(-0.0116737 0.000861139 0)
(-0.0123809 0.000864774 0)
(-0.013091 0.000867625 0)
(-0.0138035 0.000869855 0)
(-0.0145178 0.000871609 0)
(-0.0152337 0.000873022 0)
(-0.0159507 0.000874214 0)
(-0.0166689 0.000875292 0)
(-0.017388 0.000876352 0)
(-0.0181081 0.000877479 0)
(-0.0188292 0.000878748 0)
(-0.0195514 0.000880224 0)
(-0.0202749 0.000881965 0)
(-0.0209999 0.00088402 0)
(-0.0217267 0.000886433 0)
(-0.0224554 0.00088924 0)
(-0.0231865 0.000892472 0)
(-0.0239202 0.000896152 0)
(-0.0246568 0.000900303 0)
(-0.0253969 0.000904941 0)
(-0.0261406 0.000910077 0)
(-0.0268885 0.000915719 0)
(-0.0276409 0.000921872 0)
(-0.0283981 0.000928535 0)
(-0.0291606 0.000935707 0)
(-0.0299288 0.000943381 0)
(-0.030703 0.000951547 0)
(-0.0314836 0.000960192 0)
(-0.032271 0.000969299 0)
(-0.0330655 0.000978848 0)
(-0.0338674 0.000988814 0)
(-0.034677 0.000999168 0)
(-0.0354946 0.00100988 0)
(-0.0363205 0.00102091 0)
(-0.0371548 0.00103221 0)
(-0.0379977 0.00104375 0)
(-0.0388494 0.00105546 0)
(-0.0397099 0.0010673 0)
(-0.0405793 0.0010792 0)
(-0.0414576 0.00109108 0)
(-0.0423446 0.00110288 0)
(-0.0432403 0.00111452 0)
(-0.0441444 0.00112591 0)
(-0.0450567 0.00113694 0)
(-0.0459768 0.00114753 0)
(-0.0469042 0.00115756 0)
(-0.0478384 0.00116692 0)
(-0.0487787 0.00117547 0)
(-0.0497245 0.00118309 0)
(-0.0506748 0.00118964 0)
(-0.0516287 0.00119497 0)
(-0.0525851 0.00119892 0)
(-0.0535429 0.00120134 0)
(-0.0545005 0.00120203 0)
(-0.0554566 0.00120084 0)
(-0.0564095 0.00119756 0)
(-0.0573574 0.00119202 0)
(-0.0582984 0.00118399 0)
(-0.0592304 0.00117329 0)
(-0.0601511 0.0011597 0)
(-0.0610581 0.001143 0)
(-0.0619489 0.00112298 0)
(-0.0628206 0.00109941 0)
(-0.0636703 0.00107208 0)
(-0.064495 0.00104076 0)
(-0.0652913 0.00100523 0)
(-0.0660559 0.000965285 0)
(-0.0667852 0.000920717 0)
(-0.0674754 0.000871326 0)
(-0.0681227 0.000816928 0)
(-0.0687231 0.00075735 0)
(-0.0692724 0.000692439 0)
(-0.0697665 0.00062206 0)
(-0.0702011 0.000546103 0)
(-0.0705718 0.000464486 0)
(-0.0708742 0.000377157 0)
(-0.0711039 0.000284099 0)
(-0.0712566 0.000185333 0)
(-0.0713278 8.09219e-05 0)
(-0.0713134 -2.90231e-05 0)
(-0.0712092 -0.000144342 0)
(-0.0710113 -0.000264822 0)
(-0.0707158 -0.000390192 0)
(-0.0703193 -0.000520121 0)
(-0.0698185 -0.000654215 0)
(-0.0692106 -0.000792015 0)
(-0.068493 -0.000932995 0)
(-0.0676637 -0.00107656 0)
(-0.0667212 -0.00122205 0)
(-0.0656644 -0.00136873 0)
(-0.0644929 -0.00151581 0)
(-0.063207 -0.00166243 0)
(-0.0618076 -0.00180766 0)
(-0.0602963 -0.00195053 0)
(-0.0586755 -0.00209001 0)
(-0.0569484 -0.00222504 0)
(-0.0551191 -0.00235451 0)
(-0.0531924 -0.00247729 0)
(-0.0511741 -0.00259224 0)
(-0.0490708 -0.00269822 0)
(-0.0468899 -0.0027941 0)
(-0.0446399 -0.00287876 0)
(-0.0423297 -0.00295113 0)
(-0.0399694 -0.00301019 0)
(-0.0375695 -0.00305498 0)
(-0.0351416 -0.00308463 0)
(-0.0326974 -0.00309834 0)
(-0.0302497 -0.00309545 0)
(-0.0278113 -0.00307538 0)
(-0.0253955 -0.00303771 0)
(-0.0230161 -0.00298214 0)
(-0.0206868 -0.00290851 0)
(-0.0184215 -0.00281683 0)
(-0.0162337 -0.00270726 0)
(-0.0141371 -0.00258011 0)
(-0.0121449 -0.00243588 0)
(-0.0102697 -0.00227522 0)
(-0.00852355 -0.00209901 0)
(-0.00691769 -0.0019083 0)
(-0.00546233 -0.00170444 0)
(-0.0041664 -0.00148906 0)
(-0.00303727 -0.00126423 0)
(-0.00208038 -0.00103262 0)
(-0.00129867 -0.000797729 0)
(-0.000691916 -0.000564367 0)
(-0.000255695 -0.000339291 0)
(1.99226e-05 -0.000132152 0)
(0.000151888 4.29137e-05 0)
(0.000166262 0.000165471 0)
(0.000104996 0.000206458 0)
(3.10126e-05 0.000125609 0)
(1.1352e-05 -7.19392e-05 0)
(4.13588e-05 -0.000131588 0)
(7.1924e-05 -0.000127909 0)
(7.88784e-05 -7.82053e-05 0)
(4.59293e-05 3.68408e-06 0)
(-3.73886e-05 0.000106757 0)
(-0.000178196 0.000222553 0)
(-0.000380847 0.000344742 0)
(-0.000647377 0.000468665 0)
(-0.000978011 0.000590948 0)
(-0.00137159 0.000709189 0)
(-0.00182593 0.000821726 0)
(-0.0023381 0.000927456 0)
(-0.00290466 0.0010257 0)
(-0.00352184 0.00111611 0)
(-0.00418572 0.00119858 0)
(-0.00489229 0.0012732 0)
(-0.00563758 0.00134017 0)
(-0.00641772 0.00139983 0)
(-0.00722899 0.00145256 0)
(-0.00806787 0.00149883 0)
(-0.00893104 0.0015391 0)
(-0.00981543 0.00157387 0)
(-0.0107182 0.00160365 0)
(-0.0116368 0.00162892 0)
(-0.0125688 0.00165017 0)
(-0.0135123 0.00166787 0)
(-0.0144653 0.00168246 0)
(-0.0154262 0.00169437 0)
(-0.0163935 0.00170398 0)
(-0.0173662 0.00171167 0)
(-0.0183432 0.00171778 0)
(-0.0193236 0.00172261 0)
(-0.0203068 0.00172646 0)
(-0.0212922 0.00172959 0)
(-0.0222795 0.00173222 0)
(-0.0232684 0.00173457 0)
(-0.0242587 0.00173682 0)
(-0.0252503 0.00173915 0)
(-0.0262434 0.00174171 0)
(-0.0272379 0.00174461 0)
(-0.0282342 0.00174799 0)
(-0.0292324 0.00175193 0)
(-0.0302328 0.00175652 0)
(-0.0312358 0.00176184 0)
(-0.0322418 0.00176795 0)
(-0.0332511 0.0017749 0)
(-0.0342642 0.00178272 0)
(-0.0352816 0.00179147 0)
(-0.0363038 0.00180114 0)
(-0.0373312 0.00181178 0)
(-0.0383644 0.00182337 0)
(-0.0394038 0.00183593 0)
(-0.0404499 0.00184945 0)
(-0.0415033 0.00186391 0)
(-0.0425644 0.0018793 0)
(-0.0436338 0.00189559 0)
(-0.0447117 0.00191274 0)
(-0.0457988 0.00193072 0)
(-0.0468954 0.00194947 0)
(-0.0480018 0.00196893 0)
(-0.0491184 0.00198905 0)
(-0.0502455 0.00200973 0)
(-0.0513834 0.00203091 0)
(-0.0525321 0.00205249 0)
(-0.053692 0.00207436 0)
(-0.0548631 0.00209641 0)
(-0.0560453 0.00211852 0)
(-0.0572385 0.00214055 0)
(-0.0584428 0.00216234 0)
(-0.0596578 0.00218375 0)
(-0.0608831 0.00220459 0)
(-0.0621184 0.00222467 0)
(-0.0633631 0.00224381 0)
(-0.0646165 0.00226178 0)
(-0.0658779 0.00227835 0)
(-0.0671463 0.00229328 0)
(-0.0684207 0.00230632 0)
(-0.0696999 0.00231718 0)
(-0.0709824 0.00232558 0)
(-0.0722669 0.00233121 0)
(-0.0735516 0.00233376 0)
(-0.0748346 0.00233289 0)
(-0.0761138 0.00232826 0)
(-0.0773871 0.00231951 0)
(-0.0786519 0.00230626 0)
(-0.0799056 0.00228814 0)
(-0.0811454 0.00226474 0)
(-0.0823682 0.00223567 0)
(-0.0835707 0.00220051 0)
(-0.0847494 0.00215886 0)
(-0.0859006 0.00211029 0)
(-0.0870203 0.00205439 0)
(-0.0881044 0.00199075 0)
(-0.0891485 0.00191895 0)
(-0.0901482 0.00183861 0)
(-0.0910985 0.00174935 0)
(-0.0919946 0.00165079 0)
(-0.0928314 0.0015426 0)
(-0.0936036 0.00142448 0)
(-0.0943057 0.00129614 0)
(-0.0949323 0.00115736 0)
(-0.0954777 0.00100794 0)
(-0.0959362 0.000847752 0)
(-0.0963022 0.00067672 0)
(-0.0965699 0.000494839 0)
(-0.0967336 0.000302175 0)
(-0.0967878 9.88774e-05 0)
(-0.096727 -0.000114817 0)
(-0.0965458 -0.000338578 0)
(-0.0962394 -0.000571969 0)
(-0.0958028 -0.000814451 0)
(-0.0952317 -0.00106537 0)
(-0.0945219 -0.00132395 0)
(-0.09367 -0.0015893 0)
(-0.0926729 -0.00186041 0)
(-0.0915281 -0.00213612 0)
(-0.0902337 -0.00241516 0)
(-0.0887888 -0.00269614 0)
(-0.087193 -0.00297754 0)
(-0.0854467 -0.00325772 0)
(-0.0835515 -0.00353494 0)
(-0.0815096 -0.00380735 0)
(-0.0793244 -0.00407301 0)
(-0.0770003 -0.00432991 0)
(-0.0745427 -0.00457597 0)
(-0.0719581 -0.00480907 0)
(-0.0692541 -0.00502708 0)
(-0.0664395 -0.00522786 0)
(-0.0635242 -0.00540927 0)
(-0.0605189 -0.00556925 0)
(-0.0574358 -0.00570578 0)
(-0.0542877 -0.00581697 0)
(-0.0510885 -0.00590103 0)
(-0.0478531 -0.00595632 0)
(-0.044597 -0.00598139 0)
(-0.0413365 -0.00597498 0)
(-0.0380884 -0.00593604 0)
(-0.0348701 -0.00586378 0)
(-0.0316992 -0.00575768 0)
(-0.0285936 -0.00561746 0)
(-0.025571 -0.00544316 0)
(-0.0226492 -0.00523512 0)
(-0.0198457 -0.00499401 0)
(-0.0171774 -0.00472081 0)
(-0.0146606 -0.00441688 0)
(-0.0123106 -0.00408396 0)
(-0.0101416 -0.00372424 0)
(-0.00816647 -0.00334041 0)
(-0.00639629 -0.00293581 0)
(-0.00484004 -0.0025146 0)
(-0.00350407 -0.00208206 0)
(-0.00239157 -0.00164499 0)
(-0.00150171 -0.00121241 0)
(-0.000828691 -0.00079643 0)
(-0.000360504 -0.00041364 0)
(-7.75546e-05 -8.6987e-05 0)
(4.9064e-05 0.000152078 0)
(6.24711e-05 0.000260894 0)
(2.36938e-05 0.00017893 0)
(8.66652e-06 -9.21693e-05 0)
(2.56107e-05 -0.000156438 0)
(2.88716e-05 -0.000132685 0)
(-4.05368e-06 -4.5109e-05 0)
(-8.89792e-05 8.77286e-05 0)
(-0.000236503 0.000250948 0)
(-0.000453884 0.000432862 0)
(-0.000745583 0.000624494 0)
(-0.0011137 0.00081906 0)
(-0.00155842 0.00101151 0)
(-0.00207843 0.00119814 0)
(-0.00267128 0.00137634 0)
(-0.00333363 0.00154432 0)
(-0.00406158 0.00170092 0)
(-0.00485078 0.0018455 0)
(-0.00569667 0.00197781 0)
(-0.00659459 0.00209791 0)
(-0.00753985 0.00220606 0)
(-0.0085279 0.00230272 0)
(-0.00955431 0.00238846 0)
(-0.0106149 0.00246394 0)
(-0.0117056 0.00252988 0)
(-0.0128228 0.00258704 0)
(-0.013963 0.00263619 0)
(-0.0151231 0.00267808 0)
(-0.0163002 0.00271349 0)
(-0.0174918 0.00274313 0)
(-0.0186955 0.00276771 0)
(-0.0199095 0.00278789 0)
(-0.0211318 0.0028043 0)
(-0.022361 0.00281753 0)
(-0.0235958 0.00282811 0)
(-0.0248351 0.00283656 0)
(-0.0260781 0.00284333 0)
(-0.027324 0.00284884 0)
(-0.0285724 0.00285346 0)
(-0.0298228 0.00285755 0)
(-0.031075 0.00286141 0)
(-0.032329 0.00286531 0)
(-0.0335846 0.00286949 0)
(-0.0348421 0.00287418 0)
(-0.0361015 0.00287955 0)
(-0.0373632 0.00288578 0)
(-0.0386275 0.00289301 0)
(-0.0398947 0.00290136 0)
(-0.0411654 0.00291093 0)
(-0.04244 0.0029218 0)
(-0.043719 0.00293405 0)
(-0.0450029 0.00294774 0)
(-0.0462924 0.00296289 0)
(-0.0475879 0.00297955 0)
(-0.0488902 0.00299771 0)
(-0.0501997 0.0030174 0)
(-0.0515171 0.00303859 0)
(-0.052843 0.00306127 0)
(-0.0541779 0.00308539 0)
(-0.0555224 0.00311093 0)
(-0.056877 0.00313781 0)
(-0.0582422 0.00316597 0)
(-0.0596185 0.00319533 0)
(-0.0610063 0.00322578 0)
(-0.062406 0.00325723 0)
(-0.0638179 0.00328954 0)
(-0.0652423 0.00332257 0)
(-0.0666794 0.00335617 0)
(-0.0681293 0.00339017 0)
(-0.069592 0.00342437 0)
(-0.0710676 0.00345858 0)
(-0.0725558 0.00349256 0)
(-0.0740565 0.00352608 0)
(-0.0755693 0.00355885 0)
(-0.0770937 0.00359061 0)
(-0.0786291 0.00362104 0)
(-0.0801748 0.00364982 0)
(-0.0817299 0.00367658 0)
(-0.0832934 0.00370097 0)
(-0.0848641 0.00372258 0)
(-0.0864405 0.00374099 0)
(-0.0880212 0.00375575 0)
(-0.0896044 0.00376641 0)
(-0.0911881 0.00377246 0)
(-0.0927702 0.0037734 0)
(-0.0943483 0.00376869 0)
(-0.0959198 0.00375778 0)
(-0.0974818 0.00374008 0)
(-0.0990314 0.003715 0)
(-0.100565 0.00368193 0)
(-0.10208 0.00364025 0)
(-0.103571 0.00358931 0)
(-0.105034 0.00352847 0)
(-0.106467 0.00345707 0)
(-0.107863 0.00337446 0)
(-0.109218 0.00327998 0)
(-0.110526 0.00317299 0)
(-0.111784 0.00305286 0)
(-0.112984 0.00291897 0)
(-0.114121 0.00277074 0)
(-0.115189 0.00260761 0)
(-0.116182 0.00242906 0)
(-0.117094 0.00223463 0)
(-0.117918 0.00202391 0)
(-0.118646 0.00179656 0)
(-0.119274 0.0015523 0)
(-0.119793 0.00129097 0)
(-0.120197 0.00101248 0)
(-0.120479 0.000716846 0)
(-0.120632 0.000404226 0)
(-0.12065 7.48887e-05 0)
(-0.120527 -0.000270752 0)
(-0.120255 -0.000632131 0)
(-0.11983 -0.00100853 0)
(-0.119245 -0.00139904 0)
(-0.118496 -0.0018026 0)
(-0.117577 -0.00221796 0)
(-0.116485 -0.00264367 0)
(-0.115217 -0.00307809 0)
(-0.113768 -0.00351938 0)
(-0.112139 -0.00396551 0)
(-0.110327 -0.00441426 0)
(-0.108332 -0.00486322 0)
(-0.106156 -0.0053098 0)
(-0.103799 -0.00575123 0)
(-0.101266 -0.0061846 0)
(-0.0985602 -0.00660686 0)
(-0.0956871 -0.00701484 0)
(-0.0926535 -0.00740528 0)
(-0.0894673 -0.00777487 0)
(-0.0861378 -0.00812025 0)
(-0.0826756 -0.00843806 0)
(-0.0790926 -0.00872498 0)
(-0.0754019 -0.00897778 0)
(-0.0716179 -0.00919331 0)
(-0.0677561 -0.00936861 0)
(-0.0638332 -0.00950089 0)
(-0.0598668 -0.0095876 0)
(-0.0558757 -0.00962647 0)
(-0.0518793 -0.00961555 0)
(-0.0478976 -0.00955322 0)
(-0.0439514 -0.00943826 0)
(-0.0400616 -0.00926985 0)
(-0.0362496 -0.00904764 0)
(-0.0325365 -0.0087717 0)
(-0.0289435 -0.00844264 0)
(-0.0254912 -0.00806156 0)
(-0.0221998 -0.00763012 0)
(-0.0190885 -0.00715058 0)
(-0.0161754 -0.00662583 0)
(-0.0134772 -0.0060595 0)
(-0.0110088 -0.00545604 0)
(-0.0087831 -0.00482096 0)
(-0.00681032 -0.00416104 0)
(-0.00509768 -0.00348475 0)
(-0.00364866 -0.00280281 0)
(-0.00246231 -0.00212898 0)
(-0.00153231 -0.00148123 0)
(-0.000845967 -0.000883245 0)
(-0.000383038 -0.000366575 0)
(-0.000114305 2.70866e-05 0)
(3.22077e-07 0.0002428 0)
(1.24344e-05 0.000203036 0)
(5.01925e-06 -0.000102459 0)
(4.43095e-06 -0.000155939 0)
(-2.79529e-05 -9.84174e-05 0)
(-0.000110987 3.9939e-05 0)
(-0.000258913 0.000236146 0)
(-0.000481819 0.000471648 0)
(-0.000786562 0.000731653 0)
(-0.00117728 0.00100459 0)
(-0.00165582 0.00128155 0)
(-0.00222213 0.00155575 0)
(-0.00287464 0.00182212 0)
(-0.00361055 0.00207701 0)
(-0.00442619 0.00231784 0)
(-0.00531718 0.00254293 0)
(-0.00627872 0.00275128 0)
(-0.00730571 0.00294246 0)
(-0.00839292 0.00311645 0)
(-0.00953509 0.00327355 0)
(-0.0107271 0.00341435 0)
(-0.0119639 0.00353959 0)
(-0.0132406 0.00365017 0)
(-0.0145529 0.00374706 0)
(-0.0158963 0.00383132 0)
(-0.0172669 0.003904 0)
(-0.0186611 0.00396618 0)
(-0.0200757 0.00401893 0)
(-0.0215075 0.00406326 0)
(-0.0229539 0.00410019 0)
(-0.0244125 0.00413065 0)
(-0.0258813 0.00415555 0)
(-0.0273584 0.00417571 0)
(-0.0288423 0.00419194 0)
(-0.0303317 0.00420495 0)
(-0.0318255 0.0042154 0)
(-0.033323 0.00422391 0)
(-0.0348233 0.00423102 0)
(-0.0363261 0.00423725 0)
(-0.037831 0.00424303 0)
(-0.0393379 0.00424877 0)
(-0.0408466 0.00425484 0)
(-0.0423574 0.00426154 0)
(-0.0438702 0.00426916 0)
(-0.0453855 0.00427794 0)
(-0.0469036 0.0042881 0)
(-0.0484249 0.00429981 0)
(-0.0499498 0.00431323 0)
(-0.0514789 0.00432848 0)
(-0.0530128 0.00434568 0)
(-0.0545521 0.00436489 0)
(-0.0560975 0.0043862 0)
(-0.0576494 0.00440962 0)
(-0.0592088 0.00443519 0)
(-0.0607761 0.00446291 0)
(-0.062352 0.00449277 0)
(-0.0639373 0.00452472 0)
(-0.0655325 0.00455873 0)
(-0.0671383 0.00459472 0)
(-0.0687553 0.00463261 0)
(-0.070384 0.00467229 0)
(-0.0720249 0.00471363 0)
(-0.0736784 0.00475649 0)
(-0.0753451 0.0048007 0)
(-0.0770251 0.00484608 0)
(-0.0787189 0.00489243 0)
(-0.0804265 0.00493949 0)
(-0.0821481 0.00498703 0)
(-0.0838837 0.00503475 0)
(-0.0856331 0.00508236 0)
(-0.0873962 0.00512951 0)
(-0.0891726 0.00517584 0)
(-0.0909618 0.00522096 0)
(-0.0927632 0.00526444 0)
(-0.0945761 0.00530585 0)
(-0.0963995 0.00534468 0)
(-0.0982323 0.00538043 0)
(-0.100073 0.00541254 0)
(-0.101921 0.00544044 0)
(-0.103773 0.0054635 0)
(-0.105629 0.00548109 0)
(-0.107485 0.00549252 0)
(-0.10934 0.00549708 0)
(-0.111191 0.00549401 0)
(-0.113035 0.00548256 0)
(-0.114869 0.0054619 0)
(-0.11669 0.00543122 0)
(-0.118494 0.00538964 0)
(-0.120276 0.00533631 0)
(-0.122034 0.00527031 0)
(-0.123761 0.00519073 0)
(-0.125454 0.00509665 0)
(-0.127108 0.00498715 0)
(-0.128716 0.00486128 0)
(-0.130274 0.00471814 0)
(-0.131775 0.0045568 0)
(-0.133214 0.00437639 0)
(-0.134583 0.00417604 0)
(-0.135875 0.00395494 0)
(-0.137085 0.00371232 0)
(-0.138205 0.00344748 0)
(-0.139227 0.00315977 0)
(-0.140144 0.00284866 0)
(-0.140949 0.00251369 0)
(-0.141633 0.00215452 0)
(-0.142189 0.00177094 0)
(-0.14261 0.00136288 0)
(-0.142886 0.000930425 0)
(-0.143012 0.000473829 0)
(-0.142979 -6.46656e-06 0)
(-0.14278 -0.000509822 0)
(-0.142408 -0.00103538 0)
(-0.141857 -0.00158207 0)
(-0.14112 -0.00214855 0)
(-0.140192 -0.00273326 0)
(-0.139068 -0.00333437 0)
(-0.137743 -0.00394977 0)
(-0.136213 -0.0045771 0)
(-0.134476 -0.00521371 0)
(-0.132529 -0.00585668 0)
(-0.130373 -0.00650281 0)
(-0.128005 -0.00714868 0)
(-0.125429 -0.00779056 0)
(-0.122646 -0.00842454 0)
(-0.119659 -0.00904647 0)
(-0.116475 -0.009652 0)
(-0.113099 -0.0102367 0)
(-0.109539 -0.0107958 0)
(-0.105804 -0.0113248 0)
(-0.101905 -0.0118188 0)
(-0.0978546 -0.0122732 0)
(-0.0936655 -0.0126831 0)
(-0.0893532 -0.0130442 0)
(-0.084934 -0.0133518 0)
(-0.0804256 -0.0136019 0)
(-0.0758471 -0.0137905 0)
(-0.0712186 -0.013914 0)
(-0.0665613 -0.0139692 0)
(-0.0618972 -0.0139533 0)
(-0.0572494 -0.0138642 0)
(-0.0526411 -0.0137 0)
(-0.0480963 -0.0134597 0)
(-0.0436392 -0.0131428 0)
(-0.0392938 -0.0127495 0)
(-0.0350841 -0.0122806 0)
(-0.0310336 -0.0117379 0)
(-0.0271649 -0.0111237 0)
(-0.0234998 -0.0104415 0)
(-0.0200588 -0.00969551 0)
(-0.0168606 -0.00889105 0)
(-0.013922 -0.0080347 0)
(-0.0112573 -0.00713446 0)
(-0.00887812 -0.00620015 0)
(-0.00679245 -0.0052438 0)
(-0.00500441 -0.0042804 0)
(-0.00351344 -0.00332875 0)
(-0.00231359 -0.00241269 0)
(-0.00139271 -0.0015628 0)
(-0.000731511 -0.000818549 0)
(-0.000302382 -0.000230615 0)
(-7.11758e-05 0.00013589 0)
(-2.56235e-07 0.00019107 0)
(8.73381e-07 -0.00010071 0)
(-2.01024e-05 -0.000124609 0)
(-9.39632e-05 -1.7386e-05 0)
(-0.000234649 0.000185975 0)
(-0.000454008 0.000458605 0)
(-0.000761098 0.000778614 0)
(-0.00116193 0.00112834 0)
(-0.00165996 0.00149376 0)
(-0.00225648 0.00186391 0)
(-0.00295101 0.00223031 0)
(-0.00374154 0.00258653 0)
(-0.0046249 0.00292785 0)
(-0.00559698 0.00325089 0)
(-0.00665301 0.00355337 0)
(-0.00778771 0.00383394 0)
(-0.00899552 0.0040919 0)
(-0.0102707 0.00432718 0)
(-0.0116076 0.0045401 0)
(-0.0130004 0.00473135 0)
(-0.0144436 0.00490186 0)
(-0.015932 0.00505277 0)
(-0.0174605 0.00518535 0)
(-0.0190244 0.00530092 0)
(-0.0206192 0.00540088 0)
(-0.0222409 0.00548665 0)
(-0.0238857 0.00555961 0)
(-0.0255504 0.00562113 0)
(-0.0272318 0.00567254 0)
(-0.0289272 0.00571509 0)
(-0.0306343 0.00574998 0)
(-0.032351 0.00577834 0)
(-0.0340756 0.00580123 0)
(-0.0358064 0.00581962 0)
(-0.0375424 0.0058344 0)
(-0.0392824 0.00584641 0)
(-0.0410257 0.0058564 0)
(-0.0427717 0.00586504 0)
(-0.04452 0.00587296 0)
(-0.0462703 0.0058807 0)
(-0.0480225 0.00588875 0)
(-0.0497767 0.00589756 0)
(-0.0515331 0.00590751 0)
(-0.0532918 0.00591893 0)
(-0.0550534 0.00593212 0)
(-0.0568181 0.00594733 0)
(-0.0585866 0.00596478 0)
(-0.0603593 0.00598463 0)
(-0.0621369 0.00600705 0)
(-0.0639201 0.00603213 0)
(-0.0657095 0.00605996 0)
(-0.0675059 0.00609061 0)
(-0.0693099 0.00612411 0)
(-0.0711223 0.00616044 0)
(-0.0729438 0.00619961 0)
(-0.0747751 0.00624155 0)
(-0.0766168 0.00628619 0)
(-0.0784698 0.00633345 0)
(-0.0803345 0.0063832 0)
(-0.0822116 0.00643528 0)
(-0.0841017 0.00648953 0)
(-0.0860051 0.00654574 0)
(-0.0879223 0.00660368 0)
(-0.0898536 0.00666309 0)
(-0.0917994 0.00672368 0)
(-0.0937596 0.00678512 0)
(-0.0957345 0.00684706 0)
(-0.0977239 0.00690911 0)
(-0.0997277 0.00697083 0)
(-0.101746 0.00703177 0)
(-0.103777 0.00709142 0)
(-0.105821 0.00714924 0)
(-0.107878 0.00720466 0)
(-0.109946 0.00725704 0)
(-0.112024 0.00730573 0)
(-0.114111 0.00735002 0)
(-0.116205 0.00738915 0)
(-0.118304 0.00742233 0)
(-0.120408 0.00744872 0)
(-0.122512 0.00746745 0)
(-0.124615 0.00747758 0)
(-0.126714 0.00747815 0)
(-0.128807 0.00746814 0)
(-0.130889 0.00744652 0)
(-0.132957 0.00741219 0)
(-0.135007 0.00736404 0)
(-0.137035 0.00730091 0)
(-0.139037 0.00722163 0)
(-0.141008 0.007125 0)
(-0.142942 0.0070098 0)
(-0.144834 0.00687479 0)
(-0.146679 0.00671875 0)
(-0.14847 0.00654044 0)
(-0.1502 0.00633865 0)
(-0.151864 0.00611218 0)
(-0.153454 0.00585987 0)
(-0.154963 0.00558061 0)
(-0.156384 0.00527332 0)
(-0.157708 0.00493702 0)
(-0.158927 0.00457081 0)
(-0.160035 0.00417387 0)
(-0.161021 0.00374553 0)
(-0.161878 0.00328523 0)
(-0.162598 0.00279257 0)
(-0.163171 0.00226732 0)
(-0.16359 0.00170945 0)
(-0.163845 0.00111912 0)
(-0.163929 0.000496741 0)
(-0.163833 -0.000157049 0)
(-0.16355 -0.000841331 0)
(-0.163072 -0.00155491 0)
(-0.162392 -0.00229628 0)
(-0.161503 -0.00306362 0)
(-0.160399 -0.0038548 0)
(-0.159075 -0.00466731 0)
(-0.157525 -0.00549832 0)
(-0.155747 -0.00634463 0)
(-0.153737 -0.00720269 0)
(-0.151494 -0.00806857 0)
(-0.149015 -0.00893803 0)
(-0.146303 -0.00980644 0)
(-0.143357 -0.0106689 0)
(-0.140181 -0.0115201 0)
(-0.136779 -0.0123547 0)
(-0.133158 -0.0131667 0)
(-0.129323 -0.0139504 0)
(-0.125283 -0.0146995 0)
(-0.12105 -0.0154079 0)
(-0.116634 -0.0160692 0)
(-0.11205 -0.0166772 0)
(-0.107311 -0.0172257 0)
(-0.102436 -0.0177087 0)
(-0.0974416 -0.0181202 0)
(-0.0923476 -0.0184548 0)
(-0.0871751 -0.0187072 0)
(-0.0819461 -0.0188727 0)
(-0.076684 -0.0189471 0)
(-0.0714132 -0.0189268 0)