/*--------------------------------*- C++ -*----------------------------------*\
  =========                 |
  \\      /  F ield         | OpenFOAM: The Open Source CFD Toolbox
   \\    /   O peration     | Website:  https://openfoam.org
    \\  /    A nd           | Version:  7
     \\/     M anipulation  |
\*---------------------------------------------------------------------------*/
FoamFile
{
    version     2.0;
    format      ascii;
    class       surfaceScalarField;
    location    "0.05";
    object      phi;
}
// * * * * * * * * * * * * * * * * * * * * * * * * * * * * * * * * * * * * * //

dimensions      [0 3 -1 0 0 0 0];

internalField   nonuniform List<scalar> 
25360
(
8.35435e-11
-8.35707e-11
2.18143e-10
-1.34592e-10
3.11916e-10
-9.37727e-11
3.28881e-10
-1.69655e-11
2.50218e-10
7.86603e-11
6.76931e-11
1.82517e-10
-2.19266e-10
2.86966e-10
-6.06417e-10
3.87147e-10
-1.08688e-09
4.80457e-10
-1.65238e-09
5.65505e-10
-2.29415e-09
6.41769e-10
-3.00333e-09
7.09186e-10
-3.77132e-09
7.67992e-10
-4.58991e-09
8.18592e-10
-5.45138e-09
8.61472e-10
-6.34864e-09
8.97252e-10
-7.27514e-09
9.26497e-10
-8.22494e-09
9.49806e-10
-9.19272e-09
9.67771e-10
-1.01736e-08
9.80918e-10
-1.11635e-08
9.89822e-10
-1.21584e-08
9.94968e-10
-1.31552e-08
9.96787e-10
-1.41509e-08
9.95703e-10
-1.5143e-08
9.9211e-10
-1.61294e-08
9.86339e-10
-1.71081e-08
9.78723e-10
-1.80776e-08
9.69564e-10
-1.90367e-08
9.59082e-10
-1.99842e-08
9.47466e-10
-2.09191e-08
9.34917e-10
-2.18407e-08
9.21621e-10
-2.27484e-08
9.07714e-10
-2.36418e-08
8.93323e-10
-2.45203e-08
8.7856e-10
-2.53838e-08
8.63518e-10
-2.62321e-08
8.48254e-10
-2.70649e-08
8.3283e-10
-2.78823e-08
8.17334e-10
-2.86841e-08
8.01824e-10
-2.94704e-08
7.86319e-10
-3.02412e-08
7.70828e-10
-3.09966e-08
7.55389e-10
-3.17367e-08
7.40041e-10
-3.24614e-08
7.2478e-10
-3.3171e-08
7.09612e-10
-3.38656e-08
6.94568e-10
-3.45453e-08
6.79673e-10
-3.52102e-08
6.64928e-10
-3.58605e-08
6.50315e-10
-3.64964e-08
6.35845e-10
-3.71179e-08
6.21549e-10
-3.77254e-08
6.07432e-10
-3.83188e-08
5.9348e-10
-3.88985e-08
5.79694e-10
-3.94646e-08
5.66096e-10
-4.00173e-08
5.52699e-10
-4.05568e-08
5.39492e-10
-4.10833e-08
5.26464e-10
-4.15969e-08
5.13613e-10
-4.20978e-08
5.00942e-10
-4.25863e-08
4.88458e-10
-4.30624e-08
4.76146e-10
-4.35264e-08
4.63979e-10
-4.39784e-08
4.51957e-10
-4.44185e-08
4.40099e-10
-4.48469e-08
4.28391e-10
-4.52637e-08
4.16804e-10
-4.5669e-08
4.05323e-10
-4.60629e-08
3.93948e-10
-4.64456e-08
3.82671e-10
-4.68171e-08
3.7148e-10
-4.71775e-08
3.60357e-10
-4.75267e-08
3.49272e-10
-4.78649e-08
3.38193e-10
-4.8192e-08
3.27106e-10
-4.8508e-08
3.15994e-10
-4.88128e-08
3.04825e-10
-4.91064e-08
2.9356e-10
-4.93886e-08
2.8217e-10
-4.96592e-08
2.70635e-10
-4.99181e-08
2.58923e-10
-5.01651e-08
2.46995e-10
-5.03999e-08
2.34807e-10
-5.06222e-08
2.22319e-10
-5.08317e-08
2.09491e-10
-5.1028e-08
1.96284e-10
-5.12107e-08
1.82654e-10
-5.13792e-08
1.68549e-10
-5.15331e-08
1.53909e-10
-5.16718e-08
1.38672e-10
-5.17946e-08
1.2278e-10
-5.19008e-08
1.06177e-10
-5.19896e-08
8.87965e-11
-5.20601e-08
7.05669e-11
-5.21116e-08
5.14163e-11
-5.21428e-08
3.12826e-11
-5.21529e-08
1.01095e-11
-5.21408e-08
-1.21644e-11
-5.21052e-08
-3.56057e-11
-5.20449e-08
-6.02883e-11
-5.19586e-08
-8.62833e-11
-5.18449e-08
-1.13657e-10
-5.17025e-08
-1.42468e-10
-5.15297e-08
-1.72772e-10
-5.13251e-08
-2.04621e-10
-5.1087e-08
-2.38067e-10
-5.08139e-08
-2.73159e-10
-5.05039e-08
-3.09936e-10
-5.01555e-08
-3.48425e-10
-4.97669e-08
-3.88637e-10
-4.93363e-08
-4.30571e-10
-4.88621e-08
-4.74215e-10
-4.83425e-08
-5.19543e-10
-4.7776e-08
-5.66511e-10
-4.7161e-08
-6.15049e-10
-4.64959e-08
-6.65066e-10
-4.57795e-08
-7.16453e-10
-4.50104e-08
-7.69083e-10
-4.41876e-08
-8.22806e-10
-4.33101e-08
-8.77446e-10
-4.23773e-08
-9.32788e-10
-4.13888e-08
-9.88585e-10
-4.03442e-08
-1.04456e-09
-3.92438e-08
-1.1004e-09
-3.8088e-08
-1.15579e-09
-3.68777e-08
-1.21034e-09
-3.5614e-08
-1.26366e-09
-3.42987e-08
-1.31534e-09
-3.29338e-08
-1.36491e-09
-3.15219e-08
-1.4119e-09
-3.00661e-08
-1.4558e-09
-2.857e-08
-1.4961e-09
-2.70377e-08
-1.53223e-09
-2.54741e-08
-1.56363e-09
-2.38844e-08
-1.58973e-09
-2.22744e-08
-1.60995e-09
-2.06507e-08
-1.6237e-09
-1.90203e-08
-1.63039e-09
-1.73909e-08
-1.62944e-09
-1.57706e-08
-1.62026e-09
-1.41684e-08
-1.60228e-09
-1.25934e-08
-1.57496e-09
-1.10556e-08
-1.53777e-09
-9.56542e-09
-1.4902e-09
-8.13368e-09
-1.43174e-09
-6.77173e-09
-1.36194e-09
-5.49136e-09
-1.28037e-09
-4.3047e-09
-1.18666e-09
-3.22418e-09
-1.08052e-09
-2.2624e-09
-9.61781e-10
-1.43193e-09
-8.30473e-10
-7.44936e-10
-6.86991e-10
-2.1254e-10
-5.32396e-10
1.56486e-10
-3.69025e-10
3.58129e-10
-2.01642e-10
3.97766e-10
-3.96359e-11
2.99127e-10
9.86391e-11
1.23341e-10
1.75787e-10
1.23342e-10
1.50711e-10
-2.34275e-10
3.26599e-10
-3.1049e-10
3.80024e-10
-1.47192e-10
2.34697e-10
1.28364e-10
-1.52153e-10
4.65519e-10
-8.00692e-10
8.31052e-10
-1.71457e-09
1.20085e-09
-2.88669e-09
1.55927e-09
-4.30277e-09
1.89653e-09
-5.94445e-09
2.20718e-09
-7.79101e-09
2.48833e-09
-9.82088e-09
2.73906e-09
-1.20125e-08
2.95956e-09
-1.43446e-08
3.15076e-09
-1.67973e-08
3.31416e-09
-1.93516e-08
3.4515e-09
-2.19898e-08
3.56471e-09
-2.46958e-08
3.65582e-09
-2.74548e-08
3.7268e-09
-3.02535e-08
3.77961e-09
-3.30798e-08
3.81618e-09
-3.59231e-08
3.83825e-09
-3.87738e-08
3.84749e-09
-4.16236e-08
3.84549e-09
-4.44651e-08
3.83364e-09
-4.7292e-08
3.81324e-09
-5.00988e-08
3.7855e-09
-5.28807e-08
3.75148e-09
-5.56338e-08
3.71211e-09
-5.83545e-08
3.66821e-09
-6.10401e-08
3.62054e-09
-6.36883e-08
3.56976e-09
-6.6297e-08
3.51642e-09
-6.88647e-08
3.46102e-09
-7.13901e-08
3.404e-09
-7.38723e-08
3.34572e-09
-7.63105e-08
3.28647e-09
-7.87042e-08
3.22653e-09
-8.10531e-08
3.16616e-09
-8.33568e-08
3.10555e-09
-8.56153e-08
3.04483e-09
-8.78286e-08
2.98415e-09
-8.99969e-08
2.92362e-09
-9.21202e-08
2.86336e-09
-9.41988e-08
2.80341e-09
-9.6233e-08
2.74384e-09
-9.82232e-08
2.68472e-09
-1.0017e-07
2.62613e-09
-1.02073e-07
2.56807e-09
-1.03933e-07
2.51059e-09
-1.05751e-07
2.4537e-09
-1.07527e-07
2.39746e-09
-1.09261e-07
2.34188e-09
-1.10955e-07
2.28698e-09
-1.12608e-07
2.23276e-09
-1.14221e-07
2.17926e-09
-1.15795e-07
2.1265e-09
-1.1733e-07
2.07446e-09
-1.18826e-07
2.02313e-09
-1.20285e-07
1.97251e-09
-1.21707e-07
1.9226e-09
-1.23092e-07
1.87337e-09
-1.24441e-07
1.82481e-09
-1.25753e-07
1.77687e-09
-1.27031e-07
1.72953e-09
-1.28274e-07
1.68277e-09
-1.29482e-07
1.63657e-09
-1.30656e-07
1.59086e-09
-1.31796e-07
1.54561e-09
-1.32903e-07
1.50075e-09
-1.33977e-07
1.45626e-09
-1.35017e-07
1.41207e-09
-1.36025e-07
1.36811e-09
-1.37e-07
1.32429e-09
-1.37942e-07
1.28052e-09
-1.38852e-07
1.23673e-09
-1.39729e-07
1.19282e-09
-1.40573e-07
1.14867e-09
-1.41383e-07
1.10418e-09
-1.4216e-07
1.05922e-09
-1.42903e-07
1.01369e-09
-1.43612e-07
9.67451e-10
-1.44285e-07
9.20374e-10
-1.44923e-07
8.7231e-10
-1.45523e-07
8.23101e-10
-1.46087e-07
7.72587e-10
-1.46611e-07
7.206e-10
-1.47095e-07
6.66963e-10
-1.47538e-07
6.11478e-10
-1.47938e-07
5.53934e-10
-1.48294e-07
4.94115e-10
-1.48603e-07
4.31799e-10
-1.48863e-07
3.66761e-10
-1.49073e-07
2.98763e-10
-1.4923e-07
2.27559e-10
-1.49332e-07
1.52906e-10
-1.49375e-07
7.45652e-11
-1.49357e-07
-7.69943e-12
-1.49275e-07
-9.41293e-11
-1.49126e-07
-1.84973e-10
-1.48906e-07
-2.80486e-10
-1.48611e-07
-3.80916e-10
-1.48238e-07
-4.86504e-10
-1.47783e-07
-5.97474e-10
-1.47242e-07
-7.14032e-10
-1.4661e-07
-8.36372e-10
-1.45884e-07
-9.64671e-10
-1.45058e-07
-1.09908e-09
-1.44128e-07
-1.23973e-09
-1.4309e-07
-1.3867e-09
-1.41938e-07
-1.54002e-09
-1.40669e-07
-1.69968e-09
-1.39278e-07
-1.86563e-09
-1.37759e-07
-2.03773e-09
-1.3611e-07
-2.21581e-09
-1.34326e-07
-2.39959e-09
-1.32402e-07
-2.58874e-09
-1.30336e-07
-2.78284e-09
-1.28123e-07
-2.98139e-09
-1.25762e-07
-3.18381e-09
-1.2325e-07
-3.38939e-09
-1.20586e-07
-3.59734e-09
-1.17768e-07
-3.80672e-09
-1.14796e-07
-4.01651e-09
-1.11671e-07
-4.22556e-09
-1.08394e-07
-4.4326e-09
-1.04968e-07
-4.63625e-09
-1.01396e-07
-4.83504e-09
-9.76844e-08
-5.02738e-09
-9.38377e-08
-5.21156e-09
-8.98638e-08
-5.38581e-09
-8.57714e-08
-5.54823e-09
-8.15706e-08
-5.69688e-09
-7.72731e-08
-5.82972e-09
-7.28921e-08
-5.94467e-09
-6.84422e-08
-6.03959e-09
-6.39398e-08
-6.11234e-09
-5.94027e-08
-6.16076e-09
-5.48505e-08
-6.18267e-09
-5.0304e-08
-6.17593e-09
-4.57858e-08
-6.13844e-09
-4.13199e-08
-6.06816e-09
-3.69318e-08
-5.96311e-09
-3.26481e-08
-5.82141e-09
-2.8497e-08
-5.64129e-09
-2.45076e-08
-5.42113e-09
-2.07101e-08
-5.15947e-09
-1.71354e-08
-4.85511e-09
-1.38149e-08
-4.50716e-09
-1.07802e-08
-4.11522e-09
-8.06238e-09
-3.67955e-09
-5.69133e-09
-3.20152e-09
-3.69416e-09
-2.68417e-09
-2.09317e-09
-2.13339e-09
-9.02444e-10
-1.55974e-09
-1.22286e-10
-9.81798e-10
2.69703e-10
-4.31623e-10
3.3175e-10
3.65937e-11
1.75387e-10
3.3215e-10
2.98731e-10
1.28443e-10
-3.62718e-10
2.07536e-10
-3.89584e-10
7.14812e-11
-1.11378e-11
-3.72914e-10
5.72762e-10
-1.17979e-09
1.27238e-09
-2.37495e-09
2.02623e-09
-3.96397e-09
2.78986e-09
-5.93791e-09
3.53321e-09
-8.27812e-09
4.23675e-09
-1.09595e-08
4.8886e-09
-1.39533e-08
5.48211e-09
-1.72286e-08
6.01434e-09
-2.0754e-08
6.48496e-09
-2.44985e-08
6.89521e-09
-2.84319e-08
7.24761e-09
-3.25258e-08
7.5454e-09
-3.67533e-08
7.79221e-09
-4.10895e-08
7.992e-09
-4.55115e-08
8.14877e-09
-4.99984e-08
8.26649e-09
-5.45312e-08
8.34904e-09
-5.90931e-08
8.40014e-09
-6.36689e-08
8.42324e-09
-6.8245e-08
8.42164e-09
-7.28097e-08
8.39837e-09
-7.73527e-08
8.3562e-09
-8.18649e-08
8.29768e-09
-8.63385e-08
8.2251e-09
-9.07669e-08
8.14048e-09
-9.51443e-08
8.04565e-09
-9.9466e-08
7.94226e-09
-1.03728e-07
7.83173e-09
-1.07927e-07
7.71533e-09
-1.1206e-07
7.59415e-09
-1.16125e-07
7.46915e-09
-1.20121e-07
7.34113e-09
-1.24045e-07
7.2108e-09
-1.27897e-07
7.07877e-09
-1.31677e-07
6.94559e-09
-1.35383e-07
6.8117e-09
-1.39015e-07
6.67745e-09
-1.42574e-07
6.54317e-09
-1.4606e-07
6.40914e-09
-1.49472e-07
6.27558e-09
-1.52811e-07
6.14267e-09
-1.56078e-07
6.01057e-09
-1.59273e-07
5.87945e-09
-1.62396e-07
5.74942e-09
-1.65449e-07
5.62057e-09
-1.68431e-07
5.49298e-09
-1.71344e-07
5.36675e-09
-1.74189e-07
5.24192e-09
-1.76965e-07
5.11855e-09
-1.79675e-07
4.99668e-09
-1.82319e-07
4.87635e-09
-1.84897e-07
4.75759e-09
-1.87411e-07
4.64042e-09
-1.89861e-07
4.52484e-09
-1.92249e-07
4.41085e-09
-1.94575e-07
4.29841e-09
-1.9684e-07
4.18753e-09
-1.99044e-07
4.07816e-09
-2.0119e-07
3.97025e-09
-2.03277e-07
3.86373e-09
-2.05306e-07
3.75856e-09
-2.07278e-07
3.65468e-09
-2.09193e-07
3.55199e-09
-2.11053e-07
3.4504e-09
-2.12857e-07
3.34982e-09
-2.14606e-07
3.25013e-09
-2.16301e-07
3.15121e-09
-2.17942e-07
3.05294e-09
-2.19529e-07
2.95514e-09
-2.21063e-07
2.85766e-09
-2.22542e-07
2.76031e-09
-2.23968e-07
2.66289e-09
-2.25341e-07
2.5652e-09
-2.26659e-07
2.467e-09
-2.27923e-07
2.36806e-09
-2.29132e-07
2.26812e-09
-2.30285e-07
2.16691e-09
-2.31382e-07
2.06416e-09
-2.32421e-07
1.95957e-09
-2.33402e-07
1.85282e-09
-2.34322e-07
1.74357e-09
-2.35181e-07
1.63147e-09
-2.35977e-07
1.51615e-09
-2.36707e-07
1.39721e-09
-2.3737e-07
1.27423e-09
-2.37962e-07
1.14678e-09
-2.38483e-07
1.01439e-09
-2.38927e-07
8.76602e-10
-2.39294e-07
7.32923e-10
-2.39578e-07
5.8286e-10
-2.39776e-07
4.25901e-10
-2.39885e-07
2.61528e-10
-2.39899e-07
8.92277e-11
-2.39816e-07
-9.15167e-11
-2.39628e-07
-2.81227e-10
-2.39333e-07
-4.80429e-10
-2.38924e-07
-6.89653e-10
-2.38395e-07
-9.09415e-10
-2.37742e-07
-1.14021e-09
-2.36957e-07
-1.38251e-09
-2.36034e-07
-1.63674e-09
-2.34967e-07
-1.90332e-09
-2.33749e-07
-2.1826e-09
-2.32373e-07
-2.47487e-09
-2.30833e-07
-2.78038e-09
-2.2912e-07
-3.09928e-09
-2.27228e-07
-3.43163e-09
-2.25151e-07
-3.77738e-09
-2.2288e-07
-4.13638e-09
-2.20409e-07
-4.50835e-09
-2.17732e-07
-4.89286e-09
-2.14842e-07
-5.28933e-09
-2.11734e-07
-5.69703e-09
-2.08402e-07
-6.11504e-09
-2.04841e-07
-6.54227e-09
-2.01048e-07
-6.97741e-09
-1.97018e-07
-7.41895e-09
-1.9275e-07
-7.86515e-09
-1.88243e-07
-8.31403e-09
-1.83496e-07
-8.76337e-09
-1.78511e-07
-9.2107e-09
-1.7329e-07
-9.65333e-09
-1.67838e-07
-1.00883e-08
-1.62161e-07
-1.05125e-08
-1.56266e-07
-1.09224e-08
-1.50163e-07
-1.13145e-08
-1.43863e-07
-1.1685e-08
-1.37382e-07
-1.20298e-08
-1.30734e-07
-1.23447e-08
-1.23938e-07
-1.26255e-08
-1.17015e-07
-1.28678e-08
-1.09988e-07
-1.3067e-08
-1.02881e-07
-1.32186e-08
-9.57242e-08
-1.3318e-08
-8.85463e-08
-1.33606e-08
-8.13801e-08
-1.33421e-08
-7.42607e-08
-1.32579e-08
-6.7225e-08
-1.31038e-08
-6.03122e-08
-1.28759e-08
-5.35634e-08
-1.25702e-08
-4.70213e-08
-1.21833e-08
-4.07304e-08
-1.17121e-08
-3.47359e-08
-1.11539e-08
-2.90843e-08
-1.05067e-08
-2.3822e-08
-9.76945e-09
-1.89951e-08
-8.94217e-09
-1.4648e-08
-8.0267e-09
-1.08221e-08
-7.02738e-09
-7.55383e-09
-5.95243e-09
-4.87126e-09
-4.81595e-09
-2.78976e-09
-3.64125e-09
-1.30548e-09
-2.46607e-09
-3.86328e-10
-1.35078e-09
3.9766e-11
-3.89499e-10
9.90592e-11
2.72857e-10
3.9779e-10
4.54132e-11
-4.08128e-10
-6.90702e-11
-2.751e-10
-4.998e-10
4.19601e-10
-1.34197e-09
1.41494e-09
-2.65133e-09
2.58174e-09
-4.45466e-09
3.82955e-09
-6.75719e-09
5.09239e-09
-9.54814e-09
6.32417e-09
-1.28055e-08
7.49407e-09
-1.64993e-08
8.58241e-09
-2.05948e-08
9.57758e-09
-2.50543e-08
1.04738e-08
-2.98389e-08
1.12696e-08
-3.49098e-08
1.19662e-08
-4.02292e-08
1.2567e-08
-4.57605e-08
1.30767e-08
-5.14693e-08
1.3501e-08
-5.73233e-08
1.3846e-08
-6.32927e-08
1.41182e-08
-6.935e-08
1.43238e-08
-7.54704e-08
1.44694e-08
-8.16312e-08
1.45609e-08
-8.78122e-08
1.46042e-08
-9.39953e-08
1.46048e-08
-1.00165e-07
1.45677e-08
-1.06306e-07
1.44976e-08
-1.12407e-07
1.43989e-08
-1.18458e-07
1.42754e-08
-1.24448e-07
1.41307e-08
-1.3037e-07
1.39679e-08
-1.36218e-07
1.37898e-08
-1.41985e-07
1.35989e-08
-1.47667e-07
1.33973e-08
-1.5326e-07
1.31872e-08
-1.58761e-07
1.297e-08
-1.64167e-07
1.27472e-08
-1.69476e-07
1.25202e-08
-1.74687e-07
1.229e-08
-1.79799e-07
1.20574e-08
-1.84811e-07
1.18234e-08
-1.89722e-07
1.15887e-08
-1.94533e-07
1.13537e-08
-1.99242e-07
1.1119e-08
-2.03852e-07
1.0885e-08
-2.08361e-07
1.0652e-08
-2.12771e-07
1.04205e-08
-2.17082e-07
1.01906e-08
-2.21295e-07
9.9625e-09
-2.25411e-07
9.73648e-09
-2.29431e-07
9.51267e-09
-2.33355e-07
9.29122e-09
-2.37186e-07
9.07222e-09
-2.40923e-07
8.85578e-09
-2.44568e-07
8.64197e-09
-2.48123e-07
8.43086e-09
-2.51588e-07
8.22249e-09
-2.54964e-07
8.0169e-09
-2.58253e-07
7.81408e-09
-2.61456e-07
7.61402e-09
-2.64575e-07
7.4167e-09
-2.67609e-07
7.2221e-09
-2.70561e-07
7.03012e-09
-2.73432e-07
6.8407e-09
-2.76222e-07
6.65375e-09
-2.78932e-07
6.46916e-09
-2.81564e-07
6.2868e-09
-2.84119e-07
6.10654e-09
-2.86597e-07
5.9282e-09
-2.88999e-07
5.75161e-09
-2.91325e-07
5.57658e-09
-2.93577e-07
5.4029e-09
-2.95754e-07
5.23031e-09
-2.97858e-07
5.05856e-09
-2.99887e-07
4.88733e-09
-3.01843e-07
4.71634e-09
-3.03726e-07
4.54523e-09
-3.05534e-07
4.37365e-09
-3.07268e-07
4.2012e-09
-3.08928e-07
4.02746e-09
-3.10511e-07
3.85201e-09
-3.12019e-07
3.67438e-09
-3.13449e-07
3.49409e-09
-3.148e-07
3.31061e-09
-3.1607e-07
3.12339e-09
-3.17259e-07
2.93185e-09
-3.18363e-07
2.73539e-09
-3.1938e-07
2.53337e-09
-3.20308e-07
2.3251e-09
-3.21143e-07
2.10988e-09
-3.21884e-07
1.88696e-09
-3.22525e-07
1.65557e-09
-3.23063e-07
1.41492e-09
-3.23494e-07
1.1642e-09
-3.23814e-07
9.02554e-10
-3.24017e-07
6.2913e-10
-3.24099e-07
3.43054e-10
-3.24053e-07
4.34515e-11
-3.23874e-07
-2.70558e-10
-3.23555e-07
-5.99859e-10
-3.2309e-07
-9.45341e-10
-3.22472e-07
-1.30788e-09
-3.21693e-07
-1.68834e-09
-3.20746e-07
-2.08754e-09
-3.19622e-07
-2.50625e-09
-3.18314e-07
-2.94521e-09
-3.16812e-07
-3.40508e-09
-3.15108e-07
-3.88643e-09
-3.13193e-07
-4.38975e-09
-3.11058e-07
-4.9154e-09
-3.08694e-07
-5.46362e-09
-3.06091e-07
-6.03448e-09
-3.03241e-07
-6.62786e-09
-3.00133e-07
-7.2435e-09
-2.96761e-07
-7.88086e-09
-2.93115e-07
-8.53921e-09
-2.89186e-07
-9.21754e-09
-2.84969e-07
-9.91457e-09
-2.80455e-07
-1.06287e-08
-2.75639e-07
-1.1358e-08
-2.70517e-07
-1.21003e-08
-2.65082e-07
-1.2853e-08
-2.59335e-07
-1.3613e-08
-2.53272e-07
-1.43771e-08
-2.46894e-07
-1.51413e-08
-2.40203e-07
-1.59016e-08
-2.33203e-07
-1.66533e-08
-2.259e-07
-1.73914e-08
-2.18302e-07
-1.81106e-08
-2.10419e-07
-1.8805e-08
-2.02265e-07
-1.94687e-08
-1.93855e-07
-2.0095e-08
-1.85207e-07
-2.06772e-08
-1.76344e-07
-2.12083e-08
-1.67288e-07
-2.1681e-08
-1.58068e-07
-2.20879e-08
-1.48714e-07
-2.24214e-08
-1.39258e-07
-2.26738e-08
-1.29739e-07
-2.28375e-08
-1.20195e-07
-2.29048e-08
-1.10669e-07
-2.28684e-08
-1.01206e-07
-2.27209e-08
-9.1854e-08
-2.24553e-08
-8.26648e-08
-2.20651e-08
-7.36908e-08
-2.15442e-08
-6.49873e-08
-2.08869e-08
-5.66108e-08
-2.00886e-08
-4.86192e-08
-1.91454e-08
-4.10711e-08
-1.80549e-08
-3.40244e-08
-1.68161e-08
-2.75362e-08
-1.54304e-08
-2.16606e-08
-1.39023e-08
-1.64473e-08
-1.22407e-08
-1.19387e-08
-1.0461e-08
-8.16671e-09
-8.58791e-09
-5.14819e-09
-6.65977e-09
-2.8787e-09
-4.73556e-09
-1.32514e-09
-2.90435e-09
-4.16867e-10
-1.29777e-09
-3.59635e-11
-1.08045e-10
3.61826e-10
-6.19908e-11
-3.46138e-10
-4.26051e-10
8.8965e-11
-1.2198e-09
1.21334e-09
-2.52723e-09
2.72237e-09
-4.39799e-09
4.45251e-09
-6.85505e-09
6.28661e-09
-9.90054e-09
8.13788e-09
-1.35208e-08
9.9444e-09
-1.76902e-08
1.16635e-08
-2.23751e-08
1.32672e-08
-2.75357e-08
1.47382e-08
-3.31291e-08
1.60672e-08
-3.91106e-08
1.72511e-08
-4.54353e-08
1.82909e-08
-5.20589e-08
1.91905e-08
-5.89386e-08
1.99564e-08
-6.60336e-08
2.05961e-08
-7.33057e-08
2.11181e-08
-8.07189e-08
2.15314e-08
-8.82405e-08
2.18454e-08
-9.584e-08
2.20689e-08
-1.0349e-07
2.2211e-08
-1.11166e-07
2.22801e-08
-1.18845e-07
2.22843e-08
-1.26509e-07
2.22311e-08
-1.34139e-07
2.21274e-08
-1.41719e-07
2.19797e-08
-1.49238e-07
2.17939e-08
-1.56682e-07
2.15752e-08
-1.64043e-07
2.13284e-08
-1.71311e-07
2.10579e-08
-1.78479e-07
2.07672e-08
-1.85542e-07
2.04599e-08
-1.92494e-07
2.01388e-08
-1.9933e-07
1.98066e-08
-2.06048e-07
1.94655e-08
-2.12646e-07
1.91174e-08
-2.1912e-07
1.87641e-08
-2.2547e-07
1.84071e-08
-2.31694e-07
1.80474e-08
-2.37791e-07
1.76864e-08
-2.43762e-07
1.73248e-08
-2.49607e-07
1.69635e-08
-2.55325e-07
1.66031e-08
-2.60917e-07
1.62443e-08
-2.66384e-07
1.58875e-08
-2.71727e-07
1.55331e-08
-2.76946e-07
1.51816e-08
-2.82043e-07
1.48332e-08
-2.87018e-07
1.44881e-08
-2.91874e-07
1.41467e-08
-2.9661e-07
1.38091e-08
-3.0123e-07
1.34753e-08
-3.05734e-07
1.31457e-08
-3.10123e-07
1.28202e-08
-3.14399e-07
1.24989e-08
-3.18564e-07
1.21819e-08
-3.2262e-07
1.18692e-08
-3.26566e-07
1.15608e-08
-3.30406e-07
1.12565e-08
-3.34141e-07
1.09565e-08
-3.37771e-07
1.06604e-08
-3.41298e-07
1.03684e-08
-3.44725e-07
1.00801e-08
-3.48051e-07
9.79547e-09
-3.51279e-07
9.51429e-09
-3.54408e-07
9.23633e-09
-3.57442e-07
8.96133e-09
-3.60379e-07
8.68903e-09
-3.63222e-07
8.41912e-09
-3.6597e-07
8.15127e-09
-3.68625e-07
7.88509e-09
-3.71186e-07
7.62018e-09
-3.73655e-07
7.3561e-09
-3.76031e-07
7.09236e-09
-3.78314e-07
6.82847e-09
-3.80505e-07
6.56386e-09
-3.82601e-07
6.29794e-09
-3.84604e-07
6.03007e-09
-3.86512e-07
5.75962e-09
-3.88323e-07
5.48586e-09
-3.90037e-07
5.20806e-09
-3.91652e-07
4.92542e-09
-3.93166e-07
4.63711e-09
-3.94576e-07
4.34225e-09
-3.9588e-07
4.03993e-09
-3.97076e-07
3.72917e-09
-3.9816e-07
3.40896e-09
-3.99128e-07
3.07823e-09
-3.99977e-07
2.73586e-09
-4.00703e-07
2.38072e-09
-4.01299e-07
2.01162e-09
-4.01762e-07
1.62733e-09
-4.02086e-07
1.22661e-09
-4.02265e-07
8.08178e-10
-4.02293e-07
3.70727e-10
-4.02163e-07
-8.70465e-11
-4.01867e-07
-5.66458e-10
-4.01398e-07
-1.06883e-09
-4.00748e-07
-1.59547e-09
-3.99908e-07
-2.14768e-09
-3.98869e-07
-2.72672e-09
-3.97623e-07
-3.33381e-09
-3.96159e-07
-3.97007e-09
-3.94468e-07
-4.63658e-09
-3.92539e-07
-5.3343e-09
-3.90361e-07
-6.06406e-09
-3.87924e-07
-6.82655e-09
-3.85217e-07
-7.62228e-09
-3.8223e-07
-8.45155e-09
-3.7895e-07
-9.31444e-09
-3.75367e-07
-1.02108e-08
-3.7147e-07
-1.114e-08
-3.67249e-07
-1.21015e-08
-3.62695e-07
-1.30939e-08
-3.57796e-07
-1.41158e-08
-3.52546e-07
-1.51652e-08
-3.46935e-07
-1.62397e-08
-3.40956e-07
-1.73364e-08
-3.34605e-07
-1.84519e-08
-3.27876e-07
-1.95822e-08
-3.20766e-07
-2.07229e-08
-3.13274e-07
-2.18689e-08
-3.05401e-07
-2.30145e-08
-2.97149e-07
-2.41534e-08
-2.88523e-07
-2.52788e-08
-2.79532e-07
-2.63832e-08
-2.70184e-07
-2.74584e-08
-2.60493e-07
-2.8496e-08
-2.50475e-07
-2.94868e-08
-2.40149e-07
-3.04211e-08
-2.29537e-07
-3.12888e-08
-2.18666e-07
-3.20794e-08
-2.07565e-07
-3.27823e-08
-1.96266e-07
-3.33862e-08
-1.84808e-07
-3.38799e-08
-1.7323e-07
-3.42522e-08
-1.61575e-07
-3.44917e-08
-1.49893e-07
-3.45872e-08
-1.38234e-07
-3.45278e-08
-1.26652e-07
-3.43028e-08
-1.15205e-07
-3.39022e-08
-1.03953e-07
-3.33164e-08
-9.29608e-08
-3.25368e-08
-8.2292e-08
-3.15557e-08
-7.20139e-08
-3.03667e-08
-6.21944e-08
-2.89649e-08
-5.29016e-08
-2.73477e-08
-4.42028e-08
-2.55149e-08
-3.61631e-08
-2.347e-08
-2.88442e-08
-2.12212e-08
-2.23019e-08
-1.8783e-08
-1.65836e-08
-1.61793e-08
-1.17251e-08
-1.34464e-08
-7.74634e-09
-1.06385e-08
-4.64664e-09
-7.83526e-09
-2.39923e-09
-5.15175e-09
-9.45831e-10
-2.75117e-09
-1.91673e-10
-8.62201e-10
1.70155e-10
-1.76144e-10
-1.70001e-10
-8.16306e-10
7.29121e-10
-2.01127e-09
2.40831e-09
-3.82501e-09
4.5361e-09
-6.29473e-09
6.92223e-09
-9.43522e-09
9.4271e-09
-1.32428e-08
1.19455e-08
-1.76992e-08
1.44008e-08
-2.27749e-08
1.67392e-08
-2.84317e-08
1.89241e-08
-3.46261e-08
2.09326e-08
-4.13105e-08
2.27516e-08
-4.84355e-08
2.43761e-08
-5.59512e-08
2.58065e-08
-6.3808e-08
2.70474e-08
-7.19581e-08
2.81065e-08
-8.03555e-08
2.89934e-08
-8.89567e-08
2.97192e-08
-9.77209e-08
3.02957e-08
-1.0661e-07
3.07349e-08
-1.15591e-07
3.1049e-08
-1.2463e-07
3.125e-08
-1.33699e-07
3.13492e-08
-1.42772e-07
3.13577e-08
-1.51827e-07
3.12857e-08
-1.60842e-07
3.11427e-08
-1.698e-07
3.09376e-08
-1.78684e-07
3.06784e-08
-1.87482e-07
3.03726e-08
-1.9618e-07
3.00267e-08
-2.04769e-07
2.96467e-08
-2.13239e-07
2.92379e-08
-2.21585e-07
2.88051e-08
-2.29798e-07
2.83524e-08
-2.37875e-07
2.78835e-08
-2.45811e-07
2.74015e-08
-2.53603e-07
2.69093e-08
-2.61248e-07
2.64093e-08
-2.68745e-07
2.59036e-08
-2.76091e-07
2.5394e-08
-2.83287e-07
2.48821e-08
-2.90331e-07
2.43692e-08
-2.97224e-07
2.38566e-08
-3.03966e-07
2.33451e-08
-3.10558e-07
2.28356e-08
-3.16999e-07
2.2329e-08
-3.23292e-07
2.18257e-08
-3.29437e-07
2.13263e-08
-3.35435e-07
2.08314e-08
-3.41288e-07
2.03413e-08
-3.46997e-07
1.98562e-08
-3.52565e-07
1.93765e-08
-3.57992e-07
1.89025e-08
-3.63281e-07
1.84342e-08
-3.68432e-07
1.79718e-08
-3.73449e-07
1.75155e-08
-3.78332e-07
1.70652e-08
-3.83084e-07
1.6621e-08
-3.87706e-07
1.61829e-08
-3.922e-07
1.57507e-08
-3.96568e-07
1.53245e-08
-4.00812e-07
1.49041e-08
-4.04933e-07
1.44893e-08
-4.08933e-07
1.40799e-08
-4.12813e-07
1.36757e-08
-4.16575e-07
1.32763e-08
-4.2022e-07
1.28816e-08
-4.2375e-07
1.24911e-08
-4.27165e-07
1.21044e-08
-4.30467e-07
1.1721e-08
-4.33656e-07
1.13406e-08
-4.36734e-07
1.09626e-08
-4.397e-07
1.05864e-08
-4.42555e-07
1.02114e-08
-4.453e-07
9.83686e-09
-4.47934e-07
9.46213e-09
-4.50456e-07
9.08642e-09
-4.52867e-07
8.70889e-09
-4.55166e-07
8.32868e-09
-4.57351e-07
7.94484e-09
-4.59422e-07
7.55641e-09
-4.61376e-07
7.16232e-09
-4.63212e-07
6.76149e-09
-4.64928e-07
6.35273e-09
-4.6652e-07
5.93484e-09
-4.67987e-07
5.50652e-09
-4.69324e-07
5.06644e-09
-4.70528e-07
4.61318e-09
-4.71595e-07
4.14526e-09
-4.7252e-07
3.66115e-09
-4.73299e-07
3.15927e-09
-4.73925e-07
2.63799e-09
-4.74394e-07
2.09561e-09
-4.74697e-07
1.53042e-09
-4.7483e-07
9.40654e-10
-4.74784e-07
3.2452e-10
-4.74551e-07
-3.1978e-10
-4.74123e-07
-9.94059e-10
-4.73492e-07
-1.70013e-09
-4.72648e-07
-2.43979e-09
-4.71581e-07
-3.21482e-09
-4.7028e-07
-4.02693e-09
-4.68736e-07
-4.87777e-09
-4.66938e-07
-5.76889e-09
-4.64873e-07
-6.70172e-09
-4.62529e-07
-7.67757e-09
-4.59896e-07
-8.69756e-09
-4.5696e-07
-9.76258e-09
-4.53709e-07
-1.08733e-08
-4.5013e-07
-1.20301e-08
-4.46212e-07
-1.32331e-08
-4.4194e-07
-1.44819e-08
-4.37305e-07
-1.57759e-08
-4.32292e-07
-1.71138e-08
-4.26892e-07
-1.84942e-08
-4.21093e-07
-1.99147e-08
-4.14886e-07
-2.13726e-08
-4.08261e-07
-2.28646e-08
-4.01211e-07
-2.43866e-08
-3.93729e-07
-2.5934e-08
-3.8581e-07
-2.75011e-08
-3.77451e-07
-2.90817e-08
-3.68651e-07
-3.06689e-08
-3.59411e-07
-3.22547e-08
-3.49734e-07
-3.38305e-08
-3.39626e-07
-3.53867e-08
-3.29096e-07
-3.69131e-08
-3.18156e-07
-3.83985e-08
-3.06821e-07
-3.9831e-08
-2.95109e-07
-4.11981e-08
-2.83044e-07
-4.24865e-08
-2.70651e-07
-4.36822e-08
-2.57959e-07
-4.47709e-08
-2.45004e-07
-4.57377e-08
-2.31823e-07
-4.65674e-08
-2.18458e-07
-4.72448e-08
-2.04956e-07
-4.77542e-08
-1.91367e-07
-4.80804e-08
-1.77746e-07
-4.82079e-08
-1.64152e-07
-4.81221e-08
-1.50646e-07
-4.78085e-08
-1.37295e-07
-4.72537e-08
-1.24166e-07
-4.64449e-08
-1.11332e-07
-4.53709e-08
-9.88662e-08
-4.40218e-08
-8.68434e-08
-4.23895e-08
-7.53398e-08
-4.04685e-08
-6.44314e-08
-3.82562e-08
-5.41927e-08
-3.57536e-08
-4.46958e-08
-3.2967e-08
-3.60083e-08
-2.99087e-08
-2.81914e-08
-2.65999e-08
-2.12974e-08
-2.30733e-08
-1.53669e-08
-1.93769e-08
-1.04253e-08
-1.55801e-08
-6.47965e-09
-1.17809e-08
-3.51519e-09
-8.11622e-09
-1.49306e-09
-4.77329e-09
-3.49723e-10
-2.00554e-09
-1.79567e-10
-2.89652e-10
1.19659e-10
-1.21443e-09
1.65391e-09
-2.82712e-09
4.021e-09
-5.16715e-09
6.87613e-09
-8.25516e-09
1.00102e-08
-1.20943e-08
1.32662e-08
-1.66726e-08
1.65238e-08
-2.19654e-08
1.96936e-08
-2.7938e-08
2.27118e-08
-3.4548e-08
2.55341e-08
-4.17473e-08
2.81319e-08
-4.94844e-08
3.04887e-08
-5.77056e-08
3.25973e-08
-6.63567e-08
3.44576e-08
-7.53841e-08
3.60748e-08
-8.47353e-08
3.74577e-08
-9.43601e-08
3.86182e-08
-1.04211e-07
3.95698e-08
-1.14242e-07
4.03271e-08
-1.24413e-07
4.09054e-08
-1.34683e-07
4.13199e-08
-1.45019e-07
4.15859e-08
-1.55388e-07
4.17181e-08
-1.65761e-07
4.17303e-08
-1.76111e-07
4.1636e-08
-1.86416e-07
4.14475e-08
-1.96655e-07
4.11763e-08
-2.06809e-07
4.0833e-08
-2.16864e-07
4.04271e-08
-2.26805e-07
3.99674e-08
-2.3662e-07
3.94618e-08
-2.46299e-07
3.89173e-08
-2.55834e-07
3.83401e-08
-2.65217e-07
3.77359e-08
-2.74443e-07
3.71095e-08
-2.83507e-07
3.64652e-08
-2.92405e-07
3.58067e-08
-3.01133e-07
3.51374e-08
-3.09689e-07
3.44601e-08
-3.18072e-07
3.37773e-08
-3.26281e-07
3.30911e-08
-3.34316e-07
3.24034e-08
-3.42175e-07
3.17157e-08
-3.49859e-07
3.10294e-08
-3.57369e-07
3.03458e-08
-3.64706e-07
2.96658e-08
-3.71871e-07
2.89902e-08
-3.78864e-07
2.83199e-08
-3.85688e-07
2.76555e-08
-3.92344e-07
2.69975e-08
-3.98835e-07
2.63463e-08
-4.0516e-07
2.57024e-08
-4.11324e-07
2.5066e-08
-4.17327e-07
2.44374e-08
-4.23172e-07
2.38168e-08
-4.28861e-07
2.32042e-08
-4.34395e-07
2.25999e-08
-4.39778e-07
2.20038e-08
-4.45011e-07
2.14158e-08
-4.50096e-07
2.08359e-08
-4.55036e-07
2.0264e-08
-4.59832e-07
1.96999e-08
-4.64486e-07
1.91433e-08
-4.69e-07
1.85941e-08
-4.73376e-07
1.80518e-08
-4.77616e-07
1.75161e-08
-4.81721e-07
1.69865e-08
-4.85692e-07
1.64626e-08
-4.89532e-07
1.59439e-08
-4.9324e-07
1.54298e-08
-4.96819e-07
1.49196e-08
-5.00269e-07
1.44125e-08
-5.03591e-07
1.3908e-08
-5.06784e-07
1.3405e-08
-5.0985e-07
1.29028e-08
-5.12789e-07
1.24003e-08
-5.15599e-07
1.18965e-08
-5.1828e-07
1.13904e-08
-5.20832e-07
1.08808e-08
-5.23254e-07
1.03665e-08
-5.25544e-07
9.84603e-09
-5.27699e-07
9.31817e-09
-5.29719e-07
8.78141e-09
-5.31601e-07
8.23421e-09
-5.33341e-07
7.67498e-09
-5.34937e-07
7.10202e-09
-5.36384e-07
6.51356e-09
-5.37678e-07
5.90773e-09
-5.38816e-07
5.28262e-09
-5.39791e-07
4.63622e-09
-5.40598e-07
3.96646e-09
-5.41231e-07
3.2712e-09
-5.41684e-07
2.54825e-09
-5.41949e-07
1.79535e-09
-5.42018e-07
1.0102e-09
-5.41884e-07
1.90475e-10
-5.41538e-07
-6.66175e-10
-5.4097e-07
-1.56211e-09
-5.4017e-07
-2.49969e-09
-5.39129e-07
-3.48125e-09
-5.37834e-07
-4.50909e-09
-5.36276e-07
-5.58542e-09
-5.34441e-07
-6.71237e-09
-5.32318e-07
-7.89195e-09
-5.29894e-07
-9.12601e-09
-5.27155e-07
-1.04162e-08
-5.24089e-07
-1.17639e-08
-5.20681e-07
-1.31704e-08
-5.16918e-07
-1.46364e-08
-5.12786e-07
-1.61623e-08
-5.08271e-07
-1.77483e-08
-5.03359e-07
-1.93939e-08
-4.98036e-07
-2.10981e-08
-4.92291e-07
-2.28594e-08
-4.86109e-07
-2.46756e-08
-4.7948e-07
-2.65439e-08
-4.72392e-07
-2.84604e-08
-4.64836e-07
-3.04209e-08
-4.56803e-07
-3.24199e-08
-4.48285e-07
-3.44513e-08
-4.39279e-07
-3.65078e-08
-4.29779e-07
-3.85813e-08
-4.19786e-07
-4.06624e-08
-4.09299e-07
-4.27409e-08
-3.98324e-07
-4.48055e-08
-3.86867e-07
-4.68436e-08
-3.74939e-07
-4.88418e-08
-3.62552e-07
-5.07857e-08
-3.49723e-07
-5.26596e-08
-3.36474e-07
-5.44471e-08
-3.2283e-07
-5.61309e-08
-3.08819e-07
-5.76929e-08
-2.94475e-07
-5.91144e-08
-2.79837e-07
-6.03761e-08
-2.64946e-07
-6.14583e-08
-2.4985e-07
-6.2341e-08
-2.346e-07
-6.30041e-08
-2.19253e-07
-6.34277e-08
-2.03868e-07
-6.35923e-08
-1.88512e-07
-6.34787e-08
-1.73251e-07
-6.30686e-08
-1.5816e-07
-6.23448e-08
-1.43314e-07
-6.12915e-08
-1.2879e-07
-5.98943e-08
-1.14671e-07
-5.81414e-08
-1.01037e-07
-5.60231e-08
-8.79722e-08
-5.35333e-08
-7.55587e-08
-5.06697e-08
-6.38773e-08
-4.74351e-08
-5.30058e-08
-4.38385e-08
-4.30173e-08
-3.98971e-08
-3.39785e-08
-3.56388e-08
-2.5947e-08
-3.11048e-08
-1.89696e-08
-2.63543e-08
-1.30795e-08
-2.14702e-08
-8.29466e-09
-1.65658e-08
-4.61599e-09
-1.17949e-08
-2.02799e-09
-7.36129e-09
-5.01156e-10
-3.53237e-09
-6.80724e-10
-3.99248e-10
5.18903e-10
-1.60641e-09
2.86108e-09
-3.63882e-09
6.0534e-09
-6.5098e-09
9.74712e-09
-1.0221e-08
1.37215e-08
-1.47617e-08
1.7807e-08
-2.01096e-08
2.18717e-08
-2.62322e-08
2.58162e-08
-3.30886e-08
2.95681e-08
-4.06311e-08
3.30765e-08
-4.88072e-08
3.6308e-08
-5.75611e-08
3.92427e-08
-6.68354e-08
4.18716e-08
-7.6572e-08
4.41942e-08
-8.67134e-08
4.62162e-08
-9.72034e-08
4.79478e-08
-1.07988e-07
4.94029e-08
-1.19016e-07
5.05977e-08
-1.30239e-07
5.15497e-08
-1.41611e-07
5.22774e-08
-1.5309e-07
5.27995e-08
-1.64639e-07
5.31344e-08
-1.76221e-07
5.33004e-08
-1.87805e-07
5.33146e-08
-1.99363e-07
5.31936e-08
-2.10868e-07
5.29527e-08
-2.22298e-07
5.26063e-08
-2.33633e-07
5.21677e-08
-2.44854e-07
5.16489e-08
-2.55948e-07
5.1061e-08
-2.669e-07
5.04139e-08
-2.77699e-07
4.97165e-08
-2.88336e-07
4.89767e-08
-2.98802e-07
4.82018e-08
-3.0909e-07
4.73979e-08
-3.19196e-07
4.65706e-08
-3.29114e-07
4.57248e-08
-3.38841e-07
4.48645e-08
-3.48374e-07
4.39937e-08
-3.57713e-07
4.31154e-08
-3.66854e-07
4.22325e-08
-3.75798e-07
4.13474e-08
-3.84544e-07
4.04621e-08
-3.93093e-07
3.95785e-08
-4.01446e-07
3.86982e-08
-4.09602e-07
3.78224e-08
-4.17565e-07
3.69523e-08
-4.25334e-07
3.6089e-08
-4.32911e-07
3.52332e-08