/*--------------------------------*- C++ -*----------------------------------*\
  =========                 |
  \\      /  F ield         | OpenFOAM: The Open Source CFD Toolbox
   \\    /   O peration     | Website:  https://openfoam.org
    \\  /    A nd           | Version:  7
     \\/     M anipulation  |
\*---------------------------------------------------------------------------*/
FoamFile
{
    version     2.0;
    format      ascii;
    class       volVectorField;
    location    "0.05";
    object      U;
}
// * * * * * * * * * * * * * * * * * * * * * * * * * * * * * * * * * * * * * //

dimensions      [0 1 -1 0 0 0 0];

internalField   nonuniform List<vector> 
12800
(
(6.58509e-06 -6.5731e-06 0)
(2.48154e-05 -1.05732e-05 0)
(4.42411e-05 -8.50882e-06 0)
(5.43872e-05 -4.59107e-06 0)
(4.98949e-05 4.05099e-07 0)
(2.91641e-05 5.86164e-06 0)
(-8.41481e-06 1.13492e-05 0)
(-6.25006e-05 1.65306e-05 0)
(-0.000132162 2.13074e-05 0)
(-0.000216117 2.55911e-05 0)
(-0.000313022 2.93757e-05 0)
(-0.000421405 3.26856e-05 0)
(-0.000539883 3.55296e-05 0)
(-0.000667109 3.79375e-05 0)
(-0.000801781 3.99589e-05 0)
(-0.000942737 4.16206e-05 0)
(-0.00108888 4.29539e-05 0)
(-0.00123919 4.40095e-05 0)
(-0.00139279 4.48058e-05 0)
(-0.00154887 4.53683e-05 0)
(-0.00170668 4.57406e-05 0)
(-0.0018656 4.59385e-05 0)
(-0.00202506 4.59705e-05 0)
(-0.00218457 4.58666e-05 0)
(-0.00234368 4.56508e-05 0)
(-0.00250203 4.53388e-05 0)
(-0.00265931 4.49511e-05 0)
(-0.00281523 4.45049e-05 0)
(-0.00296957 4.40018e-05 0)
(-0.00312214 4.34424e-05 0)
(-0.00327276 4.28422e-05 0)
(-0.00342131 4.22185e-05 0)
(-0.00356768 4.15773e-05 0)
(-0.00371178 4.09182e-05 0)
(-0.00385355 4.02429e-05 0)
(-0.00399292 3.95557e-05 0)
(-0.00412987 3.88557e-05 0)
(-0.00426436 3.8147e-05 0)
(-0.00439638 3.74408e-05 0)
(-0.00452592 3.67446e-05 0)
(-0.00465297 3.60542e-05 0)
(-0.00477754 3.53618e-05 0)
(-0.00489963 3.46708e-05 0)
(-0.00501926 3.39858e-05 0)
(-0.00513644 3.33057e-05 0)
(-0.00525119 3.26283e-05 0)
(-0.00536352 3.19557e-05 0)
(-0.00547346 3.1294e-05 0)
(-0.00558102 3.06417e-05 0)
(-0.00568623 2.9993e-05 0)
(-0.00578912 2.93485e-05 0)
(-0.00588971 2.87114e-05 0)
(-0.00598802 2.80843e-05 0)
(-0.00608408 2.7466e-05 0)
(-0.00617793 2.68528e-05 0)
(-0.00626958 2.62464e-05 0)
(-0.00635908 2.56514e-05 0)
(-0.00644645 2.50669e-05 0)
(-0.00653172 2.44898e-05 0)
(-0.00661492 2.39201e-05 0)
(-0.00669607 2.33588e-05 0)
(-0.00677522 2.28065e-05 0)
(-0.00685238 2.22628e-05 0)
(-0.00692758 2.17249e-05 0)
(-0.00700085 2.11918e-05 0)
(-0.00707221 2.06655e-05 0)
(-0.00714169 2.01477e-05 0)
(-0.0072093 1.96366e-05 0)
(-0.00727506 1.91295e-05 0)
(-0.007339 1.86257e-05 0)
(-0.00740113 1.8126e-05 0)
(-0.00746146 1.76314e-05 0)
(-0.00752 1.71415e-05 0)
(-0.00757677 1.66536e-05 0)
(-0.00763177 1.61653e-05 0)
(-0.00768499 1.5676e-05 0)
(-0.00773644 1.51862e-05 0)
(-0.00778611 1.46945e-05 0)
(-0.00783399 1.41981e-05 0)
(-0.00788005 1.36951e-05 0)
(-0.00792428 1.31845e-05 0)
(-0.00796666 1.26657e-05 0)
(-0.00800714 1.21377e-05 0)
(-0.00804569 1.15988e-05 0)
(-0.00808227 1.10463e-05 0)
(-0.00811683 1.04774e-05 0)
(-0.00814931 9.89009e-06 0)
(-0.00817964 9.28351e-06 0)
(-0.00820776 8.65593e-06 0)
(-0.00823358 8.004e-06 0)
(-0.00825701 7.32369e-06 0)
(-0.00827795 6.61192e-06 0)
(-0.0082963 5.86653e-06 0)
(-0.00831193 5.08466e-06 0)
(-0.00832471 4.26222e-06 0)
(-0.0083345 3.39496e-06 0)
(-0.00834116 2.47977e-06 0)
(-0.00834451 1.5144e-06 0)
(-0.00834439 4.96458e-07 0)
(-0.00834061 -5.77477e-07 0)
(-0.00833299 -1.71123e-06 0)
(-0.00832131 -2.90856e-06 0)
(-0.00830537 -4.17297e-06 0)
(-0.00828494 -5.50767e-06 0)
(-0.00825978 -6.91553e-06 0)
(-0.00822965 -8.39899e-06 0)
(-0.00819429 -9.96045e-06 0)
(-0.00815346 -1.16027e-05 0)
(-0.00810687 -1.33286e-05 0)
(-0.00805427 -1.51403e-05 0)
(-0.00799537 -1.70385e-05 0)
(-0.0079299 -1.90228e-05 0)
(-0.00785758 -2.10924e-05 0)
(-0.00777814 -2.32465e-05 0)
(-0.00769131 -2.54839e-05 0)
(-0.00759684 -2.78018e-05 0)
(-0.00749449 -3.01958e-05 0)
(-0.00738401 -3.26605e-05 0)
(-0.00726521 -3.51897e-05 0)
(-0.0071379 -3.77769e-05 0)
(-0.00700191 -4.04141e-05 0)
(-0.00685711 -4.30916e-05 0)
(-0.00670341 -4.57975e-05 0)
(-0.00654076 -4.85178e-05 0)
(-0.00636915 -5.12375e-05 0)
(-0.00618863 -5.39402e-05 0)
(-0.0059993 -5.66083e-05 0)
(-0.00580132 -5.92225e-05 0)
(-0.00559493 -6.17616e-05 0)
(-0.00538041 -6.42032e-05 0)
(-0.00515816 -6.65246e-05 0)
(-0.00492861 -6.87019e-05 0)
(-0.00469231 -7.07097e-05 0)
(-0.00444988 -7.25205e-05 0)
(-0.00420202 -7.41056e-05 0)
(-0.00394954 -7.54357e-05 0)
(-0.00369333 -7.6482e-05 0)
(-0.00343438 -7.72154e-05 0)
(-0.00317377 -7.76073e-05 0)
(-0.00291268 -7.76289e-05 0)
(-0.00265239 -7.72506e-05 0)
(-0.00239424 -7.64423e-05 0)
(-0.0021397 -7.5174e-05 0)
(-0.0018903 -7.34175e-05 0)
(-0.00164766 -7.11456e-05 0)
(-0.00141349 -6.83306e-05 0)
(-0.00118957 -6.49437e-05 0)
(-0.000977739 -6.09549e-05 0)
(-0.000779927 -5.63351e-05 0)
(-0.000598099 -5.10564e-05 0)
(-0.000434268 -4.50907e-05 0)
(-0.000290462 -3.84132e-05 0)
(-0.00016868 -3.1008e-05 0)
(-7.08229e-05 -2.28827e-05 0)
(1.45414e-06 -1.41091e-05 0)
(4.70085e-05 -4.9002e-06 0)
(6.56643e-05 4.21928e-06 0)
(5.93191e-05 1.20258e-05 0)
(3.54066e-05 1.58101e-05 0)
(1.02561e-05 1.02566e-05 0)
(1.30036e-05 -2.55353e-05 0)
(4.08243e-05 -3.76261e-05 0)
(6.25124e-05 -2.44944e-05 0)
(5.78184e-05 -7.38934e-07 0)
(1.63501e-05 2.87022e-05 0)
(-6.6052e-05 6.06967e-05 0)
(-0.000191099 9.29654e-05 0)
(-0.000358371 0.000124057 0)
(-0.000566025 0.000153139 0)
(-0.000811411 0.000179738 0)
(-0.00109126 0.00020367 0)
(-0.00140221 0.000224893 0)
(-0.00174076 0.00024344 0)
(-0.00210344 0.000259449 0)
(-0.00248699 0.000273049 0)
(-0.00288827 0.000284413 0)
(-0.00330431 0.000293736 0)
(-0.00373246 0.000301187 0)
(-0.00417022 0.000306946 0)
(-0.00461533 0.00031119 0)
(-0.00506577 0.000314089 0)
(-0.00551975 0.000315787 0)
(-0.00597562 0.00031643 0)
(-0.00643197 0.00031615 0)
(-0.00688754 0.000315062 0)
(-0.00734125 0.000313277 0)
(-0.00779215 0.000310904 0)
(-0.00823942 0.000308033 0)
(-0.00868237 0.000304733 0)
(-0.0091204 0.000301071 0)
(-0.00955301 0.000297108 0)
(-0.00997979 0.000292902 0)
(-0.0104004 0.000288498 0)
(-0.0108146 0.000283938 0)
(-0.0112221 0.000279258 0)
(-0.0116227 0.000274483 0)
(-0.0120164 0.000269632 0)
(-0.012403 0.000264728 0)
(-0.0127824 0.000259798 0)
(-0.0131546 0.000254856 0)
(-0.0135196 0.000249915 0)
(-0.0138773 0.000244979 0)
(-0.0142278 0.000240059 0)
(-0.0145711 0.000235165 0)
(-0.0149073 0.000230298 0)
(-0.0152363 0.00022546 0)
(-0.0155582 0.000220662 0)
(-0.0158732 0.000215908 0)
(-0.0161811 0.000211202 0)
(-0.0164822 0.00020654 0)
(-0.0167764 0.000201924 0)
(-0.0170639 0.000197363 0)
(-0.0173447 0.000192857 0)
(-0.0176189 0.000188404 0)
(-0.0178866 0.000184008 0)
(-0.0181479 0.000179669 0)
(-0.0184028 0.000175392 0)
(-0.0186515 0.000171176 0)
(-0.018894 0.000167017 0)
(-0.0191304 0.000162915 0)
(-0.0193609 0.000158871 0)
(-0.0195854 0.000154886 0)
(-0.019804 0.000150954 0)
(-0.0200169 0.000147071 0)
(-0.0202242 0.000143236 0)
(-0.0204258 0.000139449 0)
(-0.0206218 0.000135708 0)
(-0.0208124 0.000132008 0)
(-0.0209975 0.000128344 0)
(-0.0211773 0.000124712 0)
(-0.0213517 0.00012111 0)
(-0.0215208 0.000117534 0)
(-0.0216847 0.000113979 0)
(-0.0218433 0.000110436 0)
(-0.0219967 0.000106897 0)
(-0.0221448 0.000103355 0)
(-0.0222878 9.98036e-05 0)
(-0.0224254 9.62341e-05 0)
(-0.0225578 9.26354e-05 0)
(-0.0226848 8.89975e-05 0)
(-0.0228065 8.53117e-05 0)
(-0.0229226 8.15688e-05 0)
(-0.0230332 7.77575e-05 0)
(-0.0231381 7.38651e-05 0)
(-0.0232372 6.9878e-05 0)
(-0.0233303 6.57831e-05 0)
(-0.0234174 6.1567e-05 0)
(-0.0234981 5.72156e-05 0)
(-0.0235723 5.27123e-05 0)
(-0.0236398 4.80389e-05 0)
(-0.0237003 4.31767e-05 0)
(-0.0237536 3.81071e-05 0)
(-0.0237992 3.28113e-05 0)
(-0.023837 2.72692e-05 0)
(-0.0238664 2.14593e-05 0)
(-0.0238872 1.53605e-05 0)
(-0.0238989 8.95254e-06 0)
(-0.023901 2.21616e-06 0)
(-0.0238932 -4.86848e-06 0)
(-0.0238748 -1.23224e-05 0)
(-0.0238454 -2.01675e-05 0)
(-0.0238043 -2.84256e-05 0)
(-0.0237511 -3.71176e-05 0)
(-0.023685 -4.62628e-05 0)
(-0.0236055 -5.58789e-05 0)
(-0.0235118 -6.59823e-05 0)
(-0.0234033 -7.65884e-05 0)
(-0.0232793 -8.77115e-05 0)
(-0.023139 -9.93635e-05 0)
(-0.0229817 -0.000111553 0)
(-0.0228068 -0.000124282 0)
(-0.0226133 -0.000137552 0)
(-0.0224006 -0.000151356 0)
(-0.022168 -0.000165687 0)
(-0.0219148 -0.000180529 0)
(-0.0216402 -0.000195862 0)
(-0.0213437 -0.000211657 0)
(-0.0210247 -0.000227879 0)
(-0.0206825 -0.000244488 0)
(-0.0203167 -0.000261436 0)
(-0.0199269 -0.000278666 0)
(-0.0195129 -0.000296109 0)
(-0.0190743 -0.00031369 0)
(-0.0186111 -0.000331322 0)
(-0.0181233 -0.000348906 0)
(-0.017611 -0.000366339 0)
(-0.0170747 -0.000383503 0)
(-0.0165147 -0.000400274 0)
(-0.0159318 -0.000416518 0)
(-0.0153269 -0.000432091 0)
(-0.0147009 -0.000446844 0)
(-0.0140552 -0.000460619 0)
(-0.0133914 -0.00047325 0)
(-0.012711 -0.000484565 0)
(-0.0120162 -0.000494386 0)
(-0.0113091 -0.000502532 0)
(-0.0105923 -0.00050882 0)
(-0.00986837 -0.000513067 0)
(-0.00914043 -0.000515088 0)
(-0.00841168 -0.0005147 0)
(-0.0076856 -0.000511722 0)
(-0.00696591 -0.000505976 0)
(-0.00625656 -0.000497289 0)
(-0.00556175 -0.000485496 0)
(-0.00488586 -0.00047044 0)
(-0.00423347 -0.000451969 0)
(-0.00360933 -0.000429945 0)
(-0.00301834 -0.000404242 0)
(-0.00246551 -0.000374756 0)
(-0.00195588 -0.000341413 0)
(-0.00149452 -0.000304185 0)
(-0.00108633 -0.000263119 0)
(-0.000735946 -0.000218393 0)
(-0.000447417 -0.000170412 0)
(-0.000223818 -0.000119996 0)
(-6.6549e-05 -6.87198e-05 0)
(2.56503e-05 -1.95382e-05 0)
(5.84943e-05 2.21239e-05 0)
(4.63317e-05 4.63594e-05 0)
(1.57707e-05 3.53542e-05 0)
(1.26814e-05 -4.96399e-05 0)
(3.28157e-05 -6.15141e-05 0)
(3.2557e-05 -2.21476e-05 0)
(-1.07607e-05 4.2132e-05 0)
(-0.000109389 0.000120272 0)
(-0.000268982 0.00020489 0)
(-0.000491794 0.000290578 0)
(-0.000777355 0.000373847 0)
(-0.00112335 0.000452374 0)
(-0.00152614 0.000524913 0)
(-0.00198132 0.00059073 0)
(-0.00248407 0.000649537 0)
(-0.00302935 0.000701394 0)
(-0.00361214 0.000746443 0)
(-0.00422754 0.000785012 0)
(-0.00487081 0.000817514 0)
(-0.00553754 0.000844353 0)
(-0.00622359 0.000865998 0)
(-0.0069251 0.000882915 0)
(-0.00763859 0.000895547 0)
(-0.00836089 0.000904333 0)
(-0.0090891 0.000909698 0)
(-0.00982068 0.000912028 0)
(-0.0105533 0.00091168 0)
(-0.011285 0.000908995 0)
(-0.012014 0.000904273 0)
(-0.0127388 0.000897794 0)
(-0.0134579 0.000889812 0)
(-0.0141703 0.00088055 0)
(-0.014875 0.000870205 0)
(-0.0155711 0.00085895 0)
(-0.016258 0.000846943 0)
(-0.016935 0.000834317 0)
(-0.0176016 0.000821191 0)
(-0.0182576 0.000807672 0)
(-0.0189025 0.000793845 0)
(-0.0195361 0.000779783 0)
(-0.0201583 0.000765548 0)
(-0.0207688 0.0007512 0)
(-0.0213677 0.000736787 0)
(-0.0219548 0.000722343 0)
(-0.0225301 0.000707903 0)
(-0.0230937 0.000693498 0)
(-0.0236455 0.00067915 0)
(-0.0241856 0.000664876 0)
(-0.024714 0.000650691 0)
(-0.0252309 0.000636612 0)
(-0.0257364 0.000622655 0)
(-0.0262304 0.000608825 0)
(-0.0267132 0.000595132 0)
(-0.0271848 0.000581582 0)
(-0.0276453 0.000568185 0)
(-0.028095 0.000554947 0)
(-0.0285339 0.000541869 0)
(-0.0289621 0.000528954 0)
(-0.0293798 0.00051621 0)
(-0.0297872 0.00050364 0)
(-0.0301843 0.000491241 0)
(-0.0305713 0.000479011 0)
(-0.0309483 0.000466949 0)
(-0.0313156 0.000455055 0)
(-0.0316731 0.000443324 0)
(-0.0320211 0.00043175 0)
(-0.0323597 0.000420326 0)
(-0.0326889 0.000409044 0)
(-0.0330089 0.0003979 0)
(-0.0333199 0.000386887 0)
(-0.0336219 0.000375992 0)
(-0.033915 0.000365204 0)
(-0.0341992 0.000354512 0)
(-0.0344748 0.000343905 0)
(-0.0347416 0.000333369 0)
(-0.0349998 0.000322887 0)
(-0.0352495 0.000312439 0)
(-0.0354905 0.000302004 0)
(-0.035723 0.000291562 0)
(-0.0359469 0.000281092 0)
(-0.0361622 0.000270568 0)
(-0.0363688 0.000259961 0)
(-0.0365666 0.000249244 0)
(-0.0367556 0.00023839 0)
(-0.0369356 0.000227369 0)
(-0.0371066 0.000216149 0)
(-0.0372682 0.000204694 0)
(-0.0374203 0.000192968 0)
(-0.0375627 0.000180932 0)
(-0.0376952 0.000168547 0)
(-0.0378173 0.000155769 0)
(-0.0379288 0.000142554 0)
(-0.0380294 0.000128852 0)
(-0.0381185 0.000114613 0)
(-0.0381959 9.9784e-05 0)
(-0.0382609 8.4312e-05 0)
(-0.038313 6.81421e-05 0)
(-0.0383518 5.12176e-05 0)
(-0.0383765 3.34807e-05 0)
(-0.0383865 1.48747e-05 0)
(-0.0383812 -4.65672e-06 0)
(-0.0383597 -2.51704e-05 0)
(-0.0383213 -4.67242e-05 0)
(-0.0382652 -6.93768e-05 0)
(-0.0381904 -9.31864e-05 0)
(-0.038096 -0.000118209 0)
(-0.0379812 -0.000144497 0)
(-0.0378448 -0.000172098 0)
(-0.0376859 -0.000201059 0)
(-0.0375034 -0.000231418 0)
(-0.0372962 -0.000263211 0)
(-0.0370631 -0.000296466 0)
(-0.0368031 -0.000331202 0)
(-0.0365151 -0.000367425 0)
(-0.0361978 -0.000405134 0)
(-0.0358502 -0.000444311 0)
(-0.0354712 -0.000484927 0)
(-0.0350596 -0.000526938 0)
(-0.0346145 -0.000570282 0)
(-0.0341349 -0.000614878 0)
(-0.0336198 -0.000660627 0)
(-0.0330686 -0.00070741 0)
(-0.0324803 -0.000755086 0)
(-0.0318546 -0.00080349 0)
(-0.0311909 -0.000852434 0)
(-0.0304889 -0.000901699 0)
(-0.0297485 -0.000951043 0)
(-0.0289699 -0.0010002 0)
(-0.0281533 -0.00104886 0)
(-0.0272993 -0.00109671 0)
(-0.0264086 -0.0011434 0)
(-0.0254825 -0.00118856 0)
(-0.0245222 -0.00123178 0)
(-0.0235296 -0.00127265 0)
(-0.0225065 -0.00131072 0)
(-0.0214555 -0.00134554 0)
(-0.0203792 -0.00137663 0)
(-0.0192808 -0.0014035 0)
(-0.0181638 -0.00142565 0)
(-0.0170321 -0.00144257 0)
(-0.0158899 -0.00145377 0)
(-0.0147418 -0.00145874 0)
(-0.013593 -0.00145696 0)
(-0.0124487 -0.00144796 0)
(-0.0113148 -0.00143126 0)
(-0.0101973 -0.0014064 0)
(-0.00910275 -0.00137294 0)
(-0.00803776 -0.00133048 0)
(-0.00700936 -0.00127866 0)
(-0.00602472 -0.00121715 0)
(-0.00509122 -0.00114568 0)
(-0.00421629 -0.00106409 0)
(-0.00340737 -0.000972319 0)
(-0.00267176 -0.000870491 0)
(-0.0020164 -0.000758995 0)
(-0.00144761 -0.000638642 0)
(-0.000970686 -0.000510911 0)
(-0.00058931 -0.000378369 0)
(-0.000304697 -0.000245365 0)
(-0.000114435 -0.000119152 0)
(-1.07644e-05 -1.15143e-05 0)
(2.23989e-05 5.85754e-05 0)
(1.20112e-05 5.92124e-05 0)
(7.79553e-06 -6.48572e-05 0)
(8.18897e-06 -6.16702e-05 0)
(-3.0967e-05 1.96751e-05 0)
(-0.000129791 0.000141833 0)
(-0.000300358 0.000287102 0)
(-0.000548775 0.000443252 0)
(-0.000877369 0.000601497 0)
(-0.00128551 0.000755692 0)
(-0.0017704 0.000901926 0)
(-0.00232778 0.00103766 0)
(-0.00295236 0.00116148 0)
(-0.00363827 0.00127275 0)
(-0.00437934 0.0013713 0)
(-0.00516931 0.00145736 0)
(-0.006002 0.00153142 0)
(-0.00687146 0.00159411 0)
(-0.00777199 0.00164616 0)
(-0.00869824 0.00168839 0)
(-0.00964525 0.0017216 0)
(-0.0106084 0.0017466 0)
(-0.0115836 0.0017642 0)
(-0.0125669 0.00177518 0)
(-0.013555 0.00178025 0)
(-0.0145448 0.0017801 0)
(-0.0155336 0.00177537 0)
(-0.016519 0.00176663 0)
(-0.0174989 0.00175441 0)
(-0.0184714 0.0017392 0)
(-0.019435 0.00172142 0)
(-0.0203883 0.00170147 0)
(-0.0213301 0.00167969 0)
(-0.0222595 0.00165637 0)
(-0.0231756 0.0016318 0)
(-0.0240777 0.00160618 0)
(-0.0249653 0.00157975 0)
(-0.025838 0.00155266 0)
(-0.0266953 0.00152506 0)
(-0.027537 0.0014971 0)
(-0.0283629 0.00146889 0)
(-0.0291728 0.0014405 0)
(-0.0299667 0.00141203 0)
(-0.0307444 0.00138355 0)
(-0.031506 0.00135511 0)
(-0.0322515 0.00132677 0)
(-0.032981 0.00129856 0)
(-0.0336945 0.00127052 0)
(-0.0343922 0.00124269 0)
(-0.0350741 0.00121508 0)
(-0.0357404 0.00118772 0)
(-0.0363912 0.00116063 0)
(-0.0370267 0.00113383 0)
(-0.037647 0.00110733 0)
(-0.0382524 0.00108113 0)
(-0.0388429 0.00105525 0)
(-0.0394189 0.0010297 0)
(-0.0399804 0.00100449 0)
(-0.0405276 0.000979608 0)
(-0.0410608 0.000955065 0)
(-0.0415802 0.000930855 0)
(-0.0420859 0.000906977 0)
(-0.042578 0.000883428 0)
(-0.0430569 0.000860199 0)
(-0.0435227 0.000837279 0)
(-0.0439755 0.000814656 0)
(-0.0444155 0.000792318 0)
(-0.0448429 0.000770252 0)
(-0.0452578 0.000748441 0)
(-0.0456603 0.000726862 0)
(-0.0460506 0.000705495 0)
(-0.0464289 0.000684317 0)
(-0.0467951 0.000663304 0)
(-0.0471494 0.000642427 0)
(-0.0474919 0.00062165 0)
(-0.0478225 0.000600939 0)
(-0.0481414 0.000580255 0)
(-0.0484484 0.000559558 0)
(-0.0487437 0.000538803 0)
(-0.0490271 0.000517941 0)
(-0.0492987 0.000496922 0)
(-0.0495582 0.000475691 0)
(-0.0498055 0.000454194 0)
(-0.0500405 0.000432372 0)
(-0.0502631 0.000410161 0)
(-0.0504729 0.000387492 0)
(-0.0506697 0.000364295 0)
(-0.0508531 0.000340495 0)
(-0.0510229 0.000316015 0)
(-0.0511786 0.000290773 0)
(-0.0513198 0.000264679 0)
(-0.051446 0.000237642 0)
(-0.0515567 0.000209566 0)
(-0.0516512 0.000180352 0)
(-0.051729 0.000149901 0)
(-0.0517892 0.000118107 0)
(-0.0518312 8.48634e-05 0)
(-0.0518542 5.00622e-05 0)
(-0.0518573 1.35951e-05 0)
(-0.0518396 -2.46464e-05 0)
(-0.0518 -6.47713e-05 0)
(-0.0517376 -0.000106889 0)
(-0.0516513 -0.000151111 0)
(-0.0515398 -0.000197543 0)
(-0.051402 -0.000246288 0)
(-0.0512366 -0.000297445 0)
(-0.0510424 -0.000351103 0)
(-0.0508179 -0.000407346 0)
(-0.0505618 -0.000466247 0)
(-0.0502727 -0.000527868 0)
(-0.049949 -0.000592257 0)
(-0.0495895 -0.000659444 0)
(-0.0491924 -0.00072944 0)
(-0.0487565 -0.000802235 0)
(-0.0482803 -0.000877795 0)
(-0.0477623 -0.000956059 0)
(-0.0472011 -0.00103694 0)
(-0.0465954 -0.00112031 0)
(-0.045944 -0.00120601 0)
(-0.0452458 -0.00129386 0)
(-0.0444996 -0.00138362 0)
(-0.0437047 -0.00147501 0)
(-0.0428603 -0.00156771 0)
(-0.0419658 -0.00166137 0)
(-0.041021 -0.00175556 0)
(-0.0400257 -0.00184981 0)
(-0.03898 -0.00194362 0)
(-0.0378846 -0.00203641 0)
(-0.03674 -0.00212756 0)
(-0.0355476 -0.00221642 0)
(-0.0343087 -0.00230227 0)
(-0.0330251 -0.00238435 0)
(-0.0316993 -0.00246187 0)
(-0.030334 -0.00253398 0)
(-0.0289322 -0.0025998 0)
(-0.0274976 -0.00265845 0)
(-0.0260344 -0.002709 0)
(-0.0245472 -0.0027505 0)
(-0.0230411 -0.002782 0)
(-0.0215216 -0.00280256 0)
(-0.0199949 -0.00281122 0)
(-0.0184675 -0.00280705 0)
(-0.0169465 -0.00278913 0)
(-0.0154394 -0.0027566 0)
(-0.013954 -0.0027086 0)
(-0.0124989 -0.00264437 0)
(-0.0110824 -0.00256318 0)
(-0.00971377 -0.00246441 0)
(-0.00840203 -0.00234754 0)
(-0.00715654 -0.00221219 0)
(-0.00598668 -0.00205819 0)
(-0.0049017 -0.00188562 0)
(-0.00391054 -0.00169495 0)
(-0.0030216 -0.00148717 0)
(-0.00224236 -0.00126411 0)
(-0.00157893 -0.00102882 0)
(-0.00103541 -0.000786165 0)
(-0.000613074 -0.000543873 0)
(-0.000309216 -0.000313955 0)
(-0.000115736 -0.000114658 0)
(-1.82314e-05 2.66112e-05 0)
(4.37231e-06 6.57942e-05 0)
(1.47975e-06 -6.42663e-05 0)
(-2.40228e-05 -2.51124e-05 0)
(-0.000112522 0.000115487 0)
(-0.000278195 0.000311633 0)
(-0.000531103 0.000539598 0)
(-0.000876836 0.000782638 0)
(-0.00131731 0.00102841 0)
(-0.00185136 0.0012683 0)
(-0.00247571 0.00149639 0)
(-0.00318554 0.00170888 0)
(-0.00397481 0.00190348 0)
(-0.00483687 0.00207901 0)
(-0.00576466 0.00223508 0)
(-0.00675092 0.00237192 0)
(-0.00778851 0.00249012 0)
(-0.00887044 0.00259054 0)
(-0.00998999 0.00267428 0)
(-0.0111408 0.00274248 0)
(-0.012317 0.00279637 0)
(-0.0135131 0.0028372 0)
(-0.0147239 0.00286618 0)
(-0.0159449 0.0028845 0)
(-0.0171719 0.0028933 0)
(-0.0184012 0.00289363 0)
(-0.0196293 0.0028865 0)
(-0.0208534 0.00287283 0)
(-0.0220709 0.00285346 0)
(-0.0232793 0.00282916 0)
(-0.0244768 0.00280063 0)
(-0.0256616 0.00276848 0)
(-0.0268322 0.00273327 0)
(-0.0279873 0.0026955 0)
(-0.029126 0.00265559 0)
(-0.0302474 0.00261395 0)
(-0.0313506 0.00257088 0)
(-0.0324351 0.00252669 0)
(-0.0335004 0.00248162 0)
(-0.0345462 0.00243591 0)
(-0.0355721 0.00238972 0)
(-0.0365781 0.00234322 0)
(-0.0375638 0.00229656 0)
(-0.0385293 0.00224984 0)
(-0.0394746 0.00220317 0)
(-0.0403996 0.00215663 0)
(-0.0413044 0.00211029 0)
(-0.0421891 0.00206423 0)
(-0.0430538 0.00201849 0)
(-0.0438987 0.00197311 0)
(-0.0447239 0.00192814 0)
(-0.0455297 0.0018836 0)
(-0.0463161 0.00183954 0)
(-0.0470834 0.00179596 0)
(-0.0478319 0.00175289 0)
(-0.0485617 0.00171034 0)
(-0.0492731 0.00166833 0)
(-0.0499663 0.00162687 0)
(-0.0506415 0.00158596 0)
(-0.0512991 0.0015456 0)
(-0.0519392 0.00150578 0)
(-0.052562 0.00146652 0)
(-0.0531679 0.00142779 0)
(-0.053757 0.00138958 0)
(-0.0543296 0.00135188 0)
(-0.0548859 0.00131467 0)
(-0.0554261 0.00127794 0)
(-0.0559503 0.00124164 0)
(-0.0564588 0.00120577 0)
(-0.0569518 0.00117027 0)
(-0.0574295 0.00113513 0)
(-0.0578918 0.00110029 0)
(-0.0583391 0.00106572 0)
(-0.0587713 0.00103137 0)
(-0.0591886 0.00099718 0)
(-0.059591 0.000963098 0)
(-0.0599786 0.000929061 0)
(-0.0603513 0.000895002 0)
(-0.0607092 0.000860849 0)
(-0.0610522 0.000826525 0)
(-0.0613802 0.000791946 0)
(-0.061693 0.000757028 0)
(-0.0619906 0.000721681 0)
(-0.0622727 0.000685806 0)
(-0.0625391 0.000649301 0)
(-0.0627895 0.000612055 0)
(-0.0630235 0.000573956 0)
(-0.0632408 0.000534883 0)
(-0.0634409 0.000494711 0)
(-0.0636234 0.000453305 0)
(-0.0637878 0.000410525 0)
(-0.0639333 0.000366226 0)
(-0.0640594 0.000320257 0)
(-0.0641654 0.000272461 0)
(-0.0642504 0.000222678 0)
(-0.0643136 0.000170744 0)
(-0.064354 0.000116489 0)
(-0.0643708 5.97426e-05 0)
(-0.0643629 3.32132e-07 0)
(-0.0643291 -6.19145e-05 0)
(-0.0642682 -0.000127171 0)
(-0.064179 -0.000195611 0)
(-0.0640602 -0.000267407 0)
(-0.0639103 -0.000342726 0)
(-0.0637279 -0.000421728 0)
(-0.0635115 -0.000504564 0)
(-0.0632594 -0.000591377 0)
(-0.0629702 -0.000682294 0)
(-0.0626421 -0.000777428 0)
(-0.0622734 -0.000876871 0)
(-0.0618623 -0.000980694 0)
(-0.0614071 -0.00108894 0)
(-0.0609062 -0.00120162 0)
(-0.0603576 -0.00131871 0)
(-0.0597596 -0.00144015 0)
(-0.0591106 -0.00156585 0)
(-0.058409 -0.00169564 0)
(-0.0576531 -0.00182934 0)
(-0.0568415 -0.00196668 0)
(-0.0559729 -0.00210736 0)
(-0.055046 -0.00225099 0)
(-0.0540598 -0.00239714 0)
(-0.0530135 -0.00254529 0)
(-0.0519065 -0.00269484 0)
(-0.0507383 -0.00284514 0)
(-0.0495091 -0.00299544 0)
(-0.0482189 -0.00314491 0)
(-0.0468685 -0.00329266 0)
(-0.0454587 -0.0034377 0)
(-0.0439911 -0.00357897 0)
(-0.0424674 -0.00371535 0)
(-0.04089 -0.00384562 0)
(-0.0392617 -0.00396853 0)
(-0.0375857 -0.00408273 0)
(-0.035866 -0.00418685 0)
(-0.0341069 -0.00427947 0)
(-0.0323136 -0.00435912 0)
(-0.0304915 -0.00442433 0)
(-0.0286469 -0.00447359 0)
(-0.0267865 -0.0045054 0)
(-0.0249176 -0.0045183 0)
(-0.0230482 -0.0045108 0)
(-0.0211866 -0.00448151 0)
(-0.019342 -0.00442907 0)
(-0.0175237 -0.00435221 0)
(-0.0157416 -0.00424974 0)
(-0.0140061 -0.00412061 0)
(-0.0123276 -0.00396393 0)
(-0.0107171 -0.003779 0)
(-0.00918547 -0.00356539 0)
(-0.0077435 -0.003323 0)
(-0.0064019 -0.00305219 0)
(-0.00517088 -0.00275393 0)
(-0.00405992 -0.00243008 0)
(-0.00307741 -0.00208373 0)
(-0.00223013 -0.00171975 0)
(-0.00152273 -0.00134556 0)
(-0.000956986 -0.000972297 0)
(-0.000530812 -0.000616461 0)
(-0.000237114 -0.000301924 0)
(-6.54777e-05 -6.28659e-05 0)
(-4.39196e-06 4.81306e-05 0)
(-4.98757e-06 -4.54148e-05 0)
(-5.88218e-05 5.45697e-05 0)
(-0.000202122 0.000273555 0)
(-0.000441371 0.000560157 0)
(-0.000783093 0.000885732 0)
(-0.0012317 0.00122952 0)
(-0.001788 0.00157607 0)
(-0.00245009 0.00191422 0)
(-0.00321402 0.0022362 0)
(-0.00407425 0.00253685 0)
(-0.00502418 0.00281294 0)
(-0.00605642 0.00306269 0)
(-0.00716315 0.00328545 0)
(-0.00833638 0.00348133 0)
(-0.00956812 0.00365103 0)
(-0.0108506 0.00379568 0)
(-0.0121761 0.00391665 0)
(-0.0135377 0.0040155 0)
(-0.0149285 0.00409389 0)
(-0.0163422 0.00415352 0)
(-0.0177731 0.00419609 0)
(-0.0192159 0.00422325 0)
(-0.0206656 0.00423658 0)
(-0.022118 0.00423759 0)
(-0.0235691 0.00422769 0)
(-0.0250154 0.00420819 0)
(-0.026454 0.00418031 0)
(-0.0278819 0.00414515 0)
(-0.029297 0.00410371 0)
(-0.0306971 0.0040569 0)
(-0.0320804 0.00400551 0)
(-0.0334455 0.00395028 0)
(-0.0347911 0.00389183 0)
(-0.036116 0.00383075 0)
(-0.0374194 0.0037675 0)
(-0.0387006 0.00370254 0)
(-0.0399589 0.00363622 0)
(-0.041194 0.00356888 0)
(-0.0424054 0.00350079 0)
(-0.0435929 0.0034322 0)
(-0.0447563 0.00336333 0)
(-0.0458955 0.00329434 0)
(-0.0470105 0.00322539 0)
(-0.0481013 0.00315661 0)
(-0.0491679 0.00308811 0)
(-0.0502105 0.00301999 0)
(-0.0512292 0.00295234 0)
(-0.0522241 0.00288522 0)
(-0.0531955 0.00281869 0)
(-0.0541436 0.00275281 0)
(-0.0550685 0.00268761 0)
(-0.0559706 0.00262314 0)
(-0.0568501 0.00255942 0)
(-0.0577073 0.00249647 0)
(-0.0585425 0.00243432 0)
(-0.0593558 0.00237298 0)
(-0.0601477 0.00231244 0)
(-0.0609185 0.00225273 0)
(-0.0616683 0.00219383 0)
(-0.0623975 0.00213574 0)
(-0.0631065 0.00207844 0)
(-0.0637953 0.00202192 0)
(-0.0644644 0.00196615 0)
(-0.065114 0.0019111 0)
(-0.0657444 0.00185676 0)
(-0.0663557 0.00180307 0)
(-0.0669482 0.00174999 0)
(-0.0675222 0.00169748 0)
(-0.0680777 0.00164549 0)
(-0.0686151 0.00159395 0)
(-0.0691344 0.0015428 0)
(-0.0696357 0.00149197 0)
(-0.0701192 0.00144139 0)
(-0.0705849 0.00139096 0)
(-0.0710329 0.0013406 0)
(-0.0714631 0.00129021 0)
(-0.0718756 0.00123969 0)
(-0.0722703 0.00118891 0)
(-0.0726471 0.00113777 0)
(-0.0730059 0.00108614 0)
(-0.0733464 0.00103388 0)
(-0.0736685 0.000980855 0)
(-0.0739718 0.000926913 0)
(-0.074256 0.000871895 0)
(-0.0745208 0.000815635 0)
(-0.0747656 0.00075796 0)
(-0.0749901 0.000698687 0)
(-0.0751936 0.000637623 0)
(-0.0753754 0.000574565 0)
(-0.075535 0.000509304 0)
(-0.0756715 0.000441626 0)
(-0.0757841 0.000371305 0)
(-0.075872 0.000298114 0)
(-0.075934 0.000221814 0)
(-0.0759692 0.000142165 0)
(-0.0759764 5.89218e-05 0)
(-0.0759544 -2.81609e-05 0)
(-0.0759019 -0.000119331 0)
(-0.0758175 -0.000214837 0)
(-0.0756999 -0.000314926 0)
(-0.0755474 -0.000419843 0)
(-0.0753584 -0.000529823 0)
(-0.0751313 -0.000645092 0)
(-0.0748643 -0.000765864 0)
(-0.0745557 -0.000892339 0)
(-0.0742035 -0.00102469 0)
(-0.0738058 -0.00116309 0)
(-0.0733607 -0.00130764 0)
(-0.0728663 -0.00145846 0)
(-0.0723204 -0.00161558 0)
(-0.0717211 -0.00177903 0)
(-0.0710664 -0.00194877 0)
(-0.0703543 -0.0021247 0)
(-0.0695829 -0.00230667 0)
(-0.0687504 -0.00249446 0)
(-0.0678549 -0.00268777 0)
(-0.0668947 -0.00288624 0)
(-0.0658685 -0.0030894 0)
(-0.0647748 -0.0032967 0)
(-0.0636124 -0.00350751 0)
(-0.0623805 -0.00372108 0)
(-0.0610784 -0.00393655 0)
(-0.0597057 -0.00415297 0)
(-0.0582624 -0.00436926 0)
(-0.0567488 -0.00458424 0)
(-0.0551657 -0.00479661 0)
(-0.0535143 -0.00500496 0)
(-0.0517961 -0.00520778 0)
(-0.0500135 -0.00540343 0)
(-0.0481689 -0.0055902 0)
(-0.0462659 -0.00576627 0)
(-0.044308 -0.00592973 0)
(-0.0423 -0.00607862 0)
(-0.0402468 -0.0062109 0)
(-0.0381543 -0.0063245 0)
(-0.0360288 -0.00641729 0)
(-0.0338775 -0.00648716 0)
(-0.0317082 -0.00653199 0)
(-0.0295292 -0.00654966 0)
(-0.0273496 -0.00653814 0)
(-0.0251791 -0.00649544 0)
(-0.0230278 -0.00641969 0)
(-0.0209066 -0.00630911 0)
(-0.0188268 -0.00616211 0)
(-0.0167998 -0.00597729 0)
(-0.0148377 -0.00575349 0)
(-0.0129525 -0.00548987 0)
(-0.0111566 -0.00518599 0)
(-0.00946189 -0.00484193 0)
(-0.00788026 -0.00445841 0)
(-0.00642293 -0.00403708 0)
(-0.0051003 -0.00358078 0)
(-0.00392156 -0.00309402 0)
(-0.00289425 -0.00258358 0)
(-0.00202381 -0.00205938 0)
(-0.00131302 -0.00153575 0)
(-0.000761155 -0.00103304 0)
(-0.000363155 -0.000579608 0)
(-0.000113918 -0.000214485 0)
(-1.3058e-05 4.82657e-06 0)
(-1.1144e-05 -8.11453e-06 0)
(-9.38246e-05 0.000179647 0)
(-0.000294095 0.000497832 0)
(-0.000609971 0.000892009 0)
(-0.00104387 0.00132988 0)
(-0.00159817 0.00178755 0)
(-0.00227231 0.00224681 0)
(-0.00306322 0.00269429 0)
(-0.003966 0.00312052 0)
(-0.00497442 0.003519 0)
(-0.00608116 0.00388557 0)
(-0.00727818 0.00421788 0)
(-0.00855699 0.00451494 0)
(-0.00990894 0.00477676 0)
(-0.0113253 0.00500414 0)
(-0.0127977 0.0051984 0)
(-0.0143177 0.00536125 0)
(-0.0158776 0.00549465 0)
(-0.0174699 0.00560072 0)
(-0.0190876 0.00568164 0)
(-0.0207244 0.0057396 0)
(-0.0223743 0.00577675 0)
(-0.0240319 0.00579519 0)
(-0.0256923 0.0057969 0)
(-0.0273511 0.00578375 0)
(-0.0290044 0.00575749 0)
(-0.0306487 0.00571974 0)
(-0.0322808 0.00567198 0)
(-0.0338981 0.00561556 0)
(-0.0354983 0.00555169 0)
(-0.0370792 0.00548149 0)
(-0.0386391 0.00540592 0)
(-0.0401766 0.00532587 0)
(-0.0416903 0.00524209 0)
(-0.0431793 0.00515527 0)
(-0.0446426 0.00506601 0)
(-0.0460796 0.00497483 0)
(-0.0474898 0.00488217 0)
(-0.0488726 0.00478842 0)
(-0.0502279 0.00469394 0)
(-0.0515553 0.00459901 0)
(-0.0528548 0.00450388 0)
(-0.0541262 0.00440878 0)
(-0.0553697 0.00431388 0)
(-0.0565852 0.00421935 0)
(-0.0577729 0.00412534 0)
(-0.058933 0.00403194 0)
(-0.0600656 0.00393928 0)
(-0.0611709 0.00384742 0)
(-0.0622493 0.00375646 0)
(-0.0633009 0.00366644 0)
(-0.0643261 0.00357742 0)
(-0.0653252 0.00348944 0)
(-0.0662984 0.00340253 0)
(-0.0672462 0.00331672 0)
(-0.0681688 0.00323203 0)
(-0.0690666 0.00314847 0)
(-0.0699399 0.00306604 0)
(-0.0707891 0.00298473 0)
(-0.0716145 0.00290454 0)
(-0.0724163 0.00282545 0)
(-0.0731951 0.00274744 0)
(-0.073951 0.00267046 0)
(-0.0746844 0.0025945 0)
(-0.0753955 0.00251949 0)
(-0.0760847 0.0024454 0)
(-0.0767522 0.00237215 0)
(-0.0773983 0.00229969 0)
(-0.0780232 0.00222794 0)
(-0.078627 0.00215682 0)
(-0.07921 0.00208624 0)
(-0.0797722 0.0020161 0)
(-0.0803139 0.00194629 0)
(-0.0808351 0.00187671 0)
(-0.0813359 0.00180722 0)
(-0.0818162 0.0017377 0)
(-0.0822761 0.00166799 0)
(-0.0827155 0.00159796 0)
(-0.0831342 0.00152743 0)
(-0.0835322 0.00145623 0)
(-0.0839091 0.00138419 0)
(-0.0842648 0.00131111 0)
(-0.084599 0.00123678 0)
(-0.0849112 0.001161 0)
(-0.0852011 0.00108353 0)
(-0.085468 0.00100415 0)
(-0.0857116 0.000922596 0)
(-0.0859311 0.000838618 0)
(-0.0861259 0.000751941 0)
(-0.0862951 0.000662287 0)
(-0.0864379 0.000569364 0)
(-0.0865534 0.000472873 0)
(-0.0866405 0.000372505 0)
(-0.0866982 0.000267945 0)
(-0.0867253 0.000158867 0)
(-0.0867205 4.49472e-05 0)
(-0.0866824 -7.41455e-05 0)
(-0.0866096 -0.000198743 0)
(-0.0865006 -0.000329177 0)
(-0.0863537 -0.000465777 0)
(-0.0861673 -0.000608868 0)
(-0.0859396 -0.000758761 0)
(-0.0856686 -0.000915756 0)
(-0.0853525 -0.00108014 0)
(-0.0849892 -0.00125217 0)
(-0.0845767 -0.00143208 0)
(-0.0841129 -0.00162008 0)
(-0.0835955 -0.00181632 0)
(-0.0830224 -0.00202094 0)
(-0.0823913 -0.00223398 0)
(-0.0817 -0.00245548 0)
(-0.0809464 -0.00268536 0)
(-0.0801282 -0.00292349 0)
(-0.0792433 -0.00316966 0)
(-0.0782896 -0.00342357 0)
(-0.0772652 -0.00368481 0)
(-0.0761682 -0.00395288 0)
(-0.0749971 -0.00422715 0)
(-0.0737502 -0.00450688 0)
(-0.0724264 -0.0047912 0)