/*--------------------------------*- C++ -*----------------------------------*\
  =========                 |
  \\      /  F ield         | OpenFOAM: The Open Source CFD Toolbox
   \\    /   O peration     | Website:  https://openfoam.org
    \\  /    A nd           | Version:  7
     \\/     M anipulation  |
\*---------------------------------------------------------------------------*/
FoamFile
{
    version     2.0;
    format      ascii;
    class       volScalarField;
    location    "0.0625";
    object      p;
}
// * * * * * * * * * * * * * * * * * * * * * * * * * * * * * * * * * * * * * //

dimensions      [0 2 -2 0 0 0 0];

internalField   nonuniform List<scalar> 
51200
(
-6.62448e-09
1.72326e-05
4.15621e-05
6.31875e-05
7.92396e-05
9.19695e-05
0.00010239
0.000111118
0.000118552
0.000124976
0.000130613
0.00013563
0.000140137
0.000144217
0.00014795
0.000151404
0.000154627
0.000157653
0.000160516
0.000163255
0.000165915
0.000168521
0.000171078
0.000173586
0.000176052
0.000178486
0.000180907
0.000183333
0.00018577
0.000188218
0.00019068
0.000193162
0.000195673
0.00019822
0.000200806
0.00020342
0.000206058
0.000208722
0.000211421
0.000214164
0.000216952
0.000219779
0.000222645
0.000225552
0.000228507
0.000231513
0.000234565
0.000237651
0.000240767
0.000243921
0.000247122
0.000250376
0.000253685
0.000257051
0.000260468
0.000263926
0.000267414
0.000270932
0.000274491
0.000278102
0.000281764
0.000285473
0.000289221
0.000293005
0.000296824
0.000300678
0.000304567
0.000308492
0.000312454
0.000316449
0.00032047
0.000324513
0.000328579
0.000332668
0.000336778
0.000340903
0.000345037
0.00034918
0.000353332
0.000357489
0.000361646
0.000365796
0.000369934
0.000374062
0.000378181
0.000382287
0.000386376
0.000390442
0.000394479
0.000398482
0.00040245
0.000406384
0.000410282
0.000414141
0.000417951
0.000421707
0.000425406
0.000429051
0.000432642
0.000436174
0.000439641
0.000443037
0.000446363
0.000449616
0.000452795
0.000455898
0.000458922
0.000461863
0.000464718
0.000467489
0.000470174
0.000472771
0.000475272
0.00047767
0.000479964
0.000482159
0.000484257
0.000486255
0.000488143
0.000489913
0.000491571
0.000493122
0.000494571
0.000495909
0.000497128
0.000498223
0.000499195
0.000500045
0.000500775
0.000501387
0.000501884
0.000502259
0.000502503
0.000502609
0.000502587
0.000502449
0.000502202
0.000501841
0.000501353
0.000500739
0.000500007
0.000499172
0.000498243
0.000497224
0.000496119
0.000494936
0.000493689
0.000492392
0.000491065
0.000489733
0.00048842
0.000487143
0.000485922
0.000484787
0.00048379
0.000482984
0.000482403
0.000482049
0.00048192
0.00048198
1.69585e-05
3.2616e-05
5.15418e-05
6.87129e-05
8.28671e-05
9.4618e-05
0.000104506
0.000112947
0.000120244
0.000126617
0.000132244
0.000137275
0.000141821
0.000145959
0.000149755
0.000153274
0.000156568
0.000159673
0.000162614
0.000165416
0.000168113
0.000170737
0.000173309
0.000175838
0.00017833
0.000180791
0.000183233
0.000185669
0.000188112
0.000190565
0.00019303
0.000195508
0.000198001
0.000200521
0.000203075
0.000205663
0.000208282
0.000210929
0.000213607
0.000216321
0.000219074
0.000221866
0.000224694
0.000227556
0.000230457
0.000233406
0.000236406
0.000239455
0.000242545
0.000245672
0.000248837
0.000252045
0.000255295
0.000258594
0.000261946
0.00026535
0.000268796
0.000272278
0.000275796
0.000279355
0.000282958
0.000286606
0.000290294
0.000294021
0.000297785
0.000301586
0.000305419
0.000309285
0.000313185
0.000317119
0.000321081
0.000325067
0.000329073
0.0003331
0.000337148
0.000341213
0.000345287
0.000349367
0.000353451
0.000357542
0.000361636
0.000365725
0.000369805
0.000373871
0.000377922
0.000381959
0.00038598
0.00038998
0.000393955
0.000397899
0.000401807
0.000405677
0.000409509
0.000413301
0.00041705
0.000420748
0.000424391
0.000427977
0.000431507
0.000434978
0.000438388
0.00044173
0.000445002
0.000448201
0.000451325
0.000454375
0.000457348
0.000460242
0.00046305
0.000465771
0.000468404
0.000470949
0.000473405
0.000475766
0.000478026
0.000480182
0.000482237
0.000484194
0.000486049
0.000487795
0.000489429
0.000490954
0.000492373
0.000493684
0.000494883
0.000495967
0.000496935
0.000497784
0.000498512
0.000499121
0.000499613
0.000499992
0.000500257
0.000500398
0.000500413
0.000500307
0.000500091
0.00049977
0.000499341
0.0004988
0.00049815
0.000497399
0.000496559
0.000495637
0.000494641
0.000493581
0.000492469
0.000491316
0.000490137
0.000488951
0.000487783
0.00048666
0.0004856
0.000484621
0.000483753
0.000483044
0.000482538
0.000482237
0.000482132
0.000482211
4.14644e-05
5.17369e-05
6.42074e-05
7.69289e-05
8.85595e-05
9.88332e-05
0.000107818
0.000115693
0.000122635
0.000128791
0.000134279
0.000139219
0.000143711
0.000147827
0.00015162
0.000155143
0.000158447
0.000161571
0.000164545
0.000167383
0.000170104
0.000172737
0.000175308
0.000177837
0.000180336
0.000182809
0.000185259
0.000187697
0.000190133
0.000192577
0.000195036
0.000197508
0.000199993
0.000202493
0.000205019
0.000207578
0.000210172
0.000212799
0.000215455
0.000218143
0.000220865
0.000223627
0.000226426
0.00022926
0.000232127
0.000235032
0.000237985
0.000240992
0.000244047
0.000247146
0.000250286
0.000253464
0.000256679
0.000259932
0.000263231
0.000266584
0.000269988
0.000273436
0.00027692
0.000280439
0.000283998
0.000287598
0.000291237
0.000294916
0.000298634
0.000302389
0.000306176
0.000309994
0.000313842
0.000317722
0.000321634
0.00032557
0.000329525
0.000333498
0.000337491
0.000341503
0.000345526
0.000349553
0.000353582
0.000357613
0.000361646
0.000365679
0.000369704
0.000373715
0.00037771
0.000381687
0.000385646
0.000389584
0.000393499
0.000397385
0.000401238
0.000405052
0.000408824
0.000412556
0.000416246
0.000419891
0.000423484
0.000427019
0.000430496
0.000433914
0.000437271
0.000440564
0.000443788
0.00044694
0.000450017
0.000453019
0.000455946
0.000458797
0.000461566
0.000464249
0.00046684
0.000469341
0.000471754
0.00047408
0.000476311
0.000478441
0.000480466
0.000482389
0.000484215
0.000485941
0.000487562
0.000489072
0.000490474
0.000491767
0.000492953
0.000494027
0.000494991
0.000495844
0.000496581
0.000497198
0.000497695
0.000498079
0.000498357
0.000498526
0.000498579
0.000498513
0.000498332
0.000498048
0.000497666
0.000497186
0.000496606
0.000495929
0.000495167
0.000494327
0.000493419
0.000492455
0.000491448
0.000490409
0.000489348
0.000488278
0.00048722
0.000486202
0.000485251
0.000484381
0.000483605
0.000482953
0.000482474
0.000482198
0.000482126
0.00048225
6.38037e-05
6.95645e-05
7.75526e-05
8.66649e-05
9.57927e-05
0.000104393
0.000112254
0.000119352
0.000125756
0.000131543
0.000136779
0.000141536
0.000145895
0.000149918
0.00015365
0.000157132
0.000160398
0.000163492
0.000166447
0.000169281
0.000172008
0.000174645
0.000177213
0.000179731
0.000182218
0.000184683
0.00018713
0.000189561
0.000191986
0.000194413
0.000196851
0.000199307
0.00020178
0.000204269
0.000206776
0.000209309
0.000211875
0.000214475
0.000217108
0.00021977
0.000222464
0.000225194
0.000227963
0.000230772
0.00023362
0.000236502
0.000239425
0.000242393
0.000245409
0.00024847
0.000251577
0.000254728
0.00025792
0.000261149
0.000264417
0.000267729
0.000271089
0.000274498
0.000277948
0.000281435
0.00028496
0.000288522
0.000292123
0.000295761
0.000299437
0.000303148
0.000306894
0.000310671
0.000314476
0.000318309
0.000322172
0.00032606
0.00032997
0.000333895
0.000337838
0.000341796
0.000345768
0.000349748
0.000353729
0.000357708
0.000361686
0.00036566
0.000369628
0.000373584
0.000377525
0.000381447
0.000385349
0.000389228
0.000393081
0.000396907
0.000400703
0.000404463
0.000408182
0.000411858
0.000415491
0.00041908
0.000422621
0.000426108
0.000429538
0.000432907
0.000436216
0.000439461
0.00044264
0.000445748
0.000448783
0.000451742
0.000454626
0.000457433
0.000460163
0.00046281
0.00046537
0.000467837
0.000470215
0.000472506
0.000474708
0.000476816
0.000478822
0.000480724
0.000482527
0.000484233
0.000485841
0.000487344
0.00048874
0.000490028
0.000491209
0.000492279
0.000493241
0.000494095
0.000494842
0.000495477
0.000495994
0.000496393
0.000496684
0.000496871
0.000496956
0.000496932
0.000496796
0.000496555
0.000496217
0.000495787
0.000495267
0.000494658
0.000493967
0.000493203
0.000492374
0.00049149
0.000490565
0.000489613
0.000488646
0.000487672
0.000486704
0.000485762
0.000484878
0.000484076
0.000483369
0.000482762
0.000482287
0.000481991
0.000481907
0.000482025
8.10649e-05
8.47739e-05
9.01503e-05
9.67219e-05
0.000103768
0.000110793
0.0001175
0.000123751
0.000129522
0.000134841
0.00013974
0.000144249
0.000148415
0.000152289
0.000155913
0.000159316
0.000162525
0.000165566
0.000168471
0.000171268
0.000173972
0.000176595
0.000179152
0.000181656
0.000184123
0.000186566
0.000188994
0.000191411
0.000193823
0.000196233
0.000198648
0.000201077
0.000203526
0.000205997
0.000208486
0.000210998
0.000213538
0.00021611
0.000218716
0.000221355
0.000224025
0.000226726
0.000229462
0.000232239
0.000235059
0.000237922
0.000240824
0.000243767
0.000246754
0.000249784
0.000252854
0.000255969
0.000259131
0.000262337
0.000265582
0.000268866
0.000272192
0.000275562
0.000278976
0.000282431
0.000285922
0.00028945
0.000293016
0.000296619
0.000300255
0.000303925
0.000307628
0.000311364
0.000315129
0.000318919
0.000322733
0.000326573
0.000330435
0.000334316
0.000338211
0.000342117
0.000346034
0.00034996
0.000353891
0.00035782
0.000361744
0.000365661
0.000369569
0.000373466
0.000377348
0.000381212
0.000385057
0.000388877
0.00039267
0.000396435
0.000400168
0.000403869
0.000407533
0.000411155
0.000414733
0.000418265
0.000421751
0.000425186
0.000428567
0.000431888
0.000435149
0.000438346
0.000441478
0.00044454
0.000447532
0.000450452
0.000453297
0.000456063
0.000458752
0.000461361
0.000463888
0.000466328
0.000468678
0.000470939
0.000473112
0.000475196
0.000477185
0.000479074
0.000480863
0.000482554
0.000484149
0.000485644
0.000487037
0.000488324
0.000489506
0.000490582
0.00049155
0.000492409
0.000493163
0.000493811
0.000494351
0.000494779
0.000495095
0.000495305
0.000495415
0.000495427
0.000495339
0.000495148
0.000494859
0.00049448
0.000494016
0.000493469
0.000492844
0.000492151
0.000491398
0.000490593
0.000489746
0.000488868
0.000487974
0.000487079
0.00048619
0.000485319
0.000484487
0.000483724
0.000483055
0.000482485
0.000482018
0.000481689
0.000481545
0.000481589
9.54395e-05
9.79407e-05
0.000101704
0.000106528
0.000111957
0.000117617
0.000123243
0.000128659
0.000133777
0.000138583
0.000143086
0.000147295
0.000151228
0.000154914
0.000158383
0.000161668
0.000164788
0.00016776
0.000170604
0.000173345
0.000176
0.000178586
0.000181113
0.000183594
0.000186036
0.000188451
0.00019085
0.000193239
0.000195627
0.000198018
0.000200413
0.000202816
0.000205237
0.000207679
0.000210145
0.000212634
0.00021515
0.000217695
0.000220273
0.000222885
0.000225531
0.000228211
0.000230923
0.000233671
0.00023646
0.000239295
0.000242172
0.000245093
0.000248057
0.000251064
0.00025411
0.000257195
0.000260323
0.000263498
0.000266717
0.000269977
0.000273277
0.000276617
0.000279999
0.000283421
0.000286879
0.000290375
0.000293907
0.000297476
0.000301078
0.00030471
0.000308373
0.000312067
0.000315791
0.000319541
0.000323311
0.000327102
0.000330916
0.00033475
0.000338598
0.000342456
0.00034632
0.00035019
0.000354066
0.000357941
0.000361811
0.000365673
0.000369522
0.000373359
0.000377181
0.000380985
0.000384769
0.000388531
0.000392267
0.000395973
0.000399646
0.000403285
0.000406889
0.000410456
0.00041398
0.000417459
0.00042089
0.000424271
0.0004276
0.000430873
0.000434086
0.000437237
0.000440322
0.000443339
0.000446288
0.000449168
0.000451977
0.000454709
0.000457362
0.000459934
0.000462426
0.000464838
0.000467167
0.000469407
0.000471557
0.000473617
0.000475587
0.000477464
0.000479245
0.000480929
0.000482516
0.000484006
0.000485395
0.000486682
0.000487868
0.000488952
0.000489934
0.000490808
0.000491574
0.000492234
0.000492792
0.000493247
0.000493597
0.00049384
0.000493981
0.000494026
0.000493977
0.000493835
0.000493598
0.000493273
0.000492863
0.000492374
0.000491811
0.00049118
0.000490494
0.000489761
0.000488987
0.000488179
0.000487347
0.000486509
0.000485679
0.000484868
0.000484084
0.000483348
0.000482688
0.000482123
0.000481653
0.00048129
0.000481068
0.000480995
0.000107855
0.000109551
0.00011224
0.000115841
0.000120046
0.000124582
0.000129243
0.000133872
0.000138358
0.000142647
0.00014673
0.000150605
0.000154274
0.000157746
0.000161037
0.000164171
0.00016717
0.000170047
0.000172813
0.000175485
0.00017808
0.00018061
0.00018309
0.00018553
0.000187939
0.000190322
0.000192687
0.000195042
0.000197395
0.000199756
0.000202126
0.000204505
0.000206898
0.000209311
0.000211748
0.000214212
0.000216703
0.000219223
0.000221774
0.000224357
0.000226975
0.000229631
0.000232323
0.000235051
0.000237818
0.000240626
0.000243478
0.000246373
0.000249312
0.000252295
0.00025532
0.000258385
0.000261488
0.000264634
0.000267825
0.000271059
0.000274334
0.000277649
0.000281003
0.000284395
0.000287825
0.00029129
0.00029479
0.000298325
0.000301894
0.000305493
0.000309119
0.000312773
0.000316457
0.000320166
0.000323896
0.000327643
0.000331408
0.000335192
0.000338991
0.0003428
0.000346615
0.000350433
0.000354252
0.000358071
0.000361884
0.000365689
0.000369482
0.000373262
0.000377026
0.000380771
0.000384496
0.000388198
0.000391876
0.000395525
0.000399142
0.000402723
0.000406269
0.000409778
0.000413248
0.000416674
0.000420052
0.000423381
0.000426659
0.000429882
0.000433049
0.000436155
0.000439197
0.000442172
0.00044508
0.000447921
0.000450693
0.000453393
0.000456016
0.00045856
0.000461023
0.000463407
0.000465712
0.000467936
0.000470071
0.000472115
0.000474068
0.000475931
0.000477704
0.000479384
0.000480968
0.000482457
0.000483848
0.000485138
0.000486328
0.00048742
0.000488414
0.000489307
0.000490094
0.000490774
0.000491351
0.000491828
0.000492208
0.000492488
0.000492666
0.000492748
0.000492737
0.000492637
0.000492449
0.000492174
0.000491817
0.000491384
0.000490877
0.000490305
0.000489676
0.000489001
0.000488288
0.000487542
0.000486767
0.000485975
0.000485185
0.000484412
0.000483666
0.000482953
0.000482292
0.000481705
0.000481204
0.000480794
0.000480484
0.000480273
0.00011885
0.00011996
0.000121882
0.000124586
0.000127863
0.0001315
0.000135334
0.000139248
0.000143136
0.000146928
0.000150592
0.000154118
0.000157499
0.000160737
0.000163836
0.000166804
0.00016966
0.000172417
0.000175085
0.000177673
0.000180196
0.000182662
0.000185082
0.000187469
0.000189828
0.000192169
0.000194497
0.000196817
0.000199133
0.000201456
0.000203792
0.000206143
0.000208507
0.000210891
0.000213298
0.000215733
0.000218197
0.000220692
0.00022322
0.000225779
0.00022837
0.000230998
0.000233666
0.000236374
0.000239121
0.00024191
0.000244742
0.000247615
0.000250529
0.000253487
0.000256489
0.000259533
0.000262617
0.000265741
0.000268907
0.000272115
0.000275366
0.000278657
0.000281985
0.00028535
0.000288753
0.000292191
0.000295661
0.000299164
0.0003027
0.000306267
0.000309861
0.00031348
0.000317122
0.000320789
0.000324478
0.000328185
0.000331906
0.000335641
0.000339389
0.000343147
0.000346911
0.000350678
0.000354444
0.000358207
0.000361964
0.000365711
0.000369448
0.000373171
0.00037688
0.00038057
0.000384239
0.000387885
0.000391505
0.000395099
0.000398661
0.000402189
0.000405681
0.000409134
0.00041255
0.000415923
0.000419251
0.00042253
0.000425759
0.000428936
0.000432056
0.000435118
0.000438118
0.000441056
0.000443929
0.000446736
0.000449473
0.000452141
0.000454737
0.000457257
0.000459699
0.000462061
0.000464346
0.000466551
0.000468673
0.000470706
0.000472649
0.000474502
0.000476268
0.000477943
0.000479526
0.000481015
0.00048241
0.000483708
0.000484908
0.00048601
0.000487014
0.000487922
0.00048873
0.000489436
0.000490039
0.00049054
0.000490946
0.000491257
0.000491472
0.000491593
0.000491621
0.000491562
0.000491417
0.000491188
0.000490879
0.000490493
0.000490039
0.000489521
0.000488944
0.000488317
0.00048765
0.000486951
0.000486224
0.000485475
0.000484715
0.000483962
0.000483233
0.000482532
0.000481865
0.000481247
0.000480695
0.000480218
0.000479809
0.000479449
0.000128761
0.000129425
0.000130768
0.000132785
0.000135332
0.000138248
0.000141394
0.000144677
0.000148014
0.000151336
0.000154598
0.000157777
0.000160863
0.000163852
0.000166742
0.000169533
0.000172235
0.000174858
0.00017741
0.0001799
0.000182337
0.000184729
0.000187083
0.000189407
0.000191709
0.000193996
0.000196277
0.000198556
0.000200835
0.000203119
0.000205417
0.000207732
0.000210065
0.000212419
0.000214796
0.000217202
0.000219637
0.000222105
0.000224607
0.000227144
0.000229714
0.000232319
0.000234963
0.000237648
0.000240375
0.000243144
0.000245957
0.000248813
0.000251709
0.000254644
0.000257623
0.000260645
0.00026371
0.000266815
0.00026996
0.000273146
0.000276374
0.000279641
0.000282945
0.000286285
0.000289661
0.000293074
0.000296518
0.000299991
0.000303495
0.000307029
0.000310591
0.000314177
0.000317783
0.000321409
0.000325055
0.00032872
0.0003324
0.00033609
0.000339788
0.000343495
0.000347208
0.000350923
0.000354637
0.000358346
0.000362048
0.000365742
0.000369424
0.000373094
0.000376748
0.000380386
0.000384003
0.000387597
0.000391165
0.000394704
0.000398213
0.00040169
0.000405132
0.000408535
0.000411899
0.000415222
0.000418501
0.000421734
0.000424918
0.000428051
0.000431129
0.000434149
0.000437111
0.000440013
0.000442855
0.000445633
0.000448343
0.000450983
0.000453552
0.000456049
0.000458474
0.000460822
0.000463091
0.00046528
0.000467388
0.000469412
0.000471348
0.000473196
0.000474957
0.00047663
0.000478214
0.000479704
0.000481101
0.000482406
0.000483618
0.000484735
0.000485753
0.000486674
0.0004875
0.000488229
0.000488858
0.000489388
0.000489821
0.00049016
0.000490407
0.000490563
0.000490629
0.000490608
0.000490503
0.000490316
0.000490048
0.000489705
0.000489293
0.00048882
0.000488289
0.000487706
0.000487076
0.000486409
0.000485715
0.000484998
0.000484265
0.000483525
0.000482796
0.000482088
0.000481404
0.000480749
0.000480138
0.000479584
0.000479065
0.000478549
0.000137804
0.000138113
0.000139013
0.000140488
0.000142441
0.000144765
0.000147339
0.000150077
0.000152917
0.0001558
0.000158679
0.000161525
0.000164319
0.000167053
0.000169725
0.00017233
0.000174869
0.000177349
0.000179775
0.000182154
0.000184494
0.0001868
0.000189079
0.000191335
0.000193575
0.000195803
0.000198028
0.000200258
0.000202494
0.000204739
0.000206996
0.000209272
0.000211571
0.000213893
0.00021624
0.000218617
0.000221026
0.000223466
0.00022594
0.000228452
0.000231001
0.000233588
0.000236212
0.000238877
0.000241585
0.000244335
0.000247128
0.000249966
0.000252845
0.000255764
0.000258723
0.000261725
0.000264769
0.000267855
0.000270981
0.000274148
0.000277355
0.000280599
0.000283881
0.000287197
0.000290549
0.000293935
0.000297353
0.0003008
0.000304275
0.000307777
0.000311306
0.00031486
0.000318432
0.000322021
0.000325626
0.000329248
0.000332884
0.000336531
0.000340183
0.000343841
0.000347504
0.000351169
0.000354832
0.000358489
0.00036214
0.000365783
0.000369416
0.000373035
0.000376638
0.000380225
0.000383794
0.00038734
0.000390859
0.00039435
0.00039781
0.000401238
0.000404633
0.00040799
0.000411309
0.000414585
0.00041782
0.00042101
0.000424153
0.000427247
0.000430287
0.000433272
0.0004362
0.00043907
0.000441883
0.000444634
0.000447322
0.00044994
0.000452487
0.000454964
0.000457372
0.000459708
0.000461967
0.000464145
0.000466242
0.000468255
0.000470186
0.00047203
0.00047379
0.000475463
0.000477048
0.000478542
0.000479943
0.000481254
0.000482474
0.000483604
0.000484639
0.000485577
0.000486419
0.000487166
0.000487818
0.000488374
0.000488835
0.000489201
0.000489477
0.000489663
0.000489762
0.000489775
0.000489704
0.000489553
0.000489323
0.000489017
0.00048864
0.0004882
0.000487705
0.000487158
0.00048656
0.000485919
0.000485243
0.000484544
0.000483826
0.000483095
0.000482359
0.000481629
0.000480913
0.000480214
0.00047954
0.000478903
0.000478268
0.000477594
0.000146133
0.000146141
0.00014669
0.00014774
0.000149205
0.000151029
0.000153117
0.000155387
0.000157787
0.000160267
0.000162785
0.000165311
0.000167823
0.000170306
0.000172756
0.000175167
0.000177537
0.000179868
0.000182162
0.000184423
0.000186657
0.000188868
0.000191061
0.000193242
0.000195414
0.000197581
0.000199748
0.000201922
0.00020411
0.000206311
0.000208527
0.000210763
0.000213024
0.000215311
0.000217628
0.000219975
0.000222357
0.000224773
0.000227222
0.000229708
0.000232235
0.000234803
0.000237409
0.000240058
0.000242749
0.000245483
0.000248258
0.000251077
0.000253939
0.000256842
0.000259786
0.000262771
0.000265796
0.000268864
0.000271972
0.000275121
0.000278307
0.000281531
0.000284791
0.000288086
0.000291413
0.000294773
0.000298165
0.000301587
0.000305035
0.000308508
0.000312004
0.000315523
0.000319062
0.000322616
0.000326184
0.000329765
0.000333359
0.000336961
0.00034057
0.000344183
0.0003478
0.000351417
0.000355032
0.000358642
0.000362245
0.00036584
0.000369426
0.000372999
0.000376557
0.000380098
0.00038362
0.00038712
0.000390596
0.000394043
0.000397459
0.000400844
0.000404196
0.000407512
0.00041079
0.000414028
0.000417224
0.000420377
0.000423484
0.000426543
0.000429551
0.000432506
0.000435406
0.00043825
0.000441037
0.000443764
0.00044643
0.00044903
0.000451562
0.000454024
0.000456417
0.00045874
0.00046099
0.000463161
0.00046525
0.000467257
0.000469182
0.000471025
0.000472783
0.000474457
0.000476043
0.000477541
0.000478949
0.000480266
0.000481493
0.000482632
0.00048368
0.000484635
0.000485493
0.000486256
0.000486926
0.000487503
0.000487987
0.000488379
0.000488679
0.000488892
0.000489019
0.000489061
0.000489018
0.000488895
0.000488695
0.000488419
0.000488072
0.00048766
0.000487189
0.000486665
0.000486092
0.000485471
0.000484808
0.000484114
0.000483397
0.000482662
0.000481914
0.000481157
0.0004804
0.000479647
0.000478905
0.000478183
0.000477432
0.0004766
0.000153875
0.000153607
0.000153857
0.000154567
0.000155636
0.000157033
0.0001587
0.000160564
0.000162574
0.000164689
0.000166873
0.000169096
0.000171336
0.000173576
0.000175806
0.000178021
0.000180217
0.000182392
0.000184549
0.000186688
0.000188811
0.000190922
0.000193024
0.000195121
0.000197219
0.00019932
0.000201427
0.000203544
0.000205678
0.000207831
0.000210004
0.0002122
0.000214422
0.000216675
0.000218959
0.000221276
0.000223629
0.000226021
0.000228448
0.000230913
0.000233418
0.000235966
0.000238556
0.000241189
0.000243865
0.000246584
0.000249345
0.000252148
0.000254993
0.00025788
0.000260809
0.000263779
0.000266789
0.00026984
0.000272932
0.000276063
0.00027923
0.000282434
0.000285673
0.000288947
0.000292253
0.000295588
0.000298953
0.000302348
0.000305771
0.000309216
0.000312682
0.000316167
0.000319671
0.000323192
0.000326725
0.000330269
0.000333822
0.000337383
0.00034095
0.000344522
0.000348096
0.00035167
0.000355241
0.000358808
0.000362368
0.00036592
0.000369463
0.000372994
0.000376511
0.00038001
0.000383491
0.00038695
0.000390385
0.000393793
0.000397172
0.00040052
0.000403834
0.000407114
0.000410358
0.000413563
0.000416727
0.00041985
0.000422929
0.000425959
0.000428939
0.000431868
0.000434745
0.000437569
0.000440336
0.000443043
0.000445689
0.000448272
0.00045079
0.000453242
0.000455625
0.000457937
0.000460177
0.00046234
0.000464424
0.000466426
0.000468349
0.000470191
0.00047195
0.000473623
0.000475209
0.000476709
0.000478122
0.000479446
0.00048068
0.000481825
0.000482881
0.000483847
0.00048472
0.000485498
0.000486182
0.000486775
0.000487277
0.000487688
0.00048801
0.000488244
0.000488392
0.000488457
0.000488437
0.000488335
0.000488156
0.000487902
0.000487579
0.000487187
0.000486734
0.000486224
0.000485664
0.000485054
0.000484398
0.000483703
0.000482976
0.000482226
0.000481456
0.000480668
0.000479866
0.000479054
0.000478239
0.00047743
0.000476563
0.000475577
0.000161119
0.000160591
0.000160572
0.000160996
0.000161739
0.000162777
0.000164076
0.000165581
0.000167244
0.00016903
0.000170905
0.000172843
0.000174824
0.000176829
0.000178846
0.000180867
0.000182887
0.000184906
0.000186921
0.000188932
0.000190941
0.000192948
0.000194956
0.000196966
0.000198984
0.000201015
0.000203058
0.000205117
0.000207194
0.000209296
0.000211423
0.000213578
0.000215762
0.00021798
0.000220232
0.000222519
0.000224844
0.000227209
0.000229616
0.000232062
0.000234548
0.000237078
0.000239652
0.00024227
0.000244932
0.000247637
0.000250385
0.000253174
0.000256006
0.000258879
0.000261793
0.000264749
0.000267746
0.000270783
0.000273859
0.000276972
0.000280122
0.000283307
0.000286526
0.000289779
0.000293063
0.000296376
0.000299716
0.000303085
0.00030648
0.000309899
0.000313336
0.00031679
0.000320261
0.000323748
0.000327247
0.000330756
0.000334272
0.000337796
0.000341326
0.00034486
0.000348396
0.000351932
0.000355465
0.000358994
0.000362516
0.00036603
0.000369534
0.000373027
0.000376507
0.000379971
0.000383415
0.000386838
0.000390237
0.000393611
0.000396958
0.000400275
0.00040356
0.000406811
0.000410026
0.000413204
0.000416344
0.000419443
0.000422499
0.000425507
0.000428466
0.000431374
0.000434233
0.000437039
0.000439791
0.000442483
0.000445113
0.00044768
0.000450186
0.000452628
0.000455003
0.000457307
0.000459538
0.000461693
0.000463772
0.000465771
0.000467691
0.000469532
0.00047129
0.000472964
0.00047455
0.000476049
0.000477462
0.00047879
0.000480031
0.000481182
0.000482242
0.000483213
0.000484094
0.000484882
0.000485578
0.000486182
0.000486696
0.00048712
0.000487457
0.000487706
0.00048787
0.00048795
0.000487947
0.000487861
0.000487695
0.000487455
0.000487145
0.000486768
0.000486327
0.000485825
0.000485268
0.000484658
0.000484001
0.000483298
0.000482556
0.000481784
0.000480984
0.000480158
0.000479307
0.000478434
0.000477544
0.000476646
0.000475665
0.000474532
0.000167911
0.000167151
0.000166887
0.000167057
0.000167522
0.000168255
0.000169235
0.000170422
0.000171774
0.000173261
0.000174853
0.000176526
0.000178259
0.000180037
0.000181848
0.00018368
0.000185529
0.00018739
0.000189262
0.000191143
0.000193032
0.000194932
0.000196843
0.000198765
0.000200702
0.000202658
0.000204635
0.000206633
0.000208655
0.000210703
0.000212782
0.000214894
0.000217039
0.000219221
0.000221443
0.000223702
0.000226
0.00022834
0.000230724
0.000233152
0.000235622
0.000238136
0.000240696
0.000243301
0.00024595
0.000248642
0.000251377
0.000254155
0.000256975
0.000259836
0.000262738
0.000265681
0.000268665
0.000271689
0.00027475
0.000277848
0.000280981
0.000284149
0.000287349
0.000290581
0.000293843
0.000297134
0.000300452
0.000303796
0.000307164
0.000310555
0.000313964
0.00031739
0.000320831
0.000324286
0.000327753
0.00033123
0.000334714
0.000338205
0.000341702
0.000345203
0.000348706
0.000352208
0.000355708
0.000359204
0.000362694
0.000366176
0.000369648
0.000373108
0.000376555
0.000379988
0.000383402
0.000386795
0.000390165
0.000393511
0.000396831
0.000400123
0.000403384
0.000406611
0.000409805
0.000412964
0.000416085
0.000419166
0.000422204
0.000425196
0.00042814
0.000431034
0.000433878
0.00043667
0.000439407
0.000442087
0.000444706
0.000447262
0.000449756
0.000452188
0.000454555
0.000456852
0.000459075
0.000461223
0.000463296
0.000465291
0.000467209
0.000469046
0.000470801
0.000472473
0.000474058
0.000475555
0.000476967
0.000478293
0.000479534
0.000480687
0.00048175
0.000482723
0.000483605
0.000484398
0.000485099
0.00048571
0.00048623
0.000486662
0.000487007
0.000487265
0.000487438
0.000487527
0.000487532
0.000487454
0.000487296
0.000487062
0.000486758
0.000486387
0.000485951
0.000485452
0.000484891
0.000484274
0.000483605
0.000482888
0.000482127
0.000481327
0.000480492
0.000479623
0.000478721
0.000477784
0.00047682
0.000475833
0.000474742
0.000473468
0.000174275
0.00017332
0.000172842
0.00017278
0.000172999
0.000173465
0.000174167
0.000175071
0.000176145
0.00017736
0.000178693
0.000180119
0.000181619
0.00018318
0.00018479
0.000186439
0.00018812
0.000189825
0.000191555
0.000193305
0.000195075
0.000196866
0.000198678
0.00020051
0.000202364
0.000204244
0.000206151
0.000208087
0.000210052
0.000212048
0.000214079
0.000216147
0.000218253
0.000220399
0.000222589
0.000224822
0.000227095
0.000229412
0.000231774
0.000234184
0.000236639
0.00023914
0.000241687
0.000244279
0.000246916
0.000249597
0.000252322
0.000255089
0.000257898
0.000260748
0.00026364
0.000266572
0.000269545
0.000272556
0.000275604
0.000278687
0.000281805
0.000284956
0.000288138
0.00029135
0.000294591
0.000297861
0.000301158
0.000304479
0.000307822
0.000311186
0.000314569
0.000317968
0.000321382
0.000324809
0.000328247
0.000331695
0.00033515
0.000338613
0.000342082
0.000345556
0.000349031
0.000352506
0.000355978
0.000359446
0.000362909
0.000366364
0.000369809
0.000373243
0.000376664
0.00038007
0.000383459
0.000386828
0.000390176
0.0003935
0.0003968
0.000400072
0.000403315
0.000406526
0.000409704
0.000412849
0.000415957
0.000419025
0.00042205
0.00042503
0.000427963
0.000430847
0.000433681
0.000436462
0.000439188
0.000441856
0.000444465
0.000447013
0.000449499
0.000451921
0.000454279
0.000456567
0.000458782
0.000460923
0.000462989
0.000464979
0.000466891
0.000468723
0.000470472
0.000472137
0.000473717
0.000475212
0.00047662
0.000477941
0.000479177
0.000480327
0.000481388
0.000482358
0.000483238
0.000484029
0.000484729
0.00048534
0.000485861
0.000486294
0.000486641
0.000486902
0.000487078
0.000487168
0.000487173
0.000487097
0.000486941
0.000486709
0.000486404
0.000486031
0.000485592
0.000485088
0.000484519
0.000483888
0.000483202
0.000482464
0.000481679
0.000480849
0.000479975
0.000479061
0.000478104
0.000477103
0.000476064
0.000474993
0.000473796
0.000472391
0.000180232
0.000179117
0.000178456
0.000178188
0.000178183
0.000178414
0.000178867
0.00017952
0.000180342
0.00018131
0.000182402
0.0001836
0.000184884
0.00018624
0.000187657
0.000189128
0.000190643
0.000192197
0.000193786
0.000195407
0.000197058
0.000198738
0.00020045
0.000202192
0.000203964
0.000205767
0.000207603
0.000209474
0.000211381
0.000213325
0.000215309
0.000217334
0.000219403
0.000221514
0.000223671
0.000225876
0.000228127
0.000230424
0.000232766
0.000235158
0.000237599
0.000240088
0.000242623
0.000245204
0.000247831
0.000250502
0.000253216
0.000255974
0.000258773
0.000261614
0.000264497
0.00026742
0.000270382
0.000273381
0.000276417
0.000279487
0.00028259
0.000285726
0.000288891
0.000292085
0.000295307
0.000298557
0.000301834
0.000305133
0.000308453