/*--------------------------------*- C++ -*----------------------------------*\
  =========                 |
  \\      /  F ield         | OpenFOAM: The Open Source CFD Toolbox
   \\    /   O peration     | Website:  https://openfoam.org
    \\  /    A nd           | Version:  7
     \\/     M anipulation  |
\*---------------------------------------------------------------------------*/
FoamFile
{
    version     2.0;
    format      ascii;
    class       volVectorField;
    location    "0.0625";
    object      U;
}
// * * * * * * * * * * * * * * * * * * * * * * * * * * * * * * * * * * * * * //

dimensions      [0 1 -1 0 0 0 0];

internalField   nonuniform List<vector> 
51200
(
(5.58769e-07 5.32198e-07 0)
(-7.09124e-08 6.41902e-07 0)
(3.4333e-08 1.0557e-07 0)
(-1.79545e-07 3.39792e-09 0)
(1.20429e-08 -2.99187e-08 0)
(1.35146e-07 -2.88207e-08 0)
(2.00995e-07 -1.53421e-08 0)
(2.06565e-07 1.60858e-09 0)
(1.51361e-07 1.99831e-08 0)
(3.75405e-08 3.72642e-08 0)
(-1.30923e-07 5.20894e-08 0)
(-3.50223e-07 6.57903e-08 0)
(-6.1817e-07 7.94803e-08 0)
(-9.30937e-07 9.23869e-08 0)
(-1.28356e-06 1.03429e-07 0)
(-1.67299e-06 1.13382e-07 0)
(-2.09645e-06 1.23562e-07 0)
(-2.55065e-06 1.33873e-07 0)
(-3.03289e-06 1.43111e-07 0)
(-3.5398e-06 1.49809e-07 0)
(-4.06754e-06 1.53989e-07 0)
(-4.61382e-06 1.57157e-07 0)
(-5.17633e-06 1.60427e-07 0)
(-5.75208e-06 1.6388e-07 0)
(-6.33904e-06 1.67066e-07 0)
(-6.93538e-06 1.6969e-07 0)
(-7.53912e-06 1.7169e-07 0)
(-8.14877e-06 1.73246e-07 0)
(-8.76297e-06 1.74805e-07 0)
(-9.37997e-06 1.76064e-07 0)
(-9.99793e-06 1.76479e-07 0)
(-1.06156e-05 1.7606e-07 0)
(-1.12318e-05 1.74601e-07 0)
(-1.18451e-05 1.72448e-07 0)
(-1.24547e-05 1.70702e-07 0)
(-1.30599e-05 1.69646e-07 0)
(-1.36598e-05 1.68839e-07 0)
(-1.42533e-05 1.67833e-07 0)
(-1.48398e-05 1.66072e-07 0)
(-1.54183e-05 1.63565e-07 0)
(-1.59883e-05 1.60918e-07 0)
(-1.65492e-05 1.58247e-07 0)
(-1.71005e-05 1.55108e-07 0)
(-1.76413e-05 1.51235e-07 0)
(-1.81713e-05 1.4678e-07 0)
(-1.869e-05 1.42497e-07 0)
(-1.91972e-05 1.39358e-07 0)
(-1.9693e-05 1.3746e-07 0)
(-2.01771e-05 1.35769e-07 0)
(-2.06486e-05 1.33287e-07 0)
(-2.11075e-05 1.29842e-07 0)
(-2.15537e-05 1.25606e-07 0)
(-2.1987e-05 1.20677e-07 0)
(-2.24067e-05 1.15454e-07 0)
(-2.28128e-05 1.10779e-07 0)
(-2.32053e-05 1.07297e-07 0)
(-2.35841e-05 1.04725e-07 0)
(-2.39491e-05 1.01993e-07 0)
(-2.42997e-05 9.82938e-08 0)
(-2.46358e-05 9.37491e-08 0)
(-2.49573e-05 8.89666e-08 0)
(-2.5264e-05 8.43461e-08 0)
(-2.55556e-05 7.9936e-08 0)
(-2.58319e-05 7.56758e-08 0)
(-2.60928e-05 7.15698e-08 0)
(-2.63383e-05 6.7564e-08 0)
(-2.65682e-05 6.33689e-08 0)
(-2.67825e-05 5.87215e-08 0)
(-2.69808e-05 5.38295e-08 0)
(-2.71631e-05 4.91748e-08 0)
(-2.73295e-05 4.487e-08 0)
(-2.74797e-05 4.05674e-08 0)
(-2.76137e-05 3.60001e-08 0)
(-2.77313e-05 3.13014e-08 0)
(-2.78325e-05 2.6734e-08 0)
(-2.79172e-05 2.22912e-08 0)
(-2.79853e-05 1.76901e-08 0)
(-2.80366e-05 1.27346e-08 0)
(-2.8071e-05 7.60041e-09 0)
(-2.80887e-05 2.6792e-09 0)
(-2.80897e-05 -1.84415e-09 0)
(-2.80739e-05 -6.19323e-09 0)
(-2.80412e-05 -1.07611e-08 0)
(-2.79917e-05 -1.57016e-08 0)
(-2.79254e-05 -2.08018e-08 0)
(-2.78424e-05 -2.57634e-08 0)
(-2.77429e-05 -3.04725e-08 0)
(-2.76269e-05 -3.49497e-08 0)
(-2.74944e-05 -3.92462e-08 0)
(-2.73456e-05 -4.35004e-08 0)
(-2.71806e-05 -4.79451e-08 0)
(-2.69994e-05 -5.27176e-08 0)
(-2.68021e-05 -5.76604e-08 0)
(-2.65888e-05 -6.23934e-08 0)
(-2.63596e-05 -6.66953e-08 0)
(-2.61148e-05 -7.07696e-08 0)
(-2.58542e-05 -7.50054e-08 0)
(-2.55779e-05 -7.9515e-08 0)
(-2.52863e-05 -8.40557e-08 0)
(-2.49794e-05 -8.83879e-08 0)
(-2.46574e-05 -9.25587e-08 0)
(-2.43204e-05 -9.67659e-08 0)
(-2.39685e-05 -1.01037e-07 0)
(-2.36022e-05 -1.05181e-07 0)
(-2.32217e-05 -1.09056e-07 0)
(-2.28274e-05 -1.12718e-07 0)
(-2.24194e-05 -1.16288e-07 0)
(-2.19979e-05 -1.19855e-07 0)
(-2.15632e-05 -1.23546e-07 0)
(-2.11154e-05 -1.275e-07 0)
(-2.06547e-05 -1.31607e-07 0)
(-2.01815e-05 -1.35417e-07 0)
(-1.96961e-05 -1.38558e-07 0)
(-1.91989e-05 -1.41245e-07 0)
(-1.86903e-05 -1.44159e-07 0)
(-1.81702e-05 -1.47711e-07 0)
(-1.76389e-05 -1.51504e-07 0)
(-1.7097e-05 -1.5469e-07 0)
(-1.65452e-05 -1.56909e-07 0)
(-1.59842e-05 -1.58726e-07 0)
(-1.54142e-05 -1.6102e-07 0)
(-1.48355e-05 -1.64003e-07 0)
(-1.42489e-05 -1.67018e-07 0)
(-1.36552e-05 -1.693e-07 0)
(-1.30553e-05 -1.70704e-07 0)
(-1.24498e-05 -1.71609e-07 0)
(-1.18395e-05 -1.72356e-07 0)
(-1.12257e-05 -1.73086e-07 0)
(-1.06094e-05 -1.73946e-07 0)
(-9.99158e-06 -1.74981e-07 0)
(-9.37312e-06 -1.75737e-07 0)
(-8.7555e-06 -1.754e-07 0)
(-8.1405e-06 -1.73632e-07 0)
(-7.52987e-06 -1.7113e-07 0)
(-6.92506e-06 -1.69023e-07 0)
(-6.3275e-06 -1.67622e-07 0)
(-5.73909e-06 -1.65965e-07 0)
(-5.16223e-06 -1.628e-07 0)
(-4.59931e-06 -1.57857e-07 0)
(-4.05258e-06 -1.51933e-07 0)
(-3.52426e-06 -1.45873e-07 0)
(-3.01692e-06 -1.39726e-07 0)
(-2.53345e-06 -1.32868e-07 0)
(-2.07686e-06 -1.24767e-07 0)
(-1.64999e-06 -1.15354e-07 0)
(-1.25567e-06 -1.0474e-07 0)
(-8.96897e-07 -9.30526e-08 0)
(-5.76564e-07 -8.0624e-08 0)
(-2.97293e-07 -6.78976e-08 0)
(-6.14658e-08 -5.49171e-08 0)
(1.28618e-07 -4.10646e-08 0)
(2.70746e-07 -2.5609e-08 0)
(3.63237e-07 -8.73496e-09 0)
(4.05818e-07 8.06111e-09 0)
(4.00457e-07 2.29546e-08 0)
(3.51825e-07 3.52012e-08 0)
(2.67886e-07 4.47498e-08 0)
(1.61254e-07 4.96503e-08 0)
(5.84633e-08 4.0959e-08 0)
(4.36916e-09 1.17218e-08 0)
(7.20709e-07 -2.16872e-07 0)
(9.45943e-07 6.07568e-07 0)
(7.56278e-07 -1.17726e-08 0)
(7.52989e-07 -1.44762e-07 0)
(8.61082e-07 -1.56433e-07 0)
(9.01422e-07 -9.74478e-08 0)
(8.39242e-07 -6.45819e-09 0)
(6.54155e-07 9.67277e-08 0)
(3.36182e-07 2.03249e-07 0)
(-1.17751e-07 3.08398e-07 0)
(-7.04404e-07 4.08595e-07 0)
(-1.42014e-06 5.02202e-07 0)
(-2.25943e-06 5.90081e-07 0)
(-3.21436e-06 6.72408e-07 0)
(-4.27668e-06 7.47607e-07 0)
(-5.43826e-06 8.15826e-07 0)
(-6.69151e-06 8.78475e-07 0)
(-8.02869e-06 9.35804e-07 0)
(-9.44125e-06 9.87836e-07 0)
(-1.09208e-05 1.03376e-06 0)
(-1.24595e-05 1.07281e-06 0)
(-1.40506e-05 1.10573e-06 0)
(-1.56872e-05 1.13412e-06 0)
(-1.73628e-05 1.15834e-06 0)
(-1.90707e-05 1.17878e-06 0)
(-2.08053e-05 1.19575e-06 0)
(-2.25614e-05 1.20913e-06 0)
(-2.4334e-05 1.21899e-06 0)
(-2.61186e-05 1.22574e-06 0)
(-2.79108e-05 1.22966e-06 0)
(-2.9706e-05 1.23075e-06 0)
(-3.15005e-05 1.22917e-06 0)
(-3.32908e-05 1.22511e-06 0)
(-3.50733e-05 1.2184e-06 0)
(-3.68455e-05 1.20955e-06 0)
(-3.86048e-05 1.19933e-06 0)
(-4.03484e-05 1.1879e-06 0)
(-4.20736e-05 1.17504e-06 0)
(-4.37782e-05 1.16049e-06 0)
(-4.546e-05 1.14414e-06 0)
(-4.71173e-05 1.12637e-06 0)
(-4.87485e-05 1.10763e-06 0)
(-5.03517e-05 1.08796e-06 0)
(-5.19251e-05 1.06712e-06 0)
(-5.34676e-05 1.04497e-06 0)
(-5.49779e-05 1.02173e-06 0)
(-5.64553e-05 9.97968e-07 0)
(-5.78989e-05 9.74288e-07 0)
(-5.93078e-05 9.507e-07 0)
(-6.06806e-05 9.26632e-07 0)
(-6.20166e-05 9.01758e-07 0)
(-6.33153e-05 8.76185e-07 0)
(-6.45759e-05 8.49822e-07 0)
(-6.57974e-05 8.22465e-07 0)
(-6.69796e-05 7.94485e-07 0)
(-6.8122e-05 7.66613e-07 0)
(-6.92241e-05 7.39182e-07 0)
(-7.02852e-05 7.11812e-07 0)
(-7.13044e-05 6.83802e-07 0)
(-7.2281e-05 6.54797e-07 0)
(-7.32149e-05 6.25004e-07 0)
(-7.41054e-05 5.9481e-07 0)
(-7.4952e-05 5.64401e-07 0)
(-7.57542e-05 5.33804e-07 0)
(-7.65116e-05 5.03106e-07 0)
(-7.7224e-05 4.72391e-07 0)
(-7.78908e-05 4.41472e-07 0)
(-7.85117e-05 4.10013e-07 0)
(-7.90862e-05 3.78035e-07 0)
(-7.96143e-05 3.4595e-07 0)
(-8.00958e-05 3.1401e-07 0)
(-8.05304e-05 2.82047e-07 0)
(-8.09176e-05 2.49759e-07 0)
(-8.12571e-05 2.17067e-07 0)
(-8.15489e-05 1.84159e-07 0)
(-8.1793e-05 1.51267e-07 0)
(-8.19889e-05 1.18387e-07 0)
(-8.21363e-05 8.52831e-08 0)
(-8.22352e-05 5.18245e-08 0)
(-8.22855e-05 1.82053e-08 0)
(-8.22874e-05 -1.52897e-08 0)
(-8.22407e-05 -4.85916e-08 0)
(-8.21454e-05 -8.18308e-08 0)
(-8.20013e-05 -1.15112e-07 0)
(-8.18088e-05 -1.48376e-07 0)
(-8.1568e-05 -1.81501e-07 0)
(-8.12793e-05 -2.14445e-07 0)
(-8.09427e-05 -2.47191e-07 0)
(-8.05584e-05 -2.79651e-07 0)
(-8.01268e-05 -3.11782e-07 0)
(-7.9648e-05 -3.43695e-07 0)
(-7.91222e-05 -3.7561e-07 0)
(-7.85496e-05 -4.07655e-07 0)
(-7.79307e-05 -4.39661e-07 0)
(-7.72659e-05 -4.71287e-07 0)
(-7.65553e-05 -5.02409e-07 0)
(-7.57991e-05 -5.33235e-07 0)
(-7.49978e-05 -5.63995e-07 0)
(-7.41519e-05 -5.94647e-07 0)
(-7.32619e-05 -6.24954e-07 0)
(-7.23281e-05 -6.54788e-07 0)
(-7.1351e-05 -6.84216e-07 0)
(-7.03312e-05 -7.13284e-07 0)
(-6.92694e-05 -7.41854e-07 0)
(-6.81663e-05 -7.69794e-07 0)
(-6.70227e-05 -7.97178e-07 0)
(-6.58391e-05 -8.24131e-07 0)
(-6.46163e-05 -8.50639e-07 0)
(-6.33548e-05 -8.76652e-07 0)
(-6.20554e-05 -9.02268e-07 0)
(-6.07189e-05 -9.27611e-07 0)
(-5.93462e-05 -9.52544e-07 0)
(-5.79383e-05 -9.76691e-07 0)
(-5.6496e-05 -9.99848e-07 0)
(-5.50201e-05 -1.02226e-06 0)
(-5.35114e-05 -1.04434e-06 0)
(-5.19711e-05 -1.06611e-06 0)
(-5.04007e-05 -1.08701e-06 0)
(-4.88018e-05 -1.10641e-06 0)
(-4.71756e-05 -1.12427e-06 0)
(-4.55234e-05 -1.1411e-06 0)
(-4.38468e-05 -1.15734e-06 0)
(-4.21478e-05 -1.17273e-06 0)
(-4.04286e-05 -1.18656e-06 0)
(-3.86916e-05 -1.19835e-06 0)
(-3.6939e-05 -1.20812e-06 0)
(-3.51732e-05 -1.21604e-06 0)
(-3.33972e-05 -1.22208e-06 0)
(-3.1614e-05 -1.2261e-06 0)
(-2.98268e-05 -1.22807e-06 0)
(-2.80391e-05 -1.22783e-06 0)
(-2.62549e-05 -1.2248e-06 0)
(-2.44785e-05 -1.2182e-06 0)
(-2.27145e-05 -1.20775e-06 0)
(-2.09671e-05 -1.19389e-06 0)
(-1.92415e-05 -1.17712e-06 0)
(-1.75432e-05 -1.15712e-06 0)
(-1.58785e-05 -1.1328e-06 0)
(-1.42535e-05 -1.10324e-06 0)
(-1.26746e-05 -1.06833e-06 0)
(-1.11482e-05 -1.0285e-06 0)
(-9.68162e-06 -9.83928e-07 0)
(-8.28239e-06 -9.34204e-07 0)
(-6.95833e-06 -8.78753e-07 0)
(-5.71717e-06 -8.17363e-07 0)
(-4.56659e-06 -7.5014e-07 0)
(-3.51427e-06 -6.77182e-07 0)
(-2.56752e-06 -5.98688e-07 0)
(-1.73312e-06 -5.15207e-07 0)
(-1.0172e-06 -4.27483e-07 0)
(-4.25192e-07 -3.36135e-07 0)
(3.88108e-08 -2.41721e-07 0)
(3.72957e-07 -1.45479e-07 0)
(5.78804e-07 -5.03192e-08 0)
(6.62418e-07 3.87241e-08 0)
(6.35619e-07 1.1488e-07 0)
(5.1816e-07 1.69617e-07 0)
(3.37849e-07 1.9108e-07 0)
(1.5062e-07 1.57675e-07 0)
(2.79044e-08 5.95124e-08 0)
(2.03911e-07 -3.2159e-07 0)
(3.78992e-07 3.5837e-08 0)
(5.90628e-07 -1.90442e-07 0)
(6.88065e-07 -2.70532e-07 0)
(7.45104e-07 -1.97452e-07 0)
(6.86318e-07 -2.4256e-08 0)
(4.71153e-07 2.07519e-07 0)
(7.28153e-08 4.68943e-07 0)
(-5.24474e-07 7.42204e-07 0)
(-1.32582e-06 1.01657e-06 0)
(-2.32924e-06 1.28329e-06 0)
(-3.52876e-06 1.5377e-06 0)
(-4.91752e-06 1.7785e-06 0)
(-6.48635e-06 2.00394e-06 0)
(-8.2227e-06 2.21285e-06 0)
(-1.01144e-05 2.40482e-06 0)
(-1.21501e-05 2.57982e-06 0)
(-1.4317e-05 2.73882e-06 0)
(-1.66037e-05 2.88247e-06 0)
(-1.89981e-05 3.01069e-06 0)
(-2.14872e-05 3.12336e-06 0)
(-2.406e-05 3.2212e-06 0)
(-2.67066e-05 3.3051e-06 0)
(-2.94163e-05 3.37621e-06 0)
(-3.21794e-05 3.43562e-06 0)
(-3.49867e-05 3.48423e-06 0)
(-3.78289e-05 3.52255e-06 0)
(-4.06977e-05 3.55095e-06 0)
(-4.3586e-05 3.57e-06 0)
(-4.64867e-05 3.58035e-06 0)
(-4.9393e-05 3.58279e-06 0)
(-5.22992e-05 3.57822e-06 0)
(-5.51993e-05 3.56718e-06 0)
(-5.80874e-05 3.54964e-06 0)
(-6.09588e-05 3.52586e-06 0)
(-6.38092e-05 3.49659e-06 0)
(-6.66343e-05 3.4624e-06 0)
(-6.94304e-05 3.42369e-06 0)
(-7.21936e-05 3.38068e-06 0)
(-7.49203e-05 3.33343e-06 0)
(-7.76076e-05 3.28233e-06 0)
(-8.0253e-05 3.22804e-06 0)
(-8.28539e-05 3.17097e-06 0)
(-8.54079e-05 3.11132e-06 0)
(-8.79124e-05 3.04912e-06 0)
(-9.03652e-05 2.98422e-06 0)
(-9.27644e-05 2.91671e-06 0)
(-9.51088e-05 2.84717e-06 0)
(-9.7397e-05 2.77609e-06 0)
(-9.96272e-05 2.70352e-06 0)
(-0.000101798 2.62968e-06 0)
(-0.000103908 2.55488e-06 0)
(-0.000105957 2.47889e-06 0)
(-0.000107942 2.40123e-06 0)
(-0.000109863 2.32183e-06 0)
(-0.000111719 2.241e-06 0)
(-0.000113509 2.15917e-06 0)
(-0.000115232 2.07657e-06 0)
(-0.000116888 1.99302e-06 0)
(-0.000118473 1.90821e-06 0)
(-0.00011999 1.82214e-06 0)
(-0.000121435 1.735e-06 0)
(-0.000122809 1.64681e-06 0)
(-0.000124111 1.55757e-06 0)
(-0.000125341 1.46755e-06 0)
(-0.000126496 1.377e-06 0)
(-0.000127578 1.28593e-06 0)
(-0.000128585 1.19413e-06 0)
(-0.000129517 1.10152e-06 0)
(-0.000130373 1.00827e-06 0)
(-0.000131153 9.14641e-07 0)
(-0.000131857 8.20703e-07 0)
(-0.000132484 7.26273e-07 0)
(-0.000133033 6.31123e-07 0)
(-0.000133504 5.35305e-07 0)
(-0.000133898 4.39141e-07 0)
(-0.000134214 3.42863e-07 0)
(-0.000134452 2.46398e-07 0)
(-0.000134611 1.4957e-07 0)
(-0.000134691 5.23743e-08 0)
(-0.000134692 -4.50074e-08 0)
(-0.000134615 -1.4234e-07 0)
(-0.000134459 -2.39445e-07 0)
(-0.000134224 -3.36253e-07 0)
(-0.000133911 -4.32743e-07 0)
(-0.00013352 -5.28891e-07 0)
(-0.000133051 -6.24716e-07 0)
(-0.000132504 -7.20251e-07 0)
(-0.000131879 -8.15401e-07 0)
(-0.000131177 -9.09957e-07 0)
(-0.000130399 -1.0038e-06 0)
(-0.000129545 -1.09705e-06 0)
(-0.000128614 -1.18996e-06 0)
(-0.000127608 -1.28258e-06 0)
(-0.000126528 -1.37464e-06 0)
(-0.000125373 -1.46584e-06 0)
(-0.000124144 -1.55619e-06 0)
(-0.000122843 -1.64581e-06 0)
(-0.000121468 -1.7347e-06 0)
(-0.000120022 -1.8227e-06 0)
(-0.000118506 -1.90959e-06 0)
(-0.000116919 -1.99527e-06 0)
(-0.000115263 -2.0797e-06 0)
(-0.000113539 -2.16285e-06 0)
(-0.000111748 -2.24465e-06 0)
(-0.000109891 -2.32514e-06 0)
(-0.000107968 -2.40434e-06 0)
(-0.000105982 -2.48216e-06 0)
(-0.000103933 -2.55841e-06 0)
(-0.000101822 -2.63307e-06 0)
(-9.96514e-05 -2.70627e-06 0)
(-9.74214e-05 -2.77803e-06 0)
(-9.5134e-05 -2.84815e-06 0)
(-9.27908e-05 -2.91627e-06 0)
(-9.03936e-05 -2.98215e-06 0)
(-8.7944e-05 -3.04586e-06 0)
(-8.54434e-05 -3.10749e-06 0)
(-8.28939e-05 -3.16687e-06 0)
(-8.0298e-05 -3.22341e-06 0)
(-7.76582e-05 -3.27657e-06 0)
(-7.49772e-05 -3.32617e-06 0)
(-7.22573e-05 -3.37228e-06 0)
(-6.95014e-05 -3.4148e-06 0)
(-6.67131e-05 -3.45324e-06 0)
(-6.38961e-05 -3.48701e-06 0)
(-6.10541e-05 -3.51574e-06 0)
(-5.81914e-05 -3.53909e-06 0)
(-5.53126e-05 -3.55652e-06 0)
(-5.24227e-05 -3.56747e-06 0)
(-4.95271e-05 -3.57161e-06 0)
(-4.66309e-05 -3.56868e-06 0)
(-4.37406e-05 -3.55811e-06 0)
(-4.08629e-05 -3.53889e-06 0)
(-3.80056e-05 -3.50999e-06 0)
(-3.5176e-05 -3.47077e-06 0)
(-3.23821e-05 -3.42103e-06 0)
(-2.96322e-05 -3.36044e-06 0)
(-2.69358e-05 -3.28814e-06 0)
(-2.43028e-05 -3.203e-06 0)
(-2.17436e-05 -3.10417e-06 0)
(-1.92687e-05 -2.99114e-06 0)
(-1.68888e-05 -2.86354e-06 0)
(-1.46155e-05 -2.72094e-06 0)
(-1.24605e-05 -2.56293e-06 0)
(-1.04355e-05 -2.38938e-06 0)
(-8.552e-06 -2.20049e-06 0)
(-6.82162e-06 -1.99653e-06 0)
(-5.2555e-06 -1.77795e-06 0)
(-3.86381e-06 -1.54582e-06 0)
(-2.6551e-06 -1.30204e-06 0)
(-1.63618e-06 -1.0493e-06 0)
(-8.11787e-07 -7.9098e-07 0)
(-1.83708e-07 -5.31643e-07 0)
(2.50841e-07 -2.78233e-07 0)
(5.01323e-07 -4.15047e-08 0)
(5.85636e-07 1.63013e-07 0)
(5.32073e-07 3.14225e-07 0)
(3.76706e-07 3.84788e-07 0)
(1.81432e-07 3.39716e-07 0)
(4.11809e-08 1.51679e-07 0)
(9.66993e-08 -7.52033e-07 0)
(1.98469e-07 -3.24106e-07 0)
(3.53069e-07 -3.99542e-07 0)
(3.74324e-07 -3.6993e-07 0)
(2.88819e-07 -1.58243e-07 0)
(4.52073e-08 1.88194e-07 0)
(-3.99085e-07 6.22949e-07 0)
(-1.07377e-06 1.10606e-06 0)
(-1.99664e-06 1.61075e-06 0)
(-3.17827e-06 2.11873e-06 0)
(-4.61885e-06 2.61714e-06 0)
(-6.31174e-06 3.09653e-06 0)
(-8.24868e-06 3.55112e-06 0)
(-1.04192e-05 3.97891e-06 0)
(-1.28098e-05 4.37798e-06 0)
(-1.54059e-05 4.74665e-06 0)
(-1.81916e-05 5.08438e-06 0)
(-2.11507e-05 5.39101e-06 0)
(-2.42685e-05 5.66725e-06 0)
(-2.75299e-05 5.91477e-06 0)
(-3.09197e-05 6.13401e-06 0)
(-3.44226e-05 6.32556e-06 0)
(-3.80246e-05 6.49077e-06 0)
(-4.17118e-05 6.63115e-06 0)
(-4.54714e-05 6.74823e-06 0)
(-4.92913e-05 6.84394e-06 0)
(-5.31597e-05 6.91974e-06 0)
(-5.70651e-05 6.97627e-06 0)
(-6.0997e-05 7.01458e-06 0)
(-6.4946e-05 7.03593e-06 0)
(-6.8903e-05 7.04127e-06 0)
(-7.28598e-05 7.03229e-06 0)
(-7.68093e-05 7.0106e-06 0)
(-8.07437e-05 6.97676e-06 0)
(-8.46561e-05 6.93126e-06 0)
(-8.854e-05 6.8749e-06 0)
(-9.23898e-05 6.80847e-06 0)
(-9.62003e-05 6.73293e-06 0)
(-9.99669e-05 6.64913e-06 0)
(-0.000103685 6.55739e-06 0)
(-0.000107349 6.45816e-06 0)
(-0.000110957 6.3521e-06 0)
(-0.000114504 6.23989e-06 0)
(-0.000117988 6.12247e-06 0)
(-0.000121406 6.00059e-06 0)
(-0.000124755 5.87426e-06 0)
(-0.000128031 5.7433e-06 0)
(-0.000131232 5.60803e-06 0)
(-0.000134357 5.46896e-06 0)
(-0.000137402 5.32642e-06 0)
(-0.000140367 5.18069e-06 0)
(-0.000143249 5.03222e-06 0)
(-0.000146047 4.88144e-06 0)
(-0.000148759 4.72836e-06 0)
(-0.000151384 4.57264e-06 0)
(-0.000153919 4.41405e-06 0)
(-0.000156364 4.2528e-06 0)
(-0.000158717 4.08935e-06 0)
(-0.000160977 3.92387e-06 0)
(-0.000163143 3.75621e-06 0)
(-0.000165213 3.58639e-06 0)
(-0.000167187 3.4146e-06 0)
(-0.000169063 3.24098e-06 0)
(-0.000170841 3.06559e-06 0)
(-0.000172519 2.88848e-06 0)
(-0.000174096 2.70977e-06 0)
(-0.000175573 2.52976e-06 0)
(-0.000176947 2.34865e-06 0)
(-0.000178219 2.16637e-06 0)
(-0.000179387 1.98278e-06 0)
(-0.000180451 1.79805e-06 0)
(-0.00018141 1.61249e-06 0)
(-0.000182264 1.42621e-06 0)
(-0.000183013 1.23901e-06 0)
(-0.000183656 1.05071e-06 0)
(-0.000184192 8.61479e-07 0)
(-0.000184621 6.7171e-07 0)
(-0.000184944 4.81693e-07 0)
(-0.000185159 2.91431e-07 0)
(-0.000185268 1.00766e-07 0)
(-0.000185268 -9.03148e-08 0)
(-0.000185162 -2.81529e-07 0)
(-0.000184947 -4.72463e-07 0)
(-0.000184626 -6.62872e-07 0)
(-0.000184198 -8.52703e-07 0)
(-0.000183663 -1.0419e-06 0)
(-0.000183022 -1.23039e-06 0)
(-0.000182274 -1.4182e-06 0)
(-0.000181421 -1.60534e-06 0)
(-0.000180462 -1.79167e-06 0)
(-0.000179398 -1.97694e-06 0)
(-0.00017823 -2.161e-06 0)
(-0.000176959 -2.3439e-06 0)
(-0.000175585 -2.52581e-06 0)
(-0.000174108 -2.70667e-06 0)
(-0.00017253 -2.88618e-06 0)
(-0.000170851 -3.06407e-06 0)
(-0.000169073 -3.24027e-06 0)
(-0.000167196 -3.41481e-06 0)
(-0.00016522 -3.58765e-06 0)
(-0.000163149 -3.75856e-06 0)
(-0.000160981 -3.92723e-06 0)
(-0.00015872 -4.09343e-06 0)
(-0.000156366 -4.25712e-06 0)
(-0.000153919 -4.41829e-06 0)
(-0.000151382 -4.57692e-06 0)
(-0.000148757 -4.733e-06 0)
(-0.000146043 -4.88646e-06 0)
(-0.000143244 -5.03706e-06 0)
(-0.000140361 -5.18444e-06 0)
(-0.000137396 -5.32842e-06 0)
(-0.000134351 -5.46909e-06 0)
(-0.000131227 -5.60653e-06 0)
(-0.000128026 -5.74046e-06 0)
(-0.000124752 -5.87028e-06 0)
(-0.000121407 -5.99542e-06 0)
(-0.000117993 -6.11566e-06 0)
(-0.000114513 -6.23103e-06 0)
(-0.00011097 -6.34127e-06 0)
(-0.000107367 -6.44565e-06 0)
(-0.000103707 -6.5433e-06 0)
(-9.99961e-05 -6.63361e-06 0)
(-9.62368e-05 -6.71619e-06 0)
(-9.24338e-05 -6.79053e-06 0)
(-8.8592e-05 -6.8559e-06 0)
(-8.47167e-05 -6.91155e-06 0)
(-8.08134e-05 -6.95677e-06 0)
(-7.68884e-05 -6.99065e-06 0)
(-7.29487e-05 -7.01195e-06 0)
(-6.90018e-05 -7.01946e-06 0)
(-6.50555e-05 -7.0123e-06 0)
(-6.11175e-05 -6.98982e-06 0)
(-5.71966e-05 -6.95104e-06 0)
(-5.33026e-05 -6.89444e-06 0)
(-4.94464e-05 -6.81824e-06 0)
(-4.5639e-05 -6.721e-06 0)
(-4.18919e-05 -6.60178e-06 0)
(-3.82169e-05 -6.45967e-06 0)
(-3.46266e-05 -6.29346e-06 0)
(-3.11348e-05 -6.10169e-06 0)
(-2.77557e-05 -5.88305e-06 0)
(-2.45036e-05 -5.63655e-06 0)
(-2.13933e-05 -5.36146e-06 0)
(-1.84399e-05 -5.05729e-06 0)
(-1.56582e-05 -4.72393e-06 0)
(-1.3063e-05 -4.36191e-06 0)
(-1.06685e-05 -3.97228e-06 0)
(-8.48866e-06 -3.55638e-06 0)
(-6.53629e-06 -3.11616e-06 0)
(-4.82237e-06 -2.65488e-06 0)
(-3.35491e-06 -2.17777e-06 0)
(-2.13844e-06 -1.69221e-06 0)
(-1.17369e-06 -1.20782e-06 0)
(-4.56853e-07 -7.37009e-07 0)
(2.25136e-08 -2.96922e-07 0)
(2.84414e-07 8.77975e-08 0)
(3.62135e-07 3.82331e-07 0)
(2.99329e-07 5.41018e-07 0)
(1.59553e-07 5.11467e-07 0)
(4.0639e-08 2.51712e-07 0)
(4.2309e-08 -7.29734e-07 0)
(7.26946e-08 -4.47281e-07 0)
(1.16599e-07 -4.44373e-07 0)
(-8.6733e-09 -2.89012e-07 0)
(-2.99064e-07 9.01088e-08 0)
(-7.93005e-07 6.4454e-07 0)
(-1.52911e-06 1.32077e-06 0)
(-2.53624e-06 2.07018e-06 0)
(-3.83298e-06 2.85299e-06 0)
(-5.43061e-06 3.64306e-06 0)
(-7.33229e-06 4.42205e-06 0)
(-9.53355e-06 5.17571e-06 0)
(-1.20244e-05 5.89432e-06 0)
(-1.47932e-05 6.5723e-06 0)
(-1.78259e-05 7.20618e-06 0)
(-2.11062e-05 7.79428e-06 0)
(-2.46168e-05 8.33552e-06 0)
(-2.83387e-05 8.82867e-06 0)
(-3.22532e-05 9.27398e-06 0)
(-3.63427e-05 9.67282e-06 0)
(-4.05896e-05 1.00268e-05 0)
(-4.49758e-05 1.03374e-05 0)
(-4.94843e-05 1.06066e-05 0)
(-5.40984e-05 1.0836e-05 0)
(-5.8802e-05 1.10278e-05 0)
(-6.35802e-05 1.11842e-05 0)
(-6.84187e-05 1.13078e-05 0)
(-7.3304e-05 1.14005e-05 0)
(-7.8223e-05 1.14641e-05 0)
(-8.31642e-05 1.15006e-05 0)
(-8.81159e-05 1.15114e-05 0)
(-9.30674e-05 1.14981e-05 0)
(-9.80096e-05 1.14629e-05 0)
(-0.000102934 1.14077e-05 0)
(-0.000107831 1.1334e-05 0)
(-0.000112693 1.1243e-05 0)
(-0.000117514 1.11356e-05 0)
(-0.000122286 1.10133e-05 0)
(-0.000127003 1.08772e-05 0)
(-0.000131661 1.07285e-05 0)
(-0.000136252 1.05681e-05 0)
(-0.000140773 1.03966e-05 0)
(-0.000145219 1.02149e-05 0)
(-0.000149586 1.00236e-05 0)
(-0.00015387 9.82412e-06 0)
(-0.000158067 9.61732e-06 0)
(-0.000162175 9.40373e-06 0)
(-0.00016619 9.18359e-06 0)
(-0.00017011 8.95733e-06 0)
(-0.00017393 8.72533e-06 0)
(-0.00017765 8.48771e-06 0)
(-0.000181266 8.24467e-06 0)
(-0.000184775 7.99688e-06 0)
(-0.000188178 7.745e-06 0)
(-0.000191471 7.48923e-06 0)
(-0.000194652 7.22948e-06 0)
(-0.000197719 6.96567e-06 0)
(-0.000200672 6.6979e-06 0)
(-0.000203507 6.42639e-06 0)
(-0.000206224 6.15134e-06 0)
(-0.000208821 5.87284e-06 0)
(-0.000211297 5.59105e-06 0)
(-0.000213651 5.30633e-06 0)
(-0.000215881 5.01897e-06 0)
(-0.000217986 4.72899e-06 0)
(-0.000219965 4.43634e-06 0)
(-0.000221816 4.14126e-06 0)
(-0.00022354 3.84418e-06 0)
(-0.000225134 3.54527e-06 0)
(-0.000226599 3.24447e-06 0)
(-0.000227933 2.94179e-06 0)
(-0.000229136 2.63743e-06 0)
(-0.000230207 2.33169e-06 0)
(-0.000231145 2.02477e-06 0)
(-0.00023195 1.71663e-06 0)
(-0.000232622 1.40717e-06 0)
(-0.000233159 1.09655e-06 0)
(-0.000233563 7.85179e-07 0)
(-0.000233832 4.73457e-07 0)
(-0.000233967 1.61498e-07 0)
(-0.000233967 -1.50697e-07 0)
(-0.000233832 -4.63009e-07 0)
(-0.000233563 -7.75137e-07 0)
(-0.000233159 -1.08676e-06 0)
(-0.000232621 -1.39767e-06 0)
(-0.000231949 -1.70766e-06 0)
(-0.000231144 -2.01651e-06 0)
(-0.000230205 -2.32407e-06 0)
(-0.000229134 -2.63031e-06 0)
(-0.000227931 -2.93523e-06 0)
(-0.000226595 -3.23874e-06 0)
(-0.000225129 -3.54059e-06 0)
(-0.000223533 -3.84049e-06 0)
(-0.000221809 -4.13831e-06 0)
(-0.000219955 -4.4341e-06 0)
(-0.000217975 -4.72779e-06 0)
(-0.000215868 -5.01908e-06 0)
(-0.000213636 -5.30763e-06 0)
(-0.00021128 -5.59323e-06 0)
(-0.000208802 -5.87581e-06 0)
(-0.000206202 -6.15529e-06 0)
(-0.000203483 -6.43136e-06 0)
(-0.000200645 -6.7037e-06 0)
(-0.000197691 -6.97208e-06 0)
(-0.000194621 -7.23634e-06 0)
(-0.000191438 -7.49629e-06 0)
(-0.000188144 -7.75182e-06 0)
(-0.000184739 -8.00292e-06 0)
(-0.000181228 -8.2495e-06 0)
(-0.00017761 -8.49119e-06 0)
(-0.00017389 -8.72741e-06 0)
(-0.000170069 -8.95772e-06 0)
(-0.00016615 -9.18204e-06 0)
(-0.000162136 -9.40033e-06 0)
(-0.000158029 -9.61225e-06 0)
(-0.000153833 -9.81702e-06 0)
(-0.000149551 -1.00137e-05 0)
(-0.000145187 -1.02017e-05 0)
(-0.000140745 -1.03805e-05 0)
(-0.000136228 -1.05498e-05 0)
(-0.000131641 -1.07086e-05 0)
(-0.000126989 -1.08558e-05 0)
(-0.000122277 -1.09903e-05 0)
(-0.000117511 -1.1111e-05 0)
(-0.000112698 -1.12169e-05 0)
(-0.000107843 -1.13066e-05 0)
(-0.000102954 -1.1379e-05 0)
(-9.80381e-05 -1.1433e-05 0)
(-9.3104e-05 -1.1467e-05 0)
(-8.81608e-05 -1.14791e-05 0)
(-8.32187e-05 -1.14672e-05 0)
(-7.82879e-05 -1.14296e-05 0)
(-7.33792e-05 -1.13647e-05 0)
(-6.85041e-05 -1.12711e-05 0)
(-6.36753e-05 -1.11467e-05 0)
(-5.89066e-05 -1.09891e-05 0)
(-5.42125e-05 -1.07959e-05 0)
(-4.96077e-05 -1.05654e-05 0)
(-4.51076e-05 -1.02958e-05 0)
(-4.07285e-05 -9.98551e-06 0)
(-3.64871e-05 -9.63289e-06 0)
(-3.2401e-05 -9.2364e-06 0)
(-2.84877e-05 -8.79498e-06 0)
(-2.4765e-05 -8.30795e-06 0)
(-2.12509e-05 -7.77516e-06 0)
(-1.79629e-05 -7.19732e-06 0)
(-1.49176e-05 -6.57631e-06 0)
(-1.21305e-05 -5.91509e-06 0)
(-9.61603e-06 -5.21762e-06 0)
(-7.3867e-06 -4.48917e-06 0)
(-5.45217e-06 -3.73735e-06 0)
(-3.81778e-06 -2.9733e-06 0)
(-2.48366e-06 -2.21245e-06 0)
(-1.44439e-06 -1.47467e-06 0)
(-6.88311e-07 -7.85136e-07 0)
(-1.95722e-07 -1.7692e-07 0)
(6.62087e-08 3.04199e-07 0)
(1.44201e-07 5.95691e-07 0)
(1.02393e-07 6.23689e-07 0)
(3.10251e-08 3.29002e-07 0)
(1.48736e-08 -7.01937e-07 0)
(-2.34063e-08 -4.54315e-07 0)
(-1.20038e-07 -3.2362e-07 0)
(-4.29579e-07 7.13832e-09 0)
(-9.60399e-07 5.97344e-07 0)
(-1.74334e-06 1.39848e-06 0)
(-2.80976e-06 2.35332e-06 0)
(-4.18749e-06 3.40498e-06 0)
(-5.89267e-06 4.50562e-06 0)
(-7.93487e-06 5.61886e-06 0)
(-1.03187e-05 6.71938e-06 0)
(-1.30406e-05 7.78873e-06 0)
(-1.6091e-05 8.8131e-06 0)
(-1.94573e-05 9.78269e-06 0)
(-2.31237e-05 1.06917e-05 0)
(-2.70729e-05 1.15364e-05 0)
(-3.12865e-05 1.23155e-05 0)
(-3.57442e-05 1.3028e-05 0)
(-4.04249e-05 1.36734e-05 0)
(-4.5308e-05 1.42526e-05 0)
(-5.03735e-05 1.47674e-05 0)
(-5.56012e-05 1.52201e-05 0)
(-6.09715e-05 1.56131e-05 0)
(-6.64656e-05 1.59493e-05 0)
(-7.20649e-05 1.62312e-05 0)
(-7.77516e-05 1.64615e-05 0)
(-8.35093e-05 1.66434e-05 0)
(-8.9322e-05 1.67799e-05 0)
(-9.51747e-05 1.68737e-05 0)
(-0.000101054 1.69279e-05 0)
(-0.000106947 1.69453e-05 0)
(-0.00011284 1.69279e-05 0)
(-0.000118722 1.68779e-05 0)
(-0.000124582 1.6798e-05 0)
(-0.000130412 1.66906e-05 0)
(-0.0001362 1.65577e-05 0)
(-0.00014194 1.64011e-05 0)
(-0.000147622 1.62224e-05 0)
(-0.00015324 1.60232e-05 0)
(-0.000158787 1.58054e-05 0)
(-0.000164257 1.55704e-05 0)
(-0.000169643 1.53197e-05 0)
(-0.000174941 1.50544e-05 0)
(-0.000180145 1.47752e-05 0)
(-0.000185251 1.44831e-05 0)
(-0.000190254 1.41794e-05 0)
(-0.000195151 1.3865e-05 0)
(-0.000199937 1.35409e-05 0)
(-0.000204609 1.32076e-05 0)
(-0.000209165 1.28661e-05 0)
(-0.000213601 1.25167e-05 0)
(-0.000217913 1.21596e-05 0)
(-0.000222099 1.1795e-05 0)
(-0.000226157 1.14235e-05 0)
(-0.000230084 1.10457e-05 0)
(-0.000233878 1.06619e-05 0)
(-0.000237536 1.02724e-05 0)
(-0.000241058 9.87719e-06 0)
(-0.000244439 9.47652e-06 0)
(-0.00024768 9.07073e-06 0)
(-0.000250778 8.65994e-06 0)
(-0.000253731 8.24432e-06 0)
(-0.000256538 7.82421e-06 0)
(-0.000259198 7.40003e-06 0)
(-0.000261708 6.97209e-06 0)
(-0.000264068 6.5405e-06 0)
(-0.000266276 6.10536e-06 0)
(-0.000268332 5.66693e-06 0)
(-0.000270233 5.22562e-06 0)
(-0.00027198 4.78171e-06 0)
(-0.000273571 4.33527e-06 0)
(-0.000275004 3.88629e-06 0)
(-0.000276281 3.43499e-06 0)
(-0.000277399 2.98181e-06 0)
(-0.000278358 2.5271e-06 0)
(-0.000279159 2.07094e-06 0)
(-0.0002798 1.61334e-06 0)
(-0.00028028 1.15453e-06 0)
(-0.0002806 6.94899e-07 0)
(-0.00028076 2.34838e-07 0)
(-0.000280759 -2.25342e-07 0)
(-0.000280598 -6.85417e-07 0)
(-0.000280276 -1.14516e-06 0)
(-0.000279794 -1.60425e-06 0)
(-0.000279152 -2.0624e-06 0)
(-0.00027835 -2.51939e-06 0)
(-0.000277389 -2.97498e-06 0)
(-0.000276268 -3.42883e-06 0)
(-0.00027499 -3.88065e-06 0)
(-0.000273554 -4.33027e-06 0)
(-0.000271961 -4.77767e-06 0)
(-0.000270212 -5.22277e-06 0)
(-0.000268308 -5.66519e-06 0)
(-0.00026625 -6.10455e-06 0)
(-0.000264039 -6.54066e-06 0)
(-0.000261676 -6.97345e-06 0)
(-0.000259162 -7.40272e-06 0)
(-0.000256499 -7.82812e-06 0)
(-0.000253689 -8.24925e-06 0)
(-0.000250733 -8.66582e-06 0)
(-0.000247632 -9.0776e-06 0)
(-0.000244388 -9.48436e-06 0)
(-0.000241003 -9.88581e-06 0)
(-0.000237479 -1.02816e-05 0)
(-0.000233817 -1.06716e-05 0)
(-0.00023002 -1.10553e-05 0)
(-0.00022609 -1.14323e-05 0)
(-0.00022203 -1.18025e-05 0)
(-0.000217842 -1.21657e-05 0)
(-0.000213528 -1.25216e-05 0)
(-0.000209091 -1.28698e-05 0)
(-0.000204534 -1.32096e-05 0)
(-0.00019986 -1.35402e-05 0)
(-0.000195074 -1.38613e-05 0)
(-0.000190177 -1.41724e-05 0)
(-0.000185174 -1.44731e-05 0)
(-0.000180069 -1.47624e-05 0)
(-0.000174867 -1.50388e-05 0)
(-0.000169571 -1.53015e-05 0)
(-0.000164188 -1.55494e-05 0)
(-0.000158721 -1.57817e-05 0)
(-0.000153178 -1.5997e-05 0)
(-0.000147564 -1.61937e-05 0)
(-0.000141887 -1.63704e-05 0)
(-0.000136152 -1.65253e-05 0)
(-0.000130369 -1.66565e-05 0)
(-0.000124546 -1.67619e-05 0)
(-0.000118693 -1.68397e-05 0)
(-0.000112818 -1.68878e-05 0)
(-0.000106932 -1.69043e-05 0)
(-0.000101047 -1.68864e-05 0)
(-9.51754e-05 -1.68312e-05 0)
(-8.93304e-05 -1.67357e-05 0)
(-8.35256e-05 -1.65976e-05 0)
(-7.77754e-05 -1.64144e-05 0)
(-7.20955e-05 -1.61833e-05 0)
(-6.65026e-05 -1.59014e-05 0)
(-6.10141e-05 -1.55656e-05 0)
(-5.5648e-05 -1.51733e-05 0)
(-5.04229e-05 -1.47223e-05 0)
(-4.53582e-05 -1.42103e-05 0)
(-4.04736e-05 -1.36357e-05 0)
(-3.57892e-05 -1.29971e-05 0)
(-3.13251e-05 -1.22942e-05 0)
(-2.71013e-05 -1.15269e-05 0)
(-2.31376e-05 -1.06964e-05 0)
(-1.94531e-05 -9.80494e-06 0)
(-1.60651e-05 -8.85691e-06 0)
(-1.2989e-05 -7.85869e-06 0)
(-1.02381e-05 -6.81878e-06 0)
(-7.82287e-06 -5.7482e-06 0)
(-5.75005e-06 -4.66178e-06 0)
(-4.02069e-06 -3.57987e-06 0)
(-2.62909e-06 -2.5296e-06 0)
(-1.5625e-06 -1.54542e-06 0)
(-8.0134e-07 -6.70433e-07 0)
(-3.15399e-07 3.93881e-08 0)
(-5.98931e-08 5.08287e-07 0)
(2.57381e-08 6.43429e-07 0)
(1.75725e-08 3.69281e-07 0)
(-2.22607e-09 -6.44987e-07 0)
(-1.08937e-07 -3.43842e-07 0)
(-3.57982e-07 -2.7524e-08 0)
(-8.70911e-07 5.34468e-07 0)
(-1.66255e-06 1.38739e-06 0)
(-2.75631e-06 2.48145e-06 0)
(-4.17715e-06 3.75379e-06 0)
(-5.94802e-06 5.14386e-06 0)
(-8.08306e-06 6.59696e-06 0)
(-1.05898e-05 8.06858e-06 0)
(-1.34702e-05 9.52608e-06 0)
(-1.67213e-05 1.09458e-05 0)
(-2.03339e-05 1.23099e-05 0)
(-2.42945e-05 1.36054e-05 0)
(-2.85869e-05 1.48233e-05 0)
(-3.3192e-05 1.59577e-05 0)
(-3.80897e-05 1.70054e-05 0)
(-4.32592e-05 1.79655e-05 0)
(-4.86777e-05 1.88373e-05 0)
(-5.43227e-05 1.96214e-05 0)
(-6.01718e-05 2.03198e-05 0)
(-6.62029e-05 2.09349e-05 0)
(-7.23941e-05 2.14697e-05 0)
(-7.87247e-05 2.19277e-05 0)
(-8.51742e-05 2.23127e-05 0)
(-9.1723e-05 2.26283e-05 0)
(-9.8352e-05 2.28781e-05 0)
(-0.000105044 2.3066e-05 0)
(-0.000111781 2.31954e-05 0)
(-0.000118548 2.32704e-05 0)
(-0.00012533 2.32949e-05 0)
(-0.000132114 2.32722e-05 0)
(-0.000138885 2.32053e-05 0)
(-0.000145632 2.30974e-05 0)
(-0.000152343 2.29515e-05 0)
(-0.000159008 2.27705e-05 0)
(-0.000165617 2.2557e-05 0)
(-0.000172162 2.23133e-05 0)
(-0.000178632 2.20416e-05 0)
(-0.000185021 2.1744e-05 0)
(-0.000191322 2.14224e-05 0)
(-0.000197527 2.10788e-05 0)
(-0.000203631 2.07152e-05 0)
(-0.000209628 2.03331e-05 0)
(-0.000215513 1.99334e-05 0)