/*--------------------------------*- C++ -*----------------------------------*\
  =========                 |
  \\      /  F ield         | OpenFOAM: The Open Source CFD Toolbox
   \\    /   O peration     | Website:  https://openfoam.org
    \\  /    A nd           | Version:  7
     \\/     M anipulation  |
\*---------------------------------------------------------------------------*/
FoamFile
{
    version     2.0;
    format      ascii;
    class       surfaceScalarField;
    location    "0.3875";
    object      phi;
}
// * * * * * * * * * * * * * * * * * * * * * * * * * * * * * * * * * * * * * //

dimensions      [0 3 -1 0 0 0 0];

internalField   nonuniform List<scalar> 
101920
(
-9.2826e-14
1.16449e-13
-1.04592e-12
9.53431e-13
-1.26027e-12
2.10098e-13
-1.24427e-12
-1.26687e-14
-9.13585e-13
-3.30207e-13
-3.33746e-13
-5.78877e-13
4.23782e-13
-7.5686e-13
1.31186e-12
-8.88425e-13
2.29288e-12
-9.81586e-13
3.34119e-12
-1.04862e-12
4.42994e-12
-1.09126e-12
5.54555e-12
-1.11561e-12
6.67144e-12
-1.12806e-12
7.79994e-12
-1.12756e-12
8.91787e-12
-1.11886e-12
1.00187e-11
-1.10043e-12
1.10928e-11
-1.07264e-12
1.21333e-11
-1.04059e-12
1.31363e-11
-1.00225e-12
1.40947e-11
-9.59877e-13
1.50065e-11
-9.13009e-13
1.58681e-11
-8.60948e-13
1.66753e-11
-8.08625e-13
1.74289e-11
-7.53478e-13
1.8126e-11
-6.96348e-13
1.87653e-11
-6.39584e-13
1.93469e-11
-5.80514e-13
1.98685e-11
-5.21111e-13
2.03313e-11
-4.63099e-13
2.07376e-11
-4.04348e-13
2.10847e-11
-3.46222e-13
2.13744e-11
-2.89284e-13
2.16094e-11
-2.33134e-13
2.17885e-11
-1.78871e-13
2.19138e-11
-1.25928e-13
2.19888e-11
-7.44008e-14
2.20142e-11
-2.58771e-14
2.19919e-11
2.1154e-14
2.19247e-11
6.71676e-14
2.18145e-11
1.0955e-13
2.16636e-11
1.49179e-13
2.1475e-11
1.87858e-13
2.12503e-11
2.23911e-13
2.09929e-11
2.55974e-13
2.07071e-11
2.85676e-13
2.03949e-11
3.13541e-13
2.00577e-11
3.37833e-13
1.97e-11
3.58841e-13
1.9324e-11
3.77356e-13
1.89315e-11
3.9322e-13
1.85247e-11
4.06088e-13
1.81077e-11
4.16306e-13
1.76836e-11
4.23988e-13
1.72532e-11
4.29237e-13
1.68196e-11
4.32581e-13
1.6387e-11
4.3346e-13
1.59572e-11
4.30537e-13
1.55325e-11
4.24246e-13
1.51157e-11
4.16447e-13
1.47078e-11
4.0747e-13
1.43117e-11
3.95723e-13
1.39308e-11
3.80936e-13
1.35664e-11
3.64634e-13
1.32188e-11
3.46941e-13
1.28895e-11
3.27163e-13
1.25817e-11
3.06136e-13
1.22975e-11
2.84597e-13
1.20367e-11
2.61837e-13
1.18007e-11
2.37222e-13
1.15918e-11
2.10669e-13
1.14109e-11
1.82217e-13
1.12577e-11
1.52343e-13
1.11333e-11
1.22209e-13
1.10395e-11
9.26895e-14
1.09769e-11
6.32017e-14
1.09449e-11
3.25775e-14
1.09432e-11
1.31764e-15
1.09725e-11
-2.93927e-14
1.10329e-11
-6.00025e-14
1.11244e-11
-9.14588e-14
1.12472e-11
-1.23064e-13
1.14013e-11
-1.53513e-13
1.15853e-11
-1.8294e-13
1.17981e-11
-2.12273e-13
1.20395e-11
-2.41607e-13
1.23093e-11
-2.70127e-13
1.26061e-11
-2.97185e-13
1.29281e-11
-3.22872e-13
1.32743e-11
-3.47304e-13
1.36447e-11
-3.70492e-13
1.40384e-11
-3.9262e-13
1.44526e-11
-4.13514e-13
1.48851e-11
-4.32584e-13
1.53338e-11
-4.49253e-13
1.57971e-11
-4.63456e-13
1.62737e-11
-4.76078e-13
1.67617e-11
-4.87774e-13
1.72587e-11
-4.97705e-13
1.77624e-11
-5.0471e-13
1.82701e-11
-5.08591e-13
1.878e-11
-5.10228e-13
1.92906e-11
-5.10368e-13
1.97988e-11
-5.08151e-13
2.03021e-11
-5.02733e-13
2.07971e-11
-4.94602e-13
2.12813e-11
-4.84282e-13
2.17534e-11
-4.71995e-13
2.22105e-11
-4.57504e-13
2.26493e-11
-4.39925e-13
2.30678e-11
-4.18977e-13
2.34632e-11
-3.95219e-13
2.38328e-11
-3.68879e-13
2.41741e-11
-3.4019e-13
2.44841e-11
-3.09631e-13
2.47599e-11
-2.76711e-13
2.49998e-11
-2.40802e-13
2.52016e-11
-2.02046e-13
2.53624e-11
-1.60582e-13
2.54806e-11
-1.17051e-13
2.55532e-11
-7.21356e-14
2.5578e-11
-2.53005e-14
2.55539e-11
2.40655e-14
2.54785e-11
7.57727e-14
2.53493e-11
1.29396e-13
2.51654e-11
1.84136e-13
2.49264e-11
2.39142e-13
2.4631e-11
2.94836e-13
2.42779e-11
3.52177e-13
2.38664e-11
4.10703e-13
2.33958e-11
4.69668e-13
2.28671e-11
5.29136e-13
2.22808e-11
5.88379e-13
2.16355e-11
6.46244e-13
2.09318e-11
7.0262e-13
2.01727e-11
7.57817e-13
1.93599e-11
8.12037e-13
1.8494e-11
8.65204e-13
1.75781e-11
9.16089e-13
1.66161e-11
9.62768e-13
1.56115e-11
1.00465e-12
1.45689e-11
1.04241e-12
1.34932e-11
1.07572e-12
1.23893e-11
1.10322e-12
1.12641e-11
1.12399e-12
1.01267e-11
1.13713e-12
8.98558e-12
1.14132e-12
7.84915e-12
1.13569e-12
6.72852e-12
1.11974e-12
5.63648e-12
1.09196e-12
4.58646e-12
1.0501e-12
3.59354e-12
9.92793e-13
2.67517e-12
9.18714e-13
1.84957e-12
8.25693e-13
1.13609e-12
7.12378e-13
5.56513e-13
5.78416e-13
1.32689e-13
4.23779e-13
-1.18953e-13
2.52025e-13
-1.94229e-13
7.49831e-14
-1.17713e-13
-7.71837e-14
-1.18324e-13
8.72283e-13
-7.54216e-13
1.04899e-12
7.77616e-13
9.89848e-13
2.67279e-13
1.43885e-12
-4.61881e-13
2.35707e-12
-1.24867e-12
3.73634e-12
-1.95759e-12
5.525e-12
-2.54672e-12
7.64965e-12
-3.01251e-12
1.00422e-11
-3.3726e-12
1.26353e-11
-3.63967e-12
1.53764e-11
-3.82825e-12
1.82133e-11
-3.95291e-12
2.11091e-11
-4.02071e-12
2.40252e-11
-4.04379e-12
2.69319e-11
-4.02627e-12
2.98047e-11
-3.97171e-12
3.2617e-11
-3.88767e-12
3.53518e-11
-3.77435e-12
3.79901e-11
-3.64017e-12
4.05186e-11
-3.48727e-12
4.29247e-11
-3.31558e-12
4.5195e-11
-3.13316e-12
4.73244e-11
-2.93819e-12
4.93044e-11
-2.73305e-12
5.11287e-11
-2.52286e-12
5.27964e-11
-2.30622e-12
5.43007e-11
-2.08618e-12
5.56417e-11
-1.86489e-12
5.68214e-11
-1.64272e-12
5.78366e-11
-1.42194e-12
5.86898e-11
-1.20294e-12
5.93859e-11
-9.85834e-13
5.99245e-11
-7.73563e-13
6.03097e-11
-5.65801e-13
6.05482e-11
-3.62821e-13
6.06422e-11
-1.68029e-13
6.05975e-11
1.90315e-14
6.04212e-11
1.99802e-13
6.01179e-11
3.71718e-13
5.96946e-11
5.33445e-13
5.91592e-11
6.86881e-13
5.85183e-11
8.31178e-13
5.77788e-11
9.63594e-13
5.69497e-11
1.08524e-12
5.60387e-11
1.19685e-12
5.50519e-11
1.29775e-12
5.39985e-11
1.38807e-12
5.28876e-11
1.46831e-12
5.17253e-11
1.53844e-12
5.05195e-11
1.59795e-12
4.92787e-11
1.64686e-12
4.80104e-11
1.68524e-12
4.67222e-11
1.7124e-12
4.54217e-11
1.72925e-12
4.41171e-11
1.73704e-12
4.28151e-11
1.73451e-12
4.15225e-11
1.72129e-12
4.02479e-11
1.69929e-12
3.89983e-11
1.66852e-12
3.77773e-11
1.62789e-12
3.65917e-11
1.57871e-12
3.54499e-11
1.52275e-12
3.43564e-11
1.45979e-12
3.33156e-11
1.38885e-12
3.23331e-11
1.31028e-12
3.14138e-11
1.2256e-12
3.05612e-11
1.13551e-12
2.9779e-11
1.04019e-12
2.90717e-11
9.40651e-13
2.8444e-11
8.37217e-13
2.78982e-11
7.28854e-13
2.74362e-11
6.15686e-13
2.7061e-11
4.99488e-13
2.67743e-11
3.81341e-13
2.65768e-11
2.6117e-13
2.64702e-11
1.39169e-13
2.64559e-11
1.65356e-14
2.65342e-11
-1.06159e-13
2.67038e-11
-2.29707e-13
2.69648e-11
-3.53998e-13
2.7318e-11
-4.7719e-13
2.7762e-11
-5.97977e-13
2.82943e-11
-7.16487e-13
2.89134e-11
-8.32789e-13
2.96185e-11
-9.46257e-13
3.04068e-11
-1.05648e-12
3.12741e-11
-1.16329e-12
3.22176e-11
-1.26624e-12
3.32345e-11
-1.36454e-12
3.43212e-11
-1.45745e-12
3.5473e-11
-1.54484e-12
3.66852e-11
-1.62656e-12
3.79538e-11
-1.70162e-12
3.92742e-11
-1.76923e-12
4.06396e-11
-1.82936e-12
4.2044e-11
-1.8821e-12
4.34825e-11
-1.92733e-12
4.49495e-11
-1.9644e-12
4.64385e-11
-1.99277e-12
4.79418e-11
-2.01249e-12
4.94533e-11
-2.02332e-12
5.09674e-11
-2.02488e-12
5.24766e-11
-2.01693e-12
5.39726e-11
-1.99908e-12
5.54482e-11
-1.97122e-12
5.68963e-11
-1.93332e-12
5.83106e-11
-1.88538e-12
5.96834e-11
-1.82814e-12
6.10055e-11
-1.76176e-12
6.22695e-11
-1.68479e-12
6.34692e-11
-1.59635e-12
6.45964e-11
-1.49705e-12
6.56435e-11
-1.38757e-12
6.66033e-11
-1.26867e-12
6.74683e-11
-1.14073e-12
6.82316e-11
-1.00311e-12
6.88862e-11
-8.5582e-13
6.94244e-11
-6.99431e-13
6.98406e-11
-5.33979e-13
7.01294e-11
-3.60066e-13
7.0284e-11
-1.78708e-13
7.02982e-11
9.96692e-15
7.01671e-11
2.0606e-13
6.9886e-11
4.09011e-13
6.94509e-11
6.17982e-13
6.88584e-11
8.31772e-13
6.81054e-11
1.04881e-12
6.71893e-11
1.26861e-12
6.61091e-11
1.49119e-12
6.48629e-11
1.71534e-12
6.34501e-11
1.94005e-12
6.18727e-11
2.1648e-12
6.01321e-11
2.38751e-12
5.82299e-11
2.60552e-12
5.61702e-11
2.8178e-12
5.39588e-11
3.02389e-12
5.16013e-11
3.22214e-12
4.91053e-11
3.41037e-12
4.64805e-11
3.58639e-12
4.3738e-11
3.74736e-12
4.08903e-11
3.89054e-12
3.79521e-11
4.01396e-12
3.49397e-11
4.11503e-12
3.18716e-11
4.19037e-12
2.87702e-11
4.23703e-12
2.56597e-11
4.25187e-12
2.25659e-11
4.2302e-12
1.95181e-11
4.16729e-12
1.65494e-11
4.05944e-12
1.36963e-11
3.90234e-12
1.0998e-11
3.69075e-12
8.49688e-12
3.41979e-12
6.23788e-12
3.08503e-12
4.26686e-12
2.68333e-12
2.62945e-12
2.21484e-12
1.36606e-12
1.68579e-12
5.0303e-13
1.11445e-12
3.87976e-14
5.39478e-13
-7.77096e-14
3.95515e-14
-1.9615e-13
4.36645e-13
-1.19511e-12
1.54729e-12
-3.36356e-13
2.5872e-12
-7.71644e-13
3.97365e-12
-1.84686e-12
5.8258e-12
-3.10035e-12
8.18561e-12
-4.31605e-12
1.10304e-11
-5.3929e-12
1.43077e-11
-6.29239e-12
1.79469e-11
-7.01416e-12
2.18746e-11
-7.56583e-12
2.60167e-11
-7.97195e-12
3.03092e-11
-8.24425e-12
3.46907e-11
-8.40338e-12
3.911e-11
-8.46371e-12
4.35205e-11
-8.43431e-12
4.78788e-11
-8.33038e-12
5.21509e-11
-8.15884e-12
5.63033e-11
-7.9287e-12
6.03096e-11
-7.64871e-12
6.4148e-11
-7.32352e-12
6.7794e-11
-6.9633e-12
7.12335e-11
-6.5723e-12
7.44516e-11
-6.15498e-12
7.7436e-11
-5.71833e-12
8.01788e-11
-5.26419e-12
8.26715e-11
-4.79812e-12
8.49094e-11
-4.32502e-12
8.68923e-11
-3.84538e-12
8.86162e-11
-3.36513e-12
9.00816e-11
-2.88737e-12
9.12933e-11
-2.41227e-12
9.22519e-11
-1.94414e-12
9.29619e-11
-1.48504e-12
9.34319e-11
-1.03503e-12
9.3667e-11
-5.9811e-13
9.36737e-11
-1.76591e-13
9.34627e-11
2.30097e-13
9.30424e-11
6.19743e-13
9.24214e-11
9.89958e-13
9.16122e-11
1.34162e-12
9.06251e-11
1.6736e-12
8.94707e-11
1.9839e-12
8.81628e-11
2.27181e-12
8.67129e-11
2.53693e-12
8.51325e-11
2.77882e-12
8.34343e-11
2.99664e-12
8.1632e-11
3.19165e-12
7.9738e-11
3.36343e-12
7.77634e-11
3.51165e-12
7.5723e-11
3.6373e-12
7.36303e-11
3.7399e-12
7.14953e-11
3.81873e-12
6.93314e-11
3.87479e-12
6.71529e-11
3.90899e-12
6.49703e-11
3.92063e-12
6.27945e-11
3.90917e-12
6.06375e-11
3.87668e-12
5.85113e-11
3.82526e-12
5.64266e-11
3.75375e-12
5.43929e-11
3.66129e-12
5.24203e-11
3.55044e-12
5.0519e-11
3.4231e-12
4.8697e-11
3.2794e-12
4.69637e-11
3.1201e-12
4.53289e-11
2.94608e-12
4.37987e-11
2.75789e-12
4.23793e-11
2.55623e-12
4.10786e-11
2.34232e-12
3.99024e-11
2.11768e-12
3.88551e-11
1.88317e-12
3.79416e-11
1.63941e-12
3.71679e-11
1.38805e-12
3.65383e-11
1.13043e-12
3.60544e-11
8.66598e-13
3.57174e-11
5.97448e-13
3.5531e-11
3.25301e-13
3.54969e-11
5.17445e-14
3.56147e-11
-2.23175e-13
3.58843e-11
-4.99339e-13
3.63059e-11
-7.75108e-13
3.68788e-11
-1.04853e-12
3.76006e-11
-1.31885e-12
3.84688e-11
-1.58528e-12
3.94813e-11
-1.84622e-12
4.06349e-11
-2.10031e-12
4.1925e-11
-2.34703e-12
4.33463e-11
-2.58566e-12
4.48947e-11
-2.81484e-12
4.65649e-11
-3.03367e-12
4.83501e-11
-3.24174e-12
5.02429e-11
-3.43806e-12
5.22362e-11
-3.62101e-12
5.43232e-11
-3.78899e-12
5.64963e-11
-3.94144e-12
5.87459e-11
-4.07868e-12
6.10622e-11
-4.19989e-12
6.34362e-11
-4.30328e-12
6.5859e-11
-4.38798e-12
6.83201e-11
-4.45389e-12
7.08084e-11
-4.50094e-12
7.3313e-11
-4.52844e-12
7.58235e-11
-4.53525e-12
7.83283e-11
-4.52119e-12
8.08153e-11
-4.48628e-12
8.32729e-11
-4.42977e-12
8.56891e-11
-4.35091e-12
8.80523e-11
-4.24956e-12
9.035e-11
-4.12609e-12
9.25698e-11
-3.98101e-12
9.46994e-11
-3.81379e-12
9.6727e-11
-3.62331e-12
9.86403e-11
-3.41003e-12
1.00426e-10
-3.17476e-12
1.02074e-10
-2.91737e-12
1.03571e-10
-2.63832e-12
1.04908e-10
-2.33837e-12
1.06071e-10
-2.01794e-12
1.07049e-10
-1.6779e-12
1.07833e-10
-1.31872e-12
1.08413e-10
-9.40529e-13
1.0878e-10
-5.44685e-13
1.08924e-10
-1.33041e-13
1.08837e-10
2.93638e-13
1.08511e-10
7.34641e-13
1.07941e-10
1.18815e-12
1.07119e-10
1.6524e-12
1.06041e-10
2.12571e-12
1.04703e-10
2.60585e-12
1.03105e-10
3.09093e-12
1.01243e-10
3.57896e-12
9.9117e-11
4.06715e-12
9.67277e-11
4.55307e-12
9.40786e-11
5.0346e-12
9.11751e-11
5.50841e-12
8.80231e-11
5.97045e-12
8.46299e-11
6.41747e-12
8.10063e-11
6.84617e-12
7.71652e-11
7.25184e-12
7.31216e-11
7.62974e-12
6.88923e-11
7.97567e-12
6.44981e-11
8.28438e-12
5.99626e-11
8.54972e-12
5.53114e-11
8.76586e-12
5.05742e-11
8.92693e-12
4.57851e-11
9.02607e-12
4.09809e-11
9.05583e-12
3.62021e-11
9.00835e-12
3.14946e-11
8.8749e-12
2.69081e-11
8.6464e-12
2.24959e-11
8.31414e-12
1.83155e-11
7.87e-12
1.44288e-11
7.30602e-12
1.08986e-11
6.61506e-12
7.78764e-12
5.79392e-12
5.15584e-12
4.84661e-12
3.05383e-12
3.78825e-12
1.51304e-12
2.65481e-12
5.3446e-13
1.51672e-12
7.25655e-14
5.011e-13
-1.23347e-13
5.54586e-13
-1.74572e-12
1.93964e-12
-1.72172e-12
3.73501e-12
-2.56548e-12
6.00707e-12
-4.1171e-12
8.81035e-12
-5.90491e-12
1.21652e-11
-7.67122e-12
1.60495e-11
-9.27718e-12
2.04156e-11
-1.0658e-11
2.51932e-11
-1.17892e-11
3.03045e-11
-1.26783e-11
3.56722e-11
-1.33376e-11
4.12184e-11
-1.37906e-11
4.68719e-11
-1.40587e-11
5.25702e-11
-1.41601e-11
5.82502e-11
-1.41161e-11
6.38638e-11
-1.39422e-11
6.93613e-11
-1.36556e-11
7.47009e-11
-1.32694e-11
7.98504e-11
-1.27957e-11
8.47731e-11
-1.22482e-11
8.94445e-11
-1.16361e-11
9.38427e-11
-1.09697e-11
9.79456e-11
-1.02599e-11
1.0174e-10
-9.51234e-12
1.05212e-10
-8.73648e-12
1.08352e-10
-7.94054e-12
1.11155e-10
-7.12801e-12
1.13616e-10
-6.30675e-12
1.15732e-10
-5.48316e-12
1.17505e-10
-4.66032e-12
1.18938e-10
-3.84426e-12
1.20033e-10
-3.04012e-12
1.20798e-10
-2.24955e-12
1.21241e-10
-1.47691e-12
1.21369e-10
-7.26977e-13
1.21195e-10
-9.8251e-16
1.20728e-10
6.98275e-13
1.19981e-10
1.36659e-12
1.18968e-10
2.00328e-12
1.17704e-10
2.60683e-12
1.16202e-10
3.17483e-12
1.14479e-10
3.70589e-12
1.12551e-10
4.19953e-12
1.10433e-10
4.65419e-12
1.08141e-10
5.06852e-12
1.05695e-10
5.44278e-12
1.03111e-10
5.77655e-12
1.00405e-10
6.06901e-12
9.75955e-11
6.32086e-12
9.47002e-11
6.53298e-12
9.17366e-11
6.70402e-12
8.87202e-11
6.83387e-12
8.56689e-11
6.92501e-12
8.26004e-11
6.97781e-12
7.95295e-11
6.99102e-12
7.6473e-11
6.96558e-12
7.3447e-11
6.90376e-12
7.04646e-11
6.80684e-12
6.75413e-11
6.67527e-12
6.46932e-11
6.50998e-12
6.19326e-11
6.31265e-12
5.92716e-11
6.08456e-12
5.67226e-11
5.82706e-12
5.42986e-11
5.54256e-12
5.20111e-11
5.23258e-12
4.9869e-11
4.89806e-12
4.78824e-11
4.54119e-12
4.60621e-11
4.16379e-12
4.44155e-11
3.76656e-12
4.29483e-11
3.35079e-12
4.16675e-11
2.91936e-12
4.05803e-11
2.47534e-12
3.96919e-11
2.01984e-12
3.90057e-11
1.55324e-12
3.85253e-11
1.07797e-12
3.82541e-11
5.97389e-13
3.81936e-11
1.13132e-13
3.83436e-11
-3.73837e-13
3.87051e-11
-8.61628e-13
3.92781e-11
-1.34784e-12
4.00604e-11
-1.83044e-12
4.10494e-11
-2.30781e-12
4.22425e-11
-2.77802e-12
4.36365e-11
-3.23899e-12
4.52262e-11
-3.68904e-12
4.70052e-11
-4.12647e-12
4.89673e-11
-4.54916e-12
5.11066e-11
-4.95492e-12
5.34155e-11
-5.34239e-12
5.58849e-11
-5.71089e-12
5.8505e-11
-6.0587e-12
6.12664e-11
-6.38318e-12
6.41592e-11
-6.68221e-12
6.7172e-11
-6.95456e-12
7.0293e-11
-7.19982e-12
7.351e-11
-7.41695e-12
7.68098e-11
-7.60362e-12
8.01791e-11
-7.75817e-12
8.36039e-11
-7.87993e-12
8.70703e-11
-7.96815e-12
9.05637e-11
-8.022e-12
9.40684e-11
-8.04033e-12
9.75683e-11
-8.02212e-12
1.01048e-10
-7.96691e-12
1.04493e-10
-7.87416e-12
1.07886e-10
-7.7432e-12
1.11209e-10
-7.5738e-12
1.14447e-10
-7.36554e-12
1.17582e-10
-7.11786e-12
1.206e-10
-6.83089e-12
1.23482e-10
-6.50461e-12
1.26212e-10
-6.13928e-12
1.28773e-10
-5.73594e-12
1.3115e-10
-5.29463e-12
1.33326e-10
-4.81511e-12
1.35287e-10
-4.29857e-12
1.37016e-10
-3.74655e-12
1.38498e-10
-3.16028e-12
1.3972e-10
-2.54101e-12
1.40669e-10
-1.88973e-12
1.41331e-10
-1.2076e-12
1.41696e-10
-4.96925e-13
1.4175e-10
2.39616e-13
1.41484e-10
1.0002e-12
1.40892e-10
1.78239e-12
1.39962e-10
2.58255e-12
1.38689e-10
3.39775e-12
1.37068e-10
4.22553e-12
1.35097e-10
5.06239e-12
1.32772e-10
5.90397e-12
1.30095e-10
6.74564e-12
1.27067e-10
7.58269e-12
1.2369e-10
8.41057e-12
1.19973e-10
9.22473e-12
1.15924e-10
1.00194e-11
1.11554e-10
1.07878e-11
1.06877e-10
1.15232e-11
1.01909e-10
1.2219e-11
9.6673e-11
1.28672e-11
9.11898e-11
1.34592e-11
8.54864e-11
1.39867e-11
7.95948e-11
1.44409e-11
7.35498e-11
1.48114e-11
6.73899e-11
1.50872e-11
6.11591e-11
1.52573e-11
5.49057e-11
1.53097e-11
4.8682e-11
1.52314e-11
4.25463e-11
1.50092e-11
3.65624e-11
1.463e-11
3.07974e-11
1.408e-11
2.53219e-11
1.33456e-11
2.02108e-11
1.24164e-11
1.55405e-11
1.1285e-11
1.13855e-11
9.94906e-12
7.81559e-12
8.41684e-12
4.88981e-12
6.71428e-12
2.64971e-12
4.89522e-12
1.10947e-12
3.056e-12
2.48947e-13
1.361e-12
1.25829e-13
5.65886e-13
-2.31102e-12
2.25162e-12
-3.40766e-12
4.66008e-12
-4.97358e-12
7.71063e-12
-7.16847e-12
1.13867e-11
-9.58275e-12
1.56699e-11
-1.19542e-11
2.05197e-11
-1.41286e-11
2.58812e-11
-1.60183e-11
3.16811e-11
-1.75892e-11
3.78385e-11
-1.8835e-11
4.42704e-11
-1.97696e-11
5.08939e-11
-2.04147e-11
5.76318e-11
-2.0795e-11
6.44082e-11
-2.09369e-11
7.11568e-11
-2.08638e-11
7.78142e-11
-2.06008e-11
8.43267e-11
-2.01693e-11
9.06468e-11
-1.95877e-11
9.67284e-11
-1.88777e-11
1.02534e-10
-1.80546e-11
1.08032e-10
-1.71339e-11
1.13193e-10
-1.61323e-11
1.17995e-10
-1.50612e-11
1.22418e-10
-1.39341e-11
1.26445e-10
-1.27645e-11
1.30066e-10
-1.15609e-11
1.33273e-10
-1.03337e-11
1.36059e-10
-9.09373e-12
1.38424e-10
-7.84729e-12
1.40367e-10
-6.6028e-12
1.4189e-10
-5.36895e-12
1.43001e-10
-4.15054e-12
1.43706e-10
-2.95384e-12
1.44013e-10
-1.78584e-12
1.43936e-10
-6.49938e-13
1.43487e-10
4.49196e-13
1.42677e-10
1.50649e-12
1.41525e-10
2.51853e-12
1.40046e-10
3.48273e-12
1.38258e-10
4.39565e-12
1.36178e-10
5.25397e-12
1.33828e-10
6.05654e-12
1.31227e-10
6.80169e-12
1.28394e-10
7.48696e-12
1.2535e-10
8.11173e-12
1.22118e-10
8.67573e-12
1.18717e-10
9.17692e-12
1.1517e-10
9.61565e-12
1.11498e-10
9.9926e-12
1.07724e-10
1.03071e-11
1.03868e-10
1.05588e-11
9.99536e-11
1.07491e-11
9.6e-11
1.08791e-11
9.20281e-11
1.09487e-11
8.80583e-11
1.09589e-11
8.4112e-11
1.0912e-11
8.02086e-11
1.08088e-11
7.63644e-11
1.065e-11
7.25991e-11
1.04384e-11
6.89322e-11
1.01764e-11
6.53793e-11
9.8655e-12
6.19561e-11
9.50737e-12
5.86794e-11
9.1043e-12
5.5564e-11
8.65906e-12
5.26233e-11
8.17376e-12
4.98697e-11
7.65071e-12
4.7316e-11
7.0936e-12
4.49744e-11
6.50506e-12
4.28544e-11
5.88625e-12
4.0965e-11
5.23967e-12
3.93156e-11
4.56936e-12
3.79132e-11
3.8786e-12
3.67633e-11
3.16948e-12
3.5872e-11
2.4443e-12
3.52442e-11
1.70665e-12
3.48829e-11
9.60129e-13
3.47897e-11
2.07019e-13
3.4966e-11
-5.50214e-13
3.54132e-11
-1.30816e-12
3.61299e-11
-2.06369e-12
3.71131e-11
-2.814e-12
3.83605e-11
-3.55609e-12
3.98694e-11
-4.28682e-12
4.16347e-11
-5.00331e-12
4.36494e-11
-5.70323e-12
4.59065e-11
-6.38382e-12
4.83988e-11
-7.04181e-12
5.11182e-11
-7.67425e-12
5.40542e-11
-8.27878e-12
5.7196e-11
-8.85343e-12
6.05325e-11
-9.39557e-12
6.40515e-11
-9.90198e-12
6.77396e-11
-1.03702e-11
7.15822e-11
-1.07984e-11
7.55655e-11
-1.11844e-11
7.96749e-11
-1.15261e-11
8.38931e-11
-1.18215e-11
8.82026e-11
-1.20683e-11
9.25867e-11
-1.22651e-11
9.70279e-11
-1.24102e-11
1.01508e-10
-1.25021e-11
1.06008e-10
-1.254e-11
1.10506e-10
-1.25221e-11
1.14984e-10
-1.24468e-11
1.19423e-10
-1.23133e-11
1.23801e-10
-1.21214e-11
1.28099e-10
-1.18709e-11
1.32294e-10
-1.15612e-11
1.36366e-10
-1.11911e-11
1.40295e-10
-1.07601e-11
1.4406e-10
-1.02691e-11
1.47639e-10
-9.71861e-12
1.51013e-10
-9.1093e-12
1.54161e-10
-8.44197e-12
1.57063e-10
-7.71704e-12
1.59699e-10
-6.93546e-12
1.62051e-10
-6.09915e-12
1.641e-10
-5.21015e-12
1.6583e-10
-4.27036e-12
1.67223e-10
-3.28202e-12
1.68263e-10
-2.24768e-12
1.68935e-10
-1.16976e-12
1.69226e-10
-5.15105e-14
1.69124e-10
1.10303e-12
1.68617e-10
2.29e-12
1.67695e-10
3.50491e-12
1.66351e-10
4.74248e-12
1.64578e-10
5.9981e-12
1.62373e-10
7.26727e-12
1.59733e-10
8.54383e-12
1.56658e-10
9.82035e-12
1.53152e-10
1.10898e-11
1.49218e-10
1.23453e-11
1.44865e-10
1.35788e-11
1.40103e-10
1.47815e-11
1.34946e-10
1.59445e-11
1.29411e-10
1.70572e-11
1.23521e-10
1.8109e-11
1.17299e-10
1.90889e-11
1.10775e-10
1.99844e-11
1.0398e-10
2.0782e-11
9.69517e-11
2.14683e-11
8.97338e-11
2.20293e-11
8.23727e-11
2.24491e-11
7.49207e-11
2.27103e-11
6.74347e-11
2.27958e-11
5.9977e-11
2.26881e-11
5.26168e-11
2.23685e-11
4.54276e-11
2.18186e-11
3.84871e-11
2.10202e-11
3.18766e-11
1.99563e-11
2.56812e-11
1.86125e-11
1.9986e-11
1.69803e-11
1.48745e-11
1.50599e-11
1.04264e-11
1.28649e-11
6.71111e-12
1.04299e-11
3.78374e-12
7.82261e-12
1.68133e-12
5.15788e-12
4.20638e-13
2.62136e-12
5.46695e-13
6.11336e-13
-2.92127e-12
2.54638e-12
-5.34168e-12
5.45135e-12
-7.87751e-12
9.16627e-12
-1.0883e-11
1.36104e-11
-1.40265e-11
1.87209e-11
-1.70668e-11
2.44386e-11
-1.98431e-11
3.06864e-11
-2.22672e-11
3.73899e-11
-2.42907e-11
4.44599e-11
-2.59048e-11
5.18088e-11
-2.71198e-11
5.93515e-11
-2.79564e-11
6.70002e-11
-2.84441e-11
7.46782e-11
-2.86131e-11
8.23088e-11
-2.84941e-11
8.98233e-11
-2.81166e-11
9.71628e-11
-2.75078e-11
1.0427e-10
-2.66953e-11
1.11096e-10
-2.57039e-11
1.17598e-10
-2.45561e-11
1.23737e-10
-2.32746e-11
1.29483e-10
-2.18781e-11
1.34808e-10
-2.03857e-11
1.39688e-10
-1.88162e-11
1.44108e-10
-1.71844e-11
1.48052e-10
-1.55047e-11
1.51511e-10
-1.37934e-11
1.54479e-10
-1.20616e-11
1.56954e-10
-1.03211e-11
1.58935e-10
-8.58443e-12
1.60426e-10
-6.86035e-12
1.61435e-10
-5.15776e-12
1.61967e-10
-3.48701e-12
1.62037e-10
-1.85487e-12
1.61655e-10
-2.67809e-13
1.60838e-10
1.26679e-12
1.59601e-10
2.7427e-12
1.57964e-10
4.15611e-12
1.55945e-10
5.50181e-12
1.53564e-10
6.77502e-12
1.50845e-10
7.97279e-12
1.4781e-10
9.09211e-12
1.44482e-10
1.01297e-11
1.40885e-10
1.10835e-11
1.37045e-10
1.19527e-11
1.32986e-10
1.27349e-11
1.28733e-10
1.34293e-11
1.24312e-10
1.40364e-11
1.1975e-10
1.45553e-11
1.15071e-10
1.49851e-11
1.10301e-10
1.53276e-11
1.05468e-10
1.55839e-11
1.00593e-10
1.57538e-11
9.57032e-11
1.58379e-11
9.08225e-11
1.5839e-11
8.59746e-11
1.57598e-11
8.11827e-11
1.56008e-11
7.64694e-11
1.53635e-11
7.18565e-11
1.50513e-11
6.73654e-11
1.46675e-11
6.30153e-11
1.42141e-11
5.88265e-11
1.36946e-11
5.48186e-11
1.31121e-11
5.10081e-11
1.24695e-11
4.74113e-11
1.17702e-11
4.40449e-11
1.10178e-11
4.09233e-11
1.02164e-11
3.80587e-11
9.36936e-12
3.54637e-11
8.47981e-12
3.31504e-11
7.55244e-12
3.11292e-11
6.59166e-12
2.9408e-11
5.60047e-12
2.7994e-11
4.5827e-12
2.6895e-11
3.54335e-12
2.6116e-11
2.48685e-12
2.56598e-11
1.41685e-12
2.55294e-11
3.37101e-13
2.57271e-11
-7.47855e-13
2.62535e-11
-1.83345e-12
2.71069e-11
-2.91604e-12
2.82843e-11
-3.99157e-12
2.97834e-11
-5.05524e-12
3.16003e-11
-6.10282e-12
3.37281e-11
-7.13069e-12
3.61592e-11
-8.13495e-12
3.8886e-11
-9.1112e-12
4.18996e-11
-1.00552e-11
4.51897e-11
-1.09638e-11
4.87439e-11
-1.18335e-11
5.25495e-11
-1.26604e-11
5.65937e-11
-1.34401e-11
6.08615e-11
-1.41694e-11
6.5337e-11
-1.48453e-11
7.00031e-11
-1.54652e-11
7.48425e-11
-1.60252e-11
7.98381e-11
-1.65217e-11
8.49696e-11
-1.69527e-11
9.02162e-11
-1.73157e-11
9.55581e-11
-1.76078e-11
1.00974e-10
-1.78267e-11
1.06442e-10
-1.79702e-11
1.11939e-10
-1.80371e-11
1.17441e-10
-1.80253e-11
1.22925e-10
-1.79325e-11
1.28369e-10
-1.77572e-11
1.33746e-10
-1.74993e-11
1.39033e-10
-1.71581e-11
1.44204e-10
-1.67327e-11
1.49236e-10
-1.62222e-11
1.54102e-10
-1.56264e-11
1.58779e-10
-1.49459e-11
1.63241e-10
-1.41814e-11
1.67465e-10
-1.33334e-11
1.71427e-10
-1.24027e-11
1.75101e-10
-1.13912e-11
1.78466e-10
-1.03008e-11
1.81499e-10
-9.13288e-12
1.84178e-10
-7.89006e-12
1.86483e-10
-6.57554e-12
1.88394e-10
-5.19249e-12
1.89891e-10
-3.7447e-12
1.90958e-10
-2.23632e-12
1.91578e-10
-6.71397e-13
1.91737e-10
9.44797e-13
1.91421e-10
2.60603e-12
1.90619e-10
4.30643e-12
1.89322e-10
6.03971e-12
1.87522e-10
7.79835e-12
1.85216e-10
9.57444e-12
1.82399e-10
1.13601e-11
1.79073e-10
1.31463e-11
1.7524e-10
1.49226e-11
1.70907e-10
1.66788e-11
1.66082e-10
1.84039e-11
1.60779e-10
2.00856e-11
1.55013e-10
2.17105e-11
1.48804e-10
2.32651e-11
1.42178e-10
2.47349e-11
1.35163e-10
2.61039e-11
1.27792e-10
2.73553e-11
1.20102e-10
2.84712e-11
1.12139e-10
2.94328e-11
1.03948e-10
3.022e-11
9.55849e-11
3.08121e-11
8.71084e-11
3.1187e-11
7.85834e-11
3.13211e-11
7.00797e-11
3.11908e-11
6.16743e-11
3.07728e-11
5.34493e-11
3.00432e-11
4.54902e-11
2.89793e-11
3.78863e-11
2.75598e-11
3.07309e-11
2.57681e-11
2.41175e-11
2.35947e-11
1.81373e-11
2.10407e-11
1.28787e-11
1.81231e-11
8.4245e-12
1.48838e-11
4.84743e-12
1.13991e-11
2.21186e-12
7.79286e-12
5.75749e-13
4.25743e-12
1.12273e-12
6.84154e-13
-3.60488e-12
2.83311e-12
-7.49132e-12
6.14616e-12
-1.11925e-11
1.04194e-11
-1.51566e-11
1.55199e-11
-1.91282e-11
2.13519e-11
-2.28953e-11
2.78222e-11
-2.63144e-11
3.4846e-11
-2.92885e-11
4.23309e-11
-3.17746e-11
5.01836e-11
-3.37585e-11
5.83125e-11
-3.5248e-11
6.6624e-11
-3.62687e-11
7.50299e-11
-3.68496e-11
8.34451e-11
-3.7028e-11
9.17894e-11
-3.68391e-11
9.9991e-11
-3.63177e-11
1.07983e-10
-3.54992e-11
1.15703e-10
-3.44168e-11
1.231e-10
-3.31002e-11
1.30125e-10
-3.15816e-11
1.36737e-10
-2.98866e-11
1.42901e-10
-2.80406e-11
1.48584e-10
-2.60705e-11
1.53765e-10
-2.39969e-11
1.58423e-10
-2.18408e-11
1.6254e-10
-1.96236e-11
1.66109e-10
-1.73621e-11
1.69121e-10
-1.50732e-11
1.71574e-10
-1.27741e-11
1.73468e-10
-1.04785e-11
1.74807e-10
-8.19944e-12
1.75599e-10
-5.94999e-12
1.75853e-10
-3.74169e-12
1.75583e-10
-1.58383e-12
1.74801e-10
5.1362e-13
1.73527e-10
2.54097e-12
1.71778e-10
4.49166e-12
1.69577e-10
6.3588e-12
1.66943e-10
8.13474e-12
1.63902e-10
9.8151e-12
1.6048e-10
1.13955e-11
1.56701e-10
1.28707e-11
1.52592e-10
1.42374e-11
1.48183e-10
1.54934e-11
1.43501e-10
1.66357e-11
1.38573e-10
1.76618e-11
1.33431e-10
1.85719e-11
1.28103e-10
1.93651e-11
1.22619e-10
2.00394e-11
1.17008e-10
2.05955e-11
1.113e-10
2.10356e-11
1.05524e-10
2.13597e-11
9.97089e-11
2.1568e-11
9.38839e-11
2.16628e-11
8.80771e-11
2.16467e-11
8.23139e-11
2.15219e-11
7.66221e-11
2.12909e-11
7.10292e-11
2.09564e-11
6.55593e-11
2.05219e-11
6.02361e-11
1.99906e-11
5.50833e-11
1.93663e-11
5.0124e-11
1.86537e-11
4.53799e-11
1.78564e-11
4.087e-11
1.69783e-11
3.66136e-11
1.6025e-11
3.26306e-11
1.50014e-11
2.89369e-11
1.39112e-11
2.55468e-11
1.27589e-11
2.2475e-11
1.15505e-11
1.97353e-11
1.02921e-11
1.73391e-11
8.98832e-12
1.5296e-11
7.64342e-12
1.3615e-11
6.26333e-12
1.23044e-11
4.85463e-12
1.13698e-11
3.42252e-12
1.08148e-11
1.97188e-12
1.06433e-11
5.085e-13
1.08578e-11
-9.61718e-13
1.14578e-11
-2.43313e-12
1.2442e-11
-3.90035e-12
1.38081e-11
-5.35769e-12
1.55528e-11
-6.79921e-12
1.76709e-11
-8.21969e-12
2.01544e-11
-9.61411e-12
2.29953e-11
-1.09766e-11
2.6185e-11
-1.23012e-11
2.97127e-11
-1.35828e-11
3.35663e-11
-1.48171e-11
3.77319e-11
-1.59995e-11
4.21952e-11
-1.71243e-11
4.69407e-11
-1.81858e-11
5.1951e-11
-1.91799e-11
5.72082e-11
-2.01027e-11
6.26933e-11
-2.09502e-11
6.83857e-11
-2.17177e-11
7.42643e-11
-2.24006e-11
8.03067e-11
-2.29956e-11
8.64898e-11
-2.34995e-11
9.27905e-11
-2.39087e-11
9.91834e-11
-2.42199e-11
1.05643e-10
-2.44306e-11
1.12143e-10
-2.4538e-11
1.18657e-10
-2.45397e-11
1.25158e-10
-2.44336e-11
1.31618e-10
-2.42179e-11
1.3801e-10
-2.38914e-11
1.44304e-10
-2.34531e-11
1.50473e-10
-2.29016e-11
1.56487e-10
-2.22364e-11
1.62319e-10
-2.14578e-11
1.6794e-10
-2.05663e-11
1.7332e-10
-1.95623e-11
1.78433e-10
-1.84468e-11
1.83251e-10
-1.72207e-11
1.87746e-10
-1.58863e-11
1.91892e-10
-1.44465e-11
1.95663e-10
-1.29042e-11
1.99034e-10
-1.12617e-11
2.01982e-10
-9.52334e-12
2.04483e-10
-7.69388e-12
2.06516e-10
-5.77789e-12
2.08061e-10
-3.78082e-12
2.091e-10
-1.70915e-12
2.09615e-10
4.30202e-13
2.09591e-10
2.62959e-12
2.09016e-10
4.88092e-12
2.07879e-10
7.17591e-12
2.06172e-10
9.50526e-12
2.0389e-10
1.18578e-11
2.01028e-10
1.42219e-11
1.97588e-10
1.6586e-11
1.93573e-10
1.89377e-11
1.8899e-10
2.12625e-11
1.83848e-10
2.35453e-11
1.78163e-10
2.57705e-11
1.71953e-10
2.7921e-11
1.65239e-10
2.99783e-11
1.5805e-10
3.19232e-11
1.50418e-10
3.37355e-11
1.42379e-10
3.53934e-11
1.33977e-10
3.68735e-11
1.25258e-10
3.81514e-11
1.16277e-10
3.92016e-11
1.07093e-10
3.99971e-11
9.7769e-11
4.05098e-11
8.83782e-11
4.07111e-11
7.89966e-11
4.05717e-11
6.97072e-11
4.00619e-11
6.05981e-11
3.91524e-11
5.17613e-11
3.78157e-11
4.32931e-11
3.60275e-11
3.52935e-11
3.37678e-11
2.78633e-11
3.10255e-11
2.1102e-11
2.78021e-11
1.51084e-11
2.41162e-11
9.97934e-12
2.00125e-11
5.80732e-12
1.55704e-11
2.68517e-12
1.09145e-11
7.10979e-13
6.23177e-12
1.834e-12
7.60559e-13
-4.36575e-12
3.10723e-12
-9.83648e-12
6.75945e-12
-1.48472e-11
1.14952e-11
-1.98924e-11
1.71493e-11
-2.4781e-11
2.35895e-11
-2.93365e-11
3.0705e-11
-3.34269e-11
3.83863e-11
-3.69701e-11
4.65323e-11
-3.99221e-11
5.5044e-11
-4.22689e-11
6.38193e-11
-4.4024e-11
7.27636e-11
-4.52111e-11
8.17816e-11
-4.58667e-11
9.07829e-11
-4.60307e-11
9.96885e-11
-4.57435e-11
1.08419e-10
-4.50468e-11
1.16902e-10
-4.39835e-11
1.25076e-10
-4.25906e-11
1.32883e-10
-4.0908e-11
1.40271e-10
-3.8971e-11
1.47198e-10
-3.68122e-11
1.53623e-10
-3.44664e-11
1.59514e-10
-3.19626e-11
1.64847e-10
-2.93281e-11
1.69596e-10
-2.65911e-11
1.73748e-10
-2.37757e-11
1.77291e-10
-2.09039e-11
1.80216e-10
-1.79988e-11
1.82522e-10
-1.50798e-11
1.84209e-10
-1.21647e-11
1.85281e-10
-9.27149e-12
1.85747e-10
-6.41647e-12
1.85618e-10
-3.61249e-12
1.84909e-10
-8.73581e-13
1.83634e-10
1.78733e-12
1.81815e-10
4.36025e-12
1.79472e-10
6.83539e-12
1.76627e-10
9.20258e-12
1.73307e-10
1.14542e-11
1.69538e-10
1.35841e-11
1.65349e-10
1.55851e-11
1.60767e-10
1.74518e-11
1.55824e-10
1.91805e-11
1.50552e-10
2.07669e-11
1.44979e-10
2.22071e-11
1.39141e-10
2.35e-11
1.33071e-10
2.46438e-11
1.26798e-10
2.56365e-11
1.20359e-10
2.64778e-11
1.13787e-10
2.71685e-11
1.07114e-10
2.77093e-11
1.00372e-10
2.81006e-11
9.35951e-11
2.83441e-11
8.68153e-11
2.8443e-11
8.00641e-11
2.8399e-11
7.33708e-11
2.82146e-11
6.67663e-11
2.7894e-11
6.02815e-11
2.74411e-11
5.39431e-11
2.68598e-11
4.77782e-11
2.61543e-11
4.18146e-11
2.53297e-11
3.60773e-11
2.43912e-11
3.059e-11
2.33437e-11
2.53754e-11
2.21924e-11
2.04554e-11
2.09446e-11
1.58509e-11
1.96061e-11
1.158e-11
1.81819e-11
7.66011e-12
1.66781e-11
4.10824e-12
1.51025e-11
9.38538e-13
1.34621e-11
-1.83654e-12
1.17629e-11
-4.2048e-12
1.00112e-11
-6.15587e-12
8.21473e-12
-7.68184e-12
6.38116e-12
-8.77644e-12
4.51711e-12
-9.4342e-12
2.62935e-12
-9.65055e-12
7.25424e-13
-9.42383e-12
-1.18744e-12
-8.755e-12
-3.10216e-12
-7.64459e-12
-5.01128e-12
-6.09445e-12
-6.90744e-12
-4.10933e-12
-8.78353e-12
-1.69574e-12
-1.06328e-11
1.13817e-12
-1.24483e-11
4.38388e-12
-1.42225e-11
8.03133e-12
-1.59483e-11
1.20678e-11
-1.76194e-11
1.64794e-11
-1.92295e-11
2.12517e-11
-2.07721e-11