/*--------------------------------*- C++ -*----------------------------------*\
  =========                 |
  \\      /  F ield         | OpenFOAM: The Open Source CFD Toolbox
   \\    /   O peration     | Website:  https://openfoam.org
    \\  /    A nd           | Version:  7
     \\/     M anipulation  |
\*---------------------------------------------------------------------------*/
FoamFile
{
    version     2.0;
    format      ascii;
    class       volScalarField;
    location    "0.3375";
    object      p;
}
// * * * * * * * * * * * * * * * * * * * * * * * * * * * * * * * * * * * * * //

dimensions      [0 2 -2 0 0 0 0];

internalField   nonuniform List<scalar> 
12800
(
-2.55137e-06
0.000177756
-0.000907925
-0.00335264
-0.00691104
-0.0113362
-0.016395
-0.0218741
-0.0275868
-0.033373
-0.0390964
-0.0446416
-0.0499113
-0.0548239
-0.0593117
-0.0633184
-0.0667985
-0.0697151
-0.0720395
-0.0737497
-0.0748302
-0.0752703
-0.0750643
-0.0742106
-0.072711
-0.0705706
-0.0677969
-0.0644001
-0.0603919
-0.0557859
-0.0505971
-0.0448415
-0.0385359
-0.0316981
-0.0243462
-0.0164987
-0.00817429
0.000608303
0.00983035
0.0194733
0.0295187
0.0399486
0.0507452
0.0618914
0.0733703
0.0851655
0.0972614
0.109643
0.122295
0.135205
0.148358
0.161742
0.175344
0.189154
0.203161
0.217353
0.231722
0.246258
0.260953
0.275799
0.290788
0.305913
0.321168
0.336547
0.352044
0.367654
0.383373
0.399195
0.415118
0.431137
0.447248
0.463449
0.479737
0.496108
0.512561
0.529093
0.545701
0.562384
0.579139
0.595964
0.612857
0.629816
0.646839
0.663922
0.681064
0.698262
0.715513
0.732813
0.750159
0.767548
0.784975
0.802435
0.819924
0.837435
0.854963
0.8725
0.89004
0.907575
0.925095
0.942592
0.960054
0.977472
0.994833
1.01212
1.02933
1.04644
1.06344
1.0803
1.09702
1.11358
1.12994
1.1461
1.16204
1.17772
1.19313
1.20824
1.22303
1.23747
1.25153
1.26519
1.27843
1.2912
1.30348
1.31525
1.32648
1.33713
1.34718
1.3566
1.36537
1.37345
1.38083
1.38749
1.39339
1.39853
1.40288
1.40644
1.40919
1.41113
1.41226
1.41258
1.41209
1.41082
1.40878
1.40601
1.40253
1.3984
1.39366
1.3884
1.38269
1.37662
1.37031
1.36389
1.35752
1.35138
1.34569
1.34069
1.33664
1.33383
1.33255
1.33271
-0.000186333
-3.54437e-06
-0.00100713
-0.00313993
-0.00617795
-0.00994602
-0.0142704
-0.0189805
-0.0239198
-0.028949
-0.0339459
-0.0388045
-0.0434335
-0.0477552
-0.0517035
-0.0552231
-0.0582682
-0.0608012
-0.0627919
-0.0642168
-0.0650583
-0.0653037
-0.064945
-0.0639781
-0.0624026
-0.060221
-0.0574386
-0.0540629
-0.0501037
-0.045572
-0.0404805
-0.0348432
-0.0286749
-0.0219913
-0.0148086
-0.00714356
0.000986925
0.00956568
0.0185755
0.0279992
0.0378198
0.0480204
0.0585846
0.0694959
0.0807387
0.0922974
0.104157
0.116304
0.128723
0.141401
0.154326
0.167484
0.180865
0.194457
0.20825
0.222233
0.236397
0.250732
0.265231
0.279885
0.294687
0.30963
0.324707
0.339912
0.355239
0.370683
0.386239
0.401903
0.417669
0.433535
0.449496
0.465549
0.48169
0.497917
0.514227
0.530616
0.547082
0.563623
0.580236
0.596918
0.613667
0.63048
0.647354
0.664288
0.681277
0.698319
0.71541
0.732546
0.749724
0.76694
0.784189
0.801465
0.818764
0.83608
0.853405
0.870733
0.888057
0.905368
0.922657
0.939915
0.957131
0.974294
0.991393
1.00841
1.02534
1.04217
1.05887
1.07544
1.09185
1.10809
1.12414
1.13998
1.15559
1.17094
1.18601
1.20079
1.21525
1.22935
1.24308
1.25642
1.26933
1.28178
1.29376
1.30524
1.31618
1.32657
1.33637
1.34556
1.35412
1.36203
1.36925
1.37578
1.3816
1.38668
1.39101
1.3946
1.39741
1.39947
1.40076
1.40129
1.40107
1.40012
1.39846
1.39613
1.39315
1.38958
1.38546
1.38088
1.3759
1.37062
1.36514
1.35959
1.35411
1.34886
1.34401
1.33976
1.33632
1.33388
1.33271
1.33288
0.000897133
0.000999833
-4.34472e-06
-0.00198886
-0.00473863
-0.00811152
-0.0119674
-0.0161646
-0.0205697
-0.0250612
-0.0295302
-0.0338802
-0.038027
-0.0418973
-0.0454284
-0.0485669
-0.0512679
-0.0534941
-0.0552152
-0.0564069
-0.0570507
-0.0571326
-0.0566432
-0.0555769
-0.0539315
-0.051708
-0.0489098
-0.0455428
-0.0416147
-0.0371352
-0.032115
-0.0265665
-0.0205029
-0.0139383
-0.00688746
0.000634419
0.00861172
0.0170286
0.0258691
0.0351171
0.0447569
0.0547724
0.0651482
0.0758688
0.0869192
0.0982847
0.109951
0.121904
0.134131
0.146619
0.159355
0.172327
0.185524
0.198935
0.212549
0.226357
0.240349
0.254516
0.26885
0.283343
0.297987
0.312775
0.327701
0.342758
0.35794
0.373243
0.38866
0.404188
0.419821
0.435555
0.451387
0.467312
0.483327
0.499429
0.515615
0.531881
0.548224
0.564642
0.581131
0.597689
0.614314
0.631001
0.647748
0.664551
0.681408
0.698315
0.715269
0.732265
0.749299
0.766366
0.783463
0.800582
0.81772
0.834869
0.852023
0.869174
0.886315
0.903438
0.920532
0.93759
0.9546
0.971551
0.988431
1.00523
1.02193
1.03852
1.05498
1.0713
1.08746
1.10344
1.11923
1.13481
1.15015
1.16523
1.18004
1.19454
1.20873
1.22257
1.23603
1.24911
1.26176
1.27397
1.2857
1.29695
1.30767
1.31784
1.32745
1.33647
1.34487
1.35264
1.35975
1.36619
1.37194
1.37699
1.38132
1.38493
1.38781
1.38996
1.39139
1.3921
1.3921
1.39141
1.39006
1.38807
1.38548
1.38234
1.37871
1.37464
1.37021
1.36551
1.36064
1.35571
1.35084
1.34617
1.34186
1.33808
1.33497
1.33271
1.33154
1.3316
0.00334217
0.00313486
0.00197818
-1.14419e-05
-0.00265464
-0.00582778
-0.00941099
-0.0132837
-0.0173311
-0.021447
-0.0255348
-0.0295076
-0.0332884
-0.0368097
-0.0400127
-0.0428469
-0.0452693
-0.0472439
-0.0487409
-0.0497363
-0.0502111
-0.050151
-0.0495458
-0.0483889
-0.0466773
-0.0444105
-0.0415908
-0.0382228
-0.0343129
-0.0298693
-0.0249017
-0.0194209
-0.0134389
-0.00696858
-2.33524e-05
0.00738268
0.0152351
0.023519
0.0322197
0.0413219
0.0508108
0.0606714
0.0708887
0.0814483
0.0923358
0.103537
0.115039
0.126827
0.138889
0.151213
0.163786
0.176597
0.189634
0.202887
0.216346
0.230001
0.243843
0.257862
0.272051
0.286402
0.300906
0.315558
0.330349
0.345275
0.360329
0.375505
0.390798
0.406203
0.421716
0.437332
0.453047
0.468857
0.484758
0.500747
0.51682
0.532974
0.549205
0.565512
0.581889
0.598335
0.614845
0.631418
0.648049
0.664735
0.681472
0.698258
0.715087
0.731956
0.74886
0.765795
0.782755
0.799735
0.816728
0.833729
0.85073
0.867725
0.884705
0.901661
0.918585
0.935467
0.952297
0.969063
0.985753
1.00236
1.01886
1.03524
1.0515
1.0676
1.08355
1.09932
1.11488
1.13024
1.14535
1.16021
1.17479
1.18907
1.20303
1.21664
1.22989
1.24274
1.25519
1.26719
1.27873
1.28978
1.30032
1.31034
1.31979
1.32867
1.33695
1.34461
1.35163
1.35801
1.36371
1.36874
1.37308
1.37672
1.37966
1.3819
1.38345
1.38431
1.3845
1.38403
1.38292
1.38122
1.37894
1.37615
1.37289
1.36921
1.3652
1.36093
1.3565
1.35199
1.34753
1.34324
1.33925
1.33569
1.33271
1.33045
1.3291
1.32879
0.00691193
0.00618436
0.00473112
0.00261959
-3.41817e-05
-0.0031242
-0.00654736
-0.010202
-0.0139902
-0.0178203
-0.0216074
-0.0252743
-0.0287518
-0.0319783
-0.0348997
-0.037469
-0.0396458
-0.0413959
-0.0426907
-0.0435068
-0.0438256
-0.0436326
-0.0429172
-0.0416726
-0.0398947
-0.0375823
-0.0347369
-0.0313619
-0.0274627
-0.0230464
-0.0181214
-0.0126976
-0.00678568
-0.000397461
0.00645467
0.0137577
0.0214983
0.0296626
0.0382366
0.0472063
0.0565574
0.0662759
0.0763476
0.0867587
0.0974954
0.108544
0.119892
0.131527
0.143435
0.155605
0.168025
0.180684
0.193571
0.206675
0.219987
0.233496
0.247195
0.261073
0.275124
0.289338
0.303708
0.318228
0.332891
0.34769
0.362619
0.377672
0.392845
0.408131
0.423527
0.439028
0.454629
0.470326
0.486116
0.501994
0.517956
0.534
0.550122
0.566319
0.582586
0.598921
0.61532
0.63178
0.648297
0.664868
0.681489
0.698155
0.714863
0.731608
0.748386
0.765191
0.782019
0.798862
0.815717
0.832574
0.849429
0.866273
0.883098
0.899896
0.916657
0.933372
0.95003
0.96662
0.983131
0.999549
1.01586
1.03206
1.04812
1.06403
1.07977
1.09534
1.1107
1.12584
1.14075
1.1554
1.16977
1.18384
1.1976
1.21101
1.22405
1.23671
1.24897
1.26078
1.27215
1.28303
1.29342
1.30328
1.3126
1.32136
1.32953
1.3371
1.34406
1.35038
1.35605
1.36107
1.36542
1.3691
1.3721
1.37443
1.37609
1.37709
1.37745
1.37717
1.37629
1.37484
1.37284
1.37034
1.3674
1.36406
1.36039
1.35647
1.35237
1.34819
1.34403
1.33999
1.33618
1.33272
1.32973
1.32733
1.32565
1.32474
0.0113706
0.00998091
0.00811885
0.00578659
0.0030226
-8.38242e-05
-0.00344408
-0.00697372
-0.0105905
-0.0142158
-0.0177761
-0.0212037
-0.0244371
-0.027421
-0.0301062
-0.0324496
-0.0344139
-0.0359672
-0.0370825
-0.0377375
-0.0379143
-0.0375987
-0.0367803
-0.0354519
-0.0336091
-0.0312503
-0.028376
-0.0249891
-0.021094
-0.016697
-0.0118055
-0.00642848
-0.000575739
0.00574198
0.0125132
0.019726
0.0273676
0.0354254
0.0438861
0.0527366
0.0619633
0.0715528
0.0814919
0.0917672
0.102366
0.113275
0.124481
0.135973
0.147739
0.159766
0.172043
0.184561
0.197306
0.210271
0.223444
0.236817
0.250381
0.264126
0.278045
0.29213
0.306373
0.320767
0.335307
0.349984
0.364793
0.379729
0.394786
0.409958
0.425241
0.44063
0.456121
0.471709
0.48739
0.50316
0.519015
0.534953
0.550968
0.567057
0.583217
0.599444
0.615735
0.632085
0.648492
0.664951
0.681457
0.698008
0.714599
0.731224
0.747879
0.76456
0.781259
0.797972
0.814693
0.831414
0.848128
0.864828
0.881506
0.898153
0.91476
0.931316
0.947813
0.964238
0.98058
0.996827
1.01296
1.02898
1.04486
1.06059
1.07615
1.09152
1.1067
1.12165
1.13637
1.15083
1.16501
1.17889
1.19246
1.20569
1.21856
1.23104
1.24313
1.25478
1.26599
1.27673
1.28698
1.29671
1.30592
1.31457
1.32266
1.33015
1.33705
1.34333
1.34898
1.354
1.35836
1.36208
1.36515
1.36756
1.36933
1.37046
1.37097
1.37087
1.37018
1.36894
1.36718
1.36493
1.36225
1.35918
1.35579
1.35214
1.3483
1.34435
1.34038
1.33649
1.33275
1.32928
1.32617
1.32353
1.32138
1.31972
0.0164966
0.0143596
0.0120083
0.00937572
0.00641822
0.00321027
-0.000171805
-0.00365905
-0.0071833
-0.010678
-0.0140803
-0.0173314
-0.0203772
-0.0231688
-0.0256623
-0.0278186
-0.0296037
-0.0309884
-0.0319477
-0.0324607
-0.0325106
-0.032084
-0.0311706
-0.0297635
-0.0278582
-0.0254528
-0.0225475
-0.0191444
-0.0152476
-0.0108624
-0.00599581
-0.000655819
0.00514852
0.0114073
0.0181098
0.0252449
0.0328009
0.0407655
0.0491266
0.0578715
0.0669876
0.076462
0.0862821
0.0964353
0.106909
0.117691
0.128769
0.140131
0.151766
0.163662
0.175809
0.188195
0.200811
0.213646
0.226691
0.239936
0.253373
0.266994
0.28079
0.294753
0.308877
0.323153
0.337575
0.352138
0.366833
0.381657
0.396603
0.411666
0.426842
0.442124
0.457509
0.472992
0.488569
0.504235
0.519987
0.535821
0.551733
0.56772
0.583776
0.599899
0.616085
0.63233
0.648629
0.66498
0.681377
0.697817
0.714294
0.730805
0.747343
0.763904
0.780482
0.79707
0.813663
0.830254
0.846836
0.8634
0.879939
0.896445
0.912907
0.929316
0.945661
0.961933
0.978118
0.994206
1.01018
1.02603
1.04175
1.05731
1.0727
1.0879
1.10291
1.11769
1.13223
1.14652
1.16054
1.17425
1.18766
1.20072
1.21343
1.22576
1.2377
1.24921
1.26029
1.2709
1.28103
1.29066
1.29977
1.30834
1.31635
1.32379
1.33064
1.3369
1.34254
1.34756
1.35195
1.35571
1.35883
1.36133
1.36319
1.36444
1.36508
1.36513
1.36462
1.36356
1.362
1.35996
1.35749
1.35463
1.35145
1.34799
1.34433
1.34053
1.33667
1.33282
1.32907
1.32549
1.32216
1.31918
1.31649
1.31399
0.0220885
0.0191587
0.0162644
0.0132721
0.0100561
0.00667833
0.00320503
-0.000308633
-0.00380712
-0.00723493
-0.0105388
-0.0136684
-0.016577
-0.0192217
-0.0215636
-0.0235682
-0.025205
-0.0264474
-0.0272728
-0.0276621
-0.0275996
-0.027073
-0.0260729
-0.0245924
-0.0226273
-0.0201758
-0.0172377
-0.013815
-0.0099113
-0.00553148
-0.000681899
0.00463001
0.0103958
0.0166064
0.0232516
0.0303209
0.0378035
0.0456877
0.0539621
0.0626145
0.071633
0.0810055
0.0907197
0.100764
0.111125
0.121793
0.132755
0.143999
0.155515
0.167292
0.179319
0.191585
0.204081
0.216797
0.229723
0.24285
0.256171
0.269675
0.283356
0.297206
0.311217
0.325382
0.339694
0.354148
0.368737
0.383454
0.398296
0.413255
0.428327
0.443508
0.458791
0.474174
0.489651
0.505218
0.520871
0.536606
0.552419
0.568305
0.584262
0.600285
0.61637
0.632513
0.64871
0.664957
0.681249
0.697582
0.713951
0.730351
0.746778
0.763225
0.779686
0.796157
0.812629
0.829097
0.845553
0.86199
0.878399
0.894771
0.911098
0.927369
0.943574
0.959703
0.975744
0.991685
1.00751
1.02321
1.03878
1.05418
1.06942
1.08447
1.09932
1.11395
1.12834
1.14248
1.15634
1.16991
1.18317
1.19609
1.20867
1.22087
1.23267
1.24407
1.25503
1.26553
1.27557
1.28511
1.29414
1.30264
1.3106
1.31799
1.32482
1.33105
1.33669
1.34172
1.34614
1.34995
1.35313
1.3557
1.35765
1.35901
1.35977
1.35995
1.35958
1.35868
1.35728
1.3554
1.3531
1.35041
1.34737
1.34405
1.3405
1.33677
1.33294
1.32907
1.32521
1.32144
1.31783
1.31445
1.31115
1.30777
0.0279712
0.0242296
0.0207603
0.017366
0.0138424
0.0102415
0.00662132
0.00302489
-0.000503483
-0.00391819
-0.00717475
-0.0102307
-0.013046
-0.0155839
-0.0178104
-0.0196954
-0.0212117
-0.022336
-0.023048
-0.0233304
-0.0231693
-0.0225535
-0.0214743
-0.0199257
-0.0179038
-0.0154068
-0.0124348
-0.00898951
-0.0050743
-0.000693867
0.00414589
0.00943798
0.0151745
0.0213467
0.0279452
0.0349601
0.0423809
0.0501968
0.0583966
0.0669691
0.0759026
0.0851857
0.0948066
0.104754
0.115016
0.125581
0.136439
0.147577
0.158986
0.170655
0.182573
0.19473
0.207116
0.219722
0.232539
0.245558
0.25877
0.272167
0.285741
0.299485
0.313391
0.327452
0.341662
0.356013
0.370501
0.385119
0.399861
0.414722
0.429696
0.44478
0.459967
0.475254
0.490635
0.506107
0.521665
0.537305
0.553023
0.568814
0.584675
0.600602
0.61659
0.632635
0.648734
0.664881
0.681072
0.697303
0.713569
0.729864
0.746184
0.762522
0.778874
0.795232
0.811591
0.827942
0.844281
0.860597
0.876883
0.893132
0.909332
0.925475
0.941551
0.957548
0.973456
0.989262
1.00495
1.02052
1.03594
1.05121
1.06631
1.08122
1.09593
1.11043
1.12468
1.13868
1.15241
1.16586
1.17899
1.19179
1.20424
1.21633
1.22803
1.23932
1.25019
1.26061
1.27056
1.28003
1.289
1.29745
1.30537
1.31274
1.31954
1.32577
1.33142
1.33647
1.34092
1.34477
1.34801
1.35065
1.35269
1.35414
1.35501
1.35531
1.35506
1.35428
1.35301
1.35126
1.34908
1.3465
1.34357
1.34033
1.33683
1.33312
1.32925
1.32528
1.32127
1.31725
1.3133
1.30948
1.30554
1.30126
0.0339935
0.0294401
0.0253791
0.0215547
0.017688
0.0138233
0.0100121
0.00628715
0.00268288
-0.0007639
-0.00401666
-0.00704009
-0.00980063
-0.0122669
-0.0144101
-0.016204
-0.0176252
-0.0186533
-0.0192705
-0.0194618
-0.0192148
-0.0185197
-0.0173689
-0.0157572
-0.0136813
-0.0111396
-0.00813259
-0.00466201
-0.000731158
0.00365542
0.00849207
0.0137721
0.019488
0.0256314
0.0321933
0.0391644
0.0465346
0.0542936
0.0624307
0.0709352
0.0797959
0.0890018
0.0985416
0.108404
0.118579
0.129054
0.139819
0.150863
0.162176
0.173748
0.185567
0.197625
0.209912
0.222419
0.235136
0.248055
0.261168
0.274466
0.287942
0.301588
0.315396
0.329361
0.343474
0.357731
0.372123
0.386647
0.401296
0.416064
0.430946
0.445938
0.461034
0.476229
0.49152
0.506901
0.522368
0.537918
0.553544
0.569245
0.585014
0.600849
0.616744
0.632696
0.6487
0.664752
0.680847
0.696981
0.713148
0.729343
0.745561
0.761797
0.778044
0.794296
0.810547
0.82679
0.843017
0.859221
0.875394
0.891526
0.907609
0.923634
0.93959
0.955466
0.971252
0.986935
1.0025
1.01794
1.03324
1.04839
1.06336
1.07815
1.09274
1.10711
1.12125
1.13513
1.14875
1.16208
1.1751
1.1878
1.20016
1.21215
1.22376
1.23497
1.24576
1.25611
1.266
1.27542
1.28435
1.29276
1.30066
1.30801
1.31481
1.32104
1.3267
1.33178
1.33627
1.34017
1.34347
1.34617
1.34829
1.34982
1.35078
1.35118
1.35103
1.35036
1.34919
1.34754
1.34545
1.34294
1.34007
1.33686
1.33336
1.32961
1.32566
1.32155
1.31732
1.31301
1.30868
1.30439
1.2998
1.29462
0.040027
0.0346728
0.0300153
0.0257436
0.0215091
0.0173501
0.0133139
0.00942399
0.00570635
0.00219005
-0.00109549
-0.00412149
-0.00686028
-0.00928571
-0.0113736
-0.0131017
-0.0144503
-0.0154019
-0.0159412
-0.0160555
-0.0157341
-0.0149688
-0.0137533
-0.0120831
-0.00995561
-0.00737002
-0.00432696
-0.0008285
0.003122
0.00752
0.0123599
0.0176353
0.0233388
0.0294625
0.0359976
0.0429352
0.0502655
0.0579787
0.0660646
0.0745127
0.0833123
0.0924529
0.101924
0.111714
0.121812
0.132209
0.142893
0.153854
0.165082
0.176568
0.1883
0.200269
0.212467
0.224884
0.237511
0.25034
0.263362
0.27657
0.289955
0.303511
0.317229
0.331104
0.345129
0.359296
0.373601
0.388037
0.402598
0.417279
0.432075
0.44698
0.461989
0.477099
0.492303
0.507598
0.52298
0.538442
0.553983
0.569596
0.585278
0.601025
0.616832
0.632695
0.648609
0.66457
0.680573
0.696614
0.712687
0.728788
0.74491
0.761048
0.777197
0.793349
0.809499
0.82564
0.841763
0.857862
0.873929
0.889954
0.905929
0.921845
0.937691
0.953456
0.969131
0.984703
1.00016
1.01549
1.03068
1.04571
1.06058
1.07526
1.08974
1.104
1.11804
1.13182
1.14534
1.15858
1.17151
1.18412
1.1964
1.20831
1.21985
1.231
1.24173
1.25203
1.26188
1.27126
1.28016
1.28855
1.29643
1.30378
1.31059
1.31684
1.32252
1.32764
1.33217
1.33611
1.33947
1.34225
1.34443
1.34604
1.34708
1.34757
1.3475
1.34691
1.34582
1.34424
1.3422
1.33974
1.33689
1.33367
1.33013
1.3263
1.32222
1.31793
1.31345
1.30882
1.30408
1.29929
1.29405
1.288
0.0459611
0.0398245
0.0345735
0.0298458
0.0252274
0.0207527
0.0164656
0.0123823
0.0085213
0.00490491
0.00155624
-0.00150181
-0.00424693
-0.00665784
-0.00871466
-0.0103991
-0.0116948
-0.0125871
-0.0130634
-0.0131132
-0.0127278
-0.0119004
-0.010626
-0.00890128
-0.00672447
-0.00409536
-0.0010151
0.00251386
0.00648796
0.0109025
0.015752
0.0210299
0.0267291
0.0328418
0.0393596
0.0462736
0.0535745
0.0612528
0.0692985
0.0777015
0.0864515
0.0955383
0.104951
0.11468
0.124715
0.135044
0.145659
0.156548
0.167703
0.179112
0.190768
0.202659
0.214778
0.227114
0.239661
0.252408
0.265349
0.278474
0.291778
0.305251
0.318888
0.332681
0.346623
0.360709
0.374932
0.389286
0.403766
0.418365
0.43308
0.447904
0.462832
0.47786
0.492984
0.508197
0.523497
0.538878
0.554336
0.569867
0.585466
0.60113
0.616853
0.632631
0.648459
0.664334
0.680251
0.696204
0.712188
0.728199
0.74423
0.760276
0.776332
0.792391
0.808446
0.824491
0.840518
0.856519
0.872488
0.888414
0.90429
0.920105
0.935851
0.951516
0.96709
0.982561
0.997918
1.01315
1.02824
1.04317
1.05794
1.07253
1.08692
1.10109
1.11504
1.12874
1.14218
1.15534
1.1682
1.18074
1.19295
1.20481
1.2163
1.2274
1.23809
1.24835
1.25817
1.26753
1.27642
1.28481
1.29269
1.30005
1.30687
1.31315
1.31887
1.32402
1.3286
1.3326
1.33602
1.33886
1.34111
1.34279
1.34391
1.34446
1.34446
1.34394
1.3429
1.34137
1.33936
1.33691
1.33405
1.33079
1.32717
1.32323
1.31899
1.31448
1.30973
1.30475
1.29959
1.29431
1.28842
1.28152
0.0517002
0.0448041
0.0389681
0.0337821
0.0287706
0.0239655
0.0194089
0.0151105
0.0110826
0.00734157
0.00390499
0.000790496
-0.00198447
-0.00440309
-0.00644952
-0.00810914
-0.00936877
-0.0102168
-0.0106431
-0.0106393
-0.0101987
-0.00931612
-0.00798791
-0.00621189
-0.00398729
-0.00131465
0.00180426
0.00536654
0.00936828
0.0138046
0.0186698
0.0239574
0.0296602
0.0357705
0.0422801
0.0491804
0.0564621
0.064116
0.0721324
0.0805014
0.0892132
0.0982576
0.107624
0.117304
0.127285
0.137559
0.148115
0.158944
0.170036
0.18138
0.192969
0.204792
0.216842
0.229108
0.241583
0.254258
0.267126
0.280179
0.293408
0.306808
0.32037
0.334088
0.347955
0.361966
0.376114
0.390393
0.404797
0.419321
0.43396
0.448708
0.463561
0.478513
0.49356
0.508697
0.52392
0.539224
0.554605
0.570058
0.585578
0.601162
0.616806
0.632503
0.648251
0.664045
0.679879
0.695748
0.711649
0.727575
0.743521
0.759481
0.77545
0.791421
0.807387
0.823343
0.83928
0.855192
0.871069
0.886905
0.902689
0.918414
0.934068
0.949643
0.965127
0.980508
0.995777
1.01092
1.02592
1.04077
1.05546
1.06997
1.08428
1.09838
1.11225
1.12588
1.13926
1.15235
1.16516
1.17765
1.18981
1.20163
1.21308
1.22415
1.23481
1.24506
1.25487
1.26423
1.27311
1.28151
1.28941
1.29679
1.30365
1.30996
1.31572
1.32092
1.32555
1.32961
1.33309
1.33599
1.33832
1.34006
1.34124
1.34186
1.34192
1.34144
1.34044
1.33893
1.33694
1.33448
1.33157
1.32825
1.32454
1.32045
1.31602
1.31127
1.30622
1.30088
1.2953
1.28951
1.28299
1.27527
0.0571616
0.0495311
0.0431224
0.0374803
0.0320718
0.0269274
0.0220883
0.0175589
0.013346
0.00946102
0.00591668
0.00272591
-9.82248e-05
-0.00254298
-0.00459627
-0.00624691
-0.00748481
-0.0083011
-0.00868825
-0.00864006
-0.00815166
-0.00721957
-0.00584155
-0.00401665
-0.00174515
0.000971563
0.00413101
0.00772975
0.0117634
0.0162268
0.021114
0.0264183
0.0321327
0.0382492
0.0447599
0.051656
0.0589286
0.0665685
0.0745664
0.0829124
0.091597
0.10061
0.109942
0.119583
0.129523
0.139752
0.150261
0.16104
0.172079
0.18337
0.194903
0.206668
0.218658
0.230864
0.243277
0.255889
0.268693
0.28168
0.294844
0.308178
0.321673
0.335324
0.349124
0.363066
0.377146
0.391356
0.405691
0.420145
0.434714
0.449393
0.464175
0.479056
0.494032
0.509097
0.524248
0.539479
0.554787
0.570166
0.585613
0.601123
0.616691
0.632313
0.647984
0.6637
0.679457
0.695248
0.711069
0.726916
0.742781
0.758661
0.774548
0.790438
0.806322
0.822195
0.838049
0.853878
0.869672
0.885425
0.901127
0.916769
0.932341
0.947835
0.963238
0.978541
0.993731
1.0088
1.02373
1.03851
1.05312
1.06756
1.08181
1.09585
1.10966
1.12324
1.13656
1.14961
1.16238
1.17483
1.18697
1.19876
1.21019
1.22124
1.2319
1.24215
1.25196
1.26133
1.27023
1.27866
1.28658
1.294
1.3009
1.30726
1.31307
1.31833
1.32302
1.32714
1.33069
1.33365
1.33604
1.33785
1.33909
1.33976
1.33987
1.33943
1.33846
1.33696
1.33495
1.33246
1.3295
1.32609
1.32225
1.318
1.31337
1.30836
1.303
1.29729
1.29127
1.28499
1.27785
1.26935
0.062273
0.0539342
0.0469673
0.0408747
0.0350693
0.0295811
0.0244511
0.0196795
0.0152683
0.0112247
0.00755705
0.00427427
0.00138546
-0.00110038
-0.00317461
-0.00482925
-0.00605716
-0.00685213
-0.00720903
-0.00712379
-0.00659345
-0.00561618
-0.00419122
-0.0023189
-5.773e-07
0.00276141
0.00596383
0.00960258
0.0136728
0.0181688
0.0230845
0.0284129
0.0341467
0.0402781
0.0467989
0.0537005
0.0609741
0.0686105
0.0766004
0.0849343
0.0936026
0.102596
0.111904
0.121518
0.131427
0.141623
0.152096
0.162836
0.173834
0.18508
0.196567
0.208285
0.220225
0.23238
0.24474
0.257299
0.270047
0.282979
0.296085
0.30936
0.322797
0.336388
0.350127
0.364009
0.378026
0.392174
0.406446
0.420837
0.435342
0.449955
0.464672
0.479488
0.494398
0.509397
0.52448
0.539644
0.554883
0.570193
0.585571
0.60101
0.616507
0.632058
0.647658
0.663302
0.678985
0.694703
0.71045
0.726222
0.742012
0.757816
0.773628
0.789441
0.80525
0.821046
0.836825
0.852577
0.868296
0.883973
0.8996
0.915168
0.930667
0.946089
0.961422
0.976655
0.991778
1.00678
1.02165
1.03636
1.05092
1.06531
1.0795
1.09349
1.10727
1.1208
1.13409
1.14711
1.15985
1.17229
1.1844
1.19619
1.20761
1.21867
1.22934
1.2396
1.24943
1.25883
1.26776
1.27623
1.2842
1.29166
1.29861
1.30503
1.31091
1.31623
1.32099
1.32518
1.32879
1.33183
1.33428
1.33616
1.33745
1.33817
1.33832
1.33791
1.33695
1.33545
1.33342
1.33088
1.32785
1.32433
1.32035
1.31593
1.31107
1.3058
1.30012
1.29403
1.28758
1.28082
1.27308
1.26383
0.0669709
0.0579497
0.0504405
0.0439054
0.0377062
0.0318732
0.0264478
0.0214265
0.0168076
0.0125946
0.00879199
0.00540511
0.00243951
-9.91624e-05
-0.00220547
-0.00387442
-0.00510163
-0.00588344
-0.00621701
-0.00610034
-0.00553236
-0.00451289
-0.00304267
-0.00112335
0.0012426
0.00405185
0.00730031
0.0109832
0.015095
0.0196297
0.0245805
0.0299405
0.035702
0.041857
0.0483972
0.0553141
0.0625987
0.0702419
0.0782345
0.0865671
0.0952302
0.104214
0.11351
0.123108
0.132998
0.143171
0.153619
0.16433
0.175297
0.186511
0.197962
0.209642
0.221543
0.233656
0.245973
0.258487
0.271189
0.284073
0.29713
0.310355
0.32374
0.337279
0.350965
0.364792
0.378755
0.392846
0.407062
0.421395
0.435842
0.450397
0.465054
0.479809
0.494658
0.509595
0.524616
0.539717
0.554892
0.570139
0.585451
0.600825
0.616256
0.63174
0.647272
0.662848
0.678463
0.694112
0.70979
0.725492
0.741213
0.756947
0.772688
0.788431
0.804169
0.819896
0.835604
0.851287
0.866938
0.882547
0.898107
0.913609
0.929044
0.944402
0.959674
0.974848
0.989914
1.00486
1.01967
1.03434
1.04886
1.0632
1.07736
1.09131
1.10506
1.11857
1.13184
1.14484
1.15757
1.17
1.18212
1.19391
1.20535
1.21642
1.22711
1.2374
1.24727
1.25671
1.26569
1.27421
1.28224
1.28977
1.29678
1.30327
1.30922
1.31461
1.31945
1.32372
1.32741
1.33051
1.33304
1.33497
1.33632
1.33709
1.33728
1.33689
1.33593
1.33442
1.33236
1.32976
1.32664
1.32301
1.31888
1.31427
1.30918
1.30364
1.29763
1.29116
1.28429
1.27705
1.26874
1.25876
0.0711989
0.0615207
0.0534856
0.0465175
0.0399298
0.0337536
0.0280312
0.0227562
0.0179236
0.0135336
0.00958768
0.00608782
0.00303641
0.000436049
-0.00171077
-0.00340182
-0.0046353
-0.00540997
-0.00572518
-0.00558095
-0.00497805
-0.00391795
-0.00240292
-0.000435889
0.00197946
0.00483879
0.00813713
0.0118689
0.0160279
0.0206076
0.0256009
0.0310003
0.0367979
0.0429855
0.0495546
0.0564965
0.0638023
0.0714628
0.0794688
0.087811
0.0964799
0.105466
0.11476
0.124353
0.134235
0.144397
0.15483
0.165524
0.176471
0.187662
0.199088
0.21074
0.222611
0.234692
0.246975
0.259453
0.272118
0.284962
0.297979
0.311162
0.324504
0.337997
0.351637
0.365417
0.379331
0.393374
0.407539
0.421821
0.436215
0.450716
0.46532
0.48002
0.494813
0.509693
0.524657
0.539699
0.554816
0.570002
0.585254
0.600567
0.615936
0.631358
0.646827
0.66234
0.677891
0.693476
0.709089
0.724727
0.740383
0.756052
0.771728
0.787406
0.80308
0.818743
0.834388
0.850008
0.865596
0.881145
0.896646
0.91209
0.927468
0.942772
0.957992
0.973116
0.988135
1.00304
1.01781
1.03244
1.04692
1.06123
1.07536
1.0893
1.10303
1.11653
1.12979
1.14279
1.15552
1.16796
1.1801
1.19191
1.20338
1.21449
1.22522
1.23555
1.24548
1.25497
1.26402
1.2726
1.2807
1.2883
1.2954
1.30197
1.308
1.31348
1.3184
1.32275
1.32652
1.32971
1.3323
1.33431
1.33572
1.33653
1.33675
1.33638
1.33543
1.3339
1.33179
1.32913
1.32592
1.32216
1.31787
1.31306
1.30774
1.30191
1.29558
1.28874
1.28145
1.27375
1.26488
1.25421
0.0749064
0.0645956
0.0560511
0.0486605
0.0416911
0.0351753
0.0291568
0.0236266
0.018577
0.0140055
0.00991072
0.00629182
0.00314834
0.000480066
-0.00171318
-0.00343175
-0.00467628
-0.00544776
-0.00574768
-0.00557802
-0.00494134
-0.00384077
-0.00228005
-0.000263462
0.00220412
0.00511729
0.00847013
0.0122562
0.0164688
0.0211005
0.0261439
0.0315909
0.0374335
0.0436629
0.0502707
0.0572477
0.0645851
0.0722736
0.0803038
0.0886665
0.0973524
0.106352
0.115656
0.125255
0.13514
0.145301
0.15573
0.166418
0.177355
0.188534
0.199944
0.211579
0.22343
0.235488
0.247747
0.260198
0.272834
0.285648
0.298633
0.311781
0.325087
0.338544
0.352145
0.365884
0.379757
0.393756
0.407877
0.422114
0.436462
0.450915
0.46547
0.48012
0.494862
0.509691
0.524602
0.539591
0.554653
0.569784
0.58498
0.600236
0.615549
0.630912
0.646323
0.661777
0.677269
0.692794
0.708348
0.723926
0.739522
0.755131
0.770748
0.786367
0.801981
0.817586
0.833174
0.848738
0.864271
0.879766
0.895214
0.910608
0.925938
0.941196
0.956372
0.971456
0.986437
1.0013
1.01605
1.03065
1.04511
1.0594
1.07352
1.08744
1.10117
1.11467
1.12794
1.14096
1.15371
1.16617
1.17834
1.19018
1.2017
1.21285
1.22364
1.23404
1.24403
1.25359
1.26272
1.27138
1.27957
1.28727
1.29445
1.30112
1.30724
1.31282
1.31784
1.32228
1.32614
1.32941
1.33209
1.33416
1.33563
1.33649
1.33674
1.33639
1.33544
1.33389
1.33174
1.32901
1.3257
1.32181
1.31736
1.31235
1.30679
1.30068
1.29402
1.28682
1.27911
1.27096
1.26155
1.25021
0.0780481
0.0671277
0.05809
0.0502877
0.0429445
0.0360943
0.0297823
0.0239976
0.01873
0.0139748
0.00972818
0.00598667
0.00274729
7.28574e-06
-0.002236
-0.0039853
-0.0052435
-0.00601378
-0.00629963
-0.00610495
-0.00543406
-0.0042917
-0.0026831
-0.000613879
0.00190986
0.00488163
0.00829451
0.0121413
0.0164143
0.0211058
0.0262075
0.031711
0.0376077
0.0438887
0.0505451
0.0575677
0.0649473
0.0726745
0.08074
0.0891344
0.0978484
0.106872
0.116197
0.125814
0.135713
0.145885
0.156321
0.167013
0.177951
0.189128
0.200534
0.212161
0.224001
0.236047
0.24829
0.260724
0.27334
0.286132
0.299092
0.312214
0.325492
0.338919
0.352488
0.366194
0.380032
0.393995
0.408078
0.422275
0.436582
0.450994
0.465505
0.480111
0.494807
0.509589
0.524453
0.539393
0.554405
0.569486
0.58463
0.599835
0.615094
0.630404
0.645761
0.661161
0.676598
0.692068
0.707567
0.723089
0.73863
0.754184
0.769746
0.785311
0.800873
0.816425
0.831961
0.847475
0.862959
0.878407
0.89381
0.909161
0.924451
0.939671
0.954811
0.969863
0.984816
0.999659
1.01438
1.02897
1.04341
1.0577
1.07181
1.08574
1.09948
1.11299
1.12628
1.13932
1.15211
1.16461
1.17682
1.18872
1.20029
1.21152
1.22237
1.23285
1.24292
1.25257
1.26179
1.27055
1.27884
1.28664
1.29394
1.30071
1.30694
1.31263
1.31775
1.3223
1.32626
1.32962
1.33238
1.33453
1.33607
1.33698
1.33727
1.33694
1.33599
1.33442
1.33222
1.32942
1.32601
1.32199
1.31737
1.31216
1.30636
1.29997
1.293
1.28543
1.27732
1.26873
1.2588
1.24683
0.0805826
0.0690739
0.0595585
0.0513555
0.043647
0.0364686
0.0298672
0.0238304
0.0183459
0.0134069
0.00900754
0.00514207
0.00180518
-0.00100818
-0.00330295
-0.00508408
-0.00635661
-0.00712576
-0.00739698
-0.007176
-0.00646887
-0.00528194
-0.00362187
-0.00149568
0.00108931
0.00412549
0.00760495
0.0115196
0.0158609
0.0206205
0.0257894
0.0313587
0.0373194
0.0436621
0.0503776
0.0574565
0.0648892
0.0726664
0.0807784
0.0892158
0.0979693
0.107029
0.116387
0.126032
0.135956
0.14615
0.156605
0.167311
0.178261
0.189446
0.200857
0.212487
0.224327
0.236369
0.248606
0.261031
0.273636
0.286414
0.299359
0.312463
0.32572
0.339124
0.352669
0.366349
0.380158
0.394091
0.408142
0.422307
0.436579
0.450954
0.465427
0.479994
0.49465
0.50939
0.52421
0.539106
0.554074
0.569108
0.584206
0.599362
0.614573
0.629834
0.645142
0.660491
0.675878
0.691297
0.706745
0.722217
0.737707
0.753211
0.768724
0.78424
0.799753
0.815259
0.830749
0.846219
0.861661
0.877068
0.892433
0.907748
0.923004
0.938194
0.953308
0.968336
0.983269
0.998096
1.01281
1.02739
1.04183
1.05612
1.07025
1.08419
1.09794
1.11149
1.12481
1.13789
1.15072
1.16328
1.17555
1.18752
1.19916
1.21046
1.22141
1.23197
1.24215
1.2519
1.26123
1.2701
1.27851
1.28643
1.29384
1.30074
1.3071
1.31291
1.31815
1.32281
1.32688
1.33035
1.3332
1.33544
1.33704
1.33802
1.33835
1.33804
1.33709
1.3355
1.33326
1.33039
1.32687
1.32272
1.31794
1.31253
1.30649
1.29983
1.29254
1.28462
1.27612
1.2671
1.25667
1.24408
0.0824715
0.0703944
0.060416
0.0518233
0.0437583
0.0362585
0.029373
0.0230878
0.0173889
0.0122678
0.00771674
0.0037279
0.000293901
-0.00259243
-0.00493813
-0.00675024
-0.00803582
-0.00880207
-0.00905633
-0.00880611
-0.00805913
-0.00682332
-0.00510683
-0.00291802
-0.000265464
0.00284208
0.00639569
0.0103863
0.0148047
0.0196415
0.0248872
0.0305324
0.0365674
0.0429826
0.0497682
0.0569144