/*--------------------------------*- C++ -*----------------------------------*\
  =========                 |
  \\      /  F ield         | OpenFOAM: The Open Source CFD Toolbox
   \\    /   O peration     | Website:  https://openfoam.org
    \\  /    A nd           | Version:  7
     \\/     M anipulation  |
\*---------------------------------------------------------------------------*/
FoamFile
{
    version     2.0;
    format      ascii;
    class       surfaceScalarField;
    location    "0.3375";
    object      phi;
}
// * * * * * * * * * * * * * * * * * * * * * * * * * * * * * * * * * * * * * //

dimensions      [0 3 -1 0 0 0 0];

internalField   nonuniform List<scalar> 
25360
(
1.14459e-10
-1.14175e-10
3.59633e-10
-2.45198e-10
6.04243e-10
-2.44566e-10
7.65086e-10
-1.60824e-10
7.98035e-10
-3.29654e-11
6.81313e-10
1.16718e-10
4.06272e-10
2.75032e-10
-2.77559e-11
4.34025e-10
-6.16634e-10
5.88887e-10
-1.35335e-09
7.36721e-10
-2.22915e-09
8.75791e-10
-3.23424e-09
1.00509e-09
-4.35832e-09
1.12408e-09
-5.59088e-09
1.23255e-09
-6.92138e-09
1.3305e-09
-8.33947e-09
1.41809e-09
-9.83504e-09
1.49557e-09
-1.13983e-08
1.56327e-09
-1.30199e-08
1.62159e-09
-1.46908e-08
1.67094e-09
-1.64026e-08
1.71179e-09
-1.81472e-08
1.74458e-09
-1.9917e-08
1.76981e-09
-2.1705e-08
1.78793e-09
-2.35044e-08
1.79942e-09
-2.53091e-08
1.80476e-09
-2.71136e-08
1.80441e-09
-2.89124e-08
1.79881e-09
-3.07008e-08
1.78841e-09
-3.24744e-08
1.77362e-09
-3.42292e-08
1.75485e-09
-3.59617e-08
1.73249e-09
-3.76687e-08
1.70693e-09
-3.93472e-08
1.6785e-09
-4.09947e-08
1.64757e-09
-4.26092e-08
1.61443e-09
-4.41886e-08
1.5794e-09
-4.57313e-08
1.54276e-09
-4.72361e-08
1.50477e-09
-4.87018e-08
1.46569e-09
-5.01275e-08
1.42573e-09
-5.15126e-08
1.38511e-09
-5.28567e-08
1.34403e-09
-5.41593e-08
1.30266e-09
-5.54205e-08
1.26118e-09
-5.66402e-08
1.21972e-09
-5.78186e-08
1.17842e-09
-5.8956e-08
1.13739e-09
-6.00528e-08
1.09676e-09
-6.11094e-08
1.0566e-09
-6.21264e-08
1.01699e-09
-6.31044e-08
9.78019e-10
-6.40441e-08
9.39729e-10
-6.49463e-08
9.02174e-10
-6.58117e-08
8.65391e-10
-6.66411e-08
8.29407e-10
-6.74353e-08
7.94245e-10
-6.81953e-08
7.5992e-10
-6.89217e-08
7.26434e-10
-6.96155e-08
6.93784e-10
-7.02775e-08
6.6196e-10
-7.09084e-08
6.3095e-10
-7.15091e-08
6.00736e-10
-7.20804e-08
5.71291e-10
-7.2623e-08
5.42582e-10
-7.31376e-08
5.14571e-10
-7.36248e-08
4.87219e-10
-7.40853e-08
4.60487e-10
-7.45196e-08
4.34329e-10
-7.49283e-08
4.08692e-10
-7.53118e-08
3.8352e-10
-7.56706e-08
3.58753e-10
-7.60049e-08
3.34336e-10
-7.63151e-08
3.10208e-10
-7.66014e-08
2.86308e-10
-7.6864e-08
2.62568e-10
-7.71029e-08
2.38919e-10
-7.73182e-08
2.15292e-10
-7.75098e-08
1.91616e-10
-7.76776e-08
1.67818e-10
-7.78215e-08
1.43827e-10
-7.7941e-08
1.19568e-10
-7.8036e-08
9.49709e-11
-7.8106e-08
6.99602e-11
-7.81504e-08
4.44609e-11
-7.81688e-08
1.83969e-11
-7.81605e-08
-8.30609e-12
-7.81248e-08
-3.57201e-11
-7.80609e-08
-6.39154e-11
-7.79679e-08
-9.29624e-11
-7.7845e-08
-1.22931e-10
-7.76911e-08
-1.5389e-10
-7.75052e-08
-1.85903e-10
-7.72862e-08
-2.19029e-10
-7.70329e-08
-2.53325e-10
-7.6744e-08
-2.88845e-10
-7.64184e-08
-3.25638e-10
-7.60546e-08
-3.63751e-10
-7.56514e-08
-4.03221e-10
-7.52073e-08
-4.44078e-10
-7.4721e-08
-4.86345e-10
-7.4191e-08
-5.30037e-10
-7.36158e-08
-5.75166e-10
-7.2994e-08
-6.21732e-10
-7.23243e-08
-6.69724e-10
-7.16052e-08
-7.19116e-10
-7.08353e-08
-7.69873e-10
-7.00134e-08
-8.21947e-10
-6.91381e-08
-8.75278e-10
-6.82083e-08
-9.29792e-10
-6.72229e-08
-9.854e-10
-6.61809e-08
-1.04199e-09
-6.50815e-08
-1.09945e-09
-6.39239e-08
-1.15762e-09
-6.27075e-08
-1.21635e-09
-6.1432e-08
-1.27546e-09
-6.00973e-08
-1.33475e-09
-5.87033e-08
-1.394e-09
-5.72503e-08
-1.45297e-09
-5.57389e-08
-1.5114e-09
-5.41699e-08
-1.569e-09
-5.25444e-08
-1.62548e-09
-5.08639e-08
-1.68049e-09
-4.91302e-08
-1.73371e-09
-4.73455e-08
-1.78476e-09
-4.55122e-08
-1.83324e-09
-4.36335e-08
-1.87876e-09
-4.17126e-08
-1.92089e-09
-3.97534e-08
-1.95919e-09
-3.77602e-08
-1.99319e-09
-3.57378e-08
-2.02242e-09
-3.36914e-08
-2.0464e-09
-3.16267e-08
-2.06462e-09
-2.95502e-08
-2.07659e-09
-2.74684e-08
-2.08179e-09
-2.53887e-08
-2.0797e-09
-2.33188e-08
-2.06982e-09
-2.12672e-08
-2.05162e-09
-1.92426e-08
-2.02461e-09
-1.72543e-08
-1.98827e-09
-1.53122e-08
-1.94214e-09
-1.34264e-08
-1.88576e-09
-1.16077e-08
-1.8187e-09
-9.86718e-09
-1.74055e-09
-8.21621e-09
-1.65097e-09
-6.66653e-09
-1.54968e-09
-5.23004e-09
-1.43649e-09
-3.91874e-09
-1.3113e-09
-2.74454e-09
-1.1742e-09
-1.71906e-09
-1.02548e-09
-8.53268e-10
-8.65794e-10
-1.56991e-10
-6.96274e-10
3.61855e-10
-5.18843e-10
6.98515e-10
-3.36663e-10
8.53481e-10
-1.54972e-10
8.35992e-10
1.74889e-11
6.69867e-10
1.66132e-10
4.03856e-10
2.6602e-10
1.30756e-10
2.73104e-10
1.30765e-10
2.45496e-10
-3.59695e-10
6.34101e-10
-6.33721e-10
9.50101e-10
-5.60569e-10
1.04683e-09
-2.57592e-10
8.28477e-10
1.85381e-10
2.38544e-10
7.06649e-10
-7.51337e-10
1.26492e-09
-2.1502e-09
1.83289e-09
-3.95393e-09
2.39261e-09
-6.14953e-09
2.93232e-09
-8.71815e-09
3.4444e-09
-1.16371e-08
3.924e-09
-1.48812e-08
4.36822e-09
-1.84241e-08
4.77547e-09
-2.22388e-08
5.14514e-09
-2.62979e-08
5.47728e-09
-3.05748e-08
5.77244e-09
-3.50431e-08
6.03156e-09
-3.96773e-08
6.25582e-09
-4.4453e-08
6.44658e-09
-4.93466e-08
6.60538e-09
-5.43358e-08
6.7338e-09
-5.93995e-08
6.83352e-09
-6.45178e-08
6.90625e-09
-6.96721e-08
6.95369e-09
-7.48449e-08
6.97757e-09
-8.00201e-08
6.97957e-09
-8.51826e-08
6.96138e-09
-9.03188e-08
6.9246e-09
-9.54161e-08
6.87084e-09
-1.00463e-07
6.80162e-09
-1.05449e-07
6.71843e-09
-1.10365e-07
6.62269e-09
-1.15202e-07
6.51574e-09
-1.19953e-07
6.39888e-09
-1.24612e-07
6.27333e-09
-1.29173e-07
6.14025e-09
-1.33631e-07
6.00073e-09
-1.37982e-07
5.85578e-09
-1.42223e-07
5.70637e-09
-1.4635e-07
5.55337e-09
-1.50363e-07
5.39761e-09
-1.54259e-07
5.23985e-09
-1.58037e-07
5.08078e-09
-1.61697e-07
4.92105e-09
-1.65238e-07
4.76122e-09
-1.68661e-07
4.60182e-09
-1.71967e-07
4.44332e-09
-1.75157e-07
4.28613e-09
-1.78231e-07
4.13063e-09
-1.81191e-07
3.97712e-09
-1.84039e-07
3.8259e-09
-1.86776e-07
3.67718e-09
-1.89405e-07
3.53118e-09
-1.91928e-07
3.38803e-09
-1.94346e-07
3.24787e-09
-1.96663e-07
3.11077e-09
-1.9888e-07
2.9768e-09
-2.00999e-07
2.84598e-09
-2.03024e-07
2.71831e-09
-2.04956e-07
2.59376e-09
-2.06797e-07
2.47228e-09
-2.0855e-07
2.35379e-09
-2.10217e-07
2.23821e-09
-2.118e-07
2.12541e-09
-2.133e-07
2.01528e-09
-2.14721e-07
1.90764e-09
-2.16063e-07
1.80234e-09
-2.17328e-07
1.69921e-09
-2.18517e-07
1.59804e-09
-2.19632e-07
1.49865e-09
-2.20674e-07
1.4008e-09
-2.21644e-07
1.30427e-09
-2.22543e-07
1.20884e-09
-2.23371e-07
1.11424e-09
-2.24128e-07
1.02025e-09
-2.24816e-07
9.26583e-10
-2.25434e-07
8.32987e-10
-2.25981e-07
7.39189e-10
-2.26458e-07
6.44915e-10
-2.26864e-07
5.49889e-10
-2.27199e-07
4.5383e-10
-2.2746e-07
3.56453e-10
-2.27648e-07
2.57476e-10
-2.2776e-07
1.56616e-10
-2.27795e-07
5.35893e-11
-2.27751e-07
-5.18865e-11
-2.27627e-07
-1.60091e-10
-2.2742e-07
-2.71296e-10
-2.27127e-07
-3.85768e-10
-2.26746e-07
-5.03763e-10
-2.26274e-07
-6.25533e-10
-2.25709e-07
-7.51322e-10
-2.25047e-07
-8.81361e-10
-2.24284e-07
-1.01586e-09
-2.23418e-07
-1.15503e-09
-2.22445e-07
-1.29903e-09
-2.2136e-07
-1.44804e-09
-2.20161e-07
-1.60218e-09
-2.18844e-07
-1.76158e-09
-2.17404e-07
-1.92632e-09
-2.15837e-07
-2.09645e-09
-2.14141e-07
-2.27199e-09
-2.12309e-07
-2.45292e-09
-2.1034e-07
-2.63918e-09
-2.08228e-07
-2.83069e-09
-2.05971e-07
-3.0273e-09
-2.03564e-07
-3.22881e-09
-2.01004e-07
-3.43498e-09
-1.98289e-07
-3.6455e-09
-1.95414e-07
-3.86002e-09
-1.92378e-07
-4.07811e-09
-1.89178e-07
-4.29929e-09
-1.85813e-07
-4.523e-09
-1.8228e-07
-4.74862e-09
-1.7858e-07
-4.97545e-09
-1.74712e-07
-5.20271e-09
-1.70677e-07
-5.42956e-09
-1.66475e-07
-5.65507e-09
-1.62108e-07
-5.87822e-09
-1.57579e-07
-6.09793e-09
-1.52891e-07
-6.31304e-09
-1.4805e-07
-6.52228e-09
-1.43059e-07
-6.72434e-09
-1.37926e-07
-6.91781e-09
-1.32658e-07
-7.10122e-09
-1.27264e-07
-7.27301e-09
-1.21753e-07
-7.43156e-09
-1.16137e-07
-7.57521e-09
-1.10428e-07
-7.7022e-09
-1.0464e-07
-7.81077e-09
-9.8787e-08
-7.89907e-09
-9.28864e-08
-7.96524e-09
-8.69556e-08
-8.00741e-09
-8.10137e-08
-8.02366e-09
-7.50814e-08
-8.01208e-09
-6.91804e-08
-7.97079e-09
-6.33341e-08
-7.8979e-09
-5.75671e-08
-7.79159e-09
-5.19053e-08
-7.6501e-09
-4.63757e-08
-7.47172e-09
-4.10066e-08
-7.25488e-09
-3.58272e-08
-6.99814e-09
-3.08675e-08
-6.70024e-09
-2.61583e-08
-6.36018e-09
-2.17307e-08
-5.97723e-09
-1.76161e-08
-5.55109e-09
-1.38454e-08
-5.08201e-09
-1.04486e-08
-4.57097e-09
-7.45415e-09
-4.01994e-09
-4.88761e-09
-3.43235e-09
-2.77023e-09
-2.81365e-09
-1.11674e-09
-2.17233e-09
6.79746e-11
-1.52136e-09
7.93527e-10
-8.80519e-10
1.09097e-09
-2.7997e-10
1.02272e-09
2.34375e-10
6.95331e-10
5.93395e-10
2.73122e-10
6.95311e-10
4.03885e-10
2.45864e-10
-6.05513e-10
5.6359e-10
-9.51424e-10
6.97944e-10
-6.94971e-10
4.74997e-10
-3.46654e-11
-2.24948e-10
8.85316e-10
-1.47778e-09
1.95948e-09
-3.32536e-09
3.11253e-09
-5.78427e-09
4.29181e-09
-8.85251e-09
5.46085e-09
-1.25147e-08
6.59455e-09
-1.67462e-08
7.67584e-09
-2.15156e-08
8.69337e-09
-2.67872e-08
9.63983e-09
-3.25226e-08
1.05109e-08
-3.86819e-08
1.13044e-08
-4.52243e-08
1.20197e-08
-5.21093e-08
1.26574e-08
-5.92967e-08
1.3219e-08
-6.67475e-08
1.37066e-08
-7.44238e-08
1.41228e-08
-8.22889e-08
1.44705e-08
-9.03082e-08
1.4753e-08
-9.84483e-08
1.49737e-08
-1.06678e-07
1.5136e-08
-1.14968e-07
1.52436e-08
-1.2329e-07
1.53e-08
-1.3162e-07
1.53088e-08
-1.39932e-07
1.52735e-08
-1.48205e-07
1.51976e-08
-1.56418e-07
1.50845e-08
-1.64554e-07
1.49375e-08
-1.72596e-07
1.47598e-08
-1.80527e-07
1.45543e-08
-1.88336e-07
1.43241e-08
-1.96009e-07
1.4072e-08
-2.03536e-07
1.38005e-08
-2.10908e-07
1.35122e-08
-2.18117e-07
1.32096e-08
-2.25156e-07
1.28947e-08
-2.32019e-07
1.25697e-08
-2.38702e-07
1.22366e-08
-2.45202e-07
1.1897e-08
-2.51515e-07
1.15528e-08
-2.57639e-07
1.12054e-08
-2.63575e-07
1.08563e-08
-2.6932e-07
1.05066e-08
-2.74876e-07
1.01576e-08
-2.80243e-07
9.81034e-09
-2.85422e-07
9.46566e-09
-2.90416e-07
9.12441e-09
-2.95226e-07
8.78732e-09
-2.99855e-07
8.45499e-09
-3.04306e-07
8.12795e-09
-3.08582e-07
7.80664e-09
-3.12685e-07
7.49141e-09
-3.1662e-07
7.18253e-09
-3.20389e-07
6.88021e-09
-3.23997e-07
6.58458e-09
-3.27447e-07
6.2957e-09
-3.30742e-07
6.01359e-09
-3.33886e-07
5.73819e-09
-3.36883e-07
5.4694e-09
-3.39737e-07
5.20706e-09
-3.4245e-07
4.95098e-09
-3.45025e-07
4.70091e-09
-3.47466e-07
4.45657e-09
-3.49776e-07
4.21763e-09
-3.51958e-07
3.98375e-09
-3.54013e-07
3.75454e-09
-3.55945e-07
3.52958e-09
-3.57754e-07
3.30843e-09
-3.59444e-07
3.09063e-09
-3.61016e-07
2.87568e-09
-3.6247e-07
2.66307e-09
-3.63808e-07
2.45227e-09
-3.6503e-07
2.24274e-09
-3.66138e-07
2.03391e-09
-3.6713e-07
1.82521e-09
-3.68007e-07
1.61605e-09
-3.68768e-07
1.40583e-09
-3.69412e-07
1.19396e-09
-3.69938e-07
9.79816e-10
-3.70344e-07
7.62791e-10
-3.70629e-07
5.42266e-10
-3.7079e-07
3.17626e-10
-3.70825e-07
8.8258e-11
-3.7073e-07
-1.46445e-10
-3.70503e-07
-3.87083e-10
-3.7014e-07
-6.34245e-10
-3.69637e-07
-8.88509e-10
-3.68991e-07
-1.15043e-09
-3.68196e-07
-1.42056e-09
-3.67248e-07
-1.69941e-09
-3.66141e-07
-1.98747e-09
-3.64872e-07
-2.28519e-09
-3.63434e-07
-2.59301e-09
-3.61822e-07
-2.9113e-09
-3.60029e-07
-3.2404e-09
-3.58051e-07
-3.5806e-09
-3.55881e-07
-3.93213e-09
-3.53512e-07
-4.29515e-09
-3.50938e-07
-4.66978e-09
-3.48154e-07
-5.05604e-09
-3.45153e-07
-5.45387e-09
-3.41929e-07
-5.86315e-09
-3.38476e-07
-6.28362e-09
-3.34789e-07
-6.71498e-09
-3.30861e-07
-7.15677e-09
-3.26687e-07
-7.60844e-09
-3.22264e-07
-8.06933e-09
-3.17585e-07
-8.53861e-09
-3.12648e-07
-9.01537e-09
-3.07448e-07
-9.49852e-09
-3.01985e-07
-9.98684e-09
-2.96254e-07
-1.0479e-08
-2.90256e-07
-1.09733e-08
-2.83991e-07
-1.14683e-08
-2.77458e-07
-1.19619e-08
-2.70661e-07
-1.24522e-08
-2.63603e-07
-1.2937e-08
-2.56287e-07
-1.34139e-08
-2.48719e-07
-1.38803e-08
-2.40908e-07
-1.43336e-08
-2.32862e-07
-1.47708e-08
-2.2459e-07
-1.51889e-08
-2.16107e-07
-1.55848e-08
-2.07425e-07
-1.5955e-08
-1.9856e-07
-1.62961e-08
-1.89531e-07
-1.66044e-08
-1.80357e-07
-1.68763e-08
-1.7106e-07
-1.71078e-08
-1.61664e-07
-1.72951e-08
-1.52195e-07
-1.74342e-08
-1.42681e-07
-1.7521e-08
-1.33153e-07
-1.75516e-08
-1.23644e-07
-1.75218e-08
-1.14187e-07
-1.74277e-08
-1.04819e-07
-1.72654e-08
-9.55797e-08
-1.70311e-08
-8.65088e-08
-1.6721e-08
-7.76486e-08
-1.63319e-08
-6.9043e-08
-1.58605e-08
-6.0737e-08
-1.53041e-08
-5.2777e-08
-1.46603e-08
-4.52098e-08
-1.39274e-08
-3.80826e-08
-1.31044e-08
-3.14423e-08
-1.21914e-08
-2.53347e-08
-1.11896e-08
-1.98036e-08
-1.01021e-08
-1.48895e-08
-8.93406e-09
-1.06277e-08
-7.69413e-09
-7.04618e-09
-6.39513e-09
-4.16241e-09
-5.05611e-09
-1.97888e-09
-3.70489e-09
-4.77567e-10
-2.38183e-09
3.87754e-10
-1.14528e-09
7.01218e-10
-7.90774e-11
5.961e-10
6.98518e-10
2.66908e-10
1.0245e-09
6.70794e-10
1.63808e-10
-7.69319e-10
2.64851e-10
-1.05249e-09
4.43929e-11
-4.74515e-10
-6.77944e-10
6.87663e-10
-2.02891e-09
2.23628e-09
-4.09174e-09
4.02231e-09
-6.91452e-09
5.93532e-09
-1.05178e-08
7.89509e-09
-1.49008e-08
9.84389e-09
-2.00468e-08
1.17406e-08
-2.59271e-08
1.35561e-08
-3.25041e-08
1.52704e-08
-3.97345e-08
1.68702e-08
-4.75706e-08
1.8347e-08
-5.59624e-08
1.96961e-08
-6.48582e-08
2.09156e-08
-7.42063e-08
2.20055e-08
-8.3955e-08
2.29678e-08
-9.40537e-08
2.38053e-08
-1.04453e-07
2.45221e-08
-1.15105e-07
2.51227e-08
-1.25964e-07
2.56123e-08
-1.36987e-07
2.59963e-08
-1.48132e-07
2.62805e-08
-1.59359e-07
2.64708e-08
-1.70632e-07
2.65732e-08
-1.81917e-07
2.65935e-08
-1.93181e-07
2.65379e-08
-2.04396e-07
2.64121e-08
-2.15533e-07
2.62218e-08
-2.26568e-07
2.59727e-08
-2.37479e-07
2.56702e-08
-2.48244e-07
2.53195e-08
-2.58845e-07
2.49256e-08
-2.69267e-07
2.44933e-08
-2.79493e-07
2.40272e-08
-2.89513e-07
2.35316e-08
-2.99313e-07
2.30105e-08
-3.08887e-07
2.24679e-08
-3.18224e-07
2.19073e-08
-3.2732e-07
2.13321e-08
-3.36168e-07
2.07454e-08
-3.44765e-07
2.01501e-08
-3.53109e-07
1.95489e-08
-3.61197e-07
1.89442e-08
-3.69028e-07
1.83383e-08
-3.76604e-07
1.7733e-08
-3.83924e-07
1.71304e-08
-3.9099e-07
1.65318e-08
-3.97805e-07
1.59389e-08
-4.0437e-07
1.53529e-08
-4.1069e-07
1.47748e-08
-4.16768e-07
1.42056e-08
-4.22607e-07
1.3646e-08
-4.28212e-07
1.30967e-08
-4.33588e-07
1.25581e-08
-4.38738e-07
1.20307e-08
-4.43668e-07
1.15147e-08
-4.48383e-07
1.10101e-08
-4.52886e-07
1.05171e-08
-4.57184e-07
1.00356e-08
-4.6128e-07
9.56529e-09
-4.65179e-07
9.10606e-09
-4.68885e-07
8.65753e-09
-4.72404e-07
8.21928e-09
-4.75738e-07
7.79085e-09
-4.78892e-07
7.37168e-09
-4.81869e-07
6.96116e-09
-4.84673e-07
6.55865e-09
-4.87307e-07
6.16342e-09
-4.89774e-07
5.77471e-09
-4.92075e-07
5.39173e-09
-4.94213e-07
5.01362e-09
-4.96189e-07
4.63952e-09
-4.98005e-07
4.2685e-09
-4.99662e-07
3.89963e-09
-5.0116e-07
3.53194e-09
-5.02499e-07
3.16444e-09
-5.03679e-07
2.79613e-09
-5.047e-07
2.42596e-09
-5.05559e-07
2.05291e-09
-5.06255e-07
1.67592e-09
-5.06786e-07
1.29394e-09
-5.07149e-07
9.05904e-10
-5.07343e-07
5.10764e-10
-5.07362e-07
1.07465e-10
-5.07203e-07
-3.05039e-10
-5.06863e-07
-7.27775e-10
-5.06335e-07
-1.16175e-09
-5.05616e-07
-1.60796e-09
-5.04699e-07
-2.06736e-09
-5.03578e-07
-2.54087e-09
-5.02248e-07
-3.02936e-09
-5.00702e-07
-3.53368e-09
-4.98933e-07
-4.05459e-09
-4.96933e-07
-4.59282e-09
-4.94695e-07
-5.149e-09
-4.92212e-07
-5.72371e-09
-4.89475e-07
-6.31742e-09
-4.86477e-07
-6.93051e-09
-4.83209e-07
-7.56324e-09
-4.79663e-07
-8.21578e-09
-4.75831e-07
-8.88815e-09
-4.71704e-07
-9.58024e-09
-4.67276e-07
-1.02918e-08
-4.62537e-07
-1.10224e-08
-4.5748e-07
-1.17714e-08
-4.52099e-07
-1.2538e-08
-4.46386e-07
-1.33214e-08
-4.40335e-07
-1.41202e-08
-4.33941e-07
-1.49331e-08
-4.27198e-07
-1.57584e-08
-4.20102e-07
-1.65943e-08
-4.1265e-07
-1.74386e-08
-4.0484e-07
-1.82889e-08
-3.96671e-07
-1.91427e-08
-3.88142e-07
-1.99968e-08
-3.79256e-07
-2.08481e-08
-3.70015e-07
-2.16932e-08
-3.60424e-07
-2.25281e-08
-3.50489e-07
-2.33488e-08
-3.40219e-07
-2.41509e-08
-3.29622e-07
-2.49298e-08
-3.18713e-07
-2.56805e-08
-3.07504e-07
-2.63977e-08
-2.96013e-07
-2.7076e-08
-2.84258e-07
-2.77097e-08
-2.72261e-07
-2.82927e-08
-2.60047e-07
-2.88189e-08
-2.47641e-07
-2.92819e-08
-2.35074e-07
-2.96751e-08
-2.22377e-07
-2.99921e-08
-2.09585e-07
-3.02258e-08
-1.96737e-07
-3.03696e-08
-1.83872e-07
-3.04167e-08
-1.71033e-07
-3.03602e-08
-1.58268e-07
-3.01935e-08
-1.45623e-07
-2.99101e-08
-1.3315e-07
-2.95037e-08
-1.20903e-07
-2.89682e-08
-1.08937e-07
-2.82983e-08
-9.73083e-08
-2.7489e-08
-8.60765e-08
-2.65358e-08
-7.53014e-08
-2.54354e-08
-6.50433e-08
-2.41855e-08
-5.53625e-08
-2.27852e-08
-4.63185e-08
-2.12354e-08
-3.79689e-08
-1.95392e-08
-3.03679e-08
-1.7703e-08
-2.35651e-08
-1.57369e-08
-1.76026e-08
-1.36566e-08
-1.2513e-08
-1.14847e-08
-8.31524e-09
-9.25384e-09
-5.01047e-09
-7.00967e-09
-2.57605e-09
-4.81626e-09
-9.58692e-10
-2.76263e-09
-6.59994e-11
-9.71771e-10
2.42978e-10
3.89545e-10
1.69008e-10
1.09847e-09
8.39807e-10
3.77742e-11
-8.07126e-10
-1.74104e-10
-8.40621e-10
-8.70457e-10
2.21839e-10
-2.22137e-09
2.03858e-09
-4.34862e-09
4.36354e-09
-7.33376e-09
7.00745e-09
-1.12247e-08
9.8263e-09
-1.60421e-08
1.27124e-08
-2.17843e-08
1.55861e-08
-2.84327e-08
1.83889e-08
-3.59549e-08
2.10783e-08
-4.43088e-08
2.36243e-08
-5.34447e-08
2.60061e-08
-6.33077e-08
2.821e-08
-7.38396e-08
3.0228e-08
-8.49801e-08
3.2056e-08
-9.6668e-08
3.36934e-08
-1.08842e-07
3.51418e-08
-1.21442e-07
3.64052e-08
-1.34408e-07
3.74886e-08
-1.47684e-07
3.83984e-08
-1.61214e-07
3.91419e-08
-1.74944e-07
3.97269e-08
-1.88826e-07
4.01617e-08
-2.0281e-07
4.04548e-08
-2.16851e-07
4.0615e-08
-2.30909e-07
4.06511e-08
-2.44943e-07
4.0572e-08
-2.58917e-07
4.03863e-08
-2.72798e-07
4.01025e-08
-2.86554e-07
3.97291e-08
-3.00158e-07
3.92742e-08
-3.13584e-07
3.87456e-08
-3.2681e-07
3.81508e-08
-3.39814e-07
3.74972e-08
-3.52578e-07
3.67915e-08
-3.65087e-07
3.60404e-08
-3.77326e-07
3.525e-08
-3.89284e-07
3.44262e-08
-4.00952e-07
3.35744e-08
-4.12319e-07
3.26998e-08
-4.23381e-07
3.18072e-08
-4.34132e-07
3.09009e-08
-4.44568e-07
2.99849e-08
-4.54687e-07
2.90632e-08
-4.64487e-07
2.81389e-08
-4.7397e-07
2.72152e-08
-4.83134e-07
2.6295e-08
-4.91983e-07
2.53806e-08
-5.00519e-07
2.44743e-08
-5.08744e-07
2.35781e-08
-5.16662e-07
2.26935e-08
-5.24279e-07
2.18221e-08
-5.31598e-07
2.0965e-08
-5.38624e-07
2.01232e-08
-5.45364e-07
1.92975e-08
-5.51822e-07
1.84884e-08
-5.58003e-07
1.76964e-08
-5.63915e-07
1.69217e-08
-5.69562e-07
1.61643e-08
-5.74951e-07
1.54241e-08
-5.80086e-07
1.47009e-08
-5.84975e-07
1.39944e-08
-5.89621e-07
1.33039e-08
-5.94031e-07
1.2629e-08
-5.98209e-07
1.19689e-08
-6.0216e-07
1.13227e-08
-6.05888e-07
1.06896e-08
-6.09398e-07
1.00686e-08
-6.12693e-07
9.45856e-09
-6.15777e-07
8.85837e-09
-6.18652e-07
8.2668e-09
-6.21321e-07
7.68259e-09
-6.23786e-07
7.1044e-09
-6.26048e-07
6.53085e-09
-6.28109e-07
5.96052e-09
-6.29969e-07
5.39194e-09
-6.31628e-07
4.8236e-09
-6.33086e-07
4.25399e-09
-6.34342e-07
3.68154e-09
-6.35394e-07
3.10469e-09
-6.3624e-07
2.52183e-09
-6.36877e-07
1.93138e-09
-6.37303e-07
1.33173e-09
-6.37513e-07
7.21278e-10
-6.37504e-07
9.84387e-11
-6.37271e-07
-5.38364e-10
-6.36808e-07
-1.19068e-09
-6.3611e-07
-1.86004e-09
-6.3517e-07
-2.54793e-09
-6.33981e-07
-3.25578e-09
-6.32537e-07
-3.98498e-09
-6.3083e-07
-4.73686e-09
-6.28851e-07
-5.51266e-09
-6.26592e-07
-6.31354e-09
-6.24044e-07
-7.14056e-09
-6.21198e-07
-7.99469e-09
-6.18045e-07
-8.87675e-09
-6.14575e-07
-9.78745e-09
-6.10779e-07
-1.07273e-08
-6.06645e-07
-1.16968e-08
-6.02165e-07
-1.2696e-08
-5.97328e-07
-1.37251e-08
-5.92124e-07
-1.47837e-08
-5.86545e-07
-1.58714e-08
-5.80579e-07
-1.69877e-08
-5.74219e-07
-1.81315e-08
-5.67456e-07
-1.93016e-08
-5.60281e-07
-2.04965e-08
-5.52686e-07
-2.17144e-08
-5.44666e-07
-2.29531e-08
-5.36215e-07
-2.42101e-08
-5.27326e-07
-2.54825e-08
-5.17998e-07
-2.6767e-08
-5.08227e-07
-2.80601e-08
-4.98012e-07
-2.93575e-08
-4.87354e-07
-3.06549e-08
-4.76255e-07
-3.19474e-08
-4.64718e-07
-3.32295e-08
-4.52751e-07
-3.44956e-08
-4.4036e-07
-3.57394e-08
-4.27557e-07
-3.69543e-08
-4.14353e-07
-3.81333e-08
-4.00765e-07
-3.92688e-08
-3.8681e-07
-4.03529e-08
-3.72509e-07
-4.13773e-08
-3.57885e-07
-4.23335e-08
-3.42965e-07
-4.32123e-08
-3.27779e-07
-4.40046e-08
-3.12361e-07
-4.47007e-08
-2.96745e-07
-4.52909e-08
-2.80972e-07
-4.57652e-08
-2.65084e-07
-4.61135e-08
-2.49128e-07
-4.63257e-08
-2.33153e-07
-4.63916e-08
-2.17212e-07
-4.63012e-08
-2.01361e-07
-4.60447e-08
-1.85658e-07
-4.56125e-08
-1.70166e-07
-4.49955e-08
-1.5495e-07
-4.41851e-08
-1.40075e-07
-4.31733e-08
-1.2561e-07
-4.19534e-08
-1.11627e-07
-4.05192e-08
-9.81957e-08
-3.88666e-08
-8.53886e-08
-3.69927e-08
-7.32766e-08
-3.48972e-08
-6.19296e-08
-3.25824e-08
-5.14145e-08
-3.00543e-08
-4.17939e-08
-2.73236e-08
-3.31244e-08
-2.44065e-08
-2.54537e-08
-2.13273e-08
-1.88182e-08
-1.81202e-08
-1.32391e-08
-1.48329e-08
-8.71821e-09
-1.15306e-08
-5.23276e-09
-8.3017e-09
-2.72949e-09
-5.26589e-09
-1.11794e-09
-2.58332e-09
-2.63088e-10
-4.65307e-10
2.32691e-11
8.12108e-10
8.6308e-10
-1.1058e-10
-6.96543e-10
-6.93973e-10
-2.57251e-10
-1.946e-09
1.47387e-09
-4.01451e-09
4.1071e-09
-7.00729e-09
7.35634e-09
-1.09971e-08
1.09973e-08
-1.60265e-08
1.48557e-08
-2.21121e-08
1.8798e-08
-2.92492e-08
2.27233e-08
-3.74158e-08
2.65555e-08
-4.65758e-08
3.02384e-08
-5.66825e-08
3.3731e-08
-6.76809e-08
3.70044e-08
-7.951e-08
4.00391e-08
-9.21047e-08
4.28227e-08
-1.05397e-07
4.53487e-08
-1.19319e-07
4.76151e-08
-1.33801e-07
4.96234e-08
-1.48773e-07
5.13778e-08
-1.64169e-07
5.28847e-08
-1.79923e-07
5.41524e-08
-1.95972e-07
5.51902e-08
-2.12253e-07
5.60084e-08
-2.28709e-07
5.66181e-08
-2.45286e-07
5.70308e-08
-2.61929e-07
5.72585e-08
-2.78591e-07
5.73131e-08
-2.95226e-07
5.72066e-08
-3.1179e-07
5.6951e-08
-3.28246e-07
5.6558e-08
-3.44556e-07
5.60392e-08
-3.60688e-07
5.54059e-08
-3.76611e-07
5.46688e-08
-3.92298e-07
5.38385e-08
-4.07726e-07
5.29251e-08
-4.22873e-07
5.19381e-08
-4.37719e-07
5.08867e-08
-4.52249e-07
4.97796e-08
-4.66448e-07
4.86249e-08
-4.80303e-07
4.74303e-08
-4.93806e-07
4.62029e-08
-5.06949e-07
4.49495e-08
-5.19724e-07
4.36762e-08
-5.32128e-07
4.23888e-08
-5.44157e-07
4.10925e-08
-5.5581e-07
3.9792e-08
-5.67087e-07
3.84919e-08
-5.77988e-07
3.71959e-08
-5.88515e-07
3.59076e-08
-5.98671e-07
3.46302e-08
-6.08459e-07
3.33663e-08
-6.17884e-07
3.21183e-08
-6.2695e-07
3.08883e-08
-6.35663e-07
2.9678e-08
-6.44029e-07
2.84888e-08
-6.52053e-07
2.73219e-08
-6.59742e-07
2.61779e-08
-6.67104e-07
2.50576e-08
-6.74143e-07
2.39612e-08
-6.80868e-07
2.28889e-08
-6.87284e-07
2.18405e-08
-6.93399e-07
2.08157e-08
-6.99218e-07
1.9814e-08
-7.04749e-07
1.88348e-08
-7.09997e-07
1.78771e-08
-7.14968e-07
1.694e-08
-7.19668e-07
1.60224e-08
-7.24102e-07
1.5123e-08
-7.28273e-07
1.42404e-08
-7.32188e-07
1.33731e-08
-7.35849e-07
1.25195e-08
-7.3926e-07
1.1678e-08
-7.42424e-07
1.08466e-08
-7.45344e-07
1.00237e-08
-7.4802e-07
9.20714e-09
-7.50454e-07
8.39508e-09
-7.52648e-07
7.58541e-09
-7.546e-07
6.77606e-09
-7.56311e-07
5.96488e-09
-7.57779e-07
5.1497e-09
-7.59003e-07
4.32832e-09
-7.5998e-07
3.49852e-09
-7.60706e-07
2.65806e-09
-7.61179e-07
1.80472e-09
-7.61394e-07
9.36257e-10
-7.61346e-07
5.04638e-11
-7.6103e-07
-8.54859e-10
-7.60439e-07
-1.78187e-09
-7.59566e-07
-2.7327e-09
-7.58405e-07
-3.7094e-09
-7.56946e-07
-4.71398e-09
-7.55183e-07
-5.74836e-09
-7.53106e-07
-6.81436e-09
-7.50704e-07
-7.91372e-09
-7.4797e-07
-9.04804e-09
-7.44892e-07
-1.02188e-08
-7.41459e-07
-1.14272e-08
-7.37661e-07
-1.26746e-08
-7.33487e-07
-1.39618e-08
-7.28925e-07
-1.52895e-08
-7.23963e-07
-1.66583e-08
-7.18591e-07
-1.80684e-08
-7.12796e-07
-1.95198e-08
-7.06568e-07
-2.10122e-08
-6.99894e-07
-2.2545e-08
-6.92765e-07
-2.41171e-08
-6.85169e-07
-2.57272e-08
-6.77097e-07
-2.73736e-08
-6.6854e-07
-2.90541e-08
-6.59488e-07
-3.07661e-08
-6.49934e-07
-3.25066e-08
-6.39873e-07
-3.42719e-08
-6.29297e-07
-3.60581e-08
-6.18204e-07
-3.78605e-08
-6.0659e-07
-3.96739e-08
-5.94454e-07
-4.14928e-08
-5.81799e-07
-4.33107e-08
-5.68625e-07
-4.51209e-08
-5.54939e-07
-4.69159e-08
-5.40747e-07
-4.86875e-08
-5.26059e-07
-5.04271e-08
-5.10888e-07
-5.21255e-08
-4.95249e-07
-5.37728e-08
-4.79159e-07
-5.53584e-08
-4.6264e-07
-5.68716e-08
-4.45717e-07
-5.83006e-08
-4.28417e-07
-5.96335e-08
-4.10771e-07
-6.08578e-08
-3.92815e-07
-6.19607e-08
-3.74587e-07
-6.29288e-08
-3.5613e-07
-6.37486e-08
-3.37488e-07
-6.44064e-08
-3.18714e-07
-6.48882e-08
-2.99859e-07
-6.51802e-08
-2.80982e-07
-6.52684e-08
-2.62145e-07
-6.51391e-08
-2.4341e-07
-6.4779e-08
-2.24848e-07
-6.41751e-08
-2.06528e-07
-6.33151e-08
-1.88526e-07
-6.21875e-08
-1.70917e-07
-6.0782e-08
-1.53781e-07
-5.90894e-08
-1.37198e-07
-5.71025e-08
-1.21248e-07
-5.4816e-08
-1.06014e-07
-5.2227e-08
-9.1575e-08
-4.9336e-08
-7.80098e-08
-4.61476e-08
-6.53931e-08
-4.2671e-08
-5.37946e-08
-3.8922e-08
-4.32769e-08
-3.49242e-08
-3.3893e-08
-3.07113e-08
-2.56833e-08
-2.63299e-08
-1.86728e-08
-2.18435e-08
-1.28666e-08
-1.73368e-08
-8.24606e-09
-1.29222e-08
-4.76404e-09
-8.74791e-09
-2.33988e-09
-5.00747e-09
-8.54614e-10
-1.95057e-09
-1.45835e-10
1.03329e-10
7.17244e-10
-2.6884e-10
-4.27696e-10
-1.25597e-09
7.29881e-10
-3.11209e-09
3.33e-09
-5.9555e-09
6.95052e-09
-9.87365e-09
1.12745e-08
-1.49252e-08
1.60488e-08
-2.11425e-08
2.1073e-08
-2.85352e-08
2.61907e-08
-3.70929e-08
3.12809e-08
-4.67885e-08
3.62511e-08
-5.75814e-08
4.10313e-08
-6.942e-08
4.55696e-08
-8.22441e-08
4.98286e-08
-9.59873e-08
5.37823e-08
-1.10578e-07
5.74139e-08
-1.25944e-07
6.07139e-08
-1.42007e-07
6.36786e-08
-1.58693e-07
6.6309e-08
-1.75925e-07
6.86097e-08
-1.93628e-07
7.05883e-08
-2.11731e-07
7.22546e-08
-2.30161e-07
7.36203e-08
-2.48851e-07
7.46983e-08
-2.67735e-07
7.55027e-08
-2.86753e-07
7.60482e-08
-3.05844e-07
7.635e-08
-3.24955e-07
7.64236e-08
-3.44032e-07
7.62845e-08
-3.6303e-07
7.59482e-08
-3.81902e-07
7.54301e-08
-4.00608e-07
7.47453e-08
-4.1911e-07
7.39084e-08
-4.37375e-07
7.29337e-08
-4.55372e-07
7.18349e-08
-4.73072e-07
7.06254e-08
-4.90452e-07
6.93177e-08
-5.07489e-07
6.7924e-08
-5.24165e-07
6.64556e-08
-5.40464e-07
6.49234e-08
-5.56371e-07
6.33375e-08
-5.71875e-07
6.17074e-08
-5.86968e-07
6.00419e-08
-6.01641e-07
5.83494e-08
-6.1589e-07
5.66374e-08
-6.2971e-07
5.49128e-08
-6.431e-07
5.31821e-08
-6.56059e-07
5.14511e-08
-6.68588e-07
4.97249e-08
-6.80689e-07
4.80084e-08
-6.92364e-07
4.63056e-08
-7.03618e-07
4.46203e-08
-7.14456e-07
4.29556e-08
-7.24882e-07
4.13142e-08
-7.34902e-07
3.96985e-08
-7.44524e-07
3.81103e-08
-7.53753e-07
3.65513e-08
-7.62597e-07
3.50224e-08
-7.71064e-07
3.35245e-08
-7.79161e-07
3.2058e-08
-7.86895e-07
3.06231e-08
-7.94275e-07
2.92197e-08
-8.01306e-07
2.78474e-08
-8.07998e-07
2.65055e-08
-8.14356e-07
2.51932e-08
-8.20388e-07
2.39093e-08
-8.26101e-07
2.26525e-08
-8.315e-07
2.14214e-08
-8.36591e-07
2.02143e-08
-8.4138e-07
1.90293e-08
-8.45871e-07
1.78645e-08
-8.5007e-07
1.67178e-08
-8.53978e-07
1.55869e-08
-8.57601e-07
1.44695e-08
-8.60941e-07
1.33631e-08
-8.63999e-07
1.22652e-08
-8.66777e-07
1.11732e-08
-8.69276e-07
1.00843e-08
-8.71495e-07
8.99573e-09
-8.73435e-07
7.90474e-09
-8.75094e-07
6.80842e-09
-8.7647e-07
5.70387e-09
-8.77559e-07
4.58816e-09
-8.7836e-07
3.45834e-09
-8.78866e-07
2.31146e-09
-8.79075e-07
1.14458e-09
-8.78979e-07
-4.52215e-11
-8.78573e-07
-1.26084e-09
-8.7785e-07
-2.50513e-09
-8.76802e-07
-3.78088e-09
-8.7542e-07
-5.0908e-09
-8.73697e-07
-6.43751e-09
-8.71621e-07
-7.82356e-09
-8.69184e-07
-9.25132e-09
-8.66375e-07
-1.07231e-08
-8.63182e-07
-1.22409e-08
-8.59594e-07
-1.38067e-08
-8.55599e-07
-1.54222e-08
-8.51185e-07
-1.70889e-08
-8.46339e-07
-1.8808e-08
-8.41048e-07
-2.05804e-08
-8.35299e-07
-2.24067e-08
-8.2908e-07
-2.42874e-08
-8.22378e-07
-2.62222e-08
-8.1518e-07
-2.82108e-08
-8.07472e-07
-3.02522e-08
-7.99244e-07
-3.23452e-08
-7.90484e-07
-3.44878e-08
-7.81179e-07
-3.66778e-08
-7.71321e-07
-3.89122e-08
-7.609e-07
-4.11876e-08
-7.49906e-07
-4.34999e-08
-7.38334e-07
-4.58442e-08
-7.26177e-07
-4.82153e-08
-7.1343e-07
-5.0607e-08
-7.00092e-07
-5.30125e-08
-6.8616e-07
-5.54243e-08
-6.71637e-07
-5.78339e-08
-6.56526e-07
-6.02323e-08
-6.40832e-07
-6.26097e-08
-6.24564e-07
-6.49553e-08
-6.07733e-07
-6.72577e-08
-5.90354e-07
-6.95047e-08
-5.72444e-07
-7.16832e-08
-5.54023e-07
-7.37795e-08
-5.35115e-07
-7.57791e-08
-5.15749e-07
-7.76668e-08
-4.95955e-07
-7.94269e-08
-4.7577e-07
-8.10429e-08
-4.55233e-07
-8.24979e-08
-4.34387e-07
-8.37746e-08
-4.1328e-07
-8.48553e-08
-3.91965e-07
-8.57219e-08
-3.70497e-07
-8.63564e-08
-3.48936e-07
-8.67406e-08
-3.27348e-07
-8.68565e-08
-3.05801e-07
-8.66863e-08
-2.84367e-07
-8.62127e-08
-2.63123e-07
-8.54193e-08
-2.42148e-07
-8.42902e-08
-2.21524e-07
-8.2811e-08
-2.01338e-07
-8.09686e-08
-1.81675e-07
-7.87519e-08
-1.62626e-07
-7.61521e-08
-1.44279e-07
-7.31631e-08
-1.26723e-07
-6.97823e-08
-1.10048e-07
-6.60114e-08
-9.43381e-08
-6.18574e-08
-7.96757e-08
-5.73335e-08
-6.61366e-08
-5.24611e-08
-5.37893e-08
-4.72715e-08
-4.26921e-08
-4.18084e-08
-3.28909e-08
-3.61311e-08
-2.44157e-08
-3.03186e-08
-1.7278e-08
-2.44744e-08
-1.14671e-08
-1.87331e-08
-6.94685e-09
-1.32682e-08
-3.65239e-09
-8.30193e-09
-1.4878e-09
-4.11517e-09
-3.2433e-10
-1.06013e-09
3.92911e-10
-4.29738e-10
2.04256e-12
-1.83524e-09
2.1354e-09
-4.32112e-09
5.81588e-09
-7.97248e-09
1.06019e-08
-1.28523e-08
1.61543e-08
-1.90013e-08
2.21977e-08
-2.64383e-08
2.85101e-08
-3.51629e-08
3.49152e-08
-4.51565e-08
4.12746e-08
-5.63856e-08
4.74802e-08
-6.88037e-08
5.34494e-08
-8.23537e-08
5.91196e-08
-9.69702e-08
6.44451e-08
-1.12581e-07
6.93933e-08
-1.2911e-07
7.39429e-08
-1.46477e-07
7.80811e-08
-1.64601e-07
8.18024e-08
-1.83399e-07
8.5107e-08
-2.02789e-07
8.79999e-08
-2.2269e-07
9.04896e-08
-2.43024e-07
9.25878e-08
-2.63712e-07
9.43084e-08
-2.84681e-07
9.56671e-08
-3.05859e-07
9.6681e-08
-3.27179e-07
9.73682e-08
-3.48576e-07
9.77474e-08
-3.69991e-07
9.78379e-08
-3.91365e-07
9.7659e-08
-4.12647e-07
9.723e-08
-4.33787e-07
9.65702e-08
-4.5474e-07
9.56984e-08
-4.75465e-07
9.46331e-08
-4.95923e-07
9.33923e-08
-5.16082e-07
9.19933e-08
-5.35909e-07
9.04528e-08
-5.55378e-07
8.87869e-08
-5.74465e-07
8.70108e-08
-5.93148e-07
8.5139e-08
-6.1141e-07
8.31852e-08
-6.29235e-07
8.11623e-08
-6.4661e-07
7.90824e-08
-6.63525e-07
7.69568e-08
-6.79971e-07
7.47959e-08
-6.95943e-07
7.26094e-08
-7.11437e-07
7.04062e-08
-7.26449e-07
6.81945e-08
-7.4098e-07
6.59816e-08