/*--------------------------------*- C++ -*----------------------------------*\
  =========                 |
  \\      /  F ield         | OpenFOAM: The Open Source CFD Toolbox
   \\    /   O peration     | Website:  https://openfoam.org
    \\  /    A nd           | Version:  7
     \\/     M anipulation  |
\*---------------------------------------------------------------------------*/
FoamFile
{
    version     2.0;
    format      ascii;
    class       surfaceScalarField;
    location    "0.2875";
    object      phi;
}
// * * * * * * * * * * * * * * * * * * * * * * * * * * * * * * * * * * * * * //

dimensions      [0 3 -1 0 0 0 0];

internalField   nonuniform List<scalar> 
101920
(
-5.42758e-14
6.90171e-14
2.10614e-13
-2.69616e-13
5.3579e-13
-3.2452e-13
1.01115e-12
-4.77372e-13
1.58826e-12
-5.76353e-13
2.23528e-12
-6.46753e-13
2.92881e-12
-6.92549e-13
3.64636e-12
-7.16628e-13
4.36964e-12
-7.23137e-13
5.08303e-12
-7.13587e-13
5.77284e-12
-6.8937e-13
6.42599e-12
-6.52352e-13
7.0313e-12
-6.04505e-13
7.57969e-12
-5.4808e-13
8.06414e-12
-4.84959e-13
8.47922e-12
-4.16375e-13
8.82166e-12
-3.42315e-13
9.08637e-12
-2.64413e-13
9.26991e-12
-1.83823e-13
9.37058e-12
-1.01342e-13
9.38764e-12
-1.82991e-14
9.32174e-12
6.5878e-14
9.17272e-12
1.49752e-13
8.94118e-12
2.3192e-13
8.62788e-12
3.13006e-13
8.23313e-12
3.93078e-13
7.75999e-12
4.71855e-13
7.21179e-12
5.4847e-13
6.59018e-12
6.22547e-13
5.89701e-12
6.94086e-13
5.13451e-12
7.6235e-13
4.30591e-12
8.27305e-13
3.41598e-12
8.89396e-13
2.46888e-12
9.47572e-13
1.46857e-12
1.00112e-12
4.18235e-13
1.0514e-12
-6.794e-13
1.09808e-12
-1.81989e-12
1.13986e-12
-2.99845e-12
1.17775e-12
-4.21129e-12
1.21237e-12
-5.45425e-12
1.24268e-12
-6.72262e-12
1.26872e-12
-8.01223e-12
1.29037e-12
-9.31938e-12
1.30734e-12
-1.064e-11
1.32034e-12
-1.19701e-11
1.32953e-12
-1.33062e-11
1.33496e-12
-1.46445e-11
1.33747e-12
-1.59814e-11
1.33656e-12
-1.73126e-11
1.33096e-12
-1.86334e-11
1.32096e-12
-1.99408e-11
1.30772e-12
-2.12322e-11
1.29153e-12
-2.25044e-11
1.27193e-12
-2.37533e-11
1.24904e-12
-2.49749e-11
1.22247e-12
-2.61657e-11
1.1917e-12
-2.73229e-11
1.15777e-12
-2.84439e-11
1.12166e-12
-2.95274e-11
1.08335e-12
-3.0571e-11
1.04267e-12
-3.15716e-11
9.99563e-13
-3.25263e-11
9.53951e-13
-3.34325e-11
9.05885e-13
-3.4288e-11
8.55799e-13
-3.50908e-11
8.03715e-13
-3.58394e-11
7.49202e-13
-3.65329e-11
6.92818e-13
-3.71695e-11
6.35511e-13
-3.77471e-11
5.77081e-13
-3.82644e-11
5.16953e-13
-3.872e-11
4.55382e-13
-3.91133e-11
3.93136e-13
-3.94442e-11
3.30797e-13
-3.97118e-11
2.68175e-13
-3.9915e-11
2.04523e-13
-4.00534e-11
1.39577e-13
-4.01271e-11
7.38204e-14
-4.01359e-11
7.92624e-15
-4.00797e-11
-5.75972e-14
-3.99583e-11
-1.22386e-13
-3.97721e-11
-1.86617e-13
-3.95214e-11
-2.50569e-13
-3.92069e-11
-3.13949e-13
-3.88289e-11
-3.76732e-13
-3.83888e-11
-4.3922e-13
-3.7888e-11
-5.00995e-13
-3.73274e-11
-5.61409e-13
-3.67085e-11
-6.20045e-13
-3.60329e-11
-6.76646e-13
-3.53017e-11
-7.31443e-13
-3.45161e-11
-7.84888e-13
-3.36781e-11
-8.36846e-13
-3.27904e-11
-8.86823e-13
-3.18549e-11
-9.34993e-13
-3.08736e-11
-9.81588e-13
-2.98484e-11
-1.02613e-12
-2.87814e-11
-1.06804e-12
-2.76755e-11
-1.10682e-12
-2.65331e-11
-1.14256e-12
-2.53567e-11
-1.17596e-12
-2.41497e-11
-1.207e-12
-2.29153e-11
-1.23504e-12
-2.16568e-11
-1.25956e-12
-2.03772e-11
-1.28036e-12
-1.90791e-11
-1.29792e-12
-1.77662e-11
-1.3125e-12
-1.6442e-11
-1.32386e-12
-1.51092e-11
-1.33215e-12
-1.37719e-11
-1.33703e-12
-1.24338e-11
-1.33793e-12
-1.10986e-11
-1.33498e-12
-9.77074e-12
-1.3282e-12
-8.4532e-12
-1.31785e-12
-7.14971e-12
-1.30412e-12
-5.86446e-12
-1.28626e-12
-4.60067e-12
-1.26401e-12
-3.36277e-12
-1.23764e-12
-2.15506e-12
-1.2072e-12
-9.81023e-13
-1.17327e-12
1.55314e-13
-1.13631e-12
1.25024e-12
-1.09574e-12
2.30024e-12
-1.05098e-12
3.3012e-12
-1.00188e-12
4.25009e-12
-9.48857e-13
5.1439e-12
-8.93072e-13
5.97823e-12
-8.34779e-13
6.75004e-12
-7.73e-13
7.45686e-12
-7.07504e-13
8.0947e-12
-6.38507e-13
8.66114e-12
-5.66411e-13
9.15452e-12
-4.92534e-13
9.57182e-12
-4.17422e-13
9.91127e-12
-3.40326e-13
1.01719e-11
-2.61197e-13
1.03513e-11
-1.80351e-13
1.04482e-11
-9.76144e-14
1.0463e-11
-1.39373e-14
1.03955e-11
6.89009e-14
1.0246e-11
1.50371e-13
1.00158e-11
2.30628e-13
9.70587e-12
3.09291e-13
9.31839e-12
3.86029e-13
8.85762e-12
4.60224e-13
8.32799e-12
5.30365e-13
7.73447e-12
5.9488e-13
7.08347e-12
6.52477e-13
6.38267e-12
7.01469e-13
5.64128e-12
7.40487e-13
4.8713e-12
7.68749e-13
4.08705e-12
7.841e-13
3.30381e-12
7.83281e-13
2.54086e-12
7.63179e-13
1.8224e-12
7.1964e-13
1.17485e-12
6.48122e-13
6.28373e-13
5.45596e-13
2.17604e-13
4.09815e-13
-2.31995e-14
2.40138e-13
-7.61352e-14
5.19028e-14
-7.67892e-14
-1.04894e-13
1.69707e-13
3.2442e-13
-6.90734e-13
1.24626e-12
-1.24699e-12
2.50547e-12
-1.73674e-12
4.03201e-12
-2.10336e-12
5.74196e-12
-2.35766e-12
7.56496e-12
-2.51662e-12
9.4435e-12
-2.59513e-12
1.13282e-11
-2.60725e-12
1.31763e-11
-2.56193e-12
1.49508e-11
-2.46488e-12
1.66201e-11
-2.32279e-12
1.81569e-11
-2.1418e-12
1.95382e-11
-1.9281e-12
2.07427e-11
-1.68855e-12
2.17531e-11
-1.42694e-12
2.25561e-11
-1.14654e-12
2.31425e-11
-8.50907e-13
2.35043e-11
-5.44249e-13
2.36346e-11
-2.31333e-13
2.35303e-11
8.57248e-14
2.31898e-11
4.05072e-13
2.26128e-11
7.24788e-13
2.18029e-11
1.0427e-12
2.07624e-11
1.35556e-12
1.94945e-11
1.66241e-12
1.80039e-11
1.96238e-12
1.62964e-11
2.25396e-12
1.43802e-11
2.53727e-12
1.22633e-11
2.811e-12
9.95395e-12
3.07264e-12
7.46053e-12
3.32126e-12
4.79219e-12
3.55647e-12
1.9594e-12
3.77787e-12
-1.02613e-12
3.98501e-12
-4.15362e-12
4.178e-12
-7.41207e-12
4.35664e-12
-1.07903e-11
4.51944e-12
-1.42773e-11
4.66568e-12
-1.78613e-11
4.79608e-12
-2.15299e-11
4.9107e-12
-2.52715e-11
5.0094e-12
-2.90742e-11
5.09227e-12
-3.2926e-11
5.15943e-12
-3.68156e-11
5.2112e-12
-4.07316e-11
5.24717e-12
-4.46628e-11
5.26735e-12
-4.85974e-11
5.27277e-12
-5.25243e-11
5.26368e-12
-5.64336e-11
5.23962e-12
-6.0314e-11
5.20093e-12
-6.41549e-11
5.1484e-12
-6.7946e-11
5.0824e-12
-7.1677e-11
5.00275e-12
-7.53385e-11
4.90969e-12
-7.89212e-11
4.80356e-12
-8.24158e-11
4.68499e-12
-8.5814e-11
4.55516e-12
-8.91074e-11
4.41489e-12
-9.2288e-11
4.26432e-12
-9.53482e-11
4.10359e-12
-9.82804e-11
3.93268e-12
-1.01078e-10
3.75179e-12
-1.03735e-10
3.56181e-12
-1.06245e-10
3.36409e-12
-1.08601e-10
3.15949e-12
-1.10799e-10
2.94771e-12
-1.12834e-10
2.72865e-12
-1.147e-10
2.50327e-12
-1.16395e-10
2.27231e-12
-1.17915e-10
2.03622e-12
-1.19255e-10
1.79573e-12
-1.20413e-10
1.55136e-12
-1.21387e-10
1.30369e-12
-1.22175e-10
1.05378e-12
-1.22775e-10
8.02209e-13
-1.23185e-10
5.48884e-13
-1.23404e-10
2.93918e-13
-1.23433e-10
3.78918e-14
-1.2327e-10
-2.18436e-13
-1.22918e-10
-4.74212e-13
-1.22377e-10
-7.28801e-13
-1.21647e-10
-9.81809e-13
-1.2073e-10
-1.23224e-12
-1.19629e-10
-1.4791e-12
-1.18345e-10
-1.72248e-12
-1.16883e-10
-1.96217e-12
-1.15245e-10
-2.19759e-12
-1.13434e-10
-2.42842e-12
-1.11457e-10
-2.65392e-12
-1.09317e-10
-2.87306e-12
-1.07018e-10
-3.08534e-12
-1.04566e-10
-3.29049e-12
-1.01967e-10
-3.48786e-12
-9.92253e-11
-3.67703e-12
-9.63479e-11
-3.85822e-12
-9.33415e-11
-4.03139e-12
-9.02131e-11
-4.19574e-12
-8.69704e-11
-4.35008e-12
-8.36209e-11
-4.49328e-12
-8.01721e-11
-4.62526e-12
-7.66328e-11
-4.74634e-12
-7.30113e-11
-4.8561e-12
-6.93166e-11
-4.95394e-12
-6.55586e-11
-5.03929e-12
-6.1746e-11
-5.11173e-12
-5.78883e-11
-5.17127e-12
-5.39957e-11
-5.21754e-12
-5.00775e-11
-5.25028e-12
-4.6145e-11
-5.26951e-12
-4.22088e-11
-5.2744e-12
-3.82786e-11
-5.26451e-12
-3.43659e-11
-5.24005e-12
-3.04814e-11
-5.20112e-12
-2.6636e-11
-5.14812e-12
-2.28416e-11
-5.08069e-12
-1.91087e-11
-4.99777e-12
-1.54483e-11
-4.89924e-12
-1.18721e-11
-4.78531e-12
-8.39092e-12
-4.65603e-12
-5.01549e-12
-4.51221e-12
-1.75681e-12
-4.35439e-12
1.37452e-12
-4.18228e-12
4.36729e-12
-3.99576e-12
7.21141e-12
-3.79477e-12
9.89846e-12
-3.5799e-12
1.24182e-11
-3.35297e-12
1.47603e-11
-3.11463e-12
1.69167e-11
-2.86435e-12
1.88789e-11
-2.60241e-12
2.06389e-11
-2.32942e-12
2.21911e-11
-2.04632e-12
2.35287e-11
-1.75505e-12
2.46458e-11
-1.45688e-12
2.55386e-11
-1.15235e-12
2.62035e-11
-8.43148e-13
2.66369e-11
-5.3096e-13
2.68378e-11
-2.16532e-13
2.68071e-11
9.81952e-14
2.65464e-11
4.10378e-13
2.606e-11
7.18006e-13
2.53532e-11
1.01857e-12
2.44326e-11
1.30857e-12
2.33078e-11
1.58522e-12
2.19915e-11
1.84584e-12
2.04994e-11
2.08607e-12
1.88507e-11
2.30096e-12
1.70679e-11
2.48529e-12
1.51773e-11
2.63248e-12
1.321e-11
2.73604e-12
1.12039e-11
2.78961e-12
9.20192e-12
2.78465e-12
7.2523e-12
2.71126e-12
5.41193e-12
2.55922e-12
3.74365e-12
2.31755e-12
2.31388e-12
1.97685e-12
1.18927e-12
1.535e-12
4.26547e-13
1.00317e-12
5.22863e-14
4.26607e-13
-2.51464e-14
2.09025e-13
-3.8805e-14
8.91048e-13
-1.37335e-12
2.20747e-12
-2.56151e-12
4.03534e-12
-3.56414e-12
6.26055e-12
-4.32727e-12
8.76188e-12
-4.85772e-12
1.1433e-11
-5.18759e-12
1.41849e-11
-5.34782e-12
1.69435e-11
-5.36495e-12
1.96428e-11
-5.25955e-12
2.22251e-11
-5.04653e-12
2.4641e-11
-4.73885e-12
2.68474e-11
-4.34895e-12
2.8807e-11
-3.88912e-12
3.04897e-11
-3.37058e-12
3.18678e-11
-2.8044e-12
3.29186e-11
-2.19853e-12
3.36267e-11
-1.55998e-12
3.39788e-11
-8.97622e-13
3.39666e-11
-2.18755e-13
3.35834e-11
4.69824e-13
3.28258e-11
1.16249e-12
3.16935e-11
1.85597e-12
3.01884e-11
2.54558e-12
2.8316e-11
3.22688e-12
2.60833e-11
3.89629e-12
2.34971e-11
4.54962e-12
2.05668e-11
5.18462e-12
1.73034e-11
5.7998e-12
1.37195e-11
6.39312e-12
9.82985e-12
6.96206e-12
5.64885e-12
7.50345e-12
1.19091e-12
8.01537e-12
-3.52778e-12
8.49731e-12
-8.49056e-12
8.94795e-12
-1.36804e-11
9.36655e-12
-1.90783e-11
9.75347e-12
-2.46658e-11
1.01069e-11
-3.04257e-11
1.04255e-11
-3.63388e-11
1.07096e-11
-4.23859e-11
1.09588e-11
-4.85492e-11
1.11726e-11
-5.48092e-11
1.13515e-11
-6.11466e-11
1.14959e-11
-6.75432e-11
1.16062e-11
-7.39796e-11
1.16828e-11
-8.0438e-11
1.17255e-11
-8.69001e-11
1.17348e-11
-9.33473e-11
1.1711e-11
-9.97622e-11
1.16548e-11
-1.06128e-10
1.15667e-11
-1.12428e-10
1.14479e-11
-1.18645e-10
1.12994e-11
-1.24762e-10
1.11213e-11
-1.30765e-10
1.09134e-11
-1.36638e-10
1.0677e-11
-1.42366e-10
1.04136e-11
-1.47936e-10
1.01247e-11
-1.53334e-10
9.81185e-12
-1.58547e-10
9.47618e-12
-1.63563e-10
9.1183e-12
-1.68369e-10
8.73848e-12
-1.72954e-10
8.33743e-12
-1.77308e-10
7.91637e-12
-1.8142e-10
7.47675e-12
-1.85282e-10
7.02053e-12
-1.88885e-10
6.54928e-12
-1.92221e-10
6.06355e-12
-1.95281e-10
5.56397e-12
-1.98061e-10
5.05169e-12
-2.00553e-10
4.52822e-12
-2.02753e-10
3.99523e-12
-2.04654e-10
3.45375e-12
-2.06253e-10
2.90443e-12
-2.07547e-10
2.34866e-12
-2.08533e-10
1.7881e-12
-2.0921e-10
1.22386e-12
-2.09574e-10
6.57212e-13
-2.09627e-10
8.95692e-14
-2.09368e-10
-4.78069e-13
-2.08797e-10
-1.04471e-12
-2.07916e-10
-1.60896e-12
-2.06727e-10
-2.16978e-12
-2.05233e-10
-2.72609e-12
-2.03437e-10
-3.27599e-12
-2.01343e-10
-3.81799e-12
-1.98955e-10
-4.3509e-12
-1.9628e-10
-4.87345e-12
-1.93323e-10
-5.3851e-12
-1.90091e-10
-5.88508e-12
-1.8659e-10
-6.37196e-12
-1.8283e-10
-6.8445e-12
-1.78819e-10
-7.30175e-12
-1.74565e-10
-7.74249e-12
-1.70078e-10
-8.16527e-12
-1.65368e-10
-8.56918e-12
-1.60447e-10
-8.95373e-12
-1.55324e-10
-9.31796e-12
-1.50013e-10
-9.66067e-12
-1.44527e-10
-9.98045e-12
-1.38877e-10
-1.0276e-11
-1.33078e-10
-1.05466e-11
-1.27143e-10
-1.07916e-11
-1.21086e-10
-1.101e-11
-1.14923e-10
-1.12015e-11
-1.0867e-10
-1.13651e-11
-1.0234e-10
-1.15002e-11
-9.59518e-11
-1.16062e-11
-8.95198e-11
-1.16822e-11
-8.30615e-11
-1.17276e-11
-7.65945e-11
-1.1742e-11
-7.01351e-11
-1.17244e-11
-6.37012e-11
-1.16745e-11
-5.73105e-11
-1.15925e-11
-5.09806e-11
-1.14779e-11
-4.47297e-11
-1.13309e-11
-3.85757e-11
-1.1151e-11
-3.25366e-11
-1.09379e-11
-2.66303e-11
-1.06919e-11
-2.08748e-11
-1.0413e-11
-1.52876e-11
-1.0101e-11
-9.88576e-12
-9.75684e-12
-4.68637e-12
-9.38138e-12
2.9308e-13
-8.97517e-12
5.03586e-12
-8.53886e-12
9.52662e-12
-8.07276e-12
1.37504e-11
-7.57803e-12
1.76922e-11
-7.05681e-12
2.13381e-11
-6.51017e-12
2.46748e-11
-5.93902e-12
2.76904e-11
-5.34539e-12
3.03738e-11
-4.7311e-12
3.27153e-11
-4.098e-12
3.47063e-11
-3.44886e-12
3.63399e-11
-2.7863e-12
3.76109e-11
-2.11329e-12
3.85159e-11
-1.43414e-12
3.90532e-11
-7.52779e-13
3.92228e-11
-7.22301e-14
3.90287e-11
6.03315e-13
3.84771e-11
1.26858e-12
3.75771e-11
1.91828e-12
3.63412e-11
2.5458e-12
3.47858e-11
3.1432e-12
3.29297e-11
3.70322e-12
3.07975e-11
4.21809e-12
2.84198e-11
4.67797e-12
2.58319e-11
5.07219e-12
2.30751e-11
5.38895e-12
2.01977e-11
5.61435e-12
1.72551e-11
5.73332e-12
1.43106e-11
5.72991e-12
1.14353e-11
5.58672e-12
8.70821e-12
5.28571e-12
6.21401e-12
4.81031e-12
4.04118e-12
4.14859e-12
2.2761e-12
3.3e-12
9.91757e-13
2.28736e-12
2.35348e-13
1.18371e-12
2.10035e-13
3.78373e-13
-4.19147e-13
1.41353e-12
-2.40881e-12
3.1277e-12
-4.27545e-12
5.42781e-12
-5.86534e-12
8.19302e-12
-7.09246e-12
1.12887e-11
-7.95275e-12
1.45898e-11
-8.48783e-12
1.79841e-11
-8.74267e-12
2.13757e-11
-8.75737e-12
2.46811e-11
-8.56479e-12
2.78265e-11
-8.19135e-12
3.07482e-11
-7.6592e-12
3.33892e-11
-6.98981e-12
3.57006e-11
-6.20128e-12
3.76411e-11
-5.3118e-12
3.91764e-11
-4.33918e-12
4.02776e-11
-3.29862e-12
4.09212e-11
-2.20429e-12
4.10906e-11
-1.06813e-12
4.07733e-11
9.79869e-14
3.99605e-11
1.28228e-12
3.8649e-11
2.4754e-12
3.68375e-11
3.66874e-12
3.45273e-11
4.85497e-12
3.17252e-11
6.02783e-12
2.84393e-11
7.18096e-12
2.46807e-11
8.30825e-12
2.04623e-11
9.40417e-12
1.57981e-11
1.04642e-11
1.07051e-11
1.14855e-11
5.20124e-12
1.24647e-11
-6.93962e-13
1.33973e-11
-6.95938e-12
1.42806e-11
-1.35738e-11
1.51122e-11
-2.05149e-11
1.58895e-11
-2.7759e-11
1.66112e-11
-3.52823e-11
1.72768e-11
-4.30604e-11
1.78844e-11
-5.10682e-11
1.84327e-11
-5.92803e-11
1.89214e-11
-6.76711e-11
1.93499e-11
-7.62155e-11
1.97176e-11
-8.48881e-11
2.0025e-11
-9.36632e-11
2.02717e-11
-1.02515e-10
2.04582e-11
-1.11419e-10
2.05858e-11
-1.20348e-10
2.06545e-11
-1.29279e-10
2.0665e-11
-1.38186e-10
2.06185e-11
-1.47047e-10
2.05155e-11
-1.55838e-10
2.03568e-11
-1.64534e-10
2.01436e-11
-1.73114e-10
1.98783e-11
-1.81555e-10
1.95619e-11
-1.89837e-10
1.91951e-11
-1.97939e-10
1.87796e-11
-2.05842e-10
1.83169e-11
-2.13526e-10
1.78088e-11
-2.20971e-10
1.72575e-11
-2.28161e-10
1.66652e-11
-2.35077e-10
1.60338e-11
-2.41704e-10
1.53648e-11
-2.48028e-10
1.46601e-11
-2.54033e-10
1.39213e-11
-2.59704e-10
1.31498e-11
-2.65031e-10
1.23479e-11
-2.70001e-10
1.15187e-11
-2.74601e-10
1.06641e-11
-2.78824e-10
9.78596e-12
-2.82658e-10
8.88618e-12
-2.86097e-10
7.96671e-12
-2.89133e-10
7.02997e-12
-2.91759e-10
6.07846e-12
-2.93969e-10
5.11401e-12
-2.95757e-10
4.13835e-12
-2.97122e-10
3.15369e-12
-2.9806e-10
2.16234e-12
-2.98569e-10
1.16661e-12
-2.98649e-10
1.68859e-13
-2.98299e-10
-8.28858e-13
-2.97521e-10
-1.82448e-12
-2.96315e-10
-2.81553e-12
-2.94685e-10
-3.79992e-12
-2.92635e-10
-4.77615e-12
-2.90168e-10
-5.74188e-12
-2.87291e-10
-6.69447e-12
-2.8401e-10
-7.63194e-12
-2.80332e-10
-8.55195e-12
-2.76266e-10
-9.45242e-12
-2.7182e-10
-1.03317e-11
-2.67004e-10
-1.11878e-11
-2.61829e-10
-1.20189e-11
-2.56308e-10
-1.28233e-11
-2.50451e-10
-1.35989e-11
-2.44272e-10
-1.43438e-11
-2.37786e-10
-1.50559e-11
-2.31007e-10
-1.57334e-11
-2.23951e-10
-1.63747e-11
-2.16634e-10
-1.69778e-11
-2.09072e-10
-1.75413e-11
-2.01285e-10
-1.80633e-11
-1.9329e-10
-1.85421e-11
-1.85106e-10
-1.89761e-11
-1.76753e-10
-1.93636e-11
-1.68251e-10
-1.97036e-11
-1.59622e-10
-1.99951e-11
-1.50886e-10
-2.02364e-11
-1.42065e-10
-2.04268e-11
-1.33182e-10
-2.0565e-11
-1.2426e-10
-2.06497e-11
-1.15321e-10
-2.06803e-11
-1.06389e-10
-2.06556e-11
-9.74883e-11
-2.05749e-11
-8.86428e-11
-2.04382e-11
-7.9877e-11
-2.02445e-11
-7.12149e-11
-1.99936e-11
-6.26806e-11
-1.96855e-11
-5.4299e-11
-1.93199e-11
-4.60938e-11
-1.8897e-11
-3.80891e-11
-1.84175e-11
-3.031e-11
-1.78813e-11
-2.27793e-11
-1.72887e-11
-1.55197e-11
-1.66412e-11
-8.55458e-12
-1.59403e-11
-1.90602e-12
-1.51873e-11
4.40431e-12
-1.43839e-11
1.03552e-11
-1.35313e-11
1.5928e-11
-1.26315e-11
2.11043e-11
-1.16874e-11
2.5866e-11
-1.07013e-11
3.01973e-11
-9.67632e-12
3.40835e-11
-8.61639e-12
3.75108e-11
-7.52537e-12
4.04685e-11
-6.40709e-12
4.2948e-11
-5.26639e-12
4.49415e-11
-4.10835e-12
4.64454e-11
-2.93875e-12
4.74588e-11
-1.76488e-12
4.79818e-11
-5.94137e-13
4.80191e-11
5.66384e-13
4.75801e-11
1.70816e-12
4.66765e-11
2.82148e-12
4.53248e-11
3.89625e-12
4.35483e-11
4.9204e-12
4.1373e-11
5.87998e-12
3.88305e-11
6.76087e-12
3.5961e-11
7.54778e-12
3.28105e-11
8.223e-12
2.94317e-11
8.76703e-12
2.58864e-11
9.15885e-12
2.2245e-11
9.37508e-12
1.85855e-11
9.39014e-12
1.49944e-11
9.17817e-12
1.15672e-11
8.71393e-12
8.40387e-12
7.97439e-12
5.60727e-12
6.94453e-12
3.28056e-12
5.62621e-12
1.51826e-12
4.04933e-12
4.02642e-13
2.29963e-12
6.12813e-13
5.32359e-13
-9.50454e-13
1.86604e-12
-3.74295e-12
3.93485e-12
-6.34271e-12
6.62781e-12
-8.55794e-12
9.81315e-12
-1.02779e-11
1.3349e-11
-1.14888e-11
1.71003e-11
-1.22381e-11
2.09418e-11
-1.25834e-11
2.47619e-11
-1.25775e-11
2.84622e-11
-1.22657e-11
3.19564e-11
-1.16853e-11
3.51677e-11
-1.08706e-11
3.80303e-11
-9.85145e-12
4.04853e-11
-8.65635e-12
4.2483e-11
-7.31075e-12
4.39825e-11
-5.83876e-12
4.49488e-11
-4.26468e-12
4.53542e-11
-2.60922e-12
4.51775e-11
-8.91188e-13
4.44026e-11
8.71822e-13
4.30192e-11
2.66448e-12
4.10224e-11
4.472e-12
3.84113e-11
6.28061e-12
3.51883e-11
8.07907e-12
3.13596e-11
9.85646e-12
2.69356e-11
1.1604e-11
2.19294e-11
1.33137e-11
1.63566e-11
1.49767e-11
1.02355e-11
1.65857e-11
3.58681e-12
1.81352e-11
-3.5683e-12
1.96195e-11
-1.12054e-11
2.10338e-11
-1.92988e-11
2.23737e-11
-2.78226e-11
2.36352e-11
-3.67482e-11
2.4815e-11
-4.60465e-11
2.59102e-11
-5.56883e-11
2.69187e-11
-6.5643e-11
2.78391e-11
-7.58795e-11
2.86694e-11
-8.63671e-11
2.94084e-11
-9.70734e-11
3.00555e-11
-1.07967e-10
3.06104e-11
-1.19015e-10
3.10732e-11
-1.30187e-10
3.14435e-11
-1.41451e-10
3.17219e-11
-1.52774e-10
3.19093e-11
-1.64126e-10
3.20062e-11
-1.75475e-10
3.20138e-11
-1.8679e-10
3.1934e-11
-1.98043e-10
3.1768e-11
-2.09203e-10
3.15169e-11
-2.20241e-10
3.11825e-11
-2.3113e-10
3.07667e-11
-2.41841e-10
3.02722e-11
-2.52347e-10
2.97009e-11
-2.62623e-10
2.90555e-11
-2.72645e-10
2.83383e-11
-2.82389e-10
2.75517e-11
-2.91829e-10
2.66985e-11
-3.00945e-10
2.57814e-11
-3.09715e-10
2.48031e-11
-3.18117e-10
2.37668e-11
-3.26133e-10
2.26755e-11
-3.33745e-10
2.15323e-11
-3.40936e-10
2.034e-11
-3.47689e-10
1.91013e-11
-3.5399e-10
1.78197e-11
-3.59824e-10
1.64984e-11
-3.65179e-10
1.51406e-11
-3.70042e-10
1.37499e-11
-3.74403e-10
1.23291e-11
-3.78254e-10
1.08812e-11
-3.81587e-10
9.40999e-12
-3.84393e-10
7.9191e-12
-3.86666e-10
6.41138e-12
-3.88403e-10
4.89e-12
-3.89599e-10
3.35847e-12
-3.90252e-10
1.82021e-12
-3.90361e-10
2.78596e-13
-3.89927e-10
-1.26318e-12
-3.8895e-10
-2.80194e-12
-3.87432e-10
-4.33406e-12
-3.85378e-10
-5.85586e-12
-3.82791e-10
-7.36438e-12
-3.79676e-10
-8.85641e-12
-3.76042e-10
-1.03283e-11
-3.71896e-10
-1.17774e-11
-3.67247e-10
-1.32002e-11
-3.62106e-10
-1.45935e-11
-3.56483e-10
-1.59542e-11
-3.50392e-10
-1.72793e-11
-3.43845e-10
-1.85658e-11
-3.36859e-10
-1.98106e-11
-3.29447e-10
-2.10109e-11
-3.21626e-10
-2.2164e-11
-3.13415e-10
-2.32671e-11
-3.04832e-10
-2.4317e-11
-2.95896e-10
-2.53109e-11
-2.86629e-10
-2.62459e-11
-2.7705e-10
-2.71197e-11
-2.67184e-10
-2.79299e-11
-2.57052e-10
-2.86737e-11
-2.46678e-10
-2.93492e-11
-2.36088e-10
-2.99538e-11
-2.25307e-10
-3.04852e-11
-2.14361e-10
-3.09417e-11
-2.03277e-10
-3.13212e-11
-1.92082e-10
-3.16221e-11
-1.80804e-10
-3.1843e-11
-1.69473e-10
-3.19818e-11
-1.58116e-10
-3.2037e-11
-1.46762e-10
-3.20079e-11
-1.35444e-10
-3.18931e-11
-1.24189e-10
-3.16922e-11
-1.13029e-10
-3.14044e-11
-1.01994e-10
-3.10289e-11
-9.11141e-11
-3.05656e-11
-8.04206e-11
-3.00145e-11
-6.99431e-11
-2.93754e-11
-5.97107e-11
-2.86492e-11
-4.97545e-11
-2.78372e-11
-4.01044e-11
-2.69399e-11
-3.07883e-11
-2.59584e-11
-2.18349e-11
-2.48948e-11
-1.32714e-11
-2.37515e-11
-5.12408e-12
-2.25312e-11
2.58032e-12
-2.12366e-11
9.81763e-12
-1.98705e-11
1.65662e-11
-1.84366e-11
2.28036e-11
-1.69394e-11
2.85098e-11
-1.53834e-11
3.36676e-11
-1.37739e-11
3.82603e-11
-1.21175e-11
4.22742e-11
-1.04209e-11
4.56992e-11
-8.69097e-12
4.85264e-11
-6.93596e-12
5.07503e-11
-5.16444e-12
5.23706e-11
-3.38588e-12
5.33893e-11
-1.61184e-12
5.38112e-11
1.45261e-13
5.36477e-11
1.87274e-12
5.29143e-11
3.55615e-12
5.16305e-11
5.17956e-12
4.9824e-11
6.72599e-12
4.75278e-11
8.17618e-12
4.47805e-11
9.50834e-12
4.16292e-11
1.06993e-11
3.81288e-11
1.17241e-11
3.43419e-11
1.25549e-11
3.03398e-11
1.3161e-11
2.62033e-11
1.35108e-11
2.20224e-11
1.35706e-11
1.78952e-11
1.3305e-11
1.39284e-11
1.26807e-11
1.02341e-11
1.16691e-11
6.92841e-12
1.02505e-11
4.13062e-12
8.42416e-12
1.96031e-12
6.21959e-12
5.38869e-13
3.72075e-12
1.15171e-12
6.43929e-13
-1.5938e-12
2.22128e-12
-5.32115e-12
4.58601e-12
-8.70608e-12
7.59368e-12
-1.15648e-11
1.10967e-11
-1.3781e-11
1.49454e-11
-1.53382e-11
1.89968e-11
-1.62893e-11
2.31178e-11
-1.67038e-11
2.71875e-11
-1.66467e-11
3.10975e-11
-1.61749e-11
3.47503e-11
-1.53387e-11
3.80611e-11
-1.41816e-11
4.09552e-11
-1.27452e-11
4.33669e-11
-1.10679e-11
4.52403e-11
-9.18411e-12
4.65276e-11
-7.12705e-12
4.719e-11
-4.92766e-12
4.71959e-11
-2.61465e-12
4.65201e-11
-2.15082e-13
4.51453e-11
2.24733e-12
4.30584e-11
4.75106e-12
4.02529e-11
7.27605e-12
3.67287e-11
9.80459e-12
3.24885e-11
1.23196e-11
2.75396e-11
1.48058e-11
2.18937e-11
1.72501e-11
1.55656e-11
1.96411e-11
8.57356e-12
2.19678e-11
9.39061e-13
2.422e-11
-7.31405e-12
2.63884e-11
-1.61599e-11
2.84655e-11
-2.55704e-11
3.04446e-11
-3.55158e-11
3.2319e-11
-4.59649e-11
3.40836e-11
-5.68846e-11
3.57344e-11
-6.82409e-11
3.72664e-11
-7.99988e-11
3.86764e-11
-9.21218e-11
3.99623e-11
-1.04574e-10
4.11217e-11
-1.17318e-10
4.21526e-11
-1.30316e-10
4.30541e-11
-1.43531e-10
4.38254e-11
-1.56925e-10
4.44665e-11
-1.70459e-10
4.49778e-11
-1.84097e-10
4.53594e-11
-1.97801e-10
4.56122e-11
-2.11532e-10
4.57376e-11
-2.25255e-10
4.57368e-11
-2.38933e-10
4.56115e-11
-2.5253e-10
4.53642e-11
-2.66011e-10
4.49974e-11
-2.79341e-10
4.45132e-11
-2.92488e-10
4.39138e-11
-3.05419e-10
4.32025e-11
-3.181e-10
4.23826e-11
-3.30502e-10
4.14573e-11
-3.42595e-10
4.04303e-11
-3.54349e-10
3.93054e-11
-3.65737e-10
3.80864e-11
-3.76733e-10
3.67767e-11
-3.87311e-10
3.53805e-11
-3.97445e-10
3.39016e-11
-4.07113e-10
3.23441e-11
-4.16294e-10
3.07126e-11
-4.24967e-10
2.90118e-11
-4.33111e-10
2.72457e-11
-4.4071e-10
2.54185e-11
-4.47747e-10
2.35349e-11
-4.54207e-10
2.15995e-11
-4.60075e-10
1.96172e-11
-4.65338e-10
1.75924e-11
-4.69985e-10
1.55293e-11
-4.74007e-10
1.34328e-11
-4.77396e-10
1.13079e-11
-4.80144e-10
9.15909e-12
-4.82245e-10
6.9909e-12
-4.83696e-10
4.80851e-12
-4.84493e-10
2.61666e-12
-4.84634e-10
4.19949e-13
-4.84121e-10
-1.77682e-12
-4.82954e-10
-3.96908e-12
-4.81136e-10
-6.1523e-12
-4.78671e-10
-8.32141e-12
-4.75564e-10
-1.04716e-11
-4.71823e-10
-1.25983e-11
-4.67455e-10
-1.46965e-11
-4.62471e-10
-1.6762e-11
-4.5688e-10
-1.87906e-11
-4.50695e-10
-2.07775e-11
-4.43931e-10
-2.27184e-11
-4.36601e-10
-2.4609e-11
-4.28722e-10
-2.64449e-11
-4.20311e-10
-2.82216e-11
-4.11387e-10
-2.9935e-11
-4.01971e-10
-3.15811e-11
-3.92082e-10
-3.31561e-11
-3.81743e-10
-3.46558e-11
-3.70978e-10
-3.60762e-11
-3.59811e-10
-3.74133e-11
-3.48268e-10
-3.86634e-11
-3.36375e-10
-3.98233e-11
-3.24159e-10
-4.08893e-11
-3.1165e-10
-4.18581e-11
-2.98877e-10
-4.27269e-11
-2.85871e-10
-4.34922e-11
-2.72661e-10
-4.41513e-11
-2.59282e-10
-4.47014e-11
-2.45764e-10
-4.514e-11
-2.32142e-10
-4.5465e-11
-2.1845e-10
-4.56741e-11
-2.04722e-10
-4.5765e-11
-1.90993e-10
-4.57364e-11
-1.77299e-10
-4.5587e-11
-1.63675e-10
-4.53155e-11
-1.50158e-10
-4.4921e-11
-1.36784e-10
-4.4403e-11
-1.23589e-10
-4.3761e-11
-1.10608e-10
-4.2995e-11
-9.78795e-11
-4.21053e-11
-8.54364e-11
-4.10922e-11
-7.33149e-11
-3.99578e-11
-6.15508e-11
-3.8704e-11
-5.0178e-11
-3.73321e-11
-3.92298e-11
-3.58444e-11
-2.87389e-11
-3.42442e-11
-1.87358e-11
-3.25351e-11
-9.25114e-12
-3.07215e-11
-3.14106e-13
-2.88081e-11
8.04895e-12
-2.67998e-11
1.58126e-11
-2.47028e-11
2.29531e-11
-2.25243e-11
2.94498e-11
-2.02714e-11
3.52841e-11
-1.79523e-11
4.04402e-11
-1.55771e-11
4.49057e-11
-1.31561e-11
4.86709e-11
-1.07005e-11
5.17298e-11
-8.22309e-12
5.40809e-11
-5.7374e-12
5.5727e-11
-3.25814e-12
5.66751e-11
-8.02575e-13
5.69377e-11
1.61057e-12
5.65329e-11
3.96161e-12
5.5484e-11
6.22881e-12
5.38221e-11
8.38796e-12
5.15847e-11
1.04132e-11
4.88163e-11
1.22762e-11
4.55706e-11
1.39452e-11
4.19088e-11
1.53862e-11
3.79006e-11
1.65631e-11
3.36261e-11
1.74363e-11
2.91739e-11
1.79636e-11
2.46416e-11
1.81023e-11
2.01364e-11
1.78093e-11
1.57746e-11
1.70426e-11
1.16781e-11
1.57656e-11
7.97551e-12
1.39529e-11
4.80327e-12
1.15966e-11
2.30618e-12
8.71713e-12
6.42374e-13
5.38409e-12
1.79392e-12
7.18879e-13
-2.31159e-12
2.47513e-12
-7.07813e-12
5.06074e-12
-1.12915e-11
8.29673e-12
-1.47999e-11
1.20177e-11
-1.75009e-11
1.60639e-11
-1.93843e-11
2.02849e-11
-2.05105e-11
2.45413e-11
-2.09604e-11
2.87054e-11
-2.08103e-11
3.26617e-11
-2.01309e-11
3.63068e-11
-1.89833e-11
3.9548e-11
-1.74232e-11
4.23044e-11
-1.55022e-11
4.4506e-11
-1.32686e-11
4.60909e-11
-1.07685e-11
4.70072e-11
-8.0436e-12
4.72123e-11
-5.13301e-12
4.66709e-11
-2.07412e-12
4.53561e-11
1.09942e-12
4.32486e-11
4.35594e-12
4.0334e-11
7.66638e-12
3.66049e-11
1.1005e-11
3.20603e-11
1.43485e-11
2.67042e-11
1.76751e-11
2.05451e-11
2.09651e-11
1.35959e-11
2.41997e-11
5.87356e-12
2.73636e-11
-2.60111e-12
3.04426e-11
-1.18051e-11
3.34232e-11
-2.17105e-11
3.62933e-11
-3.22878e-11
3.9043e-11
-4.35056e-11
4.16623e-11
-5.53292e-11
4.41428e-11
-6.7723e-11
4.64777e-11
-8.06499e-11
4.86611e-11
-9.4071e-11
5.06871e-11
-1.07946e-10
5.25511e-11
-1.22234e-10
5.42497e-11
-1.36892e-10
5.57798e-11
-1.51879e-10
5.71393e-11
-1.67151e-10
5.83265e-11
-1.82665e-10
5.934e-11
-1.98379e-10
6.01797e-11
-2.14247e-10
6.08461e-11
-2.30228e-10
6.13393e-11
-2.46277e-10
6.16607e-11
-2.62351e-10
6.1812e-11
-2.78409e-10
6.17948e-11
-2.94408e-10
6.1611e-11
-3.10308e-10
6.12637e-11
-3.26067e-10
6.07563e-11
-3.41647e-10
6.00921e-11
-3.57007e-10
5.92743e-11
-3.72112e-10
5.83069e-11
-3.86923e-10
5.71942e-11
-4.01406e-10
5.59403e-11
-4.15526e-10
5.45498e-11
-4.29248e-10
5.30278e-11
-4.42541e-10
5.13794e-11
-4.55375e-10
4.96098e-11
-4.6772e-10
4.77243e-11
-4.79547e-10
4.57283e-11
-4.9083e-10
4.36271e-11
-5.01544e-10
4.14262e-11
-5.11664e-10
3.91319e-11
-5.21168e-10
3.675e-11
-5.30036e-10
3.42863e-11
-5.38248e-10
3.1747e-11
-5.45787e-10
2.9138e-11
-5.52636e-10
2.64656e-11
-5.58781e-10
2.37363e-11
-5.64208e-10
2.09561e-11
-5.68905e-10
1.8131e-11
-5.72865e-10
1.52674e-11
-5.76078e-10
1.23717e-11
-5.78537e-10
9.45031e-12
-5.80238e-10
6.50958e-12
-5.81177e-10
3.55585e-12
-5.81353e-10
5.95495e-13
-5.80766e-10
-2.36484e-12
-5.79416e-10
-5.31887e-12
-5.77308e-10
-8.26068e-12
-5.74446e-10
-1.11838e-11
-5.70837e-10
-1.40815e-11
-5.66487e-10
-1.6948e-11
-5.61407e-10
-1.97768e-11
-5.55608e-10
-2.25617e-11
-5.49101e-10
-2.52968e-11
-5.41903e-10
-2.79761e-11
-5.34027e-10
-3.05937e-11
-5.25492e-10
-3.31439e-11
-5.16316e-10
-3.56208e-11
-5.06519e-10
-3.80184e-11
-4.96123e-10
-4.03313e-11
-4.85151e-10
-4.25538e-11
-4.73627e-10
-4.46805e-11
-4.61577e-10
-4.67061e-11
-4.49028e-10
-4.86253e-11
-4.36008e-10
-5.04334e-11
-4.22547e-10
-5.2125e-11
-4.08675e-10
-5.36954e-11
-3.94425e-10
-5.51402e-11
-3.79829e-10
-5.64547e-11
-3.64921e-10
-5.76349e-11
-3.49737e-10
-5.86767e-11
-3.34312e-10
-5.95761e-11
-3.18684e-10
-6.03297e-11
-3.02891e-10
-6.09341e-11
-2.86969e-10
-6.1386e-11
-2.7096e-10
-6.16829e-11
-2.54903e-10
-6.18221e-11
-2.38837e-10
-6.18013e-11
-2.22805e-10
-6.1619e-11
-2.06848e-10
-6.12735e-11
-1.91005e-10
-6.07633e-11
-1.7532e-10
-6.0088e-11
-1.59834e-10
-5.92472e-11
-1.44589e-10
-5.82407e-11
-1.29624e-10
-5.70695e-11
-1.14983e-10
-5.57342e-11
-1.00704e-10
-5.42364e-11
-8.68287e-11
-5.25792e-11
-7.33955e-11
-5.07653e-11
-6.04433e-11
-4.87974e-11
-4.80092e-11
-4.66796e-11
-3.61286e-11
-4.4417e-11
-2.4836e-11
-4.20151e-11
-1.41641e-11
-3.94803e-11
-4.14375e-12
-3.682e-11
5.19579e-12
-3.40423e-11
1.38285e-11
-3.11566e-11
2.17306e-11
-2.81733e-11
2.88803e-11
-2.5103e-11
3.52605e-11
-2.1958e-11
4.08571e-11
-1.87526e-11
4.56588e-11
-1.55021e-11
4.96596e-11
-1.22231e-11
5.28576e-11
-8.93419e-12
5.52552e-11
-5.65544e-12
5.68604e-11
-2.40828e-12
5.7688e-11
7.83121e-13
5.77577e-11
3.89216e-12
5.70953e-11
6.89069e-12
5.57354e-11
9.74799e-12
5.37196e-11
1.24298e-11
5.10959e-11
1.48996e-11
4.79231e-11
1.71181e-11
4.4268e-11
1.9042e-11
4.02056e-11
2.06252e-11
3.58213e-11
2.18195e-11
3.12114e-11
2.25737e-11
2.64798e-11
2.28346e-11
2.17397e-11
2.25492e-11
1.71152e-11
2.16671e-11
1.27382e-11
2.01429e-11
8.74864e-12
1.79419e-11
5.29947e-12
1.50454e-11
2.55891e-12
1.14582e-11
7.16199e-13
7.22662e-12
2.50994e-12
7.62567e-13
-3.07311e-12
2.63338e-12
-8.94858e-12
5.36013e-12
-1.40187e-11
8.73442e-12
-1.81746e-11
1.25732e-11
-2.13387e-11
1.67068e-11
-2.35173e-11
2.09774e-11
-2.47812e-11
2.52405e-11
-2.52227e-11
2.93618e-11
-2.49318e-11
3.32213e-11
-2.399e-11
3.67107e-11
-2.2472e-11
3.97323e-11
-2.04453e-11
4.22013e-11
-1.79715e-11
4.40425e-11
-1.51103e-11
4.51915e-11
-1.19173e-11
4.5593e-11
-8.44441e-12
4.5201e-11
-4.74083e-12
4.39785e-11
-8.51771e-13
4.18961e-11
3.18105e-12
3.8933e-11
7.31858e-12
3.50755e-11
1.15247e-11
3.03149e-11
1.57663e-11
2.46498e-11
2.00133e-11
1.80852e-11
2.42395e-11
1.06304e-11
2.84196e-11
2.29965e-12
3.25301e-11
-6.88729e-12
3.65509e-11
-1.69078e-11
4.04636e-11
-2.77361e-11
4.42511e-11
-3.93414e-11
4.78986e-11
-5.16912e-11
5.13925e-11
-6.47505e-11
5.47208e-11
-7.84804e-11
5.78727e-11
-9.28409e-11
6.08388e-11
-1.07791e-10
6.36109e-11
-1.23287e-10
6.61828e-11
-1.39283e-10
6.85479e-11
-1.55735e-10
7.07014e-11
-1.72595e-10
7.26396e-11
-1.89816e-10
7.43595e-11
-2.07348e-10
7.5859e-11
-2.25145e-10
7.71365e-11
-2.43157e-10
7.81916e-11
-2.61335e-10
7.90242e-11
-2.79631e-10
7.9635e-11
-2.97996e-10
8.00254e-11
-3.16382e-10
8.01976e-11
-3.34741e-10
8.01537e-11
-3.53027e-10
7.98966e-11
-3.71192e-10
7.94296e-11
-3.89193e-10
7.87563e-11
-4.06982e-10
7.78815e-11
-4.24518e-10
7.68096e-11
-4.41757e-10
7.55457e-11
-4.58658e-10
7.4095e-11
-4.75181e-10
7.2463e-11
-4.91287e-10
7.06558e-11
-5.06939e-10
6.86793e-11
-5.22099e-10
6.65398e-11
-5.36733e-10
6.42441e-11
-5.50808e-10
6.17992e-11
-5.64293e-10
5.9212e-11