/*--------------------------------*- C++ -*----------------------------------*\
  =========                 |
  \\      /  F ield         | OpenFOAM: The Open Source CFD Toolbox
   \\    /   O peration     | Website:  https://openfoam.org
    \\  /    A nd           | Version:  7
     \\/     M anipulation  |
\*---------------------------------------------------------------------------*/
FoamFile
{
    version     2.0;
    format      ascii;
    class       volVectorField;
    location    "0.2875";
    object      U;
}
// * * * * * * * * * * * * * * * * * * * * * * * * * * * * * * * * * * * * * //

dimensions      [0 1 -1 0 0 0 0];

internalField   nonuniform List<vector> 
51200
(
(-4.02375e-08 -2.51447e-08 0)
(-6.71011e-10 -4.7278e-08 0)
(3.97566e-08 -3.00331e-08 0)
(1.24838e-07 -3.05576e-08 0)
(2.06708e-07 -3.21546e-08 0)
(3.04808e-07 -3.42796e-08 0)
(4.12665e-07 -3.60271e-08 0)
(5.25937e-07 -3.72072e-08 0)
(6.41752e-07 -3.80129e-08 0)
(7.57256e-07 -3.81219e-08 0)
(8.69963e-07 -3.72156e-08 0)
(9.77708e-07 -3.51818e-08 0)
(1.0786e-06 -3.2323e-08 0)
(1.17111e-06 -2.9086e-08 0)
(1.254e-06 -2.5934e-08 0)
(1.32629e-06 -2.28463e-08 0)
(1.38713e-06 -1.94666e-08 0)
(1.43575e-06 -1.57715e-08 0)
(1.4716e-06 -1.18801e-08 0)
(1.4944e-06 -8.0255e-09 0)
(1.50391e-06 -4.27837e-09 0)
(1.50003e-06 -3.99804e-10 0)
(1.48279e-06 3.58083e-09 0)
(1.4523e-06 7.4589e-09 0)
(1.40865e-06 1.12769e-08 0)
(1.3519e-06 1.49751e-08 0)
(1.28244e-06 1.84541e-08 0)
(1.20073e-06 2.18827e-08 0)
(1.10704e-06 2.54509e-08 0)
(1.00165e-06 2.90843e-08 0)
(8.85037e-07 3.24927e-08 0)
(7.57685e-07 3.55341e-08 0)
(6.20108e-07 3.83655e-08 0)
(4.73002e-07 4.09923e-08 0)
(3.17088e-07 4.34813e-08 0)
(1.52822e-07 4.60213e-08 0)
(-1.92698e-08 4.83564e-08 0)
(-1.98395e-07 5.02279e-08 0)
(-3.8396e-07 5.19244e-08 0)
(-5.75496e-07 5.36099e-08 0)
(-7.72186e-07 5.50798e-08 0)
(-9.73243e-07 5.62539e-08 0)
(-1.17805e-06 5.71028e-08 0)
(-1.38591e-06 5.76662e-08 0)
(-1.59627e-06 5.81389e-08 0)
(-1.80851e-06 5.85871e-08 0)
(-2.02195e-06 5.90403e-08 0)
(-2.2361e-06 5.95029e-08 0)
(-2.45034e-06 5.967e-08 0)
(-2.66385e-06 5.9314e-08 0)
(-2.87602e-06 5.87198e-08 0)
(-3.08644e-06 5.82277e-08 0)
(-3.29461e-06 5.77768e-08 0)
(-3.49988e-06 5.70759e-08 0)
(-3.70167e-06 5.59575e-08 0)
(-3.89938e-06 5.44076e-08 0)
(-4.09242e-06 5.26128e-08 0)
(-4.28034e-06 5.09391e-08 0)
(-4.46277e-06 4.95728e-08 0)
(-4.63934e-06 4.83392e-08 0)
(-4.80965e-06 4.69089e-08 0)
(-4.97325e-06 4.50589e-08 0)
(-5.12969e-06 4.27926e-08 0)
(-5.2786e-06 4.03007e-08 0)
(-5.41961e-06 3.78277e-08 0)
(-5.55237e-06 3.54911e-08 0)
(-5.67658e-06 3.3234e-08 0)
(-5.79204e-06 3.09681e-08 0)
(-5.89853e-06 2.85967e-08 0)
(-5.99572e-06 2.59709e-08 0)
(-6.08331e-06 2.30478e-08 0)
(-6.16113e-06 2.00129e-08 0)
(-6.22908e-06 1.71146e-08 0)
(-6.28709e-06 1.444e-08 0)
(-6.33504e-06 1.18616e-08 0)
(-6.37274e-06 9.17423e-09 0)
(-6.40007e-06 6.28721e-09 0)
(-6.41702e-06 3.26545e-09 0)
(-6.4236e-06 2.29475e-10 0)
(-6.4198e-06 -2.72864e-09 0)
(-6.4056e-06 -5.57996e-09 0)
(-6.381e-06 -8.38402e-09 0)
(-6.34602e-06 -1.12153e-08 0)
(-6.30077e-06 -1.40595e-08 0)
(-6.24534e-06 -1.6908e-08 0)
(-6.17985e-06 -1.97782e-08 0)
(-6.10451e-06 -2.25976e-08 0)
(-6.01955e-06 -2.52806e-08 0)
(-5.92516e-06 -2.78202e-08 0)
(-5.82156e-06 -3.02632e-08 0)
(-5.70894e-06 -3.26811e-08 0)
(-5.58749e-06 -3.50827e-08 0)
(-5.45752e-06 -3.7374e-08 0)
(-5.31943e-06 -3.95063e-08 0)
(-5.17353e-06 -4.15846e-08 0)
(-5.02009e-06 -4.37068e-08 0)
(-4.85944e-06 -4.58128e-08 0)
(-4.69194e-06 -4.77591e-08 0)
(-4.51802e-06 -4.94574e-08 0)
(-4.33808e-06 -5.09608e-08 0)
(-4.15246e-06 -5.23822e-08 0)
(-3.96166e-06 -5.37227e-08 0)
(-3.76623e-06 -5.49159e-08 0)
(-3.5667e-06 -5.59475e-08 0)
(-3.36353e-06 -5.68461e-08 0)
(-3.15716e-06 -5.76401e-08 0)
(-2.94814e-06 -5.83147e-08 0)
(-2.73704e-06 -5.88399e-08 0)
(-2.52433e-06 -5.92067e-08 0)
(-2.31058e-06 -5.93545e-08 0)
(-2.09643e-06 -5.92378e-08 0)
(-1.88245e-06 -5.89321e-08 0)
(-1.66927e-06 -5.85446e-08 0)
(-1.45746e-06 -5.81339e-08 0)
(-1.24758e-06 -5.76315e-08 0)
(-1.04033e-06 -5.68713e-08 0)
(-8.36286e-07 -5.57929e-08 0)
(-6.36022e-07 -5.4445e-08 0)
(-4.40231e-07 -5.28971e-08 0)
(-2.49529e-07 -5.12572e-08 0)
(-6.45211e-08 -4.95635e-08 0)
(1.14142e-07 -4.77154e-08 0)
(2.85866e-07 -4.56247e-08 0)
(4.50066e-07 -4.32912e-08 0)
(6.06181e-07 -4.07826e-08 0)
(7.5373e-07 -3.82158e-08 0)
(8.92129e-07 -3.55973e-08 0)
(1.02077e-06 -3.27823e-08 0)
(1.13918e-06 -2.96806e-08 0)
(1.24681e-06 -2.63306e-08 0)
(1.34322e-06 -2.28694e-08 0)
(1.42812e-06 -1.94581e-08 0)
(1.5011e-06 -1.60725e-08 0)
(1.56173e-06 -1.2535e-08 0)
(1.60977e-06 -8.79168e-09 0)
(1.64499e-06 -4.91655e-09 0)
(1.6671e-06 -9.77587e-10 0)
(1.67604e-06 2.91656e-09 0)
(1.67185e-06 6.69184e-09 0)
(1.65449e-06 1.04564e-08 0)
(1.62404e-06 1.43047e-08 0)
(1.5807e-06 1.81474e-08 0)
(1.52479e-06 2.18741e-08 0)
(1.45681e-06 2.54489e-08 0)
(1.37741e-06 2.88383e-08 0)
(1.28732e-06 3.20003e-08 0)
(1.18745e-06 3.48538e-08 0)
(1.07896e-06 3.7245e-08 0)
(9.63214e-07 3.91181e-08 0)
(8.41845e-07 4.05413e-08 0)
(7.16912e-07 4.14144e-08 0)
(5.90826e-07 4.14574e-08 0)
(4.66376e-07 4.04044e-08 0)
(3.47023e-07 3.79812e-08 0)
(2.36787e-07 3.39385e-08 0)
(1.40181e-07 2.80806e-08 0)
(6.25029e-08 2.00682e-08 0)
(9.56109e-09 9.54185e-09 0)
(-1.36077e-08 -2.4603e-09 0)
(-8.7057e-09 -9.04917e-09 0)
(-4.72634e-08 1.74265e-08 0)
(-2.05509e-08 -8.65776e-08 0)
(1.06065e-07 -1.15785e-07 0)
(2.90005e-07 -1.54666e-07 0)
(5.1548e-07 -1.83772e-07 0)
(7.7717e-07 -2.04543e-07 0)
(1.06223e-06 -2.17924e-07 0)
(1.3601e-06 -2.24688e-07 0)
(1.66271e-06 -2.26132e-07 0)
(1.96285e-06 -2.22883e-07 0)
(2.254e-06 -2.15222e-07 0)
(2.53064e-06 -2.03572e-07 0)
(2.78803e-06 -1.88364e-07 0)
(3.02219e-06 -1.70337e-07 0)
(3.2297e-06 -1.50229e-07 0)
(3.4076e-06 -1.28439e-07 0)
(3.55321e-06 -1.05148e-07 0)
(3.66469e-06 -8.05771e-08 0)
(3.74076e-06 -5.50465e-08 0)
(3.78025e-06 -2.9004e-08 0)
(3.78247e-06 -2.75208e-09 0)
(3.74697e-06 2.37081e-08 0)
(3.67352e-06 5.01722e-08 0)
(3.56248e-06 7.64684e-08 0)
(3.41429e-06 1.02342e-07 0)
(3.22935e-06 1.27718e-07 0)
(3.00845e-06 1.52529e-07 0)
(2.75248e-06 1.76594e-07 0)
(2.46232e-06 2.00014e-07 0)
(2.13929e-06 2.22745e-07 0)
(1.7848e-06 2.44517e-07 0)
(1.40019e-06 2.65153e-07 0)
(9.86883e-07 2.84591e-07 0)
(5.46423e-07 3.02862e-07 0)
(8.05949e-08 3.19924e-07 0)
(-4.08937e-07 3.35911e-07 0)
(-9.20385e-07 3.50814e-07 0)
(-1.45173e-06 3.64296e-07 0)
(-2.00129e-06 3.76329e-07 0)
(-2.56744e-06 3.87147e-07 0)
(-3.14815e-06 3.96712e-07 0)
(-3.74147e-06 4.04944e-07 0)
(-4.34551e-06 4.11819e-07 0)
(-4.95832e-06 4.17291e-07 0)
(-5.57809e-06 4.21455e-07 0)
(-6.20296e-06 4.24388e-07 0)
(-6.83115e-06 4.2613e-07 0)
(-7.4609e-06 4.26807e-07 0)
(-8.09035e-06 4.26362e-07 0)
(-8.71766e-06 4.24537e-07 0)
(-9.34113e-06 4.21351e-07 0)
(-9.95919e-06 4.17096e-07 0)
(-1.05702e-05 4.11918e-07 0)
(-1.11725e-05 4.05696e-07 0)
(-1.17643e-05 3.98327e-07 0)
(-1.23442e-05 3.89711e-07 0)
(-1.29106e-05 3.79855e-07 0)
(-1.34623e-05 3.69053e-07 0)
(-1.3998e-05 3.57585e-07 0)
(-1.45163e-05 3.45496e-07 0)
(-1.50159e-05 3.32695e-07 0)
(-1.54956e-05 3.19031e-07 0)
(-1.59543e-05 3.04414e-07 0)
(-1.63908e-05 2.88921e-07 0)
(-1.68043e-05 2.72759e-07 0)
(-1.71938e-05 2.56068e-07 0)
(-1.75584e-05 2.38829e-07 0)
(-1.78972e-05 2.21079e-07 0)
(-1.82095e-05 2.02912e-07 0)
(-1.84946e-05 1.84285e-07 0)
(-1.87519e-05 1.65113e-07 0)
(-1.89807e-05 1.45464e-07 0)
(-1.91807e-05 1.25507e-07 0)
(-1.93513e-05 1.05415e-07 0)
(-1.94924e-05 8.52647e-08 0)
(-1.96036e-05 6.4973e-08 0)
(-1.96844e-05 4.44384e-08 0)
(-1.97347e-05 2.3681e-08 0)
(-1.97545e-05 2.81196e-09 0)
(-1.97438e-05 -1.80479e-08 0)
(-1.97026e-05 -3.88016e-08 0)
(-1.96311e-05 -5.94136e-08 0)
(-1.95293e-05 -7.98909e-08 0)
(-1.93975e-05 -1.00165e-07 0)
(-1.9236e-05 -1.20183e-07 0)
(-1.90451e-05 -1.39984e-07 0)
(-1.88253e-05 -1.59516e-07 0)
(-1.85771e-05 -1.78659e-07 0)
(-1.83011e-05 -1.97352e-07 0)
(-1.79979e-05 -2.15548e-07 0)
(-1.76683e-05 -2.33217e-07 0)
(-1.7313e-05 -2.50375e-07 0)
(-1.69327e-05 -2.66979e-07 0)
(-1.65284e-05 -2.82919e-07 0)
(-1.61009e-05 -2.98188e-07 0)
(-1.56512e-05 -3.12872e-07 0)
(-1.51802e-05 -3.26958e-07 0)
(-1.46891e-05 -3.40331e-07 0)
(-1.41791e-05 -3.52833e-07 0)
(-1.36514e-05 -3.64368e-07 0)
(-1.31072e-05 -3.75005e-07 0)
(-1.25478e-05 -3.84787e-07 0)
(-1.19746e-05 -3.93638e-07 0)
(-1.1389e-05 -4.01477e-07 0)
(-1.07924e-05 -4.08251e-07 0)
(-1.01864e-05 -4.13986e-07 0)
(-9.57235e-06 -4.18717e-07 0)
(-8.95193e-06 -4.22398e-07 0)
(-8.32665e-06 -4.25023e-07 0)
(-7.69816e-06 -4.26542e-07 0)
(-7.06825e-06 -4.26811e-07 0)
(-6.43855e-06 -4.25814e-07 0)
(-5.81072e-06 -4.23622e-07 0)
(-5.1865e-06 -4.20318e-07 0)
(-4.56762e-06 -4.1596e-07 0)
(-3.95598e-06 -4.10409e-07 0)
(-3.35337e-06 -4.03508e-07 0)
(-2.76148e-06 -3.95265e-07 0)
(-2.18213e-06 -3.85721e-07 0)
(-1.6171e-06 -3.74954e-07 0)
(-1.06812e-06 -3.63082e-07 0)
(-5.36946e-07 -3.50093e-07 0)
(-2.53289e-08 -3.35881e-07 0)
(4.64997e-07 -3.20408e-07 0)
(9.32329e-07 -3.03714e-07 0)
(1.3752e-06 -2.85965e-07 0)
(1.79213e-06 -2.67316e-07 0)
(2.18147e-06 -2.47706e-07 0)
(2.5417e-06 -2.27032e-07 0)
(2.87146e-06 -2.05305e-07 0)
(3.16948e-06 -1.82611e-07 0)
(3.43471e-06 -1.59167e-07 0)
(3.66617e-06 -1.35175e-07 0)
(3.86278e-06 -1.10616e-07 0)
(4.02374e-06 -8.54516e-08 0)
(4.14844e-06 -5.98083e-08 0)
(4.23632e-06 -3.38142e-08 0)
(4.28705e-06 -7.61716e-09 0)
(4.30066e-06 1.85025e-08 0)
(4.2773e-06 4.43486e-08 0)
(4.21738e-06 6.98686e-08 0)
(4.12162e-06 9.48932e-08 0)
(3.99105e-06 1.19126e-07 0)
(3.82699e-06 1.42321e-07 0)
(3.63117e-06 1.64213e-07 0)
(3.40584e-06 1.84415e-07 0)
(3.15374e-06 2.02504e-07 0)
(2.87823e-06 2.17997e-07 0)
(2.58325e-06 2.30333e-07 0)
(2.27332e-06 2.39052e-07 0)
(1.95389e-06 2.4361e-07 0)
(1.63142e-06 2.43147e-07 0)
(1.31325e-06 2.36666e-07 0)
(1.00783e-06 2.23072e-07 0)
(7.24751e-07 2.01173e-07 0)
(4.74406e-07 1.69966e-07 0)
(2.67611e-07 1.28975e-07 0)
(1.14696e-07 7.8821e-08 0)
(2.41818e-08 2.43703e-08 0)
(-2.2424e-09 -1.37778e-08 0)
(-6.94236e-09 1.82245e-09 0)
(5.62816e-08 -1.56601e-07 0)
(2.21258e-07 -2.91573e-07 0)
(4.80886e-07 -4.05167e-07 0)
(8.10579e-07 -4.90444e-07 0)
(1.19348e-06 -5.49513e-07 0)
(1.61136e-06 -5.86084e-07 0)
(2.0483e-06 -6.03831e-07 0)
(2.49169e-06 -6.05805e-07 0)
(2.93061e-06 -5.94461e-07 0)
(3.35518e-06 -5.71379e-07 0)
(3.75695e-06 -5.38018e-07 0)
(4.12838e-06 -4.95611e-07 0)
(4.46291e-06 -4.4541e-07 0)
(4.75532e-06 -3.88786e-07 0)
(5.00108e-06 -3.26964e-07 0)
(5.19622e-06 -2.60817e-07 0)
(5.33759e-06 -1.91082e-07 0)
(5.42279e-06 -1.18776e-07 0)
(5.45024e-06 -4.47697e-08 0)
(5.41881e-06 3.02787e-08 0)
(5.3276e-06 1.0571e-07 0)
(5.17637e-06 1.81176e-07 0)
(4.96532e-06 2.5621e-07 0)
(4.6949e-06 3.30318e-07 0)
(4.3661e-06 4.0312e-07 0)
(3.98016e-06 4.74186e-07 0)
(3.53851e-06 5.43183e-07 0)
(3.04266e-06 6.10047e-07 0)
(2.49435e-06 6.74612e-07 0)
(1.89587e-06 7.36492e-07 0)
(1.24959e-06 7.95414e-07 0)
(5.57788e-07 8.5112e-07 0)
(-1.76994e-07 9.03432e-07 0)
(-9.52067e-07 9.52318e-07 0)
(-1.76493e-06 9.97845e-07 0)
(-2.61281e-06 1.04001e-06 0)
(-3.49242e-06 1.07852e-06 0)
(-4.40086e-06 1.11318e-06 0)
(-5.3354e-06 1.14406e-06 0)
(-6.29296e-06 1.17117e-06 0)
(-7.27056e-06 1.19453e-06 0)
(-8.26523e-06 1.21417e-06 0)
(-9.2738e-06 1.23007e-06 0)
(-1.02933e-05 1.24225e-06 0)
(-1.13207e-05 1.25064e-06 0)
(-1.23529e-05 1.25531e-06 0)
(-1.33872e-05 1.2565e-06 0)
(-1.44207e-05 1.25423e-06 0)
(-1.54505e-05 1.24845e-06 0)
(-1.64736e-05 1.23915e-06 0)
(-1.74874e-05 1.22648e-06 0)
(-1.84894e-05 1.2106e-06 0)
(-1.94768e-05 1.19161e-06 0)
(-2.0447e-05 1.16955e-06 0)
(-2.13977e-05 1.14446e-06 0)
(-2.23264e-05 1.11635e-06 0)
(-2.32308e-05 1.08535e-06 0)
(-2.41087e-05 1.05169e-06 0)
(-2.49581e-05 1.01559e-06 0)
(-2.57769e-05 9.77186e-07 0)
(-2.65632e-05 9.36543e-07 0)
(-2.73149e-05 8.93664e-07 0)
(-2.80304e-05 8.48612e-07 0)
(-2.8708e-05 8.01542e-07 0)
(-2.93464e-05 7.52647e-07 0)
(-2.99439e-05 7.02032e-07 0)
(-3.04992e-05 6.49801e-07 0)
(-3.10112e-05 5.96162e-07 0)
(-3.14787e-05 5.41273e-07 0)
(-3.19008e-05 4.85217e-07 0)
(-3.22763e-05 4.28097e-07 0)
(-3.26045e-05 3.6998e-07 0)
(-3.28846e-05 3.10968e-07 0)
(-3.31162e-05 2.51313e-07 0)
(-3.32987e-05 1.91232e-07 0)
(-3.34319e-05 1.30795e-07 0)
(-3.35152e-05 7.0066e-08 0)
(-3.35486e-05 9.16801e-09 0)
(-3.3532e-05 -5.17758e-08 0)
(-3.34655e-05 -1.12622e-07 0)
(-3.33494e-05 -1.73212e-07 0)
(-3.31837e-05 -2.33422e-07 0)
(-3.29689e-05 -2.9307e-07 0)
(-3.27055e-05 -3.51946e-07 0)
(-3.23942e-05 -4.09984e-07 0)
(-3.20355e-05 -4.67109e-07 0)
(-3.16302e-05 -5.23171e-07 0)
(-3.11793e-05 -5.78077e-07 0)
(-3.06839e-05 -6.31691e-07 0)
(-3.0145e-05 -6.83852e-07 0)
(-2.95639e-05 -7.34471e-07 0)
(-2.89418e-05 -7.83454e-07 0)
(-2.82802e-05 -8.3063e-07 0)
(-2.75805e-05 -8.75834e-07 0)
(-2.68444e-05 -9.19029e-07 0)
(-2.60734e-05 -9.60206e-07 0)
(-2.52694e-05 -9.99244e-07 0)
(-2.44343e-05 -1.03596e-06 0)
(-2.357e-05 -1.07016e-06 0)
(-2.26785e-05 -1.10175e-06 0)
(-2.17621e-05 -1.13069e-06 0)
(-2.08228e-05 -1.15686e-06 0)
(-1.98629e-05 -1.18016e-06 0)
(-1.88848e-05 -1.20053e-06 0)
(-1.78908e-05 -1.21786e-06 0)
(-1.68835e-05 -1.23211e-06 0)
(-1.58654e-05 -1.24323e-06 0)
(-1.48391e-05 -1.25115e-06 0)
(-1.38072e-05 -1.25587e-06 0)
(-1.27725e-05 -1.25725e-06 0)
(-1.17377e-05 -1.25509e-06 0)
(-1.07056e-05 -1.24941e-06 0)
(-9.67892e-06 -1.24023e-06 0)
(-8.66055e-06 -1.22762e-06 0)
(-7.65335e-06 -1.21159e-06 0)
(-6.66024e-06 -1.192e-06 0)
(-5.68407e-06 -1.16877e-06 0)
(-4.72773e-06 -1.14193e-06 0)
(-3.79409e-06 -1.11149e-06 0)
(-2.88598e-06 -1.0775e-06 0)
(-2.00616e-06 -1.0401e-06 0)
(-1.15739e-06 -9.99326e-07 0)
(-3.4241e-07 -9.55191e-07 0)
(4.3601e-07 -9.07712e-07 0)
(1.17529e-06 -8.56969e-07 0)
(1.87305e-06 -8.03221e-07 0)
(2.52689e-06 -7.46696e-07 0)
(3.13447e-06 -6.87409e-07 0)
(3.69357e-06 -6.25408e-07 0)
(4.20217e-06 -5.60867e-07 0)
(4.65848e-06 -4.94e-07 0)
(5.06085e-06 -4.25128e-07 0)
(5.40779e-06 -3.54579e-07 0)
(5.69803e-06 -2.82576e-07 0)
(5.93057e-06 -2.09416e-07 0)
(6.10472e-06 -1.35512e-07 0)
(6.22005e-06 -6.12304e-08 0)
(6.27652e-06 1.30137e-08 0)
(6.27444e-06 8.6678e-08 0)
(6.21454e-06 1.59239e-07 0)
(6.09797e-06 2.30143e-07 0)
(5.92648e-06 2.98635e-07 0)
(5.70243e-06 3.63894e-07 0)
(5.42865e-06 4.25166e-07 0)
(5.10855e-06 4.81566e-07 0)
(4.74648e-06 5.31993e-07 0)
(4.34768e-06 5.7522e-07 0)
(3.91833e-06 6.09826e-07 0)
(3.46559e-06 6.3425e-07 0)
(2.99768e-06 6.46867e-07 0)
(2.52406e-06 6.45802e-07 0)
(2.05549e-06 6.28901e-07 0)
(1.60406e-06 5.93889e-07 0)
(1.18304e-06 5.38563e-07 0)
(8.06391e-07 4.61261e-07 0)
(4.88056e-07 3.61789e-07 0)
(2.40753e-07 2.42901e-07 0)
(7.72804e-08 1.14521e-07 0)
(9.0351e-09 9.00688e-09 0)
(1.27567e-08 -2.60895e-08 0)
(1.13145e-07 -2.89189e-07 0)
(3.33836e-07 -5.33101e-07 0)
(6.62131e-07 -7.38761e-07 0)
(1.07349e-06 -8.95871e-07 0)
(1.54784e-06 -1.0054e-06 0)
(2.06471e-06 -1.07366e-06 0)
(2.60458e-06 -1.10655e-06 0)
(3.15094e-06 -1.10938e-06 0)
(3.68967e-06 -1.08633e-06 0)
(4.20835e-06 -1.04087e-06 0)
(4.69605e-06 -9.75881e-07 0)
(5.14326e-06 -8.94067e-07 0)
(5.54133e-06 -7.97552e-07 0)
(5.88291e-06 -6.8852e-07 0)
(6.16213e-06 -5.69223e-07 0)
(6.37404e-06 -4.41558e-07 0)
(6.51445e-06 -3.0732e-07 0)
(6.58012e-06 -1.67998e-07 0)
(6.56871e-06 -2.50436e-08 0)
(6.47854e-06 1.20097e-07 0)
(6.30868e-06 2.66235e-07 0)
(6.05875e-06 4.12408e-07 0)
(5.72886e-06 5.57596e-07 0)
(5.31971e-06 7.01102e-07 0)
(4.83227e-06 8.42265e-07 0)
(4.26813e-06 9.80223e-07 0)
(3.62939e-06 1.11433e-06 0)
(2.91823e-06 1.24401e-06 0)
(2.13699e-06 1.3689e-06 0)
(1.28851e-06 1.48868e-06 0)
(3.75836e-07 1.60282e-06 0)
(-5.97928e-07 1.71097e-06 0)
(-1.62932e-06 1.81278e-06 0)
(-2.71462e-06 1.90782e-06 0)
(-3.85024e-06 1.99599e-06 0)
(-5.03263e-06 2.07744e-06 0)
(-6.2578e-06 2.15192e-06 0)
(-7.52167e-06 2.21913e-06 0)
(-8.82025e-06 2.27899e-06 0)
(-1.01495e-05 2.33145e-06 0)
(-1.15053e-05 2.37648e-06 0)
(-1.28837e-05 2.41421e-06 0)
(-1.42805e-05 2.44467e-06 0)
(-1.56918e-05 2.46789e-06 0)
(-1.71133e-05 2.4839e-06 0)
(-1.85408e-05 2.49262e-06 0)
(-1.99705e-05 2.49419e-06 0)
(-2.13986e-05 2.48889e-06 0)
(-2.28211e-05 2.47689e-06 0)
(-2.42341e-05 2.45813e-06 0)
(-2.5634e-05 2.43269e-06 0)
(-2.70169e-05 2.40079e-06 0)
(-2.83794e-05 2.36261e-06 0)
(-2.9718e-05 2.31833e-06 0)
(-3.10296e-05 2.26825e-06 0)
(-3.23109e-05 2.21261e-06 0)
(-3.35586e-05 2.15145e-06 0)
(-3.47697e-05 2.08495e-06 0)
(-3.59411e-05 2.01337e-06 0)
(-3.70702e-05 1.93702e-06 0)
(-3.81543e-05 1.85614e-06 0)
(-3.9191e-05 1.77099e-06 0)
(-4.01779e-05 1.68177e-06 0)
(-4.11125e-05 1.58861e-06 0)
(-4.19929e-05 1.4918e-06 0)
(-4.28171e-05 1.39163e-06 0)
(-4.35831e-05 1.2883e-06 0)
(-4.42893e-05 1.18203e-06 0)
(-4.49341e-05 1.07318e-06 0)
(-4.55164e-05 9.62067e-07 0)
(-4.60347e-05 8.48968e-07 0)
(-4.64879e-05 7.34056e-07 0)
(-4.6875e-05 6.17452e-07 0)
(-4.71949e-05 4.99412e-07 0)
(-4.74473e-05 3.80303e-07 0)
(-4.76316e-05 2.60439e-07 0)
(-4.77475e-05 1.40096e-07 0)
(-4.77947e-05 1.95356e-08 0)
(-4.77731e-05 -1.01029e-07 0)
(-4.76827e-05 -2.21373e-07 0)
(-4.75239e-05 -3.41205e-07 0)
(-4.72969e-05 -4.60284e-07 0)
(-4.70023e-05 -5.78384e-07 0)
(-4.66407e-05 -6.95133e-07 0)
(-4.62131e-05 -8.10213e-07 0)
(-4.57202e-05 -9.23429e-07 0)
(-4.51631e-05 -1.03454e-06 0)
(-4.45432e-05 -1.14334e-06 0)
(-4.38618e-05 -1.24958e-06 0)
(-4.31204e-05 -1.35298e-06 0)
(-4.23208e-05 -1.45334e-06 0)
(-4.14646e-05 -1.55048e-06 0)
(-4.05538e-05 -1.64418e-06 0)
(-3.95904e-05 -1.73413e-06 0)
(-3.85766e-05 -1.82006e-06 0)
(-3.75148e-05 -1.90181e-06 0)
(-3.64074e-05 -1.97919e-06 0)
(-3.52568e-05 -2.05197e-06 0)
(-3.40658e-05 -2.11992e-06 0)
(-3.28372e-05 -2.18281e-06 0)
(-3.15739e-05 -2.24046e-06 0)
(-3.02788e-05 -2.29269e-06 0)
(-2.89551e-05 -2.33928e-06 0)
(-2.76059e-05 -2.38012e-06 0)
(-2.62346e-05 -2.41505e-06 0)
(-2.48444e-05 -2.4439e-06 0)
(-2.3439e-05 -2.46654e-06 0)
(-2.20219e-05 -2.48281e-06 0)
(-2.05966e-05 -2.49263e-06 0)
(-1.91667e-05 -2.49596e-06 0)
(-1.77361e-05 -2.4926e-06 0)
(-1.63085e-05 -2.48239e-06 0)
(-1.48878e-05 -2.46527e-06 0)
(-1.3478e-05 -2.44122e-06 0)
(-1.20828e-05 -2.41025e-06 0)
(-1.07061e-05 -2.37238e-06 0)
(-9.35183e-06 -2.32752e-06 0)
(-8.0239e-06 -2.2757e-06 0)
(-6.72615e-06 -2.21693e-06 0)
(-5.46251e-06 -2.1512e-06 0)
(-4.23681e-06 -2.07864e-06 0)
(-3.05269e-06 -1.99945e-06 0)
(-1.91381e-06 -1.91377e-06 0)
(-8.23809e-07 -1.82173e-06 0)
(2.13754e-07 -1.72344e-06 0)
(1.19543e-06 -1.61909e-06 0)
(2.11807e-06 -1.50906e-06 0)
(2.97872e-06 -1.39369e-06 0)
(3.77445e-06 -1.27321e-06 0)
(4.50251e-06 -1.14796e-06 0)
(5.16045e-06 -1.01834e-06 0)
(5.746e-06 -8.84809e-07 0)
(6.2572e-06 -7.47934e-07 0)
(6.69249e-06 -6.08335e-07 0)
(7.05057e-06 -4.66616e-07 0)
(7.33051e-06 -3.23488e-07 0)
(7.53187e-06 -1.79769e-07 0)
(7.65463e-06 -3.62898e-08 0)
(7.6992e-06 1.05997e-07 0)
(7.66669e-06 2.45992e-07 0)
(7.55872e-06 3.82572e-07 0)
(7.37751e-06 5.14489e-07 0)
(7.12624e-06 6.40181e-07 0)
(6.8089e-06 7.57956e-07 0)
(6.4301e-06 8.6609e-07 0)
(5.99551e-06 9.62661e-07 0)
(5.51193e-06 1.04548e-06 0)
(4.98728e-06 1.11205e-06 0)
(4.43076e-06 1.15958e-06 0)
(3.85291e-06 1.18499e-06 0)
(3.26559e-06 1.18504e-06 0)
(2.68194e-06 1.15632e-06 0)
(2.11654e-06 1.09537e-06 0)
(1.58525e-06 9.98958e-07 0)
(1.10455e-06 8.64944e-07 0)
(6.90677e-07 6.93651e-07 0)
(3.58611e-07 4.89643e-07 0)
(1.26768e-07 2.66196e-07 0)
(1.92145e-08 6.07866e-08 0)
(2.60026e-08 -1.03408e-07 0)
(1.60292e-07 -4.81107e-07 0)
(4.33093e-07 -8.37147e-07 0)
(8.21349e-07 -1.14089e-06 0)
(1.29808e-06 -1.37596e-06 0)
(1.84142e-06 -1.54106e-06 0)
(2.42989e-06 -1.64367e-06 0)
(3.04222e-06 -1.69225e-06 0)
(3.65936e-06 -1.69408e-06 0)
(4.26469e-06 -1.65523e-06 0)
(4.84339e-06 -1.58069e-06 0)
(5.38256e-06 -1.47505e-06 0)
(5.87095e-06 -1.34251e-06 0)
(6.29857e-06 -1.18688e-06 0)
(6.65664e-06 -1.01148e-06 0)
(6.93791e-06 -8.19508e-07 0)
(7.13634e-06 -6.14088e-07 0)
(7.24702e-06 -3.98019e-07 0)
(7.26608e-06 -1.73812e-07 0)
(7.19047e-06 5.62467e-08 0)
(7.01814e-06 2.90069e-07 0)
(6.74789e-06 5.25819e-07 0)
(6.37915e-06 7.61668e-07 0)
(5.91214e-06 9.96145e-07 0)
(5.34777e-06 1.2278e-06 0)
(4.68716e-06 1.45553e-06 0)
(3.93212e-06 1.67832e-06 0)
(3.08509e-06 1.89505e-06 0)
(2.14881e-06 2.10474e-06 0)
(1.12637e-06 2.30663e-06 0)
(2.11482e-08 2.49999e-06 0)
(-1.16314e-06 2.68418e-06 0)
(-2.42257e-06 2.85872e-06 0)
(-3.75315e-06 3.02322e-06 0)
(-5.15033e-06 3.17705e-06 0)
(-6.60932e-06 3.31975e-06 0)
(-8.12566e-06 3.45118e-06 0)
(-9.69462e-06 3.57117e-06 0)
(-1.13112e-05 3.6795e-06 0)
(-1.29704e-05 3.77605e-06 0)
(-1.46672e-05 3.86063e-06 0)
(-1.63964e-05 3.93316e-06 0)
(-1.8153e-05 3.99368e-06 0)
(-1.99319e-05 4.0422e-06 0)
(-2.1728e-05 4.07887e-06 0)
(-2.35362e-05 4.10389e-06 0)
(-2.53516e-05 4.11721e-06 0)
(-2.71688e-05 4.11884e-06 0)
(-2.89831e-05 4.10906e-06 0)
(-3.07898e-05 4.08814e-06 0)
(-3.2584e-05 4.05631e-06 0)
(-3.4361e-05 4.01378e-06 0)
(-3.61163e-05 3.96076e-06 0)
(-3.78453e-05 3.89744e-06 0)
(-3.95437e-05 3.82402e-06 0)
(-4.12072e-05 3.74093e-06 0)
(-4.28321e-05 3.64865e-06 0)
(-4.44143e-05 3.54754e-06 0)
(-4.595e-05 3.43791e-06 0)
(-4.74354e-05 3.32001e-06 0)
(-4.88671e-05 3.19415e-06 0)
(-5.02416e-05 3.06072e-06 0)
(-5.15558e-05 2.92014e-06 0)
(-5.28067e-05 2.77287e-06 0)
(-5.39916e-05 2.61925e-06 0)
(-5.51078e-05 2.4597e-06 0)
(-5.61527e-05 2.29468e-06 0)
(-5.7124e-05 2.12457e-06 0)
(-5.80196e-05 1.94968e-06 0)
(-5.88375e-05 1.77041e-06 0)
(-5.95758e-05 1.58722e-06 0)
(-6.02332e-05 1.40063e-06 0)
(-6.08082e-05 1.21116e-06 0)
(-6.12995e-05 1.01916e-06 0)
(-6.17061e-05 8.24926e-07 0)
(-6.2027e-05 6.28865e-07 0)
(-6.22618e-05 4.31459e-07 0)
(-6.24098e-05 2.33192e-07 0)
(-6.24708e-05 3.45219e-08 0)
(-6.24448e-05 -1.64139e-07 0)
(-6.23318e-05 -3.62383e-07 0)
(-6.21321e-05 -5.59735e-07 0)
(-6.18462e-05 -7.55773e-07 0)
(-6.14747e-05 -9.50179e-07 0)
(-6.10183e-05 -1.1425e-06 0)
(-6.04781e-05 -1.33218e-06 0)
(-5.98553e-05 -1.51883e-06 0)
(-5.91513e-05 -1.70205e-06 0)
(-5.83677e-05 -1.88146e-06 0)
(-5.7506e-05 -2.05669e-06 0)
(-5.65684e-05 -2.22732e-06 0)
(-5.55569e-05 -2.39293e-06 0)
(-5.44737e-05 -2.55315e-06 0)
(-5.33211e-05 -2.70766e-06 0)
(-5.21018e-05 -2.8561e-06 0)
(-5.08185e-05 -2.99806e-06 0)
(-4.94742e-05 -3.13315e-06 0)
(-4.80719e-05 -3.26101e-06 0)
(-4.66148e-05 -3.38126e-06 0)
(-4.51063e-05 -3.49359e-06 0)
(-4.35498e-05 -3.59768e-06 0)
(-4.1949e-05 -3.69318e-06 0)
(-4.03076e-05 -3.77983e-06 0)
(-3.86295e-05 -3.85731e-06 0)
(-3.69188e-05 -3.92534e-06 0)
(-3.51796e-05 -3.9837e-06 0)
(-3.3416e-05 -4.03213e-06 0)
(-3.16325e-05 -4.07041e-06 0)
(-2.98336e-05 -4.09829e-06 0)
(-2.80237e-05 -4.11548e-06 0)
(-2.62075e-05 -4.12189e-06 0)
(-2.43895e-05 -4.11743e-06 0)
(-2.25745e-05 -4.10193e-06 0)
(-2.07674e-05 -4.07527e-06 0)
(-1.8973e-05 -4.03731e-06 0)
(-1.71962e-05 -3.98794e-06 0)
(-1.54419e-05 -3.92721e-06 0)
(-1.37148e-05 -3.8551e-06 0)
(-1.20199e-05 -3.77162e-06 0)
(-1.03619e-05 -3.67688e-06 0)
(-8.74562e-06 -3.57096e-06 0)
(-7.17598e-06 -3.45391e-06 0)
(-5.65758e-06 -3.32594e-06 0)
(-4.19491e-06 -3.18737e-06 0)
(-2.79244e-06 -3.0385e-06 0)
(-1.45449e-06 -2.87963e-06 0)
(-1.85357e-07 -2.71103e-06 0)
(1.01089e-06 -2.53308e-06 0)
(2.13062e-06 -2.34633e-06 0)
(3.17032e-06 -2.15134e-06 0)
(4.12658e-06 -1.94872e-06 0)
(4.9964e-06 -1.73916e-06 0)
(5.77704e-06 -1.52344e-06 0)
(6.46605e-06 -1.30236e-06 0)
(7.06151e-06 -1.07689e-06 0)
(7.56192e-06 -8.48101e-07 0)
(7.96618e-06 -6.17154e-07 0)
(8.27376e-06 -3.85309e-07 0)
(8.48471e-06 -1.54004e-07 0)
(8.5996e-06 7.52178e-08 0)
(8.61974e-06 3.00635e-07 0)
(8.54728e-06 5.20321e-07 0)
(8.38498e-06 7.32252e-07 0)
(8.13656e-06 9.3418e-07 0)
(7.80688e-06 1.12348e-06 0)
(7.4017e-06 1.29727e-06 0)
(6.92787e-06 1.45249e-06 0)
(6.39344e-06 1.58581e-06 0)
(5.80776e-06 1.69348e-06 0)
(5.18158e-06 1.77137e-06 0)
(4.52708e-06 1.81504e-06 0)
(3.85798e-06 1.81976e-06 0)
(3.18931e-06 1.78069e-06 0)
(2.53741e-06 1.6932e-06 0)
(1.91989e-06 1.55317e-06 0)
(1.35533e-06 1.35784e-06 0)
(8.62245e-07 1.10746e-06 0)
(4.58271e-07 8.07226e-07 0)
(1.67794e-07 4.71282e-07 0)
(2.73029e-08 1.37024e-07 0)
(3.40512e-08 -1.99204e-07 0)
(1.95209e-07 -7.16302e-07 0)
(5.12527e-07 -1.1936e-06 0)
(9.50452e-07 -1.59948e-06 0)
(1.47816e-06 -1.91477e-06 0)
(2.0722e-06 -2.13664e-06 0)
(2.70985e-06 -2.27325e-06 0)
(3.36884e-06 -2.33492e-06 0)
(4.02872e-06 -2.33128e-06 0)
(4.67124e-06 -2.27047e-06 0)
(5.27994e-06 -2.15936e-06 0)
(5.84016e-06 -2.004e-06 0)
(6.33927e-06 -1.81015e-06 0)
(6.76615e-06 -1.58321e-06 0)
(7.11107e-06 -1.32805e-06 0)
(7.36566e-06 -1.04916e-06 0)
(7.52304e-06 -7.5086e-07 0)
(7.5776e-06 -4.37033e-07 0)
(7.52484e-06 -1.11399e-07 0)
(7.36139e-06 2.22733e-07 0)
(7.08483e-06 5.62452e-07 0)
(6.69366e-06 9.05021e-07 0)
(6.18724e-06 1.248e-06 0)
(5.56576e-06 1.58915e-06 0)
(4.83022e-06 1.92631e-06 0)
(3.9822e-06 2.25773e-06 0)
(3.02361e-06 2.58191e-06 0)
(1.95719e-06 2.89734e-06 0)
(7.8622e-07 3.20268e-06 0)
(-4.85811e-07 3.49676e-06 0)
(-1.8549e-06 3.77841e-06 0)
(-3.31654e-06 4.04666e-06 0)
(-4.86612e-06 4.30069e-06 0)
(-6.49896e-06 4.53991e-06 0)
(-8.20991e-06 4.7638e-06 0)
(-9.99339e-06 4.97165e-06 0)
(-1.18439e-05 5.16294e-06 0)
(-1.37558e-05 5.33741e-06 0)
(-1.57232e-05 5.49476e-06 0)
(-1.77404e-05 5.6348e-06 0)
(-1.98013e-05 5.75742e-06 0)
(-2.18999e-05 5.86249e-06 0)
(-2.40302e-05 5.94996e-06 0)
(-2.6186e-05 6.0198e-06 0)
(-2.83612e-05 6.0721e-06 0)
(-3.05499e-05 6.10711e-06 0)
(-3.27463e-05 6.12503e-06 0)
(-3.49441e-05 6.12596e-06 0)
(-3.71376e-05 6.11007e-06 0)
(-3.9321e-05 6.07763e-06 0)
(-4.14886e-05 6.02904e-06 0)
(-4.36348e-05 5.96467e-06 0)
(-4.57544e-05 5.88492e-06 0)
(-4.78419e-05 5.79018e-06 0)
(-4.98921e-05 5.68077e-06 0)
(-5.19e-05 5.55706e-06 0)
(-5.38607e-05 5.41957e-06 0)
(-5.57695e-05 5.26887e-06 0)
(-5.76221e-05 5.1056e-06 0)
(-5.94139e-05 4.93021e-06 0)
(-6.11408e-05 4.74319e-06 0)
(-6.27987e-05 4.54505e-06 0)
(-6.43838e-05 4.33634e-06 0)
(-6.58925e-05 4.11765e-06 0)
(-6.73216e-05 3.88956e-06 0)
(-6.86676e-05 3.65266e-06 0)
(-6.99278e-05 3.40761e-06 0)
(-7.10993e-05 3.15505e-06 0)
(-7.21797e-05 2.89558e-06 0)
(-7.31664e-05 2.62977e-06 0)
(-7.40574e-05 2.35816e-06 0)
(-7.48506e-05 2.08133e-06 0)
(-7.55445e-05 1.80005e-06 0)
(-7.61377e-05 1.51504e-06 0)
(-7.6629e-05 1.22684e-06 0)
(-7.70171e-05 9.36035e-07 0)
(-7.73014e-05 6.43296e-07 0)
(-7.74813e-05 3.49263e-07 0)
(-7.75564e-05 5.45642e-08 0)
(-7.75266e-05 -2.40163e-07 0)
(-7.7392e-05 -5.34286e-07 0)
(-7.7153e-05 -8.27139e-07 0)
(-7.68103e-05 -1.11803e-06 0)
(-7.63644e-05 -1.40639e-06 0)
(-7.58162e-05 -1.69164e-06 0)
(-7.51671e-05 -1.97309e-06 0)
(-7.44185e-05 -2.25013e-06 0)
(-7.3572e-05 -2.52216e-06 0)
(-7.26295e-05 -2.78854e-06 0)
(-7.1593e-05 -3.04874e-06 0)
(-7.04648e-05 -3.30221e-06 0)
(-6.92474e-05 -3.54832e-06 0)
(-6.79435e-05 -3.78646e-06 0)
(-6.6556e-05 -4.01606e-06 0)
(-6.5088e-05 -4.23662e-06 0)
(-6.35426e-05 -4.44763e-06 0)
(-6.19235e-05 -4.64852e-06 0)
(-6.02343e-05 -4.83873e-06 0)
(-5.84787e-05 -5.01774e-06 0)
(-5.66608e-05 -5.18507e-06 0)
(-5.47848e-05 -5.34024e-06 0)
(-5.2855e-05 -5.48275e-06 0)
(-5.08759e-05 -5.61219e-06 0)
(-4.88522e-05 -5.72816e-06 0)
(-4.67886e-05 -5.83019e-06 0)
(-4.469e-05 -5.91789e-06 0)
(-4.25616e-05 -5.99094e-06 0)
(-4.04085e-05 -6.04903e-06 0)
(-3.8236e-05 -6.09188e-06 0)
(-3.60494e-05 -6.11907e-06 0)
(-3.38545e-05 -6.13027e-06 0)
(-3.16565e-05 -6.12534e-06 0)
(-2.94613e-05 -6.10416e-06 0)
(-2.72744e-05 -6.06657e-06 0)
(-2.51017e-05 -6.01244e-06 0)
(-2.2949e-05 -5.94163e-06 0)
(-2.0822e-05 -5.85406e-06 0)
(-1.87265e-05 -5.74977e-06 0)
(-1.66683e-05 -5.62876e-06 0)
(-1.46531e-05 -5.49116e-06 0)
(-1.26866e-05 -5.33721e-06 0)
(-1.07744e-05 -5.16709e-06 0)
(-8.92206e-06 -4.98096e-06 0)
(-7.13509e-06 -4.77918e-06 0)
(-5.41868e-06 -4.56224e-06 0)
(-3.77789e-06 -4.33064e-06 0)
(-2.21767e-06 -4.08494e-06 0)
(-7.42835e-07 -3.82567e-06 0)
(6.42198e-07 -3.55352e-06 0)
(1.93329e-06 -3.26933e-06 0)
(3.12649e-06 -2.97406e-06 0)
(4.21827e-06 -2.66873e-06 0)
(5.20546e-06 -2.35448e-06 0)
(6.08528e-06 -2.03258e-06 0)
(6.85543e-06 -1.70437e-06 0)
(7.51415e-06 -1.3714e-06 0)
(8.06022e-06 -1.03541e-06 0)
(8.49306e-06 -6.98262e-07 0)
(8.81268e-06 -3.61986e-07 0)
(9.01981e-06 -2.88875e-08 0)
(9.11604e-06 2.98542e-07 0)
(9.1038e-06 6.17561e-07 0)
(8.98641e-06 9.25162e-07 0)
(8.76822e-06 1.2181e-06 0)
(8.45463e-06 1.49282e-06 0)
(8.0522e-06 1.74535e-06 0)
(7.56884e-06 1.97126e-06 0)
(7.01368e-06 2.16585e-06 0)
(6.39711e-06 2.32405e-06 0)
(5.7311e-06 2.44028e-06 0)
(5.02919e-06 2.50861e-06 0)
(4.30633e-06 2.52293e-06 0)
(3.57896e-06 2.47698e-06 0)
(2.86489e-06 2.3648e-06 0)
(2.18315e-06 2.18127e-06 0)
(1.55402e-06 1.92285e-06 0)
(9.98336e-07 1.58895e-06 0)
(5.36794e-07 1.1839e-06 0)
(1.99421e-07 7.20404e-07 0)
(3.32581e-08 2.32496e-07 0)
(3.88338e-08 -3.09556e-07 0)
(2.1911e-07 -9.85697e-07 0)
(5.70248e-07 -1.59228e-06 0)
(1.0449e-06 -2.10177e-06 0)
(1.60877e-06 -2.49606e-06 0)
(2.23635e-06 -2.77256e-06 0)
(2.9036e-06 -2.94012e-06 0)
(3.58728e-06 -3.01071e-06 0)
(4.26572e-06 -2.99577e-06 0)
(4.91973e-06 -2.90562e-06 0)
(5.53182e-06 -2.74927e-06 0)
(6.08622e-06 -2.53447e-06 0)
(6.56903e-06 -2.2686e-06 0)
(6.96828e-06 -1.95857e-06 0)
(7.27342e-06 -1.61087e-06 0)
(7.47542e-06 -1.23154e-06 0)
(7.5667e-06 -8.26132e-07 0)
(7.54105e-06 -3.99882e-07 0)
(7.39348e-06 4.2439e-08 0)
(7.12032e-06 4.96363e-07 0)
(6.71893e-06 9.57828e-07 0)
(6.18767e-06 1.42319e-06 0)
(5.5258e-06 1.88927e-06 0)
(4.73341e-06 2.35294e-06 0)
(3.81169e-06 2.81146e-06 0)
(2.76248e-06 3.26225e-06 0)
(1.58802e-06 3.70311e-06 0)
(2.91331e-07 4.1321e-06 0)
(-1.12391e-06 4.54736e-06 0)
(-2.65373e-06 4.94729e-06 0)
(-4.29368e-06 5.33052e-06 0)
(-6.03869e-06 5.6956e-06 0)
(-7.88334e-06 6.04126e-06 0)
(-9.82213e-06 6.36658e-06 0)
(-1.18493e-05 6.67088e-06 0)
(-1.39588e-05 6.95337e-06 0)
(-1.61441e-05 7.21335e-06 0)
(-1.83987e-05 7.45036e-06 0)
(-2.07161e-05 7.66393e-06 0)
(-2.30894e-05 7.85373e-06 0)
(-2.55118e-05 8.01963e-06 0)
(-2.79765e-05 8.1615e-06 0)
(-3.04765e-05 8.2793e-06 0)
(-3.30049e-05 8.37305e-06 0)
(-3.55544e-05 8.44273e-06 0)
(-3.81184e-05 8.48851e-06 0)
(-4.069e-05 8.51075e-06 0)
(-4.32623e-05 8.50971e-06 0)
(-4.58286e-05 8.48566e-06 0)
(-4.83822e-05 8.43895e-06 0)
(-5.09165e-05 8.36998e-06 0)
(-5.34251e-05 8.2792e-06 0)
(-5.59018e-05 8.16712e-06 0)
(-5.83405e-05 8.03442e-06 0)
(-6.07353e-05 7.88168e-06 0)