/*--------------------------------*- C++ -*----------------------------------*\
  =========                 |
  \\      /  F ield         | OpenFOAM: The Open Source CFD Toolbox
   \\    /   O peration     | Website:  https://openfoam.org
    \\  /    A nd           | Version:  7
     \\/     M anipulation  |
\*---------------------------------------------------------------------------*/
FoamFile
{
    version     2.0;
    format      ascii;
    class       volVectorField;
    location    "0.475";
    object      U;
}
// * * * * * * * * * * * * * * * * * * * * * * * * * * * * * * * * * * * * * //

dimensions      [0 1 -1 0 0 0 0];

internalField   nonuniform List<vector> 
12800
(
(3.16539e-06 -3.35056e-06 0)
(1.80839e-05 -9.75701e-06 0)
(4.4002e-05 -1.19864e-05 0)
(7.03007e-05 -1.10767e-05 0)
(9.03856e-05 -8.4195e-06 0)
(0.000100928 -4.87328e-06 0)
(0.000100131 -9.34825e-07 0)
(8.71469e-05 3.1028e-06 0)
(6.17644e-05 7.06864e-06 0)
(2.4193e-05 1.08629e-05 0)
(-2.51111e-05 1.44237e-05 0)
(-8.55163e-05 1.77301e-05 0)
(-0.00015628 2.07634e-05 0)
(-0.000236621 2.35201e-05 0)
(-0.000325727 2.60048e-05 0)
(-0.000422792 2.82273e-05 0)
(-0.000527027 3.02005e-05 0)
(-0.000637673 3.19395e-05 0)
(-0.000754015 3.34612e-05 0)
(-0.000875378 3.47829e-05 0)
(-0.00100114 3.59225e-05 0)
(-0.00113073 3.68975e-05 0)
(-0.00126363 3.77253e-05 0)
(-0.00139937 3.84226e-05 0)
(-0.00153754 3.90053e-05 0)
(-0.00167776 3.94885e-05 0)
(-0.00181971 3.98865e-05 0)
(-0.00196312 4.02124e-05 0)
(-0.00210774 4.04782e-05 0)
(-0.00225339 4.06951e-05 0)
(-0.00239989 4.08735e-05 0)
(-0.00254712 4.10223e-05 0)
(-0.00269498 4.115e-05 0)
(-0.00284339 4.12638e-05 0)
(-0.00299229 4.13705e-05 0)
(-0.00314167 4.14757e-05 0)
(-0.00329151 4.15847e-05 0)
(-0.00344182 4.17019e-05 0)
(-0.00359262 4.18313e-05 0)
(-0.00374395 4.19759e-05 0)
(-0.00389585 4.21388e-05 0)
(-0.00404838 4.23223e-05 0)
(-0.00420161 4.25286e-05 0)
(-0.0043556 4.27592e-05 0)
(-0.00451044 4.30157e-05 0)
(-0.00466621 4.3299e-05 0)
(-0.00482298 4.361e-05 0)
(-0.00498086 4.39494e-05 0)
(-0.00513993 4.43176e-05 0)
(-0.00530028 4.47148e-05 0)
(-0.00546201 4.51412e-05 0)
(-0.00562522 4.55967e-05 0)
(-0.00578999 4.60811e-05 0)
(-0.00595641 4.65941e-05 0)
(-0.00612458 4.7135e-05 0)
(-0.00629459 4.77034e-05 0)
(-0.00646652 4.82984e-05 0)
(-0.00664045 4.89192e-05 0)
(-0.00681646 4.95644e-05 0)
(-0.00699463 5.02329e-05 0)
(-0.00717501 5.09233e-05 0)
(-0.00735769 5.16337e-05 0)
(-0.0075427 5.23625e-05 0)
(-0.0077301 5.31076e-05 0)
(-0.00791994 5.38665e-05 0)
(-0.00811223 5.46368e-05 0)
(-0.008307 5.54155e-05 0)
(-0.00850427 5.61997e-05 0)
(-0.00870402 5.69859e-05 0)
(-0.00890625 5.77704e-05 0)
(-0.00911092 5.8549e-05 0)
(-0.009318 5.93173e-05 0)
(-0.00952741 6.00705e-05 0)
(-0.00973908 6.08036e-05 0)
(-0.00995291 6.15108e-05 0)
(-0.0101688 6.21862e-05 0)
(-0.0103866 6.28234e-05 0)
(-0.0106061 6.34155e-05 0)
(-0.0108271 6.39552e-05 0)
(-0.0110495 6.44345e-05 0)
(-0.011273 6.48452e-05 0)
(-0.0114974 6.51786e-05 0)
(-0.0117222 6.54256e-05 0)
(-0.0119472 6.55763e-05 0)
(-0.012172 6.56205e-05 0)
(-0.0123963 6.55477e-05 0)
(-0.0126195 6.53466e-05 0)
(-0.0128412 6.5006e-05 0)
(-0.0130608 6.45139e-05 0)
(-0.0132779 6.38582e-05 0)
(-0.0134918 6.30264e-05 0)
(-0.013702 6.20057e-05 0)
(-0.0139076 6.07832e-05 0)
(-0.014108 5.9346e-05 0)
(-0.0143024 5.7681e-05 0)
(-0.0144901 5.57755e-05 0)
(-0.0146702 5.36167e-05 0)
(-0.0148418 5.11924e-05 0)
(-0.015004 4.84906e-05 0)
(-0.0151558 4.55002e-05 0)
(-0.0152963 4.22108e-05 0)
(-0.0154244 3.86131e-05 0)
(-0.0155392 3.46988e-05 0)
(-0.0156395 3.04612e-05 0)
(-0.0157243 2.58952e-05 0)
(-0.0157925 2.09975e-05 0)
(-0.0158431 1.57668e-05 0)
(-0.0158749 1.02043e-05 0)
(-0.015887 4.31378e-06 0)
(-0.0158782 -1.89762e-06 0)
(-0.0158476 -8.42076e-06 0)
(-0.0157942 -1.52425e-05 0)
(-0.0157171 -2.23461e-05 0)
(-0.0156154 -2.97112e-05 0)
(-0.0154885 -3.73136e-05 0)
(-0.0153356 -4.51246e-05 0)
(-0.0151562 -5.31118e-05 0)
(-0.0149498 -6.12382e-05 0)
(-0.0147161 -6.94626e-05 0)
(-0.014455 -7.77397e-05 0)
(-0.0141663 -8.60199e-05 0)
(-0.0138504 -9.42499e-05 0)
(-0.0135074 -0.000102373 0)
(-0.013138 -0.000110328 0)
(-0.0127429 -0.000118052 0)
(-0.0123229 -0.000125479 0)
(-0.0118792 -0.000132543 0)
(-0.0114133 -0.000139174 0)
(-0.0109266 -0.000145303 0)
(-0.0104209 -0.000150862 0)
(-0.00989839 -0.000155783 0)
(-0.00936116 -0.000160002 0)
(-0.00881166 -0.000163455 0)
(-0.00825251 -0.000166086 0)
(-0.00768649 -0.00016784 0)
(-0.00711656 -0.00016867 0)
(-0.0065458 -0.000168533 0)
(-0.00597742 -0.000167397 0)
(-0.00541471 -0.000165234 0)
(-0.00486104 -0.000162025 0)
(-0.00431982 -0.00015776 0)
(-0.00379447 -0.000152437 0)
(-0.0032884 -0.000146061 0)
(-0.00280497 -0.000138648 0)
(-0.00234748 -0.000130219 0)
(-0.00191911 -0.000120802 0)
(-0.00152293 -0.000110435 0)
(-0.00116184 -9.91604e-05 0)
(-0.00083854 -8.70276e-05 0)
(-0.000555496 -7.40964e-05 0)
(-0.000314888 -6.04394e-05 0)
(-0.000118526 -4.61525e-05 0)
(3.22612e-05 -3.1374e-05 0)
(0.00013682 -1.63224e-05 0)
(0.000195507 -1.3771e-06 0)
(0.000210247 1.27634e-05 0)
(0.000185386 2.48141e-05 0)
(0.000129582 3.22992e-05 0)
(6.1612e-05 3.06106e-05 0)
(1.39211e-05 1.39413e-05 0)
(9.68264e-06 -1.83805e-05 0)
(4.16609e-05 -4.1777e-05 0)
(8.82445e-05 -4.79458e-05 0)
(0.000130829 -4.11377e-05 0)
(0.000156948 -2.60434e-05 0)
(0.000159241 -6.02499e-06 0)
(0.000133088 1.66439e-05 0)
(7.58937e-05 4.04366e-05 0)
(-1.33941e-05 6.43387e-05 0)
(-0.000134731 8.76789e-05 0)
(-0.000287316 0.000110012 0)
(-0.000469823 0.000131073 0)
(-0.000680577 0.000150689 0)
(-0.000917693 0.000168773 0)
(-0.00117917 0.000185295 0)
(-0.00146295 0.000200269 0)
(-0.001767 0.000213736 0)
(-0.00208934 0.000225762 0)
(-0.00242804 0.000236427 0)
(-0.00278131 0.000245821 0)
(-0.00314746 0.00025404 0)
(-0.0035249 0.000261185 0)
(-0.00391221 0.000267354 0)
(-0.00430808 0.000272648 0)
(-0.00471133 0.000277164 0)
(-0.00512091 0.000280993 0)
(-0.00553591 0.000284226 0)
(-0.0059555 0.000286946 0)
(-0.00637901 0.00028923 0)
(-0.00680584 0.000291151 0)
(-0.00723549 0.000292777 0)
(-0.00766757 0.000294168 0)
(-0.00810176 0.000295381 0)
(-0.00853781 0.000296466 0)
(-0.00897555 0.000297467 0)
(-0.00941487 0.000298427 0)
(-0.00985571 0.000299379 0)
(-0.0102981 0.000300358 0)
(-0.010742 0.000301389 0)
(-0.0111875 0.000302499 0)
(-0.0116347 0.000303706 0)
(-0.0120838 0.000305031 0)
(-0.012535 0.000306487 0)
(-0.0129883 0.000308089 0)
(-0.0134441 0.000309846 0)
(-0.0139025 0.000311767 0)
(-0.0143637 0.00031386 0)
(-0.014828 0.000316128 0)
(-0.0152957 0.000318577 0)
(-0.0157669 0.000321208 0)
(-0.016242 0.000324022 0)
(-0.0167211 0.000327019 0)
(-0.0172046 0.000330197 0)
(-0.0176926 0.000333554 0)
(-0.0181854 0.000337086 0)
(-0.0186833 0.000340788 0)
(-0.0191865 0.000344653 0)
(-0.0196952 0.000348676 0)
(-0.0202095 0.000352846 0)
(-0.0207298 0.000357154 0)
(-0.0212561 0.000361589 0)
(-0.0217886 0.000366138 0)
(-0.0223275 0.000370787 0)
(-0.0228728 0.000375521 0)
(-0.0234247 0.000380322 0)
(-0.0239831 0.00038517 0)
(-0.0245483 0.000390045 0)
(-0.02512 0.000394924 0)
(-0.0256984 0.000399782 0)
(-0.0262833 0.000404591 0)
(-0.0268746 0.000409322 0)
(-0.0274721 0.000413943 0)
(-0.0280756 0.00041842 0)
(-0.028685 0.000422716 0)
(-0.0292997 0.000426792 0)
(-0.0299195 0.000430605 0)
(-0.030544 0.00043411 0)
(-0.0311725 0.00043726 0)
(-0.0318046 0.000440004 0)
(-0.0324395 0.000442288 0)
(-0.0330766 0.000444056 0)
(-0.033715 0.000445248 0)
(-0.0343537 0.000445802 0)
(-0.034992 0.000445654 0)
(-0.0356285 0.000444734 0)
(-0.0362621 0.000442973 0)
(-0.0368916 0.000440299 0)
(-0.0375156 0.000436636 0)
(-0.0381325 0.000431907 0)
(-0.0387408 0.000426034 0)
(-0.0393387 0.000418937 0)
(-0.0399244 0.000410535 0)
(-0.040496 0.000400748 0)
(-0.0410514 0.000389495 0)
(-0.0415885 0.000376695 0)
(-0.042105 0.00036227 0)
(-0.0425985 0.000346145 0)
(-0.0430666 0.000328245 0)
(-0.0435067 0.000308501 0)
(-0.0439162 0.000286851 0)
(-0.0442923 0.000263236 0)
(-0.0446323 0.000237605 0)
(-0.0449333 0.000209917 0)
(-0.0451924 0.00018014 0)
(-0.0454066 0.000148253 0)
(-0.0455732 0.000114247 0)
(-0.0456891 7.81299e-05 0)
(-0.0457515 3.9922e-05 0)
(-0.0457574 -3.37643e-07 0)
(-0.0457043 -4.25916e-05 0)
(-0.0455893 -8.67633e-05 0)
(-0.04541 -0.000132754 0)
(-0.0451641 -0.000180444 0)
(-0.0448493 -0.000229689 0)
(-0.0444637 -0.00028032 0)
(-0.0440056 -0.000332142 0)
(-0.0434737 -0.000384938 0)
(-0.0428668 -0.000438461 0)
(-0.0421844 -0.000492442 0)
(-0.041426 -0.000546583 0)
(-0.0405919 -0.000600565 0)
(-0.0396826 -0.000654045 0)
(-0.0386992 -0.000706658 0)
(-0.0376432 -0.000758022 0)
(-0.0365169 -0.000807737 0)
(-0.0353229 -0.00085539 0)
(-0.0340646 -0.00090056 0)
(-0.0327456 -0.000942819 0)
(-0.0313705 -0.00098174 0)
(-0.0299443 -0.0010169 0)
(-0.0284725 -0.00104788 0)
(-0.0269612 -0.00107428 0)
(-0.0254172 -0.00109572 0)
(-0.0238476 -0.00111184 0)
(-0.0222601 -0.00112233 0)
(-0.0206625 -0.00112688 0)
(-0.0190634 -0.00112525 0)
(-0.0174715 -0.00111723 0)
(-0.0158956 -0.00110267 0)
(-0.0143449 -0.00108146 0)
(-0.0128287 -0.00105355 0)
(-0.0113561 -0.00101893 0)
(-0.00993634 -0.000977675 0)
(-0.00857848 -0.000929895 0)
(-0.00729131 -0.000875768 0)
(-0.00608334 -0.000815526 0)
(-0.00496267 -0.000749468 0)
(-0.00393687 -0.000677958 0)
(-0.00301289 -0.000601443 0)
(-0.00219691 -0.000520468 0)
(-0.00149413 -0.000435717 0)
(-0.000908528 -0.000348078 0)
(-0.000442521 -0.000258754 0)
(-9.63882e-05 -0.000169457 0)
(0.000132502 -8.27407e-05 0)
(0.000250906 -2.56567e-06 0)
(0.000271191 6.48026e-05 0)
(0.000213822 0.000109318 0)
(0.000114875 0.000115129 0)
(3.04269e-05 6.14881e-05 0)
(1.20666e-05 -4.42857e-05 0)
(4.82258e-05 -8.84231e-05 0)
(9.52688e-05 -9.48829e-05 0)
(0.000130483 -7.33593e-05 0)
(0.000138723 -3.26551e-05 0)
(0.00011055 2.0345e-05 0)
(3.96392e-05 8.05363e-05 0)
(-7.78241e-05 0.000144234 0)
(-0.000243612 0.00020882 0)
(-0.000457957 0.000272459 0)
(-0.000719959 0.000333881 0)
(-0.0010279 0.000392238 0)
(-0.0013795 0.00044698 0)
(-0.0017721 0.000497784 0)
(-0.00220282 0.000544499 0)
(-0.00266864 0.000587095 0)
(-0.00316655 0.00062564 0)
(-0.00369357 0.000660267 0)
(-0.0042468 0.000691162 0)
(-0.00482349 0.000718544 0)
(-0.00542103 0.000742657 0)
(-0.00603699 0.000763758 0)
(-0.00666913 0.000782111 0)
(-0.0073154 0.000797979 0)
(-0.00797394 0.000811623 0)
(-0.00864309 0.000823296 0)
(-0.00932137 0.000833241 0)
(-0.0100075 0.000841689 0)
(-0.0107003 0.000848857 0)
(-0.0113989 0.000854947 0)
(-0.0121023 0.000860148 0)
(-0.0128101 0.000864633 0)
(-0.0135215 0.000868561 0)
(-0.0142363 0.000872076 0)
(-0.014954 0.000875309 0)
(-0.0156745 0.000878376 0)
(-0.0163977 0.000881381 0)
(-0.0171234 0.000884417 0)
(-0.0178517 0.000887567 0)
(-0.0185828 0.000890902 0)
(-0.0193167 0.000894484 0)
(-0.0200536 0.000898367 0)
(-0.0207938 0.000902597 0)
(-0.0215376 0.000907212 0)
(-0.0222851 0.000912245 0)
(-0.0230368 0.000917722 0)
(-0.023793 0.000923665 0)
(-0.0245541 0.000930088 0)
(-0.0253204 0.000937004 0)
(-0.0260922 0.000944419 0)
(-0.02687 0.000952337 0)
(-0.0276542 0.000960757 0)
(-0.0284451 0.000969674 0)
(-0.0292431 0.00097908 0)
(-0.0300485 0.000988965 0)
(-0.0308618 0.000999312 0)
(-0.0316832 0.0010101 0)
(-0.0325131 0.00102132 0)
(-0.0333517 0.00103292 0)
(-0.0341995 0.0010449 0)
(-0.0350565 0.00105721 0)
(-0.0359231 0.00106981 0)
(-0.0367993 0.00108266 0)
(-0.0376855 0.00109571 0)
(-0.0385816 0.00110892 0)
(-0.0394877 0.00112223 0)
(-0.0404039 0.00113556 0)
(-0.04133 0.00114886 0)
(-0.0422661 0.00116205 0)
(-0.0432119 0.00117504 0)
(-0.0441672 0.00118776 0)
(-0.0451317 0.00120011 0)
(-0.0461049 0.00121198 0)
(-0.0470865 0.00122327 0)
(-0.0480759 0.00123387 0)
(-0.0490724 0.00124365 0)
(-0.0500752 0.00125249 0)
(-0.0510835 0.00126023 0)
(-0.0520963 0.00126675 0)
(-0.0531124 0.00127187 0)
(-0.0541307 0.00127545 0)
(-0.0551498 0.00127731 0)
(-0.0561682 0.00127728 0)
(-0.0571843 0.00127516 0)
(-0.0581962 0.00127077 0)
(-0.059202 0.00126392 0)
(-0.0601997 0.00125438 0)
(-0.0611869 0.00124197 0)
(-0.0621613 0.00122645 0)
(-0.0631202 0.00120762 0)
(-0.0640609 0.00118524 0)
(-0.0649804 0.00115911 0)
(-0.0658757 0.00112899 0)
(-0.0667435 0.00109467 0)
(-0.0675803 0.00105593 0)
(-0.0683826 0.00101256 0)
(-0.0691466 0.000964347 0)
(-0.0698685 0.000911106 0)
(-0.0705442 0.000852652 0)
(-0.0711696 0.000788821 0)
(-0.0717404 0.000719464 0)
(-0.0722522 0.000644456 0)
(-0.0727007 0.000563696 0)
(-0.0730813 0.000477112 0)
(-0.0733896 0.000384665 0)
(-0.073621 0.000286351 0)
(-0.0737712 0.000182207 0)
(-0.0738355 7.23135e-05 0)
(-0.0738099 -4.32017e-05 0)
(-0.07369 -0.000164159 0)
(-0.0734719 -0.000290323 0)
(-0.0731517 -0.0004214 0)
(-0.0727261 -0.000557036 0)
(-0.0721917 -0.000696811 0)
(-0.0715457 -0.000840239 0)
(-0.0707858 -0.000986766 0)
(-0.0699099 -0.00113577 0)
(-0.0689166 -0.00128655 0)
(-0.0678051 -0.00143836 0)
(-0.066575 -0.00159036 0)
(-0.0652268 -0.00174166 0)
(-0.0637616 -0.00189131 0)
(-0.0621813 -0.0020383 0)
(-0.0604885 -0.00218157 0)
(-0.0586867 -0.00232002 0)
(-0.0567803 -0.00245253 0)
(-0.0547744 -0.00257792 0)
(-0.0526751 -0.00269504 0)
(-0.0504894 -0.00280272 0)
(-0.0482251 -0.00289979 0)
(-0.0458909 -0.00298514 0)
(-0.0434964 -0.00305767 0)
(-0.0410518 -0.00311635 0)
(-0.0385684 -0.00316021 0)
(-0.0360577 -0.00318837 0)
(-0.0335324 -0.00320005 0)
(-0.0310051 -0.00319458 0)
(-0.0284895 -0.00317141 0)
(-0.0259992 -0.00313012 0)
(-0.0235482 -0.00307043 0)
(-0.0211506 -0.00299222 0)
(-0.0188207 -0.00289552 0)
(-0.0165724 -0.00278053 0)
(-0.0144195 -0.00264761 0)
(-0.0123756 -0.0024973 0)
(-0.0104535 -0.00233032 0)
(-0.00866528 -0.00214757 0)
(-0.00702245 -0.0019502 0)
(-0.00553521 -0.00173961 0)
(-0.00421253 -0.00151751 0)
(-0.00306173 -0.00128606 0)
(-0.00208811 -0.00104803 0)
(-0.00129442 -0.000807057 0)
(-0.000680101 -0.000568089 0)
(-0.00024031 -0.00033807 0)
(3.54717e-05 -0.00012695 0)
(0.000164931 5.0806e-05 0)
(0.000175066 0.00017432 0)
(0.000109159 0.00021397 0)
(3.19858e-05 0.000129043 0)
(1.1309e-05 -7.08688e-05 0)
(4.18207e-05 -0.000131347 0)
(7.42558e-05 -0.000130215 0)
(8.47444e-05 -8.39688e-05 0)
(5.71835e-05 -5.94597e-06 0)
(-1.88154e-05 9.31822e-05 0)
(-0.000150396 0.000205173 0)
(-0.000342006 0.000323833 0)
(-0.000595831 0.000444585 0)
(-0.000912273 0.000564099 0)
(-0.00129037 0.000679994 0)
(-0.00172816 0.000790612 0)
(-0.00222291 0.000894846 0)
(-0.00277141 0.000992004 0)
(-0.00337009 0.00108172 0)
(-0.00401522 0.00116386 0)
(-0.004703 0.0012385 0)
(-0.00542963 0.00130582 0)
(-0.00619143 0.00136613 0)
(-0.00698483 0.00141982 0)
(-0.00780646 0.00146729 0)
(-0.00865316 0.00150903 0)
(-0.00952199 0.0015455 0)
(-0.0104102 0.00157719 0)
(-0.0113155 0.00160458 0)
(-0.0122354 0.00162814 0)
(-0.0131682 0.00164833 0)
(-0.0141119 0.00166559 0)
(-0.0150651 0.00168031 0)
(-0.0160265 0.0016929 0)
(-0.016995 0.00170371 0)
(-0.0179696 0.00171307 0)
(-0.0189495 0.00172129 0)
(-0.0199342 0.00172865 0)
(-0.0209232 0.0017354 0)
(-0.0219161 0.00174176 0)
(-0.0229128 0.00174795 0)
(-0.0239132 0.00175414 0)
(-0.0249172 0.00176049 0)
(-0.0259249 0.00176715 0)
(-0.0269365 0.00177424 0)
(-0.0279523 0.00178187 0)
(-0.0289724 0.00179013 0)
(-0.0299973 0.00179909 0)
(-0.0310272 0.00180882 0)
(-0.0320626 0.00181938 0)
(-0.0331039 0.0018308 0)
(-0.0341515 0.00184312 0)
(-0.035206 0.00185637 0)
(-0.0362678 0.00187055 0)
(-0.0373374 0.00188567 0)
(-0.0384153 0.00190173 0)
(-0.0395019 0.00191873 0)
(-0.0405978 0.00193664 0)
(-0.0417033 0.00195544 0)
(-0.042819 0.00197511 0)
(-0.0439453 0.0019956 0)
(-0.0450825 0.00201687 0)
(-0.0462311 0.00203886 0)
(-0.0473913 0.00206152 0)
(-0.0485636 0.00208478 0)
(-0.0497481 0.00210856 0)
(-0.050945 0.00213278 0)
(-0.0521546 0.00215733 0)
(-0.0533769 0.00218212 0)
(-0.0546119 0.00220703 0)
(-0.0558597 0.00223193 0)
(-0.0571201 0.0022567 0)
(-0.0583929 0.00228117 0)
(-0.0596778 0.0023052 0)
(-0.0609745 0.0023286 0)
(-0.0622826 0.0023512 0)
(-0.0636014 0.0023728 0)
(-0.0649301 0.00239317 0)
(-0.0662681 0.0024121 0)
(-0.0676144 0.00242935 0)
(-0.0689678 0.00244466 0)
(-0.0703272 0.00245777 0)
(-0.071691 0.00246837 0)
(-0.0730579 0.00247619 0)
(-0.0744261 0.0024809 0)
(-0.0757936 0.00248217 0)
(-0.0771584 0.00247967 0)
(-0.0785183 0.00247303 0)
(-0.0798708 0.00246189 0)
(-0.0812131 0.00244587 0)
(-0.0825425 0.00242457 0)
(-0.0838559 0.0023976 0)
(-0.0851499 0.00236455 0)
(-0.0864211 0.00232501 0)
(-0.0876658 0.00227855 0)
(-0.0888799 0.00222477 0)
(-0.0900593 0.00216323 0)
(-0.0911997 0.00209354 0)
(-0.0922965 0.00201529 0)
(-0.0933449 0.00192808 0)
(-0.0943399 0.00183154 0)
(-0.0952764 0.00172532 0)
(-0.096149 0.00160909 0)
(-0.0969524 0.00148254 0)
(-0.0976808 0.00134543 0)
(-0.0983286 0.00119753 0)
(-0.0988901 0.00103868 0)
(-0.0993593 0.000868767 0)
(-0.0997305 0.000687736 0)
(-0.0999978 0.000495612 0)
(-0.100155 0.000292491 0)
(-0.100198 7.85565e-05 0)
(-0.100119 -0.00014592 0)
(-0.0999143 -0.000380567 0)
(-0.0995783 -0.000624912 0)
(-0.0991062 -0.000878368 0)
(-0.0984936 -0.00114024 0)
(-0.0977366 -0.00140969 0)
(-0.0968317 -0.0016858 0)
(-0.0957758 -0.00196747 0)
(-0.0945667 -0.00225352 0)
(-0.0932028 -0.00254262 0)
(-0.091683 -0.0028333 0)
(-0.0900074 -0.003124 0)
(-0.0881766 -0.00341302 0)
(-0.0861924 -0.00369855 0)
(-0.0840574 -0.00397868 0)
(-0.0817753 -0.00425143 0)
(-0.0793508 -0.00451472 0)
(-0.0767898 -0.00476642 0)
(-0.0740991 -0.00500436 0)
(-0.0712869 -0.00522636 0)
(-0.0683623 -0.00543022 0)
(-0.0653357 -0.00561379 0)
(-0.0622184 -0.00577495 0)
(-0.059023 -0.00591168 0)
(-0.0557629 -0.00602204 0)
(-0.0524525 -0.00610424 0)
(-0.0491072 -0.00615664 0)
(-0.0457431 -0.00617779 0)
(-0.042377 -0.00616643 0)
(-0.0390262 -0.00612155 0)
(-0.0357086 -0.00604239 0)
(-0.0324423 -0.00592846 0)
(-0.0292456 -0.00577954 0)
(-0.0261368 -0.00559573 0)
(-0.023134 -0.00537744 0)
(-0.020255 -0.00512541 0)
(-0.0175171 -0.00484072 0)
(-0.0149367 -0.00452484 0)
(-0.0125296 -0.0041796 0)
(-0.0103099 -0.00380731 0)
(-0.00829074 -0.0034108 0)
(-0.00648308 -0.00299356 0)
(-0.00489585 -0.00255992 0)
(-0.00353527 -0.00211535 0)
(-0.00240422 -0.00166688 0)
(-0.00150151 -0.00122381 0)
(-0.000820801 -0.000798582 0)
(-0.000349374 -0.000408244 0)
(-6.67693e-05 -7.62844e-05 0)
(5.69658e-05 0.000165163 0)
(6.64194e-05 0.000272628 0)
(2.46588e-05 0.000184702 0)
(8.77535e-06 -9.14877e-05 0)
(2.69064e-05 -0.000157917 0)
(3.33512e-05 -0.000138433 0)
(5.72361e-06 -5.62743e-05 0)
(-7.16922e-05 7.06185e-05 0)
(-0.000209452 0.000227804 0)
(-0.000414861 0.000403894 0)
(-0.000692503 0.000590112 0)
(-0.00104465 0.000779796 0)
(-0.00147168 0.000967967 0)
(-0.00197254 0.00115097 0)
(-0.00254499 0.0013262 0)
(-0.00318597 0.00149186 0)
(-0.00389179 0.00164678 0)
(-0.00465839 0.0017903 0)
(-0.00548142 0.00192215 0)
(-0.00635646 0.00204233 0)
(-0.00727906 0.0021511 0)
(-0.00824486 0.00224887 0)
(-0.00924965 0.00233618 0)
(-0.0102894 0.00241368 0)
(-0.0113603 0.00248204 0)
(-0.0124588 0.00254201 0)
(-0.0135817 0.00259432 0)
(-0.0147259 0.00263972 0)
(-0.0158888 0.00267895 0)
(-0.0170679 0.00271271 0)
(-0.0182611 0.00274168 0)
(-0.0194664 0.00276653 0)
(-0.0206822 0.00278786 0)
(-0.0219072 0.00280625 0)
(-0.0231401 0.00282222 0)
(-0.0243799 0.00283627 0)
(-0.0256259 0.00284883 0)
(-0.0268774 0.00286033 0)
(-0.0281341 0.00287113 0)
(-0.0293956 0.00288156 0)
(-0.0306617 0.00289192 0)
(-0.0319325 0.00290247 0)
(-0.0332079 0.00291344 0)
(-0.0344881 0.00292503 0)
(-0.0357734 0.00293742 0)
(-0.037064 0.00295077 0)
(-0.0383603 0.00296519 0)
(-0.0396628 0.0029808 0)
(-0.0409719 0.00299769 0)
(-0.0422881 0.00301593 0)
(-0.0436119 0.00303556 0)
(-0.0449438 0.00305664 0)
(-0.0462845 0.00307917 0)
(-0.0476345 0.00310318 0)
(-0.0489943 0.00312867 0)
(-0.0503646 0.00315561 0)
(-0.0517458 0.00318397 0)
(-0.0531385 0.00321373 0)
(-0.0545433 0.00324483 0)
(-0.0559606 0.0032772 0)
(-0.0573909 0.00331077 0)
(-0.0588346 0.00334545 0)
(-0.0602921 0.00338114 0)
(-0.0617636 0.00341773 0)
(-0.0632496 0.00345508 0)
(-0.0647502 0.00349306 0)
(-0.0662656 0.0035315 0)
(-0.0677957 0.00357023 0)
(-0.0693407 0.00360906 0)
(-0.0709005 0.00364779 0)
(-0.0724747 0.00368618 0)
(-0.0740632 0.003724 0)
(-0.0756655 0.00376098 0)
(-0.0772811 0.00379683 0)
(-0.0789094 0.00383126 0)
(-0.0805496 0.00386393 0)
(-0.0822006 0.00389451 0)
(-0.0838615 0.00392261 0)
(-0.085531 0.00394785 0)
(-0.0872077 0.00396982 0)
(-0.08889 0.00398807 0)
(-0.090576 0.00400215 0)
(-0.0922638 0.00401157 0)
(-0.0939512 0.00401582 0)
(-0.0956358 0.00401438 0)
(-0.097315 0.00400669 0)
(-0.0989858 0.00399219 0)
(-0.100645 0.00397028 0)
(-0.10229 0.00394037 0)
(-0.103916 0.00390182 0)
(-0.10552 0.00385401 0)
(-0.107098 0.00379628 0)
(-0.108646 0.00372798 0)
(-0.110158 0.00364847 0)
(-0.111629 0.00355707 0)
(-0.113056 0.00345314 0)
(-0.114432 0.00333605 0)
(-0.115752 0.00320515 0)
(-0.11701 0.00305985 0)
(-0.118199 0.00289958 0)
(-0.119315 0.00272379 0)
(-0.120349 0.00253198 0)
(-0.121296 0.00232372 0)
(-0.122149 0.00209862 0)
(-0.122901 0.00185637 0)
(-0.123545 0.00159673 0)
(-0.124074 0.00131957 0)
(-0.124481 0.00102484 0)
(-0.124759 0.000712613 0)
(-0.124901 0.00038309 0)
(-0.124902 3.65957e-05 0)
(-0.124753 -0.000326399 0)
(-0.124449 -0.000705266 0)
(-0.123984 -0.00109922 0)
(-0.123353 -0.00150728 0)
(-0.12255 -0.00192833 0)
(-0.12157 -0.00236101 0)
(-0.12041 -0.00280381 0)
(-0.119067 -0.00325501 0)
(-0.117538 -0.00371267 0)
(-0.115821 -0.00417469 0)
(-0.113915 -0.00463875 0)
(-0.111821 -0.00510235 0)
(-0.109539 -0.0055628 0)
(-0.107072 -0.00601726 0)
(-0.104424 -0.00646271 0)
(-0.101598 -0.00689603 0)
(-0.0986017 -0.00731395 0)
(-0.0954408 -0.00771314 0)
(-0.0921244 -0.00809019 0)
(-0.0886621 -0.00844169 0)
(-0.0850652 -0.0087642 0)
(-0.0813461 -0.00905436 0)
(-0.0775184 -0.00930886 0)
(-0.0735972 -0.00952454 0)
(-0.0695986 -0.00969839 0)
(-0.0655399 -0.0098276 0)
(-0.0614395 -0.00990962 0)
(-0.0573166 -0.0099422 0)
(-0.0531912 -0.00992339 0)
(-0.0490841 -0.00985161 0)
(-0.0450165 -0.0097257 0)
(-0.0410101 -0.0095449 0)
(-0.0370865 -0.00930892 0)
(-0.0332676 -0.00901796 0)
(-0.029575 -0.00867272 0)
(-0.0260297 -0.00827443 0)
(-0.0226522 -0.00782489 0)
(-0.0194621 -0.00732652 0)
(-0.0164776 -0.00678238 0)
(-0.0137158 -0.00619628 0)
(-0.0111915 -0.0055729 0)
(-0.00891772 -0.00491797 0)
(-0.00690458 -0.00423853 0)
(-0.00515909 -0.00354337 0)
(-0.00368443 -0.00284354 0)
(-0.0024792 -0.00215324 0)
(-0.00153648 -0.00149092 0)
(-0.00084283 -0.000880889 0)
(-0.000377069 -0.000355443 0)
(-0.000108861 4.28025e-05 0)
(3.38123e-06 0.000257839 0)
(1.32456e-05 0.000210822 0)
(5.28037e-06 -0.000102616 0)
(6.583e-06 -0.000160239 0)
(-2.12463e-05 -0.000109198 0)
(-9.71601e-05 2.1385e-05 0)
(-0.000235408 0.000209241 0)
(-0.000446089 0.000436334 0)
(-0.000736148 0.000688242 0)
(-0.00110988 0.000953655 0)
(-0.00156932 0.00122382 0)
(-0.00211466 0.00149205 0)
(-0.00274458 0.00175337 0)
(-0.00345656 0.00200411 0)
(-0.0042472 0.00224172 0)
(-0.00511241 0.0024645 0)
(-0.00604766 0.00267142 0)
(-0.00704813 0.00286201 0)
(-0.00810885 0.0030362 0)
(-0.00922484 0.00319429 0)
(-0.0103912 0.00333678 0)
(-0.0116031 0.0034644 0)
(-0.012856 0.00357799 0)
(-0.0141456 0.00367851 0)
(-0.0154677 0.00376695 0)
(-0.0168187 0.00384434 0)
(-0.0181951 0.00391174 0)
(-0.0195937 0.00397017 0)
(-0.0210118 0.00402064 0)
(-0.0224467 0.00406411 0)
(-0.0238962 0.00410152 0)
(-0.0253585 0.00413374 0)
(-0.0268318 0.00416158 0)
(-0.0283147 0.00418582 0)
(-0.029806 0.00420715 0)
(-0.0313048 0.00422624 0)
(-0.0328103 0.00424366 0)
(-0.034322 0.00425995 0)
(-0.0358394 0.00427561 0)
(-0.0373624 0.00429105 0)
(-0.0388908 0.00430667 0)
(-0.0404247 0.00432281 0)
(-0.0419641 0.00433977 0)
(-0.0435094 0.0043578 0)
(-0.0450608 0.00437713 0)
(-0.0466187 0.00439795 0)
(-0.0481836 0.00442042 0)
(-0.049756 0.00444467 0)
(-0.0513365 0.00447081 0)
(-0.0529255 0.00449892 0)
(-0.0545238 0.00452905 0)
(-0.0561319 0.00456124 0)
(-0.0577504 0.00459551 0)
(-0.05938 0.00463185 0)
(-0.0610214 0.00467024 0)
(-0.062675 0.00471064 0)
(-0.0643416 0.00475299 0)
(-0.0660217 0.00479721 0)
(-0.0677158 0.00484321 0)
(-0.0694245 0.00489087 0)
(-0.0711481 0.00494006 0)
(-0.0728871 0.00499062 0)
(-0.0746418 0.00504239 0)
(-0.0764125 0.00509517 0)
(-0.0781994 0.00514875 0)
(-0.0800025 0.00520289 0)
(-0.081822 0.00525733 0)
(-0.0836578 0.00531178 0)
(-0.0855097 0.00536595 0)
(-0.0873773 0.00541948 0)
(-0.0892603 0.00547203 0)
(-0.0911581 0.00552319 0)
(-0.0930701 0.00557255 0)
(-0.0949953 0.00561967 0)
(-0.0969328 0.00566406 0)
(-0.0988814 0.00570521 0)
(-0.10084 0.00574258 0)
(-0.102806 0.00577559 0)
(-0.104779 0.00580365 0)
(-0.106757 0.0058261 0)
(-0.108737 0.00584228 0)
(-0.110716 0.00585148 0)
(-0.112693 0.00585297 0)
(-0.114664 0.00584599 0)
(-0.116627 0.00582973 0)
(-0.118577 0.00580337 0)
(-0.120511 0.00576608 0)
(-0.122425 0.00571696 0)
(-0.124316 0.00565515 0)
(-0.126177 0.00557972 0)
(-0.128005 0.00548975 0)
(-0.129794 0.00538433 0)
(-0.131539 0.00526251 0)
(-0.133234 0.00512337 0)
(-0.134873 0.004966 0)
(-0.13645 0.00478948 0)
(-0.137959 0.00459296 0)
(-0.139393 0.00437559 0)
(-0.140744 0.00413657 0)
(-0.142005 0.00387516 0)
(-0.14317 0.00359069 0)
(-0.14423 0.00328256 0)
(-0.145178 0.00295026 0)
(-0.146005 0.00259339 0)
(-0.146705 0.00221166 0)
(-0.147269 0.00180492 0)
(-0.147689 0.00137315 0)
(-0.147957 0.000916517 0)
(-0.148066 0.000435344 0)
(-0.148008 -6.98477e-05 0)
(-0.147776 -0.000598333 0)
(-0.147363 -0.00114917 0)
(-0.146762 -0.00172117 0)
(-0.145967 -0.00231292 0)
(-0.144973 -0.00292275 0)
(-0.143775 -0.0035487 0)
(-0.142368 -0.00418857 0)
(-0.140748 -0.00483986 0)
(-0.138914 -0.00549981 0)
(-0.136863 -0.00616539 0)
(-0.134595 -0.00683327 0)
(-0.13211 -0.00749988 0)
(-0.129409 -0.0081614 0)
(-0.126496 -0.00881377 0)
(-0.123374 -0.00945272 0)
(-0.12005 -0.0100738 0)
(-0.116529 -0.0106724 0)
(-0.11282 -0.0112438 0)
(-0.108934 -0.0117831 0)
(-0.10488 -0.0122856 0)
(-0.100673 -0.0127464 0)
(-0.0963256 -0.0131608 0)
(-0.0918543 -0.013524 0)
(-0.0872759 -0.0138316 0)
(-0.0826089 -0.0140795 0)
(-0.077873 -0.0142635 0)
(-0.0730891 -0.0143802 0)
(-0.0682789 -0.0144263 0)
(-0.0634653 -0.0143991 0)
(-0.0586719 -0.0142965 0)
(-0.0539227 -0.0141167 0)
(-0.0492422 -0.0138587 0)
(-0.0446553 -0.0135222 0)
(-0.0401866 -0.0131075 0)
(-0.0358605 -0.0126156 0)
(-0.0317009 -0.0120484 0)
(-0.027731 -0.0114086 0)
(-0.023973 -0.0106996 0)
(-0.0204474 -0.00992611 0)
(-0.0171732 -0.00909362 0)
(-0.0141675 -0.00820901 0)
(-0.0114444 -0.00728064 0)
(-0.00901551 -0.00631867 0)
(-0.00688861 -0.00533558 0)
(-0.0050675 -0.00434681 0)
(-0.00355113 -0.00337174 0)
(-0.00233293 -0.00243486 0)
(-0.0014 -0.00156754 0)
(-0.000732065 -0.000810185 0)
(-0.000300403 -0.000214616 0)
(-6.94207e-05 0.00015272 0)
(3.22909e-07 0.000200267 0)
(1.27781e-06 -0.000102147 0)
(-1.71215e-05 -0.000132831 0)
(-8.50731e-05 -3.48067e-05 0)
(-0.00021683 0.000158033 0)
(-0.000424368 0.000419593 0)
(-0.000716818 0.000728561 0)
(-0.00110033 0.0010677 0)
(-0.00157855 0.00142329 0)
(-0.00215301 0.00178458 0)
(-0.00282347 0.00214321 0)
(-0.00358823 0.00249284 0)
(-0.0044444 0.00282878 0)
(-0.00538819 0.00314765 0)
(-0.00641513 0.00344717 0)
(-0.00752024 0.00372594 0)
(-0.00869829 0.00398324 0)
(-0.00994383 0.00421893 0)
(-0.0112514 0.0044333 0)
(-0.0126156 0.00462698 0)
(-0.0140312 0.00480085 0)
(-0.0154932 0.00495599 0)
(-0.0169967 0.00509361 0)
(-0.0185372 0.00521501 0)
(-0.0201105 0.00532153 0)
(-0.0217128 0.00541455 0)
(-0.0233406 0.00549541 0)
(-0.0249906 0.00556545 0)
(-0.0266601 0.00562595 0)
(-0.0283464 0.00567814 0)
(-0.0300474 0.0057232 0)
(-0.0317611 0.00576223 0)
(-0.0334859 0.00579624 0)
(-0.0352205 0.00582619 0)
(-0.0369637 0.00585295 0)
(-0.0387146 0.00587733 0)
(-0.0404725 0.00590005 0)
(-0.042237 0.00592177 0)
(-0.0440077 0.00594308 0)
(-0.0457846 0.00596451 0)
(-0.0475675 0.00598652 0)
(-0.0493565 0.00600952 0)
(-0.051152 0.00603388 0)
(-0.0529542 0.00605989 0)
(-0.0547635 0.00608782 0)
(-0.0565803 0.0061179 0)
(-0.0584053 0.0061503 0)
(-0.060239 0.00618517 0)
(-0.062082 0.00622262 0)
(-0.063935 0.00626274 0)
(-0.0657986 0.00630556 0)
(-0.0676734 0.00635112 0)
(-0.0695603 0.00639941 0)
(-0.0714598 0.00645039 0)
(-0.0733725 0.006504 0)
(-0.0752992 0.00656017 0)
(-0.0772404 0.00661878 0)
(-0.0791967 0.0066797 0)
(-0.0811686 0.00674277 0)
(-0.0831566 0.0068078 0)
(-0.085161 0.00687457 0)
(-0.0871822 0.00694286 0)
(-0.0892205 0.00701238 0)
(-0.091276 0.00708284 0)
(-0.0933488 0.00715391 0)
(-0.0954388 0.00722522 0)
(-0.0975459 0.00729639 0)
(-0.0996698 0.00736698 0)
(-0.10181 0.00743653 0)
(-0.103966 0.00750453 0)
(-0.106138 0.00757046 0)
(-0.108324 0.00763372 0)
(-0.110523 0.00769371 0)
(-0.112734 0.00774977 0)
(-0.114955 0.00780119 0)
(-0.117186 0.00784723 0)
(-0.119424 0.00788712 0)
(-0.121666 0.00792001 0)
(-0.123912 0.00794504 0)
(-0.126158 0.0079613 0)
(-0.128401 0.00796783 0)
(-0.130638 0.00796364 0)
(-0.132867 0.00794769 0)
(-0.135082 0.00791891 0)
(-0.137281 0.00787619 0)
(-0.139459 0.00781839 0)
(-0.141612 0.00774435 0)
(-0.143734 0.00765288 0)
(-0.14582 0.00754276 0)
(-0.147866 0.00741277 0)
(-0.149864 0.00726168 0)
(-0.15181 0.00708826 0)
(-0.153696 0.00689128 0)
(-0.155516 0.00666953 0)
(-0.157263 0.00642185 0)
(-0.15893 0.00614709 0)
(-0.160508 0.00584415 0)
(-0.16199 0.00551201 0)
(-0.163369 0.00514973 0)
(-0.164635 0.00475643 0)
(-0.165781 0.00433138 0)
(-0.166798 0.00387394 0)
(-0.167677 0.00338362 0)
(-0.16841 0.00286011 0)
(-0.168987 0.00230325 0)
(-0.169401 0.0017131 0)
(-0.169643 0.00108992 0)
(-0.169703 0.000434205 0)
(-0.169575 -0.00025328 0)
(-0.169251 -0.000971506 0)
(-0.168722 -0.00171915 0)
(-0.167981 -0.00249459 0)
(-0.167023 -0.00329588 0)
(-0.165841 -0.00412071 0)
(-0.16443 -0.00496646 0)
(-0.162785 -0.00583014 0)
(-0.160903 -0.0067084 0)
(-0.158781 -0.00759752 0)
(-0.156417 -0.00849343 0)
(-0.153811 -0.0093917 0)
(-0.150964 -0.0102876 0)
(-0.147877 -0.0111759 0)
(-0.144554 -0.0120514 0)
(-0.140998 -0.0129084 0)
(-0.137218 -0.0137408 0)
(-0.13322 -0.0145427 0)
(-0.129013 -0.0153078 0)
(-0.124608 -0.0160297 0)
(-0.120019 -0.0167019 0)
(-0.115258 -0.0173182 0)
(-0.110343 -0.0178723 0)
(-0.105289 -0.0183579 0)
(-0.100116 -0.0187692 0)
(-0.0948444 -0.0191005 0)
(-0.0894956 -0.0193467 0)
(-0.0840925 -0.019503 0)
(-0.0786592 -0.0195652 0)
(-0.0732208 -0.0195297 0)
(-0.0678031 -0.0193936 0)
(-0.0624328 -0.0191546 0)