/*--------------------------------*- C++ -*----------------------------------*\
  =========                 |
  \\      /  F ield         | OpenFOAM: The Open Source CFD Toolbox
   \\    /   O peration     | Website:  https://openfoam.org
    \\  /    A nd           | Version:  7
     \\/     M anipulation  |
\*---------------------------------------------------------------------------*/
FoamFile
{
    version     2.0;
    format      ascii;
    class       volScalarField;
    location    "0.0875";
    object      p;
}
// * * * * * * * * * * * * * * * * * * * * * * * * * * * * * * * * * * * * * //

dimensions      [0 2 -2 0 0 0 0];

internalField   nonuniform List<scalar> 
51200
(
1.8735e-08
-1.29775e-06
-3.82472e-06
-7.21044e-06
-1.05783e-05
-1.36638e-05
-1.65132e-05
-1.91979e-05
-2.17558e-05
-2.42046e-05
-2.65566e-05
-2.88247e-05
-3.10184e-05
-3.31601e-05
-3.52636e-05
-3.73122e-05
-3.92864e-05
-4.117e-05
-4.29807e-05
-4.47416e-05
-4.64513e-05
-4.80992e-05
-4.96691e-05
-5.11552e-05
-5.25703e-05
-5.39139e-05
-5.51738e-05
-5.6347e-05
-5.7435e-05
-5.84465e-05
-5.9389e-05
-6.02483e-05
-6.10075e-05
-6.16681e-05
-6.22364e-05
-6.27191e-05
-6.3125e-05
-6.34539e-05
-6.36983e-05
-6.38612e-05
-6.3952e-05
-6.39732e-05
-6.39245e-05
-6.38079e-05
-6.36211e-05
-6.33645e-05
-6.30489e-05
-6.26814e-05
-6.22623e-05
-6.17999e-05
-6.13061e-05
-6.07799e-05
-6.02127e-05
-5.95977e-05
-5.89265e-05
-5.81893e-05
-5.73867e-05
-5.65335e-05
-5.56406e-05
-5.47018e-05
-5.37003e-05
-5.26263e-05
-5.14845e-05
-5.02907e-05
-4.9064e-05
-4.78155e-05
-4.65385e-05
-4.52157e-05
-4.38373e-05
-4.241e-05
-4.09471e-05
-3.9456e-05
-3.79374e-05
-3.6389e-05
-3.4805e-05
-3.31801e-05
-3.15159e-05
-2.9819e-05
-2.80956e-05
-2.63471e-05
-2.4572e-05
-2.27732e-05
-2.09586e-05
-1.91361e-05
-1.73122e-05
-1.54912e-05
-1.36721e-05
-1.1851e-05
-1.0031e-05
-8.22249e-06
-6.43188e-06
-4.65436e-06
-2.88174e-06
-1.11327e-06
6.44081e-07
2.38486e-06
4.1114e-06
5.82753e-06
7.52801e-06
9.20164e-06
1.08426e-05
1.24509e-05
1.40228e-05
1.5548e-05
1.70173e-05
1.84277e-05
1.97798e-05
2.10743e-05
2.23126e-05
2.34994e-05
2.46396e-05
2.57321e-05
2.67696e-05
2.77445e-05
2.86558e-05
2.9509e-05
3.03091e-05
3.10565e-05
3.1746e-05
3.23677e-05
3.29103e-05
3.33658e-05
3.37333e-05
3.40161e-05
3.42157e-05
3.43289e-05
3.43503e-05
3.42784e-05
3.41178e-05
3.3877e-05
3.35607e-05
3.31654e-05
3.26846e-05
3.21165e-05
3.14639e-05
3.07308e-05
2.992e-05
2.90339e-05
2.80763e-05
2.70517e-05
2.59652e-05
2.48258e-05
2.36469e-05
2.24418e-05
2.12209e-05
1.99893e-05
1.87477e-05
1.74961e-05
1.62405e-05
1.49945e-05
1.37784e-05
1.26181e-05
1.15437e-05
1.05886e-05
9.78827e-06
9.17657e-06
8.77805e-06
8.60133e-06
8.6364e-06
8.80467e-06
-1.57793e-06
-3.60719e-06
-6.12765e-06
-9.05911e-06
-1.19402e-05
-1.45877e-05
-1.70709e-05
-1.94499e-05
-2.17466e-05
-2.39674e-05
-2.61309e-05
-2.82389e-05
-3.02885e-05
-3.22869e-05
-3.42406e-05
-3.61607e-05
-3.80259e-05
-3.9824e-05
-4.1554e-05
-4.3222e-05
-4.48446e-05
-4.6415e-05
-4.79167e-05
-4.93478e-05
-5.07072e-05
-5.20001e-05
-5.32306e-05
-5.43841e-05
-5.54531e-05
-5.64446e-05
-5.73614e-05
-5.8202e-05
-5.89635e-05
-5.96374e-05
-6.02194e-05
-6.07169e-05
-6.11343e-05
-6.14694e-05
-6.17232e-05
-6.18966e-05
-6.19899e-05
-6.20128e-05
-6.19766e-05
-6.18818e-05
-6.17274e-05
-6.15174e-05
-6.12547e-05
-6.09399e-05
-6.05743e-05
-6.01616e-05
-5.97072e-05
-5.92146e-05
-5.86843e-05
-5.8114e-05
-5.74964e-05
-5.68202e-05
-5.60774e-05
-5.527e-05
-5.44082e-05
-5.35011e-05
-5.25504e-05
-5.15491e-05
-5.04873e-05
-4.93631e-05
-4.81873e-05
-4.69739e-05
-4.57289e-05
-4.44509e-05
-4.31363e-05
-4.17814e-05
-4.03863e-05
-3.89562e-05
-3.74967e-05
-3.60077e-05
-3.44831e-05
-3.29188e-05
-3.13172e-05
-2.96821e-05
-2.80169e-05
-2.63271e-05
-2.46183e-05
-2.28921e-05
-2.11476e-05
-1.93866e-05
-1.76173e-05
-1.58495e-05
-1.40852e-05
-1.23202e-05
-1.0555e-05
-8.79835e-06
-7.05753e-06
-5.33056e-06
-3.61152e-06
-1.89881e-06
-1.95617e-07
1.49492e-06
3.17233e-06
4.83576e-06
6.47964e-06
8.09576e-06
9.6788e-06
1.12261e-05
1.27334e-05
1.41954e-05
1.56099e-05
1.69771e-05
1.82937e-05
1.95539e-05
2.07551e-05
2.19019e-05
2.30006e-05
2.40525e-05
2.50535e-05
2.59998e-05
2.68899e-05
2.77226e-05
2.84956e-05
2.92071e-05
2.98585e-05
3.0449e-05
3.09703e-05
3.14097e-05
3.17602e-05
3.20248e-05
3.22099e-05
3.23167e-05
3.23397e-05
3.22747e-05
3.21244e-05
3.18968e-05
3.15985e-05
3.12283e-05
3.07808e-05
3.02542e-05
2.96506e-05
2.89715e-05
2.82162e-05
2.73858e-05
2.64879e-05
2.55336e-05
2.4531e-05
2.34842e-05
2.23993e-05
2.12871e-05
2.01611e-05
1.90318e-05
1.79014e-05
1.67675e-05
1.5633e-05
1.45111e-05
1.34233e-05
1.23943e-05
1.14487e-05
1.06108e-05
9.90648e-06
9.36115e-06
8.99233e-06
8.80522e-06
8.80622e-06
8.96972e-06
-4.12963e-06
-6.02588e-06
-8.20908e-06
-1.06444e-05
-1.30698e-05
-1.53609e-05
-1.75505e-05
-1.96817e-05
-2.17581e-05
-2.37867e-05
-2.57783e-05
-2.77452e-05
-2.96814e-05
-3.15654e-05
-3.34056e-05
-3.5206e-05
-3.69703e-05
-3.86933e-05
-4.03551e-05
-4.19593e-05
-4.35137e-05
-4.50165e-05
-4.64677e-05
-4.78533e-05
-4.91657e-05
-5.0418e-05
-5.16127e-05
-5.2743e-05
-5.38022e-05
-5.47794e-05
-5.56745e-05
-5.64971e-05
-5.72471e-05
-5.79183e-05
-5.85085e-05
-5.90162e-05
-5.94403e-05
-5.97847e-05
-6.00518e-05
-6.02378e-05
-6.03439e-05
-6.03798e-05
-6.03549e-05
-6.02757e-05
-6.01462e-05
-5.99666e-05
-5.97376e-05
-5.94619e-05
-5.91399e-05
-5.87713e-05
-5.83582e-05
-5.79026e-05
-5.74057e-05
-5.68678e-05
-5.62865e-05
-5.56548e-05
-5.49636e-05
-5.42054e-05
-5.33802e-05
-5.25002e-05
-5.15806e-05
-5.06236e-05
-4.9618e-05
-4.85551e-05
-4.74351e-05
-4.62633e-05
-4.50479e-05
-4.38013e-05
-4.253e-05
-4.12278e-05
-3.98874e-05
-3.85112e-05
-3.71051e-05
-3.56686e-05
-3.41964e-05
-3.26873e-05
-3.11451e-05
-2.95698e-05
-2.79601e-05
-2.63236e-05
-2.46714e-05
-2.30068e-05
-2.13242e-05
-1.96205e-05
-1.79018e-05
-1.61781e-05
-1.44543e-05
-1.27298e-05
-1.10065e-05
-9.28993e-06
-7.58447e-06
-5.89045e-06
-4.20836e-06
-2.53946e-06
-8.82805e-07
7.63153e-07
2.39599e-06
4.00974e-06
5.59903e-06
7.16077e-06
8.6916e-06
1.01852e-05
1.16349e-05
1.30389e-05
1.44016e-05
1.57264e-05
1.7009e-05
1.82414e-05
1.94206e-05
2.05491e-05
2.16284e-05
2.26561e-05
2.36295e-05
2.45505e-05
2.54208e-05
2.62361e-05
2.69875e-05
2.76699e-05
2.82874e-05
2.88453e-05
2.93398e-05
2.97589e-05
3.00933e-05
3.03441e-05
3.05177e-05
3.0617e-05
3.06386e-05
3.05802e-05
3.04441e-05
3.02352e-05
2.99571e-05
2.9609e-05
2.91884e-05
2.86961e-05
2.81345e-05
2.75026e-05
2.67967e-05
2.6017e-05
2.51725e-05
2.42775e-05
2.33411e-05
2.23647e-05
2.13495e-05
2.03046e-05
1.92452e-05
1.81851e-05
1.71302e-05
1.60799e-05
1.50366e-05
1.40124e-05
1.3027e-05
1.21011e-05
1.12542e-05
1.0504e-05
9.86858e-06
9.36738e-06
9.01576e-06
8.82324e-06
8.81651e-06
9.00423e-06
-7.03134e-06
-8.49597e-06
-1.01762e-05
-1.20677e-05
-1.40491e-05
-1.60073e-05
-1.79389e-05
-1.98502e-05
-2.17448e-05
-2.36102e-05
-2.54511e-05
-2.72862e-05
-2.911e-05
-3.0909e-05
-3.26632e-05
-3.43691e-05
-3.60443e-05
-3.76846e-05
-3.92866e-05
-4.08426e-05
-4.23413e-05
-4.3792e-05
-4.51959e-05
-4.65408e-05
-4.78251e-05
-4.90448e-05
-5.02015e-05
-5.13049e-05
-5.23464e-05
-5.33111e-05
-5.41984e-05
-5.5008e-05
-5.57401e-05
-5.64008e-05
-5.69879e-05
-5.74944e-05
-5.79218e-05
-5.82724e-05
-5.85455e-05
-5.87449e-05
-5.88734e-05
-5.8932e-05
-5.89282e-05
-5.88715e-05
-5.87655e-05
-5.861e-05
-5.84063e-05
-5.81567e-05
-5.78641e-05
-5.75306e-05
-5.71564e-05
-5.67402e-05
-5.62805e-05
-5.57742e-05
-5.52171e-05
-5.46099e-05
-5.39536e-05
-5.32405e-05
-5.24623e-05
-5.16232e-05
-5.07344e-05
-4.98014e-05
-4.88239e-05
-4.78014e-05
-4.67314e-05
-4.56087e-05
-4.4435e-05
-4.32235e-05
-4.19856e-05
-4.07202e-05
-3.94232e-05
-3.80959e-05
-3.67395e-05
-3.53508e-05
-3.39269e-05
-3.24697e-05
-3.09831e-05
-2.94658e-05
-2.79147e-05
-2.63348e-05
-2.47359e-05
-2.31215e-05
-2.14895e-05
-1.98389e-05
-1.81714e-05
-1.64898e-05
-1.47982e-05
-1.31033e-05
-1.14124e-05
-9.72844e-06
-8.0506e-06
-6.38035e-06
-4.72496e-06
-3.09026e-06
-1.4732e-06
1.31312e-07
1.71971e-06
3.28305e-06
4.81742e-06
6.32441e-06
7.80257e-06
9.24416e-06
1.06424e-05
1.19987e-05
1.33191e-05
1.46061e-05
1.58552e-05
1.70617e-05
1.8225e-05
1.93458e-05
2.04188e-05
2.14353e-05
2.23916e-05
2.3291e-05
2.41374e-05
2.49281e-05
2.56557e-05
2.63154e-05
2.69084e-05
2.74378e-05
2.79019e-05
2.82947e-05
2.86118e-05
2.88537e-05
2.90219e-05
2.91159e-05
2.91348e-05
2.90814e-05
2.89604e-05
2.87734e-05
2.85182e-05
2.81922e-05
2.77959e-05
2.73329e-05
2.68062e-05
2.6214e-05
2.55524e-05
2.48221e-05
2.40311e-05
2.31904e-05
2.23069e-05
2.13822e-05
2.04181e-05
1.94233e-05
1.8412e-05
1.73982e-05
1.63918e-05
1.53995e-05
1.44282e-05
1.34878e-05
1.25899e-05
1.17463e-05
1.0971e-05
1.02801e-05
9.69e-06
9.21621e-06
8.87236e-06
8.67233e-06
8.65536e-06
8.84582e-06
-9.43716e-06
-1.05194e-05
-1.17936e-05
-1.3266e-05
-1.48857e-05
-1.6561e-05
-1.82541e-05
-1.99637e-05
-2.16884e-05
-2.34128e-05
-2.51308e-05
-2.68388e-05
-2.85476e-05
-3.02505e-05
-3.19244e-05
-3.35623e-05
-3.5158e-05
-3.67229e-05
-3.82631e-05
-3.97636e-05
-4.12183e-05
-4.26227e-05
-4.39734e-05
-4.52787e-05
-4.65344e-05
-4.77273e-05
-4.886e-05
-4.99347e-05
-5.09469e-05
-5.18956e-05
-5.27743e-05
-5.35738e-05
-5.42975e-05
-5.49508e-05
-5.55303e-05
-5.6036e-05
-5.64682e-05
-5.68215e-05
-5.70976e-05
-5.73053e-05
-5.74479e-05
-5.75273e-05
-5.75492e-05
-5.75186e-05
-5.74392e-05
-5.73134e-05
-5.71396e-05
-5.69173e-05
-5.66516e-05
-5.63461e-05
-5.60006e-05
-5.56164e-05
-5.51925e-05
-5.47209e-05
-5.41931e-05
-5.36094e-05
-5.29738e-05
-5.2287e-05
-5.15482e-05
-5.07569e-05
-4.99112e-05
-4.90107e-05
-4.806e-05
-4.70654e-05
-4.6028e-05
-4.49457e-05
-4.38189e-05
-4.26524e-05
-4.1452e-05
-4.02221e-05
-3.89663e-05
-3.7686e-05
-3.63772e-05
-3.50359e-05
-3.36623e-05
-3.22577e-05
-3.08222e-05
-2.93565e-05
-2.7863e-05
-2.63445e-05
-2.48023e-05
-2.32361e-05
-2.16485e-05
-2.00446e-05
-1.84245e-05
-1.67846e-05
-1.51267e-05
-1.34619e-05
-1.18011e-05
-1.01468e-05
-8.49751e-06
-6.85617e-06
-5.23132e-06
-3.62924e-06
-2.04819e-06
-4.84598e-07
1.05806e-06
2.57267e-06
4.05716e-06
5.51292e-06
6.93738e-06
8.3248e-06
9.67381e-06
1.09893e-05
1.22759e-05
1.35317e-05
1.47518e-05
1.59342e-05
1.70801e-05
1.81872e-05
1.92472e-05
2.02511e-05
2.11947e-05
2.2078e-05
2.29004e-05
2.36602e-05
2.4357e-05
2.49924e-05
2.55664e-05
2.60756e-05
2.65154e-05
2.68847e-05
2.71858e-05
2.74203e-05
2.75862e-05
2.76793e-05
2.76989e-05
2.76508e-05
2.75415e-05
2.73715e-05
2.71362e-05
2.68327e-05
2.64627e-05
2.60298e-05
2.55352e-05
2.49769e-05
2.43541e-05
2.36709e-05
2.29339e-05
2.21476e-05
2.13131e-05
2.04315e-05
1.95086e-05
1.85557e-05
1.75866e-05
1.66137e-05
1.56483e-05
1.47035e-05
1.37915e-05
1.29213e-05
1.20968e-05
1.13198e-05
1.05978e-05
9.9467e-06
9.3849e-06
8.92788e-06
8.58733e-06
8.37718e-06
8.33764e-06
8.49683e-06
-1.11698e-05
-1.19531e-05
-1.29594e-05
-1.41518e-05
-1.55077e-05
-1.69615e-05
-1.84672e-05
-2.00052e-05
-2.15733e-05
-2.31748e-05
-2.47868e-05
-2.63979e-05
-2.80044e-05
-2.96031e-05
-3.11961e-05
-3.27648e-05
-3.43007e-05
-3.58085e-05
-3.72852e-05
-3.87329e-05
-4.01456e-05
-4.1507e-05
-4.28169e-05
-4.40816e-05
-4.5298e-05
-4.64667e-05
-4.75817e-05
-4.86322e-05
-4.96206e-05
-5.0548e-05
-5.14068e-05
-5.21954e-05
-5.29137e-05
-5.35591e-05
-5.41337e-05
-5.464e-05
-5.50753e-05
-5.54359e-05
-5.57227e-05
-5.594e-05
-5.60942e-05
-5.61919e-05
-5.62367e-05
-5.62306e-05
-5.61769e-05
-5.60786e-05
-5.59339e-05
-5.5742e-05
-5.55059e-05
-5.52274e-05
-5.49068e-05
-5.45462e-05
-5.41451e-05
-5.36994e-05
-5.32034e-05
-5.26508e-05
-5.20384e-05
-5.13707e-05
-5.06562e-05
-4.98971e-05
-4.90887e-05
-4.82284e-05
-4.73172e-05
-4.63558e-05
-4.53465e-05
-4.4296e-05
-4.321e-05
-4.20879e-05
-4.09293e-05
-3.97402e-05
-3.85274e-05
-3.72911e-05
-3.60262e-05
-3.47308e-05
-3.34075e-05
-3.20546e-05
-3.06672e-05
-2.92473e-05
-2.78031e-05
-2.63381e-05
-2.48488e-05
-2.33314e-05
-2.1789e-05
-2.02275e-05
-1.86472e-05
-1.70455e-05
-1.54259e-05
-1.37982e-05
-1.21702e-05
-1.05454e-05
-8.92744e-06
-7.32241e-06
-5.7354e-06
-4.16836e-06
-2.6221e-06
-1.09856e-06
3.99474e-07
1.87053e-06
3.31457e-06
4.72916e-06
6.10827e-06
7.44882e-06
8.75557e-06
1.00357e-05
1.12912e-05
1.25181e-05
1.37126e-05
1.48741e-05
1.60009e-05
1.70862e-05
1.81212e-05
1.91013e-05
2.00255e-05
2.08909e-05
2.16917e-05
2.24246e-05
2.30937e-05
2.37058e-05
2.42622e-05
2.47566e-05
2.51825e-05
2.554e-05
2.58327e-05
2.6062e-05
2.62248e-05
2.63178e-05
2.6342e-05
2.63021e-05
2.62021e-05
2.60416e-05
2.58181e-05
2.55322e-05
2.51871e-05
2.47835e-05
2.43192e-05
2.37917e-05
2.32031e-05
2.25609e-05
2.18711e-05
2.11338e-05
2.03452e-05
1.9505e-05
1.86208e-05
1.77059e-05
1.6775e-05
1.58404e-05
1.49143e-05
1.40112e-05
1.31443e-05
1.23216e-05
1.15439e-05
1.08098e-05
1.01236e-05
9.4996e-06
8.95618e-06
8.50858e-06
8.16732e-06
7.9436e-06
7.86912e-06
7.96814e-06
-1.23047e-05
-1.29018e-05
-1.37341e-05
-1.47468e-05
-1.59143e-05
-1.71966e-05
-1.85596e-05
-1.99675e-05
-2.14132e-05
-2.28951e-05
-2.44116e-05
-2.59421e-05
-2.74647e-05
-2.89823e-05
-3.04912e-05
-3.199e-05
-3.34749e-05
-3.49318e-05
-3.63587e-05
-3.77578e-05
-3.91218e-05
-4.04465e-05
-4.17268e-05
-4.29546e-05
-4.41363e-05
-4.52766e-05
-4.63656e-05
-4.73974e-05
-4.83696e-05
-4.92749e-05
-5.01142e-05
-5.08906e-05
-5.1599e-05
-5.22382e-05
-5.28111e-05
-5.33154e-05
-5.37505e-05
-5.41184e-05
-5.4418e-05
-5.46497e-05
-5.48206e-05
-5.49377e-05
-5.50053e-05
-5.50246e-05
-5.49961e-05
-5.49211e-05
-5.48004e-05
-5.46342e-05
-5.44233e-05
-5.417e-05
-5.38755e-05
-5.35372e-05
-5.31523e-05
-5.27221e-05
-5.22465e-05
-5.1719e-05
-5.11338e-05
-5.04931e-05
-4.98029e-05
-4.90655e-05
-4.8282e-05
-4.74545e-05
-4.65822e-05
-4.56597e-05
-4.4687e-05
-4.36728e-05
-4.26244e-05
-4.1542e-05
-4.04262e-05
-3.92823e-05
-3.81142e-05
-3.69199e-05
-3.56968e-05
-3.44451e-05
-3.31664e-05
-3.18582e-05
-3.05157e-05
-2.91405e-05
-2.77392e-05
-2.63151e-05
-2.48669e-05
-2.33938e-05
-2.18966e-05
-2.03761e-05
-1.8832e-05
-1.72674e-05
-1.56899e-05
-1.41061e-05
-1.25184e-05
-1.09299e-05
-9.34935e-06
-7.78561e-06
-6.24001e-06
-4.71024e-06
-3.19881e-06
-1.71202e-06
-2.521e-07
1.18364e-06
2.59562e-06
3.97798e-06
5.32361e-06
6.63212e-06
7.91027e-06
9.16317e-06
1.03893e-05
1.15854e-05
1.27516e-05
1.38883e-05
1.49902e-05
1.60473e-05
1.70512e-05
1.80002e-05
1.88953e-05
1.97339e-05
2.05101e-05
2.12218e-05
2.18737e-05
2.24716e-05
2.30153e-05
2.34988e-05
2.39183e-05
2.42746e-05
2.45687e-05
2.4798e-05
2.49584e-05
2.50498e-05
2.5077e-05
2.50444e-05
2.49519e-05
2.47972e-05
2.45803e-05
2.43064e-05
2.39801e-05
2.35998e-05
2.31606e-05
2.26605e-05
2.21033e-05
2.14966e-05
2.08449e-05
2.01463e-05
1.93973e-05
1.85985e-05
1.77565e-05
1.68821e-05
1.59882e-05
1.50881e-05
1.41959e-05
1.33263e-05
1.24898e-05
1.16912e-05
1.09323e-05
1.02157e-05
9.54855e-06
8.94351e-06
8.41459e-06
7.97253e-06
7.62492e-06
7.37955e-06
7.2557e-06
7.27092e-06
-1.29598e-05
-1.34666e-05
-1.41915e-05
-1.50855e-05
-1.61265e-05
-1.72774e-05
-1.85238e-05
-1.98415e-05
-2.11963e-05
-2.25849e-05
-2.40103e-05
-2.54578e-05
-2.69158e-05
-2.83668e-05
-2.98081e-05
-3.12477e-05
-3.26771e-05
-3.40897e-05
-3.54794e-05
-3.68335e-05
-3.81531e-05
-3.94419e-05
-4.06888e-05
-4.18903e-05
-4.30478e-05
-4.4157e-05
-4.5218e-05
-4.62294e-05
-4.71811e-05
-4.80683e-05
-4.8893e-05
-4.96547e-05
-5.03525e-05
-5.09882e-05
-5.15606e-05
-5.2065e-05
-5.25019e-05
-5.28749e-05
-5.31846e-05
-5.34321e-05
-5.3622e-05
-5.37592e-05
-5.38489e-05
-5.3893e-05
-5.38894e-05
-5.38373e-05
-5.37388e-05
-5.35934e-05
-5.34015e-05
-5.31673e-05
-5.28931e-05
-5.2575e-05
-5.22088e-05
-5.17939e-05
-5.13297e-05
-5.08146e-05
-5.02494e-05
-4.96356e-05
-4.89726e-05
-4.82603e-05
-4.75024e-05
-4.67029e-05
-4.58611e-05
-4.49746e-05
-4.40442e-05
-4.30731e-05
-4.20644e-05
-4.10216e-05
-3.99497e-05
-3.88522e-05
-3.77276e-05
-3.65742e-05
-3.5393e-05
-3.41835e-05
-3.29427e-05
-3.16692e-05
-3.03642e-05
-2.90301e-05
-2.76675e-05
-2.62767e-05
-2.4861e-05
-2.3425e-05
-2.19683e-05
-2.04868e-05
-1.89804e-05
-1.74561e-05
-1.59235e-05
-1.43866e-05
-1.28454e-05
-1.13031e-05
-9.76865e-06
-8.24935e-06
-6.74482e-06
-5.25286e-06
-3.77673e-06
-2.32209e-06
-8.8993e-07
5.21649e-07
1.90995e-06
3.26744e-06
4.58943e-06
5.87836e-06
7.13918e-06
8.37204e-06
9.57272e-06
1.07395e-05
1.18748e-05
1.29789e-05
1.40455e-05
1.5066e-05
1.60351e-05
1.69518e-05
1.78149e-05
1.86214e-05
1.93698e-05
2.0063e-05
2.07052e-05
2.12978e-05
2.18363e-05
2.23154e-05
2.27343e-05
2.30946e-05
2.33948e-05
2.36282e-05
2.37898e-05
2.38812e-05
2.39092e-05
2.38785e-05
2.37882e-05
2.36364e-05
2.3425e-05
2.31605e-05
2.28473e-05
2.24826e-05
2.20609e-05
2.15819e-05
2.10509e-05
2.04737e-05
1.98519e-05
1.91834e-05
1.84675e-05
1.77082e-05
1.69109e-05
1.60805e-05
1.52246e-05
1.43554e-05
1.34886e-05
1.26395e-05
1.18175e-05
1.10256e-05
1.02674e-05
9.55219e-06
8.89217e-06
8.29841e-06
7.77829e-06
7.33489e-06
6.97089e-06
6.691e-06
6.50203e-06
6.41516e-06
-1.32319e-05
-1.37114e-05
-1.43729e-05
-1.51971e-05
-1.61615e-05
-1.72218e-05
-1.83793e-05
-1.96173e-05
-2.091e-05
-2.22352e-05
-2.35817e-05
-2.49573e-05
-2.63496e-05
-2.77448e-05
-2.91412e-05
-3.05295e-05
-3.19101e-05
-3.32833e-05
-3.46348e-05
-3.59548e-05
-3.72423e-05
-3.84927e-05
-3.97069e-05
-4.08857e-05
-4.20194e-05
-4.31047e-05
-4.41432e-05
-4.5129e-05
-4.60578e-05
-4.69288e-05
-4.77384e-05
-4.84859e-05
-4.91747e-05
-4.98051e-05
-5.03753e-05
-5.08826e-05
-5.13254e-05
-5.17047e-05
-5.2024e-05
-5.22871e-05
-5.24963e-05
-5.26543e-05
-5.27648e-05
-5.283e-05
-5.2848e-05
-5.28169e-05
-5.27378e-05
-5.26111e-05
-5.2437e-05
-5.2218e-05
-5.1956e-05
-5.16512e-05
-5.13021e-05
-5.09037e-05
-5.04514e-05
-4.99466e-05
-4.9395e-05
-4.87989e-05
-4.81577e-05
-4.74725e-05
-4.67456e-05
-4.59761e-05
-4.51633e-05
-4.43108e-05
-4.34219e-05
-4.24947e-05
-4.15284e-05
-4.05287e-05
-3.9502e-05
-3.8449e-05
-3.73656e-05
-3.62517e-05
-3.51107e-05
-3.39402e-05
-3.27336e-05
-3.14898e-05
-3.0215e-05
-2.89134e-05
-2.75827e-05
-2.62221e-05
-2.48371e-05
-2.34338e-05
-2.20113e-05
-2.05659e-05
-1.91002e-05
-1.76215e-05
-1.61362e-05
-1.46463e-05
-1.31539e-05
-1.16638e-05
-1.01805e-05
-8.70595e-06
-7.23997e-06
-5.78422e-06
-4.34226e-06
-2.91568e-06
-1.50352e-06
-1.07808e-07
1.26382e-06
2.60386e-06
3.91097e-06
5.18796e-06
6.43549e-06
7.64988e-06
8.82737e-06
9.96823e-06
1.10741e-05
1.21426e-05
1.31679e-05
1.41464e-05
1.50777e-05
1.59612e-05
1.67929e-05
1.75692e-05
1.82927e-05
1.89702e-05
1.96051e-05
2.01945e-05
2.07317e-05
2.12123e-05
2.16359e-05
2.20026e-05
2.23079e-05
2.25449e-05
2.27102e-05
2.28055e-05
2.28357e-05
2.28038e-05
2.27105e-05
2.25579e-05
2.23507e-05
2.20942e-05
2.17899e-05
2.14343e-05
2.10236e-05
2.05593e-05
2.00469e-05
1.94904e-05
1.88902e-05
1.82456e-05
1.7559e-05
1.68361e-05
1.60807e-05
1.52923e-05
1.44724e-05
1.36307e-05
1.27821e-05
1.1942e-05
1.11213e-05
1.03256e-05
9.5619e-06
8.8436e-06
8.18467e-06
7.59262e-06
7.06792e-06
6.60731e-06
6.20995e-06
5.87924e-06
5.61153e-06
5.41159e-06
-1.31823e-05
-1.36826e-05
-1.43255e-05
-1.51053e-05
-1.60274e-05
-1.70467e-05
-1.81402e-05
-1.93132e-05
-2.05524e-05
-2.18253e-05
-2.3123e-05
-2.44389e-05
-2.57713e-05
-2.7123e-05
-2.84787e-05
-2.98308e-05
-3.11771e-05
-3.25095e-05
-3.38249e-05
-3.51187e-05
-3.63776e-05
-3.75991e-05
-3.87876e-05
-3.99389e-05
-4.10491e-05
-4.21159e-05
-4.31326e-05
-4.40946e-05
-4.50026e-05
-4.58553e-05
-4.66491e-05
-4.73856e-05
-4.80669e-05
-4.86905e-05
-4.92564e-05
-4.97657e-05
-5.02148e-05
-5.06024e-05
-5.09328e-05
-5.12102e-05
-5.14374e-05
-5.16161e-05
-5.17468e-05
-5.18307e-05
-5.18671e-05
-5.18534e-05
-5.17897e-05
-5.16785e-05
-5.15212e-05
-5.13167e-05
-5.10652e-05
-5.07698e-05
-5.04307e-05
-5.00431e-05
-4.96032e-05
-4.9113e-05
-4.85757e-05
-4.79931e-05
-4.7369e-05
-4.67079e-05
-4.601e-05
-4.52714e-05
-4.44914e-05
-4.36749e-05
-4.28244e-05
-4.19377e-05
-4.10149e-05
-4.00606e-05
-3.90782e-05
-3.80663e-05
-3.70225e-05
-3.59472e-05
-3.48417e-05
-3.37036e-05
-3.25281e-05
-3.13146e-05
-3.00678e-05
-2.87914e-05
-2.74863e-05
-2.61546e-05
-2.48014e-05
-2.34295e-05
-2.20376e-05
-2.06268e-05
-1.9203e-05
-1.77717e-05
-1.63339e-05
-1.48904e-05
-1.34463e-05
-1.20074e-05
-1.05731e-05
-9.14019e-06
-7.71003e-06
-6.28766e-06
-4.87593e-06
-3.47319e-06
-2.07859e-06
-6.98056e-07
6.5833e-07
1.98498e-06
3.28247e-06
4.55065e-06
5.78484e-06
6.9798e-06
8.13472e-06
9.2517e-06
1.03302e-05
1.13654e-05
1.23528e-05
1.32928e-05
1.41883e-05
1.50386e-05
1.58396e-05
1.65898e-05
1.72941e-05
1.79597e-05
1.85868e-05
1.91699e-05
1.97037e-05
2.01864e-05
2.06165e-05
2.09901e-05
2.12992e-05
2.15382e-05
2.17071e-05
2.18086e-05
2.18434e-05
2.18114e-05
2.17147e-05
2.156e-05
2.13553e-05
2.11039e-05
2.08041e-05
2.04528e-05
2.00488e-05
1.95946e-05
1.90937e-05
1.85488e-05
1.79617e-05
1.73356e-05
1.6675e-05
1.59844e-05
1.52635e-05
1.45082e-05
1.37172e-05
1.2898e-05
1.20643e-05
1.12297e-05
1.04064e-05
9.60483e-06
8.83629e-06
8.11475e-06
7.45132e-06
6.84772e-06
6.29869e-06
5.79845e-06
5.34667e-06
4.9487e-06
4.59273e-06
4.27559e-06
-1.28581e-05
-1.34307e-05
-1.40904e-05
-1.48497e-05
-1.57502e-05
-1.67492e-05
-1.78169e-05
-1.89454e-05
-2.01301e-05
-2.13634e-05
-2.26233e-05
-2.38979e-05
-2.51924e-05
-2.65021e-05
-2.78233e-05
-2.91506e-05
-3.04682e-05
-3.17696e-05
-3.30559e-05
-3.432e-05
-3.55545e-05
-3.67577e-05
-3.79241e-05
-3.90514e-05
-4.01408e-05
-4.11865e-05
-4.21814e-05
-4.31238e-05
-4.40123e-05
-4.48454e-05
-4.5624e-05
-4.63505e-05
-4.70242e-05
-4.76421e-05
-4.82048e-05
-4.87136e-05
-4.91669e-05
-4.9564e-05
-4.99065e-05
-5.01975e-05
-5.04406e-05
-5.06373e-05
-5.0786e-05
-5.08867e-05
-5.09393e-05
-5.09411e-05
-5.08912e-05
-5.0793e-05
-5.06484e-05
-5.04568e-05
-5.02181e-05
-4.9933e-05
-4.96e-05
-4.92176e-05
-4.87873e-05
-4.83109e-05
-4.77885e-05
-4.72218e-05
-4.66165e-05
-4.59769e-05
-4.53024e-05
-4.4592e-05
-4.38466e-05
-4.30667e-05
-4.22513e-05
-4.14017e-05
-4.0521e-05
-3.96104e-05
-3.8668e-05
-3.76931e-05
-3.6687e-05
-3.56487e-05
-3.45747e-05
-3.34632e-05
-3.23156e-05
-3.11328e-05
-2.99147e-05
-2.86626e-05
-2.73824e-05
-2.60805e-05
-2.47599e-05
-2.34195e-05
-2.20591e-05
-2.06838e-05
-1.93007e-05
-1.79129e-05
-1.65187e-05
-1.51192e-05
-1.37202e-05
-1.23253e-05
-1.09313e-05
-9.53475e-06
-8.13836e-06
-6.74713e-06
-5.36163e-06
-3.98e-06
-2.60478e-06
-1.2444e-06
9.27172e-08
1.40407e-06
2.69e-06
3.94634e-06
5.16497e-06
6.34111e-06
7.47609e-06
8.57174e-06
9.62517e-06
1.06316e-05
1.15898e-05
1.25019e-05
1.33695e-05
1.41907e-05
1.49638e-05
1.56912e-05
1.63798e-05
1.7034e-05
1.76508e-05
1.82234e-05
1.87495e-05
1.92302e-05
1.96631e-05
2.00404e-05
2.03525e-05
2.05944e-05
2.07682e-05
2.08762e-05
2.09165e-05
2.08867e-05
2.07898e-05
2.06352e-05
2.04322e-05
2.01826e-05
1.98834e-05
1.95328e-05
1.91325e-05
1.86852e-05
1.81913e-05
1.76516e-05
1.70712e-05
1.64579e-05
1.5818e-05
1.5152e-05
1.44554e-05
1.3722e-05
1.29507e-05
1.21492e-05
1.13299e-05
1.05042e-05
9.68387e-06
8.88197e-06
8.11144e-06
7.38339e-06
6.70391e-06
6.07026e-06
5.47521e-06
4.9146e-06
4.39168e-06
3.91528e-06
3.4661e-06
3.03116e-06
-1.23161e-05
-1.29862e-05
-1.37e-05
-1.44724e-05
-1.53563e-05
-1.63458e-05
-1.74065e-05
-1.85108e-05
-1.96631e-05
-2.08581e-05
-2.20853e-05
-2.33401e-05
-2.46082e-05
-2.58889e-05
-2.71851e-05
-2.84852e-05
-2.978e-05
-3.10621e-05
-3.2323e-05
-3.35607e-05
-3.47753e-05
-3.59603e-05
-3.71087e-05
-3.82198e-05
-3.92901e-05
-4.03137e-05
-4.12885e-05
-4.22124e-05
-4.30817e-05
-4.38976e-05
-4.46629e-05
-4.53775e-05
-4.60418e-05
-4.66553e-05
-4.72159e-05
-4.77233e-05
-4.81793e-05
-4.85846e-05
-4.8939e-05
-4.92439e-05
-4.95017e-05
-4.97134e-05
-4.98775e-05
-4.99925e-05
-5.00585e-05
-5.00744e-05
-5.00393e-05
-4.99537e-05
-4.98191e-05
-4.9638e-05
-4.94115e-05
-4.91369e-05
-4.88109e-05
-4.84348e-05
-4.80126e-05
-4.75459e-05
-4.70358e-05
-4.64867e-05
-4.59025e-05
-4.52834e-05
-4.46296e-05
-4.39447e-05
-4.32304e-05
-4.24829e-05
-4.16999e-05
-4.08849e-05
-4.00419e-05
-3.91688e-05
-3.8261e-05
-3.73189e-05
-3.63461e-05
-3.53405e-05
-3.42955e-05
-3.321e-05
-3.20894e-05
-3.09362e-05
-2.97475e-05
-2.85241e-05
-2.72741e-05
-2.60051e-05
-2.47173e-05
-2.34091e-05
-2.20829e-05
-2.07451e-05
-1.93998e-05
-1.80481e-05
-1.66903e-05
-1.53296e-05
-1.39687e-05
-1.26074e-05
-1.12433e-05
-9.87685e-06
-8.51169e-06
-7.14981e-06
-5.78936e-06
-4.43068e-06
-3.08052e-06
-1.74742e-06
-4.35648e-07
8.54531e-07
2.12121e-06
3.35777e-06
4.55693e-06
5.7159e-06
6.83533e-06
7.91402e-06
8.94741e-06
9.9326e-06
1.08715e-05
1.17664e-05
1.26154e-05
1.34148e-05
1.41656e-05
1.48742e-05
1.55474e-05
1.61867e-05
1.67878e-05
1.73462e-05
1.78618e-05
1.83359e-05
1.8765e-05
1.91404e-05
1.94536e-05
1.97005e-05
1.98819e-05
1.99973e-05
2.00429e-05
2.0017e-05
1.99236e-05
1.9772e-05
1.95703e-05
1.93202e-05
1.90193e-05
1.8668e-05
1.82697e-05
1.78266e-05
1.73367e-05
1.67997e-05
1.62229e-05
1.56175e-05
1.49902e-05
1.43383e-05
1.36542e-05
1.29324e-05
1.21746e-05
1.13886e-05
1.05853e-05
9.77367e-06
8.9634e-06
8.16672e-06
7.39448e-06
6.65206e-06
5.94033e-06
5.25638e-06
4.59697e-06
3.96351e-06
3.36328e-06
2.80606e-06
2.26283e-06
1.70964e-06
-1.16128e-05
-1.23827e-05
-1.31719e-05
-1.39837e-05
-1.4877e-05
-1.58585e-05
-1.69105e-05
-1.80142e-05
-1.91511e-05
-2.03199e-05
-2.1528e-05
-2.27641e-05
-2.40184e-05
-2.52872e-05
-2.65615e-05
-2.78385e-05
-2.91149e-05
-3.03789e-05
-3.16211e-05
-3.2842e-05
-3.40383e-05
-3.52047e-05
-3.6339e-05
-3.74358e-05
-3.84882e-05
-3.94932e-05
-4.04497e-05
-4.13543e-05
-4.22059e-05
-4.30082e-05
-4.37615e-05
-4.44639e-05
-4.51185e-05
-4.57265e-05
-4.62842e-05
-4.67912e-05
-4.72498e-05
-4.76611e-05
-4.80255e-05
-4.83433e-05
-4.86146e-05
-4.88398e-05
-4.90178e-05
-4.91456e-05
-4.92231e-05
-4.92518e-05
-4.92307e-05
-4.91581e-05
-4.90347e-05
-4.8864e-05
-4.86465e-05
-4.83792e-05
-4.80615e-05
-4.76953e-05
-4.72821e-05
-4.68237e-05
-4.63253e-05
-4.57925e-05
-4.52267e-05
-4.46266e-05
-4.39941e-05
-4.33327e-05
-4.26428e-05
-4.19213e-05
-4.11674e-05
-4.03838e-05
-3.95714e-05
-3.87276e-05
-3.78492e-05
-3.69365e-05
-3.59909e-05
-3.5011e-05
-3.39929e-05
-3.29365e-05
-3.18452e-05
-3.07207e-05
-2.95629e-05
-2.83743e-05
-2.71617e-05
-2.59292e-05
-2.46755e-05
-2.34009e-05
-2.21109e-05
-2.081e-05
-1.94982e-05
-1.81758e-05
-1.68471e-05
-1.55165e-05
-1.41837e-05
-1.28459e-05
-1.15039e-05
-1.01624e-05
-8.82501e-06
-7.49023e-06
-6.15613e-06
-4.82638e-06
-3.50935e-06
-2.21045e-06
-9.29888e-07
3.32112e-07
1.57099e-06
2.78034e-06
3.95668e-06
5.09929e-06
6.20603e-06
7.27188e-06
8.29196e-06
9.2656e-06
1.01953e-05
1.10808e-05
1.19174e-05
1.27017e-05
1.3437e-05
1.41309e-05
1.47882e-05
1.54084e-05
1.59893e-05
1.65305e-05
1.70339e-05
1.74984e-05
1.79186e-05
1.82872e-05
1.85992e-05
1.88518e-05
1.90418e-05
1.91644e-05
1.92152e-05
1.91944e-05
1.91072e-05
1.89602e-05
1.87589e-05
1.85062e-05
1.82032e-05
1.78522e-05
1.7456e-05
1.70152e-05
1.65273e-05
1.59925e-05
1.54188e-05
1.48174e-05
1.41942e-05
1.35456e-05
1.2864e-05
1.21471e-05
1.13997e-05
1.06295e-05
9.8437e-06
9.04792e-06
8.24858e-06
7.45479e-06
6.67382e-06
5.90573e-06
5.14779e-06
4.40032e-06
3.66804e-06
2.95981e-06
2.28562e-06
1.65191e-06
1.01583e-06
3.42625e-07
-1.08049e-05
-1.16646e-05
-1.25172e-05
-1.33911e-05
-1.432e-05
-1.53032e-05
-1.6355e-05
-1.74579e-05
-1.85946e-05
-1.97631e-05
-2.0958e-05
-2.21811e-05
-2.34299e-05
-2.46889e-05
-2.59513e-05
-2.72138e-05
-2.84713e-05
-2.97176e-05
-3.09481e-05
-3.21569e-05
-3.33384e-05
-3.44914e-05
-3.56125e-05
-3.66932e-05
-3.77296e-05
-3.87195e-05
-3.96584e-05
-4.05452e-05
-4.13824e-05
-4.21717e-05
-4.2913e-05
-4.36059e-05
-4.42519e-05
-4.48523e-05
-4.54063e-05
-4.59137e-05
-4.63754e-05
-4.6792e-05
-4.71647e-05
-4.74932e-05
-4.77759e-05
-4.80127e-05
-4.82028e-05
-4.83432e-05
-4.84331e-05
-4.84736e-05
-4.84642e-05
-4.84041e-05
-4.82941e-05
-4.81347e-05
-4.79242e-05
-4.76626e-05
-4.73528e-05
-4.69961e-05
-4.65921e-05
-4.61446e-05
-4.56598e-05
-4.51414e-05
-4.45896e-05
-4.40064e-05
-4.33948e-05
-4.27542e-05
-4.20827e-05
-4.13816e-05
-4.06528e-05
-3.98952e-05
-3.91058e-05
-3.82837e-05
-3.74297e-05
-3.65425e-05
-3.5619e-05
-3.46594e-05
-3.36662e-05
-3.26404e-05
-3.15805e-05
-3.04866e-05
-2.93628e-05
-2.82142e-05
-2.70432e-05
-2.58493e-05
-2.46317e-05
-2.33932e-05
-2.21392e-05
-2.08713e-05
-1.95877e-05
-1.82902e-05
-1.6985e-05
-1.56756e-05
-1.43603e-05
-1.30383e-05
-1.17145e-05
-1.03953e-05
-9.08193e-06
-7.77207e-06
-6.46656e-06
-5.17172e-06
-3.89397e-06
-2.63391e-06
-1.38915e-06
-1.61208e-07
1.04421e-06
2.22322e-06
3.37614e-06
4.5023e-06
5.59616e-06
6.65066e-06
7.66251e-06
8.63245e-06
9.56024e-06
1.04411e-05
1.12689e-05
1.20424e-05
1.27671e-05
1.34496e-05
1.40917e-05
1.46922e-05
1.52525e-05
1.57767e-05
1.62672e-05
1.67203e-05
1.71288e-05
1.74881e-05
1.77969e-05
1.80528e-05
1.82487e-05
1.83762e-05
1.84309e-05
1.84155e-05
1.83352e-05
1.81933e-05
1.79915e-05
1.7735e-05
1.743e-05
1.70808e-05
1.6688e-05
1.62491e-05
1.57621e-05
1.52296e-05
1.46592e-05
1.40594e-05
1.34336e-05
1.27801e-05
1.20955e-05
1.13808e-05
1.06424e-05
9.88628e-06
9.1149e-06
8.3298e-06
7.53381e-06
6.7321e-06
5.92922e-06
5.12375e-06
4.31299e-06
3.50144e-06
2.70069e-06
1.92451e-06
1.18344e-06
4.78147e-07
-2.50052e-07
-1.04564e-06
-9.92437e-06
-1.08655e-05
-1.17778e-05
-1.27032e-05
-1.36797e-05
-1.46953e-05
-1.5753e-05
-1.68585e-05
-1.8008e-05
-1.91836e-05
-2.03806e-05
-2.16029e-05
-2.28429e-05
-2.40952e-05
-2.53531e-05
-2.66057e-05
-2.78486e-05
-2.90823e-05
-3.03018e-05
-3.14991e-05
-3.26714e-05
-3.38153e-05
-3.49229e-05
-3.59889e-05
-3.70116e-05
-3.79858e-05
-3.89087e-05
-3.97827e-05
-4.06081e-05
-4.13846e-05
-4.2115e-05
-4.28001e-05
-4.3438e-05
-4.40307e-05
-4.45805e-05
-4.50877e-05
-4.55522e-05
-4.59748e-05
-4.63554e-05
-4.6693e-05
-4.69858e-05
-4.72321e-05
-4.74319e-05
-4.75842e-05
-4.76871e-05
-4.7739e-05
-4.77398e-05
-4.76912e-05
-4.75935e-05
-4.74441e-05
-4.72413e-05
-4.69872e-05
-4.66848e-05
-4.63349e-05
-4.59397e-05
-4.55048e-05
-4.50345e-05
-4.45291e-05
-4.39902e-05
-4.34227e-05
-4.28288e-05
-4.22049e-05
-4.1549e-05
-4.08653e-05
-4.01563e-05
-3.94181e-05
-3.86459e-05
-3.78409e-05
-3.70058e-05
-3.61382e-05
-3.52335e-05
-3.42935e-05
-3.33242e-05
-3.2327e-05
-3.12981e-05
-3.02375e-05
-2.91514e-05
-2.80445e-05
-2.69148e-05
-2.57592e-05
-2.45792e-05
-2.33782e-05
-2.21581e-05
-2.0918e-05
-1.96585e-05
-1.83837e-05
-1.70981e-05
-1.5803e-05
-1.44988e-05
-1.31894e-05
-1.18828e-05
-1.05839e-05
-9.29165e-06
-8.00559e-06
-6.73031e-06
-5.47244e-06
-4.23422e-06
-3.01282e-06
-1.80573e-06
-6.1496e-07
5.55683e-07
1.70552e-06