/*--------------------------------*- C++ -*----------------------------------*\
  =========                 |
  \\      /  F ield         | OpenFOAM: The Open Source CFD Toolbox
   \\    /   O peration     | Website:  https://openfoam.org
    \\  /    A nd           | Version:  7
     \\/     M anipulation  |
\*---------------------------------------------------------------------------*/
FoamFile
{
    version     2.0;
    format      ascii;
    class       surfaceScalarField;
    location    "0.0875";
    object      phi;
}
// * * * * * * * * * * * * * * * * * * * * * * * * * * * * * * * * * * * * * //

dimensions      [0 3 -1 0 0 0 0];

internalField   nonuniform List<scalar> 
101920
(
1.6605e-13
-1.87985e-13
1.69862e-12
-1.52936e-12
4.04947e-12
-2.35467e-12
6.04557e-12
-1.99465e-12
7.3444e-12
-1.2991e-12
8.05823e-12
-7.14238e-13
8.31424e-12
-2.53749e-13
8.20363e-12
1.11844e-13
7.78204e-12
4.21522e-13
7.08912e-12
6.92463e-13
6.14763e-12
9.43165e-13
4.97151e-12
1.17649e-12
3.57746e-12
1.39433e-12
1.97283e-12
1.60459e-12
1.62078e-13
1.80996e-12
-1.84063e-12
2.0029e-12
-4.02306e-12
2.18213e-12
-6.36607e-12
2.34334e-12
-8.86189e-12
2.49584e-12
-1.15021e-11
2.64017e-12
-1.42767e-11
2.77476e-12
-1.71732e-11
2.89614e-12
-2.0175e-11
3.00216e-12
-2.32712e-11
3.09617e-12
-2.64534e-11
3.18251e-12
-2.97107e-11
3.25842e-12
-3.30324e-11
3.32261e-12
-3.64057e-11
3.37478e-12
-3.9821e-11
3.41699e-12
-4.32734e-11
3.45359e-12
-4.67551e-11
3.48286e-12
-5.02562e-11
3.5014e-12
-5.37672e-11
3.51063e-12
-5.72778e-11
3.51112e-12
-6.07815e-11
3.50445e-12
-6.42741e-11
3.49313e-12
-6.7749e-11
3.47506e-12
-7.12009e-11
3.45024e-12
-7.46243e-11
3.42075e-12
-7.80121e-11
3.38587e-12
-8.13596e-11
3.34632e-12
-8.46645e-11
3.30454e-12
-8.79216e-11
3.25764e-12
-9.11252e-11
3.20407e-12
-9.42722e-11
3.14718e-12
-9.73596e-11
3.08754e-12
-1.00383e-10
3.02308e-12
-1.03339e-10
2.95552e-12
-1.06226e-10
2.88681e-12
-1.09041e-10
2.81539e-12
-1.11783e-10
2.74207e-12
-1.14451e-10
2.66888e-12
-1.17043e-10
2.59342e-12
-1.19556e-10
2.5134e-12
-1.21987e-10
2.43078e-12
-1.24335e-10
2.34653e-12
-1.26595e-10
2.25956e-12
-1.28768e-10
2.17255e-12
-1.30856e-10
2.08902e-12
-1.3286e-10
2.00497e-12
-1.34775e-10
1.91449e-12
-1.36595e-10
1.81919e-12
-1.38318e-10
1.72355e-12
-1.39946e-10
1.62849e-12
-1.41479e-10
1.53369e-12
-1.42918e-10
1.43989e-12
-1.44265e-10
1.34649e-12
-1.45516e-10
1.25041e-12
-1.46668e-10
1.1502e-12
-1.47717e-10
1.04942e-12
-1.48668e-10
9.51312e-13
-1.49521e-10
8.54068e-13
-1.50275e-10
7.55045e-13
-1.50929e-10
6.54816e-13
-1.51484e-10
5.54969e-13
-1.51938e-10
4.54984e-13
-1.52292e-10
3.53381e-13
-1.52543e-10
2.51072e-13
-1.52693e-10
1.50594e-13
-1.52744e-10
5.10917e-14
-1.52693e-10
-5.0863e-14
-1.52538e-10
-1.54916e-13
-1.52281e-10
-2.57713e-13
-1.51923e-10
-3.58458e-13
-1.51466e-10
-4.58373e-13
-1.50908e-10
-5.57889e-13
-1.50251e-10
-6.57319e-13
-1.49493e-10
-7.57043e-13
-1.48635e-10
-8.56672e-13
-1.47679e-10
-9.55407e-13
-1.46626e-10
-1.05259e-12
-1.45477e-10
-1.14849e-12
-1.44233e-10
-1.24458e-12
-1.42891e-10
-1.34147e-12
-1.41454e-10
-1.43747e-12
-1.39923e-10
-1.53107e-12
-1.383e-10
-1.6237e-12
-1.36584e-10
-1.71709e-12
-1.34775e-10
-1.80987e-12
-1.32875e-10
-1.90008e-12
-1.30886e-10
-1.98864e-12
-1.28809e-10
-2.07729e-12
-1.26644e-10
-2.16537e-12
-1.24392e-10
-2.25089e-12
-1.22058e-10
-2.3331e-12
-1.19643e-10
-2.41302e-12
-1.1715e-10
-2.49197e-12
-1.1458e-10
-2.57011e-12
-1.11935e-10
-2.6464e-12
-1.09217e-10
-2.71973e-12
-1.06428e-10
-2.79027e-12
-1.0357e-10
-2.85874e-12
-1.00645e-10
-2.92479e-12
-9.76576e-11
-2.98724e-12
-9.46115e-11
-3.04565e-12
-9.15099e-11
-3.10086e-12
-8.83549e-11
-3.15399e-12
-8.51491e-11
-3.20496e-12
-8.1896e-11
-3.25247e-12
-7.86006e-11
-3.29517e-12
-7.52684e-11
-3.33235e-12
-7.19051e-11
-3.36407e-12
-6.85158e-11
-3.39029e-12
-6.51061e-11
-3.41036e-12
-6.16816e-11
-3.42404e-12
-5.82489e-11
-3.43171e-12
-5.48148e-11
-3.43312e-12
-5.13874e-11
-3.42709e-12
-4.79748e-11
-3.4128e-12
-4.45848e-11
-3.39061e-12
-4.12247e-11
-3.3608e-12
-3.79036e-11
-3.32206e-12
-3.46313e-11
-3.27271e-12
-3.14177e-11
-3.21258e-12
-2.82736e-11
-3.14224e-12
-2.52101e-11
-3.06201e-12
-2.22387e-11
-2.97145e-12
-1.9371e-11
-2.8692e-12
-1.66186e-11
-2.75379e-12
-1.39938e-11
-2.62455e-12
-1.15104e-11
-2.48196e-12
-9.18106e-12
-2.32748e-12
-7.01748e-12
-2.1621e-12
-5.03147e-12
-1.98566e-12
-3.23481e-12
-1.79772e-12
-1.63848e-12
-1.59801e-12
-2.53049e-13
-1.38665e-12
9.11014e-13
-1.16433e-12
1.8445e-12
-9.32728e-13
2.53997e-12
-6.94436e-13
2.99243e-12
-4.5231e-13
3.20174e-12
-2.1027e-13
3.17407e-12
2.62529e-14
2.92424e-12
2.49051e-13
2.47907e-12
4.45434e-13
1.88321e-12
5.9632e-13
1.20692e-12
6.76301e-13
5.59093e-13
6.47766e-13
1.03527e-13
4.55843e-13
1.03798e-13
-5.0712e-13
3.22045e-13
5.54737e-13
-2.59357e-12
3.20565e-12
-5.00401e-12
5.98292e-12
-4.77196e-12
8.22238e-12
-3.53752e-12
9.67186e-12
-2.16455e-12
1.02874e-11
-8.70849e-13
1.00903e-11
3.09628e-13
9.11112e-12
1.40022e-12
7.38402e-12
2.4191e-12
4.93805e-12
3.38822e-12
1.80398e-12
4.31098e-12
-1.98949e-12
5.18884e-12
-6.41126e-12
6.02765e-12
-1.14251e-11
6.8255e-12
-1.70052e-11
7.58316e-12
-2.31123e-11
8.29022e-12
-2.97179e-11
8.94894e-12
-3.67833e-11
9.56149e-12
-4.42723e-11
1.01297e-11
-5.21531e-11
1.06548e-11
-6.0389e-11
1.11322e-11
-6.89475e-11
1.15598e-11
-7.77945e-11
1.1942e-11
-8.68939e-11
1.22808e-11
-9.62171e-11
1.25793e-11
-1.05734e-10
1.28376e-11
-1.15415e-10
1.30542e-11
-1.25234e-10
1.32335e-11
-1.35161e-10
1.33796e-11
-1.4517e-10
1.34918e-11
-1.55238e-10
1.35696e-11
-1.65341e-10
1.3614e-11
-1.75458e-10
1.36267e-11
-1.85568e-10
1.36126e-11
-1.95649e-10
1.35749e-11
-2.05684e-10
1.35119e-11
-2.15657e-10
1.34259e-11
-2.25551e-10
1.33182e-11
-2.35351e-10
1.31874e-11
-2.45044e-10
1.3038e-11
-2.54613e-10
1.28734e-11
-2.64047e-10
1.26901e-11
-2.73334e-10
1.249e-11
-2.82462e-10
1.2276e-11
-2.9142e-10
1.2046e-11
-3.00198e-10
1.18017e-11
-3.08789e-10
1.1547e-11
-3.17183e-10
1.12813e-11
-3.25374e-10
1.10046e-11
-3.33353e-10
1.07209e-11
-3.41115e-10
1.04302e-11
-3.48652e-10
1.01286e-11
-3.55956e-10
9.8171e-12
-3.63022e-10
9.49887e-12
-3.69847e-10
9.17282e-12
-3.76427e-10
8.83899e-12
-3.82758e-10
8.50198e-12
-3.88834e-10
8.16412e-12
-3.9465e-10
7.82111e-12
-4.00202e-10
7.46856e-12
-4.05488e-10
7.10769e-12
-4.10507e-10
6.74201e-12
-4.15252e-10
6.37377e-12
-4.19722e-10
6.00417e-12
-4.23914e-10
5.6333e-12
-4.27825e-10
5.25954e-12
-4.31453e-10
4.88016e-12
-4.34797e-10
4.4944e-12
-4.37854e-10
4.10583e-12
-4.40623e-10
3.71794e-12
-4.43101e-10
3.3298e-12
-4.45287e-10
2.9397e-12
-4.47181e-10
2.54807e-12
-4.48782e-10
2.15567e-12
-4.50088e-10
1.76196e-12
-4.511e-10
1.36631e-12
-4.51818e-10
9.69708e-13
-4.5224e-10
5.73804e-13
-4.52366e-10
1.7791e-13
-4.52196e-10
-2.19935e-13
-4.51731e-10
-6.18723e-13
-4.50971e-10
-1.016e-12
-4.49916e-10
-1.41198e-12
-4.48567e-10
-1.80743e-12
-4.46924e-10
-2.20109e-12
-4.4499e-10
-2.5927e-12
-4.42764e-10
-2.98366e-12
-4.40249e-10
-3.3738e-12
-4.37444e-10
-3.76114e-12
-4.34353e-10
-4.14455e-12
-4.30977e-10
-4.52494e-12
-4.27318e-10
-4.90404e-12
-4.23378e-10
-5.28186e-12
-4.1916e-10
-5.65597e-12
-4.14665e-10
-6.02476e-12
-4.09897e-10
-6.38983e-12
-4.0486e-10
-6.75306e-12
-3.99556e-10
-7.11293e-12
-3.93989e-10
-7.46691e-12
-3.88161e-10
-7.81556e-12
-3.82077e-10
-8.16076e-12
-3.75742e-10
-8.50155e-12
-3.69159e-10
-8.83495e-12
-3.62336e-10
-9.15955e-12
-3.55275e-10
-9.47623e-12
-3.47981e-10
-9.78618e-12
-3.40461e-10
-1.00893e-11
-3.3272e-10
-1.0385e-11
-3.24765e-10
-1.06724e-11
-3.16603e-10
-1.0951e-11
-3.08242e-10
-1.12199e-11
-2.99691e-10
-1.14776e-11
-2.90956e-10
-1.17228e-11
-2.82048e-10
-1.19549e-11
-2.72975e-10
-1.21741e-11
-2.63748e-10
-1.23804e-11
-2.54379e-10
-1.25728e-11
-2.4488e-10
-1.275e-11
-2.35264e-10
-1.29103e-11
-2.25543e-10
-1.30519e-11
-2.15733e-10
-1.31734e-11
-2.05849e-10
-1.32736e-11
-1.95909e-10
-1.33513e-11
-1.85929e-10
-1.3405e-11
-1.75927e-10
-1.34339e-11
-1.65924e-10
-1.34368e-11
-1.55939e-10
-1.34112e-11
-1.45996e-10
-1.33552e-11
-1.36119e-10
-1.32676e-11
-1.26331e-10
-1.31479e-11
-1.16659e-10
-1.29937e-11
-1.0713e-10
-1.28022e-11
-9.77719e-11
-1.25712e-11
-8.86148e-11
-1.22996e-11
-7.96885e-11
-1.19869e-11
-7.10244e-11
-1.16323e-11
-6.26561e-11
-1.12345e-11
-5.46174e-11
-1.07917e-11
-4.69413e-11
-1.03019e-11
-3.96612e-11
-9.76406e-12
-3.28115e-11
-9.17857e-12
-2.64266e-11
-8.5468e-12
-2.05397e-11
-7.87055e-12
-1.51832e-11
-7.15183e-12
-1.03878e-11
-6.39234e-12
-6.18084e-12
-5.59413e-12
-2.58647e-12
-4.7607e-12
3.76174e-13
-3.89791e-12
2.69546e-12
-3.01511e-12
4.36834e-12
-2.125e-12
5.40318e-12
-1.24415e-12
5.82364e-12
-3.93924e-13
5.67418e-12
3.97576e-13
5.02804e-12
1.09072e-12
3.9951e-12
1.62958e-12
2.7324e-12
1.93988e-12
1.45668e-12
1.92381e-12
4.45586e-13
1.46687e-12
5.49559e-13
-1.0077e-12
1.32597e-12
-1.03776e-12
-2.55963e-12
4.16658e-13
-6.45989e-12
2.46273e-12
-6.81735e-12
4.32241e-12
-5.39848e-12
5.52585e-12
-3.36878e-12
5.82192e-12
-1.16701e-12
5.07831e-12
1.0536e-12
3.24589e-12
3.23332e-12
3.08825e-13
5.35672e-12
-3.72001e-12
7.41708e-12
-8.8189e-12
9.40923e-12
-1.49572e-11
1.13264e-11
-2.20913e-11
1.31621e-11
-3.01779e-11
1.49115e-11
-3.91635e-11
1.65699e-11
-4.90001e-11
1.81265e-11
-5.96358e-11
1.95846e-11
-7.10144e-11
2.09405e-11
-8.30808e-11
2.21956e-11
-9.57777e-11
2.33521e-11
-1.0905e-10
2.44048e-11
-1.22846e-10
2.53561e-11
-1.37113e-10
2.62101e-11
-1.51797e-10
2.69666e-11
-1.66848e-10
2.76314e-11
-1.82215e-10
2.82073e-11
-1.97854e-10
2.86942e-11
-2.13719e-10
2.90992e-11
-2.29766e-10
2.94271e-11
-2.45953e-10
2.96785e-11
-2.6224e-10
2.9857e-11
-2.7859e-10
2.99652e-11
-2.94968e-10
3.00053e-11
-3.1134e-10
2.99842e-11
-3.27674e-10
2.99065e-11
-3.4394e-10
2.9774e-11
-3.60106e-10
2.95906e-11
-3.76148e-10
2.93593e-11
-3.92042e-10
2.9081e-11
-4.07763e-10
2.87601e-11
-4.23289e-10
2.83995e-11
-4.38599e-10
2.80006e-11
-4.53675e-10
2.7566e-11
-4.68497e-10
2.70977e-11
-4.83049e-10
2.65971e-11
-4.97314e-10
2.60669e-11
-5.11276e-10
2.55098e-11
-5.24922e-10
2.49272e-11
-5.38238e-10
2.43217e-11
-5.51213e-10
2.36966e-11
-5.63835e-10
2.30518e-11
-5.76094e-10
2.23864e-11
-5.8798e-10
2.17022e-11
-5.99482e-10
2.10007e-11
-6.10592e-10
2.02828e-11
-6.21303e-10
1.95512e-11
-6.31609e-10
1.88087e-11
-6.41502e-10
1.8056e-11
-6.50973e-10
1.72915e-11
-6.60017e-10
1.6513e-11
-6.68629e-10
1.57205e-11
-6.76803e-10
1.49165e-11
-6.84533e-10
1.41046e-11
-6.91816e-10
1.3287e-11
-6.98648e-10
1.24635e-11
-7.05022e-10
1.16328e-11
-7.10934e-10
1.07934e-11
-7.16384e-10
9.94526e-12
-7.21368e-10
9.09102e-12
-7.25881e-10
8.2329e-12
-7.29921e-10
7.37102e-12
-7.33487e-10
6.50557e-12
-7.36576e-10
5.63723e-12
-7.39186e-10
4.76592e-12
-7.41316e-10
3.8917e-12
-7.42965e-10
3.0156e-12
-7.44134e-10
2.1386e-12
-7.44821e-10
1.26075e-12
-7.45024e-10
3.81427e-13
-7.44746e-10
-4.9934e-13
-7.43985e-10
-1.37986e-12
-7.42743e-10
-2.25842e-12
-7.4102e-10
-3.13516e-12
-7.38817e-10
-4.01025e-12
-7.36134e-10
-4.88252e-12
-7.32974e-10
-5.75162e-12
-7.29338e-10
-6.61836e-12
-7.2523e-10
-7.48198e-12
-7.20651e-10
-8.34023e-12
-7.15603e-10
-9.19221e-12
-7.1009e-10
-1.00387e-11
-7.04114e-10
-1.08803e-11
-6.97679e-10
-1.17163e-11
-6.90792e-10
-1.25448e-11
-6.83453e-10
-1.33644e-11
-6.75668e-10
-1.41754e-11
-6.67442e-10
-1.49785e-11
-6.58782e-10
-1.57726e-11
-6.49693e-10
-1.6556e-11
-6.40181e-10
-1.73283e-11
-6.3025e-10
-1.80902e-11
-6.19909e-10
-1.88406e-11
-6.09165e-10
-1.9577e-11
-5.98026e-10
-2.02979e-11
-5.86501e-10
-2.10029e-11
-5.74597e-10
-2.16918e-11
-5.62325e-10
-2.23635e-11
-5.49695e-10
-2.30169e-11
-5.36717e-10
-2.36512e-11
-5.23402e-10
-2.42655e-11
-5.09763e-10
-2.48579e-11
-4.95814e-10
-2.54258e-11
-4.81569e-10
-2.5967e-11
-4.67042e-10
-2.64805e-11
-4.5225e-10
-2.69656e-11
-4.37208e-10
-2.74208e-11
-4.21937e-10
-2.78435e-11
-4.06457e-10
-2.8231e-11
-3.90787e-10
-2.85805e-11
-3.74951e-10
-2.8889e-11
-3.5897e-10
-2.91536e-11
-3.42871e-10
-2.93716e-11
-3.26681e-10
-2.95406e-11
-3.10427e-10
-2.96578e-11
-2.94141e-10
-2.972e-11
-2.77854e-10
-2.97238e-11
-2.61601e-10
-2.96653e-11
-2.45417e-10
-2.95407e-11
-2.29339e-10
-2.93468e-11
-2.13406e-10
-2.90805e-11
-1.97661e-10
-2.87379e-11
-1.82146e-10
-2.83151e-11
-1.66907e-10
-2.78087e-11
-1.51992e-10
-2.72155e-11
-1.37448e-10
-2.65326e-11
-1.23324e-10
-2.57569e-11
-1.09671e-10
-2.48862e-11
-9.65416e-11
-2.39187e-11
-8.39887e-11
-2.28526e-11
-7.2065e-11
-2.16866e-11
-6.0823e-11
-2.04209e-11
-5.03149e-11
-1.90566e-11
-4.05913e-11
-1.7596e-11
-3.17003e-11
-1.60436e-11
-2.36871e-11
-1.44054e-11
-1.65914e-11
-1.26888e-11
-1.04468e-11
-1.09044e-11
-5.27891e-12
-9.06651e-12
-1.10169e-12
-7.19429e-12
2.08501e-12
-5.31349e-12
4.29878e-12
-3.45845e-12
5.57959e-12
-1.67425e-12
5.9965e-12
-1.90439e-14
5.65572e-12
1.43118e-12
4.70904e-12
2.57606e-12
3.36298e-12
3.28642e-12
1.88812e-12
3.39921e-12
6.25607e-13
2.72955e-12
1.17542e-12
-6.46086e-13
1.97229e-12
-8.96147e-13
-2.30862e-12
-3.15842e-13
-7.03927e-12
6.88904e-13
-7.81987e-12
1.53372e-12
-6.24179e-12
1.74066e-12
-3.57522e-12
9.82018e-13
-4.0815e-13
-9.49474e-13
2.98608e-12
-4.18115e-12
6.46402e-12
-8.77049e-12
9.94693e-12
-1.47366e-11
1.33846e-11
-2.2073e-11
1.67459e-11
-3.07504e-11
2.00045e-11
-4.07275e-11
2.3139e-11
-5.1954e-11
2.61387e-11
-6.43699e-11
2.89859e-11
-7.79161e-11
3.16732e-11
-9.25235e-11
3.41923e-11
-1.08122e-10
3.65385e-11
-1.2464e-10
3.87137e-11
-1.42004e-10
4.0715e-11
-1.60142e-10
4.25419e-11
-1.78985e-10
4.41987e-11
-1.98461e-10
4.56848e-11
-2.18502e-10
4.70064e-11
-2.39041e-10
4.81704e-11
-2.60012e-10
4.91777e-11
-2.81353e-10
5.00352e-11
-3.03002e-10
5.0749e-11
-3.24898e-10
5.13232e-11
-3.46986e-10
5.17668e-11
-3.69215e-10
5.20855e-11
-3.91533e-10
5.22827e-11
-4.13892e-10
5.23657e-11
-4.36246e-10
5.23405e-11
-4.58552e-10
5.2213e-11
-4.80768e-10
5.199e-11
-5.02854e-10
5.16769e-11
-5.24775e-10
5.12786e-11
-5.46494e-10
5.07998e-11
-5.6798e-10
5.02456e-11
-5.89201e-10
4.96209e-11
-6.1013e-10
4.89299e-11
-6.3074e-10
4.81766e-11
-6.51007e-10
4.73646e-11
-6.70907e-10
4.64971e-11
-6.90419e-10
4.55783e-11
-7.09522e-10
4.46117e-11
-7.28195e-10
4.36e-11
-7.4642e-10
4.25467e-11
-7.64179e-10
4.14555e-11
-7.81456e-10
4.03287e-11
-7.98236e-10
3.91681e-11
-8.1451e-10
3.79758e-11
-8.30264e-10
3.67533e-11
-8.45485e-10
3.55027e-11
-8.6016e-10
3.42266e-11
-8.74277e-10
3.29271e-11
-8.87826e-10
3.16061e-11
-9.008e-10
3.02652e-11
-9.13192e-10
2.89044e-11
-9.24995e-10
2.75231e-11
-9.36199e-10
2.61221e-11
-9.46797e-10
2.47036e-11
-9.56779e-10
2.32709e-11
-9.66141e-10
2.18258e-11
-9.74877e-10
2.03683e-11
-9.82983e-10
1.88984e-11
-9.90455e-10
1.74169e-11
-9.97289e-10
1.59246e-11
-1.00348e-09
1.44228e-11
-1.00902e-09
1.2913e-11
-1.01391e-09
1.1397e-11
-1.01815e-09
9.8758e-12
-1.02173e-09
8.34879e-12
-1.02466e-09
6.81649e-12
-1.02692e-09
5.28109e-12
-1.02853e-09
3.74383e-12
-1.02947e-09
2.20443e-12
-1.02975e-09
6.63281e-13
-1.02937e-09
-8.78396e-13
-1.02833e-09
-2.41956e-12
-1.02663e-09
-3.95941e-12
-1.02427e-09
-5.49712e-12
-1.02125e-09
-7.03128e-12
-1.01757e-09
-8.56027e-12
-1.01324e-09
-1.00839e-11
-1.00825e-09
-1.16028e-11
-1.00262e-09
-1.31156e-11
-9.96342e-10
-1.46196e-11
-9.8942e-10
-1.61138e-11
-9.81861e-10
-1.75986e-11
-9.73667e-10
-1.90734e-11
-9.64845e-10
-2.05371e-11
-9.55401e-10
-2.19883e-11
-9.4534e-10
-2.34257e-11
-9.34666e-10
-2.48485e-11
-9.23389e-10
-2.62558e-11
-9.11514e-10
-2.76464e-11
-8.99051e-10
-2.90189e-11
-8.86008e-10
-3.03722e-11
-8.72394e-10
-3.17053e-11
-8.58219e-10
-3.30165e-11
-8.43492e-10
-3.43038e-11
-8.28224e-10
-3.55658e-11
-8.12424e-10
-3.68013e-11
-7.96107e-10
-3.80085e-11
-7.79285e-10
-3.91849e-11
-7.61975e-10
-4.03281e-11
-7.44191e-10
-4.14367e-11
-7.25948e-10
-4.25093e-11
-7.07262e-10
-4.35434e-11
-6.88153e-10
-4.4535e-11
-6.68639e-10
-4.54808e-11
-6.4874e-10
-4.63783e-11
-6.28479e-10
-4.72251e-11
-6.07882e-10
-4.80177e-11
-5.86972e-10
-4.87523e-11
-5.65777e-10
-4.94252e-11
-5.44324e-10
-5.00323e-11
-5.22645e-10
-5.05685e-11
-5.00771e-10
-5.10278e-11
-4.78738e-10
-5.14051e-11
-4.56581e-10
-5.16967e-11
-4.3434e-10
-5.18986e-11
-4.12055e-10
-5.20048e-11
-3.8977e-10
-5.20087e-11
-3.67532e-10
-5.19038e-11
-3.45388e-10
-5.16844e-11
-3.2339e-10
-5.13455e-11
-3.01591e-10
-5.0881e-11
-2.80045e-10
-5.02842e-11
-2.5881e-10
-4.95488e-11
-2.37948e-10
-4.86696e-11
-2.17519e-10
-4.7642e-11
-1.97591e-10
-4.64608e-11
-1.78228e-10
-4.51209e-11
-1.59497e-10
-4.36177e-11
-1.41467e-10
-4.19488e-11
-1.24206e-10
-4.01126e-11
-1.07783e-10
-3.81081e-11
-9.2267e-11
-3.59355e-11
-7.77254e-11
-3.35974e-11
-6.42236e-11
-3.10986e-11
-5.18218e-11
-2.84467e-11
-4.05761e-11
-2.56525e-11
-3.05355e-11
-2.27302e-11
-2.17404e-11
-1.96993e-11
-1.42209e-11
-1.65856e-11
-7.99254e-12
-1.3423e-11
-3.05193e-12
-1.02551e-11
6.26437e-13
-7.13769e-12
3.0951e-12
-4.14306e-12
4.43998e-12
-1.36355e-12
4.78792e-12
1.08356e-12
4.31472e-12
3.04929e-12
3.25399e-12
4.34734e-12
1.90635e-12
4.74728e-12
6.54205e-13
3.98193e-12
1.82993e-12
-1.21553e-13
2.09312e-12
-3.32742e-13
-2.09617e-12
-3.9173e-13
-6.98137e-12
-4.29196e-13
-7.78182e-12
-8.25364e-13
-5.84481e-12
-1.98304e-12
-2.4178e-12
-4.22147e-12
1.83111e-12
-7.77397e-12
6.53842e-12
-1.2795e-11
1.14852e-11
-1.93755e-11
1.65275e-11
-2.75598e-11
2.15686e-11
-3.7354e-11
2.65411e-11
-4.87406e-11
3.13909e-11
-6.16812e-11
3.60804e-11
-7.61194e-11
4.05769e-11
-9.19945e-11
4.48607e-11
-1.09234e-10
4.89137e-11
-1.27763e-10
5.27212e-11
-1.47501e-10
5.62769e-11
-1.68363e-10
5.95754e-11
-1.90261e-10
6.26132e-11
-2.13112e-10
6.53934e-11
-2.36828e-10
6.79149e-11
-2.61325e-10
7.0182e-11
-2.86519e-10
7.22018e-11
-3.12328e-10
7.39785e-11
-3.38671e-10
7.5521e-11
-3.65474e-10
7.68382e-11
-3.9266e-10
7.79348e-11
-4.20156e-10
7.88201e-11
-4.47893e-10
7.95049e-11
-4.75805e-10
7.99965e-11
-5.03829e-10
8.0305e-11
-5.31905e-10
8.04408e-11
-5.59976e-10
8.04105e-11
-5.87986e-10
8.02239e-11
-6.15886e-10
7.98905e-11
-6.43627e-10
7.94177e-11
-6.71162e-10
7.88137e-11
-6.98448e-10
7.80866e-11
-7.25446e-10
7.72428e-11
-7.52115e-10
7.62898e-11
-7.7842e-10
7.52345e-11
-8.04326e-10
7.4083e-11
-8.29802e-10
7.28412e-11
-8.54819e-10
7.15146e-11
-8.7935e-10
7.01087e-11
-9.03367e-10
6.8629e-11
-9.26848e-10
6.70808e-11
-9.4977e-10
6.5468e-11
-9.7211e-10
6.37945e-11
-9.93847e-10
6.20649e-11
-1.01496e-09
6.02832e-11
-1.03544e-09
5.84521e-11
-1.05526e-09
5.65751e-11
-1.07441e-09
5.46556e-11
-1.09288e-09
5.26965e-11
-1.11066e-09
5.06994e-11
-1.12771e-09
4.86664e-11
-1.14405e-09
4.66003e-11
-1.15965e-09
4.4504e-11
-1.17451e-09
4.2379e-11
-1.18861e-09
4.02261e-11
-1.20195e-09
3.80468e-11
-1.21453e-09
3.58439e-11
-1.22632e-09
3.36188e-11
-1.23732e-09
3.13731e-11
-1.24753e-09
2.91089e-11
-1.25694e-09
2.68282e-11
-1.26555e-09
2.45316e-11
-1.27334e-09
2.22198e-11
-1.28033e-09
1.98951e-11
-1.28649e-09
1.75601e-11
-1.29183e-09
1.52161e-11
-1.29634e-09
1.28634e-11
-1.30003e-09
1.05034e-11
-1.30289e-09
8.13825e-12
-1.30491e-09
5.76901e-12
-1.30611e-09
3.39596e-12
-1.30646e-09
1.02099e-12
-1.30599e-09
-1.3536e-12
-1.30468e-09
-3.72723e-12
-1.30254e-09
-6.09945e-12
-1.29957e-09
-8.46848e-12
-1.29576e-09
-1.08322e-11
-1.29114e-09
-1.3189e-11
-1.28568e-09
-1.5538e-11
-1.27941e-09
-1.78785e-11
-1.27231e-09
-2.02084e-11
-1.26441e-09
-2.25257e-11
-1.25569e-09
-2.48292e-11
-1.24617e-09
-2.71182e-11
-1.23586e-09
-2.93908e-11
-1.22475e-09
-3.16449e-11
-1.21286e-09
-3.38797e-11
-1.20019e-09
-3.60944e-11
-1.18675e-09
-3.82866e-11
-1.17255e-09
-4.04541e-11
-1.1576e-09
-4.25953e-11
-1.14191e-09
-4.47091e-11
-1.12549e-09
-4.67938e-11
-1.10835e-09
-4.88466e-11
-1.0905e-09
-5.08646e-11
-1.07196e-09
-5.28455e-11
-1.05274e-09
-5.47876e-11
-1.03285e-09
-5.66887e-11
-1.01231e-09
-5.85458e-11
-9.91144e-10
-6.03554e-11
-9.69357e-10
-6.21143e-11
-9.46974e-10
-6.38194e-11
-9.24016e-10
-6.54677e-11
-9.00503e-10
-6.70552e-11
-8.76461e-10
-6.85774e-11
-8.51911e-10
-7.00302e-11
-8.26879e-10
-7.14092e-11
-8.01395e-10
-7.27095e-11
-7.75488e-10
-7.39251e-11
-7.4919e-10
-7.50502e-11
-7.22535e-10
-7.60793e-11
-6.95559e-10
-7.7007e-11
-6.683e-10
-7.78263e-11
-6.40798e-10
-7.85285e-11
-6.13098e-10
-7.91054e-11
-5.85245e-10
-7.95505e-11
-5.57287e-10
-7.98571e-11
-5.29276e-10
-8.00169e-11
-5.01265e-10
-8.002e-11
-4.73312e-10
-7.98572e-11
-4.45476e-10
-7.952e-11
-4.1782e-10
-7.90003e-11
-3.90412e-10
-7.82894e-11
-3.63319e-10
-7.73778e-11
-3.36613e-10
-7.62559e-11
-3.10367e-10
-7.49161e-11
-2.84656e-10
-7.33516e-11
-2.5956e-10
-7.1555e-11
-2.3516e-10
-6.95195e-11
-2.11538e-10
-6.72392e-11
-1.88777e-10
-6.47102e-11
-1.66959e-10
-6.19306e-11
-1.46168e-10
-5.88999e-11
-1.26484e-10
-5.56192e-11
-1.07988e-10
-5.2093e-11
-9.07562e-11
-4.83298e-11
-7.48604e-11
-4.43423e-11
-6.03658e-11
-4.01477e-11
-4.73291e-11
-3.57682e-11
-3.5796e-11
-3.12335e-11
-2.57989e-11
-2.65831e-11
-1.73537e-11
-2.1868e-11
-1.04557e-11
-1.71531e-11
-5.07485e-12
-1.25189e-11
-1.15089e-12
-8.06742e-12
1.41269e-12
-3.92719e-12
2.75428e-12
-2.57763e-13
3.06109e-12
2.74272e-12
2.57839e-12
4.83036e-12
1.61941e-12
5.7069e-12
5.83303e-13
5.01846e-12
2.41348e-12
1.58204e-13
1.93482e-12
-5.55333e-14
-1.88303e-12
-6.8347e-13
-6.35301e-12
-1.73727e-12
-6.72808e-12
-3.46235e-12
-4.12102e-12
-6.1587e-12
2.78234e-13
-1.01097e-11
5.78267e-12
-1.55385e-11
1.19673e-11
-2.26033e-11
1.85504e-11
-3.14093e-11
2.53328e-11
-4.201e-11
3.21698e-11
-5.44244e-11
3.89549e-11
-6.86413e-11
4.56082e-11
-8.4625e-11
5.20643e-11
-1.02324e-10
5.82762e-11
-1.2167e-10
6.42071e-11
-1.42586e-10
6.98289e-11
-1.64988e-10
7.51237e-11
-1.88787e-10
8.0076e-11
-2.13888e-10
8.46755e-11
-2.40196e-10
8.89207e-11
-2.6761e-10
9.28075e-11
-2.96034e-10
9.63385e-11
-3.25372e-10
9.95197e-11
-3.55524e-10
1.02354e-10
-3.86397e-10
1.04852e-10
-4.17897e-10
1.07022e-10
-4.49935e-10
1.08875e-10
-4.82423e-10
1.10422e-10
-5.15278e-10
1.11675e-10
-5.48417e-10
1.12645e-10
-5.81763e-10
1.13344e-10
-6.15242e-10
1.13785e-10
-6.48783e-10
1.13981e-10
-6.82318e-10
1.13945e-10
-7.15782e-10
1.13688e-10
-7.49115e-10
1.13223e-10
-7.82258e-10
1.12561e-10
-8.15158e-10
1.11713e-10
-8.47762e-10
1.10691e-10
-8.80024e-10
1.09504e-10
-9.11895e-10
1.08162e-10
-9.43336e-10
1.06674e-10
-9.74303e-10
1.0505e-10
-1.00476e-09
1.03298e-10
-1.03467e-09
1.01426e-10
-1.064e-09
9.944e-11
-1.09272e-09
9.73491e-11
-1.1208e-09
9.51607e-11
-1.14822e-09
9.28803e-11
-1.17493e-09
9.05137e-11
-1.20094e-09
8.80669e-11
-1.2262e-09
8.5545e-11
-1.2507e-09
8.29521e-11
-1.27442e-09
8.02933e-11
-1.29733e-09
7.75733e-11
-1.31943e-09
7.47965e-11
-1.3407e-09
7.19661e-11
-1.36112e-09
6.90846e-11
-1.38067e-09
6.61549e-11
-1.39935e-09
6.31802e-11
-1.41713e-09
6.01639e-11
-1.43402e-09
5.71089e-11
-1.44999e-09
5.40178e-11
-1.46504e-09
5.08929e-11
-1.47916e-09
4.77362e-11
-1.49233e-09
4.45495e-11
-1.50456e-09
4.1336e-11
-1.51583e-09
3.80983e-11
-1.52613e-09
3.48377e-11
-1.53547e-09
3.15565e-11
-1.54383e-09
2.82575e-11
-1.55121e-09
2.49424e-11
-1.55761e-09
2.16129e-11
-1.56302e-09
1.82716e-11
-1.56744e-09
1.49207e-11
-1.57086e-09
1.1562e-11
-1.57329e-09
8.19666e-12
-1.57472e-09
4.82623e-12
-1.57515e-09
1.45337e-12
-1.57458e-09
-1.91959e-12
-1.57302e-09
-5.29151e-12
-1.57046e-09
-8.66083e-12
-1.5669e-09
-1.20247e-11
-1.56235e-09
-1.53812e-11
-1.55681e-09
-1.87289e-11
-1.55028e-09
-2.20661e-11
-1.54277e-09
-2.53901e-11
-1.53428e-09
-2.86983e-11
-1.52482e-09
-3.1989e-11
-1.51439e-09
-3.5261e-11
-1.50299e-09
-3.85122e-11
-1.49064e-09
-4.17399e-11
-1.47735e-09
-4.49412e-11
-1.46311e-09
-4.81149e-11
-1.44795e-09
-5.12597e-11
-1.43186e-09
-5.43724e-11
-1.41486e-09
-5.74497e-11
-1.39697e-09
-6.04893e-11
-1.37819e-09
-6.34896e-11
-1.35853e-09
-6.64481e-11
-1.33802e-09
-6.9361e-11
-1.31666e-09
-7.22246e-11
-1.29447e-09
-7.50356e-11
-1.27147e-09
-7.77913e-11
-1.24767e-09
-8.04878e-11
-1.22309e-09
-8.31208e-11
-1.19776e-09
-8.5686e-11
-1.1717e-09
-8.81796e-11
-1.14492e-09
-9.05973e-11
-1.11745e-09
-9.29332e-11
-1.08933e-09
-9.51816e-11
-1.06057e-09
-9.73369e-11
-1.0312e-09
-9.93937e-11
-1.00127e-09
-1.01346e-10
-9.7079e-10
-1.03185e-10
-9.39811e-10
-1.04905e-10
-9.08365e-10
-1.06495e-10
-8.76495e-10
-1.0795e-10
-8.44243e-10
-1.09259e-10
-8.11655e-10
-1.10414e-10
-7.78779e-10
-1.11403e-10
-7.45666e-10
-1.12217e-10
-7.12372e-10
-1.12845e-10
-6.78953e-10
-1.13277e-10
-6.45471e-10
-1.135e-10
-6.1199e-10
-1.13502e-10
-5.78577e-10
-1.13271e-10
-5.45302e-10
-1.12796e-10
-5.12238e-10
-1.12064e-10
-4.79463e-10
-1.11063e-10
-4.4706e-10
-1.09781e-10
-4.1511e-10
-1.08206e-10
-3.83701e-10
-1.06326e-10
-3.5292e-10
-1.04133e-10
-3.22858e-10
-1.01616e-10
-2.9361e-10
-9.87669e-11
-2.65269e-10
-9.55786e-11
-2.37932e-10
-9.20466e-11
-2.11694e-10
-8.81686e-11
-1.86649e-10
-8.39445e-11
-1.62892e-10
-7.93772e-11
-1.40511e-10
-7.44739e-11
-1.19594e-10
-6.92472e-11
-1.0022e-10
-6.37158e-11
-8.24624e-11
-5.79047e-11
-6.63852e-11
-5.18459e-11
-5.20382e-11
-4.55814e-11
-3.94563e-11
-3.91657e-11
-2.86563e-11
-3.26682e-11
-1.96328e-11
-2.61762e-11
-1.23541e-11
-1.97974e-11
-6.75709e-12
-1.36647e-11
-2.74152e-12
-7.94301e-12
-1.64931e-13
-2.8342e-12
1.16238e-12
1.41557e-12
1.48606e-12
4.50691e-12
1.11712e-12
6.07652e-12
4.48672e-13
5.68749e-12
2.8624e-12
2.25921e-13
1.71139e-12
-1.57322e-13
-1.50199e-12
-1.39759e-12
-5.11153e-12
-3.4867e-12
-4.63783e-12
-6.57725e-12
-1.03026e-12
-1.09047e-11
4.6057e-12
-1.67002e-11
1.1579e-11
-2.41599e-11
1.94272e-11
-3.34317e-11
2.78225e-11
-4.46171e-11
3.65189e-11
-5.77755e-11
4.53284e-11
-7.29278e-11
5.41074e-11
-9.00637e-11
6.27445e-11
-1.09152e-10
7.11528e-11
-1.30139e-10
7.92638e-11
-1.52957e-10
8.70242e-11
-1.77523e-10
9.43955e-11
-2.03747e-10
1.01348e-10
-2.31533e-10
1.07861e-10
-2.60777e-10
1.13921e-10
-2.91375e-10
1.19518e-10
-3.23218e-10
1.2465e-10
-3.56197e-10
1.29318e-10
-3.90204e-10
1.33527e-10
-4.25132e-10
1.37282e-10
-4.60876e-10
1.40595e-10
-4.97329e-10
1.43476e-10
-5.3439e-10
1.45937e-10
-5.71962e-10
1.47994e-10
-6.09949e-10
1.49661e-10
-6.48259e-10
1.50954e-10
-6.86803e-10
1.51888e-10
-7.25498e-10
1.5248e-10
-7.64261e-10
1.52745e-10
-8.03017e-10
1.52701e-10
-8.41692e-10
1.52363e-10
-8.80216e-10
1.51746e-10
-9.18522e-10
1.50867e-10
-9.56548e-10
1.4974e-10
-9.94235e-10
1.48378e-10
-1.03153e-09
1.46796e-10
-1.06837e-09
1.45006e-10
-1.10472e-09
1.43021e-10
-1.14052e-09
1.40853e-10
-1.17573e-09
1.38513e-10
-1.21032e-09
1.36012e-10
-1.24424e-09
1.3336e-10
-1.27746e-09
1.30565e-10
-1.30994e-09
1.27638e-10
-1.34164e-09
1.24588e-10
-1.37255e-09
1.21422e-10
-1.40263e-09
1.18147e-10
-1.43186e-09
1.14771e-10
-1.4602e-09
1.113e-10
-1.48765e-09
1.07739e-10
-1.51417e-09
1.04095e-10
-1.53975e-09
1.00372e-10
-1.56436e-09
9.65767e-11
-1.58799e-09
9.27136e-11
-1.61062e-09
8.87862e-11
-1.63223e-09
8.47978e-11
-1.65282e-09
8.07523e-11
-1.67237e-09
7.66541e-11
-1.69086e-09
7.2507e-11
-1.70828e-09
6.83141e-11
-1.72462e-09
6.40786e-11
-1.73987e-09
5.98037e-11
-1.75403e-09
5.54922e-11
-1.76708e-09
5.11469e-11
-1.77901e-09
4.67707e-11
-1.78982e-09
4.23674e-11
-1.7995e-09
3.79402e-11
-1.80805e-09
3.34906e-11
-1.81546e-09
2.90212e-11
-1.82172e-09
2.45358e-11
-1.82684e-09
2.00374e-11
-1.83081e-09
1.55278e-11
-1.83362e-09
1.10091e-11
-1.83528e-09
6.48449e-12
-1.83578e-09
1.95674e-12
-1.83513e-09
-2.57218e-12
-1.83332e-09
-7.10014e-12
-1.83035e-09
-1.1624e-11
-1.82624e-09
-1.61401e-11
-1.82097e-09
-2.06464e-11
-1.81456e-09
-2.51413e-11
-1.807e-09
-2.96218e-11
-1.79831e-09
-3.40841e-11
-1.78848e-09
-3.85256e-11
-1.77753e-09
-4.29439e-11
-1.76545e-09
-4.73367e-11
-1.75226e-09
-5.17009e-11
-1.73797e-09
-5.60335e-11
-1.72258e-09
-6.03315e-11
-1.7061e-09
-6.45924e-11
-1.68855e-09
-6.88134e-11
-1.66993e-09
-7.29909e-11
-1.65026e-09
-7.71211e-11
-1.62955e-09
-8.1201e-11
-1.60781e-09
-8.52274e-11
-1.58506e-09
-8.91962e-11
-1.56132e-09
-9.31031e-11
-1.5366e-09
-9.6944e-11
-1.51092e-09
-1.00715e-10
-1.4843e-09
-1.04411e-10
-1.45676e-09
-1.08027e-10
-1.42833e-09
-1.11556e-10
-1.39902e-09
-1.14995e-10
-1.36886e-09
-1.18337e-10
-1.33788e-09
-1.21576e-10
-1.30611e-09
-1.24706e-10
-1.27357e-09
-1.27718e-10
-1.2403e-09
-1.30604e-10
-1.20634e-09
-1.33358e-10
-1.17171e-09
-1.35971e-10
-1.13647e-09
-1.38431e-10
-1.10064e-09
-1.4073e-10
-1.06428e-09
-1.42857e-10
-1.02743e-09
-1.44801e-10
-9.90136e-10
-1.46551e-10
-9.52457e-10
-1.48092e-10
-9.14448e-10
-1.49412e-10
-8.76166e-10
-1.50499e-10
-8.37674e-10
-1.51338e-10
-7.99039e-10
-1.51913e-10
-7.60328e-10
-1.5221e-10
-7.21618e-10
-1.52212e-10
-6.82983e-10
-1.51906e-10
-6.44505e-10
-1.51275e-10
-6.06266e-10
-1.50303e-10
-5.68356e-10
-1.48974e-10
-5.30864e-10
-1.47272e-10
-4.93886e-10
-1.45183e-10
-4.57519e-10
-1.42693e-10
-4.21864e-10
-1.39789e-10
-3.87022e-10
-1.36458e-10
-3.53099e-10
-1.3269e-10
-3.202e-10
-1.28478e-10
-2.8843e-10
-1.23815e-10
-2.57898e-10
-1.18701e-10
-2.28708e-10
-1.13134e-10
-2.00963e-10
-1.07122e-10
-1.74763e-10
-1.00674e-10
-1.50202e-10
-9.38088e-11
-1.27367e-10
-8.65503e-11
-1.06339e-10
-7.89325e-11
-8.71866e-11
-7.09984e-11
-6.99647e-11
-6.28038e-11
-5.4711e-11
-5.44197e-11
-4.14444e-11
-4.5935e-11
-3.01607e-11
-3.74599e-11
-2.08287e-11
-2.91291e-11
-1.33866e-11
-2.1107e-11
-7.73566e-12
-1.35941e-11
-3.73623e-12
-6.83332e-12
-1.20381e-12
-1.11654e-12
9.84473e-14
3.20471e-12
4.67679e-13
5.70765e-12
2.73212e-13
5.88232e-12
3.1358e-12
1.44146e-13
1.56914e-12
-5.66165e-13
-7.92371e-13
-2.49316e-12
-3.18414e-12
-5.65432e-12
-1.4745e-12
-1.01544e-11
3.47005e-12
-1.61704e-11
1.06213e-11
-2.38895e-11
1.92982e-11
-3.34758e-11
2.9014e-11
-4.50573e-11
3.94043e-11
-5.87253e-11
5.0187e-11
-7.45338e-11
6.11375e-11
-9.25014e-11
7.20755e-11
-1.12619e-10
8.28617e-11
-1.34851e-10
9.33851e-11
-1.59142e-10
1.03556e-10
-1.85424e-10
1.13306e-10
-2.13609e-10
1.22581e-10
-2.43603e-10
1.31342e-10
-2.75302e-10
1.3956e-10
-3.08596e-10
1.47215e-10
-3.43372e-10
1.54295e-10
-3.79516e-10
1.60794e-10
-4.16907e-10
1.6671e-10
-4.55427e-10
1.72048e-10
-4.94961e-10
1.76816e-10
-5.35392e-10
1.81027e-10
-5.76607e-10
1.8469e-10
-6.18493e-10
1.87823e-10
-6.60941e-10
1.90443e-10
-7.03848e-10
1.92567e-10
-7.4711e-10
1.94216e-10
-7.90631e-10
1.95409e-10
-8.34317e-10
1.96164e-10
-8.78076e-10
1.96504e-10
-9.21824e-10
1.96449e-10
-9.65479e-10
1.96017e-10
-1.00896e-09
1.9523e-10
-1.0522e-09
1.94106e-10
-1.09512e-09
1.92663e-10
-1.13767e-09
1.90919e-10
-1.17976e-09
1.88893e-10
-1.22136e-09
1.866e-10
-1.26239e-09
1.84056e-10
-1.30281e-09
1.81276e-10
-1.34258e-09
1.78274e-10
-1.38163e-09
1.75066e-10
-1.41993e-09
1.71663e-10
-1.45744e-09