/*--------------------------------*- C++ -*----------------------------------*\
  =========                 |
  \\      /  F ield         | OpenFOAM: The Open Source CFD Toolbox
   \\    /   O peration     | Website:  https://openfoam.org
    \\  /    A nd           | Version:  7
     \\/     M anipulation  |
\*---------------------------------------------------------------------------*/
FoamFile
{
    version     2.0;
    format      ascii;
    class       surfaceScalarField;
    location    "0.4125";
    object      phi;
}
// * * * * * * * * * * * * * * * * * * * * * * * * * * * * * * * * * * * * * //

dimensions      [0 3 -1 0 0 0 0];

internalField   nonuniform List<scalar> 
25360
(
5.17429e-11
-5.17155e-11
1.92807e-10
-1.41078e-10
3.59782e-10
-1.6696e-10
5.05418e-10
-1.45636e-10
6.01546e-10
-9.61284e-11
6.3214e-10
-3.05863e-11
5.88936e-10
4.32081e-11
4.6872e-10
1.20207e-10
2.71537e-10
1.9719e-10
-5.21485e-13
2.72049e-10
-3.439e-10
3.43371e-10
-7.5439e-10
4.10505e-10
-1.22725e-09
4.72847e-10
-1.75744e-09
5.30193e-10
-2.3399e-09
5.82463e-10
-2.96963e-09
6.29732e-10
-3.64178e-09
6.72161e-10
-4.35176e-09
7.09972e-10
-5.09519e-09
7.43428e-10
-5.86803e-09
7.72839e-10
-6.66654e-09
7.98514e-10
-7.48732e-09
8.20769e-10
-8.32727e-09
8.39944e-10
-9.18362e-09
8.5635e-10
-1.00539e-08
8.70292e-10
-1.0936e-08
8.82081e-10
-1.1828e-08
8.91994e-10
-1.27283e-08
9.00291e-10
-1.36355e-08
9.07227e-10
-1.45485e-08
9.13031e-10
-1.54665e-08
9.17914e-10
-1.63885e-08
9.22071e-10
-1.73142e-08
9.25681e-10
-1.82431e-08
9.28903e-10
-1.9175e-08
9.31877e-10
-2.01097e-08
9.3473e-10
-2.10473e-08
9.37573e-10
-2.19878e-08
9.4051e-10
-2.29314e-08
9.43626e-10
-2.38784e-08
9.46997e-10
-2.48291e-08
9.50692e-10
-2.57839e-08
9.54767e-10
-2.67432e-08
9.59264e-10
-2.77074e-08
9.64225e-10
-2.86771e-08
9.69685e-10
-2.96527e-08
9.75669e-10
-3.06349e-08
9.82201e-10
-3.16242e-08
9.89296e-10
-3.26212e-08
9.96964e-10
-3.36264e-08
1.00521e-09
-3.46405e-08
1.01405e-09
-3.56639e-08
1.02347e-09
-3.66974e-08
1.03347e-09
-3.77414e-08
1.04403e-09
-3.87966e-08
1.05516e-09
-3.98634e-08
1.06683e-09
-4.09424e-08
1.07902e-09
-4.20341e-08
1.09171e-09
-4.3139e-08
1.10488e-09
-4.42575e-08
1.11849e-09
-4.539e-08
1.13251e-09
-4.65369e-08
1.14691e-09
-4.76986e-08
1.16163e-09
-4.88752e-08
1.17663e-09
-5.0067e-08
1.19185e-09
-5.12743e-08
1.20724e-09
-5.2497e-08
1.22272e-09
-5.37352e-08
1.23824e-09
-5.49889e-08
1.2537e-09
-5.6258e-08
1.26903e-09
-5.75421e-08
1.28413e-09
-5.8841e-08
1.2989e-09
-6.01543e-08
1.31324e-09
-6.14813e-08
1.32703e-09
-6.28214e-08
1.34015e-09
-6.41739e-08
1.35246e-09
-6.55377e-08
1.36382e-09
-6.69118e-08
1.37408e-09
-6.82949e-08
1.38309e-09
-6.96855e-08
1.39067e-09
-7.10822e-08
1.39665e-09
-7.2483e-08
1.40084e-09
-7.38861e-08
1.40304e-09
-7.52891e-08
1.40306e-09
-7.66898e-08
1.40067e-09
-7.80854e-08
1.39565e-09
-7.94732e-08
1.38777e-09
-8.085e-08
1.37679e-09
-8.22125e-08
1.36248e-09
-8.35571e-08
1.34458e-09
-8.48799e-08
1.32283e-09
-8.61769e-08
1.29699e-09
-8.74437e-08
1.26679e-09
-8.86757e-08
1.23198e-09
-8.9868e-08
1.1923e-09
-9.10154e-08
1.14749e-09
-9.21128e-08
1.09732e-09
-9.31543e-08
1.04155e-09
-9.41343e-08
9.79954e-10
-9.50466e-08
9.12329e-10
-9.58851e-08
8.38486e-10
-9.66433e-08
7.58261e-10
-9.73148e-08
6.71514e-10
-9.7893e-08
5.78139e-10
-9.83711e-08
4.78063e-10
-9.87423e-08
3.71256e-10
-9.9e-08
2.5773e-10
-9.91376e-08
1.37546e-10
-9.91484e-08
1.08247e-11
-9.90261e-08
-1.22272e-10
-9.87647e-08
-2.61494e-10
-9.83581e-08
-4.06542e-10
-9.78011e-08
-5.57039e-10
-9.70885e-08
-7.12535e-10
-9.6216e-08
-8.72499e-10
-9.51797e-08
-1.03632e-09
-9.39764e-08
-1.20331e-09
-9.26037e-08
-1.3727e-09
-9.10601e-08
-1.54362e-09
-8.9345e-08
-1.71513e-09
-8.74587e-08
-1.88624e-09
-8.54029e-08
-2.05583e-09
-8.31801e-08
-2.22277e-09
-8.07943e-08
-2.38582e-09
-7.82506e-08
-2.54372e-09
-7.55555e-08
-2.69515e-09
-7.27167e-08
-2.83877e-09
-6.97435e-08
-2.97321e-09
-6.66464e-08
-3.09711e-09
-6.34373e-08
-3.20911e-09
-6.01294e-08
-3.30789e-09
-5.67372e-08
-3.39215e-09
-5.32765e-08
-3.46069e-09
-4.97642e-08
-3.51237e-09
-4.6218e-08
-3.54613e-09
-4.2657e-08
-3.56105e-09
-3.91007e-08
-3.55633e-09
-3.55694e-08
-3.5313e-09
-3.20839e-08
-3.48546e-09
-2.86654e-08
-3.41847e-09
-2.53353e-08
-3.33014e-09
-2.21148e-08
-3.22049e-09
-1.90251e-08
-3.08969e-09
-1.6087e-08
-2.9381e-09
-1.33208e-08
-2.76626e-09
-1.07459e-08
-2.57489e-09
-8.38098e-09
-2.36491e-09
-6.24356e-09
-2.13742e-09
-4.34976e-09
-1.8938e-09
-2.7141e-09
-1.63567e-09
-1.34902e-09
-1.36508e-09
-2.64316e-10
-1.0847e-09
5.3382e-10
-7.98136e-10
1.04439e-09
-5.10566e-10
1.27428e-09
-2.29897e-10
1.24308e-09
3.11986e-11
9.91215e-10
2.51863e-10
5.94454e-10
3.96768e-10
1.9128e-10
4.03192e-10
1.91299e-10
1.41463e-10
-1.93192e-10
4.0758e-10
-4.0719e-10
6.89222e-10
-4.48601e-10
9.04087e-10
-3.60533e-10
9.93581e-10
-1.85627e-10
9.19351e-10
4.36509e-11
6.58665e-10
3.03877e-10
2.00289e-10
5.78599e-10
-4.58864e-10
8.56337e-10
-1.31606e-09
1.12925e-09
-2.36466e-09
1.39198e-09
-3.59518e-09
1.64101e-09
-4.99646e-09
1.87414e-09
-6.55632e-09
2.09005e-09
-8.26207e-09
2.28819e-09
-1.01009e-08
2.46854e-09
-1.20601e-08
2.63143e-09
-1.41277e-08
2.77749e-09
-1.62918e-08
2.90757e-09
-1.85416e-08
3.02264e-09
-2.08668e-08
3.12375e-09
-2.32581e-08
3.21205e-09
-2.57068e-08
3.28866e-09
-2.82052e-08
3.35473e-09
-3.07463e-08
3.41139e-09
-3.33239e-08
3.45971e-09
-3.59327e-08
3.50074e-09
-3.85678e-08
3.53546e-09
-4.12254e-08
3.56481e-09
-4.3902e-08
3.58964e-09
-4.65948e-08
3.61075e-09
-4.93016e-08
3.62888e-09
-5.20207e-08
3.6447e-09
-5.47506e-08
3.65882e-09
-5.74905e-08
3.6718e-09
-6.02399e-08
3.68412e-09
-6.29985e-08
3.69623e-09
-6.57665e-08
3.70851e-09
-6.85442e-08
3.7213e-09
-7.13321e-08
3.73493e-09
-7.41311e-08
3.74963e-09
-7.6942e-08
3.76564e-09
-7.97659e-08
3.78315e-09
-8.2604e-08
3.80232e-09
-8.54576e-08
3.82329e-09
-8.83281e-08
3.84616e-09
-9.12169e-08
3.87103e-09
-9.41255e-08
3.89795e-09
-9.70556e-08
3.92699e-09
-1.00008e-07
3.95815e-09
-1.02986e-07
3.99147e-09
-1.05989e-07
4.02694e-09
-1.0902e-07
4.06453e-09
-1.12081e-07
4.10422e-09
-1.15171e-07
4.14595e-09
-1.18294e-07
4.18968e-09
-1.21451e-07
4.23531e-09
-1.24642e-07
4.28276e-09
-1.27869e-07
4.33192e-09
-1.31133e-07
4.38266e-09
-1.34435e-07
4.43484e-09
-1.37777e-07
4.48832e-09
-1.41158e-07
4.5429e-09
-1.4458e-07
4.5984e-09
-1.48042e-07
4.65458e-09
-1.51546e-07
4.71123e-09
-1.55092e-07
4.76806e-09
-1.58678e-07
4.82481e-09
-1.62306e-07
4.88116e-09
-1.65974e-07
4.93677e-09
-1.69681e-07
4.99128e-09
-1.73426e-07
5.0443e-09
-1.77208e-07
5.09541e-09
-1.81025e-07
5.14414e-09
-1.84875e-07
5.19002e-09
-1.88755e-07
5.23254e-09
-1.92663e-07
5.27115e-09
-1.96594e-07
5.30526e-09
-2.00545e-07
5.33426e-09
-2.04512e-07
5.3575e-09
-2.08489e-07
5.3743e-09
-2.12473e-07
5.38394e-09
-2.16455e-07
5.38568e-09
-2.20431e-07
5.37872e-09
-2.24392e-07
5.36226e-09
-2.28332e-07
5.33545e-09
-2.32242e-07
5.29744e-09
-2.36112e-07
5.24732e-09
-2.39934e-07
5.18419e-09
-2.43697e-07
5.10712e-09
-2.47389e-07
5.01516e-09
-2.50999e-07
4.90737e-09
-2.54515e-07
4.7828e-09
-2.57924e-07
4.6405e-09
-2.61211e-07
4.47954e-09
-2.64363e-07
4.29902e-09
-2.67363e-07
4.09805e-09
-2.70198e-07
3.8758e-09
-2.72849e-07
3.63148e-09
-2.75301e-07
3.36437e-09
-2.77537e-07
3.07383e-09
-2.79538e-07
2.7593e-09
-2.81286e-07
2.42033e-09
-2.82765e-07
2.0566e-09
-2.83955e-07
1.66792e-09
-2.84838e-07
1.25425e-09
-2.85396e-07
8.15714e-10
-2.85611e-07
3.52635e-10
-2.85466e-07
-1.3447e-10
-2.84943e-07
-6.44864e-10
-2.84027e-07
-1.17757e-09
-2.82702e-07
-1.73137e-09
-2.80954e-07
-2.30477e-09
-2.78771e-07
-2.89602e-09
-2.7614e-07
-3.50306e-09
-2.73053e-07
-4.12357e-09
-2.69501e-07
-4.75489e-09
-2.6548e-07
-5.39412e-09
-2.60986e-07
-6.038e-09
-2.56018e-07
-6.68303e-09
-2.50579e-07
-7.32542e-09
-2.44673e-07
-7.9611e-09
-2.3831e-07
-8.58578e-09
-2.31501e-07
-9.19495e-09
-2.24261e-07
-9.78393e-09
-2.16608e-07
-1.03479e-08
-2.08565e-07
-1.08818e-08
-2.00158e-07
-1.13808e-08
-1.91415e-07
-1.18398e-08
-1.8237e-07
-1.22539e-08
-1.7306e-07
-1.26182e-08
-1.63524e-07
-1.29282e-08
-1.53805e-07
-1.31792e-08
-1.4395e-07
-1.33673e-08
-1.34008e-07
-1.34886e-08
-1.24029e-07
-1.35397e-08
-1.14068e-07
-1.35178e-08
-1.04178e-07
-1.34206e-08
-9.44179e-08
-1.32461e-08
-8.48432e-08
-1.29932e-08
-7.55119e-08
-1.26614e-08
-6.64817e-08
-1.22507e-08
-5.78095e-08
-1.17619e-08
-4.9551e-08
-1.11966e-08
-4.17602e-08
-1.0557e-08
-3.44892e-08
-9.84595e-09
-2.77867e-08
-9.06735e-09
-2.16983e-08
-8.22587e-09
-1.62648e-08
-7.32725e-09
-1.15219e-08
-6.37858e-09
-7.49825e-09
-5.38874e-09
-4.21386e-09
-4.3691e-09
-1.67718e-09
-3.33482e-09
1.18976e-10
-2.30672e-09
1.20367e-09
-1.31459e-09
1.63692e-09
-4.02046e-10
1.52316e-09
3.65615e-10
1.02894e-09
8.9097e-10
4.01564e-10
1.03053e-09
5.92874e-10
1.68618e-10
-3.61803e-10
4.51785e-10
-6.90348e-10
7.10939e-10
-7.07743e-10
8.46289e-10
-4.95868e-10
7.84481e-10
-1.23806e-10
4.74915e-10
3.53207e-10
-1.1434e-10
8.93144e-10
-1.00064e-09
1.46489e-09
-2.19015e-09
2.04585e-09
-3.68071e-09
2.61983e-09
-5.46411e-09
3.17537e-09
-7.52774e-09
3.70466e-09
-9.85612e-09
4.20252e-09
-1.24319e-08
4.66578e-09
-1.52365e-08
5.09283e-09
-1.82511e-08
5.4832e-09
-2.1457e-08
5.83729e-09
-2.48357e-08
6.15616e-09
-2.83695e-08
6.44135e-09
-3.20416e-08
6.69473e-09
-3.58362e-08
6.91842e-09
-3.97388e-08
7.11465e-09
-4.3736e-08
7.28577e-09
-4.78154e-08
7.43412e-09
-5.1966e-08
7.56202e-09
-5.6178e-08
7.67175e-09
-6.04428e-08
7.7655e-09
-6.47527e-08
7.84535e-09
-6.91011e-08
7.91327e-09
-7.34826e-08
7.97111e-09
-7.78925e-08
8.02059e-09
-8.23269e-08
8.06328e-09
-8.67828e-08
8.10065e-09
-9.1258e-08
8.13402e-09
-9.57508e-08
8.16458e-09
-1.0026e-07
8.19342e-09
-1.04785e-07
8.22151e-09
-1.09327e-07
8.2497e-09
-1.13884e-07
8.27875e-09
-1.18458e-07
8.30934e-09
-1.23051e-07
8.34205e-09
-1.27663e-07
8.37737e-09
-1.32295e-07
8.41575e-09
-1.3695e-07
8.45754e-09
-1.4163e-07
8.50304e-09
-1.46337e-07
8.55252e-09
-1.51072e-07
8.60617e-09
-1.55838e-07
8.66413e-09
-1.60637e-07
8.72653e-09
-1.65473e-07
8.79343e-09
-1.70346e-07
8.86485e-09
-1.7526e-07
8.94079e-09
-1.80217e-07
9.02121e-09
-1.85218e-07
9.10604e-09
-1.90268e-07
9.19516e-09
-1.95366e-07
9.28844e-09
-2.00517e-07
9.38571e-09
-2.05721e-07
9.48675e-09
-2.1098e-07
9.59131e-09
-2.16297e-07
9.69912e-09
-2.21672e-07
9.80986e-09
-2.27107e-07
9.92317e-09
-2.32602e-07
1.00386e-08
-2.3816e-07
1.01558e-08
-2.43779e-07
1.02743e-08
-2.49462e-07
1.03934e-08
-2.55206e-07
1.05126e-08
-2.61013e-07
1.06314e-08
-2.6688e-07
1.07489e-08
-2.72808e-07
1.08644e-08
-2.78794e-07
1.09772e-08
-2.84836e-07
1.10863e-08
-2.90931e-07
1.11908e-08
-2.97077e-07
1.12897e-08
-3.03269e-07
1.1382e-08
-3.09503e-07
1.14666e-08
-3.15774e-07
1.15421e-08
-3.22076e-07
1.16074e-08
-3.28403e-07
1.1661e-08
-3.34747e-07
1.17017e-08
-3.411e-07
1.17278e-08
-3.47454e-07
1.17379e-08
-3.53799e-07
1.17302e-08
-3.60123e-07
1.17032e-08
-3.66416e-07
1.16551e-08
-3.72665e-07
1.1584e-08
-3.78856e-07
1.14882e-08
-3.84974e-07
1.13656e-08
-3.91004e-07
1.12144e-08
-3.96929e-07
1.10325e-08
-4.02732e-07
1.0818e-08
-4.08394e-07
1.05689e-08
-4.13894e-07
1.02831e-08
-4.19212e-07
9.95878e-09
-4.24327e-07
9.59387e-09
-4.29214e-07
9.18652e-09
-4.33851e-07
8.73491e-09
-4.38213e-07
8.23733e-09
-4.42273e-07
7.69217e-09
-4.46007e-07
7.098e-09
-4.49387e-07
6.45352e-09
-4.52385e-07
5.75767e-09
-4.54974e-07
5.0096e-09
-4.57126e-07
4.20872e-09
-4.58813e-07
3.35477e-09
-4.60007e-07
2.44778e-09
-4.60679e-07
1.48817e-09
-4.60803e-07
4.76749e-10
-4.60353e-07
-5.85227e-10
-4.59301e-07
-1.69605e-09
-4.57625e-07
-2.85351e-09
-4.55302e-07
-4.05486e-09
-4.5231e-07
-5.29681e-09
-4.4863e-07
-6.57549e-09
-4.44247e-07
-7.88643e-09
-4.39146e-07
-9.22455e-09
-4.33317e-07
-1.05841e-08
-4.26752e-07
-1.19589e-08
-4.19448e-07
-1.33419e-08
-4.11405e-07
-1.47257e-08
-4.02629e-07
-1.61021e-08
-3.93127e-07
-1.74625e-08
-3.82915e-07
-1.87978e-08
-3.72012e-07
-2.00985e-08
-3.60441e-07
-2.13547e-08
-3.48233e-07
-2.2556e-08
-3.35422e-07
-2.36923e-08
-3.2205e-07
-2.47529e-08
-3.08163e-07
-2.57273e-08
-2.93811e-07
-2.66052e-08
-2.79053e-07
-2.73765e-08
-2.6395e-07
-2.80314e-08
-2.48569e-07
-2.85605e-08
-2.32981e-07
-2.89554e-08
-2.17261e-07
-2.9208e-08
-2.01489e-07
-2.93114e-08
-1.85748e-07
-2.92595e-08
-1.70121e-07
-2.90475e-08
-1.54695e-07
-2.86717e-08
-1.39559e-07
-2.81296e-08
-1.248e-07
-2.74202e-08
-1.10507e-07
-2.65439e-08
-9.67661e-08
-2.55025e-08
-8.36632e-08
-2.42995e-08
-7.12802e-08
-2.294e-08
-5.96954e-08
-2.14307e-08
-4.89825e-08
-1.97802e-08
-3.9209e-08
-1.79994e-08
-3.04349e-08
-1.61013e-08
-2.27111e-08
-1.41024e-08
-1.60772e-08
-1.20227e-08
-1.05582e-08
-9.8881e-09
-6.16105e-09
-7.73193e-09
-2.86909e-09
-5.59867e-09
-6.34614e-10
-3.54906e-09
6.3095e-10
-1.6676e-09
1.06985e-09
-7.32663e-11
8.92618e-10
1.06822e-09
3.94858e-10
1.52828e-09
9.87735e-10
1.48553e-10
-5.10383e-10
3.66153e-10
-9.07931e-10
5.01871e-10
-8.43476e-10
4.47686e-10
-4.41693e-10
1.24038e-10
1.99825e-10
-5.25099e-10
1.00236e-09
-1.53627e-09
1.9043e-09
-2.93006e-09
2.85868e-09
-4.7145e-09
3.8303e-09
-6.8878e-09
4.79311e-09
-9.4407e-09
5.72826e-09
-1.23585e-08
6.62241e-09
-1.56224e-08
7.46647e-09
-1.92113e-08
8.25469e-09
-2.31023e-08
8.98383e-09
-2.72718e-08
9.65264e-09
-3.16959e-08
1.02614e-08
-3.63512e-08
1.08115e-08
-4.1215e-08
1.13052e-08
-4.62656e-08
1.17454e-08
-5.14826e-08
1.21354e-08
-5.68468e-08
1.24788e-08
-6.23405e-08
1.27795e-08
-6.79476e-08
1.30412e-08
-7.36534e-08
1.32679e-08
-7.94449e-08
1.34632e-08
-8.53102e-08
1.36308e-08
-9.12392e-08
1.37743e-08
-9.72229e-08
1.3897e-08
-1.03254e-07
1.40019e-08
-1.09325e-07
1.40921e-08
-1.15432e-07
1.41701e-08
-1.2157e-07
1.42385e-08
-1.27736e-07
1.42997e-08
-1.33926e-07
1.43555e-08
-1.40141e-07
1.44079e-08
-1.46378e-07
1.44586e-08
-1.52638e-07
1.45091e-08
-1.5892e-07
1.45607e-08
-1.65225e-07
1.46146e-08
-1.71554e-07
1.46717e-08
-1.7791e-07
1.4733e-08
-1.84294e-07
1.47993e-08
-1.90707e-07
1.48711e-08
-1.97153e-07
1.4949e-08
-2.03634e-07
1.50336e-08
-2.10153e-07
1.5125e-08
-2.16712e-07
1.52236e-08
-2.23316e-07
1.53296e-08
-2.29965e-07
1.54432e-08
-2.36665e-07
1.55642e-08
-2.43417e-07
1.56929e-08
-2.50225e-07
1.5829e-08
-2.57091e-07
1.59725e-08
-2.64019e-07
1.61231e-08
-2.71011e-07
1.62806e-08
-2.7807e-07
1.64447e-08
-2.85198e-07
1.6615e-08
-2.92398e-07
1.67911e-08
-2.99671e-07
1.69725e-08
-3.0702e-07
1.71585e-08
-3.14446e-07
1.73486e-08
-3.21949e-07
1.75421e-08
-3.29531e-07
1.77381e-08
-3.37193e-07
1.79358e-08
-3.44934e-07
1.81343e-08
-3.52753e-07
1.83324e-08
-3.60651e-07
1.85292e-08
-3.68626e-07
1.87232e-08
-3.76675e-07
1.89134e-08
-3.84796e-07
1.90981e-08
-3.92985e-07
1.92759e-08
-4.0124e-07
1.94452e-08
-4.09554e-07
1.96042e-08
-4.17923e-07
1.9751e-08
-4.2634e-07
1.98838e-08
-4.34798e-07
2.00003e-08
-4.43289e-07
2.00983e-08
-4.51804e-07
2.01757e-08
-4.60332e-07
2.02298e-08
-4.68863e-07
2.02582e-08
-4.77383e-07
2.02582e-08
-4.8588e-07
2.02269e-08
-4.94338e-07
2.01616e-08
-5.02742e-07
2.00591e-08
-5.11074e-07
1.99165e-08
-5.19317e-07
1.97305e-08
-5.27449e-07
1.9498e-08
-5.35451e-07
1.92156e-08
-5.43298e-07
1.888e-08
-5.50968e-07
1.84879e-08
-5.58435e-07
1.80358e-08
-5.65672e-07
1.75206e-08
-5.72652e-07
1.69387e-08
-5.79345e-07
1.62871e-08
-5.85722e-07
1.55627e-08
-5.91749e-07
1.47624e-08
-5.97395e-07
1.38835e-08
-6.02626e-07
1.29233e-08
-6.07408e-07
1.18796e-08
-6.11705e-07
1.07504e-08
-6.15481e-07
9.53393e-09
-6.18701e-07
8.229e-09
-6.21327e-07
6.83479e-09
-6.23323e-07
5.35103e-09
-6.24653e-07
3.77798e-09
-6.25282e-07
2.11657e-09
-6.25173e-07
3.68357e-10
-6.24294e-07
-1.46433e-09
-6.22612e-07
-3.3784e-09
-6.20095e-07
-5.3699e-09
-6.16716e-07
-7.434e-09
-6.12448e-07
-9.56497e-09
-6.07267e-07
-1.17561e-08
-6.01154e-07
-1.39996e-08
-5.94092e-07
-1.62869e-08
-5.86068e-07
-1.86081e-08
-5.77074e-07
-2.09526e-08
-5.67108e-07
-2.33085e-08
-5.5617e-07
-2.56632e-08
-5.4427e-07
-2.80029e-08
-5.31419e-07
-3.03132e-08
-5.17638e-07
-3.25786e-08
-5.02953e-07
-3.47832e-08
-4.87398e-07
-3.69104e-08
-4.71011e-07
-3.8943e-08
-4.53839e-07
-4.08637e-08
-4.35937e-07
-4.2655e-08
-4.17365e-07
-4.42992e-08
-3.98191e-07
-4.57792e-08
-3.7849e-07
-4.7078e-08
-3.58342e-07
-4.81794e-08
-3.37834e-07
-4.90679e-08
-3.17061e-07
-4.97292e-08
-2.96118e-07
-5.01502e-08
-2.75111e-07
-5.03192e-08
-2.54144e-07
-5.02263e-08
-2.33328e-07
-4.98635e-08
-2.12775e-07
-4.92245e-08
-1.92599e-07
-4.83055e-08
-1.72914e-07
-4.7105e-08
-1.53834e-07
-4.56238e-08
-1.35471e-07
-4.38654e-08
-1.17935e-07
-4.18359e-08
-1.01331e-07
-3.95444e-08
-8.57587e-08
-3.70028e-08
-7.13125e-08
-3.42265e-08
-5.80774e-08
-3.12345e-08
-4.61283e-08
-2.80504e-08
-3.55278e-08
-2.47029e-08
-2.63231e-08
-2.12274e-08
-1.85426e-08
-1.76685e-08
-1.21918e-08
-1.40827e-08
-7.24726e-09
-1.05433e-08
-3.64961e-09
-7.14673e-09
-1.29496e-09
-4.02225e-09
-2.41531e-11
-1.34407e-09
3.89776e-10
6.5431e-10
2.55063e-10
1.66299e-09
1.2428e-09
9.9745e-11
-6.10113e-10
1.90802e-10
-9.99008e-10
1.25608e-10
-7.78275e-10
-2.03667e-10
-1.12419e-10
-8.7676e-10
8.72921e-10
-1.95037e-09
2.07597e-09
-3.46184e-09
3.41577e-09
-5.43252e-09
4.82937e-09
-7.87068e-09
6.26846e-09
-1.07741e-08
7.69654e-09
-1.41324e-08
9.08656e-09
-1.7929e-08
1.0419e-08
-2.21426e-08
1.16801e-08
-2.6749e-08
1.28611e-08
-3.17217e-08
1.39566e-08
-3.70334e-08
1.49643e-08
-4.26562e-08
1.58842e-08
-4.85624e-08
1.67178e-08
-5.47253e-08
1.74681e-08
-6.1119e-08
1.81391e-08
-6.77191e-08
1.87354e-08
-7.45024e-08
1.92622e-08
-8.14478e-08
1.97249e-08
-8.85356e-08
2.0129e-08
-9.5748e-08
2.04802e-08
-1.03069e-07
2.0784e-08
-1.10484e-07
2.10457e-08
-1.1798e-07
2.12706e-08
-1.25546e-07
2.14635e-08
-1.33174e-07
2.16292e-08
-1.40854e-07
2.17719e-08
-1.48579e-07
2.18958e-08
-1.56345e-07
2.20045e-08
-1.64147e-07
2.21016e-08
-1.71982e-07
2.21901e-08
-1.79847e-07
2.22729e-08
-1.87741e-07
2.23525e-08
-1.95663e-07
2.24312e-08
-2.03613e-07
2.2511e-08
-2.11592e-07
2.25937e-08
-2.19601e-07
2.26809e-08
-2.27642e-07
2.2774e-08
-2.35717e-07
2.28741e-08
-2.43828e-07
2.29823e-08
-2.51978e-07
2.30993e-08
-2.60171e-07
2.32259e-08
-2.68408e-07
2.33626e-08
-2.76695e-07
2.35098e-08
-2.85033e-07
2.36679e-08
-2.93427e-07
2.3837e-08
-3.0188e-07
2.40172e-08
-3.10395e-07
2.42085e-08
-3.18977e-07
2.44109e-08
-3.27629e-07
2.46239e-08
-3.36353e-07
2.48475e-08
-3.45154e-07
2.50811e-08
-3.54033e-07
2.53244e-08
-3.62995e-07
2.55766e-08
-3.72041e-07
2.58371e-08
-3.81173e-07
2.61051e-08
-3.90395e-07
2.63797e-08
-3.99706e-07
2.666e-08
-4.09109e-07
2.69448e-08
-4.18603e-07
2.72328e-08
-4.2819e-07
2.75228e-08
-4.37869e-07
2.78132e-08
-4.47639e-07
2.81025e-08
-4.57499e-07
2.83888e-08
-4.67446e-07
2.86704e-08
-4.77478e-07
2.89451e-08
-4.87591e-07
2.92108e-08
-4.9778e-07
2.94651e-08
-5.0804e-07
2.97056e-08
-5.18366e-07
2.99294e-08
-5.28748e-07
3.01339e-08
-5.39181e-07
3.0316e-08
-5.49653e-07
3.04724e-08
-5.60154e-07
3.05999e-08
-5.70673e-07
3.06948e-08
-5.81197e-07
3.07536e-08
-5.91711e-07
3.07723e-08
-6.022e-07
3.07468e-08
-6.12646e-07
3.06731e-08
-6.23031e-07
3.05466e-08
-6.33335e-07
3.0363e-08
-6.43536e-07
3.01176e-08
-6.53611e-07
2.98057e-08
-6.63536e-07
2.94225e-08
-6.73283e-07
2.8963e-08
-6.82826e-07
2.84225e-08
-6.92133e-07
2.77958e-08
-7.01176e-07
2.7078e-08
-7.09919e-07
2.62643e-08
-7.1833e-07
2.53498e-08
-7.26373e-07
2.43298e-08
-7.3401e-07
2.31998e-08
-7.41203e-07
2.19556e-08
-7.47913e-07
2.05931e-08
-7.54098e-07
1.91086e-08
-7.59717e-07
1.74989e-08
-7.64728e-07
1.57611e-08
-7.69087e-07
1.38932e-08
-7.72752e-07
1.18933e-08
-7.75677e-07
9.7606e-09
-7.77821e-07
7.49491e-09
-7.7914e-07
5.09692e-09
-7.79592e-07
2.56825e-09
-7.79135e-07
-8.84748e-11
-7.7773e-07
-2.86952e-09
-7.75338e-07
-5.77e-09
-7.71924e-07
-8.78378e-09
-7.67455e-07
-1.19034e-08
-7.619e-07
-1.51201e-08
-7.55232e-07
-1.84237e-08
-7.47429e-07
-2.18024e-08
-7.38473e-07
-2.52432e-08
-7.2835e-07
-2.87314e-08
-7.17051e-07
-3.2251e-08
-7.04576e-07
-3.57843e-08
-6.90926e-07
-3.93124e-08
-6.76114e-07
-4.28151e-08
-6.60157e-07
-4.62706e-08
-6.43079e-07
-4.96563e-08
-6.24914e-07
-5.29486e-08
-6.05701e-07
-5.61228e-08
-5.85491e-07
-5.91537e-08
-5.64338e-07
-6.20158e-08
-5.4231e-07
-6.46832e-08
-5.19479e-07
-6.71301e-08
-4.95928e-07
-6.9331e-08
-4.71744e-07
-7.12612e-08
-4.47027e-07
-7.28968e-08
-4.2188e-07
-7.42151e-08
-3.96414e-07
-7.51951e-08
-3.70747e-07
-7.58175e-08
-3.45001e-07
-7.60652e-08
-3.19303e-07
-7.59237e-08
-2.93786e-07
-7.53811e-08
-2.68581e-07
-7.44287e-08
-2.43826e-07
-7.30607e-08
-2.19656e-07
-7.12753e-08
-1.96206e-07
-6.90738e-08
-1.7361e-07
-6.64618e-08
-1.51997e-07
-6.34489e-08
-1.31492e-07
-6.0049e-08
-1.12214e-07
-5.62807e-08
-9.42727e-08
-5.21676e-08
-7.7768e-08
-4.77393e-08
-6.27869e-08
-4.30315e-08
-4.94014e-08
-3.80884e-08
-3.76652e-08
-3.29636e-08
-2.76103e-08
-2.77234e-08
-1.92422e-08
-2.24508e-08
-1.25351e-08
-1.72504e-08
-7.42552e-09
-1.22563e-08
-3.80516e-09
-7.64261e-09
-1.51307e-09
-3.63617e-09
-3.26877e-10
-5.31876e-10
4.78861e-11
1.28823e-09
1.29068e-09
3.34601e-11
-6.43579e-10
-4.46729e-11
-9.20873e-10
-3.68554e-10
-4.54385e-10
-1.03889e-09
5.57916e-10
-2.13072e-09
1.96476e-09
-3.6976e-09
3.64284e-09
-5.77473e-09
5.49291e-09
-8.38189e-09
7.43653e-09
-1.1526e-08
9.41255e-09
-1.52034e-08
1.13739e-08
-1.9402e-08
1.32852e-08
-2.41033e-08
1.51202e-08
-2.92837e-08
1.68605e-08
-3.49163e-08
1.84936e-08
-4.09716e-08
2.00119e-08
-4.7419e-08
2.14118e-08
-5.42274e-08
2.26925e-08
-6.13657e-08
2.3856e-08
-6.88034e-08
2.49058e-08
-7.65114e-08
2.5847e-08
-8.44616e-08
2.66857e-08
-9.26279e-08
2.74285e-08
-1.00986e-07
2.80827e-08
-1.09512e-07
2.86557e-08
-1.18187e-07
2.91551e-08
-1.26992e-07
2.95884e-08
-1.35909e-07
2.99628e-08
-1.44924e-07
3.02855e-08
-1.54023e-07
3.05632e-08
-1.63196e-07
3.08022e-08
-1.72433e-07
3.10087e-08
-1.81725e-07
3.11881e-08
-1.91067e-07
3.13457e-08
-2.00451e-07
3.14863e-08
-2.09875e-07
3.16142e-08
-2.19336e-07
3.17333e-08
-2.28831e-07
3.18473e-08
-2.38359e-07
3.19593e-08
-2.4792e-07
3.20723e-08
-2.57515e-07
3.21886e-08
-2.67145e-07
3.23106e-08
-2.76811e-07
3.24401e-08
-2.86516e-07
3.25789e-08
-2.96262e-07
3.27283e-08
-3.06052e-07
3.28897e-08
-3.1589e-07
3.30638e-08
-3.25779e-07
3.32516e-08
-3.35723e-07
3.34536e-08
-3.45725e-07
3.36704e-08
-3.5579e-07
3.3902e-08
-3.65922e-07
3.41488e-08
-3.76124e-07
3.44105e-08
-3.864e-07
3.46872e-08
-3.96755e-07
3.49784e-08
-4.07191e-07
3.52837e-08
-4.17712e-07
3.56026e-08
-4.28322e-07
3.59343e-08
-4.39024e-07
3.6278e-08
-4.49819e-07
3.66327e-08
-4.60712e-07
3.69973e-08
-4.71702e-07
3.73704e-08
-4.82793e-07
3.77506e-08
-4.93985e-07
3.81364e-08
-5.05278e-07
3.85259e-08
-5.16672e-07
3.89173e-08
-5.28167e-07
3.93084e-08
-5.39762e-07
3.96969e-08
-5.51453e-07
4.00803e-08
-5.63239e-07
4.0456e-08
-5.75115e-07
4.0821e-08
-5.87076e-07
4.11722e-08
-5.99117e-07
4.15063e-08
-6.11232e-07
4.18198e-08
-6.23411e-07
4.21089e-08
-6.35647e-07
4.23695e-08
-6.47928e-07
4.25974e-08
-6.60244e-07
4.27882e-08
-6.72581e-07
4.29372e-08
-6.84926e-07
4.30393e-08
-6.97262e-07
4.30895e-08
-7.09572e-07
4.30822e-08
-7.21837e-07
4.3012e-08
-7.34037e-07
4.28729e-08
-7.46149e-07
4.2659e-08
-7.5815e-07
4.2364e-08
-7.70014e-07
4.19815e-08
-7.81713e-07
4.15051e-08
-7.93219e-07
4.09282e-08
-8.045e-07
4.0244e-08
-8.15523e-07
3.94458e-08
-8.26254e-07
3.85268e-08
-8.36657e-07
3.74804e-08
-8.46692e-07
3.62998e-08
-8.56321e-07
3.49786e-08
-8.65502e-07
3.35104e-08
-8.74191e-07
3.18894e-08
-8.82345e-07
3.01096e-08
-8.89918e-07
2.81659e-08
-8.96863e-07
2.60534e-08
-9.03132e-07
2.37679e-08
-9.08677e-07
2.13058e-08
-9.13448e-07
1.86645e-08
-9.17396e-07
1.58418e-08
-9.20473e-07
1.28369e-08
-9.22628e-07
9.64982e-09
-9.23813e-07
6.28193e-09
-9.2398e-07
2.73577e-09
-9.23084e-07
-9.84687e-10
-9.21079e-07
-4.87399e-09
-9.17924e-07
-8.92507e-09
-9.13579e-07
-1.31292e-08
-9.08007e-07
-1.74758e-08
-9.01174e-07
-2.19526e-08
-8.93052e-07
-2.65453e-08
-8.83617e-07
-3.12377e-08
-8.72849e-07
-3.60115e-08
-8.60734e-07
-4.08465e-08
-8.47264e-07
-4.57205e-08
-8.32439e-07
-5.06094e-08
-8.16265e-07
-5.54871e-08
-7.98754e-07
-6.03258e-08
-7.79928e-07
-6.5096e-08
-7.59818e-07
-6.97666e-08
-7.38461e-07
-7.43053e-08
-7.15906e-07
-7.86787e-08
-6.92207e-07
-8.28525e-08
-6.67431e-07
-8.67916e-08
-6.41653e-07
-9.04611e-08
-6.14957e-07
-9.38259e-08
-5.87437e-07
-9.68514e-08
-5.59194e-07
-9.95039e-08
-5.3034e-07
-1.01751e-07
-5.00993e-07
-1.03562e-07
-4.7128e-07
-1.04908e-07
-4.41335e-07
-1.05763e-07
-4.11296e-07
-1.06104e-07
-3.81308e-07
-1.05911e-07
-3.51521e-07
-1.05169e-07
-3.22085e-07
-1.03864e-07
-2.93156e-07
-1.0199e-07
-2.64886e-07
-9.95448e-08
-2.3743e-07
-9.65298e-08
-2.10939e-07
-9.29533e-08
-1.85559e-07
-8.88288e-08
-1.61432e-07
-8.4176e-08
-1.38691e-07
-7.90211e-08
-1.17462e-07
-7.33975e-08
-9.78542e-08
-6.73465e-08
-7.99672e-08
-6.09185e-08
-6.38811e-08
-5.41745e-08
-4.96561e-08
-4.71886e-08
-3.73288e-08
-4.00508e-08
-2.69077e-08
-3.28719e-08
-1.83692e-08
-2.57889e-08
-1.16523e-08
-1.89732e-08
-6.6537e-09
-1.26412e-08
-3.22246e-09
-7.06741e-09
-1.15489e-09
-2.59946e-09
-1.89606e-10
3.22952e-10
1.10107e-09
-4.33578e-11
-6.00223e-10
-3.19706e-10
-6.44536e-10
-9.44224e-10
1.70144e-10
-2.00558e-09
1.61927e-09
-3.5703e-09
3.52948e-09
-5.68568e-09
5.75822e-09
-8.38231e-09
8.18952e-09
-1.16764e-08
1.07306e-08
-1.55718e-08
1.3308e-08
-2.00626e-08
1.58647e-08
-2.51342e-08
1.83568e-08
-3.07656e-08
2.07517e-08
-3.69311e-08
2.30259e-08
-4.36008e-08
2.51634e-08
-5.07428e-08
2.7154e-08
-5.83237e-08
2.89926e-08
-6.63093e-08
3.06781e-08
-7.46655e-08
3.22122e-08
-8.3359e-08
3.35993e-08
-9.23575e-08
3.48455e-08
-1.0163e-07
3.59583e-08
-1.11148e-07
3.69461e-08
-1.20883e-07
3.78181e-08
-1.30811e-07
3.85836e-08
-1.40908e-07
3.92524e-08
-1.51154e-07
3.9834e-08
-1.61529e-07
4.03379e-08
-1.72017e-07
4.07731e-08
-1.82602e-07
4.11484e-08
-1.93272e-07
4.14722e-08
-2.04016e-07
4.17522e-08
-2.14823e-07
4.19959e-08
-2.25688e-07
4.22098e-08
-2.36602e-07
4.24005e-08
-2.47561e-07
4.25735e-08
-2.58562e-07
4.27341e-08
-2.69601e-07
4.2887e-08
-2.80678e-07
4.30364e-08
-2.91792e-07
4.31862e-08
-3.02944e-07
4.33397e-08
-3.14133e-07
4.34999e-08
-3.25362e-07
4.36694e-08
-3.36634e-07
4.38503e-08
-3.4795e-07
4.40446e-08
-3.59314e-07
4.42539e-08
-3.7073e-07
4.44795e-08
-3.82201e-07
4.47225e-08
-3.93731e-07
4.49837e-08
-4.05324e-07
4.52637e-08
-4.16985e-07
4.55629e-08
-4.28717e-07
4.58813e-08
-4.40526e-07
4.6219e-08
-4.52414e-07
4.65757e-08
-4.64387e-07
4.6951e-08
-4.76448e-07
4.73444e-08
-4.886e-07
4.77549e-08
-5.00848e-07
4.81817e-08
-5.13193e-07
4.86236e-08
-5.2564e-07
4.90792e-08
-5.38189e-07
4.9547e-08
-5.50844e-07
5.00252e-08
-5.63605e-07
5.05119e-08
-5.76474e-07
5.10049e-08
-5.8945e-07
5.15018e-08
-6.02532e-07
5.20001e-08
-6.15721e-07
5.24967e-08
-6.29013e-07
5.29888e-08
-6.42405e-07
5.34728e-08
-6.55894e-07
5.39453e-08
-6.69476e-07
5.44022e-08
-6.83143e-07
5.48394e-08
-6.96889e-07
5.52526e-08
-7.10706e-07
5.56369e-08
-7.24585e-07
5.59873e-08
-7.38514e-07
5.62985e-08
-7.52481e-07
5.65649e-08
-7.66473e-07
5.67805e-08
-7.80475e-07
5.6939e-08
-7.9447e-07
5.7034e-08
-8.08439e-07
5.70587e-08
-8.22362e-07
5.70058e-08
-8.36219e-07
5.68681e-08
-8.49983e-07
5.66378e-08
-8.63632e-07
5.63071e-08
-8.77135e-07
5.58679e-08
-8.90466e-07
5.53119e-08
-9.03591e-07
5.46307e-08
-9.16479e-07
5.38156e-08
-9.29093e-07
5.28579e-08
-9.41396e-07
5.1749e-08
-9.53349e-07
5.04802e-08
-9.64912e-07
4.90428e-08
-9.7604e-07
4.74284e-08
-9.86691e-07
4.56287e-08
-9.96816e-07
4.36356e-08
-1.00637e-06
4.14415e-08
-1.0153e-06
3.90393e-08
-1.02355e-06
3.64223e-08
-1.03109e-06
3.35846e-08
-1.03784e-06
3.05211e-08
-1.04376e-06
2.72274e-08
-1.0488e-06
2.37002e-08
-1.05289e-06
1.99376e-08
-1.05599e-06
1.59385e-08
-1.05805e-06
1.17035e-08
-1.059e-06
7.23479e-09
-1.0588e-06
2.53605e-09
-1.0574e-06
-2.38715e-09
-1.05474e-06
-7.52731e-09
-1.05079e-06
-1.28749e-08
-1.04551e-06
-1.84181e-08
-1.03884e-06
-2.41431e-08
-1.03076e-06
-3.00333e-08
-1.02123e-06
-3.60701e-08
-1.01024e-06
-4.22321e-08
-9.97754e-07
-4.84954e-08
-9.83767e-07
-5.48337e-08
-9.6827e-07
-6.12181e-08
-9.51262e-07
-6.76171e-08
-9.32752e-07
-7.3997e-08
-9.12756e-07
-8.03218e-08
-8.91299e-07
-8.65533e-08
-8.68414e-07
-9.26513e-08
-8.44145e-07
-9.85742e-08
-8.18545e-07
-1.04279e-07
-7.91676e-07
-1.09721e-07
-7.63613e-07
-1.14855e-07
-7.34436e-07
-1.19637e-07
-7.04241e-07
-1.24021e-07
-6.73129e-07
-1.27963e-07
-6.41214e-07
-1.31419e-07
-6.08618e-07
-1.34347e-07
-5.75471e-07
-1.36709e-07
-5.41913e-07
-1.38466e-07
-5.0809e-07
-1.39586e-07
-4.74156e-07
-1.40038e-07
-4.4027e-07
-1.39798e-07
-4.06595e-07
-1.38843e-07
-3.73299e-07
-1.3716e-07
-3.40551e-07
-1.34739e-07
-3.0852e-07
-1.31576e-07
-2.77376e-07
-1.27674e-07
-2.47284e-07
-1.23045e-07
-2.18406e-07
-1.17706e-07
-1.90898e-07
-1.11684e-07
-1.64907e-07
-1.05013e-07
-1.40568e-07
-9.77362e-08
-1.18005e-07
-8.99093e-08
-9.7326e-08
-8.15978e-08
-7.86194e-08
-7.28812e-08
-6.1953e-08
-6.38549e-08
-4.73698e-08
-5.4634e-08
-3.48845e-08
-4.53571e-08
-2.44801e-08
-3.61933e-08
-1.61041e-08
-2.73493e-08
-9.66541e-09
-1.90799e-08
-5.03168e-09
-1.17011e-08
-2.02781e-09
-5.60333e-09
-4.36183e-10
-1.26867e-09
6.64893e-10
-1.26387e-10
-4.73832e-10
-6.20262e-10
-1.50664e-10
-1.57527e-09
1.12514e-09
-3.06483e-09
3.10883e-09
-5.14413e-09
5.60877e-09
-7.85179e-09
8.46588e-09
-1.12116e-08
1.15494e-08
-1.52345e-08
1.47535e-08
-1.99201e-08
1.79936e-08
-2.52587e-08
2.12032e-08
-3.12326e-08
2.43307e-08
-3.78181e-08
2.73372e-08
-4.49863e-08
3.01942e-08
-5.27051e-08
3.28822e-08
-6.09398e-08
3.53886e-08
-6.96542e-08
3.7707e-08
-7.88115e-08
3.98354e-08
-8.8375e-08
4.17758e-08
-9.83088e-08
4.35331e-08
-1.08578e-07
4.51146e-08
-1.19149e-07
4.65293e-08
-1.2999e-07
4.77873e-08
-1.41072e-07
4.88999e-08
-1.52367e-07
4.98785e-08
-1.63849e-07
5.07351e-08
-1.75497e-07
5.14814e-08
-1.87288e-07
5.21291e-08
-1.99204e-07
5.26895e-08
-2.11229e-07
5.31736e-08
-2.23349e-07
5.35917e-08
-2.3555e-07
5.39537e-08
-2.47823e-07
5.42686e-08
-2.60158e-07
5.45451e-08
-2.72549e-07
5.4791e-08
-2.84989e-07
5.50135e-08
-2.97474e-07
5.52193e-08
-3.10002e-07
5.54144e-08
-3.22569e-07
5.56041e-08
-3.35176e-07
5.57933e-08
-3.47823e-07
5.59863e-08
-3.6051e-07
5.61868e-08
-3.73238e-07
5.63981e-08
-3.86011e-07
5.66231e-08
-3.98831e-07
5.68642e-08
-4.11701e-07
5.71236e-08
-4.24624e-07
5.74028e-08
-4.37605e-07
5.77033e-08
-4.50647e-07
5.80262e-08
-4.63755e-07
5.83721e-08
-4.76934e-07
5.87415e-08
-4.90187e-07
5.91346e-08
-5.0352e-07
5.95515e-08
-5.16936e-07
5.99916e-08
-5.30439e-07