/*--------------------------------*- C++ -*----------------------------------*\
  =========                 |
  \\      /  F ield         | OpenFOAM: The Open Source CFD Toolbox
   \\    /   O peration     | Website:  https://openfoam.org
    \\  /    A nd           | Version:  7
     \\/     M anipulation  |
\*---------------------------------------------------------------------------*/
FoamFile
{
    version     2.0;
    format      ascii;
    class       volVectorField;
    location    "0.4375";
    object      U;
}
// * * * * * * * * * * * * * * * * * * * * * * * * * * * * * * * * * * * * * //

dimensions      [0 1 -1 0 0 0 0];

internalField   nonuniform List<vector> 
51200
(
(-5.08039e-09 1.39776e-08 0)
(-4.29088e-08 2.86135e-08 0)
(-1.13773e-07 3.27484e-08 0)
(-1.81711e-07 2.96595e-08 0)
(-2.28098e-07 2.13126e-08 0)
(-2.46248e-07 1.00811e-08 0)
(-2.3345e-07 -1.6425e-09 0)
(-1.8708e-07 -1.27491e-08 0)
(-1.04959e-07 -2.34841e-08 0)
(1.32283e-08 -3.42791e-08 0)
(1.66041e-07 -4.50077e-08 0)
(3.5162e-07 -5.52156e-08 0)
(5.68526e-07 -6.46534e-08 0)
(8.1554e-07 -7.33938e-08 0)
(1.09119e-06 -8.16014e-08 0)
(1.39369e-06 -8.93292e-08 0)
(1.72112e-06 -9.65182e-08 0)
(2.07165e-06 -1.03105e-07 0)
(2.44359e-06 -1.09094e-07 0)
(2.83526e-06 -1.14544e-07 0)
(3.24499e-06 -1.19516e-07 0)
(3.67114e-06 -1.24042e-07 0)
(4.1121e-06 -1.28124e-07 0)
(4.56635e-06 -1.31756e-07 0)
(5.03246e-06 -1.3494e-07 0)
(5.50905e-06 -1.37695e-07 0)
(5.99475e-06 -1.40049e-07 0)
(6.48824e-06 -1.42031e-07 0)
(6.9882e-06 -1.43656e-07 0)
(7.49339e-06 -1.44937e-07 0)
(8.00262e-06 -1.45887e-07 0)
(8.51481e-06 -1.46527e-07 0)
(9.02891e-06 -1.46872e-07 0)
(9.54394e-06 -1.46933e-07 0)
(1.00589e-05 -1.46719e-07 0)
(1.0573e-05 -1.4624e-07 0)
(1.10851e-05 -1.45513e-07 0)
(1.15945e-05 -1.44558e-07 0)
(1.21004e-05 -1.4339e-07 0)
(1.2602e-05 -1.42021e-07 0)
(1.30986e-05 -1.40454e-07 0)
(1.35894e-05 -1.38692e-07 0)
(1.40739e-05 -1.36745e-07 0)
(1.45515e-05 -1.34625e-07 0)
(1.50216e-05 -1.32348e-07 0)
(1.54836e-05 -1.29929e-07 0)
(1.59369e-05 -1.27375e-07 0)
(1.63812e-05 -1.2469e-07 0)
(1.68158e-05 -1.21879e-07 0)
(1.72404e-05 -1.18949e-07 0)
(1.76547e-05 -1.1591e-07 0)
(1.80582e-05 -1.12771e-07 0)
(1.84505e-05 -1.09539e-07 0)
(1.88313e-05 -1.06215e-07 0)
(1.92004e-05 -1.02801e-07 0)
(1.95573e-05 -9.93021e-08 0)
(1.99018e-05 -9.57269e-08 0)
(2.02337e-05 -9.20854e-08 0)
(2.05527e-05 -8.83854e-08 0)
(2.08585e-05 -8.46312e-08 0)
(2.11511e-05 -8.08241e-08 0)
(2.14302e-05 -7.69647e-08 0)
(2.16955e-05 -7.30554e-08 0)
(2.1947e-05 -6.91007e-08 0)
(2.21844e-05 -6.51063e-08 0)
(2.24077e-05 -6.10773e-08 0)
(2.26167e-05 -5.70168e-08 0)
(2.28113e-05 -5.29267e-08 0)
(2.29914e-05 -4.88081e-08 0)
(2.31569e-05 -4.46635e-08 0)
(2.33077e-05 -4.04965e-08 0)
(2.34437e-05 -3.63109e-08 0)
(2.35648e-05 -3.21093e-08 0)
(2.36711e-05 -2.78931e-08 0)
(2.37623e-05 -2.36629e-08 0)
(2.38386e-05 -1.94196e-08 0)
(2.38998e-05 -1.5165e-08 0)
(2.39459e-05 -1.09012e-08 0)
(2.39769e-05 -6.6312e-09 0)
(2.39928e-05 -2.35796e-09 0)
(2.39935e-05 1.91577e-09 0)
(2.39791e-05 6.18821e-09 0)
(2.39495e-05 1.04582e-08 0)
(2.39049e-05 1.47245e-08 0)
(2.38451e-05 1.89851e-08 0)
(2.37702e-05 2.32379e-08 0)
(2.36803e-05 2.74815e-08 0)
(2.35754e-05 3.17149e-08 0)
(2.34555e-05 3.59361e-08 0)
(2.33207e-05 4.01421e-08 0)
(2.31711e-05 4.43295e-08 0)
(2.30067e-05 4.84961e-08 0)
(2.28276e-05 5.26401e-08 0)
(2.26339e-05 5.67585e-08 0)
(2.24257e-05 6.08472e-08 0)
(2.22032e-05 6.49022e-08 0)
(2.19664e-05 6.89213e-08 0)
(2.17154e-05 7.29028e-08 0)
(2.14505e-05 7.68436e-08 0)
(2.11718e-05 8.07381e-08 0)
(2.08795e-05 8.45806e-08 0)
(2.05737e-05 8.83678e-08 0)
(2.02548e-05 9.20978e-08 0)
(1.99228e-05 9.57669e-08 0)
(1.9578e-05 9.9368e-08 0)
(1.92208e-05 1.02892e-07 0)
(1.88514e-05 1.06334e-07 0)
(1.847e-05 1.09689e-07 0)
(1.80771e-05 1.12954e-07 0)
(1.76729e-05 1.16123e-07 0)
(1.72578e-05 1.19189e-07 0)
(1.68322e-05 1.22144e-07 0)
(1.63966e-05 1.24981e-07 0)
(1.59513e-05 1.27692e-07 0)
(1.54968e-05 1.30268e-07 0)
(1.50337e-05 1.327e-07 0)
(1.45624e-05 1.34981e-07 0)
(1.40836e-05 1.37103e-07 0)
(1.35977e-05 1.39055e-07 0)
(1.31055e-05 1.40825e-07 0)
(1.26076e-05 1.42402e-07 0)
(1.21047e-05 1.43777e-07 0)
(1.15975e-05 1.44942e-07 0)
(1.10868e-05 1.45887e-07 0)
(1.05733e-05 1.46597e-07 0)
(1.00581e-05 1.47058e-07 0)
(9.54182e-06 1.47259e-07 0)
(9.02554e-06 1.47189e-07 0)
(8.51022e-06 1.46835e-07 0)
(7.99689e-06 1.46176e-07 0)
(7.4866e-06 1.45195e-07 0)
(6.98048e-06 1.43882e-07 0)
(6.47968e-06 1.42228e-07 0)
(5.98544e-06 1.40218e-07 0)
(5.49905e-06 1.37827e-07 0)
(5.02183e-06 1.35036e-07 0)
(4.55514e-06 1.31834e-07 0)
(4.10042e-06 1.28203e-07 0)
(3.65914e-06 1.2411e-07 0)
(3.23286e-06 1.1953e-07 0)
(2.8231e-06 1.14472e-07 0)
(2.43146e-06 1.08965e-07 0)
(2.05965e-06 1.02983e-07 0)
(1.7095e-06 9.64206e-08 0)
(1.38277e-06 8.91864e-08 0)
(1.0811e-06 8.13147e-08 0)
(8.06026e-07 7.29582e-08 0)
(5.59251e-07 6.42172e-08 0)
(3.42689e-07 5.49853e-08 0)
(1.58215e-07 4.50282e-08 0)
(7.25255e-09 3.42744e-08 0)
(-1.09383e-07 2.30038e-08 0)
(-1.91251e-07 1.16793e-08 0)
(-2.38126e-07 6.15595e-10 0)
(-2.50471e-07 -1.00591e-08 0)
(-2.30376e-07 -2.00171e-08 0)
(-1.82491e-07 -2.82599e-08 0)
(-1.15725e-07 -3.23902e-08 0)
(-4.80406e-08 -2.80414e-08 0)
(-8.66765e-09 -1.06858e-08 0)
(-2.35849e-08 5.67457e-08 0)
(-1.0317e-07 1.13022e-07 0)
(-2.19419e-07 1.22712e-07 0)
(-3.2149e-07 1.00642e-07 0)
(-3.72646e-07 5.63751e-08 0)
(-3.52765e-07 -2.51922e-09 0)
(-2.51506e-07 -6.85843e-08 0)
(-6.30701e-08 -1.36519e-07 0)
(2.16702e-07 -2.04266e-07 0)
(5.8992e-07 -2.7154e-07 0)
(1.05588e-06 -3.37831e-07 0)
(1.61172e-06 -4.02021e-07 0)
(2.25382e-06 -4.63118e-07 0)
(2.97851e-06 -5.20773e-07 0)
(3.78196e-06 -5.75063e-07 0)
(4.65996e-06 -6.26082e-07 0)
(5.60792e-06 -6.73769e-07 0)
(6.62107e-06 -7.18008e-07 0)
(7.69469e-06 -7.58775e-07 0)
(8.82418e-06 -7.96165e-07 0)
(1.0005e-05 -8.30333e-07 0)
(1.12327e-05 -8.61411e-07 0)
(1.2503e-05 -8.89484e-07 0)
(1.38116e-05 -9.14603e-07 0)
(1.51543e-05 -9.36823e-07 0)
(1.65273e-05 -9.5623e-07 0)
(1.79267e-05 -9.72941e-07 0)
(1.93487e-05 -9.8709e-07 0)
(2.07897e-05 -9.98793e-07 0)
(2.22463e-05 -1.00815e-06 0)
(2.3715e-05 -1.01526e-06 0)
(2.51926e-05 -1.0202e-06 0)
(2.66763e-05 -1.02308e-06 0)
(2.8163e-05 -1.02399e-06 0)
(2.96501e-05 -1.023e-06 0)
(3.11347e-05 -1.0202e-06 0)
(3.26143e-05 -1.01566e-06 0)
(3.40865e-05 -1.0095e-06 0)
(3.55489e-05 -1.0018e-06 0)
(3.69993e-05 -9.92635e-07 0)
(3.84356e-05 -9.82075e-07 0)
(3.98559e-05 -9.70178e-07 0)
(4.12582e-05 -9.57003e-07 0)
(4.26408e-05 -9.42618e-07 0)
(4.40019e-05 -9.27099e-07 0)
(4.534e-05 -9.10523e-07 0)
(4.66534e-05 -8.92955e-07 0)
(4.79407e-05 -8.74446e-07 0)
(4.92006e-05 -8.55041e-07 0)
(5.04317e-05 -8.34784e-07 0)
(5.16329e-05 -8.13724e-07 0)
(5.28031e-05 -7.91916e-07 0)
(5.39413e-05 -7.69411e-07 0)
(5.50463e-05 -7.46251e-07 0)
(5.61172e-05 -7.22474e-07 0)
(5.71532e-05 -6.98114e-07 0)
(5.81533e-05 -6.7321e-07 0)
(5.9117e-05 -6.47803e-07 0)
(6.00433e-05 -6.21935e-07 0)
(6.09317e-05 -5.95639e-07 0)
(6.17816e-05 -5.68946e-07 0)
(6.25923e-05 -5.4188e-07 0)
(6.33633e-05 -5.14463e-07 0)
(6.40941e-05 -4.86723e-07 0)
(6.47842e-05 -4.58686e-07 0)
(6.54332e-05 -4.30379e-07 0)
(6.60408e-05 -4.01828e-07 0)
(6.66066e-05 -3.73053e-07 0)
(6.71303e-05 -3.44073e-07 0)
(6.76115e-05 -3.14906e-07 0)
(6.80499e-05 -2.85569e-07 0)
(6.84455e-05 -2.56083e-07 0)
(6.87978e-05 -2.26464e-07 0)
(6.91069e-05 -1.96728e-07 0)
(6.93724e-05 -1.66889e-07 0)
(6.95942e-05 -1.3696e-07 0)
(6.97723e-05 -1.06957e-07 0)
(6.99065e-05 -7.68944e-08 0)
(6.99967e-05 -4.67889e-08 0)
(7.00429e-05 -1.66561e-08 0)
(7.00451e-05 1.34884e-08 0)
(7.00033e-05 4.36306e-08 0)
(6.99174e-05 7.37578e-08 0)
(6.97876e-05 1.03857e-07 0)
(6.96137e-05 1.33915e-07 0)
(6.93961e-05 1.63916e-07 0)
(6.91346e-05 1.93845e-07 0)
(6.88295e-05 2.23687e-07 0)
(6.84809e-05 2.53428e-07 0)
(6.8089e-05 2.83051e-07 0)
(6.7654e-05 3.12535e-07 0)
(6.7176e-05 3.41861e-07 0)
(6.66554e-05 3.71012e-07 0)
(6.60924e-05 3.99967e-07 0)
(6.54873e-05 4.28705e-07 0)
(6.48405e-05 4.57201e-07 0)
(6.41523e-05 4.8543e-07 0)
(6.34232e-05 5.13372e-07 0)
(6.26536e-05 5.41003e-07 0)
(6.1844e-05 5.68294e-07 0)
(6.09949e-05 5.95211e-07 0)
(6.0107e-05 6.21721e-07 0)
(5.91808e-05 6.47797e-07 0)
(5.8217e-05 6.7341e-07 0)
(5.72163e-05 6.98522e-07 0)
(5.61796e-05 7.23091e-07 0)
(5.51076e-05 7.47075e-07 0)
(5.40012e-05 7.70432e-07 0)
(5.28614e-05 7.93125e-07 0)
(5.16892e-05 8.15113e-07 0)
(5.04857e-05 8.36349e-07 0)
(4.92521e-05 8.56784e-07 0)
(4.79895e-05 8.76366e-07 0)
(4.66993e-05 8.95039e-07 0)
(4.53828e-05 9.12745e-07 0)
(4.40415e-05 9.29424e-07 0)
(4.2677e-05 9.45016e-07 0)
(4.12909e-05 9.59461e-07 0)
(3.98849e-05 9.72699e-07 0)
(3.84609e-05 9.84658e-07 0)
(3.70207e-05 9.95268e-07 0)
(3.55664e-05 1.00445e-06 0)
(3.41002e-05 1.01215e-06 0)
(3.26242e-05 1.01827e-06 0)
(3.11408e-05 1.02274e-06 0)
(2.96525e-05 1.02548e-06 0)
(2.81619e-05 1.02639e-06 0)
(2.66716e-05 1.02541e-06 0)
(2.51845e-05 1.02244e-06 0)
(2.37035e-05 1.01738e-06 0)
(2.22317e-05 1.01012e-06 0)
(2.07724e-05 1.00058e-06 0)
(1.93288e-05 9.88671e-07 0)
(1.79044e-05 9.74307e-07 0)
(1.65029e-05 9.57376e-07 0)
(1.5128e-05 9.37762e-07 0)
(1.37836e-05 9.15371e-07 0)
(1.24737e-05 8.90117e-07 0)
(1.12024e-05 8.61881e-07 0)
(9.97406e-06 8.30526e-07 0)
(8.79301e-06 7.95972e-07 0)
(7.66364e-06 7.58233e-07 0)
(6.59041e-06 7.17313e-07 0)
(5.578e-06 6.73067e-07 0)
(4.63123e-06 6.25249e-07 0)
(3.75479e-06 5.73762e-07 0)
(2.95301e-06 5.18846e-07 0)
(2.22992e-06 4.60941e-07 0)
(1.58956e-06 4.00301e-07 0)
(1.03599e-06 3.36836e-07 0)
(5.72794e-07 2.70507e-07 0)
(2.02164e-07 2.01994e-07 0)
(-7.55409e-08 1.3291e-07 0)
(-2.61816e-07 6.54255e-08 0)
(-3.60336e-07 1.99663e-09 0)
(-3.78136e-07 -5.42079e-08 0)
(-3.27017e-07 -9.81972e-08 0)
(-2.25692e-07 -1.21769e-07 0)
(-1.07483e-07 -1.11411e-07 0)
(-2.48253e-08 -5.20152e-08 0)
(-3.09188e-08 1.20906e-07 0)
(-1.18279e-07 2.28235e-07 0)
(-2.25349e-07 2.31216e-07 0)
(-2.95904e-07 1.62175e-07 0)
(-2.88478e-07 4.39154e-08 0)
(-1.74812e-07 -1.07874e-07 0)
(6.24767e-08 -2.80588e-07 0)
(4.32707e-07 -4.63677e-07 0)
(9.40892e-07 -6.49874e-07 0)
(1.5898e-06 -8.35159e-07 0)
(2.3797e-06 -1.01728e-06 0)
(3.30811e-06 -1.19433e-06 0)
(4.37056e-06 -1.36456e-06 0)
(5.56164e-06 -1.52665e-06 0)
(6.87554e-06 -1.67994e-06 0)
(8.30606e-06 -1.82415e-06 0)
(9.84657e-06 -1.95919e-06 0)
(1.14901e-05 -2.08498e-06 0)
(1.32295e-05 -2.20149e-06 0)
(1.50577e-05 -2.30878e-06 0)
(1.69676e-05 -2.40703e-06 0)
(1.89523e-05 -2.49646e-06 0)
(2.10052e-05 -2.5773e-06 0)
(2.31196e-05 -2.64978e-06 0)
(2.5289e-05 -2.71412e-06 0)
(2.75071e-05 -2.77056e-06 0)
(2.97678e-05 -2.81935e-06 0)
(3.20651e-05 -2.8608e-06 0)
(3.43934e-05 -2.89521e-06 0)
(3.6747e-05 -2.92287e-06 0)
(3.91207e-05 -2.94404e-06 0)
(4.15093e-05 -2.95897e-06 0)
(4.3908e-05 -2.96793e-06 0)
(4.63121e-05 -2.97115e-06 0)
(4.87171e-05 -2.96889e-06 0)
(5.11186e-05 -2.96141e-06 0)
(5.35124e-05 -2.94892e-06 0)
(5.58947e-05 -2.93169e-06 0)
(5.82616e-05 -2.90992e-06 0)
(6.06096e-05 -2.88386e-06 0)
(6.29352e-05 -2.85372e-06 0)
(6.52353e-05 -2.81968e-06 0)
(6.75067e-05 -2.78195e-06 0)
(6.97466e-05 -2.7407e-06 0)
(7.19521e-05 -2.69613e-06 0)
(7.41205e-05 -2.64842e-06 0)
(7.62494e-05 -2.59777e-06 0)
(7.83364e-05 -2.54433e-06 0)
(8.03792e-05 -2.48825e-06 0)
(8.23757e-05 -2.42969e-06 0)
(8.43241e-05 -2.36877e-06 0)
(8.62224e-05 -2.30563e-06 0)
(8.80689e-05 -2.24041e-06 0)
(8.98619e-05 -2.17325e-06 0)
(9.15998e-05 -2.10428e-06 0)
(9.32813e-05 -2.0336e-06 0)
(9.49049e-05 -1.96133e-06 0)
(9.64693e-05 -1.88757e-06 0)
(9.79733e-05 -1.81242e-06 0)
(9.9416e-05 -1.73597e-06 0)
(0.000100796 -1.65833e-06 0)
(0.000102113 -1.57958e-06 0)
(0.000103365 -1.49979e-06 0)
(0.000104552 -1.41906e-06 0)
(0.000105673 -1.33744e-06 0)
(0.000106728 -1.25501e-06 0)
(0.000107715 -1.17184e-06 0)
(0.000108635 -1.088e-06 0)
(0.000109486 -1.00354e-06 0)
(0.000110268 -9.1852e-07 0)
(0.00011098 -8.32996e-07 0)
(0.000111623 -7.47019e-07 0)
(0.000112196 -6.60638e-07 0)
(0.000112698 -5.73903e-07 0)
(0.00011313 -4.8686e-07 0)
(0.000113491 -3.99554e-07 0)
(0.00011378 -3.12032e-07 0)
(0.000113998 -2.24339e-07 0)
(0.000114145 -1.36518e-07 0)
(0.000114221 -4.86142e-08 0)
(0.000114224 3.93311e-08 0)
(0.000114156 1.27275e-07 0)
(0.000114017 2.15176e-07 0)
(0.000113806 3.02994e-07 0)
(0.000113523 3.90685e-07 0)
(0.00011317 4.78205e-07 0)
(0.000112745 5.65506e-07 0)
(0.000112249 6.52542e-07 0)
(0.000111682 7.39264e-07 0)
(0.000111046 8.25626e-07 0)
(0.000110339 9.11572e-07 0)
(0.000109562 9.97046e-07 0)
(0.000108716 1.08199e-06 0)
(0.000107801 1.16635e-06 0)
(0.000106818 1.25005e-06 0)
(0.000105768 1.33304e-06 0)
(0.00010465 1.41523e-06 0)
(0.000103465 1.49656e-06 0)
(0.000102216 1.57696e-06 0)
(0.000100901 1.65633e-06 0)
(9.95221e-05 1.7346e-06 0)
(9.80804e-05 1.81166e-06 0)
(9.65767e-05 1.88744e-06 0)
(9.50122e-05 1.96182e-06 0)
(9.33881e-05 2.0347e-06 0)
(9.17055e-05 2.10599e-06 0)
(8.9966e-05 2.17556e-06 0)
(8.81709e-05 2.24328e-06 0)
(8.63219e-05 2.30904e-06 0)
(8.44205e-05 2.37271e-06 0)
(8.24687e-05 2.43415e-06 0)
(8.04682e-05 2.49322e-06 0)
(7.84212e-05 2.54978e-06 0)
(7.63297e-05 2.60366e-06 0)
(7.41959e-05 2.6547e-06 0)
(7.20224e-05 2.70273e-06 0)
(6.98115e-05 2.74758e-06 0)
(6.7566e-05 2.78905e-06 0)
(6.52888e-05 2.82699e-06 0)
(6.29827e-05 2.86119e-06 0)
(6.06509e-05 2.89145e-06 0)
(5.82967e-05 2.91757e-06 0)
(5.59236e-05 2.93933e-06 0)
(5.35352e-05 2.95651e-06 0)
(5.11352e-05 2.96888e-06 0)
(4.87277e-05 2.97621e-06 0)
(4.63169e-05 2.97826e-06 0)
(4.39071e-05 2.97478e-06 0)
(4.15028e-05 2.96554e-06 0)
(3.91088e-05 2.95028e-06 0)
(3.67301e-05 2.92873e-06 0)
(3.43717e-05 2.9006e-06 0)
(3.20391e-05 2.86565e-06 0)
(2.97378e-05 2.82362e-06 0)
(2.74736e-05 2.77425e-06 0)
(2.52523e-05 2.71724e-06 0)
(2.30802e-05 2.65232e-06 0)
(2.09636e-05 2.57926e-06 0)
(1.89089e-05 2.49783e-06 0)
(1.69228e-05 2.40776e-06 0)
(1.50122e-05 2.30875e-06 0)
(1.31841e-05 2.20062e-06 0)
(1.14453e-05 2.08339e-06 0)
(9.80276e-06 1.95709e-06 0)
(8.26348e-06 1.82162e-06 0)
(6.83464e-06 1.6768e-06 0)
(5.5231e-06 1.52268e-06 0)
(4.33503e-06 1.35988e-06 0)
(3.27585e-06 1.18952e-06 0)
(2.35046e-06 1.01275e-06 0)
(1.56323e-06 8.30668e-07 0)
(9.17259e-07 6.44799e-07 0)
(4.13149e-07 4.58125e-07 0)
(4.81124e-08 2.75631e-07 0)
(-1.84591e-07 1.04411e-07 0)
(-2.96498e-07 -4.60917e-08 0)
(-3.04839e-07 -1.6337e-07 0)
(-2.33697e-07 -2.30657e-07 0)
(-1.21547e-07 -2.25308e-07 0)
(-3.07963e-08 -1.17922e-07 0)
(-2.86208e-08 1.84756e-07 0)
(-9.86175e-08 3.28073e-07 0)
(-1.5952e-07 3.02437e-07 0)
(-1.53308e-07 1.5709e-07 0)
(-3.91929e-08 -7.02465e-08 0)
(2.12563e-07 -3.53133e-07 0)
(6.23673e-07 -6.7239e-07 0)
(1.2071e-06 -1.0128e-06 0)
(1.9693e-06 -1.3622e-06 0)
(2.91304e-06 -1.71192e-06 0)
(4.03864e-06 -2.0564e-06 0)
(5.34392e-06 -2.39193e-06 0)
(6.82432e-06 -2.71566e-06 0)
(8.47357e-06 -3.02531e-06 0)
(1.02844e-05 -3.31926e-06 0)
(1.2249e-05 -3.59654e-06 0)
(1.43589e-05 -3.85668e-06 0)
(1.66055e-05 -4.09948e-06 0)
(1.89797e-05 -4.3249e-06 0)
(2.14724e-05 -4.533e-06 0)
(2.40743e-05 -4.72395e-06 0)
(2.67766e-05 -4.89803e-06 0)
(2.95703e-05 -5.0556e-06 0)
(3.24468e-05 -5.19707e-06 0)
(3.53975e-05 -5.32288e-06 0)
(3.84141e-05 -5.43348e-06 0)
(4.14883e-05 -5.52935e-06 0)
(4.46123e-05 -5.611e-06 0)
(4.77782e-05 -5.67896e-06 0)
(5.09789e-05 -5.73376e-06 0)
(5.4207e-05 -5.77591e-06 0)
(5.74558e-05 -5.80589e-06 0)
(6.07186e-05 -5.82418e-06 0)
(6.39892e-05 -5.83125e-06 0)
(6.72614e-05 -5.8276e-06 0)
(7.05292e-05 -5.81369e-06 0)
(7.37872e-05 -5.79e-06 0)
(7.70299e-05 -5.75697e-06 0)
(8.02522e-05 -5.71505e-06 0)
(8.34492e-05 -5.66465e-06 0)
(8.66162e-05 -5.60619e-06 0)
(8.9749e-05 -5.54005e-06 0)
(9.28432e-05 -5.46663e-06 0)
(9.58948e-05 -5.3863e-06 0)
(9.89001e-05 -5.29941e-06 0)
(0.000101855 -5.20632e-06 0)
(0.000104757 -5.10736e-06 0)
(0.000107602 -5.00287e-06 0)
(0.000110387 -4.89315e-06 0)
(0.00011311 -4.7785e-06 0)
(0.000115767 -4.65919e-06 0)
(0.000118356 -4.53549e-06 0)
(0.000120875 -4.40767e-06 0)
(0.000123321 -4.27597e-06 0)
(0.000125692 -4.14065e-06 0)
(0.000127986 -4.00194e-06 0)
(0.000130202 -3.86006e-06 0)
(0.000132337 -3.71522e-06 0)
(0.00013439 -3.5676e-06 0)
(0.00013636 -3.4174e-06 0)
(0.000138244 -3.2648e-06 0)
(0.000140042 -3.10997e-06 0)
(0.000141752 -2.95308e-06 0)
(0.000143373 -2.79429e-06 0)
(0.000144904 -2.63374e-06 0)
(0.000146345 -2.47156e-06 0)
(0.000147693 -2.3079e-06 0)
(0.000148949 -2.14288e-06 0)
(0.000150111 -1.97661e-06 0)
(0.00015118 -1.80922e-06 0)
(0.000152154 -1.64082e-06 0)
(0.000153032 -1.47151e-06 0)
(0.000153815 -1.30139e-06 0)
(0.000154501 -1.13056e-06 0)
(0.000155091 -9.59116e-07 0)
(0.000155584 -7.87146e-07 0)
(0.00015598 -6.14744e-07 0)
(0.000156278 -4.41998e-07 0)
(0.000156479 -2.68998e-07 0)
(0.000156582 -9.58297e-08 0)
(0.000156587 7.74234e-08 0)
(0.000156494 2.50677e-07 0)
(0.000156304 4.23845e-07 0)
(0.000156015 5.96844e-07 0)
(0.00015563 7.69585e-07 0)
(0.000155146 9.4198e-07 0)
(0.000154566 1.11394e-06 0)
(0.000153889 1.28536e-06 0)
(0.000153115 1.45614e-06 0)
(0.000152245 1.6262e-06 0)
(0.00015128 1.79541e-06 0)
(0.000150219 1.96368e-06 0)
(0.000149063 2.13089e-06 0)
(0.000147814 2.29691e-06 0)
(0.000146472 2.46163e-06 0)
(0.000145037 2.6249e-06 0)
(0.00014351 2.78659e-06 0)
(0.000141893 2.94655e-06 0)
(0.000140187 3.10462e-06 0)
(0.000138392 3.26065e-06 0)
(0.00013651 3.41447e-06 0)
(0.000134542 3.5659e-06 0)
(0.00013249 3.71475e-06 0)
(0.000130355 3.86082e-06 0)
(0.000128138 4.00391e-06 0)
(0.000125842 4.1438e-06 0)
(0.000123469 4.28028e-06 0)
(0.00012102 4.4131e-06 0)
(0.000118498 4.54202e-06 0)
(0.000115905 4.66678e-06 0)
(0.000113244 4.78711e-06 0)
(0.000110516 4.90274e-06 0)
(0.000107725 5.01337e-06 0)
(0.000104874 5.1187e-06 0)
(0.000101966 5.21842e-06 0)
(9.90041e-05 5.31218e-06 0)
(9.59917e-05 5.39966e-06 0)
(9.29325e-05 5.48049e-06 0)
(8.98305e-05 5.55431e-06 0)
(8.66897e-05 5.62076e-06 0)
(8.35144e-05 5.67946e-06 0)
(8.0309e-05 5.73e-06 0)
(7.70783e-05 5.77195e-06 0)
(7.38272e-05 5.8049e-06 0)
(7.05609e-05 5.82841e-06 0)
(6.72848e-05 5.84203e-06 0)
(6.40046e-05 5.84529e-06 0)
(6.07262e-05 5.83774e-06 0)
(5.74557e-05 5.81889e-06 0)
(5.41996e-05 5.78828e-06 0)
(5.09644e-05 5.7454e-06 0)
(4.77572e-05 5.68976e-06 0)
(4.45852e-05 5.62083e-06 0)
(4.14557e-05 5.53812e-06 0)
(3.83765e-05 5.44116e-06 0)
(3.53555e-05 5.32945e-06 0)
(3.24009e-05 5.20247e-06 0)
(2.95211e-05 5.05977e-06 0)
(2.67247e-05 4.90096e-06 0)
(2.40204e-05 4.72569e-06 0)
(2.14171e-05 4.53354e-06 0)
(1.8924e-05 4.32412e-06 0)
(1.65503e-05 4.09723e-06 0)
(1.43048e-05 3.85298e-06 0)
(1.21963e-05 3.59166e-06 0)
(1.02335e-05 3.31353e-06 0)
(8.4252e-06 3.01883e-06 0)
(6.77939e-06 2.70828e-06 0)
(5.30307e-06 2.38348e-06 0)
(4.00176e-06 2.04708e-06 0)
(2.87967e-06 1.70238e-06 0)
(1.93965e-06 1.35325e-06 0)
(1.18229e-06 1.00488e-06 0)
(6.04508e-07 6.65111e-07 0)
(1.98285e-07 3.45517e-07 0)
(-5.04491e-08 6.22421e-08 0)
(-1.62494e-07 -1.63277e-07 0)
(-1.65729e-07 -3.03783e-07 0)
(-1.00332e-07 -3.25429e-07 0)
(-2.82897e-08 -1.83082e-07 0)
(-2.03659e-08 2.2965e-07 0)
(-5.48736e-08 3.77184e-07 0)
(-4.31136e-08 2.94201e-07 0)
(7.12169e-08 4.36749e-08 0)
(3.2681e-07 -3.24949e-07 0)
(7.51696e-07 -7.73646e-07 0)
(1.36779e-06 -1.27483e-06 0)
(2.19013e-06 -1.80787e-06 0)
(3.2269e-06 -2.35651e-06 0)
(4.48126e-06 -2.90795e-06 0)
(5.95317e-06 -3.45286e-06 0)
(7.64018e-06 -3.98473e-06 0)
(9.53758e-06 -4.49895e-06 0)
(1.16387e-05 -4.99208e-06 0)
(1.39354e-05 -5.46153e-06 0)
(1.64185e-05 -5.9055e-06 0)
(1.90782e-05 -6.32291e-06 0)
(2.19044e-05 -6.71319e-06 0)
(2.48863e-05 -7.07613e-06 0)
(2.80132e-05 -7.41175e-06 0)
(3.12742e-05 -7.72024e-06 0)
(3.46586e-05 -8.00193e-06 0)
(3.81556e-05 -8.25728e-06 0)
(4.17547e-05 -8.48684e-06 0)
(4.54454e-05 -8.69126e-06 0)
(4.92177e-05 -8.87127e-06 0)
(5.30614e-05 -9.02759e-06 0)
(5.6967e-05 -9.16101e-06 0)
(6.09249e-05 -9.27231e-06 0)
(6.4926e-05 -9.36228e-06 0)
(6.89615e-05 -9.43172e-06 0)
(7.30231e-05 -9.4814e-06 0)
(7.71025e-05 -9.51209e-06 0)
(8.11919e-05 -9.52454e-06 0)
(8.52836e-05 -9.51952e-06 0)
(8.93703e-05 -9.49779e-06 0)
(9.34451e-05 -9.46011e-06 0)
(9.75012e-05 -9.40719e-06 0)
(0.000101532 -9.33973e-06 0)
(0.000105532 -9.25841e-06 0)
(0.000109495 -9.16387e-06 0)
(0.000113416 -9.05676e-06 0)
(0.000117288 -8.9377e-06 0)
(0.000121108 -8.8073e-06 0)
(0.000124871 -8.66615e-06 0)
(0.000128571 -8.51481e-06 0)
(0.000132204 -8.35384e-06 0)
(0.000135767 -8.18374e-06 0)
(0.000139256 -8.00502e-06 0)
(0.000142666 -7.81818e-06 0)
(0.000145995 -7.62366e-06 0)
(0.000149239 -7.42192e-06 0)
(0.000152396 -7.21338e-06 0)
(0.000155461 -6.99846e-06 0)
(0.000158433 -6.77754e-06 0)
(0.000161309 -6.55101e-06 0)
(0.000164087 -6.31924e-06 0)
(0.000166764 -6.08255e-06 0)
(0.000169338 -5.84129e-06 0)
(0.000171807 -5.59575e-06 0)
(0.00017417 -5.34623e-06 0)
(0.000176425 -5.09301e-06 0)
(0.00017857 -4.83636e-06 0)
(0.000180603 -4.57655e-06 0)
(0.000182524 -4.31382e-06 0)
(0.000184331 -4.04839e-06 0)
(0.000186023 -3.78049e-06 0)
(0.000187598 -3.51032e-06 0)
(0.000189057 -3.23809e-06 0)
(0.000190398 -2.96398e-06 0)
(0.000191619 -2.68819e-06 0)
(0.000192722 -2.41088e-06 0)
(0.000193704 -2.13222e-06 0)
(0.000194565 -1.85239e-06 0)
(0.000195306 -1.57153e-06 0)
(0.000195925 -1.2898e-06 0)
(0.000196421 -1.00735e-06 0)
(0.000196796 -7.24337e-07 0)
(0.000197048 -4.40893e-07 0)
(0.000197177 -1.57167e-07 0)
(0.000197184 1.26699e-07 0)
(0.000197068 4.10567e-07 0)
(0.000196829 6.94294e-07 0)
(0.000196468 9.77736e-07 0)
(0.000195984 1.26074e-06 0)
(0.000195377 1.54317e-06 0)
(0.000194649 1.82486e-06 0)
(0.0001938 2.10566e-06 0)
(0.000192829 2.38541e-06 0)
(0.000191738 2.66393e-06 0)
(0.000190526 2.94105e-06 0)
(0.000189196 3.21659e-06 0)
(0.000187746 3.49036e-06 0)
(0.000186179 3.76216e-06 0)
(0.000184495 4.03178e-06 0)
(0.000182695 4.29899e-06 0)
(0.000180781 4.56358e-06 0)
(0.000178753 4.82529e-06 0)
(0.000176613 5.08387e-06 0)
(0.000174362 5.33906e-06 0)
(0.000172002 5.59058e-06 0)
(0.000169535 5.83813e-06 0)
(0.000166962 6.08141e-06 0)
(0.000164286 6.32011e-06 0)
(0.000161508 6.55386e-06 0)
(0.00015863 6.78234e-06 0)
(0.000155656 7.00516e-06 0)
(0.000152587 7.22195e-06 0)
(0.000149427 7.43229e-06 0)
(0.000146178 7.63578e-06 0)
(0.000142844 7.83196e-06 0)
(0.000139428 8.02039e-06 0)
(0.000135932 8.2006e-06 0)
(0.000132362 8.37207e-06 0)
(0.00012872 8.5343e-06 0)
(0.000125012 8.68676e-06 0)
(0.000121241 8.82889e-06 0)
(0.000117411 8.96013e-06 0)
(0.000113529 9.07989e-06 0)
(0.000109598 9.18755e-06 0)
(0.000105625 9.28249e-06 0)
(0.000101615 9.36408e-06 0)
(9.75731e-05 9.43163e-06 0)
(9.35065e-05 9.48447e-06 0)
(8.94212e-05 9.52189e-06 0)
(8.53242e-05 9.54317e-06 0)
(8.12224e-05 9.54759e-06 0)
(7.71231e-05 9.53441e-06 0)
(7.3034e-05 9.50284e-06 0)
(6.89632e-05 9.45214e-06 0)
(6.49187e-05 9.38153e-06 0)
(6.09091e-05 9.29023e-06 0)
(5.69434e-05 9.17746e-06 0)
(5.30307e-05 9.04241e-06 0)
(4.91805e-05 8.88435e-06 0)
(4.54024e-05 8.70254e-06 0)
(4.17065e-05 8.49625e-06 0)
(3.8103e-05 8.26473e-06 0)
(3.46025e-05 8.00736e-06 0)
(3.12153e-05 7.72366e-06 0)
(2.79522e-05 7.41323e-06 0)
(2.48241e-05 7.07566e-06 0)
(2.1842e-05 6.71062e-06 0)
(1.90167e-05 6.31808e-06 0)
(1.63587e-05 5.89852e-06 0)
(1.38778e-05 5.45284e-06 0)
(1.15837e-05 4.98221e-06 0)
(9.48573e-06 4.48801e-06 0)
(7.59228e-06 3.97243e-06 0)
(5.9099e-06 3.43907e-06 0)
(4.44297e-06 2.89338e-06 0)
(3.19369e-06 2.34243e-06 0)
(2.16194e-06 1.79509e-06 0)
(1.3443e-06 1.26293e-06 0)
(7.32696e-07 7.61818e-07 0)
(3.12792e-07 3.1359e-07 0)
(6.28325e-08 -5.23893e-08 0)
(-4.6921e-08 -2.9843e-07 0)
(-5.62674e-08 -3.78203e-07 0)
(-2.07829e-08 -2.30509e-07 0)
(-9.57244e-09 2.48266e-07 0)
(3.37882e-09 3.56777e-07 0)
(1.07888e-07 1.79657e-07 0)
(3.52536e-07 -2.0832e-07 0)
(7.73504e-07 -7.49242e-07 0)
(1.3968e-06 -1.39605e-06 0)
(2.2423e-06 -2.11242e-06 0)
(3.32458e-06 -2.87126e-06 0)
(4.65257e-06 -3.65177e-06 0)
(6.22997e-06 -4.43759e-06 0)
(8.05661e-06 -5.21595e-06 0)
(1.01295e-05 -5.97731e-06 0)
(1.24435e-05 -6.71474e-06 0)
(1.49914e-05 -7.42319e-06 0)
(1.77644e-05 -8.09896e-06 0)
(2.07526e-05 -8.73938e-06 0)
(2.3945e-05 -9.34265e-06 0)
(2.733e-05 -9.90767e-06 0)
(3.08958e-05 -1.04339e-05 0)
(3.46302e-05 -1.09212e-05 0)
(3.85208e-05 -1.13697e-05 0)
(4.25554e-05 -1.17799e-05 0)
(4.67216e-05 -1.21521e-05 0)
(5.10072e-05 -1.24872e-05 0)
(5.54004e-05 -1.2786e-05 0)
(5.98891e-05 -1.30495e-05 0)
(6.4462e-05 -1.32786e-05 0)
(6.91076e-05 -1.34745e-05 0)
(7.38149e-05 -1.36382e-05 0)
(7.85733e-05 -1.37708e-05 0)
(8.33726e-05 -1.38734e-05 0)
(8.82027e-05 -1.39471e-05 0)
(9.30541e-05 -1.3993e-05 0)
(9.79175e-05 -1.40123e-05 0)
(0.000102784 -1.4006e-05 0)
(0.000107645 -1.39752e-05 0)
(0.000112492 -1.39209e-05 0)
(0.000117317 -1.38443e-05 0)
(0.000122112 -1.37462e-05 0)
(0.000126871 -1.36278e-05 0)
(0.000131587 -1.34899e-05 0)
(0.000136253 -1.33334e-05 0)
(0.000140862 -1.31593e-05 0)
(0.000145409 -1.29685e-05 0)
(0.000149887 -1.27618e-05 0)
(0.000154292 -1.25401e-05 0)
(0.000158618 -1.23041e-05 0)
(0.000162861 -1.20546e-05 0)
(0.000167015 -1.17924e-05 0)
(0.000171077 -1.15181e-05 0)
(0.000175042 -1.12324e-05 0)
(0.000178907 -1.0936e-05 0)
(0.000182667 -1.06296e-05 0)
(0.00018632 -1.03136e-05 0)
(0.000189861 -9.98879e-06 0)
(0.000193288 -9.65562e-06 0)
(0.000196598 -9.31463e-06 0)
(0.000199789 -8.96633e-06 0)
(0.000202857 -8.61122e-06 0)
(0.000205801 -8.24973e-06 0)
(0.000208617 -7.88232e-06 0)
(0.000211305 -7.5094e-06 0)
(0.000213863 -7.13137e-06 0)
(0.000216287 -6.74861e-06 0)
(0.000218578 -6.36148e-06 0)
(0.000220732 -5.97033e-06 0)
(0.00022275 -5.57548e-06 0)
(0.000224629 -5.17724e-06 0)
(0.000226369 -4.77591e-06 0)
(0.000227968 -4.37179e-06 0)
(0.000229425 -3.96513e-06 0)
(0.00023074 -3.55621e-06 0)
(0.000231912 -3.14528e-06 0)
(0.00023294 -2.73258e-06 0)
(0.000233823 -2.31835e-06 0)
(0.000234562 -1.90282e-06 0)
(0.000235154 -1.48622e-06 0)
(0.000235601 -1.06876e-06 0)
(0.000235902 -6.50658e-07 0)
(0.000236057 -2.32137e-07 0)
(0.000236065 1.86595e-07 0)
(0.000235927 6.05328e-07 0)
(0.000235642 1.02385e-06 0)
(0.000235211 1.44194e-06 0)
(0.000234634 1.85938e-06 0)
(0.000233911 2.27594e-06 0)
(0.000233043 2.69141e-06 0)
(0.00023203 3.10553e-06 0)
(0.000230872 3.51807e-06 0)
(0.000229571 3.92877e-06 0)
(0.000228126 4.33738e-06 0)
(0.00022654 4.74362e-06 0)
(0.000224811 5.14721e-06 0)
(0.000222943 5.54785e-06 0)
(0.000220935 5.94523e-06 0)
(0.000218789 6.33901e-06 0)
(0.000216507 6.72886e-06 0)
(0.000214089 7.11443e-06 0)
(0.000211538 7.49532e-06 0)
(0.000208855 7.87116e-06 0)
(0.000206042 8.24152e-06 0)
(0.000203101 8.60597e-06 0)
(0.000200035 8.96406e-06 0)
(0.000196845 9.31532e-06 0)
(0.000193535 9.65925e-06 0)
(0.000190106 9.99532e-06 0)
(0.000186563 1.0323e-05 0)
(0.000182907 1.06417e-05 0)
(0.000179142 1.09508e-05 0)
(0.000175273 1.12498e-05 0)
(0.000171301 1.15379e-05 0)
(0.000167232 1.18146e-05 0)
(0.00016307 1.20791e-05 0)
(0.000158819 1.23306e-05 0)
(0.000154483 1.25685e-05 0)
(0.000150068 1.27919e-05 0)
(0.000145579 1.3e-05 0)
(0.000141022 1.31921e-05 0)
(0.000136401 1.33673e-05 0)
(0.000131724 1.35246e-05 0)
(0.000126996 1.36631e-05 0)
(0.000122224 1.3782e-05 0)
(0.000117416 1.38802e-05 0)
(0.000112578 1.39568e-05 0)
(0.000107719 1.40107e-05 0)
(0.000102846 1.40409e-05 0)
(9.79673e-05 1.40465e-05 0)
(9.3092e-05 1.40262e-05 0)
(8.82289e-05 1.3979e-05 0)
(8.33875e-05 1.39038e-05 0)
(7.85775e-05 1.37995e-05 0)
(7.38088e-05 1.3665e-05 0)
(6.90919e-05 1.34992e-05 0)
(6.44375e-05 1.33011e-05 0)
(5.98566e-05 1.30694e-05 0)
(5.53606e-05 1.28033e-05 0)
(5.0961e-05 1.25019e-05 0)
(4.66696e-05 1.2164e-05 0)
(4.24987e-05 1.17889e-05 0)
(3.84604e-05 1.13758e-05 0)
(3.4567e-05 1.09243e-05 0)
(3.08308e-05 1.04341e-05 0)
(2.7264e-05 9.90501e-06 0)
(2.38792e-05 9.33713e-06 0)
(2.06882e-05 8.73093e-06 0)
(1.77023e-05 8.0877e-06 0)
(1.49321e-05 7.40956e-06 0)
(1.23873e-05 6.69933e-06 0)
(1.0077e-05 5.96049e-06 0)
(8.00872e-06 5.19785e-06 0)
(6.18772e-06 4.41846e-06 0)
(4.6163e-06 3.63218e-06 0)
(3.29376e-06 2.85194e-06 0)
(2.21616e-06 2.09402e-06 0)
(1.37546e-06 1.37931e-06 0)
(7.58234e-07 7.35046e-07 0)
(3.44045e-07 1.97124e-07 0)
(1.03924e-07 -1.88064e-07 0)
(8.72213e-10 -3.62764e-07 0)
(-1.07183e-08 -2.51223e-07 0)
(1.40992e-09 2.36616e-07 0)
(6.81808e-08 2.56681e-07 0)
(2.79909e-07 -5.75035e-08 0)
(6.71477e-07 -6.19864e-07 0)
(1.27441e-06 -1.36562e-06 0)
(2.11327e-06 -2.24129e-06 0)
(3.20555e-06 -3.20362e-06 0)
(4.5638e-06 -4.21897e-06 0)
(6.19613e-06 -5.26154e-06 0)
(8.10621e-06 -6.31119e-06 0)
(1.02937e-05 -7.35208e-06 0)
(1.27552e-05 -8.37184e-06 0)
(1.54849e-05 -9.3611e-06 0)
(1.8475e-05 -1.03129e-05 0)
(2.17161e-05 -1.12222e-05 0)
(2.51974e-05 -1.20853e-05 0)
(2.89071e-05 -1.28997e-05 0)
(3.28326e-05 -1.36635e-05 0)
(3.69609e-05 -1.43759e-05 0)
(4.12786e-05 -1.50365e-05 0)
(4.57722e-05 -1.56452e-05 0)
(5.0428e-05 -1.62024e-05 0)
(5.52324e-05 -1.67087e-05 0)
(6.01718e-05 -1.71651e-05 0)
(6.52328e-05 -1.75725e-05 0)
(7.04021e-05 -1.79321e-05 0)
(7.56667e-05 -1.82452e-05 0)
(8.10139e-05 -1.85132e-05 0)
(8.64313e-05 -1.87374e-05 0)
(9.19068e-05 -1.89194e-05 0)
(9.74289e-05 -1.90605e-05 0)
(0.000102986 -1.91623e-05 0)
(0.000108568 -1.9226e-05 0)
(0.000114163 -1.92534e-05 0)
(0.000119762 -1.92457e-05 0)
(0.000125355 -1.92046e-05 0)
(0.000130932 -1.91313e-05 0)
(0.000136484 -1.90273e-05 0)
(0.000142002 -1.88939e-05 0)
(0.000147479 -1.87325e-05 0)
(0.000152906 -1.85443e-05 0)
(0.000158276 -1.83307e-05 0)
(0.000163581 -1.80928e-05 0)
(0.000168815 -1.78318e-05 0)
(0.000173971 -1.7549e-05 0)
(0.000179043 -1.72454e-05 0)
(0.000184024 -1.69222e-05 0)
(0.000188909 -1.65803e-05 0)
(0.000193694 -1.62208e-05 0)
(0.000198372 -1.58446e-05 0)
(0.000202939 -1.54527e-05 0)
(0.00020739 -1.5046e-05 0)
(0.000211722 -1.46254e-05 0)
(0.00021593 -1.41916e-05 0)
(0.00022001 -1.37455e-05 0)
(0.000223959 -1.32879e-05 0)
(0.000227774 -1.28194e-05 0)
(0.00023145 -1.23408e-05 0)
(0.000234986 -1.18527e-05 0)
(0.000238379 -1.13557e-05 0)
(0.000241626 -1.08506e-05 0)
(0.000244724 -1.03377e-05 0)
(0.000247672 -9.81778e-06 0)
(0.000250468 -9.29126e-06 0)
(0.000253108 -8.75866e-06 0)
(0.000255593 -8.22044e-06 0)
(0.000257919 -7.67708e-06 0)
(0.000260086 -7.12899e-06 0)
(0.000262092 -6.57661e-06 0)
(0.000263936 -6.02032e-06 0)
(0.000265617 -5.4605e-06 0)
(0.000267134 -4.89752e-06 0)