/*--------------------------------*- C++ -*----------------------------------*\
  =========                 |
  \\      /  F ield         | OpenFOAM: The Open Source CFD Toolbox
   \\    /   O peration     | Website:  https://openfoam.org
    \\  /    A nd           | Version:  7
     \\/     M anipulation  |
\*---------------------------------------------------------------------------*/
FoamFile
{
    version     2.0;
    format      ascii;
    class       surfaceScalarField;
    location    "0.4875";
    object      phi;
}
// * * * * * * * * * * * * * * * * * * * * * * * * * * * * * * * * * * * * * //

dimensions      [0 3 -1 0 0 0 0];

internalField   nonuniform List<scalar> 
101920
(
-2.78009e-13
1.08129e-14
-5.79263e-13
3.01695e-13
-9.72695e-13
3.93402e-13
-1.30896e-12
3.37182e-13
-1.50672e-12
1.99848e-13
-1.52246e-12
1.69971e-14
-1.33272e-12
-1.89564e-13
-9.26017e-13
-4.06419e-13
-2.99791e-13
-6.25592e-13
5.42842e-13
-8.4207e-13
1.59592e-12
-1.05252e-12
2.85148e-12
-1.2549e-12
4.30006e-12
-1.44801e-12
5.93142e-12
-1.63097e-12
7.735e-12
-1.80319e-12
9.69979e-12
-1.96444e-12
1.18148e-11
-2.11474e-12
1.40692e-11
-2.25415e-12
1.64523e-11
-2.38284e-12
1.89532e-11
-2.50098e-12
2.15619e-11
-2.60875e-12
2.42687e-11
-2.70651e-12
2.70638e-11
-2.79469e-12
2.99377e-11
-2.87362e-12
3.28812e-11
-2.94346e-12
3.58858e-11
-3.00445e-12
3.89432e-11
-3.05699e-12
4.20451e-11
-3.10147e-12
4.51839e-11
-3.13826e-12
4.83521e-11
-3.16769e-12
5.15427e-11
-3.19003e-12
5.47486e-11
-3.20552e-12
5.79634e-11
-3.21441e-12
6.11811e-11
-3.21705e-12
6.43956e-11
-3.21378e-12
6.76012e-11
-3.20492e-12
7.07925e-11
-3.19069e-12
7.39644e-11
-3.17134e-12
7.7112e-11
-3.14711e-12
8.02307e-11
-3.11823e-12
8.33161e-11
-3.08494e-12
8.6364e-11
-3.04746e-12
8.93705e-11
-3.00602e-12
9.23317e-11
-2.96082e-12
9.52442e-11
-2.91207e-12
9.81046e-11
-2.85998e-12
1.0091e-10
-2.80476e-12
1.03657e-10
-2.7466e-12
1.06343e-10
-2.68563e-12
1.08965e-10
-2.62195e-12
1.11521e-10
-2.55573e-12
1.14008e-10
-2.48713e-12
1.16425e-10
-2.41634e-12
1.18769e-10
-2.34352e-12
1.21038e-10
-2.2688e-12
1.23231e-10
-2.19227e-12
1.25346e-10
-2.11402e-12
1.2738e-10
-2.03419e-12
1.29334e-10
-1.9529e-12
1.31205e-10
-1.87026e-12
1.32992e-10
-1.7864e-12
1.34693e-10
-1.70138e-12
1.36309e-10
-1.61527e-12
1.37838e-10
-1.52814e-12
1.39278e-10
-1.44007e-12
1.4063e-10
-1.35118e-12
1.41892e-10
-1.26152e-12
1.43064e-10
-1.17115e-12
1.44144e-10
-1.08009e-12
1.45133e-10
-9.884e-13
1.4603e-10
-8.96197e-13
1.46834e-10
-8.03563e-13
1.47545e-10
-7.10539e-13
1.48162e-10
-6.17141e-13
1.48686e-10
-5.23403e-13
1.49116e-10
-4.2939e-13
1.49451e-10
-3.35176e-13
1.49692e-10
-2.40812e-13
1.49839e-10
-1.46318e-13
1.4989e-10
-5.17075e-14
1.49847e-10
4.29882e-14
1.4971e-10
1.37716e-13
1.49478e-10
2.32406e-13
1.49151e-10
3.26981e-13
1.4873e-10
4.21371e-13
1.48215e-10
5.1554e-13
1.47606e-10
6.09489e-13
1.46903e-10
7.03215e-13
1.46106e-10
7.96667e-13
1.45216e-10
8.89742e-13
1.44234e-10
9.8233e-13
1.43159e-10
1.07436e-12
1.41993e-10
1.16581e-12
1.40736e-10
1.25668e-12
1.39389e-10
1.34691e-12
1.37953e-10
1.43642e-12
1.36427e-10
1.52513e-12
1.34815e-10
1.61294e-12
1.33115e-10
1.69974e-12
1.3133e-10
1.78544e-12
1.2946e-10
1.86995e-12
1.27507e-10
1.95325e-12
1.25472e-10
2.03526e-12
1.23356e-10
2.1158e-12
1.21162e-10
2.19466e-12
1.1889e-10
2.27175e-12
1.16543e-10
2.34705e-12
1.14123e-10
2.42051e-12
1.11631e-10
2.49191e-12
1.0907e-10
2.56102e-12
1.06443e-10
2.62773e-12
1.03751e-10
2.69193e-12
1.00998e-10
2.75344e-12
9.81863e-11
2.81205e-12
9.53187e-11
2.86764e-12
9.23986e-11
2.92013e-12
8.94295e-11
2.96932e-12
8.64151e-11
3.01484e-12
8.3359e-11
3.05644e-12
8.02652e-11
3.09399e-12
7.71379e-11
3.12735e-12
7.39818e-11
3.15619e-12
7.08016e-11
3.18024e-12
6.76018e-11
3.1994e-12
6.43878e-11
3.21364e-12
6.11652e-11
3.22262e-12
5.79401e-11
3.22568e-12
5.47182e-11
3.22232e-12
5.15054e-11
3.21258e-12
4.83081e-11
3.19664e-12
4.51336e-11
3.17426e-12
4.19893e-11
3.14471e-12
3.88827e-11
3.10727e-12
3.58211e-11
3.06168e-12
3.28124e-11
3.00808e-12
2.98652e-11
2.94647e-12
2.69887e-11
2.87633e-12
2.4192e-11
2.79696e-12
2.14843e-11
2.70796e-12
1.88751e-11
2.60917e-12
1.63746e-11
2.50042e-12
1.39929e-11
2.38148e-12
1.17407e-11
2.25211e-12
9.62877e-12
2.11205e-12
7.66788e-12
1.96109e-12
5.86883e-12
1.79921e-12
4.24247e-12
1.62657e-12
2.79955e-12
1.44335e-12
1.55041e-12
1.24975e-12
5.04273e-13
1.04641e-12
-3.31423e-13
8.35093e-13
-9.51085e-13
6.18649e-13
-1.35081e-12
3.99873e-13
-1.53106e-12
1.81628e-13
-1.50253e-12
-2.93793e-14
-1.2923e-12
-2.16556e-13
-9.46282e-13
-3.52269e-13
-5.31742e-13
-4.04898e-13
-1.60847e-13
-3.35474e-13
-1.23133e-13
-4.39406e-13
4.51072e-13
-1.10941e-12
9.73696e-13
-1.77012e-12
1.05445e-12
-2.22127e-12
7.88008e-13
-2.30918e-12
2.89134e-13
-1.93263e-12
-3.57221e-13
-1.02942e-12
-1.091e-12
4.35491e-13
-1.86987e-12
2.47677e-12
-2.66538e-12
5.09458e-12
-3.45843e-12
8.27913e-12
-4.23584e-12
1.20139e-11
-4.98862e-12
1.62778e-11
-5.71079e-12
2.10463e-11
-6.39839e-12
2.62929e-11
-7.04874e-12
3.19896e-11
-7.66029e-12
3.81079e-11
-8.23231e-12
4.46191e-11
-8.76453e-12
5.14943e-11
-9.25719e-12
5.87049e-11
-9.71091e-12
6.62226e-11
-1.01263e-11
7.40204e-11
-1.0504e-11
8.20714e-11
-1.08451e-11
9.03494e-11
-1.11508e-11
9.88289e-11
-1.14222e-11
1.07485e-10
-1.16602e-11
1.16295e-10
-1.1866e-11
1.25235e-10
-1.20409e-11
1.34284e-10
-1.2186e-11
1.4342e-10
-1.23025e-11
1.52623e-10
-1.23916e-11
1.61873e-10
-1.24544e-11
1.71152e-10
-1.24919e-11
1.80441e-10
-1.25053e-11
1.89724e-10
-1.24955e-11
1.98984e-10
-1.24638e-11
2.08206e-10
-1.24112e-11
2.17374e-10
-1.23385e-11
2.26475e-10
-1.22468e-11
2.35494e-10
-1.21369e-11
2.4442e-10
-1.20098e-11
2.5324e-10
-1.18663e-11
2.61942e-10
-1.17073e-11
2.70516e-10
-1.15336e-11
2.78951e-10
-1.13459e-11
2.87237e-10
-1.1145e-11
2.95364e-10
-1.09317e-11
3.03325e-10
-1.07066e-11
3.11111e-10
-1.04704e-11
3.18714e-10
-1.02238e-11
3.26126e-10
-9.96721e-12
3.33341e-10
-9.70134e-12
3.40352e-10
-9.42672e-12
3.47154e-10
-9.14394e-12
3.5374e-10
-8.85353e-12
3.60104e-10
-8.556e-12
3.66243e-10
-8.25176e-12
3.72151e-10
-7.94126e-12
3.77824e-10
-7.62492e-12
3.83258e-10
-7.30316e-12
3.88449e-10
-6.97636e-12
3.93394e-10
-6.64492e-12
3.98089e-10
-6.30915e-12
4.02531e-10
-5.96938e-12
4.06718e-10
-5.62589e-12
4.10647e-10
-5.27899e-12
4.14316e-10
-4.92897e-12
4.17722e-10
-4.57613e-12
4.20863e-10
-4.22068e-12
4.23739e-10
-3.86284e-12
4.26347e-10
-3.50285e-12
4.28685e-10
-3.14099e-12
4.30753e-10
-2.7775e-12
4.32549e-10
-2.41257e-12
4.34072e-10
-2.04637e-12
4.35322e-10
-1.67905e-12
4.36298e-10
-1.31081e-12
4.37e-10
-9.41851e-13
4.37426e-10
-5.72364e-13
4.37577e-10
-2.02523e-13
4.37453e-10
1.67504e-13
4.37054e-10
5.37548e-13
4.36379e-10
9.07434e-13
4.3543e-10
1.27698e-12
4.34206e-10
1.64598e-12
4.32708e-10
2.01422e-12
4.30936e-10
2.38149e-12
4.28892e-10
2.74764e-12
4.26575e-10
3.11251e-12
4.23989e-10
3.47589e-12
4.21133e-10
3.83752e-12
4.1801e-10
4.19714e-12
4.14621e-10
4.5545e-12
4.10968e-10
4.90939e-12
4.07053e-10
5.26158e-12
4.02878e-10
5.6108e-12
3.98447e-10
5.95673e-12
3.93761e-10
6.29907e-12
3.88823e-10
6.63747e-12
3.83637e-10
6.97155e-12
3.78207e-10
7.30092e-12
3.72536e-10
7.62523e-12
3.66627e-10
7.94417e-12
3.60486e-10
8.25735e-12
3.54117e-10
8.56425e-12
3.47525e-10
8.86432e-12
3.40716e-10
9.15709e-12
3.33695e-10
9.44217e-12
3.26468e-10
9.71906e-12
3.19042e-10
9.98716e-12
3.11425e-10
1.02458e-11
3.03623e-10
1.04945e-11
2.95644e-10
1.07326e-11
2.87498e-10
1.09595e-11
2.79192e-10
1.11743e-11
2.70736e-10
1.13765e-11
2.6214e-10
1.15654e-11
2.53415e-10
1.17402e-11
2.44572e-10
1.19e-11
2.35623e-10
1.20439e-11
2.26578e-10
1.21713e-11
2.17453e-10
1.22814e-11
2.08261e-10
1.2373e-11
1.99015e-10
1.24452e-11
1.89732e-10
1.2497e-11
1.80425e-10
1.2528e-11
1.71114e-10
1.25371e-11
1.61814e-10
1.25227e-11
1.52544e-10
1.24835e-11
1.43322e-10
1.24187e-11
1.34168e-10
1.23277e-11
1.25103e-10
1.22094e-11
1.16148e-10
1.20625e-11
1.07325e-10
1.18852e-11
9.86569e-11
1.16765e-11
9.01674e-11
1.14356e-11
8.18812e-11
1.11617e-11
7.38242e-11
1.08534e-11
6.60225e-11
1.05095e-11
5.8503e-11
1.01288e-11
5.12931e-11
9.7106e-12
4.4421e-11
9.25395e-12
3.7915e-11
8.75834e-12
3.18041e-11
8.22335e-12
2.6117e-11
7.64874e-12
2.0882e-11
7.03468e-12
1.61266e-11
6.38205e-12
1.18772e-11
5.69256e-12
8.15808e-12
4.96876e-12
4.99105e-12
4.21422e-12
2.39225e-12
3.43473e-12
3.69495e-13
2.64018e-12
-1.07848e-12
1.8452e-12
-1.96314e-12
1.06796e-12
-2.31382e-12
3.31489e-13
-2.19305e-12
-3.27987e-13
-1.71518e-12
-8.46489e-13
-1.04763e-12
-1.1263e-12
-4.03309e-13
-1.04649e-12
-4.99851e-13
-4.54008e-13
9.05272e-13
-1.14677e-12
1.66902e-12
-1.71065e-12
1.62003e-12
-1.89272e-12
9.70679e-13
-1.50282e-12
-9.98392e-14
-4.06673e-13
-1.45181e-12
1.48392e-12
-2.97978e-12
4.2217e-12
-4.60624e-12
7.8328e-12
-6.27537e-12
1.2323e-11
-7.94752e-12
1.76827e-11
-9.59451e-12
2.38912e-11
-1.11963e-11
3.09201e-11
-1.27389e-11
3.87354e-11
-1.42126e-11
4.72986e-11
-1.5611e-11
5.65688e-11
-1.69298e-11
6.65037e-11
-1.81666e-11
7.70597e-11
-1.932e-11
8.81931e-11
-2.039e-11
9.98599e-11
-2.13773e-11
1.12017e-10
-2.22829e-11
1.24621e-10
-2.31081e-11
1.37631e-10
-2.38547e-11
1.51006e-10
-2.45248e-11
1.64705e-10
-2.51205e-11
1.7869e-10
-2.56442e-11
1.92923e-10
-2.60981e-11
2.07367e-10
-2.64848e-11
2.21989e-10
-2.68065e-11
2.36753e-10
-2.70658e-11
2.51627e-10
-2.7265e-11
2.66581e-10
-2.74066e-11
2.81583e-10
-2.7493e-11
2.96605e-10
-2.75263e-11
3.1162e-10
-2.7509e-11
3.266e-10
-2.74433e-11
3.41521e-10
-2.73313e-11
3.56359e-10
-2.71752e-11
3.71091e-10
-2.69771e-11
3.85694e-10
-2.67389e-11
4.00147e-10
-2.64627e-11
4.14432e-10
-2.61502e-11
4.28529e-10
-2.58033e-11
4.4242e-10
-2.54238e-11
4.56088e-10
-2.50133e-11
4.69518e-10
-2.45737e-11
4.82693e-10
-2.41063e-11
4.956e-10
-2.36128e-11
5.08225e-10
-2.30946e-11
5.20555e-10
-2.25531e-11
5.32578e-10
-2.19896e-11
5.44283e-10
-2.14054e-11
5.55659e-10
-2.08018e-11
5.66696e-10
-2.018e-11
5.77384e-10
-1.9541e-11
5.87715e-10
-1.88861e-11
5.97681e-10
-1.82162e-11
6.07273e-10
-1.75323e-11
6.16484e-10
-1.68354e-11
6.25308e-10
-1.61263e-11
6.33739e-10
-1.54059e-11
6.4177e-10
-1.46751e-11
6.49396e-10
-1.39345e-11
6.56612e-10
-1.31849e-11
6.63414e-10
-1.24271e-11
6.69798e-10
-1.16615e-11
6.75759e-10
-1.0889e-11
6.81294e-10
-1.011e-11
6.864e-10
-9.3252e-12
6.91073e-10
-8.5351e-12
6.95311e-10
-7.7402e-12
6.99112e-10
-6.94102e-12
7.02473e-10
-6.13807e-12
7.05393e-10
-5.33184e-12
7.0787e-10
-4.52274e-12
7.09902e-10
-3.71118e-12
7.11489e-10
-2.89756e-12
7.1263e-10
-2.08231e-12
7.13324e-10
-1.26586e-12
7.1357e-10
-4.4861e-13
7.13369e-10
3.69035e-13
7.12721e-10
1.18668e-12
7.11625e-10
2.00394e-12
7.10082e-10
2.82041e-12
7.08092e-10
3.63569e-12
7.05658e-10
4.44932e-12
7.02779e-10
5.26085e-12
6.99457e-10
6.0698e-12
6.95693e-10
6.87577e-12
6.9149e-10
7.6783e-12
6.8685e-10
8.47691e-12
6.81776e-10
9.27107e-12
6.7627e-10
1.00602e-11
6.70335e-10
1.08437e-11
6.63976e-10
1.16211e-11
6.57194e-10
1.23917e-11
6.49996e-10
1.31549e-11
6.42385e-10
1.391e-11
6.34367e-10
1.46562e-11
6.25946e-10
1.53928e-11
6.17128e-10
1.6119e-11
6.07921e-10
1.68338e-11
5.98329e-10
1.75364e-11
5.88361e-10
1.8226e-11
5.78023e-10
1.89017e-11
5.67326e-10
1.95622e-11
5.56277e-10
2.02066e-11
5.44886e-10
2.08337e-11
5.33163e-10
2.14424e-11
5.21119e-10
2.20315e-11
5.08766e-10
2.25997e-11
4.96115e-10
2.31456e-11
4.83181e-10
2.36679e-11
4.69975e-10
2.41653e-11
4.56514e-10
2.46362e-11
4.42812e-10
2.50789e-11
4.28886e-10
2.54919e-11
4.14753e-10
2.58736e-11
4.00431e-10
2.62223e-11
3.85939e-10
2.6536e-11
3.71298e-10
2.6813e-11
3.56527e-10
2.70516e-11
3.4165e-10
2.72498e-11
3.2669e-10
2.74053e-11
3.11672e-10
2.75159e-11
2.9662e-10
2.75797e-11
2.81562e-10
2.75949e-11
2.66524e-10
2.75593e-11
2.51538e-10
2.74702e-11
2.36633e-10
2.73251e-11
2.21839e-10
2.71216e-11
2.07191e-10
2.68578e-11
1.92721e-10
2.65315e-11
1.78465e-10
2.61402e-11
1.64461e-10
2.5681e-11
1.50746e-10
2.51515e-11
1.37358e-10
2.45497e-11
1.24337e-10
2.38735e-11
1.11725e-10
2.31208e-11
9.95643e-11
2.22895e-11
8.78971e-11
2.13779e-11
7.67671e-11
2.03843e-11
6.62179e-11
1.9308e-11
5.62931e-11
1.81485e-11
4.7036e-11
1.69061e-11
3.84892e-11
1.5582e-11
3.06932e-11
1.41786e-11
2.36854e-11
1.27003e-11
1.74995e-11
1.11541e-11
1.21646e-11
9.54934e-12
7.70187e-12
7.89933e-12
4.11963e-12
6.2235e-12
1.40878e-12
4.55197e-12
-4.5859e-13
2.92755e-12
-1.53129e-12
1.40491e-12
-1.88993e-12
5.34764e-14
-1.67321e-12
-1.02885e-12
-1.09513e-12
-1.69401e-12
-4.41575e-13
-1.74183e-12
-9.36711e-13
-3.6778e-13
1.27265e-12
-8.48984e-13
2.15143e-12
-1.04342e-12
1.81679e-12
-6.71625e-13
6.00696e-13
4.74349e-13
-1.24495e-12
2.54568e-12
-3.52196e-12
5.64531e-12
-6.07772e-12
9.83735e-12
-8.79676e-12
1.51558e-11
-1.15927e-11
2.16111e-11
-1.44018e-11
2.91949e-11
-1.71773e-11
3.78846e-11
-1.98852e-11
4.76473e-11
-2.25007e-11
5.84418e-11
-2.50062e-11
7.02213e-11
-2.73897e-11
8.2935e-11
-2.96428e-11
9.65296e-11
-3.17603e-11
1.10949e-10
-3.37392e-11
1.26138e-10
-3.55785e-11
1.42039e-10
-3.72783e-11
1.58597e-10
-3.88398e-11
1.75755e-10
-4.02651e-11
1.93457e-10
-4.15568e-11
2.11651e-10
-4.27178e-11
2.30282e-10
-4.37514e-11
2.493e-10
-4.46615e-11
2.68655e-10
-4.54518e-11
2.88297e-10
-4.61262e-11
3.0818e-10
-4.66887e-11
3.28259e-10
-4.71433e-11
3.48489e-10
-4.74941e-11
3.68828e-10
-4.77449e-11
3.89237e-10
-4.79e-11
4.09675e-10
-4.79631e-11
4.30105e-10
-4.79382e-11
4.50492e-10
-4.78291e-11
4.70801e-10
-4.76394e-11
4.90999e-10
-4.73727e-11
5.11056e-10
-4.70328e-11
5.30941e-10
-4.6623e-11
5.50626e-10
-4.61465e-11
5.70084e-10
-4.56068e-11
5.89288e-10
-4.50069e-11
6.08215e-10
-4.43499e-11
6.26841e-10
-4.36387e-11
6.45144e-10
-4.28763e-11
6.63104e-10
-4.20652e-11
6.807e-10
-4.12082e-11
6.97914e-10
-4.03078e-11
7.14728e-10
-3.93665e-11
7.31126e-10
-3.83866e-11
7.47092e-10
-3.73702e-11
7.6261e-10
-3.63197e-11
7.77668e-10
-3.52371e-11
7.92253e-10
-3.41243e-11
8.06351e-10
-3.29833e-11
8.19951e-10
-3.18159e-11
8.33044e-10
-3.06238e-11
8.45618e-10
-2.94086e-11
8.57664e-10
-2.81719e-11
8.69175e-10
-2.69152e-11
8.80141e-10
-2.564e-11
8.90554e-10
-2.43475e-11
9.0041e-10
-2.30392e-11
9.097e-10
-2.17161e-11
9.18418e-10
-2.03794e-11
9.26561e-10
-1.90303e-11
9.34122e-10
-1.76697e-11
9.41096e-10
-1.62988e-11
9.47481e-10
-1.49186e-11
9.53271e-10
-1.35298e-11
9.58464e-10
-1.21334e-11
9.63057e-10
-1.07303e-11
9.67047e-10
-9.3213e-12
9.70432e-10
-7.90717e-12
9.7321e-10
-6.48868e-12
9.75379e-10
-5.06656e-12
9.76939e-10
-3.64155e-12
9.77888e-10
-2.21441e-12
9.78225e-10
-7.85855e-13
9.77951e-10
6.43409e-13
9.77066e-10
2.07268e-12
9.75569e-10
3.50125e-12
9.73461e-10
4.92839e-12
9.70744e-10
6.35338e-12
9.67418e-10
7.77544e-12
9.63485e-10
9.19379e-12
9.58947e-10
1.06076e-11
9.53807e-10
1.20161e-11
9.48067e-10
1.34184e-11
9.41729e-10
1.48137e-11
9.34799e-10
1.62011e-11
9.27279e-10
1.75796e-11
9.19174e-10
1.89482e-11
9.10489e-10
2.03058e-11
9.0123e-10
2.16513e-11
8.91401e-10
2.29837e-11
8.8101e-10
2.43016e-11
8.70062e-10
2.56038e-11
8.58566e-10
2.6889e-11
8.4653e-10
2.81557e-11
8.33962e-10
2.94026e-11
8.20871e-10
3.06278e-11
8.07268e-10
3.18299e-11
7.93163e-10
3.30073e-11
7.78567e-10
3.41581e-11
7.63494e-10
3.52804e-11
7.47955e-10
3.63723e-11
7.31966e-10
3.74318e-11
7.15541e-10
3.84568e-11
6.98697e-10
3.9445e-11
6.81449e-10
4.03941e-11
6.63816e-10
4.13017e-11
6.45816e-10
4.21654e-11
6.2747e-10
4.29826e-11
6.08799e-10
4.37504e-11
5.89825e-10
4.44662e-11
5.70572e-10
4.51272e-11
5.51064e-10
4.57304e-11
5.31328e-10
4.62725e-11
5.11391e-10
4.67505e-11
4.91281e-10
4.71609e-11
4.7103e-10
4.75008e-11
4.50668e-10
4.77667e-11
4.30229e-10
4.79548e-11
4.09748e-10
4.80611e-11
3.89261e-10
4.80823e-11
3.68805e-10
4.80148e-11
3.4842e-10
4.7855e-11
3.28147e-10
4.75986e-11
3.08028e-10
4.72413e-11
2.88107e-10
4.67791e-11
2.6843e-10
4.62085e-11
2.49043e-10
4.55257e-11
2.29998e-10
4.47266e-11
2.11342e-10
4.38069e-11
1.93129e-10
4.27631e-11
1.7541e-10
4.15918e-11
1.58241e-10
4.02897e-11
1.41677e-10
3.88538e-11
1.25773e-10
3.72816e-11
1.10586e-10
3.55712e-11
9.61735e-11
3.37215e-11
8.25902e-11
3.17323e-11
6.98916e-11
2.9605e-11
5.81313e-11
2.73427e-11
4.73596e-11
2.49507e-11
3.76229e-11
2.24374e-11
2.89611e-11
1.98153e-11
2.14068e-11
1.71026e-11
1.49833e-11
1.43238e-11
9.7e-12
1.15111e-11
5.54451e-12
8.7102e-12
2.47685e-12
5.98776e-12
4.28948e-13
3.43492e-12
-6.95538e-13
1.16724e-12
-1.03869e-12
-6.70412e-13
-8.19258e-13
-1.88503e-12
-3.57553e-13
-2.21306e-12
-1.2986e-12
-2.16433e-13
1.48991e-12
-3.30203e-13
2.26593e-12
4.28989e-14
1.4458e-12
1.18207e-12
-5.36496e-13
3.29734e-12
-3.35914e-12
6.5438e-12
-6.76748e-12
1.10298e-11
-1.05624e-11
1.68249e-11
-1.45904e-11
2.39669e-11
-1.87337e-11
3.24688e-11
-2.29028e-11
4.23229e-11
-2.70305e-11
5.35055e-11
-3.10668e-11
6.59801e-11
-3.49743e-11
7.97007e-11
-3.8726e-11
9.46138e-11
-4.23022e-11
1.10661e-10
-4.56895e-11
1.27781e-10
-4.88788e-11
1.45907e-10
-5.18647e-11
1.64973e-10
-5.46445e-11
1.84912e-10
-5.72173e-11
2.05657e-10
-5.95841e-11
2.2714e-10
-6.17475e-11
2.49295e-10
-6.37107e-11
2.72055e-10
-6.54777e-11
2.95358e-10
-6.7053e-11
3.19139e-10
-6.84419e-11
3.43337e-10
-6.96497e-11
3.67894e-10
-7.0682e-11
3.92751e-10
-7.15446e-11
4.17852e-10
-7.22433e-11
4.43143e-10
-7.27842e-11
4.68572e-10
-7.3173e-11
4.94089e-10
-7.34156e-11
5.19645e-10
-7.3518e-11
5.45194e-10
-7.3486e-11
5.70691e-10
-7.33251e-11
5.96094e-10
-7.30409e-11
6.21361e-10
-7.2639e-11
6.46454e-10
-7.21246e-11
6.71335e-10
-7.1503e-11
6.95968e-10
-7.07792e-11
7.20321e-10
-6.99581e-11
7.44359e-10
-6.90445e-11
7.68053e-10
-6.80431e-11
7.91373e-10
-6.69583e-11
8.14292e-10
-6.57944e-11
8.36783e-10
-6.45557e-11
8.58822e-10
-6.32462e-11
8.80384e-10
-6.18697e-11
9.01448e-10
-6.04299e-11
9.21993e-10
-5.89305e-11
9.41999e-10
-5.7375e-11
9.61446e-10
-5.57665e-11
9.80318e-10
-5.41084e-11
9.98599e-10
-5.24036e-11
1.01627e-09
-5.06551e-11
1.03332e-09
-4.88656e-11
1.04974e-09
-4.70377e-11
1.0655e-09
-4.51741e-11
1.08061e-09
-4.32772e-11
1.09504e-09
-4.13492e-11
1.1088e-09
-3.93923e-11
1.12186e-09
-3.74087e-11
1.13422e-09
-3.54002e-11
1.14588e-09
-3.33689e-11
1.15681e-09
-3.13165e-11
1.16703e-09
-2.92447e-11
1.17651e-09
-2.71551e-11
1.18527e-09
-2.50493e-11
1.19328e-09
-2.29289e-11
1.20054e-09
-2.07953e-11
1.20706e-09
-1.86498e-11
1.21283e-09
-1.64938e-11
1.21783e-09
-1.43286e-11
1.22208e-09
-1.21553e-11
1.22557e-09
-9.97532e-12
1.22829e-09
-7.78964e-12
1.23025e-09
-5.59946e-12
1.23144e-09
-3.40594e-12
1.23187e-09
-1.21023e-12
1.23152e-09
9.86589e-13
1.23041e-09
3.18341e-12
1.22854e-09
5.37913e-12
1.22589e-09
7.57259e-12
1.22248e-09
9.76266e-12
1.21831e-09
1.19482e-11
1.21338e-09
1.41279e-11
1.20768e-09
1.63005e-11
1.20124e-09
1.84648e-11
1.19403e-09
2.06195e-11
1.18608e-09
2.27632e-11
1.17739e-09
2.48945e-11
1.16796e-09
2.7012e-11
1.15779e-09
2.9114e-11
1.1469e-09
3.11989e-11
1.13528e-09
3.3265e-11
1.12296e-09
3.53106e-11
1.10993e-09
3.73337e-11
1.0962e-09
3.93323e-11
1.08178e-09
4.13044e-11
1.06669e-09
4.32479e-11
1.05093e-09
4.51604e-11
1.03452e-09
4.70396e-11
1.01747e-09
4.88829e-11
9.9979e-10
5.06876e-11
9.81497e-10
5.24513e-11
9.62607e-10
5.41708e-11
9.43136e-10
5.58433e-11
9.23103e-10
5.74656e-11
9.02525e-10
5.90345e-11
8.81424e-10
6.05466e-11
8.5982e-10
6.19985e-11
8.37737e-10
6.33862e-11
8.15196e-10
6.47061e-11
7.92225e-10
6.59543e-11
7.68849e-10
6.71266e-11
7.45098e-10
6.82187e-11
7.20999e-10
6.92263e-11
6.96584e-10
7.0145e-11
6.71886e-10
7.09701e-11
6.4694e-10
7.16967e-11
6.21782e-10
7.23196e-11
5.96449e-10
7.28339e-11
5.7098e-10
7.32347e-11
5.45418e-10
7.35166e-11
5.19805e-10
7.3674e-11
4.94187e-10
7.37009e-11
4.6861e-10
7.3592e-11
4.43123e-10
7.33418e-11
4.17777e-10
7.29446e-11
3.92624e-10
7.23943e-11
3.67719e-10
7.16848e-11
3.43117e-10
7.08102e-11
3.18878e-10
6.97651e-11
2.9506e-10
6.85438e-11
2.71726e-10
6.71407e-11
2.48939e-10
6.55503e-11
2.26762e-10
6.37679e-11
2.05263e-10
6.1789e-11
1.84507e-10
5.96096e-11
1.64562e-10
5.72266e-11
1.45496e-10
5.46379e-11
1.27375e-10
5.18426e-11
1.10266e-10
4.88414e-11
9.42347e-11
4.56373e-11
7.93417e-11
4.22361e-11
6.56457e-11
3.86471e-11
5.31997e-11
3.48839e-11
4.20489e-11
3.09662e-11
3.2228e-11
2.69219e-11
2.37601e-11
2.27894e-11
1.66543e-11
1.86183e-11
1.08996e-11
1.44734e-11
6.45392e-12
1.04422e-11
3.23877e-12
6.64597e-12
1.14331e-12
3.2454e-12
2.28296e-14
4.40737e-13
-3.24865e-13
-1.52086e-12
-2.10012e-13
-2.32066e-12
-1.51152e-12
-2.75808e-14
1.51891e-12
3.27668e-13
1.91144e-12
1.40601e-12
3.68666e-13
3.46764e-12
-2.59628e-12
6.71108e-12
-6.60111e-12
1.1285e-11
-1.13404e-11
1.72952e-11
-1.65718e-11
2.4811e-11
-2.2105e-11
3.38704e-11
-2.77919e-11
4.44859e-11
-3.35174e-11
5.66494e-11
-3.91931e-11
7.03354e-11
-4.47517e-11
8.55045e-11
-5.01423e-11
1.02106e-10
-5.53271e-11
1.20083e-10
-6.02781e-11
1.39369e-10
-6.49751e-11
1.59896e-10
-6.94047e-11
1.8159e-10
-7.3558e-11
2.04376e-10
-7.743e-11
2.28178e-10
-8.10187e-11
2.52919e-10
-8.43245e-11
2.78521e-10
-8.73497e-11
3.04909e-10
-9.00982e-11
3.32008e-10
-9.25749e-11
3.59741e-10
-9.47857e-11
3.88037e-10
-9.67372e-11
4.16825e-10
-9.84362e-11
4.46034e-10
-9.98902e-11
4.75597e-10
-1.01107e-10
5.0545e-10
-1.02095e-10
5.35527e-10
-1.02861e-10
5.65769e-10
-1.03414e-10
5.96116e-10
-1.03761e-10
6.26511e-10
-1.03912e-10
6.56899e-10
-1.03873e-10
6.87227e-10
-1.03652e-10
7.17445e-10
-1.03258e-10
7.47504e-10
-1.02698e-10
7.77359e-10
-1.01978e-10
8.06964e-10
-1.01107e-10
8.36278e-10
-1.00092e-10
8.65259e-10
-9.8939e-11
8.93871e-10
-9.76549e-11
9.22075e-10
-9.62465e-11
9.49837e-10
-9.47197e-11
9.77124e-10
-9.30808e-11
1.0039e-09
-9.13356e-11
1.03015e-09
-8.94898e-11
1.05583e-09
-8.75489e-11
1.08092e-09
-8.5518e-11
1.10539e-09
-8.34023e-11
1.12922e-09
-8.12067e-11
1.15239e-09
-7.89357e-11
1.17488e-09
-7.65939e-11
1.19666e-09
-7.41856e-11
1.21772e-09
-7.17149e-11
1.23804e-09
-6.91857e-11
1.25761e-09
-6.66019e-11
1.2764e-09
-6.39669e-11
1.29441e-09
-6.12842e-11
1.31162e-09
-5.85572e-11
1.32802e-09
-5.57888e-11
1.34359e-09
-5.29821e-11
1.35833e-09
-5.014e-11
1.37223e-09
-4.7265e-11
1.38527e-09
-4.43597e-11
1.39746e-09
-4.14268e-11
1.40877e-09
-3.84683e-11
1.41921e-09
-3.54866e-11
1.42876e-09
-3.24839e-11
1.43743e-09
-2.94622e-11
1.44521e-09
-2.64235e-11
1.45208e-09
-2.33698e-11
1.45806e-09
-2.03027e-11
1.46313e-09
-1.72241e-11
1.46729e-09
-1.41358e-11
1.47054e-09
-1.10394e-11
1.47287e-09
-7.9365e-12
1.4743e-09
-4.82881e-12
1.47481e-09
-1.71795e-12
1.4744e-09
1.39447e-12
1.47308e-09
4.50688e-12
1.47084e-09
7.61768e-12
1.46768e-09
1.07253e-11
1.46362e-09
1.38279e-11
1.45864e-09
1.6924e-11
1.45276e-09
2.00117e-11
1.44597e-09
2.30893e-11
1.43828e-09
2.6155e-11
1.42969e-09
2.92067e-11
1.42021e-09
3.22428e-11
1.40985e-09
3.5261e-11
1.3986e-09
3.82593e-11
1.38648e-09
4.12354e-11
1.37349e-09
4.4187e-11
1.35964e-09
4.71117e-11
1.34495e-09
5.00068e-11
1.32941e-09
5.28698e-11
1.31304e-09
5.56978e-11
1.29586e-09
5.84878e-11
1.27787e-09
6.12368e-11
1.25909e-09
6.39416e-11
1.23953e-09
6.65987e-11
1.21921e-09
6.92046e-11
1.19815e-09
7.17555e-11
1.17635e-09
7.42477e-11
1.15384e-09
7.6677e-11
1.13065e-09
7.90393e-11
1.10678e-09
8.13301e-11
1.08227e-09
8.35447e-11
1.05714e-09
8.56786e-11
1.03142e-09
8.77267e-11
1.00512e-09
8.96838e-11
9.7828e-10
9.15444e-11
9.50932e-10
9.33031e-11
9.23105e-10
9.49542e-11
8.94832e-10
9.64917e-11
8.6615e-10
9.79092e-11
8.37094e-10
9.92006e-11
8.07705e-10
1.0036e-10
7.78022e-10
1.01379e-10
7.48089e-10
1.02252e-10
7.17951e-10
1.02972e-10
6.87655e-10
1.03531e-10
6.57249e-10
1.03922e-10
6.26784e-10
1.04138e-10
5.96315e-10
1.0417e-10
5.65896e-10
1.04012e-10
5.35584e-10
1.03654e-10
5.05439e-10
1.03089e-10
4.75524e-10
1.0231e-10
4.45901e-10
1.01308e-10
4.16636e-10
1.00075e-10
3.87799e-10
9.86029e-11
3.59457e-10
9.68851e-11
3.31684e-10
9.4914e-11
3.04551e-10
9.26826e-11
2.78135e-10
9.01845e-11
2.52509e-10
8.74141e-11
2.27752e-10
8.43666e-11
2.03941e-10
8.10386e-11
1.81151e-10
7.74278e-11
1.5946e-10
7.35341e-11
1.38942e-10
6.93597e-11
1.1967e-10
6.49097e-11
1.01714e-10
6.01933e-11
8.51366e-11
5.52247e-11
6.99968e-11
5.00242e-11
5.63444e-11
4.46197e-11
4.42173e-11
3.90491e-11
3.36385e-11
3.33648e-11
2.46157e-11
2.76357e-11
1.71387e-11
2.19499e-11
1.11703e-11
1.64191e-11
6.63578e-12
1.11901e-11
3.42001e-12
6.45787e-12
1.37504e-12
2.47208e-12
3.16272e-13
-4.62466e-13
-2.77754e-14
-1.97089e-12
-1.53926e-12
1.81209e-13
1.33893e-12
1.06759e-12
1.02612e-12
2.94261e-12
-1.50551e-12
6.03382e-12
-5.68595e-12
1.05186e-11
-1.10842e-11
1.65313e-11
-1.73519e-11
2.41685e-11
-2.42082e-11
3.34939e-11
-3.14295e-11
4.45419e-11
-3.88389e-11
5.73224e-11
-4.62968e-11
7.18243e-11
-5.3694e-11
8.80196e-11
-6.0946e-11
1.05866e-10
-6.79876e-11
1.25309e-10
-7.47694e-11
1.46286e-10
-8.12543e-11
1.68727e-10
-8.74153e-11
1.92556e-10
-9.32333e-11
2.17694e-10
-9.86954e-11
2.44058e-10
-1.03794e-10
2.71565e-10
-1.08525e-10
3.00129e-10
-1.12888e-10
3.29665e-10
-1.16885e-10
3.60088e-10
-1.20521e-10
3.91314e-10
-1.238e-10
4.23259e-10
-1.2673e-10
4.55841e-10
-1.29319e-10
4.88981e-10
-1.31575e-10
5.22601e-10
-1.33508e-10
5.56623e-10
-1.35128e-10
5.90974e-10
-1.36444e-10
6.25582e-10
-1.37467e-10
6.60377e-10
-1.38208e-10
6.95293e-10
-1.38675e-10
7.30263e-10
-1.38881e-10
7.65226e-10
-1.38835e-10
8.00122e-10
-1.38547e-10
8.34893e-10
-1.38027e-10
8.69483e-10
-1.37286e-10
9.03839e-10
-1.36334e-10
9.37911e-10
-1.35178e-10
9.71649e-10
-1.3383e-10
1.00501e-09
-1.32297e-10
1.03794e-09
-1.30589e-10
1.07041e-09
-1.28715e-10
1.10237e-09
-1.26682e-10
1.13379e-09
-1.24498e-10
1.16463e-09
-1.22173e-10
1.19485e-09
-1.19712e-10
1.22443e-09
-1.17123e-10
1.25332e-09
-1.14414e-10
1.28151e-09
-1.11591e-10
1.30897e-09
-1.0866e-10
1.33566e-09
-1.05628e-10
1.36157e-09
-1.02501e-10
1.38667e-09
-9.92836e-11
1.41094e-09
-9.59826e-11
1.43435e-09
-9.26028e-11
1.4569e-09
-8.91492e-11
1.47856e-09
-8.56267e-11
1.49932e-09
-8.20399e-11
1.51916e-09
-7.8393e-11
1.53806e-09
-7.46904e-11
1.55601e-09
-7.09361e-11
1.57301e-09
-6.71336e-11
1.58903e-09
-6.32869e-11
1.60407e-09
-5.93992e-11
1.61812e-09
-5.54739e-11
1.63117e-09
-5.15142e-11
1.6432e-09
-4.75231e-11
1.65422e-09
-4.35035e-11
1.66422e-09
-3.94581e-11
1.67319e-09
-3.53897e-11
1.68112e-09
-3.13008e-11
1.68801e-09
-2.71939e-11
1.69386e-09
-2.30714e-11
1.69866e-09
-1.89357e-11
1.70241e-09
-1.4789e-11
1.70511e-09
-1.06336e-11
1.70675e-09
-6.47169e-12
1.70734e-09
-2.30542e-12
1.70687e-09
1.86297e-12
1.70534e-09
6.03131e-12
1.70276e-09
1.01974e-11
1.69913e-09
1.43592e-11
1.69445e-09
1.85142e-11
1.68871e-09
2.26603e-11
1.68193e-09
2.67951e-11
1.6741e-09
3.09162e-11
1.66523e-09
3.5021e-11
1.65533e-09
3.91071e-11
1.6444e-09
4.31718e-11
1.63245e-09
4.72123e-11
1.61948e-09
5.12258e-11
1.60551e-09
5.52092e-11
1.59054e-09
5.91595e-11
1.57458e-09
6.30733e-11
1.55764e-09
6.69472e-11
1.53973e-09
7.07775e-11
1.52087e-09
7.45606e-11
1.50106e-09
7.82924e-11
1.48033e-09
8.19687e-11
1.45869e-09
8.55853e-11
1.43615e-09
8.91376e-11
1.41273e-09
9.26208e-11
1.38846e-09
9.603e-11
1.36335e-09
9.93599e-11
1.33742e-09
1.02605e-10
1.3107e-09
1.0576e-10
1.28321e-09
1.08819e-10
1.25498e-09
1.11776e-10
1.22604e-09
1.14623e-10
1.19641e-09
1.17356e-10
1.16612e-09
1.19966e-10
1.13522e-09
1.22447e-10
1.10373e-09
1.24792e-10
1.0717e-09
1.26991e-10
1.03915e-09
1.29039e-10
1.00613e-09
1.30926e-10
9.7269e-10
1.32644e-10
9.38865e-10
1.34185e-10
9.04704e-10
1.35539e-10
8.70257e-10
1.36699e-10
8.35577e-10
1.37653e-10
8.00715e-10
1.38393e-10
7.65729e-10
1.38908e-10
7.30677e-10
1.3919e-10
6.95619e-10
1.39228e-10
6.60619e-10
1.39012e-10
6.25741e-10
1.38531e-10
5.91055e-10
1.37776e-10
5.56629e-10
1.36736e-10
5.22536e-10
1.354e-10
4.88851e-10
1.33759e-10
4.55651e-10
1.31803e-10
4.23013e-10
1.29522e-10
3.91019e-10
1.26908e-10
3.59751e-10
1.23951e-10
3.29292e-10
1.20643e-10
2.99727e-10
1.16979e-10
2.71141e-10
1.12953e-10
2.43619e-10
1.08561e-10
2.17246e-10
1.03801e-10
1.92107e-10
9.86736e-11
1.68284e-10
9.31837e-11
1.45855e-10
8.73391e-11
1.24896e-10
8.11527e-11
1.05477e-10
7.46443e-11
8.76595e-11
6.78417e-11
7.14972e-11
6.07826e-11
5.70324e-11
5.3516e-11
4.42915e-11
4.61069e-11
3.32825e-11
3.86416e-11
2.39949e-11
3.12316e-11
1.63967e-11
2.40162e-11
1.04249e-11
1.71695e-11
5.97585e-12
1.09143e-11
2.90688e-12
5.53685e-12
1.04927e-12
1.39048e-12
1.76566e-13
-1.09751e-12
-1.36203e-12
3.99033e-13
9.40813e-13
1.85131e-12
-4.24386e-13
4.57897e-12
-4.23235e-12
8.76904e-12
-9.87503e-12
1.45709e-11
-1.68849e-11
2.20989e-11
-2.48787e-11
3.14351e-11
-3.35435e-11
4.26329e-11
-4.26265e-11
5.57196e-11
-5.19247e-11
7.06997e-11
-6.12759e-11
8.75577e-11
-7.0551e-11
1.06261e-10
-7.96488e-11
1.26765e-10
-8.849e-11
1.4901e-10
-9.70133e-11
1.72929e-10
-1.05172e-10
1.98447e-10
-1.12933e-10
2.25483e-10
-1.20269e-10
2.53953e-10
-1.27164e-10
2.83767e-10
-1.33607e-10
3.14834e-10
-1.39592e-10
3.47064e-10
-1.45117e-10
3.80363e-10
-1.50183e-10
4.14638e-10
-1.54795e-10
4.49799e-10
-1.58959e-10
4.85752e-10
-1.62683e-10
5.2241e-10
-1.65976e-10
5.59684e-10
-1.68848e-10
5.97488e-10
-1.71311e-10
6.35738e-10
-1.73377e-10
6.74352e-10
-1.75057e-10
7.13251e-10
-1.76365e-10
7.52356e-10
-1.77312e-10
7.91595e-10
-1.77913e-10
8.30894e-10
-1.78179e-10
8.70185e-10
-1.78124e-10
9.094e-10
-1.7776e-10
9.48474e-10
-1.77101e-10
9.87346e-10
-1.76158e-10
1.02596e-09
-1.74943e-10
1.06425e-09
-1.7347e-10
1.10217e-09
-1.71749e-10
1.13966e-09
-1.69791e-10
1.17669e-09
-1.67609e-10
1.21318e-09
-1.65213e-10
1.24912e-09
-1.62613e-10
1.28444e-09
-1.5982e-10
1.31911e-09
-1.56844e-10
1.35309e-09
-1.53694e-10
1.38635e-09
-1.5038e-10
1.41885e-09
-1.4691e-10
1.45055e-09
-1.43293e-10
1.48143e-09
-1.39537e-10
1.51145e-09
-1.35651e-10
1.54059e-09
-1.31642e-10
1.56883e-09
-1.27517e-10
1.59613e-09
-1.23284e-10
1.62248e-09
-1.18949e-10
1.64785e-09
-1.14518e-10
1.67222e-09
-1.09998e-10
1.69557e-09
-1.05395e-10
1.7179e-09
-1.00715e-10
1.73917e-09
-9.59621e-11
1.75938e-09
-9.11422e-11
1.7785e-09
-8.62601e-11
1.79654e-09
-8.13205e-11
1.81347e-09
-7.63278e-11
1.82928e-09
-7.12863e-11
1.84397e-09
-6.62002e-11
1.85752e-09
-6.10734e-11
1.86993e-09
-5.59095e-11
1.88118e-09
-5.07122e-11
1.89128e-09
-4.54849e-11
1.90021e-09
-4.02311e-11
1.90797e-09
-3.49538e-11
1.91455e-09
-2.96563e-11
1.91996e-09
-2.43416e-11
1.92418e-09
-1.90126e-11
1.92722e-09
-1.36723e-11
1.92907e-09
-8.32358e-12
1.92974e-09
-2.96916e-12
1.92921e-09
2.38804e-12
1.9275e-09
7.74516e-12
1.9246e-09
1.30994e-11
1.92051e-09
1.84478e-11
1.91524e-09
2.37876e-11
1.90878e-09
2.91157e-11