/*--------------------------------*- C++ -*----------------------------------*\
  =========                 |
  \\      /  F ield         | OpenFOAM: The Open Source CFD Toolbox
   \\    /   O peration     | Website:  https://openfoam.org
    \\  /    A nd           | Version:  7
     \\/     M anipulation  |
\*---------------------------------------------------------------------------*/
FoamFile
{
    version     2.0;
    format      ascii;
    class       surfaceScalarField;
    location    "0.05";
    object      phi;
}
// * * * * * * * * * * * * * * * * * * * * * * * * * * * * * * * * * * * * * //

dimensions      [0 3 -1 0 0 0 0];

internalField   nonuniform List<scalar> 
101920
(
3.16591e-13
-3.00501e-13
2.92772e-12
-2.61093e-12
6.93336e-12
-4.0076e-12
1.00793e-11
-3.14405e-12
1.17726e-11
-1.69294e-12
1.22696e-11
-4.99516e-13
1.18917e-11
3.79354e-13
1.08719e-11
1.02028e-12
9.3604e-12
1.51112e-12
7.45723e-12
1.90354e-12
5.21877e-12
2.23906e-12
2.68541e-12
2.53365e-12
-1.07833e-13
2.79374e-12
-3.12655e-12
3.01886e-12
-6.34689e-12
3.2205e-12
-9.7501e-12
3.40332e-12
-1.33159e-11
3.56607e-12
-1.7028e-11
3.71216e-12
-2.08585e-11
3.83046e-12
-2.47895e-11
3.9315e-12
-2.88061e-11
4.01647e-12
-3.28967e-11
4.09097e-12
-3.70516e-11
4.15497e-12
-4.12514e-11
4.20004e-12
-4.54792e-11
4.2283e-12
-4.97237e-11
4.24502e-12
-5.39749e-11
4.25105e-12
-5.82276e-11
4.25225e-12
-6.24751e-11
4.24614e-12
-6.67043e-11
4.22812e-12
-7.09061e-11
4.20118e-12
-7.50738e-11
4.16698e-12
-7.92035e-11
4.12891e-12
-8.32939e-11
4.08891e-12
-8.73399e-11
4.04399e-12
-9.13346e-11
3.99348e-12
-9.5273e-11
3.93753e-12
-9.91504e-11
3.87671e-12
-1.02966e-10
3.81534e-12
-1.0672e-10
3.75304e-12
-1.10407e-10
3.68709e-12
-1.14026e-10
3.61891e-12
-1.17576e-10
3.54948e-12
-1.21054e-10
3.47769e-12
-1.24455e-10
3.40264e-12
-1.2778e-10
3.32557e-12
-1.31026e-10
3.24602e-12
-1.34189e-10
3.1641e-12
-1.37271e-10
3.08215e-12
-1.40271e-10
3.00002e-12
-1.43184e-10
2.91392e-12
-1.46007e-10
2.82385e-12
-1.48739e-10
2.73246e-12
-1.5138e-10
2.63978e-12
-1.53929e-10
2.54836e-12
-1.56392e-10
2.46214e-12
-1.58768e-10
2.37652e-12
-1.6105e-10
2.28258e-12
-1.63231e-10
2.1812e-12
-1.65313e-10
2.08106e-12
-1.67299e-10
1.98594e-12
-1.69191e-10
1.89303e-12
-1.7099e-10
1.79972e-12
-1.72693e-10
1.703e-12
-1.74292e-10
1.59942e-12
-1.75786e-10
1.49269e-12
-1.77177e-10
1.39078e-12
-1.78471e-10
1.29429e-12
-1.79667e-10
1.19663e-12
-1.80761e-10
1.0941e-12
-1.81751e-10
9.89281e-13
-1.82635e-10
8.84873e-13
-1.83416e-10
7.80327e-13
-1.84092e-10
6.75721e-13
-1.84665e-10
5.72978e-13
-1.85136e-10
4.71525e-13
-1.85505e-10
3.68278e-13
-1.85768e-10
2.62874e-13
-1.85926e-10
1.58182e-13
-1.85982e-10
5.55059e-14
-1.85935e-10
-4.69222e-14
-1.85786e-10
-1.50467e-13
-1.85531e-10
-2.54768e-13
-1.85173e-10
-3.58865e-13
-1.8471e-10
-4.62589e-13
-1.84143e-10
-5.66112e-13
-1.83474e-10
-6.69139e-13
-1.82702e-10
-7.71257e-13
-1.81829e-10
-8.73005e-13
-1.80853e-10
-9.75061e-13
-1.79776e-10
-1.07656e-12
-1.78598e-10
-1.17653e-12
-1.77323e-10
-1.27595e-12
-1.75948e-10
-1.37587e-12
-1.74473e-10
-1.47517e-12
-1.72901e-10
-1.5724e-12
-1.71233e-10
-1.66814e-12
-1.6947e-10
-1.76408e-12
-1.6761e-10
-1.86056e-12
-1.65655e-10
-1.9555e-12
-1.63608e-10
-2.04745e-12
-1.61468e-10
-2.13857e-12
-1.59236e-10
-2.23135e-12
-1.5691e-10
-2.32433e-12
-1.54495e-10
-2.41455e-12
-1.51993e-10
-2.50207e-12
-1.49404e-10
-2.58912e-12
-1.46727e-10
-2.6762e-12
-1.43966e-10
-2.76183e-12
-1.41121e-10
-2.84528e-12
-1.38195e-10
-2.92749e-12
-1.35187e-10
-3.00881e-12
-1.321e-10
-3.08739e-12
-1.28938e-10
-3.16199e-12
-1.25703e-10
-3.23491e-12
-1.22393e-10
-3.30933e-12
-1.19008e-10
-3.3845e-12
-1.15551e-10
-3.45629e-12
-1.12029e-10
-3.52237e-12
-1.08444e-10
-3.585e-12
-1.04797e-10
-3.64754e-12
-1.01088e-10
-3.70925e-12
-9.73224e-11
-3.76639e-12
-9.35045e-11
-3.8175e-12
-8.96384e-11
-3.86497e-12
-8.57263e-11
-3.91121e-12
-8.1771e-11
-3.95502e-12
-7.77786e-11
-3.99262e-12
-7.37571e-11
-4.02166e-12
-6.97139e-11
-4.04317e-12
-6.56544e-11
-4.05908e-12
-6.15851e-11
-4.069e-12
-5.7515e-11
-4.0702e-12
-5.34545e-11
-4.06082e-12
-4.94132e-11
-4.04133e-12
-4.54011e-11
-4.01202e-12
-4.143e-11
-3.97071e-12
-3.75153e-11
-3.91417e-12
-3.36738e-11
-3.84112e-12
-2.9921e-11
-3.7527e-12
-2.62711e-11
-3.64966e-12
-2.27407e-11
-3.53004e-12
-1.93499e-11
-3.39029e-12
-1.6121e-11
-3.22847e-12
-1.30755e-11
-3.04525e-12
-1.02341e-11
-2.8413e-12
-7.62025e-12
-2.61442e-12
-5.2597e-12
-2.36122e-12
-3.17813e-12
-2.08164e-12
-1.39784e-12
-1.7797e-12
6.28908e-14
-1.46012e-12
1.18916e-12
-1.12614e-12
1.96877e-12
-7.8014e-13
2.39446e-12
-4.26563e-13
2.4703e-12
-7.63886e-14
2.22035e-12
2.50036e-13
1.69891e-12
5.21912e-13
1.00522e-12
6.94072e-13
3.20599e-13
6.84696e-13
3.20526e-13
-1.32387e-12
1.02355e-12
-2.50905e-13
-3.68281e-12
3.43992e-12
-7.70043e-12
7.05454e-12
-6.76114e-12
9.391e-12
-4.02759e-12
1.01513e-11
-1.26059e-12
9.37517e-12
1.15502e-12
7.20446e-12
3.19089e-12
3.78966e-12
4.92553e-12
-7.3865e-13
6.43093e-12
-6.25585e-12
7.75573e-12
-1.26672e-11
8.94413e-12
-1.98841e-11
1.00093e-11
-2.7828e-11
1.09621e-11
-3.64234e-11
1.18147e-11
-4.55946e-11
1.25732e-11
-5.5282e-11
1.3253e-11
-6.54168e-11
1.38459e-11
-7.59471e-11
1.43609e-11
-8.68159e-11
1.47998e-11
-9.79692e-11
1.51702e-11
-1.09362e-10
1.54839e-11
-1.20948e-10
1.57415e-11
-1.3269e-10
1.59415e-11
-1.4455e-10
1.60881e-11
-1.56492e-10
1.61858e-11
-1.68482e-10
1.62429e-11
-1.80494e-10
1.62645e-11
-1.92499e-10
1.62515e-11
-2.04476e-10
1.62059e-11
-2.16404e-10
1.61285e-11
-2.2826e-10
1.60239e-11
-2.40027e-10
1.58984e-11
-2.51687e-10
1.57523e-11
-2.63226e-10
1.55859e-11
-2.74632e-10
1.54014e-11
-2.85891e-10
1.51976e-11
-2.96991e-10
1.49776e-11
-3.07923e-10
1.47482e-11
-3.18678e-10
1.45088e-11
-3.29248e-10
1.42571e-11
-3.39626e-10
1.39965e-11
-3.49805e-10
1.37263e-11
-3.59774e-10
1.34449e-11
-3.69529e-10
1.31567e-11
-3.79068e-10
1.28627e-11
-3.88382e-10
1.25604e-11
-3.97469e-10
1.22517e-11
-4.06326e-10
1.19389e-11
-4.14944e-10
1.16185e-11
-4.23319e-10
1.12896e-11
-4.31451e-10
1.09563e-11
-4.39335e-10
1.06188e-11
-4.46967e-10
1.02747e-11
-4.54345e-10
9.92753e-12
-4.61464e-10
9.58069e-12
-4.68317e-10
9.22981e-12
-4.74903e-10
8.86912e-12
-4.81222e-10
8.50045e-12
-4.8727e-10
8.12907e-12
-4.93041e-10
7.75691e-12
-4.98532e-10
7.38371e-12
-5.03742e-10
7.00916e-12
-5.08667e-10
6.62954e-12
-5.13309e-10
6.24109e-12
-5.17665e-10
5.84842e-12
-5.21732e-10
5.45862e-12
-5.25509e-10
5.07059e-12
-5.28992e-10
4.67909e-12
-5.32181e-10
4.28248e-12
-5.35073e-10
3.88199e-12
-5.37667e-10
3.47884e-12
-5.39961e-10
3.07417e-12
-5.41955e-10
2.6696e-12
-5.43648e-10
2.26555e-12
-5.45036e-10
1.86012e-12
-5.4612e-10
1.45179e-12
-5.469e-10
1.0422e-12
-5.47375e-10
6.33416e-13
-5.47544e-10
2.25125e-13
-5.47407e-10
-1.83767e-13
-5.46963e-10
-5.92836e-13
-5.46216e-10
-1.00163e-12
-5.45165e-10
-1.41029e-12
-5.4381e-10
-1.81799e-12
-5.42153e-10
-2.22326e-12
-5.40196e-10
-2.62612e-12
-5.37939e-10
-3.02812e-12
-5.35383e-10
-3.42998e-12
-5.32528e-10
-3.83046e-12
-5.29378e-10
-4.22752e-12
-5.25933e-10
-4.62108e-12
-5.22194e-10
-5.0134e-12
-5.18164e-10
-5.4053e-12
-5.13844e-10
-5.79443e-12
-5.09238e-10
-6.17875e-12
-5.04347e-10
-6.55893e-12
-4.99174e-10
-6.93652e-12
-4.93722e-10
-7.31173e-12
-4.87995e-10
-7.68324e-12
-4.81993e-10
-8.04977e-12
-4.75721e-10
-8.41211e-12
-4.69181e-10
-8.77155e-12
-4.62379e-10
-9.12685e-12
-4.55317e-10
-9.47608e-12
-4.47999e-10
-9.82012e-12
-4.40427e-10
-1.0161e-11
-4.32604e-10
-1.04982e-11
-4.24535e-10
-1.08297e-11
-4.16225e-10
-1.11548e-11
-4.07677e-10
-1.14748e-11
-3.98896e-10
-1.179e-11
-3.89887e-10
-1.20982e-11
-3.80653e-10
-1.23974e-11
-3.71201e-10
-1.26887e-11
-3.61535e-10
-1.29748e-11
-3.51664e-10
-1.32554e-11
-3.41593e-10
-1.35271e-11
-3.31328e-10
-1.37871e-11
-3.20875e-10
-1.40366e-11
-3.10244e-10
-1.42778e-11
-2.99442e-10
-1.45097e-11
-2.8848e-10
-1.47281e-11
-2.77367e-10
-1.49305e-11
-2.66115e-10
-1.51175e-11
-2.54735e-10
-1.52902e-11
-2.43243e-10
-1.54468e-11
-2.31652e-10
-1.55827e-11
-2.19981e-10
-1.56937e-11
-2.08247e-10
-1.57784e-11
-1.9647e-10
-1.58362e-11
-1.84673e-10
-1.58651e-11
-1.7288e-10
-1.58616e-11
-1.61119e-10
-1.58213e-11
-1.49419e-10
-1.57412e-11
-1.37813e-10
-1.56183e-11
-1.26336e-10
-1.5448e-11
-1.15024e-10
-1.52249e-11
-1.0392e-10
-1.49447e-11
-9.30665e-11
-1.46049e-11
-8.25124e-11
-1.4203e-11
-7.23085e-11
-1.37339e-11
-6.25077e-11
-1.31916e-11
-5.31651e-11
-1.25715e-11
-4.43385e-11
-1.18715e-11
-3.60873e-11
-1.1091e-11
-2.84716e-11
-1.02286e-11
-2.15513e-11
-9.28174e-12
-1.53839e-11
-8.25068e-12
-1.00238e-11
-7.14159e-12
-5.5199e-12
-5.96499e-12
-1.91138e-12
-4.73427e-12
7.77538e-13
-3.46782e-12
2.54572e-12
-2.19379e-12
3.42544e-12
-9.56162e-13
3.49554e-12
1.79034e-13
2.89832e-12
1.11827e-12
1.85657e-12
1.73565e-12
7.01323e-13
1.84027e-12
1.02198e-12
-2.65766e-12
3.67925e-12
-4.25366e-12
-2.08748e-12
-3.52484e-12
-8.42894e-12
-2.08095e-12
-8.20509e-12
-1.20949e-12
-4.90021e-12
-1.6199e-12
-8.51004e-13
-3.64587e-12
3.18086e-12
-7.38237e-12
6.9275e-12
-1.2805e-11
1.03487e-11
-1.98345e-11
1.34603e-11
-2.83733e-11
1.62948e-11
-3.83061e-11
1.88763e-11
-4.95151e-11
2.1219e-11
-6.1894e-11
2.33404e-11
-7.53302e-11
2.52506e-11
-8.97181e-11
2.69613e-11
-1.04952e-10
2.84861e-11
-1.20932e-10
2.98269e-11
-1.37569e-10
3.09977e-11
-1.54775e-10
3.20058e-11
-1.72469e-10
3.28641e-11
-1.90571e-10
3.35864e-11
-2.09007e-10
3.41781e-11
-2.27712e-10
3.46465e-11
-2.46626e-10
3.50019e-11
-2.65693e-10
3.5252e-11
-2.84861e-10
3.54096e-11
-3.04082e-10
3.54836e-11
-3.23308e-10
3.54774e-11
-3.42502e-10
3.53985e-11
-3.61628e-10
3.52531e-11
-3.80653e-10
3.50472e-11
-3.99548e-10
3.47903e-11
-4.18283e-10
3.44869e-11
-4.36835e-10
3.41369e-11
-4.55179e-10
3.37455e-11
-4.73298e-10
3.33158e-11
-4.91172e-10
3.28506e-11
-5.08781e-10
3.23568e-11
-5.2611e-10
3.18378e-11
-5.43146e-10
3.12937e-11
-5.59877e-10
3.07273e-11
-5.76289e-10
3.01399e-11
-5.92374e-10
2.95312e-11
-6.08122e-10
2.89043e-11
-6.2352e-10
2.82608e-11
-6.38562e-10
2.76026e-11
-6.5324e-10
2.69308e-11
-6.67546e-10
2.62459e-11
-6.81473e-10
2.55463e-11
-6.95016e-10
2.48313e-11
-7.08164e-10
2.41035e-11
-7.20911e-10
2.33652e-11
-7.33254e-10
2.26173e-11
-7.45187e-10
2.18612e-11
-7.56702e-10
2.10963e-11
-7.67791e-10
2.03193e-11
-7.78451e-10
1.95283e-11
-7.88676e-10
1.87259e-11
-7.98461e-10
1.79157e-11
-8.07804e-10
1.70999e-11
-8.16699e-10
1.62784e-11
-8.25139e-10
1.54493e-11
-8.33119e-10
1.46098e-11
-8.40639e-10
1.37599e-11
-8.47694e-10
1.29044e-11
-8.54282e-10
1.20469e-11
-8.60398e-10
1.11861e-11
-8.66038e-10
1.03195e-11
-8.71201e-10
9.44617e-12
-8.75885e-10
8.5656e-12
-8.80085e-10
7.67882e-12
-8.83799e-10
6.78844e-12
-8.87026e-10
5.89647e-12
-8.89763e-10
5.00241e-12
-8.92008e-10
4.10459e-12
-8.9376e-10
3.20293e-12
-8.95018e-10
2.29948e-12
-8.95781e-10
1.39571e-12
-8.96048e-10
4.91438e-13
-8.95819e-10
-4.13277e-13
-8.95095e-10
-1.31738e-12
-8.93876e-10
-2.2205e-12
-8.92162e-10
-3.123e-12
-8.89956e-10
-4.02367e-12
-8.87259e-10
-4.92037e-12
-8.84071e-10
-5.81284e-12
-8.80395e-10
-6.70282e-12
-8.76233e-10
-7.59111e-12
-8.71587e-10
-8.47619e-12
-8.6646e-10
-9.35586e-12
-8.60852e-10
-1.02297e-11
-8.54767e-10
-1.10991e-11
-8.48208e-10
-1.1964e-11
-8.4118e-10
-1.28226e-11
-8.33686e-10
-1.36735e-11
-8.25729e-10
-1.45169e-11
-8.17313e-10
-1.5353e-11
-8.08444e-10
-1.61809e-11
-7.99126e-10
-1.70001e-11
-7.89363e-10
-1.7811e-11
-7.7916e-10
-1.86137e-11
-7.68524e-10
-1.94077e-11
-7.57459e-10
-2.01913e-11
-7.45971e-10
-2.09636e-11
-7.34066e-10
-2.17253e-11
-7.2175e-10
-2.24776e-11
-7.0903e-10
-2.32198e-11
-6.9591e-10
-2.39503e-11
-6.82398e-10
-2.46682e-11
-6.68499e-10
-2.53733e-11
-6.54224e-10
-2.6065e-11
-6.3958e-10
-2.67418e-11
-6.24574e-10
-2.74027e-11
-6.09215e-10
-2.80482e-11
-5.93511e-10
-2.86786e-11
-5.77474e-10
-2.92921e-11
-5.61115e-10
-2.98861e-11
-5.44444e-10
-3.04586e-11
-5.27472e-10
-3.10092e-11
-5.10213e-10
-3.15375e-11
-4.92681e-10
-3.20411e-11
-4.74891e-10
-3.2516e-11
-4.56862e-10
-3.29591e-11
-4.38611e-10
-3.33689e-11
-4.20158e-10
-3.3743e-11
-4.01527e-10
-3.40772e-11
-3.82743e-10
-3.43662e-11
-3.63832e-10
-3.46044e-11
-3.44824e-10
-3.47871e-11
-3.25751e-10
-3.49095e-11
-3.06651e-10
-3.49657e-11
-2.87563e-10
-3.49492e-11
-2.68531e-10
-3.48534e-11
-2.496e-10
-3.46711e-11
-2.30823e-10
-3.43941e-11
-2.12257e-10
-3.40135e-11
-1.93962e-10
-3.352e-11
-1.76001e-10
-3.29052e-11
-1.58444e-10
-3.21616e-11
-1.41365e-10
-3.12811e-11
-1.24843e-10
-3.02545e-11
-1.08962e-10
-2.90726e-11
-9.38054e-11
-2.77282e-11
-7.9461e-11
-2.62164e-11
-6.60184e-11
-2.4534e-11
-5.35677e-11
-2.26788e-11
-4.21973e-11
-2.06511e-11
-3.19914e-11
-1.84559e-11
-2.30275e-11
-1.61057e-11
-1.53728e-11
-1.36206e-11
-9.07783e-12
-1.10302e-11
-4.16834e-12
-8.37764e-12
-6.36202e-13
-5.7255e-12
1.57272e-12
-3.1643e-12
2.57305e-12
-8.20928e-13
2.55746e-12
1.13368e-12
1.81176e-12
2.48119e-12
7.38345e-13
2.91378e-12
1.76046e-12
-2.0978e-12
5.77816e-12
-4.47851e-12
2.91361e-13
-5.88893e-12
-7.01862e-12
-6.91288e-12
-7.18137e-12
-8.40185e-12
-3.41074e-12
-1.10995e-11
1.84642e-12
-1.54149e-11
7.49608e-12
-2.15846e-11
1.30978e-11
-2.96913e-11
1.84543e-11
-3.97233e-11
2.34931e-11
-5.16151e-11
2.81859e-11
-6.52623e-11
3.25236e-11
-8.05534e-11
3.65091e-11
-9.73588e-11
4.01456e-11
-1.15549e-10
4.34402e-11
-1.34996e-10
4.64075e-11
-1.55565e-10
4.90559e-11
-1.77141e-10
5.14019e-11
-1.99599e-10
5.34558e-11
-2.22827e-10
5.52337e-11
-2.46718e-10
5.67543e-11
-2.71165e-10
5.8034e-11
-2.96076e-10
5.90888e-11
-3.21364e-10
5.99348e-11
-3.46943e-10
6.05817e-11
-3.72738e-10
6.10473e-11
-3.98679e-10
6.13505e-11
-4.24697e-10
6.15022e-11
-4.50738e-10
6.15174e-11
-4.76746e-10
6.14077e-11
-5.0267e-10
6.11791e-11
-5.28467e-10
6.08444e-11
-5.54092e-10
6.04169e-11
-5.79508e-10
5.99028e-11
-6.04681e-10
5.93102e-11
-6.29583e-10
5.86472e-11
-6.54184e-10
5.79175e-11
-6.7846e-10
5.71262e-11
-7.02385e-10
5.62822e-11
-7.25937e-10
5.53893e-11
-7.49096e-10
5.44508e-11
-7.71842e-10
5.34726e-11
-7.94159e-10
5.24572e-11
-8.16035e-10
5.14062e-11
-8.37454e-10
5.03238e-11
-8.58405e-10
4.92124e-11
-8.78875e-10
4.8072e-11
-8.9885e-10
4.69059e-11
-9.1832e-10
4.57163e-11
-9.37275e-10
4.45026e-11
-9.55708e-10
4.32651e-11
-9.73609e-10
4.20054e-11
-9.90968e-10
4.07239e-11
-1.00777e-09
3.94226e-11
-1.02402e-09
3.81042e-11
-1.03969e-09
3.67688e-11
-1.05478e-09
3.54149e-11
-1.0693e-09
3.40425e-11
-1.08322e-09
3.26512e-11
-1.09655e-09
3.12419e-11
-1.10927e-09
2.98185e-11
-1.12137e-09
2.83839e-11
-1.13286e-09
2.69372e-11
-1.14373e-09
2.54763e-11
-1.15397e-09
2.40011e-11
-1.16358e-09
2.25136e-11
-1.17255e-09
2.10156e-11
-1.18087e-09
1.95081e-11
-1.18854e-09
1.79924e-11
-1.19556e-09
1.64686e-11
-1.20193e-09
1.49349e-11
-1.20764e-09
1.33911e-11
-1.21269e-09
1.18396e-11
-1.21708e-09
1.02825e-11
-1.2208e-09
8.71996e-12
-1.22385e-09
7.15181e-12
-1.22622e-09
5.57924e-12
-1.22793e-09
4.0039e-12
-1.22896e-09
2.42641e-12
-1.22931e-09
8.46931e-13
-1.22899e-09
-7.33072e-13
-1.228e-09
-2.31151e-12
-1.22633e-09
-3.88791e-12
-1.22399e-09
-5.46295e-12
-1.22098e-09
-7.03547e-12
-1.2173e-09
-8.6028e-12
-1.21295e-09
-1.0164e-11
-1.20793e-09
-1.17202e-11
-1.20225e-09
-1.32713e-11
-1.19591e-09
-1.48156e-11
-1.18891e-09
-1.63518e-11
-1.18126e-09
-1.78798e-11
-1.17296e-09
-1.93995e-11
-1.16402e-09
-2.09097e-11
-1.15443e-09
-2.24081e-11
-1.14421e-09
-2.38945e-11
-1.13336e-09
-2.5369e-11
-1.12188e-09
-2.68307e-11
-1.10979e-09
-2.82776e-11
-1.09708e-09
-2.97091e-11
-1.08376e-09
-3.11259e-11
-1.06985e-09
-3.25278e-11
-1.05534e-09
-3.39133e-11
-1.04025e-09
-3.52811e-11
-1.02458e-09
-3.66311e-11
-1.00835e-09
-3.79633e-11
-9.91546e-10
-3.9277e-11
-9.74195e-10
-4.05705e-11
-9.56303e-10
-4.1843e-11
-9.37877e-10
-4.30946e-11
-9.18927e-10
-4.43245e-11
-8.99462e-10
-4.55303e-11
-8.79494e-10
-4.67099e-11
-8.59034e-10
-4.78621e-11
-8.38095e-10
-4.89869e-11
-8.1669e-10
-5.00833e-11
-7.94833e-10
-5.11488e-11
-7.72538e-10
-5.21807e-11
-7.4982e-10
-5.31766e-11
-7.26694e-10
-5.41342e-11
-7.03182e-10
-5.50505e-11
-6.79301e-10
-5.59212e-11
-6.55075e-10
-5.67421e-11
-6.30525e-10
-5.75089e-11
-6.05676e-10
-5.82172e-11
-5.80558e-10
-5.8861e-11
-5.55203e-10
-5.9433e-11
-5.29644e-10
-5.99255e-11
-5.03917e-10
-6.03308e-11
-4.78062e-10
-6.06409e-11
-4.52125e-10
-6.08462e-11
-4.26155e-10
-6.09359e-11
-4.00206e-10
-6.08988e-11
-3.74336e-10
-6.07238e-11
-3.48607e-10
-6.03988e-11
-3.2309e-10
-5.99105e-11
-2.97859e-10
-5.92441e-11
-2.72993e-10
-5.8385e-11
-2.48579e-10
-5.73191e-11
-2.24708e-10
-5.60324e-11
-2.01478e-10
-5.45111e-11
-1.78991e-10
-5.27409e-11
-1.57354e-10
-5.0709e-11
-1.36676e-10
-4.84051e-11
-1.17071e-10
-4.58213e-11
-9.86534e-11
-4.29522e-11
-8.15374e-11
-3.97959e-11
-6.58328e-11
-3.63561e-11
-5.16436e-11
-3.26445e-11
-3.90643e-11
-2.86841e-11
-2.81743e-11
-2.45101e-11
-1.90308e-11
-2.0174e-11
-1.16602e-11
-1.57488e-11
-6.04835e-12
-1.13379e-11
-2.12879e-12
-7.08383e-12
2.30061e-13
-3.17932e-12
1.24126e-12
1.22742e-13
1.21361e-12
2.50889e-12
5.74544e-13
3.55278e-12
2.33505e-12
-1.14847e-12
6.92675e-12
-3.6099e-12
2.75485e-12
-6.48957e-12
-4.14016e-12
-9.71153e-12
-3.95937e-12
-1.37424e-11
6.20889e-13
-1.91062e-11
7.20984e-12
-2.62128e-11
1.4603e-11
-3.5312e-11
2.21961e-11
-4.65307e-11
2.9673e-11
-5.98979e-11
3.686e-11
-7.53763e-11
4.36642e-11
-9.28844e-11
5.00313e-11
-1.12308e-10
5.59326e-11
-1.3352e-10
6.13568e-11
-1.56382e-10
6.63017e-11
-1.80745e-10
7.07704e-11
-2.06467e-10
7.47781e-11
-2.33404e-10
7.83386e-11
-2.61417e-10
8.14684e-11
-2.90373e-10
8.41894e-11
-3.20142e-10
8.65237e-11
-3.506e-10
8.84915e-11
-3.81633e-10
9.01214e-11
-4.13132e-10
9.14334e-11
-4.44999e-10
9.24482e-11
-4.77142e-10
9.31899e-11
-5.09469e-10
9.36779e-11
-5.41901e-10
9.39339e-11
-5.74366e-10
9.39809e-11
-6.06793e-10
9.38344e-11
-6.39125e-10
9.35105e-11
-6.71306e-10
9.3025e-11
-7.0328e-10
9.23913e-11
-7.35001e-10
9.16235e-11
-7.66425e-10
9.07347e-11
-7.97513e-10
8.9735e-11
-8.2823e-10
8.86345e-11
-8.58545e-10
8.74418e-11
-8.88428e-10
8.61657e-11
-9.17852e-10
8.4813e-11
-9.46791e-10
8.33899e-11
-9.75221e-10
8.19033e-11
-1.00312e-09
8.0357e-11
-1.03047e-09
7.87564e-11
-1.05725e-09
7.71064e-11
-1.08345e-09
7.54106e-11
-1.10905e-09
7.36707e-11
-1.13403e-09
7.18896e-11
-1.15839e-09
7.00693e-11
-1.1821e-09
6.82117e-11
-1.20515e-09
6.63196e-11
-1.22754e-09
6.43939e-11
-1.24925e-09
6.2435e-11
-1.27027e-09
6.0445e-11
-1.29059e-09
5.8425e-11
-1.3102e-09
5.63752e-11
-1.32908e-09
5.42979e-11
-1.34723e-09
5.2195e-11
-1.36465e-09
5.00659e-11
-1.38132e-09
4.79099e-11
-1.39723e-09
4.57299e-11
-1.41237e-09
4.35281e-11
-1.42674e-09
4.13054e-11
-1.44033e-09
3.90636e-11
-1.45313e-09
3.68039e-11
-1.46514e-09
3.4526e-11
-1.47636e-09
3.22295e-11
-1.48677e-09
2.99162e-11
-1.49636e-09
2.75883e-11
-1.50514e-09
2.52471e-11
-1.5131e-09
2.28927e-11
-1.52023e-09
2.05256e-11
-1.52654e-09
1.81473e-11
-1.53202e-09
1.57589e-11
-1.53666e-09
1.3361e-11
-1.54046e-09
1.0955e-11
-1.54343e-09
8.54328e-12
-1.54555e-09
6.12708e-12
-1.54683e-09
3.70717e-12
-1.54727e-09
1.28461e-12
-1.54686e-09
-1.13871e-12
-1.54561e-09
-3.56083e-12
-1.54352e-09
-5.98055e-12
-1.54059e-09
-8.3971e-12
-1.53681e-09
-1.0809e-11
-1.5322e-09
-1.32144e-11
-1.52675e-09
-1.56125e-11
-1.52047e-09
-1.80029e-11
-1.51336e-09
-2.0384e-11
-1.50542e-09
-2.27539e-11
-1.49666e-09
-2.51118e-11
-1.48708e-09
-2.74576e-11
-1.47669e-09
-2.979e-11
-1.46549e-09
-3.21068e-11
-1.4535e-09
-3.44064e-11
-1.4407e-09
-3.66881e-11
-1.42712e-09
-3.89517e-11
-1.41275e-09
-4.11951e-11
-1.39761e-09
-4.34165e-11
-1.38171e-09
-4.56154e-11
-1.36504e-09
-4.77919e-11
-1.34762e-09
-4.99444e-11
-1.32947e-09
-5.20707e-11
-1.31058e-09
-5.41699e-11
-1.29097e-09
-5.62424e-11
-1.27064e-09
-5.82876e-11
-1.24962e-09
-6.03035e-11
-1.2279e-09
-6.22876e-11
-1.20551e-09
-6.4239e-11
-1.18244e-09
-6.61575e-11
-1.15872e-09
-6.80416e-11
-1.13437e-09
-6.98886e-11
-1.10938e-09
-7.16961e-11
-1.08378e-09
-7.34628e-11
-1.05758e-09
-7.51868e-11
-1.0308e-09
-7.68651e-11
-1.00345e-09
-7.84942e-11
-9.75563e-10
-8.00711e-11
-9.47146e-10
-8.15931e-11
-9.18223e-10
-8.30562e-11
-8.88818e-10
-8.44543e-11
-8.58958e-10
-8.57812e-11
-8.28669e-10
-8.70311e-11
-7.9798e-10
-8.81979e-11
-7.66923e-10
-8.92741e-11
-7.35534e-10
-9.02502e-11
-7.03851e-10
-9.11152e-11
-6.71919e-10
-9.18582e-11
-6.39782e-10
-9.24679e-11
-6.07491e-10
-9.29317e-11
-5.75102e-10
-9.3235e-11
-5.42676e-10
-9.33619e-11
-5.10278e-10
-9.3296e-11
-4.77982e-10
-9.30203e-11
-4.45864e-10
-9.25162e-11
-4.1401e-10
-9.17636e-11
-3.82512e-10
-9.07417e-11
-3.51466e-10
-8.94301e-11
-3.20977e-10
-8.78079e-11
-2.91155e-10
-8.58542e-11
-2.62118e-10
-8.35481e-11
-2.33989e-10
-8.08701e-11
-2.06894e-10
-7.7803e-11
-1.80965e-10
-7.43332e-11
-1.56336e-10
-7.04503e-11
-1.3314e-10
-6.61475e-11
-1.11512e-10
-6.14242e-11
-9.15794e-11
-5.62893e-11
-7.34606e-11
-5.07636e-11
-5.7262e-11
-4.48825e-11
-4.30723e-11
-3.86995e-11
-3.0955e-11
-3.22911e-11
-2.09392e-11
-2.57645e-11
-1.30109e-11
-1.92664e-11
-7.10149e-12
-1.29936e-11
-3.07632e-12
-7.20439e-12
-7.22456e-13
-2.23092e-12
2.64438e-13
1.5221e-12
2.97858e-13
3.5193e-12
2.63291e-12
-6.10166e-13
7.53438e-12
-3.10932e-12
5.25354e-12
-7.10852e-12
-1.41227e-13
-1.22591e-11
1.19063e-12
-1.8735e-11
7.09588e-12
-2.68485e-11
1.53222e-11
-3.69089e-11
2.46637e-11
-4.91406e-11
3.44275e-11
-6.36673e-11
4.41988e-11
-8.05315e-11
5.37237e-11
-9.97093e-11
6.28418e-11
-1.21128e-10
7.14491e-11
-1.44679e-10
7.94838e-11
-1.70236e-10
8.69126e-11
-1.97651e-10
9.3717e-11
-2.26775e-10
9.98943e-11
-2.57449e-10
1.05451e-10
-2.89514e-10
1.10404e-10
-3.22818e-10
1.14772e-10
-3.57211e-10
1.18582e-10
-3.92545e-10
1.21858e-10
-4.28686e-10
1.24632e-10
-4.65496e-10
1.26932e-10
-5.02853e-10
1.2879e-10
-5.40643e-10
1.30238e-10
-5.78755e-10
1.31303e-10
-6.17091e-10
1.32014e-10
-6.55557e-10
1.32401e-10
-6.94064e-10
1.32488e-10
-7.32532e-10
1.32302e-10
-7.70891e-10
1.31869e-10
-8.09072e-10
1.31207e-10
-8.47016e-10
1.30335e-10
-8.84667e-10
1.29275e-10
-9.21974e-10
1.28041e-10
-9.58888e-10
1.26648e-10
-9.95367e-10
1.25113e-10
-1.03137e-09
1.23447e-10
-1.06687e-09
1.21661e-10
-1.10182e-09
1.19766e-10
-1.1362e-09
1.17772e-10
-1.16999e-09
1.15686e-10
-1.20314e-09
1.13515e-10
-1.23565e-09
1.11265e-10
-1.26749e-09
1.08943e-10
-1.29863e-09
1.06555e-10
-1.32907e-09
1.04104e-10
-1.35877e-09
1.01594e-10
-1.38773e-09
9.90271e-11
-1.41592e-09
9.64067e-11
-1.44334e-09
9.37352e-11
-1.46996e-09
9.10151e-11
-1.49578e-09
8.82495e-11
-1.52077e-09
8.54401e-11
-1.54493e-09
8.2587e-11
-1.56825e-09
7.96914e-11
-1.5907e-09
7.67552e-11
-1.61229e-09
7.37809e-11
-1.63299e-09
7.07705e-11
-1.65281e-09
6.77254e-11
-1.67173e-09
6.4647e-11
-1.68973e-09
6.15356e-11
-1.70682e-09
5.83925e-11
-1.72298e-09
5.52212e-11
-1.7382e-09
5.20243e-11
-1.75248e-09
4.88021e-11
-1.7658e-09
4.55553e-11
-1.77817e-09
4.22857e-11
-1.78958e-09
3.8994e-11
-1.80001e-09
3.56814e-11
-1.80947e-09
3.23501e-11
-1.81794e-09
2.90023e-11
-1.82544e-09
2.56393e-11
-1.83194e-09
2.22618e-11
-1.83745e-09
1.88713e-11
-1.84197e-09
1.54703e-11
-1.84548e-09
1.20608e-11
-1.848e-09
8.64419e-12
-1.84952e-09
5.2224e-12
-1.85003e-09
1.79809e-12
-1.84954e-09
-1.62695e-12
-1.84805e-09
-5.05177e-12
-1.84556e-09
-8.47445e-12
-1.84206e-09
-1.1892e-11
-1.83757e-09
-1.53022e-11
-1.83208e-09
-1.87039e-11
-1.8256e-09
-2.20964e-11
-1.81812e-09
-2.54777e-11
-1.80966e-09
-2.88453e-11
-1.80022e-09
-3.21974e-11
-1.7898e-09
-3.55333e-11
-1.7784e-09
-3.88515e-11
-1.76604e-09
-4.21497e-11
-1.75272e-09
-4.54257e-11
-1.73845e-09
-4.86787e-11
-1.72323e-09
-5.19071e-11
-1.70707e-09
-5.51088e-11
-1.68999e-09
-5.82815e-11
-1.67198e-09
-6.14239e-11
-1.65306e-09
-6.45354e-11
-1.63324e-09
-6.76149e-11
-1.61252e-09
-7.066e-11
-1.59092e-09
-7.36681e-11
-1.56845e-09
-7.66383e-11
-1.54513e-09
-7.95702e-11
-1.52095e-09
-8.24621e-11
-1.49595e-09
-8.53117e-11
-1.47012e-09
-8.81169e-11
-1.44348e-09
-9.08763e-11
-1.41605e-09
-9.35883e-11
-1.38784e-09
-9.62497e-11
-1.35887e-09
-9.88577e-11
-1.32916e-09
-1.0141e-10
-1.29871e-09
-1.03905e-10
-1.26756e-09
-1.0634e-10
-1.23572e-09
-1.08708e-10
-1.20321e-09
-1.11006e-10
-1.17005e-09
-1.13229e-10
-1.13627e-09
-1.15374e-10
-1.10189e-09
-1.17434e-10
-1.06694e-09
-1.19401e-10
-1.03146e-09
-1.21267e-10
-9.95464e-10
-1.23023e-10
-9.59002e-10
-1.24661e-10
-9.22107e-10
-1.26169e-10
-8.84822e-10
-1.27534e-10
-8.47194e-10
-1.28743e-10
-8.09273e-10
-1.29779e-10
-7.71113e-10
-1.30628e-10
-7.32775e-10
-1.3127e-10
-6.94325e-10
-1.31685e-10
-6.55834e-10
-1.31853e-10
-6.17379e-10
-1.3175e-10
-5.79045e-10
-1.31353e-10
-5.40924e-10
-1.30637e-10
-5.03113e-10
-1.29574e-10
-4.6572e-10
-1.28135e-10
-4.28857e-10
-1.26293e-10
-3.92644e-10
-1.24021e-10
-3.57207e-10
-1.2129e-10
-3.22682e-10
-1.18073e-10
-2.89208e-10
-1.14343e-10
-2.56931e-10
-1.1008e-10
-2.25999e-10
-1.05266e-10
-1.96562e-10
-9.98877e-11
-1.6877e-10
-9.39384e-11
-1.42773e-10
-8.74206e-11
-1.18712e-10
-8.03497e-11
-9.67196e-11
-7.27567e-11
-7.69111e-11
-6.46915e-11
-5.93837e-11
-5.62273e-11
-4.42072e-11
-4.74677e-11
-3.14166e-11
-3.85548e-11
-2.10038e-11
-2.9679e-11
-1.29073e-11
-2.10902e-11
-7.00225e-12
-1.31096e-11
-3.09123e-12
-6.14194e-12
-8.95119e-13
-6.73942e-13
-4.16033e-14
2.66578e-12
2.5913e-12
-4.39899e-13
7.97564e-12
-3.17577e-12
7.98856e-12
-8.20574e-12
4.88923e-12
-1.51246e-11
8.10977e-12
-2.39005e-11
1.58718e-11
-3.4704e-11
2.61257e-11
-4.77314e-11
3.76915e-11
-6.31447e-11
4.98404e-11
-8.10414e-11
6.20954e-11
-1.01453e-10
7.41348e-11
-1.24353e-10
8.57414e-11
-1.49671e-10
9.6768e-11
-1.77304e-10
1.07116e-10
-2.07115e-10
1.16724e-10
-2.3896e-10
1.25562e-10
-2.72679e-10
1.33612e-10
-3.08104e-10
1.40877e-10
-3.45072e-10
1.47371e-10
-3.83413e-10
1.53113e-10
-4.22963e-10
1.58132e-10
-4.63568e-10
1.62462e-10
-5.05073e-10
1.66137e-10
-5.47332e-10
1.69191e-10
-5.90209e-10
1.71667e-10
-6.33572e-10
1.73601e-10
-6.77301e-10
1.75031e-10
-7.21284e-10
1.75997e-10
-7.65415e-10
1.76532e-10
-8.09597e-10
1.7667e-10
-8.53739e-10
1.76445e-10
-8.97759e-10
1.75889e-10
-9.41579e-10
1.75027e-10
-9.85131e-10
1.73887e-10
-1.02835e-09
1.72494e-10
-1.07118e-09
1.7087e-10
-1.11356e-09
1.69033e-10
-1.15545e-09
1.67005e-10
-1.19681e-09
1.648e-10
-1.23758e-09
1.62433e-10
-1.27773e-09
1.59921e-10
-1.31724e-09
1.57274e-10
-1.35605e-09
1.54501e-10
-1.39415e-09
1.51616e-10
-1.43151e-09
1.48625e-10
-1.4681e-09
1.45534e-10
-1.5039e-09
1.42352e-10
-1.53888e-09
1.39086e-10
-1.57302e-09
1.35738e-10
-1.60631e-09
1.32315e-10
-1.63872e-09
1.2882e-10
-1.67024e-09
1.25254e-10
-1.70085e-09
1.21623e-10
-1.73053e-09
1.17929e-10
-1.75926e-09
1.14175e-10
-1.78704e-09
1.10363e-10
-1.81385e-09
1.06496e-10
-1.83966e-09
1.02575e-10
-1.86448e-09
9.85998e-11
-1.88829e-09
9.45757e-11
-1.91107e-09
9.05056e-11
-1.93281e-09
8.63912e-11
-1.95351e-09
8.22336e-11
-1.97315e-09
7.80347e-11
-1.99173e-09
7.37969e-11
-2.00923e-09
6.95222e-11
-2.02564e-09
6.52127e-11
-2.04095e-09
6.08712e-11
-2.05517e-09
5.65002e-11
-2.06827e-09
5.20999e-11
-2.08026e-09
4.76714e-11
-2.09113e-09
4.32181e-11
-2.10087e-09
3.87425e-11
-2.10948e-09
3.42463e-11
-2.11695e-09
2.97311e-11
-2.12328e-09
2.51997e-11
-2.12846e-09
2.06549e-11
-2.1325e-09
1.60984e-11
-2.13539e-09
1.15321e-11
-2.13712e-09
6.95889e-12
-2.13771e-09
2.3827e-12
-2.13714e-09
-2.19443e-12
-2.13542e-09
-6.77148e-12
-2.13255e-09
-1.13459e-11
-2.12853e-09
-1.59139e-11
-2.12336e-09
-2.04724e-11
-2.11704e-09
-2.50202e-11
-2.10958e-09
-2.95554e-11
-2.10099e-09
-3.40751e-11
-2.09126e-09
-3.85765e-11
-2.08039e-09
-4.30581e-11
-2.06841e-09
-4.75182e-11
-2.05531e-09
-5.19541e-11
-2.04109e-09
-5.63626e-11
-2.02578e-09
-6.07418e-11
-2.00937e-09
-6.50908e-11
-1.99187e-09
-6.94073e-11
-1.97329e-09
-7.36877e-11
-1.95364e-09
-7.79295e-11
-1.93293e-09
-8.21314e-11
-1.91117e-09
-8.62922e-11
-1.88838e-09
-9.04091e-11
-1.86456e-09
-9.44796e-11
-1.83973e-09
-9.85015e-11
-1.81389e-09
-1.02474e-10
-1.78707e-09
-1.06394e-10
-1.75927e-09
-1.10259e-10
-1.73052e-09
-1.14066e-10
-1.70082e-09
-1.17815e-10
-1.67019e-09
-1.21502e-10
-1.63866e-09
-1.25126e-10
-1.60622e-09
-1.2868e-10
-1.57292e-09
-1.32163e-10
-1.53876e-09
-1.35572e-10
-1.50376e-09
-1.38903e-10
-1.46795e-09
-1.4215e-10
-1.43135e-09
-1.45309e-10
-1.39398e-09
-1.48374e-10
-1.35587e-09
-1.51338e-10
-1.31705e-09
-1.54196e-10
-1.27754e-09
-1.56938e-10
-1.23739e-09
-1.59555e-10
-1.19662e-09
-1.62036e-10
-1.15527e-09
-1.64371e-10
-1.11339e-09
-1.66546e-10
-1.07101e-09
-1.68545e-10
-1.02819e-09
-1.70353e-10
-9.84981e-10
-1.71952e-10
-9.41438e-10
-1.73322e-10
-8.97625e-10
-1.7444e-10
-8.53611e-10
-1.75284e-10
-8.09472e-10
-1.75825e-10
-7.65287e-10
-1.76037e-10
-7.21145e-10
-1.75891e-10
-6.77142e-10
-1.75356e-10
-6.3338e-10
-1.74398e-10
-5.89971e-10
-1.72982e-10
-5.47033e-10
-1.71073e-10
-5.04692e-10
-1.68634e-10
-4.63082e-10
-1.65631e-10
-4.22345e-10
-1.62026e-10
-3.8263e-10
-1.57787e-10
-3.44091e-10
-1.52882e-10
-3.06887e-10
-1.47283e-10
-2.71182e-10
-1.40971e-10
-2.37141e-10
-1.3393e-10
-2.04926e-10
-1.26153e-10
-1.747e-10
-1.17647e-10
-1.46614e-10
-1.08435e-10
-1.20811e-10
-9.85589e-11
-9.7419e-11
-8.80838e-11
-7.65432e-11
-7.71037e-11
-5.82617e-11
-6.57496e-11
-4.26182e-11
-5.41982e-11
-2.96152e-11
-4.26818e-11
-1.92059e-11
-3.14996e-11
-1.12854e-11
-2.10303e-11
-5.68434e-12
-1.17431e-11
-2.16373e-12
-4.19451e-12
-4.09739e-13
9.11839e-13
2.18154e-12
-5.06891e-13
8.48324e-12
-3.69532e-12
1.11761e-11
-9.77348e-12
1.09674e-11
-1.83587e-11
1.66961e-11
-2.93243e-11
2.68366e-11
-4.27218e-11
3.95227e-11
-5.86553e-11
5.36245e-11
-7.7217e-11
6.84024e-11
-9.84632e-11
8.33412e-11
-1.22401e-10
9.8072e-11
-1.4899e-10
1.12331e-10
-1.78155e-10
1.25933e-10
-2.09784e-10
1.38745e-10
-2.43744e-10
1.50684e-10
-2.79879e-10
1.61697e-10
-3.18024e-10
1.71758e-10
-3.58009e-10
1.80862e-10
-3.99656e-10
1.89018e-10
-4.4279e-10
1.96248e-10
-4.87238e-10
2.0258e-10
-5.32829e-10
2.08053e-10
-5.794e-10
2.12707e-10
-6.26798e-10
2.16588e-10
-6.7487e-10
2.19739e-10
-7.23477e-10
2.22208e-10
-7.72486e-10
2.2404e-10
-8.21773e-10
2.25284e-10
-8.71223e-10
2.25982e-10
-9.2073e-10
2.26177e-10
-9.70194e-10
2.2591e-10
-1.01952e-09
2.25217e-10
-1.06863e-09
2.24136e-10
-1.11745e-09
2.227e-10
-1.16589e-09
2.20937e-10
-1.2139e-09
2.18879e-10
-1.26142e-09
2.16549e-10
-1.30838e-09
2.13971e-10
-1.35475e-09
2.11168e-10
-1.40047e-09
2.08156e-10
-1.44551e-09
2.04955e-10
-1.48981e-09
2.01579e-10
-1.53335e-09
1.98043e-10
-1.5761e-09
1.94358e-10
-1.61801e-09
1.90537e-10
-1.65906e-09
1.86587e-10