/*--------------------------------*- C++ -*----------------------------------*\
  =========                 |
  \\      /  F ield         | OpenFOAM: The Open Source CFD Toolbox
   \\    /   O peration     | Website:  https://openfoam.org
    \\  /    A nd           | Version:  7
     \\/     M anipulation  |
\*---------------------------------------------------------------------------*/
FoamFile
{
    version     2.0;
    format      ascii;
    class       volVectorField;
    location    "0.05";
    object      U;
}
// * * * * * * * * * * * * * * * * * * * * * * * * * * * * * * * * * * * * * //

dimensions      [0 1 -1 0 0 0 0];

internalField   nonuniform List<vector> 
51200
(
(-6.05733e-08 -1.04136e-07 0)
(1.64564e-07 -4.02576e-07 0)
(7.45712e-07 -4.95219e-07 0)
(1.39007e-06 -3.57736e-07 0)
(1.80201e-06 -1.95089e-07 0)
(1.96619e-06 -7.8215e-08 0)
(1.96474e-06 -3.88914e-09 0)
(1.8445e-06 4.46409e-08 0)
(1.63696e-06 7.75048e-08 0)
(1.36061e-06 9.89392e-08 0)
(1.02728e-06 1.16952e-07 0)
(6.43558e-07 1.31593e-07 0)
(2.15255e-07 1.42961e-07 0)
(-2.49214e-07 1.52438e-07 0)
(-7.50054e-07 1.59835e-07 0)
(-1.28093e-06 1.69419e-07 0)
(-1.83947e-06 1.76911e-07 0)
(-2.42337e-06 1.82717e-07 0)
(-3.02607e-06 1.86711e-07 0)
(-3.64794e-06 1.88813e-07 0)
(-4.2845e-06 1.91933e-07 0)
(-4.93354e-06 1.96218e-07 0)
(-5.59494e-06 1.98415e-07 0)
(-6.26306e-06 1.99505e-07 0)
(-6.93672e-06 1.99199e-07 0)
(-7.61572e-06 1.98557e-07 0)
(-8.29532e-06 1.99789e-07 0)
(-8.97623e-06 2.00928e-07 0)
(-9.6575e-06 2.00213e-07 0)
(-1.03348e-05 1.98317e-07 0)
(-1.10091e-05 1.95081e-07 0)
(-1.16796e-05 1.91801e-07 0)
(-1.23433e-05 1.90475e-07 0)
(-1.30014e-05 1.89279e-07 0)
(-1.36533e-05 1.86519e-07 0)
(-1.4296e-05 1.83129e-07 0)
(-1.49303e-05 1.78819e-07 0)
(-1.55562e-05 1.73978e-07 0)
(-1.61718e-05 1.70785e-07 0)
(-1.67771e-05 1.68928e-07 0)
(-1.7373e-05 1.66969e-07 0)
(-1.79579e-05 1.65545e-07 0)
(-1.8531e-05 1.64796e-07 0)
(-1.90936e-05 1.6278e-07 0)
(-1.96444e-05 1.59135e-07 0)
(-2.01818e-05 1.54967e-07 0)
(-2.0707e-05 1.50179e-07 0)
(-2.12204e-05 1.45045e-07 0)
(-2.172e-05 1.40857e-07 0)
(-2.22063e-05 1.37155e-07 0)
(-2.26799e-05 1.32139e-07 0)
(-2.31388e-05 1.26175e-07 0)
(-2.35826e-05 1.20926e-07 0)
(-2.40123e-05 1.16919e-07 0)
(-2.44282e-05 1.14386e-07 0)
(-2.48297e-05 1.13103e-07 0)
(-2.52169e-05 1.10755e-07 0)
(-2.55894e-05 1.05098e-07 0)
(-2.59459e-05 9.76768e-08 0)
(-2.62865e-05 9.21169e-08 0)
(-2.66123e-05 8.92799e-08 0)
(-2.69236e-05 8.7007e-08 0)
(-2.72192e-05 8.32982e-08 0)
(-2.74988e-05 7.74304e-08 0)
(-2.77621e-05 7.00026e-08 0)
(-2.80093e-05 6.32913e-08 0)
(-2.82405e-05 5.94528e-08 0)
(-2.84558e-05 5.78962e-08 0)
(-2.86554e-05 5.57986e-08 0)
(-2.88387e-05 5.12933e-08 0)
(-2.9005e-05 4.51268e-08 0)
(-2.91545e-05 3.89146e-08 0)
(-2.92878e-05 3.32359e-08 0)
(-2.94047e-05 2.81922e-08 0)
(-2.95048e-05 2.41026e-08 0)
(-2.95883e-05 2.06295e-08 0)
(-2.96556e-05 1.66511e-08 0)
(-2.97062e-05 1.17164e-08 0)
(-2.97398e-05 6.67956e-09 0)
(-2.97567e-05 2.29153e-09 0)
(-2.97576e-05 -1.86988e-09 0)
(-2.97421e-05 -6.61011e-09 0)
(-2.97097e-05 -1.18415e-08 0)
(-2.96602e-05 -1.67855e-08 0)
(-2.95944e-05 -2.11687e-08 0)
(-2.95123e-05 -2.54429e-08 0)
(-2.94135e-05 -2.9872e-08 0)
(-2.92981e-05 -3.422e-08 0)
(-2.91664e-05 -3.85159e-08 0)
(-2.90186e-05 -4.31626e-08 0)
(-2.88544e-05 -4.81089e-08 0)
(-2.8674e-05 -5.28326e-08 0)
(-2.84775e-05 -5.71474e-08 0)
(-2.82655e-05 -6.13112e-08 0)
(-2.80377e-05 -6.55078e-08 0)
(-2.7794e-05 -6.96606e-08 0)
(-2.75346e-05 -7.36985e-08 0)
(-2.72599e-05 -7.78521e-08 0)
(-2.697e-05 -8.22942e-08 0)
(-2.6665e-05 -8.6651e-08 0)
(-2.63448e-05 -9.06118e-08 0)
(-2.60097e-05 -9.46119e-08 0)
(-2.56597e-05 -9.91217e-08 0)
(-2.5295e-05 -1.03753e-07 0)
(-2.49158e-05 -1.07756e-07 0)
(-2.45224e-05 -1.11089e-07 0)
(-2.41151e-05 -1.14459e-07 0)
(-2.36939e-05 -1.18443e-07 0)
(-2.32589e-05 -1.22962e-07 0)
(-2.28103e-05 -1.27509e-07 0)
(-2.23483e-05 -1.31579e-07 0)
(-2.18734e-05 -1.34901e-07 0)
(-2.13861e-05 -1.37561e-07 0)
(-2.08864e-05 -1.40096e-07 0)
(-2.03744e-05 -1.43284e-07 0)
(-1.98503e-05 -1.47414e-07 0)
(-1.93144e-05 -1.51784e-07 0)
(-1.87672e-05 -1.55338e-07 0)
(-1.82092e-05 -1.5787e-07 0)
(-1.76406e-05 -1.60224e-07 0)
(-1.70617e-05 -1.63185e-07 0)
(-1.6473e-05 -1.66518e-07 0)
(-1.58749e-05 -1.69377e-07 0)
(-1.52682e-05 -1.71418e-07 0)
(-1.46533e-05 -1.73179e-07 0)
(-1.40307e-05 -1.75366e-07 0)
(-1.34011e-05 -1.77965e-07 0)
(-1.27652e-05 -1.80283e-07 0)
(-1.2124e-05 -1.8182e-07 0)
(-1.14785e-05 -1.82723e-07 0)
(-1.08299e-05 -1.83371e-07 0)
(-1.01792e-05 -1.83856e-07 0)
(-9.52779e-06 -1.83975e-07 0)
(-8.87698e-06 -1.83633e-07 0)
(-8.22832e-06 -1.82998e-07 0)
(-7.58345e-06 -1.82102e-07 0)
(-6.94433e-06 -1.80512e-07 0)
(-6.31317e-06 -1.77753e-07 0)
(-5.6923e-06 -1.7398e-07 0)
(-5.08405e-06 -1.69799e-07 0)
(-4.49088e-06 -1.65409e-07 0)
(-3.91557e-06 -1.60299e-07 0)
(-3.36118e-06 -1.53848e-07 0)
(-2.83096e-06 -1.4603e-07 0)
(-2.32821e-06 -1.37354e-07 0)
(-1.85636e-06 -1.28134e-07 0)
(-1.41917e-06 -1.17917e-07 0)
(-1.02065e-06 -1.05912e-07 0)
(-6.64686e-07 -9.19563e-08 0)
(-3.5485e-07 -7.66119e-08 0)
(-9.45029e-08 -6.04773e-08 0)
(1.13311e-07 -4.37296e-08 0)
(2.66129e-07 -2.6189e-08 0)
(3.62257e-07 -7.80806e-09 0)
(4.01423e-07 1.08365e-08 0)
(3.85777e-07 2.84288e-08 0)
(3.20987e-07 4.30771e-08 0)
(2.18825e-07 5.19572e-08 0)
(1.02644e-07 4.98583e-08 0)
(2.41032e-08 2.38693e-08 0)
(-3.03355e-07 -2.17203e-08 0)
(-2.5483e-07 -6.38136e-07 0)
(2.07402e-07 -1.04364e-06 0)
(8.47545e-07 -8.49902e-07 0)
(1.37607e-06 -4.88083e-07 0)
(1.63121e-06 -1.63259e-07 0)
(1.62142e-06 8.97778e-08 0)
(1.37916e-06 2.87114e-07 0)
(9.26544e-07 4.42505e-07 0)
(2.8639e-07 5.7078e-07 0)
(-5.21475e-07 6.80713e-07 0)
(-1.48056e-06 7.76598e-07 0)
(-2.57296e-06 8.62917e-07 0)
(-3.79048e-06 9.37058e-07 0)
(-5.11513e-06 1.00372e-06 0)
(-6.53899e-06 1.06386e-06 0)
(-8.0521e-06 1.11679e-06 0)
(-9.63903e-06 1.16498e-06 0)
(-1.12955e-05 1.2038e-06 0)
(-1.30088e-05 1.23684e-06 0)
(-1.47715e-05 1.26548e-06 0)
(-1.65786e-05 1.28891e-06 0)
(-1.84184e-05 1.30966e-06 0)
(-2.02859e-05 1.325e-06 0)
(-2.21761e-05 1.33391e-06 0)
(-2.40798e-05 1.34033e-06 0)
(-2.59957e-05 1.34374e-06 0)
(-2.79182e-05 1.34434e-06 0)
(-2.98399e-05 1.34371e-06 0)
(-3.17596e-05 1.3391e-06 0)
(-3.3673e-05 1.33045e-06 0)
(-3.55753e-05 1.32058e-06 0)
(-3.74661e-05 1.30935e-06 0)
(-3.93418e-05 1.29661e-06 0)
(-4.1198e-05 1.28324e-06 0)
(-4.30342e-05 1.26788e-06 0)
(-4.48483e-05 1.24962e-06 0)
(-4.66368e-05 1.23017e-06 0)
(-4.83996e-05 1.21061e-06 0)
(-5.01356e-05 1.1899e-06 0)
(-5.18418e-05 1.16866e-06 0)
(-5.35175e-05 1.14771e-06 0)
(-5.51627e-05 1.12579e-06 0)
(-5.67751e-05 1.10302e-06 0)
(-5.83531e-05 1.08007e-06 0)
(-5.98968e-05 1.05602e-06 0)
(-6.14051e-05 1.03033e-06 0)
(-6.28768e-05 1.0045e-06 0)
(-6.43123e-05 9.78837e-07 0)
(-6.57109e-05 9.5236e-07 0)
(-6.70708e-05 9.25053e-07 0)
(-6.83915e-05 8.97107e-07 0)
(-6.96726e-05 8.68209e-07 0)
(-7.09136e-05 8.38757e-07 0)
(-7.21145e-05 8.10281e-07 0)
(-7.32749e-05 7.83296e-07 0)
(-7.43934e-05 7.56011e-07 0)
(-7.54689e-05 7.2649e-07 0)
(-7.65009e-05 6.94957e-07 0)
(-7.74896e-05 6.63161e-07 0)
(-7.84352e-05 6.32499e-07 0)
(-7.9337e-05 6.03042e-07 0)
(-8.01938e-05 5.73795e-07 0)
(-8.10046e-05 5.43127e-07 0)
(-8.17694e-05 5.10074e-07 0)
(-8.24887e-05 4.76064e-07 0)
(-8.31625e-05 4.43463e-07 0)
(-8.37904e-05 4.12573e-07 0)
(-8.43718e-05 3.81872e-07 0)
(-8.4906e-05 3.50208e-07 0)
(-8.53923e-05 3.17493e-07 0)
(-8.58309e-05 2.84051e-07 0)
(-8.62219e-05 2.50294e-07 0)
(-8.65652e-05 2.16777e-07 0)
(-8.68602e-05 1.83899e-07 0)
(-8.71068e-05 1.51337e-07 0)
(-8.73048e-05 1.18407e-07 0)
(-8.74542e-05 8.5022e-08 0)
(-8.75545e-05 5.16572e-08 0)
(-8.76057e-05 1.85453e-08 0)
(-8.76084e-05 -1.45323e-08 0)
(-8.75622e-05 -4.77517e-08 0)
(-8.74668e-05 -8.11129e-08 0)
(-8.73223e-05 -1.14544e-07 0)
(-8.71296e-05 -1.47886e-07 0)
(-8.68889e-05 -1.80937e-07 0)
(-8.65999e-05 -2.13654e-07 0)
(-8.62626e-05 -2.46208e-07 0)
(-8.58774e-05 -2.78775e-07 0)
(-8.54447e-05 -3.11362e-07 0)
(-8.49646e-05 -3.43762e-07 0)
(-8.44367e-05 -3.75834e-07 0)
(-8.38617e-05 -4.07765e-07 0)
(-8.32401e-05 -4.39712e-07 0)
(-8.25723e-05 -4.7136e-07 0)
(-8.18582e-05 -5.02413e-07 0)
(-8.10981e-05 -5.33088e-07 0)
(-8.02928e-05 -5.63744e-07 0)
(-7.94428e-05 -5.94426e-07 0)
(-7.85485e-05 -6.24762e-07 0)
(-7.76099e-05 -6.54423e-07 0)
(-7.66277e-05 -6.8374e-07 0)
(-7.56026e-05 -7.13228e-07 0)
(-7.45351e-05 -7.42658e-07 0)
(-7.34258e-05 -7.7138e-07 0)
(-7.2275e-05 -7.99285e-07 0)
(-7.10837e-05 -8.26816e-07 0)
(-6.98523e-05 -8.54248e-07 0)
(-6.85812e-05 -8.81436e-07 0)
(-6.72705e-05 -9.08246e-07 0)
(-6.59213e-05 -9.34725e-07 0)
(-6.45347e-05 -9.60694e-07 0)
(-6.31116e-05 -9.85638e-07 0)
(-6.16523e-05 -1.00938e-06 0)
(-6.01571e-05 -1.03255e-06 0)
(-5.86271e-05 -1.05599e-06 0)
(-5.70637e-05 -1.07959e-06 0)
(-5.54682e-05 -1.10238e-06 0)
(-5.38413e-05 -1.12361e-06 0)
(-5.21837e-05 -1.14367e-06 0)
(-5.04966e-05 -1.1634e-06 0)
(-4.87816e-05 -1.18281e-06 0)
(-4.704e-05 -1.20106e-06 0)
(-4.52735e-05 -1.2176e-06 0)
(-4.34836e-05 -1.23274e-06 0)
(-4.16724e-05 -1.24702e-06 0)
(-3.98423e-05 -1.2604e-06 0)
(-3.79952e-05 -1.27215e-06 0)
(-3.61336e-05 -1.28155e-06 0)
(-3.42603e-05 -1.28853e-06 0)
(-3.23785e-05 -1.29337e-06 0)
(-3.04916e-05 -1.29598e-06 0)
(-2.86035e-05 -1.29588e-06 0)
(-2.6718e-05 -1.29266e-06 0)
(-2.48398e-05 -1.28627e-06 0)
(-2.29739e-05 -1.27664e-06 0)
(-2.11259e-05 -1.26319e-06 0)
(-1.93014e-05 -1.24508e-06 0)
(-1.75066e-05 -1.22181e-06 0)
(-1.57482e-05 -1.19355e-06 0)
(-1.40335e-05 -1.16048e-06 0)
(-1.23707e-05 -1.12212e-06 0)
(-1.07681e-05 -1.07754e-06 0)
(-9.23446e-06 -1.02614e-06 0)
(-7.77866e-06 -9.6797e-07 0)
(-6.41021e-06 -9.03225e-07 0)
(-5.13881e-06 -8.3155e-07 0)
(-3.97396e-06 -7.52174e-07 0)
(-2.92485e-06 -6.64801e-07 0)
(-2.00042e-06 -5.70181e-07 0)
(-1.20921e-06 -4.69626e-07 0)
(-5.58691e-07 -3.64415e-07 0)
(-5.43679e-08 -2.55841e-07 0)
(3.0137e-07 -1.45827e-07 0)
(5.10747e-07 -3.79648e-08 0)
(5.82328e-07 6.16836e-08 0)
(5.32633e-07 1.44084e-07 0)
(3.90062e-07 1.9648e-07 0)
(2.01532e-07 1.97981e-07 0)
(5.27884e-08 1.03341e-07 0)
(-3.93904e-07 3.37888e-07 0)
(-6.54757e-07 -5.38043e-07 0)
(-6.87529e-07 -1.39673e-06 0)
(-4.60304e-07 -1.29299e-06 0)
(-2.19315e-07 -7.90996e-07 0)
(-1.63054e-07 -2.39603e-07 0)
(-3.51355e-07 2.74876e-07 0)
(-8.13911e-07 7.27698e-07 0)
(-1.54964e-06 1.12535e-06 0)
(-2.54839e-06 1.47798e-06 0)
(-3.79878e-06 1.79125e-06 0)
(-5.28016e-06 2.07634e-06 0)
(-6.97757e-06 2.33053e-06 0)
(-8.86886e-06 2.55981e-06 0)
(-1.09377e-05 2.76598e-06 0)
(-1.31685e-05 2.94679e-06 0)
(-1.5541e-05 3.11207e-06 0)
(-1.80434e-05 3.25431e-06 0)
(-2.06568e-05 3.37926e-06 0)
(-2.33664e-05 3.4869e-06 0)
(-2.61623e-05 3.57593e-06 0)
(-2.90282e-05 3.6525e-06 0)
(-3.1954e-05 3.71578e-06 0)
(-3.49294e-05 3.7639e-06 0)
(-3.794e-05 3.8014e-06 0)
(-4.09802e-05 3.82617e-06 0)
(-4.40413e-05 3.83976e-06 0)
(-4.71132e-05 3.84691e-06 0)
(-5.01913e-05 3.84517e-06 0)
(-5.32675e-05 3.83516e-06 0)
(-5.63335e-05 3.81916e-06 0)
(-5.93868e-05 3.79543e-06 0)
(-6.24218e-05 3.76549e-06 0)
(-6.54326e-05 3.73202e-06 0)
(-6.84168e-05 3.69374e-06 0)
(-7.13703e-05 3.65061e-06 0)
(-7.42878e-05 3.60412e-06 0)
(-7.71675e-05 3.55368e-06 0)
(-8.00073e-05 3.49909e-06 0)
(-8.28029e-05 3.44216e-06 0)
(-8.55523e-05 3.3824e-06 0)
(-8.82545e-05 3.31926e-06 0)
(-9.09062e-05 3.25426e-06 0)
(-9.35061e-05 3.18792e-06 0)
(-9.60537e-05 3.11977e-06 0)
(-9.85459e-05 3.05011e-06 0)
(-0.000100981 2.9794e-06 0)
(-0.000103359 2.90673e-06 0)
(-0.000105678 2.83239e-06 0)
(-0.000107936 2.75709e-06 0)
(-0.000110134 2.68042e-06 0)
(-0.00011227 2.60221e-06 0)
(-0.000114342 2.52251e-06 0)
(-0.000116349 2.44094e-06 0)
(-0.000118291 2.35797e-06 0)
(-0.000120167 2.2749e-06 0)
(-0.000121976 2.19173e-06 0)
(-0.000123717 2.10715e-06 0)
(-0.000125388 2.02053e-06 0)
(-0.000126989 1.93234e-06 0)
(-0.000128518 1.84324e-06 0)
(-0.000129978 1.75401e-06 0)
(-0.000131365 1.66511e-06 0)
(-0.000132679 1.57573e-06 0)
(-0.00013392 1.48459e-06 0)
(-0.000135085 1.39174e-06 0)
(-0.000136176 1.29825e-06 0)
(-0.000137192 1.20467e-06 0)
(-0.000138133 1.11095e-06 0)
(-0.000138998 1.01699e-06 0)
(-0.000139786 9.22693e-07 0)
(-0.000140497 8.27855e-07 0)
(-0.00014113 7.32283e-07 0)
(-0.000141686 6.3617e-07 0)
(-0.000142163 5.39819e-07 0)
(-0.000142561 4.43209e-07 0)
(-0.000142881 3.46156e-07 0)
(-0.000143122 2.48831e-07 0)
(-0.000143284 1.51495e-07 0)
(-0.000143366 5.41497e-08 0)
(-0.000143369 -4.3276e-08 0)
(-0.000143293 -1.40664e-07 0)
(-0.000143138 -2.37936e-07 0)
(-0.000142903 -3.35176e-07 0)
(-0.000142589 -4.32328e-07 0)
(-0.000142197 -5.29127e-07 0)
(-0.000141726 -6.2539e-07 0)
(-0.000141177 -7.21198e-07 0)
(-0.000140549 -8.16717e-07 0)
(-0.000139845 -9.11843e-07 0)
(-0.000139063 -1.00623e-06 0)
(-0.000138204 -1.09989e-06 0)
(-0.000137268 -1.19323e-06 0)
(-0.000136257 -1.28639e-06 0)
(-0.00013517 -1.37896e-06 0)
(-0.000134008 -1.47048e-06 0)
(-0.000132771 -1.56104e-06 0)
(-0.000131462 -1.65102e-06 0)
(-0.000130079 -1.74047e-06 0)
(-0.000128624 -1.82903e-06 0)
(-0.000127096 -1.91641e-06 0)
(-0.000125499 -2.00276e-06 0)
(-0.000123832 -2.08836e-06 0)
(-0.000122096 -2.17309e-06 0)
(-0.000120291 -2.25658e-06 0)
(-0.000118419 -2.33887e-06 0)
(-0.000116481 -2.4201e-06 0)
(-0.000114478 -2.50005e-06 0)
(-0.000112411 -2.57841e-06 0)
(-0.00011028 -2.6553e-06 0)
(-0.000108087 -2.73115e-06 0)
(-0.000105833 -2.80606e-06 0)
(-0.000103519 -2.87944e-06 0)
(-0.000101146 -2.95057e-06 0)
(-9.87169e-05 -3.01957e-06 0)
(-9.62316e-05 -3.08711e-06 0)
(-9.3692e-05 -3.15343e-06 0)
(-9.10998e-05 -3.21795e-06 0)
(-8.84567e-05 -3.28e-06 0)
(-8.57648e-05 -3.33946e-06 0)
(-8.30262e-05 -3.39661e-06 0)
(-8.02425e-05 -3.45143e-06 0)
(-7.74159e-05 -3.50325e-06 0)
(-7.45493e-05 -3.55145e-06 0)
(-7.16458e-05 -3.59591e-06 0)
(-6.87088e-05 -3.63666e-06 0)
(-6.57415e-05 -3.6733e-06 0)
(-6.27474e-05 -3.70503e-06 0)
(-5.97305e-05 -3.73104e-06 0)
(-5.66955e-05 -3.7509e-06 0)
(-5.36477e-05 -3.76433e-06 0)
(-5.05924e-05 -3.77083e-06 0)
(-4.75357e-05 -3.76946e-06 0)
(-4.44842e-05 -3.75928e-06 0)
(-4.14452e-05 -3.73966e-06 0)
(-3.84267e-05 -3.71001e-06 0)
(-3.5437e-05 -3.66932e-06 0)
(-3.24855e-05 -3.61625e-06 0)
(-2.95822e-05 -3.54963e-06 0)
(-2.6738e-05 -3.4688e-06 0)
(-2.39643e-05 -3.37322e-06 0)
(-2.12732e-05 -3.262e-06 0)
(-1.86775e-05 -3.13385e-06 0)
(-1.61907e-05 -2.98756e-06 0)
(-1.38271e-05 -2.82243e-06 0)
(-1.16009e-05 -2.63822e-06 0)
(-9.5262e-06 -2.43472e-06 0)
(-7.61721e-06 -2.21164e-06 0)
(-5.88775e-06 -1.96926e-06 0)
(-4.35106e-06 -1.70899e-06 0)
(-3.01916e-06 -1.4333e-06 0)
(-1.90174e-06 -1.14563e-06 0)
(-1.00505e-06 -8.50567e-07 0)
(-3.30891e-07 -5.54811e-07 0)
(1.25114e-07 -2.6838e-07 0)
(3.75848e-07 -6.069e-09 0)
(4.44751e-07 2.11364e-07 0)
(3.69074e-07 3.56659e-07 0)
(2.07072e-07 3.90107e-07 0)
(5.74797e-08 2.2535e-07 0)
(-2.73477e-07 7.69018e-07 0)
(-5.61582e-07 -1.80094e-07 0)
(-8.62368e-07 -1.31752e-06 0)
(-1.02998e-06 -1.33256e-06 0)
(-1.18759e-06 -7.74031e-07 0)
(-1.5011e-06 -2.61134e-08 0)
(-2.04844e-06 7.45573e-07 0)
(-2.88329e-06 1.48844e-06 0)
(-4.02378e-06 2.18426e-06 0)
(-5.47825e-06 2.82531e-06 0)
(-7.23445e-06 3.41689e-06 0)
(-9.282e-06 3.95686e-06 0)
(-1.16022e-05 4.45131e-06 0)
(-1.4175e-05 4.90149e-06 0)
(-1.69814e-05 5.30473e-06 0)
(-1.99957e-05 5.66957e-06 0)
(-2.32023e-05 5.99154e-06 0)
(-2.65793e-05 6.27718e-06 0)
(-3.01057e-05 6.52841e-06 0)
(-3.37668e-05 6.74344e-06 0)
(-3.75399e-05 6.92751e-06 0)
(-4.14098e-05 7.08225e-06 0)
(-4.53631e-05 7.20782e-06 0)
(-4.93819e-05 7.31032e-06 0)
(-5.34544e-05 7.38841e-06 0)
(-5.75681e-05 7.44278e-06 0)
(-6.17086e-05 7.47829e-06 0)
(-6.58673e-05 7.4944e-06 0)
(-7.0035e-05 7.49345e-06 0)
(-7.42006e-05 7.47934e-06 0)
(-7.83573e-05 7.45073e-06 0)
(-8.24974e-05 7.4084e-06 0)
(-8.66122e-05 7.35535e-06 0)
(-9.06965e-05 7.29132e-06 0)
(-9.47453e-05 7.21703e-06 0)
(-9.87525e-05 7.13543e-06 0)
(-0.000102714 7.04609e-06 0)
(-0.000106625 6.94869e-06 0)
(-0.000110482 6.84571e-06 0)
(-0.000114281 6.73715e-06 0)
(-0.000118019 6.62237e-06 0)
(-0.000121692 6.50266e-06 0)
(-0.000125298 6.37836e-06 0)
(-0.000128833 6.24896e-06 0)
(-0.000132298 6.11623e-06 0)
(-0.000135688 5.98083e-06 0)
(-0.000139002 5.8421e-06 0)
(-0.000142238 5.70023e-06 0)
(-0.000145394 5.55537e-06 0)
(-0.000148468 5.40713e-06 0)
(-0.000151459 5.25613e-06 0)
(-0.000154366 5.10347e-06 0)
(-0.000157188 4.94884e-06 0)
(-0.000159922 4.79128e-06 0)
(-0.000162566 4.63068e-06 0)
(-0.000165119 4.46737e-06 0)
(-0.00016758 4.30194e-06 0)
(-0.00016995 4.13527e-06 0)
(-0.000172226 3.96721e-06 0)
(-0.000174406 3.79666e-06 0)
(-0.00017649 3.62309e-06 0)
(-0.000178476 3.44736e-06 0)
(-0.000180363 3.27057e-06 0)
(-0.000182152 3.09303e-06 0)
(-0.000183841 2.91454e-06 0)
(-0.00018543 2.73475e-06 0)
(-0.000186916 2.55321e-06 0)
(-0.000188299 2.36963e-06 0)
(-0.000189578 2.18468e-06 0)
(-0.000190754 1.99921e-06 0)
(-0.000191825 1.81316e-06 0)
(-0.000192792 1.62616e-06 0)
(-0.000193654 1.4383e-06 0)
(-0.000194409 1.24978e-06 0)
(-0.000195057 1.06038e-06 0)
(-0.000195598 8.69868e-07 0)
(-0.000196032 6.78692e-07 0)
(-0.000196359 4.87479e-07 0)
(-0.000196578 2.96159e-07 0)
(-0.000196689 1.04267e-07 0)
(-0.000196692 -8.79874e-08 0)
(-0.000196587 -2.79852e-07 0)
(-0.000196374 -4.71147e-07 0)
(-0.000196053 -6.62337e-07 0)
(-0.000195625 -8.53413e-07 0)
(-0.000195089 -1.04374e-06 0)
(-0.000194446 -1.23311e-06 0)
(-0.000193697 -1.42192e-06 0)
(-0.000192841 -1.61033e-06 0)
(-0.000191879 -1.79785e-06 0)
(-0.000190812 -1.98399e-06 0)
(-0.00018964 -2.1689e-06 0)
(-0.000188364 -2.35306e-06 0)
(-0.000186984 -2.53639e-06 0)
(-0.000185502 -2.71835e-06 0)
(-0.000183917 -2.89873e-06 0)
(-0.00018223 -3.07765e-06 0)
(-0.000180444 -3.25512e-06 0)
(-0.000178559 -3.43087e-06 0)
(-0.000176574 -3.60484e-06 0)
(-0.000174491 -3.77709e-06 0)
(-0.000172312 -3.94753e-06 0)
(-0.000170039 -4.11582e-06 0)
(-0.000167671 -4.28175e-06 0)
(-0.00016521 -4.44547e-06 0)
(-0.000162657 -4.60729e-06 0)
(-0.000160013 -4.7672e-06 0)
(-0.000157281 -4.92463e-06 0)
(-0.000154461 -5.07899e-06 0)
(-0.000151555 -5.23032e-06 0)
(-0.000148565 -5.37904e-06 0)
(-0.000145492 -5.52537e-06 0)
(-0.000142336 -5.66903e-06 0)
(-0.000139101 -5.80946e-06 0)
(-0.000135789 -5.94623e-06 0)
(-0.000132401 -6.0793e-06 0)
(-0.00012894 -6.20872e-06 0)
(-0.000125407 -6.33435e-06 0)
(-0.000121805 -6.45581e-06 0)
(-0.000118137 -6.57265e-06 0)
(-0.000114405 -6.68437e-06 0)
(-0.000110613 -6.79054e-06 0)
(-0.000106764 -6.89075e-06 0)
(-0.00010286 -6.98452e-06 0)
(-9.89069e-05 -7.07128e-06 0)
(-9.49087e-05 -7.15024e-06 0)
(-9.08699e-05 -7.22043e-06 0)
(-8.67953e-05 -7.28083e-06 0)
(-8.26905e-05 -7.33052e-06 0)
(-7.85623e-05 -7.36861e-06 0)
(-7.44173e-05 -7.39403e-06 0)
(-7.02629e-05 -7.40553e-06 0)
(-6.6107e-05 -7.4017e-06 0)
(-6.19587e-05 -7.381e-06 0)
(-5.78282e-05 -7.34179e-06 0)
(-5.3726e-05 -7.28246e-06 0)
(-4.96632e-05 -7.20142e-06 0)
(-4.56518e-05 -7.09693e-06 0)
(-4.17055e-05 -6.96708e-06 0)
(-3.78391e-05 -6.81003e-06 0)
(-3.40677e-05 -6.62407e-06 0)
(-3.04066e-05 -6.40751e-06 0)
(-2.68722e-05 -6.1587e-06 0)
(-2.3482e-05 -5.8761e-06 0)
(-2.02545e-05 -5.55833e-06 0)
(-1.72083e-05 -5.20451e-06 0)
(-1.43616e-05 -4.81449e-06 0)
(-1.17317e-05 -4.38885e-06 0)
(-9.33598e-06 -3.92904e-06 0)
(-7.19095e-06 -3.43776e-06 0)
(-5.31089e-06 -2.91924e-06 0)
(-3.7068e-06 -2.37971e-06 0)
(-2.38543e-06 -1.82816e-06 0)
(-1.34817e-06 -1.2776e-06 0)
(-5.89272e-07 -7.4642e-07 0)
(-9.36164e-08 -2.6002e-07 0)
(1.65266e-07 1.47695e-07 0)
(2.28272e-07 4.33883e-07 0)
(1.56699e-07 5.39359e-07 0)
(4.88687e-08 3.35655e-07 0)
(-1.36244e-07 1.04326e-06 0)
(-3.58982e-07 2.46726e-07 0)
(-7.91151e-07 -9.37239e-07 0)
(-1.28148e-06 -9.70619e-07 0)
(-1.83204e-06 -3.21777e-07 0)
(-2.56388e-06 6.15511e-07 0)
(-3.54998e-06 1.65155e-06 0)
(-4.83777e-06 2.70124e-06 0)
(-6.46185e-06 3.71964e-06 0)
(-8.42839e-06 4.69127e-06 0)
(-1.07397e-05 5.60176e-06 0)
(-1.33824e-05 6.44812e-06 0)
(-1.63403e-05 7.22986e-06 0)
(-1.95984e-05 7.9438e-06 0)
(-2.31292e-05 8.59565e-06 0)
(-2.69134e-05 9.18161e-06 0)
(-3.09265e-05 9.70511e-06 0)
(-3.51432e-05 1.01705e-05 0)
(-3.95457e-05 1.05771e-05 0)
(-4.41086e-05 1.09313e-05 0)
(-4.88114e-05 1.12355e-05 0)
(-5.36351e-05 1.14893e-05 0)
(-5.8558e-05 1.16999e-05 0)
(-6.35641e-05 1.1869e-05 0)
(-6.8638e-05 1.19984e-05 0)
(-7.37621e-05 1.20941e-05 0)
(-7.8923e-05 1.21567e-05 0)
(-8.41074e-05 1.21876e-05 0)
(-8.93012e-05 1.2192e-05 0)
(-9.44947e-05 1.21712e-05 0)
(-9.96785e-05 1.21268e-05 0)
(-0.000104842 1.20628e-05 0)
(-0.000109976 1.19801e-05 0)
(-0.000115074 1.1879e-05 0)
(-0.000120127 1.17624e-05 0)
(-0.000125129 1.16315e-05 0)
(-0.000130075 1.14869e-05 0)
(-0.000134959 1.13307e-05 0)
(-0.000139775 1.11643e-05 0)
(-0.000144521 1.09878e-05 0)
(-0.000149191 1.08027e-05 0)
(-0.000153782 1.06101e-05 0)
(-0.000158289 1.04095e-05 0)
(-0.00016271 1.02015e-05 0)
(-0.000167041 9.98693e-06 0)
(-0.00017128 9.76642e-06 0)
(-0.000175424 9.54046e-06 0)
(-0.000179471 9.30985e-06 0)
(-0.000183419 9.07435e-06 0)
(-0.000187265 8.83344e-06 0)
(-0.000191006 8.58755e-06 0)
(-0.000194641 8.33728e-06 0)
(-0.00019817 8.08331e-06 0)
(-0.00020159 7.82638e-06 0)
(-0.000204898 7.56602e-06 0)
(-0.000208092 7.30092e-06 0)
(-0.000211171 7.03101e-06 0)
(-0.000214134 6.75766e-06 0)
(-0.00021698 6.48169e-06 0)
(-0.000219707 6.20307e-06 0)
(-0.000222315 5.92166e-06 0)
(-0.000224799 5.63697e-06 0)
(-0.00022716 5.34848e-06 0)
(-0.000229397 5.05683e-06 0)
(-0.000231508 4.76342e-06 0)
(-0.000233494 4.4688e-06 0)
(-0.000235352 4.17239e-06 0)
(-0.000237082 3.87358e-06 0)
(-0.000238682 3.57249e-06 0)
(-0.000240152 3.26946e-06 0)
(-0.000241491 2.96444e-06 0)
(-0.000242699 2.65764e-06 0)
(-0.000243775 2.34978e-06 0)
(-0.000244717 2.04109e-06 0)
(-0.000245527 1.73112e-06 0)
(-0.000246203 1.41969e-06 0)
(-0.000246745 1.1073e-06 0)
(-0.000247152 7.94515e-07 0)
(-0.000247424 4.81377e-07 0)
(-0.000247562 1.67718e-07 0)
(-0.000247565 -1.46214e-07 0)
(-0.000247432 -4.59927e-07 0)
(-0.000247164 -7.7323e-07 0)
(-0.000246762 -1.08618e-06 0)
(-0.000246226 -1.39852e-06 0)
(-0.000245554 -1.70974e-06 0)
(-0.000244749 -2.01976e-06 0)
(-0.000243811 -2.32888e-06 0)
(-0.000242739 -2.63704e-06 0)
(-0.000241535 -2.94378e-06 0)
(-0.000240199 -3.24887e-06 0)
(-0.000238732 -3.55232e-06 0)
(-0.000237134 -3.8541e-06 0)
(-0.000235407 -4.15388e-06 0)
(-0.000233551 -4.45137e-06 0)
(-0.000231567 -4.74668e-06 0)
(-0.000229457 -5.03983e-06 0)
(-0.000227221 -5.33034e-06 0)
(-0.00022486 -5.61771e-06 0)
(-0.000222376 -5.90206e-06 0)
(-0.00021977 -6.18377e-06 0)
(-0.000217043 -6.46267e-06 0)
(-0.000214197 -6.7381e-06 0)
(-0.000211233 -7.00966e-06 0)
(-0.000208152 -7.27752e-06 0)
(-0.000204957 -7.54188e-06 0)
(-0.000201649 -7.80267e-06 0)
(-0.000198229 -8.05962e-06 0)
(-0.000194699 -8.3125e-06 0)
(-0.000191062 -8.56104e-06 0)
(-0.000187319 -8.80487e-06 0)
(-0.000183473 -9.04364e-06 0)
(-0.000179525 -9.27736e-06 0)
(-0.000175477 -9.50624e-06 0)
(-0.000171332 -9.73007e-06 0)
(-0.000167093 -9.94798e-06 0)
(-0.000162762 -1.01592e-05 0)
(-0.000158343 -1.03635e-05 0)
(-0.000153837 -1.05608e-05 0)
(-0.000149249 -1.07508e-05 0)
(-0.000144582 -1.09326e-05 0)
(-0.00013984 -1.1105e-05 0)
(-0.000135027 -1.12672e-05 0)
(-0.000130147 -1.14188e-05 0)
(-0.000125206 -1.1559e-05 0)
(-0.000120209 -1.16863e-05 0)
(-0.000115162 -1.17991e-05 0)
(-0.000110071 -1.1896e-05 0)
(-0.000104943 -1.19757e-05 0)
(-9.97866e-05 -1.20365e-05 0)
(-9.46102e-05 -1.20766e-05 0)
(-8.94226e-05 -1.20937e-05 0)
(-8.42339e-05 -1.20858e-05 0)
(-7.90552e-05 -1.20508e-05 0)
(-7.38987e-05 -1.19861e-05 0)
(-6.87775e-05 -1.18888e-05 0)
(-6.37057e-05 -1.17561e-05 0)
(-5.8698e-05 -1.15854e-05 0)
(-5.37707e-05 -1.13744e-05 0)
(-4.89415e-05 -1.11203e-05 0)
(-4.42286e-05 -1.08199e-05 0)
(-3.96506e-05 -1.04703e-05 0)
(-3.52275e-05 -1.00692e-05 0)
(-3.09799e-05 -9.61496e-06 0)
(-2.69294e-05 -9.10598e-06 0)
(-2.30979e-05 -8.54114e-06 0)
(-1.9507e-05 -7.92011e-06 0)
(-1.61773e-05 -7.24409e-06 0)
(-1.31287e-05 -6.51595e-06 0)
(-1.03796e-05 -5.74038e-06 0)
(-7.94587e-06 -4.92419e-06 0)
(-5.83965e-06 -4.07715e-06 0)
(-4.0685e-06 -3.21336e-06 0)
(-2.63414e-06 -2.35274e-06 0)
(-1.53079e-06 -1.52266e-06 0)
(-7.4281e-07 -7.595e-07 0)
(-2.43075e-07 -1.10366e-07 0)
(9.41501e-09 3.66984e-07 0)
(7.27298e-08 5.95065e-07 0)
(3.32549e-08 4.08464e-07 0)
(-5.19957e-08 1.17309e-06 0)
(-2.30333e-07 6.42828e-07 0)
(-7.64432e-07 -3.79496e-07 0)
(-1.50632e-06 -2.92146e-07 0)
(-2.42048e-06 5.2518e-07 0)
(-3.57446e-06 1.69408e-06 0)
(-5.01673e-06 3.0234e-06 0)
(-6.79491e-06 4.40204e-06 0)
(-8.93055e-06 5.77524e-06 0)
(-1.14422e-05 7.10448e-06 0)
(-1.43287e-05 8.37101e-06 0)
(-1.75793e-05 9.5627e-06 0)
(-2.11826e-05 1.0668e-05 0)
(-2.51154e-05 1.1689e-05 0)
(-2.93596e-05 1.26212e-05 0)
(-3.38898e-05 1.34651e-05 0)
(-3.8679e-05 1.42252e-05 0)
(-4.37052e-05 1.48988e-05 0)
(-4.89403e-05 1.54923e-05 0)
(-5.43612e-05 1.601e-05 0)
(-5.99464e-05 1.64535e-05 0)
(-6.56698e-05 1.68295e-05 0)
(-7.15102e-05 1.7141e-05 0)
(-7.7449e-05 1.73904e-05 0)
(-8.34646e-05 1.75847e-05 0)
(-8.95402e-05 1.77276e-05 0)
(-9.5661e-05 1.78218e-05 0)
(-0.000101809 1.78732e-05 0)
(-0.000107969 1.78842e-05 0)
(-0.000114131 1.78568e-05 0)
(-0.00012028 1.77963e-05 0)
(-0.000126405 1.77055e-05 0)
(-0.000132498 1.75859e-05 0)
(-0.000138548 1.74417e-05 0)
(-0.000144546 1.72744e-05 0)
(-0.000150485 1.70851e-05 0)
(-0.000156359 1.68767e-05 0)
(-0.000162159 1.6651e-05 0)
(-0.00016788 1.64085e-05 0)
(-0.000173518 1.61514e-05 0)
(-0.000179065 1.58811e-05 0)
(-0.000184519 1.55986e-05 0)
(-0.000189876 1.53051e-05 0)
(-0.00019513 1.50015e-05 0)
(-0.000200279 1.46879e-05 0)
(-0.000205318 1.43652e-05 0)
(-0.000210245 1.40341e-05 0)
(-0.000215056 1.36951e-05 0)
(-0.00021975 1.33491e-05 0)
(-0.000224323 1.29963e-05 0)
(-0.000228773 1.26364e-05 0)
(-0.000233096 1.22691e-05 0)
(-0.000237291 1.18953e-05 0)
(-0.000241356 1.1516e-05 0)
(-0.000245289 1.11317e-05 0)
(-0.000249089 1.07422e-05 0)
(-0.000252751 1.03469e-05 0)
(-0.000256274 9.94575e-06 0)
(-0.000259658 9.53896e-06 0)
(-0.0002629 9.12766e-06 0)
(-0.000265999 8.71291e-06 0)
(-0.000268954 8.2945e-06 0)
(-0.000271762 7.87152e-06 0)
(-0.000274422 7.44398e-06 0)
(-0.000276932 7.01255e-06 0)
(-0.000279291 6.57769e-06 0)
(-0.0002815 6.13985e-06 0)
(-0.000283556 5.6994e-06 0)
(-0.000285458 5.25635e-06 0)
(-0.000287205 4.81044e-06 0)
(-0.000288797 4.36161e-06 0)
(-0.000290232 3.91025e-06 0)
(-0.00029151 3.45683e-06 0)
(-0.000292629 3.00158e-06 0)
(-0.000293591 2.54462e-06 0)
(-0.000294393 2.08623e-06 0)
(-0.000295036 1.62672e-06 0)
(-0.000295519 1.16617e-06 0)
(-0.000295842 7.04852e-07 0)
(-0.000296004 2.43273e-07 0)
(-0.000296006 -2.18246e-07 0)
(-0.000295848 -6.79701e-07 0)
(-0.000295529 -1.141e-06 0)
(-0.00029505 -1.6017e-06 0)
(-0.000294411 -2.06132e-06 0)
(-0.000293612 -2.51967e-06 0)
(-0.000292653 -2.97674e-06 0)
(-0.000291537 -3.43233e-06 0)
(-0.000290262 -3.886e-06 0)
(-0.000288829 -4.33752e-06 0)
(-0.00028724 -4.787e-06 0)
(-0.000285494 -5.23434e-06 0)
(-0.000283594 -5.67899e-06 0)
(-0.000281539 -6.12048e-06 0)
(-0.000279332 -6.55869e-06 0)
(-0.000276972 -6.99368e-06 0)
(-0.000274462 -7.42531e-06 0)
(-0.000271802 -7.853e-06 0)
(-0.000268994 -8.2763e-06 0)
(-0.000266039 -8.69523e-06 0)
(-0.00026294 -9.1099e-06 0)
(-0.000259696 -9.52009e-06 0)
(-0.000256311 -9.92538e-06 0)
(-0.000252785 -1.03256e-05 0)
(-0.00024912 -1.07206e-05 0)
(-0.00024532 -1.11103e-05 0)
(-0.000241385 -1.1494e-05 0)
(-0.000237317 -1.18716e-05 0)
(-0.000233119 -1.22435e-05 0)
(-0.000228793 -1.26095e-05 0)
(-0.000224342 -1.29688e-05 0)
(-0.000219767 -1.33207e-05 0)
(-0.000215071 -1.36647e-05 0)
(-0.000210258 -1.40009e-05 0)
(-0.00020533 -1.43294e-05 0)
(-0.00020029 -1.46494e-05 0)
(-0.00019514 -1.49597e-05 0)
(-0.000189886 -1.52596e-05 0)
(-0.00018453 -1.55489e-05 0)
(-0.000179076 -1.58271e-05 0)
(-0.000173529 -1.6093e-05 0)
(-0.000167893 -1.63452e-05 0)
(-0.000162173 -1.65827e-05 0)
(-0.000156375 -1.68041e-05 0)
(-0.000150505 -1.70082e-05 0)
(-0.000144569 -1.71933e-05 0)
(-0.000138574 -1.73571e-05 0)
(-0.000132528 -1.74976e-05 0)
(-0.000126439 -1.7613e-05 0)
(-0.000120317 -1.77008e-05 0)
(-0.000114171 -1.77579e-05 0)
(-0.000108013 -1.77814e-05 0)
(-0.000101854 -1.77681e-05 0)
(-9.57075e-05 -1.77151e-05 0)
(-8.95873e-05 -1.7619e-05 0)
(-8.35084e-05 -1.74758e-05 0)
(-7.74874e-05 -1.72813e-05 0)
(-7.15421e-05 -1.70318e-05 0)
(-6.56913e-05 -1.67236e-05 0)
(-5.99546e-05 -1.63532e-05 0)
(-5.43526e-05 -1.59164e-05 0)
(-4.89071e-05 -1.54092e-05 0)
(-4.3641e-05 -1.48286e-05 0)
(-3.8578e-05 -1.41721e-05 0)
(-3.37421e-05 -1.34381e-05 0)
(-2.91576e-05 -1.26257e-05 0)
(-2.48487e-05 -1.17349e-05 0)
(-2.08386e-05 -1.07674e-05 0)
(-1.71496e-05 -9.72749e-06 0)
(-1.38018e-05 -8.62188e-06 0)
(-1.0812e-05 -7.46061e-06 0)
(-8.19348e-06 -6.25784e-06 0)
(-5.95506e-06 -5.03335e-06 0)
(-4.09964e-06 -3.8142e-06 0)
(-2.62235e-06 -2.63644e-06 0)
(-1.50875e-06 -1.54686e-06 0)
(-7.33289e-07 -6.04809e-07 0)
(-2.57316e-07 1.18013e-07 0)
(-3.04023e-08 5.27954e-07 0)
(1.41791e-08 4.30386e-07 0)
(-1.439e-08 1.24628e-06 0)
(-1.9316e-07 1.04843e-06 0)
(-8.24682e-07 3.42712e-07 0)
(-1.79842e-06 6.79127e-07 0)
(-3.04548e-06 1.74881e-06 0)
(-4.6024e-06 3.21186e-06 0)
(-6.50285e-06 4.87081e-06 0)
(-8.77206e-06 6.61566e-06 0)
(-1.14348e-05 8.36881e-06 0)
(-1.44991e-05 1.00858e-05 0)
(-1.79652e-05 1.17383e-05 0)
(-2.18283e-05 1.33014e-05 0)
(-2.60683e-05 1.47667e-05 0)
(-3.06693e-05 1.61232e-05 0)
(-3.56086e-05 1.73667e-05 0)
(-4.08589e-05 1.85004e-05 0)
(-4.6398e-05 1.95198e-05 0)
(-5.21967e-05 2.04305e-05 0)
(-5.82271e-05 2.12351e-05 0)
(-6.44652e-05 2.19357e-05 0)
(-7.08839e-05 2.25398e-05 0)
(-7.7458e-05 2.30531e-05 0)
(-8.41656e-05 2.34781e-05 0)
(-9.09818e-05 2.38227e-05 0)
(-9.78852e-05 2.40917e-05 0)
(-0.000104858 2.42885e-05 0)
(-0.000111879 2.44212e-05 0)
(-0.000118932 2.44949e-05 0)
(-0.000126001 2.45124e-05 0)
(-0.00013307 2.448e-05 0)
(-0.000140126 2.44017e-05 0)
(-0.000147156 2.42799e-05 0)
(-0.000154149 2.41198e-05 0)
(-0.000161093 2.39253e-05 0)
(-0.000167979 2.36981e-05 0)
(-0.000174798 2.34417e-05 0)
(-0.000181542 2.31592e-05 0)
(-0.000188203 2.28522e-05 0)
(-0.000194775 2.25229e-05 0)
(-0.000201251 2.21737e-05 0)
(-0.000207624 2.18055e-05 0)
(-0.000213891 2.14197e-05 0)
(-0.000220045 2.10186e-05 0)