/*--------------------------------*- C++ -*----------------------------------*\
  =========                 |
  \\      /  F ield         | OpenFOAM: The Open Source CFD Toolbox
   \\    /   O peration     | Website:  https://openfoam.org
    \\  /    A nd           | Version:  7
     \\/     M anipulation  |
\*---------------------------------------------------------------------------*/
FoamFile
{
    version     2.0;
    format      ascii;
    class       surfaceScalarField;
    location    "0.2375";
    object      phi;
}
// * * * * * * * * * * * * * * * * * * * * * * * * * * * * * * * * * * * * * //

dimensions      [0 3 -1 0 0 0 0];

internalField   nonuniform List<scalar> 
25360
(
5.17046e-11
-5.57473e-11
1.96367e-10
-1.44673e-10
3.6486e-10
-1.68489e-10
5.09304e-10
-1.44451e-10
6.01428e-10
-9.21165e-11
6.25321e-10
-2.38875e-11
5.72947e-10
5.23805e-11
4.41343e-10
1.31605e-10
2.30819e-10
2.10523e-10
-5.6225e-11
2.8704e-10
-4.16058e-10
3.59827e-10
-8.44128e-10
4.28067e-10
-1.33541e-09
4.91283e-10
-1.88466e-09
5.49253e-10
-2.48659e-09
6.01931e-10
-3.136e-09
6.49404e-10
-3.82785e-09
6.91845e-10
-4.55735e-09
7.29492e-10
-5.31997e-09
7.62626e-10
-6.11152e-09
7.91555e-10
-6.92812e-09
8.16605e-10
-7.76623e-09
8.3811e-10
-8.62264e-09
8.56406e-10
-9.49446e-09
8.71823e-10
-1.03791e-08
8.84678e-10
-1.12744e-08
8.95274e-10
-1.21783e-08
9.03902e-10
-1.30891e-08
9.10834e-10
-1.40055e-08
9.16323e-10
-1.49261e-08
9.20603e-10
-1.585e-08
9.23889e-10
-1.67764e-08
9.26382e-10
-1.77046e-08
9.28261e-10
-1.86343e-08
9.29689e-10
-1.95651e-08
9.30808e-10
-2.04969e-08
9.31749e-10
-2.14295e-08
9.32625e-10
-2.2363e-08
9.3354e-10
-2.32976e-08
9.34585e-10
-2.42334e-08
9.35837e-10
-2.51708e-08
9.37366e-10
-2.611e-08
9.39235e-10
-2.70515e-08
9.41494e-10
-2.79957e-08
9.44189e-10
-2.89431e-08
9.47353e-10
-2.98941e-08
9.51016e-10
-3.08493e-08
9.55206e-10
-3.18093e-08
9.59949e-10
-3.27745e-08
9.65258e-10
-3.37457e-08
9.71143e-10
-3.47233e-08
9.77612e-10
-3.57079e-08
9.84665e-10
-3.67002e-08
9.92305e-10
-3.77008e-08
1.00053e-09
-3.87101e-08
1.00934e-09
-3.97288e-08
1.01872e-09
-4.07575e-08
1.02866e-09
-4.17966e-08
1.03913e-09
-4.28467e-08
1.05012e-09
-4.39084e-08
1.06161e-09
-4.49819e-08
1.07355e-09
-4.60678e-08
1.08593e-09
-4.71665e-08
1.09869e-09
-4.82783e-08
1.11181e-09
-4.94036e-08
1.12523e-09
-5.05425e-08
1.13888e-09
-5.16952e-08
1.15273e-09
-5.28619e-08
1.1667e-09
-5.40426e-08
1.18072e-09
-5.52373e-08
1.1947e-09
-5.64459e-08
1.20857e-09
-5.76681e-08
1.22223e-09
-5.89037e-08
1.23558e-09
-6.01522e-08
1.24851e-09
-6.14131e-08
1.26091e-09
-6.26857e-08
1.27264e-09
-6.39693e-08
1.28357e-09
-6.52629e-08
1.29357e-09
-6.65654e-08
1.30246e-09
-6.78755e-08
1.3101e-09
-6.91918e-08
1.31632e-09
-7.05127e-08
1.32092e-09
-7.18364e-08
1.32373e-09
-7.3161e-08
1.32454e-09
-7.44841e-08
1.32313e-09
-7.58034e-08
1.31931e-09
-7.71162e-08
1.31284e-09
-7.84197e-08
1.30348e-09
-7.97107e-08
1.29101e-09
-8.09859e-08
1.27518e-09
-8.22417e-08
1.25573e-09
-8.34741e-08
1.23241e-09
-8.4679e-08
1.20497e-09
-8.58522e-08
1.17314e-09
-8.69889e-08
1.13669e-09
-8.80842e-08
1.09534e-09
-8.91331e-08
1.04886e-09
-9.01301e-08
9.97014e-10
-9.10696e-08
9.3957e-10
-9.1946e-08
8.76319e-10
-9.2753e-08
8.07068e-10
-9.34847e-08
7.31644e-10
-9.41346e-08
6.49899e-10
-9.46963e-08
5.61717e-10
-9.51633e-08
4.67015e-10
-9.5529e-08
3.65748e-10
-9.5787e-08
2.57912e-10
-9.59305e-08
1.4355e-10
-9.59533e-08
2.27619e-11
-9.5849e-08
-1.04304e-10
-9.56115e-08
-2.37426e-10
-9.52352e-08
-3.76328e-10
-9.47145e-08
-5.20658e-10
-9.40446e-08
-6.69991e-10
-9.32207e-08
-8.23829e-10
-9.22391e-08
-9.81594e-10
-9.10965e-08
-1.14263e-09
-8.97903e-08
-1.30619e-09
-8.83189e-08
-1.47145e-09
-8.66813e-08
-1.63752e-09
-8.48779e-08
-1.80341e-09
-8.29099e-08
-1.96808e-09
-8.07795e-08
-2.13039e-09
-7.84903e-08
-2.28918e-09
-7.60471e-08
-2.4432e-09
-7.34559e-08
-2.59118e-09
-7.07241e-08
-2.7318e-09
-6.78604e-08
-2.86373e-09
-6.48747e-08
-2.98564e-09
-6.17785e-08
-3.0962e-09
-5.85844e-08
-3.19411e-09
-5.53063e-08
-3.27809e-09
-5.19594e-08
-3.34695e-09
-4.85598e-08
-3.39955e-09
-4.5125e-08
-3.43486e-09
-4.1673e-08
-3.45196e-09
-3.8223e-08
-3.45002e-09
-3.47946e-08
-3.42838e-09
-3.14081e-08
-3.38651e-09
-2.80841e-08
-3.32404e-09
-2.48433e-08
-3.24077e-09
-2.17066e-08
-3.13666e-09
-1.86948e-08
-3.01186e-09
-1.58281e-08
-2.86668e-09
-1.31265e-08
-2.70159e-09
-1.06092e-08
-2.51728e-09
-8.29464e-09
-2.31458e-09
-6.20008e-09
-2.09455e-09
-4.34161e-09
-1.85847e-09
-2.73371e-09
-1.6079e-09
-1.38892e-09
-1.34479e-09
-3.17228e-10
-1.07169e-09
4.74858e-10
-7.92084e-10
9.85872e-10
-5.11011e-10
1.22181e-09
-2.35939e-10
1.20127e-09
2.05427e-11
9.63017e-10
2.38257e-10
5.8033e-10
3.82689e-10
1.87984e-10
3.92347e-10
1.87987e-10
1.42958e-10
-1.98719e-10
4.1058e-10
-4.12272e-10
6.89863e-10
-4.47774e-10
8.96693e-10
-3.51283e-10
9.71746e-10
-1.67184e-10
8.76646e-10
7.12009e-11
5.88972e-10
3.40048e-10
9.79385e-11
6.22637e-10
-5.98922e-10
9.07387e-10
-1.49825e-09
1.18637e-09
-2.59265e-09
1.45423e-09
-3.87202e-09
1.70744e-09
-5.32454e-09
1.94379e-09
-6.93736e-09
2.16207e-09
-8.69717e-09
2.36176e-09
-1.05906e-08
2.54285e-09
-1.26045e-08
2.70575e-09
-1.47262e-08
2.85115e-09
-1.69435e-08
2.97992e-09
-1.9245e-08
3.0931e-09
-2.16202e-08
3.19178e-09
-2.40592e-08
3.27712e-09
-2.65531e-08
3.35031e-09
-2.90938e-08
3.41251e-09
-3.1674e-08
3.46488e-09
-3.42872e-08
3.50852e-09
-3.69279e-08
3.54451e-09
-3.95909e-08
3.57385e-09
-4.2272e-08
3.59748e-09
-4.49677e-08
3.61629e-09
-4.76749e-08
3.63109e-09
-5.03912e-08
3.64263e-09
-5.31145e-08
3.65159e-09
-5.58434e-08
3.65861e-09
-5.85768e-08
3.66423e-09
-6.13141e-08
3.66898e-09
-6.40547e-08
3.67329e-09
-6.67988e-08
3.67757e-09
-6.95464e-08
3.68218e-09
-7.22979e-08
3.68744e-09
-7.50542e-08
3.6936e-09
-7.78159e-08
3.70092e-09
-8.0584e-08
3.70961e-09
-8.33596e-08
3.71984e-09
-8.6144e-08
3.73176e-09
-8.89385e-08
3.7455e-09
-9.17445e-08
3.76117e-09
-9.45634e-08
3.77885e-09
-9.73967e-08
3.79861e-09
-1.00246e-07
3.82049e-09
-1.03113e-07
3.84454e-09
-1.05999e-07
3.87077e-09
-1.08906e-07
3.89918e-09
-1.11835e-07
3.92975e-09
-1.14788e-07
3.96246e-09
-1.17767e-07
3.99728e-09
-1.20772e-07
4.03415e-09
-1.23806e-07
4.07299e-09
-1.2687e-07
4.11372e-09
-1.29964e-07
4.15624e-09
-1.33091e-07
4.20043e-09
-1.36252e-07
4.24616e-09
-1.39446e-07
4.29326e-09
-1.42676e-07
4.34157e-09
-1.45942e-07
4.39089e-09
-1.49244e-07
4.441e-09
-1.52583e-07
4.49167e-09
-1.55959e-07
4.54263e-09
-1.59371e-07
4.5936e-09
-1.62821e-07
4.64427e-09
-1.66307e-07
4.69429e-09
-1.69828e-07
4.74329e-09
-1.73383e-07
4.79089e-09
-1.76971e-07
4.83665e-09
-1.8059e-07
4.88011e-09
-1.84239e-07
4.92078e-09
-1.87913e-07
4.95814e-09
-1.91611e-07
4.99163e-09
-1.95329e-07
5.02065e-09
-1.99064e-07
5.04458e-09
-2.0281e-07
5.06277e-09
-2.06564e-07
5.07451e-09
-2.10319e-07
5.07909e-09
-2.1407e-07
5.07573e-09
-2.17811e-07
5.06365e-09
-2.21534e-07
5.04202e-09
-2.25231e-07
5.01001e-09
-2.28894e-07
4.96673e-09
-2.32514e-07
4.91128e-09
-2.36082e-07
4.84275e-09
-2.39586e-07
4.76021e-09
-2.43017e-07
4.66272e-09
-2.46361e-07
4.54932e-09
-2.49607e-07
4.41909e-09
-2.52741e-07
4.27108e-09
-2.5575e-07
4.10439e-09
-2.5862e-07
3.91812e-09
-2.61334e-07
3.71143e-09
-2.63878e-07
3.48351e-09
-2.66235e-07
3.23362e-09
-2.68389e-07
2.96109e-09
-2.70323e-07
2.66533e-09
-2.72019e-07
2.34586e-09
-2.7346e-07
2.00231e-09
-2.74627e-07
1.63444e-09
-2.75503e-07
1.24215e-09
-2.76071e-07
8.2552e-10
-2.76312e-07
3.8479e-10
-2.7621e-07
-7.95921e-11
-2.75747e-07
-5.66968e-10
-2.74908e-07
-1.07645e-09
-2.73678e-07
-1.60691e-09
-2.72041e-07
-2.15696e-09
-2.69986e-07
-2.72493e-09
-2.67501e-07
-3.30891e-09
-2.64576e-07
-3.90665e-09
-2.61203e-07
-4.51566e-09
-2.57376e-07
-5.13312e-09
-2.53092e-07
-5.75593e-09
-2.48349e-07
-6.3807e-09
-2.43148e-07
-7.00377e-09
-2.37495e-07
-7.62122e-09
-2.31397e-07
-8.22889e-09
-2.24863e-07
-8.8224e-09
-2.17909e-07
-9.39718e-09
-2.10552e-07
-9.94854e-09
-2.02812e-07
-1.04716e-08
-1.94714e-07
-1.09616e-08
-1.86287e-07
-1.14135e-08
-1.7756e-07
-1.18226e-08
-1.6857e-07
-1.21839e-08
-1.59355e-07
-1.24931e-08
-1.49957e-07
-1.27456e-08
-1.40419e-07
-1.29374e-08
-1.30789e-07
-1.30647e-08
-1.21117e-07
-1.31241e-08
-1.11454e-07
-1.31128e-08
-1.01854e-07
-1.30283e-08
-9.23719e-08
-1.28687e-08
-8.30632e-08
-1.26327e-08
-7.39842e-08
-1.23198e-08
-6.51911e-08
-1.19298e-08
-5.67397e-08
-1.14633e-08
-4.86845e-08
-1.09218e-08
-4.10789e-08
-1.03072e-08
-3.39738e-08
-9.62236e-09
-2.74177e-08
-8.87074e-09
-2.14554e-08
-8.05679e-09
-1.61279e-08
-7.186e-09
-1.14707e-08
-6.26513e-09
-7.51277e-09
-5.30268e-09
-4.27483e-09
-4.30963e-09
-1.76635e-09
-3.30057e-09
1.8325e-11
-2.29568e-09
1.1065e-09
-1.32411e-09
1.55497e-09
-4.27922e-10
1.46431e-09
3.28907e-10
9.95993e-10
8.51012e-10
3.90813e-10
9.97533e-10
5.78799e-10
1.69066e-10
-3.6778e-10
4.4934e-10
-6.92552e-10
6.99232e-10
-6.9765e-10
8.17082e-10
-4.69126e-10
7.2872e-10
-7.88143e-11
3.83391e-10
4.16529e-10
-2.50531e-10
9.73968e-10
-1.18977e-09
1.56187e-09
-2.43969e-09
2.1573e-09
-3.9972e-09
2.74389e-09
-5.8531e-09
3.31013e-09
-7.99381e-09
3.84815e-09
-1.04028e-08
4.35282e-09
-1.30618e-08
4.82105e-09
-1.59514e-08
5.2513e-09
-1.90517e-08
5.64319e-09
-2.23432e-08
5.99723e-09
-2.58066e-08
6.31457e-09
-2.94235e-08
6.59684e-09
-3.31764e-08
6.846e-09
-3.70489e-08
7.06426e-09
-4.10257e-08
7.25394e-09
-4.50928e-08
7.41744e-09
-4.92375e-08
7.55718e-09
-5.34482e-08
7.67556e-09
-5.77146e-08
7.77489e-09
-6.20275e-08
7.85742e-09
-6.63789e-08
7.92527e-09
-7.07619e-08
7.98047e-09
-7.51705e-08
8.0249e-09
-7.95997e-08
8.0603e-09
-8.40454e-08
8.08831e-09
-8.85042e-08
8.11039e-09
-9.29735e-08
8.1279e-09
-9.74513e-08
8.14207e-09
-1.01936e-07
8.15401e-09
-1.06428e-07
8.16472e-09
-1.10925e-07
8.17508e-09
-1.15429e-07
8.18588e-09
-1.19939e-07
8.19783e-09
-1.24457e-07
8.21153e-09
-1.28984e-07
8.22753e-09
-1.33521e-07
8.24628e-09
-1.38069e-07
8.2682e-09
-1.42631e-07
8.29363e-09
-1.47208e-07
8.32284e-09
-1.51803e-07
8.3561e-09
-1.56418e-07
8.39358e-09
-1.61055e-07
8.43544e-09
-1.65716e-07
8.48179e-09
-1.70404e-07
8.53271e-09
-1.75122e-07
8.58825e-09
-1.79871e-07
8.64839e-09
-1.84654e-07
8.71313e-09
-1.89474e-07
8.7824e-09
-1.94333e-07
8.85611e-09
-1.99233e-07
8.93412e-09
-2.04176e-07
9.01629e-09
-2.09165e-07
9.10241e-09
-2.14201e-07
9.19226e-09
-2.19286e-07
9.28556e-09
-2.24422e-07
9.38201e-09
-2.2961e-07
9.48125e-09
-2.34851e-07
9.5829e-09
-2.40147e-07
9.68652e-09
-2.45497e-07
9.79161e-09
-2.50903e-07
9.89766e-09
-2.56365e-07
1.00041e-08
-2.61881e-07
1.01102e-08
-2.67452e-07
1.02153e-08
-2.73077e-07
1.03187e-08
-2.78753e-07
1.04196e-08
-2.84479e-07
1.0517e-08
-2.90253e-07
1.061e-08
-2.9607e-07
1.06976e-08
-3.01928e-07
1.07787e-08
-3.07822e-07
1.08523e-08
-3.13747e-07
1.09169e-08
-3.19698e-07
1.09714e-08
-3.25668e-07
1.10144e-08
-3.3165e-07
1.10444e-08
-3.37635e-07
1.106e-08
-3.43615e-07
1.10595e-08
-3.49581e-07
1.10413e-08
-3.55521e-07
1.10037e-08
-3.61424e-07
1.09449e-08
-3.67277e-07
1.08631e-08
-3.73067e-07
1.07565e-08
-3.78779e-07
1.0623e-08
-3.84397e-07
1.04608e-08
-3.89904e-07
1.02679e-08
-3.95284e-07
1.00423e-08
-4.00516e-07
9.78188e-09
-4.05582e-07
9.48479e-09
-4.1046e-07
9.14905e-09
-4.15129e-07
8.77275e-09
-4.19564e-07
8.35404e-09
-4.23744e-07
7.89118e-09
-4.27643e-07
7.38252e-09
-4.31236e-07
6.82656e-09
-4.34497e-07
6.22195e-09
-4.37399e-07
5.56753e-09
-4.39916e-07
4.86239e-09
-4.42019e-07
4.10584e-09
-4.43682e-07
3.29748e-09
-4.44877e-07
2.43724e-09
-4.45577e-07
1.5254e-09
-4.45755e-07
5.62613e-10
-4.45385e-07
-4.50026e-10
-4.44441e-07
-1.51098e-09
-4.42899e-07
-2.61823e-09
-4.40736e-07
-3.76923e-09
-4.37933e-07
-4.96091e-09
-4.34468e-07
-6.1896e-09
-4.30326e-07
-7.45109e-09
-4.25492e-07
-8.74053e-09
-4.19955e-07
-1.00525e-08
-4.13707e-07
-1.13809e-08
-4.06744e-07
-1.27191e-08
-3.99065e-07
-1.40599e-08
-3.90673e-07
-1.53954e-08
-3.81577e-07
-1.67173e-08
-3.71789e-07
-1.80168e-08
-3.61327e-07
-1.92846e-08
-3.50213e-07
-2.0511e-08
-3.38475e-07
-2.16861e-08
-3.26147e-07
-2.27998e-08
-3.13267e-07
-2.38417e-08
-2.99879e-07
-2.48016e-08
-2.86032e-07
-2.56694e-08
-2.71781e-07
-2.64349e-08
-2.57186e-07
-2.70886e-08
-2.4231e-07
-2.76213e-08
-2.27223e-07
-2.80245e-08
-2.11997e-07
-2.82903e-08
-1.9671e-07
-2.84116e-08
-1.8144e-07
-2.83825e-08
-1.66271e-07
-2.81978e-08
-1.51286e-07
-2.78538e-08
-1.36571e-07
-2.73478e-08
-1.22212e-07
-2.66785e-08
-1.08295e-07
-2.58462e-08
-9.49065e-08
-2.48522e-08
-8.21286e-08
-2.36997e-08
-7.00425e-08
-2.23934e-08
-5.87254e-08
-2.09394e-08
-4.82501e-08
-1.93461e-08
-3.86834e-08
-1.76235e-08
-3.00853e-08
-1.57842e-08
-2.25066e-08
-1.38438e-08
-1.59874e-08
-1.18218e-08
-1.0554e-08
-9.74307e-09
-6.21475e-09
-7.63979e-09
-2.95523e-09
-5.55519e-09
-7.30982e-10
-3.54835e-09
5.42646e-10
-1.70155e-09
1.00258e-09
-1.31021e-10
8.52869e-10
1.00073e-09
3.80964e-10
1.46944e-09
9.59759e-10
1.46842e-10
-5.14625e-10
3.55905e-10
-9.01622e-10
4.73931e-10
-8.15681e-10
3.91396e-10
-3.86594e-10
2.80453e-11
2.84538e-10
-6.72256e-10
1.11683e-09
-1.74561e-09
2.04732e-09
-3.21189e-09
3.02815e-09
-5.07814e-09
4.02354e-09
-7.34143e-09
5.00717e-09
-9.9913e-09
5.95999e-09
-1.30118e-08
6.8686e-09
-1.63829e-08
7.72396e-09
-2.00822e-08
8.52037e-09
-2.40856e-08
9.25473e-09
-2.83684e-08
9.92593e-09
-3.29055e-08
1.05344e-08
-3.76726e-08
1.10816e-08
-4.26458e-08
1.15701e-08
-4.78026e-08
1.20028e-08
-5.31215e-08
1.23832e-08
-5.85827e-08
1.27151e-08
-6.41676e-08
1.30024e-08
-6.98594e-08
1.32489e-08
-7.56426e-08
1.34588e-08
-8.15036e-08
1.36358e-08
-8.74299e-08
1.37837e-08
-9.34107e-08
1.39061e-08
-9.94366e-08
1.40064e-08
-1.05499e-07
1.40877e-08
-1.11592e-07
1.4153e-08
-1.17709e-07
1.42052e-08
-1.23845e-07
1.42466e-08
-1.29997e-07
1.42798e-08
-1.36162e-07
1.43068e-08
-1.42337e-07
1.43294e-08
-1.48522e-07
1.43495e-08
-1.54716e-07
1.43686e-08
-1.60918e-07
1.43881e-08
-1.67129e-07
1.44091e-08
-1.7335e-07
1.44328e-08
-1.79583e-07
1.44602e-08
-1.85829e-07
1.4492e-08
-1.92089e-07
1.45289e-08
-1.98367e-07
1.45716e-08
-2.04665e-07
1.46206e-08
-2.10985e-07
1.46763e-08
-2.17331e-07
1.4739e-08
-2.23704e-07
1.48091e-08
-2.30109e-07
1.48867e-08
-2.36549e-07
1.4972e-08
-2.43025e-07
1.5065e-08
-2.49543e-07
1.51657e-08
-2.56104e-07
1.52742e-08
-2.62712e-07
1.53903e-08
-2.69369e-07
1.55137e-08
-2.76079e-07
1.56444e-08
-2.82845e-07
1.5782e-08
-2.89669e-07
1.59262e-08
-2.96553e-07
1.60765e-08
-3.035e-07
1.62325e-08
-3.10512e-07
1.63936e-08
-3.1759e-07
1.65593e-08
-3.24736e-07
1.67287e-08
-3.3195e-07
1.69011e-08
-3.39234e-07
1.70757e-08
-3.46588e-07
1.72515e-08
-3.54012e-07
1.74275e-08
-3.61504e-07
1.76025e-08
-3.69064e-07
1.77753e-08
-3.7669e-07
1.79446e-08
-3.84379e-07
1.8109e-08
-3.92129e-07
1.82669e-08
-3.99936e-07
1.84166e-08
-4.07795e-07
1.85564e-08
-4.157e-07
1.86844e-08
-4.23646e-07
1.87986e-08
-4.31626e-07
1.88968e-08
-4.39632e-07
1.89769e-08
-4.47654e-07
1.90364e-08
-4.55682e-07
1.9073e-08
-4.63706e-07
1.90839e-08
-4.71713e-07
1.90664e-08
-4.7969e-07
1.90179e-08
-4.87621e-07
1.89352e-08
-4.95492e-07
1.88154e-08
-5.03284e-07
1.86555e-08
-5.1098e-07
1.84521e-08
-5.18559e-07
1.8202e-08
-5.26e-07
1.7902e-08
-5.33281e-07
1.75488e-08
-5.40377e-07
1.71388e-08
-5.47264e-07
1.66689e-08
-5.53915e-07
1.61357e-08
-5.60302e-07
1.55359e-08
-5.66396e-07
1.48665e-08
-5.72166e-07
1.41243e-08
-5.77582e-07
1.33065e-08
-5.8261e-07
1.24105e-08
-5.87217e-07
1.14338e-08
-5.91369e-07
1.03742e-08
-5.95031e-07
9.23003e-09
-5.98169e-07
7.99979e-09
-6.00746e-07
6.68253e-09
-6.02726e-07
5.27776e-09
-6.04074e-07
3.78553e-09
-6.04755e-07
2.20651e-09
-6.04735e-07
5.42008e-10
-6.03979e-07
-1.20593e-09
-6.02455e-07
-3.03451e-09
-6.00133e-07
-4.94012e-09
-5.96984e-07
-6.91826e-09
-5.92982e-07
-8.96355e-09
-5.88102e-07
-1.10697e-08
-5.82323e-07
-1.32293e-08
-5.7563e-07
-1.5434e-08
-5.68008e-07
-1.76747e-08
-5.59448e-07
-1.99409e-08
-5.49945e-07
-2.22214e-08
-5.39501e-07
-2.45038e-08
-5.28122e-07
-2.6775e-08
-5.15818e-07
-2.90208e-08
-5.02609e-07
-3.12264e-08
-4.88517e-07
-3.33762e-08
-4.73574e-07
-3.5454e-08
-4.57817e-07
-3.74432e-08
-4.4129e-07
-3.93266e-08
-4.24045e-07
-4.10872e-08
-4.06138e-07
-4.27078e-08
-3.87636e-07
-4.41714e-08
-3.6861e-07
-4.54613e-08
-3.49137e-07
-4.65616e-08
-3.29301e-07
-4.74568e-08
-3.09193e-07
-4.81328e-08
-2.88907e-07
-4.85765e-08
-2.68542e-07
-4.87763e-08
-2.48203e-07
-4.8722e-08
-2.27995e-07
-4.84055e-08
-2.08028e-07
-4.78204e-08
-1.88414e-07
-4.69624e-08
-1.69263e-07
-4.58296e-08
-1.50686e-07
-4.44225e-08
-1.32794e-07
-4.27439e-08
-1.15695e-07
-4.07994e-08
-9.94909e-08
-3.85973e-08
-8.42816e-08
-3.61487e-08
-7.01594e-08
-3.34683e-08
-5.72088e-08
-3.05741e-08
-4.55044e-08
-2.74885e-08
-3.51091e-08
-2.42392e-08
-2.60706e-08
-2.08603e-08
-1.84189e-08
-1.73948e-08
-1.21614e-08
-1.38974e-08
-7.2773e-09
-1.04393e-08
-3.71122e-09
-7.11443e-09
-1.36396e-09
-4.04881e-09
-8.22927e-11
-1.41269e-09
3.5309e-10
5.65347e-10
2.4166e-10
1.58088e-09
1.20142e-09
9.55168e-11
-6.10133e-10
1.71804e-10
-9.77909e-10
7.97341e-11
-7.23611e-10
-2.89465e-10
-1.74036e-11
-1.01592e-09
1.01099e-09
-2.15621e-09
2.25712e-09
-3.74712e-09
3.63824e-09
-5.80911e-09
5.09014e-09
-8.3493e-09
6.56374e-09
-1.13642e-08
8.02206e-09
-1.4842e-08
9.43778e-09
-1.87646e-08
1.07912e-08
-2.31094e-08
1.20688e-08
-2.78506e-08
1.32616e-08
-3.29603e-08
1.43645e-08
-3.84098e-08
1.53754e-08
-4.41698e-08
1.62944e-08
-5.02115e-08
1.71233e-08
-5.65067e-08
1.78653e-08
-6.30285e-08
1.85246e-08
-6.97513e-08
1.9106e-08
-7.6651e-08
1.96148e-08
-8.37054e-08
2.00567e-08
-9.08939e-08
2.04374e-08
-9.81977e-08
2.07626e-08
-1.056e-07
2.10381e-08
-1.13085e-07
2.12692e-08
-1.20641e-07
2.14614e-08
-1.28254e-07
2.16196e-08
-1.35915e-07
2.17487e-08
-1.43615e-07
2.1853e-08
-1.51347e-07
2.19368e-08
-1.59104e-07
2.20038e-08
-1.66882e-07
2.20576e-08
-1.74676e-07
2.21014e-08
-1.82485e-07
2.21381e-08
-1.90306e-07
2.21703e-08
-1.98137e-07
2.22004e-08
-2.0598e-07
2.22305e-08
-2.13833e-07
2.22626e-08
-2.21699e-07
2.22981e-08
-2.29577e-07
2.23387e-08
-2.37471e-07
2.23857e-08
-2.45382e-07
2.244e-08
-2.53313e-07
2.25026e-08
-2.61267e-07
2.25745e-08
-2.69247e-07
2.26561e-08
-2.77256e-07
2.27481e-08
-2.85298e-07
2.28509e-08
-2.93376e-07
2.29649e-08
-3.01494e-07
2.30901e-08
-3.09656e-07
2.32268e-08
-3.17865e-07
2.33749e-08
-3.26125e-07
2.35344e-08
-3.3444e-07
2.37052e-08
-3.42813e-07
2.38868e-08
-3.51248e-07
2.40791e-08
-3.59747e-07
2.42815e-08
-3.68315e-07
2.44935e-08
-3.76952e-07
2.47144e-08
-3.85663e-07
2.49435e-08
-3.9445e-07
2.51799e-08
-4.03313e-07
2.54227e-08
-4.12255e-07
2.56708e-08
-4.21277e-07
2.59228e-08
-4.30379e-07
2.61776e-08
-4.39561e-07
2.64337e-08
-4.48823e-07
2.66893e-08
-4.58163e-07
2.69428e-08
-4.6758e-07
2.71923e-08
-4.77071e-07
2.74358e-08
-4.86633e-07
2.76709e-08
-4.96262e-07
2.78954e-08
-5.05952e-07
2.81066e-08
-5.15698e-07
2.8302e-08
-5.25492e-07
2.84785e-08
-5.35326e-07
2.86332e-08
-5.45192e-07
2.87629e-08
-5.5508e-07
2.8864e-08
-5.64976e-07
2.8933e-08
-5.74869e-07
2.89661e-08
-5.84745e-07
2.89595e-08
-5.94587e-07
2.89089e-08
-6.0438e-07
2.88103e-08
-6.14104e-07
2.86591e-08
-6.23739e-07
2.84508e-08
-6.33264e-07
2.81808e-08
-6.42656e-07
2.78443e-08
-6.51891e-07
2.74364e-08
-6.60941e-07
2.69523e-08
-6.69779e-07
2.63869e-08
-6.78376e-07
2.57354e-08
-6.867e-07
2.49929e-08
-6.94718e-07
2.41544e-08
-7.02398e-07
2.32152e-08
-7.09702e-07
2.21707e-08
-7.16594e-07
2.10165e-08
-7.23036e-07
1.97486e-08
-7.28989e-07
1.8363e-08
-7.34411e-07
1.68563e-08
-7.39263e-07
1.52256e-08
-7.43501e-07
1.34683e-08
-7.47084e-07
1.15826e-08
-7.49968e-07
9.56723e-09
-7.52112e-07
7.42175e-09
-7.53473e-07
5.14648e-09
-7.54009e-07
2.74267e-09
-7.5368e-07
2.12561e-10
-7.52445e-07
-2.44056e-09
-7.50268e-07
-5.21226e-09
-7.47111e-07
-8.09689e-09
-7.42941e-07
-1.10875e-08
-7.37729e-07
-1.41759e-08
-7.31446e-07
-1.73524e-08
-7.2407e-07
-2.06059e-08
-7.1558e-07
-2.39239e-08
-7.05962e-07
-2.72923e-08
-6.95207e-07
-3.06958e-08
-6.83312e-07
-3.41174e-08
-6.70277e-07
-3.75387e-08
-6.56112e-07
-4.09402e-08
-6.40832e-07
-4.43008e-08
-6.24459e-07
-4.75987e-08
-6.07025e-07
-5.08106e-08
-5.88566e-07
-5.39126e-08
-5.69129e-07
-5.68801e-08
-5.48768e-07
-5.96881e-08
-5.27544e-07
-6.23112e-08
-5.05528e-07
-6.47242e-08
-4.82797e-07
-6.6902e-08
-4.59438e-07
-6.88201e-08
-4.35545e-07
-7.04551e-08
-4.11217e-07
-7.17843e-08
-3.86563e-07
-7.27869e-08
-3.61696e-07
-7.34438e-08
-3.36735e-07
-7.37377e-08
-3.11803e-07
-7.3654e-08
-2.87028e-07
-7.31805e-08
-2.6254e-07
-7.23082e-08
-2.38471e-07
-7.10309e-08
-2.14955e-07
-6.9346e-08
-1.92123e-07
-6.72544e-08
-1.70106e-07
-6.47607e-08
-1.49032e-07
-6.18736e-08
-1.29023e-07
-5.86059e-08
-1.10197e-07
-5.49753e-08
-9.26612e-08
-5.1004e-08
-7.65152e-08
-4.672e-08
-6.18459e-08
-4.21579e-08
-4.87254e-08
-3.73597e-08
-3.72082e-08
-3.23774e-08
-2.73279e-08
-2.72751e-08
-1.90923e-08
-2.21329e-08
-1.24788e-08
-1.70528e-08
-7.42779e-09
-1.21654e-08
-3.83639e-09
-7.64021e-09
-1.54994e-09
-3.69913e-09
-3.53758e-10
-6.30839e-10
3.72192e-11
1.18991e-09
1.23864e-09
2.6675e-11
-6.36808e-10
-7.2648e-11
-8.78587e-10
-4.32792e-10
-3.63461e-10
-1.1548e-09
7.04601e-10
-2.3137e-09
2.16989e-09
-3.96261e-09
3.90603e-09
-6.13597e-09
5.81159e-09
-8.85247e-09
7.80663e-09
-1.21177e-08
9.82897e-09
-1.59266e-08
1.18309e-08
-2.02655e-08
1.37767e-08
-2.51142e-08
1.56399e-08
-3.04475e-08
1.74021e-08
-3.62367e-08
1.90508e-08
-4.24509e-08
2.05787e-08
-4.90578e-08
2.19823e-08
-5.60247e-08
2.32613e-08
-6.33191e-08
2.44176e-08
-7.0909e-08
2.54552e-08
-7.87639e-08
2.63795e-08
-8.68546e-08
2.71966e-08
-9.51534e-08
2.79137e-08
-1.03635e-07
2.85382e-08
-1.12275e-07
2.90777e-08
-1.21052e-07
2.954e-08
-1.29947e-07
2.99328e-08
-1.38942e-07
3.02636e-08
-1.4802e-07
3.05396e-08
-1.57168e-07
3.07678e-08
-1.66374e-07
3.09546e-08
-1.75627e-07
3.11062e-08
-1.84919e-07
3.12284e-08
-1.94241e-07
3.13265e-08
-2.03589e-07
3.14054e-08
-2.12957e-07
3.14695e-08
-2.22342e-07
3.15229e-08
-2.31741e-07
3.15694e-08
-2.41153e-07
3.16122e-08
-2.50577e-07
3.16543e-08
-2.60013e-07
3.16984e-08
-2.69461e-07
3.17469e-08
-2.78924e-07
3.18018e-08
-2.88404e-07
3.18649e-08
-2.97901e-07
3.19379e-08
-3.07421e-07
3.2022e-08
-3.16965e-07
3.21184e-08
-3.26537e-07
3.22281e-08
-3.36141e-07
3.23519e-08
-3.4578e-07
3.24904e-08
-3.55459e-07
3.26439e-08
-3.65182e-07
3.28129e-08
-3.74952e-07
3.29975e-08
-3.84775e-07
3.31977e-08
-3.94654e-07
3.34133e-08
-4.04593e-07
3.36443e-08
-4.14596e-07
3.38901e-08
-4.24667e-07
3.41502e-08
-4.3481e-07
3.44241e-08
-4.45027e-07
3.47108e-08
-4.55323e-07
3.50096e-08
-4.65698e-07
3.53192e-08
-4.76157e-07
3.56384e-08
-4.867e-07
3.59659e-08
-4.97329e-07
3.63e-08
-5.08045e-07
3.66391e-08
-5.18849e-07
3.69813e-08
-5.2974e-07
3.73243e-08
-5.40716e-07
3.76659e-08
-5.51777e-07
3.80037e-08
-5.6292e-07
3.83349e-08
-5.7414e-07
3.86566e-08
-5.85435e-07
3.89657e-08
-5.96799e-07
3.92588e-08
-6.08224e-07
3.95323e-08
-6.19705e-07
3.97824e-08
-6.31231e-07
4.0005e-08
-6.42794e-07
4.01959e-08
-6.54381e-07
4.03505e-08
-6.65981e-07
4.04639e-08
-6.7758e-07
4.05313e-08
-6.89161e-07
4.05473e-08
-7.00708e-07
4.05065e-08
-7.12202e-07
4.04031e-08
-7.23623e-07
4.02313e-08
-7.34949e-07
3.99849e-08
-7.46156e-07
3.96577e-08
-7.57218e-07
3.92433e-08
-7.68109e-07
3.8735e-08
-7.78799e-07
3.81263e-08
-7.89257e-07
3.74104e-08
-7.99451e-07
3.65806e-08
-8.09345e-07
3.563e-08
-8.18905e-07
3.45521e-08
-8.2809e-07
3.33401e-08
-8.36863e-07
3.19879e-08
-8.45181e-07
3.0489e-08
-8.53003e-07
2.88378e-08
-8.60283e-07
2.70286e-08
-8.66976e-07
2.50565e-08
-8.73037e-07
2.2917e-08
-8.78418e-07
2.06061e-08
-8.8307e-07
1.81208e-08
-8.86946e-07
1.54588e-08
-8.89998e-07
1.26186e-08
-8.92176e-07
9.60003e-09
-8.93433e-07
6.40375e-09
-8.93723e-07
3.03186e-09
-8.92998e-07
-5.12258e-10
-8.91215e-07
-4.22373e-09
-8.88331e-07
-8.09614e-09
-8.84306e-07
-1.21214e-08
-8.79104e-07
-1.62898e-08
-8.7269e-07
-2.05895e-08
-8.65035e-07
-2.50072e-08
-8.56114e-07
-2.95274e-08
-8.45905e-07
-3.41327e-08
-8.34394e-07
-3.88036e-08
-8.21571e-07
-4.3519e-08
-8.07433e-07
-4.82553e-08
-7.91984e-07
-5.29876e-08
-7.75235e-07
-5.76888e-08
-7.57206e-07
-6.23302e-08
-7.37923e-07
-6.68818e-08
-7.17421e-07
-7.13119e-08
-6.95746e-07
-7.5588e-08
-6.72949e-07
-7.96765e-08
-6.49094e-07
-8.35433e-08
-6.24252e-07
-8.71538e-08
-5.98502e-07
-9.04738e-08
-5.71935e-07
-9.34691e-08
-5.44649e-07
-9.61065e-08
-5.1675e-07
-9.83539e-08
-4.88353e-07
-1.00181e-07
-4.59581e-07
-1.01559e-07
-4.30563e-07
-1.02462e-07
-4.01433e-07
-1.02867e-07
-3.72333e-07
-1.02754e-07
-3.43407e-07
-1.02106e-07
-3.14803e-07
-1.00912e-07
-2.86672e-07
-9.91622e-08
-2.59164e-07
-9.68541e-08
-2.32429e-07
-9.39892e-08
-2.06616e-07
-9.05742e-08
-1.81868e-07
-8.66214e-08
-1.58325e-07
-8.21491e-08
-1.36118e-07
-7.71821e-08
-1.1537e-07
-7.17518e-08
-9.61922e-08
-6.58978e-08
-7.86818e-08
-5.96683e-08
-6.29195e-08
-5.31219e-08
-4.89667e-08
-4.63303e-08
-3.68613e-08
-3.93804e-08
-2.66144e-08
-3.23798e-08
-1.82057e-08
-2.54616e-08
-1.15784e-08
-1.87927e-08
-6.63462e-09
-1.2584e-08
-3.22967e-09
-7.10408e-09
-1.1676e-09
-2.69291e-09
-1.96227e-10
2.18527e-10
1.04241e-09
-5.26198e-11
-5.8419e-10
-3.56437e-10
-5.74777e-10
-1.02646e-09
3.06564e-10
-2.15105e-09
1.82919e-09
-3.79624e-09
3.81508e-09
-6.00856e-09
6.11835e-09
-8.81752e-09
8.62055e-09
-1.2238e-08
1.12271e-08
-1.62726e-08
1.38636e-08
-2.09135e-08
1.64718e-08
-2.61445e-08
1.90076e-08
-3.19428e-08
2.14382e-08
-3.82807e-08
2.374e-08
-4.51268e-08
2.58969e-08
-5.24472e-08
2.78991e-08
-6.02067e-08
2.97418e-08
-6.83694e-08
3.1424e-08
-7.68996e-08
3.29478e-08
-8.57623e-08
3.4318e-08
-9.49237e-08
3.55409e-08
-1.04352e-07
3.66244e-08
-1.14015e-07
3.75773e-08
-1.23886e-07
3.8409e-08
-1.33938e-07
3.91293e-08
-1.44146e-07
3.9748e-08
-1.54488e-07
4.0275e-08
-1.64944e-07
4.07199e-08
-1.75497e-07
4.10922e-08
-1.8613e-07
4.14007e-08
-1.96829e-07
4.16541e-08
-2.07583e-07
4.18602e-08
-2.18381e-07
4.20266e-08
-2.29215e-07
4.21604e-08
-2.40078e-07
4.22678e-08
-2.50963e-07
4.23549e-08
-2.61867e-07
4.24269e-08
-2.72786e-07
4.24889e-08
-2.83719e-07
4.25451e-08
-2.94665e-07
4.25997e-08
-3.05623e-07
4.26561e-08
-3.16593e-07
4.27174e-08
-3.27578e-07
4.27865e-08
-3.38579e-07
4.28658e-08
-3.49598e-07
4.29574e-08
-3.6064e-07
4.30632e-08
-3.71706e-07
4.31846e-08
-3.82801e-07
4.3323e-08
-3.93928e-07
4.34794e-08
-4.05092e-07
4.36547e-08
-4.16298e-07
4.38494e-08
-4.27549e-07
4.4064e-08
-4.3885e-07
4.42987e-08
-4.50206e-07
4.45535e-08
-4.61621e-07
4.48283e-08
-4.731e-07
4.51227e-08
-4.84646e-07
4.54361e-08
-4.96263e-07
4.5768e-08
-5.07957e-07
4.61174e-08
-5.19729e-07
4.64831e-08
-5.31583e-07
4.6864e-08
-5.43523e-07
4.72586e-08
-5.5555e-07
4.76651e-08
-5.67665e-07
4.80817e-08
-5.79872e-07
4.85063e-08
-5.92169e-07
4.89365e-08
-6.04557e-07
4.93696e-08
-6.17036e-07
4.9803e-08
-6.29604e-07
5.02334e-08
-6.42258e-07
5.06576e-08
-6.54995e-07
5.10719e-08
-6.6781e-07
5.14724e-08
-6.80699e-07
5.18548e-08
-6.93655e-07
5.22148e-08
-7.06671e-07
5.25475e-08
-7.19736e-07
5.28478e-08
-7.32841e-07
5.31104e-08
-7.45975e-07
5.33294e-08
-7.59123e-07
5.34989e-08
-7.72272e-07
5.36126e-08
-7.85405e-07
5.36639e-08
-7.98503e-07
5.36457e-08
-8.11547e-07
5.35509e-08
-8.24516e-07
5.3372e-08
-8.37386e-07
5.31013e-08
-8.50132e-07
5.27308e-08
-8.62727e-07
5.22522e-08
-8.75141e-07
5.16572e-08
-8.87343e-07
5.09373e-08
-8.99301e-07
5.00839e-08
-9.10978e-07
4.90881e-08
-9.22339e-07
4.79413e-08
-9.33344e-07
4.66349e-08
-9.43952e-07
4.51601e-08
-9.54121e-07
4.35086e-08
-9.63805e-07
4.16723e-08
-9.72959e-07
3.96432e-08
-9.81535e-07
3.7414e-08
-9.89485e-07
3.49778e-08
-9.96756e-07
3.23282e-08
-1.0033e-06
2.94598e-08
-1.00906e-06
2.63678e-08
-1.01399e-06
2.30485e-08
-1.01803e-06
1.94992e-08
-1.02113e-06
1.57185e-08
-1.02324e-06
1.17064e-08
-1.0243e-06
7.46428e-09
-1.02426e-06
2.99518e-09
-1.02308e-06
-1.69608e-09
-1.0207e-06
-6.6028e-09
-1.01708e-06
-1.17163e-08
-1.01217e-06
-1.70256e-08
-1.00594e-06
-2.25178e-08
-9.98356e-07
-2.81773e-08
-9.89377e-07
-3.39865e-08
-9.78979e-07
-3.99249e-08
-9.67142e-07
-4.59698e-08
-9.5385e-07
-5.20959e-08
-9.39094e-07
-5.82752e-08
-9.22871e-07
-6.44776e-08
-9.05188e-07
-7.06703e-08
-8.86059e-07
-7.68184e-08
-8.65504e-07
-8.28848e-08
-8.43555e-07
-8.88305e-08
-8.20253e-07
-9.46147e-08
-7.95645e-07
-1.00195e-07
-7.69793e-07
-1.05529e-07
-7.42764e-07
-1.10572e-07
-7.14639e-07
-1.15279e-07
-6.85505e-07
-1.19607e-07
-6.55462e-07
-1.23512e-07
-6.24619e-07
-1.2695e-07
-5.93092e-07
-1.2988e-07
-5.61009e-07
-1.32264e-07
-5.28504e-07
-1.34064e-07
-4.9572e-07
-1.35247e-07
-4.62804e-07
-1.35783e-07
-4.29912e-07
-1.35646e-07
-3.97204e-07
-1.34815e-07
-3.64842e-07
-1.33274e-07
-3.32991e-07
-1.31013e-07
-3.01817e-07
-1.28028e-07
-2.71486e-07
-1.2432e-07
-2.42161e-07
-1.199e-07
-2.14e-07
-1.14782e-07
-1.87156e-07
-1.08993e-07
-1.61774e-07
-1.02564e-07
-1.37989e-07
-9.55371e-08
-1.15922e-07
-8.79643e-08
-9.56816e-08
-7.99089e-08
-7.73562e-08
-7.14474e-08
-6.10145e-08
-6.2672e-08
-4.67011e-08
-5.36939e-08
-3.44331e-08
-4.46478e-08
-2.41967e-08
-3.5698e-08
-1.59438e-08
-2.70456e-08
-9.58832e-09
-1.89395e-08
-5.00427e-09
-1.16881e-08
-2.02386e-09
-5.67332e-09
-4.38056e-10
-1.36728e-09
6.04355e-10
-1.37963e-10
-4.46225e-10
-6.65288e-10
-4.74581e-11
-1.67464e-09
1.31591e-09
-3.23854e-09
3.39309e-09
-5.41117e-09
5.98771e-09
-8.22998e-09
8.93716e-09
-1.17175e-08
1.2108e-08
-1.5883e-08
1.53926e-08
-2.07245e-08
1.87051e-08
-2.62304e-08
2.19777e-08
-3.23812e-08
2.51585e-08
-3.91512e-08
2.82082e-08
-4.65097e-08
3.10984e-08
-5.44224e-08
3.38096e-08
-6.28527e-08
3.63294e-08
-7.17624e-08
3.86515e-08
-8.1113e-08
4.07746e-08
-9.08659e-08
4.27007e-08
-1.00983e-07
4.44354e-08
-1.11429e-07
4.59863e-08
-1.22167e-07
4.73627e-08
-1.33165e-07
4.85752e-08
-1.44391e-07
4.96355e-08
-1.55817e-07
5.05553e-08
-1.67416e-07
5.13469e-08
-1.79164e-07
5.20225e-08
-1.91038e-07
5.25939e-08
-2.03018e-07
5.30729e-08
-2.15088e-07
5.34705e-08
-2.27232e-07
5.37975e-08
-2.39435e-07
5.40639e-08
-2.51688e-07
5.4279e-08
-2.63979e-07
5.44517e-08
-2.76301e-07
5.459e-08
-2.88648e-07
5.47015e-08
-3.01014e-07
5.4793e-08
-3.13396e-07
5.48706e-08
-3.2579e-07
5.494e-08
-3.38197e-07
5.50063e-08
-3.50615e-07
5.50739e-08
-3.63044e-07
5.5147e-08
-3.75487e-07
5.5229e-08
-3.87944e-07
5.53231e-08
-4.00419e-07
5.5432e-08
-4.12914e-07
5.55581e-08
-4.25432e-07
5.57034e-08
-4.37979e-07
5.58695e-08
-4.50557e-07
5.60578e-08
-4.63172e-07
5.62694e-08
-4.75828e-07
5.6505e-08
-4.88529e-07
5.67652e-08
-5.0128e-07
5.70502e-08
-5.14087e-07