/*--------------------------------*- C++ -*----------------------------------*\
  =========                 |
  \\      /  F ield         | OpenFOAM: The Open Source CFD Toolbox
   \\    /   O peration     | Website:  https://openfoam.org
    \\  /    A nd           | Version:  7
     \\/     M anipulation  |
\*---------------------------------------------------------------------------*/
FoamFile
{
    version     2.0;
    format      ascii;
    class       surfaceScalarField;
    location    "0.375";
    object      phi;
}
// * * * * * * * * * * * * * * * * * * * * * * * * * * * * * * * * * * * * * //

dimensions      [0 3 -1 0 0 0 0];

internalField   nonuniform List<scalar> 
101920
(
-9.50806e-14
1.14812e-13
2.64506e-14
-1.19441e-13
1.5982e-13
-1.36004e-13
4.83303e-13
-3.2103e-13
9.57305e-13
-4.74522e-13
1.56501e-12
-6.09687e-13
2.28793e-12
-7.22415e-13
3.10175e-12
-8.14337e-13
3.98817e-12
-8.85282e-13
4.92763e-12
-9.39328e-13
5.90438e-12
-9.77003e-13
6.90394e-12
-9.99808e-13
7.91256e-12
-1.00978e-12
8.92033e-12
-1.00728e-12
9.91539e-12
-9.95665e-13
1.08903e-11
-9.74687e-13
1.18363e-11
-9.47107e-13
1.2748e-11
-9.1277e-13
1.36198e-11
-8.71828e-13
1.44454e-11
-8.27046e-13
1.52231e-11
-7.77e-13
1.59485e-11
-7.23763e-13
1.66184e-11
-6.69061e-13
1.72317e-11
-6.11842e-13
1.77856e-11
-5.53479e-13
1.82801e-11
-4.94184e-13
1.87149e-11
-4.33587e-13
1.90885e-11
-3.73394e-13
1.94022e-11
-3.13242e-13
1.96563e-11
-2.53236e-13
1.98508e-11
-1.94501e-13
1.99883e-11
-1.36383e-13
2.00696e-11
-7.99783e-14
2.00953e-11
-2.65131e-14
2.00681e-11
2.57092e-14
1.99898e-11
7.66473e-14
1.98624e-11
1.24873e-13
1.96896e-11
1.71335e-13
1.94731e-11
2.16043e-13
1.92144e-11
2.57649e-13
1.8917e-11
2.96868e-13
1.85842e-11
3.33671e-13
1.82179e-11
3.66605e-13
1.78214e-11
3.96252e-13
1.73975e-11
4.2366e-13
1.69483e-11
4.48166e-13
1.64772e-11
4.69769e-13
1.5988e-11
4.89356e-13
1.54825e-11
5.0603e-13
1.49638e-11
5.18971e-13
1.44355e-11
5.29064e-13
1.39001e-11
5.36316e-13
1.33594e-11
5.40106e-13
1.28168e-11
5.41528e-13
1.2276e-11
5.41328e-13
1.1739e-11
5.38378e-13
1.12082e-11
5.31879e-13
1.06867e-11
5.22341e-13
1.01764e-11
5.10286e-13
9.67938e-12
4.95869e-13
9.19849e-12
4.79633e-13
8.73599e-12
4.61941e-13
8.29334e-12
4.4218e-13
7.87227e-12
4.20064e-13
7.475e-12
3.96287e-13
7.10322e-12
3.71286e-13
6.75794e-12
3.44902e-13
6.44075e-12
3.17189e-13
6.15358e-12
2.8831e-13
5.8972e-12
2.58135e-13
5.67201e-12
2.26594e-13
5.47918e-12
1.94049e-13
5.31999e-12
1.60756e-13
5.19505e-12
1.26339e-13
5.10446e-12
9.06433e-14
5.04847e-12
5.44707e-14
5.02748e-12
1.88033e-14
5.04203e-12
-1.62572e-14
5.09265e-12
-5.12636e-14
5.1795e-12
-8.65107e-14
5.30212e-12
-1.21845e-13
5.45949e-12
-1.56936e-13
5.6512e-12
-1.91524e-13
5.87719e-12
-2.25464e-13
6.13664e-12
-2.58621e-13
6.42833e-12
-2.91053e-13
6.75095e-12
-3.22771e-13
7.10382e-12
-3.53564e-13
7.48595e-12
-3.83108e-13
7.89551e-12
-4.10976e-13
8.33114e-12
-4.37011e-13
8.79137e-12
-4.61159e-13
9.27467e-12
-4.83255e-13
9.77917e-12
-5.03459e-13
1.03025e-11
-5.22053e-13
1.0843e-11
-5.39185e-13
1.13989e-11
-5.54902e-13
1.19674e-11
-5.68741e-13
1.25461e-11
-5.80074e-13
1.31329e-11
-5.88564e-13
1.37257e-11
-5.93871e-13
1.4323e-11
-5.9638e-13
1.49222e-11
-5.97167e-13
1.55201e-11
-5.96514e-13
1.61143e-11
-5.93827e-13
1.67016e-11
-5.88133e-13
1.72794e-11
-5.78824e-13
1.78454e-11
-5.66315e-13
1.83963e-11
-5.51044e-13
1.89297e-11
-5.33042e-13
1.94431e-11
-5.12474e-13
1.9933e-11
-4.89299e-13
2.03967e-11
-4.63302e-13
2.08317e-11
-4.34594e-13
2.12347e-11
-4.03126e-13
2.16032e-11
-3.68754e-13
2.19347e-11
-3.31772e-13
2.22262e-11
-2.92215e-13
2.24762e-11
-2.50075e-13
2.26823e-11
-2.05831e-13
2.28413e-11
-1.59387e-13
2.29511e-11
-1.10395e-13
2.30103e-11
-5.92565e-14
2.30168e-11
-6.44248e-15
2.29696e-11
4.78888e-14
2.28663e-11
1.03551e-13
2.27046e-11
1.60892e-13
2.24836e-11
2.20139e-13
2.22029e-11
2.80589e-13
2.18616e-11
3.4138e-13
2.1459e-11
4.02409e-13
2.09954e-11
4.63542e-13
2.04705e-11
5.24435e-13
1.98849e-11
5.85146e-13
1.92401e-11
6.45231e-13
1.85369e-11
7.03571e-13
1.77769e-11
7.5969e-13
1.69632e-11
8.13473e-13
1.60986e-11
8.64381e-13
1.5186e-11
9.11982e-13
1.42295e-11
9.55896e-13
1.32342e-11
9.95229e-13
1.2205e-11
1.02918e-12
1.11482e-11
1.05718e-12
1.00718e-11
1.0778e-12
8.98326e-12
1.08923e-12
7.89138e-12
1.09086e-12
6.8077e-12
1.0824e-12
5.74461e-12
1.06249e-12
4.71494e-12
1.02942e-12
3.73405e-12
9.81296e-13
2.81917e-12
9.15783e-13
1.98855e-12
8.30804e-13
1.26292e-12
7.25057e-13
6.65094e-13
5.97704e-13
2.16842e-13
4.48594e-13
-6.36689e-14
2.80337e-13
-1.65293e-13
1.01019e-13
-1.08094e-13
-5.75266e-14
-1.08476e-13
-1.91022e-13
3.07563e-13
8.96349e-15
-3.19428e-13
6.59152e-13
-7.86323e-13
1.67876e-12
-1.34213e-12
3.07071e-12
-1.8669e-12
4.78759e-12
-2.32663e-12
6.78151e-12
-2.71651e-12
9.00387e-12
-3.03647e-12
1.14084e-11
-3.29033e-12
1.39504e-11
-3.482e-12
1.65901e-11
-3.61641e-12
1.92893e-11
-3.69924e-12
2.20154e-11
-3.73383e-12
2.47353e-11
-3.7276e-12
2.74238e-11
-3.68299e-12
3.0055e-11
-3.60647e-12
3.26096e-11
-3.50128e-12
3.50702e-11
-3.37034e-12
3.74178e-11
-3.21997e-12
3.96413e-11
-3.05075e-12
4.1728e-11
-2.86534e-12
4.36679e-11
-2.66744e-12
4.54556e-11
-2.45832e-12
4.70832e-11
-2.24155e-12
4.85469e-11
-2.01906e-12
4.98441e-11
-1.79173e-12
5.0971e-11
-1.56239e-12
5.19285e-11
-1.33195e-12
5.27168e-11
-1.10194e-12
5.33353e-11
-8.74688e-13
5.37882e-11
-6.4948e-13
5.40785e-11
-4.27394e-13
5.42087e-11
-2.1112e-13
5.41855e-11
-8.1885e-16
5.40132e-11
2.02248e-13
5.36953e-11
3.96189e-13
5.32397e-11
5.82036e-13
5.26537e-11
7.59858e-13
5.19428e-11
9.27727e-13
5.11154e-11
1.08567e-12
5.0179e-11
1.23404e-12
4.91398e-11
1.3715e-12
4.80069e-11
1.49808e-12
4.67897e-11
1.61446e-12
4.54947e-11
1.71931e-12
4.41301e-11
1.81244e-12
4.27059e-11
1.89492e-12
4.12292e-11
1.96617e-12
3.97073e-11
2.02552e-12
3.81503e-11
2.07411e-12
3.65665e-11
2.11231e-12
3.49633e-11
2.13889e-12
3.33494e-11
2.15372e-12
3.1733e-11
2.1579e-12
3.01209e-11
2.15176e-12
2.85207e-11
2.13549e-12
2.69412e-11
2.1098e-12
2.53898e-11
2.07434e-12
2.38722e-11
2.02854e-12
2.23952e-11
1.9734e-12
2.09661e-11
1.91017e-12
1.95901e-11
1.83903e-12
1.82729e-11
1.76002e-12
1.70208e-11
1.67368e-12
1.5839e-11
1.58043e-12
1.47317e-11
1.48015e-12
1.37033e-11
1.37334e-12
1.27585e-11
1.26138e-12
1.19014e-11
1.14488e-12
1.11347e-11
1.0236e-12
1.04615e-11
8.97947e-13
9.88496e-12
7.68983e-13
9.40699e-12
6.37423e-13
9.0295e-12
5.03413e-13
8.75484e-12
3.66998e-13
8.58464e-12
2.2834e-13
8.51892e-12
8.77382e-14
8.55761e-12
-5.40031e-14
8.7015e-12
-1.95707e-13
8.95124e-12
-3.36617e-13
9.3062e-12
-4.76737e-13
9.76443e-12
-6.15949e-13
1.03244e-11
-7.53229e-13
1.09849e-11
-8.87499e-13
1.17437e-11
-1.01843e-12
1.25981e-11
-1.14603e-12
1.3545e-11
-1.26996e-12
1.45817e-11
-1.3896e-12
1.57049e-11
-1.50468e-12
1.69098e-11
-1.61497e-12
1.81923e-11
-1.71968e-12
1.95482e-11
-1.81788e-12
2.09725e-11
-1.90899e-12
2.246e-11
-1.99277e-12
2.40046e-11
-2.06892e-12
2.56009e-11
-2.13677e-12
2.7244e-11
-2.19634e-12
2.89269e-11
-2.24828e-12
3.06428e-11
-2.29263e-12
3.23854e-11
-2.32883e-12
3.41471e-11
-2.35589e-12
3.59213e-11
-2.37269e-12
3.77012e-11
-2.37915e-12
3.94793e-11
-2.37566e-12
4.12488e-11
-2.36216e-12
4.30011e-11
-2.3386e-12
4.47278e-11
-2.30465e-12
4.64214e-11
-2.25979e-12
4.80741e-11
-2.20396e-12
4.96777e-11
-2.13707e-12
5.12246e-11
-2.05914e-12
5.27059e-11
-1.97055e-12
5.41136e-11
-1.87123e-12
5.54406e-11
-1.76096e-12
5.66787e-11
-1.64028e-12
5.78198e-11
-1.50957e-12
5.88567e-11
-1.36888e-12
5.97816e-11
-1.21833e-12
6.05877e-11
-1.05765e-12
6.12691e-11
-8.8725e-13
6.18185e-11
-7.08424e-13
6.22294e-11
-5.2156e-13
6.24963e-11
-3.26544e-13
6.26136e-11
-1.24049e-13
6.25766e-11
8.50822e-14
6.23808e-11
3.00192e-13
6.20217e-11
5.20426e-13
6.14955e-11
7.45251e-13
6.08002e-11
9.7439e-13
5.99339e-11
1.20649e-12
5.88955e-11
1.43987e-12
5.7685e-11
1.67372e-12
5.63032e-11
1.90673e-12
5.47512e-11
2.13707e-12
5.3032e-11
2.36356e-12
5.115e-11
2.58474e-12
4.91103e-11
2.79847e-12
4.692e-11
3.00313e-12
4.45876e-11
3.19719e-12
4.21225e-11
3.37802e-12
3.95363e-11
3.5428e-12
3.68429e-11
3.68927e-12
3.40576e-11
3.81472e-12
3.11978e-11
3.916e-12
2.82844e-11
3.9901e-12
2.53409e-11
4.033e-12
2.23927e-11
4.03989e-12
1.94686e-11
4.00663e-12
1.66013e-11
3.92948e-12
1.38263e-11
3.80369e-12
1.1183e-11
3.62363e-12
8.71474e-12
3.38384e-12
6.46703e-12
3.07927e-12
4.48741e-12
2.7053e-12
2.82439e-12
2.26024e-12
1.52273e-12
1.74921e-12
6.13994e-13
1.18857e-12
1.02278e-13
6.12852e-13
-5.45154e-14
9.98493e-14
-1.62812e-13
1.15819e-13
1.8913e-13
5.86741e-13
-7.91071e-13
1.67066e-12
-1.87184e-12
3.33215e-12
-3.0049e-12
5.52991e-12
-4.06509e-12
8.20336e-12
-5.00008e-12
1.1285e-11
-5.7967e-12
1.47041e-11
-6.45536e-12
1.83933e-11
-6.98045e-12
2.22889e-11
-7.37832e-12
2.63292e-11
-7.65883e-12
3.04602e-11
-7.82944e-12
3.46282e-11
-7.90262e-12
3.87881e-11
-7.88674e-12
4.28961e-11
-7.79269e-12
4.69163e-11
-7.62845e-12
5.08168e-11
-7.40123e-12
5.45664e-11
-7.12126e-12
5.81423e-11
-6.7945e-12
6.15222e-11
-6.4282e-12
6.46866e-11
-6.02905e-12
6.76215e-11
-5.60102e-12
7.0314e-11
-5.15038e-12
7.27543e-11
-4.68201e-12
7.49362e-11
-4.19941e-12
7.68527e-11
-3.70798e-12
7.85012e-11
-3.21072e-12
7.98812e-11
-2.71047e-12
8.09916e-11
-2.21221e-12
8.18355e-11
-1.71789e-12
8.24169e-11
-1.22956e-12
8.27383e-11
-7.50855e-13
8.2807e-11
-2.82545e-13
8.26309e-11
1.73754e-13
8.22165e-11
6.14081e-13
8.15734e-11
1.03728e-12
8.07122e-11
1.44302e-12
7.96418e-11
1.82904e-12
7.8374e-11
2.19459e-12
7.69219e-11
2.5393e-12
7.52957e-11
2.86086e-12
7.35074e-11
3.15871e-12
7.15711e-11
3.43378e-12
6.94993e-11
3.6851e-12
6.73051e-11
3.9118e-12
6.5003e-11
4.11464e-12
6.26062e-11
4.2931e-12
6.0127e-11
4.44579e-12
5.75796e-11
4.5734e-12
5.49781e-11
4.67671e-12
5.23342e-11
4.75534e-12
4.96619e-11
4.80972e-12
4.69759e-11
4.84063e-12
4.42884e-11
4.84761e-12
4.16107e-11
4.83047e-12
3.89558e-11
4.79062e-12
3.63357e-11
4.72938e-12
3.37618e-11
4.64681e-12
3.12455e-11
4.54331e-12
2.8798e-11
4.42023e-12
2.64295e-11
4.27833e-12
2.41492e-11
4.11804e-12
2.1967e-11
3.94068e-12
1.98927e-11
3.74763e-12
1.79339e-11
3.53927e-12
1.60984e-11
3.31604e-12
1.43943e-11
3.0791e-12
1.28281e-11
2.82983e-12
1.14057e-11
2.56921e-12
1.01328e-11
2.2981e-12
9.01485e-12
2.01769e-12
8.05641e-12
1.729e-12
7.26047e-12
1.43295e-12
6.63012e-12
1.13123e-12
6.16888e-12
8.25584e-13
5.87942e-12
5.16661e-13
5.76285e-12
2.04476e-13
5.81961e-12
-1.1009e-13
6.04988e-12
-4.25212e-13
6.4532e-12
-7.3936e-13
7.02869e-12
-1.05165e-12
7.77478e-12
-1.36127e-12
8.68916e-12
-1.66681e-12
9.76901e-12
-1.96678e-12
1.10106e-11
-2.26028e-12
1.24099e-11
-2.54639e-12
1.39624e-11
-2.82386e-12
1.56627e-11
-3.09148e-12
1.75053e-11
-3.34839e-12
1.94836e-11
-3.59389e-12
2.15911e-11
-3.82675e-12
2.38204e-11
-4.04575e-12
2.61635e-11
-4.25029e-12
2.8612e-11
-4.4398e-12
3.11568e-11
-4.61336e-12
3.37886e-11
-4.76963e-12
3.64979e-11
-4.90745e-12
3.92745e-11
-5.02652e-12
4.21081e-11
-5.12664e-12
4.49885e-11
-5.20733e-12
4.79039e-11
-5.26846e-12
5.08419e-11
-5.3093e-12
5.3791e-11
-5.3285e-12
5.67393e-11
-5.32522e-12
5.96752e-11
-5.29887e-12
6.25862e-11
-5.24938e-12
6.5459e-11
-5.177e-12
6.82809e-11
-5.0812e-12
7.10392e-11
-4.9615e-12
7.3721e-11
-4.81807e-12
7.63132e-11
-4.65088e-12
7.88026e-11
-4.45995e-12
8.11766e-11
-4.24553e-12
8.34223e-11
-4.00735e-12
8.55272e-11
-3.74569e-12
8.74789e-11
-3.46163e-12
8.92653e-11
-3.15555e-12
9.08746e-11
-2.82777e-12
9.22953e-11
-2.47887e-12
9.35163e-11
-2.10916e-12
9.45273e-11
-1.71977e-12
9.53186e-11
-1.31251e-12
9.58805e-11
-8.88337e-13
9.62039e-11
-4.47964e-13
9.62809e-11
7.0958e-15
9.61047e-11
4.75409e-13
9.56692e-11
9.55617e-13
9.49694e-11
1.44547e-12
9.40006e-11
1.94291e-12
9.27597e-11
2.44634e-12
9.12459e-11
2.95308e-12
8.94592e-11
3.46022e-12
8.74006e-11
3.96533e-12
8.50732e-11
4.46504e-12
8.24815e-11
4.95553e-12
7.96318e-11
5.4338e-12
7.65331e-11
5.89647e-12
7.31969e-11
6.33918e-12
6.9636e-11
6.75762e-12
6.58659e-11
7.1474e-12
6.19062e-11
7.5029e-12
5.77784e-11
7.81802e-12
5.3507e-11
8.08696e-12
4.912e-11
8.30335e-12
4.46494e-11
8.46008e-12
4.01309e-11
8.54996e-12
3.5605e-11
8.5651e-12
3.11165e-11
8.49623e-12
2.67138e-11
8.33364e-12
2.24495e-11
8.06823e-12
1.83822e-11
7.69079e-12
1.45744e-11
7.19174e-12
1.10903e-11
6.56321e-12
7.99517e-12
5.80044e-12
5.35266e-12
4.90344e-12
3.21863e-12
3.88336e-12
1.63274e-12
2.77356e-12
6.04647e-13
1.64073e-12
9.77137e-14
6.07531e-13
-6.46071e-14
2.83496e-13
-9.15659e-14
1.16691e-12
-1.67621e-12
2.76327e-12
-3.46945e-12
5.06258e-12
-5.30432e-12
8.01361e-12
-7.01775e-12
1.15481e-11
-8.53384e-12
1.55835e-11
-9.83198e-12
2.0037e-11
-1.09088e-11
2.4826e-11
-1.17689e-11
2.98692e-11
-1.24227e-11
3.50933e-11
-1.28815e-11
4.04252e-11
-1.31617e-11
4.58011e-11
-1.32774e-11
5.116e-11
-1.32457e-11
5.64483e-11
-1.30817e-11
6.16197e-11
-1.2798e-11
6.66282e-11
-1.2411e-11
7.14373e-11
-1.19317e-11
7.60144e-11
-1.13722e-11
8.03298e-11
-1.07451e-11
8.43603e-11
-1.00596e-11
8.80847e-11
-9.32596e-12
9.14861e-11
-8.55333e-12
9.45528e-11
-7.74862e-12
9.72733e-11
-6.92062e-12
9.96409e-11
-6.07618e-12
1.01651e-10
-5.22092e-12
1.03301e-10
-4.36202e-12
1.04592e-10
-3.50429e-12
1.05527e-10
-2.65207e-12
1.0611e-10
-1.81172e-12
1.06347e-10
-9.87017e-13
1.06247e-10
-1.80604e-13
1.05818e-10
6.02964e-13
1.05071e-10
1.3606e-12
1.04019e-10
2.09022e-12
1.02673e-10
2.78823e-12
1.01049e-10
3.45237e-12
9.91616e-11
4.08195e-12
9.70262e-11
4.67456e-12
9.46586e-11
5.22795e-12
9.20766e-11
5.74163e-12
8.92964e-11
6.21435e-12
8.63354e-11
6.64485e-12
8.32131e-11
7.03362e-12
7.99474e-11
7.38038e-12
7.65556e-11
7.68383e-12
7.30565e-11
7.94394e-12
6.94692e-11
8.16129e-12
6.58112e-11
8.33519e-12
6.21e-11
8.46553e-12
5.83543e-11
8.55398e-12
5.45926e-11
8.6014e-12
5.08315e-11
8.60764e-12
4.70887e-11
8.57336e-12
4.33813e-11
8.49966e-12
3.97241e-11
8.38735e-12
3.6133e-11
8.23762e-12
3.26243e-11
8.05227e-12
2.92124e-11
7.83276e-12
2.59113e-11
7.5799e-12
2.27344e-11
7.29507e-12
1.96955e-11
6.98034e-12
1.68063e-11
6.63725e-12
1.40779e-11
6.26702e-12
1.15213e-11
5.87154e-12
9.14757e-12
5.45279e-12
6.96534e-12
5.01218e-12
4.98249e-12
4.55148e-12
3.2073e-12
4.07292e-12
1.64712e-12
3.57854e-12
3.07983e-13
3.06973e-12
-8.05059e-13
2.54788e-12
-1.68759e-12
2.01531e-12
-2.33598e-12
1.47454e-12
-2.74746e-12
9.27535e-13
-2.9197e-12
3.75907e-13
-2.85112e-12
-1.78621e-13
-2.54174e-12
-7.34052e-13
-1.99291e-12
-1.28838e-12
-1.20608e-12
-1.83947e-12
-1.82812e-13
-2.38512e-12
1.0741e-12
-2.9234e-12
2.56028e-12
-3.45242e-12
4.27076e-12
-3.97039e-12
6.2005e-12
-4.47546e-12
8.34316e-12
-4.96566e-12
1.06912e-11
-5.4393e-12
1.32366e-11
-5.89456e-12
1.59709e-11
-6.32943e-12
1.88853e-11
-6.74201e-12
2.19695e-11
-7.13054e-12
2.52125e-11
-7.49363e-12
2.86033e-11
-7.82999e-12
3.21301e-11
-8.13825e-12
3.578e-11
-8.41726e-12
3.95391e-11
-8.66565e-12
4.33936e-11
-8.88175e-12
4.73295e-11
-9.06413e-12
5.13324e-11
-9.21134e-12
5.53872e-11
-9.32283e-12
5.94776e-11
-9.3984e-12
6.35871e-11
-9.43681e-12
6.76994e-11
-9.4367e-12
7.17981e-11
-9.39714e-12
7.58659e-11
-9.31738e-12
7.98858e-11
-9.19713e-12
8.38406e-11
-9.03599e-12
8.77124e-11
-8.8333e-12
9.14838e-11
-8.58917e-12
9.51371e-11
-8.30396e-12
9.86543e-11
-7.97742e-12
1.02019e-10
-7.60976e-12
1.05213e-10
-7.20151e-12
1.08219e-10
-6.75278e-12
1.11021e-10
-6.26435e-12
1.13602e-10
-5.7373e-12
1.15947e-10
-5.17242e-12
1.18039e-10
-4.57107e-12
1.19864e-10
-3.93467e-12
1.21408e-10
-3.26423e-12
1.22656e-10
-2.56165e-12
1.23598e-10
-1.82963e-12
1.2422e-10
-1.07026e-12
1.24512e-10
-2.85525e-13
1.24465e-10
5.21882e-13
1.2407e-10
1.34947e-12
1.2332e-10
2.19421e-12
1.22212e-10
3.05185e-12
1.20739e-10
3.9185e-12
1.18901e-10
4.79059e-12
1.16698e-10
5.66341e-12
1.14131e-10
6.53185e-12
1.11205e-10
7.39089e-12
1.07926e-10
8.23467e-12
1.04303e-10
9.05686e-12
1.00348e-10
9.85137e-12
9.60766e-11
1.06115e-11
9.15059e-11
1.13291e-11
8.66566e-11
1.1996e-11
8.15542e-11
1.2604e-11
7.62284e-11
1.31437e-11
7.07117e-11
1.36042e-11
6.50408e-11
1.39745e-11
5.9258e-11
1.42435e-11
5.34099e-11
1.43987e-11
4.75476e-11
1.44269e-11
4.17286e-11
1.43148e-11
3.60155e-11
1.40476e-11
3.04746e-11
1.361e-11
2.51772e-11
1.29879e-11
2.02002e-11
1.21687e-11
1.56216e-11
1.11422e-11
1.15187e-11
9.9032e-12
7.96595e-12
8.45617e-12
5.02904e-12
6.82118e-12
2.75709e-12
5.04613e-12
1.1745e-12
3.22339e-12
2.72117e-13
1.5104e-12
2.07865e-13
4.56349e-13
-5.48179e-13
1.72411e-12
-2.94465e-12
3.83498e-12
-5.58073e-12
6.74875e-12
-8.21969e-12
1.04022e-11
-1.067e-11
1.47118e-11
-1.28438e-11
1.9588e-11
-1.47087e-11
2.49368e-11
-1.62577e-11
3.06631e-11
-1.74966e-11
3.66775e-11
-1.84365e-11
4.28914e-11
-1.90956e-11
4.92233e-11
-1.94932e-11
5.55966e-11
-1.96512e-11
6.19407e-11
-1.95917e-11
6.81945e-11
-1.93341e-11
7.42983e-11
-1.89015e-11
8.02014e-11
-1.83134e-11
8.58587e-11
-1.75876e-11
9.12287e-11
-1.67429e-11
9.62782e-11
-1.57944e-11
1.00977e-10
-1.47585e-11
1.053e-10
-1.36499e-11
1.09228e-10
-1.24808e-11
1.12744e-10
-1.12645e-11
1.15835e-10
-1.00121e-11
1.18493e-10
-8.73336e-12
1.20712e-10
-7.43971e-12
1.22489e-10
-6.13984e-12
1.23825e-10
-4.8407e-12
1.24723e-10
-3.55109e-12
1.25187e-10
-2.27797e-12
1.25227e-10
-1.02694e-12
1.24852e-10
1.94746e-13
1.24072e-10
1.3817e-12
1.22902e-10
2.5304e-12
1.21357e-10
3.63578e-12
1.19451e-10
4.69339e-12
1.17203e-10
5.70056e-12
1.14632e-10
6.65377e-12
1.11755e-10
7.55003e-12
1.08594e-10
8.38806e-12
1.05171e-10
9.16559e-12
1.01504e-10
9.87999e-12
9.76177e-11
1.05308e-11
9.35348e-11
1.11176e-11
8.92767e-11
1.16388e-11
8.48661e-11
1.20938e-11
8.0327e-11
1.24832e-11
7.56815e-11
1.28068e-11
7.09521e-11
1.30641e-11
6.61626e-11
1.32556e-11
6.13351e-11
1.33823e-11
5.64912e-11
1.34449e-11
5.16528e-11
1.34447e-11
4.68422e-11
1.33834e-11
4.20801e-11
1.32619e-11
3.73859e-11
1.30812e-11
3.27798e-11
1.28434e-11
2.82815e-11
1.25508e-11
2.39086e-11
1.22053e-11
1.9679e-11
1.18087e-11
1.56105e-11
1.13637e-11
1.17192e-11
1.08726e-11
8.01983e-12
1.03374e-11
4.52697e-12
9.76043e-12
1.25454e-12
9.1447e-12
-1.78469e-12
8.49302e-12
-4.5794e-12
7.8076e-12
-7.11888e-12
7.09125e-12
-9.393e-12
6.34725e-12
-1.13935e-11
5.57854e-12
-1.31128e-11
4.78797e-12
-1.45436e-11
3.9784e-12
-1.56797e-11
3.15267e-12
-1.65174e-11
2.3135e-12
-1.70534e-11
1.46387e-12
-1.7285e-11
6.0724e-13
-1.72099e-11
-2.53201e-13
-1.68282e-11
-1.11479e-12
-1.61413e-11
-1.97485e-12
-1.51509e-11
-2.83012e-12
-1.38593e-11
-3.67698e-12
-1.22701e-11
-4.51257e-12
-1.03889e-11
-5.33413e-12
-8.22151e-12
-6.13852e-12
-5.77422e-12
-6.92275e-12
-3.05519e-12
-7.68411e-12
-7.36938e-14
-8.42017e-12
3.1603e-12
-9.12817e-12
6.63623e-12
-9.80493e-12
1.03429e-11
-1.04478e-11
1.42671e-11
-1.10546e-11
1.83951e-11
-1.16226e-11
2.27133e-11
-1.21492e-11
2.72065e-11
-1.26319e-11
3.18591e-11
-1.30692e-11
3.66541e-11
-1.34595e-11
4.15739e-11
-1.38007e-11
4.66009e-11
-1.40905e-11
5.17163e-11
-1.4327e-11
5.69007e-11
-1.45081e-11
6.21352e-11
-1.46329e-11
6.73992e-11
-1.47001e-11
7.26719e-11
-1.47083e-11
7.79324e-11
-1.46564e-11
8.31587e-11
-1.45434e-11
8.83299e-11
-1.43683e-11
9.34249e-11
-1.41304e-11
9.84208e-11
-1.38293e-11
1.03296e-10
-1.34646e-11
1.08028e-10
-1.30367e-11
1.12596e-10
-1.25456e-11
1.16977e-10
-1.19911e-11
1.2115e-10
-1.13743e-11
1.25093e-10
-1.06964e-11
1.28786e-10
-9.9578e-12
1.32208e-10
-9.15973e-12
1.35339e-10
-8.30389e-12
1.38161e-10
-7.39219e-12
1.40653e-10
-6.42705e-12
1.42799e-10
-5.41075e-12
1.44581e-10
-4.34538e-12
1.45985e-10
-3.23422e-12
1.46996e-10
-2.08137e-12
1.47601e-10
-8.90286e-13
1.47787e-10
3.35414e-13
1.47545e-10
1.59117e-12
1.46866e-10
2.87229e-12
1.45744e-10
4.17335e-12
1.44175e-10
5.48791e-12
1.42156e-10
6.80974e-12
1.39687e-10
8.13242e-12
1.36771e-10
9.44834e-12
1.33412e-10
1.07492e-11
1.29619e-10
1.20268e-11
1.25404e-10
1.3272e-11
1.20781e-10
1.44747e-11
1.15769e-10
1.56242e-11
1.10389e-10
1.67095e-11
1.04667e-10
1.7718e-11
9.86338e-11
1.86365e-11
9.23249e-11
1.94515e-11
8.57799e-11
2.01484e-11
7.90441e-11
2.07105e-11
7.21675e-11
2.11207e-11
6.52056e-11
2.13616e-11
5.82196e-11
2.14142e-11
5.1276e-11
2.12588e-11
4.44475e-11
2.08757e-11
3.78119e-11
2.02453e-11
3.14516e-11
1.93484e-11
2.54524e-11
1.81681e-11
1.99022e-11
1.66926e-11
1.48881e-11
1.49173e-11
1.04945e-11
1.28501e-11
6.79768e-12
1.05188e-11
3.86161e-12
7.98317e-12
1.73348e-12
5.3518e-12
4.41286e-13
2.80271e-12
6.49143e-13
6.04563e-13
-1.15459e-12
2.22964e-12
-4.57002e-12
4.82337e-12
-8.17464e-12
8.30963e-12
-1.17053e-11
1.26015e-11
-1.49619e-11
1.7604e-11
-1.78465e-11
2.32165e-11
-2.03213e-11
2.93352e-11
-2.23776e-11
3.58585e-11
-2.40195e-11
4.26854e-11
-2.52634e-11
4.97205e-11
-2.61299e-11
5.68729e-11
-2.66451e-11
6.4057e-11
-2.68369e-11
7.11975e-11
-2.67312e-11
7.82205e-11
-2.63579e-11
8.50618e-11
-2.57439e-11
9.16646e-11
-2.49151e-11
9.79753e-11
-2.38985e-11
1.03949e-10
-2.27163e-11
1.09546e-10
-2.13913e-11
1.14731e-10
-1.9945e-11
1.19477e-10
-1.83962e-11
1.2376e-10
-1.67639e-11
1.27561e-10
-1.50657e-11
1.30865e-10
-1.33159e-11
1.33661e-10
-1.15302e-11
1.35944e-10
-9.7229e-12
1.3771e-10
-7.90542e-12
1.38961e-10
-6.09041e-12
1.39697e-10
-4.28878e-12
1.39929e-10
-2.50889e-12
1.39662e-10
-7.60593e-13
1.38909e-10
9.46814e-13
1.37684e-10
2.60678e-12
1.36002e-10
4.21221e-12
1.3388e-10
5.75649e-12
1.31338e-10
7.23512e-12
1.28397e-10
8.64277e-12
1.25077e-10
9.97401e-12
1.21401e-10
1.12258e-11
1.17394e-10
1.23954e-11
1.13079e-10
1.3479e-11
1.08484e-10
1.44747e-11
1.03633e-10
1.53813e-11
9.85541e-11
1.61968e-11
9.3273e-11
1.69196e-11
8.78175e-11
1.75497e-11
8.22149e-11
1.80865e-11
7.6491e-11
1.85296e-11
7.06737e-11
1.88798e-11
6.4791e-11
1.91381e-11
5.88691e-11
1.93046e-11
5.29338e-11
1.93803e-11
4.70116e-11
1.93673e-11
4.11278e-11
1.92675e-11
3.53069e-11
1.90825e-11
2.95735e-11
1.88144e-11
2.39513e-11
1.8466e-11
1.8463e-11
1.80397e-11
1.31301e-11
1.7538e-11
7.97411e-12
1.69642e-11
3.01601e-12
1.6322e-11
-1.72561e-12
1.56142e-11
-6.23257e-12
1.48439e-11
-1.04869e-11
1.4015e-11
-1.44726e-11
1.3131e-11
-1.81751e-11
1.21957e-11
-2.15801e-11
1.12128e-11
-2.46744e-11
1.01866e-11
-2.74463e-11
9.12084e-12
-2.9886e-11
8.01922e-12
-3.19845e-11
6.88629e-12
-3.37333e-11
5.72682e-12
-3.51252e-11
4.54478e-12
-3.6155e-11
3.34372e-12
-3.68184e-11
2.12776e-12
-3.71128e-11
9.01762e-13
-3.70361e-11
-3.29742e-13
-3.65881e-11
-1.56276e-12
-3.57697e-11
-2.7932e-12
-3.45828e-11
-4.01665e-12
-3.30309e-11
-5.2285e-12
-3.11185e-11
-6.42462e-12
-2.88514e-11
-7.60103e-12
-2.6237e-11
-8.75316e-12
-2.32828e-11
-9.87681e-12
-1.9999e-11
-1.09682e-11
-1.63961e-11
-1.20236e-11
-1.24855e-11
-1.30389e-11
-8.28034e-12
-1.40099e-11
-3.7943e-12
-1.49331e-11
9.57458e-13
-1.58054e-11
5.9586e-12
-1.66232e-11
1.11926e-11
-1.73828e-11
1.66409e-11
-1.80808e-11
2.22847e-11
-1.8714e-11
2.81045e-11
-1.92799e-11
3.40797e-11
-1.97757e-11
4.0189e-11
-2.01987e-11
4.64099e-11
-2.05466e-11
5.27188e-11
-2.08169e-11
5.90932e-11
-2.10071e-11
6.55091e-11
-2.11153e-11
7.19413e-11
-2.114e-11
7.83652e-11
-2.10796e-11
8.47548e-11
-2.09328e-11
9.10847e-11
-2.06981e-11
9.73297e-11
-2.03747e-11
1.03463e-10
-1.99622e-11
1.09458e-10
-1.94603e-11
1.1529e-10
-1.88687e-11
1.20932e-10
-1.81876e-11
1.26358e-10
-1.74174e-11
1.31542e-10
-1.65588e-11
1.36459e-10
-1.56136e-11
1.41085e-10
-1.45833e-11
1.45395e-10
-1.34693e-11
1.49364e-10
-1.22738e-11
1.52971e-10
-1.09996e-11
1.56194e-10
-9.64977e-12
1.59011e-10
-8.22786e-12
1.61403e-10
-6.73766e-12
1.6335e-10
-5.18306e-12
1.64837e-10
-3.56909e-12
1.65848e-10
-1.90137e-12
1.66369e-10
-1.85364e-13
1.66388e-10
1.57274e-12
1.65894e-10
3.36566e-12
1.64881e-10
5.18588e-12
1.63343e-10
7.02532e-12
1.61278e-10
8.87488e-12
1.58686e-10
1.07248e-11
1.5557e-10
1.25649e-11
1.51935e-10
1.43842e-11
1.47792e-10
1.61703e-11
1.43154e-10
1.79104e-11
1.38037e-10
1.95911e-11
1.32464e-10
2.11974e-11
1.2646e-10
2.27134e-11
1.20054e-10
2.41226e-11
1.13284e-10
2.54071e-11
1.06188e-10
2.65474e-11
9.88123e-11
2.75234e-11
9.12084e-11
2.83139e-11
8.3434e-11
2.88958e-11
7.55514e-11
2.92451e-11
6.76292e-11
2.93369e-11
5.97424e-11
2.9146e-11
5.19715e-11
2.86466e-11
4.44023e-11
2.78137e-11
3.71254e-11
2.66244e-11
3.02355e-11
2.50585e-11
2.38277e-11
2.31012e-11
1.79972e-11
2.07478e-11
1.28383e-11
1.80091e-11
8.4398e-12
1.49178e-11
4.88343e-12
1.15401e-11
2.24402e-12
7.99121e-12
5.91056e-13
4.45545e-12
1.23999e-12
7.28762e-13
-1.88281e-12
2.66528e-12
-6.5067e-12
5.69109e-12
-1.11992e-11
9.68916e-12
-1.57036e-11
1.45488e-11
-1.98219e-11
2.01594e-11
-2.34569e-11
2.64079e-11
-2.65709e-11
3.31835e-11
-2.91526e-11
4.03743e-11
-3.12106e-11
4.78737e-11
-3.27624e-11
5.55789e-11
-3.38345e-11
6.3391e-11
-3.44589e-11
7.12219e-11
-3.46666e-11
7.89855e-11
-3.44942e-11
8.66037e-11
-3.39767e-11
9.40072e-11
-3.3147e-11
1.01131e-10
-3.20399e-11
1.0792e-10
-3.06866e-11
1.14322e-10
-2.91181e-11
1.20294e-10
-2.73637e-11
1.25798e-10
-2.54493e-11
1.30802e-10
-2.34009e-11
1.3528e-10
-2.12429e-11
1.39213e-10
-1.89966e-11
1.42581e-10
-1.66838e-11
1.45373e-10
-1.43239e-11
1.47583e-10
-1.19337e-11
1.49208e-10
-9.53064e-12
1.50248e-10
-7.13086e-12
1.50707e-10
-4.74751e-12
1.50593e-10
-2.39399e-12
1.49914e-10
-8.30125e-14
1.48686e-10
2.17528e-12
1.46922e-10
4.37051e-12
1.44641e-10
6.49276e-12
1.41863e-10
8.53451e-12
1.38609e-10
1.04888e-11
1.34903e-10
1.23481e-11
1.3077e-10
1.4107e-11
1.26236e-10
1.57605e-11
1.21328e-10
1.73034e-11
1.16074e-10
1.87321e-11
1.10504e-10
2.00443e-11
1.04649e-10
2.1237e-11
9.85371e-11
2.23078e-11
9.22007e-11
2.32557e-11
8.5671e-11
2.408e-11
7.89786e-11
2.47792e-11
7.21546e-11
2.53533e-11
6.52306e-11
2.58033e-11
5.82378e-11
2.61302e-11
5.12065e-11
2.63348e-11
4.41678e-11
2.64188e-11
3.71517e-11
2.63842e-11
3.01865e-11
2.62329e-11
2.33008e-11
2.59676e-11
1.65234e-11
2.55918e-11
9.88122e-12
2.51084e-11
3.4001e-12
2.45207e-11
-2.89428e-12
2.38323e-11
-8.97708e-12
2.30476e-11
-1.48251e-11
2.21708e-11
-2.04166e-11
2.12058e-11
-2.57302e-11
2.01574e-11
-3.07452e-11
1.90306e-11
-3.54434e-11
1.78298e-11
-3.98079e-11
1.656e-11
-4.38221e-11
1.52268e-11
-4.74708e-11
1.38356e-11
-5.07408e-11
1.23915e-11
-5.36201e-11
1.08995e-11
-5.60981e-11
9.36527e-12
-5.81656e-11
7.79494e-12
-5.98148e-11
6.19399e-12
-6.10392e-11
4.56794e-12
-6.18333e-11
2.92245e-12
-6.21941e-11
1.26336e-12
-6.21199e-11
-4.03574e-13
-6.16104e-11
-2.07261e-12
-6.06662e-11
-3.73777e-12
-5.92892e-11
-5.39334e-12
-5.7484e-11
-7.03368e-12
-5.5256e-11
-8.65297e-12
-5.26112e-11
-1.02456e-11
-4.9558e-11
-1.18058e-11
-4.61061e-11
-1.33282e-11
-4.22665e-11
-1.48078e-11
-3.80516e-11
-1.62389e-11
-3.34741e-11
-1.76161e-11
-2.85497e-11
-1.89345e-11
-2.32945e-11
-2.01889e-11
-1.77253e-11
-2.13747e-11
-1.18608e-11
-2.24873e-11
-5.72048e-12
-2.35221e-11
6.74493e-13
-2.4475e-11
7.30182e-12
-2.53419e-11
1.41394e-11
-2.61182e-11
2.11634e-11
-2.68001e-11
2.8349e-11
-2.73842e-11
3.56709e-11
-2.78675e-11
4.31019e-11
-2.82471e-11
5.06155e-11
-2.85198e-11
5.81839e-11
-2.86827e-11
6.57783e-11
-2.87339e-11
7.33703e-11
-2.86712e-11
8.09304e-11
-2.84926e-11
8.84291e-11
-2.81967e-11
9.58367e-11
-2.77822e-11
1.03123e-10
-2.72485e-11
1.10258e-10
-2.65953e-11
1.17211e-10
-2.58221e-11
1.23953e-10
-2.49293e-11
1.30454e-10
-2.39178e-11
1.36683e-10
-2.27885e-11
1.42612e-10
-2.1543e-11
1.48213e-10
-2.01838e-11
1.53458e-10
-1.87133e-11
1.58318e-10
-1.71343e-11
1.62768e-10
-1.54503e-11
1.66784e-10
-1.36654e-11
1.7034e-10
-1.17841e-11
1.73414e-10
-9.81187e-12
1.75985e-10
-7.75461e-12
1.78033e-10
-5.61828e-12
1.79541e-10
-3.40988e-12
1.80494e-10
-1.13752e-12
1.80877e-10
1.19024e-12
1.80678e-10
3.56417e-12
1.7989e-10
5.97397e-12
1.78507e-10
8.40873e-12
1.76524e-10
1.0857e-11
1.73943e-10
1.33059e-11
1.70767e-10
1.57412e-11
1.67002e-10
1.81485e-11
1.62661e-10
2.05122e-11
1.57757e-10
2.2815e-11
1.52309e-10
2.50384e-11
1.46343e-10
2.71637e-11
1.39885e-10
2.91703e-11
1.32971e-10
3.10363e-11
1.25639e-10
3.27384e-11
1.17934e-10
3.42521e-11
1.09907e-10
3.55508e-11
1.01614e-10
3.66069e-11
9.31187e-11
3.73917e-11
8.44887e-11
3.78754e-11
7.57991e-11
3.80265e-11
6.71312e-11
3.78134e-11
5.85721e-11
3.72051e-11
5.02142e-11
3.61713e-11
4.21544e-11
3.46838e-11
3.44938e-11
3.27189e-11
2.73353e-11
3.026e-11
2.07826e-11
2.73007e-11
1.49398e-11
2.38518e-11
9.90986e-12
1.9948e-11
5.79329e-12
1.56566e-11
2.69315e-12
1.10908e-11
7.19251e-13
6.42896e-12
1.9591e-12
8.29008e-13
-2.71249e-12
3.02787e-12
-8.70515e-12
6.42355e-12
-1.45944e-11
1.08641e-11
-2.01446e-11
1.62144e-11
-2.51723e-11
2.23455e-11
-2.95892e-11
2.9134e-11
-3.33589e-11
3.64573e-11
-3.64758e-11
4.41979e-11
-3.89503e-11
5.22415e-11
-4.08055e-11
6.04785e-11
-4.20735e-11
6.88087e-11
-4.27886e-11
7.71342e-11
-4.29922e-11
8.53656e-11
-4.27261e-11
9.34218e-11
-4.20317e-11
1.01226e-10
-4.09516e-11
1.08711e-10
-3.9525e-11
1.15816e-10
-3.77914e-11
1.22486e-10
-3.57891e-11
1.28675e-10
-3.35528e-11
1.34342e-10
-3.11164e-11
1.39452e-10
-2.85121e-11
1.43978e-10
-2.57684e-11
1.47896e-10
-2.2914e-11
1.51188e-10
-1.99762e-11
1.53842e-10
-1.69779e-11
1.55851e-10
-1.39423e-11
1.5721e-10
-1.0891e-11
1.57921e-10
-7.84234e-12
1.5799e-10
-4.81496e-12
1.57422e-10
-1.82656e-12
1.5623e-10
1.10836e-12
1.5443e-10
3.97595e-12
1.52037e-10
6.76264e-12
1.49072e-10
9.45725e-12
1.45558e-10
1.20493e-11
1.41518e-10
1.45285e-11
1.36979e-10
1.68868e-11
1.31969e-10
1.91173e-11
1.26517e-10
2.12126e-11
1.20653e-10
2.31665e-11
1.1441e-10
2.4975e-11
1.0782e-10
2.66341e-11
1.00917e-10
2.81397e-11
9.37353e-11
2.94893e-11
8.63097e-11
3.06817e-11
7.86742e-11
3.17151e-11
7.08642e-11
3.25885e-11
6.29156e-11
3.33021e-11
5.4863e-11
3.38563e-11
4.6741e-11
3.42519e-11
3.85843e-11
3.44908e-11
3.04277e-11
3.45754e-11
2.23046e-11
3.45077e-11
1.42472e-11
3.42901e-11
6.28843e-12
3.39265e-11
-1.54006e-12
3.34209e-11
-9.20858e-12
3.27768e-11
-1.66872e-11
3.19986e-11
-2.39465e-11
3.10916e-11
-3.09593e-11
3.00609e-11
-3.76998e-11
2.89114e-11
-4.41426e-11
2.76486e-11
-5.02636e-11
2.62787e-11
-5.60404e-11
2.48079e-11
-6.14521e-11
2.32419e-11
-6.64788e-11
2.15872e-11
-7.1102e-11
1.9851e-11
-7.53055e-11
1.80397e-11
-7.90745e-11
1.61602e-11
-8.23945e-11
1.42197e-11
-8.52534e-11
1.22252e-11
-8.76413e-11
1.01837e-11
-8.95495e-11
8.10228e-12
-9.09707e-11
5.98871e-12
-9.18984e-11
3.85056e-12
-9.23293e-11
1.69492e-12
-9.22617e-11
-4.70994e-13
-9.16946e-11
-2.63964e-12
-9.06292e-11
-4.80324e-12
-8.90676e-11
-6.95451e-12
-8.70149e-11
-9.08639e-12
-8.44773e-11
-1.11912e-11
-8.14613e-11
-1.32615e-11
-7.79766e-11