/*--------------------------------*- C++ -*----------------------------------*\
  =========                 |
  \\      /  F ield         | OpenFOAM: The Open Source CFD Toolbox
   \\    /   O peration     | Website:  https://openfoam.org
    \\  /    A nd           | Version:  7
     \\/     M anipulation  |
\*---------------------------------------------------------------------------*/
FoamFile
{
    version     2.0;
    format      ascii;
    class       surfaceScalarField;
    location    "0.275";
    object      phi;
}
// * * * * * * * * * * * * * * * * * * * * * * * * * * * * * * * * * * * * * //

dimensions      [0 3 -1 0 0 0 0];

internalField   nonuniform List<scalar> 
101920
(
6.54955e-15
3.05628e-13
-4.50287e-13
4.57313e-13
-9.3612e-13
4.87484e-13
-1.32196e-12
3.83186e-13
-1.54275e-12
2.1693e-13
-1.55559e-12
2.02863e-14
-1.35468e-12
-2.04103e-13
-9.20446e-13
-4.22963e-13
-2.69526e-13
-6.52704e-13
6.07365e-13
-8.71889e-13
1.69776e-12
-1.08455e-12
2.99075e-12
-1.29419e-12
4.48356e-12
-1.48919e-12
6.16148e-12
-1.67295e-12
8.00801e-12
-1.851e-12
1.00217e-11
-2.01205e-12
1.21866e-11
-2.1623e-12
1.44876e-11
-2.3053e-12
1.69179e-11
-2.43585e-12
1.94682e-11
-2.55098e-12
2.21229e-11
-2.65756e-12
2.48749e-11
-2.75426e-12
2.77171e-11
-2.83939e-12
3.06375e-11
-2.91595e-12
3.36258e-11
-2.98646e-12
3.66729e-11
-3.04905e-12
3.97731e-11
-3.10103e-12
4.29163e-11
-3.14383e-12
4.60944e-11
-3.17911e-12
4.93009e-11
-3.20695e-12
5.25296e-11
-3.22774e-12
5.57733e-11
-3.24103e-12
5.90244e-11
-3.24874e-12
6.22761e-11
-3.252e-12
6.55239e-11
-3.24861e-12
6.87628e-11
-3.23819e-12
7.19858e-11
-3.22249e-12
7.51873e-11
-3.20241e-12
7.83643e-11
-3.1775e-12
8.15119e-11
-3.14753e-12
8.46252e-11
-3.11282e-12
8.77e-11
-3.07424e-12
9.0732e-11
-3.03254e-12
9.37179e-11
-2.98705e-12
9.6654e-11
-2.93735e-12
9.95376e-11
-2.88385e-12
1.02365e-10
-2.82713e-12
1.05133e-10
-2.76774e-12
1.07839e-10
-2.70588e-12
1.10481e-10
-2.64086e-12
1.13056e-10
-2.57302e-12
1.15562e-10
-2.5031e-12
1.17996e-10
-2.43201e-12
1.20357e-10
-2.36007e-12
1.22642e-10
-2.28631e-12
1.2485e-10
-2.21001e-12
1.26978e-10
-2.1311e-12
1.29026e-10
-2.04997e-12
1.30993e-10
-1.96722e-12
1.32876e-10
-1.88331e-12
1.34675e-10
-1.79848e-12
1.36389e-10
-1.71277e-12
1.38015e-10
-1.6259e-12
1.39554e-10
-1.53786e-12
1.41004e-10
-1.44918e-12
1.42364e-10
-1.35982e-12
1.43635e-10
-1.2697e-12
1.44814e-10
-1.17895e-12
1.45902e-10
-1.08758e-12
1.46897e-10
-9.95667e-13
1.478e-10
-9.03265e-13
1.4861e-10
-8.10239e-13
1.49326e-10
-7.16343e-13
1.49948e-10
-6.21955e-13
1.50476e-10
-5.27418e-13
1.50909e-10
-4.33233e-13
1.51248e-10
-3.39195e-13
1.51491e-10
-2.44689e-13
1.51639e-10
-1.49504e-13
1.51693e-10
-5.38999e-14
1.51651e-10
4.1974e-14
1.51514e-10
1.37775e-13
1.51283e-10
2.32944e-13
1.50955e-10
3.27637e-13
1.50532e-10
4.22385e-13
1.50015e-10
5.17317e-13
1.49404e-10
6.12138e-13
1.48698e-10
7.063e-13
1.47899e-10
7.99568e-13
1.47005e-10
8.92399e-13
1.46018e-10
9.85215e-13
1.44939e-10
1.0782e-12
1.43768e-10
1.17107e-12
1.42506e-10
1.2633e-12
1.41153e-10
1.35448e-12
1.39709e-10
1.44435e-12
1.38177e-10
1.53295e-12
1.36556e-10
1.6205e-12
1.34847e-10
1.70733e-12
1.33052e-10
1.79367e-12
1.31172e-10
1.87944e-12
1.29208e-10
1.96407e-12
1.27163e-10
2.04713e-12
1.25036e-10
2.12843e-12
1.22829e-10
2.20773e-12
1.20545e-10
2.28482e-12
1.18184e-10
2.35988e-12
1.15749e-10
2.43329e-12
1.13243e-10
2.50524e-12
1.10666e-10
2.57557e-12
1.08023e-10
2.64385e-12
1.05314e-10
2.70951e-12
1.02543e-10
2.77226e-12
9.97119e-11
2.83186e-12
9.68245e-11
2.88814e-12
9.38838e-11
2.94102e-12
9.08933e-11
2.99046e-12
8.78567e-11
3.03643e-12
8.47777e-11
3.07878e-12
8.16601e-11
3.11739e-12
7.85081e-11
3.15196e-12
7.5326e-11
3.18213e-12
7.21185e-11
3.20764e-12
6.88906e-11
3.22827e-12
6.56475e-11
3.24365e-12
6.2395e-11
3.25346e-12
5.91384e-11
3.25734e-12
5.58837e-11
3.25505e-12
5.2637e-11
3.24651e-12
4.94048e-11
3.23168e-12
4.61942e-11
3.21022e-12
4.30121e-11
3.18167e-12
3.98658e-11
3.14582e-12
3.67636e-11
3.10247e-12
3.37136e-11
3.05098e-12
3.07242e-11
2.99071e-12
2.78042e-11
2.92133e-12
2.49627e-11
2.84261e-12
2.22089e-11
2.75441e-12
1.95528e-11
2.65648e-12
1.70045e-11
2.54838e-12
1.45741e-11
2.42994e-12
1.22722e-11
2.30132e-12
1.01101e-11
2.16222e-12
8.09917e-12
2.01188e-12
6.25029e-12
1.84993e-12
4.57482e-12
1.67641e-12
3.08373e-12
1.49154e-12
1.7875e-12
1.29596e-12
6.95969e-13
1.09075e-12
-1.82259e-13
8.77328e-13
-8.40594e-13
6.57684e-13
-1.27534e-12
4.34731e-13
-1.4875e-12
2.12985e-13
-1.48605e-12
-2.0018e-17
-1.29257e-12
-1.91921e-13
-9.47881e-13
-3.43051e-13
-5.24865e-13
-4.21623e-13
-1.49469e-13
-3.74696e-13
-1.49331e-13
-3.25687e-13
6.43792e-13
-1.0378e-12
1.17029e-12
-1.7651e-12
1.20922e-12
-2.26469e-12
8.73872e-13
-2.36356e-12
3.17976e-13
-1.97845e-12
-3.82015e-13
-1.02311e-12
-1.14372e-12
4.97054e-13
-1.95628e-12
2.6204e-12
-2.77343e-12
5.3307e-12
-3.58266e-12
8.61376e-12
-4.38023e-12
1.24608e-11
-5.14353e-12
1.68461e-11
-5.87345e-12
2.17352e-11
-6.57083e-12
2.7112e-11
-7.22619e-12
3.2942e-11
-7.83772e-12
3.91924e-11
-8.41258e-12
4.58372e-11
-8.94694e-12
5.2851e-11
-9.43844e-12
6.0196e-11
-9.89214e-12
6.7845e-11
-1.03094e-11
7.57743e-11
-1.06856e-11
8.39558e-11
-1.10221e-11
9.236e-11
-1.1324e-11
1.00964e-10
-1.15923e-11
1.09744e-10
-1.18264e-11
1.18675e-10
-1.20282e-11
1.27732e-10
-1.22e-11
1.36893e-10
-1.23427e-11
1.46139e-10
-1.24561e-11
1.5545e-10
-1.25404e-11
1.64805e-10
-1.25979e-11
1.74184e-10
-1.26315e-11
1.83571e-10
-1.2641e-11
1.92951e-10
-1.26266e-11
2.02304e-10
-1.259e-11
2.11615e-10
-1.25337e-11
2.20868e-10
-1.24578e-11
2.30053e-10
-1.23621e-11
2.39154e-10
-1.22479e-11
2.48158e-10
-1.21167e-11
2.57052e-10
-1.19691e-11
2.65827e-10
-1.18062e-11
2.74471e-10
-1.16289e-11
2.82973e-10
-1.14379e-11
2.91325e-10
-1.12337e-11
2.99515e-10
-1.10175e-11
3.07535e-10
-1.07898e-11
3.15378e-10
-1.05512e-11
3.23036e-10
-1.03018e-11
3.30502e-10
-1.00416e-11
3.37768e-10
-9.77224e-12
3.44827e-10
-9.49408e-12
3.51675e-10
-9.20746e-12
3.58306e-10
-8.91357e-12
3.64715e-10
-8.61331e-12
3.70895e-10
-8.30721e-12
3.76841e-10
-7.99525e-12
3.82551e-10
-7.67721e-12
3.88019e-10
-7.35318e-12
3.93244e-10
-7.02367e-12
3.98221e-10
-6.68953e-12
4.02946e-10
-6.35157e-12
4.07416e-10
-6.00984e-12
4.11629e-10
-5.66438e-12
4.15582e-10
-5.31527e-12
4.19275e-10
-4.96255e-12
4.22703e-10
-4.60688e-12
4.25865e-10
-4.24891e-12
4.28759e-10
-3.88907e-12
4.31384e-10
-3.5274e-12
4.33738e-10
-3.16395e-12
4.3582e-10
-2.79847e-12
4.37629e-10
-2.43123e-12
4.39164e-10
-2.06261e-12
4.40424e-10
-1.69292e-12
4.41409e-10
-1.32268e-12
4.42118e-10
-9.52241e-13
4.4255e-10
-5.81416e-13
4.42706e-10
-2.09878e-13
4.42584e-10
1.62325e-13
4.42186e-10
5.34951e-13
4.41511e-10
9.07238e-13
4.4056e-10
1.27857e-12
4.39332e-10
1.64911e-12
4.37829e-10
2.01929e-12
4.36052e-10
2.38909e-12
4.34e-10
2.75805e-12
4.31676e-10
3.12537e-12
4.29079e-10
3.49063e-12
4.26213e-10
3.85372e-12
4.23077e-10
4.21465e-12
4.19674e-10
4.57355e-12
4.16005e-10
4.9306e-12
4.12072e-10
5.28545e-12
4.07879e-10
5.63744e-12
4.03426e-10
5.98589e-12
3.98718e-10
6.33032e-12
3.93757e-10
6.67031e-12
3.88546e-10
7.00555e-12
3.83088e-10
7.33622e-12
3.77388e-10
7.66254e-12
3.71449e-10
7.98417e-12
3.65276e-10
8.30028e-12
3.58872e-10
8.61021e-12
3.52245e-10
8.9132e-12
3.45398e-10
9.20867e-12
3.38338e-10
9.49603e-12
3.3107e-10
9.77488e-12
3.23601e-10
1.00451e-11
3.15938e-10
1.03067e-11
3.08088e-10
1.05587e-11
3.00059e-10
1.08002e-11
2.9186e-10
1.10305e-11
2.83499e-10
1.12487e-11
2.74985e-10
1.14542e-11
2.6633e-10
1.16463e-11
2.57543e-10
1.18244e-11
2.48635e-10
1.19877e-11
2.39618e-10
1.21355e-11
2.30504e-10
1.22669e-11
2.21306e-10
1.23809e-11
2.12037e-10
1.24764e-11
2.02711e-10
1.25528e-11
1.93345e-10
1.26094e-11
1.83953e-10
1.26451e-11
1.74552e-10
1.26586e-11
1.6516e-10
1.2649e-11
1.55793e-10
1.26149e-11
1.46471e-10
1.25552e-11
1.37214e-10
1.24691e-11
1.28042e-10
1.23553e-11
1.18976e-10
1.22125e-11
1.10038e-10
1.20397e-11
1.01252e-10
1.18359e-11
9.26417e-11
1.16001e-11
8.42319e-11
1.13307e-11
7.6048e-11
1.10268e-11
6.81162e-11
1.06871e-11
6.04637e-11
1.03103e-11
5.31186e-11
9.89543e-12
4.61093e-11
9.44132e-12
3.94643e-11
8.94719e-12
3.3213e-11
8.413e-12
2.73853e-11
7.83869e-12
2.20103e-11
7.22404e-12
1.71169e-11
6.5696e-12
1.27326e-11
5.87679e-12
8.88291e-12
5.14779e-12
5.59021e-12
4.38611e-12
2.87219e-12
3.59753e-12
7.39844e-13
2.79089e-12
-8.05215e-13
1.97926e-12
-1.7749e-12
1.18156e-12
-2.2014e-12
4.2533e-13
-2.14586e-12
-2.48704e-13
-1.70907e-12
-7.80874e-13
-1.0455e-12
-1.08542e-12
-3.75607e-13
-1.0441e-12
-5.24162e-13
-4.03123e-13
1.05018e-12
-1.10242e-12
1.8644e-12
-1.69604e-12
1.79325e-12
-1.88823e-12
1.07453e-12
-1.49444e-12
-8.58737e-14
-3.5183e-13
-1.50977e-12
1.60475e-12
-3.10867e-12
4.43884e-12
-4.79106e-12
8.17456e-12
-6.50191e-12
1.28002e-11
-8.21652e-12
1.83195e-11
-9.89475e-12
2.47008e-11
-1.15222e-11
3.19105e-11
-1.30874e-11
3.99157e-11
-1.45794e-11
4.86823e-11
-1.59875e-11
5.81537e-11
-1.73168e-11
6.82928e-11
-1.85607e-11
7.90586e-11
-1.97145e-11
9.0403e-11
-2.07825e-11
1.02276e-10
-2.17696e-11
1.14641e-10
-2.26726e-11
1.27454e-10
-2.34928e-11
1.40666e-10
-2.42349e-11
1.54238e-10
-2.49e-11
1.68132e-10
-2.54889e-11
1.82309e-10
-2.60042e-11
1.9673e-10
-2.64489e-11
2.11357e-10
-2.68277e-11
2.26156e-10
-2.71417e-11
2.41095e-10
-2.73922e-11
2.56139e-10
-2.75823e-11
2.71256e-10
-2.77157e-11
2.86416e-10
-2.77944e-11
3.01593e-10
-2.78188e-11
3.16758e-10
-2.77917e-11
3.31883e-10
-2.77167e-11
3.46943e-10
-2.75961e-11
3.61916e-10
-2.74315e-11
3.76779e-10
-2.72245e-11
3.91509e-10
-2.69779e-11
4.06084e-10
-2.66936e-11
4.20486e-10
-2.63732e-11
4.34695e-10
-2.60184e-11
4.48696e-10
-2.56305e-11
4.62469e-10
-2.52114e-11
4.76e-10
-2.47635e-11
4.89273e-10
-2.42891e-11
5.02272e-10
-2.37889e-11
5.14987e-10
-2.32638e-11
5.27404e-10
-2.27155e-11
5.3951e-10
-2.21459e-11
5.51293e-10
-2.15564e-11
5.62744e-10
-2.09477e-11
5.73853e-10
-2.03199e-11
5.84611e-10
-1.9674e-11
5.95008e-10
-1.90124e-11
6.05036e-10
-1.83363e-11
6.14688e-10
-1.76467e-11
6.23957e-10
-1.69448e-11
6.32835e-10
-1.6231e-11
6.41317e-10
-1.55056e-11
6.49397e-10
-1.47692e-11
6.5707e-10
-1.40231e-11
6.6433e-10
-1.32687e-11
6.71173e-10
-1.25066e-11
6.77595e-10
-1.17369e-11
6.83592e-10
-1.09596e-11
6.89161e-10
-1.01758e-11
6.94297e-10
-9.38636e-12
6.98999e-10
-8.59185e-12
7.03263e-10
-7.79263e-12
7.07088e-10
-6.98903e-12
7.10472e-10
-6.18181e-12
7.13412e-10
-5.37122e-12
7.15906e-10
-4.55768e-12
7.17954e-10
-3.74156e-12
7.19554e-10
-2.92335e-12
7.20705e-10
-2.10362e-12
7.21408e-10
-1.28302e-12
7.21662e-10
-4.61825e-13
7.21465e-10
3.59799e-13
7.20818e-10
1.18167e-12
7.19721e-10
2.00329e-12
7.18175e-10
2.82411e-12
7.16182e-10
3.64354e-12
7.1374e-10
4.46114e-12
7.10853e-10
5.27673e-12
7.07519e-10
6.09006e-12
7.03743e-10
6.90064e-12
6.99525e-10
7.70774e-12
6.94868e-10
8.51074e-12
6.89774e-10
9.30919e-12
6.84247e-10
1.01024e-11
6.78289e-10
1.08898e-11
6.71903e-10
1.16712e-11
6.65093e-10
1.24462e-11
6.57863e-10
1.3214e-11
6.50218e-10
1.39739e-11
6.42163e-10
1.47249e-11
6.33704e-10
1.54662e-11
6.24845e-10
1.61968e-11
6.15594e-10
1.69159e-11
6.05956e-10
1.7623e-11
5.95938e-10
1.83171e-11
5.85549e-10
1.89978e-11
5.74796e-10
1.96638e-11
5.63689e-10
2.03139e-11
5.52238e-10
2.09471e-11
5.40452e-10
2.1562e-11
5.28341e-10
2.21571e-11
5.15918e-10
2.27312e-11
5.03193e-10
2.32836e-11
4.9018e-10
2.38128e-11
4.76894e-10
2.43171e-11
4.63347e-10
2.47949e-11
4.49556e-10
2.52446e-11
4.35537e-10
2.56649e-11
4.21308e-10
2.60543e-11
4.06885e-10
2.6411e-11
3.92287e-10
2.67334e-11
3.77535e-10
2.70194e-11
3.6265e-10
2.72669e-11
3.47654e-10
2.7474e-11
3.32569e-10
2.76384e-11
3.1742e-10
2.77584e-11
3.02233e-10
2.78322e-11
2.87034e-10
2.78576e-11
2.71851e-10
2.78321e-11
2.56713e-10
2.77533e-11
2.4165e-10
2.76189e-11
2.26693e-10
2.74265e-11
2.11875e-10
2.71735e-11
1.97231e-10
2.68576e-11
1.82795e-10
2.64762e-11
1.68605e-10
2.60268e-11
1.54699e-10
2.55075e-11
1.41115e-10
2.49155e-11
1.27894e-10
2.42484e-11
1.15077e-10
2.35041e-11
1.02706e-10
2.26805e-11
9.08256e-11
2.17757e-11
7.94791e-11
2.0788e-11
6.87114e-11
1.97161e-11
5.85667e-11
1.85588e-11
4.90896e-11
1.73164e-11
4.03237e-11
1.59899e-11
3.23112e-11
1.45815e-11
2.50915e-11
1.30953e-11
1.87005e-11
1.15375e-11
1.31686e-11
9.91743e-12
8.51852e-12
8.24845e-12
4.76165e-12
6.54971e-12
1.89441e-12
4.84865e-12
-1.06774e-13
3.18443e-12
-1.29284e-12
1.61246e-12
-1.75152e-12
2.10403e-13
-1.61785e-12
-9.14365e-13
-1.08635e-12
-1.6168e-12
-4.23043e-13
-1.70744e-12
-9.46495e-13
-3.41801e-13
1.38657e-12
-8.06435e-13
2.31959e-12
-9.84963e-13
1.97373e-12
-5.91769e-13
6.7653e-13
6.02215e-13
-1.26612e-12
2.74283e-12
-3.65234e-12
5.94339e-12
-6.30546e-12
1.02706e-11
-9.10865e-12
1.5744e-11
-1.1982e-11
2.23823e-11
-1.48552e-11
3.01729e-11
-1.76813e-11
3.90835e-11
-2.04347e-11
4.90799e-11
-2.30878e-11
6.01253e-11
-2.56184e-11
7.21622e-11
-2.8022e-11
8.51377e-11
-3.02931e-11
9.90022e-11
-3.24206e-11
1.13694e-10
-3.44045e-11
1.29153e-10
-3.62465e-11
1.45325e-10
-3.79455e-11
1.62154e-10
-3.95004e-11
1.79581e-10
-4.09177e-11
1.97547e-10
-4.22014e-11
2.16001e-10
-4.33534e-11
2.34889e-10
-4.43757e-11
2.54159e-10
-4.52728e-11
2.73758e-10
-4.60505e-11
2.93639e-10
-4.67115e-11
3.13756e-10
-4.72594e-11
3.34063e-10
-4.76981e-11
3.54514e-10
-4.80334e-11
3.75067e-10
-4.82703e-11
3.95683e-10
-4.84106e-11
4.16325e-10
-4.84578e-11
4.36951e-10
-4.84172e-11
4.57526e-10
-4.82932e-11
4.78017e-10
-4.80885e-11
4.98393e-10
-4.78068e-11
5.18621e-10
-4.74515e-11
5.38671e-10
-4.70267e-11
5.58515e-10
-4.65362e-11
5.78125e-10
-4.59832e-11
5.97477e-10
-4.537e-11
6.16546e-10
-4.46996e-11
6.35309e-10
-4.39749e-11
6.53743e-10
-4.31993e-11
6.71828e-10
-4.23762e-11
6.89545e-10
-4.15074e-11
7.06875e-10
-4.05946e-11
7.23801e-10
-3.96408e-11
7.40305e-10
-3.86493e-11
7.56372e-10
-3.76224e-11
7.71989e-10
-3.65618e-11
7.87141e-10
-3.54696e-11
8.01814e-10
-3.43472e-11
8.15997e-10
-3.31962e-11
8.29679e-10
-3.20188e-11
8.42848e-10
-3.0817e-11
8.55495e-10
-2.95926e-11
8.67612e-10
-2.83474e-11
8.79188e-10
-2.70821e-11
8.90217e-10
-2.57982e-11
9.0069e-10
-2.44974e-11
9.106e-10
-2.31807e-11
9.19943e-10
-2.18492e-11
9.28711e-10
-2.05044e-11
9.369e-10
-1.91473e-11
9.44504e-10
-1.77789e-11
9.51518e-10
-1.64005e-11
9.57938e-10
-1.5013e-11
9.63762e-10
-1.3617e-11
9.68986e-10
-1.2213e-11
9.73608e-10
-1.08023e-11
9.77623e-10
-9.38592e-12
9.81031e-10
-7.96482e-12
9.83828e-10
-6.53942e-12
9.86013e-10
-5.11028e-12
9.87587e-10
-3.6781e-12
9.88546e-10
-2.24361e-12
9.88893e-10
-8.07625e-13
9.88625e-10
6.2872e-13
9.87742e-10
2.06476e-12
9.86244e-10
3.50016e-12
9.84133e-10
4.93421e-12
9.81411e-10
6.36637e-12
9.78077e-10
7.79581e-12
9.74134e-10
9.22133e-12
9.69583e-10
1.06419e-11
9.64426e-10
1.20571e-11
9.58666e-10
1.34663e-11
9.52307e-10
1.48688e-11
9.45352e-10
1.62634e-11
9.37806e-10
1.76493e-11
9.29671e-10
1.90252e-11
9.20954e-10
2.03901e-11
9.11658e-10
2.17429e-11
9.0179e-10
2.30822e-11
8.91356e-10
2.44072e-11
8.80362e-10
2.57168e-11
8.68817e-10
2.70099e-11
8.56729e-10
2.82849e-11
8.44106e-10
2.95402e-11
8.30956e-10
3.07741e-11
8.1729e-10
3.19847e-11
8.03119e-10
3.31703e-11
7.88453e-10
3.43295e-11
7.73306e-10
3.54608e-11
7.5769e-10
3.65624e-11
7.41619e-10
3.76322e-11
7.25108e-10
3.8668e-11
7.08173e-10
3.96672e-11
6.9083e-10
4.06276e-11
6.73097e-10
4.15468e-11
6.54992e-10
4.24223e-11
6.36536e-10
4.32514e-11
6.1775e-10
4.40314e-11
5.98656e-10
4.47599e-11
5.79276e-10
4.54342e-11
5.59637e-10
4.60511e-11
5.39763e-10
4.66076e-11
5.19681e-10
4.71007e-11
4.99421e-10
4.75269e-11
4.79013e-10
4.78826e-11
4.58487e-10
4.81645e-11
4.37878e-10
4.83689e-11
4.1722e-10
4.84922e-11
3.96547e-10
4.85309e-11
3.75899e-10
4.8481e-11
3.55314e-10
4.83388e-11
3.34833e-10
4.81002e-11
3.14498e-10
4.77613e-11
2.94354e-10
4.73177e-11
2.74446e-10
4.67654e-11
2.54823e-10
4.61004e-11
2.35532e-10
4.53185e-11
2.16624e-10
4.44157e-11
1.98152e-10
4.33886e-11
1.80169e-10
4.2233e-11
1.62729e-10
4.09454e-11
1.45888e-10
3.95225e-11
1.29703e-10
3.79617e-11
1.14231e-10
3.62606e-11
9.95292e-11
3.44178e-11
8.56561e-11
3.24326e-11
7.26678e-11
3.03058e-11
6.06192e-11
2.80398e-11
4.95627e-11
2.56394e-11
3.9547e-11
2.31124e-11
3.06147e-11
2.04706e-11
2.2801e-11
1.77311e-11
1.6131e-11
1.49179e-11
1.06154e-11
1.20646e-11
6.24623e-12
9.21732e-12
2.99207e-12
6.43923e-12
7.9021e-13
3.81595e-12
-4.61833e-13
1.46397e-12
-9.15404e-13
-4.59994e-13
-7.81446e-13
-1.75053e-12
-3.44549e-13
-2.1445e-12
-1.29074e-12
-1.94993e-13
1.57517e-12
-2.66555e-13
2.39379e-12
1.5156e-13
1.54992e-12
1.3607e-12
-5.16344e-13
3.55387e-12
-3.46521e-12
6.90998e-12
-7.00459e-12
1.1535e-11
-1.09255e-11
1.74962e-11
-1.50726e-11
2.48319e-11
-1.93214e-11
3.35595e-11
-2.35784e-11
4.3657e-11
-2.77838e-11
5.51034e-11
-3.18852e-11
6.78622e-11
-3.58436e-11
8.18785e-11
-3.96351e-11
9.70941e-11
-4.32444e-11
1.13456e-10
-4.66542e-11
1.30896e-10
-4.98561e-11
1.49344e-10
-5.28517e-11
1.68733e-10
-5.56365e-11
1.88998e-10
-5.8207e-11
2.10066e-10
-6.05672e-11
2.31867e-10
-6.27218e-11
2.54337e-10
-6.46731e-11
2.77409e-10
-6.64249e-11
3.01019e-10
-6.79828e-11
3.251e-10
-6.9353e-11
3.49591e-10
-7.05424e-11
3.74434e-10
-7.15548e-11
3.99571e-10
-7.23953e-11
4.24944e-10
-7.30714e-11
4.50499e-10
-7.35901e-11
4.76184e-10
-7.39567e-11
5.0195e-10
-7.4176e-11
5.27748e-10
-7.42546e-11
5.5353e-10
-7.41997e-11
5.79252e-10
-7.40165e-11
6.04872e-10
-7.37096e-11
6.30351e-10
-7.32849e-11
6.55647e-10
-7.2748e-11
6.80724e-10
-7.21042e-11
7.05545e-10
-7.13588e-11
7.30079e-10
-7.05167e-11
7.54292e-10
-6.95823e-11
7.78155e-10
-6.85604e-11
8.01637e-10
-6.74557e-11
8.2471e-10
-6.62729e-11
8.4735e-10
-6.50156e-11
8.69532e-10
-6.36881e-11
8.91231e-10
-6.2294e-11
9.12426e-10
-6.0837e-11
9.33095e-10
-5.93207e-11
9.5322e-10
-5.77486e-11
9.72782e-10
-5.61238e-11
9.91764e-10
-5.44501e-11
1.01015e-09
-5.27305e-11
1.02792e-09
-5.09674e-11
1.04507e-09
-4.91637e-11
1.06157e-09
-4.7322e-11
1.07742e-09
-4.54447e-11
1.09261e-09
-4.35344e-11
1.10712e-09
-4.15934e-11
1.12095e-09
-3.96238e-11
1.13408e-09
-3.76279e-11
1.14651e-09
-3.56076e-11
1.15822e-09
-3.35643e-11
1.16922e-09
-3.14996e-11
1.17948e-09
-2.94158e-11
1.18902e-09
-2.73147e-11
1.19782e-09
-2.51979e-11
1.20587e-09
-2.30667e-11
1.21318e-09
-2.09223e-11
1.21973e-09
-1.87661e-11
1.22553e-09
-1.65992e-11
1.23056e-09
-1.4423e-11
1.23484e-09
-1.2239e-11
1.23835e-09
-1.00484e-11
1.24109e-09
-7.85251e-12
1.24306e-09
-5.65225e-12
1.24427e-09
-3.44861e-12
1.2447e-09
-1.24241e-12
1.24437e-09
9.65046e-13
1.24326e-09
3.17191e-12
1.24138e-09
5.37725e-12
1.23874e-09
7.58055e-12
1.23532e-09
9.78071e-12
1.23114e-09
1.19766e-11
1.22619e-09
1.41669e-11
1.22049e-09
1.63501e-11
1.21402e-09
1.85248e-11
1.2068e-09
2.06893e-11
1.19882e-09
2.28428e-11
1.1901e-09
2.49842e-11
1.18064e-09
2.71121e-11
1.17044e-09
2.92248e-11
1.15951e-09
3.13206e-11
1.14785e-09
3.33978e-11
1.13548e-09
3.54543e-11
1.1224e-09
3.74882e-11
1.10862e-09
3.94976e-11
1.09415e-09
4.14807e-11
1.079e-09
4.34358e-11
1.06318e-09
4.53607e-11
1.0467e-09
4.72526e-11
1.02957e-09
4.91087e-11
1.01182e-09
5.09267e-11
9.93444e-10
5.27037e-11
9.74468e-10
5.44369e-11
9.54908e-10
5.61236e-11
9.34779e-10
5.77609e-11
9.14101e-10
5.93456e-11
8.92894e-10
6.08742e-11
8.71179e-10
6.23429e-11
8.48977e-10
6.3748e-11
8.26314e-10
6.50856e-11
8.03213e-10
6.6352e-11
7.79701e-10
6.75431e-11
7.55807e-10
6.86548e-11
7.31558e-10
6.96829e-11
7.06987e-10
7.06229e-11
6.82126e-10
7.14698e-11
6.57008e-10
7.22187e-11
6.3167e-10
7.28649e-11
6.06149e-10
7.34032e-11
5.80485e-10
7.38283e-11
5.54718e-10
7.41352e-11
5.28892e-10
7.4318e-11
5.03052e-10
7.43715e-11
4.77244e-10
7.42898e-11
4.51517e-10
7.40669e-11
4.25921e-10
7.36969e-11
4.00508e-10
7.31739e-11
3.75334e-10
7.24919e-11
3.50455e-10
7.16447e-11
3.25929e-10
7.06265e-11
3.01816e-10
6.94315e-11
2.78178e-10
6.8054e-11
2.55079e-10
6.64884e-11
2.32582e-10
6.47296e-11
2.10756e-10
6.27727e-11
1.89666e-10
6.06131e-11
1.69382e-10
5.82469e-11
1.49971e-10
5.56719e-11
1.31502e-10
5.28865e-11
1.14044e-10
4.98909e-11
9.7662e-11
4.66873e-11
8.24212e-11
4.32806e-11
6.83815e-11
3.96792e-11
5.55984e-11
3.58962e-11
4.41198e-11
3.19502e-11
3.39844e-11
2.78676e-11
2.52186e-11
2.36849e-11
1.78329e-11
1.94514e-11
1.18167e-11
1.52338e-11
7.13395e-12
1.11213e-11
3.71744e-12
7.23226e-12
1.46045e-12
3.72167e-12
2.08488e-13
7.93012e-13
-2.49501e-13
-1.29186e-12
-1.93321e-13
-2.20047e-12
-1.48412e-12
4.95567e-16
1.57858e-12
4.1307e-13
1.98052e-12
1.57498e-12
3.96029e-13
3.73727e-12
-2.67948e-12
7.10118e-12
-6.82904e-12
1.18256e-11
-1.17239e-11
1.80092e-11
-1.71134e-11
2.57285e-11
-2.27945e-11
3.50218e-11
-2.86114e-11
4.58956e-11
-3.44538e-11
5.83388e-11
-4.02311e-11
7.23282e-11
-4.58723e-11
8.78199e-11
-5.13306e-11
1.04754e-10
-5.65728e-11
1.23074e-10
-6.15676e-11
1.42717e-10
-6.62934e-11
1.63602e-10
-7.07445e-11
1.85658e-10
-7.4911e-11
2.0881e-10
-7.87876e-11
2.3298e-10
-8.23735e-11
2.58084e-10
-8.5672e-11
2.84047e-10
-8.86859e-11
3.10792e-10
-9.14185e-11
3.38242e-10
-9.38747e-11
3.66322e-10
-9.6062e-11
3.94956e-10
-9.79893e-11
4.24074e-10
-9.9662e-11
4.53608e-10
-1.01087e-10
4.83488e-10
-1.02273e-10
5.13646e-10
-1.03231e-10
5.44021e-10
-1.03967e-10
5.74552e-10
-1.04488e-10
6.0518e-10
-1.04803e-10
6.35846e-10
-1.04921e-10
6.66495e-10
-1.04851e-10
6.97077e-10
-1.04599e-10
7.2754e-10
-1.04173e-10
7.57837e-10
-1.03581e-10
7.87919e-10
-1.0283e-10
8.17743e-10
-1.01929e-10
8.47267e-10
-1.00884e-10
8.76452e-10
-9.97023e-11
9.05258e-10
-9.83891e-11
9.33651e-10
-9.69522e-11
9.61592e-10
-9.53981e-11
9.89051e-10
-9.3733e-11
1.016e-09
-9.19617e-11
1.0424e-09
-9.009e-11
1.06823e-09
-8.81243e-11
1.09346e-09
-8.60699e-11
1.11808e-09
-8.39316e-11
1.14204e-09
-8.17137e-11
1.16534e-09
-7.94207e-11
1.18794e-09
-7.70572e-11
1.20984e-09
-7.4628e-11
1.23101e-09
-7.21371e-11
1.25143e-09
-6.95885e-11
1.2711e-09
-6.69859e-11
1.28998e-09
-6.43324e-11
1.30808e-09
-6.16314e-11
1.32538e-09
-5.88863e-11
1.34185e-09
-5.61006e-11
1.3575e-09
-5.32773e-11
1.37231e-09
-5.04187e-11
1.38628e-09
-4.75273e-11
1.39938e-09
-4.46058e-11
1.41162e-09
-4.16568e-11
1.42299e-09
-3.86829e-11
1.43348e-09
-3.56862e-11
1.44308e-09
-3.26687e-11
1.45179e-09
-2.96323e-11
1.4596e-09
-2.65791e-11
1.46652e-09
-2.35111e-11
1.47252e-09
-2.04296e-11
1.47762e-09
-1.73365e-11
1.4818e-09
-1.42339e-11
1.48508e-09
-1.11237e-11
1.48743e-09
-8.0072e-12
1.48887e-09
-4.88573e-12
1.48939e-09
-1.76122e-12
1.48899e-09
1.36475e-12
1.48767e-09
4.49066e-12
1.48543e-09
7.61477e-12
1.48228e-09
1.07355e-11
1.47821e-09
1.38513e-11
1.47322e-09
1.69609e-11
1.46733e-09
2.00624e-11
1.46052e-09
2.31537e-11
1.45281e-09
2.6233e-11
1.4442e-09
2.92985e-11
1.4347e-09
3.23482e-11
1.4243e-09
3.538e-11
1.41302e-09
3.83921e-11
1.40087e-09
4.13823e-11
1.38784e-09
4.43481e-11
1.37395e-09
4.72873e-11
1.3592e-09
5.01972e-11
1.34362e-09
5.30751e-11
1.3272e-09
5.59184e-11
1.30995e-09
5.87241e-11
1.2919e-09
6.14891e-11
1.27305e-09
6.42104e-11
1.25342e-09
6.68844e-11
1.23302e-09
6.95077e-11
1.21187e-09
7.20765e-11
1.18999e-09
7.45872e-11
1.16739e-09
7.70358e-11
1.14409e-09
7.9418e-11
1.12013e-09
8.17295e-11
1.09551e-09
8.39658e-11
1.07026e-09
8.61223e-11
1.04441e-09
8.81936e-11
1.01798e-09
9.01746e-11
9.91007e-10
9.206e-11
9.63515e-10
9.3844e-11
9.35537e-10
9.55214e-11
9.07106e-10
9.70863e-11
8.78257e-10
9.85325e-11
8.49026e-10
9.98538e-11
8.19453e-10
1.01044e-10
7.89578e-10
1.02095e-10
7.59443e-10
1.03e-10
7.29094e-10
1.03753e-10
6.98576e-10
1.04346e-10
6.67939e-10
1.04772e-10
6.37234e-10
1.05024e-10
6.06513e-10
1.05093e-10
5.75832e-10
1.04971e-10
5.45247e-10
1.04652e-10
5.14819e-10
1.04126e-10
4.84609e-10
1.03384e-10
4.5468e-10
1.02421e-10
4.251e-10
1.01225e-10
3.95935e-10
9.97913e-11
3.67257e-10
9.81101e-11
3.39137e-10
9.61746e-11
3.11649e-10
9.39775e-11
2.84867e-10
9.1512e-11
2.58868e-10
8.87719e-11
2.33729e-10
8.57518e-11
2.0953e-10
8.24473e-11
1.86347e-10
7.88555e-11
1.64258e-10
7.49755e-11
1.43341e-10
7.08087e-11
1.2367e-10
6.63592e-11
1.05315e-10
6.16353e-11
8.83448e-11
5.66499e-11
7.28191e-11
5.14221e-11
5.87903e-11
4.59791e-11
4.63003e-11
4.0358e-11
3.53772e-11
3.46084e-11
2.60321e-11
2.8797e-11
1.82552e-11
2.30116e-11
1.20103e-11
1.73667e-11
7.23042e-12
1.20119e-11
3.81257e-12
7.13956e-12
1.60961e-12
2.99647e-12
4.23894e-13
-1.05409e-13
-1.46078e-15
-1.77433e-12
-1.48564e-12
2.12977e-13
1.36704e-12
1.1797e-12
1.02527e-12
3.16207e-12
-1.58657e-12
6.39003e-12
-5.90401e-12
1.10371e-11
-1.14717e-11
1.72343e-11
-1.7925e-11
2.50832e-11
-2.49659e-11
3.46525e-11
-3.23598e-11
4.59662e-11
-3.99279e-11
5.90372e-11
-4.75296e-11
7.3854e-11
-5.50483e-11
9.03848e-11
-6.24015e-11
1.08581e-10
-6.95299e-11
1.28389e-10
-7.63819e-11
1.49745e-10
-8.29192e-11
1.72572e-10
-8.91197e-11
1.96791e-10
-9.49671e-11
2.22323e-10
-1.00446e-10
2.49086e-10
-1.05549e-10
2.76991e-10
-1.10278e-10
3.05948e-10
-1.14632e-10
3.35876e-10
-1.18614e-10
3.66688e-10
-1.22228e-10
3.98296e-10
-1.25482e-10
4.30615e-10
-1.28383e-10
4.63564e-10
-1.3094e-10
4.97064e-10
-1.33161e-10
5.31035e-10
-1.35057e-10
5.65399e-10
-1.36638e-10
6.00081e-10
-1.37915e-10
6.35011e-10
-1.38898e-10
6.7012e-10
-1.39596e-10
7.05339e-10
-1.40021e-10
7.40601e-10
-1.40185e-10
7.75847e-10
-1.40097e-10
8.11016e-10
-1.39768e-10
8.4605e-10
-1.39207e-10
8.80895e-10
-1.38424e-10
9.15495e-10
-1.37431e-10
9.49801e-10
-1.36236e-10
9.83765e-10
-1.34849e-10
1.01734e-09
-1.33278e-10
1.05048e-09
-1.31532e-10
1.08315e-09
-1.29621e-10
1.11531e-09
-1.27553e-10
1.14691e-09
-1.25335e-10
1.17792e-09
-1.22975e-10
1.20831e-09
-1.20481e-10
1.23805e-09
-1.1786e-10
1.2671e-09
-1.15119e-10
1.29543e-09
-1.12266e-10
1.32302e-09
-1.09306e-10
1.34985e-09
-1.06246e-10
1.37588e-09
-1.03091e-10
1.4011e-09
-9.9847e-11
1.42548e-09
-9.65198e-11
1.44901e-09
-9.31148e-11
1.47166e-09
-8.96368e-11
1.49342e-09
-8.60904e-11
1.51427e-09
-8.24803e-11
1.53419e-09
-7.88107e-11
1.55318e-09
-7.5086e-11
1.57121e-09
-7.13099e-11
1.58828e-09
-6.74861e-11
1.60437e-09
-6.36184e-11
1.61947e-09
-5.97101e-11
1.63358e-09
-5.57648e-11
1.64668e-09
-5.17857e-11
1.65877e-09
-4.77755e-11
1.66984e-09
-4.37369e-11
1.67988e-09
-3.96729e-11
1.68889e-09
-3.55858e-11
1.69685e-09
-3.14785e-11
1.70378e-09
-2.73536e-11
1.70965e-09
-2.32134e-11
1.71448e-09
-1.90599e-11
1.71825e-09
-1.48957e-11
1.72097e-09
-1.0723e-11
1.72263e-09
-6.544e-12
1.72323e-09
-2.36082e-12
1.72277e-09
1.82429e-12
1.72125e-09
6.00921e-12
1.71867e-09
1.01919e-11
1.71503e-09
1.43705e-11
1.71034e-09
1.85426e-11
1.7046e-09
2.27055e-11
1.69781e-09
2.68568e-11
1.68996e-09
3.09947e-11
1.68108e-09
3.51165e-11
1.67116e-09
3.92197e-11
1.66021e-09
4.33016e-11
1.64823e-09
4.73594e-11
1.63523e-09
5.13905e-11
1.62122e-09
5.5392e-11
1.60621e-09
5.93604e-11
1.5902e-09
6.32922e-11
1.57321e-09
6.71845e-11
1.55526e-09
7.10337e-11
1.53634e-09
7.48362e-11
1.51647e-09
7.85881e-11
1.49568e-09
8.22854e-11
1.47396e-09
8.59236e-11
1.45135e-09
8.94979e-11
1.42786e-09
9.30036e-11
1.4035e-09
9.64357e-11
1.37829e-09
9.97896e-11
1.35227e-09
1.0306e-10
1.32545e-09
1.06241e-10
1.29785e-09
1.09327e-10
1.26951e-09
1.12311e-10
1.24044e-09
1.15188e-10
1.21068e-09
1.17951e-10
1.18026e-09
1.20593e-10
1.14922e-09
1.23106e-10
1.11758e-09
1.25484e-10
1.08538e-09
1.27719e-10
1.05266e-09
1.29803e-10
1.01947e-09
1.31727e-10
9.8584e-10
1.33485e-10
9.51817e-10
1.35066e-10
9.1745e-10
1.36462e-10
8.82786e-10
1.37664e-10
8.47877e-10
1.38662e-10
8.12777e-10
1.39447e-10
7.77541e-10
1.40009e-10
7.42227e-10
1.40338e-10
7.06897e-10
1.40424e-10
6.71611e-10
1.40257e-10
6.36437e-10
1.39826e-10
6.01441e-10
1.39122e-10
5.66694e-10
1.38132e-10
5.32268e-10
1.36847e-10
4.98237e-10
1.35256e-10
4.64679e-10
1.33349e-10
4.31673e-10
1.31117e-10
3.99299e-10
1.28549e-10
3.67641e-10
1.25637e-10
3.36781e-10
1.22372e-10
3.06806e-10
1.18748e-10
2.778e-10
1.14757e-10
2.49852e-10
1.10396e-10
2.23047e-10
1.05661e-10
1.97472e-10
1.00552e-10
1.73209e-10
9.50721e-11
1.5034e-10
8.92284e-11
1.28943e-10
8.30328e-11
1.0909e-10
7.65035e-11
9.08469e-11
6.96664e-11
7.42691e-11
6.25574e-11
5.94018e-11
5.52253e-11
4.62762e-11
4.77343e-11
3.49059e-11
4.01678e-11
2.52839e-11
3.26343e-11
1.73784e-11
2.52731e-11
1.11284e-11
1.82623e-11
6.44044e-12
1.18278e-11
3.18239e-12
6.25457e-12
1.1799e-12
1.89737e-12
2.11488e-13
-8.04875e-13
-1.27394e-12
4.3989e-13
9.3513e-13
1.98159e-12
-5.19058e-13
4.84212e-12
-4.44832e-12
9.20329e-12
-1.02583e-11
1.51998e-11
-1.74705e-11
2.29491e-11
-2.56781e-11
3.25349e-11
-3.45517e-11
4.4009e-11
-4.38332e-11
5.73903e-11
-5.33177e-11
7.26947e-11
-6.28315e-11
8.98967e-11
-7.22484e-11
1.0896e-10
-8.14692e-11
1.29838e-10
-9.04119e-11
1.52475e-10
-9.9016e-11
1.76796e-10
-1.07238e-10
2.02721e-10
-1.15047e-10
2.30172e-10
-1.22417e-10
2.59062e-10
-1.29332e-10
2.89295e-10
-1.35782e-10
3.20781e-10
-1.41765e-10
3.53427e-10
-1.47279e-10
3.8714e-10
-1.52326e-10
4.21824e-10
-1.56911e-10
4.57386e-10
-1.61044e-10
4.93733e-10
-1.64732e-10
5.30778e-10
-1.67985e-10
5.6843e-10
-1.70813e-10
6.06603e-10
-1.73229e-10
6.4521e-10
-1.75247e-10
6.84171e-10
-1.76878e-10
7.23408e-10
-1.78134e-10
7.62841e-10
-1.79028e-10
8.02396e-10
-1.79577e-10
8.42e-10
-1.79791e-10
8.81585e-10
-1.79683e-10
9.21085e-10
-1.79267e-10
9.60433e-10
-1.78555e-10
9.99569e-10
-1.7756e-10
1.03843e-09
-1.76296e-10
1.07697e-09
-1.74772e-10
1.11512e-09
-1.73002e-10
1.15284e-09
-1.70996e-10
1.19008e-09
-1.68767e-10
1.22678e-09
-1.66325e-10
1.26291e-09
-1.63681e-10
1.29842e-09
-1.60844e-10
1.33327e-09
-1.57825e-10
1.36742e-09
-1.54634e-10
1.40084e-09
-1.5128e-10
1.43349e-09
-1.47771e-10
1.46534e-09
-1.44116e-10
1.49636e-09
-1.40324e-10
1.52652e-09
-1.36403e-10
1.55579e-09
-1.3236e-10
1.58414e-09
-1.28202e-10
1.61156e-09
-1.23936e-10
1.63801e-09
-1.1957e-10
1.66348e-09
-1.15109e-10
1.68795e-09
-1.1056e-10
1.7114e-09
-1.05928e-10
1.73381e-09
-1.0122e-10
1.75516e-09
-9.64402e-11
1.77545e-09
-9.15938e-11
1.79465e-09
-8.66855e-11
1.81275e-09
-8.17202e-11
1.82974e-09
-7.67025e-11
1.84561e-09
-7.16366e-11
1.86035e-09
-6.65268e-11
1.87396e-09
-6.13769e-11
1.88641e-09
-5.61904e-11
1.89771e-09
-5.09707e-11
1.90784e-09
-4.57212e-11
1.91681e-09
-4.04454e-11
1.9246e-09
-3.51463e-11
1.93122e-09
-2.98274e-11
1.93665e-09
-2.44918e-11
1.94089e-09
-1.9142e-11
1.94395e-09
-1.37809e-11
1.94582e-09
-8.41137e-12
1.94649e-09
-3.03678e-12
1.94598e-09
2.33993e-12
1.94427e-09
7.71648e-12
1.94137e-09
1.30903e-11
1.93728e-09
1.84584e-11
1.93201e-09
2.38183e-11
1.92555e-09
2.91666e-11