/*--------------------------------*- C++ -*----------------------------------*\
  =========                 |
  \\      /  F ield         | OpenFOAM: The Open Source CFD Toolbox
   \\    /   O peration     | Website:  https://openfoam.org
    \\  /    A nd           | Version:  7
     \\/     M anipulation  |
\*---------------------------------------------------------------------------*/
FoamFile
{
    version     2.0;
    format      ascii;
    class       volVectorField;
    location    "0.275";
    object      U;
}
// * * * * * * * * * * * * * * * * * * * * * * * * * * * * * * * * * * * * * //

dimensions      [0 1 -1 0 0 0 0];

internalField   nonuniform List<vector> 
51200
(
(-8.51098e-10 1.93754e-08 0)
(-3.10309e-08 3.17783e-08 0)
(-1.12842e-07 3.62657e-08 0)
(-1.8443e-07 3.06836e-08 0)
(-2.35615e-07 2.12772e-08 0)
(-2.55291e-07 1.03104e-08 0)
(-2.40829e-07 -1.74381e-09 0)
(-1.90206e-07 -1.31434e-08 0)
(-1.03576e-07 -2.48064e-08 0)
(1.89425e-08 -3.56995e-08 0)
(1.76395e-07 -4.63261e-08 0)
(3.67534e-07 -5.67712e-08 0)
(5.90788e-07 -6.62892e-08 0)
(8.44735e-07 -7.5193e-08 0)
(1.12713e-06 -8.38264e-08 0)
(1.43641e-06 -9.14135e-08 0)
(1.77105e-06 -9.85165e-08 0)
(2.12873e-06 -1.05357e-07 0)
(2.5077e-06 -1.11484e-07 0)
(2.90653e-06 -1.16758e-07 0)
(3.32329e-06 -1.21706e-07 0)
(3.75624e-06 -1.26187e-07 0)
(4.20414e-06 -1.30023e-07 0)
(4.66551e-06 -1.33494e-07 0)
(5.13853e-06 -1.36763e-07 0)
(5.62169e-06 -1.39675e-07 0)
(6.11381e-06 -1.42003e-07 0)
(6.6136e-06 -1.43869e-07 0)
(7.11958e-06 -1.45401e-07 0)
(7.63062e-06 -1.46626e-07 0)
(8.14572e-06 -1.47517e-07 0)
(8.66379e-06 -1.48032e-07 0)
(9.18362e-06 -1.48341e-07 0)
(9.70406e-06 -1.48498e-07 0)
(1.02243e-05 -1.48309e-07 0)
(1.07434e-05 -1.47741e-07 0)
(1.12606e-05 -1.46924e-07 0)
(1.17747e-05 -1.45931e-07 0)
(1.22852e-05 -1.44731e-07 0)
(1.27913e-05 -1.43316e-07 0)
(1.32924e-05 -1.41692e-07 0)
(1.37876e-05 -1.39895e-07 0)
(1.42763e-05 -1.3797e-07 0)
(1.47578e-05 -1.35865e-07 0)
(1.52317e-05 -1.33543e-07 0)
(1.56974e-05 -1.31042e-07 0)
(1.61544e-05 -1.28409e-07 0)
(1.66022e-05 -1.25681e-07 0)
(1.70402e-05 -1.22852e-07 0)
(1.74681e-05 -1.19855e-07 0)
(1.78856e-05 -1.16707e-07 0)
(1.82922e-05 -1.13473e-07 0)
(1.86875e-05 -1.1022e-07 0)
(1.90711e-05 -1.06964e-07 0)
(1.94429e-05 -1.03628e-07 0)
(1.98024e-05 -1.00171e-07 0)
(2.01494e-05 -9.659e-08 0)
(2.04836e-05 -9.29034e-08 0)
(2.08048e-05 -8.9135e-08 0)
(2.11128e-05 -8.53006e-08 0)
(2.14075e-05 -8.14151e-08 0)
(2.16885e-05 -7.74985e-08 0)
(2.19558e-05 -7.35426e-08 0)
(2.2209e-05 -6.95479e-08 0)
(2.24481e-05 -6.55367e-08 0)
(2.26729e-05 -6.1492e-08 0)
(2.28835e-05 -5.74039e-08 0)
(2.30795e-05 -5.32956e-08 0)
(2.32609e-05 -4.9178e-08 0)
(2.34276e-05 -4.50405e-08 0)
(2.35795e-05 -4.08671e-08 0)
(2.37164e-05 -3.66414e-08 0)
(2.38385e-05 -3.23602e-08 0)
(2.39455e-05 -2.80646e-08 0)
(2.40376e-05 -2.37907e-08 0)
(2.41145e-05 -1.95637e-08 0)
(2.41763e-05 -1.53547e-08 0)
(2.42228e-05 -1.11078e-08 0)
(2.42542e-05 -6.80244e-09 0)
(2.42703e-05 -2.46599e-09 0)
(2.42712e-05 1.88941e-09 0)
(2.4257e-05 6.24327e-09 0)
(2.42275e-05 1.05558e-08 0)
(2.41827e-05 1.4836e-08 0)
(2.41227e-05 1.91161e-08 0)
(2.40475e-05 2.3405e-08 0)
(2.39572e-05 2.76861e-08 0)
(2.38519e-05 3.19284e-08 0)
(2.37315e-05 3.61257e-08 0)
(2.3596e-05 4.03156e-08 0)
(2.34455e-05 4.45244e-08 0)
(2.32802e-05 4.87575e-08 0)
(2.31002e-05 5.29909e-08 0)
(2.29055e-05 5.71887e-08 0)
(2.26962e-05 6.13235e-08 0)
(2.24725e-05 6.5382e-08 0)
(2.22344e-05 6.93747e-08 0)
(2.1982e-05 7.33215e-08 0)
(2.17156e-05 7.72481e-08 0)
(2.14352e-05 8.11752e-08 0)
(2.11412e-05 8.50975e-08 0)
(2.08337e-05 8.89792e-08 0)
(2.05129e-05 9.27857e-08 0)
(2.0179e-05 9.65043e-08 0)
(1.98323e-05 1.00118e-07 0)
(1.94729e-05 1.03613e-07 0)
(1.91013e-05 1.0701e-07 0)
(1.87176e-05 1.10341e-07 0)
(1.83222e-05 1.1362e-07 0)
(1.79154e-05 1.16846e-07 0)
(1.74977e-05 1.19996e-07 0)
(1.70694e-05 1.23037e-07 0)
(1.66309e-05 1.25954e-07 0)
(1.61826e-05 1.28729e-07 0)
(1.5725e-05 1.31341e-07 0)
(1.52587e-05 1.33782e-07 0)
(1.4784e-05 1.36053e-07 0)
(1.43017e-05 1.38156e-07 0)
(1.38123e-05 1.40101e-07 0)
(1.33164e-05 1.41896e-07 0)
(1.28147e-05 1.43532e-07 0)
(1.23078e-05 1.44982e-07 0)
(1.17964e-05 1.46225e-07 0)
(1.12814e-05 1.47247e-07 0)
(1.07635e-05 1.48024e-07 0)
(1.02437e-05 1.48528e-07 0)
(9.72269e-06 1.48742e-07 0)
(9.20155e-06 1.48663e-07 0)
(8.6812e-06 1.48304e-07 0)
(8.16262e-06 1.47679e-07 0)
(7.64691e-06 1.46769e-07 0)
(7.13521e-06 1.45536e-07 0)
(6.62865e-06 1.43964e-07 0)
(6.12847e-06 1.42048e-07 0)
(5.63597e-06 1.39748e-07 0)
(5.15248e-06 1.37025e-07 0)
(4.67939e-06 1.33858e-07 0)
(4.21811e-06 1.3024e-07 0)
(3.77011e-06 1.26168e-07 0)
(3.33694e-06 1.21629e-07 0)
(2.92021e-06 1.166e-07 0)
(2.52151e-06 1.11079e-07 0)
(2.14252e-06 1.05081e-07 0)
(1.78499e-06 9.85751e-08 0)
(1.45073e-06 9.14896e-08 0)
(1.14153e-06 8.37758e-08 0)
(8.59184e-07 7.54268e-08 0)
(6.05476e-07 6.6452e-08 0)
(3.82135e-07 5.68801e-08 0)
(1.90803e-07 4.67539e-08 0)
(3.29821e-08 3.61226e-08 0)
(-9.00802e-08 2.50515e-08 0)
(-1.77507e-07 1.36392e-08 0)
(-2.28996e-07 2.07307e-09 0)
(-2.45229e-07 -9.26095e-09 0)
(-2.28476e-07 -1.96342e-08 0)
(-1.83345e-07 -2.77755e-08 0)
(-1.18434e-07 -3.14288e-08 0)
(-5.12978e-08 -2.67196e-08 0)
(-1.00643e-08 -1.00547e-08 0)
(-2.42278e-08 7.44938e-08 0)
(-1.05988e-07 1.25496e-07 0)
(-2.27944e-07 1.34832e-07 0)
(-3.34686e-07 1.0563e-07 0)
(-3.87547e-07 5.63313e-08 0)
(-3.67686e-07 -4.95472e-09 0)
(-2.61949e-07 -7.22103e-08 0)
(-6.50018e-08 -1.41984e-07 0)
(2.26592e-07 -2.12492e-07 0)
(6.13101e-07 -2.81495e-07 0)
(1.09342e-06 -3.48965e-07 0)
(1.66457e-06 -4.13869e-07 0)
(2.32401e-06 -4.75362e-07 0)
(3.06711e-06 -5.33793e-07 0)
(3.88945e-06 -5.88947e-07 0)
(4.78706e-06 -6.39888e-07 0)
(5.75469e-06 -6.8765e-07 0)
(6.78747e-06 -7.32249e-07 0)
(7.88127e-06 -7.7312e-07 0)
(9.03112e-06 -8.10373e-07 0)
(1.02317e-05 -8.44691e-07 0)
(1.14791e-05 -8.75597e-07 0)
(1.2769e-05 -9.03071e-07 0)
(1.40969e-05 -9.27706e-07 0)
(1.54585e-05 -9.49825e-07 0)
(1.68502e-05 -9.69173e-07 0)
(1.8268e-05 -9.8565e-07 0)
(1.97079e-05 -9.99535e-07 0)
(2.11662e-05 -1.01105e-06 0)
(2.26396e-05 -1.02015e-06 0)
(2.4125e-05 -1.02686e-06 0)
(2.56191e-05 -1.03133e-06 0)
(2.71184e-05 -1.0339e-06 0)
(2.86204e-05 -1.03467e-06 0)
(3.01224e-05 -1.03342e-06 0)
(3.16217e-05 -1.03023e-06 0)
(3.31154e-05 -1.02542e-06 0)
(3.46011e-05 -1.01907e-06 0)
(3.60767e-05 -1.01112e-06 0)
(3.75401e-05 -1.00161e-06 0)
(3.8989e-05 -9.90695e-07 0)
(4.04214e-05 -9.78474e-07 0)
(4.18353e-05 -9.65093e-07 0)
(4.32292e-05 -9.50527e-07 0)
(4.46013e-05 -9.34778e-07 0)
(4.595e-05 -9.17917e-07 0)
(4.72737e-05 -9.00085e-07 0)
(4.85708e-05 -8.81343e-07 0)
(4.98402e-05 -8.61762e-07 0)
(5.10806e-05 -8.41247e-07 0)
(5.22909e-05 -8.19836e-07 0)
(5.34696e-05 -7.97696e-07 0)
(5.46158e-05 -7.74934e-07 0)
(5.57286e-05 -7.51597e-07 0)
(5.68072e-05 -7.27676e-07 0)
(5.78506e-05 -7.03176e-07 0)
(5.88579e-05 -6.7813e-07 0)
(5.98282e-05 -6.52563e-07 0)
(6.07608e-05 -6.26497e-07 0)
(6.16552e-05 -5.99962e-07 0)
(6.25108e-05 -5.73005e-07 0)
(6.3327e-05 -5.4569e-07 0)
(6.41033e-05 -5.18064e-07 0)
(6.48391e-05 -4.90131e-07 0)
(6.55339e-05 -4.61928e-07 0)
(6.61873e-05 -4.33443e-07 0)
(6.6799e-05 -4.04666e-07 0)
(6.73687e-05 -3.75655e-07 0)
(6.78961e-05 -3.46467e-07 0)
(6.83806e-05 -3.17139e-07 0)
(6.88221e-05 -2.8767e-07 0)
(6.92205e-05 -2.58038e-07 0)
(6.95755e-05 -2.28195e-07 0)
(6.98868e-05 -1.98199e-07 0)
(7.01543e-05 -1.68111e-07 0)
(7.0378e-05 -1.38005e-07 0)
(7.05576e-05 -1.07889e-07 0)
(7.06931e-05 -7.77307e-08 0)
(7.07844e-05 -4.74903e-08 0)
(7.08314e-05 -1.71562e-08 0)
(7.08342e-05 1.32524e-08 0)
(7.07926e-05 4.36884e-08 0)
(7.07068e-05 7.40471e-08 0)
(7.05767e-05 1.04296e-07 0)
(7.04023e-05 1.34497e-07 0)
(7.01839e-05 1.64695e-07 0)
(6.99214e-05 1.94867e-07 0)
(6.9615e-05 2.24939e-07 0)
(6.92649e-05 2.54832e-07 0)
(6.88712e-05 2.8456e-07 0)
(6.84341e-05 3.14158e-07 0)
(6.79538e-05 3.43645e-07 0)
(6.74306e-05 3.73008e-07 0)
(6.68647e-05 4.02217e-07 0)
(6.62565e-05 4.31215e-07 0)
(6.56064e-05 4.59932e-07 0)
(6.49146e-05 4.88325e-07 0)
(6.41817e-05 5.16381e-07 0)
(6.3408e-05 5.44103e-07 0)
(6.25941e-05 5.71499e-07 0)
(6.17405e-05 5.98579e-07 0)
(6.08477e-05 6.25323e-07 0)
(5.99163e-05 6.51674e-07 0)
(5.89471e-05 6.77555e-07 0)
(5.79408e-05 7.02898e-07 0)
(5.68982e-05 7.27633e-07 0)
(5.582e-05 7.51738e-07 0)
(5.47072e-05 7.75212e-07 0)
(5.35607e-05 7.98053e-07 0)
(5.23816e-05 8.20246e-07 0)
(5.11707e-05 8.41765e-07 0)
(4.99293e-05 8.62507e-07 0)
(4.86587e-05 8.82378e-07 0)
(4.73601e-05 9.01314e-07 0)
(4.60349e-05 9.19249e-07 0)
(4.46845e-05 9.36134e-07 0)
(4.33106e-05 9.51919e-07 0)
(4.19148e-05 9.66569e-07 0)
(4.04988e-05 9.80028e-07 0)
(3.90643e-05 9.92244e-07 0)
(3.76134e-05 1.00314e-06 0)
(3.61478e-05 1.01263e-06 0)
(3.46699e-05 1.02062e-06 0)
(3.31818e-05 1.02705e-06 0)
(3.16858e-05 1.03187e-06 0)
(3.01845e-05 1.03495e-06 0)
(2.86804e-05 1.0362e-06 0)
(2.71763e-05 1.03551e-06 0)
(2.56748e-05 1.03282e-06 0)
(2.4179e-05 1.02806e-06 0)
(2.26919e-05 1.02115e-06 0)
(2.12167e-05 1.01197e-06 0)
(1.97568e-05 1.00043e-06 0)
(1.83156e-05 9.86433e-07 0)
(1.68968e-05 9.69871e-07 0)
(1.55041e-05 9.50614e-07 0)
(1.41415e-05 9.28549e-07 0)
(1.28129e-05 9.03583e-07 0)
(1.15226e-05 8.75621e-07 0)
(1.02748e-05 8.44567e-07 0)
(9.0739e-06 8.1031e-07 0)
(7.92443e-06 7.72753e-07 0)
(6.83096e-06 7.31859e-07 0)
(5.79811e-06 6.87596e-07 0)
(4.83064e-06 6.3988e-07 0)
(3.9333e-06 5.88634e-07 0)
(3.11075e-06 5.33872e-07 0)
(2.36751e-06 4.75678e-07 0)
(1.70789e-06 4.14216e-07 0)
(1.13574e-06 3.49762e-07 0)
(6.54351e-07 2.82758e-07 0)
(2.66099e-07 2.13889e-07 0)
(-2.78621e-08 1.44194e-07 0)
(-2.28158e-07 7.52285e-08 0)
(-3.38065e-07 9.40651e-09 0)
(-3.64727e-07 -4.94896e-08 0)
(-3.2039e-07 -9.5633e-08 0)
(-2.24447e-07 -1.20114e-07 0)
(-1.10078e-07 -1.0988e-07 0)
(-2.67913e-08 -5.12243e-08 0)
(-3.05749e-08 1.3488e-07 0)
(-1.19216e-07 2.46814e-07 0)
(-2.33625e-07 2.49569e-07 0)
(-3.06597e-07 1.72435e-07 0)
(-2.97148e-07 4.37606e-08 0)
(-1.7858e-07 -1.16274e-07 0)
(6.65195e-08 -2.94404e-07 0)
(4.4881e-07 -4.82427e-07 0)
(9.73428e-07 -6.72988e-07 0)
(1.64286e-06 -8.62693e-07 0)
(2.45499e-06 -1.04868e-06 0)
(3.4081e-06 -1.22808e-06 0)
(4.4968e-06 -1.40003e-06 0)
(5.71546e-06 -1.56392e-06 0)
(7.05884e-06 -1.71831e-06 0)
(8.51958e-06 -1.86328e-06 0)
(1.00902e-05 -1.99908e-06 0)
(1.17643e-05 -2.12504e-06 0)
(1.35349e-05 -2.24128e-06 0)
(1.53941e-05 -2.34861e-06 0)
(1.73348e-05 -2.44693e-06 0)
(1.93508e-05 -2.53595e-06 0)
(2.14344e-05 -2.61613e-06 0)
(2.35788e-05 -2.688e-06 0)
(2.57776e-05 -2.75168e-06 0)
(2.80249e-05 -2.80731e-06 0)
(3.03142e-05 -2.85526e-06 0)
(3.26394e-05 -2.89608e-06 0)
(3.49949e-05 -2.92991e-06 0)
(3.73752e-05 -2.95684e-06 0)
(3.97752e-05 -2.97708e-06 0)
(4.21893e-05 -2.99112e-06 0)
(4.46126e-05 -2.99933e-06 0)
(4.70406e-05 -3.00172e-06 0)
(4.9469e-05 -2.9985e-06 0)
(5.18933e-05 -2.99007e-06 0)
(5.43091e-05 -2.97682e-06 0)
(5.67127e-05 -2.95887e-06 0)
(5.91004e-05 -2.93629e-06 0)
(6.14687e-05 -2.90939e-06 0)
(6.3814e-05 -2.87842e-06 0)
(6.61329e-05 -2.84357e-06 0)
(6.84225e-05 -2.80507e-06 0)
(7.068e-05 -2.76304e-06 0)
(7.29025e-05 -2.71767e-06 0)
(7.50875e-05 -2.66919e-06 0)
(7.72324e-05 -2.61787e-06 0)
(7.93346e-05 -2.56381e-06 0)
(8.13923e-05 -2.50709e-06 0)
(8.34033e-05 -2.44785e-06 0)
(8.53657e-05 -2.38626e-06 0)
(8.72773e-05 -2.3225e-06 0)
(8.91364e-05 -2.25669e-06 0)
(9.09416e-05 -2.18883e-06 0)
(9.26912e-05 -2.1191e-06 0)
(9.4384e-05 -2.04772e-06 0)
(9.60183e-05 -1.97484e-06 0)
(9.75931e-05 -1.90054e-06 0)
(9.9107e-05 -1.8249e-06 0)
(0.000100559 -1.74795e-06 0)
(0.000101948 -1.66974e-06 0)
(0.000103273 -1.59036e-06 0)
(0.000104534 -1.50997e-06 0)
(0.000105729 -1.4287e-06 0)
(0.000106857 -1.34661e-06 0)
(0.000107918 -1.26368e-06 0)
(0.000108912 -1.17992e-06 0)
(0.000109837 -1.09544e-06 0)
(0.000110694 -1.01039e-06 0)
(0.000111481 -9.24831e-07 0)
(0.000112198 -8.38805e-07 0)
(0.000112846 -7.52331e-07 0)
(0.000113422 -6.65438e-07 0)
(0.000113928 -5.78158e-07 0)
(0.000114363 -4.90549e-07 0)
(0.000114727 -4.02666e-07 0)
(0.000115018 -3.14599e-07 0)
(0.000115239 -2.26409e-07 0)
(0.000115387 -1.38134e-07 0)
(0.000115463 -4.97634e-08 0)
(0.000115468 3.86956e-08 0)
(0.000115401 1.27209e-07 0)
(0.000115261 2.15679e-07 0)
(0.00011505 3.04014e-07 0)
(0.000114766 3.9219e-07 0)
(0.000114412 4.80211e-07 0)
(0.000113985 5.68059e-07 0)
(0.000113487 6.55678e-07 0)
(0.000112919 7.4297e-07 0)
(0.000112279 8.29847e-07 0)
(0.000111569 9.16261e-07 0)
(0.000110789 1.00218e-06 0)
(0.000109939 1.08756e-06 0)
(0.00010902 1.17239e-06 0)
(0.000108032 1.25662e-06 0)
(0.000106976 1.34018e-06 0)
(0.000105853 1.42294e-06 0)
(0.000104663 1.50482e-06 0)
(0.000103407 1.58571e-06 0)
(0.000102085 1.66552e-06 0)
(0.0001007 1.74421e-06 0)
(9.92506e-05 1.82172e-06 0)
(9.77392e-05 1.89801e-06 0)
(9.61665e-05 1.97295e-06 0)
(9.45336e-05 2.04643e-06 0)
(9.28419e-05 2.11833e-06 0)
(9.10928e-05 2.18849e-06 0)
(8.92877e-05 2.25681e-06 0)
(8.74283e-05 2.32315e-06 0)
(8.55161e-05 2.38738e-06 0)
(8.35529e-05 2.44942e-06 0)
(8.15406e-05 2.50915e-06 0)
(7.9481e-05 2.56639e-06 0)
(7.73766e-05 2.62094e-06 0)
(7.52293e-05 2.67265e-06 0)
(7.30417e-05 2.72134e-06 0)
(7.08162e-05 2.76687e-06 0)
(6.85556e-05 2.80907e-06 0)
(6.62627e-05 2.84777e-06 0)
(6.39403e-05 2.88277e-06 0)
(6.15915e-05 2.91385e-06 0)
(5.92197e-05 2.94077e-06 0)
(5.68283e-05 2.96334e-06 0)
(5.44208e-05 2.98132e-06 0)
(5.20012e-05 2.99455e-06 0)
(4.95733e-05 3.00281e-06 0)
(4.71413e-05 3.00584e-06 0)
(4.47097e-05 3.00336e-06 0)
(4.22828e-05 2.9951e-06 0)
(3.98654e-05 2.98081e-06 0)
(3.74625e-05 2.96023e-06 0)
(3.50792e-05 2.93309e-06 0)
(3.27209e-05 2.8991e-06 0)
(3.0393e-05 2.85801e-06 0)
(2.81015e-05 2.80956e-06 0)
(2.58523e-05 2.75349e-06 0)
(2.36515e-05 2.68951e-06 0)
(2.15055e-05 2.61734e-06 0)
(1.94208e-05 2.53671e-06 0)
(1.74041e-05 2.44739e-06 0)
(1.54622e-05 2.34912e-06 0)
(1.36023e-05 2.24169e-06 0)
(1.18314e-05 2.12491e-06 0)
(1.01567e-05 1.99871e-06 0)
(8.58522e-06 1.86305e-06 0)
(7.12409e-06 1.718e-06 0)
(5.78021e-06 1.56373e-06 0)
(4.56016e-06 1.4006e-06 0)
(3.47002e-06 1.22923e-06 0)
(2.51516e-06 1.05054e-06 0)
(1.69994e-06 8.65937e-07 0)
(1.02722e-06 6.77509e-07 0)
(4.97814e-07 4.88315e-07 0)
(1.09791e-07 3.0278e-07 0)
(-1.42519e-07 1.27301e-07 0)
(-2.69859e-07 -2.89069e-08 0)
(-2.89323e-07 -1.52721e-07 0)
(-2.26093e-07 -2.25918e-07 0)
(-1.20323e-07 -2.24191e-07 0)
(-3.1532e-08 -1.18262e-07 0)
(-2.75705e-08 1.99599e-07 0)
(-9.69238e-08 3.47072e-07 0)
(-1.60232e-07 3.21273e-07 0)
(-1.53579e-07 1.67796e-07 0)
(-3.41784e-08 -7.24256e-08 0)
(2.27432e-07 -3.68729e-07 0)
(6.51711e-07 -6.99723e-07 0)
(1.25167e-06 -1.04948e-06 0)
(2.03534e-06 -1.40655e-06 0)
(3.00424e-06 -1.76389e-06 0)
(4.15934e-06 -2.11452e-06 0)
(5.49664e-06 -2.4552e-06 0)
(7.01082e-06 -2.78314e-06 0)
(8.69599e-06 -3.09568e-06 0)
(1.05446e-05 -3.39163e-06 0)
(1.25478e-05 -3.67108e-06 0)
(1.46971e-05 -3.93261e-06 0)
(1.6984e-05 -4.17589e-06 0)
(1.93983e-05 -4.40139e-06 0)
(2.1931e-05 -4.60951e-06 0)
(2.45734e-05 -4.79982e-06 0)
(2.73161e-05 -4.97301e-06 0)
(3.01498e-05 -5.12975e-06 0)
(3.30655e-05 -5.27033e-06 0)
(3.6055e-05 -5.39489e-06 0)
(3.91097e-05 -5.50405e-06 0)
(4.22212e-05 -5.59849e-06 0)
(4.53814e-05 -5.67882e-06 0)
(4.85831e-05 -5.74536e-06 0)
(5.18188e-05 -5.79852e-06 0)
(5.50813e-05 -5.83901e-06 0)
(5.83633e-05 -5.86752e-06 0)
(6.16583e-05 -5.88431e-06 0)
(6.49604e-05 -5.8897e-06 0)
(6.82633e-05 -5.88432e-06 0)
(7.15608e-05 -5.86879e-06 0)
(7.48474e-05 -5.84353e-06 0)
(7.81181e-05 -5.80893e-06 0)
(8.13676e-05 -5.76538e-06 0)
(8.4591e-05 -5.71339e-06 0)
(8.77836e-05 -5.65342e-06 0)
(9.0941e-05 -5.58584e-06 0)
(9.40589e-05 -5.51096e-06 0)
(9.71335e-05 -5.42913e-06 0)
(0.000100161 -5.34069e-06 0)
(0.000103138 -5.24611e-06 0)
(0.00010606 -5.14582e-06 0)
(0.000108925 -5.04003e-06 0)
(0.000111729 -4.92892e-06 0)
(0.000114471 -4.81286e-06 0)
(0.000117146 -4.69227e-06 0)
(0.000119752 -4.56741e-06 0)
(0.000122287 -4.43849e-06 0)
(0.000124749 -4.30566e-06 0)
(0.000127136 -4.16911e-06 0)
(0.000129445 -4.02916e-06 0)
(0.000131674 -3.88603e-06 0)
(0.000133823 -3.73998e-06 0)
(0.000135888 -3.59126e-06 0)
(0.00013787 -3.44003e-06 0)
(0.000139766 -3.28637e-06 0)
(0.000141574 -3.13043e-06 0)
(0.000143295 -2.97243e-06 0)
(0.000144926 -2.81257e-06 0)
(0.000146466 -2.65099e-06 0)
(0.000147915 -2.48779e-06 0)
(0.000149272 -2.32308e-06 0)
(0.000150536 -2.157e-06 0)
(0.000151705 -1.98971e-06 0)
(0.00015278 -1.82131e-06 0)
(0.00015376 -1.65191e-06 0)
(0.000154644 -1.48157e-06 0)
(0.000155432 -1.31044e-06 0)
(0.000156123 -1.13861e-06 0)
(0.000156717 -9.66191e-07 0)
(0.000157213 -7.9323e-07 0)
(0.000157612 -6.19819e-07 0)
(0.000157912 -4.46065e-07 0)
(0.000158115 -2.7207e-07 0)
(0.00015822 -9.79134e-08 0)
(0.000158226 7.63031e-08 0)
(0.000158134 2.50515e-07 0)
(0.000157943 4.24657e-07 0)
(0.000157655 5.98634e-07 0)
(0.000157268 7.72362e-07 0)
(0.000156783 9.45744e-07 0)
(0.000156201 1.11867e-06 0)
(0.000155521 1.29105e-06 0)
(0.000154745 1.4628e-06 0)
(0.000153871 1.63383e-06 0)
(0.000152902 1.80401e-06 0)
(0.000151836 1.97324e-06 0)
(0.000150676 2.14139e-06 0)
(0.000149421 2.30834e-06 0)
(0.000148073 2.47398e-06 0)
(0.000146632 2.63819e-06 0)
(0.000145099 2.80082e-06 0)
(0.000143474 2.96175e-06 0)
(0.00014176 3.1208e-06 0)
(0.000139956 3.27783e-06 0)
(0.000138065 3.43266e-06 0)
(0.000136088 3.58507e-06 0)
(0.000134026 3.7349e-06 0)
(0.00013188 3.88196e-06 0)
(0.000129653 4.02604e-06 0)
(0.000127345 4.16698e-06 0)
(0.00012496 4.30454e-06 0)
(0.000122498 4.43851e-06 0)
(0.000119963 4.56864e-06 0)
(0.000117355 4.69462e-06 0)
(0.000114679 4.81616e-06 0)
(0.000111936 4.93304e-06 0)
(0.000109129 5.04495e-06 0)
(0.000106262 5.15157e-06 0)
(0.000103336 5.25256e-06 0)
(0.000100356 5.34761e-06 0)
(9.73243e-05 5.43641e-06 0)
(9.42454e-05 5.51865e-06 0)
(9.11229e-05 5.59396e-06 0)
(8.79608e-05 5.66196e-06 0)
(8.47632e-05 5.72225e-06 0)
(8.15347e-05 5.77441e-06 0)
(7.828e-05 5.818e-06 0)
(7.5004e-05 5.85259e-06 0)
(7.17119e-05 5.87777e-06 0)
(6.84091e-05 5.89311e-06 0)
(6.51011e-05 5.89819e-06 0)
(6.1794e-05 5.89251e-06 0)
(5.84937e-05 5.87556e-06 0)
(5.52067e-05 5.84686e-06 0)
(5.19398e-05 5.80589e-06 0)
(4.86997e-05 5.75215e-06 0)
(4.54937e-05 5.68513e-06 0)
(4.23293e-05 5.60429e-06 0)
(3.92141e-05 5.50915e-06 0)
(3.61562e-05 5.39922e-06 0)
(3.31638e-05 5.27401e-06 0)
(3.02452e-05 5.13301e-06 0)
(2.74092e-05 4.97577e-06 0)
(2.46645e-05 4.80187e-06 0)
(2.20201e-05 4.61093e-06 0)
(1.94852e-05 4.40264e-06 0)
(1.7069e-05 4.17673e-06 0)
(1.47808e-05 3.93307e-06 0)
(1.26297e-05 3.6717e-06 0)
(1.06246e-05 3.39288e-06 0)
(8.77421e-06 3.09714e-06 0)
(7.08663e-06 2.78534e-06 0)
(5.56924e-06 2.45888e-06 0)
(4.22837e-06 2.1198e-06 0)
(3.06897e-06 1.77098e-06 0)
(2.09404e-06 1.41653e-06 0)
(1.30402e-06 1.06225e-06 0)
(6.96005e-07 7.16207e-07 0)
(2.6273e-07 3.89611e-07 0)
(-8.69318e-09 9.79406e-08 0)
(-1.37919e-07 -1.37675e-07 0)
(-1.52867e-07 -2.89146e-07 0)
(-9.58169e-08 -3.20134e-07 0)
(-2.7877e-08 -1.83083e-07 0)
(-1.96873e-08 2.43308e-07 0)
(-5.06369e-08 3.94248e-07 0)
(-3.44098e-08 3.08613e-07 0)
(8.51125e-08 4.80393e-08 0)
(3.49972e-07 -3.35146e-07 0)
(7.8885e-07 -8.01035e-07 0)
(1.42341e-06 -1.31902e-06 0)
(2.26847e-06 -1.86667e-06 0)
(3.33122e-06 -2.42813e-06 0)
(4.61636e-06 -2.99022e-06 0)
(6.12315e-06 -3.54434e-06 0)
(7.84805e-06 -4.08442e-06 0)
(9.78615e-06 -4.6051e-06 0)
(1.19303e-05 -5.10289e-06 0)
(1.42712e-05 -5.57609e-06 0)
(1.67998e-05 -6.02307e-06 0)
(1.95066e-05 -6.44224e-06 0)
(2.23804e-05 -6.83375e-06 0)
(2.54101e-05 -7.19747e-06 0)
(2.85851e-05 -7.533e-06 0)
(3.18944e-05 -7.84057e-06 0)
(3.53267e-05 -8.1211e-06 0)
(3.88711e-05 -8.37516e-06 0)
(4.25171e-05 -8.60312e-06 0)
(4.62542e-05 -8.80562e-06 0)
(5.0072e-05 -8.98353e-06 0)
(5.39601e-05 -9.13785e-06 0)
(5.79092e-05 -9.26909e-06 0)
(6.19099e-05 -9.37794e-06 0)
(6.59529e-05 -9.46531e-06 0)
(7.00292e-05 -9.53219e-06 0)
(7.41304e-05 -9.57945e-06 0)
(7.82485e-05 -9.60754e-06 0)
(8.23756e-05 -9.61729e-06 0)
(8.65038e-05 -9.60969e-06 0)
(9.06258e-05 -9.58548e-06 0)
(9.47348e-05 -9.54523e-06 0)
(9.88243e-05 -9.48971e-06 0)
(0.000102888 -9.41964e-06 0)
(0.000106919 -9.33574e-06 0)
(0.000110912 -9.23874e-06 0)
(0.000114862 -9.12927e-06 0)
(0.000118763 -9.00784e-06 0)
(0.00012261 -8.87507e-06 0)
(0.000126399 -8.73157e-06 0)
(0.000130125 -8.57797e-06 0)
(0.000133783 -8.41482e-06 0)
(0.000137369 -8.2426e-06 0)
(0.000140881 -8.06172e-06 0)
(0.000144313 -7.8727e-06 0)
(0.000147663 -7.67609e-06 0)
(0.000150927 -7.47234e-06 0)
(0.000154103 -7.26183e-06 0)
(0.000157187 -7.04502e-06 0)
(0.000160177 -6.82226e-06 0)
(0.00016307 -6.59388e-06 0)
(0.000165864 -6.36025e-06 0)
(0.000168557 -6.12173e-06 0)
(0.000171146 -5.87867e-06 0)
(0.000173629 -5.63137e-06 0)
(0.000176006 -5.38012e-06 0)
(0.000178273 -5.12519e-06 0)
(0.00018043 -4.86688e-06 0)
(0.000182475 -4.60542e-06 0)
(0.000184407 -4.341e-06 0)
(0.000186224 -4.07386e-06 0)
(0.000187925 -3.80427e-06 0)
(0.00018951 -3.53247e-06 0)
(0.000190977 -3.25865e-06 0)
(0.000192325 -2.983e-06 0)
(0.000193554 -2.70563e-06 0)
(0.000194663 -2.42673e-06 0)
(0.000195651 -2.14646e-06 0)
(0.000196518 -1.86503e-06 0)
(0.000197263 -1.58262e-06 0)
(0.000197885 -1.29937e-06 0)
(0.000198386 -1.0154e-06 0)
(0.000198763 -7.30849e-07 0)
(0.000199017 -4.45858e-07 0)
(0.000199149 -1.6055e-07 0)
(0.000199156 1.24885e-07 0)
(0.000199041 4.10252e-07 0)
(0.000198802 6.95451e-07 0)
(0.00019844 9.80382e-07 0)
(0.000197955 1.26492e-06 0)
(0.000197348 1.54891e-06 0)
(0.000196617 1.83216e-06 0)
(0.000195765 2.11447e-06 0)
(0.000194791 2.39569e-06 0)
(0.000193695 2.67566e-06 0)
(0.00019248 2.95424e-06 0)
(0.000191144 3.23126e-06 0)
(0.000189689 3.50654e-06 0)
(0.000188115 3.77985e-06 0)
(0.000186425 4.05099e-06 0)
(0.000184618 4.31971e-06 0)
(0.000182695 4.58577e-06 0)
(0.000180659 4.84895e-06 0)
(0.00017851 5.109e-06 0)
(0.000176249 5.36571e-06 0)
(0.000173879 5.61883e-06 0)
(0.000171401 5.86804e-06 0)
(0.000168816 6.11298e-06 0)
(0.000166127 6.35332e-06 0)
(0.000163336 6.58871e-06 0)
(0.000160445 6.81883e-06 0)
(0.000157457 7.04335e-06 0)
(0.000154373 7.2619e-06 0)
(0.000151197 7.47409e-06 0)
(0.000147932 7.67952e-06 0)
(0.00014458 7.87769e-06 0)
(0.000141146 8.06814e-06 0)
(0.000137631 8.25039e-06 0)
(0.000134041 8.42393e-06 0)
(0.000130379 8.58826e-06 0)
(0.000126649 8.74285e-06 0)
(0.000122855 8.88717e-06 0)
(0.000119003 9.0207e-06 0)
(0.000115096 9.14284e-06 0)
(0.00011114 9.25296e-06 0)
(0.00010714 9.35044e-06 0)
(0.000103102 9.43462e-06 0)
(9.9032e-05 9.50483e-06 0)
(9.49356e-05 9.56038e-06 0)
(9.08194e-05 9.60058e-06 0)
(8.66903e-05 9.62469e-06 0)
(8.25552e-05 9.63201e-06 0)
(7.84214e-05 9.6218e-06 0)
(7.42966e-05 9.59326e-06 0)
(7.01887e-05 9.54563e-06 0)
(6.61059e-05 9.47811e-06 0)
(6.20568e-05 9.38988e-06 0)
(5.80503e-05 9.28015e-06 0)
(5.40955e-05 9.14813e-06 0)
(5.02019e-05 8.99302e-06 0)
(4.63794e-05 8.81409e-06 0)
(4.26378e-05 8.61058e-06 0)
(3.89875e-05 8.38178e-06 0)
(3.54391e-05 8.12698e-06 0)
(3.20031e-05 7.84558e-06 0)
(2.86904e-05 7.53705e-06 0)
(2.5512e-05 7.20101e-06 0)
(2.2479e-05 6.8372e-06 0)
(1.96021e-05 6.44557e-06 0)
(1.68923e-05 6.02632e-06 0)
(1.43601e-05 5.58e-06 0)
(1.20153e-05 5.10764e-06 0)
(9.86746e-06 4.61086e-06 0)
(7.92479e-06 4.09204e-06 0)
(6.19437e-06 3.55461e-06 0)
(4.68154e-06 3.00335e-06 0)
(3.38939e-06 2.44482e-06 0)
(2.31812e-06 1.88801e-06 0)
(1.46424e-06 1.34507e-06 0)
(8.19716e-07 8.32314e-07 0)
(3.7093e-07 3.71535e-07 0)
(9.74848e-08 -8.33133e-09 0)
(-2.91428e-08 -2.69697e-07 0)
(-4.96878e-08 -3.64534e-07 0)
(-1.97271e-08 -2.28172e-07 0)
(-9.03932e-09 2.59654e-07 0)
(9.13141e-09 3.70278e-07 0)
(1.23648e-07 1.86559e-07 0)
(3.80711e-07 -2.15342e-07 0)
(8.15834e-07 -7.74617e-07 0)
(1.45762e-06 -1.44157e-06 0)
(2.32698e-06 -2.17865e-06 0)
(3.43703e-06 -2.95736e-06 0)
(4.79708e-06 -3.75515e-06 0)
(6.4105e-06 -4.55566e-06 0)
(8.27674e-06 -5.34687e-06 0)
(1.03927e-05 -6.11902e-06 0)
(1.27531e-05 -6.86518e-06 0)
(1.53494e-05 -7.58082e-06 0)
(1.81724e-05 -8.26235e-06 0)
(2.12122e-05 -8.90659e-06 0)
(2.44574e-05 -9.51248e-06 0)
(2.78957e-05 -1.00794e-05 0)
(3.15155e-05 -1.06066e-05 0)
(3.53043e-05 -1.10937e-05 0)
(3.92493e-05 -1.15414e-05 0)
(4.33378e-05 -1.19502e-05 0)
(4.75575e-05 -1.23206e-05 0)
(5.18962e-05 -1.26534e-05 0)
(5.63416e-05 -1.29495e-05 0)
(6.08816e-05 -1.32101e-05 0)
(6.55045e-05 -1.34363e-05 0)
(7.01994e-05 -1.36289e-05 0)
(7.49552e-05 -1.3789e-05 0)
(7.97608e-05 -1.39181e-05 0)
(8.46059e-05 -1.40172e-05 0)
(8.94808e-05 -1.40872e-05 0)
(9.43759e-05 -1.41294e-05 0)
(9.92816e-05 -1.41448e-05 0)
(0.000104189 -1.41348e-05 0)
(0.00010909 -1.41004e-05 0)
(0.000113975 -1.40424e-05 0)
(0.000118838 -1.3962e-05 0)
(0.00012367 -1.38603e-05 0)
(0.000128464 -1.37382e-05 0)
(0.000133214 -1.35967e-05 0)
(0.000137912 -1.34368e-05 0)
(0.000142553 -1.32592e-05 0)
(0.00014713 -1.30649e-05 0)
(0.000151638 -1.28549e-05 0)
(0.000156071 -1.263e-05 0)
(0.000160425 -1.23908e-05 0)
(0.000164694 -1.21381e-05 0)
(0.000168874 -1.18728e-05 0)
(0.00017296 -1.15955e-05 0)
(0.000176949 -1.13069e-05 0)
(0.000180835 -1.10077e-05 0)
(0.000184617 -1.06983e-05 0)
(0.00018829 -1.03796e-05 0)
(0.000191851 -1.0052e-05 0)
(0.000195297 -9.71618e-06 0)
(0.000198626 -9.37258e-06 0)
(0.000201833 -9.02175e-06 0)
(0.000204918 -8.6641e-06 0)
(0.000207877 -8.30008e-06 0)
(0.000210709 -7.93016e-06 0)
(0.000213411 -7.5548e-06 0)
(0.000215981 -7.17441e-06 0)
(0.000218419 -6.78932e-06 0)
(0.000220721 -6.39983e-06 0)
(0.000222887 -6.00627e-06 0)
(0.000224915 -5.60903e-06 0)
(0.000226804 -5.20848e-06 0)
(0.000228553 -4.8049e-06 0)
(0.00023016 -4.39856e-06 0)
(0.000231625 -3.98968e-06 0)
(0.000232947 -3.57855e-06 0)
(0.000234126 -3.16541e-06 0)
(0.000235159 -2.75047e-06 0)
(0.000236048 -2.33399e-06 0)
(0.00023679 -1.91627e-06 0)
(0.000237387 -1.49752e-06 0)
(0.000237837 -1.07793e-06 0)
(0.00023814 -6.5768e-07 0)
(0.000238297 -2.36989e-07 0)
(0.000238307 1.83915e-07 0)
(0.000238169 6.04767e-07 0)
(0.000237885 1.02536e-06 0)
(0.000237453 1.44553e-06 0)
(0.000236875 1.86506e-06 0)
(0.000236151 2.28376e-06 0)
(0.00023528 2.70138e-06 0)
(0.000234264 3.11764e-06 0)
(0.000233103 3.5323e-06 0)
(0.000231797 3.94506e-06 0)
(0.000230348 4.3557e-06 0)
(0.000228756 4.76398e-06 0)
(0.000227021 5.16965e-06 0)
(0.000225146 5.5724e-06 0)
(0.000223131 5.9719e-06 0)
(0.000220977 6.36783e-06 0)
(0.000218686 6.75983e-06 0)
(0.000216259 7.14753e-06 0)
(0.000213698 7.53055e-06 0)
(0.000211005 7.90855e-06 0)
(0.000208181 8.28113e-06 0)
(0.000205228 8.64788e-06 0)
(0.000202149 9.00832e-06 0)
(0.000198946 9.36193e-06 0)
(0.000195621 9.70824e-06 0)
(0.000192178 1.00467e-05 0)
(0.000188618 1.03769e-05 0)
(0.000184946 1.06981e-05 0)
(0.000181164 1.10099e-05 0)
(0.000177276 1.13116e-05 0)
(0.000173286 1.16026e-05 0)
(0.000169197 1.18821e-05 0)
(0.000165014 1.21495e-05 0)
(0.00016074 1.2404e-05 0)
(0.000156382 1.2645e-05 0)
(0.000151943 1.28715e-05 0)
(0.000147429 1.30829e-05 0)
(0.000142845 1.32784e-05 0)
(0.000138197 1.3457e-05 0)
(0.000133491 1.36179e-05 0)
(0.000128734 1.37601e-05 0)
(0.000123931 1.38828e-05 0)
(0.000119091 1.39848e-05 0)
(0.000114219 1.40653e-05 0)
(0.000109325 1.41233e-05 0)
(0.000104416 1.41577e-05 0)
(9.94993e-05 1.41674e-05 0)
(9.45849e-05 1.41514e-05 0)
(8.96812e-05 1.41086e-05 0)
(8.47978e-05 1.40379e-05 0)
(7.99442e-05 1.39381e-05 0)
(7.51306e-05 1.3808e-05 0)
(7.03672e-05 1.36467e-05 0)
(6.56648e-05 1.34529e-05 0)
(6.10346e-05 1.32256e-05 0)
(5.64878e-05 1.29637e-05 0)
(5.20362e-05 1.26662e-05 0)
(4.76916e-05 1.23322e-05 0)
(4.3466e-05 1.19607e-05 0)
(3.93719e-05 1.1551e-05 0)
(3.54218e-05 1.11024e-05 0)
(3.16281e-05 1.06144e-05 0)
(2.80033e-05 1.00869e-05 0)
(2.45598e-05 9.51994e-06 0)
(2.13098e-05 8.91404e-06 0)
(1.8265e-05 8.27021e-06 0)
(1.54365e-05 7.59012e-06 0)
(1.28345e-05 6.8763e-06 0)
(1.04683e-05 6.1324e-06 0)
(8.34537e-06 5.36343e-06 0)
(6.47152e-06 4.57628e-06 0)
(4.85002e-06 3.7802e-06 0)
(3.48114e-06 2.98753e-06 0)
(2.3614e-06 2.21462e-06 0)
(1.48277e-06 1.48293e-06 0)
(8.31897e-07 8.20402e-07 0)
(3.89068e-07 2.63238e-07 0)
(1.26914e-07 -1.42362e-07 0)
(9.14107e-09 -3.37952e-07 0)
(-9.3702e-09 -2.44922e-07 0)
(2.10988e-09 2.43805e-07 0)
(7.54088e-08 2.62332e-07 0)
(3.01271e-07 -6.16187e-08 0)
(7.10859e-07 -6.43036e-07 0)
(1.33456e-06 -1.41166e-06 0)
(2.19759e-06 -2.31145e-06 0)
(3.3181e-06 -3.29844e-06 0)
(4.70968e-06 -4.3374e-06 0)
(6.37948e-06 -5.40135e-06 0)
(8.33041e-06 -6.47014e-06 0)
(1.05623e-05 -7.52731e-06 0)
(1.30717e-05 -8.56039e-06 0)
(1.58519e-05 -9.56105e-06 0)
(1.88947e-05 -1.05224e-05 0)
(2.21905e-05 -1.1439e-05 0)
(2.57282e-05 -1.23073e-05 0)
(2.9495e-05 -1.31257e-05 0)
(3.34785e-05 -1.3892e-05 0)
(3.76655e-05 -1.46053e-05 0)
(4.20423e-05 -1.52657e-05 0)
(4.65948e-05 -1.58735e-05 0)
(5.13091e-05 -1.64291e-05 0)
(5.61717e-05 -1.6933e-05 0)
(6.11686e-05 -1.73863e-05 0)
(6.62861e-05 -1.77902e-05 0)
(7.15108e-05 -1.81462e-05 0)
(7.68299e-05 -1.84553e-05 0)
(8.22307e-05 -1.87187e-05 0)
(8.77005e-05 -1.89383e-05 0)
(9.32271e-05 -1.91156e-05 0)
(9.87989e-05 -1.9252e-05 0)
(0.000104405 -1.93487e-05 0)
(0.000110034 -1.94074e-05 0)
(0.000115675 -1.94298e-05 0)
(0.000121318 -1.94172e-05 0)
(0.000126953 -1.9371e-05 0)
(0.000132572 -1.92927e-05 0)
(0.000138164 -1.91836e-05 0)
(0.000143722 -1.90453e-05 0)
(0.000149236 -1.88791e-05 0)
(0.0001547 -1.86861e-05 0)
(0.000160105 -1.84678e-05 0)
(0.000165444 -1.82252e-05 0)
(0.000170711 -1.79596e-05 0)
(0.000175898 -1.76723e-05 0)
(0.000181 -1.73644e-05 0)
(0.00018601 -1.70368e-05 0)
(0.000190924 -1.66906e-05 0)
(0.000195735 -1.6327e-05 0)
(0.000200439 -1.59468e-05 0)
(0.000205031 -1.5551e-05 0)
(0.000209506 -1.51405e-05 0)
(0.000213861 -1.47161e-05 0)
(0.000218091 -1.42786e-05 0)
(0.000222192 -1.38289e-05 0)
(0.000226161 -1.33676e-05 0)
(0.000229994 -1.28957e-05 0)
(0.000233689 -1.24136e-05 0)
(0.000237242 -1.19222e-05 0)
(0.000240652 -1.14219e-05 0)
(0.000243914 -1.09134e-05 0)
(0.000247027 -1.03974e-05 0)
(0.000249989 -9.87427e-06 0)
(0.000252797 -9.34461e-06 0)
(0.000255451 -8.80887e-06 0)
(0.000257947 -8.26754e-06 0)
(0.000260284 -7.7211e-06 0)
(0.000262461 -7.17001e-06 0)
(0.000264477 -6.61465e-06 0)
(0.00026633 -6.0554e-06 0)
(0.000268018 -5.49265e-06 0)
(0.000269542 -4.92675e-06 0)