/*--------------------------------*- C++ -*----------------------------------*\
  =========                 |
  \\      /  F ield         | OpenFOAM: The Open Source CFD Toolbox
   \\    /   O peration     | Website:  https://openfoam.org
    \\  /    A nd           | Version:  7
     \\/     M anipulation  |
\*---------------------------------------------------------------------------*/
FoamFile
{
    version     2.0;
    format      ascii;
    class       volScalarField;
    location    "0.075";
    object      p;
}
// * * * * * * * * * * * * * * * * * * * * * * * * * * * * * * * * * * * * * //

dimensions      [0 2 -2 0 0 0 0];

internalField   nonuniform List<scalar> 
12800
(
-4.78515e-09
8.46097e-06
-6.17415e-05
-0.000212336
-0.000429477
-0.0006987
-0.00100514
-0.00133509
-0.00167694
-0.00202095
-0.00235918
-0.00268525
-0.00299387
-0.00328092
-0.00354313
-0.00377799
-0.00398367
-0.0041589
-0.00430279
-0.0044149
-0.00449503
-0.00454319
-0.00455956
-0.00454447
-0.00449831
-0.00442161
-0.00431502
-0.00417913
-0.00401452
-0.00382176
-0.00360141
-0.00335398
-0.00308
-0.00278002
-0.00245452
-0.0021039
-0.00172852
-0.00132875
-0.000904973
-0.000457463
1.35863e-05
0.000507993
0.00102558
0.00156621
0.00212978
0.00271618
0.00332532
0.00395714
0.00461163
0.00528876
0.00598846
0.00671068
0.00745542
0.0082227
0.00901253
0.00982487
0.0106598
0.0115173
0.0123976
0.0133006
0.0142264
0.0151752
0.0161468
0.0171416
0.0181593
0.0192002
0.0202644
0.0213519
0.022463
0.0235977
0.0247562
0.0259387
0.0271455
0.0283768
0.0296327
0.0309136
0.0322196
0.033551
0.034908
0.036291
0.0377
0.0391355
0.0405977
0.0420869
0.0436033
0.0451473
0.046719
0.0483186
0.0499463
0.0516021
0.0532863
0.0549989
0.0567398
0.0585091
0.0603068
0.0621326
0.0639864
0.0658678
0.0677763
0.0697114
0.0716725
0.0736585
0.0756686
0.0777015
0.079756
0.0818304
0.0839232
0.0860324
0.0881559
0.0902914
0.0924363
0.0945877
0.0967427
0.0988979
0.10105
0.103194
0.105328
0.107446
0.109543
0.111616
0.113659
0.115667
0.117635
0.119556
0.121427
0.12324
0.124991
0.126675
0.128284
0.129816
0.131263
0.132622
0.133888
0.135057
0.136124
0.137087
0.137943
0.138691
0.139328
0.139854
0.140269
0.140575
0.140773
0.140867
0.140859
0.140756
0.140563
0.140288
0.139938
0.139525
0.139059
0.138555
0.138028
0.137496
0.136981
0.136508
0.136105
0.135805
0.135643
0.135628
-6.7599e-06
6.24226e-06
-5.56824e-05
-0.000185766
-0.000370722
-0.000600097
-0.000862464
-0.00114685
-0.00144345
-0.00174396
-0.00204124
-0.00232929
-0.00260328
-0.00285911
-0.00309354
-0.00330405
-0.00348863
-0.00364577
-0.00377447
-0.00387401
-0.00394396
-0.00398417
-0.00399467
-0.00397555
-0.00392706
-0.00384953
-0.00374335
-0.00360897
-0.00344686
-0.00325746
-0.00304121
-0.00279851
-0.00252976
-0.00223546
-0.001916
-0.00157174
-0.00120301
-0.000810103
-0.000393308
4.71473e-05
0.000511071
0.000998285
0.00150865
0.00204208
0.00259847
0.00317773
0.00377977
0.00440455
0.00505208
0.00572232
0.0064152
0.00713069
0.00786881
0.00862958
0.00941298
0.010219
0.0110477
0.0118991
0.0127734
0.0136706
0.0145907
0.0155337
0.0164999
0.0174892
0.0185016
0.0195372
0.0205962
0.0216786
0.0227846
0.0239143
0.0250679
0.0262455
0.0274475
0.0286739
0.0299251
0.0312011
0.0325022
0.0338287
0.0351806
0.0365584
0.0379621
0.0393919
0.0408483
0.0423314
0.0438415
0.0453788
0.0469433
0.0485353
0.0501549
0.0518021
0.0534771
0.0551798
0.0569101
0.058668
0.0604534
0.062266
0.0641057
0.0659718
0.067864
0.0697816
0.0717239
0.0736899
0.0756786
0.0776887
0.0797189
0.0817676
0.0838331
0.0859136
0.0880068
0.0901104
0.0922219
0.0943385
0.0964571
0.0985745
0.100687
0.102792
0.104884
0.106959
0.109014
0.111043
0.113042
0.115005
0.116929
0.118807
0.120634
0.122405
0.124116
0.12576
0.127332
0.128829
0.130244
0.131574
0.132815
0.133962
0.135012
0.135963
0.136812
0.137557
0.138197
0.138733
0.139164
0.139492
0.139718
0.139847
0.139882
0.139827
0.13969
0.139477
0.139196
0.138857
0.138471
0.138052
0.137612
0.13717
0.136743
0.136352
0.136019
0.135768
0.135628
0.135613
7.0568e-05
7.87091e-05
1.71968e-05
-0.000103975
-0.000271946
-0.000477909
-0.000712632
-0.000966938
-0.00123261
-0.00150243
-0.00177003
-0.00203002
-0.00227783
-0.00250963
-0.00272236
-0.0029135
-0.003081
-0.00322338
-0.00333946
-0.00342841
-0.00348967
-0.00352295
-0.0035281
-0.00350515
-0.00345421
-0.00337547
-0.00326918
-0.00313566
-0.00297523
-0.00278828
-0.00257515
-0.00233615
-0.00207162
-0.00178193
-0.00146744
-0.00112845
-0.000765268
-0.000378144
3.27306e-05
0.000467179
0.000925011
0.00140605
0.00191021
0.00243741
0.00298757
0.0035606
0.00415643
0.00477507
0.00541649
0.00608066
0.00676753
0.00747709
0.00820938
0.00896439
0.00974208
0.0105425
0.0113657
0.0122117
0.0130807
0.0139726
0.0148875
0.0158255
0.0167867
0.0177711
0.0187786
0.0198094
0.0208636
0.0219413
0.0230427
0.0241678
0.0253169
0.02649
0.0276875
0.0289095
0.0301562
0.0314277
0.0327243
0.0340462
0.0353935
0.0367664
0.0381651
0.0395898
0.0410408
0.0425183
0.0440226
0.0455536
0.0471116
0.0486968
0.0503091
0.0519487
0.0536155
0.0553095
0.0570306
0.0587786
0.0605534
0.0623548
0.0641823
0.0660356
0.067914
0.0698168
0.0717434
0.0736928
0.0756638
0.0776552
0.0796656
0.0816934
0.0837369
0.0857942
0.0878631
0.0899413
0.0920263
0.0941153
0.0962053
0.0982931
0.100375
0.102448
0.104508
0.106551
0.108572
0.110568
0.112533
0.114463
0.116353
0.118198
0.119992
0.121732
0.123412
0.125027
0.126572
0.128043
0.129435
0.130744
0.131966
0.133097
0.134136
0.135078
0.135922
0.136666
0.13731
0.137854
0.138297
0.138643
0.138891
0.139047
0.139114
0.139096
0.139
0.138832
0.138601
0.138316
0.137987
0.137627
0.137247
0.136863
0.136492
0.13615
0.135855
0.135626
0.135487
0.135452
0.000236465
0.00022253
0.000149897
2.67763e-05
-0.000136085
-0.000330927
-0.00054996
-0.000785538
-0.00103068
-0.00127909
-0.00152527
-0.00176434
-0.00199213
-0.00220519
-0.00240058
-0.00257591
-0.00272927
-0.00285915
-0.00296438
-0.00304411
-0.0030977
-0.00312473
-0.00312496
-0.00309831
-0.00304482
-0.0029646
-0.00285782
-0.00272467
-0.0025654
-0.0023803
-0.00216962
-0.00193365
-0.00167269
-0.001387
-0.00107684
-0.000742471
-0.000384183
-2.17993e-06
0.00040341
0.000832444
0.00128475
0.00176021
0.00225873
0.00278025
0.00332469
0.00389197
0.00448209
0.00509505
0.00573081
0.00638933
0.00707059
0.00777464
0.00850147
0.00925107
0.0100234
0.0108185
0.0116366
0.0124775
0.0133414
0.0142284
0.0151384
0.0160716
0.0170281
0.0180077
0.0190105
0.0200367
0.0210863
0.0221595
0.0232563
0.024377
0.0255216
0.0266904
0.0278835
0.0291012
0.0303435
0.0316107
0.0329028
0.0342202
0.0355629
0.036931
0.0383248
0.0397445
0.0411903
0.0426623
0.0441609
0.0456859
0.0472377
0.0488163
0.0504218
0.0520542
0.0537134
0.0553994
0.0571119
0.0588509
0.0606161
0.0624073
0.064224
0.0660657
0.0679319
0.0698219
0.0717348
0.0736697
0.0756255
0.0776009
0.0795944
0.0816045
0.0836295
0.0856674
0.0877162
0.0897734
0.0918366
0.0939031
0.0959698
0.0980337
0.100091
0.102139
0.104174
0.10619
0.108186
0.110155
0.112094
0.113998
0.115862
0.117681
0.119451
0.121167
0.122823
0.124416
0.125941
0.127393
0.128768
0.130061
0.13127
0.132391
0.133421
0.134358
0.135199
0.135944
0.136592
0.137142
0.137596
0.137955
0.138221
0.138398
0.138489
0.138499
0.138433
0.1383
0.138105
0.137859
0.13757
0.137249
0.136909
0.136562
0.136222
0.135904
0.135624
0.135395
0.135236
0.135155
0.000471992
0.000422096
0.000328721
0.000196175
3.11716e-05
-0.000159725
-0.000369951
-0.000593241
-0.000823639
-0.00105587
-0.00128515
-0.00150716
-0.00171828
-0.00191537
-0.00209571
-0.00225714
-0.00239786
-0.00251638
-0.00261162
-0.00268273
-0.00272903
-0.00275006
-0.00274553
-0.00271523
-0.00265914
-0.0025773
-0.00246981
-0.00233681
-0.00217848
-0.00199497
-0.0017865
-0.00155333
-0.00129568
-0.00101376
-0.000707754
-0.00037788
-2.43417e-05
0.000352712
0.000753168
0.00117689
0.00162376
0.00209371
0.00258668
0.00310258
0.00364132
0.0042029
0.00478733
0.0053946
0.00602468
0.00667753
0.00735319
0.00805169
0.00877301
0.00951714
0.0102841
0.0110739
0.0118867
0.0127224
0.0135812
0.0144631
0.0153682
0.0162965
0.017248
0.0182227
0.0192208
0.0202422
0.0212871
0.0223556
0.0234478
0.0245638
0.0257039
0.0268681
0.0280567
0.0292699
0.0305076
0.0317702
0.0330577
0.0343703
0.0357081
0.0370713
0.03846
0.0398744
0.0413148
0.0427812
0.0442738
0.0457927
0.0473381
0.04891
0.0505086
0.0521337
0.0537852
0.0554631
0.0571672
0.0588973
0.0606531
0.0624343
0.0642404
0.066071
0.0679254
0.069803
0.071703
0.0736243
0.0755657
0.0775261
0.0795039
0.0814977
0.0835057
0.0855261
0.0875565
0.0895949
0.0916385
0.0936849
0.0957309
0.0977737
0.0998098
0.101836
0.103848
0.105842
0.107815
0.109762
0.111679
0.11356
0.115403
0.117201
0.11895
0.120646
0.122284
0.123859
0.125367
0.126804
0.128165
0.129446
0.130645
0.131758
0.132782
0.133715
0.134555
0.135301
0.135953
0.13651
0.136973
0.137345
0.137626
0.13782
0.137931
0.137964
0.137924
0.137818
0.137652
0.137435
0.137176
0.136885
0.136572
0.136249
0.135928
0.13562
0.13534
0.135099
0.134903
0.134756
0.000759879
0.000665331
0.000544392
0.000396524
0.00022339
3.04415e-05
-0.000176864
-0.000393355
-0.000614221
-0.00083498
-0.0010515
-0.00126017
-0.0014578
-0.00164159
-0.00180919
-0.00195862
-0.00208825
-0.00219673
-0.00228302
-0.00234627
-0.00238583
-0.00240123
-0.00239215
-0.00235835
-0.00229972
-0.00221623
-0.00210795
-0.00197495
-0.00181736
-0.00163528
-0.00142887
-0.00119831
-0.000943764
-0.000665391
-0.000363356
-3.78122e-05
0.000311137
0.000683397
0.00107886
0.0014974
0.00193897
0.00240353
0.00289103
0.00340136
0.0039345
0.00449046
0.00506926
0.00567087
0.00629529
0.00694251
0.00761259
0.00830555
0.00902135
0.00976
0.0105215
0.011306
0.0121135
0.012944
0.0137976
0.0146744
0.0155745
0.0164978
0.0174443
0.0184141
0.0194072
0.0204238
0.0214639
0.0225277
0.0236151
0.0247265
0.0258618
0.0270214
0.0282054
0.0294138
0.0306468
0.0319046
0.0331872
0.0344949
0.0358277
0.0371857
0.0385691
0.0399781
0.0414129
0.0428735
0.04436
0.0458727
0.0474116
0.0489768
0.0505684
0.0521861
0.05383
0.0554999
0.0571956
0.0589168
0.0606634
0.0624348
0.0642307
0.0660506
0.0678938
0.0697597
0.0716474
0.0735559
0.075484
0.0774305
0.079394
0.0813728
0.0833654
0.0853698
0.0873839
0.0894053
0.0914317
0.0934603
0.0954884
0.0975128
0.0995302
0.101537
0.103531
0.105506
0.10746
0.109388
0.111287
0.11315
0.114975
0.116756
0.118489
0.120169
0.121792
0.123354
0.124849
0.126274
0.127625
0.128898
0.130089
0.131197
0.132217
0.133148
0.133988
0.134737
0.135392
0.135956
0.136428
0.13681
0.137104
0.137313
0.137441
0.137492
0.137472
0.137387
0.137243
0.137048
0.13681
0.136539
0.136243
0.135932
0.135618
0.13531
0.135018
0.134753
0.134512
0.134289
0.00108572
0.000941799
0.00078852
0.000620664
0.000434429
0.000234269
2.48996e-05
-0.000189717
-0.000405648
-0.000619147
-0.000826859
-0.0010257
-0.00121288
-0.00138608
-0.00154325
-0.00168261
-0.00180278
-0.00190257
-0.001981
-0.00203729
-0.00207081
-0.0020811
-0.00206781
-0.00203072
-0.00196969
-0.00188463
-0.00177556
-0.0016425
-0.00148553
-0.00130474
-0.00110024
-0.000872148
-0.000620543
-0.000345548
-4.73003e-05
0.000274117
0.000618665
0.000986285
0.00137689
0.00179042
0.00222686
0.00268617
0.00316829
0.00367317
0.00420083
0.00475129
0.00532454
0.00592057
0.0065394
0.00718108
0.00784565
0.0085331
0.00924342
0.00997664
0.0107328
0.011512
0.0123142
0.0131395
0.013988
0.0148597
0.0157546
0.0166729
0.0176144
0.0185793
0.0195675
0.0205793
0.0216146
0.0226735
0.0237562
0.0248627
0.0259934
0.0271482
0.0283273
0.0295309
0.0307591
0.0320119
0.0332896
0.0345922
0.0359198
0.0372725
0.0386505
0.0400539
0.041483
0.0429377
0.0444181
0.0459245
0.0474568
0.0490153
0.0505998
0.0522102
0.0538464
0.0555083
0.0571957
0.0589083
0.0606458
0.0624078
0.0641939
0.0660036
0.0678362
0.0696911
0.0715673
0.0734639
0.0753797
0.0773134
0.0792638
0.0812292
0.083208
0.0851981
0.0871977
0.0892043
0.0912157
0.093229
0.0952417
0.0972505
0.0992524
0.101244
0.103222
0.105182
0.107121
0.109034
0.110917
0.112767
0.114578
0.116346
0.118067
0.119736
0.121348
0.122899
0.124386
0.125803
0.127147
0.128415
0.129602
0.130707
0.131726
0.132657
0.133499
0.13425
0.13491
0.13548
0.13596
0.136351
0.136656
0.136877
0.137018
0.137083
0.137078
0.137008
0.136879
0.136699
0.136474
0.136214
0.135926
0.135619
0.135302
0.134983
0.134671
0.134374
0.134081
0.133777
0.00143698
0.00124134
0.00105276
0.000861411
0.000658182
0.0004468
0.000231173
1.4406e-05
-0.000200411
-0.000410325
-0.00061259
-0.000804626
-0.000984157
-0.00114922
-0.00129809
-0.00142927
-0.00154156
-0.00163396
-0.00170561
-0.00175582
-0.00178403
-0.00178977
-0.00177273
-0.00173266
-0.00166942
-0.00158293
-0.00147314
-0.00134004
-0.00118366
-0.0010041
-0.000801417
-0.000575655
-0.000326868
-5.51378e-05
0.000239471
0.000556943
0.000897257
0.00126037
0.00164626
0.00205493
0.00248637
0.00294055
0.00341742
0.00391698
0.00443927
0.00498433
0.00555212
0.00614265
0.006756
0.00739223
0.00805135
0.00873337
0.00943828
0.0101662
0.010917
0.0116909
0.0124879
0.013308
0.0141514
0.015018
0.015908
0.0168212
0.0177577
0.0187177
0.019701
0.0207079
0.0217384
0.0227925
0.0238703
0.0249721
0.0260979
0.0272479
0.0284222
0.0296208
0.030844
0.0320918
0.0333644
0.0346617
0.035984
0.0373313
0.0387037
0.0401015
0.0415247
0.0429734
0.0444477
0.0459477
0.0474735
0.0490251
0.0506025
0.0522056
0.0538342
0.0554882
0.0571673
0.0588714
0.0606001
0.062353
0.0641296
0.0659295
0.067752
0.0695965
0.071462
0.0733475
0.0752519
0.077174
0.0791125
0.0810657
0.0830321
0.0850097
0.0869965
0.0889903
0.0909886
0.092989
0.0949887
0.0969846
0.0989737
0.100953
0.102918
0.104866
0.106793
0.108695
0.110567
0.112407
0.114208
0.115967
0.117679
0.11934
0.120946
0.122491
0.123972
0.125385
0.126726
0.127991
0.129178
0.130282
0.131302
0.132235
0.13308
0.133835
0.134501
0.135077
0.135564
0.135963
0.136277
0.136507
0.136658
0.136734
0.136739
0.136679
0.13656
0.136388
0.13617
0.135913
0.135626
0.135314
0.134986
0.134649
0.134311
0.133978
0.133629
0.133244
0.00180274
0.0015547
0.00132905
0.00111176
0.000888735
0.000662951
0.000437798
0.000215608
-1.35445e-06
-0.000210773
-0.000410442
-0.000598348
-0.000772662
-0.000931769
-0.00107428
-0.00119901
-0.00130496
-0.00139126
-0.0014572
-0.00150222
-0.00152584
-0.00152763
-0.0015073
-0.00146462
-0.00139945
-0.0013117
-0.00120131
-0.00106825
-0.000912534
-0.000734205
-0.000533274
-0.00030976
-6.37077e-05
0.000204862
0.000495966
0.000809623
0.00114583
0.00150458
0.00188591
0.00228985
0.00271642
0.00316556
0.00363731
0.00413169
0.00464874
0.00518847
0.0057509
0.00633606
0.00694404
0.00757491
0.00822867
0.00890534
0.00960495
0.0103276
0.0110732
0.011842
0.0126338
0.0134488
0.0142871
0.0151488
0.0160337
0.0169419
0.0178735
0.0188286
0.0198071
0.0208092
0.0218348
0.022884
0.0239571
0.025054
0.026175
0.0273201
0.0284894
0.029683
0.0309011
0.0321439
0.0334112
0.0347032
0.03602
0.0373618
0.0387287
0.0401207
0.041538
0.0429805
0.0444485
0.0459421
0.0474613
0.049006
0.0505763
0.0521719
0.0537929
0.055439
0.05711
0.0588057
0.0605258
0.0622698
0.0640373
0.0658278
0.0676407
0.0694753
0.0713307
0.0732058
0.0750997
0.0770112
0.0789388
0.0808811
0.0828364
0.0848029
0.0867786
0.0887613
0.0907487
0.0927382
0.0947272
0.0967126
0.0986914
0.10066
0.102616
0.104555
0.106474
0.108367
0.110233
0.112065
0.11386
0.115613
0.117321
0.118978
0.12058
0.122123
0.123603
0.125015
0.126356
0.127622
0.128809
0.129916
0.130939
0.131876
0.132726
0.133486
0.134158
0.13474
0.135234
0.135641
0.135962
0.1362
0.136359
0.136442
0.136454
0.1364
0.136285
0.136116
0.135898
0.135639
0.135345
0.135023
0.134679
0.134318
0.133948
0.133575
0.13317
0.132706
0.00217361
0.0018734
0.00160987
0.00136511
0.00112021
0.000877683
0.00064052
0.000410241
0.000188467
-2.30228e-05
-0.00022258
-0.000408699
-0.000579937
-0.000735043
-0.000872985
-0.000992839
-0.00109381
-0.00117524
-0.00123655
-0.00127727
-0.00129703
-0.00129548
-0.00127236
-0.00122748
-0.00116071
-0.00107194
-0.000961115
-0.000828219
-0.000673249
-0.000496185
-0.000297007
-7.572e-05
0.000167661
0.000433176
0.000720893
0.00103084
0.00136304
0.00171757
0.00209448
0.00249383
0.00291562
0.00335987
0.00382663
0.00431596
0.00482789
0.00536242
0.0059196
0.00649952
0.00710227
0.00772789
0.0083764
0.00904785
0.0097423
0.0104598
0.0112004
0.011964
0.0127508
0.0135609
0.0143943
0.015251
0.016131
0.0170343
0.0179611
0.0189113
0.019885
0.0208822
0.021903
0.0229475
0.0240157
0.0251078
0.0262239
0.027364
0.0285283
0.029717
0.0309301
0.0321676
0.0334296
0.0347162
0.0360276
0.0373638
0.0387249
0.040111
0.0415222
0.0429586
0.0444203
0.0459073
0.0474198
0.0489575
0.0505206
0.0521088
0.0537222
0.0553605
0.0570234
0.0587109
0.0604224
0.0621577
0.0639163
0.0656978
0.0675015
0.0693267
0.0711725
0.073038
0.0749222
0.0768238
0.0787416
0.080674
0.0826195
0.0845762
0.0865423
0.0885155
0.0904937
0.0924743
0.0944547
0.0964319
0.0984029
0.100365
0.102314
0.104246
0.106159
0.108048
0.109909
0.111737
0.113529
0.115281
0.116987
0.118644
0.120246
0.12179
0.123271
0.124686
0.12603
0.1273
0.128492
0.129604
0.130633
0.131575
0.132431
0.133199
0.133877
0.134466
0.134967
0.13538
0.135708
0.135952
0.136116
0.136204
0.136219
0.136167
0.136053
0.135882
0.135661
0.135394
0.135089
0.134751
0.134386
0.133997
0.133593
0.133178
0.132717
0.132177
0.00254148
0.00218995
0.00188843
0.00161525
0.00134709
0.00108615
0.000834981
0.000594531
0.000365855
0.000150154
-5.13988e-05
-0.000237707
-0.000407751
-0.000560643
-0.000695626
-0.000812035
-0.000909317
-0.000987008
-0.00104468
-0.00108197
-0.00109861
-0.00109433
-0.00106894
-0.00102229
-0.000954263
-0.000864758
-0.000753729
-0.00062117
-0.000467043
-0.000291295
-9.39095e-05
0.000125137
0.000365899
0.000628449
0.000912859
0.00121919
0.00154751
0.00189794
0.00227057
0.00266545
0.00308259
0.00352209
0.00398403
0.00446846
0.00497538
0.00550485
0.00605695
0.0066318
0.00722945
0.00784996
0.00849338
0.00915979
0.00984924
0.0105618
0.0112974
0.0120561
0.0128381
0.0136433
0.0144719
0.0153237
0.0161989
0.0170975
0.0180195
0.018965
0.019934
0.0209264
0.0219424
0.0229821
0.0240456
0.0251328
0.026244
0.0273792
0.0285386
0.0297223
0.0309302
0.0321625
0.0334192
0.0347004
0.0360063
0.0373368
0.0386921
0.0400722
0.0414773
0.0429074
0.0443626
0.045843
0.0473486
0.0488793
0.0504352
0.052016
0.0536217
0.0552522
0.0569071
0.0585864
0.0602896
0.0620163
0.0637663
0.065539
0.0673338
0.06915
0.0709867
0.0728431
0.0747182
0.0766108
0.0785196
0.0804431
0.0823799
0.0843281
0.0862858
0.0882511
0.0902218
0.0921952
0.0941689
0.0961399
0.0981054
0.100062
0.102007
0.103936
0.105846
0.107733
0.109592
0.11142
0.113213
0.114965
0.116674
0.118333
0.119939
0.121488
0.122974
0.124395
0.125745
0.127022
0.128221
0.129341
0.130377
0.131328
0.132192
0.132967
0.133653
0.13425
0.134758
0.135177
0.135511
0.13576
0.135928
0.136018
0.136035
0.135982
0.135865
0.135689
0.135459
0.135181
0.13486
0.134503
0.134112
0.133693
0.133252
0.132794
0.132278
0.131667
0.00289927
0.00249774
0.00215847
0.00185648
0.00156426
0.00128364
0.00101699
0.000764768
0.000527465
0.000305795
0.000100526
-8.76535e-05
-0.000258137
-0.000410349
-0.000543799
-0.000658087
-0.000752875
-0.000827879
-0.000882836
-0.000917529
-0.000931759
-0.000925372
-0.000898241
-0.000850255
-0.00078132
-0.000691386
-0.000580421
-0.000448385
-0.000295223
-0.000120884
7.46556e-05
0.000291456
0.000529631
0.000789273
0.00107044
0.00137324
0.00169782
0.00204429
0.00241275
0.00280327
0.00321594
0.00365086
0.00410814
0.0045878
0.00508988
0.00561448
0.0061617
0.00673165
0.00732439
0.00793997
0.0085785
0.00924005
0.00992468
0.0106324
0.0113632
0.0121172
0.0128945
0.0136951
0.014519
0.0153662
0.0162367
0.0171306
0.018048
0.0189889
0.0199532
0.020941
0.0219523
0.0229873
0.0240461
0.0251285
0.0262349
0.0273653
0.0285197
0.0296984
0.0309013
0.0321283
0.0333797
0.0346555
0.0359557
0.0372805
0.0386299
0.040004
0.0414028
0.0428265
0.0442752
0.0457489
0.0472475
0.0487711
0.0503197
0.051893
0.0534911
0.0551138
0.0567608
0.0584318
0.0601267
0.0618451
0.0635866
0.0653507
0.0671369
0.0689443
0.0707724
0.0726202
0.0744867
0.0763709
0.0782714
0.080187
0.0821159
0.0840567
0.0860075
0.0879662
0.0899307
0.0918986
0.0938673
0.0958341
0.097796
0.09975
0.101693
0.103621
0.10553
0.107418
0.109279
0.111109
0.112905
0.114662
0.116376
0.118041
0.119654
0.121211
0.122705
0.124135
0.125495
0.126781
0.127991
0.129121
0.130167
0.131129
0.132002
0.132787
0.133482
0.134088
0.134603
0.135029
0.135368
0.135621
0.135792
0.135883
0.135899
0.135843
0.13572
0.135535
0.135294
0.135001
0.134662
0.134281
0.133863
0.133411
0.132932
0.132431
0.131862
0.131183
0.0032409
0.00279075
0.00241436
0.00208354
0.00176675
0.00146567
0.00118251
0.000917265
0.000669964
0.000440919
0.000230493
3.89868e-05
-0.000133321
-0.000286161
-0.000419331
-0.000532672
-0.000626039
-0.000699331
-0.000752454
-0.000785309
-0.000797828
-0.000789941
-0.000761584
-0.000712693
-0.000643228
-0.000553186
-0.00044254
-0.000311217
-0.000159169
1.36369e-05
0.000207269
0.000421835
0.000657446
0.000914197
0.00119219
0.00149158
0.00181253
0.00215516
0.00251957
0.00290589
0.00331426
0.0037448
0.00419758
0.00467265
0.0051701
0.00569005
0.00623261
0.00679786
0.00738589
0.00799678
0.00863065
0.00928757
0.00996757
0.0106707
0.0113969
0.0121464
0.0129192
0.0137153
0.0145347
0.0153774
0.0162434
0.0171329
0.0180459
0.0189823
0.0199421
0.0209253
0.0219322
0.0229626
0.0240167
0.0250945
0.0261961
0.0273216
0.0284713
0.029645
0.0308428
0.0320646
0.0333107
0.034581
0.0358757
0.0371947
0.0385381
0.039906
0.0412985
0.0427157
0.0441578
0.0456246
0.0471163
0.0486327
0.0501739
0.0517397
0.0533301
0.0549449
0.0565839
0.0582469
0.0599335
0.0616435
0.0633766
0.0651323
0.0669099
0.068709
0.0705287
0.0723682
0.0742267
0.076103
0.0779959
0.0799042
0.0818262
0.0837606
0.0857054
0.0876587
0.0896185
0.0915823
0.0935476
0.0955118
0.097472
0.0994252
0.101368
0.103297
0.105209
0.1071
0.108965
0.110801
0.112603
0.114368
0.116089
0.117764
0.119387
0.120954
0.122461
0.123902
0.125275
0.126575
0.127797
0.12894
0.129999
0.130973
0.131859
0.132655
0.133361
0.133976
0.1345
0.134933
0.135277
0.135534
0.135707
0.135798
0.13581
0.135749
0.135619
0.135423
0.135168
0.134858
0.134497
0.134091
0.133643
0.133157
0.132639
0.132095
0.131474
0.13073
0.00356097
0.00306376
0.00265103
0.00229148
0.00194994
0.00162796
0.00132757
0.00104836
0.000790033
0.000552494
0.000335716
0.000139683
-3.56245e-05
-0.000190242
-0.000324225
-0.000437639
-0.000530546
-0.000603013
-0.000655105
-0.000686853
-0.000698306
-0.00068949
-0.000660397
-0.000611036
-0.000541438
-0.000451603
-0.000341502
-0.000211093
-6.0336e-05
0.00011083
0.000302508
0.000514821
0.000747872
0.00100177
0.00127667
0.00157276
0.00189019
0.0022291
0.00258961
0.00297192
0.00337618
0.00380251
0.00425098
0.00472168
0.00521474
0.00573029
0.00626842
0.00682922
0.0074128
0.00801927
0.00864875
0.00930127
0.00997687
0.0106756
0.0113975
0.0121427
0.0129112
0.013703
0.0145181
0.0153565
0.0162184
0.0171036
0.0180123
0.0189444
0.0198999
0.0208789
0.0218813
0.0229074
0.0239569
0.0250302
0.0261272
0.0272481
0.0283929
0.0295617
0.0307544
0.0319711
0.0332119
0.0344767
0.0357658
0.037079
0.0384164
0.0397781
0.0411642
0.0425749
0.0440103
0.0454702
0.0469547
0.0484638
0.0499976
0.0515558
0.0531385
0.0547454
0.0563763
0.058031
0.0597094
0.0614111
0.0631358
0.0648831
0.0666524
0.0684431
0.0702547
0.0720863
0.073937
0.0758059
0.0776918
0.0795933
0.0815092
0.0834379
0.0853778
0.0873268
0.0892829
0.0912438
0.0932072
0.0951704
0.0971306
0.0990849
0.10103
0.102962
0.104878
0.106775
0.108647
0.110491
0.112302
0.114077
0.11581
0.117497
0.119133
0.120715
0.122236
0.123693
0.125081
0.126396
0.127635
0.128794
0.129869
0.130857
0.131757
0.132567
0.133285
0.133911
0.134444
0.134885
0.135236
0.135496
0.13567
0.13576
0.135769
0.135702
0.135562
0.135353
0.135082
0.134752
0.134368
0.133934
0.133455
0.132934
0.132377
0.13179
0.131118
0.130314
0.00385466
0.00331201
0.00286377
0.00247585
0.0021096
0.00176643
0.00144831
0.0011545
0.000884353
0.000637415
0.000413342
0.00021182
3.25232e-05
-0.00012485
-0.000260584
-0.000374971
-0.00046827
-0.000540708
-0.000592497
-0.000623823
-0.000634815
-0.000625584
-0.000596228
-0.000546827
-0.000477451
-0.000388115
-0.000278802
-0.000149506
-1.93941e-07
0.000169243
0.000358926
0.000568951
0.000799438
0.00105054
0.00132245
0.00161533
0.00192936
0.00226468
0.00262149
0.00299999
0.00340034
0.00382266
0.00426704
0.00473362
0.00522256
0.00573396
0.00626793
0.00682455
0.00740398
0.00800634
0.0086317
0.00928009
0.00995158
0.0106462
0.0113641
0.0121053
0.0128697
0.0136574
0.0144685
0.0153029
0.0161608
0.017042
0.0179467
0.0188747
0.0198262
0.0208011
0.0217994
0.0228212
0.0238664
0.0249353
0.0260278
0.0271441
0.0282842
0.0294481
0.0306358
0.0318474
0.0330829
0.0343424
0.0356258
0.0369332
0.0382646
0.0396201
0.0409998
0.042404
0.0438324
0.0452853
0.0467627
0.0482644
0.0497906
0.0513411
0.0529159
0.0545148
0.0561375
0.057784
0.059454
0.0611473
0.0628636
0.0646025
0.0663636
0.0681461
0.0699497
0.0717735
0.0736168
0.0754786
0.0773578
0.0792533
0.0811636
0.0830874
0.0850229
0.0869685
0.088922
0.0908812
0.0928439
0.0948075
0.0967692
0.0987262
0.100675
0.102613
0.104535
0.106439
0.108321
0.110175
0.111999
0.113786
0.115534
0.117236
0.118889
0.120487
0.122026
0.123501
0.124908
0.126243
0.127501
0.128678
0.129771
0.130778
0.131694
0.13252
0.133252
0.133891
0.134435
0.134885
0.135241
0.135506
0.135681
0.13577
0.135775
0.135699
0.135549
0.135326
0.135037
0.134685
0.134276
0.133814
0.133303
0.132745
0.132149
0.131519
0.130799
0.129937
0.00411766
0.00353104
0.00304827
0.00263249
0.00224165
0.00187721
0.0015411
0.00123224
0.000949658
0.000692628
0.000460518
0.000252711
6.86075e-05
-9.23366e-05
-0.000230628
-0.000346767
-0.000441199
-0.00051432
-0.000566471
-0.000597967
-0.000609043
-0.000599895
-0.00057072
-0.000521673
-0.000452833
-0.000364259
-0.000255978
-0.000127986
1.97747e-05
0.000187413
0.000375042
0.00058276
0.000810712
0.0010591
0.0013281
0.00161789
0.00192863
0.00226054
0.00261385
0.00298875
0.0033854
0.00380393
0.00424449
0.00470724
0.00519233
0.00569987
0.00622996
0.00678274
0.00735836
0.00795692
0.00857846
0.00922305
0.00989074
0.0105816
0.0112958
0.0120332
0.0127939
0.0135778
0.0143852
0.0152159
0.01607
0.0169476
0.0178485
0.0187728
0.0197204
0.0206915
0.0216859
0.0227037
0.0237448
0.0248095
0.0258977
0.0270095
0.028145
0.0293041
0.0304869
0.0316934
0.0329237
0.0341778
0.0354556
0.0367572
0.0380826
0.0394319
0.0408052
0.0422027
0.0436243
0.0450701
0.0465401
0.0480344
0.0495529
0.0510956
0.0526623
0.0542529
0.0558674
0.0575055
0.0591671
0.0608519
0.0625598
0.0642903
0.066043
0.0678174
0.069613
0.0714293
0.0732653
0.0751202
0.076993
0.0788827
0.0807879
0.0827073
0.0846392
0.086582
0.0885337
0.0904922
0.0924553
0.0944205
0.0963851
0.0983463
0.100301
0.102245
0.104177
0.106091
0.107983
0.109851
0.111688
0.113492
0.115256
0.116977
0.118648
0.120267
0.121827
0.123324
0.124753
0.126109
0.127389
0.128588
0.129703
0.13073
0.131666
0.13251
0.133259
0.133912
0.134468
0.134928
0.135292
0.135562
0.135739
0.135826
0.135826
0.135743
0.13558
0.135343
0.135034
0.13466
0.134225
0.133733
0.133188
0.132594
0.131958
0.131286
0.130518
0.129599
0.00434603
0.00371692
0.00320057
0.00275741
0.00234227
0.00195662
0.00160237
0.00127817
0.000982742
0.00071512
0.000474382
0.000259648
7.0077e-05
-9.51166e-05
-0.000236656
-0.000355221
-0.000451431
-0.000525849
-0.000578956
-0.000611142
-0.000622775
-0.000614171
-0.000585588
-0.000537223
-0.000469203
-0.000381638
-0.000274598
-0.000148057
-1.93528e-06
0.000163847
0.000349377
0.00055479
0.000780275
0.00102603
0.00129222
0.00157902
0.00188665
0.00221537
0.0025654
0.00293692
0.00333009
0.0037451
0.00418213
0.00464135
0.00512289
0.00562687
0.00615344
0.00670274
0.0072749
0.00787
0.00848808
0.00912921
0.0097935
0.010481
0.0111918
0.0119258
0.012683
0.0134636
0.0142676
0.0150949
0.0159457
0.0168198
0.0177172
0.018638
0.0195822
0.0205497
0.0215405
0.0225545
0.0235918
0.0246524
0.0257365
0.026844
0.027975
0.0291294
0.0303074
0.0315089
0.0327341
0.0339828
0.0352551
0.0365509
0.0378703
0.0392135
0.0405804
0.0419712
0.0433858
0.0448244
0.046287
0.0477737
0.0492843
0.050819
0.0523775
0.0539597
0.0555657
0.0571953
0.0588483
0.0605245
0.0622238
0.0639458
0.0656901
0.0674563
0.0692441
0.0710527
0.0728815
0.0747296
0.0765963
0.0784803
0.0803807
0.0822961
0.0842249
0.0861656
0.0881162
0.0900747
0.0920391
0.094007
0.0959757
0.0979424
0.099904
0.101857
0.103799
0.105724
0.107631
0.109513
0.111368
0.113189
0.114973
0.116715
0.118409
0.12005
0.121634
0.123156
0.12461
0.125992
0.127297
0.128521
0.12966
0.130711
0.131669
0.132534
0.133302
0.133971
0.134542
0.135014
0.135387
0.135662
0.135842
0.135928
0.135923
0.135832
0.135657
0.135404
0.135076
0.134678
0.134216
0.133693
0.133114
0.132482
0.131806
0.131092
0.130277
0.129304
0.00453625
0.00386601
0.00331692
0.00284695
0.00240788
0.00200114
0.0016287
0.00128898
0.00098045
0.00070186
0.000452042
0.000229888
3.43183e-05
-0.000135688
-0.00028104
-0.000402594
-0.000501152
-0.000577397
-0.000631934
-0.000665277
-0.000677908
-0.000670242
-0.000642586
-0.000595183
-0.000528245
-0.00044192
-0.000336265
-0.00021126
-6.68562e-05
9.7009e-05
0.000280441
0.000483609
0.000706707
0.000949916
0.00121341
0.00149739
0.00180213
0.00212788
0.00247485
0.00284323
0.00323321
0.00364501
0.00407883
0.00453483
0.00501315
0.00551394
0.00603737
0.00658357
0.00715265
0.00774466
0.00835968
0.00899778
0.00965908
0.0103436
0.0110514
0.0117823
0.0125366
0.0133142
0.0141152
0.0149395
0.0157872
0.0166582
0.0175526
0.0184703
0.0194113
0.0203755
0.0213628
0.0223734
0.0234071
0.024464
0.0255441
0.0266475
0.0277741
0.0289241
0.0300974
0.0312941
0.0325142
0.0337576
0.0350244
0.0363145
0.037628
0.0389649
0.0403254
0.0417094
0.0431171
0.0445484
0.0460034
0.0474823
0.048985
0.0505114
0.0520614
0.0536351
0.0552324
0.0568533
0.0584975
0.060165
0.0618555
0.0635687
0.0653045
0.0670625
0.0688422
0.0706431
0.0724647
0.0743061
0.0761665
0.0780452
0.0799409
0.0818525
0.0837785
0.0857174
0.0876674
0.0896267
0.0915931
0.0935645
0.0955383
0.0975117
0.0994816
0.101445
0.103398
0.105338
0.107259
0.109159
0.111033
0.112875
0.114681
0.116446
0.118165
0.119833
0.121444
0.122993
0.124476
0.125887
0.127221
0.128473
0.12964
0.130717
0.131701
0.132589
0.133378
0.134067
0.134655
0.13514
0.135524
0.135806
0.135989