/*--------------------------------*- C++ -*----------------------------------*\
  =========                 |
  \\      /  F ield         | OpenFOAM: The Open Source CFD Toolbox
   \\    /   O peration     | Website:  https://openfoam.org
    \\  /    A nd           | Version:  7
     \\/     M anipulation  |
\*---------------------------------------------------------------------------*/
FoamFile
{
    version     2.0;
    format      ascii;
    class       surfaceScalarField;
    location    "0.075";
    object      phi;
}
// * * * * * * * * * * * * * * * * * * * * * * * * * * * * * * * * * * * * * //

dimensions      [0 3 -1 0 0 0 0];

internalField   nonuniform List<scalar> 
25360
(
7.36245e-11
-7.36181e-11
2.1943e-10
-1.45811e-10
3.53434e-10
-1.34004e-10
4.31426e-10
-7.79841e-11
4.29025e-10
2.4038e-12
3.34073e-10
9.49434e-11
1.42561e-10
1.91517e-10
-1.44383e-10
2.86937e-10
-5.22602e-10
3.78222e-10
-9.86182e-10
4.63573e-10
-1.52826e-09
5.42087e-10
-2.14158e-09
6.13321e-10
-2.81876e-09
6.77178e-10
-3.55253e-09
7.33786e-10
-4.33592e-09
7.83386e-10
-5.16229e-09
8.26363e-10
-6.02541e-09
8.6312e-10
-6.91951e-09
8.94104e-10
-7.8393e-09
9.19782e-10
-8.77989e-09
9.40592e-10
-9.7369e-09
9.57004e-10
-1.07064e-08
9.69457e-10
-1.16847e-08
9.78342e-10
-1.26688e-08
9.84053e-10
-1.36557e-08
9.86974e-10
-1.46432e-08
9.87429e-10
-1.56289e-08
9.85731e-10
-1.66111e-08
9.82186e-10
-1.75881e-08
9.77041e-10
-1.85586e-08
9.70507e-10
-1.95214e-08
9.62805e-10
-2.04756e-08
9.54132e-10
-2.14202e-08
9.44639e-10
-2.23547e-08
9.34477e-10
-2.32785e-08
9.23786e-10
-2.41911e-08
9.12669e-10
-2.50923e-08
9.01208e-10
-2.59818e-08
8.89491e-10
-2.68594e-08
8.7761e-10
-2.77251e-08
8.65625e-10
-2.85786e-08
8.53573e-10
-2.94201e-08
8.41487e-10
-3.02495e-08
8.29416e-10
-3.10669e-08
8.17399e-10
-3.18724e-08
8.05452e-10
-3.2666e-08
7.93593e-10
-3.34478e-08
7.81842e-10
-3.4218e-08
7.70219e-10
-3.49768e-08
7.58729e-10
-3.57241e-08
7.47374e-10
-3.64603e-08
7.36171e-10
-3.71855e-08
7.25141e-10
-3.78998e-08
7.14289e-10
-3.86034e-08
7.0361e-10
-3.92965e-08
6.93103e-10
-3.99792e-08
6.82785e-10
-4.06519e-08
6.72666e-10
-4.13147e-08
6.62746e-10
-4.19677e-08
6.53023e-10
-4.26112e-08
6.43492e-10
-4.32453e-08
6.34158e-10
-4.38704e-08
6.25022e-10
-4.44864e-08
6.16076e-10
-4.50937e-08
6.07307e-10
-4.56925e-08
5.98715e-10
-4.62828e-08
5.90301e-10
-4.68648e-08
5.82054e-10
-4.74388e-08
5.73955e-10
-4.80048e-08
5.65989e-10
-4.85629e-08
5.58144e-10
-4.91133e-08
5.50409e-10
-4.96561e-08
5.42766e-10
-5.01913e-08
5.35192e-10
-5.07189e-08
5.2765e-10
-5.1239e-08
5.20108e-10
-5.17516e-08
5.12538e-10
-5.22565e-08
5.04908e-10
-5.27536e-08
4.97171e-10
-5.32429e-08
4.89274e-10
-5.37241e-08
4.81167e-10
-5.41969e-08
4.728e-10
-5.4661e-08
4.64118e-10
-5.51161e-08
4.55056e-10
-5.55616e-08
4.45542e-10
-5.59971e-08
4.35502e-10
-5.6422e-08
4.2486e-10
-5.68355e-08
4.13539e-10
-5.7237e-08
4.01456e-10
-5.76255e-08
3.88518e-10
-5.80001e-08
3.74623e-10
-5.83598e-08
3.59663e-10
-5.87033e-08
3.43533e-10
-5.90294e-08
3.26122e-10
-5.93367e-08
3.07314e-10
-5.96237e-08
2.86987e-10
-5.98887e-08
2.65016e-10
-6.013e-08
2.41276e-10
-6.03457e-08
2.15649e-10
-6.05337e-08
1.88009e-10
-6.06919e-08
1.58235e-10
-6.08181e-08
1.26205e-10
-6.09099e-08
9.18038e-11
-6.09648e-08
5.49248e-11
-6.09803e-08
1.54692e-11
-6.09537e-08
-2.66552e-11
-6.08821e-08
-7.15303e-11
-6.07629e-08
-1.19229e-10
-6.05931e-08
-1.69809e-10
-6.03698e-08
-2.23308e-10
-6.009e-08
-2.79738e-10
-5.9751e-08
-3.39083e-10
-5.93497e-08
-4.01304e-10
-5.88833e-08
-4.66333e-10
-5.83492e-08
-5.34075e-10
-5.77448e-08
-6.044e-10
-5.70677e-08
-6.77138e-10
-5.63156e-08
-7.52083e-10
-5.54866e-08
-8.28988e-10
-5.45791e-08
-9.07565e-10
-5.35916e-08
-9.87486e-10
-5.25232e-08
-1.06837e-09
-5.13734e-08
-1.14981e-09
-5.01421e-08
-1.23132e-09
-4.88297e-08
-1.3124e-09
-4.74372e-08
-1.39249e-09
-4.59662e-08
-1.47101e-09
-4.44188e-08
-1.54734e-09
-4.2798e-08
-1.62082e-09
-4.11072e-08
-1.69076e-09
-3.93508e-08
-1.75647e-09
-3.75336e-08
-1.81722e-09
-3.56613e-08
-1.87228e-09
-3.37403e-08
-1.92092e-09
-3.17779e-08
-1.9624e-09
-2.97819e-08
-1.996e-09
-2.77609e-08
-2.02102e-09
-2.57241e-08
-2.03679e-09
-2.36815e-08
-2.04267e-09
-2.16434e-08
-2.03806e-09
-1.9621e-08
-2.02242e-09
-1.76257e-08
-1.99526e-09
-1.56696e-08
-1.95613e-09
-1.37649e-08
-1.90468e-09
-1.19243e-08
-1.84061e-09
-1.01606e-08
-1.76367e-09
-8.48691e-09
-1.67372e-09
-6.91625e-09
-1.57066e-09
-5.46174e-09
-1.45451e-09
-4.13635e-09
-1.32538e-09
-2.9528e-09
-1.18355e-09
-1.92333e-09
-1.02947e-09
-1.05943e-09
-8.63899e-10
-3.71299e-10
-6.88129e-10
1.33039e-10
-5.04339e-10
4.4937e-10
-3.16329e-10
5.80187e-10
-1.30814e-10
5.40029e-10
4.01593e-11
3.65669e-10
1.74356e-10
1.36342e-10
2.29314e-10
1.36328e-10
1.54346e-10
-2.27969e-10
3.81601e-10
-3.73061e-10
5.43718e-10
-2.96128e-10
5.56511e-10
-9.07838e-11
3.67062e-10
1.91861e-10
-5.43992e-11
5.16407e-10
-7.20465e-10
8.57579e-10
-1.63206e-09
1.19854e-09
-2.78206e-09
1.52822e-09
-4.15823e-09
1.83974e-09
-5.74506e-09
2.12891e-09
-7.52524e-09
2.3935e-09
-9.48062e-09
2.63255e-09
-1.15928e-08
2.84597e-09
-1.38438e-08
3.03435e-09
-1.6216e-08
3.19865e-09
-1.86931e-08
3.34012e-09
-2.12592e-08
3.46024e-09
-2.38999e-08
3.56051e-09
-2.66018e-08
3.64249e-09
-2.93526e-08
3.7078e-09
-3.21411e-08
3.75795e-09
-3.49572e-08
3.79443e-09
-3.77918e-08
3.81869e-09
-4.06369e-08
3.83206e-09
-4.34852e-08
3.83579e-09
-4.63306e-08
3.83107e-09
-4.91674e-08
3.81898e-09
-5.19908e-08
3.80046e-09
-5.47967e-08
3.77642e-09
-5.75816e-08
3.74766e-09
-6.03424e-08
3.71491e-09
-6.30765e-08
3.67878e-09
-6.57819e-08
3.63987e-09
-6.84568e-08
3.59868e-09
-7.10997e-08
3.55564e-09
-7.37097e-08
3.51113e-09
-7.62856e-08
3.46548e-09
-7.8827e-08
3.41901e-09
-8.13334e-08
3.37195e-09
-8.38043e-08
3.3245e-09
-8.62397e-08
3.27685e-09
-8.86394e-08
3.22917e-09
-9.10036e-08
3.18157e-09
-9.33323e-08
3.13417e-09
-9.56258e-08
3.08705e-09
-9.78842e-08
3.04031e-09
-1.00108e-07
2.99401e-09
-1.02297e-07
2.9482e-09
-1.04453e-07
2.90292e-09
-1.06575e-07
2.85821e-09
-1.08664e-07
2.81413e-09
-1.1072e-07
2.77071e-09
-1.12745e-07
2.72796e-09
-1.14738e-07
2.6859e-09
-1.16699e-07
2.64456e-09
-1.18631e-07
2.60396e-09
-1.20532e-07
2.56412e-09
-1.22404e-07
2.52502e-09
-1.24247e-07
2.48668e-09
-1.26062e-07
2.44909e-09
-1.27849e-07
2.41225e-09
-1.29609e-07
2.37613e-09
-1.31343e-07
2.34072e-09
-1.3305e-07
2.30598e-09
-1.34732e-07
2.2719e-09
-1.36388e-07
2.23843e-09
-1.3802e-07
2.20553e-09
-1.39627e-07
2.17313e-09
-1.4121e-07
2.14118e-09
-1.42769e-07
2.10961e-09
-1.44305e-07
2.07835e-09
-1.45817e-07
2.04731e-09
-1.47305e-07
2.01636e-09
-1.48771e-07
1.9854e-09
-1.50213e-07
1.95429e-09
-1.51631e-07
1.92289e-09
-1.53024e-07
1.89103e-09
-1.54394e-07
1.85853e-09
-1.55738e-07
1.82519e-09
-1.57056e-07
1.79082e-09
-1.58347e-07
1.75519e-09
-1.5961e-07
1.71805e-09
-1.60843e-07
1.67915e-09
-1.62046e-07
1.6382e-09
-1.63216e-07
1.59492e-09
-1.64352e-07
1.549e-09
-1.6545e-07
1.50011e-09
-1.6651e-07
1.44788e-09
-1.67527e-07
1.39196e-09
-1.68499e-07
1.33195e-09
-1.69423e-07
1.26743e-09
-1.70295e-07
1.198e-09
-1.71111e-07
1.12322e-09
-1.71867e-07
1.04265e-09
-1.72557e-07
9.55832e-10
-1.73178e-07
8.62312e-10
-1.73724e-07
7.61637e-10
-1.7419e-07
6.53352e-10
-1.74568e-07
5.37008e-10
-1.74854e-07
4.12169e-10
-1.75041e-07
2.78414e-10
-1.75122e-07
1.35353e-10
-1.75089e-07
-1.7379e-11
-1.74935e-07
-1.80109e-10
-1.74654e-07
-3.53124e-10
-1.74236e-07
-5.36665e-10
-1.73675e-07
-7.3091e-10
-1.72962e-07
-9.35964e-10
-1.7209e-07
-1.15185e-09
-1.71051e-07
-1.37849e-09
-1.69836e-07
-1.61572e-09
-1.6844e-07
-1.86325e-09
-1.66853e-07
-2.12069e-09
-1.6507e-07
-2.38752e-09
-1.63084e-07
-2.66308e-09
-1.60889e-07
-2.94657e-09
-1.58481e-07
-3.23706e-09
-1.55855e-07
-3.53343e-09
-1.53009e-07
-3.83443e-09
-1.49938e-07
-4.13863e-09
-1.46644e-07
-4.44445e-09
-1.43125e-07
-4.75015e-09
-1.39383e-07
-5.0538e-09
-1.35423e-07
-5.35336e-09
-1.31247e-07
-5.64663e-09
-1.26863e-07
-5.9313e-09
-1.22279e-07
-6.20491e-09
-1.17505e-07
-6.46496e-09
-1.12552e-07
-6.70881e-09
-1.07436e-07
-6.9338e-09
-1.02171e-07
-7.13724e-09
-9.67753e-08
-7.3164e-09
-9.12691e-08
-7.4686e-09
-8.56739e-08
-7.5912e-09
-8.00133e-08
-7.68161e-09
-7.43127e-08
-7.73739e-09
-6.85992e-08
-7.7562e-09
-6.29014e-08
-7.73587e-09
-5.72494e-08
-7.67443e-09
-5.16745e-08
-7.57011e-09
-4.62093e-08
-7.42136e-09
-4.08871e-08
-7.22692e-09
-3.57419e-08
-6.98579e-09
-3.08083e-08
-6.69725e-09
-2.61211e-08
-6.36096e-09
-2.17148e-08
-5.9769e-09
-1.76238e-08
-5.54551e-09
-1.38814e-08
-5.06779e-09
-1.05196e-08
-4.54543e-09
-7.56793e-09
-3.98109e-09
-5.05292e-09
-3.3789e-09
-2.99586e-09
-2.74519e-09
-1.41045e-09
-2.08975e-09
-2.98745e-10
-1.42804e-09
3.55147e-10
-7.84708e-10
5.94781e-10
-1.99465e-10
5.04829e-10
2.64336e-10
2.28672e-10
5.05509e-10
3.64992e-10
1.52802e-10
-3.80772e-10
3.29128e-10
-5.49393e-10
3.66855e-10
-3.33852e-10
1.63829e-10
1.12236e-10
-3.46312e-10
7.01999e-10
-1.20253e-09
1.37263e-09
-2.42296e-09
2.07802e-09
-4.01031e-09
2.78589e-09
-5.95628e-09
3.4742e-09
-8.24489e-09
4.12834e-09
-1.0855e-08
4.73903e-09
-1.37623e-08
5.3008e-09
-1.69407e-08
5.81093e-09
-2.03633e-08
6.26859e-09
-2.40034e-08
6.67444e-09
-2.78348e-08
7.03004e-09
-3.18323e-08
7.33765e-09
-3.59721e-08
7.6e-09
-4.02316e-08
7.82008e-09
-4.45902e-08
8.00102e-09
-4.90284e-08
8.14603e-09
-5.35287e-08
8.25827e-09
-5.80751e-08
8.34082e-09
-6.26531e-08
8.39667e-09
-6.72497e-08
8.42865e-09
-7.18533e-08
8.43942e-09
-7.64537e-08
8.43147e-09
-8.10418e-08
8.40709e-09
-8.56097e-08
8.36838e-09
-9.01506e-08
8.31727e-09
-9.46584e-08
8.2555e-09
-9.91282e-08
8.18465e-09
-1.03555e-07
8.10611e-09
-1.07937e-07
8.02116e-09
-1.12269e-07
7.93089e-09
-1.1655e-07
7.83627e-09
-1.20777e-07
7.73818e-09
-1.24949e-07
7.63735e-09
-1.29064e-07
7.53445e-09
-1.33122e-07
7.43004e-09
-1.37122e-07
7.3246e-09
-1.41064e-07
7.21854e-09
-1.44947e-07
7.11224e-09
-1.48771e-07
7.006e-09
-1.52537e-07
6.90007e-09
-1.56245e-07
6.79468e-09
-1.59895e-07
6.69002e-09
-1.63487e-07
6.58626e-09
-1.67022e-07
6.48352e-09
-1.70501e-07
6.38192e-09
-1.73925e-07
6.28157e-09
-1.77293e-07
6.18255e-09
-1.80607e-07
6.08495e-09
-1.83868e-07
5.9888e-09
-1.87076e-07
5.89418e-09
-1.90233e-07
5.80113e-09
-1.93339e-07
5.70969e-09
-1.96394e-07
5.61987e-09
-1.99401e-07
5.5317e-09
-2.0236e-07
5.44517e-09
-2.05271e-07
5.36028e-09
-2.08136e-07
5.27701e-09
-2.10955e-07
5.19532e-09
-2.13729e-07
5.11517e-09
-2.1646e-07
5.03648e-09
-2.19147e-07
4.95922e-09
-2.21792e-07
4.88327e-09
-2.24395e-07
4.80853e-09
-2.26957e-07
4.73487e-09
-2.29478e-07
4.66218e-09
-2.31958e-07
4.59028e-09
-2.34399e-07
4.519e-09
-2.368e-07
4.44813e-09
-2.39161e-07
4.37743e-09
-2.41482e-07
4.30664e-09
-2.43763e-07
4.23548e-09
-2.46004e-07
4.16361e-09
-2.48204e-07
4.09069e-09
-2.50361e-07
4.01632e-09
-2.52476e-07
3.94008e-09
-2.54547e-07
3.86153e-09
-2.56572e-07
3.78016e-09
-2.58549e-07
3.69547e-09
-2.60477e-07
3.60688e-09
-2.62353e-07
3.51378e-09
-2.64173e-07
3.41556e-09
-2.65936e-07
3.31151e-09
-2.67637e-07
3.20094e-09
-2.69272e-07
3.08308e-09
-2.70837e-07
2.95712e-09
-2.72327e-07
2.82224e-09
-2.73737e-07
2.67756e-09
-2.75062e-07
2.5222e-09
-2.76294e-07
2.35522e-09
-2.77427e-07
2.1757e-09
-2.78454e-07
1.98267e-09
-2.79366e-07
1.77516e-09
-2.80157e-07
1.55221e-09
-2.80816e-07
1.31287e-09
-2.81336e-07
1.05619e-09
-2.81705e-07
7.81252e-10
-2.81914e-07
4.87185e-10
-2.81951e-07
1.73167e-10
-2.81807e-07
-1.61557e-10
-2.8147e-07
-5.17663e-10
-2.80927e-07
-8.95731e-10
-2.80167e-07
-1.29623e-09
-2.79179e-07
-1.7195e-09
-2.77949e-07
-2.16571e-09
-2.76466e-07
-2.63487e-09
-2.74718e-07
-3.12679e-09
-2.72692e-07
-3.64105e-09
-2.70379e-07
-4.17703e-09
-2.67766e-07
-4.73383e-09
-2.64843e-07
-5.31029e-09
-2.61601e-07
-5.90497e-09
-2.58031e-07
-6.51613e-09
-2.54127e-07
-7.1417e-09
-2.49881e-07
-7.7793e-09
-2.45289e-07
-8.42619e-09
-2.40348e-07
-9.07933e-09
-2.35057e-07
-9.7353e-09
-2.29417e-07
-1.03903e-08
-2.23431e-07
-1.10404e-08
-2.17103e-07
-1.16811e-08
-2.10442e-07
-1.23077e-08
-2.03458e-07
-1.29154e-08
-1.96164e-07
-1.34988e-08
-1.88576e-07
-1.40528e-08
-1.80713e-07
-1.45716e-08
-1.72597e-07
-1.50497e-08
-1.64253e-07
-1.54812e-08
-1.55709e-07
-1.58606e-08
-1.46996e-07
-1.61821e-08
-1.38147e-07
-1.64402e-08
-1.29199e-07
-1.66293e-08
-1.20192e-07
-1.67444e-08
-1.11168e-07
-1.67806e-08
-1.0217e-07
-1.67332e-08
-9.32463e-08
-1.65983e-08
-8.44442e-08
-1.63722e-08
-7.58139e-08
-1.60517e-08
-6.74066e-08
-1.56342e-08
-5.92744e-08
-1.5118e-08
-5.147e-08
-1.45017e-08
-4.40461e-08
-1.37849e-08
-3.70549e-08
-1.29681e-08
-3.05474e-08
-1.2053e-08
-2.45729e-08
-1.10423e-08
-1.91777e-08
-9.94062e-09
-1.44039e-08
-8.75493e-09
-1.02874e-08
-7.49536e-09
-6.85575e-09
-6.17685e-09
-4.1241e-09
-4.8214e-09
-2.09048e-09
-3.46167e-09
-7.2858e-10
-2.14661e-09
2.18037e-11
-9.49866e-10
2.67615e-10
1.85145e-11
1.74407e-10
5.98738e-10
5.39396e-10
9.4286e-11
-4.75051e-10
1.24739e-10
-5.79851e-10
-7.0775e-11
-1.38338e-10
-5.98848e-10
6.40311e-10
-1.52973e-09
1.63288e-09
-2.90542e-09
2.74832e-09
-4.74601e-09
3.9186e-09
-7.05462e-09
5.0945e-09
-9.82179e-09
6.24136e-09
-1.30288e-08
7.33533e-09
-1.66504e-08
8.36066e-09
-2.06572e-08
9.30758e-09
-2.5017e-08
1.01708e-08
-2.96965e-08
1.09481e-08
-3.4662e-08
1.164e-08
-3.98803e-08
1.22484e-08
-4.53192e-08
1.27765e-08
-5.09479e-08
1.32286e-08
-5.67371e-08
1.36093e-08
-6.26598e-08
1.39236e-08
-6.86904e-08
1.41767e-08
-7.48057e-08
1.43736e-08
-8.09845e-08
1.45196e-08
-8.72073e-08
1.46195e-08
-9.34567e-08
1.4678e-08
-9.9717e-08
1.46997e-08
-1.05974e-07
1.46888e-08
-1.12216e-07
1.4649e-08
-1.18432e-07
1.4584e-08
-1.24612e-07
1.44971e-08
-1.30748e-07
1.43914e-08
-1.36832e-07
1.42694e-08
-1.4286e-07
1.41336e-08
-1.48825e-07
1.39863e-08
-1.54723e-07
1.38293e-08
-1.60551e-07
1.36643e-08
-1.66306e-07
1.3493e-08
-1.71985e-07
1.33165e-08
-1.77587e-07
1.31361e-08
-1.8311e-07
1.29528e-08
-1.88552e-07
1.27674e-08
-1.93915e-07
1.25806e-08
-1.99196e-07
1.23933e-08
-2.04395e-07
1.22058e-08
-2.09514e-07
1.20187e-08
-2.14552e-07
1.18325e-08
-2.19509e-07
1.16473e-08
-2.24387e-07
1.14637e-08
-2.29185e-07
1.12817e-08
-2.33904e-07
1.11016e-08
-2.38547e-07
1.09237e-08
-2.43112e-07
1.07481e-08
-2.47602e-07
1.05749e-08
-2.52017e-07
1.04042e-08
-2.56359e-07
1.02361e-08
-2.60629e-07
1.00708e-08
-2.64828e-07
9.90824e-09
-2.68956e-07
9.7485e-09
-2.73016e-07
9.59159e-09
-2.77009e-07
9.43753e-09
-2.80935e-07
9.28631e-09
-2.84795e-07
9.13788e-09
-2.88592e-07
8.99218e-09
-2.92326e-07
8.84913e-09
-2.95998e-07
8.70864e-09
-2.9961e-07
8.57056e-09
-3.03161e-07
8.43474e-09
-3.06654e-07
8.301e-09
-3.10088e-07
8.16912e-09
-3.13465e-07
8.03885e-09
-3.16784e-07
7.90992e-09
-3.20047e-07
7.78199e-09
-3.23254e-07
7.65471e-09
-3.26404e-07
7.52766e-09
-3.29498e-07
7.40039e-09
-3.32535e-07
7.27239e-09
-3.35514e-07
7.1431e-09
-3.38435e-07
7.01192e-09
-3.41297e-07
6.87815e-09
-3.44098e-07
6.74109e-09
-3.46837e-07
6.59995e-09
-3.4951e-07
6.45389e-09
-3.52117e-07
6.30201e-09
-3.54653e-07
6.14332e-09
-3.57116e-07
5.9768e-09
-3.59502e-07
5.80135e-09
-3.61807e-07
5.61581e-09
-3.64025e-07
5.41894e-09
-3.66151e-07
5.20945e-09
-3.6818e-07
4.98597e-09
-3.70105e-07
4.74709e-09
-3.71918e-07
4.49134e-09
-3.73613e-07
4.21721e-09
-3.75181e-07
3.92312e-09
-3.76613e-07
3.6075e-09
-3.77899e-07
3.26872e-09
-3.79029e-07
2.90516e-09
-3.79992e-07
2.51521e-09
-3.80776e-07
2.09724e-09
-3.8137e-07
1.64969e-09
-3.8176e-07
1.17103e-09
-3.81932e-07
6.59792e-10
-3.81874e-07
1.14627e-10
-3.8157e-07
-4.65714e-10
-3.81005e-07
-1.08234e-09
-3.80165e-07
-1.73618e-09
-3.79033e-07
-2.42798e-09
-3.77594e-07
-3.15825e-09
-3.75833e-07
-3.92724e-09
-3.73733e-07
-4.73489e-09
-3.71278e-07
-5.58081e-09
-3.68455e-07
-6.46426e-09
-3.65248e-07
-7.38409e-09
-3.61643e-07
-8.33875e-09
-3.57627e-07
-9.32621e-09
-3.53188e-07
-1.0344e-08
-3.48316e-07
-1.1389e-08
-3.43e-07
-1.24577e-08
-3.37233e-07
-1.35461e-08
-3.3101e-07
-1.46494e-08
-3.24326e-07
-1.57625e-08
-3.17182e-07
-1.68795e-08
-3.09578e-07
-1.79941e-08
-3.0152e-07
-1.90993e-08
-2.93013e-07
-2.01877e-08
-2.84069e-07
-2.12515e-08
-2.74702e-07
-2.22823e-08
-2.6493e-07
-2.32712e-08
-2.54773e-07
-2.42093e-08
-2.44258e-07
-2.50872e-08
-2.33412e-07
-2.58953e-08
-2.22269e-07
-2.6624e-08
-2.10866e-07
-2.72638e-08
-1.99243e-07
-2.7805e-08
-1.87445e-07
-2.82383e-08
-1.7552e-07
-2.85546e-08
-1.63519e-07
-2.87453e-08
-1.51497e-07
-2.88022e-08
-1.39513e-07
-2.87178e-08
-1.27626e-07
-2.84852e-08
-1.159e-07
-2.80986e-08
-1.04399e-07
-2.75527e-08
-9.31892e-08
-2.68436e-08
-8.23388e-08
-2.59683e-08
-7.19152e-08
-2.49253e-08
-6.19857e-08
-2.37144e-08
-5.26168e-08
-2.2337e-08
-4.38731e-08
-2.07967e-08
-3.58161e-08
-1.90993e-08
-2.85029e-08
-1.72537e-08
-2.19848e-08
-1.52731e-08
-1.63043e-08
-1.31758e-08
-1.14929e-08
-1.09883e-08
-7.56665e-09
-8.74764e-09
-4.5215e-09
-6.50681e-09
-2.32658e-09
-4.34153e-09
-9.16124e-10
-2.36031e-09
-1.80852e-10
-7.16768e-10
4.42823e-11
3.73614e-10
5.83681e-10
8.17618e-12
-4.83227e-10
-1.68348e-10
-4.03324e-10
-6.73048e-10
3.66359e-10
-1.60559e-09
1.57285e-09
-3.03248e-09
3.05977e-09
-4.99369e-09
4.70952e-09
-7.50783e-09
6.43273e-09
-1.05766e-08
8.16327e-09
-1.41886e-08
9.85333e-09
-1.83224e-08
1.14691e-08
-2.29494e-08
1.29877e-08
-2.80361e-08
1.43942e-08
-3.35455e-08
1.56802e-08
-3.94392e-08
1.68418e-08
-4.56779e-08
1.78787e-08
-5.22227e-08
1.87931e-08
-5.90355e-08
1.95893e-08
-6.60797e-08
2.02729e-08
-7.33205e-08
2.08502e-08
-8.07252e-08
2.13283e-08
-8.82632e-08
2.17146e-08
-9.59061e-08
2.20166e-08
-1.03628e-07
2.22415e-08
-1.11405e-07
2.23967e-08
-1.19216e-07
2.2489e-08
-1.27041e-07
2.2525e-08
-1.34864e-07
2.25111e-08
-1.42668e-07
2.24529e-08
-1.5044e-07
2.23559e-08
-1.58167e-07
2.22249e-08
-1.65841e-07
2.20646e-08
-1.7345e-07
2.18791e-08
-1.80989e-07
2.16719e-08
-1.88449e-07
2.14465e-08
-1.95825e-07
2.12058e-08
-2.03113e-07
2.09525e-08
-2.10309e-07
2.06888e-08
-2.1741e-07
2.04169e-08
-2.24412e-07
2.01385e-08
-2.31315e-07
1.98553e-08
-2.38116e-07
1.95685e-08
-2.44815e-07
1.92794e-08
-2.5141e-07
1.8989e-08
-2.57903e-07
1.86983e-08
-2.64292e-07
1.84079e-08
-2.70578e-07
1.81185e-08
-2.76761e-07
1.78307e-08
-2.82843e-07
1.7545e-08
-2.88823e-07
1.72619e-08
-2.94703e-07
1.69816e-08
-3.00484e-07
1.67045e-08
-3.06166e-07
1.64308e-08
-3.11752e-07
1.61608e-08
-3.17243e-07
1.58946e-08
-3.22639e-07
1.56325e-08
-3.27943e-07
1.53745e-08
-3.33155e-07
1.51207e-08
-3.38278e-07
1.48713e-08
-3.43313e-07
1.46261e-08
-3.4826e-07
1.43854e-08
-3.53123e-07
1.41489e-08
-3.57902e-07
1.39167e-08
-3.62598e-07
1.36886e-08
-3.67214e-07
1.34646e-08
-3.7175e-07
1.32445e-08
-3.76207e-07
1.3028e-08
-3.80587e-07
1.2815e-08
-3.84891e-07
1.26051e-08
-3.8912e-07
1.2398e-08
-3.93275e-07
1.21933e-08
-3.97355e-07
1.19906e-08
-4.01363e-07
1.17894e-08
-4.05297e-07
1.1589e-08
-4.09158e-07
1.1389e-08
-4.12947e-07
1.11885e-08
-4.16661e-07
1.09869e-08
-4.20301e-07
1.07832e-08
-4.23866e-07
1.05765e-08
-4.27353e-07
1.03658e-08
-4.30762e-07
1.015e-08
-4.3409e-07
9.92796e-09
-4.37335e-07
9.69833e-09
-4.40493e-07
9.45975e-09
-4.4356e-07
9.21077e-09
-4.46533e-07
8.94981e-09
-4.49407e-07
8.67523e-09
-4.52176e-07
8.38525e-09
-4.54835e-07
8.07804e-09
-4.57378e-07
7.75163e-09
-4.59796e-07
7.40399e-09
-4.62082e-07
7.033e-09
-4.64227e-07
6.63645e-09
-4.66222e-07
6.21209e-09
-4.68056e-07
5.75758e-09
-4.69719e-07
5.27056e-09
-4.71199e-07
4.74863e-09
-4.72483e-07
4.18936e-09
-4.73558e-07
3.59036e-09
-4.7441e-07
2.94925e-09
-4.75024e-07
2.2637e-09
-4.75385e-07
1.53146e-09
-4.75475e-07
7.5039e-10
-4.75279e-07
-8.14989e-11
-4.74779e-07
-9.66021e-10
-4.73957e-07
-1.90477e-09
-4.72794e-07
-2.8991e-09
-4.71272e-07
-3.95003e-09
-4.69372e-07
-5.05826e-09
-4.67075e-07
-6.22408e-09
-4.64362e-07
-7.44734e-09
-4.61216e-07
-8.72739e-09
-4.57617e-07
-1.0063e-08
-4.53548e-07
-1.14525e-08
-4.48994e-07
-1.28934e-08
-4.43938e-07
-1.43825e-08
-4.38365e-07
-1.59162e-08
-4.32265e-07
-1.74897e-08
-4.25624e-07
-1.90978e-08
-4.18436e-07
-2.07343e-08
-4.10694e-07
-2.23921e-08
-4.02393e-07
-2.40634e-08
-3.93533e-07
-2.57394e-08
-3.84116e-07
-2.74108e-08
-3.74148e-07
-2.90671e-08
-3.63639e-07
-3.06973e-08
-3.52601e-07
-3.22895e-08
-3.41052e-07
-3.38314e-08
-3.29013e-07
-3.53098e-08
-3.16511e-07
-3.67113e-08
-3.03576e-07
-3.8022e-08
-2.90244e-07
-3.92277e-08
-2.76554e-07
-4.03142e-08
-2.62551e-07
-4.12671e-08
-2.48283e-07
-4.20723e-08
-2.33806e-07
-4.2716e-08
-2.19175e-07
-4.31847e-08
-2.04455e-07
-4.34658e-08
-1.8971e-07
-4.35471e-08
-1.7501e-07
-4.34176e-08
-1.60428e-07
-4.30675e-08
-1.46039e-07
-4.24879e-08
-1.3192e-07
-4.16716e-08
-1.1815e-07
-4.0613e-08
-1.0481e-07
-3.93082e-08
-9.19803e-08
-3.77554e-08
-7.97397e-08
-3.5955e-08
-6.81667e-08
-3.391e-08
-5.73367e-08
-3.16267e-08
-4.73212e-08
-2.91148e-08
-3.81857e-08
-2.63892e-08
-2.99884e-08
-2.34703e-08
-2.27774e-08
-2.03868e-08
-1.65876e-08
-1.71781e-08
-1.14372e-08
-1.3898e-08
-7.32321e-09
-1.06208e-08
-4.216e-09
-7.44873e-09
-2.05373e-09
-4.52258e-09
-7.3614e-10
-2.03436e-09
-1.18065e-10
-2.44461e-10
4.65619e-10
-9.01843e-11
-3.93049e-10
-5.09083e-10
1.55747e-11
-1.37217e-09
1.22944e-09
-2.76376e-09
2.96444e-09
-4.74065e-09
5.03666e-09
-7.33641e-09
7.30529e-09
-1.05652e-08
9.66148e-09
-1.44251e-08
1.20232e-08
-1.89017e-08
1.43299e-08
-2.39703e-08
1.65378e-08
-2.95992e-08
1.86166e-08
-3.5751e-08
2.0546e-08
-4.23849e-08
2.23141e-08
-4.94579e-08
2.39148e-08
-5.69262e-08
2.5347e-08
-6.47461e-08
2.6613e-08
-7.28748e-08
2.7718e-08
-8.12708e-08
2.86688e-08
-8.98945e-08
2.94739e-08
-9.87083e-08
3.01422e-08
-1.07677e-07
3.06836e-08
-1.16769e-07
3.1108e-08
-1.25953e-07
3.14253e-08
-1.35201e-07
3.16451e-08
-1.44489e-07
3.17771e-08
-1.53794e-07
3.183e-08
-1.63095e-07
3.18125e-08
-1.72375e-07
3.17325e-08
-1.81617e-07
3.15974e-08
-1.90806e-07
3.14142e-08
-1.9993e-07
3.1189e-08
-2.08979e-07
3.09277e-08
-2.17942e-07
3.06353e-08
-2.26812e-07
3.03166e-08
-2.35582e-07
2.99757e-08
-2.44246e-07
2.96163e-08
-2.52799e-07
2.92418e-08
-2.61237e-07
2.88552e-08
-2.69558e-07
2.84589e-08
-2.77758e-07
2.80552e-08
-2.85835e-07
2.76462e-08
-2.93789e-07
2.72335e-08
-3.01619e-07
2.68186e-08
-3.09324e-07
2.64028e-08
-3.16903e-07
2.59874e-08
-3.24358e-07
2.55731e-08
-3.31688e-07
2.51609e-08
-3.38894e-07
2.47515e-08
-3.45978e-07
2.43456e-08
-3.5294e-07
2.39436e-08
-3.59782e-07
2.3546e-08
-3.66504e-07
2.31532e-08
-3.73109e-07
2.27655e-08
-3.79597e-07
2.23833e-08
-3.85971e-07
2.20067e-08
-3.92233e-07
2.16359e-08
-3.98383e-07
2.12711e-08
-4.04424e-07
2.09124e-08
-4.10358e-07
2.05598e-08
-4.16186e-07
2.02133e-08
-4.2191e-07
1.98729e-08
-4.27532e-07
1.95385e-08
-4.33053e-07
1.92099e-08
-4.38475e-07
1.88871e-08
-4.43801e-07
1.85697e-08
-4.4903e-07
1.82574e-08
-4.54165e-07
1.795e-08
-4.59207e-07
1.76469e-08
-4.64157e-07
1.73477e-08
-4.69015e-07
1.70519e-08
-4.73783e-07
1.67589e-08
-4.78462e-07
1.64678e-08
-4.83051e-07
1.61779e-08
-4.8755e-07
1.58884e-08
-4.9196e-07
1.55982e-08
-4.96279e-07
1.53062e-08
-5.00507e-07
1.50112e-08
-5.04643e-07
1.4712e-08
-5.08684e-07
1.44071e-08
-5.12629e-07
1.40949e-08
-5.16475e-07
1.37739e-08
-5.20219e-07
1.34421e-08
-5.23857e-07
1.30978e-08
-5.27385e-07
1.27388e-08
-5.30798e-07
1.23629e-08
-5.3409e-07
1.19679e-08
-5.37256e-07
1.15513e-08
-5.40289e-07
1.11106e-08
-5.4318e-07
1.06429e-08
-5.45922e-07
1.01456e-08
-5.48505e-07
9.61568e-09
-5.50918e-07
9.05009e-09
-5.53152e-07
8.44571e-09
-5.55194e-07
7.79934e-09
-5.57031e-07
7.10772e-09
-5.5865e-07
6.36756e-09
-5.60036e-07
5.57555e-09
-5.61174e-07
4.72838e-09
-5.62047e-07
3.82281e-09
-5.62639e-07
2.85566e-09
-5.62932e-07
1.82387e-09
-5.62906e-07
7.24542e-10
-5.62542e-07
-4.4503e-10
-5.61821e-07
-1.68728e-09
-5.60722e-07
-3.00436e-09
-5.59223e-07
-4.39803e-09
-5.57303e-07
-5.86965e-09
-5.54941e-07
-7.4201e-09
-5.52116e-07
-9.04969e-09
-5.48805e-07
-1.07581e-08
-5.44988e-07
-1.25444e-08
-5.40644e-07
-1.44068e-08
-5.35754e-07
-1.63428e-08
-5.30298e-07
-1.8349e-08
-5.2426e-07
-2.0421e-08
-5.17622e-07
-2.25534e-08
-5.10372e-07
-2.47399e-08
-5.02497e-07
-2.6973e-08
-4.93987e-07
-2.92441e-08
-4.84836e-07
-3.15435e-08
-4.75039e-07
-3.38603e-08
-4.64596e-07
-3.61825e-08
-4.5351e-07
-3.84969e-08
-4.41787e-07
-4.07894e-08
-4.2944e-07
-4.30446e-08
-4.16483e-07
-4.52462e-08
-4.02938e-07
-4.73773e-08
-3.88828e-07
-4.94197e-08
-3.74184e-07
-5.1355e-08
-3.59042e-07
-5.31642e-08
-3.43442e-07
-5.48277e-08
-3.2743e-07
-5.6326e-08
-3.11057e-07
-5.76396e-08
-2.94381e-07
-5.87489e-08
-2.77461e-07
-5.96351e-08
-2.60366e-07
-6.02799e-08
-2.43166e-07
-6.06659e-08
-2.25937e-07
-6.07766e-08
-2.08757e-07
-6.05971e-08
-1.91711e-07
-6.0114e-08
-1.74883e-07
-5.93155e-08
-1.58363e-07
-5.81921e-08
-1.42239e-07
-5.67364e-08
-1.26604e-07
-5.49437e-08
-1.11547e-07
-5.28121e-08
-9.71592e-08
-5.0343e-08
-8.35277e-08
-4.75415e-08
-7.07371e-08
-4.44172e-08
-5.88671e-08
-4.09849e-08
-4.79904e-08
-3.72659e-08
-3.81713e-08
-3.32894e-08
-2.9463e-08
-2.90951e-08
-2.19047e-08
-2.47364e-08
-1.55185e-08
-2.02843e-08
-1.03057e-08
-1.58336e-08
-6.24338e-09
-1.15111e-08
-3.28031e-09
-7.48563e-09
-1.33429e-09
-3.98038e-09
-2.90187e-10
-1.28856e-09
1.7543e-10
-1.9314e-10
-1.99904e-10
-8.72888e-10
6.95316e-10
-2.1234e-09
2.47995e-09
-4.00871e-09
4.84976e-09
-6.57171e-09
7.59966e-09
-9.83609e-09
1.05697e-08
-1.38088e-08
1.36342e-08
-1.84825e-08
1.66969e-08
-2.38383e-08
1.96856e-08
-2.98477e-08
2.25472e-08
-3.64751e-08
2.5244e-08
-4.36796e-08
2.77505e-08
-5.14166e-08
3.00511e-08
-5.96393e-08
3.21375e-08
-6.83e-08
3.40077e-08
-7.73508e-08
3.56639e-08
-8.67449e-08
3.71121e-08
-9.64365e-08
3.83605e-08
-1.06382e-07
3.94193e-08
-1.1654e-07
4.03001e-08
-1.26871e-07
4.10148e-08
-1.37339e-07
4.15761e-08
-1.4791e-07
4.19965e-08
-1.58554e-07
4.22885e-08
-1.69241e-07
4.24642e-08
-1.79946e-07
4.25352e-08
-1.90646e-07
4.25126e-08
-2.0132e-07
4.24067e-08
-2.1195e-07
4.22271e-08
-2.22519e-07
4.1983e-08
-2.33012e-07
4.16825e-08
-2.43418e-07
4.13331e-08
-2.53724e-07
4.09418e-08
-2.63922e-07
4.05146e-08
-2.74004e-07
4.00572e-08
-2.83962e-07
3.95746e-08
-2.93791e-07
3.90711e-08
-3.03487e-07
3.85508e-08
-3.13045e-07
3.8017e-08
-3.22463e-07
3.74729e-08
-3.31738e-07
3.6921e-08
-3.40868e-07
3.63639e-08
-3.49853e-07
3.58034e-08
-3.58691e-07
3.52414e-08
-3.67384e-07
3.46795e-08
-3.7593e-07
3.4119e-08
-3.8433e-07
3.3561e-08
-3.92585e-07
3.30066e-08
-4.00696e-07
3.24566e-08
-4.08664e-07
3.19118e-08
-4.16491e-07
3.13728e-08
-4.24178e-07
3.08402e-08
-4.31727e-07
3.03143e-08
-4.39139e-07
2.97957e-08
-4.46417e-07
2.92847e-08
-4.53563e-07
2.87814e-08
-4.60578e-07
2.82861e-08
-4.67464e-07
2.77988e-08
-4.74224e-07
2.73198e-08
-4.8086e-07
2.6849e-08
-4.87373e-07
2.63862e-08
-4.93766e-07
2.59315e-08
-5.00041e-07
2.54846e-08
-5.06199e-07
2.50454e-08
-5.12243e-07
2.46133e-08
-5.18174e-07
2.41882e-08
-5.23993e-07
2.37694e-08
-5.29703e-07
2.33564e-08
-5.35303e-07
2.29486e-08
-5.40797e-07
2.25453e-08
-5.46183e-07
2.21455e-08
-5.51464e-07
2.17483e-08
-5.56639e-07
2.13527e-08
-5.61708e-07
2.09575e-08
-5.66671e-07
2.05613e-08
-5.71527e-07
2.01626e-08
-5.76276e-07
1.976e-08
-5.80916e-07
1.93516e-08
-5.85444e-07
1.89355e-08
-5.89859e-07
1.85098e-08
-5.94157e-07
1.80722e-08
-5.98336e-07
1.76204e-08
-6.0239e-07
1.71518e-08
-6.06315e-07
1.66637e-08
-6.10105e-07
1.61533e-08
-6.13755e-07
1.56175e-08
-6.17256e-07
1.50531e-08
-6.20603e-07
1.44567e-08
-6.23784e-07
1.38248e-08
-6.26792e-07
1.31537e-08
-6.29616e-07
1.24395e-08
-6.32244e-07
1.16783e-08
-6.34665e-07
1.0866e-08
-6.36864e-07
9.99843e-09
-6.38827e-07
9.07134e-09
-6.4054e-07
8.08044e-09
-6.41986e-07
7.02143e-09
-6.43148e-07
5.89004e-09
-6.44007e-07
4.68205e-09
-6.44545e-07
3.39334e-09
-6.44741e-07
2.01998e-09
-6.44575e-07
5.58229e-10
-6.44024e-07
-9.9538e-10
-6.43067e-07
-2.64397e-09
-6.41682e-07
-4.39026e-09
-6.39843e-07
-6.23649e-09
-6.37528e-07
-8.18435e-09
-6.34714e-07
-1.02349e-08
-6.31375e-07
-1.23884e-08
-6.27489e-07
-1.46445e-08
-6.23031e-07
-1.70017e-08
-6.17981e-07
-1.94576e-08
-6.12314e-07
-2.2009e-08
-6.06012e-07
-2.46512e-08
-5.99055e-07
-2.73784e-08
-5.91425e-07
-3.01836e-08
-5.83106e-07
-3.30583e-08
-5.74086e-07
-3.59928e-08
-5.64355e-07
-3.89758e-08
-5.53904e-07
-4.19945e-08
-5.42729e-07
-4.50347e-08
-5.30831e-07
-4.80806e-08
-5.18213e-07
-5.11152e-08
-5.04882e-07
-5.41198e-08
-4.90852e-07
-5.70745e-08
-4.7614e-07
-5.99582e-08
-4.60769e-07
-6.27484e-08
-4.44767e-07
-6.5422e-08
-4.28167e-07
-6.79547e-08
-4.1101e-07
-7.03217e-08
-3.9334e-07
-7.24978e-08
-3.75208e-07
-7.44575e-08
-3.56672e-07
-7.61754e-08
-3.37795e-07
-7.76263e-08
-3.18644e-07
-7.87857e-08
-2.99295e-07
-7.96298e-08
-2.79824e-07
-8.0136e-08
-2.60318e-07
-8.02833e-08
-2.40862e-07
-8.00524e-08
-2.2155e-07
-7.94259e-08
-2.02477e-07
-7.8389e-08
-1.83739e-07
-7.69297e-08
-1.65437e-07
-7.50388e-08
-1.4767e-07
-7.27107e-08
-1.30538e-07
-6.99438e-08
-1.1414e-07
-6.67407e-08
-9.85728e-08
-6.31091e-08
-8.39276e-08
-5.90624e-08
-7.02916e-08
-5.46209e-08
-5.77442e-08
-4.98132e-08
-4.63557e-08
-4.46779e-08
-3.61848e-08
-3.92661e-08
-2.7276e-08
-3.36451e-08
-1.96576e-08
-2.79027e-08
-1.33386e-08
-2.21527e-08
-8.30639e-09
-1.65433e-08
-4.52551e-09
-1.12665e-08
-1.937e-09
-6.56889e-09
-4.60412e-10
-2.76515e-09
-2.84981e-10
-2.96681e-10
9.67714e-11
-1.24485e-09
1.64349e-09
-2.89756e-09
4.13266e-09
-5.2962e-09
7.24839e-09
-8.46701e-09
1.07705e-08
-1.24213e-08
1.4524e-08
-1.71567e-08
1.83696e-08
-2.26587e-08
2.2199e-08
-2.89027e-08
2.59296e-08
-3.58552e-08
2.94998e-08
-4.34766e-08
3.28654e-08
-5.1722e-08
3.59959e-08
-6.05431e-08
3.88721e-08
-6.98894e-08
4.14838e-08
-7.97097e-08
4.38279e-08
-8.99524e-08
4.59066e-08
-1.00567e-07
4.77266e-08
-1.11504e-07
4.92977e-08
-1.22717e-07
5.06319e-08
-1.3416e-07
5.1743e-08
-1.45791e-07
5.26456e-08
-1.5757e-07
5.33551e-08
-1.6946e-07
5.38868e-08
-1.81428e-07
5.42561e-08
-1.93441e-07
5.44779e-08
-2.05473e-07
5.45667e-08
-2.17496e-07
5.45361e-08
-2.29489e-07
5.43991e-08
-2.41429e-07
5.41679e-08
-2.533e-07
5.38537e-08
-2.65085e-07
5.3467e-08
-2.76769e-07
5.30171e-08
-2.8834e-07
5.2513e-08
-2.99788e-07
5.19623e-08
-3.11103e-07
5.13722e-08
-3.22277e-07
5.07491e-08
-3.33305e-07
5.00987e-08
-3.4418e-07
4.9426e-08
-3.54898e-07
4.87354e-08
-3.65456e-07
4.8031e-08
-3.75852e-07
4.73162e-08
-3.86082e-07
4.65941e-08
-3.96146e-07
4.58674e-08
-4.06043e-07
4.51384e-08
-4.15772e-07
4.44091e-08
-4.25335e-07
4.36813e-08
-4.3473e-07
4.29566e-08
-4.4396e-07
4.22362e-08
-4.53024e-07
4.15214e-08
-4.61926e-07
4.08131e-08
-4.70665e-07
4.01121e-08
-4.79244e-07
3.94193e-08