/*--------------------------------*- C++ -*----------------------------------*\
  =========                 |
  \\      /  F ield         | OpenFOAM: The Open Source CFD Toolbox
   \\    /   O peration     | Website:  https://openfoam.org
    \\  /    A nd           | Version:  7
     \\/     M anipulation  |
\*---------------------------------------------------------------------------*/
FoamFile
{
    version     2.0;
    format      ascii;
    class       volVectorField;
    location    "0.075";
    object      U;
}
// * * * * * * * * * * * * * * * * * * * * * * * * * * * * * * * * * * * * * //

dimensions      [0 1 -1 0 0 0 0];

internalField   nonuniform List<vector> 
12800
(
(5.4381e-06 -5.42099e-06 0)
(2.32398e-05 -1.08766e-05 0)
(4.69127e-05 -1.0749e-05 0)
(6.52483e-05 -7.95516e-06 0)
(7.19333e-05 -3.69158e-06 0)
(6.44429e-05 1.24111e-06 0)
(4.1617e-05 6.35715e-06 0)
(3.28498e-06 1.13244e-05 0)
(-5.0088e-05 1.60121e-05 0)
(-0.000117636 2.03237e-05 0)
(-0.00019834 2.42335e-05 0)
(-0.00029103 2.77412e-05 0)
(-0.000394532 3.08435e-05 0)
(-0.000507673 3.35563e-05 0)
(-0.000629294 3.5908e-05 0)
(-0.000758313 3.79169e-05 0)
(-0.000893699 3.96106e-05 0)
(-0.00103448 4.10275e-05 0)
(-0.00117979 4.21867e-05 0)
(-0.0013288 4.31109e-05 0)
(-0.00148077 4.38329e-05 0)
(-0.00163503 4.4369e-05 0)
(-0.00179099 4.47308e-05 0)
(-0.00194809 4.49434e-05 0)
(-0.00210588 4.50285e-05 0)
(-0.00226392 4.50017e-05 0)
(-0.00242185 4.48809e-05 0)
(-0.00257936 4.46835e-05 0)
(-0.00273615 4.44183e-05 0)
(-0.00289201 4.40905e-05 0)
(-0.00304672 4.37128e-05 0)
(-0.00320011 4.32988e-05 0)
(-0.00335204 4.28541e-05 0)
(-0.00350239 4.23822e-05 0)
(-0.00365108 4.18888e-05 0)
(-0.00379801 4.13791e-05 0)
(-0.00394313 4.08554e-05 0)
(-0.0040864 4.03227e-05 0)
(-0.00422777 3.97881e-05 0)
(-0.00436724 3.92545e-05 0)
(-0.00450477 3.87201e-05 0)
(-0.00464038 3.81837e-05 0)
(-0.00477405 3.76493e-05 0)
(-0.00490579 3.71213e-05 0)
(-0.00503562 3.66003e-05 0)
(-0.00516354 3.6084e-05 0)
(-0.00528957 3.55722e-05 0)
(-0.00541373 3.50676e-05 0)
(-0.00553604 3.45704e-05 0)
(-0.00565652 3.40793e-05 0)
(-0.0057752 3.3595e-05 0)
(-0.0058921 3.31188e-05 0)
(-0.00600725 3.26522e-05 0)
(-0.00612067 3.21944e-05 0)
(-0.0062324 3.17433e-05 0)
(-0.00634247 3.13e-05 0)
(-0.0064509 3.08669e-05 0)
(-0.00655772 3.0444e-05 0)
(-0.00666297 3.00303e-05 0)
(-0.00676669 2.96255e-05 0)
(-0.00686889 2.92296e-05 0)
(-0.00696962 2.88435e-05 0)
(-0.0070689 2.84669e-05 0)
(-0.00716676 2.80985e-05 0)
(-0.00726324 2.77372e-05 0)
(-0.00735835 2.73839e-05 0)
(-0.00745214 2.70393e-05 0)
(-0.00754461 2.67024e-05 0)
(-0.0076358 2.63719e-05 0)
(-0.00772573 2.60467e-05 0)
(-0.00781441 2.57269e-05 0)
(-0.00790186 2.54126e-05 0)
(-0.0079881 2.51029e-05 0)
(-0.00807312 2.47959e-05 0)
(-0.00815694 2.44893e-05 0)
(-0.00823956 2.41821e-05 0)
(-0.00832096 2.38734e-05 0)
(-0.00840113 2.35611e-05 0)
(-0.00848005 2.32422e-05 0)
(-0.0085577 2.29137e-05 0)
(-0.00863403 2.25733e-05 0)
(-0.00870899 2.22188e-05 0)
(-0.00878255 2.18479e-05 0)
(-0.00885461 2.14574e-05 0)
(-0.00892512 2.1043e-05 0)
(-0.00899397 2.06005e-05 0)
(-0.00906107 2.01266e-05 0)
(-0.0091263 1.96183e-05 0)
(-0.00918953 1.90716e-05 0)
(-0.00925062 1.84813e-05 0)
(-0.00930941 1.78415e-05 0)
(-0.00936571 1.71467e-05 0)
(-0.00941934 1.63921e-05 0)
(-0.00947007 1.5572e-05 0)
(-0.00951767 1.46807e-05 0)
(-0.0095619 1.37115e-05 0)
(-0.00960247 1.26583e-05 0)
(-0.0096391 1.15148e-05 0)
(-0.00967147 1.02747e-05 0)
(-0.00969926 8.9318e-06 0)
(-0.0097221 7.48033e-06 0)
(-0.00973963 5.91463e-06 0)
(-0.00975147 4.22919e-06 0)
(-0.0097572 2.41861e-06 0)
(-0.00975641 4.78012e-07 0)
(-0.00974866 -1.59698e-06 0)
(-0.0097335 -3.81022e-06 0)
(-0.00971049 -6.1652e-06 0)
(-0.00967915 -8.66462e-06 0)
(-0.00963902 -1.13098e-05 0)
(-0.00958962 -1.41006e-05 0)
(-0.0095305 -1.70353e-05 0)
(-0.00946119 -2.01112e-05 0)
(-0.00938125 -2.33242e-05 0)
(-0.00929027 -2.66688e-05 0)
(-0.00918783 -3.01374e-05 0)
(-0.00907357 -3.37207e-05 0)
(-0.00894715 -3.74069e-05 0)
(-0.00880828 -4.11825e-05 0)
(-0.00865671 -4.50321e-05 0)
(-0.00849227 -4.89379e-05 0)
(-0.00831482 -5.28797e-05 0)
(-0.00812432 -5.68345e-05 0)
(-0.0079208 -6.07773e-05 0)
(-0.00770435 -6.46812e-05 0)
(-0.0074752 -6.85175e-05 0)
(-0.00723363 -7.22554e-05 0)
(-0.00698005 -7.58627e-05 0)
(-0.00671498 -7.93053e-05 0)
(-0.00643902 -8.25481e-05 0)
(-0.00615292 -8.55557e-05 0)
(-0.00585753 -8.82926e-05 0)
(-0.00555381 -9.07223e-05 0)
(-0.00524286 -9.28083e-05 0)
(-0.00492588 -9.45139e-05 0)
(-0.00460418 -9.58034e-05 0)
(-0.00427919 -9.66425e-05 0)
(-0.00395245 -9.69985e-05 0)
(-0.00362558 -9.68413e-05 0)
(-0.00330032 -9.61445e-05 0)
(-0.00297846 -9.48832e-05 0)
(-0.00266189 -9.30335e-05 0)
(-0.00235256 -9.05736e-05 0)
(-0.00205246 -8.74857e-05 0)
(-0.00176363 -8.37562e-05 0)
(-0.00148815 -7.93732e-05 0)
(-0.00122812 -7.43256e-05 0)
(-0.000985622 -6.86042e-05 0)
(-0.000762762 -6.22039e-05 0)
(-0.000561599 -5.51224e-05 0)
(-0.000384141 -4.73606e-05 0)
(-0.000232306 -3.89276e-05 0)
(-0.000107857 -2.98515e-05 0)
(-1.22972e-05 -2.02008e-05 0)
(5.33154e-05 -1.01317e-05 0)
(8.87091e-05 2.01286e-08 0)
(9.4932e-05 9.54286e-06 0)
(7.56171e-05 1.69402e-05 0)
(4.09215e-05 1.91049e-05 0)
(1.08063e-05 1.08119e-05 0)
(1.21572e-05 -2.361e-05 0)
(4.34934e-05 -4.17801e-05 0)
(7.79672e-05 -3.69844e-05 0)
(9.49331e-05 -1.96214e-05 0)
(8.23397e-05 5.026e-06 0)
(3.42451e-05 3.34557e-05 0)
(-5.24922e-05 6.32441e-05 0)
(-0.000178812 9.28291e-05 0)
(-0.000344091 0.000121255 0)
(-0.000546722 0.000147933 0)
(-0.000784375 0.000172549 0)
(-0.00105442 0.00019495 0)
(-0.00135397 0.000215076 0)
(-0.00168008 0.000232962 0)
(-0.00202982 0.00024867 0)
(-0.00240034 0.000262301 0)
(-0.00278891 0.000273987 0)
(-0.00319295 0.000283858 0)
(-0.00361005 0.000292054 0)
(-0.00403796 0.000298718 0)
(-0.00447463 0.000303994 0)
(-0.0049182 0.00030801 0)
(-0.00536694 0.000310896 0)
(-0.00581933 0.000312775 0)
(-0.00627401 0.00031376 0)
(-0.00672976 0.000313956 0)
(-0.00718549 0.000313467 0)
(-0.00764026 0.000312385 0)
(-0.00809326 0.000310787 0)
(-0.00854376 0.000308745 0)
(-0.00899116 0.000306328 0)
(-0.00943492 0.000303596 0)
(-0.0098746 0.000300599 0)
(-0.0103098 0.000297386 0)
(-0.0107403 0.000294 0)
(-0.0111658 0.000290473 0)
(-0.0115861 0.000286832 0)
(-0.012001 0.000283107 0)
(-0.0124104 0.000279325 0)
(-0.0128142 0.000275505 0)
(-0.0132124 0.00027166 0)
(-0.0136049 0.000267804 0)
(-0.0139917 0.000263951 0)
(-0.0143729 0.000260111 0)
(-0.0147483 0.000256291 0)
(-0.015118 0.000252499 0)
(-0.0154822 0.00024874 0)
(-0.0158408 0.000245021 0)
(-0.0161938 0.000241344 0)
(-0.0165414 0.00023771 0)
(-0.0168836 0.000234124 0)
(-0.0172204 0.000230591 0)
(-0.0175521 0.000227114 0)
(-0.0178785 0.000223692 0)
(-0.0181999 0.000220326 0)
(-0.0185162 0.000217019 0)
(-0.0188276 0.000213775 0)
(-0.0191342 0.000210594 0)
(-0.0194361 0.000207474 0)
(-0.0197332 0.000204417 0)
(-0.0200259 0.000201421 0)
(-0.020314 0.000198489 0)
(-0.0205978 0.000195617 0)
(-0.0208772 0.000192802 0)
(-0.0211525 0.000190043 0)
(-0.0214236 0.000187338 0)
(-0.0216906 0.000184686 0)
(-0.0219536 0.00018208 0)
(-0.0222127 0.000179517 0)
(-0.0224679 0.000176991 0)
(-0.0227193 0.000174499 0)
(-0.0229668 0.000172034 0)
(-0.0232107 0.00016959 0)
(-0.0234507 0.000167156 0)
(-0.023687 0.000164722 0)
(-0.0239196 0.000162279 0)
(-0.0241484 0.000159814 0)
(-0.0243734 0.000157314 0)
(-0.0245944 0.000154764 0)
(-0.0248115 0.000152146 0)
(-0.0250245 0.000149444 0)
(-0.0252333 0.000146641 0)
(-0.0254377 0.000143716 0)
(-0.0256375 0.000140648 0)
(-0.0258324 0.000137413 0)
(-0.0260223 0.000133986 0)
(-0.0262068 0.000130343 0)
(-0.0263857 0.000126457 0)
(-0.0265584 0.000122298 0)
(-0.0267247 0.000117835 0)
(-0.026884 0.000113034 0)
(-0.0270358 0.000107862 0)
(-0.0271796 0.000102283 0)
(-0.0273148 9.62612e-05 0)
(-0.0274407 8.97583e-05 0)
(-0.0275566 8.27359e-05 0)
(-0.0276617 7.51554e-05 0)
(-0.0277553 6.69779e-05 0)
(-0.0278364 5.81647e-05 0)
(-0.0279042 4.86776e-05 0)
(-0.0279576 3.8479e-05 0)
(-0.0279957 2.75331e-05 0)
(-0.0280173 1.58061e-05 0)
(-0.0280214 3.26666e-06 0)
(-0.0280068 -1.01139e-05 0)
(-0.0279723 -2.43611e-05 0)
(-0.0279167 -3.94966e-05 0)
(-0.0278387 -5.55376e-05 0)
(-0.0277371 -7.24949e-05 0)
(-0.0276106 -9.03719e-05 0)
(-0.027458 -0.000109164 0)
(-0.027278 -0.000128857 0)
(-0.0270694 -0.000149429 0)
(-0.026831 -0.00017085 0)
(-0.0265617 -0.000193077 0)
(-0.0262604 -0.000216057 0)
(-0.0259261 -0.000239725 0)
(-0.0255581 -0.000264001 0)
(-0.0251555 -0.000288795 0)
(-0.0247178 -0.000314002 0)
(-0.0242445 -0.000339504 0)
(-0.0237353 -0.000365167 0)
(-0.0231902 -0.000390844 0)
(-0.0226093 -0.000416375 0)
(-0.021993 -0.000441587 0)
(-0.0213418 -0.000466293 0)
(-0.0206568 -0.000490299 0)
(-0.019939 -0.000513398 0)
(-0.0191899 -0.000535376 0)
(-0.0184112 -0.00055601 0)
(-0.0176051 -0.000575075 0)
(-0.016774 -0.000592342 0)
(-0.0159204 -0.000607579 0)
(-0.0150474 -0.000620559 0)
(-0.0141584 -0.000631054 0)
(-0.013257 -0.000638846 0)
(-0.0123471 -0.000643723 0)
(-0.0114329 -0.000645486 0)
(-0.0105188 -0.00064395 0)
(-0.00960965 -0.000638942 0)
(-0.00871025 -0.00063031 0)
(-0.00782576 -0.00061792 0)
(-0.00696145 -0.000601656 0)
(-0.00612272 -0.000581425 0)
(-0.00531507 -0.00055716 0)
(-0.00454406 -0.000528814 0)
(-0.00381524 -0.000496369 0)
(-0.00313416 -0.000459837 0)
(-0.00250622 -0.000419271 0)
(-0.0019367 -0.000374772 0)
(-0.00143055 -0.000326514 0)
(-0.000992318 -0.000274776 0)
(-0.000625902 -0.000220018 0)
(-0.000334226 -0.000162994 0)
(-0.000118731 -0.000104972 0)
(2.14136e-05 -4.81101e-05 0)
(9.04016e-05 3.86227e-06 0)
(9.76579e-05 4.45328e-05 0)
(6.27371e-05 6.28124e-05 0)
(1.90285e-05 4.08516e-05 0)
(1.29842e-05 -4.97885e-05 0)
(4.15272e-05 -7.74615e-05 0)
(6.29706e-05 -5.72726e-05 0)
(5.33726e-05 -8.96764e-06 0)
(-1.64617e-06 5.6585e-05 0)
(-0.000109889 0.000131691 0)
(-0.00027563 0.000210732 0)
(-0.000500355 0.000289932 0)
(-0.000783506 0.000366696 0)
(-0.001123 0.000439432 0)
(-0.00151579 0.000507114 0)
(-0.00195817 0.000569165 0)
(-0.00244606 0.000625357 0)
(-0.00297519 0.000675615 0)
(-0.00354126 0.000720054 0)
(-0.00413998 0.000758892 0)
(-0.00476726 0.000792389 0)
(-0.00541916 0.000820876 0)
(-0.00609196 0.000844702 0)
(-0.0067822 0.000864224 0)
(-0.00748668 0.000879808 0)
(-0.00820242 0.000891816 0)
(-0.00892677 0.000900595 0)
(-0.00965726 0.000906474 0)
(-0.0103917 0.000909771 0)
(-0.0111282 0.000910777 0)
(-0.0118649 0.000909767 0)
(-0.0126003 0.000906994 0)
(-0.0133331 0.000902689 0)
(-0.014062 0.000897061 0)
(-0.0147861 0.000890301 0)
(-0.0155045 0.000882578 0)
(-0.0162165 0.000874044 0)
(-0.0169213 0.000864836 0)
(-0.0176185 0.000855076 0)
(-0.0183076 0.000844868 0)
(-0.0189883 0.000834299 0)
(-0.0196602 0.000823451 0)
(-0.0203233 0.000812395 0)
(-0.0209772 0.000801191 0)
(-0.0216219 0.000789889 0)
(-0.0222572 0.000778532 0)
(-0.0228832 0.000767159 0)
(-0.0234998 0.000755803 0)
(-0.024107 0.000744487 0)
(-0.0247049 0.000733236 0)
(-0.0252935 0.00072207 0)
(-0.0258728 0.000711005 0)
(-0.026443 0.000700055 0)
(-0.0270041 0.000689231 0)
(-0.0275563 0.000678542 0)
(-0.0280996 0.000668 0)
(-0.0286342 0.000657614 0)
(-0.0291601 0.000647386 0)
(-0.0296776 0.000637321 0)
(-0.0301868 0.000627427 0)
(-0.0306877 0.000617709 0)
(-0.0311806 0.000608169 0)
(-0.0316656 0.000598805 0)
(-0.0321428 0.000589621 0)
(-0.0326123 0.000580614 0)
(-0.0330743 0.000571784 0)
(-0.033529 0.000563125 0)
(-0.0339765 0.000554632 0)
(-0.0344168 0.0005463 0)
(-0.0348502 0.000538121 0)
(-0.0352768 0.000530086 0)
(-0.0356966 0.000522185 0)
(-0.0361097 0.000514401 0)
(-0.0365164 0.000506723 0)
(-0.0369165 0.000499135 0)
(-0.0373102 0.000491617 0)
(-0.0376975 0.000484148 0)
(-0.0380784 0.000476701 0)
(-0.038453 0.000469247 0)
(-0.0388212 0.000461756 0)
(-0.039183 0.000454194 0)
(-0.0395383 0.000446521 0)
(-0.0398869 0.000438695 0)
(-0.0402288 0.000430668 0)
(-0.0405637 0.000422393 0)
(-0.0408914 0.000413817 0)
(-0.0412117 0.000404884 0)
(-0.0415242 0.00039553 0)
(-0.0418285 0.000385691 0)
(-0.0421243 0.000375297 0)
(-0.0424111 0.000364274 0)
(-0.0426883 0.000352546 0)
(-0.0429554 0.000340029 0)
(-0.0432116 0.000326634 0)
(-0.0434562 0.000312271 0)
(-0.0436885 0.000296842 0)
(-0.0439075 0.000280251 0)
(-0.0441122 0.000262396 0)
(-0.0443017 0.000243171 0)
(-0.0444748 0.000222473 0)
(-0.0446303 0.000200192 0)
(-0.0447669 0.000176224 0)
(-0.0448833 0.000150461 0)
(-0.0449779 0.000122799 0)
(-0.0450494 9.31367e-05 0)
(-0.045096 6.13759e-05 0)
(-0.0451162 2.74246e-05 0)
(-0.0451081 -8.80175e-06 0)
(-0.04507 -4.73791e-05 0)
(-0.0450001 -8.83736e-05 0)
(-0.0448964 -0.000131839 0)
(-0.044757 -0.000177817 0)
(-0.04458 -0.000226329 0)
(-0.0443635 -0.000277379 0)
(-0.0441054 -0.000330947 0)
(-0.043804 -0.000386993 0)
(-0.0434573 -0.000445448 0)
(-0.0430636 -0.000506218 0)
(-0.0426211 -0.000569179 0)
(-0.0421283 -0.000634174 0)
(-0.0415837 -0.000701015 0)
(-0.040986 -0.000769478 0)
(-0.0403342 -0.000839301 0)
(-0.0396273 -0.000910187 0)
(-0.0388648 -0.000981802 0)
(-0.0380463 -0.00105377 0)
(-0.0371717 -0.00112568 0)
(-0.0362414 -0.00119709 0)
(-0.035256 -0.00126751 0)
(-0.0342165 -0.00133642 0)
(-0.0331245 -0.00140329 0)
(-0.0319816 -0.00146754 0)
(-0.0307904 -0.00152857 0)
(-0.0295536 -0.00158578 0)
(-0.0282743 -0.00163854 0)
(-0.0269565 -0.00168621 0)
(-0.0256043 -0.00172816 0)
(-0.0242224 -0.00176376 0)
(-0.022816 -0.0017924 0)
(-0.0213908 -0.00181346 0)
(-0.0199528 -0.00182639 0)
(-0.0185086 -0.00183062 0)
(-0.017065 -0.00182566 0)
(-0.0156295 -0.00181105 0)
(-0.0142095 -0.00178637 0)
(-0.0128129 -0.00175127 0)
(-0.0114478 -0.00170545 0)
(-0.0101226 -0.0016487 0)
(-0.0088456 -0.00158085 0)
(-0.00762527 -0.00150184 0)
(-0.00647003 -0.00141168 0)
(-0.00538816 -0.0013105 0)
(-0.00438772 -0.00119857 0)
(-0.00347642 -0.00107634 0)
(-0.00266137 -0.000944479 0)
(-0.0019489 -0.000804038 0)
(-0.00134422 -0.000656585 0)
(-0.000850883 -0.000504507 0)
(-0.000470188 -0.000351468 0)
(-0.00020017 -0.000203166 0)
(-3.44122e-05 -6.84951e-05 0)
(3.96667e-05 3.88209e-05 0)
(4.47589e-05 9.77621e-05 0)
(1.6861e-05 7.54146e-05 0)
(9.75126e-06 -7.09498e-05 0)
(2.39052e-05 -9.71769e-05 0)
(1.53469e-05 -4.85361e-05 0)
(-3.88634e-05 4.56545e-05 0)
(-0.000153391 0.00016848 0)
(-0.000336734 0.000307582 0)
(-0.000593596 0.000453873 0)
(-0.000925669 0.000600811 0)
(-0.0013323 0.000743949 0)
(-0.0018111 0.000880222 0)
(-0.00235848 0.00100767 0)
(-0.00296997 0.00112513 0)
(-0.0036406 0.00123196 0)
(-0.00436507 0.00132796 0)
(-0.005138 0.00141323 0)
(-0.005954 0.00148805 0)
(-0.00680783 0.00155288 0)
(-0.00769442 0.00160826 0)
(-0.00860897 0.00165478 0)
(-0.00954696 0.0016931 0)
(-0.0105042 0.00172387 0)
(-0.0114768 0.00174775 0)
(-0.0124611 0.00176537 0)
(-0.0134539 0.00177735 0)
(-0.0144524 0.00178429 0)
(-0.0154537 0.00178674 0)
(-0.0164557 0.00178522 0)
(-0.0174561 0.00178021 0)
(-0.0184531 0.00177215 0)
(-0.0194451 0.00176145 0)
(-0.0204306 0.00174848 0)
(-0.0214086 0.00173356 0)
(-0.0223778 0.001717 0)
(-0.0233374 0.00169905 0)
(-0.0242866 0.00167996 0)
(-0.0252248 0.00165994 0)
(-0.0261516 0.00163915 0)
(-0.0270664 0.00161777 0)
(-0.0279689 0.00159594 0)
(-0.0288589 0.00157377 0)
(-0.0297362 0.00155137 0)
(-0.0306006 0.00152883 0)
(-0.0314521 0.00150622 0)
(-0.0322905 0.00148362 0)
(-0.033116 0.00146108 0)
(-0.0339285 0.00143864 0)
(-0.0347281 0.00141635 0)
(-0.0355148 0.00139425 0)
(-0.0362889 0.00137235 0)
(-0.0370503 0.0013507 0)
(-0.0377992 0.00132931 0)
(-0.0385357 0.0013082 0)
(-0.0392601 0.00128739 0)
(-0.0399725 0.00126688 0)
(-0.0406731 0.0012467 0)
(-0.041362 0.00122685 0)
(-0.0420394 0.00120734 0)
(-0.0427055 0.00118817 0)
(-0.0433605 0.00116935 0)
(-0.0440047 0.00115087 0)
(-0.0446381 0.00113274 0)
(-0.045261 0.00111495 0)
(-0.0458736 0.0010975 0)
(-0.046476 0.00108037 0)
(-0.0470684 0.00106355 0)
(-0.0476511 0.00104702 0)
(-0.0482241 0.00103078 0)
(-0.0487875 0.00101478 0)
(-0.0493417 0.000999021 0)
(-0.0498865 0.000983457 0)
(-0.0504222 0.00096806 0)
(-0.0509488 0.000952791 0)
(-0.0514663 0.000937605 0)
(-0.0519749 0.000922451 0)
(-0.0524744 0.000907275 0)
(-0.0529649 0.000892016 0)
(-0.0534462 0.000876605 0)
(-0.0539183 0.000860967 0)
(-0.054381 0.000845019 0)
(-0.0548341 0.000828674 0)
(-0.0552773 0.000811835 0)
(-0.0557104 0.0007944 0)
(-0.0561329 0.000776258 0)
(-0.0565445 0.000757289 0)
(-0.0569446 0.000737368 0)
(-0.0573327 0.000716358 0)
(-0.0577081 0.00069412 0)
(-0.05807 0.0006705 0)
(-0.0584178 0.00064534 0)
(-0.0587505 0.000618471 0)
(-0.059067 0.000589719 0)
(-0.0593664 0.000558901 0)
(-0.0596474 0.00052583 0)
(-0.0599088 0.000490314 0)
(-0.0601492 0.000452155 0)
(-0.060367 0.000411152 0)
(-0.0605607 0.000367104 0)
(-0.0607286 0.00031981 0)
(-0.0608688 0.00026907 0)
(-0.0609796 0.000214688 0)
(-0.0610588 0.000156473 0)
(-0.0611043 9.4242e-05 0)
(-0.061114 2.78253e-05 0)
(-0.0610855 -4.29339e-05 0)
(-0.0610166 -0.000118175 0)
(-0.0609048 -0.000198017 0)
(-0.0607477 -0.000282555 0)
(-0.0605427 -0.000371857 0)
(-0.0602873 -0.000465957 0)
(-0.059979 -0.000564853 0)
(-0.0596152 -0.000668502 0)
(-0.0591936 -0.000776816 0)
(-0.0587118 -0.000889657 0)
(-0.0581674 -0.00100684 0)
(-0.0575582 -0.00112811 0)
(-0.0568823 -0.00125317 0)
(-0.0561377 -0.00138165 0)
(-0.0553229 -0.00151312 0)
(-0.0544366 -0.00164706 0)
(-0.0534776 -0.00178291 0)
(-0.0524451 -0.00192003 0)
(-0.0513389 -0.00205769 0)
(-0.050159 -0.00219512 0)
(-0.0489057 -0.00233146 0)
(-0.0475801 -0.00246578 0)
(-0.0461836 -0.00259712 0)
(-0.0447181 -0.00272444 0)
(-0.0431862 -0.00284665 0)
(-0.041591 -0.00296263 0)
(-0.0399361 -0.00307122 0)
(-0.038226 -0.00317124 0)
(-0.0364656 -0.00326149 0)
(-0.0346604 -0.00334077 0)
(-0.0328166 -0.0034079 0)
(-0.0309411 -0.00346172 0)
(-0.0290412 -0.00350109 0)
(-0.027125 -0.00352495 0)
(-0.025201 -0.00353226 0)
(-0.0232782 -0.00352209 0)
(-0.021366 -0.00349359 0)
(-0.0194744 -0.003446 0)
(-0.0176136 -0.00337866 0)
(-0.0157941 -0.00329107 0)
(-0.0140267 -0.00318284 0)
(-0.0123221 -0.00305374 0)
(-0.0106912 -0.0029037 0)
(-0.00914473 -0.00273287 0)
(-0.00769323 -0.00254161 0)
(-0.00634682 -0.00233058 0)
(-0.00511507 -0.00210081 0)
(-0.00400672 -0.00185382 0)
(-0.00302935 -0.00159184 0)
(-0.00218905 -0.00131807 0)
(-0.00148977 -0.00103716 0)
(-0.000932708 -0.00075588 0)
(-0.000515352 -0.000484177 0)
(-0.000230347 -0.000236665 0)
(-6.40704e-05 -3.45685e-05 0)
(5.41641e-06 9.15855e-05 0)
(9.65706e-06 9.49292e-05 0)
(4.85615e-06 -7.99598e-05 0)
(-2.11459e-06 -8.74283e-05 0)
(-5.21038e-05 4.97865e-06 0)
(-0.000163815 0.000159831 0)
(-0.000350503 0.000354529 0)
(-0.00062041 0.00057228 0)
(-0.000978065 0.000800402 0)
(-0.0014249 0.00102968 0)
(-0.00196002 0.0012535 0)
(-0.00258069 0.00146725 0)
(-0.0032828 0.00166788 0)
(-0.0040613 0.00185343 0)
(-0.0049105 0.0020228 0)
(-0.00582429 0.00217555 0)
(-0.00679643 0.00231167 0)
(-0.00782064 0.00243153 0)
(-0.00889073 0.00253573 0)
(-0.0100007 0.00262504 0)
(-0.0111449 0.00270035 0)
(-0.0123178 0.00276261 0)
(-0.0135143 0.00281283 0)
(-0.0147299 0.00285199 0)
(-0.0159601 0.00288108 0)
(-0.0172009 0.00290107 0)
(-0.0184488 0.00291288 0)
(-0.0197004 0.00291738 0)
(-0.0209529 0.0029154 0)
(-0.0222035 0.00290769 0)
(-0.0234501 0.00289496 0)
(-0.0246905 0.00287787 0)
(-0.025923 0.00285699 0)
(-0.027146 0.00283288 0)
(-0.0283581 0.002806 0)
(-0.0295582 0.0027768 0)
(-0.0307454 0.00274565 0)
(-0.0319187 0.0027129 0)
(-0.0330776 0.00267884 0)
(-0.0342214 0.00264375 0)
(-0.0353497 0.00260786 0)
(-0.0364622 0.00257135 0)
(-0.0375585 0.00253442 0)
(-0.0386385 0.00249722 0)
(-0.0397021 0.00245986 0)
(-0.0407492 0.00242248 0)
(-0.0417797 0.00238515 0)
(-0.0427937 0.00234798 0)
(-0.0437912 0.00231102 0)
(-0.0447724 0.00227435 0)
(-0.0457373 0.00223801 0)
(-0.046686 0.00220204 0)
(-0.0476188 0.00216649 0)
(-0.0485359 0.0021314 0)
(-0.0494373 0.00209678 0)
(-0.0503234 0.00206266 0)
(-0.0511943 0.00202906 0)
(-0.0520502 0.001996 0)
(-0.0528915 0.00196349 0)
(-0.0537182 0.00193154 0)
(-0.0545307 0.00190015 0)
(-0.0553293 0.00186933 0)
(-0.056114 0.00183906 0)
(-0.0568853 0.00180935 0)
(-0.0576433 0.00178018 0)
(-0.0583882 0.00175153 0)
(-0.0591202 0.00172338 0)
(-0.0598396 0.00169572 0)
(-0.0605466 0.0016685 0)
(-0.0612413 0.00164169 0)
(-0.0619239 0.00161525 0)
(-0.0625946 0.00158912 0)
(-0.0632534 0.00156326 0)
(-0.0639004 0.00153759 0)
(-0.0645357 0.00151204 0)
(-0.0651594 0.00148653 0)
(-0.0657713 0.00146098 0)
(-0.0663716 0.00143528 0)
(-0.06696 0.00140931 0)
(-0.0675364 0.00138297 0)
(-0.0681007 0.00135611 0)
(-0.0686525 0.00132859 0)
(-0.0691915 0.00130026 0)
(-0.0697174 0.00127096 0)
(-0.0702297 0.00124049 0)
(-0.0707279 0.00120868 0)
(-0.0712113 0.00117531 0)
(-0.0716793 0.00114017 0)
(-0.0721309 0.00110303 0)
(-0.0725655 0.00106365 0)
(-0.0729819 0.00102177 0)
(-0.073379 0.000977119 0)
(-0.0737556 0.000929428 0)
(-0.0741105 0.000878403 0)
(-0.0744421 0.000823747 0)
(-0.0747488 0.000765154 0)
(-0.0750291 0.00070231 0)
(-0.075281 0.0006349 0)
(-0.0755026 0.000562606 0)
(-0.0756919 0.000485109 0)
(-0.0758467 0.000402096 0)
(-0.0759646 0.000313258 0)
(-0.0760432 0.000218297 0)
(-0.0760799 0.00011693 0)
(-0.0760721 8.88972e-06 0)
(-0.0760171 -0.000106064 0)
(-0.075912 -0.000228145 0)
(-0.0757539 -0.000357536 0)
(-0.0755399 -0.000494376 0)
(-0.0752669 -0.000638762 0)
(-0.0749319 -0.000790738 0)
(-0.0745319 -0.000950289 0)
(-0.0740639 -0.00111733 0)
(-0.0735249 -0.00129172 0)
(-0.0729122 -0.00147323 0)
(-0.072223 -0.00166154 0)
(-0.0714547 -0.00185625 0)
(-0.070605 -0.00205687 0)
(-0.0696716 -0.00226279 0)
(-0.0686527 -0.00247333 0)
(-0.0675468 -0.00268766 0)
(-0.0663525 -0.00290487 0)
(-0.0650691 -0.00312393 0)
(-0.0636962 -0.0033437 0)
(-0.0622339 -0.00356293 0)
(-0.0606829 -0.00378026 0)
(-0.0590442 -0.00399423 0)
(-0.0573198 -0.00420329 0)
(-0.0555121 -0.00440581 0)
(-0.0536241 -0.00460005 0)
(-0.0516597 -0.00478425 0)
(-0.0496235 -0.00495658 0)
(-0.0475206 -0.00511515 0)
(-0.0453572 -0.0052581 0)
(-0.0431398 -0.00538354 0)
(-0.0408761 -0.00548958 0)
(-0.0385743 -0.00557441 0)
(-0.0362433 -0.00563626 0)
(-0.0338927 -0.00567343 0)
(-0.0315328 -0.00568432 0)
(-0.0291744 -0.00566748 0)
(-0.0268289 -0.00562158 0)
(-0.0245081 -0.00554544 0)
(-0.0222244 -0.0054381 0)
(-0.0199901 -0.00529879 0)
(-0.0178182 -0.00512695 0)
(-0.0157214 -0.00492231 0)
(-0.0137127 -0.00468487 0)
(-0.0118045 -0.00441497 0)
(-0.0100094 -0.00411336 0)
(-0.00833901 -0.00378126 0)
(-0.00680446 -0.00342051 0)
(-0.00541573 -0.00303375 0)
(-0.00418141 -0.00262471 0)
(-0.00310826 -0.00219858 0)
(-0.00220071 -0.00176261 0)
(-0.00146017 -0.00132699 0)
(-0.000884255 -0.000905999 0)
(-0.000465846 -0.000519737 0)
(-0.000191864 -0.000196133 0)
(-4.3875e-05 2.62341e-05 0)
(6.009e-07 8.99012e-05 0)
(-5.88886e-07 -7.37555e-05 0)
(-3.21963e-05 -4.08044e-05 0)
(-0.000130675 0.000112915 0)
(-0.000308558 0.000344037 0)
(-0.000576282 0.000625072 0)
(-0.000941162 0.000935175 0)
(-0.0014069 0.00125841 0)
(-0.00197433 0.00158286 0)
(-0.00264205 0.00189982 0)
(-0.0034068 0.00220308 0)
(-0.00426399 0.00248838 0)
(-0.00520801 0.00275291 0)
(-0.00623253 0.00299504 0)
(-0.00733081 0.003214 0)
(-0.00849586 0.00340967 0)
(-0.00972064 0.00358244 0)
(-0.0109982 0.00373303 0)
(-0.0123218 0.00386246 0)
(-0.0136849 0.0039719 0)
(-0.0150814 0.00406265 0)
(-0.0165053 0.00413607 0)
(-0.0179514 0.00419354 0)
(-0.0194146 0.00423643 0)
(-0.0208902 0.0042661 0)
(-0.0223741 0.00428383 0)
(-0.0238624 0.00429088 0)
(-0.0253517 0.0042884 0)
(-0.0268389 0.0042775 0)
(-0.0283212 0.00425919 0)
(-0.0297962 0.00423439 0)
(-0.0312617 0.00420397 0)
(-0.032716 0.0041687 0)
(-0.0341573 0.00412929 0)
(-0.0355843 0.00408636 0)
(-0.0369957 0.00404049 0)
(-0.0383906 0.00399217 0)
(-0.0397681 0.00394186 0)
(-0.0411276 0.00388994 0)
(-0.0424684 0.00383675 0)
(-0.0437901 0.00378261 0)
(-0.0450924 0.00372777 0)
(-0.046375 0.00367247 0)
(-0.0476377 0.0036169 0)
(-0.0488804 0.00356124 0)
(-0.0501031 0.00350563 0)
(-0.0513059 0.0034502 0)
(-0.0524886 0.00339507 0)
(-0.0536515 0.00334032 0)
(-0.0547947 0.00328605 0)
(-0.0559183 0.00323231 0)
(-0.0570225 0.00317918 0)
(-0.0581076 0.0031267 0)
(-0.0591737 0.00307491 0)
(-0.0602211 0.00302386 0)
(-0.0612501 0.00297357 0)
(-0.0622608 0.00292407 0)
(-0.0632537 0.00287537 0)
(-0.0642289 0.00282749 0)
(-0.0651869 0.00278043 0)
(-0.0661277 0.0027342 0)
(-0.0670518 0.00268879 0)
(-0.0679594 0.00264419 0)
(-0.0688508 0.00260038 0)
(-0.0697262 0.00255734 0)
(-0.0705859 0.00251504 0)
(-0.0714303 0.00247343 0)
(-0.0722594 0.00243248 0)
(-0.0730734 0.00239212 0)
(-0.0738727 0.00235228 0)
(-0.0746574 0.00231291 0)
(-0.0754275 0.00227391 0)
(-0.0761832 0.00223518 0)
(-0.0769246 0.00219662 0)
(-0.0776517 0.00215811 0)
(-0.0783644 0.00211951 0)
(-0.0790627 0.00208068 0)
(-0.0797466 0.00204145 0)
(-0.0804157 0.00200166 0)
(-0.0810699 0.00196109 0)
(-0.0817089 0.00191955 0)
(-0.0823323 0.00187682 0)
(-0.0829396 0.00183264 0)
(-0.0835303 0.00178676 0)
(-0.0841038 0.00173889 0)
(-0.0846593 0.00168875 0)
(-0.085196 0.00163602 0)
(-0.0857129 0.00158037 0)
(-0.0862091 0.00152144 0)
(-0.0866833 0.00145886 0)
(-0.0871343 0.00139226 0)
(-0.0875607 0.00132123 0)
(-0.0879608 0.00124536 0)
(-0.088333 0.00116422 0)
(-0.0886755 0.00107737 0)
(-0.0889864 0.000984359 0)
(-0.0892634 0.000884745 0)
(-0.0895044 0.00077807 0)
(-0.089707 0.000663884 0)
(-0.0898686 0.000541738 0)
(-0.0899865 0.000411195 0)
(-0.090058 0.000271835 0)
(-0.0900801 0.000123257 0)
(-0.0900497 -3.49115e-05 0)
(-0.0899638 -0.000203008 0)
(-0.0898189 -0.00038133 0)
(-0.0896119 -0.000570127 0)
(-0.0893392 -0.000769588 0)
(-0.0889976 -0.000979838 0)
(-0.0885834 -0.00120093 0)
(-0.0880934 -0.00143282 0)
(-0.087524 -0.00167539 0)
(-0.0868719 -0.00192841 0)
(-0.0861339 -0.00219153 0)
(-0.085307 -0.0024643 0)
(-0.0843881 -0.00274612 0)
(-0.0833747 -0.00303628 0)
(-0.0822642 -0.00333389 0)
(-0.0810546 -0.00363795 0)
(-0.0797441 -0.00394728 0)
(-0.0783315 -0.00426056 0)
(-0.0768157 -0.00457631 0)
(-0.0751964 -0.00489289 0)
(-0.0734739 -0.00520849 0)
(-0.0716489 -0.00552118 0)
(-0.0697228 -0.00582886 0)
(-0.0676977 -0.00612931 0)
(-0.0655766 -0.00642019 0)
(-0.0633631 -0.00669904 0)
(-0.0610615 -0.00696332 0)
(-0.0586771 -0.00721041 0)
(-0.056216 -0.00743767 0)
(-0.0536851 -0.00764239 0)
(-0.0510922 -0.00782189 0)
(-0.0484459 -0.00797352 0)
(-0.0457557 -0.00809467 0)
(-0.0430318 -0.00818283 0)
(-0.0402853 -0.0082356 0)
(-0.0375279 -0.00825073 0)
(-0.0347719 -0.00822615 0)
(-0.0320305 -0.00816001 0)
(-0.0293171 -0.00805068 0)
(-0.0266457 -0.00789682 0)
(-0.0240306 -0.0076974 0)
(-0.0214863 -0.00745172 0)
(-0.0190273 -0.00715947 0)
(-0.0166682 -0.0068208 0)
(-0.0144232 -0.00643633 0)
(-0.0123062 -0.0060073 0)
(-0.0103303 -0.00553566 0)
(-0.00850781 -0.00502425 0)
(-0.00684981 -0.00447703 0)
(-0.00536576 -0.00389943 0)
(-0.00406319 -0.00329886 0)
(-0.00294712 -0.00268531 0)
(-0.00201959 -0.00207237 0)
(-0.00127908 -0.00147844 0)
(-0.000719598 -0.000928514 0)
(-0.000329859 -0.000456109 0)
(-9.66296e-05 -0.000106012 0)
(-8.79363e-06 5.74658e-05 0)
(-6.09397e-06 -5.12243e-05 0)
(-6.39846e-05 4.65879e-05 0)
(-0.000214936 0.000281166 0)
(-0.00046426 0.000605147 0)
(-0.000818885 0.000987132 0)
(-0.00128444 0.0014029 0)
(-0.00186343 0.00183358 0)
(-0.00255569 0.00226482 0)
(-0.003359 0.00268594 0)
(-0.00426951 0.00308917 0)
(-0.00528199 0.00346904 0)
(-0.00639025 0.00382189 0)
(-0.0075874 0.00414551 0)
(-0.00886606 0.00443876 0)
(-0.0102186 0.00470137 0)
(-0.0116375 0.00493375 0)
(-0.0131149 0.00513674 0)
(-0.0146435 0.00531158 0)
(-0.0162162 0.00545974 0)
(-0.0178261 0.00558286 0)
(-0.0194667 0.0056827 0)
(-0.021132 0.00576103 0)
(-0.0228165 0.00581967 0)
(-0.0245148 0.00586037 0)
(-0.0262223 0.00588485 0)
(-0.0279347 0.00589475 0)
(-0.029648 0.00589162 0)
(-0.0313587 0.00587694 0)
(-0.0330638 0.00585205 0)
(-0.0347603 0.00581821 0)
(-0.0364458 0.00577658 0)
(-0.0381182 0.00572822 0)
(-0.0397755 0.00567407 0)
(-0.0414162 0.00561501 0)
(-0.0430389 0.00555179 0)
(-0.0446423 0.00548512 0)
(-0.0462256 0.00541561 0)
(-0.0477877 0.0053438 0)
(-0.0493281 0.00527017 0)
(-0.0508463 0.00519514 0)
(-0.0523418 0.00511909 0)
(-0.0538143 0.00504232 0)
(-0.0552635 0.00496513 0)
(-0.0566894 0.00488776 0)
(-0.0580919 0.00481041 0)
(-0.0594709 0.00473328 0)
(-0.0608266 0.00465651 0)
(-0.0621589 0.00458025 0)
(-0.0634682 0.00450461 0)
(-0.0647545 0.0044297 0)
(-0.066018 0.0043556 0)
(-0.0672591 0.00428239 0)
(-0.0684779 0.00421012 0)
(-0.0696747 0.00413886 0)
(-0.0708499 0.00406864 0)
(-0.0720037 0.0039995 0)
(-0.0731364 0.00393146 0)
(-0.0742484 0.00386454 0)
(-0.0753401 0.00379876 0)
(-0.0764117 0.00373411 0)
(-0.0774635 0.00367059 0)
(-0.0784959 0.00360817 0)
(-0.0795093 0.00354685 0)
(-0.0805038 0.00348657 0)
(-0.0814799 0.0034273 0)
(-0.0824378 0.00336899 0)
(-0.0833778 0.00331156 0)
(-0.0843 0.00325494 0)
(-0.0852048 0.00319904 0)
(-0.0860923 0.00314375 0)
(-0.0869627 0.00308897 0)
(-0.087816 0.00303456 0)
(-0.0886525 0.00298036 0)
(-0.089472 0.00292621 0)
(-0.0902746 0.00287194 0)
(-0.0910602 0.00281733 0)
(-0.0918286 0.00276217 0)
(-0.0925798 0.00270622 0)
(-0.0933133 0.00264921 0)
(-0.0940289 0.00259085 0)
(-0.094726 0.00253085 0)
(-0.0954043 0.00246887 0)
(-0.0960631 0.00240456 0)
(-0.0967016 0.00233753 0)
(-0.0973191 0.0022674 0)
(-0.0979145 0.00219373 0)
(-0.0984869 0.00211608 0)
(-0.0990351 0.00203397 0)
(-0.0995577 0.0019469 0)
(-0.100053 0.00185436 0)
(-0.10052 0.00175581 0)
(-0.100957 0.00165069 0)
(-0.101361 0.00153843 0)
(-0.101731 0.00141845 0)
(-0.102065 0.00129014 0)
(-0.10236 0.0011529 0)
(-0.102613 0.00100614 0)
(-0.102822 0.000849234 0)
(-0.102985 0.000681603 0)
(-0.103097 0.000502662 0)
(-0.103157 0.000311854 0)
(-0.10316 0.000108652 0)
(-0.103104 -0.000107437 0)
(-0.102984 -0.000336854 0)
(-0.102797 -0.000579987 0)
(-0.10254 -0.000837158 0)
(-0.102209 -0.00110861 0)
(-0.1018 -0.00139449 0)
(-0.101308 -0.00169486 0)
(-0.100731 -0.00200965 0)
(-0.100065 -0.00233868 0)
(-0.099305 -0.00268162 0)
(-0.0984485 -0.003038 0)
(-0.0974918 -0.00340719 0)
(-0.0964318 -0.00378839 0)
(-0.0952654 -0.0041806 0)
(-0.0939901 -0.00458265 0)
(-0.0926035 -0.00499316 0)
(-0.0911038 -0.00541057 0)
(-0.0894894 -0.00583307 0)
(-0.0877594 -0.00625868 0)
(-0.0859136 -0.00668519 0)
(-0.083952 -0.00711019 0)
(-0.0818757 -0.00753107 0)
(-0.0796863 -0.00794502 0)