/*--------------------------------*- C++ -*----------------------------------*\
  =========                 |
  \\      /  F ield         | OpenFOAM: The Open Source CFD Toolbox
   \\    /   O peration     | Website:  https://openfoam.org
    \\  /    A nd           | Version:  7
     \\/     M anipulation  |
\*---------------------------------------------------------------------------*/
FoamFile
{
    version     2.0;
    format      ascii;
    class       volScalarField;
    location    "0.15";
    object      p;
}
// * * * * * * * * * * * * * * * * * * * * * * * * * * * * * * * * * * * * * //

dimensions      [0 2 -2 0 0 0 0];

internalField   nonuniform List<scalar> 
12800
(
1.14837e-06
0.00018392
-0.000900824
-0.00334438
-0.00690152
-0.0113254
-0.0163827
-0.0218601
-0.027571
-0.0333553
-0.0390768
-0.04462
-0.0498878
-0.0547986
-0.0592845
-0.0632895
-0.0667677
-0.0696825
-0.0720052
-0.0737138
-0.0747927
-0.0752312
-0.0750238
-0.0741687
-0.0726679
-0.0705262
-0.0677515
-0.0643535
-0.0603444
-0.0557375
-0.0505479
-0.0447914
-0.0384852
-0.0316468
-0.0242943
-0.0164463
-0.00812137
0.000661694
0.00988416
0.0195274
0.0295732
0.0400033
0.0508001
0.0619464
0.0734253
0.0852206
0.0973166
0.109698
0.12235
0.13526
0.148412
0.161796
0.175398
0.189208
0.203214
0.217406
0.231774
0.24631
0.261004
0.275849
0.290837
0.305962
0.321216
0.336594
0.35209
0.3677
0.383417
0.399239
0.41516
0.431177
0.447288
0.463488
0.479774
0.496144
0.512596
0.529126
0.545733
0.562415
0.579168
0.595992
0.612884
0.629841
0.646862
0.663944
0.681085
0.698281
0.71553
0.732829
0.750174
0.767561
0.784986
0.802445
0.819932
0.837441
0.854967
0.872503
0.890041
0.907574
0.925092
0.942587
0.960048
0.977464
0.994823
1.01211
1.02932
1.04643
1.06342
1.08029
1.097
1.11355
1.12992
1.14608
1.16201
1.17769
1.1931
1.20821
1.223
1.23743
1.2515
1.26516
1.27839
1.29116
1.30344
1.31521
1.32643
1.33709
1.34714
1.35656
1.36532
1.37341
1.38079
1.38744
1.39335
1.39849
1.40284
1.4064
1.40915
1.41109
1.41222
1.41254
1.41206
1.41079
1.40875
1.40597
1.4025
1.39837
1.39364
1.38837
1.38266
1.3766
1.37029
1.36387
1.3575
1.35137
1.34568
1.34068
1.33663
1.33382
1.33254
1.33271
-0.000179881
3.16945e-06
-0.000999555
-0.00313127
-0.0061683
-0.00993529
-0.0142584
-0.018967
-0.0239046
-0.0289321
-0.0339272
-0.038784
-0.0434113
-0.0477312
-0.0516778
-0.0551958
-0.0582392
-0.0607704
-0.0627595
-0.0641829
-0.0650228
-0.0652666
-0.0649065
-0.0639383
-0.0623615
-0.0601787
-0.0573952
-0.0540186
-0.0500583
-0.0455257
-0.0404334
-0.0347954
-0.0286264
-0.0219421
-0.0147588
-0.00709322
0.00103779
0.00961702
0.0186273
0.0280514
0.0378723
0.0480732
0.0586375
0.069549
0.0807918
0.0923507
0.10421
0.116357
0.128776
0.141454
0.154378
0.167537
0.180918
0.194509
0.208302
0.222284
0.236447
0.250783
0.265281
0.279934
0.294736
0.309677
0.324754
0.339958
0.355284
0.370727
0.386282
0.401945
0.417711
0.433575
0.449535
0.465587
0.481727
0.497953
0.514261
0.530649
0.547114
0.563653
0.580265
0.596945
0.613693
0.630505
0.647378
0.66431
0.681297
0.698338
0.715427
0.732562
0.749739
0.766953
0.7842
0.801475
0.818772
0.836086
0.85341
0.870736
0.888059
0.905368
0.922655
0.939911
0.957126
0.974287
0.991384
1.0084
1.02533
1.04215
1.05886
1.07542
1.09183
1.10807
1.12412
1.13996
1.15556
1.17091
1.18599
1.20076
1.21521
1.22932
1.24305
1.25638
1.26929
1.28175
1.29373
1.3052
1.31614
1.32653
1.33633
1.34552
1.35408
1.36199
1.36921
1.37574
1.38156
1.38664
1.39097
1.39456
1.39738
1.39943
1.40072
1.40125
1.40104
1.40009
1.39843
1.3961
1.39312
1.38955
1.38544
1.38085
1.37588
1.3706
1.36512
1.35958
1.3541
1.34884
1.344
1.33975
1.33631
1.33388
1.3327
1.33287
0.000904222
0.00100703
3.47639e-06
-0.00198026
-0.00472912
-0.00810102
-0.0119558
-0.0161516
-0.0205551
-0.025045
-0.0295124
-0.0338608
-0.0380059
-0.0418746
-0.045404
-0.0485409
-0.0512402
-0.0534648
-0.0551844
-0.0563746
-0.0570168
-0.0570973
-0.0566064
-0.0555388
-0.0538922
-0.0516676
-0.0488683
-0.0455003
-0.0415712
-0.0370907
-0.0320697
-0.0265205
-0.0204562
-0.013891
-0.00683952
0.00068295
0.00866079
0.0170782
0.0259191
0.0351675
0.0448076
0.0548234
0.0651994
0.0759202
0.0869707
0.0983363
0.110003
0.121956
0.134183
0.146671
0.159406
0.172378
0.185575
0.198985
0.212599
0.226407
0.240398
0.254565
0.268898
0.28339
0.298034
0.312821
0.327746
0.342803
0.357984
0.373286
0.388703
0.404229
0.419861
0.435594
0.451425
0.467349
0.483363
0.499464
0.515648
0.531913
0.548255
0.564672
0.58116
0.597717
0.614339
0.631025
0.647771
0.664573
0.681429
0.698334
0.715287
0.732281
0.749313
0.76638
0.783474
0.800593
0.817728
0.834876
0.852028
0.869178
0.886317
0.903438
0.920531
0.937587
0.954595
0.971545
0.988423
1.00522
1.02192
1.0385
1.05496
1.07128
1.08744
1.10342
1.11921
1.13479
1.15012
1.16521
1.18001
1.19452
1.2087
1.22254
1.236
1.24907
1.26172
1.27393
1.28567
1.29691
1.30763
1.31781
1.32742
1.33643
1.34483
1.3526
1.35971
1.36615
1.3719
1.37695
1.38128
1.38489
1.38777
1.38993
1.39136
1.39206
1.39207
1.39138
1.39003
1.38804
1.38545
1.38232
1.37868
1.37462
1.37019
1.36549
1.36062
1.35569
1.35082
1.34616
1.34185
1.33807
1.33496
1.3327
1.33153
1.33159
0.00334941
0.00314218
0.0019858
-3.23222e-06
-0.00264559
-0.00581773
-0.00939984
-0.0132712
-0.0173172
-0.0214316
-0.0255178
-0.0294891
-0.0332684
-0.0367881
-0.0399895
-0.0428221
-0.045243
-0.047216
-0.0487115
-0.0497054
-0.0501787
-0.0501172
-0.0495107
-0.0483526
-0.0466397
-0.0443717
-0.041551
-0.0381819
-0.0342711
-0.0298266
-0.0248581
-0.0193766
-0.0133939
-0.00692294
2.29123e-05
0.00742955
0.0152825
0.023567
0.0322681
0.0413708
0.05086
0.0607208
0.0709384
0.0814982
0.0923859
0.103587
0.115089
0.126877
0.138939
0.151263
0.163836
0.176647
0.189684
0.202937
0.216395
0.23005
0.243891
0.25791
0.272098
0.286448
0.300952
0.315603
0.330394
0.345319
0.360372
0.375547
0.390839
0.406244
0.421756
0.437371
0.453084
0.468893
0.484793
0.500781
0.516853
0.533006
0.549236
0.565541
0.581917
0.598362
0.614871
0.631442
0.648072
0.664757
0.681493
0.698277
0.715105
0.731972
0.748875
0.765808
0.782767
0.799745
0.816737
0.833736
0.850736
0.867729
0.884707
0.901662
0.918585
0.935465
0.952293
0.969057
0.985746
1.00235
1.01885
1.03523
1.05148
1.06759
1.08353
1.0993
1.11486
1.13021
1.14533
1.16018
1.17476
1.18904
1.203
1.21661
1.22986
1.24271
1.25515
1.26716
1.27869
1.28975
1.30029
1.3103
1.31975
1.32863
1.33691
1.34457
1.3516
1.35797
1.36368
1.3687
1.37304
1.37668
1.37963
1.38187
1.38342
1.38428
1.38447
1.384
1.38289
1.38119
1.37892
1.37613
1.37286
1.36919
1.36518
1.36092
1.35648
1.35198
1.34752
1.34323
1.33924
1.33568
1.3327
1.33044
1.32909
1.32879
0.00691876
0.00619124
0.00473826
0.00262723
-2.57944e-05
-0.00311479
-0.00653679
-0.0101901
-0.0139771
-0.0178057
-0.0215913
-0.0252568
-0.0287328
-0.0319578
-0.0348777
-0.0374455
-0.0396208
-0.0413694
-0.0426627
-0.0434774
-0.0437947
-0.0436003
-0.0428837
-0.0416378
-0.0398587
-0.0375452
-0.0346988
-0.0313227
-0.0274226
-0.0230053
-0.0180795
-0.0126549
-0.00674236
-0.000353483
0.00649929
0.013803
0.0215441
0.029709
0.0382835
0.0472536
0.0566051
0.0663238
0.0763958
0.0868071
0.097544
0.108593
0.119941
0.131576
0.143484
0.155654
0.168074
0.180732
0.193619
0.206723
0.220034
0.233544
0.247242
0.26112
0.27517
0.289383
0.303753
0.318273
0.332934
0.347733
0.362661
0.377713
0.392885
0.408171
0.423566
0.439066
0.454666
0.470362
0.48615
0.502027
0.517989
0.534032
0.550153
0.566348
0.582614
0.598948
0.615346
0.631804
0.64832
0.66489
0.681509
0.698174
0.714881
0.731625
0.748401
0.765205
0.782031
0.798873
0.815726
0.832582
0.849435
0.866277
0.883101
0.899897
0.916657
0.93337
0.950027
0.966616
0.983125
0.999542
1.01585
1.03205
1.0481
1.06401
1.07976
1.09532
1.11068
1.12582
1.14073
1.15538
1.16975
1.18382
1.19757
1.21098
1.22403
1.23669
1.24894
1.26075
1.27212
1.283
1.29339
1.30325
1.31257
1.32133
1.3295
1.33707
1.34402
1.35034
1.35602
1.36103
1.36538
1.36906
1.37207
1.3744
1.37606
1.37706
1.37742
1.37715
1.37627
1.37481
1.37281
1.37032
1.36737
1.36404
1.36037
1.35645
1.35236
1.34818
1.34402
1.33998
1.33617
1.33271
1.32973
1.32733
1.32564
1.32474
0.0113763
0.00998687
0.00812521
0.00579351
0.00303026
-7.51641e-05
-0.00343426
-0.00696263
-0.0105781
-0.0142021
-0.017761
-0.0211873
-0.0244192
-0.0274017
-0.0300854
-0.0324274
-0.0343902
-0.0359421
-0.0370559
-0.0377095
-0.0378849
-0.0375679
-0.0367483
-0.0354187
-0.0335748
-0.0312148
-0.0283395
-0.0249515
-0.0210555
-0.0166575
-0.0117653
-0.00638753
-0.000534079
0.00578432
0.0125562
0.0197696
0.0274119
0.0354702
0.0439315
0.0527823
0.0620094
0.0715993
0.0815386
0.0918142
0.102413
0.113322
0.124529
0.136021
0.147786
0.159813
0.172091
0.184608
0.197353
0.210318
0.223491
0.236864
0.250427
0.264171
0.27809
0.292174
0.306417
0.320811
0.335349
0.350026
0.364835
0.37977
0.394825
0.409997
0.425279
0.440667
0.456157
0.471744
0.487424
0.503193
0.519048
0.534984
0.550998
0.567086
0.583245
0.599471
0.61576
0.632109
0.648515
0.664972
0.681478
0.698027
0.714616
0.73124
0.747894
0.764573
0.781272
0.797983
0.814702
0.831422
0.848135
0.864833
0.88151
0.898155
0.91476
0.931316
0.947811
0.964234
0.980575
0.99682
1.01296
1.02897
1.04485
1.06057
1.07613
1.09151
1.10668
1.12163
1.13635
1.15081
1.16499
1.17887
1.19244
1.20566
1.21853
1.23102
1.2431
1.25475
1.26596
1.2767
1.28694
1.29668
1.30588
1.31454
1.32262
1.33012
1.33702
1.3433
1.34895
1.35396
1.35833
1.36205
1.36512
1.36753
1.3693
1.37043
1.37094
1.37084
1.37016
1.36892
1.36716
1.36491
1.36223
1.35917
1.35577
1.35212
1.34829
1.34434
1.34037
1.33648
1.33275
1.32928
1.32617
1.32352
1.32138
1.31972
0.016501
0.0143644
0.0120135
0.00938174
0.0064251
0.00321814
-0.000162823
-0.00364884
-0.00717179
-0.0106653
-0.0140662
-0.017316
-0.0203604
-0.0231506
-0.0256427
-0.0277976
-0.0295813
-0.0309646
-0.0319225
-0.0324341
-0.0324826
-0.0320547
-0.0311401
-0.0297318
-0.0278254
-0.0254189
-0.0225125
-0.0191084
-0.0152106
-0.0108246
-0.00595723
-0.000616487
0.00518857
0.011448
0.0181513
0.025287
0.0328436
0.0408088
0.0491704
0.0579158
0.0670322
0.076507
0.0863274
0.0964808
0.106955
0.117737
0.128815
0.140177
0.151812
0.163708
0.175855
0.188241
0.200856
0.213691
0.226736
0.239981
0.253418
0.267038
0.280834
0.294797
0.308919
0.323195
0.337617
0.352179
0.366874
0.381697
0.396642
0.411705
0.426879
0.44216
0.457544
0.473026
0.488602
0.504268
0.520019
0.535852
0.551763
0.567748
0.583803
0.599925
0.61611
0.632354
0.648652
0.665002
0.681398
0.697836
0.714312
0.730821
0.747358
0.763918
0.780494
0.797082
0.813673
0.830263
0.846843
0.863406
0.879944
0.896447
0.912908
0.929315
0.94566
0.96193
0.978114
0.9942
1.01017
1.02603
1.04174
1.0573
1.07268
1.08789
1.10289
1.11767
1.13221
1.1465
1.16051
1.17423
1.18763
1.2007
1.21341
1.22574
1.23767
1.24919
1.26026
1.27087
1.281
1.29063
1.29974
1.30831
1.31632
1.32376
1.33061
1.33687
1.34251
1.34753
1.35192
1.35568
1.3588
1.3613
1.36316
1.36441
1.36506
1.36511
1.3646
1.36354
1.36198
1.35994
1.35747
1.35462
1.35143
1.34798
1.34432
1.34052
1.33666
1.33282
1.32906
1.32548
1.32216
1.31918
1.31648
1.31399
0.0220914
0.0191621
0.0162685
0.0132771
0.010062
0.00668532
0.00321311
-0.000299371
-0.00379659
-0.00722315
-0.0105257
-0.013654
-0.0165613
-0.0192046
-0.0215452
-0.0235484
-0.0251839
-0.0264249
-0.0272489
-0.0276368
-0.027573
-0.0270452
-0.0260438
-0.0245622
-0.022596
-0.0201434
-0.0172043
-0.0137806
-0.00987595
-0.00549528
-0.0006449
0.00466777
0.0104343
0.0166455
0.0232914
0.0303615
0.0378447
0.0457296
0.0540044
0.0626573
0.0716763
0.0810491
0.0907636
0.100808
0.11117
0.121838
0.132799
0.144044
0.15556
0.167337
0.179364
0.19163
0.204126
0.216841
0.229767
0.242894
0.256214
0.269719
0.283399
0.297248
0.311259
0.325423
0.339735
0.354188
0.368776
0.383493
0.398334
0.413293
0.428364
0.443544
0.458826
0.474208
0.489684
0.50525
0.520902
0.536636
0.552448
0.568334
0.584289
0.600311
0.616395
0.632537
0.648733
0.664978
0.681269
0.697601
0.713969
0.730368
0.746793
0.763239
0.779699
0.796168
0.81264
0.829106
0.845561
0.861996
0.878403
0.894774
0.9111
0.927369
0.943574
0.959701
0.975741
0.99168
1.00751
1.02321
1.03877
1.05417
1.06941
1.08446
1.0993
1.11393
1.12832
1.14246
1.15632
1.16989
1.18315
1.19607
1.20864
1.22084
1.23265
1.24404
1.255
1.26551
1.27554
1.28508
1.29411
1.30261
1.31057
1.31797
1.32479
1.33102
1.33666
1.3417
1.34612
1.34992
1.3531
1.35567
1.35763
1.35898
1.35974
1.35993
1.35956
1.35866
1.35726
1.35539
1.35308
1.35039
1.34736
1.34404
1.34049
1.33676
1.33293
1.32906
1.32521
1.32144
1.31783
1.31445
1.31115
1.30777
0.0279725
0.0242317
0.0207631
0.0173697
0.0138473
0.0102475
0.00662844
0.00303315
-0.000493992
-0.00390743
-0.00716271
-0.0102174
-0.0130314
-0.0155679
-0.0177931
-0.0196767
-0.0211918
-0.0223147
-0.0230253
-0.0233064
-0.0231441
-0.022527
-0.0214467
-0.0198969
-0.0178739
-0.0153759
-0.0124028
-0.00895659
-0.00504048
-0.000659204
0.00418135
0.00947421
0.0152115
0.0213844
0.0279836
0.0349992
0.0424207
0.0502371
0.0584375
0.0670105
0.0759444
0.0852279
0.0948492
0.104797
0.115059
0.125625
0.136482
0.147621
0.15903
0.170699
0.182616
0.194773
0.20716
0.219766
0.232582
0.245601
0.258813
0.272209
0.285783
0.299527
0.313432
0.327493
0.341702
0.356053
0.37054
0.385157
0.399898
0.414758
0.429732
0.444815
0.460002
0.475288
0.490668
0.506139
0.521696
0.537335
0.553052
0.568842
0.584702
0.600628
0.616615
0.632659
0.648757
0.664903
0.681093
0.697323
0.713587
0.729881
0.7462
0.762537
0.778887
0.795244
0.811601
0.827952
0.844289
0.860604
0.876889
0.893136
0.909335
0.925476
0.941551
0.957547
0.973453
0.989258
1.00495
1.02051
1.03593
1.0512
1.0663
1.08121
1.09592
1.11041
1.12467
1.13867
1.1524
1.16584
1.17897
1.19177
1.20422
1.21631
1.22801
1.2393
1.25016
1.26058
1.27054
1.28001
1.28898
1.29743
1.30534
1.31271
1.31952
1.32575
1.33139
1.33644
1.3409
1.34475
1.34799
1.35063
1.35267
1.35412
1.35498
1.35529
1.35504
1.35426
1.35299
1.35125
1.34907
1.34649
1.34356
1.34032
1.33682
1.33311
1.32924
1.32528
1.32126
1.31725
1.3133
1.30948
1.30554
1.30126
0.033993
0.0294406
0.0253807
0.0215572
0.0176917
0.0138281
0.0100181
0.00629436
0.00269133
-0.00075417
-0.00400563
-0.00702779
-0.00978705
-0.012252
-0.0143939
-0.0161864
-0.0176064
-0.0186332
-0.0192491
-0.0194391
-0.0191909
-0.0184946
-0.0173427
-0.0157298
-0.0136528
-0.0111101
-0.00810206
-0.00463055
-0.000698812
0.00368861
0.00852605
0.0138069
0.0195235
0.0256676
0.0322303
0.0392021
0.0465729
0.0543325
0.0624703
0.0709752
0.0798364
0.0890426
0.0985828
0.108446
0.118621
0.129096
0.139861
0.150906
0.162219
0.17379
0.18561
0.197668
0.209955
0.222461
0.235178
0.248097
0.26121
0.274508
0.287983
0.301628
0.315437
0.3294
0.343514
0.357769
0.372162
0.386685
0.401333
0.4161
0.430982
0.445973
0.461068
0.476263
0.491552
0.506933
0.522399
0.537947
0.553573
0.569273
0.585041
0.600875
0.616769
0.63272
0.648723
0.664774
0.680868
0.697
0.713166
0.72936
0.745577
0.761812
0.778058
0.794309
0.810558
0.8268
0.843026
0.859228
0.8754
0.891531
0.907613
0.923636
0.939591
0.955466
0.97125
0.986932
1.0025
1.01794
1.03324
1.04838
1.06335
1.07814
1.09273
1.1071
1.12123
1.13512
1.14873
1.16206
1.17509
1.18778
1.20014
1.21213
1.22374
1.23495
1.24574
1.25609
1.26598
1.2754
1.28432
1.29274
1.30063
1.30798
1.31478
1.32102
1.32668
1.33176
1.33625
1.34014
1.34344
1.34615
1.34827
1.3498
1.35076
1.35116
1.35101
1.35034
1.34917
1.34752
1.34543
1.34293
1.34006
1.33685
1.33335
1.3296
1.32565
1.32154
1.31732
1.31301
1.30868
1.30439
1.2998
1.29462
0.0400246
0.0346717
0.0300154
0.0257448
0.0215115
0.0173538
0.0133188
0.00943013
0.00571376
0.00219875
-0.0010855
-0.00411023
-0.00684775
-0.0092719
-0.0113584
-0.0130853
-0.0144326
-0.0153828
-0.0159209
-0.016034
-0.0157115
-0.014945
-0.0137283
-0.012057
-0.00992846
-0.00734185
-0.00429781
-0.000798435
0.00315293
0.00755176
0.0123925
0.0176687
0.023373
0.0294974
0.0360333
0.0429715
0.0503025
0.0580164
0.0661028
0.0745514
0.0833515
0.0924924
0.101963
0.111754
0.121853
0.13225
0.142934
0.153896
0.165124
0.176609
0.188341
0.200311
0.212508
0.224925
0.237552
0.250381
0.263403
0.27661
0.289995
0.30355
0.317269
0.331143
0.345167
0.359335
0.373639
0.388074
0.402634
0.417315
0.43211
0.447014
0.462023
0.477132
0.492335
0.50763
0.52301
0.538472
0.554011
0.569624
0.585305
0.601051
0.616857
0.632719
0.648632
0.664592
0.680594
0.696634
0.712706
0.728805
0.744926
0.761064
0.777211
0.793362
0.809511
0.82565
0.841772
0.85787
0.873935
0.889959
0.905933
0.921847
0.937692
0.953456
0.96913
0.9847
1.00016
1.01548
1.03067
1.0457
1.06057
1.07525
1.08973
1.10399
1.11802
1.13181
1.14533
1.15856
1.17149
1.18411
1.19638
1.20829
1.21983
1.23098
1.24171
1.25201
1.26186
1.27124
1.28013
1.28853
1.29641
1.30376
1.31056
1.31681
1.3225
1.32761
1.33214
1.33609
1.33945
1.34222
1.34441
1.34602
1.34706
1.34755
1.34748
1.3469
1.3458
1.34422
1.34219
1.33973
1.33687
1.33366
1.33012
1.32629
1.32222
1.31792
1.31345
1.30882
1.30408
1.2993
1.29406
1.28801
0.0459566
0.0398217
0.034572
0.0298456
0.0252285
0.0207551
0.0164693
0.0123874
0.00852768
0.0049126
0.00156521
-0.00149157
-0.00423542
-0.00664505
-0.00870056
-0.0103837
-0.0116781
-0.0125691
-0.0130443
-0.0130929
-0.0127064
-0.0118778
-0.0106023
-0.00887648
-0.00669861
-0.00406849
-0.000987287
0.00254258
0.00651754
0.0109329
0.0157832
0.0210619
0.0267619
0.0328754
0.0393939
0.0463086
0.0536102
0.0612891
0.0693354
0.0777389
0.0864894
0.0955767
0.10499
0.114719
0.124754
0.135084
0.145699
0.156589
0.167743
0.179153
0.190808
0.202699
0.214818
0.227155
0.239701
0.252448
0.265389
0.278514
0.291817
0.30529
0.318927
0.332719
0.346661
0.360746
0.374969
0.389322
0.403802
0.418401
0.433114
0.447938
0.462866
0.477893
0.493016
0.508229
0.523527
0.538908
0.554365
0.569895
0.585493
0.601156
0.616878
0.632655
0.648483
0.664356
0.680272
0.696224
0.712207
0.728216
0.744247
0.760292
0.776347
0.792404
0.808458
0.824502
0.840527
0.856528
0.872495
0.88842
0.904294
0.920109
0.935853
0.951517
0.96709
0.98256
0.997916
1.01314
1.02823
1.04317
1.05794
1.07252
1.08691
1.10108
1.11503
1.12873
1.14217
1.15532
1.16818
1.18073
1.19293
1.20479
1.21628
1.22738
1.23806
1.24833
1.25815
1.26751
1.27639
1.28479
1.29267
1.30003
1.30685
1.31313
1.31885
1.324
1.32858
1.33258
1.336
1.33883
1.34109
1.34277
1.34389
1.34444
1.34445
1.34392
1.34288
1.34135
1.33935
1.3369
1.33404
1.33078
1.32717
1.32323
1.31899
1.31448
1.30973
1.30475
1.2996
1.29431
1.28842
1.28153
0.0516938
0.0447995
0.0389651
0.0337805
0.0287704
0.0239667
0.0194115
0.0151145
0.0110879
0.00734827
0.00391298
0.000799759
-0.00197393
-0.00439125
-0.00643638
-0.00809473
-0.00935311
-0.0101999
-0.010625
-0.0106201
-0.0101784
-0.00929468
-0.00796537
-0.00618828
-0.00396265
-0.00128903
0.00183081
0.00539398
0.00939657
0.0138337
0.0186997
0.0239881
0.0296917
0.0358029
0.0423132
0.0492142
0.0564966
0.0641511
0.072168
0.0805376
0.0892499
0.0982947
0.107662
0.117342
0.127324
0.137598
0.148154
0.158983
0.170075
0.18142
0.193008
0.204832
0.216881
0.229147
0.241622
0.254298
0.267165
0.280217
0.293447
0.306846
0.320408
0.334125
0.347993
0.362003
0.37615
0.390429
0.404832
0.419356
0.433994
0.448742
0.463594
0.478545
0.493592
0.508728
0.52395
0.539253
0.554633
0.570085
0.585605
0.601188
0.616831
0.632528
0.648275
0.664067
0.6799
0.695769
0.711668
0.727593
0.743538
0.759497
0.775465
0.791434
0.8074
0.823354
0.83929
0.855201
0.871077
0.886912
0.902695
0.918418
0.934071
0.949645
0.965127
0.980508
0.995775
1.01092
1.02592
1.04077
1.05545
1.06996
1.08427
1.09837
1.11224
1.12587
1.13924
1.15234
1.16514
1.17763
1.1898
1.20161
1.21306
1.22413
1.23479
1.24504
1.25485
1.26421
1.27309
1.28149
1.28939
1.29677
1.30363
1.30994
1.3157
1.3209
1.32553
1.32959
1.33307
1.33597
1.3383
1.34005
1.34122
1.34184
1.3419
1.34143
1.34043
1.33892
1.33693
1.33447
1.33157
1.32825
1.32453
1.32045
1.31602
1.31127
1.30622
1.30088
1.2953
1.28952
1.283
1.27529
0.0571533
0.0495248
0.0431178
0.0374773
0.0320703
0.0269275
0.0220898
0.0175618
0.0133503
0.00946674
0.00592373
0.00273426
-8.85733e-05
-0.00253203
-0.00458404
-0.00623343
-0.00747012
-0.00828525
-0.00867125
-0.00862192
-0.0081324
-0.0071992
-0.0058201
-0.00399417
-0.00172167
0.000995994
0.00415636
0.00775597
0.0117905
0.0162547
0.0211427
0.0264479
0.032163
0.0382804
0.0447918
0.0516886
0.0589619
0.0666024
0.0746008
0.0829474
0.0916325
0.100646
0.109979
0.11962
0.12956
0.13979
0.150299
0.161078
0.172118
0.183408
0.194941
0.206706
0.218696
0.230902
0.243315
0.255927
0.268731
0.281719
0.294882
0.308215
0.32171
0.335361
0.34916
0.363103
0.377181
0.391391
0.405726
0.42018
0.434748
0.449426
0.464207
0.479088
0.494063
0.509128
0.524278
0.539509
0.554815
0.570194
0.58564
0.601149
0.616716
0.632337
0.648008
0.663723
0.679478
0.695269
0.711089
0.726934
0.742799
0.758678
0.774564
0.790452
0.806335
0.822207
0.83806
0.853888
0.869681
0.885432
0.901133
0.916774
0.932345
0.947838
0.96324
0.978541
0.99373
1.0088
1.02372
1.0385
1.05312
1.06755
1.0818
1.09584
1.10965
1.12323
1.13655
1.1496
1.16236
1.17482
1.18695
1.19874
1.21017
1.22122
1.23188
1.24213
1.25194
1.26131
1.27021
1.27864
1.28656
1.29398
1.30088
1.30724
1.31305
1.31831
1.323
1.32712
1.33067
1.33363
1.33602
1.33784
1.33907
1.33974
1.33986
1.33942
1.33844
1.33695
1.33494
1.33245
1.32949
1.32608
1.32225
1.318
1.31337
1.30837
1.303
1.29729
1.29128
1.285
1.27787
1.26937
0.0622628
0.0539263
0.0469612
0.0408703
0.0350666
0.0295801
0.0244516
0.0196814
0.0152716
0.0112295
0.00756324
0.0042818
0.00139428
-0.00109026
-0.00316323
-0.00481667
-0.00604341
-0.00683724
-0.00719301
-0.00710663
-0.00657518
-0.00559682
-0.00417081
-0.00229748
2.18043e-05
0.00278473
0.00598804
0.00962767
0.0136987
0.0181956
0.0231121
0.0284413
0.0341759
0.0403082
0.0468297
0.053732
0.0610063
0.0686433
0.0766337
0.0849682
0.0936371
0.102631
0.11194
0.121554
0.131464
0.14166
0.152133
0.162873
0.173871
0.185118
0.196604
0.208322
0.220263
0.232417
0.244778
0.257336
0.270085
0.283016
0.296123
0.309397
0.322833
0.336424
0.350163
0.364044
0.378061
0.392209
0.40648
0.420871
0.435375
0.449988
0.464705
0.47952
0.494429
0.509427
0.52451
0.539673
0.554911
0.570221
0.585597
0.601036
0.616533
0.632083
0.647681
0.663324
0.679007
0.694724
0.71047
0.726241
0.74203
0.757834
0.773644
0.789456
0.805263
0.821059
0.836836
0.852587
0.868305
0.883981
0.899607
0.915174
0.930672
0.946092
0.961424
0.976657
0.991778
1.00678
1.02164
1.03636
1.05092
1.0653
1.07949
1.09349
1.10726
1.12079
1.13408
1.1471
1.15984
1.17227
1.18439
1.19617
1.2076
1.21865
1.22932
1.23958
1.24942
1.25881
1.26775
1.27621
1.28418
1.29165
1.29859
1.30501
1.31089
1.31621
1.32097
1.32516
1.32877
1.33181
1.33427
1.33614
1.33744
1.33816
1.33831
1.3379
1.33694
1.33544
1.33341
1.33087
1.32784
1.32433
1.32035
1.31593
1.31108
1.3058
1.30012
1.29403
1.28759
1.28083
1.2731
1.26384
0.0669589
0.0579402
0.0504331
0.0438998
0.0377023
0.0318711
0.0264473
0.0214275
0.0168101
0.0125985
0.00879737
0.00541186
0.00244757
-8.98318e-05
-0.00219491
-0.00386268
-0.00508876
-0.00586944
-0.00620189
-0.0060841
-0.00551501
-0.00449448
-0.00302324
-0.00110293
0.00126396
0.00407411
0.00732346
0.0110072
0.0151199
0.0196554
0.0246071
0.0299679
0.0357302
0.041886
0.048427
0.0553446
0.0626298
0.0702736
0.0782668
0.0866
0.0952637
0.104248
0.113545
0.123143
0.133033
0.143207
0.153654
0.164366
0.175334
0.186547
0.197999
0.209679
0.22158
0.233693
0.24601
0.258524
0.271226
0.284109
0.297167
0.310392
0.323776
0.337315
0.351001
0.364828
0.37879
0.392881
0.407096
0.421429
0.435875
0.450429
0.465086
0.479841
0.494689
0.509626
0.524646
0.539746
0.554921
0.570166
0.585478
0.600851
0.616281
0.631765
0.647296
0.662871
0.678485
0.694133
0.70981
0.725512
0.741231
0.756964
0.772705
0.788447
0.804184
0.819909
0.835617
0.851299
0.866948
0.882556
0.898115
0.913616
0.92905
0.944407
0.959677
0.97485
0.989915
1.00486
1.01967
1.03434
1.04885
1.06319
1.07735
1.09131
1.10505
1.11856
1.13183
1.14483
1.15756
1.16999
1.18211
1.19389
1.20533
1.21641
1.2271
1.23739
1.24726
1.25669
1.26568
1.27419
1.28222
1.28975
1.29677
1.30325
1.3092
1.3146
1.31943
1.3237
1.32739
1.3305
1.33302
1.33496
1.33631
1.33708
1.33727
1.33688
1.33592
1.33441
1.33235
1.32976
1.32664
1.32301
1.31888
1.31427
1.30919
1.30364
1.29763
1.29117
1.2843
1.27706
1.26875
1.25878
0.0711852
0.0615097
0.0534769
0.0465107
0.0399249
0.0337504
0.0280298
0.0227564
0.0179253
0.0135368
0.00959232
0.00609383
0.00304374
0.000444629
-0.00170098
-0.00339087
-0.00462323
-0.00539678
-0.00571087
-0.00556554
-0.00496156
-0.00390044
-0.0023844
-0.000416415
0.00199986
0.00486008
0.00815928
0.0118919
0.0160518
0.0206324
0.0256265
0.0310267
0.0368251
0.0430135
0.0495834
0.056526
0.0638324
0.0714936
0.0795002
0.087843
0.0965125
0.105499
0.114794
0.124387
0.13427
0.144432
0.154865
0.165559
0.176506
0.187697
0.199123
0.210776
0.222647
0.234728
0.247011
0.259489
0.272154
0.284998
0.298015
0.311198
0.324539
0.338033
0.351673
0.365452
0.379366
0.393408
0.407572
0.421854
0.436248
0.450749
0.465352
0.480051
0.494844
0.509723
0.524687
0.539728
0.554844
0.57003
0.585281
0.600593
0.615962
0.631383
0.646851
0.662363
0.677913
0.693497
0.70911
0.724747
0.740402
0.75607
0.771745
0.787423
0.803095
0.818757
0.834401
0.85002
0.865607
0.881155
0.896654
0.912097
0.927475
0.942778
0.957996
0.973119
0.988137
1.00304
1.01781
1.03244
1.04692
1.06123
1.07536
1.08929
1.10302
1.11652
1.12978
1.14278
1.15551
1.16795
1.18009
1.1919
1.20336
1.21447
1.2252
1.23554
1.24546
1.25495
1.264
1.27258
1.28068
1.28829
1.29538
1.30195
1.30798
1.31346
1.31839
1.32273
1.32651
1.32969
1.33229
1.33429
1.3357
1.33652
1.33674
1.33637
1.33542
1.33389
1.33179
1.32913
1.32591
1.32216
1.31787
1.31307
1.30774
1.30192
1.29559
1.28875
1.28146
1.27376
1.26489
1.25423
0.0748914
0.0645834
0.0560413
0.0486527
0.0416852
0.0351713
0.0291545
0.023626
0.018578
0.014008
0.00991469
0.00629716
0.00315497
0.000487936
-0.00170412
-0.00342153
-0.00466492
-0.00543529
-0.00573412
-0.00556338
-0.00492566
-0.00382408
-0.00226239
-0.000244865
0.00222362
0.00513767
0.00849137
0.0122783
0.0164918
0.0211244
0.0261686
0.0316165
0.0374598
0.0436901
0.0502985
0.0572763
0.0646143
0.0723034
0.0803343
0.0886976
0.0973841
0.106384
0.115689
0.125288
0.135173
0.145335
0.155765
0.166452
0.17739
0.188568
0.199979
0.211614
0.223465
0.235524
0.247783
0.260234
0.27287
0.285684
0.298668
0.311817
0.325122
0.338579
0.35218
0.365919
0.379791
0.39379
0.40791
0.422147
0.436494
0.450947
0.465502
0.480152
0.494893
0.509721
0.524632
0.53962
0.554682
0.569812
0.585007
0.600263
0.615575
0.630938
0.646348
0.661801
0.677292
0.692816
0.708369
0.723946
0.739541
0.75515
0.770766
0.786383
0.801997
0.817601
0.833188
0.848751
0.864283
0.879776
0.895224
0.910616
0.925946
0.941202
0.956377
0.97146
0.98644
1.00131
1.01605
1.03065
1.04511
1.0594
1.07351
1.08744
1.10116
1.11466
1.12793
1.14095
1.1537
1.16616
1.17833
1.19017
1.20168
1.21284
1.22363
1.23402
1.24401
1.25358
1.2627
1.27137
1.27955
1.28725
1.29444
1.3011
1.30723
1.31281
1.31782
1.32226
1.32613
1.3294
1.33207
1.33415
1.33562
1.33648
1.33673
1.33638
1.33543
1.33388
1.33174
1.329
1.32569
1.32181
1.31736
1.31235
1.30679
1.30068
1.29403
1.28683
1.27913
1.27097
1.26157
1.25024
0.0780319
0.0671144
0.0580791
0.0502789
0.0429378
0.0360895
0.0297793
0.0239963
0.0187304
0.0139767
0.00973153
0.00599138
0.00275328
1.4512e-05
-0.00222758
-0.0039757
-0.00523277
-0.00600195
-0.00628673
-0.00609101
-0.00541911
-0.00427578
-0.00266622
-0.000596088
0.00192854
0.00490118
0.00831494
0.0121626
0.0164365
0.0211288
0.0262314
0.0317357
0.0376332
0.043915
0.0505721
0.0575954
0.0649757
0.0727035
0.0807697
0.0891648
0.0978793
0.106904
0.116229
0.125846
0.135746
0.145918
0.156355
0.167047
0.177985
0.189162
0.200568
0.212195
0.224036
0.236082
0.248325
0.260759
0.273375
0.286167
0.299127
0.312249
0.325527
0.338953
0.352523
0.366229
0.380066
0.394028
0.408111
0.422308
0.436615
0.451026
0.465537
0.480142
0.494838
0.50962
0.524483
0.539422
0.554434
0.569514
0.584658
0.599861
0.61512
0.63043
0.645786
0.661185
0.676621
0.692091
0.707588
0.72311
0.73865
0.754203
0.769765
0.785329
0.800889
0.81644
0.831976
0.847489
0.862972
0.878419
0.893821
0.909171
0.924459
0.939678
0.954818
0.969869
0.98482
0.999662
1.01438
1.02897
1.04341
1.0577
1.07181
1.08574
1.09947
1.11299
1.12628
1.13932
1.1521
1.1646
1.17681
1.18871
1.20028
1.2115
1.22236
1.23284
1.24291
1.25256
1.26178
1.27054
1.27883
1.28663
1.29392
1.30069
1.30693
1.31262
1.31774
1.32229
1.32625
1.32961
1.33237
1.33452
1.33606
1.33697
1.33726
1.33693
1.33598
1.33441
1.33222
1.32942
1.326
1.32199
1.31737
1.31216
1.30636
1.29998
1.293
1.28544
1.27734
1.26874
1.25882
1.24685
0.0805653
0.0690597
0.0595468
0.051346
0.0436397
0.0364632
0.0298637
0.0238285
0.0183457
0.0134083
0.00901035
0.00514623
0.00181061
-0.00100151
-0.00329508
-0.00507504
-0.00634644
-0.0071145
-0.00738468
-0.00716269
-0.00645458
-0.0052667
-0.00360571
-0.00147863
0.00110725
0.00414431
0.00762465
0.0115401
0.0158824
0.0206428
0.0258126
0.0313827
0.0373442
0.0436876
0.0504039
0.0574834
0.0649168
0.0726946
0.0808073
0.0892454
0.0979995
0.10706
0.116418
0.126064
0.135988
0.146182
0.156637
0.167344
0.178295
0.18948
0.200891
0.212521
0.224361
0.236404
0.248641
0.261066
0.273671
0.286449
0.299393
0.312497
0.325754
0.339158
0.352703
0.366383
0.380192
0.394125
0.408176
0.422339
0.436611
0.450986
0.465459
0.480025
0.494681
0.509421
0.52424
0.539136
0.554103
0.569137
0.584234
0.599389
0.6146
0.62986
0.645167
0.660516
0.675902
0.69132
0.706768
0.722238
0.737728
0.753231
0.768743
0.784258
0.799771
0.815275
0.830765
0.846233
0.861674
0.87708
0.892444
0.907758
0.923014
0.938202
0.953315
0.968342
0.983274
0.9981
1.01281
1.02739
1.04183
1.05612
1.07024
1.08419
1.09794
1.11148
1.1248
1.13789
1.15072
1.16327
1.17554
1.18751
1.19915
1.21045
1.2214
1.23196
1.24213
1.25189
1.26122
1.27009
1.2785
1.28641
1.29383
1.30073
1.30708
1.31289
1.31813
1.3228
1.32687
1.33033
1.33319
1.33543
1.33703
1.33801
1.33834
1.33803
1.33708
1.33549
1.33326
1.33038
1.32687
1.32272
1.31794
1.31253
1.3065
1.29984
1.29255
1.28463
1.27614
1.26712
1.25669
1.2441
0.0824534
0.0703795
0.0604037
0.0518132
0.0437504
0.0362527
0.029369
0.0230855
0.0173882
0.0122687
0.00771907
0.00373158
0.00029886
-0.00258622
-0.00493071
-0.00674166
-0.00802613
-0.00879133
-0.00904457
-0.00879336
-0.00804544
-0.00680871
-0.00509132
-0.00290163
-0.000248191
0.00286025
0.00641476
0.0104063
0.0148255
0.0196632
0.0249098
0.0305558
0.0365915
0.0430074
0.0497937
0.0569407
0.0644386
0.0722778