/*--------------------------------*- C++ -*----------------------------------*\
  =========                 |
  \\      /  F ield         | OpenFOAM: The Open Source CFD Toolbox
   \\    /   O peration     | Website:  https://openfoam.org
    \\  /    A nd           | Version:  7
     \\/     M anipulation  |
\*---------------------------------------------------------------------------*/
FoamFile
{
    version     2.0;
    format      ascii;
    class       volScalarField;
    location    "0.1625";
    object      p;
}
// * * * * * * * * * * * * * * * * * * * * * * * * * * * * * * * * * * * * * //

dimensions      [0 2 -2 0 0 0 0];

internalField   nonuniform List<scalar> 
51200
(
5.84385e-08
-3.61603e-07
2.87695e-06
4.76694e-06
5.39461e-06
5.35337e-06
5.08999e-06
5.17022e-06
5.81296e-06
7.14504e-06
9.13561e-06
1.17791e-05
1.4997e-05
1.8696e-05
2.26615e-05
2.67825e-05
3.09947e-05
3.51373e-05
3.90157e-05
4.2489e-05
4.54079e-05
4.78509e-05
4.97645e-05
5.09928e-05
5.15271e-05
5.12953e-05
5.02312e-05
4.83881e-05
4.56998e-05
4.21142e-05
3.76893e-05
3.23451e-05
2.60681e-05
1.89319e-05
1.08498e-05
1.80229e-06
-8.14302e-06
-1.89822e-05
-3.07697e-05
-4.34127e-05
-5.68916e-05
-7.12809e-05
-8.64738e-05
-0.000102422
-0.000119196
-0.000136776
-0.000155079
-0.000174094
-0.000193822
-0.000214204
-0.000235214
-0.000256896
-0.000279218
-0.000302121
-0.000325577
-0.000349601
-0.000374144
-0.000399144
-0.000424597
-0.00045049
-0.000476746
-0.000503335
-0.000530332
-0.000557789
-0.00058567
-0.000613907
-0.00064245
-0.000671202
-0.000700066
-0.000729104
-0.000758463
-0.000788161
-0.000818097
-0.000848207
-0.000878448
-0.000908774
-0.000939182
-0.000969726
-0.00100044
-0.00103125
-0.00106206
-0.00109282
-0.00112356
-0.00115426
-0.00118491
-0.00121549
-0.001246
-0.0012764
-0.00130663
-0.00133664
-0.00136643
-0.00139602
-0.00142539
-0.00145451
-0.00148333
-0.00151184
-0.00154002
-0.00156782
-0.00159523
-0.00162224
-0.00164885
-0.00167505
-0.00170075
-0.00172594
-0.00175061
-0.00177478
-0.00179841
-0.00182147
-0.00184396
-0.00186587
-0.00188717
-0.00190779
-0.00192768
-0.00194684
-0.00196527
-0.00198296
-0.00199985
-0.00201591
-0.00203116
-0.00204556
-0.00205911
-0.00207176
-0.00208351
-0.00209439
-0.0021044
-0.00211353
-0.00212174
-0.00212903
-0.0021354
-0.00214085
-0.00214537
-0.00214896
-0.00215162
-0.00215337
-0.0021542
-0.00215413
-0.00215314
-0.00215123
-0.00214843
-0.00214479
-0.00214031
-0.00213505
-0.00212903
-0.00212233
-0.00211503
-0.00210722
-0.00209895
-0.0020903
-0.00208135
-0.00207223
-0.00206308
-0.00205405
-0.00204529
-0.00203703
-0.00202953
-0.00202307
-0.00201796
-0.00201452
-0.00201309
-0.00201357
-4.70549e-06
-8.10176e-06
-7.7965e-06
-7.26767e-06
-6.88955e-06
-6.72239e-06
-6.43624e-06
-5.84041e-06
-4.65782e-06
-2.95153e-06
-7.54301e-07
1.89815e-06
4.97924e-06
8.45055e-06
1.2082e-05
1.57467e-05
1.93612e-05
2.28801e-05
2.61733e-05
2.90305e-05
3.14434e-05
3.33401e-05
3.46652e-05
3.54427e-05
3.55457e-05
3.49113e-05
3.35608e-05
3.13997e-05
2.84165e-05
2.4684e-05
2.00876e-05
1.45961e-05
8.3016e-06
1.10163e-06
-7.00427e-06
-1.59616e-05
-2.58166e-05
-3.66028e-05
-4.82161e-05
-6.06667e-05
-7.4013e-05
-8.81549e-05
-0.000103102
-0.000118868
-0.000135391
-0.000152658
-0.000170684
-0.000189436
-0.000208849
-0.000228897
-0.000249566
-0.000270834
-0.000292693
-0.000315136
-0.000338144
-0.000361699
-0.000385757
-0.000410294
-0.000435334
-0.000460843
-0.000486727
-0.000512945
-0.000539512
-0.000566413
-0.000593646
-0.000621273
-0.000649292
-0.00067758
-0.000706036
-0.000734674
-0.000763537
-0.000792624
-0.000821941
-0.000851505
-0.00088125
-0.000911081
-0.00094098
-0.000970993
-0.00100114
-0.00103137
-0.00106162
-0.00109187
-0.00112211
-0.00115229
-0.0011824
-0.00121243
-0.00124239
-0.00127225
-0.00130195
-0.00133145
-0.00136074
-0.00138983
-0.00141868
-0.00144726
-0.00147555
-0.00150356
-0.00153124
-0.00155854
-0.00158546
-0.00161199
-0.00163813
-0.00166383
-0.00168904
-0.00171376
-0.00173799
-0.00176173
-0.00178493
-0.00180757
-0.00182965
-0.00185117
-0.00187207
-0.00189231
-0.00191184
-0.00193068
-0.00194879
-0.00196615
-0.00198273
-0.00199852
-0.00201352
-0.00202771
-0.00204104
-0.00205351
-0.00206513
-0.00207592
-0.00208586
-0.00209494
-0.00210312
-0.00211041
-0.00211682
-0.00212236
-0.00212701
-0.00213076
-0.00213361
-0.0021356
-0.00213672
-0.00213697
-0.00213635
-0.00213486
-0.00213253
-0.00212941
-0.00212553
-0.0021209
-0.00211557
-0.00210963
-0.00210316
-0.00209621
-0.00208884
-0.00208113
-0.00207318
-0.00206513
-0.00205709
-0.00204917
-0.00204153
-0.00203436
-0.0020279
-0.00202237
-0.00201799
-0.00201496
-0.00201361
-0.00201412
-1.76213e-05
-2.06593e-05
-2.06494e-05
-2.0061e-05
-1.94882e-05
-1.87591e-05
-1.78262e-05
-1.65587e-05
-1.48681e-05
-1.26648e-05
-1.00602e-05
-7.24149e-06
-4.07677e-06
-6.96881e-07
2.79733e-06
6.22883e-06
9.50186e-06
1.25943e-05
1.54288e-05
1.78987e-05
1.9921e-05
2.13652e-05
2.23075e-05
2.26841e-05
2.23891e-05
2.14869e-05
1.98545e-05
1.74164e-05
1.42601e-05
1.0313e-05
5.54277e-06
-4.93767e-09
-6.39146e-06
-1.3672e-05
-2.17513e-05
-3.06923e-05
-4.0534e-05
-5.12044e-05
-6.27159e-05
-7.5092e-05
-8.82646e-05
-0.00010222
-0.00011701
-0.000132583
-0.000148881
-0.000165926
-0.000183707
-0.000202175
-0.000221326
-0.000241109
-0.000261484
-0.000282445
-0.000303968
-0.000326041
-0.00034869
-0.000371886
-0.000395546
-0.000419678
-0.000444325
-0.000469429
-0.000494928
-0.000520833
-0.000547093
-0.000573606
-0.000600386
-0.000627537
-0.00065506
-0.000682874
-0.000710951
-0.000739261
-0.00076774
-0.000796361
-0.000825183
-0.000854261
-0.000883546
-0.000912948
-0.000942445
-0.000972048
-0.00100174
-0.00103149
-0.00106126
-0.00109106
-0.00112086
-0.00115061
-0.00118028
-0.00120987
-0.00123939
-0.00126879
-0.00129803
-0.00132708
-0.00135594
-0.00138461
-0.00141301
-0.00144114
-0.00146899
-0.00149656
-0.00152381
-0.00155067
-0.00157717
-0.0016033
-0.00162904
-0.00165432
-0.00167913
-0.00170346
-0.00172733
-0.0017507
-0.00177354
-0.00179584
-0.0018176
-0.00183881
-0.00185939
-0.0018793
-0.00189855
-0.00191712
-0.00193498
-0.00195208
-0.00196841
-0.00198397
-0.00199878
-0.00201279
-0.00202596
-0.0020383
-0.00204982
-0.00206054
-0.00207044
-0.00207949
-0.00208768
-0.00209499
-0.00210146
-0.00210708
-0.00211183
-0.0021157
-0.00211873
-0.00212092
-0.00212229
-0.0021228
-0.00212247
-0.00212132
-0.0021194
-0.00211672
-0.0021133
-0.00210917
-0.0021044
-0.00209907
-0.00209324
-0.00208697
-0.0020803
-0.00207332
-0.00206615
-0.00205889
-0.00205166
-0.00204455
-0.00203769
-0.00203127
-0.0020255
-0.00202056
-0.0020166
-0.00201378
-0.00201244
-0.00201286
-3.42434e-05
-3.60624e-05
-3.58353e-05
-3.47374e-05
-3.3407e-05
-3.18862e-05
-3.00972e-05
-2.80307e-05
-2.5649e-05
-2.28508e-05
-1.97727e-05
-1.65152e-05
-1.31806e-05
-9.70733e-06
-6.20724e-06
-2.86232e-06
3.05368e-07
3.15959e-06
5.68862e-06
7.91968e-06
9.6279e-06
1.08545e-05
1.15115e-05
1.15322e-05
1.09997e-05
9.8161e-06
7.91622e-06
5.33757e-06
1.98656e-06
-2.15561e-06
-7.01742e-06
-1.26589e-05
-1.91651e-05
-2.64309e-05
-3.45433e-05
-4.35221e-05
-5.32997e-05
-6.39001e-05
-7.5365e-05
-8.76502e-05
-0.000100683
-0.000114547
-0.000129183
-0.000144553
-0.000160699
-0.000177558
-0.000195091
-0.000213322
-0.000232212
-0.000251703
-0.000271807
-0.000292515
-0.000313746
-0.000335521
-0.000357882
-0.000380768
-0.000404118
-0.00042796
-0.000452277
-0.000476979
-0.000502081
-0.000527631
-0.000553555
-0.000579762
-0.000606272
-0.000633099
-0.000660195
-0.000687548
-0.000715213
-0.000743165
-0.000771304
-0.000799593
-0.000828064
-0.000856733
-0.000885571
-0.00091455
-0.000943674
-0.000972921
-0.00100223
-0.00103158
-0.00106096
-0.00109036
-0.00111975
-0.0011491
-0.00117838
-0.0012076
-0.00123674
-0.00126575
-0.00129457
-0.00132323
-0.00135172
-0.00137998
-0.00140798
-0.00143572
-0.00146319
-0.00149037
-0.00151721
-0.00154368
-0.00156982
-0.00159559
-0.00162096
-0.00164587
-0.00167033
-0.00169434
-0.0017179
-0.00174095
-0.00176347
-0.00178548
-0.00180698
-0.00182791
-0.00184821
-0.00186786
-0.00188687
-0.0019052
-0.00192283
-0.00193971
-0.00195584
-0.00197123
-0.00198587
-0.00199973
-0.00201277
-0.00202502
-0.00203648
-0.00204716
-0.00205703
-0.00206606
-0.00207426
-0.00208162
-0.00208816
-0.00209385
-0.00209868
-0.00210267
-0.00210585
-0.00210823
-0.0021098
-0.00211054
-0.00211046
-0.00210962
-0.00210802
-0.00210571
-0.00210268
-0.00209898
-0.00209467
-0.00208983
-0.00208453
-0.00207879
-0.00207267
-0.00206627
-0.00205971
-0.00205306
-0.00204642
-0.00203988
-0.00203357
-0.00202764
-0.00202228
-0.00201764
-0.00201385
-0.00201106
-0.00200955
-0.00200961
-5.18132e-05
-5.2304e-05
-5.14192e-05
-4.96662e-05
-4.75172e-05
-4.51158e-05
-4.24809e-05
-3.96606e-05
-3.66437e-05
-3.33666e-05
-2.9859e-05
-2.62846e-05
-2.26799e-05
-1.90883e-05
-1.56102e-05
-1.22673e-05
-9.20621e-06
-6.46771e-06
-4.08068e-06
-2.13367e-06
-6.21867e-07
4.21604e-07
8.5081e-07
7.01694e-07
-6.31778e-08
-1.5176e-06
-3.57624e-06
-6.3102e-06
-9.85239e-06
-1.40759e-05
-1.90384e-05
-2.48231e-05
-3.13344e-05
-3.86244e-05
-4.67868e-05
-5.57329e-05
-6.54653e-05
-7.60431e-05
-8.7426e-05
-9.95808e-05
-0.000112551
-0.000126303
-0.00014077
-0.000156004
-0.000171979
-0.000188633
-0.000205982
-0.000224007
-0.000242631
-0.00026186
-0.000281705
-0.000302126
-0.000323079
-0.000344596
-0.000366649
-0.000389194
-0.000412258
-0.000435834
-0.000459844
-0.000484234
-0.000509022
-0.000534194
-0.000559707
-0.000585572
-0.000611805
-0.000638338
-0.000665097
-0.000692096
-0.000719374
-0.000746907
-0.000774654
-0.000802618
-0.000830783
-0.000859099
-0.000887541
-0.000916128
-0.000944877
-0.000973749
-0.00100268
-0.00103165
-0.00106067
-0.0010897
-0.00111871
-0.00114766
-0.00117657
-0.00120543
-0.00123419
-0.0012628
-0.00129125
-0.00131955
-0.00134766
-0.00137553
-0.00140314
-0.0014305
-0.0014576
-0.0014844
-0.00151084
-0.00153696
-0.00156275
-0.00158818
-0.00161318
-0.00163774
-0.00166187
-0.00168559
-0.00170883
-0.00173157
-0.0017538
-0.00177555
-0.00179678
-0.00181744
-0.00183748
-0.0018569
-0.00187569
-0.0018938
-0.0019112
-0.00192788
-0.00194383
-0.00195907
-0.00197357
-0.00198729
-0.00200022
-0.00201239
-0.0020238
-0.00203445
-0.00204429
-0.00205332
-0.00206154
-0.00206896
-0.00207555
-0.00208131
-0.00208623
-0.00209034
-0.00209367
-0.00209622
-0.00209798
-0.00209893
-0.00209911
-0.00209854
-0.00209726
-0.00209527
-0.00209259
-0.00208928
-0.0020854
-0.00208101
-0.00207616
-0.00207087
-0.00206523
-0.00205934
-0.00205329
-0.00204716
-0.00204099
-0.00203489
-0.00202898
-0.00202342
-0.00201832
-0.00201381
-0.00201001
-0.00200708
-0.00200523
-0.00200464
-6.89404e-05
-6.77863e-05
-6.60721e-05
-6.36217e-05
-6.06482e-05
-5.74637e-05
-5.40911e-05
-5.06222e-05
-4.70678e-05
-4.33704e-05
-3.9619e-05
-3.58168e-05
-3.20418e-05
-2.84031e-05
-2.4882e-05
-2.16214e-05
-1.86522e-05
-1.59988e-05
-1.37764e-05
-1.20041e-05
-1.06516e-05
-9.85932e-06
-9.57356e-06
-9.84974e-06
-1.08236e-05
-1.24103e-05
-1.46176e-05
-1.75589e-05
-2.11639e-05
-2.54847e-05
-3.05789e-05
-3.64098e-05
-4.2954e-05
-5.03085e-05
-5.8442e-05
-6.73466e-05
-7.70877e-05
-8.76128e-05
-9.89037e-05
-0.000110984
-0.000123872
-0.000137477
-0.00015183
-0.000166932
-0.00018271
-0.000199182
-0.000216352
-0.000234148
-0.000252551
-0.000271563
-0.000291148
-0.000311288
-0.000332007
-0.000353269
-0.000375018
-0.000397269
-0.000420049
-0.000443299
-0.000466981
-0.00049111
-0.000515637
-0.000540485
-0.000565652
-0.000591186
-0.000617068
-0.000643242
-0.000669692
-0.000696415
-0.000723376
-0.000750537
-0.000777911
-0.000805527
-0.000833353
-0.00086132
-0.00088942
-0.000917676
-0.000946075
-0.000974571
-0.00100313
-0.00103174
-0.00106041
-0.00108908
-0.00111771
-0.00114631
-0.00117488
-0.00120338
-0.00123176
-0.00125999
-0.00128809
-0.00131604
-0.00134378
-0.00137127
-0.00139852
-0.00142553
-0.00145226
-0.00147868
-0.00150476
-0.00153055
-0.00155602
-0.0015811
-0.00160576
-0.00163
-0.00165383
-0.00167724
-0.00170017
-0.00172262
-0.0017446
-0.0017661
-0.00178707
-0.00180746
-0.00182726
-0.00184647
-0.00186506
-0.00188296
-0.00190016
-0.00191666
-0.00193246
-0.00194757
-0.00196194
-0.00197554
-0.00198838
-0.00200049
-0.00201185
-0.00202246
-0.00203228
-0.00204132
-0.00204956
-0.00205702
-0.00206366
-0.00206948
-0.00207449
-0.00207873
-0.00208221
-0.00208493
-0.00208686
-0.00208802
-0.00208844
-0.00208814
-0.00208713
-0.00208543
-0.00208306
-0.0020801
-0.0020766
-0.0020726
-0.00206814
-0.00206324
-0.00205801
-0.00205256
-0.00204694
-0.00204121
-0.0020354
-0.00202962
-0.002024
-0.00201866
-0.0020137
-0.00200918
-0.00200524
-0.00200204
-0.00199968
-0.00199825
-8.49873e-05
-8.23092e-05
-7.97016e-05
-7.64528e-05
-7.27774e-05
-6.88298e-05
-6.48044e-05
-6.08216e-05
-5.67821e-05
-5.27447e-05
-4.87388e-05
-4.48082e-05
-4.09981e-05
-3.72815e-05
-3.38018e-05
-3.06058e-05
-2.77118e-05
-2.5201e-05
-2.31097e-05
-2.14472e-05
-2.03067e-05
-1.9671e-05
-1.95211e-05
-2.00116e-05
-2.1083e-05
-2.27683e-05
-2.51725e-05
-2.8203e-05
-3.18997e-05
-3.63463e-05
-4.14905e-05
-4.7342e-05
-5.39811e-05
-6.1351e-05
-6.94423e-05
-7.83535e-05
-8.80549e-05
-9.85096e-05
-0.000109755
-0.000121783
-0.000134548
-0.000148052
-0.000162303
-0.000177241
-0.000192871
-0.000209189
-0.000226146
-0.000243724
-0.000261935
-0.000280728
-0.000300065
-0.000319976
-0.000340462
-0.000361452
-0.00038294
-0.000404958
-0.000427466
-0.000450399
-0.000473772
-0.000497607
-0.000521826
-0.000546383
-0.000571295
-0.000596554
-0.0006221
-0.000647916
-0.000674043
-0.000700466
-0.000727119
-0.000753977
-0.000781054
-0.000808346
-0.000835819
-0.000863441
-0.000891226
-0.000919173
-0.00094724
-0.000975387
-0.0010036
-0.00103188
-0.0010602
-0.00108852
-0.0011168
-0.00114507
-0.0011733
-0.00120145
-0.00122947
-0.00125736
-0.00128512
-0.00131272
-0.00134009
-0.00136724
-0.00139416
-0.00142084
-0.00144722
-0.00147329
-0.00149906
-0.00152453
-0.00154968
-0.00157443
-0.00159877
-0.00162273
-0.00164628
-0.00166939
-0.00169203
-0.00171421
-0.00173595
-0.0017572
-0.00177792
-0.00179806
-0.00181765
-0.00183666
-0.00185505
-0.00187277
-0.0018898
-0.00190615
-0.00192183
-0.00193681
-0.00195106
-0.00196456
-0.00197734
-0.00198939
-0.00200071
-0.00201127
-0.00202107
-0.0020301
-0.00203838
-0.00204586
-0.00205254
-0.00205842
-0.00206353
-0.0020679
-0.00207153
-0.00207439
-0.00207649
-0.00207785
-0.00207849
-0.00207843
-0.00207767
-0.00207622
-0.00207414
-0.00207149
-0.00206832
-0.00206465
-0.00206051
-0.00205595
-0.00205107
-0.00204597
-0.00204069
-0.00203525
-0.00202971
-0.00202415
-0.00201871
-0.00201346
-0.0020085
-0.00200388
-0.00199971
-0.00199613
-0.00199315
-0.00199072
-9.99252e-05
-9.57411e-05
-9.22316e-05
-8.83357e-05
-8.39029e-05
-7.92571e-05
-7.46834e-05
-7.02051e-05
-6.58111e-05
-6.14833e-05
-5.72529e-05
-5.32156e-05
-4.93388e-05
-4.56666e-05
-4.22277e-05
-3.90532e-05
-3.62739e-05
-3.39005e-05
-3.19089e-05
-3.04178e-05
-2.94281e-05
-2.89e-05
-2.89661e-05
-2.95715e-05
-3.07559e-05
-3.26054e-05
-3.5101e-05
-3.82097e-05
-4.20513e-05
-4.65623e-05
-5.17362e-05
-5.76656e-05
-6.43361e-05
-7.16997e-05
-7.98297e-05
-8.87298e-05
-9.83597e-05
-0.000108787
-0.000119978
-0.000131928
-0.000144606
-0.000158028
-0.00017215
-0.000186947
-0.000202456
-0.000218615
-0.000235384
-0.000252787
-0.000270794
-0.000289369
-0.000308504
-0.000328212
-0.000348449
-0.00036918
-0.000390436
-0.000412213
-0.000434457
-0.000457137
-0.00048026
-0.000503793
-0.000527685
-0.000551951
-0.000576605
-0.000601593
-0.000626855
-0.000652392
-0.000678226
-0.000704328
-0.00073066
-0.000757235
-0.000784046
-0.000811042
-0.000838192
-0.000865506
-0.000892996
-0.000920637
-0.000948376
-0.000976199
-0.00100411
-0.00103207
-0.00106006
-0.00108803
-0.00111599
-0.00114394
-0.00117184
-0.00119964
-0.00122732
-0.0012549
-0.00128235
-0.0013096
-0.00133664
-0.00136347
-0.00139008
-0.00141644
-0.00144249
-0.00146825
-0.00149373
-0.00151892
-0.00154375
-0.00156819
-0.00159225
-0.00161594
-0.00163921
-0.00166204
-0.00168441
-0.00170635
-0.00172785
-0.00174885
-0.00176932
-0.00178926
-0.00180865
-0.00182748
-0.00184568
-0.00186323
-0.00188011
-0.00189635
-0.00191192
-0.00192679
-0.00194093
-0.00195435
-0.00196706
-0.00197906
-0.00199032
-0.00200084
-0.00201061
-0.00201965
-0.00202794
-0.00203544
-0.00204216
-0.00204811
-0.00205332
-0.00205781
-0.00206157
-0.00206458
-0.00206684
-0.00206838
-0.00206922
-0.00206937
-0.00206882
-0.0020676
-0.00206578
-0.00206341
-0.00206052
-0.00205712
-0.00205325
-0.00204898
-0.00204439
-0.00203956
-0.00203452
-0.0020293
-0.00202394
-0.00201853
-0.00201316
-0.00200791
-0.00200284
-0.00199802
-0.00199354
-0.00198951
-0.00198582
-0.00198234
-0.000113783
-0.000108289
-0.000103749
-9.91815e-05
-9.42217e-05
-8.897e-05
-8.37782e-05
-7.89017e-05
-7.42003e-05
-6.96002e-05
-6.5217e-05
-6.10297e-05
-5.70942e-05
-5.34725e-05
-5.00616e-05
-4.69775e-05
-4.42834e-05
-4.19707e-05
-4.01636e-05
-3.88014e-05
-3.79159e-05
-3.75865e-05
-3.77703e-05
-3.84775e-05
-3.98277e-05
-4.17876e-05
-4.43424e-05
-4.76017e-05
-5.15156e-05
-5.60773e-05
-6.1347e-05
-6.73146e-05
-7.39773e-05
-8.13853e-05
-8.95396e-05
-9.84108e-05
-0.000108038
-0.000118431
-0.00012956
-0.000141441
-0.00015406
-0.000167379
-0.000181386
-0.000196082
-0.000211447
-0.000227445
-0.000244073
-0.000261311
-0.000279118
-0.00029751
-0.000316474
-0.000335975
-0.000355984
-0.000376507
-0.000397542
-0.000419055
-0.000441038
-0.000463495
-0.000486381
-0.000509641
-0.000533263
-0.00055727
-0.000581643
-0.000606332
-0.000631329
-0.000656632
-0.000682209
-0.000708017
-0.000734061
-0.000760365
-0.000786899
-0.000813604
-0.000840469
-0.000867515
-0.000894727
-0.000922068
-0.000949501
-0.000977025
-0.00100464
-0.00103229
-0.00105996
-0.00108761
-0.00111528
-0.00114292
-0.00117049
-0.00119796
-0.00122534
-0.00125262
-0.00127975
-0.00130668
-0.00133342
-0.00135997
-0.00138629
-0.00141233
-0.00143808
-0.00146357
-0.00148879
-0.00151368
-0.00153822
-0.00156239
-0.0015862
-0.00160963
-0.00163263
-0.00165519
-0.00167733
-0.00169905
-0.00172031
-0.00174107
-0.00176131
-0.00178105
-0.00180027
-0.00181892
-0.00183695
-0.00185434
-0.00187111
-0.00188724
-0.0019027
-0.00191746
-0.00193151
-0.00194486
-0.00195751
-0.00196945
-0.00198065
-0.00199113
-0.00200088
-0.00200992
-0.00201821
-0.00202574
-0.00203249
-0.00203852
-0.00204383
-0.00204843
-0.00205231
-0.00205544
-0.00205785
-0.00205957
-0.0020606
-0.00206093
-0.00206056
-0.00205955
-0.00205796
-0.00205583
-0.00205317
-0.00204999
-0.00204635
-0.00204232
-0.00203797
-0.00203335
-0.00202848
-0.00202339
-0.00201814
-0.00201281
-0.00200745
-0.0020021
-0.00199684
-0.00199174
-0.00198688
-0.00198235
-0.0019779
-0.00197331
-0.000126814
-0.000120056
-0.000114554
-0.000109264
-0.000103742
-9.80186e-05
-9.23811e-05
-8.70059e-05
-8.19637e-05
-7.71953e-05
-7.26194e-05
-6.82948e-05
-6.43141e-05
-6.06267e-05
-5.72936e-05
-5.43117e-05
-5.1658e-05
-4.94949e-05
-4.77728e-05
-4.65142e-05
-4.57896e-05
-4.55931e-05
-4.58657e-05
-4.67401e-05
-4.81974e-05
-5.02353e-05
-5.29292e-05
-5.62728e-05
-6.02324e-05
-6.48996e-05
-7.02422e-05
-7.62324e-05
-8.29423e-05
-9.03815e-05
-9.85254e-05
-0.000107406
-0.000117045
-0.000127391
-0.000138491
-0.000150322
-0.000162863
-0.000176095
-0.000190022
-0.000204616
-0.000219843
-0.000235709
-0.000252201
-0.000269271
-0.000286916
-0.000305155
-0.000323952
-0.000343251
-0.000363066
-0.000383411
-0.000404238
-0.000425513
-0.000447266
-0.000469492
-0.00049212
-0.00051513
-0.000538536
-0.000562318
-0.000586426
-0.00061084
-0.000635586
-0.000660645
-0.000685963
-0.000711517
-0.000737321
-0.00076337
-0.000789624
-0.00081605
-0.000842659
-0.000869456
-0.000896398
-0.000923452
-0.000950606
-0.00097786
-0.00100519
-0.00103254
-0.0010599
-0.00108727
-0.00111465
-0.00114199
-0.00116924
-0.00119641
-0.00122352
-0.00125051
-0.00127733
-0.00130397
-0.00133045
-0.00135673
-0.00138276
-0.00140852
-0.00143401
-0.00145925
-0.0014842
-0.00150883
-0.00153309
-0.00155702
-0.0015806
-0.00160378
-0.00162653
-0.00164885
-0.00167078
-0.00169228
-0.00171331
-0.00173385
-0.00175389
-0.00177345
-0.0017925
-0.00181097
-0.00182885
-0.00184612
-0.00186277
-0.0018788
-0.00189416
-0.00190881
-0.00192278
-0.00193606
-0.00194865
-0.00196052
-0.00197167
-0.00198211
-0.00199186
-0.00200089
-0.00200919
-0.00201673
-0.00202354
-0.00202965
-0.00203505
-0.00203975
-0.00204372
-0.00204697
-0.00204953
-0.0020514
-0.00205259
-0.00205307
-0.00205287
-0.00205205
-0.00205066
-0.00204874
-0.00204627
-0.00204328
-0.00203983
-0.00203599
-0.00203182
-0.00202734
-0.00202258
-0.00201756
-0.00201236
-0.00200704
-0.00200162
-0.00199612
-0.00199061
-0.00198516
-0.00197988
-0.00197478
-0.00196953
-0.00196384
-0.000139099
-0.000131188
-0.000124751
-0.000118731
-0.000112648
-0.000106515
-0.000100466
-9.46803e-05
-8.93007e-05
-8.42657e-05
-7.95471e-05
-7.51227e-05
-7.09715e-05
-6.72656e-05
-6.39385e-05
-6.09744e-05
-5.84503e-05
-5.63686e-05
-5.47197e-05
-5.35974e-05
-5.29769e-05
-5.28626e-05
-5.33075e-05
-5.42816e-05
-5.5823e-05
-5.7995e-05
-6.07824e-05
-6.41812e-05
-6.82406e-05
-7.29701e-05
-7.83558e-05
-8.44244e-05
-9.11924e-05
-9.86483e-05
-0.000106816
-0.000115719
-0.000125336
-0.000135679
-0.000146753
-0.000158535
-0.000171009
-0.000184176
-0.000198027
-0.000212523
-0.000227648
-0.000243404
-0.000259757
-0.000276685
-0.0002942
-0.000312293
-0.000330923
-0.000350053
-0.000369702
-0.000389862
-0.000410492
-0.000431581
-0.000453141
-0.000475137
-0.000497519
-0.000520301
-0.000543498
-0.000567057
-0.000590931
-0.000615125
-0.000639648
-0.000664456
-0.000689514
-0.000714835
-0.00074042
-0.000766222
-0.000792211
-0.000818388
-0.000844763
-0.000871314
-0.00089799
-0.000924777
-0.00095168
-0.000978679
-0.00100573
-0.00103279
-0.00105988
-0.00108699
-0.00111409
-0.00114112
-0.00116809
-0.00119501
-0.00122185
-0.00124855
-0.00127509
-0.00130149
-0.00132772
-0.00135374
-0.0013795
-0.001405
-0.00143026
-0.00145527
-0.00147997
-0.00150433
-0.00152837
-0.00155208
-0.00157542
-0.00159837
-0.00162089
-0.00164302
-0.00166475
-0.00168604
-0.00170686
-0.00172719
-0.00174706
-0.00176645
-0.00178533
-0.00180364
-0.00182138
-0.00183853
-0.00185509
-0.001871
-0.00188624
-0.0019008
-0.00191469
-0.00192791
-0.00194044
-0.00195225
-0.00196336
-0.00197379
-0.00198353
-0.00199256
-0.00200086
-0.00200843
-0.00201529
-0.00202148
-0.00202697
-0.00203174
-0.00203579
-0.00203915
-0.00204184
-0.00204385
-0.00204517
-0.00204579
-0.00204575
-0.0020451
-0.0020439
-0.00204214
-0.00203982
-0.00203699
-0.0020337
-0.00203001
-0.00202595
-0.00202157
-0.00201687
-0.00201189
-0.00200668
-0.00200131
-0.00199576
-0.00199006
-0.00198425
-0.00197842
-0.00197265
-0.00196696
-0.00196091
-0.00195412
-0.000150516
-0.000141678
-0.000134391
-0.000127733
-0.000121054
-0.00011447
-0.000108088
-0.000101987
-9.62243e-05
-9.09141e-05
-8.60249e-05
-8.14477e-05
-7.72499e-05
-7.34211e-05
-7.00356e-05
-6.71056e-05
-6.46446e-05
-6.25997e-05
-6.10948e-05
-6.00363e-05
-5.94842e-05
-5.94936e-05
-6.00366e-05
-6.10998e-05
-6.27644e-05
-6.50334e-05
-6.78872e-05
-7.13871e-05
-7.55254e-05
-8.02925e-05
-8.57425e-05
-9.18817e-05
-9.869e-05
-0.000106199
-0.00011441
-0.000123323
-0.000132943
-0.0001433
-0.000154337
-0.000166085
-0.000178525
-0.00019163
-0.000205401
-0.00021982
-0.000234863
-0.00025051
-0.000266743
-0.000283569
-0.000300967
-0.000318916
-0.000337396
-0.000356394
-0.000375891
-0.000395865
-0.000416315
-0.000437246
-0.000458624
-0.000480414
-0.000502598
-0.00052519
-0.000548172
-0.0005715
-0.000595165
-0.000619169
-0.000643482
-0.000668055
-0.000692884
-0.00071799
-0.000743347
-0.000768904
-0.000794653
-0.000820608
-0.000846758
-0.000873063
-0.000899488
-0.000926037
-0.000952704
-0.00097945
-0.00100623
-0.00103304
-0.00105988
-0.00108674
-0.00111356
-0.00114032
-0.00116704
-0.00119372
-0.0012203
-0.00124674
-0.00127304
-0.00129921
-0.00132521
-0.00135098
-0.0013765
-0.00140178
-0.00142682
-0.00145159
-0.00147604
-0.00150018
-0.00152402
-0.00154753
-0.00157065
-0.00159338
-0.00161572
-0.00163767
-0.00165921
-0.0016803
-0.00170093
-0.00172109
-0.00174081
-0.00176004
-0.00177876
-0.00179692
-0.00181453
-0.00183158
-0.00184802
-0.00186381
-0.00187894
-0.00189342
-0.00190724
-0.00192039
-0.00193286
-0.00194462
-0.00195571
-0.00196614
-0.00197588
-0.00198491
-0.00199323
-0.00200083
-0.00200776
-0.00201401
-0.00201956
-0.00202439
-0.00202853
-0.002032
-0.0020348
-0.00203693
-0.00203836
-0.00203911
-0.00203922
-0.00203873
-0.00203768
-0.00203605
-0.00203386
-0.00203116
-0.00202799
-0.00202441
-0.00202043
-0.00201607
-0.00201139
-0.00200641
-0.00200117
-0.00199568
-0.00198996
-0.00198401
-0.00197789
-0.00197164
-0.00196536
-0.00195905
-0.00195219
-0.00194435
-0.00016117
-0.000151421
-0.000143455
-0.000136209
-0.000128994
-0.00012196
-0.000115253
-0.000108825
-0.000102792
-9.71983e-05
-9.2033e-05
-8.734e-05
-8.30229e-05
-7.91081e-05
-7.56862e-05
-7.27306e-05
-7.02537e-05
-6.83035e-05
-6.68367e-05
-6.58501e-05
-6.53856e-05
-6.54627e-05
-6.60742e-05
-6.72489e-05
-6.90005e-05
-7.13374e-05
-7.42842e-05
-7.78666e-05
-8.20661e-05
-8.69099e-05
-9.24253e-05
-9.86092e-05
-0.000105478
-0.000113046
-0.000121289
-0.000130226
-0.000139881
-0.000150224
-0.000161252
-0.000172981
-0.000185398
-0.000198462
-0.000212174
-0.00022653
-0.000241493
-0.000257039
-0.000273177
-0.000289916
-0.000307208
-0.000325027
-0.000343383
-0.000362263
-0.000381618
-0.000401435
-0.000421739
-0.000442511
-0.000463703
-0.000485312
-0.000507343
-0.00052977
-0.000552553
-0.000575677
-0.000599157
-0.00062297
-0.000647066
-0.000671428
-0.000696063
-0.000720963
-0.000746089
-0.000771413
-0.000796948
-0.000822696
-0.00084862
-0.000874684
-0.00090088
-0.000927211
-0.00095365
-0.000980146
-0.00100668
-0.00103326
-0.00105988
-0.00108649
-0.00111305
-0.00113958
-0.00116609
-0.00119253
-0.00121887
-0.00124507
-0.00127116
-0.00129712
-0.00132289
-0.00134843
-0.00137374
-0.00139882
-0.00142366
-0.00144819
-0.00147243
-0.00149637
-0.00152003
-0.00154334
-0.00156626
-0.00158881
-0.00161098
-0.00163277
-0.00165414
-0.00167505
-0.00169551
-0.00171553
-0.0017351
-0.00175419
-0.00177275
-0.00179079
-0.00180828
-0.00182521
-0.00184153
-0.00185721
-0.00187224
-0.00188664
-0.0019004
-0.00191349
-0.00192591
-0.00193765
-0.00194873
-0.00195917
-0.00196891
-0.00197795
-0.00198629
-0.00199394
-0.00200093
-0.00200724
-0.00201284
-0.00201773
-0.00202194
-0.00202551
-0.00202842
-0.00203065
-0.00203219
-0.00203307
-0.00203332
-0.00203297
-0.00203203
-0.0020305
-0.00202841
-0.00202582
-0.00202276
-0.00201924
-0.00201528
-0.00201093
-0.00200623
-0.00200121
-0.00199588
-0.00199024
-0.0019843
-0.00197809
-0.00197162
-0.00196495
-0.00195814
-0.0019512
-0.00194355
-0.0019347
-0.00017116
-0.000160548
-0.000151898
-0.000144115
-0.000136452
-0.000128986
-0.000121879
-0.000115204
-0.000108896
-0.000103023
-9.76483e-05
-9.27517e-05
-8.82921e-05
-8.43288e-05
-8.08081e-05
-7.78203e-05
-7.53357e-05
-7.33989e-05
-7.19543e-05
-7.10474e-05
-7.0633e-05
-7.07568e-05
-7.1457e-05
-7.27073e-05
-7.45279e-05
-7.69507e-05
-7.99743e-05
-8.3608e-05
-8.78857e-05
-9.28051e-05
-9.83788e-05
-0.00010463
-0.000111565
-0.000119177
-0.00012747
-0.000136451
-0.00014613
-0.000156473
-0.000167511
-0.000179222
-0.000191614
-0.000204663
-0.000218343
-0.000232645
-0.00024754
-0.000263011
-0.000279073
-0.000295721
-0.000312914
-0.000330629
-0.000348879
-0.000367639
-0.000386867
-0.000406566
-0.00042675
-0.000447375
-0.000468401
-0.000489858
-0.000511745
-0.000534007
-0.000556614
-0.000579578
-0.000602894
-0.000626511
-0.000650399
-0.000674574
-0.000699029
-0.000723724
-0.000748629
-0.000773746
-0.000799089
-0.000824631
-0.00085033
-0.000876171
-0.000902163
-0.000928284
-0.000954492
-0.000980754
-0.00100707
-0.00103345
-0.00105985
-0.00108622
-0.00111256
-0.0011389
-0.0011652
-0.00119142
-0.00121753
-0.00124354
-0.00126944
-0.0012952
-0.00132075
-0.00134609
-0.00137121
-0.00139611
-0.00142074
-0.00144507
-0.00146911
-0.0014929
-0.00151638
-0.0015395
-0.00156225
-0.00158464
-0.00160666
-0.0016283
-0.00164951
-0.00167026
-0.00169059
-0.00171049
-0.00172992
-0.00174886
-0.00176729
-0.00178521
-0.0018026
-0.00181942
-0.00183562
-0.00185119
-0.00186614
-0.00188048
-0.00189418
-0.00190722
-0.00191959
-0.00193133
-0.00194243
-0.00195287
-0.00196262
-0.00197168
-0.00198005
-0.00198776
-0.0019948
-0.00200116
-0.0020068
-0.00201175
-0.00201605
-0.00201972
-0.00202272
-0.00202504
-0.00202669
-0.00202769
-0.00202807
-0.00202783
-0.00202698
-0.00202553
-0.00202352
-0.00202101
-0.00201802
-0.00201454
-0.00201058
-0.00200619
-0.00200143
-0.00199634
-0.00199088
-0.00198506
-0.00197888
-0.00197237
-0.00196556
-0.00195846
-0.00195112
-0.00194357
-0.00193515
-0.00192533
-0.000180582
-0.000169121
-0.000159763
-0.000151483
-0.000143369
-0.000135501
-0.000128037
-0.00012102
-0.000114462
-0.000108374
-0.000102764
-9.76524e-05
-9.30826e-05
-8.89853e-05
-8.54087e-05
-8.23645e-05
-7.9859e-05
-7.78983e-05
-7.64846e-05
-7.55961e-05
-7.52249e-05
-7.54052e-05
-7.61555e-05
-7.74676e-05
-7.93652e-05
-8.18594e-05
-8.49507e-05
-8.86543e-05
-9.30004e-05
-9.79834e-05
-0.000103627
-0.000109947
-0.000116934
-0.000124605
-0.000132955
-0.000141982
-0.00015168
-0.000162064
-0.000173116
-0.000184822
-0.000197205
-0.00021024
-0.000223898
-0.000238158
-0.000253
-0.000268425
-0.000284424
-0.000300982
-0.00031809
-0.000335728
-0.000353879
-0.00037252
-0.000391643
-0.000411249
-0.000431314
-0.00045181
-0.00047272
-0.000494057
-0.000515801
-0.000537901
-0.000560358
-0.000583183
-0.000606336
-0.000629769
-0.00065348
-0.000677488
-0.000701762
-0.000726255
-0.000750965
-0.000775904
-0.00080106
-0.000826395
-0.000851881
-0.000877525
-0.000903324
-0.000929235
-0.00095522
-0.000981279
-0.00100741
-0.0010336
-0.00105978
-0.00108595
-0.00111211
-0.00113827
-0.00116437
-0.00119038
-0.00121631
-0.00124214
-0.00126787
-0.00129343
-0.00131878
-0.00134395
-0.00136891
-0.00139363
-0.00141806
-0.00144222
-0.00146612
-0.00148974
-0.00151305
-0.001536
-0.0015586
-0.00158086
-0.00160276
-0.00162424
-0.0016453
-0.00166593
-0.00168615
-0.00170592
-0.00172523
-0.00174404
-0.00176237
-0.00178019
-0.00179747
-0.00181417
-0.00183027
-0.00184576
-0.00186065
-0.00187493
-0.00188858
-0.00190158
-0.00191394
-0.00192568
-0.00193679
-0.00194725
-0.00195701
-0.00196609
-0.00197451
-0.00198227
-0.00198936
-0.00199575
-0.00200145
-0.00200648
-0.00201088