/*--------------------------------*- C++ -*----------------------------------*\
  =========                 |
  \\      /  F ield         | OpenFOAM: The Open Source CFD Toolbox
   \\    /   O peration     | Website:  https://openfoam.org
    \\  /    A nd           | Version:  7
     \\/     M anipulation  |
\*---------------------------------------------------------------------------*/
FoamFile
{
    version     2.0;
    format      ascii;
    class       surfaceScalarField;
    location    "0.1625";
    object      phi;
}
// * * * * * * * * * * * * * * * * * * * * * * * * * * * * * * * * * * * * * //

dimensions      [0 3 -1 0 0 0 0];

internalField   nonuniform List<scalar> 
101920
(
-1.15982e-12
1.1513e-12
-1.89254e-12
7.33838e-13
-1.54085e-12
-3.53228e-13
-6.97789e-13
-8.41722e-13
2.86064e-13
-9.83714e-13
1.29604e-12
-1.00848e-12
2.30585e-12
-1.01172e-12
3.3333e-12
-1.02637e-12
4.40295e-12
-1.07141e-12
5.54423e-12
-1.14103e-12
6.77186e-12
-1.23166e-12
8.11976e-12
-1.34433e-12
9.58882e-12
-1.46995e-12
1.11938e-11
-1.60542e-12
1.29401e-11
-1.74603e-12
1.48253e-11
-1.88349e-12
1.68502e-11
-2.02628e-12
1.90166e-11
-2.1661e-12
2.13152e-11
-2.29735e-12
2.37352e-11
-2.42141e-12
2.62665e-11
-2.53041e-12
2.89012e-11
-2.63493e-12
3.16249e-11
-2.72491e-12
3.44289e-11
-2.80344e-12
3.73043e-11
-2.87823e-12
4.02448e-11
-2.9394e-12
4.324e-11
-2.99492e-12
4.62803e-11
-3.04142e-12
4.93594e-11
-3.07741e-12
5.24656e-11
-3.10837e-12
5.55923e-11
-3.12717e-12
5.87319e-11
-3.1393e-12
6.18764e-11
-3.14639e-12
6.50227e-11
-3.14621e-12
6.81611e-11
-3.13816e-12
7.12868e-11
-3.12682e-12
7.43941e-11
-3.10663e-12
7.74789e-11
-3.08364e-12
8.05351e-11
-3.05753e-12
8.35584e-11
-3.02267e-12
8.65441e-11
-2.98451e-12
8.94882e-11
-2.9452e-12
9.23904e-11
-2.90133e-12
9.52449e-11
-2.85266e-12
9.80486e-11
-2.804e-12
1.008e-10
-2.74982e-12
1.03493e-10
-2.69153e-12
1.0613e-10
-2.6365e-12
1.0871e-10
-2.57881e-12
1.11225e-10
-2.51324e-12
1.13673e-10
-2.44721e-12
1.16055e-10
-2.38383e-12
1.18371e-10
-2.3147e-12
1.20614e-10
-2.24343e-12
1.22786e-10
-2.17353e-12
1.24885e-10
-2.0997e-12
1.26907e-10
-2.02115e-12
1.28849e-10
-1.94446e-12
1.30718e-10
-1.86953e-12
1.32509e-10
-1.79039e-12
1.34217e-10
-1.70751e-12
1.35842e-10
-1.6261e-12
1.37389e-10
-1.54476e-12
1.38851e-10
-1.46041e-12
1.40227e-10
-1.37544e-12
1.41518e-10
-1.29072e-12
1.42723e-10
-1.20415e-12
1.43838e-10
-1.11622e-12
1.44865e-10
-1.02995e-12
1.4581e-10
-9.44815e-13
1.46667e-10
-8.57754e-13
1.47432e-10
-7.66782e-13
1.48106e-10
-6.73443e-13
1.48688e-10
-5.80629e-13
1.49179e-10
-4.89567e-13
1.49579e-10
-3.9933e-13
1.49889e-10
-3.09037e-13
1.5011e-10
-2.19143e-13
1.50236e-10
-1.27826e-13
1.50268e-10
-3.32816e-14
1.50204e-10
6.24782e-14
1.50049e-10
1.55774e-13
1.49803e-10
2.46339e-13
1.49467e-10
3.36739e-13
1.49042e-10
4.28078e-13
1.48524e-10
5.19021e-13
1.47914e-10
6.09838e-13
1.4721e-10
7.02228e-13
1.46415e-10
7.94589e-13
1.45532e-10
8.83553e-13
1.44562e-10
9.69806e-13
1.43506e-10
1.05675e-12
1.42362e-10
1.14563e-12
1.41128e-10
1.23486e-12
1.39805e-10
1.32255e-12
1.38395e-10
1.40918e-12
1.36901e-10
1.49496e-12
1.35323e-10
1.57881e-12
1.33663e-10
1.66064e-12
1.31921e-10
1.74239e-12
1.30096e-10
1.82582e-12
1.28186e-10
1.90996e-12
1.26194e-10
1.99197e-12
1.24123e-10
2.0704e-12
1.21976e-10
2.14654e-12
1.19755e-10
2.22176e-12
1.17459e-10
2.2959e-12
1.1509e-10
2.36878e-12
1.1265e-10
2.44089e-12
1.10138e-10
2.51206e-12
1.07557e-10
2.58117e-12
1.04908e-10
2.64723e-12
1.02199e-10
2.70963e-12
9.94315e-11
2.76818e-12
9.66087e-11
2.82363e-12
9.37316e-11
2.87684e-12
9.08026e-11
2.92782e-12
8.78254e-11
2.97618e-12
8.4804e-11
3.0214e-12
8.17421e-11
3.06217e-12
7.86447e-11
3.0973e-12
7.55178e-11
3.12685e-12
7.23664e-11
3.1514e-12
6.9195e-11
3.17141e-12
6.60072e-11
3.18754e-12
6.28074e-11
3.20003e-12
5.96005e-11
3.20746e-12
5.63925e-11
3.20815e-12
5.31895e-11
3.20208e-12
4.99984e-11
3.18992e-12
4.68267e-11
3.17125e-12
4.36817e-11
3.14521e-12
4.05702e-11
3.11167e-12
3.74991e-11
3.07092e-12
3.44757e-11
3.02309e-12
3.15073e-11
2.96818e-12
2.86021e-11
2.90551e-12
2.57694e-11
2.83321e-12
2.30194e-11
2.74999e-12
2.03622e-11
2.65659e-12
1.7808e-11
2.55379e-12
1.53673e-11
2.44062e-12
1.30509e-11
2.31634e-12
1.08696e-11
2.18174e-12
8.83351e-12
2.03735e-12
6.95201e-12
1.88256e-12
5.23506e-12
1.71683e-12
3.69365e-12
1.54043e-12
2.33864e-12
1.35399e-12
1.18066e-12
1.15773e-12
2.29552e-13
9.52013e-13
-5.07327e-13
7.3797e-13
-1.02441e-12
5.17596e-13
-1.31914e-12
2.94672e-13
-1.39595e-12
7.64208e-14
-1.26992e-12
-1.25927e-13
-9.73874e-13
-2.95731e-13
-5.70393e-13
-4.04442e-13
-1.77429e-13
-3.95994e-13
-1.80158e-13
-1.56487e-12
2.71757e-12
-2.72855e-12
1.89687e-12
-2.37367e-12
-7.07558e-13
-1.12185e-12
-2.09424e-12
5.76279e-13
-2.68498e-12
2.59257e-12
-3.02055e-12
4.8796e-12
-3.3018e-12
7.45866e-12
-3.60675e-12
1.03655e-11
-3.97153e-12
1.36229e-11
-4.40272e-12
1.72844e-11
-4.88824e-12
2.13507e-11
-5.41149e-12
2.58411e-11
-5.9604e-12
3.07623e-11
-6.52604e-12
3.60947e-11
-7.07585e-12
4.1838e-11
-7.62789e-12
4.79715e-11
-8.15923e-12
5.44746e-11
-8.66864e-12
6.13305e-11
-9.15592e-12
6.85142e-11
-9.60306e-12
7.5996e-11
-1.00135e-11
8.37466e-11
-1.03833e-11
9.17408e-11
-1.07154e-11
9.99492e-11
-1.10133e-11
1.08348e-10
-1.12741e-11
1.16913e-10
-1.15041e-11
1.25619e-10
-1.17024e-11
1.34446e-10
-1.1865e-11
1.43369e-10
-1.2e-11
1.52365e-10
-1.21034e-11
1.61415e-10
-1.21727e-11
1.70495e-10
-1.22199e-11
1.79592e-10
-1.22417e-11
1.88684e-10
-1.22358e-11
1.97756e-10
-1.22106e-11
2.06791e-10
-1.21608e-11
2.15776e-10
-1.20897e-11
2.24695e-10
-1.20045e-11
2.33535e-10
-1.18968e-11
2.42283e-10
-1.17688e-11
2.50925e-10
-1.16289e-11
2.59456e-10
-1.14764e-11
2.67862e-10
-1.13066e-11
2.76132e-10
-1.11264e-11
2.84259e-10
-1.0933e-11
2.92235e-10
-1.0725e-11
3.00051e-10
-1.05102e-11
3.07702e-10
-1.02908e-11
3.1518e-10
-1.00561e-11
3.22474e-10
-9.80832e-12
3.29581e-10
-9.5556e-12
3.36497e-10
-9.29674e-12
3.43213e-10
-9.02904e-12
3.49724e-10
-8.75588e-12
3.56028e-10
-8.47438e-12
3.62114e-10
-8.18221e-12
3.67978e-10
-7.886e-12
3.73624e-10
-7.59008e-12
3.79046e-10
-7.28977e-12
3.84236e-10
-6.98133e-12
3.8919e-10
-6.6654e-12
3.93908e-10
-6.34453e-12
3.98384e-10
-6.02145e-12
4.02615e-10
-5.69622e-12
4.06605e-10
-5.36729e-12
4.10349e-10
-5.03337e-12
4.13839e-10
-4.69444e-12
4.17075e-10
-4.35194e-12
4.20059e-10
-4.0106e-12
4.22788e-10
-3.67146e-12
4.25259e-10
-3.32959e-12
4.2747e-10
-2.97965e-12
4.29422e-10
-2.62438e-12
4.31108e-10
-2.26863e-12
4.32528e-10
-1.91359e-12
4.33687e-10
-1.55901e-12
4.34583e-10
-1.20484e-12
4.35215e-10
-8.49503e-13
4.35578e-10
-4.8914e-13
4.35673e-10
-1.24198e-13
4.355e-10
2.38806e-13
4.35058e-10
5.95747e-13
4.34353e-10
9.49422e-13
4.33385e-10
1.30388e-12
4.32153e-10
1.65997e-12
4.30656e-10
2.0171e-12
4.28892e-10
2.37524e-12
4.26865e-10
2.73276e-12
4.24576e-10
3.08507e-12
4.22029e-10
3.43014e-12
4.19225e-10
3.77212e-12
4.16167e-10
4.11614e-12
4.12852e-10
4.46213e-12
4.0928e-10
4.80742e-12
4.05454e-10
5.14941e-12
4.01378e-10
5.48675e-12
3.97054e-10
5.81886e-12
3.92487e-10
6.14547e-12
3.8768e-10
6.46845e-12
3.82631e-10
6.79126e-12
3.77343e-10
7.11495e-12
3.71817e-10
7.43618e-12
3.66058e-10
7.75103e-12
3.60072e-10
8.05747e-12
3.53865e-10
8.35533e-12
3.4744e-10
8.64639e-12
3.40801e-10
8.93289e-12
3.33954e-10
9.21581e-12
3.26901e-10
9.49422e-12
3.19648e-10
9.7658e-12
3.12202e-10
1.00277e-11
3.04571e-10
1.02776e-11
2.96765e-10
1.05149e-11
2.88791e-10
1.07408e-11
2.80657e-10
1.09563e-11
2.72373e-10
1.11619e-11
2.63945e-10
1.13568e-11
2.55383e-10
1.15391e-11
2.46696e-10
1.17069e-11
2.37898e-10
1.18587e-11
2.29003e-10
1.19925e-11
2.20024e-10
1.21068e-11
2.10973e-10
1.2202e-11
2.01864e-10
1.22796e-11
1.92709e-10
1.23406e-11
1.83524e-10
1.23845e-11
1.74323e-10
1.24084e-11
1.65122e-10
1.24091e-11
1.55939e-10
1.23846e-11
1.46794e-10
1.23346e-11
1.37706e-10
1.22586e-11
1.28695e-10
1.21556e-11
1.1978e-10
1.20248e-11
1.10984e-10
1.18664e-11
1.02327e-10
1.16802e-11
9.38308e-11
1.14641e-11
8.55196e-11
1.12158e-11
7.74187e-11
1.09331e-11
6.95545e-11
1.0614e-11
6.19551e-11
1.02571e-11
5.46487e-11
9.86151e-12
4.76629e-11
9.42677e-12
4.10254e-11
8.95302e-12
3.47648e-11
8.44097e-12
2.89104e-11
7.89127e-12
2.34897e-11
7.30371e-12
1.85298e-11
6.67743e-12
1.40587e-11
6.01239e-12
1.01031e-11
5.31037e-12
6.68591e-12
4.57479e-12
3.8269e-12
3.81036e-12
1.54081e-12
3.02342e-12
-1.65778e-13
2.22402e-12
-1.29912e-12
1.42856e-12
-1.88496e-12
6.62545e-13
-1.97411e-12
-3.67427e-14
-1.65289e-12
-6.15541e-13
-1.05779e-12
-9.94963e-13
-3.94645e-13
-1.05231e-12
-5.76545e-13
-1.19127e-12
3.90813e-12
-2.1414e-12
2.84642e-12
-1.80942e-12
-1.03873e-12
-4.87554e-13
-3.41314e-12
1.58519e-12
-4.75954e-12
4.2902e-12
-5.72149e-12
7.61047e-12
-6.61873e-12
1.15591e-11
-7.55549e-12
1.61775e-11
-8.58991e-12
2.14941e-11
-9.71719e-12
2.75205e-11
-1.09182e-11
3.42775e-11
-1.21658e-11
4.17549e-11
-1.34403e-11
4.99312e-11
-1.47032e-11
5.88016e-11
-1.59478e-11
6.8321e-11
-1.71485e-11
7.8461e-11
-1.82966e-11
8.91812e-11
-1.93903e-11
1.00444e-10
-2.04152e-11
1.12202e-10
-2.13639e-11
1.24425e-10
-2.22382e-11
1.37064e-10
-2.30237e-11
1.50076e-10
-2.37298e-11
1.63423e-10
-2.43602e-11
1.77062e-10
-2.49129e-11
1.90954e-10
-2.53986e-11
2.05065e-10
-2.58124e-11
2.19355e-10
-2.61567e-11
2.33792e-10
-2.64383e-11
2.48342e-10
-2.66519e-11
2.62973e-10
-2.68047e-11
2.77654e-10
-2.69014e-11
2.9236e-10
-2.69454e-11
3.07055e-10
-2.69336e-11
3.21719e-10
-2.68742e-11
3.36327e-10
-2.67662e-11
3.50854e-10
-2.66178e-11
3.65277e-10
-2.6427e-11
3.79574e-10
-2.61925e-11
3.93727e-10
-2.59218e-11
4.07715e-10
-2.56157e-11
4.21523e-10
-2.52817e-11
4.35133e-10
-2.49156e-11
4.48526e-10
-2.45192e-11
4.6169e-10
-2.40932e-11
4.7461e-10
-2.36442e-11
4.87275e-10
-2.31759e-11
4.99673e-10
-2.26845e-11
5.11786e-10
-2.21696e-11
5.23607e-10
-2.16312e-11
5.35127e-10
-2.10743e-11
5.46334e-10
-2.05026e-11
5.57218e-10
-1.99167e-11
5.67773e-10
-1.93115e-11
5.77986e-10
-1.86864e-11
5.87848e-10
-1.80467e-11
5.97357e-10
-1.73968e-11
6.06508e-10
-1.6738e-11
6.15288e-10
-1.60689e-11
6.23692e-10
-1.53863e-11
6.31718e-10
-1.46894e-11
6.39359e-10
-1.39827e-11
6.46609e-10
-1.32718e-11
6.53467e-10
-1.25548e-11
6.59929e-10
-1.18279e-11
6.65985e-10
-1.1091e-11
6.71632e-10
-1.0345e-11
6.76872e-10
-9.59271e-12
6.81702e-10
-8.84011e-12
6.86116e-10
-8.08719e-12
6.90113e-10
-7.32684e-12
6.93691e-10
-6.55484e-12
6.96844e-10
-5.77551e-12
6.9957e-10
-4.99426e-12
7.0187e-10
-4.2135e-12
7.03747e-10
-3.43429e-12
7.05196e-10
-2.65496e-12
7.06213e-10
-1.87005e-12
7.06799e-10
-1.07612e-12
7.06953e-10
-2.77152e-13
7.06676e-10
5.1787e-13
7.05968e-10
1.30497e-12
7.04833e-10
2.08717e-12
7.0327e-10
2.86872e-12
7.01276e-10
3.6519e-12
6.98852e-10
4.43839e-12
6.96001e-10
5.22657e-12
6.92725e-10
6.01053e-12
6.89026e-10
6.78453e-12
6.84908e-10
7.54897e-12
6.80372e-10
8.30942e-12
6.75418e-10
9.07038e-12
6.70048e-10
9.83209e-12
6.64264e-10
1.05913e-11
6.5807e-10
1.13441e-11
6.51472e-10
1.20868e-11
6.44473e-10
1.28183e-11
6.37077e-10
1.35405e-11
6.2929e-10
1.42569e-11
6.21112e-10
1.49703e-11
6.12546e-10
1.56801e-11
6.036e-10
1.63815e-11
5.9428e-10
1.70699e-11
5.84596e-10
1.77425e-11
5.74553e-10
1.83989e-11
5.64159e-10
1.9041e-11
5.53421e-10
1.96712e-11
5.42346e-10
2.02905e-11
5.30942e-10
2.08973e-11
5.19219e-10
2.14875e-11
5.07191e-10
2.20564e-11
4.94869e-10
2.26006e-11
4.82266e-10
2.31186e-11
4.69394e-10
2.36119e-11
4.56266e-10
2.40826e-11
4.42897e-10
2.45304e-11
4.293e-10
2.49534e-11
4.15492e-10
2.53479e-11
4.01489e-10
2.57098e-11
3.87311e-10
2.6036e-11
3.72979e-10
2.63241e-11
3.58513e-10
2.6573e-11
3.43933e-10
2.67822e-11
3.29261e-10
2.69525e-11
3.14517e-10
2.70839e-11
2.99727e-10
2.71745e-11
2.84914e-10
2.72199e-11
2.70107e-10
2.72156e-11
2.55332e-10
2.71586e-11
2.40621e-10
2.70464e-11
2.26003e-10
2.68767e-11
2.11509e-10
2.66485e-11
1.97173e-10
2.6361e-11
1.83026e-10
2.60127e-11
1.69105e-10
2.56016e-11
1.55445e-10
2.51246e-11
1.42083e-10
2.45774e-11
1.29059e-10
2.39559e-11
1.16416e-10
2.32569e-11
1.04194e-10
2.24787e-11
9.24369e-11
2.16195e-11
8.11873e-11
2.06774e-11
7.04893e-11
1.96521e-11
6.03858e-11
1.8545e-11
5.09198e-11
1.7357e-11
4.21343e-11
1.6088e-11
3.40719e-11
1.47386e-11
2.6773e-11
1.33112e-11
2.02746e-11
1.18102e-11
1.46085e-11
1.02424e-11
9.79992e-12
8.61925e-12
5.86473e-12
6.95803e-12
2.80479e-12
5.28327e-12
6.04033e-13
3.62964e-12
-7.80353e-13
2.04715e-12
-1.42579e-12
6.0706e-13
-1.45357e-12
-5.91378e-13
-1.03774e-12
-1.41347e-12
-4.21042e-13
-1.66552e-12
-9.9787e-13
-7.20727e-13
4.6302e-12
-1.189e-12
3.31376e-12
-5.69369e-13
-1.6573e-12
1.16078e-12
-5.14578e-12
3.87533e-12
-7.47329e-12
7.52966e-12
-9.37868e-12
1.20914e-11
-1.11864e-11
1.76033e-11
-1.30618e-11
2.4064e-11
-1.50513e-11
3.15018e-11
-1.71583e-11
3.99427e-11
-1.93524e-11
4.93636e-11
-2.1589e-11
5.97605e-11
-2.38352e-11
7.11122e-11
-2.60533e-11
8.33715e-11
-2.82092e-11
9.65019e-11
-3.02781e-11
1.10455e-10
-3.22504e-11
1.25174e-10
-3.41079e-11
1.40602e-10
-3.58448e-11
1.56695e-10
-3.74545e-11
1.73385e-10
-3.89258e-11
1.90624e-10
-4.02628e-11
2.0836e-10
-4.14659e-11
2.26535e-10
-4.2534e-11
2.45097e-10
-4.34759e-11
2.63996e-10
-4.42949e-11
2.83179e-10
-4.49949e-11
3.02603e-10
-4.55814e-11
3.2222e-10
-4.6053e-11
3.41986e-10
-4.64176e-11
3.6186e-10
-4.6679e-11
3.81806e-10
-4.68453e-11
4.01776e-10
-4.69173e-11
4.21743e-10
-4.68993e-11
4.41666e-10
-4.67953e-11
4.61513e-10
-4.66146e-11
4.81254e-10
-4.63591e-11
5.00857e-10
-4.60288e-11
5.20293e-10
-4.56297e-11
5.39533e-10
-4.51634e-11
5.5856e-10
-4.46413e-11
5.7734e-10
-4.40628e-11
5.95851e-10
-4.34303e-11
6.14076e-10
-4.2742e-11
6.3199e-10
-4.20077e-11
6.49576e-10
-4.12326e-11
6.66818e-10
-4.04159e-11
6.83692e-10
-3.95582e-11
7.00182e-10
-3.86607e-11
7.16276e-10
-3.77243e-11
7.31961e-10
-3.67566e-11
7.4722e-10
-3.57622e-11
7.62041e-10
-3.47373e-11
7.7641e-10
-3.36787e-11
7.90315e-10
-3.25908e-11
8.03746e-10
-3.14796e-11
8.16699e-10
-3.03488e-11
8.2916e-10
-2.91989e-11
8.41114e-10
-2.8027e-11
8.52557e-10
-2.68304e-11
8.63483e-10
-2.56137e-11
8.73882e-10
-2.43838e-11
8.83753e-10
-2.31438e-11
8.93091e-10
-2.18909e-11
9.01886e-10
-2.06215e-11
9.10129e-10
-1.93344e-11
9.17815e-10
-1.8032e-11
9.24946e-10
-1.67222e-11
9.31516e-10
-1.54105e-11
9.37519e-10
-1.40936e-11
9.42956e-10
-1.27634e-11
9.4782e-10
-1.14184e-11
9.52105e-10
-1.0063e-11
9.55812e-10
-8.70224e-12
9.58941e-10
-7.34108e-12
9.61491e-10
-5.98181e-12
9.63458e-10
-4.62081e-12
9.64838e-10
-3.25024e-12
9.65631e-10
-1.86911e-12
9.65837e-10
-4.8458e-13
9.65458e-10
8.95056e-13
9.64495e-10
2.26784e-12
9.62949e-10
3.63567e-12
9.60817e-10
5.00172e-12
9.581e-10
6.36957e-12
9.54798e-10
7.74065e-12
9.50915e-10
9.11068e-12
9.46453e-10
1.04719e-11
9.41416e-10
1.18205e-11
9.35807e-10
1.31585e-11
9.29627e-10
1.44914e-11
9.22876e-10
1.58223e-11
9.15557e-10
1.71507e-11
9.07676e-10
1.84724e-11
8.99238e-10
1.97823e-11
8.90249e-10
2.10763e-11
8.80714e-10
2.2353e-11
8.70639e-10
2.36157e-11
8.60027e-10
2.48691e-11
8.48884e-10
2.61144e-11
8.37216e-10
2.73483e-11
8.25032e-10
2.85648e-11
8.12344e-10
2.97588e-11
7.9916e-10
3.0927e-11
7.85488e-10
3.20696e-11
7.71339e-10
3.31891e-11
7.56725e-10
3.4287e-11
7.41654e-10
3.53622e-11
7.26139e-10
3.64118e-11
7.10195e-10
3.74302e-11
6.93839e-10
3.84118e-11
6.77087e-10
3.93525e-11
6.59956e-10
4.02507e-11
6.42462e-10
4.11068e-11
6.24622e-10
4.19217e-11
6.06457e-10
4.26952e-11
5.87986e-10
4.34235e-11
5.69232e-10
4.41012e-11
5.5022e-10
4.47223e-11
5.30973e-10
4.52822e-11
5.1152e-10
4.57773e-11
4.91887e-10
4.62057e-11
4.72101e-10
4.65672e-11
4.52191e-10
4.68618e-11
4.32189e-10
4.7087e-11
4.12126e-10
4.72379e-11
3.92037e-10
4.7309e-11
3.71957e-10
4.72945e-11
3.51925e-10
4.71894e-11
3.31981e-10
4.699e-11
3.12165e-10
4.66928e-11
2.92519e-10
4.62947e-11
2.73086e-10
4.57936e-11
2.5391e-10
4.51873e-11
2.3504e-10
4.44721e-11
2.16522e-10
4.36419e-11
1.98409e-10
4.26905e-11
1.80753e-10
4.16127e-11
1.63606e-10
4.04041e-11
1.47023e-10
3.90609e-11
1.31061e-10
3.75806e-11
1.15776e-10
3.59622e-11
1.01223e-10
3.42055e-11
8.74583e-11
3.23103e-11
7.45383e-11
3.02776e-11
6.25171e-11
2.81091e-11
5.14475e-11
2.58076e-11
4.13793e-11
2.33786e-11
3.23582e-11
2.08314e-11
2.44212e-11
1.81799e-11
1.7596e-11
1.54447e-11
1.18983e-11
1.26555e-11
7.32662e-12
9.85444e-12
3.85693e-12
7.09984e-12
1.4348e-12
4.47069e-12
-3.02904e-14
2.07346e-12
-6.7442e-13
5.22343e-14
-6.88184e-13
-1.40262e-12
-3.28387e-13
-2.02443e-12
-1.32595e-12
-2.15004e-13
4.84551e-12
-4.02471e-14
3.14086e-12
1.12137e-12
-2.81731e-12
3.48011e-12
-7.50758e-12
7.0777e-12
-1.10669e-11
1.1874e-11
-1.41735e-11
1.78746e-11
-1.71865e-11
2.50791e-11
-2.02694e-11
3.35082e-11
-2.34796e-11
4.31673e-11
-2.68171e-11
5.4046e-11
-3.02326e-11
6.61447e-11
-3.36866e-11
7.94281e-11
-3.7117e-11
9.38633e-11
-4.04884e-11
1.09408e-10
-4.37523e-11
1.26009e-10
-4.68786e-11
1.43602e-10
-4.9845e-11
1.62126e-10
-5.26328e-11
1.81514e-10
-5.52341e-11
2.01701e-10
-5.76404e-11
2.22618e-10
-5.98438e-11
2.44205e-10
-6.18491e-11
2.6639e-10
-6.36496e-11
2.89111e-10
-6.52569e-11
3.12308e-10
-6.66722e-11
3.35914e-10
-6.79008e-11
3.59871e-10
-6.89536e-11
3.84125e-10
-6.98326e-11
4.08611e-10
-7.05405e-11
4.33283e-10
-7.10915e-11
4.58092e-10
-7.14863e-11
4.82983e-10
-7.17373e-11
5.07912e-10
-7.18461e-11
5.32835e-10
-7.18201e-11
5.57705e-10
-7.16662e-11
5.82485e-10
-7.13948e-11
6.07134e-10
-7.10074e-11
6.31613e-10
-7.05069e-11
6.55886e-10
-6.99037e-11
6.79925e-10
-6.91997e-11
7.03694e-10
-6.84091e-11
7.27158e-10
-6.75295e-11
7.50295e-10
-6.65636e-11
7.73072e-10
-6.55185e-11
7.95465e-10
-6.44023e-11
8.17453e-10
-6.32198e-11
8.3901e-10
-6.19716e-11
8.60108e-10
-6.06585e-11
8.80731e-10
-5.92831e-11
9.0086e-10
-5.78527e-11
9.20477e-10
-5.63742e-11
9.39563e-10
-5.48491e-11
9.58101e-10
-5.32738e-11
9.76072e-10
-5.16499e-11
9.93463e-10
-4.99835e-11
1.01027e-09
-4.82814e-11
1.02647e-09
-4.65489e-11
1.04205e-09
-4.47843e-11
1.05701e-09
-4.29828e-11
1.07133e-09
-4.1146e-11
1.08499e-09
-3.92822e-11
1.098e-09
-3.73974e-11
1.11035e-09
-3.54928e-11
1.12203e-09
-3.35676e-11
1.13303e-09
-3.16176e-11
1.14333e-09
-2.96416e-11
1.15295e-09
-2.76461e-11
1.16187e-09
-2.56409e-11
1.17008e-09
-2.36272e-11
1.17759e-09
-2.16002e-11
1.18438e-09
-1.95555e-11
1.19046e-09
-1.74939e-11
1.19581e-09
-1.54189e-11
1.20045e-09
-1.33365e-11
1.20436e-09
-1.12526e-11
1.20754e-09
-9.16709e-12
1.20999e-09
-7.0742e-12
1.21172e-09
-4.96876e-12
1.2127e-09
-2.85421e-12
1.21296e-09
-7.39047e-13
1.21248e-09
1.37074e-12
1.21127e-09
3.47454e-12
1.20933e-09
5.57407e-12
1.20666e-09
7.67287e-12
1.20326e-09
9.77458e-12
1.19912e-09
1.18775e-11
1.19426e-09
1.39743e-11
1.18867e-09
1.60573e-11
1.18237e-09
1.81253e-11
1.17534e-09
2.01822e-11
1.1676e-09
2.22325e-11
1.15915e-09
2.42774e-11
1.14998e-09
2.6315e-11
1.14012e-09
2.83402e-11
1.12955e-09
3.03463e-11
1.1183e-09
3.23291e-11
1.10636e-09
3.4289e-11
1.09375e-09
3.62299e-11
1.08046e-09
3.81551e-11
1.06651e-09
4.0064e-11
1.05191e-09
4.19518e-11
1.03666e-09
4.38112e-11
1.02079e-09
4.56359e-11
1.00429e-09
4.74227e-11
9.87188e-10
4.91724e-11
9.69489e-10
5.08873e-11
9.51209e-10
5.25679e-11
9.3236e-10
5.4211e-11
9.12961e-10
5.58111e-11
8.93029e-10
5.73615e-11
8.72586e-10
5.88552e-11
8.5165e-10
6.02879e-11
8.30242e-10
6.16581e-11
8.08384e-10
6.29653e-11
7.86097e-10
6.4209e-11
7.63407e-10
6.53862e-11
7.40338e-10
6.64915e-11
7.1692e-10
6.75184e-11
6.93182e-10
6.84596e-11
6.69157e-10
6.93081e-11
6.44876e-10
7.00589e-11
6.20372e-10
7.07095e-11
5.95679e-10
7.1259e-11
5.70835e-10
7.17056e-11
5.45877e-10
7.20446e-11
5.20847e-10
7.22683e-11
4.95787e-10
7.23689e-11
4.70742e-10
7.2339e-11
4.4576e-10
7.21722e-11
4.20887e-10
7.18626e-11
3.96175e-10
7.14046e-11
3.71675e-10
7.07945e-11
3.4744e-10
7.00285e-11
3.23526e-10
6.91016e-11
2.9999e-10
6.80075e-11
2.76892e-10
6.67389e-11
2.54295e-10
6.52879e-11
2.32261e-10
6.36473e-11
2.10856e-10
6.18105e-11
1.90144e-10
5.97731e-11
1.70193e-10
5.75319e-11
1.51068e-10
5.50855e-11
1.32839e-10
5.2434e-11
1.15571e-10
4.95781e-11
9.93298e-11
4.65191e-11
8.41793e-11
4.32596e-11
7.01817e-11
3.98058e-11
5.7393e-11
3.61678e-11
4.58628e-11
3.23613e-11
3.56331e-11
2.8409e-11
2.67346e-11
2.43429e-11
1.91827e-11
2.02075e-11
1.29726e-11
1.60642e-11
8.07596e-12
1.19958e-11
4.43468e-12
8.11146e-12
1.95451e-12
4.55383e-12
4.97894e-13
1.50979e-12
-1.25784e-13
-7.80172e-13
-1.66967e-13
-1.98365e-12
-1.49285e-12
2.48423e-13
4.59309e-12
1.09852e-12
2.29251e-12
2.94865e-12
-4.66734e-12
6.11121e-12
-1.06694e-11
1.07139e-11
-1.56682e-11
1.67834e-11
-2.02464e-11
2.4327e-11
-2.47281e-11
3.33378e-11
-2.92766e-11
4.3802e-11
-3.3947e-11
5.57188e-11
-3.87326e-11
6.90708e-11
-4.35859e-11
8.38273e-11
-4.84411e-11
9.99555e-11
-5.3248e-11
1.17409e-10
-5.79404e-11
1.36137e-10
-6.24803e-11
1.56075e-10
-6.68175e-11
1.77161e-10
-7.09268e-11
1.99319e-10
-7.47917e-11
2.22476e-10
-7.83897e-11
2.46552e-10
-8.17168e-11
2.71478e-10
-8.4771e-11
2.97174e-10
-8.7545e-11
3.23569e-10
-9.0046e-11
3.50588e-10
-9.22752e-11
3.78156e-10
-9.42395e-11
4.06202e-10
-9.5949e-11
4.34662e-10
-9.74117e-11
4.63461e-10
-9.8631e-11
4.92541e-10
-9.96205e-11
5.21838e-10
-1.00386e-10
5.51293e-10
-1.00942e-10
5.80846e-10
-1.01291e-10
6.10446e-10
-1.01445e-10
6.40038e-10
-1.01411e-10
6.69571e-10
-1.01201e-10
6.99001e-10
-1.00823e-10
7.28274e-10
-1.00281e-10
7.5735e-10
-9.95849e-11
7.86187e-10
-9.87386e-11
8.14748e-10
-9.77605e-11
8.42988e-10
-9.6651e-11
8.70875e-10
-9.54154e-11
8.98371e-10
-9.40591e-11
9.25445e-10
-9.25935e-11
9.52068e-10
-9.10251e-11
9.78211e-10
-8.936e-11
1.00384e-09
-8.76004e-11
1.02893e-09
-8.57466e-11
1.05345e-09
-8.38071e-11
1.07739e-09
-8.17923e-11
1.10072e-09
-7.97064e-11
1.12342e-09
-7.75493e-11
1.14547e-09
-7.53215e-11
1.16685e-09
-7.30276e-11
1.18754e-09
-7.06747e-11
1.20753e-09
-6.82719e-11
1.2268e-09
-6.58225e-11
1.24534e-09
-6.33233e-11
1.26313e-09
-6.07723e-11
1.28016e-09
-5.81769e-11
1.29642e-09
-5.55448e-11
1.31191e-09
-5.28808e-11
1.3266e-09
-5.0186e-11
1.34049e-09
-4.74588e-11
1.35357e-09
-4.46961e-11
1.36583e-09
-4.19012e-11
1.37727e-09
-3.90843e-11
1.38788e-09
-3.62519e-11
1.39765e-09
-3.34018e-11
1.40658e-09
-3.05296e-11
1.41466e-09
-2.7634e-11
1.42188e-09
-2.47178e-11
1.42825e-09
-2.17859e-11
1.43376e-09
-1.88463e-11
1.43841e-09
-1.59035e-11
1.4422e-09
-1.29534e-11
1.44511e-09
-9.98937e-12
1.44715e-09
-7.01086e-12
1.44832e-09
-4.02521e-12
1.44863e-09
-1.04029e-12
1.44806e-09
1.93939e-12
1.44662e-09
4.91282e-12
1.44431e-09
7.88292e-12
1.44113e-09
1.08544e-11
1.43707e-09
1.38291e-11
1.43215e-09
1.68012e-11
1.42636e-09
1.97617e-11
1.41972e-09
2.27047e-11
1.41221e-09
2.56309e-11
1.40385e-09
2.85441e-11
1.39463e-09
3.1448e-11
1.38457e-09
3.43428e-11
1.37366e-09
3.72241e-11
1.36191e-09
4.00851e-11
1.34934e-09
4.2919e-11
1.33595e-09
4.57222e-11
1.32174e-09
4.84961e-11
1.30673e-09
5.12444e-11
1.29091e-09
5.39686e-11
1.27431e-09
5.66657e-11
1.25693e-09
5.93292e-11
1.23879e-09
6.1951e-11
1.2199e-09
6.45243e-11
1.20028e-09
6.70464e-11
1.17993e-09
6.95179e-11
1.15888e-09
7.19393e-11
1.13714e-09
7.43098e-11
1.11473e-09
7.6625e-11
1.09166e-09
7.8877e-11
1.06797e-09
8.10568e-11
1.04366e-09
8.31566e-11
1.01878e-09
8.51717e-11
9.93338e-10
8.71003e-11
9.67362e-10
8.89409e-11
9.4088e-10
9.06907e-11
9.13922e-10
9.23447e-11
8.86518e-10
9.38952e-11
8.58702e-10
9.53334e-11
8.30511e-10
9.66508e-11
8.0198e-10
9.78389e-11
7.73148e-10
9.88911e-11
7.44053e-10
9.98042e-11
7.14737e-10
1.00576e-10
6.85243e-10
1.012e-10
6.55616e-10
1.01671e-10
6.25906e-10
1.01978e-10
5.96163e-10
1.02112e-10
5.66439e-10
1.02063e-10
5.36791e-10
1.01821e-10
5.07273e-10
1.0138e-10
4.77946e-10
1.00732e-10
4.48868e-10
9.98719e-11
4.20104e-10
9.87928e-11
3.91718e-10
9.74879e-11
3.63777e-10
9.59483e-11
3.36352e-10
9.4164e-11
3.09513e-10
9.21258e-11
2.83336e-10
8.98251e-11
2.57893e-10
8.72541e-11
2.33259e-10
8.44068e-11
2.09511e-10
8.12793e-11
1.86726e-10
7.78707e-11
1.6498e-10
7.41808e-11
1.44346e-10
7.02109e-11
1.24901e-10
6.59638e-11
1.06715e-10
6.1445e-11
8.98578e-11
5.6664e-11
7.43894e-11
5.16366e-11
6.03649e-11
4.6386e-11
4.7829e-11
4.09446e-11
3.68137e-11
3.53575e-11
2.73361e-11
2.96854e-11
1.93921e-11
2.40092e-11
1.29529e-11
1.84352e-11
7.96071e-12
1.31023e-11
4.32557e-12
8.18783e-12
1.91894e-12
3.91736e-12
5.6376e-13
5.75268e-13
3.12514e-14
-1.45157e-12
-1.46186e-12
6.05783e-13
3.98925e-12
2.12153e-12
7.75488e-13
4.72115e-12
-7.26708e-12
8.77399e-12
-1.47233e-11
1.44835e-11
-2.13765e-11
2.19043e-11
-2.76675e-11
3.10442e-11
-3.38671e-11
4.189e-11
-4.01225e-11
5.44201e-11
-4.64759e-11
6.85992e-11
-5.29127e-11
8.44002e-11
-5.93854e-11
1.01783e-10
-6.58262e-11
1.20699e-10
-7.21619e-11
1.41095e-10
-7.83377e-11
1.62906e-10
-8.42913e-11
1.8607e-10
-8.99801e-11
2.10507e-10
-9.53678e-11
2.36144e-10
-1.00425e-10
2.62895e-10
-1.05143e-10
2.9068e-10
-1.09502e-10
3.19416e-10
-1.13505e-10
3.49015e-10
-1.17146e-10
3.79402e-10
-1.20431e-10
4.10488e-10
-1.23361e-10
4.42194e-10
-1.25947e-10
4.74443e-10
-1.28197e-10
5.07153e-10
-1.30122e-10
5.40252e-10
-1.31731e-10
5.73668e-10
-1.33036e-10
6.0733e-10
-1.34049e-10
6.41171e-10
-1.34784e-10
6.75126e-10
-1.35246e-10
7.09133e-10
-1.3545e-10
7.43131e-10
-1.35411e-10
7.77067e-10
-1.35136e-10
8.1088e-10
-1.34636e-10
8.44517e-10
-1.3392e-10
8.77932e-10
-1.32998e-10
9.11076e-10
-1.31882e-10
9.43902e-10
-1.30588e-10
9.76366e-10
-1.29114e-10
1.00842e-09
-1.27473e-10
1.04004e-09
-1.25673e-10
1.07117e-09
-1.23726e-10
1.10179e-09
-1.21641e-10
1.13185e-09
-1.19423e-10
1.16132e-09
-1.17075e-10
1.19018e-09
-1.14603e-10
1.21839e-09
-1.12019e-10
1.24593e-09
-1.09333e-10
1.27277e-09
-1.06547e-10
1.29889e-09
-1.03664e-10
1.32425e-09
-1.00687e-10
1.34885e-09
-9.76241e-11
1.37266e-09
-9.44845e-11
1.39567e-09
-9.12767e-11
1.41784e-09
-8.80009e-11
1.43918e-09
-8.46555e-11
1.45965e-09
-8.12447e-11
1.47925e-09
-7.77771e-11
1.49796e-09
-7.42609e-11
1.51578e-09
-7.07007e-11
1.53269e-09
-6.70964e-11
1.54868e-09
-6.3445e-11
1.56373e-09
-5.97473e-11
1.57784e-09
-5.6012e-11
1.59101e-09
-5.22497e-11
1.60322e-09
-4.8463e-11
1.61447e-09
-4.4649e-11
1.62474e-09
-4.08053e-11
1.63404e-09
-3.69318e-11
1.64235e-09
-3.30325e-11
1.64968e-09
-2.91157e-11
1.65603e-09
-2.51898e-11
1.66138e-09
-2.1256e-11
1.66573e-09
-1.73083e-11
1.66909e-09
-1.33425e-11
1.67144e-09
-9.36252e-12
1.67279e-09
-5.37601e-12
1.67314e-09
-1.39032e-12
1.67249e-09
2.59068e-12
1.67083e-09
6.56604e-12
1.66818e-09
1.054e-11
1.66451e-09
1.45168e-11
1.65985e-09
1.84943e-11
1.65418e-09
2.24646e-11
1.64753e-09
2.64187e-11
1.63988e-09
3.03526e-11
1.63124e-09
3.42678e-11
1.62162e-09
3.81679e-11
1.61101e-09
4.20546e-11
1.59943e-09
4.59265e-11
1.58687e-09
4.97777e-11
1.57336e-09
5.35999e-11
1.55889e-09
5.73859e-11
1.54348e-09
6.11336e-11
1.52713e-09
6.48452e-11
1.50985e-09
6.85229e-11
1.49165e-09
7.21658e-11
1.47255e-09
7.57685e-11
1.45256e-09
7.93225e-11
1.43169e-09
8.28195e-11
1.40996e-09
8.6253e-11
1.38739e-09
8.96201e-11
1.36398e-09
9.29205e-11
1.33977e-09
9.61536e-11
1.31476e-09
9.93159e-11
1.28899e-09
1.02401e-10
1.26246e-09
1.05399e-10
1.23522e-09
1.08299e-10
1.20728e-09
1.11094e-10
1.17868e-09
1.13777e-10
1.14943e-09
1.16346e-10
1.11958e-09
1.18797e-10
1.08914e-09
1.21126e-10
1.05816e-09
1.23324e-10
1.02667e-09
1.25384e-10
9.94716e-10
1.27292e-10
9.62329e-10
1.29039e-10
9.29554e-10
1.30614e-10
8.96433e-10
1.32011e-10
8.63013e-10
1.33224e-10
8.29341e-10
1.34249e-10
7.95466e-10
1.35076e-10
7.6144e-10
1.35696e-10
7.2732e-10
1.36098e-10
6.93164e-10
1.36268e-10
6.59031e-10
1.36196e-10
6.24984e-10
1.35869e-10
5.91086e-10
1.35278e-10
5.57404e-10
1.34414e-10
5.24008e-10
1.33268e-10
4.90967e-10
1.31834e-10
4.58356e-10
1.30099e-10
4.26251e-10
1.28053e-10
3.94731e-10
1.25685e-10
3.63876e-10
1.22982e-10
3.33767e-10
1.19934e-10
3.04487e-10
1.16533e-10
2.76121e-10
1.12772e-10
2.48752e-10
1.08648e-10
2.22465e-10
1.04158e-10
1.97343e-10
9.93028e-11
1.7347e-10
9.40845e-11
1.50926e-10
8.85078e-11
1.29789e-10
8.25816e-11
1.10133e-10
7.63203e-11
9.20245e-11
6.97457e-11
7.55215e-11
6.2889e-11
6.06722e-11
5.57935e-11
4.75118e-11
4.85176e-11
3.60589e-11
4.11385e-11
2.63122e-11
3.37564e-11
1.82474e-11
2.65005e-11
1.18134e-11
1.95357e-11
6.92966e-12
1.30701e-11
3.48306e-12
7.36414e-12
1.32012e-12
2.73868e-12
2.45752e-13
-3.77444e-13
-1.21635e-12
8.81373e-13
3.10691e-12
2.99688e-12
-1.33719e-12
6.38664e-12
-1.06614e-11
1.14156e-11
-1.97469e-11
1.82792e-11
-2.82431e-11
2.70816e-11
-3.64691e-11
3.78382e-11
-4.46235e-11
5.05169e-11
-5.28021e-11
6.50853e-11
-6.1043e-11
8.14982e-11
-6.93257e-11
9.97056e-11
-7.75936e-11
1.19655e-10
-8.57732e-11
1.41287e-10
-9.3795e-11
1.64537e-10
-1.01587e-10
1.89335e-10
-1.09087e-10
2.15604e-10
-1.16252e-10
2.43267e-10
-1.23028e-10
2.72239e-10
-1.29398e-10
3.02431e-10
-1.35334e-10
3.33755e-10
-1.40826e-10
3.66118e-10
-1.45869e-10
3.99434e-10
-1.50462e-10
4.3361e-10
-1.54605e-10
4.68558e-10
-1.58309e-10
5.04188e-10
-1.61578e-10
5.40417e-10
-1.64425e-10
5.77152e-10
-1.66859e-10
6.14321e-10
-1.68898e-10
6.51837e-10
-1.70552e-10
6.89626e-10
-1.71839e-10
7.27613e-10
-1.7277e-10
7.65726e-10
-1.73358e-10
8.03895e-10
-1.73621e-10
8.42058e-10
-1.73572e-10
8.80148e-10
-1.73226e-10
9.181e-10
-1.72589e-10
9.55861e-10
-1.71679e-10
9.93371e-10
-1.70507e-10
1.03058e-09
-1.69093e-10
1.06743e-09
-1.67441e-10
1.10388e-09
-1.65563e-10
1.13988e-09
-1.63469e-10
1.17538e-09
-1.61174e-10
1.21035e-09
-1.5869e-10
1.24473e-09
-1.56026e-10
1.27849e-09
-1.53188e-10
1.3116e-09
-1.50181e-10
1.34402e-09
-1.47019e-10
1.37571e-09
-1.43713e-10
1.40665e-09
-1.40273e-10
1.43681e-09
-1.36702e-10
1.46615e-09
-1.33004e-10
1.49465e-09
-1.29187e-10
1.52229e-09
-1.25263e-10
1.54905e-09
-1.21242e-10
1.5749e-09
-1.17128e-10
1.59982e-09
-1.12923e-10
1.62379e-09
-1.08628e-10
1.6468e-09
-1.04254e-10
1.66883e-09
-9.98072e-11
1.68987e-09
-9.52981e-11
1.7099e-09
-9.07302e-11
1.7289e-09
-8.61018e-11
1.74687e-09
-8.14117e-11
1.76379e-09
-7.66666e-11
1.77965e-09
-7.18773e-11
1.79445e-09
-6.70515e-11
1.80818e-09
-6.21903e-11
1.82083e-09
-5.7292e-11
1.83238e-09
-5.23556e-11
1.84283e-09
-4.73833e-11
1.85218e-09
-4.23815e-11
1.86042e-09
-3.73603e-11
1.86755e-09
-3.23259e-11
1.87357e-09
-2.72758e-11
1.87847e-09
-2.22053e-11
1.88224e-09
-1.71145e-11
1.88489e-09
-1.20104e-11
1.88641e-09
-6.90018e-12
1.88682e-09
-1.7904e-12
1.88609e-09
3.31526e-12
1.88424e-09
8.41771e-12
1.88126e-09
1.35215e-11
1.87714e-09
1.86281e-11
1.87191e-09
2.37314e-11
1.86555e-09