/*--------------------------------*- C++ -*----------------------------------*\
  =========                 |
  \\      /  F ield         | OpenFOAM: The Open Source CFD Toolbox
   \\    /   O peration     | Website:  https://openfoam.org
    \\  /    A nd           | Version:  7
     \\/     M anipulation  |
\*---------------------------------------------------------------------------*/
FoamFile
{
    version     2.0;
    format      ascii;
    class       volScalarField;
    location    "0.0875";
    object      p;
}
// * * * * * * * * * * * * * * * * * * * * * * * * * * * * * * * * * * * * * //

dimensions      [0 2 -2 0 0 0 0];

internalField   nonuniform List<scalar> 
51200
(
5.91663e-08
-4.68799e-05
-0.000108391
-0.000165265
-0.000212317
-0.000257091
-0.000303133
-0.000352918
-0.000407717
-0.000468123
-0.000533396
-0.000602539
-0.0006737
-0.000745427
-0.000815858
-0.000884397
-0.000950244
-0.00101219
-0.00106846
-0.00111842
-0.00116178
-0.00119933
-0.00123113
-0.00125686
-0.00127631
-0.00129023
-0.00129984
-0.00130634
-0.00130965
-0.00130938
-0.00130589
-0.00130004
-0.0012926
-0.00128382
-0.00127493
-0.00126556
-0.00125685
-0.00124947
-0.00124378
-0.00123972
-0.00123709
-0.00123591
-0.00123641
-0.00123942
-0.0012456
-0.00125475
-0.00126678
-0.0012817
-0.00129912
-0.00131884
-0.00134093
-0.00136483
-0.00138964
-0.00141499
-0.00144127
-0.00146885
-0.00149815
-0.00152964
-0.00156326
-0.00159831
-0.00163408
-0.00167028
-0.00170691
-0.00174395
-0.00178139
-0.0018193
-0.00185745
-0.00189543
-0.00193309
-0.00197049
-0.00200772
-0.00204469
-0.0020814
-0.00211813
-0.00215501
-0.00219188
-0.00222855
-0.00226499
-0.00230116
-0.00233692
-0.00237211
-0.0024067
-0.00244075
-0.00247441
-0.00250782
-0.0025412
-0.00257478
-0.00260863
-0.00264259
-0.00267652
-0.0027104
-0.00274437
-0.00277857
-0.00281297
-0.0028475
-0.0028822
-0.0029171
-0.00295211
-0.00298703
-0.00302159
-0.00305558
-0.00308888
-0.00312141
-0.00315308
-0.0031839
-0.00321395
-0.00324335
-0.00327208
-0.00330014
-0.00332758
-0.00335452
-0.00338104
-0.00340718
-0.00343286
-0.0034581
-0.00348314
-0.00350822
-0.00353336
-0.00355837
-0.00358293
-0.00360666
-0.00362927
-0.00365057
-0.00367049
-0.00368905
-0.00370643
-0.00372297
-0.00373881
-0.00375381
-0.0037678
-0.00378074
-0.0037927
-0.00380379
-0.00381409
-0.00382355
-0.00383203
-0.00383937
-0.00384551
-0.00385036
-0.00385377
-0.00385564
-0.00385613
-0.00385548
-0.00385377
-0.00385103
-0.00384726
-0.0038425
-0.0038368
-0.00383031
-0.00382329
-0.00381597
-0.00380844
-0.00380083
-0.00379345
-0.00378679
-0.00378125
-0.00377703
-0.00377423
-0.00377299
-0.00377277
-4.19266e-05
-0.000102016
-0.00016495
-0.000222863
-0.00027464
-0.000322938
-0.000370284
-0.000419114
-0.000471069
-0.000526216
-0.000584404
-0.000644888
-0.0007073
-0.000769811
-0.000831379
-0.000890471
-0.000947431
-0.00100163
-0.00105167
-0.00109624
-0.00113512
-0.0011686
-0.00119763
-0.00122215
-0.00124172
-0.00125619
-0.00126709
-0.00127539
-0.00128113
-0.00128399
-0.00128429
-0.00128221
-0.00127837
-0.00127379
-0.00126846
-0.00126335
-0.00125852
-0.00125436
-0.0012516
-0.00125028
-0.00125029
-0.00125155
-0.00125446
-0.00125947
-0.00126698
-0.00127748
-0.00129086
-0.00130659
-0.00132429
-0.0013437
-0.00136467
-0.0013871
-0.0014107
-0.00143532
-0.00146104
-0.00148797
-0.0015163
-0.00154638
-0.00157827
-0.00161159
-0.0016459
-0.00168098
-0.00171656
-0.00175239
-0.00178859
-0.00182537
-0.00186252
-0.00189964
-0.00193654
-0.0019733
-0.00200986
-0.00204613
-0.0020823
-0.00211864
-0.00215516
-0.00219164
-0.00222794
-0.00226406
-0.00229989
-0.00233525
-0.00237005
-0.00240433
-0.00243824
-0.00247178
-0.00250505
-0.00253833
-0.00257187
-0.0026057
-0.00263967
-0.00267354
-0.00270727
-0.00274101
-0.00277488
-0.0028089
-0.00284316
-0.00287769
-0.00291241
-0.00294718
-0.00298183
-0.00301618
-0.00305008
-0.0030834
-0.00311587
-0.00314733
-0.00317788
-0.00320766
-0.00323675
-0.00326515
-0.00329287
-0.00331984
-0.00334619
-0.00337209
-0.00339761
-0.00342269
-0.00344747
-0.00347225
-0.00349709
-0.00352183
-0.00354633
-0.00357037
-0.00359357
-0.00361569
-0.00363658
-0.00365611
-0.00367424
-0.00369127
-0.0037076
-0.0037233
-0.00373814
-0.00375195
-0.00376479
-0.0037767
-0.00378772
-0.00379796
-0.00380738
-0.0038158
-0.00382305
-0.00382911
-0.00383393
-0.00383728
-0.00383909
-0.00383962
-0.00383921
-0.0038379
-0.00383557
-0.00383224
-0.00382809
-0.00382325
-0.00381784
-0.003812
-0.00380591
-0.00379964
-0.00379334
-0.00378734
-0.0037821
-0.00377791
-0.00377481
-0.0037728
-0.00377207
-0.00377254
-0.000102767
-0.000164371
-0.000222783
-0.000279494
-0.0003324
-0.000381384
-0.000428765
-0.000476236
-0.000525177
-0.000576028
-0.000628474
-0.000681984
-0.000736639
-0.000791613
-0.000845461
-0.000897355
-0.000946886
-0.000994128
-0.00103856
-0.00107856
-0.00111399
-0.00114409
-0.00117016
-0.00119301
-0.00121217
-0.00122737
-0.0012393
-0.00124871
-0.00125611
-0.00126163
-0.00126463
-0.00126584
-0.00126514
-0.00126363
-0.00126158
-0.00126001
-0.00125853
-0.00125748
-0.00125739
-0.00125839
-0.0012604
-0.00126372
-0.00126859
-0.00127521
-0.00128405
-0.00129552
-0.00130969
-0.00132624
-0.00134456
-0.00136416
-0.00138475
-0.00140622
-0.00142869
-0.00145236
-0.00147736
-0.00150376
-0.00153159
-0.00156093
-0.00159168
-0.0016236
-0.00165656
-0.00169049
-0.00172503
-0.00175988
-0.00179516
-0.00183103
-0.00186726
-0.00190355
-0.00193976
-0.00197588
-0.00201179
-0.00204749
-0.00208324
-0.00211928
-0.0021555
-0.00219163
-0.00222764
-0.00226354
-0.00229912
-0.00233414
-0.00236857
-0.00240254
-0.00243619
-0.00246953
-0.00250264
-0.00253583
-0.00256932
-0.00260307
-0.00263688
-0.00267061
-0.00270421
-0.00273776
-0.00277132
-0.00280498
-0.00283894
-0.00287334
-0.00290799
-0.0029426
-0.00297706
-0.00301133
-0.0030452
-0.00307848
-0.0031109
-0.00314223
-0.00317254
-0.00320209
-0.00323094
-0.00325903
-0.00328639
-0.00331309
-0.00333913
-0.00336458
-0.00338955
-0.00341414
-0.00343852
-0.003463
-0.00348764
-0.00351213
-0.00353622
-0.00355977
-0.00358255
-0.00360423
-0.00362461
-0.00364364
-0.00366139
-0.00367812
-0.00369419
-0.00370969
-0.00372437
-0.00373805
-0.0037508
-0.00376274
-0.00377383
-0.00378404
-0.00379337
-0.00380171
-0.00380898
-0.00381509
-0.0038199
-0.00382324
-0.00382508
-0.00382572
-0.00382552
-0.00382452
-0.00382254
-0.00381957
-0.00381586
-0.00381169
-0.00380715
-0.00380227
-0.00379709
-0.00379173
-0.00378639
-0.00378144
-0.00377724
-0.00377399
-0.00377167
-0.00377028
-0.00377003
-0.00377124
-0.000164514
-0.000226281
-0.000283037
-0.000338485
-0.000391069
-0.000439362
-0.000484905
-0.000529651
-0.000575265
-0.000622214
-0.000669644
-0.000717137
-0.000764534
-0.000812564
-0.000859429
-0.000904544
-0.000947604
-0.000988504
-0.00102722
-0.00106305
-0.00109473
-0.00112218
-0.00114581
-0.00116688
-0.00118513
-0.00120063
-0.00121326
-0.00122409
-0.00123309
-0.00124008
-0.00124544
-0.00124907
-0.0012515
-0.00125253
-0.00125372
-0.00125495
-0.00125644
-0.00125863
-0.00126106
-0.0012643
-0.00126844
-0.00127356
-0.00128014
-0.00128851
-0.00129874
-0.00131103
-0.00132568
-0.00134254
-0.00136114
-0.00138111
-0.00140198
-0.00142332
-0.00144526
-0.00146821
-0.00149239
-0.001518
-0.00154527
-0.00157411
-0.00160415
-0.00163511
-0.00166699
-0.00169975
-0.00173315
-0.00176707
-0.00180161
-0.00183674
-0.00187212
-0.00190757
-0.00194309
-0.00197852
-0.00201377
-0.00204896
-0.00208441
-0.00212019
-0.00215609
-0.00219192
-0.00222769
-0.00226334
-0.00229865
-0.00233336
-0.0023675
-0.00240122
-0.00243459
-0.00246765
-0.00250062
-0.00253381
-0.00256731
-0.00260092
-0.0026345
-0.00266802
-0.00270147
-0.00273481
-0.00276808
-0.00280144
-0.00283512
-0.0028693
-0.0029038
-0.0029383
-0.00297267
-0.00300687
-0.00304071
-0.00307389
-0.00310615
-0.00313738
-0.00316764
-0.00319706
-0.00322566
-0.00325344
-0.00328046
-0.00330686
-0.00333268
-0.00335788
-0.00338251
-0.00340673
-0.00343084
-0.00345507
-0.00347939
-0.00350354
-0.00352729
-0.00355047
-0.00357283
-0.00359403
-0.00361389
-0.0036324
-0.0036497
-0.00366613
-0.00368201
-0.00369729
-0.00371175
-0.0037253
-0.00373808
-0.00375009
-0.00376121
-0.00377136
-0.00378058
-0.00378883
-0.00379605
-0.00380217
-0.00380702
-0.00381041
-0.00381235
-0.00381316
-0.00381321
-0.00381244
-0.00381066
-0.00380795
-0.00380468
-0.00380114
-0.00379731
-0.00379314
-0.00378869
-0.00378406
-0.00377945
-0.00377522
-0.00377173
-0.00376914
-0.00376738
-0.00376632
-0.00376628
-0.00376775
-0.000221462
-0.000285902
-0.000342656
-0.000397257
-0.000448191
-0.000494377
-0.000537496
-0.00057901
-0.00062041
-0.000662944
-0.000706198
-0.00074901
-0.000790996
-0.000832682
-0.00087384
-0.000913284
-0.000951137
-0.000986872
-0.00102036
-0.0010521
-0.00108075
-0.00110583
-0.00112729
-0.00114639
-0.00116389
-0.00117904
-0.00119261
-0.00120445
-0.00121464
-0.00122295
-0.00122991
-0.00123535
-0.00123991
-0.00124376
-0.00124733
-0.00125087
-0.00125488
-0.00125906
-0.00126381
-0.00126926
-0.00127519
-0.00128201
-0.00129024
-0.00130004
-0.00131155
-0.00132494
-0.0013402
-0.00135715
-0.00137571
-0.00139567
-0.0014165
-0.00143788
-0.00145996
-0.00148277
-0.00150648
-0.0015315
-0.00155812
-0.0015862
-0.00161549
-0.00164581
-0.00167698
-0.00170874
-0.00174112
-0.00177427
-0.00180811
-0.00184244
-0.00187703
-0.00191175
-0.00194654
-0.00198125
-0.00201587
-0.00205065
-0.00208581
-0.00212129
-0.00215688
-0.00219248
-0.00222806
-0.00226342
-0.00229834
-0.00233274
-0.00236667
-0.00240018
-0.00243328
-0.0024661
-0.00249895
-0.00253213
-0.00256559
-0.00259909
-0.00263248
-0.00266578
-0.00269897
-0.00273201
-0.00276499
-0.00279809
-0.00283156
-0.00286551
-0.00289974
-0.00293404
-0.00296836
-0.00300254
-0.00303627
-0.00306926
-0.00310133
-0.00313241
-0.00316259
-0.00319193
-0.00322034
-0.00324783
-0.00327458
-0.00330073
-0.00332626
-0.00335119
-0.00337563
-0.00339971
-0.00342366
-0.00344769
-0.00347172
-0.00349547
-0.00351882
-0.00354167
-0.00356369
-0.00358443
-0.00360376
-0.00362178
-0.0036387
-0.00365483
-0.00367044
-0.00368552
-0.00369984
-0.00371333
-0.00372614
-0.00373822
-0.00374932
-0.00375932
-0.0037684
-0.00377661
-0.00378383
-0.00378993
-0.00379476
-0.00379824
-0.00380038
-0.00380144
-0.00380168
-0.00380105
-0.00379943
-0.00379697
-0.0037941
-0.00379112
-0.00378792
-0.00378436
-0.00378049
-0.00377643
-0.00377237
-0.00376864
-0.00376558
-0.00376333
-0.00376188
-0.00376105
-0.00376099
-0.00376225
-0.000280255
-0.000345261
-0.000400827
-0.000453617
-0.000501764
-0.000544939
-0.000584659
-0.000622566
-0.000660065
-0.000698296
-0.000737171
-0.00077595
-0.000814192
-0.000851364
-0.000887978
-0.000923321
-0.000956987
-0.000989141
-0.00101918
-0.00104726
-0.00107346
-0.00109618
-0.00111621
-0.00113408
-0.00115051
-0.0011654
-0.00117907
-0.0011916
-0.00120261
-0.00121217
-0.00121989
-0.00122689
-0.00123294
-0.0012387
-0.0012441
-0.0012496
-0.00125524
-0.00126071
-0.00126703
-0.00127398
-0.0012815
-0.00128992
-0.00129939
-0.00131017
-0.00132255
-0.00133673
-0.00135259
-0.00136989
-0.00138857
-0.00140836
-0.00142888
-0.00145013
-0.0014722
-0.00149504
-0.0015187
-0.00154357
-0.00156973
-0.00159705
-0.00162558
-0.00165528
-0.00168581
-0.00171688
-0.00174862
-0.00178115
-0.0018143
-0.00184785
-0.00188172
-0.00191577
-0.00194983
-0.00198384
-0.00201795
-0.0020524
-0.00208724
-0.00212236
-0.00215769
-0.00219312
-0.00222848
-0.00226353
-0.00229809
-0.00233218
-0.00236589
-0.00239918
-0.00243206
-0.00246475
-0.00249757
-0.00253069
-0.00256402
-0.00259738
-0.00263068
-0.00266384
-0.00269672
-0.00272937
-0.00276203
-0.00279494
-0.00282823
-0.00286194
-0.00289591
-0.00293
-0.00296419
-0.00299829
-0.00303188
-0.00306465
-0.00309653
-0.00312748
-0.0031575
-0.00318666
-0.00321489
-0.0032422
-0.00326877
-0.00329474
-0.00332005
-0.0033447
-0.00336895
-0.003393
-0.00341692
-0.00344079
-0.00346455
-0.003488
-0.00351103
-0.00353357
-0.00355525
-0.00357562
-0.00359451
-0.00361213
-0.00362876
-0.00364465
-0.00365999
-0.00367483
-0.00368905
-0.0037026
-0.00371548
-0.00372753
-0.0037385
-0.00374836
-0.00375731
-0.00376547
-0.0037727
-0.00377881
-0.00378368
-0.00378725
-0.00378958
-0.00379085
-0.00379126
-0.00379072
-0.00378917
-0.00378692
-0.00378444
-0.00378195
-0.00377922
-0.00377606
-0.00377258
-0.00376897
-0.00376536
-0.00376194
-0.00375896
-0.00375671
-0.00375531
-0.0037546
-0.00375442
-0.00375521
-0.000343172
-0.000405878
-0.000459099
-0.000508666
-0.000553237
-0.000592308
-0.000628262
-0.00066242
-0.000696166
-0.000730192
-0.000765351
-0.000800143
-0.000834839
-0.000868892
-0.000901742
-0.000933803
-0.000964799
-0.000994
-0.0010214
-0.00104728
-0.00107117
-0.00109261
-0.00111126
-0.00112834
-0.00114403
-0.00115879
-0.0011722
-0.0011848
-0.00119628
-0.00120631
-0.00121511
-0.00122303
-0.00123024
-0.00123714
-0.00124388
-0.00125066
-0.00125731
-0.00126411
-0.00127122
-0.00127905
-0.0012879
-0.00129758
-0.0013081
-0.00131973
-0.00133268
-0.00134712
-0.00136316
-0.00138073
-0.00139955
-0.00141931
-0.00143978
-0.00146096
-0.00148287
-0.00150556
-0.00152921
-0.00155398
-0.00157984
-0.00160668
-0.00163467
-0.00166376
-0.00169362
-0.00172419
-0.00175556
-0.0017876
-0.0018201
-0.00185298
-0.0018862
-0.00191956
-0.00195288
-0.00198628
-0.00201998
-0.00205411
-0.00208861
-0.0021234
-0.00215847
-0.00219371
-0.00222879
-0.00226349
-0.00229776
-0.00233163
-0.00236508
-0.00239807
-0.00243077
-0.00246344
-0.00249626
-0.0025293
-0.00256249
-0.00259572
-0.00262892
-0.00266193
-0.00269454
-0.00272685
-0.00275923
-0.00279193
-0.00282503
-0.00285851
-0.00289227
-0.00292618
-0.00296022
-0.00299413
-0.00302749
-0.00306002
-0.00309175
-0.00312261
-0.00315249
-0.0031814
-0.0032094
-0.00323657
-0.00326303
-0.00328887
-0.00331403
-0.00333856
-0.0033627
-0.0033867
-0.00341059
-0.00343436
-0.0034579
-0.00348111
-0.00350396
-0.0035263
-0.00354768
-0.00356768
-0.00358624
-0.00360363
-0.00362005
-0.0036357
-0.0036508
-0.00366546
-0.00367962
-0.00369318
-0.00370608
-0.00371808
-0.0037289
-0.00373857
-0.0037474
-0.00375555
-0.0037628
-0.00376891
-0.00377379
-0.00377745
-0.00377997
-0.00378141
-0.00378186
-0.00378131
-0.00377984
-0.00377783
-0.00377571
-0.0037736
-0.00377118
-0.00376824
-0.00376497
-0.00376164
-0.00375835
-0.00375511
-0.00375205
-0.00374953
-0.00374793
-0.00374716
-0.00374679
-0.00374697
-0.000411274
-0.000469125
-0.000518209
-0.000563531
-0.000603856
-0.00063828
-0.000669872
-0.000700019
-0.000730116
-0.000760773
-0.000792058
-0.000823696
-0.000854805
-0.000885746
-0.000915921
-0.000945349
-0.000973793
-0.00100099
-0.00102631
-0.00105011
-0.00107239
-0.00109281
-0.00111072
-0.00112724
-0.00114284
-0.00115704
-0.00117043
-0.00118281
-0.0011942
-0.00120454
-0.00121412
-0.0012226
-0.00123089
-0.00123855
-0.00124594
-0.00125349
-0.00126085
-0.00126846
-0.0012763
-0.00128487
-0.00129445
-0.00130493
-0.00131635
-0.00132873
-0.00134213
-0.00135677
-0.00137285
-0.0013903
-0.00140896
-0.00142865
-0.00144921
-0.00147044
-0.0014923
-0.00151493
-0.00153849
-0.00156302
-0.00158854
-0.00161511
-0.00164275
-0.00167131
-0.00170067
-0.0017309
-0.00176197
-0.00179359
-0.00182554
-0.00185785
-0.00189045
-0.0019231
-0.00195573
-0.00198861
-0.00202197
-0.00205574
-0.00208986
-0.0021244
-0.00215926
-0.00219419
-0.0022289
-0.00226326
-0.00229727
-0.00233095
-0.00236415
-0.00239687
-0.00242941
-0.00246206
-0.00249488
-0.00252785
-0.00256095
-0.0025941
-0.00262717
-0.00265997
-0.00269232
-0.0027244
-0.00275659
-0.00278913
-0.00282201
-0.00285524
-0.0028888
-0.00292261
-0.00295647
-0.0029901
-0.00302317
-0.00305549
-0.00308705
-0.00311777
-0.00314751
-0.00317625
-0.00320408
-0.00323109
-0.00325747
-0.00328321
-0.00330824
-0.0033327
-0.00335689
-0.00338093
-0.00340475
-0.00342835
-0.00345175
-0.00347487
-0.0034976
-0.00351975
-0.00354093
-0.00356067
-0.00357899
-0.00359618
-0.00361246
-0.00362794
-0.00364282
-0.00365731
-0.00367141
-0.00368498
-0.00369782
-0.00370965
-0.00372029
-0.00372983
-0.0037386
-0.00374674
-0.00375397
-0.00376004
-0.00376494
-0.00376871
-0.00377136
-0.00377288
-0.00377331
-0.00377272
-0.00377132
-0.00376953
-0.00376772
-0.00376591
-0.00376372
-0.0037609
-0.00375769
-0.00375447
-0.00375132
-0.00374812
-0.00374491
-0.00374206
-0.00374013
-0.00373911
-0.00373834
-0.00373777
-0.000484729
-0.000535925
-0.000579009
-0.000618912
-0.000654257
-0.000684186
-0.000711209
-0.000737184
-0.000763294
-0.000790603
-0.000818529
-0.000847232
-0.000875335
-0.0009033
-0.000930716
-0.000957776
-0.000984453
-0.00100953
-0.0010329
-0.0010548
-0.00107582
-0.00109501
-0.00111283
-0.00112901
-0.00114408
-0.00115824
-0.00117145
-0.00118363
-0.00119504
-0.00120562
-0.00121527
-0.00122453
-0.00123341
-0.00124165
-0.00124952
-0.00125731
-0.00126523
-0.00127323
-0.00128172
-0.00129106
-0.00130116
-0.00131215
-0.00132411
-0.00133695
-0.0013507
-0.00136557
-0.0013817
-0.00139901
-0.00141742
-0.00143696
-0.00145747
-0.00147868
-0.00150056
-0.00152324
-0.00154672
-0.00157098
-0.00159619
-0.00162252
-0.00164986
-0.00167803
-0.0017071
-0.00173712
-0.0017679
-0.00179912
-0.00183064
-0.00186246
-0.00189443
-0.00192638
-0.00195844
-0.00199089
-0.00202386
-0.00205726
-0.00209106
-0.00212534
-0.00215995
-0.00219453
-0.00222883
-0.00226287
-0.00229666
-0.00233007
-0.00236302
-0.00239558
-0.00242803
-0.00246062
-0.0024934
-0.00252631
-0.00255938
-0.00259251
-0.00262545
-0.00265797
-0.00269008
-0.00272204
-0.00275416
-0.00278654
-0.0028192
-0.00285222
-0.00288561
-0.00291923
-0.00295289
-0.00298628
-0.00301906
-0.00305114
-0.00308254
-0.00311311
-0.00314264
-0.0031712
-0.00319897
-0.00322596
-0.00325222
-0.00327783
-0.00330281
-0.00332729
-0.00335154
-0.00337561
-0.00339937
-0.00342286
-0.00344615
-0.00346922
-0.0034919
-0.00351392
-0.00353489
-0.00355445
-0.00357262
-0.00358971
-0.00360585
-0.00362112
-0.0036358
-0.00365017
-0.00366423
-0.00367772
-0.00369039
-0.00370201
-0.00371249
-0.00372196
-0.00373071
-0.00373882
-0.00374602
-0.00375204
-0.00375692
-0.00376077
-0.00376351
-0.00376503
-0.0037654
-0.0037648
-0.00376351
-0.00376193
-0.00376034
-0.00375868
-0.00375661
-0.00375394
-0.00375084
-0.00374764
-0.00374441
-0.00374104
-0.0037376
-0.00373449
-0.00373222
-0.00373076
-0.00372939
-0.00372787
-0.000563304
-0.000605871
-0.000642026
-0.000675633
-0.000705053
-0.000730299
-0.000752803
-0.000774922
-0.000797258
-0.000820628
-0.000845351
-0.000870612
-0.000896329
-0.000921468
-0.000946394
-0.000970897
-0.000995383
-0.00101879
-0.00104052
-0.00106079
-0.00108021
-0.00109876
-0.00111589
-0.00113181
-0.0011467
-0.00116058
-0.00117339
-0.00118565
-0.00119721
-0.00120795
-0.00121781
-0.00122751
-0.00123661
-0.0012454
-0.00125373
-0.00126159
-0.00126976
-0.00127807
-0.00128704
-0.00129693
-0.0013076
-0.00131913
-0.00133147
-0.00134458
-0.00135851
-0.00137344
-0.00138954
-0.00140675
-0.00142505
-0.00144451
-0.00146492
-0.00148604
-0.00150791
-0.00153058
-0.00155392
-0.00157798
-0.001603
-0.00162908
-0.00165611
-0.00168406
-0.00171302
-0.00174288
-0.00177335
-0.00180423
-0.00183539
-0.00186673
-0.00189807
-0.00192941
-0.00196099
-0.00199307
-0.00202564
-0.00205867
-0.00209221
-0.00212622
-0.00216047
-0.00219466
-0.00222862
-0.00226238
-0.00229592
-0.00232905
-0.00236172
-0.00239417
-0.00242662
-0.00245917
-0.00249183
-0.00252473
-0.00255784
-0.00259091
-0.00262367
-0.00265599
-0.00268794
-0.00271981
-0.00275189
-0.00278417
-0.00281663
-0.00284945
-0.0028827
-0.00291615
-0.00294952
-0.00298259
-0.00301517
-0.0030471
-0.00307833
-0.00310869
-0.00313802
-0.00316646
-0.00319417
-0.00322113
-0.00324734
-0.00327287
-0.00329783
-0.00332236
-0.00334668
-0.00337075
-0.00339444
-0.00341784
-0.00344111
-0.00346418
-0.0034868
-0.00350867
-0.00352945
-0.00354887
-0.00356697
-0.00358397
-0.00359997
-0.00361503
-0.00362951
-0.00364377
-0.00365775
-0.0036711
-0.00368355
-0.00369495
-0.00370531
-0.00371478
-0.00372356
-0.00373164
-0.00373873
-0.00374468
-0.00374956
-0.00375345
-0.00375618
-0.00375763
-0.00375793
-0.00375741
-0.00375635
-0.00375498
-0.00375348
-0.0037518
-0.00374976
-0.00374724
-0.00374432
-0.00374116
-0.00373779
-0.00373414
-0.00373036
-0.00372692
-0.00372428
-0.0037223
-0.00372017
-0.00371757
-0.000645641
-0.000678426
-0.000706481
-0.00073309
-0.000756444
-0.000776299
-0.000794766
-0.000812847
-0.000831587
-0.000851497
-0.000872464
-0.000894572
-0.000917495
-0.000939988
-0.00096232
-0.000984581
-0.0010065
-0.00102825
-0.00104841
-0.00106741
-0.00108566
-0.0011032
-0.00111966
-0.00113517
-0.0011496
-0.00116299
-0.00117575
-0.0011879
-0.00119949
-0.0012105
-0.00122083
-0.00123048
-0.00123994
-0.00124906
-0.00125762
-0.00126588
-0.00127414
-0.00128271
-0.001292
-0.00130219
-0.00131336
-0.0013254
-0.00133813
-0.00135153
-0.00136562
-0.00138054
-0.00139647
-0.00141353
-0.00143179
-0.0014512
-0.00147155
-0.00149267
-0.00151452
-0.00153707
-0.00156024
-0.00158416
-0.00160907
-0.00163492
-0.0016617
-0.00168955
-0.00171845
-0.00174814
-0.00177835
-0.00180895
-0.00183978
-0.0018706
-0.00190134
-0.00193218
-0.00196338
-0.00199508
-0.00202729
-0.00206001
-0.00209331
-0.00212704
-0.00216086
-0.00219461
-0.0022283
-0.00226185
-0.00229508
-0.00232791
-0.00236041
-0.00239276
-0.00242516
-0.00245767
-0.00249031
-0.00252319
-0.00255629
-0.0025893
-0.00262187
-0.00265401
-0.00268592
-0.00271781
-0.0027498
-0.00278193
-0.00281425
-0.00284696
-0.00288006
-0.00291328
-0.00294636
-0.00297918
-0.00301157
-0.00304334
-0.0030744
-0.00310457
-0.00313375
-0.00316211
-0.00318979
-0.0032167
-0.00324284
-0.00326834
-0.00329332
-0.00331793
-0.00334228
-0.00336632
-0.00338995
-0.00341331
-0.00343661
-0.0034597
-0.00348222
-0.0035039
-0.0035245
-0.00354383
-0.00356188
-0.00357877
-0.00359459
-0.00360946
-0.00362379
-0.00363794
-0.00365179
-0.00366493
-0.00367713
-0.00368837
-0.00369871
-0.00370823
-0.00371702
-0.00372502
-0.00373201
-0.00373789
-0.00374276
-0.00374662
-0.00374927
-0.0037506
-0.00375088
-0.00375049
-0.00374966
-0.00374851
-0.00374707
-0.00374532
-0.00374321
-0.00374076
-0.00373799
-0.00373491
-0.00373144
-0.0037275
-0.00372333
-0.00371949
-0.0037164
-0.00371383
-0.00371085
-0.00370708
-0.000730533
-0.000752138
-0.000771367
-0.00079042
-0.000807484
-0.000821871
-0.00083561
-0.000850198
-0.00086602
-0.00088231
-0.000899995
-0.000919025
-0.000938734
-0.000959081
-0.000978759
-0.000998223
-0.00101806
-0.00103761
-0.00105639
-0.00107434
-0.00109161
-0.00110807
-0.0011238
-0.00113865
-0.00115249
-0.00116557
-0.00117807
-0.00118998
-0.00120163
-0.00121279
-0.00122332
-0.00123307
-0.00124279
-0.00125211
-0.00126081
-0.00126947
-0.00127792
-0.00128679
-0.00129633
-0.00130677
-0.00131831
-0.00133072
-0.0013438
-0.00135749
-0.00137176
-0.00138671
-0.00140255
-0.0014195
-0.00143772
-0.00145709
-0.0014774
-0.00149857
-0.00152041
-0.0015428
-0.00156582
-0.00158968
-0.00161448
-0.00164017
-0.00166685
-0.00169466
-0.00172343
-0.00175291
-0.00178294
-0.00181331
-0.00184374
-0.00187405
-0.0019043
-0.00193477
-0.00196563
-0.00199695
-0.00202883
-0.00206138
-0.00209443
-0.00212778
-0.00216121
-0.00219462
-0.00222799
-0.00226126
-0.00229423
-0.00232681
-0.00235915
-0.00239144
-0.00242375
-0.00245617
-0.00248883
-0.00252176
-0.00255482
-0.00258764
-0.00262004
-0.00265211
-0.00268404
-0.00271592
-0.00274782
-0.00277983
-0.00281204
-0.00284462
-0.00287756
-0.00291057
-0.00294343
-0.00297608
-0.00300832
-0.00303993
-0.0030708
-0.0031008
-0.00312987
-0.00315819
-0.00318585
-0.0032127
-0.00323875
-0.00326422
-0.00328928
-0.00331395
-0.0033383
-0.00336228
-0.00338589
-0.00340929
-0.00343264
-0.00345569
-0.00347808
-0.00349956
-0.00352003
-0.00353928
-0.00355722
-0.00357395
-0.00358959
-0.00360432
-0.00361855
-0.00363257
-0.00364624
-0.00365915
-0.00367115
-0.00368232
-0.00369271
-0.00370229
-0.00371105
-0.00371894
-0.00372581
-0.00373161
-0.00373641
-0.0037402
-0.00374275
-0.00374399
-0.00374426
-0.00374401
-0.00374338
-0.00374237
-0.00374096
-0.00373915
-0.00373698
-0.00373451
-0.00373179
-0.00372876
-0.00372522
-0.00372104
-0.00371651
-0.00371223
-0.00370864
-0.0037054
-0.00370149
-0.00369653
-0.000816256
-0.000826344
-0.00083602
-0.000846586
-0.00085731
-0.000866715
-0.000875825
-0.000886275
-0.000898799
-0.000912791
-0.000927521
-0.00094327
-0.000960465
-0.000977696
-0.000995066
-0.00101229
-0.00102958
-0.00104706
-0.00106442
-0.00108108
-0.00109726
-0.00111291
-0.00112779
-0.00114186
-0.0011552
-0.00116801
-0.00118019
-0.00119191
-0.00120343
-0.00121464
-0.00122509
-0.00123519
-0.00124497
-0.00125441
-0.00126347
-0.00127216
-0.00128087
-0.00129002
-0.0012998
-0.0013106
-0.00132249
-0.00133522
-0.00134859
-0.00136249
-0.00137687
-0.00139185
-0.00140771
-0.00142469
-0.00144291
-0.00146228
-0.00148264
-0.00150384
-0.00152563
-0.00154791
-0.00157089
-0.00159471
-0.0016194
-0.00164503
-0.00167171
-0.00169944
-0.00172806
-0.00175736
-0.0017872
-0.0018173
-0.00184731
-0.00187716
-0.00190706
-0.00193721
-0.00196775
-0.00199879
-0.00203045
-0.00206279
-0.0020956
-0.00212858
-0.00216161
-0.00219473
-0.00222784
-0.00226078
-0.00229343
-0.00232583
-0.00235809
-0.00239026
-0.00242242
-0.00245479
-0.00248747
-0.0025204
-0.00255333
-0.00258597
-0.00261824
-0.00265028
-0.00268223
-0.00271409
-0.00274592
-0.00277784
-0.00280996
-0.00284242
-0.0028752
-0.002908
-0.00294069
-0.00297326
-0.00300544
-0.0030369
-0.00306755
-0.00309739
-0.00312642
-0.00315473
-0.00318231
-0.00320905
-0.00323503
-0.00326052
-0.00328564
-0.00331032
-0.00333462
-0.00335858
-0.00338224
-0.00340573
-0.00342911
-0.00345208
-0.00347429
-0.0034956
-0.00351594
-0.00353511
-0.00355293
-0.00356946
-0.00358492
-0.00359956
-0.00361371
-0.0036276
-0.00364106
-0.00365374
-0.00366561
-0.00367681
-0.00368729
-0.0036969
-0.0037056
-0.00371336
-0.00372011
-0.00372579
-0.00373046
-0.0037341
-0.00373653
-0.00373775
-0.00373811
-0.00373799
-0.00373751
-0.00373653
-0.00373506
-0.00373319
-0.00373097
-0.00372848
-0.00372572
-0.00372264
-0.003719
-0.00371465
-0.00370982
-0.00370515
-0.00370101
-0.00369702
-0.00369213
-0.003686
-0.000900999
-0.000899403
-0.000899498
-0.000901719
-0.000905387
-0.000909775
-0.000914749
-0.000921363
-0.000930533
-0.00094157
-0.000953758
-0.000967236
-0.000981243
-0.000996045
-0.00101106
-0.00102598
-0.00104115
-0.00105678
-0.00107225
-0.00108753
-0.00110267
-0.00111724
-0.00113117
-0.0011446
-0.00115749
-0.00116991
-0.00118189
-0.00119347
-0.00120472
-0.00121583
-0.00122639
-0.00123665
-0.00124656
-0.00125619
-0.00126554
-0.0012743
-0.00128322
-0.00129251
-0.00130254
-0.00131372
-0.00132593
-0.001339
-0.00135269
-0.00136674
-0.00138118
-0.00139619
-0.0014121
-0.00142917
-0.00144745
-0.00146692
-0.0014874
-0.0015086
-0.00153032
-0.0015526
-0.00157565
-0.00159948
-0.00162407
-0.0016497
-0.00167642
-0.00170403
-0.00173243
-0.00176159
-0.00179123
-0.00182099
-0.00185058
-0.00188007
-0.00190971
-0.00193962
-0.00196985
-0.00200066
-0.00203224
-0.00206442
-0.00209688
-0.00212947
-0.00216222
-0.00219507
-0.00222783
-0.00226042
-0.00229281
-0.00232506
-0.00235718
-0.00238919
-0.00242123
-0.00245355
-0.00248624
-0.00251909
-0.00255183
-0.00258429
-0.00261646
-0.00264852
-0.00268049
-0.00271228
-0.002744
-0.00277587
-0.00280797
-0.00284033
-0.00287292
-0.00290558
-0.00293823
-0.00297078
-0.00300287
-0.00303417
-0.00306466
-0.00309442
-0.0031234
-0.00315163
-0.00317909
-0.0032057
-0.00323162
-0.00325712
-0.00328225
-0.0033069
-0.00333116
-0.00335516
-0.00337893
-0.00340253
-0.00342593
-0.00344879
-0.0034708
-0.00349196
-0.00351221
-0.00353126
-0.0035489
-0.00356524
-0.00358058
-0.00359517
-0.00360926
-0.00362297
-0.00363619
-0.0036487
-0.00366053
-0.00367179
-0.00368235
-0.00369194
-0.00370054
-0.00370817
-0.00371481
-0.00372036
-0.00372484
-0.00372826
-0.00373055
-0.0037318
-0.00373232
-0.00373239
-0.00373202
-0.00373099
-0.00372936
-0.00372738
-0.00372518
-0.00372267
-0.0037198
-0.00371652
-0.00371273
-0.00370825
-0.00370325
-0.00369826
-0.00369356
-0.00368877
-0.0036829
-0.00367566
-0.000982027
-0.00096989
-0.000960615
-0.000954213
-0.000951056
-0.0009505
-0.000951471
-0.000954683
-0.000960606
-0.000968947
-0.000978528
-0.000989431
-0.00100109
-0.00101349
-0.00102621
-0.00103923
-0.00105258
-0.00106623
-0.00108001
-0.00109385
-0.00110754
-0.00112099
-0.00113416
-0.00114686
-0.00115921
-0.00117126
-0.00118304
-0.00119435
-0.0012054
-0.0012163
-0.00122709
-0.00123738
-0.00124752
-0.00125747
-0.00126689
-0.00127596
-0.00128506
-0.00129448
-0.00130479
-0.00131624
-0.00132872
-0.00134209
-0.00135606
-0.00137028
-0.00138479
-0.00139989
-0.00141592
-0.00143307
-0.00145146
-0.00147112
-0.00149174
-0.00151292
-0.00153465
-0.00155708
-0.00158021
-0.00160404
-0.0016287
-0.00165436
-0.00168101
-0.00170848
-0.00173671
-0.0017657
-0.00179508
-0.00182443
-0.00185368
-0.00188299
-0.0019124
-0.00194201
-0.00197206
-0.00200281
-0.00203426
-0.00206622
-0.00209839
-0.00213066
-0.00216309
-0.00219561
-0.00222803
-0.0022603
-0.00229247
-0.00232456
-0.0023565
-0.00238831
-0.00242021
-0.00245249
-0.00248513
-0.0025178
-0.00255031
-0.00258263
-0.00261479
-0.00264684
-0.00267875
-0.00271045
-0.00274214
-0.00277399
-0.00280603
-0.00283827
-0.00287076
-0.0029034
-0.00293607
-0.0029686
-0.00300061
-0.00303176
-0.00306214
-0.00309183
-0.00312074
-0.00314883
-0.00317611
-0.00320259
-0.00322846
-0.00325394
-0.00327903
-0.00330362
-0.00332787
-0.00335198
-0.00337592
-0.00339964
-0.00342301
-0.00344575
-0.00346765
-0.0034887
-0.00350883
-0.00352772
-0.00354516
-0.00356135
-0.00357662
-0.00359118
-0.00360517
-0.00361868
-0.00363169
-0.00364409
-0.00365592
-0.00366724
-0.00367781
-0.00368733
-0.00369577
-0.00370327
-0.00370981
-0.00371525
-0.00371954
-0.00372272
-0.00372485
-0.00372611
-0.00372681
-0.00372712
-0.00372685
-0.00372575
-0.00372392
-0.00372179
-0.00371958
-0.00371707
-0.00371403
-0.00371048
-0.00370647
-0.00370192
-0.00369686
-0.00369162
-0.00368639
-0.00368081
-0.00367403
-0.00366577
-0.00105807
-0.00103569
-0.00101819
-0.00100369
-0.000993631
-0.00098818
-0.000985633
-0.000985988
-0.000989066
-0.000994499
-0.0010018
-0.00100999
-0.00101948
-0.00102964
-0.00104046
-0.00105178
-0.00106332
-0.00107514
-0.0010873
-0.00109958
-0.00111195
-0.0011244
-0.00113671
-0.0011487
-0.00116045
-0.00117215
-0.00118361
-0.00119459
-0.00120542
-0.00121627
-0.00122711
-0.0012376
-0.00124794
-0.00125811
-0.00126766
-0.001277
-0.00128627
-0.00129599
-0.00130662
-0.00131829
-0.00133105
-0.00134463
-0.00135875
-0.00137312
-0.00138773