/*--------------------------------*- C++ -*----------------------------------*\
  =========                 |
  \\      /  F ield         | OpenFOAM: The Open Source CFD Toolbox
   \\    /   O peration     | Website:  https://openfoam.org
    \\  /    A nd           | Version:  7
     \\/     M anipulation  |
\*---------------------------------------------------------------------------*/
FoamFile
{
    version     2.0;
    format      ascii;
    class       surfaceScalarField;
    location    "0.0875";
    object      phi;
}
// * * * * * * * * * * * * * * * * * * * * * * * * * * * * * * * * * * * * * //

dimensions      [0 3 -1 0 0 0 0];

internalField   nonuniform List<scalar> 
101920
(
-1.9976e-13
1.91276e-13
1.36149e-12
-1.56177e-12
4.26955e-12
-2.90989e-12
8.82149e-12
-4.55129e-12
1.43553e-11
-5.5343e-12
2.04571e-11
-6.1007e-12
2.68729e-11
-6.41475e-12
3.32882e-11
-6.41829e-12
3.94535e-11
-6.16323e-12
4.51142e-11
-5.65821e-12
5.01271e-11
-5.01351e-12
5.43226e-11
-4.19349e-12
5.76467e-11
-3.32636e-12
6.00357e-11
-2.38809e-12
6.15478e-11
-1.51004e-12
6.21964e-11
-6.49596e-13
6.20695e-11
1.25298e-13
6.1213e-11
8.53532e-13
5.97897e-11
1.42382e-12
5.79147e-11
1.87609e-12
5.57596e-11
2.15275e-12
5.34074e-11
2.35188e-12
5.09787e-11
2.42829e-12
4.85578e-11
2.42125e-12
4.6274e-11
2.28364e-12
4.41891e-11
2.08247e-12
4.23364e-11
1.85242e-12
4.06994e-11
1.63704e-12
3.93238e-11
1.37558e-12
3.82777e-11
1.04714e-12
3.75711e-11
7.07807e-13
3.72585e-11
3.13767e-13
3.73019e-11
-4.28126e-14
3.77696e-11
-4.666e-13
3.86013e-11
-8.31801e-13
3.98301e-11
-1.22998e-12
4.13962e-11
-1.5653e-12
4.32831e-11
-1.88804e-12
4.54315e-11
-2.14818e-12
4.7814e-11
-2.38271e-12
5.04214e-11
-2.60774e-12
5.32257e-11
-2.80416e-12
5.61838e-11
-2.95982e-12
5.92728e-11
-3.08876e-12
6.24472e-11
-3.17409e-12
6.56441e-11
-3.19681e-12
6.88368e-11
-3.19276e-12
7.20041e-11
-3.1679e-12
7.51042e-11
-3.10114e-12
7.81131e-11
-3.00912e-12
8.1022e-11
-2.90968e-12
8.38168e-11
-2.79382e-12
8.64878e-11
-2.67354e-12
8.9051e-11
-2.56202e-12
9.14912e-11
-2.44083e-12
9.37791e-11
-2.28814e-12
9.58974e-11
-2.11606e-12
9.78399e-11
-1.94151e-12
9.9601e-11
-1.76155e-12
1.0119e-10
-1.58641e-12
1.02632e-10
-1.44105e-12
1.03947e-10
-1.31442e-12
1.05136e-10
-1.18669e-12
1.06194e-10
-1.05746e-12
1.07129e-10
-9.35429e-13
1.07949e-10
-8.21642e-13
1.0866e-10
-7.11779e-13
1.09268e-10
-6.08894e-13
1.09785e-10
-5.1792e-13
1.10219e-10
-4.33712e-13
1.10568e-10
-3.4875e-13
1.10842e-10
-2.7307e-13
1.11055e-10
-2.12472e-13
1.11213e-10
-1.559e-13
1.11311e-10
-9.76298e-14
1.11345e-10
-3.47704e-14
1.11311e-10
3.31131e-14
1.1121e-10
9.98726e-14
1.11045e-10
1.63455e-13
1.10823e-10
2.21017e-13
1.1056e-10
2.62283e-13
1.10277e-10
2.82469e-13
1.09987e-10
2.87914e-13
1.09703e-10
2.84608e-13
1.09429e-10
2.75415e-13
1.09164e-10
2.65091e-13
1.08907e-10
2.57453e-13
1.08652e-10
2.55536e-13
1.08391e-10
2.61061e-13
1.0812e-10
2.70943e-13
1.07836e-10
2.84617e-13
1.07528e-10
3.08945e-13
1.07181e-10
3.46895e-13
1.06786e-10
3.95312e-13
1.06333e-10
4.526e-13
1.05816e-10
5.17029e-13
1.05228e-10
5.88354e-13
1.0456e-10
6.67438e-13
1.03813e-10
7.47051e-13
1.02998e-10
8.15268e-13
1.02129e-10
8.69579e-13
1.01214e-10
9.1527e-13
1.00261e-10
9.53643e-13
9.92743e-11
9.87701e-13
9.82479e-11
1.02681e-12
9.7174e-11
1.07451e-12
9.60446e-11
1.13046e-12
9.48448e-11
1.2005e-12
9.35591e-11
1.28512e-12
9.21861e-11
1.37215e-12
9.07288e-11
1.45621e-12
8.91874e-11
1.54151e-12
8.75669e-11
1.62147e-12
8.58801e-11
1.68621e-12
8.41377e-11
1.74175e-12
8.23383e-11
1.79938e-12
8.04787e-11
1.86056e-12
7.85546e-11
1.92613e-12
7.65535e-11
2.00227e-12
7.44688e-11
2.08489e-12
7.23074e-11
2.1603e-12
7.00784e-11
2.22644e-12
6.77889e-11
2.28825e-12
6.54508e-11
2.33838e-12
6.30844e-11
2.36691e-12
6.07055e-11
2.3803e-12
5.83124e-11
2.39348e-12
5.59027e-11
2.40959e-12
5.348e-11
2.42356e-12
5.10413e-11
2.43854e-12
4.85835e-11
2.45703e-12
4.6111e-11
2.47157e-12
4.3627e-11
2.48192e-12
4.11272e-11
2.49839e-12
3.86057e-11
2.52204e-12
3.60646e-11
2.5425e-12
3.3514e-11
2.55249e-12
3.09611e-11
2.55456e-12
2.84091e-11
2.55105e-12
2.58736e-11
2.53281e-12
2.33776e-11
2.49384e-12
2.09338e-11
2.4427e-12
1.85503e-11
2.3841e-12
1.62389e-11
2.31306e-12
1.4014e-11
2.22578e-12
1.18913e-11
2.12262e-12
9.8867e-12
2.0041e-12
8.02201e-12
1.86336e-12
6.32228e-12
1.69862e-12
4.80296e-12
1.51959e-12
3.47297e-12
1.33068e-12
2.34324e-12
1.13032e-12
1.43205e-12
9.1234e-13
7.52824e-13
6.80051e-13
2.97213e-13
4.55163e-13
4.23846e-14
2.54283e-13
-4.57465e-14
8.85024e-14
-2.28912e-14
-2.25964e-14
1.11168e-14
-3.39598e-14
1.15747e-14
-2.6129e-12
2.80169e-12
-3.4383e-12
-7.28865e-13
-4.79949e-13
-5.86963e-12
5.05694e-12
-1.00869e-11
1.24467e-11
-1.2923e-11
2.1041e-11
-1.46982e-11
3.02751e-11
-1.56452e-11
3.9746e-11
-1.58895e-11
4.91297e-11
-1.55501e-11
5.81851e-11
-1.47116e-11
6.6609e-11
-1.34419e-11
7.42984e-11
-1.18794e-11
8.10631e-11
-1.00921e-11
8.69422e-11
-8.26889e-12
9.18474e-11
-6.41811e-12
9.58603e-11
-4.65975e-12
9.90056e-11
-3.01899e-12
1.01429e-10
-1.5646e-12
1.03218e-10
-3.70554e-13
1.0453e-10
5.70374e-13
1.05456e-10
1.22251e-12
1.06192e-10
1.61873e-12
1.06853e-10
1.76579e-12
1.07597e-10
1.67522e-12
1.0846e-10
1.42556e-12
1.09527e-10
1.01413e-12
1.1083e-10
5.50798e-13
1.12483e-10
-1.65204e-14
1.14486e-10
-6.28331e-13
1.16869e-10
-1.33873e-12
1.19681e-10
-2.10647e-12
1.2292e-10
-2.92786e-12
1.26647e-10
-3.7736e-12
1.30812e-10
-4.63303e-12
1.35447e-10
-5.46644e-12
1.40495e-10
-6.2801e-12
1.45941e-10
-7.01296e-12
1.51752e-10
-7.69879e-12
1.57866e-10
-8.26329e-12
1.64259e-10
-8.77558e-12
1.70882e-10
-9.22822e-12
1.77683e-10
-9.60465e-12
1.84629e-10
-9.90552e-12
1.91669e-10
-1.01281e-11
1.98734e-10
-1.02403e-11
2.05787e-10
-1.02504e-11
2.12787e-10
-1.01908e-11
2.1967e-10
-1.00495e-11
2.26401e-10
-9.83192e-12
2.32967e-10
-9.57343e-12
2.39336e-10
-9.27751e-12
2.45484e-10
-8.9417e-12
2.51407e-10
-8.59362e-12
2.57085e-10
-8.23972e-12
2.62489e-10
-7.84672e-12
2.67604e-10
-7.40161e-12
2.72417e-10
-6.93104e-12
2.76922e-10
-6.448e-12
2.81124e-10
-5.96232e-12
2.85035e-10
-5.50061e-12
2.88671e-10
-5.08058e-12
2.92041e-10
-4.68585e-12
2.9515e-10
-4.29759e-12
2.98011e-10
-3.91673e-12
3.00627e-10
-3.55102e-12
3.03007e-10
-3.19999e-12
3.05156e-10
-2.85969e-12
3.07083e-10
-2.53747e-12
3.08799e-10
-2.23519e-12
3.10311e-10
-1.94451e-12
3.11621e-10
-1.66173e-12
3.1274e-10
-1.39631e-12
3.1368e-10
-1.15412e-12
3.14446e-10
-9.2272e-13
3.15038e-10
-6.91217e-13
3.15461e-10
-4.56878e-13
3.15716e-10
-2.19306e-13
3.158e-10
1.5507e-14
3.15722e-10
2.40616e-13
3.15499e-10
4.47165e-13
3.15141e-10
6.20236e-13
3.1467e-10
7.53899e-13
3.14099e-10
8.58495e-13
3.1344e-10
9.44339e-13
3.12699e-10
1.0155e-12
3.11881e-10
1.08118e-12
3.10987e-10
1.15272e-12
3.10009e-10
1.23454e-12
3.08941e-10
1.3281e-12
3.07776e-10
1.43443e-12
3.06505e-10
1.55692e-12
3.05112e-10
1.70221e-12
3.03584e-10
1.87368e-12
3.01913e-10
2.0682e-12
3.00084e-10
2.28357e-12
2.98086e-10
2.51752e-12
2.95912e-10
2.76405e-12
2.93562e-10
3.01841e-12
2.91037e-10
3.27252e-12
2.8834e-10
3.51173e-12
2.85482e-10
3.72729e-12
2.82473e-10
3.92433e-12
2.79317e-10
4.11085e-12
2.76014e-10
4.29084e-12
2.72566e-10
4.47476e-12
2.68962e-10
4.67739e-12
2.65188e-10
4.90458e-12
2.61235e-10
5.15478e-12
2.57096e-10
5.42489e-12
2.52763e-10
5.70617e-12
2.48235e-10
5.98518e-12
2.43521e-10
6.25474e-12
2.38631e-10
6.51115e-12
2.33569e-10
6.74795e-12
2.28347e-10
6.96512e-12
2.22972e-10
7.17391e-12
2.17442e-10
7.38702e-12
2.11757e-10
7.60908e-12
2.05921e-10
7.83814e-12
1.99937e-10
8.06994e-12
1.93806e-10
8.29516e-12
1.87531e-10
8.50236e-12
1.81134e-10
8.68543e-12
1.74631e-10
8.84022e-12
1.68035e-10
8.96181e-12
1.61362e-10
9.05148e-12
1.54634e-10
9.12099e-12
1.47857e-10
9.18418e-12
1.41036e-10
9.24458e-12
1.34176e-10
9.29829e-12
1.2729e-10
9.34342e-12
1.20385e-10
9.37953e-12
1.13462e-10
9.40751e-12
1.06531e-10
9.42884e-12
9.96096e-11
9.44096e-12
9.27099e-11
9.43906e-12
8.58429e-11
9.41638e-12
7.90333e-11
9.36377e-12
7.23114e-11
9.27465e-12
6.57024e-11
9.14329e-12
5.92315e-11
8.9656e-12
5.29303e-11
8.74349e-12
4.6833e-11
8.47895e-12
4.09703e-11
8.1737e-12
3.5368e-11
7.82719e-12
3.00592e-11
7.43105e-12
2.50866e-11
6.97807e-12
2.04865e-11
6.46548e-12
1.6287e-11
5.89867e-12
1.25182e-11
5.28827e-12
9.21506e-12
4.63435e-12
6.40632e-12
3.93913e-12
4.1053e-12
3.21316e-12
2.31479e-12
2.47156e-12
1.02856e-12
1.7427e-12
2.20451e-13
1.06284e-12
-1.664e-13
4.76154e-13
-2.34165e-13
4.64587e-14
-1.22703e-13
-1.44098e-13
-1.1031e-13
-4.072e-12
6.87181e-12
-8.46443e-12
3.66207e-12
-8.81387e-12
-5.51978e-12
-6.03831e-12
-1.28643e-11
-1.12925e-12
-1.78295e-11
5.25009e-12
-2.10766e-11
1.26495e-11
-2.30446e-11
2.07343e-11
-2.39738e-11
2.91891e-11
-2.4006e-11
3.78468e-11
-2.33676e-11
4.65795e-11
-2.21749e-11
5.52952e-11
-2.05952e-11
6.38849e-11
-1.86823e-11
7.22864e-11
-1.66668e-11
8.04679e-11
-1.45994e-11
8.84293e-11
-1.26196e-11
9.61807e-11
-1.07761e-11
1.03753e-10
-9.13782e-12
1.11117e-10
-7.73675e-12
1.18405e-10
-6.71962e-12
1.25601e-10
-5.97332e-12
1.32816e-10
-5.5958e-12
1.40023e-10
-5.44187e-12
1.47293e-10
-5.59276e-12
1.54675e-10
-5.96191e-12
1.62203e-10
-6.51361e-12
1.69918e-10
-7.16905e-12
1.77801e-10
-7.90167e-12
1.85912e-10
-8.7381e-12
1.94224e-10
-9.65148e-12
2.0279e-10
-1.06704e-11
2.11538e-10
-1.16744e-11
2.20539e-10
-1.27739e-11
2.29706e-10
-1.37991e-11
2.39108e-10
-1.48706e-11
2.4865e-10
-1.58198e-11
2.58368e-10
-1.67306e-11
2.68188e-10
-1.75198e-11
2.78122e-10
-1.81984e-11
2.88132e-10
-1.87865e-11
2.98165e-10
-1.92612e-11
3.08201e-10
-1.96416e-11
3.18203e-10
-1.99053e-11
3.2812e-10
-2.00458e-11
3.37939e-10
-2.00597e-11
3.4763e-10
-1.99433e-11
3.57153e-10
-1.97142e-11
3.66486e-10
-1.93849e-11
3.75613e-10
-1.89573e-11
3.84495e-10
-1.84572e-11
3.9311e-10
-1.78936e-11
4.01447e-10
-1.72791e-11
4.09491e-10
-1.66361e-11
4.17215e-10
-1.59643e-11
4.24616e-10
-1.52444e-11
4.31692e-10
-1.44777e-11
4.38439e-10
-1.36777e-11
4.4485e-10
-1.28566e-11
4.50925e-10
-1.20347e-11
4.5667e-10
-1.12439e-11
4.62084e-10
-1.04932e-11
4.67165e-10
-9.76585e-12
4.7192e-10
-9.05447e-12
4.76364e-10
-8.36205e-12
4.80497e-10
-7.68361e-12
4.84317e-10
-7.02036e-12
4.87833e-10
-6.37687e-12
4.9105e-10
-5.75523e-12
4.9397e-10
-5.15492e-12
4.96595e-10
-4.56922e-12
4.98932e-10
-3.99841e-12
5.00989e-10
-3.45077e-12
5.02762e-10
-2.92673e-12
5.04253e-10
-2.41646e-12
5.0547e-10
-1.91057e-12
5.06422e-10
-1.4085e-12
5.07113e-10
-9.11831e-13
5.07548e-10
-4.21291e-13
5.07732e-10
5.55599e-14
5.07675e-10
5.03297e-13
5.07384e-10
9.09762e-13
5.06863e-10
1.27509e-12
5.06118e-10
1.60582e-12
5.05154e-10
1.9085e-12
5.03977e-10
2.19225e-12
5.02588e-10
2.47032e-12
5.00989e-10
2.75264e-12
4.99179e-10
3.04458e-12
4.97156e-10
3.35187e-12
4.94913e-10
3.67804e-12
4.92444e-10
4.02728e-12
4.89739e-10
4.40577e-12
4.86796e-10
4.81618e-12
4.83609e-10
5.25606e-12
4.80171e-10
5.72154e-12
4.76479e-10
6.20957e-12
4.72527e-10
6.71602e-12
4.68313e-10
7.23347e-12
4.6384e-10
7.74735e-12
4.59107e-10
8.2449e-12
4.54111e-10
8.72429e-12
4.4885e-10
9.18606e-12
4.4333e-10
9.63201e-12
4.37549e-10
1.00727e-11
4.31503e-10
1.05219e-11
4.25194e-10
1.09871e-11
4.18625e-10
1.14733e-11
4.11792e-10
1.1986e-11
4.04698e-10
1.25194e-11
3.97346e-10
1.30591e-11
3.89736e-10
1.35958e-11
3.81867e-10
1.41226e-11
3.73749e-10
1.46289e-11
3.65388e-10
1.51084e-11
3.56789e-10
1.55663e-11
3.47956e-10
1.60097e-11
3.38901e-10
1.64436e-11
3.29632e-10
1.68767e-11
3.20155e-10
1.73131e-11
3.1048e-10
1.77422e-11
3.00623e-10
1.81516e-11
2.90591e-10
1.8535e-11
2.80392e-10
1.88857e-11
2.70042e-10
1.91913e-11
2.5956e-10
1.94449e-11
2.48957e-10
1.96541e-11
2.38248e-10
1.98299e-11
2.27456e-10
1.99764e-11
2.16603e-10
2.00969e-11
2.05702e-10
2.01964e-11
1.9477e-10
2.02734e-11
1.83827e-10
2.03209e-11
1.72898e-10
2.03383e-11
1.62001e-10
2.03286e-11
1.51158e-10
2.02852e-11
1.40403e-10
2.01952e-11
1.29768e-10
2.00501e-11
1.19282e-10
1.98463e-11
1.08978e-10
1.95761e-11
9.88961e-11
1.92244e-11
8.90789e-11
1.87837e-11
7.9565e-11
1.82594e-11
7.03917e-11
1.76534e-11
6.16024e-11
1.69622e-11
5.32459e-11
1.61824e-11
4.53656e-11
1.53104e-11
3.79991e-11
1.43436e-11
3.11873e-11
1.32771e-11
2.49742e-11
1.2113e-11
1.94002e-11
1.08637e-11
1.44962e-11
9.53955e-12
1.02872e-11
8.14893e-12
6.79252e-12
6.7075e-12
4.01968e-12
5.24421e-12
1.95689e-12
3.8064e-12
5.66751e-13
2.4535e-12
-2.03781e-13
1.24675e-12
-4.38293e-13
2.81498e-13
-2.69639e-13
-3.12037e-13
-3.79192e-13
-5.5196e-12
1.23924e-11
-1.18564e-11
1.00006e-11
-1.42654e-11
-3.11295e-12
-1.33584e-11
-1.37713e-11
-1.01149e-11
-2.10741e-11
-5.12781e-12
-2.60614e-11
1.10563e-12
-2.92769e-11
8.31599e-12
-3.11856e-11
1.63819e-11
-3.20705e-11
2.51357e-11
-3.21227e-11
3.44897e-11
-3.15288e-11
4.43246e-11
-3.04293e-11
5.46782e-11
-2.9037e-11
6.53999e-11
-2.73898e-11
7.65286e-11
-2.57294e-11
8.79551e-11
-2.40441e-11
9.96636e-11
-2.24828e-11
1.11647e-10
-2.1124e-11
1.23888e-10
-1.99745e-11
1.36302e-10
-1.91345e-11
1.48908e-10
-1.85839e-11
1.61641e-10
-1.83252e-11
1.74572e-10
-1.83813e-11
1.87621e-10
-1.86382e-11
2.00812e-10
-1.91507e-11
2.14075e-10
-1.97767e-11
2.27464e-10
-2.0556e-11
2.40974e-10
-2.14079e-11
2.54588e-10
-2.2355e-11
2.68294e-10
-2.33566e-11
2.82035e-10
-2.44112e-11
2.95862e-10
-2.55039e-11
3.09682e-10
-2.65944e-11
3.23543e-10
-2.7661e-11
3.37356e-10
-2.86843e-11
3.51151e-10
-2.96171e-11
3.64901e-10
-3.04813e-11
3.78574e-10
-3.11921e-11
3.9218e-10
-3.18036e-11
4.05657e-10
-3.22639e-11
4.19007e-10
-3.26123e-11
4.32193e-10
-3.28284e-11
4.45188e-10
-3.28994e-11
4.57976e-10
-3.28346e-11
4.70533e-10
-3.26146e-11
4.82839e-10
-3.22496e-11
4.9488e-10
-3.17565e-11
5.06637e-10
-3.11398e-11
5.181e-10
-3.04206e-11
5.29258e-10
-2.96146e-11
5.40093e-10
-2.87275e-11
5.50585e-10
-2.77727e-11
5.60714e-10
-2.67656e-11
5.70462e-10
-2.57131e-11
5.79828e-10
-2.46104e-11
5.88818e-10
-2.34671e-11
5.97433e-10
-2.22946e-11
6.05677e-10
-2.11e-11
6.13545e-10
-1.99049e-11
6.2103e-10
-1.87305e-11
6.28121e-10
-1.75827e-11
6.34817e-10
-1.6461e-11
6.41123e-10
-1.53612e-11
6.47045e-10
-1.42834e-11
6.52585e-10
-1.32238e-11
6.57744e-10
-1.21797e-11
6.62524e-10
-1.11569e-11
6.66925e-10
-1.01563e-11
6.70945e-10
-9.17637e-12
6.74588e-10
-8.21439e-12
6.7786e-10
-7.27047e-12
6.80761e-10
-6.35122e-12
6.83289e-10
-5.45442e-12
6.85444e-10
-4.57164e-12
6.87235e-10
-3.70043e-12
6.88667e-10
-2.84033e-12
6.89745e-10
-1.9904e-12
6.90478e-10
-1.15332e-12
6.90871e-10
-3.37439e-13
6.90928e-10
4.46122e-13
6.90646e-10
1.18974e-12
6.90028e-10
1.89372e-12
6.89072e-10
2.56268e-12
6.87777e-10
3.20182e-12
6.86151e-10
3.81932e-12
6.84193e-10
4.42851e-12
6.81903e-10
5.04238e-12
6.7928e-10
5.66704e-12
6.76326e-10
6.30637e-12
6.7304e-10
6.96518e-12
6.69416e-10
7.65044e-12
6.65454e-10
8.36839e-12
6.61153e-10
9.11823e-12
6.56514e-10
9.89707e-12
6.51531e-10
1.07047e-11
6.46203e-10
1.15381e-11
6.40531e-10
1.23883e-11
6.34516e-10
1.32481e-11
6.28155e-10
1.4109e-11
6.21441e-10
1.49589e-11
6.14373e-10
1.57926e-11
6.06947e-10
1.66124e-11
5.99159e-10
1.74203e-11
5.91011e-10
1.82209e-11
5.82507e-10
1.90261e-11
5.7365e-10
1.98465e-11
5.6444e-10
2.06839e-11
5.54888e-10
2.1538e-11
5.45002e-10
2.24049e-11
5.34788e-10
2.32741e-11
5.24249e-10
2.41351e-11
5.13391e-10
2.49808e-11
5.02215e-10
2.58038e-11
4.90726e-10
2.65967e-11
4.78931e-10
2.736e-11
4.66839e-10
2.81015e-11
4.54459e-10
2.88248e-11
4.41808e-10
2.95305e-11
4.28901e-10
3.02198e-11
4.15754e-10
3.0889e-11
4.02376e-10
3.15284e-11
3.88783e-10
3.21275e-11
3.74991e-10
3.26769e-11
3.61014e-10
3.3168e-11
3.46864e-10
3.35941e-11
3.32563e-10
3.39551e-11
3.18133e-10
3.42597e-11
3.03595e-10
3.45146e-11
2.88975e-10
3.47179e-11
2.74304e-10
3.48673e-11
2.59613e-10
3.49643e-11
2.44925e-10
3.5007e-11
2.3027e-10
3.49911e-11
2.15687e-10
3.49109e-11
2.01216e-10
3.4757e-11
1.86892e-10
3.45207e-11
1.72751e-10
3.41918e-11
1.58841e-10
3.37564e-11
1.45209e-10
3.32059e-11
1.31899e-10
3.25331e-11
1.18953e-10
3.17285e-11
1.06424e-10
3.07884e-11
9.43661e-11
2.97117e-11
8.28313e-11
2.84983e-11
7.18662e-11
2.71477e-11
6.1524e-11
2.56527e-11
5.18594e-11
2.40081e-11
4.29198e-11
2.22157e-11
3.47467e-11
2.02858e-11
2.73804e-11
1.82311e-11
2.08616e-11
1.60594e-11
1.52232e-11
1.3788e-11
1.04805e-11
1.1451e-11
6.63295e-12
9.09213e-12
3.66851e-12
6.77123e-12
1.56188e-12
4.56102e-12
2.59062e-13
2.55054e-12
-3.13848e-13
8.55443e-13
-2.77411e-13
-3.47675e-13
-6.562e-13
-6.1229e-12
1.85144e-11
-1.34361e-11
1.73154e-11
-1.67232e-11
1.76723e-13
-1.65588e-11
-1.39355e-11
-1.39004e-11
-2.37362e-11
-9.36073e-12
-3.05998e-11
-3.28842e-12
-3.53495e-11
4.05995e-12
-3.85304e-11
1.25027e-11
-4.05113e-11
2.19431e-11
-4.15641e-11
3.23788e-11
-4.19622e-11
4.3723e-11
-4.17736e-11
5.59174e-11
-4.12296e-11
6.89315e-11
-4.04067e-11
8.26558e-11
-3.9452e-11
9.71e-11
-3.84892e-11
1.12194e-10
-3.75726e-11
1.27835e-10
-3.6765e-11
1.4399e-10
-3.61319e-11
1.60563e-10
-3.57077e-11
1.77549e-10
-3.5571e-11
1.94853e-10
-3.56278e-11
2.12399e-10
-3.59269e-11
2.3016e-10
-3.63999e-11
2.48058e-10
-3.70489e-11
2.66127e-10
-3.78462e-11
2.84278e-10
-3.87093e-11
3.02523e-10
-3.96548e-11
3.20782e-10
-4.06126e-11
3.39077e-10
-4.16534e-11
3.57324e-10
-4.26592e-11
3.75538e-10
-4.37184e-11
3.93627e-10
-4.46847e-11
4.11637e-10
-4.56709e-11
4.29479e-10
-4.65247e-11
4.47164e-10
-4.73044e-11
4.6465e-10
-4.79682e-11
4.8194e-10
-4.84817e-11
4.99008e-10
-4.88711e-11
5.15837e-10
-4.90923e-11
5.324e-10
-4.91744e-11
5.48676e-10
-4.91041e-11
5.64649e-10
-4.88748e-11
5.80303e-10
-4.84867e-11
5.95629e-10
-4.79408e-11
6.10616e-10
-4.72363e-11
6.25244e-10
-4.63828e-11
6.39498e-10
-4.53961e-11
6.53374e-10
-4.42961e-11
6.66856e-10
-4.30945e-11
6.79933e-10
-4.18054e-11
6.92607e-10
-4.04431e-11
7.04858e-10
-3.90176e-11
7.16673e-10
-3.7527e-11
7.28046e-10
-3.59835e-11
7.38978e-10
-3.43999e-11
7.4947e-10
-3.2784e-11
7.59519e-10
-3.11478e-11
7.69126e-10
-2.95141e-11
7.78291e-10
-2.78944e-11
7.86998e-10
-2.62901e-11
7.95242e-10
-2.47065e-11
8.03028e-10
-2.31453e-11
8.10353e-10
-2.16076e-11
8.17216e-10
-2.00888e-11
8.23621e-10
-1.85846e-11
8.29569e-10
-1.71041e-11
8.35059e-10
-1.56465e-11
8.40088e-10
-1.42058e-11
8.44659e-10
-1.27851e-11
8.48774e-10
-1.13861e-11
8.52432e-10
-1.00105e-11
8.55633e-10
-8.65619e-12
8.58379e-10
-7.31675e-12
8.60672e-10
-5.99344e-12
8.62519e-10
-4.6886e-12
8.63927e-10
-3.39837e-12
8.64897e-10
-2.12344e-12
8.65434e-10
-8.74702e-13
8.65542e-10
3.3767e-13
8.65219e-10
1.5134e-12
8.64458e-10
2.65534e-12
8.63257e-10
3.76301e-12
8.61618e-10
4.83987e-12
8.59541e-10
5.89698e-12
8.57024e-10
6.94597e-12
8.54069e-10
7.99669e-12
8.5068e-10
9.05636e-12
8.46855e-10
1.01312e-11
8.42594e-10
1.12267e-11
8.37895e-10
1.23479e-11
8.32763e-10
1.34995e-11
8.27201e-10
1.46816e-11
8.21206e-10
1.58926e-11
8.1478e-10
1.7131e-11
8.07925e-10
1.8394e-11
8.00638e-10
1.96757e-11
7.9292e-10
2.09666e-11
7.84772e-10
2.22567e-11
7.7619e-10
2.35407e-11
7.67167e-10
2.48175e-11
7.57697e-10
2.60833e-11
7.47782e-10
2.73351e-11
7.37423e-10
2.85795e-11
7.26622e-10
2.98273e-11
7.15385e-10
3.10832e-11
7.03723e-10
3.23473e-11
6.91643e-10
3.36192e-11
6.79153e-10
3.48952e-11
6.66261e-10
3.6166e-11
6.52973e-10
3.74223e-11
6.39299e-10
3.8656e-11
6.25245e-10
3.98589e-11
6.10815e-10
4.10265e-11
5.96017e-10
4.21579e-11
5.80861e-10
4.32558e-11
5.65362e-10
4.43225e-11
5.49537e-10
4.53569e-11
5.33401e-10
4.63554e-11
5.16979e-10
4.73122e-11
5.00286e-10
4.82214e-11
4.83337e-10
4.90761e-11
4.6615e-10
4.98638e-11
4.48747e-10
5.05707e-11
4.31147e-10
5.11936e-11
4.13367e-10
5.17344e-11
3.95434e-10
5.21917e-11
3.77382e-10
5.2565e-11
3.59244e-10
5.28553e-11
3.41051e-10
5.30608e-11
3.22838e-10
5.31777e-11
3.04648e-10
5.31984e-11
2.86521e-10
5.31179e-11
2.68496e-10
5.29337e-11
2.50619e-10
5.26323e-11
2.32943e-10
5.21958e-11
2.15519e-10
5.1616e-11
1.98391e-10
5.08845e-11
1.81611e-10
4.99868e-11
1.65235e-10
4.89086e-11
1.49323e-10
4.76398e-11
1.3393e-10
4.61809e-11
1.19109e-10
4.45318e-11
1.04921e-10
4.26857e-11
9.14326e-11
4.06368e-11
7.87024e-11
3.83829e-11
6.67839e-11
3.59268e-11
5.57282e-11
3.32717e-11
4.55897e-11
3.04242e-11
3.64182e-11
2.74028e-11
2.8251e-11
2.42277e-11
2.11154e-11
2.09241e-11
1.50329e-11
1.75338e-11
1.00123e-11
1.41136e-11
6.04312e-12
1.0741e-11
3.09421e-12
7.50979e-12
1.11943e-12
4.52577e-12
6.43725e-14
1.91184e-12
-1.79238e-13
-1.02564e-13
-8.35079e-13
-6.18912e-12
2.47043e-11
-1.36743e-11
2.4797e-11
-1.70484e-11
3.55151e-12
-1.69272e-11
-1.40569e-11
-1.41258e-11
-2.65366e-11
-9.29685e-12
-3.54263e-11
-2.77678e-12
-4.18718e-11
5.18934e-12
-4.65001e-11
1.45361e-11
-4.9858e-11
2.51509e-11
-5.21786e-11
3.69391e-11
-5.37506e-11
4.99196e-11
-5.47552e-11
6.40093e-11
-5.53161e-11
7.91908e-11
-5.55895e-11
9.53804e-11
-5.56405e-11
1.12511e-10
-5.56233e-11
1.30487e-10
-5.55515e-11
1.49275e-10
-5.5551e-11
1.6878e-10
-5.563e-11
1.889e-10
-5.583e-11
2.09501e-10
-5.61678e-11
2.30576e-10
-5.67046e-11
2.51985e-10
-5.73391e-11
2.73726e-10
-5.81391e-11
2.95666e-10
-5.89919e-11
3.17766e-10
-5.99468e-11
3.39977e-10
-6.09193e-11
3.62249e-10
-6.19274e-11
3.84566e-10
-6.29302e-11
4.06824e-10
-6.39114e-11
4.29044e-10
-6.48796e-11
4.51095e-10
-6.57689e-11
4.73043e-10
-6.66333e-11
4.94755e-10
-6.7383e-11
5.16253e-10
-6.80221e-11
5.37513e-10
-6.85639e-11
5.58462e-10
-6.89181e-11
5.79137e-10
-6.91573e-11
5.99474e-10
-6.92095e-11
6.19482e-10
-6.90992e-11
6.39132e-10
-6.88234e-11
6.58397e-10
-6.83699e-11
6.7727e-10
-6.77453e-11
6.9573e-10
-6.69482e-11
7.13769e-10
-6.59806e-11
7.31384e-10
-6.48498e-11
7.48564e-10
-6.35637e-11
7.65302e-10
-6.2134e-11
7.81581e-10
-6.05751e-11
7.97387e-10
-5.89016e-11
8.12717e-10
-5.71337e-11
8.27557e-10
-5.52847e-11
8.41901e-10
-5.336e-11
8.55745e-10
-5.13709e-11
8.6909e-10
-4.93299e-11
8.81928e-10
-4.72371e-11
8.94253e-10
-4.51081e-11
9.06067e-10
-4.29633e-11
9.17368e-10
-4.08131e-11
9.28145e-10
-3.86697e-11
9.38392e-10
-3.65395e-11
9.48112e-10
-3.44259e-11
9.573e-10
-3.23328e-11
9.65948e-10
-3.02573e-11
9.74059e-10
-2.81992e-11
9.81634e-10
-2.61601e-11
9.88672e-10
-2.4143e-11
9.95171e-10
-2.21465e-11
1.00113e-09
-2.01658e-11
1.00655e-09
-1.82069e-11
1.01144e-09
-1.62738e-11
1.01579e-09
-1.43606e-11
1.0196e-09
-1.24649e-11
1.02287e-09
-1.05897e-11
1.02562e-09
-8.73622e-12
1.02783e-09
-6.90125e-12
1.02952e-09
-5.08365e-12
1.03068e-09
-3.28783e-12
1.03132e-09
-1.52068e-12
1.03145e-09
2.13403e-13
1.03105e-09
1.91346e-12
1.03012e-09
3.58074e-12
1.02867e-09
5.21678e-12
1.02668e-09
6.82514e-12
1.02417e-09
8.41526e-12
1.02111e-09
9.99752e-12
1.01753e-09
1.15799e-11
1.01342e-09
1.31694e-11
1.00878e-09
1.47723e-11
1.00361e-09
1.63943e-11
9.97917e-10
1.80415e-11
9.91698e-10
1.97179e-11
9.84961e-10
2.14195e-11
9.77708e-10
2.3145e-11
9.69938e-10
2.49001e-11
9.61653e-10
2.66804e-11
9.52856e-10
2.84737e-11
9.43548e-10
3.02744e-11
9.33725e-10
3.20797e-11
9.23383e-10
3.38824e-11
9.12524e-10
3.56773e-11
9.01144e-10
3.74632e-11
8.89241e-10
3.9239e-11
8.76814e-10
4.10068e-11
8.63871e-10
4.27715e-11
8.50418e-10
4.45359e-11
8.36465e-10
4.63006e-11
8.22022e-10
4.80636e-11
8.07099e-10
4.98187e-11
7.91707e-10
5.15583e-11
7.7585e-10
5.32771e-11
7.59538e-10
5.49675e-11
7.42782e-10
5.6616e-11
7.25592e-10
5.82171e-11
7.07977e-10
5.97743e-11
6.89946e-10
6.12872e-11
6.71517e-10
6.27499e-11
6.52715e-10
6.41594e-11
6.33554e-10
6.5515e-11
6.14055e-10
6.68112e-11
5.94241e-10
6.80358e-11
5.74137e-10
6.918e-11
5.53763e-10
7.02377e-11
5.33138e-10
7.11958e-11
5.12288e-10
7.20431e-11
4.91243e-10
7.27789e-11
4.70032e-10
7.34032e-11
4.48684e-10
7.39107e-11
4.27243e-10
7.4295e-11
4.05752e-10
7.45509e-11
3.84253e-10
7.46766e-11
3.62784e-10
7.46669e-11
3.41397e-10
7.4507e-11
3.20145e-10
7.41852e-11
2.99084e-10
7.36928e-11
2.78264e-10
7.30157e-11
2.57738e-10
7.21402e-11
2.37569e-10
7.10522e-11
2.1782e-10
6.97362e-11
1.98548e-10
6.81807e-11
1.79812e-10
6.63756e-11
1.61679e-10
6.43147e-11
1.44217e-10
6.19943e-11
1.27492e-10
5.94101e-11
1.11568e-10
5.65604e-11
9.65103e-11
5.34408e-11
8.23841e-11
5.00525e-11
6.92507e-11
4.64055e-11
5.71648e-11
4.25117e-11
4.61758e-11
3.83923e-11
3.63274e-11
3.40758e-11
2.76562e-11
2.95964e-11
2.01851e-11
2.50065e-11
1.39183e-11
2.03811e-11
8.85201e-12
1.58081e-11
4.96776e-12
1.13942e-11
2.23103e-12
7.26243e-12
5.93104e-13
3.55044e-12
-2.91512e-14
5.21062e-13
-8.63801e-13
-5.95065e-12
3.06561e-11
-1.29531e-11
3.18027e-11
-1.58768e-11
6.4762e-12
-1.52358e-11
-1.46956e-11
-1.18827e-11
-2.989e-11
-6.36109e-12
-4.09488e-11
9.95576e-13
-4.92278e-11
1.00158e-11
-5.55146e-11
2.04922e-11
-6.03374e-11
3.24583e-11
-6.41442e-11
4.57848e-11
-6.70776e-11
6.05041e-11
-6.94732e-11
7.65027e-11
-7.13162e-11
9.37794e-11
-7.28651e-11
1.1223e-10
-7.4093e-11
1.31788e-10
-7.51807e-11
1.52417e-10
-7.61786e-11
1.7396e-10
-7.71002e-11
1.96342e-10
-7.80146e-11
2.19479e-10
-7.89714e-11
2.43276e-10
-7.99648e-11
2.67587e-10
-8.10162e-11
2.92383e-10
-8.21332e-11
3.17495e-10
-8.32527e-11
3.42912e-10
-8.44073e-11
3.68512e-10
-8.55452e-11
3.94277e-10
-8.66866e-11
4.20093e-10
-8.77408e-11
4.4594e-10
-8.87785e-11
4.71734e-10
-8.97057e-11
4.9744e-10
-9.0583e-11
5.2299e-10
-9.13218e-11
5.48342e-10
-9.19856e-11
5.73447e-10
-9.24877e-11
5.98288e-10
-9.28647e-11
6.22797e-10
-9.30722e-11
6.46979e-10
-9.30998e-11
6.70788e-10
-9.29693e-11
6.94202e-10
-9.26217e-11
7.17205e-10
-9.21046e-11
7.39777e-10
-9.13952e-11
7.61898e-10
-9.04906e-11
7.83549e-10
-8.93977e-11
8.04716e-10
-8.8116e-11
8.25388e-10
-8.66531e-11
8.45552e-10
-8.50157e-11
8.65204e-10
-8.32147e-11
8.84338e-10
-8.12688e-11
9.02945e-10
-7.91815e-11
9.21013e-10
-7.69697e-11
9.38533e-10
-7.46548e-11
9.55494e-10
-7.22452e-11
9.71887e-10
-6.97513e-11
9.87706e-10
-6.71919e-11
1.00295e-09
-6.4576e-11
1.01762e-09
-6.19072e-11
1.03171e-09
-5.91987e-11
1.04522e-09
-5.64719e-11
1.05814e-09
-5.37326e-11
1.07046e-09
-5.09913e-11
1.08218e-09
-4.82598e-11
1.0933e-09
-4.55418e-11
1.10381e-09
-4.28418e-11
1.1137e-09
-4.01546e-11
1.12299e-09
-3.74822e-11
1.13166e-09
-3.48328e-11
1.13972e-09
-3.22017e-11
1.14716e-09
-2.95868e-11
1.15398e-09
-2.69929e-11
1.1602e-09
-2.44212e-11
1.1658e-09
-2.18716e-11
1.17078e-09
-1.93428e-11
1.17515e-09
-1.68334e-11
1.1789e-09
-1.43456e-11
1.18205e-09
-1.1881e-11
1.18458e-09
-9.43668e-12
1.18651e-09
-7.01301e-12
1.18784e-09
-4.61491e-12
1.18857e-09
-2.24602e-12
1.18869e-09
9.26694e-14
1.1882e-09
2.40069e-12
1.1871e-09
4.67776e-12
1.18539e-09
6.92555e-12
1.18307e-09
9.14806e-12
1.18013e-09
1.13545e-11
1.17658e-09
1.3555e-11
1.1724e-09
1.57543e-11
1.16761e-09
1.79564e-11
1.16222e-09
2.0171e-11
1.1562e-09
2.2406e-11
1.14958e-09
2.4662e-11
1.14236e-09
2.694e-11
1.13454e-09
2.92427e-11
1.12611e-09
3.15697e-11
1.11709e-09
3.39205e-11
1.10748e-09
3.62916e-11
1.09728e-09
3.86765e-11
1.08648e-09
4.10702e-11
1.0751e-09
4.34669e-11
1.06312e-09
4.58608e-11
1.05055e-09
4.82502e-11
1.03738e-09
5.0632e-11
1.02362e-09
5.30003e-11
1.00927e-09
5.53575e-11
9.94329e-10
5.77108e-11
9.78807e-10
6.00574e-11
9.62718e-10
6.23903e-11
9.46074e-10
6.47087e-11
9.2888e-10
6.70125e-11
9.11147e-10
6.92924e-11
8.92888e-10
7.15364e-11
8.74115e-10
7.37391e-11
8.54836e-10
7.58946e-11
8.35059e-10
7.79937e-11
8.14802e-10
8.00319e-11
7.94082e-10
8.20082e-11
7.72914e-10
8.39184e-11
7.51318e-10
8.57559e-11
7.29318e-10
8.75141e-11
7.06941e-10
8.91879e-11
6.84207e-10
9.07701e-11
6.6114e-10
9.22475e-11
6.3777e-10
9.3607e-11
6.14127e-10
9.48382e-11
5.90236e-10
9.59339e-11
5.66125e-10
9.68893e-11
5.41833e-10
9.76953e-11
5.17403e-10
9.83408e-11
4.92876e-10
9.88214e-11
4.68294e-10
9.91328e-11
4.43705e-10
9.92644e-11
4.19166e-10
9.92048e-11
3.94731e-10
9.89422e-11
3.70453e-10
9.84641e-11
3.46391e-10
9.77558e-11
3.22608e-10
9.6799e-11
2.99168e-10
9.55798e-11
2.76134e-10
9.40861e-11
2.53568e-10
9.23009e-11
2.31542e-10
9.02072e-11
2.10125e-10
8.77924e-11
1.89386e-10
8.50533e-11
1.69395e-10
8.19866e-11
1.50225e-10
7.85816e-11
1.3195e-10
7.48342e-11
1.14644e-10
7.07469e-11
9.83716e-11
6.63255e-11
8.31947e-11
6.15822e-11
6.91764e-11
5.65306e-11
5.63773e-11
5.11934e-11
4.48442e-11
4.56095e-11
3.46121e-11
3.98275e-11
2.57088e-11
3.39104e-11
1.81497e-11
2.79411e-11
1.19367e-11
2.20218e-11
7.05911e-12
1.62727e-11
3.49326e-12
1.08289e-11
1.20907e-12
5.83506e-12
1.48554e-13
1.58226e-12
-7.1489e-13
-5.39384e-12
3.60465e-11
-1.15028e-11
3.79116e-11
-1.36074e-11
8.57922e-12
-1.21175e-11
-1.61876e-11
-7.92109e-12
-3.40832e-11
-1.43814e-12
-4.74341e-11
6.94372e-12
-5.76076e-11
1.7121e-11
-6.56931e-11
2.8969e-11
-7.21828e-11
4.23954e-11
-7.75704e-11
5.73627e-11
-8.20435e-11
7.37888e-11
-8.59012e-11
9.1693e-11
-8.92191e-11
1.1095e-10
-9.21193e-11
1.31579e-10
-9.47182e-11
1.53414e-10
-9.70172e-11
1.76383e-10
-9.91515e-11
2.00418e-10
-1.0113e-10
2.25434e-10
-1.03033e-10
2.51259e-10
-1.04795e-10
2.77841e-10
-1.06544e-10
3.05026e-10
-1.08205e-10
3.32739e-10
-1.09847e-10
3.60878e-10
-1.1139e-10
3.89355e-10
-1.12885e-10
4.18081e-10
-1.14272e-10
4.46948e-10
-1.15554e-10
4.75937e-10
-1.16729e-10
5.04917e-10
-1.17759e-10
5.3389e-10
-1.18679e-10
5.62723e-10
-1.19416e-10
5.91425e-10
-1.20025e-10
6.19881e-10
-1.2044e-10
6.48081e-10
-1.20689e-10
6.75974e-10
-1.20756e-10
7.03494e-10
-1.20593e-10
7.30654e-10
-1.20261e-10
7.57374e-10
-1.19686e-10
7.83664e-10
-1.18914e-10
8.09484e-10
-1.17923e-10
8.34803e-10
-1.16713e-10
8.59612e-10
-1.15301e-10
8.83896e-10
-1.1368e-10
9.07634e-10
-1.11855e-10
9.30814e-10
-1.09832e-10
9.53423e-10
-1.07624e-10
9.7545e-10
-1.05244e-10
9.96885e-10
-1.02702e-10
1.01772e-09
-1.00016e-10
1.03795e-09
-9.71998e-11
1.05756e-09
-9.42701e-11
1.07655e-09
-9.12342e-11
1.09491e-09
-8.81078e-11
1.11263e-09
-8.49093e-11
1.1297e-09
-8.16446e-11
1.14612e-09
-7.83268e-11
1.16189e-09
-7.49691e-11
1.177e-09
-7.15867e-11
1.19145e-09
-6.81867e-11
1.20524e-09
-6.4777e-11
1.21835e-09
-6.1374e-11
1.23079e-09
-5.79808e-11
1.24255e-09
-5.45962e-11
1.25362e-09
-5.12254e-11
1.264e-09
-4.787e-11
1.2737e-09
-4.45326e-11
1.28272e-09
-4.12125e-11
1.29104e-09
-3.7909e-11
1.29867e-09
-3.46274e-11
1.30562e-09
-3.13685e-11
1.31188e-09
-2.81298e-11
1.31745e-09
-2.49118e-11
1.32233e-09
-2.17155e-11
1.32653e-09
-1.85425e-11
1.33004e-09
-1.53931e-11
1.33287e-09
-1.22643e-11
1.33501e-09
-9.15869e-12
1.33648e-09
-6.08201e-12
1.33727e-09
-3.03455e-12
1.33737e-09
-1.38531e-14
1.3368e-09
2.97945e-12
1.33553e-09
5.94262e-12
1.33358e-09
8.87778e-12
1.33093e-09
1.17924e-11
1.32759e-09
1.46936e-11
1.32356e-09
1.75862e-11
1.31884e-09
2.04758e-11
1.31343e-09
2.33706e-11
1.30732e-09