/*--------------------------------*- C++ -*----------------------------------*\
  =========                 |
  \\      /  F ield         | OpenFOAM: The Open Source CFD Toolbox
   \\    /   O peration     | Website:  https://openfoam.org
    \\  /    A nd           | Version:  7
     \\/     M anipulation  |
\*---------------------------------------------------------------------------*/
FoamFile
{
    version     2.0;
    format      ascii;
    class       volVectorField;
    location    "0.0875";
    object      U;
}
// * * * * * * * * * * * * * * * * * * * * * * * * * * * * * * * * * * * * * //

dimensions      [0 1 -1 0 0 0 0];

internalField   nonuniform List<vector> 
51200
(
(-2.28468e-07 -1.94105e-07 0)
(1.25413e-08 -3.77159e-07 0)
(3.03863e-07 -4.28255e-07 0)
(1.03005e-06 -5.53776e-07 0)
(1.83933e-06 -6.40738e-07 0)
(2.77618e-06 -6.97701e-07 0)
(3.78533e-06 -7.23181e-07 0)
(4.82189e-06 -7.17527e-07 0)
(5.83413e-06 -6.82085e-07 0)
(6.7865e-06 -6.14089e-07 0)
(7.64406e-06 -5.26758e-07 0)
(8.38543e-06 -4.22051e-07 0)
(8.9891e-06 -3.15151e-07 0)
(9.44646e-06 -1.97843e-07 0)
(9.76143e-06 -9.07817e-08 0)
(9.92905e-06 2.62333e-08 0)
(9.9665e-06 1.26086e-07 0)
(9.88485e-06 2.16415e-07 0)
(9.69956e-06 2.9068e-07 0)
(9.43129e-06 3.46635e-07 0)
(9.10639e-06 3.94426e-07 0)
(8.73699e-06 4.2924e-07 0)
(8.35138e-06 4.47298e-07 0)
(7.96056e-06 4.53898e-07 0)
(7.58226e-06 4.41989e-07 0)
(7.23306e-06 4.23253e-07 0)
(6.91482e-06 4.03408e-07 0)
(6.63235e-06 3.80356e-07 0)
(6.38905e-06 3.48809e-07 0)
(6.19662e-06 3.14578e-07 0)
(6.05762e-06 2.67169e-07 0)
(5.96972e-06 2.25987e-07 0)
(5.95457e-06 1.80897e-07 0)
(5.98956e-06 1.3347e-07 0)
(6.0944e-06 8.54193e-08 0)
(6.265e-06 3.96935e-08 0)
(6.48467e-06 -2.7236e-09 0)
(6.76431e-06 -4.15517e-08 0)
(7.0859e-06 -7.16622e-08 0)
(7.45096e-06 -1.00725e-07 0)
(7.84966e-06 -1.36171e-07 0)
(8.28653e-06 -1.65346e-07 0)
(8.75086e-06 -1.88166e-07 0)
(9.23183e-06 -2.11377e-07 0)
(9.73444e-06 -2.28287e-07 0)
(1.0248e-05 -2.38066e-07 0)
(1.07581e-05 -2.48317e-07 0)
(1.12673e-05 -2.54766e-07 0)
(1.17727e-05 -2.50289e-07 0)
(1.22611e-05 -2.38975e-07 0)
(1.27318e-05 -2.27073e-07 0)
(1.31896e-05 -2.14434e-07 0)
(1.36296e-05 -2.04275e-07 0)
(1.40488e-05 -2.00285e-07 0)
(1.44498e-05 -1.97095e-07 0)
(1.483e-05 -1.86438e-07 0)
(1.51822e-05 -1.69154e-07 0)
(1.55047e-05 -1.50373e-07 0)
(1.57997e-05 -1.30429e-07 0)
(1.60681e-05 -1.11446e-07 0)
(1.63109e-05 -9.8369e-08 0)
(1.65312e-05 -9.00992e-08 0)
(1.67318e-05 -8.05589e-08 0)
(1.69119e-05 -6.74246e-08 0)
(1.70704e-05 -5.42567e-08 0)
(1.72094e-05 -4.3589e-08 0)
(1.73319e-05 -3.45906e-08 0)
(1.74381e-05 -2.62263e-08 0)
(1.75281e-05 -1.98469e-08 0)
(1.76038e-05 -1.47812e-08 0)
(1.76659e-05 -8.65303e-09 0)
(1.7716e-05 -2.96944e-09 0)
(1.77551e-05 9.86256e-10 0)
(1.77835e-05 3.85548e-09 0)
(1.78036e-05 6.10905e-09 0)
(1.7815e-05 9.21201e-09 0)
(1.78151e-05 1.34297e-08 0)
(1.7804e-05 1.73471e-08 0)
(1.77824e-05 2.10103e-08 0)
(1.77511e-05 2.49055e-08 0)
(1.77119e-05 2.76309e-08 0)
(1.76678e-05 2.75935e-08 0)
(1.76215e-05 2.55224e-08 0)
(1.75753e-05 2.30308e-08 0)
(1.75309e-05 2.06359e-08 0)
(1.74877e-05 1.84346e-08 0)
(1.74452e-05 1.6071e-08 0)
(1.74041e-05 1.32441e-08 0)
(1.73635e-05 1.08875e-08 0)
(1.73216e-05 9.50061e-09 0)
(1.72778e-05 8.69521e-09 0)
(1.72306e-05 9.02283e-09 0)
(1.71781e-05 1.07514e-08 0)
(1.71194e-05 1.2787e-08 0)
(1.70522e-05 1.48297e-08 0)
(1.69746e-05 1.74199e-08 0)
(1.6886e-05 2.06647e-08 0)
(1.67856e-05 2.48597e-08 0)
(1.6672e-05 2.97657e-08 0)
(1.65466e-05 3.32759e-08 0)
(1.64119e-05 3.40482e-08 0)
(1.62689e-05 3.3734e-08 0)
(1.6119e-05 3.38894e-08 0)
(1.59644e-05 3.42349e-08 0)
(1.5804e-05 3.49391e-08 0)
(1.56359e-05 3.64657e-08 0)
(1.54598e-05 3.82999e-08 0)
(1.52744e-05 4.07852e-08 0)
(1.50762e-05 4.53335e-08 0)
(1.48634e-05 5.15974e-08 0)
(1.46368e-05 5.80435e-08 0)
(1.43965e-05 6.43829e-08 0)
(1.4143e-05 7.02777e-08 0)
(1.38785e-05 7.4323e-08 0)
(1.36046e-05 7.64601e-08 0)
(1.33209e-05 7.85949e-08 0)
(1.30274e-05 8.19751e-08 0)
(1.27246e-05 8.65344e-08 0)
(1.24109e-05 9.23627e-08 0)
(1.2084e-05 9.90981e-08 0)
(1.17442e-05 1.05144e-07 0)
(1.13931e-05 1.09643e-07 0)
(1.10315e-05 1.13432e-07 0)
(1.0661e-05 1.16911e-07 0)
(1.02845e-05 1.19089e-07 0)
(9.90462e-06 1.19669e-07 0)
(9.52201e-06 1.19923e-07 0)
(9.13704e-06 1.2059e-07 0)
(8.75077e-06 1.21356e-07 0)
(8.3626e-06 1.22459e-07 0)
(7.97102e-06 1.24096e-07 0)
(7.57637e-06 1.25628e-07 0)
(7.17963e-06 1.26999e-07 0)
(6.78075e-06 1.28902e-07 0)
(6.37901e-06 1.31692e-07 0)
(5.97391e-06 1.34989e-07 0)
(5.56631e-06 1.37895e-07 0)
(5.15774e-06 1.4045e-07 0)
(4.74882e-06 1.4321e-07 0)
(4.34153e-06 1.45332e-07 0)
(3.93903e-06 1.46281e-07 0)
(3.54322e-06 1.46386e-07 0)
(3.15619e-06 1.4537e-07 0)
(2.78002e-06 1.43281e-07 0)
(2.41649e-06 1.40193e-07 0)
(2.06822e-06 1.36096e-07 0)
(1.73739e-06 1.30626e-07 0)
(1.42719e-06 1.2242e-07 0)
(1.1415e-06 1.11887e-07 0)
(8.83001e-07 1.00314e-07 0)
(6.54547e-07 8.81807e-08 0)
(4.57623e-07 7.5608e-08 0)
(2.9417e-07 6.11746e-08 0)
(1.67075e-07 4.47945e-08 0)
(7.62825e-08 2.8814e-08 0)
(2.00528e-08 1.47712e-08 0)
(-5.77274e-09 3.7382e-09 0)
(-8.05875e-09 -2.39291e-09 0)
(-2.67815e-09 -5.81432e-10 0)
(1.17412e-09 4.467e-09 0)
(-4.72591e-07 1.55278e-07 0)
(-7.10952e-07 -4.06174e-07 0)
(-4.50732e-07 -8.39192e-07 0)
(2.88314e-07 -1.26108e-06 0)
(1.35022e-06 -1.54455e-06 0)
(2.65199e-06 -1.71185e-06 0)
(4.09969e-06 -1.80452e-06 0)
(5.60101e-06 -1.80867e-06 0)
(7.11834e-06 -1.74672e-06 0)
(8.6021e-06 -1.61395e-06 0)
(1.00115e-05 -1.44187e-06 0)
(1.13009e-05 -1.21884e-06 0)
(1.24608e-05 -9.87835e-07 0)
(1.34717e-05 -7.36729e-07 0)
(1.43382e-05 -4.99689e-07 0)
(1.50559e-05 -2.66818e-07 0)
(1.56146e-05 -5.37068e-08 0)
(1.60567e-05 1.42149e-07 0)
(1.63905e-05 2.92858e-07 0)
(1.66377e-05 4.20747e-07 0)
(1.6814e-05 4.965e-07 0)
(1.69394e-05 5.55608e-07 0)
(1.70413e-05 5.77286e-07 0)
(1.71484e-05 5.72325e-07 0)
(1.72811e-05 5.35324e-07 0)
(1.74377e-05 4.87581e-07 0)
(1.76185e-05 4.24148e-07 0)
(1.78473e-05 3.61955e-07 0)
(1.81448e-05 2.89156e-07 0)
(1.84932e-05 1.95764e-07 0)
(1.89062e-05 1.03109e-07 0)
(1.93965e-05 -8.2024e-09 0)
(1.99454e-05 -1.02761e-07 0)
(2.05817e-05 -2.25059e-07 0)
(2.12857e-05 -3.1758e-07 0)
(2.20577e-05 -4.3076e-07 0)
(2.29037e-05 -5.23193e-07 0)
(2.3803e-05 -6.08088e-07 0)
(2.4758e-05 -6.80998e-07 0)
(2.57584e-05 -7.46803e-07 0)
(2.68039e-05 -8.04438e-07 0)
(2.78814e-05 -8.55755e-07 0)
(2.89804e-05 -9.00968e-07 0)
(3.0104e-05 -9.33968e-07 0)
(3.12337e-05 -9.52456e-07 0)
(3.23604e-05 -9.61152e-07 0)
(3.34875e-05 -9.62366e-07 0)
(3.46015e-05 -9.53008e-07 0)
(3.5691e-05 -9.35155e-07 0)
(3.67564e-05 -9.11022e-07 0)
(3.77922e-05 -8.78736e-07 0)
(3.87933e-05 -8.41012e-07 0)
(3.97604e-05 -8.04707e-07 0)
(4.06905e-05 -7.70286e-07 0)
(4.15776e-05 -7.32451e-07 0)
(4.24203e-05 -6.89317e-07 0)
(4.32154e-05 -6.42018e-07 0)
(4.39587e-05 -5.91032e-07 0)
(4.46534e-05 -5.38008e-07 0)
(4.53029e-05 -4.87638e-07 0)
(4.59066e-05 -4.44378e-07 0)
(4.64659e-05 -4.05672e-07 0)
(4.69851e-05 -3.67996e-07 0)
(4.7464e-05 -3.30764e-07 0)
(4.79009e-05 -2.949e-07 0)
(4.82985e-05 -2.60352e-07 0)
(4.86606e-05 -2.27324e-07 0)
(4.89879e-05 -1.97105e-07 0)
(4.92791e-05 -1.69371e-07 0)
(4.95363e-05 -1.43488e-07 0)
(4.97625e-05 -1.18164e-07 0)
(4.99575e-05 -9.44962e-08 0)
(5.01215e-05 -7.46213e-08 0)
(5.02563e-05 -5.61889e-08 0)
(5.03644e-05 -3.71378e-08 0)
(5.04465e-05 -1.7406e-08 0)
(5.0501e-05 3.00272e-09 0)
(5.05273e-05 2.3259e-08 0)
(5.05272e-05 4.26613e-08 0)
(5.05032e-05 6.00784e-08 0)
(5.04568e-05 7.33794e-08 0)
(5.03894e-05 8.15477e-08 0)
(5.03051e-05 8.54994e-08 0)
(5.02073e-05 8.69392e-08 0)
(5.00955e-05 8.7043e-08 0)
(4.997e-05 8.66268e-08 0)
(4.98323e-05 8.69092e-08 0)
(4.96821e-05 8.86277e-08 0)
(4.95189e-05 9.15776e-08 0)
(4.93418e-05 9.59284e-08 0)
(4.91478e-05 1.02285e-07 0)
(4.89345e-05 1.11302e-07 0)
(4.87014e-05 1.23892e-07 0)
(4.84462e-05 1.39867e-07 0)
(4.81662e-05 1.57816e-07 0)
(4.786e-05 1.77217e-07 0)
(4.75264e-05 1.98758e-07 0)
(4.71642e-05 2.22044e-07 0)
(4.67743e-05 2.44985e-07 0)
(4.63566e-05 2.65682e-07 0)
(4.59111e-05 2.83209e-07 0)
(4.54411e-05 2.97638e-07 0)
(4.49489e-05 3.10276e-07 0)
(4.44331e-05 3.22903e-07 0)
(4.38927e-05 3.36705e-07 0)
(4.33287e-05 3.52414e-07 0)
(4.27391e-05 3.71041e-07 0)
(4.21209e-05 3.93128e-07 0)
(4.14739e-05 4.17801e-07 0)
(4.07975e-05 4.43679e-07 0)
(4.00883e-05 4.70009e-07 0)
(3.93472e-05 4.96031e-07 0)
(3.8579e-05 5.20183e-07 0)
(3.7784e-05 5.41437e-07 0)
(3.69604e-05 5.6028e-07 0)
(3.6111e-05 5.77919e-07 0)
(3.52387e-05 5.95923e-07 0)
(3.43416e-05 6.15922e-07 0)
(3.34188e-05 6.38333e-07 0)
(3.24731e-05 6.61634e-07 0)
(3.15049e-05 6.83753e-07 0)
(3.05119e-05 7.03897e-07 0)
(2.9497e-05 7.21707e-07 0)
(2.84655e-05 7.35912e-07 0)
(2.74187e-05 7.45701e-07 0)
(2.63556e-05 7.5208e-07 0)
(2.52808e-05 7.56995e-07 0)
(2.42e-05 7.61751e-07 0)
(2.31132e-05 7.66605e-07 0)
(2.20185e-05 7.71684e-07 0)
(2.09181e-05 7.76729e-07 0)
(1.9815e-05 7.80766e-07 0)
(1.87088e-05 7.84114e-07 0)
(1.75988e-05 7.88234e-07 0)
(1.64895e-05 7.92849e-07 0)
(1.53843e-05 7.96432e-07 0)
(1.42827e-05 7.9813e-07 0)
(1.31866e-05 7.9749e-07 0)
(1.21025e-05 7.94053e-07 0)
(1.10365e-05 7.86624e-07 0)
(9.99035e-06 7.74212e-07 0)
(8.96634e-06 7.57952e-07 0)
(7.97165e-06 7.38343e-07 0)
(7.01403e-06 7.14556e-07 0)
(6.09669e-06 6.8666e-07 0)
(5.22237e-06 6.5424e-07 0)
(4.39773e-06 6.16687e-07 0)
(3.63073e-06 5.72913e-07 0)
(2.92618e-06 5.22511e-07 0)
(2.287e-06 4.67808e-07 0)
(1.71948e-06 4.09481e-07 0)
(1.23038e-06 3.47202e-07 0)
(8.22251e-07 2.81088e-07 0)
(4.94975e-07 2.12095e-07 0)
(2.4801e-07 1.44513e-07 0)
(8.13692e-08 8.27344e-08 0)
(-1.07487e-08 3.12193e-08 0)
(-4.10655e-08 -4.32107e-09 0)
(-3.45665e-08 -1.30062e-08 0)
(-1.6571e-08 -5.97792e-09 0)
(-5.42938e-07 6.29656e-07 0)
(-1.16134e-06 1.13109e-07 0)
(-1.53677e-06 -1.03126e-06 0)
(-1.30007e-06 -1.94221e-06 0)
(-6.33155e-07 -2.5498e-06 0)
(2.8935e-07 -2.93935e-06 0)
(1.40346e-06 -3.15431e-06 0)
(2.65496e-06 -3.23565e-06 0)
(3.98348e-06 -3.18994e-06 0)
(5.35472e-06 -3.05862e-06 0)
(6.75222e-06 -2.829e-06 0)
(8.15408e-06 -2.55754e-06 0)
(9.5342e-06 -2.2203e-06 0)
(1.0898e-05 -1.89616e-06 0)
(1.22274e-05 -1.5439e-06 0)
(1.35192e-05 -1.22817e-06 0)
(1.47789e-05 -9.19812e-07 0)
(1.5995e-05 -6.51674e-07 0)
(1.71935e-05 -4.25787e-07 0)
(1.83629e-05 -2.55806e-07 0)
(1.95209e-05 -1.32972e-07 0)
(2.06813e-05 -6.51411e-08 0)
(2.18261e-05 -3.40777e-08 0)
(2.29776e-05 -5.54434e-08 0)
(2.41539e-05 -9.80087e-08 0)
(2.53473e-05 -1.86552e-07 0)
(2.65633e-05 -2.72147e-07 0)
(2.78144e-05 -3.83685e-07 0)
(2.9083e-05 -5.01216e-07 0)
(3.0404e-05 -6.40616e-07 0)
(3.17529e-05 -7.87955e-07 0)
(3.31388e-05 -9.42805e-07 0)
(3.45618e-05 -1.11516e-06 0)
(3.60125e-05 -1.26342e-06 0)
(3.75011e-05 -1.43588e-06 0)
(3.90107e-05 -1.58304e-06 0)
(4.05596e-05 -1.72419e-06 0)
(4.21222e-05 -1.8569e-06 0)
(4.36991e-05 -1.96378e-06 0)
(4.52994e-05 -2.05939e-06 0)
(4.69052e-05 -2.14054e-06 0)
(4.85094e-05 -2.20887e-06 0)
(5.01166e-05 -2.25831e-06 0)
(5.17118e-05 -2.29263e-06 0)
(5.32897e-05 -2.30965e-06 0)
(5.48513e-05 -2.30259e-06 0)
(5.63881e-05 -2.2803e-06 0)
(5.78964e-05 -2.2483e-06 0)
(5.93754e-05 -2.20177e-06 0)
(6.08185e-05 -2.14588e-06 0)
(6.22192e-05 -2.08377e-06 0)
(6.35765e-05 -2.0119e-06 0)
(6.48883e-05 -1.93256e-06 0)
(6.61498e-05 -1.85011e-06 0)
(6.73594e-05 -1.76181e-06 0)
(6.85179e-05 -1.66558e-06 0)
(6.96241e-05 -1.56642e-06 0)
(7.06758e-05 -1.46622e-06 0)
(7.16743e-05 -1.36504e-06 0)
(7.26207e-05 -1.26665e-06 0)
(7.35129e-05 -1.17431e-06 0)
(7.43512e-05 -1.08651e-06 0)
(7.51391e-05 -1.00081e-06 0)
(7.58764e-05 -9.1752e-07 0)
(7.65613e-05 -8.37371e-07 0)
(7.7196e-05 -7.60134e-07 0)
(7.77831e-05 -6.8447e-07 0)
(7.83224e-05 -6.11834e-07 0)
(7.88133e-05 -5.43161e-07 0)
(7.92563e-05 -4.76357e-07 0)
(7.96539e-05 -4.11649e-07 0)
(8.00065e-05 -3.50584e-07 0)
(8.03117e-05 -2.93175e-07 0)
(8.05711e-05 -2.38133e-07 0)
(8.0788e-05 -1.83419e-07 0)
(8.09622e-05 -1.28111e-07 0)
(8.10928e-05 -7.28479e-08 0)
(8.11819e-05 -1.89079e-08 0)
(8.12316e-05 3.29521e-08 0)
(8.12424e-05 8.14509e-08 0)
(8.12147e-05 1.2374e-07 0)
(8.11492e-05 1.59005e-07 0)
(8.10471e-05 1.89175e-07 0)
(8.09111e-05 2.15282e-07 0)
(8.07405e-05 2.38245e-07 0)
(8.0534e-05 2.60366e-07 0)
(8.02938e-05 2.8322e-07 0)
(8.00213e-05 3.07983e-07 0)
(7.9715e-05 3.35545e-07 0)
(7.93745e-05 3.65281e-07 0)
(7.89983e-05 3.97784e-07 0)
(7.85842e-05 4.35031e-07 0)
(7.81329e-05 4.77208e-07 0)
(7.76435e-05 5.23862e-07 0)
(7.71125e-05 5.75089e-07 0)
(7.65407e-05 6.2946e-07 0)
(7.59302e-05 6.85452e-07 0)
(7.52778e-05 7.43405e-07 0)
(7.4582e-05 8.01699e-07 0)
(7.38454e-05 8.56742e-07 0)
(7.30673e-05 9.07892e-07 0)
(7.2246e-05 9.56479e-07 0)
(7.13842e-05 1.00257e-06 0)
(7.0482e-05 1.04713e-06 0)
(6.95357e-05 1.09335e-06 0)
(6.85458e-05 1.14303e-06 0)
(6.75158e-05 1.19632e-06 0)
(6.64445e-05 1.25418e-06 0)
(6.53296e-05 1.31608e-06 0)
(6.41737e-05 1.37872e-06 0)
(6.29775e-05 1.4401e-06 0)
(6.17389e-05 1.50072e-06 0)
(6.04593e-05 1.55949e-06 0)
(5.91417e-05 1.61415e-06 0)
(5.77849e-05 1.66534e-06 0)
(5.6388e-05 1.71514e-06 0)
(5.49556e-05 1.76422e-06 0)
(5.34905e-05 1.81342e-06 0)
(5.19908e-05 1.86415e-06 0)
(5.04571e-05 1.91559e-06 0)
(4.88942e-05 1.96481e-06 0)
(4.73037e-05 2.01019e-06 0)
(4.56852e-05 2.05162e-06 0)
(4.40409e-05 2.08757e-06 0)
(4.23747e-05 2.11597e-06 0)
(4.06872e-05 2.13778e-06 0)
(3.89797e-05 2.15595e-06 0)
(3.72579e-05 2.17196e-06 0)
(3.55267e-05 2.18577e-06 0)
(3.37868e-05 2.19765e-06 0)
(3.20387e-05 2.20768e-06 0)
(3.02873e-05 2.21501e-06 0)
(2.85371e-05 2.21932e-06 0)
(2.67901e-05 2.22131e-06 0)
(2.50495e-05 2.22099e-06 0)
(2.33204e-05 2.21669e-06 0)
(2.1608e-05 2.20633e-06 0)
(1.99168e-05 2.18903e-06 0)
(1.8252e-05 2.16406e-06 0)
(1.66206e-05 2.12971e-06 0)
(1.50284e-05 2.08498e-06 0)
(1.34797e-05 2.0302e-06 0)
(1.19815e-05 1.96575e-06 0)
(1.05425e-05 1.8919e-06 0)
(9.17021e-06 1.80818e-06 0)
(7.87048e-06 1.71374e-06 0)
(6.64855e-06 1.60752e-06 0)
(5.51191e-06 1.48865e-06 0)
(4.46825e-06 1.35796e-06 0)
(3.5239e-06 1.21712e-06 0)
(2.68494e-06 1.06709e-06 0)
(1.95557e-06 9.08542e-07 0)
(1.33904e-06 7.43153e-07 0)
(8.37437e-07 5.74758e-07 0)
(4.50283e-07 4.09339e-07 0)
(1.7584e-07 2.54679e-07 0)
(5.48869e-09 1.19276e-07 0)
(-6.90676e-08 1.64233e-08 0)
(-6.88179e-08 -3.78037e-08 0)
(-3.57801e-08 -3.63142e-08 0)
(-6.61105e-07 1.5337e-06 0)
(-1.51987e-06 1.04421e-06 0)
(-2.24667e-06 -7.58771e-07 0)
(-2.33041e-06 -2.19433e-06 0)
(-1.95522e-06 -3.17449e-06 0)
(-1.27007e-06 -3.82427e-06 0)
(-3.56135e-07 -4.2292e-06 0)
(7.2263e-07 -4.43858e-06 0)
(1.9421e-06 -4.49901e-06 0)
(3.29366e-06 -4.43291e-06 0)
(4.7466e-06 -4.27992e-06 0)
(6.28903e-06 -4.04296e-06 0)
(7.9006e-06 -3.75776e-06 0)
(9.58255e-06 -3.437e-06 0)
(1.13412e-05 -3.12345e-06 0)
(1.31455e-05 -2.80038e-06 0)
(1.49994e-05 -2.51657e-06 0)
(1.68929e-05 -2.25615e-06 0)
(1.88289e-05 -2.02922e-06 0)
(2.08056e-05 -1.87612e-06 0)
(2.28102e-05 -1.75237e-06 0)
(2.48436e-05 -1.70281e-06 0)
(2.68911e-05 -1.68666e-06 0)
(2.89699e-05 -1.71425e-06 0)
(3.10695e-05 -1.78469e-06 0)
(3.31891e-05 -1.87441e-06 0)
(3.5323e-05 -1.99406e-06 0)
(3.74653e-05 -2.12253e-06 0)
(3.96449e-05 -2.27534e-06 0)
(4.18262e-05 -2.42036e-06 0)
(4.40268e-05 -2.60223e-06 0)
(4.62285e-05 -2.76641e-06 0)
(4.84455e-05 -2.95375e-06 0)
(5.06647e-05 -3.12724e-06 0)
(5.28682e-05 -3.30391e-06 0)
(5.50871e-05 -3.45882e-06 0)
(5.72847e-05 -3.60935e-06 0)
(5.948e-05 -3.7398e-06 0)
(6.1668e-05 -3.85047e-06 0)
(6.38304e-05 -3.94263e-06 0)
(6.59804e-05 -4.01711e-06 0)
(6.81057e-05 -4.06919e-06 0)
(7.01987e-05 -4.10266e-06 0)
(7.22619e-05 -4.11687e-06 0)
(7.42921e-05 -4.10554e-06 0)
(7.62809e-05 -4.07196e-06 0)
(7.82265e-05 -4.01769e-06 0)
(8.01314e-05 -3.94222e-06 0)
(8.19897e-05 -3.85172e-06 0)
(8.37986e-05 -3.75171e-06 0)
(8.55605e-05 -3.64131e-06 0)
(8.72702e-05 -3.52134e-06 0)
(8.89203e-05 -3.39454e-06 0)
(9.05099e-05 -3.25938e-06 0)
(9.20395e-05 -3.11371e-06 0)
(9.35074e-05 -2.96078e-06 0)
(9.49138e-05 -2.80417e-06 0)
(9.6262e-05 -2.64557e-06 0)
(9.75525e-05 -2.48749e-06 0)
(9.87819e-05 -2.33394e-06 0)
(9.99474e-05 -2.18513e-06 0)
(0.00010105 -2.03858e-06 0)
(0.000102091 -1.8949e-06 0)
(0.000103069 -1.7558e-06 0)
(0.000103985 -1.61996e-06 0)
(0.00010484 -1.48672e-06 0)
(0.000105637 -1.35646e-06 0)
(0.000106371 -1.2294e-06 0)
(0.000107044 -1.10622e-06 0)
(0.000107658 -9.85616e-07 0)
(0.000108212 -8.67035e-07 0)
(0.000108706 -7.52899e-07 0)
(0.000109139 -6.43272e-07 0)
(0.000109512 -5.35539e-07 0)
(0.000109828 -4.28469e-07 0)
(0.000110087 -3.2291e-07 0)
(0.000110286 -2.19013e-07 0)
(0.00011043 -1.16225e-07 0)
(0.000110521 -1.62439e-08 0)
(0.000110558 7.82379e-08 0)
(0.00011054 1.66145e-07 0)
(0.000110467 2.47576e-07 0)
(0.000110342 3.23485e-07 0)
(0.000110163 3.95109e-07 0)
(0.000109929 4.63035e-07 0)
(0.00010964 5.29049e-07 0)
(0.0001093 5.95922e-07 0)
(0.000108908 6.64917e-07 0)
(0.000108462 7.36736e-07 0)
(0.000107962 8.11878e-07 0)
(0.00010741 8.90477e-07 0)
(0.000106804 9.7371e-07 0)
(0.000106143 1.06268e-06 0)
(0.000105428 1.15659e-06 0)
(0.000104658 1.25469e-06 0)
(0.000103831 1.35721e-06 0)
(0.000102951 1.46281e-06 0)
(0.000102018 1.56928e-06 0)
(0.000101027 1.67529e-06 0)
(9.99806e-05 1.77957e-06 0)
(9.88781e-05 1.8811e-06 0)
(9.77194e-05 1.9801e-06 0)
(9.65029e-05 2.0773e-06 0)
(9.52284e-05 2.17307e-06 0)
(9.3896e-05 2.26893e-06 0)
(9.25066e-05 2.3677e-06 0)
(9.10612e-05 2.47065e-06 0)
(8.95604e-05 2.57716e-06 0)
(8.80048e-05 2.68631e-06 0)
(8.63962e-05 2.79674e-06 0)
(8.47358e-05 2.90599e-06 0)
(8.30242e-05 3.01213e-06 0)
(8.1262e-05 3.11509e-06 0)
(7.9449e-05 3.21461e-06 0)
(7.75851e-05 3.30999e-06 0)
(7.56724e-05 3.40207e-06 0)
(7.37139e-05 3.49274e-06 0)
(7.17113e-05 3.58254e-06 0)
(6.96658e-05 3.67041e-06 0)
(6.75805e-05 3.75565e-06 0)
(6.54583e-05 3.83801e-06 0)
(6.33006e-05 3.91582e-06 0)
(6.11097e-05 3.98651e-06 0)
(5.88886e-05 4.04886e-06 0)
(5.66384e-05 4.10263e-06 0)
(5.43604e-05 4.14767e-06 0)
(5.20595e-05 4.18479e-06 0)
(4.97412e-05 4.21582e-06 0)
(4.74087e-05 4.24176e-06 0)
(4.50643e-05 4.26212e-06 0)
(4.27132e-05 4.27602e-06 0)
(4.03618e-05 4.28331e-06 0)
(3.80138e-05 4.28456e-06 0)
(3.5673e-05 4.27926e-06 0)
(3.33467e-05 4.26534e-06 0)
(3.10418e-05 4.24133e-06 0)
(2.87629e-05 4.20625e-06 0)
(2.65164e-05 4.15837e-06 0)
(2.43113e-05 4.09604e-06 0)
(2.21557e-05 4.01758e-06 0)
(2.00546e-05 3.92175e-06 0)
(1.80131e-05 3.80873e-06 0)
(1.60422e-05 3.67855e-06 0)
(1.41534e-05 3.53108e-06 0)
(1.23532e-05 3.36608e-06 0)
(1.06469e-05 3.1823e-06 0)
(9.04287e-06 2.97895e-06 0)
(7.55197e-06 2.75611e-06 0)
(6.18201e-06 2.51493e-06 0)
(4.93746e-06 2.25719e-06 0)
(3.82507e-06 1.98384e-06 0)
(2.8521e-06 1.69728e-06 0)
(2.02205e-06 1.40194e-06 0)
(1.33464e-06 1.10313e-06 0)
(7.89025e-07 8.08884e-07 0)
(3.84291e-07 5.30222e-07 0)
(1.14666e-07 2.79414e-07 0)
(-2.94991e-08 7.4752e-08 0)
(-6.70592e-08 -6.05301e-08 0)
(-4.20487e-08 -8.38464e-08 0)
(-7.21449e-07 2.47282e-06 0)
(-1.68866e-06 2.17152e-06 0)
(-2.56941e-06 -2.4369e-07 0)
(-2.79363e-06 -2.22927e-06 0)
(-2.51353e-06 -3.58455e-06 0)
(-1.92205e-06 -4.52671e-06 0)
(-1.06249e-06 -5.15372e-06 0)
(2.14743e-08 -5.55415e-06 0)
(1.28729e-06 -5.7677e-06 0)
(2.71039e-06 -5.84577e-06 0)
(4.30261e-06 -5.81668e-06 0)
(6.05575e-06 -5.70707e-06 0)
(7.93975e-06 -5.54808e-06 0)
(9.95208e-06 -5.3322e-06 0)
(1.20969e-05 -5.11548e-06 0)
(1.4354e-05 -4.89559e-06 0)
(1.6714e-05 -4.68168e-06 0)
(1.91873e-05 -4.5042e-06 0)
(2.17236e-05 -4.35347e-06 0)
(2.43428e-05 -4.23521e-06 0)
(2.70337e-05 -4.1839e-06 0)
(2.97818e-05 -4.15274e-06 0)
(3.25809e-05 -4.18325e-06 0)
(3.53926e-05 -4.23068e-06 0)
(3.82527e-05 -4.32806e-06 0)
(4.11318e-05 -4.43283e-06 0)
(4.40274e-05 -4.57093e-06 0)
(4.69421e-05 -4.71446e-06 0)
(4.98638e-05 -4.86434e-06 0)
(5.27906e-05 -5.03917e-06 0)
(5.57127e-05 -5.19542e-06 0)
(5.8636e-05 -5.37826e-06 0)
(6.15374e-05 -5.53701e-06 0)
(6.44266e-05 -5.714e-06 0)
(6.72992e-05 -5.86244e-06 0)
(7.01377e-05 -6.00477e-06 0)
(7.29525e-05 -6.13422e-06 0)
(7.57385e-05 -6.22695e-06 0)
(7.84831e-05 -6.31616e-06 0)
(8.11979e-05 -6.37646e-06 0)
(8.38729e-05 -6.41248e-06 0)
(8.64991e-05 -6.42964e-06 0)
(8.90786e-05 -6.42147e-06 0)
(9.161e-05 -6.38743e-06 0)
(9.40885e-05 -6.33063e-06 0)
(9.65127e-05 -6.25197e-06 0)
(9.88829e-05 -6.14953e-06 0)
(0.000101194 -6.02391e-06 0)
(0.000103443 -5.88068e-06 0)
(0.000105632 -5.72102e-06 0)
(0.000107759 -5.54688e-06 0)
(0.00010982 -5.36413e-06 0)
(0.000111814 -5.17493e-06 0)
(0.000113741 -4.97655e-06 0)
(0.000115597 -4.76866e-06 0)
(0.00011738 -4.55418e-06 0)
(0.000119092 -4.33331e-06 0)
(0.000120736 -4.10743e-06 0)
(0.000122309 -3.88286e-06 0)
(0.00012381 -3.66294e-06 0)
(0.000125241 -3.44688e-06 0)
(0.000126598 -3.23358e-06 0)
(0.00012788 -3.02321e-06 0)
(0.000129088 -2.81739e-06 0)
(0.000130223 -2.61436e-06 0)
(0.000131284 -2.41281e-06 0)
(0.000132273 -2.21577e-06 0)
(0.000133188 -2.02299e-06 0)
(0.00013403 -1.83251e-06 0)
(0.000134799 -1.64477e-06 0)
(0.000135494 -1.46063e-06 0)
(0.000136115 -1.28059e-06 0)
(0.000136663 -1.10377e-06 0)
(0.000137138 -9.29084e-07 0)
(0.000137542 -7.56934e-07 0)
(0.000137873 -5.87375e-07 0)
(0.000138132 -4.20005e-07 0)
(0.000138323 -2.5468e-07 0)
(0.000138444 -9.24615e-08 0)
(0.000138496 6.38578e-08 0)
(0.000138478 2.13103e-07 0)
(0.000138392 3.56645e-07 0)
(0.000138236 4.95051e-07 0)
(0.000138009 6.28517e-07 0)
(0.000137711 7.58648e-07 0)
(0.000137342 8.87358e-07 0)
(0.000136904 1.01648e-06 0)
(0.000136397 1.14724e-06 0)
(0.00013582 1.28025e-06 0)
(0.000135173 1.4166e-06 0)
(0.000134456 1.55779e-06 0)
(0.00013367 1.70416e-06 0)
(0.000132815 1.85512e-06 0)
(0.000131891 2.01058e-06 0)
(0.000130896 2.17055e-06 0)
(0.000129832 2.33474e-06 0)
(0.000128702 2.5024e-06 0)
(0.000127502 2.67157e-06 0)
(0.000126232 2.84e-06 0)
(0.000124893 3.00693e-06 0)
(0.000123486 3.17261e-06 0)
(0.000122006 3.33637e-06 0)
(0.000120456 3.498e-06 0)
(0.000118835 3.65897e-06 0)
(0.000117141 3.82048e-06 0)
(0.000115377 3.98301e-06 0)
(0.000113546 4.14756e-06 0)
(0.000111647 4.31481e-06 0)
(0.00010968 4.48335e-06 0)
(0.000107649 4.65144e-06 0)
(0.000105555 4.81865e-06 0)
(0.000103397 4.98329e-06 0)
(0.000101179 5.14254e-06 0)
(9.89009e-05 5.29581e-06 0)
(9.65616e-05 5.44472e-06 0)
(9.41631e-05 5.58988e-06 0)
(9.17102e-05 5.73078e-06 0)
(8.92047e-05 5.86787e-06 0)
(8.66463e-05 6.00165e-06 0)
(8.40395e-05 6.13037e-06 0)
(8.13904e-05 6.25201e-06 0)
(7.87e-05 6.36635e-06 0)
(7.59687e-05 6.47243e-06 0)
(7.32009e-05 6.56755e-06 0)
(7.04005e-05 6.65022e-06 0)
(6.75686e-05 6.72133e-06 0)
(6.47088e-05 6.78204e-06 0)
(6.18284e-05 6.83217e-06 0)
(5.89333e-05 6.87102e-06 0)
(5.60258e-05 6.8989e-06 0)
(5.31101e-05 6.91626e-06 0)
(5.0196e-05 6.92205e-06 0)
(4.72906e-05 6.9152e-06 0)
(4.43972e-05 6.89533e-06 0)
(4.1522e-05 6.8606e-06 0)
(3.86752e-05 6.80865e-06 0)
(3.58655e-05 6.73799e-06 0)
(3.30996e-05 6.64704e-06 0)
(3.03849e-05 6.53408e-06 0)
(2.77307e-05 6.39706e-06 0)
(2.51463e-05 6.23428e-06 0)
(2.2639e-05 6.04577e-06 0)
(2.02183e-05 5.83162e-06 0)
(1.78955e-05 5.59119e-06 0)
(1.56805e-05 5.3238e-06 0)
(1.35812e-05 5.02875e-06 0)
(1.16057e-05 4.70594e-06 0)
(9.76444e-06 4.35545e-06 0)
(8.0675e-06 3.97844e-06 0)
(6.5216e-06 3.57779e-06 0)
(5.13321e-06 3.15591e-06 0)
(3.90853e-06 2.71606e-06 0)
(2.85092e-06 2.2641e-06 0)
(1.96217e-06 1.808e-06 0)
(1.24294e-06 1.35918e-06 0)
(6.90699e-07 9.30443e-07 0)
(2.98155e-07 5.37812e-07 0)
(6.10483e-08 1.99949e-07 0)
(-3.6151e-08 -4.8808e-08 0)
(-3.86517e-08 -1.23228e-07 0)
(-7.39233e-07 3.46585e-06 0)
(-1.70857e-06 3.38098e-06 0)
(-2.61702e-06 3.11944e-07 0)
(-2.85274e-06 -2.22193e-06 0)
(-2.56648e-06 -4.00023e-06 0)
(-1.94254e-06 -5.25595e-06 0)
(-1.02011e-06 -6.14404e-06 0)
(1.42078e-07 -6.75972e-06 0)
(1.52725e-06 -7.18137e-06 0)
(3.12352e-06 -7.44036e-06 0)
(4.91925e-06 -7.58976e-06 0)
(6.89803e-06 -7.64391e-06 0)
(9.07222e-06 -7.64007e-06 0)
(1.14148e-05 -7.59586e-06 0)
(1.39208e-05 -7.50994e-06 0)
(1.65979e-05 -7.42752e-06 0)
(1.94068e-05 -7.34425e-06 0)
(2.23446e-05 -7.27052e-06 0)
(2.54246e-05 -7.22594e-06 0)
(2.85854e-05 -7.20072e-06 0)
(3.18502e-05 -7.21162e-06 0)
(3.51965e-05 -7.25269e-06 0)
(3.8592e-05 -7.32325e-06 0)
(4.20486e-05 -7.42949e-06 0)
(4.55429e-05 -7.53475e-06 0)
(4.90729e-05 -7.68494e-06 0)
(5.26127e-05 -7.81935e-06 0)
(5.6177e-05 -7.98059e-06 0)
(5.97431e-05 -8.13722e-06 0)
(6.33148e-05 -8.30096e-06 0)
(6.68775e-05 -8.45758e-06 0)
(7.04151e-05 -8.61664e-06 0)
(7.39403e-05 -8.76475e-06 0)
(7.74328e-05 -8.90217e-06 0)
(8.08923e-05 -9.02641e-06 0)
(8.4309e-05 -9.13621e-06 0)
(8.76925e-05 -9.21738e-06 0)
(9.10232e-05 -9.28328e-06 0)
(9.42991e-05 -9.31889e-06 0)
(9.75319e-05 -9.32882e-06 0)
(0.000100705 -9.31918e-06 0)
(0.000103818 -9.28141e-06 0)
(0.000106871 -9.21476e-06 0)
(0.000109858 -9.1221e-06 0)
(0.000112777 -9.00336e-06 0)
(0.000115628 -8.8582e-06 0)
(0.000118413 -8.69061e-06 0)
(0.000121127 -8.50312e-06 0)
(0.000123768 -8.29534e-06 0)
(0.000126335 -8.06838e-06 0)
(0.000128828 -7.826e-06 0)
(0.000131242 -7.5708e-06 0)
(0.000133576 -7.30394e-06 0)
(0.000135833 -7.0278e-06 0)
(0.000138008 -6.74513e-06 0)
(0.000140101 -6.45553e-06 0)
(0.000142115 -6.15967e-06 0)
(0.000144047 -5.85986e-06 0)
(0.000145895 -5.55984e-06 0)
(0.000147661 -5.26139e-06 0)
(0.000149344 -4.96479e-06 0)
(0.000150942 -4.67236e-06 0)
(0.000152454 -4.38395e-06 0)
(0.00015388 -4.09792e-06 0)
(0.000155221 -3.81473e-06 0)
(0.000156477 -3.53426e-06 0)
(0.000157645 -3.25753e-06 0)
(0.000158728 -2.98451e-06 0)
(0.000159726 -2.71382e-06 0)
(0.000160637 -2.44644e-06 0)
(0.000161462 -2.18324e-06 0)
(0.0001622 -1.92362e-06 0)
(0.000162853 -1.66677e-06 0)
(0.000163419 -1.41226e-06 0)
(0.0001639 -1.16131e-06 0)
(0.000164296 -9.13981e-07 0)
(0.000164608 -6.68724e-07 0)
(0.000164836 -4.26263e-07 0)
(0.000164982 -1.88591e-07 0)
(0.000165043 4.37595e-08 0)
(0.000165021 2.70614e-07 0)
(0.000164915 4.9186e-07 0)
(0.000164726 7.07827e-07 0)
(0.000164451 9.1894e-07 0)
(0.00016409 1.12683e-06 0)
(0.000163643 1.33393e-06 0)
(0.000163112 1.54158e-06 0)
(0.000162497 1.75012e-06 0)
(0.000161796 1.96041e-06 0)
(0.000161012 2.1739e-06 0)
(0.000160144 2.39204e-06 0)
(0.000159191 2.61542e-06 0)
(0.000158154 2.84305e-06 0)
(0.000157035 3.07459e-06 0)
(0.000155832 3.31069e-06 0)
(0.000154547 3.55074e-06 0)
(0.000153181 3.79341e-06 0)
(0.000151733 4.03781e-06 0)
(0.000150201 4.28254e-06 0)
(0.000148588 4.5261e-06 0)
(0.000146893 4.76859e-06 0)
(0.000145114 5.00996e-06 0)
(0.000143252 5.24908e-06 0)
(0.000141306 5.48665e-06 0)
(0.000139275 5.72503e-06 0)
(0.000137163 5.96471e-06 0)
(0.000134971 6.20433e-06 0)
(0.000132699 6.44371e-06 0)
(0.000130349 6.6832e-06 0)
(0.000127923 6.92132e-06 0)
(0.000125424 7.15634e-06 0)
(0.00012285 7.38767e-06 0)
(0.000120204 7.61402e-06 0)
(0.000117487 7.83344e-06 0)
(0.000114703 8.0456e-06 0)
(0.000111849 8.2518e-06 0)
(0.000108932 8.45242e-06 0)
(0.000105953 8.64616e-06 0)
(0.000102915 8.83225e-06 0)
(9.98198e-05 9.0106e-06 0)
(9.66741e-05 9.18005e-06 0)
(9.34818e-05 9.33865e-06 0)
(9.02437e-05 9.48464e-06 0)
(8.69626e-05 9.61644e-06 0)
(8.36433e-05 9.73315e-06 0)
(8.02903e-05 9.83458e-06 0)
(7.69079e-05 9.92049e-06 0)
(7.35015e-05 9.99065e-06 0)
(7.0077e-05 1.00445e-05 0)
(6.66406e-05 1.00812e-05 0)
(6.31989e-05 1.01005e-05 0)
(5.97599e-05 1.01019e-05 0)
(5.63308e-05 1.00837e-05 0)
(5.29178e-05 1.00444e-05 0)
(4.95295e-05 9.98225e-06 0)
(4.61764e-05 9.89479e-06 0)
(4.28666e-05 9.78021e-06 0)
(3.96086e-05 9.6366e-06 0)
(3.6413e-05 9.46175e-06 0)
(3.32897e-05 9.25374e-06 0)
(3.02472e-05 9.01084e-06 0)
(2.72941e-05 8.73229e-06 0)
(2.44427e-05 8.41792e-06 0)
(2.17062e-05 8.06723e-06 0)
(1.90934e-05 7.67957e-06 0)
(1.66121e-05 7.25404e-06 0)
(1.42728e-05 6.79079e-06 0)
(1.20885e-05 6.29121e-06 0)
(1.00702e-05 5.75702e-06 0)
(8.22344e-06 5.19112e-06 0)
(6.55428e-06 4.59696e-06 0)
(5.07142e-06 3.97925e-06 0)
(3.77999e-06 3.34608e-06 0)
(2.68129e-06 2.70845e-06 0)
(1.77469e-06 2.07942e-06 0)
(1.05899e-06 1.47472e-06 0)
(5.29259e-07 9.12315e-07 0)
(1.83519e-07 4.13358e-07 0)
(9.61968e-09 1.76767e-08 0)
(-3.07107e-08 -1.41903e-07 0)
(-7.20014e-07 4.44611e-06 0)
(-1.63755e-06 4.56453e-06 0)
(-2.46358e-06 8.30033e-07 0)
(-2.62719e-06 -2.26789e-06 0)
(-2.25207e-06 -4.4822e-06 0)
(-1.53252e-06 -6.06699e-06 0)
(-4.93256e-07 -7.24334e-06 0)
(8.22299e-07 -8.10954e-06 0)
(2.38799e-06 -8.76271e-06 0)
(4.17609e-06 -9.24052e-06 0)
(6.19897e-06 -9.60063e-06 0)
(8.45448e-06 -9.86179e-06 0)
(1.09027e-05 -1.00469e-05 0)
(1.35739e-05 -1.01892e-05 0)
(1.64387e-05 -1.0289e-05 0)
(1.94727e-05 -1.03671e-05 0)
(2.26938e-05 -1.04382e-05 0)
(2.60795e-05 -1.05093e-05 0)
(2.95897e-05 -1.05812e-05 0)
(3.32363e-05 -1.06803e-05 0)
(3.69933e-05 -1.07733e-05 0)
(4.08524e-05 -1.09104e-05 0)
(4.47849e-05 -1.10383e-05 0)
(4.8779e-05 -1.11897e-05 0)
(5.28229e-05 -1.13548e-05 0)
(5.69055e-05 -1.15145e-05 0)
(6.10226e-05 -1.16867e-05 0)
(6.51437e-05 -1.18457e-05 0)
(6.92835e-05 -1.20115e-05 0)
(7.3419e-05 -1.21568e-05 0)
(7.75386e-05 -1.23149e-05 0)
(8.16434e-05 -1.24383e-05 0)
(8.57165e-05 -1.25648e-05 0)
(8.97539e-05 -1.26645e-05 0)
(9.37508e-05 -1.27464e-05 0)
(9.77e-05 -1.28086e-05 0)
(0.000101597 -1.28382e-05 0)
(0.000105437 -1.28531e-05 0)
(0.000109218 -1.28287e-05 0)
(0.000112929 -1.27797e-05 0)
(0.000116575 -1.27039e-05 0)
(0.000120153 -1.25975e-05 0)
(0.000123656 -1.24638e-05 0)
(0.000127081 -1.23012e-05 0)
(0.000130429 -1.21089e-05 0)
(0.000133696 -1.18886e-05 0)
(0.00013688 -1.16427e-05 0)
(0.000139983 -1.13749e-05 0)
(0.000143003 -1.10863e-05 0)
(0.000145938 -1.07791e-05 0)
(0.000148786 -1.04568e-05 0)
(0.000151545 -1.01199e-05 0)
(0.000154214 -9.76865e-06 0)
(0.000156791 -9.40645e-06 0)
(0.000159276 -9.03646e-06 0)
(0.000161668 -8.65819e-06 0)
(0.00016397 -8.27418e-06 0)
(0.000166178 -7.88826e-06 0)
(0.000168291 -7.50046e-06 0)
(0.000170311 -7.11253e-06 0)
(0.000172236 -6.72596e-06 0)
(0.000174062 -6.34207e-06 0)
(0.000175792 -5.96239e-06 0)
(0.000177425 -5.58469e-06 0)
(0.00017896 -5.20879e-06 0)
(0.000180396 -4.83682e-06 0)
(0.000181734 -4.46833e-06 0)
(0.000182974 -4.10234e-06 0)
(0.000184117 -3.73896e-06 0)
(0.00018516 -3.37951e-06 0)
(0.000186104 -3.02436e-06 0)
(0.00018695 -2.67202e-06 0)
(0.000187698 -2.32246e-06 0)
(0.000188349 -1.97657e-06 0)
(0.0001889 -1.63411e-06 0)