/*--------------------------------*- C++ -*----------------------------------*\
  =========                 |
  \\      /  F ield         | OpenFOAM: The Open Source CFD Toolbox
   \\    /   O peration     | Website:  https://openfoam.org
    \\  /    A nd           | Version:  7
     \\/     M anipulation  |
\*---------------------------------------------------------------------------*/
FoamFile
{
    version     2.0;
    format      ascii;
    class       volVectorField;
    location    "0.3";
    object      U;
}
// * * * * * * * * * * * * * * * * * * * * * * * * * * * * * * * * * * * * * //

dimensions      [0 1 -1 0 0 0 0];

internalField   nonuniform List<vector> 
12800
(
(3.19668e-06 -3.44902e-06 0)
(1.82088e-05 -9.86506e-06 0)
(4.43429e-05 -1.2082e-05 0)
(7.0707e-05 -1.11178e-05 0)
(9.07061e-05 -8.39812e-06 0)
(0.000100985 -4.79267e-06 0)
(9.9763e-05 -8.01214e-07 0)
(8.62087e-05 3.28317e-06 0)
(6.01259e-05 7.28737e-06 0)
(2.17359e-05 1.11129e-05 0)
(-2.84764e-05 1.47043e-05 0)
(-8.98614e-05 1.80312e-05 0)
(-0.000161669 2.10792e-05 0)
(-0.000243095 2.38464e-05 0)
(-0.000333316 2.6338e-05 0)
(-0.00043151 2.85632e-05 0)
(-0.000536875 3.05352e-05 0)
(-0.000648643 3.22698e-05 0)
(-0.000766083 3.37843e-05 0)
(-0.000888515 3.50966e-05 0)
(-0.00101531 3.62241e-05 0)
(-0.00114588 3.71843e-05 0)
(-0.0012797 3.79947e-05 0)
(-0.0014163 3.86732e-05 0)
(-0.00155526 3.92362e-05 0)
(-0.00169619 3.96983e-05 0)
(-0.00183878 4.00731e-05 0)
(-0.00198273 4.03739e-05 0)
(-0.00212782 4.06136e-05 0)
(-0.00227382 4.08039e-05 0)
(-0.00242059 4.09551e-05 0)
(-0.00256798 4.1076e-05 0)
(-0.00271588 4.11744e-05 0)
(-0.00286423 4.12576e-05 0)
(-0.00301297 4.13329e-05 0)
(-0.00316206 4.14065e-05 0)
(-0.0033115 4.14835e-05 0)
(-0.00346128 4.15682e-05 0)
(-0.00361144 4.16641e-05 0)
(-0.003762 4.17749e-05 0)
(-0.00391302 4.19035e-05 0)
(-0.00406453 4.20525e-05 0)
(-0.00421662 4.2224e-05 0)
(-0.00436934 4.24195e-05 0)
(-0.00452277 4.26405e-05 0)
(-0.00467701 4.2888e-05 0)
(-0.00483212 4.31631e-05 0)
(-0.00498821 4.34665e-05 0)
(-0.00514536 4.37989e-05 0)
(-0.00530366 4.41605e-05 0)
(-0.00546321 4.45514e-05 0)
(-0.00562411 4.49717e-05 0)
(-0.00578645 4.54211e-05 0)
(-0.00595032 4.58994e-05 0)
(-0.00611581 4.6406e-05 0)
(-0.00628302 4.69405e-05 0)
(-0.00645203 4.75022e-05 0)
(-0.00662292 4.809e-05 0)
(-0.00679578 4.87031e-05 0)
(-0.00697069 4.93402e-05 0)
(-0.00714771 4.99998e-05 0)
(-0.00732691 5.06804e-05 0)
(-0.00750835 5.13804e-05 0)
(-0.00769208 5.20977e-05 0)
(-0.00787816 5.283e-05 0)
(-0.0080666 5.35747e-05 0)
(-0.00825744 5.43291e-05 0)
(-0.0084507 5.50904e-05 0)
(-0.00864637 5.5855e-05 0)
(-0.00884445 5.66192e-05 0)
(-0.00904492 5.73791e-05 0)
(-0.00924773 5.81303e-05 0)
(-0.00945284 5.88684e-05 0)
(-0.00966016 5.95882e-05 0)
(-0.00986962 6.02841e-05 0)
(-0.0100811 6.095e-05 0)
(-0.0102944 6.15799e-05 0)
(-0.0105095 6.21672e-05 0)
(-0.0107262 6.27047e-05 0)
(-0.0109442 6.31846e-05 0)
(-0.0111632 6.35983e-05 0)
(-0.0113832 6.39372e-05 0)
(-0.0116037 6.41925e-05 0)
(-0.0118244 6.43547e-05 0)
(-0.012045 6.44138e-05 0)
(-0.0122651 6.43589e-05 0)
(-0.0124843 6.41789e-05 0)
(-0.012702 6.38624e-05 0)
(-0.0129178 6.3398e-05 0)
(-0.0131311 6.27737e-05 0)
(-0.0133415 6.19769e-05 0)
(-0.0135481 6.09948e-05 0)
(-0.0137504 5.98144e-05 0)
(-0.0139477 5.84228e-05 0)
(-0.0141392 5.68073e-05 0)
(-0.0143241 5.49553e-05 0)
(-0.0145016 5.28538e-05 0)
(-0.0146708 5.04904e-05 0)
(-0.0148309 4.78531e-05 0)
(-0.0149808 4.49307e-05 0)
(-0.0151197 4.1713e-05 0)
(-0.0152464 3.81906e-05 0)
(-0.0153601 3.43552e-05 0)
(-0.0154596 3.01997e-05 0)
(-0.0155439 2.57185e-05 0)
(-0.015612 2.09083e-05 0)
(-0.0156626 1.57677e-05 0)
(-0.0156949 1.02979e-05 0)
(-0.0157077 4.50233e-06 0)
(-0.0157 -1.61253e-06 0)
(-0.0156708 -8.03792e-06 0)
(-0.0156191 -1.47612e-05 0)
(-0.0155441 -2.17659e-05 0)
(-0.0154448 -2.90318e-05 0)
(-0.0153206 -3.65352e-05 0)
(-0.0151708 -4.42481e-05 0)
(-0.0149948 -5.21387e-05 0)
(-0.0147921 -6.0171e-05 0)
(-0.0145624 -6.83041e-05 0)
(-0.0143055 -7.64929e-05 0)
(-0.0140215 -8.46885e-05 0)
(-0.0137104 -9.28383e-05 0)
(-0.0133725 -0.000100886 0)
(-0.0130084 -0.000108772 0)
(-0.0126188 -0.000116433 0)
(-0.0122045 -0.000123805 0)
(-0.0117668 -0.00013082 0)
(-0.0113068 -0.000137411 0)
(-0.0108263 -0.000143508 0)
(-0.0103269 -0.000149044 0)
(-0.00981058 -0.000153952 0)
(-0.00927963 -0.000158168 0)
(-0.0087364 -0.000161628 0)
(-0.00818347 -0.000164275 0)
(-0.0076236 -0.000166056 0)
(-0.00705971 -0.000166923 0)
(-0.00649484 -0.000166834 0)
(-0.00593217 -0.000165755 0)
(-0.00537497 -0.000163658 0)
(-0.00482657 -0.000160525 0)
(-0.00429036 -0.000156344 0)
(-0.00376972 -0.000151113 0)
(-0.00326805 -0.000144838 0)
(-0.00278868 -0.000137531 0)
(-0.00233489 -0.000129214 0)
(-0.00190985 -0.000119914 0)
(-0.0015166 -0.000109668 0)
(-0.00115805 -9.85163e-05 0)
(-0.000836888 -8.65086e-05 0)
(-0.000555576 -7.37032e-05 0)
(-0.000316294 -6.01713e-05 0)
(-0.000120863 -4.60069e-05 0)
(2.93769e-05 -3.13465e-05 0)
(0.000133751 -1.6406e-05 0)
(0.000192583 -1.56008e-06 0)
(0.000207749 1.2499e-05 0)
(0.00018353 2.44992e-05 0)
(0.000128476 3.19841e-05 0)
(6.1188e-05 3.03773e-05 0)
(1.38581e-05 1.38792e-05 0)
(9.77761e-06 -1.87055e-05 0)
(4.19258e-05 -4.21142e-05 0)
(8.85984e-05 -4.81429e-05 0)
(0.000131014 -4.10635e-05 0)
(0.0001566 -2.56569e-05 0)
(0.000157962 -5.32343e-06 0)
(0.00013049 1.76431e-05 0)
(7.16092e-05 4.17039e-05 0)
(-1.9696e-05 6.58387e-05 0)
(-0.000143342 8.93774e-05 0)
(-0.000298482 0.000111882 0)
(-0.000483746 0.000133075 0)
(-0.000697417 0.000152791 0)
(-0.000937566 0.000170945 0)
(-0.00120215 0.000187509 0)
(-0.00148908 0.000202499 0)
(-0.00179629 0.000215958 0)
(-0.00212174 0.000227953 0)
(-0.00246351 0.000238566 0)
(-0.00281975 0.00024789 0)
(-0.00318875 0.000256022 0)
(-0.0035689 0.000263062 0)
(-0.00395876 0.000269111 0)
(-0.00435699 0.000274272 0)
(-0.00476239 0.000278643 0)
(-0.0051739 0.000282317 0)
(-0.00559059 0.000285382 0)
(-0.00601162 0.000287924 0)
(-0.00643629 0.000290022 0)
(-0.006864 0.000291749 0)
(-0.00729425 0.000293173 0)
(-0.00772661 0.000294356 0)
(-0.00816077 0.000295353 0)
(-0.00859646 0.000296216 0)
(-0.00903351 0.000296991 0)
(-0.0094718 0.000297718 0)
(-0.00991126 0.000298434 0)
(-0.0103519 0.000299172 0)
(-0.0107937 0.000299959 0)
(-0.0112367 0.00030082 0)
(-0.0116812 0.000301777 0)
(-0.0121271 0.000302849 0)
(-0.0125746 0.00030405 0)
(-0.013024 0.000305394 0)
(-0.0134754 0.000306893 0)
(-0.0139291 0.000308556 0)
(-0.0143852 0.000310389 0)
(-0.014844 0.000312399 0)
(-0.0153058 0.000314589 0)
(-0.0157708 0.000316963 0)
(-0.0162392 0.000319523 0)
(-0.0167113 0.000322267 0)
(-0.0171874 0.000325195 0)
(-0.0176677 0.000328305 0)
(-0.0181524 0.000331594 0)
(-0.0186419 0.000335057 0)
(-0.0191363 0.000338688 0)
(-0.0196358 0.000342482 0)
(-0.0201407 0.000346429 0)
(-0.0206512 0.00035052 0)
(-0.0211674 0.000354745 0)
(-0.0216895 0.000359091 0)
(-0.0222178 0.000363545 0)
(-0.0227521 0.000368093 0)
(-0.0232928 0.000372717 0)
(-0.0238399 0.000377398 0)
(-0.0243934 0.000382116 0)
(-0.0249533 0.000386848 0)
(-0.0255196 0.00039157 0)
(-0.0260922 0.000396256 0)
(-0.0266711 0.000400876 0)
(-0.0272561 0.0004054 0)
(-0.027847 0.000409793 0)
(-0.0284436 0.00041402 0)
(-0.0290456 0.000418042 0)
(-0.0296526 0.000421817 0)
(-0.0302641 0.0004253 0)
(-0.0308798 0.000428446 0)
(-0.031499 0.000431204 0)
(-0.0321212 0.000433521 0)
(-0.0327456 0.000435341 0)
(-0.0333714 0.000436605 0)
(-0.0339977 0.000437252 0)
(-0.0346237 0.000437217 0)
(-0.0352482 0.000436434 0)
(-0.03587 0.000434832 0)
(-0.036488 0.000432339 0)
(-0.0371007 0.00042888 0)
(-0.0377068 0.000424379 0)
(-0.0383045 0.000418758 0)
(-0.0388923 0.000411938 0)
(-0.0394684 0.000403837 0)
(-0.0400308 0.000394375 0)
(-0.0405775 0.000383471 0)
(-0.0411065 0.000371045 0)
(-0.0416154 0.000357019 0)
(-0.042102 0.000341317 0)
(-0.0425638 0.000323864 0)
(-0.0429984 0.000304591 0)
(-0.0434029 0.000283433 0)
(-0.0437749 0.000260332 0)
(-0.0441115 0.000235237 0)
(-0.0444099 0.000208105 0)
(-0.0446673 0.000178903 0)
(-0.0448806 0.000147607 0)
(-0.0450471 0.00011421 0)
(-0.0451639 7.87136e-05 0)
(-0.045228 4.11394e-05 0)
(-0.0452366 1.52355e-06 0)
(-0.0451871 -4.00789e-05 0)
(-0.0450766 -8.35938e-05 0)
(-0.0449028 -0.000128926 0)
(-0.0446632 -0.000175957 0)
(-0.0443557 -0.000224546 0)
(-0.0439783 -0.000274527 0)
(-0.0435294 -0.00032571 0)
(-0.0430075 -0.000377878 0)
(-0.0424115 -0.000430792 0)
(-0.0417408 -0.000484183 0)
(-0.0409949 -0.000537758 0)
(-0.040174 -0.000591203 0)
(-0.0392787 -0.000644176 0)
(-0.0383099 -0.000696318 0)
(-0.0372693 -0.00074725 0)
(-0.0361588 -0.000796576 0)
(-0.0349811 -0.000843887 0)
(-0.0337395 -0.000888764 0)
(-0.0324376 -0.000930783 0)
(-0.0310799 -0.000969519 0)
(-0.0296712 -0.00100455 0)
(-0.0282172 -0.00103546 0)
(-0.0267237 -0.00106186 0)
(-0.0251974 -0.00108336 0)
(-0.0236453 -0.00109961 0)
(-0.022075 -0.00111028 0)
(-0.0204945 -0.00111509 0)
(-0.018912 -0.00111377 0)
(-0.0173361 -0.00110613 0)
(-0.0157758 -0.00109201 0)
(-0.01424 -0.00107129 0)
(-0.0127379 -0.00104393 0)
(-0.0112786 -0.00100991 0)
(-0.00987137 -0.000969298 0)
(-0.00852507 -0.000922203 0)
(-0.00724848 -0.000868795 0)
(-0.00605008 -0.000809302 0)
(-0.00493792 -0.000744015 0)
(-0.00391956 -0.000673292 0)
(-0.00300193 -0.00059757 0)
(-0.0021912 -0.000517389 0)
(-0.00149259 -0.000433421 0)
(-0.000910112 -0.000346544 0)
(-0.000446206 -0.000257947 0)
(-0.000101223 -0.000169322 0)
(0.000127374 -8.32e-05 0)
(0.000246215 -3.50516e-06 0)
(0.000267495 6.35485e-05 0)
(0.000211448 0.000107986 0)
(0.000113809 0.00011406 0)
(3.01933e-05 6.10675e-05 0)
(1.21289e-05 -4.47086e-05 0)
(4.8332e-05 -8.88544e-05 0)
(9.51722e-05 -9.48962e-05 0)
(0.000129759 -7.27028e-05 0)
(0.000136858 -3.12204e-05 0)
(0.000106983 2.25791e-05 0)
(3.38092e-05 8.35364e-05 0)
(-8.64477e-05 0.000147938 0)
(-0.000255515 0.00021315 0)
(-0.000473568 0.000277328 0)
(-0.000739646 0.000339203 0)
(-0.00105197 0.000397922 0)
(-0.00140819 0.00045294 0)
(-0.00180558 0.000503938 0)
(-0.0022412 0.000550768 0)
(-0.00271199 0.000593407 0)
(-0.00321486 0.000631923 0)
(-0.00374679 0.000666458 0)
(-0.00430482 0.0006972 0)
(-0.00488616 0.000724376 0)
(-0.00548816 0.000748231 0)
(-0.00610835 0.000769025 0)
(-0.00674444 0.000787027 0)
(-0.00739436 0.000802504 0)
(-0.00805622 0.000815721 0)
(-0.00872832 0.000826933 0)
(-0.00940915 0.000836384 0)
(-0.0100974 0.000844308 0)
(-0.0107919 0.000850925 0)
(-0.0114917 0.00085644 0)
(-0.0121959 0.000861043 0)
(-0.0129039 0.000864909 0)
(-0.013615 0.000868198 0)
(-0.014329 0.000871056 0)
(-0.0150453 0.000873616 0)
(-0.0157639 0.000875994 0)
(-0.0164845 0.000878297 0)
(-0.0172071 0.000880619 0)
(-0.0179318 0.000883044 0)
(-0.0186585 0.000885644 0)
(-0.0193875 0.000888483 0)
(-0.0201189 0.000891615 0)
(-0.0208529 0.000895089 0)
(-0.0215899 0.000898945 0)
(-0.02233 0.000903215 0)
(-0.0230737 0.000907928 0)
(-0.0238212 0.000913107 0)
(-0.024573 0.000918768 0)
(-0.0253293 0.000924925 0)
(-0.0260906 0.000931586 0)
(-0.0268573 0.000938755 0)
(-0.0276297 0.000946434 0)
(-0.0284082 0.00095462 0)
(-0.0291932 0.000963305 0)
(-0.0299852 0.000972481 0)
(-0.0307843 0.000982133 0)
(-0.0315911 0.000992244 0)
(-0.0324058 0.00100279 0)
(-0.0332287 0.00101376 0)
(-0.0340602 0.00102511 0)
(-0.0349005 0.00103681 0)
(-0.0357499 0.00104884 0)
(-0.0366085 0.00106113 0)
(-0.0374765 0.00107366 0)
(-0.0383542 0.00108637 0)
(-0.0392415 0.00109921 0)
(-0.0401384 0.0011121 0)
(-0.0410451 0.001125 0)
(-0.0419613 0.00113782 0)
(-0.0428871 0.00115048 0)
(-0.0438221 0.00116291 0)
(-0.0447661 0.001175 0)
(-0.0457187 0.00118666 0)
(-0.0466796 0.00119779 0)
(-0.0476481 0.00120827 0)
(-0.0486237 0.00121798 0)
(-0.0496056 0.00122679 0)
(-0.050593 0.00123456 0)
(-0.051585 0.00124116 0)
(-0.0525806 0.00124643 0)
(-0.0535784 0.00125021 0)
(-0.0545773 0.00125232 0)
(-0.0555758 0.0012526 0)
(-0.0565722 0.00125087 0)
(-0.0575649 0.00124692 0)
(-0.0585519 0.00124058 0)
(-0.0595312 0.00123162 0)
(-0.0605007 0.00121984 0)
(-0.0614578 0.00120503 0)
(-0.0624001 0.00118698 0)
(-0.063325 0.00116545 0)
(-0.0642294 0.00114023 0)
(-0.0651104 0.0011111 0)
(-0.0659647 0.00107784 0)
(-0.066789 0.00104022 0)
(-0.0675798 0.000998038 0)
(-0.0683333 0.000951087 0)
(-0.0690457 0.00089917 0)
(-0.069713 0.000842105 0)
(-0.0703312 0.000779723 0)
(-0.070896 0.000711876 0)
(-0.0714031 0.000638433 0)
(-0.0718482 0.000559291 0)
(-0.0722267 0.000474375 0)
(-0.0725343 0.00038364 0)
(-0.0727664 0.000287078 0)
(-0.0729186 0.000184721 0)
(-0.0729865 7.66434e-05 0)
(-0.0729658 -3.70329e-05 0)
(-0.0728523 -0.000156134 0)
(-0.0726421 -0.000280433 0)
(-0.0723313 -0.000409644 0)
(-0.0719165 -0.000543418 0)
(-0.0713943 -0.000681347 0)
(-0.0707621 -0.000822951 0)
(-0.0700173 -0.000967687 0)
(-0.0691578 -0.00111494 0)
(-0.0681824 -0.00126403 0)
(-0.0670899 -0.0014142 0)
(-0.0658801 -0.00156463 0)
(-0.0645534 -0.00171445 0)
(-0.0631108 -0.00186271 0)
(-0.061554 -0.00200841 0)
(-0.0598857 -0.0021505 0)
(-0.0581093 -0.00228789 0)
(-0.0562289 -0.00241947 0)
(-0.0542497 -0.00254408 0)
(-0.0521777 -0.00266056 0)
(-0.0500196 -0.00276775 0)
(-0.0477833 -0.0028645 0)
(-0.0454772 -0.00294969 0)
(-0.0431108 -0.00302224 0)
(-0.0406943 -0.00308111 0)
(-0.0382386 -0.00312534 0)
(-0.0357553 -0.00315404 0)
(-0.0332569 -0.00316645 0)
(-0.0307559 -0.00316187 0)
(-0.0282658 -0.00313976 0)
(-0.0258 -0.0030997 0)
(-0.0233726 -0.00304139 0)
(-0.0209975 -0.00296472 0)
(-0.0186888 -0.00286969 0)
(-0.0164604 -0.00275649 0)
(-0.014326 -0.00262548 0)
(-0.0122991 -0.00247716 0)
(-0.0103923 -0.00231225 0)
(-0.00861795 -0.00213164 0)
(-0.00698725 -0.00193645 0)
(-0.00551049 -0.00172804 0)
(-0.00419661 -0.00150813 0)
(-0.00305296 -0.00127883 0)
(-0.00208489 -0.00104288 0)
(-0.0012952 -0.000803885 0)
(-0.000683448 -0.000566737 0)
(-0.000244925 -0.000338321 0)
(3.07019e-05 -0.000128503 0)
(0.000160879 4.83646e-05 0)
(0.000172309 0.000171542 0)
(0.000107846 0.000211595 0)
(3.16761e-05 0.000127948 0)
(1.13293e-05 -7.13198e-05 0)
(4.16829e-05 -0.000131573 0)
(7.34999e-05 -0.000129598 0)
(8.27865e-05 -8.21304e-05 0)
(5.33683e-05 -2.70933e-06 0)
(-2.51819e-05 9.78531e-05 0)
(-0.000160003 0.000211229 0)
(-0.000355511 0.000331172 0)
(-0.000613836 0.000453073 0)
(-0.000935313 0.000573584 0)
(-0.00131891 0.000690315 0)
(-0.00176257 0.000801609 0)
(-0.00226349 0.000906356 0)
(-0.00281837 0.00100387 0)
(-0.00342358 0.0010938 0)
(-0.0040753 0.00117601 0)
(-0.00476965 0.00125058 0)
(-0.00550278 0.00131772 0)
(-0.00627092 0.00137773 0)
(-0.00707046 0.001431 0)
(-0.00789796 0.00147796 0)
(-0.0087502 0.00151909 0)
(-0.00962419 0.00155486 0)
(-0.0105172 0.00158577 0)
(-0.0114267 0.00161232 0)
(-0.0123504 0.00163496 0)
(-0.0132864 0.00165417 0)
(-0.0142328 0.00167038 0)
(-0.015188 0.00168401 0)
(-0.0161508 0.00169546 0)
(-0.01712 0.00170508 0)
(-0.0180946 0.0017132 0)
(-0.0190738 0.00172015 0)
(-0.020057 0.0017262 0)
(-0.0210438 0.0017316 0)
(-0.0220337 0.00173659 0)
(-0.0230266 0.00174138 0)
(-0.0240224 0.00174614 0)
(-0.0250209 0.00175105 0)
(-0.0260224 0.00175625 0)
(-0.0270269 0.00176186 0)
(-0.0280347 0.001768 0)
(-0.0290459 0.00177475 0)
(-0.0300611 0.0017822 0)
(-0.0310804 0.00179042 0)
(-0.0321044 0.00179946 0)
(-0.0331334 0.00180937 0)
(-0.0341679 0.00182018 0)
(-0.0352084 0.00183192 0)
(-0.0362553 0.00184461 0)
(-0.0373092 0.00185825 0)
(-0.0383705 0.00187285 0)
(-0.0394398 0.0018884 0)
(-0.0405175 0.0019049 0)
(-0.0416041 0.00192231 0)
(-0.0427 0.00194061 0)
(-0.0438058 0.00195977 0)
(-0.0449218 0.00197974 0)
(-0.0460485 0.00200048 0)
(-0.0471861 0.00202193 0)
(-0.0483351 0.00204402 0)
(-0.0494957 0.00206668 0)
(-0.0506682 0.00208983 0)
(-0.0518527 0.00211337 0)
(-0.0530495 0.00213721 0)
(-0.0542584 0.00216123 0)
(-0.0554797 0.0021853 0)
(-0.0567132 0.00220931 0)
(-0.0579587 0.0022331 0)
(-0.0592161 0.00225652 0)
(-0.060485 0.00227939 0)
(-0.0617649 0.00230154 0)
(-0.0630554 0.00232277 0)
(-0.0643558 0.00234288 0)
(-0.0656653 0.00236163 0)
(-0.0669831 0.0023788 0)
(-0.0683081 0.00239413 0)
(-0.0696391 0.00240736 0)
(-0.0709748 0.0024182 0)
(-0.0723138 0.00242635 0)
(-0.0736543 0.00243152 0)
(-0.0749946 0.00243337 0)
(-0.0763325 0.00243156 0)
(-0.0776661 0.00242574 0)
(-0.0789927 0.00241554 0)
(-0.0803099 0.00240059 0)
(-0.0816149 0.00238049 0)
(-0.0829046 0.00235485 0)
(-0.0841758 0.00232326 0)
(-0.0854251 0.00228531 0)
(-0.0866489 0.00224059 0)
(-0.0878432 0.00218866 0)
(-0.089004 0.00212912 0)
(-0.0901269 0.00206156 0)
(-0.0912075 0.00198556 0)
(-0.0922411 0.00190074 0)
(-0.0932227 0.00180671 0)
(-0.0941472 0.00170313 0)
(-0.0950095 0.00158965 0)
(-0.095804 0.00146598 0)
(-0.0965253 0.00133185 0)
(-0.0971677 0.00118703 0)
(-0.0977255 0.00103136 0)
(-0.0981929 0.000864704 0)
(-0.098564 0.000687017 0)
(-0.0988331 0.000498306 0)
(-0.0989945 0.000298659 0)
(-0.0990424 8.82455e-05 0)
(-0.0989714 -0.000132673 0)
(-0.0987762 -0.00036374 0)
(-0.0984516 -0.000604493 0)
(-0.0979929 -0.000854362 0)
(-0.0973957 -0.00111266 0)
(-0.0966559 -0.00137859 0)
(-0.0957701 -0.00165121 0)
(-0.0947351 -0.00192948 0)
(-0.0935488 -0.0022122 0)
(-0.0922092 -0.00249808 0)
(-0.0907156 -0.00278567 0)
(-0.0890676 -0.00307342 0)
(-0.087266 -0.00335964 0)
(-0.0853123 -0.00364256 0)
(-0.0832092 -0.00392028 0)
(-0.0809601 -0.00419083 0)
(-0.0785697 -0.00445215 0)
(-0.0760437 -0.00470213 0)
(-0.0733888 -0.00493863 0)
(-0.070613 -0.00515945 0)
(-0.0677254 -0.00536244 0)
(-0.064736 -0.00554544 0)
(-0.0616562 -0.00570635 0)
(-0.0584982 -0.00584315 0)
(-0.0552754 -0.00595391 0)
(-0.052002 -0.00603684 0)
(-0.0486932 -0.0060903 0)
(-0.0453648 -0.00611284 0)
(-0.0420337 -0.00610321 0)
(-0.0387168 -0.00606037 0)
(-0.035432 -0.00598356 0)
(-0.0321972 -0.00587226 0)
(-0.0290304 -0.00572625 0)
(-0.02595 -0.00554561 0)
(-0.0229738 -0.00533072 0)
(-0.0201197 -0.00508229 0)
(-0.0174046 -0.00480139 0)
(-0.0148451 -0.00448942 0)
(-0.0124567 -0.00414821 0)
(-0.0102537 -0.00378003 0)
(-0.00824899 -0.00338765 0)
(-0.00645367 -0.00297453 0)
(-0.00487665 -0.00254493 0)
(-0.00352422 -0.00210426 0)
(-0.00239934 -0.0016595 0)
(-0.00150094 -0.00121984 0)
(-0.000822868 -0.000797617 0)
(-0.000352624 -0.000409745 0)
(-7.00321e-05 -7.95366e-05 0)
(5.45341e-05 0.000161096 0)
(6.51913e-05 0.000268942 0)
(2.43553e-05 0.000182871 0)
(8.74442e-06 -9.18076e-05 0)
(2.64773e-05 -0.000157567 0)
(3.18321e-05 -0.00013664 0)
(2.36608e-06 -5.2566e-05 0)
(-7.76791e-05 7.64675e-05 0)
(-0.000218879 0.000235841 0)
(-0.000428524 0.000414046 0)
(-0.000711156 0.000602228 0)
(-0.00106898 0.000793676 0)
(-0.00150231 0.000983384 0)
(-0.00200999 0.00116768 0)
(-0.00258969 0.00134395 0)
(-0.00323826 0.0015104 0)
(-0.00395193 0.00166588 0)
(-0.00472651 0.00180971 0)
(-0.00555759 0.00194165 0)
(-0.00644064 0.00206171 0)
(-0.00737114 0.00217015 0)
(-0.00834464 0.00226741 0)
(-0.00935685 0.00235404 0)
(-0.0104037 0.00243068 0)
(-0.0114812 0.00249804 0)
(-0.0125859 0.00255685 0)
(-0.0137145 0.00260788 0)
(-0.0148638 0.00265188 0)
(-0.016031 0.00268959 0)
(-0.0172139 0.00272172 0)
(-0.01841 0.00274898 0)
(-0.0196175 0.00277202 0)
(-0.0208347 0.00279146 0)
(-0.0220602 0.00280787 0)
(-0.0232927 0.0028218 0)
(-0.0245313 0.00283374 0)
(-0.025775 0.00284414 0)
(-0.0270234 0.00285342 0)
(-0.0282759 0.00286194 0)
(-0.0295322 0.00287006 0)
(-0.0307921 0.00287806 0)
(-0.0320555 0.00288621 0)
(-0.0333226 0.00289476 0)
(-0.0345934 0.00290391 0)
(-0.0358681 0.00291383 0)
(-0.0371471 0.0029247 0)
(-0.0384308 0.00293663 0)
(-0.0397195 0.00294974 0)
(-0.0410137 0.00296413 0)
(-0.0423139 0.00297987 0)
(-0.0436207 0.00299702 0)
(-0.0449345 0.00301563 0)
(-0.046256 0.00303571 0)
(-0.0475857 0.0030573 0)
(-0.0489242 0.00308039 0)
(-0.0502721 0.00310496 0)
(-0.05163 0.00313101 0)
(-0.0529984 0.0031585 0)
(-0.0543779 0.00318737 0)
(-0.055769 0.00321758 0)
(-0.0571722 0.00324905 0)
(-0.0585879 0.00328169 0)
(-0.0600165 0.00331542 0)
(-0.0614585 0.00335013 0)
(-0.0629141 0.00338568 0)
(-0.0643836 0.00342195 0)
(-0.0658672 0.00345878 0)
(-0.0673649 0.00349599 0)
(-0.0688769 0.00353342 0)
(-0.0704031 0.00357085 0)
(-0.0719434 0.00360806 0)
(-0.0734975 0.00364482 0)
(-0.075065 0.00368087 0)
(-0.0766456 0.00371593 0)
(-0.0782385 0.0037497 0)
(-0.0798432 0.00378186 0)
(-0.0814587 0.00381207 0)
(-0.083084 0.00383998 0)
(-0.0847179 0.00386518 0)
(-0.0863591 0.00388727 0)
(-0.0880061 0.00390583 0)
(-0.0896571 0.00392038 0)
(-0.0913103 0.00393046 0)
(-0.0929635 0.00393557 0)
(-0.0946144 0.00393517 0)
(-0.0962604 0.00392872 0)
(-0.0978988 0.00391566 0)
(-0.0995266 0.00389541 0)
(-0.10114 0.00386735 0)
(-0.102737 0.00383086 0)
(-0.104312 0.00378532 0)
(-0.105862 0.00373008 0)
(-0.107383 0.00366449 0)
(-0.10887 0.00358789 0)
(-0.110318 0.00349963 0)
(-0.111722 0.00339905 0)
(-0.113078 0.0032855 0)
(-0.114378 0.00315837 0)
(-0.115619 0.00301703 0)
(-0.116793 0.00286092 0)
(-0.117894 0.00268948 0)
(-0.118917 0.00250221 0)
(-0.119854 0.00229866 0)
(-0.1207 0.00207844 0)
(-0.121446 0.00184122 0)
(-0.122086 0.00158676 0)
(-0.122614 0.00131491 0)
(-0.123022 0.00102561 0)
(-0.123304 0.000718912 0)
(-0.123452 0.000395 0)
(-0.123461 5.41816e-05 0)
(-0.123323 -0.00030309 0)
(-0.123032 -0.000676209 0)
(-0.122582 -0.00106441 0)
(-0.121968 -0.00146674 0)
(-0.121185 -0.0018821 0)
(-0.120227 -0.00230916 0)
(-0.119092 -0.00274644 0)
(-0.117775 -0.00319222 0)
(-0.116275 -0.00364463 0)
(-0.114588 -0.00410157 0)
(-0.112715 -0.00456076 0)
(-0.110656 -0.00501972 0)
(-0.10841 -0.00547579 0)
(-0.105981 -0.00592616 0)
(-0.103372 -0.00636785 0)
(-0.100588 -0.00679774 0)
(-0.0976328 -0.00721262 0)
(-0.0945151 -0.00760916 0)
(-0.0912426 -0.00798398 0)
(-0.0878251 -0.0083337 0)
(-0.0842735 -0.00865489 0)
(-0.0806 -0.00894421 0)
(-0.0768181 -0.00919838 0)
(-0.0729427 -0.00941422 0)
(-0.0689897 -0.00958875 0)
(-0.0649762 -0.00971917 0)
(-0.0609203 -0.00980292 0)
(-0.0568411 -0.00983773 0)
(-0.0527584 -0.00982167 0)
(-0.0486927 -0.00975314 0)
(-0.0446652 -0.00963095 0)
(-0.0406972 -0.00945433 0)
(-0.0368104 -0.00922297 0)
(-0.0330264 -0.00893702 0)
(-0.0293665 -0.00859714 0)
(-0.0258518 -0.00820454 0)
(-0.0225026 -0.00776097 0)
(-0.0193384 -0.00726878 0)
(-0.0163773 -0.00673099 0)
(-0.0136364 -0.00615135 0)
(-0.0111305 -0.00553447 0)
(-0.00887252 -0.00488601 0)
(-0.00687268 -0.00421292 0)
(-0.00513804 -0.0035239 0)
(-0.00367189 -0.00282988 0)
(-0.00247296 -0.00214494 0)
(-0.00153453 -0.00148736 0)
(-0.000843411 -0.000881265 0)
(-0.000378717 -0.00035871 0)
(-0.000110464 3.79872e-05 0)
(2.45347e-06 0.000253157 0)
(1.29944e-05 0.000208368 0)
(5.19538e-06 -0.000102655 0)
(5.84825e-06 -0.000158921 0)
(-2.35641e-05 -0.000105652 0)
(-0.00010198 2.76858e-05 0)
(-0.000243649 0.000218546 0)
(-0.000458667 0.000448683 0)
(-0.000753951 0.000703527 0)
(-0.00113374 0.000971666 0)
(-0.0016 0.00124428 0)
(-0.00215283 0.00151465 0)
(-0.00279081 0.00177776 0)
(-0.00351133 0.00202996 0)
(-0.00431086 0.00226867 0)
(-0.00518522 0.0024922 0)
(-0.00612978 0.00269954 0)
(-0.00713959 0.00289022 0)
(-0.00820961 0.0030642 0)
(-0.00933473 0.00322178 0)
(-0.01051 0.0033635 0)
(-0.0117304 0.00349008 0)
(-0.0129914 0.0036024 0)
(-0.0142886 0.00370142 0)
(-0.0156178 0.00378815 0)
(-0.0169752 0.00386364 0)
(-0.0183572 0.00392895 0)
(-0.0197607 0.00398512 0)
(-0.0211828 0.00403317 0)
(-0.0226209 0.00407408 0)
(-0.0240726 0.0041088 0)
(-0.0255361 0.00413819 0)
(-0.0270096 0.0041631 0)
(-0.0284916 0.0041843 0)
(-0.029981 0.0042025 0)
(-0.0314766 0.00421835 0)
(-0.0329778 0.00423247 0)
(-0.034484 0.00424538 0)
(-0.0359948 0.00425759 0)
(-0.0375098 0.00426953 0)
(-0.0390289 0.0042816 0)
(-0.0405523 0.00429414 0)
(-0.0420799 0.00430745 0)
(-0.0436121 0.00432182 0)
(-0.0451491 0.00433747 0)
(-0.0466913 0.00435459 0)
(-0.0482392 0.00437335 0)
(-0.0497932 0.0043939 0)
(-0.051354 0.00441635 0)
(-0.0529221 0.00444078 0)
(-0.0544981 0.00446726 0)
(-0.0560827 0.00449583 0)
(-0.0576765 0.00452652 0)
(-0.0592801 0.00455933 0)
(-0.0608942 0.00459425 0)
(-0.0625195 0.00463124 0)
(-0.0641565 0.00467026 0)
(-0.0658059 0.00471123 0)
(-0.0674682 0.00475406 0)
(-0.0691439 0.00479865 0)
(-0.0708337 0.00484487 0)
(-0.0725378 0.00489259 0)
(-0.0742567 0.00494163 0)
(-0.0759908 0.00499181 0)
(-0.0777401 0.00504292 0)
(-0.0795051 0.00509475 0)
(-0.0812856 0.00514702 0)
(-0.0830817 0.00519948 0)
(-0.0848934 0.00525181 0)
(-0.0867203 0.00530369 0)
(-0.0885621 0.00535477 0)
(-0.0904184 0.00540467 0)
(-0.0922885 0.00545296 0)
(-0.0941716 0.00549922 0)
(-0.0960669 0.00554298 0)
(-0.0979732 0.00558372 0)
(-0.0998893 0.00562092 0)
(-0.101814 0.005654 0)
(-0.103745 0.00568238 0)
(-0.105681 0.00570541 0)
(-0.107619 0.00572244 0)
(-0.109558 0.00573276 0)
(-0.111495 0.00573566 0)
(-0.113427 0.00573035 0)
(-0.11535 0.00571607 0)
(-0.117263 0.00569199 0)
(-0.11916 0.00565726 0)
(-0.121038 0.00561103 0)
(-0.122894 0.00555239 0)
(-0.124722 0.00548045 0)
(-0.126518 0.00539429 0)
(-0.128276 0.00529298 0)
(-0.129993 0.00517558 0)
(-0.131661 0.00504116 0)
(-0.133275 0.00488882 0)
(-0.134829 0.00471764 0)
(-0.136316 0.00452674 0)
(-0.13773 0.00431527 0)
(-0.139064 0.00408244 0)
(-0.140311 0.00382749 0)
(-0.141463 0.00354973 0)
(-0.142513 0.00324856 0)
(-0.143453 0.00292344 0)
(-0.144276 0.00257397 0)
(-0.144973 0.00219983 0)
(-0.145537 0.00180085 0)
(-0.145959 0.00137701 0)
(-0.146233 0.000928423 0)
(-0.14635 0.000455403 0)
(-0.146303 -4.15589e-05 0)
(-0.146085 -0.000561764 0)
(-0.145688 -0.0011043 0)
(-0.145106 -0.00166801 0)
(-0.144333 -0.00225152 0)
(-0.143363 -0.00285318 0)
(-0.142192 -0.00347108 0)
(-0.140814 -0.00410305 0)
(-0.139226 -0.00474663 0)
(-0.137426 -0.0053991 0)
(-0.135412 -0.00605746 0)
(-0.133183 -0.00671843 0)
(-0.130739 -0.00737848 0)
(-0.128081 -0.00803381 0)
(-0.125212 -0.00868043 0)
(-0.122137 -0.00931408 0)
(-0.11886 -0.00993036 0)
(-0.115389 -0.0105247 0)
(-0.11173 -0.0110924 0)
(-0.107895 -0.0116287 0)
(-0.103894 -0.0121287 0)
(-0.099739 -0.0125877 0)
(-0.0954448 -0.013001 0)
(-0.0910267 -0.0133638 0)
(-0.0865014 -0.0136717 0)
(-0.0818874 -0.0139206 0)
(-0.0772038 -0.0141064 0)
(-0.0724715 -0.0142256 0)
(-0.0677121 -0.014275 0)
(-0.062948 -0.0142518 0)
(-0.0582027 -0.0141538 0)
(-0.0535001 -0.0139793 0)
(-0.0488644 -0.0137273 0)
(-0.0443203 -0.0133974 0)
(-0.0398921 -0.0129898 0)
(-0.0356043 -0.0125055 0)
(-0.0314806 -0.0119464 0)
(-0.027544 -0.0113151 0)
(-0.0238165 -0.0106149 0)
(-0.0203187 -0.00985039 0)
(-0.0170695 -0.00902707 0)
(-0.0140858 -0.00815169 0)
(-0.011382 -0.0072325 0)
(-0.00896941 -0.00627953 0)
(-0.00685611 -0.00530514 0)
(-0.00504594 -0.00432463 0)
(-0.00353802 -0.00335717 0)
(-0.00232597 -0.00242707 0)
(-0.00139713 -0.00156545 0)
(-0.000731549 -0.000812407 0)
(-0.000300855 -0.000219401 0)
(-6.99145e-05 0.000147545 0)
(1.49103e-07 0.000197393 0)
(1.14193e-06 -0.000101748 0)
(-1.81534e-05 -0.000130148 0)
(-8.81832e-05 -2.89245e-05 0)
(-0.000223102 0.000167656 0)
(-0.000434844 0.000433199 0)
(-0.000732517 0.000746161 0)
(-0.00112222 0.00108913 0)
(-0.00160753 0.00144828 0)
(-0.00218989 0.00181277 0)
(-0.00286897 0.00217418 0)
(-0.00364295 0.00252615 0)
(-0.00450884 0.00286396 0)
(-0.00546272 0.00318425 0)
(-0.0065 0.00348472 0)
(-0.00761561 0.003764 0)
(-0.00880416 0.00402138 0)
(-0.0100601 0.00425673 0)
(-0.0113779 0.00447037 0)
(-0.012752 0.00466295 0)
(-0.0141771 0.00483536 0)
(-0.0156481 0.00498872 0)
(-0.01716 0.00512425 0)
(-0.0187082 0.00524327 0)
(-0.0202885 0.00534714 0)
(-0.0218969 0.00543725 0)
(-0.0235299 0.00551498 0)
(-0.0251841 0.00558166 0)
(-0.0268568 0.00563861 0)
(-0.0285452 0.00568706 0)
(-0.0302471 0.00572821 0)
(-0.0319605 0.00576316 0)
(-0.0336838 0.00579295 0)
(-0.0354156 0.00581854 0)
(-0.0371546 0.00584082 0)
(-0.0389 0.00586061 0)
(-0.0406511 0.00587864 0)
(-0.0424072 0.00589558 0)
(-0.0441682 0.00591202 0)
(-0.0459338 0.00592852 0)
(-0.047704 0.00594554 0)
(-0.0494788 0.00596351 0)
(-0.0512585 0.00598278 0)
(-0.0530435 0.00600369 0)
(-0.054834 0.00602651 0)
(-0.0566306 0.00605146 0)
(-0.0584338 0.00607875 0)
(-0.0602442 0.00610852 0)
(-0.0620624 0.0061409 0)
(-0.063889 0.00617598 0)
(-0.0657249 0.00621382 0)
(-0.0675705 0.00625446 0)
(-0.0694267 0.00629789 0)
(-0.0712942 0.0063441 0)
(-0.0731736 0.00639305 0)
(-0.0750656 0.00644465 0)
(-0.0769708 0.00649881 0)
(-0.0788899 0.00655542 0)
(-0.0808233 0.0066143 0)
(-0.0827717 0.00667531 0)
(-0.0847355 0.00673822 0)
(-0.086715 0.00680282 0)
(-0.0887106 0.00686883 0)
(-0.0907225 0.00693599 0)
(-0.0927508 0.00700396 0)
(-0.0947956 0.0070724 0)
(-0.0968568 0.00714092 0)
(-0.0989343 0.0072091 0)
(-0.101028 0.0072765 0)
(-0.103136 0.00734262 0)
(-0.10526 0.00740694 0)
(-0.107397 0.00746888 0)
(-0.109548 0.00752785 0)
(-0.11171 0.00758319 0)
(-0.113884 0.00763421 0)
(-0.116066 0.00768019 0)
(-0.118255 0.00772035 0)
(-0.12045 0.00775387 0)
(-0.122648 0.00777988 0)
(-0.124847 0.0077975 0)
(-0.127044 0.00780576 0)
(-0.129236 0.00780369 0)
(-0.13142 0.00779025 0)
(-0.133592 0.00776438 0)
(-0.135748 0.00772498 0)
(-0.137885 0.00767092 0)
(-0.139997 0.00760102 0)
(-0.142081 0.00751411 0)
(-0.14413 0.00740897 0)
(-0.14614 0.00728438 0)
(-0.148106 0.0071391 0)
(-0.15002 0.00697191 0)
(-0.151876 0.00678157 0)
(-0.153669 0.00656687 0)
(-0.15539 0.00632663 0)
(-0.157034 0.0060597 0)
(-0.158592 0.00576497 0)
(-0.160056 0.00544141 0)
(-0.161419 0.00508805 0)
(-0.162673 0.00470401 0)
(-0.163809 0.00428852 0)
(-0.164818 0.00384095 0)
(-0.165693 0.00336076 0)
(-0.166425 0.00284763 0)
(-0.167004 0.00230136 0)
(-0.167422 0.00172198 0)
(-0.167671 0.00110973 0)
(-0.167743 0.000465063 0)
(-0.167629 -0.000211292 0)
(-0.167321 -0.000918343 0)
(-0.166811 -0.00165481 0)
(-0.166094 -0.00241911 0)
(-0.165161 -0.00320933 0)
(-0.164008 -0.00402324 0)
(-0.162628 -0.00485823 0)
(-0.161018 -0.00571138 0)
(-0.159173 -0.00657937 0)
(-0.157091 -0.00745855 0)
(-0.154769 -0.00834489 0)
(-0.152208 -0.00923402 0)
(-0.149407 -0.0101212 0)
(-0.146368 -0.0110014 0)
(-0.143096 -0.0118694 0)
(-0.139593 -0.0127193 0)
(-0.135867 -0.0135455 0)
(-0.131924 -0.0143419 0)
(-0.127774 -0.0151021 0)
(-0.123427 -0.01582 0)
(-0.118896 -0.0164892 0)
(-0.114195 -0.0171032 0)
(-0.109339 -0.0176559 0)
(-0.104345 -0.018141 0)
(-0.0992317 -0.0185528 0)
(-0.0940193 -0.0188856 0)
(-0.0887292 -0.0191343 0)
(-0.0833839 -0.019294 0)
(-0.0780075 -0.0193605 0)
(-0.0726246 -0.0193303 0)
(-0.0672609 -0.0192004 0)
(-0.0619429 -0.0189686 0)