/*--------------------------------*- C++ -*----------------------------------*\
  =========                 |
  \\      /  F ield         | OpenFOAM: The Open Source CFD Toolbox
   \\    /   O peration     | Website:  https://openfoam.org
    \\  /    A nd           | Version:  7
     \\/     M anipulation  |
\*---------------------------------------------------------------------------*/
FoamFile
{
    version     2.0;
    format      ascii;
    class       volScalarField;
    location    "0.3125";
    object      p;
}
// * * * * * * * * * * * * * * * * * * * * * * * * * * * * * * * * * * * * * //

dimensions      [0 2 -2 0 0 0 0];

internalField   nonuniform List<scalar> 
12800
(
1.68768e-06
2.96942e-05
-4.14424e-06
-0.000111089
-0.000283268
-0.000510685
-0.000782726
-0.00108894
-0.00141986
-0.00176717
-0.00212369
-0.00248335
-0.00284108
-0.00319267
-0.00353467
-0.00386429
-0.00417933
-0.00447815
-0.00475948
-0.00502246
-0.00526653
-0.00549138
-0.00569691
-0.0058832
-0.00605046
-0.00619901
-0.00632922
-0.00644152
-0.00653639
-0.00661432
-0.00667578
-0.00672122
-0.00675109
-0.00676577
-0.00676564
-0.00675102
-0.00672215
-0.00667927
-0.00662253
-0.00655206
-0.00646792
-0.00637013
-0.00625864
-0.00613334
-0.00599409
-0.0058407
-0.0056729
-0.00549039
-0.00529281
-0.00507975
-0.00485076
-0.00460534
-0.00434293
-0.00406293
-0.00376469
-0.00344751
-0.00311065
-0.00275333
-0.00237471
-0.00197391
-0.00154997
-0.00110191
-0.000628686
-0.000129195
0.000397696
0.000953181
0.00153851
0.00215498
0.00280395
0.00348683
0.00420508
0.0049602
0.00575375
0.00658731
0.00746254
0.00838114
0.00934483
0.0103554
0.0114146
0.0125242
0.0136862
0.0149023
0.0161743
0.0175042
0.0188938
0.0203449
0.0218591
0.0234383
0.0250841
0.026798
0.0285815
0.0304359
0.0323624
0.034362
0.0364357
0.0385839
0.0408072
0.0431057
0.0454792
0.0479273
0.0504492
0.0530437
0.0557093
0.058444
0.0612454
0.0641105
0.0670359
0.0700177
0.0730515
0.0761321
0.0792539
0.0824108
0.085596
0.0888022
0.0920213
0.095245
0.0984642
0.101669
0.104851
0.107998
0.1111
0.114147
0.117126
0.120027
0.122839
0.125549
0.128148
0.130625
0.132969
0.135171
0.137221
0.139111
0.140835
0.142386
0.143758
0.144949
0.145956
0.146777
0.147413
0.147866
0.148141
0.148242
0.148177
0.147954
0.147584
0.147079
0.146453
0.145722
0.144904
0.144019
0.143088
0.142135
0.141188
0.140276
0.139431
0.138692
0.138097
0.137687
0.137501
0.137528
-2.38465e-05
3.17393e-06
-3.22519e-05
-0.00013037
-0.000282157
-0.000480795
-0.000718666
-0.000987708
-0.00128022
-0.00158917
-0.0019083
-0.00223218
-0.00255613
-0.00287621
-0.0031891
-0.00349208
-0.00378295
-0.00405998
-0.00432181
-0.00456747
-0.00479626
-0.00500772
-0.00520158
-0.00537777
-0.00553635
-0.00567747
-0.00580137
-0.00590833
-0.00599869
-0.00607282
-0.00613106
-0.00617378
-0.00620129
-0.00621392
-0.00621194
-0.0061956
-0.00616507
-0.00612054
-0.0060621
-0.00598983
-0.00590376
-0.00580387
-0.00569008
-0.00556225
-0.00542022
-0.00526379
-0.00509267
-0.00490654
-0.00470504
-0.00448776
-0.00425424
-0.00400397
-0.00373641
-0.00345096
-0.00314697
-0.00282375
-0.00248058
-0.00211668
-0.00173123
-0.00132338
-0.000892182
-0.000436677
4.41552e-05
0.000551376
0.00108609
0.00164946
0.00224268
0.00286703
0.00352381
0.00421438
0.00494015
0.00570255
0.00650308
0.00734326
0.00822468
0.00914895
0.0101177
0.0111327
0.0121955
0.0133079
0.0144717
0.0156885
0.0169601
0.0182882
0.0196747
0.021121
0.0226289
0.0242
0.0258357
0.0275375
0.0293066
0.0311443
0.0330517
0.0350296
0.0370788
0.0391998
0.0413928
0.0436579
0.0459948
0.0484031
0.0508817
0.0534295
0.0560449
0.0587258
0.0614698
0.0642739
0.0671349
0.0700488
0.0730112
0.0760171
0.0790612
0.0821374
0.0852391
0.0883594
0.0914904
0.0946242
0.0977521
0.100865
0.103954
0.107008
0.110018
0.112973
0.115863
0.118677
0.121404
0.124034
0.126557
0.128962
0.131241
0.133384
0.135382
0.137229
0.138918
0.140442
0.141798
0.142982
0.143992
0.144827
0.145488
0.145978
0.146301
0.146461
0.146465
0.146323
0.146044
0.145641
0.145126
0.144514
0.143824
0.143072
0.14228
0.141469
0.140664
0.139891
0.139178
0.138555
0.138051
0.137696
0.137527
0.137554
1.07059e-05
3.88453e-05
3.07941e-06
-9.03284e-05
-0.000230605
-0.000411912
-0.000628121
-0.000872552
-0.0011387
-0.00142054
-0.00171258
-0.00200996
-0.00230842
-0.00260429
-0.00289446
-0.00317633
-0.00344777
-0.00370703
-0.00395276
-0.00418392
-0.00439974
-0.00459966
-0.00478333
-0.00495057
-0.00510133
-0.00523566
-0.00535367
-0.00545556
-0.00554157
-0.00561196
-0.005667
-0.00570694
-0.00573205
-0.00574256
-0.00573868
-0.00572059
-0.00568843
-0.0056423
-0.00558229
-0.00550841
-0.00542068
-0.00531901
-0.00520332
-0.00507344
-0.00492921
-0.00477038
-0.00459667
-0.00440775
-0.00420323
-0.00398271
-0.00374573
-0.00349178
-0.00322032
-0.00293075
-0.00262241
-0.00229465
-0.00194674
-0.00157793
-0.0011874
-0.000774312
-0.000337751
0.000123232
0.000609627
0.00112247
0.00166283
0.00223184
0.00283068
0.00346056
0.00412276
0.0048186
0.00554943
0.00631664
0.00712165
0.00796596
0.00885108
0.00977857
0.01075
0.011767
0.0128311
0.0139441
0.0151075
0.0163231
0.0175924
0.0189171
0.0202989
0.0217393
0.0232398
0.024802
0.0264272
0.0281168
0.029872
0.0316938
0.0335833
0.0355412
0.0375682
0.0396646
0.0418308
0.0440666
0.0463718
0.0487457
0.0511874
0.0536956
0.0562687
0.0589046
0.061601
0.0643549
0.067163
0.0700215
0.072926
0.0758718
0.0788536
0.0818654
0.084901
0.0879534
0.0910153
0.0940788
0.0971356
0.100177
0.103194
0.106177
0.109116
0.112002
0.114824
0.117572
0.120236
0.122806
0.125272
0.127625
0.129856
0.131956
0.133917
0.135732
0.137395
0.138901
0.140246
0.141426
0.14244
0.143287
0.143969
0.144487
0.144846
0.145051
0.145108
0.145027
0.144816
0.144488
0.144055
0.143531
0.142933
0.142277
0.141584
0.140872
0.140165
0.139484
0.138855
0.138303
0.137851
0.137524
0.137356
0.13737
0.000118444
0.000137454
9.60239e-05
1.82826e-06
-0.0001343
-0.000306911
-0.000510584
-0.000739491
-0.000988011
-0.00125088
-0.00152327
-0.00180085
-0.00207976
-0.00235664
-0.00262863
-0.00289329
-0.00314859
-0.00339287
-0.0036248
-0.00384334
-0.00404768
-0.00423725
-0.00441163
-0.0045706
-0.00471401
-0.00484184
-0.00495415
-0.00505105
-0.00513271
-0.0051993
-0.00525103
-0.00528809
-0.00531067
-0.00531896
-0.00531309
-0.0052932
-0.00525938
-0.00521168
-0.00515015
-0.00507479
-0.00498555
-0.00488234
-0.00476504
-0.00463347
-0.00448744
-0.0043267
-0.00415094
-0.00395982
-0.00375296
-0.00352994
-0.0032903
-0.00303354
-0.0027591
-0.00246639
-0.00215478
-0.00182359
-0.00147214
-0.00109966
-0.000705369
-0.000288422
0.000152068
0.000617028
0.00110742
0.00162427
0.0021686
0.00274153
0.00334418
0.00397777
0.00464352
0.0053427
0.00607662
0.00684663
0.00765411
0.0085005
0.00938726
0.0103159
0.0112879
0.0123049
0.0133683
0.0144798
0.0156409
0.0168533
0.0181185
0.0194381
0.0208136
0.0222466
0.0237385
0.0252906
0.0269044
0.0285811
0.0303217
0.0321274
0.0339991
0.0359374
0.037943
0.0400162
0.0421571
0.0443657
0.0466417
0.0489843
0.0513926
0.0538654
0.056401
0.0589975
0.0616523
0.0643628
0.0671255
0.0699368
0.0727924
0.0756877
0.0786175
0.081576
0.0845571
0.0875541
0.0905599
0.0935667
0.0965667
0.0995513
0.102512
0.105439
0.108323
0.111155
0.113924
0.116622
0.119238
0.121763
0.124187
0.1265
0.128696
0.130764
0.132698
0.134491
0.136137
0.137631
0.138969
0.140148
0.141167
0.142025
0.142723
0.143264
0.143652
0.143892
0.14399
0.143955
0.143796
0.143524
0.143152
0.142692
0.142162
0.141575
0.140951
0.140308
0.139665
0.139043
0.138464
0.137948
0.137518
0.137193
0.137002
0.136964
0.000292931
0.000290842
0.000236387
0.000135981
-1.43959e-06
-0.000170844
-0.000367366
-0.000585959
-0.00082175
-0.00107015
-0.00132696
-0.00158833
-0.00185082
-0.00211143
-0.00236753
-0.0026169
-0.00285763
-0.0030882
-0.00330733
-0.00351401
-0.00370745
-0.00388705
-0.0040524
-0.00420321
-0.0043393
-0.0044606
-0.0045671
-0.00465887
-0.00473601
-0.00479863
-0.00484686
-0.00488086
-0.00490075
-0.00490665
-0.00489867
-0.00487688
-0.00484132
-0.00479202
-0.00472899
-0.00465218
-0.00456151
-0.00445687
-0.00433811
-0.00420505
-0.00405746
-0.00389508
-0.00371758
-0.00352461
-0.00331579
-0.00309069
-0.00284887
-0.0025898
-0.00231293
-0.00201767
-0.0017034
-0.00136947
-0.00101518
-0.000639788
-0.000242523
0.000177444
0.000620981
0.00108899
0.00158242
0.00210224
0.00264948
0.00322521
0.00383053
0.00446662
0.00513465
0.00583587
0.00657155
0.00734297
0.00815149
0.00899848
0.00988536
0.0108136
0.0117846
0.0127999
0.013861
0.0149694
0.0161265
0.0173341
0.0185934
0.0199062
0.0212738
0.0226977
0.0241792
0.0257198
0.0273206
0.0289829
0.0307078
0.0324961
0.0343488
0.0362666
0.0382499
0.0402991
0.0424144
0.0445956
0.0468423
0.0491539
0.0515295
0.0539677
0.0564671
0.0590256
0.0616408
0.0643101
0.0670301
0.0697973
0.0726076
0.0754564
0.0783385
0.0812486
0.0841805
0.0871279
0.0900836
0.0930404
0.0959904
0.0989253
0.101837
0.104716
0.107553
0.110339
0.113065
0.11572
0.118297
0.120784
0.123173
0.125456
0.127623
0.129667
0.13158
0.133356
0.134989
0.136475
0.13781
0.13899
0.140014
0.140883
0.141597
0.142159
0.142572
0.142842
0.142975
0.142979
0.142863
0.142638
0.142315
0.141908
0.141431
0.140899
0.140328
0.139735
0.139138
0.138556
0.138007
0.137508
0.13708
0.136738
0.136501
0.136379
0.000525425
0.000492948
0.000418988
0.000307209
0.000163453
-7.7008e-06
-0.000201908
-0.000414842
-0.000642313
-0.000880372
-0.00112535
-0.00137389
-0.00162297
-0.00186993
-0.00211243
-0.00234843
-0.00257625
-0.00279446
-0.0030019
-0.0031976
-0.00338082
-0.00355098
-0.00370768
-0.00385059
-0.00397953
-0.00409437
-0.0041951
-0.00428171
-0.00435426
-0.00441282
-0.00445747
-0.00448831
-0.00450542
-0.00450888
-0.00449872
-0.00447498
-0.00443768
-0.0043868
-0.00432231
-0.00424413
-0.00415215
-0.00404623
-0.00392621
-0.00379187
-0.00364298
-0.00347925
-0.00330034
-0.0031059
-0.00289553
-0.00266882
-0.0024253
-0.00216444
-0.00188571
-0.00158851
-0.00127223
-0.000936236
-0.000579837
-0.00020231
0.000197113
0.000619242
0.00106492
0.00153503
0.00203049
0.00255225
0.00310131
0.0036787
0.00428552
0.00492287
0.00559192
0.00629387
0.00702992
0.00780135
0.00860945
0.00945555
0.010341
0.0112672
0.0122357
0.0132477
0.0143047
0.0154083
0.0165598
0.0177608
0.0190127
0.0203169
0.0216749
0.023088
0.0245577
0.0260851
0.0276715
0.029318
0.0310256
0.0327954
0.0346281
0.0365243
0.0384846
0.0405092
0.0425984
0.0447519
0.0469694
0.0492503
0.0515937
0.0539983
0.0564625
0.0589846
0.0615621
0.0641924
0.0668724
0.0695986
0.072367
0.0751731
0.0780119
0.0808783
0.0837662
0.0866694
0.0895812
0.0924942
0.0954009
0.0982932
0.101163
0.104001
0.106799
0.109548
0.112238
0.114859
0.117404
0.119862
0.122224
0.124483
0.126629
0.128655
0.130554
0.132319
0.133945
0.135426
0.13676
0.137944
0.138976
0.139856
0.140585
0.141166
0.141602
0.141897
0.14206
0.142096
0.142015
0.141828
0.141545
0.141179
0.140743
0.140251
0.139718
0.139161
0.138594
0.138034
0.137497
0.136999
0.136555
0.136181
0.135881
0.135656
0.000806358
0.000736923
0.000638198
0.000510495
0.000355928
0.000178558
-1.77207e-05
-0.000229234
-0.000452437
-0.000683958
-0.000920633
-0.00115956
-0.00139814
-0.00163403
-0.00186517
-0.00208979
-0.00230638
-0.00251368
-0.00271062
-0.00289633
-0.00307015
-0.00323153
-0.00338007
-0.00351548
-0.00363754
-0.00374614
-0.00384122
-0.00392276
-0.00399077
-0.00404528
-0.00408635
-0.00411403
-0.00412835
-0.00412934
-0.00411701
-0.00409135
-0.00405235
-0.00399996
-0.0039341
-0.00385467
-0.00376154
-0.00365453
-0.00353346
-0.0033981
-0.0032482
-0.00308344
-0.00290348
-0.00270797
-0.0024965
-0.00226864
-0.00202392
-0.00176183
-0.00148182
-0.00118331
-0.000865702
-0.00052836
-0.000170612
0.000208255
0.000608993
0.00103239
0.00147928
0.00195051
0.00244698
0.0029696
0.00351936
0.00409726
0.00470434
0.00534171
0.00601046
0.00671177
0.00744681
0.00821679
0.00902298
0.00986666
0.0107491
0.0116718
0.012636
0.013643
0.0146944
0.0157914
0.0169356
0.0181283
0.0193709
0.0206649
0.0220116
0.0234123
0.0248684
0.0263811
0.0279515
0.0295808
0.0312699
0.0330199
0.0348314
0.0367051
0.0386416
0.040641
0.0427037
0.0448293
0.0470177
0.0492681
0.0515798
0.0539516
0.0563819
0.0588691
0.0614107
0.0640044
0.066647
0.0693351
0.0720649
0.0748322
0.077632
0.0804593
0.0833083
0.0861729
0.0890464
0.0919219
0.094792
0.0976487
0.100484
0.103289
0.106055
0.108774
0.111436
0.114032
0.116553
0.118989
0.121333
0.123575
0.125707
0.127722
0.129613
0.131372
0.132996
0.134478
0.135815
0.137005
0.138047
0.138939
0.139683
0.140281
0.140737
0.141055
0.141242
0.141305
0.141253
0.141095
0.140842
0.140506
0.140099
0.139635
0.139128
0.138591
0.13804
0.137487
0.136948
0.136436
0.135964
0.135544
0.13517
0.134829
0.00112624
0.00101527
0.000887705
0.000740323
0.000571149
0.000383763
0.00018167
-3.20799e-05
-0.000254532
-0.000482829
-0.000714304
-0.000946498
-0.00117717
-0.00140433
-0.00162621
-0.0018413
-0.00204828
-0.00224605
-0.00243367
-0.00261041
-0.00277565
-0.00292893
-0.00306988
-0.00319822
-0.00331376
-0.00341639
-0.00350604
-0.00358266
-0.00364624
-0.0036968
-0.00373436
-0.00375892
-0.0037705
-0.00376908
-0.00375464
-0.00372714
-0.00368653
-0.00363273
-0.00356564
-0.00348511
-0.003391
-0.00328311
-0.00316123
-0.00302513
-0.00287451
-0.00270905
-0.00252842
-0.00233223
-0.00212009
-0.00189156
-0.00164617
-0.00138339
-0.00110268
-0.000803483
-0.000485204
-0.000147219
0.000211133
0.000590552
0.000991776
0.00141558
0.00186275
0.00233414
0.00283059
0.00335303
0.00390238
0.00447962
0.00508578
0.00572191
0.00638907
0.0070884
0.00782103
0.00858813
0.00939093
0.0102307
0.0111086
0.0120261
0.0129844
0.0139848
0.0150288
0.0161176
0.0172526
0.0184353
0.0196669
0.0209489
0.0222826
0.0236692
0.0251101
0.0266064
0.0281592
0.0297698
0.031439
0.0331678
0.034957
0.0368072
0.0387188
0.0406923
0.0427278
0.0448252
0.0469842
0.0492043
0.0514846
0.0538242
0.0562215
0.0586749
0.0611822
0.063741
0.0663484
0.0690011
0.0716955
0.0744272
0.0771918
0.0799841
0.0827987
0.0856295
0.0884702
0.0913139
0.0941532
0.0969806
0.0997879
0.102567
0.105309
0.108005
0.110646
0.113224
0.115728
0.118151
0.120483
0.122716
0.124841
0.126852
0.12874
0.1305
0.132126
0.133613
0.134958
0.136157
0.13721
0.138115
0.138875
0.13949
0.139964
0.140302
0.14051
0.140596
0.140566
0.14043
0.1402
0.139885
0.139498
0.139052
0.138558
0.138031
0.137482
0.136925
0.136372
0.135834
0.135322
0.134849
0.134393
0.133933
0.00147621
0.00132063
0.0011612
0.000991107
0.000804207
0.000603647
0.000392578
0.000173476
-5.12312e-05
-0.000279184
-0.000508176
-0.000736159
-0.00096126
-0.00118181
-0.00139636
-0.00160362
-0.00180249
-0.00199204
-0.00217151
-0.00234025
-0.00249777
-0.00264366
-0.00277761
-0.00289938
-0.00300882
-0.00310582
-0.0031903
-0.00326222
-0.00332157
-0.00336833
-0.0034025
-0.00342407
-0.00343302
-0.00342929
-0.00341285
-0.00338363
-0.00334154
-0.00328648
-0.00321831
-0.00313687
-0.00304198
-0.00293344
-0.00281102
-0.00267445
-0.00252342
-0.00235761
-0.00217667
-0.00198022
-0.00176784
-0.00153911
-0.00129353
-0.00103059
-0.00074977
-0.0004505
-0.000132204
0.000205733
0.000563959
0.000943162
0.00134406
0.0017674
0.00221396
0.00268455
0.00318001
0.00370121
0.00424906
0.00482452
0.00542857
0.00606222
0.00672652
0.00742253
0.00815137
0.00891417
0.0097121
0.0105464
0.0114182
0.0123289
0.0132797
0.0142718
0.0153067
0.0163855
0.0175097
0.0186806
0.0198994
0.0211677
0.0224865
0.0238573
0.0252812
0.0267594
0.0282931
0.0298834
0.0315312
0.0332374
0.0350029
0.0368283
0.0387141
0.0406607
0.0426682
0.0447368
0.0468661
0.0490556
0.0513047
0.0536124
0.0559773
0.0583978
0.060872
0.0633975
0.0659715
0.068591
0.0712522
0.0739514
0.0766839
0.079445
0.0822291
0.0850306
0.0878431
0.09066
0.093474
0.0962777
0.0990632
0.101822
0.104546
0.107226
0.109854
0.11242
0.114915
0.117331
0.119658
0.121889
0.124014
0.126026
0.127919
0.129685
0.131319
0.132815
0.134171
0.135384
0.136451
0.137372
0.138147
0.13878
0.139272
0.139629
0.139855
0.139959
0.139947
0.139829
0.139614
0.139314
0.138939
0.1385
0.138011
0.137483
0.136927
0.136355
0.135778
0.135205
0.134647
0.134113
0.133573
0.132993
0.00184818
0.00164603
0.00145254
0.00125737
0.00105023
0.000833883
0.000611195
0.000384126
0.000154591
-7.55123e-05
-0.000304389
-0.000530382
-0.000751984
-0.000967858
-0.00117682
-0.00137783
-0.00157
-0.0017526
-0.00192501
-0.00208674
-0.00223738
-0.00237661
-0.00250418
-0.00261993
-0.00272373
-0.00281548
-0.00289513
-0.00296264
-0.00301799
-0.00306117
-0.00309215
-0.0031109
-0.00311737
-0.0031115
-0.00309321
-0.00306243
-0.00301903
-0.00296289
-0.00289383
-0.00281169
-0.00271626
-0.00260732
-0.00248462
-0.00234787
-0.00219675
-0.00203093
-0.00185006
-0.00165374
-0.00144157
-0.00121309
-0.000967821
-0.00070526
-0.000424881
-0.000126139
0.000191537
0.000528751
0.000886139
0.00126437
0.00166414
0.00208619
0.00253125
0.00300011
0.0034936
0.00401254
0.00455783
0.00513039
0.00573116
0.00636111
0.00702127
0.00771265
0.00843632
0.00919339
0.009985
0.0108123
0.0116765
0.0125788
0.0135204
0.0145026
0.0155266
0.0165937
0.0177053
0.0188626
0.0200669
0.0213196
0.0226218
0.0239749
0.0253801
0.0268385
0.0283514
0.0299197
0.0315444
0.0332266
0.0349669
0.0367662
0.0386249
0.0405435
0.0425223
0.0445612
0.0466602
0.0488188
0.0510365
0.0533123
0.0556451
0.0580334
0.0604753
0.0629686
0.0655107
0.0680987
0.0707291
0.0733981
0.0761014
0.0788342
0.0815915
0.0843674
0.087156
0.0899506
0.0927442
0.0955295
0.0982986
0.101043
0.103755
0.106426
0.109046
0.111607
0.1141
0.116516
0.118845
0.121079
0.123211
0.125231
0.127134
0.128912
0.130559
0.13207
0.133442
0.134671
0.135755
0.136694
0.137488
0.138139
0.138649
0.139024
0.139267
0.139387
0.139389
0.139284
0.13908
0.138788
0.138418
0.137981
0.137488
0.136951
0.13638
0.135785
0.135176
0.134562
0.133951
0.133354
0.132727
0.132031
0.00223487
0.00198491
0.00175582
0.00153379
0.0013044
0.00107015
0.000833674
0.000596442
0.000359894
0.000125514
-0.000105295
-0.000331254
-0.000551207
-0.000764117
-0.000969071
-0.00116528
-0.00135207
-0.00152891
-0.00169534
-0.001851
-0.00199559
-0.0021289
-0.00225075
-0.00236105
-0.0024597
-0.00254664
-0.00262184
-0.00268528
-0.00273693
-0.00277679
-0.00280482
-0.00282097
-0.00282517
-0.00281735
-0.00279742
-0.00276528
-0.00272077
-0.00266375
-0.00259402
-0.00251141
-0.00241568
-0.00230661
-0.0021839
-0.00204727
-0.00189639
-0.00173091
-0.00155047
-0.00135469
-0.00114314
-0.000915371
-0.000670897
-0.000409225
-0.000129843
0.000167786
0.000484223
0.000820059
0.00117591
0.00155244
0.00195032
0.00237024
0.00281295
0.00327918
0.00376973
0.00428542
0.0048271
0.00539565
0.00599199
0.00661705
0.00727181
0.00795725
0.00867442
0.00942436
0.0102082
0.011027
0.011882
0.0127743
0.0137051
0.0146756
0.0156871
0.0167408
0.017838
0.0189799
0.0201678
0.0214031
0.0226869
0.0240205
0.0254052
0.026842
0.0283322
0.0298768
0.0314768
0.0331333
0.034847
0.0366187
0.038449
0.0403384
0.0422873
0.0442957
0.0463636
0.0484907
0.0506766
0.0529204
0.0552211
0.0575774
0.0599876
0.0624495
0.0649608
0.0675187
0.0701199
0.0727608
0.0754372
0.0781446
0.080878
0.0836318
0.0864001
0.0891765
0.0919541
0.0947256
0.0974833
0.100219
0.102925
0.105591
0.10821
0.110773
0.113269
0.11569
0.118028
0.120273
0.122417
0.124452
0.126371
0.128166
0.129832
0.131363
0.132756
0.134006
0.135111
0.136071
0.136886
0.137556
0.138086
0.138478
0.138738
0.138872
0.138887
0.138791
0.138594
0.138306
0.137935
0.137493
0.136991
0.136438
0.135845
0.135222
0.134576
0.133914
0.133248
0.132584
0.131872
0.131063
0.00262963
0.00233117
0.00206542
0.00181519
0.00156201
0.00130817
0.00105613
0.000806912
0.000561527
0.00032107
8.65613e-05
-0.000141073
-0.000360999
-0.000572469
-0.000774837
-0.000967564
-0.00115021
-0.0013224
-0.00148386
-0.00163436
-0.00177373
-0.00190185
-0.00201865
-0.00212408
-0.00221811
-0.00230071
-0.00237188
-0.00243162
-0.00247993
-0.00251678
-0.00254214
-0.00255594
-0.00255812
-0.0025486
-0.00252726
-0.00249398
-0.00244859
-0.00239092
-0.00232077
-0.00223793
-0.00214217
-0.00203323
-0.0019108
-0.00177459
-0.00162426
-0.00145946
-0.00127984
-0.00108498
-0.000874461
-0.000647832
-0.000404619
-0.000144336
0.000133519
0.000429473
0.000744074
0.0010779
0.00143156
0.00180567
0.0022009
0.00261792
0.00305743
0.00352015
0.00400684
0.0045183
0.00505535
0.00561882
0.00620961
0.0068286
0.00747674
0.00815496
0.00886427
0.0096057
0.0103803
0.0111892
0.0120334
0.0129141
0.0138325
0.0147897
0.0157869
0.0168254
0.0179064
0.0190311
0.0202009
0.0214169
0.0226804
0.0239927
0.0253549
0.0267683
0.028234
0.0297531
0.0313267
0.0329558
0.0346412
0.0363838
0.0381843
0.0400431
0.0419608
0.0439376
0.0459735
0.0480683
0.0502217
0.0524331
0.0547016
0.0570259
0.0594046
0.0618357
0.064317
0.0668458
0.0694192
0.0720335
0.074685
0.0773692
0.0800812
0.0828158
0.0855671
0.0883288
0.0910942
0.0938561
0.0966069
0.0993386
0.102043
0.104711
0.107334
0.109903
0.112409
0.114843
0.117195
0.119457
0.12162
0.123675
0.125616
0.127435
0.129125
0.130682
0.1321
0.133375
0.134506
0.13549
0.136329
0.137022
0.137572
0.137983
0.138259
0.138407
0.138433
0.138346
0.138153
0.137864
0.137489
0.137038
0.136521
0.135948
0.135328
0.13467
0.133983
0.133271
0.132546
0.131815
0.131019
0.130103
0.00302639
0.00267909
0.00237598
0.00209658
0.00181845
0.00154371
0.00127467
0.00101198
0.000756247
0.000508188
0.000268468
3.76855e-05
-0.000183623
-0.000394998
-0.000596061
-0.000786514
-0.000966124
-0.00113471
-0.00129215
-0.00143836
-0.00157331
-0.00169698
-0.00180939
-0.00191056
-0.0020005
-0.00207925
-0.00214684
-0.0022033
-0.00224864
-0.00228282
-0.00230582
-0.00231758
-0.00231803
-0.00230708
-0.00228459
-0.00225042
-0.00220439
-0.00214632
-0.002076
-0.0019932
-0.00189767
-0.00178913
-0.00166727
-0.00153178
-0.00138232
-0.00121854
-0.00104007
-0.000846505
-0.000637413
-0.000412346
-0.000170841
8.75783e-05
0.000363402
0.000657144
0.000969343
0.00130056
0.00165138
0.00202241
0.00241427
0.00282763
0.00326313
0.0037215
0.00420344
0.00470973
0.00524115
0.00579851
0.00638265
0.00699443
0.00763474
0.00830449
0.00900465
0.00973621
0.0105002
0.0112976
0.0121296
0.0129972
0.0139015
0.0148437
0.015825
0.0168466
0.0179096
0.0190153
0.020165
0.0213599
0.0226013
0.0238903
0.0252282
0.0266163
0.0280556
0.0295474
0.0310928
0.0326927
0.0343481
0.03606
0.037829
0.0396558
0.041541
0.0434849
0.0454876
0.0475492
0.0496694
0.0518477
0.0540834
0.0563755
0.0587226
0.061123
0.0635747
0.0660752
0.0686217
0.0712108
0.0738389
0.0765017
0.0791945
0.0819123
0.0846493
0.0873994
0.090156
0.092912
0.0956599
0.0983918
0.101099
0.103774
0.106406
0.108988
0.111509
0.11396
0.116333
0.118617
0.120805
0.122888
0.124857
0.126705
0.128426
0.130013
0.131461
0.132767
0.133928
0.134941
0.135807
0.136525
0.137099
0.13753
0.137825
0.137987
0.138023
0.137942
0.137752
0.137461
0.137079
0.136615
0.13608
0.135483
0.134832
0.134137
0.133404
0.13264
0.131855
0.131057
0.13018
0.129161
0.00341954
0.00302331
0.00268244
0.00237319
0.00206924
0.00177257
0.00148542
0.00120806
0.000940727
0.000683787
0.00043758
0.000202398
-2.15165e-05
-0.000233985
-0.000434886
-0.000624149
-0.000801743
-0.000967673
-0.00112198
-0.00126475
-0.00139605
-0.00151599
-0.00162466
-0.00172216
-0.00180858
-0.00188399
-0.00194848
-0.00200209
-0.00204485
-0.00207673
-0.00209772
-0.00210777
-0.00210679
-0.00209469
-0.00207133
-0.00203654
-0.00199014
-0.00193193
-0.0018617
-0.0017792
-0.00168416
-0.00157629
-0.00145527
-0.00132079
-0.00117251
-0.00101007
-0.000833093
-0.00064117
-0.000433873
-0.000210761
2.86173e-05
0.000284725
0.000558044
0.000849074
0.00115834
0.00148638
0.00183376
0.00220106
0.00258889
0.00299785
0.00342859
0.00388179
0.00435814
0.00485836
0.0053832
0.00593344
0.00650988
0.00711333
0.00774465
0.00840472
0.00909446
0.00981482
0.0105668
0.0113514
0.0121696
0.0130225
0.0139112
0.0148368
0.0158004
0.0168033
0.0178466
0.0189316
0.0200594
0.0212313
0.0224486
0.0237125
0.0250243
0.0263851
0.0277962
0.0292588
0.030774
0.0323429
0.0339666
0.0356459
0.0373819
0.0391751
0.0410263
0.0429358
0.0449041
0.0469313
0.0490172
0.0511616
0.0533639
0.0556233
0.0579385
0.0603082
0.0627304
0.0652029
0.067723
0.0702878
0.0728935
0.0755364
0.0782117
0.0809147
0.0836397
0.0863809
0.0891317
0.0918851
0.0946337
0.0973696
0.100084
0.10277
0.105416
0.108015
0.110557
0.113032
0.11543
0.117744
0.119962
0.122077
0.124081
0.125964
0.127721
0.129345
0.13083
0.132172
0.133367
0.134414
0.135311
0.136058
0.136658
0.137113
0.137426
0.137604
0.137652
0.137578
0.137389
0.137094
0.136703
0.136225
0.135669
0.135044
0.13436
0.133625
0.132845
0.132028
0.131182
0.130318
0.129361
0.128245
0.00380384
0.0033588
0.00297996
0.00264041
0.00231
0.00199065
0.00168452
0.00139153
0.00111157
0.0008447
0.000590946
0.000350304
0.000122725
-9.18787e-05
-0.000293626
-0.000482663
-0.000659162
-0.000823316
-0.000975334
-0.00111543
-0.00124383
-0.00136072
-0.00146629
-0.00156072
-0.00164417
-0.00171678
-0.00177865
-0.00182985
-0.00187044
-0.00190041
-0.00191975
-0.00192842
-0.00192634
-0.0019134
-0.00188944
-0.00185431
-0.00180781
-0.00174974
-0.00167986
-0.00159792
-0.00150363
-0.00139668
-0.00127677
-0.00114358
-0.000996765
-0.000835959
-0.000660779
-0.000470819
-0.000265658
-4.48651e-05
0.000192
0.000445389
0.000715768
0.00100362
0.00130946
0.0016338
0.00197719
0.00234017
0.00272331
0.00312721
0.00355247
0.00399974
0.00446968
0.00496297
0.00548034
0.00602251
0.00659023
0.0071843
0.00780551
0.00845473
0.00913282
0.00984071
0.0105793
0.0113497
0.0121527
0.0129894
0.0138609
0.0147683
0.0157127
0.0166952
0.017717
0.0187794
0.0198835
0.0210306
0.022222
0.0234589
0.0247425
0.0260742
0.0274551
0.0288866
0.0303698
0.0319058
0.0334959
0.035141
0.0368421
0.0386
0.0404156
0.0422894
0.0442218
0.0462132
0.0482637
0.0503731
0.0525411
0.054767
0.0570498
0.0593883
0.0617809
0.0642254
0.0667195
0.0692604
0.0718446
0.0744685
0.0771277
0.0798174
0.0825324
0.0852668
0.0880142
0.0907678
0.0935203
0.0962637
0.0989898
0.10169
0.104355
0.106976
0.109543
0.112046
0.114477
0.116824
0.11908
0.121233
0.123277
0.125202
0.127001
0.128667
0.130195
0.131578
0.132814
0.133899
0.134832
0.135613
0.136242
0.136723
0.137059
0.137254
0.137315
0.137248
0.137061
0.136762
0.136361
0.135867
0.135289
0.134635
0.133916
0.133139
0.132311
0.131438
0.130533
0.129602
0.128569
0.127359
0.00417439
0.00368075
0.00326391
0.00289378
0.00253649
0.0021939
0.00186812
0.00155875
0.00126536
0.000987702
0.000725521
0.000478517
0.000246365
2.87294e-05
-0.000174741
-0.000364408
-0.000540644
-0.000703826
-0.000854324
-0.000992493
-0.00111867
-0.00123317
-0.00133626
-0.00142822
-0.00150925
-0.00157956
-0.00163929
-0.00168854
-0.00172737
-0.00175582
-0.00177389
-0.00178154
-0.00177868
-0.0017652
-0.00174094
-0.00170575
-0.00165942
-0.00160174
-0.00153246
-0.00145132
-0.00135801
-0.00125224
-0.0011337
-0.00100205
-0.000856955
-0.000698046
-0.000524939
-0.000337231
-0.000134511
8.36399e-05
0.000317648
0.00056795
0.000834999
0.00111927
0.00142123
0.0017414
0.00208028
0.00243839
0.00281626
0.00321447
0.00363359
0.00407422
0.004537
0.00502257
0.0055316
0.0060648
0.00662286
0.00720652
0.00781658
0.00845382
0.0091191
0.00981328
0.0105373
0.011292
0.0120784
0.0128975
0.0137503
0.0146379
0.0155614
0.0165219
0.0175205
0.0185586
0.0196372
0.0207577
0.0219213
0.0231293
0.0243829
0.0256835
0.0270324
0.0284308
0.0298801
0.0313814
0.032936
0.034545
0.0362094
0.0379303
0.0397086
0.0415449
0.04344
0.0453942
0.0474079
0.0494811
0.0516136
0.0538051
0.0560547
0.0583614
0.0607239
0.0631402
0.0656082
0.0681253
0.0706885
0.073294
0.075938
0.0786157
0.0813221
0.0840514
0.0867976
0.0895538
0.0923128
0.0950668
0.0978075
0.100526
0.103214
0.105861
0.108458
0.110995
0.113462
0.11585
0.118147
0.120346
0.122436
0.124408
0.126256
0.12797
0.129546
0.130977
0.132258
0.133387
0.134361
0.13518
0.135844
0.136355
0.136716
0.136932
0.137007
0.136949
0.136765
0.136463
0.136053
0.135542
0.13494
0.134257
0.133501
0.132681
0.131805
0.130877
0.129911
0.128916
0.127807
0.126508
0.00452655
0.0039846
0.00352981
0.00312898
0.00274456
0.00237832
0.0020324
0.00170607
0.00139862
0.0011095
0.000838168
0.000584047
0.00034656
0.000125128
-8.08277e-05
-0.000271882
-0.000448602
-0.00061154
-0.00076122
-0.000898137
-0.00102275
-0.00113547
-0.00123669
-0.00132673
-0.00140589
-0.00147441
-0.00153246
-0.00158019
-0.00161769
-0.00164502
-0.00166219
-0.00166915
-0.00166583
-0.00165211
-0.00162784
-0.00159286
-0.00154696
-0.00148991
-0.00142147
-0.00134135
-0.00124925
-0.00114487
-0.00102791
-0.000898028
-0.00075488
-0.000598096
-0.000427295
-0.000242087
-4.20711e-05
0.000173157
0.000404011
0.000650911
0.000914294
0.00119461
0.00149231
0.00180789
0.0021418
0.00249455
0.00286663
0.00325858
0.00367095
0.0041043
0.00455922
0.00503633
0.00553624
0.00605961
0.00660711
0.00717944
0.00777733
0.00840155
0.00905289
0.00973221
0.0104403
0.0111782
0.0119467
0.0127467
0.0135794
0.0144457
0.0153467
0.0162836
0.0172574
0.0182694
0.0193208
0.0204129
0.0215469
0.0227241
0.0239459
0.0252136
0.0265284
0.0278919
0.0293053
0.03077
0.0322872
0.0338582
0.0354841
0.0371662
0.0389054
0.0407026
0.0425586
0.0444741
0.0464495
0.0484852
0.050581
0.0527369
0.0549523
0.0572264
0.059558
0.0619455
0.0643871
0.0668804
0.0694224
0.07201
0.0746392
0.0773057
0.0800045
0.0827303
0.0854768
0.0882376
0.0910054
0.0937726
0.0965308
0.0992714
0.101985
0.104663
0.107294
0.10987
0.112379
0.114811
0.117156
0.119405
0.121547
0.123573
0.125475
0.127245
0.128875
0.130359
0.131693
0.132871
0.133892
0.134755
0.135458
0.136003
0.136394
0.136633
0.136726
0.136679
0.1365
0.136196
0.135776
0.135249
0.134624
0.133911
0.133119
0.132256
0.13133
0.130348
0.129322
0.128263
0.127081
0.125696
0.00485585
0.00426597
0.00377337
0.00334183
0.0029301
0.00253998
0.00217356
0.00182987
0.00150787
0.00120675
0.000925678
0.000663827
0.000420371
0.000194494
-1.4605e-05
-0.00020771
-0.000385574
-0.000548919
-0.000698419
-0.000834704
-0.000958353
-0.00106989
-0.00116979
-0.00125846
-0.00133625
-0.00140345
-0.00146029
-0.00150693
-0.00154351
-0.00157009
-0.00158671
-0.00159331
-0.00158984
-0.00157617
-0.00155216
-0.00151764
-0.0014724
-0.00141621
-0.0013488
-0.0012699
-0.0011792
-0.00107641
-0.000961206
-0.000833271
-0.000692247
-0.00053777
-0.000369466
-0.000186957
1.01421e-05
0.000222222
0.00044968
0.000692919
0.000952356
0.00122841
0.00152153
0.00183215
0.00216071
0.00250766
0.0028735
0.00325869
0.00366377
0.00408926
0.0045357
0.00500367
0.00549374