/*--------------------------------*- C++ -*----------------------------------*\
  =========                 |
  \\      /  F ield         | OpenFOAM: The Open Source CFD Toolbox
   \\    /   O peration     | Website:  https://openfoam.org
    \\  /    A nd           | Version:  7
     \\/     M anipulation  |
\*---------------------------------------------------------------------------*/
FoamFile
{
    version     2.0;
    format      ascii;
    class       surfaceScalarField;
    location    "0.3125";
    object      phi;
}
// * * * * * * * * * * * * * * * * * * * * * * * * * * * * * * * * * * * * * //

dimensions      [0 3 -1 0 0 0 0];

internalField   nonuniform List<scalar> 
25360
(
5.11608e-11
-5.3328e-11
1.93458e-10
-1.42298e-10
3.61018e-10
-1.67559e-10
5.06313e-10
-1.45295e-10
6.01226e-10
-9.49195e-11
6.29866e-10
-2.86296e-11
5.84042e-10
4.58115e-11
4.6065e-10
1.23389e-10
2.59793e-10
2.00856e-10
-1.63307e-11
2.76119e-10
-3.64182e-10
3.47848e-10
-7.79414e-10
4.15228e-10
-1.25719e-09
4.7777e-10
-1.79243e-09
5.35252e-10
-2.38004e-09
5.87605e-10
-3.01494e-09
6.34897e-10
-3.69223e-09
6.77299e-10
-4.40726e-09
7.15034e-10
-5.15564e-09
7.48372e-10
-5.93325e-09
7.77619e-10
-6.73634e-09
8.03092e-10
-7.56145e-09
8.25114e-10
-8.40546e-09
8.44012e-10
-9.26557e-09
8.60113e-10
-1.01393e-08
8.73729e-10
-1.10245e-08
8.85161e-10
-1.19192e-08
8.94694e-10
-1.28218e-08
9.02595e-10
-1.37309e-08
9.0911e-10
-1.46453e-08
9.14474e-10
-1.55642e-08
9.18903e-10
-1.64868e-08
9.22592e-10
-1.74126e-08
9.25717e-10
-1.8341e-08
9.28438e-10
-1.92719e-08
9.30899e-10
-2.02051e-08
9.33229e-10
-2.11407e-08
9.35543e-10
-2.20786e-08
9.37939e-10
-2.30191e-08
9.40504e-10
-2.39624e-08
9.43315e-10
-2.49089e-08
9.46443e-10
-2.58588e-08
9.49945e-10
-2.68127e-08
9.53869e-10
-2.77709e-08
9.58253e-10
-2.87341e-08
9.63134e-10
-2.97026e-08
9.6854e-10
-3.06771e-08
9.74494e-10
-3.16581e-08
9.81012e-10
-3.26462e-08
9.88106e-10
-3.3642e-08
9.95785e-10
-3.46461e-08
1.00405e-09
-3.5659e-08
1.01291e-09
-3.66813e-08
1.02235e-09
-3.77137e-08
1.03237e-09
-3.87566e-08
1.04296e-09
-3.98107e-08
1.05409e-09
-4.08765e-08
1.06577e-09
-4.19545e-08
1.07795e-09
-4.30451e-08
1.09063e-09
-4.41489e-08
1.10377e-09
-4.52662e-08
1.11733e-09
-4.63975e-08
1.13128e-09
-4.7543e-08
1.14557e-09
-4.87032e-08
1.16016e-09
-4.98782e-08
1.175e-09
-5.10682e-08
1.19002e-09
-5.22734e-08
1.20516e-09
-5.34937e-08
1.22036e-09
-5.47292e-08
1.23553e-09
-5.59798e-08
1.25059e-09
-5.72453e-08
1.26545e-09
-5.85253e-08
1.28002e-09
-5.98195e-08
1.29418e-09
-6.11273e-08
1.30783e-09
-6.24482e-08
1.32084e-09
-6.37812e-08
1.33307e-09
-6.51256e-08
1.3444e-09
-6.64803e-08
1.35466e-09
-6.7844e-08
1.36371e-09
-6.92154e-08
1.37138e-09
-7.05928e-08
1.37748e-09
-7.19747e-08
1.38184e-09
-7.33589e-08
1.38426e-09
-7.47435e-08
1.38454e-09
-7.61259e-08
1.38245e-09
-7.75037e-08
1.37779e-09
-7.8874e-08
1.37032e-09
-8.02338e-08
1.3598e-09
-8.15798e-08
1.34599e-09
-8.29085e-08
1.32865e-09
-8.4216e-08
1.30752e-09
-8.54984e-08
1.28235e-09
-8.67512e-08
1.25287e-09
-8.79701e-08
1.21883e-09
-8.915e-08
1.17997e-09
-9.02861e-08
1.13605e-09
-9.13729e-08
1.08682e-09
-9.24049e-08
1.03203e-09
-9.33764e-08
9.71471e-10
-9.42813e-08
9.04931e-10
-9.51135e-08
8.3222e-10
-9.58667e-08
7.53173e-10
-9.65344e-08
6.67649e-10
-9.71099e-08
5.75537e-10
-9.75867e-08
4.76762e-10
-9.7958e-08
3.71289e-10
-9.82171e-08
2.59126e-10
-9.83574e-08
1.40331e-10
-9.83724e-08
1.50183e-11
-9.82558e-08
-1.16651e-10
-9.80013e-08
-2.54435e-10
-9.76033e-08
-3.98039e-10
-9.70562e-08
-5.47094e-10
-9.63551e-08
-7.01154e-10
-9.54954e-08
-8.59696e-10
-9.44733e-08
-1.02212e-09
-9.32855e-08
-1.18774e-09
-9.19297e-08
-1.35578e-09
-9.04043e-08
-1.52541e-09
-8.87086e-08
-1.69569e-09
-8.6843e-08
-1.86562e-09
-8.48089e-08
-2.03411e-09
-8.26089e-08
-2.20001e-09
-8.02468e-08
-2.36212e-09
-7.77276e-08
-2.51916e-09
-7.50578e-08
-2.66984e-09
-7.2245e-08
-2.81282e-09
-6.92982e-08
-2.94674e-09
-6.6228e-08
-3.07024e-09
-6.3046e-08
-3.18196e-09
-5.97654e-08
-3.2806e-09
-5.64006e-08
-3.36486e-09
-5.2967e-08
-3.43354e-09
-4.94815e-08
-3.48549e-09
-4.59618e-08
-3.51968e-09
-4.24267e-08
-3.53517e-09
-3.88955e-08
-3.53115e-09
-3.53885e-08
-3.50697e-09
-3.19264e-08
-3.46211e-09
-2.85302e-08
-3.39623e-09
-2.52211e-08
-3.30913e-09
-2.20202e-08
-3.20081e-09
-1.89488e-08
-3.07145e-09
-1.60274e-08
-2.9214e-09
-1.32762e-08
-2.75117e-09
-1.07147e-08
-2.56148e-09
-8.36153e-09
-2.35322e-09
-6.23403e-09
-2.1275e-09
-4.34838e-09
-1.88565e-09
-2.71909e-09
-1.62929e-09
-1.35863e-09
-1.36046e-09
-2.7685e-10
-1.08178e-09
5.19978e-10
-7.96827e-10
1.03073e-09
-5.10752e-10
1.26211e-09
-2.31387e-10
1.23344e-09
2.86678e-11
9.84765e-10
2.48677e-10
5.91265e-10
3.935e-10
1.90562e-10
4.00702e-10
1.90563e-10
1.4143e-10
-1.94749e-10
4.07634e-10
-4.08507e-10
6.8838e-10
-4.48291e-10
9.00773e-10
-3.57699e-10
9.86026e-10
-1.80158e-10
9.05822e-10
5.15681e-11
6.37596e-10
3.14045e-10
1.70216e-10
5.90776e-10
-4.99219e-10
8.7029e-10
-1.36782e-09
1.14473e-09
-2.4287e-09
1.40873e-09
-3.67225e-09
1.65877e-09
-5.08712e-09
1.89265e-09
-6.66096e-09
2.10909e-09
-8.3809e-09
2.30753e-09
-1.0234e-08
2.48797e-09
-1.22074e-08
2.65074e-09
-1.42889e-08
2.79651e-09
-1.64666e-08
2.92611e-09
-1.87295e-08
3.04054e-09
-2.10673e-08
3.14087e-09
-2.34705e-08
3.22824e-09
-2.59302e-08
3.3038e-09
-2.84388e-08
3.3687e-09
-3.09892e-08
3.42407e-09
-3.3575e-08
3.471e-09
-3.61908e-08
3.51055e-09
-3.8832e-08
3.54371e-09
-4.14942e-08
3.5714e-09
-4.41743e-08
3.5945e-09
-4.68692e-08
3.61382e-09
-4.95767e-08
3.63009e-09
-5.2295e-08
3.644e-09
-5.50227e-08
3.65615e-09
-5.77589e-08
3.66711e-09
-6.0503e-08
3.67736e-09
-6.32548e-08
3.68737e-09
-6.60144e-08
3.69751e-09
-6.8782e-08
3.70814e-09
-7.15583e-08
3.71957e-09
-7.43439e-08
3.73205e-09
-7.71398e-08
3.74582e-09
-7.9947e-08
3.76107e-09
-8.27667e-08
3.77797e-09
-8.56002e-08
3.79666e-09
-8.84489e-08
3.81726e-09
-9.13143e-08
3.83985e-09
-9.41978e-08
3.86451e-09
-9.7101e-08
3.89129e-09
-1.00025e-07
3.92022e-09
-1.02973e-07
3.95131e-09
-1.05944e-07
3.98459e-09
-1.08942e-07
4.02001e-09
-1.11967e-07
4.05757e-09
-1.15021e-07
4.09721e-09
-1.18106e-07
4.13888e-09
-1.21223e-07
4.18251e-09
-1.24373e-07
4.228e-09
-1.27558e-07
4.27526e-09
-1.30778e-07
4.32416e-09
-1.34035e-07
4.37458e-09
-1.3733e-07
4.42636e-09
-1.40664e-07
4.47931e-09
-1.44037e-07
4.53326e-09
-1.4745e-07
4.58799e-09
-1.50903e-07
4.64326e-09
-1.54397e-07
4.69883e-09
-1.57931e-07
4.7544e-09
-1.61505e-07
4.80968e-09
-1.65119e-07
4.86434e-09
-1.68772e-07
4.91801e-09
-1.72462e-07
4.9703e-09
-1.76189e-07
5.02081e-09
-1.7995e-07
5.06908e-09
-1.83744e-07
5.11464e-09
-1.87568e-07
5.15698e-09
-1.91419e-07
5.19555e-09
-1.95294e-07
5.22978e-09
-1.99189e-07
5.25906e-09
-2.03101e-07
5.28274e-09
-2.07023e-07
5.30014e-09
-2.10952e-07
5.31057e-09
-2.14881e-07
5.31326e-09
-2.18804e-07
5.30744e-09
-2.22714e-07
5.29231e-09
-2.26603e-07
5.26702e-09
-2.30463e-07
5.23071e-09
-2.34286e-07
5.1825e-09
-2.38061e-07
5.12147e-09
-2.41779e-07
5.0467e-09
-2.45429e-07
4.95724e-09
-2.48999e-07
4.85215e-09
-2.52477e-07
4.73049e-09
-2.55849e-07
4.5913e-09
-2.59103e-07
4.43365e-09
-2.62223e-07
4.25664e-09
-2.65196e-07
4.05938e-09
-2.68005e-07
3.84102e-09
-2.70634e-07
3.60078e-09
-2.73067e-07
3.33793e-09
-2.75287e-07
3.05181e-09
-2.77276e-07
2.74188e-09
-2.79016e-07
2.40766e-09
-2.80489e-07
2.04882e-09
-2.81677e-07
1.66516e-09
-2.82563e-07
1.25662e-09
-2.83127e-07
8.2332e-10
-2.83352e-07
3.65559e-10
-2.83221e-07
-1.16159e-10
-2.82716e-07
-6.21118e-10
-2.81822e-07
-1.14836e-09
-2.80524e-07
-1.69669e-09
-2.78806e-07
-2.26464e-09
-2.76657e-07
-2.85048e-09
-2.74064e-07
-3.45218e-09
-2.71019e-07
-4.06744e-09
-2.67513e-07
-4.69364e-09
-2.63541e-07
-5.32789e-09
-2.59099e-07
-5.96697e-09
-2.54188e-07
-6.60741e-09
-2.48808e-07
-7.24545e-09
-2.42965e-07
-7.87705e-09
-2.36667e-07
-8.49794e-09
-2.29926e-07
-9.10366e-09
-2.22755e-07
-9.68953e-09
-2.15174e-07
-1.02508e-08
-2.07205e-07
-1.07824e-08
-1.98872e-07
-1.12795e-08
-1.90205e-07
-1.17371e-08
-1.81237e-07
-1.21503e-08
-1.72003e-07
-1.25142e-08
-1.62544e-07
-1.28241e-08
-1.52902e-07
-1.30758e-08
-1.43122e-07
-1.32649e-08
-1.33254e-07
-1.33879e-08
-1.23348e-07
-1.34412e-08
-1.13457e-07
-1.3422e-08
-1.03636e-07
-1.33279e-08
-9.39414e-08
-1.31571e-08
-8.44293e-08
-1.29083e-08
-7.51574e-08
-1.25811e-08
-6.61828e-08
-1.21754e-08
-5.75623e-08
-1.1692e-08
-4.93513e-08
-1.11324e-08
-4.16038e-08
-1.04987e-08
-3.43714e-08
-9.79389e-09
-2.77029e-08
-9.02169e-09
-2.16437e-08
-8.18671e-09
-1.62347e-08
-7.29464e-09
-1.15115e-08
-6.3525e-09
-7.50286e-09
-5.36907e-09
-4.229e-09
-4.35564e-09
-1.6986e-09
-3.32723e-09
9.51576e-11
-2.30451e-09
1.18085e-09
-1.31708e-09
1.6178e-09
-4.08278e-10
1.50952e-09
3.56961e-10
1.02135e-09
8.81662e-10
3.99124e-10
1.02293e-09
5.89685e-10
1.68229e-10
-3.62976e-10
4.49993e-10
-6.90256e-10
7.06038e-10
-7.04351e-10
8.36119e-10
-4.8776e-10
7.66646e-10
-1.10695e-10
4.47034e-10
3.71186e-10
-1.5458e-10
9.15655e-10
-1.05534e-09
1.49153e-09
-2.2612e-09
2.07616e-09
-3.76976e-09
2.65328e-09
-5.57251e-09
3.21147e-09
-7.6566e-09
3.74288e-09
-1.00063e-08
4.24233e-09
-1.26039e-08
4.70669e-09
-1.54307e-08
5.13436e-09
-1.84676e-08
5.5249e-09
-2.16956e-08
5.87872e-09
-2.5096e-08
6.19693e-09
-2.8651e-08
6.48107e-09
-3.23435e-08
6.73304e-09
-3.61576e-08
6.95498e-09
-4.00785e-08
7.14916e-09
-4.40927e-08
7.31795e-09
-4.81877e-08
7.4637e-09
-5.23524e-08
7.58876e-09
-5.65768e-08
7.69541e-09
-6.08521e-08
7.78588e-09
-6.51706e-08
7.86225e-09
-6.95257e-08
7.9265e-09
-7.39118e-08
7.98051e-09
-7.83239e-08
8.02601e-09
-8.27584e-08
8.06458e-09
-8.72121e-08
8.09769e-09
-9.16826e-08
8.12667e-09
-9.61683e-08
8.15275e-09
-1.00668e-07
8.17701e-09
-1.05181e-07
8.20042e-09
-1.09707e-07
8.22386e-09
-1.14247e-07
8.24809e-09
-1.18801e-07
8.27379e-09
-1.23371e-07
8.30156e-09
-1.27957e-07
8.33191e-09
-1.32561e-07
8.36527e-09
-1.37185e-07
8.40203e-09
-1.41831e-07
8.4425e-09
-1.46501e-07
8.48694e-09
-1.51197e-07
8.53555e-09
-1.55921e-07
8.5885e-09
-1.60675e-07
8.64591e-09
-1.65463e-07
8.70785e-09
-1.70286e-07
8.77437e-09
-1.75147e-07
8.84547e-09
-1.80048e-07
8.92112e-09
-1.84992e-07
9.00126e-09
-1.8998e-07
9.08578e-09
-1.95016e-07
9.17456e-09
-2.00101e-07
9.26743e-09
-2.05237e-07
9.3642e-09
-2.10426e-07
9.46462e-09
-2.15671e-07
9.56843e-09
-2.20971e-07
9.67533e-09
-2.2633e-07
9.78495e-09
-2.31748e-07
9.89692e-09
-2.37225e-07
1.00108e-08
-2.42763e-07
1.01261e-08
-2.48362e-07
1.02423e-08
-2.54022e-07
1.03589e-08
-2.59743e-07
1.04751e-08
-2.65524e-07
1.05904e-08
-2.71363e-07
1.0704e-08
-2.7726e-07
1.0815e-08
-2.83213e-07
1.09227e-08
-2.89218e-07
1.1026e-08
-2.95273e-07
1.11241e-08
-3.01374e-07
1.12159e-08
-3.07517e-07
1.13002e-08
-3.13698e-07
1.13758e-08
-3.19909e-07
1.14415e-08
-3.26146e-07
1.1496e-08
-3.32401e-07
1.15378e-08
-3.38667e-07
1.15655e-08
-3.44934e-07
1.15775e-08
-3.51193e-07
1.15722e-08
-3.57433e-07
1.15479e-08
-3.63644e-07
1.15029e-08
-3.69812e-07
1.14354e-08
-3.75925e-07
1.13435e-08
-3.81968e-07
1.12253e-08
-3.87925e-07
1.10789e-08
-3.93781e-07
1.09023e-08
-3.99517e-07
1.06935e-08
-4.05115e-07
1.04505e-08
-4.10556e-07
1.01713e-08
-4.15819e-07
9.85398e-09
-4.20882e-07
9.4965e-09
-4.25722e-07
9.09699e-09
-4.30316e-07
8.65364e-09
-4.3464e-07
8.16472e-09
-4.38668e-07
7.62862e-09
-4.42374e-07
7.04386e-09
-4.45731e-07
6.40917e-09
-4.48713e-07
5.72343e-09
-4.51291e-07
4.98578e-09
-4.53438e-07
4.19562e-09
-4.55125e-07
3.35263e-09
-4.56325e-07
2.45684e-09
-4.57011e-07
1.50862e-09
-4.57154e-07
5.08754e-10
-4.56728e-07
-5.41553e-10
-4.55709e-07
-1.64063e-09
-4.54071e-07
-2.7863e-09
-4.51792e-07
-3.97588e-09
-4.4885e-07
-5.20613e-09
-4.45228e-07
-6.47321e-09
-4.40907e-07
-7.77272e-09
-4.35875e-07
-9.09964e-09
-4.3012e-07
-1.04483e-08
-4.23636e-07
-1.18125e-08
-4.16417e-07
-1.31854e-08
-4.08465e-07
-1.45594e-08
-3.99784e-07
-1.59266e-08
-3.90382e-07
-1.72785e-08
-3.80275e-07
-1.86058e-08
-3.69479e-07
-1.98993e-08
-3.5802e-07
-2.11489e-08
-3.45926e-07
-2.23447e-08
-3.33232e-07
-2.34762e-08
-3.19978e-07
-2.45329e-08
-3.06211e-07
-2.55045e-08
-2.91981e-07
-2.63805e-08
-2.77344e-07
-2.7151e-08
-2.62362e-07
-2.78061e-08
-2.47101e-07
-2.83366e-08
-2.31632e-07
-2.87339e-08
-2.1603e-07
-2.89901e-08
-2.00373e-07
-2.90981e-08
-1.84743e-07
-2.9052e-08
-1.69224e-07
-2.88469e-08
-1.53902e-07
-2.84789e-08
-1.38865e-07
-2.79456e-08
-1.242e-07
-2.7246e-08
-1.09995e-07
-2.63802e-08
-9.63368e-08
-2.53503e-08
-8.33098e-08
-2.41594e-08
-7.0996e-08
-2.28125e-08
-5.94735e-08
-2.13163e-08
-4.88158e-08
-1.96794e-08
-3.90902e-08
-1.79123e-08
-3.03567e-08
-1.60281e-08
-2.26663e-08
-1.40429e-08
-1.60586e-08
-1.19768e-08
-1.05591e-08
-9.85518e-09
-6.17502e-09
-7.71131e-09
-2.8902e-09
-5.58933e-09
-6.57717e-10
-3.54957e-09
6.10032e-10
-1.67603e-09
1.05404e-09
-8.70437e-11
8.8334e-10
1.05236e-09
3.91648e-10
1.51463e-09
9.81331e-10
1.47701e-10
-5.10679e-10
3.62319e-10
-9.04882e-10
4.92566e-10
-8.34581e-10
4.30086e-10
-4.25298e-10
9.5196e-11
2.24196e-10
-5.68174e-10
1.03456e-09
-1.5964e-09
1.94387e-09
-3.00987e-09
2.90501e-09
-4.81635e-09
3.88263e-09
-7.01374e-09
4.85065e-09
-9.59242e-09
5.79016e-09
-1.25373e-08
6.6878e-09
-1.58295e-08
7.5345e-09
-1.94473e-08
8.32451e-09
-2.33676e-08
9.05464e-09
-2.75664e-08
9.72367e-09
-3.20196e-08
1.03319e-08
-3.67034e-08
1.08808e-08
-4.1595e-08
1.13726e-08
-4.66723e-08
1.18103e-08
-5.19146e-08
1.21973e-08
-5.73026e-08
1.25371e-08
-6.28184e-08
1.28337e-08
-6.84456e-08
1.30909e-08
-7.41693e-08
1.33125e-08
-7.99764e-08
1.35025e-08
-8.58549e-08
1.36644e-08
-9.17944e-08
1.38018e-08
-9.77859e-08
1.3918e-08
-1.03822e-07
1.40162e-08
-1.09895e-07
1.40993e-08
-1.16e-07
1.41701e-08
-1.22134e-07
1.42311e-08
-1.28292e-07
1.42845e-08
-1.34471e-07
1.43325e-08
-1.40671e-07
1.43769e-08
-1.4689e-07
1.44194e-08
-1.53128e-07
1.44615e-08
-1.59384e-07
1.45046e-08
-1.6566e-07
1.45499e-08
-1.71957e-07
1.45984e-08
-1.78276e-07
1.46509e-08
-1.84619e-07
1.47084e-08
-1.90989e-07
1.47714e-08
-1.97387e-07
1.48405e-08
-2.03816e-07
1.49162e-08
-2.10279e-07
1.49988e-08
-2.1678e-07
1.50887e-08
-2.2332e-07
1.5186e-08
-2.29903e-07
1.52909e-08
-2.36532e-07
1.54034e-08
-2.4321e-07
1.55236e-08
-2.4994e-07
1.56514e-08
-2.56726e-07
1.57867e-08
-2.63569e-07
1.59294e-08
-2.70474e-07
1.60791e-08
-2.77442e-07
1.62356e-08
-2.84476e-07
1.63985e-08
-2.91579e-07
1.65674e-08
-2.98752e-07
1.67419e-08
-3.05998e-07
1.69214e-08
-3.13319e-07
1.71052e-08
-3.20714e-07
1.72927e-08
-3.28187e-07
1.7483e-08
-3.35736e-07
1.76755e-08
-3.43363e-07
1.7869e-08
-3.51066e-07
1.80626e-08
-3.58847e-07
1.82553e-08
-3.66702e-07
1.84457e-08
-3.74631e-07
1.86326e-08
-3.8263e-07
1.88146e-08
-3.90698e-07
1.89901e-08
-3.98829e-07
1.91576e-08
-4.0702e-07
1.93154e-08
-4.15266e-07
1.94616e-08
-4.2356e-07
1.95942e-08
-4.31896e-07
1.97112e-08
-4.40264e-07
1.98104e-08
-4.48658e-07
1.98894e-08
-4.57066e-07
1.99459e-08
-4.65478e-07
1.99774e-08
-4.73881e-07
1.9981e-08
-4.82263e-07
1.99541e-08
-4.90609e-07
1.98939e-08
-4.98904e-07
1.97972e-08
-5.07129e-07
1.96611e-08
-5.15268e-07
1.94824e-08
-5.23301e-07
1.92578e-08
-5.31206e-07
1.89842e-08
-5.38962e-07
1.86581e-08
-5.46544e-07
1.82761e-08
-5.53929e-07
1.7835e-08
-5.61089e-07
1.73314e-08
-5.67997e-07
1.67621e-08
-5.74624e-07
1.61236e-08
-5.8094e-07
1.5413e-08
-5.86914e-07
1.46273e-08
-5.92513e-07
1.37636e-08
-5.97703e-07
1.28193e-08
-6.02451e-07
1.1792e-08
-6.06722e-07
1.06798e-08
-6.1048e-07
9.48095e-09
-6.13688e-07
8.19411e-09
-6.16311e-07
6.81846e-09
-6.18312e-07
5.35365e-09
-6.19655e-07
3.79992e-09
-6.20304e-07
2.15811e-09
-6.20225e-07
4.29742e-10
-6.19384e-07
-1.38295e-09
-6.17748e-07
-3.27692e-09
-6.15286e-07
-5.2483e-09
-6.11969e-07
-7.29236e-09
-6.07772e-07
-9.40342e-09
-6.0267e-07
-1.15749e-08
-5.96644e-07
-1.3799e-08
-5.89676e-07
-1.60674e-08
-5.81754e-07
-1.83702e-08
-5.7287e-07
-2.06969e-08
-5.6302e-07
-2.30357e-08
-5.52205e-07
-2.53741e-08
-5.40433e-07
-2.76985e-08
-5.27717e-07
-2.99944e-08
-5.14077e-07
-3.22466e-08
-4.99537e-07
-3.44392e-08
-4.8413e-07
-3.65557e-08
-4.67896e-07
-3.8579e-08
-4.5088e-07
-4.04919e-08
-4.33136e-07
-4.22768e-08
-4.14724e-07
-4.39165e-08
-3.95711e-07
-4.53935e-08
-3.76171e-07
-4.66911e-08
-3.56184e-07
-4.77931e-08
-3.35836e-07
-4.86841e-08
-3.15221e-07
-4.93497e-08
-2.94434e-07
-4.97768e-08
-2.73578e-07
-4.99538e-08
-2.5276e-07
-4.98707e-08
-2.32087e-07
-4.95194e-08
-2.11672e-07
-4.88937e-08
-1.91628e-07
-4.79896e-08
-1.72069e-07
-4.68056e-08
-1.53107e-07
-4.53422e-08
-1.34854e-07
-4.3603e-08
-1.17419e-07
-4.15938e-08
-1.00908e-07
-3.93236e-08
-8.54207e-08
-3.6804e-08
-7.10497e-08
-3.40504e-08
-5.78805e-08
-3.10816e-08
-4.59879e-08
-2.79207e-08
-3.54346e-08
-2.45962e-08
-2.62679e-08
-2.11434e-08
-1.85169e-08
-1.76063e-08
-1.21871e-08
-1.4041e-08
-7.25604e-09
-1.05204e-08
-3.66518e-09
-7.14043e-09
-1.31177e-09
-4.02944e-09
-3.80494e-11
-1.36077e-09
3.81092e-10
6.33217e-10
2.51924e-10
1.64379e-09
1.23326e-09
9.83347e-11
-6.09023e-10
1.84889e-10
-9.9141e-10
1.11811e-10
-7.6151e-10
-2.28814e-10
-8.46776e-11
-9.1678e-10
9.12164e-10
-2.00872e-09
2.1265e-09
-3.54183e-09
3.47698e-09
-5.53717e-09
4.90035e-09
-8.0027e-09
6.34815e-09
-1.09358e-08
7.78379e-09
-1.43258e-08
9.18014e-09
-1.81556e-08
1.05176e-08
-2.24037e-08
1.17826e-08
-2.70453e-08
1.29661e-08
-3.20536e-08
1.4063e-08
-3.74008e-08
1.50709e-08
-4.30588e-08
1.59899e-08
-4.89995e-08
1.68215e-08
-5.51958e-08
1.75689e-08
-6.16216e-08
1.82361e-08
-6.8252e-08
1.88277e-08
-7.50638e-08
1.93489e-08
-8.20353e-08
1.98053e-08
-8.91468e-08
2.02024e-08
-9.63802e-08
2.05459e-08
-1.03719e-07
2.08413e-08
-1.11149e-07
2.10942e-08
-1.18657e-07
2.13096e-08
-1.26231e-07
2.14926e-08
-1.33863e-07
2.16479e-08
-1.41544e-07
2.17799e-08
-1.49266e-07
2.18926e-08
-1.57025e-07
2.19898e-08
-1.64815e-07
2.2075e-08
-1.72634e-07
2.21513e-08
-1.80479e-07
2.22216e-08
-1.88348e-07
2.22885e-08
-1.96241e-07
2.23543e-08
-2.04157e-07
2.24211e-08
-2.12098e-07
2.24906e-08
-2.20064e-07
2.25644e-08
-2.28057e-07
2.26441e-08
-2.36079e-07
2.27306e-08
-2.44133e-07
2.28252e-08
-2.52221e-07
2.29286e-08
-2.60347e-07
2.30416e-08
-2.68513e-07
2.31648e-08
-2.76722e-07
2.32985e-08
-2.8498e-07
2.34432e-08
-2.93288e-07
2.35991e-08
-3.01651e-07
2.37662e-08
-3.10072e-07
2.39446e-08
-3.18555e-07
2.41342e-08
-3.27103e-07
2.43349e-08
-3.3572e-07
2.45462e-08
-3.44408e-07
2.4768e-08
-3.53173e-07
2.49996e-08
-3.62015e-07
2.52406e-08
-3.70938e-07
2.54903e-08
-3.79944e-07
2.57479e-08
-3.89035e-07
2.60126e-08
-3.98213e-07
2.62834e-08
-4.0748e-07
2.65592e-08
-4.16835e-07
2.68388e-08
-4.26281e-07
2.71209e-08
-4.35816e-07
2.74041e-08
-4.4544e-07
2.76867e-08
-4.55152e-07
2.79671e-08
-4.64949e-07
2.82433e-08
-4.7483e-07
2.85134e-08
-4.84791e-07
2.87753e-08
-4.94827e-07
2.90265e-08
-5.04934e-07
2.92646e-08
-5.15106e-07
2.94871e-08
-5.25335e-07
2.96909e-08
-5.35614e-07
2.98733e-08
-5.45934e-07
3.00309e-08
-5.56284e-07
3.01605e-08
-5.66653e-07
3.02586e-08
-5.77029e-07
3.03215e-08
-5.87397e-07
3.03453e-08
-5.97742e-07
3.0326e-08
-6.08047e-07
3.02594e-08
-6.18294e-07
3.01412e-08
-6.28464e-07
2.9967e-08
-6.38535e-07
2.9732e-08
-6.48484e-07
2.94317e-08
-6.58288e-07
2.90612e-08
-6.67919e-07
2.86156e-08
-6.77351e-07
2.80899e-08
-6.86554e-07
2.74793e-08
-6.95498e-07
2.67787e-08
-7.0415e-07
2.59833e-08
-7.12476e-07
2.50881e-08
-7.20441e-07
2.40885e-08
-7.28008e-07
2.298e-08
-7.35139e-07
2.17583e-08
-7.41794e-07
2.04192e-08
-7.47934e-07
1.89591e-08
-7.53517e-07
1.73746e-08
-7.585e-07
1.5663e-08
-7.62841e-07
1.38219e-08
-7.66496e-07
1.18496e-08
-7.69423e-07
9.74515e-09
-7.71578e-07
7.50825e-09
-7.72917e-07
5.13952e-09
-7.734e-07
2.64049e-09
-7.72984e-07
1.37183e-11
-7.71629e-07
-2.73721e-09
-7.69299e-07
-5.60748e-09
-7.65956e-07
-8.59108e-09
-7.61568e-07
-1.16807e-08
-7.56103e-07
-1.48677e-08
-7.49536e-07
-1.81419e-08
-7.41844e-07
-2.14918e-08
-7.33007e-07
-2.49045e-08
-7.23011e-07
-2.83654e-08
-7.1185e-07
-3.18586e-08
-6.99519e-07
-3.53667e-08
-6.86022e-07
-3.88708e-08
-6.71369e-07
-4.23508e-08
-6.55579e-07
-4.57853e-08
-6.38673e-07
-4.91517e-08
-6.20686e-07
-5.24264e-08
-6.01657e-07
-5.5585e-08
-5.81633e-07
-5.86024e-08
-5.60672e-07
-6.14532e-08
-5.38837e-07
-6.41116e-08
-5.16202e-07
-6.65519e-08
-4.92847e-07
-6.87488e-08
-4.6886e-07
-7.06776e-08
-4.44339e-07
-7.23143e-08
-4.19387e-07
-7.36365e-08
-3.94113e-07
-7.4623e-08
-3.68635e-07
-7.52547e-08
-3.43075e-07
-7.55144e-08
-3.17558e-07
-7.53875e-08
-2.92215e-07
-7.48622e-08
-2.6718e-07
-7.39295e-08
-2.42586e-07
-7.25837e-08
-2.18568e-07
-7.08226e-08
-1.95263e-07
-6.86476e-08
-1.72802e-07
-6.6064e-08
-1.51315e-07
-6.30812e-08
-1.30926e-07
-5.97128e-08
-1.11752e-07
-5.59771e-08
-9.39053e-08
-5.18976e-08
-7.74836e-08
-4.75033e-08
-6.25744e-08
-4.28299e-08
-4.92499e-08
-3.79208e-08
-3.75639e-08
-3.28293e-08
-2.75488e-08
-2.76214e-08
-1.92107e-08
-2.23791e-08
-1.25246e-08
-1.72066e-08
-7.42789e-09
-1.22371e-08
-3.81363e-09
-7.6437e-09
-1.52233e-09
-3.65207e-09
-3.33423e-10
-5.55689e-10
4.53392e-11
1.26503e-09
1.27859e-09
3.1488e-11
-6.40508e-10
-5.27109e-11
-9.0722e-10
-3.86822e-10
-4.27392e-10
-1.07151e-09
6.00016e-10
-2.18177e-09
2.02242e-09
-3.77098e-09
3.71571e-09
-5.87412e-09
5.58012e-09
-8.51066e-09
7.53688e-09
-1.16871e-08
9.52461e-09
-1.53994e-08
1.14961e-08
-1.96352e-08
1.34159e-08
-2.43752e-08
1.52577e-08
-2.95957e-08
1.7003e-08
-3.5269e-08
1.86394e-08
-4.13655e-08
2.01594e-08
-4.7854e-08
2.15594e-08
-5.47029e-08
2.28388e-08
-6.18808e-08
2.39994e-08
-6.93568e-08
2.5045e-08
-7.71014e-08
2.59807e-08
-8.50863e-08
2.68125e-08
-9.32847e-08
2.75474e-08
-1.01672e-07
2.81926e-08
-1.10225e-07
2.87556e-08
-1.18923e-07
2.92441e-08
-1.27748e-07
2.96655e-08
-1.36681e-07
3.00273e-08
-1.45708e-07
3.03366e-08
-1.54815e-07
3.06001e-08
-1.63992e-07
3.08244e-08
-1.73227e-07
3.10155e-08
-1.82514e-07
3.1179e-08
-1.91844e-07
3.13202e-08
-2.01213e-07
3.14439e-08
-2.10616e-07
3.15545e-08
-2.2005e-07
3.16559e-08
-2.29514e-07
3.17519e-08
-2.39005e-07
3.18456e-08
-2.48524e-07
3.19399e-08
-2.58071e-07
3.20374e-08
-2.67647e-07
3.21404e-08
-2.77253e-07
3.22508e-08
-2.86893e-07
3.23704e-08
-2.96569e-07
3.25006e-08
-3.06283e-07
3.26427e-08
-3.16039e-07
3.27976e-08
-3.2584e-07
3.29662e-08
-3.35691e-07
3.31491e-08
-3.45594e-07
3.33469e-08
-3.55555e-07
3.35599e-08
-3.65577e-07
3.37881e-08
-3.75664e-07
3.40317e-08
-3.8582e-07
3.42904e-08
-3.96049e-07
3.45641e-08
-4.06355e-07
3.48523e-08
-4.16742e-07
3.51545e-08
-4.27212e-07
3.547e-08
-4.3777e-07
3.5798e-08
-4.48417e-07
3.61377e-08
-4.59157e-07
3.64877e-08
-4.69991e-07
3.6847e-08
-4.80922e-07
3.72142e-08
-4.9195e-07
3.75875e-08
-5.03077e-07
3.79655e-08
-5.14302e-07
3.83461e-08
-5.25625e-07
3.87273e-08
-5.37045e-07
3.91068e-08
-5.48561e-07
3.94822e-08
-5.60168e-07
3.98508e-08
-5.71864e-07
4.02097e-08
-5.83645e-07
4.0556e-08
-5.95505e-07
4.08863e-08
-6.07437e-07
4.11971e-08
-6.19435e-07
4.14847e-08
-6.31489e-07
4.17451e-08
-6.4359e-07
4.1974e-08
-6.55726e-07
4.21672e-08
-6.67885e-07
4.23198e-08
-6.80054e-07
4.2427e-08
-6.92216e-07
4.24836e-08
-7.04355e-07
4.24843e-08
-7.16452e-07
4.24234e-08
-7.28488e-07
4.22952e-08
-7.4044e-07
4.20936e-08
-7.52286e-07
4.18125e-08
-7.63999e-07
4.14455e-08
-7.75554e-07
4.09861e-08
-7.8692e-07
4.04277e-08
-7.98068e-07
3.97636e-08
-8.08965e-07
3.89871e-08
-8.19577e-07
3.80913e-08
-8.29868e-07
3.70696e-08
-8.398e-07
3.59153e-08
-8.49334e-07
3.46218e-08
-8.58428e-07
3.31829e-08
-8.67041e-07
3.15924e-08
-8.75127e-07
2.98446e-08
-8.82642e-07
2.79341e-08
-8.89539e-07
2.58562e-08
-8.95771e-07
2.36064e-08
-9.01289e-07
2.11811e-08
-9.06044e-07
1.85775e-08
-9.09988e-07
1.57936e-08
-9.13071e-07
1.28282e-08
-9.15245e-07
9.68138e-09
-9.16459e-07
6.35432e-09
-9.16668e-07
2.84945e-09
-9.15825e-07
-8.29403e-10
-9.13886e-07
-4.67692e-09
-9.10807e-07
-8.68618e-09
-9.06549e-07
-1.28486e-08
-9.01076e-07
-1.71539e-08
-8.94354e-07
-2.15897e-08
-8.86354e-07
-2.61421e-08
-8.77051e-07
-3.07949e-08
-8.66425e-07
-3.55302e-08
-8.54462e-07
-4.03279e-08
-8.41155e-07
-4.5166e-08
-8.26501e-07
-5.00205e-08
-8.10506e-07
-5.48657e-08
-7.93183e-07
-5.96737e-08
-7.74553e-07
-6.44154e-08
-7.54645e-07
-6.90599e-08
-7.33497e-07
-7.3575e-08
-7.11154e-07
-7.79275e-08
-6.87673e-07
-8.20831e-08
-6.63119e-07
-8.60072e-08
-6.37566e-07
-8.96648e-08
-6.11097e-07
-9.3021e-08
-5.83804e-07
-9.60414e-08
-5.5579e-07
-9.86922e-08
-5.27163e-07
-1.00941e-07
-4.98042e-07
-1.02758e-07
-4.68552e-07
-1.04113e-07
-4.38825e-07
-1.04981e-07
-4.09001e-07
-1.05339e-07
-3.79223e-07
-1.05166e-07
-3.49638e-07
-1.04447e-07
-3.20398e-07
-1.0317e-07
-2.91655e-07
-1.01326e-07
-2.63564e-07
-9.89139e-08
-2.36276e-07
-9.59351e-08
-2.09943e-07
-9.23973e-08
-1.84711e-07
-8.83138e-08
-1.60719e-07
-8.37039e-08
-1.38103e-07
-7.85937e-08
-1.16985e-07
-7.30158e-08
-9.74766e-08
-6.70113e-08
-7.96764e-08
-6.063e-08
-6.36648e-08
-5.39324e-08
-4.95022e-08
-4.6992e-08
-3.72254e-08
-3.98981e-08
-2.68439e-08
-3.27607e-08
-1.83345e-08
-2.57159e-08
-1.16376e-08
-1.89341e-08
-6.65091e-09
-1.26304e-08
-3.2251e-09
-7.07788e-09
-1.15828e-09
-2.62251e-09
-1.91254e-10
2.98009e-10
1.08734e-09
-4.59075e-11
-5.94611e-10
-3.29823e-10
-6.23294e-10
-9.66853e-10
2.09643e-10
-2.04547e-09
1.67863e-09
-3.63202e-09
3.60897e-09
-5.77356e-09
5.85725e-09
-8.50035e-09
8.3069e-09
-1.18282e-08
1.08647e-08
-1.57607e-08
1.34571e-08
-2.02912e-08
1.60266e-08
-2.54048e-08
1.85295e-08
-3.10801e-08
2.09329e-08
-3.72905e-08
2.32135e-08
-4.40061e-08
2.5355e-08
-5.11943e-08
2.73476e-08
-5.8821e-08
2.91862e-08
-6.68517e-08
3.08695e-08
-7.5252e-08
3.23997e-08
-8.3988e-08
3.3781e-08
-9.3027e-08
3.50196e-08
-1.02338e-07
3.61232e-08
-1.11891e-07
3.71003e-08
-1.21658e-07
3.79602e-08
-1.31615e-07
3.87122e-08
-1.41737e-07
3.93663e-08
-1.52003e-07
3.9932e-08
-1.62395e-07
4.04188e-08
-1.72894e-07
4.0836e-08
-1.83487e-07
4.11923e-08
-1.94158e-07
4.14962e-08
-2.04898e-07
4.17556e-08
-2.15697e-07
4.19778e-08
-2.26547e-07
4.21697e-08
-2.3744e-07
4.23376e-08
-2.48373e-07
4.24873e-08
-2.59342e-07
4.26241e-08
-2.70342e-07
4.27528e-08
-2.81375e-07
4.28776e-08
-2.92437e-07
4.30025e-08
-3.0353e-07
4.31307e-08
-3.14656e-07
4.32655e-08
-3.25814e-07
4.34092e-08
-3.37008e-07
4.35644e-08
-3.4824e-07
4.37329e-08
-3.59514e-07
4.39164e-08
-3.70833e-07
4.41162e-08
-3.822e-07
4.43336e-08
-3.9362e-07
4.45693e-08
-4.05097e-07
4.4824e-08
-4.16636e-07
4.50981e-08
-4.28239e-07
4.53919e-08
-4.39913e-07
4.57053e-08
-4.51661e-07
4.60383e-08
-4.63487e-07
4.63903e-08
-4.75396e-07
4.67609e-08
-4.87391e-07
4.71494e-08
-4.99475e-07
4.75547e-08
-5.11653e-07
4.79759e-08
-5.23927e-07
4.84116e-08
-5.363e-07
4.88604e-08
-5.48773e-07
4.93205e-08
-5.61349e-07
4.979e-08
-5.74029e-07
5.02669e-08
-5.86812e-07
5.07488e-08
-5.99699e-07
5.12331e-08
-6.12689e-07
5.17171e-08
-6.2578e-07
5.21977e-08
-6.38969e-07
5.26715e-08
-6.52253e-07
5.31352e-08
-6.65628e-07
5.35847e-08
-6.79088e-07
5.4016e-08
-6.92627e-07
5.44248e-08
-7.06236e-07
5.48062e-08
-7.19907e-07
5.51555e-08
-7.33629e-07
5.54671e-08
-7.4739e-07
5.57357e-08
-7.61178e-07
5.59552e-08
-7.74978e-07
5.61195e-08
-7.88773e-07
5.62222e-08
-8.02546e-07
5.62563e-08
-8.16277e-07
5.62149e-08
-8.29944e-07
5.60905e-08
-8.43524e-07
5.58756e-08
-8.56993e-07
5.55623e-08
-8.70323e-07
5.51426e-08
-8.83486e-07
5.4608e-08
-8.9645e-07
5.39503e-08
-9.09183e-07
5.31607e-08
-9.2165e-07
5.22307e-08
-9.33815e-07
5.11515e-08
-9.45638e-07
4.99143e-08
-9.57079e-07
4.85106e-08
-9.68095e-07
4.69318e-08
-9.78643e-07
4.51695e-08
-9.88676e-07
4.32158e-08
-9.98146e-07
4.10629e-08
-1.00701e-06
3.87036e-08
-1.0152e-06
3.61312e-08
-1.02269e-06
3.33397e-08
-1.0294e-06
3.03237e-08
-1.0353e-06
2.7079e-08
-1.04033e-06
2.36021e-08
-1.04442e-06
1.98907e-08
-1.04754e-06
1.59439e-08
-1.04962e-06
1.17621e-08
-1.05061e-06
7.34717e-09
-1.05047e-06
2.70271e-09
-1.04913e-06
-2.16588e-09
-1.04655e-06
-7.2513e-09
-1.0427e-06
-1.25442e-08
-1.03751e-06
-1.8033e-08
-1.03096e-06
-2.3704e-08
-1.02301e-06
-2.95411e-08
-1.01363e-06
-3.55255e-08
-1.00279e-06
-4.16363e-08
-9.90466e-07
-4.78499e-08
-9.76654e-07
-5.414e-08
-9.61342e-07
-6.04781e-08
-9.4453e-07
-6.68329e-08
-9.26224e-07
-7.3171e-08
-9.06441e-07
-7.94566e-08
-8.85205e-07
-8.56516e-08
-8.62549e-07
-9.17163e-08
-8.38515e-07
-9.76092e-08
-8.13155e-07
-1.03287e-07
-7.86532e-07
-1.08706e-07
-7.58717e-07
-1.13822e-07
-7.29793e-07
-1.18589e-07
-6.99851e-07
-1.22962e-07
-6.68995e-07
-1.26898e-07
-6.37335e-07
-1.30352e-07
-6.04993e-07
-1.33283e-07
-5.72098e-07
-1.35652e-07
-5.38789e-07
-1.37422e-07
-5.05212e-07
-1.38559e-07
-4.71518e-07
-1.39033e-07
-4.37866e-07
-1.38818e-07
-4.04418e-07
-1.37895e-07
-3.71341e-07
-1.36247e-07
-3.38803e-07
-1.33864e-07
-3.06973e-07
-1.30744e-07
-2.76018e-07
-1.26889e-07
-2.46105e-07
-1.2231e-07
-2.17394e-07
-1.17025e-07
-1.90041e-07
-1.11058e-07
-1.64191e-07
-1.04444e-07
-1.3998e-07
-9.72264e-08
-1.17532e-07
-8.94595e-08
-9.69536e-08
-8.12082e-08
-7.83346e-08
-7.25515e-08
-6.17425e-08
-6.3584e-08
-4.72209e-08
-5.44197e-08
-3.4785e-08
-4.51966e-08
-2.44185e-08
-3.60824e-08
-1.60699e-08
-2.72826e-08
-9.64959e-09
-1.90507e-08
-5.02655e-09
-1.17009e-08
-2.02747e-09
-5.6216e-09
-4.36763e-10
-1.29269e-09
6.50576e-10
-1.2949e-10
-4.65123e-10
-6.3238e-10
-1.20398e-10
-1.60207e-09
1.17932e-09
-3.11166e-09
3.18823e-09
-5.21603e-09
5.71334e-09
-7.95346e-09
8.59467e-09
-1.13474e-08
1.17008e-08
-1.54082e-08
1.49256e-08
-2.01351e-08
1.8184e-08
-2.55179e-08
2.14094e-08
-3.15384e-08
2.45499e-08
-3.81721e-08
2.75667e-08
-4.539e-08
3.04313e-08
-5.31591e-08
3.31241e-08
-6.14442e-08
3.56327e-08
-7.02087e-08
3.79506e-08
-7.94152e-08
4.00761e-08
-8.90266e-08
4.20111e-08
-9.90064e-08
4.37607e-08
-1.09319e-07
4.53323e-08
-1.19931e-07
4.67351e-08
-1.3081e-07
4.79792e-08
-1.41926e-07
4.90761e-08
-1.53251e-07
5.00373e-08
-1.64759e-07
5.08748e-08
-1.76428e-07
5.16005e-08
-1.88235e-07
5.22262e-08
-2.00163e-07
5.27634e-08
-2.12193e-07
5.3223e-08
-2.24313e-07
5.36155e-08
-2.36508e-07
5.39507e-08
-2.48768e-07
5.4238e-08
-2.61084e-07
5.4486e-08
-2.73449e-07
5.47026e-08
-2.85857e-07
5.48951e-08
-2.98303e-07
5.50703e-08
-3.10784e-07
5.52341e-08
-3.23299e-07
5.53921e-08
-3.35846e-07
5.55492e-08
-3.48424e-07
5.57096e-08
-3.61036e-07
5.58773e-08
-3.73683e-07
5.60556e-08
-3.86366e-07
5.62475e-08
-3.99088e-07
5.64554e-08
-4.11853e-07
5.66816e-08
-4.24665e-07
5.69278e-08
-4.37527e-07
5.71954e-08
-4.50443e-07
5.74855e-08
-4.63418e-07
5.7799e-08
-4.76456e-07
5.81364e-08
-4.89562e-07
5.84981e-08
-5.02741e-07
5.88839e-08
-5.15996e-07
5.92937e-08