/*--------------------------------*- C++ -*----------------------------------*\
  =========                 |
  \\      /  F ield         | OpenFOAM: The Open Source CFD Toolbox
   \\    /   O peration     | Website:  https://openfoam.org
    \\  /    A nd           | Version:  7
     \\/     M anipulation  |
\*---------------------------------------------------------------------------*/
FoamFile
{
    version     2.0;
    format      ascii;
    class       volScalarField;
    location    "0.0625";
    object      p;
}
// * * * * * * * * * * * * * * * * * * * * * * * * * * * * * * * * * * * * * //

dimensions      [0 2 -2 0 0 0 0];

internalField   nonuniform List<scalar> 
12800
(
-7.31145e-07
0.000178926
-0.000912823
-0.0033586
-0.00691205
-0.0113278
-0.0163745
-0.0218408
-0.0275413
-0.033316
-0.0390291
-0.0445653
-0.0498268
-0.0547322
-0.0592133
-0.0632137
-0.0666879
-0.0695992
-0.0719186
-0.0736244
-0.0747008
-0.0751373
-0.0749283
-0.0740721
-0.0725704
-0.0704281
-0.0676531
-0.0642552
-0.0602464
-0.0556404
-0.0504518
-0.0446964
-0.038391
-0.0315534
-0.0242019
-0.016355
-0.0080313
0.000750605
0.00997192
0.0196141
0.029659
0.0400885
0.0508846
0.0620303
0.0735087
0.0853037
0.0973994
0.10978
0.122432
0.135342
0.148494
0.161878
0.17548
0.18929
0.203296
0.217488
0.231856
0.246391
0.261085
0.27593
0.290918
0.306042
0.321295
0.336673
0.352168
0.367777
0.383493
0.399314
0.415234
0.43125
0.447359
0.463558
0.479842
0.496211
0.512661
0.52919
0.545795
0.562475
0.579226
0.596048
0.612938
0.629893
0.646912
0.663991
0.681129
0.698323
0.71557
0.732866
0.750208
0.767593
0.785016
0.802472
0.819957
0.837464
0.854988
0.872522
0.890059
0.90759
0.925107
0.942601
0.96006
0.977475
0.994832
1.01212
1.02933
1.04643
1.06343
1.08029
1.097
1.11355
1.12992
1.14608
1.16201
1.17769
1.1931
1.20821
1.223
1.23744
1.2515
1.26517
1.2784
1.29117
1.30345
1.31522
1.32645
1.3371
1.34715
1.35658
1.36534
1.37343
1.38082
1.38747
1.39338
1.39852
1.40288
1.40644
1.4092
1.41114
1.41228
1.4126
1.41212
1.41085
1.40882
1.40605
1.40257
1.39845
1.39372
1.38846
1.38275
1.37669
1.37038
1.36397
1.35761
1.35148
1.34579
1.34079
1.33675
1.33394
1.33266
1.33283
-0.000181974
1.92201e-06
-0.00100328
-0.0031353
-0.00616887
-0.00992917
-0.0142438
-0.0189435
-0.0238726
-0.0288921
-0.0338804
-0.0387309
-0.0433527
-0.0476676
-0.0516094
-0.0551231
-0.0581625
-0.0606901
-0.0626759
-0.0640965
-0.064934
-0.0651758
-0.0648141
-0.0638447
-0.0622671
-0.0600839
-0.0573002
-0.0539234
-0.0499633
-0.0454311
-0.0403397
-0.0347026
-0.0285346
-0.0218514
-0.0146691
-0.00700463
0.00112529
0.00970342
0.0187125
0.0281356
0.0379558
0.048156
0.0587196
0.0696305
0.080873
0.0924315
0.104291
0.116437
0.128856
0.141534
0.154458
0.167616
0.180997
0.194589
0.208381
0.222364
0.236527
0.250862
0.26536
0.280013
0.294814
0.309755
0.324831
0.340034
0.35536
0.370803
0.386357
0.402018
0.417783
0.433647
0.449605
0.465656
0.481794
0.498018
0.514325
0.530712
0.547175
0.563712
0.580322
0.597001
0.613746
0.630556
0.647427
0.664356
0.681341
0.698379
0.715466
0.732599
0.749773
0.766985
0.78423
0.801503
0.818798
0.83611
0.853432
0.870757
0.888077
0.905385
0.922671
0.939926
0.957139
0.974299
0.991395
1.00841
1.02534
1.04216
1.05886
1.07543
1.09184
1.10808
1.12412
1.13996
1.15556
1.17091
1.18599
1.20077
1.21522
1.22933
1.24306
1.25639
1.2693
1.28176
1.29374
1.30522
1.31616
1.32655
1.33635
1.34554
1.35411
1.36201
1.36924
1.37577
1.38159
1.38668
1.39102
1.3946
1.39743
1.39948
1.40078
1.40131
1.4011
1.40016
1.3985
1.39617
1.3932
1.38963
1.38552
1.38094
1.37597
1.37069
1.36522
1.35968
1.3542
1.34895
1.34411
1.33987
1.33643
1.334
1.33283
1.33299
0.000909882
0.00101335
8.66462e-06
-0.00197486
-0.00472093
-0.0080875
-0.0119357
-0.0161244
-0.020521
-0.0250045
-0.0294659
-0.0338089
-0.037949
-0.0418128
-0.0453379
-0.0484707
-0.0511661
-0.0533871
-0.0551035
-0.0562909
-0.0569307
-0.0570093
-0.0565168
-0.0554479
-0.0538006
-0.0515755
-0.048776
-0.0454079
-0.041479
-0.0369988
-0.0319784
-0.02643
-0.0203667
-0.0138026
-0.00675221
0.000769218
0.00874606
0.0171624
0.0260022
0.0352498
0.0448891
0.0549042
0.0652795
0.0759998
0.0870501
0.0984154
0.110081
0.122034
0.134261
0.146749
0.159484
0.172456
0.185652
0.199063
0.212677
0.226484
0.240475
0.254642
0.268975
0.283467
0.29811
0.312897
0.327822
0.342877
0.358059
0.37336
0.388775
0.404301
0.419932
0.435665
0.451494
0.467417
0.48343
0.499529
0.515712
0.531975
0.548316
0.56473
0.581216
0.597771
0.614392
0.631076
0.647819
0.664619
0.681472
0.698376
0.715326
0.732318
0.749348
0.766412
0.783504
0.800621
0.817755
0.8349
0.852051
0.869199
0.886337
0.903456
0.920548
0.937603
0.95461
0.971558
0.988435
1.00523
1.02193
1.03851
1.05497
1.07129
1.08745
1.10343
1.11922
1.13479
1.15013
1.16521
1.18002
1.19452
1.20871
1.22255
1.23601
1.24909
1.26174
1.27395
1.28569
1.29693
1.30765
1.31783
1.32744
1.33646
1.34486
1.35263
1.35975
1.36619
1.37194
1.37699
1.38133
1.38494
1.38783
1.38998
1.39142
1.39213
1.39213
1.39145
1.3901
1.38812
1.38554
1.3824
1.37877
1.37471
1.37029
1.36559
1.36073
1.3558
1.35093
1.34627
1.34197
1.33818
1.33508
1.33282
1.33165
1.33171
0.0033638
0.00315711
0.00200049
1.21465e-05
-0.0026282
-0.00579657
-0.00937377
-0.0132398
-0.0172804
-0.0213895
-0.0254708
-0.0294375
-0.0332121
-0.0367276
-0.0399249
-0.0427535
-0.0451707
-0.0471404
-0.0486327
-0.0496239
-0.050095
-0.0500316
-0.0494235
-0.0482642
-0.0465504
-0.044282
-0.041461
-0.038092
-0.0341813
-0.0297372
-0.0247693
-0.0192883
-0.0133065
-0.0068366
0.000108179
0.00751384
0.0153658
0.0236492
0.0323494
0.0414513
0.0509398
0.0607999
0.0710169
0.0815764
0.0924638
0.103665
0.115166
0.126954
0.139016
0.15134
0.163912
0.176723
0.18976
0.203013
0.216471
0.230126
0.243967
0.257985
0.272173
0.286523
0.301026
0.315677
0.330467
0.345392
0.360444
0.375619
0.390911
0.406314
0.421826
0.43744
0.453153
0.468961
0.48486
0.500846
0.516917
0.533068
0.549296
0.565599
0.581973
0.598416
0.614923
0.631492
0.648119
0.664802
0.681536
0.698318
0.715144
0.732009
0.74891
0.765841
0.782798
0.799774
0.816764
0.833762
0.85076
0.867751
0.884728
0.901682
0.918603
0.935482
0.952309
0.969072
0.98576
1.00236
1.01886
1.03524
1.05149
1.0676
1.08354
1.09931
1.11487
1.13022
1.14534
1.16019
1.17477
1.18905
1.20301
1.21663
1.22987
1.24273
1.25517
1.26717
1.27871
1.28977
1.30031
1.31032
1.31978
1.32866
1.33694
1.3446
1.35163
1.35801
1.36372
1.36875
1.37309
1.37674
1.37968
1.38193
1.38348
1.38435
1.38454
1.38407
1.38297
1.38127
1.379
1.37621
1.37295
1.36929
1.36528
1.36102
1.35658
1.35208
1.34763
1.34334
1.33935
1.3358
1.33282
1.33056
1.32921
1.32891
0.00694019
0.00621374
0.00476123
0.00265098
-3.81571e-07
-0.00308677
-0.00650522
-0.0101546
-0.0139374
-0.0177617
-0.0215432
-0.0252046
-0.0286766
-0.0318977
-0.0348138
-0.0373779
-0.0395498
-0.0412952
-0.0425856
-0.0433978
-0.0437129
-0.0435167
-0.0427988
-0.0415518
-0.0397718
-0.0374578
-0.034611
-0.0312349
-0.027335
-0.0229181
-0.0179928
-0.0125688
-0.006657
-0.000269061
0.00658279
0.0138855
0.0216256
0.0297894
0.0383632
0.0473326
0.0566833
0.0664014
0.0764729
0.0868839
0.0976204
0.108669
0.120017
0.131651
0.143559
0.155729
0.168149
0.180807
0.193694
0.206798
0.220109
0.233618
0.247316
0.261193
0.275243
0.289456
0.303826
0.318345
0.333006
0.347804
0.362732
0.377784
0.392955
0.408241
0.423635
0.439135
0.454734
0.470429
0.486217
0.502092
0.518052
0.534094
0.550212
0.566405
0.582669
0.599001
0.615397
0.631854
0.648367
0.664935
0.681552
0.698215
0.71492
0.731662
0.748436
0.765238
0.782063
0.798903
0.815754
0.832609
0.84946
0.866301
0.883123
0.899918
0.916677
0.933389
0.950044
0.966632
0.98314
0.999556
1.01587
1.03206
1.04812
1.06403
1.07977
1.09533
1.11069
1.12584
1.14074
1.15539
1.16976
1.18383
1.19758
1.211
1.22404
1.2367
1.24895
1.26077
1.27214
1.28303
1.29341
1.30328
1.3126
1.32136
1.32953
1.33711
1.34406
1.35039
1.35606
1.36108
1.36544
1.36912
1.37213
1.37446
1.37613
1.37713
1.37749
1.37722
1.37634
1.37489
1.3729
1.37041
1.36747
1.36413
1.36047
1.35655
1.35246
1.34829
1.34413
1.34009
1.33629
1.33283
1.32985
1.32745
1.32577
1.32486
0.0114026
0.0100145
0.00815398
0.00582315
0.00306129
-4.20946e-05
-0.0033986
-0.00692391
-0.010536
-0.0141565
-0.0177118
-0.0211343
-0.0243627
-0.0273415
-0.0300217
-0.0323604
-0.03432
-0.0358689
-0.0369802
-0.0376315
-0.0378048
-0.0374862
-0.0366652
-0.0353346
-0.0334899
-0.0311294
-0.0282538
-0.0248657
-0.0209698
-0.0165722
-0.0116804
-0.00630322
-0.000450527
0.0058671
0.0126382
0.0198506
0.0274919
0.0355494
0.0440099
0.05286
0.0620863
0.0716756
0.0816146
0.0918898
0.102488
0.113397
0.124603
0.136095
0.147861
0.159887
0.172165
0.184682
0.197427
0.210391
0.223564
0.236936
0.250499
0.264244
0.278162
0.292246
0.306488
0.320881
0.33542
0.350096
0.364904
0.379839
0.394894
0.410066
0.425348
0.440735
0.456224
0.47181
0.48749
0.503258
0.519111
0.535045
0.551057
0.567143
0.5833
0.599524
0.615811
0.632158
0.648561
0.665017
0.681521
0.698069
0.714656
0.731278
0.747931
0.764608
0.781305
0.798015
0.814733
0.83145
0.848162
0.864859
0.881534
0.898178
0.914782
0.931336
0.94783
0.964252
0.980592
0.996837
1.01297
1.02899
1.04486
1.06059
1.07615
1.09152
1.1067
1.12165
1.13636
1.15082
1.165
1.17889
1.19245
1.20568
1.21855
1.23104
1.24312
1.25478
1.26598
1.27672
1.28697
1.29671
1.30592
1.31457
1.32266
1.33016
1.33706
1.34334
1.349
1.35401
1.35839
1.36211
1.36517
1.36759
1.36937
1.3705
1.37101
1.37092
1.37024
1.369
1.36724
1.365
1.36233
1.35926
1.35588
1.35223
1.34839
1.34445
1.34049
1.33659
1.33287
1.3294
1.32629
1.32365
1.3215
1.31985
0.0165303
0.0143951
0.0120459
0.0094153
0.00645981
0.00325453
-0.000124214
-0.00360777
-0.00712793
-0.0106183
-0.0140159
-0.0172623
-0.0203034
-0.0230903
-0.0255792
-0.027731
-0.0295118
-0.0308924
-0.0318479
-0.0323574
-0.0324041
-0.0319746
-0.0310587
-0.0296495
-0.0277423
-0.0253353
-0.0224286
-0.0190244
-0.0151267
-0.0107409
-0.00587388
-0.000533734
0.00527067
0.0115295
0.0182319
0.0253667
0.0329224
0.0408869
0.0492478
0.0579923
0.067108
0.0765823
0.0864023
0.0965553
0.107029
0.117811
0.128889
0.140251
0.151885
0.163781
0.175927
0.188314
0.200929
0.213763
0.226808
0.240053
0.25349
0.26711
0.280905
0.294867
0.30899
0.323265
0.337687
0.352248
0.366943
0.381765
0.396711
0.411773
0.426947
0.442228
0.457611
0.473092
0.488667
0.504332
0.520082
0.535913
0.551822
0.567805
0.583859
0.599979
0.616161
0.632403
0.6487
0.665047
0.681442
0.697878
0.714353
0.73086
0.747396
0.763954
0.780529
0.797115
0.813705
0.830293
0.846872
0.863434
0.87997
0.896472
0.912932
0.929338
0.945681
0.96195
0.978134
0.99422
1.01019
1.02604
1.04176
1.05731
1.0727
1.08791
1.10291
1.11769
1.13223
1.14652
1.16053
1.17425
1.18765
1.20072
1.21343
1.22576
1.2377
1.24921
1.26029
1.2709
1.28103
1.29066
1.29977
1.30835
1.31636
1.3238
1.33066
1.33691
1.34256
1.34758
1.35197
1.35574
1.35886
1.36136
1.36323
1.36448
1.36513
1.36519
1.36468
1.36363
1.36207
1.36003
1.35757
1.35472
1.35154
1.34809
1.34443
1.34063
1.33678
1.33293
1.32918
1.32561
1.32229
1.31931
1.31661
1.31412
0.0221222
0.0191946
0.016303
0.013313
0.0100992
0.00672387
0.00325354
-0.000256719
-0.00375139
-0.00717516
-0.0104747
-0.0135998
-0.0165039
-0.0191441
-0.0214818
-0.0234823
-0.025115
-0.0263536
-0.0271754
-0.0275614
-0.027496
-0.0269667
-0.0259641
-0.0244815
-0.0225146
-0.0200614
-0.017122
-0.0136982
-0.00979357
-0.00541304
-0.000563022
0.00474918
0.0105152
0.0167258
0.0233709
0.0304402
0.0379226
0.0458068
0.0540808
0.062733
0.0717513
0.0811236
0.0908377
0.100881
0.111243
0.12191
0.132872
0.144116
0.155632
0.167409
0.179435
0.191702
0.204197
0.216912
0.229838
0.242965
0.256285
0.269789
0.283469
0.297318
0.311328
0.325493
0.339804
0.354257
0.368845
0.383561
0.398402
0.41336
0.428431
0.44361
0.458892
0.474273
0.489748
0.505313
0.520964
0.536697
0.552507
0.568391
0.584345
0.600365
0.616447
0.632587
0.648781
0.665025
0.681315
0.697645
0.714011
0.730408
0.746832
0.763277
0.779736
0.796203
0.812673
0.829138
0.845592
0.862026
0.878432
0.894802
0.911126
0.927395
0.943598
0.959725
0.975764
0.991703
1.00753
1.02323
1.03879
1.0542
1.06943
1.08448
1.09933
1.11396
1.12835
1.14248
1.15634
1.16991
1.18317
1.19609
1.20867
1.22087
1.23268
1.24407
1.25503
1.26554
1.27557
1.28512
1.29415
1.30265
1.31061
1.31801
1.32484
1.33107
1.33671
1.34175
1.34617
1.34998
1.35316
1.35574
1.3577
1.35905
1.35982
1.36001
1.35964
1.35875
1.35735
1.35548
1.35318
1.35049
1.34746
1.34415
1.3406
1.33688
1.33305
1.32918
1.32533
1.32156
1.31796
1.31458
1.31128
1.3079
0.0280039
0.0242651
0.0207989
0.0174073
0.0138862
0.0102877
0.00667019
0.00307692
-0.000447923
-0.0038587
-0.00711114
-0.0101628
-0.0129739
-0.0155076
-0.01773
-0.0196111
-0.0211237
-0.0222444
-0.022953
-0.0232323
-0.0230684
-0.0224501
-0.0213686
-0.0198179
-0.0177941
-0.0152955
-0.0123221
-0.00887565
-0.00495952
-0.000578389
0.00426188
0.00955442
0.0152913
0.0214636
0.0280622
0.0350771
0.0424979
0.0503136
0.0585132
0.0670854
0.0760189
0.0853018
0.0949225
0.10487
0.115132
0.125697
0.136554
0.147693
0.159101
0.17077
0.182687
0.194844
0.20723
0.219836
0.232653
0.245671
0.258883
0.27228
0.285853
0.299596
0.313502
0.327562
0.341771
0.356121
0.370608
0.385225
0.399965
0.414825
0.429798
0.44488
0.460066
0.475352
0.490732
0.506202
0.521758
0.537396
0.553111
0.5689
0.584759
0.600683
0.616668
0.632711
0.648807
0.664951
0.68114
0.697368
0.713631
0.729923
0.74624
0.762576
0.778925
0.795281
0.811637
0.827986
0.844322
0.860636
0.87692
0.893166
0.909364
0.925505
0.941579
0.957574
0.97348
0.989285
1.00498
1.02054
1.03596
1.05123
1.06632
1.08124
1.09595
1.11044
1.12469
1.13869
1.15242
1.16586
1.17899
1.1918
1.20425
1.21634
1.22804
1.23933
1.2502
1.26062
1.27057
1.28005
1.28902
1.29747
1.30539
1.31276
1.31957
1.3258
1.33145
1.3365
1.34096
1.34481
1.34805
1.35069
1.35274
1.35419
1.35506
1.35537
1.35512
1.35435
1.35308
1.35134
1.34917
1.34659
1.34367
1.34043
1.33693
1.33322
1.32936
1.3254
1.32139
1.31738
1.31343
1.30961
1.30568
1.3014
0.0340244
0.0294744
0.0254172
0.0215958
0.0177317
0.0138694
0.0100608
0.00633888
0.00273804
-0.000705021
-0.00395383
-0.00697323
-0.00972974
-0.0121921
-0.0143313
-0.0161215
-0.0175393
-0.018564
-0.0191781
-0.0193664
-0.0191167
-0.0184191
-0.0172661
-0.0156524
-0.0135745
-0.0110313
-0.00802284
-0.00455103
-0.000619215
0.0037681
0.00860541
0.013886
0.0196023
0.0257459
0.032308
0.0392793
0.0466495
0.0544084
0.0625454
0.0710498
0.0799105
0.0891162
0.0986559
0.108518
0.118693
0.129168
0.139933
0.150977
0.16229
0.173861
0.185681
0.197738
0.210025
0.222532
0.235249
0.248168
0.26128
0.274578
0.288053
0.301698
0.315506
0.32947
0.343582
0.357838
0.372229
0.386752
0.401399
0.416166
0.431047
0.446037
0.461132
0.476326
0.491616
0.506995
0.522461
0.538008
0.553633
0.569332
0.585099
0.600931
0.616824
0.632774
0.648775
0.664825
0.680917
0.697047
0.713211
0.729404
0.74562
0.761853
0.778098
0.794347
0.810596
0.826836
0.843062
0.859264
0.875434
0.891565
0.907646
0.923668
0.939622
0.955497
0.971281
0.986962
1.00253
1.01797
1.03327
1.04841
1.06338
1.07817
1.09276
1.10713
1.12126
1.13515
1.14876
1.16209
1.17512
1.18781
1.20017
1.21216
1.22377
1.23498
1.24577
1.25613
1.26602
1.27544
1.28437
1.29278
1.30068
1.30803
1.31483
1.32107
1.32673
1.33181
1.33631
1.3402
1.34351
1.34622
1.34834
1.34988
1.35084
1.35124
1.3511
1.35043
1.34926
1.34762
1.34553
1.34304
1.34016
1.33696
1.33346
1.32972
1.32577
1.32167
1.31744
1.31314
1.30882
1.30452
1.29994
1.29477
0.0400554
0.0347054
0.030052
0.0257837
0.0215521
0.0173957
0.0133621
0.00947516
0.00576079
0.00224805
-0.00103371
-0.00405588
-0.00679086
-0.00921252
-0.0112967
-0.0130213
-0.0143666
-0.015315
-0.0158513
-0.0159628
-0.0156389
-0.0148712
-0.0136533
-0.011981
-0.00985175
-0.00726452
-0.00422002
-0.000720314
0.0032312
0.00763007
0.0124708
0.0177469
0.0234508
0.0295748
0.0361104
0.0430482
0.0503786
0.0580919
0.0661778
0.0746259
0.0834255
0.092566
0.102037
0.111827
0.121925
0.132322
0.143006
0.153967
0.165195
0.17668
0.188412
0.200381
0.212579
0.224996
0.237622
0.250451
0.263473
0.27668
0.290065
0.30362
0.317338
0.331212
0.345236
0.359403
0.373706
0.388141
0.402701
0.417381
0.432175
0.447079
0.462087
0.477195
0.492399
0.507692
0.523072
0.538533
0.554072
0.569684
0.585364
0.601109
0.616914
0.632774
0.648686
0.664645
0.680645
0.696683
0.712754
0.728851
0.744971
0.761107
0.777253
0.793403
0.809551
0.825689
0.841811
0.857908
0.873973
0.889997
0.90597
0.921884
0.937728
0.953492
0.969165
0.984734
1.00019
1.01552
1.0307
1.04574
1.0606
1.07528
1.08976
1.10402
1.11806
1.13184
1.14536
1.15859
1.17153
1.18414
1.19641
1.20833
1.21987
1.23102
1.24175
1.25205
1.2619
1.27128
1.28018
1.28858
1.29646
1.30381
1.31062
1.31687
1.32256
1.32767
1.3322
1.33615
1.33952
1.34229
1.34449
1.3461
1.34714
1.34763
1.34757
1.34698
1.34589
1.34432
1.34229
1.33983
1.33698
1.33377
1.33024
1.32641
1.32234
1.31805
1.31358
1.30895
1.30422
1.29944
1.2942
1.28816
0.0459864
0.0398547
0.0346083
0.0298844
0.0252692
0.0207972
0.0165129
0.0124325
0.00857474
0.00496181
0.00161671
-0.0014377
-0.00417916
-0.00658647
-0.00863978
-0.0103209
-0.0116133
-0.0125025
-0.012976
-0.0130232
-0.0126353
-0.0118055
-0.0105288
-0.00880199
-0.00662331
-0.00399249
-0.000910765
0.00261945
0.00659465
0.0110102
0.0158606
0.0211393
0.0268391
0.0329523
0.0394706
0.0463849
0.0536861
0.0613645
0.0694104
0.0778136
0.0865636
0.0956504
0.105064
0.114793
0.124827
0.135157
0.145771
0.156661
0.167815
0.179224
0.190879
0.20277
0.214889
0.227225
0.239771
0.252518
0.265458
0.278584
0.291887
0.305359
0.318995
0.332787
0.346729
0.360814
0.375036
0.389389
0.403868
0.418467
0.43318
0.448003
0.46293
0.477957
0.493079
0.508292
0.52359
0.53897
0.554427
0.569956
0.585554
0.601215
0.616936
0.632712
0.648539
0.664411
0.680325
0.696275
0.712257
0.728265
0.744294
0.760338
0.776391
0.792448
0.808501
0.824544
0.84057
0.85657
0.872536
0.888461
0.904335
0.920149
0.935893
0.951556
0.967128
0.982598
0.997953
1.01318
1.02827
1.0432
1.05797
1.07256
1.08694
1.10112
1.11506
1.12876
1.1422
1.15536
1.16822
1.18076
1.19297
1.20483
1.21632
1.22742
1.23811
1.24837
1.2582
1.26756
1.27644
1.28483
1.29272
1.30008
1.30691
1.31318
1.3189
1.32406
1.32864
1.33264
1.33606
1.33891
1.34117
1.34285
1.34397
1.34452
1.34453
1.34401
1.34298
1.34145
1.33945
1.33701
1.33415
1.33089
1.32729
1.32335
1.31911
1.31461
1.30986
1.30488
1.29974
1.29446
1.28857
1.28168
0.0517222
0.0448316
0.0390007
0.0338187
0.0288108
0.0240088
0.019455
0.0151596
0.0111348
0.00739714
0.00396398
0.000852997
-0.00191841
-0.00433356
-0.0063766
-0.00803298
-0.00928953
-0.0101346
-0.0105581
-0.0105518
-0.0101086
-0.00922367
-0.0078932
-0.00611509
-0.00388857
-0.0012142
0.00190621
0.00546982
0.0094728
0.0139102
0.0187764
0.0240648
0.0297684
0.0358795
0.0423897
0.0492903
0.0565724
0.0642267
0.0722433
0.0806126
0.0893244
0.098369
0.107736
0.117416
0.127397
0.137671
0.148227
0.159056
0.170148
0.181492
0.19308
0.204904
0.216953
0.229219
0.241693
0.254368
0.267235
0.280287
0.293516
0.306915
0.320476
0.334193
0.34806
0.36207
0.376218
0.390496
0.404899
0.419422
0.43406
0.448808
0.46366
0.478611
0.493657
0.508793
0.524015
0.539317
0.554697
0.570148
0.585667
0.60125
0.616891
0.632587
0.648333
0.664124
0.679955
0.695822
0.71172
0.727644
0.743588
0.759546
0.775512
0.791482
0.807447
0.823401
0.839337
0.855247
0.871123
0.886957
0.90274
0.918463
0.934115
0.949688
0.96517
0.98055
0.995816
1.01096
1.02596
1.04081
1.05549
1.07
1.0843
1.0984
1.11228
1.12591
1.13928
1.15238
1.16518
1.17767
1.18984
1.20165
1.2131
1.22417
1.23484
1.24509
1.2549
1.26425
1.27314
1.28154
1.28944
1.29683
1.30368
1.31
1.31576
1.32096
1.3256
1.32966
1.33314
1.33605
1.33837
1.34012
1.34131
1.34193
1.34199
1.34152
1.34052
1.33902
1.33703
1.33457
1.33168
1.32836
1.32465
1.32057
1.31615
1.3114
1.30636
1.30102
1.29545
1.28967
1.28315
1.27545
0.05718
0.0495557
0.0431523
0.0375147
0.0321101
0.0269691
0.022133
0.0176066
0.0133968
0.00951515
0.00597421
0.00278685
-3.38576e-05
-0.00247523
-0.00452523
-0.0061727
-0.00740764
-0.00822113
-0.00860557
-0.00855476
-0.00806385
-0.00712934
-0.00574907
-0.00392206
-0.00164858
0.00106989
0.00423088
0.00783107
0.0118661
0.0163307
0.0212189
0.0265242
0.0322395
0.0383569
0.0448682
0.0517648
0.059038
0.0666784
0.0746765
0.0830228
0.0917076
0.100721
0.110053
0.119695
0.129635
0.139864
0.150373
0.161152
0.172191
0.183481
0.195014
0.206779
0.218768
0.230974
0.243386
0.255998
0.268801
0.281788
0.294951
0.308284
0.321778
0.335429
0.349228
0.36317
0.377249
0.391458
0.405793
0.420247
0.434815
0.449493
0.464274
0.479155
0.494129
0.509194
0.524344
0.539574
0.55488
0.570258
0.585703
0.601211
0.616778
0.632398
0.648068
0.663782
0.679536
0.695325
0.711145
0.726989
0.742853
0.75873
0.774616
0.790503
0.806386
0.822258
0.838111
0.853938
0.869731
0.885482
0.901182
0.916822
0.932393
0.947885
0.963286
0.978587
0.993775
1.00884
1.02377
1.03854
1.05316
1.06759
1.08184
1.09588
1.10969
1.12327
1.13659
1.14964
1.1624
1.17486
1.18699
1.19878
1.21022
1.22127
1.23193
1.24218
1.25199
1.26136
1.27026
1.27869
1.28662
1.29404
1.30094
1.3073
1.31311
1.31837
1.32307
1.32719
1.33074
1.33371
1.3361
1.33792
1.33916
1.33983
1.33994
1.33951
1.33854
1.33705
1.33505
1.33256
1.3296
1.3262
1.32237
1.31812
1.3135
1.3085
1.30314
1.29743
1.29142
1.28515
1.27802
1.26953
0.0622877
0.0539555
0.0469945
0.0409067
0.0351055
0.029621
0.0244944
0.0197258
0.0153177
0.0112774
0.00761319
0.0043338
0.00144832
-0.00103423
-0.00310527
-0.00475685
-0.00598185
-0.00677408
-0.00712832
-0.00704042
-0.00650757
-0.00552789
-0.00410063
-0.00222614
9.41522e-05
0.00285793
0.00606201
0.00970234
0.013774
0.0182713
0.0231881
0.0285176
0.0342525
0.0403848
0.0469064
0.0538087
0.0610829
0.0687197
0.0767099
0.0850442
0.0937129
0.102706
0.112015
0.121629
0.131539
0.141735
0.152207
0.162947
0.173945
0.185191
0.196678
0.208395
0.220335
0.232489
0.244849
0.257407
0.270155
0.283086
0.296192
0.309466
0.322902
0.336492
0.350231
0.364112
0.378129
0.392276
0.406548
0.420939
0.435444
0.450057
0.464773
0.479588
0.494497
0.509495
0.524577
0.53974
0.554978
0.570287
0.585662
0.601101
0.616596
0.632146
0.647743
0.663385
0.679067
0.694783
0.710529
0.726299
0.742088
0.75789
0.7737
0.789512
0.805319
0.821114
0.836891
0.852642
0.868359
0.884034
0.89966
0.915226
0.930724
0.946144
0.961474
0.976706
0.991827
1.00683
1.02169
1.03641
1.05096
1.06535
1.07954
1.09353
1.1073
1.12084
1.13413
1.14715
1.15988
1.17232
1.18444
1.19622
1.20765
1.2187
1.22937
1.23963
1.24947
1.25886
1.2678
1.27626
1.28424
1.2917
1.29866
1.30507
1.31095
1.31628
1.32104
1.32523
1.32885
1.33189
1.33434
1.33622
1.33752
1.33824
1.3384
1.33799
1.33703
1.33554
1.33352
1.33098
1.32795
1.32444
1.32047
1.31605
1.3112
1.30594
1.30026
1.29418
1.28774
1.28098
1.27326
1.26401
0.0669817
0.0579679
0.0504649
0.043935
0.0377403
0.0319112
0.0264894
0.0214714
0.0168558
0.012646
0.00884684
0.00546335
0.00250107
-3.43731e-05
-0.00213757
-0.00380358
-0.00502796
-0.00580702
-0.00613791
-0.00601862
-0.0054481
-0.00442623
-0.00295369
-0.00103215
0.00133579
0.00414689
0.00739714
0.0110817
0.015195
0.019731
0.0246832
0.0300445
0.0358071
0.041963
0.0485041
0.0554218
0.062707
0.0703507
0.0783437
0.0866768
0.0953403
0.104325
0.113621
0.123219
0.133109
0.143283
0.15373
0.164441
0.175408
0.186622
0.198073
0.209753
0.221653
0.233765
0.246082
0.258595
0.271297
0.28418
0.297237
0.310461
0.323845
0.337383
0.351069
0.364896
0.378858
0.392949
0.407164
0.421498
0.435945
0.450499
0.465156
0.479911
0.494759
0.509695
0.524715
0.539815
0.554989
0.570234
0.585544
0.600917
0.616347
0.631829
0.64736
0.662935
0.678548
0.694196
0.709873
0.725573
0.741293
0.757025
0.772765
0.788507
0.804243
0.819969
0.835676
0.851357
0.867006
0.882613
0.898172
0.913672
0.929105
0.944462
0.959731
0.974904
0.989968
1.00491
1.01972
1.03439
1.0489
1.06324
1.0774
1.09135
1.1051
1.11861
1.13187
1.14488
1.15761
1.17004
1.18215
1.19394
1.20538
1.21646
1.22715
1.23744
1.24731
1.25675
1.26573
1.27425
1.28228
1.28981
1.29683
1.30332
1.30927
1.31467
1.3195
1.32377
1.32746
1.33057
1.3331
1.33504
1.3364
1.33717
1.33736
1.33697
1.33602
1.33451
1.33246
1.32987
1.32675
1.32313
1.319
1.3144
1.30932
1.30377
1.29777
1.29132
1.28445
1.27722
1.26892
1.25895
0.0712061
0.0615357
0.0535073
0.0465448
0.0399619
0.0337898
0.0280712
0.0227998
0.0179707
0.013584
0.00964145
0.00614496
0.00309684
0.000499619
-0.00164417
-0.00333229
-0.00456299
-0.00533492
-0.00564743
-0.00550061
-0.00489518
-0.00383264
-0.00231528
-0.000346056
0.00207135
0.00493264
0.00823285
0.0119663
0.0161269
0.0207082
0.0257029
0.0311036
0.0369024
0.043091
0.0496611
0.0566039
0.0639104
0.0715714
0.079578
0.0879206
0.09659
0.105577
0.114871
0.124464
0.134346
0.144508
0.154941
0.165635
0.176582
0.187772
0.199198
0.21085
0.222721
0.234801
0.247084
0.259561
0.272226
0.28507
0.298086
0.311268
0.324609
0.338102
0.351742
0.365521
0.379435
0.393477
0.407642
0.421924
0.436319
0.45082
0.465422
0.480122
0.494915
0.509794
0.524757
0.539798
0.554914
0.570099
0.58535
0.600661
0.616029
0.63145
0.646918
0.66243
0.67798
0.693564
0.709176
0.724812
0.740467
0.756135
0.77181
0.787487
0.803159
0.818821
0.834464
0.850083
0.865669
0.881216
0.896715
0.912157
0.927534
0.942836
0.958054
0.973177
0.988194
1.00309
1.01786
1.0325
1.04697
1.06128
1.07541
1.08935
1.10307
1.11657
1.12983
1.14283
1.15556
1.168
1.18014
1.19195
1.20342
1.21453
1.22526
1.23559
1.24552
1.25501
1.26406
1.27264
1.28074
1.28835
1.29545
1.30202
1.30805
1.31353
1.31846
1.32281
1.32658
1.32977
1.33237
1.33438
1.33579
1.33661
1.33683
1.33646
1.33552
1.33399
1.33189
1.32923
1.32603
1.32228
1.31799
1.31319
1.30788
1.30205
1.29573
1.2889
1.28162
1.27392
1.26506
1.2544
0.0749105
0.0646078
0.0560703
0.0486856
0.0417213
0.03521
0.0291955
0.0236691
0.0186231
0.014055
0.00996364
0.00634806
0.00320781
0.000542668
-0.00164766
-0.00336334
-0.00460503
-0.0053738
-0.00567107
-0.00549883
-0.00485961
-0.00375657
-0.00219355
-0.000174757
0.00229496
0.00521016
0.00856492
0.0123528
0.016567
0.0212004
0.0262453
0.0316938
0.0375375
0.0437682
0.0503769
0.0573549
0.064693
0.0723821
0.080413
0.0887762
0.0974625
0.106462
0.115767
0.125366
0.135251
0.145412
0.155841
0.166529
0.177466
0.188644
0.200055
0.211689
0.22354
0.235598
0.247857
0.260307
0.272943
0.285756
0.29874
0.311888
0.325194
0.33865
0.35225
0.36599
0.379861
0.393861
0.407981
0.422218
0.436566
0.451019
0.465573
0.480224
0.494965
0.509794
0.524704
0.539692
0.554753
0.569883
0.585078
0.600334
0.615645
0.631008
0.646418
0.661871
0.677362
0.692886
0.708439
0.724016
0.739611
0.755219
0.770835
0.786452
0.802066
0.817669
0.833255
0.848817
0.864349
0.879842
0.895288
0.91068
0.926009
0.941265
0.956439
0.971521
0.986501
1.00137
1.01611
1.03071
1.04516
1.05946
1.07357
1.0875
1.10122
1.11472
1.12799
1.141
1.15375
1.16622
1.17838
1.19023
1.20174
1.2129
1.22368
1.23408
1.24407
1.25364
1.26276
1.27143
1.27962
1.28731
1.2945
1.30117
1.3073
1.31288
1.3179
1.32234
1.3262
1.32948
1.33216
1.33423
1.3357
1.33657
1.33683
1.33648
1.33553
1.33398
1.33184
1.32911
1.32581
1.32193
1.31748
1.31248
1.30692
1.30082
1.29417
1.28697
1.27928
1.27113
1.26173
1.25041
0.0780494
0.0671375
0.058107
0.0503108
0.042973
0.0361276
0.0298199
0.0240391
0.0187752
0.0140236
0.0097804
0.00604219
0.00280598
6.90703e-05
-0.00217126
-0.00391771
-0.0051731
-0.00594067
-0.00622392
-0.00602666
-0.00535322
-0.00420842
-0.00259753
-0.000526073
0.00199988
0.00497371
0.00838852
0.0122371
0.016512
0.0212052
0.0263084
0.0318133
0.0377114
0.0439937
0.0506511
0.0576747
0.0650551
0.0727831
0.0808493
0.0892443
0.0979588
0.106983
0.116308
0.125925
0.135824
0.145996
0.156433
0.167124
0.178063
0.189239
0.200645
0.212271
0.224112
0.236157
0.2484
0.260834
0.273449
0.286241
0.299201
0.312323
0.3256
0.339026
0.352595
0.366301
0.380138
0.3941
0.408183
0.42238
0.436687
0.451099
0.46561
0.480216
0.494912
0.509694
0.524556
0.539496
0.554508
0.569588
0.584732
0.599935
0.615193
0.630503
0.645859
0.661258
0.676694
0.692164
0.707662
0.723183
0.738723
0.754277
0.769838
0.785402
0.800962
0.816513
0.832047
0.847559
0.863042
0.878488
0.89389
0.909239
0.924527
0.939745
0.954884
0.969934
0.984885
0.999726
1.01445
1.02903
1.04347
1.05776
1.07187
1.0858
1.09953
1.11305
1.12633
1.13937
1.15216
1.16466
1.17687
1.18877
1.20034
1.21156
1.22242
1.2329
1.24297
1.25262
1.26184
1.2706
1.27889
1.28669
1.29399
1.30076
1.307
1.31269
1.31781
1.32236
1.32633
1.32969
1.33246
1.33461
1.33614
1.33706
1.33736
1.33703
1.33608
1.33451
1.33232
1.32952
1.32612
1.3221
1.31749
1.31229
1.30649
1.30012
1.29315
1.28559
1.27749
1.26891
1.25899
1.24703
0.0805817
0.0690818
0.0595737
0.0513771
0.0436744
0.0365009
0.029904
0.0238712
0.0183906
0.0134552
0.00905929
0.0051971
0.00186336
-0.000946996
-0.00323879
-0.00501706
-0.00628682
-0.00705331
-0.00732189
-0.00709833
-0.00638871
-0.00519938
-0.00353699
-0.0014085
0.0011787
0.00421692
0.00769834
0.0116149
0.0159581
0.0207194
0.0258899
0.0314607
0.0374228
0.0437669
0.0504835
0.0575634
0.064997
0.0727751
0.0808879
0.0893261
0.0980801
0.107141
0.116498
0.126144
0.136068
0.146262
0.156717
0.167423
0.178373
0.189558
0.200969
0.212598
0.224438
0.23648
0.248717
0.261142
0.273747
0.286524
0.299469
0.312572
0.325829
0.339233
0.352777
0.366457
0.380266
0.394198
0.408249
0.422413
0.436685
0.45106
0.465533
0.4801
0.494756
0.509496
0.524316
0.539212
0.554179
0.569213
0.58431
0.599466
0.614676
0.629937
0.645244
0.660592
0.675978
0.691397
0.706844
0.722315
0.737805
0.753308
0.76882
0.784335
0.799847
0.815351
0.83084
0.846308
0.861749
0.877154
0.892517
0.907831
0.923085
0.938273
0.953386
0.968412
0.983344
0.998169
1.01288
1.02746
1.0419
1.05619
1.07031
1.08425
1.098
1.11155
1.12487
1.13795
1.15078
1.16333
1.1756
1.18757
1.19921
1.21051
1.22146
1.23203
1.2422
1.25196
1.26128
1.27016
1.27856
1.28648
1.2939
1.3008
1.30716
1.31297
1.31821
1.32288
1.32695
1.33042
1.33328
1.33551
1.33712
1.3381
1.33843
1.33813
1.33718
1.3356
1.33336
1.33049
1.32698
1.32284
1.31806
1.31266
1.30663
1.29998
1.29269
1.28478
1.27629
1.26728
1.25686
1.24428
0.0824691
0.070401
0.0604302
0.051844
0.0437849
0.0362903
0.0294094
0.0231284
0.0174333
0.0123159
0.00776825
0.00378267
0.000351807
-0.00253147
-0.00487423
-0.00668352
-0.00796636
-0.00872995
-0.00898156
-0.0087288
-0.0079794
-0.0067412
-0.00502234
-0.00283123
-0.000176503
0.00293309
0.00648874
0.0104814
0.0149016
0.0197401
0.0249875
0.0306343
0.0366708
0.0430872
0.049874
0.0570214
0.0645197
0.0723592
0.0805302