/*--------------------------------*- C++ -*----------------------------------*\
  =========                 |
  \\      /  F ield         | OpenFOAM: The Open Source CFD Toolbox
   \\    /   O peration     | Website:  https://openfoam.org
    \\  /    A nd           | Version:  7
     \\/     M anipulation  |
\*---------------------------------------------------------------------------*/
FoamFile
{
    version     2.0;
    format      ascii;
    class       surfaceScalarField;
    location    "0.0625";
    object      phi;
}
// * * * * * * * * * * * * * * * * * * * * * * * * * * * * * * * * * * * * * //

dimensions      [0 3 -1 0 0 0 0];

internalField   nonuniform List<scalar> 
25360
(
1.15801e-10
-1.15697e-10
3.61983e-10
-2.462e-10
6.06183e-10
-2.44194e-10
7.66078e-10
-1.59893e-10
7.98101e-10
-3.20193e-11
6.807e-10
1.17395e-10
4.0533e-10
2.75379e-10
-2.8716e-11
4.34043e-10
-6.17365e-10
5.88638e-10
-1.35364e-09
7.36269e-10
-2.22885e-09
8.75209e-10
-3.23327e-09
1.00443e-09
-4.35664e-09
1.12336e-09
-5.58844e-09
1.23181e-09
-6.91819e-09
1.32974e-09
-8.3355e-09
1.41732e-09
-9.83029e-09
1.49479e-09
-1.13928e-08
1.56248e-09
-1.30136e-08
1.6208e-09
-1.46837e-08
1.67015e-09
-1.63947e-08
1.71099e-09
-1.81385e-08
1.74379e-09
-1.99075e-08
1.76901e-09
-2.16946e-08
1.78713e-09
-2.34933e-08
1.79863e-09
-2.52972e-08
1.80397e-09
-2.71008e-08
1.80361e-09
-2.88989e-08
1.79801e-09
-3.06865e-08
1.78762e-09
-3.24593e-08
1.77283e-09
-3.42134e-08
1.75407e-09
-3.59451e-08
1.73172e-09
-3.76512e-08
1.70615e-09
-3.9329e-08
1.67772e-09
-4.09757e-08
1.64678e-09
-4.25894e-08
1.61366e-09
-4.4168e-08
1.57863e-09
-4.571e-08
1.54199e-09
-4.7214e-08
1.50401e-09
-4.8679e-08
1.46493e-09
-5.01039e-08
1.42497e-09
-5.14883e-08
1.38435e-09
-5.28316e-08
1.34327e-09
-5.41335e-08
1.30191e-09
-5.53939e-08
1.26043e-09
-5.66129e-08
1.21897e-09
-5.77906e-08
1.17767e-09
-5.89272e-08
1.13666e-09
-6.00232e-08
1.09602e-09
-6.10791e-08
1.05587e-09
-6.20954e-08
1.01627e-09
-6.30727e-08
9.77302e-10
-6.40117e-08
9.39026e-10
-6.49132e-08
9.01484e-10
-6.57779e-08
8.64711e-10
-6.66066e-08
8.28738e-10
-6.74002e-08
7.93592e-10
-6.81595e-08
7.59284e-10
-6.88853e-08
7.25815e-10
-6.95785e-08
6.93181e-10
-7.02399e-08
6.61374e-10
-7.08703e-08
6.30382e-10
-7.14705e-08
6.00185e-10
-7.20412e-08
5.70755e-10
-7.25833e-08
5.42062e-10
-7.30974e-08
5.14068e-10
-7.35841e-08
4.86735e-10
-7.40441e-08
4.6002e-10
-7.4478e-08
4.33876e-10
-7.48862e-08
4.08252e-10
-7.52693e-08
3.83094e-10
-7.56277e-08
3.58351e-10
-7.59617e-08
3.33965e-10
-7.62715e-08
3.09871e-10
-7.65575e-08
2.86001e-10
-7.68198e-08
2.62289e-10
-7.70585e-08
2.38669e-10
-7.72736e-08
2.15074e-10
-7.7465e-08
1.91429e-10
-7.76327e-08
1.6766e-10
-7.77763e-08
1.43693e-10
-7.78958e-08
1.19454e-10
-7.79907e-08
9.48731e-11
-7.80606e-08
6.98786e-11
-7.81049e-08
4.43956e-11
-7.81233e-08
1.83476e-11
-7.8115e-08
-8.33927e-12
-7.80792e-08
-3.57352e-11
-7.80153e-08
-6.39091e-11
-7.79224e-08
-9.29315e-11
-7.77995e-08
-1.22873e-10
-7.76457e-08
-1.53803e-10
-7.74599e-08
-1.85786e-10
-7.7241e-08
-2.18883e-10
-7.69879e-08
-2.53149e-10
-7.66992e-08
-2.8864e-10
-7.63738e-08
-3.25405e-10
-7.60103e-08
-3.63489e-10
-7.56074e-08
-4.02931e-10
-7.51636e-08
-4.4376e-10
-7.46776e-08
-4.86001e-10
-7.4148e-08
-5.29669e-10
-7.35732e-08
-5.74771e-10
-7.29519e-08
-6.21306e-10
-7.22826e-08
-6.69263e-10
-7.1564e-08
-7.18618e-10
-7.07947e-08
-7.69336e-10
-6.99733e-08
-8.21369e-10
-6.90986e-08
-8.74657e-10
-6.81695e-08
-9.29127e-10
-6.71848e-08
-9.8469e-10
-6.61436e-08
-1.04124e-09
-6.50449e-08
-1.09866e-09
-6.38881e-08
-1.1568e-09
-6.26726e-08
-1.21551e-09
-6.1398e-08
-1.27459e-09
-6.00642e-08
-1.33387e-09
-5.8671e-08
-1.39311e-09
-5.7219e-08
-1.45207e-09
-5.57085e-08
-1.51049e-09
-5.41404e-08
-1.56809e-09
-5.25158e-08
-1.62455e-09
-5.08363e-08
-1.67956e-09
-4.91035e-08
-1.73275e-09
-4.73198e-08
-1.78377e-09
-4.54875e-08
-1.83223e-09
-4.36098e-08
-1.87773e-09
-4.169e-08
-1.91982e-09
-3.97319e-08
-1.95809e-09
-3.77398e-08
-1.99206e-09
-3.57186e-08
-2.02127e-09
-3.36733e-08
-2.04522e-09
-3.16099e-08
-2.06344e-09
-2.95345e-08
-2.0754e-09
-2.74539e-08
-2.08061e-09
-2.53754e-08
-2.07853e-09
-2.33067e-08
-2.06867e-09
-2.12562e-08
-2.0505e-09
-1.92327e-08
-2.02351e-09
-1.72455e-08
-1.9872e-09
-1.53044e-08
-1.94111e-09
-1.34196e-08
-1.88475e-09
-1.16019e-08
-1.81771e-09
-9.86232e-09
-1.7396e-09
-8.21226e-09
-1.65005e-09
-6.66346e-09
-1.5488e-09
-5.22781e-09
-1.43565e-09
-3.9173e-09
-1.31051e-09
-2.74383e-09
-1.17348e-09
-1.71898e-09
-1.02484e-09
-8.53728e-10
-8.65256e-10
-1.57878e-10
-6.95851e-10
3.60665e-10
-5.18544e-10
6.97164e-10
-3.365e-10
8.52117e-10
-1.54956e-10
8.34761e-10
1.7355e-11
6.689e-10
1.65859e-10
4.03256e-10
2.65643e-10
1.30557e-10
2.727e-10
1.30556e-10
2.47051e-10
-3.62761e-10
6.36877e-10
-6.36001e-10
9.52766e-10
-5.60091e-10
1.04886e-09
-2.56e-10
8.29996e-10
1.86846e-10
2.39884e-10
7.07512e-10
-7.49764e-10
1.26502e-09
-2.14799e-09
1.83228e-09
-3.95073e-09
2.39137e-09
-6.14506e-09
2.9306e-09
-8.71217e-09
3.44232e-09
-1.16294e-08
3.92166e-09
-1.48718e-08
4.36571e-09
-1.84128e-08
4.77284e-09
-2.22255e-08
5.14241e-09
-2.62826e-08
5.47449e-09
-3.05575e-08
5.76959e-09
-3.50236e-08
6.02866e-09
-3.96557e-08
6.25288e-09
-4.44292e-08
6.4436e-09
-4.93205e-08
6.60236e-09
-5.43075e-08
6.73076e-09
-5.9369e-08
6.83044e-09
-6.4485e-08
6.90315e-09
-6.9637e-08
6.95058e-09
-7.48074e-08
6.97443e-09
-7.99802e-08
6.97641e-09
-8.51404e-08
6.95821e-09
-9.02743e-08
6.92143e-09
-9.53691e-08
6.86766e-09
-1.00413e-07
6.79845e-09
-1.05397e-07
6.71527e-09
-1.1031e-07
6.61951e-09
-1.15145e-07
6.51254e-09
-1.19894e-07
6.39567e-09
-1.24551e-07
6.27012e-09
-1.29109e-07
6.13703e-09
-1.33564e-07
5.99751e-09
-1.37913e-07
5.85257e-09
-1.42151e-07
5.70317e-09
-1.46276e-07
5.55017e-09
-1.50287e-07
5.39441e-09
-1.5418e-07
5.23666e-09
-1.57956e-07
5.0776e-09
-1.61613e-07
4.91787e-09
-1.65152e-07
4.75805e-09
-1.68573e-07
4.59866e-09
-1.71877e-07
4.44018e-09
-1.75064e-07
4.28301e-09
-1.78135e-07
4.12753e-09
-1.81093e-07
3.97405e-09
-1.83939e-07
3.82286e-09
-1.86674e-07
3.67419e-09
-1.89301e-07
3.52823e-09
-1.91821e-07
3.38513e-09
-1.94237e-07
3.24501e-09
-1.96552e-07
3.10797e-09
-1.98766e-07
2.97406e-09
-2.00884e-07
2.84331e-09
-2.02906e-07
2.71571e-09
-2.04836e-07
2.59122e-09
-2.06676e-07
2.46982e-09
-2.08427e-07
2.35141e-09
-2.10092e-07
2.2359e-09
-2.11673e-07
2.12318e-09
-2.13172e-07
2.01311e-09
-2.14591e-07
1.90554e-09
-2.15931e-07
1.80033e-09
-2.17195e-07
1.69727e-09
-2.18383e-07
1.59619e-09
-2.19496e-07
1.49688e-09
-2.20537e-07
1.39912e-09
-2.21506e-07
1.30271e-09
-2.22403e-07
1.20738e-09
-2.2323e-07
1.11291e-09
-2.23987e-07
1.01903e-09
-2.24674e-07
9.2549e-10
-2.25291e-07
8.32018e-10
-2.25838e-07
7.38344e-10
-2.26314e-07
6.44186e-10
-2.2672e-07
5.49264e-10
-2.27054e-07
4.53298e-10
-2.27315e-07
3.56012e-10
-2.27502e-07
2.57124e-10
-2.27614e-07
1.56351e-10
-2.27649e-07
5.34093e-11
-2.27605e-07
-5.19799e-11
-2.27481e-07
-1.60091e-10
-2.27274e-07
-2.71192e-10
-2.26981e-07
-3.85553e-10
-2.26601e-07
-5.03433e-10
-2.26129e-07
-6.25088e-10
-2.25564e-07
-7.5076e-10
-2.24903e-07
-8.80679e-10
-2.24141e-07
-1.01506e-09
-2.23275e-07
-1.1541e-09
-2.22303e-07
-1.29798e-09
-2.21219e-07
-1.44686e-09
-2.20021e-07
-1.60089e-09
-2.18705e-07
-1.76017e-09
-2.17266e-07
-1.92478e-09
-2.15701e-07
-2.09479e-09
-2.14006e-07
-2.2702e-09
-2.12176e-07
-2.451e-09
-2.10208e-07
-2.63714e-09
-2.08098e-07
-2.82851e-09
-2.05842e-07
-3.02497e-09
-2.03438e-07
-3.22633e-09
-2.0088e-07
-3.43234e-09
-1.98166e-07
-3.6427e-09
-1.95294e-07
-3.85707e-09
-1.9226e-07
-4.07501e-09
-1.89063e-07
-4.29606e-09
-1.857e-07
-4.51965e-09
-1.8217e-07
-4.74517e-09
-1.78473e-07
-4.97191e-09
-1.74608e-07
-5.19909e-09
-1.70575e-07
-5.42588e-09
-1.66376e-07
-5.65132e-09
-1.62012e-07
-5.87443e-09
-1.57486e-07
-6.09409e-09
-1.52801e-07
-6.30914e-09
-1.47962e-07
-6.51832e-09
-1.42975e-07
-6.72031e-09
-1.37845e-07
-6.9137e-09
-1.3258e-07
-7.09701e-09
-1.27189e-07
-7.2687e-09
-1.21682e-07
-7.42716e-09
-1.16069e-07
-7.57071e-09
-1.10364e-07
-7.69761e-09
-1.04579e-07
-7.8061e-09
-9.87297e-08
-7.89434e-09
-9.28327e-08
-7.96048e-09
-8.69054e-08
-8.00263e-09
-8.09672e-08
-8.01889e-09
-7.50384e-08
-8.00735e-09
-6.91409e-08
-7.96612e-09
-6.32981e-08
-7.89331e-09
-5.75345e-08
-7.7871e-09
-5.1876e-08
-7.64571e-09
-4.63497e-08
-7.46744e-09
-4.09837e-08
-7.25072e-09
-3.58073e-08
-6.99411e-09
-3.08505e-08
-6.69636e-09
-2.61441e-08
-6.35645e-09
-2.17193e-08
-5.97368e-09
-1.76072e-08
-5.54775e-09
-1.38388e-08
-5.07891e-09
-1.04441e-08
-4.56814e-09
-7.45151e-09
-4.01743e-09
-4.88656e-09
-3.4302e-09
-2.77048e-09
-2.81193e-09
-1.11795e-09
-2.17107e-09
6.61402e-11
-1.52059e-09
7.91424e-10
-8.80239e-10
1.08895e-09
-2.80165e-10
1.02106e-09
2.33751e-10
6.94255e-10
5.92442e-10
2.72707e-10
6.94245e-10
4.03265e-10
2.46655e-10
-6.0941e-10
5.65092e-10
-9.54448e-10
6.99614e-10
-6.94611e-10
4.76805e-10
-3.31906e-11
-2.22735e-10
8.86376e-10
-1.47477e-09
1.95952e-09
-3.32116e-09
3.11142e-09
-5.77851e-09
4.28962e-09
-8.84487e-09
5.45772e-09
-1.25049e-08
6.59066e-09
-1.6734e-08
7.67135e-09
-2.15007e-08
8.68842e-09
-2.67696e-08
9.63453e-09
-3.2502e-08
1.05053e-08
-3.86582e-08
1.12986e-08
-4.51975e-08
1.20137e-08
-5.20792e-08
1.26513e-08
-5.92632e-08
1.32127e-08
-6.67106e-08
1.37002e-08
-7.43832e-08
1.41163e-08
-8.22448e-08
1.44639e-08
-9.02603e-08
1.47463e-08
-9.83967e-08
1.49669e-08
-1.06623e-07
1.51291e-08
-1.14909e-07
1.52366e-08
-1.23227e-07
1.52929e-08
-1.31553e-07
1.53017e-08
-1.39861e-07
1.52663e-08
-1.4813e-07
1.51904e-08
-1.56339e-07
1.50773e-08
-1.64471e-07
1.49302e-08
-1.72508e-07
1.47524e-08
-1.80436e-07
1.4547e-08
-1.8824e-07
1.43167e-08
-1.95909e-07
1.40645e-08
-2.03432e-07
1.3793e-08
-2.10799e-07
1.35048e-08
-2.18004e-07
1.32021e-08
-2.25039e-07
1.28872e-08
-2.31898e-07
1.25622e-08
-2.38576e-07
1.22291e-08
-2.45072e-07
1.18895e-08
-2.5138e-07
1.15453e-08
-2.57501e-07
1.11979e-08
-2.63432e-07
1.08488e-08
-2.69173e-07
1.04992e-08
-2.74724e-07
1.01502e-08
-2.80087e-07
9.80294e-09
-2.85262e-07
9.45831e-09
-2.90252e-07
9.11712e-09
-2.95058e-07
8.78008e-09
-2.99683e-07
8.44783e-09
-3.0413e-07
8.12088e-09
-3.08401e-07
7.79967e-09
-3.125e-07
7.48454e-09
-3.16431e-07
7.17578e-09
-3.20197e-07
6.87359e-09
-3.23801e-07
6.5781e-09
-3.27247e-07
6.28936e-09
-3.30539e-07
6.0074e-09
-3.3368e-07
5.73215e-09
-3.36673e-07
5.46353e-09
-3.39523e-07
5.20137e-09
-3.42233e-07
4.94547e-09
-3.44805e-07
4.69558e-09
-3.47244e-07
4.45141e-09
-3.49551e-07
4.21266e-09
-3.51729e-07
3.97898e-09
-3.53782e-07
3.74997e-09
-3.55711e-07
3.52521e-09
-3.57518e-07
3.30428e-09
-3.59206e-07
3.0867e-09
-3.60775e-07
2.87199e-09
-3.62228e-07
2.65964e-09
-3.63564e-07
2.4491e-09
-3.64785e-07
2.23984e-09
-3.6589e-07
2.03128e-09
-3.66881e-07
1.82286e-09
-3.67757e-07
1.61397e-09
-3.68517e-07
1.40402e-09
-3.6916e-07
1.1924e-09
-3.69685e-07
9.785e-10
-3.70091e-07
7.6171e-10
-3.70375e-07
5.4142e-10
-3.70536e-07
3.17013e-10
-3.7057e-07
8.78789e-11
-3.70475e-07
-1.46589e-10
-3.70249e-07
-3.86986e-10
-3.69886e-07
-6.33899e-10
-3.69384e-07
-8.87904e-10
-3.68737e-07
-1.14956e-09
-3.67943e-07
-1.41942e-09
-3.66996e-07
-1.69799e-09
-3.65891e-07
-1.98576e-09
-3.64623e-07
-2.28321e-09
-3.63186e-07
-2.59073e-09
-3.61575e-07
-2.90873e-09
-3.59785e-07
-3.23754e-09
-3.57808e-07
-3.57745e-09
-3.55639e-07
-3.92869e-09
-3.53273e-07
-4.29143e-09
-3.50702e-07
-4.66576e-09
-3.4792e-07
-5.05172e-09
-3.44922e-07
-5.44925e-09
-3.41701e-07
-5.85821e-09
-3.38251e-07
-6.27837e-09
-3.34567e-07
-6.70941e-09
-3.30642e-07
-7.15088e-09
-3.26472e-07
-7.60222e-09
-3.22052e-07
-8.06277e-09
-3.17377e-07
-8.53174e-09
-3.12444e-07
-9.00819e-09
-3.07249e-07
-9.49106e-09
-3.0179e-07
-9.97913e-09
-2.96064e-07
-1.0471e-08
-2.90071e-07
-1.09652e-08
-2.8381e-07
-1.14599e-08
-2.77282e-07
-1.19534e-08
-2.7049e-07
-1.24435e-08
-2.63436e-07
-1.29282e-08
-2.56126e-07
-1.34049e-08
-2.48563e-07
-1.38712e-08
-2.40757e-07
-1.43243e-08
-2.32716e-07
-1.47614e-08
-2.24451e-07
-1.51794e-08
-2.15973e-07
-1.5575e-08
-2.07296e-07
-1.59451e-08
-1.98438e-07
-1.6286e-08
-1.89414e-07
-1.65941e-08
-1.80246e-07
-1.68658e-08
-1.70955e-07
-1.70972e-08
-1.61565e-07
-1.72844e-08
-1.52102e-07
-1.74234e-08
-1.42594e-07
-1.75102e-08
-1.33072e-07
-1.75408e-08
-1.23568e-07
-1.75111e-08
-1.14117e-07
-1.74172e-08
-1.04756e-07
-1.7255e-08
-9.5522e-08
-1.70208e-08
-8.64566e-08
-1.6711e-08
-7.76019e-08
-1.63221e-08
-6.90016e-08
-1.5851e-08
-6.07008e-08
-1.52949e-08
-5.27457e-08
-1.46515e-08
-4.51832e-08
-1.3919e-08
-3.80605e-08
-1.30964e-08
-3.14244e-08
-1.21839e-08
-2.53207e-08
-1.11826e-08
-1.97931e-08
-1.00957e-08
-1.48821e-08
-8.92842e-09
-1.06231e-08
-7.68928e-09
-7.04382e-09
-6.39116e-09
-4.1618e-09
-5.05309e-09
-1.97952e-09
-3.70287e-09
-4.78949e-10
-2.38081e-09
3.86101e-10
-1.14521e-09
6.99714e-10
-7.98608e-11
5.95064e-10
6.97094e-10
2.66488e-10
1.02282e-09
6.69754e-10
1.64119e-10
-7.73539e-10
2.65601e-10
-1.05592e-09
4.54433e-11
-4.74451e-10
-6.76354e-10
6.88615e-10
-2.02637e-09
2.23638e-09
-4.08774e-09
4.02091e-09
-6.90863e-09
5.9323e-09
-1.05096e-08
7.89057e-09
-1.48899e-08
9.83806e-09
-2.00329e-08
1.17336e-08
-2.59098e-08
1.35483e-08
-3.24833e-08
1.52619e-08
-3.97098e-08
1.68611e-08
-4.75419e-08
1.83374e-08
-5.59294e-08
1.96861e-08
-6.48209e-08
2.09052e-08
-7.41644e-08
2.19948e-08
-8.39084e-08
2.29568e-08
-9.40022e-08
2.3794e-08
-1.04397e-07
2.45106e-08
-1.15044e-07
2.5111e-08
-1.25898e-07
2.56003e-08
-1.36915e-07
2.59842e-08
-1.48054e-07
2.62682e-08
-1.59276e-07
2.64583e-08
-1.70543e-07
2.65605e-08
-1.81822e-07
2.65808e-08
-1.93081e-07
2.6525e-08
-2.0429e-07
2.63991e-08
-2.15421e-07
2.62087e-08
-2.26451e-07
2.59596e-08
-2.37355e-07
2.5657e-08
-2.48114e-07
2.53062e-08
-2.5871e-07
2.49122e-08
-2.69125e-07
2.44798e-08
-2.79346e-07
2.40136e-08
-2.89359e-07
2.35179e-08
-2.99153e-07
2.29968e-08
-3.0872e-07
2.24542e-08
-3.18052e-07
2.18936e-08
-3.27141e-07
2.13183e-08
-3.35983e-07
2.07316e-08
-3.44574e-07
2.01364e-08
-3.52911e-07
1.95352e-08
-3.60993e-07
1.89305e-08
-3.68818e-07
1.83246e-08
-3.76388e-07
1.77194e-08
-3.83701e-07
1.71168e-08
-3.90761e-07
1.65183e-08
-3.9757e-07
1.59255e-08
-4.04129e-07
1.53396e-08
-4.10443e-07
1.47617e-08
-4.16515e-07
1.41926e-08
-4.22348e-07
1.36332e-08
-4.27948e-07
1.3084e-08
-4.33318e-07
1.25457e-08
-4.38463e-07
1.20185e-08
-4.43387e-07
1.15027e-08
-4.48096e-07
1.09984e-08
-4.52595e-07
1.05057e-08
-4.56887e-07
1.00244e-08
-4.60978e-07
9.55443e-09
-4.64872e-07
9.09552e-09
-4.68574e-07
8.64732e-09
-4.72088e-07
8.20941e-09
-4.75418e-07
7.78132e-09
-4.78567e-07
7.36251e-09
-4.81541e-07
6.95236e-09
-4.84341e-07
6.55022e-09
-4.86971e-07
6.15538e-09
-4.89434e-07
5.76707e-09
-4.91732e-07
5.38451e-09
-4.93867e-07
5.00685e-09
-4.9584e-07
4.6332e-09
-4.97654e-07
4.26264e-09
-4.99308e-07
3.89425e-09
-5.00804e-07
3.52705e-09
-5.02141e-07
3.16004e-09
-5.03319e-07
2.79222e-09
-5.04338e-07
2.42254e-09
-5.05195e-07
2.04996e-09
-5.0589e-07
1.67344e-09
-5.06421e-07
1.29192e-09
-5.06783e-07
9.04352e-10
-5.06976e-07
5.09669e-10
-5.06995e-07
1.06824e-10
-5.06836e-07
-3.05223e-10
-5.06496e-07
-7.27498e-10
-5.05969e-07
-1.16101e-09
-5.0525e-07
-1.60673e-09
-5.04334e-07
-2.06563e-09
-5.03215e-07
-2.53864e-09
-5.01886e-07
-3.02662e-09
-5.00341e-07
-3.53043e-09
-4.98574e-07
-4.05082e-09
-4.96576e-07
-4.58852e-09
-4.94341e-07
-5.14418e-09
-4.9186e-07
-5.71835e-09
-4.89126e-07
-6.31152e-09
-4.8613e-07
-6.92407e-09
-4.82865e-07
-7.55626e-09
-4.79323e-07
-8.20826e-09
-4.75495e-07
-8.88008e-09
-4.71372e-07
-9.57161e-09
-4.66948e-07
-1.02826e-08
-4.62214e-07
-1.10126e-08
-4.57162e-07
-1.17611e-08
-4.51786e-07
-1.25272e-08
-4.46078e-07
-1.33099e-08
-4.40033e-07
-1.41082e-08
-4.33644e-07
-1.49206e-08
-4.26907e-07
-1.57454e-08
-4.19817e-07
-1.65808e-08
-4.12371e-07
-1.74246e-08
-4.04568e-07
-1.82746e-08
-3.96405e-07
-1.91279e-08
-3.87883e-07
-1.99817e-08
-3.79004e-07
-2.08327e-08
-3.6977e-07
-2.16774e-08
-3.60186e-07
-2.25121e-08
-3.50259e-07
-2.33325e-08
-3.39996e-07
-2.41344e-08
-3.29407e-07
-2.4913e-08
-3.18505e-07
-2.56634e-08
-3.07304e-07
-2.63803e-08
-2.95821e-07
-2.70584e-08
-2.84074e-07
-2.76917e-08
-2.72085e-07
-2.82744e-08
-2.59879e-07
-2.88004e-08
-2.47482e-07
-2.92631e-08
-2.34923e-07
-2.96562e-08
-2.22234e-07
-2.99729e-08
-2.09451e-07
-3.02066e-08
-1.96611e-07
-3.03504e-08
-1.83754e-07
-3.03975e-08
-1.70924e-07
-3.03412e-08
-1.58167e-07
-3.01747e-08
-1.4553e-07
-2.98915e-08
-1.33066e-07
-2.94854e-08
-1.20827e-07
-2.89504e-08
-1.08868e-07
-2.82809e-08
-9.72468e-08
-2.7472e-08
-8.60223e-08
-2.65194e-08
-7.52541e-08
-2.54197e-08
-6.50025e-08
-2.41705e-08
-5.5328e-08
-2.27709e-08
-4.62899e-08
-2.1222e-08
-3.79458e-08
-1.95268e-08
-3.03498e-08
-1.76917e-08
-2.35514e-08
-1.57268e-08
-1.75928e-08
-1.36479e-08
-1.25065e-08
-1.14775e-08
-8.31147e-09
-9.24813e-09
-5.00875e-09
-7.00559e-09
-2.57576e-09
-4.8138e-09
-9.59236e-10
-2.76174e-09
-6.68382e-11
-9.72259e-10
2.4227e-10
3.87987e-10
1.68692e-10
1.09639e-09
8.38446e-10
3.79207e-11
-8.11462e-10
-1.73576e-10
-8.44415e-10
-8.69372e-10
2.2133e-10
-2.21935e-09
2.03861e-09
-4.34518e-09
4.36223e-09
-7.32838e-09
7.0041e-09
-1.12169e-08
9.82079e-09
-1.60312e-08
1.27049e-08
-2.177e-08
1.55769e-08
-2.84145e-08
1.83781e-08
-3.59325e-08
2.10663e-08
-4.42819e-08
2.36112e-08
-5.34129e-08
2.59921e-08
-6.32707e-08
2.81953e-08
-7.37972e-08
3.02126e-08
-8.4932e-08
3.204e-08
-9.6614e-08
3.36768e-08
-1.08782e-07
3.51248e-08
-1.21376e-07
3.63877e-08
-1.34336e-07
3.74706e-08
-1.47605e-07
3.83801e-08
-1.61128e-07
3.91232e-08
-1.74852e-07
3.97079e-08
-1.88726e-07
4.01423e-08
-2.02703e-07
4.04352e-08
-2.16737e-07
4.05951e-08
-2.30787e-07
4.0631e-08
-2.44814e-07
4.05517e-08
-2.58781e-07
4.03657e-08
-2.72654e-07
4.00818e-08
-2.86402e-07
3.97082e-08
-2.99999e-07
3.92531e-08
-3.13417e-07
3.87244e-08
-3.26634e-07
3.81295e-08
-3.3963e-07
3.74757e-08
-3.52386e-07
3.67699e-08
-3.64887e-07
3.60186e-08
-3.77118e-07
3.52282e-08
-3.89068e-07
3.44043e-08
-4.00727e-07
3.35525e-08
-4.12087e-07
3.26779e-08
-4.2314e-07
3.17852e-08
-4.33883e-07
3.08788e-08
-4.44311e-07
2.99629e-08
-4.54421e-07
2.90412e-08
-4.64214e-07
2.8117e-08
-4.73688e-07
2.71934e-08
-4.82844e-07
2.62733e-08
-4.91685e-07
2.5359e-08
-5.00212e-07
2.44529e-08
-5.08429e-07
2.35568e-08
-5.1634e-07
2.26725e-08
-5.23949e-07
2.18013e-08
-5.3126e-07
2.09444e-08
-5.38279e-07
2.01029e-08
-5.45011e-07
1.92775e-08
-5.51461e-07
1.84688e-08
-5.57636e-07
1.76772e-08
-5.6354e-07
1.69029e-08
-5.69181e-07
1.61459e-08
-5.74562e-07
1.54062e-08
-5.79691e-07
1.46835e-08
-5.84573e-07
1.39774e-08
-5.89213e-07
1.32875e-08
-5.93617e-07
1.26131e-08
-5.97789e-07
1.19536e-08
-6.01735e-07
1.1308e-08
-6.05458e-07
1.06755e-08
-6.08963e-07
1.00551e-08
-6.12253e-07
9.44568e-09
-6.15332e-07
8.84614e-09
-6.18203e-07
8.25525e-09
-6.20868e-07
7.67173e-09
-6.23329e-07
7.09426e-09
-6.25588e-07
6.52144e-09
-6.27645e-07
5.95185e-09
-6.29502e-07
5.38403e-09
-6.31159e-07
4.81648e-09
-6.32614e-07
4.24765e-09
-6.33868e-07
3.67598e-09
-6.34918e-07
3.0999e-09
-6.35762e-07
2.51781e-09
-6.36398e-07
1.92813e-09
-6.36823e-07
1.32925e-09
-6.37033e-07
7.19563e-10
-6.37024e-07
9.74842e-11
-6.3679e-07
-5.38559e-10
-6.36328e-07
-1.19011e-09
-6.3563e-07
-1.8587e-09
-6.34691e-07
-2.5458e-09
-6.33504e-07
-3.25286e-09
-6.32061e-07
-3.98126e-09
-6.30355e-07
-4.73233e-09
-6.28379e-07
-5.5073e-09
-6.26122e-07
-6.30735e-09
-6.23577e-07
-7.13353e-09
-6.20734e-07
-7.9868e-09
-6.17585e-07
-8.86801e-09
-6.14118e-07
-9.77784e-09
-6.10326e-07
-1.07169e-08
-6.06196e-07
-1.16854e-08
-6.01721e-07
-1.26838e-08
-5.96889e-07
-1.3712e-08
-5.91691e-07
-1.47697e-08
-5.86117e-07
-1.58566e-08
-5.80158e-07
-1.6972e-08
-5.73804e-07
-1.81149e-08
-5.67047e-07
-1.92841e-08
-5.59878e-07
-2.04782e-08
-5.52291e-07
-2.16953e-08
-5.44279e-07
-2.29332e-08
-5.35835e-07
-2.41894e-08
-5.26955e-07
-2.5461e-08
-5.17634e-07
-2.67449e-08
-5.07872e-07
-2.80373e-08
-4.97665e-07
-2.93341e-08
-4.87016e-07
-3.06309e-08
-4.75926e-07
-3.19229e-08
-4.64399e-07
-3.32045e-08
-4.52441e-07
-3.44702e-08
-4.4006e-07
-3.57136e-08
-4.27266e-07
-3.69281e-08
-4.14072e-07
-3.81066e-08
-4.00494e-07
-3.92416e-08
-3.86549e-07
-4.03253e-08
-3.72258e-07
-4.13494e-08
-3.57645e-07
-4.23051e-08
-3.42736e-07
-4.31836e-08
-3.2756e-07
-4.39755e-08
-3.12152e-07
-4.46713e-08
-2.96547e-07
-4.52612e-08
-2.80785e-07
-4.57353e-08
-2.64908e-07
-4.60835e-08
-2.48963e-07
-4.62957e-08
-2.32999e-07
-4.63617e-08
-2.17068e-07
-4.62715e-08
-2.01228e-07
-4.60152e-08
-1.85536e-07
-4.55834e-08
-1.70054e-07
-4.49669e-08
-1.54847e-07
-4.41571e-08
-1.39982e-07
-4.31461e-08
-1.25527e-07
-4.19268e-08
-1.11553e-07
-4.04936e-08
-9.8131e-08
-3.88419e-08
-8.53323e-08
-3.69691e-08
-7.32284e-08
-3.48748e-08
-6.1889e-08
-3.25614e-08
-5.13809e-08
-3.00349e-08
-4.17668e-08
-2.73058e-08
-3.31031e-08
-2.43905e-08
-2.54376e-08
-2.13134e-08
-1.88066e-08
-1.81085e-08
-1.32312e-08
-1.48235e-08
-8.71333e-09
-1.15235e-08
-5.23014e-09
-8.29699e-09
-2.72843e-09
-5.26344e-09
-1.11779e-09
-2.5829e-09
-2.63291e-10
-4.66511e-10
2.31116e-11
8.09986e-10
8.61556e-10
-1.10522e-10
-7.00948e-10
-6.93428e-10
-2.61503e-10
-1.94454e-09
1.47244e-09
-4.01168e-09
4.10573e-09
-7.00257e-09
7.35311e-09
-1.09899e-08
1.09914e-08
-1.60162e-08
1.4847e-08
-2.20981e-08
1.87868e-08
-2.9231e-08
2.27098e-08
-3.73929e-08
2.654e-08
-4.65478e-08
3.02212e-08
-5.6649e-08
3.37124e-08
-6.76414e-08
3.69845e-08
-7.94642e-08
4.00181e-08
-9.20523e-08
4.28007e-08
-1.05338e-07
4.53258e-08
-1.19253e-07
4.75914e-08
-1.33727e-07
4.95989e-08
-1.48692e-07
5.13526e-08
-1.6408e-07
5.28589e-08
-1.79826e-07
5.4126e-08
-1.95866e-07
5.51632e-08
-2.12139e-07
5.59809e-08
-2.28587e-07
5.65901e-08
-2.45154e-07
5.70025e-08
-2.61789e-07
5.72297e-08
-2.78442e-07
5.72839e-08
-2.95067e-07
5.71771e-08
-3.11622e-07
5.69211e-08
-3.28068e-07
5.65279e-08
-3.44369e-07
5.60088e-08
-3.60491e-07
5.53752e-08
-3.76405e-07
5.46378e-08
-3.92082e-07
5.38073e-08
-4.075e-07
5.28937e-08
-4.22637e-07
5.19065e-08
-4.37473e-07
5.08549e-08
-4.51993e-07
4.97477e-08
-4.66181e-07
4.85928e-08
-4.80027e-07
4.73981e-08
-4.9352e-07
4.61707e-08
-5.06652e-07
4.49172e-08
-5.19417e-07
4.36439e-08
-5.31811e-07
4.23565e-08
-5.4383e-07
4.10603e-08
-5.55473e-07
3.97599e-08
-5.66739e-07
3.84599e-08
-5.7763e-07
3.7164e-08
-5.88147e-07
3.58759e-08
-5.98293e-07
3.45987e-08
-6.08071e-07
3.33351e-08
-6.17486e-07
3.20874e-08
-6.26542e-07
3.08578e-08
-6.35246e-07
2.96479e-08
-6.43602e-07
2.84591e-08
-6.51617e-07
2.72926e-08
-6.59297e-07
2.61492e-08
-6.6665e-07
2.50294e-08
-6.7368e-07
2.39336e-08
-6.80396e-07
2.28618e-08
-6.86804e-07
2.18141e-08
-6.92911e-07
2.079e-08
-6.98722e-07
1.97891e-08
-7.04245e-07
1.88106e-08
-7.09486e-07
1.78537e-08
-7.1445e-07
1.69175e-08
-7.19143e-07
1.60008e-08
-7.23569e-07
1.51023e-08
-7.27735e-07
1.42206e-08
-7.31643e-07
1.33542e-08
-7.35299e-07
1.25016e-08
-7.38705e-07
1.1661e-08
-7.41864e-07
1.08307e-08
-7.44778e-07
1.00088e-08
-7.4745e-07
9.19332e-09
-7.49881e-07
8.38234e-09
-7.5207e-07
7.57379e-09
-7.54019e-07
6.76556e-09
-7.55727e-07
5.95552e-09
-7.57193e-07
5.14148e-09
-7.58414e-07
4.32125e-09
-7.59389e-07
3.4926e-09
-7.60114e-07
2.6533e-09
-7.60586e-07
1.80112e-09
-7.608e-07
9.33806e-10
-7.60752e-07
4.91563e-11
-7.60435e-07
-8.55024e-10
-7.59845e-07
-1.78089e-09
-7.58973e-07
-2.73057e-09
-7.57812e-07
-3.7061e-09
-7.56356e-07
-4.70951e-09
-7.54594e-07
-5.74271e-09
-7.52519e-07
-6.80752e-09
-7.50121e-07
-7.90566e-09
-7.47389e-07
-9.03875e-09
-7.44315e-07
-1.02082e-08
-7.40886e-07
-1.14155e-08
-7.37093e-07
-1.26616e-08
-7.32923e-07
-1.39475e-08
-7.28366e-07
-1.52739e-08
-7.2341e-07
-1.66414e-08
-7.18043e-07
-1.80503e-08
-7.12255e-07
-1.95004e-08
-7.06033e-07
-2.09915e-08
-6.99367e-07
-2.2523e-08
-6.92245e-07
-2.40939e-08
-6.84657e-07
-2.57028e-08
-6.76593e-07
-2.7348e-08
-6.68044e-07
-2.90273e-08
-6.59001e-07
-3.07381e-08
-6.49457e-07
-3.24774e-08
-6.39405e-07
-3.42417e-08
-6.28839e-07
-3.60268e-08
-6.17756e-07
-3.78282e-08
-6.06152e-07
-3.96407e-08
-5.94027e-07
-4.14587e-08
-5.81383e-07
-4.32758e-08
-5.6822e-07
-4.50853e-08
-5.54545e-07
-4.68795e-08
-5.40365e-07
-4.86504e-08
-5.25689e-07
-5.03894e-08
-5.1053e-07
-5.20872e-08
-4.94903e-07
-5.37339e-08
-4.78825e-07
-5.5319e-08
-4.62319e-07
-5.68315e-08
-4.45408e-07
-5.826e-08
-4.28121e-07
-5.95924e-08
-4.10488e-07
-6.08163e-08
-3.92545e-07
-6.19186e-08
-3.7433e-07
-6.28863e-08
-3.55886e-07
-6.37058e-08
-3.37258e-07
-6.43634e-08
-3.18496e-07
-6.48451e-08
-2.99655e-07
-6.51371e-08
-2.80791e-07
-6.52254e-08
-2.61966e-07
-6.50964e-08
-2.43244e-07
-6.47367e-08
-2.24694e-07
-6.41334e-08
-2.06387e-07
-6.3274e-08
-1.88397e-07
-6.21473e-08
-1.708e-07
-6.07427e-08
-1.53676e-07
-5.90513e-08
-1.37104e-07
-5.70657e-08
-1.21165e-07
-5.47805e-08
-1.05941e-07
-5.21931e-08
-9.15121e-08
-4.93039e-08
-7.79561e-08
-4.61174e-08
-6.53481e-08
-4.26429e-08
-5.37576e-08
-3.88963e-08
-4.32471e-08
-3.4901e-08
-3.38697e-08
-3.06908e-08
-2.56657e-08
-2.63124e-08
-1.86601e-08
-2.18291e-08
-1.2858e-08
-1.73256e-08
-8.24065e-09
-1.29143e-08
-4.76103e-09
-8.74306e-09
-2.33852e-09
-5.00542e-09
-8.54197e-10
-1.95083e-09
-1.45808e-10
1.01597e-10
7.15748e-10
-2.68795e-10
-4.32151e-10
-1.25532e-09
7.25015e-10
-3.11016e-09
3.32728e-09
-5.95171e-09
6.94728e-09
-9.86739e-09
1.12688e-08
-1.49158e-08
1.60399e-08
-2.11294e-08
2.10607e-08
-2.85178e-08
2.61752e-08
-3.70705e-08
3.12625e-08
-4.67606e-08
3.62301e-08
-5.75474e-08
4.1008e-08
-6.93795e-08
4.55444e-08
-8.21966e-08
4.98017e-08
-9.59324e-08
5.37538e-08
-1.10516e-07
5.73841e-08
-1.25873e-07
6.06828e-08
-1.41928e-07
6.36464e-08
-1.58605e-07
6.62758e-08
-1.75828e-07
6.85755e-08
-1.93522e-07
7.05532e-08
-2.11615e-07
7.22187e-08
-2.30035e-07
7.35836e-08
-2.48715e-07
7.46609e-08
-2.67589e-07
7.54646e-08
-2.86596e-07
7.60095e-08
-3.05677e-07
7.63107e-08
-3.24777e-07
7.63837e-08
-3.43844e-07
7.62441e-08
-3.6283e-07
7.59074e-08
-3.81691e-07
7.53888e-08
-4.00386e-07
7.47036e-08
-4.18877e-07
7.38663e-08
-4.37131e-07
7.28912e-08
-4.55115e-07
7.17921e-08
-4.72804e-07
7.05822e-08
-4.90172e-07
6.92743e-08
-5.07197e-07
6.78803e-08
-5.23861e-07
6.64117e-08
-5.40148e-07
6.48793e-08
-5.56043e-07
6.32932e-08
-5.71535e-07
6.1663e-08
-5.86615e-07
5.99975e-08
-6.01276e-07
5.83049e-08
-6.15513e-07
5.65929e-08
-6.29321e-07
5.48684e-08
-6.42699e-07
5.31378e-08
-6.55646e-07
5.14069e-08
-6.68163e-07
4.9681e-08
-6.80252e-07
4.79647e-08
-6.91915e-07
4.62623e-08
-7.03157e-07
4.45773e-08
-7.13983e-07
4.2913e-08
-7.24397e-07
4.12721e-08
-7.34406e-07
3.96569e-08
-7.44016e-07
3.80694e-08
-7.53235e-07
3.65109e-08
-7.62068e-07
3.49827e-08
-7.70524e-07
3.34855e-08
-7.78611e-07
3.20198e-08
-7.86335e-07
3.05858e-08
-7.93704e-07
2.91833e-08
-8.00726e-07
2.7812e-08
-8.07408e-07
2.64711e-08
-8.13757e-07
2.51598e-08
-8.1978e-07
2.3877e-08
-8.25484e-07
2.26214e-08
-8.30875e-07
2.13915e-08
-8.35958e-07
2.01856e-08
-8.4074e-07
1.90019e-08
-8.45224e-07
1.78384e-08
-8.49415e-07
1.6693e-08
-8.53318e-07
1.55635e-08
-8.56935e-07
1.44475e-08
-8.60268e-07
1.33426e-08
-8.63321e-07
1.22462e-08
-8.66095e-07
1.11556e-08
-8.68589e-07
1.00682e-08
-8.70805e-07
8.98124e-09
-8.72741e-07
7.89182e-09
-8.74397e-07
6.79708e-09
-8.75769e-07
5.69413e-09
-8.76857e-07
4.58003e-09
-8.77655e-07
3.45182e-09
-8.78161e-07
2.30656e-09
-8.78368e-07
1.14129e-09
-8.78272e-07
-4.69107e-11
-8.77866e-07
-1.26093e-09
-8.77144e-07
-2.50361e-09
-8.76096e-07
-3.77774e-09
-8.74717e-07
-5.08603e-09
-8.72995e-07
-6.43112e-09
-8.70922e-07
-7.81552e-09
-8.68488e-07
-9.24162e-09
-8.65682e-07
-1.07117e-08
-8.62493e-07
-1.22278e-08
-8.58909e-07
-1.37919e-08
-8.54919e-07
-1.54057e-08
-8.5051e-07
-1.70706e-08
-8.45669e-07
-1.8788e-08
-8.40385e-07
-2.05586e-08
-8.34643e-07
-2.23832e-08
-8.28431e-07
-2.42621e-08
-8.21736e-07
-2.61952e-08
-8.14546e-07
-2.81821e-08
-8.06847e-07
-3.02218e-08
-7.98628e-07
-3.23131e-08
-7.89876e-07
-3.4454e-08
-7.80582e-07
-3.66424e-08
-7.70734e-07
-3.88752e-08
-7.60323e-07
-4.1149e-08
-7.49341e-07
-4.34598e-08
-7.3778e-07
-4.58027e-08
-7.25634e-07
-4.81724e-08
-7.129e-07
-5.05628e-08
-6.99573e-07
-5.2967e-08
-6.85654e-07
-5.53776e-08
-6.71144e-07
-5.77861e-08
-6.56046e-07
-6.01835e-08
-6.40366e-07
-6.25599e-08
-6.24111e-07
-6.49045e-08
-6.07295e-07
-6.72061e-08
-5.8993e-07
-6.94522e-08
-5.72034e-07
-7.16299e-08
-5.53627e-07
-7.37255e-08
-5.34735e-07
-7.57243e-08
-5.15383e-07
-7.76114e-08
-4.95605e-07
-7.93708e-08
-4.75435e-07
-8.09862e-08
-4.54913e-07
-8.24407e-08
-4.34082e-07
-8.3717e-08
-4.12991e-07
-8.47973e-08
-3.9169e-07
-8.56637e-08
-3.70237e-07
-8.6298e-08
-3.48692e-07
-8.66823e-08
-3.27119e-07
-8.67983e-08
-3.05587e-07
-8.66285e-08
-2.84169e-07
-8.61555e-08
-2.62939e-07
-8.53628e-08
-2.41979e-07
-8.42346e-08
-2.21369e-07
-8.27565e-08
-2.01197e-07
-8.09154e-08
-1.81548e-07
-7.87003e-08
-1.62511e-07
-7.61021e-08
-1.44177e-07
-7.3115e-08
-1.26634e-07
-6.97363e-08
-1.0997e-07
-6.59677e-08
-9.42708e-08
-6.18162e-08
-7.96186e-08
-5.72952e-08
-6.6089e-08
-5.24259e-08
-5.37504e-08
-4.72396e-08
-4.26611e-08
-4.17801e-08
-3.28668e-08
-3.61067e-08
-2.43978e-08
-3.02982e-08
-1.72653e-08
-2.44581e-08
-1.14586e-08
-1.87209e-08
-6.94168e-09
-1.326e-08
-3.64967e-09
-8.29743e-09
-1.48669e-09
-4.11381e-09
-3.241e-10
-1.061e-09
3.91648e-10
-4.29658e-10
-2.4886e-12
-1.83438e-09
2.12973e-09
-4.3186e-09
5.8115e-09
-7.96756e-09
1.05962e-08
-1.28443e-08
1.61456e-08
-1.89895e-08
2.21851e-08
-2.64222e-08
2.84933e-08
-3.51416e-08
3.48946e-08
-4.51295e-08
4.12503e-08
-5.63522e-08
4.74528e-08
-6.87633e-08
5.34191e-08
-8.23058e-08
5.90869e-08
-9.69142e-08
6.44101e-08
-1.12517e-07
6.93564e-08
-1.29037e-07
7.39041e-08
-1.46395e-07
7.80407e-08
-1.64509e-07
8.17604e-08
-1.83296e-07
8.50637e-08
-2.02676e-07
8.79553e-08
-2.22567e-07
9.04438e-08
-2.42889e-07
9.25409e-08
-2.63566e-07
9.42604e-08
-2.84523e-07
9.56182e-08
-3.0569e-07
9.66312e-08
-3.26998e-07
9.73175e-08
-3.48383e-07
9.7696e-08
-3.69785e-07
9.77857e-08
-3.91147e-07
9.76061e-08
-4.12416e-07
9.71765e-08
-4.33544e-07
9.6516e-08
-4.54484e-07
9.56437e-08
-4.75195e-07
9.45778e-08
-4.95641e-07
9.33365e-08
-5.15785e-07
9.1937e-08
-5.35599e-07
9.03961e-08
-5.55055e-07
8.87298e-08
-5.74128e-07
8.69533e-08
-5.92797e-07
8.50812e-08
-6.11045e-07
8.31272e-08
-6.28856e-07
8.11041e-08
-6.46217e-07
7.9024e-08
-6.63118e-07
7.68983e-08
-6.7955e-07
7.47373e-08
-6.95508e-07
7.25508e-08
-7.10987e-07
7.03477e-08
-7.25986e-07
6.81361e-08
-7.40502e-07