/*--------------------------------*- C++ -*----------------------------------*\
  =========                 |
  \\      /  F ield         | OpenFOAM: The Open Source CFD Toolbox
   \\    /   O peration     | Website:  https://openfoam.org
    \\  /    A nd           | Version:  7
     \\/     M anipulation  |
\*---------------------------------------------------------------------------*/
FoamFile
{
    version     2.0;
    format      ascii;
    class       volScalarField;
    location    "0.4";
    object      p;
}
// * * * * * * * * * * * * * * * * * * * * * * * * * * * * * * * * * * * * * //

dimensions      [0 2 -2 0 0 0 0];

internalField   nonuniform List<scalar> 
12800
(
-1.29526e-06
0.000179825
-0.000906184
-0.00335092
-0.00690923
-0.0113345
-0.0163935
-0.021873
-0.027586
-0.0333725
-0.0390962
-0.0446416
-0.0499117
-0.0548247
-0.0593127
-0.0633197
-0.0667999
-0.0697166
-0.072041
-0.0737513
-0.0748318
-0.075272
-0.0750661
-0.0742125
-0.072713
-0.0705727
-0.0677991
-0.0644024
-0.0603944
-0.0557886
-0.0505999
-0.0448444
-0.038539
-0.0317013
-0.0243494
-0.0165019
-0.00817746
0.00060513
0.00982717
0.0194701
0.0295155
0.0399454
0.0507421
0.0618882
0.0733671
0.0851623
0.0972582
0.10964
0.122292
0.135201
0.148354
0.161738
0.175341
0.189151
0.203157
0.21735
0.231719
0.246255
0.26095
0.275795
0.290784
0.305909
0.321165
0.336543
0.352041
0.367651
0.383369
0.399192
0.415114
0.431133
0.447245
0.463446
0.479733
0.496105
0.512558
0.529089
0.545698
0.56238
0.579136
0.595961
0.612854
0.629813
0.646836
0.663919
0.681062
0.69826
0.715511
0.732811
0.750158
0.767547
0.784974
0.802434
0.819923
0.837435
0.854963
0.8725
0.890041
0.907575
0.925096
0.942593
0.960055
0.977473
0.994834
1.01213
1.02933
1.04644
1.06344
1.08031
1.09703
1.11358
1.12995
1.14611
1.16204
1.17772
1.19313
1.20824
1.22303
1.23747
1.25154
1.2652
1.27843
1.2912
1.30349
1.31526
1.32648
1.33713
1.34718
1.35661
1.36537
1.37346
1.38084
1.38749
1.3934
1.39853
1.40289
1.40645
1.4092
1.41114
1.41226
1.41258
1.4121
1.41082
1.40878
1.40601
1.40253
1.3984
1.39366
1.3884
1.38268
1.37661
1.3703
1.36388
1.35752
1.35138
1.34569
1.34068
1.33663
1.33383
1.33254
1.33271
-0.000184282
-1.892e-06
-0.00100554
-0.00313794
-0.00617588
-0.00994424
-0.0142691
-0.0189795
-0.023919
-0.0289483
-0.0339455
-0.0388044
-0.0434338
-0.0477558
-0.0517044
-0.0552242
-0.0582693
-0.0608024
-0.0627931
-0.0642181
-0.0650596
-0.065305
-0.0649463
-0.0639795
-0.0624041
-0.0602226
-0.0574403
-0.0540649
-0.0501057
-0.0455742
-0.0404829
-0.0348457
-0.0286775
-0.021994
-0.0148113
-0.00714627
0.000984219
0.00956297
0.0185728
0.0279965
0.0378171
0.0480177
0.0585818
0.0694932
0.0807359
0.0922946
0.104154
0.116301
0.12872
0.141398
0.154323
0.167481
0.180862
0.194455
0.208247
0.22223
0.236394
0.250729
0.265228
0.279882
0.294684
0.309627
0.324704
0.339908
0.355236
0.37068
0.386236
0.4019
0.417666
0.433532
0.449493
0.465546
0.481687
0.497914
0.514223
0.530613
0.547079
0.56362
0.580232
0.596915
0.613664
0.630477
0.647352
0.664285
0.681274
0.698316
0.715408
0.732544
0.749723
0.766939
0.784188
0.801465
0.818764
0.836079
0.853405
0.870733
0.888057
0.905368
0.922658
0.939916
0.957132
0.974295
0.991394
1.00842
1.02535
1.04217
1.05887
1.07544
1.09185
1.10809
1.12414
1.13998
1.15559
1.17094
1.18602
1.20079
1.21525
1.22936
1.24309
1.25642
1.26933
1.28179
1.29377
1.30524
1.31619
1.32657
1.33637
1.34557
1.35413
1.36203
1.36926
1.37579
1.3816
1.38668
1.39102
1.3946
1.39742
1.39947
1.40076
1.40129
1.40107
1.40012
1.39846
1.39613
1.39315
1.38957
1.38546
1.38088
1.3759
1.37062
1.36514
1.35959
1.35411
1.34885
1.344
1.33976
1.33632
1.33388
1.33271
1.33287
0.000898885
0.00100149
-2.48963e-06
-0.00198678
-0.0047365
-0.0081097
-0.011966
-0.0161635
-0.0205688
-0.0250604
-0.0295296
-0.03388
-0.0380271
-0.0418977
-0.045429
-0.0485676
-0.0512687
-0.0534949
-0.0552161
-0.0564079
-0.0570516
-0.0571336
-0.0566442
-0.0555779
-0.0539327
-0.0517093
-0.0489112
-0.0455443
-0.0416164
-0.037137
-0.032117
-0.0265687
-0.0205052
-0.0139406
-0.00688978
0.000632099
0.0086094
0.0170263
0.0258668
0.0351148
0.0447546
0.0547701
0.0651458
0.0758664
0.0869168
0.0982823
0.109949
0.121902
0.134129
0.146616
0.159352
0.172324
0.185521
0.198932
0.212546
0.226354
0.240346
0.254513
0.268847
0.28334
0.297984
0.312772
0.327698
0.342755
0.357937
0.37324
0.388657
0.404185
0.419818
0.435552
0.451384
0.467309
0.483324
0.499426
0.515612
0.531877
0.548221
0.564639
0.581128
0.597686
0.614311
0.630998
0.647745
0.664548
0.681406
0.698313
0.715267
0.732263
0.749297
0.766365
0.783462
0.800582
0.817719
0.834868
0.852022
0.869174
0.886315
0.903438
0.920533
0.937591
0.954601
0.971552
0.988432
1.00523
1.02193
1.03852
1.05498
1.0713
1.08746
1.10345
1.11924
1.13481
1.15015
1.16523
1.18004
1.19455
1.20873
1.22257
1.23604
1.24911
1.26176
1.27397
1.28571
1.29695
1.30767
1.31785
1.32746
1.33647
1.34488
1.35264
1.35976
1.36619
1.37194
1.37699
1.38132
1.38493
1.38781
1.38997
1.39139
1.3921
1.3921
1.39141
1.39006
1.38807
1.38548
1.38234
1.37871
1.37464
1.37021
1.36551
1.36064
1.3557
1.35083
1.34617
1.34186
1.33807
1.33496
1.3327
1.33153
1.33159
0.00334406
0.00313705
0.00198041
-9.3102e-06
-0.00265266
-0.00582605
-0.00940956
-0.0132825
-0.01733
-0.0214461
-0.0255341
-0.0295072
-0.0332884
-0.03681
-0.0400131
-0.0428474
-0.0452699
-0.0472445
-0.0487415
-0.049737
-0.0502118
-0.0501517
-0.0495466
-0.0483898
-0.0466782
-0.0444115
-0.0415919
-0.038224
-0.0343143
-0.0298709
-0.0249034
-0.0194228
-0.0134409
-0.00697056
-2.53529e-05
0.00738069
0.0152331
0.0235171
0.0322177
0.04132
0.0508089
0.0606694
0.0708867
0.0814463
0.0923338
0.103535
0.115036
0.126825
0.138887
0.151211
0.163784
0.176594
0.189632
0.202885
0.216344
0.229999
0.24384
0.25786
0.272049
0.286399
0.300904
0.315555
0.330347
0.345272
0.360326
0.375502
0.390795
0.4062
0.421713
0.437329
0.453044
0.468854
0.484755
0.500744
0.516817
0.532971
0.549203
0.565509
0.581886
0.598332
0.614842
0.631415
0.648046
0.664732
0.68147
0.698256
0.715085
0.731954
0.748859
0.765794
0.782754
0.799733
0.816727
0.833728
0.85073
0.867724
0.884704
0.901661
0.918586
0.935468
0.952298
0.969064
0.985754
1.00236
1.01886
1.03524
1.0515
1.06761
1.08355
1.09932
1.11489
1.13024
1.14535
1.16021
1.17479
1.18907
1.20303
1.21664
1.22989
1.24275
1.25519
1.26719
1.27873
1.28979
1.30033
1.31034
1.31979
1.32867
1.33695
1.34461
1.35164
1.35801
1.36371
1.36874
1.37308
1.37672
1.37966
1.38191
1.38345
1.38431
1.3845
1.38403
1.38292
1.38122
1.37894
1.37615
1.37288
1.36921
1.3652
1.36093
1.35649
1.35199
1.34753
1.34323
1.33924
1.33569
1.3327
1.33044
1.32909
1.32879
0.00691422
0.00618689
0.00473361
0.00262181
-3.23123e-05
-0.00312252
-0.00654581
-0.0102005
-0.013989
-0.0178193
-0.0216066
-0.0252739
-0.0287516
-0.0319783
-0.0348999
-0.0374693
-0.0396461
-0.0413963
-0.0426911
-0.0435072
-0.043826
-0.043633
-0.0429178
-0.0416732
-0.0398953
-0.0375831
-0.0347378
-0.0313629
-0.0274639
-0.0230477
-0.0181228
-0.0126991
-0.00678733
-0.000399154
0.00645297
0.0137561
0.0214966
0.029661
0.038235
0.0472047
0.0565558
0.0662743
0.0763459
0.086757
0.0974936
0.108543
0.119891
0.131525
0.143433
0.155603
0.168023
0.180682
0.193569
0.206673
0.219985
0.233494
0.247193
0.261071
0.275121
0.289336
0.303706
0.318226
0.332888
0.347687
0.362616
0.377669
0.392842
0.408129
0.423525
0.439025
0.454626
0.470323
0.486113
0.501991
0.517954
0.533998
0.550119
0.566316
0.582583
0.598918
0.615317
0.631777
0.648295
0.664866
0.681486
0.698153
0.714861
0.731607
0.748385
0.76519
0.782017
0.798861
0.815715
0.832574
0.849428
0.866272
0.883098
0.899896
0.916657
0.933372
0.95003
0.966621
0.983132
0.99955
1.01586
1.03206
1.04812
1.06403
1.07977
1.09534
1.1107
1.12584
1.14075
1.1554
1.16977
1.18384
1.1976
1.21101
1.22406
1.23672
1.24897
1.26079
1.27215
1.28304
1.29342
1.30329
1.31261
1.32136
1.32954
1.33711
1.34406
1.35038
1.35605
1.36107
1.36542
1.3691
1.3721
1.37443
1.37609
1.37709
1.37745
1.37717
1.37629
1.37484
1.37284
1.37034
1.36739
1.36405
1.36039
1.35646
1.35237
1.34819
1.34402
1.33998
1.33617
1.33272
1.32973
1.32733
1.32564
1.32474
0.0113731
0.00998353
0.00812133
0.00578885
0.00302456
-8.20214e-05
-0.00344237
-0.00697213
-0.0105891
-0.0142146
-0.0177753
-0.0212032
-0.0244368
-0.0274208
-0.0301061
-0.0324496
-0.034414
-0.0359673
-0.0370826
-0.0377377
-0.0379145
-0.037599
-0.0367806
-0.0354523
-0.0336095
-0.0312508
-0.0283766
-0.0249898
-0.0210949
-0.016698
-0.0118067
-0.0064298
-0.000577127
0.00574057
0.0125118
0.0197246
0.0273663
0.0354241
0.0438849
0.0527353
0.061962
0.0715515
0.0814906
0.0917659
0.102364
0.113273
0.12448
0.135972
0.147737
0.159764
0.172042
0.184559
0.197305
0.210269
0.223443
0.236815
0.250379
0.264124
0.278043
0.292128
0.306371
0.320765
0.335304
0.349981
0.364791
0.379727
0.394783
0.409955
0.425239
0.440628
0.456118
0.471706
0.487387
0.503157
0.519013
0.53495
0.550965
0.567054
0.583214
0.599441
0.615732
0.632083
0.648489
0.664948
0.681455
0.698006
0.714597
0.731222
0.747878
0.764558
0.781258
0.797971
0.814692
0.831413
0.848127
0.864827
0.881506
0.898153
0.91476
0.931317
0.947813
0.964239
0.980581
0.996828
1.01297
1.02898
1.04486
1.06059
1.07615
1.09152
1.1067
1.12165
1.13637
1.15083
1.16501
1.1789
1.19246
1.20569
1.21856
1.23105
1.24313
1.25478
1.26599
1.27673
1.28698
1.29671
1.30592
1.31457
1.32266
1.33016
1.33705
1.34333
1.34898
1.354
1.35837
1.36208
1.36515
1.36756
1.36933
1.37046
1.37097
1.37087
1.37018
1.36894
1.36718
1.36493
1.36225
1.35918
1.35579
1.35213
1.34829
1.34435
1.34038
1.33648
1.33275
1.32928
1.32617
1.32352
1.32138
1.31972
0.0164993
0.0143622
0.0120107
0.00937803
0.0064204
0.00321234
-0.000169867
-0.00365731
-0.00718178
-0.0106768
-0.0140794
-0.0173307
-0.0203767
-0.0231684
-0.025662
-0.0278183
-0.0296036
-0.0309883
-0.0319476
-0.0324607
-0.0325106
-0.032084
-0.0311707
-0.0297636
-0.0278584
-0.0254531
-0.0225478
-0.0191449
-0.0152482
-0.0108633
-0.0059968
-0.000656905
0.00514738
0.0114061
0.0181087
0.0252438
0.0327998
0.0407645
0.0491257
0.0578706
0.0669866
0.076461
0.0862811
0.0964342
0.106908
0.11769
0.128768
0.14013
0.151765
0.163661
0.175807
0.188194
0.200809
0.213644
0.226689
0.239935
0.253372
0.266992
0.280788
0.294751
0.308875
0.323151
0.337573
0.352135
0.366831
0.381655
0.396601
0.411664
0.426839
0.442122
0.457507
0.472989
0.488566
0.504233
0.519985
0.535819
0.551731
0.567717
0.583773
0.599896
0.616082
0.632327
0.648627
0.664977
0.681375
0.697815
0.714292
0.730803
0.747341
0.763902
0.78048
0.797069
0.813662
0.830253
0.846835
0.8634
0.879939
0.896444
0.912906
0.929316
0.945661
0.961933
0.978119
0.994206
1.01018
1.02604
1.04175
1.05731
1.0727
1.0879
1.10291
1.11769
1.13223
1.14652
1.16054
1.17425
1.18766
1.20072
1.21343
1.22577
1.2377
1.24922
1.26029
1.2709
1.28103
1.29066
1.29977
1.30834
1.31635
1.32379
1.33065
1.3369
1.34254
1.34756
1.35195
1.35571
1.35883
1.36133
1.36319
1.36444
1.36508
1.36513
1.36462
1.36356
1.362
1.35996
1.35749
1.35463
1.35145
1.34799
1.34433
1.34053
1.33667
1.33282
1.32906
1.32548
1.32216
1.31918
1.31648
1.31398
0.0220914
0.0191614
0.016267
0.0132746
0.0100585
0.00668065
0.00320716
-0.000306762
-0.00380551
-0.0072336
-0.0105377
-0.0136675
-0.0165762
-0.019221
-0.021563
-0.0235677
-0.0252046
-0.026447
-0.0272724
-0.0276618
-0.0275994
-0.0270728
-0.0260727
-0.0245923
-0.0226273
-0.0201758
-0.0172379
-0.0138154
-0.00991181
-0.00553215
-0.000682687
0.00462915
0.0103949
0.0166055
0.0232507
0.0303201
0.0378027
0.045687
0.0539614
0.0626138
0.0716324
0.0810048
0.090719
0.100763
0.111125
0.121792
0.132754
0.143998
0.155514
0.167291
0.179318
0.191584
0.20408
0.216796
0.229722
0.242849
0.256169
0.269674
0.283355
0.297204
0.311215
0.32538
0.339693
0.354146
0.368735
0.383452
0.398294
0.413253
0.428325
0.443506
0.458789
0.474172
0.489649
0.505216
0.520868
0.536603
0.552416
0.568303
0.58426
0.600282
0.616367
0.63251
0.648708
0.664954
0.681247
0.69758
0.713949
0.730349
0.746776
0.763223
0.779685
0.796155
0.812628
0.829096
0.845552
0.861989
0.878398
0.89477
0.911097
0.927369
0.943574
0.959703
0.975744
0.991685
1.00751
1.02322
1.03878
1.05418
1.06942
1.08447
1.09932
1.11395
1.12834
1.14248
1.15634
1.16991
1.18317
1.19609
1.20867
1.22087
1.23267
1.24407
1.25503
1.26554
1.27557
1.28511
1.29414
1.30264
1.3106
1.318
1.32482
1.33105
1.33669
1.34173
1.34614
1.34995
1.35313
1.3557
1.35765
1.35901
1.35977
1.35995
1.35958
1.35868
1.35728
1.3554
1.3531
1.3504
1.34737
1.34405
1.34049
1.33677
1.33294
1.32906
1.32521
1.32144
1.31783
1.31445
1.31114
1.30776
0.0279743
0.0242326
0.0207632
0.0173688
0.0138451
0.0102441
0.00662364
0.0030269
-0.000501734
-0.00391667
-0.00717341
-0.0102295
-0.013045
-0.0155829
-0.0178096
-0.0196946
-0.021211
-0.0223354
-0.0230473
-0.0233298
-0.0231688
-0.022553
-0.0214739
-0.0199254
-0.0179036
-0.0154067
-0.0124348
-0.00898968
-0.00507464
-0.000694342
0.00414531
0.00943735
0.0151738
0.0213461
0.0279446
0.0349596
0.0423804
0.0501963
0.0583962
0.0669687
0.0759022
0.0851853
0.0948062
0.104753
0.115015
0.125581
0.136438
0.147577
0.158986
0.170654
0.182572
0.194729
0.207115
0.219721
0.232538
0.245557
0.258769
0.272166
0.28574
0.299484
0.31339
0.327451
0.34166
0.356012
0.370499
0.385117
0.399859
0.41472
0.429694
0.444778
0.459965
0.475252
0.490633
0.506105
0.521663
0.537303
0.55302
0.568812
0.584673
0.600599
0.616587
0.632633
0.648731
0.664878
0.68107
0.697301
0.713567
0.729862
0.746182
0.762521
0.778872
0.79523
0.811589
0.827941
0.844279
0.860596
0.876883
0.893131
0.909332
0.925475
0.941551
0.957548
0.973456
0.989262
1.00495
1.02052
1.03594
1.05121
1.06631
1.08122
1.09593
1.11043
1.12468
1.13869
1.15242
1.16586
1.17899
1.19179
1.20425
1.21633
1.22803
1.23932
1.25019
1.26061
1.27056
1.28004
1.289
1.29746
1.30537
1.31274
1.31955
1.32578
1.33142
1.33647
1.34092
1.34477
1.34801
1.35065
1.35269
1.35414
1.35501
1.35531
1.35506
1.35428
1.35301
1.35126
1.34908
1.3465
1.34357
1.34033
1.33682
1.33311
1.32925
1.32528
1.32126
1.31724
1.31329
1.30947
1.30553
1.30125
0.033997
0.0294434
0.0253824
0.0215578
0.017691
0.013826
0.0100145
0.00628932
0.00268483
-0.000762125
-0.00401503
-0.00703859
-0.00979926
-0.0122657
-0.014409
-0.0162029
-0.0176243
-0.0186524
-0.0192696
-0.019461
-0.0192141
-0.018519
-0.0173683
-0.0157567
-0.0136808
-0.0111393
-0.00813243
-0.00466202
-0.000731315
0.00365515
0.00849172
0.0137717
0.0194876
0.025631
0.032193
0.0391641
0.0465344
0.0542934
0.0624306
0.0709351
0.0797958
0.0890016
0.0985415
0.108404
0.118579
0.129054
0.139819
0.150863
0.162176
0.173747
0.185567
0.197625
0.209912
0.222418
0.235136
0.248055
0.261167
0.274465
0.287941
0.301587
0.315395
0.329359
0.343473
0.357729
0.372122
0.386645
0.401294
0.416062
0.430945
0.445936
0.461032
0.476228
0.491518
0.506899
0.522366
0.537915
0.553542
0.569242
0.585012
0.600846
0.616742
0.632694
0.648698
0.66475
0.680845
0.696978
0.713146
0.729341
0.745559
0.761795
0.778042
0.794295
0.810546
0.826789
0.843016
0.85922
0.875393
0.891525
0.907609
0.923634
0.93959
0.955466
0.971252
0.986935
1.0025
1.01794
1.03324
1.04839
1.06336
1.07815
1.09274
1.10711
1.12125
1.13514
1.14875
1.16208
1.17511
1.1878
1.20016
1.21215
1.22376
1.23497
1.24576
1.25611
1.26601
1.27542
1.28435
1.29277
1.30066
1.30801
1.31481
1.32104
1.3267
1.33178
1.33627
1.34017
1.34347
1.34617
1.34829
1.34982
1.35078
1.35118
1.35103
1.35036
1.34918
1.34754
1.34544
1.34294
1.34006
1.33686
1.33335
1.3296
1.32565
1.32154
1.31731
1.31301
1.30868
1.30438
1.29979
1.29461
0.0400309
0.0346765
0.0300189
0.025747
0.0215122
0.017353
0.0133165
0.00942639
0.00570857
0.00219213
-0.00109355
-0.00411969
-0.00685862
-0.0092842
-0.0113722
-0.0131004
-0.0144491
-0.0154007
-0.0159401
-0.0160544
-0.0157332
-0.0149679
-0.0137524
-0.0120823
-0.00995496
-0.00736953
-0.00432664
-0.000828332
0.00312203
0.00751994
0.0123598
0.0176352
0.0233387
0.0294624
0.0359976
0.0429352
0.0502656
0.0579789
0.0660648
0.0745128
0.0833125
0.092453
0.101924
0.111714
0.121812
0.132209
0.142893
0.153854
0.165082
0.176567
0.1883
0.200269
0.212467
0.224884
0.237511
0.250339
0.263361
0.276569
0.289954
0.30351
0.317228
0.331103
0.345128
0.359295
0.3736
0.388036
0.402597
0.417278
0.432073
0.446978
0.461988
0.477097
0.492302
0.507596
0.522978
0.53844
0.55398
0.569594
0.585276
0.601022
0.616829
0.632692
0.648607
0.664568
0.680571
0.696612
0.712685
0.728786
0.744908
0.761047
0.777195
0.793348
0.809498
0.825638
0.841762
0.857861
0.873928
0.889953
0.905928
0.921844
0.93769
0.953456
0.96913
0.984702
1.00016
1.01549
1.03068
1.04571
1.06058
1.07526
1.08974
1.104
1.11804
1.13182
1.14534
1.15858
1.17151
1.18412
1.1964
1.20832
1.21986
1.231
1.24173
1.25203
1.26188
1.27126
1.28016
1.28855
1.29643
1.30378
1.31059
1.31684
1.32252
1.32764
1.33217
1.33611
1.33947
1.34224
1.34443
1.34604
1.34708
1.34756
1.3475
1.34691
1.34581
1.34423
1.3422
1.33974
1.33688
1.33366
1.33012
1.32629
1.32221
1.31792
1.31344
1.30881
1.30408
1.29929
1.29404
1.28799
0.0459653
0.0398285
0.0345773
0.0298493
0.0252307
0.0207558
0.0164685
0.012385
0.00852385
0.00490732
0.0015585
-0.0014997
-0.00424498
-0.00665604
-0.00871297
-0.0103975
-0.0116932
-0.0125856
-0.013062
-0.0131119
-0.0127266
-0.0118993
-0.010625
-0.00890033
-0.00672366
-0.00409471
-0.00101461
0.00251422
0.0064882
0.0109027
0.0157521
0.0210301
0.0267293
0.032842
0.0393599
0.0462739
0.0535749
0.0612532
0.0692989
0.0777019
0.086452
0.0955388
0.104952
0.114681
0.124715
0.135045
0.145659
0.156549
0.167703
0.179113
0.190768
0.202659
0.214778
0.227114
0.23966
0.252408
0.265348
0.278474
0.291777
0.305251
0.318887
0.33268
0.346622
0.360708
0.374931
0.389285
0.403765
0.418364
0.433079
0.447902
0.462831
0.477859
0.492982
0.508196
0.523495
0.538876
0.554334
0.569865
0.585464
0.601127
0.61685
0.632628
0.648457
0.664332
0.680248
0.696201
0.712186
0.728196
0.744228
0.760275
0.77633
0.792389
0.808444
0.824489
0.840516
0.856518
0.872486
0.888413
0.904289
0.920104
0.93585
0.951515
0.967089
0.982561
0.997918
1.01315
1.02824
1.04317
1.05794
1.07253
1.08692
1.10109
1.11504
1.12874
1.14218
1.15534
1.1682
1.18074
1.19295
1.20481
1.2163
1.2274
1.23809
1.24835
1.25817
1.26753
1.27642
1.28481
1.29269
1.30005
1.30687
1.31315
1.31887
1.32402
1.3286
1.3326
1.33602
1.33885
1.34111
1.34279
1.3439
1.34446
1.34446
1.34394
1.3429
1.34136
1.33936
1.33691
1.33404
1.33078
1.32717
1.32323
1.31899
1.31447
1.30972
1.30474
1.29959
1.2943
1.28841
1.28151
0.0517048
0.0448084
0.0389721
0.0337858
0.0287741
0.0239689
0.0194121
0.0151136
0.0110855
0.00734432
0.00390757
0.000792908
-0.00198221
-0.00440097
-0.00644751
-0.00810724
-0.00936696
-0.010215
-0.0106414
-0.0106377
-0.0101972
-0.00931473
-0.00798663
-0.00621075
-0.00398632
-0.00131385
0.00180492
0.00536709
0.00936875
0.013805
0.0186702
0.0239578
0.0296606
0.035771
0.0422807
0.049181
0.0564628
0.0641167
0.0721331
0.0805022
0.0892139
0.0982583
0.107625
0.117304
0.127286
0.13756
0.148116
0.158945
0.170036
0.181381
0.192969
0.204793
0.216842
0.229108
0.241583
0.254258
0.267126
0.280178
0.293408
0.306807
0.320369
0.334087
0.347955
0.361965
0.376113
0.390392
0.404796
0.41932
0.433959
0.448707
0.46356
0.478512
0.493559
0.508696
0.523918
0.539222
0.554603
0.570055
0.585576
0.60116
0.616803
0.632501
0.648249
0.664042
0.679876
0.695746
0.711647
0.727573
0.743519
0.759479
0.775448
0.791419
0.807386
0.823341
0.839279
0.85519
0.871068
0.886904
0.902688
0.918413
0.934067
0.949642
0.965126
0.980508
0.995776
1.01092
1.02592
1.04077
1.05546
1.06997
1.08428
1.09838
1.11225
1.12588
1.13926
1.15235
1.16516
1.17765
1.18981
1.20163
1.21308
1.22415
1.23481
1.24506
1.25487
1.26423
1.27311
1.28151
1.28941
1.29679
1.30365
1.30996
1.31572
1.32092
1.32555
1.32961
1.33309
1.33599
1.33832
1.34006
1.34124
1.34185
1.34192
1.34144
1.34044
1.33893
1.33693
1.33447
1.33157
1.32825
1.32453
1.32045
1.31602
1.31127
1.30622
1.30087
1.29529
1.2895
1.28298
1.27527
0.0571664
0.0495356
0.0431266
0.0374843
0.0320756
0.0269311
0.0220918
0.0175622
0.0133492
0.00946409
0.00591957
0.00272864
-9.56356e-05
-0.00254052
-0.00459394
-0.0062447
-0.00748271
-0.00829912
-0.00868636
-0.00863825
-0.00814994
-0.00721795
-0.00584007
-0.00401535
-0.00174402
0.000972534
0.00413186
0.0077305
0.0117641
0.0162275
0.0211146
0.026419
0.0321334
0.03825
0.0447607
0.0516569
0.0589295
0.0665695
0.0745673
0.0829134
0.091598
0.100611
0.109943
0.119584
0.129524
0.139753
0.150262
0.161041
0.17208
0.183371
0.194903
0.206669
0.218658
0.230864
0.243277
0.255889
0.268693
0.28168
0.294844
0.308177
0.321673
0.335323
0.349123
0.363066
0.377145
0.391355
0.40569
0.420145
0.434713
0.449391
0.464173
0.479055
0.49403
0.509096
0.524246
0.539478
0.554785
0.570164
0.585611
0.60112
0.616688
0.63231
0.647982
0.663698
0.679454
0.695246
0.711067
0.726914
0.742779
0.758659
0.774547
0.790436
0.80632
0.822193
0.838048
0.853876
0.869671
0.885424
0.901125
0.916767
0.93234
0.947834
0.963237
0.97854
0.99373
1.0088
1.02373
1.03851
1.05312
1.06756
1.08181
1.09585
1.10966
1.12324
1.13656
1.14961
1.16238
1.17483
1.18697
1.19876
1.21019
1.22124
1.2319
1.24215
1.25196
1.26133
1.27023
1.27866
1.28658
1.294
1.3009
1.30726
1.31307
1.31833
1.32302
1.32714
1.33068
1.33365
1.33604
1.33785
1.33909
1.33976
1.33987
1.33943
1.33845
1.33695
1.33495
1.33246
1.32949
1.32608
1.32224
1.318
1.31336
1.30836
1.30299
1.29728
1.29126
1.28498
1.27785
1.26934
0.0622782
0.053939
0.0469719
0.0408791
0.0350735
0.0295852
0.024455
0.0196832
0.0152718
0.0112281
0.00756029
0.00427736
0.00138839
-0.00109759
-0.00317196
-0.00482674
-0.00605478
-0.00684987
-0.00720686
-0.00712171
-0.00659149
-0.00561436
-0.00418957
-0.00231744
7.1187e-07
0.00276256
0.00596487
0.00960355
0.0136737
0.0181697
0.0230854
0.0284138
0.0341477
0.0402792
0.0468
0.0537017
0.0609753
0.0686117
0.0766016
0.0849355
0.0936039
0.102597
0.111905
0.121519
0.131429
0.141624
0.152097
0.162837
0.173834
0.185081
0.196568
0.208286
0.220226
0.23238
0.244741
0.257299
0.270048
0.282979
0.296085
0.30936
0.322797
0.336388
0.350127
0.364008
0.378026
0.392173
0.406445
0.420836
0.435341
0.449954
0.464671
0.479487
0.494396
0.509395
0.524479
0.539642
0.554881
0.570191
0.585568
0.601008
0.616505
0.632056
0.647655
0.663299
0.678983
0.6947
0.710448
0.72622
0.74201
0.757815
0.773626
0.789439
0.805248
0.821045
0.836823
0.852575
0.868294
0.883971
0.899598
0.915166
0.930666
0.946087
0.96142
0.976654
0.991777
1.00678
1.02164
1.03636
1.05092
1.06531
1.0795
1.09349
1.10727
1.1208
1.13409
1.14711
1.15985
1.17229
1.1844
1.19619
1.20761
1.21867
1.22934
1.2396
1.24943
1.25883
1.26776
1.27623
1.2842
1.29166
1.29861
1.30503
1.31091
1.31623
1.32099
1.32518
1.32879
1.33183
1.33428
1.33615
1.33745
1.33817
1.33832
1.33791
1.33694
1.33544
1.33342
1.33088
1.32784
1.32433
1.32035
1.31592
1.31107
1.30579
1.30011
1.29402
1.28757
1.28081
1.27307
1.26382
0.0669764
0.0579549
0.0504454
0.0439101
0.0377108
0.0318776
0.0264521
0.0214306
0.0168115
0.0125983
0.00879558
0.00540855
0.00244279
-9.60378e-05
-0.00220251
-0.00387162
-0.00509896
-0.00588089
-0.00621455
-0.006098
-0.00553017
-0.00451087
-0.00304085
-0.00112171
0.00124407
0.00405319
0.00730156
0.0109844
0.0150962
0.0196308
0.0245817
0.0299417
0.0357032
0.0418583
0.0483986
0.0553155
0.0626001
0.0702434
0.078236
0.0865686
0.0952317
0.104216
0.113512
0.123109
0.132999
0.143173
0.15362
0.164331
0.175298
0.186512
0.197963
0.209643
0.221544
0.233657
0.245974
0.258487
0.27119
0.284073
0.297131
0.310355
0.32374
0.337279
0.350965
0.364792
0.378754
0.392846
0.407061
0.421395
0.435841
0.450396
0.465053
0.479808
0.494657
0.509594
0.524615
0.539715
0.554891
0.570136
0.585449
0.600822
0.616254
0.631738
0.64727
0.662846
0.678461
0.69411
0.709788
0.72549
0.741211
0.756945
0.772686
0.788429
0.804167
0.819894
0.835603
0.851286
0.866936
0.882545
0.898105
0.913607
0.929042
0.944401
0.959672
0.974847
0.989913
1.00486
1.01967
1.03434
1.04886
1.0632
1.07735
1.09131
1.10506
1.11857
1.13184
1.14484
1.15757
1.17
1.18212
1.19391
1.20535
1.21642
1.22711
1.2374
1.24727
1.25671
1.26569
1.27421
1.28224
1.28977
1.29678
1.30327
1.30922
1.31461
1.31945
1.32371
1.3274
1.33051
1.33303
1.33497
1.33632
1.33709
1.33727
1.33689
1.33593
1.33442
1.33236
1.32976
1.32664
1.32301
1.31888
1.31426
1.30918
1.30363
1.29762
1.29116
1.28428
1.27704
1.26873
1.25875
0.0712048
0.0615262
0.0534909
0.0465226
0.0399347
0.0337584
0.0280358
0.0227607
0.0179279
0.0135377
0.00959164
0.0060916
0.00304003
0.000439491
-0.0017075
-0.00339871
-0.00463233
-0.00540712
-0.00572244
-0.00557836
-0.00497564
-0.00391576
-0.00240092
-0.000434075
0.00198112
0.00484034
0.00813858
0.0118703
0.0160293
0.020609
0.0256023
0.0310018
0.0367994
0.042987
0.0495562
0.0564982
0.063804
0.0714646
0.0794706
0.0878128
0.0964817
0.105468
0.114762
0.124355
0.134237
0.144399
0.154831
0.165526
0.176472
0.187663
0.199089
0.210741
0.222612
0.234693
0.246976
0.259454
0.272119
0.284963
0.29798
0.311162
0.324504
0.337997
0.351637
0.365417
0.379331
0.393373
0.407538
0.42182
0.436215
0.450716
0.465319
0.480019
0.494811
0.509692
0.524655
0.539697
0.554814
0.57
0.585252
0.600564
0.615934
0.631356
0.646825
0.662338
0.677889
0.693474
0.709087
0.724725
0.740381
0.75605
0.771726
0.787404
0.803078
0.818741
0.834386
0.850006
0.865594
0.881143
0.896644
0.912088
0.927466
0.94277
0.95799
0.973114
0.988133
1.00303
1.01781
1.03244
1.04692
1.06123
1.07536
1.0893
1.10302
1.11653
1.12979
1.14279
1.15552
1.16796
1.1801
1.19191
1.20338
1.21448
1.22522
1.23555
1.24548
1.25497
1.26401
1.2726
1.2807
1.2883
1.2954
1.30197
1.308
1.31348
1.3184
1.32275
1.32652
1.32971
1.3323
1.3343
1.33571
1.33653
1.33675
1.33638
1.33542
1.33389
1.33179
1.32913
1.32591
1.32216
1.31787
1.31306
1.30773
1.30191
1.29557
1.28873
1.28144
1.27374
1.26487
1.2542
0.0749128
0.0646016
0.0560569
0.048666
0.0416964
0.0351805
0.0291618
0.0236314
0.0185816
0.01401
0.00991503
0.00629595
0.00315228
0.00048382
-0.00170961
-0.00342833
-0.00467299
-0.00544461
-0.00574469
-0.00557521
-0.00493874
-0.00383839
-0.00227787
-0.000261456
0.00220598
0.00511905
0.00847181
0.0122579
0.0164704
0.0211022
0.0261456
0.0315927
0.0374352
0.0436648
0.0502725
0.0572497
0.0645871
0.0722755
0.0803058
0.0886685
0.0973544
0.106354
0.115658
0.125257
0.135142
0.145303
0.155732
0.16642
0.177357
0.188535
0.199946
0.211581
0.223431
0.23549
0.247748
0.260199
0.272835
0.285649
0.298633
0.311782
0.325087
0.338544
0.352145
0.365884
0.379757
0.393756
0.407877
0.422113
0.436461
0.450914
0.465469
0.480119
0.494861
0.50969
0.5246
0.539589
0.554651
0.569782
0.584978
0.600234
0.615546
0.63091
0.646321
0.661775
0.677267
0.692792
0.708346
0.723924
0.73952
0.755129
0.770746
0.786365
0.801979
0.817584
0.833172
0.848736
0.864269
0.879763
0.895212
0.910606
0.925936
0.941194
0.95637
0.971453
0.986435
1.0013
1.01604
1.03065
1.04511
1.0594
1.07352
1.08744
1.10117
1.11467
1.12794
1.14095
1.1537
1.16617
1.17834
1.19018
1.20169
1.21285
1.22364
1.23404
1.24403
1.25359
1.26272
1.27138
1.27957
1.28726
1.29445
1.30111
1.30724
1.31282
1.31783
1.32228
1.32614
1.32941
1.33208
1.33416
1.33562
1.33649
1.33674
1.33639
1.33544
1.33388
1.33174
1.329
1.32569
1.3218
1.31735
1.31234
1.30678
1.30067
1.29401
1.28681
1.27911
1.27095
1.26154
1.2502
0.078055
0.0671341
0.0580961
0.0502935
0.0429502
0.0360997
0.0297876
0.0240027
0.018735
0.0139796
0.00973282
0.00599112
0.00275155
1.13576e-05
-0.0022321
-0.00398155
-0.00523991
-0.00601036
-0.00629641
-0.00610195
-0.00543128
-0.00428914
-0.00268072
-0.000611666
0.00191195
0.00488362
0.00829645
0.0121432
0.0164162
0.0211077
0.0262094
0.031713
0.0376097
0.0438908
0.0505472
0.0575699
0.0649495
0.0726767
0.0807422
0.0891367
0.0978506
0.106875
0.1162
0.125816
0.135715
0.145887
0.156323
0.167015
0.177953
0.189129
0.200535
0.212162
0.224003
0.236048
0.248292
0.260725
0.273341
0.286132
0.299093
0.312215
0.325492
0.338919
0.352488
0.366195
0.380032
0.393995
0.408077
0.422275
0.436582
0.450993
0.465504
0.48011
0.494806
0.509588
0.524451
0.539391
0.554403
0.569484
0.584628
0.599832
0.615092
0.630402
0.645759
0.661159
0.676596
0.692066
0.707564
0.723087
0.738628
0.754182
0.769744
0.785309
0.800871
0.816423
0.831959
0.847473
0.862957
0.878405
0.893808
0.909159
0.924448
0.939668
0.954809
0.969861
0.984814
0.999656
1.01438
1.02897
1.04341
1.0577
1.07181
1.08574
1.09947
1.11299
1.12628
1.13932
1.15211
1.16461
1.17682
1.18872
1.20029
1.21151
1.22237
1.23285
1.24292
1.25257
1.26179
1.27055
1.27884
1.28664
1.29393
1.30071
1.30694
1.31263
1.31775
1.3223
1.32626
1.32962
1.33238
1.33453
1.33606
1.33698
1.33727
1.33694
1.33598
1.33441
1.33222
1.32941
1.326
1.32198
1.31736
1.31215
1.30635
1.29996
1.29299
1.28542
1.27732
1.26872
1.25879
1.24682
0.0805897
0.0690807
0.0595649
0.0513618
0.0436531
0.0364744
0.0298729
0.0238358
0.0183512
0.013412
0.00901249
0.00514683
0.00180975
-0.00100379
-0.00329874
-0.00508004
-0.00635275
-0.00712211
-0.00739355
-0.00717282
-0.00646591
-0.00527918
-0.0036193
-0.00149326
0.00109163
0.00412773
0.00760716
0.0115218
0.0158631
0.0206227
0.0257916
0.031361
0.0373217
0.0436645
0.05038
0.0574589
0.0648916
0.0726688
0.0807808
0.0892183
0.0979717
0.107032
0.116389
0.126034
0.135958
0.146152
0.156607
0.167313
0.178263
0.189448
0.200859
0.212489
0.224328
0.236371
0.248608
0.261033
0.273637
0.286415
0.299359
0.312463
0.32572
0.339125
0.35267
0.366349
0.380159
0.394091
0.408142
0.422306
0.436578
0.450953
0.465426
0.479993
0.494649
0.509389
0.524209
0.539105
0.554072
0.569106
0.584204
0.59936
0.614571
0.629832
0.64514
0.660489
0.675875
0.691295
0.706743
0.722215
0.737705
0.753209
0.768722
0.784238
0.799751
0.815256
0.830747
0.846216
0.861658
0.877065
0.89243
0.907745
0.923002
0.938191
0.953305
0.968333
0.983266
0.998094
1.0128
1.02739
1.04183
1.05612
1.07024
1.08419
1.09794
1.11148
1.12481
1.13789
1.15072
1.16328
1.17555
1.18751
1.19916
1.21046
1.2214
1.23197
1.24214
1.2519
1.26123
1.2701
1.27851
1.28643
1.29384
1.30074
1.3071
1.3129
1.31814
1.32281
1.32688
1.33034
1.3332
1.33543
1.33704
1.33801
1.33834
1.33804
1.33709
1.33549
1.33326
1.33038
1.32687
1.32272
1.31793
1.31252
1.30648
1.29982
1.29253
1.28461
1.27611
1.26709
1.25666
1.24407
0.082479
0.0704015
0.0604228
0.0518299
0.0437647
0.0362647
0.029379
0.0230935
0.0173945
0.0122732
0.00772197
0.00373294
0.000298757
-0.00258775
-0.00493364
-0.00674595
-0.00803175
-0.00879823
-0.00905273
-0.00880274
-0.00805598
-0.00682037
-0.00510405
-0.00291537
-0.000262902
0.00284459
0.00639819
0.0103888
0.0148072
0.019644
0.0248898
0.030535
0.03657
0.0429852
0.0497708
0.0569171
0.0644143
0.0722528