/*--------------------------------*- C++ -*----------------------------------*\
  =========                 |
  \\      /  F ield         | OpenFOAM: The Open Source CFD Toolbox
   \\    /   O peration     | Website:  https://openfoam.org
    \\  /    A nd           | Version:  7
     \\/     M anipulation  |
\*---------------------------------------------------------------------------*/
FoamFile
{
    version     2.0;
    format      ascii;
    class       surfaceScalarField;
    location    "0.4";
    object      phi;
}
// * * * * * * * * * * * * * * * * * * * * * * * * * * * * * * * * * * * * * //

dimensions      [0 3 -1 0 0 0 0];

internalField   nonuniform List<scalar> 
25360
(
1.14378e-10
-1.14266e-10
3.59632e-10
-2.45215e-10
6.04232e-10
-2.44592e-10
7.65086e-10
-1.60876e-10
7.98065e-10
-3.3005e-11
6.81359e-10
1.16703e-10
4.0633e-10
2.75043e-10
-2.77028e-11
4.34041e-10
-6.16601e-10
5.88897e-10
-1.35334e-09
7.36732e-10
-2.22915e-09
8.7581e-10
-3.23426e-09
1.00512e-09
-4.35837e-09
1.12412e-09
-5.59097e-09
1.2326e-09
-6.92152e-09
1.33055e-09
-8.33967e-09
1.41814e-09
-9.83529e-09
1.49562e-09
-1.13986e-08
1.56333e-09
-1.30203e-08
1.62165e-09
-1.46913e-08
1.67101e-09
-1.64031e-08
1.71186e-09
-1.81478e-08
1.74465e-09
-1.99177e-08
1.76988e-09
-2.17057e-08
1.788e-09
-2.35051e-08
1.7995e-09
-2.531e-08
1.80484e-09
-2.71145e-08
1.80449e-09
-2.89134e-08
1.79889e-09
-3.07019e-08
1.78849e-09
-3.24756e-08
1.7737e-09
-3.42305e-08
1.75493e-09
-3.59631e-08
1.73257e-09
-3.76701e-08
1.70701e-09
-3.93487e-08
1.67858e-09
-4.09963e-08
1.64765e-09
-4.26108e-08
1.61451e-09
-4.41903e-08
1.57948e-09
-4.57331e-08
1.54284e-09
-4.7238e-08
1.50485e-09
-4.87038e-08
1.46576e-09
-5.01296e-08
1.4258e-09
-5.15147e-08
1.38518e-09
-5.28588e-08
1.3441e-09
-5.41616e-08
1.30274e-09
-5.54228e-08
1.26125e-09
-5.66426e-08
1.21979e-09
-5.78211e-08
1.17849e-09
-5.89586e-08
1.13747e-09
-6.00554e-08
1.09683e-09
-6.11121e-08
1.05667e-09
-6.21291e-08
1.01706e-09
-6.31072e-08
9.78087e-10
-6.4047e-08
9.39796e-10
-6.49492e-08
9.0224e-10
-6.58147e-08
8.65455e-10
-6.66442e-08
8.29471e-10
-6.74385e-08
7.94309e-10
-6.81985e-08
7.59982e-10
-6.8925e-08
7.26494e-10
-6.96188e-08
6.93842e-10
-7.02808e-08
6.62018e-10
-7.09118e-08
6.31008e-10
-7.15126e-08
6.00793e-10
-7.20839e-08
5.71344e-10
-7.26266e-08
5.4263e-10
-7.31412e-08
5.14616e-10
-7.36285e-08
4.87266e-10
-7.4089e-08
4.60533e-10
-7.45234e-08
4.34371e-10
-7.49321e-08
4.08727e-10
-7.53156e-08
3.8355e-10
-7.56744e-08
3.58785e-10
-7.60088e-08
3.3437e-10
-7.6319e-08
3.10243e-10
-7.66054e-08
2.86339e-10
-7.6868e-08
2.62592e-10
-7.71069e-08
2.38938e-10
-7.73222e-08
2.15308e-10
-7.75139e-08
1.9163e-10
-7.76817e-08
1.67832e-10
-7.78255e-08
1.4384e-10
-7.79451e-08
1.19581e-10
-7.80401e-08
9.49816e-11
-7.81101e-08
6.99687e-11
-7.81546e-08
4.44667e-11
-7.8173e-08
1.84005e-11
-7.81647e-08
-8.30457e-12
-7.81289e-08
-3.57212e-11
-7.8065e-08
-6.39203e-11
-7.79721e-08
-9.29714e-11
-7.78491e-08
-1.22943e-10
-7.76952e-08
-1.53902e-10
-7.75093e-08
-1.85914e-10
-7.72902e-08
-2.19041e-10
-7.70369e-08
-2.53341e-10
-7.6748e-08
-2.88866e-10
-7.64224e-08
-3.25664e-10
-7.60586e-08
-3.6378e-10
-7.56553e-08
-4.03251e-10
-7.52112e-08
-4.44109e-10
-7.47249e-08
-4.86378e-10
-7.41948e-08
-5.30075e-10
-7.36196e-08
-5.75208e-10
-7.29978e-08
-6.21777e-10
-7.2328e-08
-6.69771e-10
-7.16089e-08
-7.19165e-10
-7.08389e-08
-7.69925e-10
-7.00169e-08
-8.22003e-10
-6.91416e-08
-8.75338e-10
-6.82117e-08
-9.29856e-10
-6.72263e-08
-9.85465e-10
-6.61842e-08
-1.04206e-09
-6.50847e-08
-1.09952e-09
-6.3927e-08
-1.15769e-09
-6.27106e-08
-1.21643e-09
-6.1435e-08
-1.27554e-09
-6.01002e-08
-1.33483e-09
-5.87061e-08
-1.39408e-09
-5.72531e-08
-1.45306e-09
-5.57416e-08
-1.51149e-09
-5.41725e-08
-1.5691e-09
-5.25469e-08
-1.62557e-09
-5.08663e-08
-1.68059e-09
-4.91325e-08
-1.73381e-09
-4.73477e-08
-1.78486e-09
-4.55143e-08
-1.83335e-09
-4.36354e-08
-1.87887e-09
-4.17144e-08
-1.921e-09
-3.97551e-08
-1.95929e-09
-3.77618e-08
-1.99329e-09
-3.57393e-08
-2.02252e-09
-3.36928e-08
-2.0465e-09
-3.16281e-08
-2.06473e-09
-2.95514e-08
-2.07669e-09
-2.74695e-08
-2.08189e-09
-2.53897e-08
-2.07981e-09
-2.33198e-08
-2.06992e-09
-2.1268e-08
-2.05172e-09
-1.92433e-08
-2.0247e-09
-1.7255e-08
-1.98836e-09
-1.53127e-08
-1.94223e-09
-1.34269e-08
-1.88585e-09
-1.16081e-08
-1.81878e-09
-9.8675e-09
-1.74063e-09
-8.21645e-09
-1.65104e-09
-6.6667e-09
-1.54975e-09
-5.23016e-09
-1.43655e-09
-3.91881e-09
-1.31135e-09
-2.74457e-09
-1.17424e-09
-1.71906e-09
-1.02552e-09
-8.53235e-10
-8.65826e-10
-1.56935e-10
-6.96297e-10
3.61924e-10
-5.18857e-10
6.98586e-10
-3.36669e-10
8.53545e-10
-1.54968e-10
8.36045e-10
1.75025e-11
6.69909e-10
1.66149e-10
4.03882e-10
2.66038e-10
1.30766e-10
2.73126e-10
1.30764e-10
2.45504e-10
-3.59724e-10
6.34086e-10
-6.33806e-10
9.50072e-10
-5.60667e-10
1.04686e-09
-2.57656e-10
8.2856e-10
1.85341e-10
2.38647e-10
7.06636e-10
-7.51252e-10
1.26493e-09
-2.15016e-09
1.83292e-09
-3.95392e-09
2.39266e-09
-6.14958e-09
2.93239e-09
-8.71825e-09
3.44449e-09
-1.16373e-08
3.92412e-09
-1.48815e-08
4.36836e-09
-1.84245e-08
4.77563e-09
-2.22393e-08
5.14531e-09
-2.62986e-08
5.47747e-09
-3.05757e-08
5.77265e-09
-3.50441e-08
6.03178e-09
-3.96785e-08
6.25605e-09
-4.44543e-08
6.44683e-09
-4.93481e-08
6.60563e-09
-5.43375e-08
6.73407e-09
-5.94015e-08
6.8338e-09
-6.452e-08
6.90654e-09
-6.96745e-08
6.95399e-09
-7.48475e-08
6.97787e-09
-8.00229e-08
6.97988e-09
-8.51857e-08
6.96168e-09
-9.03221e-08
6.92491e-09
-9.54196e-08
6.87115e-09
-1.00467e-07
6.80194e-09
-1.05453e-07
6.71875e-09
-1.10369e-07
6.62301e-09
-1.15206e-07
6.51606e-09
-1.19958e-07
6.3992e-09
-1.24617e-07
6.27365e-09
-1.29178e-07
6.14057e-09
-1.33636e-07
6.00104e-09
-1.37987e-07
5.85609e-09
-1.42228e-07
5.70668e-09
-1.46356e-07
5.55368e-09
-1.50369e-07
5.39791e-09
-1.54265e-07
5.24015e-09
-1.58043e-07
5.08108e-09
-1.61703e-07
4.92134e-09
-1.65245e-07
4.76151e-09
-1.68669e-07
4.60211e-09
-1.71975e-07
4.4436e-09
-1.75165e-07
4.28641e-09
-1.78239e-07
4.1309e-09
-1.81199e-07
3.97739e-09
-1.84047e-07
3.82616e-09
-1.86785e-07
3.67744e-09
-1.89414e-07
3.53143e-09
-1.91937e-07
3.38828e-09
-1.94355e-07
3.24811e-09
-1.96672e-07
3.11101e-09
-1.98889e-07
2.97704e-09
-2.01009e-07
2.84621e-09
-2.03034e-07
2.71853e-09
-2.04966e-07
2.59398e-09
-2.06807e-07
2.47249e-09
-2.0856e-07
2.354e-09
-2.10227e-07
2.23841e-09
-2.1181e-07
2.12561e-09
-2.13311e-07
2.01546e-09
-2.14732e-07
1.90781e-09
-2.16074e-07
1.80251e-09
-2.17339e-07
1.69937e-09
-2.18528e-07
1.59821e-09
-2.19643e-07
1.4988e-09
-2.20686e-07
1.40094e-09
-2.21656e-07
1.30441e-09
-2.22554e-07
1.20896e-09
-2.23382e-07
1.11436e-09
-2.2414e-07
1.02036e-09
-2.24828e-07
9.26683e-10
-2.25446e-07
8.33076e-10
-2.25993e-07
7.39268e-10
-2.2647e-07
6.44986e-10
-2.26877e-07
5.49954e-10
-2.27211e-07
4.53888e-10
-2.27472e-07
3.56505e-10
-2.2766e-07
2.57519e-10
-2.27772e-07
1.56646e-10
-2.27807e-07
5.36044e-11
-2.27764e-07
-5.1885e-11
-2.27639e-07
-1.60099e-10
-2.27432e-07
-2.71311e-10
-2.27139e-07
-3.85788e-10
-2.26758e-07
-5.03791e-10
-2.26287e-07
-6.25573e-10
-2.25721e-07
-7.51374e-10
-2.25059e-07
-8.81425e-10
-2.24296e-07
-1.01594e-09
-2.2343e-07
-1.15512e-09
-2.22456e-07
-1.29913e-09
-2.21372e-07
-1.44815e-09
-2.20173e-07
-1.60231e-09
-2.18855e-07
-1.76172e-09
-2.17415e-07
-1.92646e-09
-2.15849e-07
-2.0966e-09
-2.14152e-07
-2.27215e-09
-2.12321e-07
-2.45309e-09
-2.10351e-07
-2.63938e-09
-2.08239e-07
-2.8309e-09
-2.05982e-07
-3.02752e-09
-2.03575e-07
-3.22904e-09
-2.01015e-07
-3.43521e-09
-1.98299e-07
-3.64575e-09
-1.95424e-07
-3.86028e-09
-1.92388e-07
-4.07838e-09
-1.89188e-07
-4.29957e-09
-1.85822e-07
-4.5233e-09
-1.82289e-07
-4.74892e-09
-1.78589e-07
-4.97576e-09
-1.74721e-07
-5.20303e-09
-1.70685e-07
-5.42989e-09
-1.66483e-07
-5.65541e-09
-1.62116e-07
-5.87857e-09
-1.57587e-07
-6.09829e-09
-1.52899e-07
-6.3134e-09
-1.48057e-07
-6.52266e-09
-1.43066e-07
-6.72472e-09
-1.37932e-07
-6.9182e-09
-1.32664e-07
-7.10162e-09
-1.2727e-07
-7.27341e-09
-1.21759e-07
-7.43197e-09
-1.16142e-07
-7.57562e-09
-1.10433e-07
-7.70262e-09
-1.04644e-07
-7.81118e-09
-9.87914e-08
-7.89948e-09
-9.28905e-08
-7.96566e-09
-8.69593e-08
-8.00782e-09
-8.10172e-08
-8.02406e-09
-7.50845e-08
-8.01248e-09
-6.91833e-08
-7.97118e-09
-6.33367e-08
-7.89829e-09
-5.75694e-08
-7.79197e-09
-5.19073e-08
-7.65046e-09
-4.63775e-08
-7.47207e-09
-4.10081e-08
-7.25521e-09
-3.58285e-08
-6.99846e-09
-3.08686e-08
-6.70054e-09
-2.61591e-08
-6.36046e-09
-2.17314e-08
-5.97748e-09
-1.76166e-08
-5.55133e-09
-1.38458e-08
-5.08223e-09
-1.04489e-08
-4.57115e-09
-7.45429e-09
-4.02009e-09
-4.88765e-09
-3.43247e-09
-2.7702e-09
-2.81374e-09
-1.11666e-09
-2.17239e-09
6.80806e-11
-1.5214e-09
7.93636e-10
-8.80524e-10
1.09107e-09
-2.79942e-10
1.02279e-09
2.3442e-10
6.95386e-10
5.93438e-10
2.73127e-10
6.95341e-10
4.03899e-10
2.45866e-10
-6.05583e-10
5.63576e-10
-9.51572e-10
6.97952e-10
-6.951e-10
4.75043e-10
-3.47451e-11
-2.2486e-10
8.85288e-10
-1.47769e-09
1.95948e-09
-3.32532e-09
3.11256e-09
-5.7843e-09
4.29188e-09
-8.85261e-09
5.46097e-09
-1.25149e-08
6.59473e-09
-1.67465e-08
7.67607e-09
-2.1516e-08
8.69364e-09
-2.67878e-08
9.64015e-09
-3.25234e-08
1.05113e-08
-3.86829e-08
1.13048e-08
-4.52256e-08
1.20201e-08
-5.21108e-08
1.26579e-08
-5.92986e-08
1.32195e-08
-6.67496e-08
1.37071e-08
-7.44261e-08
1.41234e-08
-8.22916e-08
1.44711e-08
-9.03112e-08
1.47536e-08
-9.84517e-08
1.49743e-08
-1.06682e-07
1.51367e-08
-1.14972e-07
1.52443e-08
-1.23295e-07
1.53007e-08
-1.31624e-07
1.53095e-08
-1.39937e-07
1.52742e-08
-1.4821e-07
1.51983e-08
-1.56424e-07
1.50852e-08
-1.64561e-07
1.49382e-08
-1.72602e-07
1.47605e-08
-1.80534e-07
1.4555e-08
-1.88343e-07
1.43248e-08
-1.96017e-07
1.40727e-08
-2.03544e-07
1.38012e-08
-2.10917e-07
1.35129e-08
-2.18126e-07
1.32103e-08
-2.25165e-07
1.28954e-08
-2.32029e-07
1.25704e-08
-2.38712e-07
1.22372e-08
-2.45212e-07
1.18977e-08
-2.51526e-07
1.15535e-08
-2.57651e-07
1.12061e-08
-2.63586e-07
1.08569e-08
-2.69332e-07
1.05073e-08
-2.74888e-07
1.01583e-08
-2.80255e-07
9.81097e-09
-2.85435e-07
9.46628e-09
-2.90429e-07
9.12502e-09
-2.9524e-07
8.78792e-09
-2.99869e-07
8.45558e-09
-3.0432e-07
8.12853e-09
-3.08596e-07
7.80721e-09
-3.127e-07
7.49196e-09
-3.16635e-07
7.18308e-09
-3.20405e-07
6.88075e-09
-3.24013e-07
6.5851e-09
-3.27463e-07
6.29621e-09
-3.30758e-07
6.01409e-09
-3.33903e-07
5.73867e-09
-3.369e-07
5.46987e-09
-3.39754e-07
5.20751e-09
-3.42467e-07
4.95141e-09
-3.45043e-07
4.70133e-09
-3.47484e-07
4.45697e-09
-3.49794e-07
4.21802e-09
-3.51976e-07
3.98413e-09
-3.54031e-07
3.7549e-09
-3.55963e-07
3.52993e-09
-3.57773e-07
3.30876e-09
-3.59463e-07
3.09094e-09
-3.61035e-07
2.87597e-09
-3.62489e-07
2.66334e-09
-3.63827e-07
2.45252e-09
-3.6505e-07
2.24296e-09
-3.66157e-07
2.03411e-09
-3.6715e-07
1.8254e-09
-3.68027e-07
1.61623e-09
-3.68788e-07
1.406e-09
-3.69432e-07
1.1941e-09
-3.69958e-07
9.79937e-10
-3.70364e-07
7.62885e-10
-3.70649e-07
5.42334e-10
-3.7081e-07
3.17671e-10
-3.70845e-07
8.82833e-11
-3.7075e-07
-1.46438e-10
-3.70523e-07
-3.87094e-10
-3.7016e-07
-6.34276e-10
-3.69657e-07
-8.88561e-10
-3.69011e-07
-1.15051e-09
-3.68216e-07
-1.42066e-09
-3.67267e-07
-1.69953e-09
-3.66161e-07
-1.98762e-09
-3.64892e-07
-2.28537e-09
-3.63454e-07
-2.59321e-09
-3.61841e-07
-2.91152e-09
-3.60049e-07
-3.24065e-09
-3.5807e-07
-3.58087e-09
-3.559e-07
-3.93242e-09
-3.53531e-07
-4.29548e-09
-3.50957e-07
-4.67013e-09
-3.48173e-07
-5.05641e-09
-3.45172e-07
-5.45427e-09
-3.41947e-07
-5.86357e-09
-3.38494e-07
-6.28407e-09
-3.34806e-07
-6.71545e-09
-3.30878e-07
-7.15727e-09
-3.26704e-07
-7.60897e-09
-3.2228e-07
-8.06987e-09
-3.17601e-07
-8.53919e-09
-3.12664e-07
-9.01597e-09
-3.07464e-07
-9.49915e-09
-3.02e-07
-9.98749e-09
-2.96269e-07
-1.04796e-08
-2.90271e-07
-1.0974e-08
-2.84005e-07
-1.1469e-08
-2.77472e-07
-1.19626e-08
-2.70675e-07
-1.2453e-08
-2.63615e-07
-1.29378e-08
-2.56299e-07
-1.34147e-08
-2.48731e-07
-1.38811e-08
-2.4092e-07
-1.43344e-08
-2.32873e-07
-1.47716e-08
-2.24601e-07
-1.51898e-08
-2.16117e-07
-1.55856e-08
-2.07435e-07
-1.59559e-08
-1.9857e-07
-1.6297e-08
-1.8954e-07
-1.66053e-08
-1.80365e-07
-1.68772e-08
-1.71068e-07
-1.71087e-08
-1.61671e-07
-1.7296e-08
-1.52202e-07
-1.74351e-08
-1.42688e-07
-1.75219e-08
-1.33159e-07
-1.75525e-08
-1.23649e-07
-1.75227e-08
-1.14192e-07
-1.74286e-08
-1.04824e-07
-1.72663e-08
-9.55837e-08
-1.70319e-08
-8.65123e-08
-1.67218e-08
-7.76517e-08
-1.63327e-08
-6.90457e-08
-1.58612e-08
-6.07394e-08
-1.53048e-08
-5.2779e-08
-1.46609e-08
-4.52114e-08
-1.3928e-08
-3.80839e-08
-1.3105e-08
-3.14433e-08
-1.21919e-08
-2.53354e-08
-1.11901e-08
-1.98041e-08
-1.01025e-08
-1.48898e-08
-8.93441e-09
-1.06279e-08
-7.69441e-09
-7.04628e-09
-6.39534e-09
-4.16241e-09
-5.05626e-09
-1.97882e-09
-3.70498e-09
-4.7747e-10
-2.38188e-09
3.8784e-10
-1.14527e-09
7.01286e-10
-7.90257e-11
5.96153e-10
6.98595e-10
2.66922e-10
1.02457e-09
6.70829e-10
1.63784e-10
-7.69407e-10
2.6486e-10
-1.05263e-09
4.44283e-11
-4.74646e-10
-6.77896e-10
6.87577e-10
-2.02887e-09
2.23626e-09
-4.09173e-09
4.02234e-09
-6.91458e-09
5.93541e-09
-1.0518e-08
7.89525e-09
-1.49011e-08
9.84413e-09
-2.00473e-08
1.17409e-08
-2.59277e-08
1.35565e-08
-3.25049e-08
1.52709e-08
-3.97356e-08
1.68708e-08
-4.7572e-08
1.83477e-08
-5.5964e-08
1.96968e-08
-6.48602e-08
2.09163e-08
-7.42086e-08
2.20063e-08
-8.39577e-08
2.29686e-08
-9.40568e-08
2.38062e-08
-1.04457e-07
2.45231e-08
-1.15109e-07
2.51237e-08
-1.25969e-07
2.56133e-08
-1.36992e-07
2.59974e-08
-1.48137e-07
2.62816e-08
-1.59365e-07
2.64719e-08
-1.70638e-07
2.65743e-08
-1.81923e-07
2.65947e-08
-1.93188e-07
2.65391e-08
-2.04403e-07
2.64133e-08
-2.15541e-07
2.6223e-08
-2.26577e-07
2.5974e-08
-2.37488e-07
2.56715e-08
-2.48254e-07
2.53207e-08
-2.58856e-07
2.49268e-08
-2.69278e-07
2.44945e-08
-2.79505e-07
2.40284e-08
-2.89525e-07
2.35328e-08
-2.99326e-07
2.30117e-08
-3.089e-07
2.24691e-08
-3.18238e-07
2.19085e-08
-3.27334e-07
2.13333e-08
-3.36183e-07
2.07466e-08
-3.44781e-07
2.01513e-08
-3.53125e-07
1.95501e-08
-3.61213e-07
1.89454e-08
-3.69045e-07
1.83394e-08
-3.76621e-07
1.77341e-08
-3.83941e-07
1.71315e-08
-3.91008e-07
1.65329e-08
-3.97823e-07
1.594e-08
-4.04389e-07
1.5354e-08
-4.10709e-07
1.47758e-08
-4.16787e-07
1.42066e-08
-4.22627e-07
1.3647e-08
-4.28233e-07
1.30976e-08
-4.33609e-07
1.25591e-08
-4.3876e-07
1.20316e-08
-4.4369e-07
1.15156e-08
-4.48405e-07
1.1011e-08
-4.52909e-07
1.0518e-08
-4.57207e-07
1.00364e-08
-4.61303e-07
9.56611e-09
-4.65202e-07
9.10685e-09
-4.68909e-07
8.6583e-09
-4.72428e-07
8.22003e-09
-4.75762e-07
7.79156e-09
-4.78917e-07
7.37236e-09
-4.81894e-07
6.96182e-09
-4.84699e-07
6.55927e-09
-4.87333e-07
6.16401e-09
-4.89799e-07
5.77528e-09
-4.92101e-07
5.39226e-09
-4.94239e-07
5.01412e-09
-4.96216e-07
4.63999e-09
-4.98032e-07
4.26894e-09
-4.99689e-07
3.90005e-09
-5.01187e-07
3.53232e-09
-5.02527e-07
3.16479e-09
-5.03707e-07
2.79643e-09
-5.04727e-07
2.42623e-09
-5.05586e-07
2.05314e-09
-5.06282e-07
1.67612e-09
-5.06814e-07
1.2941e-09
-5.07177e-07
9.06034e-10
-5.0737e-07
5.10856e-10
-5.0739e-07
1.07515e-10
-5.07231e-07
-3.0503e-10
-5.0689e-07
-7.27806e-10
-5.06363e-07
-1.16182e-09
-5.05643e-07
-1.60807e-09
-5.04726e-07
-2.0675e-09
-5.03606e-07
-2.54105e-09
-5.02276e-07
-3.02958e-09
-5.0073e-07
-3.53394e-09
-4.9896e-07
-4.0549e-09
-4.9696e-07
-4.59317e-09
-4.94722e-07
-5.1494e-09
-4.92239e-07
-5.72415e-09
-4.89502e-07
-6.3179e-09
-4.86503e-07
-6.93103e-09
-4.83235e-07
-7.56381e-09
-4.79688e-07
-8.21639e-09
-4.75856e-07
-8.88881e-09
-4.71729e-07
-9.58094e-09
-4.673e-07
-1.02925e-08
-4.62561e-07
-1.10232e-08
-4.57505e-07
-1.17722e-08
-4.52123e-07
-1.25389e-08
-4.4641e-07
-1.33223e-08
-4.40358e-07
-1.41212e-08
-4.33963e-07
-1.49341e-08
-4.2722e-07
-1.57595e-08
-4.20124e-07
-1.65954e-08
-4.12671e-07
-1.74397e-08
-4.04861e-07
-1.82901e-08
-3.96691e-07
-1.91439e-08
-3.88162e-07
-1.9998e-08
-3.79275e-07
-2.08494e-08
-3.70034e-07
-2.16945e-08
-3.60442e-07
-2.25294e-08
-3.50507e-07
-2.33502e-08
-3.40235e-07
-2.41524e-08
-3.29638e-07
-2.49313e-08
-3.18728e-07
-2.5682e-08
-3.07519e-07
-2.63992e-08
-2.96027e-07
-2.70775e-08
-2.84271e-07
-2.77112e-08
-2.72274e-07
-2.82942e-08
-2.60059e-07
-2.88204e-08
-2.47653e-07
-2.92834e-08
-2.35085e-07
-2.96767e-08
-2.22387e-07
-2.99936e-08
-2.09595e-07
-3.02274e-08
-1.96746e-07
-3.03712e-08
-1.8388e-07
-3.04182e-08
-1.71041e-07
-3.03617e-08
-1.58274e-07
-3.0195e-08
-1.45629e-07
-2.99116e-08
-1.33156e-07
-2.95051e-08
-1.20908e-07
-2.89696e-08
-1.08941e-07
-2.82997e-08
-9.73122e-08
-2.74902e-08
-8.60799e-08
-2.6537e-08
-7.53043e-08
-2.54366e-08
-6.50457e-08
-2.41866e-08
-5.53645e-08
-2.27862e-08
-4.63201e-08
-2.12363e-08
-3.79702e-08
-1.954e-08
-3.03689e-08
-1.77037e-08
-2.35658e-08
-1.57376e-08
-1.76031e-08
-1.36571e-08
-1.25133e-08
-1.14852e-08
-8.3154e-09
-9.25414e-09
-5.01052e-09
-7.00986e-09
-2.57602e-09
-4.81636e-09
-9.58634e-10
-2.76267e-09
-6.59485e-11
-9.71731e-10
2.43012e-10
3.89634e-10
1.69023e-10
1.09856e-09
8.39857e-10
3.77577e-11
-8.07204e-10
-1.74092e-10
-8.40739e-10
-8.70423e-10
2.21735e-10
-2.22134e-09
2.03851e-09
-4.34865e-09
4.36354e-09
-7.33386e-09
7.00753e-09
-1.12249e-08
9.82648e-09
-1.60424e-08
1.27127e-08
-2.17848e-08
1.55866e-08
-2.84334e-08
1.83894e-08
-3.59559e-08
2.1079e-08
-4.431e-08
2.36251e-08
-5.34462e-08
2.6007e-08
-6.33096e-08
2.8211e-08
-7.38419e-08
3.02291e-08
-8.49828e-08
3.20572e-08
-9.66711e-08
3.36946e-08
-1.08846e-07
3.51432e-08
-1.21446e-07
3.64066e-08
-1.34413e-07
3.74901e-08
-1.47689e-07
3.84e-08
-1.6122e-07
3.91435e-08
-1.74951e-07
3.97286e-08
-1.88833e-07
4.01634e-08
-2.02817e-07
4.04565e-08
-2.1686e-07
4.06168e-08
-2.30918e-07
4.0653e-08
-2.44953e-07
4.05738e-08
-2.58927e-07
4.03881e-08
-2.72809e-07
4.01044e-08
-2.86566e-07
3.9731e-08
-3.0017e-07
3.92761e-08
-3.13597e-07
3.87475e-08
-3.26823e-07
3.81527e-08
-3.39828e-07
3.74991e-08
-3.52593e-07
3.67934e-08
-3.65102e-07
3.60423e-08
-3.77342e-07
3.52519e-08
-3.89301e-07
3.44281e-08
-4.00969e-07
3.35763e-08
-4.12337e-07
3.27017e-08
-4.234e-07
3.1809e-08
-4.34151e-07
3.09027e-08
-4.44588e-07
2.99867e-08
-4.54707e-07
2.90649e-08
-4.64509e-07
2.81406e-08
-4.73991e-07
2.7217e-08
-4.83157e-07
2.62967e-08
-4.92006e-07
2.53823e-08
-5.00542e-07
2.4476e-08
-5.08768e-07
2.35797e-08
-5.16687e-07
2.26951e-08
-5.24304e-07
2.18237e-08
-5.31624e-07
2.09665e-08
-5.38651e-07
2.01247e-08
-5.45391e-07
1.92989e-08
-5.51849e-07
1.84899e-08
-5.58031e-07
1.76978e-08
-5.63943e-07
1.69231e-08
-5.69591e-07
1.61656e-08
-5.7498e-07
1.54254e-08
-5.80116e-07
1.47022e-08
-5.85005e-07
1.39956e-08
-5.89652e-07
1.33051e-08
-5.94062e-07
1.26302e-08
-5.9824e-07
1.197e-08
-6.02192e-07
1.13238e-08
-6.0592e-07
1.06906e-08
-6.09431e-07
1.00696e-08
-6.12726e-07
9.45947e-09
-6.1581e-07
8.85923e-09
-6.18685e-07
8.26762e-09
-6.21355e-07
7.68336e-09
-6.2382e-07
7.10512e-09
-6.26082e-07
6.53153e-09
-6.28143e-07
5.96114e-09
-6.30004e-07
5.3925e-09
-6.31663e-07
4.82412e-09
-6.33121e-07
4.25445e-09
-6.34377e-07
3.68195e-09
-6.35429e-07
3.10504e-09
-6.36275e-07
2.52213e-09
-6.36912e-07
1.93162e-09
-6.37338e-07
1.33191e-09
-6.37549e-07
7.21404e-10
-6.3754e-07
9.85069e-11
-6.37306e-07
-5.38355e-10
-6.36843e-07
-1.19073e-09
-6.36145e-07
-1.86015e-09
-6.35205e-07
-2.5481e-09
-6.34016e-07
-3.25601e-09
-6.32572e-07
-3.98528e-09
-6.30865e-07
-4.73722e-09
-6.28885e-07
-5.51308e-09
-6.26626e-07
-6.31402e-09
-6.24078e-07
-7.14111e-09
-6.21232e-07
-7.9953e-09
-6.18079e-07
-8.87743e-09
-6.14609e-07
-9.7882e-09
-6.10812e-07
-1.07282e-08
-6.06678e-07
-1.16977e-08
-6.02197e-07
-1.2697e-08
-5.9736e-07
-1.37261e-08
-5.92156e-07
-1.47847e-08
-5.86576e-07
-1.58726e-08
-5.8061e-07
-1.69889e-08
-5.7425e-07
-1.81328e-08
-5.67486e-07
-1.9303e-08
-5.6031e-07
-2.04979e-08
-5.52715e-07
-2.17159e-08
-5.44695e-07
-2.29547e-08
-5.36243e-07
-2.42117e-08
-5.27354e-07
-2.54842e-08
-5.18025e-07
-2.67688e-08
-5.08253e-07
-2.80619e-08
-4.98038e-07
-2.93594e-08
-4.87379e-07
-3.06568e-08
-4.76279e-07
-3.19493e-08
-4.64742e-07
-3.32316e-08
-4.52773e-07
-3.44977e-08
-4.40382e-07
-3.57416e-08
-4.27578e-07
-3.69565e-08
-4.14374e-07
-3.81355e-08
-4.00785e-07
-3.9271e-08
-3.86829e-07
-4.03552e-08
-3.72527e-07
-4.13796e-08
-3.57902e-07
-4.23358e-08
-3.42981e-07
-4.32147e-08
-3.27795e-07
-4.4007e-08
-3.12375e-07
-4.47032e-08
-2.96759e-07
-4.52934e-08
-2.80985e-07
-4.57677e-08
-2.65096e-07
-4.61159e-08
-2.49139e-07
-4.63281e-08
-2.33163e-07
-4.6394e-08
-2.17222e-07
-4.63036e-08
-2.0137e-07
-4.6047e-08
-1.85666e-07
-4.56148e-08
-1.70174e-07
-4.49977e-08
-1.54956e-07
-4.41872e-08
-1.40081e-07
-4.31754e-08
-1.25615e-07
-4.19553e-08
-1.11631e-07
-4.05211e-08
-9.81996e-08
-3.88683e-08
-8.53919e-08
-3.69943e-08
-7.32794e-08
-3.48987e-08
-6.19319e-08
-3.25838e-08
-5.14163e-08
-3.00556e-08
-4.17954e-08
-2.73247e-08
-3.31255e-08
-2.44075e-08
-2.54545e-08
-2.13281e-08
-1.88187e-08
-1.81209e-08
-1.32395e-08
-1.48334e-08
-8.71842e-09
-1.15309e-08
-5.23284e-09
-8.30191e-09
-2.72949e-09
-5.26597e-09
-1.11792e-09
-2.58332e-09
-2.63077e-10
-4.65236e-10
2.32807e-11
8.12204e-10
8.63138e-10
-1.10585e-10
-6.96615e-10
-6.93963e-10
-2.57353e-10
-1.946e-09
1.47379e-09
-4.01454e-09
4.10707e-09
-7.00741e-09
7.3564e-09
-1.09974e-08
1.09975e-08
-1.60269e-08
1.4856e-08
-2.21126e-08
1.87985e-08
-2.925e-08
2.27239e-08
-3.74168e-08
2.65563e-08
-4.65772e-08
3.02393e-08
-5.66842e-08
3.37321e-08
-6.7683e-08
3.70057e-08
-7.95125e-08
4.00405e-08
-9.21076e-08
4.28243e-08
-1.05401e-07
4.53504e-08
-1.19323e-07
4.76169e-08
-1.33805e-07
4.96253e-08
-1.48778e-07
5.13798e-08
-1.64175e-07
5.28869e-08
-1.7993e-07
5.41546e-08
-1.95979e-07
5.51925e-08
-2.12261e-07
5.60107e-08
-2.28718e-07
5.66205e-08
-2.45295e-07
5.70333e-08
-2.61939e-07
5.7261e-08
-2.78602e-07
5.73157e-08
-2.95237e-07
5.72092e-08
-3.11803e-07
5.69536e-08
-3.28259e-07
5.65607e-08
-3.4457e-07
5.60419e-08
-3.60702e-07
5.54085e-08
-3.76626e-07
5.46715e-08
-3.92315e-07
5.38412e-08
-4.07743e-07
5.29278e-08
-4.22891e-07
5.19408e-08
-4.37738e-07
5.08894e-08
-4.52268e-07
4.97823e-08
-4.66468e-07
4.86275e-08
-4.80324e-07
4.74329e-08
-4.93828e-07
4.62055e-08
-5.06971e-07
4.49521e-08
-5.19747e-07
4.36788e-08
-5.32152e-07
4.23913e-08
-5.44182e-07
4.1095e-08
-5.55836e-07
3.97945e-08
-5.67113e-07
3.84943e-08
-5.78015e-07
3.71983e-08
-5.88543e-07
3.591e-08
-5.98699e-07
3.46325e-08
-6.08488e-07
3.33686e-08
-6.17913e-07
3.21206e-08
-6.2698e-07
3.08905e-08
-6.35694e-07
2.96802e-08
-6.4406e-07
2.8491e-08
-6.52085e-07
2.73239e-08
-6.59775e-07
2.618e-08
-6.67137e-07
2.50596e-08
-6.74177e-07
2.39632e-08
-6.80902e-07
2.28908e-08
-6.87319e-07
2.18423e-08
-6.93435e-07
2.08175e-08
-6.99255e-07
1.98157e-08
-7.04786e-07
1.88364e-08
-7.10035e-07
1.78787e-08
-7.15006e-07
1.69416e-08
-7.19706e-07
1.60239e-08
-7.2414e-07
1.51244e-08
-7.28312e-07
1.42418e-08
-7.32227e-07
1.33744e-08
-7.35889e-07
1.25208e-08
-7.393e-07
1.16791e-08
-7.42465e-07
1.08477e-08
-7.45384e-07
1.00247e-08
-7.48061e-07
9.20809e-09
-7.50496e-07
8.39595e-09
-7.52689e-07
7.58622e-09
-7.54642e-07
6.77679e-09
-7.56353e-07
5.96553e-09
-7.57821e-07
5.15027e-09
-7.59045e-07
4.32881e-09
-7.60022e-07
3.49892e-09
-7.60749e-07
2.65839e-09
-7.61222e-07
1.80497e-09
-7.61437e-07
9.36428e-10
-7.61389e-07
5.05525e-11
-7.61072e-07
-8.54854e-10
-7.60481e-07
-1.78195e-09
-7.59608e-07
-2.73287e-09
-7.58447e-07
-3.70966e-09
-7.56988e-07
-4.71432e-09
-7.55225e-07
-5.74879e-09
-7.53147e-07
-6.81488e-09
-7.50746e-07
-7.91433e-09
-7.48011e-07
-9.04874e-09
-7.44933e-07
-1.02196e-08
-7.415e-07
-1.14281e-08
-7.37702e-07
-1.26756e-08
-7.33527e-07
-1.39628e-08
-7.28965e-07
-1.52906e-08
-7.24003e-07
-1.66595e-08
-7.1863e-07
-1.80697e-08
-7.12835e-07
-1.95213e-08
-7.06606e-07
-2.10138e-08
-6.99932e-07
-2.25466e-08
-6.92802e-07
-2.41188e-08
-6.85206e-07
-2.5729e-08
-6.77133e-07
-2.73755e-08
-6.68575e-07
-2.90561e-08
-6.59523e-07
-3.07682e-08
-6.49969e-07
-3.25088e-08
-6.39906e-07
-3.42742e-08
-6.2933e-07
-3.60605e-08
-6.18236e-07
-3.78629e-08
-6.06621e-07
-3.96765e-08
-5.94485e-07
-4.14954e-08
-5.81828e-07
-4.33135e-08
-5.68654e-07
-4.51237e-08
-5.54967e-07
-4.69187e-08
-5.40774e-07
-4.86904e-08
-5.26086e-07
-5.04302e-08
-5.10913e-07
-5.21286e-08
-4.95273e-07
-5.37759e-08
-4.79182e-07
-5.53617e-08
-4.62663e-07
-5.68748e-08
-4.45738e-07
-5.83039e-08
-4.28437e-07
-5.96369e-08
-4.10791e-07
-6.08612e-08
-3.92834e-07
-6.19641e-08
-3.74605e-07
-6.29322e-08
-3.56146e-07
-6.3752e-08
-3.37504e-07
-6.44098e-08
-3.18728e-07
-6.48916e-08
-2.99873e-07
-6.51836e-08
-2.80995e-07
-6.52717e-08
-2.62156e-07
-6.51424e-08
-2.43421e-07
-6.47823e-08
-2.24858e-07
-6.41783e-08
-2.06537e-07
-6.33182e-08
-1.88534e-07
-6.21905e-08
-1.70924e-07
-6.07849e-08
-1.53787e-07
-5.90922e-08
-1.37203e-07
-5.71052e-08
-1.21253e-07
-5.48185e-08
-1.06018e-07
-5.22293e-08
-9.15786e-08
-4.93382e-08
-7.80128e-08
-4.61496e-08
-6.53955e-08
-4.26728e-08
-5.37966e-08
-3.89236e-08
-4.32785e-08
-3.49256e-08
-3.38941e-08
-3.07125e-08
-2.56842e-08
-2.63309e-08
-1.86734e-08
-2.18442e-08
-1.2867e-08
-1.73373e-08
-8.24628e-09
-1.29226e-08
-4.76413e-09
-8.74809e-09
-2.33991e-09
-5.00752e-09
-8.54623e-10
-1.95053e-09
-1.4583e-10
1.03417e-10
7.17303e-10
-2.68834e-10
-4.2776e-10
-1.25598e-09
7.29784e-10
-3.11215e-09
3.32993e-09
-5.95563e-09
6.95054e-09
-9.87388e-09
1.12746e-08
-1.49255e-08
1.60491e-08
-2.11431e-08
2.10735e-08
-2.8536e-08
2.61914e-08
-3.70939e-08
3.12819e-08
-4.67899e-08
3.62522e-08
-5.75832e-08
4.10326e-08
-6.94222e-08
4.55711e-08
-8.22468e-08
4.98303e-08
-9.59904e-08
5.37842e-08
-1.10582e-07
5.7416e-08
-1.25948e-07
6.07162e-08
-1.42012e-07
6.36811e-08
-1.58698e-07
6.63116e-08
-1.75931e-07
6.86125e-08
-1.93635e-07
7.05912e-08
-2.11738e-07
7.22576e-08
-2.30169e-07
7.36233e-08
-2.4886e-07
7.47015e-08
-2.67745e-07
7.5506e-08
-2.86764e-07
7.60515e-08
-3.05856e-07
7.63534e-08
-3.24967e-07
7.6427e-08
-3.44046e-07
7.6288e-08
-3.63044e-07
7.59518e-08
-3.81917e-07
7.54337e-08
-4.00624e-07
7.47489e-08
-4.19128e-07
7.3912e-08
-4.37394e-07
7.29373e-08
-4.55391e-07
7.18386e-08
-4.73092e-07
7.0629e-08
-4.90473e-07
6.93214e-08
-5.07511e-07
6.79276e-08
-5.24188e-07
6.64592e-08
-5.40487e-07
6.4927e-08
-5.56395e-07
6.3341e-08
-5.71901e-07
6.17109e-08
-5.86994e-07
6.00454e-08
-6.01668e-07
5.83529e-08
-6.15918e-07
5.66408e-08
-6.29739e-07
5.49162e-08
-6.4313e-07
5.31855e-08
-6.5609e-07
5.14544e-08
-6.6862e-07
4.97282e-08
-6.80721e-07
4.80116e-08
-6.92398e-07
4.63088e-08
-7.03652e-07
4.46234e-08
-7.1449e-07
4.29586e-08
-7.24917e-07
4.13172e-08
-7.34938e-07
3.97014e-08
-7.44561e-07
3.81132e-08
-7.53791e-07
3.65541e-08
-7.62636e-07
3.50251e-08
-7.71103e-07
3.35271e-08
-7.79201e-07
3.20606e-08
-7.86936e-07
3.06257e-08
-7.94316e-07
2.92222e-08
-8.01348e-07
2.78498e-08
-8.0804e-07
2.65078e-08
-8.14399e-07
2.51954e-08
-8.20432e-07
2.39114e-08
-8.26145e-07
2.26546e-08
-8.31544e-07
2.14234e-08
-8.36636e-07
2.02162e-08
-8.41425e-07
1.90311e-08
-8.45917e-07
1.78662e-08
-8.50116e-07
1.67194e-08
-8.54025e-07
1.55884e-08
-8.57648e-07
1.44709e-08
-8.60988e-07
1.33645e-08
-8.64046e-07
1.22665e-08
-8.66825e-07
1.11743e-08
-8.69324e-07
1.00853e-08
-8.71544e-07
8.99669e-09
-8.73484e-07
7.9056e-09
-8.75143e-07
6.80917e-09
-8.76518e-07
5.70452e-09
-8.77608e-07
4.5887e-09
-8.78409e-07
3.45877e-09
-8.78915e-07
2.31179e-09
-8.79124e-07
1.1448e-09
-8.79028e-07
-4.51172e-11
-8.78622e-07
-1.26085e-09
-8.77899e-07
-2.50526e-09
-8.76851e-07
-3.78112e-09
-8.75469e-07
-5.09115e-09
-8.73745e-07
-6.43799e-09
-8.7167e-07
-7.82415e-09
-8.69233e-07
-9.25203e-09
-8.66423e-07
-1.07239e-08
-8.6323e-07
-1.22418e-08
-8.59642e-07
-1.38078e-08
-8.55647e-07
-1.54234e-08
-8.51232e-07
-1.70902e-08
-8.46385e-07
-1.88094e-08
-8.41094e-07
-2.05819e-08
-8.35345e-07
-2.24084e-08
-8.29126e-07
-2.42892e-08
-8.22423e-07
-2.62242e-08
-8.15224e-07
-2.82129e-08
-8.07516e-07
-3.02544e-08
-7.99287e-07
-3.23475e-08
-7.90526e-07
-3.44903e-08
-7.81221e-07
-3.66804e-08
-7.71362e-07
-3.89149e-08
-7.6094e-07
-4.11904e-08
-7.49946e-07
-4.35028e-08
-7.38373e-07
-4.58473e-08
-7.26215e-07
-4.82185e-08
-7.13468e-07
-5.06104e-08
-7.00128e-07
-5.3016e-08
-6.86196e-07
-5.54278e-08
-6.71672e-07
-5.78376e-08
-6.56559e-07
-6.02361e-08
-6.40864e-07
-6.26136e-08
-6.24595e-07
-6.49593e-08
-6.07764e-07
-6.72618e-08
-5.90384e-07
-6.95088e-08
-5.72472e-07
-7.16874e-08
-5.5405e-07
-7.37838e-08
-5.35141e-07
-7.57834e-08
-5.15774e-07
-7.76712e-08
-4.9598e-07
-7.94314e-08
-4.75793e-07
-8.10474e-08
-4.55255e-07
-8.25025e-08
-4.34408e-07
-8.37792e-08
-4.133e-07
-8.48599e-08
-3.91983e-07
-8.57265e-08
-3.70514e-07
-8.6361e-08
-3.48952e-07
-8.67451e-08
-3.27363e-07
-8.6861e-08
-3.05815e-07
-8.66907e-08
-2.8438e-07
-8.62171e-08
-2.63135e-07
-8.54235e-08
-2.42159e-07
-8.42943e-08
-2.21534e-07
-8.2815e-08
-2.01347e-07
-8.09725e-08
-1.81683e-07
-7.87557e-08
-1.62633e-07
-7.61557e-08
-1.44285e-07
-7.31665e-08
-1.26728e-07
-6.97855e-08
-1.10052e-07
-6.60144e-08
-9.43419e-08
-6.18601e-08
-7.96788e-08
-5.73359e-08
-6.61391e-08
-5.24633e-08
-5.37913e-08
-4.72734e-08
-4.26937e-08
-4.18101e-08
-3.2892e-08
-3.61325e-08
-2.44165e-08
-3.03197e-08
-1.72786e-08
-2.44753e-08
-1.14675e-08
-1.87337e-08
-6.94705e-09
-1.32685e-08
-3.65248e-09
-8.30208e-09
-1.48783e-09
-4.11518e-09
-3.24335e-10
-1.06007e-09
3.92965e-10
-4.29737e-10
1.98446e-12
-1.83528e-09
2.13532e-09
-4.32123e-09
5.81586e-09
-7.97268e-09
1.0602e-08
-1.28527e-08
1.61546e-08
-1.90018e-08
2.21982e-08
-2.64391e-08
2.85108e-08
-3.51639e-08
3.49162e-08
-4.51579e-08
4.12758e-08
-5.63874e-08
4.74817e-08
-6.88059e-08
5.34511e-08
-8.23564e-08
5.91216e-08
-9.69734e-08
6.44473e-08
-1.12585e-07
6.93958e-08
-1.29115e-07
7.39456e-08
-1.46483e-07
7.8084e-08
-1.64607e-07
8.18055e-08
-1.83406e-07
8.51103e-08
-2.02797e-07
8.80034e-08
-2.22699e-07
9.04933e-08
-2.43033e-07
9.25916e-08
-2.63722e-07
9.43123e-08
-2.84691e-07
9.56712e-08
-3.05871e-07
9.66852e-08
-3.27192e-07
9.73725e-08
-3.4859e-07
9.77518e-08
-3.70005e-07
9.78424e-08
-3.91381e-07
9.76635e-08
-4.12664e-07
9.72346e-08
-4.33805e-07
9.65748e-08
-4.54759e-07
9.5703e-08
-4.75485e-07
9.46378e-08
-4.95944e-07
9.33969e-08
-5.16104e-07
9.19979e-08
-5.35932e-07
9.04575e-08
-5.55402e-07
8.87915e-08
-5.7449e-07
8.70154e-08
-5.93175e-07
8.51436e-08
-6.11437e-07
8.31898e-08
-6.29263e-07
8.11669e-08
-6.46639e-07
7.9087e-08
-6.63555e-07
7.69613e-08
-6.80003e-07
7.48003e-08
-6.95976e-07
7.26138e-08
-7.1147e-07
7.04105e-08
-7.26483e-07
6.81988e-08
-7.41015e-07
6.59859e-08