/*--------------------------------*- C++ -*----------------------------------*\
  =========                 |
  \\      /  F ield         | OpenFOAM: The Open Source CFD Toolbox
   \\    /   O peration     | Website:  https://openfoam.org
    \\  /    A nd           | Version:  7
     \\/     M anipulation  |
\*---------------------------------------------------------------------------*/
FoamFile
{
    version     2.0;
    format      ascii;
    class       volVectorField;
    location    "0.225";
    object      U;
}
// * * * * * * * * * * * * * * * * * * * * * * * * * * * * * * * * * * * * * //

dimensions      [0 1 -1 0 0 0 0];

internalField   nonuniform List<vector> 
12800
(
(8.31487e-06 -8.33255e-06 0)
(3.70708e-05 -1.854e-05 0)
(7.85247e-05 -1.97128e-05 0)
(0.00011324 -1.53537e-05 0)
(0.000129983 -8.31087e-06 0)
(0.000123869 -1.38129e-07 0)
(9.27551e-05 8.34408e-06 0)
(3.60266e-05 1.66959e-05 0)
(-4.59591e-05 2.46846e-05 0)
(-0.000152254 3.21907e-05 0)
(-0.00028156 3.91546e-05 0)
(-0.000432369 4.55514e-05 0)
(-0.00060306 5.13756e-05 0)
(-0.000791956 5.66338e-05 0)
(-0.000997364 6.13402e-05 0)
(-0.00121761 6.55133e-05 0)
(-0.00145105 6.91749e-05 0)
(-0.00169609 7.23485e-05 0)
(-0.0019512 7.50589e-05 0)
(-0.00221491 7.73313e-05 0)
(-0.00248582 7.91914e-05 0)
(-0.00276259 8.06646e-05 0)
(-0.003044 8.17763e-05 0)
(-0.00332885 8.25514e-05 0)
(-0.00361605 8.30142e-05 0)
(-0.00390458 8.31885e-05 0)
(-0.0041935 8.30973e-05 0)
(-0.00448192 8.27629e-05 0)
(-0.00476904 8.22067e-05 0)
(-0.00505414 8.14493e-05 0)
(-0.00533653 8.05105e-05 0)
(-0.00561562 7.94089e-05 0)
(-0.00589086 7.81625e-05 0)
(-0.00616176 7.67881e-05 0)
(-0.00642791 7.53018e-05 0)
(-0.00668892 7.37185e-05 0)
(-0.00694446 7.20524e-05 0)
(-0.00719426 7.03166e-05 0)
(-0.00743808 6.85236e-05 0)
(-0.00767573 6.66846e-05 0)
(-0.00790704 6.48102e-05 0)
(-0.0081319 6.29102e-05 0)
(-0.00835022 6.09934e-05 0)
(-0.00856193 5.90681e-05 0)
(-0.00876701 5.71415e-05 0)
(-0.00896545 5.52204e-05 0)
(-0.00915727 5.33108e-05 0)
(-0.00934249 5.14179e-05 0)
(-0.00952118 4.95464e-05 0)
(-0.0096934 4.77006e-05 0)
(-0.00985924 4.58838e-05 0)
(-0.0100188 4.40992e-05 0)
(-0.0101722 4.23492e-05 0)
(-0.0103195 4.06359e-05 0)
(-0.0104608 3.89608e-05 0)
(-0.0105963 3.73252e-05 0)
(-0.0107262 3.57298e-05 0)
(-0.0108504 3.4175e-05 0)
(-0.0109693 3.2661e-05 0)
(-0.0110829 3.11875e-05 0)
(-0.0111913 2.9754e-05 0)
(-0.0112947 2.83596e-05 0)
(-0.0113931 2.70033e-05 0)
(-0.0114868 2.56838e-05 0)
(-0.0115759 2.43995e-05 0)
(-0.0116604 2.31488e-05 0)
(-0.0117405 2.19297e-05 0)
(-0.0118163 2.07401e-05 0)
(-0.0118879 1.95778e-05 0)
(-0.0119553 1.84403e-05 0)
(-0.0120186 1.73251e-05 0)
(-0.012078 1.62295e-05 0)
(-0.0121334 1.51508e-05 0)
(-0.0121849 1.40859e-05 0)
(-0.0122326 1.3032e-05 0)
(-0.0122765 1.19859e-05 0)
(-0.0123166 1.09445e-05 0)
(-0.012353 9.90441e-06 0)
(-0.0123855 8.86239e-06 0)
(-0.0124143 7.81504e-06 0)
(-0.0124392 6.75894e-06 0)
(-0.0124603 5.69067e-06 0)
(-0.0124774 4.60675e-06 0)
(-0.0124907 3.50367e-06 0)
(-0.0124998 2.37791e-06 0)
(-0.0125049 1.22594e-06 0)
(-0.0125057 4.42416e-08 0)
(-0.0125022 -1.17067e-06 0)
(-0.0124943 -2.4222e-06 0)
(-0.0124818 -3.71372e-06 0)
(-0.0124645 -5.04851e-06 0)
(-0.0124424 -6.4298e-06 0)
(-0.0124153 -7.86069e-06 0)
(-0.012383 -9.34416e-06 0)
(-0.0123452 -1.0883e-05 0)
(-0.0123019 -1.248e-05 0)
(-0.0122528 -1.41374e-05 0)
(-0.0121977 -1.58575e-05 0)
(-0.0121364 -1.76423e-05 0)
(-0.0120687 -1.94934e-05 0)
(-0.0119943 -2.14121e-05 0)
(-0.0119131 -2.33996e-05 0)
(-0.0118247 -2.54562e-05 0)
(-0.0117291 -2.75824e-05 0)
(-0.0116258 -2.97776e-05 0)
(-0.0115148 -3.20412e-05 0)
(-0.0113957 -3.43717e-05 0)
(-0.0112685 -3.67673e-05 0)
(-0.0111327 -3.92253e-05 0)
(-0.0109884 -4.17426e-05 0)
(-0.0108353 -4.4315e-05 0)
(-0.0106731 -4.69379e-05 0)
(-0.0105019 -4.96058e-05 0)
(-0.0103213 -5.23122e-05 0)
(-0.0101315 -5.505e-05 0)
(-0.00993217 -5.78108e-05 0)
(-0.00972338 -6.05856e-05 0)
(-0.0095051 -6.33644e-05 0)
(-0.00927736 -6.61359e-05 0)
(-0.00904022 -6.88881e-05 0)
(-0.00879378 -7.16078e-05 0)
(-0.00853821 -7.42807e-05 0)
(-0.0082737 -7.68917e-05 0)
(-0.00800052 -7.94244e-05 0)
(-0.00771899 -8.18614e-05 0)
(-0.00742948 -8.41845e-05 0)
(-0.00713244 -8.63743e-05 0)
(-0.00682836 -8.84105e-05 0)
(-0.00651784 -9.02719e-05 0)
(-0.00620152 -9.19366e-05 0)
(-0.00588012 -9.33816e-05 0)
(-0.00555444 -9.45835e-05 0)
(-0.00522537 -9.55181e-05 0)
(-0.00489386 -9.61606e-05 0)
(-0.00456097 -9.64858e-05 0)
(-0.0042278 -9.64682e-05 0)
(-0.00389557 -9.60819e-05 0)
(-0.00356557 -9.53008e-05 0)
(-0.00323917 -9.4099e-05 0)
(-0.00291781 -9.24504e-05 0)
(-0.00260304 -9.03292e-05 0)
(-0.00229645 -8.77101e-05 0)
(-0.00199972 -8.45681e-05 0)
(-0.00171459 -8.08792e-05 0)
(-0.00144287 -7.66203e-05 0)
(-0.00118641 -7.17698e-05 0)
(-0.000947104 -6.63083e-05 0)
(-0.000726872 -6.02198e-05 0)
(-0.000527633 -5.34928e-05 0)
(-0.000351281 -4.61233e-05 0)
(-0.00019964 -3.81193e-05 0)
(-7.44002e-05 -2.95092e-05 0)
(2.2981e-05 -2.03569e-05 0)
(9.143e-05 -1.07913e-05 0)
(0.000130517 -1.06257e-06 0)
(0.000140873 8.3509e-06 0)
(0.000124814 1.65461e-05 0)
(8.77037e-05 2.17901e-05 0)
(4.20359e-05 2.08615e-05 0)
(9.63179e-06 9.63255e-06 0)
(1.85467e-05 -3.71004e-05 0)
(7.03426e-05 -7.03023e-05 0)
(0.000132042 -6.77567e-05 0)
(0.000170145 -4.20866e-05 0)
(0.000163368 -3.15118e-06 0)
(0.000100282 4.27169e-05 0)
(-2.53804e-05 9.155e-05 0)
(-0.000216355 0.000140867 0)
(-0.000472852 0.000189122 0)
(-0.000793368 0.000235354 0)
(-0.00117526 0.000278972 0)
(-0.00161513 0.00031962 0)
(-0.00210912 0.000357103 0)
(-0.00265306 0.000391331 0)
(-0.00324266 0.000422286 0)
(-0.00387354 0.000450005 0)
(-0.00454139 0.000474557 0)
(-0.00524194 0.000496041 0)
(-0.00597104 0.000514572 0)
(-0.00672469 0.00053028 0)
(-0.00749904 0.000543302 0)
(-0.00829043 0.000553781 0)
(-0.00909538 0.000561865 0)
(-0.00991061 0.000567701 0)
(-0.010733 0.000571439 0)
(-0.0115598 0.000573224 0)
(-0.0123881 0.000573201 0)
(-0.0132156 0.000571512 0)
(-0.0140399 0.000568295 0)
(-0.014859 0.000563683 0)
(-0.0156709 0.000557804 0)
(-0.0164738 0.000550783 0)
(-0.0172662 0.000542737 0)
(-0.0180466 0.00053378 0)
(-0.0188139 0.000524018 0)
(-0.0195668 0.000513553 0)
(-0.0203045 0.000502482 0)
(-0.0210261 0.000490892 0)
(-0.0217309 0.00047887 0)
(-0.0224183 0.000466493 0)
(-0.0230877 0.000453834 0)
(-0.0237389 0.000440961 0)
(-0.0243716 0.000427935 0)
(-0.0249854 0.000414815 0)
(-0.0255804 0.000401651 0)
(-0.0261564 0.000388491 0)
(-0.0267135 0.000375377 0)
(-0.0272517 0.000362348 0)
(-0.0277712 0.000349436 0)
(-0.0282722 0.000336673 0)
(-0.0287548 0.000324084 0)
(-0.0292193 0.00031169 0)
(-0.0296659 0.000299511 0)
(-0.0300951 0.000287563 0)
(-0.0305071 0.000275856 0)
(-0.0309022 0.000264402 0)
(-0.0312808 0.000253207 0)
(-0.0316433 0.000242274 0)
(-0.0319901 0.000231606 0)
(-0.0323215 0.000221202 0)
(-0.0326378 0.000211059 0)
(-0.0329395 0.000201173 0)
(-0.0332269 0.000191538 0)
(-0.0335004 0.000182145 0)
(-0.0337602 0.000172985 0)
(-0.0340068 0.000164046 0)
(-0.0342404 0.000155316 0)
(-0.0344612 0.000146782 0)
(-0.0346696 0.000138428 0)
(-0.0348659 0.000130238 0)
(-0.0350502 0.000122196 0)
(-0.0352226 0.000114283 0)
(-0.0353835 0.00010648 0)
(-0.035533 9.87691e-05 0)
(-0.035671 9.11288e-05 0)
(-0.0357978 8.35386e-05 0)
(-0.0359134 7.5977e-05 0)
(-0.0360178 6.84221e-05 0)
(-0.036111 6.08514e-05 0)
(-0.036193 5.32423e-05 0)
(-0.0362637 4.55717e-05 0)
(-0.0363229 3.78163e-05 0)
(-0.0363706 2.99527e-05 0)
(-0.0364066 2.19573e-05 0)
(-0.0364306 1.38066e-05 0)
(-0.0364424 5.4771e-06 0)
(-0.0364418 -3.05466e-06 0)
(-0.0364285 -1.18118e-05 0)
(-0.036402 -2.0817e-05 0)
(-0.0363621 -3.00927e-05 0)
(-0.0363084 -3.96605e-05 0)
(-0.0362403 -4.95415e-05 0)
(-0.0361575 -5.97558e-05 0)
(-0.0360594 -7.03228e-05 0)
(-0.0359455 -8.12606e-05 0)
(-0.0358154 -9.2586e-05 0)
(-0.0356684 -0.000104314 0)
(-0.035504 -0.000116459 0)
(-0.0353215 -0.000129033 0)
(-0.0351204 -0.000142045 0)
(-0.0349 -0.000155503 0)
(-0.0346596 -0.000169411 0)
(-0.0343988 -0.000183773 0)
(-0.0341168 -0.000198588 0)
(-0.0338129 -0.000213851 0)
(-0.0334866 -0.000229555 0)
(-0.0331373 -0.000245689 0)
(-0.0327644 -0.000262237 0)
(-0.0323672 -0.000279181 0)
(-0.0319454 -0.000296496 0)
(-0.0314983 -0.000314152 0)
(-0.0310256 -0.000332116 0)
(-0.0305269 -0.000350347 0)
(-0.0300018 -0.000368802 0)
(-0.0294502 -0.000387428 0)
(-0.0288717 -0.000406169 0)
(-0.0282663 -0.000424961 0)
(-0.0276341 -0.000443734 0)
(-0.0269751 -0.000462412 0)
(-0.0262896 -0.000480912 0)
(-0.025578 -0.000499143 0)
(-0.0248406 -0.00051701 0)
(-0.0240781 -0.000534408 0)
(-0.0232914 -0.000551229 0)
(-0.0224814 -0.000567355 0)
(-0.0216491 -0.000582663 0)
(-0.0207959 -0.000597025 0)
(-0.0199232 -0.000610306 0)
(-0.0190327 -0.000622365 0)
(-0.0181263 -0.000633058 0)
(-0.0172061 -0.000642235 0)
(-0.0162743 -0.000649743 0)
(-0.0153335 -0.000655425 0)
(-0.0143864 -0.000659121 0)
(-0.0134359 -0.000660671 0)
(-0.0124853 -0.000659912 0)
(-0.0115378 -0.000656683 0)
(-0.0105972 -0.000650824 0)
(-0.0096673 -0.000642176 0)
(-0.00875207 -0.000630584 0)
(-0.0078558 -0.000615901 0)
(-0.00698289 -0.000597983 0)
(-0.00613796 -0.000576699 0)
(-0.00532574 -0.00055193 0)
(-0.00455112 -0.000523573 0)
(-0.00381906 -0.000491548 0)
(-0.00313457 -0.000455801 0)
(-0.00250265 -0.000416322 0)
(-0.00192819 -0.000373152 0)
(-0.00141592 -0.000326414 0)
(-0.000970203 -0.000276338 0)
(-0.000594856 -0.000223324 0)
(-0.000292864 -0.000168028 0)
(-6.5941e-05 -0.000111505 0)
(8.60875e-05 -5.54489e-05 0)
(0.000166191 -2.59274e-06 0)
(0.000181253 4.26633e-05 0)
(0.000143936 7.32305e-05 0)
(7.79588e-05 7.79345e-05 0)
(2.08569e-05 4.20291e-05 0)
(1.98015e-05 -7.86299e-05 0)
(6.8099e-05 -0.000132088 0)
(0.000111191 -0.000110663 0)
(0.00011038 -3.94524e-05 0)
(4.04086e-05 6.29658e-05 0)
(-0.000113583 0.000183373 0)
(-0.000360489 0.000312623 0)
(-0.000704709 0.000444509 0)
(-0.00114719 0.000574852 0)
(-0.00168636 0.000700859 0)
(-0.0023189 0.000820681 0)
(-0.0030402 0.000933122 0)
(-0.00384486 0.00103744 0)
(-0.00472687 0.00113323 0)
(-0.00567993 0.00122029 0)
(-0.00669756 0.00129862 0)
(-0.00777322 0.00136831 0)
(-0.00890046 0.00142956 0)
(-0.0100729 0.00148264 0)
(-0.0112844 0.00152785 0)
(-0.012529 0.00156553 0)
(-0.0138009 0.00159607 0)
(-0.0150948 0.00161983 0)
(-0.0164055 0.00163723 0)
(-0.017728 0.00164865 0)
(-0.0190579 0.0016545 0)
(-0.0203909 0.00165517 0)
(-0.021723 0.00165105 0)
(-0.0230504 0.00164254 0)
(-0.02437 0.00162999 0)
(-0.0256785 0.00161378 0)
(-0.0269732 0.00159425 0)
(-0.0282514 0.00157173 0)
(-0.029511 0.00154655 0)
(-0.0307498 0.001519 0)
(-0.031966 0.00148938 0)
(-0.0331581 0.00145797 0)
(-0.0343248 0.00142501 0)
(-0.0354647 0.00139076 0)
(-0.0365769 0.00135543 0)
(-0.0376606 0.00131924 0)
(-0.0387152 0.00128239 0)
(-0.0397402 0.00124504 0)
(-0.0407351 0.00120738 0)
(-0.0416998 0.00116954 0)
(-0.0426341 0.00113167 0)
(-0.043538 0.00109389 0)
(-0.0444117 0.00105631 0)
(-0.0452552 0.00101903 0)
(-0.0460689 0.000982144 0)
(-0.0468529 0.000945721 0)
(-0.0476079 0.00090983 0)
(-0.048334 0.000874526 0)
(-0.0490319 0.000839856 0)
(-0.0497019 0.000805857 0)
(-0.0503447 0.000772558 0)
(-0.0509608 0.000739981 0)
(-0.0515507 0.000708138 0)
(-0.052115 0.000677036 0)
(-0.0526544 0.000646676 0)
(-0.0531693 0.000617051 0)
(-0.0536604 0.00058815 0)
(-0.0541282 0.000559954 0)
(-0.0545732 0.000532443 0)
(-0.0549961 0.000505589 0)
(-0.0553972 0.000479361 0)
(-0.0557771 0.000453724 0)
(-0.0561363 0.00042864 0)
(-0.056475 0.000404066 0)
(-0.0567938 0.000379956 0)
(-0.057093 0.000356263 0)
(-0.0573728 0.000332935 0)
(-0.0576336 0.00030992 0)
(-0.0578755 0.000287161 0)
(-0.0580988 0.0002646 0)
(-0.0583036 0.000242179 0)
(-0.0584899 0.000219836 0)
(-0.0586579 0.000197509 0)
(-0.0588074 0.000175133 0)
(-0.0589384 0.000152644 0)
(-0.0590508 0.000129977 0)
(-0.0591444 0.000107063 0)
(-0.0592191 8.38381e-05 0)
(-0.0592744 6.02333e-05 0)
(-0.0593102 3.61822e-05 0)
(-0.0593259 1.1618e-05 0)
(-0.0593212 -1.35257e-05 0)
(-0.0592957 -3.93143e-05 0)
(-0.0592486 -6.58125e-05 0)
(-0.0591795 -9.30831e-05 0)
(-0.0590878 -0.000121188 0)
(-0.0589726 -0.000150185 0)
(-0.0588334 -0.000180132 0)
(-0.0586693 -0.000211083 0)
(-0.0584795 -0.000243088 0)
(-0.0582632 -0.000276193 0)
(-0.0580194 -0.000310442 0)
(-0.0577473 -0.000345871 0)
(-0.057446 -0.000382512 0)
(-0.0571144 -0.000420392 0)
(-0.0567515 -0.00045953 0)
(-0.0563565 -0.000499939 0)
(-0.0559282 -0.000541621 0)
(-0.0554657 -0.000584573 0)
(-0.054968 -0.000628781 0)
(-0.0544342 -0.000674221 0)
(-0.0538633 -0.000720859 0)
(-0.0532543 -0.000768646 0)
(-0.0526065 -0.000817526 0)
(-0.0519191 -0.000867425 0)
(-0.0511911 -0.000918258 0)
(-0.0504221 -0.000969924 0)
(-0.0496115 -0.00102231 0)
(-0.0487586 -0.00107528 0)
(-0.0478633 -0.00112868 0)
(-0.0469252 -0.00118236 0)
(-0.0459443 -0.00123612 0)
(-0.0449205 -0.00128977 0)
(-0.0438542 -0.00134309 0)
(-0.0427458 -0.00139583 0)
(-0.0415957 -0.00144774 0)
(-0.040405 -0.00149855 0)
(-0.0391746 -0.00154795 0)
(-0.0379057 -0.00159564 0)
(-0.0366001 -0.00164127 0)
(-0.0352594 -0.00168452 0)
(-0.0338857 -0.00172499 0)
(-0.0324815 -0.00176233 0)
(-0.0310495 -0.00179612 0)
(-0.0295926 -0.00182596 0)
(-0.0281142 -0.00185144 0)
(-0.0266179 -0.00187211 0)
(-0.0251079 -0.00188755 0)
(-0.0235883 -0.00189731 0)
(-0.0220639 -0.00190093 0)
(-0.0205398 -0.00189798 0)
(-0.0190213 -0.00188802 0)
(-0.017514 -0.0018706 0)
(-0.0160241 -0.00184529 0)
(-0.0145578 -0.0018117 0)
(-0.0131218 -0.00176942 0)
(-0.011723 -0.0017181 0)
(-0.0103684 -0.00165741 0)
(-0.00906547 -0.00158707 0)
(-0.0078216 -0.00150685 0)
(-0.00664434 -0.00141662 0)
(-0.00554125 -0.00131633 0)
(-0.00451979 -0.00120606 0)
(-0.00358716 -0.0010861 0)
(-0.00275015 -0.000956953 0)
(-0.00201493 -0.00081949 0)
(-0.00138665 -0.000675063 0)
(-0.000869089 -0.000525727 0)
(-0.000464039 -0.000374572 0)
(-0.000170501 -0.000226212 0)
(1.63554e-05 -8.7519e-05 0)
(0.00010637 3.13275e-05 0)
(0.000116061 0.000115508 0)
(7.35284e-05 0.000143974 0)
(2.18417e-05 8.77398e-05 0)
(1.55771e-05 -0.000113658 0)
(4.29139e-05 -0.000170653 0)
(4.08787e-05 -0.000110057 0)
(-2.81397e-05 2.97382e-05 0)
(-0.000189837 0.000221193 0)
(-0.000460402 0.000443872 0)
(-0.000849906 0.000682908 0)
(-0.00136358 0.000927711 0)
(-0.00200279 0.00117081 0)
(-0.00276595 0.00140698 0)
(-0.00364928 0.00163261 0)
(-0.00464736 0.00184527 0)
(-0.00575364 0.00204336 0)
(-0.00696077 0.00222591 0)
(-0.00826088 0.00239239 0)
(-0.00964578 0.00254265 0)
(-0.0111072 0.00267675 0)
(-0.0126368 0.00279496 0)
(-0.0142264 0.00289771 0)
(-0.015868 0.00298551 0)
(-0.0175538 0.00305895 0)
(-0.0192763 0.00311871 0)
(-0.0210283 0.00316547 0)
(-0.0228031 0.00319997 0)
(-0.0245941 0.00322293 0)
(-0.0263953 0.00323512 0)
(-0.0282011 0.00323726 0)
(-0.030006 0.00323011 0)
(-0.0318052 0.00321438 0)
(-0.0335942 0.0031908 0)
(-0.0353687 0.00316003 0)
(-0.037125 0.00312277 0)
(-0.0388596 0.00307964 0)
(-0.0405694 0.00303126 0)
(-0.0422517 0.00297822 0)
(-0.0439038 0.00292109 0)
(-0.0455238 0.00286038 0)
(-0.0471096 0.00279661 0)
(-0.0486597 0.00273023 0)
(-0.0501726 0.0026617 0)
(-0.0516473 0.00259142 0)
(-0.0530828 0.00251977 0)
(-0.0544783 0.0024471 0)
(-0.0558335 0.00237375 0)
(-0.0571479 0.00229999 0)
(-0.0584212 0.00222612 0)
(-0.0596536 0.00215236 0)
(-0.060845 0.00207894 0)
(-0.0619956 0.00200606 0)
(-0.0631058 0.00193388 0)
(-0.0641759 0.00186257 0)
(-0.0652064 0.00179225 0)
(-0.0661979 0.00172303 0)
(-0.0671509 0.00165501 0)
(-0.0680662 0.00158826 0)
(-0.0689443 0.00152284 0)
(-0.069786 0.0014588 0)
(-0.0705921 0.00139616 0)
(-0.0713633 0.00133494 0)
(-0.0721004 0.00127513 0)
(-0.0728042 0.00121674 0)
(-0.0734753 0.00115974 0)
(-0.0741146 0.00110409 0)
(-0.0747227 0.00104976 0)
(-0.0753004 0.00099669 0)
(-0.0758484 0.000944827 0)
(-0.0763672 0.000894102 0)
(-0.0768574 0.00084444 0)
(-0.0773197 0.000795761 0)
(-0.0777545 0.000747977 0)
(-0.0781623 0.000700994 0)
(-0.0785436 0.000654714 0)
(-0.0788985 0.000609035 0)
(-0.0792275 0.000563847 0)
(-0.0795308 0.00051904 0)
(-0.0798086 0.000474498 0)
(-0.0800609 0.000430103 0)
(-0.0802878 0.000385734 0)
(-0.0804893 0.000341266 0)
(-0.0806654 0.000296575 0)
(-0.0808157 0.000251532 0)
(-0.0809401 0.00020601 0)
(-0.0810384 0.000159878 0)
(-0.0811101 0.000113008 0)
(-0.0811547 6.52693e-05 0)
(-0.0811718 1.6533e-05 0)
(-0.0811608 -3.33287e-05 0)
(-0.0811211 -8.44422e-05 0)
(-0.0810518 -0.000136932 0)
(-0.0809523 -0.000190918 0)
(-0.0808216 -0.00024652 0)
(-0.0806589 -0.00030385 0)
(-0.0804632 -0.000363017 0)
(-0.0802334 -0.000424124 0)
(-0.0799685 -0.000487266 0)
(-0.0796673 -0.000552533 0)
(-0.0793287 -0.000620004 0)
(-0.0789514 -0.00068975 0)
(-0.0785342 -0.000761829 0)
(-0.0780758 -0.000836291 0)
(-0.0775749 -0.000913169 0)
(-0.0770302 -0.000992485 0)
(-0.0764403 -0.00107424 0)
(-0.0758041 -0.00115843 0)
(-0.0751201 -0.00124502 0)
(-0.0743872 -0.00133395 0)
(-0.073604 -0.00142517 0)
(-0.0727694 -0.00151857 0)
(-0.0718823 -0.00161403 0)
(-0.0709416 -0.00171142 0)
(-0.0699463 -0.00181056 0)
(-0.0688957 -0.00191126 0)
(-0.0677889 -0.00201328 0)
(-0.0666254 -0.00211636 0)
(-0.0654047 -0.00222022 0)
(-0.0641265 -0.00232453 0)
(-0.0627909 -0.00242893 0)
(-0.0613978 -0.00253304 0)
(-0.0599477 -0.00263641 0)
(-0.0584412 -0.00273858 0)
(-0.056879 -0.00283906 0)
(-0.0552625 -0.00293731 0)
(-0.0535929 -0.00303275 0)
(-0.0518721 -0.00312478 0)
(-0.0501023 -0.00321276 0)
(-0.0482858 -0.00329602 0)
(-0.0464256 -0.00337384 0)
(-0.0445249 -0.0034455 0)
(-0.0425873 -0.00351023 0)
(-0.0406168 -0.00356725 0)
(-0.038618 -0.00361576 0)
(-0.0365958 -0.00365493 0)
(-0.0345556 -0.00368393 0)
(-0.0325031 -0.00370191 0)
(-0.0304446 -0.00370804 0)
(-0.0283869 -0.00370146 0)
(-0.0263369 -0.00368135 0)
(-0.0243024 -0.00364689 0)
(-0.0222912 -0.00359729 0)
(-0.0203117 -0.0035318 0)
(-0.0183727 -0.00344971 0)
(-0.016483 -0.00335039 0)
(-0.0146521 -0.00323327 0)
(-0.0128894 -0.00309789 0)
(-0.0112046 -0.00294391 0)
(-0.00960728 -0.00277118 0)
(-0.00810717 -0.00257974 0)
(-0.00671365 -0.00236991 0)
(-0.00543571 -0.00214239 0)
(-0.00428173 -0.00189838 0)
(-0.00325914 -0.00163971 0)
(-0.00237404 -0.00136917 0)
(-0.00163073 -0.00109077 0)
(-0.00103099 -0.000810331 0)
(-0.000573359 -0.000536115 0)
(-0.000252046 -0.000279876 0)
(-5.58741e-05 -5.81749e-05 0)
(3.3171e-05 0.000106091 0)
(4.35549e-05 0.000181821 0)
(1.67318e-05 0.000125119 0)
(8.69353e-06 -0.000131029 0)
(4.4852e-06 -0.000164784 0)
(-6.0753e-05 -4.06717e-05 0)
(-0.000218732 0.00019127 0)
(-0.000492951 0.000495195 0)
(-0.00089939 0.000843856 0)
(-0.00144811 0.0012168 0)
(-0.00214437 0.00159895 0)
(-0.00298948 0.00197931 0)
(-0.00398166 0.00234993 0)
(-0.00511668 0.00270514 0)
(-0.00638847 0.00304097 0)
(-0.00778959 0.00335473 0)
(-0.00931159 0.00364468 0)
(-0.0109454 0.00390984 0)
(-0.0126814 0.00414975 0)
(-0.0145099 0.0043644 0)
(-0.016421 0.00455406 0)
(-0.0184051 0.0047193 0)
(-0.0204525 0.00486085 0)
(-0.0225539 0.00497958 0)
(-0.0247002 0.00507647 0)
(-0.0268828 0.00515258 0)
(-0.0290935 0.00520903 0)
(-0.0313243 0.00524696 0)
(-0.0335678 0.00526752 0)
(-0.0358171 0.0052719 0)
(-0.0380657 0.00526124 0)
(-0.0403075 0.00523671 0)
(-0.0425369 0.00519942 0)
(-0.0447487 0.00515048 0)
(-0.0469384 0.00509095 0)
(-0.0491015 0.00502186 0)
(-0.0512342 0.0049442 0)
(-0.053333 0.0048589 0)
(-0.0553948 0.00476689 0)
(-0.057417 0.004669 0)
(-0.0593971 0.00456604 0)
(-0.0613331 0.00445878 0)
(-0.0632233 0.00434793 0)
(-0.0650661 0.00423416 0)
(-0.0668604 0.00411808 0)
(-0.0686053 0.00400026 0)
(-0.0703001 0.00388124 0)
(-0.0719444 0.00376149 0)
(-0.0735377 0.00364147 0)
(-0.0750801 0.00352156 0)
(-0.0765715 0.00340213 0)
(-0.0780123 0.0032835 0)
(-0.0794027 0.00316595 0)
(-0.0807432 0.00304974 0)
(-0.0820343 0.00293508 0)
(-0.0832767 0.00282215 0)
(-0.0844711 0.00271112 0)
(-0.0856184 0.0026021 0)
(-0.0867192 0.00249519 0)
(-0.0877745 0.00239047 0)
(-0.0887853 0.00228799 0)
(-0.0897523 0.00218777 0)
(-0.0906766 0.00208982 0)
(-0.0915591 0.00199413 0)
(-0.0924006 0.00190066 0)
(-0.0932021 0.00180937 0)
(-0.0939645 0.00172018 0)
(-0.0946886 0.00163303 0)
(-0.0953753 0.00154781 0)
(-0.0960253 0.00146441 0)
(-0.0966394 0.00138273 0)
(-0.0972182 0.00130262 0)
(-0.0977623 0.00122395 0)
(-0.0982724 0.00114656 0)
(-0.0987488 0.0010703 0)
(-0.0991922 0.00099501 0)
(-0.0996027 0.000920503 0)
(-0.0999807 0.000846605 0)
(-0.100326 0.000773129 0)
(-0.10064 0.000699884 0)
(-0.100922 0.000626675 0)
(-0.101171 0.000553301 0)
(-0.101388 0.000479561 0)
(-0.101573 0.000405248 0)
(-0.101724 0.000330156 0)
(-0.101843 0.000254076 0)
(-0.101928 0.000176798 0)
(-0.101979 9.8115e-05 0)
(-0.101996 1.7818e-05 0)
(-0.101976 -6.42984e-05 0)
(-0.101921 -0.000148437 0)
(-0.101828 -0.000234798 0)
(-0.101698 -0.000323574 0)
(-0.101528 -0.000414955 0)
(-0.101317 -0.000509123 0)
(-0.101066 -0.00060625 0)
(-0.100771 -0.0007065 0)
(-0.100432 -0.000810025 0)
(-0.100048 -0.000916967 0)
(-0.0996173 -0.00102745 0)
(-0.0991379 -0.00114159 0)
(-0.0986085 -0.00125947 0)
(-0.0980276 -0.00138117 0)
(-0.0973937 -0.00150674 0)
(-0.0967051 -0.00163621 0)
(-0.0959603 -0.00176959 0)
(-0.0951576 -0.00190685 0)
(-0.0942955 -0.00204793 0)
(-0.0933724 -0.00219275 0)
(-0.0923869 -0.00234119 0)
(-0.0913375 -0.0024931 0)
(-0.0902229 -0.00264827 0)
(-0.0890419 -0.00280648 0)
(-0.0877932 -0.00296743 0)
(-0.0864759 -0.00313082 0)
(-0.0850891 -0.00329625 0)
(-0.0836321 -0.00346332 0)
(-0.0821044 -0.00363154 0)
(-0.0805058 -0.00380039 0)
(-0.0788362 -0.00396928 0)
(-0.0770957 -0.00413758 0)
(-0.075285 -0.00430459 0)
(-0.0734047 -0.00446956 0)
(-0.0714559 -0.00463168 0)
(-0.0694402 -0.00479009 0)
(-0.0673594 -0.00494386 0)
(-0.0652157 -0.00509202 0)
(-0.0630118 -0.00523353 0)
(-0.0607508 -0.00536731 0)
(-0.0584361 -0.00549223 0)
(-0.0560718 -0.00560711 0)
(-0.0536625 -0.00571074 0)
(-0.0512131 -0.00580186 0)
(-0.0487291 -0.00587918 0)
(-0.0462167 -0.00594141 0)
(-0.0436824 -0.0059872 0)
(-0.0411334 -0.00601523 0)
(-0.0385772 -0.00602416 0)
(-0.0360221 -0.00601266 0)
(-0.0334768 -0.00597943 0)
(-0.0309505 -0.00592321 0)
(-0.0284528 -0.00584276 0)
(-0.0259938 -0.00573694 0)
(-0.0235841 -0.00560469 0)
(-0.0212345 -0.00544504 0)
(-0.0189561 -0.00525719 0)
(-0.0167604 -0.00504051 0)
(-0.0146588 -0.00479458 0)
(-0.0126627 -0.00451929 0)
(-0.0107835 -0.00421487 0)
(-0.00903219 -0.00388203 0)
(-0.00741916 -0.00352207 0)
(-0.00595406 -0.00313708 0)
(-0.00464532 -0.0027302 0)
(-0.0034998 -0.00230593 0)
(-0.00252227 -0.00187063 0)
(-0.00171474 -0.00143315 0)
(-0.00107577 -0.0010057 0)
(-0.000599526 -0.000605022 0)
(-0.000274821 -0.00025388 0)
(-8.38864e-05 1.72565e-05 0)
(-8.55265e-07 0.000168074 0)
(8.73718e-06 0.00014185 0)
(6.66359e-07 -0.000125826 0)
(-4.10634e-05 -0.000102855 0)
(-0.000181031 0.000112763 0)
(-0.000441981 0.000461986 0)
(-0.000843312 0.000901854 0)
(-0.0013996 0.00139905 0)
(-0.00211993 0.00192794 0)
(-0.00300883 0.00246917 0)
(-0.0040671 0.00300822 0)
(-0.00529244 0.00353432 0)
(-0.00668009 0.00403958 0)
(-0.0082233 0.00451834 0)
(-0.00991384 0.00496663 0)
(-0.0117424 0.00538184 0)
(-0.0136987 0.00576234 0)
(-0.0157722 0.00610731 0)
(-0.0179518 0.00641656 0)
(-0.0202266 0.00669034 0)
(-0.0225854 0.00692932 0)
(-0.0250172 0.00713442 0)
(-0.0275115 0.00730681 0)
(-0.0300579 0.0074478 0)
(-0.0326463 0.00755886 0)
(-0.0352673 0.00764152 0)
(-0.0379118 0.00769737 0)
(-0.040571 0.00772807 0)
(-0.043237 0.00773525 0)
(-0.0459022 0.00772057 0)
(-0.0485594 0.00768567 0)
(-0.0512022 0.00763216 0)
(-0.0538245 0.00756161 0)
(-0.0564208 0.00747557 0)
(-0.058986 0.00737551 0)
(-0.0615156 0.00726285 0)
(-0.0640054 0.00713898 0)
(-0.0664518 0.00700519 0)
(-0.0688516 0.00686273 0)
(-0.071202 0.00671277 0)
(-0.0735005 0.00655642 0)
(-0.075745 0.00639472 0)
(-0.0779337 0.00622864 0)
(-0.0800653 0.00605908 0)
(-0.0821386 0.00588688 0)
(-0.0841528 0.00571282 0)
(-0.0861072 0.0055376 0)
(-0.0880016 0.00536187 0)
(-0.0898357 0.00518623 0)
(-0.0916095 0.00501119 0)
(-0.0933234 0.00483724 0)
(-0.0949776 0.00466479 0)
(-0.0965727 0.00449421 0)
(-0.0981093 0.00432583 0)
(-0.0995881 0.00415991 0)
(-0.10101 0.00399669 0)
(-0.102376 0.00383636 0)
(-0.103686 0.00367905 0)
(-0.104943 0.0035249 0)
(-0.106147 0.00337396 0)
(-0.107298 0.00322628 0)
(-0.108399 0.00308189 0)
(-0.10945 0.00294075 0)
(-0.110452 0.00280282 0)
(-0.111406 0.00266804 0)
(-0.112313 0.0025363 0)
(-0.113175 0.00240751 0)
(-0.113993 0.00228151 0)
(-0.114766 0.00215816 0)
(-0.115496 0.00203729 0)
(-0.116184 0.0019187 0)
(-0.116831 0.00180219 0)
(-0.117437 0.00168754 0)
(-0.118002 0.00157453 0)
(-0.118528 0.00146291 0)
(-0.119014 0.00135243 0)
(-0.119462 0.00124282 0)
(-0.11987 0.00113383 0)
(-0.120241 0.00102516 0)
(-0.120572 0.000916537 0)
(-0.120865 0.00080767 0)
(-0.12112 0.000698264 0)
(-0.121335 0.000588019 0)
(-0.121511 0.000476634 0)
(-0.121647 0.000363806 0)
(-0.121743 0.000249233 0)
(-0.121799 0.000132611 0)
(-0.121812 1.36379e-05 0)
(-0.121783 -0.000107984 0)
(-0.121711 -0.000232548 0)
(-0.121594 -0.000360343 0)
(-0.121432 -0.00049165 0)
(-0.121223 -0.000626741 0)
(-0.120965 -0.000765879 0)
(-0.120658 -0.000909313 0)
(-0.120301 -0.00105728 0)
(-0.11989 -0.00120999 0)
(-0.119426 -0.00136766 0)
(-0.118905 -0.00153045 0)
(-0.118327 -0.00169854 0)
(-0.11769 -0.00187204 0)
(-0.116992 -0.00205106 0)
(-0.116231 -0.00223567 0)
(-0.115405 -0.00242591 0)
(-0.114512 -0.00262178 0)
(-0.113551 -0.00282324 0)
(-0.112519 -0.0030302 0)
(-0.111415 -0.00324254 0)
(-0.110238 -0.00346007 0)
(-0.108985 -0.00368256 0)
(-0.107655 -0.00390972 0)
(-0.106247 -0.0041412 0)
(-0.104759 -0.00437658 0)
(-0.103191 -0.00461539 0)
(-0.10154 -0.00485708 0)
(-0.099807 -0.00510102 0)
(-0.0979907 -0.00534653 0)
(-0.0960911 -0.00559282 0)
(-0.0941081 -0.00583905 0)
(-0.0920419 -0.0060843 0)
(-0.0898932 -0.00632753 0)
(-0.0876629 -0.00656767 0)
(-0.0853524 -0.00680353 0)
(-0.0829635 -0.00703386 0)
(-0.0804984 -0.00725731 0)
(-0.0779596 -0.00747247 0)
(-0.0753504 -0.00767783 0)
(-0.0726744 -0.00787185 0)
(-0.0699358 -0.00805287 0)
(-0.0671392 -0.00821919 0)
(-0.06429 -0.00836907 0)
(-0.0613941 -0.00850069 0)
(-0.0584579 -0.00861221 0)
(-0.0554885 -0.00870174 0)
(-0.0524936 -0.00876739 0)
(-0.0494814 -0.00880725 0)
(-0.046461 -0.00881941 0)
(-0.0434417 -0.00880199 0)
(-0.0404337 -0.00875315 0)
(-0.0374476 -0.00867109 0)
(-0.0344945 -0.00855412 0)
(-0.0315861 -0.00840064 0)
(-0.0287345 -0.0082092 0)
(-0.0259522 -0.0079785 0)
(-0.0232518 -0.0077075 0)
(-0.0206463 -0.00739541 0)
(-0.0181487 -0.00704178 0)
(-0.015772 -0.00664661 0)
(-0.0135289 -0.00621043 0)
(-0.0114317 -0.00573443 0)
(-0.00949212 -0.00522069 0)
(-0.00772075 -0.00467239 0)
(-0.00612693 -0.00409412 0)
(-0.0047183 -0.00349234 0)
(-0.00350021 -0.00287593 0)
(-0.00247522 -0.00225688 0)
(-0.00164245 -0.00165135 0)
(-0.000996848 -0.00108082 0)
(-0.000528314 -0.00057379 0)
(-0.000220668 -0.000167412 0)
(-5.27528e-05 9.02264e-05 0)
(-4.35204e-07 0.000132688 0)
(-7.72394e-06 -9.57601e-05 0)
(-8.99856e-05 2.18763e-05 0)
(-0.000311389 0.000359978 0)
(-0.000684086 0.000853162 0)
(-0.00122214 0.00145281 0)
(-0.0019378 0.00212048 0)
(-0.00283842 0.002826 0)
(-0.00392716 0.00354607 0)
(-0.00520383 0.00426286 0)
(-0.00666531 0.00496284 0)
(-0.00830607 0.00563589 0)
(-0.0101186 0.00627458 0)
(-0.012094 0.0068736 0)
(-0.0142219 0.00742933 0)
(-0.0164913 0.00793944 0)
(-0.0188905 0.00840266 0)
(-0.0214075 0.00881854 0)
(-0.0240302 0.0091873 0)
(-0.0267463 0.00950964 0)
(-0.0295437 0.00978669 0)
(-0.0324107 0.0100199 0)
(-0.0353357 0.0102109 0)
(-0.0383077 0.0103616 0)
(-0.0413158 0.0104741 0)
(-0.04435 0.0105503 0)
(-0.0474006 0.0105924 0)
(-0.0504585 0.0106027 0)
(-0.0535152 0.0105833 0)
(-0.0565627 0.0105364 0)
(-0.0595936 0.0104641 0)
(-0.062601 0.0103686 0)
(-0.0655787 0.010252 0)
(-0.068521 0.0101162 0)
(-0.0714227 0.00996321 0)
(-0.0742791 0.0097948 0)
(-0.0770861 0.00961277 0)
(-0.0798399 0.0094188 0)
(-0.0825373 0.0092145 0)
(-0.0851755 0.00900137 0)
(-0.087752 0.00878082 0)
(-0.090265 0.00855417 0)
(-0.0927128 0.00832266 0)
(-0.0950939 0.00808743 0)
(-0.0974075 0.00784955 0)
(-0.0996528 0.00760997 0)
(-0.101829 0.0073696 0)
(-0.103937 0.00712922 0)
(-0.105976 0.00688958 0)
(-0.107946 0.00665131 0)
(-0.109847 0.00641501 0)
(-0.111681 0.00618117 0)
(-0.113448 0.00595024 0)
(-0.115148 0.0057226 0)
(-0.116784 0.00549856 0)
(-0.118354 0.00527839 0)
(-0.119862 0.0050623 0)
(-0.121307 0.00485043 0)
(-0.122691 0.00464291 0)
(-0.124016 0.00443978 0)
(-0.125282 0.00424107 0)
(-0.12649 0.00404677 0)
(-0.127643 0.00385681 0)
(-0.12874 0.0036711 0)
(-0.129784 0.00348952 0)
(-0.130774 0.00331191 0)
(-0.131713 0.00313809 0)
(-0.132602 0.00296786 0)
(-0.133441 0.00280097 0)
(-0.134231 0.00263718 0)
(-0.134973 0.00247621 0)
(-0.135668 0.00231776 0)
(-0.136316 0.00216153 0)
(-0.136918 0.00200717 0)
(-0.137475 0.00185436 0)
(-0.137987 0.00170274 0)
(-0.138453 0.00155193 0)
(-0.138875 0.00140156 0)
(-0.139253 0.00125125 0)
(-0.139585 0.0011006 0)
(-0.139873 0.000949207 0)
(-0.140116 0.000796671 0)
(-0.140313 0.00064258 0)
(-0.140465 0.000486524 0)
(-0.140569 0.000328091 0)
(-0.140627 0.00016687 0)
(-0.140636 2.45365e-06 0)
(-0.140596 -0.000165563 0)
(-0.140506 -0.000337578 0)
(-0.140365 -0.000513981 0)
(-0.140171 -0.000695151 0)
(-0.139923 -0.000881458 0)
(-0.139619 -0.00107325 0)
(-0.139259 -0.00127087 0)
(-0.13884 -0.00147463 0)
(-0.13836 -0.00168483 0)
(-0.137818 -0.00190173 0)
(-0.137212 -0.00212557 0)
(-0.13654 -0.00235657 0)
(-0.1358 -0.00259489 0)
(-0.13499 -0.00284067 0)
(-0.134107 -0.003094 0)
(-0.13315 -0.00335492 0)
(-0.132117 -0.00362343 0)
(-0.131006 -0.00389947 0)
(-0.129814 -0.00418291 0)
(-0.12854 -0.00447358 0)
(-0.127182 -0.00477121 0)
(-0.125737 -0.00507549 0)
(-0.124205 -0.00538602 0)
(-0.122583 -0.00570231 0)
(-0.120871 -0.0060238 0)
(-0.119066 -0.00634982 0)
(-0.117168 -0.00667962 0)
(-0.115176 -0.00701236 0)
(-0.11309 -0.00734709 0)
(-0.110908 -0.00768275 0)
(-0.108632 -0.00801819 0)
(-0.106262 -0.00835213 0)
(-0.103797 -0.0086832 0)
(-0.10124 -0.00900991 0)
(-0.0985925 -0.00933067 0)
(-0.0958555 -0.00964375 0)
(-0.093032 -0.00994736 0)
(-0.090125 -0.0102396 0)
(-0.0871381 -0.0105183 0)
(-0.0840755 -0.0107815 0)
(-0.0809418 -0.011027 0)
(-0.0777425 -0.0112524 0)
(-0.0744835 -0.0114554 0)
(-0.0711715 -0.0116335 0)
(-0.0678138 -0.0117843 0)