/*--------------------------------*- C++ -*----------------------------------*\
  =========                 |
  \\      /  F ield         | OpenFOAM: The Open Source CFD Toolbox
   \\    /   O peration     | Website:  https://openfoam.org
    \\  /    A nd           | Version:  7
     \\/     M anipulation  |
\*---------------------------------------------------------------------------*/
FoamFile
{
    version     2.0;
    format      ascii;
    class       surfaceScalarField;
    location    "0.025";
    object      phi;
}
// * * * * * * * * * * * * * * * * * * * * * * * * * * * * * * * * * * * * * //

dimensions      [0 3 -1 0 0 0 0];

internalField   nonuniform List<scalar> 
25360
(
5.09185e-10
-5.09229e-10
1.10916e-09
-5.99969e-10
9.928e-10
1.16364e-10
1.64505e-10
8.28295e-10
-1.26369e-09
1.42821e-09
-3.14397e-09
1.88027e-09
-5.34812e-09
2.20416e-09
-7.74586e-09
2.39773e-09
-1.02402e-08
2.49434e-09
-1.2761e-08
2.52077e-09
-1.52478e-08
2.48681e-09
-1.76433e-08
2.39551e-09
-1.9904e-08
2.26069e-09
-2.20115e-08
2.1075e-09
-2.39467e-08
1.93521e-09
-2.57085e-08
1.76175e-09
-2.73004e-08
1.59188e-09
-2.87397e-08
1.43934e-09
-3.00443e-08
1.30461e-09
-3.12378e-08
1.19351e-09
-3.23359e-08
1.09806e-09
-3.33819e-08
1.04604e-09
-3.43818e-08
9.99875e-10
-3.53605e-08
9.78663e-10
-3.63322e-08
9.71784e-10
-3.7318e-08
9.85794e-10
-3.83303e-08
1.01223e-09
-3.93881e-08
1.05781e-09
-4.0486e-08
1.09788e-09
-4.16129e-08
1.12697e-09
-4.27626e-08
1.1497e-09
-4.39218e-08
1.1592e-09
-4.50814e-08
1.15958e-09
-4.62401e-08
1.15871e-09
-4.73935e-08
1.1534e-09
-4.8533e-08
1.13951e-09
-4.96592e-08
1.12616e-09
-5.07791e-08
1.1199e-09
-5.18933e-08
1.11424e-09
-5.30012e-08
1.10783e-09
-5.41047e-08
1.10353e-09
-5.52067e-08
1.10197e-09
-5.63085e-08
1.10185e-09
-5.74139e-08
1.10539e-09
-5.85343e-08
1.12043e-09
-5.96826e-08
1.14823e-09
-6.08683e-08
1.18572e-09
-6.21e-08
1.23173e-09
-6.33818e-08
1.28178e-09
-6.47101e-08
1.32831e-09
-6.60719e-08
1.36174e-09
-6.74461e-08
1.37419e-09
-6.88109e-08
1.36481e-09
-7.01472e-08
1.33636e-09
-7.14373e-08
1.29004e-09
-7.26637e-08
1.22643e-09
-7.38129e-08
1.14921e-09
-7.48793e-08
1.06638e-09
-7.58613e-08
9.82009e-10
-7.67567e-08
8.95353e-10
-7.75632e-08
8.06591e-10
-7.82792e-08
7.15945e-10
-7.89e-08
6.20825e-10
-7.94206e-08
5.20568e-10
-7.9836e-08
4.15446e-10
-8.01395e-08
3.03437e-10
-8.03254e-08
1.85908e-10
-8.0395e-08
6.96278e-11
-8.03536e-08
-4.13731e-11
-8.02064e-08
-1.47213e-10
-7.99614e-08
-2.44979e-10
-7.96322e-08
-3.29225e-10
-7.9234e-08
-3.98246e-10
-7.87808e-08
-4.53128e-10
-7.8287e-08
-4.93868e-10
-7.77656e-08
-5.21326e-10
-7.72268e-08
-5.3887e-10
-7.66781e-08
-5.48645e-10
-7.61278e-08
-5.50344e-10
-7.55822e-08
-5.45551e-10
-7.50435e-08
-5.38721e-10
-7.45115e-08
-5.31986e-10
-7.39888e-08
-5.2277e-10
-7.34809e-08
-5.07871e-10
-7.29944e-08
-4.86473e-10
-7.25361e-08
-4.58287e-10
-7.21137e-08
-4.22398e-10
-7.1734e-08
-3.79725e-10
-7.13996e-08
-3.34428e-10
-7.11079e-08
-2.91625e-10
-7.0852e-08
-2.55946e-10
-7.06205e-08
-2.31466e-10
-7.03986e-08
-2.21958e-10
-7.01692e-08
-2.29408e-10
-6.99167e-08
-2.52446e-10
-6.96285e-08
-2.88223e-10
-6.92936e-08
-3.34879e-10
-6.89022e-08
-3.91395e-10
-6.84466e-08
-4.55609e-10
-6.79229e-08
-5.23705e-10
-6.73308e-08
-5.92088e-10
-6.66717e-08
-6.59109e-10
-6.59471e-08
-7.24657e-10
-6.51582e-08
-7.88824e-10
-6.43067e-08
-8.5158e-10
-6.33935e-08
-9.13146e-10
-6.24199e-08
-9.73581e-10
-6.13881e-08
-1.03181e-09
-6.03023e-08
-1.08582e-09
-5.91681e-08
-1.13421e-09
-5.7991e-08
-1.17709e-09
-5.67762e-08
-1.21478e-09
-5.55305e-08
-1.24574e-09
-5.42638e-08
-1.26666e-09
-5.29884e-08
-1.27536e-09
-5.17148e-08
-1.27366e-09
-5.04477e-08
-1.26707e-09
-4.91863e-08
-1.26139e-09
-4.7927e-08
-1.25936e-09
-4.66666e-08
-1.26037e-09
-4.54036e-08
-1.26303e-09
-4.41358e-08
-1.26772e-09
-4.28593e-08
-1.27656e-09
-4.15682e-08
-1.29107e-09
-4.0258e-08
-1.3102e-09
-3.89274e-08
-1.33061e-09
-3.75786e-08
-1.34878e-09
-3.62156e-08
-1.36302e-09
-3.48415e-08
-1.37413e-09
-3.34567e-08
-1.3848e-09
-3.20584e-08
-1.39829e-09
-3.06412e-08
-1.41722e-09
-2.91981e-08
-1.44304e-09
-2.77219e-08
-1.47622e-09
-2.62056e-08
-1.51629e-09
-2.46441e-08
-1.56155e-09
-2.30347e-08
-1.6094e-09
-2.13773e-08
-1.65733e-09
-1.9674e-08
-1.70335e-09
-1.79289e-08
-1.74506e-09
-1.61505e-08
-1.77849e-09
-1.43529e-08
-1.79754e-09
-1.25579e-08
-1.79504e-09
-1.07924e-08
-1.7655e-09
-9.08559e-09
-1.70678e-09
-7.46573e-09
-1.61986e-09
-5.95664e-09
-1.50909e-09
-4.57622e-09
-1.38042e-09
-3.33886e-09
-1.23735e-09
-2.25702e-09
-1.08185e-09
-1.34041e-09
-9.16606e-10
-5.96969e-10
-7.43443e-10
-3.1757e-11
-5.65211e-10
3.54572e-10
-3.8633e-10
5.66083e-10
-2.11511e-10
6.15235e-10
-4.91538e-11
5.2578e-10
8.94517e-11
3.40973e-10
1.84804e-10
1.31144e-10
2.09827e-10
1.31144e-10
9.62578e-10
-1.47181e-09
2.04246e-09
-1.67986e-09
2.13042e-09
2.84078e-11
1.11785e-09
1.84086e-09
-8.30072e-10
3.37612e-09
-3.56984e-09
4.62005e-09
-6.95355e-09
5.58787e-09
-1.08519e-08
6.29612e-09
-1.51394e-08
6.78179e-09
-1.96909e-08
7.07228e-09
-2.4413e-08
7.20892e-09
-2.92277e-08
7.2102e-09
-3.40741e-08
7.10714e-09
-3.88909e-08
6.92424e-09
-4.36488e-08
6.69321e-09
-4.83215e-08
6.43441e-09
-5.28978e-08
6.16824e-09
-5.73825e-08
5.92404e-09
-6.17694e-08
5.69149e-09
-6.60824e-08
5.50651e-09
-7.03309e-08
5.34661e-09
-7.4529e-08
5.24413e-09
-7.86888e-08
5.15963e-09
-8.28353e-08
5.12518e-09
-8.69717e-08
5.10821e-09
-9.11123e-08
5.12639e-09
-9.52696e-08
5.16947e-09
-9.9436e-08
5.22428e-09
-1.03614e-07
5.27587e-09
-1.07802e-07
5.31444e-09
-1.11979e-07
5.3271e-09
-1.1613e-07
5.31064e-09
-1.20248e-07
5.27734e-09
-1.2432e-07
5.23052e-09
-1.28335e-07
5.16822e-09
-1.32292e-07
5.0964e-09
-1.3619e-07
5.02408e-09
-1.40024e-07
4.95486e-09
-1.43795e-07
4.88458e-09
-1.47501e-07
4.81435e-09
-1.51146e-07
4.74788e-09
-1.54727e-07
4.68353e-09
-1.58249e-07
4.62352e-09
-1.61719e-07
4.57577e-09
-1.65148e-07
4.54897e-09
-1.68545e-07
4.5453e-09
-1.7192e-07
4.56041e-09
-1.75277e-07
4.58942e-09
-1.78619e-07
4.62325e-09
-1.81937e-07
4.64648e-09
-1.85218e-07
4.64229e-09
-1.88443e-07
4.59987e-09
-1.91595e-07
4.51647e-09
-1.94651e-07
4.39225e-09
-1.97591e-07
4.22988e-09
-2.004e-07
4.03546e-09
-2.03066e-07
3.816e-09
-2.05581e-07
3.58107e-09
-2.07938e-07
3.33922e-09
-2.10134e-07
3.0909e-09
-2.12161e-07
2.83362e-09
-2.14014e-07
2.5689e-09
-2.1569e-07
2.29677e-09
-2.17183e-07
2.01363e-09
-2.18486e-07
1.71854e-09
-2.19597e-07
1.41488e-09
-2.20519e-07
1.10735e-09
-2.21252e-07
8.02327e-10
-2.21801e-07
5.07708e-10
-2.22178e-07
2.29928e-10
-2.22397e-07
-2.62096e-11
-2.2247e-07
-2.55266e-10
-2.22416e-07
-4.52351e-10
-2.22253e-07
-6.16607e-10
-2.21996e-07
-7.51196e-10
-2.21657e-07
-8.59951e-10
-2.2125e-07
-9.45342e-10
-2.2079e-07
-1.00949e-09
-2.20284e-07
-1.05587e-09
-2.1974e-07
-1.08935e-09
-2.19165e-07
-1.11425e-09
-2.18564e-07
-1.13238e-09
-2.17945e-07
-1.14265e-09
-2.1731e-07
-1.14241e-09
-2.16668e-07
-1.12894e-09
-2.16025e-07
-1.10065e-09
-2.15389e-07
-1.05847e-09
-2.14762e-07
-1.00688e-09
-2.14143e-07
-9.53121e-10
-2.13529e-07
-9.05726e-10
-2.12911e-07
-8.73927e-10
-2.12275e-07
-8.67475e-10
-2.11603e-07
-8.94151e-10
-2.10875e-07
-9.57086e-10
-2.10073e-07
-1.05454e-09
-2.09179e-07
-1.1827e-09
-2.08176e-07
-1.33799e-09
-2.0705e-07
-1.51677e-09
-2.05792e-07
-1.71393e-09
-2.04392e-07
-1.92306e-09
-2.02846e-07
-2.13805e-09
-2.01151e-07
-2.35461e-09
-1.99305e-07
-2.57045e-09
-1.97309e-07
-2.78498e-09
-1.95162e-07
-2.99875e-09
-1.92863e-07
-3.21244e-09
-1.90411e-07
-3.42526e-09
-1.87809e-07
-3.63402e-09
-1.8506e-07
-3.83444e-09
-1.82171e-07
-4.02355e-09
-1.79147e-07
-4.20054e-09
-1.75997e-07
-4.3649e-09
-1.72729e-07
-4.51402e-09
-1.69352e-07
-4.64369e-09
-1.65876e-07
-4.75165e-09
-1.62308e-07
-4.84109e-09
-1.58655e-07
-4.92046e-09
-1.54917e-07
-4.9993e-09
-1.51093e-07
-5.08351e-09
-1.47179e-07
-5.1738e-09
-1.43174e-07
-5.26804e-09
-1.39077e-07
-5.36491e-09
-1.34888e-07
-5.46529e-09
-1.30609e-07
-5.57063e-09
-1.26239e-07
-5.68028e-09
-1.21779e-07
-5.79058e-09
-1.17231e-07
-5.89625e-09
-1.12601e-07
-5.99308e-09
-1.07895e-07
-6.08022e-09
-1.03119e-07
-6.16079e-09
-9.82769e-08
-6.24045e-09
-9.33695e-08
-6.3247e-09
-8.8396e-08
-6.41649e-09
-8.33568e-08
-6.51543e-09
-7.82549e-08
-6.61818e-09
-7.30971e-08
-6.71941e-09
-6.78934e-08
-6.81307e-09
-6.26572e-08
-6.89359e-09
-5.7405e-08
-6.95552e-09
-5.21584e-08
-6.99163e-09
-4.69453e-08
-6.99159e-09
-4.18005e-08
-6.94237e-09
-3.67652e-08
-6.83036e-09
-3.18854e-08
-6.64532e-09
-2.72087e-08
-6.38342e-09
-2.27816e-08
-6.04695e-09
-1.86473e-08
-5.64347e-09
-1.48445e-08
-5.18319e-09
-1.14086e-08
-4.67326e-09
-8.37124e-09
-4.1192e-09
-5.75852e-09
-3.52932e-09
-3.59036e-09
-2.91161e-09
-1.87935e-09
-2.27622e-09
-6.25519e-10
-1.64016e-09
1.86245e-10
-1.02327e-09
5.89409e-10
-4.52319e-10
6.4976e-10
2.91008e-11
4.70305e-10
3.64262e-10
2.02049e-10
4.78088e-10
3.33196e-10
1.26959e-09
-2.74141e-09
2.70729e-09
-3.11757e-09
3.14346e-09
-4.07785e-10
2.52023e-09
2.46411e-09
9.32578e-10
4.96376e-09
-1.55571e-09
7.10835e-09
-4.83913e-09
8.87127e-09
-8.8374e-09
1.02944e-08
-1.34685e-08
1.14129e-08
-1.86554e-08
1.22591e-08
-2.43214e-08
1.28749e-08
-3.03898e-08
1.32786e-08
-3.67998e-08
1.35172e-08
-4.34989e-08
1.36233e-08
-5.04325e-08
1.36268e-08
-5.7552e-08
1.35539e-08
-6.48346e-08
1.34508e-08
-7.22301e-08
1.33196e-08
-7.97315e-08
1.31929e-08
-8.73017e-08
1.30766e-08
-9.49333e-08
1.29782e-08
-1.02593e-07
1.29035e-08
-1.10294e-07
1.28615e-08
-1.17994e-07
1.2825e-08
-1.25709e-07
1.28233e-08
-1.33415e-07
1.28318e-08
-1.41099e-07
1.28536e-08
-1.48753e-07
1.28779e-08
-1.56359e-07
1.28827e-08
-1.63905e-07
1.28601e-08
-1.7138e-07
1.2802e-08
-1.78775e-07
1.27056e-08
-1.86076e-07
1.25788e-08
-1.93272e-07
1.24257e-08
-2.00351e-07
1.2248e-08
-2.0731e-07
1.2055e-08
-2.14139e-07
1.18529e-08
-2.20828e-07
1.16445e-08
-2.27377e-07
1.1433e-08
-2.33781e-07
1.12189e-08
-2.4004e-07
1.10064e-08
-2.46152e-07
1.07959e-08
-2.52119e-07
1.059e-08
-2.57943e-07
1.03999e-08
-2.63626e-07
1.02316e-08
-2.69166e-07
1.00854e-08
-2.74565e-07
9.95997e-09
-2.79824e-07
9.84825e-09
-2.84939e-07
9.73834e-09
-2.89907e-07
9.61456e-09
-2.94724e-07
9.45923e-09
-2.99385e-07
9.26108e-09
-3.03886e-07
9.01701e-09
-3.0822e-07
8.72685e-09
-3.12383e-07
8.39233e-09
-3.16367e-07
8.0194e-09
-3.20169e-07
7.61805e-09
-3.23786e-07
7.19802e-09
-3.27211e-07
6.76466e-09
-3.30441e-07
6.32072e-09
-3.33476e-07
5.8682e-09
-3.36313e-07
5.40648e-09
-3.3895e-07
4.93392e-09
-3.41388e-07
4.45129e-09
-3.43629e-07
3.95961e-09
-3.45674e-07
3.45992e-09
-3.47526e-07
2.95876e-09
-3.4919e-07
2.46697e-09
-3.50675e-07
1.99202e-09
-3.51983e-07
1.5385e-09
-3.53124e-07
1.11418e-09
-3.54107e-07
7.27849e-10
-3.54942e-07
3.82681e-10
-3.55635e-07
7.7205e-11
-3.56197e-07
-1.9003e-10
-3.56636e-07
-4.21036e-10
-3.56961e-07
-6.20328e-10
-3.57177e-07
-7.92622e-10
-3.57292e-07
-9.40902e-10
-3.57313e-07
-1.06882e-09
-3.57245e-07
-1.18199e-09
-3.57093e-07
-1.28446e-09
-3.5686e-07
-1.37554e-09
-3.56551e-07
-1.45198e-09
-3.56167e-07
-1.51214e-09
-3.55711e-07
-1.55698e-09
-3.5518e-07
-1.58933e-09
-3.54573e-07
-1.61427e-09
-3.53886e-07
-1.64001e-09
-3.53114e-07
-1.67766e-09
-3.52249e-07
-1.73856e-09
-3.51283e-07
-1.83359e-09
-3.50206e-07
-1.97115e-09
-3.49008e-07
-2.15559e-09
-3.47676e-07
-2.38669e-09
-3.46197e-07
-2.6611e-09
-3.44561e-07
-2.97449e-09
-3.42755e-07
-3.32215e-09
-3.40771e-07
-3.6983e-09
-3.38598e-07
-4.0959e-09
-3.36228e-07
-4.50787e-09
-3.33654e-07
-4.92874e-09
-3.30869e-07
-5.3554e-09
-3.27868e-07
-5.78658e-09
-3.24645e-07
-6.22182e-09
-3.21197e-07
-6.66033e-09
-3.17522e-07
-7.10003e-09
-3.13619e-07
-7.53721e-09
-3.09486e-07
-7.96737e-09
-3.05123e-07
-8.38677e-09
-3.0053e-07
-8.79308e-09
-2.95711e-07
-9.18442e-09
-2.90667e-07
-9.55799e-09
-2.854e-07
-9.9104e-09
-2.79911e-07
-1.02402e-08
-2.74202e-07
-1.05506e-08
-2.68273e-07
-1.08491e-08
-2.62128e-07
-1.11447e-08
-2.55768e-07
-1.14431e-08
-2.49197e-07
-1.17455e-08
-2.42415e-07
-1.20496e-08
-2.35427e-07
-1.23531e-08
-2.28237e-07
-1.26555e-08
-2.2085e-07
-1.29567e-08
-2.13276e-07
-1.32551e-08
-2.0552e-07
-1.35464e-08
-1.97592e-07
-1.38242e-08
-1.89502e-07
-1.40832e-08
-1.81261e-07
-1.43212e-08
-1.72881e-07
-1.45401e-08
-1.64378e-07
-1.47438e-08
-1.55766e-07
-1.49363e-08
-1.47064e-07
-1.51187e-08
-1.38291e-07
-1.52885e-08
-1.29469e-07
-1.54401e-08
-1.20623e-07
-1.55655e-08
-1.1178e-07
-1.56561e-08
-1.02971e-07
-1.57028e-08
-9.42303e-08
-1.5696e-08
-8.55981e-08
-1.56239e-08
-7.7118e-08
-1.54717e-08
-6.88369e-08
-1.52234e-08
-6.08037e-08
-1.48636e-08
-5.30687e-08
-1.43803e-08
-4.56835e-08
-1.37686e-08
-3.87002e-08
-1.30303e-08
-3.21709e-08
-1.21728e-08
-2.61469e-08
-1.12071e-08
-2.06769e-08
-1.01433e-08
-1.58036e-08
-8.99246e-09
-1.15636e-08
-7.76938e-09
-7.985e-09
-6.49016e-09
-5.08351e-09
-5.1777e-09
-2.8584e-09
-3.86526e-09
-1.28907e-09
-2.5926e-09
-3.23468e-10
-1.41792e-09
1.30124e-10
-4.24493e-10
2.14836e-10
2.79551e-10
1.19856e-10
5.73065e-10
4.53053e-10
1.47473e-09
-4.21611e-09
3.15275e-09
-4.79559e-09
3.68293e-09
-9.37946e-10
3.07245e-09
3.07458e-09
1.42839e-09
6.60781e-09
-1.16849e-09
9.70523e-09
-4.68759e-09
1.23904e-08
-9.09074e-09
1.46976e-08
-1.4311e-08
1.66332e-08
-2.03058e-08
1.82539e-08
-2.69997e-08
1.95688e-08
-3.43533e-08
2.06322e-08
-4.22973e-08
2.14612e-08
-5.07723e-08
2.20983e-08
-5.97216e-08
2.25761e-08
-6.90939e-08
2.29262e-08
-7.88234e-08
2.31803e-08
-8.88599e-08
2.3356e-08
-9.91603e-08
2.34933e-08
-1.09656e-07
2.35724e-08
-1.20337e-07
2.36594e-08
-1.31133e-07
2.36989e-08
-1.42019e-07
2.37479e-08
-1.52962e-07
2.37678e-08
-1.63926e-07
2.37879e-08
-1.74884e-07
2.37892e-08
-1.85805e-07
2.37748e-08
-1.96664e-07
2.37366e-08
-2.07443e-07
2.36617e-08
-2.18123e-07
2.35405e-08
-2.28685e-07
2.33642e-08
-2.39114e-07
2.31345e-08
-2.49395e-07
2.28592e-08
-2.59512e-07
2.25434e-08
-2.69457e-07
2.21927e-08
-2.79219e-07
2.1817e-08
-2.88788e-07
2.14217e-08
-2.98151e-07
2.10077e-08
-3.07301e-07
2.05826e-08
-3.16233e-07
2.01508e-08
-3.2494e-07
1.97135e-08
-3.3342e-07
1.92764e-08
-3.41674e-07
1.88441e-08
-3.49699e-07
1.84243e-08
-3.5749e-07
1.80231e-08
-3.65043e-07
1.76385e-08
-3.72353e-07
1.727e-08
-3.79419e-07
1.69139e-08
-3.86238e-07
1.65574e-08
-3.92809e-07
1.61856e-08
-3.99135e-07
1.57855e-08
-4.05222e-07
1.53476e-08
-4.11072e-07
1.48672e-08
-4.16688e-07
1.43423e-08
-4.22072e-07
1.37765e-08
-4.27229e-07
1.31765e-08
-4.3216e-07
1.25488e-08
-4.36864e-07
1.19023e-08
-4.41343e-07
1.12439e-08
-4.45596e-07
1.0574e-08
-4.49622e-07
9.89383e-09
-4.53424e-07
9.20834e-09
-4.57008e-07
8.5177e-09
-4.60375e-07
7.81843e-09
-4.63528e-07
7.11255e-09
-4.66475e-07
6.40694e-09
-4.69223e-07
5.70732e-09
-4.71776e-07
5.01943e-09
-4.74136e-07
4.35186e-09
-4.7631e-07
3.71318e-09
-4.78305e-07
3.10933e-09
-4.80123e-07
2.54521e-09
-4.81765e-07
2.02527e-09
-4.83239e-07
1.55076e-09
-4.84548e-07
1.11881e-09
-4.85694e-07
7.25225e-10
-4.86681e-07
3.66992e-10
-4.87515e-07
4.14514e-11
-4.882e-07
-2.55865e-10
-4.88738e-07
-5.30979e-10
-4.89131e-07
-7.88891e-10
-4.89384e-07
-1.03181e-09
-4.895e-07
-1.2599e-09
-4.89478e-07
-1.47318e-09
-4.89318e-07
-1.6725e-09
-4.89015e-07
-1.85974e-09
-4.88566e-07
-2.03836e-09
-4.87966e-07
-2.21458e-09
-4.87208e-07
-2.3975e-09
-4.86288e-07
-2.59813e-09
-4.85199e-07
-2.82793e-09
-4.83934e-07
-3.09768e-09
-4.8249e-07
-3.41586e-09
-4.80858e-07
-3.78702e-09
-4.79033e-07
-4.21167e-09
-4.77007e-07
-4.68775e-09
-4.74769e-07
-5.21206e-09
-4.72311e-07
-5.78037e-09
-4.69622e-07
-6.38685e-09
-4.66694e-07
-7.02449e-09
-4.63515e-07
-7.68654e-09
-4.60076e-07
-8.36784e-09
-4.56366e-07
-9.06505e-09
-4.52377e-07
-9.776e-09
-4.481e-07
-1.04988e-08
-4.43529e-07
-1.12312e-08
-4.38659e-07
-1.19702e-08
-4.33484e-07
-1.27117e-08
-4.28e-07
-1.34515e-08
-4.22201e-07
-1.41856e-08
-4.16084e-07
-1.49108e-08
-4.09644e-07
-1.56242e-08
-4.0288e-07
-1.63223e-08
-3.95788e-07
-1.70022e-08
-3.88365e-07
-1.76632e-08
-3.80608e-07
-1.83075e-08
-3.72516e-07
-1.89407e-08
-3.64093e-07
-1.95685e-08
-3.55341e-07
-2.01944e-08
-3.46268e-07
-2.08185e-08
-3.36879e-07
-2.14387e-08
-3.2718e-07
-2.20523e-08
-3.17179e-07
-2.26568e-08
-3.06886e-07
-2.32495e-08
-2.96315e-07
-2.38265e-08
-2.85479e-07
-2.43817e-08
-2.74395e-07
-2.49083e-08
-2.63078e-07
-2.54002e-08
-2.51546e-07
-2.58536e-08
-2.39819e-07
-2.62672e-08
-2.27921e-07
-2.66411e-08
-2.15883e-07
-2.69749e-08
-2.03735e-07
-2.72663e-08
-1.91514e-07
-2.75101e-08
-1.79255e-07
-2.76984e-08
-1.67e-07
-2.7821e-08
-1.5479e-07
-2.78662e-08
-1.42671e-07
-2.78213e-08
-1.30694e-07
-2.76728e-08
-1.18913e-07
-2.74055e-08
-1.07382e-07
-2.70024e-08
-9.6159e-08
-2.64465e-08
-8.53003e-08
-2.57223e-08
-7.48635e-08
-2.48171e-08
-6.49068e-08
-2.37253e-08
-5.54891e-08
-2.2448e-08
-4.66701e-08
-2.09917e-08
-3.85097e-08
-1.93675e-08
-3.10639e-08
-1.75891e-08
-2.43834e-08
-1.56729e-08
-1.85119e-08
-1.3641e-08
-1.34817e-08
-1.15203e-08
-9.3105e-09
-9.34887e-09
-5.99846e-09
-7.1773e-09
-3.51975e-09
-5.07131e-09
-1.81147e-09
-3.12621e-09
-7.75565e-10
-1.4604e-09
-2.4691e-10
-2.49104e-10
-3.13779e-11
3.57531e-10
4.2167e-10
1.58508e-09
-5.8012e-09
3.26857e-09
-6.47908e-09
3.63172e-09
-1.30111e-09
2.73305e-09
3.97325e-09
6.81719e-10
8.65916e-09
-2.4485e-09
1.28354e-08
-6.61691e-09
1.65588e-08
-1.17779e-08
1.98585e-08
-1.79144e-08
2.27698e-08
-2.49758e-08
2.53152e-08
-3.29208e-08
2.75139e-08
-4.16969e-08
2.94083e-08
-5.12443e-08
3.10087e-08
-6.15065e-08
3.23604e-08
-7.24126e-08
3.34823e-08
-8.38975e-08
3.44111e-08
-9.58949e-08
3.51777e-08
-1.08347e-07
3.58077e-08
-1.21167e-07
3.63141e-08
-1.3432e-07
3.67249e-08
-1.47709e-07
3.7048e-08
-1.61309e-07
3.72997e-08
-1.75044e-07
3.74828e-08
-1.88883e-07
3.76068e-08
-2.02763e-07
3.76677e-08
-2.16648e-07
3.76742e-08
-2.30494e-07
3.76211e-08
-2.44263e-07
3.7505e-08
-2.57927e-07
3.73259e-08
-2.71462e-07
3.70753e-08
-2.84846e-07
3.67485e-08
-2.98061e-07
3.635e-08
-3.11086e-07
3.58836e-08
-3.23899e-07
3.5357e-08
-3.36488e-07
3.47811e-08
-3.48836e-07
3.4165e-08
-3.60929e-07
3.35155e-08
-3.72758e-07
3.28365e-08
-3.84311e-07
3.21356e-08
-3.95581e-07
3.14203e-08
-4.06558e-07
3.06908e-08
-4.17237e-07
2.99551e-08
-4.27615e-07
2.92222e-08
-4.37687e-07
2.84959e-08
-4.47445e-07
2.7781e-08
-4.56885e-07
2.70792e-08
-4.66004e-07
2.63887e-08
-4.74796e-07
2.57062e-08
-4.83261e-07
2.50224e-08
-4.91401e-07
2.43255e-08
-4.99221e-07
2.36055e-08
-5.06729e-07
2.28558e-08
-5.13935e-07
2.20732e-08
-5.20847e-07
2.12543e-08
-5.27471e-07
2.03996e-08
-5.33812e-07
1.95178e-08
-5.3988e-07
1.86173e-08
-5.45679e-07
1.77012e-08
-5.51209e-07
1.67733e-08
-5.56474e-07
1.58395e-08
-5.61483e-07
1.49027e-08
-5.66237e-07
1.39624e-08
-5.70739e-07
1.30196e-08
-5.74998e-07
1.20775e-08
-5.79023e-07
1.11377e-08
-5.82819e-07
1.02025e-08
-5.8639e-07
9.2784e-09
-5.89745e-07
8.37444e-09
-5.92889e-07
7.49641e-09
-5.95825e-07
6.64835e-09
-5.98552e-07
5.83722e-09
-6.01078e-07
5.07043e-09
-6.03403e-07
4.35019e-09
-6.05526e-07
3.67423e-09
-6.07448e-07
3.0406e-09
-6.09171e-07
2.4483e-09
-6.10698e-07
1.89452e-09
-6.12031e-07
1.37412e-09
-6.13169e-07
8.81851e-10
-6.14113e-07
4.13284e-10
-6.14866e-07
-3.56204e-11
-6.1543e-07
-4.68221e-10
-6.15803e-07
-8.86502e-10
-6.15985e-07
-1.29176e-09
-6.15971e-07
-1.68621e-09
-6.15757e-07
-2.07361e-09
-6.15337e-07
-2.45897e-09
-6.14702e-07
-2.84876e-09
-6.13848e-07
-3.25159e-09
-6.12768e-07
-3.67811e-09
-6.11457e-07
-4.13967e-09
-6.09908e-07
-4.64647e-09
-6.08118e-07
-5.20611e-09
-6.06082e-07
-5.82307e-09
-6.03794e-07
-6.49893e-09
-6.01249e-07
-7.23323e-09
-5.98437e-07
-8.02396e-09
-5.9535e-07
-8.86758e-09
-5.91978e-07
-9.75892e-09
-5.8831e-07
-1.06919e-08
-5.84336e-07
-1.16608e-08
-5.80043e-07
-1.26608e-08
-5.75419e-07
-1.36886e-08
-5.70454e-07
-1.47414e-08
-5.65137e-07
-1.58162e-08
-5.59458e-07
-1.69097e-08
-5.5341e-07
-1.80181e-08
-5.46985e-07
-1.91374e-08
-5.40173e-07
-2.02633e-08
-5.32967e-07
-2.13917e-08
-5.25359e-07
-2.25187e-08
-5.17343e-07
-2.36402e-08
-5.08912e-07
-2.47525e-08
-5.00062e-07
-2.58526e-08
-4.90786e-07
-2.69392e-08
-4.8108e-07
-2.80135e-08
-4.70943e-07
-2.90776e-08
-4.60378e-07
-3.01339e-08
-4.49389e-07
-3.11831e-08
-4.37984e-07
-3.22237e-08
-4.2617e-07
-3.32524e-08
-4.13957e-07
-3.42654e-08
-4.01356e-07
-3.52578e-08
-3.88381e-07
-3.62241e-08
-3.7505e-07
-3.71575e-08
-3.61382e-07
-3.805e-08
-3.47397e-07
-3.88931e-08
-3.33118e-07
-3.96792e-08
-3.1857e-07
-4.04018e-08
-3.03781e-07
-4.1056e-08
-2.88786e-07
-4.16368e-08
-2.73622e-07
-4.2139e-08
-2.58332e-07
-4.25562e-08
-2.42962e-07
-4.28798e-08
-2.27562e-07
-4.30987e-08
-2.12183e-07
-4.31999e-08
-1.9688e-07
-4.31686e-08
-1.81713e-07
-4.29889e-08
-1.66742e-07
-4.26438e-08
-1.52032e-07
-4.21154e-08
-1.37649e-07
-4.13857e-08
-1.23658e-07
-4.04369e-08
-1.10127e-07
-3.92539e-08
-9.71198e-08
-3.78239e-08
-8.47042e-08
-3.61408e-08
-7.29465e-08
-3.42058e-08
-6.19137e-08
-3.20245e-08
-5.16724e-08
-2.96089e-08
-4.22845e-08
-2.6977e-08
-3.38063e-08
-2.41511e-08
-2.62866e-08
-2.11607e-08
-1.97608e-08
-1.80461e-08
-1.42495e-08
-1.48601e-08
-9.75464e-09
-1.16721e-08
-6.24635e-09
-8.5796e-09
-3.66715e-09
-5.70541e-09
-1.91138e-09
-3.21617e-09
-8.20989e-10
-1.3395e-09
-2.06467e-10
-2.5699e-10
2.15204e-10
1.56914e-09
-7.37034e-09
3.08863e-09
-7.99857e-09
3.10874e-09
-1.32122e-09
1.68288e-09
5.39912e-09
-1.01661e-09
1.13586e-08
-4.90782e-09
1.67267e-08
-9.95121e-09
2.16022e-08
-1.61211e-08
2.60283e-08
-2.33795e-08
3.00282e-08
-3.16884e-08
3.36242e-08
-4.10208e-08
3.68462e-08
-5.13044e-08
3.96919e-08
-6.25023e-08
4.22065e-08
-7.45394e-08
4.43976e-08
-8.73507e-08
4.62936e-08
-1.00869e-07
4.79294e-08
-1.15006e-07
4.93151e-08
-1.29698e-07
5.04997e-08
-1.44855e-07
5.14704e-08
-1.60422e-07
5.22921e-08
-1.76302e-07
5.29282e-08
-1.92449e-07
5.34463e-08
-2.08776e-07
5.38097e-08
-2.25234e-07
5.40653e-08
-2.41765e-07
5.41983e-08
-2.58311e-07
5.42206e-08
-2.74824e-07
5.41343e-08
-2.9126e-07
5.39405e-08
-3.07575e-07
5.36415e-08
-3.23738e-07
5.32377e-08
-3.39721e-07
5.2732e-08
-3.55501e-07
5.21295e-08
-3.71052e-07
5.14349e-08
-3.86354e-07
5.06587e-08
-4.01386e-07
4.98136e-08
-4.16129e-07
4.89071e-08
-4.30562e-07
4.79491e-08
-4.44676e-07
4.69501e-08
-4.58456e-07
4.59164e-08
-4.71892e-07
4.4856e-08
-4.84976e-07
4.37741e-08
-4.97698e-07
4.26775e-08
-5.10053e-07
4.1577e-08
-5.22034e-07
4.04772e-08
-5.33634e-07
3.93806e-08
-5.44846e-07
3.82919e-08
-5.5567e-07
3.72126e-08
-5.66102e-07
3.61385e-08
-5.76141e-07
3.50611e-08
-5.8579e-07
3.39742e-08
-5.95058e-07
3.28732e-08
-6.03954e-07
3.1752e-08
-6.12486e-07
3.06051e-08
-6.20665e-07
2.94333e-08
-6.28505e-07
2.82399e-08
-6.36015e-07
2.70275e-08
-6.43198e-07
2.58007e-08
-6.50064e-07
2.45676e-08
-6.56623e-07
2.33321e-08
-6.62878e-07
2.20943e-08
-6.68833e-07
2.08582e-08
-6.745e-07
1.96289e-08
-6.79886e-07
1.84059e-08
-6.84996e-07
1.71876e-08
-6.89837e-07
1.59784e-08
-6.9442e-07
1.47852e-08
-6.98753e-07
1.36121e-08
-7.02841e-07
1.24619e-08
-7.06685e-07
1.13403e-08
-7.10291e-07
1.02547e-08
-7.13664e-07
9.2106e-09
-7.16805e-07
8.21059e-09
-7.1971e-07
7.25545e-09
-7.22381e-07
6.3452e-09
-7.24819e-07
5.47883e-09
-7.27024e-07
4.65362e-09
-7.28996e-07
3.86577e-09
-7.30733e-07
3.11125e-09
-7.32236e-07
2.38554e-09
-7.33507e-07
1.68341e-09
-7.34542e-07
9.99987e-10
-7.35342e-07
3.3201e-10
-7.35906e-07
-3.22809e-10
-7.3623e-07
-9.67629e-10
-7.36309e-07
-1.60702e-09
-7.36137e-07
-2.24603e-09
-7.35706e-07
-2.8898e-09
-7.3501e-07
-3.54485e-09
-7.34041e-07
-4.22012e-09
-7.32793e-07
-4.92621e-09
-7.3126e-07
-5.67355e-09
-7.29435e-07
-6.47109e-09
-7.27315e-07
-7.32586e-09
-7.24895e-07
-8.24277e-09
-7.2217e-07
-9.22451e-09
-7.19131e-07
-1.02717e-08
-7.15772e-07
-1.13834e-08
-7.12083e-07
-1.25569e-08
-7.08053e-07
-1.37883e-08
-7.03673e-07
-1.50725e-08
-6.98929e-07
-1.64048e-08
-6.93808e-07
-1.77814e-08
-6.88297e-07
-1.91991e-08
-6.82384e-07
-2.06545e-08
-6.76057e-07
-2.21436e-08
-6.69304e-07
-2.36625e-08
-6.62115e-07
-2.52072e-08
-6.54479e-07
-2.67739e-08
-6.46384e-07
-2.83583e-08
-6.3782e-07
-2.99556e-08
-6.28778e-07
-3.15606e-08
-6.19249e-07
-3.31686e-08
-6.09226e-07
-3.47754e-08
-5.98701e-07
-3.63778e-08
-5.87667e-07
-3.79734e-08
-5.7612e-07
-3.95608e-08
-5.64058e-07
-4.1139e-08
-5.51485e-07
-4.27068e-08
-5.38406e-07
-4.42621e-08
-5.24829e-07
-4.58014e-08
-5.10762e-07
-4.73195e-08
-4.96217e-07
-4.881e-08
-4.81209e-07
-5.02655e-08
-4.65756e-07
-5.16771e-08
-4.49878e-07
-5.30353e-08
-4.33599e-07
-5.43296e-08
-4.16943e-07
-5.55491e-08
-3.99939e-07
-5.66834e-08
-3.82618e-07
-5.77225e-08
-3.65017e-07
-5.8657e-08
-3.47177e-07
-5.9477e-08
-3.29144e-07
-6.01722e-08
-3.10968e-07
-6.07317e-08
-2.92705e-07
-6.11427e-08
-2.74413e-07
-6.13907e-08
-2.56154e-07
-6.14591e-08
-2.37993e-07
-6.13299e-08
-2.19998e-07
-6.0984e-08
-2.0224e-07
-6.04014e-08
-1.84793e-07
-5.95622e-08
-1.67732e-07
-5.84473e-08
-1.5113e-07
-5.70384e-08
-1.35064e-07
-5.53201e-08
-1.19607e-07
-5.32805e-08
-1.04835e-07
-5.09131e-08
-9.08217e-08
-4.82191e-08
-7.76413e-08
-4.52049e-08
-6.5366e-08
-4.18842e-08
-5.40634e-08
-3.82797e-08
-4.3795e-08
-3.44194e-08
-3.46137e-08
-3.0342e-08
-2.65586e-08
-2.61013e-08
-1.96545e-08
-2.17642e-08
-1.39045e-08
-1.74222e-08
-9.28559e-09
-1.31985e-08
-5.74439e-09
-9.24662e-09
-3.17923e-09
-5.78133e-09
-1.45531e-09
-3.06342e-09
-3.93216e-10
-1.31909e-09
-1.78013e-10
1.44652e-09
-8.81685e-09
2.63898e-09
-9.19103e-09
2.17017e-09
-8.52412e-10
1.01881e-10
7.46741e-09
-3.37965e-09
1.48402e-08
-8.19256e-09
2.15396e-08
-1.42705e-08
2.76802e-08
-2.15751e-08
3.33329e-08
-3.00815e-08
3.85346e-08
-3.97539e-08
4.32966e-08
-5.0538e-08
4.76304e-08
-6.23967e-08
5.15505e-08
-7.52609e-08
5.50708e-08
-8.90646e-08
5.82013e-08
-1.03745e-07
6.09744e-08
-1.1921e-07
6.33937e-08
-1.35393e-07
6.54978e-08
-1.52194e-07
6.73015e-08
-1.69551e-07
6.88266e-08
-1.87355e-07
7.00967e-08
-2.05553e-07
7.11261e-08
-2.24041e-07
7.19346e-08
-2.42768e-07
7.25364e-08
-2.61641e-07
7.29384e-08
-2.80605e-07
7.31624e-08
-2.99598e-07
7.32134e-08
-3.18562e-07
7.30986e-08
-3.37449e-07
7.28268e-08
-3.56208e-07
7.24008e-08
-3.748e-07
7.18295e-08
-3.93189e-07
7.11214e-08
-4.11343e-07
7.02834e-08
-4.29234e-07
6.93263e-08
-4.46839e-07
6.82632e-08
-4.64132e-07
6.71066e-08
-4.81091e-07
6.5866e-08
-4.97695e-07
6.45535e-08
-5.13929e-07
6.31842e-08
-5.29779e-07
6.17658e-08
-5.45227e-07
6.03048e-08
-5.60267e-07
5.88134e-08
-5.7489e-07
5.73008e-08
-5.89086e-07
5.57734e-08
-6.02847e-07
5.42383e-08
-6.16169e-07
5.27021e-08
-6.29046e-07
5.11692e-08
-6.41474e-07
4.96405e-08
-6.53451e-07
4.81149e-08
-6.64979e-07
4.659e-08
-6.76066e-07
4.50607e-08
-6.86715e-07
4.35219e-08
-6.96936e-07
4.19729e-08
-7.06743e-07
4.04121e-08
-7.16145e-07
3.88361e-08
-7.25153e-07
3.72479e-08
-7.33781e-07
3.56554e-08
-7.42042e-07
3.40611e-08
-7.49939e-07
3.24651e-08
-7.5748e-07
3.08729e-08
-7.64677e-07
2.92914e-08
-7.71542e-07
2.77227e-08
-7.78078e-07
2.61655e-08
-7.84293e-07
2.46209e-08
-7.90199e-07
2.30932e-08
-7.95807e-07
2.1586e-08
-8.01122e-07
2.01008e-08
-8.06151e-07
1.8641e-08
-8.10901e-07
1.72121e-08
-8.1538e-07
1.58187e-08
-8.19589e-07
1.4464e-08
-8.2353e-07
1.31517e-08
-8.27205e-07
1.18853e-08
-8.30614e-07
1.06652e-08
-8.33759e-07
9.48938e-09
-8.36636e-07
8.35573e-09
-8.39245e-07
7.26271e-09
-8.41586e-07
6.20727e-09
-8.43659e-07
5.18437e-09
-8.45462e-07
4.18824e-09
-8.46992e-07
3.21383e-09
-8.4825e-07
2.25715e-09
-8.49232e-07
1.31457e-09
-8.49937e-07
3.81812e-10
-8.50358e-07
-5.46274e-10
-8.5049e-07
-1.47507e-09
-8.50326e-07
-2.40979e-09
-8.4986e-07
-3.35617e-09
-8.49083e-07
-4.32163e-09
-8.47988e-07
-5.31549e-09
-8.46566e-07
-6.34775e-09
-8.44812e-07
-7.42775e-09
-8.42719e-07
-8.56359e-09
-8.40283e-07
-9.76209e-09
-8.37497e-07
-1.10286e-08
-8.34355e-07
-1.23668e-08
-8.30848e-07
-1.37784e-08
-8.26969e-07
-1.52633e-08
-8.22706e-07
-1.68198e-08
-8.18049e-07
-1.84446e-08
-8.12988e-07
-2.0134e-08
-8.07508e-07
-2.18848e-08
-8.01595e-07
-2.36942e-08
-7.95235e-07
-2.55591e-08
-7.88414e-07
-2.74754e-08
-7.81119e-07
-2.94385e-08
-7.73338e-07
-3.14441e-08
-7.65056e-07
-3.34886e-08
-7.56262e-07
-3.55682e-08
-7.46942e-07
-3.76782e-08
-7.37085e-07
-3.98129e-08
-7.2668e-07
-4.19659e-08
-7.15716e-07
-4.41319e-08
-7.04186e-07
-4.63061e-08
-6.92079e-07
-4.84844e-08
-6.7939e-07
-5.06625e-08
-6.66114e-07
-5.28364e-08
-6.52252e-07
-5.50018e-08
-6.37804e-07
-5.71544e-08
-6.22777e-07
-5.92891e-08
-6.07179e-07
-6.13996e-08
-5.9102e-07
-6.34783e-08
-5.74314e-07
-6.55156e-08
-5.57079e-07
-6.75008e-08
-5.39334e-07
-6.94221e-08
-5.21103e-07
-7.12663e-08
-5.02413e-07
-7.30201e-08
-4.83292e-07
-7.46694e-08
-4.63775e-07
-7.62004e-08
-4.43899e-07
-7.75986e-08
-4.23706e-07
-7.88498e-08
-4.03244e-07
-7.99391e-08
-3.82565e-07
-8.08512e-08
-3.61726e-07
-8.15703e-08
-3.4079e-07
-8.20791e-08
-3.19822e-07
-8.23589e-08
-2.98892e-07
-8.23892e-08
-2.78073e-07
-8.21487e-08
-2.57442e-07
-8.1615e-08
-2.37078e-07
-8.07655e-08
-2.17062e-07
-7.95783e-08
-1.97476e-07
-7.80334e-08
-1.78403e-07
-7.61114e-08
-1.59926e-07
-7.37967e-08
-1.42129e-07
-7.10779e-08
-1.25093e-07
-6.79489e-08
-1.08901e-07
-6.4411e-08
-9.36331e-08
-6.04728e-08
-7.93668e-08
-5.61505e-08
-6.61757e-08
-5.14708e-08
-5.41263e-08
-4.64687e-08
-4.32757e-08
-4.11927e-08
-3.36687e-08
-3.57083e-08
-2.53354e-08
-3.00975e-08
-1.82826e-08
-2.4475e-08
-1.24985e-08
-1.89825e-08
-7.93445e-09
-1.38107e-08
-4.51269e-09
-9.2031e-09
-2.10903e-09
-5.46709e-09
-5.85038e-10
-2.84308e-09
-7.63057e-10
1.23142e-09
-1.00483e-08
1.98731e-09
-9.94693e-09
9.23856e-10
2.11053e-10
-1.87323e-09
1.02645e-08
-6.2371e-09
1.9204e-08
-1.20434e-08
2.73458e-08
-1.92394e-08
3.48763e-08
-2.77707e-08
4.18641e-08
-3.75979e-08
4.83618e-08
-4.86791e-08
5.43777e-08
-6.09759e-08
5.99272e-08
-7.442e-08
6.49947e-08
-8.89562e-08
6.9607e-08
-1.04515e-07
7.37604e-08
-1.21015e-07
7.74739e-08
-1.38377e-07
8.0756e-08
-1.56519e-07
8.36392e-08
-1.75337e-07
8.61195e-08
-1.94766e-07
8.82557e-08
-2.14688e-07
9.00189e-08
-2.35045e-07
9.14827e-08
-2.55729e-07
9.26188e-08
-2.76675e-07
9.34831e-08
-2.97799e-07
9.40625e-08
-3.19028e-07
9.43908e-08
-3.40292e-07
9.44777e-08
-3.6153e-07
9.43363e-08
-3.82684e-07
9.39813e-08
-4.03705e-07
9.34211e-08
-4.24545e-07
9.26696e-08
-4.45162e-07
9.17391e-08
-4.65519e-07
9.06399e-08
-4.85583e-07
8.93901e-08
-5.05324e-07
8.80048e-08
-5.24714e-07
8.64958e-08
-5.43728e-07
8.48802e-08
-5.62347e-07
8.31726e-08
-5.80549e-07
8.1386e-08
-5.98316e-07
7.95333e-08
-6.15636e-07
7.76251e-08
-6.32496e-07
7.56728e-08
-6.48884e-07
7.36889e-08
-6.64793e-07
7.16825e-08
-6.80215e-07
6.96606e-08