/*--------------------------------*- C++ -*----------------------------------*\
  =========                 |
  \\      /  F ield         | OpenFOAM: The Open Source CFD Toolbox
   \\    /   O peration     | Website:  https://openfoam.org
    \\  /    A nd           | Version:  7
     \\/     M anipulation  |
\*---------------------------------------------------------------------------*/
FoamFile
{
    version     2.0;
    format      ascii;
    class       volScalarField;
    location    "0.5";
    object      p;
}
// * * * * * * * * * * * * * * * * * * * * * * * * * * * * * * * * * * * * * //

dimensions      [0 2 -2 0 0 0 0];

internalField   nonuniform List<scalar> 
51200
(
-3.17198e-09
1.70228e-06
4.29054e-06
6.83333e-06
8.95187e-06
1.0793e-05
1.242e-05
1.38629e-05
1.51473e-05
1.62808e-05
1.72757e-05
1.8136e-05
1.88647e-05
1.94682e-05
1.99484e-05
2.03097e-05
2.05551e-05
2.06868e-05
2.07068e-05
2.06186e-05
2.04261e-05
2.01306e-05
1.97373e-05
1.92467e-05
1.86623e-05
1.79895e-05
1.72288e-05
1.6382e-05
1.54525e-05
1.44425e-05
1.3355e-05
1.21936e-05
1.09613e-05
9.66169e-06
8.29697e-06
6.86938e-06
5.38346e-06
3.84192e-06
2.24561e-06
5.98101e-07
-1.09723e-06
-2.83959e-06
-4.62777e-06
-6.45996e-06
-8.33461e-06
-1.02499e-05
-1.22041e-05
-1.41953e-05
-1.62209e-05
-1.82783e-05
-2.0367e-05
-2.24859e-05
-2.46326e-05
-2.68046e-05
-2.9001e-05
-3.12221e-05
-3.3467e-05
-3.57338e-05
-3.80216e-05
-4.03304e-05
-4.26585e-05
-4.50046e-05
-4.73678e-05
-4.97473e-05
-5.2142e-05
-5.45513e-05
-5.69739e-05
-5.94082e-05
-6.18545e-05
-6.4314e-05
-6.6786e-05
-6.92678e-05
-7.17581e-05
-7.42574e-05
-7.67662e-05
-7.92838e-05
-8.18088e-05
-8.43401e-05
-8.68769e-05
-8.94189e-05
-9.19667e-05
-9.45199e-05
-9.70765e-05
-9.96355e-05
-0.000102197
-0.000104762
-0.000107328
-0.000109896
-0.000112462
-0.000115027
-0.000117591
-0.000120151
-0.000122709
-0.000125261
-0.000127808
-0.000130347
-0.000132879
-0.000135402
-0.000137915
-0.000140416
-0.000142905
-0.000145379
-0.000147838
-0.000150279
-0.0001527
-0.000155102
-0.000157482
-0.00015984
-0.000162173
-0.000164479
-0.000166755
-0.000169001
-0.000171215
-0.000173394
-0.000175538
-0.000177645
-0.00017971
-0.000181734
-0.000183713
-0.000185646
-0.000187531
-0.000189364
-0.000191144
-0.000192867
-0.000194534
-0.00019614
-0.000197686
-0.000199167
-0.000200582
-0.000201927
-0.0002032
-0.000204399
-0.000205521
-0.000206568
-0.000207535
-0.000208422
-0.000209225
-0.000209943
-0.000210575
-0.000211121
-0.00021158
-0.00021195
-0.000212231
-0.000212425
-0.000212531
-0.000212552
-0.000212491
-0.000212351
-0.000212135
-0.000211848
-0.0002115
-0.000211097
-0.000210654
-0.000210187
-0.000209714
-0.000209257
-0.000208849
-0.000208527
-0.000208339
-0.000208302
1.5964e-06
3.22133e-06
5.29336e-06
7.33739e-06
9.16801e-06
1.07976e-05
1.22551e-05
1.35626e-05
1.47301e-05
1.57681e-05
1.6682e-05
1.74743e-05
1.81476e-05
1.87018e-05
1.91413e-05
1.94687e-05
1.96872e-05
1.97994e-05
1.98061e-05
1.97099e-05
1.95127e-05
1.92185e-05
1.88277e-05
1.83434e-05
1.777e-05
1.71083e-05
1.63608e-05
1.55306e-05
1.46188e-05
1.36282e-05
1.25617e-05
1.14218e-05
1.02125e-05
8.93653e-06
7.59531e-06
6.19237e-06
4.73148e-06
3.21401e-06
1.64219e-06
1.98722e-08
-1.65115e-06
-3.36959e-06
-5.13344e-06
-6.94153e-06
-8.79255e-06
-1.06846e-05
-1.26168e-05
-1.45871e-05
-1.6592e-05
-1.86296e-05
-2.06994e-05
-2.28e-05
-2.49291e-05
-2.70849e-05
-2.9267e-05
-3.14742e-05
-3.37045e-05
-3.59567e-05
-3.82309e-05
-4.0527e-05
-4.28437e-05
-4.51797e-05
-4.75335e-05
-4.99038e-05
-5.22906e-05
-5.46932e-05
-5.71089e-05
-5.95359e-05
-6.19751e-05
-6.44278e-05
-6.6893e-05
-6.93691e-05
-7.18554e-05
-7.43509e-05
-7.68549e-05
-7.93668e-05
-8.18861e-05
-8.4412e-05
-8.69441e-05
-8.94819e-05
-9.20252e-05
-9.45731e-05
-9.71239e-05
-9.9677e-05
-0.000102233
-0.00010479
-0.000107349
-0.000109907
-0.000112465
-0.000115023
-0.000117578
-0.000120129
-0.000122676
-0.000125216
-0.00012775
-0.000130276
-0.000132794
-0.000135303
-0.000137801
-0.000140285
-0.000142757
-0.000145213
-0.000147653
-0.000150075
-0.000152475
-0.000154855
-0.000157213
-0.000159547
-0.000161857
-0.000164138
-0.00016639
-0.00016861
-0.000170797
-0.000172949
-0.000175066
-0.000177144
-0.000179182
-0.000181177
-0.000183127
-0.000185031
-0.000186886
-0.000188691
-0.000190442
-0.000192138
-0.000193777
-0.000195357
-0.000196876
-0.000198333
-0.000199723
-0.000201045
-0.000202297
-0.000203476
-0.000204581
-0.000205611
-0.000206566
-0.000207441
-0.000208237
-0.000208951
-0.000209582
-0.000210131
-0.000210596
-0.000210978
-0.000211275
-0.00021149
-0.000211623
-0.000211676
-0.000211654
-0.000211558
-0.000211394
-0.000211167
-0.000210884
-0.000210554
-0.00021019
-0.000209806
-0.000209419
-0.00020905
-0.000208719
-0.000208456
-0.000208296
-0.000208253
3.7939e-06
4.96346e-06
6.43325e-06
8.01362e-06
9.53969e-06
1.09554e-05
1.22526e-05
1.34307e-05
1.4495e-05
1.54446e-05
1.62842e-05
1.7015e-05
1.7635e-05
1.81465e-05
1.85498e-05
1.88472e-05
1.90406e-05
1.91325e-05
1.91244e-05
1.90173e-05
1.8815e-05
1.85172e-05
1.8126e-05
1.76459e-05
1.70776e-05
1.6423e-05
1.56852e-05
1.48653e-05
1.39659e-05
1.29896e-05
1.1938e-05
1.08147e-05
9.62328e-06
8.36493e-06
7.04253e-06
5.65962e-06
4.21764e-06
2.71918e-06
1.16752e-06
-4.35026e-07
-2.08662e-06
-3.78556e-06
-5.53081e-06
-7.32068e-06
-9.15356e-06
-1.10286e-05
-1.29445e-05
-1.4898e-05
-1.68864e-05
-1.89086e-05
-2.09635e-05
-2.30493e-05
-2.51635e-05
-2.73057e-05
-2.94759e-05
-3.16717e-05
-3.38912e-05
-3.61337e-05
-3.83985e-05
-4.06852e-05
-4.29934e-05
-4.53213e-05
-4.76669e-05
-5.00297e-05
-5.24098e-05
-5.48055e-05
-5.7215e-05
-5.96377e-05
-6.20738e-05
-6.45224e-05
-6.69823e-05
-6.94533e-05
-7.19354e-05
-7.44276e-05
-7.69288e-05
-7.94377e-05
-8.19533e-05
-8.44748e-05
-8.7003e-05
-8.95375e-05
-9.20771e-05
-9.46201e-05
-9.7166e-05
-9.9715e-05
-0.000102267
-0.000104821
-0.000107373
-0.000109925
-0.000112476
-0.000115026
-0.000117574
-0.000120118
-0.000122656
-0.000125187
-0.00012771
-0.000130226
-0.000132733
-0.00013523
-0.000137716
-0.000140188
-0.000142646
-0.000145088
-0.000147512
-0.000149916
-0.0001523
-0.000154663
-0.000157003
-0.000159319
-0.000161609
-0.00016387
-0.000166101
-0.000168301
-0.000170466
-0.000172598
-0.000174693
-0.000176749
-0.000178763
-0.000180734
-0.000182661
-0.000184542
-0.000186375
-0.000188156
-0.000189885
-0.000191558
-0.000193174
-0.000194733
-0.000196232
-0.000197669
-0.00019904
-0.000200344
-0.000201578
-0.000202742
-0.000203834
-0.000204853
-0.000205797
-0.000206665
-0.000207455
-0.000208166
-0.000208797
-0.000209349
-0.00020982
-0.000210211
-0.000210522
-0.000210755
-0.000210909
-0.000210988
-0.000210996
-0.000210934
-0.000210809
-0.000210626
-0.000210391
-0.000210112
-0.000209802
-0.000209474
-0.000209142
-0.000208821
-0.00020853
-0.000208289
-0.000208127
-0.000208054
5.70311e-06
6.49609e-06
7.55388e-06
8.76683e-06
1.0019e-05
1.12335e-05
1.23752e-05
1.3433e-05
1.43983e-05
1.52671e-05
1.60384e-05
1.67086e-05
1.72783e-05
1.77469e-05
1.81153e-05
1.8384e-05
1.85538e-05
1.86258e-05
1.86017e-05
1.84832e-05
1.82717e-05
1.79678e-05
1.75752e-05
1.70954e-05
1.65297e-05
1.58805e-05
1.51488e-05
1.43364e-05
1.34463e-05
1.24798e-05
1.14396e-05
1.03292e-05
9.15034e-06
7.90516e-06
6.5976e-06
5.22952e-06
3.80221e-06
2.31931e-06
7.83501e-07
-8.03316e-07
-2.43887e-06
-4.12241e-06
-5.85241e-06
-7.62693e-06
-9.44521e-06
-1.13066e-05
-1.32088e-05
-1.51483e-05
-1.71237e-05
-1.91341e-05
-2.11774e-05
-2.32514e-05
-2.53546e-05
-2.74866e-05
-2.96465e-05
-3.18321e-05
-3.40422e-05
-3.62763e-05
-3.85337e-05
-4.08136e-05
-4.31151e-05
-4.54363e-05
-4.77763e-05
-5.01349e-05
-5.25104e-05
-5.49001e-05
-5.73037e-05
-5.97224e-05
-6.21556e-05
-6.46016e-05
-6.70587e-05
-6.95267e-05
-7.20055e-05
-7.44948e-05
-7.69933e-05
-7.94998e-05
-8.20127e-05
-8.45316e-05
-8.70574e-05
-8.95899e-05
-9.21268e-05
-9.46663e-05
-9.72084e-05
-9.97538e-05
-0.000102302
-0.000104852
-0.0001074
-0.000109947
-0.000112494
-0.000115038
-0.000117579
-0.000120116
-0.000122647
-0.00012517
-0.000127686
-0.000130193
-0.000132692
-0.000135179
-0.000137654
-0.000140116
-0.000142562
-0.000144992
-0.000147403
-0.000149794
-0.000152163
-0.000154511
-0.000156836
-0.000159137
-0.000161411
-0.000163656
-0.00016587
-0.000168052
-0.0001702
-0.000172313
-0.00017439
-0.000176427
-0.000178421
-0.000180373
-0.00018228
-0.000184142
-0.000185955
-0.000187718
-0.000189427
-0.000191082
-0.000192681
-0.000194222
-0.000195704
-0.000197124
-0.00019848
-0.000199768
-0.000200989
-0.000202139
-0.000203221
-0.000204231
-0.000205168
-0.00020603
-0.000206815
-0.000207524
-0.000208156
-0.000208711
-0.000209189
-0.000209588
-0.00020991
-0.000210157
-0.000210329
-0.000210429
-0.00021046
-0.000210425
-0.00021033
-0.000210178
-0.000209978
-0.000209736
-0.000209462
-0.000209169
-0.000208868
-0.000208573
-0.000208297
-0.000208055
-0.000207865
-0.000207731
7.04132e-06
7.70061e-06
8.53464e-06
9.50224e-06
1.05385e-05
1.15771e-05
1.25778e-05
1.35196e-05
1.43904e-05
1.51807e-05
1.5884e-05
1.6497e-05
1.70166e-05
1.74422e-05
1.77743e-05
1.80131e-05
1.81579e-05
1.82091e-05
1.81688e-05
1.80373e-05
1.78145e-05
1.7504e-05
1.71072e-05
1.66249e-05
1.60599e-05
1.5413e-05
1.46851e-05
1.38789e-05
1.29953e-05
1.20366e-05
1.10066e-05
9.90655e-06
8.73839e-06
7.50549e-06
6.21024e-06
4.85434e-06
3.44027e-06
1.97093e-06
4.48895e-07
-1.12396e-06
-2.74615e-06
-4.41638e-06
-6.13301e-06
-7.89464e-06
-9.70084e-06
-1.15503e-05
-1.34396e-05
-1.53667e-05
-1.73309e-05
-1.93306e-05
-2.13627e-05
-2.34262e-05
-2.55204e-05
-2.76442e-05
-2.97956e-05
-3.19729e-05
-3.4175e-05
-3.64018e-05
-3.86528e-05
-4.0927e-05
-4.32221e-05
-4.55371e-05
-4.78723e-05
-5.02272e-05
-5.25987e-05
-5.49844e-05
-5.73846e-05
-5.98002e-05
-6.22302e-05
-6.46731e-05
-6.71281e-05
-6.95944e-05
-7.20715e-05
-7.4559e-05
-7.70554e-05
-7.95593e-05
-8.20699e-05
-8.45873e-05
-8.71116e-05
-8.96419e-05
-9.21762e-05
-9.47135e-05
-9.72539e-05
-9.97972e-05
-0.000102342
-0.000104887
-0.000107432
-0.000109975
-0.000112518
-0.000115058
-0.000117594
-0.000120125
-0.000122649
-0.000125165
-0.000127673
-0.000130174
-0.000132664
-0.000135143
-0.000137608
-0.00014006
-0.000142497
-0.000144915
-0.000147314
-0.000149692
-0.000152049
-0.000154384
-0.000156695
-0.000158982
-0.000161241
-0.000163471
-0.000165669
-0.000167835
-0.000169967
-0.000172064
-0.000174123
-0.000176142
-0.000178119
-0.000180053
-0.000181943
-0.000183787
-0.000185583
-0.000187327
-0.000189019
-0.000190657
-0.00019224
-0.000193765
-0.000195232
-0.000196637
-0.000197978
-0.000199253
-0.000200462
-0.000201602
-0.000202674
-0.000203676
-0.000204607
-0.000205463
-0.000206245
-0.000206953
-0.000207585
-0.000208144
-0.000208627
-0.000209035
-0.000209368
-0.000209627
-0.000209813
-0.000209931
-0.000209983
-0.000209971
-0.0002099
-0.000209775
-0.000209601
-0.000209387
-0.00020914
-0.00020887
-0.000208586
-0.0002083
-0.000208025
-0.000207769
-0.000207538
-0.000207327
8.02775e-06
8.64246e-06
9.36055e-06
1.01751e-05
1.10563e-05
1.19564e-05
1.28384e-05
1.36774e-05
1.44614e-05
1.51763e-05
1.58154e-05
1.63722e-05
1.68442e-05
1.72287e-05
1.75253e-05
1.77336e-05
1.78526e-05
1.78826e-05
1.7825e-05
1.76781e-05
1.74445e-05
1.71262e-05
1.67233e-05
1.62378e-05
1.56712e-05
1.50241e-05
1.42986e-05
1.34957e-05
1.26165e-05
1.16643e-05
1.06415e-05
9.54909e-06
8.39034e-06
7.16756e-06
5.88207e-06
4.53662e-06
3.13371e-06
1.67607e-06
1.6593e-07
-1.39517e-06
-3.00594e-06
-4.66446e-06
-6.36941e-06
-8.12051e-06
-9.9168e-06
-1.17555e-05
-1.36339e-05
-1.55513e-05
-1.75063e-05
-1.94963e-05
-2.15189e-05
-2.35736e-05
-2.56598e-05
-2.77758e-05
-2.992e-05
-3.20906e-05
-3.42864e-05
-3.65076e-05
-3.87536e-05
-4.10227e-05
-4.33129e-05
-4.56239e-05
-4.79556e-05
-5.03061e-05
-5.26734e-05
-5.50563e-05
-5.74549e-05
-5.98688e-05
-6.22964e-05
-6.4737e-05
-6.71902e-05
-6.96554e-05
-7.21316e-05
-7.46183e-05
-7.71134e-05
-7.96155e-05
-8.21249e-05
-8.46418e-05
-8.71654e-05
-8.96939e-05
-9.22259e-05
-9.47615e-05
-9.73009e-05
-9.98429e-05
-0.000102385
-0.000104927
-0.000107469
-0.00011001
-0.000112549
-0.000115085
-0.000117617
-0.000120142
-0.000122661
-0.000125171
-0.000127674
-0.000130168
-0.00013265
-0.000135121
-0.000137579
-0.000140022
-0.00014245
-0.000144858
-0.000147246
-0.000149613
-0.000151959
-0.000154282
-0.000156581
-0.000158855
-0.0001611
-0.000163316
-0.0001655
-0.000167651
-0.00016977
-0.000171852
-0.000173895
-0.000175898
-0.000177859
-0.000179777
-0.000181652
-0.00018348
-0.000185259
-0.000186988
-0.000188664
-0.000190287
-0.000191855
-0.000193366
-0.000194819
-0.000196211
-0.000197539
-0.000198802
-0.0002
-0.000201131
-0.000202196
-0.000203191
-0.000204115
-0.000204967
-0.000205747
-0.000206453
-0.000207087
-0.000207649
-0.000208137
-0.000208552
-0.000208894
-0.000209164
-0.000209364
-0.000209497
-0.000209566
-0.000209573
-0.000209522
-0.000209416
-0.000209263
-0.000209068
-0.000208839
-0.000208583
-0.000208307
-0.000208018
-0.000207731
-0.000207451
-0.00020717
-0.000206875
8.78315e-06
9.39631e-06
1.006e-05
1.07803e-05
1.15563e-05
1.23533e-05
1.3139e-05
1.38944e-05
1.46013e-05
1.52486e-05
1.58274e-05
1.63317e-05
1.67585e-05
1.71044e-05
1.7367e-05
1.75454e-05
1.76392e-05
1.7648e-05
1.75709e-05
1.74087e-05
1.71632e-05
1.6835e-05
1.64254e-05
1.59352e-05
1.53652e-05
1.47167e-05
1.39911e-05
1.31892e-05
1.23134e-05
1.13657e-05
1.03475e-05
9.2613e-06
8.10974e-06
6.8945e-06
5.61698e-06
4.28011e-06
2.88647e-06
1.43829e-06
-6.2198e-08
-1.61392e-06
-3.2153e-06
-4.86403e-06
-6.55981e-06
-8.30263e-06
-1.00902e-05
-1.19195e-05
-1.37895e-05
-1.5699e-05
-1.76457e-05
-1.96275e-05
-2.16429e-05
-2.36909e-05
-2.57707e-05
-2.78804e-05
-3.00183e-05
-3.21833e-05
-3.43747e-05
-3.65919e-05
-3.88337e-05
-4.10981e-05
-4.33848e-05
-4.56938e-05
-4.80232e-05
-5.03704e-05
-5.27344e-05
-5.51154e-05
-5.75129e-05
-5.99257e-05
-6.23524e-05
-6.4792e-05
-6.72444e-05
-6.97091e-05
-7.21853e-05
-7.46716e-05
-7.7166e-05
-7.96675e-05
-8.21768e-05
-8.4694e-05
-8.72174e-05
-8.9745e-05
-9.22761e-05
-9.48112e-05
-9.73497e-05
-9.98904e-05
-0.000102432
-0.000104972
-0.000107512
-0.00011005
-0.000112587
-0.00011512
-0.000117649
-0.00012017
-0.000122684
-0.00012519
-0.000127687
-0.000130175
-0.000132652
-0.000135116
-0.000137567
-0.000140003
-0.000142422
-0.000144822
-0.0001472
-0.000149558
-0.000151894
-0.000154207
-0.000156496
-0.000158758
-0.000160991
-0.000163194
-0.000165365
-0.000167505
-0.00016961
-0.000171678
-0.000173708
-0.000175696
-0.000177643
-0.000179548
-0.000181409
-0.000183222
-0.000184988
-0.000186702
-0.000188364
-0.000189974
-0.000191529
-0.000193028
-0.000194469
-0.000195849
-0.000197166
-0.000198419
-0.000199608
-0.000200732
-0.000201789
-0.000202778
-0.000203697
-0.000204546
-0.000205324
-0.00020603
-0.000206666
-0.00020723
-0.000207722
-0.000208143
-0.000208492
-0.000208772
-0.000208983
-0.000209129
-0.000209212
-0.000209235
-0.000209198
-0.000209108
-0.000208968
-0.000208785
-0.000208566
-0.000208316
-0.000208039
-0.000207741
-0.000207433
-0.000207121
-0.000206784
-0.000206403
9.38336e-06
1.00229e-05
1.06645e-05
1.13324e-05
1.20385e-05
1.27598e-05
1.34731e-05
1.41573e-05
1.47997e-05
1.53878e-05
1.59133e-05
1.63703e-05
1.67548e-05
1.70639e-05
1.72938e-05
1.74439e-05
1.75134e-05
1.75e-05
1.74042e-05
1.7227e-05
1.69682e-05
1.66293e-05
1.62114e-05
1.57146e-05
1.51401e-05
1.44886e-05
1.37606e-05
1.29584e-05
1.20841e-05
1.11386e-05
1.01238e-05
9.04216e-06
7.89554e-06
6.68544e-06
5.41423e-06
4.08428e-06
2.69796e-06
1.2574e-06
-2.35693e-07
-1.77997e-06
-3.37334e-06
-5.01471e-06
-6.70416e-06
-8.44015e-06
-1.022e-05
-1.20422e-05
-1.3906e-05
-1.5809e-05
-1.77487e-05
-1.9724e-05
-2.17336e-05
-2.37765e-05
-2.58515e-05
-2.79565e-05
-3.00895e-05
-3.22504e-05
-3.44389e-05
-3.66534e-05
-3.8892e-05
-4.11534e-05
-4.3438e-05
-4.57455e-05
-4.80731e-05
-5.04184e-05
-5.27811e-05
-5.51613e-05
-5.75581e-05
-5.99704e-05
-6.2397e-05
-6.48369e-05
-6.72896e-05
-6.97552e-05
-7.22321e-05
-7.47185e-05
-7.7213e-05
-7.97152e-05
-8.22256e-05
-8.47435e-05
-8.72667e-05
-8.97943e-05
-9.2326e-05
-9.48619e-05
-9.74003e-05
-9.99402e-05
-0.000102481
-0.00010502
-0.000107559
-0.000110097
-0.000112632
-0.000115164
-0.000117689
-0.000120207
-0.000122717
-0.00012522
-0.000127714
-0.000130196
-0.000132668
-0.000135127
-0.000137572
-0.000140002
-0.000142414
-0.000144806
-0.000147177
-0.000149527
-0.000151855
-0.000154159
-0.000156438
-0.00015869
-0.000160913
-0.000163105
-0.000165266
-0.000167394
-0.000169488
-0.000171544
-0.000173561
-0.000175538
-0.000177473
-0.000179366
-0.000181214
-0.000183015
-0.000184768
-0.00018647
-0.00018812
-0.000189718
-0.000191262
-0.00019275
-0.00019418
-0.00019555
-0.000196858
-0.000198103
-0.000199284
-0.000200401
-0.000201453
-0.000202437
-0.000203351
-0.000204197
-0.000204974
-0.00020568
-0.000206317
-0.000206884
-0.00020738
-0.000207805
-0.000208161
-0.000208449
-0.00020867
-0.000208827
-0.000208921
-0.000208955
-0.000208929
-0.000208848
-0.000208718
-0.000208541
-0.000208325
-0.000208073
-0.00020779
-0.000207477
-0.000207144
-0.000206795
-0.000206402
-0.000205935
9.89071e-06
1.05645e-05
1.12072e-05
1.1846e-05
1.25091e-05
1.31785e-05
1.38344e-05
1.44624e-05
1.50501e-05
1.55876e-05
1.60666e-05
1.64815e-05
1.68281e-05
1.71023e-05
1.7302e-05
1.74252e-05
1.74701e-05
1.74351e-05
1.73213e-05
1.71283e-05
1.68562e-05
1.65062e-05
1.60786e-05
1.55743e-05
1.49937e-05
1.43371e-05
1.3606e-05
1.28021e-05
1.1927e-05
1.09818e-05
9.96902e-06
8.89028e-06
7.74644e-06
6.54008e-06
5.27331e-06
3.94836e-06
2.56774e-06
1.13269e-06
-3.55095e-07
-1.89316e-06
-3.48034e-06
-5.11695e-06
-6.80182e-06
-8.53212e-06
-1.03063e-05
-1.21236e-05
-1.39825e-05
-1.58803e-05
-1.78149e-05
-1.97853e-05
-2.17908e-05
-2.383e-05
-2.59013e-05
-2.80027e-05
-3.01327e-05
-3.22914e-05
-3.4478e-05
-3.66905e-05
-3.89271e-05
-4.11877e-05
-4.34719e-05
-4.57781e-05
-4.81043e-05
-5.04491e-05
-5.2812e-05
-5.51927e-05
-5.759e-05
-6.00026e-05
-6.24297e-05
-6.48708e-05
-6.73253e-05
-6.97927e-05
-7.2271e-05
-7.4758e-05
-7.72536e-05
-7.9758e-05
-8.22706e-05
-8.47897e-05
-8.73136e-05
-8.98421e-05
-9.23754e-05
-9.49126e-05
-9.74519e-05
-9.99921e-05
-0.000102533
-0.000105072
-0.000107611
-0.000110149
-0.000112684
-0.000115214
-0.000117738
-0.000120254
-0.000122762
-0.000125262
-0.000127753
-0.000130231
-0.000132699
-0.000135154
-0.000137595
-0.00014002
-0.000142426
-0.000144812
-0.000147177
-0.000149521
-0.000151841
-0.000154138
-0.00015641
-0.000158652
-0.000160866
-0.000163049
-0.0001652
-0.000167319
-0.000169403
-0.000171449
-0.000173456
-0.000175422
-0.000177347
-0.00017923
-0.000181068
-0.000182858
-0.000184599
-0.00018629
-0.00018793
-0.000189518
-0.000191052
-0.000192531
-0.000193953
-0.000195314
-0.000196614
-0.000197852
-0.000199027
-0.000200138
-0.000201184
-0.000202164
-0.000203076
-0.000203919
-0.000204695
-0.000205402
-0.00020604
-0.000206609
-0.000207108
-0.000207537
-0.000207898
-0.000208193
-0.000208423
-0.000208589
-0.000208691
-0.000208732
-0.000208713
-0.000208638
-0.000208512
-0.000208339
-0.000208121
-0.000207863
-0.000207567
-0.000207236
-0.000206875
-0.000206488
-0.000206038
-0.00020549
1.03403e-05
1.10579e-05
1.17111e-05
1.2338e-05
1.29755e-05
1.36085e-05
1.42228e-05
1.48063e-05
1.53495e-05
1.58437e-05
1.6283e-05
1.66614e-05
1.69732e-05
1.72164e-05
1.73882e-05
1.74855e-05
1.75065e-05
1.74514e-05
1.73189e-05
1.71099e-05
1.68246e-05
1.64627e-05
1.6025e-05
1.55119e-05
1.49234e-05
1.42607e-05
1.35255e-05
1.27186e-05
1.18409e-05
1.0895e-05
9.88238e-06
8.80414e-06
7.66191e-06
6.45786e-06
5.1938e-06
3.87242e-06
2.49544e-06
1.06378e-06
-4.19902e-07
-1.95357e-06
-3.53736e-06
-5.17093e-06
-6.85191e-06
-8.57817e-06
-1.0349e-05
-1.21631e-05
-1.4018e-05
-1.5912e-05
-1.78433e-05
-1.98107e-05
-2.18136e-05
-2.38504e-05
-2.5919e-05
-2.80182e-05
-3.01472e-05
-3.23053e-05
-3.44911e-05
-3.67022e-05
-3.89384e-05
-4.11998e-05
-4.34847e-05
-4.57907e-05
-4.81165e-05
-5.04619e-05
-5.28261e-05
-5.52082e-05
-5.7607e-05
-6.00211e-05
-6.245e-05
-6.48934e-05
-6.73508e-05
-6.98207e-05
-7.23008e-05
-7.47898e-05
-7.72879e-05
-7.97952e-05
-8.23102e-05
-8.48313e-05
-8.73574e-05
-8.98883e-05
-9.24239e-05
-9.49631e-05
-9.7504e-05
-0.000100046
-0.000102587
-0.000105128
-0.000107668
-0.000110207
-0.000112743
-0.000115273
-0.000117795
-0.000120311
-0.000122818
-0.000125316
-0.000127804
-0.000130281
-0.000132745
-0.000135198
-0.000137636
-0.000140056
-0.000142458
-0.00014484
-0.0001472
-0.000149538
-0.000151854
-0.000154145
-0.000156409
-0.000158645
-0.00016085
-0.000163026
-0.00016517
-0.000167281
-0.000169357
-0.000171393
-0.000173391
-0.000175349
-0.000177266
-0.00017914
-0.000180968
-0.000182749
-0.000184481
-0.000186163
-0.000187794
-0.000189374
-0.0001909
-0.000192372
-0.000193786
-0.00019514
-0.000196433
-0.000197665
-0.000198835
-0.000199942
-0.000200983
-0.000201959
-0.000202869
-0.000203711
-0.000204487
-0.000205194
-0.000205833
-0.000206404
-0.000206906
-0.000207338
-0.000207704
-0.000208005
-0.000208241
-0.000208413
-0.000208522
-0.000208568
-0.000208552
-0.000208481
-0.000208356
-0.000208181
-0.000207958
-0.000207691
-0.00020738
-0.000207027
-0.000206635
-0.00020621
-0.000205706
-0.000205083
1.0766e-05
1.15287e-05
1.22e-05
1.28252e-05
1.3447e-05
1.4056e-05
1.46391e-05
1.51885e-05
1.56962e-05
1.61553e-05
1.65607e-05
1.6906e-05
1.71876e-05
1.74028e-05
1.75482e-05
1.7621e-05
1.76205e-05
1.75455e-05
1.73952e-05
1.71705e-05
1.6871e-05
1.64968e-05
1.60482e-05
1.55251e-05
1.49278e-05
1.42583e-05
1.35174e-05
1.27055e-05
1.18249e-05
1.08771e-05
9.86264e-06
8.78355e-06
7.64132e-06
6.43781e-06
5.17536e-06
3.85573e-06
2.48026e-06
1.05111e-06
-4.29594e-07
-1.96148e-06
-3.54417e-06
-5.17564e-06
-6.85405e-06
-8.57842e-06
-1.03478e-05
-1.21598e-05
-1.40122e-05
-1.59038e-05
-1.78333e-05
-1.97994e-05
-2.18014e-05
-2.38369e-05
-2.59041e-05
-2.80027e-05
-3.01323e-05
-3.22909e-05
-3.44765e-05
-3.66881e-05
-3.89256e-05
-4.11886e-05
-4.34748e-05
-4.57818e-05
-4.8109e-05
-5.04562e-05
-5.28227e-05
-5.5207e-05
-5.76082e-05
-6.0025e-05
-6.24569e-05
-6.4904e-05
-6.7365e-05
-6.98379e-05
-7.23207e-05
-7.48131e-05
-7.73151e-05
-7.98261e-05
-8.2344e-05
-8.48678e-05
-8.73973e-05
-8.9932e-05
-9.24709e-05
-9.5013e-05
-9.75564e-05
-0.0001001
-0.000102644
-0.000105187
-0.00010773
-0.000110271
-0.000112807
-0.000115338
-0.000117861
-0.000120377
-0.000122885
-0.000125382
-0.000127869
-0.000130344
-0.000132808
-0.000135259
-0.000137694
-0.000140112
-0.000142511
-0.000144889
-0.000147246
-0.000149581
-0.000151892
-0.000154178
-0.000156437
-0.000158667
-0.000160867
-0.000163037
-0.000165176
-0.00016728
-0.000169348
-0.000171377
-0.000173368
-0.000175319
-0.000177229
-0.000179095
-0.000180916
-0.000182689
-0.000184413
-0.000186088
-0.000187712
-0.000189285
-0.000190805
-0.00019227
-0.000193678
-0.000195026
-0.000196314
-0.000197542
-0.000198708
-0.00019981
-0.000200848
-0.000201822
-0.000202729
-0.000203571
-0.000204347
-0.000205055
-0.000205695
-0.000206268
-0.000206772
-0.000207207
-0.000207577
-0.000207882
-0.000208123
-0.0002083
-0.000208412
-0.000208461
-0.000208448
-0.000208377
-0.000208251
-0.000208072
-0.000207842
-0.000207563
-0.000207235
-0.000206857
-0.000206436
-0.000205973
-0.000205418
-0.000204726
1.11894e-05
1.19964e-05
1.26903e-05
1.33181e-05
1.39334e-05
1.45258e-05
1.50867e-05
1.56106e-05
1.60906e-05
1.65213e-05
1.68969e-05
1.72144e-05
1.74697e-05
1.76587e-05
1.77794e-05
1.783e-05
1.78086e-05
1.77145e-05
1.75475e-05
1.73071e-05
1.69934e-05
1.66066e-05
1.6146e-05
1.56119e-05
1.50059e-05
1.43283e-05
1.358e-05
1.27627e-05
1.18778e-05
1.09261e-05
9.90888e-06
8.82763e-06
7.68378e-06
6.47985e-06
5.21754e-06
3.89752e-06
2.52234e-06
1.09461e-06
-3.8535e-07
-1.91753e-06
-3.50003e-06
-5.13065e-06
-6.8086e-06
-8.53281e-06
-1.03017e-05
-1.2113e-05
-1.39647e-05
-1.58555e-05
-1.77846e-05
-1.97511e-05
-2.17531e-05
-2.37885e-05
-2.58562e-05
-2.79561e-05
-3.00872e-05
-3.22469e-05
-3.44338e-05
-3.66478e-05
-3.88881e-05
-4.11531e-05
-4.34411e-05
-4.57505e-05
-4.80805e-05
-5.0431e-05
-5.28008e-05
-5.51884e-05
-5.75929e-05
-6.00136e-05
-6.245e-05
-6.49019e-05
-6.73671e-05
-6.98434e-05
-7.233e-05
-7.4827e-05
-7.7334e-05
-7.98493e-05
-8.23713e-05
-8.48992e-05
-8.74333e-05
-8.99727e-05
-9.25159e-05
-9.50617e-05
-9.76085e-05
-0.000100155
-0.000102703
-0.000105249
-0.000107796
-0.000110339
-0.000112877
-0.00011541
-0.000117935
-0.000120453
-0.000122962
-0.00012546
-0.000127947
-0.000130423
-0.000132887
-0.000135337
-0.000137772
-0.000140188
-0.000142585
-0.000144961
-0.000147315
-0.000149648
-0.000151956
-0.000154239
-0.000156493
-0.000158719
-0.000160916
-0.000163082
-0.000165216
-0.000167315
-0.000169377
-0.000171401
-0.000173386
-0.000175332
-0.000177235
-0.000179096
-0.000180911
-0.000182678
-0.000184396
-0.000186064
-0.000187683
-0.000189252
-0.000190767
-0.000192226
-0.000193628
-0.000194972
-0.000196256
-0.00019748
-0.000198643
-0.000199742
-0.000200778
-0.00020175
-0.000202656
-0.000203498
-0.000204274
-0.000204983
-0.000205625
-0.000206199
-0.000206705
-0.000207144
-0.000207517
-0.000207826
-0.00020807
-0.000208249
-0.000208364
-0.000208414
-0.000208402
-0.00020833
-0.000208201
-0.000208015
-0.000207776
-0.000207484
-0.000207137
-0.000206735
-0.000206284
-0.000205786
-0.000205184
-0.00020443
1.16277e-05
1.24772e-05
1.31929e-05
1.38289e-05
1.44424e-05
1.50256e-05
1.55709e-05
1.60752e-05
1.65336e-05
1.69402e-05
1.72916e-05
1.75852e-05
1.78165e-05
1.79821e-05
1.80807e-05
1.81103e-05
1.80689e-05
1.7957e-05
1.77735e-05
1.75175e-05
1.71897e-05
1.67893e-05
1.63159e-05
1.57711e-05
1.51553e-05
1.44683e-05
1.37124e-05
1.28888e-05
1.1998e-05
1.10415e-05
1.00201e-05
8.93518e-06
7.78894e-06
6.58325e-06
5.31901e-06
3.99766e-06
2.62213e-06
1.19366e-06
-2.87969e-07
-1.82151e-06
-3.40473e-06
-5.03633e-06
-6.71572e-06
-8.4412e-06
-1.02107e-05
-1.20226e-05
-1.38749e-05
-1.57666e-05
-1.76974e-05
-1.96652e-05
-2.1668e-05
-2.37049e-05
-2.57751e-05
-2.78778e-05
-3.0011e-05
-3.21729e-05
-3.43627e-05
-3.65805e-05
-3.88246e-05
-4.10927e-05
-4.33836e-05
-4.56965e-05
-4.80306e-05
-5.03853e-05
-5.27595e-05
-5.51514e-05
-5.75603e-05
-5.99861e-05
-6.24285e-05
-6.48859e-05
-6.73558e-05
-6.98368e-05
-7.23286e-05
-7.48314e-05
-7.73439e-05
-7.98641e-05
-8.23913e-05
-8.49249e-05
-8.74647e-05
-9.00099e-05
-9.25584e-05
-9.5109e-05
-9.76601e-05
-0.000100211
-0.000102763
-0.000105315
-0.000107865
-0.000110412
-0.000112954
-0.000115489
-0.000118018
-0.000120539
-0.00012305
-0.000125549
-0.000128039
-0.000130516
-0.000132982
-0.000135433
-0.000137867
-0.000140283
-0.00014268
-0.000145054
-0.000147408
-0.00014974
-0.000152046
-0.000154326
-0.000156579
-0.000158802
-0.000160997
-0.000163161
-0.000165292
-0.000167387
-0.000169445
-0.000171464
-0.000173446
-0.000175387
-0.000177286
-0.000179142
-0.000180952
-0.000182714
-0.000184429
-0.000186094
-0.000187709
-0.000189273
-0.000190784
-0.000192239
-0.000193637
-0.000194977
-0.000196259
-0.000197481
-0.000198641
-0.000199738
-0.000200773
-0.000201743
-0.00020265
-0.000203491
-0.000204268
-0.000204979
-0.000205623
-0.000206198
-0.000206706
-0.000207147
-0.000207523
-0.000207834
-0.000208081
-0.000208262
-0.000208378
-0.000208429
-0.000208416
-0.000208342
-0.000208208
-0.000208015
-0.000207765
-0.000207458
-0.000207092
-0.000206667
-0.000206188
-0.000205656
-0.000205011
-0.000204201
1.20974e-05
1.29828e-05
1.37216e-05
1.43666e-05
1.4982e-05
1.55609e-05
1.60963e-05
1.65859e-05
1.70261e-05
1.74138e-05
1.77451e-05
1.80169e-05
1.82265e-05
1.83712e-05
1.84498e-05
1.84594e-05
1.84002e-05
1.82712e-05
1.80712e-05
1.78004e-05
1.74578e-05
1.70431e-05
1.65575e-05
1.60011e-05
1.5374e-05
1.46777e-05
1.39136e-05
1.30822e-05
1.21847e-05
1.12221e-05
1.01951e-05
9.10588e-06
7.95627e-06
6.74679e-06
5.4793e-06
4.15626e-06
2.77888e-06
1.34732e-06
-1.37363e-07
-1.67313e-06
-3.25871e-06
-4.89316e-06
-6.57526e-06
-8.30318e-06
-1.00747e-05
-1.18885e-05
-1.3743e-05
-1.56375e-05
-1.7571e-05
-1.95412e-05
-2.15461e-05
-2.35861e-05
-2.56604e-05
-2.77667e-05
-2.99031e-05
-3.20686e-05
-3.4263e-05
-3.64855e-05
-3.87341e-05
-4.10064e-05
-4.33016e-05
-4.56194e-05
-4.79588e-05
-5.03188e-05
-5.26982e-05
-5.50954e-05
-5.75102e-05
-5.99427e-05
-6.23917e-05
-6.4855e-05
-6.73305e-05
-6.98176e-05
-7.23162e-05
-7.48256e-05
-7.73441e-05
-7.98703e-05
-8.2404e-05
-8.49446e-05
-8.74912e-05
-9.00429e-05
-9.25978e-05
-9.51541e-05
-9.77108e-05
-0.000100268
-0.000102825
-0.000105383
-0.000107938
-0.000110489
-0.000113035
-0.000115576
-0.000118109
-0.000120633
-0.000123148
-0.000125651
-0.000128144
-0.000130625
-0.000133093
-0.000135546
-0.000137981
-0.000140398
-0.000142795
-0.000145171
-0.000147525
-0.000149856
-0.000152162
-0.000154442
-0.000156693
-0.000158916
-0.000161111
-0.000163274
-0.000165403
-0.000167496
-0.000169551
-0.000171568
-0.000173546
-0.000175485
-0.000177381
-0.000179234
-0.000181041
-0.0001828
-0.000184512
-0.000186175
-0.000187788
-0.000189349
-0.000190857
-0.000192308
-0.000193704
-0.000195042
-0.000196322
-0.000197543
-0.000198702
-0.000199799
-0.000200832
-0.000201802
-0.000202709
-0.000203552
-0.00020433
-0.000205043
-0.000205688
-0.000206265
-0.000206775
-0.000207218
-0.000207596
-0.000207909
-0.000208157
-0.000208339
-0.000208455
-0.000208506
-0.000208492
-0.000208414
-0.000208275
-0.000208074
-0.000207813
-0.00020749
-0.000207106
-0.000206659
-0.000206153
-0.000205591
-0.000204907
-0.000204045
1.26072e-05
1.35259e-05
1.42857e-05
1.49413e-05
1.55602e-05
1.61377e-05
1.66666e-05
1.71447e-05
1.75711e-05
1.79432e-05
1.82568e-05
1.85095e-05
1.87001e-05
1.88261e-05
1.88851e-05
1.88774e-05
1.8801e-05
1.86549e-05
1.84395e-05
1.81533e-05
1.77955e-05
1.73673e-05
1.68688e-05
1.62995e-05
1.56614e-05
1.49553e-05
1.41818e-05
1.33421e-05
1.24367e-05
1.14666e-05
1.04335e-05
9.33922e-06
8.18432e-06
6.96986e-06
5.69883e-06
4.37263e-06
2.99113e-06
1.55519e-06
6.67433e-08
-1.47267e-06
-3.06248e-06
-4.70125e-06
-6.38734e-06
-8.11889e-06
-9.89371e-06
-1.17106e-05
-1.35691e-05
-1.54679e-05
-1.74049e-05
-1.93783e-05
-2.13875e-05
-2.34324e-05
-2.55114e-05
-2.76221e-05
-2.97631e-05
-3.19343e-05
-3.41346e-05
-3.63626e-05
-3.86163e-05
-4.0894e-05
-4.3195e-05
-4.55188e-05
-4.78646e-05
-5.02308e-05
-5.26163e-05
-5.50202e-05
-5.74426e-05
-5.9883e-05
-6.23392e-05
-6.4809e-05
-6.72912e-05
-6.97858e-05
-7.22921e-05
-7.48088e-05
-7.73343e-05
-7.98678e-05
-8.24093e-05
-8.4958e-05
-8.75127e-05
-9.00719e-05
-9.26338e-05