/*--------------------------------*- C++ -*----------------------------------*\
  =========                 |
  \\      /  F ield         | OpenFOAM: The Open Source CFD Toolbox
   \\    /   O peration     | Website:  https://openfoam.org
    \\  /    A nd           | Version:  7
     \\/     M anipulation  |
\*---------------------------------------------------------------------------*/
FoamFile
{
    version     2.0;
    format      ascii;
    class       surfaceScalarField;
    location    "0.5";
    object      phi;
}
// * * * * * * * * * * * * * * * * * * * * * * * * * * * * * * * * * * * * * //

dimensions      [0 3 -1 0 0 0 0];

internalField   nonuniform List<scalar> 
101920
(
-1.42731e-13
1.43401e-13
-6.31001e-13
4.91167e-13
-8.24133e-13
1.91732e-13
-8.12967e-13
-8.22137e-15
-5.49681e-13
-2.62698e-13
-6.06783e-14
-4.91419e-13
6.28772e-13
-6.8759e-13
1.48546e-12
-8.5998e-13
2.49428e-12
-1.00673e-12
3.62983e-12
-1.1356e-12
4.87804e-12
-1.24787e-12
6.2226e-12
-1.34389e-12
7.64723e-12
-1.42644e-12
9.1408e-12
-1.49424e-12
1.06903e-11
-1.54975e-12
1.22851e-11
-1.59388e-12
1.39142e-11
-1.62842e-12
1.55696e-11
-1.65341e-12
1.72416e-11
-1.67009e-12
1.89207e-11
-1.67983e-12
2.06027e-11
-1.68096e-12
2.22788e-11
-1.67659e-12
2.39451e-11
-1.66498e-12
2.55953e-11
-1.64867e-12
2.72236e-11
-1.629e-12
2.88278e-11
-1.60394e-12
3.04032e-11
-1.5754e-12
3.19463e-11
-1.54418e-12
3.34548e-11
-1.50898e-12
3.49255e-11
-1.47152e-12
3.63566e-11
-1.43255e-12
3.77468e-11
-1.39103e-12
3.90938e-11
-1.34826e-12
4.0397e-11
-1.30474e-12
4.16564e-11
-1.25967e-12
4.287e-11
-1.21414e-12
4.4038e-11
-1.16855e-12
4.51615e-11
-1.12257e-12
4.62391e-11
-1.07715e-12
4.72711e-11
-1.03227e-12
4.82591e-11
-9.87265e-13
4.9203e-11
-9.43077e-13
5.01035e-11
-9.00102e-13
5.09621e-11
-8.57536e-13
5.17792e-11
-8.1589e-13
5.25557e-11
-7.76253e-13
5.32932e-11
-7.37706e-13
5.39924e-11
-6.99911e-13
5.46543e-11
-6.63317e-13
5.52809e-11
-6.27839e-13
5.5874e-11
-5.93525e-13
5.64344e-11
-5.60594e-13
5.69633e-11
-5.29361e-13
5.74625e-11
-4.99643e-13
5.79339e-11
-4.70929e-13
5.83788e-11
-4.4364e-13
5.8798e-11
-4.18286e-13
5.91935e-11
-3.94595e-13
5.95666e-11
-3.7256e-13
5.99178e-11
-3.52217e-13
6.02488e-11
-3.3268e-13
6.05614e-11
-3.13525e-13
6.08563e-11
-2.95673e-13
6.11343e-11
-2.79379e-13
6.13971e-11
-2.63536e-13
6.16456e-11
-2.47911e-13
6.18804e-11
-2.33691e-13
6.21029e-11
-2.21414e-13
6.23143e-11
-2.10387e-13
6.25143e-11
-2.00078e-13
6.27029e-11
-1.90244e-13
6.28811e-11
-1.80166e-13
6.30502e-11
-1.69566e-13
6.32106e-11
-1.59441e-13
6.33619e-11
-1.50484e-13
6.35043e-11
-1.4216e-13
6.3638e-11
-1.33845e-13
6.37625e-11
-1.25394e-13
6.38778e-11
-1.16632e-13
6.39846e-11
-1.07297e-13
6.40824e-11
-9.73761e-14
6.41698e-11
-8.70343e-14
6.42469e-11
-7.65835e-14
6.43137e-11
-6.59647e-14
6.43696e-11
-5.47963e-14
6.44136e-11
-4.32605e-14
6.44443e-11
-3.12323e-14
6.44609e-11
-1.78114e-14
6.44632e-11
-2.66592e-15
6.44498e-11
1.36876e-14
6.44198e-11
3.06889e-14
6.43719e-11
4.85293e-14
6.43051e-11
6.76888e-14
6.4218e-11
8.78153e-14
6.41089e-11
1.08763e-13
6.39768e-11
1.31183e-13
6.38208e-11
1.55508e-13
6.36388e-11
1.81856e-13
6.34296e-11
2.09613e-13
6.31917e-11
2.38163e-13
6.29233e-11
2.68094e-13
6.26236e-11
2.99741e-13
6.22904e-11
3.32953e-13
6.19221e-11
3.67918e-13
6.15181e-11
4.04385e-13
6.10765e-11
4.41972e-13
6.05958e-11
4.80744e-13
6.00745e-11
5.20667e-13
5.95108e-11
5.62115e-13
5.89039e-11
6.05614e-13
5.82534e-11
6.50559e-13
5.7557e-11
6.96329e-13
5.68143e-11
7.42914e-13
5.60245e-11
7.90116e-13
5.51857e-11
8.38276e-13
5.42977e-11
8.87684e-13
5.33598e-11
9.3773e-13
5.23709e-11
9.88343e-13
5.13317e-11
1.03957e-12
5.02421e-11
1.09055e-12
4.91008e-11
1.14107e-12
4.79084e-11
1.19161e-12
4.66659e-11
1.242e-12
4.53733e-11
1.29198e-12
4.40318e-11
1.34152e-12
4.26426e-11
1.38983e-12
4.12063e-11
1.43644e-12
3.97244e-11
1.4818e-12
3.81996e-11
1.52545e-12
3.66331e-11
1.56654e-12
3.50273e-11
1.60518e-12
3.33864e-11
1.64102e-12
3.17133e-11
1.67331e-12
3.00111e-11
1.70207e-12
2.82845e-11
1.72709e-12
2.65377e-11
1.74737e-12
2.47748e-11
1.76257e-12
2.30025e-11
1.77252e-12
2.12273e-11
1.77601e-12
1.94544e-11
1.7725e-12
1.76913e-11
1.76239e-12
1.5947e-11
1.74474e-12
1.42296e-11
1.71795e-12
1.2548e-11
1.68165e-12
1.09131e-11
1.63557e-12
9.33538e-12
1.57855e-12
7.82574e-12
1.50969e-12
6.39711e-12
1.42862e-12
5.0637e-12
1.33418e-12
3.83919e-12
1.22487e-12
2.73814e-12
1.10042e-12
1.77719e-12
9.60897e-13
9.72345e-13
8.05599e-13
3.3782e-13
6.34696e-13
-1.13328e-13
4.5067e-13
-3.7239e-13
2.5874e-13
-4.41895e-13
6.98283e-14
-3.464e-13
-9.27015e-14
-1.5009e-13
-1.88683e-13
-1.42317e-13
1.43357e-13
2.78714e-15
3.87736e-14
5.95513e-13
2.00053e-14
2.09296e-13
4.57402e-13
-4.46383e-13
1.38586e-12
-1.1925e-12
2.81791e-12
-1.92276e-12
4.729e-12
-2.59989e-12
7.08263e-12
-3.21138e-12
9.83245e-12
-3.75806e-12
1.29363e-11
-4.24063e-12
1.63529e-11
-4.66348e-12
2.00409e-11
-5.03108e-12
2.39624e-11
-5.34589e-12
2.80803e-11
-5.61239e-12
3.23629e-11
-5.83274e-12
3.67771e-11
-6.0114e-12
4.12962e-11
-6.14973e-12
4.58941e-11
-6.25163e-12
5.05436e-11
-6.32159e-12
5.52249e-11
-6.36057e-12
5.99151e-11
-6.37345e-12
6.45977e-11
-6.35965e-12
6.9255e-11
-6.32254e-12
7.38707e-11
-6.26638e-12
7.84331e-11
-6.19069e-12
8.29289e-11
-6.0985e-12
8.73463e-11
-5.99287e-12
9.16774e-11
-5.87329e-12
9.59127e-11
-5.74235e-12
1.00045e-10
-5.60255e-12
1.04069e-10
-5.45387e-12
1.07978e-10
-5.29845e-12
1.11769e-10
-5.13807e-12
1.15439e-10
-4.97279e-12
1.18985e-10
-4.80441e-12
1.22403e-10
-4.63396e-12
1.25696e-10
-4.46103e-12
1.28861e-10
-4.28779e-12
1.31898e-10
-4.11554e-12
1.34809e-10
-3.94356e-12
1.37595e-10
-3.77328e-12
1.40255e-10
-3.60612e-12
1.42794e-10
-3.44094e-12
1.45214e-10
-3.27819e-12
1.47516e-10
-3.11938e-12
1.49705e-10
-2.9646e-12
1.51784e-10
-2.81419e-12
1.53754e-10
-2.669e-12
1.55621e-10
-2.529e-12
1.57388e-10
-2.39405e-12
1.59059e-10
-2.26405e-12
1.60638e-10
-2.13941e-12
1.62129e-10
-2.0207e-12
1.63536e-10
-1.90768e-12
1.64864e-10
-1.80006e-12
1.66115e-10
-1.69779e-12
1.67294e-10
-1.60016e-12
1.68407e-10
-1.50728e-12
1.69456e-10
-1.42051e-12
1.70444e-10
-1.33963e-12
1.71377e-10
-1.26316e-12
1.72257e-10
-1.19128e-12
1.73086e-10
-1.12481e-12
1.7387e-10
-1.06297e-12
1.74611e-10
-1.0048e-12
1.75311e-10
-9.50327e-13
1.75972e-10
-8.99182e-13
1.766e-10
-8.50597e-13
1.77195e-10
-8.0488e-13
1.77759e-10
-7.62674e-13
1.78293e-10
-7.23526e-13
1.788e-10
-6.86357e-13
1.7928e-10
-6.50509e-13
1.79734e-10
-6.15753e-13
1.80164e-10
-5.81607e-13
1.8057e-10
-5.47649e-13
1.80952e-10
-5.14323e-13
1.8131e-10
-4.81905e-13
1.81643e-10
-4.49335e-13
1.81951e-10
-4.15387e-13
1.82234e-10
-3.80053e-13
1.82489e-10
-3.43543e-13
1.82716e-10
-3.05207e-13
1.82914e-10
-2.64339e-13
1.8308e-10
-2.20732e-13
1.83213e-10
-1.74668e-13
1.8331e-10
-1.26174e-13
1.83369e-10
-7.4445e-14
1.83387e-10
-1.90069e-14
1.8336e-10
4.0153e-14
1.83286e-10
1.03621e-13
1.83162e-10
1.72008e-13
1.82984e-10
2.45396e-13
1.82749e-10
3.23367e-13
1.82453e-10
4.0571e-13
1.82091e-10
4.93219e-13
1.81661e-10
5.864e-13
1.81157e-10
6.85236e-13
1.80576e-10
7.90037e-13
1.79913e-10
9.00615e-13
1.79165e-10
1.01671e-12
1.78327e-10
1.13843e-12
1.77395e-10
1.26553e-12
1.76363e-10
1.39836e-12
1.75229e-10
1.53758e-12
1.73988e-10
1.68264e-12
1.72635e-10
1.83287e-12
1.71168e-10
1.9882e-12
1.69581e-10
2.14845e-12
1.67872e-10
2.31389e-12
1.66037e-10
2.48456e-12
1.64073e-10
2.65959e-12
1.61975e-10
2.83877e-12
1.59744e-10
3.02212e-12
1.57375e-10
3.20859e-12
1.54865e-10
3.3976e-12
1.52215e-10
3.58882e-12
1.4942e-10
3.78178e-12
1.46482e-10
3.97653e-12
1.434e-10
4.1725e-12
1.40173e-10
4.36796e-12
1.36802e-10
4.56222e-12
1.33289e-10
4.7554e-12
1.29635e-10
4.94648e-12
1.25842e-10
5.13429e-12
1.21913e-10
5.31825e-12
1.17854e-10
5.49694e-12
1.13666e-10
5.66915e-12
1.09358e-10
5.83429e-12
1.04935e-10
5.99065e-12
1.00403e-10
6.13643e-12
9.57719e-11
6.27117e-12
9.10515e-11
6.39379e-12
8.62517e-11
6.50216e-12
8.13845e-11
6.59464e-12
7.6463e-11
6.66968e-12
7.15009e-11
6.72509e-12
6.6514e-11
6.75903e-12
6.15206e-11
6.76988e-12
5.65389e-11
6.75506e-12
5.15883e-11
6.71218e-12
4.66922e-11
6.63983e-12
4.18748e-11
6.53573e-12
3.71614e-11
6.39631e-12
3.25794e-11
6.21861e-12
2.81586e-11
6.00056e-12
2.39301e-11
5.7393e-12
1.99272e-11
5.43177e-12
1.61852e-11
5.07593e-12
1.27404e-11
4.66969e-12
9.62951e-12
4.21084e-12
6.88989e-12
3.69931e-12
4.55786e-12
3.13752e-12
2.66488e-12
2.5297e-12
1.23367e-12
1.88458e-12
2.72015e-13
1.22113e-12
-2.37991e-13
5.75554e-13
-3.56244e-13
1.33773e-14
-2.06537e-13
-3.55339e-13
-3.4369e-13
6.01065e-14
-5.8714e-14
4.48199e-13
2.06078e-13
1.10365e-12
-4.459e-13
2.29013e-12
-1.63312e-12
4.11784e-12
-3.01771e-12
6.6196e-12
-4.42446e-12
9.78964e-12
-5.76815e-12
1.35924e-11
-7.01427e-12
1.79824e-11
-8.14602e-12
2.29013e-11
-9.16072e-12
2.82948e-11
-1.0058e-11
3.41058e-11
-1.08417e-11
4.02777e-11
-1.15181e-11
4.67593e-11
-1.20914e-11
5.34977e-11
-1.25708e-11
6.0448e-11
-1.29598e-11
6.75649e-11
-1.32649e-11
7.48061e-11
-1.34935e-11
8.21357e-11
-1.36499e-11
8.95159e-11
-1.37415e-11
9.6917e-11
-1.37729e-11
1.04309e-10
-1.37492e-11
1.11662e-10
-1.36772e-11
1.18956e-10
-1.35596e-11
1.26167e-10
-1.34013e-11
1.33274e-10
-1.32076e-11
1.40262e-10
-1.29814e-11
1.47115e-10
-1.27266e-11
1.53817e-10
-1.24474e-11
1.6036e-10
-1.21462e-11
1.66732e-10
-1.18269e-11
1.72924e-10
-1.14926e-11
1.78931e-10
-1.1145e-11
1.84746e-10
-1.07877e-11
1.90364e-10
-1.04234e-11
1.95784e-10
-1.00532e-11
2.01003e-10
-9.67938e-12
2.0602e-10
-9.30478e-12
2.10835e-10
-8.93002e-12
2.15449e-10
-8.55678e-12
2.19864e-10
-8.18776e-12
2.24083e-10
-7.82344e-12
2.28108e-10
-7.46471e-12
2.31942e-10
-7.11306e-12
2.35591e-10
-6.76936e-12
2.3906e-10
-6.43391e-12
2.42352e-10
-6.10766e-12
2.45474e-10
-5.79184e-12
2.48431e-10
-5.48673e-12
2.5123e-10
-5.19268e-12
2.53876e-10
-4.91028e-12
2.56375e-10
-4.63944e-12
2.58736e-10
-4.38014e-12
2.60964e-10
-4.13336e-12
2.63064e-10
-3.89953e-12
2.65044e-10
-3.67773e-12
2.66911e-10
-3.46713e-12
2.68671e-10
-3.2681e-12
2.70329e-10
-3.08077e-12
2.71893e-10
-2.90435e-12
2.73368e-10
-2.73845e-12
2.74758e-10
-2.58336e-12
2.76071e-10
-2.43837e-12
2.77312e-10
-2.30247e-12
2.78485e-10
-2.1759e-12
2.79594e-10
-2.05868e-12
2.80645e-10
-1.9494e-12
2.8164e-10
-1.84675e-12
2.82584e-10
-1.75043e-12
2.83479e-10
-1.65978e-12
2.84329e-10
-1.5739e-12
2.85137e-10
-1.49276e-12
2.85904e-10
-1.41618e-12
2.8663e-10
-1.34282e-12
2.87319e-10
-1.27109e-12
2.8797e-10
-1.20008e-12
2.88584e-10
-1.12962e-12
2.89161e-10
-1.05945e-12
2.89701e-10
-9.88507e-13
2.90202e-10
-9.15602e-13
2.90663e-10
-8.40278e-13
2.91083e-10
-7.62168e-13
2.91459e-10
-6.80221e-13
2.91789e-10
-5.93568e-13
2.92069e-10
-5.01614e-13
2.92296e-10
-4.03291e-13
2.92467e-10
-2.97791e-13
2.92579e-10
-1.84878e-13
2.92626e-10
-6.43793e-14
2.92603e-10
6.41118e-14
2.92505e-10
2.01755e-13
2.92329e-10
3.49503e-13
2.92067e-10
5.07477e-13
2.91713e-10
6.76096e-13
2.91263e-10
8.55877e-13
2.90709e-10
1.04724e-12
2.90046e-10
1.25051e-12
2.89266e-10
1.46554e-12
2.88363e-10
1.69282e-12
2.8733e-10
1.93304e-12
2.8616e-10
2.18594e-12
2.84848e-10
2.45134e-12
2.83384e-10
2.72923e-12
2.81764e-10
3.01935e-12
2.79979e-10
3.32208e-12
2.78023e-10
3.63751e-12
2.7589e-10
3.96487e-12
2.73573e-10
4.30408e-12
2.71066e-10
4.65498e-12
2.68364e-10
5.0165e-12
2.65461e-10
5.38822e-12
2.62351e-10
5.76958e-12
2.59029e-10
6.15974e-12
2.55492e-10
6.55857e-12
2.51735e-10
6.96511e-12
2.47755e-10
7.37747e-12
2.43549e-10
7.79467e-12
2.39116e-10
8.21579e-12
2.34452e-10
8.63949e-12
2.29559e-10
9.06487e-12
2.24435e-10
9.49057e-12
2.19083e-10
9.91435e-12
2.13504e-10
1.03347e-11
2.07701e-10
1.07502e-11
2.01677e-10
1.11583e-11
1.95438e-10
1.15568e-11
1.88991e-10
1.19442e-11
1.82342e-10
1.23176e-11
1.75502e-10
1.26745e-11
1.68479e-10
1.30125e-11
1.61287e-10
1.33286e-11
1.53939e-10
1.36196e-11
1.4645e-10
1.38829e-11
1.38837e-10
1.41156e-11
1.31119e-10
1.43133e-11
1.23316e-10
1.44721e-11
1.15452e-10
1.45888e-11
1.07552e-10
1.46591e-11
9.96432e-11
1.46786e-11
9.1755e-11
1.4643e-11
8.39198e-11
1.45478e-11
7.61729e-11
1.43875e-11
6.85509e-11
1.41576e-11
6.10937e-11
1.38532e-11
5.38448e-11
1.34681e-11
4.68487e-11
1.29967e-11
4.01529e-11
1.24345e-11
3.38082e-11
1.17767e-11
2.78663e-11
1.10184e-11
2.23795e-11
1.01562e-11
1.74012e-11
9.18901e-12
1.29836e-11
8.1175e-12
9.17379e-12
6.94699e-12
6.01154e-12
5.69051e-12
3.52522e-12
4.37162e-12
1.72233e-12
3.02948e-12
5.77235e-13
1.72923e-12
1.69032e-14
5.7915e-13
-1.03013e-13
-2.4417e-13
-4.45335e-13
2.03527e-13
-2.59224e-13
9.38076e-13
-5.29348e-13
2.24599e-12
-1.75387e-12
4.25808e-12
-3.64896e-12
7.06389e-12
-5.82423e-12
1.06936e-11
-8.05292e-12
1.51376e-11
-1.02127e-11
2.03639e-11
-1.22394e-11
2.63204e-11
-1.41021e-11
3.29455e-11
-1.57853e-11
4.01741e-11
-1.72854e-11
4.79363e-11
-1.86053e-11
5.6166e-11
-1.97476e-11
6.47947e-11
-2.0723e-11
7.37616e-11
-2.15383e-11
8.30062e-11
-2.22031e-11
9.24699e-11
-2.27289e-11
1.021e-10
-2.31235e-11
1.11847e-10
-2.33972e-11
1.21664e-10
-2.35598e-11
1.3151e-10
-2.36184e-11
1.41345e-10
-2.35845e-11
1.51134e-10
-2.34655e-11
1.60844e-10
-2.32686e-11
1.70445e-10
-2.30027e-11
1.79912e-10
-2.26741e-11
1.89222e-10
-2.22896e-11
1.98352e-10
-2.18567e-11
2.07286e-10
-2.13803e-11
2.16008e-10
-2.08664e-11
2.24502e-10
-2.03213e-11
2.32759e-10
-1.97488e-11
2.40768e-10
-1.91542e-11
2.48521e-10
-1.85426e-11
2.56014e-10
-1.79168e-11
2.63243e-10
-1.7281e-11
2.70202e-10
-1.664e-11
2.76893e-10
-1.59958e-11
2.83314e-10
-1.53514e-11
2.89466e-10
-1.47105e-11
2.95353e-10
-1.4075e-11
3.00976e-10
-1.34472e-11
3.06341e-10
-1.28292e-11
3.11452e-10
-1.22233e-11
3.16315e-10
-1.16311e-11
3.20936e-10
-1.10538e-11
3.2532e-10
-1.04929e-11
3.29477e-10
-9.94927e-12
3.33415e-10
-9.4238e-12
3.3714e-10
-8.91783e-12
3.40661e-10
-8.43205e-12
3.43987e-10
-7.96619e-12
3.47126e-10
-7.52036e-12
3.50087e-10
-7.09563e-12
3.5288e-10
-6.69205e-12
3.55512e-10
-6.30896e-12
3.57993e-10
-5.94677e-12
3.60331e-10
-5.60546e-12
3.62534e-10
-5.28373e-12
3.64612e-10
-4.98095e-12
3.66571e-10
-4.6974e-12
3.68419e-10
-4.43242e-12
3.70165e-10
-4.18447e-12
3.71814e-10
-3.95263e-12
3.73373e-10
-3.73645e-12
3.74849e-10
-3.53502e-12
3.76249e-10
-3.34729e-12
3.77576e-10
-3.17261e-12
3.78835e-10
-3.00985e-12
3.80031e-10
-2.85688e-12
3.81168e-10
-2.71198e-12
3.82249e-10
-2.57471e-12
3.83277e-10
-2.44449e-12
3.84255e-10
-2.31958e-12
3.85183e-10
-2.19831e-12
3.86063e-10
-2.07954e-12
3.86894e-10
-1.96191e-12
3.87678e-10
-1.84387e-12
3.88414e-10
-1.72416e-12
3.891e-10
-1.6016e-12
3.89733e-10
-1.47478e-12
3.90313e-10
-1.34217e-12
3.90837e-10
-1.20255e-12
3.913e-10
-1.05514e-12
3.91699e-10
-8.99053e-13
3.92028e-10
-7.3231e-13
3.92283e-10
-5.53148e-13
3.9246e-10
-3.61086e-13
3.9255e-10
-1.5538e-13
3.92549e-10
6.52714e-14
3.9245e-10
3.02022e-13
3.92245e-10
5.55738e-13
3.91927e-10
8.26803e-13
3.91487e-10
1.1162e-12
3.90917e-10
1.4253e-12
3.9021e-10
1.75462e-12
3.89357e-10
2.10449e-12
3.88347e-10
2.47524e-12
3.87173e-10
2.86708e-12
3.85826e-10
3.28073e-12
3.84295e-10
3.71643e-12
3.82571e-10
4.174e-12
3.80646e-10
4.65378e-12
3.78511e-10
5.15557e-12
3.76155e-10
5.67866e-12
3.73569e-10
6.22301e-12
3.70746e-10
6.78826e-12
3.67675e-10
7.37386e-12
3.6435e-10
7.97968e-12
3.60762e-10
8.60448e-12
3.56903e-10
9.24669e-12
3.52767e-10
9.90564e-12
3.48348e-10
1.05801e-11
3.43638e-10
1.12683e-11
3.38633e-10
1.19693e-11
3.33327e-10
1.26813e-11
3.2772e-10
1.34019e-11
3.21806e-10
1.41294e-11
3.15584e-10
1.48614e-11
3.09054e-10
1.55953e-11
3.02214e-10
1.63291e-11
2.95068e-10
1.70603e-11
2.87619e-10
1.77852e-11
2.79868e-10
1.85007e-11
2.71822e-10
1.92036e-11
2.6349e-10
1.98898e-11
2.54878e-10
2.05558e-11
2.45997e-10
2.11976e-11
2.36861e-10
2.18109e-11
2.27482e-10
2.23908e-11
2.17876e-10
2.29329e-11
2.08065e-10
2.34321e-11
1.98066e-10
2.38826e-11
1.87902e-10
2.42788e-11
1.776e-10
2.46154e-11
1.67187e-10
2.48853e-11
1.56694e-10
2.50816e-11
1.46154e-10
2.51982e-11
1.35605e-10
2.5228e-11
1.25084e-10
2.5163e-11
1.14636e-10
2.49959e-11
1.04305e-10
2.47187e-11
9.41414e-11
2.43225e-11
8.41949e-11
2.37988e-11
7.45223e-11
2.31397e-11
6.51824e-11
2.23367e-11
5.62351e-11
2.13815e-11
4.77438e-11
2.02673e-11
3.97737e-11
1.89883e-11
3.23899e-11
1.75404e-11
2.56569e-11
1.59222e-11
1.96372e-11
1.41377e-11
1.43869e-11
1.21983e-11
9.95042e-12
1.01256e-11
6.35827e-12
7.95899e-12
3.6197e-12
5.76305e-12
1.71309e-12
3.63617e-12
5.72634e-13
1.72553e-12
6.56699e-14
2.60546e-13
-3.79806e-13
3.27133e-13
-5.85791e-13
1.47554e-12
-1.67944e-12
3.45091e-12
-3.72671e-12
6.31523e-12
-6.51402e-12
1.01222e-11
-9.63085e-12
1.4887e-11
-1.28163e-11
2.05911e-11
-1.59181e-11
2.71961e-11
-1.88465e-11
3.4648e-11
-2.15537e-11
4.28777e-11
-2.40149e-11
5.18121e-11
-2.622e-11
6.1376e-11
-2.81663e-11
7.14898e-11
-2.9862e-11
8.20791e-11
-3.13129e-11
9.30705e-11
-3.25297e-11
1.04393e-10
-3.35262e-11
1.1598e-10
-3.4315e-11
1.27767e-10
-3.491e-11
1.39694e-10
-3.53255e-11
1.51709e-10
-3.55728e-11
1.63757e-10
-3.56673e-11
1.75793e-10
-3.56212e-11
1.87773e-10
-3.54456e-11
1.99658e-10
-3.51541e-11
2.11412e-10
-3.4757e-11
2.23003e-10
-3.42649e-11
2.34401e-10
-3.3689e-11
2.45582e-10
-3.30379e-11
2.56524e-10
-3.2321e-11
2.67204e-10
-3.15477e-11
2.77608e-10
-3.07252e-11
2.87722e-10
-2.98614e-11
2.97531e-10
-2.89645e-11
3.07028e-10
-2.80401e-11
3.16206e-10
-2.7094e-11
3.25058e-10
-2.61334e-11
3.33581e-10
-2.51632e-11
3.41774e-10
-2.4188e-11
3.49636e-10
-2.3213e-11
3.57167e-10
-2.22428e-11
3.64372e-10
-2.12804e-11
3.71254e-10
-2.03295e-11
3.77817e-10
-1.93937e-11
3.84069e-10
-1.84754e-11
3.90016e-10
-1.75773e-11
3.95664e-10
-1.67024e-11
4.01024e-10
-1.58524e-11
4.06103e-10
-1.50284e-11
4.10912e-10
-1.42324e-11
4.15459e-10
-1.34658e-11
4.19758e-10
-1.27292e-11
4.23816e-10
-1.20235e-11
4.27645e-10
-1.13497e-11
4.31256e-10
-1.07076e-11
4.3466e-10
-1.00967e-11
4.37868e-10
-9.5172e-12
4.40891e-10
-8.96973e-12
4.43739e-10
-8.45354e-12
4.46423e-10
-7.96726e-12
4.48953e-10
-7.51061e-12
4.51338e-10
-7.08312e-12
4.5359e-10
-6.6833e-12
4.55717e-10
-6.31009e-12
4.57727e-10
-5.96264e-12
4.59628e-10
-5.63899e-12
4.6143e-10
-5.33703e-12
4.63138e-10
-5.05577e-12
4.6476e-10
-4.79424e-12
4.66301e-10
-4.55049e-12
4.67767e-10
-4.32229e-12
4.69162e-10
-4.10767e-12
4.70491e-10
-3.90488e-12
4.71758e-10
-3.71184e-12
4.72964e-10
-3.52623e-12
4.74113e-10
-3.34638e-12
4.75204e-10
-3.1708e-12
4.76239e-10
-2.99702e-12
4.77219e-10
-2.82249e-12
4.78141e-10
-2.64553e-12
4.79004e-10
-2.4645e-12
4.79806e-10
-2.27701e-12
4.80544e-10
-2.08058e-12
4.81215e-10
-1.87346e-12
4.81814e-10
-1.654e-12
4.82335e-10
-1.42035e-12
4.82775e-10
-1.17048e-12
4.83126e-10
-9.02505e-13
4.8338e-10
-6.15147e-13
4.83531e-10
-3.06666e-13
4.83572e-10
2.52134e-14
4.83493e-10
3.81792e-13
4.83285e-10
7.64108e-13
4.82938e-10
1.17343e-12
4.82445e-10
1.611e-12
4.81793e-10
2.07825e-12
4.80972e-10
2.57611e-12
4.79971e-10
3.10524e-12
4.78778e-10
3.66672e-12
4.77385e-10
4.26101e-12
4.75778e-10
4.88819e-12
4.73945e-10
5.54876e-12
4.71876e-10
6.24296e-12
4.69558e-10
6.971e-12
4.6698e-10
7.73294e-12
4.64132e-10
8.52779e-12
4.61e-10
9.35483e-12
4.57574e-10
1.0214e-11
4.53844e-10
1.11042e-11
4.498e-10
1.20243e-11
4.4543e-10
1.29732e-11
4.40727e-10
1.39492e-11
4.35682e-10
1.49507e-11
4.30285e-10
1.5976e-11
4.24532e-10
1.70225e-11
4.18413e-10
1.80874e-11
4.11924e-10
1.91688e-11
4.05061e-10
2.0264e-11
3.9782e-10
2.13693e-11
3.902e-10
2.24816e-11
3.82199e-10
2.35969e-11
3.73817e-10
2.47111e-11
3.65056e-10
2.58207e-11
3.55921e-10
2.6921e-11
3.46415e-10
2.80063e-11
3.36546e-10
2.90717e-11
3.26323e-10
3.01122e-11
3.15757e-10
3.11216e-11
3.04861e-10
3.20934e-11
2.9365e-10
3.30216e-11
2.82142e-10
3.38991e-11
2.70356e-10
3.47183e-11
2.58316e-10
3.54719e-11
2.46048e-10
3.61518e-11
2.33578e-10
3.67488e-11
2.20938e-10
3.72541e-11
2.08164e-10
3.76591e-11
1.95293e-10
3.79534e-11
1.82365e-10
3.81262e-11
1.69425e-10
3.81676e-11
1.56521e-10
3.80669e-11
1.43705e-10
3.78124e-11
1.31031e-10
3.73922e-11
1.18559e-10
3.67946e-11
1.0635e-10
3.60076e-11
9.44695e-11
3.50189e-11
8.29879e-11
3.38176e-11
7.19759e-11
3.23934e-11
6.15075e-11
3.07364e-11
5.16574e-11
2.88389e-11
4.24997e-11
2.66976e-11
3.4108e-11
2.43134e-11
2.65528e-11
2.16937e-11
1.98962e-11
1.88562e-11
1.41893e-11
1.58338e-11
9.46791e-12
1.26808e-11
5.74521e-12
9.48311e-12
3.00761e-12
6.37025e-12
1.2099e-12
3.52558e-12
2.54206e-13
1.21681e-12
-1.25687e-13
4.76326e-13
-1.06446e-12
2.04804e-12
-3.25077e-12
4.68649e-12
-6.36522e-12
8.40052e-12
-1.02269e-11
1.32015e-11
-1.44306e-11
1.90821e-11
-1.86967e-11
2.60135e-11
-2.28479e-11
3.3945e-11
-2.67794e-11
4.2817e-11
-3.04258e-11
5.25539e-11
-3.3753e-11
6.30787e-11
-3.67425e-11
7.43042e-11
-3.9393e-11
8.61492e-11
-4.17065e-11
9.85293e-11
-4.3692e-11
1.11362e-10
-4.5363e-11
1.24569e-10
-4.67336e-11
1.38076e-10
-4.78211e-11
1.51808e-10
-4.8644e-11
1.65703e-10
-4.92181e-11
1.79693e-10
-4.9563e-11
1.93721e-10
-4.96962e-11
2.07735e-10
-4.96336e-11
2.21682e-10
-4.93932e-11
2.35519e-10
-4.89905e-11
2.49203e-10
-4.84405e-11
2.62697e-10
-4.7759e-11
2.75967e-10
-4.69593e-11
2.88984e-10
-4.60546e-11
3.01721e-10
-4.50586e-11
3.14156e-10
-4.39823e-11
3.26268e-10
-4.28369e-11
3.3804e-10
-4.16342e-11
3.49458e-10
-4.03836e-11
3.60513e-10
-3.9094e-11
3.71193e-10
-3.7775e-11
3.81494e-10
-3.64346e-11
3.9141e-10
-3.50799e-11
4.0094e-10
-3.37181e-11
4.10083e-10
-3.23565e-11
4.18841e-10
-3.10005e-11
4.27216e-10
-2.96553e-11
4.35213e-10
-2.83269e-11
4.42839e-10
-2.70192e-11
4.501e-10
-2.57359e-11
4.57003e-10
-2.44811e-11
4.63559e-10
-2.32583e-11
4.69777e-10
-2.20699e-11
4.75668e-10
-2.09188e-11
4.81242e-10
-1.98073e-11
4.86511e-10
-1.87363e-11
4.91489e-10
-1.77071e-11
4.96188e-10
-1.67217e-11
5.00619e-10
-1.57809e-11
5.04797e-10
-1.48845e-11
5.08734e-10
-1.40327e-11
5.12442e-10
-1.32256e-11
5.15934e-10
-1.24629e-11
5.19225e-10
-1.17437e-11
5.22325e-10
-1.10674e-11
5.25247e-10
-1.04331e-11
5.28003e-10
-9.8393e-12
5.30604e-10
-9.28422e-12
5.33061e-10
-8.76677e-12
5.35384e-10
-8.28551e-12
5.37584e-10
-7.83792e-12
5.39669e-10
-7.42171e-12
5.41648e-10
-7.03505e-12
5.43528e-10
-6.67546e-12
5.45317e-10
-6.34003e-12
5.47023e-10
-6.02664e-12
5.48648e-10
-5.73317e-12
5.502e-10
-5.45657e-12
5.51682e-10
-5.19355e-12
5.53096e-10
-4.94118e-12
5.54447e-10
-4.69696e-12
5.55734e-10
-4.45838e-12
5.5696e-10
-4.22226e-12
5.58123e-10
-3.9854e-12
5.59223e-10
-3.74509e-12
5.60257e-10
-3.49857e-12
5.61224e-10
-3.24282e-12
5.62119e-10
-2.975e-12
5.62939e-10
-2.69257e-12
5.63677e-10
-2.39255e-12
5.64328e-10
-2.07178e-12
5.64887e-10
-1.72794e-12
5.65344e-10
-1.35891e-12
5.65691e-10
-9.62247e-13
5.65921e-10
-5.35471e-13
5.66023e-10
-7.59389e-14
5.65987e-10
4.18251e-13
5.65803e-10
9.48696e-13
5.65458e-10
1.51766e-12
5.64944e-10
2.12692e-12
5.64245e-10
2.77775e-12
5.6335e-10
3.47157e-12
5.62246e-10
4.20952e-12
5.60919e-10
4.9929e-12
5.59357e-10
5.82285e-12
5.57545e-10
6.69954e-12
5.5547e-10
7.62322e-12
5.53119e-10
8.59454e-12
5.50477e-10
9.61337e-12
5.4753e-10
1.06794e-11
5.44265e-10
1.17923e-11
5.40669e-10
1.29508e-11
5.36728e-10
1.41544e-11
5.32431e-10
1.5402e-11
5.27764e-10
1.66915e-11
5.22716e-10
1.80209e-11
5.17276e-10
1.93886e-11
5.11434e-10
2.07922e-11
5.0518e-10
2.22289e-11
4.98506e-10
2.36959e-11
4.91404e-10
2.51891e-11
4.83867e-10
2.67048e-11
4.7589e-10
2.82396e-11
4.6747e-10
2.97888e-11
4.58604e-10
3.13472e-11
4.49291e-10
3.291e-11
4.39531e-10
3.44715e-11
4.29327e-10
3.60253e-11
4.18683e-10
3.75653e-11
4.07604e-10
3.90846e-11
3.961e-10
4.05756e-11
3.84181e-10
4.20308e-11
3.71859e-10
4.34426e-11
3.5915e-10
4.48018e-11
3.46073e-10
4.60986e-11
3.32648e-10
4.73241e-11
3.18899e-10
4.84681e-11
3.04853e-10
4.95193e-11
2.90538e-10
5.04666e-11
2.75988e-10
5.12984e-11
2.61241e-10
5.20019e-11
2.46335e-10
5.25643e-11
2.31315e-10
5.29727e-11
2.16229e-10
5.32129e-11
2.01128e-10
5.32697e-11
1.86067e-10
5.31285e-11
1.71105e-10
5.27745e-11
1.56305e-10
5.2192e-11
1.41735e-10
5.13646e-11
1.27465e-10
5.02769e-11
1.13569e-10
4.8914e-11
1.00126e-10
4.72612e-11
8.72143e-11
4.53049e-11
7.49168e-11
4.30341e-11
6.33169e-11
4.04403e-11
5.24959e-11
3.75195e-11
4.25334e-11
3.42749e-11
3.35062e-11
3.07194e-11
2.54835e-11
2.68783e-11
1.8523e-11
2.27945e-11
1.26688e-11
1.85364e-11
7.94565e-12
1.42076e-11
4.35283e-12
9.96084e-12
1.87035e-12
6.00782e-12
4.45274e-13
2.64253e-12
3.19759e-13
6.3755e-13
-1.70011e-12
2.62694e-12
-5.24148e-12
5.91264e-12
-9.64927e-12
1.04517e-11
-1.47666e-11
1.62179e-11
-2.01981e-11
2.31805e-11
-2.56578e-11
3.12899e-11
-3.09582e-11
4.0488e-11
-3.59767e-11
5.07028e-11
-4.06404e-11
6.18553e-11
-4.49035e-11
7.38574e-11
-4.87454e-11
8.66205e-11
-5.21577e-11
1.00055e-10
-5.51414e-11
1.14072e-10
-5.77081e-11
1.28581e-10
-5.98715e-11
1.43497e-10
-6.16497e-11
1.58738e-10
-6.30634e-11
1.74227e-10
-6.41324e-11
1.89889e-10
-6.48802e-11
2.05655e-10
-6.53294e-11
2.2146e-10
-6.55011e-11
2.37243e-10
-6.54178e-11
2.52951e-10
-6.5101e-11
2.68531e-10
-6.45708e-11
2.83938e-10
-6.38479e-11
2.9913e-10
-6.29509e-11
3.14069e-10
-6.18978e-11
3.28721e-10
-6.07069e-11
3.43056e-10
-5.93943e-11
3.5705e-10
-5.79754e-11
3.70679e-10
-5.6466e-11
3.83923e-10
-5.48796e-11
3.96769e-10
-5.32289e-11
4.09202e-10
-5.15269e-11
4.21213e-10
-4.97858e-11
4.32793e-10
-4.80155e-11
4.4394e-10
-4.6226e-11
4.54648e-10
-4.44276e-11
4.6492e-10
-4.26284e-11
4.74755e-10
-4.0836e-11
4.84158e-10
-3.90586e-11
4.93133e-10
-3.73024e-11
5.01688e-10
-3.55735e-11
5.0983e-10
-3.38776e-11
5.17568e-10
-3.22197e-11
5.24913e-10
-3.06034e-11
5.31876e-10
-2.90328e-11
5.38469e-10
-2.7512e-11
5.44706e-10
-2.60435e-11
5.50599e-10
-2.4629e-11
5.56162e-10
-2.32707e-11
5.6141e-10
-2.19704e-11
5.66357e-10
-2.07286e-11
5.71019e-10
-1.95458e-11
5.7541e-10
-1.84231e-11
5.79544e-10
-1.73601e-11
5.83437e-10
-1.63558e-11
5.87103e-10
-1.54094e-11
5.90556e-10
-1.45205e-11
5.9381e-10
-1.36875e-11
5.9688e-10
-1.29084e-11
5.99777e-10
-1.21815e-11
6.02514e-10
-1.15046e-11
6.05104e-10
-1.08751e-11
6.07557e-10
-1.02905e-11
6.09885e-10
-9.74845e-12
6.12095e-10
-9.24606e-12
6.14199e-10
-8.77959e-12
6.16204e-10
-8.34534e-12
6.18118e-10
-7.94044e-12
6.19946e-10
-7.56188e-12
6.21695e-10
-7.20554e-12
6.2337e-10
-6.86744e-12
6.24973e-10
-6.54416e-12
6.26508e-10
-6.23189e-12
6.27976e-10
-5.92662e-12
6.2938e-10
-5.62452e-12
6.30716e-10
-5.3219e-12
6.31986e-10
-5.01487e-12
6.33186e-10
-4.6991e-12
6.34315e-10
-4.37067e-12
6.35367e-10
-4.02626e-12
6.36337e-10
-3.66237e-12
6.3722e-10
-3.27493e-12
6.38009e-10
-2.85987e-12
6.38696e-10
-2.4141e-12
6.39272e-10
-1.93477e-12
6.39727e-10
-1.41813e-12
6.40054e-10
-8.608e-13
6.40238e-10
-2.60034e-13
6.4027e-10
3.86888e-13
6.40137e-10
1.08241e-12
6.39826e-10
1.82928e-12
6.39323e-10
2.63009e-12
6.38615e-10
3.48645e-12
6.37686e-10
4.40017e-12
6.36523e-10
5.37311e-12
6.35109e-10
6.40647e-12
6.3343e-10
7.50157e-12
6.31469e-10
8.65946e-12
6.29211e-10
9.8804e-12
6.26641e-10
1.11648e-11
6.23742e-10
1.25128e-11
6.20498e-10
1.39234e-11
6.16893e-10
1.53962e-11
6.12914e-10
1.69304e-11
6.08543e-10
1.85244e-11
6.03768e-10
2.01768e-11
5.98573e-10
2.18854e-11
5.92947e-10
2.36473e-11
5.86875e-10
2.546e-11
5.80347e-10
2.73204e-11
5.7335e-10
2.92247e-11
5.65876e-10
3.11687e-11
5.57915e-10
3.31484e-11
5.49462e-10
3.51583e-11
5.40508e-10
3.71927e-11
5.3105e-10
3.9246e-11
5.21086e-10
4.13117e-11
5.10613e-10
4.33826e-11
4.99633e-10
4.54517e-11
4.88148e-10
4.75107e-11
4.76163e-10
4.95504e-11
4.63684e-10
5.15623e-11
4.50722e-10
5.3537e-11
4.3729e-10
5.54639e-11
4.234e-10
5.73319e-11
4.09071e-10
5.91303e-11
3.94324e-10
6.08463e-11
3.79182e-10
6.24667e-11
3.63672e-10
6.39785e-11
3.47824e-10
6.53677e-11
3.31672e-10
6.66191e-11
3.15253e-10
6.77172e-11
2.98609e-10
6.86462e-11
2.81785e-10
6.93893e-11
2.64829e-10
6.99287e-11
2.47795e-10
7.02463e-11
2.30742e-10
7.03239e-11
2.1373e-10
7.01419e-11
1.96824e-10
6.96805e-11
1.80095e-10
6.89205e-11
1.63617e-10
6.78424e-11
1.47468e-10
6.64261e-11
1.31729e-10
6.46529e-11
1.16485e-10
6.25056e-11
1.01822e-10
5.99681e-11
8.78299e-11
5.70269e-11
7.45975e-11
5.36732e-11
6.22138e-11
4.99042e-11
5.07646e-11
4.57248e-11
4.03321e-11
4.11517e-11
3.09916e-11
3.62174e-11
2.28092e-11
3.09755e-11
1.58397e-11
2.5506e-11
1.01237e-11
1.99263e-11
5.68047e-12
1.44042e-11
2.51789e-12
9.16958e-12
6.29227e-13
4.53118e-12
9.49076e-13
7.93692e-13
-2.49724e-12
3.19017e-12
-7.63578e-12
7.092e-12
-1.35515e-11
1.24203e-11
-2.00937e-11
1.911e-11
-2.68899e-11
2.71037e-11
-3.36529e-11
3.63361e-11
-4.01901e-11
4.67314e-11
-4.63734e-11
5.82111e-11
-5.21183e-11
7.06846e-11
-5.73771e-11
8.40605e-11
-6.21217e-11
9.82442e-11
-6.63407e-11
1.13138e-10
-7.00369e-11
1.2865e-10
-7.3219e-11
1.44683e-10
-7.59047e-11
1.61147e-10
-7.81147e-11
1.77957e-10
-7.98714e-11
1.95026e-10
-8.12009e-11
2.12275e-10
-8.21303e-11
2.29631e-10
-8.26853e-11
2.47023e-10
-8.28936e-11
2.64387e-10
-8.27821e-11
2.81663e-10
-8.23764e-11
2.98794e-10
-8.17029e-11
3.15731e-10
-8.07857e-11
3.32429e-10
-7.96483e-11
3.48845e-10
-7.83146e-11
3.64944e-10
-7.68057e-11
3.80692e-10
-7.51422e-11
3.96061e-10
-7.33446e-11
4.11026e-10
-7.14317e-11
4.25567e-10
-6.94206e-11
4.39666e-10
-6.73278e-11
4.53309e-10
-6.51701e-11
4.66484e-10
-6.29615e-11
4.79185e-10
-6.07154e-11
4.91404e-10
-5.84458e-11
5.0314e-10
-5.61641e-11
5.14393e-10
-5.38808e-11
5.25163e-10
-5.16069e-11
5.35455e-10
-4.93516e-11
5.45276e-10
-4.71227e-11
5.54631e-10
-4.49286e-11
5.6353e-10
-4.27769e-11
5.71984e-10
-4.06732e-11
5.80004e-10
-3.86227e-11
5.87602e-10
-3.66313e-11
5.94791e-10
-3.47026e-11
6.01589e-10
-3.28401e-11
6.08007e-10
-3.10472e-11
6.14063e-10
-2.93266e-11
6.19772e-10
-2.76796e-11
6.25151e-10
-2.61074e-11
6.30216e-10
-2.4611e-11
6.34983e-10
-2.31912e-11
6.39471e-10
-2.18475e-11
6.43694e-10
-2.0579e-11
6.4767e-10
-1.93852e-11
6.51413e-10
-1.82646e-11
6.54941e-10
-1.72151e-11
6.58268e-10
-1.6235e-11
6.61409e-10
-1.53221e-11
6.64377e-10
-1.44732e-11
6.67186e-10
-1.36847e-11
6.6985e-10
-1.29538e-11
6.72378e-10
-1.22774e-11
6.74784e-10
-1.16514e-11
6.77076e-10
-1.10714e-11
6.79265e-10
-1.05335e-11
6.81357e-10
-1.00334e-11
6.83361e-10
-9.56637e-12
6.85284e-10
-9.12756e-12
6.87129e-10
-8.71238e-12
6.88901e-10
-8.31649e-12
6.90604e-10
-7.93463e-12
6.92239e-10
-7.56148e-12
6.93808e-10
-7.19243e-12
6.95309e-10
-6.82277e-12
6.96741e-10
-6.44729e-12
6.98104e-10
-6.0607e-12
6.99392e-10
-5.65815e-12
7.006e-10
-5.2351e-12
7.01725e-10
-4.78653e-12
7.02758e-10
-4.30742e-12
7.03692e-10
-3.7933e-12
7.04519e-10
-3.24e-12
7.05228e-10