/*--------------------------------*- C++ -*----------------------------------*\
  =========                 |
  \\      /  F ield         | OpenFOAM: The Open Source CFD Toolbox
   \\    /   O peration     | Website:  https://openfoam.org
    \\  /    A nd           | Version:  7
     \\/     M anipulation  |
\*---------------------------------------------------------------------------*/
FoamFile
{
    version     2.0;
    format      ascii;
    class       volScalarField;
    location    "0.2875";
    object      p;
}
// * * * * * * * * * * * * * * * * * * * * * * * * * * * * * * * * * * * * * //

dimensions      [0 2 -2 0 0 0 0];

internalField   nonuniform List<scalar> 
12800
(
2.04375e-08
2.67975e-05
-7.59573e-06
-0.000115117
-0.000288058
-0.000516386
-0.000789396
-0.00109657
-0.0014284
-0.00177654
-0.00213384
-0.00249417
-0.00285244
-0.00320445
-0.00354674
-0.0038765
-0.00419155
-0.00449021
-0.00477124
-0.00503376
-0.00527719
-0.00550123
-0.0057058
-0.00589098
-0.00605698
-0.00620408
-0.00633268
-0.00644324
-0.00653625
-0.00661216
-0.00667145
-0.00671456
-0.00674195
-0.00675404
-0.00675121
-0.00673378
-0.006702
-0.0066561
-0.00659624
-0.00652256
-0.00643511
-0.0063339
-0.00621885
-0.00608987
-0.00594681
-0.00578946
-0.00561759
-0.00543091
-0.00522905
-0.00501161
-0.00477816
-0.00452818
-0.00426114
-0.00397645
-0.00367348
-0.00335155
-0.00300992
-0.00264781
-0.00226436
-0.0018587
-0.0014299
-0.000977002
-0.000498973
5.25139e-06
0.000536793
0.00109683
0.00168659
0.00230737
0.00296049
0.00364736
0.00436942
0.00512818
0.00592517
0.00676198
0.00764025
0.00856165
0.00952788
0.0105407
0.0116019
0.0127132
0.0138765
0.0150936
0.0163664
0.0176966
0.019086
0.0205365
0.0220498
0.0236276
0.0252714
0.0269828
0.0287633
0.0306142
0.0325367
0.0345317
0.0366001
0.0387426
0.0409596
0.0432512
0.0456173
0.0480574
0.0505709
0.0531565
0.0558126
0.0585375
0.0613285
0.0641829
0.0670972
0.0700675
0.0730894
0.0761579
0.0792674
0.0824118
0.0855843
0.0887776
0.0919839
0.0951948
0.0984012
0.101594
0.104763
0.107898
0.110988
0.114023
0.116991
0.119882
0.122683
0.125384
0.127974
0.130443
0.132779
0.134974
0.137018
0.138903
0.140623
0.14217
0.14354
0.144729
0.145734
0.146554
0.147191
0.147646
0.147922
0.148026
0.147963
0.147744
0.147378
0.146877
0.146256
0.14553
0.144716
0.143836
0.142909
0.141961
0.141018
0.140109
0.139268
0.138532
0.137938
0.137529
0.137344
0.13737
-2.66857e-05
1.78365e-07
-3.55599e-05
-0.000134143
-0.000286549
-0.000485916
-0.000724581
-0.00099443
-0.00128771
-0.00159738
-0.00191716
-0.0022416
-0.00256602
-0.00288646
-0.00319962
-0.00350273
-0.00379358
-0.00407046
-0.00433202
-0.00457726
-0.00480547
-0.00501619
-0.00520918
-0.00538436
-0.00554177
-0.00568155
-0.00580397
-0.00590932
-0.00599796
-0.00607021
-0.00612643
-0.00616696
-0.00619216
-0.00620235
-0.00619784
-0.00617886
-0.00614562
-0.00609825
-0.00603689
-0.0059616
-0.00587242
-0.0057693
-0.00565216
-0.00552085
-0.00537521
-0.00521502
-0.00504003
-0.00484993
-0.00464436
-0.00442291
-0.00418513
-0.00393051
-0.00365852
-0.00336858
-0.00306006
-0.00273229
-0.00238454
-0.00201603
-0.00162594
-0.00121341
-0.000777527
-0.000317341
0.000168135
0.000679937
0.00121915
0.00178693
0.00238446
0.003013
0.00367382
0.00436828
0.00509777
0.00586372
0.00666763
0.00751101
0.00839543
0.00932247
0.0102938
0.011311
0.0123758
0.0134899
0.0146551
0.015873
0.0171453
0.0184739
0.0198603
0.0213062
0.0228133
0.0243831
0.026017
0.0277165
0.0294829
0.0313174
0.033221
0.0351946
0.0372389
0.0393544
0.0415414
0.0438
0.0461299
0.0485306
0.0510012
0.0535404
0.0561468
0.0588183
0.0615524
0.0643463
0.0671967
0.0700995
0.0730506
0.076045
0.0790772
0.0821414
0.0852309
0.0883389
0.0914576
0.0945791
0.0976947
0.100795
0.103872
0.106915
0.109913
0.112857
0.115736
0.118539
0.121257
0.123878
0.126392
0.128789
0.131061
0.133197
0.135189
0.137031
0.138715
0.140235
0.141588
0.14277
0.143779
0.144613
0.145275
0.145766
0.14609
0.146251
0.146258
0.146119
0.145844
0.145444
0.144933
0.144325
0.143639
0.142891
0.142103
0.141296
0.140495
0.139725
0.139015
0.138394
0.137892
0.137538
0.137369
0.137396
8.04345e-06
3.617e-05
1.53658e-07
-9.37059e-05
-0.00023454
-0.000416474
-0.000633362
-0.00087849
-0.00114532
-0.0014278
-0.00172041
-0.00201827
-0.00231714
-0.00261334
-0.00290376
-0.00318576
-0.00345718
-0.00371632
-0.0039618
-0.00419256
-0.00440784
-0.00460709
-0.00478997
-0.00495627
-0.00510593
-0.00523901
-0.00535565
-0.00545605
-0.00554046
-0.00560909
-0.00566222
-0.00570012
-0.00572304
-0.00573127
-0.005725
-0.00570444
-0.00566971
-0.00562092
-0.00555815
-0.00548143
-0.00539074
-0.00528602
-0.00516715
-0.00503397
-0.00488628
-0.00472387
-0.00454646
-0.00435375
-0.00414534
-0.00392083
-0.00367976
-0.00342163
-0.0031459
-0.00285201
-0.00253933
-0.00220718
-0.00185486
-0.0014816
-0.00108658
-0.000668954
-0.000227843
0.000237683
0.000728588
0.00124588
0.00179063
0.00236394
0.00296699
0.00360097
0.00426713
0.00496679
0.00570127
0.00647198
0.00728035
0.00812783
0.00901593
0.00994618
0.0109201
0.0119394
0.0130056
0.0141203
0.0152852
0.0165019
0.0177721
0.0190973
0.0204792
0.0219193
0.0234191
0.0249802
0.0266038
0.0282913
0.030044
0.0318627
0.0337487
0.0357025
0.0377249
0.0398162
0.0419767
0.0442063
0.0465047
0.0488714
0.0513054
0.0538054
0.0563699
0.0589968
0.0616837
0.0644278
0.0672256
0.0700735
0.0729672
0.0759018
0.0788721
0.0818723
0.0848961
0.0879366
0.0909865
0.0940381
0.097083
0.100113
0.103118
0.10609
0.109018
0.111892
0.114704
0.117442
0.120096
0.122657
0.125115
0.12746
0.129683
0.131776
0.133731
0.135541
0.1372
0.138702
0.140044
0.141222
0.142234
0.143081
0.143762
0.144281
0.144641
0.144848
0.144907
0.144828
0.14462
0.144295
0.143865
0.143345
0.142751
0.142099
0.141409
0.140701
0.139997
0.139319
0.138693
0.138143
0.137693
0.137367
0.137199
0.137212
0.000116486
0.000135375
9.3635e-05
-1.02402e-06
-0.000137712
-0.000310919
-0.000515206
-0.000744751
-0.000993894
-0.00125734
-0.00153024
-0.00180826
-0.00208755
-0.00236475
-0.00263696
-0.00290173
-0.00315704
-0.00340122
-0.00363291
-0.00385108
-0.00405493
-0.00424388
-0.00441754
-0.00457562
-0.004718
-0.00484467
-0.00495571
-0.00505124
-0.00513139
-0.00519634
-0.00524627
-0.0052814
-0.00530194
-0.00530808
-0.00529996
-0.00527773
-0.00524148
-0.00519127
-0.00512714
-0.00504909
-0.00495706
-0.00485095
-0.00473062
-0.00459589
-0.00444656
-0.00428238
-0.00410308
-0.00390834
-0.00369775
-0.0034709
-0.00322732
-0.00296651
-0.00268796
-0.00239109
-0.00207529
-0.00173988
-0.00138415
-0.00100736
-0.000608699
-0.000187342
0.000257576
0.000726959
0.00122175
0.00174294
0.00229156
0.0028687
0.00347549
0.0041131
0.00478275
0.0054857
0.00622325
0.00699674
0.00780756
0.00865712
0.00954686
0.0104783
0.0114529
0.0124721
0.0135376
0.014651
0.0158137
0.0170273
0.0182935
0.0196137
0.0209894
0.0224222
0.0239136
0.0254647
0.0270771
0.0287519
0.0304903
0.0322932
0.0341615
0.036096
0.0380972
0.0401655
0.0423011
0.0445038
0.0467733
0.049109
0.0515099
0.0539749
0.0565023
0.05909
0.0617357
0.0644366
0.0671894
0.0699905
0.0728356
0.07572
0.0786387
0.0815859
0.0845555
0.087541
0.0905351
0.0935303
0.0965186
0.0994917
0.102441
0.105356
0.10823
0.111051
0.11381
0.116498
0.119104
0.12162
0.124035
0.126341
0.128529
0.130591
0.132519
0.134307
0.135948
0.137438
0.138773
0.13995
0.140967
0.141824
0.142522
0.143064
0.143452
0.143693
0.143793
0.14376
0.143604
0.143335
0.142966
0.14251
0.141983
0.1414
0.140779
0.140139
0.139499
0.13888
0.138303
0.137789
0.13736
0.137036
0.136846
0.136808
0.000291881
0.00028948
0.00023463
0.000133728
-4.27315e-06
-0.00017427
-0.000371393
-0.000590585
-0.000826948
-0.00107588
-0.00133316
-0.00159495
-0.00185782
-0.00211872
-0.00237502
-0.00262449
-0.00286526
-0.00309575
-0.00331466
-0.00352099
-0.00371398
-0.00389303
-0.00405769
-0.00420767
-0.00434281
-0.00446304
-0.00456838
-0.00465888
-0.00473461
-0.00479569
-0.00484224
-0.00487443
-0.00489241
-0.00489631
-0.00488622
-0.00486222
-0.00482438
-0.00477271
-0.00470723
-0.00462787
-0.00453457
-0.00442718
-0.00430554
-0.00416946
-0.00401871
-0.00385304
-0.00367216
-0.00347573
-0.00326334
-0.00303457
-0.00278895
-0.00252598
-0.00224514
-0.00194588
-0.00162757
-0.00128956
-0.000931126
-0.000551543
-0.000150026
0.000274236
0.000722088
0.00119441
0.00169212
0.0022162
0.00276764
0.00334751
0.00395691
0.00459697
0.00526886
0.00597382
0.00671311
0.00748801
0.00829987
0.00915004
0.0100399
0.010971
0.0119446
0.0129623
0.0140255
0.0151358
0.0162946
0.0175035
0.018764
0.0200775
0.0214455
0.0228694
0.0243506
0.0258903
0.0274899
0.0291506
0.0308733
0.0326591
0.0345087
0.0364229
0.0384022
0.0404468
0.042557
0.0447325
0.0469731
0.0492782
0.0516467
0.0540774
0.0565688
0.0591189
0.0617254
0.0643854
0.0670959
0.0698532
0.0726532
0.0754914
0.0783628
0.0812619
0.0841826
0.0871187
0.090063
0.0930084
0.095947
0.0988706
0.101771
0.104639
0.107465
0.110241
0.112956
0.115602
0.118169
0.120647
0.123028
0.125303
0.127463
0.1295
0.131407
0.133178
0.134807
0.136289
0.13762
0.138798
0.13982
0.140688
0.141402
0.141964
0.142377
0.142648
0.142783
0.142789
0.142675
0.142453
0.142133
0.141729
0.141255
0.140726
0.140158
0.139568
0.138974
0.138394
0.137847
0.137351
0.136923
0.136583
0.136346
0.136225
0.000525412
0.0004924
0.000417914
0.000305584
0.000161227
-1.05485e-05
-0.000205365
-0.000418878
-0.000646898
-0.000885459
-0.00113089
-0.00137985
-0.00162929
-0.00187652
-0.00211921
-0.00235535
-0.0025832
-0.00280134
-0.00300857
-0.00320397
-0.00338679
-0.00355645
-0.0037125
-0.00385464
-0.00398269
-0.00409657
-0.00419623
-0.00428167
-0.00435292
-0.00441004
-0.00445313
-0.00448229
-0.00449763
-0.0044992
-0.00448707
-0.00446127
-0.00442182
-0.00436872
-0.00430192
-0.00422134
-0.00412687
-0.00401834
-0.00389557
-0.00375835
-0.00360645
-0.00343958
-0.00325746
-0.0030597
-0.00284592
-0.00261567
-0.00236848
-0.00210387
-0.00182132
-0.00152026
-0.00120009
-0.000860142
-0.000499729
-0.000118118
0.000285452
0.000711771
0.00116166
0.00163599
0.00213564
0.00266158
0.00321477
0.00379626
0.0044071
0.00504839
0.00572127
0.00642694
0.00716661
0.00794153
0.00875299
0.00960231
0.0104908
0.0114199
0.012391
0.0134055
0.0144648
0.0155704
0.0167237
0.0179262
0.0191793
0.0204844
0.021843
0.0232563
0.0247257
0.0262525
0.0278379
0.029483
0.0311888
0.0329562
0.0347861
0.036679
0.0386355
0.0406559
0.0427402
0.0448884
0.0471001
0.0493748
0.0517114
0.0541088
0.0565654
0.0590794
0.0616484
0.0642698
0.0669406
0.0696571
0.0724155
0.0752113
0.0780397
0.0808954
0.0837724
0.0866645
0.0895651
0.0924669
0.0953625
0.0982437
0.101102
0.10393
0.106717
0.109455
0.112135
0.114747
0.117282
0.119731
0.122085
0.124336
0.126475
0.128494
0.130387
0.132147
0.133768
0.135246
0.136576
0.137757
0.138787
0.139666
0.140395
0.140975
0.141411
0.141708
0.141872
0.14191
0.141831
0.141646
0.141366
0.141002
0.140569
0.14008
0.139551
0.138996
0.138432
0.137874
0.13734
0.136844
0.136401
0.136028
0.135729
0.135503
0.000807434
0.000737235
0.000637836
0.000509505
0.000354285
0.000176259
-2.06423e-05
-0.000232737
-0.000456481
-0.0006885
-0.000925631
-0.00116497
-0.00140388
-0.00164005
-0.00187141
-0.00209617
-0.00231281
-0.00252003
-0.0027168
-0.00290226
-0.00307572
-0.00323662
-0.00338456
-0.00351925
-0.00364052
-0.00374825
-0.00384236
-0.00392282
-0.00398962
-0.00404281
-0.00408243
-0.00410856
-0.00412123
-0.00412047
-0.00410629
-0.00407871
-0.0040377
-0.00398322
-0.0039152
-0.00383351
-0.00373802
-0.00362853
-0.00350485
-0.00336674
-0.00321396
-0.00304622
-0.0028632
-0.00266452
-0.00244976
-0.00221849
-0.00197025
-0.00170455
-0.00142086
-0.00111862
-0.000797245
-0.000456071
-9.44156e-05
0.000288437
0.00069323
0.00112073
0.00157175
0.00204711
0.0025477
0.00307444
0.00362829
0.00421023
0.00482131
0.00546259
0.00613518
0.00684022
0.00757889
0.00835239
0.00916199
0.0100089
0.0108945
0.0118201
0.0127871
0.0137967
0.0148504
0.0159496
0.0170957
0.0182901
0.0195341
0.0208292
0.0221766
0.0235777
0.0250338
0.0265461
0.0281158
0.0297439
0.0314314
0.0331793
0.0349883
0.036859
0.0387919
0.0407874
0.0428455
0.0449661
0.047149
0.0493935
0.0516987
0.0540636
0.0564867
0.058966
0.0614995
0.0640845
0.0667181
0.0693969
0.072117
0.0748743
0.0776639
0.0804807
0.083319
0.0861727
0.0890353
0.0918998
0.0947588
0.0976045
0.100429
0.103223
0.105979
0.108687
0.111339
0.113925
0.116437
0.118865
0.1212
0.123434
0.125559
0.127567
0.129452
0.131206
0.132824
0.134302
0.135636
0.136824
0.137863
0.138753
0.139497
0.140094
0.14055
0.14087
0.141058
0.141122
0.141072
0.140916
0.140666
0.140332
0.139929
0.139468
0.138963
0.138429
0.13788
0.13733
0.136793
0.136283
0.135812
0.135394
0.135021
0.13468
0.00112837
0.00101643
0.000888053
0.000739931
0.000570041
0.000381969
0.000179226
-3.51214e-05
-0.00025812
-0.000486931
-0.000718872
-0.00095146
-0.00118247
-0.00140993
-0.00163205
-0.00184729
-0.00205431
-0.00225203
-0.00243952
-0.00261604
-0.00278095
-0.00293378
-0.00307417
-0.00320188
-0.00331672
-0.00341856
-0.00350733
-0.00358296
-0.00364544
-0.00369478
-0.00373101
-0.00375416
-0.00376421
-0.00376116
-0.003745
-0.00371571
-0.00367322
-0.00361747
-0.00354835
-0.0034657
-0.00336936
-0.00325911
-0.00313475
-0.00299602
-0.00284266
-0.00267437
-0.00249081
-0.00229159
-0.00207629
-0.00184447
-0.00159566
-0.0013294
-0.00104515
-0.000742354
-0.00042042
-7.87053e-05
0.000283464
0.000666787
0.00107199
0.00149981
0.00195104
0.0024265
0.00292703
0.00345354
0.00400695
0.00458822
0.00519836
0.0058384
0.00650942
0.0072125
0.00794879
0.00871947
0.00952573
0.0103688
0.01125
0.0121705
0.0131316
0.0141348
0.0151812
0.0162724
0.0174095
0.018594
0.0198273
0.0211105
0.0224451
0.0238323
0.0252734
0.0267696
0.028322
0.0299316
0.0315995
0.0333265
0.0351134
0.0369608
0.0388693
0.040839
0.0428703
0.044963
0.0471168
0.0493313
0.0516055
0.0539385
0.0563289
0.0587748
0.0612742
0.0638246
0.0664233
0.0690669
0.0717518
0.0744738
0.0772283
0.0800104
0.0828144
0.0856346
0.0884645
0.0912973
0.0941257
0.0969421
0.0997386
0.102507
0.105238
0.107924
0.110555
0.113123
0.115618
0.118032
0.120356
0.122581
0.124699
0.126702
0.128585
0.130339
0.13196
0.133443
0.134784
0.13598
0.137031
0.137935
0.138693
0.139308
0.139782
0.140121
0.14033
0.140417
0.140389
0.140255
0.140027
0.139715
0.139331
0.138887
0.138396
0.137871
0.137325
0.13677
0.136219
0.135683
0.135174
0.134701
0.134247
0.133787
0.0014793
0.00132258
0.0011622
0.000991264
0.000803579
0.000602286
0.000390536
0.000170812
-5.44703e-05
-0.00028295
-0.000512407
-0.000740794
-0.000966258
-0.00118713
-0.00140192
-0.00160933
-0.00180827
-0.00199781
-0.00217717
-0.00234573
-0.00250294
-0.00264842
-0.00278187
-0.00290308
-0.0030119
-0.0031082
-0.00319189
-0.00326291
-0.00332125
-0.00336691
-0.00339988
-0.00342015
-0.00342769
-0.00342246
-0.00340443
-0.00337353
-0.0033297
-0.00327283
-0.00320275
-0.00311932
-0.00302232
-0.00291154
-0.00278675
-0.00264768
-0.00249405
-0.00232554
-0.0021418
-0.00194243
-0.00172701
-0.00149509
-0.00124622
-0.000979916
-0.000695667
-0.000392912
-7.10591e-05
0.000270522
0.00063249
0.00101553
0.00142034
0.00184764
0.0022982
0.00277282
0.00327232
0.00379757
0.00434948
0.00492896
0.005537
0.00617459
0.00684276
0.00754258
0.00827514
0.00904158
0.00984305
0.0106808
0.0115559
0.0124698
0.0134235
0.0144185
0.0154561
0.0165374
0.0176639
0.0188368
0.0200575
0.0213272
0.0226472
0.0240188
0.0254432
0.0269216
0.0284551
0.0300447
0.0316914
0.0333961
0.0351596
0.0369826
0.0388654
0.0408086
0.0428123
0.0448765
0.0470009
0.0491851
0.0514284
0.0537299
0.056088
0.0585014
0.0609679
0.0634853
0.0660509
0.0686614
0.0713135
0.0740031
0.0767258
0.0794768
0.0822506
0.0850415
0.0878434
0.0906495
0.0934527
0.0962456
0.0990203
0.101769
0.104482
0.107152
0.10977
0.112326
0.114812
0.117219
0.119537
0.12176
0.123878
0.125883
0.127769
0.129529
0.131158
0.132651
0.134003
0.135212
0.136277
0.137196
0.13797
0.138602
0.139094
0.139451
0.139679
0.139784
0.139774
0.139657
0.139445
0.139147
0.138774
0.138338
0.137852
0.137326
0.136773
0.136203
0.135628
0.135057
0.134501
0.133969
0.13343
0.132851
0.00185214
0.00164866
0.0014541
0.00125801
0.00105001
0.000832875
0.000609469
0.000381731
0.000151592
-7.90413e-05
-0.000308392
-0.000534821
-0.000756816
-0.000973018
-0.00118222
-0.0013834
-0.00157567
-0.0017583
-0.00193064
-0.0020922
-0.00224256
-0.00238142
-0.00250857
-0.00262384
-0.00272709
-0.00281822
-0.00289716
-0.00296386
-0.00301832
-0.00306051
-0.0030904
-0.00310796
-0.00311315
-0.00310589
-0.00308614
-0.0030538
-0.00300879
-0.00295096
-0.00288013
-0.0027961
-0.00269867
-0.0025876
-0.00246264
-0.00232352
-0.00216993
-0.00200154
-0.00181798
-0.00161885
-0.00140372
-0.00117216
-0.000923708
-0.00065789
-0.000374191
-7.20581e-05
0.000249094
0.000589882
0.00095095
0.00133296
0.0017366
0.00216256
0.00261158
0.00308445
0.00358196
0.00410496
0.0046543
0.0052309
0.00583569
0.00646962
0.0071337
0.00782895
0.00855644
0.00931725
0.0101125
0.0109433
0.011811
0.0127166
0.0136614
0.0146466
0.0156735
0.0167433
0.0178574
0.019017
0.0202233
0.0214777
0.0227814
0.0241356
0.0255415
0.0270004
0.0285132
0.0300811
0.0317051
0.0333861
0.0351248
0.0369219
0.038778
0.0406936
0.0426687
0.0447036
0.0467981
0.0489517
0.0511639
0.0534338
0.0557602
0.0581415
0.060576
0.0630615
0.0655954
0.0681747
0.0707961
0.0734558
0.0761494
0.0788724
0.0816194
0.084385
0.087163
0.0899469
0.0927298
0.0955043
0.0982626
0.100997
0.103698
0.106359
0.108969
0.11152
0.114003
0.11641
0.11873
0.120957
0.123081
0.125094
0.12699
0.128762
0.130404
0.131911
0.133279
0.134504
0.135586
0.136523
0.137316
0.137966
0.138476
0.13885
0.139095
0.139215
0.13922
0.139116
0.138914
0.138624
0.138256
0.137822
0.137332
0.136797
0.136228
0.135636
0.13503
0.134417
0.133809
0.133213
0.132588
0.131893
0.00223955
0.00198811
0.00175785
0.00153482
0.0013045
0.00106939
0.000832146
0.000594212
0.000357041
0.000122111
-0.000109204
-0.000335628
-0.000555988
-0.000769233
-0.000974446
-0.00117085
-0.00135778
-0.00153468
-0.00170106
-0.00185656
-0.00200092
-0.00213392
-0.00225542
-0.00236531
-0.00246348
-0.00254987
-0.00262444
-0.00268717
-0.00273804
-0.00277702
-0.00280407
-0.00281914
-0.00282217
-0.00281309
-0.00279181
-0.00275824
-0.00271224
-0.00265365
-0.00258227
-0.00249788
-0.00240026
-0.00228915
-0.00216431
-0.00202543
-0.00187219
-0.00170425
-0.00152123
-0.00132272
-0.0011083
-0.000877544
-0.000629984
-0.000365151
-8.25352e-05
0.000218407
0.000538255
0.000877613
0.0012371
0.00161737
0.00201907
0.00244288
0.00288953
0.00335976
0.00385434
0.0043741
0.00491986
0.00549249
0.0060929
0.006722
0.00738076
0.00807017
0.00879124
0.00954504
0.0103326
0.0111552
0.0120137
0.0129095
0.0138437
0.0148174
0.015832
0.0168887
0.0179886
0.019133
0.0203232
0.0215605
0.022846
0.024181
0.0255667
0.0270042
0.0284947
0.0300393
0.0316389
0.0332945
0.0350068
0.0367767
0.0386048
0.0404914
0.042437
0.0444417
0.0465054
0.0486279
0.0508086
0.0530468
0.0553414
0.057691
0.060094
0.0625484
0.0650517
0.0676012
0.0701936
0.0728254
0.0754923
0.0781899
0.0809132
0.0836567
0.0864145
0.0891803
0.0919471
0.0947079
0.0974548
0.10018
0.102875
0.105531
0.10814
0.110692
0.113179
0.115592
0.11792
0.120157
0.122294
0.124322
0.126234
0.128023
0.129683
0.13121
0.132598
0.133844
0.134947
0.135905
0.136718
0.137388
0.137917
0.138309
0.138569
0.138704
0.138721
0.138627
0.138432
0.138145
0.137777
0.137337
0.136838
0.136287
0.135697
0.135076
0.134432
0.133773
0.133109
0.132447
0.131737
0.13093
0.00263491
0.00233482
0.00206779
0.00181648
0.0015623
0.00130755
0.00105469
0.00080475
0.000558717
0.000317667
8.2617e-05
-0.000145498
-0.000365835
-0.000577652
-0.000780311
-0.000973273
-0.00115608
-0.00132835
-0.00148978
-0.00164015
-0.00177934
-0.00190722
-0.00202374
-0.00212883
-0.00222244
-0.00230456
-0.00237518
-0.00243431
-0.00248193
-0.00251801
-0.0025425
-0.00255534
-0.00255647
-0.0025458
-0.00252323
-0.00248864
-0.00244188
-0.00238275
-0.00231104
-0.00222653
-0.00212897
-0.00201811
-0.00189365
-0.00175531
-0.00160274
-0.00143558
-0.00125345
-0.00105594
-0.00084264
-0.00061311
-0.000366899
-0.000103535
0.000177482
0.00047669
0.000794656
0.00113197
0.00148923
0.00186705
0.00226608
0.00268697
0.00313042
0.00359715
0.00408791
0.00460347
0.00514464
0.00571226
0.00630718
0.0069303
0.00758254
0.00826484
0.00897819
0.00972362
0.0105022
0.0113149
0.0121629
0.0130473
0.0139693
0.0149299
0.0159305
0.0169722
0.0180562
0.0191837
0.020356
0.0215743
0.0228398
0.0241538
0.0255174
0.0269318
0.0283981
0.0299175
0.031491
0.0331195
0.0348039
0.0365451
0.0383436
0.0402001
0.0421148
0.0440882
0.0461202
0.0482107
0.0503593
0.0525654
0.054828
0.057146
0.0595177
0.0619415
0.064415
0.0669357
0.0695004
0.0721058
0.074748
0.0774225
0.0801246
0.0828489
0.0855898
0.0883409
0.0910956
0.0938467
0.0965867
0.0993077
0.102001
0.104659
0.107272
0.109831
0.112327
0.114751
0.117095
0.119348
0.121503
0.123551
0.125485
0.127298
0.128983
0.130534
0.131947
0.133219
0.134347
0.135329
0.136166
0.136858
0.137407
0.137818
0.138095
0.138243
0.138271
0.138185
0.137993
0.137707
0.137334
0.136886
0.136371
0.1358
0.135183
0.134528
0.133843
0.133134
0.132411
0.131682
0.130889
0.129975
0.00303212
0.00268305
0.00237856
0.002098
0.00181881
0.0015431
0.00127321
0.00100977
0.000753349
0.00050466
0.000264378
3.31076e-05
-0.000188625
-0.000400374
-0.000601766
-0.000792482
-0.000972268
-0.00114094
-0.00129838
-0.00144452
-0.00157935
-0.00170285
-0.00181503
-0.00191591
-0.00200551
-0.00208386
-0.00215099
-0.00220693
-0.00225167
-0.00228518
-0.00230742
-0.00231832
-0.00231783
-0.00230583
-0.00228223
-0.00224688
-0.00219959
-0.00214017
-0.00206839
-0.001984
-0.00188677
-0.00177641
-0.00165263
-0.00151511
-0.00136351
-0.00119746
-0.00101656
-0.00082042
-0.000608618
-0.000380727
-0.0001363
0.000125134
0.000404066
0.000701023
0.00101656
0.00135124
0.00170564
0.00208036
0.00247602
0.00289325
0.00333272
0.00379512
0.00428117
0.00479162
0.00532723
0.00588881
0.00647718
0.0070932
0.00773774
0.00841171
0.00911607
0.00985179
0.0106199
0.0114214
0.0122573
0.0131288
0.014037
0.0149829
0.0159678
0.0169929
0.0180592
0.019168
0.0203206
0.0215181
0.0227617
0.0240527
0.0253924
0.0267818
0.0282221
0.0297146
0.0312601
0.0328598
0.0345146
0.0362254
0.0379928
0.0398176
0.0417002
0.0436411
0.0456403
0.0476978
0.0498135
0.0519868
0.0542169
0.0565029
0.0588435
0.0612368
0.063681
0.0661735
0.0687115
0.0712918
0.0739107
0.0765639
0.0792469
0.0819545
0.0846812
0.0874207
0.0901666
0.0929119
0.0956489
0.09837
0.101067
0.103731
0.106353
0.108924
0.111435
0.113877
0.116241
0.118517
0.120696
0.122771
0.124733
0.126575
0.128289
0.129871
0.131315
0.132617
0.133775
0.134785
0.135649
0.136366
0.136939
0.13737
0.137664
0.137827
0.137865
0.137785
0.137596
0.137307
0.136927
0.136466
0.135933
0.135338
0.13469
0.133998
0.133268
0.132507
0.131724
0.130929
0.130053
0.129037
0.00342553
0.00302743
0.00268507
0.0023746
0.00206954
0.00177186
0.00148382
0.00120566
0.000937606
0.000680019
0.00043324
0.000197556
-2.68111e-05
-0.000239689
-0.000440944
-0.000630482
-0.000808266
-0.000974309
-0.00112866
-0.00127141
-0.00140265
-0.00152248
-0.00163098
-0.00172825
-0.00181439
-0.00188948
-0.00195359
-0.00200677
-0.00204902
-0.00208033
-0.00210066
-0.00210995
-0.00210813
-0.00209511
-0.00207074
-0.00203488
-0.00198733
-0.00192787
-0.00185626
-0.00177226
-0.00167561
-0.00156603
-0.0014432
-0.00130679
-0.00115645
-0.000991807
-0.000812468
-0.000618036
-0.000408098
-0.000182231
6.00073e-05
0.000319079
0.000595471
0.000889694
0.00120228
0.00153377
0.00188473
0.00225573
0.00264736
0.00306022
0.00349497
0.00395225
0.00443277
0.00493722
0.00546634
0.00602091
0.00660169
0.00720952
0.00784523
0.00850969
0.00920381
0.00992854
0.0106848
0.0114737
0.0122961
0.0131532
0.014046
0.0149756
0.0159432
0.0169498
0.0179968
0.0190851
0.0202161
0.021391
0.0226109
0.0238771
0.0251909
0.0265534
0.0279659
0.0294295
0.0309453
0.0325144
0.0341378
0.0358165
0.0375512
0.0393427
0.0411917
0.0430986
0.0450637
0.0470872
0.0491689
0.0513086
0.0535056
0.0557591
0.0580681
0.0604309
0.0628458
0.0653105
0.0678224
0.0703785
0.0729752
0.0756086
0.0782742
0.080967
0.0836817
0.0864123
0.0891524
0.091895
0.0946327
0.0973577
0.100062
0.102736
0.105372
0.107961
0.110492
0.112957
0.115347
0.117651
0.119861
0.121969
0.123965
0.125842
0.127592
0.12921
0.13069
0.132028
0.13322
0.134263
0.135158
0.135904
0.136503
0.136957
0.13727
0.137448
0.137497
0.137424
0.137237
0.136944
0.136555
0.136079
0.135526
0.134904
0.134222
0.13349
0.132713
0.131898
0.131055
0.130193
0.129239
0.128126
0.00380991
0.0033629
0.0029825
0.00264166
0.00231011
0.00198971
0.00168264
0.00138881
0.00110811
0.00084058
0.00058624
0.000345066
0.000117
-9.80357e-05
-0.000300146
-0.00048947
-0.000666182
-0.000830485
-0.000982599
-0.00112274
-0.00125113
-0.00136796
-0.00147342
-0.00156768
-0.00165092
-0.00172328
-0.00178485
-0.0018357
-0.00187587
-0.00190536
-0.00192414
-0.00193216
-0.00192934
-0.00191558
-0.00189073
-0.00185464
-0.00180708
-0.00174783
-0.00167665
-0.00159329
-0.00149748
-0.00138893
-0.00126731
-0.00113227
-0.000983466
-0.000820515
-0.000643035
-0.000450629
-0.000242889
-1.93974e-05
0.000220278
0.000476594
0.000750028
0.00104107
0.00135023
0.00167803
0.002025
0.00239169
0.00277867
0.00318652
0.00361584
0.00406727
0.00454146
0.00503908
0.00556084
0.00610746
0.00667968
0.00727828
0.00790406
0.00855787
0.00924055
0.00995302
0.0106962
0.0114711
0.0122786
0.0131198
0.0139957
0.0149074
0.015856
0.0168426
0.0178684
0.0189345
0.0200421
0.0211925
0.0223869
0.0236265
0.0249125
0.0262463
0.0276289
0.0290618
0.030546
0.0320826
0.0336728
0.0353176
0.0370178
0.0387745
0.0405882
0.0424596
0.0443893
0.0463773
0.0484239
0.0505289
0.0526919
0.0549123
0.057189
0.059521
0.0619064
0.0643434
0.0668294
0.0693618
0.0719371
0.0745516
0.0772011
0.0798808
0.0825855
0.0853093
0.088046
0.0907887
0.0935301
0.0962625
0.0989777
0.101667
0.104321
0.106932
0.109488
0.111982
0.114403
0.116741
0.118988
0.121133
0.123169
0.125087
0.12688
0.12854
0.130062
0.131441
0.132672
0.133754
0.134685
0.135464
0.136092
0.136572
0.136907
0.137103
0.137164
0.137098
0.136913
0.136616
0.136217
0.135725
0.135149
0.134498
0.133781
0.133007
0.132182
0.131312
0.130409
0.129482
0.128451
0.127245
0.00418035
0.00368467
0.0032662
0.00289474
0.00253626
0.00219257
0.00186582
0.00155558
0.00126143
0.000983098
0.000720304
0.000472736
0.000240079
2.20042e-05
-0.000181836
-0.00037181
-0.000548293
-0.000711671
-0.000862319
-0.00100059
-0.00112682
-0.0012413
-0.00134433
-0.00143618
-0.00151708
-0.00158721
-0.00164672
-0.0016957
-0.0017342
-0.00176226
-0.00177985
-0.00178694
-0.00178344
-0.00176925
-0.0017442
-0.00170813
-0.00166083
-0.00160205
-0.00153155
-0.00144907
-0.00135433
-0.00124705
-0.00112687
-0.000993445
-0.000846418
-0.000685417
-0.000510063
-0.000319964
-0.00011472
0.000106081
0.000342865
0.000596075
0.000866175
0.00115364
0.00145894
0.00178258
0.00212507
0.00248693
0.0028687
0.00327093
0.00369418
0.00413907
0.00460619
0.00509621
0.00560978
0.00614757
0.00671029
0.00729868
0.00791351
0.00855556
0.00922567
0.00992468
0.0106535
0.011413
0.0122042
0.0130281
0.0138856
0.0147779
0.0157059
0.0166709
0.0176738
0.018716
0.0197985
0.0209226
0.0220896
0.0233007
0.0245571
0.0258602
0.0272112
0.0286114
0.0300621
0.0315644
0.0331195
0.0347285
0.0363925
0.0381125
0.0398893
0.0417237
0.0436163
0.0455676
0.0475777
0.0496468
0.0517747
0.0539609
0.0562047
0.058505
0.0608606
0.0632695
0.0657297
0.0682384
0.0707927
0.0733891
0.0760234
0.0786911
0.0813871
0.084106
0.0868413
0.0895866
0.0923345
0.0950773
0.0978069
0.100515
0.103191
0.105828
0.108414
0.110941
0.113399
0.115776
0.118065
0.120255
0.122337
0.124302
0.126142
0.127851
0.129421
0.130846
0.132124
0.133249
0.13422
0.135037
0.135699
0.136209
0.13657
0.136785
0.136861
0.136804
0.136621
0.136321
0.135912
0.135403
0.134804
0.134124
0.133371
0.132553
0.13168
0.130755
0.129792
0.1288
0.127694
0.126399
0.00453218
0.00398816
0.0035317
0.00312949
0.00274381
0.00237645
0.00202953
0.00170233
0.00139409
0.00110426
0.000832284
0.000577586
0.000339589
0.000117713
-8.86272e-05
-0.000280016
-0.000457026
-0.000620213
-0.000770098
-0.000907167
-0.00103187
-0.00114463
-0.00124584
-0.00133585
-0.00141493
-0.00148334
-0.00154125
-0.00158879
-0.00162604
-0.00165306
-0.00166983
-0.00167633
-0.00167247
-0.00165814
-0.00163317
-0.00159738
-0.00155057
-0.00149249
-0.0014229
-0.00134153
-0.00124809
-0.00114227
-0.00102374
-0.000892138
-0.000747103
-0.000588271
-0.000415269
-0.000227717
-2.52209e-05
0.000192624
0.000426234
0.000676039
0.000942479
0.00122601
0.00152708
0.00184615
0.00218372
0.00254028
0.00291633
0.00331239
0.003729
0.00416672
0.00462612
0.00510781
0.00561241
0.00614056
0.00669292
0.00727019
0.00787307
0.00850234
0.00915878
0.00984319
0.0105564
0.0112994
0.012073
0.0128781
0.0137159
0.0145872
0.0154932
0.0164348
0.0174134
0.0184299
0.0194856
0.0205817
0.0217194
0.0229002
0.0241251
0.0253957
0.0267131
0.0280788
0.029494
0.0309601
0.0324782
0.0340497
0.0356756
0.0373572
0.0390953
0.0408909
0.0427449
0.0446577
0.0466299
0.0486617
0.0507532
0.0529041
0.0551139
0.0573819
0.0597068
0.0620872
0.0645211
0.0670061
0.0695395
0.0721179
0.0747375
0.077394
0.0800826
0.0827977
0.0855334
0.0882832
0.0910398
0.0937957
0.0965426
0.099272
0.101975
0.104641
0.107262
0.109827
0.112326
0.114748
0.117084
0.119324
0.121458
0.123476
0.125371
0.127134
0.128758
0.130237
0.131565
0.13274
0.133758
0.134617
0.135318
0.135862
0.136252
0.136491
0.136584
0.136538
0.13636
0.136057
0.135639
0.135114
0.134492
0.133782
0.132992
0.132132
0.131209
0.130229
0.129206
0.128151
0.126973
0.125591
0.00486097
0.00426896
0.00377466
0.0033417
0.00292869
0.00253741
0.00216998
0.00182539
0.00150258
0.00120071
0.000918983
0.000656554
0.000412588
0.000186256
-2.32518e-05
-0.000216727
-0.000394931
-0.000558576
-0.000708328
-0.000844805
-0.00096859
-0.00108022
-0.00118017
-0.00126887
-0.00134665
-0.0014138
-0.00147057
-0.00151709
-0.0015535
-0.00157985
-0.00159616
-0.00160239
-0.00159846
-0.00158427
-0.00155963
-0.00152437
-0.00147828
-0.00142112
-0.00135264
-0.00127257
-0.00118061
-0.00107643
-0.000959711
-0.000830095
-0.000687224
-0.000530736
-0.000360268
-0.000175452
2.40967e-05
0.000238774
0.000468986
0.000715142
0.000977657
0.00125696
0.00155347
0.00186765
0.00219993
0.00255077
0.00292066
0.00331008
0.00371952
0.00414951
0.00460059
0.0050733
0.00556824
0.006086