/*--------------------------------*- C++ -*----------------------------------*\
  =========                 |
  \\      /  F ield         | OpenFOAM: The Open Source CFD Toolbox
   \\    /   O peration     | Website:  https://openfoam.org
    \\  /    A nd           | Version:  7
     \\/     M anipulation  |
\*---------------------------------------------------------------------------*/
FoamFile
{
    version     2.0;
    format      ascii;
    class       surfaceScalarField;
    location    "0.2875";
    object      phi;
}
// * * * * * * * * * * * * * * * * * * * * * * * * * * * * * * * * * * * * * //

dimensions      [0 3 -1 0 0 0 0];

internalField   nonuniform List<scalar> 
25360
(
5.25723e-11
-5.25906e-11
1.94847e-10
-1.42268e-10
3.62502e-10
-1.67659e-10
5.07682e-10
-1.45173e-10
6.02135e-10
-9.44555e-11
6.29908e-10
-2.77748e-11
5.82852e-10
4.70535e-11
4.57881e-10
1.24978e-10
2.55132e-10
2.02745e-10
-2.31422e-11
2.78277e-10
-3.73373e-10
3.5023e-10
-7.91167e-10
4.17792e-10
-1.27164e-09
4.80478e-10
-1.80969e-09
5.38052e-10
-2.40016e-09
5.90467e-10
-3.03795e-09
6.37796e-10
-3.71815e-09
6.80197e-10
-4.43606e-09
7.17905e-10
-5.18725e-09
7.51195e-10
-5.96762e-09
7.80366e-10
-6.77336e-09
8.05738e-10
-7.601e-09
8.27639e-10
-8.44741e-09
8.464e-10
-9.30976e-09
8.62351e-10
-1.01856e-08
8.75803e-10
-1.10726e-08
8.87047e-10
-1.1969e-08
8.96374e-10
-1.2873e-08
9.04057e-10
-1.37834e-08
9.10346e-10
-1.46989e-08
9.15471e-10
-1.56185e-08
9.19651e-10
-1.65416e-08
9.2308e-10
-1.74675e-08
9.25931e-10
-1.83959e-08
9.28369e-10
-1.93264e-08
9.30543e-10
-2.0259e-08
9.32579e-10
-2.11936e-08
9.3459e-10
-2.21303e-08
9.36679e-10
-2.30692e-08
9.38932e-10
-2.40106e-08
9.41425e-10
-2.49549e-08
9.44229e-10
-2.59023e-08
9.47402e-10
-2.68533e-08
9.50993e-10
-2.78083e-08
9.55044e-10
-2.87679e-08
9.59587e-10
-2.97325e-08
9.64652e-10
-3.07028e-08
9.70258e-10
-3.16792e-08
9.76425e-10
-3.26624e-08
9.83166e-10
-3.36529e-08
9.90493e-10
-3.46513e-08
9.98411e-10
-3.56582e-08
1.00692e-09
-3.66742e-08
1.01601e-09
-3.76999e-08
1.02568e-09
-3.87358e-08
1.03593e-09
-3.97826e-08
1.04673e-09
-4.08406e-08
1.05808e-09
-4.19106e-08
1.06994e-09
-4.29929e-08
1.0823e-09
-4.4088e-08
1.09512e-09
-4.51964e-08
1.10838e-09
-4.63184e-08
1.12204e-09
-4.74545e-08
1.13605e-09
-4.86049e-08
1.15037e-09
-4.97698e-08
1.16494e-09
-5.09495e-08
1.17972e-09
-5.21441e-08
1.19463e-09
-5.33537e-08
1.20961e-09
-5.45783e-08
1.22457e-09
-5.58178e-08
1.23945e-09
-5.70719e-08
1.25414e-09
-5.83405e-08
1.26855e-09
-5.9623e-08
1.28257e-09
-6.09191e-08
1.2961e-09
-6.22281e-08
1.309e-09
-6.35493e-08
1.32116e-09
-6.48817e-08
1.33242e-09
-6.62244e-08
1.34265e-09
-6.7576e-08
1.35169e-09
-6.89354e-08
1.35938e-09
-7.03009e-08
1.36552e-09
-7.16709e-08
1.36995e-09
-7.30434e-08
1.37247e-09
-7.44162e-08
1.37287e-09
-7.57872e-08
1.37095e-09
-7.71537e-08
1.36647e-09
-7.85129e-08
1.35922e-09
-7.98618e-08
1.34895e-09
-8.11972e-08
1.33542e-09
-8.25156e-08
1.3184e-09
-8.38133e-08
1.29762e-09
-8.50861e-08
1.27282e-09
-8.63298e-08
1.24376e-09
-8.754e-08
1.21018e-09
-8.87118e-08
1.17181e-09
-8.98402e-08
1.12841e-09
-9.092e-08
1.07973e-09
-9.19455e-08
1.02554e-09
-9.29111e-08
9.6561e-10
-9.38109e-08
8.99731e-10
-9.46386e-08
8.27713e-10
-9.5388e-08
7.49387e-10
-9.60526e-08
6.64612e-10
-9.66259e-08
5.73277e-10
-9.71012e-08
4.75304e-10
-9.74718e-08
3.70658e-10
-9.77312e-08
2.59345e-10
-9.78726e-08
1.41419e-10
-9.78896e-08
1.69923e-11
-9.77758e-08
-1.13777e-10
-9.75251e-08
-2.50651e-10
-9.71318e-08
-3.93339e-10
-9.65903e-08
-5.41473e-10
-9.58957e-08
-6.94614e-10
-9.50435e-08
-8.52242e-10
-9.40297e-08
-1.01376e-09
-9.28512e-08
-1.17849e-09
-9.15055e-08
-1.34567e-09
-8.99911e-08
-1.51446e-09
-8.83071e-08
-1.68393e-09
-8.64541e-08
-1.85309e-09
-8.44332e-08
-2.02085e-09
-8.22471e-08
-2.18607e-09
-7.98996e-08
-2.34755e-09
-7.73956e-08
-2.50402e-09
-7.47414e-08
-2.65419e-09
-7.19447e-08
-2.79673e-09
-6.90144e-08
-2.93028e-09
-6.59609e-08
-3.05349e-09
-6.27959e-08
-3.16501e-09
-5.95324e-08
-3.26352e-09
-5.61846e-08
-3.34775e-09
-5.27681e-08
-3.41648e-09
-4.92995e-08
-3.46858e-09
-4.57965e-08
-3.503e-09
-4.22777e-08
-3.51882e-09
-3.87625e-08
-3.51522e-09
-3.52709e-08
-3.49155e-09
-3.18236e-08
-3.44729e-09
-2.84416e-08
-3.38208e-09
-2.51458e-08
-3.29575e-09
-2.19576e-08
-3.18826e-09
-1.88978e-08
-3.0598e-09
-1.59871e-08
-2.91069e-09
-1.32456e-08
-2.74146e-09
-1.06928e-08
-2.55282e-09
-8.34714e-09
-2.34564e-09
-6.22611e-09
-2.12103e-09
-4.34582e-09
-1.88029e-09
-2.72077e-09
-1.62505e-09
-1.36345e-09
-1.35732e-09
-2.8373e-10
-1.07971e-09
5.1206e-10
-7.95791e-10
1.02273e-09
-5.10666e-10
1.25486e-09
-2.32137e-10
1.22762e-09
2.72407e-11
9.80816e-10
2.46805e-10
5.89275e-10
3.91539e-10
1.90088e-10
3.99183e-10
1.90083e-10
1.42495e-10
-1.95081e-10
4.09253e-10
-4.09034e-10
6.89893e-10
-4.48306e-10
9.01407e-10
-3.56691e-10
9.84822e-10
-1.77875e-10
9.01816e-10
5.52282e-11
6.29826e-10
3.19052e-10
1.57772e-10
5.97022e-10
-5.17132e-10
8.77654e-10
-1.39191e-09
1.15306e-09
-2.45957e-09
1.41788e-09
-3.71038e-09
1.66861e-09
-5.1329e-09
1.90299e-09
-6.71466e-09
2.11981e-09
-8.44269e-09
2.3185e-09
-1.03039e-08
2.49905e-09
-1.22856e-08
2.66183e-09
-1.43752e-08
2.80749e-09
-1.65608e-08
2.93688e-09
-1.88315e-08
3.05101e-09
-2.11767e-08
3.15096e-09
-2.35869e-08
3.23785e-09
-2.60534e-08
3.31286e-09
-2.85682e-08
3.37715e-09
-3.11242e-08
3.43184e-09
-3.37152e-08
3.47803e-09
-3.63356e-08
3.51678e-09
-3.89806e-08
3.54908e-09
-4.16461e-08
3.57586e-09
-4.43287e-08
3.59802e-09
-4.70254e-08
3.61634e-09
-4.97339e-08
3.63158e-09
-5.24524e-08
3.64441e-09
-5.51794e-08
3.65545e-09
-5.79142e-08
3.66527e-09
-6.06559e-08
3.67435e-09
-6.34045e-08
3.68314e-09
-6.61598e-08
3.69205e-09
-6.89223e-08
3.70143e-09
-7.16925e-08
3.71157e-09
-7.4471e-08
3.72275e-09
-7.72588e-08
3.7352e-09
-8.00569e-08
3.74912e-09
-8.28665e-08
3.76467e-09
-8.5689e-08
3.782e-09
-8.85255e-08
3.80123e-09
-9.13777e-08
3.82244e-09
-9.4247e-08
3.84572e-09
-9.7135e-08
3.87111e-09
-1.00043e-07
3.89865e-09
-1.02973e-07
3.92837e-09
-1.05926e-07
3.96026e-09
-1.08905e-07
3.99432e-09
-1.1191e-07
4.03052e-09
-1.14942e-07
4.06883e-09
-1.18005e-07
4.10919e-09
-1.21098e-07
4.15153e-09
-1.24224e-07
4.19576e-09
-1.27384e-07
4.24179e-09
-1.30578e-07
4.28949e-09
-1.33808e-07
4.33874e-09
-1.37076e-07
4.38939e-09
-1.40381e-07
4.44126e-09
-1.43725e-07
4.49418e-09
-1.47108e-07
4.54792e-09
-1.5053e-07
4.60226e-09
-1.53993e-07
4.65694e-09
-1.57495e-07
4.7117e-09
-1.61036e-07
4.76622e-09
-1.64617e-07
4.82017e-09
-1.68236e-07
4.87321e-09
-1.71893e-07
4.92495e-09
-1.75585e-07
4.97497e-09
-1.79312e-07
5.02284e-09
-1.83071e-07
5.06807e-09
-1.8686e-07
5.11016e-09
-1.90676e-07
5.14858e-09
-1.94516e-07
5.18275e-09
-1.98376e-07
5.21207e-09
-2.02253e-07
5.23589e-09
-2.06141e-07
5.25354e-09
-2.10035e-07
5.26432e-09
-2.1393e-07
5.26748e-09
-2.1782e-07
5.26224e-09
-2.21697e-07
5.24781e-09
-2.25553e-07
5.22334e-09
-2.29382e-07
5.18797e-09
-2.33174e-07
5.14082e-09
-2.3692e-07
5.08098e-09
-2.40609e-07
5.00753e-09
-2.44231e-07
4.91952e-09
-2.47774e-07
4.81601e-09
-2.51226e-07
4.69606e-09
-2.54575e-07
4.55871e-09
-2.57806e-07
4.40303e-09
-2.60906e-07
4.22812e-09
-2.63859e-07
4.03309e-09
-2.66651e-07
3.8171e-09
-2.69264e-07
3.57934e-09
-2.71684e-07
3.3191e-09
-2.73892e-07
3.03571e-09
-2.75871e-07
2.72861e-09
-2.77604e-07
2.39733e-09
-2.79072e-07
2.04153e-09
-2.80258e-07
1.661e-09
-2.81143e-07
1.25567e-09
-2.81709e-07
8.25657e-10
-2.81939e-07
3.71248e-10
-2.81815e-07
-1.07064e-10
-2.8132e-07
-6.08574e-10
-2.80438e-07
-1.13234e-09
-2.79154e-07
-1.67717e-09
-2.77454e-07
-2.24163e-09
-2.75325e-07
-2.82399e-09
-2.72755e-07
-3.42225e-09
-2.69734e-07
-4.03411e-09
-2.66256e-07
-4.65698e-09
-2.62314e-07
-5.28799e-09
-2.57904e-07
-5.92394e-09
-2.53027e-07
-6.56137e-09
-2.47683e-07
-7.19653e-09
-2.41879e-07
-7.82543e-09
-2.35621e-07
-8.44381e-09
-2.28921e-07
-9.04721e-09
-2.21794e-07
-9.63099e-09
-2.14258e-07
-1.01904e-08
-2.06334e-07
-1.07204e-08
-1.98048e-07
-1.12162e-08
-1.89429e-07
-1.16728e-08
-1.80509e-07
-1.20852e-08
-1.71324e-07
-1.24487e-08
-1.61913e-07
-1.27586e-08
-1.52319e-07
-1.30105e-08
-1.42587e-07
-1.32002e-08
-1.32766e-07
-1.33241e-08
-1.22906e-07
-1.33787e-08
-1.13061e-07
-1.33611e-08
-1.03283e-07
-1.32689e-08
-9.36301e-08
-1.31004e-08
-8.4158e-08
-1.28542e-08
-7.4924e-08
-1.25298e-08
-6.59851e-08
-1.21272e-08
-5.73978e-08
-1.16471e-08
-4.92174e-08
-1.10911e-08
-4.14977e-08
-1.04611e-08
-3.42903e-08
-9.76022e-09
-2.7644e-08
-8.99203e-09
-2.16038e-08
-8.16114e-09
-1.62109e-08
-7.27322e-09
-1.15008e-08
-6.3352e-09
-7.50226e-09
-5.35583e-09
-4.23564e-09
-4.34634e-09
-1.70978e-09
-3.32165e-09
8.19271e-11
-2.30237e-09
1.16776e-09
-1.31797e-09
1.6066e-09
-4.11601e-10
1.50141e-09
3.52006e-10
1.01679e-09
8.76169e-10
3.97623e-10
1.01836e-09
5.87702e-10
1.68792e-10
-3.63876e-10
4.50676e-10
-6.90916e-10
7.05838e-10
-7.0347e-10
8.33766e-10
-4.84612e-10
7.6075e-10
-1.04869e-10
4.3615e-10
3.79832e-10
-1.71858e-10
9.27053e-10
-1.08033e-09
1.5055e-09
-2.29511e-09
2.09243e-09
-3.81364e-09
2.67158e-09
-5.62725e-09
3.2315e-09
-7.72295e-09
3.76431e-09
-1.00848e-08
4.26485e-09
-1.2695e-08
4.73001e-09
-1.55347e-08
5.15819e-09
-1.85846e-08
5.54896e-09
-2.18255e-08
5.90278e-09
-2.52388e-08
6.22073e-09
-2.88063e-08
6.5044e-09
-3.2511e-08
6.7557e-09
-3.63368e-08
6.97677e-09
-4.02689e-08
7.1699e-09
-4.42935e-08
7.33746e-09
-4.83982e-08
7.48184e-09
-5.25717e-08
7.60537e-09
-5.6804e-08
7.71037e-09
-6.10863e-08
7.79904e-09
-6.54107e-08
7.8735e-09
-6.97706e-08
7.93574e-09
-7.41602e-08
7.98762e-09
-7.85748e-08
8.03089e-09
-8.30103e-08
8.06713e-09
-8.74637e-08
8.09783e-09
-9.19326e-08
8.12433e-09
-9.64152e-08
8.14784e-09
-1.0091e-07
8.16946e-09
-1.05417e-07
8.19017e-09
-1.09936e-07
8.21083e-09
-1.14467e-07
8.23224e-09
-1.1901e-07
8.25506e-09
-1.23568e-07
8.27991e-09
-1.2814e-07
8.3073e-09
-1.32728e-07
8.33767e-09
-1.37335e-07
8.3714e-09
-1.41962e-07
8.40882e-09
-1.46611e-07
8.45018e-09
-1.51284e-07
8.49571e-09
-1.55984e-07
8.54557e-09
-1.60713e-07
8.59989e-09
-1.65473e-07
8.65874e-09
-1.70267e-07
8.72219e-09
-1.75097e-07
8.79024e-09
-1.79965e-07
8.86287e-09
-1.84875e-07
8.94001e-09
-1.89827e-07
9.02158e-09
-1.94826e-07
9.10746e-09
-1.99872e-07
9.19749e-09
-2.04967e-07
9.29148e-09
-2.10115e-07
9.3892e-09
-2.15316e-07
9.49038e-09
-2.20572e-07
9.59473e-09
-2.25884e-07
9.7019e-09
-2.31254e-07
9.81152e-09
-2.36683e-07
9.92315e-09
-2.42172e-07
1.00363e-08
-2.4772e-07
1.01505e-08
-2.53328e-07
1.02652e-08
-2.58996e-07
1.03797e-08
-2.64723e-07
1.04934e-08
-2.70509e-07
1.06055e-08
-2.76351e-07
1.07152e-08
-2.82247e-07
1.08217e-08
-2.88197e-07
1.09241e-08
-2.94195e-07
1.10214e-08
-3.0024e-07
1.11126e-08
-3.06326e-07
1.11964e-08
-3.12449e-07
1.12719e-08
-3.18604e-07
1.13376e-08
-3.24784e-07
1.13923e-08
-3.30983e-07
1.14345e-08
-3.37192e-07
1.14629e-08
-3.43404e-07
1.14758e-08
-3.49608e-07
1.14717e-08
-3.55795e-07
1.14489e-08
-3.61952e-07
1.14056e-08
-3.68069e-07
1.134e-08
-3.74131e-07
1.12503e-08
-3.80125e-07
1.11346e-08
-3.86035e-07
1.0991e-08
-3.91845e-07
1.08174e-08
-3.97537e-07
1.0612e-08
-4.03094e-07
1.03726e-08
-4.08495e-07
1.00973e-08
-4.13721e-07
9.78415e-09
-4.18749e-07
9.43113e-09
-4.23557e-07
9.03637e-09
-4.28122e-07
8.59804e-09
-4.32419e-07
8.11441e-09
-4.36424e-07
7.58386e-09
-4.4011e-07
7.00492e-09
-4.4345e-07
6.37627e-09
-4.46419e-07
5.6968e-09
-4.48987e-07
4.96565e-09
-4.51127e-07
4.18218e-09
-4.52813e-07
3.34608e-09
-4.54014e-07
2.45734e-09
-4.54705e-07
1.51631e-09
-4.54857e-07
5.23765e-10
-4.54445e-07
-5.19123e-10
-4.53443e-07
-1.61071e-09
-4.51827e-07
-2.74884e-09
-4.49573e-07
-3.93087e-09
-4.46661e-07
-5.15358e-09
-4.43072e-07
-6.41318e-09
-4.38789e-07
-7.70529e-09
-4.33798e-07
-9.02493e-09
-4.28088e-07
-1.03665e-08
-4.21653e-07
-1.17238e-08
-4.14487e-07
-1.309e-08
-4.0659e-07
-1.44576e-08
-3.97968e-07
-1.58188e-08
-3.88629e-07
-1.71649e-08
-3.78586e-07
-1.84869e-08
-3.67857e-07
-1.97755e-08
-3.56468e-07
-2.10208e-08
-3.44445e-07
-2.22127e-08
-3.31825e-07
-2.33408e-08
-3.18646e-07
-2.43949e-08
-3.04955e-07
-2.53644e-08
-2.90801e-07
-2.6239e-08
-2.76241e-07
-2.70086e-08
-2.61336e-07
-2.76637e-08
-2.46151e-07
-2.81948e-08
-2.30758e-07
-2.85934e-08
-2.15231e-07
-2.88516e-08
-1.99647e-07
-2.89625e-08
-1.84088e-07
-2.89198e-08
-1.68638e-07
-2.87188e-08
-1.53383e-07
-2.83557e-08
-1.38409e-07
-2.78279e-08
-1.23805e-07
-2.71343e-08
-1.09657e-07
-2.62752e-08
-9.60515e-08
-2.52523e-08
-8.30736e-08
-2.4069e-08
-7.08046e-08
-2.27301e-08
-5.93226e-08
-2.12422e-08
-4.87008e-08
-1.96138e-08
-3.90065e-08
-1.78554e-08
-3.02997e-08
-1.598e-08
-2.26314e-08
-1.40035e-08
-1.60414e-08
-1.19459e-08
-1.05551e-08
-9.83264e-09
-6.18011e-09
-7.69661e-09
-2.90063e-09
-5.58185e-09
-6.70179e-10
-3.54843e-09
5.98264e-10
-1.68005e-09
1.04492e-09
-9.46545e-11
8.77891e-10
1.04319e-09
3.89721e-10
1.50654e-09
9.77421e-10
1.47802e-10
-5.11677e-10
3.61669e-10
-9.04786e-10
4.89784e-10
-8.31595e-10
4.23557e-10
-4.18386e-10
8.31413e-11
2.35555e-10
-5.87555e-10
1.05052e-09
-1.62485e-09
1.96435e-09
-3.04905e-09
2.9297e-09
-4.86777e-09
3.91114e-09
-7.07868e-09
4.8825e-09
-9.67204e-09
5.82486e-09
-1.26326e-08
6.72482e-09
-1.5941e-08
7.57334e-09
-1.95757e-08
8.36466e-09
-2.35131e-08
9.09563e-09
-2.77292e-08
9.76504e-09
-3.21997e-08
1.03732e-08
-3.69006e-08
1.09216e-08
-4.18088e-08
1.14126e-08
-4.69022e-08
1.18491e-08
-5.216e-08
1.22345e-08
-5.75626e-08
1.25725e-08
-6.30921e-08
1.28669e-08
-6.8732e-08
1.31217e-08
-7.44672e-08
1.33406e-08
-8.02845e-08
1.35276e-08
-8.61718e-08
1.36864e-08
-9.21187e-08
1.38204e-08
-9.8116e-08
1.3933e-08
-1.04156e-07
1.40275e-08
-1.10232e-07
1.41067e-08
-1.16338e-07
1.41734e-08
-1.2247e-07
1.42301e-08
-1.28625e-07
1.42791e-08
-1.348e-07
1.43225e-08
-1.40992e-07
1.43622e-08
-1.47202e-07
1.43999e-08
-1.53428e-07
1.44372e-08
-1.59671e-07
1.44753e-08
-1.65932e-07
1.45154e-08
-1.72211e-07
1.45587e-08
-1.78509e-07
1.46061e-08
-1.8483e-07
1.46582e-08
-1.91175e-07
1.47159e-08
-1.97545e-07
1.47796e-08
-2.03945e-07
1.48499e-08
-2.10376e-07
1.49271e-08
-2.16842e-07
1.50115e-08
-2.23346e-07
1.51034e-08
-2.2989e-07
1.52028e-08
-2.36478e-07
1.531e-08
-2.43112e-07
1.54248e-08
-2.49797e-07
1.55473e-08
-2.56534e-07
1.56774e-08
-2.63328e-07
1.58149e-08
-2.7018e-07
1.59595e-08
-2.77093e-07
1.61111e-08
-2.84071e-07
1.62692e-08
-2.91115e-07
1.64335e-08
-2.98228e-07
1.66034e-08
-3.05412e-07
1.67784e-08
-3.12668e-07
1.6958e-08
-3.19998e-07
1.71415e-08
-3.27403e-07
1.7328e-08
-3.34883e-07
1.75168e-08
-3.4244e-07
1.77069e-08
-3.50072e-07
1.78973e-08
-3.57779e-07
1.8087e-08
-3.6556e-07
1.82747e-08
-3.73414e-07
1.84592e-08
-3.81338e-07
1.86391e-08
-3.89329e-07
1.88128e-08
-3.97384e-07
1.89788e-08
-4.05498e-07
1.91353e-08
-4.13666e-07
1.92806e-08
-4.21882e-07
1.94127e-08
-4.3014e-07
1.95296e-08
-4.38431e-07
1.9629e-08
-4.46747e-07
1.97086e-08
-4.55079e-07
1.97661e-08
-4.63415e-07
1.9799e-08
-4.71744e-07
1.98045e-08
-4.80052e-07
1.97799e-08
-4.88325e-07
1.97224e-08
-4.96549e-07
1.96289e-08
-5.04705e-07
1.94964e-08
-5.12777e-07
1.93218e-08
-5.20744e-07
1.91018e-08
-5.28586e-07
1.88332e-08
-5.36281e-07
1.85127e-08
-5.43806e-07
1.81368e-08
-5.51136e-07
1.77022e-08
-5.58244e-07
1.72056e-08
-5.65104e-07
1.66437e-08
-5.71686e-07
1.60132e-08
-5.7796e-07
1.53111e-08
-5.83897e-07
1.45342e-08
-5.89462e-07
1.36799e-08
-5.94624e-07
1.27453e-08
-5.99347e-07
1.17283e-08
-6.03597e-07
1.06267e-08
-6.07339e-07
9.43882e-09
-6.10537e-07
8.16331e-09
-6.13154e-07
6.79931e-09
-6.15155e-07
5.34646e-09
-6.16502e-07
3.80495e-09
-6.17161e-07
2.17557e-09
-6.17097e-07
4.59827e-10
-6.16277e-07
-1.34009e-09
-6.14666e-07
-3.22119e-09
-6.12235e-07
-5.17966e-09
-6.08955e-07
-7.2108e-09
-6.048e-07
-9.309e-09
-5.99745e-07
-1.14677e-08
-5.93771e-07
-1.36793e-08
-5.86861e-07
-1.59353e-08
-5.79001e-07
-1.82261e-08
-5.70184e-07
-2.05411e-08
-5.60405e-07
-2.28687e-08
-5.49667e-07
-2.51963e-08
-5.37975e-07
-2.75105e-08
-5.25343e-07
-2.97968e-08
-5.1179e-07
-3.20402e-08
-4.97341e-07
-3.42247e-08
-4.82028e-07
-3.63339e-08
-4.6589e-07
-3.83508e-08
-4.48972e-07
-4.02582e-08
-4.31328e-07
-4.20388e-08
-4.13018e-07
-4.3675e-08
-3.94107e-07
-4.51497e-08
-3.74669e-07
-4.64462e-08
-3.54785e-07
-4.75481e-08
-3.3454e-07
-4.84403e-08
-3.14025e-07
-4.91082e-08
-2.93337e-07
-4.95389e-08
-2.72579e-07
-4.97207e-08
-2.51856e-07
-4.96435e-08
-2.31275e-07
-4.92993e-08
-2.10949e-07
-4.86818e-08
-1.9099e-07
-4.7787e-08
-1.71511e-07
-4.66131e-08
-1.52625e-07
-4.5161e-08
-1.34444e-07
-4.34338e-08
-1.17075e-07
-4.14374e-08
-1.00625e-07
-3.91806e-08
-8.51921e-08
-3.6675e-08
-7.08702e-08
-3.39358e-08
-5.7744e-08
-3.09815e-08
-4.58887e-08
-2.78354e-08
-3.53666e-08
-2.45255e-08
-2.62254e-08
-2.10871e-08
-1.84942e-08
-1.75639e-08
-1.2179e-08
-1.40118e-08
-7.25755e-09
-1.05033e-08
-3.67204e-09
-7.13394e-09
-1.32036e-09
-4.03173e-09
-4.56018e-11
-1.3694e-09
3.76207e-10
6.21377e-10
2.50101e-10
1.63265e-09
1.22753e-09
9.79628e-11
-6.09639e-10
1.82732e-10
-9.89558e-10
1.06085e-10
-7.54956e-10
-2.40095e-10
-7.21966e-11
-9.35727e-10
9.31182e-10
-2.03743e-09
2.15223e-09
-3.58231e-09
3.50924e-09
-5.59134e-09
4.93872e-09
-8.07226e-09
6.39207e-09
-1.10223e-08
7.83257e-09
-1.44305e-08
9.23305e-09
-1.82796e-08
1.05739e-08
-2.25478e-08
1.18415e-08
-2.721e-08
1.30269e-08
-3.22394e-08
1.4125e-08
-3.76078e-08
1.51335e-08
-4.32868e-08
1.60523e-08
-4.92484e-08
1.68832e-08
-5.54649e-08
1.76292e-08
-6.19103e-08
1.82945e-08
-6.85594e-08
1.88836e-08
-7.53888e-08
1.9402e-08
-8.23769e-08
1.9855e-08
-8.95035e-08
2.02483e-08
-9.67505e-08
2.05876e-08
-1.04101e-07
2.08785e-08
-1.11541e-07
2.11264e-08
-1.19058e-07
2.13366e-08
-1.26639e-07
2.15141e-08
-1.34275e-07
2.16635e-08
-1.41958e-07
2.17894e-08
-1.4968e-07
2.18957e-08
-1.57436e-07
2.19862e-08
-1.65221e-07
2.20646e-08
-1.73033e-07
2.21339e-08
-1.80868e-07
2.21969e-08
-1.88724e-07
2.22564e-08
-1.96601e-07
2.23146e-08
-2.045e-07
2.23735e-08
-2.12419e-07
2.24351e-08
-2.20362e-07
2.2501e-08
-2.28328e-07
2.25725e-08
-2.36321e-07
2.26508e-08
-2.44342e-07
2.27371e-08
-2.52394e-07
2.28322e-08
-2.60481e-07
2.29368e-08
-2.68606e-07
2.30515e-08
-2.76771e-07
2.31769e-08
-2.84981e-07
2.33132e-08
-2.93239e-07
2.34607e-08
-3.01548e-07
2.36195e-08
-3.09913e-07
2.37897e-08
-3.18337e-07
2.39712e-08
-3.26823e-07
2.41638e-08
-3.35376e-07
2.43672e-08
-3.43997e-07
2.45812e-08
-3.52691e-07
2.48053e-08
-3.61461e-07
2.50389e-08
-3.70309e-07
2.52815e-08
-3.79238e-07
2.55322e-08
-3.8825e-07
2.57902e-08
-3.97346e-07
2.60546e-08
-4.06529e-07
2.63243e-08
-4.15799e-07
2.65981e-08
-4.25157e-07
2.68748e-08
-4.34603e-07
2.71528e-08
-4.44137e-07
2.74307e-08
-4.53756e-07
2.77067e-08
-4.63461e-07
2.7979e-08
-4.73247e-07
2.82456e-08
-4.83112e-07
2.85044e-08
-4.93053e-07
2.8753e-08
-5.03063e-07
2.89891e-08
-5.13137e-07
2.92099e-08
-5.23269e-07
2.94127e-08
-5.33451e-07
2.95946e-08
-5.43674e-07
2.97523e-08
-5.53928e-07
2.98825e-08
-5.64201e-07
2.99818e-08
-5.74481e-07
3.00466e-08
-5.84755e-07
3.00729e-08
-5.95007e-07
3.00568e-08
-6.05221e-07
2.9994e-08
-6.1538e-07
2.98804e-08
-6.25462e-07
2.97114e-08
-6.35448e-07
2.94824e-08
-6.45315e-07
2.91887e-08
-6.55038e-07
2.88255e-08
-6.64593e-07
2.8388e-08
-6.73952e-07
2.78712e-08
-6.83085e-07
2.72701e-08
-6.91963e-07
2.65798e-08
-7.00552e-07
2.57954e-08
-7.08821e-07
2.4912e-08
-7.16732e-07
2.39249e-08
-7.24251e-07
2.28295e-08
-7.31338e-07
2.16216e-08
-7.37955e-07
2.0297e-08
-7.44062e-07
1.8852e-08
-7.49617e-07
1.72833e-08
-7.54578e-07
1.55879e-08
-7.58903e-07
1.37637e-08
-7.62548e-07
1.18088e-08
-7.65471e-07
9.72211e-09
-7.67628e-07
7.50343e-09
-7.68976e-07
5.15328e-09
-7.69474e-07
2.67314e-09
-7.6908e-07
6.54811e-11
-7.67754e-07
-2.66614e-09
-7.65458e-07
-5.517e-09
-7.62156e-07
-8.48115e-09
-7.57816e-07
-1.15514e-08
-7.52406e-07
-1.4719e-08
-7.45899e-07
-1.79742e-08
-7.38273e-07
-2.13053e-08
-7.29509e-07
-2.46996e-08
-7.19592e-07
-2.81426e-08
-7.08515e-07
-3.16185e-08
-6.96274e-07
-3.51099e-08
-6.82872e-07
-3.85981e-08
-6.68319e-07
-4.20631e-08
-6.52632e-07
-4.54835e-08
-6.35836e-07
-4.88369e-08
-6.17961e-07
-5.20997e-08
-5.99047e-07
-5.52477e-08
-5.79142e-07
-5.82558e-08
-5.58301e-07
-6.10987e-08
-5.36589e-07
-6.37507e-08
-5.14078e-07
-6.61861e-08
-4.90848e-07
-6.83798e-08
-4.66987e-07
-7.0307e-08
-4.42592e-07
-7.19439e-08
-4.17764e-07
-7.3268e-08
-3.92614e-07
-7.42581e-08
-3.67258e-07
-7.48952e-08
-3.41816e-07
-7.51621e-08
-3.16416e-07
-7.50441e-08
-2.91186e-07
-7.45294e-08
-2.66258e-07
-7.36089e-08
-2.41769e-07
-7.22769e-08
-2.17851e-07
-7.05311e-08
-1.94639e-07
-6.83727e-08
-1.72266e-07
-6.5807e-08
-1.5086e-07
-6.28431e-08
-1.30546e-07
-5.94946e-08
-1.11441e-07
-5.57797e-08
-9.36556e-08
-5.17215e-08
-7.72883e-08
-4.73488e-08
-6.24266e-08
-4.26971e-08
-4.91424e-08
-3.78097e-08
-3.74899e-08
-3.27396e-08
-2.75016e-08
-2.75522e-08
-1.91841e-08
-2.23293e-08
-1.25127e-08
-1.71747e-08
-7.4255e-09
-1.22211e-08
-3.81629e-09
-7.64093e-09
-1.52653e-09
-3.65917e-09
-3.36749e-10
-5.68401e-10
4.39529e-11
1.25195e-09
1.27148e-09
3.06474e-11
-6.40285e-10
-5.63953e-11
-9.0252e-10
-3.95597e-10
-4.15747e-10
-1.08775e-09
6.19948e-10
-2.20786e-09
2.0513e-09
-3.80929e-09
3.75365e-09
-5.92689e-09
5.62684e-09
-8.57997e-09
7.59181e-09
-1.17749e-08
9.58697e-09
-1.55073e-08
1.1565e-08
-1.97645e-08
1.34903e-08
-2.45273e-08
1.53366e-08
-2.97713e-08
1.70855e-08
-3.54688e-08
1.87245e-08
-4.15898e-08
2.0246e-08
-4.81029e-08
2.16466e-08
-5.49763e-08
2.29256e-08
-6.21782e-08
2.40851e-08
-6.96777e-08
2.51287e-08
-7.74449e-08
2.60616e-08
-8.54512e-08
2.689e-08
-9.36699e-08
2.76207e-08
-1.02076e-07
2.82611e-08
-1.10646e-07
2.88187e-08
-1.1936e-07
2.93011e-08
-1.28197e-07
2.9716e-08
-1.37142e-07
3.00708e-08
-1.46178e-07
3.03726e-08
-1.55292e-07
3.06282e-08
-1.64472e-07
3.08441e-08
-1.73709e-07
3.10264e-08
-1.82994e-07
3.11808e-08
-1.92321e-07
3.13125e-08
-2.01682e-07
3.14264e-08
-2.11075e-07
3.15268e-08
-2.20496e-07
3.16179e-08
-2.29943e-07
3.17032e-08
-2.39415e-07
3.1786e-08
-2.4891e-07
3.18692e-08
-2.58431e-07
3.19555e-08
-2.67977e-07
3.2047e-08
-2.7755e-07
3.21458e-08
-2.87153e-07
3.22537e-08
-2.96788e-07
3.2372e-08
-3.06458e-07
3.25022e-08
-3.16166e-07
3.26451e-08
-3.25916e-07
3.28018e-08
-3.35712e-07
3.29728e-08
-3.45558e-07
3.31587e-08
-3.55457e-07
3.33597e-08
-3.65413e-07
3.35762e-08
-3.75432e-07
3.38081e-08
-3.85516e-07
3.40553e-08
-3.9567e-07
3.43176e-08
-4.05897e-07
3.45947e-08
-4.16202e-07
3.4886e-08
-4.26588e-07
3.51909e-08
-4.37057e-07
3.55086e-08
-4.47614e-07
3.58381e-08
-4.5826e-07
3.61785e-08
-4.68999e-07
3.65285e-08
-4.79831e-07
3.68867e-08
-4.90758e-07
3.72516e-08
-5.01782e-07
3.76216e-08
-5.12901e-07
3.79946e-08
-5.24117e-07
3.83688e-08
-5.35429e-07
3.87418e-08
-5.46833e-07
3.91113e-08
-5.58329e-07
3.94747e-08
-5.69912e-07
3.9829e-08
-5.81579e-07
4.01712e-08
-5.93324e-07
4.04982e-08
-6.05142e-07
4.08064e-08
-6.17024e-07
4.10921e-08
-6.28962e-07
4.13514e-08
-6.40948e-07
4.158e-08
-6.52969e-07
4.17736e-08
-6.65014e-07
4.19276e-08
-6.77069e-07
4.2037e-08
-6.8912e-07
4.20967e-08
-7.01148e-07
4.21014e-08
-7.13137e-07
4.20454e-08
-7.25066e-07
4.19231e-08
-7.36914e-07
4.17284e-08
-7.48658e-07
4.14552e-08
-7.60272e-07
4.1097e-08
-7.71731e-07
4.06475e-08
-7.83006e-07
4.00999e-08
-7.94065e-07
3.94477e-08
-8.04878e-07
3.86841e-08
-8.1541e-07
3.78022e-08
-8.25626e-07
3.67955e-08
-8.35488e-07
3.56571e-08
-8.44956e-07
3.43805e-08
-8.53991e-07
3.29595e-08
-8.62549e-07
3.13878e-08
-8.70587e-07
2.96598e-08
-8.7806e-07
2.777e-08
-8.84922e-07
2.57135e-08
-8.91125e-07
2.3486e-08
-8.96621e-07
2.10839e-08
-9.01361e-07
1.85041e-08
-9.05297e-07
1.57446e-08
-9.08379e-07
1.28043e-08
-9.10559e-07
9.68304e-09
-9.11787e-07
6.38199e-09
-9.12018e-07
2.90351e-09
-9.11204e-07
-7.48676e-10
-9.093e-07
-4.56933e-09
-9.06266e-07
-8.55163e-09
-9.0206e-07
-1.26871e-08
-8.96646e-07
-1.69655e-08
-8.8999e-07
-2.13748e-08
-8.82063e-07
-2.59009e-08
-8.72841e-07
-3.05279e-08
-8.62302e-07
-3.52379e-08
-8.50434e-07
-4.00111e-08
-8.37227e-07
-4.48255e-08
-8.2268e-07
-4.96572e-08
-8.06797e-07
-5.44807e-08
-7.89592e-07
-5.92683e-08
-7.71085e-07
-6.39909e-08
-7.51304e-07
-6.86177e-08
-7.30287e-07
-7.31168e-08
-7.08079e-07
-7.7455e-08
-6.84737e-07
-8.15981e-08
-6.60324e-07
-8.55117e-08
-6.34914e-07
-8.91608e-08
-6.08589e-07
-9.25106e-08
-5.81443e-07
-9.55268e-08
-5.53574e-07
-9.81757e-08
-5.25093e-07
-1.00425e-07
-4.96116e-07
-1.02244e-07
-4.66769e-07
-1.03605e-07
-4.37184e-07
-1.0448e-07
-4.07498e-07
-1.04848e-07
-3.77855e-07
-1.04688e-07
-3.48401e-07
-1.03983e-07
-3.19287e-07
-1.02723e-07
-2.90666e-07
-1.00898e-07
-2.6269e-07
-9.85068e-08
-2.35512e-07
-9.55508e-08
-2.09282e-07
-9.20374e-08
-1.84145e-07
-8.79798e-08
-1.60242e-07
-8.33973e-08
-1.37707e-07
-7.83152e-08
-1.16662e-07
-7.27665e-08
-9.72188e-08
-6.67916e-08
-7.94759e-08
-6.044e-08
-6.35136e-08
-5.3772e-08
-4.93925e-08
-4.68606e-08
-3.71499e-08
-3.97948e-08
-2.67952e-08
-3.2684e-08
-1.83062e-08
-2.56638e-08
-1.16234e-08
-1.89039e-08
-6.6458e-09
-1.26186e-08
-3.2247e-09
-7.08026e-09
-1.1594e-09
-2.6337e-09
-1.92007e-10
2.84554e-10
1.07947e-09
-4.71771e-11
-5.93108e-10
-3.34997e-10
-6.14693e-10
-9.78649e-10
2.279e-10
-2.06661e-09
1.70791e-09
-3.6652e-09
3.64989e-09
-5.82137e-09
5.90982e-09
-8.56522e-09
8.37069e-09
-1.19124e-08
1.0939e-08
-1.58662e-08
1.35408e-08
-2.04198e-08
1.61186e-08
-2.5558e-08
1.86285e-08
-3.12591e-08
2.10377e-08
-3.74963e-08
2.33227e-08
-4.42392e-08
2.54674e-08
-5.1455e-08
2.74618e-08
-5.91094e-08
2.9301e-08
-6.71676e-08
3.09838e-08
-7.55948e-08
3.25123e-08
-8.43569e-08
3.38908e-08
-9.34209e-08
3.51257e-08
-1.02755e-07
3.62245e-08
-1.12331e-07
3.7196e-08
-1.22119e-07
3.80492e-08
-1.32094e-07
3.8794e-08
-1.42233e-07
3.94399e-08
-1.52514e-07
3.99967e-08
-1.62917e-07
4.04741e-08
-1.73426e-07
4.08811e-08
-1.84024e-07
4.12267e-08
-1.94699e-07
4.15193e-08
-2.0544e-07
4.17668e-08
-2.16236e-07
4.19767e-08
-2.27079e-07
4.21558e-08
-2.37963e-07
4.23104e-08
-2.48883e-07
4.24465e-08
-2.59834e-07
4.25693e-08
-2.70814e-07
4.26836e-08
-2.81822e-07
4.27937e-08
-2.92856e-07
4.29036e-08
-3.03918e-07
4.30166e-08
-3.15006e-07
4.31358e-08
-3.26125e-07
4.3264e-08
-3.37274e-07
4.34034e-08
-3.48458e-07
4.35559e-08
-3.59679e-07
4.37234e-08
-3.70941e-07
4.39072e-08
-3.82248e-07
4.41085e-08
-3.93603e-07
4.43281e-08
-4.05012e-07
4.45668e-08
-4.16477e-07
4.48251e-08
-4.28004e-07
4.51031e-08
-4.39597e-07
4.54009e-08
-4.5126e-07
4.57185e-08
-4.62998e-07
4.60554e-08
-4.74814e-07
4.64111e-08
-4.86713e-07
4.67851e-08
-4.98698e-07
4.71763e-08
-5.10774e-07
4.75837e-08
-5.22942e-07
4.80062e-08
-5.35205e-07
4.84421e-08
-5.47567e-07
4.88899e-08
-5.60028e-07
4.93478e-08
-5.7259e-07
4.98135e-08
-5.85253e-07
5.0285e-08
-5.98018e-07
5.07595e-08
-6.10883e-07
5.12344e-08
-6.23848e-07
5.17067e-08
-6.3691e-07
5.2173e-08
-6.50065e-07
5.26299e-08
-6.6331e-07
5.30736e-08
-6.76639e-07
5.35e-08
-6.90045e-07
5.39048e-08
-7.03522e-07
5.42832e-08
-7.1706e-07
5.46304e-08
-7.3065e-07
5.49411e-08
-7.4428e-07
5.52098e-08
-7.57937e-07
5.54305e-08
-7.71606e-07
5.55972e-08
-7.85273e-07
5.57033e-08
-7.98918e-07
5.57422e-08
-8.12524e-07
5.57067e-08
-8.26068e-07
5.55896e-08
-8.39528e-07
5.53832e-08
-8.52879e-07
5.50797e-08
-8.66095e-07
5.4671e-08
-8.79147e-07
5.41489e-08
-8.92004e-07
5.35049e-08
-9.04635e-07
5.27304e-08
-9.17004e-07
5.18168e-08
-9.29075e-07
5.07553e-08
-9.4081e-07
4.95373e-08
-9.52168e-07
4.81539e-08
-9.63108e-07
4.65968e-08
-9.73585e-07
4.48576e-08
-9.83554e-07
4.29281e-08
-9.92967e-07
4.08007e-08
-1.00177e-06
3.8468e-08
-1.00993e-06
3.59234e-08
-1.01738e-06
3.31607e-08
-1.02406e-06
3.01747e-08
-1.02994e-06
2.69608e-08
-1.03495e-06
2.35156e-08
-1.03904e-06
1.98368e-08
-1.04216e-06
1.59232e-08
-1.04426e-06
1.17752e-08
-1.04527e-06
7.3947e-09
-1.04515e-06
2.78504e-09
-1.04385e-06
-2.04844e-09
-1.04132e-06
-7.09858e-09
-1.03752e-06
-1.23561e-08
-1.03239e-06
-1.78097e-08
-1.02591e-06
-2.34456e-08
-1.01804e-06
-2.9248e-08
-1.00874e-06
-3.51982e-08
-9.97996e-07
-4.12755e-08
-9.85777e-07
-4.74563e-08
-9.72074e-07
-5.37147e-08
-9.56877e-07
-6.00221e-08
-9.40187e-07
-6.63477e-08
-9.22009e-07
-7.26579e-08
-9.02361e-07
-7.89172e-08
-8.81264e-07
-8.50877e-08
-8.58752e-07
-9.11299e-08
-8.34866e-07
-9.70022e-08
-8.09659e-07
-1.02662e-07
-7.83192e-07
-1.08065e-07
-7.55536e-07
-1.13168e-07
-7.26773e-07
-1.17924e-07
-6.96994e-07
-1.22289e-07
-6.66301e-07
-1.2622e-07
-6.34805e-07
-1.29672e-07
-6.02626e-07
-1.32604e-07
-5.69894e-07
-1.34977e-07
-5.36745e-07
-1.36753e-07
-5.03326e-07
-1.379e-07
-4.69787e-07
-1.38387e-07
-4.36286e-07
-1.38188e-07
-4.02986e-07
-1.37284e-07
-3.70051e-07
-1.35658e-07
-3.37649e-07
-1.333e-07
-3.05949e-07
-1.30207e-07
-2.75118e-07
-1.26382e-07
-2.45321e-07
-1.21834e-07
-2.16719e-07
-1.16582e-07
-1.89466e-07
-1.1065e-07
-1.63709e-07
-1.04073e-07
-1.39582e-07
-9.6893e-08
-1.1721e-07
-8.91643e-08
-9.66982e-08
-8.09515e-08
-7.81372e-08
-7.2333e-08
-6.15948e-08
-6.3403e-08
-4.71145e-08
-5.42751e-08
-3.47121e-08
-4.50864e-08
-2.43716e-08
-3.60042e-08
-1.60425e-08
-2.7233e-08
-9.63553e-09
-1.90255e-08
-5.0208e-09
-1.1695e-08
-2.026e-09
-5.62849e-09
-4.36779e-10
-1.30467e-09
6.42694e-10
-1.31155e-10
-4.61944e-10
-6.38962e-10
-1.06894e-10
-1.61673e-09
1.20568e-09
-3.13751e-09
3.22869e-09
-5.25604e-09
5.76841e-09
-8.01041e-09
8.6642e-09
-1.14239e-08
1.17842e-08
-1.55067e-08
1.50217e-08
-2.02577e-08
1.82918e-08
-2.56663e-08
2.15273e-08
-3.17142e-08
2.46764e-08
-3.83767e-08
2.77001e-08
-4.56241e-08
3.05701e-08
-5.34234e-08
3.32666e-08
-6.17389e-08
3.57774e-08
-7.05338e-08
3.80959e-08
-7.97703e-08
4.02204e-08
-8.94111e-08
4.21531e-08
-9.94193e-08
4.3899e-08
-1.09759e-07
4.54656e-08
-1.20397e-07
4.68621e-08
-1.313e-07
4.80989e-08
-1.42438e-07
4.91872e-08
-1.53783e-07
5.01388e-08
-1.65309e-07
5.09658e-08
-1.76992e-07
5.16801e-08
-1.88811e-07
5.22935e-08
-2.00748e-07
5.28175e-08
-2.12784e-07
5.32631e-08
-2.24906e-07
5.3641e-08
-2.371e-07
5.39609e-08
-2.49355e-07
5.42322e-08
-2.61663e-07
5.44635e-08
-2.74016e-07
5.4663e-08
-2.86407e-07
5.48378e-08
-2.98833e-07
5.49948e-08
-3.11289e-07
5.51401e-08
-3.23774e-07
5.5279e-08
-3.36287e-07
5.54167e-08
-3.48828e-07
5.55574e-08
-3.61398e-07
5.57051e-08
-3.73997e-07
5.58632e-08
-3.86628e-07
5.60347e-08
-3.99294e-07
5.62221e-08
-4.11999e-07
5.64277e-08
-4.24745e-07
5.66531e-08
-4.37536e-07
5.69e-08
-4.50378e-07
5.71695e-08
-4.63273e-07
5.74625e-08
-4.76228e-07
5.77795e-08
-4.89245e-07
5.81209e-08
-5.02331e-07
5.84867e-08
-5.1549e-07
5.88768e-08