/*--------------------------------*- C++ -*----------------------------------*\
  =========                 |
  \\      /  F ield         | OpenFOAM: The Open Source CFD Toolbox
   \\    /   O peration     | Website:  https://openfoam.org
    \\  /    A nd           | Version:  7
     \\/     M anipulation  |
\*---------------------------------------------------------------------------*/
FoamFile
{
    version     2.0;
    format      ascii;
    class       surfaceScalarField;
    location    "0.3375";
    object      phi;
}
// * * * * * * * * * * * * * * * * * * * * * * * * * * * * * * * * * * * * * //

dimensions      [0 3 -1 0 0 0 0];

internalField   nonuniform List<scalar> 
101920
(
-6.81212e-14
2.24812e-13
-4.83271e-13
4.15735e-13
-9.31298e-13
4.41759e-13
-1.28938e-12
3.59794e-13
-1.50207e-12
2.09414e-13
-1.51265e-12
1.82177e-14
-1.31813e-12
-1.95753e-13
-9.05173e-13
-4.20243e-13
-2.71279e-13
-6.38326e-13
5.8673e-13
-8.55749e-13
1.65526e-12
-1.06617e-12
2.92736e-12
-1.27107e-12
4.39219e-12
-1.46515e-12
6.04157e-12
-1.6482e-12
7.86313e-12
-1.82117e-12
9.84591e-12
-1.98198e-12
1.198e-11
-2.13255e-12
1.42526e-11
-2.27259e-12
1.66537e-11
-2.40131e-12
1.91734e-11
-2.51963e-12
2.18004e-11
-2.62766e-12
2.45241e-11
-2.72493e-12
2.73366e-11
-2.81205e-12
3.02281e-11
-2.89034e-12
3.31881e-11
-2.95955e-12
3.62082e-11
-3.02004e-12
3.92807e-11
-3.07248e-12
4.23975e-11
-3.11669e-12
4.55501e-11
-3.15278e-12
4.87312e-11
-3.18159e-12
5.19343e-11
-3.20357e-12
5.51524e-11
-3.21858e-12
5.8379e-11
-3.22665e-12
6.16079e-11
-3.22849e-12
6.48331e-11
-3.22479e-12
6.80489e-11
-3.2156e-12
7.12502e-11
-3.2008e-12
7.44315e-11
-3.18071e-12
7.75877e-11
-3.15587e-12
8.07144e-11
-3.12652e-12
8.38074e-11
-3.0927e-12
8.68626e-11
-3.05463e-12
8.98759e-11
-3.01272e-12
9.28433e-11
-2.96721e-12
9.57616e-11
-2.91815e-12
9.86276e-11
-2.86558e-12
1.01438e-10
-2.80978e-12
1.0419e-10
-2.75108e-12
1.0688e-10
-2.6897e-12
1.09505e-10
-2.62567e-12
1.12065e-10
-2.55909e-12
1.14555e-10
-2.49017e-12
1.16974e-10
-2.41914e-12
1.19321e-10
-2.34614e-12
1.21592e-10
-2.27126e-12
1.23787e-10
-2.19457e-12
1.25903e-10
-2.11618e-12
1.27939e-10
-2.03626e-12
1.29894e-10
-1.95493e-12
1.31766e-10
-1.87225e-12
1.33555e-10
-1.78825e-12
1.35258e-10
-1.70301e-12
1.36875e-10
-1.61664e-12
1.38405e-10
-1.52935e-12
1.39846e-10
-1.44126e-12
1.41198e-10
-1.35237e-12
1.42461e-10
-1.26267e-12
1.43633e-10
-1.17218e-12
1.44714e-10
-1.08101e-12
1.45704e-10
-9.89306e-13
1.46601e-10
-8.97154e-13
1.47406e-10
-8.04567e-13
1.48117e-10
-7.11531e-13
1.48735e-10
-6.18063e-13
1.4926e-10
-5.24244e-13
1.4969e-10
-4.30181e-13
1.50026e-10
-3.35956e-13
1.50268e-10
-2.41583e-13
1.50415e-10
-1.4704e-13
1.50468e-10
-5.23311e-14
1.50426e-10
4.24672e-14
1.50289e-10
1.37228e-13
1.50057e-10
2.31838e-13
1.4973e-10
3.26264e-13
1.4931e-10
4.20554e-13
1.48795e-10
5.14764e-13
1.48186e-10
6.08868e-13
1.47483e-10
7.02733e-13
1.46687e-10
7.96195e-13
1.45797e-10
8.89143e-13
1.44815e-10
9.81576e-13
1.43742e-10
1.07358e-12
1.42576e-10
1.16521e-12
1.4132e-10
1.25639e-12
1.39974e-10
1.34686e-12
1.38537e-10
1.4364e-12
1.37012e-10
1.52493e-12
1.35399e-10
1.61261e-12
1.337e-10
1.69955e-12
1.31915e-10
1.78567e-12
1.30045e-10
1.87061e-12
1.2809e-10
1.95402e-12
1.26054e-10
2.03575e-12
1.23937e-10
2.116e-12
1.21742e-10
2.19497e-12
1.1947e-10
2.27264e-12
1.17122e-10
2.34861e-12
1.147e-10
2.42239e-12
1.12206e-10
2.49376e-12
1.09642e-10
2.56288e-12
1.07012e-10
2.62993e-12
1.04318e-10
2.69476e-12
1.01562e-10
2.75687e-12
9.87457e-11
2.81574e-12
9.58736e-11
2.87136e-12
9.29491e-11
2.92407e-12
8.99756e-11
2.97395e-12
8.6956e-11
3.02042e-12
8.38934e-11
3.06265e-12
8.07922e-11
3.10032e-12
7.76574e-11
3.13381e-12
7.4494e-11
3.16343e-12
7.13058e-11
3.18868e-12
6.80971e-11
3.20864e-12
6.48732e-11
3.22294e-12
6.16405e-11
3.23205e-12
5.8405e-11
3.23619e-12
5.51717e-11
3.23451e-12
5.19459e-11
3.22588e-12
4.87349e-11
3.2101e-12
4.55468e-11
3.18767e-12
4.23886e-11
3.15852e-12
3.92661e-11
3.12205e-12
3.61865e-11
3.07816e-12
3.31606e-11
3.02658e-12
3.01983e-11
2.96553e-12
2.73055e-11
2.89355e-12
2.4488e-11
2.81271e-12
2.17576e-11
2.72604e-12
1.9129e-11
2.63161e-12
1.66112e-11
2.52421e-12
1.42091e-11
2.4032e-12
1.19338e-11
2.27233e-12
9.80051e-12
2.13252e-12
7.81949e-12
1.98141e-12
5.99904e-12
1.81859e-12
4.35166e-12
1.64549e-12
2.88969e-12
1.46231e-12
1.62221e-12
1.26853e-12
5.58278e-13
1.06442e-12
-2.93026e-13
8.51555e-13
-9.2543e-13
6.33224e-13
-1.33645e-12
4.12267e-13
-1.52793e-12
1.91979e-13
-1.50859e-12
-1.80836e-14
-1.30108e-12
-2.06837e-13
-9.46998e-13
-3.55064e-13
-5.18446e-13
-4.26386e-13
-1.45436e-13
-3.75221e-13
-1.46339e-13
-3.31402e-13
5.55625e-13
-1.00146e-12
1.08998e-12
-1.69085e-12
1.12626e-12
-2.15724e-12
8.25729e-13
-2.25946e-12
3.00452e-13
-1.87216e-12
-3.64052e-13
-9.54629e-13
-1.11129e-12
5.40884e-13
-1.90243e-12
2.60588e-12
-2.70912e-12
5.26295e-12
-3.50845e-12
8.48543e-12
-4.29146e-12
1.22663e-11
-5.04855e-12
1.65769e-11
-5.77466e-12
2.13939e-11
-6.46526e-12
2.66921e-11
-7.11806e-12
3.2439e-11
-7.7311e-12
3.86099e-11
-8.30364e-12
4.51739e-11
-8.83648e-12
5.2101e-11
-9.32889e-12
5.93642e-11
-9.78173e-12
6.69349e-11
-1.01968e-11
7.47831e-11
-1.05744e-11
8.28836e-11
-1.09139e-11
9.12112e-11
-1.12175e-11
9.97382e-11
-1.14874e-11
1.0844e-10
-1.17235e-11
1.17294e-10
-1.1927e-11
1.26278e-10
-1.20996e-11
1.35367e-10
-1.22426e-11
1.44542e-10
-1.23571e-11
1.53782e-10
-1.24439e-11
1.63069e-10
-1.25044e-11
1.72382e-10
-1.25397e-11
1.81704e-10
-1.2551e-11
1.91018e-10
-1.2539e-11
2.00308e-10
-1.25048e-11
2.09559e-10
-1.24497e-11
2.18754e-10
-1.23748e-11
2.2788e-10
-1.22812e-11
2.36923e-10
-1.21694e-11
2.45872e-10
-1.20403e-11
2.54713e-10
-1.18949e-11
2.63434e-10
-1.17341e-11
2.72027e-10
-1.15588e-11
2.80479e-10
-1.13694e-11
2.88781e-10
-1.11668e-11
2.96924e-10
-1.09518e-11
3.04899e-10
-1.07252e-11
3.12697e-10
-1.04876e-11
3.20311e-10
-1.02396e-11
3.27734e-10
-9.98185e-12
3.34959e-10
-9.71494e-12
3.41979e-10
-9.43939e-12
3.48788e-10
-9.15569e-12
3.55382e-10
-8.86438e-12
3.61753e-10
-8.56596e-12
3.67898e-10
-8.26098e-12
3.73812e-10
-7.94988e-12
3.7949e-10
-7.63302e-12
3.84929e-10
-7.31073e-12
3.90125e-10
-6.98334e-12
3.95074e-10
-6.65128e-12
3.99773e-10
-6.31499e-12
4.04218e-10
-5.97482e-12
4.08408e-10
-5.63104e-12
4.12339e-10
-5.28385e-12
4.1601e-10
-4.93352e-12
4.19419e-10
-4.58035e-12
4.22563e-10
-4.22463e-12
4.2544e-10
-3.86661e-12
4.28049e-10
-3.50649e-12
4.30389e-10
-3.14448e-12
4.32459e-10
-2.78078e-12
4.34257e-10
-2.41562e-12
4.35783e-10
-2.04925e-12
4.37034e-10
-1.68183e-12
4.38012e-10
-1.31353e-12
4.38715e-10
-9.44466e-13
4.39144e-10
-5.74821e-13
4.39297e-10
-2.04798e-13
4.39174e-10
1.65365e-13
4.38776e-10
5.35437e-13
4.38102e-10
9.05241e-13
4.37153e-10
1.27466e-12
4.3593e-10
1.6436e-12
4.34433e-10
2.01193e-12
4.32663e-10
2.37944e-12
4.3062e-10
2.74583e-12
4.28304e-10
3.11082e-12
4.25719e-10
3.47419e-12
4.22864e-10
3.83582e-12
4.19742e-10
4.19561e-12
4.16355e-10
4.55334e-12
4.12703e-10
4.90867e-12
4.08788e-10
5.26121e-12
4.04614e-10
5.61061e-12
4.00182e-10
5.95664e-12
3.95495e-10
6.29916e-12
3.90558e-10
6.63801e-12
3.85371e-10
6.97278e-12
3.79939e-10
7.30287e-12
3.74264e-10
7.62768e-12
3.68352e-10
7.94688e-12
3.62207e-10
8.2604e-12
3.55835e-10
8.5681e-12
3.4924e-10
8.86941e-12
3.42426e-10
9.16343e-12
3.35399e-10
9.44934e-12
3.28165e-10
9.72678e-12
3.20731e-10
9.99569e-12
3.13106e-10
1.02558e-11
3.05295e-10
1.05062e-11
2.97306e-10
1.07459e-11
2.89147e-10
1.09739e-11
2.80828e-10
1.11901e-11
2.72359e-10
1.1394e-11
2.63749e-10
1.1585e-11
2.55007e-10
1.17619e-11
2.46144e-10
1.19234e-11
2.37174e-10
1.20691e-11
2.28109e-10
1.21989e-11
2.18962e-10
1.23118e-11
2.09745e-10
1.24062e-11
2.00472e-10
1.24807e-11
1.9116e-10
1.25347e-11
1.81824e-10
1.25681e-11
1.72481e-10
1.258e-11
1.63147e-10
1.25684e-11
1.53839e-10
1.25318e-11
1.44577e-10
1.24704e-11
1.35383e-10
1.23834e-11
1.26277e-10
1.22683e-11
1.17276e-10
1.21223e-11
1.08405e-10
1.19459e-11
9.96857e-11
1.17415e-11
9.11456e-11
1.15072e-11
8.28096e-11
1.12366e-11
7.47e-11
1.09268e-11
6.68406e-11
1.05821e-11
5.92611e-11
1.02052e-11
5.19928e-11
9.79099e-12
4.50623e-11
9.33491e-12
3.84958e-11
8.83903e-12
3.23241e-11
8.30509e-12
2.65777e-11
7.73042e-12
2.12837e-11
7.11424e-12
1.64708e-11
6.45906e-12
1.21667e-11
5.7667e-12
8.39513e-12
5.03888e-12
5.17799e-12
4.27975e-12
2.53417e-12
3.4958e-12
4.7225e-13
2.6952e-12
-1.00906e-12
1.89025e-12
-1.91917e-12
1.10252e-12
-2.29481e-12
3.58422e-13
-2.19945e-12
-3.04533e-13
-1.73205e-12
-8.21922e-13
-1.05219e-12
-1.11075e-12
-3.72813e-13
-1.04954e-12
-5.22353e-13
-4.08936e-13
9.6084e-13
-1.07372e-12
1.7598e-12
-1.62733e-12
1.6883e-12
-1.80251e-12
1.00269e-12
-1.40891e-12
-1.02938e-13
-2.87915e-13
-1.48043e-12
1.63018e-12
-3.03503e-12
4.41498e-12
-4.68002e-12
8.07282e-12
-6.36875e-12
1.26234e-11
-8.05497e-12
1.8045e-11
-9.71414e-12
2.43246e-11
-1.13255e-11
3.14274e-11
-1.28762e-11
3.93194e-11
-1.43564e-11
4.79638e-11
-1.57597e-11
5.73148e-11
-1.70828e-11
6.73322e-11
-1.83216e-11
7.79725e-11
-1.94767e-11
8.91889e-11
-2.05471e-11
1.00938e-10
-2.1533e-11
1.13179e-10
-2.24368e-11
1.25865e-10
-2.326e-11
1.38954e-10
-2.40037e-11
1.52407e-10
-2.467e-11
1.66182e-10
-2.52623e-11
1.80241e-10
-2.57822e-11
1.94545e-10
-2.62314e-11
2.09059e-10
-2.66132e-11
2.23746e-10
-2.69307e-11
2.38573e-10
-2.71855e-11
2.53508e-10
-2.73794e-11
2.6852e-10
-2.75157e-11
2.83578e-10
-2.75973e-11
2.98653e-10
-2.7626e-11
3.13719e-10
-2.76037e-11
3.28748e-10
-2.75329e-11
3.43715e-10
-2.7416e-11
3.58596e-10
-2.72553e-11
3.73368e-10
-2.70527e-11
3.88009e-10
-2.68101e-11
4.02499e-10
-2.65296e-11
4.16818e-10
-2.6213e-11
4.30947e-10
-2.58623e-11
4.44868e-10
-2.5479e-11
4.58564e-10
-2.50649e-11
4.7202e-10
-2.46216e-11
4.8522e-10
-2.41509e-11
4.98149e-10
-2.36542e-11
5.10795e-10
-2.31329e-11
5.23144e-10
-2.25885e-11
5.35185e-10
-2.20223e-11
5.46906e-10
-2.14357e-11
5.58296e-10
-2.083e-11
5.69347e-10
-2.02061e-11
5.80047e-10
-1.95652e-11
5.9039e-10
-1.89083e-11
6.00366e-10
-1.82367e-11
6.09967e-10
-1.75514e-11
6.19187e-10
-1.68531e-11
6.2802e-10
-1.61427e-11
6.36458e-10
-1.54209e-11
6.44496e-10
-1.46888e-11
6.52129e-10
-1.39472e-11
6.59351e-10
-1.31968e-11
6.66158e-10
-1.24382e-11
6.72546e-10
-1.16719e-11
6.78511e-10
-1.08985e-11
6.8405e-10
-1.01189e-11
6.8916e-10
-9.33347e-12
6.93836e-10
-8.54295e-12
6.98077e-10
-7.74772e-12
7.01881e-10
-6.9482e-12
7.05245e-10
-6.14485e-12
7.08168e-10
-5.33817e-12
7.10648e-10
-4.52869e-12
7.12683e-10
-3.71684e-12
7.14273e-10
-2.90301e-12
7.15417e-10
-2.08757e-12
7.16114e-10
-1.2709e-12
7.16363e-10
-4.53445e-13
7.16164e-10
3.64356e-13
7.15517e-10
1.18208e-12
7.14422e-10
1.99935e-12
7.12881e-10
2.81583e-12
7.10893e-10
3.63118e-12
7.08461e-10
4.44498e-12
7.05583e-10
5.25676e-12
7.02263e-10
6.066e-12
6.98501e-10
6.87221e-12
6.94299e-10
7.67497e-12
6.89661e-10
8.47389e-12
6.84588e-10
9.2685e-12
6.79084e-10
1.00583e-11
6.73151e-10
1.08425e-11
6.66791e-10
1.16204e-11
6.6001e-10
1.23915e-11
6.52811e-10
1.31553e-11
6.45199e-10
1.39112e-11
6.3718e-10
1.46585e-11
6.28757e-10
1.53962e-11
6.19936e-10
1.61235e-11
6.10723e-10
1.68393e-11
6.01126e-10
1.75431e-11
5.91152e-10
1.82342e-11
5.8081e-10
1.89117e-11
5.70106e-10
1.95744e-11
5.59049e-10
2.02208e-11
5.47647e-10
2.08499e-11
5.35913e-10
2.14606e-11
5.23857e-10
2.20521e-11
5.11491e-10
2.26232e-11
4.98825e-10
2.31723e-11
4.85872e-10
2.36975e-11
4.72647e-10
2.41978e-11
4.59165e-10
2.4672e-11
4.45442e-10
2.51189e-11
4.31492e-10
2.55363e-11
4.17331e-10
2.5922e-11
4.02978e-10
2.62745e-11
3.88453e-10
2.65927e-11
3.73778e-10
2.6875e-11
3.58971e-10
2.71191e-11
3.44054e-10
2.73224e-11
3.2905e-10
2.74828e-11
3.13986e-10
2.75992e-11
2.98886e-10
2.76696e-11
2.83776e-10
2.76912e-11
2.68683e-10
2.76609e-11
2.53637e-10
2.75768e-11
2.38669e-10
2.74379e-11
2.23809e-10
2.72421e-11
2.09091e-10
2.6986e-11
1.94549e-10
2.66656e-11
1.8022e-10
2.62783e-11
1.66137e-10
2.58236e-11
1.52337e-10
2.53013e-11
1.38863e-10
2.47078e-11
1.25758e-10
2.40374e-11
1.13059e-10
2.32871e-11
1.00805e-10
2.24581e-11
8.90417e-11
2.15499e-11
7.78178e-11
2.05591e-11
6.71745e-11
1.94836e-11
5.71532e-11
1.83241e-11
4.78004e-11
1.70808e-11
3.91606e-11
1.57543e-11
3.12738e-11
1.43473e-11
2.41787e-11
1.28634e-11
1.791e-11
1.13082e-11
1.24972e-11
9.69284e-12
7.96218e-12
8.0321e-12
4.31314e-12
6.34342e-12
1.54662e-12
4.65663e-12
-3.62208e-13
3.01181e-12
-1.47053e-12
1.46165e-12
-1.86097e-12
8.92742e-14
-1.6749e-12
-1.00371e-12
-1.10691e-12
-1.67521e-12
-4.27183e-13
-1.73337e-12
-9.47716e-13
-3.40136e-13
1.29658e-12
-7.99841e-13
2.20059e-12
-9.66307e-13
1.85761e-12
-5.65948e-13
6.08106e-13
6.08263e-13
-1.2793e-12
2.71648e-12
-3.59452e-12
5.86555e-12
-6.183e-12
1.01189e-11
-8.93364e-12
1.55066e-11
-1.17556e-11
2.20429e-11
-1.45879e-11
2.97116e-11
-1.7384e-11
3.84957e-11
-2.01077e-11
4.8357e-11
-2.27372e-11
5.92538e-11
-2.52533e-11
7.11405e-11
-2.76447e-11
8.39629e-11
-2.99044e-11
9.76669e-11
-3.20256e-11
1.12199e-10
-3.40065e-11
1.27499e-10
-3.58467e-11
1.43511e-10
-3.75454e-11
1.60178e-10
-3.91041e-11
1.77445e-10
-4.05256e-11
1.95254e-10
-4.18127e-11
2.13552e-10
-4.29681e-11
2.32285e-10
-4.39957e-11
2.51402e-10
-4.4899e-11
2.70852e-10
-4.56817e-11
2.90586e-10
-4.63482e-11
3.10558e-10
-4.69028e-11
3.30722e-10
-4.73493e-11
3.51034e-10
-4.76914e-11
3.71451e-10
-4.79336e-11
3.91934e-10
-4.80802e-11
4.12444e-10
-4.81349e-11
4.32943e-10
-4.81016e-11
4.53394e-10
-4.79839e-11
4.73765e-10
-4.7786e-11
4.94021e-10
-4.75113e-11
5.14133e-10
-4.71635e-11
5.34069e-10
-4.6746e-11
5.53803e-10
-4.62622e-11
5.73306e-10
-4.57155e-11
5.92553e-10
-4.51089e-11
6.1152e-10
-4.44454e-11
6.30184e-10
-4.37278e-11
6.48522e-10
-4.29593e-11
6.66515e-10
-4.21425e-11
6.84141e-10
-4.128e-11
7.01383e-10
-4.03744e-11
7.18223e-10
-3.94282e-11
7.34644e-10
-3.84436e-11
7.50631e-10
-3.74231e-11
7.6617e-10
-3.63687e-11
7.81247e-10
-3.52823e-11
7.95848e-10
-3.4166e-11
8.09961e-10
-3.30218e-11
8.23576e-10
-3.18515e-11
8.36681e-10
-3.06567e-11
8.49267e-10
-2.9439e-11
8.61325e-10
-2.81999e-11
8.72846e-10
-2.6941e-11
8.83821e-10
-2.56637e-11
8.94243e-10
-2.43694e-11
9.04106e-10
-2.30594e-11
9.13403e-10
-2.17349e-11
9.22128e-10
-2.03969e-11
9.30277e-10
-1.90465e-11
9.37843e-10
-1.76848e-11
9.44822e-10
-1.63129e-11
9.51211e-10
-1.49318e-11
9.57006e-10
-1.35423e-11
9.62203e-10
-1.21452e-11
9.668e-10
-1.07415e-11
9.70794e-10
-9.33179e-12
9.74183e-10
-7.91706e-12
9.76965e-10
-6.49811e-12
9.79138e-10
-5.07566e-12
9.80701e-10
-3.65039e-12
9.81653e-10
-2.22295e-12
9.81994e-10
-7.94071e-13
9.81723e-10
6.35478e-13
9.8084e-10
2.06492e-12
9.79346e-10
3.49357e-12
9.7724e-10
4.92079e-12
9.74526e-10
6.34594e-12
9.71203e-10
7.76831e-12
9.67272e-10
9.18708e-12
9.62737e-10
1.06013e-11
9.57598e-10
1.20102e-11
9.5186e-10
1.34129e-11
9.45524e-10
1.48088e-11
9.38596e-10
1.6197e-11
9.31079e-10
1.75765e-11
9.22975e-10
1.89461e-11
9.14291e-10
2.03047e-11
9.05031e-10
2.16512e-11
8.95201e-10
2.29847e-11
8.84809e-10
2.43041e-11
8.7386e-10
2.56082e-11
8.62362e-10
2.68953e-11
8.5032e-10
2.81639e-11
8.37746e-10
2.94125e-11
8.24649e-10
3.064e-11
8.11039e-10
3.18449e-11
7.96926e-10
3.30255e-11
7.82322e-10
3.41798e-11
7.67237e-10
3.53054e-11
7.51685e-10
3.64008e-11
7.35681e-10
3.74642e-11
7.1924e-10
3.84937e-11
7.02377e-10
3.94869e-11
6.85109e-10
4.0441e-11
6.67452e-10
4.13536e-11
6.49426e-10
4.22226e-11
6.31053e-10
4.30459e-11
6.12352e-10
4.38207e-11
5.93345e-10
4.45438e-11
5.74054e-10
4.52117e-11
5.54506e-10
4.5822e-11
5.34726e-10
4.63721e-11
5.14743e-10
4.6859e-11
4.94584e-10
4.72785e-11
4.74278e-10
4.7627e-11
4.53858e-10
4.79016e-11
4.33358e-10
4.80996e-11
4.12812e-10
4.8217e-11
3.92254e-10
4.82489e-11
3.71723e-10
4.81915e-11
3.51258e-10
4.80416e-11
3.30902e-10
4.77954e-11
3.10695e-10
4.74487e-11
2.90679e-10
4.69978e-11
2.70904e-10
4.64394e-11
2.51418e-10
4.57682e-11
2.3227e-10
4.49778e-11
2.13504e-10
4.40653e-11
1.95174e-10
4.30308e-11
1.77339e-10
4.18706e-11
1.60054e-10
4.0577e-11
1.43368e-10
3.91458e-11
1.27336e-10
3.7578e-11
1.12024e-10
3.58724e-11
9.74855e-11
3.40249e-11
8.37746e-11
3.2035e-11
7.09491e-11
2.99053e-11
5.90652e-11
2.76385e-11
4.81726e-11
2.52393e-11
3.8318e-11
2.27157e-11
2.95454e-11
2.00802e-11
2.18886e-11
1.73511e-11
1.5368e-11
1.45514e-11
9.99491e-12
1.17153e-11
5.75957e-12
8.89313e-12
2.62525e-12
6.14479e-12
5.31682e-13
3.55931e-12
-6.29131e-13
1.25059e-12
-1.01165e-12
-6.2452e-13
-8.22285e-13
-1.86126e-12
-3.53704e-13
-2.20167e-12
-1.30124e-12
-1.95452e-13
1.50444e-12
-2.86156e-13
2.28628e-12
1.19045e-13
1.45136e-12
1.30069e-12
-5.68329e-13
3.46464e-12
-3.43882e-12
6.76786e-12
-6.89671e-12
1.13184e-11
-1.07383e-11
1.7195e-11
-1.48066e-11
2.44248e-11
-1.89865e-11
3.30271e-11
-2.31885e-11
4.29885e-11
-2.73443e-11
5.42861e-11
-3.14044e-11
6.68825e-11
-3.53324e-11
8.07287e-11
-3.90999e-11
9.57718e-11
-4.26886e-11
1.11953e-10
-4.60855e-11
1.29206e-10
-4.92807e-11
1.47468e-10
-5.22691e-11
1.66671e-10
-5.50497e-11
1.86745e-10
-5.76212e-11
2.07623e-10
-5.99837e-11
2.29239e-10
-6.2141e-11
2.51524e-10
-6.40974e-11
2.74411e-10
-6.58561e-11
2.97838e-10
-6.74217e-11
3.2174e-10
-6.88002e-11
3.46055e-10
-6.99972e-11
3.70724e-10
-7.10179e-11
3.95689e-10
-7.18683e-11
4.20895e-10
-7.25546e-11
4.46286e-10
-7.30827e-11
4.71811e-10
-7.34588e-11
4.97419e-10
-7.36886e-11
5.23062e-10
-7.37781e-11
5.48695e-10
-7.3733e-11
5.74271e-10
-7.35594e-11
5.99749e-10
-7.32629e-11
6.25087e-10
-7.28488e-11
6.50246e-10
-7.23224e-11
6.7519e-10
-7.16892e-11
6.99883e-10
-7.09544e-11
7.2429e-10
-7.01227e-11
7.48381e-10
-6.91988e-11
7.72123e-10
-6.81874e-11
7.95489e-10
-6.7093e-11
8.18451e-10
-6.592e-11
8.40982e-10
-6.46725e-11
8.63057e-10
-6.33547e-11
8.84653e-10
-6.19703e-11
9.05749e-10
-6.05232e-11
9.26322e-10
-5.9017e-11
9.46354e-10
-5.7455e-11
9.65825e-10
-5.58405e-11
9.8472e-10
-5.41766e-11
1.00302e-09
-5.24665e-11
1.02071e-09
-5.07131e-11
1.03778e-09
-4.89191e-11
1.05421e-09
-4.70871e-11
1.06999e-09
-4.52195e-11
1.08511e-09
-4.33189e-11
1.09956e-09
-4.13875e-11
1.11332e-09
-3.94276e-11
1.12639e-09
-3.74413e-11
1.13876e-09
-3.54304e-11
1.15043e-09
-3.33968e-11
1.16137e-09
-3.13423e-11
1.1716e-09
-2.92685e-11
1.18109e-09
-2.71772e-11
1.18985e-09
-2.507e-11
1.19786e-09
-2.29484e-11
1.20513e-09
-2.08136e-11
1.21166e-09
-1.86671e-11
1.21742e-09
-1.65101e-11
1.22244e-09
-1.4344e-11
1.22669e-09
-1.217e-11
1.23018e-09
-9.98938e-12
1.23291e-09
-7.80323e-12
1.23487e-09
-5.61263e-12
1.23607e-09
-3.41869e-12
1.2365e-09
-1.22257e-12
1.23616e-09
9.74572e-13
1.23505e-09
3.1716e-12
1.23318e-09
5.36744e-12
1.23054e-09
7.56108e-12
1.22713e-09
9.75147e-12
1.22296e-09
1.19374e-11
1.21803e-09
1.41177e-11
1.21234e-09
1.62909e-11
1.2059e-09
1.84558e-11
1.1987e-09
2.06112e-11
1.19075e-09
2.27559e-11
1.18206e-09
2.48883e-11
1.17263e-09
2.70071e-11
1.16246e-09
2.91106e-11
1.15157e-09
3.1197e-11
1.13996e-09
3.32647e-11
1.12763e-09
3.53121e-11
1.1146e-09
3.73375e-11
1.10087e-09
3.93388e-11
1.08645e-09
4.13137e-11
1.07135e-09
4.326e-11
1.05559e-09
4.51754e-11
1.03917e-09
4.70581e-11
1.02211e-09
4.89058e-11
1.00442e-09
5.07155e-11
9.86119e-10
5.24841e-11
9.67216e-10
5.42087e-11
9.47729e-10
5.58866e-11
9.27678e-10
5.7515e-11
9.07082e-10
5.90909e-11
8.85959e-10
6.06104e-11
8.64329e-10
6.20697e-11
8.42217e-10
6.34653e-11
8.19646e-10
6.47937e-11
7.96642e-10
6.60514e-11
7.7323e-10
6.72339e-11
7.49436e-10
6.83365e-11
7.25292e-10
6.93547e-11
7.00828e-10
7.02846e-11
6.76079e-10
7.11221e-11
6.51077e-10
7.18619e-11
6.25856e-10
7.24982e-11
6.00456e-10
7.30259e-11
5.74917e-10
7.34407e-11
5.49281e-10
7.37376e-11
5.23588e-10
7.39103e-11
4.97883e-10
7.39525e-11
4.72213e-10
7.38593e-11
4.46629e-10
7.36259e-11
4.21182e-10
7.32455e-11
3.95922e-10
7.27106e-11
3.70902e-10
7.20155e-11
3.4618e-10
7.11573e-11
3.21816e-10
7.01307e-11
2.97872e-10
6.89259e-11
2.74406e-10
6.7535e-11
2.51479e-10
6.59561e-11
2.29159e-10
6.41876e-11
2.07514e-10
6.22217e-11
1.8661e-10
6.00512e-11
1.66513e-10
5.76749e-11
1.47292e-10
5.50924e-11
1.29017e-10
5.23002e-11
1.11754e-10
4.9298e-11
9.55678e-11
4.60901e-11
8.0524e-11
4.26826e-11
6.66802e-11
3.90832e-11
5.40903e-11
3.5305e-11
4.28038e-11
3.13686e-11
3.28549e-11
2.72996e-11
2.42678e-11
2.31353e-11
1.7056e-11
1.893e-11
1.12002e-11
1.47477e-11
6.66516e-12
1.06784e-11
3.38037e-12
6.84118e-12
1.23714e-12
3.39391e-12
7.78802e-14
5.3506e-13
-3.09118e-13
-1.47129e-12
-2.09277e-13
-2.30312e-12
-1.5114e-12
-1.38517e-14
1.51977e-12
3.72356e-13
1.89925e-12
1.48656e-12
3.23574e-13
3.60158e-12
-2.68351e-12
6.90901e-12
-6.74443e-12
1.15567e-11
-1.15428e-11
1.7651e-11
-1.68318e-11
2.52651e-11
-2.24184e-11
3.44295e-11
-2.81538e-11
4.51646e-11
-3.39211e-11
5.74543e-11
-3.96341e-11
7.12741e-11
-4.52242e-11
8.65857e-11
-5.0641e-11
1.03334e-10
-5.58473e-11
1.2146e-10
-6.08147e-11
1.40901e-10
-6.55239e-11
1.61583e-10
-6.99618e-11
1.83433e-10
-7.41191e-11
2.06377e-10
-7.79919e-11
2.30335e-10
-8.15788e-11
2.55231e-10
-8.48795e-11
2.80986e-10
-8.7897e-11
3.07524e-10
-9.0636e-11
3.34769e-10
-9.31012e-11
3.62645e-10
-9.52985e-11
3.91081e-10
-9.72353e-11
4.20003e-10
-9.89192e-11
4.49341e-10
-1.00357e-10
4.7903e-10
-1.01557e-10
5.09003e-10
-1.02527e-10
5.39196e-10
-1.03276e-10
5.69547e-10
-1.03811e-10
6e-10
-1.04141e-10
6.30495e-10
-1.04273e-10
6.60979e-10
-1.04216e-10
6.91398e-10
-1.03978e-10
7.21702e-10
-1.03566e-10
7.51842e-10
-1.02989e-10
7.81773e-10
-1.02253e-10
8.11451e-10
-1.01366e-10
8.40832e-10
-1.00335e-10
8.69877e-10
-9.91672e-11
8.98548e-10
-9.78688e-11
9.26807e-10
-9.64463e-11
9.54622e-10
-9.49063e-11
9.81957e-10
-9.32547e-11
1.00878e-09
-9.14973e-11
1.03507e-09
-8.96399e-11
1.06079e-09
-8.7688e-11
1.08591e-09
-8.5647e-11
1.11041e-09
-8.35217e-11
1.13428e-09
-8.1317e-11
1.15747e-09
-7.90375e-11
1.17999e-09
-7.66877e-11
1.20179e-09
-7.4272e-11
1.22287e-09
-7.17944e-11
1.24321e-09
-6.9259e-11
1.26279e-09
-6.66692e-11
1.2816e-09
-6.40287e-11
1.29963e-09
-6.13409e-11
1.31685e-09
-5.86092e-11
1.33326e-09
-5.58367e-11
1.34884e-09
-5.30263e-11
1.36359e-09
-5.01806e-11
1.3775e-09
-4.73025e-11
1.39055e-09
-4.43943e-11
1.40274e-09
-4.14588e-11
1.41406e-09
-3.84981e-11
1.42451e-09
-3.55145e-11
1.43407e-09
-3.25101e-11
1.44274e-09
-2.94869e-11
1.45052e-09
-2.64468e-11
1.45741e-09
-2.33917e-11
1.46339e-09
-2.03235e-11
1.46846e-09
-1.72441e-11
1.47263e-09
-1.41551e-11
1.47588e-09
-1.1058e-11
1.47822e-09
-7.95462e-12
1.47965e-09
-4.84645e-12
1.48017e-09
-1.73519e-12
1.47976e-09
1.37752e-12
1.47844e-09
4.49012e-12
1.47621e-09
7.60108e-12
1.47306e-09
1.07089e-11
1.469e-09
1.3812e-11
1.46403e-09
1.69087e-11
1.45815e-09
1.99971e-11
1.45137e-09
2.30754e-11
1.44368e-09
2.61418e-11
1.4351e-09
2.91945e-11
1.42562e-09
3.22318e-11
1.41526e-09
3.52516e-11
1.40401e-09
3.82516e-11
1.39189e-09
4.12297e-11
1.37891e-09
4.41833e-11
1.36506e-09
4.71102e-11
1.35037e-09
5.0008e-11
1.33483e-09
5.28741e-11
1.31846e-09
5.57057e-11
1.30128e-09
5.84995e-11
1.28328e-09
6.12524e-11
1.2645e-09
6.39615e-11
1.24493e-09
6.66238e-11
1.2246e-09
6.92356e-11
1.20353e-09
7.17932e-11
1.18172e-09
7.42923e-11
1.1592e-09
7.67287e-11
1.13599e-09
7.90988e-11
1.1121e-09
8.13983e-11
1.08757e-09
8.36227e-11
1.06242e-09
8.57667e-11
1.03666e-09
8.78253e-11
1.01033e-09
8.97934e-11
9.83458e-10
9.16663e-11
9.56073e-10
9.34384e-11
9.28204e-10
9.51034e-11
8.99884e-10
9.66552e-11
8.7115e-10
9.80878e-11
8.42039e-10
9.93956e-11
8.1259e-10
1.00572e-10
7.82842e-10
1.01609e-10
7.52838e-10
1.02501e-10
7.22624e-10
1.03239e-10
6.92247e-10
1.03819e-10
6.61755e-10
1.04231e-10
6.31197e-10
1.04468e-10
6.00628e-10
1.04521e-10
5.70103e-10
1.04384e-10
5.3968e-10
1.04049e-10
5.09417e-10
1.03508e-10
4.79376e-10
1.02752e-10
4.49623e-10
1.0177e-10
4.20222e-10
1.00558e-10
3.9124e-10
9.91089e-11
3.62748e-10
9.74144e-11
3.34822e-10
9.54642e-11
3.07532e-10
9.32504e-11
2.8095e-10
9.0769e-11
2.55155e-10
8.80148e-11
2.30227e-10
8.49804e-11
2.06241e-10
8.16616e-11
1.83272e-10
7.80579e-11
1.61402e-10
7.41687e-11
1.40706e-10
6.99945e-11
1.21258e-10
6.55404e-11
1.03126e-10
6.08149e-11
8.63776e-11
5.58305e-11
7.10718e-11
5.06093e-11
5.72602e-11
4.51803e-11
4.49811e-11
3.95777e-11
3.42645e-11
3.3855e-11
2.51171e-11
2.80796e-11
1.75236e-11
2.23389e-11
1.14489e-11
1.67535e-11
6.82465e-12
1.14682e-11
3.53897e-12
6.67741e-12
1.44986e-12
2.62838e-12
3.46278e-13
-3.72265e-13
-2.26905e-14
-1.93263e-12
-1.53407e-12
1.90385e-13
1.32733e-12
1.11142e-12
9.87442e-13
3.03618e-12
-1.5939e-12
6.18624e-12
-5.8381e-12
1.07478e-11
-1.13027e-11
1.68486e-11
-1.76421e-11
2.45856e-11
-2.4568e-11
3.40252e-11
-3.18547e-11
4.51959e-11
-3.93239e-11
5.81116e-11
-4.68347e-11
7.27573e-11
-5.42794e-11
8.91035e-11
-6.15709e-11
1.07109e-10
-6.86459e-11
1.26716e-10
-7.54555e-11
1.47861e-10
-8.1961e-11
1.70474e-10
-8.8137e-11
1.94476e-10
-9.39654e-11
2.19787e-10
-9.94322e-11
2.46326e-10
-1.04531e-10
2.74007e-10
-1.09258e-10
3.02743e-10
-1.13615e-10
3.32448e-10
-1.17602e-10
3.63038e-10
-1.21225e-10
3.94426e-10
-1.24489e-10
4.26529e-10
-1.27402e-10
4.59265e-10
-1.29972e-10
4.92554e-10
-1.32208e-10
5.26317e-10
-1.3412e-10
5.60477e-10
-1.35718e-10
5.94961e-10
-1.37011e-10
6.29696e-10
-1.38011e-10
6.64613e-10
-1.38728e-10
6.99645e-10
-1.39172e-10
7.34726e-10
-1.39354e-10
7.69795e-10
-1.39284e-10
8.04791e-10
-1.38973e-10
8.39656e-10
-1.38431e-10
8.74334e-10
-1.37667e-10
9.08774e-10
-1.36692e-10
9.42924e-10
-1.35516e-10
9.76736e-10
-1.34147e-10
1.01016e-09
-1.32594e-10
1.04316e-09
-1.30868e-10
1.07569e-09
-1.28975e-10
1.10771e-09
-1.26924e-10
1.13918e-09
-1.24724e-10
1.17007e-09
-1.22383e-10
1.20034e-09
-1.19907e-10
1.22995e-09
-1.17304e-10
1.25888e-09
-1.14581e-10
1.28711e-09
-1.11745e-10
1.31459e-09
-1.08802e-10
1.34132e-09
-1.05759e-10
1.36725e-09
-1.02621e-10
1.39237e-09
-9.93944e-11
1.41666e-09
-9.60844e-11
1.4401e-09
-9.26963e-11
1.46266e-09
-8.9235e-11
1.48434e-09
-8.57052e-11
1.50511e-09
-8.21117e-11
1.52496e-09
-7.84588e-11
1.54388e-09
-7.47508e-11
1.56184e-09
-7.09916e-11
1.57885e-09
-6.71848e-11
1.59488e-09
-6.33339e-11
1.60993e-09
-5.94426e-11
1.62398e-09
-5.5514e-11
1.63704e-09
-5.15515e-11
1.64908e-09
-4.7558e-11
1.66011e-09
-4.35363e-11
1.67011e-09
-3.9489e-11
1.67908e-09
-3.54189e-11
1.68702e-09
-3.13285e-11
1.69392e-09
-2.72204e-11
1.69977e-09
-2.3097e-11
1.70458e-09
-1.89605e-11
1.70833e-09
-1.48132e-11
1.71103e-09
-1.06573e-11
1.71268e-09
-6.49485e-12
1.71328e-09
-2.32825e-12
1.71281e-09
1.84034e-12
1.71129e-09
6.0088e-12
1.70872e-09
1.01751e-11
1.70509e-09
1.43371e-11
1.70041e-09
1.84926e-11
1.69468e-09
2.26393e-11
1.6879e-09
2.67747e-11
1.68008e-09
3.08965e-11
1.67122e-09
3.50022e-11
1.66133e-09
3.90894e-11
1.6504e-09
4.31557e-11
1.63846e-09
4.71981e-11
1.62549e-09
5.12137e-11
1.61152e-09
5.51994e-11
1.59655e-09
5.91522e-11
1.5806e-09
6.30689e-11
1.56366e-09
6.69464e-11
1.54575e-09
7.07808e-11
1.52689e-09
7.45683e-11
1.50708e-09
7.83049e-11
1.48635e-09
8.19864e-11
1.4647e-09
8.56089e-11
1.44216e-09
8.91681e-11
1.41874e-09
9.26592e-11
1.39445e-09
9.60768e-11
1.36933e-09
9.94156e-11
1.34339e-09
1.0267e-10
1.31665e-09
1.05836e-10
1.28914e-09
1.08907e-10
1.26089e-09
1.11876e-10
1.23192e-09
1.14737e-10
1.20226e-09
1.17483e-10
1.17194e-09
1.20108e-10
1.14101e-09
1.22606e-10
1.10948e-09
1.24968e-10
1.0774e-09
1.27186e-10
1.0448e-09
1.29252e-10
1.01173e-09
1.31159e-10
9.78223e-10
1.32899e-10
9.44332e-10
1.34463e-10
9.101e-10
1.35841e-10
8.75576e-10
1.37024e-10
8.40812e-10
1.38003e-10
8.05862e-10
1.3877e-10
7.70781e-10
1.39313e-10
7.35625e-10
1.39623e-10
7.00457e-10
1.39689e-10
6.65341e-10
1.39501e-10
6.30341e-10
1.3905e-10
5.95522e-10
1.38324e-10
5.60957e-10
1.37314e-10
5.2672e-10
1.36009e-10
4.92886e-10
1.34397e-10
4.59527e-10
1.32468e-10
4.26721e-10
1.30215e-10
3.94556e-10
1.27628e-10
3.63114e-10
1.24696e-10
3.32473e-10
1.2141e-10
3.02718e-10
1.17766e-10
2.7394e-10
1.13757e-10
2.46226e-10
1.09379e-10
2.19656e-10
1.04628e-10
1.94317e-10
9.95062e-11
1.70296e-10
9.40162e-11
1.4767e-10
8.81658e-11
1.26515e-10
8.19674e-11
1.06905e-10
7.54401e-11
8.89038e-11
6.86128e-11
7.25615e-11
6.15196e-11
5.79262e-11
5.42106e-11
4.50272e-11
4.67543e-11
3.3873e-11
3.92325e-11
2.44573e-11
3.17595e-11
1.67391e-11
2.44669e-11
1.06629e-11
1.7545e-11
6.12522e-12
1.12128e-11
2.99467e-12
5.757e-12
1.08939e-12
1.53134e-12
1.86746e-13
-1.02823e-12
-1.34816e-12
4.11812e-13
9.15844e-13
1.89637e-12
-5.04361e-13
4.67971e-12
-4.3791e-12
8.94277e-12
-1.00994e-11
1.48295e-11
-1.71942e-11
2.24587e-11
-2.52727e-11
3.19082e-11
-3.40194e-11
4.32341e-11
-4.31796e-11
5.64584e-11
-5.25491e-11
7.1587e-11
-6.19631e-11
8.86046e-11
-7.12941e-11
1.07473e-10
-8.04396e-11
1.2815e-10
-8.93206e-11
1.50574e-10
-9.78771e-11
1.74675e-10
-1.06061e-10
2.00379e-10
-1.1384e-10
2.27604e-10
-1.21189e-10
2.56261e-10
-1.28091e-10
2.86263e-10
-1.34534e-10
3.17518e-10
-1.40514e-10
3.49932e-10
-1.4603e-10
3.83413e-10
-1.51083e-10
4.17867e-10
-1.55678e-10
4.53202e-10
-1.59823e-10
4.89326e-10
-1.63525e-10
5.26148e-10
-1.66795e-10
5.63582e-10
-1.69641e-10
6.01539e-10
-1.72078e-10
6.39937e-10
-1.74116e-10
6.78693e-10
-1.75767e-10
7.17727e-10
-1.77045e-10
7.56962e-10
-1.77963e-10
7.96325e-10
-1.78534e-10
8.35742e-10
-1.7877e-10
8.75144e-10
-1.78686e-10
9.14465e-10
-1.78293e-10
9.53639e-10
-1.77604e-10
9.92605e-10
-1.76633e-10
1.0313e-09
-1.75391e-10
1.06968e-09
-1.73891e-10
1.10768e-09
-1.72143e-10
1.14524e-09
-1.70161e-10
1.18233e-09
-1.67955e-10
1.21889e-09
-1.65536e-10
1.25488e-09
-1.62914e-10
1.29026e-09
-1.601e-10
1.32498e-09
-1.57103e-10
1.35901e-09
-1.53934e-10
1.39231e-09
-1.50602e-10
1.42484e-09
-1.47115e-10
1.45658e-09
-1.43482e-10
1.48749e-09
-1.39711e-10
1.51754e-09
-1.35811e-10
1.54671e-09
-1.31789e-10
1.57496e-09
-1.27652e-10
1.60229e-09
-1.23407e-10
1.62865e-09
-1.19062e-10
1.65404e-09
-1.14621e-10
1.67843e-09
-1.10092e-10
1.7018e-09
-1.05481e-10
1.72413e-09
-1.00793e-10
1.74541e-09
-9.6034e-11
1.76563e-09
-9.12081e-11
1.78477e-09
-8.63205e-11
1.80281e-09
-8.13759e-11
1.81975e-09
-7.63788e-11
1.83557e-09
-7.13335e-11
1.85026e-09
-6.62442e-11
1.86382e-09
-6.11145e-11
1.87623e-09
-5.59482e-11
1.88749e-09
-5.07487e-11
1.89759e-09
-4.55196e-11
1.90653e-09
-4.02641e-11
1.91429e-09
-3.49857e-11
1.92088e-09
-2.96873e-11
1.92629e-09
-2.4372e-11
1.93052e-09
-1.90425e-11
1.93357e-09
-1.37018e-11
1.93543e-09
-8.35266e-12
1.9361e-09
-2.99811e-12
1.93558e-09
2.35902e-12
1.93387e-09
7.716e-12
1.93097e-09
1.30701e-11
1.92689e-09
1.84187e-11
1.92163e-09
2.37588e-11
1.91518e-09
2.90874e-11