/*--------------------------------*- C++ -*----------------------------------*\
  =========                 |
  \\      /  F ield         | OpenFOAM: The Open Source CFD Toolbox
   \\    /   O peration     | Website:  https://openfoam.org
    \\  /    A nd           | Version:  7
     \\/     M anipulation  |
\*---------------------------------------------------------------------------*/
FoamFile
{
    version     2.0;
    format      ascii;
    class       volScalarField;
    location    "0.425";
    object      p;
}
// * * * * * * * * * * * * * * * * * * * * * * * * * * * * * * * * * * * * * //

dimensions      [0 2 -2 0 0 0 0];

internalField   nonuniform List<scalar> 
51200
(
-1.63572e-07
-8.75569e-07
1.74788e-07
3.1954e-06
7.94453e-06
1.41451e-05
2.15057e-05
2.97422e-05
3.86034e-05
4.78746e-05
5.73577e-05
6.6873e-05
7.62679e-05
8.5413e-05
9.4199e-05
0.000102532
0.000110329
0.000117514
0.000124026
0.000129809
0.000134816
0.000139007
0.000142345
0.0001448
0.000146345
0.000146961
0.000146634
0.000145354
0.000143117
0.000139921
0.000135766
0.000130655
0.000124588
0.000117569
0.000109602
0.000100692
9.08497e-05
8.00869e-05
6.84197e-05
5.58652e-05
4.24407e-05
2.81633e-05
1.30501e-05
-2.88154e-06
-1.96134e-05
-3.71268e-05
-5.54034e-05
-7.44241e-05
-9.41694e-05
-0.000114619
-0.000135751
-0.000157543
-0.000179974
-0.000203023
-0.000226668
-0.000250887
-0.000275658
-0.000300958
-0.000326763
-0.00035305
-0.000379796
-0.000406978
-0.000434573
-0.00046256
-0.000490915
-0.000519615
-0.000548637
-0.00057796
-0.00060756
-0.000637414
-0.000667501
-0.000697799
-0.000728285
-0.000758939
-0.000789739
-0.000820662
-0.000851687
-0.000882792
-0.000913953
-0.000945147
-0.000976352
-0.00100755
-0.0010387
-0.0010698
-0.00110083
-0.00113175
-0.00116255
-0.0011932
-0.00122369
-0.00125399
-0.00128407
-0.00131392
-0.00134352
-0.00137283
-0.00140184
-0.00143053
-0.00145887
-0.00148684
-0.00151442
-0.00154159
-0.00156831
-0.00159458
-0.00162036
-0.00164563
-0.00167038
-0.00169457
-0.00171819
-0.0017412
-0.00176361
-0.00178537
-0.00180646
-0.00182688
-0.00184659
-0.00186557
-0.00188381
-0.00190128
-0.00191796
-0.00193384
-0.0019489
-0.00196311
-0.00197646
-0.00198894
-0.00200053
-0.00201121
-0.00202098
-0.00202981
-0.00203771
-0.00204465
-0.00205065
-0.00205568
-0.00205975
-0.00206285
-0.00206499
-0.00206618
-0.00206642
-0.00206571
-0.00206409
-0.00206156
-0.00205815
-0.00205389
-0.00204882
-0.00204296
-0.00203638
-0.00202913
-0.00202126
-0.00201287
-0.00200403
-0.00199484
-0.00198542
-0.00197589
-0.00196641
-0.00195715
-0.0019483
-0.0019401
-0.00193277
-0.00192655
-0.00192179
-0.00191886
-0.00191803
-0.00191889
3.11371e-07
-3.03302e-07
7.70292e-07
3.5065e-06
7.6527e-06
1.30231e-05
1.94125e-05
2.65959e-05
3.43567e-05
4.25077e-05
5.08786e-05
5.93096e-05
6.76603e-05
7.58081e-05
8.36462e-05
9.10829e-05
9.80373e-05
0.000104438
0.000110223
0.000115338
0.000119733
0.000123364
0.000126194
0.000128191
0.000129329
0.000129586
0.000128948
0.000127404
0.000124949
0.000121577
0.000117288
0.00011208
0.000105954
9.89122e-05
9.09564e-05
8.20916e-05
7.2325e-05
6.16675e-05
5.01332e-05
3.77383e-05
2.44999e-05
1.04343e-05
-4.4428e-06
-2.01159e-05
-3.65689e-05
-5.37847e-05
-7.17453e-05
-9.04322e-05
-0.000109826
-0.000129908
-0.000150658
-0.000172055
-0.000194078
-0.000216706
-0.000239918
-0.000263694
-0.000288011
-0.000312847
-0.000338179
-0.000363986
-0.000390244
-0.00041693
-0.000444023
-0.0004715
-0.000499341
-0.000527521
-0.00055602
-0.000584815
-0.000613883
-0.000643202
-0.00067275
-0.000702506
-0.000732448
-0.000762555
-0.000792806
-0.00082318
-0.000853654
-0.000884206
-0.000914814
-0.000945454
-0.000976105
-0.00100674
-0.00103735
-0.00106789
-0.00109836
-0.00112873
-0.00115898
-0.00118909
-0.00121903
-0.00124878
-0.00127833
-0.00130764
-0.0013367
-0.00136548
-0.00139397
-0.00142213
-0.00144996
-0.00147742
-0.00150449
-0.00153115
-0.00155739
-0.00158317
-0.00160847
-0.00163328
-0.00165756
-0.00168131
-0.00170449
-0.00172709
-0.00174907
-0.00177043
-0.00179115
-0.00181119
-0.00183055
-0.00184919
-0.00186711
-0.00188428
-0.00190068
-0.0019163
-0.00193112
-0.00194512
-0.00195829
-0.00197061
-0.00198206
-0.00199264
-0.00200233
-0.00201112
-0.002019
-0.00202598
-0.00203203
-0.00203716
-0.00204137
-0.00204465
-0.00204702
-0.00204847
-0.00204902
-0.00204868
-0.00204746
-0.00204539
-0.0020425
-0.0020388
-0.00203434
-0.00202916
-0.00202331
-0.00201685
-0.00200983
-0.00200233
-0.00199444
-0.00198626
-0.00197788
-0.00196944
-0.00196107
-0.00195291
-0.00194516
-0.00193803
-0.00193171
-0.00192635
-0.00192211
-0.00191927
-0.00191826
-0.0019192
-7.67148e-07
-1.36902e-06
-2.93476e-07
2.29146e-06
6.09543e-06
1.09558e-05
1.67106e-05
2.31784e-05
3.01718e-05
3.75217e-05
4.50772e-05
5.26963e-05
6.02515e-05
6.76302e-05
7.47312e-05
8.14658e-05
8.7756e-05
9.35322e-05
9.87345e-05
0.000103309
0.000107206
0.00011038
0.000112793
0.000114412
0.000115209
0.000115165
0.000114265
0.000112496
0.000109853
0.000106329
0.000101922
9.6628e-05
9.04464e-05
8.33774e-05
7.54229e-05
6.65871e-05
5.68766e-05
4.63006e-05
3.48716e-05
2.26044e-05
9.51494e-06
-4.38063e-06
-1.90672e-05
-3.45302e-05
-5.07551e-05
-6.77263e-05
-8.54271e-05
-0.00010384
-0.000122945
-0.000142724
-0.000163158
-0.000184227
-0.000205911
-0.00022819
-0.000251043
-0.000274449
-0.000298387
-0.000322836
-0.000347774
-0.000373178
-0.000399026
-0.000425297
-0.000451969
-0.00047902
-0.000506428
-0.000534173
-0.000562232
-0.000590584
-0.000619205
-0.000648073
-0.000677168
-0.000706468
-0.000735952
-0.000765599
-0.000795388
-0.000825299
-0.000855309
-0.000885396
-0.000915537
-0.000945711
-0.000975894
-0.00100607
-0.0010362
-0.00106628
-0.00109629
-0.00112619
-0.00115598
-0.00118562
-0.0012151
-0.0012444
-0.00127349
-0.00130235
-0.00133096
-0.0013593
-0.00138734
-0.00141507
-0.00144246
-0.00146949
-0.00149614
-0.00152238
-0.00154821
-0.00157358
-0.00159849
-0.0016229
-0.00164681
-0.00167018
-0.001693
-0.00171524
-0.00173689
-0.00175792
-0.00177831
-0.00179805
-0.00181711
-0.00183548
-0.00185314
-0.00187006
-0.00188624
-0.00190165
-0.00191628
-0.0019301
-0.00194312
-0.00195531
-0.00196666
-0.00197715
-0.00198679
-0.00199555
-0.00200343
-0.00201043
-0.00201654
-0.00202176
-0.00202609
-0.00202953
-0.00203209
-0.00203376
-0.00203458
-0.00203454
-0.00203366
-0.00203197
-0.00202949
-0.00202626
-0.00202231
-0.00201768
-0.00201241
-0.00200657
-0.00200022
-0.00199343
-0.00198628
-0.00197886
-0.00197128
-0.00196365
-0.00195609
-0.00194874
-0.00194174
-0.0019353
-0.00192961
-0.00192485
-0.00192107
-0.00191838
-0.00191719
-0.00191796
-3.76461e-06
-4.07954e-06
-2.85467e-06
-2.68035e-07
3.40061e-06
7.99413e-06
1.33656e-05
1.93636e-05
2.58285e-05
3.26082e-05
3.95663e-05
4.65754e-05
5.35197e-05
6.02964e-05
6.6812e-05
7.29825e-05
7.8734e-05
8.4e-05
8.87214e-05
9.28454e-05
9.63231e-05
9.91097e-05
0.000101166
0.00010246
0.000102965
0.000102659
0.000101529
9.95618e-05
9.6751e-05
9.30901e-05
8.85744e-05
8.31998e-05
7.69634e-05
6.98641e-05
6.19032e-05
5.30845e-05
4.34145e-05
3.29022e-05
2.15586e-05
9.39694e-06
-3.56815e-06
-1.73214e-05
-3.18481e-05
-4.71341e-05
-6.31657e-05
-7.99285e-05
-9.74069e-05
-0.000115584
-0.000134441
-0.000153961
-0.000174123
-0.000194908
-0.000216298
-0.000238274
-0.000260814
-0.0002839
-0.000307509
-0.00033162
-0.000356213
-0.000381265
-0.000406755
-0.000432662
-0.000458965
-0.000485642
-0.000512672
-0.000540034
-0.000567706
-0.000595667
-0.000623895
-0.000652368
-0.000681064
-0.000709962
-0.000739043
-0.000768285
-0.000797667
-0.000827169
-0.000856769
-0.000886446
-0.000916176
-0.000945938
-0.000975709
-0.00100547
-0.00103519
-0.00106486
-0.00109446
-0.00112395
-0.00115333
-0.00118257
-0.00121164
-0.00124054
-0.00126922
-0.00129769
-0.0013259
-0.00135385
-0.0013815
-0.00140884
-0.00143585
-0.00146251
-0.00148879
-0.00151467
-0.00154013
-0.00156515
-0.00158971
-0.00161379
-0.00163736
-0.00166041
-0.00168291
-0.00170485
-0.0017262
-0.00174694
-0.00176706
-0.00178654
-0.00180535
-0.00182348
-0.00184091
-0.00185763
-0.00187361
-0.00188884
-0.00190331
-0.00191699
-0.00192988
-0.00194197
-0.00195323
-0.00196366
-0.00197326
-0.001982
-0.00198989
-0.00199692
-0.00200309
-0.00200839
-0.00201283
-0.00201641
-0.00201913
-0.00202101
-0.00202205
-0.00202227
-0.00202169
-0.00202032
-0.00201821
-0.00201536
-0.00201183
-0.00200765
-0.00200288
-0.00199755
-0.00199174
-0.00198551
-0.00197895
-0.00197213
-0.00196515
-0.00195812
-0.00195117
-0.0019444
-0.00193794
-0.00193193
-0.00192656
-0.00192205
-0.0019185
-0.00191594
-0.00191459
-0.00191491
-8.48186e-06
-8.19177e-06
-6.61864e-06
-3.89101e-06
-2.18967e-07
4.25433e-06
9.39186e-06
1.50605e-05
2.11269e-05
2.74588e-05
3.39349e-05
4.04415e-05
4.68732e-05
5.31361e-05
5.91445e-05
6.48202e-05
7.00941e-05
7.49039e-05
7.91923e-05
8.2907e-05
8.60005e-05
8.84292e-05
9.01547e-05
9.1145e-05
9.13744e-05
9.08227e-05
8.94747e-05
8.73191e-05
8.43476e-05
8.05536e-05
7.59314e-05
7.0476e-05
6.41832e-05
5.70503e-05
4.90777e-05
4.02691e-05
3.06313e-05
2.01733e-05
8.90553e-06
-3.16032e-06
-1.60113e-05
-2.96337e-05
-4.40132e-05
-5.9136e-05
-7.49887e-05
-9.15577e-05
-0.000108828
-0.000126785
-0.000145409
-0.000164684
-0.00018459
-0.000205109
-0.000226222
-0.000247911
-0.000270155
-0.000292936
-0.000316232
-0.000340024
-0.000364288
-0.000389006
-0.000414155
-0.000439715
-0.000465665
-0.000491985
-0.000518654
-0.00054565
-0.000572953
-0.000600541
-0.000628392
-0.000656485
-0.000684799
-0.000713313
-0.000742007
-0.000770861
-0.000799853
-0.000828964
-0.000858171
-0.000887454
-0.000916789
-0.000946156
-0.000975532
-0.0010049
-0.00103423
-0.0010635
-0.0010927
-0.0011218
-0.00115079
-0.00117964
-0.00120832
-0.00123683
-0.00126514
-0.00129322
-0.00132105
-0.00134862
-0.00137591
-0.00140288
-0.00142953
-0.00145583
-0.00148175
-0.00150728
-0.0015324
-0.00155709
-0.00158132
-0.00160507
-0.00162833
-0.00165107
-0.00167327
-0.00169492
-0.00171599
-0.00173647
-0.00175633
-0.00177555
-0.00179413
-0.00181204
-0.00182926
-0.00184578
-0.00186158
-0.00187665
-0.00189097
-0.00190452
-0.0019173
-0.00192929
-0.00194048
-0.00195085
-0.00196041
-0.00196914
-0.00197704
-0.00198411
-0.00199033
-0.00199572
-0.00200027
-0.00200398
-0.00200687
-0.00200893
-0.00201019
-0.00201066
-0.00201035
-0.00200929
-0.0020075
-0.00200502
-0.00200188
-0.00199811
-0.00199377
-0.0019889
-0.00198357
-0.00197784
-0.00197179
-0.00196548
-0.00195901
-0.00195248
-0.00194599
-0.00193968
-0.00193365
-0.00192799
-0.00192282
-0.00191836
-0.00191478
-0.00191214
-0.00191054
-0.00191022
-1.46527e-05
-1.35279e-05
-1.14342e-05
-8.43157e-06
-4.6321e-06
-1.53387e-07
4.88034e-06
1.0349e-05
1.61381e-05
2.2135e-05
2.82346e-05
3.43376e-05
4.03487e-05
4.61819e-05
5.17597e-05
5.70101e-05
6.18686e-05
6.62767e-05
7.01799e-05
7.35275e-05
7.62735e-05
7.8376e-05
7.97978e-05
8.05079e-05
8.04818e-05
7.97001e-05
7.81482e-05
7.58148e-05
7.26909e-05
6.87694e-05
6.4044e-05
5.85088e-05
5.21586e-05
4.49897e-05
3.70015e-05
2.81973e-05
1.85841e-05
8.17124e-06
-3.03078e-06
-1.50112e-05
-2.77587e-05
-4.12613e-05
-5.5506e-05
-7.04795e-05
-8.61682e-05
-0.000102559
-0.000119637
-0.000137388
-0.000155796
-0.000174843
-0.00019451
-0.00021478
-0.000235634
-0.000257053
-0.00027902
-0.000301514
-0.000324515
-0.000348004
-0.000371959
-0.000396361
-0.000421187
-0.000446419
-0.000472036
-0.000498017
-0.000524343
-0.000550993
-0.000577945
-0.000605179
-0.000632672
-0.000660405
-0.000688356
-0.000716504
-0.000744831
-0.000773315
-0.000801936
-0.000830674
-0.000859508
-0.000888415
-0.000917375
-0.000946365
-0.000975364
-0.00100435
-0.0010333
-0.0010622
-0.00109103
-0.00111976
-0.00114837
-0.00117685
-0.00120517
-0.00123331
-0.00126125
-0.00128897
-0.00131644
-0.00134366
-0.00137059
-0.00139721
-0.00142352
-0.00144947
-0.00147506
-0.00150027
-0.00152506
-0.00154943
-0.00157335
-0.0015968
-0.00161976
-0.00164221
-0.00166413
-0.00168551
-0.00170632
-0.00172654
-0.00174616
-0.00176515
-0.00178351
-0.00180121
-0.00181824
-0.00183458
-0.00185021
-0.00186513
-0.00187931
-0.00189275
-0.00190542
-0.00191733
-0.00192845
-0.00193878
-0.00194831
-0.00195704
-0.00196495
-0.00197205
-0.00197834
-0.0019838
-0.00198846
-0.0019923
-0.00199534
-0.00199759
-0.00199905
-0.00199975
-0.0019997
-0.00199891
-0.00199743
-0.00199527
-0.00199248
-0.00198908
-0.00198513
-0.00198067
-0.00197575
-0.00197045
-0.00196483
-0.00195896
-0.00195291
-0.00194677
-0.00194065
-0.00193464
-0.00192889
-0.00192346
-0.00191844
-0.00191394
-0.00191015
-0.00190723
-0.00190518
-0.00190407
-2.19899e-05
-1.98881e-05
-1.71462e-05
-1.37489e-05
-9.70695e-06
-5.11317e-06
-7.26974e-08
5.30941e-06
1.09334e-05
1.67024e-05
2.25263e-05
2.83198e-05
3.39986e-05
3.94841e-05
4.47061e-05
4.95999e-05
5.41056e-05
5.81682e-05
6.17356e-05
6.47592e-05
6.71951e-05
6.90038e-05
7.01508e-05
7.06062e-05
7.03465e-05
6.93535e-05
6.76132e-05
6.51145e-05
6.18481e-05
5.78061e-05
5.29816e-05
4.73681e-05
4.09599e-05
3.3753e-05
2.57461e-05
1.69418e-05
7.34657e-06
-3.02989e-06
-1.41767e-05
-2.60832e-05
-3.87389e-05
-5.21334e-05
-6.62557e-05
-8.10934e-05
-9.66335e-05
-0.000112862
-0.000129765
-0.000147329
-0.000165536
-0.000184372
-0.000203818
-0.000223858
-0.000244471
-0.000265641
-0.00028735
-0.000309577
-0.000332303
-0.00035551
-0.000379176
-0.000403282
-0.000427806
-0.000452731
-0.000478035
-0.0005037
-0.000529704
-0.000556028
-0.000582651
-0.000609551
-0.000636708
-0.000664101
-0.00069171
-0.000719515
-0.000747495
-0.00077563
-0.000803902
-0.000832289
-0.00086077
-0.000889323
-0.000917928
-0.000946563
-0.000975207
-0.00100384
-0.00103244
-0.00106098
-0.00108945
-0.00111783
-0.00114609
-0.00117422
-0.00120219
-0.00122998
-0.00125758
-0.00128496
-0.0013121
-0.00133898
-0.00136558
-0.00139188
-0.00141786
-0.00144349
-0.00146877
-0.00149367
-0.00151816
-0.00154223
-0.00156586
-0.00158902
-0.0016117
-0.00163389
-0.00165555
-0.00167667
-0.00169723
-0.00171722
-0.00173662
-0.0017554
-0.00177356
-0.00179107
-0.00180792
-0.00182409
-0.00183958
-0.00185436
-0.00186842
-0.00188175
-0.00189433
-0.00190616
-0.00191723
-0.00192752
-0.00193703
-0.00194575
-0.00195369
-0.00196083
-0.00196717
-0.00197272
-0.00197747
-0.00198144
-0.00198462
-0.00198703
-0.00198869
-0.00198959
-0.00198977
-0.00198924
-0.00198803
-0.00198617
-0.00198368
-0.00198061
-0.001977
-0.00197289
-0.00196833
-0.00196339
-0.00195812
-0.00195259
-0.00194689
-0.00194107
-0.00193521
-0.00192941
-0.00192379
-0.00191845
-0.00191346
-0.00190888
-0.00190481
-0.00190145
-0.00189877
-0.00189672
-3.02187e-05
-2.70588e-05
-2.35874e-05
-1.97035e-05
-1.53191e-05
-1.05128e-05
-5.37227e-06
1.7192e-08
5.57129e-06
1.12066e-05
1.68444e-05
2.24118e-05
2.78368e-05
3.30491e-05
3.79845e-05
4.25846e-05
4.67947e-05
5.05631e-05
5.38408e-05
5.65816e-05
5.87434e-05
6.02897e-05
6.11887e-05
6.14135e-05
6.09417e-05
5.97559e-05
5.78427e-05
5.51914e-05
5.17925e-05
4.76374e-05
4.27183e-05
3.70281e-05
3.05611e-05
2.33137e-05
1.52848e-05
6.47652e-06
-3.10546e-06
-1.34523e-05
-2.45531e-05
-3.63968e-05
-4.89728e-05
-6.22715e-05
-7.62834e-05
-9.09978e-05
-0.000106403
-0.000122485
-0.00013923
-0.000156622
-0.000174646
-0.000193288
-0.00021253
-0.000232356
-0.000252748
-0.000273688
-0.000295157
-0.000317137
-0.000339608
-0.000362552
-0.000385948
-0.000409778
-0.000434021
-0.000458659
-0.000483671
-0.000509039
-0.000534742
-0.000560761
-0.000587075
-0.000613663
-0.000640505
-0.000667579
-0.000694867
-0.000722348
-0.000750002
-0.00077781
-0.000805753
-0.000833809
-0.000861958
-0.000890179
-0.000918451
-0.000946752
-0.000975061
-0.00100336
-0.00103162
-0.00105983
-0.00108797
-0.00111602
-0.00114395
-0.00117175
-0.00119939
-0.00122686
-0.00125413
-0.00128119
-0.00130801
-0.00133458
-0.00136087
-0.00138686
-0.00141254
-0.00143788
-0.00146286
-0.00148747
-0.00151168
-0.00153547
-0.00155883
-0.00158173
-0.00160415
-0.00162609
-0.0016475
-0.00166839
-0.00168873
-0.0017085
-0.00172769
-0.00174628
-0.00176425
-0.00178159
-0.00179828
-0.00181431
-0.00182965
-0.00184431
-0.00185826
-0.00187149
-0.001884
-0.00189576
-0.00190678
-0.00191704
-0.00192654
-0.00193527
-0.00194322
-0.0019504
-0.0019568
-0.00196242
-0.00196728
-0.00197136
-0.00197468
-0.00197725
-0.00197907
-0.00198017
-0.00198056
-0.00198026
-0.0019793
-0.00197769
-0.00197548
-0.00197269
-0.00196937
-0.00196556
-0.0019613
-0.00195665
-0.00195167
-0.00194641
-0.00194096
-0.00193537
-0.00192971
-0.00192405
-0.00191847
-0.00191308
-0.00190799
-0.00190323
-0.00189884
-0.00189497
-0.00189155
-0.00188844
-3.9091e-05
-3.48268e-05
-3.05774e-05
-2.61479e-05
-2.13478e-05
-1.6249e-05
-1.09282e-05
-5.45147e-06
1.13475e-07
5.69643e-06
1.12277e-05
1.66437e-05
2.18841e-05
2.6889e-05
3.16003e-05
3.59645e-05
3.99309e-05
4.34515e-05
4.6481e-05
4.89765e-05
5.08984e-05
5.22126e-05
5.28902e-05
5.29073e-05
5.22436e-05
5.08827e-05
4.88118e-05
4.60202e-05
4.24984e-05
3.82375e-05
3.32286e-05
2.7464e-05
2.09379e-05
1.36475e-05
5.59254e-06
-3.22428e-06
-1.27977e-05
-2.31201e-05
-3.41818e-05
-4.5972e-05
-5.84799e-05
-7.16956e-05
-8.561e-05
-0.000100214
-0.000115497
-0.000131445
-0.000148046
-0.000165284
-0.000183142
-0.000201607
-0.000220661
-0.000240291
-0.000260478
-0.000281205
-0.000302453
-0.000324204
-0.00034644
-0.00036914
-0.000392286
-0.000415859
-0.00043984
-0.000464211
-0.000488951
-0.000514043
-0.000539465
-0.0005652
-0.000591225
-0.000617521
-0.000644067
-0.000670843
-0.000697829
-0.000725007
-0.000752356
-0.000779858
-0.000807492
-0.000835238
-0.000863076
-0.000890984
-0.000918943
-0.00094693
-0.000974926
-0.00100291
-0.00103086
-0.00105876
-0.00108659
-0.00111432
-0.00114194
-0.00116943
-0.00119677
-0.00122393
-0.0012509
-0.00127766
-0.00130419
-0.00133046
-0.00135646
-0.00138216
-0.00140756
-0.00143262
-0.00145733
-0.00148167
-0.00150561
-0.00152915
-0.00155225
-0.00157491
-0.0015971
-0.0016188
-0.00163999
-0.00166066
-0.00168079
-0.00170037
-0.00171937
-0.00173778
-0.00175558
-0.00177276
-0.0017893
-0.00180519
-0.00182042
-0.00183496
-0.00184882
-0.00186197
-0.0018744
-0.00188611
-0.00189709
-0.00190733
-0.00191681
-0.00192555
-0.00193353
-0.00194075
-0.00194721
-0.00195291
-0.00195785
-0.00196204
-0.00196549
-0.0019682
-0.00197018
-0.00197145
-0.00197203
-0.00197194
-0.00197119
-0.00196982
-0.00196784
-0.0019653
-0.00196222
-0.00195866
-0.00195466
-0.00195025
-0.00194549
-0.00194044
-0.00193516
-0.00192972
-0.00192418
-0.00191858
-0.001913
-0.0019075
-0.00190219
-0.00189713
-0.00189237
-0.00188796
-0.00188374
-0.0018795
-4.84032e-05
-4.30096e-05
-3.79489e-05
-3.29335e-05
-2.76675e-05
-2.22157e-05
-1.66485e-05
-1.10169e-05
-5.37358e-06
2.2512e-07
5.71916e-06
1.10513e-05
1.61701e-05
2.10256e-05
2.55676e-05
2.97471e-05
3.35172e-05
3.68328e-05
3.96521e-05
4.19362e-05
4.36494e-05
4.47602e-05
4.52422e-05
4.50741e-05
4.4238e-05
4.27192e-05
4.05051e-05
3.75852e-05
3.39498e-05
2.95893e-05
2.44947e-05
1.86581e-05
1.20736e-05
4.73883e-06
-3.34552e-06
-1.21758e-05
-2.17464e-05
-3.20503e-05
-4.30791e-05
-5.48232e-05
-6.72726e-05
-8.04171e-05
-9.42474e-05
-0.000108754
-0.000123928
-0.000139756
-0.000156227
-0.000173324
-0.000191032
-0.000209336
-0.000228221
-0.000247671
-0.00026767
-0.000288201
-0.000309246
-0.000330787
-0.000352805
-0.00037528
-0.000398195
-0.000421531
-0.00044527
-0.000469392
-0.000493881
-0.000518715
-0.000543877
-0.000569346
-0.000595103
-0.000621126
-0.000647397
-0.000673894
-0.0007006
-0.000727495
-0.000754559
-0.000781774
-0.000809119
-0.000836576
-0.000864122
-0.000891739
-0.000919404
-0.000947099
-0.000974801
-0.00100249
-0.00103015
-0.00105776
-0.00108529
-0.00111273
-0.00114007
-0.00116727
-0.00119432
-0.0012212
-0.00124789
-0.00127436
-0.00130061
-0.00132661
-0.00135234
-0.00137778
-0.00140291
-0.00142771
-0.00145217
-0.00147626
-0.00149996
-0.00152326
-0.00154613
-0.00156856
-0.00159052
-0.00161201
-0.001633
-0.00165347
-0.00167342
-0.00169281
-0.00171164
-0.00172988
-0.00174753
-0.00176457
-0.00178098
-0.00179675
-0.00181186
-0.00182631
-0.00184008
-0.00185315
-0.00186553
-0.0018772
-0.00188814
-0.00189836
-0.00190784
-0.00191659
-0.0019246
-0.00193186
-0.00193837
-0.00194414
-0.00194917
-0.00195347
-0.00195703
-0.00195987
-0.001962
-0.00196343
-0.00196418
-0.00196427
-0.00196371
-0.00196254
-0.00196077
-0.00195843
-0.00195557
-0.00195221
-0.00194841
-0.00194419
-0.00193961
-0.00193471
-0.00192954
-0.00192417
-0.00191866
-0.00191307
-0.00190742
-0.00190177
-0.00189619
-0.00189075
-0.00188552
-0.00188054
-0.00187551
-0.00187013
-5.7973e-05
-5.14494e-05
-4.55578e-05
-3.99272e-05
-3.41587e-05
-2.83085e-05
-2.2442e-05
-1.65987e-05
-1.08199e-05
-5.14946e-06
3.64414e-07
5.6717e-06
1.07261e-05
1.54849e-05
1.99055e-05
2.39447e-05
2.75597e-05
3.07088e-05
3.33531e-05
3.54575e-05
3.69905e-05
3.79241e-05
3.82347e-05
3.79031e-05
3.69137e-05
3.52532e-05
3.291e-05
2.98732e-05
2.61326e-05
2.16785e-05
1.65017e-05
1.05947e-05
3.95237e-06
-3.42735e-06
-1.15432e-05
-2.03909e-05
-2.99645e-05
-4.02566e-05
-5.12597e-05
-6.29653e-05
-7.53645e-05
-8.84479e-05
-0.000102206
-0.000116629
-0.000131707
-0.000147429
-0.000163782
-0.000180753
-0.000198326
-0.000216485
-0.000235217
-0.000254504
-0.000274332
-0.000294684
-0.000315543
-0.000336891
-0.000358709
-0.000380978
-0.000403681
-0.000426799
-0.000450314
-0.000474208
-0.000498463
-0.000523061
-0.000547981
-0.000573205
-0.000598712
-0.000624483
-0.000650497
-0.000676736
-0.000703181
-0.000729812
-0.000756611
-0.000783559
-0.000810637
-0.000837823
-0.000865099
-0.000892443
-0.000919836
-0.000947257
-0.000974686
-0.0010021
-0.00102949
-0.00105682
-0.00108409
-0.00111126
-0.00113832
-0.00116526
-0.00119204
-0.00121866
-0.00124508
-0.0012713
-0.00129729
-0.00132303
-0.00134851
-0.0013737
-0.00139859
-0.00142316
-0.00144738
-0.00147124
-0.00149471
-0.00151779
-0.00154045
-0.00156267
-0.00158443
-0.00160572
-0.00162652
-0.00164682
-0.00166659
-0.00168581
-0.00170449
-0.00172258
-0.0017401
-0.00175701
-0.0017733
-0.00178896
-0.00180398
-0.00181834
-0.00183203
-0.00184504
-0.00185737
-0.001869
-0.00187992
-0.00189012
-0.00189961
-0.00190837
-0.00191641
-0.00192371
-0.00193028
-0.00193612
-0.00194123
-0.00194562
-0.00194929
-0.00195225
-0.00195452
-0.00195609
-0.00195699
-0.00195724
-0.00195685
-0.00195585
-0.00195425
-0.0019521
-0.00194941
-0.00194622
-0.00194257
-0.00193849
-0.00193404
-0.00192924
-0.00192414
-0.0019188
-0.00191326
-0.00190757
-0.0019018
-0.00189595
-0.00189007
-0.00188422
-0.00187847
-0.00187287
-0.00186701
-0.00186051
-6.7633e-05
-5.99975e-05
-5.32707e-05
-4.70064e-05
-4.07091e-05
-3.44274e-05
-2.82216e-05
-2.21206e-05
-1.61576e-05
-1.03674e-05
-4.78663e-06
5.44065e-07
5.58348e-06
1.02929e-05
1.46352e-05
1.85729e-05
2.20682e-05
2.5084e-05
2.75849e-05
2.9539e-05
3.09186e-05
3.16997e-05
3.18614e-05
3.13867e-05
3.02618e-05
2.84749e-05
2.60152e-05
2.28717e-05
1.90339e-05
1.44917e-05
9.23606e-06
3.2602e-06
-3.43996e-06
-1.08655e-05
-1.90146e-05
-2.78828e-05
-3.74641e-05
-4.7751e-05
-5.8736e-05
-7.04114e-05
-8.27692e-05
-9.58008e-05
-0.000109497
-0.000123849
-0.000138844
-0.000154474
-0.000170724
-0.000187581
-0.000205033
-0.000223063
-0.000241657
-0.000260799
-0.000280473
-0.000300663
-0.000321353
-0.000342524
-0.00036416
-0.000386241
-0.00040875
-0.000431668
-0.000454978
-0.000478663
-0.000502704
-0.000527083
-0.000551781
-0.000576778
-0.000602055
-0.000627592
-0.000653371
-0.000679371
-0.000705574
-0.000731961
-0.000758515
-0.000785216
-0.000812045
-0.000838982
-0.000866006
-0.000893099
-0.000920239
-0.000947406
-0.000974582
-0.00100175
-0.00102888
-0.00105596
-0.00108297
-0.0011099
-0.00113671
-0.00116339
-0.00118993
-0.0012163
-0.00124248
-0.00126846
-0.00129421
-0.00131972
-0.00134497
-0.00136993
-0.0013946
-0.00141894
-0.00144295
-0.0014666
-0.00148986
-0.00151274
-0.0015352
-0.00155723
-0.00157881
-0.00159992
-0.00162055
-0.00164068
-0.0016603
-0.00167938
-0.00169791
-0.00171587
-0.00173326
-0.00175006
-0.00176625
-0.00178181
-0.00179675
-0.00181103
-0.00182466
-0.00183762
-0.00184991
-0.00186151
-0.00187241
-0.00188261
-0.0018921
-0.00190089
-0.00190895
-0.00191629
-0.00192292
-0.00192882
-0.00193401
-0.00193849
-0.00194226
-0.00194534
-0.00194772
-0.00194942
-0.00195046
-0.00195085
-0.0019506
-0.00194975
-0.0019483
-0.00194629
-0.00194374
-0.00194069
-0.00193716
-0.00193318
-0.0019288
-0.00192406
-0.00191899
-0.00191363
-0.00190801
-0.0019022
-0.00189622
-0.00189013
-0.00188392
-0.00187763
-0.00187134
-0.0018651
-0.0018584
-0.0018508
-7.72376e-05
-6.85186e-05
-6.0964e-05
-5.40569e-05
-4.7213e-05
-4.04758e-05
-3.39018e-05
-2.75092e-05
-2.13224e-05
-1.53707e-05
-9.68256e-06
-4.28905e-06
7.75281e-07
5.47536e-06
9.7774e-06
1.36484e-05
1.70556e-05
1.9967e-05
2.2352e-05
2.41823e-05
2.54336e-05
2.60851e-05
2.6119e-05
2.55202e-05
2.42764e-05
2.23771e-05
1.98121e-05
1.65708e-05
1.26424e-05
8.01682e-06
2.68561e-06
-3.35735e-06
-1.01151e-05
-1.75876e-05
-2.57722e-05
-3.46642e-05
-4.42573e-05
-5.45446e-05
-6.55187e-05
-7.71723e-05
-8.94978e-05
-0.000102488
-0.000116133
-0.000130423
-0.000145349
-0.000160899
-0.00017706
-0.000193819
-0.000211163
-0.000229078
-0.00024755
-0.000266562
-0.000286098
-0.000306144
-0.000326681
-0.000347694
-0.000369164
-0.000391074
-0.000413406
-0.000436143
-0.000459267
-0.000482761
-0.000506606
-0.000530785
-0.00055528
-0.00058007
-0.000605136
-0.000630459
-0.000656019
-0.0006818
-0.000707781
-0.000733944
-0.000760272
-0.000786746
-0.000813345
-0.000840052
-0.000866845
-0.000893705
-0.000920612
-0.000947546
-0.000974488
-0.00100142
-0.00102832
-0.00105517
-0.00108195
-0.00110864
-0.00113522
-0.00116168
-0.00118799
-0.00121413
-0.00124009
-0.00126585
-0.00129138
-0.00131668
-0.00134171
-0.00136647
-0.00139093
-0.00141507
-0.00143888
-0.00146233
-0.00148541
-0.0015081
-0.00153039
-0.00155224
-0.00157366
-0.00159461
-0.00161508
-0.00163507
-0.00165454
-0.00167349
-0.00169189
-0.00170974
-0.00172702
-0.00174372
-0.00175982
-0.0017753
-0.00179016
-0.00180438
-0.00181796
-0.00183088
-0.00184313
-0.00185471
-0.0018656
-0.0018758
-0.00188531
-0.00189411
-0.00190221
-0.0019096
-0.00191628
-0.00192225
-0.00192751
-0.00193207
-0.00193594
-0.00193911
-0.0019416
-0.00194342
-0.00194457
-0.00194508
-0.00194496
-0.00194423
-0.00194291
-0.00194102
-0.00193858
-0.00193563
-0.00193218
-0.00192828
-0.00192394
-0.0019192
-0.00191411
-0.00190869
-0.00190298
-0.001897
-0.00189079
-0.0018844
-0.00187783
-0.00187109
-0.00186425
-0.00185735
-0.00184982
-0.00184113
-8.66585e-05
-7.68913e-05
-6.85246e-05
-6.09747e-05
-5.3574e-05
-4.63643e-05
-3.94005e-05
-3.26912e-05
-2.62512e-05
-2.0104e-05
-1.42737e-05
-8.78425e-06
-3.66315e-06
1.05937e-06
5.35276e-06
9.18752e-06
1.25352e-05
1.53687e-05
1.76623e-05
1.93923e-05
2.05377e-05
2.10807e-05
2.10062e-05
2.0301e-05
1.8954e-05
1.69551e-05
1.42948e-05
1.09629e-05
6.94899e-06
2.2437e-06
-3.16063e-06
-9.26906e-06
-1.60837e-05
-2.36039e-05
-3.18262e-05
-4.07453e-05
-5.0355e-05
-6.06483e-05
-7.16182e-05
-8.32579e-05
-9.55603e-05
-0.000108518
-0.000122122
-0.000136364
-0.000151231
-0.000166714
-0.000182799
-0.000199474
-0.000216725
-0.00023454
-0.000252904
-0.000271801
-0.000291216
-0.000311133
-0.000331535
-0.000352406
-0.000373727
-0.000395484
-0.000417657
-0.00044023
-0.000463186
-0.000486507
-0.000510175
-0.000534173
-0.000558482
-0.000583083
-0.000607957
-0.000633084
-0.000658447
-0.000684026
-0.000709804
-0.000735763
-0.000761884
-0.000788149
-0.000814539
-0.000841035
-0.000867615
-0.000894262
-0.000920955
-0.000947676
-0.000974404
-0.00100112
-0.00102781
-0.00105444
-0.00108101
-0.00110749
-0.00113386
-0.00116011
-0.00118621
-0.00121215
-0.0012379
-0.00126346
-0.00128879
-0.00131389
-0.00133873
-0.0013633
-0.00138757
-0.00141153
-0.00143516
-0.00145844
-0.00148135
-0.00150388
-0.001526
-0.0015477
-0.00156896
-0.00158977
-0.00161011
-0.00162996
-0.00164931
-0.00166814
-0.00168644
-0.00170419
-0.00172137
-0.00173798
-0.001754
-0.00176941
-0.00178421
-0.00179839
-0.00181192
-0.00182481
-0.00183704
-0.0018486
-0.00185949
-0.0018697
-0.00187922
-0.00188804
-0.00189618
-0.00190361
-0.00191034
-0.00191637
-0.00192171
-0.00192635
-0.0019303
-0.00193356
-0.00193615
-0.00193807
-0.00193933
-0.00193995
-0.00193994
-0.00193931
-0.00193809
-0.00193629
-0.00193393
-0.00193105
-0.00192766
-0.0019238
-0.00191947
-0.00191472
-0.00190957
-0.00190405
-0.0018982
-0.00189203
-0.00188557
-0.00187885
-0.00187188
-0.00186467
-0.00185728
-0.00184974
-0.00184139
-0.00183165
-9.57812e-05
-8.50047e-05
-7.58476e-05
-6.76625e-05
-5.97034e-05
-5.20113e-05
-4.46415e-05
-3.75961e-05
-3.08813e-05
-2.45135e-05
-1.8513e-05
-1.29001e-05
-7.6963e-06
-2.92618e-06
1.38384e-06
5.20773e-06
8.52089e-06
1.13005e-05
1.35254e-05
1.51764e-05
1.62361e-05
1.66897e-05
1.65244e-05
1.57287e-05
1.42921e-05
1.22051e-05
9.45825e-06
6.04201e-06
1.94691e-06
-2.83542e-06
-8.31127e-06
-1.44844e-05
-2.13558e-05
-2.89242e-05
-3.71859e-05
-4.61354e-05
-5.57661e-05
-6.60712e-05
-7.70439e-05
-8.86777e-05
-0.000100966
-0.000113901
-0.000127475
-0.000141678
-0.000156499
-0.000171927
-0.000187949
-0.000204553
-0.000221727
-0.000239456
-0.000257727
-0.000276524
-0.000295833
-0.000315638
-0.000335921
-0.000356666
-0.000377856
-0.000399476
-0.000421507
-0.000443934
-0.000466739
-0.000489905
-0.000513415
-0.00053725
-0.000561392
-0.000585822
-0.000610521
-0.000635472
-0.000660655
-0.000686052
-0.000711647
-0.000737419
-0.000763353
-0.000789429
-0.000815628
-0.000841931
-0.000868319
-0.000894772
-0.000921271
-0.000947796
-0.000974329
-0.00100085
-0.00102734
-0.00105378
-0.00108016
-0.00110645
-0.00113263
-0.00115868
-0.00118459
-0.00121034
-0.00123591
-0.00126129
-0.00128644
-0.00131136
-0.00133603
-0.00136042
-0.00138453
-0.00140832
-0.00143179
-0.00145491
-0.00147767
-0.00150005
-0.00152203
-0.00154359
-0.00156472
-0.0015854
-0.00160562
-0.00162536
-0.0016446
-0.00166333
-0.00168153
-0.00169919
-0.0017163
-0.00173283
-0.00174879
-0.00176414
-0.00177889
-0.00179303
-0.00180653
-0.00181939
-0.00183161
-0.00184316
-0.00185405
-0.00186427
-0.00187382
-0.00188267
-0.00189084
-0.00189832
-0.00190511
-0.0019112
-0.0019166
-0.00192132
-0.00192535
-0.0019287
-0.00193137
-0.00193338
-0.00193474
-0.00193544
-0.00193552
-0.00193499
-0.00193385
-0.00193212
-0.00192982
-0.00192698
-0.00192362
-0.00191976
-0.00191542
-0.00191062
-0.00190539
-0.00189976
-0.00189374
-0.00188735
-0.00188062
-0.00187356
-0.00186618
-0.00185849
-0.00185053