/*--------------------------------*- C++ -*----------------------------------*\
  =========                 |
  \\      /  F ield         | OpenFOAM: The Open Source CFD Toolbox
   \\    /   O peration     | Website:  https://openfoam.org
    \\  /    A nd           | Version:  7
     \\/     M anipulation  |
\*---------------------------------------------------------------------------*/
FoamFile
{
    version     2.0;
    format      ascii;
    class       surfaceScalarField;
    location    "0.425";
    object      phi;
}
// * * * * * * * * * * * * * * * * * * * * * * * * * * * * * * * * * * * * * //

dimensions      [0 3 -1 0 0 0 0];

internalField   nonuniform List<scalar> 
101920
(
-1.33245e-13
1.56166e-13
-5.11139e-13
3.77606e-13
-9.36874e-13
4.262e-13
-1.28962e-12
3.52027e-13
-1.49642e-12
2.06212e-13
-1.51582e-12
1.9347e-14
-1.326e-12
-1.89719e-13
-9.17966e-13
-4.08808e-13
-2.90439e-13
-6.29499e-13
5.54463e-13
-8.46647e-13
1.61101e-12
-1.0575e-12
2.87067e-12
-1.26023e-12
4.32381e-12
-1.45358e-12
5.95992e-12
-1.63667e-12
7.76818e-12
-1.80888e-12
9.73778e-12
-1.96993e-12
1.18577e-11
-2.1199e-12
1.41169e-11
-2.25898e-12
1.65046e-11
-2.38747e-12
1.90102e-11
-2.50561e-12
2.16233e-11
-2.61356e-12
2.43341e-11
-2.71143e-12
2.71329e-11
-2.79951e-12
3.00106e-11
-2.87813e-12
3.29581e-11
-2.94766e-12
3.59664e-11
-3.00843e-12
3.90273e-11
-3.0608e-12
4.21325e-11
-3.1051e-12
4.52743e-11
-3.14165e-12
4.84453e-11
-3.1708e-12
5.16384e-11
-3.19284e-12
5.48467e-11
-3.20809e-12
5.8064e-11
-3.21685e-12
6.12839e-11
-3.21943e-12
6.45005e-11
-3.21614e-12
6.7708e-11
-3.20723e-12
7.0901e-11
-3.19289e-12
7.40742e-11
-3.17333e-12
7.72228e-11
-3.14878e-12
8.03421e-11
-3.11955e-12
8.34279e-11
-3.08596e-12
8.6476e-11
-3.04832e-12
8.94826e-11
-3.00682e-12
9.24439e-11
-2.96162e-12
9.53564e-11
-2.91285e-12
9.82168e-11
-2.86066e-12
1.01022e-10
-2.80528e-12
1.03769e-10
-2.74692e-12
1.06454e-10
-2.68578e-12
1.09076e-10
-2.62202e-12
1.11632e-10
-2.55578e-12
1.14119e-10
-2.48717e-12
1.16536e-10
-2.41636e-12
1.18879e-10
-2.34348e-12
1.21148e-10
-2.26867e-12
1.23341e-10
-2.19207e-12
1.25455e-10
-2.11377e-12
1.27489e-10
-2.0339e-12
1.29442e-10
-1.95256e-12
1.31312e-10
-1.86986e-12
1.33098e-10
-1.78593e-12
1.34799e-10
-1.70088e-12
1.36414e-10
-1.6148e-12
1.37941e-10
-1.52775e-12
1.39381e-10
-1.43978e-12
1.40731e-10
-1.35094e-12
1.41992e-10
-1.26129e-12
1.43163e-10
-1.17092e-12
1.44242e-10
-1.07991e-12
1.4523e-10
-9.88334e-13
1.46126e-10
-8.96268e-13
1.4693e-10
-8.03753e-13
1.4764e-10
-7.10821e-13
1.48257e-10
-6.17502e-13
1.48781e-10
-5.2383e-13
1.49211e-10
-4.29853e-13
1.49546e-10
-3.35629e-13
1.49787e-10
-2.41224e-13
1.49934e-10
-1.467e-13
1.49985e-10
-5.21014e-14
1.49943e-10
4.25296e-14
1.49805e-10
1.37149e-13
1.49573e-10
2.31712e-13
1.49247e-10
3.26176e-13
1.48826e-10
4.20502e-13
1.48311e-10
5.14646e-13
1.47702e-10
6.08555e-13
1.47e-10
7.02184e-13
1.46204e-10
7.95498e-13
1.45315e-10
8.88464e-13
1.44334e-10
9.81028e-13
1.43261e-10
1.07312e-12
1.42096e-10
1.16465e-12
1.4084e-10
1.25556e-12
1.39494e-10
1.3458e-12
1.38059e-10
1.43528e-12
1.36535e-10
1.52394e-12
1.34923e-10
1.6117e-12
1.33224e-10
1.6985e-12
1.3144e-10
1.78425e-12
1.29571e-10
1.86884e-12
1.27618e-10
1.95217e-12
1.25584e-10
2.03412e-12
1.2347e-10
2.11463e-12
1.21276e-10
2.1936e-12
1.19006e-10
2.2709e-12
1.1666e-10
2.34639e-12
1.14241e-10
2.41989e-12
1.1175e-10
2.49128e-12
1.0919e-10
2.56045e-12
1.06564e-10
2.62727e-12
1.03873e-10
2.69158e-12
1.0112e-10
2.75322e-12
9.83091e-11
2.81201e-12
9.54421e-11
2.86778e-12
9.25225e-11
2.92033e-12
8.95536e-11
2.96949e-12
8.65391e-11
3.01505e-12
8.34827e-11
3.05684e-12
8.03885e-11
3.09463e-12
7.72607e-11
3.1282e-12
7.41037e-11
3.1573e-12
7.09223e-11
3.18171e-12
6.77213e-11
3.2012e-12
6.45061e-11
3.2155e-12
6.1282e-11
3.22434e-12
5.80548e-11
3.22746e-12
5.48305e-11
3.22459e-12
5.16152e-11
3.21547e-12
4.84156e-11
3.19982e-12
4.52385e-11
3.17735e-12
4.2091e-11
3.14773e-12
3.89808e-11
3.11064e-12
3.59155e-11
3.06574e-12
3.29032e-11
3.01269e-12
2.99524e-11
2.95116e-12
2.70718e-11
2.88087e-12
2.42706e-11
2.80151e-12
2.1558e-11
2.71274e-12
1.89439e-11
2.61425e-12
1.64382e-11
2.50572e-12
1.40514e-11
2.38684e-12
1.17939e-11
2.25738e-12
9.67641e-12
2.11723e-12
7.70999e-12
1.96629e-12
5.90569e-12
1.80435e-12
4.27429e-12
1.6314e-12
2.82628e-12
1.44781e-12
1.57196e-12
1.25416e-12
5.20903e-13
1.05117e-12
-3.18641e-13
8.39876e-13
-9.40528e-13
6.2203e-13
-1.34263e-12
4.01179e-13
-1.5285e-12
1.83962e-13
-1.50734e-12
-2.09431e-14
-1.297e-12
-2.04887e-13
-9.35581e-13
-3.55577e-13
-5.01673e-13
-4.41542e-13
-1.30049e-13
-4.00507e-13
-1.60829e-13
-3.64821e-13
5.20805e-13
-1.03734e-12
1.04835e-12
-1.71431e-12
1.10389e-12
-2.17852e-12
8.16184e-13
-2.27542e-12
3.01552e-13
-1.90334e-12
-3.55058e-13
-9.99621e-13
-1.0951e-12
4.6943e-13
-1.87876e-12
2.51635e-12
-2.67827e-12
5.14109e-12
-3.47417e-12
8.33444e-12
-4.25347e-12
1.20795e-11
-5.00748e-12
1.63549e-11
-5.73032e-12
2.11358e-11
-6.41821e-12
2.63952e-11
-7.06866e-12
3.21052e-11
-7.68012e-12
3.8237e-11
-8.25188e-12
4.47615e-11
-8.78377e-12
5.16496e-11
-9.27604e-12
5.88728e-11
-9.72929e-12
6.6403e-11
-1.01442e-11
7.42125e-11
-1.05217e-11
8.22745e-11
-1.08624e-11
9.05631e-11
-1.11676e-11
9.90529e-11
-1.14381e-11
1.07719e-10
-1.16753e-11
1.16539e-10
-1.18802e-11
1.25488e-10
-1.20542e-11
1.34546e-10
-1.21984e-11
1.4369e-10
-1.2314e-11
1.52901e-10
-1.24023e-11
1.62158e-10
-1.24642e-11
1.71443e-10
-1.2501e-11
1.80739e-10
-1.25138e-11
1.90027e-10
-1.25035e-11
1.99292e-10
-1.24712e-11
2.08518e-10
-1.2418e-11
2.1769e-10
-1.23447e-11
2.26794e-10
-1.22523e-11
2.35816e-10
-1.21418e-11
2.44743e-10
-1.20139e-11
2.53564e-10
-1.18698e-11
2.62268e-10
-1.17102e-11
2.70842e-10
-1.15361e-11
2.79277e-10
-1.13481e-11
2.87563e-10
-1.11469e-11
2.95691e-10
-1.09332e-11
3.03651e-10
-1.07076e-11
3.11436e-10
-1.0471e-11
3.19038e-10
-1.0224e-11
3.2645e-10
-9.96714e-12
3.33664e-10
-9.70109e-12
3.40674e-10
-9.42636e-12
3.47475e-10
-9.14346e-12
3.5406e-10
-8.85288e-12
3.60423e-10
-8.55514e-12
3.66561e-10
-8.2507e-12
3.72468e-10
-7.94005e-12
3.78139e-10
-7.62363e-12
3.83571e-10
-7.30184e-12
3.8876e-10
-6.97507e-12
3.93702e-10
-6.64366e-12
3.98394e-10
-6.30795e-12
4.02834e-10
-5.96826e-12
4.07018e-10
-5.62489e-12
4.10944e-10
-5.27814e-12
4.1461e-10
-4.92828e-12
4.18014e-10
-4.57558e-12
4.21153e-10
-4.2203e-12
4.24027e-10
-3.86268e-12
4.26632e-10
-3.50296e-12
4.28969e-10
-3.14136e-12
4.31036e-10
-2.77809e-12
4.32831e-10
-2.41334e-12
4.34354e-10
-2.0473e-12
4.35604e-10
-1.68016e-12
4.3658e-10
-1.3121e-12
4.37281e-10
-9.43315e-13
4.37708e-10
-5.74e-13
4.37859e-10
-2.04344e-13
4.37735e-10
1.65473e-13
4.37336e-10
5.35278e-13
4.36662e-10
9.04891e-13
4.35713e-10
1.27414e-12
4.3449e-10
1.64285e-12
4.32993e-10
2.01085e-12
4.31223e-10
2.37796e-12
4.2918e-10
2.74397e-12
4.26866e-10
3.10868e-12
4.24282e-10
3.47189e-12
4.21429e-10
3.83338e-12
4.18309e-10
4.19292e-12
4.14923e-10
4.55026e-12
4.11273e-10
4.90515e-12
4.07361e-10
5.25731e-12
4.0319e-10
5.60648e-12
3.98761e-10
5.95237e-12
3.94078e-10
6.29465e-12
3.89143e-10
6.63301e-12
3.8396e-10
6.96711e-12
3.78532e-10
7.2966e-12
3.72863e-10
7.62109e-12
3.66958e-10
7.94017e-12
3.60819e-10
8.2534e-12
3.54453e-10
8.56038e-12
3.47864e-10
8.86067e-12
3.41057e-10
9.15379e-12
3.34039e-10
9.4392e-12
3.26815e-10
9.71635e-12
3.19392e-10
9.98469e-12
3.11777e-10
1.02437e-11
3.03977e-10
1.04927e-11
2.96e-10
1.07312e-11
2.87855e-10
1.09584e-11
2.7955e-10
1.11738e-11
2.71095e-10
1.13765e-11
2.625e-10
1.15659e-11
2.53774e-10
1.17412e-11
2.4493e-10
1.19016e-11
2.35979e-10
1.20464e-11
2.26933e-10
1.21745e-11
2.17806e-10
1.22853e-11
2.0861e-10
1.23777e-11
1.99361e-10
1.24508e-11
1.90073e-10
1.25038e-11
1.80762e-10
1.25356e-11
1.71445e-10
1.25451e-11
1.62139e-10
1.25313e-11
1.52862e-10
1.24933e-11
1.43632e-10
1.24299e-11
1.3447e-10
1.23399e-11
1.25396e-10
1.22224e-11
1.16431e-10
1.2076e-11
1.07598e-10
1.18997e-11
9.89185e-11
1.16922e-11
9.04178e-11
1.14525e-11
8.21199e-11
1.11793e-11
7.40503e-11
1.08715e-11
6.62353e-11
1.05281e-11
5.87018e-11
1.0148e-11
5.14774e-11
9.73025e-12
4.45905e-11
9.27405e-12
3.80696e-11
8.77858e-12
3.19434e-11
8.24341e-12
2.62409e-11
7.66854e-12
2.09906e-11
7.05423e-12
1.62207e-11
6.40114e-12
1.19574e-11
5.71082e-12
8.22505e-12
4.98599e-12
5.04477e-12
4.2308e-12
2.43312e-12
3.45119e-12
4.00617e-13
2.65544e-12
-1.05203e-12
1.85552e-12
-1.94125e-12
1.0711e-12
-2.30575e-12
3.34047e-13
-2.20773e-12
-3.11576e-13
-1.73856e-12
-8.1164e-13
-1.04335e-12
-1.09346e-12
-3.45821e-13
-1.04586e-12
-5.28316e-13
-4.19914e-13
9.41278e-13
-1.09662e-12
1.72266e-12
-1.65862e-12
1.66528e-12
-1.84244e-12
9.99831e-13
-1.45366e-12
-8.76459e-14
-3.56814e-13
-1.45355e-12
1.53756e-12
-2.99158e-12
4.28317e-12
-4.62563e-12
7.90484e-12
-6.30113e-12
1.24074e-11
-7.97848e-12
1.77815e-11
-9.62937e-12
2.40064e-11
-1.1234e-11
3.10531e-11
-1.27784e-11
3.88874e-11
-1.42532e-11
4.74705e-11
-1.56521e-11
5.67614e-11
-1.69709e-11
6.67171e-11
-1.82075e-11
7.72938e-11
-1.93606e-11
8.84474e-11
-2.04301e-11
1.00134e-10
-2.14166e-11
1.1231e-10
-2.23211e-11
1.24933e-10
-2.31453e-11
1.37961e-10
-2.38909e-11
1.51353e-10
-2.45598e-11
1.65068e-10
-2.51541e-11
1.79069e-10
-2.56763e-11
1.93317e-10
-2.61285e-11
2.07776e-10
-2.65134e-11
2.22411e-10
-2.68333e-11
2.37189e-10
-2.70908e-11
2.52076e-10
-2.72883e-11
2.6704e-10
-2.74282e-11
2.82053e-10
-2.75129e-11
2.97085e-10
-2.75447e-11
3.12108e-10
-2.75259e-11
3.27096e-10
-2.74587e-11
3.42024e-10
-2.73453e-11
3.56867e-10
-2.71879e-11
3.71603e-10
-2.69884e-11
3.8621e-10
-2.67489e-11
4.00667e-10
-2.64712e-11
4.14954e-10
-2.61574e-11
4.29052e-10
-2.58094e-11
4.42945e-10
-2.54288e-11
4.56614e-10
-2.50174e-11
4.70044e-10
-2.45768e-11
4.83219e-10
-2.41086e-11
4.96125e-10
-2.36142e-11
5.08749e-10
-2.30952e-11
5.21078e-10
-2.25529e-11
5.331e-10
-2.19888e-11
5.44803e-10
-2.14041e-11
5.56178e-10
-2.08001e-11
5.67213e-10
-2.01779e-11
5.77899e-10
-1.95386e-11
5.88228e-10
-1.88833e-11
5.98191e-10
-1.82131e-11
6.0778e-10
-1.7529e-11
6.16989e-10
-1.68319e-11
6.2581e-10
-1.61227e-11
6.34237e-10
-1.54023e-11
6.42264e-10
-1.46715e-11
6.49887e-10
-1.3931e-11
6.571e-10
-1.31816e-11
6.63898e-10
-1.24239e-11
6.70278e-10
-1.16587e-11
6.76235e-10
-1.08864e-11
6.81767e-10
-1.01078e-11
6.86869e-10
-9.32338e-12
6.91539e-10
-8.53369e-12
6.95775e-10
-7.73925e-12
6.99573e-10
-6.94055e-12
7.02933e-10
-6.13805e-12
7.05851e-10
-5.33223e-12
7.08327e-10
-4.52353e-12
7.10359e-10
-3.71238e-12
7.11946e-10
-2.89922e-12
7.13086e-10
-2.08444e-12
7.1378e-10
-1.26846e-12
7.14027e-10
-4.51701e-13
7.13826e-10
3.65447e-13
7.13179e-10
1.18258e-12
7.12084e-10
1.99931e-12
7.10542e-10
2.81521e-12
7.08554e-10
3.6299e-12
7.06121e-10
4.44296e-12
7.03245e-10
5.25398e-12
6.99926e-10
6.06254e-12
6.96166e-10
6.86815e-12
6.91967e-10
7.67035e-12
6.87331e-10
8.46864e-12
6.82261e-10
9.26252e-12
6.7676e-10
1.00514e-11
6.7083e-10
1.08348e-11
6.64475e-10
1.16121e-11
6.57698e-10
1.23826e-11
6.50505e-10
1.31457e-11
6.42899e-10
1.39007e-11
6.34885e-10
1.46469e-11
6.26468e-10
1.53835e-11
6.17655e-10
1.61098e-11
6.08451e-10
1.68248e-11
5.98864e-10
1.75278e-11
5.889e-10
1.82177e-11
5.78567e-10
1.88936e-11
5.67874e-10
1.95544e-11
5.5683e-10
2.01993e-11
5.45443e-10
2.08269e-11
5.33724e-10
2.14362e-11
5.21684e-10
2.20259e-11
5.09335e-10
2.25948e-11
4.96687e-10
2.31415e-11
4.83755e-10
2.36647e-11
4.70552e-10
2.4163e-11
4.57092e-10
2.46348e-11
4.43391e-10
2.50786e-11
4.29465e-10
2.54929e-11
4.15331e-10
2.58759e-11
4.01007e-10
2.6226e-11
3.86513e-10
2.65412e-11
3.71868e-10
2.68199e-11
3.57094e-10
2.70601e-11
3.42212e-10
2.72598e-11
3.27246e-10
2.74171e-11
3.12221e-10
2.75298e-11
2.97161e-10
2.75958e-11
2.82094e-10
2.76129e-11
2.67047e-10
2.7579e-11
2.52049e-10
2.74916e-11
2.37131e-10
2.73486e-11
2.22324e-10
2.71475e-11
2.07661e-10
2.6886e-11
1.93176e-10
2.65616e-11
1.78904e-10
2.61719e-11
1.64882e-10
2.57145e-11
1.51148e-10
2.51871e-11
1.3774e-10
2.45872e-11
1.24699e-10
2.39126e-11
1.12067e-10
2.31612e-11
9.98838e-11
2.23309e-11
8.81938e-11
2.14201e-11
7.70403e-11
2.04274e-11
6.64673e-11
1.93516e-11
5.65187e-11
1.81922e-11
4.72378e-11
1.69494e-11
3.86672e-11
1.56247e-11
3.08479e-11
1.42203e-11
2.38181e-11
1.27405e-11
1.76118e-11
1.11918e-11
1.22572e-11
9.58431e-12
7.77426e-12
7.9324e-12
4.17252e-12
6.25621e-12
1.44867e-12
4.58242e-12
-4.22039e-13
2.94787e-12
-1.49775e-12
1.40817e-12
-1.87596e-12
4.64577e-14
-1.69047e-12
-1.02568e-12
-1.1201e-12
-1.67143e-12
-4.12805e-13
-1.71953e-12
-9.44998e-13
-3.49475e-13
1.29194e-12
-8.13878e-13
2.18541e-12
-9.99075e-13
1.84821e-12
-6.21093e-13
6.20268e-13
5.31678e-13
-1.24104e-12
2.61085e-12
-3.53371e-12
5.71977e-12
-6.10278e-12
9.92425e-12
-8.83238e-12
1.52584e-11
-1.16371e-11
2.17316e-11
-1.44534e-11
2.93356e-11
-1.72348e-11
3.80478e-11
-1.99471e-11
4.78344e-11
-2.25658e-11
5.86542e-11
-2.50735e-11
7.04601e-11
-2.74582e-11
8.32009e-11
-2.97118e-11
9.68226e-11
-3.18292e-11
1.11269e-10
-3.38076e-11
1.26485e-10
-3.56461e-11
1.42413e-10
-3.73447e-11
1.58995e-10
-3.89048e-11
1.76178e-10
-4.03283e-11
1.93904e-10
-4.1618e-11
2.1212e-10
-4.27768e-11
2.30774e-10
-4.38081e-11
2.49813e-10
-4.47156e-11
2.69188e-10
-4.55032e-11
2.88849e-10
-4.61747e-11
3.08751e-10
-4.67342e-11
3.28846e-10
-4.71858e-11
3.49093e-10
-4.75336e-11
3.69447e-10
-4.77817e-11
3.89869e-10
-4.79339e-11
4.10319e-10
-4.79943e-11
4.30761e-10
-4.79667e-11
4.51157e-10
-4.78549e-11
4.71475e-10
-4.76626e-11
4.91681e-10
-4.73936e-11
5.11744e-10
-4.70513e-11
5.31634e-10
-4.66392e-11
5.51323e-10
-4.61606e-11
5.70784e-10
-4.56187e-11
5.89991e-10
-4.50167e-11
6.08919e-10
-4.43578e-11
6.27547e-10
-4.36448e-11
6.4585e-10
-4.28807e-11
6.6381e-10
-4.20681e-11
6.81405e-10
-4.12097e-11
6.98618e-10
-4.0308e-11
7.1543e-10
-3.93654e-11
7.31826e-10
-3.83844e-11
7.47789e-10
-3.73671e-11
7.63305e-10
-3.63158e-11
7.7836e-10
-3.52325e-11
7.92942e-10
-3.41191e-11
8.07037e-10
-3.29776e-11
8.20634e-10
-3.18097e-11
8.33722e-10
-3.06172e-11
8.46292e-10
-2.94017e-11
8.58335e-10
-2.81649e-11
8.6984e-10
-2.69082e-11
8.80802e-10
-2.56331e-11
8.91211e-10
-2.43408e-11
9.01061e-10
-2.30327e-11
9.10346e-10
-2.17099e-11
9.1906e-10
-2.03736e-11
9.27198e-10
-1.9025e-11
9.34754e-10
-1.76651e-11
9.41725e-10
-1.62948e-11
9.48106e-10
-1.49152e-11
9.53893e-10
-1.35272e-11
9.59083e-10
-1.21315e-11
9.63674e-10
-1.07292e-11
9.67662e-10
-9.32091e-12
9.71046e-10
-7.90753e-12
9.73822e-10
-6.48981e-12
9.75991e-10
-5.06851e-12
9.77551e-10
-3.64436e-12
9.785e-10
-2.21809e-12
9.78838e-10
-7.90421e-13
9.78565e-10
6.37949e-13
9.7768e-10
2.06631e-12
9.76185e-10
3.49395e-12
9.74079e-10
4.92015e-12
9.71364e-10
6.34418e-12
9.68041e-10
7.7653e-12
9.64112e-10
9.18277e-12
9.59578e-10
1.05958e-11
9.54442e-10
1.20036e-11
9.48707e-10
1.34053e-11
9.42375e-10
1.48e-11
9.3545e-10
1.61869e-11
9.27937e-10
1.75649e-11
9.19838e-10
1.89331e-11
9.1116e-10
2.02904e-11
9.01906e-10
2.16357e-11
8.92084e-10
2.29679e-11
8.81699e-10
2.42857e-11
8.70758e-10
2.55879e-11
8.59268e-10
2.68731e-11
8.47238e-10
2.814e-11
8.34675e-10
2.9387e-11
8.21591e-10
3.06126e-11
8.07993e-10
3.18152e-11
7.93894e-10
3.29931e-11
7.79305e-10
3.41445e-11
7.64237e-10
3.52676e-11
7.48705e-10
3.63603e-11
7.32721e-10
3.74208e-11
7.16301e-10
3.84469e-11
6.99461e-10
3.94362e-11
6.82217e-10
4.03867e-11
6.64588e-10
4.12958e-11
6.46591e-10
4.21611e-11
6.28247e-10
4.298e-11
6.09576e-10
4.37498e-11
5.90602e-10
4.44678e-11
5.71348e-10
4.51311e-11
5.51838e-10
4.57366e-11
5.32099e-10
4.62813e-11
5.12157e-10
4.6762e-11
4.92042e-10
4.71755e-11
4.71784e-10
4.75184e-11
4.51415e-10
4.77871e-11
4.30967e-10
4.79782e-11
4.10475e-10
4.80881e-11
3.89975e-10
4.81129e-11
3.69506e-10
4.8049e-11
3.49106e-10
4.78924e-11
3.28816e-10
4.76391e-11
3.08679e-10
4.72853e-11
2.88738e-10
4.6827e-11
2.6904e-10
4.626e-11
2.49632e-10
4.55805e-11
2.30563e-10
4.47844e-11
2.11883e-10
4.38678e-11
1.93643e-10
4.2827e-11
1.75898e-10
4.16584e-11
1.58701e-10
4.03587e-11
1.42107e-10
3.89247e-11
1.26173e-10
3.73541e-11
1.10956e-10
3.56448e-11
9.65113e-11
3.37959e-11
8.28965e-11
3.18069e-11
7.01665e-11
2.96792e-11
5.83749e-11
2.7416e-11
4.75725e-11
2.50225e-11
3.78063e-11
2.2507e-11
2.9117e-11
1.98814e-11
2.15378e-11
1.71636e-11
1.50901e-11
1.43786e-11
9.78055e-12
1.15619e-11
5.5996e-12
8.76086e-12
2.51674e-12
6.03684e-12
4.67734e-13
3.47153e-12
-6.59891e-13
1.18104e-12
-1.0277e-12
-6.72426e-13
-8.40825e-13
-1.88182e-12
-3.5428e-13
-2.19785e-12
-1.29518e-12
-2.06671e-13
1.49916e-12
-3.05084e-13
2.28373e-12
8.08856e-14
1.46056e-12
1.23143e-12
-5.32522e-13
3.35932e-12
-3.37014e-12
6.62005e-12
-6.79509e-12
1.11216e-11
-1.06059e-11
1.69345e-11
-1.46475e-11
2.40973e-11
-1.88021e-11
3.26226e-11
-2.29806e-11
4.25025e-11
-2.71161e-11
5.3713e-11
-3.11584e-11
6.62173e-11
-3.50706e-11
7.9969e-11
-3.88254e-11
9.49144e-11
-4.24037e-11
1.10995e-10
-4.5792e-11
1.28147e-10
-4.89815e-11
1.46306e-10
-5.19667e-11
1.65404e-10
-5.47452e-11
1.85375e-10
-5.73163e-11
2.06151e-10
-5.96812e-11
2.27663e-10
-6.1842e-11
2.49847e-10
-6.38023e-11
2.72635e-10
-6.55659e-11
2.95964e-10
-6.71377e-11
3.19771e-10
-6.85227e-11
3.43994e-10
-6.97264e-11
3.68574e-10
-7.07544e-11
3.93453e-10
-7.16126e-11
4.18574e-10
-7.23069e-11
4.43885e-10
-7.28433e-11
4.69332e-10
-7.32277e-11
4.94865e-10
-7.34662e-11
5.20436e-10
-7.35644e-11
5.45998e-10
-7.35282e-11
5.71507e-10
-7.33632e-11
5.96919e-10
-7.30751e-11
6.22195e-10
-7.26694e-11
6.47295e-10
-7.21514e-11
6.72182e-10
-7.15263e-11
6.96821e-10
-7.07992e-11
7.21177e-10
-6.9975e-11
7.45218e-10
-6.90583e-11
7.68914e-10
-6.80539e-11
7.92235e-10
-6.69663e-11
8.15154e-10
-6.57999e-11
8.37645e-10
-6.45588e-11
8.59682e-10
-6.32471e-11
8.81242e-10
-6.18687e-11
9.02304e-10
-6.04271e-11
9.22846e-10
-5.89261e-11
9.42848e-10
-5.73691e-11
9.62292e-10
-5.57593e-11
9.81161e-10
-5.41001e-11
9.99437e-10
-5.23944e-11
1.0171e-09
-5.06451e-11
1.03415e-09
-4.88549e-11
1.05056e-09
-4.70266e-11
1.06632e-09
-4.51627e-11
1.08142e-09
-4.32656e-11
1.09585e-09
-4.13375e-11
1.1096e-09
-3.93808e-11
1.12265e-09
-3.73974e-11
1.13501e-09
-3.53894e-11
1.14666e-09
-3.33586e-11
1.15759e-09
-3.13068e-11
1.1678e-09
-2.92357e-11
1.17728e-09
-2.7147e-11
1.18603e-09
-2.50422e-11
1.19404e-09
-2.29228e-11
1.2013e-09
-2.07903e-11
1.20781e-09
-1.86459e-11
1.21357e-09
-1.64911e-11
1.21858e-09
-1.4327e-11
1.22283e-09
-1.2155e-11
1.22631e-09
-9.97615e-12
1.22903e-09
-7.79175e-12
1.23099e-09
-5.60292e-12
1.23218e-09
-3.41078e-12
1.23261e-09
-1.21645e-12
1.23227e-09
9.78967e-13
1.23116e-09
3.17437e-12
1.22928e-09
5.36864e-12
1.22664e-09
7.56068e-12
1.22324e-09
9.74933e-12
1.21907e-09
1.19334e-11
1.21414e-09
1.41118e-11
1.20845e-09
1.62832e-11
1.20201e-09
1.84464e-11
1.19481e-09
2.06001e-11
1.18687e-09
2.27429e-11
1.17818e-09
2.48734e-11
1.16876e-09
2.69901e-11
1.1586e-09
2.90914e-11
1.14771e-09
3.11758e-11
1.13611e-09
3.32415e-11
1.12379e-09
3.52867e-11
1.11076e-09
3.73095e-11
1.09704e-09
3.93081e-11
1.08264e-09
4.12802e-11
1.06755e-09
4.32238e-11
1.0518e-09
4.51366e-11
1.0354e-09
4.70162e-11
1.01836e-09
4.88601e-11
1.00068e-09
5.06657e-11
9.82398e-10
5.24302e-11
9.63516e-10
5.41509e-11
9.44053e-10
5.58246e-11
9.24026e-10
5.74484e-11
9.03455e-10
5.9019e-11
8.8236e-10
6.05329e-11
8.60761e-10
6.19867e-11
8.38681e-10
6.33768e-11
8.16144e-10
6.46992e-11
7.93175e-10
6.59501e-11
7.69801e-10
6.71253e-11
7.46049e-10
6.82207e-11
7.21949e-10
6.92318e-11
6.97532e-10
7.01542e-11
6.72831e-10
7.09831e-11
6.4788e-10
7.17137e-11
6.22715e-10
7.23411e-11
5.97374e-10
7.28601e-11
5.71896e-10
7.32656e-11
5.46322e-10
7.35521e-11
5.20697e-10
7.37143e-11
4.95064e-10
7.37465e-11
4.6947e-10
7.36431e-11
4.43965e-10
7.33983e-11
4.18598e-10
7.30061e-11
3.93423e-10
7.24609e-11
3.68494e-10
7.17566e-11
3.43868e-10
7.08873e-11
3.19601e-10
6.98473e-11
2.95755e-10
6.86308e-11
2.72391e-10
6.72323e-11
2.49572e-10
6.56464e-11
2.27363e-10
6.3868e-11
2.05829e-10
6.18926e-11
1.85038e-10
5.97162e-11
1.65057e-10
5.73356e-11
1.45953e-10
5.47486e-11
1.27794e-10
5.19544e-11
1.10647e-10
4.89535e-11
9.45775e-11
4.57489e-11
7.96468e-11
4.23462e-11
6.59136e-11
3.87549e-11
5.34314e-11
3.49888e-11
4.2246e-11
3.10671e-11
3.23939e-11
2.70169e-11
2.38989e-11
2.28751e-11
1.67665e-11
1.86925e-11
1.09811e-11
1.45389e-11
6.50555e-12
1.0505e-11
3.27504e-12
6.7055e-12
1.17976e-12
3.28981e-12
5.26145e-14
4.60144e-13
-3.27033e-13
-1.51775e-12
-2.15575e-13
-2.31578e-12
-1.50785e-12
-2.25166e-14
1.52065e-12
3.46079e-13
1.91518e-12
1.4401e-12
3.6612e-13
3.51698e-12
-2.61165e-12
6.77702e-12
-6.63278e-12
1.137e-11
-1.13899e-11
1.74016e-11
-1.66389e-11
2.49406e-11
-2.21883e-11
3.40259e-11
-2.78891e-11
4.46699e-11
-3.36263e-11
5.68642e-11
-3.93116e-11
7.05832e-11
-4.4878e-11
8.5787e-11
-5.02746e-11
1.02425e-10
-5.54636e-11
1.20439e-10
-6.04172e-11
1.39763e-10
-6.51158e-11
1.60327e-10
-6.95458e-11
1.82058e-10
-7.36985e-11
2.04881e-10
-7.75689e-11
2.28719e-10
-8.11553e-11
2.53495e-10
-8.44582e-11
2.79132e-10
-8.74799e-11
3.05554e-10
-9.02244e-11
3.32684e-10
-9.26966e-11
3.60448e-10
-9.49024e-11
3.88773e-10
-9.68484e-11
4.17588e-10
-9.85417e-11
4.46824e-10
-9.99899e-11
4.76412e-10
-1.01201e-10
5.06288e-10
-1.02182e-10
5.36388e-10
-1.02942e-10
5.66649e-10
-1.03489e-10
5.97015e-10
-1.0383e-10
6.27426e-10
-1.03975e-10
6.57828e-10
-1.0393e-10
6.88169e-10
-1.03704e-10
7.18398e-10
-1.03304e-10
7.48467e-10
-1.02738e-10
7.7833e-10
-1.02014e-10
8.07942e-10
-1.01138e-10
8.3726e-10
-1.00118e-10
8.66246e-10
-9.89608e-11
8.9486e-10
-9.76725e-11
9.23066e-10
-9.62599e-11
9.50828e-10
-9.47293e-11
9.78115e-10
-9.30867e-11
1.00489e-09
-9.13382e-11
1.03114e-09
-8.94894e-11
1.05681e-09
-8.75457e-11
1.0819e-09
-8.55124e-11
1.10637e-09
-8.33945e-11
1.1302e-09
-8.11968e-11
1.15336e-09
-7.8924e-11
1.17584e-09
-7.65807e-11
1.19762e-09
-7.4171e-11
1.21867e-09
-7.16993e-11
1.23899e-09
-6.91693e-11
1.25855e-09
-6.65848e-11
1.27733e-09
-6.39494e-11
1.29534e-09
-6.12666e-11
1.31254e-09
-5.85395e-11
1.32893e-09
-5.57714e-11
1.34449e-09
-5.29651e-11
1.35923e-09
-5.01235e-11
1.37312e-09
-4.72493e-11
1.38616e-09
-4.4345e-11
1.39833e-09
-4.14131e-11
1.40964e-09
-3.84559e-11
1.42007e-09
-3.54755e-11
1.42962e-09
-3.24743e-11
1.43829e-09
-2.94541e-11
1.44606e-09
-2.6417e-11
1.45293e-09
-2.33649e-11
1.4589e-09
-2.02995e-11
1.46397e-09
-1.72227e-11
1.46813e-09
-1.41361e-11
1.47138e-09
-1.10416e-11
1.47371e-09
-7.94059e-12
1.47514e-09
-4.83488e-12
1.47565e-09
-1.72602e-12
1.47524e-09
1.38439e-12
1.47392e-09
4.49477e-12
1.47168e-09
7.60353e-12
1.46854e-09
1.07091e-11
1.46447e-09
1.38097e-11
1.4595e-09
1.69038e-11
1.45363e-09
1.99897e-11
1.44684e-09
2.30655e-11
1.43916e-09
2.61296e-11
1.43058e-09
2.91799e-11
1.42111e-09
3.22146e-11
1.41075e-09
3.52316e-11
1.39951e-09
3.82287e-11
1.3874e-09
4.12038e-11
1.37442e-09
4.41546e-11
1.36058e-09
4.70785e-11
1.3459e-09
4.99731e-11
1.33037e-09
5.28357e-11
1.31401e-09
5.56635e-11
1.29684e-09
5.84535e-11
1.27886e-09
6.12026e-11
1.26009e-09
6.39077e-11
1.24054e-09
6.65653e-11
1.22023e-09
6.9172e-11
1.19917e-09
7.1724e-11
1.17739e-09
7.42174e-11
1.15489e-09
7.66482e-11
1.1317e-09
7.90122e-11
1.10785e-09
8.1305e-11
1.08334e-09
8.3522e-11
1.05822e-09
8.56585e-11
1.0325e-09
8.77094e-11
1.00621e-09
8.96697e-11
9.79374e-10
9.15338e-11
9.52028e-10
9.32964e-11
9.24203e-10
9.49516e-11
8.95931e-10
9.64935e-11
8.67248e-10
9.7916e-11
8.3819e-10
9.92127e-11
8.08797e-10
1.00377e-10
7.79109e-10
1.01402e-10
7.49169e-10
1.02281e-10
7.19022e-10
1.03008e-10
6.88715e-10
1.03573e-10
6.58296e-10
1.03971e-10
6.27817e-10
1.04194e-10
5.97331e-10
1.04233e-10
5.66893e-10
1.04082e-10
5.3656e-10
1.03731e-10
5.06393e-10
1.03174e-10
4.76452e-10
1.02402e-10
4.46802e-10
1.01407e-10
4.17509e-10
1.00181e-10
3.88641e-10
9.87166e-11
3.60266e-10
9.70056e-11
3.32458e-10
9.50408e-11
3.0529e-10
9.28154e-11
2.78835e-10
9.03229e-11
2.5317e-10
8.75573e-11
2.28373e-10
8.45141e-11
2.04519e-10
8.11893e-11
1.81687e-10
7.7581e-11
1.59952e-10
7.36888e-11
1.3939e-10
6.9515e-11
1.20075e-10
6.50644e-11
1.02075e-10
6.0346e-11
8.54556e-11
5.53739e-11
7.02743e-11
5.01689e-11
5.65811e-11
4.47591e-11
4.44153e-11
3.91826e-11
3.38032e-11
3.34897e-11
2.47527e-11
2.7747e-11
1.72474e-11
2.20439e-11
1.12454e-11
1.6499e-11
6.68017e-12
1.12626e-11
3.45122e-12
6.5221e-12
1.40564e-12
2.51702e-12
3.28663e-13
-4.42296e-13
-2.92869e-14
-1.96425e-12
-1.53765e-12
1.84507e-13
1.33442e-12
1.08209e-12
1.01662e-12
2.97434e-12
-1.5255e-12
6.08423e-12
-5.72231e-12
1.05891e-11
-1.11401e-11
1.66245e-11
-1.74279e-11
2.42875e-11
-2.43038e-11
3.36411e-11
-3.15434e-11
4.47198e-11
-3.89691e-11
5.75333e-11
-4.6441e-11
7.20705e-11
-5.38498e-11
8.83032e-11
-6.1111e-11
1.06189e-10
-6.81599e-11
1.25672e-10
-7.4947e-11
1.46691e-10
-8.14354e-11
1.69173e-10
-8.75983e-11
1.93044e-10
-9.34167e-11
2.18223e-10
-9.88781e-11
2.44628e-10
-1.03975e-10
2.72175e-10
-1.08703e-10
3.00777e-10
-1.13062e-10
3.30351e-10
-1.17055e-10
3.6081e-10
-1.20685e-10
3.92071e-10
-1.23958e-10
4.2405e-10
-1.26881e-10
4.56664e-10
-1.29463e-10
4.89835e-10
-1.31712e-10
5.23483e-10
-1.33638e-10
5.57532e-10
-1.3525e-10
5.91908e-10
-1.36558e-10
6.26539e-10
-1.37573e-10
6.61356e-10
-1.38305e-10
6.96291e-10
-1.38764e-10
7.31279e-10
-1.38962e-10
7.66258e-10
-1.38908e-10
8.01167e-10
-1.38613e-10
8.3595e-10
-1.38086e-10
8.70549e-10
-1.37338e-10
9.04913e-10
-1.36378e-10
9.38991e-10
-1.35216e-10
9.72734e-10
-1.33862e-10
1.0061e-09
-1.32323e-10
1.03903e-09
-1.3061e-10
1.0715e-09
-1.2873e-10
1.10347e-09
-1.26692e-10
1.13488e-09
-1.24504e-10
1.16572e-09
-1.22174e-10
1.19594e-09
-1.19709e-10
1.22551e-09
-1.17117e-10
1.2544e-09
-1.14404e-10
1.28258e-09
-1.11578e-10
1.31003e-09
-1.08645e-10
1.33672e-09
-1.0561e-10
1.36262e-09
-1.02481e-10
1.38771e-09
-9.92621e-11
1.41197e-09
-9.59597e-11
1.43538e-09
-9.25789e-11
1.45792e-09
-8.91246e-11
1.47958e-09
-8.56016e-11
1.50032e-09
-8.20146e-11
1.52015e-09
-7.83678e-11
1.53905e-09
-7.46656e-11
1.55699e-09
-7.09118e-11
1.57398e-09
-6.71102e-11
1.58999e-09
-6.32645e-11
1.60502e-09
-5.93782e-11
1.61906e-09
-5.54544e-11
1.6321e-09
-5.14963e-11
1.64414e-09
-4.75071e-11
1.65515e-09
-4.34894e-11
1.66514e-09
-3.94461e-11
1.6741e-09
-3.53798e-11
1.68203e-09
-3.12932e-11
1.68892e-09
-2.71886e-11
1.69476e-09
-2.30685e-11
1.69956e-09
-1.89353e-11
1.70331e-09
-1.47911e-11
1.70601e-09
-1.06383e-11
1.70765e-09
-6.47902e-12
1.70824e-09
-2.31548e-12
1.70778e-09
1.85018e-12
1.70625e-09
6.01577e-12
1.70368e-09
1.01791e-11
1.70005e-09
1.43381e-11
1.69537e-09
1.84905e-11
1.68964e-09
2.2634e-11
1.68286e-09
2.67663e-11
1.67504e-09
3.08849e-11
1.66618e-09
3.49876e-11
1.65629e-09
3.90716e-11
1.64537e-09
4.31344e-11
1.63343e-09
4.71731e-11
1.62047e-09
5.1185e-11
1.60651e-09
5.51671e-11
1.59155e-09
5.91161e-11
1.5756e-09
6.30289e-11
1.55867e-09
6.69019e-11
1.54077e-09
7.07316e-11
1.52192e-09
7.45142e-11
1.50213e-09
7.82458e-11
1.48141e-09
8.19223e-11
1.45978e-09
8.55392e-11
1.43725e-09
8.90921e-11
1.41385e-09
9.25763e-11
1.38958e-09
9.59868e-11
1.36448e-09
9.93184e-11
1.33857e-09
1.02566e-10
1.31186e-09
1.05723e-10
1.28438e-09
1.08784e-10
1.25616e-09
1.11744e-10
1.22722e-09
1.14595e-10
1.1976e-09
1.17332e-10
1.16733e-09
1.19946e-10
1.13643e-09
1.22432e-10
1.10495e-09
1.24781e-10
1.07291e-09
1.26986e-10
1.04037e-09
1.2904e-10
1.00735e-09
1.30933e-10
9.73905e-10
1.32659e-10
9.40076e-10
1.34207e-10
9.0591e-10
1.35569e-10
8.71457e-10
1.36736e-10
8.36767e-10
1.37698e-10
8.01894e-10
1.38447e-10
7.66895e-10
1.38971e-10
7.31827e-10
1.39262e-10
6.96751e-10
1.3931e-10
6.6173e-10
1.39103e-10
6.2683e-10
1.38632e-10
5.92119e-10
1.37886e-10
5.57666e-10
1.36856e-10
5.23544e-10
1.3553e-10
4.89827e-10
1.33898e-10
4.56593e-10
1.31952e-10
4.2392e-10
1.2968e-10
3.91888e-10
1.27073e-10
3.60579e-10
1.24124e-10
3.30079e-10
1.20824e-10
3.0047e-10
1.17166e-10
2.71839e-10
1.13145e-10
2.44271e-10
1.08758e-10
2.17851e-10
1.04001e-10
1.92664e-10
9.88756e-11
1.68792e-10
9.33866e-11
1.46314e-10
8.75415e-11
1.25308e-10
8.1353e-11
1.05842e-10
7.48404e-11
8.79785e-11
6.80315e-11
7.17717e-11
6.09641e-11
5.72629e-11
5.36887e-11
4.44807e-11
4.62704e-11
3.34373e-11
3.87931e-11
2.41217e-11
3.13649e-11
1.64938e-11
2.4127e-11
1.04876e-11
1.7261e-11
6.01076e-12
1.09925e-11
2.9328e-12
5.59959e-12
1.06498e-12
1.42954e-12
1.79904e-13
-1.08076e-12
-1.35947e-12
4.02495e-13
9.30314e-13
1.86423e-12
-4.48236e-13
4.60929e-12
-4.27146e-12
8.82064e-12
-9.93421e-12
1.4646e-11
-1.69669e-11
2.22e-11
-2.4984e-11
3.15655e-11
-3.3671e-11
4.27954e-11
-4.27747e-11
5.59169e-11
-5.20915e-11
7.09341e-11
-6.14588e-11
8.78312e-11
-7.07475e-11
1.06576e-10
-7.98561e-11
1.27122e-10
-8.87056e-11
1.49411e-10
-9.72353e-11
1.73374e-10
-1.05399e-10
1.98937e-10
-1.13161e-10
2.26018e-10
-1.20498e-10
2.54532e-10
-1.27392e-10
2.84389e-10
-1.33833e-10
3.155e-10
-1.39814e-10
3.4777e-10
-1.45334e-10
3.81109e-10
-1.50395e-10
4.15423e-10
-1.55e-10
4.50621e-10
-1.59156e-10
4.8661e-10
-1.62871e-10
5.23302e-10
-1.66155e-10
5.60608e-10
-1.69018e-10
5.98442e-10
-1.71472e-10
6.3672e-10
-1.73527e-10
6.7536e-10
-1.75197e-10
7.14283e-10
-1.76495e-10
7.53411e-10
-1.77432e-10
7.92669e-10
-1.78022e-10
8.31986e-10
-1.78279e-10
8.71292e-10
-1.78214e-10
9.10521e-10
-1.77841e-10
9.49606e-10
-1.77172e-10
9.88488e-10
-1.7622e-10
1.02711e-09
-1.74997e-10
1.0654e-09
-1.73515e-10
1.10333e-09
-1.71786e-10
1.14083e-09
-1.69821e-10
1.17785e-09
-1.67632e-10
1.21435e-09
-1.65229e-10
1.25028e-09
-1.62623e-10
1.2856e-09
-1.59824e-10
1.32026e-09
-1.56842e-10
1.35424e-09
-1.53687e-10
1.38749e-09
-1.50368e-10
1.41998e-09
-1.46894e-10
1.45168e-09
-1.43273e-10
1.48255e-09
-1.39514e-10
1.51256e-09
-1.35625e-10
1.5417e-09
-1.31614e-10
1.56992e-09
-1.27487e-10
1.59722e-09
-1.23252e-10
1.62355e-09
-1.18915e-10
1.64891e-09
-1.14484e-10
1.67328e-09
-1.09964e-10
1.69662e-09
-1.05361e-10
1.71893e-09
-1.0068e-10
1.7402e-09
-9.59281e-11
1.76039e-09
-9.11091e-11
1.77951e-09
-8.62282e-11
1.79754e-09
-8.129e-11
1.81446e-09
-7.62991e-11
1.83026e-09
-7.12596e-11
1.84494e-09
-6.61757e-11
1.85848e-09
-6.10513e-11
1.87088e-09
-5.58899e-11
1.88213e-09
-5.06954e-11
1.89222e-09
-4.54709e-11
1.90115e-09
-4.022e-11
1.9089e-09
-3.49458e-11
1.91549e-09
-2.96515e-11
1.92089e-09
-2.434e-11
1.92511e-09
-1.90144e-11
1.92815e-09
-1.36775e-11
1.93e-09
-8.3322e-12
1.93067e-09
-2.98135e-12
1.93015e-09
2.37225e-12
1.92844e-09
7.72578e-12
1.92554e-09
1.30764e-11
1.92145e-09
1.84213e-11
1.91619e-09
2.37576e-11
1.90974e-09
2.90823e-11
1.90211e-09
3.43924e-11