/*--------------------------------*- C++ -*----------------------------------*\
  =========                 |
  \\      /  F ield         | OpenFOAM: The Open Source CFD Toolbox
   \\    /   O peration     | Website:  https://openfoam.org
    \\  /    A nd           | Version:  7
     \\/     M anipulation  |
\*---------------------------------------------------------------------------*/
FoamFile
{
    version     2.0;
    format      ascii;
    class       volVectorField;
    location    "0.425";
    object      U;
}
// * * * * * * * * * * * * * * * * * * * * * * * * * * * * * * * * * * * * * //

dimensions      [0 1 -1 0 0 0 0];

internalField   nonuniform List<vector> 
51200
(
(-8.67004e-09 1.06092e-08 0)
(-4.86263e-08 2.69428e-08 0)
(-1.16236e-07 3.15928e-08 0)
(-1.82054e-07 2.81409e-08 0)
(-2.28894e-07 2.02645e-08 0)
(-2.4814e-07 1.0167e-08 0)
(-2.35144e-07 -9.6699e-10 0)
(-1.87603e-07 -1.24125e-08 0)
(-1.04808e-07 -2.37491e-08 0)
(1.31049e-08 -3.47291e-08 0)
(1.65445e-07 -4.52495e-08 0)
(3.51031e-07 -5.52473e-08 0)
(5.68395e-07 -6.46868e-08 0)
(8.15909e-07 -7.35443e-08 0)
(1.09185e-06 -8.1806e-08 0)
(1.39449e-06 -8.94749e-08 0)
(1.72206e-06 -9.65686e-08 0)
(2.0728e-06 -1.0311e-07 0)
(2.44496e-06 -1.09122e-07 0)
(2.83682e-06 -1.14626e-07 0)
(3.2467e-06 -1.19634e-07 0)
(3.67298e-06 -1.24156e-07 0)
(4.11412e-06 -1.28209e-07 0)
(4.56859e-06 -1.31812e-07 0)
(5.03494e-06 -1.34983e-07 0)
(5.51173e-06 -1.37739e-07 0)
(5.99758e-06 -1.40098e-07 0)
(6.49118e-06 -1.42077e-07 0)
(6.99123e-06 -1.43694e-07 0)
(7.49654e-06 -1.44967e-07 0)
(8.00594e-06 -1.45913e-07 0)
(8.51832e-06 -1.46547e-07 0)
(9.03262e-06 -1.46885e-07 0)
(9.54783e-06 -1.46943e-07 0)
(1.0063e-05 -1.46735e-07 0)
(1.05771e-05 -1.46271e-07 0)
(1.10894e-05 -1.45559e-07 0)
(1.15989e-05 -1.44609e-07 0)
(1.21048e-05 -1.43429e-07 0)
(1.26064e-05 -1.42037e-07 0)
(1.3103e-05 -1.4045e-07 0)
(1.35938e-05 -1.38682e-07 0)
(1.40784e-05 -1.36744e-07 0)
(1.4556e-05 -1.34642e-07 0)
(1.5026e-05 -1.32381e-07 0)
(1.5488e-05 -1.29967e-07 0)
(1.59413e-05 -1.2741e-07 0)
(1.63856e-05 -1.24719e-07 0)
(1.68203e-05 -1.21906e-07 0)
(1.7245e-05 -1.18976e-07 0)
(1.76593e-05 -1.15937e-07 0)
(1.80628e-05 -1.12794e-07 0)
(1.84552e-05 -1.09554e-07 0)
(1.88361e-05 -1.06222e-07 0)
(1.92052e-05 -1.02806e-07 0)
(1.95622e-05 -9.93086e-08 0)
(1.99068e-05 -9.57365e-08 0)
(2.02387e-05 -9.20946e-08 0)
(2.05577e-05 -8.83887e-08 0)
(2.08636e-05 -8.46248e-08 0)
(2.11562e-05 -8.08088e-08 0)
(2.14352e-05 -7.69457e-08 0)
(2.17004e-05 -7.30391e-08 0)
(2.19519e-05 -6.90914e-08 0)
(2.21893e-05 -6.51042e-08 0)
(2.24125e-05 -6.1079e-08 0)
(2.26214e-05 -5.70185e-08 0)
(2.2816e-05 -5.29264e-08 0)
(2.2996e-05 -4.88069e-08 0)
(2.31614e-05 -4.4664e-08 0)
(2.33121e-05 -4.05006e-08 0)
(2.34481e-05 -3.63183e-08 0)
(2.35692e-05 -3.21181e-08 0)
(2.36755e-05 -2.7901e-08 0)
(2.37667e-05 -2.36679e-08 0)
(2.3843e-05 -1.94208e-08 0)
(2.39042e-05 -1.51625e-08 0)
(2.39503e-05 -1.08961e-08 0)
(2.39814e-05 -6.62447e-09 0)
(2.39972e-05 -2.3497e-09 0)
(2.3998e-05 1.92628e-09 0)
(2.39835e-05 6.20138e-09 0)
(2.3954e-05 1.04735e-08 0)
(2.39093e-05 1.47409e-08 0)
(2.38495e-05 1.9002e-08 0)
(2.37747e-05 2.32551e-08 0)
(2.36848e-05 2.7498e-08 0)
(2.35798e-05 3.17292e-08 0)
(2.346e-05 3.59474e-08 0)
(2.33252e-05 4.01516e-08 0)
(2.31756e-05 4.43393e-08 0)
(2.30112e-05 4.85072e-08 0)
(2.28321e-05 5.26515e-08 0)
(2.26384e-05 5.67692e-08 0)
(2.24303e-05 6.08578e-08 0)
(2.22077e-05 6.49143e-08 0)
(2.19709e-05 6.89352e-08 0)
(2.172e-05 7.29175e-08 0)
(2.14551e-05 7.68582e-08 0)
(2.11764e-05 8.07539e-08 0)
(2.08841e-05 8.45996e-08 0)
(2.05784e-05 8.83898e-08 0)
(2.02594e-05 9.212e-08 0)
(1.99274e-05 9.57874e-08 0)
(1.95827e-05 9.93884e-08 0)
(1.92255e-05 1.02917e-07 0)
(1.88561e-05 1.06366e-07 0)
(1.84749e-05 1.09727e-07 0)
(1.8082e-05 1.12995e-07 0)
(1.76779e-05 1.16165e-07 0)
(1.72629e-05 1.19232e-07 0)
(1.68374e-05 1.22187e-07 0)
(1.64018e-05 1.25024e-07 0)
(1.59566e-05 1.27735e-07 0)
(1.55022e-05 1.30311e-07 0)
(1.50391e-05 1.32743e-07 0)
(1.45679e-05 1.35024e-07 0)
(1.40891e-05 1.37144e-07 0)
(1.36033e-05 1.39096e-07 0)
(1.31111e-05 1.40868e-07 0)
(1.26131e-05 1.42449e-07 0)
(1.21102e-05 1.4383e-07 0)
(1.16029e-05 1.44999e-07 0)
(1.10921e-05 1.45945e-07 0)
(1.05786e-05 1.46656e-07 0)
(1.00633e-05 1.47118e-07 0)
(9.54693e-06 1.47318e-07 0)
(9.03057e-06 1.47246e-07 0)
(8.51515e-06 1.46889e-07 0)
(8.00169e-06 1.46232e-07 0)
(7.49128e-06 1.45262e-07 0)
(6.98504e-06 1.43962e-07 0)
(6.48413e-06 1.42315e-07 0)
(5.98977e-06 1.40305e-07 0)
(5.50325e-06 1.37913e-07 0)
(5.02587e-06 1.35123e-07 0)
(4.55902e-06 1.3192e-07 0)
(4.10411e-06 1.28287e-07 0)
(3.66264e-06 1.24204e-07 0)
(3.23613e-06 1.19654e-07 0)
(2.82617e-06 1.14616e-07 0)
(2.43437e-06 1.09072e-07 0)
(2.06242e-06 1.03005e-07 0)
(1.71202e-06 9.64032e-08 0)
(1.3849e-06 8.92523e-08 0)
(1.08284e-06 8.15317e-08 0)
(8.07596e-07 7.32287e-08 0)
(5.60871e-07 6.43473e-08 0)
(3.44345e-07 5.48988e-08 0)
(1.59625e-07 4.48959e-08 0)
(8.15973e-09 3.43593e-08 0)
(-1.08866e-07 2.33421e-08 0)
(-1.9074e-07 1.19984e-08 0)
(-2.37494e-07 6.60503e-10 0)
(-2.50011e-07 -1.02178e-08 0)
(-2.30269e-07 -2.0135e-08 0)
(-1.82415e-07 -2.82554e-08 0)
(-1.1532e-07 -3.23228e-08 0)
(-4.77801e-08 -2.79254e-08 0)
(-8.74935e-09 -1.05459e-08 0)
(-2.56634e-08 5.15055e-08 0)
(-1.0806e-07 1.10222e-07 0)
(-2.23689e-07 1.21436e-07 0)
(-3.22922e-07 9.83366e-08 0)
(-3.72752e-07 5.37536e-08 0)
(-3.53775e-07 -3.62442e-09 0)
(-2.53533e-07 -6.8081e-08 0)
(-6.46537e-08 -1.35953e-07 0)
(2.1633e-07 -2.04706e-07 0)
(5.90229e-07 -2.72697e-07 0)
(1.05617e-06 -3.38908e-07 0)
(1.61195e-06 -4.02679e-07 0)
(2.25446e-06 -4.63569e-07 0)
(2.97994e-06 -5.21308e-07 0)
(3.78422e-06 -5.75716e-07 0)
(4.66288e-06 -6.26698e-07 0)
(5.61135e-06 -6.74238e-07 0)
(6.62498e-06 -7.1836e-07 0)
(7.69911e-06 -7.5912e-07 0)
(8.82914e-06 -7.96591e-07 0)
(1.00105e-05 -8.30839e-07 0)
(1.12387e-05 -8.6193e-07 0)
(1.25095e-05 -8.89945e-07 0)
(1.38186e-05 -9.14981e-07 0)
(1.51618e-05 -9.37137e-07 0)
(1.65352e-05 -9.56517e-07 0)
(1.7935e-05 -9.73226e-07 0)
(1.93574e-05 -9.87371e-07 0)
(2.07989e-05 -9.99058e-07 0)
(2.22558e-05 -1.00839e-06 0)
(2.3725e-05 -1.01547e-06 0)
(2.52032e-05 -1.02039e-06 0)
(2.66874e-05 -1.02325e-06 0)
(2.81745e-05 -1.02414e-06 0)
(2.96619e-05 -1.02314e-06 0)
(3.11468e-05 -1.02036e-06 0)
(3.26267e-05 -1.01585e-06 0)
(3.40991e-05 -1.0097e-06 0)
(3.55616e-05 -1.00198e-06 0)
(3.70122e-05 -9.9277e-07 0)
(3.84487e-05 -9.82159e-07 0)
(3.9869e-05 -9.70232e-07 0)
(4.12714e-05 -9.5706e-07 0)
(4.26541e-05 -9.42706e-07 0)
(4.40152e-05 -9.27223e-07 0)
(4.53533e-05 -9.10665e-07 0)
(4.66668e-05 -8.93089e-07 0)
(4.79541e-05 -8.74555e-07 0)
(4.92141e-05 -8.55125e-07 0)
(5.04454e-05 -8.34854e-07 0)
(5.16467e-05 -8.13791e-07 0)
(5.28171e-05 -7.91982e-07 0)
(5.39553e-05 -7.6947e-07 0)
(5.50604e-05 -7.46298e-07 0)
(5.61314e-05 -7.22508e-07 0)
(5.71675e-05 -6.98138e-07 0)
(5.81678e-05 -6.73228e-07 0)
(5.91315e-05 -6.47816e-07 0)
(6.00579e-05 -6.21939e-07 0)
(6.09464e-05 -5.95632e-07 0)
(6.17961e-05 -5.68927e-07 0)
(6.26068e-05 -5.41854e-07 0)
(6.33776e-05 -5.14441e-07 0)
(6.41083e-05 -4.86711e-07 0)
(6.47983e-05 -4.58686e-07 0)
(6.54473e-05 -4.30388e-07 0)
(6.60547e-05 -4.01838e-07 0)
(6.66204e-05 -3.7306e-07 0)
(6.71439e-05 -3.44075e-07 0)
(6.7625e-05 -3.14905e-07 0)
(6.80634e-05 -2.85571e-07 0)
(6.84588e-05 -2.56088e-07 0)
(6.88112e-05 -2.26471e-07 0)
(6.91202e-05 -1.96735e-07 0)
(6.93856e-05 -1.66892e-07 0)
(6.96075e-05 -1.36958e-07 0)
(6.97856e-05 -1.06949e-07 0)
(6.99197e-05 -7.68815e-08 0)
(7.001e-05 -4.67723e-08 0)
(7.00562e-05 -1.6637e-08 0)
(7.00584e-05 1.35103e-08 0)
(7.00166e-05 4.36556e-08 0)
(6.99308e-05 7.37845e-08 0)
(6.98009e-05 1.03883e-07 0)
(6.96271e-05 1.33938e-07 0)
(6.94095e-05 1.63936e-07 0)
(6.9148e-05 1.93863e-07 0)
(6.8843e-05 2.23702e-07 0)
(6.84944e-05 2.53438e-07 0)
(6.81026e-05 2.83056e-07 0)
(6.76676e-05 3.12541e-07 0)
(6.71896e-05 3.41871e-07 0)
(6.66691e-05 3.71025e-07 0)
(6.61061e-05 3.99982e-07 0)
(6.55011e-05 4.28722e-07 0)
(6.48543e-05 4.57222e-07 0)
(6.41662e-05 4.85459e-07 0)
(6.34372e-05 5.13408e-07 0)
(6.26676e-05 5.41044e-07 0)
(6.1858e-05 5.68339e-07 0)
(6.1009e-05 5.95266e-07 0)
(6.01211e-05 6.21789e-07 0)
(5.9195e-05 6.47876e-07 0)
(5.82313e-05 6.73494e-07 0)
(5.72307e-05 6.98611e-07 0)
(5.61941e-05 7.23193e-07 0)
(5.51222e-05 7.47195e-07 0)
(5.4016e-05 7.70572e-07 0)
(5.28763e-05 7.93279e-07 0)
(5.17043e-05 8.15275e-07 0)
(5.0501e-05 8.36516e-07 0)
(4.92675e-05 8.56953e-07 0)
(4.8005e-05 8.76535e-07 0)
(4.6715e-05 8.95207e-07 0)
(4.53986e-05 9.12915e-07 0)
(4.40574e-05 9.29601e-07 0)
(4.26929e-05 9.45202e-07 0)
(4.13068e-05 9.59657e-07 0)
(3.99008e-05 9.72902e-07 0)
(3.84767e-05 9.84872e-07 0)
(3.70365e-05 9.95495e-07 0)
(3.55821e-05 1.0047e-06 0)
(3.41157e-05 1.01241e-06 0)
(3.26395e-05 1.01854e-06 0)
(3.11559e-05 1.02303e-06 0)
(2.96674e-05 1.02578e-06 0)
(2.81765e-05 1.02671e-06 0)
(2.66859e-05 1.02574e-06 0)
(2.51985e-05 1.02277e-06 0)
(2.37172e-05 1.01773e-06 0)
(2.22451e-05 1.0105e-06 0)
(2.07854e-05 1.00101e-06 0)
(1.93414e-05 9.89135e-07 0)
(1.79166e-05 9.7479e-07 0)
(1.65147e-05 9.57867e-07 0)
(1.51394e-05 9.38264e-07 0)
(1.37945e-05 9.15883e-07 0)
(1.24841e-05 8.90625e-07 0)
(1.12123e-05 8.6239e-07 0)
(9.98331e-06 8.31085e-07 0)
(8.80159e-06 7.96619e-07 0)
(7.67157e-06 7.58902e-07 0)
(6.59782e-06 7.17853e-07 0)
(5.58494e-06 6.73428e-07 0)
(4.63753e-06 6.25605e-07 0)
(3.76021e-06 5.74364e-07 0)
(2.95755e-06 5.19724e-07 0)
(2.23392e-06 4.61786e-07 0)
(1.5934e-06 4.00744e-07 0)
(1.03968e-06 3.36884e-07 0)
(5.75853e-07 2.70631e-07 0)
(2.04171e-07 2.02605e-07 0)
(-7.43453e-08 1.33801e-07 0)
(-2.60767e-07 6.60103e-08 0)
(-3.59217e-07 2.09816e-09 0)
(-3.77402e-07 -5.41901e-08 0)
(-3.26908e-07 -9.80643e-08 0)
(-2.26077e-07 -1.21653e-07 0)
(-1.06857e-07 -1.11798e-07 0)
(-2.48237e-08 -5.22582e-08 0)
(-3.1008e-08 1.17437e-07 0)
(-1.20185e-07 2.25304e-07 0)
(-2.29423e-07 2.30543e-07 0)
(-2.9907e-07 1.6142e-07 0)
(-2.8924e-07 4.17427e-08 0)
(-1.74663e-07 -1.10393e-07 0)
(6.19029e-08 -2.82081e-07 0)
(4.31579e-07 -4.64261e-07 0)
(9.40353e-07 -6.50619e-07 0)
(1.59037e-06 -8.36626e-07 0)
(2.38109e-06 -1.01918e-06 0)
(3.30997e-06 -1.19614e-06 0)
(4.37294e-06 -1.36606e-06 0)
(5.56485e-06 -1.52797e-06 0)
(6.87981e-06 -1.68124e-06 0)
(8.31138e-06 -1.82548e-06 0)
(9.8528e-06 -1.9605e-06 0)
(1.14971e-05 -2.08622e-06 0)
(1.32373e-05 -2.20266e-06 0)
(1.50663e-05 -2.30993e-06 0)
(1.6977e-05 -2.40819e-06 0)
(1.89626e-05 -2.49761e-06 0)
(2.10163e-05 -2.57841e-06 0)
(2.31314e-05 -2.65081e-06 0)
(2.53016e-05 -2.71507e-06 0)
(2.75203e-05 -2.77144e-06 0)
(2.97817e-05 -2.8202e-06 0)
(3.20797e-05 -2.86163e-06 0)
(3.44087e-05 -2.89601e-06 0)
(3.6763e-05 -2.92361e-06 0)
(3.91374e-05 -2.94471e-06 0)
(4.15268e-05 -2.95958e-06 0)
(4.39262e-05 -2.96849e-06 0)
(4.63308e-05 -2.97167e-06 0)
(4.87363e-05 -2.96938e-06 0)
(5.11382e-05 -2.96188e-06 0)
(5.35324e-05 -2.94939e-06 0)
(5.5915e-05 -2.93214e-06 0)
(5.82823e-05 -2.91036e-06 0)
(6.06306e-05 -2.88426e-06 0)
(6.29565e-05 -2.85406e-06 0)
(6.52567e-05 -2.81997e-06 0)
(6.75283e-05 -2.78221e-06 0)
(6.97683e-05 -2.74095e-06 0)
(7.19739e-05 -2.6964e-06 0)
(7.41424e-05 -2.6487e-06 0)
(7.62714e-05 -2.59804e-06 0)
(7.83585e-05 -2.54456e-06 0)
(8.04015e-05 -2.48844e-06 0)
(8.23982e-05 -2.42983e-06 0)
(8.43467e-05 -2.36889e-06 0)
(8.62451e-05 -2.30574e-06 0)
(8.80918e-05 -2.24052e-06 0)
(8.98849e-05 -2.17336e-06 0)
(9.1623e-05 -2.10437e-06 0)
(9.33045e-05 -2.03367e-06 0)
(9.49282e-05 -1.96137e-06 0)
(9.64927e-05 -1.88758e-06 0)
(9.79968e-05 -1.81242e-06 0)
(9.94394e-05 -1.73596e-06 0)
(0.00010082 -1.65832e-06 0)
(0.000102136 -1.57956e-06 0)
(0.000103388 -1.49978e-06 0)
(0.000104575 -1.41904e-06 0)
(0.000105696 -1.33742e-06 0)
(0.000106751 -1.255e-06 0)
(0.000107738 -1.17183e-06 0)
(0.000108657 -1.08798e-06 0)
(0.000109508 -1.00352e-06 0)
(0.00011029 -9.18496e-07 0)
(0.000111002 -8.32968e-07 0)
(0.000111645 -7.46989e-07 0)
(0.000112218 -6.60607e-07 0)
(0.00011272 -5.73872e-07 0)
(0.000113152 -4.86829e-07 0)
(0.000113513 -3.99525e-07 0)
(0.000113802 -3.12004e-07 0)
(0.00011402 -2.24311e-07 0)
(0.000114167 -1.36491e-07 0)
(0.000114242 -4.85874e-08 0)
(0.000114246 3.9356e-08 0)
(0.000114178 1.27297e-07 0)
(0.000114039 2.15194e-07 0)
(0.000113828 3.03004e-07 0)
(0.000113545 3.90684e-07 0)
(0.000113192 4.78192e-07 0)
(0.000112767 5.65486e-07 0)
(0.000112271 6.52517e-07 0)
(0.000111705 7.39238e-07 0)
(0.000111068 8.25596e-07 0)
(0.000110361 9.11541e-07 0)
(0.000109585 9.97018e-07 0)
(0.000108739 1.08197e-06 0)
(0.000107824 1.16633e-06 0)
(0.000106841 1.25004e-06 0)
(0.000105791 1.33304e-06 0)
(0.000104673 1.41524e-06 0)
(0.000103489 1.49659e-06 0)
(0.000102239 1.577e-06 0)
(0.000100924 1.65639e-06 0)
(9.95455e-05 1.73467e-06 0)
(9.81039e-05 1.81176e-06 0)
(9.66003e-05 1.88755e-06 0)
(9.50359e-05 1.96196e-06 0)
(9.34119e-05 2.03487e-06 0)
(9.17295e-05 2.10617e-06 0)
(8.99901e-05 2.17576e-06 0)
(8.81952e-05 2.24352e-06 0)
(8.63464e-05 2.3093e-06 0)
(8.44452e-05 2.37299e-06 0)
(8.24936e-05 2.43445e-06 0)
(8.04933e-05 2.49353e-06 0)
(7.84464e-05 2.5501e-06 0)
(7.6355e-05 2.60399e-06 0)
(7.42214e-05 2.65504e-06 0)
(7.20479e-05 2.70309e-06 0)
(6.9837e-05 2.74796e-06 0)
(6.75915e-05 2.78948e-06 0)
(6.53142e-05 2.82745e-06 0)
(6.3008e-05 2.86169e-06 0)
(6.06761e-05 2.89199e-06 0)
(5.83217e-05 2.91814e-06 0)
(5.59483e-05 2.93994e-06 0)
(5.35595e-05 2.95716e-06 0)
(5.11592e-05 2.96957e-06 0)
(4.87514e-05 2.97695e-06 0)
(4.63401e-05 2.97905e-06 0)
(4.39298e-05 2.97563e-06 0)
(4.15251e-05 2.96644e-06 0)
(3.91306e-05 2.95123e-06 0)
(3.67513e-05 2.92973e-06 0)
(3.43923e-05 2.90167e-06 0)
(3.20591e-05 2.8668e-06 0)
(2.97571e-05 2.82483e-06 0)
(2.74922e-05 2.7755e-06 0)
(2.52702e-05 2.71853e-06 0)
(2.30973e-05 2.65367e-06 0)
(2.09798e-05 2.58064e-06 0)
(1.89243e-05 2.4992e-06 0)
(1.69373e-05 2.40912e-06 0)
(1.50258e-05 2.31019e-06 0)
(1.31966e-05 2.20223e-06 0)
(1.14567e-05 2.08507e-06 0)
(9.81329e-06 1.95863e-06 0)
(8.27324e-06 1.82291e-06 0)
(6.84348e-06 1.678e-06 0)
(5.53074e-06 1.52412e-06 0)
(4.3414e-06 1.36165e-06 0)
(3.28129e-06 1.19126e-06 0)
(2.35546e-06 1.01399e-06 0)
(1.56788e-06 8.31349e-07 0)
(9.21055e-07 6.45454e-07 0)
(4.15646e-07 4.5923e-07 0)
(4.96049e-08 2.76975e-07 0)
(-1.83406e-07 1.05393e-07 0)
(-2.95418e-07 -4.56262e-08 0)
(-3.04079e-07 -1.63023e-07 0)
(-2.33562e-07 -2.30169e-07 0)
(-1.214e-07 -2.24688e-07 0)
(-3.06774e-08 -1.18315e-07 0)
(-2.78925e-08 1.82527e-07 0)
(-9.78974e-08 3.24045e-07 0)
(-1.61155e-07 3.00043e-07 0)
(-1.56365e-07 1.5633e-07 0)
(-4.11556e-08 -7.14496e-08 0)
(2.12442e-07 -3.55649e-07 0)
(6.24213e-07 -6.75338e-07 0)
(1.20736e-06 -1.01523e-06 0)
(1.96959e-06 -1.36419e-06 0)
(2.91415e-06 -1.71408e-06 0)
(4.04096e-06 -2.05901e-06 0)
(5.34736e-06 -2.39478e-06 0)
(6.82873e-06 -2.71841e-06 0)
(8.47899e-06 -3.02782e-06 0)
(1.0291e-05 -3.32161e-06 0)
(1.22568e-05 -3.59886e-06 0)
(1.4368e-05 -3.85903e-06 0)
(1.66157e-05 -4.10185e-06 0)
(1.8991e-05 -4.32723e-06 0)
(2.14846e-05 -4.53525e-06 0)
(2.40877e-05 -4.72611e-06 0)
(2.67911e-05 -4.90012e-06 0)
(2.95859e-05 -5.05761e-06 0)
(3.24635e-05 -5.199e-06 0)
(3.54151e-05 -5.32472e-06 0)
(3.84326e-05 -5.43523e-06 0)
(4.15077e-05 -5.53104e-06 0)
(4.46325e-05 -5.61263e-06 0)
(4.77994e-05 -5.68052e-06 0)
(5.10009e-05 -5.73523e-06 0)
(5.423e-05 -5.77727e-06 0)
(5.74797e-05 -5.80713e-06 0)
(6.07434e-05 -5.82532e-06 0)
(6.40147e-05 -5.83232e-06 0)
(6.72875e-05 -5.82861e-06 0)
(7.05559e-05 -5.81465e-06 0)
(7.38144e-05 -5.79091e-06 0)
(7.70575e-05 -5.75783e-06 0)
(8.02803e-05 -5.71586e-06 0)
(8.34777e-05 -5.6654e-06 0)
(8.66451e-05 -5.60688e-06 0)
(8.97781e-05 -5.54068e-06 0)
(9.28726e-05 -5.4672e-06 0)
(9.59244e-05 -5.38682e-06 0)
(9.89297e-05 -5.29989e-06 0)
(0.000101885 -5.20677e-06 0)
(0.000104787 -5.10779e-06 0)
(0.000107632 -5.00325e-06 0)
(0.000110417 -4.89348e-06 0)
(0.00011314 -4.77877e-06 0)
(0.000115797 -4.65941e-06 0)
(0.000118387 -4.53568e-06 0)
(0.000120906 -4.40783e-06 0)
(0.000123352 -4.27612e-06 0)
(0.000125723 -4.14079e-06 0)
(0.000128018 -4.00205e-06 0)
(0.000130234 -3.86013e-06 0)
(0.000132369 -3.71524e-06 0)
(0.000134422 -3.56759e-06 0)
(0.000136391 -3.41737e-06 0)
(0.000138276 -3.26476e-06 0)
(0.000140073 -3.10993e-06 0)
(0.000141783 -2.95304e-06 0)
(0.000143404 -2.79424e-06 0)
(0.000144935 -2.63368e-06 0)
(0.000146375 -2.4715e-06 0)
(0.000147724 -2.30784e-06 0)
(0.000148979 -2.14281e-06 0)
(0.000150142 -1.97655e-06 0)
(0.00015121 -1.80916e-06 0)
(0.000152184 -1.64076e-06 0)
(0.000153062 -1.47144e-06 0)
(0.000153845 -1.30132e-06 0)
(0.000154531 -1.13049e-06 0)
(0.000155121 -9.5905e-07 0)
(0.000155614 -7.87084e-07 0)
(0.000156009 -6.14688e-07 0)
(0.000156308 -4.4195e-07 0)
(0.000156508 -2.68957e-07 0)
(0.000156611 -9.57953e-08 0)
(0.000156617 7.74495e-08 0)
(0.000156524 2.50692e-07 0)
(0.000156334 4.23849e-07 0)
(0.000156045 5.96831e-07 0)
(0.00015566 7.69554e-07 0)
(0.000155177 9.41929e-07 0)
(0.000154596 1.11387e-06 0)
(0.000153919 1.28527e-06 0)
(0.000153146 1.45605e-06 0)
(0.000152276 1.62611e-06 0)
(0.00015131 1.79532e-06 0)
(0.00015025 1.96359e-06 0)
(0.000149094 2.1308e-06 0)
(0.000147845 2.29683e-06 0)
(0.000146503 2.46156e-06 0)
(0.000145068 2.62484e-06 0)
(0.000143542 2.78654e-06 0)
(0.000141925 2.94652e-06 0)
(0.000140219 3.10462e-06 0)
(0.000138424 3.26068e-06 0)
(0.000136542 3.41452e-06 0)
(0.000134574 3.56598e-06 0)
(0.000132522 3.71487e-06 0)
(0.000130387 3.86098e-06 0)
(0.000128171 4.0041e-06 0)
(0.000125875 4.14403e-06 0)
(0.000123502 4.28055e-06 0)
(0.000121054 4.4134e-06 0)
(0.000118532 4.54236e-06 0)
(0.000115939 4.66716e-06 0)
(0.000113277 4.78752e-06 0)
(0.00011055 4.90318e-06 0)
(0.000107759 5.01385e-06 0)
(0.000104908 5.11921e-06 0)
(0.000102 5.21896e-06 0)
(9.90384e-05 5.31277e-06 0)
(9.60259e-05 5.4003e-06 0)
(9.29667e-05 5.4812e-06 0)
(8.98646e-05 5.5551e-06 0)
(8.67236e-05 5.62162e-06 0)
(8.3548e-05 5.68039e-06 0)
(8.03423e-05 5.731e-06 0)
(7.71112e-05 5.77303e-06 0)
(7.38597e-05 5.80606e-06 0)
(7.05929e-05 5.82965e-06 0)
(6.73163e-05 5.84336e-06 0)
(6.40356e-05 5.84673e-06 0)
(6.07565e-05 5.83929e-06 0)
(5.74854e-05 5.82055e-06 0)
(5.42285e-05 5.79004e-06 0)
(5.09926e-05 5.74726e-06 0)
(4.77846e-05 5.69171e-06 0)
(4.46117e-05 5.62289e-06 0)
(4.14813e-05 5.5403e-06 0)
(3.84012e-05 5.44344e-06 0)
(3.53792e-05 5.33181e-06 0)
(3.24235e-05 5.20493e-06 0)
(2.95426e-05 5.06233e-06 0)
(2.6745e-05 4.90359e-06 0)
(2.40395e-05 4.72831e-06 0)
(2.14351e-05 4.53614e-06 0)
(1.89407e-05 4.3268e-06 0)
(1.65655e-05 4.10012e-06 0)
(1.43186e-05 3.856e-06 0)
(1.22088e-05 3.59454e-06 0)
(1.0245e-05 3.31607e-06 0)
(8.43559e-06 3.02118e-06 0)
(6.78837e-06 2.71077e-06 0)
(5.31048e-06 2.38629e-06 0)
(4.0079e-06 2.04987e-06 0)
(2.88513e-06 1.70458e-06 0)
(1.9446e-06 1.35475e-06 0)
(1.18627e-06 1.00621e-06 0)
(6.07149e-07 6.66764e-07 0)
(1.99869e-07 3.47311e-07 0)
(-4.93731e-08 6.36705e-08 0)
(-1.61671e-07 -1.62329e-07 0)
(-1.65306e-07 -3.03155e-07 0)
(-1.00219e-07 -3.24876e-07 0)
(-2.82047e-08 -1.8311e-07 0)
(-2.02783e-08 2.29228e-07 0)
(-5.40353e-08 3.73896e-07 0)
(-4.25887e-08 2.90203e-07 0)
(7.01131e-08 4.10186e-08 0)
(3.25064e-07 -3.26704e-07 0)
(7.50989e-07 -7.75998e-07 0)
(1.36847e-06 -1.27827e-06 0)
(2.1915e-06 -1.81176e-06 0)
(3.22856e-06 -2.36023e-06 0)
(4.48353e-06 -2.9115e-06 0)
(5.95658e-06 -3.45652e-06 0)
(7.64503e-06 -3.98862e-06 0)
(9.54387e-06 -4.50294e-06 0)
(1.16463e-05 -4.99597e-06 0)
(1.39443e-05 -5.46527e-06 0)
(1.64288e-05 -5.90916e-06 0)
(1.909e-05 -6.32656e-06 0)
(2.19175e-05 -6.71686e-06 0)
(2.49007e-05 -7.07978e-06 0)
(2.8029e-05 -7.41533e-06 0)
(3.12914e-05 -7.72369e-06 0)
(3.46771e-05 -8.00524e-06 0)
(3.81754e-05 -8.26045e-06 0)
(4.17757e-05 -8.48989e-06 0)
(4.54676e-05 -8.69421e-06 0)
(4.9241e-05 -8.87412e-06 0)
(5.30858e-05 -9.03034e-06 0)
(5.69924e-05 -9.16364e-06 0)
(6.09513e-05 -9.27481e-06 0)
(6.49536e-05 -9.36463e-06 0)
(6.89903e-05 -9.4339e-06 0)
(7.30529e-05 -9.48341e-06 0)
(7.71333e-05 -9.51395e-06 0)
(8.12235e-05 -9.52628e-06 0)
(8.5316e-05 -9.52117e-06 0)
(8.94034e-05 -9.49936e-06 0)
(9.34787e-05 -9.46158e-06 0)
(9.75354e-05 -9.40856e-06 0)
(0.000101567 -9.341e-06 0)
(0.000105567 -9.25957e-06 0)
(0.000109531 -9.16494e-06 0)
(0.000113452 -9.05774e-06 0)
(0.000117325 -8.9386e-06 0)
(0.000121145 -8.80812e-06 0)
(0.000124907 -8.66689e-06 0)
(0.000128608 -8.51548e-06 0)
(0.000132241 -8.35444e-06 0)
(0.000135805 -8.18427e-06 0)
(0.000139293 -8.00549e-06 0)
(0.000142704 -7.81857e-06 0)
(0.000146033 -7.62399e-06 0)
(0.000149277 -7.4222e-06 0)
(0.000152434 -7.21361e-06 0)
(0.0001555 -6.99865e-06 0)
(0.000158472 -6.7777e-06 0)
(0.000161348 -6.55113e-06 0)
(0.000164126 -6.31931e-06 0)
(0.000166803 -6.08258e-06 0)
(0.000169377 -5.84128e-06 0)
(0.000171846 -5.5957e-06 0)
(0.000174209 -5.34616e-06 0)
(0.000176463 -5.09293e-06 0)
(0.000178608 -4.83628e-06 0)
(0.000180641 -4.57646e-06 0)
(0.000182562 -4.31372e-06 0)
(0.000184369 -4.04828e-06 0)
(0.00018606 -3.78038e-06 0)
(0.000187636 -3.51021e-06 0)
(0.000189094 -3.23798e-06 0)
(0.000190435 -2.96388e-06 0)
(0.000191656 -2.68808e-06 0)
(0.000192759 -2.41078e-06 0)
(0.000193741 -2.13213e-06 0)
(0.000194602 -1.8523e-06 0)
(0.000195343 -1.57145e-06 0)
(0.000195961 -1.28973e-06 0)
(0.000196458 -1.00729e-06 0)
(0.000196833 -7.24283e-07 0)
(0.000197085 -4.40854e-07 0)
(0.000197214 -1.57143e-07 0)
(0.000197221 1.26706e-07 0)
(0.000197105 4.10554e-07 0)
(0.000196866 6.94257e-07 0)
(0.000196505 9.77674e-07 0)
(0.000196021 1.26066e-06 0)
(0.000195415 1.54306e-06 0)
(0.000194687 1.82473e-06 0)
(0.000193837 2.1055e-06 0)
(0.000192867 2.38523e-06 0)
(0.000191775 2.66375e-06 0)
(0.000190564 2.94086e-06 0)
(0.000189234 3.2164e-06 0)
(0.000187785 3.49017e-06 0)
(0.000186218 3.76198e-06 0)
(0.000184534 4.03161e-06 0)
(0.000182734 4.29884e-06 0)
(0.00018082 4.56344e-06 0)
(0.000178792 4.82518e-06 0)
(0.000176652 5.08379e-06 0)
(0.000174402 5.33902e-06 0)
(0.000172042 5.59057e-06 0)
(0.000169575 5.83817e-06 0)
(0.000167002 6.0815e-06 0)
(0.000164326 6.32024e-06 0)
(0.000161548 6.55405e-06 0)
(0.000158671 6.78258e-06 0)
(0.000155697 7.00545e-06 0)
(0.000152628 7.22229e-06 0)
(0.000149468 7.43269e-06 0)
(0.00014622 7.63624e-06 0)
(0.000142886 7.83248e-06 0)
(0.000139469 8.02097e-06 0)
(0.000135974 8.20123e-06 0)
(0.000132404 8.37277e-06 0)
(0.000128762 8.53507e-06 0)
(0.000125054 8.68762e-06 0)
(0.000121282 8.82984e-06 0)
(0.000117453 8.96118e-06 0)
(0.00011357 9.08105e-06 0)
(0.00010964 9.18883e-06 0)
(0.000105666 9.28389e-06 0)
(0.000101655 9.3656e-06 0)
(9.76133e-05 9.43328e-06 0)
(9.35462e-05 9.48625e-06 0)
(8.94604e-05 9.52381e-06 0)
(8.53627e-05 9.54525e-06 0)
(8.12602e-05 9.54983e-06 0)
(7.71601e-05 9.5368e-06 0)
(7.30703e-05 9.50541e-06 0)
(6.89985e-05 9.45488e-06 0)
(6.4953e-05 9.38444e-06 0)
(6.09425e-05 9.2933e-06 0)
(5.69758e-05 9.18067e-06 0)
(5.3062e-05 9.0458e-06 0)
(4.92106e-05 8.8879e-06 0)
(4.54313e-05 8.70622e-06 0)
(4.17341e-05 8.50004e-06 0)
(3.81292e-05 8.26866e-06 0)
(3.46272e-05 8.01146e-06 0)
(3.12385e-05 7.72788e-06 0)
(2.7974e-05 7.41744e-06 0)
(2.48445e-05 7.07981e-06 0)
(2.18608e-05 6.71481e-06 0)
(1.90337e-05 6.32246e-06 0)
(1.63739e-05 5.90306e-06 0)
(1.38914e-05 5.45728e-06 0)
(1.15961e-05 4.98627e-06 0)
(9.49693e-06 4.49173e-06 0)
(7.60189e-06 3.97613e-06 0)
(5.91771e-06 3.44299e-06 0)
(4.44931e-06 2.8972e-06 0)
(3.1992e-06 2.34559e-06 0)
(2.1668e-06 1.79748e-06 0)
(1.34813e-06 1.26502e-06 0)
(7.35206e-07 7.63972e-07 0)
(3.14266e-07 3.15655e-07 0)
(6.37783e-08 -5.0726e-08 0)
(-4.6363e-08 -2.97249e-07 0)
(-5.62369e-08 -3.77373e-07 0)
(-2.07937e-08 -2.30195e-07 0)
(-1.03819e-08 2.48707e-07 0)
(2.66025e-09 3.55337e-07 0)
(1.08554e-07 1.75965e-07 0)
(3.53154e-07 -2.12524e-07 0)
(7.73199e-07 -7.5277e-07 0)
(1.39642e-06 -1.39934e-06 0)
(2.24293e-06 -2.11638e-06 0)
(3.32646e-06 -2.87607e-06 0)
(4.65542e-06 -3.65699e-06 0)
(6.2337e-06 -4.44281e-06 0)
(8.06146e-06 -5.2211e-06 0)
(1.01358e-05 -5.98251e-06 0)
(1.24515e-05 -6.72005e-06 0)
(1.5001e-05 -7.42854e-06 0)
(1.77756e-05 -8.10428e-06 0)
(2.07653e-05 -8.74465e-06 0)
(2.39593e-05 -9.34788e-06 0)
(2.73459e-05 -9.91289e-06 0)
(3.09132e-05 -1.04391e-05 0)
(3.46492e-05 -1.09263e-05 0)
(3.85414e-05 -1.13747e-05 0)
(4.25775e-05 -1.17846e-05 0)
(4.67451e-05 -1.21567e-05 0)
(5.10322e-05 -1.24917e-05 0)
(5.54267e-05 -1.27903e-05 0)
(5.99167e-05 -1.30536e-05 0)
(6.44908e-05 -1.32826e-05 0)
(6.91376e-05 -1.34783e-05 0)
(7.38462e-05 -1.36418e-05 0)
(7.86059e-05 -1.37741e-05 0)
(8.34064e-05 -1.38765e-05 0)
(8.82377e-05 -1.395e-05 0)
(9.30902e-05 -1.39958e-05 0)
(9.79545e-05 -1.40149e-05 0)
(0.000102822 -1.40084e-05 0)
(0.000107683 -1.39774e-05 0)
(0.000112531 -1.3923e-05 0)
(0.000117357 -1.38462e-05 0)
(0.000122153 -1.3748e-05 0)
(0.000126913 -1.36294e-05 0)
(0.000131629 -1.34914e-05 0)
(0.000136295 -1.33348e-05 0)
(0.000140904 -1.31606e-05 0)
(0.000145451 -1.29697e-05 0)
(0.00014993 -1.27629e-05 0)
(0.000154335 -1.2541e-05 0)
(0.000158662 -1.23049e-05 0)
(0.000162904 -1.20553e-05 0)
(0.000167059 -1.1793e-05 0)
(0.000171121 -1.15186e-05 0)
(0.000175086 -1.12328e-05 0)
(0.000178951 -1.09364e-05 0)
(0.000182711 -1.06299e-05 0)
(0.000186364 -1.03139e-05 0)
(0.000189905 -9.98896e-06 0)
(0.000193333 -9.65572e-06 0)
(0.000196643 -9.31468e-06 0)
(0.000199833 -8.96633e-06 0)
(0.000202902 -8.61117e-06 0)
(0.000205845 -8.24965e-06 0)
(0.000208662 -7.88221e-06 0)
(0.00021135 -7.50927e-06 0)
(0.000213907 -7.13123e-06 0)
(0.000216331 -6.74846e-06 0)
(0.000218622 -6.36132e-06 0)
(0.000220776 -5.97016e-06 0)
(0.000222793 -5.57531e-06 0)
(0.000224673 -5.17707e-06 0)
(0.000226412 -4.77575e-06 0)
(0.000228011 -4.37163e-06 0)
(0.000229468 -3.96499e-06 0)
(0.000230783 -3.55608e-06 0)
(0.000231955 -3.14515e-06 0)
(0.000232983 -2.73247e-06 0)
(0.000233866 -2.31825e-06 0)
(0.000234604 -1.90273e-06 0)
(0.000235197 -1.48614e-06 0)
(0.000235644 -1.0687e-06 0)
(0.000235945 -6.50625e-07 0)
(0.000236099 -2.32129e-07 0)
(0.000236108 1.86575e-07 0)
(0.000235969 6.05275e-07 0)
(0.000235685 1.02376e-06 0)
(0.000235254 1.44181e-06 0)
(0.000234677 1.85922e-06 0)
(0.000233955 2.27575e-06 0)
(0.000233086 2.69118e-06 0)
(0.000232073 3.10527e-06 0)
(0.000230916 3.51779e-06 0)
(0.000229615 3.92848e-06 0)
(0.00022817 4.33707e-06 0)
(0.000226584 4.74331e-06 0)
(0.000224856 5.1469e-06 0)
(0.000222987 5.54754e-06 0)
(0.00022098 5.94493e-06 0)
(0.000218834 6.33873e-06 0)
(0.000216552 6.72861e-06 0)
(0.000214134 7.1142e-06 0)
(0.000211584 7.49514e-06 0)
(0.000208901 7.87101e-06 0)
(0.000206088 8.24142e-06 0)
(0.000203148 8.60593e-06 0)
(0.000200081 8.96409e-06 0)
(0.000196892 9.31541e-06 0)
(0.000193582 9.65941e-06 0)
(0.000190153 9.99554e-06 0)
(0.00018661 1.03233e-05 0)
(0.000182954 1.06421e-05 0)
(0.00017919 1.09513e-05 0)
(0.000175321 1.12503e-05 0)
(0.00017135 1.15386e-05 0)
(0.000167281 1.18153e-05 0)
(0.000163119 1.20799e-05 0)
(0.000158867 1.23315e-05 0)
(0.000154532 1.25695e-05 0)
(0.000150117 1.2793e-05 0)
(0.000145628 1.30013e-05 0)
(0.00014107 1.31936e-05 0)
(0.000136449 1.33689e-05 0)
(0.000131772 1.35263e-05 0)
(0.000127043 1.36651e-05 0)
(0.000122271 1.37841e-05 0)
(0.000117463 1.38825e-05 0)
(0.000112624 1.39593e-05 0)
(0.000107764 1.40134e-05 0)
(0.00010289 1.40439e-05 0)
(9.80111e-05 1.40496e-05 0)
(9.31349e-05 1.40295e-05 0)
(8.82709e-05 1.39826e-05 0)
(8.34285e-05 1.39076e-05 0)
(7.86173e-05 1.38036e-05 0)
(7.38475e-05 1.36693e-05 0)
(6.91294e-05 1.35038e-05 0)
(6.44737e-05 1.33059e-05 0)
(5.98914e-05 1.30745e-05 0)
(5.5394e-05 1.28086e-05 0)
(5.09929e-05 1.25073e-05 0)
(4.67e-05 1.21695e-05 0)
(4.25274e-05 1.17946e-05 0)
(3.84874e-05 1.13817e-05 0)
(3.45922e-05 1.09304e-05 0)
(3.08542e-05 1.04401e-05 0)
(2.72859e-05 9.91097e-06 0)
(2.38992e-05 9.34306e-06 0)
(2.07062e-05 8.73699e-06 0)
(1.77183e-05 8.09391e-06 0)
(1.49463e-05 7.41569e-06 0)
(1.24001e-05 6.70503e-06 0)
(1.00883e-05 5.9657e-06 0)
(8.01836e-06 5.20287e-06 0)
(6.19546e-06 4.4235e-06 0)
(4.62252e-06 3.63697e-06 0)
(3.29905e-06 2.85597e-06 0)
(2.22064e-06 2.09723e-06 0)
(1.37881e-06 1.38206e-06 0)
(7.6034e-07 7.3756e-07 0)
(3.45265e-07 1.99278e-07 0)
(1.04618e-07 -1.86478e-07 0)
(1.02675e-09 -3.61728e-07 0)
(-1.07541e-08 -2.5074e-07 0)
(5.86325e-10 2.36186e-07 0)
(6.66034e-08 2.55854e-07 0)
(2.79548e-07 -6.01109e-08 0)
(6.72323e-07 -6.24294e-07 0)
(1.27535e-06 -1.37069e-06 0)
(2.11397e-06 -2.2463e-06 0)
(3.20669e-06 -3.2088e-06 0)
(4.56609e-06 -4.22477e-06 0)
(6.19982e-06 -5.26797e-06 0)
(8.11124e-06 -6.31796e-06 0)
(1.03001e-05 -7.35889e-06 0)
(1.27631e-05 -8.37863e-06 0)
(1.54945e-05 -9.36794e-06 0)
(1.84864e-05 -1.03199e-05 0)
(2.17292e-05 -1.12292e-05 0)
(2.52122e-05 -1.20924e-05 0)
(2.89236e-05 -1.29067e-05 0)
(3.28508e-05 -1.36705e-05 0)
(3.69809e-05 -1.43828e-05 0)
(4.13004e-05 -1.50432e-05 0)
(4.57957e-05 -1.56518e-05 0)
(5.04533e-05 -1.62088e-05 0)
(5.52593e-05 -1.67149e-05 0)
(6.02002e-05 -1.7171e-05 0)
(6.52626e-05 -1.75782e-05 0)
(7.04333e-05 -1.79376e-05 0)
(7.56993e-05 -1.82505e-05 0)
(8.10479e-05 -1.85183e-05 0)
(8.64666e-05 -1.87423e-05 0)
(9.19436e-05 -1.89239e-05 0)
(9.7467e-05 -1.90647e-05 0)
(0.000103026 -1.91662e-05 0)
(0.000108608 -1.92297e-05 0)
(0.000114205 -1.92568e-05 0)
(0.000119805 -1.9249e-05 0)
(0.000125398 -1.92076e-05 0)
(0.000130976 -1.91341e-05 0)
(0.000136528 -1.90299e-05 0)
(0.000142047 -1.88963e-05 0)
(0.000147525 -1.87347e-05 0)
(0.000152952 -1.85463e-05 0)
(0.000158323 -1.83325e-05 0)
(0.000163628 -1.80944e-05 0)
(0.000168862 -1.78333e-05 0)
(0.000174019 -1.75503e-05 0)
(0.00017909 -1.72466e-05 0)
(0.000184072 -1.69232e-05 0)
(0.000188958 -1.65811e-05 0)
(0.000193742 -1.62215e-05 0)
(0.00019842 -1.58452e-05 0)
(0.000202988 -1.54533e-05 0)
(0.000207439 -1.50465e-05 0)
(0.000211771 -1.46257e-05 0)
(0.000215979 -1.41919e-05 0)
(0.000220059 -1.37457e-05 0)
(0.000224008 -1.3288e-05 0)
(0.000227823 -1.28194e-05 0)
(0.0002315 -1.23407e-05 0)
(0.000235036 -1.18526e-05 0)
(0.000238428 -1.13556e-05 0)
(0.000241675 -1.08504e-05 0)
(0.000244773 -1.03375e-05 0)
(0.000247721 -9.81755e-06 0)
(0.000250516 -9.29102e-06 0)
(0.000253157 -8.7584e-06 0)
(0.000255641 -8.22019e-06 0)
(0.000257967 -7.67683e-06 0)
(0.000260134 -7.12876e-06 0)
(0.00026214 -6.57638e-06 0)
(0.000263983 -6.02011e-06 0)
(0.000265664 -5.4603e-06 0)
(0.000267181 -4.89734e-06 0)
(0.000268532 -4.33158e-06 0)