/*--------------------------------*- C++ -*----------------------------------*\
  =========                 |
  \\      /  F ield         | OpenFOAM: The Open Source CFD Toolbox
   \\    /   O peration     | Website:  https://openfoam.org
    \\  /    A nd           | Version:  7
     \\/     M anipulation  |
\*---------------------------------------------------------------------------*/
FoamFile
{
    version     2.0;
    format      ascii;
    class       surfaceScalarField;
    location    "0.3125";
    object      phi;
}
// * * * * * * * * * * * * * * * * * * * * * * * * * * * * * * * * * * * * * //

dimensions      [0 3 -1 0 0 0 0];

internalField   nonuniform List<scalar> 
101920
(
-4.45435e-14
1.02935e-13
1.89466e-13
-2.36469e-13
4.58485e-13
-2.67527e-13
8.81235e-13
-4.22488e-13
1.42289e-12
-5.42179e-13
2.05738e-12
-6.35134e-13
2.76172e-12
-7.05056e-13
3.51415e-12
-7.52761e-13
4.29323e-12
-7.7928e-13
5.08112e-12
-7.87483e-13
5.86241e-12
-7.81392e-13
6.62319e-12
-7.625e-13
7.35185e-12
-7.30801e-13
8.03928e-12
-6.88139e-13
8.67886e-12
-6.37795e-13
9.26293e-12
-5.82529e-13
9.78542e-12
-5.2189e-13
1.02412e-11
-4.56316e-13
1.06274e-11
-3.86639e-13
1.09418e-11
-3.13992e-13
1.11821e-11
-2.40034e-13
1.13478e-11
-1.64937e-13
1.1438e-11
-8.97141e-14
1.14523e-11
-1.44199e-14
1.1391e-11
6.12775e-14
1.12542e-11
1.35832e-13
1.10443e-11
2.09276e-13
1.07632e-11
2.81351e-13
1.04117e-11
3.50983e-13
9.9921e-12
4.19044e-13
9.50613e-12
4.85364e-13
8.95573e-12
5.49228e-13
8.34474e-12
6.10329e-13
7.67646e-12
6.67913e-13
6.95392e-12
7.22128e-13
6.1807e-12
7.7329e-13
5.35998e-12
8.2078e-13
4.49507e-12
8.64855e-13
3.58983e-12
9.05849e-13
2.64776e-12
9.42962e-13
1.67258e-12
9.75766e-13
6.68665e-13
1.00444e-12
-3.60472e-13
1.02924e-12
-1.41149e-12
1.0506e-12
-2.48038e-12
1.06859e-12
-3.56344e-12
1.08311e-12
-4.65739e-12
1.09405e-12
-5.75872e-12
1.10136e-12
-6.86345e-12
1.1047e-12
-7.96769e-12
1.10385e-12
-9.06848e-12
1.09951e-12
-1.01622e-11
1.09258e-12
-1.12455e-11
1.08285e-12
-1.23151e-11
1.06953e-12
-1.33669e-11
1.05248e-12
-1.43987e-11
1.03209e-12
-1.54082e-11
1.0089e-12
-1.63917e-11
9.83249e-13
-1.73463e-11
9.55101e-13
-1.82692e-11
9.23894e-13
-1.91582e-11
8.89466e-13
-2.0011e-11
8.52593e-13
-2.08252e-11
8.13849e-13
-2.15989e-11
7.73281e-13
-2.23301e-11
7.30867e-13
-2.30166e-11
6.86624e-13
-2.36567e-11
6.40453e-13
-2.42482e-11
5.92065e-13
-2.47891e-11
5.41654e-13
-2.52783e-11
4.89843e-13
-2.5715e-11
4.36819e-13
-2.60982e-11
3.82678e-13
-2.64273e-11
3.28056e-13
-2.67018e-11
2.73382e-13
-2.69209e-11
2.18345e-13
-2.70832e-11
1.62597e-13
-2.7188e-11
1.06147e-13
-2.72352e-11
4.88185e-14
-2.72251e-11
-9.39411e-15
-2.71582e-11
-6.77215e-14
-2.7034e-11
-1.25536e-13
-2.68529e-11
-1.82357e-13
-2.66158e-11
-2.38013e-13
-2.63233e-11
-2.92752e-13
-2.59758e-11
-3.46845e-13
-2.5574e-11
-4.00376e-13
-2.51188e-11
-4.53505e-13
-2.4612e-11
-5.0605e-13
-2.40553e-11
-5.57116e-13
-2.34499e-11
-6.0615e-13
-2.27969e-11
-6.53355e-13
-2.20983e-11
-6.98795e-13
-2.1355e-11
-7.4266e-13
-2.05689e-11
-7.85242e-13
-1.97428e-11
-8.26183e-13
-1.8879e-11
-8.64838e-13
-1.79799e-11
-9.0067e-13
-1.70471e-11
-9.33567e-13
-1.60824e-11
-9.63848e-13
-1.50889e-11
-9.91605e-13
-1.40695e-11
-1.01709e-12
-1.3028e-11
-1.0404e-12
-1.19674e-11
-1.06115e-12
-1.08897e-11
-1.07905e-12
-9.79829e-12
-1.09348e-12
-8.69582e-12
-1.10381e-12
-7.58532e-12
-1.11043e-12
-6.47052e-12
-1.11397e-12
-5.35448e-12
-1.11478e-12
-4.24078e-12
-1.11304e-12
-3.13315e-12
-1.10808e-12
-2.03403e-12
-1.09925e-12
-9.46889e-13
-1.08661e-12
1.24101e-13
-1.07023e-12
1.17551e-12
-1.05044e-12
2.20293e-12
-1.02743e-12
3.2028e-12
-1.00065e-12
4.17278e-12
-9.70182e-13
5.10892e-12
-9.36312e-13
6.00769e-12
-8.98786e-13
6.86598e-12
-8.57757e-13
7.67937e-12
-8.13377e-13
8.44467e-12
-7.65532e-13
9.15956e-12
-7.1467e-13
9.82096e-12
-6.61157e-13
1.04262e-11
-6.04901e-13
1.09724e-11
-5.462e-13
1.14559e-11
-4.84898e-13
1.18742e-11
-4.20125e-13
1.2227e-11
-3.52475e-13
1.25119e-11
-2.83411e-13
1.27262e-11
-2.1313e-13
1.28683e-11
-1.41539e-13
1.29363e-11
-6.88295e-14
1.29297e-11
5.10305e-15
1.28493e-11
7.94889e-14
1.26937e-11
1.541e-13
1.24627e-11
2.29305e-13
1.21582e-11
3.04644e-13
1.17817e-11
3.78161e-13
1.13344e-11
4.48551e-13
1.08195e-11
5.15633e-13
1.02403e-11
5.79351e-13
9.60007e-12
6.39595e-13
8.90455e-12
6.95482e-13
8.16026e-12
7.44967e-13
7.37388e-12
7.86431e-13
6.55435e-12
8.19292e-13
5.71289e-12
8.42151e-13
4.86116e-12
8.5254e-13
4.01256e-12
8.486e-13
3.18456e-12
8.28211e-13
2.39666e-12
7.88175e-13
1.67017e-12
7.2571e-13
1.03109e-12
6.38271e-13
5.09081e-13
5.22243e-13
1.34475e-13
3.75166e-13
-6.69778e-14
2.01785e-13
-8.79498e-14
2.14503e-14
-8.8001e-14
-1.34623e-13
2.35098e-13
2.32296e-13
-5.99984e-13
1.08305e-12
-1.12078e-12
2.27528e-12
-1.61277e-12
3.76501e-12
-2.03086e-12
5.48633e-12
-2.35621e-12
7.3759e-12
-2.59421e-12
9.37633e-12
-2.75397e-12
1.14376e-11
-2.84115e-12
1.3514e-11
-2.86384e-12
1.5567e-11
-2.83225e-12
1.75615e-11
-2.75427e-12
1.94662e-11
-2.6354e-12
2.12551e-11
-2.47948e-12
2.29063e-11
-2.2926e-12
2.44028e-11
-2.0802e-12
2.57286e-11
-1.84734e-12
2.68702e-11
-1.59764e-12
2.78174e-11
-1.33418e-12
2.85626e-11
-1.06053e-12
2.91008e-11
-7.78771e-13
2.94274e-11
-4.92402e-13
2.95406e-11
-2.03688e-13
2.94403e-11
8.64252e-14
2.91269e-11
3.74991e-13
2.86024e-11
6.60606e-13
2.78699e-11
9.42045e-13
2.69333e-11
1.21762e-12
2.57984e-11
1.48668e-12
2.44704e-11
1.74835e-12
2.29558e-11
2.001e-12
2.12621e-11
2.24412e-12
1.93971e-11
2.47626e-12
1.73692e-11
2.69596e-12
1.51881e-11
2.90345e-12
1.28628e-11
3.09841e-12
1.04027e-11
3.27992e-12
7.81832e-12
3.44825e-12
5.11945e-12
3.60316e-12
2.31643e-12
3.74381e-12
-5.79492e-13
3.87035e-12
-3.55755e-12
3.98217e-12
-6.60762e-12
4.0787e-12
-9.71854e-12
4.16102e-12
-1.28795e-11
4.22947e-12
-1.60806e-11
4.28336e-12
-1.93104e-11
4.32314e-12
-2.25584e-11
4.34929e-12
-2.58147e-11
4.36131e-12
-2.90684e-11
4.35871e-12
-3.23095e-11
4.34212e-12
-3.55286e-11
4.31229e-12
-3.87161e-11
4.26951e-12
-4.18624e-11
4.21447e-12
-4.49575e-11
4.14738e-12
-4.79926e-11
4.06765e-12
-5.09597e-11
3.97582e-12
-5.38497e-11
3.87296e-12
-5.66552e-11
3.75952e-12
-5.93681e-11
3.63582e-12
-6.19805e-11
3.50224e-12
-6.44861e-11
3.35919e-12
-6.68786e-11
3.20705e-12
-6.91516e-11
3.04637e-12
-7.12987e-11
2.87784e-12
-7.33139e-11
2.7017e-12
-7.51926e-11
2.51821e-12
-7.69299e-11
2.32797e-12
-7.85208e-11
2.13181e-12
-7.99615e-11
1.93048e-12
-8.12486e-11
1.72454e-12
-8.23786e-11
1.51431e-12
-8.33485e-11
1.30018e-12
-8.41566e-11
1.08259e-12
-8.48012e-11
8.62089e-13
-8.52806e-11
6.39519e-13
-8.55933e-11
4.15898e-13
-8.57377e-11
1.91662e-13
-8.57136e-11
-3.32551e-14
-8.55215e-11
-2.58416e-13
-8.51621e-11
-4.83104e-13
-8.46365e-11
-7.06624e-13
-8.39462e-11
-9.28187e-13
-8.30926e-11
-1.14716e-12
-8.20777e-11
-1.36308e-12
-8.09046e-11
-1.57522e-12
-7.95759e-11
-1.78298e-12
-7.80941e-11
-1.98636e-12
-7.64641e-11
-2.18528e-12
-7.46901e-11
-2.3791e-12
-7.27761e-11
-2.56715e-12
-7.07272e-11
-2.74856e-12
-6.85485e-11
-2.92242e-12
-6.62451e-11
-3.08859e-12
-6.38229e-11
-3.24707e-12
-6.12876e-11
-3.39765e-12
-5.86465e-11
-3.54016e-12
-5.59072e-11
-3.67376e-12
-5.30768e-11
-3.79725e-12
-5.01625e-11
-3.90952e-12
-4.71711e-11
-4.01015e-12
-4.4111e-11
-4.09986e-12
-4.09915e-11
-4.17909e-12
-3.78206e-11
-4.24756e-12
-3.46077e-11
-4.3048e-12
-3.1362e-11
-4.34968e-12
-2.80923e-11
-4.38137e-12
-2.48082e-11
-4.39985e-12
-2.15182e-11
-4.40513e-12
-1.82317e-11
-4.39782e-12
-1.496e-11
-4.37836e-12
-1.17135e-11
-4.34569e-12
-8.50157e-12
-4.29882e-12
-5.33452e-12
-4.23764e-12
-2.22177e-12
-4.16238e-12
8.26168e-13
-4.0739e-12
3.79804e-12
-3.97225e-12
6.68465e-12
-3.85663e-12
9.47584e-12
-3.72725e-12
1.2161e-11
-3.58439e-12
1.47311e-11
-3.42795e-12
1.71766e-11
-3.25861e-12
1.94876e-11
-3.07703e-12
2.16551e-11
-2.88327e-12
2.36699e-11
-2.6777e-12
2.5524e-11
-2.46063e-12
2.72112e-11
-2.2326e-12
2.87235e-11
-1.99527e-12
3.00521e-11
-1.74931e-12
3.11911e-11
-1.49394e-12
3.2136e-11
-1.22996e-12
3.28817e-11
-9.59336e-13
3.34239e-11
-6.83228e-13
3.37587e-11
-4.02869e-13
3.3883e-11
-1.19459e-13
3.37969e-11
1.66063e-13
3.35007e-11
4.51959e-13
3.29942e-11
7.36081e-13
3.22803e-11
1.01723e-12
3.13639e-11
1.29365e-12
3.0251e-11
1.56187e-12
2.89495e-11
1.81863e-12
2.7469e-11
2.06167e-12
2.58212e-11
2.28831e-12
2.40214e-11
2.49522e-12
2.20883e-11
2.67853e-12
2.00425e-11
2.83316e-12
1.79077e-11
2.95385e-12
1.57129e-11
3.0359e-12
1.3492e-11
3.07333e-12
1.12822e-11
3.05851e-12
9.12661e-12
2.98382e-12
7.07441e-12
2.84113e-12
5.17914e-12
2.62155e-12
3.49904e-12
2.31733e-12
2.09495e-12
1.92429e-12
1.02436e-12
1.4443e-12
3.30251e-13
8.9485e-13
1.80374e-14
3.32548e-13
-6.99361e-14
1.90515e-13
4.61603e-14
8.19023e-13
-1.23026e-12
2.07836e-12
-2.38138e-12
3.86901e-12
-3.40349e-12
6.09803e-12
-4.26016e-12
8.6691e-12
-4.92727e-12
1.14882e-11
-5.41371e-12
1.44709e-11
-5.73591e-12
1.75401e-11
-5.9108e-12
2.06268e-11
-5.95349e-12
2.3672e-11
-5.87953e-12
2.66231e-11
-5.70527e-12
2.94341e-11
-5.4436e-12
3.20633e-11
-5.10719e-12
3.44761e-11
-4.70554e-12
3.66434e-11
-4.2486e-12
3.85416e-11
-3.74573e-12
4.01502e-11
-3.20542e-12
4.14521e-11
-2.63589e-12
4.24357e-11
-2.04312e-12
4.30912e-11
-1.43366e-12
4.34116e-11
-8.13286e-13
4.3394e-11
-1.86114e-13
4.30362e-11
4.4313e-13
4.23401e-11
1.07041e-12
4.13093e-11
1.6919e-12
3.99471e-11
2.30349e-12
3.82608e-11
2.90291e-12
3.62586e-11
3.48813e-12
3.39493e-11
4.05632e-12
3.13443e-11
4.60543e-12
2.84549e-11
5.13323e-12
2.52934e-11
5.63731e-12
2.18734e-11
6.116e-12
1.82091e-11
6.56805e-12
1.43153e-11
6.99233e-12
1.02079e-11
7.38807e-12
5.90299e-12
7.75436e-12
1.41637e-12
8.09014e-12
-3.23469e-12
8.39505e-12
-8.03334e-12
8.66896e-12
-1.29627e-11
8.91099e-12
-1.80055e-11
9.12099e-12
-2.3144e-11
9.29957e-12
-2.83609e-11
9.44663e-12
-3.36396e-11
9.56178e-12
-3.89624e-11
9.64566e-12
-4.43122e-11
9.69838e-12
-4.96728e-11
9.72016e-12
-5.5027e-11
9.71171e-12
-6.03582e-11
9.67332e-12
-6.56509e-11
9.60529e-12
-7.0889e-11
9.50818e-12
-7.60577e-11
9.38311e-12
-8.11421e-11
9.23108e-12
-8.61271e-11
9.05253e-12
-9.09988e-11
8.84822e-12
-9.57434e-11
8.61888e-12
-1.00349e-10
8.36516e-12
-1.04802e-10
8.08853e-12
-1.09091e-10
7.79041e-12
-1.13204e-10
7.47157e-12
-1.1713e-10
7.13297e-12
-1.20859e-10
6.77575e-12
-1.24382e-10
6.40098e-12
-1.27688e-10
6.00935e-12
-1.30771e-10
5.60161e-12
-1.33622e-10
5.17905e-12
-1.36233e-10
4.74316e-12
-1.38599e-10
4.29536e-12
-1.40713e-10
3.83728e-12
-1.4257e-10
3.37037e-12
-1.44166e-10
2.89554e-12
-1.45496e-10
2.41335e-12
-1.46556e-10
1.92462e-12
-1.47346e-10
1.43054e-12
-1.47862e-10
9.32685e-13
-1.48105e-10
4.32841e-13
-1.48072e-10
-6.76303e-14
-1.47765e-10
-5.67516e-13
-1.47183e-10
-1.06563e-12
-1.46328e-10
-1.56091e-12
-1.45203e-10
-2.05211e-12
-1.43811e-10
-2.53821e-12
-1.42153e-10
-3.01849e-12
-1.40237e-10
-3.49158e-12
-1.38066e-10
-3.95551e-12
-1.35644e-10
-4.40887e-12
-1.32978e-10
-4.85112e-12
-1.30075e-10
-5.28152e-12
-1.26942e-10
-5.69907e-12
-1.23587e-10
-6.10279e-12
-1.20019e-10
-6.49117e-12
-1.16246e-10
-6.8627e-12
-1.12279e-10
-7.21622e-12
-1.08126e-10
-7.55077e-12
-1.03798e-10
-7.86622e-12
-9.93069e-11
-8.16218e-12
-9.46648e-11
-8.43728e-12
-8.98844e-11
-8.68986e-12
-8.49778e-11
-8.91837e-12
-7.99577e-11
-9.1222e-12
-7.4838e-11
-9.3012e-12
-6.96321e-11
-9.45469e-12
-6.43541e-11
-9.58219e-12
-5.90192e-11
-9.68329e-12
-5.36424e-11
-9.757e-12
-4.82396e-11
-9.80261e-12
-4.28261e-11
-9.81948e-12
-3.74167e-11
-9.80714e-12
-3.20277e-11
-9.76621e-12
-2.66759e-11
-9.69649e-12
-2.13775e-11
-9.59669e-12
-1.6149e-11
-9.46639e-12
-1.10067e-11
-9.30547e-12
-5.9665e-12
-9.11413e-12
-1.04525e-12
-8.89319e-12
3.74085e-12
-8.64239e-12
8.3757e-12
-8.36148e-12
1.2843e-11
-8.05127e-12
1.71269e-11
-7.71199e-12
2.12124e-11
-7.34393e-12
2.5085e-11
-6.9487e-12
2.87297e-11
-6.52748e-12
3.21316e-11
-6.08049e-12
3.52775e-11
-5.60846e-12
3.81553e-11
-5.11222e-12
4.07543e-11
-4.59358e-12
4.3063e-11
-4.05568e-12
4.50699e-11
-3.50009e-12
4.67661e-11
-2.92714e-12
4.81446e-11
-2.33905e-12
4.91994e-11
-1.73898e-12
4.99245e-11
-1.12937e-12
5.03162e-11
-5.12785e-13
5.03735e-11
1.07803e-13
5.00969e-11
7.29121e-13
4.94885e-11
1.34653e-12
4.85525e-11
1.95496e-12
4.72955e-11
2.55049e-12
4.57276e-11
3.12884e-12
4.38626e-11
3.68372e-12
4.17163e-11
4.20863e-12
3.93076e-11
4.69741e-12
3.66609e-11
5.14254e-12
3.38047e-11
5.53538e-12
3.07716e-11
5.86684e-12
2.75999e-11
6.12648e-12
2.43335e-11
6.3028e-12
2.10223e-11
6.38397e-12
1.77233e-11
6.357e-12
1.44997e-11
6.20711e-12
1.14212e-11
5.91922e-12
8.56311e-12
5.47938e-12
6.00579e-12
4.87567e-12
3.82822e-12
4.10278e-12
2.10199e-12
3.16997e-12
8.83621e-13
2.11237e-12
1.95363e-13
1.01945e-12
1.25302e-13
3.6791e-13
-3.22003e-13
1.37998e-12
-2.24001e-12
3.07938e-12
-4.0807e-12
5.39867e-12
-5.72379e-12
8.23896e-12
-7.10046e-12
1.1489e-11
-8.17836e-12
1.50378e-11
-8.96348e-12
1.87826e-11
-9.47996e-12
2.26289e-11
-9.75501e-12
2.6489e-11
-9.81356e-12
3.02859e-11
-9.67901e-12
3.39527e-11
-9.37403e-12
3.74293e-11
-8.92146e-12
4.06638e-11
-8.34102e-12
4.361e-11
-7.65123e-12
4.62291e-11
-6.86828e-12
4.84894e-11
-6.00659e-12
5.03636e-11
-5.08057e-12
5.18304e-11
-4.10267e-12
5.28721e-11
-3.08473e-12
5.34757e-11
-2.03744e-12
5.36332e-11
-9.69968e-13
5.33386e-11
1.08704e-13
5.25901e-11
1.19109e-12
5.13893e-11
2.27126e-12
4.97398e-11
3.34161e-12
4.76473e-11
4.39625e-12
4.51209e-11
5.43009e-12
4.21709e-11
6.43828e-12
3.88099e-11
7.417e-12
3.5053e-11
8.3625e-12
3.09151e-11
9.27077e-12
2.64133e-11
1.01389e-11
2.15655e-11
1.09638e-11
1.63903e-11
1.17425e-11
1.09081e-11
1.24737e-11
5.14003e-12
1.31557e-11
-8.92669e-13
1.37863e-11
-7.16759e-12
1.43647e-11
-1.36618e-11
1.48896e-11
-2.03531e-11
1.536e-11
-2.72183e-11
1.57756e-11
-3.42337e-11
1.6136e-11
-4.1376e-11
1.64414e-11
-4.86214e-11
1.66917e-11
-5.59465e-11
1.68871e-11
-6.33281e-11
1.70278e-11
-7.07429e-11
1.71137e-11
-7.81685e-11
1.71459e-11
-8.55823e-11
1.71251e-11
-9.29619e-11
1.70521e-11
-1.00285e-10
1.69282e-11
-1.07531e-10
1.67541e-11
-1.14678e-10
1.65306e-11
-1.21707e-10
1.62593e-11
-1.28597e-10
1.59419e-11
-1.35329e-10
1.55799e-11
-1.41885e-10
1.51747e-11
-1.48247e-10
1.47274e-11
-1.54398e-10
1.424e-11
-1.60322e-10
1.37144e-11
-1.66003e-10
1.3152e-11
-1.71425e-10
1.2555e-11
-1.76575e-10
1.19253e-11
-1.81439e-10
1.12648e-11
-1.86006e-10
1.05753e-11
-1.90263e-10
9.85868e-12
-1.942e-10
9.11682e-12
-1.97807e-10
8.35146e-12
-2.01076e-10
7.56478e-12
-2.03997e-10
6.75919e-12
-2.06564e-10
5.93708e-12
-2.08771e-10
5.10074e-12
-2.10611e-10
4.25235e-12
-2.12081e-10
3.39386e-12
-2.13177e-10
2.52681e-12
-2.13896e-10
1.6529e-12
-2.14237e-10
7.748e-13
-2.142e-10
-1.0486e-13
-2.13783e-10
-9.84012e-13
-2.12989e-10
-1.86045e-12
-2.11819e-10
-2.73189e-12
-2.10276e-10
-3.59602e-12
-2.08364e-10
-4.45077e-12
-2.06087e-10
-5.29469e-12
-2.03451e-10
-6.12604e-12
-2.00464e-10
-6.94235e-12
-1.97132e-10
-7.74118e-12
-1.93463e-10
-8.52059e-12
-1.89467e-10
-9.27868e-12
-1.85152e-10
-1.00133e-11
-1.80531e-10
-1.07232e-11
-1.75614e-10
-1.14067e-11
-1.70414e-10
-1.20618e-11
-1.64944e-10
-1.26863e-11
-1.59219e-10
-1.32779e-11
-1.53252e-10
-1.38349e-11
-1.47059e-10
-1.43564e-11
-1.40655e-10
-1.48407e-11
-1.34057e-10
-1.52862e-11
-1.27284e-10
-1.56912e-11
-1.20352e-10
-1.60541e-11
-1.1328e-10
-1.63736e-11
-1.06088e-10
-1.66483e-11
-9.87946e-11
-1.68769e-11
-9.14192e-11
-1.70589e-11
-8.39823e-11
-1.71932e-11
-7.65051e-11
-1.72789e-11
-6.90092e-11
-1.7315e-11
-6.15168e-11
-1.73004e-11
-5.4049e-11
-1.72345e-11
-4.66275e-11
-1.71175e-11
-3.92746e-11
-1.69487e-11
-3.20128e-11
-1.67276e-11
-2.48642e-11
-1.64539e-11
-1.78513e-11
-1.61273e-11
-1.09962e-11
-1.5748e-11
-4.32096e-12
-1.5317e-11
2.15186e-12
-1.48342e-11
8.40133e-12
-1.43004e-11
1.44063e-11
-1.37168e-11
2.01449e-11
-1.30837e-11
2.5598e-11
-1.24022e-11
3.07464e-11
-1.16749e-11
3.55699e-11
-1.09035e-11
4.00508e-11
-1.00895e-11
4.41719e-11
-9.23474e-12
4.79171e-11
-8.34117e-12
5.12728e-11
-7.41204e-12
5.42257e-11
-6.45175e-12
5.67622e-11
-5.46338e-12
5.88722e-11
-4.44953e-12
6.05487e-11
-3.41466e-12
6.17839e-11
-2.36399e-12
6.25731e-11
-1.30215e-12
6.29148e-11
-2.34264e-13
6.28095e-11
8.33588e-13
6.22607e-11
1.89475e-12
6.12756e-11
2.94124e-12
5.98631e-11
3.96435e-12
5.80355e-11
4.95608e-12
5.58115e-11
5.90758e-12
5.32135e-11
6.80767e-12
5.02668e-11
7.64459e-12
4.70031e-11
8.40634e-12
4.34602e-11
9.07899e-12
3.96801e-11
9.64686e-12
3.57125e-11
1.00935e-11
3.16148e-11
1.04009e-11
2.74502e-11
1.05493e-11
2.32891e-11
1.05178e-11
1.921e-11
1.02857e-11
1.52979e-11
9.83116e-12
1.16423e-11
9.13391e-12
8.33768e-12
8.17925e-12
5.4781e-12
6.96272e-12
3.14961e-12
5.49861e-12
1.4271e-12
3.83411e-12
3.66885e-13
2.07842e-12
4.92079e-13
5.24168e-13
-8.46828e-13
1.86288e-12
-3.57762e-12
3.96757e-12
-6.18561e-12
6.74985e-12
-8.50665e-12
1.00981e-11
-1.0449e-11
1.38923e-11
-1.19724e-11
1.80097e-11
-1.3082e-11
2.23341e-11
-1.38059e-11
2.67589e-11
-1.41794e-11
3.11851e-11
-1.42384e-11
3.55227e-11
-1.40157e-11
3.96909e-11
-1.35436e-11
4.36201e-11
-1.28521e-11
4.72483e-11
-1.19698e-11
5.05211e-11
-1.09238e-11
5.33917e-11
-9.73816e-12
5.58202e-11
-8.4355e-12
5.7775e-11
-7.03537e-12
5.92292e-11
-5.55679e-12
6.01613e-11
-4.0174e-12
6.05561e-11
-2.43214e-12
6.04019e-11
-8.15836e-13
5.96921e-11
8.18221e-13
5.84249e-11
2.45858e-12
5.66008e-11
4.09473e-12
5.42247e-11
5.71694e-12
5.13043e-11
7.31638e-12
4.78493e-11
8.88463e-12
4.38731e-11
1.04144e-11
3.9391e-11
1.18993e-11
3.44202e-11
1.33331e-11
2.89805e-11
1.47105e-11
2.30927e-11
1.60271e-11
1.67786e-11
1.72779e-11
1.00622e-11
1.84591e-11
2.96838e-12
1.95679e-11
-4.47743e-12
2.06012e-11
-1.22482e-11
2.15566e-11
-2.03163e-11
2.24325e-11
-2.86536e-11
2.32268e-11
-3.72321e-11
2.39381e-11
-4.60225e-11
2.4566e-11
-5.49959e-11
2.51096e-11
-6.41237e-11
2.55684e-11
-7.33755e-11
2.59429e-11
-8.27223e-11
2.62334e-11
-9.21355e-11
2.644e-11
-1.01585e-10
2.65634e-11
-1.11043e-10
2.66044e-11
-1.20482e-10
2.65639e-11
-1.29873e-10
2.64432e-11
-1.3919e-10
2.62442e-11
-1.48404e-10
2.59688e-11
-1.57491e-10
2.56178e-11
-1.66425e-10
2.51934e-11
-1.75181e-10
2.4698e-11
-1.83735e-10
2.41335e-11
-1.92064e-10
2.35026e-11
-2.00144e-10
2.28078e-11
-2.07956e-10
2.20515e-11
-2.15477e-10
2.12363e-11
-2.2269e-10
2.03648e-11
-2.29575e-10
1.94399e-11
-2.36113e-10
1.84643e-11
-2.4229e-10
1.74409e-11
-2.48088e-10
1.63728e-11
-2.53492e-10
1.52632e-11
-2.58491e-10
1.41152e-11
-2.63072e-10
1.29317e-11
-2.67223e-10
1.17159e-11
-2.70934e-10
1.0471e-11
-2.74195e-10
9.19991e-12
-2.77e-10
7.90609e-12
-2.79341e-10
6.59315e-12
-2.81213e-10
5.26463e-12
-2.82611e-10
3.9236e-12
-2.83531e-10
2.57293e-12
-2.83973e-10
1.216e-12
-2.83934e-10
-1.43559e-13
-2.83414e-10
-1.50257e-12
-2.82417e-10
-2.85769e-12
-2.80943e-10
-4.20553e-12
-2.78996e-10
-5.54283e-12
-2.76582e-10
-6.86607e-12
-2.73705e-10
-8.172e-12
-2.70374e-10
-9.45777e-12
-2.66595e-10
-1.07204e-11
-2.62379e-10
-1.19567e-11
-2.57736e-10
-1.31636e-11
-2.52677e-10
-1.43378e-11
-2.47215e-10
-1.54763e-11
-2.41363e-10
-1.65759e-11
-2.35135e-10
-1.76343e-11
-2.28547e-10
-1.86486e-11
-2.21615e-10
-1.96163e-11
-2.14357e-10
-2.05346e-11
-2.06793e-10
-2.14004e-11
-1.98939e-10
-2.22109e-11
-1.90818e-10
-2.29638e-11
-1.82449e-10
-2.36564e-11
-1.73853e-10
-2.4287e-11
-1.65055e-10
-2.48532e-11
-1.56075e-10
-2.53528e-11
-1.46939e-10
-2.57841e-11
-1.37671e-10
-2.6145e-11
-1.28297e-10
-2.64338e-11
-1.18842e-10
-2.66491e-11
-1.09331e-10
-2.67895e-11
-9.97908e-11
-2.6854e-11
-9.02496e-11
-2.68415e-11
-8.0735e-11
-2.67503e-11
-7.12732e-11
-2.65795e-11
-6.18926e-11
-2.63293e-11
-5.26212e-11
-2.59989e-11
-4.34861e-11
-2.55882e-11
-3.45159e-11
-2.50971e-11
-2.57383e-11
-2.45255e-11
-1.71802e-11
-2.38741e-11
-8.87032e-12
-2.3144e-11
-8.35015e-13
-2.23358e-11
6.90041e-12
-2.14513e-11
1.43087e-11
-2.04923e-11
2.13645e-11
-1.94596e-11
2.80449e-11
-1.83557e-11
3.43258e-11
-1.7184e-11
4.01846e-11
-1.59477e-11
4.56005e-11
-1.465e-11
5.05527e-11
-1.32946e-11
5.50233e-11
-1.18852e-11
5.89975e-11
-1.04267e-11
6.24596e-11
-8.92548e-12
6.53961e-11
-7.38692e-12
6.77976e-11
-5.8165e-12
6.96564e-11
-4.22172e-12
7.09665e-11
-2.61106e-12
7.17257e-11
-9.92649e-13
7.19347e-11
6.24605e-13
7.15975e-11
2.23052e-12
7.07235e-11
3.81421e-12
6.93253e-11
5.36327e-12
6.74181e-11
6.86398e-12
6.50231e-11
8.30242e-12
6.21679e-11
9.6634e-12
5.88844e-11
1.09293e-11
5.52105e-11
1.2081e-11
5.1191e-11
1.30989e-11
4.68771e-11
1.3961e-11
4.23271e-11
1.46431e-11
3.76077e-11
1.51197e-11
3.2793e-11
1.5364e-11
2.79648e-11
1.53468e-11
2.3212e-11
1.50389e-11
1.86308e-11
1.44126e-11
1.4322e-11
1.34427e-11
1.03906e-11
1.21103e-11
6.94291e-12
1.04101e-11
4.08206e-12
8.35925e-12
1.90664e-12
6.00882e-12
5.12903e-13
3.47132e-12
1.00504e-12
6.44346e-13
-1.49187e-12
2.25497e-12
-5.18807e-12
4.70696e-12
-8.63694e-12
7.87646e-12
-1.16776e-11
1.16358e-11
-1.42085e-11
1.58544e-11
-1.61895e-11
2.04007e-11
-1.76279e-11
2.51489e-11
-1.85555e-11
2.99821e-11
-1.90149e-11
3.4794e-11
-1.90502e-11
3.94849e-11
-1.8706e-11
4.39656e-11
-1.8024e-11
4.81566e-11
-1.70437e-11
5.19885e-11
-1.58027e-11
5.54005e-11
-1.43359e-11
5.83389e-11
-1.26768e-11
6.07589e-11
-1.08555e-11
6.26232e-11
-8.89933e-12
6.39005e-11
-6.83445e-12
6.45674e-11
-4.68398e-12
6.46051e-11
-2.46972e-12
6.40002e-11
-2.1139e-13
6.27455e-11
2.07309e-12
6.08377e-11
4.36684e-12
5.82778e-11
6.6546e-12
5.50715e-11
8.92346e-12
5.12272e-11
1.11604e-11
4.67571e-11
1.33542e-11
4.16768e-11
1.54947e-11
3.60035e-11
1.75722e-11
2.97579e-11
1.95785e-11
2.29627e-11
2.15059e-11
1.56421e-11
2.33474e-11
7.82247e-12
2.50971e-11
-4.67865e-13
2.67497e-11
-9.20011e-12
2.83002e-11
-1.83438e-11
2.97445e-11
-2.78668e-11
3.10796e-11
-3.7737e-11
3.23025e-11
-4.79214e-11
3.34106e-11
-5.83859e-11
3.44022e-11
-6.90963e-11
3.52762e-11
-8.00183e-11
3.60315e-11
-9.11173e-11
3.66673e-11
-1.02358e-10
3.71841e-11
-1.13707e-10
3.75817e-11
-1.25128e-10
3.78608e-11
-1.36588e-10
3.80226e-11
-1.48051e-10
3.8068e-11
-1.59486e-10
3.79984e-11
-1.70858e-10
3.78155e-11
-1.82135e-10
3.75216e-11
-1.93286e-10
3.7119e-11
-2.04279e-10
3.66102e-11
-2.15083e-10
3.59979e-11
-2.2567e-10
3.5285e-11
-2.3601e-10
3.4474e-11
-2.46077e-10
3.35688e-11
-2.55842e-10
3.25731e-11
-2.65281e-10
3.14901e-11
-2.74369e-10
3.03235e-11
-2.83082e-10
2.90774e-11
-2.91398e-10
2.77558e-11
-2.99296e-10
2.63624e-11
-3.06756e-10
2.49012e-11
-3.13759e-10
2.33765e-11
-3.20288e-10
2.17927e-11
-3.26327e-10
2.0154e-11
-3.3186e-10
1.8465e-11
-3.36876e-10
1.67305e-11
-3.4136e-10
1.49549e-11
-3.45303e-10
1.31426e-11
-3.48695e-10
1.12981e-11
-3.51527e-10
9.42615e-12
-3.53793e-10
7.53137e-12
-3.55489e-10
5.61862e-12
-3.56608e-10
3.69256e-12
-3.57151e-10
1.75782e-12
-3.57114e-10
-1.80761e-13
-3.56498e-10
-2.11855e-12
-3.55305e-10
-4.05074e-12
-3.53538e-10
-5.97256e-12
-3.512e-10
-7.87975e-12
-3.48299e-10
-9.76764e-12
-3.44841e-10
-1.16313e-11
-3.40833e-10
-1.3466e-11
-3.36286e-10
-1.52676e-11
-3.31211e-10
-1.70317e-11
-3.2562e-10
-1.8754e-11
-3.19527e-10
-2.04302e-11
-3.12947e-10
-2.20563e-11
-3.05895e-10
-2.36278e-11
-2.9839e-10
-2.51404e-11
-2.90449e-10
-2.65901e-11
-2.82092e-10
-2.7973e-11
-2.7334e-10
-2.92859e-11
-2.64215e-10
-3.05249e-11
-2.5474e-10
-3.16859e-11
-2.44939e-10
-3.27653e-11
-2.34837e-10
-3.37596e-11
-2.2446e-10
-3.46655e-11
-2.13834e-10
-3.54801e-11
-2.02987e-10
-3.62004e-11
-1.91946e-10
-3.68239e-11
-1.80742e-10
-3.73483e-11
-1.69406e-10
-3.77707e-11
-1.57966e-10
-3.80889e-11
-1.46456e-10
-3.83008e-11
-1.34905e-10
-3.8405e-11
-1.23345e-10
-3.84001e-11
-1.11811e-10
-3.82846e-11
-1.00335e-10
-3.80566e-11
-8.89482e-11
-3.77157e-11
-7.76859e-11
-3.72616e-11
-6.65799e-11
-3.66938e-11
-5.56638e-11
-3.60125e-11
-4.49709e-11
-3.52182e-11
-3.45334e-11
-3.43113e-11
-2.43843e-11
-3.32931e-11
-1.45558e-11
-3.2165e-11
-5.07803e-12
-3.09289e-11
4.018e-12
-2.95875e-11
1.27017e-11
-2.81438e-11
2.09448e-11
-2.66e-11
2.87197e-11
-2.496e-11
3.60001e-11
-2.32286e-11
4.27613e-11
-2.14111e-11
4.89793e-11
-1.95128e-11
5.46325e-11
-1.75397e-11
5.97024e-11
-1.54979e-11
6.4172e-11
-1.33952e-11
6.80261e-11
-1.12407e-11
7.12523e-11
-9.04315e-12
7.38416e-11
-6.81149e-12
7.57883e-11
-4.55724e-12
7.70898e-11
-2.29317e-12
7.77465e-11
-3.18533e-14
7.77634e-11
2.213e-12
7.7151e-11
4.42588e-12
7.59237e-11
6.5901e-12
7.41008e-11
8.68731e-12
7.17068e-11
1.06972e-11
6.87723e-11
1.25983e-11
6.53338e-11
1.43678e-11
6.14355e-11
1.59799e-11
5.71283e-11
1.7407e-11
5.24693e-11
1.86198e-11
4.7525e-11
1.95873e-11
4.23696e-11
2.02755e-11
3.70843e-11
2.0649e-11
3.17591e-11
2.06716e-11
2.64921e-11
2.03064e-11
2.13882e-11
1.95177e-11
1.65565e-11
1.82745e-11
1.21124e-11
1.65542e-11
8.17484e-12
1.43476e-11
4.86409e-12
1.16697e-11
2.3046e-12
8.56779e-12
6.31074e-13
5.14458e-12
1.63635e-12
7.29499e-13
-2.22196e-12
2.552e-12
-7.01057e-12
5.28087e-12
-1.13655e-11
8.75836e-12
-1.51558e-11
1.28341e-11
-1.82854e-11
1.73657e-11
-2.07208e-11
2.2215e-11
-2.24759e-11
2.72483e-11
-2.3589e-11
3.23418e-11
-2.41092e-11
3.73804e-11
-2.40903e-11
4.22598e-11
-2.35858e-11
4.68839e-11
-2.26478e-11
5.11668e-11
-2.13265e-11
5.50325e-11
-1.96685e-11
5.84143e-11
-1.77184e-11
6.12547e-11
-1.55175e-11
6.35041e-11
-1.31047e-11
6.51206e-11
-1.05162e-11
6.60707e-11
-7.7844e-12
6.6327e-11
-4.94031e-12
6.58693e-11
-2.01244e-12
6.46835e-11
9.74228e-13
6.27606e-11
3.99569e-12
6.0097e-11
7.03001e-12
5.66945e-11
1.00574e-11
5.25585e-11
1.30595e-11
4.7699e-11
1.60197e-11
4.213e-11
1.89231e-11
3.58688e-11
2.17558e-11
2.89355e-11
2.45053e-11
2.13536e-11
2.71607e-11
1.31484e-11
2.97114e-11
4.34769e-12
3.21479e-11
-5.01803e-12
3.44629e-11
-1.49172e-11
3.66489e-11
-2.53164e-11
3.8699e-11
-3.61805e-11
4.06085e-11
-4.74731e-11
4.23725e-11
-5.91579e-11
4.39869e-11
-7.11963e-11
4.54487e-11
-8.35496e-11
4.67554e-11
-9.6179e-11
4.79049e-11
-1.09044e-10
4.88963e-11
-1.22106e-10
4.97287e-11
-1.35324e-10
5.0402e-11
-1.48658e-10
5.09161e-11
-1.6207e-10
5.1272e-11
-1.75518e-10
5.14709e-11
-1.88965e-10
5.15142e-11
-2.02371e-10
5.14041e-11
-2.15698e-10
5.11429e-11
-2.28909e-10
5.07328e-11
-2.41967e-10
5.01771e-11
-2.54837e-10
4.94793e-11
-2.67482e-10
4.8643e-11
-2.7987e-10
4.7672e-11
-2.91966e-10
4.65704e-11
-3.03739e-10
4.53425e-11
-3.15159e-10
4.3993e-11
-3.26196e-10
4.25265e-11
-3.3682e-10
4.0948e-11
-3.47006e-10
3.92628e-11
-3.56726e-10
3.74761e-11
-3.65958e-10
3.55932e-11
-3.74677e-10
3.362e-11
-3.82862e-10
3.15618e-11
-3.90493e-10
2.9424e-11
-3.97551e-10
2.72127e-11
-4.0402e-10
2.4934e-11
-4.09882e-10
2.25937e-11
-4.15126e-10
2.01979e-11
-4.19737e-10
1.77533e-11
-4.23705e-10
1.52659e-11
-4.27021e-10
1.27417e-11
-4.29676e-10
1.01866e-11
-4.31665e-10
7.60724e-12
-4.32982e-10
5.01014e-12
-4.33626e-10
2.40135e-12
-4.33594e-10
-2.12869e-13
-4.32887e-10
-2.8261e-12
-4.31506e-10
-5.4319e-12
-4.29455e-10
-8.02379e-12
-4.26739e-10
-1.05959e-11
-4.23364e-10
-1.31422e-11
-4.1934e-10
-1.56562e-11
-4.14674e-10
-1.8132e-11
-4.09379e-10
-2.05634e-11
-4.03466e-10
-2.29443e-11
-3.96952e-10
-2.5269e-11
-3.8985e-10
-2.75317e-11
-3.82178e-10
-2.97271e-11
-3.73956e-10
-3.18497e-11
-3.65202e-10
-3.38937e-11
-3.55939e-10
-3.58535e-11
-3.46189e-10
-3.77237e-11
-3.35976e-10
-3.94994e-11
-3.25326e-10
-4.11759e-11
-3.14264e-10
-4.27479e-11
-3.02818e-10
-4.42107e-11
-2.91018e-10
-4.55599e-11
-2.78893e-10
-4.67908e-11
-2.66474e-10
-4.78993e-11
-2.53794e-10
-4.88817e-11
-2.40884e-10
-4.97342e-11
-2.27778e-10
-5.04538e-11
-2.14511e-10
-5.10373e-11
-2.01119e-10
-5.14813e-11
-1.87637e-10
-5.17832e-11
-1.74102e-10
-5.19407e-11
-1.60551e-10
-5.19516e-11
-1.4702e-10
-5.18145e-11
-1.33549e-10
-5.15277e-11
-1.20175e-10
-5.10898e-11
-1.06937e-10
-5.05003e-11
-9.38709e-11
-4.97592e-11
-8.10168e-11
-4.88663e-11
-6.84122e-11
-4.78224e-11
-5.60946e-11
-4.66288e-11
-4.41015e-11
-4.52866e-11
-3.24696e-11
-4.37976e-11
-2.12344e-11
-4.21647e-11
-1.04311e-11
-4.03909e-11
-9.36335e-14
-3.84805e-11
9.74481e-12
-3.64382e-11
1.90519e-11
-3.42682e-11
2.77981e-11
-3.19761e-11
3.59554e-11
-2.95692e-11
4.34966e-11
-2.70548e-11
5.03973e-11
-2.44412e-11
5.66358e-11
-2.17371e-11
6.21923e-11
-1.89524e-11
6.70504e-11
-1.60984e-11
7.11965e-11
-1.31881e-11
7.4619e-11
-1.02344e-11
7.73112e-11
-7.25077e-12
7.92717e-11
-4.25361e-12
8.05009e-11
-1.26079e-12
8.10039e-11
1.70951e-12
8.07923e-11
4.63748e-12
7.98822e-11
7.50066e-12
7.82945e-11
1.0275e-11
7.60575e-11
1.29347e-11
7.32053e-11
1.54517e-11
6.97776e-11
1.77956e-11
6.58226e-11
1.99344e-11
6.13968e-11
2.18333e-11
5.65626e-11
2.34545e-11
5.13915e-11
2.47583e-11
4.59642e-11
2.57034e-11
4.03681e-11
2.6246e-11
3.46991e-11
2.6341e-11
2.90615e-11
2.59437e-11
2.35676e-11
2.50119e-11
1.83353e-11
2.35072e-11
1.34888e-11
2.14004e-11
9.15999e-12
1.86765e-11
5.48661e-12
1.53429e-11
2.61778e-12
1.14362e-11
7.21981e-13
7.04051e-12
2.35866e-12
7.85832e-13
-3.00785e-12
2.75949e-12
-8.98577e-12
5.69201e-12
-1.42969e-11
9.39374e-12
-1.88566e-11
1.36928e-11
-2.2586e-11
1.84336e-11
-2.54629e-11
2.347e-11
-2.75125e-11
2.86634e-11
-2.87814e-11
3.38825e-11
-2.93285e-11
3.90075e-11
-2.92161e-11
4.39285e-11
-2.85075e-11
4.85449e-11
-2.72649e-11
5.27668e-11
-2.5548e-11
5.65126e-11
-2.34146e-11
5.97121e-11
-2.09182e-11
6.23037e-11
-1.81092e-11
6.42341e-11
-1.50357e-11
6.54594e-11
-1.17415e-11
6.59429e-11
-8.26757e-12
6.56547e-11
-4.65262e-12
6.45737e-11
-9.31447e-13
6.26846e-11
2.86353e-12
5.99775e-11
6.70242e-12
5.64494e-11
1.05579e-11
5.21018e-11
1.44047e-11
4.69411e-11
1.82198e-11
4.09788e-11
2.1982e-11
3.42299e-11
2.56719e-11
2.67136e-11
2.92718e-11
1.84531e-11
3.27661e-11
9.47359e-12
3.61403e-11
-1.96118e-13
3.9381e-11
-1.05246e-11
4.24768e-11
-2.14787e-11
4.54172e-11
-3.30229e-11
4.81926e-11
-4.51193e-11
5.07953e-11
-5.77291e-11
5.32181e-11
-7.0812e-11
5.5455e-11
-8.43263e-11
5.75007e-11
-9.82292e-11
5.93515e-11
-1.12478e-10
6.10037e-11
-1.27028e-10
6.24547e-11
-1.41835e-10
6.37032e-11
-1.56854e-10
6.4748e-11
-1.72042e-10
6.55887e-11
-1.87352e-10
6.62257e-11
-2.02739e-10
6.66598e-11
-2.18161e-10
6.68923e-11
-2.33572e-10
6.69252e-11
-2.48929e-10
6.67611e-11
-2.6419e-10
6.64032e-11
-2.79312e-10
6.58543e-11
-2.94253e-10
6.51186e-11
-3.08974e-10
6.42002e-11
-3.23435e-10
6.31036e-11
-3.37597e-10
6.18338e-11
-3.51423e-10
6.03964e-11
-3.64877e-10
5.87968e-11
-3.77925e-10
5.70407e-11
-3.90533e-10
5.51341e-11
-4.02669e-10
5.30838e-11
-4.14302e-10
5.0896e-11
-4.25403e-10
4.85773e-11
-4.35945e-10
4.61349e-11
-4.45901e-10
4.35759e-11
-4.55247e-10
4.09076e-11