/*--------------------------------*- C++ -*----------------------------------*\
  =========                 |
  \\      /  F ield         | OpenFOAM: The Open Source CFD Toolbox
   \\    /   O peration     | Website:  https://openfoam.org
    \\  /    A nd           | Version:  7
     \\/     M anipulation  |
\*---------------------------------------------------------------------------*/
FoamFile
{
    version     2.0;
    format      ascii;
    class       volVectorField;
    location    "0.3125";
    object      U;
}
// * * * * * * * * * * * * * * * * * * * * * * * * * * * * * * * * * * * * * //

dimensions      [0 1 -1 0 0 0 0];

internalField   nonuniform List<vector> 
51200
(
(-4.08582e-08 -2.42979e-08 0)
(-1.6234e-09 -4.57033e-08 0)
(3.09821e-08 -2.43056e-08 0)
(1.08221e-07 -2.54173e-08 0)
(1.83396e-07 -2.94263e-08 0)
(2.76665e-07 -3.34649e-08 0)
(3.84093e-07 -3.68987e-08 0)
(5.01324e-07 -3.92777e-08 0)
(6.24326e-07 -4.03757e-08 0)
(7.50122e-07 -4.0545e-08 0)
(8.76152e-07 -4.01968e-08 0)
(1.00001e-06 -3.93426e-08 0)
(1.11951e-06 -3.78652e-08 0)
(1.23306e-06 -3.59145e-08 0)
(1.33955e-06 -3.36427e-08 0)
(1.43771e-06 -3.1087e-08 0)
(1.52636e-06 -2.80668e-08 0)
(1.60472e-06 -2.47137e-08 0)
(1.67218e-06 -2.12551e-08 0)
(1.72833e-06 -1.77368e-08 0)
(1.77279e-06 -1.42299e-08 0)
(1.80531e-06 -1.07154e-08 0)
(1.82582e-06 -7.16958e-09 0)
(1.83417e-06 -3.53398e-09 0)
(1.83033e-06 1.07892e-10 0)
(1.81444e-06 3.5054e-09 0)
(1.78671e-06 6.73035e-09 0)
(1.7474e-06 9.88366e-09 0)
(1.69671e-06 1.30393e-08 0)
(1.63493e-06 1.63026e-08 0)
(1.56237e-06 1.96381e-08 0)
(1.47932e-06 2.28631e-08 0)
(1.3863e-06 2.58138e-08 0)
(1.28388e-06 2.84632e-08 0)
(1.17249e-06 3.09219e-08 0)
(1.05266e-06 3.32115e-08 0)
(9.25038e-07 3.53042e-08 0)
(7.9008e-07 3.7301e-08 0)
(6.48309e-07 3.92387e-08 0)
(5.00371e-07 4.10247e-08 0)
(3.46836e-07 4.26078e-08 0)
(1.88362e-07 4.39763e-08 0)
(2.55927e-08 4.51877e-08 0)
(-1.41002e-07 4.63038e-08 0)
(-3.10761e-07 4.72464e-08 0)
(-4.83016e-07 4.79985e-08 0)
(-6.57332e-07 4.85824e-08 0)
(-8.33135e-07 4.89172e-08 0)
(-1.00973e-06 4.89333e-08 0)
(-1.18653e-06 4.87114e-08 0)
(-1.36307e-06 4.84176e-08 0)
(-1.5388e-06 4.8146e-08 0)
(-1.71312e-06 4.78171e-08 0)
(-1.88547e-06 4.73151e-08 0)
(-2.05528e-06 4.66576e-08 0)
(-2.2221e-06 4.59028e-08 0)
(-2.38554e-06 4.50493e-08 0)
(-2.54512e-06 4.40276e-08 0)
(-2.70027e-06 4.27458e-08 0)
(-2.85054e-06 4.11731e-08 0)
(-2.99556e-06 3.93961e-08 0)
(-3.13499e-06 3.75815e-08 0)
(-3.26843e-06 3.58667e-08 0)
(-3.39557e-06 3.42597e-08 0)
(-3.51608e-06 3.2634e-08 0)
(-3.62959e-06 3.08352e-08 0)
(-3.73577e-06 2.87571e-08 0)
(-3.83432e-06 2.63949e-08 0)
(-3.92493e-06 2.39012e-08 0)
(-4.00741e-06 2.14559e-08 0)
(-4.08155e-06 1.91113e-08 0)
(-4.14719e-06 1.68433e-08 0)
(-4.20423e-06 1.46122e-08 0)
(-4.25258e-06 1.23219e-08 0)
(-4.29207e-06 9.873e-09 0)
(-4.32254e-06 7.28549e-09 0)
(-4.34392e-06 4.66388e-09 0)
(-4.35611e-06 2.0477e-09 0)
(-4.35912e-06 -5.98829e-10 0)
(-4.35296e-06 -3.28412e-09 0)
(-4.33762e-06 -5.92148e-09 0)
(-4.31316e-06 -8.40008e-09 0)
(-4.27971e-06 -1.07266e-08 0)
(-4.23735e-06 -1.30289e-08 0)
(-4.18611e-06 -1.54063e-08 0)
(-4.1261e-06 -1.78533e-08 0)
(-4.05748e-06 -2.03104e-08 0)
(-3.98047e-06 -2.27016e-08 0)
(-3.89534e-06 -2.49437e-08 0)
(-3.80234e-06 -2.70268e-08 0)
(-3.70163e-06 -2.90414e-08 0)
(-3.59343e-06 -3.10622e-08 0)
(-3.47797e-06 -3.3096e-08 0)
(-3.35551e-06 -3.50795e-08 0)
(-3.22646e-06 -3.6911e-08 0)
(-3.09122e-06 -3.85735e-08 0)
(-2.95012e-06 -4.01297e-08 0)
(-2.80344e-06 -4.15965e-08 0)
(-2.6515e-06 -4.2906e-08 0)
(-2.49476e-06 -4.39977e-08 0)
(-2.33367e-06 -4.4959e-08 0)
(-2.16871e-06 -4.59443e-08 0)
(-2.0004e-06 -4.69973e-08 0)
(-1.82917e-06 -4.80224e-08 0)
(-1.65549e-06 -4.88134e-08 0)
(-1.47986e-06 -4.92074e-08 0)
(-1.30274e-06 -4.92436e-08 0)
(-1.12462e-06 -4.90779e-08 0)
(-9.46049e-07 -4.88878e-08 0)
(-7.67525e-07 -4.88082e-08 0)
(-5.89626e-07 -4.87794e-08 0)
(-4.12899e-07 -4.85851e-08 0)
(-2.37874e-07 -4.80574e-08 0)
(-6.514e-08 -4.71709e-08 0)
(1.04753e-07 -4.60487e-08 0)
(2.71194e-07 -4.48339e-08 0)
(4.33537e-07 -4.35623e-08 0)
(5.91289e-07 -4.22198e-08 0)
(7.43936e-07 -4.07465e-08 0)
(8.90877e-07 -3.90308e-08 0)
(1.03156e-06 -3.70332e-08 0)
(1.16538e-06 -3.48248e-08 0)
(1.29178e-06 -3.25269e-08 0)
(1.41036e-06 -3.02138e-08 0)
(1.52062e-06 -2.78098e-08 0)
(1.62205e-06 -2.51916e-08 0)
(1.71422e-06 -2.23835e-08 0)
(1.79666e-06 -1.94752e-08 0)
(1.86891e-06 -1.64711e-08 0)
(1.93073e-06 -1.33677e-08 0)
(1.98185e-06 -1.01694e-08 0)
(2.02182e-06 -6.85613e-09 0)
(2.05034e-06 -3.48215e-09 0)
(2.06718e-06 -1.21383e-10 0)
(2.07216e-06 3.25401e-09 0)
(2.06523e-06 6.70744e-09 0)
(2.04635e-06 1.02671e-08 0)
(2.01537e-06 1.39518e-08 0)
(1.97246e-06 1.76542e-08 0)
(1.91791e-06 2.11745e-08 0)
(1.85194e-06 2.44256e-08 0)
(1.77489e-06 2.7486e-08 0)
(1.68722e-06 3.04821e-08 0)
(1.58944e-06 3.3459e-08 0)
(1.48231e-06 3.62848e-08 0)
(1.36685e-06 3.87241e-08 0)
(1.24413e-06 4.06797e-08 0)
(1.11533e-06 4.22342e-08 0)
(9.82024e-07 4.33928e-08 0)
(8.46051e-07 4.40003e-08 0)
(7.09426e-07 4.38911e-08 0)
(5.74636e-07 4.28796e-08 0)
(4.44638e-07 4.07611e-08 0)
(3.22662e-07 3.74032e-08 0)
(2.1248e-07 3.26438e-08 0)
(1.18629e-07 2.61379e-08 0)
(4.6128e-08 1.75738e-08 0)
(-3.23652e-10 7.18212e-09 0)
(-1.78567e-08 -3.82275e-09 0)
(-9.8897e-09 -9.18716e-09 0)
(-4.99381e-08 2.46869e-08 0)
(-3.0584e-08 -7.79801e-08 0)
(8.53228e-08 -1.01036e-07 0)
(2.57738e-07 -1.39161e-07 0)
(4.74792e-07 -1.73802e-07 0)
(7.33473e-07 -2.01683e-07 0)
(1.0243e-06 -2.22536e-07 0)
(1.33752e-06 -2.36773e-07 0)
(1.66418e-06 -2.44612e-07 0)
(1.99662e-06 -2.46773e-07 0)
(2.32835e-06 -2.44342e-07 0)
(2.65341e-06 -2.38005e-07 0)
(2.96637e-06 -2.28131e-07 0)
(3.26274e-06 -2.15007e-07 0)
(3.53874e-06 -1.994e-07 0)
(3.79127e-06 -1.81847e-07 0)
(4.01764e-06 -1.62535e-07 0)
(4.21538e-06 -1.41722e-07 0)
(4.38279e-06 -1.19708e-07 0)
(4.51846e-06 -9.68622e-08 0)
(4.6213e-06 -7.3493e-08 0)
(4.69065e-06 -4.97639e-08 0)
(4.72592e-06 -2.58532e-08 0)
(4.72694e-06 -1.84589e-09 0)
(4.69375e-06 2.21444e-08 0)
(4.62658e-06 4.58414e-08 0)
(4.52589e-06 6.90969e-08 0)
(4.39221e-06 9.18114e-08 0)
(4.2263e-06 1.13922e-07 0)
(4.02904e-06 1.35533e-07 0)
(3.80135e-06 1.56506e-07 0)
(3.54435e-06 1.76745e-07 0)
(3.2593e-06 1.96089e-07 0)
(2.94755e-06 2.14308e-07 0)
(2.61046e-06 2.31462e-07 0)
(2.24955e-06 2.47601e-07 0)
(1.86636e-06 2.62599e-07 0)
(1.46243e-06 2.76513e-07 0)
(1.03936e-06 2.89379e-07 0)
(5.98779e-07 3.01057e-07 0)
(1.42431e-07 3.11514e-07 0)
(-3.27902e-07 3.20734e-07 0)
(-8.1057e-07 3.28686e-07 0)
(-1.30391e-06 3.35511e-07 0)
(-1.8061e-06 3.41268e-07 0)
(-2.31546e-06 3.45857e-07 0)
(-2.83036e-06 3.49297e-07 0)
(-3.34904e-06 3.51621e-07 0)
(-3.86978e-06 3.52709e-07 0)
(-4.39093e-06 3.52491e-07 0)
(-4.91089e-06 3.51117e-07 0)
(-5.42812e-06 3.48761e-07 0)
(-5.94105e-06 3.45432e-07 0)
(-6.44814e-06 3.41082e-07 0)
(-6.94779e-06 3.35692e-07 0)
(-7.43854e-06 3.29275e-07 0)
(-7.91907e-06 3.21929e-07 0)
(-8.388e-06 3.13738e-07 0)
(-8.84397e-06 3.04693e-07 0)
(-9.28574e-06 2.9471e-07 0)
(-9.71203e-06 2.83786e-07 0)
(-1.01217e-05 2.72059e-07 0)
(-1.05138e-05 2.59652e-07 0)
(-1.08873e-05 2.46654e-07 0)
(-1.12411e-05 2.33125e-07 0)
(-1.15744e-05 2.19018e-07 0)
(-1.18861e-05 2.04256e-07 0)
(-1.21755e-05 1.88812e-07 0)
(-1.24419e-05 1.72766e-07 0)
(-1.26846e-05 1.56282e-07 0)
(-1.2903e-05 1.3947e-07 0)
(-1.30965e-05 1.22378e-07 0)
(-1.32646e-05 1.05067e-07 0)
(-1.3407e-05 8.75557e-08 0)
(-1.35232e-05 6.97997e-08 0)
(-1.36132e-05 5.18071e-08 0)
(-1.36765e-05 3.36747e-08 0)
(-1.37131e-05 1.54422e-08 0)
(-1.37228e-05 -2.89605e-09 0)
(-1.37055e-05 -2.12716e-08 0)
(-1.36613e-05 -3.95868e-08 0)
(-1.35904e-05 -5.77388e-08 0)
(-1.34931e-05 -7.56282e-08 0)
(-1.33696e-05 -9.32468e-08 0)
(-1.322e-05 -1.10636e-07 0)
(-1.30449e-05 -1.27785e-07 0)
(-1.28446e-05 -1.44664e-07 0)
(-1.26196e-05 -1.61236e-07 0)
(-1.23705e-05 -1.774e-07 0)
(-1.2098e-05 -1.93061e-07 0)
(-1.18028e-05 -2.08209e-07 0)
(-1.14856e-05 -2.22819e-07 0)
(-1.11472e-05 -2.3687e-07 0)
(-1.07883e-05 -2.50371e-07 0)
(-1.041e-05 -2.63269e-07 0)
(-1.00132e-05 -2.75485e-07 0)
(-9.59885e-06 -2.86987e-07 0)
(-9.16812e-06 -2.97736e-07 0)
(-8.7222e-06 -3.07663e-07 0)
(-8.2623e-06 -3.16643e-07 0)
(-7.78957e-06 -3.24653e-07 0)
(-7.30518e-06 -3.31814e-07 0)
(-6.81048e-06 -3.38199e-07 0)
(-6.30687e-06 -3.43799e-07 0)
(-5.79576e-06 -3.48493e-07 0)
(-5.27869e-06 -3.5207e-07 0)
(-4.75709e-06 -3.54444e-07 0)
(-4.23244e-06 -3.55671e-07 0)
(-3.70617e-06 -3.55842e-07 0)
(-3.17969e-06 -3.55095e-07 0)
(-2.65461e-06 -3.53459e-07 0)
(-2.1327e-06 -3.50785e-07 0)
(-1.61561e-06 -3.46928e-07 0)
(-1.10491e-06 -3.41815e-07 0)
(-6.02159e-07 -3.35487e-07 0)
(-1.08917e-07 -3.28071e-07 0)
(3.7307e-07 -3.19575e-07 0)
(8.42156e-07 -3.09971e-07 0)
(1.29679e-06 -2.99288e-07 0)
(1.73532e-06 -2.87482e-07 0)
(2.15615e-06 -2.74515e-07 0)
(2.55774e-06 -2.60441e-07 0)
(2.93859e-06 -2.45333e-07 0)
(3.29722e-06 -2.29279e-07 0)
(3.63219e-06 -2.12335e-07 0)
(3.94204e-06 -1.94456e-07 0)
(4.22561e-06 -1.7566e-07 0)
(4.4818e-06 -1.56068e-07 0)
(4.70933e-06 -1.35686e-07 0)
(4.90702e-06 -1.14504e-07 0)
(5.07399e-06 -9.26742e-08 0)
(5.2094e-06 -7.03167e-08 0)
(5.31254e-06 -4.74958e-08 0)
(5.38279e-06 -2.43319e-08 0)
(5.4196e-06 -9.15501e-10 0)
(5.42272e-06 2.26864e-08 0)
(5.39213e-06 4.6357e-08 0)
(5.32783e-06 7.00258e-08 0)
(5.23003e-06 9.35809e-08 0)
(5.09937e-06 1.16708e-07 0)
(4.93677e-06 1.39032e-07 0)
(4.7433e-06 1.60334e-07 0)
(4.52034e-06 1.80522e-07 0)
(4.26952e-06 1.99478e-07 0)
(3.99301e-06 2.1693e-07 0)
(3.69358e-06 2.32419e-07 0)
(3.37439e-06 2.45437e-07 0)
(3.03895e-06 2.55605e-07 0)
(2.69142e-06 2.62564e-07 0)
(2.33678e-06 2.65735e-07 0)
(1.98072e-06 2.64435e-07 0)
(1.6297e-06 2.57945e-07 0)
(1.29113e-06 2.45414e-07 0)
(9.73202e-07 2.2595e-07 0)
(6.84895e-07 1.98735e-07 0)
(4.35947e-07 1.63089e-07 0)
(2.3622e-07 1.18837e-07 0)
(9.3774e-08 6.75349e-08 0)
(1.42137e-08 1.50525e-08 0)
(-5.18946e-09 -1.76446e-08 0)
(-6.78052e-09 1.29042e-08 0)
(4.97853e-08 -1.37921e-07 0)
(2.04544e-07 -2.66492e-07 0)
(4.55713e-07 -3.80955e-07 0)
(7.82407e-07 -4.76786e-07 0)
(1.17026e-06 -5.51385e-07 0)
(1.60488e-06 -6.06046e-07 0)
(2.07232e-06 -6.42564e-07 0)
(2.55931e-06 -6.62565e-07 0)
(3.05415e-06 -6.67726e-07 0)
(3.54683e-06 -6.60031e-07 0)
(4.02849e-06 -6.41285e-07 0)
(4.49116e-06 -6.12814e-07 0)
(4.92775e-06 -5.75984e-07 0)
(5.33231e-06 -5.31999e-07 0)
(5.69986e-06 -4.82022e-07 0)
(6.026e-06 -4.27185e-07 0)
(6.30724e-06 -3.68304e-07 0)
(6.54064e-06 -3.06147e-07 0)
(6.72386e-06 -2.41522e-07 0)
(6.85526e-06 -1.75055e-07 0)
(6.93357e-06 -1.07487e-07 0)
(6.95793e-06 -3.93003e-08 0)
(6.92793e-06 2.91898e-08 0)
(6.84353e-06 9.7435e-08 0)
(6.70516e-06 1.65095e-07 0)
(6.51349e-06 2.3173e-07 0)
(6.26933e-06 2.97007e-07 0)
(5.9739e-06 3.60658e-07 0)
(5.62862e-06 4.22419e-07 0)
(5.23506e-06 4.82088e-07 0)
(4.795e-06 5.3947e-07 0)
(4.31037e-06 5.9429e-07 0)
(3.78333e-06 6.46329e-07 0)
(3.21603e-06 6.95499e-07 0)
(2.61073e-06 7.41681e-07 0)
(1.97001e-06 7.84727e-07 0)
(1.29642e-06 8.24597e-07 0)
(5.92442e-07 8.61189e-07 0)
(-1.39234e-07 8.94411e-07 0)
(-8.95916e-07 9.24265e-07 0)
(-1.67484e-06 9.50622e-07 0)
(-2.47327e-06 9.73458e-07 0)
(-3.28849e-06 9.92908e-07 0)
(-4.11766e-06 1.00897e-06 0)
(-4.95796e-06 1.02161e-06 0)
(-5.80674e-06 1.03093e-06 0)
(-6.66124e-06 1.03698e-06 0)
(-7.51877e-06 1.03972e-06 0)
(-8.37659e-06 1.0391e-06 0)
(-9.23204e-06 1.03518e-06 0)
(-1.00826e-05 1.02805e-06 0)
(-1.09257e-05 1.0178e-06 0)
(-1.17588e-05 1.00455e-06 0)
(-1.25797e-05 9.88373e-07 0)
(-1.33858e-05 9.69261e-07 0)
(-1.41748e-05 9.4736e-07 0)
(-1.49447e-05 9.22837e-07 0)
(-1.56932e-05 8.95787e-07 0)
(-1.64184e-05 8.66348e-07 0)
(-1.71183e-05 8.34583e-07 0)
(-1.77908e-05 8.005e-07 0)
(-1.84343e-05 7.6419e-07 0)
(-1.90471e-05 7.25818e-07 0)
(-1.96276e-05 6.85581e-07 0)
(-2.01743e-05 6.43615e-07 0)
(-2.06859e-05 5.99988e-07 0)
(-2.11608e-05 5.5478e-07 0)
(-2.15981e-05 5.08114e-07 0)
(-2.19965e-05 4.6013e-07 0)
(-2.23551e-05 4.1098e-07 0)
(-2.2673e-05 3.60829e-07 0)
(-2.29494e-05 3.09831e-07 0)
(-2.31836e-05 2.58089e-07 0)
(-2.3375e-05 2.05683e-07 0)
(-2.3523e-05 1.52728e-07 0)
(-2.36275e-05 9.94017e-08 0)
(-2.36883e-05 4.58862e-08 0)
(-2.37052e-05 -7.71639e-09 0)
(-2.36779e-05 -6.13054e-08 0)
(-2.36067e-05 -1.14759e-07 0)
(-2.34917e-05 -1.67946e-07 0)
(-2.33332e-05 -2.20688e-07 0)
(-2.31317e-05 -2.72828e-07 0)
(-2.28876e-05 -3.24271e-07 0)
(-2.26015e-05 -3.74878e-07 0)
(-2.22743e-05 -4.24484e-07 0)
(-2.19066e-05 -4.73012e-07 0)
(-2.14993e-05 -5.20424e-07 0)
(-2.10536e-05 -5.66587e-07 0)
(-2.05704e-05 -6.1134e-07 0)
(-2.00511e-05 -6.54537e-07 0)
(-1.94969e-05 -6.96031e-07 0)
(-1.89092e-05 -7.35733e-07 0)
(-1.82896e-05 -7.73552e-07 0)
(-1.76396e-05 -8.09371e-07 0)
(-1.69607e-05 -8.43171e-07 0)
(-1.62547e-05 -8.74897e-07 0)
(-1.55236e-05 -9.04376e-07 0)
(-1.47692e-05 -9.31365e-07 0)
(-1.39937e-05 -9.55651e-07 0)
(-1.31991e-05 -9.77211e-07 0)
(-1.23874e-05 -9.96099e-07 0)
(-1.15608e-05 -1.01231e-06 0)
(-1.07215e-05 -1.02583e-06 0)
(-9.87186e-06 -1.03657e-06 0)
(-9.01429e-06 -1.04436e-06 0)
(-8.15129e-06 -1.04907e-06 0)
(-7.28536e-06 -1.05058e-06 0)
(-6.41894e-06 -1.04891e-06 0)
(-5.55447e-06 -1.0442e-06 0)
(-4.69455e-06 -1.03642e-06 0)
(-3.84186e-06 -1.02543e-06 0)
(-2.99904e-06 -1.01115e-06 0)
(-2.16871e-06 -9.93549e-07 0)
(-1.35346e-06 -9.72665e-07 0)
(-5.5591e-07 -9.48557e-07 0)
(2.21298e-07 -9.21171e-07 0)
(9.75594e-07 -8.90549e-07 0)
(1.70442e-06 -8.56799e-07 0)
(2.4052e-06 -8.19896e-07 0)
(3.07536e-06 -7.79863e-07 0)
(3.71255e-06 -7.36869e-07 0)
(4.31446e-06 -6.91037e-07 0)
(4.87875e-06 -6.42447e-07 0)
(5.40314e-06 -5.91165e-07 0)
(5.88554e-06 -5.37255e-07 0)
(6.32411e-06 -4.80954e-07 0)
(6.7171e-06 -4.22568e-07 0)
(7.06272e-06 -3.62176e-07 0)
(7.35935e-06 -2.99864e-07 0)
(7.60564e-06 -2.35923e-07 0)
(7.80052e-06 -1.70651e-07 0)
(7.94304e-06 -1.04324e-07 0)
(8.03248e-06 -3.72443e-08 0)
(8.06844e-06 3.0275e-08 0)
(8.05086e-06 9.78534e-08 0)
(7.97994e-06 1.65017e-07 0)
(7.85617e-06 2.31347e-07 0)
(7.68037e-06 2.9644e-07 0)
(7.45389e-06 3.59671e-07 0)
(7.17869e-06 4.20265e-07 0)
(6.85712e-06 4.77556e-07 0)
(6.49188e-06 5.3093e-07 0)
(6.0864e-06 5.79622e-07 0)
(5.64491e-06 6.22695e-07 0)
(5.17234e-06 6.59044e-07 0)
(4.67437e-06 6.87435e-07 0)
(4.15751e-06 7.06621e-07 0)
(3.62923e-06 7.15263e-07 0)
(3.09804e-06 7.11791e-07 0)
(2.57359e-06 6.94455e-07 0)
(2.06658e-06 6.61426e-07 0)
(1.58865e-06 6.10888e-07 0)
(1.15229e-06 5.41236e-07 0)
(7.70467e-07 4.51617e-07 0)
(4.55679e-07 3.429e-07 0)
(2.17888e-07 2.19499e-07 0)
(6.57793e-08 9.36363e-08 0)
(5.976e-09 -1.37215e-09 0)
(1.24154e-08 -1.08477e-08 0)
(1.10272e-07 -2.63093e-07 0)
(3.26423e-07 -5.01577e-07 0)
(6.53755e-07 -7.12452e-07 0)
(1.07213e-06 -8.88314e-07 0)
(1.56431e-06 -1.0253e-06 0)
(2.11245e-06 -1.12501e-06 0)
(2.69997e-06 -1.19094e-06 0)
(3.31101e-06 -1.22655e-06 0)
(3.93068e-06 -1.23496e-06 0)
(4.54598e-06 -1.21919e-06 0)
(5.14563e-06 -1.18235e-06 0)
(5.71937e-06 -1.12718e-06 0)
(6.25815e-06 -1.05617e-06 0)
(6.7542e-06 -9.71491e-07 0)
(7.2008e-06 -8.7536e-07 0)
(7.59235e-06 -7.69622e-07 0)
(7.9241e-06 -6.56037e-07 0)
(8.19215e-06 -5.36194e-07 0)
(8.39341e-06 -4.1137e-07 0)
(8.52544e-06 -2.82939e-07 0)
(8.58656e-06 -1.52136e-07 0)
(8.57577e-06 -2.00141e-08 0)
(8.49237e-06 1.12497e-07 0)
(8.33632e-06 2.44628e-07 0)
(8.10809e-06 3.75576e-07 0)
(7.80844e-06 5.04635e-07 0)
(7.43853e-06 6.31172e-07 0)
(6.99992e-06 7.54648e-07 0)
(6.49452e-06 8.74465e-07 0)
(5.92453e-06 9.9016e-07 0)
(5.29229e-06 1.1013e-06 0)
(4.60039e-06 1.20751e-06 0)
(3.85169e-06 1.30841e-06 0)
(3.0491e-06 1.40368e-06 0)
(2.19568e-06 1.49317e-06 0)
(1.2948e-06 1.57666e-06 0)
(3.49876e-07 1.6539e-06 0)
(-6.35606e-07 1.72471e-06 0)
(-1.65802e-06 1.78901e-06 0)
(-2.7138e-06 1.84672e-06 0)
(-3.79928e-06 1.89772e-06 0)
(-4.91064e-06 1.94196e-06 0)
(-6.04418e-06 1.97953e-06 0)
(-7.19619e-06 2.0104e-06 0)
(-8.36279e-06 2.03453e-06 0)
(-9.54019e-06 2.05197e-06 0)
(-1.07248e-05 2.06282e-06 0)
(-1.19129e-05 2.06719e-06 0)
(-1.3101e-05 2.06518e-06 0)
(-1.42854e-05 2.05682e-06 0)
(-1.54625e-05 2.0422e-06 0)
(-1.66288e-05 2.02145e-06 0)
(-1.7781e-05 1.99477e-06 0)
(-1.8916e-05 1.96232e-06 0)
(-2.00303e-05 1.92421e-06 0)
(-2.11208e-05 1.88062e-06 0)
(-2.21845e-05 1.83173e-06 0)
(-2.32186e-05 1.77774e-06 0)
(-2.42203e-05 1.71894e-06 0)
(-2.5187e-05 1.65564e-06 0)
(-2.6116e-05 1.58795e-06 0)
(-2.70049e-05 1.51601e-06 0)
(-2.78512e-05 1.44001e-06 0)
(-2.86528e-05 1.3602e-06 0)
(-2.94077e-05 1.27684e-06 0)
(-3.0114e-05 1.19021e-06 0)
(-3.077e-05 1.10057e-06 0)
(-3.13739e-05 1.00815e-06 0)
(-3.19244e-05 9.13156e-07 0)
(-3.24199e-05 8.15874e-07 0)
(-3.28592e-05 7.16572e-07 0)
(-3.32413e-05 6.15512e-07 0)
(-3.35653e-05 5.12967e-07 0)
(-3.38303e-05 4.09193e-07 0)
(-3.40357e-05 3.04381e-07 0)
(-3.41809e-05 1.98729e-07 0)
(-3.42658e-05 9.25692e-08 0)
(-3.42901e-05 -1.37408e-08 0)
(-3.42537e-05 -1.19917e-07 0)
(-3.41569e-05 -2.25728e-07 0)
(-3.39996e-05 -3.30972e-07 0)
(-3.37825e-05 -4.35393e-07 0)
(-3.35059e-05 -5.3872e-07 0)
(-3.31705e-05 -6.40737e-07 0)
(-3.27773e-05 -7.41175e-07 0)
(-3.23272e-05 -8.39706e-07 0)
(-3.18213e-05 -9.36077e-07 0)
(-3.12609e-05 -1.03014e-06 0)
(-3.06473e-05 -1.12169e-06 0)
(-2.9982e-05 -1.21045e-06 0)
(-2.92666e-05 -1.29619e-06 0)
(-2.85031e-05 -1.37867e-06 0)
(-2.76933e-05 -1.45766e-06 0)
(-2.68392e-05 -1.53294e-06 0)
(-2.5943e-05 -1.60424e-06 0)
(-2.5007e-05 -1.67136e-06 0)
(-2.40336e-05 -1.73418e-06 0)
(-2.30252e-05 -1.79255e-06 0)
(-2.19844e-05 -1.84627e-06 0)
(-2.0914e-05 -1.89507e-06 0)
(-1.98168e-05 -1.93869e-06 0)
(-1.86957e-05 -1.97695e-06 0)
(-1.75539e-05 -2.0097e-06 0)
(-1.63943e-05 -2.03687e-06 0)
(-1.522e-05 -2.05843e-06 0)
(-1.40342e-05 -2.07431e-06 0)
(-1.28402e-05 -2.08435e-06 0)
(-1.16414e-05 -2.08837e-06 0)
(-1.04415e-05 -2.08613e-06 0)
(-9.24385e-06 -2.07763e-06 0)
(-8.05186e-06 -2.06291e-06 0)
(-6.86905e-06 -2.04191e-06 0)
(-5.69898e-06 -2.01458e-06 0)
(-4.54523e-06 -1.98089e-06 0)
(-3.4114e-06 -1.94077e-06 0)
(-2.30107e-06 -1.89425e-06 0)
(-1.21777e-06 -1.84136e-06 0)
(-1.65102e-07 -1.78212e-06 0)
(8.53509e-07 -1.7167e-06 0)
(1.83474e-06 -1.64526e-06 0)
(2.77511e-06 -1.5678e-06 0)
(3.67125e-06 -1.48445e-06 0)
(4.52009e-06 -1.39548e-06 0)
(5.31853e-06 -1.30111e-06 0)
(6.06359e-06 -1.20155e-06 0)
(6.75245e-06 -1.09701e-06 0)
(7.3824e-06 -9.87717e-07 0)
(7.951e-06 -8.74135e-07 0)
(8.45615e-06 -7.56757e-07 0)
(8.89574e-06 -6.35893e-07 0)
(9.26787e-06 -5.1192e-07 0)
(9.57112e-06 -3.85381e-07 0)
(9.80428e-06 -2.56825e-07 0)
(9.96634e-06 -1.26804e-07 0)
(1.00568e-05 4.01379e-09 0)
(1.00756e-05 1.34854e-07 0)
(1.00231e-05 2.64825e-07 0)
(9.90012e-06 3.92947e-07 0)
(9.70789e-06 5.18312e-07 0)
(9.44806e-06 6.40005e-07 0)
(9.1231e-06 7.56806e-07 0)
(8.73637e-06 8.67262e-07 0)
(8.29167e-06 9.69952e-07 0)
(7.79351e-06 1.0634e-06 0)
(7.24739e-06 1.14592e-06 0)
(6.6597e-06 1.21556e-06 0)
(6.03778e-06 1.27019e-06 0)
(5.39018e-06 1.30742e-06 0)
(4.72657e-06 1.32474e-06 0)
(4.05758e-06 1.31953e-06 0)
(3.39511e-06 1.28896e-06 0)
(2.75233e-06 1.2301e-06 0)
(2.14331e-06 1.14019e-06 0)
(1.58281e-06 1.01713e-06 0)
(1.08604e-06 8.60152e-07 0)
(6.6763e-07 6.71161e-07 0)
(3.39905e-07 4.56995e-07 0)
(1.16637e-07 2.34363e-07 0)
(1.65579e-08 4.3976e-08 0)
(2.4604e-08 -8.60214e-08 0)
(1.5884e-07 -4.52544e-07 0)
(4.34211e-07 -8.06583e-07 0)
(8.30951e-07 -1.12246e-06 0)
(1.327e-06 -1.38681e-06 0)
(1.90382e-06 -1.59396e-06 0)
(2.54157e-06 -1.74479e-06 0)
(3.22143e-06 -1.84362e-06 0)
(3.92561e-06 -1.89564e-06 0)
(4.63751e-06 -1.90567e-06 0)
(5.34191e-06 -1.87816e-06 0)
(6.02529e-06 -1.81753e-06 0)
(6.67577e-06 -1.72804e-06 0)
(7.28274e-06 -1.61339e-06 0)
(7.83678e-06 -1.47719e-06 0)
(8.3299e-06 -1.32253e-06 0)
(8.75524e-06 -1.15246e-06 0)
(9.10705e-06 -9.69734e-07 0)
(9.38073e-06 -7.76808e-07 0)
(9.57242e-06 -5.75954e-07 0)
(9.67909e-06 -3.69164e-07 0)
(9.69865e-06 -1.58299e-07 0)
(9.6297e-06 5.48868e-08 0)
(9.47159e-06 2.68784e-07 0)
(9.22415e-06 4.82147e-07 0)
(8.88789e-06 6.93549e-07 0)
(8.46383e-06 9.01889e-07 0)
(7.95335e-06 1.10618e-06 0)
(7.35829e-06 1.3055e-06 0)
(6.68093e-06 1.49902e-06 0)
(5.92397e-06 1.68592e-06 0)
(5.09035e-06 1.86544e-06 0)
(4.18325e-06 2.03704e-06 0)
(3.20618e-06 2.20004e-06 0)
(2.16281e-06 2.35395e-06 0)
(1.05699e-06 2.49844e-06 0)
(-1.07231e-07 2.63316e-06 0)
(-1.32565e-06 2.75776e-06 0)
(-2.59386e-06 2.872e-06 0)
(-3.90739e-06 2.97565e-06 0)
(-5.26179e-06 3.06852e-06 0)
(-6.65251e-06 3.15057e-06 0)
(-8.07478e-06 3.22168e-06 0)
(-9.52401e-06 3.28184e-06 0)
(-1.09956e-05 3.3311e-06 0)
(-1.24847e-05 3.36949e-06 0)
(-1.39866e-05 3.39696e-06 0)
(-1.54968e-05 3.41355e-06 0)
(-1.70105e-05 3.41946e-06 0)
(-1.85233e-05 3.41488e-06 0)
(-2.00308e-05 3.39996e-06 0)
(-2.15286e-05 3.3749e-06 0)
(-2.30121e-05 3.3399e-06 0)
(-2.44772e-05 3.29512e-06 0)
(-2.59199e-05 3.24088e-06 0)
(-2.73361e-05 3.17751e-06 0)
(-2.87218e-05 3.10523e-06 0)
(-3.00734e-05 3.02431e-06 0)
(-3.1387e-05 2.93503e-06 0)
(-3.26592e-05 2.83774e-06 0)
(-3.38866e-05 2.73284e-06 0)
(-3.50661e-05 2.62073e-06 0)
(-3.61946e-05 2.50183e-06 0)
(-3.72692e-05 2.37643e-06 0)
(-3.82871e-05 2.24482e-06 0)
(-3.92456e-05 2.10736e-06 0)
(-4.01423e-05 1.96448e-06 0)
(-4.09751e-05 1.8166e-06 0)
(-4.1742e-05 1.66413e-06 0)
(-4.24409e-05 1.50753e-06 0)
(-4.30703e-05 1.34721e-06 0)
(-4.36285e-05 1.18355e-06 0)
(-4.41141e-05 1.01696e-06 0)
(-4.4526e-05 8.47888e-07 0)
(-4.48632e-05 6.76792e-07 0)
(-4.51249e-05 5.04075e-07 0)
(-4.53105e-05 3.30084e-07 0)
(-4.54195e-05 1.5525e-07 0)
(-4.54517e-05 -1.99451e-08 0)
(-4.5407e-05 -1.95044e-07 0)
(-4.52856e-05 -3.69576e-07 0)
(-4.50878e-05 -5.43111e-07 0)
(-4.48139e-05 -7.15255e-07 0)
(-4.44648e-05 -8.856e-07 0)
(-4.40413e-05 -1.05378e-06 0)
(-4.35443e-05 -1.2194e-06 0)
(-4.29752e-05 -1.38201e-06 0)
(-4.23352e-05 -1.54115e-06 0)
(-4.16261e-05 -1.69643e-06 0)
(-4.08495e-05 -1.8475e-06 0)
(-4.00072e-05 -1.99398e-06 0)
(-3.91015e-05 -2.13551e-06 0)
(-3.81345e-05 -2.27172e-06 0)
(-3.71086e-05 -2.40222e-06 0)
(-3.60264e-05 -2.52668e-06 0)
(-3.48905e-05 -2.64473e-06 0)
(-3.37039e-05 -2.75599e-06 0)
(-3.24697e-05 -2.86007e-06 0)
(-3.11909e-05 -2.95666e-06 0)
(-2.98708e-05 -3.04548e-06 0)
(-2.85128e-05 -3.12633e-06 0)
(-2.71203e-05 -3.19892e-06 0)
(-2.56971e-05 -3.26292e-06 0)
(-2.42469e-05 -3.31805e-06 0)
(-2.27736e-05 -3.36399e-06 0)
(-2.12813e-05 -3.40054e-06 0)
(-1.97739e-05 -3.42757e-06 0)
(-1.82555e-05 -3.44496e-06 0)
(-1.67304e-05 -3.45261e-06 0)
(-1.52027e-05 -3.45033e-06 0)
(-1.36772e-05 -3.43783e-06 0)
(-1.2158e-05 -3.41504e-06 0)
(-1.06495e-05 -3.3819e-06 0)
(-9.15625e-06 -3.33836e-06 0)
(-7.68262e-06 -3.28444e-06 0)
(-6.23307e-06 -3.22011e-06 0)
(-4.81212e-06 -3.14538e-06 0)
(-3.42416e-06 -3.06034e-06 0)
(-2.07365e-06 -2.96502e-06 0)
(-7.65e-07 -2.85954e-06 0)
(4.97686e-07 -2.74417e-06 0)
(1.71023e-06 -2.61912e-06 0)
(2.86839e-06 -2.48455e-06 0)
(3.96825e-06 -2.34077e-06 0)
(5.00603e-06 -2.18817e-06 0)
(5.97803e-06 -2.02712e-06 0)
(6.88084e-06 -1.85809e-06 0)
(7.71108e-06 -1.68153e-06 0)
(8.4656e-06 -1.49793e-06 0)
(9.14178e-06 -1.30801e-06 0)
(9.7372e-06 -1.11249e-06 0)
(1.02496e-05 -9.12051e-07 0)
(1.0677e-05 -7.07497e-07 0)
(1.10181e-05 -4.99805e-07 0)
(1.12718e-05 -2.8996e-07 0)
(1.14373e-05 -7.89688e-08 0)
(1.15147e-05 1.3198e-07 0)
(1.15041e-05 3.41511e-07 0)
(1.14068e-05 5.48089e-07 0)
(1.12245e-05 7.50059e-07 0)
(1.09594e-05 9.45776e-07 0)
(1.06142e-05 1.13351e-06 0)
(1.0193e-05 1.31116e-06 0)
(9.7005e-06 1.47636e-06 0)
(9.14228e-06 1.62659e-06 0)
(8.52494e-06 1.75922e-06 0)
(7.85609e-06 1.87131e-06 0)
(7.14449e-06 1.95966e-06 0)
(6.40014e-06 2.0208e-06 0)
(5.63432e-06 2.05098e-06 0)
(4.85952e-06 2.04623e-06 0)
(4.08935e-06 2.00254e-06 0)
(3.33867e-06 1.91596e-06 0)
(2.62336e-06 1.78285e-06 0)
(1.96003e-06 1.6006e-06 0)
(1.36559e-06 1.36856e-06 0)
(8.56624e-07 1.08943e-06 0)
(4.48321e-07 7.71284e-07 0)
(1.6078e-07 4.32412e-07 0)
(2.51331e-08 1.15175e-07 0)
(3.25532e-08 -1.82343e-07 0)
(1.96133e-07 -6.91153e-07 0)
(5.2303e-07 -1.17338e-06 0)
(9.79417e-07 -1.60115e-06 0)
(1.53935e-06 -1.95853e-06 0)
(2.18326e-06 -2.23883e-06 0)
(2.8898e-06 -2.44279e-06 0)
(3.63817e-06 -2.57534e-06 0)
(4.40926e-06 -2.64267e-06 0)
(5.18511e-06 -2.65126e-06 0)
(5.94907e-06 -2.60727e-06 0)
(6.68608e-06 -2.51656e-06 0)
(7.38277e-06 -2.38476e-06 0)
(8.02725e-06 -2.21724e-06 0)
(8.60905e-06 -2.01883e-06 0)
(9.11904e-06 -1.79406e-06 0)
(9.54931e-06 -1.54708e-06 0)
(9.89337e-06 -1.28168e-06 0)
(1.01458e-05 -1.00148e-06 0)
(1.03022e-05 -7.09758e-07 0)
(1.03592e-05 -4.09369e-07 0)
(1.03142e-05 -1.03034e-07 0)
(1.01657e-05 2.06805e-07 0)
(9.91272e-06 5.17931e-07 0)
(9.55517e-06 8.28278e-07 0)
(9.09353e-06 1.13602e-06 0)
(8.52908e-06 1.43936e-06 0)
(7.86342e-06 1.73678e-06 0)
(7.09874e-06 2.02693e-06 0)
(6.23767e-06 2.30857e-06 0)
(5.28328e-06 2.58057e-06 0)
(4.23909e-06 2.84189e-06 0)
(3.10881e-06 3.09162e-06 0)
(1.89647e-06 3.32891e-06 0)
(6.06551e-07 3.553e-06 0)
(-7.56418e-07 3.76329e-06 0)
(-2.18772e-06 3.95924e-06 0)
(-3.68233e-06 4.14041e-06 0)
(-5.23511e-06 4.30644e-06 0)
(-6.84081e-06 4.45696e-06 0)
(-8.49406e-06 4.5917e-06 0)
(-1.01895e-05 4.71058e-06 0)
(-1.19215e-05 4.8134e-06 0)
(-1.36845e-05 4.90008e-06 0)
(-1.54731e-05 4.97072e-06 0)
(-1.72816e-05 5.02537e-06 0)
(-1.91046e-05 5.06408e-06 0)
(-2.09364e-05 5.08693e-06 0)
(-2.27716e-05 5.09404e-06 0)
(-2.46048e-05 5.08563e-06 0)
(-2.64306e-05 5.06197e-06 0)
(-2.82439e-05 5.02339e-06 0)
(-3.00394e-05 4.97017e-06 0)
(-3.18121e-05 4.90257e-06 0)
(-3.35571e-05 4.821e-06 0)
(-3.52695e-05 4.7259e-06 0)
(-3.69448e-05 4.61767e-06 0)
(-3.85785e-05 4.4968e-06 0)
(-4.01661e-05 4.36375e-06 0)
(-4.17035e-05 4.21893e-06 0)
(-4.31866e-05 4.06279e-06 0)
(-4.46115e-05 3.89588e-06 0)
(-4.59746e-05 3.71881e-06 0)
(-4.72726e-05 3.53217e-06 0)
(-4.8502e-05 3.33647e-06 0)
(-4.96598e-05 3.13222e-06 0)
(-5.07431e-05 2.92001e-06 0)
(-5.17491e-05 2.70041e-06 0)
(-5.26754e-05 2.474e-06 0)
(-5.35198e-05 2.24143e-06 0)
(-5.42803e-05 2.00335e-06 0)
(-5.49549e-05 1.76036e-06 0)
(-5.5542e-05 1.51305e-06 0)
(-5.60402e-05 1.26205e-06 0)
(-5.64483e-05 1.008e-06 0)
(-5.67654e-05 7.51529e-07 0)
(-5.69908e-05 4.93282e-07 0)
(-5.71239e-05 2.3388e-07 0)
(-5.71643e-05 -2.60559e-08 0)
(-5.71121e-05 -2.8593e-07 0)
(-5.69673e-05 -5.45067e-07 0)
(-5.67303e-05 -8.02779e-07 0)
(-5.64018e-05 -1.05846e-06 0)
(-5.59824e-05 -1.3115e-06 0)
(-5.54733e-05 -1.56128e-06 0)
(-5.48757e-05 -1.80721e-06 0)
(-5.41909e-05 -2.04873e-06 0)
(-5.34207e-05 -2.28522e-06 0)
(-5.25669e-05 -2.51605e-06 0)
(-5.16316e-05 -2.74064e-06 0)
(-5.06171e-05 -2.95843e-06 0)
(-4.95259e-05 -3.1689e-06 0)
(-4.83606e-05 -3.3715e-06 0)
(-4.71241e-05 -3.56563e-06 0)
(-4.58195e-05 -3.75078e-06 0)
(-4.44499e-05 -3.92652e-06 0)
(-4.30189e-05 -4.09233e-06 0)
(-4.15299e-05 -4.24767e-06 0)
(-3.99868e-05 -4.39198e-06 0)
(-3.83936e-05 -4.52477e-06 0)
(-3.67543e-05 -4.64564e-06 0)
(-3.50729e-05 -4.75423e-06 0)
(-3.33539e-05 -4.85018e-06 0)
(-3.16017e-05 -4.93315e-06 0)
(-2.9821e-05 -5.00278e-06 0)
(-2.80166e-05 -5.05866e-06 0)
(-2.61933e-05 -5.10044e-06 0)
(-2.4356e-05 -5.12788e-06 0)
(-2.25098e-05 -5.1408e-06 0)
(-2.06597e-05 -5.13909e-06 0)
(-1.88109e-05 -5.12249e-06 0)
(-1.69687e-05 -5.09077e-06 0)
(-1.51384e-05 -5.04382e-06 0)
(-1.33252e-05 -4.98158e-06 0)
(-1.15344e-05 -4.90399e-06 0)
(-9.77129e-06 -4.8111e-06 0)
(-8.04126e-06 -4.70294e-06 0)
(-6.34952e-06 -4.57965e-06 0)
(-4.70128e-06 -4.44137e-06 0)
(-3.10181e-06 -4.28821e-06 0)
(-1.55609e-06 -4.12044e-06 0)
(-6.9004e-08 -3.93846e-06 0)
(1.35455e-06 -3.74264e-06 0)
(2.70985e-06 -3.53332e-06 0)
(3.99238e-06 -3.31102e-06 0)
(5.19781e-06 -3.07637e-06 0)
(6.32208e-06 -2.83004e-06 0)
(7.36131e-06 -2.5728e-06 0)
(8.31184e-06 -2.30541e-06 0)
(9.17042e-06 -2.02871e-06 0)
(9.93421e-06 -1.74378e-06 0)
(1.06006e-05 -1.45177e-06 0)
(1.11675e-05 -1.15383e-06 0)
(1.1633e-05 -8.51308e-07 0)
(1.19961e-05 -5.45781e-07 0)
(1.2256e-05 -2.38866e-07 0)
(1.24125e-05 6.77861e-08 0)
(1.24661e-05 3.72297e-07 0)
(1.2418e-05 6.72537e-07 0)
(1.22701e-05 9.66145e-07 0)
(1.20253e-05 1.25057e-06 0)
(1.16868e-05 1.52314e-06 0)
(1.12592e-05 1.781e-06 0)
(1.07477e-05 2.02094e-06 0)
(1.01589e-05 2.23938e-06 0)
(9.50031e-06 2.43246e-06 0)
(8.78058e-06 2.59616e-06 0)
(8.00955e-06 2.72608e-06 0)
(7.19846e-06 2.81751e-06 0)
(6.35977e-06 2.86548e-06 0)
(5.50721e-06 2.86475e-06 0)
(4.65583e-06 2.81005e-06 0)
(3.82183e-06 2.69633e-06 0)
(3.02243e-06 2.51907e-06 0)
(2.27578e-06 2.27499e-06 0)
(1.60065e-06 1.9631e-06 0)
(1.01565e-06 1.58626e-06 0)
(5.38925e-07 1.15261e-06 0)
(1.9689e-07 6.79726e-07 0)
(3.1823e-08 2.07599e-07 0)
(3.75717e-08 -2.93906e-07 0)
(2.2317e-07 -9.68399e-07 0)
(5.91023e-07 -1.59067e-06 0)
(1.09564e-06 -2.13631e-06 0)
(1.70574e-06 -2.58902e-06 0)
(2.4002e-06 -2.94267e-06 0)
(3.15636e-06 -3.19889e-06 0)
(3.95213e-06 -3.36305e-06 0)
(4.76705e-06 -3.44255e-06 0)
(5.58209e-06 -3.44532e-06 0)
(6.37963e-06 -3.37909e-06 0)
(7.14351e-06 -3.25136e-06 0)
(7.85924e-06 -3.06925e-06 0)
(8.51397e-06 -2.8396e-06 0)
(9.09627e-06 -2.56875e-06 0)
(9.59619e-06 -2.2627e-06 0)
(1.00052e-05 -1.92685e-06 0)
(1.0316e-05 -1.56622e-06 0)
(1.05224e-05 -1.18554e-06 0)
(1.06199e-05 -7.89125e-07 0)
(1.06045e-05 -3.81009e-07 0)
(1.04735e-05 3.52583e-08 0)
(1.0225e-05 4.56312e-07 0)
(9.85817e-06 8.79161e-07 0)
(9.37276e-06 1.30099e-06 0)
(8.76932e-06 1.71939e-06 0)
(8.04918e-06 2.13195e-06 0)
(7.21431e-06 2.53654e-06 0)
(6.26715e-06 2.93127e-06 0)
(5.21071e-06 3.31439e-06 0)
(4.04851e-06 3.68438e-06 0)
(2.78447e-06 4.0398e-06 0)
(1.42285e-06 4.37936e-06 0)
(-3.17175e-08 4.70201e-06 0)
(-1.57423e-06 5.00674e-06 0)
(-3.19944e-06 5.29257e-06 0)
(-4.9019e-06 5.55882e-06 0)
(-6.67589e-06 5.80488e-06 0)
(-8.5156e-06 6.03018e-06 0)
(-1.0415e-05 6.23429e-06 0)
(-1.23679e-05 6.41686e-06 0)
(-1.43681e-05 6.57765e-06 0)
(-1.64093e-05 6.71651e-06 0)
(-1.8485e-05 6.83326e-06 0)
(-2.0589e-05 6.9279e-06 0)
(-2.27147e-05 7.00049e-06 0)
(-2.4856e-05 7.05119e-06 0)
(-2.70064e-05 7.08017e-06 0)
(-2.91595e-05 7.08759e-06 0)
(-3.13093e-05 7.07369e-06 0)
(-3.34494e-05 7.03883e-06 0)
(-3.55739e-05 6.98341e-06 0)
(-3.76769e-05 6.90786e-06 0)
(-3.97526e-05 6.8126e-06 0)
(-4.17952e-05 6.69816e-06 0)
(-4.37991e-05 6.56503e-06 0)
(-4.57591e-05 6.41376e-06 0)
(-4.76699e-05 6.24502e-06 0)