/*--------------------------------*- C++ -*----------------------------------*\
  =========                 |
  \\      /  F ield         | OpenFOAM: The Open Source CFD Toolbox
   \\    /   O peration     | Website:  https://openfoam.org
    \\  /    A nd           | Version:  7
     \\/     M anipulation  |
\*---------------------------------------------------------------------------*/
FoamFile
{
    version     2.0;
    format      ascii;
    class       volScalarField;
    location    "0.4";
    object      p;
}
// * * * * * * * * * * * * * * * * * * * * * * * * * * * * * * * * * * * * * //

dimensions      [0 2 -2 0 0 0 0];

internalField   nonuniform List<scalar> 
12800
(
-2.79644e-08
3.12704e-05
3.97313e-06
-9.6313e-05
-0.000262882
-0.000485344
-0.000752946
-0.0010552
-0.00138257
-0.00172671
-0.00208063
-0.00243797
-0.00279379
-0.00314386
-0.00348473
-0.00381358
-0.00412825
-0.00442703
-0.00470869
-0.00497233
-0.00521737
-0.00544349
-0.0056506
-0.00583877
-0.0060082
-0.00615919
-0.00629211
-0.00640739
-0.00650549
-0.0065869
-0.00665208
-0.00670148
-0.00673552
-0.00675461
-0.00675909
-0.0067493
-0.00672549
-0.00668788
-0.00663663
-0.00657184
-0.00649357
-0.00640183
-0.00629656
-0.00617764
-0.00604492
-0.00589817
-0.00573714
-0.0055615
-0.0053709
-0.00516492
-0.0049431
-0.00470491
-0.0044498
-0.00417715
-0.0038863
-0.00357655
-0.00324714
-0.00289727
-0.00252609
-0.00213268
-0.00171609
-0.00127532
-0.000809289
-0.000316901
0.00020301
0.000751661
0.00133032
0.0019403
0.002583
0.00325983
0.00397229
0.00472191
0.00551027
0.006339
0.00720977
0.00812431
0.00908437
0.0100917
0.0111482
0.0122557
0.013416
0.014631
0.0159027
0.0172328
0.0186232
0.0200757
0.0215922
0.0231743
0.0248238
0.0265421
0.0283307
0.0301911
0.0321243
0.0341315
0.0362135
0.0383708
0.0406041
0.0429133
0.0452983
0.0477587
0.0502936
0.052902
0.0555821
0.058332
0.0611493
0.0640308
0.0669733
0.0699727
0.0730245
0.0761235
0.0792642
0.0824401
0.0856446
0.0888701
0.0921086
0.0953517
0.0985902
0.101815
0.105015
0.10818
0.1113
0.114364
0.11736
0.120277
0.123104
0.125829
0.128441
0.13093
0.133285
0.135496
0.137556
0.139454
0.141184
0.14274
0.144117
0.14531
0.146318
0.14714
0.147775
0.148227
0.148499
0.148597
0.148527
0.148299
0.147923
0.147412
0.146779
0.146042
0.145217
0.144325
0.143387
0.142428
0.141475
0.140557
0.139708
0.138966
0.138368
0.137956
0.13777
0.137797
-2.28394e-05
8.19948e-06
-2.18797e-05
-0.000114668
-0.000261602
-0.00045587
-0.000689786
-0.000955246
-0.00124455
-0.00155065
-0.00186732
-0.00218907
-0.00251126
-0.00282991
-0.00314173
-0.00344398
-0.00373445
-0.0040114
-0.00427351
-0.00451975
-0.0047494
-0.004962
-0.0051573
-0.00533522
-0.00549578
-0.00563916
-0.00576555
-0.00587527
-0.00596863
-0.00604599
-0.00610769
-0.00615409
-0.00618551
-0.00620225
-0.0062046
-0.00619279
-0.00616702
-0.00612746
-0.00607419
-0.0060073
-0.00592678
-0.00583261
-0.00572471
-0.00560293
-0.00546711
-0.005317
-0.00515231
-0.00497273
-0.00477789
-0.00456737
-0.00434069
-0.00409735
-0.00383678
-0.00355837
-0.00326147
-0.00294538
-0.00260937
-0.00225265
-0.00187437
-0.00147366
-0.00104956
-0.000601093
-0.000127236
0.000373098
0.000901038
0.00145776
0.0020445
0.00266252
0.00331317
0.00399782
0.00471791
0.0054749
0.00627031
0.00710572
0.00798272
0.00890294
0.00986807
0.0108798
0.0119399
0.01305
0.014212
0.0154277
0.0166987
0.0180269
0.0194139
0.0208615
0.0223714
0.0239451
0.0255841
0.02729
0.0290639
0.0309072
0.0328209
0.0348059
0.0368629
0.0389925
0.0411949
0.0434702
0.0458181
0.048238
0.050729
0.05329
0.0559192
0.0586146
0.0613738
0.0641937
0.067071
0.0700017
0.0729813
0.076005
0.0790671
0.0821616
0.0852818
0.0884206
0.0915704
0.0947229
0.0978693
0.101001
0.104107
0.107179
0.110207
0.113178
0.116084
0.118914
0.121656
0.1243
0.126835
0.129253
0.131543
0.133695
0.135703
0.137557
0.139252
0.140782
0.142142
0.143329
0.144341
0.145177
0.145838
0.146327
0.146647
0.146804
0.146805
0.146659
0.146375
0.145966
0.145445
0.144828
0.144132
0.143374
0.142576
0.141759
0.140949
0.140171
0.139454
0.138828
0.138322
0.137966
0.137796
0.137824
1.66784e-05
4.78726e-05
1.59517e-05
-7.33093e-05
-0.000209526
-0.000387019
-0.000599699
-0.000840891
-0.00110411
-0.00138335
-0.00167312
-0.00196853
-0.00226532
-0.00255986
-0.00284902
-0.00313019
-0.00340123
-0.0036604
-0.00390635
-0.00413801
-0.0043546
-0.00455557
-0.00474056
-0.00490939
-0.00506198
-0.00519838
-0.00531872
-0.00542318
-0.005512
-0.00558541
-0.00564367
-0.00568707
-0.00571584
-0.00573021
-0.00573041
-0.0057166
-0.00568894
-0.00564752
-0.00559241
-0.00552364
-0.00544118
-0.00534496
-0.00523488
-0.00511078
-0.00497246
-0.00481967
-0.00465212
-0.00446946
-0.00427133
-0.0040573
-0.0038269
-0.00357961
-0.00331487
-0.00303208
-0.00273059
-0.00240973
-0.00206875
-0.00170688
-0.0013233
-0.000917139
-0.000487474
-3.33455e-05
0.000446254
0.000952377
0.00148612
0.00204864
0.00264111
0.00326479
0.00392096
0.00461096
0.00533618
0.00609802
0.00689797
0.00773753
0.00861823
0.00954165
0.0105094
0.0115231
0.0125844
0.013695
0.0148566
0.0160708
0.0173394
0.0186639
0.0200461
0.0214876
0.0229898
0.0245544
0.0261826
0.027876
0.0296356
0.0314626
0.033358
0.0353226
0.037357
0.0394616
0.0416367
0.0438822
0.0461978
0.0485829
0.0510364
0.0535572
0.0561436
0.0587935
0.0615045
0.0642735
0.0670973
0.069972
0.0728933
0.0758561
0.0788553
0.0818848
0.0849383
0.0880087
0.0910887
0.0941704
0.0972453
0.100305
0.103339
0.106339
0.109296
0.112198
0.115035
0.117799
0.120477
0.123061
0.12554
0.127904
0.130146
0.132255
0.134225
0.136048
0.137718
0.13923
0.140579
0.141762
0.142778
0.143627
0.144309
0.144827
0.145184
0.145386
0.14544
0.145355
0.14514
0.144807
0.144369
0.14384
0.143237
0.142576
0.141877
0.141161
0.140448
0.139764
0.139131
0.138576
0.138122
0.137794
0.137626
0.137639
0.000128653
0.000149836
0.000111234
2.02961e-05
-0.000112469
-0.000281779
-0.000482306
-0.000708297
-0.00095415
-0.00121462
-0.00148491
-0.00176064
-0.00203799
-0.00231362
-0.00258464
-0.00284863
-0.00310354
-0.00334773
-0.00357984
-0.00379881
-0.00400385
-0.00419437
-0.00436998
-0.0045304
-0.00467551
-0.00480527
-0.00491974
-0.00501904
-0.00510332
-0.00517274
-0.0052275
-0.0052678
-0.00529383
-0.00530575
-0.00530373
-0.00528789
-0.00525832
-0.00521509
-0.00515822
-0.00508771
-0.0050035
-0.00490549
-0.00479355
-0.00466751
-0.00452714
-0.00437217
-0.00420232
-0.00401722
-0.0038165
-0.00359973
-0.00336643
-0.00311608
-0.00284814
-0.00256199
-0.00225701
-0.00193252
-0.00158779
-0.00122207
-0.000834535
-0.000424337
9.42102e-06
0.00046768
0.000951425
0.00146168
0.00199953
0.00256606
0.00316246
0.00378992
0.0044497
0.00514309
0.00587143
0.00663611
0.00743853
0.00828015
0.00916246
0.010087
0.0110552
0.0120688
0.0131293
0.0142384
0.0153975
0.0166084
0.0178727
0.0191919
0.0205676
0.0220014
0.0234947
0.0250489
0.0266654
0.0283455
0.0300903
0.0319009
0.0337781
0.0357227
0.0377353
0.0398162
0.0419656
0.0441835
0.0464693
0.0488226
0.0512424
0.0537273
0.0562757
0.0588856
0.0615545
0.0642796
0.0670575
0.0698845
0.0727563
0.0756682
0.0786149
0.0815906
0.0845891
0.0876037
0.0906271
0.0936517
0.0966693
0.0996713
0.102649
0.105593
0.108494
0.111342
0.114127
0.116839
0.11947
0.122008
0.124444
0.12677
0.128976
0.131054
0.132997
0.134797
0.13645
0.13795
0.139292
0.140475
0.141496
0.142356
0.143055
0.143596
0.143982
0.14422
0.144315
0.144277
0.144114
0.143838
0.143461
0.142997
0.142461
0.14187
0.141241
0.140593
0.139946
0.13932
0.138738
0.13822
0.137787
0.137461
0.13727
0.137233
0.000305835
0.000305632
0.000253503
0.000155754
2.11794e-05
-0.000145348
-0.00033908
-0.000555047
-0.000788406
-0.00103461
-0.00128945
-0.00154911
-0.00181016
-0.00206958
-0.00232476
-0.00257347
-0.00281384
-0.0030443
-0.00326357
-0.00347062
-0.00366469
-0.00384516
-0.00401162
-0.00416377
-0.00430142
-0.00442451
-0.00453302
-0.00462702
-0.00470659
-0.00477185
-0.00482292
-0.00485994
-0.00488305
-0.00489238
-0.00488802
-0.00487005
-0.00483851
-0.00479344
-0.00473482
-0.00466261
-0.00457672
-0.00447704
-0.0043634
-0.00423561
-0.00409342
-0.00393656
-0.00376472
-0.00357754
-0.00337462
-0.00315554
-0.00291982
-0.00266694
-0.00239635
-0.00210745
-0.00179961
-0.00147217
-0.00112442
-0.000755601
-0.000364921
4.84558e-05
0.000485407
0.000946852
0.00143375
0.00194711
0.00248796
0.00305738
0.00365652
0.00428653
0.00494864
0.0056441
0.00637421
0.00714029
0.00794372
0.00878591
0.00966828
0.0105923
0.0115595
0.0125713
0.0136293
0.014735
0.0158901
0.0170959
0.0183542
0.0196663
0.0210339
0.0224583
0.023941
0.0254833
0.0270866
0.0287519
0.0304805
0.0322734
0.0341312
0.0360549
0.0380448
0.0401013
0.0422246
0.0444146
0.0466708
0.0489926
0.0513791
0.053829
0.0563407
0.0589121
0.061541
0.0642244
0.0669591
0.0697416
0.0725675
0.0754324
0.078331
0.0812579
0.0842068
0.0871713
0.0901444
0.0931185
0.0960857
0.0990378
0.101966
0.104862
0.107715
0.110517
0.113258
0.115929
0.118519
0.12102
0.123421
0.125715
0.127893
0.129947
0.131869
0.133653
0.135293
0.136785
0.138124
0.139308
0.140335
0.141206
0.141921
0.142483
0.142895
0.143163
0.143294
0.143295
0.143175
0.142946
0.14262
0.142208
0.141727
0.14119
0.140615
0.140018
0.139417
0.138831
0.138278
0.137778
0.137347
0.137004
0.136766
0.136645
0.000540063
0.000509442
0.000437551
0.00032808
0.000186822
1.82207e-05
-0.000173497
-0.000384057
-0.000609312
-0.000845338
-0.00108849
-0.00133543
-0.00158317
-0.00182901
-0.00207063
-0.00230602
-0.00253347
-0.00275156
-0.00295909
-0.00315512
-0.0033389
-0.00350985
-0.00366755
-0.00381168
-0.00394205
-0.00405855
-0.00416113
-0.0042498
-0.00432461
-0.00438563
-0.00443292
-0.00446658
-0.0044867
-0.00449335
-0.00448659
-0.00446645
-0.00443294
-0.00438605
-0.00432573
-0.0042519
-0.00416446
-0.00406326
-0.00394811
-0.0038188
-0.00367506
-0.00351661
-0.00334312
-0.00315424
-0.00294955
-0.00272862
-0.00249097
-0.00223609
-0.00196343
-0.00167239
-0.00136236
-0.00103268
-0.000682648
-0.000311526
8.1465e-05
0.000497142
0.000936363
0.00140003
0.00188907
0.00240445
0.0029472
0.00351836
0.00411903
0.00475034
0.00541348
0.00610966
0.00684013
0.00760618
0.00840914
0.00925037
0.0101312
0.0110532
0.0120176
0.013026
0.0140798
0.0151806
0.0163298
0.0175288
0.0187793
0.0200827
0.0214403
0.0228537
0.0243242
0.025853
0.0274415
0.0290907
0.0308017
0.0325756
0.034413
0.0363147
0.0382811
0.0403127
0.0424094
0.0445712
0.0467978
0.0490884
0.0514422
0.053858
0.0563341
0.0588687
0.0614593
0.0641034
0.0667976
0.0695386
0.0723222
0.075144
0.0779989
0.0808817
0.0837862
0.0867063
0.089635
0.092565
0.0954887
0.0983979
0.101284
0.104139
0.106953
0.109717
0.112422
0.115059
0.117617
0.120088
0.122463
0.124734
0.126891
0.128926
0.130834
0.132607
0.13424
0.135728
0.137067
0.138254
0.139289
0.140171
0.140902
0.141482
0.141918
0.142212
0.142372
0.142406
0.142322
0.142131
0.141845
0.141474
0.141034
0.140538
0.140001
0.13944
0.138869
0.138306
0.137766
0.137265
0.13682
0.136444
0.136143
0.135918
0.000822153
0.000754611
0.000657872
0.000532297
0.00037998
0.000204913
1.09095e-05
-0.000198431
-0.000419594
-0.000649225
-0.000884207
-0.00112166
-0.00135896
-0.00159379
-0.00182411
-0.00204815
-0.00226438
-0.00247153
-0.00266853
-0.00285452
-0.00302884
-0.00319092
-0.00334037
-0.00347687
-0.00360024
-0.00371036
-0.00380715
-0.00389059
-0.00396069
-0.00401747
-0.00406099
-0.00409128
-0.0041084
-0.00411238
-0.00410323
-0.00408095
-0.00404551
-0.00399687
-0.00393495
-0.00385965
-0.00377081
-0.00366828
-0.00355185
-0.00342127
-0.00327628
-0.00311657
-0.00294182
-0.00275163
-0.00254561
-0.00232332
-0.00208427
-0.00182795
-0.00155382
-0.0012613
-0.000949762
-0.00061857
-0.000267032
0.000105576
0.000500014
0.000917082
0.00135762
0.0018225
0.00231263
0.00282895
0.00337245
0.00394415
0.00454511
0.00517643
0.00583926
0.00653478
0.00726418
0.00802873
0.0088297
0.0096684
0.0105462
0.0114644
0.0124244
0.0134277
0.0144756
0.0155696
0.0167112
0.0179017
0.0191427
0.0204355
0.0217816
0.0231822
0.0246388
0.0261525
0.0277246
0.0293562
0.0310484
0.032802
0.0346178
0.0364966
0.0384388
0.0404446
0.0425144
0.0446479
0.0468448
0.0491046
0.0514263
0.0538088
0.0562505
0.0587497
0.061304
0.063911
0.0665674
0.0692699
0.0720146
0.0747972
0.0776128
0.0804561
0.0833214
0.0862025
0.0890927
0.091985
0.0948717
0.0977451
0.100597
0.103418
0.106201
0.108935
0.111612
0.114222
0.116757
0.119207
0.121563
0.123817
0.12596
0.127985
0.129884
0.131652
0.133283
0.134771
0.136113
0.137308
0.138352
0.139247
0.139992
0.140591
0.141046
0.141363
0.141549
0.141609
0.141554
0.141393
0.141137
0.140797
0.140386
0.139919
0.139407
0.138867
0.138311
0.137756
0.137214
0.136699
0.136225
0.135804
0.135429
0.135087
0.00114277
0.00103383
0.000908266
0.000762907
0.00059584
0.000410586
0.000210597
-1.13317e-06
-0.000221675
-0.000448221
-0.000678122
-0.000908918
-0.00113839
-0.00136455
-0.00158567
-0.00180019
-0.00200681
-0.00220441
-0.00239206
-0.00256903
-0.00273471
-0.00288861
-0.00303036
-0.0031597
-0.00327644
-0.00338045
-0.00347166
-0.00355003
-0.00361553
-0.00366818
-0.00370799
-0.00373498
-0.00374916
-0.00375053
-0.00373905
-0.00371471
-0.00367744
-0.00362717
-0.00356378
-0.00348715
-0.00339712
-0.00329347
-0.003176
-0.00304443
-0.0028985
-0.00273788
-0.00256222
-0.00237115
-0.00216425
-0.00194108
-0.00170115
-0.00144396
-0.00116896
-0.000875582
-0.000563223
-0.000231241
0.000121039
0.000494325
0.00088936
0.00130692
0.00174783
0.00221294
0.00270312
0.00321929
0.00376241
0.00433347
0.0049335
0.00556356
0.00622475
0.00691822
0.00764514
0.00840671
0.00920417
0.0100388
0.0109119
0.0118247
0.0127786
0.0137751
0.0148154
0.0159009
0.0170331
0.0182133
0.019443
0.0207235
0.0220562
0.0234424
0.0248833
0.0263803
0.0279345
0.029547
0.0312188
0.0329508
0.0347438
0.0365986
0.0385155
0.0404949
0.0425371
0.0446419
0.046809
0.0490379
0.0513279
0.0536777
0.056086
0.058551
0.0610706
0.0636423
0.0662631
0.0689298
0.0716386
0.0743853
0.0771653
0.0799734
0.082804
0.0856511
0.0885083
0.0913684
0.0942243
0.0970682
0.0998919
0.102687
0.105445
0.108156
0.110813
0.113405
0.115923
0.118359
0.120704
0.122948
0.125085
0.127106
0.129003
0.130771
0.132405
0.133898
0.135248
0.136452
0.137508
0.138416
0.139177
0.139793
0.140267
0.140605
0.140812
0.140895
0.140862
0.140724
0.14049
0.140172
0.139781
0.139331
0.138834
0.138302
0.13775
0.13719
0.136634
0.136093
0.135579
0.135104
0.134647
0.134186
0.00149325
0.00133988
0.0011825
0.00101439
0.000829521
0.000630982
0.000421893
0.000204704
-1.82114e-05
-0.00024453
-0.000472038
-0.000698696
-0.000922666
-0.00114229
-0.0013561
-0.00156281
-0.00176132
-0.00195069
-0.00213016
-0.00229909
-0.00245698
-0.0026034
-0.00273807
-0.00286073
-0.00297125
-0.0030695
-0.00315541
-0.00322893
-0.00329004
-0.00333872
-0.00337496
-0.00339877
-0.00341012
-0.00340898
-0.0033953
-0.00336903
-0.00333006
-0.0032783
-0.00321362
-0.00313586
-0.00304483
-0.00294031
-0.00282205
-0.00268979
-0.00254324
-0.00238205
-0.00220588
-0.00201434
-0.001807
-0.00158343
-0.00134314
-0.00108562
-0.000810347
-0.000516749
-0.000204232
0.000127833
0.000480105
0.000853276
0.00124807
0.00166525
0.00210561
0.00256997
0.00305918
0.00357414
0.00411576
0.00468502
0.00528289
0.00591042
0.00656866
0.00725872
0.00798174
0.00873888
0.00953133
0.0103603
0.0112271
0.0121329
0.0130791
0.014067
0.0150979
0.0161732
0.0172942
0.0184624
0.0196789
0.0209453
0.0222628
0.0236327
0.0250564
0.0265349
0.0280695
0.0296612
0.0313111
0.0330201
0.034789
0.0366185
0.0385091
0.0404611
0.0424749
0.0445504
0.0466873
0.0488853
0.0511435
0.053461
0.0558364
0.0582682
0.0607542
0.0632921
0.0658792
0.0685123
0.0711878
0.0739016
0.0766492
0.0794257
0.0822257
0.0850432
0.087872
0.0907052
0.0935357
0.0963558
0.0991576
0.101933
0.104673
0.107368
0.110011
0.112592
0.115101
0.11753
0.11987
0.122112
0.124249
0.126271
0.128173
0.129948
0.131589
0.133093
0.134454
0.135671
0.136742
0.137666
0.138443
0.139077
0.139569
0.139925
0.140151
0.140253
0.140238
0.140118
0.1399
0.139596
0.139217
0.138775
0.138282
0.13775
0.137191
0.136616
0.136036
0.13546
0.1349
0.134364
0.133822
0.133241
0.00186565
0.00166587
0.00147449
0.00128132
0.00107617
0.000861792
0.000641013
0.000415755
0.000187909
-4.06367e-05
-0.000268101
-0.000492849
-0.000713392
-0.000928385
-0.00113663
-0.0013371
-0.00152891
-0.00171131
-0.0018837
-0.00204558
-0.00219651
-0.0023362
-0.00246441
-0.00258095
-0.00268571
-0.00277859
-0.00285954
-0.00292851
-0.00298546
-0.00303038
-0.00306327
-0.00308407
-0.00309276
-0.00308928
-0.00307356
-0.00304551
-0.00300502
-0.00295197
-0.0028862
-0.00280752
-0.00271572
-0.00261058
-0.00249182
-0.00235918
-0.00221232
-0.00205093
-0.00187463
-0.00168303
-0.0014757
-0.0012522
-0.00101206
-0.000754764
-0.000479794
-0.000186592
0.000125429
0.000456882
0.000808412
0.00118069
0.00157443
0.00199036
0.00242926
0.00289192
0.00337916
0.00389185
0.00443088
0.00499717
0.00559169
0.00621544
0.00686943
0.00755473
0.00827245
0.0090237
0.00980963
0.0106314
0.0114903
0.0123875
0.0133243
0.0143019
0.0153217
0.016385
0.017493
0.0186472
0.0198489
0.0210993
0.0223998
0.0237516
0.0251561
0.0266143
0.0281276
0.0296969
0.0313233
0.0330077
0.034751
0.0365539
0.0384169
0.0403406
0.042325
0.0443704
0.0464766
0.0486431
0.0508695
0.0531547
0.0554976
0.0578967
0.06035
0.0628554
0.0654103
0.0680116
0.0706558
0.0733392
0.0760573
0.0788054
0.0815783
0.0843701
0.0871748
0.0899856
0.0927956
0.0955971
0.0983825
0.101143
0.103871
0.106557
0.109193
0.111769
0.114276
0.116704
0.119047
0.121293
0.123436
0.125467
0.12738
0.129166
0.130821
0.132339
0.133717
0.134951
0.136039
0.136981
0.137778
0.13843
0.138941
0.139315
0.139557
0.139675
0.139676
0.139568
0.139361
0.139066
0.138692
0.138251
0.137755
0.137214
0.13664
0.136042
0.13543
0.134812
0.134199
0.133599
0.132971
0.132272
0.00225272
0.00200531
0.00177843
0.00155842
0.00133102
0.00109872
0.000864089
0.000628588
0.000393662
0.000160781
-6.86886e-05
-0.000293476
-0.00051242
-0.000724483
-0.000928745
-0.00112442
-0.00131084
-0.00148747
-0.00165385
-0.00180961
-0.00195444
-0.00208813
-0.00221053
-0.00232153
-0.00242103
-0.00250899
-0.00258536
-0.0026501
-0.0027032
-0.00274465
-0.00277441
-0.00279244
-0.00279869
-0.00279307
-0.00277552
-0.0027459
-0.0027041
-0.00264997
-0.00258333
-0.00250397
-0.00241167
-0.00230617
-0.00218721
-0.00205448
-0.00190766
-0.00174642
-0.00157037
-0.00137912
-0.00117224
-0.000949286
-0.000709787
-0.000453249
-0.000179151
0.000113055
0.000423941
0.000754106
0.00110418
0.00147481
0.00186669
0.00228054
0.00271708
0.0031771
0.00366139
0.00417079
0.00470614
0.00526834
0.00585833
0.00647705
0.0071255
0.00780472
0.00851574
0.00925966
0.0100376
0.0108507
0.0117001
0.012587
0.0135127
0.0144783
0.0154852
0.0165347
0.017628
0.0187664
0.0199512
0.0211838
0.0224654
0.0237973
0.0251808
0.026617
0.0281071
0.0296522
0.0312534
0.0329117
0.0346278
0.0364026
0.0382367
0.0401307
0.0420847
0.0440991
0.0461737
0.0483083
0.0505024
0.0527552
0.0550656
0.0574323
0.0598535
0.0623272
0.0648509
0.0674217
0.0700365
0.0726915
0.0753825
0.078105
0.0808537
0.0836233
0.0864076
0.0892001
0.0919939
0.0947817
0.0975556
0.100308
0.103029
0.105712
0.108346
0.110923
0.113434
0.115869
0.11822
0.120477
0.122633
0.124679
0.126607
0.128412
0.130086
0.131624
0.133023
0.134278
0.135388
0.136351
0.137168
0.137841
0.138371
0.138763
0.139022
0.139155
0.139168
0.13907
0.138871
0.138579
0.138205
0.13776
0.137254
0.136697
0.136101
0.135474
0.134825
0.13416
0.133491
0.132824
0.13211
0.131299
0.00264789
0.00235217
0.00208873
0.00184056
0.0015894
0.00133748
0.00108724
0.000839715
0.000595903
0.000356881
0.000123646
-0.00010287
-0.000321823
-0.000532468
-0.000734158
-0.00092636
-0.00110863
-0.0012806
-0.00144197
-0.00159252
-0.00173207
-0.00186051
-0.00197778
-0.00208381
-0.00217859
-0.00226209
-0.0023343
-0.0023952
-0.00244481
-0.00248309
-0.00251002
-0.00252555
-0.0025296
-0.0025221
-0.00250294
-0.002472
-0.00242913
-0.00237416
-0.00230689
-0.00222711
-0.00213457
-0.002029
-0.00191013
-0.00177763
-0.00163119
-0.00147045
-0.00129503
-0.00110454
-0.000898531
-0.000676577
-0.000438211
-0.000182944
8.97355e-05
0.000380363
0.000689497
0.00101772
0.00136564
0.00173389
0.00212314
0.00253408
0.00296742
0.00342389
0.00390427
0.00440936
0.00493998
0.00549699
0.00608128
0.00669378
0.00733543
0.00800723
0.00871019
0.00944536
0.0102138
0.0110166
0.011855
0.01273
0.0136429
0.0145949
0.0155872
0.016621
0.0176977
0.0188185
0.0199847
0.0211976
0.0224584
0.0237685
0.025129
0.0265413
0.0280064
0.0295255
0.0310998
0.0327301
0.0344174
0.0361626
0.0379663
0.0398292
0.0417516
0.0437338
0.0457759
0.0478778
0.050039
0.0522589
0.0545366
0.0568709
0.0592602
0.0617027
0.0641961
0.0667376
0.0693242
0.0719525
0.0746183
0.0773174
0.0800447
0.0827948
0.085562
0.0883398
0.0911214
0.0938996
0.0966667
0.0994146
0.102135
0.104819
0.107457
0.110042
0.112562
0.11501
0.117375
0.11965
0.121825
0.123892
0.125843
0.127671
0.12937
0.130934
0.132358
0.133639
0.134775
0.135763
0.136604
0.137299
0.137851
0.138262
0.138538
0.138685
0.138709
0.13862
0.138424
0.138132
0.137754
0.1373
0.136779
0.136203
0.135579
0.134918
0.134227
0.133512
0.132784
0.13205
0.131252
0.130333
0.00304517
0.00270077
0.00240009
0.00212281
0.0018467
0.00157386
0.00130661
0.00104559
0.000791377
0.000544694
0.000306199
7.65022e-05
-0.000143859
-0.000354426
-0.000554825
-0.00074476
-0.000923988
-0.00109232
-0.00124964
-0.00139585
-0.00153093
-0.00165485
-0.00176765
-0.00186933
-0.00195993
-0.00203946
-0.00210796
-0.00216545
-0.00221194
-0.00224741
-0.00227183
-0.00228515
-0.00228731
-0.00227819
-0.0022577
-0.00222569
-0.00218201
-0.00212646
-0.00205883
-0.00197889
-0.00188639
-0.00178104
-0.00166255
-0.00153061
-0.00138487
-0.00122498
-0.00105056
-0.000861203
-0.000656485
-0.00043597
-0.000199201
5.43007e-05
0.000325037
0.00061353
0.000920321
0.00124597
0.00159108
0.00195625
0.00234213
0.00274937
0.00317866
0.00363071
0.00410626
0.00460607
0.00513094
0.00568168
0.00625915
0.00686424
0.00749786
0.00816096
0.00885452
0.00957954
0.0103371
0.0111281
0.0119539
0.0128154
0.0137139
0.0146505
0.0156264
0.0166429
0.0177011
0.0188025
0.0199481
0.0211394
0.0223776
0.0236639
0.0249996
0.026386
0.0278242
0.0293155
0.0308609
0.0324615
0.0341183
0.0358322
0.0376039
0.0394342
0.0413236
0.0432724
0.0452809
0.047349
0.0494765
0.0516629
0.0539075
0.0562091
0.0585666
0.060978
0.0634414
0.0659543
0.0685138
0.0711166
0.0737588
0.0764363
0.0791442
0.0818775
0.0846303
0.0873965
0.0901693
0.0929417
0.0957059
0.0984541
0.101178
0.103868
0.106516
0.109113
0.111649
0.114115
0.116501
0.118799
0.120999
0.123093
0.125073
0.126931
0.12866
0.130256
0.131711
0.133023
0.134189
0.135206
0.136075
0.136796
0.137371
0.137803
0.138097
0.138259
0.138294
0.138211
0.138018
0.137724
0.137339
0.136872
0.136334
0.135733
0.135078
0.13438
0.133643
0.132876
0.132088
0.131287
0.130406
0.129384
0.00343899
0.00304581
0.00270745
0.00240037
0.00209845
0.00180369
0.00151833
0.0012426
0.000976751
0.000721144
0.000476134
0.000242017
1.90326e-05
-0.000192641
-0.000392889
-0.000581632
-0.00075883
-0.000924485
-0.00107864
-0.00122135
-0.00135272
-0.00147285
-0.00158183
-0.00167977
-0.00176674
-0.00184282
-0.00190809
-0.0019626
-0.00200637
-0.0020394
-0.00206166
-0.00207311
-0.00207367
-0.00206325
-0.00204171
-0.00200892
-0.0019647
-0.00190884
-0.00184112
-0.0017613
-0.00166911
-0.00156426
-0.00144645
-0.00131536
-0.00117065
-0.00101195
-0.000838875
-0.000651024
-0.000447984
-0.000229323
5.4095e-06
0.000256681
0.000524981
0.000810813
0.0011147
0.00143719
0.00177886
0.00214028
0.00252207
0.00292487
0.00334933
0.00379612
0.00426595
0.00475954
0.00527767
0.0058211
0.00639066
0.0069872
0.00761159
0.00826474
0.00894759
0.0096611
0.0104063
0.0111841
0.0119958
0.0128422
0.0137246
0.0146442
0.015602
0.0165993
0.0176374
0.0187174
0.0198407
0.0210084
0.022222
0.0234826
0.0247916
0.0261502
0.0275596
0.0290211
0.0305358
0.0321048
0.0337293
0.0354101
0.0371482
0.0389444
0.0407992
0.0427133
0.0446868
0.04672
0.0488127
0.0509648
0.0531755
0.055444
0.0577692
0.0601496
0.0625832
0.0650678
0.0676007
0.0701789
0.0727986
0.075456
0.0781464
0.0808647
0.0836055
0.0863627
0.0891298
0.0918996
0.0946646
0.097417
0.100148
0.10285
0.105512
0.108127
0.110683
0.113173
0.115586
0.117912
0.120144
0.122271
0.124285
0.126179
0.127946
0.129578
0.13107
0.132419
0.13362
0.134671
0.135572
0.136322
0.136923
0.137379
0.137693
0.13787
0.137917
0.137841
0.13765
0.137353
0.136959
0.136477
0.135918
0.13529
0.134602
0.133863
0.13308
0.132258
0.131409
0.130541
0.129581
0.128461
0.00382414
0.00338224
0.00300599
0.00266865
0.00234032
0.00202289
0.00171853
0.00142715
0.00114865
0.00088308
0.000630508
0.000390916
0.000164255
-4.95674e-05
-0.000250665
-0.000439173
-0.000615257
-0.000779106
-0.000930926
-0.00107093
-0.00119934
-0.00131635
-0.00142217
-0.00151695
-0.00160084
-0.001674
-0.00173653
-0.00178851
-0.00182998
-0.00186096
-0.00188143
-0.00189136
-0.00189065
-0.00187923
-0.00185695
-0.00182366
-0.00177917
-0.00172328
-0.00165574
-0.00157631
-0.0014847
-0.00138063
-0.00126379
-0.00113385
-0.00099046
-0.000833256
-0.000661854
-0.000475856
-0.000274858
-5.84335e-05
0.000173856
0.000422467
0.00068787
0.000970552
0.00127102
0.0015898
0.00192743
0.00228448
0.00266153
0.00305918
0.00347804
0.00391878
0.00438205
0.00486854
0.00537899
0.00591412
0.00647473
0.00706162
0.00767563
0.00831762
0.00898849
0.00968918
0.0104206
0.0111838
0.0119798
0.0128097
0.0136745
0.0145753
0.0155133
0.0164898
0.0175058
0.0185627
0.0196618
0.0208041
0.0219912
0.0232242
0.0245045
0.0258333
0.027212
0.0286418
0.0301239
0.0316595
0.0332497
0.0348957
0.0365984
0.0383587
0.0401774
0.0420551
0.0439923
0.0459892
0.0480461
0.0501627
0.0523386
0.0545733
0.0568657
0.0592146
0.0616182
0.0640746
0.0665813
0.0691353
0.0717334
0.0743716
0.0770457
0.0797508
0.0824815
0.085232
0.0879957
0.0907658
0.0935348
0.0962949
0.0990375
0.101754
0.104435
0.107072
0.109655
0.112173
0.114618
0.11698
0.119248
0.121414
0.12347
0.125406
0.127215
0.12889
0.130425
0.131815
0.133057
0.134147
0.135084
0.135868
0.1365
0.136983
0.137319
0.137514
0.137574
0.137505
0.137316
0.137016
0.136612
0.136114
0.135532
0.134875
0.134152
0.133371
0.13254
0.131664
0.130754
0.12982
0.128782
0.127569
0.00419571
0.00370531
0.00329111
0.00292325
0.00256807
0.00222741
0.00190338
0.0015956
0.00130365
0.00102729
0.000766285
0.000520318
0.000289071
7.22101e-05
-0.000130605
-0.000319729
-0.000495529
-0.000658374
-0.000808633
-0.000946665
-0.00107281
-0.00118737
-0.00129063
-0.00138284
-0.00146422
-0.00153497
-0.00159524
-0.00164514
-0.00168473
-0.00171407
-0.00173312
-0.00174187
-0.00174024
-0.00172813
-0.00170541
-0.00167191
-0.00162744
-0.00157178
-0.00150469
-0.0014259
-0.00133514
-0.00123211
-0.0011165
-0.00098797
-0.000846177
-0.000690753
-0.00052132
-0.000337489
-0.000138859
7.49821e-05
0.000304462
0.000550021
0.000812111
0.0010912
0.00138778
0.00170234
0.0020354
0.00238751
0.00275919
0.00315103
0.00356361
0.00399755
0.00445347
0.00493203
0.0054339
0.0059598
0.00651047
0.00708667
0.0076892
0.00831888
0.00897656
0.00966315
0.0103796
0.0111267
0.0119057
0.0127174
0.013563
0.0144435
0.0153601
0.016314
0.0173063
0.0183383
0.0194113
0.0205264
0.0216851
0.0228886
0.0241383
0.0254354
0.0267814
0.0281775
0.029625
0.0311253
0.0326795
0.0342887
0.0359542
0.0376769
0.0394577
0.0412975
0.0431967
0.045156
0.0471756
0.0492555
0.0513957
0.0535955
0.0558544
0.0581711
0.0605443
0.0629722
0.0654525
0.0679827
0.0705595
0.0731793
0.075838
0.078531
0.0812532
0.0839986
0.0867612
0.089534
0.0923097
0.0950804
0.0978379
0.100573
0.103278
0.105941
0.108554
0.111106
0.113589
0.11599
0.118302
0.120513
0.122615
0.124599
0.126457
0.128181
0.129765
0.131204
0.132492
0.133626
0.134605
0.135428
0.136095
0.136607
0.136969
0.137185
0.13726
0.137201
0.137015
0.136711
0.136297
0.135784
0.135179
0.134492
0.133733
0.132909
0.132028
0.131097
0.130127
0.129128
0.128015
0.126712
0.00454908
0.00401048
0.0035584
0.00315987
0.00277756
0.00241326
0.00206908
0.00174434
0.00143832
0.00115051
0.000880334
0.000627236
0.000390643
0.000169985
-3.53048e-05
-0.000225798
-0.000402055
-0.000564625
-0.000714032
-0.000850774
-0.000975303
-0.00108803
-0.00118932
-0.00127953
-0.00135893
-0.00142778
-0.00148627
-0.00153454
-0.00157269
-0.00160076
-0.00161878
-0.0016267
-0.00162448
-0.001612
-0.00158913
-0.0015557
-0.00151151
-0.00145633
-0.00138993
-0.00131203
-0.00122235
-0.0011206
-0.00100645
-0.000879572
-0.000739616
-0.000586222
-0.000419017
-0.000237623
-4.16473e-05
0.00016931
0.000395661
0.000637825
0.000896236
0.00117134
0.00146361
0.0017735
0.00210152
0.00244815
0.00281392
0.00319936
0.00360502
0.00403147
0.00447932
0.00494916
0.00544164
0.00595743
0.00649723
0.00706176
0.00765177
0.00826804
0.00891139
0.00958267
0.0102828
0.0110126
0.0117731
0.0125653
0.0133902
0.0142489
0.0151425
0.0160721
0.017039
0.0180444
0.0190895
0.0201756
0.021304
0.0224762
0.0236933
0.0249568
0.0262682
0.0276287
0.0290398
0.0305027
0.0320189
0.0335896
0.035216
0.0368993
0.0386405
0.0404405
0.0423002
0.0442203
0.0462011
0.048243
0.050346
0.0525099
0.0547342
0.0570179
0.05936
0.0617589
0.0642126
0.0667186
0.0692742
0.0718759
0.0745199
0.0772016
0.0799162
0.0826581
0.0854211
0.0881986
0.0909833
0.0937674
0.0965427
0.0993003
0.102031
0.104725
0.107373
0.109964
0.112489
0.114936
0.117295
0.119558
0.121712
0.123751
0.125664
0.127444
0.129083
0.130575
0.131916
0.133101
0.134127
0.134993
0.1357
0.136247
0.136639
0.136879
0.136972
0.136925
0.136744
0.136438
0.136015
0.135485
0.134857
0.134141
0.133345
0.132478
0.131548
0.130561
0.129531
0.128469
0.127283
0.125892
0.00487984
0.00429339
0.00380354
0.0033743
0.0029647
0.00257652
0.00221186
0.00186976
0.0015492
0.00124937
0.000969442
0.000708603
0.000466037
0.000240943
3.25203e-05
-0.000160004
-0.000337382
-0.000500333
-0.000649531
-0.000785601
-0.00090911
-0.00102058
-0.00112047
-0.00120922
-0.00128716
-0.0013546
-0.00141176
-0.00145884
-0.00149594
-0.00152314
-0.00154047
-0.00154792
-0.00154541
-0.00153286
-0.00151011
-0.00147701
-0.00143335
-0.00137889
-0.0013134
-0.0012366
-0.00114821
-0.00104793
-0.000935443
-0.000810413
-0.000672494
-0.000521333
-0.00035657
-0.000177834
1.52537e-05
0.000223079
0.000446033
0.000684516
0.000938941
0.00120973
0.00149733
0.00180217
0.00212471
0.00246542
0.00282478
0.00320329
0.00360146
0.00401982
0.00445892
0.00491934
0.00540168
0.00590656
0.00643463
0.00698657