/*--------------------------------*- C++ -*----------------------------------*\
  =========                 |
  \\      /  F ield         | OpenFOAM: The Open Source CFD Toolbox
   \\    /   O peration     | Website:  https://openfoam.org
    \\  /    A nd           | Version:  7
     \\/     M anipulation  |
\*---------------------------------------------------------------------------*/
FoamFile
{
    version     2.0;
    format      ascii;
    class       surfaceScalarField;
    location    "0.4";
    object      phi;
}
// * * * * * * * * * * * * * * * * * * * * * * * * * * * * * * * * * * * * * //

dimensions      [0 3 -1 0 0 0 0];

internalField   nonuniform List<scalar> 
25360
(
5.18023e-11
-5.17643e-11
1.92381e-10
-1.40576e-10
3.59544e-10
-1.67161e-10
5.05246e-10
-1.45685e-10
6.01334e-10
-9.61004e-11
6.31832e-10
-3.04926e-11
5.88477e-10
4.33534e-11
4.6808e-10
1.20406e-10
2.70652e-10
1.97422e-10
-1.66212e-12
2.72318e-10
-3.45317e-10
3.43656e-10
-7.56115e-10
4.10797e-10
-1.22927e-09
4.73157e-10
-1.75977e-09
5.30495e-10
-2.34254e-09
5.82766e-10
-2.97257e-09
6.3004e-10
-3.64504e-09
6.72466e-10
-4.35531e-09
7.10267e-10
-5.09903e-09
7.43723e-10
-5.87215e-09
7.73122e-10
-6.67093e-09
7.98781e-10
-7.49195e-09
8.21025e-10
-8.33213e-09
8.4018e-10
-9.18869e-09
8.56566e-10
-1.00592e-08
8.70492e-10
-1.09414e-08
8.82259e-10
-1.18336e-08
8.92143e-10
-1.2734e-08
9.00415e-10
-1.36413e-08
9.07328e-10
-1.45544e-08
9.13109e-10
-1.54724e-08
9.17965e-10
-1.63945e-08
9.22096e-10
-1.73202e-08
9.25678e-10
-1.82491e-08
9.2887e-10
-1.91809e-08
9.31814e-10
-2.01155e-08
9.34641e-10
-2.1053e-08
9.37461e-10
-2.19933e-08
9.40367e-10
-2.29368e-08
9.4345e-10
-2.38836e-08
9.4679e-10
-2.4834e-08
9.50454e-10
-2.57885e-08
9.54495e-10
-2.67475e-08
9.58961e-10
-2.77114e-08
9.63893e-10
-2.86807e-08
9.69323e-10
-2.9656e-08
9.75279e-10
-3.06378e-08
9.81781e-10
-3.16266e-08
9.88847e-10
-3.26231e-08
9.96489e-10
-3.36278e-08
1.00471e-09
-3.46413e-08
1.01352e-09
-3.56642e-08
1.0229e-09
-3.66971e-08
1.03287e-09
-3.77405e-08
1.04341e-09
-3.8795e-08
1.05451e-09
-3.98612e-08
1.06615e-09
-4.09395e-08
1.07832e-09
-4.20305e-08
1.09099e-09
-4.31346e-08
1.10414e-09
-4.42524e-08
1.11773e-09
-4.53841e-08
1.13173e-09
-4.65302e-08
1.1461e-09
-4.7691e-08
1.1608e-09
-4.88668e-08
1.17578e-09
-5.00578e-08
1.19099e-09
-5.12641e-08
1.20636e-09
-5.2486e-08
1.22183e-09
-5.37233e-08
1.23733e-09
-5.49761e-08
1.25278e-09
-5.62442e-08
1.2681e-09
-5.75274e-08
1.28319e-09
-5.88253e-08
1.29796e-09
-6.01376e-08
1.31229e-09
-6.14637e-08
1.32607e-09
-6.28029e-08
1.33918e-09
-6.41544e-08
1.35149e-09
-6.55172e-08
1.36285e-09
-6.68903e-08
1.37312e-09
-6.82725e-08
1.38213e-09
-6.96622e-08
1.38972e-09
-7.10579e-08
1.39571e-09
-7.24578e-08
1.39991e-09
-7.38599e-08
1.40213e-09
-7.52621e-08
1.40216e-09
-7.66619e-08
1.39979e-09
-7.80567e-08
1.39479e-09
-7.94436e-08
1.38693e-09
-8.08196e-08
1.37598e-09
-8.21813e-08
1.3617e-09
-8.35251e-08
1.34383e-09
-8.48472e-08
1.32211e-09
-8.61435e-08
1.29631e-09
-8.74097e-08
1.26615e-09
-8.86411e-08
1.23137e-09
-8.98328e-08
1.19173e-09
-9.09798e-08
1.14697e-09
-9.20766e-08
1.09685e-09
-9.31177e-08
1.04113e-09
-9.40973e-08
9.79589e-10
-9.50094e-08
9.12019e-10
-9.58476e-08
8.38234e-10
-9.66057e-08
7.58068e-10
-9.7277e-08
6.71383e-10
-9.78551e-08
5.78071e-10
-9.83332e-08
4.78061e-10
-9.87045e-08
3.7132e-10
-9.89624e-08
2.57861e-10
-9.91001e-08
1.37745e-10
-9.91112e-08
1.10908e-11
-9.89893e-08
-1.21938e-10
-9.87282e-08
-2.61092e-10
-9.83221e-08
-4.06071e-10
-9.77656e-08
-5.565e-10
-9.70537e-08
-7.11928e-10
-9.61818e-08
-8.71825e-10
-9.51463e-08
-1.03558e-09
-9.39438e-08
-1.20251e-09
-9.25719e-08
-1.37183e-09
-9.10292e-08
-1.54269e-09
-8.93151e-08
-1.71415e-09
-8.74299e-08
-1.8852e-09
-8.53751e-08
-2.05474e-09
-8.31535e-08
-2.22163e-09
-8.07689e-08
-2.38464e-09
-7.82264e-08
-2.54251e-09
-7.55325e-08
-2.6939e-09
-7.2695e-08
-2.8375e-09
-6.9723e-08
-2.97192e-09
-6.66272e-08
-3.0958e-09
-6.34194e-08
-3.2078e-09
-6.01129e-08
-3.30657e-09
-5.6722e-08
-3.39085e-09
-5.32626e-08
-3.4594e-09
-4.97515e-08
-3.51109e-09
-4.62067e-08
-3.54488e-09
-4.26468e-08
-3.55984e-09
-3.90917e-08
-3.55516e-09
-3.55615e-08
-3.53018e-09
-3.20771e-08
-3.48439e-09
-2.86596e-08
-3.41746e-09
-2.53304e-08
-3.3292e-09
-2.21108e-08
-3.21962e-09
-1.90219e-08
-3.08889e-09
-1.60846e-08
-2.93737e-09
-1.33189e-08
-2.76561e-09
-1.07446e-08
-2.57432e-09
-8.38021e-09
-2.36442e-09
-6.24319e-09
-2.13702e-09
-4.34971e-09
-1.89347e-09
-2.71429e-09
-1.63542e-09
-1.34938e-09
-1.36491e-09
-2.64786e-10
-1.0846e-09
5.33309e-10
-7.98095e-10
1.04389e-09
-5.1058e-10
1.27385e-09
-2.29956e-10
1.24274e-09
3.11046e-11
9.90998e-10
2.51743e-10
5.94357e-10
3.96637e-10
1.9127e-10
4.0308e-10
1.91264e-10
1.42314e-10
-1.94078e-10
4.08634e-10
-4.06905e-10
6.90105e-10
-4.48622e-10
9.04773e-10
-3.60384e-10
9.9391e-10
-1.85217e-10
9.19157e-10
4.42478e-11
6.57875e-10
3.04639e-10
1.98797e-10
5.79483e-10
-4.61126e-10
8.57342e-10
-1.31915e-09
1.13034e-09
-2.36863e-09
1.39313e-09
-3.60005e-09
1.64222e-09
-5.00226e-09
1.87537e-09
-6.56305e-09
2.09129e-09
-8.26971e-09
2.28943e-09
-1.01094e-08
2.46977e-09
-1.20696e-08
2.63263e-09
-1.4138e-08
2.77867e-09
-1.6303e-08
2.90871e-09
-1.85536e-08
3.02372e-09
-2.08796e-08
3.12478e-09
-2.32716e-08
3.21302e-09
-2.5721e-08
3.28956e-09
-2.822e-08
3.35556e-09
-3.07616e-08
3.41214e-09
-3.33398e-08
3.46038e-09
-3.59489e-08
3.50131e-09
-3.85845e-08
3.53595e-09
-4.12423e-08
3.56519e-09
-4.39191e-08
3.58992e-09
-4.66121e-08
3.61093e-09
-4.93189e-08
3.62895e-09
-5.20379e-08
3.64466e-09
-5.47677e-08
3.65867e-09
-5.75074e-08
3.67153e-09
-6.02565e-08
3.68373e-09
-6.30148e-08
3.69572e-09
-6.57823e-08
3.70788e-09
-6.85594e-08
3.72056e-09
-7.13467e-08
3.73407e-09
-7.41449e-08
3.74865e-09
-7.6955e-08
3.76454e-09
-7.97779e-08
3.78193e-09
-8.2615e-08
3.80098e-09
-8.54675e-08
3.82183e-09
-8.83368e-08
3.84457e-09
-9.12244e-08
3.86932e-09
-9.41316e-08
3.89613e-09
-9.70602e-08
3.92505e-09
-1.00012e-07
3.9561e-09
-1.02987e-07
3.98931e-09
-1.05989e-07
4.02466e-09
-1.09018e-07
4.06214e-09
-1.12077e-07
4.10173e-09
-1.15166e-07
4.14336e-09
-1.18286e-07
4.18698e-09
-1.21441e-07
4.23252e-09
-1.2463e-07
4.27987e-09
-1.27854e-07
4.32894e-09
-1.31116e-07
4.37959e-09
-1.34416e-07
4.4317e-09
-1.37755e-07
4.48509e-09
-1.41134e-07
4.5396e-09
-1.44553e-07
4.59502e-09
-1.48013e-07
4.65114e-09
-1.51515e-07
4.70772e-09
-1.55057e-07
4.76451e-09
-1.58641e-07
4.82121e-09
-1.62266e-07
4.87751e-09
-1.65931e-07
4.93309e-09
-1.69635e-07
4.98756e-09
-1.73378e-07
5.04055e-09
-1.77157e-07
5.09163e-09
-1.80972e-07
5.14035e-09
-1.84819e-07
5.18623e-09
-1.88696e-07
5.22875e-09
-1.926e-07
5.26737e-09
-1.96529e-07
5.3015e-09
-2.00477e-07
5.33052e-09
-2.04441e-07
5.3538e-09
-2.08416e-07
5.37064e-09
-2.12397e-07
5.38033e-09
-2.16377e-07
5.38213e-09
-2.2035e-07
5.37524e-09
-2.24309e-07
5.35885e-09
-2.28246e-07
5.33214e-09
-2.32153e-07
5.29422e-09
-2.36022e-07
5.24421e-09
-2.39841e-07
5.1812e-09
-2.43602e-07
5.10425e-09
-2.47292e-07
5.01243e-09
-2.509e-07
4.90479e-09
-2.54415e-07
4.78037e-09
-2.57821e-07
4.63823e-09
-2.61107e-07
4.47745e-09
-2.64257e-07
4.29711e-09
-2.67257e-07
4.09633e-09
-2.7009e-07
3.87428e-09
-2.7274e-07
3.63017e-09
-2.75192e-07
3.36328e-09
-2.77426e-07
3.07296e-09
-2.79427e-07
2.75866e-09
-2.81176e-07
2.41994e-09
-2.82654e-07
2.05646e-09
-2.83844e-07
1.66802e-09
-2.84727e-07
1.25461e-09
-2.85286e-07
8.16327e-10
-2.85501e-07
3.53507e-10
-2.85357e-07
-1.33337e-10
-2.84836e-07
-6.43469e-10
-2.83921e-07
-1.17591e-09
-2.82597e-07
-1.72945e-09
-2.80851e-07
-2.30259e-09
-2.7867e-07
-2.89358e-09
-2.76041e-07
-3.50037e-09
-2.72956e-07
-4.12063e-09
-2.69407e-07
-4.75172e-09
-2.65388e-07
-5.3907e-09
-2.60896e-07
-6.03436e-09
-2.55931e-07
-6.67918e-09
-2.50495e-07
-7.32137e-09
-2.44593e-07
-7.95686e-09
-2.38233e-07
-8.58137e-09
-2.31427e-07
-9.19039e-09
-2.24191e-07
-9.77923e-09
-2.16542e-07
-1.03431e-08
-2.08502e-07
-1.08769e-08
-2.00098e-07
-1.13758e-08
-1.91359e-07
-1.18348e-08
-1.82318e-07
-1.22489e-08
-1.73012e-07
-1.26132e-08
-1.63479e-07
-1.29231e-08
-1.53764e-07
-1.31743e-08
-1.43913e-07
-1.33624e-08
-1.33974e-07
-1.34838e-08
-1.23999e-07
-1.35351e-08
-1.14041e-07
-1.35133e-08
-1.04155e-07
-1.34163e-08
-9.43971e-08
-1.3242e-08
-8.48252e-08
-1.29893e-08
-7.54967e-08
-1.26577e-08
-6.6469e-08
-1.22473e-08
-5.77991e-08
-1.17588e-08
-4.95426e-08
-1.11938e-08
-4.17538e-08
-1.05545e-08
-3.44844e-08
-9.84374e-09
-2.77833e-08
-9.06545e-09
-2.16961e-08
-8.22426e-09
-1.62636e-08
-7.32594e-09
-1.15215e-08
-6.37756e-09
-7.49841e-09
-5.38798e-09
-4.2144e-09
-4.3686e-09
-1.67795e-09
-3.33455e-09
1.18129e-10
-2.30665e-09
1.20287e-09
-1.31469e-09
1.63625e-09
-4.02278e-10
1.52269e-09
3.65312e-10
1.02869e-09
8.90655e-10
4.01509e-10
1.03027e-09
5.92764e-10
1.68685e-10
-3.62761e-10
4.52213e-10
-6.90438e-10
7.113e-10
-7.07709e-10
8.46335e-10
-4.95407e-10
7.83978e-10
-1.22875e-10
4.73664e-10
3.54564e-10
-1.16538e-10
8.94836e-10
-1.00392e-09
1.46686e-09
-2.19462e-09
2.04806e-09
-3.68649e-09
2.62221e-09
-5.47126e-09
3.1779e-09
-7.53633e-09
3.70729e-09
-9.86618e-09
4.20521e-09
-1.24434e-08
4.6685e-09
-1.52495e-08
5.09555e-09
-1.82656e-08
5.48589e-09
-2.14729e-08
5.83994e-09
-2.4853e-08
6.15875e-09
-2.83881e-08
6.44385e-09
-3.20615e-08
6.69712e-09
-3.58574e-08
6.92068e-09
-3.97612e-08
7.11678e-09
-4.37594e-08
7.28774e-09
-4.78397e-08
7.43592e-09
-5.19912e-08
7.56365e-09
-5.62041e-08
7.67319e-09
-6.04695e-08
7.76673e-09
-6.47799e-08
7.84638e-09
-6.91288e-08
7.91408e-09
-7.35106e-08
7.97169e-09
-7.79206e-08
8.02093e-09
-8.2355e-08
8.06339e-09
-8.68109e-08
8.10051e-09
-9.12858e-08
8.13362e-09
-9.57782e-08
8.16393e-09
-1.00287e-07
8.19251e-09
-1.04812e-07
8.22033e-09
-1.09352e-07
8.24825e-09
-1.13908e-07
8.27704e-09
-1.18482e-07
8.30736e-09
-1.23073e-07
8.3398e-09
-1.27683e-07
8.37485e-09
-1.32314e-07
8.41296e-09
-1.36968e-07
8.45448e-09
-1.41646e-07
8.49971e-09
-1.4635e-07
8.54892e-09
-1.51083e-07
8.6023e-09
-1.55847e-07
8.66001e-09
-1.60644e-07
8.72214e-09
-1.65477e-07
8.78878e-09
-1.70347e-07
8.85995e-09
-1.75258e-07
8.93564e-09
-1.80212e-07
9.01582e-09
-1.85211e-07
9.10041e-09
-1.90257e-07
9.1893e-09
-1.95352e-07
9.28236e-09
-2.00499e-07
9.37941e-09
-2.05699e-07
9.48024e-09
-2.10955e-07
9.58461e-09
-2.16267e-07
9.69222e-09
-2.21639e-07
9.80278e-09
-2.27069e-07
9.91591e-09
-2.32561e-07
1.00312e-08
-2.38114e-07
1.01483e-08
-2.4373e-07
1.02666e-08
-2.49408e-07
1.03856e-08
-2.55148e-07
1.05047e-08
-2.6095e-07
1.06233e-08
-2.66813e-07
1.07407e-08
-2.72736e-07
1.08562e-08
-2.78717e-07
1.09689e-08
-2.84755e-07
1.10779e-08
-2.90846e-07
1.11824e-08
-2.96986e-07
1.12813e-08
-3.03174e-07
1.13736e-08
-3.09403e-07
1.14581e-08
-3.1567e-07
1.15337e-08
-3.21967e-07
1.1599e-08
-3.28289e-07
1.16528e-08
-3.34629e-07
1.16935e-08
-3.40978e-07
1.17197e-08
-3.47328e-07
1.17299e-08
-3.53668e-07
1.17224e-08
-3.59988e-07
1.16956e-08
-3.66277e-07
1.16477e-08
-3.72522e-07
1.15768e-08
-3.78709e-07
1.14812e-08
-3.84823e-07
1.13588e-08
-3.9085e-07
1.12079e-08
-3.96772e-07
1.10263e-08
-4.02572e-07
1.08121e-08
-4.0823e-07
1.05633e-08
-4.13728e-07
1.02779e-08
-4.19044e-07
9.95394e-09
-4.24156e-07
9.58942e-09
-4.29041e-07
9.18248e-09
-4.33676e-07
8.7313e-09
-4.38036e-07
8.23417e-09
-4.42095e-07
7.68948e-09
-4.45828e-07
7.09579e-09
-4.49206e-07
6.45181e-09
-4.52204e-07
5.75647e-09
-4.54793e-07
5.00893e-09
-4.56945e-07
4.20859e-09
-4.58633e-07
3.35518e-09
-4.59827e-07
2.44875e-09
-4.605e-07
1.4897e-09
-4.60625e-07
4.78849e-10
-4.60176e-07
-5.82559e-10
-4.59127e-07
-1.69281e-09
-4.57453e-07
-2.8497e-09
-4.55132e-07
-4.05048e-09
-4.52143e-07
-5.29187e-09
-4.48466e-07
-6.57e-09
-4.44086e-07
-7.88039e-09
-4.38989e-07
-9.21798e-09
-4.33164e-07
-1.05771e-08
-4.26603e-07
-1.19513e-08
-4.19303e-07
-1.33339e-08
-4.11265e-07
-1.47172e-08
-4.02494e-07
-1.60932e-08
-3.92997e-07
-1.74532e-08
-3.82791e-07
-1.87882e-08
-3.71892e-07
-2.00885e-08
-3.60327e-07
-2.13444e-08
-3.48125e-07
-2.25455e-08
-3.3532e-07
-2.36816e-08
-3.21954e-07
-2.4742e-08
-3.08072e-07
-2.57164e-08
-2.93727e-07
-2.65943e-08
-2.78975e-07
-2.73655e-08
-2.63877e-07
-2.80204e-08
-2.48502e-07
-2.85497e-08
-2.3292e-07
-2.89447e-08
-2.17206e-07
-2.91976e-08
-2.0144e-07
-2.93013e-08
-1.85703e-07
-2.92498e-08
-1.70081e-07
-2.90382e-08
-1.5466e-07
-2.86628e-08
-1.39529e-07
-2.81212e-08
-1.24774e-07
-2.74123e-08
-1.10485e-07
-2.65365e-08
-9.6748e-08
-2.54957e-08
-8.36485e-08
-2.42934e-08
-7.12685e-08
-2.29345e-08
-5.96864e-08
-2.14258e-08
-4.89758e-08
-1.9776e-08
-3.92043e-08
-1.79958e-08
-3.04319e-08
-1.60984e-08
-2.27094e-08
-1.41e-08
-1.60765e-08
-1.20209e-08
-1.05582e-08
-9.88686e-09
-6.16158e-09
-7.73117e-09
-2.86987e-09
-5.59836e-09
-6.35446e-10
-3.54912e-09
6.30207e-10
-1.66793e-09
1.06929e-09
-7.37799e-11
8.92288e-10
1.06766e-09
3.9476e-10
1.52781e-09
9.87525e-10
1.4852e-10
-5.11298e-10
3.66109e-10
-9.08008e-10
5.01536e-10
-8.43146e-10
4.46836e-10
-4.40703e-10
1.22428e-10
2.01542e-10
-5.27745e-10
1.00474e-09
-1.54014e-09
1.90724e-09
-2.93538e-09
2.8621e-09
-4.72142e-09
3.8341e-09
-6.89644e-09
4.79723e-09
-9.45117e-09
5.73263e-09
-1.23708e-08
6.62694e-09
-1.56367e-08
7.47112e-09
-1.92276e-08
8.25938e-09
-2.31206e-08
8.98852e-09
-2.7292e-08
9.65729e-09
-3.1718e-08
1.0266e-08
-3.63752e-08
1.08159e-08
-4.12408e-08
1.13095e-08
-4.62932e-08
1.17495e-08
-5.15118e-08
1.21393e-08
-5.68775e-08
1.24825e-08
-6.23726e-08
1.27829e-08
-6.7981e-08
1.30443e-08
-7.3688e-08
1.32706e-08
-7.94804e-08
1.34656e-08
-8.53466e-08
1.36329e-08
-9.12763e-08
1.37761e-08
-9.72606e-08
1.38983e-08
-1.03292e-07
1.40029e-08
-1.09363e-07
1.40926e-08
-1.1547e-07
1.41702e-08
-1.21608e-07
1.42382e-08
-1.27773e-07
1.42989e-08
-1.33963e-07
1.43543e-08
-1.40177e-07
1.44062e-08
-1.46413e-07
1.44565e-08
-1.52672e-07
1.45065e-08
-1.58952e-07
1.45576e-08
-1.65256e-07
1.4611e-08
-1.71584e-07
1.46676e-08
-1.77937e-07
1.47285e-08
-1.84319e-07
1.47943e-08
-1.9073e-07
1.48656e-08
-1.97173e-07
1.49431e-08
-2.03651e-07
1.50271e-08
-2.10167e-07
1.51181e-08
-2.16723e-07
1.52162e-08
-2.23323e-07
1.53218e-08
-2.29969e-07
1.54349e-08
-2.36665e-07
1.55555e-08
-2.43413e-07
1.56837e-08
-2.50216e-07
1.58194e-08
-2.57078e-07
1.59624e-08
-2.64002e-07
1.61127e-08
-2.70989e-07
1.62698e-08
-2.78043e-07
1.64335e-08
-2.85166e-07
1.66035e-08
-2.92361e-07
1.67792e-08
-2.99629e-07
1.69602e-08
-3.06972e-07
1.7146e-08
-3.14392e-07
1.73358e-08
-3.2189e-07
1.7529e-08
-3.29466e-07
1.77247e-08
-3.37122e-07
1.79222e-08
-3.44857e-07
1.81204e-08
-3.5267e-07
1.83184e-08
-3.60562e-07
1.85149e-08
-3.6853e-07
1.87089e-08
-3.76573e-07
1.88989e-08
-3.84688e-07
1.90835e-08
-3.92871e-07
1.92613e-08
-4.01119e-07
1.94305e-08
-4.09427e-07
1.95894e-08
-4.1779e-07
1.97363e-08
-4.26201e-07
1.9869e-08
-4.34653e-07
1.99856e-08
-4.43137e-07
2.00838e-08
-4.51646e-07
2.01613e-08
-4.60168e-07
2.02156e-08
-4.68692e-07
2.02442e-08
-4.77207e-07
2.02444e-08
-4.85698e-07
2.02134e-08
-4.9415e-07
2.01483e-08
-5.02549e-07
2.00462e-08
-5.10876e-07
1.9904e-08
-5.19114e-07
1.97184e-08
-5.27241e-07
1.94864e-08
-5.35238e-07
1.92045e-08
-5.43081e-07
1.88694e-08
-5.50746e-07
1.84778e-08
-5.58209e-07
1.80264e-08
-5.65443e-07
1.75117e-08
-5.7242e-07
1.69305e-08
-5.7911e-07
1.62797e-08
-5.85484e-07
1.55559e-08
-5.91509e-07
1.47564e-08
-5.97153e-07
1.38783e-08
-6.02382e-07
1.29189e-08
-6.07163e-07
1.18761e-08
-6.11458e-07
1.07477e-08
-6.15234e-07
9.53216e-09
-6.18453e-07
8.22814e-09
-6.2108e-07
6.83487e-09
-6.23077e-07
5.35206e-09
-6.24408e-07
3.77998e-09
-6.25038e-07
2.11953e-09
-6.24931e-07
3.72297e-10
-6.24054e-07
-1.45941e-09
-6.22375e-07
-3.3725e-09
-6.19861e-07
-5.36302e-09
-6.16486e-07
-7.42616e-09
-6.12221e-07
-9.55616e-09
-6.07045e-07
-1.17463e-08
-6.00936e-07
-1.39889e-08
-5.93879e-07
-1.62753e-08
-5.8586e-07
-1.85957e-08
-5.76873e-07
-2.09393e-08
-5.66912e-07
-2.32944e-08
-5.55981e-07
-2.56483e-08
-5.44087e-07
-2.79873e-08
-5.31243e-07
-3.02969e-08
-5.17469e-07
-3.25618e-08
-5.02792e-07
-3.47659e-08
-4.87244e-07
-3.68926e-08
-4.70864e-07
-3.89248e-08
-4.53701e-07
-4.08452e-08
-4.35807e-07
-4.26362e-08
-4.17243e-07
-4.42803e-08
-3.98077e-07
-4.57602e-08
-3.78383e-07
-4.70591e-08
-3.58243e-07
-4.81606e-08
-3.37743e-07
-4.90493e-08
-3.16977e-07
-4.97109e-08
-2.96043e-07
-5.01323e-08
-2.75042e-07
-5.03018e-08
-2.54082e-07
-5.02095e-08
-2.33273e-07
-4.98473e-08
-2.12727e-07
-4.92091e-08
-1.92557e-07
-4.82909e-08
-1.72878e-07
-4.70913e-08
-1.53803e-07
-4.56111e-08
-1.35445e-07
-4.38536e-08
-1.17914e-07
-4.18252e-08
-1.01313e-07
-3.95347e-08
-8.5745e-08
-3.69942e-08
-7.1302e-08
-3.4219e-08
-5.80696e-08
-3.12282e-08
-4.61229e-08
-2.80451e-08
-3.55243e-08
-2.46986e-08
-2.63211e-08
-2.12241e-08
-1.85418e-08
-1.76662e-08
-1.21918e-08
-1.40812e-08
-7.24765e-09
-1.05425e-08
-3.65022e-09
-7.14654e-09
-1.29559e-09
-4.02256e-09
-2.46569e-11
-1.34471e-09
3.89459e-10
6.5354e-10
2.54955e-10
1.66231e-09
1.24248e-09
9.95864e-11
-6.10871e-10
1.90412e-10
-9.98834e-10
1.24695e-10
-7.77432e-10
-2.0536e-10
-1.1065e-10
-8.79485e-10
8.7567e-10
-1.95439e-09
2.07963e-09
-3.46741e-09
3.42026e-09
-5.43987e-09
4.83456e-09
-7.87999e-09
6.27422e-09
-1.07855e-08
7.70278e-09
-1.41461e-08
9.09316e-09
-1.79449e-08
1.04258e-08
-2.2161e-08
1.16871e-08
-2.67698e-08
1.28682e-08
-3.17449e-08
1.39637e-08
-3.7059e-08
1.49714e-08
-4.26841e-08
1.58911e-08
-4.85927e-08
1.67245e-08
-5.47578e-08
1.74746e-08
-6.11536e-08
1.81453e-08
-6.77556e-08
1.87413e-08
-7.45408e-08
1.92677e-08
-8.1488e-08
1.973e-08
-8.85773e-08
2.01337e-08
-9.5791e-08
2.04844e-08
-1.03113e-07
2.07876e-08
-1.10529e-07
2.10488e-08
-1.18026e-07
2.12731e-08
-1.25593e-07
2.14654e-08
-1.33221e-07
2.16305e-08
-1.40901e-07
2.17726e-08
-1.48626e-07
2.18958e-08
-1.56392e-07
2.20039e-08
-1.64193e-07
2.21003e-08
-1.72027e-07
2.21881e-08
-1.79891e-07
2.22701e-08
-1.87784e-07
2.2349e-08
-1.95704e-07
2.24269e-08
-2.03652e-07
2.2506e-08
-2.1163e-07
2.2588e-08
-2.19636e-07
2.26745e-08
-2.27675e-07
2.27669e-08
-2.35747e-07
2.28662e-08
-2.43855e-07
2.29736e-08
-2.52002e-07
2.30899e-08
-2.6019e-07
2.32158e-08
-2.68424e-07
2.33517e-08
-2.76706e-07
2.34983e-08
-2.8504e-07
2.36556e-08
-2.93429e-07
2.3824e-08
-3.01877e-07
2.40036e-08
-3.10388e-07
2.41942e-08
-3.18964e-07
2.43959e-08
-3.2761e-07
2.46083e-08
-3.36329e-07
2.48313e-08
-3.45123e-07
2.50643e-08
-3.53996e-07
2.5307e-08
-3.62952e-07
2.55586e-08
-3.71991e-07
2.58186e-08
-3.81117e-07
2.60861e-08
-3.90331e-07
2.63603e-08
-3.99635e-07
2.66401e-08
-4.09031e-07
2.69244e-08
-4.18518e-07
2.72121e-08
-4.28098e-07
2.75017e-08
-4.37769e-07
2.77918e-08
-4.47532e-07
2.80808e-08
-4.57383e-07
2.83669e-08
-4.67323e-07
2.86482e-08
-4.77347e-07
2.89228e-08
-4.87451e-07
2.91883e-08
-4.97633e-07
2.94425e-08
-5.07885e-07
2.96829e-08
-5.18202e-07
2.99067e-08
-5.28577e-07
3.01112e-08
-5.39002e-07
3.02934e-08
-5.49466e-07
3.04499e-08
-5.5996e-07
3.05776e-08
-5.70471e-07
3.06728e-08
-5.80988e-07
3.07318e-08
-5.91494e-07
3.07508e-08
-6.01976e-07
3.07258e-08
-6.12415e-07
3.06524e-08
-6.22793e-07
3.05265e-08
-6.3309e-07
3.03434e-08
-6.43285e-07
3.00986e-08
-6.53354e-07
2.97874e-08
-6.63272e-07
2.94049e-08
-6.73014e-07
2.89462e-08
-6.82551e-07
2.84065e-08
-6.91854e-07
2.77807e-08
-7.00891e-07
2.70638e-08
-7.09631e-07
2.62511e-08
-7.18038e-07
2.53376e-08
-7.26077e-07
2.43187e-08
-7.33711e-07
2.31899e-08
-7.40901e-07
2.19468e-08
-7.47609e-07
2.05855e-08
-7.53792e-07
1.91023e-08
-7.5941e-07
1.74939e-08
-7.6442e-07
1.57575e-08
-7.68778e-07
1.38909e-08
-7.72443e-07
1.18924e-08
-7.75369e-07
9.76117e-09
-7.77514e-07
7.49693e-09
-7.78834e-07
5.1004e-09
-7.79288e-07
2.5732e-09
-7.78834e-07
-8.20443e-11
-7.77431e-07
-2.86161e-09
-7.75043e-07
-5.76061e-09
-7.71633e-07
-8.77291e-09
-7.67168e-07
-1.18911e-08
-7.61618e-07
-1.51064e-08
-7.54956e-07
-1.84085e-08
-7.47159e-07
-2.17859e-08
-7.38209e-07
-2.52253e-08
-7.28093e-07
-2.87122e-08
-7.16801e-07
-3.22305e-08
-7.04333e-07
-3.57627e-08
-6.90692e-07
-3.92897e-08
-6.75888e-07
-4.27913e-08
-6.59939e-07
-4.62458e-08
-6.4287e-07
-4.96307e-08
-6.24714e-07
-5.29222e-08
-6.0551e-07
-5.60957e-08
-5.85309e-07
-5.91261e-08
-5.64167e-07
-6.19877e-08
-5.42148e-07
-6.46548e-08
-5.19327e-07
-6.71014e-08
-4.95785e-07
-6.93023e-08
-4.71612e-07
-7.12326e-08
-4.46904e-07
-7.28684e-08
-4.21766e-07
-7.4187e-08
-3.96309e-07
-7.51674e-08
-3.70651e-07
-7.57904e-08
-3.44914e-07
-7.60389e-08
-3.19226e-07
-7.58982e-08
-2.93716e-07
-7.53566e-08
-2.6852e-07
-7.44053e-08
-2.43772e-07
-7.30386e-08
-2.19609e-07
-7.12545e-08
-1.96166e-07
-6.90544e-08
-1.73576e-07
-6.64439e-08
-1.51968e-07
-6.34326e-08
-1.31469e-07
-6.00343e-08
-1.12195e-07
-5.62676e-08
-9.42581e-08
-5.21562e-08
-7.77569e-08
-4.77294e-08
-6.27788e-08
-4.30233e-08
-4.93957e-08
-3.80817e-08
-3.76616e-08
-3.29583e-08
-2.76082e-08
-2.77195e-08
-1.92412e-08
-2.24481e-08
-1.25349e-08
-1.72488e-08
-7.4257e-09
-1.22557e-08
-3.80553e-09
-7.64273e-09
-1.51343e-09
-3.63681e-09
-3.27128e-10
-5.32768e-10
4.7792e-11
1.2874e-09
1.29028e-09
3.32219e-11
-6.44109e-10
-4.53244e-11
-9.20287e-10
-3.69949e-10
-4.52809e-10
-1.0413e-09
5.60703e-10
-2.13445e-09
1.96882e-09
-3.70291e-09
3.6481e-09
-5.78189e-09
5.49925e-09
-8.39115e-09
7.44381e-09
-1.15375e-08
9.42062e-09
-1.52174e-08
1.13826e-08
-1.94187e-08
1.32944e-08
-2.41226e-08
1.51298e-08
-2.93058e-08
1.68703e-08
-3.49412e-08
1.85035e-08
-4.09993e-08
2.00218e-08
-4.74495e-08
2.14216e-08
-5.42606e-08
2.27022e-08
-6.14016e-08
2.38654e-08
-6.88419e-08
2.49149e-08
-7.65523e-08
2.58557e-08
-8.45048e-08
2.66938e-08
-9.26732e-08
2.74361e-08
-1.01033e-07
2.80897e-08
-1.09561e-07
2.86621e-08
-1.18238e-07
2.91608e-08
-1.27044e-07
2.95934e-08
-1.35962e-07
2.9967e-08
-1.44978e-07
3.02889e-08
-1.54078e-07
3.05657e-08
-1.63251e-07
3.08039e-08
-1.72488e-07
3.10094e-08
-1.8178e-07
3.11879e-08
-1.91121e-07
3.13446e-08
-2.00505e-07
3.14842e-08
-2.09928e-07
3.16111e-08
-2.19387e-07
3.17292e-08
-2.2888e-07
3.18422e-08
-2.38407e-07
3.19532e-08
-2.47966e-07
3.2065e-08
-2.57558e-07
3.21803e-08
-2.67185e-07
3.23013e-08
-2.76847e-07
3.24297e-08
-2.86549e-07
3.25675e-08
-2.96291e-07
3.27159e-08
-3.06077e-07
3.28761e-08
-3.15911e-07
3.30493e-08
-3.25795e-07
3.3236e-08
-3.35734e-07
3.3437e-08
-3.45731e-07
3.36528e-08
-3.5579e-07
3.38834e-08
-3.65916e-07
3.41292e-08
-3.76112e-07
3.439e-08
-3.86381e-07
3.46657e-08
-3.96729e-07
3.4956e-08
-4.07158e-07
3.52605e-08
-4.17672e-07
3.55785e-08
-4.28275e-07
3.59094e-08
-4.38969e-07
3.62524e-08
-4.49756e-07
3.66063e-08
-4.6064e-07
3.69701e-08
-4.71623e-07
3.73426e-08
-4.82705e-07
3.77222e-08
-4.93888e-07
3.81074e-08
-5.05172e-07
3.84964e-08
-5.16558e-07
3.88873e-08
-5.28044e-07
3.92779e-08
-5.39629e-07
3.9666e-08
-5.51311e-07
4.00491e-08
-5.63088e-07
4.04245e-08
-5.74954e-07
4.07892e-08
-5.86906e-07
4.11403e-08
-5.98938e-07
4.14743e-08
-6.11043e-07
4.17877e-08
-6.23213e-07
4.20768e-08
-6.35439e-07
4.23375e-08
-6.47711e-07
4.25656e-08
-6.60018e-07
4.27566e-08
-6.72346e-07
4.29058e-08
-6.84682e-07
4.30083e-08
-6.97009e-07
4.30589e-08
-7.0931e-07
4.30522e-08
-7.21567e-07
4.29825e-08
-7.33758e-07
4.28441e-08
-7.45863e-07
4.26309e-08
-7.57856e-07
4.23367e-08
-7.69712e-07
4.19551e-08
-7.81405e-07
4.14797e-08
-7.92904e-07
4.09038e-08
-8.04178e-07
4.02207e-08
-8.15195e-07
3.94237e-08
-8.25921e-07
3.8506e-08
-8.36318e-07
3.74609e-08
-8.46348e-07
3.62817e-08
-8.55973e-07
3.4962e-08
-8.65149e-07
3.34954e-08
-8.73835e-07
3.18759e-08
-8.81986e-07
3.00979e-08
-8.89557e-07
2.81559e-08
-8.965e-07
2.60452e-08
-9.02767e-07
2.37615e-08
-9.08311e-07
2.13014e-08
-9.13082e-07
1.86619e-08
-9.17031e-07
1.58412e-08
-9.20108e-07
1.28383e-08
-9.22264e-07
9.65325e-09
-9.23451e-07
6.28741e-09
-9.23621e-07
2.7433e-09
-9.22728e-07
-9.75092e-10
-9.20728e-07
-4.86233e-09
-9.17577e-07
-8.91136e-09
-9.13236e-07
-1.31134e-08
-9.07669e-07
-1.74581e-08
-9.00843e-07
-2.19329e-08
-8.92728e-07
-2.65236e-08
-8.83299e-07
-3.12141e-08
-8.72539e-07
-3.5986e-08
-8.60432e-07
-4.08193e-08
-8.46971e-07
-4.56916e-08
-8.32154e-07
-5.05788e-08
-8.15989e-07
-5.5455e-08
-7.98488e-07
-6.02923e-08
-7.79673e-07
-6.50612e-08
-7.59573e-07
-6.97306e-08
-7.38227e-07
-7.42683e-08
-7.15682e-07
-7.86408e-08
-6.91994e-07
-8.28138e-08
-6.67229e-07
-8.67524e-08
-6.41462e-07
-9.04214e-08
-6.14778e-07
-9.3786e-08
-5.87269e-07
-9.68114e-08
-5.59037e-07
-9.9464e-08
-5.30195e-07
-1.01711e-07
-5.00859e-07
-1.03523e-07
-4.71157e-07
-1.04869e-07
-4.41222e-07
-1.05725e-07
-4.11193e-07
-1.06067e-07
-3.81216e-07
-1.05876e-07
-3.51438e-07
-1.05134e-07
-3.22012e-07
-1.03832e-07
-2.93091e-07
-1.0196e-07
-2.64829e-07
-9.95158e-08
-2.37381e-07
-9.65027e-08
-2.10897e-07
-9.29282e-08
-1.85524e-07
-8.88058e-08
-1.61403e-07
-8.41552e-08
-1.38668e-07
-7.90026e-08
-1.17443e-07
-7.33813e-08
-9.78395e-08
-6.73325e-08
-7.99561e-08
-6.09067e-08
-6.3873e-08
-5.41648e-08
-4.96505e-08
-4.71808e-08
-3.73252e-08
-4.00449e-08
-2.69056e-08
-3.28677e-08
-1.83681e-08
-2.57863e-08
-1.16519e-08
-1.89719e-08
-6.6537e-09
-1.26409e-08
-3.22261e-09
-7.06789e-09
-1.15503e-09
-2.60035e-09
-1.89674e-10
3.22041e-10
1.1006e-09
-4.36333e-11
-6.00465e-10
-3.20546e-10
-6.43372e-10
-9.46003e-10
1.72649e-10
-2.00861e-09
1.62331e-09
-3.57488e-09
3.5351e-09
-5.69213e-09
5.76534e-09
-8.39088e-09
8.198e-09
-1.16873e-08
1.07403e-08
-1.55854e-08
1.33187e-08
-2.00789e-08
1.58762e-08
-2.51535e-08
1.83689e-08
-3.0788e-08
2.07643e-08
-3.69565e-08
2.30388e-08
-4.36294e-08
2.51764e-08
-5.07746e-08
2.7167e-08
-5.83586e-08
2.90056e-08
-6.63472e-08
3.06908e-08
-7.47064e-08
3.22246e-08
-8.34027e-08
3.36113e-08
-9.24039e-08
3.48569e-08
-1.01679e-07
3.5969e-08
-1.11199e-07
3.69561e-08
-1.20937e-07
3.78273e-08
-1.30867e-07
3.8592e-08
-1.40966e-07
3.92599e-08
-1.51213e-07
3.98405e-08
-1.61589e-07
4.03433e-08
-1.72078e-07
4.07774e-08
-1.82664e-07
4.11516e-08
-1.93334e-07
4.14742e-08
-2.04077e-07
4.1753e-08
-2.14885e-07
4.19954e-08
-2.25748e-07
4.22081e-08
-2.36662e-07
4.23974e-08
-2.4762e-07
4.25691e-08
-2.58619e-07
4.27283e-08
-2.69656e-07
4.28798e-08
-2.80731e-07
4.30279e-08
-2.91842e-07
4.31763e-08
-3.0299e-07
4.33284e-08
-3.14176e-07
4.34872e-08
-3.25402e-07
4.36552e-08
-3.36669e-07
4.38347e-08
-3.47981e-07
4.40276e-08
-3.5934e-07
4.42355e-08
-3.7075e-07
4.44597e-08
-3.82216e-07
4.47014e-08
-3.9374e-07
4.49612e-08
-4.05327e-07
4.52398e-08
-4.16981e-07
4.55376e-08
-4.28707e-07
4.58548e-08
-4.40508e-07
4.61912e-08
-4.52389e-07
4.65467e-08
-4.64354e-07
4.69208e-08
-4.76406e-07
4.7313e-08
-4.8855e-07
4.77224e-08
-5.00789e-07
4.81481e-08
-5.13126e-07
4.8589e-08
-5.25563e-07
4.90436e-08
-5.38103e-07
4.95104e-08
-5.50748e-07
4.99878e-08
-5.635e-07
5.04736e-08
-5.76358e-07
5.09659e-08
-5.89324e-07
5.14621e-08
-6.02396e-07
5.19597e-08
-6.15574e-07
5.24558e-08
-6.28856e-07
5.29474e-08
-6.42238e-07
5.3431e-08
-6.55716e-07
5.39031e-08
-6.69287e-07
5.43597e-08
-6.82943e-07
5.47967e-08
-6.96679e-07
5.52098e-08
-7.10485e-07
5.5594e-08
-7.24353e-07
5.59445e-08
-7.38271e-07
5.62558e-08
-7.52228e-07
5.65224e-08
-7.6621e-07
5.67383e-08
-7.80201e-07
5.68973e-08
-7.94186e-07
5.69928e-08
-8.08145e-07
5.70181e-08
-8.22059e-07
5.69659e-08
-8.35905e-07
5.6829e-08
-8.49661e-07
5.65997e-08
-8.633e-07
5.627e-08
-8.76795e-07
5.58319e-08
-8.90117e-07
5.52772e-08
-9.03235e-07
5.45972e-08
-9.16115e-07
5.37836e-08
-9.28721e-07
5.28274e-08
-9.41018e-07
5.17202e-08
-9.52965e-07
5.04531e-08
-9.64522e-07
4.90176e-08
-9.75645e-07
4.74051e-08
-9.8629e-07
4.56073e-08
-9.96411e-07
4.36163e-08
-1.00596e-06
4.14244e-08
-1.01489e-06
3.90244e-08
-1.02314e-06
3.64098e-08
-1.03067e-06
3.35745e-08
-1.03742e-06
3.05134e-08
-1.04334e-06
2.72222e-08
-1.04838e-06
2.36977e-08
-1.05247e-06
1.99376e-08
-1.05558e-06
1.59411e-08
-1.05763e-06
1.17089e-08
-1.05859e-06
7.24282e-09
-1.05839e-06
2.54679e-09
-1.05699e-06
-2.3737e-09
-1.05434e-06
-7.51116e-09
-1.0504e-06
-1.2856e-08
-1.04512e-06
-1.83966e-08
-1.03846e-06
-2.41189e-08
-1.03038e-06
-3.00066e-08
-1.02086e-06
-3.60408e-08
-1.00988e-06
-4.22003e-08
-9.97403e-07
-4.84613e-08
-9.83425e-07
-5.47973e-08
-9.67937e-07
-6.11795e-08
-9.5094e-07
-6.75764e-08
-9.3244e-07
-7.39544e-08
-9.12455e-07
-8.02774e-08
-8.91009e-07
-8.65072e-08
-8.68136e-07
-9.26037e-08
-8.43879e-07
-9.85253e-08
-8.18291e-07
-1.04229e-07
-7.91435e-07
-1.0967e-07
-7.63384e-07
-1.14804e-07
-7.3422e-07
-1.19585e-07
-7.04038e-07
-1.23969e-07
-6.72939e-07
-1.2791e-07
-6.41036e-07
-1.31366e-07
-6.08452e-07
-1.34295e-07
-5.75318e-07
-1.36657e-07
-5.41772e-07
-1.38415e-07
-5.07961e-07
-1.39536e-07
-4.74038e-07
-1.3999e-07
-4.40163e-07
-1.39751e-07
-4.06499e-07
-1.38798e-07
-3.73214e-07
-1.37117e-07
-3.40475e-07
-1.34698e-07
-3.08454e-07
-1.31537e-07
-2.77318e-07
-1.27638e-07
-2.47234e-07
-1.23012e-07
-2.18364e-07
-1.17676e-07
-1.90863e-07
-1.11656e-07
-1.64878e-07
-1.04988e-07
-1.40545e-07
-9.77144e-08
-1.17987e-07
-8.98904e-08
-9.73118e-08
-8.15818e-08
-7.86087e-08
-7.28679e-08
-6.19453e-08
-6.38443e-08
-4.73645e-08
-5.46257e-08
-3.48811e-08
-4.53511e-08
-2.44781e-08
-3.61893e-08
-1.6103e-08
-2.7347e-08
-9.66496e-09
-1.9079e-08
-5.03157e-09
-1.17013e-08
-2.02783e-09
-5.60409e-09
-4.36214e-10
-1.26957e-09
6.64391e-10
-1.26693e-10
-4.73777e-10
-6.2125e-10
-1.48811e-10
-1.57735e-09
1.12873e-09
-3.06836e-09
3.11433e-09
-5.14944e-09
5.61618e-09
-7.8592e-09
8.47509e-09
-1.12214e-08
1.15602e-08
-1.5247e-08
1.47658e-08
-1.99355e-08
1.80072e-08
-2.52771e-08
2.12178e-08
-3.12543e-08
2.43461e-08
-3.7843e-08
2.73531e-08
-4.50147e-08
3.02105e-08
-5.27369e-08
3.28987e-08
-6.0975e-08
3.54051e-08
-6.96928e-08
3.77233e-08
-7.88534e-08
3.98514e-08
-8.84202e-08
4.17914e-08
-9.83571e-08
4.35481e-08
-1.08629e-07
4.51289e-08
-1.19203e-07
4.65427e-08
-1.30046e-07
4.77999e-08
-1.41131e-07
4.89114e-08
-1.52428e-07
4.9889e-08
-1.63912e-07
5.07443e-08
-1.75561e-07
5.14894e-08
-1.87353e-07
5.21357e-08
-1.99271e-07
5.26948e-08
-2.11296e-07
5.31774e-08
-2.23416e-07
5.3594e-08
-2.35618e-07
5.39544e-08
-2.4789e-07
5.42677e-08
-2.60224e-07
5.45425e-08
-2.72613e-07
5.47867e-08
-2.85052e-07
5.50075e-08
-2.97535e-07
5.52116e-08
-3.1006e-07
5.54049e-08
-3.22625e-07
5.55929e-08
-3.35229e-07
5.57803e-08
-3.47872e-07
5.59714e-08
-3.60555e-07
5.617e-08
-3.73279e-07
5.63795e-08
-3.86047e-07
5.66027e-08
-3.98862e-07
5.6842e-08
-4.11726e-07
5.70996e-08
-4.24643e-07
5.73771e-08
-4.37618e-07
5.76758e-08
-4.50653e-07
5.79969e-08
-4.63755e-07
5.83411e-08
-4.76926e-07
5.87088e-08
-4.90171e-07
5.91003e-08
-5.03496e-07
5.95155e-08