/*--------------------------------*- C++ -*----------------------------------*\
  =========                 |
  \\      /  F ield         | OpenFOAM: The Open Source CFD Toolbox
   \\    /   O peration     | Website:  https://openfoam.org
    \\  /    A nd           | Version:  7
     \\/     M anipulation  |
\*---------------------------------------------------------------------------*/
FoamFile
{
    version     2.0;
    format      ascii;
    class       volVectorField;
    location    "0.4";
    object      U;
}
// * * * * * * * * * * * * * * * * * * * * * * * * * * * * * * * * * * * * * //

dimensions      [0 1 -1 0 0 0 0];

internalField   nonuniform List<vector> 
12800
(
(3.41006e-06 -3.12887e-06 0)
(1.82567e-05 -9.55915e-06 0)
(4.41857e-05 -1.19509e-05 0)
(7.04426e-05 -1.10776e-05 0)
(9.0591e-05 -8.42747e-06 0)
(0.000101166 -4.87728e-06 0)
(0.000100366 -9.32008e-07 0)
(8.73521e-05 3.11448e-06 0)
(6.19121e-05 7.0874e-06 0)
(2.42598e-05 1.08872e-05 0)
(-2.51443e-05 1.44499e-05 0)
(-8.5666e-05 1.7761e-05 0)
(-0.000156555 2.07978e-05 0)
(-0.000237028 2.35558e-05 0)
(-0.000326272 2.60413e-05 0)
(-0.000423477 2.82648e-05 0)
(-0.000527852 3.02385e-05 0)
(-0.000638638 3.19773e-05 0)
(-0.000755116 3.34984e-05 0)
(-0.00087661 3.48185e-05 0)
(-0.0010025 3.59558e-05 0)
(-0.00113221 3.69284e-05 0)
(-0.00126521 3.77539e-05 0)
(-0.00140105 3.84489e-05 0)
(-0.00153931 3.9029e-05 0)
(-0.00167961 3.95095e-05 0)
(-0.00182163 3.99039e-05 0)
(-0.00196509 4.02262e-05 0)
(-0.00210976 4.04891e-05 0)
(-0.00225544 4.07034e-05 0)
(-0.00240196 4.08786e-05 0)
(-0.00254919 4.10238e-05 0)
(-0.00269703 4.11476e-05 0)
(-0.00284541 4.12575e-05 0)
(-0.00299427 4.13606e-05 0)
(-0.00314359 4.14627e-05 0)
(-0.00329336 4.15684e-05 0)
(-0.00344358 4.16815e-05 0)
(-0.00359428 4.18061e-05 0)
(-0.00374549 4.19465e-05 0)
(-0.00389726 4.21056e-05 0)
(-0.00404964 4.22856e-05 0)
(-0.0042027 4.24882e-05 0)
(-0.00435651 4.27149e-05 0)
(-0.00451115 4.29671e-05 0)
(-0.0046667 4.32461e-05 0)
(-0.00482324 4.35529e-05 0)
(-0.00498087 4.38882e-05 0)
(-0.00513968 4.42524e-05 0)
(-0.00529975 4.46455e-05 0)
(-0.00546119 4.50677e-05 0)
(-0.00562408 4.55191e-05 0)
(-0.00578852 4.59995e-05 0)
(-0.0059546 4.65085e-05 0)
(-0.00612241 4.70454e-05 0)
(-0.00629205 4.76095e-05 0)
(-0.00646359 4.82005e-05 0)
(-0.00663711 4.88172e-05 0)
(-0.00681271 4.94587e-05 0)
(-0.00699044 5.01234e-05 0)
(-0.00717038 5.08099e-05 0)
(-0.0073526 5.15167e-05 0)
(-0.00753714 5.22418e-05 0)
(-0.00772406 5.29832e-05 0)
(-0.00791339 5.37385e-05 0)
(-0.00810518 5.45054e-05 0)
(-0.00829943 5.52811e-05 0)
(-0.00849617 5.60622e-05 0)
(-0.00869538 5.68454e-05 0)
(-0.00889706 5.76269e-05 0)
(-0.00910118 5.84028e-05 0)
(-0.00930768 5.91687e-05 0)
(-0.00951652 5.99198e-05 0)
(-0.00972762 6.06507e-05 0)
(-0.00994087 6.13559e-05 0)
(-0.0101562 6.20296e-05 0)
(-0.0103733 6.26654e-05 0)
(-0.0105923 6.32564e-05 0)
(-0.0108127 6.37952e-05 0)
(-0.0110346 6.42739e-05 0)
(-0.0112575 6.46845e-05 0)
(-0.0114812 6.50181e-05 0)
(-0.0117054 6.52657e-05 0)
(-0.0119299 6.54173e-05 0)
(-0.0121541 6.54629e-05 0)
(-0.0123778 6.53917e-05 0)
(-0.0126005 6.51928e-05 0)
(-0.0128216 6.48548e-05 0)
(-0.0130408 6.43658e-05 0)
(-0.0132573 6.37137e-05 0)
(-0.0134708 6.28859e-05 0)
(-0.0136804 6.18697e-05 0)
(-0.0138856 6.06523e-05 0)
(-0.0140856 5.92207e-05 0)
(-0.0142796 5.7562e-05 0)
(-0.0144669 5.56633e-05 0)
(-0.0146466 5.35118e-05 0)
(-0.0148179 5.10952e-05 0)
(-0.0149798 4.84017e-05 0)
(-0.0151313 4.54202e-05 0)
(-0.0152716 4.21404e-05 0)
(-0.0153995 3.85527e-05 0)
(-0.0155141 3.46489e-05 0)
(-0.0156144 3.04222e-05 0)
(-0.0156991 2.58676e-05 0)
(-0.0157673 2.09816e-05 0)
(-0.0158179 1.57632e-05 0)
(-0.0158498 1.02133e-05 0)
(-0.0158619 4.33558e-06 0)
(-0.0158533 -1.86286e-06 0)
(-0.0158229 -8.37282e-06 0)
(-0.0157697 -1.51812e-05 0)
(-0.0156929 -2.22713e-05 0)
(-0.0155916 -2.96229e-05 0)
(-0.015465 -3.72118e-05 0)
(-0.0153126 -4.50095e-05 0)
(-0.0151336 -5.29835e-05 0)
(-0.0149277 -6.1097e-05 0)
(-0.0146946 -6.93088e-05 0)
(-0.0144341 -7.75737e-05 0)
(-0.0141461 -8.58424e-05 0)
(-0.0138308 -9.40616e-05 0)
(-0.0134885 -0.000102174 0)
(-0.0131199 -0.00011012 0)
(-0.0127255 -0.000117835 0)
(-0.0123063 -0.000125255 0)
(-0.0118634 -0.000132312 0)
(-0.0113983 -0.000138937 0)
(-0.0109125 -0.000145062 0)
(-0.0104077 -0.000150619 0)
(-0.00988602 -0.000155538 0)
(-0.00934965 -0.000159756 0)
(-0.00880101 -0.000163211 0)
(-0.00824271 -0.000165844 0)
(-0.00767754 -0.000167602 0)
(-0.00710844 -0.000168437 0)
(-0.00653848 -0.000168307 0)
(-0.00597088 -0.000167178 0)
(-0.00540893 -0.000165024 0)
(-0.00485598 -0.000161825 0)
(-0.00431544 -0.000157571 0)
(-0.00379074 -0.00015226 0)
(-0.00328528 -0.000145897 0)
(-0.00280241 -0.000138497 0)
(-0.00234543 -0.000130082 0)
(-0.00191752 -0.000120681 0)
(-0.00152176 -0.000110329 0)
(-0.00116103 -9.90693e-05 0)
(-0.000838033 -8.69519e-05 0)
(-0.000555247 -7.4036e-05 0)
(-0.000314846 -6.03945e-05 0)
(-0.00011864 -4.61231e-05 0)
(3.20393e-05 -3.13599e-05 0)
(0.000136538 -1.6323e-05 0)
(0.000195209 -1.3914e-06 0)
(0.000209971 1.27373e-05 0)
(0.000185167 2.47794e-05 0)
(0.000129441 3.22616e-05 0)
(6.15499e-05 3.05799e-05 0)
(1.39091e-05 1.39299e-05 0)
(9.94619e-06 -1.83347e-05 0)
(4.21222e-05 -4.16232e-05 0)
(8.87504e-05 -4.79918e-05 0)
(0.00013141 -4.12158e-05 0)
(0.000157587 -2.60968e-05 0)
(0.000159865 -6.03056e-06 0)
(0.000133633 1.66943e-05 0)
(7.62859e-05 4.05411e-05 0)
(-1.32196e-05 6.44892e-05 0)
(-0.000134826 8.78677e-05 0)
(-0.00028773 0.000110229 0)
(-0.000470595 0.000131315 0)
(-0.000681731 0.00015095 0)
(-0.00091925 0.000169044 0)
(-0.00118114 0.000185573 0)
(-0.00146534 0.00020055 0)
(-0.00176982 0.000214016 0)
(-0.00209257 0.000226037 0)
(-0.00243168 0.000236694 0)
(-0.00278534 0.000246077 0)
(-0.00315185 0.000254283 0)
(-0.00352964 0.000261411 0)
(-0.00391728 0.000267562 0)
(-0.00431344 0.000272837 0)
(-0.00471695 0.000277331 0)
(-0.00512676 0.000281138 0)
(-0.00554194 0.000284347 0)
(-0.00596169 0.000287041 0)
(-0.00638531 0.000289299 0)
(-0.00681221 0.000291194 0)
(-0.00724189 0.000292792 0)
(-0.00767395 0.000294155 0)
(-0.00810808 0.000295338 0)
(-0.00854403 0.000296393 0)
(-0.00898162 0.000297364 0)
(-0.00942074 0.000298294 0)
(-0.00986133 0.000299216 0)
(-0.0103034 0.000300163 0)
(-0.0107469 0.000301163 0)
(-0.0111921 0.00030224 0)
(-0.0116389 0.000303415 0)
(-0.0120875 0.000304708 0)
(-0.0125381 0.000306132 0)
(-0.0129909 0.000307701 0)
(-0.013446 0.000309426 0)
(-0.0139037 0.000311314 0)
(-0.0143641 0.000313374 0)
(-0.0148277 0.00031561 0)
(-0.0152945 0.000318027 0)
(-0.0157648 0.000320625 0)
(-0.0162389 0.000323407 0)
(-0.0167171 0.000326372 0)
(-0.0171995 0.000329519 0)
(-0.0176864 0.000332845 0)
(-0.0181782 0.000336346 0)
(-0.0186749 0.000340018 0)
(-0.0191768 0.000343854 0)
(-0.0196842 0.000347847 0)
(-0.0201973 0.000351989 0)
(-0.0207162 0.00035627 0)
(-0.0212411 0.000360678 0)
(-0.0217722 0.000365201 0)
(-0.0223096 0.000369825 0)
(-0.0228534 0.000374533 0)
(-0.0234037 0.00037931 0)
(-0.0239606 0.000384137 0)
(-0.0245242 0.000388991 0)
(-0.0250943 0.000393851 0)
(-0.025671 0.00039869 0)
(-0.0262542 0.000403482 0)
(-0.0268438 0.000408198 0)
(-0.0274396 0.000412806 0)
(-0.0280414 0.000417271 0)
(-0.028649 0.000421556 0)
(-0.029262 0.000425623 0)
(-0.0298801 0.00042943 0)
(-0.0305027 0.000432931 0)
(-0.0311295 0.000436079 0)
(-0.0317598 0.000438823 0)
(-0.032393 0.000441109 0)
(-0.0330283 0.000442883 0)
(-0.033665 0.000444083 0)
(-0.0343021 0.000444648 0)
(-0.0349386 0.000444513 0)
(-0.0355734 0.00044361 0)
(-0.0362055 0.000441869 0)
(-0.0368334 0.000439218 0)
(-0.0374558 0.000435581 0)
(-0.0380712 0.000430881 0)
(-0.038678 0.000425041 0)
(-0.0392745 0.000417981 0)
(-0.0398589 0.000409619 0)
(-0.0404292 0.000399875 0)
(-0.0409835 0.000388669 0)
(-0.0415194 0.00037592 0)
(-0.0420349 0.000361549 0)
(-0.0425274 0.000345481 0)
(-0.0429947 0.000327642 0)
(-0.043434 0.000307963 0)
(-0.0438428 0.00028638 0)
(-0.0442184 0.000262836 0)
(-0.0445579 0.000237279 0)
(-0.0448586 0.000209668 0)
(-0.0451174 0.000179971 0)
(-0.0453316 0.000148166 0)
(-0.0454982 0.000114245 0)
(-0.0456142 7.82139e-05 0)
(-0.0456769 4.00942e-05 0)
(-0.0456832 -7.60555e-08 0)
(-0.0456306 -4.22396e-05 0)
(-0.0455163 -8.632e-05 0)
(-0.0453378 -0.00013222 0)
(-0.0450928 -0.000179818 0)
(-0.044779 -0.000228971 0)
(-0.0443946 -0.000279512 0)
(-0.0439378 -0.000331245 0)
(-0.0434074 -0.000383954 0)
(-0.0428021 -0.000437393 0)
(-0.0421213 -0.000491291 0)
(-0.0413647 -0.000545354 0)
(-0.0405325 -0.000599262 0)
(-0.0396251 -0.000652672 0)
(-0.0386438 -0.000705221 0)
(-0.03759 -0.000756526 0)
(-0.0364659 -0.000806188 0)
(-0.0352743 -0.000853795 0)
(-0.0340182 -0.000898926 0)
(-0.0327017 -0.000941153 0)
(-0.031329 -0.00098005 0)
(-0.0299053 -0.00101519 0)
(-0.028436 -0.00104616 0)
(-0.0269272 -0.00107257 0)
(-0.0253857 -0.00109402 0)
(-0.0238186 -0.00111016 0)
(-0.0222334 -0.00112067 0)
(-0.0206382 -0.00112526 0)
(-0.0190414 -0.00112368 0)
(-0.0174517 -0.00111571 0)
(-0.015878 -0.00110121 0)
(-0.0143294 -0.00108007 0)
(-0.0128151 -0.00105223 0)
(-0.0113444 -0.00101769 0)
(-0.00992638 -0.000976521 0)
(-0.00857013 -0.000928832 0)
(-0.00728444 -0.000874799 0)
(-0.00607782 -0.000814655 0)
(-0.00495836 -0.000748696 0)
(-0.00393363 -0.000677288 0)
(-0.00301058 -0.000600874 0)
(-0.00219538 -0.00052 0)
(-0.00149324 -0.000435349 0)
(-0.00090815 -0.000347807 0)
(-0.000442518 -0.000258577 0)
(-9.66365e-05 -0.000169368 0)
(0.000132118 -8.27337e-05 0)
(0.00025049 -2.62885e-06 0)
(0.000270826 6.46862e-05 0)
(0.000213567 0.000109175 0)
(0.000114749 0.000115001 0)
(3.03965e-05 6.14283e-05 0)
(1.21804e-05 -4.44203e-05 0)
(4.85104e-05 -8.85659e-05 0)
(9.57411e-05 -9.50864e-05 0)
(0.00013106 -7.35276e-05 0)
(0.000139323 -3.272e-05 0)
(0.000111074 2.04219e-05 0)
(3.99776e-05 8.07604e-05 0)
(-7.77748e-05 0.000144594 0)
(-0.000243948 0.000209304 0)
(-0.000458761 0.000273045 0)
(-0.000721299 0.000334549 0)
(-0.00102984 0.000392972 0)
(-0.00138208 0.000447762 0)
(-0.00177534 0.000498599 0)
(-0.00220674 0.000545332 0)
(-0.00267326 0.000587934 0)
(-0.00317187 0.000626473 0)
(-0.00369957 0.000661084 0)
(-0.00425347 0.000691953 0)
(-0.0048308 0.000719301 0)
(-0.00542894 0.000743373 0)
(-0.00604547 0.000764425 0)
(-0.00667813 0.000782723 0)
(-0.00732487 0.000798531 0)
(-0.00798384 0.00081211 0)
(-0.00865335 0.000823713 0)
(-0.00933193 0.000833585 0)
(-0.0100183 0.000841955 0)
(-0.0107113 0.000849042 0)
(-0.0114099 0.000855049 0)
(-0.0121134 0.000860164 0)
(-0.0128211 0.000864562 0)
(-0.0135325 0.0008684 0)
(-0.014247 0.000871824 0)
(-0.0149644 0.000874963 0)
(-0.0156846 0.000877935 0)
(-0.0164073 0.000880844 0)
(-0.0171325 0.000883784 0)
(-0.0178602 0.000886836 0)
(-0.0185905 0.000890072 0)
(-0.0193236 0.000893555 0)
(-0.0200597 0.000897338 0)
(-0.0207989 0.000901468 0)
(-0.0215416 0.000905983 0)
(-0.0222881 0.000910916 0)
(-0.0230386 0.000916293 0)
(-0.0237935 0.000922135 0)
(-0.0245531 0.000928459 0)
(-0.0253179 0.000935277 0)
(-0.0260882 0.000942594 0)
(-0.0268644 0.000950415 0)
(-0.0276468 0.000958738 0)
(-0.0284359 0.00096756 0)
(-0.029232 0.000976873 0)
(-0.0300355 0.000986665 0)
(-0.0308467 0.000996922 0)
(-0.031666 0.00100763 0)
(-0.0324937 0.00101875 0)
(-0.0333301 0.00103028 0)
(-0.0341755 0.00104217 0)
(-0.0350302 0.0010544 0)
(-0.0358943 0.00106692 0)
(-0.036768 0.0010797 0)
(-0.0376516 0.00109269 0)
(-0.0385451 0.00110583 0)
(-0.0394485 0.00111907 0)
(-0.040362 0.00113235 0)
(-0.0412854 0.00114559 0)
(-0.0422187 0.00115873 0)
(-0.0431616 0.00117168 0)
(-0.044114 0.00118436 0)
(-0.0450756 0.00119667 0)
(-0.046046 0.00120852 0)
(-0.0470247 0.00121979 0)
(-0.0480111 0.00123037 0)
(-0.0490047 0.00124014 0)
(-0.0500045 0.00124896 0)
(-0.0510099 0.00125671 0)
(-0.0520197 0.00126324 0)
(-0.053033 0.00126838 0)
(-0.0540484 0.00127198 0)
(-0.0550647 0.00127388 0)
(-0.0560803 0.00127388 0)
(-0.0570936 0.00127182 0)
(-0.0581028 0.00126749 0)
(-0.059106 0.0012607 0)
(-0.0601011 0.00125125 0)
(-0.0610858 0.00123892 0)
(-0.0620578 0.0012235 0)
(-0.0630144 0.00120477 0)
(-0.0639528 0.00118251 0)
(-0.0648702 0.00115651 0)
(-0.0657635 0.00112653 0)
(-0.0666294 0.00109235 0)
(-0.0674645 0.00105377 0)
(-0.0682653 0.00101056 0)
(-0.0690278 0.000962524 0)
(-0.0697484 0.000909468 0)
(-0.070423 0.00085121 0)
(-0.0710474 0.000787582 0)
(-0.0716174 0.000718438 0)
(-0.0721286 0.00064365 0)
(-0.0725766 0.000563118 0)
(-0.072957 0.00047677 0)
(-0.0732653 0.000384564 0)
(-0.0734969 0.000286498 0)
(-0.0736474 0.000182606 0)
(-0.0737123 7.29679e-05 0)
(-0.0736874 -4.22883e-05 0)
(-0.0735685 -0.000162984 0)
(-0.0733516 -0.000288885 0)
(-0.0730329 -0.0004197 0)
(-0.0726088 -0.000555074 0)
(-0.0720763 -0.00069459 0)
(-0.0714323 -0.000837761 0)
(-0.0706746 -0.000984037 0)
(-0.0698012 -0.00113279 0)
(-0.0688105 -0.00128334 0)
(-0.0677017 -0.00143492 0)
(-0.0664746 -0.0015867 0)
(-0.0651295 -0.0017378 0)
(-0.0636676 -0.00188726 0)
(-0.0620907 -0.00203407 0)
(-0.0604015 -0.00217718 0)
(-0.0586033 -0.00231549 0)
(-0.0567006 -0.00244786 0)
(-0.0546986 -0.00257315 0)
(-0.0526032 -0.00269019 0)
(-0.0504214 -0.00279781 0)
(-0.0481611 -0.00289484 0)
(-0.045831 -0.00298018 0)
(-0.0434405 -0.00305271 0)
(-0.0409999 -0.00311142 0)
(-0.0385204 -0.00315534 0)
(-0.0360136 -0.00318359 0)
(-0.0334921 -0.00319538 0)
(-0.0309686 -0.00319003 0)
(-0.0284565 -0.00316701 0)
(-0.0259697 -0.00312589 0)
(-0.023522 -0.00306639 0)
(-0.0211276 -0.00298839 0)
(-0.0188007 -0.00289193 0)
(-0.0165552 -0.00277718 0)
(-0.014405 -0.00264452 0)
(-0.0123634 -0.00249447 0)
(-0.0104435 -0.00232776 0)
(-0.0086573 -0.0021453 0)
(-0.00701622 -0.00194821 0)
(-0.00553052 -0.0017379 0)
(-0.00420916 -0.00151609 0)
(-0.00305946 -0.00128492 0)
(-0.00208673 -0.00104716 0)
(-0.00129372 -0.00080644 0)
(-0.000679899 -0.000567713 0)
(-0.000240426 -0.000337914 0)
(3.51923e-05 -0.000126983 0)
(0.000164619 5.06275e-05 0)
(0.00017482 0.000174057 0)
(0.000109027 0.000213714 0)
(3.1951e-05 0.000128908 0)
(1.13692e-05 -7.12158e-05 0)
(4.2001e-05 -0.000131717 0)
(7.45691e-05 -0.000130567 0)
(8.50985e-05 -8.41951e-05 0)
(5.74748e-05 -5.94887e-06 0)
(-1.87141e-05 9.3443e-05 0)
(-0.000150614 0.000205701 0)
(-0.00034267 0.000324613 0)
(-0.00059706 0.000445588 0)
(-0.000914172 0.000565293 0)
(-0.00129303 0.000681345 0)
(-0.00173164 0.000792087 0)
(-0.00222728 0.000896411 0)
(-0.0027767 0.000993631 0)
(-0.00337633 0.00108338 0)
(-0.00402242 0.00116553 0)
(-0.00471115 0.00124015 0)
(-0.00543872 0.00130744 0)
(-0.00620143 0.0013677 0)
(-0.0069957 0.00142132 0)
(-0.00781817 0.00146871 0)
(-0.00866564 0.00151035 0)
(-0.00953518 0.0015467 0)
(-0.0104241 0.00157827 0)
(-0.0113299 0.00160553 0)
(-0.0122503 0.00162895 0)
(-0.0131834 0.00164899 0)
(-0.0141275 0.00166609 0)
(-0.0150809 0.00168065 0)
(-0.0160424 0.00169307 0)
(-0.0170109 0.0017037 0)
(-0.0179854 0.00171288 0)
(-0.0189651 0.00172092 0)
(-0.0199494 0.00172809 0)
(-0.020938 0.00173464 0)
(-0.0219303 0.00174081 0)
(-0.0229264 0.0017468 0)
(-0.0239259 0.00175279 0)
(-0.024929 0.00175894 0)
(-0.0259357 0.0017654 0)
(-0.0269462 0.00177229 0)
(-0.0279606 0.00177971 0)
(-0.0289793 0.00178776 0)
(-0.0300026 0.00179652 0)
(-0.0310309 0.00180605 0)
(-0.0320645 0.0018164 0)
(-0.0331039 0.00182762 0)
(-0.0341496 0.00183974 0)
(-0.0352019 0.00185278 0)
(-0.0362615 0.00186676 0)
(-0.0373287 0.00188169 0)
(-0.038404 0.00189755 0)
(-0.0394881 0.00191436 0)
(-0.0405812 0.00193208 0)
(-0.0416839 0.0019507 0)
(-0.0427967 0.00197018 0)
(-0.0439199 0.0019905 0)
(-0.045054 0.0020116 0)
(-0.0461993 0.00203343 0)
(-0.0473563 0.00205593 0)
(-0.0485251 0.00207903 0)
(-0.0497061 0.00210266 0)
(-0.0508994 0.00212673 0)
(-0.0521054 0.00215115 0)
(-0.0533239 0.00217582 0)
(-0.0545552 0.00220061 0)
(-0.0557991 0.0022254 0)
(-0.0570555 0.00225007 0)
(-0.0583244 0.00227445 0)
(-0.0596054 0.0022984 0)
(-0.0608981 0.00232173 0)
(-0.0622021 0.00234427 0)
(-0.0635167 0.00236581 0)
(-0.0648414 0.00238615 0)
(-0.0661753 0.00240506 0)
(-0.0675175 0.0024223 0)
(-0.0688668 0.00243761 0)
(-0.0702221 0.00245073 0)
(-0.071582 0.00246137 0)
(-0.0729448 0.00246924 0)
(-0.074309 0.00247401 0)
(-0.0756727 0.00247536 0)
(-0.0770336 0.00247296 0)
(-0.0783898 0.00246643 0)
(-0.0797385 0.00245542 0)
(-0.0810773 0.00243955 0)
(-0.0824032 0.00241843 0)
(-0.0837132 0.00239164 0)
(-0.085004 0.0023588 0)
(-0.0862721 0.00231948 0)
(-0.0875138 0.00227327 0)
(-0.0887251 0.00221975 0)
(-0.089902 0.0021585 0)
(-0.0910399 0.00208911 0)
(-0.0921345 0.00201118 0)
(-0.0931808 0.00192431 0)
(-0.094174 0.00182813 0)
(-0.0951088 0.00172228 0)
(-0.09598 0.00160644 0)
(-0.0967822 0.00148031 0)
(-0.0975097 0.00134363 0)
(-0.0981569 0.00119617 0)
(-0.0987179 0.00103777 0)
(-0.099187 0.000868322 0)
(-0.0995583 0.000687769 0)
(-0.099826 0.000496132 0)
(-0.0999842 0.000293508 0)
(-0.100027 8.0075e-05 0)
(-0.0999501 -0.000143894 0)
(-0.0997468 -0.000378032 0)
(-0.0994126 -0.000621866 0)
(-0.0989425 -0.000874812 0)
(-0.0983323 -0.00113617 0)
(-0.0975779 -0.00140513 0)
(-0.0966759 -0.00168074 0)
(-0.0956232 -0.00196193 0)
(-0.0944175 -0.00224752 0)
(-0.0930572 -0.00253616 0)
(-0.0915413 -0.00282641 0)
(-0.0898698 -0.00311669 0)
(-0.0880433 -0.00340532 0)
(-0.0860636 -0.00369049 0)
(-0.0839333 -0.00397029 0)
(-0.0816561 -0.00424274 0)
(-0.0792366 -0.00450576 0)
(-0.0766807 -0.00475723 0)
(-0.0739952 -0.00499498 0)
(-0.0711883 -0.00521683 0)
(-0.0682691 -0.00542058 0)
(-0.0652479 -0.00560408 0)
(-0.0621361 -0.00576522 0)
(-0.0589461 -0.00590198 0)
(-0.0556913 -0.00601241 0)
(-0.0523863 -0.00609473 0)
(-0.0490462 -0.00614729 0)
(-0.0456873 -0.00616864 0)
(-0.0423261 -0.00615754 0)
(-0.0389802 -0.00611295 0)
(-0.0356673 -0.00603413 0)
(-0.0324055 -0.00592057 0)
(-0.0292131 -0.00577205 0)
(-0.0261084 -0.00558868 0)
(-0.0231094 -0.00537086 0)
(-0.0202339 -0.00511932 0)
(-0.0174993 -0.00483515 0)
(-0.014922 -0.00451979 0)
(-0.0125175 -0.00417508 0)
(-0.0103003 -0.00380334 0)
(-0.00828325 -0.00340737 0)
(-0.00647745 -0.00299067 0)
(-0.00489179 -0.00255756 0)
(-0.0035325 -0.0021135 0)
(-0.00240248 -0.00166553 0)
(-0.00150055 -0.0012229 0)
(-0.000820391 -0.000798092 0)
(-0.000349311 -0.00040811 0)
(-6.688e-05 -7.64308e-05 0)
(5.68196e-05 0.000164841 0)
(6.63223e-05 0.000272272 0)
(2.463e-05 0.000184497 0)
(8.804e-06 -9.18853e-05 0)
(2.69815e-05 -0.00015839 0)
(3.34573e-05 -0.000138833 0)
(5.75778e-06 -5.64417e-05 0)
(-7.1855e-05 7.08e-05 0)
(-0.000209952 0.000228388 0)
(-0.000415843 0.000404885 0)
(-0.000694108 0.000591487 0)
(-0.00104701 0.000781513 0)
(-0.00147492 0.00096998 0)
(-0.00197675 0.00115323 0)
(-0.00255026 0.00132865 0)
(-0.00319236 0.00149445 0)
(-0.00389935 0.00164947 0)
(-0.00466714 0.00179305 0)
(-0.00549138 0.0019249 0)
(-0.00636762 0.00204506 0)
(-0.0072914 0.00215377 0)
(-0.00825834 0.00225145 0)
(-0.00926421 0.00233865 0)
(-0.010305 0.002416 0)
(-0.0113768 0.0024842 0)
(-0.0124762 0.00254398 0)
(-0.0135999 0.00259608 0)
(-0.0147448 0.00264126 0)
(-0.0159083 0.00268024 0)
(-0.0170879 0.00271375 0)
(-0.0182814 0.00274246 0)
(-0.0194869 0.00276703 0)
(-0.0207029 0.00278807 0)
(-0.0219278 0.00280616 0)
(-0.0231605 0.00282182 0)
(-0.0244 0.00283556 0)
(-0.0256455 0.00284781 0)
(-0.0268964 0.00285898 0)
(-0.0281523 0.00286945 0)
(-0.0294129 0.00287954 0)
(-0.0306779 0.00288956 0)
(-0.0319474 0.00289977 0)
(-0.0332214 0.00291039 0)
(-0.0345001 0.00292164 0)
(-0.0357836 0.00293369 0)
(-0.0370723 0.00294669 0)
(-0.0383666 0.00296076 0)
(-0.0396669 0.00297603 0)
(-0.0409736 0.00299257 0)
(-0.0422873 0.00301046 0)
(-0.0436084 0.00302976 0)
(-0.0449375 0.0030505 0)
(-0.0462752 0.0030727 0)
(-0.0476221 0.00309638 0)
(-0.0489786 0.00312154 0)
(-0.0503454 0.00314816 0)
(-0.0517231 0.00317621 0)
(-0.0531121 0.00320566 0)
(-0.0545131 0.00323646 0)
(-0.0559264 0.00326854 0)
(-0.0573526 0.00330183 0)
(-0.058792 0.00333624 0)
(-0.0602452 0.00337166 0)
(-0.0617123 0.003408 0)
(-0.0631937 0.00344511 0)
(-0.0646897 0.00348286 0)
(-0.0662003 0.00352108 0)
(-0.0677256 0.00355961 0)
(-0.0692657 0.00359826 0)
(-0.0708205 0.00363681 0)
(-0.0723897 0.00367505 0)
(-0.0739731 0.00371273 0)
(-0.0755703 0.00374959 0)
(-0.0771807 0.00378534 0)
(-0.0788038 0.00381968 0)
(-0.0804388 0.00385229 0)
(-0.0820846 0.00388281 0)
(-0.0837403 0.0039109 0)
(-0.0854046 0.00393614 0)
(-0.0870761 0.00395813 0)
(-0.0887532 0.00397643 0)
(-0.0904341 0.00399058 0)
(-0.0921169 0.0040001 0)
(-0.0937993 0.00400448 0)
(-0.095479 0.00400319 0)
(-0.0971534 0.00399568 0)
(-0.0988195 0.00398139 0)
(-0.100474 0.00395973 0)
(-0.102115 0.00393008 0)
(-0.103737 0.00389183 0)
(-0.105337 0.00384435 0)
(-0.106911 0.00378698 0)
(-0.108454 0.00371907 0)
(-0.109962 0.00363998 0)
(-0.111431 0.00354904 0)
(-0.112854 0.0034456 0)
(-0.114228 0.00332901 0)
(-0.115545 0.00319866 0)
(-0.1168 0.00305394 0)
(-0.117987 0.00289427 0)
(-0.119101 0.00271911 0)
(-0.120134 0.00252796 0)
(-0.12108 0.00232038 0)
(-0.121931 0.00209599 0)
(-0.122683 0.00185446 0)
(-0.123326 0.00159558 0)
(-0.123855 0.00131918 0)
(-0.124263 0.00102524 0)
(-0.124542 0.00071381 0)
(-0.124685 0.000385096 0)
(-0.124687 3.94186e-05 0)
(-0.12454 -0.000322753 0)
(-0.124238 -0.000700794 0)
(-0.123775 -0.00109392 0)
(-0.123147 -0.00150117 0)
(-0.122347 -0.0019214 0)
(-0.121371 -0.00235328 0)
(-0.120215 -0.00279529 0)
(-0.118876 -0.00324572 0)
(-0.117351 -0.00370264 0)
(-0.115638 -0.00416394 0)
(-0.113737 -0.00462731 0)
(-0.111648 -0.00509026 0)
(-0.109372 -0.0055501 0)
(-0.106911 -0.00600398 0)
(-0.104269 -0.00644892 0)
(-0.101449 -0.00688176 0)
(-0.0984585 -0.00729927 0)
(-0.0953041 -0.0076981 0)
(-0.0919942 -0.00807487 0)
(-0.0885385 -0.00842613 0)
(-0.0849483 -0.00874849 0)
(-0.0812358 -0.00903855 0)
(-0.0774149 -0.00929303 0)
(-0.0735004 -0.00950876 0)
(-0.0695084 -0.00968273 0)
(-0.0654564 -0.00981214 0)
(-0.0613625 -0.00989443 0)
(-0.0572459 -0.00992735 0)
(-0.0531267 -0.00990895 0)
(-0.0490256 -0.00983765 0)
(-0.0449638 -0.00971227 0)
(-0.0409629 -0.00953207 0)
(-0.0370447 -0.00929675 0)
(-0.0332308 -0.00900649 0)
(-0.0295429 -0.00866199 0)
(-0.026002 -0.00826449 0)
(-0.0226286 -0.00781577 0)
(-0.0194423 -0.00731823 0)
(-0.0164613 -0.00677495 0)
(-0.0137025 -0.00618971 0)
(-0.0111809 -0.00556719 0)
(-0.00890954 -0.00491312 0)
(-0.00689844 -0.00423452 0)
(-0.00515466 -0.00354017 0)
(-0.00368139 -0.00284112 0)
(-0.00247725 -0.00215154 0)
(-0.00153536 -0.00148987 0)
(-0.000842278 -0.000880403 0)
(-0.000376874 -0.000355411 0)
(-0.000108844 4.25279e-05 0)
(3.34545e-06 0.000257453 0)
(1.3228e-05 0.000210573 0)
(5.28619e-06 -0.000103017 0)
(6.56328e-06 -0.000160715 0)
(-2.13551e-05 -0.000109514 0)
(-9.74818e-05 2.14219e-05 0)
(-0.000236084 0.000209764 0)
(-0.000447272 0.000437408 0)
(-0.000737993 0.000689874 0)
(-0.00111254 0.000955813 0)
(-0.00157294 0.00122645 0)
(-0.00211936 0.0014951 0)
(-0.00275047 0.00175675 0)
(-0.00346373 0.00200777 0)
(-0.00425572 0.00224558 0)
(-0.00512233 0.00246849 0)
(-0.006059 0.00267548 0)
(-0.00706091 0.00286608 0)
(-0.00812306 0.00304024 0)
(-0.00924044 0.00319823 0)
(-0.0104081 0.00334058 0)
(-0.0116213 0.00346802 0)
(-0.0128754 0.0035814 0)
(-0.0141661 0.00368166 0)
(-0.0154893 0.00376982 0)
(-0.0168412 0.0038469 0)
(-0.0182184 0.00391396 0)
(-0.0196177 0.00397203 0)
(-0.0210363 0.00402211 0)
(-0.0224715 0.00406518 0)
(-0.0239213 0.00410217 0)
(-0.0253836 0.00413395 0)
(-0.0268568 0.00416134 0)
(-0.0283394 0.00418511 0)
(-0.0298303 0.00420597 0)
(-0.0313284 0.00422457 0)
(-0.0328331 0.0042415 0)
(-0.0343438 0.00425729 0)
(-0.0358601 0.00427244 0)
(-0.0373816 0.00428737 0)
(-0.0389085 0.00430247 0)
(-0.0404405 0.00431809 0)
(-0.041978 0.00433452 0)
(-0.0435211 0.00435203 0)
(-0.0450701 0.00437083 0)
(-0.0466255 0.00439113 0)
(-0.0481876 0.00441307 0)
(-0.0497571 0.0044368 0)
(-0.0513344 0.00446243 0)
(-0.0529201 0.00449002 0)
(-0.0545148 0.00451964 0)
(-0.0561191 0.00455133 0)
(-0.0577338 0.00458511 0)
(-0.0593593 0.00462096 0)
(-0.0609964 0.00465887 0)
(-0.0626457 0.0046988 0)
(-0.0643077 0.0047407 0)
(-0.065983 0.00478448 0)
(-0.0676722 0.00483004 0)
(-0.0693758 0.00487728 0)
(-0.0710942 0.00492607 0)
(-0.0728279 0.00497625 0)
(-0.0745771 0.00502765 0)
(-0.0763422 0.00508008 0)
(-0.0781234 0.00513332 0)
(-0.0799208 0.00518715 0)
(-0.0817344 0.0052413 0)
(-0.0835642 0.00529549 0)
(-0.08541 0.00534941 0)
(-0.0872715 0.00540273 0)
(-0.0891483 0.00545508 0)
(-0.0910399 0.00550608 0)
(-0.0929456 0.00555531 0)
(-0.0948645 0.00560232 0)
(-0.0967957 0.00564664 0)
(-0.0987381 0.00568774 0)
(-0.10069 0.0057251 0)
(-0.10265 0.00575815 0)
(-0.104617 0.00578626 0)
(-0.106589 0.00580881 0)
(-0.108562 0.00582513 0)
(-0.110536 0.00583451 0)
(-0.112507 0.00583621 0)
(-0.114472 0.00582948 0)
(-0.116429 0.00581352 0)
(-0.118374 0.00578751 0)
(-0.120302 0.00575059 0)
(-0.122212 0.00570191 0)
(-0.124097 0.00564056 0)
(-0.125953 0.00556565 0)
(-0.127776 0.00547624 0)
(-0.129561 0.00537143 0)
(-0.131302 0.00525026 0)
(-0.132993 0.00511182 0)
(-0.134629 0.00495519 0)
(-0.136203 0.00477946 0)
(-0.137709 0.00458376 0)
(-0.139139 0.00436726 0)
(-0.140488 0.00412915 0)
(-0.141748 0.00386869 0)
(-0.142911 0.00358521 0)
(-0.143969 0.00327809 0)
(-0.144916 0.00294685 0)
(-0.145743 0.00259106 0)
(-0.146443 0.00221044 0)
(-0.147007 0.00180483 0)
(-0.147427 0.00137421 0)
(-0.147697 0.000918753 0)
(-0.147807 0.000438766 0)
(-0.147751 -6.52316e-05 0)
(-0.147521 -0.000592517 0)
(-0.147111 -0.00114215 0)
(-0.146513 -0.00171296 0)
(-0.145722 -0.00230352 0)
(-0.144732 -0.00291217 0)
(-0.143537 -0.00353696 0)
(-0.142135 -0.0041757 0)
(-0.14052 -0.00482589 0)
(-0.138691 -0.00548478 0)
(-0.136646 -0.00614933 0)
(-0.134384 -0.00681623 0)
(-0.131905 -0.00748191 0)
(-0.129211 -0.00814257 0)
(-0.126305 -0.00879413 0)
(-0.12319 -0.00943235 0)
(-0.119873 -0.0100528 0)
(-0.116359 -0.0106508 0)
(-0.112658 -0.0112217 0)
(-0.108779 -0.0117606 0)
(-0.104734 -0.0122628 0)
(-0.100534 -0.0127234 0)
(-0.0961945 -0.0131376 0)
(-0.091731 -0.0135008 0)
(-0.0871605 -0.0138086 0)
(-0.0825014 -0.0140566 0)
(-0.0777732 -0.0142409 0)
(-0.0729968 -0.014358 0)
(-0.0681941 -0.0144046 0)
(-0.0633878 -0.0143781 0)
(-0.0586014 -0.0142761 0)
(-0.053859 -0.0140971 0)
(-0.0491851 -0.01384 0)
(-0.0446044 -0.0135044 0)
(-0.0401415 -0.0130907 0)
(-0.035821 -0.0125999 0)
(-0.0316667 -0.0120338 0)
(-0.0277017 -0.0113951 0)
(-0.0239481 -0.0106874 0)
(-0.0204266 -0.0099151 0)
(-0.0171561 -0.00908385 0)
(-0.0141536 -0.00820048 0)
(-0.0114335 -0.00727333 0)
(-0.0090071 -0.00631256 0)
(-0.00688233 -0.00533063 0)
(-0.00506299 -0.00434297 0)
(-0.00354805 -0.00336892 0)
(-0.00233097 -0.00243298 0)
(-0.00139886 -0.00156648 0)
(-0.000731493 -0.000809795 0)
(-0.000300183 -0.000214706 0)
(-6.93789e-05 0.000152396 0)
(3.19427e-07 0.000200013 0)
(1.26793e-06 -0.000102513 0)
(-1.72213e-05 -0.000133204 0)
(-8.5382e-05 -3.48995e-05 0)
(-0.000217503 0.000158433 0)
(-0.000425563 0.000420634 0)
(-0.000718698 0.000730309 0)
(-0.00110306 0.00107016 0)
(-0.00158229 0.00142644 0)
(-0.00215791 0.00178834 0)
(-0.00282966 0.0021475 0)
(-0.00359582 0.00249758 0)
(-0.00445349 0.00283386 0)
(-0.00539885 0.00315299 0)
(-0.00642739 0.00345269 0)
(-0.00753415 0.00373154 0)
(-0.00871384 0.00398885 0)
(-0.009961 0.00422448 0)
(-0.0112702 0.00443872 0)
(-0.0126359 0.0046322 0)
(-0.014053 0.00480581 0)
(-0.0155163 0.00496065 0)
(-0.017021 0.00509791 0)
(-0.0185627 0.00521891 0)
(-0.0201371 0.005325 0)
(-0.0217403 0.00541754 0)
(-0.0233688 0.00549789 0)
(-0.0250193 0.00556738 0)
(-0.0266892 0.00562731 0)
(-0.0283757 0.00567892 0)
(-0.0300766 0.00572336 0)
(-0.0317902 0.00576174 0)
(-0.0335146 0.0057951 0)
(-0.0352486 0.00582438 0)
(-0.0369909 0.00585046 0)
(-0.0387408 0.00587414 0)
(-0.0404975 0.00589615 0)
(-0.0422605 0.00591716 0)
(-0.0440295 0.00593774 0)
(-0.0458044 0.00595844 0)
(-0.0475851 0.00597972 0)
(-0.0493718 0.00600198 0)
(-0.0511646 0.0060256 0)
(-0.0529639 0.00605087 0)
(-0.0547701 0.00607806 0)
(-0.0565837 0.0061074 0)
(-0.0584051 0.00613907 0)
(-0.060235 0.00617321 0)
(-0.062074 0.00620995 0)
(-0.0639228 0.00624935 0)
(-0.0657819 0.00629147 0)
(-0.0676521 0.00633634 0)
(-0.0695341 0.00638395 0)
(-0.0714285 0.00643426 0)
(-0.073336 0.00648723 0)
(-0.0752572 0.00654276 0)
(-0.0771928 0.00660076 0)
(-0.0791433 0.00666108 0)
(-0.0811092 0.00672358 0)
(-0.083091 0.00678805 0)
(-0.0850892 0.0068543 0)
(-0.0871039 0.00692208 0)
(-0.0891356 0.00699113 0)
(-0.0911844 0.00706114 0)
(-0.0932503 0.00713179 0)
(-0.0953334 0.00720272 0)
(-0.0974335 0.00727354 0)
(-0.0995504 0.00734381 0)
(-0.101684 0.00741308 0)
(-0.103833 0.00748085 0)
(-0.105997 0.00754657 0)
(-0.108175 0.00760967 0)
(-0.110367 0.00766954 0)
(-0.11257 0.00772552 0)
(-0.114785 0.00777692 0)
(-0.117008 0.00782298 0)
(-0.119239 0.00786293 0)
(-0.121474 0.00789594 0)
(-0.123713 0.00792114 0)
(-0.125952 0.00793762 0)
(-0.128188 0.00794443 0)
(-0.130419 0.00794058 0)
(-0.13264 0.00792502 0)
(-0.134849 0.00789668 0)
(-0.137042 0.00785447 0)
(-0.139214 0.00779724 0)
(-0.141361 0.00772383 0)
(-0.143477 0.00763305 0)
(-0.145558 0.00752368 0)
(-0.147599 0.0073945 0)
(-0.149592 0.00724428 0)
(-0.151533 0.00707179 0)
(-0.153415 0.0068758 0)
(-0.155232 0.00665511 0)
(-0.156975 0.00640854 0)
(-0.158638 0.00613494 0)
(-0.160214 0.00583322 0)
(-0.161694 0.00550236 0)
(-0.16307 0.0051414 0)
(-0.164335 0.00474948 0)
(-0.165479 0.00432584 0)
(-0.166495 0.00386985 0)
(-0.167374 0.00338103 0)
(-0.168107 0.00285905 0)
(-0.168685 0.00230375 0)
(-0.1691 0.00171518 0)
(-0.169343 0.0010936 0)
(-0.169405 0.000439508 0)
(-0.16928 -0.00024635 0)
(-0.168958 -0.000962945 0)
(-0.168432 -0.00170896 0)
(-0.167695 -0.00248279 0)
(-0.166741 -0.00328246 0)
(-0.165564 -0.00410571 0)
(-0.164158 -0.00494991 0)
(-0.162518 -0.00581208 0)
(-0.160642 -0.00668886 0)
(-0.158526 -0.00757656 0)
(-0.156169 -0.0084711 0)
(-0.15357 -0.00936808 0)
(-0.15073 -0.0102627 0)
(-0.14765 -0.01115 0)
(-0.144335 -0.0120244 0)
(-0.140788 -0.0128803 0)
(-0.137015 -0.0137119 0)
(-0.133025 -0.0145131 0)
(-0.128827 -0.0152775 0)
(-0.124431 -0.0159989 0)
(-0.119851 -0.0166708 0)
(-0.115099 -0.0172868 0)
(-0.110192 -0.0178407 0)
(-0.105148 -0.0183263 0)
(-0.0999836 -0.0187377 0)
(-0.0947208 -0.0190693 0)
(-0.0893806 -0.019316 0)
(-0.0839861 -0.0194728 0)
(-0.0785612 -0.0195357 0)
(-0.073131 -0.019501 0)
(-0.0677213 -0.0193658 0)