/*--------------------------------*- C++ -*----------------------------------*\
  =========                 |
  \\      /  F ield         | OpenFOAM: The Open Source CFD Toolbox
   \\    /   O peration     | Website:  https://openfoam.org
    \\  /    A nd           | Version:  7
     \\/     M anipulation  |
\*---------------------------------------------------------------------------*/
FoamFile
{
    version     2.0;
    format      ascii;
    class       surfaceScalarField;
    location    "0.05";
    object      phi;
}
// * * * * * * * * * * * * * * * * * * * * * * * * * * * * * * * * * * * * * //

dimensions      [0 3 -1 0 0 0 0];

internalField   nonuniform List<scalar> 
101920
(
1.85905e-11
-1.85764e-11
2.60825e-10
-2.42231e-10
8.43782e-10
-5.8296e-10
1.63547e-09
-7.91688e-10
2.50579e-09
-8.70323e-10
3.37583e-09
-8.70031e-10
4.18994e-09
-8.1412e-10
4.91039e-09
-7.20443e-10
5.50921e-09
-5.98823e-10
5.97406e-09
-4.64853e-10
6.3013e-09
-3.27241e-10
6.49244e-09
-1.91138e-10
6.55105e-09
-5.86107e-11
6.49402e-09
5.70267e-11
6.33434e-09
1.59688e-10
6.08864e-09
2.45696e-10
5.77599e-09
3.12651e-10
5.41354e-09
3.62444e-10
5.01255e-09
4.00991e-10
4.58723e-09
4.25323e-10
4.15151e-09
4.35717e-10
3.71732e-09
4.34191e-10
3.29886e-09
4.18453e-10
2.9004e-09
3.98466e-10
2.53122e-09
3.69172e-10
2.19403e-09
3.37199e-10
1.89452e-09
2.99509e-10
1.63272e-09
2.618e-10
1.40736e-09
2.25373e-10
1.21719e-09
1.90164e-10
1.05918e-09
1.58004e-10
9.31665e-10
1.27517e-10
8.32439e-10
9.92232e-11
7.61579e-10
7.08543e-11
7.11182e-10
5.03985e-11
6.81317e-10
2.98659e-11
6.65978e-10
1.53389e-11
6.64614e-10
1.36249e-12
6.73061e-10
-8.44603e-12
6.88019e-10
-1.49587e-11
7.08879e-10
-2.08586e-11
7.33862e-10
-2.49821e-11
7.62227e-10
-2.83641e-11
7.92436e-10
-3.02067e-11
8.25246e-10
-3.2808e-11
8.58574e-10
-3.33276e-11
8.90846e-10
-3.22685e-11
9.21973e-10
-3.11257e-11
9.51905e-10
-2.99299e-11
9.8013e-10
-2.82246e-11
1.00683e-09
-2.66992e-11
1.0331e-09
-2.62756e-11
1.05823e-09
-2.5124e-11
1.08196e-09
-2.37358e-11
1.10529e-09
-2.33229e-11
1.12762e-09
-2.23291e-11
1.14753e-09
-1.99117e-11
1.16458e-09
-1.70542e-11
1.17882e-09
-1.42383e-11
1.1891e-09
-1.02844e-11
1.19584e-09
-6.74073e-12
1.2008e-09
-4.96428e-12
1.20369e-09
-2.88269e-12
1.20348e-09
2.03168e-13
1.20058e-09
2.90374e-12
1.19522e-09
5.35998e-12
1.18611e-09
9.1047e-12
1.1727e-09
1.34098e-11
1.15593e-09
1.67748e-11
1.13656e-09
1.93685e-11
1.11447e-09
2.20985e-11
1.09014e-09
2.43226e-11
1.06503e-09
2.51198e-11
1.03879e-09
2.62396e-11
1.01059e-09
2.81895e-11
9.80923e-10
2.96692e-11
9.50604e-10
3.03178e-11
9.20066e-10
3.05371e-11
8.89088e-10
3.09763e-11
8.5815e-10
3.09383e-11
8.28246e-10
2.99045e-11
7.99216e-10
2.90291e-11
7.70091e-10
2.91267e-11
7.40234e-10
2.98597e-11
7.10304e-10
2.99304e-11
6.81098e-10
2.92059e-11
6.52476e-10
2.86227e-11
6.25322e-10
2.7154e-11
6.01908e-10
2.34123e-11
5.83767e-10
1.81411e-11
5.71073e-10
1.26953e-11
5.63782e-10
7.29157e-12
5.62231e-10
1.55074e-12
5.65997e-10
-3.76443e-12
5.73368e-10
-7.36862e-12
5.82797e-10
-9.42956e-12
5.93779e-10
-1.09831e-11
6.0612e-10
-1.23433e-11
6.19123e-10
-1.30051e-11
6.31873e-10
-1.27511e-11
6.43922e-10
-1.20485e-11
6.54837e-10
-1.09121e-11
6.63677e-10
-8.83951e-12
6.69441e-10
-5.76512e-12
6.71253e-10
-1.81256e-12
6.68593e-10
2.66045e-12
6.61785e-10
6.80855e-12
6.51635e-10
1.01496e-11
6.39243e-10
1.23919e-11
6.26257e-10
1.2985e-11
6.1406e-10
1.21954e-11
6.03191e-10
1.08684e-11
5.93766e-10
9.42568e-12
5.84936e-10
8.82974e-12
5.74661e-10
1.02738e-11
5.61259e-10
1.33998e-11
5.43725e-10
1.75336e-11
5.20679e-10
2.30475e-11
4.91303e-10
2.93774e-11
4.56351e-10
3.49523e-11
4.17109e-10
3.92419e-11
3.751e-10
4.20087e-11
3.32574e-10
4.25246e-11
2.91326e-10
4.12472e-11
2.52127e-10
3.91992e-11
2.16166e-10
3.59601e-11
1.84987e-10
3.11764e-11
1.58959e-10
2.60254e-11
1.377e-10
2.12581e-11
1.21467e-10
1.62338e-11
1.10715e-10
1.0753e-11
1.04916e-10
5.8003e-12
1.03073e-10
1.84337e-12
1.04802e-10
-1.72872e-12
1.09433e-10
-4.6306e-12
1.1556e-10
-6.12732e-12
1.22262e-10
-6.70313e-12
1.28768e-10
-6.50682e-12
1.33399e-10
-4.63139e-12
1.3471e-10
-1.31187e-12
1.32581e-10
2.12893e-12
1.27613e-10
4.96784e-12
1.19913e-10
7.70134e-12
1.09255e-10
1.06589e-11
9.60316e-11
1.32232e-11
8.05577e-11
1.5474e-11
6.27032e-11
1.78539e-11
4.27146e-11
1.9987e-11
2.09866e-11
2.17266e-11
-2.2464e-12
2.32328e-11
-2.68022e-11
2.45556e-11
-5.19663e-11
2.51641e-11
-7.58894e-11
2.39247e-11
-9.66396e-11
2.0753e-11
-1.12766e-10
1.61283e-11
-1.21472e-10
8.70611e-12
-1.17026e-10
-4.45027e-12
-9.09942e-11
-2.60352e-11
-3.85017e-11
-5.24934e-11
-3.85005e-11
-2.05658e-10
1.87084e-10
-1.89075e-10
-2.58818e-10
3.50522e-10
-1.12255e-09
1.243e-09
-1.68417e-09
2.31059e-09
-1.93791e-09
3.42552e-09
-1.98496e-09
4.50025e-09
-1.88886e-09
5.47891e-09
-1.6991e-09
6.32183e-09
-1.44175e-09
7.00553e-09
-1.14855e-09
7.51768e-09
-8.39387e-10
7.86039e-09
-5.33848e-10
8.04134e-09
-2.39559e-10
8.06764e-09
3.07325e-11
7.96156e-09
2.65757e-10
7.73921e-09
4.68055e-10
7.41885e-09
6.33009e-10
7.02039e-09
7.60915e-10
6.56819e-09
8.53184e-10
6.07673e-09
9.16786e-10
5.56609e-09
9.46359e-10
5.04974e-09
9.50537e-10
4.53971e-09
9.2849e-10
4.05004e-09
8.88131e-10
3.58907e-09
8.30149e-10
3.16431e-09
7.6195e-10
2.77913e-09
6.84688e-10
2.43804e-09
6.0289e-10
2.13919e-09
5.24221e-10
1.88286e-09
4.46494e-10
1.66742e-09
3.73443e-10
1.49192e-09
3.0302e-10
1.35324e-09
2.37903e-10
1.24413e-09
1.79975e-10
1.16757e-09
1.26958e-10
1.11539e-09
8.20418e-11
1.08553e-09
4.52027e-11
1.07275e-09
1.41475e-11
1.07327e-09
-8.97602e-12
1.08627e-09
-2.79562e-11
1.10694e-09
-4.15234e-11
1.13484e-09
-5.28848e-11
1.16766e-09
-6.11885e-11
1.20505e-09
-6.76007e-11
1.24537e-09
-7.31349e-11
1.28692e-09
-7.48741e-11
1.329e-09
-7.43499e-11
1.37149e-09
-7.36217e-11
1.41251e-09
-7.09563e-11
1.45142e-09
-6.71253e-11
1.48933e-09
-6.46114e-11
1.5257e-09
-6.26474e-11
1.56038e-09
-5.98008e-11
1.59456e-09
-5.7912e-11
1.6274e-09
-5.61614e-11
1.65676e-09
-5.16933e-11
1.68301e-09
-4.61576e-11
1.70639e-09
-4.04315e-11
1.72558e-09
-3.34217e-11
1.74084e-09
-2.55413e-11
1.75285e-09
-1.87488e-11
1.76082e-09
-1.29287e-11
1.76419e-09
-6.25677e-12
1.76381e-09
5.90559e-13
1.76012e-09
6.6002e-12
1.75248e-09
1.29972e-11
1.74058e-09
2.10048e-11
1.72466e-09
2.93276e-11
1.70454e-09
3.68894e-11
1.67969e-09
4.42179e-11
1.65089e-09
5.08955e-11
1.61942e-09
5.5798e-11
1.58573e-09
5.88035e-11
1.55004e-09
6.19372e-11
1.51251e-09
6.57229e-11
1.47371e-09
6.84702e-11
1.43349e-09
7.05336e-11
1.39153e-09
7.24967e-11
1.34882e-09
7.36921e-11
1.30615e-09
7.36121e-11
1.2634e-09
7.26515e-11
1.22037e-09
7.20515e-11
1.17748e-09
7.2016e-11
1.1353e-09
7.204e-11
1.0935e-09
7.17287e-11
1.05223e-09
7.04783e-11
1.01298e-09
6.7884e-11
9.77008e-10
6.31228e-11
9.45018e-10
5.54045e-11
9.1789e-10
4.52708e-11
8.96807e-10
3.37782e-11
8.82449e-10
2.16489e-11
8.74333e-10
9.66718e-12
8.71629e-10
-1.06188e-12
8.7379e-10
-9.53186e-12
8.79794e-10
-1.54319e-11
8.88058e-10
-1.92426e-11
8.97485e-10
-2.17665e-11
9.07559e-10
-2.30799e-11
9.17436e-10
-2.26312e-11
9.26006e-10
-2.06203e-11
9.32523e-10
-1.74314e-11
9.36303e-10
-1.26205e-11
9.36524e-10
-5.98502e-12
9.32593e-10
2.11763e-12
9.24194e-10
1.1058e-11
9.11614e-10
1.93861e-11
8.95838e-10
2.59271e-11
8.77625e-10
3.06065e-11
8.57754e-10
3.2858e-11
8.37719e-10
3.22308e-11
8.18255e-10
3.03327e-11
7.98541e-10
2.91403e-11
7.778e-10
2.95708e-11
7.55253e-10
3.28208e-11
7.29009e-10
3.9644e-11
6.97464e-10
4.90772e-11
6.6028e-10
6.02277e-11
6.17031e-10
7.26222e-11
5.67641e-10
8.43419e-11
5.1375e-10
9.31324e-11
4.57306e-10
9.84513e-11
3.99458e-10
1.00371e-10
3.42089e-10
9.86142e-11
2.87771e-10
9.35181e-11
2.37723e-10
8.60105e-11
1.9227e-10
7.66307e-11
1.52621e-10
6.56746e-11
1.19886e-10
5.39918e-11
9.36256e-11
4.24911e-11
7.33015e-11
3.10742e-11
5.93086e-11
1.97917e-11
5.12209e-11
9.93124e-12
4.72942e-11
2.19804e-12
4.63684e-11
-3.70601e-12
4.78188e-11
-7.57834e-12
5.01127e-11
-8.99603e-12
5.13459e-11
-7.7393e-12
5.05688e-11
-3.85421e-12
4.73567e-11
1.90052e-12
4.0912e-11
8.57349e-12
3.06893e-11
1.51896e-11
1.72297e-11
2.11591e-11
1.13881e-12
2.67477e-11
-1.7685e-11
3.20457e-11
-3.91503e-11
3.69405e-11
-6.256e-11
4.12665e-11
-8.73589e-11
4.47877e-11
-1.13541e-10
4.79089e-11
-1.40753e-10
5.04459e-11
-1.67504e-10
5.13067e-11
-1.92119e-10
4.97759e-11
-2.1321e-10
4.50119e-11
-2.2841e-10
3.59497e-11
-2.34068e-10
2.179e-11
-2.26002e-10
6.46991e-13
-1.98887e-10
-3.15582e-11
-1.44557e-10
-8.03641e-11
-6.08836e-11
-1.36168e-10
-9.93842e-11
-5.74068e-10
7.6115e-10
-1.10932e-09
2.76439e-10
-1.11265e-09
-1.11923e-09
-7.29343e-10
-2.06748e-09
-1.30537e-10
-2.53672e-09
5.66991e-10
-2.68248e-09
1.28595e-09
-2.60782e-09
1.97308e-09
-2.38623e-09
2.5971e-09
-2.06577e-09
3.13854e-09
-1.68999e-09
3.58545e-09
-1.2863e-09
3.93145e-09
-8.79843e-10
4.18056e-09
-4.88668e-10
4.33683e-09
-1.25542e-10
4.40456e-09
1.98035e-10
4.39243e-09
4.80179e-10
4.31514e-09
7.10287e-10
4.17917e-09
8.96897e-10
3.99663e-09
1.03572e-09
3.78021e-09
1.13321e-09
3.53934e-09
1.18723e-09
3.28531e-09
1.20457e-09
3.0234e-09
1.1904e-09
2.76467e-09
1.14686e-09
2.50997e-09
1.08484e-09
2.27037e-09
1.00156e-09
2.04644e-09
9.08615e-10
1.83895e-09
8.10381e-10
1.65491e-09
7.08257e-10
1.49214e-09
6.09262e-10
1.3533e-09
5.12285e-10
1.23363e-09
4.22695e-10
1.13608e-09
3.35448e-10
1.05804e-09
2.58014e-10
9.97798e-10
1.87201e-10
9.51336e-10
1.28504e-10
9.21443e-10
7.50948e-11
9.01853e-10
3.37364e-11
8.94256e-10
-1.37812e-12
8.94445e-10
-2.8142e-11
9.00898e-10
-4.79751e-11
9.15016e-10
-6.70012e-11
9.32298e-10
-7.84671e-11
9.54006e-10
-8.9309e-11
9.77482e-10
-9.66094e-11
1.00284e-09
-1.00227e-10
1.03039e-09
-1.01898e-10
1.05751e-09
-1.00739e-10
1.08482e-09
-9.82713e-11
1.11285e-09
-9.51495e-11
1.13962e-09
-9.13881e-11
1.16483e-09
-8.78527e-11
1.18979e-09
-8.47641e-11
1.21344e-09
-8.15676e-11
1.23511e-09
-7.78249e-11
1.25582e-09
-7.24035e-11
1.27481e-09
-6.51491e-11
1.29094e-09
-5.65614e-11
1.3042e-09
-4.66835e-11
1.31535e-09
-3.66978e-11
1.32407e-09
-2.74674e-11
1.32967e-09
-1.85258e-11
1.3328e-09
-9.39102e-12
1.33379e-09
-3.95209e-13
1.33173e-09
8.66698e-12
1.3264e-09
1.83268e-11
1.31864e-09
2.8765e-11
1.30841e-09
3.95654e-11
1.29553e-09
4.977e-11
1.28023e-09
5.95165e-11
1.26277e-09
6.83537e-11
1.24326e-09
7.53154e-11
1.22128e-09
8.07812e-11
1.19763e-09
8.55794e-11
1.1729e-09
9.04556e-11
1.14676e-09
9.46037e-11
1.11956e-09
9.77325e-11
1.09143e-09
1.00629e-10
1.06245e-09
1.02678e-10
1.03261e-09
1.0345e-10
1.00197e-09
1.03293e-10
9.71164e-10
1.02858e-10
9.40262e-10
1.02919e-10
9.09547e-10
1.02755e-10
8.79758e-10
1.01517e-10
8.5103e-10
9.92064e-11
8.23633e-10
9.52799e-11
7.98029e-10
8.87267e-11
7.74597e-10
7.88385e-11
7.53624e-10
6.62446e-11
7.3499e-10
5.24111e-11
7.18902e-10
3.77397e-11
7.0578e-10
2.27915e-11
6.95303e-10
9.41414e-12
6.86987e-10
-1.21954e-12
6.80721e-10
-9.16853e-12
6.76266e-10
-1.47896e-11
6.72862e-10
-1.83623e-11
6.69501e-10
-1.97175e-11
6.65695e-10
-1.88236e-11
6.61342e-10
-1.62662e-11
6.55979e-10
-1.20709e-11
6.49008e-10
-5.6503e-12
6.40191e-10
2.8331e-12
6.29729e-10
1.25796e-11
6.17924e-10
2.28631e-11
6.04559e-10
3.27491e-11
5.8944e-10
4.10445e-11
5.73147e-10
4.6898e-11
5.55886e-10
5.01189e-11
5.37026e-10
5.10911e-11
5.16603e-10
5.07553e-11
4.95013e-10
5.07284e-11
4.71717e-10
5.28652e-11
4.46354e-10
5.81833e-11
4.1932e-10
6.66804e-11
3.9024e-10
7.81581e-11
3.58444e-10
9.20238e-11
3.24498e-10
1.06568e-10
2.89023e-10
1.19817e-10
2.51686e-10
1.30468e-10
2.12858e-10
1.37278e-10
1.73895e-10
1.39333e-10
1.35339e-10
1.37169e-10
9.7302e-11
1.31552e-10
6.10093e-11
1.22301e-10
2.76672e-11
1.09972e-10
-2.8962e-12
9.62396e-11
-3.07796e-11
8.18772e-11
-5.50842e-11
6.67966e-11
-7.55858e-11
5.15762e-11
-9.32345e-11
3.74409e-11
-1.08463e-10
2.51597e-11
-1.21038e-10
1.47729e-11
-1.31486e-10
6.74079e-12
-1.40897e-10
1.83139e-12
-1.49778e-10
-1.15559e-13
-1.58252e-10
7.35102e-13
-1.66822e-10
4.71533e-12
-1.76135e-10
1.12137e-11
-1.86253e-10
1.8693e-11
-1.97078e-10
2.60153e-11
-2.09008e-10
3.30902e-11
-2.22216e-10
3.99545e-11
-2.36133e-10
4.59615e-11
-2.50142e-10
5.09476e-11
-2.64105e-10
5.52287e-11
-2.77818e-10
5.85004e-11
-2.90297e-10
6.03879e-11
-3.00468e-10
6.06185e-11
-3.07623e-10
5.84641e-11
-3.10759e-10
5.29151e-11
-3.08343e-10
4.25973e-11
-2.98409e-10
2.60127e-11
-2.78903e-10
2.27945e-12
-2.47274e-10
-3.09861e-11
-2.00448e-10
-7.83825e-11
-1.3484e-10
-1.4597e-10
-5.28608e-11
-2.18148e-10
-1.52245e-10
-8.02985e-10
1.56413e-09
-1.71266e-09
1.18611e-09
-2.10914e-09
-7.22752e-10
-2.11415e-09
-2.06246e-09
-1.88392e-09
-2.76695e-09
-1.52586e-09
-3.04055e-09
-1.10376e-09
-3.02992e-09
-6.66104e-10
-2.82388e-09
-2.35837e-10
-2.49604e-09
1.64058e-10
-2.08988e-09
5.28029e-10
-1.65027e-09
8.48065e-10
-1.19988e-09
1.11934e-09
-7.59943e-10
1.3447e-09
-3.50905e-10
1.52193e-09
2.08103e-11
1.65701e-09
3.45098e-10
1.7447e-09
6.22603e-10
1.79815e-09
8.43445e-10
1.81773e-09
1.01613e-09
1.81005e-09
1.14089e-09
1.77674e-09
1.22055e-09
1.72515e-09
1.25616e-09
1.65817e-09
1.25737e-09
1.58018e-09
1.22485e-09
1.49698e-09
1.16804e-09
1.40665e-09
1.0919e-09
1.31632e-09
9.98948e-10
1.22891e-09
8.97791e-10
1.14382e-09
7.93347e-10
1.0643e-09
6.88781e-10
9.90777e-10
5.85808e-10
9.27781e-10
4.85688e-10
8.70063e-10
3.93167e-10
8.21064e-10
3.07014e-10
7.78503e-10
2.2976e-10
7.45903e-10
1.61104e-10
7.18778e-10
1.0222e-10
6.98572e-10
5.39439e-11
6.85143e-10
1.2051e-11
6.76637e-10
-1.96369e-11
6.7579e-10
-4.71282e-11
6.76065e-10
-6.72754e-11
6.81482e-10
-8.38844e-11
6.89509e-10
-9.73373e-11
6.99186e-10
-1.06285e-10
7.11366e-10
-1.12408e-10
7.24588e-10
-1.15119e-10
7.39226e-10
-1.15375e-10
7.54872e-10
-1.13917e-10
7.70534e-10
-1.1081e-10
7.86558e-10
-1.07412e-10
8.02375e-10
-1.03666e-10
8.17196e-10
-9.95869e-11
8.30923e-10
-9.52916e-11
8.43102e-10
-9.00014e-11
8.54195e-10
-8.34981e-11
8.64823e-10
-7.57726e-11
8.74947e-10
-6.66853e-11
8.84237e-10
-5.59743e-11
8.92166e-10
-4.46237e-11
8.98006e-10
-3.33082e-11
9.01398e-10
-2.19167e-11
9.02838e-10
-1.08328e-11
9.03063e-10
-6.17818e-13
9.02111e-10
9.6185e-12
8.99623e-10
2.08125e-11
8.95994e-10
3.23951e-11
8.91233e-10
4.43266e-11
8.8461e-10
5.63908e-11
8.76336e-10
6.77901e-11
8.67038e-10
7.76533e-11
8.56846e-10
8.55067e-11
8.45164e-10
9.24626e-11
8.31893e-10
9.88532e-11
8.17961e-10
1.04388e-10
8.03259e-10
1.09304e-10
7.87356e-10
1.13635e-10
7.70439e-10
1.17547e-10
7.52972e-10
1.20143e-10
7.35267e-10
1.21154e-10
7.16498e-10
1.22063e-10
6.96654e-10
1.22703e-10
6.77081e-10
1.22491e-10
6.58053e-10
1.21785e-10
6.39284e-10
1.20289e-10
6.20936e-10
1.17554e-10
6.03532e-10
1.12683e-10
5.87376e-10
1.04884e-10
5.71532e-10
9.46833e-11
5.55483e-10
8.22923e-11
5.4e-10
6.78925e-11
5.25112e-10
5.26293e-11
5.1027e-10
3.76355e-11
4.95583e-10
2.4101e-11
4.81488e-10
1.28778e-11
4.68305e-10
4.01544e-12
4.55785e-10
-2.27249e-12
4.43415e-10
-5.99487e-12
4.31271e-10
-7.57347e-12
4.1934e-10
-6.89176e-12
4.07011e-10
-3.93754e-12
3.94039e-10
9.00455e-13
3.80739e-10
7.64853e-12
3.67287e-10
1.62844e-11
3.53626e-10
2.62396e-11
3.39872e-10
3.66176e-11
3.2629e-10
4.6332e-11
3.12602e-10
5.47327e-11
2.98002e-10
6.14965e-11
2.82232e-10
6.58885e-11
2.65354e-10
6.797e-11
2.4671e-10
6.93999e-11
2.25856e-10
7.15817e-11
2.03494e-10
7.52264e-11
1.80138e-10
8.15367e-11
1.55746e-10
9.10712e-11
1.30986e-10
1.02918e-10
1.06589e-10
1.16421e-10
8.22023e-11
1.30954e-10
5.77324e-11
1.44286e-10
3.38718e-11
1.54328e-10
1.02863e-11
1.60863e-10
-1.39986e-11
1.63619e-10
-3.8486e-11
1.61658e-10
-6.22115e-11
1.55277e-10
-8.56351e-11
1.45723e-10
-1.09289e-10
1.33623e-10
-1.32371e-10
1.1932e-10
-1.54205e-10
1.0371e-10
-1.75256e-10
8.78483e-11
-1.95779e-10
7.20997e-11
-2.15178e-10
5.684e-11
-2.33417e-10
4.33981e-11
-2.51193e-10
3.25485e-11
-2.68442e-10
2.39901e-11
-2.84615e-10
1.80047e-11
-2.99934e-10
1.52029e-11
-3.14802e-10
1.56031e-11
-3.28849e-10
1.87617e-11
-3.41586e-10
2.395e-11
-3.53338e-10
3.04445e-11
-3.64578e-10
3.72544e-11
-3.75071e-10
4.35837e-11
-3.84564e-10
4.94484e-11
-3.93177e-10
5.45764e-11
-4.00655e-10
5.8425e-11
-4.06205e-10
6.07785e-11
-4.09139e-10
6.14336e-11
-4.09083e-10
6.03321e-11
-4.05429e-10
5.69617e-11
-3.97012e-10
5.00448e-11
-3.82771e-10
3.8675e-11
-3.62123e-10
2.19534e-11
-3.34405e-10
-1.70125e-12
-2.97849e-10
-3.42758e-11
-2.51117e-10
-7.77208e-11
-1.93181e-10
-1.3632e-10
-1.23188e-10
-2.15963e-10
-4.58785e-11
-2.95458e-10
-1.98124e-10
-8.94829e-10
2.45896e-09
-1.99409e-09
2.28538e-09
-2.61005e-09
-1.06788e-10
-2.84472e-09
-1.82779e-09
-2.84259e-09
-2.76907e-09
-2.69626e-09
-3.18688e-09
-2.46919e-09
-3.25699e-09
-2.19689e-09
-3.09618e-09
-1.90264e-09
-2.79029e-09
-1.60258e-09
-2.38995e-09
-1.30808e-09
-1.94476e-09
-1.02511e-09
-1.48286e-09
-7.55054e-10
-1.03e-09
-5.05946e-10
-6.00008e-10
-2.78612e-10
-2.06525e-10
-7.39021e-11
1.4039e-10
1.09024e-10
4.39675e-10
2.65848e-10
6.86621e-10
3.97639e-10
8.84349e-10
5.10335e-10
1.02819e-09
6.005e-10
1.13038e-09
6.70088e-10
1.18657e-09
7.2298e-10
1.20448e-09
7.56979e-10
1.19086e-09
7.77151e-10
1.14787e-09
7.86798e-10
1.08225e-09
7.83233e-10
1.00251e-09
7.71161e-10
9.09866e-10
7.52109e-10
8.12398e-10
7.30956e-10
7.0993e-10
7.06107e-10
6.10656e-10
6.79022e-10
5.12774e-10
6.50862e-10
4.21327e-10
6.25033e-10
3.32841e-10
5.98944e-10
2.55852e-10
5.75377e-10
1.84672e-10
5.53579e-10
1.24016e-10
5.35935e-10
7.15875e-11
5.20976e-10
2.70089e-11
5.08988e-10
-7.65025e-12
5.00825e-10
-3.89628e-11
4.95328e-10
-6.17795e-11
4.92695e-10
-8.12505e-11
4.91281e-10
-9.59223e-11
4.91713e-10
-1.06718e-10
4.94078e-10
-1.14775e-10
4.9784e-10
-1.1888e-10
5.02948e-10
-1.20483e-10
5.09306e-10
-1.20276e-10
5.16634e-10
-1.18136e-10
5.24363e-10
-1.1514e-10
5.32214e-10
-1.1152e-10
5.40078e-10
-1.07448e-10
5.47375e-10
-1.0259e-10
5.5354e-10
-9.61686e-11
5.58836e-10
-8.87925e-11
5.63474e-10
-8.04126e-11
5.67519e-10
-7.07307e-11
5.7172e-10
-6.01735e-11
5.76214e-10
-4.9119e-11
5.80109e-10
-3.7201e-11
5.8293e-10
-2.47389e-11
5.84655e-10
-1.25553e-11
5.84808e-10
-7.70443e-13
5.83655e-10
1.07696e-11
5.81987e-10
2.24822e-11
5.80154e-10
3.42303e-11
5.78035e-10
4.64428e-11
5.75406e-10
5.90207e-11
5.72495e-10
7.07035e-11
5.68888e-10
8.12578e-11
5.63931e-10
9.04635e-11
5.58053e-10
9.83417e-11
5.51622e-10
1.05283e-10
5.44699e-10
1.11312e-10
5.36872e-10
1.17132e-10
5.2824e-10
1.22268e-10
5.19504e-10
1.26283e-10
5.10046e-10
1.29602e-10
4.99499e-10
1.31701e-10
4.88531e-10
1.33029e-10
4.77224e-10
1.34009e-10
4.65705e-10
1.34009e-10
4.54132e-10
1.33358e-10
4.42687e-10
1.31734e-10
4.31843e-10
1.28397e-10
4.21233e-10
1.23294e-10
4.1039e-10
1.15728e-10
3.99366e-10
1.05706e-10
3.87683e-10
9.39762e-11
3.74902e-10
8.06742e-11
3.61124e-10
6.64053e-11
3.46461e-10
5.22969e-11
3.31093e-10
3.94677e-11
3.15169e-10
2.88032e-11
2.98932e-10
2.0254e-11
2.82877e-10
1.37822e-11
2.66967e-10
9.91465e-12
2.50789e-10
8.60441e-12
2.34535e-10
9.36102e-12
2.18636e-10
1.19611e-11
2.02992e-10
1.65458e-11
1.87268e-10
2.33725e-11
1.71691e-10
3.18598e-11
1.57027e-10
4.09012e-11
1.43382e-10
5.02618e-11
1.2999e-10
5.97236e-11
1.16626e-10
6.80961e-11
1.03422e-10
7.46999e-11
8.951e-11
7.97994e-11
7.39777e-11
8.35023e-11
5.70003e-11
8.63769e-11
3.86542e-11
8.99277e-11
1.87711e-11
9.51106e-11
-1.77936e-12
1.02087e-10
-2.20259e-11
1.11316e-10
-4.20462e-11
1.22937e-10
-6.14944e-11
1.35868e-10
-7.9264e-11
1.48724e-10
-9.54703e-11
1.60492e-10
-1.11212e-10
1.70068e-10
-1.26636e-10
1.76285e-10
-1.41507e-10
1.7849e-10
-1.56566e-10
1.76716e-10
-1.72511e-10
1.71223e-10
-1.88947e-10
1.62158e-10
-2.05581e-10
1.50258e-10
-2.23065e-10
1.36805e-10
-2.41621e-10
1.22264e-10
-2.60502e-10
1.06729e-10
-2.79523e-10
9.11215e-11
-2.99196e-10
7.6513e-11
-3.19361e-10
6.35629e-11
-3.39377e-10
5.25631e-11
-3.59047e-10
4.36599e-11
-3.78425e-10
3.73832e-11
-3.97223e-10
3.40003e-11
-4.14908e-10
3.32883e-11
-4.31198e-10
3.5052e-11
-4.45873e-10
3.86256e-11
-4.58572e-10
4.31428e-11
-4.69283e-10
4.79646e-11
-4.78255e-10
5.25536e-11
-4.85397e-10
5.659e-11
-4.90226e-10
5.94068e-11
-4.9224e-10
6.04387e-11
-4.91256e-10
5.97944e-11
-4.86987e-10
5.71648e-11
-4.78508e-10
5.18552e-11
-4.64918e-10
4.33721e-11
-4.45891e-10
3.1015e-11
-4.2089e-10
1.36703e-11
-3.89231e-10
-9.70737e-12
-3.5052e-10
-4.04105e-11
-3.04251e-10
-8.05431e-11
-2.49726e-10
-1.32247e-10
-1.86802e-10
-1.99245e-10
-1.15865e-10
-2.86899e-10
-4.21735e-11
-3.6915e-10
-2.40298e-10
-9.04608e-10
3.36357e-09
-2.06091e-09
3.44167e-09
-2.77827e-09
6.10574e-10
-3.13695e-09
-1.46911e-09
-3.27078e-09
-2.63525e-09
-3.25935e-09
-3.19831e-09
-3.15778e-09
-3.35855e-09
-2.99504e-09
-3.25892e-09
-2.79934e-09
-2.98599e-09
-2.57592e-09
-2.61337e-09
-2.33794e-09
-2.18273e-09
-2.09163e-09
-1.72917e-09
-1.84358e-09
-1.27805e-09
-1.59607e-09
-8.47519e-10
-1.35197e-09
-4.50625e-10
-1.12052e-09
-9.10608e-11
-8.99305e-10
2.18468e-10
-6.90696e-10
4.7801e-10
-4.96698e-10
6.90352e-10
-3.22888e-10
8.54378e-10
-1.65099e-10
9.72593e-10
-2.67798e-11
1.04825e-09
9.26413e-11
1.08505e-09
1.94971e-10
1.08852e-09
2.78774e-10
1.06407e-09
3.43691e-10
1.01733e-09
3.95345e-10
9.50858e-10
4.32712e-10
8.72496e-10
4.59049e-10
7.86062e-10
4.72671e-10
6.9631e-10
4.7965e-10
6.03677e-10
4.79027e-10
5.13395e-10
4.75071e-10
4.25283e-10
4.63389e-10
3.44521e-10
4.51322e-10
2.67919e-10
4.36431e-10
1.99559e-10
4.20533e-10
1.39916e-10
4.06447e-10
8.56731e-11
3.90006e-10
4.34505e-11
3.78461e-10
3.89519e-12
3.65943e-10
-2.64463e-11
3.56159e-10
-5.19955e-11
3.48397e-10
-7.34874e-11
3.41585e-10
-8.91094e-11
3.36448e-10
-1.01581e-10
3.32264e-10
-1.1059e-10
3.29456e-10
-1.1607e-10
3.28054e-10
-1.19083e-10
3.2772e-10
-1.1994e-10
3.28419e-10
-1.18834e-10
3.29699e-10
-1.16422e-10
3.31324e-10
-1.13141e-10
3.33008e-10
-1.09132e-10
3.34614e-10
-1.04196e-10
3.36409e-10
-9.79623e-11
3.38127e-10
-9.05089e-11
3.39328e-10
-8.16138e-11
3.40042e-10
-7.14446e-11
3.40729e-10
-6.08592e-11
3.41528e-10
-4.99176e-11
3.42419e-10
-3.80916e-11
3.43372e-10
-2.56923e-11
3.44464e-10
-1.36451e-11
3.45078e-10
-1.38561e-12
3.44658e-10
1.11901e-11
3.43638e-10
2.35056e-11
3.42514e-10
3.53529e-11
3.41637e-10
4.73197e-11
3.40838e-10
5.98229e-11
3.40102e-10
7.14396e-11
3.39507e-10
8.18522e-11
3.38383e-10
9.15885e-11
3.36476e-10
1.0025e-10
3.33839e-10
1.07918e-10
3.3081e-10
1.14341e-10
3.2773e-10
1.20212e-10
3.2396e-10
1.26037e-10
3.19653e-10
1.30589e-10
3.15259e-10
1.33995e-10
3.1021e-10
1.36751e-10
3.04484e-10
1.38755e-10
2.98386e-10
1.40107e-10
2.9215e-10
1.40245e-10
2.86082e-10
1.39427e-10
2.79778e-10
1.38038e-10
2.73237e-10
1.34937e-10
2.66939e-10
1.29592e-10
2.60246e-10
1.22421e-10
2.52379e-10
1.13571e-10
2.43313e-10
1.03043e-10
2.33047e-10
9.09424e-11
2.2135e-10
7.81029e-11
2.07871e-10
6.57743e-11
1.92812e-10
5.45259e-11
1.77047e-10
4.45669e-11
1.60899e-10
3.64016e-11
1.44101e-10
3.0581e-11
1.26848e-10
2.71681e-11
1.09687e-10
2.5765e-11
9.28373e-11
2.62098e-11
7.60678e-11
2.87301e-11
5.93409e-11
3.32731e-11
4.33024e-11
3.94113e-11
2.83116e-11
4.68502e-11
1.39637e-11
5.52484e-11
3.4087e-13
6.38837e-11
-1.21782e-11
7.22412e-11
-2.42387e-11
8.01557e-11
-3.65755e-11
8.70368e-11
-4.91501e-11
9.23737e-11
-6.24711e-11
9.68221e-11
-7.74074e-11
1.01312e-10
-9.35615e-11
1.06081e-10
-1.10097e-10
1.11647e-10
-1.2702e-10
1.1901e-10
-1.44011e-10
1.28306e-10
-1.59939e-10
1.38863e-10
-1.74363e-10
1.50292e-10
-1.87607e-10
1.61969e-10
-1.99488e-10
1.72373e-10
-2.0977e-10
1.8035e-10
-2.193e-10
1.85816e-10
-2.29115e-10
1.88304e-10
-2.3924e-10
1.86839e-10
-2.49644e-10
1.81626e-10
-2.61127e-10
1.73642e-10
-2.74208e-10
1.6334e-10
-2.88561e-10
1.51157e-10
-3.03966e-10
1.37669e-10
-3.20613e-10
1.23376e-10
-3.38638e-10
1.09146e-10
-3.57876e-10
9.57512e-11
-3.77908e-10
8.35953e-11
-3.98351e-10
7.30053e-11
-4.18888e-10
6.4197e-11
-4.39182e-10
5.76772e-11
-4.5892e-10
5.37365e-11
-4.77568e-10
5.1936e-11
-4.94505e-10
5.19882e-11
-5.09386e-10
5.35076e-11
-5.22028e-10
5.57845e-11
-5.32263e-10
5.82004e-11
-5.3985e-10
6.01399e-11
-5.44593e-10
6.13326e-11
-5.46408e-10
6.12218e-11
-5.44808e-10
5.88388e-11
-5.39161e-10
5.41465e-11
-5.29297e-10
4.72992e-11
-5.14916e-10
3.74746e-11
-4.95275e-10
2.3733e-11
-4.69661e-10
5.40298e-12
-4.37621e-10
-1.83695e-11
-3.99365e-10
-4.79652e-11
-3.54628e-10
-8.51497e-11
-3.03288e-10
-1.31883e-10
-2.45134e-10
-1.90402e-10
-1.80701e-10
-2.63679e-10
-1.10737e-10
-3.56862e-10
-4.01816e-11
-4.39707e-10
-2.8048e-10
-8.54677e-10
4.21824e-09
-1.97882e-09
4.56582e-09
-2.71958e-09
1.35133e-09
-3.13954e-09
-1.04914e-09
-3.34796e-09
-2.42683e-09
-3.41928e-09
-3.12699e-09
-3.39943e-09
-3.37841e-09
-3.31834e-09
-3.34e-09
-3.18759e-09
-3.11674e-09
-3.02633e-09
-2.77464e-09
-2.83933e-09
-2.36973e-09
-2.63208e-09
-1.93641e-09
-2.41094e-09
-1.49919e-09
-2.18076e-09
-1.0777e-09
-1.94707e-09
-6.84316e-10
-1.70836e-09
-3.29772e-10
-1.4754e-09
-1.44967e-11
-1.253e-09
2.55613e-10
-1.03729e-09
4.7464e-10
-8.3384e-10
6.5092e-10
-6.4446e-10
7.83215e-10
-4.72097e-10
8.75888e-10
-3.16999e-10
9.29955e-10
-1.80993e-10
9.5252e-10
-6.26358e-11
9.45713e-10
3.81456e-11
9.16544e-10
1.21668e-10
8.67334e-10
1.87161e-10
8.07006e-10
2.39293e-10
7.33931e-10
2.78583e-10
6.57016e-10
3.06658e-10
5.75602e-10
3.24221e-10
4.95832e-10
3.3277e-10
4.16734e-10
3.35818e-10
3.41474e-10
3.32564e-10
2.71173e-10
3.24427e-10
2.07697e-10
3.14904e-10
1.49439e-10
3.01814e-10
9.87632e-11
2.89694e-10
5.55714e-11
2.76582e-10
1.70085e-11
2.63225e-10
-1.30898e-11
2.51603e-10
-4.0372e-11
2.39569e-10
-6.14518e-11
2.29098e-10
-7.86392e-11
2.20098e-10
-9.25785e-11
2.11562e-10
-1.02052e-10
2.0423e-10
-1.08741e-10
1.98129e-10
-1.12977e-10
1.93052e-10
-1.14865e-10
1.89021e-10
-1.14803e-10
1.8573e-10
-1.13128e-10
1.82933e-10
-1.10344e-10
1.801e-10
-1.06299e-10
1.7722e-10
-1.01314e-10
1.74786e-10
-9.55284e-11
1.72591e-10
-8.83134e-11
1.70662e-10
-7.96863e-11
1.69351e-10
-7.01321e-11
1.68187e-10
-5.96935e-11
1.66489e-10
-4.82203e-11
1.64998e-10
-3.66006e-11
1.64271e-10
-2.49625e-11
1.63648e-10
-1.30243e-11
1.62922e-10
-6.6017e-13
1.62435e-10
1.1679e-11
1.62343e-10
2.35963e-11
1.61859e-10
3.58345e-11
1.6108e-10
4.81013e-11
1.60997e-10
5.99057e-11
1.61539e-10
7.08966e-11
1.62113e-10
8.12807e-11
1.62279e-10
9.14235e-11
1.62391e-10
1.00137e-10
1.6268e-10
1.07631e-10
1.6216e-10
1.14862e-10
1.61059e-10
1.21313e-10
1.60177e-10
1.26919e-10
1.59211e-10
1.31555e-10
1.57831e-10
1.35376e-10
1.55778e-10
1.38803e-10
1.53396e-10
1.41137e-10
1.51209e-10
1.42294e-10
1.48551e-10
1.42904e-10
1.45344e-10
1.42632e-10
1.4237e-10
1.41012e-10
1.3938e-10
1.37927e-10
1.35742e-10
1.3323e-10
1.31216e-10
1.26946e-10
1.25699e-10
1.19087e-10
1.19066e-10
1.09676e-10
1.10817e-10
9.91908e-11
1.0064e-10
8.82802e-11
8.88515e-11
7.75633e-11
7.56868e-11
6.76918e-11
6.12163e-11
5.90361e-11
4.57293e-11
5.18871e-11
2.96788e-11
4.66319e-11
1.34669e-11
4.33812e-11
-2.91694e-12
4.2149e-11
-1.94617e-11
4.27537e-11
-3.55568e-11
4.48248e-11
-5.09932e-11
4.87087e-11
-6.61573e-11
5.45744e-11
-8.05774e-11
6.12701e-11
-9.35539e-11
6.82253e-11
-1.05674e-10
7.60029e-11
-1.17517e-10
8.40832e-11
-1.28656e-10
9.12928e-11
-1.39256e-10
9.76374e-11
-1.50345e-10
1.03463e-10
-1.62219e-10
1.08695e-10
-1.74641e-10
1.13733e-10
-1.87841e-10
1.19281e-10
-2.01761e-10
1.25567e-10
-2.15539e-10
1.32787e-10
-2.28638e-10
1.41405e-10
-2.41107e-10
1.51333e-10
-2.52482e-10
1.61667e-10
-2.62036e-10
1.71522e-10
-2.70046e-10
1.80384e-10
-2.7736e-10
1.87665e-10
-2.84172e-10
1.92629e-10
-2.90482e-10
1.94615e-10
-2.96952e-10
1.93309e-10
-3.04451e-10
1.89125e-10
-3.13388e-10
1.82579e-10
-3.23723e-10
1.73675e-10
-3.35445e-10
1.6288e-10
-3.48826e-10
1.5105e-10
-3.6398e-10
1.3853e-10
-3.80659e-10
1.25825e-10
-3.98618e-10
1.1371e-10
-4.17656e-10
1.02633e-10
-4.37513e-10
9.28628e-11
-4.57748e-10
8.44316e-11
-4.77701e-10
7.763e-11
-4.96922e-10
7.29578e-11
-5.15149e-10
7.01627e-11
-5.31839e-10
6.86775e-11
-5.46258e-10
6.79258e-11
-5.57983e-10
6.75088e-11
-5.67116e-10
6.73337e-11
-5.73588e-10
6.66126e-11
-5.76683e-10
6.44275e-11
-5.75889e-10
6.04281e-11
-5.71243e-10
5.41941e-11
-5.62604e-10
4.55081e-11
-5.49358e-10
3.40521e-11
-5.30822e-10
1.89377e-11
-5.06758e-10
-3.32277e-13
-4.77078e-10
-2.4277e-11
-4.41659e-10
-5.37871e-11
-3.99778e-10
-8.98468e-11
-3.51753e-10
-1.33176e-10
-2.98036e-10
-1.856e-10
-2.38756e-10
-2.49682e-10
-1.74403e-10
-3.28033e-10
-1.06174e-10
-4.25092e-10
-3.84335e-11
-5.07448e-10
-3.18914e-10
-7.65227e-10
4.98348e-09
-1.79762e-09
5.59821e-09
-2.5086e-09
2.06231e-09
-2.94318e-09
-6.14561e-10
-3.1928e-09
-2.17721e-09
-3.31918e-09
-3.00061e-09
-3.3542e-09
-3.34339e-09
-3.32752e-09
-3.36669e-09
-3.25372e-09
-3.19054e-09
-3.14055e-09
-2.88781e-09
-2.9955e-09
-2.51478e-09
-2.8273e-09
-2.10461e-09
-2.63651e-09
-1.68998e-09
-2.43145e-09
-1.28276e-09
-2.21475e-09
-9.01027e-10
-1.99602e-09
-5.48492e-10
-1.77046e-09
-2.40054e-10
-1.54501e-09
3.01623e-11
-1.32807e-09
2.57705e-10
-1.12052e-09
4.43371e-10
-9.23577e-10
5.86279e-10
-7.39209e-10
6.91521e-10
-5.71141e-10
7.61886e-10
-4.17854e-10
7.9923e-10
-2.83907e-10
8.11765e-10
-1.66696e-10
7.99332e-10
-6.84514e-11
7.6909e-10
1.61551e-11
7.22396e-10
8.30134e-11
6.6707e-10
1.36862e-10
6.0317e-10
1.76092e-10
5.36371e-10
2.05831e-10
4.66093e-10
2.25159e-10
3.97406e-10
2.35808e-10
3.30823e-10
2.39842e-10
2.6714e-10
2.38031e-10
2.09506e-10
2.32428e-10
1.55041e-10
2.22259e-10
1.08932e-10
2.12446e-10
6.53848e-11
1.9884e-10
3.06147e-11
1.86569e-10
-8.18369e-13
1.7346e-10
-2.72628e-11
1.60018e-10
-4.80124e-11
1.47525e-10
-6.61435e-11
1.34999e-10
-8.00524e-11
1.23517e-10
-9.05712e-11
1.13301e-10
-9.85208e-11
1.03556e-10
-1.03232e-10
9.45638e-11
-1.05871e-10
8.67453e-11
-1.06983e-10
7.97982e-11
-1.06181e-10
7.34651e-11
-1.04011e-10
6.75597e-11
-1.00394e-10
6.17412e-11
-9.54952e-11
5.60057e-11
-8.97933e-11
5.0651e-11
-8.29588e-11
4.58807e-11
-7.49159e-11
4.16677e-11
-6.59193e-11
3.80809e-11
-5.61084e-11
3.50717e-11
-4.52113e-11
3.23608e-11
-3.38901e-11
2.97659e-11
-2.23677e-11
2.73182e-11
-1.05778e-11
2.55865e-11
1.07321e-12
2.43711e-11
1.2895e-11
2.3256e-11
2.47107e-11
2.24602e-11
3.66321e-11
2.22209e-11
4.8341e-11
2.25242e-11
5.96013e-11
2.2778e-11
7.06436e-11
2.32452e-11
8.08149e-11
2.44061e-11
9.02623e-11
2.54916e-11
9.90518e-11
2.63158e-11
1.06808e-10
2.7033e-11
1.14145e-10
2.76278e-11
1.20718e-10
2.83533e-11
1.26194e-10
2.87555e-11
1.31153e-10
2.88286e-11
1.35303e-10
2.90643e-11
1.38567e-10
2.89773e-11
1.41223e-10
2.84757e-11
1.42796e-10
2.79606e-11
1.43419e-10
2.72033e-11