/*--------------------------------*- C++ -*----------------------------------*\
  =========                 |
  \\      /  F ield         | OpenFOAM: The Open Source CFD Toolbox
   \\    /   O peration     | Website:  https://openfoam.org
    \\  /    A nd           | Version:  7
     \\/     M anipulation  |
\*---------------------------------------------------------------------------*/
FoamFile
{
    version     2.0;
    format      ascii;
    class       surfaceScalarField;
    location    "0.45";
    object      phi;
}
// * * * * * * * * * * * * * * * * * * * * * * * * * * * * * * * * * * * * * //

dimensions      [0 3 -1 0 0 0 0];

internalField   nonuniform List<scalar> 
101920
(
-4.12521e-14
2.47632e-13
-4.68406e-13
4.09952e-13
-8.96823e-13
4.46465e-13
-1.25835e-12
3.66639e-13
-1.48075e-12
2.11299e-13
-1.49351e-12
2.93482e-14
-1.305e-12
-1.82711e-13
-9.05609e-13
-4.0349e-13
-2.76957e-13
-6.20626e-13
5.63341e-13
-8.41166e-13
1.61692e-12
-1.05591e-12
2.87563e-12
-1.25832e-12
4.32754e-12
-1.44979e-12
5.96043e-12
-1.63201e-12
7.76528e-12
-1.80498e-12
9.72956e-12
-1.96774e-12
1.18462e-11
-2.11805e-12
1.41033e-11
-2.25789e-12
1.64894e-11
-2.38737e-12
1.89946e-11
-2.50486e-12
2.16081e-11
-2.61085e-12
2.43181e-11
-2.70739e-12
2.7114e-11
-2.79475e-12
2.99873e-11
-2.87366e-12
3.293e-11
-2.94477e-12
3.59346e-11
-3.00698e-12
3.89931e-11
-3.05906e-12
4.20966e-11
-3.10248e-12
4.52358e-11
-3.13936e-12
4.84036e-11
-3.16981e-12
5.15952e-11
-3.19279e-12
5.48041e-11
-3.20783e-12
5.80217e-11
-3.21567e-12
6.12403e-11
-3.21773e-12
6.4455e-11
-3.21467e-12
6.76609e-11
-3.20588e-12
7.08522e-11
-3.19122e-12
7.4024e-11
-3.17192e-12
7.71718e-11
-3.14842e-12
8.02909e-11
-3.11953e-12
8.33771e-11
-3.08527e-12
8.64253e-11
-3.04751e-12
8.94311e-11
-3.00676e-12
9.23919e-11
-2.96186e-12
9.5305e-11
-2.9126e-12
9.8166e-11
-2.85998e-12
1.00971e-10
-2.80448e-12
1.03717e-10
-2.74611e-12
1.06402e-10
-2.68506e-12
1.09022e-10
-2.62151e-12
1.11577e-10
-2.55557e-12
1.14063e-10
-2.48738e-12
1.1648e-10
-2.41681e-12
1.18824e-10
-2.34385e-12
1.21093e-10
-2.26892e-12
1.23285e-10
-2.19232e-12
1.25399e-10
-2.114e-12
1.27433e-10
-2.03402e-12
1.29385e-10
-1.95275e-12
1.31255e-10
-1.87038e-12
1.33041e-10
-1.7867e-12
1.34743e-10
-1.70153e-12
1.36358e-10
-1.61506e-12
1.37887e-10
-1.52777e-12
1.39327e-10
-1.43979e-12
1.40677e-10
-1.35092e-12
1.41939e-10
-1.26105e-12
1.43109e-10
-1.17044e-12
1.44189e-10
-1.07943e-12
1.45176e-10
-9.88144e-13
1.46072e-10
-8.96382e-13
1.46876e-10
-8.03913e-13
1.47586e-10
-7.10782e-13
1.48204e-10
-6.17282e-13
1.48728e-10
-5.23633e-13
1.49157e-10
-4.29795e-13
1.49493e-10
-3.35645e-13
1.49734e-10
-2.41228e-13
1.49881e-10
-1.46681e-13
1.49934e-10
-5.20448e-14
1.49891e-10
4.2677e-14
1.49754e-10
1.37397e-13
1.49522e-10
2.31989e-13
1.49195e-10
3.26385e-13
1.48775e-10
4.20613e-13
1.4826e-10
5.1472e-13
1.47651e-10
6.08668e-13
1.46949e-10
7.02362e-13
1.46153e-10
7.95734e-13
1.45264e-10
8.88748e-13
1.44283e-10
9.81346e-13
1.4321e-10
1.07345e-12
1.42045e-10
1.16498e-12
1.40789e-10
1.25586e-12
1.39442e-10
1.34606e-12
1.38007e-10
1.43553e-12
1.36482e-10
1.52424e-12
1.34871e-10
1.61213e-12
1.33172e-10
1.69906e-12
1.31387e-10
1.7848e-12
1.29518e-10
1.86921e-12
1.27565e-10
1.95234e-12
1.25531e-10
2.03425e-12
1.23416e-10
2.11481e-12
1.21222e-10
2.19375e-12
1.18951e-10
2.27091e-12
1.16604e-10
2.34622e-12
1.14185e-10
2.41964e-12
1.11693e-10
2.49112e-12
1.09133e-10
2.56042e-12
1.06506e-10
2.62712e-12
1.03814e-10
2.69107e-12
1.01061e-10
2.75248e-12
9.82493e-11
2.81141e-12
9.53823e-11
2.86739e-12
9.24628e-11
2.91994e-12
8.94937e-11
2.96902e-12
8.6479e-11
3.01459e-12
8.34226e-11
3.05629e-12
8.03285e-11
3.09383e-12
7.72009e-11
3.12717e-12
7.40445e-11
3.1562e-12
7.08638e-11
3.18078e-12
6.76636e-11
3.20052e-12
6.44492e-11
3.21468e-12
6.12258e-11
3.22293e-12
5.79992e-11
3.22581e-12
5.47759e-11
3.22336e-12
5.15622e-11
3.21442e-12
4.83639e-11
3.19827e-12
4.51878e-11
3.17541e-12
4.20417e-11
3.14592e-12
3.89333e-11
3.10887e-12
3.58697e-11
3.06365e-12
3.28589e-11
3.01028e-12
2.99096e-11
2.94869e-12
2.70307e-11
2.8785e-12
2.42312e-11
2.79914e-12
2.15206e-11
2.71026e-12
1.89085e-11
2.61194e-12
1.64051e-11
2.50384e-12
1.40208e-11
2.38481e-12
1.17658e-11
2.25445e-12
9.65048e-12
2.11382e-12
7.68612e-12
1.96351e-12
5.88421e-12
1.80238e-12
4.25529e-12
1.6294e-12
2.8101e-12
1.44537e-12
1.55914e-12
1.25143e-12
5.10879e-13
1.04815e-12
-3.27107e-13
8.37031e-13
-9.47664e-13
6.2017e-13
-1.34728e-12
4.00302e-13
-1.52953e-12
1.82514e-13
-1.50536e-12
-2.54287e-14
-1.29581e-12
-2.11082e-13
-9.42475e-13
-3.53541e-13
-5.19992e-13
-4.19272e-13
-1.49842e-13
-3.58977e-13
-1.36877e-13
-3.31589e-13
5.63084e-13
-9.97204e-13
1.08795e-12
-1.6788e-12
1.1255e-12
-2.15552e-12
8.23206e-13
-2.25576e-12
3.1279e-13
-1.88366e-12
-3.41225e-13
-9.82008e-13
-1.07866e-12
4.80657e-13
-1.86325e-12
2.51978e-12
-2.66549e-12
5.13589e-12
-3.46335e-12
8.32772e-12
-4.24131e-12
1.20709e-11
-4.99343e-12
1.63415e-11
-5.71584e-12
2.11129e-11
-6.40514e-12
2.63632e-11
-7.05701e-12
3.20647e-11
-7.66912e-12
3.81892e-11
-8.24118e-12
4.47073e-11
-8.77425e-12
5.15914e-11
-9.26745e-12
5.88115e-11
-9.72057e-12
6.63376e-11
-1.01348e-11
7.41422e-11
-1.05116e-11
8.21969e-11
-1.08522e-11
9.04761e-11
-1.11582e-11
9.89574e-11
-1.14301e-11
1.07618e-10
-1.1668e-11
1.16433e-10
-1.18727e-11
1.25376e-10
-1.20466e-11
1.34427e-10
-1.21922e-11
1.43565e-10
-1.23096e-11
1.52772e-10
-1.23979e-11
1.62028e-10
-1.2459e-11
1.71311e-10
-1.24959e-11
1.80602e-10
-1.25095e-11
1.89886e-10
-1.24996e-11
1.99148e-10
-1.24673e-11
2.0837e-10
-1.24143e-11
2.17539e-10
-1.23417e-11
2.26641e-10
-1.22498e-11
2.35663e-10
-1.21393e-11
2.44589e-10
-1.20112e-11
2.53408e-10
-1.18676e-11
2.6211e-10
-1.17092e-11
2.70684e-10
-1.15354e-11
2.79119e-10
-1.13468e-11
2.87405e-10
-1.11454e-11
2.95532e-10
-1.09319e-11
3.03491e-10
-1.07064e-11
3.11275e-10
-1.04698e-11
3.18876e-10
-1.02233e-11
3.26286e-10
-9.96712e-12
3.33499e-10
-9.7014e-12
3.40509e-10
-9.4268e-12
3.4731e-10
-9.14399e-12
3.53894e-10
-8.85341e-12
3.60257e-10
-8.55553e-12
3.66395e-10
-8.25095e-12
3.72301e-10
-7.94033e-12
3.77971e-10
-7.62425e-12
3.83403e-10
-7.30286e-12
3.88592e-10
-6.97616e-12
3.93535e-10
-6.64446e-12
3.98229e-10
-6.30844e-12
4.0267e-10
-5.96866e-12
4.06855e-10
-5.62528e-12
4.10782e-10
-5.27834e-12
4.14449e-10
-4.92812e-12
4.17854e-10
-4.57519e-12
4.20993e-10
-4.22006e-12
4.23866e-10
-3.86278e-12
4.26473e-10
-3.50319e-12
4.2881e-10
-3.1414e-12
4.30878e-10
-2.77785e-12
4.32673e-10
-2.41299e-12
4.34196e-10
-2.047e-12
4.35446e-10
-1.6799e-12
4.36423e-10
-1.31178e-12
4.37125e-10
-9.42866e-13
4.37552e-10
-5.73413e-13
4.37704e-10
-2.03626e-13
4.37581e-10
1.66336e-13
4.37182e-10
5.36246e-13
4.36507e-10
9.05866e-13
4.35558e-10
1.27506e-12
4.34335e-10
1.64374e-12
4.32838e-10
2.01178e-12
4.31068e-10
2.37897e-12
4.29025e-10
2.74508e-12
4.26711e-10
3.10991e-12
4.24127e-10
3.47324e-12
4.21274e-10
3.83483e-12
4.18153e-10
4.19438e-12
4.14766e-10
4.55168e-12
4.11115e-10
4.9065e-12
4.07202e-10
5.25857e-12
4.0303e-10
5.60766e-12
3.98602e-10
5.95357e-12
3.93918e-10
6.29595e-12
3.88983e-10
6.63427e-12
3.83799e-10
6.96811e-12
3.7837e-10
7.29727e-12
3.727e-10
7.6216e-12
3.66794e-10
7.94069e-12
3.60655e-10
8.25389e-12
3.54287e-10
8.56068e-12
3.47697e-10
8.86072e-12
3.40889e-10
9.15362e-12
3.3387e-10
9.43886e-12
3.26645e-10
9.71595e-12
3.1922e-10
9.9844e-12
3.11604e-10
1.02434e-11
3.03803e-10
1.0492e-11
2.95825e-10
1.07298e-11
2.87679e-10
1.09568e-11
2.79374e-10
1.11724e-11
2.7092e-10
1.13752e-11
2.62324e-10
1.15643e-11
2.53599e-10
1.17394e-11
2.44755e-10
1.18997e-11
2.35805e-10
1.2044e-11
2.26761e-10
1.21716e-11
2.17635e-10
1.22821e-11
2.08441e-10
1.23745e-11
1.99194e-10
1.24477e-11
1.89908e-10
1.25004e-11
1.806e-10
1.25314e-11
1.71286e-10
1.25401e-11
1.61983e-10
1.25261e-11
1.52709e-10
1.24881e-11
1.43483e-10
1.24241e-11
1.34325e-10
1.23333e-11
1.25255e-10
1.22153e-11
1.16295e-10
1.2069e-11
1.07466e-10
1.18924e-11
9.87926e-11
1.16843e-11
9.0297e-11
1.14439e-11
8.20043e-11
1.11702e-11
7.39404e-11
1.08622e-11
6.61318e-11
1.05185e-11
5.86049e-11
1.01381e-11
5.13866e-11
9.72036e-12
4.4506e-11
9.26432e-12
3.79927e-11
8.76864e-12
3.18742e-11
8.23296e-12
2.61783e-11
7.65801e-12
2.09342e-11
7.04395e-12
1.61708e-11
6.39118e-12
1.19147e-11
5.70169e-12
8.18973e-12
4.9778e-12
5.01657e-12
4.22259e-12
2.41089e-12
3.44222e-12
3.83115e-13
2.64703e-12
-1.06565e-12
1.85044e-12
-1.95159e-12
1.06993e-12
-2.31008e-12
3.32548e-13
-2.20059e-12
-3.21549e-13
-1.72507e-12
-8.34439e-13
-1.04436e-12
-1.11801e-12
-3.83002e-13
-1.05004e-12
-5.12241e-13
-3.99142e-13
9.80513e-13
-1.0758e-12
1.75865e-12
-1.64581e-12
1.67934e-12
-1.82657e-12
1.01598e-12
-1.44001e-12
-6.68224e-14
-3.43495e-13
-1.43446e-12
1.54342e-12
-2.9724e-12
4.279e-12
-4.60607e-12
7.89146e-12
-6.28378e-12
1.23862e-11
-7.95934e-12
1.77569e-11
-9.60733e-12
2.39761e-11
-1.12099e-11
3.10136e-11
-1.27546e-11
3.8835e-11
-1.42308e-11
4.74062e-11
-1.56308e-11
5.66857e-11
-1.69503e-11
6.66298e-11
-1.81878e-11
7.71969e-11
-1.93412e-11
8.83438e-11
-2.04102e-11
1.00024e-10
-2.13963e-11
1.12193e-10
-2.23003e-11
1.24807e-10
-2.31242e-11
1.37823e-10
-2.38713e-11
1.51202e-10
-2.45424e-11
1.64906e-10
-2.51378e-11
1.78899e-10
-2.56598e-11
1.93139e-10
-2.61123e-11
2.07588e-10
-2.64987e-11
2.22214e-10
-2.68209e-11
2.36984e-10
-2.70799e-11
2.51866e-10
-2.72771e-11
2.66826e-10
-2.74165e-11
2.81834e-10
-2.75021e-11
2.96859e-10
-2.75352e-11
3.11876e-10
-2.75167e-11
3.2686e-10
-2.74501e-11
3.41782e-10
-2.73382e-11
3.56621e-10
-2.71817e-11
3.71355e-10
-2.69821e-11
3.8596e-10
-2.67427e-11
4.00414e-10
-2.6466e-11
4.14698e-10
-2.61533e-11
4.28794e-10
-2.5806e-11
4.42686e-10
-2.54257e-11
4.56354e-10
-2.50144e-11
4.69783e-10
-2.4574e-11
4.82957e-10
-2.41062e-11
4.95862e-10
-2.36121e-11
5.08484e-10
-2.30935e-11
5.20811e-10
-2.25521e-11
5.32832e-10
-2.19888e-11
5.44534e-10
-2.14044e-11
5.55908e-10
-2.08004e-11
5.66943e-10
-2.01785e-11
5.77629e-10
-1.95394e-11
5.87958e-10
-1.8884e-11
5.9792e-10
-1.82137e-11
6.07509e-10
-1.75298e-11
6.16717e-10
-1.68332e-11
6.25538e-10
-1.61243e-11
6.33966e-10
-1.54039e-11
6.41995e-10
-1.46727e-11
6.49619e-10
-1.3932e-11
6.56833e-10
-1.31826e-11
6.63633e-10
-1.24249e-11
6.70014e-10
-1.16593e-11
6.75973e-10
-1.08867e-11
6.81505e-10
-1.01081e-11
6.86608e-10
-9.32388e-12
6.91278e-10
-8.5344e-12
6.95515e-10
-7.73985e-12
6.99314e-10
-6.94081e-12
7.02675e-10
-6.13804e-12
7.05594e-10
-5.33215e-12
7.0807e-10
-4.52346e-12
7.10102e-10
-3.71223e-12
7.1169e-10
-2.89887e-12
7.12831e-10
-2.08385e-12
7.13526e-10
-1.26762e-12
7.13773e-10
-4.50575e-13
7.13573e-10
3.66802e-13
7.12925e-10
1.18405e-12
7.11829e-10
2.00079e-12
7.10287e-10
2.81674e-12
7.08299e-10
3.63156e-12
7.05866e-10
4.44479e-12
7.02989e-10
5.25597e-12
6.9967e-10
6.06471e-12
6.9591e-10
6.87055e-12
6.9171e-10
7.67295e-12
6.87073e-10
8.47136e-12
6.82002e-10
9.26529e-12
6.76499e-10
1.00542e-11
6.70568e-10
1.08375e-11
6.64212e-10
1.16146e-11
6.57435e-10
1.23851e-11
6.5024e-10
1.31483e-11
6.42633e-10
1.39034e-11
6.34618e-10
1.46494e-11
6.262e-10
1.53856e-11
6.17385e-10
1.61114e-11
6.08181e-10
1.68262e-11
5.98592e-10
1.75291e-11
5.88627e-10
1.82189e-11
5.78293e-10
1.88944e-11
5.67598e-10
1.9555e-11
5.56552e-10
2.01996e-11
5.45164e-10
2.08269e-11
5.33444e-10
2.14358e-11
5.21402e-10
2.20252e-11
5.0905e-10
2.25939e-11
4.96401e-10
2.31403e-11
4.83469e-10
2.36629e-11
4.70265e-10
2.41607e-11
4.56805e-10
2.46323e-11
4.43104e-10
2.50759e-11
4.29179e-10
2.54897e-11
4.15046e-10
2.58721e-11
4.00723e-10
2.62216e-11
3.86231e-10
2.65362e-11
3.71588e-10
2.68143e-11
3.56817e-10
2.7054e-11
3.41939e-10
2.7253e-11
3.26976e-10
2.74094e-11
3.11954e-10
2.75214e-11
2.96898e-10
2.75869e-11
2.81837e-10
2.7603e-11
2.66795e-10
2.75679e-11
2.51802e-10
2.74798e-11
2.3689e-10
2.7336e-11
2.2209e-10
2.71336e-11
2.07434e-10
2.68709e-11
1.92956e-10
2.65458e-11
1.78693e-10
2.61556e-11
1.64679e-10
2.56975e-11
1.50954e-10
2.51692e-11
1.37555e-10
2.45683e-11
1.24524e-10
2.3893e-11
1.11901e-10
2.31411e-11
9.97294e-11
2.23102e-11
8.80496e-11
2.13988e-11
7.69062e-11
2.04059e-11
6.63447e-11
1.93304e-11
5.64083e-11
1.8171e-11
4.71384e-11
1.69277e-11
3.85779e-11
1.56029e-11
3.07697e-11
1.41992e-11
2.37511e-11
1.27205e-11
1.75548e-11
1.11733e-11
1.22098e-11
9.56703e-12
7.73704e-12
7.91551e-12
4.14564e-12
6.23968e-12
1.42929e-12
4.56748e-12
-4.39659e-13
2.93769e-12
-1.51595e-12
1.407e-12
-1.88638e-12
5.22817e-14
-1.68246e-12
-1.02455e-12
-1.10221e-12
-1.68312e-12
-4.30196e-13
-1.73394e-12
-9.4107e-13
-3.35049e-13
1.32125e-12
-8.11192e-13
2.20866e-12
-9.88647e-13
1.87298e-12
-6.06409e-13
6.4765e-13
5.37656e-13
-1.21311e-12
2.61701e-12
-3.50013e-12
5.71697e-12
-6.06931e-12
9.90729e-12
-8.80231e-12
1.52332e-11
-1.16068e-11
2.16977e-11
-1.44212e-11
2.92948e-11
-1.71986e-11
3.79966e-11
-1.99087e-11
4.777e-11
-2.25281e-11
5.85744e-11
-2.5037e-11
7.03655e-11
-2.74221e-11
8.30916e-11
-2.96767e-11
9.66995e-11
-3.17954e-11
1.11134e-10
-3.37742e-11
1.2634e-10
-3.56123e-11
1.42258e-10
-3.73105e-11
1.58829e-10
-3.88699e-11
1.75998e-10
-4.02938e-11
1.93709e-10
-4.15859e-11
2.11911e-10
-4.27474e-11
2.30552e-10
-4.37796e-11
2.49581e-10
-4.46871e-11
2.68944e-10
-4.54761e-11
2.88592e-10
-4.61505e-11
3.08482e-10
-4.67125e-11
3.2857e-10
-4.71652e-11
3.48809e-10
-4.75133e-11
3.69156e-10
-4.77621e-11
3.8957e-10
-4.79158e-11
4.10013e-10
-4.79775e-11
4.30447e-10
-4.79508e-11
4.50837e-10
-4.78404e-11
4.71148e-10
-4.76503e-11
4.91349e-10
-4.73825e-11
5.11409e-10
-4.70401e-11
5.31296e-10
-4.66286e-11
5.5098e-10
-4.61518e-11
5.70437e-10
-4.56114e-11
5.89642e-10
-4.50102e-11
6.08569e-10
-4.43519e-11
6.27195e-10
-4.36397e-11
6.45497e-10
-4.28761e-11
6.63455e-10
-4.20639e-11
6.81048e-10
-4.12062e-11
6.98258e-10
-4.03055e-11
7.15069e-10
-3.93639e-11
7.31463e-10
-3.83838e-11
7.47426e-10
-3.7367e-11
7.62941e-10
-3.6316e-11
7.77997e-10
-3.52331e-11
7.92578e-10
-3.412e-11
8.06672e-10
-3.29785e-11
8.20269e-10
-3.18107e-11
8.33357e-10
-3.06188e-11
8.45926e-10
-2.94039e-11
8.57969e-10
-2.81673e-11
8.69476e-10
-2.69105e-11
8.80439e-10
-2.56351e-11
8.9085e-10
-2.43428e-11
9.00702e-10
-2.30346e-11
9.09989e-10
-2.17117e-11
9.18705e-10
-2.03751e-11
9.26844e-10
-1.90262e-11
9.34401e-10
-1.76663e-11
9.41372e-10
-1.62962e-11
9.47754e-10
-1.49166e-11
9.53542e-10
-1.35282e-11
9.58734e-10
-1.21321e-11
9.63325e-10
-1.07295e-11
9.67314e-10
-9.32112e-12
9.70698e-10
-7.90763e-12
9.73476e-10
-6.48971e-12
9.75645e-10
-5.06809e-12
9.77205e-10
-3.64355e-12
9.78155e-10
-2.21683e-12
9.78494e-10
-7.8874e-13
9.78221e-10
6.39934e-13
9.77336e-10
2.06846e-12
9.7584e-10
3.49624e-12
9.73734e-10
4.92265e-12
9.71018e-10
6.34697e-12
9.67695e-10
7.76842e-12
9.63765e-10
9.18619e-12
9.5923e-10
1.05995e-11
9.54093e-10
1.20076e-11
9.48357e-10
1.34096e-11
9.42024e-10
1.48045e-11
9.35098e-10
1.61915e-11
9.27582e-10
1.75695e-11
9.19481e-10
1.89376e-11
9.10801e-10
2.02947e-11
9.01547e-10
2.164e-11
8.91723e-10
2.29723e-11
8.81336e-10
2.42901e-11
8.70393e-10
2.5592e-11
8.58902e-10
2.68768e-11
8.4687e-10
2.81433e-11
8.34306e-10
2.939e-11
8.21219e-10
3.06154e-11
8.0762e-10
3.18177e-11
7.93519e-10
3.29951e-11
7.78928e-10
3.4146e-11
7.63858e-10
3.52687e-11
7.48324e-10
3.63612e-11
7.32339e-10
3.74212e-11
7.15917e-10
3.84465e-11
6.99075e-10
3.9435e-11
6.81829e-10
4.0385e-11
6.64199e-10
4.12935e-11
6.46202e-10
4.21581e-11
6.27858e-10
4.29763e-11
6.09189e-10
4.37456e-11
5.90216e-10
4.44628e-11
5.70963e-10
4.51249e-11
5.51454e-10
4.57292e-11
5.31717e-10
4.62728e-11
5.11779e-10
4.67526e-11
4.91668e-10
4.71653e-11
4.71414e-10
4.75071e-11
4.51049e-10
4.7774e-11
4.30606e-10
4.79635e-11
4.1012e-10
4.80723e-11
3.89628e-10
4.8096e-11
3.69166e-10
4.80302e-11
3.48773e-10
4.78718e-11
3.28491e-10
4.76172e-11
3.08363e-10
4.7262e-11
2.88433e-10
4.68018e-11
2.68745e-10
4.62331e-11
2.49348e-10
4.5552e-11
2.3029e-10
4.47547e-11
2.11622e-10
4.38369e-11
1.93394e-10
4.27949e-11
1.75662e-10
4.16251e-11
1.58479e-10
4.03245e-11
1.41899e-10
3.88896e-11
1.2598e-10
3.73176e-11
1.10776e-10
3.56078e-11
9.63463e-11
3.37594e-11
8.2747e-11
3.1771e-11
7.00319e-11
2.96427e-11
5.82547e-11
2.73789e-11
4.74672e-11
2.49862e-11
3.77157e-11
2.24725e-11
2.90394e-11
1.98498e-11
2.14718e-11
1.71352e-11
1.50368e-11
1.43529e-11
9.74113e-12
1.1537e-11
5.57319e-12
8.73456e-12
2.49858e-12
6.00968e-12
4.49542e-13
3.44937e-12
-6.80335e-13
1.17179e-12
-1.03657e-12
-6.70229e-13
-8.27506e-13
-1.88197e-12
-3.56215e-13
-2.20687e-12
-1.29758e-12
-2.02953e-13
1.51957e-12
-2.96776e-13
2.31031e-12
9.00142e-14
1.48964e-12
1.23954e-12
-4.9897e-13
3.36345e-12
-3.3315e-12
6.61889e-12
-6.75452e-12
1.11068e-11
-1.05658e-11
1.69063e-11
-1.4607e-11
2.40607e-11
-1.87577e-11
3.25771e-11
-2.29317e-11
4.24463e-11
-2.70636e-11
5.36414e-11
-3.11051e-11
6.61296e-11
-3.50174e-11
7.98637e-11
-3.87726e-11
9.47912e-11
-4.23512e-11
1.10854e-10
-4.57402e-11
1.27991e-10
-4.89305e-11
1.46135e-10
-5.19161e-11
1.65221e-10
-5.46939e-11
1.8518e-10
-5.72642e-11
2.05941e-10
-5.96294e-11
2.27435e-10
-6.17925e-11
2.49601e-10
-6.37559e-11
2.72374e-10
-6.55218e-11
2.95689e-10
-6.70945e-11
3.19481e-10
-6.84805e-11
3.43689e-10
-6.96873e-11
3.68254e-10
-7.07191e-11
3.9312e-10
-7.15793e-11
4.18233e-10
-7.22743e-11
4.43535e-10
-7.28121e-11
4.68972e-10
-7.31987e-11
4.94495e-10
-7.34388e-11
5.20058e-10
-7.35385e-11
5.45611e-10
-7.35045e-11
5.7111e-10
-7.33421e-11
5.96517e-10
-7.30562e-11
6.21788e-10
-7.26518e-11
6.46883e-10
-7.21346e-11
6.71765e-10
-7.1511e-11
6.96399e-10
-7.07862e-11
7.20751e-10
-6.99637e-11
7.44789e-10
-6.90481e-11
7.68483e-10
-6.80449e-11
7.91802e-10
-6.69587e-11
8.14719e-10
-6.57932e-11
8.37208e-10
-6.45528e-11
8.59243e-10
-6.32422e-11
8.80801e-10
-6.18652e-11
9.0186e-10
-6.04248e-11
9.22401e-10
-5.89247e-11
9.42403e-10
-5.73686e-11
9.61846e-10
-5.57596e-11
9.80715e-10
-5.41009e-11
9.98991e-10
-5.23954e-11
1.01666e-09
-5.06463e-11
1.0337e-09
-4.88566e-11
1.05011e-09
-4.7029e-11
1.06587e-09
-4.51657e-11
1.08098e-09
-4.32688e-11
1.09541e-09
-4.13407e-11
1.10916e-09
-3.93838e-11
1.12221e-09
-3.74005e-11
1.13457e-09
-3.53925e-11
1.14622e-09
-3.33613e-11
1.15716e-09
-3.13092e-11
1.16737e-09
-2.92379e-11
1.17685e-09
-2.71493e-11
1.1856e-09
-2.50445e-11
1.19361e-09
-2.29248e-11
1.20087e-09
-2.07918e-11
1.20738e-09
-1.8647e-11
1.21315e-09
-1.64918e-11
1.21815e-09
-1.43276e-11
1.2224e-09
-1.21553e-11
1.22589e-09
-9.97613e-12
1.22861e-09
-7.79126e-12
1.23057e-09
-5.60185e-12
1.23176e-09
-3.40908e-12
1.23219e-09
-1.2142e-12
1.23185e-09
9.81609e-13
1.23074e-09
3.17731e-12
1.22886e-09
5.37192e-12
1.22622e-09
7.56439e-12
1.22281e-09
9.7535e-12
1.21864e-09
1.1938e-11
1.21371e-09
1.41168e-11
1.20802e-09
1.62887e-11
1.20158e-09
1.84524e-11
1.19438e-09
2.06064e-11
1.18644e-09
2.27495e-11
1.17775e-09
2.48801e-11
1.16832e-09
2.69968e-11
1.15816e-09
2.90981e-11
1.14727e-09
3.11824e-11
1.13566e-09
3.32482e-11
1.12334e-09
3.52934e-11
1.11032e-09
3.73161e-11
1.09659e-09
3.93143e-11
1.08219e-09
4.1286e-11
1.0671e-09
4.32293e-11
1.05135e-09
4.51417e-11
1.03494e-09
4.70208e-11
1.01789e-09
4.88642e-11
1.00022e-09
5.06693e-11
9.81933e-10
5.24332e-11
9.63048e-10
5.41532e-11
9.43583e-10
5.58264e-11
9.23554e-10
5.74497e-11
9.02981e-10
5.90193e-11
8.81883e-10
6.05319e-11
8.60283e-10
6.19847e-11
8.38202e-10
6.3374e-11
8.15666e-10
6.46954e-11
7.92697e-10
6.59451e-11
7.69323e-10
6.71191e-11
7.45572e-10
6.82133e-11
7.21474e-10
6.92229e-11
6.97059e-10
7.01435e-11
6.72361e-10
7.09706e-11
6.47415e-10
7.16996e-11
6.22254e-10
7.23255e-11
5.96918e-10
7.28428e-11
5.71446e-10
7.32461e-11
5.45879e-10
7.35302e-11
5.2026e-10
7.36903e-11
4.94635e-10
7.37207e-11
4.69051e-10
7.36148e-11
4.43555e-10
7.33672e-11
4.18199e-10
7.29726e-11
3.93035e-10
7.24253e-11
3.68118e-10
7.17188e-11
3.43504e-10
7.08473e-11
3.19252e-10
6.98051e-11
2.95419e-10
6.85864e-11
2.7207e-10
6.71857e-11
2.49266e-10
6.55979e-11
2.27073e-10
6.3818e-11
2.05555e-10
6.18413e-11
1.84781e-10
5.96638e-11
1.64818e-10
5.72816e-11
1.45732e-10
5.46931e-11
1.27591e-10
5.18986e-11
1.10461e-10
4.88986e-11
9.44095e-11
4.56948e-11
7.94973e-11
4.22929e-11
6.5783e-11
3.87025e-11
5.33191e-11
3.49373e-11
4.21496e-11
3.10167e-11
3.23113e-11
2.69696e-11
2.38295e-11
2.28336e-11
1.67106e-11
1.86578e-11
1.09405e-11
1.4509e-11
6.48113e-12
1.04758e-11
3.26031e-12
6.6753e-12
1.16304e-12
3.26458e-12
3.51751e-14
4.48588e-13
-3.26122e-13
-1.51983e-12
-2.1303e-13
-2.31976e-12
-1.51107e-12
-1.67994e-14
1.54448e-12
3.55608e-13
1.94745e-12
1.44637e-12
3.94488e-13
3.52053e-12
-2.57384e-12
6.77414e-12
-6.58825e-12
1.13577e-11
-1.13424e-11
1.7376e-11
-1.65898e-11
2.49034e-11
-2.21344e-11
3.39794e-11
-2.78287e-11
4.46118e-11
-3.356e-11
5.67911e-11
-3.92426e-11
7.04916e-11
-4.48073e-11
8.56774e-11
-5.02029e-11
1.02296e-10
-5.53921e-11
1.20289e-10
-6.03466e-11
1.39594e-10
-6.50456e-11
1.60141e-10
-6.94756e-11
1.81857e-10
-7.36278e-11
2.04665e-10
-7.74971e-11
2.28488e-10
-8.1083e-11
2.53245e-10
-8.4388e-11
2.78861e-10
-8.74135e-11
3.05263e-10
-9.01608e-11
3.32377e-10
-9.26344e-11
3.60125e-10
-9.48419e-11
3.88432e-10
-9.67911e-11
4.17229e-10
-9.84888e-11
4.4645e-10
-9.99407e-11
4.76026e-10
-1.01153e-10
5.0589e-10
-1.02136e-10
5.35979e-10
-1.02899e-10
5.6623e-10
-1.03449e-10
5.96584e-10
-1.03792e-10
6.26985e-10
-1.03939e-10
6.57377e-10
-1.03898e-10
6.87708e-10
-1.03675e-10
7.17931e-10
-1.03277e-10
7.47995e-10
-1.02713e-10
7.77851e-10
-1.01991e-10
8.07457e-10
-1.01118e-10
8.36771e-10
-1.001e-10
8.65753e-10
-9.8945e-11
8.94363e-10
-9.76584e-11
9.22567e-10
-9.62475e-11
9.50327e-10
-9.47186e-11
9.77612e-10
-9.30776e-11
1.00439e-09
-9.13305e-11
1.03063e-09
-8.94834e-11
1.0563e-09
-8.75415e-11
1.08139e-09
-8.55094e-11
1.10585e-09
-8.33926e-11
1.12968e-09
-8.11961e-11
1.15285e-09
-7.89244e-11
1.17533e-09
-7.65817e-11
1.19711e-09
-7.41725e-11
1.21816e-09
-7.17014e-11
1.23848e-09
-6.91723e-11
1.25803e-09
-6.65887e-11
1.27682e-09
-6.39538e-11
1.29482e-09
-6.1271e-11
1.31203e-09
-5.8544e-11
1.32842e-09
-5.5776e-11
1.34399e-09
-5.29698e-11
1.35872e-09
-5.0128e-11
1.37262e-09
-4.72533e-11
1.38566e-09
-4.43487e-11
1.39783e-09
-4.14167e-11
1.40914e-09
-3.84595e-11
1.41958e-09
-3.5479e-11
1.42913e-09
-3.24773e-11
1.43779e-09
-2.94565e-11
1.44557e-09
-2.64189e-11
1.45244e-09
-2.33663e-11
1.45841e-09
-2.03006e-11
1.46348e-09
-1.72233e-11
1.46764e-09
-1.41362e-11
1.47089e-09
-1.10409e-11
1.47323e-09
-7.93924e-12
1.47465e-09
-4.83277e-12
1.47516e-09
-1.72326e-12
1.47476e-09
1.3877e-12
1.47343e-09
4.49863e-12
1.4712e-09
7.60802e-12
1.46805e-09
1.07142e-11
1.46399e-09
1.38155e-11
1.45901e-09
1.69102e-11
1.45313e-09
1.99966e-11
1.44635e-09
2.30731e-11
1.43867e-09
2.61377e-11
1.43008e-09
2.91886e-11
1.42061e-09
3.22236e-11
1.41025e-09
3.52407e-11
1.39901e-09
3.82379e-11
1.38689e-09
4.1213e-11
1.37391e-09
4.41639e-11
1.36007e-09
4.70881e-11
1.34538e-09
4.99827e-11
1.32985e-09
5.2845e-11
1.31349e-09
5.56722e-11
1.29632e-09
5.84618e-11
1.27834e-09
6.12106e-11
1.25956e-09
6.39153e-11
1.24001e-09
6.65724e-11
1.2197e-09
6.91783e-11
1.19863e-09
7.17296e-11
1.17685e-09
7.42223e-11
1.15435e-09
7.66523e-11
1.13116e-09
7.90154e-11
1.1073e-09
8.13073e-11
1.08279e-09
8.35232e-11
1.05767e-09
8.56582e-11
1.03194e-09
8.77076e-11
1.00565e-09
8.96665e-11
9.78818e-10
9.15294e-11
9.51474e-10
9.32903e-11
9.23649e-10
9.49437e-11
8.95378e-10
9.64837e-11
8.66696e-10
9.79039e-11
8.37641e-10
9.91983e-11
8.08252e-10
1.0036e-10
7.78569e-10
1.01383e-10
7.48634e-10
1.0226e-10
7.18492e-10
1.02983e-10
6.88191e-10
1.03546e-10
6.57781e-10
1.03941e-10
6.2731e-10
1.04161e-10
5.96833e-10
1.04197e-10
5.66405e-10
1.04043e-10
5.36084e-10
1.03689e-10
5.05928e-10
1.03128e-10
4.76e-10
1.02353e-10
4.46364e-10
1.01355e-10
4.17086e-10
1.00126e-10
3.88233e-10
9.86581e-11
3.59875e-10
9.69441e-11
3.32083e-10
9.49765e-11
3.04932e-10
9.27484e-11
2.78497e-10
9.02534e-11
2.52851e-10
8.74856e-11
2.28072e-10
8.44408e-11
2.04239e-10
8.11152e-11
1.81428e-10
7.75059e-11
1.59714e-10
7.36127e-11
1.39173e-10
6.94384e-11
1.19877e-10
6.49884e-11
1.01899e-10
6.02715e-11
8.52999e-11
5.53019e-11
7.01393e-11
5.00993e-11
5.64662e-11
4.46913e-11
4.43189e-11
3.91173e-11
3.37227e-11
3.3429e-11
2.46858e-11
2.76933e-11
1.71934e-11
2.19987e-11
1.12074e-11
1.64612e-11
6.65954e-12
1.12287e-11
3.43892e-12
6.48923e-12
1.38953e-12
2.49249e-12
3.21579e-13
-4.54723e-13
-2.93062e-14
-1.97003e-12
-1.5404e-12
1.89643e-13
1.35624e-12
1.08436e-12
1.04736e-12
2.98132e-12
-1.48732e-12
6.08254e-12
-5.67926e-12
1.05764e-11
-1.10914e-11
1.6602e-11
-1.73726e-11
2.42538e-11
-2.4241e-11
3.35963e-11
-3.14717e-11
4.46638e-11
-3.88897e-11
5.74614e-11
-4.63569e-11
7.19812e-11
-5.37628e-11
8.81936e-11
-6.10217e-11
1.06058e-10
-6.8069e-11
1.2552e-10
-7.48558e-11
1.46517e-10
-8.13445e-11
1.68979e-10
-8.75072e-11
1.92832e-10
-9.33248e-11
2.17995e-10
-9.87849e-11
2.44382e-10
-1.03881e-10
2.71909e-10
-1.0861e-10
3.0049e-10
-1.12973e-10
3.30042e-10
-1.16969e-10
3.60482e-10
-1.20601e-10
3.91725e-10
-1.23876e-10
4.23685e-10
-1.26803e-10
4.56279e-10
-1.2939e-10
4.8943e-10
-1.31644e-10
5.23063e-10
-1.33573e-10
5.57099e-10
-1.35187e-10
5.91462e-10
-1.36498e-10
6.26081e-10
-1.37517e-10
6.60887e-10
-1.38252e-10
6.9581e-10
-1.38715e-10
7.30786e-10
-1.38916e-10
7.65754e-10
-1.38867e-10
8.00654e-10
-1.38575e-10
8.35429e-10
-1.38051e-10
8.70023e-10
-1.37305e-10
9.0438e-10
-1.36349e-10
9.38451e-10
-1.35191e-10
9.7219e-10
-1.33839e-10
1.00555e-09
-1.32303e-10
1.03848e-09
-1.30592e-10
1.07095e-09
-1.28714e-10
1.10291e-09
-1.26678e-10
1.13432e-09
-1.24492e-10
1.16516e-09
-1.22164e-10
1.19537e-09
-1.19702e-10
1.22494e-09
-1.17112e-10
1.25383e-09
-1.14401e-10
1.28202e-09
-1.11576e-10
1.30947e-09
-1.08644e-10
1.33615e-09
-1.05611e-10
1.36205e-09
-1.02482e-10
1.38715e-09
-9.92645e-11
1.41141e-09
-9.59632e-11
1.43482e-09
-9.25835e-11
1.45736e-09
-8.91301e-11
1.47901e-09
-8.56075e-11
1.49976e-09
-8.20206e-11
1.51959e-09
-7.83741e-11
1.53849e-09
-7.4672e-11
1.55644e-09
-7.09182e-11
1.57343e-09
-6.71163e-11
1.58944e-09
-6.32702e-11
1.60448e-09
-5.93835e-11
1.61852e-09
-5.54597e-11
1.63156e-09
-5.15016e-11
1.64359e-09
-4.75118e-11
1.65461e-09
-4.34935e-11
1.6646e-09
-3.94495e-11
1.67357e-09
-3.53826e-11
1.6815e-09
-3.12953e-11
1.68839e-09
-2.71902e-11
1.69423e-09
-2.30695e-11
1.69903e-09
-1.89355e-11
1.70278e-09
-1.47905e-11
1.70548e-09
-1.06367e-11
1.70712e-09
-6.47654e-12
1.70771e-09
-2.31219e-12
1.70724e-09
1.85424e-12
1.70572e-09
6.02068e-12
1.70314e-09
1.0185e-11
1.69951e-09
1.43448e-11
1.69483e-09
1.8498e-11
1.6891e-09
2.26423e-11
1.68232e-09
2.67754e-11
1.6745e-09
3.08949e-11
1.66564e-09
3.49983e-11
1.65574e-09
3.9083e-11
1.64482e-09
4.31462e-11
1.63288e-09
4.71852e-11
1.61992e-09
5.11972e-11
1.60595e-09
5.51794e-11
1.59099e-09
5.91287e-11
1.57503e-09
6.30417e-11
1.5581e-09
6.69147e-11
1.5402e-09
7.07442e-11
1.52135e-09
7.45264e-11
1.50155e-09
7.82575e-11
1.48083e-09
8.19335e-11
1.45919e-09
8.555e-11
1.43666e-09
8.91022e-11
1.41326e-09
9.25856e-11
1.38899e-09
9.59951e-11
1.36389e-09
9.93258e-11
1.33797e-09
1.02572e-10
1.31125e-09
1.05728e-10
1.28377e-09
1.08788e-10
1.25555e-09
1.11746e-10
1.22661e-09
1.14596e-10
1.19699e-09
1.17331e-10
1.16671e-09
1.19943e-10
1.13581e-09
1.22427e-10
1.10433e-09
1.24774e-10
1.0723e-09
1.26977e-10
1.03975e-09
1.29028e-10
1.00674e-09
1.30918e-10
9.73294e-10
1.3264e-10
9.39469e-10
1.34185e-10
9.05308e-10
1.35544e-10
8.7086e-10
1.36708e-10
8.36176e-10
1.37666e-10
8.0131e-10
1.38411e-10
7.66319e-10
1.38932e-10
7.31261e-10
1.39219e-10
6.96195e-10
1.39262e-10
6.61185e-10
1.39052e-10
6.26297e-10
1.38577e-10
5.91599e-10
1.37826e-10
5.5716e-10
1.36791e-10
5.23053e-10
1.35461e-10
4.89353e-10
1.33826e-10
4.56136e-10
1.31875e-10
4.2348e-10
1.29599e-10
3.91467e-10
1.26989e-10
3.60178e-10
1.24036e-10
3.29698e-10
1.20734e-10
3.00111e-10
1.17073e-10
2.71501e-10
1.1305e-10
2.43955e-10
1.0866e-10
2.17559e-10
1.03902e-10
1.92395e-10
9.87763e-11
1.68545e-10
9.32867e-11
1.46091e-10
8.74421e-11
1.25108e-10
8.12554e-11
1.05664e-10
7.47457e-11
8.7823e-11
6.79402e-11
7.16382e-11
6.08763e-11
5.71514e-11
5.36042e-11
4.43891e-11
4.61903e-11
3.33621e-11
3.87195e-11
2.40598e-11
3.13009e-11
1.64458e-11
2.40741e-11
1.04556e-11
1.72179e-11
5.99597e-12
1.09545e-11
2.91945e-12
5.56672e-12
1.05641e-12
1.40725e-12
1.77266e-13
-1.09183e-12
-1.36252e-12
4.07175e-13
9.57546e-13
1.86844e-12
-4.1266e-13
4.60895e-12
-4.22956e-12
8.81133e-12
-9.88596e-12
1.46264e-11
-1.69084e-11
2.21714e-11
-2.49145e-11
3.15265e-11
-3.35903e-11
4.27434e-11
-4.26846e-11
5.58497e-11
-5.19938e-11
7.08488e-11
-6.13558e-11
8.7727e-11
-7.06404e-11
1.0645e-10
-7.97467e-11
1.26973e-10
-8.85945e-11
1.49239e-10
-9.71231e-11
1.7318e-10
-1.05286e-10
1.98722e-10
-1.13048e-10
2.25785e-10
-1.20382e-10
2.54281e-10
-1.27274e-10
2.84118e-10
-1.33715e-10
3.15205e-10
-1.397e-10
3.47452e-10
-1.45224e-10
3.8077e-10
-1.50288e-10
4.15065e-10
-1.54895e-10
4.50242e-10
-1.59054e-10
4.8621e-10
-1.62775e-10
5.2288e-10
-1.66065e-10
5.60168e-10
-1.68933e-10
5.97987e-10
-1.71389e-10
6.36251e-10
-1.73449e-10
6.74876e-10
-1.75123e-10
7.13786e-10
-1.76424e-10
7.52902e-10
-1.77366e-10
7.92147e-10
-1.77961e-10
8.31452e-10
-1.78223e-10
8.70747e-10
-1.78163e-10
9.09967e-10
-1.77793e-10
9.49045e-10
-1.77128e-10
9.8792e-10
-1.7618e-10
1.02653e-09
-1.74961e-10
1.06482e-09
-1.73483e-10
1.10274e-09
-1.71757e-10
1.14024e-09
-1.69796e-10
1.17726e-09
-1.6761e-10
1.21375e-09
-1.6521e-10
1.24968e-09
-1.62606e-10
1.285e-09
-1.5981e-10
1.31966e-09
-1.56831e-10
1.35364e-09
-1.53679e-10
1.38689e-09
-1.50362e-10
1.41938e-09
-1.46891e-10
1.45107e-09
-1.43272e-10
1.48194e-09
-1.39515e-10
1.51196e-09
-1.35627e-10
1.5411e-09
-1.31616e-10
1.56932e-09
-1.27491e-10
1.59662e-09
-1.23257e-10
1.62295e-09
-1.18922e-10
1.64831e-09
-1.14491e-10
1.67268e-09
-1.09972e-10
1.69603e-09
-1.05369e-10
1.71834e-09
-1.00689e-10
1.73961e-09
-9.59369e-11
1.75981e-09
-9.11177e-11
1.77893e-09
-8.62363e-11
1.79696e-09
-8.12977e-11
1.81388e-09
-7.63066e-11
1.82968e-09
-7.12671e-11
1.84436e-09
-6.61828e-11
1.85791e-09
-6.10577e-11
1.87031e-09
-5.58954e-11
1.88156e-09
-5.07e-11
1.89166e-09
-4.54748e-11
1.90058e-09
-4.02231e-11
1.90834e-09
-3.49482e-11
1.91492e-09
-2.9653e-11
1.92033e-09
-2.43406e-11
1.92455e-09
-1.90138e-11
1.92759e-09
-1.36757e-11
1.92945e-09
-8.32932e-12
1.93011e-09
-2.97744e-12
1.92959e-09
2.37724e-12
1.92788e-09
7.73193e-12
1.92498e-09
1.30837e-11
1.92089e-09
1.84297e-11
1.91562e-09
2.37671e-11
1.90917e-09