/*--------------------------------*- C++ -*----------------------------------*\
  =========                 |
  \\      /  F ield         | OpenFOAM: The Open Source CFD Toolbox
   \\    /   O peration     | Website:  https://openfoam.org
    \\  /    A nd           | Version:  7
     \\/     M anipulation  |
\*---------------------------------------------------------------------------*/
FoamFile
{
    version     2.0;
    format      ascii;
    class       volScalarField;
    location    "0.4125";
    object      p;
}
// * * * * * * * * * * * * * * * * * * * * * * * * * * * * * * * * * * * * * //

dimensions      [0 2 -2 0 0 0 0];

internalField   nonuniform List<scalar> 
12800
(
-1.10966e-06
0.00018018
-0.000905097
-0.00334954
-0.00690789
-0.0113331
-0.0163919
-0.0218711
-0.0275841
-0.0333707
-0.0390945
-0.0446399
-0.0499099
-0.0548229
-0.0593111
-0.0633183
-0.0667987
-0.0697156
-0.0720402
-0.0737507
-0.0748314
-0.0752718
-0.075066
-0.0742125
-0.0727132
-0.070573
-0.0677996
-0.064403
-0.060395
-0.0557893
-0.0506007
-0.0448453
-0.03854
-0.0317024
-0.0243508
-0.0165034
-0.00817919
0.000603263
0.00982517
0.0194679
0.0295132
0.039943
0.0507395
0.0618855
0.0733642
0.0851593
0.0972551
0.109636
0.122289
0.135198
0.148351
0.161735
0.175337
0.189147
0.203154
0.217346
0.231715
0.246251
0.260946
0.275791
0.29078
0.305905
0.32116
0.336539
0.352036
0.367646
0.383365
0.399187
0.41511
0.431129
0.44724
0.463441
0.479729
0.4961
0.512553
0.529085
0.545693
0.562376
0.579132
0.595957
0.61285
0.629809
0.646832
0.663915
0.681058
0.698256
0.715507
0.732807
0.750154
0.767543
0.78497
0.80243
0.819919
0.837431
0.854958
0.872496
0.890036
0.907571
0.925092
0.942588
0.960051
0.977469
0.99483
1.01212
1.02933
1.04644
1.06344
1.0803
1.09702
1.11357
1.12994
1.1461
1.16204
1.17772
1.19313
1.20824
1.22303
1.23747
1.25153
1.26519
1.27843
1.2912
1.30348
1.31525
1.32648
1.33713
1.34718
1.3566
1.36537
1.37345
1.38084
1.38749
1.39339
1.39853
1.40288
1.40644
1.40919
1.41113
1.41226
1.41258
1.41209
1.41082
1.40878
1.40601
1.40253
1.39839
1.39366
1.3884
1.38268
1.37661
1.3703
1.36388
1.35751
1.35138
1.34568
1.34068
1.33663
1.33382
1.33254
1.33271
-0.000184087
-1.1575e-06
-0.00100402
-0.00313638
-0.00617457
-0.00994293
-0.0142675
-0.0189776
-0.023917
-0.0289464
-0.0339437
-0.0388027
-0.043432
-0.047754
-0.0517026
-0.0552226
-0.0582681
-0.0608014
-0.0627923
-0.0642174
-0.0650591
-0.0653047
-0.0649462
-0.0639795
-0.0624042
-0.0602229
-0.0574407
-0.0540654
-0.0501063
-0.0455748
-0.0404836
-0.0348465
-0.0286785
-0.0219951
-0.0148126
-0.00714775
0.000982577
0.00956119
0.0185709
0.0279945
0.0378149
0.0480154
0.0585793
0.0694905
0.0807331
0.0922917
0.104151
0.116298
0.128717
0.141395
0.154319
0.167478
0.180859
0.194451
0.208243
0.222226
0.23639
0.250725
0.265224
0.279878
0.29468
0.309623
0.324699
0.339904
0.355231
0.370676
0.386232
0.401895
0.417662
0.433527
0.449488
0.465541
0.481683
0.49791
0.514219
0.530608
0.547075
0.563615
0.580228
0.59691
0.61366
0.630473
0.647348
0.664281
0.68127
0.698312
0.715404
0.73254
0.749719
0.766935
0.784184
0.80146
0.818759
0.836075
0.853401
0.870729
0.888053
0.905364
0.922653
0.939911
0.957128
0.974291
0.99139
1.00841
1.02534
1.04217
1.05887
1.07544
1.09185
1.10809
1.12414
1.13998
1.15558
1.17094
1.18601
1.20079
1.21524
1.22935
1.24308
1.25642
1.26933
1.28178
1.29376
1.30524
1.31618
1.32657
1.33637
1.34556
1.35412
1.36203
1.36925
1.37578
1.3816
1.38668
1.39101
1.3946
1.39741
1.39947
1.40076
1.40129
1.40107
1.40012
1.39846
1.39612
1.39315
1.38957
1.38546
1.38087
1.37589
1.37061
1.36514
1.35959
1.3541
1.34885
1.344
1.33976
1.33631
1.33388
1.3327
1.33287
0.000899796
0.00100259
-1.0486e-06
-0.0019852
-0.00473497
-0.00810818
-0.0119644
-0.0161617
-0.0205669
-0.0250585
-0.0295277
-0.0338782
-0.0380253
-0.0418959
-0.0454273
-0.0485661
-0.0512674
-0.0534939
-0.0552153
-0.0564072
-0.0570511
-0.0571332
-0.056644
-0.0555779
-0.0539328
-0.0517095
-0.0489115
-0.0455448
-0.0416169
-0.0371376
-0.0321176
-0.0265694
-0.020506
-0.0139417
-0.00689103
0.00063067
0.00860781
0.0170245
0.0258649
0.0351128
0.0447524
0.0547678
0.0651434
0.0758638
0.086914
0.0982794
0.109946
0.121899
0.134126
0.146613
0.159349
0.172321
0.185518
0.198928
0.212543
0.22635
0.240342
0.254509
0.268843
0.283336
0.29798
0.312768
0.327694
0.342751
0.357933
0.373236
0.388653
0.40418
0.419813
0.435548
0.451379
0.467304
0.48332
0.499422
0.515607
0.531873
0.548217
0.564634
0.581124
0.597682
0.614306
0.630994
0.647741
0.664545
0.681402
0.698309
0.715263
0.732259
0.749293
0.766361
0.783458
0.800577
0.817715
0.834864
0.852018
0.86917
0.886311
0.903434
0.920529
0.937586
0.954596
0.971547
0.988428
1.00522
1.02192
1.03851
1.05498
1.0713
1.08746
1.10344
1.11923
1.13481
1.15015
1.16523
1.18004
1.19454
1.20873
1.22257
1.23603
1.24911
1.26176
1.27397
1.2857
1.29695
1.30767
1.31784
1.32745
1.33647
1.34487
1.35264
1.35975
1.36619
1.37194
1.37699
1.38132
1.38493
1.38781
1.38996
1.39139
1.3921
1.3921
1.39141
1.39005
1.38807
1.38548
1.38234
1.3787
1.37463
1.37021
1.36551
1.36063
1.3557
1.35083
1.34616
1.34186
1.33807
1.33496
1.3327
1.33153
1.33159
0.00334567
0.00313827
0.00198157
-7.87889e-06
-0.00265094
-0.00582421
-0.00940773
-0.0132807
-0.0173282
-0.0214442
-0.0255321
-0.0295053
-0.0332865
-0.0368082
-0.0400115
-0.0428459
-0.0452685
-0.0472434
-0.0487407
-0.0497363
-0.0502112
-0.0501513
-0.0495463
-0.0483897
-0.0466782
-0.0444116
-0.0415922
-0.0382244
-0.0343147
-0.0298714
-0.024904
-0.0194234
-0.0134417
-0.00697157
-2.65496e-05
0.00737931
0.0152315
0.0235154
0.0322159
0.041318
0.0508067
0.0606671
0.0708843
0.0814437
0.0923311
0.103532
0.115034
0.126822
0.138884
0.151207
0.16378
0.176591
0.189628
0.202881
0.21634
0.229995
0.243837
0.257856
0.272045
0.286395
0.3009
0.315551
0.330342
0.345268
0.360322
0.375498
0.390791
0.406196
0.421709
0.437325
0.45304
0.46885
0.484751
0.50074
0.516813
0.532967
0.549198
0.565504
0.581882
0.598328
0.614838
0.631411
0.648042
0.664728
0.681466
0.698252
0.715081
0.73195
0.748855
0.76579
0.78275
0.799729
0.816723
0.833724
0.850725
0.86772
0.8847
0.901657
0.918581
0.935464
0.952293
0.969059
0.98575
1.00235
1.01885
1.03524
1.05149
1.0676
1.08355
1.09931
1.11488
1.13023
1.14535
1.1602
1.17478
1.18907
1.20302
1.21664
1.22989
1.24274
1.25518
1.26719
1.27873
1.28978
1.30032
1.31033
1.31979
1.32867
1.33695
1.34461
1.35163
1.35801
1.36371
1.36874
1.37308
1.37672
1.37966
1.3819
1.38345
1.38431
1.38449
1.38402
1.38292
1.38121
1.37894
1.37615
1.37288
1.36921
1.3652
1.36093
1.35649
1.35199
1.34752
1.34323
1.33924
1.33568
1.3327
1.33044
1.32909
1.32879
0.00691606
0.00618837
0.00473485
0.00262319
-3.05636e-05
-0.00312055
-0.00654382
-0.0101986
-0.0139871
-0.0178174
-0.0216046
-0.0252718
-0.0287497
-0.0319765
-0.0348983
-0.0374679
-0.0396449
-0.0413952
-0.0426902
-0.0435065
-0.0438254
-0.0436326
-0.0429174
-0.041673
-0.0398953
-0.0375832
-0.034738
-0.0313632
-0.0274642
-0.0230481
-0.0181234
-0.0126997
-0.00678811
-0.000400113
0.00645182
0.0137547
0.0214951
0.0296593
0.0382332
0.0472027
0.0565537
0.066272
0.0763435
0.0867544
0.097491
0.10854
0.119888
0.131522
0.14343
0.1556
0.16802
0.180678
0.193565
0.206669
0.219981
0.23349
0.247189
0.261067
0.275117
0.289331
0.303702
0.318222
0.332884
0.347683
0.362612
0.377665
0.392838
0.408124
0.42352
0.439021
0.454622
0.470319
0.486108
0.501986
0.517949
0.533993
0.550115
0.566311
0.582579
0.598914
0.615313
0.631773
0.648291
0.664862
0.681483
0.698149
0.714857
0.731603
0.74838
0.765186
0.782013
0.798857
0.815711
0.832569
0.849424
0.866268
0.883093
0.899891
0.916653
0.933368
0.950026
0.966616
0.983127
0.999546
1.01586
1.03205
1.04811
1.06402
1.07977
1.09533
1.11069
1.12584
1.14075
1.15539
1.16977
1.18384
1.19759
1.211
1.22405
1.23671
1.24896
1.26078
1.27215
1.28303
1.29342
1.30328
1.3126
1.32136
1.32953
1.3371
1.34406
1.35038
1.35605
1.36107
1.36542
1.36909
1.3721
1.37443
1.37609
1.37709
1.37745
1.37717
1.37629
1.37483
1.37283
1.37034
1.36739
1.36405
1.36038
1.35646
1.35236
1.34818
1.34402
1.33998
1.33617
1.33271
1.32972
1.32733
1.32564
1.32474
0.0113748
0.00998528
0.00812302
0.0057905
0.00302635
-8.00934e-05
-0.00344038
-0.00697013
-0.0105871
-0.0142127
-0.0177733
-0.0212012
-0.0244348
-0.027419
-0.0301045
-0.0324482
-0.0344128
-0.0359663
-0.0370817
-0.0377369
-0.0379139
-0.0375985
-0.0367803
-0.0354521
-0.0336095
-0.0312509
-0.0283768
-0.0249901
-0.0210952
-0.0166984
-0.0118072
-0.00643038
-0.000577865
0.00573965
0.0125107
0.0197233
0.0273648
0.0354225
0.0438831
0.0527334
0.0619599
0.0715493
0.0814882
0.0917634
0.102362
0.11327
0.124477
0.135969
0.147734
0.159761
0.172039
0.184555
0.197301
0.210266
0.223439
0.236812
0.250375
0.26412
0.278039
0.292124
0.306367
0.320761
0.3353
0.349977
0.364787
0.379722
0.394779
0.409951
0.425234
0.440623
0.456114
0.471702
0.487383
0.503153
0.519008
0.534945
0.550961
0.56705
0.58321
0.599437
0.615728
0.632079
0.648485
0.664944
0.681451
0.698002
0.714593
0.731218
0.747874
0.764554
0.781254
0.797967
0.814688
0.831409
0.848123
0.864823
0.881501
0.898148
0.914755
0.931312
0.947809
0.964234
0.980576
0.996823
1.01296
1.02898
1.04486
1.06058
1.07614
1.09152
1.10669
1.12165
1.13636
1.15082
1.16501
1.17889
1.19246
1.20569
1.21856
1.23104
1.24312
1.25478
1.26599
1.27673
1.28697
1.29671
1.30592
1.31457
1.32265
1.33015
1.33705
1.34333
1.34898
1.35399
1.35836
1.36208
1.36514
1.36756
1.36933
1.37046
1.37096
1.37086
1.37018
1.36894
1.36718
1.36493
1.36225
1.35918
1.35579
1.35213
1.34829
1.34435
1.34038
1.33648
1.33275
1.32928
1.32617
1.32352
1.32137
1.31972
0.0165009
0.0143641
0.0120127
0.00938001
0.00642233
0.00321425
-0.000167935
-0.00365529
-0.0071797
-0.0106747
-0.0140773
-0.0173287
-0.0203748
-0.0231667
-0.0256604
-0.027817
-0.0296024
-0.0309873
-0.0319467
-0.0324599
-0.0325099
-0.0320835
-0.0311703
-0.0297634
-0.0278583
-0.0254531
-0.022548
-0.0191451
-0.0152485
-0.0108635
-0.00599719
-0.000657442
0.00514667
0.0114052
0.0181076
0.0252426
0.0327984
0.040763
0.0491239
0.0578687
0.0669845
0.0764588
0.0862787
0.0964317
0.106905
0.117687
0.128765
0.140127
0.151762
0.163658
0.175804
0.18819
0.200806
0.213641
0.226685
0.239931
0.253368
0.266988
0.280784
0.294747
0.308871
0.323147
0.337569
0.352131
0.366827
0.381651
0.396597
0.41166
0.426835
0.442117
0.457502
0.472985
0.488562
0.504228
0.51998
0.535814
0.551726
0.567713
0.583769
0.599892
0.616078
0.632323
0.648623
0.664974
0.681371
0.697811
0.714288
0.730799
0.747337
0.763898
0.780476
0.797065
0.813658
0.830249
0.846831
0.863395
0.879935
0.89644
0.912902
0.929311
0.945657
0.961929
0.978114
0.994202
1.01018
1.02603
1.04174
1.0573
1.07269
1.0879
1.1029
1.11768
1.13223
1.14652
1.16053
1.17425
1.18765
1.20072
1.21343
1.22576
1.2377
1.24921
1.26029
1.2709
1.28103
1.29066
1.29977
1.30834
1.31635
1.32379
1.33064
1.33689
1.34254
1.34755
1.35195
1.3557
1.35883
1.36132
1.36319
1.36444
1.36508
1.36513
1.36462
1.36356
1.36199
1.35995
1.35748
1.35463
1.35144
1.34799
1.34433
1.34053
1.33666
1.33282
1.32906
1.32548
1.32216
1.31918
1.31648
1.31398
0.0220931
0.0191633
0.0162691
0.0132767
0.0100606
0.00668265
0.00320916
-0.000304695
-0.00380337
-0.00723144
-0.0105356
-0.0136655
-0.0165744
-0.0192193
-0.0215615
-0.0235664
-0.0252034
-0.0264461
-0.0272716
-0.027661
-0.0275987
-0.0270723
-0.0260724
-0.0245921
-0.0226272
-0.0201758
-0.017238
-0.0138155
-0.00991197
-0.00553239
-0.000683041
0.00462864
0.0103943
0.0166046
0.0232496
0.0303189
0.0378013
0.0456855
0.0539596
0.0626119
0.0716303
0.0810026
0.0907167
0.10076
0.111122
0.121789
0.132751
0.143995
0.155511
0.167288
0.179314
0.191581
0.204076
0.216792
0.229718
0.242845
0.256165
0.26967
0.283351
0.2972
0.311211
0.325376
0.339688
0.354142
0.36873
0.383448
0.398289
0.413248
0.428321
0.443501
0.458785
0.474167
0.489644
0.505211
0.520864
0.536599
0.552412
0.568299
0.584255
0.600278
0.616363
0.632506
0.648704
0.66495
0.681243
0.697576
0.713945
0.730345
0.746772
0.763219
0.779681
0.796151
0.812624
0.829092
0.845548
0.861985
0.878394
0.894766
0.911093
0.927364
0.94357
0.959699
0.97574
0.991681
1.00751
1.02321
1.03877
1.05418
1.06942
1.08447
1.09932
1.11395
1.12834
1.14247
1.15634
1.16991
1.18316
1.19609
1.20866
1.22086
1.23267
1.24406
1.25502
1.26553
1.27556
1.28511
1.29414
1.30264
1.3106
1.31799
1.32482
1.33105
1.33669
1.34172
1.34614
1.34994
1.35313
1.3557
1.35765
1.359
1.35976
1.35995
1.35958
1.35868
1.35727
1.3554
1.35309
1.3504
1.34737
1.34404
1.34049
1.33677
1.33293
1.32906
1.3252
1.32143
1.31782
1.31444
1.31114
1.30776
0.0279764
0.0242347
0.0207653
0.0173709
0.0138472
0.0102462
0.00662576
0.00302906
-0.00049958
-0.00391454
-0.00717135
-0.0102276
-0.0130432
-0.0155814
-0.0178082
-0.0196933
-0.0212099
-0.0223344
-0.0230465
-0.0233291
-0.0231682
-0.0225525
-0.0214736
-0.0199252
-0.0179035
-0.0154066
-0.0124348
-0.00898974
-0.00507476
-0.000694557
0.00414497
0.00943683
0.0151731
0.0213452
0.0279436
0.0349583
0.042379
0.0501948
0.0583945
0.0669668
0.0759001
0.085183
0.0948038
0.104751
0.115013
0.125578
0.136435
0.147574
0.158983
0.170651
0.182569
0.194725
0.207112
0.219718
0.232534
0.245553
0.258765
0.272162
0.285736
0.29948
0.313385
0.327446
0.341656
0.356007
0.370495
0.385112
0.399854
0.414715
0.42969
0.444773
0.459961
0.475247
0.490629
0.5061
0.521658
0.537298
0.553016
0.568807
0.584669
0.600595
0.616583
0.632629
0.648727
0.664875
0.681066
0.697297
0.713563
0.729858
0.746178
0.762516
0.778868
0.795226
0.811585
0.827937
0.844275
0.860592
0.876878
0.893127
0.909327
0.92547
0.941546
0.957544
0.973451
0.989258
1.00495
1.02051
1.03594
1.05121
1.06631
1.08122
1.09593
1.11042
1.12468
1.13868
1.15241
1.16585
1.17898
1.19179
1.20424
1.21633
1.22803
1.23932
1.25019
1.26061
1.27056
1.28003
1.289
1.29745
1.30537
1.31274
1.31954
1.32577
1.33142
1.33647
1.34092
1.34477
1.34801
1.35065
1.35269
1.35414
1.355
1.3553
1.35505
1.35428
1.353
1.35126
1.34908
1.3465
1.34357
1.34032
1.33682
1.33311
1.32924
1.32527
1.32126
1.31724
1.31329
1.30947
1.30553
1.30125
0.0339992
0.0294456
0.0253845
0.0215599
0.0176931
0.0138282
0.0100168
0.00629156
0.002687
-0.000760064
-0.00401308
-0.00703677
-0.00979759
-0.0122642
-0.0144076
-0.0162017
-0.0176232
-0.0186514
-0.0192688
-0.0194602
-0.0192135
-0.0185185
-0.017368
-0.0157565
-0.0136807
-0.0111392
-0.0081324
-0.00466203
-0.000731413
0.00365494
0.00849135
0.0137712
0.0194869
0.0256301
0.0321919
0.0391629
0.046533
0.0542918
0.0624288
0.0709331
0.0797937
0.0889994
0.0985391
0.108402
0.118576
0.129051
0.139816
0.15086
0.162173
0.173744
0.185563
0.197621
0.209908
0.222415
0.235132
0.248051
0.261163
0.274461
0.287937
0.301582
0.315391
0.329355
0.343468
0.357725
0.372117
0.386641
0.401289
0.416057
0.43094
0.445931
0.461027
0.476223
0.491513
0.506894
0.522362
0.537911
0.553538
0.569238
0.585008
0.600842
0.616738
0.63269
0.648694
0.664746
0.680841
0.696974
0.713142
0.729337
0.745555
0.761791
0.778038
0.794291
0.810542
0.826784
0.843012
0.859216
0.875388
0.891521
0.907604
0.923629
0.939585
0.955462
0.971247
0.986931
1.0025
1.01794
1.03324
1.04838
1.06336
1.07815
1.09274
1.10711
1.12125
1.13513
1.14875
1.16208
1.1751
1.1878
1.20016
1.21215
1.22376
1.23497
1.24576
1.25611
1.266
1.27542
1.28434
1.29276
1.30065
1.308
1.3148
1.32104
1.3267
1.33178
1.33627
1.34016
1.34346
1.34617
1.34829
1.34982
1.35078
1.35117
1.35103
1.35036
1.34918
1.34753
1.34544
1.34294
1.34006
1.33685
1.33335
1.3296
1.32565
1.32154
1.31731
1.313
1.30867
1.30438
1.29979
1.29461
0.0400332
0.0346788
0.0300211
0.0257492
0.0215144
0.0173553
0.0133187
0.00942862
0.00571072
0.00219413
-0.00109172
-0.004118
-0.00685705
-0.00928276
-0.0113709
-0.0130992
-0.014448
-0.0153997
-0.0159392
-0.0160537
-0.0157326
-0.0149675
-0.0137521
-0.0120821
-0.00995483
-0.00736944
-0.00432658
-0.000828333
0.00312193
0.00751971
0.0123594
0.0176346
0.023338
0.0294615
0.0359965
0.0429339
0.0502641
0.0579772
0.0660629
0.0745109
0.0833103
0.0924507
0.101921
0.111711
0.12181
0.132206
0.14289
0.153851
0.165079
0.176564
0.188296
0.200265
0.212463
0.22488
0.237507
0.250335
0.263357
0.276565
0.28995
0.303506
0.317224
0.331099
0.345123
0.359291
0.373595
0.388031
0.402592
0.417273
0.432068
0.446973
0.461983
0.477092
0.492297
0.507592
0.522973
0.538436
0.553976
0.569589
0.585272
0.601018
0.616825
0.632688
0.648603
0.664564
0.680567
0.696608
0.712681
0.728782
0.744904
0.761042
0.777191
0.793344
0.809493
0.825634
0.841758
0.857857
0.873923
0.889949
0.905924
0.921839
0.937685
0.953451
0.969126
0.984698
1.00015
1.01548
1.03067
1.04571
1.06057
1.07525
1.08973
1.104
1.11803
1.13182
1.14534
1.15857
1.17151
1.18412
1.19639
1.20831
1.21985
1.231
1.24173
1.25203
1.26188
1.27126
1.28015
1.28855
1.29643
1.30378
1.31059
1.31684
1.32252
1.32763
1.33216
1.33611
1.33947
1.34224
1.34443
1.34604
1.34708
1.34756
1.3475
1.34691
1.34581
1.34423
1.3422
1.33973
1.33688
1.33366
1.33012
1.32629
1.32221
1.31792
1.31344
1.30881
1.30407
1.29928
1.29404
1.28799
0.0459676
0.0398308
0.0345795
0.0298517
0.025233
0.020758
0.0164707
0.0123872
0.0085259
0.00490924
0.00156025
-0.00149811
-0.00424351
-0.00665466
-0.0087117
-0.0103964
-0.0116922
-0.0125847
-0.0130612
-0.0131113
-0.0127261
-0.0118989
-0.0106247
-0.00890011
-0.00672348
-0.00409457
-0.00101453
0.00251421
0.00648808
0.0109024
0.0157517
0.0210294
0.0267285
0.032841
0.0393587
0.0462726
0.0535734
0.0612515
0.069297
0.0776999
0.0864498
0.0955364
0.104949
0.114678
0.124712
0.135042
0.145656
0.156545
0.1677
0.179109
0.190764
0.202655
0.214774
0.22711
0.239656
0.252404
0.265344
0.27847
0.291773
0.305246
0.318883
0.332675
0.346618
0.360703
0.374926
0.38928
0.40376
0.418359
0.433074
0.447897
0.462826
0.477854
0.492977
0.508191
0.523491
0.538872
0.55433
0.569861
0.58546
0.601123
0.616846
0.632624
0.648453
0.664328
0.680244
0.696197
0.712182
0.728192
0.744224
0.76027
0.776326
0.792385
0.80844
0.824485
0.840512
0.856514
0.872482
0.888408
0.904284
0.9201
0.935845
0.951511
0.967085
0.982556
0.997913
1.01314
1.02823
1.04317
1.05794
1.07252
1.08691
1.10109
1.11504
1.12874
1.14218
1.15533
1.16819
1.18074
1.19295
1.20481
1.21629
1.22739
1.23808
1.24835
1.25817
1.26753
1.27641
1.2848
1.29269
1.30005
1.30687
1.31315
1.31886
1.32402
1.32859
1.33259
1.33601
1.33885
1.34111
1.34279
1.3439
1.34445
1.34446
1.34393
1.34289
1.34136
1.33935
1.3369
1.33404
1.33078
1.32717
1.32322
1.31898
1.31447
1.30972
1.30474
1.29958
1.2943
1.28841
1.28151
0.0517071
0.0448108
0.0389745
0.0337882
0.0287765
0.0239712
0.0194143
0.0151156
0.0110874
0.00734612
0.00390924
0.00079444
-0.0019808
-0.00439965
-0.00644628
-0.0081061
-0.00936594
-0.0102141
-0.0106407
-0.0106371
-0.0101967
-0.00931436
-0.00798634
-0.0062105
-0.00398609
-0.00131367
0.00180502
0.00536707
0.00936858
0.0138047
0.0186697
0.0239571
0.0296598
0.03577
0.0422795
0.0491796
0.0564612
0.0641149
0.0721311
0.0805
0.0892116
0.0982559
0.107623
0.117302
0.127283
0.137557
0.148113
0.158941
0.170033
0.181377
0.192966
0.204789
0.216838
0.229104
0.241579
0.254254
0.267122
0.280174
0.293403
0.306803
0.320365
0.334083
0.34795
0.361961
0.376108
0.390387
0.404791
0.419315
0.433954
0.448702
0.463555
0.478507
0.493554
0.508691
0.523914
0.539218
0.554598
0.570051
0.585572
0.601156
0.616799
0.632497
0.648245
0.664038
0.679872
0.695742
0.711642
0.727568
0.743514
0.759475
0.775444
0.791415
0.807381
0.823337
0.839274
0.855186
0.871064
0.886899
0.902684
0.918408
0.934063
0.949638
0.965121
0.980503
0.995771
1.01091
1.02592
1.04077
1.05546
1.06996
1.08427
1.09837
1.11225
1.12588
1.13925
1.15235
1.16515
1.17764
1.18981
1.20162
1.21307
1.22414
1.23481
1.24506
1.25487
1.26422
1.27311
1.28151
1.28941
1.29679
1.30364
1.30996
1.31572
1.32092
1.32555
1.32961
1.33309
1.33599
1.33831
1.34006
1.34124
1.34185
1.34191
1.34144
1.34044
1.33893
1.33693
1.33447
1.33157
1.32824
1.32453
1.32044
1.31602
1.31127
1.30621
1.30087
1.29529
1.2895
1.28298
1.27526
0.0571689
0.0495381
0.0431291
0.0374866
0.0320779
0.0269333
0.0220939
0.0175642
0.013351
0.00946578
0.00592116
0.00273013
-9.42616e-05
-0.00253925
-0.00459275
-0.0062436
-0.00748172
-0.00829826
-0.00868565
-0.00863768
-0.00814948
-0.00721757
-0.00583974
-0.00401505
-0.00174375
0.000972736
0.00413195
0.00773046
0.0117639
0.0162271
0.0211141
0.0264183
0.0321325
0.0382489
0.0447594
0.0516554
0.0589279
0.0665677
0.0745653
0.0829112
0.0915956
0.100609
0.109941
0.119581
0.129521
0.13975
0.150259
0.161038
0.172077
0.183367
0.194899
0.206665
0.218654
0.23086
0.243273
0.255885
0.268689
0.281676
0.29484
0.308173
0.321668
0.335319
0.349119
0.363061
0.37714
0.39135
0.405685
0.42014
0.434708
0.449386
0.464169
0.47905
0.494025
0.509091
0.524242
0.539473
0.55478
0.57016
0.585606
0.601116
0.616684
0.632306
0.647978
0.663694
0.67945
0.695242
0.711063
0.72691
0.742775
0.758655
0.774542
0.790432
0.806316
0.822189
0.838044
0.853872
0.869667
0.885419
0.901121
0.916763
0.932336
0.947829
0.963233
0.978535
0.993726
1.00879
1.02372
1.0385
1.05312
1.06755
1.0818
1.09584
1.10966
1.12324
1.13656
1.14961
1.16237
1.17483
1.18696
1.19875
1.21018
1.22124
1.2319
1.24214
1.25196
1.26132
1.27023
1.27865
1.28658
1.294
1.30089
1.30725
1.31307
1.31832
1.32301
1.32713
1.33068
1.33365
1.33604
1.33785
1.33908
1.33975
1.33986
1.33942
1.33845
1.33695
1.33494
1.33245
1.32949
1.32608
1.32224
1.318
1.31336
1.30835
1.30299
1.29728
1.29126
1.28498
1.27784
1.26934
0.0622806
0.0539415
0.0469743
0.0408814
0.0350757
0.0295873
0.024457
0.0196851
0.0152735
0.0112297
0.00756179
0.00427878
0.00138973
-0.00109634
-0.0031708
-0.00482568
-0.00605383
-0.00684906
-0.0072062
-0.00712118
-0.00659104
-0.00561395
-0.00418919
-0.00231708
1.01467e-06
0.00276277
0.00596496
0.00960347
0.0136735
0.0181693
0.0230848
0.028413
0.0341467
0.040278
0.0467987
0.0537002
0.0609736
0.0686098
0.0765995
0.0849333
0.0936015
0.102594
0.111903
0.121516
0.131426
0.141621
0.152094
0.162833
0.173831
0.185077
0.196564
0.208282
0.220222
0.232376
0.244736
0.257295
0.270043
0.282974
0.296081
0.309356
0.322792
0.336383
0.350122
0.364003
0.378021
0.392168
0.40644
0.420831
0.435336
0.449949
0.464666
0.479482
0.494392
0.50939
0.524474
0.539637
0.554877
0.570187
0.585564
0.601004
0.616501
0.632052
0.647651
0.663295
0.678978
0.694696
0.710444
0.726215
0.742006
0.75781
0.773622
0.789435
0.805244
0.82104
0.836819
0.852571
0.86829
0.883967
0.899594
0.915162
0.930662
0.946083
0.961416
0.97665
0.991773
1.00677
1.02164
1.03636
1.05092
1.0653
1.0795
1.09349
1.10726
1.1208
1.13409
1.14711
1.15985
1.17228
1.1844
1.19618
1.20761
1.21867
1.22933
1.23959
1.24943
1.25882
1.26776
1.27622
1.28419
1.29166
1.29861
1.30503
1.3109
1.31622
1.32098
1.32517
1.32879
1.33182
1.33428
1.33615
1.33744
1.33816
1.33831
1.3379
1.33694
1.33544
1.33341
1.33087
1.32784
1.32432
1.32035
1.31592
1.31107
1.30579
1.30011
1.29402
1.28757
1.28081
1.27307
1.26381
0.0669788
0.0579572
0.0504477
0.0439124
0.0377129
0.0318796
0.0264539
0.0214324
0.0168132
0.0125999
0.00879703
0.00540992
0.00244409
-9.48187e-05
-0.00220139
-0.00387061
-0.00509808
-0.00588014
-0.00621393
-0.00609748
-0.0055297
-0.00451043
-0.00304042
-0.00112132
0.00124439
0.0040534
0.00730163
0.0109843
0.0150959
0.0196304
0.0245811
0.0299409
0.0357023
0.0418572
0.0483973
0.055314
0.0625984
0.0702414
0.0782338
0.0865662
0.0952292
0.104213
0.113509
0.123106
0.132996
0.14317
0.153617
0.164328
0.175295
0.186508
0.197959
0.209639
0.22154
0.233652
0.245969
0.258483
0.271185
0.284069
0.297126
0.310351
0.323736
0.337274
0.35096
0.364787
0.378749
0.392841
0.407056
0.42139
0.435836
0.450391
0.465048
0.479803
0.494652
0.509589
0.52461
0.53971
0.554886
0.570132
0.585444
0.600818
0.616249
0.631733
0.647266
0.662842
0.678456
0.694105
0.709784
0.725486
0.741207
0.756941
0.772682
0.788425
0.804163
0.81989
0.835598
0.851281
0.866931
0.882541
0.898101
0.913603
0.929038
0.944396
0.959668
0.974842
0.989908
1.00485
1.01967
1.03434
1.04885
1.06319
1.07735
1.09131
1.10505
1.11856
1.13183
1.14484
1.15756
1.16999
1.18211
1.1939
1.20534
1.21642
1.22711
1.2374
1.24727
1.25671
1.26569
1.2742
1.28223
1.28976
1.29678
1.30327
1.30921
1.31461
1.31944
1.32371
1.3274
1.33051
1.33303
1.33497
1.33632
1.33708
1.33727
1.33688
1.33593
1.33441
1.33235
1.32976
1.32663
1.323
1.31887
1.31426
1.30917
1.30363
1.29762
1.29115
1.28428
1.27704
1.26873
1.25875
0.0712071
0.0615285
0.0534931
0.0465247
0.0399367
0.0337603
0.0280376
0.0227623
0.0179295
0.0135392
0.00959305
0.00609294
0.00304128
0.000440662
-0.00170643
-0.00339776
-0.00463152
-0.00540643
-0.00572184
-0.00557782
-0.00497513
-0.00391526
-0.00240045
-0.000433656
0.00198145
0.00484053
0.00813863
0.0118702
0.016029
0.0206086
0.0256017
0.0310009
0.0367984
0.0429859
0.0495548
0.0564966
0.0638022
0.0714625
0.0794684
0.0878104
0.0964792
0.105465
0.114759
0.124352
0.134234
0.144396
0.154828
0.165522
0.176469
0.187659
0.199085
0.210737
0.222608
0.234689
0.246972
0.259449
0.272114
0.284958
0.297975
0.311158
0.324499
0.337993
0.351633
0.365412
0.379326
0.393368
0.407533
0.421815
0.436209
0.450711
0.465314
0.480014
0.494807
0.509687
0.52465
0.539693
0.554809
0.569996
0.585247
0.60056
0.61593
0.631351
0.646821
0.662333
0.677884
0.693469
0.709083
0.72472
0.740376
0.756045
0.771722
0.7874
0.803074
0.818736
0.834382
0.850002
0.86559
0.881139
0.896639
0.912083
0.927462
0.942766
0.957985
0.97311
0.988129
1.00303
1.0178
1.03244
1.04691
1.06123
1.07536
1.08929
1.10302
1.11652
1.12978
1.14279
1.15552
1.16796
1.18009
1.1919
1.20337
1.21448
1.22521
1.23555
1.24547
1.25496
1.26401
1.27259
1.28069
1.2883
1.29539
1.30196
1.30799
1.31348
1.3184
1.32274
1.32652
1.3297
1.3323
1.3343
1.33571
1.33652
1.33674
1.33637
1.33542
1.33389
1.33179
1.32912
1.32591
1.32215
1.31786
1.31305
1.30773
1.3019
1.29557
1.28873
1.28144
1.27374
1.26486
1.25419
0.074915
0.0646037
0.0560589
0.0486679
0.0416983
0.0351823
0.0291635
0.023633
0.0185832
0.0140114
0.00991641
0.00629724
0.00315347
0.000484917
-0.00170861
-0.00342745
-0.00467223
-0.00544396
-0.00574409
-0.00557464
-0.00493818
-0.00383785
-0.00227736
-0.000261028
0.0022063
0.00511922
0.00847183
0.0122577
0.0164701
0.0211017
0.0261449
0.0315919
0.0374342
0.0436636
0.0502711
0.057248
0.0645852
0.0722735
0.0803035
0.0886661
0.0973518
0.106351
0.115655
0.125254
0.135139
0.1453
0.155729
0.166416
0.177353
0.188531
0.199942
0.211576
0.223427
0.235485
0.247744
0.260195
0.272831
0.285644
0.298629
0.311777
0.325083
0.338539
0.35214
0.36588
0.379752
0.393751
0.407872
0.422108
0.436456
0.450909
0.465464
0.480114
0.494856
0.509685
0.524596
0.539584
0.554647
0.569778
0.584974
0.60023
0.615542
0.630906
0.646317
0.661771
0.677263
0.692788
0.708342
0.723919
0.739515
0.755124
0.770741
0.78636
0.801975
0.81758
0.833167
0.848731
0.864264
0.879759
0.895208
0.910601
0.925932
0.94119
0.956365
0.971449
0.98643
1.0013
1.01604
1.03065
1.0451
1.05939
1.07351
1.08744
1.10116
1.11466
1.12793
1.14095
1.1537
1.16617
1.17833
1.19018
1.20169
1.21285
1.22363
1.23403
1.24402
1.25359
1.26271
1.27138
1.27956
1.28726
1.29445
1.30111
1.30724
1.31281
1.31783
1.32227
1.32613
1.3294
1.33208
1.33415
1.33562
1.33648
1.33674
1.33639
1.33543
1.33388
1.33173
1.329
1.32569
1.3218
1.31735
1.31234
1.30678
1.30067
1.29401
1.28681
1.2791
1.27095
1.26154
1.2502
0.078057
0.0671361
0.058098
0.0502954
0.0429519
0.0361015
0.0297892
0.0240043
0.0187364
0.013981
0.00973413
0.00599235
0.00275267
1.23712e-05
-0.00223119
-0.00398074
-0.00523918
-0.0060097
-0.00629578
-0.00610133
-0.00543067
-0.00428856
-0.0026802
-0.000611244
0.00191224
0.00488376
0.00829643
0.012143
0.0164159
0.0211072
0.0262088
0.0317121
0.0376087
0.0438896
0.0505458
0.0575682
0.0649475
0.0726746
0.0807399
0.0891342
0.097848
0.106872
0.116197
0.125813
0.135712
0.145884
0.15632
0.167011
0.177949
0.189125
0.200531
0.212158
0.223998
0.236044
0.248287
0.26072
0.273336
0.286128
0.299088
0.31221
0.325488
0.338914
0.352483
0.36619
0.380027
0.39399
0.408072
0.42227
0.436577
0.450988
0.465499
0.480105
0.494801
0.509583
0.524446
0.539386
0.554399
0.569479
0.584624
0.599828
0.615087
0.630398
0.645755
0.661154
0.676591
0.692061
0.70756
0.723082
0.738623
0.754178
0.76974
0.785305
0.800866
0.816418
0.831955
0.847468
0.862953
0.8784
0.893804
0.909154
0.924444
0.939664
0.954805
0.969857
0.984809
0.999652
1.01437
1.02896
1.04341
1.05769
1.07181
1.08574
1.09947
1.11299
1.12627
1.13932
1.1521
1.16461
1.17682
1.18872
1.20029
1.21151
1.22237
1.23284
1.24291
1.25257
1.26178
1.27055
1.27884
1.28664
1.29393
1.3007
1.30694
1.31262
1.31775
1.32229
1.32625
1.32962
1.33238
1.33453
1.33606
1.33697
1.33727
1.33693
1.33598
1.33441
1.33222
1.32941
1.326
1.32198
1.31736
1.31215
1.30635
1.29996
1.29298
1.28542
1.27731
1.26872
1.25879
1.24681
0.0805917
0.0690826
0.0595668
0.0513635
0.0436547
0.036476
0.0298745
0.0238374
0.0183526
0.0134133
0.00901372
0.00514797
0.0018108
-0.00100285
-0.00329789
-0.00507927
-0.00635203
-0.00712141
-0.00739287
-0.00717214
-0.00646526
-0.00527857
-0.00361877
-0.00149285
0.00109189
0.00412784
0.00760711
0.0115215
0.0158628
0.0206222
0.0257909
0.0313601
0.0373206
0.0436632
0.0503785
0.0574571
0.0648897
0.0726666
0.0807785
0.0892158
0.0979691
0.107029
0.116386
0.126031
0.135955
0.146149
0.156603
0.16731
0.178259
0.189444
0.200855
0.212484
0.224324
0.236366
0.248603
0.261028
0.273633
0.286411
0.299355
0.312459
0.325716
0.33912
0.352665
0.366344
0.380153
0.394086
0.408137
0.422301
0.436573
0.450948
0.465421
0.479988
0.494644
0.509384
0.524204
0.5391
0.554067
0.569102
0.584199
0.599356
0.614567
0.629828
0.645135
0.660484
0.675871
0.691291
0.706739
0.72221
0.737701
0.753205
0.768717
0.784233
0.799747
0.815252
0.830742
0.846212
0.861654
0.877061
0.892426
0.907741
0.922997
0.938187
0.953301
0.968329
0.983262
0.998089
1.0128
1.02738
1.04182
1.05611
1.07024
1.08418
1.09794
1.11148
1.1248
1.13789
1.15072
1.16327
1.17554
1.18751
1.19915
1.21046
1.2214
1.23197
1.24214
1.2519
1.26122
1.2701
1.2785
1.28642
1.29384
1.30073
1.30709
1.3129
1.31814
1.3228
1.32687
1.33034
1.33319
1.33543
1.33703
1.33801
1.33834
1.33803
1.33708
1.33549
1.33325
1.33038
1.32686
1.32271
1.31793
1.31252
1.30648
1.29982
1.29253
1.28461
1.27611
1.26709
1.25665
1.24407
0.0824809
0.0704034
0.0604246
0.0518316
0.0437663
0.0362663
0.0293805
0.023095
0.0173958
0.0122745
0.00772311
0.00373399
0.000299731
-0.00258685
-0.00493281
-0.00674516
-0.00803098
-0.00879747
-0.00905198
-0.00880201
-0.0080553
-0.00681976
-0.00510354
-0.00291499
-0.000262672
0.00284467
0.0063981
0.0103885
0.0148068
0.0196434
0.024889
0.0305341
0.0365689
0.0429838
0.0497692
0.0569153
0.0644123
0.0722507