/*--------------------------------*- C++ -*----------------------------------*\
  =========                 |
  \\      /  F ield         | OpenFOAM: The Open Source CFD Toolbox
   \\    /   O peration     | Website:  https://openfoam.org
    \\  /    A nd           | Version:  7
     \\/     M anipulation  |
\*---------------------------------------------------------------------------*/
FoamFile
{
    version     2.0;
    format      ascii;
    class       surfaceScalarField;
    location    "0.35";
    object      phi;
}
// * * * * * * * * * * * * * * * * * * * * * * * * * * * * * * * * * * * * * //

dimensions      [0 3 -1 0 0 0 0];

internalField   nonuniform List<scalar> 
101920
(
-5.94226e-14
1.27052e-13
8.20607e-14
-1.39518e-13
5.30331e-13
-4.48447e-13
1.08583e-12
-5.55598e-13
1.68751e-12
-6.01178e-13
2.34133e-12
-6.54903e-13
3.05703e-12
-7.14309e-13
3.83068e-12
-7.71579e-13
4.6499e-12
-8.19555e-13
5.50359e-12
-8.54688e-13
6.37991e-12
-8.7541e-13
7.26299e-12
-8.84243e-13
8.14326e-12
-8.79831e-13
9.00767e-12
-8.63607e-13
9.84588e-12
-8.39364e-13
1.06532e-11
-8.06045e-13
1.14198e-11
-7.67992e-13
1.21431e-11
-7.22484e-13
1.28145e-11
-6.71023e-13
1.34304e-11
-6.16057e-13
1.39889e-11
-5.57663e-13
1.44864e-11
-4.97765e-13
1.49219e-11
-4.36474e-13
1.52941e-11
-3.72421e-13
1.56e-11
-3.07877e-13
1.58416e-11
-2.422e-13
1.60178e-11
-1.76192e-13
1.61282e-11
-1.12128e-13
1.61757e-11
-4.7679e-14
1.61594e-11
1.607e-14
1.60805e-11
7.75962e-14
1.59426e-11
1.38553e-13
1.57457e-11
1.97159e-13
1.54927e-11
2.52784e-13
1.51871e-11
3.07364e-13
1.48291e-11
3.59145e-13
1.44218e-11
4.07057e-13
1.39701e-11
4.52682e-13
1.34758e-11
4.95102e-13
1.2942e-11
5.33643e-13
1.23728e-11
5.6995e-13
1.17697e-11
6.03833e-13
1.11352e-11
6.33695e-13
1.04744e-11
6.60496e-13
9.79008e-12
6.84615e-13
9.08413e-12
7.04814e-13
8.36108e-12
7.21793e-13
7.62413e-12
7.37123e-13
6.8748e-12
7.49161e-13
6.11741e-12
7.56478e-13
5.3567e-12
7.60977e-13
4.59391e-12
7.62872e-13
3.8315e-12
7.61274e-13
3.07447e-12
7.5717e-13
2.32518e-12
7.50391e-13
1.58523e-12
7.39788e-13
8.58823e-13
7.26108e-13
1.49065e-13
7.10388e-13
-5.4307e-13
6.92265e-13
-1.21523e-12
6.71528e-13
-1.86396e-12
6.48613e-13
-2.48716e-12
6.23621e-13
-3.08355e-12
5.9636e-13
-3.65065e-12
5.66936e-13
-4.18579e-12
5.35582e-13
-4.68771e-12
5.02402e-13
-5.15538e-12
4.6755e-13
-5.58655e-12
4.31237e-13
-5.97906e-12
3.93336e-13
-6.33219e-12
3.53758e-13
-6.64541e-12
3.13025e-13
-6.91749e-12
2.71736e-13
-7.14739e-12
2.29876e-13
-7.33464e-12
1.87221e-13
-7.47891e-12
1.43977e-13
-7.57938e-12
1.00314e-13
-7.63529e-12
5.60446e-14
-7.64634e-12
1.12514e-14
-7.61259e-12
-3.36003e-14
-7.53433e-12
-7.81322e-14
-7.41175e-12
-1.22334e-13
-7.24531e-12
-1.6632e-13
-7.03549e-12
-2.09914e-13
-6.78242e-12
-2.52906e-13
-6.48689e-12
-2.95232e-13
-6.14995e-12
-3.36798e-13
-5.77289e-12
-3.77243e-13
-5.35692e-12
-4.16091e-13
-4.90293e-12
-4.53612e-13
-4.41244e-12
-4.90226e-13
-3.88695e-12
-5.25474e-13
-3.32784e-12
-5.58753e-13
-2.73729e-12
-5.89988e-13
-2.11709e-12
-6.19543e-13
-1.46923e-12
-6.47467e-13
-7.959e-13
-6.73128e-13
-9.88537e-14
-6.9636e-13
6.19647e-13
-7.17664e-13
1.35718e-12
-7.37075e-13
2.11123e-12
-7.53915e-13
2.87848e-12
-7.67379e-13
3.65616e-12
-7.77645e-13
4.44206e-12
-7.85846e-13
5.2337e-12
-7.92017e-13
6.02898e-12
-7.95059e-13
6.82454e-12
-7.94598e-13
7.61641e-12
-7.91177e-13
8.40213e-12
-7.85444e-13
9.17904e-12
-7.7716e-13
9.94402e-12
-7.65371e-13
1.06943e-11
-7.50087e-13
1.14263e-11
-7.32125e-13
1.2137e-11
-7.11516e-13
1.28238e-11
-6.87698e-13
1.34835e-11
-6.60283e-13
1.41127e-11
-6.29474e-13
1.47094e-11
-5.96266e-13
1.52704e-11
-5.60879e-13
1.57924e-11
-5.22191e-13
1.62725e-11
-4.79957e-13
1.67075e-11
-4.35139e-13
1.70948e-11
-3.88172e-13
1.74329e-11
-3.38867e-13
1.77193e-11
-2.86812e-13
1.79505e-11
-2.31615e-13
1.81249e-11
-1.74118e-13
1.82406e-11
-1.15616e-13
1.82959e-11
-5.57732e-14
1.82895e-11
6.24166e-15
1.82197e-11
6.99611e-14
1.8085e-11
1.34698e-13
1.78849e-11
1.99995e-13
1.76197e-11
2.65312e-13
1.72886e-11
3.30667e-13
1.68919e-11
3.9645e-13
1.64303e-11
4.62028e-13
1.59041e-11
5.26259e-13
1.53151e-11
5.88818e-13
1.46662e-11
6.49555e-13
1.3959e-11
7.07731e-13
1.3196e-11
7.62627e-13
1.2382e-11
8.13526e-13
1.15223e-11
8.59415e-13
1.0622e-11
8.99714e-13
9.6879e-12
9.34066e-13
8.72716e-12
9.61284e-13
7.74755e-12
9.7972e-13
6.75922e-12
9.88059e-13
5.77463e-12
9.84954e-13
4.80686e-12
9.68528e-13
3.86991e-12
9.36935e-13
2.98116e-12
8.88383e-13
2.16055e-12
8.20541e-13
1.42909e-12
7.31078e-13
8.10273e-13
6.18077e-13
3.29253e-13
4.80536e-13
9.33878e-15
3.20449e-13
-1.3391e-13
1.46243e-13
-1.07014e-13
-1.98584e-14
-9.96777e-14
-1.4408e-13
2.73086e-13
1.15151e-13
-4.01498e-13
9.59183e-13
-1.29135e-12
2.19524e-12
-1.79318e-12
3.73262e-12
-2.13615e-12
5.51065e-12
-2.4346e-12
7.49319e-12
-2.69831e-12
9.64275e-12
-2.91977e-12
1.19151e-11
-3.09189e-12
1.42746e-11
-3.21268e-12
1.66804e-11
-3.28184e-12
1.91004e-11
-3.30308e-12
2.15017e-11
-3.27957e-12
2.3854e-11
-3.21713e-12
2.61357e-11
-3.11855e-12
2.83187e-11
-2.99235e-12
3.03905e-11
-2.83932e-12
3.23316e-11
-2.66346e-12
3.41286e-11
-2.46914e-12
3.57713e-11
-2.25807e-12
3.72484e-11
-2.03514e-12
3.85536e-11
-1.80326e-12
3.96823e-11
-1.56289e-12
4.06278e-11
-1.31824e-12
4.13906e-11
-1.06943e-12
4.19685e-11
-8.17885e-13
4.23598e-11
-5.67807e-13
4.25683e-11
-3.18818e-13
4.25941e-11
-7.2537e-14
4.24398e-11
1.68691e-13
4.21123e-11
4.05898e-13
4.16142e-11
6.36577e-13
4.09504e-11
8.5864e-13
4.01294e-11
1.0736e-12
3.91556e-11
1.27991e-12
3.80361e-11
1.4758e-12
3.67808e-11
1.66179e-12
3.53958e-11
1.83682e-12
3.38887e-11
1.99948e-12
3.22709e-11
2.15106e-12
3.05499e-11
2.29152e-12
2.87335e-11
2.4192e-12
2.68321e-11
2.53464e-12
2.48549e-11
2.63874e-12
2.28092e-11
2.72996e-12
2.07057e-11
2.8079e-12
1.85548e-11
2.87429e-12
1.63637e-11
2.92847e-12
1.41416e-11
2.96958e-12
1.19004e-11
2.99875e-12
9.64697e-12
3.01543e-12
7.38915e-12
3.01911e-12
5.13839e-12
3.01148e-12
2.90313e-12
2.993e-12
6.89721e-13
2.96261e-12
-1.4923e-12
2.92078e-12
-3.63382e-12
2.86846e-12
-5.72883e-12
2.80569e-12
-7.77019e-12
2.73289e-12
-9.74918e-12
2.65083e-12
-1.16592e-11
2.5596e-12
-1.34952e-11
2.45932e-12
-1.52505e-11
2.35082e-12
-1.69181e-11
2.23473e-12
-1.8493e-11
2.11095e-12
-1.99706e-11
1.97972e-12
-2.13455e-11
1.84206e-12
-2.26126e-11
1.69867e-12
-2.37683e-11
1.54952e-12
-2.48093e-11
1.39513e-12
-2.57317e-11
1.23662e-12
-2.65325e-11
1.07441e-12
-2.72101e-11
9.08532e-13
-2.77626e-11
7.39728e-13
-2.81875e-11
5.68846e-13
-2.84829e-11
3.96016e-13
-2.86483e-11
2.21246e-13
-2.86834e-11
4.53715e-14
-2.85871e-11
-1.30436e-13
-2.83594e-11
-3.05759e-13
-2.80011e-11
-4.80603e-13
-2.7514e-11
-6.54378e-13
-2.68991e-11
-8.25862e-13
-2.61574e-11
-9.94405e-13
-2.52914e-11
-1.16028e-12
-2.43043e-11
-1.32318e-12
-2.31984e-11
-1.48199e-12
-2.1977e-11
-1.63596e-12
-2.06439e-11
-1.78525e-12
-1.92035e-11
-1.9299e-12
-1.76604e-11
-2.06866e-12
-1.60184e-11
-2.2003e-12
-1.42829e-11
-2.3248e-12
-1.24595e-11
-2.44237e-12
-1.05541e-11
-2.55269e-12
-8.5726e-12
-2.65477e-12
-6.52087e-12
-2.74784e-12
-4.40568e-12
-2.83222e-12
-2.23447e-12
-2.9079e-12
-1.37326e-14
-2.9737e-12
2.24939e-12
-3.02885e-12
4.54695e-12
-3.07368e-12
6.87124e-12
-3.10895e-12
9.21391e-12
-3.13446e-12
1.15673e-11
-3.14869e-12
1.39237e-11
-3.15086e-12
1.62737e-11
-3.14161e-12
1.8609e-11
-3.12129e-12
2.0921e-11
-3.08952e-12
2.32005e-11
-3.04564e-12
2.5439e-11
-2.98928e-12
2.7628e-11
-2.92109e-12
2.97581e-11
-2.84165e-12
3.18211e-11
-2.75042e-12
3.38083e-11
-2.64709e-12
3.571e-11
-2.53206e-12
3.75181e-11
-2.40563e-12
3.92245e-11
-2.268e-12
4.08206e-11
-2.11891e-12
4.22986e-11
-1.95814e-12
4.36504e-11
-1.7868e-12
4.48679e-11
-1.60612e-12
4.59444e-11
-1.4159e-12
4.68733e-11
-1.2159e-12
4.76473e-11
-1.00662e-12
4.82606e-11
-7.88604e-13
4.87082e-11
-5.63109e-13
4.89845e-11
-3.31568e-13
4.90851e-11
-9.42187e-14
4.90063e-11
1.4866e-13
4.87449e-11
3.95549e-13
4.82991e-11
6.4504e-13
4.76684e-11
8.96281e-13
4.6852e-11
1.14784e-12
4.58502e-11
1.3982e-12
4.46657e-11
1.64631e-12
4.3302e-11
1.89039e-12
4.17629e-11
2.12815e-12
4.00545e-11
2.35788e-12
3.81846e-11
2.57765e-12
3.61622e-11
2.78458e-12
3.39991e-11
2.97592e-12
3.17093e-11
3.1491e-12
2.93082e-11
3.30101e-12
2.68138e-11
3.42831e-12
2.42476e-11
3.52753e-12
2.16339e-11
3.59407e-12
1.89999e-11
3.62251e-12
1.63765e-11
3.60797e-12
1.37991e-11
3.54565e-12
1.13064e-11
3.42937e-12
8.9418e-12
3.2526e-12
6.75293e-12
3.00952e-12
4.79067e-12
2.69446e-12
3.10813e-12
2.30228e-12
1.75636e-12
1.83241e-12
7.76329e-13
1.29609e-12
1.87045e-13
7.24641e-13
-3.65281e-14
1.88784e-13
-1.31569e-13
-1.18244e-13
3.91153e-13
3.10737e-13
-8.29245e-13
1.46913e-12
-2.44867e-12
3.2514e-12
-3.57853e-12
5.54739e-12
-4.43204e-12
8.2584e-12
-5.1471e-12
1.13058e-11
-5.74373e-12
1.4612e-11
-6.22491e-12
1.81073e-11
-6.58984e-12
2.17297e-11
-6.83647e-12
2.54192e-11
-6.97328e-12
2.91224e-11
-7.00654e-12
3.2789e-11
-6.94745e-12
3.63782e-11
-6.80397e-12
3.98466e-11
-6.58912e-12
4.31643e-11
-6.3096e-12
4.63009e-11
-5.97436e-12
4.92288e-11
-5.59244e-12
5.19297e-11
-5.16844e-12
5.4383e-11
-4.71224e-12
5.65744e-11
-4.22849e-12
5.8494e-11
-3.72257e-12
6.01298e-11
-3.20134e-12
6.14775e-11
-2.66737e-12
6.25335e-11
-2.12528e-12
6.32935e-11
-1.58028e-12
6.376e-11
-1.03449e-12
6.39337e-11
-4.92119e-13
6.38166e-11
4.28798e-14
6.3416e-11
5.69925e-13
6.27374e-11
1.08535e-12
6.17876e-11
1.58587e-12
6.05771e-11
2.07119e-12
5.91141e-11
2.53844e-12
5.74079e-11
2.98542e-12
5.54723e-11
3.41228e-12
5.33189e-11
3.81663e-12
5.0959e-11
4.19601e-12
4.84077e-11
4.55121e-12
4.56782e-11
4.88173e-12
4.2783e-11
5.18574e-12
3.97382e-11
5.46322e-12
3.65585e-11
5.71481e-12
3.32572e-11
5.93867e-12
2.985e-11
6.13496e-12
2.63532e-11
6.30507e-12
2.27801e-11
6.44745e-12
1.91455e-11
6.56156e-12
1.54661e-11
6.64891e-12
1.1756e-11
6.70931e-12
8.02828e-12
6.74181e-12
4.29927e-12
6.74787e-12
5.83643e-13
6.72861e-12
-3.10669e-12
6.68331e-12
-6.75756e-12
6.61262e-12
-1.03542e-11
6.51803e-12
-1.38849e-11
6.39974e-12
-1.73382e-11
6.25814e-12
-2.07007e-11
6.09491e-12
-2.39603e-11
5.91105e-12
-2.7107e-11
5.70656e-12
-3.01304e-11
5.48232e-12
-3.30192e-11
5.23994e-12
-3.57641e-11
4.98034e-12
-3.8357e-11
4.70388e-12
-4.07891e-11
4.41175e-12
-4.30514e-11
4.10543e-12
-4.51374e-11
3.78561e-12
-4.70413e-11
3.45311e-12
-4.87564e-11
3.10978e-12
-5.02766e-11
2.7572e-12
-5.15975e-11
2.39594e-12
-5.27158e-11
2.02677e-12
-5.36276e-11
1.65129e-12
-5.43293e-11
1.27083e-12
-5.48187e-11
8.85922e-13
-5.50946e-11
4.97329e-13
-5.5156e-11
1.0669e-13
-5.50021e-11
-2.84174e-13
-5.46331e-11
-6.74313e-13
-5.40504e-11
-1.06316e-12
-5.32555e-11
-1.44935e-12
-5.22503e-11
-1.83107e-12
-5.10375e-11
-2.20716e-12
-4.9621e-11
-2.57705e-12
-4.8005e-11
-2.93948e-12
-4.61937e-11
-3.29285e-12
-4.41927e-11
-3.6363e-12
-4.20084e-11
-3.96928e-12
-3.96471e-11
-4.29083e-12
-3.71158e-11
-4.5994e-12
-3.4422e-11
-4.89343e-12
-3.1574e-11
-5.17223e-12
-2.85807e-11
-5.43523e-12
-2.54511e-11
-5.68139e-12
-2.21949e-11
-5.90977e-12
-1.88223e-11
-6.11953e-12
-1.53442e-11
-6.31e-12
-1.17718e-11
-6.48034e-12
-8.11624e-12
-6.62902e-12
-4.38939e-12
-6.75529e-12
-6.03625e-13
-6.85935e-12
3.22887e-12
-6.94095e-12
7.09509e-12
-6.99945e-12
1.09814e-11
-7.03394e-12
1.48743e-11
-7.04344e-12
1.87601e-11
-7.02777e-12
2.26254e-11
-6.98686e-12
2.64562e-11
-6.92013e-12
3.02379e-11
-6.82738e-12
3.39561e-11
-6.70845e-12
3.75968e-11
-6.56302e-12
4.11459e-11
-6.3913e-12
4.45893e-11
-6.19348e-12
4.79125e-11
-5.96962e-12
5.11011e-11
-5.72045e-12
5.41413e-11
-5.44626e-12
5.70197e-11
-5.14673e-12
5.97228e-11
-4.8223e-12
6.22377e-11
-4.47384e-12
6.45516e-11
-4.10194e-12
6.66528e-11
-3.70776e-12
6.85295e-11
-3.29245e-12
7.01704e-11
-2.85646e-12
7.15648e-11
-2.40096e-12
7.27034e-11
-1.92767e-12
7.35777e-11
-1.43786e-12
7.41796e-11
-9.33244e-13
7.45021e-11
-4.16172e-13
7.45392e-11
1.11466e-13
7.42862e-11
6.47853e-13
7.37407e-11
1.1903e-12
7.29009e-11
1.7361e-12
7.17662e-11
2.28269e-12
7.03381e-11
2.8267e-12
6.862e-11
3.36451e-12
6.66175e-11
3.89283e-12
6.43385e-11
4.40765e-12
6.17924e-11
4.90425e-12
5.89911e-11
5.37814e-12
5.59504e-11
5.82443e-12
5.26894e-11
6.23708e-12
4.92292e-11
6.60976e-12
4.55941e-11
6.93616e-12
4.18135e-11
7.20908e-12
3.79208e-11
7.42039e-12
3.39531e-11
7.56147e-12
2.9953e-11
7.62271e-12
2.59679e-11
7.59351e-12
2.20497e-11
7.46333e-12
1.82561e-11
7.22171e-12
1.46506e-11
6.85743e-12
1.13006e-11
6.3594e-12
8.27521e-12
5.71926e-12
5.64491e-12
4.93321e-12
3.47727e-12
4.00496e-12
1.82619e-12
2.95543e-12
7.17895e-13
1.83831e-12
1.31516e-13
7.67307e-13
9.43541e-16
1.26268e-13
2.64732e-13
9.19236e-13
-1.6237e-12
2.50054e-12
-4.03305e-12
4.8244e-12
-5.89519e-12
7.77856e-12
-7.38923e-12
1.12641e-11
-8.63049e-12
1.51749e-11
-9.65462e-12
1.94148e-11
-1.04654e-11
2.38948e-11
-1.10676e-11
2.85298e-11
-1.14722e-11
3.32467e-11
-1.16884e-11
3.79733e-11
-1.17333e-11
4.26496e-11
-1.16214e-11
4.72154e-11
-1.13712e-11
5.16223e-11
-1.09969e-11
5.58268e-11
-1.05131e-11
5.97868e-11
-9.93614e-12
6.34727e-11
-9.27652e-12
6.68526e-11
-8.5492e-12
6.99043e-11
-7.76355e-12
7.2608e-11
-6.9307e-12
7.49462e-11
-6.06138e-12
7.69075e-11
-5.16288e-12
7.84849e-11
-4.24338e-12
7.96704e-11
-3.31142e-12
8.04626e-11
-2.37229e-12
8.08619e-11
-1.43284e-12
8.08679e-11
-5.00001e-13
8.04876e-11
4.22799e-13
7.97277e-11
1.33019e-12
7.85941e-11
2.2167e-12
7.70996e-11
3.08012e-12
7.52552e-11
3.91623e-12
7.3072e-11
4.72032e-12
7.05657e-11
5.49125e-12
6.77518e-11
6.22644e-12
6.46449e-11
6.92203e-12
6.12634e-11
7.57695e-12
5.76259e-11
8.19014e-12
5.3749e-11
8.75857e-12
4.96519e-11
9.28175e-12
4.5356e-11
9.76036e-12
4.08791e-11
1.01918e-11
3.6241e-11
1.05753e-11
3.14641e-11
1.09123e-11
2.65678e-11
1.12015e-11
2.15716e-11
1.14423e-11
1.64974e-11
1.16357e-11
1.13654e-11
1.17819e-11
6.19351e-12
1.188e-11
1.0027e-12
1.19311e-11
-4.1857e-12
1.19367e-11
-9.35366e-12
1.18967e-11
-1.44829e-11
1.18116e-11
-1.95536e-11
1.16835e-11
-2.45479e-11
1.15132e-11
-2.94497e-11
1.13012e-11
-3.42412e-11
1.10492e-11
-3.89051e-11
1.07592e-11
-4.34263e-11
1.04324e-11
-4.77902e-11
1.00698e-11
-5.19816e-11
9.67343e-12
-5.59862e-11
9.24511e-12
-5.97916e-11
8.78591e-12
-6.33859e-11
8.29757e-12
-6.67567e-11
7.78257e-12
-6.98929e-11
7.24269e-12
-7.27854e-11
6.67904e-12
-7.54254e-11
6.09371e-12
-7.7804e-11
5.48936e-12
-7.99138e-11
4.8679e-12
-8.17485e-11
4.23089e-12
-8.33022e-11
3.58046e-12
-8.45699e-11
2.91899e-12
-8.55474e-11
2.24838e-12
-8.6232e-11
1.57018e-12
-8.66213e-11
8.86325e-13
-8.67137e-11
1.99223e-13
-8.65086e-11
-4.88913e-13
-8.60071e-11
-1.17625e-12
-8.52102e-11
-1.86069e-12
-8.41197e-11
-2.53975e-12
-8.27385e-11
-3.21149e-12
-8.1071e-11
-3.87433e-12
-7.91217e-11
-4.52626e-12
-7.6896e-11
-5.16481e-12
-7.44002e-11
-5.78785e-12
-7.16422e-11
-6.39398e-12
-6.86303e-11
-6.98149e-12
-6.53732e-11
-7.54815e-12
-6.188e-11
-8.09208e-12
-5.81615e-11
-8.61156e-12
-5.42288e-11
-9.10494e-12
-5.00937e-11
-9.57046e-12
-4.57685e-11
-1.0006e-11
-4.12667e-11
-1.04103e-11
-3.66026e-11
-1.07826e-11
-3.17907e-11
-1.11211e-11
-2.68457e-11
-1.14242e-11
-2.17832e-11
-1.16903e-11
-1.66197e-11
-1.19183e-11
-1.1372e-11
-1.21073e-11
-6.05686e-12
-1.22563e-11
-6.92009e-13
-1.23639e-11
4.70451e-12
-1.24297e-11
1.0114e-11
-1.24529e-11
1.55179e-11
-1.24322e-11
2.08979e-11
-1.2367e-11
2.62346e-11
-1.22565e-11
3.15083e-11
-1.21008e-11
3.67002e-11
-1.19e-11
4.17905e-11
-1.16537e-11
4.67601e-11
-1.13612e-11
5.15896e-11
-1.10229e-11
5.62591e-11
-1.06395e-11
6.07494e-11
-1.02114e-11
6.50425e-11
-9.73931e-12
6.91195e-11
-9.22369e-12
7.2962e-11
-8.66502e-12
7.65528e-11
-8.06482e-12
7.98746e-11
-7.42444e-12
8.29111e-11
-6.74486e-12
8.56469e-11
-6.02793e-12
8.80664e-11
-5.27583e-12
9.01558e-11
-4.4904e-12
9.19026e-11
-3.67411e-12
9.32948e-11
-2.82989e-12
9.43213e-11
-1.96035e-12
9.49738e-11
-1.06871e-12
9.52444e-11
-1.59023e-13
9.51268e-11
7.64987e-13
9.46175e-11
1.69953e-12
9.37146e-11
2.63976e-12
9.24166e-11
3.58047e-12
9.07263e-11
4.51645e-12
8.86494e-11
5.44173e-12
8.61926e-11
6.34979e-12
8.33659e-11
7.23398e-12
8.01835e-11
8.08679e-12
7.66621e-11
8.89976e-12
7.28217e-11
9.66429e-12
6.86876e-11
1.03712e-11
6.42888e-11
1.10097e-11
5.96571e-11
1.15682e-11
5.48306e-11
1.2035e-11
4.98537e-11
1.23971e-11
4.47747e-11
1.26402e-11
3.96477e-11
1.27489e-11
3.4533e-11
1.27076e-11
2.94969e-11
1.24995e-11
2.46112e-11
1.21074e-11
1.99533e-11
1.1515e-11
1.56052e-11
1.07077e-11
1.16495e-11
9.67415e-12
8.16741e-12
8.41145e-12
5.23692e-12
6.93099e-12
2.926e-12
5.2665e-12
1.28117e-12
3.48853e-12
3.08974e-13
1.737e-12
3.09505e-13
3.87988e-13
-1.22776e-13
1.59316e-12
-2.82644e-12
3.64043e-12
-6.08019e-12
6.48795e-12
-8.74592e-12
1.00448e-11
-1.09417e-11
1.41929e-11
-1.27799e-11
1.88244e-11
-1.42847e-11
2.38281e-11
-1.54686e-11
2.90998e-11
-1.63413e-11
3.4547e-11
-1.69177e-11
4.00773e-11
-1.72187e-11
4.56105e-11
-1.72659e-11
5.10716e-11
-1.70833e-11
5.63935e-11
-1.66944e-11
6.15183e-11
-1.61204e-11
6.63894e-11
-1.53854e-11
7.09627e-11
-1.45083e-11
7.51956e-11
-1.35103e-11
7.90541e-11
-1.24085e-11
8.25103e-11
-1.12192e-11
8.55381e-11
-9.95929e-12
8.81183e-11
-8.64239e-12
9.02369e-11
-7.2813e-12
9.18815e-11
-5.88917e-12
9.30462e-11
-4.47637e-12
9.37282e-11
-3.05319e-12
9.3925e-11
-1.63052e-12
9.36403e-11
-2.15699e-13
9.28806e-11
1.18353e-12
9.1652e-11
2.55812e-12
8.99661e-11
3.90283e-12
8.78356e-11
5.21198e-12
8.52726e-11
6.47842e-12
8.22944e-11
7.69824e-12
7.89193e-11
8.86742e-12
7.51645e-11
9.98049e-12
7.10507e-11
1.10347e-11
6.66003e-11
1.20283e-11
6.18336e-11
1.29568e-11
5.67734e-11
1.38177e-11
5.14449e-11
1.46108e-11
4.58711e-11
1.53338e-11
4.00764e-11
1.59849e-11
3.40872e-11
1.65646e-11
2.79284e-11
1.70716e-11
2.1624e-11
1.75047e-11
1.52007e-11
1.78648e-11
8.68497e-12
1.81521e-11
2.10068e-12
1.83661e-11
-4.5275e-12
1.85073e-11
-1.11734e-11
1.85772e-11
-1.7813e-11
1.85766e-11
-2.4423e-11
1.85058e-11
-3.09786e-11
1.83669e-11
-3.74562e-11
1.81618e-11
-4.38345e-11
1.78915e-11
-5.00917e-11
1.75577e-11
-5.62053e-11
1.7163e-11
-6.21549e-11
1.67094e-11
-6.79215e-11
1.61987e-11
-7.34858e-11
1.56335e-11
-7.88287e-11
1.50167e-11
-8.39335e-11
1.43503e-11
-8.87844e-11
1.36365e-11
-9.33652e-11
1.28784e-11
-9.76612e-11
1.2079e-11
-1.01659e-10
1.12409e-11
-1.05347e-10
1.03668e-11
-1.08713e-10
9.46001e-12
-1.11746e-10
8.52364e-12
-1.14438e-10
7.56025e-12
-1.1678e-10
6.573e-12
-1.18764e-10
5.56538e-12
-1.20385e-10
4.54048e-12
-1.21638e-10
3.50099e-12
-1.22518e-10
2.44999e-12
-1.23023e-10
1.39105e-12
-1.2315e-10
3.27336e-13
-1.229e-10
-7.3851e-13
-1.22274e-10
-1.80337e-12
-1.21271e-10
-2.86343e-12
-1.19896e-10
-3.91515e-12
-1.18151e-10
-4.95595e-12
-1.16043e-10
-5.98311e-12
-1.13576e-10
-6.99308e-12
-1.10758e-10
-7.98252e-12
-1.07596e-10
-8.94874e-12
-1.04101e-10
-9.88916e-12
-1.00282e-10
-1.08007e-11
-9.61503e-11
-1.16799e-11
-9.17179e-11
-1.2524e-11
-8.69979e-11
-1.3331e-11
-8.20047e-11
-1.40981e-11
-7.67524e-11
-1.48223e-11
-7.12568e-11
-1.55008e-11
-6.5535e-11
-1.61314e-11
-5.96042e-11
-1.67126e-11
-5.34832e-11
-1.72417e-11
-4.71905e-11
-1.77161e-11
-4.07454e-11
-1.8134e-11
-3.4169e-11
-1.84942e-11
-2.74816e-11
-1.87944e-11
-2.07046e-11
-1.90329e-11
-1.38607e-11
-1.92077e-11
-6.97238e-12
-1.93179e-11
-6.23534e-14
-1.93628e-11
6.84571e-12
-1.93407e-11
1.37289e-11
-1.92501e-11
2.05629e-11
-1.90904e-11
2.73229e-11
-1.88613e-11
3.39857e-11
-1.85626e-11
4.05269e-11
-1.81942e-11
4.69215e-11
-1.77556e-11
5.31458e-11
-1.72469e-11
5.91752e-11
-1.66692e-11
6.49857e-11
-1.60229e-11
7.05547e-11
-1.53086e-11
7.58585e-11
-1.45276e-11
8.08741e-11
-1.36814e-11
8.55805e-11
-1.27715e-11
8.99566e-11
-1.18001e-11
9.39811e-11
-1.07694e-11
9.76349e-11
-9.68157e-12
1.00899e-10
-8.53993e-12
1.03757e-10
-7.34807e-12
1.06192e-10
-6.10941e-12
1.08191e-10
-4.82799e-12
1.09739e-10
-3.5086e-12
1.10825e-10
-2.15604e-12
1.11442e-10
-7.75656e-13
1.1158e-10
6.26302e-13
1.11237e-10
2.04348e-12
1.10408e-10
3.46912e-12
1.09093e-10
4.89525e-12
1.07296e-10
6.31336e-12
1.05022e-10
7.71485e-12
1.02282e-10
9.09012e-12
9.90874e-11
1.04284e-11
9.54552e-11
1.17187e-11
9.14066e-11
1.29487e-11
8.69667e-11
1.4105e-11
8.21653e-11
1.51732e-11
7.7037e-11
1.61383e-11
7.16216e-11
1.69838e-11
6.5965e-11
1.76914e-11
6.01194e-11
1.82423e-11
5.41422e-11
1.86166e-11
4.80976e-11
1.87929e-11
4.20562e-11
1.87484e-11
3.60946e-11
1.84604e-11
3.02953e-11
1.79065e-11
2.47463e-11
1.70647e-11
1.954e-11
1.59156e-11
1.47694e-11
1.44463e-11
1.05268e-11
1.26544e-11
6.90006e-12
1.05554e-11
3.97047e-12
8.1928e-12
1.81129e-12
5.64969e-12
4.70955e-13
3.07708e-12
7.80094e-13
5.91388e-13
-7.15236e-13
2.16789e-12
-4.40469e-12
4.6571e-12
-8.5708e-12
7.99974e-12
-1.20865e-11
1.20909e-11
-1.50342e-11
1.6815e-11
-1.7503e-11
2.20493e-11
-1.95213e-11
2.76787e-11
-2.10987e-11
3.35905e-11
-2.22526e-11
3.96778e-11
-2.30059e-11
4.58438e-11
-2.33844e-11
5.19965e-11
-2.34186e-11
5.80518e-11
-2.31404e-11
6.39379e-11
-2.25788e-11
6.95833e-11
-2.17667e-11
7.49304e-11
-2.07316e-11
7.99243e-11
-1.95022e-11
8.45185e-11
-1.8105e-11
8.86743e-11
-1.65636e-11
9.23571e-11
-1.49022e-11
9.55384e-11
-1.31416e-11
9.81975e-11
-1.13009e-11
1.00315e-10
-9.39951e-12
1.01879e-10
-7.45364e-12
1.02882e-10
-5.47849e-12
1.03318e-10
-3.49004e-12
1.03187e-10
-1.50073e-12
1.02494e-10
4.78028e-13
1.01242e-10
2.43354e-12
9.94433e-11
4.35636e-12
9.71097e-11
6.23777e-12
9.42536e-11
8.06756e-12
9.08923e-11
9.83875e-12
8.70457e-11
1.15456e-11
8.27331e-11
1.31796e-11
7.79767e-11
1.47357e-11
7.2802e-11
1.62105e-11
6.72324e-11
1.7598e-11
6.12936e-11
1.88945e-11
5.50141e-11
2.00978e-11
4.84209e-11
2.12044e-11
4.15418e-11
2.22114e-11
3.44076e-11
2.31185e-11
2.70483e-11
2.39243e-11
1.94923e-11
2.46269e-11
1.17705e-11
2.5226e-11
3.91344e-12
2.5722e-11
-4.04911e-12
2.61145e-11
-1.20875e-11
2.64033e-11
-2.01706e-11
2.65902e-11
-2.82689e-11
2.66762e-11
-3.63546e-11
2.66618e-11
-4.43984e-11
2.65491e-11
-5.23712e-11
2.63403e-11
-6.02461e-11
2.60371e-11
-6.79969e-11
2.56416e-11
-7.55967e-11
2.5157e-11
-8.30195e-11
2.45863e-11
-9.02419e-11
2.39317e-11
-9.72402e-11
2.31963e-11
-1.03991e-10
2.23841e-11
-1.10472e-10
2.14983e-11
-1.16664e-10
2.0542e-11
-1.22547e-10
1.95191e-11
-1.28102e-10
1.84338e-11
-1.33311e-10
1.72894e-11
-1.3816e-10
1.60898e-11
-1.42633e-10
1.48396e-11
-1.46715e-10
1.35433e-11
-1.50396e-10
1.22046e-11
-1.53662e-10
1.08274e-11
-1.56506e-10
9.41667e-12
-1.58918e-10
7.97706e-12
-1.60889e-10
6.51258e-12
-1.62416e-10
5.02726e-12
-1.63492e-10
3.52584e-12
-1.64114e-10
2.0133e-12
-1.6428e-10
4.93889e-13
-1.6399e-10
-1.02849e-12
-1.63244e-10
-2.54911e-12
-1.62045e-10
-4.06296e-12
-1.60394e-10
-5.56563e-12
-1.58297e-10
-7.05308e-12
-1.55759e-10
-8.52082e-12
-1.52788e-10
-9.96396e-12
-1.49392e-10
-1.13783e-11
-1.45581e-10
-1.27599e-11
-1.41365e-10
-1.41049e-11
-1.36757e-10
-1.54088e-11
-1.3177e-10
-1.66671e-11
-1.26418e-10
-1.78759e-11
-1.20717e-10
-1.90319e-11
-1.14683e-10
-2.01312e-11
-1.08335e-10
-2.11695e-11
-1.01691e-10
-2.21438e-11
-9.47705e-11
-2.30509e-11
-8.75949e-11
-2.38874e-11
-8.01857e-11
-2.46499e-11
-7.2566e-11
-2.53352e-11
-6.47589e-11
-2.59407e-11
-5.67888e-11
-2.64641e-11
-4.86804e-11
-2.69026e-11
-4.04588e-11
-2.72535e-11
-3.21515e-11
-2.75148e-11
-2.37853e-11
-2.76846e-11
-1.53867e-11
-2.77611e-11
-6.98421e-12
-2.7743e-11
1.3944e-12
-2.76285e-11
9.72058e-12
-2.74164e-11
1.79651e-11
-2.71064e-11
2.60997e-11
-2.66977e-11
3.40959e-11
-2.61899e-11
4.19238e-11
-2.55832e-11
4.95546e-11
-2.4878e-11
5.69601e-11
-2.40749e-11
6.41118e-11
-2.3175e-11
7.09819e-11
-2.21792e-11
7.75428e-11
-2.1089e-11
8.37673e-11
-1.99069e-11
8.96303e-11
-1.86351e-11
9.5107e-11
-1.72764e-11
1.00172e-10
-1.58341e-11
1.04803e-10
-1.43122e-11
1.08978e-10
-1.27146e-11
1.12676e-10
-1.10462e-11
1.15879e-10
-9.31232e-12
1.18569e-10
-7.51857e-12
1.20732e-10
-5.67135e-12
1.22353e-10
-3.77805e-12
1.23423e-10
-1.84616e-12
1.23933e-10
1.1619e-13
1.23878e-10
2.0995e-12
1.23253e-10
4.09378e-12
1.2206e-10
6.08861e-12
1.20301e-10
8.07225e-12
1.17984e-10
1.00319e-11
1.1512e-10
1.19542e-11
1.11723e-10
1.3825e-11
1.07813e-10
1.56281e-11
1.03416e-10
1.73467e-11
9.85589e-11
1.89626e-11
9.32772e-11
2.04559e-11
8.76105e-11
2.18056e-11
8.16039e-11
2.29896e-11
7.53102e-11
2.39844e-11
6.87886e-11
2.47641e-11
6.21036e-11
2.53015e-11
5.53266e-11
2.5569e-11
4.85367e-11
2.55378e-11
4.18191e-11
2.51782e-11
3.5264e-11
2.44612e-11
2.89673e-11
2.33603e-11
2.30294e-11
2.1853e-11
1.75528e-11
1.99235e-11
1.26402e-11
1.75682e-11
8.39261e-12
1.48038e-11
4.90613e-12
1.16771e-11
2.28062e-12
8.27516e-12
6.09366e-13
4.74854e-12
1.38947e-12
7.37965e-13
-1.45177e-12
2.62021e-12
-6.28846e-12
5.49692e-12
-1.14456e-11
9.2717e-12
-1.58613e-11
1.38292e-11
-1.95904e-11
1.9038e-11
-2.27141e-11
2.4773e-11
-2.52558e-11
3.0908e-11
-2.72325e-11
3.73213e-11
-2.86673e-11
4.39044e-11
-2.9587e-11
5.05483e-11
-3.0028e-11
5.71559e-11
-3.00274e-11
6.36398e-11
-2.96229e-11
6.99147e-11
-2.88552e-11
7.59099e-11
-2.77615e-11
8.15579e-11
-2.63796e-11
8.68e-11
-2.47455e-11
9.15869e-11
-2.28909e-11
9.58727e-11
-2.08494e-11
9.96199e-11
-1.86503e-11
1.02799e-10
-1.63202e-11
1.05384e-10
-1.38858e-11
1.07354e-10
-1.1371e-11
1.08698e-10
-8.79672e-12
1.09405e-10
-6.18525e-12
1.09469e-10
-3.55519e-12
1.08892e-10
-9.22934e-13
1.07675e-10
1.69366e-12
1.05827e-10
4.28044e-12
1.03359e-10
6.82512e-12
1.00284e-10
9.3132e-12
9.66169e-11
1.17336e-11
9.2379e-11
1.40775e-11
8.75901e-11
1.6334e-11
8.22735e-11
1.84947e-11
7.64564e-11
2.05535e-11
7.01647e-11
2.25025e-11
6.34264e-11
2.43354e-11
5.62725e-11
2.60485e-11
4.87338e-11
2.76368e-11
4.08413e-11
2.9096e-11
3.26285e-11
3.04235e-11
2.41298e-11
3.16176e-11
1.5378e-11
3.26755e-11
6.4079e-12
3.35961e-11
-2.74488e-12
3.43792e-11
-1.20465e-11
3.5024e-11
-2.1463e-11
3.55301e-11
-3.0959e-11
3.58986e-11
-4.04994e-11
3.61309e-11
-5.0051e-11
3.62276e-11
-5.95804e-11
3.61905e-11
-6.90536e-11
3.60224e-11
-7.84384e-11
3.57257e-11
-8.7704e-11
3.53023e-11
-9.68187e-11
3.4756e-11
-1.05752e-10
3.40905e-11
-1.14474e-10
3.33091e-11
-1.22959e-10
3.24155e-11
-1.31178e-10
3.14145e-11
-1.39103e-10
3.03103e-11
-1.46712e-10
2.9107e-11
-1.5398e-10
2.78094e-11
-1.60884e-10
2.6423e-11
-1.67403e-10
2.49528e-11
-1.73516e-10
2.34033e-11
-1.79207e-10
2.17801e-11
-1.84455e-10
2.00892e-11
-1.89247e-10
1.83359e-11
-1.93568e-10
1.65256e-11
-1.97405e-10
1.46641e-11
-2.00745e-10
1.27577e-11
-2.0358e-10
1.08121e-11
-2.059e-10
8.833e-12
-2.077e-10
6.82627e-12
-2.08972e-10
4.79821e-12
-2.09713e-10
2.75482e-12
-2.09921e-10
7.01832e-13
-2.09595e-10
-1.35471e-12
-2.08736e-10
-3.40836e-12
-2.07345e-10
-5.45313e-12
-2.05427e-10
-7.48352e-12
-2.02987e-10
-9.49347e-12
-2.00031e-10
-1.14766e-11
-1.96567e-10
-1.34271e-11
-1.92606e-10
-1.53392e-11
-1.88158e-10
-1.72077e-11
-1.83237e-10
-1.90266e-11
-1.77855e-10
-2.07902e-11
-1.72028e-10
-2.24932e-11
-1.65774e-10
-2.41305e-11
-1.59109e-10
-2.56967e-11
-1.52053e-10
-2.71865e-11
-1.44627e-10
-2.85949e-11
-1.36852e-10
-2.99178e-11
-1.28751e-10
-3.11508e-11
-1.20349e-10
-3.22889e-11
-1.1167e-10
-3.33279e-11
-1.0274e-10
-3.4264e-11
-9.35874e-11
-3.50934e-11
-8.42391e-11
-3.58123e-11
-7.47241e-11
-3.64173e-11
-6.50718e-11
-3.69052e-11
-5.53131e-11
-3.72733e-11
-4.54789e-11
-3.75192e-11
-3.56004e-11
-3.76399e-11
-2.57098e-11
-3.76334e-11
-1.58396e-11
-3.74983e-11
-6.02292e-12
-3.72331e-11
3.70741e-12
-3.6837e-11
1.33185e-11
-3.6309e-11
2.27768e-11
-3.56483e-11
3.20487e-11
-3.48553e-11
4.11012e-11
-3.3931e-11
4.99014e-11
-3.28757e-11
5.84168e-11
-3.16907e-11
6.66153e-11
-3.03779e-11
7.44651e-11
-2.89395e-11
8.19357e-11
-2.73781e-11
8.89977e-11
-2.56973e-11
9.5622e-11
-2.39007e-11
1.01781e-10
-2.19926e-11
1.07447e-10
-1.99785e-11
1.12597e-10
-1.78642e-11
1.17206e-10
-1.56556e-11
1.21253e-10
-1.33597e-11
1.24719e-10
-1.09846e-11
1.27585e-10
-8.53872e-12
1.29838e-10
-6.03142e-12
1.31466e-10
-3.47325e-12
1.32457e-10
-8.75232e-13
1.32806e-10
1.75063e-12
1.32509e-10
4.39084e-12
1.31567e-10
7.03105e-12
1.29982e-10
9.65628e-12
1.27764e-10
1.225e-11
1.24925e-10
1.47941e-11
1.2148e-10
1.72693e-11
1.17453e-10
1.96554e-11
1.1287e-10
2.19301e-11
1.07764e-10
2.40693e-11
1.02173e-10
2.60476e-11
9.61405e-11
2.78382e-11
8.97175e-11
2.94125e-11
8.29614e-11
3.07399e-11
7.59367e-11
3.17885e-11
6.87139e-11
3.25245e-11
6.13704e-11
3.29125e-11
5.39915e-11
3.29166e-11
4.66688e-11
3.25013e-11
3.94996e-11
3.16312e-11
3.25861e-11
3.0274e-11
2.60355e-11
2.84027e-11
1.99584e-11
2.59993e-11
1.44686e-11
2.30581e-11
9.68111e-12
1.95931e-11
5.70996e-12
1.56479e-11
2.6797e-12
1.1305e-11
7.23887e-13
6.70448e-12
2.11354e-12
8.3888e-13
-2.28863e-12
2.96098e-12
-8.40931e-12
6.15583e-12
-1.46396e-11
1.02927e-11
-1.99988e-11
1.52359e-11
-2.45332e-11
2.08425e-11
-2.83214e-11
2.69762e-11
-3.13884e-11
3.35027e-11
-3.37598e-11
4.0298e-11
-3.54612e-11
4.72419e-11
-3.65306e-11
5.42234e-11
-3.70106e-11
6.11413e-11
-3.69445e-11
6.78988e-11
-3.63811e-11
7.44109e-11
-3.53667e-11
8.05984e-11
-3.39482e-11
8.63894e-11
-3.21722e-11
9.17247e-11
-3.00796e-11
9.65475e-11
-2.77136e-11
1.0081e-10
-2.5113e-11
1.04474e-10
-2.23134e-11
1.07504e-10
-1.93504e-11
1.09873e-10
-1.6256e-11
1.11562e-10
-1.30589e-11
1.12553e-10
-9.78852e-12
1.12838e-10
-6.4709e-12
1.12411e-10
-3.12841e-12
1.11273e-10
2.15116e-13
1.09426e-10
3.53918e-12
1.06881e-10
6.82672e-12
1.03647e-10
1.00585e-11
9.97403e-11
1.32188e-11
9.51802e-11
1.62946e-11
8.99867e-11
1.92709e-11
8.41835e-11
2.21358e-11
7.77983e-11
2.488e-11
7.08589e-11
2.74931e-11
6.33947e-11
2.99659e-11
5.54388e-11
3.22914e-11
4.70244e-11
3.44632e-11
3.81854e-11
3.64749e-11
2.89585e-11
3.83221e-11
1.93809e-11
4.00013e-11
9.48962e-12
4.15088e-11
-6.77656e-13
4.28418e-11
-1.10813e-11
4.39995e-11
-2.16823e-11
4.49806e-11
-3.24426e-11
4.5784e-11
-4.33231e-11
4.64099e-11
-5.4284e-11
4.68597e-11
-6.52872e-11
4.71342e-11
-7.62951e-11
4.72346e-11
-8.72687e-11
4.71639e-11
-9.81707e-11
4.69249e-11
-1.08966e-10
4.65203e-11
-1.19618e-10
4.59536e-11
-1.30091e-10
4.52293e-11
-1.40351e-10
4.43515e-11
-1.50367e-10
4.33246e-11
-1.60106e-10
4.21539e-11
-1.69537e-10
4.08452e-11
-1.7863e-10
3.94035e-11
-1.87357e-10
3.78343e-11
-1.95692e-10
3.61443e-11
-2.03609e-10
3.43399e-11
-2.11083e-10
3.24272e-11
-2.18093e-10
3.04128e-11
-2.24617e-10
2.83041e-11
-2.30635e-10
2.6108e-11
-2.3613e-10
2.38312e-11
-2.41086e-10
2.14812e-11
-2.45487e-10
1.90656e-11
-2.49321e-10
1.65921e-11
-2.52576e-10
1.40676e-11
-2.55243e-10
1.15e-11
-2.57314e-10