/*--------------------------------*- C++ -*----------------------------------*\
  =========                 |
  \\      /  F ield         | OpenFOAM: The Open Source CFD Toolbox
   \\    /   O peration     | Website:  https://openfoam.org
    \\  /    A nd           | Version:  7
     \\/     M anipulation  |
\*---------------------------------------------------------------------------*/
FoamFile
{
    version     2.0;
    format      ascii;
    class       volScalarField;
    location    "0.5";
    object      p;
}
// * * * * * * * * * * * * * * * * * * * * * * * * * * * * * * * * * * * * * //

dimensions      [0 2 -2 0 0 0 0];

internalField   nonuniform List<scalar> 
12800
(
2.31072e-06
3.07938e-05
-2.31636e-06
-0.000107994
-0.000278507
-0.000504078
-0.000774181
-0.00107849
-0.00140761
-0.00175329
-0.0021085
-0.00246709
-0.00282407
-0.00317522
-0.00351711
-0.00384697
-0.00416262
-0.00446239
-0.00474502
-0.00500963
-0.00525565
-0.00548278
-0.00569091
-0.00588011
-0.00605058
-0.00620264
-0.00633665
-0.00645306
-0.00655232
-0.00663491
-0.0067013
-0.00675193
-0.00678726
-0.00680766
-0.00681351
-0.00680512
-0.00678274
-0.00674661
-0.00669688
-0.00663366
-0.006557
-0.0064669
-0.00636332
-0.00624613
-0.00611519
-0.00597027
-0.0058111
-0.00563738
-0.00544873
-0.00524474
-0.00502494
-0.00478881
-0.00453578
-0.00426525
-0.00397656
-0.00366899
-0.00334178
-0.00299412
-0.00262516
-0.00223398
-0.00181962
-0.00138107
-0.000917267
-0.000427089
9.06331e-05
0.000637122
0.00121366
0.00182157
0.00246223
0.00313709
0.00384764
0.00459541
0.005382
0.00620904
0.00707822
0.00799125
0.0089499
0.00995597
0.0110113
0.0121177
0.0132771
0.0144914
0.0157624
0.017092
0.0184822
0.0199346
0.0214511
0.0230335
0.0246834
0.0264024
0.0281919
0.0300534
0.031988
0.0339967
0.0360805
0.0382399
0.0404755
0.0427872
0.045175
0.0476384
0.0501766
0.0527885
0.0554723
0.0582261
0.0610474
0.0639332
0.0668801
0.0698841
0.0729406
0.0760445
0.07919
0.082371
0.0855805
0.0888111
0.0920548
0.095303
0.0985466
0.101776
0.104981
0.108152
0.111277
0.114345
0.117345
0.120267
0.123097
0.125826
0.128442
0.130934
0.133292
0.135507
0.137568
0.139469
0.141201
0.142758
0.144136
0.14533
0.146339
0.147161
0.147796
0.148248
0.148519
0.148616
0.148545
0.148316
0.147939
0.147426
0.146792
0.146053
0.145226
0.144332
0.143392
0.142432
0.141476
0.140557
0.139707
0.138963
0.138364
0.137952
0.137765
0.137793
-2.29466e-05
4.24086e-06
-3.05959e-05
-0.000127671
-0.00027813
-0.000475263
-0.000711563
-0.000979045
-0.00127007
-0.00157768
-0.0018957
-0.0022187
-0.00254204
-0.00286178
-0.00317463
-0.00347788
-0.00376933
-0.00404726
-0.00431031
-0.0045575
-0.00478811
-0.00500168
-0.00519796
-0.00537686
-0.00553843
-0.00568282
-0.00581027
-0.00592106
-0.00601553
-0.00609401
-0.00615688
-0.00620446
-0.0062371
-0.0062551
-0.00625875
-0.00624827
-0.00622388
-0.00618572
-0.00613391
-0.00606851
-0.00598954
-0.00589696
-0.00579068
-0.00567058
-0.00553646
-0.0053881
-0.00522522
-0.00504749
-0.00485454
-0.00464593
-0.00442121
-0.00417986
-0.00392131
-0.00364496
-0.00335015
-0.00303618
-0.00270231
-0.00234774
-0.00197162
-0.00157307
-0.00115115
-0.000704866
-0.000233182
0.000264989
0.000790784
0.00134539
0.00193004
0.00254603
0.00319469
0.0038774
0.00459561
0.00535078
0.00614445
0.00697818
0.00785359
0.00877232
0.00973605
0.0107465
0.0118054
0.0129145
0.0140756
0.0152904
0.0165608
0.0178885
0.0192752
0.0207227
0.0222325
0.0238064
0.0254458
0.0271523
0.028927
0.0307714
0.0326863
0.0346728
0.0367315
0.0388631
0.0410676
0.0433453
0.0456958
0.0481186
0.0506128
0.0531771
0.0558098
0.058509
0.061272
0.064096
0.0669776
0.0699127
0.0728968
0.0759251
0.078992
0.0820913
0.0852164
0.0883602
0.0915149
0.0946723
0.0978237
0.10096
0.104071
0.107148
0.11018
0.113156
0.116067
0.1189
0.121646
0.124294
0.126833
0.129254
0.131546
0.133702
0.135712
0.137568
0.139265
0.140796
0.142158
0.143346
0.144358
0.145195
0.145856
0.146345
0.146665
0.146821
0.146821
0.146674
0.146389
0.145978
0.145456
0.144838
0.144139
0.14338
0.14258
0.141762
0.14095
0.140171
0.139453
0.138826
0.138319
0.137962
0.137792
0.13782
1.08843e-05
3.92842e-05
4.151e-06
-8.83205e-05
-0.000227427
-0.000407436
-0.000622285
-0.000865367
-0.00113024
-0.00141094
-0.00170202
-0.00199865
-0.00229659
-0.0025922
-0.00288238
-0.00316454
-0.00343655
-0.00369668
-0.00394356
-0.00417615
-0.00439367
-0.00459557
-0.0047815
-0.00495128
-0.00510484
-0.00524223
-0.00536357
-0.00546906
-0.00555893
-0.00563342
-0.0056928
-0.00573733
-0.00576727
-0.00578285
-0.00578429
-0.00577176
-0.00574541
-0.00570535
-0.00565164
-0.0055843
-0.00550333
-0.00540864
-0.00530012
-0.00517764
-0.00504097
-0.00488988
-0.00472406
-0.0045432
-0.00434689
-0.00413472
-0.00390621
-0.00366085
-0.00339808
-0.00311729
-0.00281785
-0.00249904
-0.00216015
-0.00180039
-0.00141892
-0.00101488
-0.000587348
-0.000135356
0.000342108
0.000846103
0.00137774
0.00193817
0.00252859
0.00315026
0.00380446
0.00449255
0.0052159
0.00597595
0.00677416
0.00761205
0.00849116
0.00941308
0.0103794
0.0113918
0.012452
0.0135615
0.0147221
0.0159356
0.0172034
0.0185275
0.0199093
0.0213505
0.0228527
0.0244174
0.026046
0.0277398
0.0295002
0.0313281
0.0332247
0.0351907
0.0372267
0.0393332
0.0415104
0.0437582
0.0460763
0.0484641
0.0509206
0.0534446
0.0560344
0.0586879
0.0614026
0.0641756
0.0670035
0.0698824
0.072808
0.0757754
0.0787792
0.0818133
0.0848715
0.0879468
0.0910316
0.0941181
0.0971978
0.100262
0.103301
0.106306
0.109267
0.112173
0.115015
0.117782
0.120465
0.123052
0.125534
0.127902
0.130147
0.132259
0.134231
0.136057
0.137728
0.139241
0.140592
0.141776
0.142793
0.143642
0.144324
0.144842
0.145199
0.145401
0.145454
0.145368
0.145152
0.144818
0.144378
0.143848
0.143243
0.142581
0.14188
0.141162
0.140449
0.139763
0.139129
0.138573
0.138118
0.137789
0.137621
0.137635
0.000117313
0.000136845
9.61563e-05
2.91927e-06
-0.000132105
-0.000303509
-0.000505924
-0.000733612
-0.000980999
-0.00124286
-0.0015144
-0.00179131
-0.00206977
-0.00234644
-0.00261847
-0.00288342
-0.00313928
-0.00338439
-0.0036174
-0.00383728
-0.00404323
-0.00423466
-0.00441116
-0.0045725
-0.00471853
-0.00484925
-0.00496469
-0.00506498
-0.00515026
-0.00522072
-0.00527654
-0.00531794
-0.00534508
-0.00535816
-0.00535733
-0.00534271
-0.00531441
-0.00527249
-0.00521697
-0.00514784
-0.00506505
-0.00496851
-0.00485809
-0.0047336
-0.00459482
-0.0044415
-0.00427333
-0.00408996
-0.00389101
-0.00367604
-0.00344458
-0.00319611
-0.00293008
-0.00264589
-0.0023429
-0.00202043
-0.00167774
-0.00131407
-0.00092861
-0.000520498
-8.88374e-05
0.000367318
0.000848958
0.00135712
0.00189287
0.00245735
0.00305171
0.00367718
0.00433501
0.0050265
0.00575299
0.00651586
0.00731655
0.0081565
0.00903722
0.00996022
0.0109271
0.0119394
0.0129986
0.0141066
0.0152648
0.0164748
0.0177384
0.019057
0.0204323
0.0218658
0.023359
0.0249133
0.0265301
0.0282106
0.0299561
0.0317675
0.0336458
0.0355917
0.0376058
0.0396885
0.0418399
0.0440599
0.0463482
0.0487041
0.0511267
0.0536147
0.0561664
0.0587797
0.0614523
0.0641812
0.0669631
0.0697942
0.0726703
0.0755865
0.0785376
0.0815179
0.0845211
0.0875403
0.0905685
0.0935978
0.09662
0.0996267
0.102609
0.105557
0.108463
0.111315
0.114104
0.116821
0.119455
0.121997
0.124437
0.126765
0.128974
0.131055
0.133001
0.134803
0.136458
0.137959
0.139303
0.140487
0.141509
0.142369
0.143068
0.143609
0.143995
0.144232
0.144327
0.144288
0.144124
0.143847
0.143469
0.143004
0.142467
0.141874
0.141244
0.140594
0.139946
0.139319
0.138735
0.138216
0.137783
0.137456
0.137265
0.137227
0.000290141
0.000288867
0.000235345
0.000135965
-3.41082e-07
-0.000168565
-0.000363895
-0.000581345
-0.000816088
-0.00106358
-0.00131961
-0.00158038
-0.00184248
-0.00210291
-0.00235906
-0.00260872
-0.00285
-0.00308134
-0.00330149
-0.00350942
-0.00370436
-0.0038857
-0.00405303
-0.00420605
-0.0043446
-0.0044686
-0.00457804
-0.00467299
-0.00475352
-0.00481976
-0.00487185
-0.00490992
-0.00493411
-0.00494454
-0.00494131
-0.00492451
-0.00489419
-0.00485037
-0.00479304
-0.00472216
-0.00463765
-0.00453937
-0.00442719
-0.00430089
-0.00416025
-0.00400498
-0.00383477
-0.00364925
-0.00344805
-0.00323072
-0.00299678
-0.00274573
-0.002477
-0.00219001
-0.00188411
-0.00155864
-0.00121289
-0.000846084
-0.000457439
-4.61129e-05
0.000388775
0.000848146
0.00133297
0.00184424
0.00238303
0.00295041
0.00354753
0.00417557
0.00483573
0.00552929
0.00625754
0.00702182
0.00782351
0.00866401
0.00954478
0.0104673
0.011433
0.0124435
0.0135003
0.0146049
0.0157589
0.0169639
0.0182213
0.0195329
0.0208999
0.022324
0.0238065
0.0253489
0.0269523
0.0286181
0.0303472
0.0321408
0.0339997
0.0359245
0.0379159
0.0399741
0.0420992
0.0442913
0.0465498
0.0488741
0.0512634
0.0537162
0.056231
0.0588058
0.0614382
0.0641253
0.0668639
0.0696504
0.0724805
0.0753496
0.0782526
0.0811838
0.0841373
0.0871064
0.0900841
0.0930628
0.0960346
0.0989913
0.101924
0.104824
0.107682
0.110488
0.113233
0.115908
0.118502
0.121006
0.123411
0.125709
0.12789
0.129946
0.131871
0.133657
0.135299
0.136792
0.138133
0.139318
0.140346
0.141217
0.141932
0.142494
0.142906
0.143174
0.143304
0.143304
0.143184
0.142954
0.142626
0.142214
0.141731
0.141193
0.140616
0.140018
0.139416
0.138829
0.138275
0.137773
0.137342
0.136998
0.13676
0.136639
0.000520739
0.000489427
0.0004166
0.000305966
0.000163403
-6.55661e-06
-0.000199602
-0.000411436
-0.000637912
-0.000875104
-0.00111936
-0.00136735
-0.00161608
-0.00186288
-0.00210542
-0.00234171
-0.00257004
-0.00278897
-0.00299735
-0.00319422
-0.00337884
-0.00355062
-0.00370915
-0.00385413
-0.00398536
-0.00410272
-0.00420619
-0.00429577
-0.00437149
-0.00443345
-0.00448171
-0.00451637
-0.00453751
-0.00454522
-0.00453954
-0.00452052
-0.00448817
-0.00444247
-0.00438339
-0.00431085
-0.00422472
-0.00412487
-0.00401112
-0.00388325
-0.003741
-0.00358409
-0.00341217
-0.0032249
-0.00302187
-0.00280264
-0.00256673
-0.00231362
-0.00204278
-0.0017536
-0.00144547
-0.00111772
-0.000769639
-0.000400494
-9.50266e-06
0.000404156
0.000841343
0.00130296
0.00178994
0.00230327
0.00284396
0.00341309
0.00401175
0.00464109
0.00530229
0.00599656
0.00672517
0.00748941
0.00829061
0.00913013
0.0100094
0.0109297
0.0118927
0.0128997
0.0139523
0.0150519
0.0162
0.0173981
0.0186478
0.0199504
0.0213076
0.0227205
0.0241907
0.0257195
0.0273081
0.0289576
0.0306691
0.0324437
0.034282
0.0361848
0.0381526
0.0401856
0.0422841
0.0444479
0.0466767
0.0489697
0.0513262
0.0537448
0.0562239
0.0587617
0.0613558
0.0640034
0.0667014
0.0694462
0.0722339
0.0750598
0.077919
0.0808061
0.0837151
0.0866397
0.0895729
0.0925074
0.0954356
0.0983494
0.10124
0.104099
0.106918
0.109686
0.112395
0.115036
0.117598
0.120073
0.122451
0.124725
0.126885
0.128923
0.130833
0.132609
0.134243
0.135733
0.137073
0.138262
0.139298
0.140181
0.140911
0.141492
0.141927
0.142221
0.142381
0.142414
0.14233
0.142138
0.14185
0.141479
0.141037
0.14054
0.140002
0.139439
0.138867
0.138303
0.137762
0.137261
0.136814
0.136438
0.136137
0.135911
0.00079968
0.000731756
0.000634396
0.000507988
0.000354708
0.000178586
-1.65153e-05
-0.000226944
-0.000449174
-0.000679847
-0.000915826
-0.00115423
-0.00139246
-0.0016282
-0.00185939
-0.00208428
-0.00230134
-0.0025093
-0.00270712
-0.00289392
-0.00306902
-0.00323189
-0.00338213
-0.00351945
-0.00364364
-0.00375459
-0.00385221
-0.00393651
-0.00400748
-0.00406516
-0.0041096
-0.00414084
-0.00415893
-0.00416391
-0.0041558
-0.00413458
-0.00410026
-0.00405276
-0.00399203
-0.00391794
-0.00383037
-0.00372914
-0.00361405
-0.00348486
-0.00334131
-0.00318308
-0.00300985
-0.00282122
-0.00261681
-0.00239616
-0.00215881
-0.00190422
-0.00163187
-0.00134116
-0.00103149
-0.000702181
-0.00035256
1.81028e-05
0.000410573
0.000825651
0.00126418
0.00172702
0.00221511
0.00272939
0.00327085
0.00384052
0.00443948
0.00506882
0.0057297
0.0064233
0.00715082
0.00791353
0.00871271
0.00954968
0.0104258
0.0113424
0.0123009
0.0133028
0.0143494
0.0154421
0.0165826
0.0177721
0.0190122
0.0203043
0.0216497
0.0230499
0.0245061
0.0260197
0.0275919
0.0292237
0.0309162
0.0326704
0.0344871
0.0363668
0.0383102
0.0403175
0.0423889
0.0445243
0.0467233
0.0489854
0.0513096
0.0536948
0.0561395
0.0586418
0.0611994
0.0638098
0.0664699
0.0691762
0.0719248
0.0747114
0.0775312
0.0803788
0.0832484
0.086134
0.0890287
0.0919254
0.0948167
0.0976945
0.100551
0.103376
0.106163
0.108902
0.111583
0.114197
0.116736
0.119189
0.121549
0.123806
0.125952
0.12798
0.129882
0.131652
0.133284
0.134774
0.136118
0.137314
0.138359
0.139254
0.14
0.140599
0.141054
0.141371
0.141556
0.141616
0.14156
0.141398
0.141141
0.1408
0.140388
0.139919
0.139407
0.138865
0.138309
0.137752
0.137209
0.136693
0.136218
0.135796
0.135421
0.135079
0.00111755
0.00100846
0.000882508
0.000736564
0.000568786
0.000382725
0.000181851
-3.07957e-05
-0.000252264
-0.000479719
-0.000710507
-0.000942178
-0.00117251
-0.00139952
-0.00162144
-0.00183676
-0.00204416
-0.00224253
-0.00243095
-0.00260868
-0.00277511
-0.00292976
-0.00307227
-0.00320237
-0.00331989
-0.00342468
-0.00351668
-0.00359586
-0.00366219
-0.0037157
-0.00375638
-0.00378427
-0.00379937
-0.00380168
-0.00379119
-0.00376787
-0.00373166
-0.00368248
-0.00362022
-0.00354476
-0.00345593
-0.00335353
-0.00323735
-0.00310713
-0.00296258
-0.00280339
-0.0026292
-0.00243965
-0.00223431
-0.00201274
-0.00177446
-0.00151896
-0.0012457
-0.000954105
-0.000643564
-0.000313435
3.69587e-05
0.000408329
0.000801421
0.00121702
0.00165593
0.00211902
0.00260717
0.00312131
0.00366239
0.00423142
0.00482944
0.0054575
0.00611673
0.00680826
0.00753327
0.00829298
0.00908861
0.00992146
0.0107928
0.011704
0.0126564
0.0136514
0.0146903
0.0157745
0.0169055
0.0180847
0.0193134
0.0205931
0.021925
0.0233107
0.0247512
0.026248
0.0278021
0.0294147
0.0310868
0.0328193
0.034613
0.0364686
0.0383867
0.0403675
0.0424112
0.0445177
0.0466868
0.0489179
0.0512102
0.0535627
0.0559738
0.0584418
0.0609646
0.0635396
0.066164
0.0688344
0.0715471
0.0742978
0.0770818
0.0798941
0.082729
0.0855805
0.088442
0.0913067
0.094167
0.0970153
0.0998434
0.102643
0.105405
0.108121
0.110781
0.113377
0.1159
0.118339
0.120687
0.122935
0.125075
0.127098
0.128998
0.130769
0.132404
0.133899
0.135251
0.136456
0.137513
0.138422
0.139183
0.1398
0.140274
0.140611
0.140818
0.1409
0.140867
0.140728
0.140493
0.140174
0.139782
0.139331
0.138832
0.1383
0.137747
0.137185
0.136628
0.136086
0.135572
0.135095
0.134638
0.134176
0.00146557
0.00131223
0.00115466
0.00098617
0.000800781
0.000601626
0.000391839
0.00017389
-4.98085e-05
-0.000276908
-0.000505204
-0.000732655
-0.000957407
-0.0011778
-0.00139236
-0.0015998
-0.00179904
-0.00198914
-0.00216933
-0.00233897
-0.00249756
-0.00264469
-0.00278007
-0.00290347
-0.00301471
-0.0031137
-0.00320035
-0.00327464
-0.00333652
-0.00338601
-0.00342308
-0.00344773
-0.00345995
-0.00345971
-0.00344696
-0.00342165
-0.00338369
-0.00333298
-0.00326937
-0.00319272
-0.00310285
-0.00299952
-0.00288251
-0.00275155
-0.00260633
-0.00244653
-0.00227178
-0.00208171
-0.00187589
-0.00165388
-0.0014152
-0.00115934
-0.000885774
-0.000593924
-0.000283195
4.70445e-05
0.000397456
0.000768735
0.00116161
0.00157683
0.00201521
0.00247756
0.00296474
0.00347766
0.00401725
0.00458447
0.00518031
0.00580583
0.00646208
0.00715018
0.00787125
0.00862648
0.00941706
0.0102442
0.0111092
0.0120134
0.0129579
0.0139443
0.0149738
0.0160477
0.0171675
0.0183344
0.01955
0.0208154
0.0221321
0.0235014
0.0249245
0.0264027
0.0279371
0.0295288
0.0311789
0.0328883
0.0346578
0.0364881
0.0383796
0.0403329
0.0423482
0.0444253
0.0465641
0.0487641
0.0510246
0.0533446
0.0557227
0.0581574
0.0606465
0.0631877
0.0657783
0.068415
0.0710942
0.0738119
0.0765636
0.0793442
0.0821484
0.0849703
0.0878034
0.090641
0.0934759
0.0963005
0.0991066
0.101886
0.10463
0.10733
0.109977
0.112562
0.115075
0.117508
0.119851
0.122097
0.124236
0.126262
0.128166
0.129943
0.131587
0.133092
0.134455
0.135673
0.136745
0.13767
0.138448
0.139082
0.139574
0.13993
0.140156
0.140257
0.140242
0.14012
0.139902
0.139597
0.139217
0.138774
0.13828
0.137747
0.137186
0.13661
0.136029
0.135452
0.134891
0.134354
0.133811
0.133229
0.00183574
0.00163615
0.00144476
0.00125136
0.00104586
0.000831013
0.000609684
0.000383819
0.000155329
-7.38891e-05
-0.000302049
-0.000527499
-0.000748737
-0.000964416
-0.00117335
-0.0013745
-0.00156699
-0.00175007
-0.00192312
-0.00208565
-0.00223725
-0.0023776
-0.00250648
-0.0026237
-0.00272914
-0.00282271
-0.00290435
-0.00297403
-0.00303172
-0.0030774
-0.00311106
-0.00313265
-0.00314216
-0.00313953
-0.00312469
-0.00309756
-0.00305802
-0.00300596
-0.00294121
-0.0028636
-0.00277291
-0.00266892
-0.00255136
-0.00241996
-0.0022744
-0.00211434
-0.00193943
-0.00174925
-0.0015434
-0.00132143
-0.00108287
-0.000827204
-0.000553911
-0.00026243
4.78271e-05
0.000377476
0.000727164
0.00109757
0.00148939
0.00190338
0.0023403
0.00280095
0.00328616
0.0037968
0.00433378
0.00489802
0.00549049
0.0061122
0.00676417
0.00744746
0.00816319
0.00891248
0.00969649
0.0105164
0.0113735
0.0122689
0.013204
0.01418
0.0151983
0.0162601
0.0173668
0.0185197
0.0197202
0.0209696
0.0222692
0.0236203
0.0250242
0.026482
0.0279949
0.0295641
0.0311906
0.0328753
0.0346191
0.0364226
0.0382866
0.0402113
0.0421971
0.044244
0.0463519
0.0485204
0.050749
0.0530366
0.0553821
0.0577839
0.0602403
0.0627488
0.0653071
0.0679119
0.0705598
0.073247
0.0759691
0.0787213
0.0814983
0.0842944
0.0871035
0.0899187
0.0927331
0.0955391
0.0983288
0.101094
0.103826
0.106517
0.109156
0.111736
0.114247
0.11668
0.119025
0.121275
0.123421
0.125456
0.12737
0.129159
0.130817
0.132337
0.133716
0.134951
0.136041
0.136984
0.137781
0.138433
0.138944
0.139318
0.139561
0.139678
0.139678
0.13957
0.139362
0.139065
0.138691
0.138249
0.137752
0.13721
0.136634
0.136035
0.135422
0.134803
0.134189
0.133588
0.132958
0.132259
0.00222082
0.00197373
0.00174695
0.00152685
0.00129924
0.0010666
0.000831556
0.000595585
0.000360132
0.000126674
-0.000103395
-0.000328789
-0.000548345
-0.00076102
-0.000965901
-0.0011622
-0.00134925
-0.0015265
-0.00169349
-0.00184985
-0.00199529
-0.00212961
-0.00225264
-0.00236426
-0.00246439
-0.00255298
-0.00263
-0.00269541
-0.0027492
-0.00279135
-0.00282183
-0.0028406
-0.00284761
-0.0028428
-0.00282607
-0.00279732
-0.00275643
-0.00270323
-0.00263757
-0.00255922
-0.00246798
-0.00236359
-0.00224579
-0.00211426
-0.0019687
-0.00180875
-0.00163405
-0.00144419
-0.00123875
-0.0010173
-0.000779352
-0.000524418
-0.000251972
3.85321e-05
0.000347671
0.000676047
0.00102429
0.00139305
0.00178302
0.00219492
0.00262948
0.00308748
0.00356973
0.00407706
0.00461034
0.00517047
0.00575838
0.00637503
0.00702142
0.00769857
0.00840755
0.00914945
0.00992539
0.0107365
0.011584
0.0124691
0.013393
0.014357
0.0153623
0.0164102
0.017502
0.0186391
0.0198227
0.0210542
0.0223348
0.0236658
0.0250485
0.0264841
0.0279738
0.0295187
0.0311199
0.0327783
0.0344948
0.0362701
0.038105
0.0399999
0.0419552
0.043971
0.0460472
0.0481837
0.0503798
0.0526349
0.0549478
0.0573171
0.0597413
0.062218
0.064745
0.0673194
0.0699378
0.0725965
0.0752914
0.0780179
0.0807708
0.0835446
0.0863332
0.0891302
0.0919284
0.0947206
0.097499
0.100255
0.102981
0.105668
0.108306
0.110887
0.113402
0.115841
0.118196
0.120457
0.122616
0.124664
0.126596
0.128403
0.130079
0.13162
0.13302
0.134277
0.135388
0.136352
0.13717
0.137842
0.138373
0.138765
0.139024
0.139156
0.139169
0.139071
0.13887
0.138577
0.138202
0.137756
0.137249
0.136691
0.136094
0.135466
0.134815
0.13415
0.133479
0.132811
0.132096
0.131283
0.00261421
0.0023189
0.00205565
0.00180751
0.00155624
0.00130412
0.00105359
0.000805701
0.000561461
0.00032196
8.82252e-05
-0.000138807
-0.000358292
-0.000569484
-0.000771738
-0.000964507
-0.00114734
-0.00131986
-0.00148179
-0.00163289
-0.00177301
-0.00190203
-0.00201987
-0.00212648
-0.00222183
-0.00230592
-0.00237873
-0.00244026
-0.0024905
-0.00252943
-0.00255702
-0.00257324
-0.00257801
-0.00257126
-0.00255288
-0.00252276
-0.00248074
-0.00242666
-0.00236032
-0.00228151
-0.00218998
-0.00208548
-0.00196773
-0.0018364
-0.00169117
-0.00153169
-0.00135758
-0.00116844
-0.000963851
-0.000743373
-0.000506537
-0.000252854
1.81896e-05
0.00030713
0.000614527
0.000940967
0.00128706
0.00165345
0.00204078
0.00244976
0.0028811
0.00333554
0.00381386
0.00431686
0.00484538
0.00540027
0.00598245
0.00659283
0.00723236
0.00790205
0.00860291
0.00933599
0.0101024
0.0109032
0.0117395
0.0126127
0.0135237
0.0144739
0.0154644
0.0164966
0.0175718
0.0186911
0.0198559
0.0210676
0.0223273
0.0236364
0.0249961
0.0264076
0.0278722
0.029391
0.030965
0.0325953
0.0342829
0.0360285
0.0378329
0.0396966
0.0416201
0.0436036
0.0456472
0.0477508
0.0499139
0.052136
0.0544161
0.056753
0.0591452
0.0615907
0.0640872
0.0666321
0.0692223
0.0718543
0.074524
0.077227
0.0799585
0.0827129
0.0854843
0.0882665
0.0910526
0.0938352
0.0966067
0.0993591
0.102084
0.104772
0.107415
0.110003
0.112528
0.114979
0.117348
0.119627
0.121805
0.123875
0.125829
0.12766
0.129361
0.130927
0.132353
0.133636
0.134773
0.135762
0.136604
0.1373
0.137851
0.138263
0.138539
0.138685
0.138709
0.138619
0.138422
0.13813
0.137751
0.137295
0.136773
0.136196
0.135571
0.134909
0.134216
0.1335
0.132771
0.132036
0.131236
0.130315
0.00300988
0.00266597
0.00236557
0.00208839
0.00181229
0.00153936
0.00127193
0.00101062
0.000756081
0.000509019
0.000270117
3.99851e-05
-0.000180839
-0.000391894
-0.000592794
-0.000783227
-0.000962951
-0.00113179
-0.00128961
-0.00143633
-0.00157193
-0.00169637
-0.00180969
-0.00191189
-0.00200302
-0.00208309
-0.00215215
-0.00221021
-0.00225727
-0.00229334
-0.00231838
-0.00233234
-0.00233516
-0.00232675
-0.002307
-0.00227576
-0.00223288
-0.00217817
-0.00211142
-0.00203241
-0.00194088
-0.00183656
-0.00171915
-0.00158833
-0.00144377
-0.00128511
-0.00111196
-0.000923939
-0.000720616
-0.000501557
-0.000266302
-1.43692e-05
0.000254742
0.000541555
0.000846614
0.00117049
0.00151376
0.00187705
0.002261
0.00266627
0.00309354
0.00354354
0.00401699
0.00451468
0.00503741
0.00558599
0.0061613
0.00676421
0.00739566
0.00805658
0.00874796
0.00947081
0.0102262
0.0110152
0.0118388
0.0126983
0.0135948
0.0145295
0.0155036
0.0165183
0.0175749
0.0186747
0.0198188
0.0210087
0.0222456
0.0235308
0.0248656
0.0262511
0.0276887
0.0291794
0.0307245
0.032325
0.0339819
0.0356961
0.0374683
0.0392994
0.0411897
0.0431397
0.0451495
0.0472192
0.0493486
0.051537
0.0537839
0.0560881
0.0584482
0.0608626
0.0633291
0.0658453
0.0684083
0.0710147
0.0736608
0.0763423
0.0790543
0.0817918
0.0845489
0.0873195
0.0900968
0.0928736
0.0956424
0.098395
0.101123
0.103818
0.10647
0.109071
0.111611
0.114081
0.116471
0.118773
0.120976
0.123073
0.125056
0.126917
0.128649
0.130246
0.131704
0.133018
0.134185
0.135203
0.136073
0.136795
0.13737
0.137802
0.138096
0.138257
0.138292
0.138209
0.138015
0.137721
0.137334
0.136866
0.136327
0.135724
0.135069
0.134369
0.133631
0.132863
0.132073
0.131271
0.130389
0.129365
0.00340224
0.00300963
0.00267163
0.00236474
0.00206293
0.00176816
0.00148269
0.00120678
0.000940682
0.000684789
0.000439451
0.000204966
-1.8421e-05
-0.000230521
-0.0004312
-0.000620376
-0.000798012
-0.000964115
-0.00111872
-0.00126191
-0.00139374
-0.00151434
-0.00162378
-0.00172219
-0.00180964
-0.00188622
-0.001952
-0.00200702
-0.00205132
-0.0020849
-0.00210773
-0.00211977
-0.00212096
-0.00211119
-0.00209034
-0.00205827
-0.0020148
-0.00195974
-0.00189286
-0.00181392
-0.00172267
-0.00161881
-0.00150205
-0.00137205
-0.00122848
-0.00107097
-0.000899144
-0.000712608
-0.000510945
-0.000293724
-6.04923e-05
0.000189218
0.000455897
0.000740051
0.00104221
0.00136291
0.00170273
0.00206226
0.00244211
0.0028429
0.00326531
0.00371001
0.00417771
0.00466915
0.00518508
0.00572631
0.00629365
0.00688795
0.00751009
0.00816098
0.00884157
0.00955283
0.0102958
0.0110714
0.0118808
0.0127252
0.0136055
0.014523
0.0154789
0.0164743
0.0175106
0.0185889
0.0197105
0.0208768
0.022089
0.0233483
0.0246562
0.0260138
0.0274224
0.0288832
0.0303974
0.0319662
0.0335906
0.0352716
0.0370101
0.0388068
0.0406625
0.0425775
0.0445523
0.046587
0.0486815
0.0508355
0.0530484
0.0553193
0.0576472
0.0600303
0.062467
0.0649549
0.0674913
0.070073
0.0726966
0.0753579
0.0780523
0.0807749
0.08352
0.0862816
0.0890531
0.0918274
0.094597
0.0973539
0.10009
0.102796
0.105462
0.108081
0.110642
0.113136
0.115552
0.117883
0.120118
0.122248
0.124266
0.126163
0.127931
0.129566
0.13106
0.132411
0.133613
0.134666
0.135567
0.136318
0.136921
0.137376
0.13769
0.137867
0.137914
0.137837
0.137646
0.137348
0.136953
0.13647
0.135909
0.13528
0.134591
0.133851
0.133066
0.132243
0.131393
0.130524
0.129562
0.12844
0.00378609
0.00334486
0.00296904
0.00263197
0.0023038
0.00198643
0.00168204
0.00139056
0.00111189
0.000846123
0.000593285
0.000353381
0.000126376
-8.78026e-05
-0.000289263
-0.000478146
-0.000654618
-0.000818869
-0.0009711
-0.00111152
-0.00124034
-0.00135777
-0.00146399
-0.0015592
-0.00164353
-0.00171714
-0.00178013
-0.00183257
-0.00187452
-0.001906
-0.001927
-0.00193747
-0.00193735
-0.00192653
-0.0019049
-0.00187228
-0.0018285
-0.00177336
-0.00170662
-0.00162804
-0.00153734
-0.00143422
-0.00131839
-0.0011895
-0.00104722
-0.000891185
-0.000721013
-0.000536314
-0.000336678
-0.000121683
0.000109113
0.000356166
0.000619948
0.00090095
0.00119968
0.00151666
0.00185243
0.00220756
0.00258263
0.00297824
0.00339503
0.00383363
0.00429472
0.00477901
0.00528721
0.00582008
0.0063784
0.00696297
0.00757465
0.0082143
0.00888282
0.00958115
0.0103103
0.0110711
0.0118649
0.0126924
0.013555
0.0144537
0.0153896
0.0163641
0.0173782
0.0184332
0.0195305
0.0206712
0.0218567
0.0230883
0.0243673
0.025695
0.0270727
0.0285017
0.0299832
0.0315184
0.0331084
0.0347544
0.0364573
0.0382181
0.0400374
0.041916
0.0438543
0.0458527
0.0479111
0.0500295
0.0522076
0.0544446
0.0567395
0.0590911
0.0614978
0.0639573
0.0664674
0.069025
0.0716268
0.074269
0.0769472
0.0796565
0.0823915
0.0851464
0.0879146
0.0906893
0.0934628
0.0962275
0.0989747
0.101696
0.104382
0.107023
0.10961
0.112132
0.114581
0.116946
0.119219
0.121388
0.123447
0.125386
0.127197
0.128875
0.130412
0.131805
0.133048
0.13414
0.135078
0.135863
0.136496
0.136978
0.137315
0.13751
0.137569
0.1375
0.137311
0.137009
0.136604
0.136106
0.135523
0.134864
0.13414
0.133358
0.132525
0.131647
0.130736
0.129801
0.128762
0.127546
0.00415655
0.00366688
0.00325318
0.00288563
0.00253067
0.00219013
0.00186615
0.00155835
0.00126631
0.0009898
0.000728577
0.000482356
0.000250833
3.36812e-05
-0.000169441
-0.000358891
-0.000535033
-0.000698234
-0.000848856
-0.00098725
-0.00111375
-0.00122867
-0.0013323
-0.00142489
-0.00150667
-0.00157782
-0.0016385
-0.00168882
-0.00172885
-0.00175864
-0.00177817
-0.00178743
-0.00178634
-0.00177479
-0.00175267
-0.0017198
-0.00167599
-0.00162105
-0.00155472
-0.00147675
-0.00138685
-0.00128475
-0.00117011
-0.0010426
-0.000901895
-0.000747617
-0.000579399
-0.000396851
-0.000199575
1.28437e-05
0.000240832
0.000484831
0.000745296
0.0010227
0.00131752
0.00163026
0.00196144
0.00231159
0.00268127
0.00307103
0.00348149
0.00391324
0.00436693
0.00484322
0.00534279
0.00586635
0.00641465
0.00698845
0.00758856
0.00821579
0.00887103
0.00955515
0.0102691
0.0110138
0.0117904
0.0125997
0.013443
0.0143212
0.0152356
0.0161873
0.0171775
0.0182075
0.0192785
0.0203919
0.0215488
0.0227508
0.023999
0.0252948
0.0266397
0.0280348
0.0294816
0.0309813
0.0325351
0.0341442
0.0358098
0.0375328
0.0393141
0.0411546
0.0430549
0.0450154
0.0470365
0.0491181
0.0512602
0.0534623
0.0557236
0.058043
0.0604191
0.0628502
0.0653338
0.0678675
0.070448
0.0730718
0.0757346
0.0784318
0.0811582
0.0839081
0.0866752
0.0894526
0.0922329
0.0950083
0.0977705
0.10051
0.103219
0.105887
0.108505
0.111061
0.113548
0.115953
0.118268
0.120483
0.122589
0.124576
0.126437
0.128164
0.12975
0.131191
0.13248
0.133617
0.134597
0.13542
0.136088
0.136601
0.136963
0.137179
0.137254
0.137194
0.137008
0.136703
0.136289
0.135774
0.135168
0.13448
0.133719
0.132894
0.132012
0.131079
0.130107
0.129107
0.127992
0.126687
0.00450896
0.00397114
0.00351959
0.00312144
0.0027394
0.00237529
0.00203123
0.00170652
0.00140047
0.00111254
0.000842205
0.000588919
0.000352114
0.000131221
-7.43301e-05
-0.000265106
-0.000441662
-0.000604541
-0.00075426
-0.000891308
-0.00101614
-0.00112919
-0.00123081
-0.00132136
-0.00140112
-0.00147032
-0.00152917
-0.00157781
-0.00161635
-0.00164484
-0.00166329
-0.00167168
-0.00166995
-0.00165799
-0.00163568
-0.00160283
-0.00155928
-0.00150478
-0.00143911
-0.00136199
-0.00127315
-0.00117229
-0.00105908
-0.000933203
-0.00079431
-0.000642045
-0.000476041
-0.00029592
-0.000101292
0.000108243
0.000333099
0.000573698
0.000830476
0.00110388
0.00139437
0.00170242
0.00202851
0.00237316
0.00273687
0.00312019
0.00352368
0.00394789
0.00439344
0.00486095
0.00535105
0.00586442
0.00640176
0.0069638
0.00755128
0.008165
0.00880579
0.00947449
0.010172
0.0108993
0.0116572
0.0124469
0.0132693
0.0141256
0.0150168
0.0159441
0.0169088
0.0179119
0.018955
0.0200391
0.0211656
0.022336
0.0235515
0.0248136
0.0261237
0.0274831
0.0288932
0.0303554
0.0318711
0.0334415
0.0350678
0.0367512
0.0384928
0.0402934
0.042154
0.0440752
0.0460574
0.0481009
0.0502058
0.0523718
0.0545984
0.0568848
0.0592297
0.0616317
0.0640886
0.0665982
0.0691575
0.0717631
0.0744111
0.077097
0.079816
0.0825623
0.0853299
0.088112
0.0909014
0.0936902
0.0964702
0.0992325
0.101968
0.104667
0.107319
0.109915
0.112443
0.114895
0.117258
0.119524
0.121683
0.123724
0.12564
0.127423
0.129064
0.130559
0.131902
0.133088
0.134116
0.134984
0.135691
0.136239
0.136631
0.136871
0.136964
0.136916
0.136735
0.136428
0.136005
0.135474
0.134845
0.134127
0.13333
0.132462
0.13153
0.130542
0.12951
0.128446
0.127258
0.125866
0.0048389
0.00425327
0.00376401
0.00333519
0.00292593
0.00253799
0.00217349
0.00183146
0.00151089
0.001211
0.000930977
0.00067001
0.000427284
0.000201996
-6.64614e-06
-0.000199412
-0.000377044
-0.000540254
-0.00068971
-0.000826037
-0.000949813
-0.00106156
-0.00116175
-0.00125079
-0.00132904
-0.00139678
-0.00145427
-0.00150167
-0.00153912
-0.0015667
-0.00158443
-0.0015923
-0.00159025
-0.00157817
-0.00155594
-0.00152339
-0.00148033
-0.00142652
-0.00136173
-0.00128568
-0.0011981
-0.00109868
-0.000987111
-0.000863059
-0.000726186
-0.000576143
-0.000412571
-0.000235103
-4.33618e-05
0.000163038
0.00038449
0.000621399
0.000874177
0.00114325
0.00142904
0.001732
0.00205258
0.00239126
0.00274852
0.00312485
0.00352078
0.00393684
0.00437358
0.00483159
0.00531146
0.00581383