/*--------------------------------*- C++ -*----------------------------------*\
  =========                 |
  \\      /  F ield         | OpenFOAM: The Open Source CFD Toolbox
   \\    /   O peration     | Website:  https://openfoam.org
    \\  /    A nd           | Version:  7
     \\/     M anipulation  |
\*---------------------------------------------------------------------------*/
FoamFile
{
    version     2.0;
    format      ascii;
    class       surfaceScalarField;
    location    "0.5";
    object      phi;
}
// * * * * * * * * * * * * * * * * * * * * * * * * * * * * * * * * * * * * * //

dimensions      [0 3 -1 0 0 0 0];

internalField   nonuniform List<scalar> 
25360
(
5.01478e-11
-5.31114e-11
1.91662e-10
-1.41525e-10
3.58582e-10
-1.66916e-10
5.0392e-10
-1.45335e-10
5.99696e-10
-9.57738e-11
6.30004e-10
-3.03088e-11
5.86639e-10
4.33629e-11
4.66395e-10
1.20239e-10
2.69301e-10
1.97092e-10
-2.54165e-12
2.7184e-10
-3.45649e-10
3.43107e-10
-7.55794e-10
4.10148e-10
-1.22822e-09
4.7243e-10
-1.75794e-09
5.29718e-10
-2.3399e-09
5.81955e-10
-2.9691e-09
6.29208e-10
-3.64073e-09
6.7163e-10
-4.35018e-09
7.09445e-10
-5.0931e-09
7.4292e-10
-5.86545e-09
7.72351e-10
-6.6635e-09
7.98053e-10
-7.48385e-09
8.20347e-10
-8.32341e-09
8.3956e-10
-9.17942e-09
8.56009e-10
-1.00494e-08
8.70004e-10
-1.09313e-08
8.81843e-10
-1.18231e-08
8.91808e-10
-1.27232e-08
9.00166e-10
-1.36304e-08
9.07164e-10
-1.45434e-08
9.13032e-10
-1.54614e-08
9.17984e-10
-1.63836e-08
9.22211e-10
-1.73095e-08
9.25891e-10
-1.82387e-08
9.29181e-10
-1.91709e-08
9.32226e-10
-2.01061e-08
9.35151e-10
-2.10442e-08
9.3807e-10
-2.19852e-08
9.41083e-10
-2.29295e-08
9.44276e-10
-2.38772e-08
9.47726e-10
-2.48287e-08
9.51498e-10
-2.57844e-08
9.55648e-10
-2.67446e-08
9.60224e-10
-2.77099e-08
9.65267e-10
-2.86807e-08
9.70808e-10
-2.96576e-08
9.76875e-10
-3.06411e-08
9.83489e-10
-3.16317e-08
9.90667e-10
-3.26301e-08
9.98418e-10
-3.36369e-08
1.00675e-09
-3.46526e-08
1.01567e-09
-3.56777e-08
1.02517e-09
-3.6713e-08
1.03525e-09
-3.77589e-08
1.04589e-09
-3.8816e-08
1.0571e-09
-3.98848e-08
1.06885e-09
-4.09659e-08
1.08112e-09
-4.20598e-08
1.0939e-09
-4.3167e-08
1.10714e-09
-4.42878e-08
1.12083e-09
-4.54228e-08
1.13493e-09
-4.65722e-08
1.1494e-09
-4.77364e-08
1.1642e-09
-4.89156e-08
1.17927e-09
-5.01102e-08
1.19456e-09
-5.13202e-08
1.21002e-09
-5.25458e-08
1.22557e-09
-5.37869e-08
1.24114e-09
-5.50436e-08
1.25666e-09
-5.63156e-08
1.27204e-09
-5.76028e-08
1.2872e-09
-5.89048e-08
1.30202e-09
-6.02213e-08
1.3164e-09
-6.15515e-08
1.33023e-09
-6.28949e-08
1.34338e-09
-6.42506e-08
1.35572e-09
-6.56177e-08
1.3671e-09
-6.69951e-08
1.37738e-09
-6.83815e-08
1.3864e-09
-6.97755e-08
1.39399e-09
-7.11754e-08
1.39997e-09
-7.25796e-08
1.40415e-09
-7.39859e-08
1.40634e-09
-7.53922e-08
1.40633e-09
-7.67961e-08
1.4039e-09
-7.8195e-08
1.39884e-09
-7.95859e-08
1.39091e-09
-8.09658e-08
1.37987e-09
-8.23313e-08
1.36549e-09
-8.36788e-08
1.3475e-09
-8.50044e-08
1.32567e-09
-8.63042e-08
1.29972e-09
-8.75736e-08
1.26941e-09
-8.88081e-08
1.23448e-09
-9.00027e-08
1.19466e-09
-9.11524e-08
1.14971e-09
-9.22518e-08
1.09938e-09
-9.32953e-08
1.04345e-09
-9.42769e-08
9.81672e-10
-9.51908e-08
9.13859e-10
-9.60306e-08
8.39817e-10
-9.679e-08
7.59384e-10
-9.74624e-08
6.7242e-10
-9.80413e-08
5.78819e-10
-9.85198e-08
4.78511e-10
-9.88912e-08
3.71462e-10
-9.91489e-08
2.57687e-10
-9.92862e-08
1.37248e-10
-9.92964e-08
1.0266e-11
-9.91733e-08
-1.23097e-10
-9.89107e-08
-2.62587e-10
-9.85028e-08
-4.07906e-10
-9.79442e-08
-5.58675e-10
-9.72297e-08
-7.14441e-10
-9.6355e-08
-8.74674e-10
-9.53163e-08
-1.03876e-09
-9.41103e-08
-1.20601e-09
-9.27346e-08
-1.37565e-09
-9.11878e-08
-1.54682e-09
-8.94692e-08
-1.71858e-09
-8.75793e-08
-1.88991e-09
-8.55196e-08
-2.05972e-09
-8.32927e-08
-2.22686e-09
-8.09026e-08
-2.39009e-09
-7.83544e-08
-2.54816e-09
-7.56547e-08
-2.69974e-09
-7.28112e-08
-2.84349e-09
-6.98332e-08
-2.97804e-09
-6.67311e-08
-3.10203e-09
-6.3517e-08
-3.21409e-09
-6.02041e-08
-3.31291e-09
-5.68069e-08
-3.3972e-09
-5.33412e-08
-3.46573e-09
-4.98238e-08
-3.51737e-09
-4.62727e-08
-3.55107e-09
-4.27068e-08
-3.56591e-09
-3.91457e-08
-3.56108e-09
-3.56098e-08
-3.53592e-09
-3.21199e-08
-3.48993e-09
-2.86971e-08
-3.42276e-09
-2.53629e-08
-3.33424e-09
-2.21385e-08
-3.22437e-09
-1.90451e-08
-3.09334e-09
-1.61036e-08
-2.9415e-09
-1.33342e-08
-2.7694e-09
-1.07565e-08
-2.57775e-09
-8.38899e-09
-2.36749e-09
-6.24927e-09
-2.13972e-09
-4.35348e-09
-1.89579e-09
-2.71613e-09
-1.63735e-09
-1.34966e-09
-1.36646e-09
-2.63895e-10
-1.08576e-09
5.34994e-10
-7.98887e-10
1.046e-09
-5.1101e-10
1.27602e-09
-2.30038e-10
1.24468e-09
3.13398e-11
9.92456e-10
2.52231e-10
5.95193e-10
3.97259e-10
1.9153e-10
4.03638e-10
1.91501e-10
1.40348e-10
-1.9347e-10
4.05641e-10
-4.06812e-10
6.86427e-10
-4.47713e-10
9.00435e-10
-3.59348e-10
9.89167e-10
-1.84507e-10
9.14417e-10
4.44432e-11
6.53542e-10
3.04244e-10
1.9528e-10
5.78503e-10
-4.63446e-10
8.55822e-10
-1.31995e-09
1.12835e-09
-2.3676e-09
1.39075e-09
-3.59698e-09
1.63952e-09
-4.99696e-09
1.87241e-09
-6.55539e-09
2.08816e-09
-8.25962e-09
2.28619e-09
-1.00969e-08
2.46646e-09
-1.20546e-08
2.62933e-09
-1.41205e-08
2.77541e-09
-1.62832e-08
2.90554e-09
-1.85315e-08
3.02069e-09
-2.08554e-08
3.12193e-09
-2.32454e-08
3.21037e-09
-2.5693e-08
3.28715e-09
-2.81904e-08
3.35341e-09
-3.07307e-08
3.41027e-09
-3.33076e-08
3.45882e-09
-3.59159e-08
3.50008e-09
-3.85508e-08
3.53505e-09
-4.12083e-08
3.56465e-09
-4.3885e-08
3.58975e-09
-4.65781e-08
3.61114e-09
-4.92855e-08
3.62955e-09
-5.20053e-08
3.64566e-09
-5.47362e-08
3.66008e-09
-5.74773e-08
3.67336e-09
-6.02281e-08
3.68599e-09
-6.29885e-08
3.69841e-09
-6.57584e-08
3.71101e-09
-6.85383e-08
3.72413e-09
-7.13286e-08
3.73808e-09
-7.41302e-08
3.75311e-09
-7.6944e-08
3.76945e-09
-7.97711e-08
3.78729e-09
-8.26126e-08
3.8068e-09
-8.54699e-08
3.8281e-09
-8.83443e-08
3.85131e-09
-9.12374e-08
3.87651e-09
-9.41505e-08
3.90377e-09
-9.70852e-08
3.93314e-09
-1.00043e-07
3.96465e-09
-1.03026e-07
3.9983e-09
-1.06035e-07
4.0341e-09
-1.09071e-07
4.07203e-09
-1.12138e-07
4.11205e-09
-1.15235e-07
4.15411e-09
-1.18364e-07
4.19816e-09
-1.21527e-07
4.24411e-09
-1.24725e-07
4.29188e-09
-1.27959e-07
4.34134e-09
-1.31231e-07
4.39239e-09
-1.34541e-07
4.44487e-09
-1.3789e-07
4.49863e-09
-1.41279e-07
4.55349e-09
-1.44709e-07
4.60926e-09
-1.4818e-07
4.66571e-09
-1.51693e-07
4.7226e-09
-1.55247e-07
4.77968e-09
-1.58842e-07
4.83666e-09
-1.62479e-07
4.89322e-09
-1.66156e-07
4.94903e-09
-1.69873e-07
5.00372e-09
-1.73627e-07
5.0569e-09
-1.77419e-07
5.10815e-09
-1.81246e-07
5.15701e-09
-1.85106e-07
5.203e-09
-1.88995e-07
5.24561e-09
-1.92913e-07
5.28428e-09
-1.96854e-07
5.31843e-09
-2.00815e-07
5.34744e-09
-2.04791e-07
5.37066e-09
-2.08779e-07
5.38742e-09
-2.12772e-07
5.39699e-09
-2.16764e-07
5.39861e-09
-2.20749e-07
5.39152e-09
-2.2472e-07
5.37488e-09
-2.28669e-07
5.34787e-09
-2.32588e-07
5.30961e-09
-2.36467e-07
5.25922e-09
-2.40297e-07
5.19577e-09
-2.44068e-07
5.11834e-09
-2.47769e-07
5.02599e-09
-2.51387e-07
4.91776e-09
-2.5491e-07
4.79271e-09
-2.58325e-07
4.64989e-09
-2.61619e-07
4.48838e-09
-2.64777e-07
4.30725e-09
-2.67783e-07
4.10564e-09
-2.70622e-07
3.88271e-09
-2.73278e-07
3.63767e-09
-2.75734e-07
3.3698e-09
-2.77973e-07
3.07847e-09
-2.79976e-07
2.76311e-09
-2.81727e-07
2.42328e-09
-2.83207e-07
2.05866e-09
-2.84398e-07
1.66905e-09
-2.85281e-07
1.25443e-09
-2.85838e-07
8.14919e-10
-2.86051e-07
3.50845e-10
-2.85904e-07
-1.37268e-10
-2.85378e-07
-6.48684e-10
-2.84458e-07
-1.18242e-09
-2.83129e-07
-1.73726e-09
-2.81376e-07
-2.31169e-09
-2.79187e-07
-2.90397e-09
-2.76549e-07
-3.51204e-09
-2.73454e-07
-4.13355e-09
-2.69895e-07
-4.76586e-09
-2.65864e-07
-5.40604e-09
-2.6136e-07
-6.05085e-09
-2.56382e-07
-6.69677e-09
-2.50932e-07
-7.34e-09
-2.45015e-07
-7.97648e-09
-2.3864e-07
-8.60191e-09
-2.31818e-07
-9.21176e-09
-2.24565e-07
-9.80135e-09
-2.16899e-07
-1.03658e-08
-2.08842e-07
-1.09003e-08
-2.00421e-07
-1.13996e-08
-1.91664e-07
-1.1859e-08
-1.82605e-07
-1.22733e-08
-1.7328e-07
-1.26377e-08
-1.63729e-07
-1.29477e-08
-1.53996e-07
-1.31987e-08
-1.44127e-07
-1.33866e-08
-1.34171e-07
-1.35077e-08
-1.24178e-07
-1.35585e-08
-1.14203e-07
-1.35362e-08
-1.043e-07
-1.34384e-08
-9.4527e-08
-1.32633e-08
-8.494e-08
-1.30098e-08
-7.5597e-08
-1.26772e-08
-6.65557e-08
-1.22657e-08
-5.7873e-08
-1.17761e-08
-4.96046e-08
-1.12098e-08
-4.18048e-08
-1.05692e-08
-3.45254e-08
-9.85715e-09
-2.78154e-08
-9.07749e-09
-2.17202e-08
-8.2349e-09
-1.62809e-08
-7.33516e-09
-1.15329e-08
-6.38536e-09
-7.50498e-09
-5.39435e-09
-4.21719e-09
-4.37356e-09
-1.67794e-09
-3.33813e-09
1.19964e-10
-2.30891e-09
1.20563e-09
-1.31571e-09
1.63915e-09
-4.02188e-10
1.52509e-09
3.66297e-10
1.0302e-09
8.92184e-10
4.02083e-10
1.03181e-09
5.93569e-10
1.67717e-10
-3.61181e-10
4.49628e-10
-6.88725e-10
7.0753e-10
-7.05616e-10
8.41776e-10
-4.93584e-10
7.79155e-10
-1.21886e-10
4.69176e-10
3.54413e-10
-1.20048e-10
8.93462e-10
-1.00584e-09
1.4643e-09
-2.19441e-09
2.04439e-09
-3.68363e-09
2.61757e-09
-5.46531e-09
3.17244e-09
-7.52694e-09
3.70115e-09
-9.85308e-09
4.19855e-09
-1.24264e-08
4.66146e-09
-1.52285e-08
5.08827e-09
-1.82405e-08
5.47851e-09
-2.14437e-08
5.83256e-09
-2.48198e-08
6.15149e-09
-2.83511e-08
6.43682e-09
-3.20208e-08
6.69041e-09
-3.58133e-08
6.91436e-09
-3.97138e-08
7.11093e-09
-4.37091e-08
7.28243e-09
-4.77869e-08
7.43121e-09
-5.19362e-08
7.55959e-09
-5.61473e-08
7.66984e-09
-6.04113e-08
7.76413e-09
-6.47208e-08
7.84456e-09
-6.90692e-08
7.91308e-09
-7.3451e-08
7.97155e-09
-7.78616e-08
8.02167e-09
-8.2297e-08
8.06502e-09
-8.67544e-08
8.10307e-09
-9.12315e-08
8.13713e-09
-9.57265e-08
8.1684e-09
-1.00239e-07
8.19797e-09
-1.04767e-07
8.22678e-09
-1.09312e-07
8.25571e-09
-1.13873e-07
8.28552e-09
-1.18452e-07
8.31686e-09
-1.23049e-07
8.35033e-09
-1.27666e-07
8.38642e-09
-1.32304e-07
8.42557e-09
-1.36966e-07
8.46813e-09
-1.41652e-07
8.51442e-09
-1.46365e-07
8.56467e-09
-1.51108e-07
8.6191e-09
-1.55882e-07
8.67784e-09
-1.6069e-07
8.74101e-09
-1.65534e-07
8.80868e-09
-1.70416e-07
8.88087e-09
-1.7534e-07
8.95757e-09
-1.80307e-07
9.03875e-09
-1.85319e-07
9.12432e-09
-1.90379e-07
9.21419e-09
-1.95489e-07
9.3082e-09
-2.00651e-07
9.40618e-09
-2.05867e-07
9.50792e-09
-2.11139e-07
9.61317e-09
-2.16468e-07
9.72165e-09
-2.21856e-07
9.83304e-09
-2.27305e-07
9.94697e-09
-2.32814e-07
1.00631e-08
-2.38386e-07
1.01808e-08
-2.4402e-07
1.02998e-08
-2.49717e-07
1.04195e-08
-2.55476e-07
1.05393e-08
-2.61298e-07
1.06585e-08
-2.67181e-07
1.07764e-08
-2.73125e-07
1.08923e-08
-2.79126e-07
1.10055e-08
-2.85184e-07
1.11149e-08
-2.91296e-07
1.12197e-08
-2.97458e-07
1.13189e-08
-3.03666e-07
1.14114e-08
-3.09916e-07
1.1496e-08
-3.16204e-07
1.15716e-08
-3.22522e-07
1.16369e-08
-3.28865e-07
1.16905e-08
-3.35226e-07
1.17311e-08
-3.41595e-07
1.1757e-08
-3.47965e-07
1.17669e-08
-3.54326e-07
1.1759e-08
-3.60666e-07
1.17316e-08
-3.66974e-07
1.1683e-08
-3.73237e-07
1.16114e-08
-3.79443e-07
1.15149e-08
-3.85575e-07
1.13916e-08
-3.91619e-07
1.12396e-08
-3.97558e-07
1.10569e-08
-4.03373e-07
1.08415e-08
-4.09047e-07
1.05913e-08
-4.14558e-07
1.03045e-08
-4.19887e-07
9.97888e-09
-4.25012e-07
9.61267e-09
-4.29908e-07
9.20394e-09
-4.34554e-07
8.75085e-09
-4.38923e-07
8.25172e-09
-4.4299e-07
7.70493e-09
-4.46729e-07
7.10903e-09
-4.50113e-07
6.46277e-09
-4.53115e-07
5.76505e-09
-4.55707e-07
5.01505e-09
-4.57861e-07
4.21218e-09
-4.59548e-07
3.35617e-09
-4.6074e-07
2.44708e-09
-4.61411e-07
1.48532e-09
-4.61532e-07
4.71715e-10
-4.61076e-07
-5.9248e-10
-4.6002e-07
-1.70554e-09
-4.58337e-07
-2.86525e-09
-4.56005e-07
-4.06886e-09
-4.53004e-07
-5.31306e-09
-4.49314e-07
-6.59396e-09
-4.44919e-07
-7.9071e-09
-4.39805e-07
-9.24739e-09
-4.33962e-07
-1.06091e-08
-4.27382e-07
-1.19859e-08
-4.20062e-07
-1.33709e-08
-4.12002e-07
-1.47566e-08
-4.03207e-07
-1.61348e-08
-3.93687e-07
-1.74969e-08
-3.83455e-07
-1.88338e-08
-3.72531e-07
-2.01359e-08
-3.60939e-07
-2.13933e-08
-3.48709e-07
-2.25958e-08
-3.35876e-07
-2.3733e-08
-3.22481e-07
-2.47944e-08
-3.08571e-07
-2.57695e-08
-2.94196e-07
-2.66479e-08
-2.79414e-07
-2.74194e-08
-2.64288e-07
-2.80743e-08
-2.48883e-07
-2.86033e-08
-2.33272e-07
-2.89978e-08
-2.1753e-07
-2.92498e-08
-2.01736e-07
-2.93525e-08
-1.85972e-07
-2.92997e-08
-1.70324e-07
-2.90866e-08
-1.54878e-07
-2.87095e-08
-1.39722e-07
-2.8166e-08
-1.24944e-07
-2.7455e-08
-1.10633e-07
-2.65769e-08
-9.68754e-08
-2.55336e-08
-8.37566e-08
-2.43286e-08
-7.13588e-08
-2.2967e-08
-5.97605e-08
-2.14554e-08
-4.90353e-08
-1.98027e-08
-3.92507e-08
-1.80195e-08
-3.04669e-08
-1.6119e-08
-2.27346e-08
-1.41176e-08
-1.60934e-08
-1.20355e-08
-1.05685e-08
-9.89847e-09
-6.16676e-09
-7.73988e-09
-2.87139e-09
-5.60427e-09
-6.34656e-10
-3.55244e-09
6.32101e-10
-1.66896e-09
1.0713e-09
-7.29313e-11
8.9372e-10
1.06974e-09
3.95356e-10
1.53019e-09
9.88925e-10
1.47843e-10
-5.09029e-10
3.64238e-10
-9.05114e-10
4.98756e-10
-8.40138e-10
4.43624e-10
-4.38451e-10
1.19433e-10
2.02306e-10
-5.29777e-10
1.00362e-09
-1.54044e-09
1.90413e-09
-2.93318e-09
2.85704e-09
-4.71603e-09
3.82723e-09
-6.88723e-09
4.78876e-09
-9.43758e-09
5.72279e-09
-1.23524e-08
6.61599e-09
-1.56132e-08
7.45929e-09
-1.91986e-08
8.24693e-09
-2.3086e-08
8.97569e-09
-2.72518e-08
9.6443e-09
-3.16723e-08
1.0253e-08
-3.6324e-08
1.08032e-08
-4.11843e-08
1.12972e-08
-4.62317e-08
1.17377e-08
-5.14456e-08
1.21283e-08
-5.6807e-08
1.24723e-08
-6.22982e-08
1.27737e-08
-6.79032e-08
1.30362e-08
-7.36073e-08
1.32637e-08
-7.93974e-08
1.346e-08
-8.52619e-08
1.36286e-08
-9.11905e-08
1.37732e-08
-9.71743e-08
1.38969e-08
-1.03206e-07
1.4003e-08
-1.09278e-07
1.40943e-08
-1.15387e-07
1.41736e-08
-1.21527e-07
1.42433e-08
-1.27696e-07
1.43056e-08
-1.3389e-07
1.43628e-08
-1.40109e-07
1.44165e-08
-1.4635e-07
1.44686e-08
-1.52615e-07
1.45204e-08
-1.58903e-07
1.45734e-08
-1.65215e-07
1.46286e-08
-1.71552e-07
1.46871e-08
-1.77915e-07
1.47499e-08
-1.84307e-07
1.48175e-08
-1.9073e-07
1.48908e-08
-1.97185e-07
1.49701e-08
-2.03677e-07
1.5056e-08
-2.10206e-07
1.51489e-08
-2.16778e-07
1.52489e-08
-2.23393e-07
1.53563e-08
-2.30055e-07
1.54712e-08
-2.36768e-07
1.55937e-08
-2.43534e-07
1.57237e-08
-2.50357e-07
1.58612e-08
-2.57238e-07
1.6006e-08
-2.64182e-07
1.61579e-08
-2.71191e-07
1.63167e-08
-2.78267e-07
1.64821e-08
-2.85412e-07
1.66536e-08
-2.9263e-07
1.68309e-08
-2.99922e-07
1.70134e-08
-3.07289e-07
1.72006e-08
-3.14734e-07
1.73918e-08
-3.22258e-07
1.75864e-08
-3.2986e-07
1.77834e-08
-3.37542e-07
1.7982e-08
-3.45304e-07
1.81814e-08
-3.53145e-07
1.83804e-08
-3.61065e-07
1.85779e-08
-3.69061e-07
1.87727e-08
-3.77132e-07
1.89635e-08
-3.85276e-07
1.91488e-08
-3.93488e-07
1.93271e-08
-4.01765e-07
1.94968e-08
-4.10102e-07
1.96561e-08
-4.18494e-07
1.98032e-08
-4.26934e-07
1.99361e-08
-4.35415e-07
2.00526e-08
-4.43929e-07
2.01507e-08
-4.52466e-07
2.02278e-08
-4.61017e-07
2.02817e-08
-4.6957e-07
2.03097e-08
-4.78112e-07
2.03091e-08
-4.8663e-07
2.02772e-08
-4.9511e-07
2.02111e-08
-5.03535e-07
2.01078e-08
-5.11887e-07
1.99641e-08
-5.20149e-07
1.9777e-08
-5.28301e-07
1.95431e-08
-5.3632e-07
1.92592e-08
-5.44185e-07
1.8922e-08
-5.51872e-07
1.85281e-08
-5.59355e-07
1.80742e-08
-5.66607e-07
1.75568e-08
-5.73601e-07
1.69728e-08
-5.80307e-07
1.63188e-08
-5.86695e-07
1.55919e-08
-5.92733e-07
1.47889e-08
-5.98389e-07
1.39072e-08
-6.03628e-07
1.29441e-08
-6.08416e-07
1.18974e-08
-6.12718e-07
1.07649e-08
-6.16499e-07
9.54516e-09
-6.1972e-07
8.23681e-09
-6.22347e-07
6.83909e-09
-6.24343e-07
5.35173e-09
-6.25671e-07
3.77501e-09
-6.26295e-07
2.10984e-09
-6.26181e-07
3.57829e-10
-6.25295e-07
-1.47871e-09
-6.23604e-07
-3.39664e-09
-6.21077e-07
-5.39203e-09
-6.17686e-07
-7.46001e-09
-6.13404e-07
-9.59484e-09
-6.08208e-07
-1.17898e-08
-6.02079e-07
-1.40371e-08
-5.94998e-07
-1.6328e-08
-5.86954e-07
-1.86528e-08
-5.77939e-07
-2.10008e-08
-5.6795e-07
-2.33601e-08
-5.56989e-07
-2.57179e-08
-5.45063e-07
-2.80607e-08
-5.32186e-07
-3.03737e-08
-5.18378e-07
-3.26418e-08
-5.03665e-07
-3.48488e-08
-4.8808e-07
-3.69781e-08
-4.71664e-07
-3.90126e-08
-4.54462e-07
-4.09349e-08
-4.36529e-07
-4.27275e-08
-4.17925e-07
-4.43727e-08
-3.9872e-07
-4.58534e-08
-3.78987e-07
-4.71525e-08
-3.58807e-07
-4.82539e-08
-3.38268e-07
-4.91421e-08
-3.17463e-07
-4.98028e-08
-2.9649e-07
-5.02228e-08
-2.75452e-07
-5.03906e-08
-2.54456e-07
-5.02961e-08
-2.33611e-07
-4.99313e-08
-2.13031e-07
-4.92901e-08
-1.92828e-07
-4.83686e-08
-1.73118e-07
-4.71653e-08
-1.54014e-07
-4.56811e-08
-1.35628e-07
-4.39195e-08
-1.1807e-07
-4.18865e-08
-1.01445e-07
-3.95914e-08
-8.58549e-08
-3.7046e-08
-7.13918e-08
-3.42658e-08
-5.81414e-08
-3.12699e-08
-4.61787e-08
-2.80817e-08
-3.55663e-08
-2.473e-08
-2.63513e-08
-2.12505e-08
-1.85624e-08
-1.76874e-08
-1.22047e-08
-1.40976e-08
-7.25475e-09
-1.05542e-08
-3.65325e-09
-7.15393e-09
-1.29611e-09
-4.02608e-09
-2.40094e-11
-1.34504e-09
3.90278e-10
6.55436e-10
2.55381e-10
1.66509e-09
1.24431e-09
9.92406e-11
-6.08272e-10
1.89428e-10
-9.95299e-10
1.23396e-10
-7.74108e-10
-2.06389e-10
-1.08668e-10
-8.79523e-10
8.75438e-10
-1.95261e-09
2.07671e-09
-3.46294e-09
3.41447e-09
-5.43186e-09
4.82596e-09
-7.86764e-09
6.26301e-09
-1.07681e-08
7.68924e-09
-1.4123e-08
9.07764e-09
-1.79156e-08
1.04087e-08
-2.21251e-08
1.16687e-08
-2.6727e-08
1.28489e-08
-3.16952e-08
1.39438e-08
-3.70022e-08
1.49513e-08
-4.26203e-08
1.58711e-08
-4.8522e-08
1.67049e-08
-5.46805e-08
1.74557e-08
-6.10701e-08
1.81273e-08
-6.76663e-08
1.87245e-08
-7.44462e-08
1.92522e-08
-8.13885e-08
1.9716e-08
-8.84737e-08
2.01214e-08
-9.5684e-08
2.0474e-08
-1.03003e-07
2.07793e-08
-1.10417e-07
2.10426e-08
-1.17913e-07
2.12691e-08
-1.2548e-07
2.14638e-08
-1.33109e-07
2.16313e-08
-1.4079e-07
2.17759e-08
-1.48518e-07
2.19018e-08
-1.56288e-07
2.20125e-08
-1.64094e-07
2.21116e-08
-1.71933e-07
2.22022e-08
-1.79804e-07
2.22871e-08
-1.87704e-07
2.23688e-08
-1.95633e-07
2.24497e-08
-2.03591e-07
2.25317e-08
-2.11579e-07
2.26166e-08
-2.19598e-07
2.27061e-08
-2.2765e-07
2.28014e-08
-2.35736e-07
2.29037e-08
-2.43859e-07
2.30141e-08
-2.52023e-07
2.31334e-08
-2.60229e-07
2.32622e-08
-2.68481e-07
2.34012e-08
-2.76783e-07
2.35506e-08
-2.85137e-07
2.37109e-08
-2.93548e-07
2.38822e-08
-3.02019e-07
2.40646e-08
-3.10553e-07
2.42581e-08
-3.19155e-07
2.44625e-08
-3.27827e-07
2.46777e-08
-3.36572e-07
2.49033e-08
-3.45394e-07
2.51389e-08
-3.54296e-07
2.53841e-08
-3.63281e-07
2.56382e-08
-3.7235e-07
2.59006e-08
-3.81507e-07
2.61704e-08
-3.90753e-07
2.64468e-08
-4.0009e-07
2.67287e-08
-4.09519e-07
2.7015e-08
-4.1904e-07
2.73046e-08
-4.28654e-07
2.7596e-08
-4.3836e-07
2.78877e-08
-4.48158e-07
2.81782e-08
-4.58046e-07
2.84657e-08
-4.68022e-07
2.87483e-08
-4.78082e-07
2.90239e-08
-4.88224e-07
2.92904e-08
-4.98442e-07
2.95454e-08
-5.08731e-07
2.97864e-08
-5.19086e-07
3.00106e-08
-5.29498e-07
3.02154e-08
-5.3996e-07
3.03975e-08
-5.50461e-07
3.05539e-08
-5.60991e-07
3.06811e-08
-5.71539e-07
3.07757e-08
-5.82091e-07
3.08339e-08
-5.92633e-07
3.08518e-08
-6.0315e-07
3.08254e-08
-6.13623e-07
3.07504e-08
-6.24034e-07
3.06226e-08
-6.34364e-07
3.04374e-08
-6.4459e-07
3.01903e-08
-6.54689e-07
2.98764e-08
-6.64637e-07
2.9491e-08
-6.74407e-07
2.90291e-08
-6.83971e-07
2.84859e-08
-6.93299e-07
2.78563e-08
-7.02361e-07
2.71355e-08
-7.11122e-07
2.63184e-08
-7.1955e-07
2.54004e-08
-7.27608e-07
2.43766e-08
-7.35258e-07
2.32427e-08
-7.42464e-07
2.19942e-08
-7.49184e-07
2.06273e-08
-7.55378e-07
1.91382e-08
-7.61004e-07
1.75237e-08
-7.6602e-07
1.5781e-08
-7.70383e-07
1.39079e-08
-7.74049e-07
1.19028e-08
-7.76975e-07
9.76466e-09
-7.79116e-07
7.49344e-09
-7.80431e-07
5.0898e-09
-7.80877e-07
2.55539e-09
-7.80412e-07
-1.07138e-10
-7.78996e-07
-2.89404e-09
-7.76593e-07
-5.8004e-09
-7.73165e-07
-8.82006e-09
-7.68679e-07
-1.19456e-08
-7.63106e-07
-1.51681e-08
-7.56418e-07
-1.84774e-08
-7.48594e-07
-2.18618e-08
-7.39614e-07
-2.53081e-08
-7.29465e-07
-2.88017e-08
-7.18139e-07
-3.23264e-08
-7.05634e-07
-3.58647e-08
-6.91955e-07
-3.93975e-08
-6.77111e-07
-4.29046e-08
-6.6112e-07
-4.63643e-08
-6.44008e-07
-4.97539e-08
-6.25807e-07
-5.30496e-08
-6.06559e-07
-5.62269e-08
-5.86311e-07
-5.92606e-08
-5.6512e-07
-6.2125e-08
-5.43054e-07
-6.47942e-08
-5.20184e-07
-6.72425e-08
-4.96593e-07
-6.94444e-08
-4.7237e-07
-7.1375e-08
-4.47614e-07
-7.30106e-08
-4.22427e-07
-7.43284e-08
-3.96923e-07
-7.53073e-08
-3.71218e-07
-7.59282e-08
-3.45434e-07
-7.61739e-08
-3.197e-07
-7.60299e-08
-2.94147e-07
-7.54844e-08
-2.68909e-07
-7.45286e-08
-2.4412e-07
-7.31569e-08
-2.19918e-07
-7.13673e-08
-1.96438e-07
-6.91613e-08
-1.73813e-07
-6.65444e-08
-1.52173e-07
-6.35264e-08
-1.31644e-07
-6.01211e-08
-1.12342e-07
-5.63471e-08
-9.438e-08
-5.22283e-08
-7.7856e-08
-4.77939e-08
-6.28576e-08
-4.30801e-08
-4.94568e-08
-3.81308e-08
-3.77073e-08
-3.29999e-08
-2.76411e-08
-2.77537e-08
-1.92637e-08
-2.2475e-08
-1.25491e-08
-1.72688e-08
-7.43384e-09
-1.22692e-08
-3.80945e-09
-7.65046e-09
-1.51479e-09
-3.63969e-09
-3.27267e-10
-5.3209e-10
4.79394e-11
1.28988e-09
1.29224e-09
3.31809e-11
-6.4145e-10
-4.5394e-11
-9.16722e-10
-3.69557e-10
-4.49944e-10
-1.03977e-09
5.61539e-10
-2.13095e-09
1.96662e-09
-3.69654e-09
3.6423e-09
-5.77174e-09
5.48966e-09
-8.37629e-09
7.43051e-09
-1.15171e-08
9.40384e-09
-1.51906e-08
1.13628e-08
-1.93849e-08
1.32719e-08
-2.40813e-08
1.51051e-08
-2.92565e-08
1.68439e-08
-3.48836e-08
1.8476e-08
-4.09333e-08
1.99936e-08
-4.73751e-08
2.13931e-08
-5.41779e-08
2.26739e-08
-6.13107e-08
2.38377e-08
-6.87432e-08
2.48882e-08
-7.64463e-08
2.58304e-08
-8.4392e-08
2.66702e-08
-9.25543e-08
2.74144e-08
-1.00909e-07
2.80703e-08
-1.09432e-07
2.86452e-08
-1.18105e-07
2.91466e-08
-1.26908e-07
2.95821e-08
-1.35824e-07
2.99588e-08
-1.44839e-07
3.0284e-08
-1.53939e-07
3.05642e-08
-1.63114e-07
3.0806e-08
-1.72353e-07
3.10152e-08
-1.81649e-07
3.11975e-08
-1.90994e-07
3.1358e-08
-2.00384e-07
3.15016e-08
-2.09815e-07
3.16325e-08
-2.19282e-07
3.17548e-08
-2.28785e-07
3.18719e-08
-2.38323e-07
3.19871e-08
-2.47895e-07
3.21033e-08
-2.57501e-07
3.22228e-08
-2.67143e-07
3.23481e-08
-2.76822e-07
3.24809e-08
-2.86541e-07
3.26229e-08
-2.96303e-07
3.27757e-08
-3.0611e-07
3.29403e-08
-3.15965e-07
3.31177e-08
-3.25873e-07
3.33088e-08
-3.35836e-07
3.3514e-08
-3.45859e-07
3.37339e-08
-3.55946e-07
3.39688e-08
-3.661e-07
3.42186e-08
-3.76326e-07
3.44835e-08
-3.86626e-07
3.47632e-08
-3.97006e-07
3.50574e-08
-4.07468e-07
3.53657e-08
-4.18017e-07
3.56874e-08
-4.28655e-07
3.60219e-08
-4.39385e-07
3.63683e-08
-4.5021e-07
3.67257e-08
-4.61132e-07
3.70927e-08
-4.72154e-07
3.74683e-08
-4.83276e-07
3.78508e-08
-4.945e-07
3.82388e-08
-5.05825e-07
3.86304e-08
-5.17253e-07
3.90237e-08
-5.28782e-07
3.94166e-08
-5.40411e-07
3.98068e-08
-5.52137e-07
4.01917e-08
-5.63957e-07
4.05687e-08
-5.75868e-07
4.09349e-08
-5.87865e-07
4.12871e-08
-5.99941e-07
4.1622e-08
-6.12091e-07
4.19361e-08
-6.24306e-07
4.22255e-08
-6.36577e-07
4.24863e-08
-6.48893e-07
4.27142e-08
-6.61244e-07
4.29047e-08
-6.73616e-07
4.30532e-08
-6.85995e-07
4.31545e-08
-6.98365e-07
4.32036e-08
-7.10708e-07
4.31951e-08
-7.23006e-07
4.31233e-08
-7.35238e-07
4.29824e-08
-7.47382e-07
4.27663e-08
-7.59413e-07
4.24688e-08
-7.71307e-07
4.20837e-08
-7.83034e-07
4.16042e-08
-7.94567e-07
4.10239e-08
-8.05874e-07
4.03361e-08
-8.16922e-07
3.95339e-08
-8.27677e-07
3.86107e-08
-8.38101e-07
3.75596e-08
-8.48157e-07
3.63741e-08
-8.57804e-07
3.50477e-08
-8.67001e-07
3.35741e-08
-8.75706e-07
3.19472e-08
-8.83873e-07
3.01614e-08
-8.91457e-07
2.82113e-08
-8.98411e-07
2.60922e-08
-9.04687e-07
2.37998e-08
-9.10237e-07
2.13307e-08
-9.15011e-07
1.8682e-08
-9.1896e-07
1.58518e-08
-9.22034e-07
1.28392e-08
-9.24185e-07
9.64428e-09
-9.25364e-07
6.26841e-09
-9.25523e-07
2.71418e-09
-9.24615e-07
-1.01443e-09
-9.22597e-07
-4.91193e-09
-9.19427e-07
-8.97123e-09
-9.15063e-07
-1.31836e-08
-9.0947e-07
-1.75384e-08
-9.02615e-07
-2.20232e-08
-8.94469e-07
-2.66239e-08
-8.85006e-07
-3.1324e-08
-8.74209e-07
-3.61054e-08
-8.62063e-07
-4.09478e-08
-8.4856e-07
-4.58289e-08
-8.337e-07
-5.07246e-08
-8.17489e-07
-5.56087e-08
-7.9994e-07
-6.04535e-08
-7.81075e-07
-6.52293e-08
-7.60924e-07
-6.99052e-08
-7.39525e-07
-7.44486e-08
-7.16926e-07
-7.88262e-08
-6.93183e-07
-8.30035e-08
-6.68362e-07
-8.69458e-08
-6.42539e-07
-9.06177e-08
-6.15797e-07
-9.39843e-08
-5.8823e-07
-9.7011e-08
-5.59941e-07
-9.9664e-08
-5.31041e-07
-1.01911e-07
-5.01649e-07
-1.03721e-07
-4.7189e-07
-1.05066e-07
-4.419e-07
-1.05918e-07
-4.11817e-07
-1.06257e-07
-3.81787e-07
-1.0606e-07
-3.51957e-07
-1.05314e-07
-3.22482e-07
-1.04004e-07
-2.93513e-07
-1.02126e-07
-2.65206e-07
-9.96742e-08
-2.37714e-07
-9.66529e-08
-2.11189e-07
-9.30696e-08
-1.85778e-07
-8.8938e-08
-1.61621e-07
-8.42778e-08
-1.38853e-07
-7.91151e-08
-1.17598e-07
-7.34836e-08
-9.79671e-08
-6.74244e-08
-8.00592e-08
-6.0988e-08
-6.39545e-08
-5.42356e-08
-4.97132e-08
-4.72412e-08
-3.73717e-08
-4.00951e-08
-2.69388e-08
-3.2908e-08
-1.83905e-08
-2.5817e-08
-1.1666e-08
-1.89938e-08
-6.66164e-09
-1.26548e-08
-3.22639e-09
-7.07492e-09
-1.15635e-09
-2.60213e-09
-1.89865e-10
3.23398e-10
1.10238e-09
-4.34307e-11
-5.98022e-10
-3.19744e-10
-6.40412e-10
-9.43907e-10
1.74219e-10
-2.00439e-09
1.62202e-09
-3.56763e-09
3.52985e-09
-5.68086e-09
5.75554e-09
-8.37463e-09
8.18343e-09
-1.16651e-08
1.0721e-08
-1.55564e-08
1.32951e-08
-2.00423e-08
1.58487e-08
-2.51085e-08
1.83381e-08
-3.07341e-08
2.07307e-08
-3.68933e-08
2.30032e-08
-4.35566e-08
2.51393e-08
-5.06921e-08
2.71291e-08
-5.82664e-08
2.89674e-08
-6.62455e-08
3.0653e-08
-7.45954e-08
3.21877e-08
-8.32829e-08
3.35757e-08
-9.22758e-08
3.48233e-08
-1.01543e-07
3.59377e-08
-1.11056e-07
3.69275e-08
-1.20788e-07
3.78018e-08
-1.30713e-07
3.85699e-08
-1.40808e-07
3.92415e-08
-1.51052e-07
3.98262e-08
-1.61426e-07
4.03332e-08
-1.71914e-07
4.07718e-08
-1.825e-07
4.11507e-08
-1.93173e-07
4.14782e-08
-2.0392e-07
4.17621e-08
-2.14732e-07
4.20096e-08
-2.25601e-07
4.22277e-08
-2.36522e-07
4.24224e-08
-2.47489e-07
4.25997e-08
-2.58499e-07
4.27645e-08
-2.69549e-07
4.29218e-08
-2.80638e-07
4.30757e-08
-2.91764e-07
4.32299e-08
-3.02929e-07
4.33879e-08
-3.14134e-07
4.35526e-08
-3.25379e-07
4.37265e-08
-3.36668e-07
4.39119e-08
-3.48003e-07
4.41108e-08
-3.59388e-07
4.43246e-08
-3.70825e-07
4.45547e-08
-3.82318e-07
4.48022e-08
-3.93872e-07
4.50678e-08
-4.0549e-07
4.53522e-08
-4.17177e-07
4.56556e-08
-4.28937e-07
4.59783e-08
-4.40773e-07
4.63202e-08
-4.52691e-07
4.66811e-08
-4.64694e-07
4.70605e-08
-4.76786e-07
4.74578e-08
-4.88971e-07
4.78722e-08
-5.01252e-07
4.83027e-08
-5.13632e-07
4.87482e-08
-5.26113e-07
4.92073e-08
-5.38699e-07
4.96784e-08
-5.51391e-07
5.01598e-08
-5.64189e-07
5.06496e-08
-5.77096e-07
5.11454e-08
-5.90111e-07
5.16451e-08
-6.03233e-07
5.21458e-08
-6.16461e-07
5.26448e-08
-6.29793e-07
5.31389e-08
-6.43226e-07
5.36248e-08
-6.56756e-07
5.40989e-08
-6.70379e-07
5.45572e-08
-6.84087e-07
5.49956e-08
-6.97875e-07
5.54097e-08
-7.11733e-07
5.57946e-08
-7.25653e-07
5.61453e-08
-7.39623e-07
5.64565e-08
-7.53632e-07
5.67226e-08
-7.67664e-07
5.69375e-08
-7.81706e-07
5.70951e-08
-7.95741e-07
5.71888e-08
-8.09749e-07
5.72118e-08
-8.23711e-07
5.71569e-08
-8.37604e-07
5.70168e-08
-8.51406e-07
5.67838e-08
-8.65089e-07
5.64499e-08
-8.78628e-07
5.60072e-08
-8.91991e-07
5.54473e-08
-9.05149e-07
5.47617e-08
-9.18066e-07
5.39418e-08
-9.30709e-07
5.2979e-08
-9.4304e-07
5.18645e-08
-9.55019e-07
5.05897e-08
-9.66605e-07
4.9146e-08
-9.77756e-07
4.75248e-08
-9.88426e-07
4.57178e-08
-9.98569e-07
4.37172e-08
-1.00814e-06
4.15151e-08
-1.01708e-06
3.91046e-08
-1.02535e-06
3.6479e-08
-1.03289e-06
3.36323e-08
-1.03965e-06
3.05595e-08
-1.04557e-06
2.72562e-08
-1.05061e-06
2.37192e-08
-1.05471e-06
1.99465e-08
-1.0578e-06
1.59371e-08
-1.05985e-06
1.16917e-08
-1.06079e-06
7.21234e-09
-1.06058e-06
2.50287e-09
-1.05917e-06
-2.43113e-09
-1.0565e-06
-7.58213e-09
-1.05253e-06
-1.29405e-08
-1.04722e-06
-1.84946e-08
-1.04052e-06
-2.42302e-08
-1.03242e-06
-3.0131e-08
-1.02286e-06
-3.61782e-08
-1.01184e-06
-4.23503e-08
-9.99318e-07
-4.86235e-08
-9.85294e-07
-5.49714e-08
-9.69758e-07
-6.1365e-08
-9.5271e-07
-6.77728e-08
-9.34158e-07
-7.4161e-08
-9.14117e-07
-8.04936e-08
-8.92614e-07
-8.67323e-08
-8.69683e-07
-9.2837e-08
-8.45365e-07
-9.87659e-08
-8.19716e-07
-1.04476e-07
-7.92797e-07
-1.09922e-07
-7.64682e-07
-1.15061e-07
-7.35454e-07
-1.19846e-07
-7.05206e-07
-1.24232e-07
-6.74042e-07
-1.28175e-07
-6.42074e-07
-1.31632e-07
-6.09426e-07
-1.3456e-07
-5.76227e-07
-1.3692e-07
-5.42617e-07
-1.38675e-07
-5.08744e-07
-1.39792e-07
-4.7476e-07
-1.40241e-07
-4.40825e-07
-1.39995e-07
-4.07103e-07
-1.39036e-07
-3.73761e-07
-1.37346e-07
-3.40968e-07
-1.34918e-07
-3.08895e-07
-1.31747e-07
-2.7771e-07
-1.27838e-07
-2.4758e-07
-1.232e-07
-2.18666e-07
-1.17852e-07
-1.91124e-07
-1.1182e-07
-1.65101e-07
-1.05138e-07
-1.40733e-07
-9.78516e-08
-1.18143e-07
-9.0014e-08
-9.74398e-08
-8.16917e-08
-7.87112e-08
-7.29641e-08
-6.20255e-08
-6.3927e-08
-4.74254e-08
-5.46951e-08
-3.49258e-08
-4.54076e-08
-2.45093e-08
-3.62335e-08
-1.61235e-08
-2.73796e-08
-9.67727e-09
-1.91011e-08
-5.038e-09
-1.17142e-08
-2.03043e-09
-5.60969e-09
-4.36772e-10
-1.27026e-09
6.65604e-10
-1.26268e-10
-4.71755e-10
-6.19641e-10
-1.47041e-10
-1.57362e-09
1.1282e-09
-3.06152e-09
3.10992e-09
-5.13846e-09
5.60679e-09
-7.84302e-09
8.4601e-09
-1.1199e-08
1.15394e-08
-1.52174e-08
1.47393e-08
-1.98978e-08
1.79755e-08
-2.52305e-08
2.11814e-08
-3.1198e-08
2.43056e-08
-3.77766e-08
2.73093e-08
-4.49377e-08
3.01642e-08
-5.26491e-08
3.28507e-08
-6.08763e-08
3.53563e-08
-6.95832e-08
3.76743e-08
-7.87333e-08
3.9803e-08
-8.82898e-08
4.17442e-08
-9.82168e-08
4.35028e-08
-1.0848e-07
4.50861e-08
-1.19045e-07
4.6503e-08
-1.29881e-07
4.77638e-08
-1.40959e-07
4.88794e-08
-1.5225e-07
4.98614e-08
-1.63731e-07
5.07217e-08
-1.75376e-07
5.1472e-08
-1.87167e-07
5.2124e-08
-1.99084e-07
5.26889e-08
-2.11111e-07
5.31777e-08
-2.23234e-07
5.36007e-08
-2.35439e-07
5.39677e-08
-2.47718e-07
5.42879e-08
-2.6006e-07
5.45697e-08
-2.72458e-07
5.4821e-08
-2.84908e-07
5.50492e-08
-2.97404e-07
5.52607e-08
-3.09944e-07
5.54615e-08
-3.22525e-07
5.56571e-08
-3.35147e-07
5.58521e-08
-3.4781e-07
5.60509e-08
-3.60515e-07
5.62573e-08
-3.73263e-07
5.64746e-08
-3.86057e-07
5.67055e-08
-3.98899e-07
5.69526e-08
-4.11792e-07
5.72179e-08
-4.2474e-07
5.7503e-08
-4.37747e-07
5.78094e-08
-4.50818e-07
5.8138e-08
-4.63955e-07
5.84896e-08
-4.77164e-07
5.88647e-08
-4.90449e-07
5.92634e-08
-5.03815e-07
5.96857e-08
-5.17265e-07