/*--------------------------------*- C++ -*----------------------------------*\
  =========                 |
  \\      /  F ield         | OpenFOAM: The Open Source CFD Toolbox
   \\    /   O peration     | Website:  https://openfoam.org
    \\  /    A nd           | Version:  7
     \\/     M anipulation  |
\*---------------------------------------------------------------------------*/
FoamFile
{
    version     2.0;
    format      ascii;
    class       volScalarField;
    location    "0.1";
    object      p;
}
// * * * * * * * * * * * * * * * * * * * * * * * * * * * * * * * * * * * * * //

dimensions      [0 2 -2 0 0 0 0];

internalField   nonuniform List<scalar> 
51200
(
3.15849e-09
3.5902e-06
8.66171e-06
1.32082e-05
1.64358e-05
1.87099e-05
2.02391e-05
2.12023e-05
2.17827e-05
2.20668e-05
2.21208e-05
2.19995e-05
2.17369e-05
2.13532e-05
2.087e-05
2.03113e-05
1.97086e-05
1.90834e-05
1.84376e-05
1.77814e-05
1.71344e-05
1.65082e-05
1.59111e-05
1.53428e-05
1.48e-05
1.42944e-05
1.38446e-05
1.34519e-05
1.31023e-05
1.27848e-05
1.25065e-05
1.22954e-05
1.21834e-05
1.21788e-05
1.22558e-05
1.23764e-05
1.25225e-05
1.27085e-05
1.29649e-05
1.33116e-05
1.37438e-05
1.42423e-05
1.47934e-05
1.5399e-05
1.60686e-05
1.68068e-05
1.76099e-05
1.84728e-05
1.93934e-05
2.03708e-05
2.14034e-05
2.24903e-05
2.36305e-05
2.4822e-05
2.60631e-05
2.7352e-05
2.86867e-05
3.0065e-05
3.14848e-05
3.29461e-05
3.44488e-05
3.59899e-05
3.75641e-05
3.91681e-05
4.08036e-05
4.24741e-05
4.41794e-05
4.59143e-05
4.76722e-05
4.94493e-05
5.12456e-05
5.30617e-05
5.48971e-05
5.675e-05
5.86182e-05
6.04978e-05
6.2384e-05
6.42732e-05
6.61658e-05
6.80646e-05
6.99706e-05
7.18796e-05
7.37847e-05
7.56813e-05
7.75694e-05
7.94508e-05
8.13241e-05
8.31841e-05
8.50237e-05
8.68391e-05
8.86319e-05
9.04062e-05
9.21627e-05
9.38965e-05
9.56011e-05
9.72736e-05
9.89147e-05
0.000100524
0.000102098
0.000103629
0.000105114
0.000106553
0.000107952
0.000109312
0.000110628
0.000111895
0.000113102
0.000114249
0.000115337
0.00011637
0.000117347
0.000118265
0.000119116
0.000119898
0.000120613
0.000121264
0.000121851
0.000122365
0.000122801
0.000123156
0.000123435
0.00012364
0.000123772
0.000123829
0.000123806
0.000123699
0.000123509
0.000123239
0.000122891
0.000122468
0.000121966
0.000121384
0.000120718
0.000119973
0.000119154
0.000118266
0.00011731
0.000116289
0.000115207
0.000114069
0.000112885
0.000111664
0.000110414
0.000109136
0.000107836
0.000106521
0.000105203
0.000103902
0.000102635
0.000101417
0.000100262
9.91858e-05
9.8208e-05
9.73509e-05
9.66401e-05
9.61023e-05
9.57579e-05
9.56149e-05
9.56624e-05
9.58317e-05
3.24558e-06
6.6986e-06
1.07378e-05
1.43845e-05
1.72233e-05
1.92903e-05
2.07193e-05
2.16807e-05
2.22862e-05
2.26211e-05
2.27395e-05
2.26867e-05
2.2502e-05
2.22102e-05
2.1823e-05
2.13615e-05
2.08484e-05
2.03015e-05
1.97368e-05
1.91601e-05
1.85773e-05
1.80071e-05
1.74642e-05
1.6949e-05
1.64604e-05
1.60029e-05
1.55874e-05
1.5228e-05
1.49296e-05
1.46817e-05
1.44688e-05
1.42908e-05
1.41666e-05
1.4119e-05
1.41572e-05
1.42698e-05
1.4436e-05
1.46458e-05
1.49058e-05
1.52305e-05
1.56302e-05
1.61011e-05
1.66312e-05
1.7215e-05
1.78567e-05
1.85612e-05
1.93296e-05
2.01588e-05
2.10449e-05
2.19857e-05
2.29796e-05
2.40253e-05
2.51213e-05
2.62657e-05
2.74583e-05
2.86991e-05
2.99863e-05
3.13166e-05
3.26868e-05
3.40963e-05
3.55456e-05
3.70332e-05
3.85552e-05
4.01079e-05
4.16912e-05
4.33062e-05
4.49524e-05
4.66268e-05
4.83267e-05
5.005e-05
5.17939e-05
5.35551e-05
5.53311e-05
5.71227e-05
5.89311e-05
6.07542e-05
6.25857e-05
6.44192e-05
6.62536e-05
6.80928e-05
6.99389e-05
7.17882e-05
7.36343e-05
7.54731e-05
7.73047e-05
7.91299e-05
8.09462e-05
8.27478e-05
8.45287e-05
8.62872e-05
8.80257e-05
8.97465e-05
9.14477e-05
9.31241e-05
9.47714e-05
9.63898e-05
9.79804e-05
9.95401e-05
0.000101062
0.000102539
0.000103969
0.000105357
0.000106707
0.000108021
0.000109292
0.000110511
0.000111672
0.000112774
0.000113821
0.000114814
0.000115754
0.000116636
0.000117453
0.000118203
0.000118887
0.000119509
0.000120066
0.000120554
0.000120967
0.000121304
0.000121567
0.00012176
0.000121882
0.00012193
0.000121902
0.000121796
0.000121611
0.000121352
0.00012102
0.000120615
0.000120137
0.000119581
0.000118948
0.000118243
0.000117469
0.000116631
0.000115731
0.000114771
0.000113755
0.000112691
0.000111588
0.000110453
0.000109292
0.000108109
0.000106908
0.000105696
0.000104487
0.000103298
0.000102145
0.000101043
0.000100004
9.90384e-05
9.81605e-05
9.73898e-05
9.67492e-05
9.62611e-05
9.59392e-05
9.57854e-05
9.58028e-05
9.59711e-05
8.2074e-06
1.06825e-05
1.35259e-05
1.62937e-05
1.85888e-05
2.03238e-05
2.15598e-05
2.24051e-05
2.296e-05
2.32918e-05
2.34295e-05
2.34084e-05
2.32647e-05
2.3021e-05
2.26974e-05
2.23052e-05
2.18538e-05
2.13678e-05
2.08652e-05
2.03497e-05
1.98269e-05
1.93083e-05
1.88059e-05
1.83332e-05
1.78919e-05
1.7477e-05
1.70905e-05
1.67459e-05
1.64613e-05
1.62435e-05
1.60789e-05
1.59476e-05
1.58449e-05
1.57859e-05
1.57928e-05
1.58792e-05
1.6042e-05
1.62647e-05
1.65331e-05
1.68494e-05
1.7227e-05
1.76728e-05
1.8182e-05
1.87473e-05
1.93671e-05
2.00448e-05
2.07836e-05
2.15832e-05
2.24397e-05
2.33501e-05
2.43114e-05
2.53214e-05
2.63787e-05
2.74828e-05
2.86345e-05
2.98342e-05
3.10806e-05
3.23702e-05
3.36999e-05
3.50681e-05
3.64735e-05
3.79147e-05
3.93902e-05
4.08991e-05
4.24403e-05
4.40121e-05
4.56112e-05
4.72357e-05
4.88862e-05
5.05634e-05
5.22638e-05
5.39806e-05
5.57093e-05
5.74506e-05
5.92081e-05
6.09817e-05
6.27656e-05
6.45533e-05
6.63427e-05
6.81356e-05
6.99327e-05
7.17311e-05
7.35267e-05
7.53176e-05
7.71035e-05
7.88829e-05
8.0651e-05
8.24019e-05
8.41326e-05
8.58443e-05
8.754e-05
8.92186e-05
9.08749e-05
9.25038e-05
9.41039e-05
9.56777e-05
9.72256e-05
9.8742e-05
0.000100218
0.000101647
0.000103031
0.000104376
0.000105686
0.00010696
0.00010819
0.000109367
0.000110488
0.000111554
0.000112566
0.000113526
0.000114432
0.00011528
0.000116066
0.000116789
0.000117451
0.000118049
0.000118581
0.000119043
0.000119432
0.000119751
0.000120002
0.000120185
0.000120299
0.000120339
0.000120304
0.000120195
0.000120013
0.000119762
0.000119442
0.000119052
0.00011859
0.000118054
0.000117447
0.000116772
0.000116034
0.000115237
0.00011438
0.000113466
0.000112501
0.000111494
0.000110455
0.000109389
0.000108299
0.000107187
0.00010606
0.000104926
0.000103799
0.000102695
0.000101629
0.000100614
9.9658e-05
9.877e-05
9.79608e-05
9.7248e-05
9.6654e-05
9.62001e-05
9.58971e-05
9.57455e-05
9.57623e-05
9.59576e-05
1.30013e-05
1.45997e-05
1.65629e-05
1.85567e-05
2.02679e-05
2.16065e-05
2.25971e-05
2.32929e-05
2.37651e-05
2.40521e-05
2.41836e-05
2.41779e-05
2.40522e-05
2.3835e-05
2.35485e-05
2.31998e-05
2.27987e-05
2.23602e-05
2.18992e-05
2.14309e-05
2.0962e-05
2.04918e-05
2.00294e-05
1.95901e-05
1.91822e-05
1.88078e-05
1.84625e-05
1.81428e-05
1.78608e-05
1.76358e-05
1.7473e-05
1.73645e-05
1.72992e-05
1.72692e-05
1.7279e-05
1.73467e-05
1.74869e-05
1.76971e-05
1.79645e-05
1.82811e-05
1.8649e-05
1.90751e-05
1.95621e-05
2.01071e-05
2.0708e-05
2.13645e-05
2.20778e-05
2.28486e-05
2.36761e-05
2.45577e-05
2.54897e-05
2.64685e-05
2.74927e-05
2.85627e-05
2.96797e-05
3.08434e-05
3.20515e-05
3.33025e-05
3.45954e-05
3.59281e-05
3.72969e-05
3.86983e-05
4.01321e-05
4.16004e-05
4.31033e-05
4.46373e-05
4.61979e-05
4.77827e-05
4.93926e-05
5.10281e-05
5.26865e-05
5.43628e-05
5.60532e-05
5.77568e-05
5.9474e-05
6.12029e-05
6.29404e-05
6.46847e-05
6.64354e-05
6.81911e-05
6.99478e-05
7.17015e-05
7.34516e-05
7.52001e-05
7.69472e-05
7.86885e-05
8.04158e-05
8.21228e-05
8.38095e-05
8.54806e-05
8.71388e-05
8.87802e-05
9.03971e-05
9.19851e-05
9.35453e-05
9.5081e-05
9.65912e-05
9.80676e-05
9.95003e-05
0.000100886
0.000102228
0.000103535
0.00010481
0.000106048
0.00010724
0.000108377
0.000109461
0.000110494
0.000111478
0.000112411
0.000113288
0.000114103
0.000114857
0.000115553
0.000116192
0.000116771
0.000117283
0.000117722
0.000118089
0.000118388
0.000118624
0.000118796
0.000118901
0.000118933
0.000118892
0.000118779
0.000118598
0.000118352
0.000118041
0.000117661
0.000117211
0.00011669
0.000116102
0.000115452
0.000114744
0.000113978
0.000113156
0.000112278
0.000111353
0.000110392
0.000109405
0.000108394
0.00010736
0.000106304
0.000105233
0.000104158
0.000103094
0.000102057
0.000101059
0.000100109
9.92138e-05
9.83796e-05
9.76167e-05
9.6942e-05
9.63777e-05
9.59445e-05
9.56528e-05
9.55031e-05
9.55195e-05
9.57251e-05
1.68542e-05
1.80114e-05
1.93986e-05
2.07929e-05
2.20116e-05
2.29959e-05
2.37524e-05
2.43087e-05
2.46865e-05
2.4918e-05
2.50254e-05
2.50172e-05
2.49073e-05
2.47104e-05
2.44437e-05
2.41264e-05
2.37668e-05
2.33684e-05
2.29444e-05
2.25117e-05
2.20807e-05
2.16545e-05
2.1235e-05
2.08258e-05
2.04395e-05
2.0089e-05
1.97771e-05
1.94975e-05
1.92467e-05
1.90294e-05
1.88565e-05
1.87392e-05
1.86803e-05
1.86705e-05
1.87017e-05
1.87768e-05
1.89051e-05
1.90952e-05
1.93489e-05
1.966e-05
2.00222e-05
2.0435e-05
2.09015e-05
2.14244e-05
2.20044e-05
2.264e-05
2.33298e-05
2.40737e-05
2.48718e-05
2.57232e-05
2.66245e-05
2.75718e-05
2.85638e-05
2.96019e-05
3.06868e-05
3.1817e-05
3.29894e-05
3.42033e-05
3.54592e-05
3.67558e-05
3.80885e-05
3.94535e-05
4.08508e-05
4.22822e-05
4.3747e-05
4.5242e-05
4.67647e-05
4.83142e-05
4.98892e-05
5.14872e-05
5.31043e-05
5.47388e-05
5.63907e-05
5.80597e-05
5.9742e-05
6.14317e-05
6.31263e-05
6.48283e-05
6.65402e-05
6.82588e-05
6.99772e-05
7.16907e-05
7.33998e-05
7.51085e-05
7.68171e-05
7.85199e-05
8.02075e-05
8.18745e-05
8.35229e-05
8.51574e-05
8.67791e-05
8.83824e-05
8.996e-05
9.15093e-05
9.30331e-05
9.45333e-05
9.60061e-05
9.74416e-05
9.8831e-05
0.000100174
0.000101478
0.000102749
0.000103989
0.00010519
0.000106344
0.000107444
0.000108493
0.000109493
0.000110447
0.000111352
0.0001122
0.000112986
0.000113711
0.00011438
0.000114994
0.000115549
0.000116038
0.000116456
0.000116803
0.000117084
0.000117304
0.000117461
0.000117554
0.000117577
0.000117529
0.000117414
0.000117233
0.00011699
0.000116683
0.00011631
0.000115869
0.00011536
0.000114789
0.000114161
0.000113478
0.00011274
0.000111946
0.0001111
0.000110212
0.000109292
0.000108348
0.000107384
0.000106398
0.000105391
0.000104368
0.000103343
0.000102333
0.000101352
0.00010041
9.95147e-05
9.8668e-05
9.78748e-05
9.71456e-05
9.6498e-05
9.59534e-05
9.55311e-05
9.52406e-05
9.50832e-05
9.50839e-05
9.52684e-05
2.01149e-05
2.09498e-05
2.1934e-05
2.28928e-05
2.37397e-05
2.44338e-05
2.49916e-05
2.54116e-05
2.57026e-05
2.5876e-05
2.59421e-05
2.59179e-05
2.58114e-05
2.56269e-05
2.53764e-05
2.50781e-05
2.47442e-05
2.43807e-05
2.39934e-05
2.35917e-05
2.31883e-05
2.2794e-05
2.24119e-05
2.20392e-05
2.16791e-05
2.13415e-05
2.10397e-05
2.0781e-05
2.05611e-05
2.03729e-05
2.02167e-05
2.00997e-05
2.00302e-05
2.0014e-05
2.00516e-05
2.01379e-05
2.02694e-05
2.04505e-05
2.06889e-05
2.09863e-05
2.13376e-05
2.17386e-05
2.21894e-05
2.26925e-05
2.325e-05
2.38627e-05
2.45293e-05
2.52489e-05
2.60203e-05
2.68424e-05
2.77129e-05
2.86291e-05
2.95901e-05
3.05968e-05
3.16495e-05
3.27468e-05
3.38865e-05
3.50676e-05
3.62896e-05
3.755e-05
3.88458e-05
4.01756e-05
4.15397e-05
4.29381e-05
4.43677e-05
4.58254e-05
4.73111e-05
4.8826e-05
5.03683e-05
5.19327e-05
5.3514e-05
5.5111e-05
5.67259e-05
5.83588e-05
6.00051e-05
6.16583e-05
6.33165e-05
6.49821e-05
6.66567e-05
6.8337e-05
7.0017e-05
7.16933e-05
7.33674e-05
7.50417e-05
7.67141e-05
7.83777e-05
8.00251e-05
8.16544e-05
8.32686e-05
8.48703e-05
8.64569e-05
8.80219e-05
8.95604e-05
9.10733e-05
9.25634e-05
9.403e-05
9.54657e-05
9.686e-05
9.82073e-05
9.95109e-05
0.000100779
0.000102016
0.000103221
0.000104385
0.000105501
0.000106567
0.000107584
0.000108555
0.000109478
0.00011035
0.000111166
0.000111924
0.000112623
0.000113268
0.000113858
0.000114387
0.000114849
0.000115243
0.000115571
0.000115836
0.000116042
0.000116185
0.000116264
0.000116275
0.00011622
0.000116101
0.00011592
0.000115677
0.000115373
0.000115003
0.000114567
0.000114069
0.000113514
0.000112904
0.000112242
0.000111524
0.000110753
0.000109935
0.000109079
0.000108195
0.000107291
0.000106366
0.000105419
0.000104452
0.000103471
0.00010249
0.000101524
0.000100589
9.96929e-05
9.88391e-05
9.80285e-05
9.72645e-05
9.65582e-05
9.59276e-05
9.53934e-05
9.49723e-05
9.46723e-05
9.44951e-05
9.4463e-05
9.45987e-05
2.29347e-05
2.35428e-05
2.42207e-05
2.48661e-05
2.54392e-05
2.59173e-05
2.62979e-05
2.65906e-05
2.67962e-05
2.69068e-05
2.69313e-05
2.68775e-05
2.67568e-05
2.65758e-05
2.63363e-05
2.60497e-05
2.57298e-05
2.53876e-05
2.50297e-05
2.46586e-05
2.428e-05
2.39067e-05
2.35476e-05
2.32059e-05
2.28789e-05
2.25661e-05
2.22769e-05
2.2023e-05
2.18092e-05
2.16367e-05
2.15033e-05
2.14035e-05
2.13375e-05
2.13152e-05
2.13456e-05
2.14294e-05
2.15622e-05
2.17423e-05
2.19725e-05
2.22559e-05
2.25915e-05
2.29776e-05
2.34141e-05
2.39005e-05
2.44373e-05
2.50264e-05
2.56693e-05
2.63653e-05
2.7112e-05
2.79065e-05
2.87472e-05
2.96339e-05
3.05661e-05
3.15429e-05
3.25635e-05
3.36279e-05
3.47362e-05
3.58873e-05
3.70787e-05
3.83061e-05
3.95675e-05
4.08638e-05
4.21958e-05
4.35616e-05
4.49579e-05
4.63823e-05
4.78352e-05
4.93174e-05
5.08263e-05
5.23573e-05
5.39063e-05
5.54725e-05
5.70559e-05
5.86541e-05
6.0263e-05
6.18797e-05
6.35047e-05
6.51389e-05
6.67803e-05
6.8424e-05
7.00662e-05
7.17074e-05
7.335e-05
7.49937e-05
7.66327e-05
7.8259e-05
7.98682e-05
8.14617e-05
8.30436e-05
8.46135e-05
8.61656e-05
8.76935e-05
8.91952e-05
9.06742e-05
9.21329e-05
9.35668e-05
9.49654e-05
9.63194e-05
9.76269e-05
9.88945e-05
0.00010013
0.000101336
0.000102506
0.000103634
0.000104714
0.000105746
0.000106733
0.000107676
0.000108571
0.000109411
0.000110193
0.00011092
0.000111593
0.000112215
0.000112781
0.000113284
0.000113721
0.000114091
0.000114399
0.000114648
0.000114839
0.000114969
0.000115034
0.000115034
0.00011497
0.000114845
0.000114662
0.000114419
0.000114114
0.000113744
0.000113312
0.000112822
0.000112279
0.000111685
0.000111039
0.000110338
0.000109585
0.000108788
0.000107959
0.000107108
0.000106237
0.000105345
0.00010443
0.000103495
0.000102549
0.000101604
0.000100676
9.97768e-05
9.89149e-05
9.8091e-05
9.73044e-05
9.65587e-05
9.58654e-05
9.52428e-05
9.47098e-05
9.42805e-05
9.39607e-05
9.37521e-05
9.36717e-05
9.3737e-05
2.54844e-05
2.59009e-05
2.63417e-05
2.67495e-05
2.71192e-05
2.74237e-05
2.76616e-05
2.7837e-05
2.7948e-05
2.79969e-05
2.79764e-05
2.78887e-05
2.77443e-05
2.75519e-05
2.73156e-05
2.70376e-05
2.67266e-05
2.63956e-05
2.60546e-05
2.57072e-05
2.53548e-05
2.50014e-05
2.4656e-05
2.43283e-05
2.4022e-05
2.37366e-05
2.34726e-05
2.32326e-05
2.30231e-05
2.28526e-05
2.27245e-05
2.26349e-05
2.25806e-05
2.25637e-05
2.25901e-05
2.26652e-05
2.27915e-05
2.29685e-05
2.3194e-05
2.3467e-05
2.37876e-05
2.41572e-05
2.45775e-05
2.50475e-05
2.55657e-05
2.61333e-05
2.67532e-05
2.74258e-05
2.8148e-05
2.89161e-05
2.97287e-05
3.05871e-05
3.14915e-05
3.244e-05
3.34307e-05
3.44646e-05
3.5543e-05
3.66647e-05
3.78257e-05
3.90223e-05
4.02535e-05
4.15202e-05
4.28211e-05
4.41539e-05
4.55171e-05
4.69108e-05
4.83353e-05
4.97881e-05
5.12651e-05
5.27627e-05
5.42805e-05
5.58185e-05
5.73736e-05
5.89402e-05
6.05142e-05
6.20964e-05
6.36898e-05
6.5294e-05
6.69041e-05
6.85141e-05
7.01222e-05
7.17314e-05
7.33445e-05
7.49583e-05
7.65646e-05
7.81556e-05
7.97299e-05
8.1291e-05
8.28417e-05
8.43791e-05
8.58962e-05
8.73882e-05
8.88562e-05
9.03045e-05
9.17332e-05
9.31342e-05
9.44959e-05
9.58112e-05
9.70823e-05
9.83174e-05
9.95229e-05
0.000100698
0.000101836
0.00010293
0.000103976
0.000104976
0.000105933
0.000106847
0.000107712
0.000108521
0.000109273
0.00010997
0.000110617
0.000111213
0.000111754
0.000112232
0.000112644
0.000112993
0.000113282
0.000113515
0.00011369
0.000113806
0.000113858
0.000113846
0.000113773
0.000113643
0.000113456
0.000113209
0.000112901
0.00011253
0.0001121
0.000111616
0.000111083
0.0001105
0.000109866
0.000109177
0.000108438
0.00010766
0.000106854
0.000106029
0.000105185
0.000104321
0.000103434
0.000102526
0.000101607
0.000100691
9.97916e-05
9.89212e-05
9.80838e-05
9.7279e-05
9.65061e-05
9.57694e-05
9.50811e-05
9.44586e-05
9.39185e-05
9.34717e-05
9.31223e-05
9.28719e-05
9.27309e-05
9.27097e-05
2.78825e-05
2.81189e-05
2.83689e-05
2.85925e-05
2.87866e-05
2.89465e-05
2.90658e-05
2.9133e-05
2.9156e-05
2.91333e-05
2.90635e-05
2.89417e-05
2.87686e-05
2.8556e-05
2.83101e-05
2.80328e-05
2.77296e-05
2.74065e-05
2.70721e-05
2.6737e-05
2.64046e-05
2.60726e-05
2.57445e-05
2.54265e-05
2.5128e-05
2.48554e-05
2.46086e-05
2.43874e-05
2.41935e-05
2.40298e-05
2.39003e-05
2.38096e-05
2.37598e-05
2.37494e-05
2.37774e-05
2.38475e-05
2.3966e-05
2.41352e-05
2.43527e-05
2.46161e-05
2.4925e-05
2.52803e-05
2.56835e-05
2.61353e-05
2.66355e-05
2.71843e-05
2.77832e-05
2.84324e-05
2.91299e-05
2.98726e-05
3.06596e-05
3.14912e-05
3.23677e-05
3.3288e-05
3.42511e-05
3.52582e-05
3.63096e-05
3.74026e-05
3.85335e-05
3.97005e-05
4.09039e-05
4.2143e-05
4.34147e-05
4.4716e-05
4.60476e-05
4.74119e-05
4.88087e-05
5.02339e-05
5.16817e-05
5.31495e-05
5.46385e-05
5.61484e-05
5.76746e-05
5.92106e-05
6.07536e-05
6.23058e-05
6.38699e-05
6.54442e-05
6.70228e-05
6.86009e-05
7.01789e-05
7.17604e-05
7.33459e-05
7.49295e-05
7.65023e-05
7.80593e-05
7.96019e-05
8.11335e-05
8.26541e-05
8.41584e-05
8.56402e-05
8.7098e-05
8.85356e-05
8.99559e-05
9.13553e-05
9.27228e-05
9.40476e-05
9.53267e-05
9.65653e-05
9.77714e-05
9.89486e-05
0.000100094
0.000101199
0.00010226
0.000103275
0.000104247
0.000105176
0.00010606
0.000106893
0.000107671
0.000108393
0.000109064
0.000109686
0.000110257
0.000110771
0.000111223
0.000111613
0.000111942
0.000112215
0.000112431
0.000112591
0.00011269
0.000112728
0.000112705
0.000112624
0.000112488
0.000112295
0.000112043
0.00011173
0.000111356
0.000110927
0.000110448
0.000109922
0.000109348
0.000108721
0.000108041
0.000107314
0.000106552
0.000105765
0.000104961
0.00010414
0.000103299
0.000102434
0.000101548
0.00010065
9.97563e-05
9.88796e-05
9.80294e-05
9.7208e-05
9.64135e-05
9.56458e-05
9.49108e-05
9.42209e-05
9.35917e-05
9.30367e-05
9.25638e-05
9.21758e-05
9.18747e-05
9.16638e-05
9.15455e-05
3.01834e-05
3.02505e-05
3.03407e-05
3.04077e-05
3.04551e-05
3.04846e-05
3.04905e-05
3.04668e-05
3.0406e-05
3.03109e-05
3.01848e-05
3.00225e-05
2.98218e-05
2.95859e-05
2.93207e-05
2.90353e-05
2.87336e-05
2.84153e-05
2.80858e-05
2.77548e-05
2.7429e-05
2.71104e-05
2.67987e-05
2.6496e-05
2.62082e-05
2.5941e-05
2.56994e-05
2.54878e-05
2.53071e-05
2.51541e-05
2.50288e-05
2.49373e-05
2.48856e-05
2.48746e-05
2.49028e-05
2.4972e-05
2.50859e-05
2.52462e-05
2.54523e-05
2.57042e-05
2.60024e-05
2.63455e-05
2.67327e-05
2.71662e-05
2.76484e-05
2.818e-05
2.87595e-05
2.93859e-05
3.00586e-05
3.07771e-05
3.15403e-05
3.2347e-05
3.31963e-05
3.40891e-05
3.50263e-05
3.60086e-05
3.70346e-05
3.81004e-05
3.92035e-05
4.03434e-05
4.15199e-05
4.27314e-05
4.39743e-05
4.52468e-05
4.65504e-05
4.78872e-05
4.92559e-05
5.06521e-05
5.20719e-05
5.35138e-05
5.49777e-05
5.64607e-05
5.79571e-05
5.94627e-05
6.09773e-05
6.25033e-05
6.40406e-05
6.55854e-05
6.71324e-05
6.86799e-05
7.02307e-05
7.17872e-05
7.33461e-05
7.48992e-05
7.64389e-05
7.79636e-05
7.94769e-05
8.09806e-05
8.24712e-05
8.39421e-05
8.53896e-05
8.6816e-05
8.82261e-05
8.96201e-05
9.099e-05
9.23235e-05
9.36125e-05
9.48579e-05
9.60674e-05
9.72472e-05
9.83975e-05
9.95128e-05
0.000100587
0.000101616
0.000102602
0.000103548
0.00010445
0.000105305
0.000106106
0.000106853
0.000107547
0.000108194
0.000108792
0.000109338
0.000109826
0.000110254
0.000110622
0.000110932
0.000111189
0.00011139
0.000111533
0.000111617
0.00011164
0.000111606
0.000111518
0.000111375
0.000111176
0.000110917
0.000110598
0.000110221
0.000109792
0.000109318
0.000108797
0.000108228
0.000107606
0.000106933
0.000106215
0.000105466
0.000104696
0.00010391
0.000103107
0.000102282
0.000101434
0.000100565
9.96857e-05
9.88092e-05
9.79488e-05
9.71117e-05
9.62984e-05
9.55068e-05
9.47375e-05
9.39983e-05
9.33012e-05
9.26593e-05
9.20824e-05
9.15756e-05
9.11412e-05
9.07825e-05
9.04952e-05
9.02732e-05
3.24247e-05
3.23241e-05
3.22636e-05
3.22014e-05
3.21257e-05
3.20331e-05
3.19344e-05
3.18217e-05
3.1686e-05
3.15235e-05
3.13356e-05
3.1127e-05
3.08936e-05
3.06314e-05
3.03469e-05
3.00463e-05
2.9735e-05
2.94169e-05
2.90924e-05
2.87642e-05
2.84388e-05
2.81222e-05
2.78168e-05
2.75257e-05
2.72502e-05
2.69918e-05
2.67555e-05
2.65473e-05
2.63699e-05
2.62219e-05
2.61028e-05
2.6015e-05
2.59616e-05
2.59453e-05
2.59698e-05
2.60373e-05
2.61477e-05
2.63001e-05
2.64951e-05
2.67351e-05
2.70215e-05
2.7352e-05
2.77246e-05
2.81415e-05
2.86067e-05
2.9121e-05
2.96816e-05
3.02864e-05
3.09359e-05
3.16309e-05
3.23709e-05
3.31534e-05
3.39775e-05
3.48453e-05
3.57588e-05
3.67172e-05
3.77177e-05
3.87575e-05
3.98356e-05
4.09512e-05
4.21022e-05
4.32856e-05
4.44996e-05
4.5745e-05
4.70237e-05
4.83353e-05
4.96762e-05
5.10432e-05
5.24354e-05
5.38531e-05
5.52936e-05
5.67506e-05
5.82182e-05
5.9695e-05
6.11834e-05
6.26847e-05
6.41959e-05
6.57115e-05
6.72281e-05
6.87473e-05
7.02729e-05
7.18047e-05
7.3336e-05
7.48581e-05
7.63662e-05
7.78617e-05
7.93479e-05
8.0824e-05
8.22839e-05
8.37219e-05
8.51374e-05
8.65357e-05
8.79206e-05
8.92883e-05
9.06278e-05
9.19275e-05
9.31826e-05
9.43976e-05
9.55803e-05
9.67347e-05
9.78582e-05
9.89445e-05
9.9988e-05
0.000100988
0.000101948
0.000102868
0.000103745
0.000104571
0.000105342
0.00010606
0.000106729
0.000107352
0.000107927
0.000108449
0.000108914
0.000109319
0.000109667
0.00010996
0.0001102
0.000110385
0.000110512
0.00011058
0.00011059
0.000110546
0.00011045
0.000110301
0.000110095
0.000109829
0.000109503
0.000109123
0.000108695
0.000108224
0.000107708
0.000107142
0.000106523
0.000105854
0.000105145
0.000104408
0.000103652
0.00010288
0.000102091
0.000101279
0.000100443
9.95868e-05
9.8721e-05
9.78583e-05
9.70096e-05
9.61795e-05
9.53676e-05
9.45724e-05
9.37963e-05
9.30479e-05
9.23387e-05
9.16786e-05
9.10738e-05
9.05268e-05
9.00402e-05
8.96187e-05
8.92507e-05
8.89214e-05
3.46281e-05
3.43604e-05
3.41551e-05
3.39744e-05
3.37879e-05
3.35923e-05
3.33937e-05
3.31924e-05
3.29842e-05
3.27585e-05
3.2514e-05
3.22546e-05
3.19791e-05
3.16891e-05
3.1384e-05
3.10642e-05
3.07373e-05
3.04104e-05
3.00841e-05
2.97576e-05
2.94333e-05
2.91163e-05
2.88112e-05
2.85218e-05
2.82507e-05
2.8e-05
2.77719e-05
2.75678e-05
2.73893e-05
2.72403e-05
2.71237e-05
2.70389e-05
2.69848e-05
2.69646e-05
2.69843e-05
2.70467e-05
2.71505e-05
2.72948e-05
2.74809e-05
2.77104e-05
2.79838e-05
2.83005e-05
2.86596e-05
2.90626e-05
2.95119e-05
3.00081e-05
3.05494e-05
3.11342e-05
3.17629e-05
3.24359e-05
3.31522e-05
3.39107e-05
3.47116e-05
3.55574e-05
3.64492e-05
3.73843e-05
3.83599e-05
3.93752e-05
4.04302e-05
4.15231e-05
4.26494e-05
4.38057e-05
4.49923e-05
4.6212e-05
4.74663e-05
4.87526e-05
5.00664e-05
5.14061e-05
5.27731e-05
5.4167e-05
5.5583e-05
5.70136e-05
5.84541e-05
5.99052e-05
6.13693e-05
6.28459e-05
6.43299e-05
6.58162e-05
6.73042e-05
6.87979e-05
7.02997e-05
7.1806e-05
7.33081e-05
7.4799e-05
7.62776e-05
7.77467e-05
7.92072e-05
8.06552e-05
8.20838e-05
8.349e-05
8.48769e-05
8.62504e-05
8.76114e-05
8.89521e-05
9.026e-05
9.15262e-05
9.27502e-05
9.39378e-05
9.50957e-05
9.62248e-05
9.73209e-05
9.83781e-05
9.93932e-05
0.000100368
0.000101303
0.000102199
0.00010305
0.000103848
0.000104592
0.000105285
0.000105932
0.000106532
0.000107085
0.000107584
0.000108027
0.000108412
0.000108743
0.00010902
0.000109244
0.000109412
0.000109523
0.000109576
0.000109575
0.000109522
0.000109419
0.000109263
0.00010905
0.000108776
0.000108445
0.000108063
0.000107637
0.000107169
0.000106655
0.000106091
0.000105475
0.000104811
0.00010411
0.000103384
0.000102639
0.000101878
0.000101098
0.000100295
9.94674e-05
9.8621e-05
9.77661e-05
9.69142e-05
9.6073e-05
9.52447e-05
9.44282e-05
9.36241e-05
9.28368e-05
9.20753e-05
9.13496e-05
9.06665e-05
9.00287e-05
8.94369e-05
8.88943e-05
8.8407e-05
8.79557e-05
8.7517e-05
3.67942e-05
3.63733e-05
3.60327e-05
3.57307e-05
3.54423e-05
3.51552e-05
3.48663e-05
3.45796e-05
3.4295e-05
3.4008e-05
3.37104e-05
3.33995e-05
3.3081e-05
3.27569e-05
3.24257e-05
3.2087e-05
3.17435e-05
3.14011e-05
3.10636e-05
3.07311e-05
3.04051e-05
3.00881e-05
2.9783e-05
2.94917e-05
2.92189e-05
2.89699e-05
2.87456e-05
2.85439e-05
2.83656e-05
2.82152e-05
2.80965e-05
2.8009e-05
2.7953e-05
2.79315e-05
2.79476e-05
2.80026e-05
2.80969e-05
2.82323e-05
2.84103e-05
2.86299e-05
2.88901e-05
2.91924e-05
2.95391e-05
2.993e-05
3.03644e-05
3.08423e-05
3.1364e-05
3.19299e-05
3.25397e-05
3.31917e-05
3.3885e-05
3.46207e-05
3.54006e-05
3.62261e-05
3.70966e-05
3.80092e-05
3.8962e-05
3.99552e-05
4.09883e-05
4.2058e-05
4.31596e-05
4.42907e-05
4.54529e-05
4.66487e-05
4.78778e-05
4.9137e-05
5.04239e-05
5.17387e-05
5.30828e-05
5.44532e-05
5.58435e-05
5.72472e-05
5.86622e-05
6.00899e-05
6.15311e-05
6.29822e-05
6.44375e-05
6.58945e-05
6.73558e-05
6.88257e-05
7.03038e-05
7.17832e-05
7.32554e-05
7.47164e-05
7.6168e-05
7.76125e-05
7.90475e-05
8.04665e-05
8.18638e-05
8.32402e-05
8.46018e-05
8.59529e-05
8.72903e-05
8.86029e-05
8.98788e-05
9.11129e-05
9.23081e-05
9.34709e-05
9.46052e-05
9.57091e-05
9.67774e-05
9.7806e-05
9.87948e-05
9.97463e-05
0.000100661
0.000101534
0.000102359
0.000103131
0.000103851
0.000104522
0.000105149
0.00010573
0.000106262
0.00010674
0.000107162
0.00010753
0.000107845
0.000108108
0.000108317
0.000108469
0.000108564
0.000108604
0.000108592
0.000108532
0.000108423
0.000108261
0.00010804
0.00010776
0.000107426
0.000107044
0.00010662
0.000106155
0.000105643
0.00010508
0.000104466
0.000103808
0.000103116
0.000102399
0.000101664
0.00010091
0.000100136
9.93385e-05
9.85171e-05
9.76784e-05
9.68323e-05
9.5988e-05
9.51501e-05
9.43184e-05
9.34924e-05
9.26749e-05
9.18728e-05
9.1095e-05
9.03493e-05
8.96392e-05
8.89647e-05
8.83251e-05
8.77241e-05
8.71692e-05
8.66331e-05
8.60844e-05
3.89178e-05
3.83636e-05
3.78976e-05
3.74833e-05
3.70929e-05
3.67151e-05
3.6347e-05
3.59818e-05
3.56224e-05
3.52699e-05
3.49161e-05
3.45587e-05
3.41976e-05
3.38332e-05
3.34702e-05
3.31096e-05
3.27485e-05
3.23893e-05
3.20362e-05
3.16913e-05
3.13565e-05
3.10344e-05
3.07263e-05
3.04331e-05
3.01587e-05
2.99073e-05
2.96795e-05
2.94757e-05
2.92976e-05
2.91467e-05
2.90233e-05
2.89293e-05
2.88691e-05
2.88455e-05
2.88574e-05
2.89041e-05
2.89887e-05
2.91153e-05
2.92844e-05
2.94933e-05
2.97408e-05
3.00304e-05
3.03651e-05
3.07436e-05
3.11633e-05
3.16241e-05
3.21279e-05
3.26758e-05
3.32665e-05
3.38978e-05
3.45697e-05
3.52852e-05
3.60461e-05
3.68519e-05
3.77011e-05
3.85922e-05
3.95248e-05
4.04984e-05
4.15101e-05
4.25559e-05
4.36326e-05
4.474e-05
4.58801e-05
4.7053e-05
4.82563e-05
4.94879e-05
5.07484e-05
5.204e-05
5.33618e-05
5.47082e-05
5.6072e-05
5.74493e-05
5.88402e-05
6.02456e-05
6.16631e-05
6.30871e-05
6.45134e-05
6.59426e-05
6.73792e-05
6.88258e-05
7.02786e-05
7.17295e-05
7.3172e-05
7.46053e-05
7.60323e-05
7.74529e-05
7.88616e-05
8.02508e-05
8.16179e-05
8.29676e-05
8.43066e-05
8.56363e-05
8.6949e-05
8.82326e-05
8.94772e-05
9.06816e-05
9.18509e-05
9.29904e-05
9.41014e-05
9.518e-05
9.62212e-05
9.72232e-05
9.81887e-05
9.91199e-05
0.000100015
0.000100866
0.000101667
0.000102416
0.000103114
0.000103768
0.000104377
0.00010494
0.000105453
0.000105912
0.000106317
0.00010667
0.000106972
0.000107222
0.000107417
0.000107554
0.000107635
0.000107664
0.000107645
0.00010758
0.000107465
0.000107297
0.00010707
0.000106785
0.000106449
0.000106069
0.000105649
0.000105186
0.000104676
0.000104115
0.000103505
0.000102853
0.000102169
0.000101461
0.000100733
9.99844e-05
9.92131e-05
9.84178e-05
9.76008e-05
9.67688e-05
9.593e-05
9.50902e-05
9.42509e-05
9.3411e-05
9.25711e-05
9.17367e-05
9.09168e-05
9.01199e-05
8.93514e-05
8.86116e-05
8.78979e-05
8.72086e-05
8.65481e-05
8.59245e-05
8.53031e-05
8.46444e-05
4.10062e-05
4.03244e-05
3.97503e-05
3.92369e-05
3.87442e-05
3.82753e-05
3.78286e-05
3.73933e-05
3.69643e-05
3.65438e-05
3.61329e-05
3.57281e-05
3.53239e-05
3.49199e-05
3.45216e-05
3.41315e-05
3.37478e-05
3.33694e-05
3.29996e-05
3.26409e-05
3.22933e-05
3.19596e-05
3.16427e-05
3.13449e-05
3.1068e-05
3.08116e-05
3.05766e-05
3.03671e-05
3.0186e-05
3.00316e-05
2.99027e-05
2.98029e-05
2.97375e-05
2.97079e-05
2.97125e-05
2.97511e-05
2.98277e-05
2.99453e-05
3.01033e-05
3.03006e-05
3.05376e-05
3.08166e-05
3.11392e-05
3.15038e-05
3.19087e-05
3.23542e-05
3.28425e-05
3.33731e-05
3.39443e-05
3.45554e-05
3.52081e-05
3.59058e-05
3.66488e-05
3.74351e-05
3.82635e-05
3.91346e-05
4.00488e-05
4.10038e-05
4.19944e-05
4.30163e-05
4.40692e-05
4.51543e-05
4.62725e-05
4.74216e-05
4.85985e-05
4.98035e-05
5.10397e-05
5.23088e-05
5.36074e-05
5.49284e-05
5.62657e-05
5.76179e-05
5.89858e-05
6.03682e-05
6.17599e-05
6.31551e-05
6.45526e-05
6.59562e-05
6.73699e-05
6.8793e-05
7.02189e-05
7.16404e-05
7.30544e-05
7.44626e-05
7.58665e-05
7.72625e-05
7.86429e-05
8.0002e-05
8.13414e-05
8.26678e-05
8.39865e-05
8.52944e-05
8.65809e-05
8.78347e-05
8.90497e-05
9.02277e-05
9.1374e-05
9.2492e-05
9.35798e-05
9.4633e-05
9.56484e-05
9.66273e-05
9.7573e-05
9.84862e-05
9.93621e-05
0.000100193
0.000100972
0.000101701
0.000102382
0.00010302
0.000103614
0.000104161
0.000104656
0.000105099
0.000105491
0.000105832
0.000106124
0.000106362
0.000106544
0.000106669
0.000106739
0.000106759
0.000106735
0.000106666
0.000106547
0.000106373
0.000106141
0.000105855
0.000105521
0.000105145
0.000104728
0.000104268
0.000103759
0.000103201
0.000102596
0.000101952
0.000101277
0.000100576
9.98532e-05
9.91068e-05
9.83358e-05
9.75414e-05
9.67277e-05
9.59015e-05
9.50681e-05
9.42294e-05
9.33843e-05
9.25319e-05
9.16746e-05
9.08207e-05
8.99806e-05
8.91623e-05
8.83685e-05
8.75967e-05
8.68422e-05
8.61021e-05
8.53813e-05
8.46888e-05
8.3982e-05
8.32144e-05
4.30685e-05
4.22642e-05
4.15881e-05
4.09823e-05
4.04009e-05
3.98431e-05
3.9314e-05
3.88083e-05
3.83143e-05
3.78315e-05
3.73618e-05
3.69038e-05
3.64563e-05
3.60149e-05
3.558e-05
3.5156e-05
3.47435e-05
3.4341e-05
3.3951e-05
3.35755e-05
3.32136e-05
3.28659e-05
3.25369e-05
3.22303e-05
3.19452e-05
3.16804e-05
3.14384e-05
3.12221e-05
3.10323e-05
3.0869e-05
3.07339e-05
3.06299e-05
3.05584e-05
3.05193e-05
3.05139e-05
3.0545e-05
3.06145e-05
3.0722e-05
3.08675e-05
3.10534e-05
3.12817e-05
3.15517e-05
3.1862e-05
3.22123e-05
3.26029e-05
3.30348e-05
3.35085e-05
3.40219e-05
3.45739e-05
3.51665e-05
3.58025e-05
3.64835e-05
3.72087e-05
3.7976e-05
3.87855e-05
3.96388e-05
4.05351e-05
4.14705e-05
4.24392e-05
4.34385e-05
4.44696e-05
4.55336e-05
4.66288e-05
4.77522e-05
4.89027e-05
5.0083e-05
5.12966e-05