/*--------------------------------*- C++ -*----------------------------------*\
  =========                 |
  \\      /  F ield         | OpenFOAM: The Open Source CFD Toolbox
   \\    /   O peration     | Website:  https://openfoam.org
    \\  /    A nd           | Version:  7
     \\/     M anipulation  |
\*---------------------------------------------------------------------------*/
FoamFile
{
    version     2.0;
    format      ascii;
    class       surfaceScalarField;
    location    "0.1";
    object      phi;
}
// * * * * * * * * * * * * * * * * * * * * * * * * * * * * * * * * * * * * * //

dimensions      [0 3 -1 0 0 0 0];

internalField   nonuniform List<scalar> 
101920
(
9.51934e-14
-9.89673e-14
1.74309e-13
-7.80764e-14
1.43155e-12
-1.25652e-12
2.84476e-12
-1.41538e-12
4.09054e-12
-1.24583e-12
5.01613e-12
-9.26789e-13
5.60199e-12
-5.85098e-13
5.8462e-12
-2.43795e-13
5.80233e-12
4.34114e-14
5.48962e-12
3.1194e-13
4.92623e-12
5.61977e-13
4.12864e-12
7.97186e-13
3.10918e-12
1.01963e-12
1.8742e-12
1.23611e-12
4.33082e-13
1.4424e-12
-1.20503e-12
1.63902e-12
-3.02649e-12
1.8215e-12
-5.02008e-12
1.99379e-12
-7.1764e-12
2.1567e-12
-9.48369e-12
2.30855e-12
-1.19311e-11
2.44794e-12
-1.45045e-11
2.57386e-12
-1.71917e-11
2.68719e-12
-1.99852e-11
2.79373e-12
-2.28743e-11
2.88918e-12
-2.58467e-11
2.97256e-12
-2.88914e-11
3.0448e-12
-3.19955e-11
3.1041e-12
-3.51506e-11
3.15531e-12
-3.83549e-11
3.20439e-12
-4.16018e-11
3.24754e-12
-4.48782e-11
3.27734e-12
-4.81709e-11
3.29347e-12
-5.14699e-11
3.29959e-12
-5.47688e-11
3.29877e-12
-5.80665e-11
3.29647e-12
-6.13628e-11
3.29471e-12
-6.46515e-11
3.287e-12
-6.79212e-11
3.26823e-12
-7.11625e-11
3.24053e-12
-7.43713e-11
3.20823e-12
-7.75457e-11
3.17419e-12
-8.06833e-11
3.13755e-12
-8.37792e-11
3.09593e-12
-8.68272e-11
3.04828e-12
-8.98223e-11
2.99548e-12
-9.27611e-11
2.93897e-12
-9.56406e-11
2.87945e-12
-9.84566e-11
2.81648e-12
-1.01206e-10
2.75038e-12
-1.03887e-10
2.6824e-12
-1.06497e-10
2.61178e-12
-1.09033e-10
2.5371e-12
-1.11494e-10
2.45952e-12
-1.13875e-10
2.38023e-12
-1.16175e-10
2.29876e-12
-1.18392e-10
2.21565e-12
-1.20524e-10
2.13197e-12
-1.22571e-10
2.04708e-12
-1.24531e-10
1.96034e-12
-1.26403e-10
1.87192e-12
-1.28185e-10
1.78208e-12
-1.29877e-10
1.69125e-12
-1.31477e-10
1.60006e-12
-1.32986e-10
1.50827e-12
-1.34399e-10
1.41438e-12
-1.35715e-10
1.3174e-12
-1.36932e-10
1.21835e-12
-1.38051e-10
1.11924e-12
-1.39072e-10
1.02122e-12
-1.39996e-10
9.23864e-13
-1.40821e-10
8.25999e-13
-1.41547e-10
7.27148e-13
-1.42173e-10
6.27352e-13
-1.42699e-10
5.264e-13
-1.43125e-10
4.24719e-13
-1.43451e-10
3.2376e-13
-1.43676e-10
2.24403e-13
-1.43802e-10
1.25843e-13
-1.43828e-10
2.66803e-14
-1.43754e-10
-7.352e-14
-1.43581e-10
-1.73414e-13
-1.43309e-10
-2.72635e-13
-1.42936e-10
-3.71591e-13
-1.42463e-10
-4.70912e-13
-1.4189e-10
-5.71065e-13
-1.41217e-10
-6.72266e-13
-1.40443e-10
-7.73826e-13
-1.39571e-10
-8.74025e-13
-1.386e-10
-9.71685e-13
-1.37532e-10
-1.06767e-12
-1.36369e-10
-1.16367e-12
-1.35109e-10
-1.25995e-12
-1.33755e-10
-1.35509e-12
-1.32308e-10
-1.44782e-12
-1.30769e-10
-1.53873e-12
-1.29138e-10
-1.62972e-12
-1.27415e-10
-1.72165e-12
-1.25601e-10
-1.81335e-12
-1.23699e-10
-1.90268e-12
-1.21712e-10
-1.98846e-12
-1.1964e-10
-2.07136e-12
-1.17487e-10
-2.1528e-12
-1.15254e-10
-2.23362e-12
-1.12941e-10
-2.31357e-12
-1.10551e-10
-2.39153e-12
-1.08084e-10
-2.46651e-12
-1.05544e-10
-2.53848e-12
-1.02933e-10
-2.60843e-12
-1.00255e-10
-2.67745e-12
-9.75096e-11
-2.74518e-12
-9.47024e-11
-2.80944e-12
-9.18369e-11
-2.86822e-12
-8.89171e-11
-2.92142e-12
-8.59456e-11
-2.97088e-12
-8.29242e-11
-3.01868e-12
-7.98557e-11
-3.06519e-12
-7.6745e-11
-3.1089e-12
-7.35977e-11
-3.14778e-12
-7.04193e-11
-3.18055e-12
-6.72143e-11
-3.20693e-12
-6.39872e-11
-3.22749e-12
-6.0743e-11
-3.24287e-12
-5.74882e-11
-3.2531e-12
-5.42299e-11
-3.25733e-12
-5.09759e-11
-3.25419e-12
-4.77336e-11
-3.24295e-12
-4.45101e-11
-3.22412e-12
-4.13121e-11
-3.1985e-12
-3.81465e-11
-3.16604e-12
-3.50208e-11
-3.1257e-12
-3.19445e-11
-3.07615e-12
-2.89278e-11
-3.01651e-12
-2.5981e-11
-2.94663e-12
-2.31141e-11
-2.86675e-12
-2.03371e-11
-2.77681e-12
-1.76605e-11
-2.67637e-12
-1.50949e-11
-2.56512e-12
-1.26515e-11
-2.44298e-12
-1.0341e-11
-2.31009e-12
-8.17356e-12
-2.167e-12
-6.1587e-12
-2.01435e-12
-4.30588e-12
-1.8523e-12
-2.62495e-12
-1.68045e-12
-1.12664e-12
-1.49825e-12
1.78733e-13
-1.30574e-12
1.2822e-12
-1.1039e-12
2.17608e-12
-8.94219e-13
2.8544e-12
-6.78514e-13
3.31353e-12
-4.59163e-13
3.55295e-12
-2.39679e-13
3.57706e-12
-2.47975e-14
3.39646e-12
1.79844e-13
3.02964e-12
3.66444e-13
2.50595e-12
5.23779e-13
1.87027e-12
6.36052e-13
1.18873e-12
6.81854e-13
5.57153e-13
6.31642e-13
1.12314e-13
4.44909e-13
1.12492e-13
7.7416e-13
-8.72104e-13
1.7554e-12
-1.06327e-12
3.54377e-12
-3.04188e-12
5.93671e-12
-3.80822e-12
8.12866e-12
-3.43839e-12
9.74588e-12
-2.54181e-12
1.0631e-11
-1.4707e-12
1.07944e-11
-4.07576e-13
1.02423e-11
5.96807e-13
9.01559e-12
1.53989e-12
7.13932e-12
2.4393e-12
4.63696e-12
3.2988e-12
1.52995e-12
4.12511e-12
-2.15782e-12
4.92208e-12
-6.4057e-12
5.68951e-12
-1.11888e-11
6.42216e-12
-1.6484e-11
7.11729e-12
-2.2263e-11
7.77204e-12
-2.84941e-11
8.38679e-12
-3.515e-11
8.9631e-12
-4.21998e-11
9.49741e-12
-4.96144e-11
9.98769e-12
-5.73643e-11
1.04366e-11
-6.54157e-11
1.08446e-11
-7.37381e-11
1.12111e-11
-8.23049e-11
1.15393e-11
-9.10879e-11
1.18277e-11
-1.00061e-10
1.20771e-11
-1.09197e-10
1.22917e-11
-1.18467e-10
1.24744e-11
-1.27845e-10
1.26241e-11
-1.37307e-10
1.27384e-11
-1.46832e-10
1.28184e-11
-1.56399e-10
1.28673e-11
-1.65986e-10
1.28887e-11
-1.75575e-10
1.28881e-11
-1.85144e-10
1.28672e-11
-1.94677e-10
1.28221e-11
-2.04157e-10
1.27501e-11
-2.1357e-10
1.26535e-11
-2.22898e-10
1.25367e-11
-2.32126e-10
1.24027e-11
-2.41242e-10
1.22527e-11
-2.50232e-10
1.20859e-11
-2.59085e-10
1.19008e-11
-2.67789e-10
1.16981e-11
-2.7633e-10
1.14805e-11
-2.847e-10
1.12491e-11
-2.9289e-10
1.10041e-11
-3.0089e-10
1.07481e-11
-3.08693e-10
1.0483e-11
-3.1629e-10
1.02078e-11
-3.23674e-10
9.92146e-12
-3.30838e-10
9.62498e-12
-3.37775e-10
9.3192e-12
-3.4448e-10
9.0046e-12
-3.50946e-10
8.68306e-12
-3.5717e-10
8.35576e-12
-3.63145e-10
8.02229e-12
-3.68867e-10
7.68304e-12
-3.74333e-10
7.33872e-12
-3.79539e-10
6.98909e-12
-3.84481e-10
6.63437e-12
-3.89155e-10
6.27523e-12
-3.93558e-10
5.91126e-12
-3.97686e-10
5.54144e-12
-4.01536e-10
5.16608e-12
-4.05105e-10
4.78705e-12
-4.08392e-10
4.40604e-12
-4.11393e-10
4.02361e-12
-4.14109e-10
3.63959e-12
-4.16538e-10
3.2539e-12
-4.18679e-10
2.86704e-12
-4.2053e-10
2.47911e-12
-4.22089e-10
2.08881e-12
-4.23357e-10
1.69548e-12
-4.24332e-10
1.30094e-12
-4.25015e-10
9.07385e-13
-4.25405e-10
5.15317e-13
-4.25503e-10
1.23984e-13
-4.25308e-10
-2.67641e-13
-4.24821e-10
-6.6003e-13
-4.24041e-10
-1.05286e-12
-4.2297e-10
-1.44505e-12
-4.21607e-10
-1.83576e-12
-4.19953e-10
-2.22544e-12
-4.18008e-10
-2.61524e-12
-4.15774e-10
-3.00518e-12
-4.13253e-10
-3.39351e-12
-4.10446e-10
-3.7783e-12
-4.07354e-10
-4.15914e-12
-4.03981e-10
-4.53684e-12
-4.00328e-10
-4.91182e-12
-3.964e-10
-5.28353e-12
-3.92199e-10
-5.65092e-12
-3.87727e-10
-6.0135e-12
-3.82987e-10
-6.37199e-12
-3.77982e-10
-6.7272e-12
-3.72716e-10
-7.07863e-12
-3.67192e-10
-7.42455e-12
-3.61417e-10
-7.76321e-12
-3.55393e-10
-8.09411e-12
-3.49128e-10
-8.41795e-12
-3.42624e-10
-8.73568e-12
-3.35888e-10
-9.04769e-12
-3.28927e-10
-9.35328e-12
-3.21744e-10
-9.65078e-12
-3.14347e-10
-9.93864e-12
-3.06742e-10
-1.02161e-11
-2.98937e-10
-1.04832e-11
-2.9094e-10
-1.074e-11
-2.8276e-10
-1.09854e-11
-2.74406e-10
-1.12182e-11
-2.6589e-10
-1.14377e-11
-2.5722e-10
-1.16434e-11
-2.48406e-10
-1.18353e-11
-2.39461e-10
-1.20124e-11
-2.30395e-10
-1.21737e-11
-2.21221e-10
-1.23181e-11
-2.11954e-10
-1.24443e-11
-2.0261e-10
-1.25508e-11
-1.93202e-10
-1.26361e-11
-1.83748e-10
-1.26983e-11
-1.74266e-10
-1.27362e-11
-1.64773e-10
-1.27491e-11
-1.55291e-10
-1.27358e-11
-1.45839e-10
-1.2695e-11
-1.36438e-10
-1.26258e-11
-1.27109e-10
-1.25277e-11
-1.17876e-10
-1.23995e-11
-1.08763e-10
-1.22394e-11
-9.97944e-11
-1.20448e-11
-9.09964e-11
-1.18141e-11
-8.23963e-11
-1.15461e-11
-7.40223e-11
-1.12401e-11
-6.59031e-11
-1.08954e-11
-5.80683e-11
-1.05108e-11
-5.0547e-11
-1.00857e-11
-4.33686e-11
-9.6201e-12
-3.65629e-11
-9.11453e-12
-3.0159e-11
-8.56982e-12
-2.41861e-11
-7.98675e-12
-1.86726e-11
-7.36593e-12
-1.36453e-11
-6.70788e-12
-9.12984e-12
-6.01373e-12
-5.14991e-12
-5.28586e-12
-1.72627e-12
-4.52796e-12
1.12405e-12
-3.74515e-12
3.38902e-12
-2.94443e-12
5.06402e-12
-2.13514e-12
6.15408e-12
-1.33029e-12
6.67648e-12
-5.47358e-13
6.66438e-12
1.919e-13
6.17064e-12
8.60096e-13
5.27325e-12
1.42095e-12
4.08211e-12
1.82697e-12
2.74604e-12
2.01796e-12
1.45761e-12
1.92023e-12
4.51185e-13
1.4515e-12
5.64022e-13
-2.89893e-14
-8.42402e-13
7.01001e-13
-1.79127e-12
2.22361e-12
-4.56509e-12
4.36652e-12
-5.94845e-12
6.45853e-12
-5.53246e-12
7.96399e-12
-4.0486e-12
8.62831e-12
-2.13553e-12
8.34077e-12
-1.21368e-13
7.0672e-12
1.86898e-12
4.80516e-12
3.80135e-12
1.56708e-12
5.67829e-12
-2.63036e-12
7.49764e-12
-7.76726e-12
9.26349e-12
-1.38164e-11
1.09718e-11
-2.07468e-11
1.26198e-11
-2.8523e-11
1.41988e-11
-3.71081e-11
1.57033e-11
-4.64623e-11
1.71279e-11
-5.65432e-11
1.84682e-11
-6.7302e-11
1.97223e-11
-7.86938e-11
2.08893e-11
-9.06721e-11
2.19662e-11
-1.0319e-10
2.29548e-11
-1.162e-10
2.38548e-11
-1.29656e-10
2.46665e-11
-1.43507e-10
2.53907e-11
-1.5771e-10
2.60303e-11
-1.72221e-10
2.65894e-11
-1.87001e-10
2.70722e-11
-2.02006e-10
2.74806e-11
-2.17195e-10
2.78145e-11
-2.3253e-10
2.80735e-11
-2.47972e-10
2.82596e-11
-2.63486e-10
2.83794e-11
-2.79039e-10
2.84399e-11
-2.94598e-10
2.84455e-11
-3.10131e-10
2.83985e-11
-3.25607e-10
2.82977e-11
-3.41e-10
2.8143e-11
-3.56285e-10
2.79382e-11
-3.71437e-10
2.76881e-11
-3.8643e-10
2.73959e-11
-4.01241e-10
2.70645e-11
-4.15849e-10
2.66947e-11
-4.30236e-10
2.62871e-11
-4.44382e-10
2.5844e-11
-4.58269e-10
2.53684e-11
-4.7188e-10
2.48619e-11
-4.852e-10
2.43263e-11
-4.98215e-10
2.37645e-11
-5.1091e-10
2.31785e-11
-5.23273e-10
2.25696e-11
-5.35292e-10
2.19387e-11
-5.46954e-10
2.12866e-11
-5.58251e-10
2.06147e-11
-5.69171e-10
1.99247e-11
-5.79706e-10
1.92183e-11
-5.89847e-10
1.8497e-11
-5.99586e-10
1.77611e-11
-6.08915e-10
1.70118e-11
-6.17826e-10
1.62498e-11
-6.26314e-10
1.54762e-11
-6.34372e-10
1.4692e-11
-6.41993e-10
1.38979e-11
-6.49173e-10
1.30929e-11
-6.55907e-10
1.22768e-11
-6.6219e-10
1.14507e-11
-6.6802e-10
1.06171e-11
-6.73392e-10
9.77811e-12
-6.78301e-10
8.93431e-12
-6.82745e-10
8.08532e-12
-6.86721e-10
7.23113e-12
-6.90227e-10
6.37281e-12
-6.93262e-10
5.51147e-12
-6.95822e-10
4.64711e-12
-6.97907e-10
3.77964e-12
-6.99515e-10
2.90993e-12
-7.00645e-10
2.03908e-12
-7.01298e-10
1.1681e-12
-7.01473e-10
2.9785e-13
-7.01168e-10
-5.71683e-13
-7.00385e-10
-1.44123e-12
-6.99124e-10
-2.31098e-12
-6.97386e-10
-3.18019e-12
-6.95174e-10
-4.04786e-12
-6.92487e-10
-4.91339e-12
-6.89327e-10
-5.77643e-12
-6.85697e-10
-6.63634e-12
-6.81598e-10
-7.49203e-12
-6.77034e-10
-8.34226e-12
-6.72008e-10
-9.18618e-12
-6.66523e-10
-1.00234e-11
-6.60581e-10
-1.08534e-11
-6.54188e-10
-1.16757e-11
-6.47347e-10
-1.24898e-11
-6.40065e-10
-1.32952e-11
-6.32346e-10
-1.40916e-11
-6.24196e-10
-1.48786e-11
-6.1562e-10
-1.5655e-11
-6.06625e-10
-1.64193e-11
-5.97218e-10
-1.71701e-11
-5.87406e-10
-1.79066e-11
-5.77197e-10
-1.8628e-11
-5.66599e-10
-1.93344e-11
-5.55621e-10
-2.00254e-11
-5.44271e-10
-2.07003e-11
-5.32562e-10
-2.13579e-11
-5.20503e-10
-2.19964e-11
-5.08106e-10
-2.2614e-11
-4.95384e-10
-2.32084e-11
-4.82349e-10
-2.37778e-11
-4.69015e-10
-2.43203e-11
-4.55397e-10
-2.48348e-11
-4.4151e-10
-2.53211e-11
-4.27371e-10
-2.57786e-11
-4.13e-10
-2.62056e-11
-3.98415e-10
-2.65989e-11
-3.83636e-10
-2.69553e-11
-3.68684e-10
-2.7272e-11
-3.5358e-10
-2.75471e-11
-3.38349e-10
-2.77791e-11
-3.23018e-10
-2.79655e-11
-3.07612e-10
-2.81031e-11
-2.92161e-10
-2.81883e-11
-2.76693e-10
-2.8218e-11
-2.61239e-10
-2.81899e-11
-2.45833e-10
-2.81017e-11
-2.30508e-10
-2.79511e-11
-2.153e-10
-2.77358e-11
-2.00246e-10
-2.74531e-11
-1.85386e-10
-2.70998e-11
-1.70759e-10
-2.66721e-11
-1.56406e-10
-2.61668e-11
-1.42371e-10
-2.55815e-11
-1.28696e-10
-2.49143e-11
-1.15428e-10
-2.41635e-11
-1.0261e-10
-2.33273e-11
-9.02911e-11
-2.24045e-11
-7.8516e-11
-2.13945e-11
-6.73316e-11
-2.0298e-11
-5.67842e-11
-1.91164e-11
-4.69189e-11
-1.78514e-11
-3.77797e-11
-1.65049e-11
-2.9408e-11
-1.50798e-11
-2.1842e-11
-1.35802e-11
-1.51156e-11
-1.20126e-11
-9.25774e-12
-1.0386e-11
-4.29065e-12
-8.71251e-12
-2.27882e-13
-7.00778e-12
2.92835e-12
-5.29247e-12
5.19022e-12
-3.59332e-12
6.58748e-12
-1.94514e-12
7.17143e-12
-3.91918e-13
7.02026e-12
1.01158e-12
6.24542e-12
2.196e-12
4.99809e-12
3.07437e-12
3.47505e-12
3.54118e-12
1.92183e-12
3.47387e-12
6.34994e-13
2.73878e-12
1.19941e-12
-1.02872e-13
-7.41001e-13
1.03376e-13
-1.99771e-12
9.22055e-13
-5.38119e-12
2.23557e-12
-7.26255e-12
3.5217e-12
-6.81768e-12
4.28381e-12
-4.80978e-12
4.18078e-12
-2.03197e-12
3.00887e-12
1.05164e-12
6.63113e-13
4.2136e-12
-2.90857e-12
7.37222e-12
-7.72115e-12
1.04897e-11
-1.37763e-11
1.35526e-11
-2.10561e-11
1.65436e-11
-2.9537e-11
1.94532e-11
-3.91824e-11
2.22654e-11
-4.99518e-11
2.49676e-11
-6.17981e-11
2.75492e-11
-7.46685e-11
2.99983e-11
-8.85081e-11
3.23078e-11
-1.0326e-10
3.44736e-11
-1.18861e-10
3.64903e-11
-1.35251e-10
3.83559e-11
-1.52367e-10
4.00709e-11
-1.70147e-10
4.16345e-11
-1.8853e-10
4.30493e-11
-2.07455e-10
4.4316e-11
-2.26861e-10
4.54364e-11
-2.46688e-10
4.64154e-11
-2.66874e-10
4.7258e-11
-2.87363e-10
4.79695e-11
-3.08103e-10
4.85557e-11
-3.29047e-10
4.90187e-11
-3.50146e-10
4.93599e-11
-3.7135e-10
4.95847e-11
-3.92609e-10
4.96999e-11
-4.13876e-10
4.97128e-11
-4.35107e-10
4.96303e-11
-4.56265e-10
4.94555e-11
-4.77314e-10
4.91913e-11
-4.98217e-10
4.88421e-11
-5.18941e-10
4.84115e-11
-5.39451e-10
4.79047e-11
-5.59714e-10
4.73276e-11
-5.79703e-10
4.66833e-11
-5.9939e-10
4.59741e-11
-6.1875e-10
4.52039e-11
-6.3776e-10
4.43767e-11
-6.56395e-10
4.34961e-11
-6.74635e-10
4.25659e-11
-6.92459e-10
4.1589e-11
-7.09847e-10
4.05679e-11
-7.26782e-10
3.95056e-11
-7.43247e-10
3.84046e-11
-7.59227e-10
3.72668e-11
-7.74707e-10
3.60948e-11
-7.89673e-10
3.48911e-11
-8.04113e-10
3.3658e-11
-8.18014e-10
3.23979e-11
-8.31365e-10
3.11124e-11
-8.44155e-10
2.98027e-11
-8.56375e-10
2.84698e-11
-8.68015e-10
2.71156e-11
-8.79065e-10
2.57421e-11
-8.89518e-10
2.43506e-11
-8.99367e-10
2.29417e-11
-9.08605e-10
2.15157e-11
-9.17227e-10
2.00736e-11
-9.25227e-10
1.8618e-11
-9.32601e-10
1.71511e-11
-9.39341e-10
1.56743e-11
-9.45443e-10
1.41883e-11
-9.50905e-10
1.2694e-11
-9.55722e-10
1.11919e-11
-9.59892e-10
9.68236e-12
-9.63412e-10
8.16673e-12
-9.66279e-10
6.6466e-12
-9.68493e-10
5.12346e-12
-9.70051e-10
3.59819e-12
-9.70953e-10
2.07135e-12
-9.71199e-10
5.43862e-13
-9.70788e-10
-9.83558e-13
-9.6972e-10
-2.51025e-12
-9.67996e-10
-4.03519e-12
-9.65617e-10
-5.55758e-12
-9.62585e-10
-7.07723e-12
-9.58904e-10
-8.59383e-12
-9.54575e-10
-1.0106e-11
-9.496e-10
-1.16118e-11
-9.43982e-10
-1.31095e-11
-9.37726e-10
-1.45981e-11
-9.30835e-10
-1.60767e-11
-9.23315e-10
-1.75446e-11
-9.1517e-10
-1.9e-11
-9.06405e-10
-2.04415e-11
-8.97027e-10
-2.18685e-11
-8.87041e-10
-2.32803e-11
-8.76455e-10
-2.46764e-11
-8.65278e-10
-2.60553e-11
-8.53518e-10
-2.74152e-11
-8.41183e-10
-2.8754e-11
-8.28283e-10
-3.00701e-11
-8.14826e-10
-3.13621e-11
-8.00825e-10
-3.26291e-11
-7.86291e-10
-3.38698e-11
-7.71236e-10
-3.50826e-11
-7.55672e-10
-3.62652e-11
-7.39614e-10
-3.74154e-11
-7.23077e-10
-3.85311e-11
-7.06078e-10
-3.96107e-11
-6.88634e-10
-4.06514e-11
-6.70762e-10
-4.16499e-11
-6.52482e-10
-4.26026e-11
-6.33813e-10
-4.35063e-11
-6.14776e-10
-4.43589e-11
-5.95395e-10
-4.51586e-11
-5.75696e-10
-4.5903e-11
-5.55704e-10
-4.65884e-11
-5.35448e-10
-4.72104e-11
-5.14957e-10
-4.77638e-11
-4.94261e-10
-4.82441e-11
-4.73392e-10
-4.86477e-11
-4.52386e-10
-4.89708e-11
-4.31279e-10
-4.92091e-11
-4.1011e-10
-4.93574e-11
-3.88918e-10
-4.94103e-11
-3.67746e-10
-4.9363e-11
-3.46637e-10
-4.92112e-11
-3.25637e-10
-4.89506e-11
-3.04796e-10
-4.85768e-11
-2.84164e-10
-4.80851e-11
-2.63793e-10
-4.74707e-11
-2.43738e-10
-4.67282e-11
-2.24052e-10
-4.58529e-11
-2.04793e-10
-4.48404e-11
-1.86019e-10
-4.36876e-11
-1.67791e-10
-4.23916e-11
-1.50167e-10
-4.095e-11
-1.3321e-10
-3.9361e-11
-1.1698e-10
-3.76237e-11
-1.01539e-10
-3.57388e-11
-8.69465e-11
-3.37082e-11
-7.32622e-11
-3.15353e-11
-6.0542e-11
-2.92246e-11
-4.88387e-11
-2.67828e-11
-3.82007e-11
-2.42184e-11
-2.86704e-11
-2.15434e-11
-2.02828e-11
-1.87741e-11
-1.30637e-11
-1.5932e-11
-7.02698e-12
-1.30448e-11
-2.17206e-12
-1.01478e-11
1.5191e-12
-7.28512e-12
4.08574e-12
-4.51243e-12
5.59292e-12
-1.8994e-12
6.13667e-12
4.67736e-13
5.84997e-12
2.48269e-12
4.90879e-12
4.01576e-12
3.53745e-12
4.91295e-12
2.01406e-12
4.99787e-12
6.81344e-13
4.07202e-12
1.88108e-12
-3.54674e-14
-7.0515e-13
5.32301e-14
-2.08668e-12
3.41239e-13
-5.67115e-12
7.93922e-13
-7.71389e-12
1.04538e-12
-7.06903e-12
6.92211e-13
-4.45767e-12
-6.00736e-13
-7.38608e-13
-3.06733e-12
3.51848e-12
-6.86189e-12
8.00902e-12
-1.20688e-11
1.25794e-11
-1.87366e-11
1.71573e-11
-2.68769e-11
2.16925e-11
-3.64857e-11
2.61525e-11
-4.75395e-11
3.05076e-11
-6.0002e-11
3.47287e-11
-7.38297e-11
3.87956e-11
-8.89671e-11
4.26866e-11
-1.05354e-10
4.63851e-11
-1.22925e-10
4.98795e-11
-1.41612e-10
5.316e-11
-1.61341e-10
5.62194e-11
-1.8204e-10
5.90551e-11
-2.03633e-10
6.16631e-11
-2.26043e-10
6.40443e-11
-2.49195e-10
6.62014e-11
-2.73015e-10
6.81368e-11
-2.97433e-10
6.98543e-11
-3.22375e-10
7.13581e-11
-3.47769e-10
7.26524e-11
-3.73544e-10
7.37433e-11
-3.99629e-10
7.46402e-11
-4.25961e-10
7.53505e-11
-4.52482e-10
7.58803e-11
-4.79133e-10
7.6236e-11
-5.05858e-10
7.64246e-11
-5.32598e-10
7.64532e-11
-5.59298e-10
7.63303e-11
-5.85907e-10
7.60642e-11
-6.12377e-10
7.56624e-11
-6.38666e-10
7.51314e-11
-6.64731e-10
7.4476e-11
-6.90529e-10
7.37032e-11
-7.16022e-10
7.28203e-11
-7.41172e-10
7.18335e-11
-7.65945e-10
7.0748e-11
-7.90309e-10
6.95689e-11
-8.14234e-10
6.83018e-11
-8.37691e-10
6.69524e-11
-8.60651e-10
6.55262e-11
-8.83091e-10
6.40279e-11
-9.04984e-10
6.24614e-11
-9.26309e-10
6.08311e-11
-9.47045e-10
5.91408e-11
-9.67172e-10
5.73938e-11
-9.8667e-10
5.55939e-11
-1.00552e-09
5.37447e-11
-1.02372e-09
5.18495e-11
-1.04123e-09
4.99116e-11
-1.05805e-09
4.79341e-11
-1.07417e-09
4.59189e-11
-1.08957e-09
4.38684e-11
-1.10423e-09
4.17849e-11
-1.11816e-09
3.96707e-11
-1.13134e-09
3.75278e-11
-1.14376e-09
3.5358e-11
-1.1554e-09
3.31631e-11
-1.16627e-09
3.09453e-11
-1.17636e-09
2.87066e-11
-1.18566e-09
2.64489e-11
-1.19416e-09
2.41741e-11
-1.20185e-09
2.18846e-11
-1.20874e-09
1.95828e-11
-1.21482e-09
1.72692e-11
-1.22008e-09
1.49444e-11
-1.22452e-09
1.26098e-11
-1.22815e-09
1.02675e-11
-1.23094e-09
7.91981e-12
-1.23291e-09
5.56868e-12
-1.23405e-09
3.21525e-12
-1.23437e-09
8.60003e-13
-1.23385e-09
-1.4962e-12
-1.23251e-09
-3.85152e-12
-1.23035e-09
-6.20371e-12
-1.22735e-09
-8.55131e-12
-1.22354e-09
-1.08939e-11
-1.2189e-09
-1.32308e-11
-1.21344e-09
-1.55601e-11
-1.20718e-09
-1.78794e-11
-1.2001e-09
-2.01865e-11
-1.19222e-09
-2.24799e-11
-1.18354e-09
-2.47584e-11
-1.17406e-09
-2.70205e-11
-1.1638e-09
-2.92641e-11
-1.15275e-09
-3.14868e-11
-1.14093e-09
-3.36869e-11
-1.12835e-09
-3.58634e-11
-1.11501e-09
-3.8015e-11
-1.10093e-09
-4.01399e-11
-1.08611e-09
-4.22354e-11
-1.07056e-09
-4.42985e-11
-1.05431e-09
-4.63266e-11
-1.03735e-09
-4.83179e-11
-1.01971e-09
-5.02708e-11
-1.00139e-09
-5.21833e-11
-9.82424e-10
-5.40525e-11
-9.62815e-10
-5.58747e-11
-9.42586e-10
-5.76462e-11
-9.21754e-10
-5.93639e-11
-9.0034e-10
-6.10245e-11
-8.78366e-10
-6.26246e-11
-8.55854e-10
-6.41599e-11
-8.32829e-10
-6.56261e-11
-8.09318e-10
-6.70187e-11
-7.85346e-10
-6.83328e-11
-7.60942e-10
-6.95639e-11
-7.36138e-10
-7.07074e-11
-7.10967e-10
-7.17583e-11
-6.85464e-10
-7.27112e-11
-6.59667e-10
-7.35597e-11
-6.33613e-10
-7.42968e-11
-6.07345e-10
-7.49163e-11
-5.80905e-10
-7.54118e-11
-5.54337e-10
-7.57765e-11
-5.27691e-10
-7.60035e-11
-5.01017e-10
-7.6085e-11
-4.74366e-10
-7.60138e-11
-4.47794e-10
-7.57832e-11
-4.21358e-10
-7.53865e-11
-3.95118e-10
-7.48167e-11
-3.69137e-10
-7.40666e-11
-3.43479e-10
-7.3129e-11
-3.18211e-10
-7.19969e-11
-2.934e-10
-7.06639e-11
-2.69116e-10
-6.9124e-11
-2.45431e-10
-6.73722e-11
-2.22418e-10
-6.54044e-11
-2.0015e-10
-6.32174e-11
-1.78701e-10
-6.08089e-11
-1.58145e-10
-5.81784e-11
-1.38557e-10
-5.53269e-11
-1.20008e-10
-5.22573e-11
-1.02568e-10
-4.8975e-11
-8.63039e-11
-4.54881e-11
-7.12785e-11
-4.18077e-11
-5.75482e-11
-3.79487e-11
-4.51619e-11
-3.39302e-11
-3.41592e-11
-2.97775e-11
-2.45686e-11
-2.55233e-11
-1.64047e-11
-2.12094e-11
-9.66505e-12
-1.68877e-11
-4.32757e-12
-1.26227e-11
-3.46503e-13
-8.49382e-12
2.35232e-12
-4.59864e-12
3.87615e-12
-1.05639e-12
4.3704e-12
1.98839e-12
4.02425e-12
4.36222e-12
3.07661e-12
5.86119e-12
1.82367e-12
6.25145e-12
6.34091e-13
5.26205e-12
2.51539e-12
3.43325e-14
-7.40564e-13
1.03638e-13
-2.15341e-12
1.11729e-14
-5.5802e-12
-3.45316e-13
-7.35613e-12
-1.19767e-12
-6.21703e-12
-2.846e-12
-2.81022e-12
-5.57737e-12
1.99224e-12
-9.62257e-12
7.56346e-12
-1.51446e-11
1.3531e-11
-2.22529e-11
1.9688e-11
-3.1005e-11
2.59098e-11
-4.14308e-11
3.21184e-11
-5.35309e-11
3.82522e-11
-6.7284e-11
4.42608e-11
-8.26579e-11
5.01027e-11
-9.9602e-11
5.57402e-11
-1.18059e-10
6.11435e-11
-1.37963e-10
6.62892e-11
-1.5924e-10
7.11564e-11
-1.81812e-10
7.57315e-11
-2.05597e-10
8.00047e-11
-2.30511e-10
8.39693e-11
-2.56469e-10
8.76209e-11
-2.83384e-10
9.09588e-11
-3.11166e-10
9.39836e-11
-3.39729e-10
9.66999e-11
-3.68988e-10
9.91131e-11
-3.98859e-10
1.0123e-10
-4.29262e-10
1.03056e-10
-4.60117e-10
1.04599e-10
-4.91342e-10
1.05866e-10
-5.2286e-10
1.06869e-10
-5.54597e-10
1.07617e-10
-5.86483e-10
1.08122e-10
-6.18452e-10
1.08393e-10
-6.50439e-10
1.0844e-10
-6.82381e-10
1.08272e-10
-7.14217e-10
1.079e-10
-7.45889e-10
1.07335e-10
-7.77344e-10
1.06586e-10
-8.0853e-10
1.05663e-10
-8.39401e-10
1.04573e-10
-8.69908e-10
1.03327e-10
-9.00008e-10
1.01933e-10
-9.29659e-10
1.00399e-10
-9.58824e-10
9.87333e-11
-9.87464e-10
9.69429e-11
-1.01555e-09
9.50355e-11
-1.04304e-09
9.30178e-11
-1.06991e-09
9.08969e-11
-1.09612e-09
8.86793e-11
-1.12166e-09
8.63705e-11
-1.1465e-09
8.39762e-11
-1.17061e-09
8.15014e-11
-1.19396e-09
7.89512e-11
-1.21655e-09
7.63304e-11
-1.23834e-09
7.3644e-11
-1.25933e-09
7.08961e-11
-1.27948e-09
6.80904e-11
-1.2988e-09
6.52307e-11
-1.31725e-09
6.23208e-11
-1.33483e-09
5.93643e-11
-1.35152e-09
5.6364e-11
-1.36731e-09
5.33223e-11
-1.3822e-09
5.02418e-11
-1.39616e-09
4.71261e-11
-1.40919e-09
4.39784e-11
-1.42129e-09
4.08012e-11
-1.43243e-09
3.75965e-11
-1.44263e-09
3.43669e-11
-1.45186e-09
3.11154e-11
-1.46012e-09
2.7845e-11
-1.46741e-09
2.45578e-11
-1.47372e-09
2.12553e-11
-1.47905e-09
1.79397e-11
-1.48339e-09
1.46128e-11
-1.48675e-09
1.12772e-11
-1.48912e-09
7.93574e-12
-1.49049e-09
4.59056e-12
-1.49087e-09
1.24281e-12
-1.49026e-09
-2.10585e-12
-1.48866e-09
-5.45299e-12
-1.48607e-09
-8.79616e-12
-1.48249e-09
-1.21335e-11
-1.47792e-09
-1.54635e-11
-1.47236e-09
-1.87842e-11
-1.46583e-09
-2.2093e-11
-1.45832e-09
-2.53872e-11
-1.44984e-09
-2.86645e-11
-1.4404e-09
-3.1923e-11
-1.43e-09
-3.51603e-11
-1.41865e-09
-3.8374e-11
-1.40635e-09
-4.15615e-11
-1.39311e-09
-4.47199e-11
-1.37895e-09
-4.78467e-11
-1.36388e-09
-5.09397e-11
-1.3479e-09
-5.39969e-11
-1.33102e-09
-5.70153e-11
-1.31327e-09
-5.99917e-11
-1.29464e-09
-6.29224e-11
-1.27516e-09
-6.58038e-11
-1.25485e-09
-6.86331e-11
-1.23371e-09
-7.14074e-11
-1.21177e-09
-7.41232e-11
-1.18905e-09
-7.67764e-11
-1.16556e-09
-7.93624e-11
-1.14133e-09
-8.18768e-11
-1.11638e-09
-8.43151e-11
-1.09073e-09
-8.66719e-11
-1.06442e-09
-8.89418e-11
-1.03746e-09
-9.11188e-11
-1.00989e-09
-9.31974e-11
-9.81732e-10
-9.51716e-11
-9.5303e-10
-9.70351e-11
-9.23813e-10
-9.8781e-11
-8.9412e-10
-1.00402e-10
-8.63988e-10
-1.0189e-10
-8.3346e-10
-1.03238e-10
-8.0258e-10
-1.04438e-10
-7.71395e-10
-1.05481e-10
-7.39953e-10
-1.06357e-10
-7.08307e-10
-1.07059e-10
-6.76509e-10
-1.07575e-10
-6.44616e-10
-1.07897e-10
-6.12688e-10
-1.08013e-10
-5.80787e-10
-1.07915e-10
-5.48977e-10
-1.07592e-10
-5.17327e-10
-1.07036e-10
-4.85908e-10
-1.06236e-10
-4.54792e-10
-1.05183e-10
-4.24056e-10
-1.03866e-10
-3.93777e-10
-1.02277e-10
-3.64034e-10
-1.00407e-10
-3.34909e-10
-9.82482e-11
-3.06486e-10
-9.57948e-11
-2.78849e-10
-9.30408e-11
-2.52083e-10
-8.99823e-11
-2.26275e-10
-8.66167e-11
-2.01509e-10
-8.29435e-11
-1.77871e-10
-7.89651e-11
-1.55441e-10
-7.46862e-11
-1.34301e-10
-7.01152e-11
-1.14525e-10
-6.5264e-11
-9.61834e-11
-6.01488e-11
-7.93406e-11
-5.47915e-11
-6.40507e-11
-4.92202e-11
-5.03575e-11
-4.3471e-11
-3.82918e-11
-3.75896e-11
-2.7869e-11
-3.16327e-11
-1.90865e-11
-2.56708e-11
-1.19198e-11
-1.97897e-11
-6.31979e-12
-1.40942e-11
-2.2076e-12
-8.71115e-12
5.29182e-13
-3.79345e-12
2.04131e-12
4.76277e-13
2.52274e-12
3.88114e-12
2.21695e-12
6.1675e-12
1.42545e-12
7.04341e-12
5.2318e-13
6.16464e-12
3.03874e-12
8.02912e-14
-8.19992e-13
3.2386e-14
-2.10535e-12
-4.84581e-13
-5.06403e-12
-1.65625e-12
-6.18436e-12
-3.64725e-12
-4.22516e-12
-6.68385e-12
2.26652e-13
-1.09985e-11
6.30686e-12
-1.67951e-11
1.33596e-11
-2.42334e-11
2.09691e-11
-3.34207e-11
2.88753e-11
-4.44258e-11
3.69154e-11
-5.72817e-11
4.49746e-11
-7.19917e-11
5.29626e-11
-8.85408e-11
6.08095e-11
-1.06892e-10
6.84538e-11
-1.26994e-10
7.58425e-11
-1.48787e-10
8.29364e-11
-1.72198e-10
8.96999e-11
-1.97147e-10
9.6106e-11
-2.2355e-10
1.02135e-10
-2.51317e-10
1.07771e-10
-2.80353e-10
1.13005e-10
-3.10564e-10
1.17832e-10
-3.41854e-10
1.22249e-10
-3.74127e-10
1.26257e-10
-4.07284e-10
1.29857e-10
-4.41228e-10
1.33057e-10
-4.75863e-10
1.35864e-10
-5.11096e-10
1.38289e-10
-5.46839e-10
1.40341e-10
-5.83003e-10
1.4203e-10
-6.19501e-10
1.43367e-10
-6.5625e-10
1.44365e-10
-6.93167e-10
1.45038e-10
-7.30174e-10
1.454e-10
-7.67197e-10
1.45464e-10
-8.04167e-10
1.45242e-10
-8.41015e-10
1.44749e-10
-8.77675e-10
1.43995e-10
-9.14084e-10
1.42995e-10
-9.50182e-10
1.41762e-10
-9.85916e-10
1.40307e-10
-1.02123e-09
1.38642e-10
-1.05608e-09
1.36779e-10
-1.09041e-09
1.34728e-10
-1.12417e-09
1.325e-10
-1.15734e-09
1.30106e-10
-1.18985e-09
1.27554e-10
-1.22169e-09
1.24854e-10
-1.25281e-09
1.22015e-10
-1.28317e-09
1.19045e-10
-1.31276e-09
1.15953e-10
-1.34152e-09
1.12745e-10
-1.36945e-09
1.09429e-10
-1.39651e-09
1.06011e-10
-1.42268e-09
1.02498e-10
-1.44793e-09
9.88958e-11
-1.47224e-09
9.52109e-11
-1.4956e-09
9.14477e-11
-1.51798e-09
8.76112e-11
-1.53937e-09
8.37067e-11
-1.55974e-09
7.97391e-11
-1.57909e-09
7.57123e-11
-1.5974e-09
7.16298e-11
-1.61465e-09
6.74954e-11
-1.63084e-09
6.33135e-11
-1.64594e-09
5.9088e-11
-1.65997e-09
5.48223e-11
-1.67289e-09
5.05199e-11
-1.68471e-09
4.61845e-11
-1.69541e-09
4.18193e-11
-1.70499e-09
3.74273e-11
-1.71345e-09
3.30117e-11
-1.72077e-09
2.85757e-11
-1.72695e-09
2.41222e-11
-1.73199e-09
1.96539e-11
-1.73588e-09
1.51739e-11
-1.73863e-09
1.06849e-11
-1.74023e-09
6.1898e-12
-1.74068e-09
1.69099e-12
-1.73998e-09
-2.80825e-12
-1.73813e-09
-7.30476e-12
-1.73513e-09
-1.17961e-11
-1.73098e-09
-1.62803e-11
-1.72569e-09
-2.07546e-11
-1.71926e-09
-2.52157e-11
-1.71169e-09
-2.966e-11
-1.70299e-09
-3.40845e-11
-1.69317e-09
-3.84867e-11
-1.68223e-09
-4.28639e-11
-1.67018e-09
-4.72127e-11
-1.65702e-09
-5.15294e-11
-1.64277e-09
-5.58106e-11
-1.62744e-09
-6.00529e-11
-1.61103e-09
-6.42533e-11
-1.59356e-09
-6.84085e-11
-1.57505e-09
-7.25149e-11
-1.55549e-09
-7.65685e-11
-1.53492e-09
-8.05651e-11
-1.51334e-09
-8.45001e-11
-1.49077e-09
-8.83694e-11
-1.46724e-09
-9.21691e-11
-1.44275e-09
-9.58947e-11
-1.41734e-09
-9.95408e-11
-1.39101e-09
-1.03101e-10
-1.3638e-09
-1.06571e-10
-1.33573e-09
-1.09944e-10
-1.30683e-09
-1.13214e-10
-1.27713e-09
-1.16376e-10
-1.24665e-09
-1.1942e-10
-1.21543e-09
-1.2234e-10
-1.1835e-09
-1.25127e-10
-1.1509e-09
-1.27773e-10
-1.11767e-09
-1.3027e-10
-1.08384e-09
-1.32609e-10
-1.04946e-09
-1.34781e-10
-1.01457e-09
-1.36775e-10
-9.7923e-10
-1.38581e-10
-9.43482e-10
-1.40186e-10
-9.0738e-10
-1.41582e-10
-8.70982e-10
-1.42756e-10
-8.34346e-10
-1.43695e-10
-7.97535e-10
-1.44387e-10
-7.60612e-10
-1.44819e-10
-7.23647e-10
-1.44978e-10
-6.86711e-10
-1.44851e-10
-6.49877e-10
-1.44426e-10
-6.13223e-10
-1.4369e-10
-5.76829e-10
-1.4263e-10
-5.4078e-10
-1.41233e-10
-5.05159e-10
-1.39487e-10
-4.70056e-10
-1.3738e-10
-4.35561e-10
-1.34902e-10
-4.01766e-10
-1.32043e-10
-3.68764e-10
-1.28795e-10
-3.36652e-10
-1.25153e-10
-3.05524e-10
-1.21109e-10
-2.75477e-10
-1.16663e-10
-2.46606e-10
-1.11814e-10
-2.19005e-10
-1.06566e-10
-1.92764e-10
-1.00926e-10
-1.67972e-10
-9.49064e-11
-1.44712e-10
-8.85234e-11
-1.23062e-10
-8.17993e-11
-1.0309e-10
-7.47635e-11
-8.48568e-11
-6.74541e-11
-6.84089e-11
-5.9919e-11
-5.37806e-11
-5.22182e-11
-4.0989e-11
-4.44247e-11
-3.00319e-11
-3.66281e-11
-2.08852e-11
-2.89369e-11
-1.3499e-11
-2.1481e-11
-7.79348e-12
-1.44169e-11
-3.65612e-12
-7.93081e-12
-9.36823e-13
-2.24283e-12
5.56418e-13
2.38826e-12
1.06335e-12
5.66091e-12
8.79558e-13
7.22749e-12
3.69874e-13
6.67461e-12
3.40879e-12
2.97713e-14
-8.49436e-13
-2.52718e-13
-1.82231e-12
-1.29913e-12
-4.01855e-12
-3.34137e-12
-4.14169e-12
-6.52533e-12
-1.04144e-12
-1.10165e-11
4.71803e-12
-1.70049e-11
1.22955e-11
-2.46638e-11
2.10189e-11
-3.41356e-11
3.04406e-11
-4.55239e-11
4.02635e-11
-5.88941e-11
5.02856e-11
-7.42777e-11
6.03587e-11
-9.16821e-11
7.0367e-11
-1.11087e-10
8.02152e-11
-1.32458e-10
8.98237e-11
-1.5574e-10
9.91253e-11
-1.80869e-10
1.08065e-10
-2.07768e-10
1.16598e-10
-2.36351e-10
1.2469e-10
-2.66528e-10
1.32312e-10
-2.98202e-10
1.39445e-10
-3.3127e-10
1.46074e-10
-3.6563e-10
1.52192e-10
-4.01175e-10
1.57795e-10
-4.37801e-10
1.62883e-10
-4.75403e-10
1.67459e-10
-5.13874e-10
1.71529e-10
-5.5311e-10
1.751e-10
-5.93006e-10
1.78185e-10
-6.33462e-10
1.80797e-10
-6.7438e-10
1.82948e-10
-7.15666e-10
1.84653e-10
-7.57228e-10
1.85927e-10
-7.98976e-10
1.86786e-10
-8.40821e-10
1.87246e-10
-8.82681e-10
1.87324e-10
-9.24477e-10
1.87038e-10
-9.66132e-10
1.86404e-10
-1.00757e-09
1.85437e-10
-1.04873e-09
1.84154e-10
-1.08954e-09
1.82571e-10
-1.12994e-09
1.80704e-10
-1.16986e-09
1.78567e-10
-1.20926e-09
1.76175e-10
-1.24807e-09
1.73541e-10
-1.28625e-09
1.7068e-10
-1.32375e-09
1.67604e-10
-1.36052e-09
1.64325e-10
-1.39652e-09
1.60855e-10