/*--------------------------------*- C++ -*----------------------------------*\
  =========                 |
  \\      /  F ield         | OpenFOAM: The Open Source CFD Toolbox
   \\    /   O peration     | Website:  https://openfoam.org
    \\  /    A nd           | Version:  7
     \\/     M anipulation  |
\*---------------------------------------------------------------------------*/
FoamFile
{
    version     2.0;
    format      ascii;
    class       volVectorField;
    location    "0.1";
    object      U;
}
// * * * * * * * * * * * * * * * * * * * * * * * * * * * * * * * * * * * * * //

dimensions      [0 1 -1 0 0 0 0];

internalField   nonuniform List<vector> 
51200
(
(1.09266e-07 1.01956e-07 0)
(7.92543e-09 9.66493e-08 0)
(1.69543e-07 -5.34328e-08 0)
(3.21101e-07 -7.19986e-08 0)
(5.57439e-07 -6.34217e-08 0)
(7.3789e-07 -4.56717e-08 0)
(8.58005e-07 -2.80008e-08 0)
(9.24823e-07 -1.30314e-08 0)
(9.41459e-07 -1.11931e-10 0)
(9.12095e-07 1.23526e-08 0)
(8.41719e-07 2.35316e-08 0)
(7.32906e-07 3.42629e-08 0)
(5.8727e-07 4.41182e-08 0)
(4.0639e-07 5.52503e-08 0)
(1.9209e-07 6.56196e-08 0)
(-5.51752e-08 7.44898e-08 0)
(-3.31574e-07 8.3008e-08 0)
(-6.36958e-07 9.05436e-08 0)
(-9.7021e-07 9.7728e-08 0)
(-1.32735e-06 1.04805e-07 0)
(-1.70811e-06 1.10113e-07 0)
(-2.11036e-06 1.14148e-07 0)
(-2.53097e-06 1.18832e-07 0)
(-2.97017e-06 1.23924e-07 0)
(-3.42591e-06 1.28348e-07 0)
(-3.89492e-06 1.31931e-07 0)
(-4.37618e-06 1.34969e-07 0)
(-4.86836e-06 1.38157e-07 0)
(-5.36948e-06 1.42887e-07 0)
(-5.87908e-06 1.49055e-07 0)
(-6.39616e-06 1.53691e-07 0)
(-6.91826e-06 1.53885e-07 0)
(-7.44325e-06 1.50399e-07 0)
(-7.97004e-06 1.46296e-07 0)
(-8.49807e-06 1.44173e-07 0)
(-9.02684e-06 1.45251e-07 0)
(-9.55536e-06 1.48338e-07 0)
(-1.00825e-05 1.50321e-07 0)
(-1.0607e-05 1.49383e-07 0)
(-1.11275e-05 1.46604e-07 0)
(-1.16434e-05 1.4409e-07 0)
(-1.21546e-05 1.42622e-07 0)
(-1.26602e-05 1.41514e-07 0)
(-1.3159e-05 1.39958e-07 0)
(-1.36504e-05 1.37624e-07 0)
(-1.4134e-05 1.34863e-07 0)
(-1.46089e-05 1.32187e-07 0)
(-1.50745e-05 1.29567e-07 0)
(-1.55304e-05 1.26635e-07 0)
(-1.59757e-05 1.23469e-07 0)
(-1.64101e-05 1.20454e-07 0)
(-1.68335e-05 1.17443e-07 0)
(-1.72454e-05 1.14087e-07 0)
(-1.76453e-05 1.10495e-07 0)
(-1.80326e-05 1.06842e-07 0)
(-1.84072e-05 1.03081e-07 0)
(-1.87686e-05 9.92884e-08 0)
(-1.91166e-05 9.55545e-08 0)
(-1.94511e-05 9.16993e-08 0)
(-1.97717e-05 8.75699e-08 0)
(-2.00783e-05 8.33021e-08 0)
(-2.03705e-05 7.91782e-08 0)
(-2.06484e-05 7.53151e-08 0)
(-2.09121e-05 7.15749e-08 0)
(-2.11609e-05 6.77198e-08 0)
(-2.13946e-05 6.35118e-08 0)
(-2.16129e-05 5.88373e-08 0)
(-2.18156e-05 5.39106e-08 0)
(-2.20025e-05 4.91955e-08 0)
(-2.21737e-05 4.49385e-08 0)
(-2.23293e-05 4.0861e-08 0)
(-2.24692e-05 3.6521e-08 0)
(-2.25934e-05 3.18612e-08 0)
(-2.27015e-05 2.7147e-08 0)
(-2.27936e-05 2.25731e-08 0)
(-2.28698e-05 1.81762e-08 0)
(-2.293e-05 1.39002e-08 0)
(-2.29742e-05 9.58172e-09 0)
(-2.30023e-05 5.05138e-09 0)
(-2.30143e-05 3.44573e-10 0)
(-2.30104e-05 -4.27503e-09 0)
(-2.29906e-05 -8.60899e-09 0)
(-2.29551e-05 -1.27684e-08 0)
(-2.29037e-05 -1.70666e-08 0)
(-2.2836e-05 -2.16272e-08 0)
(-2.27521e-05 -2.63202e-08 0)
(-2.26523e-05 -3.10039e-08 0)
(-2.25366e-05 -3.5607e-08 0)
(-2.24051e-05 -4.00469e-08 0)
(-2.22577e-05 -4.42883e-08 0)
(-2.20945e-05 -4.84831e-08 0)
(-2.19158e-05 -5.2852e-08 0)
(-2.17218e-05 -5.73952e-08 0)
(-2.15128e-05 -6.18426e-08 0)
(-2.12887e-05 -6.59293e-08 0)
(-2.10498e-05 -6.97072e-08 0)
(-2.07961e-05 -7.35252e-08 0)
(-2.05277e-05 -7.76406e-08 0)
(-2.02447e-05 -8.19449e-08 0)
(-1.99475e-05 -8.61343e-08 0)
(-1.96363e-05 -9.00419e-08 0)
(-1.93116e-05 -9.37284e-08 0)
(-1.89735e-05 -9.73259e-08 0)
(-1.86223e-05 -1.00892e-07 0)
(-1.82585e-05 -1.04394e-07 0)
(-1.78822e-05 -1.07763e-07 0)
(-1.74937e-05 -1.10963e-07 0)
(-1.70933e-05 -1.14059e-07 0)
(-1.66811e-05 -1.17208e-07 0)
(-1.62576e-05 -1.205e-07 0)
(-1.58235e-05 -1.23765e-07 0)
(-1.53792e-05 -1.26643e-07 0)
(-1.49254e-05 -1.28929e-07 0)
(-1.44625e-05 -1.3081e-07 0)
(-1.39911e-05 -1.32728e-07 0)
(-1.35114e-05 -1.34975e-07 0)
(-1.3024e-05 -1.37436e-07 0)
(-1.25295e-05 -1.39729e-07 0)
(-1.20288e-05 -1.41548e-07 0)
(-1.15226e-05 -1.42848e-07 0)
(-1.10118e-05 -1.43801e-07 0)
(-1.04969e-05 -1.44609e-07 0)
(-9.97887e-06 -1.4537e-07 0)
(-9.45864e-06 -1.46029e-07 0)
(-8.93733e-06 -1.46399e-07 0)
(-8.41616e-06 -1.46277e-07 0)
(-7.89626e-06 -1.45613e-07 0)
(-7.37871e-06 -1.4455e-07 0)
(-6.86461e-06 -1.43272e-07 0)
(-6.35514e-06 -1.41825e-07 0)
(-5.85152e-06 -1.40089e-07 0)
(-5.3551e-06 -1.37891e-07 0)
(-4.86735e-06 -1.35138e-07 0)
(-4.38987e-06 -1.31858e-07 0)
(-3.92431e-06 -1.28117e-07 0)
(-3.47235e-06 -1.23932e-07 0)
(-3.03566e-06 -1.19254e-07 0)
(-2.61591e-06 -1.14021e-07 0)
(-2.21483e-06 -1.08203e-07 0)
(-1.83415e-06 -1.01848e-07 0)
(-1.47551e-06 -9.50787e-08 0)
(-1.14049e-06 -8.79963e-08 0)
(-8.30616e-07 -8.05451e-08 0)
(-5.47528e-07 -7.25377e-08 0)
(-2.9293e-07 -6.38616e-08 0)
(-6.84348e-08 -5.45986e-08 0)
(1.24523e-07 -4.49034e-08 0)
(2.84632e-07 -3.48267e-08 0)
(4.1072e-07 -2.43047e-08 0)
(5.01854e-07 -1.33198e-08 0)
(5.57586e-07 -2.09722e-09 0)
(5.78236e-07 8.966e-09 0)
(5.65012e-07 1.95075e-08 0)
(5.20207e-07 2.91558e-08 0)
(4.47618e-07 3.73137e-08 0)
(3.53041e-07 4.30502e-08 0)
(2.44959e-07 4.48925e-08 0)
(1.36061e-07 4.05716e-08 0)
(4.63704e-08 2.71706e-08 0)
(5.25632e-09 4.94302e-09 0)
(1.48561e-07 -7.6203e-08 0)
(2.38253e-07 -2.63066e-08 0)
(4.03734e-07 -3.17967e-07 0)
(7.49306e-07 -3.97734e-07 0)
(1.13938e-06 -3.52966e-07 0)
(1.45312e-06 -2.60393e-07 0)
(1.65503e-06 -1.56908e-07 0)
(1.7402e-06 -5.90259e-08 0)
(1.70849e-06 2.92593e-08 0)
(1.56552e-06 1.11912e-07 0)
(1.31648e-06 1.89094e-07 0)
(9.65522e-07 2.6158e-07 0)
(5.16535e-07 3.31087e-07 0)
(-2.76269e-08 3.98489e-07 0)
(-6.64409e-07 4.62499e-07 0)
(-1.38704e-06 5.24545e-07 0)
(-2.19436e-06 5.82177e-07 0)
(-3.08174e-06 6.35947e-07 0)
(-4.04285e-06 6.87454e-07 0)
(-5.07569e-06 7.35255e-07 0)
(-6.17379e-06 7.78798e-07 0)
(-7.33114e-06 8.18965e-07 0)
(-8.54548e-06 8.54934e-07 0)
(-9.81109e-06 8.88001e-07 0)
(-1.11222e-05 9.18165e-07 0)
(-1.24749e-05 9.44631e-07 0)
(-1.38638e-05 9.67096e-07 0)
(-1.52846e-05 9.86196e-07 0)
(-1.67341e-05 1.00333e-06 0)
(-1.82079e-05 1.01952e-06 0)
(-1.97015e-05 1.03382e-06 0)
(-2.12102e-05 1.04419e-06 0)
(-2.27297e-05 1.04978e-06 0)
(-2.42571e-05 1.05133e-06 0)
(-2.57897e-05 1.05048e-06 0)
(-2.73246e-05 1.04942e-06 0)
(-2.88586e-05 1.04865e-06 0)
(-3.0388e-05 1.04634e-06 0)
(-3.19097e-05 1.04098e-06 0)
(-3.34213e-05 1.03267e-06 0)
(-3.49207e-05 1.02225e-06 0)
(-3.64058e-05 1.01092e-06 0)
(-3.78742e-05 9.98968e-07 0)
(-3.93234e-05 9.85704e-07 0)
(-4.07513e-05 9.70569e-07 0)
(-4.2156e-05 9.53817e-07 0)
(-4.3536e-05 9.359e-07 0)
(-4.48894e-05 9.16917e-07 0)
(-4.62146e-05 8.96847e-07 0)
(-4.75101e-05 8.7586e-07 0)
(-4.87746e-05 8.54155e-07 0)
(-5.00069e-05 8.31637e-07 0)
(-5.12057e-05 8.08119e-07 0)
(-5.23699e-05 7.83732e-07 0)
(-5.34982e-05 7.586e-07 0)
(-5.45897e-05 7.32756e-07 0)
(-5.56436e-05 7.06435e-07 0)
(-5.6659e-05 6.79805e-07 0)
(-5.76352e-05 6.52694e-07 0)
(-5.85712e-05 6.25022e-07 0)
(-5.94664e-05 5.96869e-07 0)
(-6.03201e-05 5.68244e-07 0)
(-6.11321e-05 5.39254e-07 0)
(-6.19016e-05 5.10091e-07 0)
(-6.2628e-05 4.80681e-07 0)
(-6.33105e-05 4.50668e-07 0)
(-6.39488e-05 4.19872e-07 0)
(-6.45425e-05 3.88565e-07 0)
(-6.50911e-05 3.57194e-07 0)
(-6.55941e-05 3.25994e-07 0)
(-6.60515e-05 2.94883e-07 0)
(-6.64632e-05 2.6362e-07 0)
(-6.68289e-05 2.32097e-07 0)
(-6.71483e-05 2.00348e-07 0)
(-6.7421e-05 1.68358e-07 0)
(-6.76471e-05 1.36201e-07 0)
(-6.78267e-05 1.04152e-07 0)
(-6.79595e-05 7.23698e-08 0)
(-6.80454e-05 4.06989e-08 0)
(-6.80843e-05 8.91125e-09 0)
(-6.80764e-05 -2.30046e-08 0)
(-6.80217e-05 -5.49083e-08 0)
(-6.79205e-05 -8.6701e-08 0)
(-6.77726e-05 -1.18402e-07 0)
(-6.75779e-05 -1.50079e-07 0)
(-6.73363e-05 -1.81844e-07 0)
(-6.70482e-05 -2.13802e-07 0)
(-6.67139e-05 -2.45855e-07 0)
(-6.63337e-05 -2.77654e-07 0)
(-6.59074e-05 -3.08895e-07 0)
(-6.54353e-05 -3.39655e-07 0)
(-6.49178e-05 -3.70256e-07 0)
(-6.43556e-05 -4.0084e-07 0)
(-6.37492e-05 -4.31214e-07 0)
(-6.30988e-05 -4.6108e-07 0)
(-6.24048e-05 -4.90384e-07 0)
(-6.16677e-05 -5.19377e-07 0)
(-6.08879e-05 -5.48289e-07 0)
(-6.0066e-05 -5.77046e-07 0)
(-5.92028e-05 -6.05314e-07 0)
(-5.82989e-05 -6.32805e-07 0)
(-5.73548e-05 -6.59508e-07 0)
(-5.63712e-05 -6.8562e-07 0)
(-5.53492e-05 -7.11337e-07 0)
(-5.42898e-05 -7.36706e-07 0)
(-5.31939e-05 -7.61567e-07 0)
(-5.20625e-05 -7.85664e-07 0)
(-5.0896e-05 -8.08867e-07 0)
(-4.96954e-05 -8.3126e-07 0)
(-4.84621e-05 -8.53037e-07 0)
(-4.71974e-05 -8.74193e-07 0)
(-4.59029e-05 -8.94383e-07 0)
(-4.458e-05 -9.13225e-07 0)
(-4.32301e-05 -9.30652e-07 0)
(-4.18547e-05 -9.46915e-07 0)
(-4.04555e-05 -9.62319e-07 0)
(-3.90343e-05 -9.76904e-07 0)
(-3.75929e-05 -9.90397e-07 0)
(-3.61333e-05 -1.00245e-06 0)
(-3.46575e-05 -1.01281e-06 0)
(-3.3168e-05 -1.02136e-06 0)
(-3.16671e-05 -1.0281e-06 0)
(-3.01574e-05 -1.03305e-06 0)
(-2.86418e-05 -1.03618e-06 0)
(-2.71231e-05 -1.03735e-06 0)
(-2.56044e-05 -1.0363e-06 0)
(-2.40888e-05 -1.03285e-06 0)
(-2.25797e-05 -1.02698e-06 0)
(-2.10803e-05 -1.01882e-06 0)
(-1.95944e-05 -1.00836e-06 0)
(-1.81259e-05 -9.95358e-07 0)
(-1.66784e-05 -9.79507e-07 0)
(-1.52561e-05 -9.60555e-07 0)
(-1.38631e-05 -9.38417e-07 0)
(-1.25039e-05 -9.13102e-07 0)
(-1.11833e-05 -8.8458e-07 0)
(-9.90589e-06 -8.52751e-07 0)
(-8.6763e-06 -8.1752e-07 0)
(-7.4992e-06 -7.78864e-07 0)
(-6.37932e-06 -7.36839e-07 0)
(-5.32137e-06 -6.91574e-07 0)
(-4.33004e-06 -6.43206e-07 0)
(-3.40996e-06 -5.91784e-07 0)
(-2.56565e-06 -5.37241e-07 0)
(-1.8014e-06 -4.79507e-07 0)
(-1.12111e-06 -4.18676e-07 0)
(-5.28192e-07 -3.5507e-07 0)
(-2.56215e-08 -2.89144e-07 0)
(3.8415e-07 -2.21456e-07 0)
(6.99502e-07 -1.52739e-07 0)
(9.20226e-07 -8.40727e-08 0)
(1.04803e-06 -1.69964e-08 0)
(1.08695e-06 4.65615e-08 0)
(1.04384e-06 1.04176e-07 0)
(9.29051e-07 1.52504e-07 0)
(7.57355e-07 1.86945e-07 0)
(5.48723e-07 2.01402e-07 0)
(3.29648e-07 1.87984e-07 0)
(1.38238e-07 1.37492e-07 0)
(2.79726e-08 4.70698e-08 0)
(2.52197e-08 -8.85412e-08 0)
(4.67484e-08 -2.35468e-07 0)
(2.17513e-07 -6.14246e-07 0)
(5.18179e-07 -7.89955e-07 0)
(8.8245e-07 -7.27416e-07 0)
(1.18175e-06 -5.39286e-07 0)
(1.36075e-06 -3.03589e-07 0)
(1.39383e-06 -6.69679e-08 0)
(1.27086e-06 1.63223e-07 0)
(9.884e-07 3.81189e-07 0)
(5.47041e-07 5.9057e-07 0)
(-4.81389e-08 7.91727e-07 0)
(-7.95094e-07 9.85918e-07 0)
(-1.69168e-06 1.17213e-06 0)
(-2.73053e-06 1.35325e-06 0)
(-3.90904e-06 1.52568e-06 0)
(-5.22012e-06 1.68908e-06 0)
(-6.65567e-06 1.84469e-06 0)
(-8.21246e-06 1.9901e-06 0)
(-9.88189e-06 2.12634e-06 0)
(-1.16555e-05 2.25407e-06 0)
(-1.35274e-05 2.3706e-06 0)
(-1.54887e-05 2.47715e-06 0)
(-1.75321e-05 2.57465e-06 0)
(-1.96516e-05 2.66218e-06 0)
(-2.18384e-05 2.74047e-06 0)
(-2.40848e-05 2.80934e-06 0)
(-2.63837e-05 2.86796e-06 0)
(-2.87278e-05 2.91758e-06 0)
(-3.11115e-05 2.95988e-06 0)
(-3.3529e-05 2.99539e-06 0)
(-3.59733e-05 3.02414e-06 0)
(-3.84374e-05 3.04554e-06 0)
(-4.09153e-05 3.05894e-06 0)
(-4.34014e-05 3.06465e-06 0)
(-4.58909e-05 3.06383e-06 0)
(-4.83793e-05 3.0576e-06 0)
(-5.08616e-05 3.04641e-06 0)
(-5.33328e-05 3.02982e-06 0)
(-5.57882e-05 3.00759e-06 0)
(-5.82236e-05 2.98035e-06 0)
(-6.06357e-05 2.94864e-06 0)
(-6.30212e-05 2.91278e-06 0)
(-6.53759e-05 2.87286e-06 0)
(-6.76962e-05 2.82897e-06 0)
(-6.99794e-05 2.78111e-06 0)
(-7.22226e-05 2.7296e-06 0)
(-7.44231e-05 2.67486e-06 0)
(-7.65783e-05 2.61701e-06 0)
(-7.86857e-05 2.55636e-06 0)
(-8.0743e-05 2.49324e-06 0)
(-8.27481e-05 2.42764e-06 0)
(-8.46992e-05 2.35952e-06 0)
(-8.65941e-05 2.28909e-06 0)
(-8.84312e-05 2.21655e-06 0)
(-9.02089e-05 2.142e-06 0)
(-9.19257e-05 2.06572e-06 0)
(-9.35801e-05 1.98797e-06 0)
(-9.51708e-05 1.90882e-06 0)
(-9.66966e-05 1.82833e-06 0)
(-9.81561e-05 1.74652e-06 0)
(-9.95483e-05 1.66332e-06 0)
(-0.000100872 1.57884e-06 0)
(-0.000102127 1.49326e-06 0)
(-0.000103311 1.40661e-06 0)
(-0.000104424 1.31881e-06 0)
(-0.000105466 1.22985e-06 0)
(-0.000106435 1.13998e-06 0)
(-0.000107331 1.04952e-06 0)
(-0.000108154 9.58669e-07 0)
(-0.000108902 8.67385e-07 0)
(-0.000109576 7.75631e-07 0)
(-0.000110175 6.83511e-07 0)
(-0.000110698 5.91061e-07 0)
(-0.000111146 4.98102e-07 0)
(-0.000111517 4.04599e-07 0)
(-0.000111813 3.10894e-07 0)
(-0.000112032 2.17344e-07 0)
(-0.000112175 1.24028e-07 0)
(-0.000112241 3.08297e-08 0)
(-0.00011223 -6.24403e-08 0)
(-0.000112143 -1.55888e-07 0)
(-0.00011198 -2.49427e-07 0)
(-0.00011174 -3.42812e-07 0)
(-0.000111424 -4.3585e-07 0)
(-0.000111032 -5.28607e-07 0)
(-0.000110564 -6.21313e-07 0)
(-0.000110021 -7.13999e-07 0)
(-0.000109402 -8.06334e-07 0)
(-0.000108709 -8.97872e-07 0)
(-0.000107942 -9.88439e-07 0)
(-0.000107101 -1.07817e-06 0)
(-0.000106186 -1.16724e-06 0)
(-0.0001052 -1.25562e-06 0)
(-0.000104141 -1.34315e-06 0)
(-0.00010301 -1.42966e-06 0)
(-0.00010181 -1.51515e-06 0)
(-0.00010054 -1.59967e-06 0)
(-9.92021e-05 -1.68314e-06 0)
(-9.77964e-05 -1.76533e-06 0)
(-9.6324e-05 -1.84598e-06 0)
(-9.47861e-05 -1.92491e-06 0)
(-9.31838e-05 -2.00214e-06 0)
(-9.15188e-05 -2.0778e-06 0)
(-8.97923e-05 -2.15203e-06 0)
(-8.80059e-05 -2.22477e-06 0)
(-8.6161e-05 -2.29566e-06 0)
(-8.4259e-05 -2.36428e-06 0)
(-8.23019e-05 -2.43041e-06 0)
(-8.02919e-05 -2.49402e-06 0)
(-7.82308e-05 -2.55512e-06 0)
(-7.61209e-05 -2.61356e-06 0)
(-7.3964e-05 -2.66906e-06 0)
(-7.17628e-05 -2.7214e-06 0)
(-6.952e-05 -2.77046e-06 0)
(-6.72386e-05 -2.81615e-06 0)
(-6.49214e-05 -2.8583e-06 0)
(-6.25715e-05 -2.89665e-06 0)
(-6.01922e-05 -2.93091e-06 0)
(-5.77867e-05 -2.96082e-06 0)
(-5.53589e-05 -2.98604e-06 0)
(-5.29127e-05 -3.0062e-06 0)
(-5.04527e-05 -3.02093e-06 0)
(-4.79831e-05 -3.02995e-06 0)
(-4.55085e-05 -3.03308e-06 0)
(-4.30335e-05 -3.03004e-06 0)
(-4.05633e-05 -3.02049e-06 0)
(-3.81033e-05 -3.00415e-06 0)
(-3.56591e-05 -2.98082e-06 0)
(-3.32367e-05 -2.95029e-06 0)
(-3.08421e-05 -2.9122e-06 0)
(-2.84816e-05 -2.86603e-06 0)
(-2.61616e-05 -2.81135e-06 0)
(-2.38887e-05 -2.74786e-06 0)
(-2.16701e-05 -2.6754e-06 0)
(-1.95128e-05 -2.59379e-06 0)
(-1.74242e-05 -2.50286e-06 0)
(-1.54116e-05 -2.40246e-06 0)
(-1.34822e-05 -2.29252e-06 0)
(-1.16435e-05 -2.1731e-06 0)
(-9.90307e-06 -2.04434e-06 0)
(-8.26823e-06 -1.90644e-06 0)
(-6.74618e-06 -1.75962e-06 0)
(-5.34379e-06 -1.60414e-06 0)
(-4.06747e-06 -1.44033e-06 0)
(-2.92297e-06 -1.26878e-06 0)
(-1.91527e-06 -1.09036e-06 0)
(-1.04845e-06 -9.06316e-07 0)
(-3.25528e-07 -7.18394e-07 0)
(2.51954e-07 -5.28881e-07 0)
(6.84522e-07 -3.40808e-07 0)
(9.75448e-07 -1.58143e-07 0)
(1.13119e-06 1.41332e-08 0)
(1.162e-06 1.69706e-07 0)
(1.08294e-06 3.00394e-07 0)
(9.14773e-07 3.95711e-07 0)
(6.84455e-07 4.42645e-07 0)
(4.26067e-07 4.25789e-07 0)
(1.88043e-07 3.28563e-07 0)
(4.08687e-08 1.37485e-07 0)
(1.45801e-08 -1.48615e-07 0)
(-8.75527e-09 -3.18096e-07 0)
(6.93635e-08 -8.18804e-07 0)
(2.48017e-07 -1.08637e-06 0)
(4.7347e-07 -1.02349e-06 0)
(6.5352e-07 -7.44734e-07 0)
(7.14969e-07 -3.73375e-07 0)
(6.18664e-07 3.11978e-08 0)
(3.41484e-07 4.36084e-07 0)
(-1.3117e-07 8.34638e-07 0)
(-8.01079e-07 1.22493e-06 0)
(-1.67096e-06 1.60587e-06 0)
(-2.73928e-06 1.97531e-06 0)
(-4.00034e-06 2.33439e-06 0)
(-5.45182e-06 2.68022e-06 0)
(-7.08744e-06 3.01189e-06 0)
(-8.89827e-06 3.32968e-06 0)
(-1.08781e-05 3.62942e-06 0)
(-1.30171e-05 3.91149e-06 0)
(-1.53059e-05 4.17658e-06 0)
(-1.7737e-05 4.42302e-06 0)
(-2.02993e-05 4.65104e-06 0)
(-2.2982e-05 4.86076e-06 0)
(-2.57761e-05 5.05063e-06 0)
(-2.86712e-05 5.22241e-06 0)
(-3.16579e-05 5.37702e-06 0)
(-3.47275e-05 5.51415e-06 0)
(-3.78691e-05 5.63409e-06 0)
(-4.10722e-05 5.73643e-06 0)
(-4.43278e-05 5.82108e-06 0)
(-4.76278e-05 5.88991e-06 0)
(-5.09644e-05 5.94468e-06 0)
(-5.43301e-05 5.98607e-06 0)
(-5.7717e-05 6.01437e-06 0)
(-6.11162e-05 6.02919e-06 0)
(-6.45196e-05 6.03047e-06 0)
(-6.79205e-05 6.0194e-06 0)
(-7.13129e-05 5.99714e-06 0)
(-7.46913e-05 5.96454e-06 0)
(-7.80493e-05 5.92212e-06 0)
(-8.13808e-05 5.86996e-06 0)
(-8.46805e-05 5.80817e-06 0)
(-8.79434e-05 5.73772e-06 0)
(-9.11648e-05 5.65931e-06 0)
(-9.434e-05 5.5731e-06 0)
(-9.74649e-05 5.47943e-06 0)
(-0.000100535 5.3788e-06 0)
(-0.000103548 5.27158e-06 0)
(-0.000106499 5.15836e-06 0)
(-0.000109384 5.03968e-06 0)
(-0.000112202 4.91575e-06 0)
(-0.000114949 4.78678e-06 0)
(-0.000117621 4.65309e-06 0)
(-0.000120218 4.51498e-06 0)
(-0.000122735 4.37275e-06 0)
(-0.000125171 4.22667e-06 0)
(-0.000127524 4.077e-06 0)
(-0.000129792 3.92401e-06 0)
(-0.000131972 3.76797e-06 0)
(-0.000134064 3.60918e-06 0)
(-0.000136065 3.44777e-06 0)
(-0.000137975 3.28381e-06 0)
(-0.00013979 3.11743e-06 0)
(-0.000141511 2.94882e-06 0)
(-0.000143135 2.77801e-06 0)
(-0.000144662 2.60503e-06 0)
(-0.000146091 2.43011e-06 0)
(-0.000147421 2.25367e-06 0)
(-0.000148651 2.07596e-06 0)
(-0.000149781 1.89698e-06 0)
(-0.000150808 1.71678e-06 0)
(-0.000151734 1.53562e-06 0)
(-0.000152556 1.35373e-06 0)
(-0.000153275 1.17115e-06 0)
(-0.00015389 9.87773e-07 0)
(-0.000154401 8.03626e-07 0)
(-0.000154808 6.18953e-07 0)
(-0.00015511 4.34078e-07 0)
(-0.000155307 2.49268e-07 0)
(-0.000155398 6.46441e-08 0)
(-0.000155385 -1.19931e-07 0)
(-0.000155267 -3.04656e-07 0)
(-0.000155044 -4.8944e-07 0)
(-0.000154715 -6.7395e-07 0)
(-0.000154282 -8.57948e-07 0)
(-0.000153745 -1.04142e-06 0)
(-0.000153104 -1.22441e-06 0)
(-0.00015236 -1.40679e-06 0)
(-0.000151512 -1.58831e-06 0)
(-0.000150562 -1.76872e-06 0)
(-0.00014951 -1.94785e-06 0)
(-0.000148357 -2.12554e-06 0)
(-0.000147104 -2.30163e-06 0)
(-0.000145751 -2.47603e-06 0)
(-0.000144299 -2.64873e-06 0)
(-0.000142749 -2.81971e-06 0)
(-0.000141103 -2.98879e-06 0)
(-0.000139362 -3.15578e-06 0)
(-0.000137527 -3.32045e-06 0)
(-0.000135599 -3.4826e-06 0)
(-0.00013358 -3.64201e-06 0)
(-0.000131471 -3.79843e-06 0)
(-0.000129273 -3.95169e-06 0)
(-0.00012699 -4.10171e-06 0)
(-0.000124623 -4.24843e-06 0)
(-0.000122173 -4.39171e-06 0)
(-0.000119643 -4.53124e-06 0)
(-0.000117034 -4.66667e-06 0)
(-0.00011435 -4.7976e-06 0)
(-0.000111594 -4.92362e-06 0)
(-0.000108768 -5.04437e-06 0)
(-0.000105876 -5.15957e-06 0)
(-0.000102919 -5.26901e-06 0)
(-9.99013e-05 -5.37247e-06 0)
(-9.68267e-05 -5.46961e-06 0)
(-9.36993e-05 -5.56e-06 0)
(-9.0523e-05 -5.64313e-06 0)
(-8.73023e-05 -5.7185e-06 0)
(-8.40415e-05 -5.7856e-06 0)
(-8.07452e-05 -5.84398e-06 0)
(-7.74184e-05 -5.89317e-06 0)
(-7.40668e-05 -5.93261e-06 0)
(-7.06963e-05 -5.96167e-06 0)
(-6.73128e-05 -5.97966e-06 0)
(-6.39225e-05 -5.98596e-06 0)
(-6.05317e-05 -5.98011e-06 0)
(-5.71472e-05 -5.96158e-06 0)
(-5.37764e-05 -5.92983e-06 0)
(-5.04272e-05 -5.88431e-06 0)
(-4.71075e-05 -5.82444e-06 0)
(-4.38253e-05 -5.7496e-06 0)
(-4.0589e-05 -5.65912e-06 0)
(-3.74074e-05 -5.55235e-06 0)
(-3.42894e-05 -5.42877e-06 0)
(-3.12444e-05 -5.28794e-06 0)
(-2.82818e-05 -5.12949e-06 0)
(-2.54114e-05 -4.95311e-06 0)
(-2.26426e-05 -4.75857e-06 0)
(-1.99852e-05 -4.54582e-06 0)
(-1.7449e-05 -4.31492e-06 0)
(-1.50438e-05 -4.06605e-06 0)
(-1.27793e-05 -3.79951e-06 0)
(-1.06648e-05 -3.51586e-06 0)
(-8.70909e-06 -3.21588e-06 0)
(-6.92016e-06 -2.90059e-06 0)
(-5.30523e-06 -2.57135e-06 0)
(-3.8705e-06 -2.23003e-06 0)
(-2.62099e-06 -1.87916e-06 0)
(-1.56006e-06 -1.52218e-06 0)
(-6.8901e-07 -1.1635e-06 0)
(-6.56534e-09 -8.08718e-07 0)
(4.91774e-07 -4.64904e-07 0)
(8.14322e-07 -1.41e-07 0)
(9.73828e-07 1.51852e-07 0)
(9.88461e-07 3.99686e-07 0)
(8.82771e-07 5.85252e-07 0)
(6.87821e-07 6.87914e-07 0)
(4.42088e-07 6.83959e-07 0)
(2.00547e-07 5.47162e-07 0)
(4.4674e-08 2.46685e-07 0)
(1.86484e-08 -1.19484e-07 0)
(3.5631e-09 -3.31508e-07 0)
(3.02733e-08 -8.99341e-07 0)
(9.33975e-08 -1.23029e-06 0)
(1.6466e-07 -1.15269e-06 0)
(1.70899e-07 -7.90305e-07 0)
(4.97637e-08 -2.7453e-07 0)
(-2.42975e-07 3.07882e-07 0)
(-7.40539e-07 9.13701e-07 0)
(-1.45689e-06 1.52508e-06 0)
(-2.40577e-06 2.13258e-06 0)
(-3.59085e-06 2.73159e-06 0)
(-5.01099e-06 3.31962e-06 0)
(-6.66549e-06 3.89195e-06 0)
(-8.5485e-06 4.44496e-06 0)
(-1.06529e-05 4.9781e-06 0)
(-1.29728e-05 5.48717e-06 0)
(-1.54977e-05 5.97078e-06 0)
(-1.82167e-05 6.42751e-06 0)
(-2.11201e-05 6.85493e-06 0)
(-2.4196e-05 7.25329e-06 0)
(-2.74332e-05 7.62301e-06 0)
(-3.082e-05 7.96274e-06 0)
(-3.43435e-05 8.2725e-06 0)
(-3.79911e-05 8.55245e-06 0)
(-4.17514e-05 8.80264e-06 0)
(-4.56132e-05 9.02494e-06 0)
(-4.9565e-05 9.22086e-06 0)
(-5.35953e-05 9.3902e-06 0)
(-5.76918e-05 9.53272e-06 0)
(-6.18429e-05 9.64887e-06 0)
(-6.60384e-05 9.7394e-06 0)
(-7.02687e-05 9.8061e-06 0)
(-7.4525e-05 9.85111e-06 0)
(-7.87979e-05 9.87559e-06 0)
(-8.30775e-05 9.87988e-06 0)
(-8.73545e-05 9.86428e-06 0)
(-9.16209e-05 9.82931e-06 0)
(-9.58689e-05 9.77651e-06 0)
(-0.000100091 9.70738e-06 0)
(-0.000104282 9.62242e-06 0)
(-0.000108432 9.52232e-06 0)
(-0.000112537 9.4079e-06 0)
(-0.00011659 9.27997e-06 0)
(-0.000120585 9.13925e-06 0)
(-0.000124517 8.98654e-06 0)
(-0.000128382 8.82249e-06 0)
(-0.000132173 8.64769e-06 0)
(-0.000135888 8.46295e-06 0)
(-0.000139521 8.26898e-06 0)
(-0.000143068 8.06628e-06 0)
(-0.000146527 7.85537e-06 0)
(-0.000149892 7.63678e-06 0)
(-0.000153162 7.41085e-06 0)
(-0.000156333 7.1781e-06 0)
(-0.000159402 6.93908e-06 0)
(-0.000162366 6.69419e-06 0)
(-0.000165223 6.44377e-06 0)
(-0.00016797 6.18817e-06 0)
(-0.000170606 5.92769e-06 0)
(-0.000173128 5.66264e-06 0)
(-0.000175534 5.39344e-06 0)
(-0.000177822 5.12048e-06 0)
(-0.00017999 4.84394e-06 0)
(-0.000182038 4.5638e-06 0)
(-0.000183963 4.28019e-06 0)
(-0.000185765 3.99354e-06 0)
(-0.000187442 3.70435e-06 0)
(-0.000188993 3.4129e-06 0)
(-0.000190417 3.11925e-06 0)
(-0.000191713 2.82362e-06 0)
(-0.00019288 2.52631e-06 0)
(-0.000193918 2.2275e-06 0)
(-0.000194825 1.92736e-06 0)
(-0.000195601 1.62611e-06 0)
(-0.000196247 1.32393e-06 0)
(-0.00019676 1.02096e-06 0)
(-0.000197141 7.17401e-07 0)
(-0.00019739 4.13507e-07 0)
(-0.000197507 1.09542e-07 0)
(-0.000197491 -1.94361e-07 0)
(-0.000197343 -4.98116e-07 0)
(-0.000197062 -8.01553e-07 0)
(-0.000196649 -1.1045e-06 0)
(-0.000196104 -1.40691e-06 0)
(-0.000195427 -1.70865e-06 0)
(-0.00019462 -2.00939e-06 0)
(-0.000193682 -2.30872e-06 0)
(-0.000192615 -2.60638e-06 0)
(-0.000191418 -2.90233e-06 0)
(-0.000190092 -3.1965e-06 0)
(-0.000188639 -3.48864e-06 0)
(-0.00018706 -3.7783e-06 0)
(-0.000185355 -4.06511e-06 0)
(-0.000183525 -4.34893e-06 0)
(-0.000181573 -4.62975e-06 0)
(-0.000179499 -4.90746e-06 0)
(-0.000177305 -5.18177e-06 0)
(-0.000174992 -5.45229e-06 0)
(-0.000172563 -5.7186e-06 0)
(-0.000170018 -5.98039e-06 0)
(-0.00016736 -6.23745e-06 0)
(-0.000164591 -6.4896e-06 0)
(-0.000161714 -6.73655e-06 0)
(-0.000158731 -6.97785e-06 0)
(-0.000155644 -7.21302e-06 0)
(-0.000152457 -7.44167e-06 0)
(-0.000149171 -7.66352e-06 0)
(-0.00014579 -7.87824e-06 0)
(-0.000142318 -8.08522e-06 0)
(-0.000138759 -8.2837e-06 0)
(-0.000135115 -8.47302e-06 0)
(-0.000131391 -8.65269e-06 0)
(-0.000127591 -8.82233e-06 0)
(-0.000123719 -8.98147e-06 0)
(-0.000119782 -9.12948e-06 0)
(-0.000115782 -9.2656e-06 0)
(-0.000111727 -9.389e-06 0)
(-0.000107622 -9.49876e-06 0)
(-0.000103472 -9.59404e-06 0)
(-9.92844e-05 -9.67414e-06 0)
(-9.50658e-05 -9.73829e-06 0)
(-9.08233e-05 -9.78564e-06 0)
(-8.65645e-05 -9.81512e-06 0)
(-8.22969e-05 -9.82563e-06 0)
(-7.80287e-05 -9.81625e-06 0)
(-7.37685e-05 -9.78618e-06 0)
(-6.95254e-05 -9.73459e-06 0)
(-6.53089e-05 -9.66059e-06 0)
(-6.11288e-05 -9.56319e-06 0)
(-5.69952e-05 -9.44138e-06 0)
(-5.29184e-05 -9.29422e-06 0)
(-4.89092e-05 -9.12085e-06 0)
(-4.49788e-05 -8.92049e-06 0)
(-4.11384e-05 -8.69246e-06 0)
(-3.73996e-05 -8.4362e-06 0)
(-3.37743e-05 -8.15121e-06 0)
(-3.02741e-05 -7.83717e-06 0)
(-2.69108e-05 -7.49398e-06 0)
(-2.36963e-05 -7.1218e-06 0)
(-2.06423e-05 -6.72102e-06 0)
(-1.77603e-05 -6.29226e-06 0)
(-1.50615e-05 -5.83644e-06 0)
(-1.25562e-05 -5.35493e-06 0)
(-1.02539e-05 -4.84961e-06 0)
(-8.16282e-06 -4.32297e-06 0)
(-6.29017e-06 -3.77828e-06 0)
(-4.64159e-06 -3.21975e-06 0)
(-3.22079e-06 -2.65283e-06 0)
(-2.02895e-06 -2.08442e-06 0)
(-1.06429e-06 -1.52316e-06 0)
(-3.21437e-07 -9.79798e-07 0)
(2.09212e-07 -4.67655e-07 0)
(5.42022e-07 -3.11244e-09 0)
(6.97009e-07 3.93793e-07 0)
(7.00793e-07 6.98815e-07 0)
(5.86696e-07 8.83359e-07 0)
(3.95679e-07 9.14706e-07 0)
(1.85841e-07 7.55376e-07 0)
(4.25532e-08 3.54619e-07 0)
(2.36487e-08 -1.16507e-07 0)
(2.36356e-08 -3.44332e-07 0)
(2.07132e-08 -9.16898e-07 0)
(-9.84185e-09 -1.23709e-06 0)
(-9.78727e-08 -1.1069e-06 0)
(-2.85345e-07 -6.34616e-07 0)
(-6.24663e-07 4.01478e-08 0)
(-1.16017e-06 8.19354e-07 0)
(-1.91964e-06 1.65063e-06 0)
(-2.92741e-06 2.50183e-06 0)
(-4.19457e-06 3.3582e-06 0)
(-5.72772e-06 4.21025e-06 0)
(-7.53042e-06 5.05004e-06 0)
(-9.60036e-06 5.87122e-06 0)
(-1.19319e-05 6.66891e-06 0)
(-1.45193e-05 7.43702e-06 0)
(-1.73539e-05 8.17263e-06 0)
(-2.04254e-05 8.87328e-06 0)
(-2.37234e-05 9.53537e-06 0)
(-2.72346e-05 1.01572e-05 0)
(-3.0946e-05 1.07373e-05 0)
(-3.48451e-05 1.12749e-05 0)
(-3.89184e-05 1.17702e-05 0)
(-4.31519e-05 1.22235e-05 0)
(-4.75316e-05 1.26337e-05 0)
(-5.20427e-05 1.30011e-05 0)
(-5.66712e-05 1.33267e-05 0)
(-6.14045e-05 1.36118e-05 0)
(-6.62299e-05 1.38582e-05 0)
(-7.1134e-05 1.40673e-05 0)
(-7.61038e-05 1.42397e-05 0)
(-8.11264e-05 1.43757e-05 0)
(-8.61894e-05 1.44764e-05 0)
(-9.12817e-05 1.45434e-05 0)
(-9.63926e-05 1.45791e-05 0)
(-0.000101512 1.45852e-05 0)
(-0.000106629 1.45628e-05 0)
(-0.000111734 1.45127e-05 0)
(-0.000116816 1.44363e-05 0)
(-0.000121868 1.4335e-05 0)
(-0.000126882 1.42102e-05 0)
(-0.000131848 1.40633e-05 0)
(-0.00013676 1.38954e-05 0)
(-0.00014161 1.37075e-05 0)
(-0.000146392 1.35007e-05 0)
(-0.000151099 1.32761e-05 0)
(-0.000155725 1.30348e-05 0)
(-0.000160264 1.27779e-05 0)
(-0.000164711 1.25062e-05 0)
(-0.000169061 1.22205e-05 0)
(-0.000173309 1.19218e-05 0)
(-0.000177451 1.1611e-05 0)
(-0.000181482 1.12887e-05 0)
(-0.000185398 1.09556e-05 0)
(-0.000189196 1.06123e-05 0)
(-0.000192872 1.02596e-05 0)
(-0.000196423 9.89816e-06 0)
(-0.000199846 9.52861e-06 0)
(-0.000203138 9.15142e-06 0)
(-0.000206296 8.76688e-06 0)
(-0.000209318 8.37544e-06 0)
(-0.000212201 7.97772e-06 0)
(-0.000214944 7.57427e-06 0)
(-0.000217543 7.16538e-06 0)
(-0.000219998 6.7513e-06 0)
(-0.000222306 6.33241e-06 0)
(-0.000224466 5.90917e-06 0)
(-0.000226476 5.48195e-06 0)
(-0.000228335 5.0511e-06 0)
(-0.000230043 4.61697e-06 0)
(-0.000231597 4.18002e-06 0)
(-0.000232997 3.74058e-06 0)
(-0.000234241 3.29879e-06 0)
(-0.000235329 2.85482e-06 0)
(-0.000236261 2.40909e-06 0)
(-0.000237035 1.962e-06 0)
(-0.000237651 1.51388e-06 0)
(-0.000238109 1.06502e-06 0)
(-0.000238408 6.15585e-07 0)
(-0.000238549 1.65689e-07 0)
(-0.00023853 -2.84378e-07 0)
(-0.000238354 -7.34158e-07 0)
(-0.000238018 -1.18323e-06 0)
(-0.000237524 -1.63144e-06 0)
(-0.000236871 -2.07878e-06 0)
(-0.000236061 -2.52509e-06 0)
(-0.000235095 -2.96993e-06 0)
(-0.000233971 -3.41272e-06 0)
(-0.000232692 -3.85306e-06 0)
(-0.000231258 -4.29079e-06 0)
(-0.00022967 -4.72575e-06 0)
(-0.00022793 -5.15766e-06 0)
(-0.000226037 -5.5861e-06 0)
(-0.000223994 -6.01059e-06 0)
(-0.000221802 -6.43073e-06 0)
(-0.000219463 -6.84629e-06 0)
(-0.000216978 -7.25708e-06 0)
(-0.000214349 -7.66278e-06 0)
(-0.000211578 -8.0629e-06 0)
(-0.000208667 -8.45682e-06 0)
(-0.000205618 -8.84401e-06 0)
(-0.000202434 -9.22416e-06 0)
(-0.000199117 -9.59703e-06 0)
(-0.000195671 -9.96225e-06 0)
(-0.000192097 -1.03191e-05 0)
(-0.000188399 -1.06669e-05 0)
(-0.000184581 -1.10049e-05 0)
(-0.000180645 -1.13326e-05 0)
(-0.000176596 -1.16495e-05 0)
(-0.000172438 -1.19549e-05 0)
(-0.000168175 -1.2248e-05 0)
(-0.000163811 -1.25278e-05 0)
(-0.000159352 -1.27934e-05 0)
(-0.000154802 -1.3044e-05 0)
(-0.000150167 -1.32788e-05 0)
(-0.000145453 -1.3497e-05 0)
(-0.000140665 -1.36974e-05 0)
(-0.000135811 -1.38791e-05 0)
(-0.000130896 -1.40408e-05 0)
(-0.000125929 -1.41812e-05 0)
(-0.000120917 -1.42992e-05 0)
(-0.000115868 -1.43936e-05 0)
(-0.00011079 -1.44631e-05 0)
(-0.000105693 -1.45064e-05 0)
(-0.000100585 -1.4522e-05 0)
(-9.54757e-05 -1.45086e-05 0)
(-9.0376e-05 -1.44648e-05 0)
(-8.52965e-05 -1.43894e-05 0)
(-8.02482e-05 -1.42811e-05 0)
(-7.52425e-05 -1.41386e-05 0)
(-7.02913e-05 -1.39604e-05 0)
(-6.54069e-05 -1.37452e-05 0)
(-6.06018e-05 -1.3492e-05 0)
(-5.5889e-05 -1.31995e-05 0)
(-5.12819e-05 -1.2867e-05 0)
(-4.67938e-05 -1.24937e-05 0)
(-4.24383e-05 -1.20789e-05 0)
(-3.8229e-05 -1.16222e-05 0)
(-3.41797e-05 -1.11235e-05 0)
(-3.03039e-05 -1.05831e-05 0)
(-2.6615e-05 -1.00017e-05 0)
(-2.31262e-05 -9.38021e-06 0)
(-1.98501e-05 -8.72035e-06 0)
(-1.67983e-05 -8.02416e-06 0)
(-1.39814e-05 -7.29451e-06 0)
(-1.14088e-05 -6.53516e-06 0)
(-9.0885e-06 -5.75101e-06 0)
(-7.02657e-06 -4.94831e-06 0)
(-5.22705e-06 -4.13487e-06 0)
(-3.69117e-06 -3.32041e-06 0)
(-2.41688e-06 -2.5169e-06 0)
(-1.39834e-06 -1.73901e-06 0)
(-6.25296e-07 -1.00472e-06 0)
(-8.25612e-08 -3.35787e-07 0)
(2.50687e-07 2.41594e-07 0)
(4.01857e-07 6.96157e-07 0)
(4.05124e-07 9.91252e-07 0)
(3.02423e-07 1.08477e-06 0)
(1.51923e-07 9.27369e-07 0)
(3.67317e-08 4.49028e-07 0)
(2.26834e-08 -1.29065e-07 0)
(2.6682e-08 -3.51119e-07 0)
(-9.74392e-09 -8.72791e-07 0)
(-1.41854e-07 -1.11787e-06 0)
(-3.86717e-07 -8.82018e-07 0)
(-7.79602e-07 -2.62398e-07 0)
(-1.35949e-06 5.98644e-07 0)
(-2.15967e-06 1.602e-06 0)
(-3.21412e-06 2.6808e-06 0)
(-4.54101e-06 3.79948e-06 0)
(-6.15429e-06 4.93396e-06 0)
(-8.06265e-06 6.06826e-06 0)
(-1.02679e-05 7.1907e-06 0)
(-1.27698e-05 8.29256e-06 0)
(-1.5564e-05 9.36471e-06 0)
(-1.86425e-05 1.04e-05 0)
(-2.19964e-05 1.1393e-05 0)
(-2.56156e-05 1.23388e-05 0)
(-2.94878e-05 1.32345e-05 0)
(-3.35998e-05 1.40773e-05 0)
(-3.79372e-05 1.48644e-05 0)
(-4.2485e-05 1.55946e-05 0)
(-4.72281e-05 1.62675e-05 0)
(-5.2152e-05 1.68831e-05 0)
(-5.72414e-05 1.7442e-05 0)
(-6.24799e-05 1.79447e-05 0)
(-6.78518e-05 1.83907e-05 0)
(-7.33417e-05 1.8781e-05 0)
(-7.89345e-05 1.91176e-05 0)
(-8.4616e-05 1.94021e-05 0)
(-9.03721e-05 1.96368e-05 0)
(-9.61889e-05 1.98233e-05 0)
(-0.000102052 1.99626e-05 0)
(-0.000107948 2.00563e-05 0)
(-0.000113865 2.01063e-05 0)
(-0.00011979 2.01147e-05 0)
(-0.000125713 2.00837e-05 0)
(-0.000131621 2.00155e-05 0)
(-0.000137504 1.99112e-05 0)
(-0.000143352 1.97726e-05 0)
(-0.000149155 1.96015e-05 0)
(-0.000154904 1.93998e-05 0)
(-0.00016059 1.91692e-05 0)
(-0.000166204 1.89111e-05 0)
(-0.00017174 1.8627e-05 0)
(-0.00017719 1.83183e-05 0)