/*--------------------------------*- C++ -*----------------------------------*\
  =========                 |
  \\      /  F ield         | OpenFOAM: The Open Source CFD Toolbox
   \\    /   O peration     | Website:  https://openfoam.org
    \\  /    A nd           | Version:  7
     \\/     M anipulation  |
\*---------------------------------------------------------------------------*/
FoamFile
{
    version     2.0;
    format      ascii;
    class       volScalarField;
    location    "0.1375";
    object      p;
}
// * * * * * * * * * * * * * * * * * * * * * * * * * * * * * * * * * * * * * //

dimensions      [0 2 -2 0 0 0 0];

internalField   nonuniform List<scalar> 
51200
(
-2.51282e-07
-1.32204e-05
-2.31927e-05
-4.45361e-05
-7.24216e-05
-0.000102088
-0.000131959
-0.00016123
-0.00018927
-0.000215632
-0.000239922
-0.00026207
-0.000281899
-0.000299556
-0.000315129
-0.000328685
-0.000340482
-0.000350624
-0.000359396
-0.000367156
-0.000374002
-0.000380182
-0.000385809
-0.000391065
-0.000396256
-0.000401469
-0.000406827
-0.000412463
-0.000418403
-0.000424789
-0.00043172
-0.000439158
-0.000447209
-0.000455925
-0.000465259
-0.000475261
-0.000485983
-0.00049735
-0.000509391
-0.000522187
-0.000535736
-0.000549971
-0.00056492
-0.000580575
-0.000596901
-0.000613978
-0.000631828
-0.000650328
-0.000669427
-0.000689223
-0.000709727
-0.000730848
-0.000752585
-0.000774876
-0.000797588
-0.00082077
-0.000844587
-0.000868981
-0.000893791
-0.000919016
-0.000944691
-0.00097077
-0.000997264
-0.00102419
-0.00105141
-0.00107875
-0.00110626
-0.00113409
-0.00116234
-0.001191
-0.00122007
-0.0012494
-0.00127883
-0.00130834
-0.00133794
-0.00136768
-0.00139761
-0.00142773
-0.00145798
-0.00148829
-0.00151861
-0.0015489
-0.00157912
-0.00160923
-0.00163926
-0.00166922
-0.00169913
-0.00172898
-0.00175876
-0.00178842
-0.00181789
-0.00184716
-0.00187625
-0.0019052
-0.00193395
-0.00196245
-0.0019906
-0.00201839
-0.00204579
-0.00207281
-0.00209943
-0.00212566
-0.00215144
-0.0021767
-0.00220136
-0.00222542
-0.00224893
-0.00227192
-0.00229439
-0.00231633
-0.00233769
-0.00235844
-0.00237849
-0.00239778
-0.00241628
-0.00243402
-0.00245102
-0.00246726
-0.00248271
-0.00249737
-0.00251122
-0.00252427
-0.00253649
-0.00254785
-0.00255838
-0.0025681
-0.002577
-0.00258505
-0.0025922
-0.00259844
-0.0026038
-0.0026083
-0.00261191
-0.00261463
-0.00261647
-0.00261745
-0.00261756
-0.00261678
-0.00261511
-0.00261259
-0.0026093
-0.00260529
-0.00260058
-0.00259517
-0.00258913
-0.00258253
-0.00257541
-0.00256784
-0.00255988
-0.00255166
-0.00254333
-0.00253512
-0.00252724
-0.00251987
-0.00251322
-0.00250756
-0.00250317
-0.00250027
-0.00249913
-0.0024997
1.07417e-06
-3.42434e-05
-5.88393e-05
-8.56082e-05
-0.000113568
-0.000140394
-0.000166222
-0.000191303
-0.000215284
-0.00023786
-0.000258816
-0.000278148
-0.000295675
-0.000311401
-0.000325353
-0.00033793
-0.000349017
-0.000358813
-0.000367531
-0.000375249
-0.000382363
-0.00038895
-0.000395062
-0.000400971
-0.00040672
-0.000412494
-0.000418458
-0.000424584
-0.00043105
-0.000437942
-0.000445235
-0.000453056
-0.00046146
-0.000470404
-0.000479939
-0.000490135
-0.000500947
-0.000512374
-0.000524469
-0.000537236
-0.000550671
-0.000564838
-0.000579692
-0.000595164
-0.000611318
-0.000628189
-0.00064574
-0.000663946
-0.000682814
-0.000702323
-0.000722459
-0.000743249
-0.000764671
-0.000786631
-0.000809058
-0.000831975
-0.00085542
-0.000879366
-0.00090377
-0.000928619
-0.000953861
-0.000979445
-0.0010054
-0.00103175
-0.00105844
-0.00108541
-0.00111266
-0.00114018
-0.00116796
-0.00119602
-0.00122438
-0.00125305
-0.00128197
-0.00131109
-0.00134033
-0.00136963
-0.00139901
-0.00142849
-0.00145811
-0.00148788
-0.00151774
-0.00154757
-0.00157729
-0.00160687
-0.00163637
-0.0016658
-0.00169519
-0.00172455
-0.00175385
-0.00178301
-0.00181199
-0.00184077
-0.0018694
-0.00189788
-0.00192615
-0.00195415
-0.00198183
-0.00200915
-0.00203608
-0.00206263
-0.00208879
-0.00211457
-0.0021399
-0.00216469
-0.00218889
-0.0022125
-0.00223558
-0.00225815
-0.00228023
-0.00230177
-0.00232277
-0.00234318
-0.00236287
-0.0023818
-0.00239999
-0.00241743
-0.00243417
-0.00245017
-0.00246537
-0.0024798
-0.0024935
-0.0025064
-0.00251849
-0.00252977
-0.00254026
-0.00254996
-0.00255887
-0.00256695
-0.00257417
-0.00258053
-0.00258605
-0.00259073
-0.00259453
-0.00259749
-0.00259962
-0.00260092
-0.00260137
-0.00260098
-0.00259974
-0.0025977
-0.00259498
-0.00259159
-0.00258753
-0.00258281
-0.00257754
-0.00257176
-0.0025655
-0.00255884
-0.00255184
-0.00254461
-0.00253732
-0.00253018
-0.00252338
-0.00251705
-0.0025114
-0.00250665
-0.002503
-0.00250056
-0.0024996
-0.00250031
-2.10872e-05
-6.43976e-05
-9.45393e-05
-0.000122827
-0.000149653
-0.000174056
-0.000196894
-0.000218624
-0.0002393
-0.000258723
-0.000276852
-0.000293631
-0.000309046
-0.000322927
-0.000335519
-0.000346831
-0.000357111
-0.000366443
-0.000374817
-0.000382461
-0.000389553
-0.000396253
-0.000402752
-0.000409001
-0.000415133
-0.000421369
-0.000427693
-0.000434239
-0.000441129
-0.000448355
-0.000456003
-0.000464169
-0.000472797
-0.000481972
-0.000491718
-0.00050203
-0.000512939
-0.000524486
-0.000536627
-0.000549382
-0.000562804
-0.000576905
-0.000591652
-0.000607059
-0.000623133
-0.000639834
-0.000657184
-0.00067519
-0.000693844
-0.000713149
-0.000733061
-0.000753562
-0.00077466
-0.000796312
-0.000818471
-0.000841141
-0.000864285
-0.000887862
-0.000911899
-0.000936411
-0.000961336
-0.000986602
-0.00101218
-0.00103805
-0.00106424
-0.00109079
-0.00111773
-0.00114499
-0.00117248
-0.00120013
-0.00122799
-0.0012561
-0.00128451
-0.00131319
-0.00134208
-0.00137106
-0.00140004
-0.00142906
-0.0014582
-0.00148752
-0.00151695
-0.00154635
-0.00157564
-0.0016048
-0.00163385
-0.00166286
-0.00169183
-0.00172079
-0.00174968
-0.00177841
-0.00180696
-0.00183533
-0.00186357
-0.00189167
-0.00191955
-0.00194714
-0.00197442
-0.00200133
-0.00202785
-0.002054
-0.0020798
-0.00210521
-0.00213015
-0.00215454
-0.00217834
-0.00220158
-0.0022243
-0.00224652
-0.00226825
-0.0022895
-0.00231021
-0.00233033
-0.00234973
-0.00236837
-0.00238629
-0.00240352
-0.00242002
-0.00243581
-0.00245084
-0.00246512
-0.00247867
-0.00249146
-0.00250344
-0.00251464
-0.00252511
-0.00253482
-0.00254374
-0.00255185
-0.00255913
-0.00256559
-0.00257125
-0.00257608
-0.00258006
-0.00258321
-0.00258559
-0.00258717
-0.00258792
-0.00258783
-0.00258695
-0.00258533
-0.00258306
-0.00258016
-0.00257662
-0.00257248
-0.00256782
-0.00256269
-0.00255712
-0.00255113
-0.00254483
-0.00253834
-0.00253183
-0.00252547
-0.00251941
-0.00251379
-0.00250878
-0.0025046
-0.00250138
-0.00249919
-0.00249831
-0.00249905
-6.83214e-05
-0.000109019
-0.000138061
-0.000163677
-0.000187374
-0.000208488
-0.00022807
-0.000246598
-0.000264163
-0.000280615
-0.000295955
-0.00031025
-0.000323525
-0.000335632
-0.000346648
-0.000356719
-0.000365988
-0.000374531
-0.000382473
-0.000389822
-0.000396706
-0.000403367
-0.000409887
-0.000416281
-0.000422708
-0.000429161
-0.000435737
-0.000442612
-0.000449749
-0.000457245
-0.000465214
-0.000473577
-0.000482405
-0.000491801
-0.000501696
-0.000512098
-0.000523133
-0.00053473
-0.000546907
-0.000559734
-0.000573161
-0.000587175
-0.000601855
-0.000617203
-0.000633186
-0.000649808
-0.00066703
-0.000684844
-0.000703318
-0.000722459
-0.000742204
-0.000762501
-0.000783324
-0.000804669
-0.000826558
-0.000848987
-0.00087187
-0.000895157
-0.000918871
-0.000943036
-0.000967652
-0.000992677
-0.00101801
-0.00104358
-0.00106937
-0.00109549
-0.00112201
-0.00114891
-0.0011761
-0.00120348
-0.00123104
-0.00125879
-0.00128677
-0.00131501
-0.00134347
-0.00137206
-0.00140069
-0.00142938
-0.00145819
-0.00148714
-0.00151618
-0.00154517
-0.00157406
-0.00160282
-0.00163149
-0.00166013
-0.00168876
-0.00171738
-0.0017459
-0.00177424
-0.00180241
-0.00183043
-0.00185833
-0.00188608
-0.0019136
-0.00194084
-0.00196776
-0.00199431
-0.00202047
-0.00204628
-0.00207176
-0.00209684
-0.00212143
-0.00214546
-0.00216891
-0.00219183
-0.00221423
-0.00223614
-0.00225759
-0.00227858
-0.00229904
-0.00231889
-0.00233803
-0.00235644
-0.00237415
-0.00239118
-0.00240751
-0.00242311
-0.00243798
-0.00245216
-0.00246562
-0.00247829
-0.00249019
-0.00250135
-0.0025118
-0.00252153
-0.00253047
-0.00253862
-0.00254597
-0.00255254
-0.00255833
-0.00256329
-0.00256742
-0.00257078
-0.00257337
-0.00257517
-0.00257616
-0.00257634
-0.00257577
-0.00257451
-0.00257262
-0.00257011
-0.00256698
-0.00256329
-0.00255915
-0.00255455
-0.00254949
-0.00254402
-0.00253826
-0.00253233
-0.00252637
-0.00252056
-0.00251502
-0.00250986
-0.00250525
-0.00250139
-0.00249837
-0.00249621
-0.0024952
-0.00249567
-0.000127579
-0.000160727
-0.000185297
-0.000206671
-0.000226218
-0.00024367
-0.000259685
-0.000274947
-0.000289467
-0.000303151
-0.00031594
-0.00032792
-0.000339119
-0.000349544
-0.000359142
-0.000368013
-0.000376226
-0.000383995
-0.000391358
-0.000398309
-0.00040497
-0.000411487
-0.000417872
-0.000424297
-0.000430791
-0.000437363
-0.000444163
-0.000451165
-0.000458459
-0.000466175
-0.000474301
-0.000482802
-0.000491815
-0.000501316
-0.0005113
-0.000521835
-0.000532912
-0.000544513
-0.000556737
-0.000569581
-0.000582986
-0.000596974
-0.000611591
-0.000626828
-0.000642711
-0.000659244
-0.000676339
-0.000694007
-0.000712315
-0.00073125
-0.000750803
-0.000770923
-0.000791527
-0.000812617
-0.000834253
-0.000856409
-0.000879014
-0.000902049
-0.000925502
-0.000949345
-0.00097361
-0.000998314
-0.00102337
-0.00104866
-0.0010742
-0.00110004
-0.00112619
-0.00115267
-0.00117944
-0.00120647
-0.00123373
-0.0012612
-0.00128887
-0.00131675
-0.0013448
-0.00137295
-0.0014012
-0.00142957
-0.00145808
-0.0014867
-0.00151535
-0.00154396
-0.00157247
-0.00160087
-0.00162917
-0.00165746
-0.00168576
-0.00171403
-0.00174218
-0.00177016
-0.00179798
-0.00182568
-0.00185325
-0.00188064
-0.00190783
-0.00193473
-0.0019613
-0.0019875
-0.00201333
-0.00203882
-0.00206399
-0.00208874
-0.00211298
-0.00213667
-0.00215981
-0.00218242
-0.00220451
-0.00222613
-0.00224733
-0.00226807
-0.00228829
-0.00230788
-0.00232676
-0.00234496
-0.0023625
-0.00237934
-0.00239549
-0.00241094
-0.00242569
-0.00243976
-0.00245311
-0.0024657
-0.00247754
-0.00248868
-0.00249913
-0.00250885
-0.00251781
-0.00252602
-0.00253347
-0.00254014
-0.00254604
-0.00255113
-0.00255541
-0.00255895
-0.00256175
-0.00256375
-0.00256494
-0.00256538
-0.0025651
-0.00256416
-0.0025626
-0.00256044
-0.00255769
-0.00255441
-0.00255071
-0.00254655
-0.00254192
-0.00253688
-0.00253158
-0.00252612
-0.00252062
-0.00251522
-0.00251004
-0.00250521
-0.00250088
-0.00249718
-0.00249418
-0.00249192
-0.00249057
-0.00249048
-0.00018876
-0.000212568
-0.000231496
-0.00024811
-0.000263415
-0.000277111
-0.000289753
-0.000301903
-0.000313539
-0.000324744
-0.000335299
-0.000345313
-0.000354705
-0.000363563
-0.000371968
-0.000379818
-0.000387205
-0.000394259
-0.000401027
-0.00040763
-0.000414011
-0.000420294
-0.000426602
-0.000432939
-0.000439362
-0.000446028
-0.000452889
-0.000459949
-0.000467383
-0.000475184
-0.00048335
-0.000491999
-0.000501069
-0.000510595
-0.000520672
-0.000531255
-0.000542322
-0.000553966
-0.000566178
-0.000578953
-0.000592332
-0.000606293
-0.000620835
-0.000635998
-0.000651773
-0.000668143
-0.000685115
-0.000702676
-0.000720822
-0.000739571
-0.000758913
-0.000778793
-0.000799191
-0.000820107
-0.00084152
-0.000863391
-0.000885712
-0.000908488
-0.000931696
-0.000955297
-0.000979293
-0.00100366
-0.00102833
-0.00105329
-0.00107858
-0.0011042
-0.00113009
-0.00115624
-0.00118263
-0.00120928
-0.00123616
-0.00126331
-0.00129071
-0.0013183
-0.001346
-0.00137377
-0.00140166
-0.0014297
-0.00145791
-0.00148619
-0.0015145
-0.00154275
-0.0015709
-0.00159894
-0.00162692
-0.0016549
-0.00168289
-0.00171081
-0.00173859
-0.00176623
-0.00179374
-0.00182112
-0.00184837
-0.00187544
-0.00190229
-0.00192886
-0.00195509
-0.00198096
-0.00200648
-0.00203169
-0.00205655
-0.00208097
-0.00210489
-0.00212827
-0.00215111
-0.00217343
-0.00219524
-0.00221659
-0.00223756
-0.00225808
-0.00227804
-0.00229738
-0.00231605
-0.00233405
-0.00235141
-0.00236808
-0.00238406
-0.00239938
-0.00241403
-0.00242799
-0.00244125
-0.00245377
-0.00246557
-0.0024767
-0.00248715
-0.00249687
-0.00250584
-0.0025141
-0.00252164
-0.00252842
-0.00253441
-0.00253962
-0.00254405
-0.00254777
-0.00255074
-0.00255292
-0.00255431
-0.00255497
-0.00255496
-0.0025543
-0.00255303
-0.00255117
-0.00254875
-0.00254586
-0.00254252
-0.00253872
-0.00253443
-0.00252976
-0.00252485
-0.00251977
-0.00251461
-0.0025095
-0.00250459
-0.00249998
-0.00249577
-0.0024921
-0.00248901
-0.00248649
-0.00248467
-0.00248378
-0.000247398
-0.000262227
-0.000275242
-0.00028728
-0.000298533
-0.000308565
-0.000318114
-0.000327398
-0.000336504
-0.000345357
-0.000353924
-0.000362187
-0.000370021
-0.000377611
-0.00038483
-0.000391788
-0.000398513
-0.000404913
-0.000411211
-0.000417392
-0.000423471
-0.000429559
-0.000435712
-0.000441895
-0.000448271
-0.000454903
-0.000461719
-0.000468859
-0.000476324
-0.000484107
-0.00049234
-0.000501013
-0.000510071
-0.000519635
-0.000529718
-0.000540261
-0.00055135
-0.000563002
-0.000575156
-0.000587876
-0.000601176
-0.000615047
-0.000629535
-0.000644629
-0.000660286
-0.000676515
-0.000693347
-0.000710772
-0.000728783
-0.00074738
-0.000766512
-0.000786156
-0.000806346
-0.000827078
-0.000848283
-0.000869916
-0.000891975
-0.000914469
-0.000937405
-0.000960779
-0.000984552
-0.00100865
-0.001033
-0.00105764
-0.00108262
-0.00110795
-0.00113358
-0.00115945
-0.00118556
-0.00121189
-0.00123845
-0.00126527
-0.00129235
-0.00131963
-0.001347
-0.00137447
-0.00140206
-0.00142981
-0.0014577
-0.00148566
-0.00151364
-0.00154155
-0.00156936
-0.00159708
-0.00162477
-0.00165247
-0.00168015
-0.00170774
-0.00173518
-0.0017625
-0.00178971
-0.00181679
-0.00184373
-0.0018705
-0.00189704
-0.00192329
-0.00194919
-0.00197476
-0.00200001
-0.00202494
-0.00204951
-0.00207361
-0.00209722
-0.00212033
-0.00214289
-0.00216494
-0.00218649
-0.00220762
-0.00222837
-0.00224865
-0.00226837
-0.00228747
-0.00230596
-0.00232379
-0.00234097
-0.00235747
-0.00237331
-0.00238851
-0.00240308
-0.00241695
-0.00243011
-0.00244257
-0.00245435
-0.00246548
-0.00247591
-0.00248562
-0.00249462
-0.00250295
-0.00251056
-0.00251741
-0.0025235
-0.00252882
-0.00253339
-0.00253726
-0.00254039
-0.00254271
-0.00254429
-0.00254518
-0.00254541
-0.00254498
-0.00254393
-0.00254234
-0.00254023
-0.00253766
-0.00253462
-0.00253111
-0.0025271
-0.00252273
-0.00251812
-0.00251332
-0.0025084
-0.00250349
-0.00249874
-0.00249424
-0.00249007
-0.0024863
-0.00248298
-0.00248011
-0.0024777
-0.00247588
-0.000301382
-0.000308441
-0.000316069
-0.000323755
-0.000331171
-0.000338004
-0.00034466
-0.000351391
-0.000358226
-0.000364957
-0.000371771
-0.000378402
-0.000384956
-0.000391335
-0.000397552
-0.000403717
-0.000409694
-0.000415603
-0.000421488
-0.000427252
-0.000433056
-0.000438931
-0.000444864
-0.000450956
-0.000457246
-0.000463727
-0.000470547
-0.000477664
-0.000485079
-0.000492892
-0.000501115
-0.000509719
-0.000518801
-0.000528347
-0.000538356
-0.000548888
-0.00055995
-0.000571538
-0.000583669
-0.000596324
-0.000609519
-0.000623303
-0.000637694
-0.000652682
-0.000668238
-0.000684357
-0.000701045
-0.000718324
-0.000736196
-0.000754626
-0.000773569
-0.000793035
-0.000813037
-0.000833549
-0.000854532
-0.000875964
-0.00089781
-0.000920051
-0.000942724
-0.000965844
-0.000989348
-0.00101317
-0.00103729
-0.0010617
-0.00108642
-0.00111145
-0.00113676
-0.00116235
-0.00118817
-0.00121424
-0.00124055
-0.0012671
-0.00129388
-0.00132082
-0.00134788
-0.00137506
-0.00140239
-0.00142987
-0.00145745
-0.00148511
-0.00151278
-0.00154037
-0.00156787
-0.00159531
-0.00162274
-0.00165017
-0.00167754
-0.00170482
-0.00173196
-0.00175899
-0.00178591
-0.00181269
-0.00183934
-0.00186583
-0.00189208
-0.00191802
-0.00194362
-0.00196892
-0.00199391
-0.00201857
-0.00204285
-0.00206667
-0.00209001
-0.00211286
-0.00213517
-0.00215696
-0.00217829
-0.00219922
-0.00221975
-0.00223979
-0.00225928
-0.00227819
-0.00229649
-0.00231417
-0.00233117
-0.00234751
-0.00236323
-0.00237835
-0.00239281
-0.00240658
-0.00241968
-0.00243211
-0.00244386
-0.00245496
-0.00246538
-0.00247509
-0.00248412
-0.00249251
-0.00250018
-0.00250708
-0.00251325
-0.00251868
-0.0025234
-0.00252739
-0.00253064
-0.00253311
-0.00253485
-0.00253594
-0.00253637
-0.00253613
-0.0025353
-0.00253394
-0.0025321
-0.00252979
-0.002527
-0.00252371
-0.00251993
-0.0025158
-0.00251143
-0.00250683
-0.00250204
-0.00249724
-0.00249256
-0.00248809
-0.00248385
-0.00247989
-0.00247625
-0.00247294
-0.00246985
-0.00246703
-0.000350082
-0.000350644
-0.000353414
-0.000357309
-0.000361535
-0.0003654
-0.000369536
-0.000373911
-0.000378678
-0.000383692
-0.00038875
-0.000394009
-0.000399311
-0.000404616
-0.000410006
-0.000415321
-0.000420681
-0.00042608
-0.000431476
-0.000436946
-0.000442473
-0.000448058
-0.00045384
-0.000459809
-0.000465924
-0.000472346
-0.000479101
-0.000486114
-0.000493523
-0.000501317
-0.000509452
-0.000518046
-0.000527101
-0.00053657
-0.000546552
-0.000557046
-0.000568029
-0.00057956
-0.000591626
-0.000604193
-0.00061733
-0.000631033
-0.000645297
-0.000660169
-0.000675623
-0.00069163
-0.000708205
-0.000725354
-0.000743065
-0.000761312
-0.000780089
-0.000799406
-0.000819238
-0.000839542
-0.000860305
-0.000881525
-0.000903166
-0.000925208
-0.000947675
-0.000970549
-0.000993761
-0.0010173
-0.00104118
-0.00106539
-0.00108989
-0.00111467
-0.00113972
-0.00116502
-0.00119055
-0.00121635
-0.00124242
-0.00126875
-0.00129526
-0.0013219
-0.00134866
-0.00137559
-0.00140266
-0.00142986
-0.00145717
-0.00148454
-0.00151192
-0.00153921
-0.00156644
-0.00159363
-0.00162082
-0.00164797
-0.00167505
-0.00170203
-0.0017289
-0.00175566
-0.0017823
-0.00180882
-0.00183521
-0.00186142
-0.00188739
-0.00191304
-0.00193837
-0.00196342
-0.00198817
-0.00201256
-0.00203656
-0.00206013
-0.00208324
-0.00210584
-0.00212791
-0.00214948
-0.00217061
-0.00219135
-0.00221167
-0.00223149
-0.00225077
-0.00226951
-0.00228765
-0.00230515
-0.00232199
-0.00233821
-0.00235382
-0.00236884
-0.00238322
-0.00239691
-0.00240994
-0.00242233
-0.00243407
-0.00244513
-0.00245552
-0.00246523
-0.00247431
-0.00248273
-0.00249043
-0.00249739
-0.00250364
-0.00250919
-0.00251401
-0.00251812
-0.00252147
-0.00252407
-0.00252598
-0.00252724
-0.00252783
-0.00252775
-0.00252711
-0.00252597
-0.00252436
-0.00252225
-0.00251964
-0.00251653
-0.00251295
-0.00250901
-0.0025048
-0.00250032
-0.00249561
-0.00249084
-0.00248616
-0.00248162
-0.00247722
-0.00247298
-0.00246896
-0.00246515
-0.00246133
-0.00245745
-0.000393491
-0.000388888
-0.000387675
-0.000388094
-0.000389463
-0.000391041
-0.000392825
-0.000395209
-0.000398119
-0.000401398
-0.000405068
-0.000408971
-0.000413103
-0.000417511
-0.000422002
-0.000426628
-0.000431379
-0.000436187
-0.000441152
-0.00044628
-0.000451445
-0.000456819
-0.000462406
-0.000468167
-0.000474189
-0.00048052
-0.000487127
-0.000494119
-0.000501472
-0.000509172
-0.000517288
-0.000525834
-0.000534808
-0.000544251
-0.000554185
-0.000564621
-0.000575567
-0.000587021
-0.000598978
-0.000611475
-0.000624533
-0.000638147
-0.000652326
-0.000667082
-0.000682417
-0.000698319
-0.000714801
-0.00073183
-0.000749382
-0.000767461
-0.000786085
-0.000805248
-0.000824916
-0.000845049
-0.000865629
-0.000886636
-0.000908065
-0.000929924
-0.000952203
-0.000974852
-0.000997818
-0.00102111
-0.00104476
-0.00106873
-0.00109301
-0.00111757
-0.0011424
-0.00116745
-0.00119273
-0.00121828
-0.00124412
-0.00127019
-0.00129645
-0.00132283
-0.00134935
-0.00137603
-0.00140285
-0.00142979
-0.00145684
-0.00148394
-0.00151103
-0.00153806
-0.00156505
-0.00159202
-0.00161896
-0.00164585
-0.00167266
-0.00169938
-0.00172599
-0.00175248
-0.00177887
-0.00180514
-0.00183129
-0.00185726
-0.00188294
-0.00190833
-0.00193344
-0.00195825
-0.00198274
-0.00200689
-0.00203064
-0.00205399
-0.00207689
-0.00209925
-0.00212109
-0.00214248
-0.00216344
-0.00218398
-0.00220409
-0.00222372
-0.00224283
-0.00226141
-0.00227939
-0.00229673
-0.00231343
-0.00232953
-0.00234507
-0.00236001
-0.00237428
-0.00238789
-0.00240088
-0.00241323
-0.00242493
-0.00243596
-0.00244633
-0.00245605
-0.00246515
-0.0024736
-0.00248133
-0.00248834
-0.00249468
-0.00250032
-0.00250524
-0.00250943
-0.00251288
-0.00251561
-0.00251767
-0.00251906
-0.00251977
-0.00251984
-0.00251937
-0.00251843
-0.002517
-0.00251505
-0.00251259
-0.00250962
-0.00250619
-0.00250239
-0.00249827
-0.00249385
-0.00248917
-0.00248439
-0.00247963
-0.00247494
-0.00247029
-0.00246571
-0.00246124
-0.00245689
-0.00245231
-0.00244736
-0.000431994
-0.000423462
-0.000418751
-0.000416373
-0.000415256
-0.000414779
-0.000414748
-0.000415289
-0.000416468
-0.000418306
-0.000420619
-0.000423287
-0.000426399
-0.00042978
-0.000433488
-0.000437492
-0.000441564
-0.000445887
-0.000450421
-0.000455081
-0.000459973
-0.000465091
-0.000470399
-0.000476008
-0.0004819
-0.000488059
-0.00049461
-0.000501533
-0.00050878
-0.000516444
-0.000524506
-0.00053297
-0.000541907
-0.000551303
-0.000561168
-0.000571571
-0.000582473
-0.000593852
-0.00060574
-0.000618157
-0.000631107
-0.000644636
-0.000658743
-0.000673397
-0.000688624
-0.000704427
-0.000720797
-0.000737707
-0.000755132
-0.000773084
-0.000791567
-0.000810564
-0.000830065
-0.00085005
-0.000870471
-0.000891295
-0.000912544
-0.000934226
-0.000956296
-0.000978721
-0.00100149
-0.0010246
-0.00104804
-0.00107179
-0.00109584
-0.00112019
-0.00114479
-0.00116962
-0.00119469
-0.00122004
-0.00124566
-0.00127148
-0.00129748
-0.00132364
-0.00134994
-0.00137638
-0.00140295
-0.00142965
-0.00145647
-0.00148331
-0.00151014
-0.00153693
-0.0015637
-0.00159045
-0.00161716
-0.0016438
-0.00167037
-0.00169685
-0.00172321
-0.00174945
-0.00177561
-0.00180167
-0.00182758
-0.00185331
-0.00187875
-0.00190391
-0.0019288
-0.00195339
-0.00197764
-0.00200155
-0.00202511
-0.00204825
-0.00207092
-0.00209308
-0.00211473
-0.00213594
-0.00215673
-0.00217709
-0.00219701
-0.00221646
-0.00223544
-0.00225388
-0.0022717
-0.0022889
-0.00230549
-0.00232151
-0.00233695
-0.0023518
-0.00236599
-0.00237954
-0.00239248
-0.00240479
-0.00241644
-0.00242743
-0.0024378
-0.00244754
-0.00245665
-0.00246511
-0.00247287
-0.00247994
-0.00248636
-0.00249209
-0.00249708
-0.00250133
-0.00250488
-0.00250774
-0.00250991
-0.00251142
-0.00251224
-0.00251243
-0.00251212
-0.00251134
-0.00251005
-0.00250822
-0.00250586
-0.00250301
-0.00249969
-0.00249598
-0.00249191
-0.00248749
-0.0024828
-0.00247796
-0.00247308
-0.00246816
-0.00246319
-0.00245821
-0.00245326
-0.00244833
-0.00244297
-0.00243695
-0.000465901
-0.000454452
-0.000447092
-0.000442242
-0.000438967
-0.000436676
-0.000435108
-0.000434076
-0.000433842
-0.000434266
-0.000435286
-0.000436929
-0.000438981
-0.000441457
-0.00044442
-0.000447654
-0.000451226
-0.000455039
-0.000459081
-0.000463385
-0.000467953
-0.000472732
-0.000477842
-0.000483248
-0.000488943
-0.000495004
-0.000501445
-0.000508255
-0.000515454
-0.000523048
-0.000531041
-0.000539467
-0.000548346
-0.00055769
-0.000567525
-0.000577868
-0.000588705
-0.000600035
-0.00061187
-0.000624203
-0.000637075
-0.000650525
-0.000664538
-0.000679113
-0.000694261
-0.000709972
-0.000726223
-0.000742999
-0.000760307
-0.000778157
-0.000796515
-0.000815368
-0.000834724
-0.000854561
-0.000874825
-0.0008955
-0.000916607
-0.000938121
-0.000959983
-0.000982198
-0.00100479
-0.00102773
-0.00105098
-0.00107455
-0.00109842
-0.00112257
-0.00114694
-0.00117156
-0.00119644
-0.0012216
-0.00124701
-0.0012726
-0.00129838
-0.00132433
-0.00135042
-0.00137662
-0.00140298
-0.00142946
-0.00145604
-0.00148265
-0.00150924
-0.00153582
-0.00156239
-0.00158891
-0.00161539
-0.00164181
-0.00166816
-0.00169441
-0.00172054
-0.00174656
-0.00177251
-0.00179837
-0.00182407
-0.00184956
-0.0018748
-0.00189976
-0.00192443
-0.00194881
-0.00197285
-0.00199655
-0.00201992
-0.00204288
-0.00206535
-0.0020873
-0.0021088
-0.00212986
-0.00215047
-0.00217066
-0.00219042
-0.00220974
-0.00222858
-0.00224689
-0.00226458
-0.00228166
-0.00229816
-0.00231411
-0.00232947
-0.00234422
-0.00235833
-0.00237184
-0.00238473
-0.00239699
-0.00240859
-0.00241956
-0.00242992
-0.00243967
-0.00244879
-0.00245726
-0.00246505
-0.0024722
-0.00247869
-0.00248448
-0.00248952
-0.00249384
-0.00249749
-0.00250045
-0.00250273
-0.00250432
-0.00250523
-0.00250555
-0.00250538
-0.00250473
-0.00250354
-0.00250178
-0.00249951
-0.00249675
-0.00249351
-0.00248983
-0.00248575
-0.0024813
-0.00247655
-0.00247161
-0.00246655
-0.00246136
-0.00245604
-0.00245062
-0.00244516
-0.00243962
-0.00243347
-0.00242639
-0.000495691
-0.000481995
-0.000472659
-0.000465893
-0.000460783
-0.000456898
-0.0004539
-0.000451648
-0.000450087
-0.00044927
-0.000449238
-0.000449768
-0.000450903
-0.000452582
-0.000454681
-0.000457289
-0.000460284
-0.000463547
-0.000467185
-0.000471116
-0.000475286
-0.000479822
-0.000484671
-0.000489839
-0.000495396
-0.000501318
-0.000507621
-0.00051435
-0.000521462
-0.000528977
-0.000536933
-0.000545296
-0.000554116
-0.000563441
-0.000573245
-0.00058353
-0.000594323
-0.000605597
-0.00061736
-0.000629636
-0.000642447
-0.000655813
-0.000669736
-0.000684242
-0.000699319
-0.000714946
-0.000731103
-0.000747769
-0.000764962
-0.00078269
-0.000800929
-0.00081967
-0.000838907
-0.000858601
-0.00087872
-0.00089927
-0.000920245
-0.000941603
-0.000963296
-0.000985337
-0.00100776
-0.00103052
-0.0010536
-0.00107701
-0.00110073
-0.00112469
-0.00114887
-0.00117329
-0.001198
-0.00122296
-0.00124816
-0.00127356
-0.00129915
-0.0013249
-0.00135077
-0.00137677
-0.00140293
-0.00142922
-0.00145556
-0.00148194
-0.00150833
-0.00153471
-0.00156108
-0.0015874
-0.00161367
-0.00163989
-0.00166604
-0.00169206
-0.00171797
-0.0017438
-0.00176956
-0.00179523
-0.00182074
-0.00184603
-0.00187107
-0.00189585
-0.00192033
-0.00194449
-0.00196835
-0.00199189
-0.00201509
-0.00203785
-0.00206014
-0.00208193
-0.00210327
-0.00212418
-0.00214465
-0.00216468
-0.00218432
-0.00220353
-0.00222226
-0.00224043
-0.002258
-0.002275
-0.00229144
-0.00230731
-0.00232259
-0.00233726
-0.00235132
-0.00236478
-0.00237763
-0.00238983
-0.00240139
-0.00241234
-0.00242271
-0.00243246
-0.00244158
-0.00245006
-0.0024579
-0.00246512
-0.00247167
-0.0024775
-0.00248258
-0.00248698
-0.00249071
-0.00249376
-0.00249611
-0.00249777
-0.00249878
-0.00249921
-0.00249916
-0.00249859
-0.00249746
-0.00249577
-0.00249357
-0.00249087
-0.00248765
-0.00248396
-0.00247983
-0.00247532
-0.00247048
-0.0024654
-0.00246012
-0.00245463
-0.00244892
-0.00244306
-0.00243707
-0.0024309
-0.00242394
-0.00241581
-0.000521859
-0.000506603
-0.000495612
-0.000487382
-0.000480831
-0.000475558
-0.000471317
-0.0004679
-0.000465228
-0.000463404
-0.00046224
-0.000461875
-0.000462185
-0.000463
-0.000464414
-0.000466368
-0.000468707
-0.000471528
-0.000474707
-0.000478232
-0.000482105
-0.000486324
-0.000490895
-0.000495869
-0.000501242
-0.000507021
-0.00051321
-0.000519821
-0.000526853
-0.000534309
-0.000542194
-0.000550502
-0.000559278
-0.000568559
-0.000578325
-0.000588583
-0.000599336
-0.000610555
-0.000622258
-0.000634494
-0.000647249
-0.000660533
-0.000674384
-0.000688816
-0.000703814
-0.000719353
-0.000735429
-0.000752022
-0.00076912
-0.000786726
-0.000804857
-0.000823503
-0.000842623
-0.000862182
-0.000882187
-0.000902629
-0.000923464
-0.000944673
-0.000966241
-0.000988153
-0.00101041
-0.00103301
-0.00105594
-0.00107921
-0.00110278
-0.00112656
-0.00115057
-0.00117484
-0.00119937
-0.00122414
-0.00124915
-0.00127439
-0.0012998
-0.00132534
-0.00135102
-0.00137684
-0.00140282
-0.00142891
-0.00145505
-0.00148122
-0.00150742
-0.00153361
-0.00155977
-0.00158591
-0.00161201
-0.00163805
-0.00166399
-0.00168981
-0.00171553
-0.00174118
-0.00176678
-0.00179226
-0.00181758
-0.00184271
-0.00186759
-0.00189217
-0.00191647
-0.00194046
-0.00196416
-0.00198756
-0.00201059
-0.00203318
-0.00205529
-0.00207695
-0.00209816
-0.00211893
-0.00213925
-0.00215916
-0.00217871
-0.00219782
-0.00221644
-0.0022345
-0.00225198
-0.0022689
-0.00228529
-0.00230109
-0.00231629
-0.00233091
-0.00234493
-0.00235834
-0.00237114
-0.00238329
-0.00239482
-0.00240577
-0.00241614
-0.00242588
-0.002435
-0.00244352
-0.00245142
-0.00245869
-0.00246528
-0.00247114
-0.00247626
-0.00248073
-0.00248454
-0.00248767
-0.00249007
-0.00249179
-0.00249289
-0.00249342
-0.00249345
-0.00249293
-0.00249184
-0.0024902
-0.00248804
-0.00248537
-0.00248214
-0.00247839
-0.00247419
-0.00246959
-0.00246462
-0.00245935
-0.00245383
-0.00244802
-0.00244193
-0.00243561
-0.00242907
-0.00242227
-0.0024145
-0.00240535
-0.000545013
-0.000528399
-0.000516261
-0.000506791
-0.000499042
-0.000492706
-0.000487318
-0.000482834
-0.000479245
-0.000476382
-0.00047436
-0.000473148
-0.000472586
-0.000472754
-0.000473496
-0.00047477
-0.000476611
-0.000478889
-0.000481627
-0.000484798
-0.000488336
-0.000492254
-0.000496589
-0.000501331
-0.000506517
-0.000512155
-0.000518203
-0.000524709
-0.00053167
-0.000539043
-0.000546861
-0.000555137
-0.000563864
-0.000573093
-0.000582828
-0.00059305
-0.000603753
-0.000614931
-0.000626595
-0.000638781
-0.000651486
-0.000664716
-0.000678515
-0.000692878
-0.000707795
-0.000723251
-0.000739238
-0.000755751
-0.000772763
-0.000790285
-0.000808335
-0.000826883
-0.000845891
-0.000865346
-0.000885255
-0.000905588
-0.000926294
-0.000947375
-0.000968829
-0.000990619
-0.00101274
-0.00103521
-0.00105804
-0.00108117
-0.00110458
-0.0011282
-0.00115207
-0.00117619
-0.00120055
-0.00122515
-0.00125001
-0.00127509
-0.00130032
-0.00132567
-0.00135118
-0.00137685
-0.00140266
-0.00142856
-0.00145451
-0.0014805
-0.00150652
-0.00153252
-0.00155851
-0.00158449
-0.00161043
-0.00163629
-0.00166204
-0.00168767
-0.00171322
-0.00173871
-0.00176414
-0.00178946
-0.00181463
-0.0018396
-0.00186432
-0.00188874
-0.00191286
-0.00193671
-0.00196029
-0.00198355
-0.00200642
-0.00202885
-0.00205083
-0.00207237
-0.00209344
-0.00211408
-0.00213429
-0.00215412
-0.00217358
-0.0021926
-0.0022111
-0.00222907
-0.00224648
-0.00226335
-0.00227968
-0.00229542
-0.00231057
-0.00232515
-0.00233914
-0.00235252
-0.00236526
-0.00237738
-0.0023889
-0.00239985
-0.00241021
-0.00241994
-0.00242907
-0.00243763
-0.00244559
-0.00245291
-0.00245951
-0.00246539
-0.00247057
-0.0024751
-0.00247898
-0.00248214
-0.0024846
-0.00248639
-0.00248757
-0.00248818
-0.00248825
-0.00248776
-0.00248668
-0.00248507
-0.00248295
-0.00248027