/*--------------------------------*- C++ -*----------------------------------*\
  =========                 |
  \\      /  F ield         | OpenFOAM: The Open Source CFD Toolbox
   \\    /   O peration     | Website:  https://openfoam.org
    \\  /    A nd           | Version:  7
     \\/     M anipulation  |
\*---------------------------------------------------------------------------*/
FoamFile
{
    version     2.0;
    format      ascii;
    class       surfaceScalarField;
    location    "0.1375";
    object      phi;
}
// * * * * * * * * * * * * * * * * * * * * * * * * * * * * * * * * * * * * * //

dimensions      [0 3 -1 0 0 0 0];

internalField   nonuniform List<scalar> 
101920
(
-2.16129e-12
2.19687e-12
-2.47211e-12
3.11342e-13
9.87258e-13
-3.45933e-12
5.59769e-12
-4.60979e-12
9.93642e-12
-4.34329e-12
1.36907e-11
-3.74932e-12
1.68432e-11
-3.15275e-12
1.94675e-11
-2.62851e-12
2.16674e-11
-2.19647e-12
2.35159e-11
-1.85089e-12
2.51077e-11
-1.5949e-12
2.65068e-11
-1.40336e-12
2.77788e-11
-1.26875e-12
2.89781e-11
-1.2005e-12
3.01624e-11
-1.18472e-12
3.13682e-11
-1.20416e-12
3.26268e-11
-1.26046e-12
3.39688e-11
-1.34579e-12
3.54077e-11
-1.43744e-12
3.69529e-11
-1.54742e-12
3.8614e-11
-1.65839e-12
4.0389e-11
-1.77715e-12
4.2289e-11
-1.89933e-12
4.43056e-11
-2.01627e-12
4.64286e-11
-2.12542e-12
4.86569e-11
-2.22618e-12
5.0975e-11
-2.31838e-12
5.3376e-11
-2.40209e-12
5.58508e-11
-2.47306e-12
5.83853e-11
-2.53422e-12
6.09739e-11
-2.5887e-12
6.36084e-11
-2.63285e-12
6.62745e-11
-2.66609e-12
6.89678e-11
-2.69283e-12
7.16781e-11
-2.70844e-12
7.43963e-11
-2.71753e-12
7.71176e-11
-2.71958e-12
7.98361e-11
-2.71602e-12
8.25421e-11
-2.70564e-12
8.52356e-11
-2.69212e-12
8.79088e-11
-2.67035e-12
9.05537e-11
-2.64396e-12
9.31721e-11
-2.6169e-12
9.57605e-11
-2.58489e-12
9.83109e-11
-2.54946e-12
1.00823e-10
-2.51102e-12
1.03293e-10
-2.46836e-12
1.05714e-10
-2.42071e-12
1.08088e-10
-2.37396e-12
1.10415e-10
-2.32523e-12
1.12685e-10
-2.26984e-12
1.14893e-10
-2.21031e-12
1.17042e-10
-2.14935e-12
1.19128e-10
-2.08649e-12
1.21148e-10
-2.02281e-12
1.23104e-10
-1.95733e-12
1.24992e-10
-1.88778e-12
1.26803e-10
-1.81358e-12
1.2854e-10
-1.73853e-12
1.30207e-10
-1.66576e-12
1.31801e-10
-1.59281e-12
1.33317e-10
-1.51634e-12
1.34755e-10
-1.4366e-12
1.36113e-10
-1.35646e-12
1.3739e-10
-1.27722e-12
1.38591e-10
-1.1996e-12
1.39716e-10
-1.12418e-12
1.40761e-10
-1.04704e-12
1.4172e-10
-9.6259e-13
1.42591e-10
-8.72303e-13
1.43373e-10
-7.82237e-13
1.44067e-10
-6.95698e-13
1.44677e-10
-6.09405e-13
1.452e-10
-5.21979e-13
1.45637e-10
-4.35363e-13
1.45983e-10
-3.46226e-13
1.4624e-10
-2.54425e-13
1.46407e-10
-1.65068e-13
1.46484e-10
-7.93991e-14
1.46474e-10
7.41488e-15
1.46373e-10
9.80077e-14
1.46181e-10
1.90792e-13
1.45898e-10
2.8367e-13
1.45529e-10
3.72505e-13
1.45076e-10
4.56565e-13
1.44537e-10
5.39325e-13
1.43914e-10
6.2241e-13
1.43204e-10
7.08154e-13
1.42407e-10
7.96671e-13
1.41523e-10
8.83971e-13
1.40555e-10
9.68202e-13
1.39507e-10
1.04942e-12
1.3838e-10
1.12924e-12
1.37169e-10
1.21094e-12
1.35874e-10
1.29511e-12
1.34494e-10
1.38036e-12
1.33029e-10
1.46434e-12
1.31483e-10
1.54553e-12
1.2986e-10
1.62442e-12
1.28158e-10
1.70216e-12
1.26378e-10
1.78024e-12
1.24519e-10
1.85933e-12
1.22579e-10
1.93954e-12
1.20559e-10
2.01946e-12
1.18464e-10
2.0957e-12
1.16298e-10
2.16644e-12
1.14065e-10
2.23356e-12
1.11765e-10
2.30048e-12
1.09395e-10
2.36879e-12
1.06957e-10
2.43746e-12
1.04452e-10
2.50574e-12
1.01879e-10
2.57274e-12
9.92442e-11
2.6354e-12
9.65513e-11
2.69236e-12
9.38056e-11
2.74487e-12
9.10109e-11
2.79425e-12
8.81677e-11
2.84279e-12
8.52778e-11
2.89052e-12
8.23452e-11
2.9337e-12
7.93735e-11
2.9715e-12
7.63679e-11
3.00516e-12
7.33345e-11
3.03311e-12
7.02791e-11
3.05488e-12
6.72077e-11
3.072e-12
6.41252e-11
3.08369e-12
6.10359e-11
3.08954e-12
5.79438e-11
3.09184e-12
5.48523e-11
3.09072e-12
5.17685e-11
3.08325e-12
4.87008e-11
3.06831e-12
4.5655e-11
3.04691e-12
4.26368e-11
3.0191e-12
3.96527e-11
2.98479e-12
3.67065e-11
2.94552e-12
3.38039e-11
2.90156e-12
3.0953e-11
2.85128e-12
2.81593e-11
2.79439e-12
2.54297e-11
2.72982e-12
2.27758e-11
2.65414e-12
2.02082e-11
2.56721e-12
1.7735e-11
2.47239e-12
1.53657e-11
2.36953e-12
1.31113e-11
2.25554e-12
1.09817e-11
2.1304e-12
8.98622e-12
1.99549e-12
7.13557e-12
1.84971e-12
5.44126e-12
1.69277e-12
3.91447e-12
1.52611e-12
2.56586e-12
1.34856e-12
1.40851e-12
1.15742e-12
4.54974e-13
9.54372e-13
-2.8897e-13
7.44682e-13
-8.21384e-13
5.31233e-13
-1.14016e-12
3.16333e-13
-1.24765e-12
1.0633e-13
-1.15987e-12
-8.79441e-14
-9.08122e-13
-2.51767e-13
-5.44343e-13
-3.62859e-13
-1.73451e-13
-3.69492e-13
-1.72825e-13
-5.8243e-12
8.02133e-12
-9.68307e-12
4.16923e-12
-7.34365e-12
-5.79863e-12
-1.73122e-12
-1.0219e-11
4.95067e-12
-1.1025e-11
1.16292e-11
-1.04315e-11
1.7918e-11
-9.43748e-12
2.37126e-11
-8.42515e-12
2.90697e-11
-7.55658e-12
3.40717e-11
-6.85419e-12
3.8834e-11
-6.3493e-12
4.34427e-11
-6.01567e-12
4.80198e-11
-5.84656e-12
5.26266e-11
-5.81083e-12
5.73439e-11
-5.89827e-12
6.22204e-11
-6.08316e-12
6.73087e-11
-6.34704e-12
7.26263e-11
-6.65866e-12
7.81957e-11
-7.01234e-12
8.40304e-11
-7.37867e-12
9.01275e-11
-7.76049e-12
9.64915e-11
-8.13953e-12
1.03109e-10
-8.51603e-12
1.09968e-10
-8.87496e-12
1.17057e-10
-9.2137e-12
1.24352e-10
-9.52116e-12
1.31832e-10
-9.79998e-12
1.3948e-10
-1.00478e-11
1.47268e-10
-1.02626e-11
1.55179e-10
-1.04466e-11
1.63191e-10
-1.05988e-11
1.71278e-10
-1.0722e-11
1.79425e-10
-1.08135e-11
1.8761e-10
-1.08772e-11
1.95812e-10
-1.09139e-11
2.04016e-10
-1.09238e-11
2.12205e-10
-1.09092e-11
2.20358e-10
-1.08727e-11
2.28466e-10
-1.08157e-11
2.36515e-10
-1.07412e-11
2.44487e-10
-1.06472e-11
2.52375e-10
-1.05349e-11
2.60167e-10
-1.04103e-11
2.67848e-10
-1.02706e-11
2.75414e-10
-1.01175e-11
2.82857e-10
-9.953e-12
2.90161e-10
-9.77436e-12
2.9732e-10
-9.58285e-12
3.04331e-10
-9.38452e-12
3.11181e-10
-9.17519e-12
3.17861e-10
-8.95149e-12
3.24372e-10
-8.71784e-12
3.30701e-10
-8.47598e-12
3.36839e-10
-8.22451e-12
3.42786e-10
-7.96794e-12
3.48538e-10
-7.70527e-12
3.54082e-10
-7.43239e-12
3.59418e-10
-7.1498e-12
3.64544e-10
-6.86363e-12
3.69452e-10
-6.57631e-12
3.74137e-10
-6.28285e-12
3.78602e-10
-5.98223e-12
3.82841e-10
-5.67757e-12
3.86848e-10
-5.36892e-12
3.90625e-10
-5.05666e-12
3.94172e-10
-4.74495e-12
3.97481e-10
-4.43312e-12
4.00549e-10
-4.11399e-12
4.03375e-10
-3.78458e-12
4.05955e-10
-3.45027e-12
4.08287e-10
-3.11528e-12
4.10371e-10
-2.78082e-12
4.12209e-10
-2.44678e-12
4.13795e-10
-2.11067e-12
4.15127e-10
-1.77144e-12
4.16205e-10
-1.42698e-12
4.17029e-10
-1.07947e-12
4.176e-10
-7.34698e-13
4.17918e-10
-3.93196e-13
4.17982e-10
-5.16027e-14
4.17791e-10
2.92266e-13
4.17343e-10
6.37326e-13
4.16639e-10
9.82653e-13
4.15684e-10
1.32494e-12
4.14478e-10
1.66166e-12
4.13022e-10
1.9958e-12
4.11319e-10
2.33028e-12
4.09365e-10
2.66568e-12
4.0716e-10
3.00213e-12
4.04709e-10
3.33607e-12
4.02012e-10
3.66432e-12
3.99072e-10
3.98804e-12
3.95893e-10
4.30972e-12
3.92471e-10
4.63326e-12
3.88809e-10
4.9595e-12
3.84906e-10
5.28508e-12
3.80766e-10
5.60652e-12
3.76389e-10
5.92196e-12
3.7178e-10
6.23245e-12
3.66944e-10
6.53947e-12
3.61879e-10
6.84481e-12
3.5659e-10
7.15018e-12
3.51076e-10
7.45451e-12
3.45341e-10
7.75383e-12
3.39392e-10
8.04422e-12
3.33234e-10
8.32467e-12
3.26871e-10
8.59654e-12
3.2031e-10
8.86269e-12
3.13553e-10
9.12581e-12
3.06605e-10
9.38558e-12
2.9947e-10
9.63991e-12
2.92156e-10
9.88678e-12
2.8467e-10
1.0122e-11
2.77022e-10
1.03418e-11
2.6922e-10
1.05475e-11
2.61272e-10
1.0742e-11
2.53188e-10
1.09264e-11
2.44975e-10
1.11014e-11
2.36645e-10
1.12643e-11
2.28207e-10
1.141e-11
2.19676e-10
1.15372e-11
2.11064e-10
1.16461e-11
2.02384e-10
1.1735e-11
1.93651e-10
1.1804e-11
1.8488e-10
1.18547e-11
1.76083e-10
1.18873e-11
1.67276e-10
1.19011e-11
1.58473e-10
1.18946e-11
1.49691e-10
1.18651e-11
1.40947e-10
1.18108e-11
1.32261e-10
1.17325e-11
1.23649e-10
1.16307e-11
1.15131e-10
1.15042e-11
1.06726e-10
1.13523e-11
9.84516e-11
1.1176e-11
9.03276e-11
1.09744e-11
8.23775e-11
1.07444e-11
7.46254e-11
1.04824e-11
6.70947e-11
1.01858e-11
5.98105e-11
9.85234e-12
5.28006e-11
9.48214e-12
4.60918e-11
9.07677e-12
3.97103e-11
8.63541e-12
3.36842e-11
8.15539e-12
2.80436e-11
7.63669e-12
2.28153e-11
7.08029e-12
1.80241e-11
6.48504e-12
1.36989e-11
5.85013e-12
9.86804e-12
5.17731e-12
6.55356e-12
4.46954e-12
3.77439e-12
3.7315e-12
1.54695e-12
2.97179e-12
-1.21812e-13
2.20166e-12
-1.24093e-12
1.4361e-12
-1.83342e-12
6.97657e-13
-1.94275e-12
1.95305e-14
-1.6475e-12
-5.49723e-13
-1.07346e-12
-9.40354e-13
-4.12244e-13
-1.03451e-12
-5.84238e-13
-7.36689e-12
1.53883e-11
-1.4293e-11
1.10965e-11
-1.52667e-11
-4.82479e-12
-1.19727e-11
-1.3517e-11
-6.3743e-12
-1.66237e-11
3.18066e-13
-1.71225e-11
7.43839e-12
-1.65606e-11
1.46958e-11
-1.56823e-11
2.1999e-11
-1.48515e-11
2.93576e-11
-1.42108e-11
3.68176e-11
-1.38151e-11
4.44684e-11
-1.36593e-11
5.23459e-11
-1.37248e-11
6.05262e-11
-1.39917e-11
6.90489e-11
-1.44245e-11
7.79452e-11
-1.49778e-11
8.72302e-11
-1.56342e-11
9.6924e-11
-1.63536e-11
1.07023e-10
-1.71078e-11
1.17525e-10
-1.78804e-11
1.28414e-10
-1.86485e-11
1.39676e-10
-1.94019e-11
1.51288e-10
-2.01293e-11
1.63224e-10
-2.08123e-11
1.75458e-10
-2.14479e-11
1.87964e-10
-2.20276e-11
2.00711e-10
-2.2546e-11
2.13668e-10
-2.30045e-11
2.26804e-10
-2.33981e-11
2.40088e-10
-2.37279e-11
2.53491e-10
-2.40019e-11
2.6698e-10
-2.42115e-11
2.80533e-10
-2.43622e-11
2.94114e-10
-2.44581e-11
3.07702e-10
-2.44999e-11
3.2127e-10
-2.4487e-11
3.34791e-10
-2.44297e-11
3.48243e-10
-2.43242e-11
3.61607e-10
-2.41752e-11
3.74855e-10
-2.39879e-11
3.87974e-10
-2.37636e-11
4.00943e-10
-2.35007e-11
4.13742e-10
-2.3208e-11
4.26358e-10
-2.28866e-11
4.38775e-10
-2.25315e-11
4.50975e-10
-2.21519e-11
4.62945e-10
-2.17459e-11
4.74678e-10
-2.13138e-11
4.86154e-10
-2.08601e-11
4.97359e-10
-2.03848e-11
5.08291e-10
-1.98843e-11
5.18934e-10
-1.93617e-11
5.29277e-10
-1.88222e-11
5.39314e-10
-1.82645e-11
5.49037e-10
-1.769e-11
5.5843e-10
-1.71012e-11
5.6749e-10
-1.64948e-11
5.76215e-10
-1.58721e-11
5.84592e-10
-1.52403e-11
5.92615e-10
-1.46006e-11
6.00282e-10
-1.39479e-11
6.07585e-10
-1.32831e-11
6.14516e-10
-1.261e-11
6.21075e-10
-1.19277e-11
6.27257e-10
-1.12385e-11
6.33056e-10
-1.05473e-11
6.38468e-10
-9.85028e-12
6.43493e-10
-9.14024e-12
6.48127e-10
-8.41822e-12
6.52365e-10
-7.68927e-12
6.56205e-10
-6.95598e-12
6.59646e-10
-6.21976e-12
6.62684e-10
-5.48286e-12
6.65317e-10
-4.7434e-12
6.67546e-10
-3.99832e-12
6.69369e-10
-3.24833e-12
6.70782e-10
-2.49579e-12
6.71787e-10
-1.7441e-12
6.72384e-10
-9.9196e-13
6.72571e-10
-2.3819e-13
6.72349e-10
5.16641e-13
6.71719e-10
1.27165e-12
6.7068e-10
2.02454e-12
6.69232e-10
2.7728e-12
6.67376e-10
3.51653e-12
6.65111e-10
4.25755e-12
6.62443e-10
4.99859e-12
6.59371e-10
5.73956e-12
6.55895e-10
6.47898e-12
6.52019e-10
7.2141e-12
6.47744e-10
7.94157e-12
6.43071e-10
8.66207e-12
6.38001e-10
9.37911e-12
6.32539e-10
1.00954e-11
6.26687e-10
1.08114e-11
6.20449e-10
1.1524e-11
6.13827e-10
1.22299e-11
6.06823e-10
1.29265e-11
5.99443e-10
1.36137e-11
5.91689e-10
1.42934e-11
5.83566e-10
1.4967e-11
5.75081e-10
1.56354e-11
5.6624e-10
1.62972e-11
5.57046e-10
1.6948e-11
5.47508e-10
1.75834e-11
5.37631e-10
1.82021e-11
5.27421e-10
1.88055e-11
5.16888e-10
1.93957e-11
5.06041e-10
1.9973e-11
4.94891e-10
2.05366e-11
4.83446e-10
2.10849e-11
4.71717e-10
2.16145e-11
4.59717e-10
2.21214e-11
4.47457e-10
2.2602e-11
4.34949e-10
2.30554e-11
4.22209e-10
2.34833e-11
4.09249e-10
2.38866e-11
3.96088e-10
2.42632e-11
3.82741e-10
2.461e-11
3.69226e-10
2.49242e-11
3.5556e-10
2.52026e-11
3.41765e-10
2.54424e-11
3.2786e-10
2.56416e-11
3.13864e-10
2.57995e-11
2.99801e-10
2.59166e-11
2.85695e-10
2.59929e-11
2.71569e-10
2.60266e-11
2.5745e-10
2.60147e-11
2.43364e-10
2.59531e-11
2.29335e-10
2.58394e-11
2.15395e-10
2.56728e-11
2.01572e-10
2.54524e-11
1.87898e-10
2.51774e-11
1.74404e-10
2.48462e-11
1.61125e-10
2.44559e-11
1.48096e-10
2.40043e-11
1.35351e-10
2.34894e-11
1.22926e-10
2.29057e-11
1.10864e-10
2.2248e-11
9.92016e-11
2.15152e-11
8.79788e-11
2.07063e-11
7.72376e-11
1.98184e-11
6.70217e-11
1.88504e-11
5.73726e-11
1.78034e-11
4.83309e-11
1.66767e-11
3.99401e-11
1.54698e-11
3.2242e-11
1.41837e-11
2.52734e-11
1.28204e-11
1.90681e-11
1.1383e-11
1.36581e-11
9.87833e-12
9.06916e-12
8.31925e-12
5.3144e-12
6.72455e-12
2.39614e-12
5.1178e-12
3.01963e-13
3.53001e-12
-1.0053e-12
2.00652e-12
-1.59786e-12
6.13286e-13
-1.58583e-12
-5.61692e-13
-1.12868e-12
-1.39731e-12
-4.63177e-13
-1.70241e-12
-1.04697e-12
-6.27559e-12
2.16616e-11
-1.33002e-11
1.81181e-11
-1.58519e-11
-2.27288e-12
-1.43457e-11
-1.50225e-11
-1.00293e-11
-2.09419e-11
-3.86797e-12
-2.32856e-11
3.46184e-12
-2.38806e-11
1.15862e-11
-2.38152e-11
2.03049e-11
-2.35714e-11
2.95527e-11
-2.34627e-11
3.93082e-11
-2.35689e-11
4.95884e-11
-2.39405e-11
6.04131e-11
-2.45529e-11
7.18118e-11
-2.53872e-11
8.37832e-11
-2.63954e-11
9.63512e-11
-2.75464e-11
1.09503e-10
-2.87851e-11
1.23228e-10
-3.00817e-11
1.37518e-10
-3.1397e-11
1.52347e-10
-3.27119e-11
1.6769e-10
-3.39893e-11
1.83515e-10
-3.52279e-11
1.99782e-10
-3.63961e-11
2.16466e-10
-3.74946e-11
2.3352e-10
-3.8504e-11
2.50908e-10
-3.94156e-11
2.68595e-10
-4.0232e-11
2.86534e-10
-4.09455e-11
3.04692e-10
-4.15555e-11
3.2303e-10
-4.20658e-11
3.41502e-10
-4.24756e-11
3.60077e-10
-4.27856e-11
3.78716e-10
-4.30023e-11
3.97381e-10
-4.31253e-11
4.16042e-10
-4.31594e-11
4.34663e-10
-4.31103e-11
4.53212e-10
-4.29798e-11
4.71661e-10
-4.27728e-11
4.89979e-10
-4.24946e-11
5.08137e-10
-4.21488e-11
5.26113e-10
-4.17376e-11
5.43878e-10
-4.12662e-11
5.61408e-10
-4.07404e-11
5.78684e-10
-4.01612e-11
5.95684e-10
-3.95305e-11
6.12384e-10
-3.88542e-11
6.2877e-10
-3.81308e-11
6.44823e-10
-3.73643e-11
6.60523e-10
-3.65608e-11
6.75857e-10
-3.57181e-11
6.90811e-10
-3.48355e-11
7.05368e-10
-3.39196e-11
7.19516e-10
-3.29704e-11
7.33245e-10
-3.19901e-11
7.46538e-10
-3.09836e-11
7.59386e-10
-2.99511e-11
7.7178e-10
-2.88892e-11
7.83712e-10
-2.78035e-11
7.95167e-10
-2.66994e-11
8.06142e-10
-2.55753e-11
8.16628e-10
-2.44329e-11
8.26617e-10
-2.32742e-11
8.36103e-10
-2.20982e-11
8.45082e-10
-2.09046e-11
8.53545e-10
-1.96992e-11
8.61483e-10
-1.84853e-11
8.68892e-10
-1.72592e-11
8.75771e-10
-1.60186e-11
8.82117e-10
-1.47664e-11
8.8793e-10
-1.35033e-11
8.93204e-10
-1.22297e-11
8.97933e-10
-1.09493e-11
9.02112e-10
-9.66443e-12
9.0574e-10
-8.37318e-12
9.08818e-10
-7.07429e-12
9.11345e-10
-5.77212e-12
9.13318e-10
-4.46805e-12
9.14738e-10
-3.16241e-12
9.15601e-10
-1.85546e-12
9.15905e-10
-5.45598e-13
9.15653e-10
7.66247e-13
9.14847e-10
2.07848e-12
9.13485e-10
3.3884e-12
9.11567e-10
4.69298e-12
9.09092e-10
5.99236e-12
9.06062e-10
7.28816e-12
9.02479e-10
8.58188e-12
8.98345e-10
9.87366e-12
8.93661e-10
1.11619e-11
8.88431e-10
1.24443e-11
8.82657e-10
1.37178e-11
8.76338e-10
1.49821e-11
8.69478e-10
1.62396e-11
8.62083e-10
1.74919e-11
8.54156e-10
1.87387e-11
8.45702e-10
1.99779e-11
8.36726e-10
2.12063e-11
8.2723e-10
2.24224e-11
8.17221e-10
2.36237e-11
8.06705e-10
2.48105e-11
7.95687e-10
2.59847e-11
7.84176e-10
2.7146e-11
7.72181e-10
2.82923e-11
7.59709e-10
2.94194e-11
7.4677e-10
3.0523e-11
7.33371e-10
3.16016e-11
7.19521e-10
3.2655e-11
7.05233e-10
3.3683e-11
6.90521e-10
3.46854e-11
6.75397e-10
3.56606e-11
6.59876e-10
3.66061e-11
6.43974e-10
3.75177e-11
6.27704e-10
3.83906e-11
6.11083e-10
3.92215e-11
5.94129e-10
4.00093e-11
5.76859e-10
4.07528e-11
5.59296e-10
4.14503e-11
5.41461e-10
4.20991e-11
5.23376e-10
4.26953e-11
5.05064e-10
4.32351e-11
4.86551e-10
4.37151e-11
4.67862e-10
4.41317e-11
4.49023e-10
4.44812e-11
4.30063e-10
4.47606e-11
4.11011e-10
4.49686e-11
3.919e-10
4.51041e-11
3.72762e-10
4.51639e-11
3.53632e-10
4.51437e-11
3.34547e-10
4.50388e-11
3.15542e-10
4.4845e-11
2.96656e-10
4.45599e-11
2.77928e-10
4.41806e-11
2.59402e-10
4.37031e-11
2.41122e-10
4.31253e-11
2.23133e-10
4.2445e-11
2.05483e-10
4.16564e-11
1.88219e-10
4.07533e-11
1.71393e-10
3.97318e-11
1.55053e-10
3.85876e-11
1.39251e-10
3.73157e-11
1.24043e-10
3.59141e-11
1.09482e-10
3.43808e-11
9.56198e-11
3.27132e-11
8.25129e-11
3.091e-11
7.02167e-11
2.89728e-11
5.87817e-11
2.69042e-11
4.82561e-11
2.4707e-11
3.86901e-11
2.23851e-11
3.01272e-11
1.9947e-11
2.25991e-11
1.74072e-11
1.61313e-11
1.47868e-11
1.07411e-11
1.21144e-11
6.42825e-12
9.42945e-12
3.16959e-12
6.7866e-12
9.16594e-13
4.25833e-12
-4.11632e-13
1.94162e-12
-9.4142e-13
-3.21579e-14
-8.4922e-13
-1.48877e-12
-3.90797e-13
-2.16187e-12
-1.43764e-12
-4.24135e-12
2.59076e-11
-9.74346e-12
2.36216e-11
-1.23238e-11
3.09636e-13
-1.15512e-11
-1.5792e-11
-7.94074e-12
-2.45524e-11
-2.12597e-12
-2.91028e-11
5.39374e-12
-3.14041e-11
1.42329e-11
-3.2655e-11
2.41788e-11
-3.35175e-11
3.50821e-11
-3.43674e-11
4.68778e-11
-3.53664e-11
5.95308e-11
-3.65943e-11
7.30232e-11
-3.80434e-11
8.73356e-11
-3.97044e-11
1.02468e-10
-4.15261e-11
1.18384e-10
-4.34628e-11
1.35073e-10
-4.5476e-11
1.52505e-10
-4.7514e-11
1.70648e-10
-4.95423e-11
1.89465e-10
-5.15274e-11
2.08921e-10
-5.34456e-11
2.28963e-10
-5.527e-11
2.49555e-10
-5.69867e-11
2.7064e-10
-5.85801e-11
2.92173e-10
-6.0037e-11
3.14113e-10
-6.13543e-11
3.36402e-10
-6.25222e-11
3.58997e-10
-6.35391e-11
3.81849e-10
-6.44058e-11
4.04907e-10
-6.5125e-11
4.28127e-10
-6.56929e-11
4.51465e-10
-6.6122e-11
4.74871e-10
-6.64084e-11
4.98307e-10
-6.65583e-11
5.21727e-10
-6.65796e-11
5.45093e-10
-6.64764e-11
5.68366e-10
-6.62504e-11
5.91509e-10
-6.59148e-11
6.14485e-10
-6.5471e-11
6.37261e-10
-6.49237e-11
6.59804e-10
-6.42803e-11
6.82084e-10
-6.35465e-11
7.0407e-10
-6.27261e-11
7.25735e-10
-6.18241e-11
7.47051e-10
-6.08485e-11
7.67995e-10
-5.97978e-11
7.88543e-10
-5.86781e-11
8.08672e-10
-5.74948e-11
8.28359e-10
-5.62493e-11
8.47588e-10
-5.49447e-11
8.66336e-10
-5.35853e-11
8.84589e-10
-5.2174e-11
9.0233e-10
-5.0711e-11
9.19543e-10
-4.92027e-11
9.36211e-10
-4.76529e-11
9.52323e-10
-4.60614e-11
9.67866e-10
-4.44306e-11
9.82827e-10
-4.27656e-11
9.97195e-10
-4.10681e-11
1.01096e-09
-3.93386e-11
1.02411e-09
-3.75824e-11
1.03663e-09
-3.58018e-11
1.04853e-09
-3.39953e-11
1.05979e-09
-3.21658e-11
1.07041e-09
-3.03165e-11
1.08037e-09
-2.84485e-11
1.08967e-09
-2.6561e-11
1.09831e-09
-2.46552e-11
1.10628e-09
-2.27345e-11
1.11357e-09
-2.07992e-11
1.1202e-09
-1.88505e-11
1.12614e-09
-1.68917e-11
1.1314e-09
-1.49235e-11
1.13597e-09
-1.29451e-11
1.13985e-09
-1.09566e-11
1.14304e-09
-8.96233e-12
1.14554e-09
-6.9649e-12
1.14734e-09
-4.96399e-12
1.14845e-09
-2.9618e-12
1.14886e-09
-9.56922e-13
1.14858e-09
1.05058e-12
1.1476e-09
3.05841e-12
1.14592e-09
5.06424e-12
1.14355e-09
7.06582e-12
1.14048e-09
9.06192e-12
1.13671e-09
1.10531e-11
1.13226e-09
1.30398e-11
1.12711e-09
1.50218e-11
1.12127e-09
1.69977e-11
1.11475e-09
1.89652e-11
1.10755e-09
2.09216e-11
1.09967e-09
2.28667e-11
1.0911e-09
2.48016e-11
1.08187e-09
2.67255e-11
1.07197e-09
2.86375e-11
1.06142e-09
3.05366e-11
1.0502e-09
3.24195e-11
1.03834e-09
3.42838e-11
1.02584e-09
3.61275e-11
1.0127e-09
3.79492e-11
9.98936e-10
3.97492e-11
9.84556e-10
4.15262e-11
9.69571e-10
4.32774e-11
9.53991e-10
4.49992e-11
9.37827e-10
4.66872e-11
9.2109e-10
4.83389e-11
9.03793e-10
4.99526e-11
8.8595e-10
5.15258e-11
8.67578e-10
5.30572e-11
8.48694e-10
5.45449e-11
8.29315e-10
5.59849e-11
8.0946e-10
5.73725e-11
7.8915e-10
5.87019e-11
7.68403e-10
5.99686e-11
7.47241e-10
6.11703e-11
7.25689e-10
6.23046e-11
7.03771e-10
6.33676e-11
6.81515e-10
6.43547e-11
6.58951e-10
6.52609e-11
6.36104e-10
6.60816e-11
6.13007e-10
6.68124e-11
5.89691e-10
6.74474e-11
5.6619e-10
6.79814e-11
5.4254e-10
6.84109e-11
5.18777e-10
6.87326e-11
4.9494e-10
6.89419e-11
4.71071e-10
6.90329e-11
4.47214e-10
6.90005e-11
4.23411e-10
6.88406e-11
3.99708e-10
6.85471e-11
3.76156e-10
6.81129e-11
3.52803e-10
6.75338e-11
3.297e-10
6.68056e-11
3.06903e-10
6.59222e-11
2.84469e-10
6.48787e-11
2.62455e-10
6.36704e-11
2.40919e-10
6.22894e-11
2.19924e-10
6.07274e-11
1.99531e-10
5.898e-11
1.79804e-10
5.70435e-11
1.60803e-10
5.49137e-11
1.42596e-10
5.25865e-11
1.25249e-10
5.00603e-11
1.08825e-10
4.73355e-11
9.33839e-11
4.44135e-11
7.89906e-11
4.12978e-11
6.57031e-11
3.79945e-11
5.35728e-11
3.45142e-11
4.26465e-11
3.08718e-11
3.29646e-11
2.70888e-11
2.45557e-11
2.31963e-11
1.74323e-11
1.92381e-11
1.1591e-11
1.52709e-11
7.00855e-12
1.13693e-11
3.6319e-12
7.63484e-12
1.37271e-12
4.20032e-12
1.02073e-13
1.2379e-12
-3.54432e-13
-1.03145e-12
-2.48528e-13
-2.26777e-12
-1.68614e-12
-2.33068e-12
2.82345e-11
-5.77719e-12
2.70668e-11
-7.48466e-12
2.01334e-12
-6.59653e-12
-1.66807e-11
-3.08438e-12
-2.80703e-11
2.79031e-12
-3.49733e-11
1.06959e-11
-3.93099e-11
2.03231e-11
-4.22784e-11
3.14612e-11
-4.4653e-11
4.39297e-11
-4.68376e-11
5.76521e-11
-4.90852e-11
7.25257e-11
-5.14667e-11
8.85092e-11
-5.40303e-11
1.05556e-10
-5.67507e-11
1.23624e-10
-5.95933e-11
1.42682e-10
-6.25203e-11
1.6268e-10
-6.54722e-11
1.83572e-10
-6.84074e-11
2.05323e-10
-7.12907e-11
2.2787e-10
-7.40772e-11
2.51168e-10
-7.67447e-11
2.75162e-10
-7.92627e-11
2.99792e-10
-8.16191e-11
3.25005e-10
-8.37923e-11
3.50743e-10
-8.5774e-11
3.76943e-10
-8.75557e-11
4.03553e-10
-8.91311e-11
4.30515e-10
-9.05008e-11
4.5777e-10
-9.16631e-11
4.85266e-10
-9.26193e-11
5.12947e-10
-9.33736e-11
5.40755e-10
-9.3932e-11
5.68646e-10
-9.42971e-11
5.96564e-10
-9.44757e-11
6.2446e-10
-9.44776e-11
6.5229e-10
-9.4305e-11
6.80007e-10
-9.39674e-11
7.07566e-10
-9.34748e-11
7.34927e-10
-9.28311e-11
7.62049e-10
-9.20444e-11
7.88893e-10
-9.11254e-11
8.15424e-10
-9.00775e-11
8.41607e-10
-8.89071e-11
8.67406e-10
-8.76249e-11
8.92792e-10
-8.62344e-11
9.17735e-10
-8.47388e-11
9.42206e-10
-8.31493e-11
9.66179e-10
-8.14682e-11
9.89628e-10
-7.96976e-11
1.01253e-09
-7.78459e-11
1.03486e-09
-7.59173e-11
1.0566e-09
-7.39133e-11
1.07773e-09
-7.18415e-11
1.09823e-09
-6.97059e-11
1.11809e-09
-6.75075e-11
1.13728e-09
-6.52516e-11
1.15579e-09
-6.29442e-11
1.17361e-09
-6.05871e-11
1.19073e-09
-5.81827e-11
1.20712e-09
-5.57362e-11
1.22279e-09
-5.32504e-11
1.23772e-09
-5.07265e-11
1.25189e-09
-4.81677e-11
1.2653e-09
-4.55802e-11
1.27795e-09
-4.29644e-11
1.28982e-09
-4.03195e-11
1.30091e-09
-3.76488e-11
1.31121e-09
-3.49544e-11
1.32071e-09
-3.22374e-11
1.32941e-09
-2.95001e-11
1.33731e-09
-2.67461e-11
1.34439e-09
-2.39782e-11
1.35067e-09
-2.1196e-11
1.35613e-09
-1.84007e-11
1.36076e-09
-1.55942e-11
1.36458e-09
-1.27784e-11
1.36757e-09
-9.95646e-12
1.36973e-09
-7.12847e-12
1.37107e-09
-4.29711e-12
1.37158e-09
-1.46352e-12
1.37126e-09
1.3728e-12
1.37011e-09
4.20919e-12
1.36813e-09
7.04307e-12
1.36532e-09
9.8733e-12
1.36168e-09
1.26979e-11
1.35722e-09
1.55164e-11
1.35193e-09
1.83287e-11
1.34582e-09
2.11338e-11
1.33889e-09
2.39292e-11
1.33114e-09
2.67127e-11
1.32258e-09
2.94823e-11
1.31321e-09
3.22369e-11
1.30304e-09
3.49768e-11
1.29206e-09
3.77002e-11
1.2803e-09
4.04051e-11
1.26774e-09
4.30901e-11
1.25441e-09
4.5752e-11
1.24031e-09
4.83871e-11
1.22544e-09
5.09936e-11
1.20982e-09
5.35692e-11
1.19346e-09
5.6113e-11
1.17636e-09
5.86223e-11
1.15855e-09
6.10927e-11
1.14003e-09
6.35205e-11
1.12081e-09
6.59021e-11
1.10092e-09
6.82334e-11
1.08036e-09
7.05108e-11
1.05916e-09
7.27303e-11
1.03732e-09
7.4889e-11
1.01488e-09
7.69841e-11
9.91859e-10
7.90102e-11
9.6827e-10
8.09614e-11
9.4414e-10
8.28315e-11
9.19494e-10
8.46147e-11
8.94358e-10
8.63069e-11
8.68759e-10
8.79034e-11
8.42729e-10
8.93975e-11
8.16298e-10
9.0784e-11
7.89502e-10
9.20578e-11
7.62372e-10
9.32118e-11
7.34946e-10
9.42383e-11
7.07263e-10
9.51306e-11
6.79361e-10
9.58827e-11
6.51282e-10
9.64889e-11
6.23072e-10
9.69427e-11
5.94777e-10
9.72374e-11
5.66444e-10
9.73663e-11
5.38123e-10
9.7321e-11
5.0987e-10
9.70939e-11
4.81737e-10
9.66793e-11
4.53779e-10
9.60695e-11
4.26058e-10
9.52549e-11
3.98635e-10
9.42284e-11
3.71573e-10
9.29848e-11
3.44935e-10
9.15162e-11
3.18791e-10
8.98133e-11
2.93212e-10
8.78684e-11
2.68265e-10
8.56741e-11
2.44022e-10
8.32232e-11
2.20557e-10
8.05093e-11
1.97943e-10
7.7528e-11
1.76252e-10
7.42763e-11
1.55558e-10
7.07527e-11
1.35935e-10
6.69577e-11
1.17455e-10
6.28945e-11
1.00182e-10
5.85703e-11
8.41818e-11
5.39951e-11
6.95139e-11
4.91826e-11
5.62298e-11
4.41559e-11
4.43691e-11
3.89482e-11
3.39621e-11
3.36025e-11
2.50258e-11
2.81746e-11
1.75574e-11
2.27396e-11
1.15301e-11
1.73969e-11
6.8915e-12
1.22738e-11
3.55764e-12
7.53418e-12
1.40683e-12
3.38813e-12
2.74504e-13
1.01413e-13
-6.82547e-14
-1.92444e-12
-1.75425e-12
-7.77545e-13
2.90144e-11
-2.21802e-12
2.85053e-11
-2.67151e-12
2.47072e-12
-1.09584e-12
-1.82504e-11
2.858e-12
-3.20292e-11
9.19715e-12
-4.13103e-11
1.77533e-11
-4.7865e-11
2.83233e-11
-5.28531e-11
4.07178e-11
-5.70472e-11
5.47776e-11
-6.08984e-11
7.03657e-11
-6.46734e-11
8.7383e-11
-6.84872e-11
1.05764e-10
-7.24046e-11
1.25413e-10
-7.64038e-11
1.46288e-10
-8.04695e-11
1.68322e-10
-8.45496e-11
1.91452e-10
-8.86061e-11
2.15632e-10
-9.25836e-11
2.40784e-10
-9.6445e-11
2.66859e-10
-1.00151e-10
2.93789e-10
-1.03674e-10
3.2151e-10
-1.06985e-10
3.49954e-10
-1.10063e-10
3.79057e-10
-1.12895e-10
4.08752e-10
-1.1547e-10
4.38972e-10
-1.17775e-10
4.69654e-10
-1.19813e-10
5.00728e-10
-1.21576e-10
5.32135e-10
-1.23069e-10
5.63809e-10
-1.24292e-10
5.95688e-10
-1.25254e-10
6.27712e-10
-1.25955e-10
6.59823e-10
-1.26407e-10
6.91962e-10
-1.26616e-10
7.24075e-10
-1.26589e-10
7.56108e-10
-1.26337e-10
7.88009e-10
-1.2587e-10
8.19728e-10
-1.25194e-10
8.51219e-10
-1.24321e-10
8.82433e-10
-1.2326e-10
9.1333e-10
-1.22021e-10
9.43866e-10
-1.20612e-10
9.73999e-10
-1.19042e-10
1.00369e-09
-1.17321e-10
1.03292e-09
-1.15453e-10
1.06163e-09
-1.1345e-10
1.08979e-09
-1.11318e-10
1.11739e-09
-1.09062e-10
1.14438e-09
-1.06691e-10
1.17075e-09
-1.0421e-10
1.19645e-09
-1.01625e-10
1.22148e-09
-9.89413e-11
1.24581e-09
-9.61678e-11
1.26941e-09
-9.33079e-11
1.29227e-09
-9.03653e-11
1.31437e-09
-8.73472e-11
1.33568e-09
-8.4259e-11
1.3562e-09
-8.1104e-11
1.3759e-09
-7.78877e-11
1.39478e-09
-7.46159e-11
1.41282e-09
-7.12902e-11
1.43001e-09
-6.79135e-11
1.44633e-09
-6.44915e-11
1.46178e-09
-6.1029e-11
1.47634e-09
-5.75276e-11
1.49002e-09
-5.39891e-11
1.50278e-09
-5.04183e-11
1.51465e-09
-4.68165e-11
1.52559e-09
-4.31843e-11
1.53562e-09
-3.95264e-11
1.54472e-09
-3.58465e-11
1.55289e-09
-3.21461e-11
1.56012e-09
-2.84263e-11
1.56641e-09
-2.46902e-11
1.57176e-09
-2.09413e-11
1.57616e-09
-1.718e-11
1.57961e-09
-1.34094e-11
1.58211e-09
-9.63144e-12
1.58366e-09
-5.84687e-12
1.58426e-09
-2.0587e-12
1.5839e-09
1.73221e-12
1.58259e-09
5.52351e-12
1.58032e-09
9.31172e-12
1.5771e-09
1.30957e-11
1.57292e-09
1.68738e-11
1.56779e-09
2.06442e-11
1.56172e-09
2.44064e-11
1.55469e-09
2.81589e-11
1.54672e-09
3.18981e-11
1.53781e-09
3.56215e-11
1.52797e-09
3.93276e-11
1.51719e-09
4.3014e-11
1.50549e-09
4.66795e-11
1.49287e-09
5.03224e-11
1.47933e-09
5.39399e-11
1.46489e-09
5.75297e-11
1.44956e-09
6.10879e-11
1.43334e-09
6.46098e-11
1.41624e-09
6.80931e-11
1.39827e-09
7.15356e-11
1.37945e-09
7.49338e-11
1.35979e-09
7.8284e-11
1.3393e-09
8.15813e-11
1.318e-09
8.48212e-11
1.2959e-09
8.79991e-11
1.27303e-09
9.11096e-11
1.24939e-09
9.41479e-11
1.22501e-09
9.71087e-11
1.19991e-09
9.99876e-11
1.17412e-09
1.0278e-10
1.14765e-09
1.05478e-10
1.12053e-09
1.08076e-10
1.0928e-09
1.10565e-10
1.06447e-09
1.12941e-10
1.03559e-09
1.15195e-10
1.00617e-09
1.1732e-10
9.76258e-10
1.19309e-10
9.45888e-10
1.21154e-10
9.15098e-10
1.22847e-10
8.83928e-10
1.24382e-10
8.52418e-10
1.25748e-10
8.20613e-10
1.26936e-10
7.8856e-10
1.27936e-10
7.56306e-10
1.28743e-10
7.239e-10
1.29348e-10
6.91396e-10
1.29741e-10
6.58851e-10
1.29911e-10
6.26322e-10
1.2985e-10
5.93868e-10
1.29549e-10
5.6155e-10
1.28997e-10
5.29435e-10
1.28183e-10
4.97589e-10
1.271e-10
4.66081e-10
1.25737e-10
4.34982e-10
1.24083e-10
4.04369e-10
1.2213e-10
3.74315e-10
1.19868e-10
3.44896e-10
1.17286e-10
3.16194e-10
1.14375e-10
2.8829e-10
1.11128e-10
2.61261e-10
1.07538e-10
2.35189e-10
1.03599e-10
2.10159e-10
9.93074e-11
1.8625e-10
9.46621e-11
1.63539e-10
8.96671e-11
1.42105e-10
8.43278e-11
1.22023e-10
7.86525e-11
1.03362e-10
7.26559e-11
8.61841e-11
6.63605e-11
7.05439e-11
5.97968e-11
5.64866e-11
5.30054e-11
4.40461e-11
4.60423e-11
3.32397e-11
3.89811e-11
2.40663e-11
3.19136e-11
1.65044e-11
2.49594e-11
1.05077e-11
1.82713e-11
5.99952e-12
1.20429e-11
2.87175e-12
6.51582e-12
9.81265e-13
1.99215e-12
1.3192e-13
-1.07463e-12
-1.62222e-12
3.74385e-13
2.86394e-11
6.77872e-13
2.82043e-11
1.63099e-12
1.50893e-12
4.21248e-12
-2.08284e-11
8.98184e-12
-3.67984e-11
1.61263e-11
-4.84551e-11
2.56008e-11
-5.73454e-11
3.73104e-11
-6.45545e-11
5.10697e-11
-7.08118e-11
6.67531e-11
-7.65827e-11
8.42176e-11
-8.21346e-11
1.03353e-10
-8.76255e-11
1.2405e-10
-9.31013e-11
1.46227e-10
-9.85817e-11
1.69799e-10
-1.04042e-10
1.94687e-10
-1.09441e-10
2.20821e-10
-1.14739e-10
2.48126e-10
-1.1989e-10
2.7653e-10
-1.24849e-10
3.05962e-10
-1.29582e-10
3.3634e-10
-1.34054e-10
3.67599e-10
-1.38243e-10
3.9966e-10
-1.42124e-10
4.32448e-10
-1.45685e-10
4.65891e-10
-1.48912e-10
4.99914e-10
-1.51798e-10
5.3444e-10
-1.54341e-10
5.69404e-10
-1.56539e-10
6.04729e-10
-1.58393e-10
6.40347e-10
-1.59912e-10
6.7619e-10
-1.61095e-10
7.1219e-10
-1.61953e-10
7.4828e-10
-1.62498e-10
7.844e-10
-1.62735e-10
8.20487e-10
-1.62674e-10
8.56479e-10
-1.62332e-10
8.92324e-10
-1.61714e-10
9.27963e-10
-1.60832e-10
9.63342e-10
-1.59702e-10
9.98413e-10
-1.58331e-10
1.03313e-09
-1.56732e-10
1.06743e-09
-1.54919e-10
1.10129e-09
-1.529e-10
1.13465e-09
-1.50684e-10
1.16748e-09
-1.48284e-10
1.19974e-09
-1.4571e-10
1.23139e-09
-1.42968e-10
1.2624e-09
-1.40069e-10
1.29273e-09
-1.37023e-10
1.32236e-09
-1.33834e-10
1.35124e-09
-1.30513e-10
1.37937e-09
-1.27067e-10
1.40671e-09
-1.23504e-10
1.43323e-09
-1.1983e-10
1.45892e-09
-1.16052e-10
1.48375e-09
-1.12178e-10
1.5077e-09
-1.08213e-10
1.53076e-09
-1.04162e-10
1.55291e-09
-1.00034e-10
1.57412e-09
-9.58328e-11
1.5944e-09
-9.15629e-11
1.61371e-09
-8.72292e-11
1.63206e-09
-8.28388e-11
1.64942e-09
-7.83942e-11
1.6658e-09
-7.38985e-11
1.68116e-09
-6.93564e-11
1.69552e-09
-6.47729e-11
1.70885e-09
-6.01499e-11
1.72116e-09
-5.54896e-11
1.73243e-09
-5.07981e-11
1.74266e-09
-4.6078e-11
1.75185e-09
-4.13306e-11
1.75998e-09
-3.65589e-11
1.76705e-09
-3.17664e-11
1.77307e-09
-2.6957e-11
1.77802e-09
-2.21324e-11
1.78191e-09
-1.72953e-11
1.78473e-09
-1.24492e-11
1.78648e-09
-7.59449e-12
1.78715e-09
-2.73389e-12
1.78675e-09
2.12949e-12
1.78528e-09
6.99374e-12
1.78274e-09
1.18553e-11
1.77913e-09
1.67115e-11
1.77444e-09
2.15611e-11
1.76868e-09
2.64017e-11