/*--------------------------------*- C++ -*----------------------------------*\
  =========                 |
  \\      /  F ield         | OpenFOAM: The Open Source CFD Toolbox
   \\    /   O peration     | Website:  https://openfoam.org
    \\  /    A nd           | Version:  7
     \\/     M anipulation  |
\*---------------------------------------------------------------------------*/
FoamFile
{
    version     2.0;
    format      ascii;
    class       volScalarField;
    location    "0.375";
    object      p;
}
// * * * * * * * * * * * * * * * * * * * * * * * * * * * * * * * * * * * * * //

dimensions      [0 2 -2 0 0 0 0];

internalField   nonuniform List<scalar> 
51200
(
-1.16229e-08
-9.55837e-07
-2.22738e-06
-3.28845e-06
-4.02522e-06
-4.60559e-06
-5.10874e-06
-5.58387e-06
-6.06052e-06
-6.5604e-06
-7.09684e-06
-7.67977e-06
-8.31678e-06
-9.01186e-06
-9.76845e-06
-1.05866e-05
-1.1467e-05
-1.24082e-05
-1.34098e-05
-1.44714e-05
-1.55893e-05
-1.67624e-05
-1.79887e-05
-1.92648e-05
-2.0588e-05
-2.19549e-05
-2.33624e-05
-2.48081e-05
-2.62893e-05
-2.78046e-05
-2.93519e-05
-3.09286e-05
-3.25331e-05
-3.41629e-05
-3.58139e-05
-3.74834e-05
-3.91696e-05
-4.08709e-05
-4.25876e-05
-4.4319e-05
-4.60621e-05
-4.78141e-05
-4.95738e-05
-5.13399e-05
-5.31117e-05
-5.48884e-05
-5.66677e-05
-5.84482e-05
-6.02297e-05
-6.20111e-05
-6.37915e-05
-6.55712e-05
-6.73499e-05
-6.91265e-05
-7.09e-05
-7.2671e-05
-7.4439e-05
-7.62031e-05
-7.79631e-05
-7.97185e-05
-8.14686e-05
-8.3214e-05
-8.49554e-05
-8.66929e-05
-8.84265e-05
-9.0157e-05
-9.18851e-05
-9.36111e-05
-9.53347e-05
-9.70565e-05
-9.87765e-05
-0.000100495
-0.000102211
-0.000103927
-0.000105643
-0.000107359
-0.000109075
-0.00011079
-0.000112505
-0.00011422
-0.000115937
-0.000117656
-0.000119377
-0.0001211
-0.000122825
-0.000124554
-0.000126287
-0.000128024
-0.000129764
-0.000131509
-0.000133259
-0.000135012
-0.00013677
-0.000138533
-0.000140301
-0.000142073
-0.000143852
-0.000145636
-0.000147427
-0.000149223
-0.000151023
-0.000152826
-0.000154632
-0.000156442
-0.000158256
-0.000160073
-0.000161893
-0.000163714
-0.000165535
-0.000167354
-0.00016917
-0.000170983
-0.000172793
-0.000174599
-0.0001764
-0.000178193
-0.000179977
-0.000181748
-0.000183506
-0.000185248
-0.000186975
-0.000188683
-0.000190369
-0.00019203
-0.000193664
-0.000195271
-0.00019685
-0.000198397
-0.000199907
-0.000201378
-0.000202809
-0.000204196
-0.000205537
-0.000206829
-0.00020807
-0.000209256
-0.000210383
-0.000211448
-0.000212449
-0.000213383
-0.000214246
-0.000215037
-0.000215753
-0.000216391
-0.000216949
-0.000217425
-0.000217817
-0.000218124
-0.000218345
-0.000218482
-0.000218537
-0.000218513
-0.000218414
-0.000218249
-0.000218029
-0.000217772
-0.0002175
-0.000217239
-0.00021703
-0.000216925
-1.14671e-06
-1.98009e-06
-2.96051e-06
-3.81554e-06
-4.50089e-06
-5.07903e-06
-5.59901e-06
-6.0963e-06
-6.5942e-06
-7.11075e-06
-7.65827e-06
-8.24708e-06
-8.88463e-06
-9.57651e-06
-1.03243e-05
-1.113e-05
-1.19923e-05
-1.29116e-05
-1.389e-05
-1.49249e-05
-1.60156e-05
-1.71598e-05
-1.83538e-05
-1.95961e-05
-2.08847e-05
-2.22173e-05
-2.35921e-05
-2.50055e-05
-2.64551e-05
-2.79388e-05
-2.94526e-05
-3.0995e-05
-3.25646e-05
-3.41588e-05
-3.5777e-05
-3.74179e-05
-3.90775e-05
-4.0754e-05
-4.24466e-05
-4.41535e-05
-4.58739e-05
-4.76061e-05
-4.9347e-05
-5.10953e-05
-5.28514e-05
-5.46138e-05
-5.63807e-05
-5.81515e-05
-5.99249e-05
-6.16989e-05
-6.34733e-05
-6.52484e-05
-6.70238e-05
-6.87992e-05
-7.05747e-05
-7.23491e-05
-7.4121e-05
-7.58902e-05
-7.76569e-05
-7.94201e-05
-8.11791e-05
-8.29348e-05
-8.46877e-05
-8.64378e-05
-8.81856e-05
-8.99318e-05
-9.16765e-05
-9.34197e-05
-9.51618e-05
-9.69026e-05
-9.86418e-05
-0.000100379
-0.000102116
-0.000103851
-0.000105587
-0.000107322
-0.000109057
-0.000110794
-0.000112532
-0.00011427
-0.000116009
-0.000117749
-0.000119491
-0.000121234
-0.000122979
-0.000124727
-0.000126479
-0.000128233
-0.00012999
-0.000131752
-0.000133518
-0.000135287
-0.000137059
-0.000138835
-0.000140615
-0.000142398
-0.000144185
-0.000145977
-0.000147773
-0.000149574
-0.000151379
-0.000153187
-0.000154996
-0.000156806
-0.000158618
-0.000160431
-0.000162246
-0.00016406
-0.000165873
-0.000167683
-0.000169488
-0.000171288
-0.000173084
-0.000174874
-0.000176657
-0.000178431
-0.000180194
-0.000181943
-0.000183678
-0.000185395
-0.000187095
-0.000188775
-0.000190432
-0.000192064
-0.000193668
-0.000195243
-0.000196789
-0.000198303
-0.00019978
-0.000201217
-0.000202612
-0.000203964
-0.000205271
-0.000206531
-0.000207739
-0.000208893
-0.000209989
-0.000211024
-0.000211996
-0.000212903
-0.000213743
-0.000214514
-0.000215213
-0.000215837
-0.000216385
-0.000216854
-0.000217245
-0.000217557
-0.000217791
-0.000217947
-0.000218029
-0.00021804
-0.000217984
-0.000217871
-0.00021771
-0.000217518
-0.000217316
-0.000217124
-0.000216963
-0.000216863
-2.80941e-06
-3.27178e-06
-3.86252e-06
-4.47216e-06
-5.03717e-06
-5.56022e-06
-6.05763e-06
-6.547e-06
-7.04387e-06
-7.56107e-06
-8.10906e-06
-8.69627e-06
-9.33054e-06
-1.00155e-05
-1.07547e-05
-1.15479e-05
-1.23951e-05
-1.32981e-05
-1.42557e-05
-1.52685e-05
-1.63367e-05
-1.74568e-05
-1.86259e-05
-1.98418e-05
-2.11022e-05
-2.24067e-05
-2.37533e-05
-2.51394e-05
-2.65627e-05
-2.80197e-05
-2.95074e-05
-3.10244e-05
-3.25677e-05
-3.41358e-05
-3.57284e-05
-3.73442e-05
-3.89812e-05
-4.06376e-05
-4.23101e-05
-4.3997e-05
-4.56989e-05
-4.74139e-05
-4.91394e-05
-5.08744e-05
-5.26178e-05
-5.43681e-05
-5.61247e-05
-5.78868e-05
-5.96524e-05
-6.14206e-05
-6.31914e-05
-6.49636e-05
-6.67366e-05
-6.85114e-05
-7.0288e-05
-7.2065e-05
-7.38413e-05
-7.56163e-05
-7.73894e-05
-7.91596e-05
-8.0927e-05
-8.26919e-05
-8.44547e-05
-8.62158e-05
-8.79762e-05
-8.97354e-05
-9.14932e-05
-9.32505e-05
-9.50078e-05
-9.67644e-05
-9.85195e-05
-0.000100274
-0.000102028
-0.000103782
-0.000105536
-0.000107289
-0.000109042
-0.000110796
-0.000112552
-0.000114309
-0.000116067
-0.000117825
-0.000119584
-0.000121345
-0.000123108
-0.000124873
-0.000126641
-0.000128412
-0.000130185
-0.000131961
-0.00013374
-0.000135522
-0.000137307
-0.000139094
-0.000140885
-0.000142679
-0.000144476
-0.000146276
-0.000148079
-0.000149884
-0.000151692
-0.000153502
-0.000155314
-0.000157125
-0.000158937
-0.000160749
-0.000162561
-0.000164371
-0.000166178
-0.00016798
-0.000169776
-0.000171568
-0.000173353
-0.00017513
-0.000176899
-0.000178657
-0.000180403
-0.000182135
-0.000183851
-0.00018555
-0.000187229
-0.000188886
-0.00019052
-0.000192127
-0.000193707
-0.000195258
-0.000196778
-0.000198264
-0.000199714
-0.000201124
-0.000202492
-0.000203816
-0.000205097
-0.00020633
-0.000207513
-0.000208642
-0.000209713
-0.000210725
-0.000211675
-0.000212562
-0.000213384
-0.000214139
-0.000214824
-0.000215437
-0.000215977
-0.000216443
-0.000216833
-0.00021715
-0.000217393
-0.000217564
-0.000217665
-0.0002177
-0.000217675
-0.000217596
-0.000217471
-0.000217313
-0.000217143
-0.000216979
-0.000216827
-0.000216696
-4.36622e-06
-4.50084e-06
-4.79868e-06
-5.19385e-06
-5.62213e-06
-6.06157e-06
-6.50879e-06
-6.9676e-06
-7.44491e-06
-7.94872e-06
-8.48677e-06
-9.06646e-06
-9.69211e-06
-1.03682e-05
-1.10956e-05
-1.18751e-05
-1.27096e-05
-1.35974e-05
-1.45387e-05
-1.55343e-05
-1.65824e-05
-1.76818e-05
-1.883e-05
-2.00238e-05
-2.1262e-05
-2.2543e-05
-2.38653e-05
-2.52275e-05
-2.66266e-05
-2.80595e-05
-2.95245e-05
-3.10186e-05
-3.25402e-05
-3.40881e-05
-3.56598e-05
-3.72546e-05
-3.88723e-05
-4.05105e-05
-4.21662e-05
-4.38379e-05
-4.55242e-05
-4.72239e-05
-4.89362e-05
-5.06597e-05
-5.23924e-05
-5.41335e-05
-5.58822e-05
-5.76367e-05
-5.93957e-05
-6.1159e-05
-6.29262e-05
-6.46963e-05
-6.64688e-05
-6.82443e-05
-7.00219e-05
-7.18008e-05
-7.35808e-05
-7.53606e-05
-7.7139e-05
-7.8916e-05
-8.06914e-05
-8.2465e-05
-8.42372e-05
-8.60091e-05
-8.77811e-05
-8.95527e-05
-9.13235e-05
-9.30944e-05
-9.48655e-05
-9.66359e-05
-9.84054e-05
-0.000100174
-0.000101944
-0.000103713
-0.000105484
-0.000107254
-0.000109024
-0.000110795
-0.000112567
-0.000114342
-0.000116116
-0.000117891
-0.000119666
-0.000121443
-0.000123222
-0.000125003
-0.000126786
-0.000128571
-0.00013036
-0.00013215
-0.000133943
-0.000135738
-0.000137535
-0.000139332
-0.000141132
-0.000142935
-0.000144741
-0.00014655
-0.000148361
-0.000150172
-0.000151985
-0.000153797
-0.000155611
-0.000157424
-0.000159237
-0.00016105
-0.000162861
-0.000164668
-0.000166471
-0.000168267
-0.000170057
-0.00017184
-0.000173617
-0.000175385
-0.000177143
-0.000178888
-0.00018062
-0.000182337
-0.000184038
-0.000185721
-0.000187384
-0.000189023
-0.000190636
-0.000192224
-0.000193783
-0.000195313
-0.000196812
-0.000198276
-0.000199703
-0.00020109
-0.000202436
-0.000203739
-0.000204997
-0.000206209
-0.00020737
-0.000208479
-0.00020953
-0.000210523
-0.000211456
-0.000212328
-0.000213135
-0.000213877
-0.000214551
-0.000215156
-0.000215689
-0.000216151
-0.000216543
-0.000216863
-0.000217113
-0.000217294
-0.000217409
-0.00021746
-0.000217454
-0.000217397
-0.000217295
-0.000217153
-0.00021699
-0.000216821
-0.000216648
-0.000216463
-5.61528e-06
-5.56771e-06
-5.67974e-06
-5.9168e-06
-6.22305e-06
-6.57574e-06
-6.96278e-06
-7.37974e-06
-7.82737e-06
-8.30953e-06
-8.83169e-06
-9.39793e-06
-1.00124e-05
-1.06763e-05
-1.13899e-05
-1.21562e-05
-1.29753e-05
-1.38477e-05
-1.47741e-05
-1.57528e-05
-1.67826e-05
-1.78623e-05
-1.89896e-05
-2.01631e-05
-2.13807e-05
-2.26405e-05
-2.39419e-05
-2.52823e-05
-2.66593e-05
-2.80708e-05
-2.9514e-05
-3.09865e-05
-3.24879e-05
-3.40164e-05
-3.55696e-05
-3.71466e-05
-3.87462e-05
-4.03664e-05
-4.20064e-05
-4.36639e-05
-4.53363e-05
-4.70226e-05
-4.87227e-05
-5.04347e-05
-5.21573e-05
-5.38901e-05
-5.56313e-05
-5.7379e-05
-5.9133e-05
-6.08921e-05
-6.26556e-05
-6.44238e-05
-6.61965e-05
-6.79732e-05
-6.97527e-05
-7.15346e-05
-7.33185e-05
-7.5103e-05
-7.6887e-05
-7.86708e-05
-8.0454e-05
-8.22364e-05
-8.40185e-05
-8.58009e-05
-8.75837e-05
-8.9367e-05
-9.1151e-05
-9.29356e-05
-9.47203e-05
-9.65046e-05
-9.8289e-05
-0.000100074
-0.000101858
-0.000103643
-0.000105428
-0.000107215
-0.000109002
-0.00011079
-0.000112579
-0.00011437
-0.000116162
-0.000117953
-0.000119745
-0.000121539
-0.000123334
-0.000125131
-0.000126929
-0.000128729
-0.000130532
-0.000132337
-0.000134143
-0.000135951
-0.00013776
-0.00013957
-0.000141381
-0.000143194
-0.000145008
-0.000146825
-0.000148642
-0.000150461
-0.00015228
-0.000154097
-0.000155913
-0.000157729
-0.000159544
-0.000161357
-0.000163168
-0.000164974
-0.000166774
-0.000168566
-0.00017035
-0.000172128
-0.000173897
-0.000175656
-0.000177404
-0.000179139
-0.000180858
-0.000182562
-0.00018425
-0.000185918
-0.000187566
-0.000189189
-0.000190785
-0.000192354
-0.000193895
-0.000195406
-0.000196885
-0.00019833
-0.000199736
-0.000201103
-0.000202429
-0.000203712
-0.000204951
-0.000206144
-0.000207286
-0.000208375
-0.000209409
-0.000210385
-0.000211303
-0.00021216
-0.000212956
-0.000213686
-0.000214351
-0.000214947
-0.000215476
-0.000215936
-0.000216327
-0.00021665
-0.000216906
-0.000217095
-0.000217219
-0.000217282
-0.000217288
-0.000217244
-0.000217155
-0.000217024
-0.00021686
-0.000216676
-0.000216465
-0.000216214
-6.66001e-06
-6.48584e-06
-6.47264e-06
-6.59358e-06
-6.79968e-06
-7.07169e-06
-7.39664e-06
-7.76693e-06
-8.17989e-06
-8.63602e-06
-9.13737e-06
-9.68704e-06
-1.02862e-05
-1.09352e-05
-1.16358e-05
-1.2388e-05
-1.31919e-05
-1.40497e-05
-1.49605e-05
-1.59235e-05
-1.69367e-05
-1.79979e-05
-1.91062e-05
-2.026e-05
-2.14579e-05
-2.26986e-05
-2.39803e-05
-2.53006e-05
-2.6658e-05
-2.80498e-05
-2.94733e-05
-3.0927e-05
-3.24093e-05
-3.39191e-05
-3.54557e-05
-3.7017e-05
-3.86006e-05
-4.02053e-05
-4.18305e-05
-4.34739e-05
-4.51338e-05
-4.6809e-05
-4.84981e-05
-5.01999e-05
-5.19139e-05
-5.36388e-05
-5.53727e-05
-5.71149e-05
-5.88645e-05
-6.06201e-05
-6.23811e-05
-6.4148e-05
-6.59208e-05
-6.76984e-05
-6.94803e-05
-7.12658e-05
-7.30538e-05
-7.48432e-05
-7.66334e-05
-7.84241e-05
-8.02149e-05
-8.20063e-05
-8.37988e-05
-8.55921e-05
-8.73858e-05
-8.91809e-05
-9.09778e-05
-9.27756e-05
-9.45734e-05
-9.63713e-05
-9.817e-05
-9.997e-05
-0.00010177
-0.000103571
-0.000105371
-0.000107173
-0.000108977
-0.000110782
-0.000112589
-0.000114396
-0.000116204
-0.000118012
-0.000119821
-0.000121631
-0.000123442
-0.000125255
-0.000127069
-0.000128884
-0.000130702
-0.000132521
-0.000134341
-0.000136162
-0.000137983
-0.000139805
-0.000141628
-0.000143451
-0.000145276
-0.0001471
-0.000148926
-0.000150751
-0.000152576
-0.000154399
-0.000156219
-0.000158039
-0.000159857
-0.000161672
-0.000163483
-0.000165288
-0.000167086
-0.000168875
-0.000170656
-0.000172429
-0.000174192
-0.000175944
-0.000177683
-0.000179408
-0.000181117
-0.000182811
-0.000184487
-0.000186142
-0.000187775
-0.000189383
-0.000190964
-0.000192518
-0.000194042
-0.000195536
-0.000196998
-0.000198425
-0.000199814
-0.000201162
-0.00020247
-0.000203736
-0.000204958
-0.000206134
-0.000207259
-0.000208332
-0.00020935
-0.000210311
-0.000211216
-0.000212061
-0.000212845
-0.000213565
-0.000214221
-0.000214812
-0.000215336
-0.000215794
-0.000216186
-0.00021651
-0.000216769
-0.000216963
-0.000217095
-0.000217167
-0.000217181
-0.000217143
-0.000217057
-0.000216928
-0.000216759
-0.000216557
-0.000216305
-0.000215986
-7.53557e-06
-7.267e-06
-7.1633e-06
-7.19696e-06
-7.32195e-06
-7.52323e-06
-7.78985e-06
-8.11363e-06
-8.49045e-06
-8.91836e-06
-9.39741e-06
-9.92766e-06
-1.05085e-05
-1.11418e-05
-1.18277e-05
-1.25654e-05
-1.3356e-05
-1.4199e-05
-1.50949e-05
-1.60427e-05
-1.70398e-05
-1.80848e-05
-1.91762e-05
-2.03121e-05
-2.14926e-05
-2.27157e-05
-2.39793e-05
-2.52818e-05
-2.66211e-05
-2.79945e-05
-2.94008e-05
-3.0838e-05
-3.23034e-05
-3.37969e-05
-3.53179e-05
-3.68641e-05
-3.84339e-05
-4.00258e-05
-4.16377e-05
-4.32685e-05
-4.49171e-05
-4.6582e-05
-4.82614e-05
-4.9955e-05
-5.16617e-05
-5.33794e-05
-5.51073e-05
-5.68447e-05
-5.85902e-05
-6.03429e-05
-6.21026e-05
-6.38694e-05
-6.56426e-05
-6.74218e-05
-6.92066e-05
-7.09957e-05
-7.27879e-05
-7.45827e-05
-7.63793e-05
-7.81769e-05
-7.99756e-05
-8.1776e-05
-8.35784e-05
-8.53823e-05
-8.71875e-05
-8.89949e-05
-9.08043e-05
-9.26149e-05
-9.44262e-05
-9.6238e-05
-9.80508e-05
-9.9865e-05
-0.00010168
-0.000103497
-0.000105313
-0.000107131
-0.000108951
-0.000110773
-0.000112596
-0.00011442
-0.000116243
-0.000118068
-0.000119894
-0.00012172
-0.000123547
-0.000125376
-0.000127205
-0.000129037
-0.000130869
-0.000132703
-0.000134538
-0.000136371
-0.000138204
-0.000140038
-0.000141872
-0.000143707
-0.000145541
-0.000147376
-0.00014921
-0.000151043
-0.000152874
-0.000154702
-0.000156529
-0.000158353
-0.000160175
-0.000161993
-0.000163805
-0.00016561
-0.000167406
-0.000169194
-0.000170973
-0.000172742
-0.000174501
-0.000176247
-0.000177979
-0.000179696
-0.000181397
-0.000183082
-0.000184748
-0.000186392
-0.000188012
-0.000189607
-0.000191174
-0.000192714
-0.000194225
-0.000195705
-0.000197152
-0.000198563
-0.000199936
-0.000201269
-0.000202562
-0.000203812
-0.000205019
-0.00020618
-0.00020729
-0.000208348
-0.000209352
-0.000210302
-0.000211194
-0.000212029
-0.000212803
-0.000213514
-0.000214164
-0.000214749
-0.00021527
-0.000215726
-0.000216118
-0.000216443
-0.000216704
-0.000216901
-0.000217037
-0.000217114
-0.000217134
-0.000217099
-0.000217011
-0.000216875
-0.000216695
-0.000216473
-0.000216182
-0.0002158
-8.26095e-06
-7.91934e-06
-7.74603e-06
-7.7121e-06
-7.77142e-06
-7.91285e-06
-8.1279e-06
-8.4086e-06
-8.75017e-06
-9.14988e-06
-9.60548e-06
-1.01147e-05
-1.06779e-05
-1.12947e-05
-1.19645e-05
-1.26885e-05
-1.34656e-05
-1.42955e-05
-1.51774e-05
-1.61101e-05
-1.70922e-05
-1.8122e-05
-1.91977e-05
-2.03184e-05
-2.14832e-05
-2.26901e-05
-2.3938e-05
-2.52247e-05
-2.65475e-05
-2.79048e-05
-2.92953e-05
-3.07171e-05
-3.21684e-05
-3.36483e-05
-3.51552e-05
-3.66877e-05
-3.82453e-05
-3.98255e-05
-4.14261e-05
-4.30465e-05
-4.46852e-05
-4.63407e-05
-4.80121e-05
-4.96986e-05
-5.13987e-05
-5.31107e-05
-5.48341e-05
-5.65673e-05
-5.83092e-05
-6.00598e-05
-6.18189e-05
-6.3586e-05
-6.53605e-05
-6.71421e-05
-6.89303e-05
-7.07234e-05
-7.25203e-05
-7.43207e-05
-7.61237e-05
-7.79287e-05
-7.9736e-05
-8.15456e-05
-8.33575e-05
-8.51719e-05
-8.69889e-05
-8.88086e-05
-9.06303e-05
-9.24534e-05
-9.42781e-05
-9.61043e-05
-9.79315e-05
-9.97599e-05
-0.00010159
-0.000103421
-0.000105254
-0.000107088
-0.000108924
-0.000110763
-0.000112602
-0.000114441
-0.000116281
-0.000118123
-0.000119965
-0.000121807
-0.000123651
-0.000125495
-0.00012734
-0.000129187
-0.000131035
-0.000132883
-0.000134731
-0.000136579
-0.000138425
-0.000140271
-0.000142116
-0.000143961
-0.000145807
-0.000147652
-0.000149496
-0.000151337
-0.000153175
-0.00015501
-0.000156843
-0.000158673
-0.000160499
-0.00016232
-0.000164135
-0.00016594
-0.000167737
-0.000169524
-0.000171302
-0.000173069
-0.000174824
-0.000176566
-0.000178293
-0.000180004
-0.000181698
-0.000183375
-0.000185032
-0.000186667
-0.000188277
-0.00018986
-0.000191416
-0.000192944
-0.000194443
-0.000195911
-0.000197345
-0.000198743
-0.000200102
-0.000201422
-0.000202701
-0.000203939
-0.000205133
-0.00020628
-0.000207377
-0.000208422
-0.000209415
-0.000210353
-0.000211236
-0.000212061
-0.000212827
-0.000213532
-0.000214176
-0.000214757
-0.000215275
-0.00021573
-0.00021612
-0.000216446
-0.000216707
-0.000216906
-0.000217044
-0.000217123
-0.000217146
-0.000217112
-0.00021702
-0.000216874
-0.000216679
-0.000216434
-0.000216108
-0.000215671
-8.84413e-06
-8.44566e-06
-8.21842e-06
-8.13108e-06
-8.13722e-06
-8.22897e-06
-8.40017e-06
-8.6429e-06
-8.95239e-06
-9.32451e-06
-9.7556e-06
-1.02447e-05
-1.07904e-05
-1.13906e-05
-1.20457e-05
-1.27554e-05
-1.35195e-05
-1.43371e-05
-1.52059e-05
-1.61252e-05
-1.70935e-05
-1.81089e-05
-1.91709e-05
-2.02781e-05
-2.14286e-05
-2.26214e-05
-2.38552e-05
-2.51274e-05
-2.64362e-05
-2.77798e-05
-2.9156e-05
-3.0564e-05
-3.2003e-05
-3.34709e-05
-3.4966e-05
-3.64873e-05
-3.80337e-05
-3.96032e-05
-4.11945e-05
-4.2806e-05
-4.44361e-05
-4.60841e-05
-4.7749e-05
-4.94293e-05
-5.11237e-05
-5.28313e-05
-5.4551e-05
-5.6281e-05
-5.80206e-05
-5.97703e-05
-6.15293e-05
-6.32972e-05
-6.50739e-05
-6.68586e-05
-6.86505e-05
-7.04481e-05
-7.22504e-05
-7.40567e-05
-7.58661e-05
-7.76788e-05
-7.9495e-05
-8.13142e-05
-8.31359e-05
-8.49611e-05
-8.67901e-05
-8.86221e-05
-9.04561e-05
-9.22919e-05
-9.41298e-05
-9.597e-05
-9.78118e-05
-9.9655e-05
-0.000101499
-0.000103346
-0.000105194
-0.000107044
-0.000108897
-0.000110752
-0.000112607
-0.000114462
-0.000116319
-0.000118176
-0.000120035
-0.000121893
-0.000123753
-0.000125613
-0.000127474
-0.000129337
-0.0001312
-0.000133063
-0.000134924
-0.000136785
-0.000138645
-0.000140503
-0.000142361
-0.000144218
-0.000146074
-0.00014793
-0.000149783
-0.000151634
-0.00015348
-0.000155322
-0.000157162
-0.000158998
-0.000160829
-0.000162655
-0.000164472
-0.000166279
-0.000168077
-0.000169865
-0.000171643
-0.000173409
-0.000175163
-0.000176901
-0.000178624
-0.000180331
-0.00018202
-0.000183691
-0.00018534
-0.000186967
-0.000188568
-0.000190142
-0.000191688
-0.000193207
-0.000194696
-0.000196154
-0.000197577
-0.000198963
-0.00020031
-0.000201619
-0.000202887
-0.000204114
-0.000205296
-0.000206432
-0.000207517
-0.000208552
-0.000209535
-0.000210464
-0.000211338
-0.000212156
-0.000212915
-0.000213615
-0.000214254
-0.000214833
-0.000215348
-0.000215801
-0.00021619
-0.000216515
-0.000216777
-0.000216977
-0.000217116
-0.000217196
-0.000217218
-0.000217182
-0.000217086
-0.000216929
-0.000216718
-0.000216452
-0.000216094
-0.000215611
-9.2919e-06
-8.8489e-06
-8.57923e-06
-8.44967e-06
-8.4134e-06
-8.4647e-06
-8.59893e-06
-8.80933e-06
-9.09002e-06
-9.43595e-06
-9.84472e-06
-1.03142e-05
-1.08422e-05
-1.14275e-05
-1.20687e-05
-1.27653e-05
-1.3517e-05
-1.4322e-05
-1.51789e-05
-1.60862e-05
-1.70418e-05
-1.80449e-05
-1.90948e-05
-2.01896e-05
-2.1328e-05
-2.25087e-05
-2.37296e-05
-2.49891e-05
-2.6286e-05
-2.76175e-05
-2.89818e-05
-3.03785e-05
-3.18062e-05
-3.32632e-05
-3.47487e-05
-3.62608e-05
-3.77977e-05
-3.93584e-05
-4.09417e-05
-4.25455e-05
-4.41688e-05
-4.58109e-05
-4.74704e-05
-4.91457e-05
-5.08361e-05
-5.25402e-05
-5.42568e-05
-5.59847e-05
-5.77235e-05
-5.94731e-05
-6.12329e-05
-6.30027e-05
-6.47824e-05
-6.65707e-05
-6.83666e-05
-7.01694e-05
-7.19775e-05
-7.37899e-05
-7.56065e-05
-7.74274e-05
-7.92525e-05
-8.10813e-05
-8.29136e-05
-8.47501e-05
-8.65908e-05
-8.84349e-05
-9.02816e-05
-9.21307e-05
-9.3982e-05
-9.58359e-05
-9.76921e-05
-9.95501e-05
-0.000101409
-0.000103271
-0.000105135
-0.000107002
-0.000108871
-0.000110741
-0.000112611
-0.000114483
-0.000116356
-0.00011823
-0.000120104
-0.000121979
-0.000123854
-0.000125731
-0.000127608
-0.000129487
-0.000131365
-0.000133243
-0.000135118
-0.000136992
-0.000138865
-0.000140736
-0.000142607
-0.000144476
-0.000146344
-0.000148211
-0.000150075
-0.000151934
-0.000153789
-0.00015564
-0.000157487
-0.00015933
-0.000161167
-0.000162997
-0.000164817
-0.000166628
-0.000168428
-0.000170218
-0.000171997
-0.000173763
-0.000175516
-0.000177252
-0.000178972
-0.000180676
-0.000182362
-0.000184028
-0.000185672
-0.000187292
-0.000188885
-0.000190452
-0.000191992
-0.000193503
-0.000194984
-0.000196433
-0.000197846
-0.000199223
-0.00020056
-0.00020186
-0.000203119
-0.000204335
-0.000205508
-0.000206634
-0.000207711
-0.000208737
-0.000209711
-0.000210632
-0.0002115
-0.000212311
-0.000213066
-0.000213761
-0.000214397
-0.000214973
-0.000215487
-0.000215938
-0.000216326
-0.00021665
-0.000216912
-0.000217113
-0.000217253
-0.000217332
-0.000217352
-0.000217312
-0.000217209
-0.000217044
-0.000216817
-0.000216533
-0.000216147
-0.000215627
-9.60818e-06
-9.13083e-06
-8.82865e-06
-8.6661e-06
-8.59715e-06
-8.61571e-06
-8.71963e-06
-8.90201e-06
-9.15642e-06
-9.47986e-06
-9.86868e-06
-1.03196e-05
-1.08313e-05
-1.14023e-05
-1.2031e-05
-1.27162e-05
-1.34561e-05
-1.42498e-05
-1.50956e-05
-1.59914e-05
-1.69363e-05
-1.7929e-05
-1.89679e-05
-2.00521e-05
-2.11803e-05
-2.23504e-05
-2.35605e-05
-2.48094e-05
-2.60952e-05
-2.74163e-05
-2.87713e-05
-3.01586e-05
-3.15768e-05
-3.3025e-05
-3.45022e-05
-3.60063e-05
-3.75358e-05
-3.90897e-05
-4.06662e-05
-4.22639e-05
-4.38821e-05
-4.55196e-05
-4.71748e-05
-4.88467e-05
-5.05345e-05
-5.22362e-05
-5.39508e-05
-5.56779e-05
-5.74169e-05
-5.91674e-05
-6.0929e-05
-6.27017e-05
-6.44851e-05
-6.62776e-05
-6.80784e-05
-6.98866e-05
-7.17007e-05
-7.352e-05
-7.53446e-05
-7.71742e-05
-7.90082e-05
-8.08468e-05
-8.26903e-05
-8.45386e-05
-8.63912e-05
-8.82474e-05
-9.01069e-05
-9.19696e-05
-9.38349e-05
-9.57027e-05
-9.7573e-05
-9.94455e-05
-0.00010132
-0.000103196
-0.000105077
-0.00010696
-0.000108845
-0.00011073
-0.000112617
-0.000114505
-0.000116395
-0.000118284
-0.000120174
-0.000122065
-0.000123957
-0.000125849
-0.000127743
-0.000129637
-0.000131531
-0.000133423
-0.000135313
-0.000137201
-0.000139087
-0.000140971
-0.000142855
-0.000144737
-0.000146617
-0.000148496
-0.00015037
-0.000152239
-0.000154103
-0.000155963
-0.000157818
-0.000159668
-0.000161512
-0.000163347
-0.000165172
-0.000166986
-0.00016879
-0.000170582
-0.000172363
-0.000174131
-0.000175883
-0.000177619
-0.000179338
-0.00018104
-0.000182724
-0.000184388
-0.000186027
-0.000187641
-0.00018923
-0.000190791
-0.000192325
-0.000193831
-0.000195306
-0.000196747
-0.000198153
-0.000199521
-0.000200851
-0.000202142
-0.000203394
-0.000204603
-0.000205768
-0.000206886
-0.000207955
-0.000208974
-0.000209942
-0.000210857
-0.00021172
-0.000212527
-0.000213277
-0.000213969
-0.000214602
-0.000215176
-0.000215688
-0.000216139
-0.000216526
-0.00021685
-0.000217112
-0.000217313
-0.000217453
-0.000217532
-0.000217549
-0.000217504
-0.000217396
-0.000217221
-0.000216983
-0.000216682
-0.000216274
-0.000215723
-9.79702e-06
-9.29482e-06
-8.96799e-06
-8.78094e-06
-8.68608e-06
-8.67956e-06
-8.75833e-06
-8.91603e-06
-9.14865e-06
-9.45237e-06
-9.82312e-06
-1.02583e-05
-1.07556e-05
-1.13136e-05
-1.19312e-05
-1.26055e-05
-1.33351e-05
-1.41189e-05
-1.49544e-05
-1.58405e-05
-1.67764e-05
-1.77598e-05
-1.87896e-05
-1.9865e-05
-2.09841e-05
-2.21451e-05
-2.33467e-05
-2.45867e-05
-2.58632e-05
-2.71758e-05
-2.85229e-05
-2.99025e-05
-3.13135e-05
-3.27549e-05
-3.42251e-05
-3.57229e-05
-3.72469e-05
-3.87953e-05
-4.03667e-05
-4.19604e-05
-4.35749e-05
-4.52088e-05
-4.68612e-05
-4.85313e-05
-5.02174e-05
-5.19178e-05
-5.36321e-05
-5.53598e-05
-5.71e-05
-5.88524e-05
-6.06172e-05
-6.23936e-05
-6.41812e-05
-6.59788e-05
-6.77852e-05
-6.95992e-05
-7.14198e-05
-7.32467e-05
-7.50799e-05
-7.69184e-05
-7.87619e-05
-8.06109e-05
-8.2466e-05
-8.43263e-05
-8.6191e-05
-8.80597e-05
-8.99322e-05
-9.18085e-05
-9.36881e-05
-9.55702e-05
-9.74548e-05
-9.93416e-05
-0.000101231
-0.000103124
-0.00010502
-0.000106919
-0.000108819
-0.000110721
-0.000112625
-0.000114529
-0.000116434
-0.00011834
-0.000120246
-0.000122152
-0.00012406
-0.000125969
-0.000127879
-0.000129789
-0.000131698
-0.000133605
-0.00013551
-0.000137412
-0.000139312
-0.00014121
-0.000143106
-0.000145002
-0.000146895
-0.000148785
-0.00015067
-0.000152549
-0.000154423
-0.000156292
-0.000158156
-0.000160014
-0.000161864
-0.000163705
-0.000165535
-0.000167354
-0.000169163
-0.00017096
-0.000172743
-0.000174512
-0.000176265
-0.000178002
-0.000179722
-0.000181424
-0.000183106
-0.000184768
-0.000186405
-0.000188017
-0.000189601
-0.000191159
-0.00019269
-0.000194191
-0.00019566
-0.000197095
-0.000198495
-0.000199857
-0.000201181
-0.000202467
-0.000203713
-0.000204916
-0.000206074
-0.000207186
-0.000208249
-0.000209263
-0.000210226
-0.000211138
-0.000211996
-0.0002128
-0.000213547
-0.000214236
-0.000214867
-0.000215439
-0.000215951
-0.000216401
-0.000216789
-0.000217114
-0.000217376
-0.000217577
-0.000217716
-0.000217794
-0.000217809
-0.000217761
-0.000217647
-0.000217464
-0.000217216
-0.000216903
-0.000216477
-0.000215902
-9.86284e-06
-9.3438e-06
-9.0003e-06
-8.79408e-06
-8.67995e-06
-8.65316e-06
-8.71095e-06
-8.8496e-06
-9.06406e-06
-9.3504e-06
-9.70602e-06
-1.01278e-05
-1.06132e-05
-1.11605e-05
-1.17674e-05
-1.24322e-05
-1.31531e-05
-1.39276e-05
-1.47545e-05
-1.56327e-05
-1.65605e-05
-1.75364e-05
-1.85593e-05
-1.96272e-05
-2.07385e-05
-2.18923e-05
-2.30867e-05
-2.43194e-05
-2.55893e-05
-2.68952e-05
-2.82356e-05
-2.96092e-05
-3.10151e-05
-3.24513e-05
-3.39165e-05
-3.54098e-05
-3.69295e-05
-3.84741e-05
-4.00423e-05
-4.16333e-05
-4.32454e-05
-4.48775e-05
-4.65289e-05
-4.81981e-05
-4.98836e-05
-5.15843e-05
-5.32998e-05
-5.50292e-05
-5.67718e-05
-5.85276e-05
-6.02965e-05
-6.20775e-05
-6.38702e-05
-6.56736e-05
-6.7486e-05
-6.93064e-05
-7.11344e-05
-7.29697e-05
-7.48116e-05
-7.66595e-05
-7.85133e-05
-8.03736e-05
-8.22404e-05
-8.41127e-05
-8.599e-05
-8.78719e-05
-8.97578e-05
-9.16478e-05
-9.35415e-05
-9.54381e-05
-9.73369e-05
-9.92384e-05
-0.000101143
-0.000103052
-0.000104964
-0.000106879
-0.000108796
-0.000110714
-0.000112634
-0.000114554
-0.000116475
-0.000118397
-0.000120319
-0.000122241
-0.000124165
-0.000126091
-0.000128017
-0.000129943
-0.000131867
-0.000133789
-0.000135709
-0.000137626
-0.00013954
-0.000141452
-0.000143363
-0.000145272
-0.000147178
-0.000149079
-0.000150975
-0.000152864
-0.000154749
-0.000156628
-0.000158502
-0.000160368
-0.000162226
-0.000164073
-0.000165909
-0.000167735
-0.000169549
-0.00017135
-0.000173137
-0.000174908
-0.000176663
-0.000178401
-0.000180123
-0.000181827
-0.00018351
-0.000185171
-0.000186807
-0.000188417
-0.00019
-0.000191556
-0.000193083
-0.000194581
-0.000196047
-0.000197477
-0.000198872
-0.000200231
-0.000201551
-0.000202832
-0.000204074
-0.000205272
-0.000206426
-0.000207533
-0.000208592
-0.000209602
-0.000210563
-0.000211472
-0.000212327
-0.000213128
-0.000213873
-0.00021456
-0.000215191
-0.000215762
-0.000216274
-0.000216725
-0.000217114
-0.00021744
-0.000217703
-0.000217904
-0.000218043
-0.00021812
-0.000218134
-0.000218083
-0.000217964
-0.000217776
-0.00021752
-0.000217196
-0.000216758
-0.000216165
-9.80884e-06
-9.28085e-06
-8.92596e-06
-8.70707e-06
-8.57775e-06
-8.53442e-06
-8.57683e-06
-8.70042e-06
-8.9e-06
-9.17289e-06
-9.51589e-06
-9.92656e-06
-1.04025e-05
-1.09404e-05
-1.15386e-05
-1.21956e-05
-1.29083e-05
-1.36755e-05
-1.44958e-05
-1.53672e-05
-1.62884e-05
-1.72586e-05
-1.82755e-05
-1.93375e-05
-2.04433e-05
-2.15912e-05
-2.27794e-05
-2.40069e-05
-2.52721e-05
-2.65732e-05
-2.79089e-05
-2.92783e-05
-3.06803e-05
-3.2113e-05
-3.35753e-05
-3.50657e-05
-3.65827e-05
-3.81252e-05
-3.9692e-05
-4.12815e-05
-4.28926e-05
-4.45247e-05
-4.61764e-05
-4.78459e-05
-4.95323e-05
-5.1235e-05
-5.29528e-05
-5.46852e-05
-5.64316e-05
-5.81919e-05
-5.99659e-05
-6.17526e-05
-6.35513e-05
-6.5361e-05
-6.71801e-05
-6.90078e-05
-7.08442e-05
-7.26883e-05
-7.45392e-05
-7.63971e-05
-7.82622e-05
-8.01343e-05
-8.2013e-05
-8.38977e-05
-8.5788e-05
-8.76834e-05
-8.95833e-05
-9.14873e-05
-9.33953e-05
-9.53061e-05
-9.72195e-05
-9.91361e-05
-0.000101057
-0.000102982
-0.00010491
-0.000106841
-0.000108773
-0.000110708
-0.000112644
-0.000114581
-0.000116518
-0.000118456
-0.000120394
-0.000122333
-0.000124273
-0.000126215
-0.000128157
-0.000130099
-0.000132039
-0.000133977
-0.000135911
-0.000137843
-0.000139771
-0.000141698
-0.000143623
-0.000145546
-0.000147465
-0.000149378
-0.000151285
-0.000153187
-0.000155082
-0.000156972
-0.000158855
-0.000160731
-0.000162596
-0.000164451
-0.000166294
-0.000168127
-0.000169947
-0.000171754
-0.000173545
-0.000175319
-0.000177077
-0.000178818
-0.000180543
-0.00018225
-0.000183935
-0.000185596
-0.000187233
-0.000188842
-0.000190425
-0.00019198
-0.000193506
-0.000195002
-0.000196465
-0.000197893
-0.000199285
-0.000200641
-0.000201959
-0.000203238
-0.000204476
-0.000205671
-0.000206822
-0.000207926
-0.000208983
-0.000209991
-0.00021095
-0.000211857
-0.000212711
-0.00021351
-0.000214253
-0.00021494
-0.000215571
-0.000216143
-0.000216657
-0.000217109
-0.000217499
-0.000217827
-0.000218091
-0.000218293
-0.000218433
-0.000218509
-0.000218522
-0.000218469
-0.000218348
-0.000218155
-0.000217894
-0.000217564
-0.000217116
-0.000216511
-9.63991e-06
-9.1072e-06
-8.74683e-06
-8.51895e-06
-8.37841e-06
-8.32453e-06
-8.35522e-06
-8.46681e-06
-8.65588e-06
-8.91862e-06
-9.25216e-06
-9.65432e-06
-1.0122e-05
-1.06527e-05
-1.12441e-05
-1.18939e-05
-1.26004e-05
-1.33622e-05
-1.41771e-05
-1.50434e-05
-1.59602e-05
-1.69256e-05
-1.79379e-05
-1.89958e-05
-2.00975e-05
-2.1241e-05
-2.24251e-05
-2.3649e-05
-2.49107e-05
-2.62088e-05
-2.75422e-05
-2.89091e-05
-3.03087e-05
-3.17397e-05
-3.32005e-05