/*--------------------------------*- C++ -*----------------------------------*\
  =========                 |
  \\      /  F ield         | OpenFOAM: The Open Source CFD Toolbox
   \\    /   O peration     | Website:  https://openfoam.org
    \\  /    A nd           | Version:  7
     \\/     M anipulation  |
\*---------------------------------------------------------------------------*/
FoamFile
{
    version     2.0;
    format      ascii;
    class       volVectorField;
    location    "0.375";
    object      U;
}
// * * * * * * * * * * * * * * * * * * * * * * * * * * * * * * * * * * * * * //

dimensions      [0 1 -1 0 0 0 0];

internalField   nonuniform List<vector> 
51200
(
(-4.2336e-08 -2.14993e-08 0)
(-1.45539e-08 -3.25816e-08 0)
(-6.80082e-09 -1.18189e-08 0)
(5.14557e-08 -1.66255e-08 0)
(1.12295e-07 -2.30334e-08 0)
(1.98492e-07 -2.98107e-08 0)
(3.05212e-07 -3.56288e-08 0)
(4.28665e-07 -4.05414e-08 0)
(5.65168e-07 -4.4206e-08 0)
(7.11837e-07 -4.70134e-08 0)
(8.65613e-07 -4.8967e-08 0)
(1.02421e-06 -5.00436e-08 0)
(1.18527e-06 -5.04983e-08 0)
(1.34693e-06 -5.03996e-08 0)
(1.50755e-06 -4.97949e-08 0)
(1.66545e-06 -4.87595e-08 0)
(1.81935e-06 -4.73881e-08 0)
(1.96823e-06 -4.55795e-08 0)
(2.11108e-06 -4.35166e-08 0)
(2.24701e-06 -4.13304e-08 0)
(2.37547e-06 -3.8804e-08 0)
(2.4958e-06 -3.61702e-08 0)
(2.60748e-06 -3.35069e-08 0)
(2.71024e-06 -3.06847e-08 0)
(2.80366e-06 -2.79075e-08 0)
(2.88756e-06 -2.52203e-08 0)
(2.96194e-06 -2.25098e-08 0)
(3.02663e-06 -1.98504e-08 0)
(3.08159e-06 -1.71907e-08 0)
(3.12698e-06 -1.44485e-08 0)
(3.16284e-06 -1.16228e-08 0)
(3.18935e-06 -8.69546e-09 0)
(3.20677e-06 -5.85433e-09 0)
(3.21525e-06 -3.26979e-09 0)
(3.21508e-06 -8.3447e-10 0)
(3.20658e-06 1.45521e-09 0)
(3.19004e-06 3.55334e-09 0)
(3.16594e-06 5.6569e-09 0)
(3.13469e-06 7.82201e-09 0)
(3.09654e-06 9.87372e-09 0)
(3.05193e-06 1.17759e-08 0)
(3.00144e-06 1.35232e-08 0)
(2.94541e-06 1.50449e-08 0)
(2.88426e-06 1.64069e-08 0)
(2.81851e-06 1.771e-08 0)
(2.74855e-06 1.88827e-08 0)
(2.67481e-06 1.98962e-08 0)
(2.59788e-06 2.08338e-08 0)
(2.5182e-06 2.16412e-08 0)
(2.43616e-06 2.22542e-08 0)
(2.35227e-06 2.27476e-08 0)
(2.26707e-06 2.31341e-08 0)
(2.18088e-06 2.33582e-08 0)
(2.0941e-06 2.3476e-08 0)
(2.00732e-06 2.35442e-08 0)
(1.92098e-06 2.34914e-08 0)
(1.83545e-06 2.32355e-08 0)
(1.75117e-06 2.27908e-08 0)
(1.66854e-06 2.22143e-08 0)
(1.58787e-06 2.15476e-08 0)
(1.50956e-06 2.08368e-08 0)
(1.43401e-06 2.00924e-08 0)
(1.36152e-06 1.92485e-08 0)
(1.29235e-06 1.82664e-08 0)
(1.22682e-06 1.7199e-08 0)
(1.16523e-06 1.6099e-08 0)
(1.1078e-06 1.4958e-08 0)
(1.05474e-06 1.37551e-08 0)
(1.00634e-06 1.2484e-08 0)
(9.6282e-07 1.11476e-08 0)
(9.24269e-07 9.76846e-09 0)
(8.90798e-07 8.37377e-09 0)
(8.62598e-07 6.94435e-09 0)
(8.39834e-07 5.42343e-09 0)
(8.22576e-07 3.81324e-09 0)
(8.10843e-07 2.19822e-09 0)
(8.04676e-07 6.4223e-10 0)
(8.04146e-07 -8.80997e-10 0)
(8.09348e-07 -2.42576e-09 0)
(8.20347e-07 -3.99319e-09 0)
(8.37117e-07 -5.55665e-09 0)
(8.59539e-07 -7.1042e-09 0)
(8.87501e-07 -8.62884e-09 0)
(9.20953e-07 -1.01145e-08 0)
(9.59812e-07 -1.15546e-08 0)
(1.00393e-06 -1.29721e-08 0)
(1.05311e-06 -1.43768e-08 0)
(1.1072e-06 -1.57498e-08 0)
(1.16606e-06 -1.70654e-08 0)
(1.22944e-06 -1.82987e-08 0)
(1.29711e-06 -1.94425e-08 0)
(1.36885e-06 -2.04809e-08 0)
(1.44441e-06 -2.13923e-08 0)
(1.52351e-06 -2.22088e-08 0)
(1.60582e-06 -2.2978e-08 0)
(1.69101e-06 -2.37135e-08 0)
(1.7788e-06 -2.44021e-08 0)
(1.86883e-06 -2.49929e-08 0)
(1.96068e-06 -2.5443e-08 0)
(2.05401e-06 -2.57532e-08 0)
(2.14846e-06 -2.59217e-08 0)
(2.24376e-06 -2.59852e-08 0)
(2.33959e-06 -2.60146e-08 0)
(2.43548e-06 -2.60044e-08 0)
(2.53096e-06 -2.58899e-08 0)
(2.62556e-06 -2.56009e-08 0)
(2.71886e-06 -2.51051e-08 0)
(2.81047e-06 -2.44508e-08 0)
(2.89994e-06 -2.36936e-08 0)
(2.98682e-06 -2.28454e-08 0)
(3.07069e-06 -2.18996e-08 0)
(3.15106e-06 -2.08219e-08 0)
(3.22745e-06 -1.95816e-08 0)
(3.29943e-06 -1.82005e-08 0)
(3.36656e-06 -1.66985e-08 0)
(3.4284e-06 -1.50756e-08 0)
(3.48451e-06 -1.33475e-08 0)
(3.53446e-06 -1.15058e-08 0)
(3.57787e-06 -9.54003e-09 0)
(3.61443e-06 -7.47168e-09 0)
(3.64372e-06 -5.28293e-09 0)
(3.6653e-06 -2.96004e-09 0)
(3.67891e-06 -5.62324e-10 0)
(3.68426e-06 1.86776e-09 0)
(3.68108e-06 4.34847e-09 0)
(3.66909e-06 6.92004e-09 0)
(3.64792e-06 9.61557e-09 0)
(3.61733e-06 1.24308e-08 0)
(3.57724e-06 1.53033e-08 0)
(3.52753e-06 1.81853e-08 0)
(3.46803e-06 2.10785e-08 0)
(3.39872e-06 2.39582e-08 0)
(3.31962e-06 2.67998e-08 0)
(3.23075e-06 2.96454e-08 0)
(3.13226e-06 3.24943e-08 0)
(3.02435e-06 3.52684e-08 0)
(2.90722e-06 3.79352e-08 0)
(2.78123e-06 4.04982e-08 0)
(2.64685e-06 4.29294e-08 0)
(2.50452e-06 4.52064e-08 0)
(2.35482e-06 4.7315e-08 0)
(2.19848e-06 4.92168e-08 0)
(2.03629e-06 5.08896e-08 0)
(1.86915e-06 5.23151e-08 0)
(1.69819e-06 5.33862e-08 0)
(1.52467e-06 5.39717e-08 0)
(1.34986e-06 5.40565e-08 0)
(1.17539e-06 5.36702e-08 0)
(1.00316e-06 5.27602e-08 0)
(8.35194e-07 5.12062e-08 0)
(6.7376e-07 4.8853e-08 0)
(5.21472e-07 4.55399e-08 0)
(3.81157e-07 4.11493e-08 0)
(2.55934e-07 3.56052e-08 0)
(1.49296e-07 2.87855e-08 0)
(6.48828e-08 2.04412e-08 0)
(6.1537e-09 1.03935e-08 0)
(-2.39498e-08 -9.69657e-10 0)
(-2.57933e-08 -1.08987e-08 0)
(-9.75546e-09 -1.14635e-08 0)
(-4.88747e-08 3.40243e-08 0)
(-4.94918e-08 -4.53276e-08 0)
(3.43286e-08 -6.32715e-08 0)
(1.73428e-07 -1.09299e-07 0)
(3.67966e-07 -1.54159e-07 0)
(6.18145e-07 -1.94365e-07 0)
(9.16482e-07 -2.28518e-07 0)
(1.25533e-06 -2.56548e-07 0)
(1.62719e-06 -2.78538e-07 0)
(2.02439e-06 -2.95248e-07 0)
(2.44046e-06 -3.06848e-07 0)
(2.86891e-06 -3.13981e-07 0)
(3.30408e-06 -3.1702e-07 0)
(3.74091e-06 -3.16402e-07 0)
(4.17454e-06 -3.12711e-07 0)
(4.60095e-06 -3.06294e-07 0)
(5.01669e-06 -2.97475e-07 0)
(5.41851e-06 -2.86548e-07 0)
(5.8037e-06 -2.73908e-07 0)
(6.16994e-06 -2.59742e-07 0)
(6.51511e-06 -2.44198e-07 0)
(6.83755e-06 -2.27637e-07 0)
(7.13609e-06 -2.10192e-07 0)
(7.4095e-06 -1.921e-07 0)
(7.65693e-06 -1.73583e-07 0)
(7.87793e-06 -1.54683e-07 0)
(8.0719e-06 -1.3561e-07 0)
(8.23866e-06 -1.16567e-07 0)
(8.3783e-06 -9.75712e-08 0)
(8.49077e-06 -7.87728e-08 0)
(8.57639e-06 -6.01629e-08 0)
(8.63572e-06 -4.17208e-08 0)
(8.66918e-06 -2.37429e-08 0)
(8.67755e-06 -6.35355e-09 0)
(8.6617e-06 1.04575e-08 0)
(8.62224e-06 2.65157e-08 0)
(8.56011e-06 4.18115e-08 0)
(8.47654e-06 5.64891e-08 0)
(8.3725e-06 7.04285e-08 0)
(8.24911e-06 8.35366e-08 0)
(8.10769e-06 9.59051e-08 0)
(7.94934e-06 1.07379e-07 0)
(7.77527e-06 1.17833e-07 0)
(7.58696e-06 1.27415e-07 0)
(7.38564e-06 1.36115e-07 0)
(7.17253e-06 1.43854e-07 0)
(6.94909e-06 1.50723e-07 0)
(6.71669e-06 1.56757e-07 0)
(6.47648e-06 1.61811e-07 0)
(6.22985e-06 1.65897e-07 0)
(5.97826e-06 1.69143e-07 0)
(5.72297e-06 1.71447e-07 0)
(5.46528e-06 1.72719e-07 0)
(5.20654e-06 1.73158e-07 0)
(4.94794e-06 1.72853e-07 0)
(4.69065e-06 1.71706e-07 0)
(4.43598e-06 1.69698e-07 0)
(4.18522e-06 1.66837e-07 0)
(3.93943e-06 1.63112e-07 0)
(3.69963e-06 1.58618e-07 0)
(3.4669e-06 1.53512e-07 0)
(3.24226e-06 1.4783e-07 0)
(3.02657e-06 1.41498e-07 0)
(2.82081e-06 1.34521e-07 0)
(2.62589e-06 1.26981e-07 0)
(2.44259e-06 1.18911e-07 0)
(2.27155e-06 1.10338e-07 0)
(2.11352e-06 1.01356e-07 0)
(1.96921e-06 9.20081e-08 0)
(1.83919e-06 8.22553e-08 0)
(1.72391e-06 7.21251e-08 0)
(1.62384e-06 6.17292e-08 0)
(1.53938e-06 5.11323e-08 0)
(1.47085e-06 4.02954e-08 0)
(1.41862e-06 2.91988e-08 0)
(1.38301e-06 1.792e-08 0)
(1.36412e-06 6.55625e-09 0)
(1.36192e-06 -4.83547e-09 0)
(1.3765e-06 -1.62229e-08 0)
(1.40801e-06 -2.75805e-08 0)
(1.45643e-06 -3.89006e-08 0)
(1.52154e-06 -5.01487e-08 0)
(1.60307e-06 -6.12313e-08 0)
(1.7008e-06 -7.20649e-08 0)
(1.81443e-06 -8.26229e-08 0)
(1.94357e-06 -9.29216e-08 0)
(2.08779e-06 -1.02946e-07 0)
(2.24664e-06 -1.12636e-07 0)
(2.41959e-06 -1.21953e-07 0)
(2.60598e-06 -1.30855e-07 0)
(2.80512e-06 -1.3927e-07 0)
(3.01639e-06 -1.47124e-07 0)
(3.23904e-06 -1.54356e-07 0)
(3.47221e-06 -1.60969e-07 0)
(3.71499e-06 -1.66988e-07 0)
(3.96649e-06 -1.72387e-07 0)
(4.22588e-06 -1.77172e-07 0)
(4.49221e-06 -1.81357e-07 0)
(4.76438e-06 -1.84888e-07 0)
(5.04131e-06 -1.87697e-07 0)
(5.32192e-06 -1.89692e-07 0)
(5.60507e-06 -1.90827e-07 0)
(5.8897e-06 -1.91202e-07 0)
(6.17466e-06 -1.90878e-07 0)
(6.45877e-06 -1.89784e-07 0)
(6.74081e-06 -1.87824e-07 0)
(7.01942e-06 -1.84918e-07 0)
(7.29336e-06 -1.81069e-07 0)
(7.56139e-06 -1.76325e-07 0)
(7.82224e-06 -1.70691e-07 0)
(8.07462e-06 -1.64185e-07 0)
(8.31719e-06 -1.56831e-07 0)
(8.54861e-06 -1.48588e-07 0)
(8.76767e-06 -1.3944e-07 0)
(8.97317e-06 -1.29427e-07 0)
(9.16383e-06 -1.18567e-07 0)
(9.33839e-06 -1.06892e-07 0)
(9.49562e-06 -9.4415e-08 0)
(9.63436e-06 -8.11049e-08 0)
(9.75361e-06 -6.70223e-08 0)
(9.85232e-06 -5.22451e-08 0)
(9.92938e-06 -3.67613e-08 0)
(9.98384e-06 -2.0599e-08 0)
(1.00148e-05 -3.85564e-09 0)
(1.00214e-05 1.33963e-08 0)
(1.0003e-05 3.11254e-08 0)
(9.95869e-06 4.93167e-08 0)
(9.88797e-06 6.79675e-08 0)
(9.79036e-06 8.70079e-08 0)
(9.66553e-06 1.06267e-07 0)
(9.51319e-06 1.25624e-07 0)
(9.33324e-06 1.45027e-07 0)
(9.12578e-06 1.64354e-07 0)
(8.89097e-06 1.8349e-07 0)
(8.62913e-06 2.02349e-07 0)
(8.34085e-06 2.20757e-07 0)
(8.0269e-06 2.3853e-07 0)
(7.68822e-06 2.55565e-07 0)
(7.32604e-06 2.71734e-07 0)
(6.94181e-06 2.86824e-07 0)
(6.5372e-06 3.0062e-07 0)
(6.11425e-06 3.12918e-07 0)
(5.67529e-06 3.23495e-07 0)
(5.22295e-06 3.32117e-07 0)
(4.76025e-06 3.38473e-07 0)
(4.29074e-06 3.42131e-07 0)
(3.81833e-06 3.42711e-07 0)
(3.34735e-06 3.39938e-07 0)
(2.88272e-06 3.33481e-07 0)
(2.42987e-06 3.2289e-07 0)
(1.99481e-06 3.07597e-07 0)
(1.58419e-06 2.86992e-07 0)
(1.20515e-06 2.60525e-07 0)
(8.65183e-07 2.27744e-07 0)
(5.72053e-07 1.88394e-07 0)
(3.33348e-07 1.42647e-07 0)
(1.55473e-07 9.15954e-08 0)
(4.27572e-08 3.82297e-08 0)
(-7.7516e-09 -8.45826e-09 0)
(-8.15953e-09 -2.63374e-08 0)
(-8.70932e-09 2.91988e-08 0)
(2.79887e-08 -7.8903e-08 0)
(1.52881e-07 -1.97212e-07 0)
(3.77387e-07 -3.24322e-07 0)
(6.89195e-07 -4.43862e-07 0)
(1.0817e-06 -5.49117e-07 0)
(1.54478e-06 -6.38854e-07 0)
(2.06756e-06 -7.12703e-07 0)
(2.63867e-06 -7.71666e-07 0)
(3.24792e-06 -8.16154e-07 0)
(3.88509e-06 -8.47549e-07 0)
(4.54084e-06 -8.6678e-07 0)
(5.2067e-06 -8.74926e-07 0)
(5.87461e-06 -8.73367e-07 0)
(6.53752e-06 -8.63087e-07 0)
(7.18924e-06 -8.45057e-07 0)
(7.8241e-06 -8.20283e-07 0)
(8.43716e-06 -7.8964e-07 0)
(9.02416e-06 -7.53965e-07 0)
(9.58133e-06 -7.1404e-07 0)
(1.01055e-05 -6.70458e-07 0)
(1.0594e-05 -6.23747e-07 0)
(1.10447e-05 -5.74589e-07 0)
(1.14556e-05 -5.23509e-07 0)
(1.18257e-05 -4.70874e-07 0)
(1.21537e-05 -4.17219e-07 0)
(1.2439e-05 -3.62955e-07 0)
(1.26813e-05 -3.08367e-07 0)
(1.28804e-05 -2.54026e-07 0)
(1.30367e-05 -2.00246e-07 0)
(1.31506e-05 -1.47106e-07 0)
(1.32226e-05 -9.49555e-08 0)
(1.32536e-05 -4.39989e-08 0)
(1.32447e-05 5.6711e-09 0)
(1.31971e-05 5.36544e-08 0)
(1.31121e-05 9.97013e-08 0)
(1.29913e-05 1.43828e-07 0)
(1.28364e-05 1.8584e-07 0)
(1.26489e-05 2.25567e-07 0)
(1.24308e-05 2.63016e-07 0)
(1.2184e-05 2.98028e-07 0)
(1.19104e-05 3.3047e-07 0)
(1.16119e-05 3.60428e-07 0)
(1.12907e-05 3.8786e-07 0)
(1.09489e-05 4.12589e-07 0)
(1.05887e-05 4.3469e-07 0)
(1.02122e-05 4.54212e-07 0)
(9.82161e-06 4.70981e-07 0)
(9.41896e-06 4.85004e-07 0)
(9.00651e-06 4.96435e-07 0)
(8.58636e-06 5.05252e-07 0)
(8.16054e-06 5.11405e-07 0)
(7.73135e-06 5.14942e-07 0)
(7.30094e-06 5.15894e-07 0)
(6.87122e-06 5.14275e-07 0)
(6.44414e-06 5.10229e-07 0)
(6.02167e-06 5.03911e-07 0)
(5.60569e-06 4.9529e-07 0)
(5.19804e-06 4.84343e-07 0)
(4.80052e-06 4.7124e-07 0)
(4.41486e-06 4.56145e-07 0)
(4.04257e-06 4.39111e-07 0)
(3.6852e-06 4.20235e-07 0)
(3.34431e-06 3.99652e-07 0)
(3.02133e-06 3.77421e-07 0)
(2.7175e-06 3.53561e-07 0)
(2.43406e-06 3.282e-07 0)
(2.17215e-06 3.01557e-07 0)
(1.9328e-06 2.73743e-07 0)
(1.71697e-06 2.44787e-07 0)
(1.52555e-06 2.14812e-07 0)
(1.35929e-06 1.83984e-07 0)
(1.21877e-06 1.52421e-07 0)
(1.10452e-06 1.20259e-07 0)
(1.01711e-06 8.76379e-08 0)
(9.5701e-07 5.46161e-08 0)
(9.24486e-07 2.1203e-08 0)
(9.19654e-07 -1.24866e-08 0)
(9.42597e-07 -4.62249e-08 0)
(9.93319e-07 -7.983e-08 0)
(1.0717e-06 -1.13234e-07 0)
(1.17752e-06 -1.46373e-07 0)
(1.31046e-06 -1.79071e-07 0)
(1.47012e-06 -2.11132e-07 0)
(1.65597e-06 -2.42462e-07 0)
(1.86741e-06 -2.72994e-07 0)
(2.10376e-06 -3.02606e-07 0)
(2.36422e-06 -3.31166e-07 0)
(2.64789e-06 -3.58596e-07 0)
(2.9538e-06 -3.84835e-07 0)
(3.28093e-06 -4.09727e-07 0)
(3.62819e-06 -4.33106e-07 0)
(3.99434e-06 -4.54876e-07 0)
(4.37802e-06 -4.74979e-07 0)
(4.77783e-06 -4.93327e-07 0)
(5.19234e-06 -5.09774e-07 0)
(5.62001e-06 -5.24238e-07 0)
(6.05929e-06 -5.36762e-07 0)
(6.50854e-06 -5.47337e-07 0)
(6.96608e-06 -5.55873e-07 0)
(7.4302e-06 -5.62277e-07 0)
(7.89895e-06 -5.66401e-07 0)
(8.3704e-06 -5.68147e-07 0)
(8.84267e-06 -5.67497e-07 0)
(9.3139e-06 -5.64411e-07 0)
(9.78214e-06 -5.5888e-07 0)
(1.02453e-05 -5.50884e-07 0)
(1.07014e-05 -5.40328e-07 0)
(1.11484e-05 -5.27158e-07 0)
(1.15841e-05 -5.11388e-07 0)
(1.20066e-05 -4.93037e-07 0)
(1.24136e-05 -4.72152e-07 0)
(1.28032e-05 -4.48747e-07 0)
(1.31732e-05 -4.22766e-07 0)
(1.35218e-05 -3.94255e-07 0)
(1.38468e-05 -3.63322e-07 0)
(1.41463e-05 -3.30007e-07 0)
(1.44185e-05 -2.94353e-07 0)
(1.46613e-05 -2.56388e-07 0)
(1.4873e-05 -2.16165e-07 0)
(1.5052e-05 -1.73856e-07 0)
(1.51966e-05 -1.29608e-07 0)
(1.53052e-05 -8.34778e-08 0)
(1.53764e-05 -3.55827e-08 0)
(1.54087e-05 1.3887e-08 0)
(1.5401e-05 6.47803e-08 0)
(1.53523e-05 1.16941e-07 0)
(1.52616e-05 1.70164e-07 0)
(1.51283e-05 2.24282e-07 0)
(1.49517e-05 2.79087e-07 0)
(1.47313e-05 3.34254e-07 0)
(1.44672e-05 3.89499e-07 0)
(1.41595e-05 4.44537e-07 0)
(1.38085e-05 4.98968e-07 0)
(1.34147e-05 5.52421e-07 0)
(1.29791e-05 6.04577e-07 0)
(1.25029e-05 6.55032e-07 0)
(1.19876e-05 7.03334e-07 0)
(1.14352e-05 7.49049e-07 0)
(1.08481e-05 7.91655e-07 0)
(1.02289e-05 8.30511e-07 0)
(9.58095e-06 8.64986e-07 0)
(8.90798e-06 8.94445e-07 0)
(8.21414e-06 9.18182e-07 0)
(7.50419e-06 9.35435e-07 0)
(6.78356e-06 9.45348e-07 0)
(6.05834e-06 9.46936e-07 0)
(5.33535e-06 9.39165e-07 0)
(4.62205e-06 9.21009e-07 0)
(3.92652e-06 8.91418e-07 0)
(3.25763e-06 8.49234e-07 0)
(2.62511e-06 7.93244e-07 0)
(2.03919e-06 7.22355e-07 0)
(1.51036e-06 6.35789e-07 0)
(1.04913e-06 5.3345e-07 0)
(6.65231e-07 4.1668e-07 0)
(3.66155e-07 2.89339e-07 0)
(1.56872e-07 1.59225e-07 0)
(3.74341e-08 4.25105e-08 0)
(1.48326e-10 -2.33586e-08 0)
(7.56583e-09 1.92988e-08 0)
(8.67749e-08 -1.81718e-07 0)
(2.82376e-07 -4.0813e-07 0)
(5.97591e-07 -6.41492e-07 0)
(1.02102e-06 -8.59026e-07 0)
(1.54335e-06 -1.05114e-06 0)
(2.15242e-06 -1.21513e-06 0)
(2.83488e-06 -1.35121e-06 0)
(3.5776e-06 -1.45962e-06 0)
(4.36725e-06 -1.54204e-06 0)
(5.19145e-06 -1.60006e-06 0)
(6.03868e-06 -1.63548e-06 0)
(6.89773e-06 -1.65053e-06 0)
(7.75871e-06 -1.64713e-06 0)
(8.61255e-06 -1.62719e-06 0)
(9.45107e-06 -1.59258e-06 0)
(1.02671e-05 -1.54504e-06 0)
(1.1054e-05 -1.48618e-06 0)
(1.1806e-05 -1.41754e-06 0)
(1.25184e-05 -1.34055e-06 0)
(1.3187e-05 -1.25642e-06 0)
(1.38081e-05 -1.16641e-06 0)
(1.43788e-05 -1.07165e-06 0)
(1.48967e-05 -9.73032e-07 0)
(1.536e-05 -8.71561e-07 0)
(1.57673e-05 -7.68103e-07 0)
(1.61177e-05 -6.6331e-07 0)
(1.64105e-05 -5.58002e-07 0)
(1.66457e-05 -4.52903e-07 0)
(1.68236e-05 -3.48514e-07 0)
(1.69448e-05 -2.45564e-07 0)
(1.70101e-05 -1.44638e-07 0)
(1.70208e-05 -4.59694e-08 0)
(1.69781e-05 4.99844e-08 0)
(1.68836e-05 1.42723e-07 0)
(1.67391e-05 2.32024e-07 0)
(1.65467e-05 3.1756e-07 0)
(1.63085e-05 3.98939e-07 0)
(1.6027e-05 4.76024e-07 0)
(1.57046e-05 5.48606e-07 0)
(1.53437e-05 6.16368e-07 0)
(1.4947e-05 6.79258e-07 0)
(1.45174e-05 7.37227e-07 0)
(1.40573e-05 7.90086e-07 0)
(1.35699e-05 8.37819e-07 0)
(1.30582e-05 8.80459e-07 0)
(1.25249e-05 9.17865e-07 0)
(1.19729e-05 9.4994e-07 0)
(1.14052e-05 9.7678e-07 0)
(1.08249e-05 9.98386e-07 0)
(1.02346e-05 1.01472e-06 0)
(9.63736e-06 1.02595e-06 0)
(9.03605e-06 1.0322e-06 0)
(8.43351e-06 1.03342e-06 0)
(7.83252e-06 1.02964e-06 0)
(7.23585e-06 1.02106e-06 0)
(6.64605e-06 1.00784e-06 0)
(6.06558e-06 9.90088e-07 0)
(5.49699e-06 9.67987e-07 0)
(4.94277e-06 9.41741e-07 0)
(4.40519e-06 9.11452e-07 0)
(3.88643e-06 8.77264e-07 0)
(3.38866e-06 8.39467e-07 0)
(2.91392e-06 7.98286e-07 0)
(2.46406e-06 7.53827e-07 0)
(2.04085e-06 7.06263e-07 0)
(1.64604e-06 6.5584e-07 0)
(1.28119e-06 6.02781e-07 0)
(9.47652e-07 5.47308e-07 0)
(6.46724e-07 4.89663e-07 0)
(3.79651e-07 4.30076e-07 0)
(1.47482e-07 3.68716e-07 0)
(-4.89027e-08 3.05774e-07 0)
(-2.08726e-07 2.41583e-07 0)
(-3.31321e-07 1.7647e-07 0)
(-4.16185e-07 1.1062e-07 0)
(-4.62943e-07 4.41535e-08 0)
(-4.71294e-07 -2.27226e-08 0)
(-4.41075e-07 -8.97092e-08 0)
(-3.72364e-07 -1.56538e-07 0)
(-2.65406e-07 -2.22975e-07 0)
(-1.2048e-07 -2.88782e-07 0)
(6.20615e-08 -3.53704e-07 0)
(2.81668e-07 -4.17483e-07 0)
(5.37601e-07 -4.79915e-07 0)
(8.29061e-07 -5.40781e-07 0)
(1.15513e-06 -5.99827e-07 0)
(1.5147e-06 -6.56831e-07 0)
(1.90648e-06 -7.11592e-07 0)
(2.32919e-06 -7.63897e-07 0)
(2.78147e-06 -8.13502e-07 0)
(3.26179e-06 -8.6018e-07 0)
(3.76844e-06 -9.03786e-07 0)
(4.29962e-06 -9.44175e-07 0)
(4.85351e-06 -9.81157e-07 0)
(5.42815e-06 -1.01454e-06 0)
(6.02141e-06 -1.04412e-06 0)
(6.63105e-06 -1.06976e-06 0)
(7.25485e-06 -1.09136e-06 0)
(7.89056e-06 -1.10876e-06 0)
(8.5358e-06 -1.1219e-06 0)
(9.18807e-06 -1.1307e-06 0)
(9.84472e-06 -1.13494e-06 0)
(1.05031e-05 -1.13446e-06 0)
(1.11607e-05 -1.12915e-06 0)
(1.18146e-05 -1.11897e-06 0)
(1.24623e-05 -1.10392e-06 0)
(1.3101e-05 -1.08391e-06 0)
(1.37279e-05 -1.05884e-06 0)
(1.43401e-05 -1.02871e-06 0)
(1.49347e-05 -9.9356e-07 0)
(1.5509e-05 -9.53389e-07 0)
(1.60603e-05 -9.08244e-07 0)
(1.65856e-05 -8.58138e-07 0)
(1.70824e-05 -8.03092e-07 0)
(1.75477e-05 -7.43241e-07 0)
(1.7979e-05 -6.787e-07 0)
(1.83737e-05 -6.09553e-07 0)
(1.87292e-05 -5.35951e-07 0)
(1.90432e-05 -4.58036e-07 0)
(1.93132e-05 -3.75986e-07 0)
(1.95371e-05 -2.90082e-07 0)
(1.97129e-05 -2.00582e-07 0)
(1.98384e-05 -1.0769e-07 0)
(1.99119e-05 -1.16922e-08 0)
(1.99318e-05 8.70775e-08 0)
(1.98967e-05 1.88327e-07 0)
(1.98054e-05 2.91658e-07 0)
(1.9657e-05 3.96574e-07 0)
(1.94506e-05 5.02646e-07 0)
(1.91858e-05 6.09404e-07 0)
(1.88625e-05 7.16269e-07 0)
(1.84807e-05 8.22658e-07 0)
(1.8041e-05 9.27907e-07 0)
(1.75443e-05 1.03126e-06 0)
(1.69918e-05 1.13199e-06 0)
(1.63851e-05 1.22938e-06 0)
(1.57263e-05 1.32258e-06 0)
(1.50181e-05 1.4106e-06 0)
(1.42636e-05 1.49248e-06 0)
(1.34664e-05 1.56716e-06 0)
(1.26309e-05 1.6334e-06 0)
(1.17621e-05 1.68991e-06 0)
(1.08655e-05 1.73532e-06 0)
(9.94751e-06 1.76822e-06 0)
(9.01508e-06 1.78708e-06 0)
(8.07607e-06 1.79024e-06 0)
(7.1392e-06 1.7759e-06 0)
(6.2141e-06 1.74209e-06 0)
(5.31105e-06 1.6869e-06 0)
(4.44108e-06 1.6085e-06 0)
(3.61608e-06 1.50513e-06 0)
(2.84849e-06 1.37527e-06 0)
(2.15086e-06 1.21801e-06 0)
(1.53569e-06 1.03365e-06 0)
(1.01456e-06 8.24856e-07 0)
(5.96166e-07 5.98518e-07 0)
(2.86061e-07 3.67652e-07 0)
(8.93794e-08 1.54822e-07 0)
(9.98239e-09 5.77123e-09 0)
(2.00148e-08 -4.34791e-08 0)
(1.40637e-07 -3.54296e-07 0)
(4.08693e-07 -7.04585e-07 0)
(8.14632e-07 -1.05929e-06 0)
(1.34357e-06 -1.38941e-06 0)
(1.98444e-06 -1.68185e-06 0)
(2.72314e-06 -1.9327e-06 0)
(3.54512e-06 -2.14077e-06 0)
(4.43494e-06 -2.30727e-06 0)
(5.3777e-06 -2.43373e-06 0)
(6.35939e-06 -2.52248e-06 0)
(7.36614e-06 -2.57649e-06 0)
(8.38541e-06 -2.59861e-06 0)
(9.40553e-06 -2.59184e-06 0)
(1.04157e-05 -2.55906e-06 0)
(1.14065e-05 -2.503e-06 0)
(1.2369e-05 -2.42647e-06 0)
(1.32955e-05 -2.33191e-06 0)
(1.41791e-05 -2.22168e-06 0)
(1.5014e-05 -2.09791e-06 0)
(1.57949e-05 -1.96269e-06 0)
(1.65176e-05 -1.81794e-06 0)
(1.71784e-05 -1.66533e-06 0)
(1.77745e-05 -1.50655e-06 0)
(1.83034e-05 -1.3431e-06 0)
(1.87637e-05 -1.17632e-06 0)
(1.9154e-05 -1.00758e-06 0)
(1.94737e-05 -8.38069e-07 0)
(1.97227e-05 -6.68669e-07 0)
(1.99012e-05 -5.0043e-07 0)
(2.00099e-05 -3.34383e-07 0)
(2.00499e-05 -1.71273e-07 0)
(2.00227e-05 -1.19283e-08 0)
(1.99298e-05 1.42849e-07 0)
(1.97732e-05 2.92544e-07 0)
(1.95554e-05 4.36628e-07 0)
(1.92786e-05 5.74517e-07 0)
(1.89456e-05 7.05836e-07 0)
(1.85593e-05 8.30202e-07 0)
(1.81227e-05 9.47182e-07 0)
(1.76389e-05 1.05651e-06 0)
(1.71113e-05 1.15798e-06 0)
(1.65432e-05 1.25128e-06 0)
(1.5938e-05 1.3363e-06 0)
(1.52996e-05 1.41304e-06 0)
(1.46314e-05 1.48133e-06 0)
(1.3937e-05 1.54103e-06 0)
(1.32201e-05 1.59219e-06 0)
(1.24844e-05 1.63483e-06 0)
(1.17335e-05 1.66888e-06 0)
(1.09711e-05 1.69436e-06 0)
(1.02009e-05 1.71146e-06 0)
(9.42628e-06 1.72033e-06 0)
(8.65083e-06 1.72106e-06 0)
(7.87806e-06 1.71384e-06 0)
(7.11141e-06 1.69881e-06 0)
(6.35411e-06 1.67608e-06 0)
(5.60932e-06 1.64596e-06 0)
(4.88023e-06 1.60876e-06 0)
(4.16982e-06 1.56474e-06 0)
(3.48092e-06 1.51412e-06 0)
(2.8164e-06 1.45718e-06 0)
(2.17899e-06 1.39428e-06 0)
(1.57114e-06 1.32572e-06 0)
(9.952e-07 1.25177e-06 0)
(4.53446e-07 1.17281e-06 0)
(-5.19847e-08 1.0892e-06 0)
(-5.19157e-07 1.00121e-06 0)
(-9.46287e-07 9.0924e-07 0)
(-1.33172e-06 8.13723e-07 0)
(-1.67402e-06 7.15036e-07 0)
(-1.97191e-06 6.13497e-07 0)
(-2.22418e-06 5.09444e-07 0)
(-2.42972e-06 4.03294e-07 0)
(-2.58777e-06 2.95455e-07 0)
(-2.69779e-06 1.86299e-07 0)
(-2.75929e-06 7.62247e-08 0)
(-2.77186e-06 -3.43718e-08 0)
(-2.73532e-06 -1.45121e-07 0)
(-2.64978e-06 -2.55668e-07 0)
(-2.51547e-06 -3.65592e-07 0)
(-2.33276e-06 -4.74428e-07 0)
(-2.10214e-06 -5.81798e-07 0)
(-1.82431e-06 -6.87343e-07 0)
(-1.50017e-06 -7.9068e-07 0)
(-1.13068e-06 -8.91423e-07 0)
(-7.17022e-07 -9.89207e-07 0)
(-2.60616e-07 -1.08372e-06 0)
(2.37009e-07 -1.1746e-06 0)
(7.74241e-07 -1.26144e-06 0)
(1.34935e-06 -1.34386e-06 0)
(1.96036e-06 -1.42155e-06 0)
(2.6051e-06 -1.49422e-06 0)
(3.28137e-06 -1.56157e-06 0)
(3.9869e-06 -1.62329e-06 0)
(4.71922e-06 -1.67915e-06 0)
(5.4757e-06 -1.72892e-06 0)
(6.25357e-06 -1.77231e-06 0)
(7.05003e-06 -1.80903e-06 0)
(7.86217e-06 -1.83882e-06 0)
(8.68695e-06 -1.86149e-06 0)
(9.52128e-06 -1.87694e-06 0)
(1.0362e-05 -1.88498e-06 0)
(1.12057e-05 -1.88536e-06 0)
(1.20492e-05 -1.87793e-06 0)
(1.2889e-05 -1.86255e-06 0)
(1.37217e-05 -1.83913e-06 0)
(1.45438e-05 -1.8076e-06 0)
(1.5352e-05 -1.76788e-06 0)
(1.61426e-05 -1.71994e-06 0)
(1.69121e-05 -1.66381e-06 0)
(1.76569e-05 -1.59947e-06 0)
(1.83736e-05 -1.52694e-06 0)
(1.90588e-05 -1.44635e-06 0)
(1.9709e-05 -1.35778e-06 0)
(2.03207e-05 -1.26136e-06 0)
(2.08907e-05 -1.15727e-06 0)
(2.14158e-05 -1.04567e-06 0)
(2.18927e-05 -9.26819e-07 0)
(2.23185e-05 -8.01014e-07 0)
(2.26903e-05 -6.68526e-07 0)
(2.30052e-05 -5.29685e-07 0)
(2.32607e-05 -3.84959e-07 0)
(2.34545e-05 -2.34813e-07 0)
(2.35842e-05 -7.96618e-08 0)
(2.36478e-05 7.99905e-08 0)
(2.36437e-05 2.43582e-07 0)
(2.35704e-05 4.10521e-07 0)
(2.34266e-05 5.8005e-07 0)
(2.32115e-05 7.51347e-07 0)
(2.29244e-05 9.23629e-07 0)
(2.25653e-05 1.09603e-06 0)
(2.21343e-05 1.26757e-06 0)
(2.1632e-05 1.43721e-06 0)
(2.10595e-05 1.60383e-06 0)
(2.04185e-05 1.76622e-06 0)
(1.97108e-05 1.92309e-06 0)
(1.89391e-05 2.07309e-06 0)
(1.81067e-05 2.21469e-06 0)
(1.72175e-05 2.34627e-06 0)
(1.62758e-05 2.46615e-06 0)
(1.52869e-05 2.57252e-06 0)
(1.42569e-05 2.66337e-06 0)
(1.31926e-05 2.7365e-06 0)
(1.21015e-05 2.78964e-06 0)
(1.09921e-05 2.82045e-06 0)
(9.87372e-06 2.82641e-06 0)
(8.75657e-06 2.80487e-06 0)
(7.65182e-06 2.75307e-06 0)
(6.57152e-06 2.66819e-06 0)
(5.52853e-06 2.54758e-06 0)
(4.53635e-06 2.38892e-06 0)
(3.6089e-06 2.19048e-06 0)
(2.76022e-06 1.95148e-06 0)
(2.0043e-06 1.67279e-06 0)
(1.35454e-06 1.35821e-06 0)
(8.21769e-07 1.01669e-06 0)
(4.1342e-07 6.64994e-07 0)
(1.40274e-07 3.30583e-07 0)
(1.95696e-08 6.30039e-08 0)
(2.9019e-08 -1.30204e-07 0)
(1.872e-07 -5.87411e-07 0)
(5.24261e-07 -1.08229e-06 0)
(1.01573e-06 -1.57285e-06 0)
(1.64209e-06 -2.02708e-06 0)
(2.38964e-06 -2.42994e-06 0)
(3.2432e-06 -2.77549e-06 0)
(4.18594e-06 -3.06279e-06 0)
(5.2014e-06 -3.29247e-06 0)
(6.27348e-06 -3.46666e-06 0)
(7.3861e-06 -3.58857e-06 0)
(8.52458e-06 -3.66175e-06 0)
(9.67475e-06 -3.69013e-06 0)
(1.08237e-05 -3.67769e-06 0)
(1.19595e-05 -3.62828e-06 0)
(1.30711e-05 -3.54583e-06 0)
(1.41488e-05 -3.43404e-06 0)
(1.51838e-05 -3.29643e-06 0)
(1.61682e-05 -3.13623e-06 0)
(1.70953e-05 -2.95658e-06 0)
(1.79591e-05 -2.76037e-06 0)
(1.87547e-05 -2.55027e-06 0)
(1.94779e-05 -2.32877e-06 0)
(2.01252e-05 -2.09828e-06 0)
(2.06941e-05 -1.86083e-06 0)
(2.11824e-05 -1.61848e-06 0)
(2.15889e-05 -1.37323e-06 0)
(2.19129e-05 -1.1267e-06 0)
(2.21542e-05 -8.80467e-07 0)
(2.2313e-05 -6.36066e-07 0)
(2.23901e-05 -3.94676e-07 0)
(2.23869e-05 -1.57501e-07 0)
(2.23049e-05 7.41583e-08 0)
(2.21461e-05 2.9934e-07 0)
(2.19128e-05 5.17163e-07 0)
(2.16078e-05 7.26699e-07 0)
(2.12339e-05 9.27261e-07 0)
(2.07944e-05 1.11824e-06 0)
(2.02925e-05 1.29893e-06 0)
(1.97319e-05 1.46886e-06 0)
(1.91163e-05 1.6277e-06 0)
(1.84496e-05 1.77495e-06 0)
(1.77357e-05 1.91026e-06 0)
(1.6979e-05 2.03353e-06 0)
(1.61835e-05 2.14455e-06 0)
(1.53537e-05 2.24308e-06 0)
(1.44936e-05 2.32906e-06 0)
(1.36079e-05 2.40249e-06 0)
(1.27007e-05 2.46333e-06 0)
(1.17764e-05 2.51161e-06 0)
(1.08393e-05 2.54743e-06 0)
(9.89383e-06 2.57089e-06 0)
(8.94419e-06 2.58211e-06 0)
(7.99458e-06 2.58136e-06 0)
(7.04909e-06 2.56897e-06 0)
(6.11172e-06 2.5451e-06 0)
(5.18642e-06 2.50998e-06 0)
(4.27705e-06 2.46402e-06 0)
(3.38733e-06 2.40759e-06 0)
(2.52078e-06 2.34103e-06 0)
(1.68085e-06 2.26476e-06 0)
(8.70917e-07 2.17927e-06 0)
(9.41802e-08 2.08496e-06 0)
(-6.46399e-07 1.98224e-06 0)
(-1.34796e-06 1.87158e-06 0)
(-2.00781e-06 1.75355e-06 0)
(-2.62348e-06 1.62862e-06 0)
(-3.19261e-06 1.49727e-06 0)
(-3.71301e-06 1.36006e-06 0)
(-4.18273e-06 1.21754e-06 0)
(-4.60007e-06 1.07025e-06 0)
(-4.9635e-06 9.18765e-07 0)
(-5.27157e-06 7.63693e-07 0)
(-5.52304e-06 6.05566e-07 0)
(-5.71696e-06 4.44876e-07 0)
(-5.85259e-06 2.82183e-07 0)
(-5.92932e-06 1.18143e-07 0)
(-5.94678e-06 -4.66347e-08 0)
(-5.9048e-06 -2.1162e-07 0)
(-5.80342e-06 -3.76274e-07 0)
(-5.64287e-06 -5.39996e-07 0)
(-5.4236e-06 -7.02147e-07 0)
(-5.14626e-06 -8.62175e-07 0)
(-4.81166e-06 -1.01954e-06 0)
(-4.42082e-06 -1.17362e-06 0)
(-3.97496e-06 -1.32386e-06 0)
(-3.47552e-06 -1.46975e-06 0)
(-2.92415e-06 -1.61081e-06 0)
(-2.32261e-06 -1.74649e-06 0)
(-1.67281e-06 -1.87622e-06 0)
(-9.76915e-07 -1.99949e-06 0)
(-2.37253e-07 -2.11589e-06 0)
(5.43641e-07 -2.22493e-06 0)
(1.36314e-06 -2.3261e-06 0)
(2.21846e-06 -2.41896e-06 0)
(3.10661e-06 -2.50313e-06 0)
(4.0245e-06 -2.57828e-06 0)
(4.96893e-06 -2.64403e-06 0)
(5.93655e-06 -2.69998e-06 0)
(6.92387e-06 -2.74577e-06 0)
(7.9272e-06 -2.78106e-06 0)
(8.94283e-06 -2.80559e-06 0)
(9.96702e-06 -2.81912e-06 0)
(1.09958e-05 -2.82141e-06 0)
(1.20253e-05 -2.81225e-06 0)
(1.30514e-05 -2.79144e-06 0)
(1.407e-05 -2.75878e-06 0)
(1.50771e-05 -2.71414e-06 0)
(1.60684e-05 -2.65749e-06 0)
(1.70397e-05 -2.58878e-06 0)
(1.79869e-05 -2.50801e-06 0)
(1.89058e-05 -2.41518e-06 0)
(1.97923e-05 -2.3103e-06 0)
(2.06421e-05 -2.19352e-06 0)
(2.14513e-05 -2.06508e-06 0)
(2.22157e-05 -1.92512e-06 0)
(2.29314e-05 -1.77386e-06 0)
(2.35947e-05 -1.61162e-06 0)
(2.42017e-05 -1.43876e-06 0)
(2.4749e-05 -1.25569e-06 0)
(2.5233e-05 -1.06288e-06 0)
(2.56504e-05 -8.6079e-07 0)
(2.59983e-05 -6.50004e-07 0)
(2.62737e-05 -4.31246e-07 0)
(2.64741e-05 -2.05225e-07 0)
(2.65971e-05 2.73497e-08 0)
(2.66407e-05 2.65625e-07 0)
(2.66031e-05 5.08657e-07 0)
(2.64829e-05 7.55433e-07 0)
(2.6279e-05 1.00481e-06 0)
(2.59908e-05 1.25556e-06 0)
(2.56181e-05 1.50639e-06 0)
(2.51612e-05 1.7559e-06 0)
(2.46208e-05 2.00259e-06 0)
(2.39981e-05 2.24482e-06 0)
(2.3295e-05 2.48085e-06 0)
(2.25139e-05 2.70882e-06 0)
(2.16578e-05 2.92671e-06 0)
(2.07305e-05 3.13236e-06 0)
(1.97364e-05 3.32347e-06 0)
(1.86808e-05 3.49757e-06 0)
(1.75698e-05 3.65205e-06 0)
(1.64102e-05 3.78417e-06 0)
(1.52097e-05 3.8909e-06 0)
(1.3977e-05 3.96904e-06 0)
(1.27218e-05 4.01525e-06 0)
(1.14546e-05 4.02609e-06 0)
(1.01868e-05 3.99796e-06 0)
(8.93088e-06 3.92725e-06 0)
(7.70014e-06 3.81037e-06 0)
(6.50875e-06 3.64391e-06 0)
(5.37164e-06 3.42491e-06 0)
(4.30406e-06 3.15129e-06 0)
(3.3212e-06 2.82245e-06 0)
(2.43824e-06 2.43996e-06 0)
(1.67033e-06 2.00863e-06 0)
(1.03091e-06 1.53862e-06 0)
(5.30527e-07 1.04833e-06 0)
(1.86151e-07 5.67464e-07 0)
(2.79312e-08 1.46117e-07 0)
(3.60214e-08 -2.38244e-07 0)
(2.26242e-07 -8.7452e-07 0)
(6.24525e-07 -1.53399e-06 0)
(1.1932e-06 -2.17389e-06 0)
(1.90634e-06 -2.76201e-06 0)
(2.74859e-06 -3.28214e-06 0)
(3.70193e-06 -3.72831e-06 0)
(4.74837e-06 -4.09875e-06 0)
(5.87021e-06 -4.39437e-06 0)
(7.04961e-06 -4.61804e-06 0)
(8.27001e-06 -4.7734e-06 0)
(9.51519e-06 -4.86503e-06 0)
(1.07701e-05 -4.89772e-06 0)
(1.20209e-05 -4.87641e-06 0)
(1.32544e-05 -4.8063e-06 0)
(1.44588e-05 -4.69222e-06 0)
(1.56234e-05 -4.53895e-06 0)
(1.67386e-05 -4.35109e-06 0)
(1.77957e-05 -4.13296e-06 0)
(1.87872e-05 -3.88866e-06 0)
(1.97067e-05 -3.62202e-06 0)
(2.05485e-05 -3.33659e-06 0)
(2.13081e-05 -3.03582e-06 0)
(2.19817e-05 -2.72276e-06 0)
(2.25662e-05 -2.40035e-06 0)
(2.30594e-05 -2.07134e-06 0)
(2.34598e-05 -1.73815e-06 0)
(2.37667e-05 -1.40312e-06 0)
(2.39797e-05 -1.06854e-06 0)
(2.40994e-05 -7.36342e-07 0)
(2.41267e-05 -4.08256e-07 0)
(2.40628e-05 -8.60687e-08 0)
(2.39097e-05 2.28706e-07 0)
(2.36696e-05 5.3473e-07 0)
(2.33453e-05 8.30663e-07 0)
(2.29397e-05 1.11537e-06 0)
(2.24563e-05 1.38791e-06 0)
(2.18985e-05 1.64727e-06 0)
(2.12703e-05 1.89262e-06 0)
(2.05759e-05 2.12332e-06 0)
(1.98194e-05 2.33873e-06 0)
(1.90053e-05 2.53827e-06 0)
(1.81382e-05 2.72159e-06 0)
(1.7223e-05 2.88839e-06 0)
(1.62644e-05 3.03828e-06 0)
(1.52674e-05 3.17109e-06 0)
(1.42368e-05 3.28674e-06 0)
(1.31778e-05 3.3851e-06 0)
(1.20953e-05 3.4661e-06 0)
(1.09942e-05 3.5299e-06 0)
(9.8796e-06 3.57666e-06 0)
(8.75644e-06 3.60645e-06 0)
(7.62962e-06 3.61949e-06 0)
(6.50406e-06 3.61609e-06 0)
(5.3844e-06 3.59655e-06 0)
(4.27518e-06 3.56123e-06 0)
(3.18103e-06 3.51057e-06 0)
(2.10641e-06 3.44504e-06 0)
(1.05552e-06 3.36504e-06 0)
(3.25007e-08 3.27108e-06 0)
(-9.58631e-07 3.1638e-06 0)
(-1.91402e-06 3.04379e-06 0)
(-2.83005e-06 2.91159e-06 0)
(-3.70327e-06 2.76784e-06 0)
(-4.53034e-06 2.61321e-06 0)
(-5.30814e-06 2.44835e-06 0)
(-6.03384e-06 2.27396e-06 0)
(-6.70474e-06 2.09081e-06 0)
(-7.31831e-06 1.89962e-06 0)
(-7.87231e-06 1.70108e-06 0)
(-8.36473e-06 1.49591e-06 0)
(-8.79373e-06 1.28492e-06 0)