/*--------------------------------*- C++ -*----------------------------------*\
  =========                 |
  \\      /  F ield         | OpenFOAM: The Open Source CFD Toolbox
   \\    /   O peration     | Website:  https://openfoam.org
    \\  /    A nd           | Version:  7
     \\/     M anipulation  |
\*---------------------------------------------------------------------------*/
FoamFile
{
    version     2.0;
    format      ascii;
    class       volVectorField;
    location    "0.3";
    object      U;
}
// * * * * * * * * * * * * * * * * * * * * * * * * * * * * * * * * * * * * * //

dimensions      [0 1 -1 0 0 0 0];

internalField   nonuniform List<vector> 
51200
(
(-4.18706e-08 -2.60138e-08 0)
(5.62979e-10 -4.82958e-08 0)
(3.67715e-08 -2.60946e-08 0)
(1.18035e-07 -2.68291e-08 0)
(1.95633e-07 -3.05296e-08 0)
(2.9008e-07 -3.42115e-08 0)
(3.97427e-07 -3.72562e-08 0)
(5.13133e-07 -3.91806e-08 0)
(6.33132e-07 -3.96804e-08 0)
(7.54436e-07 -3.91943e-08 0)
(8.74376e-07 -3.82008e-08 0)
(9.90645e-07 -3.68561e-08 0)
(1.10122e-06 -3.52425e-08 0)
(1.20464e-06 -3.31513e-08 0)
(1.29978e-06 -3.05132e-08 0)
(1.38538e-06 -2.74001e-08 0)
(1.46039e-06 -2.39796e-08 0)
(1.52404e-06 -2.04261e-08 0)
(1.5758e-06 -1.67685e-08 0)
(1.61534e-06 -1.29598e-08 0)
(1.6424e-06 -9.09962e-09 0)
(1.65681e-06 -5.36189e-09 0)
(1.65842e-06 -1.65986e-09 0)
(1.64723e-06 2.0895e-09 0)
(1.62342e-06 5.78104e-09 0)
(1.5871e-06 9.41609e-09 0)
(1.53854e-06 1.28998e-08 0)
(1.47808e-06 1.60838e-08 0)
(1.40589e-06 1.92663e-08 0)
(1.32223e-06 2.26117e-08 0)
(1.22754e-06 2.59459e-08 0)
(1.12232e-06 2.91308e-08 0)
(1.00705e-06 3.20729e-08 0)
(8.82263e-07 3.4784e-08 0)
(7.48492e-07 3.7353e-08 0)
(6.06279e-07 3.96963e-08 0)
(4.563e-07 4.1755e-08 0)
(2.99135e-07 4.36351e-08 0)
(1.35322e-07 4.5359e-08 0)
(-3.44844e-08 4.69762e-08 0)
(-2.09706e-07 4.86167e-08 0)
(-3.89697e-07 5.01474e-08 0)
(-5.73738e-07 5.14153e-08 0)
(-7.61227e-07 5.24663e-08 0)
(-9.5157e-07 5.3287e-08 0)
(-1.14417e-06 5.38183e-08 0)
(-1.33839e-06 5.40623e-08 0)
(-1.5335e-06 5.40642e-08 0)
(-1.72897e-06 5.39731e-08 0)
(-1.92432e-06 5.38713e-08 0)
(-2.11896e-06 5.36443e-08 0)
(-2.31228e-06 5.31869e-08 0)
(-2.50366e-06 5.2533e-08 0)
(-2.69257e-06 5.18276e-08 0)
(-2.87847e-06 5.11249e-08 0)
(-3.06086e-06 5.03642e-08 0)
(-3.2393e-06 4.94348e-08 0)
(-3.41328e-06 4.81869e-08 0)
(-3.58235e-06 4.65641e-08 0)
(-3.74607e-06 4.4669e-08 0)
(-3.90392e-06 4.27032e-08 0)
(-4.05553e-06 4.08564e-08 0)
(-4.20058e-06 3.91435e-08 0)
(-4.33874e-06 3.74315e-08 0)
(-4.46968e-06 3.55878e-08 0)
(-4.59302e-06 3.35105e-08 0)
(-4.70842e-06 3.11558e-08 0)
(-4.81551e-06 2.85775e-08 0)
(-4.91397e-06 2.59324e-08 0)
(-5.0037e-06 2.34199e-08 0)
(-5.08462e-06 2.10764e-08 0)
(-5.15652e-06 1.87085e-08 0)
(-5.21916e-06 1.61558e-08 0)
(-5.2724e-06 1.34811e-08 0)
(-5.31613e-06 1.08404e-08 0)
(-5.35023e-06 8.24971e-09 0)
(-5.37463e-06 5.55524e-09 0)
(-5.38921e-06 2.66457e-09 0)
(-5.39395e-06 -2.99827e-10 0)
(-5.38886e-06 -3.15541e-09 0)
(-5.37397e-06 -5.8412e-09 0)
(-5.34939e-06 -8.42627e-09 0)
(-5.31513e-06 -1.10034e-08 0)
(-5.2712e-06 -1.3616e-08 0)
(-5.21768e-06 -1.62542e-08 0)
(-5.15476e-06 -1.88797e-08 0)
(-5.08264e-06 -2.14604e-08 0)
(-5.00153e-06 -2.39725e-08 0)
(-4.91165e-06 -2.64094e-08 0)
(-4.81315e-06 -2.87839e-08 0)
(-4.70622e-06 -3.10449e-08 0)
(-4.59119e-06 -3.31411e-08 0)
(-4.46835e-06 -3.51612e-08 0)
(-4.33796e-06 -3.72304e-08 0)
(-4.20032e-06 -3.93668e-08 0)
(-4.05571e-06 -4.14469e-08 0)
(-3.90453e-06 -4.32447e-08 0)
(-3.74722e-06 -4.46618e-08 0)
(-3.58416e-06 -4.58663e-08 0)
(-3.41569e-06 -4.71446e-08 0)
(-3.24217e-06 -4.86454e-08 0)
(-3.06411e-06 -5.02089e-08 0)
(-2.882e-06 -5.1518e-08 0)
(-2.69634e-06 -5.23835e-08 0)
(-2.50767e-06 -5.28645e-08 0)
(-2.31646e-06 -5.31884e-08 0)
(-2.12323e-06 -5.35189e-08 0)
(-1.92851e-06 -5.38675e-08 0)
(-1.73274e-06 -5.41734e-08 0)
(-1.53648e-06 -5.4326e-08 0)
(-1.34034e-06 -5.42322e-08 0)
(-1.14488e-06 -5.3883e-08 0)
(-9.50767e-07 -5.32957e-08 0)
(-7.58579e-07 -5.25352e-08 0)
(-5.68783e-07 -5.17069e-08 0)
(-3.81951e-07 -5.07958e-08 0)
(-1.98672e-07 -4.9705e-08 0)
(-1.95362e-08 -4.83781e-08 0)
(1.5473e-07 -4.68039e-08 0)
(3.23562e-07 -4.50824e-08 0)
(4.86517e-07 -4.33174e-08 0)
(6.42945e-07 -4.14165e-08 0)
(7.92206e-07 -3.92461e-08 0)
(9.33762e-07 -3.68249e-08 0)
(1.06706e-06 -3.42658e-08 0)
(1.19167e-06 -3.16785e-08 0)
(1.30713e-06 -2.90505e-08 0)
(1.41281e-06 -2.62045e-08 0)
(1.50815e-06 -2.30404e-08 0)
(1.59278e-06 -1.97165e-08 0)
(1.6664e-06 -1.64337e-08 0)
(1.72872e-06 -1.32019e-08 0)
(1.7794e-06 -9.87509e-09 0)
(1.818e-06 -6.3303e-09 0)
(1.84431e-06 -2.63114e-09 0)
(1.85823e-06 1.06512e-09 0)
(1.8596e-06 4.73318e-09 0)
(1.84836e-06 8.45345e-09 0)
(1.8246e-06 1.22341e-08 0)
(1.78837e-06 1.59835e-08 0)
(1.7399e-06 1.95859e-08 0)
(1.67953e-06 2.29889e-08 0)
(1.60756e-06 2.6244e-08 0)
(1.52446e-06 2.94187e-08 0)
(1.431e-06 3.24755e-08 0)
(1.32804e-06 3.53109e-08 0)
(1.21649e-06 3.78471e-08 0)
(1.09758e-06 3.99588e-08 0)
(9.72859e-07 4.14381e-08 0)
(8.44057e-07 4.22282e-08 0)
(7.13162e-07 4.24494e-08 0)
(5.82607e-07 4.20267e-08 0)
(4.55248e-07 4.06091e-08 0)
(3.34441e-07 3.78197e-08 0)
(2.24199e-07 3.33698e-08 0)
(1.29031e-07 2.70347e-08 0)
(5.39349e-08 1.86049e-08 0)
(4.25668e-09 8.02208e-09 0)
(-1.58252e-08 -3.57238e-09 0)
(-9.17676e-09 -9.38138e-09 0)
(-5.03176e-08 2.27926e-08 0)
(-2.7936e-08 -8.47463e-08 0)
(9.41881e-08 -1.07613e-07 0)
(2.72428e-07 -1.44516e-07 0)
(4.93075e-07 -1.77237e-07 0)
(7.52408e-07 -2.02598e-07 0)
(1.04049e-06 -2.20782e-07 0)
(1.34716e-06 -2.32157e-07 0)
(1.66322e-06 -2.37031e-07 0)
(1.98097e-06 -2.36218e-07 0)
(2.2941e-06 -2.30746e-07 0)
(2.59666e-06 -2.21492e-07 0)
(2.88343e-06 -2.09031e-07 0)
(3.15e-06 -1.93643e-07 0)
(3.39263e-06 -1.7579e-07 0)
(3.60853e-06 -1.55839e-07 0)
(3.79518e-06 -1.34269e-07 0)
(3.95038e-06 -1.11448e-07 0)
(4.07246e-06 -8.76714e-08 0)
(4.16016e-06 -6.3148e-08 0)
(4.21272e-06 -3.81292e-08 0)
(4.22968e-06 -1.29723e-08 0)
(4.21073e-06 1.22232e-08 0)
(4.15577e-06 3.73411e-08 0)
(4.06497e-06 6.22212e-08 0)
(3.93881e-06 8.68258e-08 0)
(3.77792e-06 1.10962e-07 0)
(3.5831e-06 1.34358e-07 0)
(3.35524e-06 1.57009e-07 0)
(3.09509e-06 1.79087e-07 0)
(2.80387e-06 2.00462e-07 0)
(2.48295e-06 2.20943e-07 0)
(2.13363e-06 2.40382e-07 0)
(1.7574e-06 2.58686e-07 0)
(1.35577e-06 2.7589e-07 0)
(9.30323e-07 2.91986e-07 0)
(4.82758e-07 3.06909e-07 0)
(1.47694e-08 3.20621e-07 0)
(-4.71948e-07 3.33078e-07 0)
(-9.75631e-07 3.44256e-07 0)
(-1.49454e-06 3.54264e-07 0)
(-2.02686e-06 3.63074e-07 0)
(-2.57073e-06 3.70608e-07 0)
(-3.12434e-06 3.76915e-07 0)
(-3.68591e-06 3.8198e-07 0)
(-4.25367e-06 3.85787e-07 0)
(-4.8258e-06 3.88357e-07 0)
(-5.40049e-06 3.89641e-07 0)
(-5.97609e-06 3.89694e-07 0)
(-6.55089e-06 3.88684e-07 0)
(-7.12316e-06 3.8661e-07 0)
(-7.6913e-06 3.83387e-07 0)
(-8.25372e-06 3.78981e-07 0)
(-8.80884e-06 3.73512e-07 0)
(-9.35513e-06 3.67051e-07 0)
(-9.89108e-06 3.59645e-07 0)
(-1.04152e-05 3.51368e-07 0)
(-1.09261e-05 3.42132e-07 0)
(-1.14224e-05 3.31858e-07 0)
(-1.19029e-05 3.20616e-07 0)
(-1.23663e-05 3.08503e-07 0)
(-1.28115e-05 2.95654e-07 0)
(-1.32375e-05 2.82176e-07 0)
(-1.3643e-05 2.68074e-07 0)
(-1.4027e-05 2.53355e-07 0)
(-1.43888e-05 2.3799e-07 0)
(-1.47273e-05 2.2195e-07 0)
(-1.50418e-05 2.05259e-07 0)
(-1.53314e-05 1.87972e-07 0)
(-1.55955e-05 1.70247e-07 0)
(-1.58335e-05 1.52303e-07 0)
(-1.60449e-05 1.34137e-07 0)
(-1.62291e-05 1.15603e-07 0)
(-1.63858e-05 9.67124e-08 0)
(-1.65146e-05 7.76176e-08 0)
(-1.66152e-05 5.8436e-08 0)
(-1.66874e-05 3.91362e-08 0)
(-1.67308e-05 1.96248e-08 0)
(-1.67455e-05 -3.87594e-11 0)
(-1.67315e-05 -1.96946e-08 0)
(-1.66887e-05 -3.92718e-08 0)
(-1.66173e-05 -5.87308e-08 0)
(-1.65175e-05 -7.79985e-08 0)
(-1.63895e-05 -9.70203e-08 0)
(-1.62337e-05 -1.15786e-07 0)
(-1.60503e-05 -1.34272e-07 0)
(-1.584e-05 -1.5244e-07 0)
(-1.5603e-05 -1.70261e-07 0)
(-1.53401e-05 -1.87665e-07 0)
(-1.50519e-05 -2.04622e-07 0)
(-1.4739e-05 -2.21081e-07 0)
(-1.44022e-05 -2.36922e-07 0)
(-1.40424e-05 -2.52131e-07 0)
(-1.36603e-05 -2.66802e-07 0)
(-1.32568e-05 -2.80966e-07 0)
(-1.28329e-05 -2.946e-07 0)
(-1.23897e-05 -3.07531e-07 0)
(-1.19283e-05 -3.19511e-07 0)
(-1.145e-05 -3.30471e-07 0)
(-1.09557e-05 -3.40566e-07 0)
(-1.04467e-05 -3.50005e-07 0)
(-9.9241e-06 -3.5877e-07 0)
(-9.38952e-06 -3.6663e-07 0)
(-8.84431e-06 -3.73368e-07 0)
(-8.28995e-06 -3.78907e-07 0)
(-7.72786e-06 -3.83353e-07 0)
(-7.15947e-06 -3.86826e-07 0)
(-6.5864e-06 -3.89309e-07 0)
(-6.01015e-06 -3.90782e-07 0)
(-5.43229e-06 -3.91203e-07 0)
(-4.85453e-06 -3.90472e-07 0)
(-4.27846e-06 -3.8857e-07 0)
(-3.70572e-06 -3.85483e-07 0)
(-3.13807e-06 -3.81177e-07 0)
(-2.57711e-06 -3.7574e-07 0)
(-2.02452e-06 -3.69213e-07 0)
(-1.48202e-06 -3.6153e-07 0)
(-9.51246e-07 -3.52681e-07 0)
(-4.33983e-07 -3.42609e-07 0)
(6.79751e-08 -3.31282e-07 0)
(5.53095e-07 -3.18866e-07 0)
(1.01975e-06 -3.05423e-07 0)
(1.4662e-06 -2.90829e-07 0)
(1.89086e-06 -2.75054e-07 0)
(2.29218e-06 -2.5816e-07 0)
(2.66871e-06 -2.40257e-07 0)
(3.0191e-06 -2.21501e-07 0)
(3.34189e-06 -2.01903e-07 0)
(3.63566e-06 -1.81306e-07 0)
(3.89921e-06 -1.59733e-07 0)
(4.13151e-06 -1.37416e-07 0)
(4.33157e-06 -1.14526e-07 0)
(4.49851e-06 -9.11145e-08 0)
(4.63153e-06 -6.71689e-08 0)
(4.72999e-06 -4.27433e-08 0)
(4.79353e-06 -1.80573e-08 0)
(4.82179e-06 6.69396e-09 0)
(4.81455e-06 3.14727e-08 0)
(4.77194e-06 5.62232e-08 0)
(4.6944e-06 8.0742e-08 0)
(4.58261e-06 1.04742e-07 0)
(4.4375e-06 1.27942e-07 0)
(4.26026e-06 1.50125e-07 0)
(4.05235e-06 1.71129e-07 0)
(3.81574e-06 1.90731e-07 0)
(3.5529e-06 2.08563e-07 0)
(3.26673e-06 2.24196e-07 0)
(2.96066e-06 2.37196e-07 0)
(2.6389e-06 2.46959e-07 0)
(2.30629e-06 2.52797e-07 0)
(1.96823e-06 2.54208e-07 0)
(1.63107e-06 2.50644e-07 0)
(1.3023e-06 2.41197e-07 0)
(9.90306e-07 2.24739e-07 0)
(7.04422e-07 2.00169e-07 0)
(4.54725e-07 1.66624e-07 0)
(2.51441e-07 1.23854e-07 0)
(1.03893e-07 7.2979e-08 0)
(1.89493e-08 1.94928e-08 0)
(-3.56021e-09 -1.57705e-08 0)
(-5.95913e-09 8.62152e-09 0)
(5.41131e-08 -1.49065e-07 0)
(2.13837e-07 -2.78746e-07 0)
(4.6915e-07 -3.90698e-07 0)
(7.97148e-07 -4.81557e-07 0)
(1.18206e-06 -5.49624e-07 0)
(1.60871e-06 -5.96927e-07 0)
(2.06255e-06 -6.2568e-07 0)
(2.52988e-06 -6.37775e-07 0)
(2.99902e-06 -6.34927e-07 0)
(3.45983e-06 -6.19213e-07 0)
(3.90359e-06 -5.9258e-07 0)
(4.32261e-06 -5.56648e-07 0)
(4.71002e-06 -5.12886e-07 0)
(5.05992e-06 -4.62249e-07 0)
(5.36744e-06 -4.05854e-07 0)
(5.62871e-06 -3.44855e-07 0)
(5.84065e-06 -2.80279e-07 0)
(6.00054e-06 -2.12957e-07 0)
(6.10617e-06 -1.43515e-07 0)
(6.15612e-06 -7.26029e-08 0)
(6.14964e-06 -8.78695e-10 0)
(6.08617e-06 7.10888e-08 0)
(5.96563e-06 1.42797e-07 0)
(5.78837e-06 2.13839e-07 0)
(5.55474e-06 2.8402e-07 0)
(5.26565e-06 3.52943e-07 0)
(4.92255e-06 4.20244e-07 0)
(4.52683e-06 4.85537e-07 0)
(4.07999e-06 5.48638e-07 0)
(3.58387e-06 6.09423e-07 0)
(3.04048e-06 6.67579e-07 0)
(2.452e-06 7.22882e-07 0)
(1.82079e-06 7.75176e-07 0)
(1.14918e-06 8.24332e-07 0)
(4.39665e-07 8.70289e-07 0)
(-3.05e-07 9.12964e-07 0)
(-1.08219e-06 9.5225e-07 0)
(-1.88907e-06 9.88004e-07 0)
(-2.72273e-06 1.02013e-06 0)
(-3.5805e-06 1.04864e-06 0)
(-4.45951e-06 1.07351e-06 0)
(-5.35675e-06 1.09477e-06 0)
(-6.26937e-06 1.11246e-06 0)
(-7.19449e-06 1.12657e-06 0)
(-8.12917e-06 1.13716e-06 0)
(-9.07059e-06 1.14426e-06 0)
(-1.00158e-05 1.14781e-06 0)
(-1.09621e-05 1.14792e-06 0)
(-1.19068e-05 1.14474e-06 0)
(-1.28471e-05 1.13826e-06 0)
(-1.37802e-05 1.12848e-06 0)
(-1.47036e-05 1.11542e-06 0)
(-1.56147e-05 1.09918e-06 0)
(-1.65111e-05 1.07986e-06 0)
(-1.73903e-05 1.05763e-06 0)
(-1.82501e-05 1.03269e-06 0)
(-1.90883e-05 1.0051e-06 0)
(-1.99024e-05 9.74905e-07 0)
(-2.06906e-05 9.42198e-07 0)
(-2.14506e-05 9.07025e-07 0)
(-2.21807e-05 8.69501e-07 0)
(-2.28792e-05 8.29843e-07 0)
(-2.35441e-05 7.88138e-07 0)
(-2.41739e-05 7.44449e-07 0)
(-2.4767e-05 6.98934e-07 0)
(-2.53221e-05 6.51752e-07 0)
(-2.58379e-05 6.03002e-07 0)
(-2.6313e-05 5.52765e-07 0)
(-2.67465e-05 5.01193e-07 0)
(-2.71372e-05 4.48527e-07 0)
(-2.74843e-05 3.949e-07 0)
(-2.77869e-05 3.4031e-07 0)
(-2.80443e-05 2.84848e-07 0)
(-2.82559e-05 2.28726e-07 0)
(-2.84214e-05 1.72135e-07 0)
(-2.85404e-05 1.15204e-07 0)
(-2.86125e-05 5.80129e-08 0)
(-2.86376e-05 6.58187e-10 0)
(-2.86155e-05 -5.66963e-08 0)
(-2.85466e-05 -1.13923e-07 0)
(-2.84308e-05 -1.70927e-07 0)
(-2.82684e-05 -2.2756e-07 0)
(-2.80598e-05 -2.83631e-07 0)
(-2.78057e-05 -3.38947e-07 0)
(-2.75065e-05 -3.93347e-07 0)
(-2.7163e-05 -4.46723e-07 0)
(-2.6776e-05 -4.99025e-07 0)
(-2.63465e-05 -5.50164e-07 0)
(-2.58753e-05 -6.00014e-07 0)
(-2.53636e-05 -6.48469e-07 0)
(-2.48126e-05 -6.95383e-07 0)
(-2.42237e-05 -7.40573e-07 0)
(-2.35983e-05 -7.83942e-07 0)
(-2.29379e-05 -8.25442e-07 0)
(-2.2244e-05 -8.65078e-07 0)
(-2.15181e-05 -9.028e-07 0)
(-2.07622e-05 -9.38344e-07 0)
(-1.99782e-05 -9.71406e-07 0)
(-1.91682e-05 -1.00185e-06 0)
(-1.8334e-05 -1.0297e-06 0)
(-1.74775e-05 -1.05501e-06 0)
(-1.6601e-05 -1.07767e-06 0)
(-1.57068e-05 -1.09753e-06 0)
(-1.47972e-05 -1.11446e-06 0)
(-1.38746e-05 -1.12841e-06 0)
(-1.29414e-05 -1.13934e-06 0)
(-1.20001e-05 -1.14721e-06 0)
(-1.10533e-05 -1.15191e-06 0)
(-1.01034e-05 -1.1534e-06 0)
(-9.15321e-06 -1.15162e-06 0)
(-8.20533e-06 -1.14648e-06 0)
(-7.2624e-06 -1.138e-06 0)
(-6.32718e-06 -1.12618e-06 0)
(-5.40237e-06 -1.11099e-06 0)
(-4.49068e-06 -1.09245e-06 0)
(-3.59491e-06 -1.07052e-06 0)
(-2.7178e-06 -1.04519e-06 0)
(-1.86208e-06 -1.01652e-06 0)
(-1.03052e-06 -9.84444e-07 0)
(-2.25808e-07 -9.48968e-07 0)
(5.49492e-07 -9.10265e-07 0)
(1.29275e-06 -8.68404e-07 0)
(2.00134e-06 -8.23361e-07 0)
(2.67277e-06 -7.75224e-07 0)
(3.30467e-06 -7.24115e-07 0)
(3.89479e-06 -6.70192e-07 0)
(4.44099e-06 -6.13711e-07 0)
(4.94116e-06 -5.54777e-07 0)
(5.39325e-06 -4.93404e-07 0)
(5.79551e-06 -4.29829e-07 0)
(6.14643e-06 -3.64358e-07 0)
(6.44461e-06 -2.97199e-07 0)
(6.68879e-06 -2.28623e-07 0)
(6.87805e-06 -1.58956e-07 0)
(7.01172e-06 -8.85555e-08 0)
(7.08941e-06 -1.78721e-08 0)
(7.11102e-06 5.26836e-08 0)
(7.07673e-06 1.22836e-07 0)
(6.98708e-06 1.92186e-07 0)
(6.84318e-06 2.60086e-07 0)
(6.64661e-06 3.25857e-07 0)
(6.39932e-06 3.88824e-07 0)
(6.10387e-06 4.48208e-07 0)
(5.76348e-06 5.03193e-07 0)
(5.382e-06 5.52902e-07 0)
(4.96401e-06 5.96277e-07 0)
(4.51492e-06 6.32146e-07 0)
(4.04107e-06 6.59181e-07 0)
(3.54989e-06 6.7576e-07 0)
(3.04981e-06 6.80181e-07 0)
(2.55026e-06 6.70792e-07 0)
(2.06191e-06 6.45746e-07 0)
(1.59672e-06 6.02919e-07 0)
(1.16768e-06 5.40312e-07 0)
(7.88257e-07 4.56687e-07 0)
(4.71492e-07 3.52434e-07 0)
(2.28934e-07 2.31132e-07 0)
(7.13514e-08 1.03853e-07 0)
(7.50819e-09 3.87363e-09 0)
(1.33381e-08 -1.70303e-08 0)
(1.14232e-07 -2.77993e-07 0)
(3.33291e-07 -5.17463e-07 0)
(6.61561e-07 -7.23453e-07 0)
(1.07688e-06 -8.9029e-07 0)
(1.56042e-06 -1.01544e-06 0)
(2.09337e-06 -1.10151e-06 0)
(2.65845e-06 -1.15293e-06 0)
(3.23943e-06 -1.17353e-06 0)
(3.8213e-06 -1.1669e-06 0)
(4.39101e-06 -1.13622e-06 0)
(4.93714e-06 -1.08466e-06 0)
(5.44963e-06 -1.01524e-06 0)
(5.91989e-06 -9.30626e-07 0)
(6.3403e-06 -8.33117e-07 0)
(6.70442e-06 -7.24758e-07 0)
(7.00696e-06 -6.07347e-07 0)
(7.24363e-06 -4.82779e-07 0)
(7.41104e-06 -3.52786e-07 0)
(7.50634e-06 -2.18709e-07 0)
(7.52747e-06 -8.17227e-08 0)
(7.47317e-06 5.70016e-08 0)
(7.34271e-06 1.96345e-07 0)
(7.13596e-06 3.35408e-07 0)
(6.85335e-06 4.73208e-07 0)
(6.49556e-06 6.09029e-07 0)
(6.06358e-06 7.42503e-07 0)
(5.559e-06 8.72921e-07 0)
(4.98383e-06 9.99613e-07 0)
(4.34028e-06 1.12208e-06 0)
(3.63078e-06 1.23988e-06 0)
(2.85797e-06 1.35258e-06 0)
(2.02478e-06 1.45983e-06 0)
(1.13433e-06 1.56124e-06 0)
(1.89852e-07 1.65653e-06 0)
(-8.0526e-07 1.74556e-06 0)
(-1.84748e-06 1.82814e-06 0)
(-2.93322e-06 1.90411e-06 0)
(-4.05872e-06 1.97335e-06 0)
(-5.22006e-06 2.03562e-06 0)
(-6.41344e-06 2.09082e-06 0)
(-7.63503e-06 2.13899e-06 0)
(-8.88084e-06 2.18009e-06 0)
(-1.0147e-05 2.2141e-06 0)
(-1.14295e-05 2.24109e-06 0)
(-1.27245e-05 2.26111e-06 0)
(-1.40282e-05 2.27426e-06 0)
(-1.53366e-05 2.28055e-06 0)
(-1.66458e-05 2.28007e-06 0)
(-1.79522e-05 2.27297e-06 0)
(-1.92521e-05 2.2594e-06 0)
(-2.05417e-05 2.23949e-06 0)
(-2.18177e-05 2.21332e-06 0)
(-2.30764e-05 2.18095e-06 0)
(-2.43145e-05 2.14258e-06 0)
(-2.55286e-05 2.0984e-06 0)
(-2.67156e-05 2.0486e-06 0)
(-2.78724e-05 1.99348e-06 0)
(-2.89961e-05 1.93328e-06 0)
(-3.00839e-05 1.86822e-06 0)
(-3.1133e-05 1.79842e-06 0)
(-3.21406e-05 1.72405e-06 0)
(-3.31044e-05 1.6454e-06 0)
(-3.4022e-05 1.5627e-06 0)
(-3.48911e-05 1.47613e-06 0)
(-3.57096e-05 1.38592e-06 0)
(-3.64756e-05 1.29237e-06 0)
(-3.71874e-05 1.19575e-06 0)
(-3.78433e-05 1.09632e-06 0)
(-3.84417e-05 9.94301e-07 0)
(-3.89811e-05 8.89955e-07 0)
(-3.94604e-05 7.83616e-07 0)
(-3.98786e-05 6.7553e-07 0)
(-4.02344e-05 5.65864e-07 0)
(-4.05272e-05 4.54815e-07 0)
(-4.07563e-05 3.42659e-07 0)
(-4.09213e-05 2.29746e-07 0)
(-4.10217e-05 1.16392e-07 0)
(-4.10574e-05 2.8075e-09 0)
(-4.10284e-05 -1.10783e-07 0)
(-4.09346e-05 -2.24078e-07 0)
(-4.07762e-05 -3.36817e-07 0)
(-4.05538e-05 -4.48769e-07 0)
(-4.02678e-05 -5.59666e-07 0)
(-3.99189e-05 -6.69199e-07 0)
(-3.95079e-05 -7.77076e-07 0)
(-3.90358e-05 -8.83053e-07 0)
(-3.85036e-05 -9.86908e-07 0)
(-3.79128e-05 -1.08839e-06 0)
(-3.72645e-05 -1.18724e-06 0)
(-3.65604e-05 -1.2833e-06 0)
(-3.58019e-05 -1.37644e-06 0)
(-3.4991e-05 -1.46638e-06 0)
(-3.41296e-05 -1.55278e-06 0)
(-3.32199e-05 -1.63535e-06 0)
(-3.2264e-05 -1.7139e-06 0)
(-3.1264e-05 -1.78839e-06 0)
(-3.02224e-05 -1.85869e-06 0)
(-2.91416e-05 -1.92448e-06 0)
(-2.80245e-05 -1.98542e-06 0)
(-2.68738e-05 -2.04122e-06 0)
(-2.56925e-05 -2.09176e-06 0)
(-2.44834e-05 -2.13695e-06 0)
(-2.32494e-05 -2.17665e-06 0)
(-2.19938e-05 -2.21071e-06 0)
(-2.07198e-05 -2.23898e-06 0)
(-1.94308e-05 -2.26129e-06 0)
(-1.813e-05 -2.27753e-06 0)
(-1.68212e-05 -2.28755e-06 0)
(-1.55076e-05 -2.29123e-06 0)
(-1.4193e-05 -2.28851e-06 0)
(-1.28808e-05 -2.27926e-06 0)
(-1.15748e-05 -2.26345e-06 0)
(-1.02787e-05 -2.24106e-06 0)
(-8.99613e-06 -2.21204e-06 0)
(-7.73089e-06 -2.17637e-06 0)
(-6.48673e-06 -2.13407e-06 0)
(-5.26738e-06 -2.08513e-06 0)
(-4.07653e-06 -2.02959e-06 0)
(-2.91783e-06 -1.96749e-06 0)
(-1.79502e-06 -1.8988e-06 0)
(-7.11702e-07 -1.82366e-06 0)
(3.28712e-07 -1.74232e-06 0)
(1.3228e-06 -1.65493e-06 0)
(2.26712e-06 -1.56157e-06 0)
(3.15847e-06 -1.46246e-06 0)
(3.9937e-06 -1.35782e-06 0)
(4.76991e-06 -1.24798e-06 0)
(5.48446e-06 -1.13339e-06 0)
(6.1347e-06 -1.01431e-06 0)
(6.7181e-06 -8.91001e-07 0)
(7.23259e-06 -7.63992e-07 0)
(7.67643e-06 -6.33822e-07 0)
(8.04798e-06 -5.00994e-07 0)
(8.346e-06 -3.66106e-07 0)
(8.5696e-06 -2.29804e-07 0)
(8.71819e-06 -9.27952e-08 0)
(8.79179e-06 4.40352e-08 0)
(8.7909e-06 1.79775e-07 0)
(8.71625e-06 3.13583e-07 0)
(8.56918e-06 4.44439e-07 0)
(8.35187e-06 5.71091e-07 0)
(8.06702e-06 6.92253e-07 0)
(7.718e-06 8.06529e-07 0)
(7.30918e-06 9.12264e-07 0)
(6.84577e-06 1.00765e-06 0)
(6.33376e-06 1.09075e-06 0)
(5.78024e-06 1.15942e-06 0)
(5.19334e-06 1.21132e-06 0)
(4.58238e-06 1.2438e-06 0)
(3.95809e-06 1.25387e-06 0)
(3.33249e-06 1.23843e-06 0)
(2.71867e-06 1.19441e-06 0)
(2.13085e-06 1.11878e-06 0)
(1.58444e-06 1.00882e-06 0)
(1.0954e-06 8.62998e-07 0)
(6.79022e-07 6.82527e-07 0)
(3.48992e-07 4.73231e-07 0)
(1.21585e-07 2.50047e-07 0)
(1.7839e-08 5.2272e-08 0)
(2.53218e-08 -9.42813e-08 0)
(1.61202e-07 -4.69692e-07 0)
(4.3663e-07 -8.2271e-07 0)
(8.29722e-07 -1.12983e-06 0)
(1.31678e-06 -1.3798e-06 0)
(1.87781e-06 -1.56853e-06 0)
(2.49178e-06 -1.69834e-06 0)
(3.13924e-06 -1.77445e-06 0)
(3.80188e-06 -1.80288e-06 0)
(4.46293e-06 -1.78902e-06 0)
(5.10721e-06 -1.73789e-06 0)
(5.72114e-06 -1.65415e-06 0)
(6.29292e-06 -1.5421e-06 0)
(6.81218e-06 -1.40575e-06 0)
(7.26994e-06 -1.24885e-06 0)
(7.65858e-06 -1.07459e-06 0)
(7.97161e-06 -8.86007e-07 0)
(8.20369e-06 -6.85767e-07 0)
(8.35066e-06 -4.76538e-07 0)
(8.40919e-06 -2.60619e-07 0)
(8.37672e-06 -3.99474e-08 0)
(8.25159e-06 1.83545e-07 0)
(8.0329e-06 4.08302e-07 0)
(7.72032e-06 6.32757e-07 0)
(7.31428e-06 8.55464e-07 0)
(6.81584e-06 1.07504e-06 0)
(6.2263e-06 1.29053e-06 0)
(5.54737e-06 1.50103e-06 0)
(4.78146e-06 1.70562e-06 0)
(3.93128e-06 1.90344e-06 0)
(2.99983e-06 2.0937e-06 0)
(1.99045e-06 2.27576e-06 0)
(9.06654e-07 2.44902e-06 0)
(-2.47698e-07 2.61289e-06 0)
(-1.46854e-06 2.76693e-06 0)
(-2.75167e-06 2.91075e-06 0)
(-4.09269e-06 3.04398e-06 0)
(-5.4871e-06 3.16642e-06 0)
(-6.93037e-06 3.27793e-06 0)
(-8.4177e-06 3.37821e-06 0)
(-9.94427e-06 3.46712e-06 0)
(-1.15053e-05 3.54464e-06 0)
(-1.30959e-05 3.61066e-06 0)
(-1.47112e-05 3.66518e-06 0)
(-1.63462e-05 3.70825e-06 0)
(-1.7996e-05 3.73987e-06 0)
(-1.96559e-05 3.76021e-06 0)
(-2.13211e-05 3.76944e-06 0)
(-2.29866e-05 3.76762e-06 0)
(-2.46478e-05 3.7549e-06 0)
(-2.63e-05 3.73152e-06 0)
(-2.79388e-05 3.69769e-06 0)
(-2.95597e-05 3.65364e-06 0)
(-3.11583e-05 3.59961e-06 0)
(-3.27304e-05 3.53593e-06 0)
(-3.42719e-05 3.46284e-06 0)
(-3.57787e-05 3.38054e-06 0)
(-3.7247e-05 3.28941e-06 0)
(-3.86729e-05 3.1898e-06 0)
(-4.0053e-05 3.08209e-06 0)
(-4.1384e-05 2.96665e-06 0)
(-4.26623e-05 2.84383e-06 0)
(-4.3885e-05 2.71402e-06 0)
(-4.5049e-05 2.57758e-06 0)
(-4.61516e-05 2.43486e-06 0)
(-4.719e-05 2.28622e-06 0)
(-4.81618e-05 2.13203e-06 0)
(-4.90648e-05 1.97272e-06 0)
(-4.9897e-05 1.80885e-06 0)
(-5.06563e-05 1.6408e-06 0)
(-5.1341e-05 1.46889e-06 0)
(-5.19494e-05 1.29355e-06 0)
(-5.24802e-05 1.11531e-06 0)
(-5.29323e-05 9.34577e-07 0)
(-5.33046e-05 7.51701e-07 0)
(-5.35962e-05 5.6705e-07 0)
(-5.38065e-05 3.81077e-07 0)
(-5.39351e-05 1.94287e-07 0)
(-5.39818e-05 7.11571e-09 0)
(-5.39463e-05 -1.80035e-07 0)
(-5.38289e-05 -3.66704e-07 0)
(-5.36298e-05 -5.52457e-07 0)
(-5.33496e-05 -7.36884e-07 0)
(-5.29888e-05 -9.1954e-07 0)
(-5.25482e-05 -1.09997e-06 0)
(-5.2029e-05 -1.27777e-06 0)
(-5.14324e-05 -1.45255e-06 0)
(-5.07596e-05 -1.62392e-06 0)
(-5.00123e-05 -1.79145e-06 0)
(-4.91922e-05 -1.95469e-06 0)
(-4.83013e-05 -2.11324e-06 0)
(-4.73417e-05 -2.26683e-06 0)
(-4.63153e-05 -2.41517e-06 0)
(-4.52248e-05 -2.5579e-06 0)
(-4.40726e-05 -2.69456e-06 0)
(-4.28617e-05 -2.82464e-06 0)
(-4.15951e-05 -2.94774e-06 0)
(-4.02755e-05 -3.06364e-06 0)
(-3.89061e-05 -3.17216e-06 0)
(-3.74903e-05 -3.27295e-06 0)
(-3.60314e-05 -3.36559e-06 0)
(-3.45333e-05 -3.44968e-06 0)
(-3.29996e-05 -3.52496e-06 0)
(-3.14341e-05 -3.59119e-06 0)
(-2.98408e-05 -3.64811e-06 0)
(-2.82236e-05 -3.69553e-06 0)
(-2.65868e-05 -3.73323e-06 0)
(-2.49345e-05 -3.761e-06 0)
(-2.32712e-05 -3.77863e-06 0)
(-2.16013e-05 -3.7859e-06 0)
(-1.99292e-05 -3.78265e-06 0)
(-1.82595e-05 -3.76879e-06 0)
(-1.65967e-05 -3.74421e-06 0)
(-1.49455e-05 -3.70886e-06 0)
(-1.33105e-05 -3.66269e-06 0)
(-1.16964e-05 -3.60566e-06 0)
(-1.01078e-05 -3.53778e-06 0)
(-8.54958e-06 -3.45906e-06 0)
(-7.02617e-06 -3.36954e-06 0)
(-5.54216e-06 -3.26933e-06 0)
(-4.10211e-06 -3.15854e-06 0)
(-2.71063e-06 -3.03727e-06 0)
(-1.37207e-06 -2.90577e-06 0)
(-9.05402e-08 -2.76441e-06 0)
(1.12977e-06 -2.61347e-06 0)
(2.28484e-06 -2.45327e-06 0)
(3.37082e-06 -2.28419e-06 0)
(4.38396e-06 -2.10662e-06 0)
(5.32095e-06 -1.92118e-06 0)
(6.17872e-06 -1.72853e-06 0)
(6.95419e-06 -1.52925e-06 0)
(7.64468e-06 -1.32399e-06 0)
(8.24805e-06 -1.11363e-06 0)
(8.76239e-06 -8.99084e-07 0)
(9.18618e-06 -6.81312e-07 0)
(9.5184e-06 -4.61376e-07 0)
(9.75837e-06 -2.40399e-07 0)
(9.90598e-06 -1.96484e-08 0)
(9.96189e-06 1.99362e-07 0)
(9.92722e-06 4.15007e-07 0)
(9.80365e-06 6.25627e-07 0)
(9.59376e-06 8.29356e-07 0)
(9.30098e-06 1.02409e-06 0)
(8.92945e-06 1.20762e-06 0)
(8.48433e-06 1.37747e-06 0)
(7.97188e-06 1.53084e-06 0)
(7.39943e-06 1.6646e-06 0)
(6.77547e-06 1.77539e-06 0)
(6.1096e-06 1.85969e-06 0)
(5.41267e-06 1.91363e-06 0)
(4.69705e-06 1.93301e-06 0)
(3.9765e-06 1.91338e-06 0)
(3.26605e-06 1.85032e-06 0)
(2.58174e-06 1.7397e-06 0)
(1.94068e-06 1.5782e-06 0)
(1.36073e-06 1.36408e-06 0)
(8.59417e-07 1.09881e-06 0)
(4.53156e-07 7.89191e-07 0)
(1.64262e-07 4.51545e-07 0)
(2.62553e-08 1.25867e-07 0)
(3.29848e-08 -1.91915e-07 0)
(1.96524e-07 -7.08084e-07 0)
(5.19705e-07 -1.18567e-06 0)
(9.66933e-07 -1.59925e-06 0)
(1.51085e-06 -1.93531e-06 0)
(2.1305e-06 -2.18923e-06 0)
(2.80361e-06 -2.36327e-06 0)
(3.50869e-06 -2.46369e-06 0)
(4.22605e-06 -2.49757e-06 0)
(4.93743e-06 -2.47217e-06 0)
(5.62619e-06 -2.39437e-06 0)
(6.27746e-06 -2.27048e-06 0)
(6.87785e-06 -2.10646e-06 0)
(7.41571e-06 -1.90781e-06 0)
(7.88094e-06 -1.67956e-06 0)
(8.26485e-06 -1.42644e-06 0)
(8.56012e-06 -1.15267e-06 0)
(8.76057e-06 -8.6212e-07 0)
(8.86128e-06 -5.58381e-07 0)
(8.85848e-06 -2.44754e-07 0)
(8.74922e-06 7.58078e-08 0)
(8.53159e-06 4.00601e-07 0)
(8.20452e-06 7.2724e-07 0)
(7.76753e-06 1.05357e-06 0)
(7.22102e-06 1.37762e-06 0)
(6.56617e-06 1.69744e-06 0)
(5.80465e-06 2.01128e-06 0)
(4.93856e-06 2.31779e-06 0)
(3.97054e-06 2.61565e-06 0)
(2.90375e-06 2.9036e-06 0)
(1.74172e-06 3.18059e-06 0)
(4.88369e-07 3.44558e-06 0)
(-8.52153e-07 3.69771e-06 0)
(-2.27534e-06 3.93625e-06 0)
(-3.7764e-06 4.1605e-06 0)
(-5.35041e-06 4.36984e-06 0)
(-6.99215e-06 4.56377e-06 0)
(-8.69622e-06 4.74185e-06 0)
(-1.04573e-05 4.90378e-06 0)
(-1.22698e-05 5.04932e-06 0)
(-1.41279e-05 5.17823e-06 0)
(-1.6026e-05 5.29039e-06 0)
(-1.79584e-05 5.38572e-06 0)
(-1.99192e-05 5.46422e-06 0)
(-2.19025e-05 5.52594e-06 0)
(-2.39026e-05 5.57087e-06 0)
(-2.59137e-05 5.59917e-06 0)
(-2.793e-05 5.61109e-06 0)
(-2.9946e-05 5.60681e-06 0)
(-3.1956e-05 5.58655e-06 0)
(-3.39545e-05 5.55058e-06 0)
(-3.59359e-05 5.49917e-06 0)
(-3.78952e-05 5.43263e-06 0)
(-3.98269e-05 5.35137e-06 0)
(-4.17262e-05 5.25583e-06 0)
(-4.35881e-05 5.14643e-06 0)
(-4.54079e-05 5.02364e-06 0)
(-4.71809e-05 4.88792e-06 0)
(-4.89025e-05 4.73967e-06 0)
(-5.05687e-05 4.57939e-06 0)
(-5.21752e-05 4.40767e-06 0)
(-5.37182e-05 4.22501e-06 0)
(-5.51938e-05 4.03194e-06 0)
(-5.65986e-05 3.82908e-06 0)
(-5.79291e-05 3.61701e-06 0)
(-5.91824e-05 3.39628e-06 0)
(-6.03554e-05 3.16743e-06 0)
(-6.14453e-05 2.93101e-06 0)
(-6.24496e-05 2.68773e-06 0)
(-6.33662e-05 2.43826e-06 0)
(-6.41928e-05 2.18314e-06 0)
(-6.49275e-05 1.92297e-06 0)
(-6.55686e-05 1.65839e-06 0)
(-6.61149e-05 1.39005e-06 0)
(-6.6565e-05 1.1186e-06 0)
(-6.6918e-05 8.44644e-07 0)
(-6.7173e-05 5.6879e-07 0)
(-6.73296e-05 2.91683e-07 0)
(-6.73873e-05 1.39907e-08 0)
(-6.73462e-05 -2.63663e-07 0)
(-6.72064e-05 -5.40642e-07 0)
(-6.69681e-05 -8.163e-07 0)
(-6.66319e-05 -1.09e-06 0)
(-6.61987e-05 -1.36109e-06 0)
(-6.56694e-05 -1.62893e-06 0)
(-6.50453e-05 -1.89289e-06 0)
(-6.43278e-05 -2.15239e-06 0)
(-6.35185e-05 -2.40686e-06 0)
(-6.26193e-05 -2.65573e-06 0)
(-6.16322e-05 -2.89842e-06 0)
(-6.05596e-05 -3.13425e-06 0)
(-5.94041e-05 -3.3626e-06 0)
(-5.81683e-05 -3.58299e-06 0)
(-5.68549e-05 -3.79498e-06 0)
(-5.54669e-05 -3.99812e-06 0)
(-5.40078e-05 -4.19178e-06 0)
(-5.24811e-05 -4.37526e-06 0)
(-5.08904e-05 -4.54801e-06 0)
(-4.92395e-05 -4.70963e-06 0)
(-4.75322e-05 -4.85975e-06 0)
(-4.57728e-05 -4.99791e-06 0)
(-4.39654e-05 -5.1236e-06 0)
(-4.21146e-05 -5.23637e-06 0)
(-4.0225e-05 -5.33584e-06 0)
(-3.83012e-05 -5.4216e-06 0)
(-3.63481e-05 -5.49327e-06 0)
(-3.43706e-05 -5.55057e-06 0)
(-3.23738e-05 -5.59322e-06 0)
(-3.03629e-05 -5.62092e-06 0)
(-2.83431e-05 -5.63342e-06 0)
(-2.63198e-05 -5.63046e-06 0)
(-2.42983e-05 -5.61187e-06 0)
(-2.22842e-05 -5.57754e-06 0)
(-2.02829e-05 -5.52732e-06 0)
(-1.82999e-05 -5.46116e-06 0)
(-1.63408e-05 -5.37904e-06 0)
(-1.44113e-05 -5.28095e-06 0)
(-1.25167e-05 -5.16691e-06 0)
(-1.06626e-05 -5.03699e-06 0)
(-8.85448e-06 -4.89135e-06 0)
(-7.0976e-06 -4.73026e-06 0)
(-5.39739e-06 -4.55393e-06 0)
(-3.75908e-06 -4.3626e-06 0)
(-2.18764e-06 -4.15669e-06 0)
(-6.87927e-07 -3.93675e-06 0)
(7.3536e-07 -3.70331e-06 0)
(2.0777e-06 -3.45695e-06 0)
(3.33471e-06 -3.19833e-06 0)
(4.50234e-06 -2.92816e-06 0)
(5.57694e-06 -2.64739e-06 0)
(6.55509e-06 -2.35706e-06 0)
(7.43365e-06 -2.05815e-06 0)
(8.20998e-06 -1.75179e-06 0)
(8.88188e-06 -1.43934e-06 0)
(9.44763e-06 -1.12227e-06 0)
(9.90608e-06 -8.02158e-07 0)
(1.02565e-05 -4.80699e-07 0)
(1.04987e-05 -1.59764e-07 0)
(1.06335e-05 1.58574e-07 0)
(1.06621e-05 4.71992e-07 0)
(1.05866e-05 7.77982e-07 0)
(1.041e-05 1.07385e-06 0)
(1.01363e-05 1.35664e-06 0)
(9.77027e-06 1.62307e-06 0)
(9.31789e-06 1.86963e-06 0)
(8.78617e-06 2.0925e-06 0)
(8.18333e-06 2.28745e-06 0)
(7.51907e-06 2.44976e-06 0)
(6.80425e-06 2.57446e-06 0)
(6.0509e-06 2.65639e-06 0)
(5.27262e-06 2.69e-06 0)
(4.48453e-06 2.66958e-06 0)
(3.70296e-06 2.58943e-06 0)
(2.94541e-06 2.4443e-06 0)
(2.23052e-06 2.23e-06 0)
(1.57785e-06 1.94431e-06 0)
(1.00711e-06 1.58834e-06 0)
(5.37786e-07 1.1684e-06 0)
(1.98114e-07 6.99831e-07 0)
(3.25966e-08 2.19785e-07 0)
(3.7572e-08 -3.0334e-07 0)
(2.21062e-07 -9.81808e-07 0)
(5.80964e-07 -1.59409e-06 0)
(1.07039e-06 -2.11859e-06 0)
(1.65668e-06 -2.54174e-06 0)
(2.31775e-06 -2.85955e-06 0)
(3.02999e-06 -3.07556e-06 0)
(3.77077e-06 -3.19675e-06 0)
(4.51915e-06 -3.23172e-06 0)
(5.25563e-06 -3.18925e-06 0)
(5.96268e-06 -3.0778e-06 0)
(6.62422e-06 -2.90561e-06 0)
(7.22594e-06 -2.68023e-06 0)
(7.75526e-06 -2.4088e-06 0)
(8.20106e-06 -2.0979e-06 0)
(8.55387e-06 -1.75359e-06 0)
(8.80566e-06 -1.38156e-06 0)
(8.94961e-06 -9.86952e-07 0)
(8.98029e-06 -5.74445e-07 0)
(8.89343e-06 -1.48449e-07 0)
(8.6858e-06 2.87057e-07 0)
(8.35525e-06 7.28509e-07 0)
(7.90067e-06 1.17239e-06 0)
(7.32159e-06 1.61588e-06 0)
(6.61835e-06 2.05632e-06 0)
(5.79213e-06 2.4912e-06 0)
(4.84491e-06 2.91816e-06 0)
(3.77915e-06 3.33519e-06 0)
(2.5978e-06 3.74041e-06 0)
(1.30445e-06 4.13218e-06 0)
(-9.68745e-08 4.50899e-06 0)
(-1.60178e-06 4.86945e-06 0)
(-3.20544e-06 5.21236e-06 0)
(-4.90274e-06 5.5367e-06 0)
(-6.68828e-06 5.84151e-06 0)
(-8.55639e-06 6.12603e-06 0)
(-1.05011e-05 6.38958e-06 0)
(-1.25164e-05 6.63145e-06 0)
(-1.45959e-05 6.85122e-06 0)
(-1.67334e-05 7.04858e-06 0)
(-1.89223e-05 7.22316e-06 0)
(-2.1156e-05 7.37477e-06 0)
(-2.34279e-05 7.50333e-06 0)
(-2.57313e-05 7.60879e-06 0)
(-2.80597e-05 7.69122e-06 0)
(-3.04062e-05 7.75067e-06 0)
(-3.27643e-05 7.78729e-06 0)
(-3.51273e-05 7.80132e-06 0)
(-3.74888e-05 7.79306e-06 0)
(-3.98422e-05 7.76287e-06 0)
(-4.21813e-05 7.7111e-06 0)
(-4.44999e-05 7.63814e-06 0)
(-4.67917e-05 7.54445e-06 0)
(-4.90508e-05 7.43052e-06 0)
(-5.12713e-05 7.29684e-06 0)
(-5.34477e-05 7.14402e-06 0)
(-5.55743e-05 6.97272e-06 0)
(-5.76459e-05 6.78363e-06 0)