/*--------------------------------*- C++ -*----------------------------------*\
  =========                 |
  \\      /  F ield         | OpenFOAM: The Open Source CFD Toolbox
   \\    /   O peration     | Website:  https://openfoam.org
    \\  /    A nd           | Version:  7
     \\/     M anipulation  |
\*---------------------------------------------------------------------------*/
FoamFile
{
    version     2.0;
    format      ascii;
    class       volScalarField;
    location    "0.3625";
    object      p;
}
// * * * * * * * * * * * * * * * * * * * * * * * * * * * * * * * * * * * * * //

dimensions      [0 2 -2 0 0 0 0];

internalField   nonuniform List<scalar> 
12800
(
2.45252e-06
3.19638e-05
-1.32086e-07
-0.000105218
-0.000275601
-0.000501313
-0.000771716
-0.00107639
-0.0014059
-0.00175195
-0.00210744
-0.00246628
-0.00282341
-0.0031746
-0.00351641
-0.00384608
-0.00416142
-0.00446074
-0.00474279
-0.0050067
-0.0052519
-0.00547808
-0.00568514
-0.00587316
-0.00604232
-0.00619295
-0.00632543
-0.00644019
-0.00653767
-0.00661837
-0.00668276
-0.0067313
-0.00676442
-0.00678251
-0.00678593
-0.00677502
-0.00675004
-0.00671122
-0.0066587
-0.00659259
-0.00651295
-0.00641978
-0.00631304
-0.00619261
-0.00605834
-0.00591001
-0.00574735
-0.00557007
-0.00537778
-0.00517007
-0.0049465
-0.00470654
-0.00444965
-0.00417521
-0.00388255
-0.00357098
-0.00323973
-0.00288802
-0.00251498
-0.00211974
-0.00170133
-0.00125875
-0.000790952
-0.000296816
0.000224816
0.000775154
0.00135546
0.00196705
0.00261129
0.0032896
0.00400346
0.00475438
0.00554395
0.00637379
0.00724557
0.008161
0.00912183
0.0101299
0.0111869
0.0122947
0.0134553
0.0146704
0.015942
0.0172718
0.0186618
0.0201138
0.0216295
0.0232106
0.0248589
0.0265758
0.0283629
0.0302214
0.0321527
0.0341576
0.0362372
0.038392
0.0406224
0.0429286
0.0453105
0.0477675
0.0502989
0.0529034
0.0555796
0.0583254
0.0611383
0.0640154
0.0669533
0.069948
0.0729949
0.076089
0.0792245
0.0823954
0.0855947
0.088815
0.0920483
0.0952862
0.0985196
0.101739
0.104934
0.108095
0.11121
0.114269
0.117261
0.120174
0.122996
0.125717
0.128326
0.130812
0.133164
0.135373
0.13743
0.139326
0.141054
0.142609
0.143984
0.145177
0.146185
0.147006
0.147642
0.148094
0.148367
0.148465
0.148397
0.14817
0.147795
0.147286
0.146655
0.14592
0.145097
0.144206
0.14327
0.142313
0.141361
0.140444
0.139597
0.138855
0.138258
0.137846
0.13766
0.137687
-2.18372e-05
6.16807e-06
-2.79268e-05
-0.000124581
-0.000274877
-0.000472043
-0.000708501
-0.000976231
-0.00126753
-0.00157539
-0.00189362
-0.00221679
-0.00254022
-0.00285996
-0.00317271
-0.00347576
-0.00376691
-0.00404441
-0.00430693
-0.00455346
-0.00478331
-0.004996
-0.00519129
-0.00536908
-0.00552944
-0.00567253
-0.00579855
-0.0059078
-0.00600061
-0.00607733
-0.00613833
-0.00618396
-0.00621453
-0.00623036
-0.00623172
-0.00621887
-0.00619202
-0.00615132
-0.00609688
-0.00602875
-0.00594695
-0.00585145
-0.00574217
-0.00561898
-0.0054817
-0.00533009
-0.00516388
-0.00498273
-0.00478628
-0.00457412
-0.00434578
-0.00410076
-0.00383849
-0.00355838
-0.00325975
-0.00294192
-0.00260415
-0.00224565
-0.00186559
-0.0014631
-0.00103725
-0.000587056
-0.000111484
0.000390542
0.00092015
0.00147851
0.00206685
0.00268644
0.0033386
0.0040247
0.00474616
0.00550444
0.00630105
0.00713755
0.00801554
0.00893666
0.00990257
0.010915
0.0119756
0.0130862
0.0142485
0.0154643
0.0167353
0.0180632
0.0194499
0.020897
0.0224062
0.0239789
0.0256169
0.0273214
0.0290939
0.0309355
0.0328474
0.0348303
0.0368851
0.0390122
0.041212
0.0434844
0.0458292
0.0482459
0.0507336
0.0532909
0.0559164
0.0586079
0.0613629
0.0641786
0.0670515
0.0699776
0.0729526
0.0759715
0.0790287
0.0821183
0.0852336
0.0883674
0.0915122
0.0946597
0.0978012
0.100928
0.104029
0.107097
0.110119
0.113087
0.115988
0.118814
0.121552
0.124192
0.126724
0.129139
0.131425
0.133575
0.135581
0.137433
0.139126
0.140654
0.142013
0.1432
0.144211
0.145047
0.145708
0.146197
0.146518
0.146676
0.146678
0.146532
0.14625
0.145842
0.145323
0.144707
0.144012
0.143256
0.142459
0.141644
0.140836
0.140059
0.139343
0.138718
0.138212
0.137856
0.137687
0.137714
1.34548e-05
4.23338e-05
7.59204e-06
-8.46457e-05
-0.000223659
-0.000403679
-0.000618646
-0.000861906
-0.00112698
-0.00140787
-0.00169913
-0.00199587
-0.00229387
-0.00258946
-0.00287953
-0.00316149
-0.00343319
-0.00369291
-0.00393929
-0.00417128
-0.00438809
-0.00458917
-0.00477418
-0.00494292
-0.00509535
-0.00523152
-0.00535154
-0.00545559
-0.00554389
-0.00561673
-0.00567436
-0.00571705
-0.00574504
-0.00575857
-0.00575785
-0.00574308
-0.00571441
-0.00567194
-0.00561573
-0.00554579
-0.00546212
-0.00536465
-0.00525327
-0.00512783
-0.00498814
-0.00483393
-0.00466492
-0.00448076
-0.00428109
-0.00406549
-0.0038335
-0.0035846
-0.00331824
-0.00303381
-0.00273066
-0.0024081
-0.00206542
-0.00170184
-0.00131654
-0.000908665
-0.000477303
-2.14916e-05
0.000459775
0.000967547
0.00150292
0.00206704
0.00266109
0.0032863
0.00394396
0.00463539
0.00536196
0.00612509
0.00692622
0.00776687
0.00864857
0.00957289
0.0105414
0.0115558
0.0126177
0.0137288
0.0148907
0.0161051
0.0173737
0.0186981
0.02008
0.021521
0.0230226
0.0245863
0.0262136
0.0279057
0.0296639
0.0314894
0.033383
0.0353456
0.0373779
0.0394802
0.0416528
0.0438956
0.0462083
0.0485903
0.0510406
0.0535579
0.0561407
0.0587868
0.0614938
0.0642588
0.0670783
0.0699486
0.0728654
0.0758237
0.0788181
0.0818429
0.0848915
0.0879571
0.0910323
0.0941091
0.0971792
0.100234
0.103264
0.106259
0.109211
0.112109
0.114942
0.117701
0.120376
0.122956
0.125432
0.127793
0.130032
0.132139
0.134106
0.135927
0.137595
0.139105
0.140453
0.141636
0.142651
0.1435
0.144182
0.144699
0.145057
0.14526
0.145315
0.145231
0.145017
0.144685
0.144248
0.143721
0.143118
0.142459
0.141762
0.141046
0.140335
0.139652
0.13902
0.138465
0.138012
0.137684
0.137516
0.13753
0.000121397
0.000141063
0.000100513
7.34503e-06
-0.000127675
-0.000299154
-0.0005017
-0.000729542
-0.000977096
-0.00123913
-0.00151081
-0.00178782
-0.00206631
-0.00234295
-0.00261487
-0.00287963
-0.00313519
-0.00337991
-0.00361245
-0.00383176
-0.00403705
-0.00422772
-0.00440335
-0.00456373
-0.00470872
-0.0048383
-0.00495249
-0.00505142
-0.00513524
-0.00520415
-0.00525834
-0.00529799
-0.00532329
-0.00533443
-0.00533156
-0.00531482
-0.00528432
-0.00524011
-0.0051822
-0.0051106
-0.00502524
-0.00492605
-0.00481288
-0.00468556
-0.00454388
-0.00438756
-0.00421631
-0.00402978
-0.00382758
-0.00360929
-0.00337446
-0.00312257
-0.00285307
-0.00256534
-0.00225874
-0.00193261
-0.00158623
-0.00121883
-0.000829631
-0.000417772
1.76382e-05
0.000477539
0.000962913
0.00147479
0.00201422
0.00258234
0.00318029
0.00380927
0.00447052
0.00516533
0.00589502
0.00666096
0.00746457
0.00830729
0.00919061
0.010116
0.0110851
0.0120994
0.0131606
0.0142701
0.0154296
0.0166407
0.0179051
0.0192242
0.0205997
0.0220331
0.0235258
0.0250793
0.0266949
0.0283739
0.0301174
0.0319264
0.033802
0.0357448
0.0377553
0.039834
0.0419811
0.0441963
0.0464794
0.0488298
0.0512464
0.053728
0.0562729
0.0588791
0.0615442
0.0642654
0.0670392
0.0698619
0.0727294
0.0756368
0.0785789
0.08155
0.0845438
0.0875537
0.0905724
0.0935922
0.0966051
0.0996025
0.102576
0.105515
0.108411
0.111255
0.114036
0.116745
0.119371
0.121906
0.124339
0.126661
0.128864
0.13094
0.13288
0.134679
0.13633
0.137828
0.139169
0.140351
0.141371
0.142231
0.14293
0.14347
0.143857
0.144095
0.144192
0.144154
0.143992
0.143717
0.143341
0.142879
0.142344
0.141754
0.141127
0.14048
0.139834
0.139209
0.138627
0.13811
0.137678
0.137352
0.13716
0.137123
0.000295615
0.000294245
0.000240655
0.000141224
4.81615e-06
-0.000163549
-0.00035904
-0.000576659
-0.000811571
-0.00105922
-0.00131538
-0.00157624
-0.00183836
-0.00209875
-0.0023548
-0.00260427
-0.00284527
-0.00307625
-0.00329596
-0.00350337
-0.00369769
-0.00387831
-0.00404484
-0.00419698
-0.00433457
-0.0044575
-0.00456577
-0.00465944
-0.00473861
-0.00480342
-0.00485397
-0.0048904
-0.00491285
-0.00492145
-0.0049163
-0.00489751
-0.00486511
-0.00481912
-0.00475953
-0.00468629
-0.00459932
-0.00449852
-0.00438372
-0.00425472
-0.00411129
-0.00395314
-0.00377996
-0.00359139
-0.00338706
-0.00316653
-0.00292933
-0.00267497
-0.00240286
-0.00211243
-0.00180302
-0.00147399
-0.00112463
-0.000754188
-0.000361884
5.3113e-05
0.000491678
0.000954729
0.00144323
0.00195817
0.00250059
0.00307158
0.00367225
0.00430377
0.00496734
0.00566421
0.00639566
0.00716301
0.00796764
0.00881093
0.00969433
0.0106193
0.0115873
0.0125999
0.0136586
0.0147648
0.0159203
0.0171264
0.0183848
0.0196969
0.0210643
0.0224884
0.0239706
0.0255123
0.0271147
0.0287791
0.0305065
0.0322979
0.0341543
0.0360762
0.0380642
0.0401186
0.0422397
0.0444271
0.0466807
0.0489997
0.0513832
0.0538299
0.0563382
0.0589061
0.0615313
0.0642108
0.0669416
0.0697199
0.0725417
0.0754022
0.0782964
0.0812187
0.0841631
0.087123
0.0900914
0.0930609
0.0960235
0.098971
0.101895
0.104786
0.107635
0.110433
0.11317
0.115836
0.118423
0.12092
0.123318
0.125609
0.127784
0.129836
0.131755
0.133537
0.135176
0.136666
0.138003
0.139186
0.140213
0.141083
0.141798
0.14236
0.142772
0.143041
0.143172
0.143174
0.143055
0.142827
0.142501
0.142091
0.141611
0.141075
0.140501
0.139905
0.139305
0.13872
0.138168
0.137668
0.137238
0.136895
0.136658
0.136536
0.000527567
0.000495957
0.000422896
0.000312067
0.000169308
-8.53883e-07
-0.000194106
-0.000406144
-0.000632805
-0.000870156
-0.00111454
-0.00136262
-0.00161137
-0.00185814
-0.00210058
-0.00233669
-0.00256476
-0.00278337
-0.00299135
-0.00318773
-0.00337177
-0.00354289
-0.00370069
-0.00384486
-0.00397519
-0.00409156
-0.00419394
-0.00428233
-0.00435681
-0.00441742
-0.00446425
-0.00449737
-0.00451688
-0.00452287
-0.00451539
-0.0044945
-0.00446019
-0.00441244
-0.00435121
-0.00427643
-0.00418798
-0.00408571
-0.00396947
-0.00383901
-0.0036941
-0.00353442
-0.00335965
-0.00316943
-0.00296338
-0.00274106
-0.002502
-0.00224568
-0.00197156
-0.00167903
-0.00136748
-0.00103624
-0.000684642
-0.000311939
8.2636e-05
0.000499897
0.000940701
0.00140594
0.00189655
0.0024135
0.00295781
0.00353051
0.00413271
0.00476552
0.00543012
0.0061277
0.00685952
0.00762685
0.00843102
0.00927338
0.0101553
0.0110782
0.0120435
0.0130527
0.0141073
0.0152086
0.0163582
0.0175577
0.0188084
0.0201118
0.0214694
0.0228825
0.0243526
0.0258808
0.0274686
0.0291169
0.0308268
0.0325994
0.0344354
0.0363355
0.0383001
0.0403297
0.0424243
0.0445837
0.0468078
0.0490957
0.0514466
0.0538593
0.0563322
0.0588633
0.0614504
0.0640907
0.0667812
0.0695181
0.0722976
0.0751151
0.0779658
0.0808441
0.0837442
0.0866597
0.0895839
0.0925094
0.0954285
0.0983332
0.101215
0.104065
0.106875
0.109635
0.112336
0.114969
0.117523
0.119991
0.122363
0.12463
0.126784
0.128817
0.130723
0.132494
0.134124
0.135611
0.136948
0.138135
0.139169
0.140051
0.140781
0.141361
0.141797
0.142091
0.142252
0.142287
0.142204
0.142014
0.141728
0.141358
0.140919
0.140424
0.139889
0.139328
0.138758
0.138196
0.137657
0.137157
0.136712
0.136336
0.136036
0.13581
0.000807823
0.000739422
0.000641661
0.000514934
0.000361365
0.000184965
-1.03997e-05
-0.000221069
-0.000443509
-0.000674359
-0.000910476
-0.00114898
-0.00138725
-0.00162296
-0.00185406
-0.00207878
-0.00229561
-0.00250329
-0.00270073
-0.00288708
-0.00306165
-0.00322392
-0.0033735
-0.00351008
-0.00363344
-0.00374346
-0.00384008
-0.00392329
-0.00399311
-0.00404955
-0.00409264
-0.00412245
-0.00413902
-0.00414239
-0.0041326
-0.00410963
-0.00407346
-0.00402403
-0.00396126
-0.00388505
-0.00379527
-0.00369175
-0.00357428
-0.00344262
-0.00329651
-0.00313563
-0.00295964
-0.00276818
-0.00256086
-0.00233723
-0.00209682
-0.00183912
-0.00156358
-0.0012696
-0.000956581
-0.000623875
-0.000270804
0.000103348
0.000499338
0.000917962
0.00136005
0.00182649
0.00231817
0.00283604
0.00338109
0.00395432
0.00455681
0.00518963
0.00585393
0.00655085
0.00728162
0.00804746
0.00884966
0.00968952
0.0105684
0.0114876
0.0124486
0.0134527
0.0145013
0.015596
0.0167381
0.0179291
0.0191704
0.0204633
0.0218094
0.0232099
0.0246661
0.0261794
0.0277509
0.0293817
0.0310729
0.0328253
0.0346399
0.0365171
0.0384576
0.0404616
0.0425293
0.0446606
0.0468551
0.0491123
0.0514313
0.0538108
0.0562494
0.0587453
0.0612962
0.0638995
0.0665522
0.0692508
0.0719915
0.0747699
0.0775813
0.0804203
0.0832812
0.0861579
0.0890436
0.0919314
0.0948137
0.0976826
0.10053
0.103347
0.106125
0.108855
0.111528
0.114135
0.116666
0.119112
0.121465
0.123716
0.125856
0.127878
0.129775
0.131541
0.133169
0.134656
0.135997
0.13719
0.138234
0.139128
0.139873
0.140471
0.140927
0.141244
0.14143
0.141491
0.141437
0.141277
0.141021
0.140682
0.140273
0.139806
0.139296
0.138756
0.138202
0.137647
0.137106
0.136591
0.136118
0.135697
0.135322
0.134981
0.00112695
0.00101719
0.000890707
0.000744337
0.000576171
0.000389752
0.000188556
-2.43734e-05
-0.000246085
-0.000473745
-0.000704691
-0.000936471
-0.00116686
-0.00139386
-0.0016157
-0.00183088
-0.00203808
-0.00223619
-0.00242428
-0.00260159
-0.00276754
-0.00292165
-0.00306356
-0.00319299
-0.00330974
-0.00341369
-0.00350477
-0.00358296
-0.00364823
-0.00370058
-0.00374002
-0.00376657
-0.00378026
-0.00378108
-0.00376903
-0.00374406
-0.00370612
-0.00365511
-0.00359094
-0.00351347
-0.00342254
-0.00331797
-0.00319952
-0.00306695
-0.00291995
-0.0027582
-0.00258137
-0.00238908
-0.00218093
-0.00195648
-0.00171524
-0.00145671
-0.00118034
-0.000885548
-0.000571738
-0.000238276
0.000115504
0.000490304
0.000886864
0.00130596
0.00174841
0.00221505
0.00270678
0.00322449
0.00376916
0.00434175
0.0049433
0.00557487
0.00623753
0.00693243
0.00766073
0.00842362
0.00922234
0.0100582
0.0109324
0.0118463
0.0128012
0.0137985
0.0148397
0.0159259
0.0170587
0.0182394
0.0194695
0.0207502
0.022083
0.0234692
0.0249099
0.0264066
0.0279602
0.029572
0.0312429
0.0329739
0.0347658
0.0366191
0.0385345
0.0405122
0.0425525
0.0446551
0.04682
0.0490464
0.0513337
0.0536807
0.056086
0.0585478
0.0610641
0.0636323
0.0662495
0.0689124
0.0716172
0.0743599
0.0771357
0.0799396
0.0827659
0.0856087
0.0884614
0.0913172
0.0941686
0.0970081
0.0998274
0.102618
0.105372
0.108079
0.110732
0.11332
0.115835
0.118267
0.120608
0.12285
0.124983
0.127001
0.128896
0.130662
0.132294
0.133785
0.135134
0.136337
0.137392
0.138299
0.13906
0.139675
0.14015
0.140488
0.140695
0.140778
0.140746
0.140609
0.140376
0.140059
0.139669
0.13922
0.138723
0.138193
0.137641
0.137082
0.136526
0.135986
0.135473
0.134998
0.134542
0.134081
0.00147612
0.00132196
0.00116374
0.000994714
0.000808843
0.000609257
0.000399091
0.000180811
-4.31708e-05
-0.000270507
-0.000498989
-0.000726569
-0.00095139
-0.00117179
-0.00138629
-0.00159363
-0.00179271
-0.00198257
-0.00216245
-0.00233172
-0.00248989
-0.00263656
-0.0027714
-0.00289417
-0.00300472
-0.00310294
-0.00318876
-0.00326215
-0.00332306
-0.00337148
-0.0034074
-0.00343082
-0.00344173
-0.00344012
-0.00342592
-0.00339907
-0.00335949
-0.00330705
-0.00324164
-0.0031631
-0.00307124
-0.00296585
-0.00284669
-0.00271348
-0.00256591
-0.00240365
-0.00222635
-0.00203364
-0.00182511
-0.00160031
-0.00135876
-0.00109995
-0.000823341
-0.000528361
-0.000214424
0.000119089
0.000472831
0.000847491
0.00124379
0.00166249
0.00210437
0.00257026
0.00306101
0.00357751
0.00412069
0.00469148
0.0052909
0.00591994
0.00657968
0.00727119
0.00799562
0.00875411
0.00954786
0.0103781
0.011246
0.012153
0.0131003
0.0140891
0.0151209
0.016197
0.0173187
0.0184874
0.0197045
0.0209712
0.0222889
0.0236589
0.0250824
0.0265607
0.0280949
0.029686
0.0313352
0.0330433
0.0348111
0.0366393
0.0385285
0.040479
0.042491
0.0445645
0.0466992
0.0488948
0.0511505
0.0534653
0.0558379
0.0582665
0.0607493
0.0632839
0.0658674
0.0684968
0.0711684
0.0738783
0.0766218
0.0793942
0.0821899
0.0850031
0.0878276
0.0906564
0.0934825
0.0962983
0.0990957
0.101866
0.104602
0.107294
0.109932
0.112509
0.115015
0.11744
0.119777
0.122016
0.124149
0.126169
0.128069
0.129841
0.13148
0.132982
0.134342
0.135558
0.136628
0.137551
0.138328
0.138961
0.139453
0.13981
0.140035
0.140137
0.140124
0.140004
0.139787
0.139484
0.139106
0.138665
0.138173
0.137642
0.137083
0.136509
0.13593
0.135354
0.134795
0.134259
0.133717
0.133136
0.00184737
0.0016468
0.00145464
0.00126061
0.00105454
0.000839189
0.000617423
0.000391178
0.000162361
-6.71259e-05
-0.000295499
-0.000521102
-0.000742429
-0.000958137
-0.00116705
-0.00136813
-0.00156048
-0.00174335
-0.00191613
-0.00207835
-0.00222959
-0.00236953
-0.00249792
-0.00261458
-0.00271939
-0.00281228
-0.00289318
-0.00296205
-0.00301885
-0.00306355
-0.00309614
-0.00311661
-0.00312493
-0.00312103
-0.00310485
-0.00307628
-0.00303523
-0.00298155
-0.00291511
-0.0028357
-0.00274315
-0.0026372
-0.00251759
-0.00238404
-0.00223623
-0.00207381
-0.00189643
-0.00170372
-0.00149525
-0.00127057
-0.00102922
-0.000770665
-0.00049439
-0.000199836
0.000113575
0.000446449
0.000799423
0.00117317
0.0015684
0.00198583
0.00242625
0.00289044
0.00337922
0.00389347
0.00443406
0.00500191
0.00559799
0.00622328
0.00687879
0.00756558
0.00828474
0.00903738
0.00982466
0.0106478
0.0115079
0.0124063
0.0133442
0.0143229
0.0153436
0.0164078
0.0175166
0.0186715
0.0198737
0.0211246
0.0224254
0.0237774
0.0251819
0.0266401
0.028153
0.0297219
0.0313477
0.0330313
0.0347737
0.0365754
0.0384372
0.0403593
0.0423421
0.0443857
0.0464898
0.0486541
0.0508781
0.0531607
0.0555008
0.0578969
0.0603471
0.0628492
0.0654006
0.0679983
0.0706388
0.0733182
0.0760324
0.0787764
0.081545
0.0843326
0.087133
0.0899395
0.0927451
0.0955424
0.0983234
0.10108
0.103804
0.106486
0.109117
0.111689
0.114192
0.116617
0.118956
0.1212
0.123339
0.125368
0.127278
0.129062
0.130715
0.132231
0.133607
0.13484
0.135927
0.136868
0.137664
0.138316
0.138826
0.1392
0.139443
0.139562
0.139563
0.139456
0.13925
0.138955
0.138582
0.138142
0.137647
0.137107
0.136533
0.135936
0.135325
0.134708
0.134096
0.133496
0.132868
0.13217
0.00223342
0.0019852
0.00175753
0.00153671
0.00130846
0.00107525
0.000839708
0.000603307
0.000367486
0.000133724
-9.65837e-05
-0.000322154
-0.000541826
-0.000754565
-0.00095946
-0.00115571
-0.00134265
-0.00151972
-0.00168649
-0.00184259
-0.00198774
-0.00212169
-0.00224428
-0.0023554
-0.00245499
-0.00254298
-0.00261934
-0.00268402
-0.002737
-0.00277826
-0.00280778
-0.00282553
-0.00283145
-0.00282547
-0.0028075
-0.00277743
-0.00273511
-0.00268041
-0.00261315
-0.00253312
-0.00244012
-0.00233388
-0.00221412
-0.00208053
-0.0019328
-0.00177058
-0.00159351
-0.0014012
-0.00119322
-0.000969141
-0.000728468
-0.000470706
-0.000195331
9.81981e-05
0.000410447
0.000742008
0.0010935
0.00146559
0.00185895
0.00227429
0.00271235
0.00317391
0.00365976
0.00417072
0.00470765
0.00527145
0.00586303
0.00648333
0.00713334
0.00781408
0.00852659
0.00927195
0.0100513
0.0108657
0.0117165
0.0126047
0.0135315
0.0144983
0.0155063
0.0165567
0.0176509
0.0187901
0.0199757
0.0212088
0.0224909
0.0238231
0.0252067
0.0266429
0.0281328
0.0296776
0.0312784
0.0329359
0.0346513
0.0364251
0.0382581
0.0401506
0.0421032
0.0441158
0.0461885
0.048321
0.0505128
0.0527631
0.0550709
0.0574347
0.0598529
0.0623233
0.0648437
0.067411
0.0700221
0.0726733
0.0753604
0.0780788
0.0808234
0.0835888
0.0863688
0.089157
0.0919465
0.09473
0.0974996
0.100247
0.102965
0.105643
0.108273
0.110846
0.113353
0.115785
0.118132
0.120386
0.122539
0.124582
0.126508
0.12831
0.129982
0.131518
0.132915
0.134169
0.135277
0.13624
0.137056
0.137728
0.138258
0.138651
0.13891
0.139043
0.139056
0.138959
0.13876
0.138469
0.138096
0.137652
0.137146
0.136591
0.135995
0.135369
0.134721
0.134057
0.133388
0.132722
0.132008
0.131198
0.00262765
0.00233106
0.00206684
0.00181789
0.00156591
0.00131315
0.00106207
0.000813703
0.000569055
0.000329217
9.52168e-05
-0.000132019
-0.000351656
-0.000562948
-0.000765241
-0.000957985
-0.00114073
-0.00131313
-0.00147489
-0.00162579
-0.00176565
-0.00189435
-0.00201181
-0.002118
-0.00221288
-0.00229645
-0.00236867
-0.00242954
-0.00247905
-0.00251719
-0.00254393
-0.00255922
-0.002563
-0.00255519
-0.00253567
-0.00250431
-0.00246098
-0.00240548
-0.00233765
-0.00225726
-0.00216408
-0.00205782
-0.00193819
-0.00180489
-0.00165758
-0.00149591
-0.00131951
-0.001128
-0.000920948
-0.000697903
-0.000458395
-0.000201931
7.19983e-05
0.000363924
0.000674399
0.001004
0.00135333
0.00172302
0.00211374
0.00252618
0.00296104
0.00341907
0.00390102
0.00440771
0.00493994
0.00549858
0.0060845
0.00669862
0.00734188
0.00801525
0.00871976
0.00945644
0.0102264
0.0110306
0.0118704
0.0127468
0.013661
0.0146142
0.0156076
0.0166426
0.0177203
0.018842
0.020009
0.0212226
0.022484
0.0237945
0.0251553
0.0265677
0.0280328
0.0295517
0.0311256
0.0327554
0.0344421
0.0361864
0.0379891
0.0398508
0.0417718
0.0437524
0.0457928
0.0478926
0.0500516
0.0522692
0.0545443
0.0568759
0.0592623
0.0617017
0.0641917
0.0667298
0.0693129
0.0719374
0.0745993
0.0772944
0.0800176
0.0827636
0.0855265
0.0883
0.0910773
0.0938512
0.0966139
0.0993575
0.102073
0.104753
0.107388
0.109968
0.112485
0.114928
0.11729
0.119562
0.121733
0.123797
0.125746
0.127572
0.129268
0.13083
0.132253
0.133532
0.134667
0.135654
0.136494
0.137189
0.13774
0.138151
0.138427
0.138574
0.138599
0.13851
0.138315
0.138024
0.137647
0.137193
0.136673
0.136098
0.135475
0.134815
0.134124
0.133411
0.132683
0.13195
0.131152
0.130233
0.00302401
0.00267872
0.00237723
0.00209919
0.0018223
0.00154867
0.00128064
0.00101881
0.000763828
0.000516398
0.000277199
4.68266e-05
-0.000174186
-0.000385368
-0.000586327
-0.000776762
-0.000956447
-0.00112521
-0.00128292
-0.00142948
-0.00156486
-0.00168904
-0.00180204
-0.00190389
-0.00199462
-0.00207425
-0.00214279
-0.00220026
-0.00224668
-0.00228205
-0.00230632
-0.00231946
-0.00232139
-0.00231201
-0.00229121
-0.00225883
-0.00221472
-0.0021587
-0.00209056
-0.00201007
-0.00191697
-0.00181098
-0.00169178
-0.00155907
-0.0014125
-0.00125173
-0.00107638
-0.000886053
-0.000680324
-0.000458749
-0.000220864
3.38118e-05
0.000305777
0.000595548
0.000903661
0.00123068
0.00157718
0.00194379
0.00233114
0.00273989
0.00317072
0.00362434
0.0041015
0.00460294
0.00512946
0.00568187
0.00626102
0.00686778
0.00750307
0.00816781
0.00886298
0.00958959
0.0103487
0.0111413
0.0119685
0.0128315
0.0137314
0.0146693
0.0156465
0.0166642
0.0177236
0.018826
0.0199726
0.0211647
0.0224035
0.0236904
0.0250265
0.0264132
0.0278515
0.0293428
0.030888
0.0324882
0.0341445
0.0358577
0.0376286
0.0394578
0.0413459
0.0432933
0.0453001
0.0473663
0.0494918
0.0516759
0.053918
0.0562171
0.0585717
0.0609801
0.0634403
0.0659499
0.0685058
0.0711049
0.0737433
0.0764168
0.0791208
0.0818499
0.0845985
0.0873604
0.0901289
0.0928969
0.0956568
0.0984006
0.10112
0.103806
0.10645
0.109043
0.111575
0.114037
0.11642
0.118714
0.120911
0.123002
0.124979
0.126834
0.128561
0.130154
0.131608
0.132919
0.134083
0.135099
0.135967
0.136687
0.137262
0.137694
0.137988
0.138149
0.138185
0.138103
0.137911
0.137617
0.137233
0.136767
0.136229
0.135629
0.134975
0.134277
0.133542
0.132776
0.131988
0.131188
0.130308
0.129286
0.00341693
0.00302282
0.00268366
0.00237582
0.00207316
0.00177765
0.00149153
0.00121506
0.000948487
0.000692193
0.000446519
0.000211757
-1.18446e-05
-0.000224093
-0.000424858
-0.000614074
-0.000791719
-0.000957797
-0.00111234
-0.00125539
-0.00138706
-0.00150744
-0.00161664
-0.00171476
-0.00180189
-0.00187809
-0.00194342
-0.00199794
-0.00204168
-0.00207464
-0.0020968
-0.00210812
-0.0021085
-0.00209785
-0.00207604
-0.00204292
-0.00199832
-0.00194204
-0.00187386
-0.00179354
-0.0017008
-0.00159534
-0.00147687
-0.00134505
-0.00119954
-0.00104
-0.000866032
-0.000677252
-0.000473233
-0.000253536
-1.77072e-05
0.000234721
0.000504232
0.000791328
0.00109653
0.00142038
0.00176344
0.0021263
0.00250958
0.0029139
0.00333991
0.0037883
0.00425977
0.00475505
0.00527487
0.00582003
0.00639133
0.0069896
0.00761572
0.00827059
0.00895514
0.00967032
0.0104172
0.0111966
0.0120099
0.0128579
0.0137418
0.0146628
0.015622
0.0166207
0.01766
0.0187412
0.0198655
0.0210343
0.0222487
0.02351
0.0248196
0.0261786
0.0275883
0.0290498
0.0305645
0.0321334
0.0337574
0.0354377
0.0371751
0.0389703
0.0408241
0.0427367
0.0447088
0.0467402
0.048831
0.0509809
0.0531893
0.0554553
0.0577778
0.0601552
0.0625857
0.065067
0.0675965
0.070171
0.072787
0.0754405
0.0781268
0.0808411
0.0835777
0.0863306
0.0890933
0.0918588
0.0946195
0.0973674
0.100094
0.102791
0.10545
0.10806
0.110613
0.113098
0.115508
0.117831
0.120059
0.122183
0.124194
0.126085
0.127849
0.129479
0.13097
0.132316
0.133516
0.134566
0.135466
0.136215
0.136816
0.137272
0.137585
0.137763
0.13781
0.137734
0.137544
0.137247
0.136854
0.136373
0.135814
0.135187
0.1345
0.133762
0.13298
0.132159
0.131311
0.130444
0.129484
0.128365
0.00380117
0.00335835
0.00298129
0.00264321
0.00231414
0.00199598
0.0016909
0.00139882
0.00111965
0.000853439
0.000600229
0.000360023
0.000132785
-8.15646e-05
-0.000283149
-0.000472122
-0.000648649
-0.000812912
-0.000965107
-0.00110544
-0.00123414
-0.00135142
-0.00145747
-0.00155245
-0.00163653
-0.00170982
-0.00177243
-0.00182444
-0.00186592
-0.00189687
-0.00191728
-0.00192711
-0.00192628
-0.00191467
-0.00189215
-0.00185857
-0.00181375
-0.00175748
-0.00168953
-0.00160964
-0.00151753
-0.00141289
-0.00129541
-0.00116476
-0.00102062
-0.000862609
-0.000690355
-0.000503457
-0.000301503
-8.40605e-05
0.000149311
0.000399065
0.00066567
0.00094961
0.00125139
0.00157152
0.00191056
0.00226906
0.0026476
0.0030468
0.00346726
0.00390963
0.00437459
0.00486281
0.00537501
0.00591194
0.00647435
0.00706305
0.00767886
0.00832265
0.00899531
0.00969777
0.010431
0.0111959
0.0119936
0.0128252
0.0136916
0.014594
0.0155336
0.0165115
0.017529
0.0185872
0.0196874
0.0208309
0.022019
0.0232529
0.0245339
0.0258633
0.0272424
0.0286724
0.0301546
0.0316902
0.0332802
0.0349258
0.0366279
0.0383874
0.0402051
0.0420816
0.0440174
0.0460128
0.0480678
0.0501824
0.0523561
0.0545884
0.0568781
0.0592242
0.0616248
0.0640779
0.0665812
0.0691317
0.071726
0.0743604
0.0770305
0.0797315
0.0824581
0.0852042
0.0879636
0.0907293
0.0934939
0.0962495
0.0989878
0.1017
0.104377
0.10701
0.109588
0.112103
0.114544
0.116901
0.119166
0.121329
0.123382
0.125315
0.127121
0.128794
0.130327
0.131715
0.132955
0.134044
0.13498
0.135764
0.136395
0.136877
0.137213
0.137408
0.137468
0.1374
0.137212
0.136911
0.136508
0.136011
0.13543
0.134774
0.134052
0.133272
0.132441
0.131566
0.130657
0.129724
0.128687
0.127474
0.00417184
0.00368051
0.0032655
0.0028969
0.00254099
0.00219962
0.00187492
0.00156648
0.00127389
0.000996912
0.000735295
0.000488754
0.000256975
3.96171e-05
-0.000163673
-0.000353256
-0.000529488
-0.000692733
-0.000843354
-0.00098171
-0.00110815
-0.00122298
-0.00132649
-0.00141892
-0.00150049
-0.00157139
-0.00163176
-0.00168173
-0.00172137
-0.00175071
-0.00176975
-0.00177844
-0.00177671
-0.00176445
-0.00174153
-0.00170778
-0.00166302
-0.00160703
-0.00153957
-0.00146036
-0.00136912
-0.00126555
-0.00114933
-0.00102013
-0.000877617
-0.00072142
-0.000551164
-0.000366454
-0.000166883
4.79659e-05
0.000278519
0.000525215
0.000788504
0.00106885
0.00136674
0.00168267
0.00201715
0.00237072
0.00274393
0.00313735
0.00355156
0.00398719
0.00444485
0.00492519
0.0054289
0.00595665
0.0065092
0.00708728
0.0076917
0.00832327
0.00898285
0.00967133
0.0103896
0.0111386
0.0119194
0.012733
0.0135803
0.0144626
0.0153809
0.0163364
0.0173302
0.0183637
0.019438
0.0205545
0.0217143
0.0229188
0.0241693
0.0254672
0.0268138
0.0282103
0.0296582
0.0311585
0.0327126
0.0343217
0.0359867
0.0377088
0.0394887
0.0413274
0.0432254
0.0451833
0.0472012
0.0492792
0.0514172
0.0536147
0.055871
0.058185
0.0605553
0.06298
0.065457
0.0679836
0.0705567
0.0731727
0.0758275
0.0785165
0.0812344
0.0839756
0.0867337
0.0895021
0.0922734
0.0950397
0.0977927
0.100524
0.103223
0.105883
0.108491
0.11104
0.113518
0.115916
0.118224
0.120432
0.12253
0.124512
0.126367
0.128088
0.12967
0.131107
0.132393
0.133526
0.134504
0.135325
0.135991
0.136504
0.136865
0.137081
0.137156
0.137097
0.136912
0.136608
0.136195
0.135682
0.135078
0.134392
0.133634
0.132811
0.131931
0.131001
0.130031
0.129033
0.127922
0.126619
0.0045243
0.00398475
0.00353185
0.00313259
0.00274957
0.00238459
0.00203977
0.0017144
0.00140776
0.00111934
0.000848596
0.000594968
0.000357873
0.000136733
-6.90258e-05
-0.000259965
-0.00043664
-0.000599593
-0.000749351
-0.000886415
-0.00101124
-0.00112426
-0.00122582
-0.00131625
-0.00139586
-0.00146487
-0.00152349
-0.00157186
-0.00161008
-0.0016382
-0.00165623
-0.00166414
-0.00166184
-0.00164924
-0.00162621
-0.00159256
-0.00154813
-0.00149266
-0.00142593
-0.00134764
-0.00125751
-0.00115524
-0.00104051
-0.00091299
-0.000772341
-0.0006182
-0.000450192
-0.000267931
-7.10225e-05
0.000140937
0.000368359
0.000611661
0.000871274
0.00114765
0.00144123
0.00175251
0.00208196
0.00243009
0.00279742
0.00318448
0.00359182
0.00402003
0.00446967
0.00494137
0.00543575
0.00595348
0.00649523
0.00706173
0.00765373
0.008272
0.00891736
0.00959065
0.0102927
0.0110246
0.011787
0.0125812
0.013408
0.0142686
0.015164
0.0160954
0.017064
0.018071
0.0191176
0.0202052
0.0213349
0.0225082
0.0237264
0.0249909
0.026303
0.0276641
0.0290756
0.0305389
0.0320551
0.0336257
0.0352519
0.0369346
0.0386751
0.0404743
0.0423329
0.0442516
0.0462309
0.048271
0.050372
0.0525337
0.0547554
0.0570365
0.0593758
0.0617716
0.064222
0.0667246
0.0692765
0.0718744
0.0745144
0.0771921
0.0799025
0.08264
0.0853987
0.0881717
0.0909519
0.0937316
0.0965023
0.0992554
0.101982
0.104671
0.107315
0.109902
0.112422
0.114865
0.117221
0.11948
0.121632
0.123667
0.125577
0.127354
0.128991
0.130481
0.13182
0.133003
0.134028
0.134893
0.135599
0.136146
0.136537
0.136777
0.13687
0.136823
0.136642
0.136336
0.135915
0.135385
0.134758
0.134043
0.133247
0.132381
0.131452
0.130467
0.129438
0.128376
0.127191
0.125801
0.00485412
0.0042667
0.00377605
0.0033461
0.00293581
0.00254697
0.00218167
0.00183895
0.00151779
0.00121739
0.000936932
0.000675589
0.000432535
0.000206964
-1.91336e-06
-0.000194867
-0.000372643
-0.000535962
-0.000685504
-0.000821899
-0.000945722
-0.00105749
-0.00115766
-0.00124664
-0.00132479
-0.00139241
-0.00144973
-0.00149693
-0.00153414
-0.00156143
-0.00157881
-0.00158626
-0.00158371
-0.00157107
-0.00154819
-0.00151491
-0.00147104
-0.00141633
-0.00135054
-0.00127338
-0.00118456
-0.00108378
-0.000970735
-0.000845091
-0.000706503
-0.000554615
-0.000389059
-0.000209462
-1.5443e-05
0.000193385
0.000417414
0.000657043
0.000912682
0.00118475
0.00147369
0.00177993
0.00210394
0.00244619
0.00280715
0.00318733
0.00358724
0.00400741
0.00444839