/*--------------------------------*- C++ -*----------------------------------*\
  =========                 |
  \\      /  F ield         | OpenFOAM: The Open Source CFD Toolbox
   \\    /   O peration     | Website:  https://openfoam.org
    \\  /    A nd           | Version:  7
     \\/     M anipulation  |
\*---------------------------------------------------------------------------*/
FoamFile
{
    version     2.0;
    format      ascii;
    class       surfaceScalarField;
    location    "0.3625";
    object      phi;
}
// * * * * * * * * * * * * * * * * * * * * * * * * * * * * * * * * * * * * * //

dimensions      [0 3 -1 0 0 0 0];

internalField   nonuniform List<scalar> 
25360
(
5.03159e-11
-5.34528e-11
1.92243e-10
-1.41931e-10
3.59628e-10
-1.67406e-10
5.05146e-10
-1.45522e-10
6.00763e-10
-9.55991e-11
6.30557e-10
-2.97762e-11
5.86326e-10
4.42164e-11
4.64928e-10
1.21401e-10
2.66413e-10
1.98517e-10
-7.07206e-12
2.73487e-10
-3.52024e-10
3.44965e-10
-7.64163e-10
4.12142e-10
-1.2387e-09
4.74531e-10
-1.77061e-09
5.31904e-10
-2.35479e-09
5.8419e-10
-2.98625e-09
6.31454e-10
-3.66012e-09
6.73865e-10
-4.37176e-09
7.11649e-10
-5.11682e-09
7.45062e-10
-5.89123e-09
7.74407e-10
-6.69124e-09
8.00007e-10
-7.51342e-09
8.22186e-10
-8.35468e-09
8.41264e-10
-9.21225e-09
8.57561e-10
-1.00836e-08
8.71393e-10
-1.09667e-08
8.83062e-10
-1.18596e-08
8.92847e-10
-1.27606e-08
9.0101e-10
-1.36684e-08
9.07803e-10
-1.45818e-08
9.13458e-10
-1.55e-08
9.18192e-10
-1.64222e-08
9.22196e-10
-1.73479e-08
9.25648e-10
-1.82766e-08
9.28704e-10
-1.92081e-08
9.31508e-10
-2.01423e-08
9.34187e-10
-2.10791e-08
9.36857e-10
-2.20187e-08
9.39619e-10
-2.29613e-08
9.42559e-10
-2.3907e-08
9.45753e-10
-2.48563e-08
9.49266e-10
-2.58095e-08
9.53155e-10
-2.67669e-08
9.57468e-10
-2.77292e-08
9.62246e-10
-2.86967e-08
9.67523e-10
-2.967e-08
9.73328e-10
-3.06497e-08
9.79679e-10
-3.16363e-08
9.86592e-10
-3.26304e-08
9.9408e-10
-3.36325e-08
1.00215e-09
-3.46433e-08
1.01081e-09
-3.56634e-08
1.02005e-09
-3.66933e-08
1.02988e-09
-3.77335e-08
1.04028e-09
-3.87848e-08
1.05124e-09
-3.98475e-08
1.06274e-09
-4.09223e-08
1.07478e-09
-4.20096e-08
1.08732e-09
-4.31099e-08
1.10034e-09
-4.42237e-08
1.11381e-09
-4.53514e-08
1.1277e-09
-4.64934e-08
1.14196e-09
-4.76499e-08
1.15655e-09
-4.88214e-08
1.17143e-09
-5.00079e-08
1.18654e-09
-5.12097e-08
1.20182e-09
-5.24269e-08
1.21721e-09
-5.36596e-08
1.23264e-09
-5.49076e-08
1.24802e-09
-5.61709e-08
1.26327e-09
-5.74492e-08
1.27831e-09
-5.87422e-08
1.29303e-09
-6.00495e-08
1.30732e-09
-6.13706e-08
1.32108e-09
-6.27048e-08
1.33417e-09
-6.40512e-08
1.34647e-09
-6.54091e-08
1.35783e-09
-6.67772e-08
1.3681e-09
-6.81543e-08
1.37714e-09
-6.95391e-08
1.38476e-09
-7.09298e-08
1.39079e-09
-7.23249e-08
1.39505e-09
-7.37222e-08
1.39733e-09
-7.51197e-08
1.39743e-09
-7.65148e-08
1.39515e-09
-7.7905e-08
1.39025e-09
-7.92876e-08
1.38251e-09
-8.06592e-08
1.37169e-09
-8.20168e-08
1.35754e-09
-8.33566e-08
1.33982e-09
-8.46749e-08
1.31828e-09
-8.59675e-08
1.29265e-09
-8.72302e-08
1.26269e-09
-8.84583e-08
1.22812e-09
-8.9647e-08
1.1887e-09
-9.07912e-08
1.14417e-09
-9.18855e-08
1.0943e-09
-9.29243e-08
1.03883e-09
-9.39019e-08
9.77561e-10
-9.48122e-08
9.10274e-10
-9.56489e-08
8.36782e-10
-9.64059e-08
7.56919e-10
-9.70764e-08
6.70548e-10
-9.7654e-08
5.77559e-10
-9.81319e-08
4.77882e-10
-9.85033e-08
3.71481e-10
-9.87617e-08
2.5837e-10
-9.89003e-08
1.38606e-10
-9.89126e-08
1.23097e-11
-9.87923e-08
-1.20356e-10
-9.85331e-08
-2.59145e-10
-9.81294e-08
-4.03758e-10
-9.75755e-08
-5.53823e-10
-9.68667e-08
-7.08888e-10
-9.59982e-08
-8.68428e-10
-9.49664e-08
-1.03183e-09
-9.3768e-08
-1.19842e-09
-9.24006e-08
-1.3674e-09
-9.08626e-08
-1.53794e-09
-8.91535e-08
-1.7091e-09
-8.72737e-08
-1.87986e-09
-8.52246e-08
-2.04913e-09
-8.30088e-08
-2.21576e-09
-8.06302e-08
-2.37854e-09
-7.80941e-08
-2.5362e-09
-7.54066e-08
-2.68741e-09
-7.25758e-08
-2.83085e-09
-6.96106e-08
-2.96515e-09
-6.65217e-08
-3.08894e-09
-6.33208e-08
-3.20087e-09
-6.00212e-08
-3.29962e-09
-5.66373e-08
-3.3839e-09
-5.31848e-08
-3.45249e-09
-4.96806e-08
-3.50426e-09
-4.61424e-08
-3.53817e-09
-4.25891e-08
-3.55327e-09
-3.90404e-08
-3.54877e-09
-3.55163e-08
-3.52401e-09
-3.20379e-08
-3.47848e-09
-2.8626e-08
-3.41183e-09
-2.53022e-08
-3.32388e-09
-2.20875e-08
-3.21464e-09
-1.90032e-08
-3.08428e-09
-1.60701e-08
-2.93316e-09
-1.33083e-08
-2.76181e-09
-1.07373e-08
-2.57095e-09
-8.3758e-09
-2.36149e-09
-6.24126e-09
-2.13455e-09
-4.3498e-09
-1.89146e-09
-2.71594e-09
-1.63386e-09
-1.35215e-09
-1.3638e-09
-2.68226e-10
-1.08392e-09
5.29603e-10
-7.97834e-10
1.04029e-09
-5.10697e-10
1.27069e-09
-2.30398e-10
1.24028e-09
3.04084e-11
9.89376e-10
2.509e-10
5.93573e-10
3.958e-10
1.911e-10
4.0247e-10
1.911e-10
1.40867e-10
-1.94322e-10
4.0677e-10
-4.07816e-10
6.87839e-10
-4.48476e-10
9.01534e-10
-3.59252e-10
9.89209e-10
-1.83278e-10
9.12568e-10
4.68442e-11
6.49022e-10
3.07799e-10
1.87316e-10
5.83107e-10
-4.7555e-10
8.6136e-10
-1.33678e-09
1.13472e-09
-2.38964e-09
1.39782e-09
-3.62462e-09
1.64713e-09
-5.03052e-09
1.88044e-09
-6.59509e-09
2.09648e-09
-8.30558e-09
2.29467e-09
-1.01491e-08
2.47501e-09
-1.21131e-08
2.63783e-09
-1.41852e-08
2.78377e-09
-1.63538e-08
2.91365e-09
-1.86079e-08
3.02848e-09
-2.09372e-08
3.12932e-09
-2.33323e-08
3.2173e-09
-2.57846e-08
3.29354e-09
-2.82862e-08
3.35921e-09
-3.08302e-08
3.41543e-09
-3.34105e-08
3.46329e-09
-3.60214e-08
3.50382e-09
-3.86585e-08
3.53802e-09
-4.13175e-08
3.56681e-09
-4.39951e-08
3.59107e-09
-4.66885e-08
3.61159e-09
-4.93954e-08
3.62911e-09
-5.2114e-08
3.6443e-09
-5.48431e-08
3.65778e-09
-5.75817e-08
3.6701e-09
-6.03293e-08
3.68175e-09
-6.30856e-08
3.69317e-09
-6.58507e-08
3.70477e-09
-6.8625e-08
3.71687e-09
-7.14091e-08
3.72979e-09
-7.42036e-08
3.74378e-09
-7.70095e-08
3.75908e-09
-7.98279e-08
3.77588e-09
-8.266e-08
3.79433e-09
-8.5507e-08
3.81458e-09
-8.83704e-08
3.83673e-09
-9.12517e-08
3.86089e-09
-9.41522e-08
3.8871e-09
-9.70735e-08
3.91543e-09
-1.00017e-07
3.94591e-09
-1.02985e-07
3.97854e-09
-1.05978e-07
4.01333e-09
-1.08999e-07
4.05025e-09
-1.12048e-07
4.08929e-09
-1.15127e-07
4.13039e-09
-1.18238e-07
4.17349e-09
-1.21381e-07
4.21851e-09
-1.24559e-07
4.26537e-09
-1.27773e-07
4.31396e-09
-1.31023e-07
4.36416e-09
-1.34311e-07
4.41582e-09
-1.37638e-07
4.46879e-09
-1.41005e-07
4.52289e-09
-1.44411e-07
4.57793e-09
-1.47858e-07
4.6337e-09
-1.51346e-07
4.68995e-09
-1.54876e-07
4.74643e-09
-1.58446e-07
4.80285e-09
-1.62057e-07
4.8589e-09
-1.65708e-07
4.91425e-09
-1.69398e-07
4.96854e-09
-1.73126e-07
5.02137e-09
-1.76891e-07
5.07233e-09
-1.80691e-07
5.12096e-09
-1.84524e-07
5.16678e-09
-1.88387e-07
5.20929e-09
-1.92277e-07
5.24792e-09
-1.96191e-07
5.28211e-09
-2.00125e-07
5.31124e-09
-2.04075e-07
5.33466e-09
-2.08036e-07
5.3517e-09
-2.12002e-07
5.36162e-09
-2.15969e-07
5.36369e-09
-2.19928e-07
5.35713e-09
-2.23874e-07
5.34113e-09
-2.27799e-07
5.31483e-09
-2.31694e-07
5.27739e-09
-2.3555e-07
5.2279e-09
-2.39358e-07
5.16546e-09
-2.43107e-07
5.08913e-09
-2.46787e-07
4.99798e-09
-2.50385e-07
4.89106e-09
-2.5389e-07
4.76741e-09
-2.57288e-07
4.6261e-09
-2.60565e-07
4.46618e-09
-2.63708e-07
4.28676e-09
-2.66701e-07
4.08695e-09
-2.69528e-07
3.86591e-09
-2.72173e-07
3.62285e-09
-2.7462e-07
3.35706e-09
-2.76851e-07
3.06789e-09
-2.78849e-07
2.75477e-09
-2.80596e-07
2.41726e-09
-2.82073e-07
2.05502e-09
-2.83263e-07
1.66787e-09
-2.84147e-07
1.25576e-09
-2.84708e-07
8.18809e-10
-2.84926e-07
3.57339e-10
-2.84786e-07
-1.2814e-10
-2.84269e-07
-6.36898e-10
-2.83361e-07
-1.16796e-09
-2.82044e-07
-1.72012e-09
-2.80306e-07
-2.29189e-09
-2.78134e-07
-2.88153e-09
-2.75515e-07
-3.48698e-09
-2.72441e-07
-4.10593e-09
-2.68904e-07
-4.73574e-09
-2.64897e-07
-5.37349e-09
-2.60419e-07
-6.01595e-09
-2.55469e-07
-6.65964e-09
-2.50048e-07
-7.30075e-09
-2.44162e-07
-7.93524e-09
-2.37819e-07
-8.55882e-09
-2.3103e-07
-9.16699e-09
-2.23812e-07
-9.75508e-09
-2.16181e-07
-1.03182e-08
-2.0816e-07
-1.08515e-08
-1.99775e-07
-1.135e-08
-1.91055e-07
-1.18087e-08
-1.82034e-07
-1.22225e-08
-1.72747e-07
-1.25868e-08
-1.63234e-07
-1.28967e-08
-1.53538e-07
-1.3148e-08
-1.43706e-07
-1.33365e-08
-1.33786e-07
-1.34583e-08
-1.23829e-07
-1.35101e-08
-1.13889e-07
-1.34891e-08
-1.0402e-07
-1.33928e-08
-9.42789e-08
-1.32195e-08
-8.47228e-08
-1.29679e-08
-7.54093e-08
-1.26375e-08
-6.63956e-08
-1.22283e-08
-5.77386e-08
-1.17412e-08
-4.94941e-08
-1.11777e-08
-4.17161e-08
-1.05398e-08
-3.44564e-08
-9.8307e-09
-2.77638e-08
-9.05404e-09
-2.16839e-08
-8.21452e-09
-1.62574e-08
-7.31788e-09
-1.15201e-08
-6.37117e-09
-7.5007e-09
-5.38324e-09
-4.21918e-09
-4.36544e-09
-1.68413e-09
-3.33288e-09
1.11527e-10
-2.30635e-09
1.1967e-09
-1.31557e-09
1.63118e-09
-4.04073e-10
1.51913e-09
3.6295e-10
1.02673e-09
8.88191e-10
4.0088e-10
1.02832e-09
5.91977e-10
1.67969e-10
-3.62312e-10
4.50143e-10
-6.89981e-10
7.07712e-10
-7.06019e-10
8.40719e-10
-4.92239e-10
7.75754e-10
-1.18352e-10
4.623e-10
3.60308e-10
-1.31566e-10
9.01671e-10
-1.02311e-09
1.47465e-09
-2.21842e-09
2.05668e-09
-3.71526e-09
2.63156e-09
-5.50531e-09
3.18785e-09
-7.5759e-09
3.71772e-09
-9.91145e-09
4.216e-09
-1.24945e-08
4.67952e-09
-1.53065e-08
5.10667e-09
-1.83285e-08
5.49702e-09
-2.15416e-08
5.85096e-09
-2.49274e-08
6.16954e-09
-2.84681e-08
6.45433e-09
-3.21468e-08
6.7072e-09
-3.59477e-08
6.93026e-09
-3.98562e-08
7.12579e-09
-4.38588e-08
7.2961e-09
-4.79431e-08
7.44357e-09
-5.20982e-08
7.57051e-09
-5.63141e-08
7.67921e-09
-6.05822e-08
7.77186e-09
-6.48947e-08
7.85055e-09
-6.92452e-08
7.91727e-09
-7.3628e-08
7.97385e-09
-7.80384e-08
8.02202e-09
-8.24727e-08
8.06337e-09
-8.69277e-08
8.09935e-09
-9.14012e-08
8.13129e-09
-9.58915e-08
8.1604e-09
-1.00398e-07
8.18777e-09
-1.04919e-07
8.21435e-09
-1.09455e-07
8.24102e-09
-1.14007e-07
8.26853e-09
-1.18574e-07
8.29756e-09
-1.23159e-07
8.3287e-09
-1.27763e-07
8.36245e-09
-1.32386e-07
8.39925e-09
-1.37031e-07
8.43945e-09
-1.417e-07
8.48338e-09
-1.46395e-07
8.53128e-09
-1.51117e-07
8.58336e-09
-1.5587e-07
8.63976e-09
-1.60655e-07
8.70062e-09
-1.65475e-07
8.76598e-09
-1.70332e-07
8.83589e-09
-1.75229e-07
8.91035e-09
-1.80168e-07
8.98931e-09
-1.85152e-07
9.0727e-09
-1.90182e-07
9.16043e-09
-1.95261e-07
9.25235e-09
-2.0039e-07
9.34829e-09
-2.05573e-07
9.44805e-09
-2.1081e-07
9.55137e-09
-2.16104e-07
9.65799e-09
-2.21456e-07
9.76759e-09
-2.26867e-07
9.87981e-09
-2.32339e-07
9.99426e-09
-2.37871e-07
1.01105e-08
-2.43465e-07
1.0228e-08
-2.49122e-07
1.03463e-08
-2.5484e-07
1.04648e-08
-2.6062e-07
1.05828e-08
-2.66461e-07
1.06997e-08
-2.72361e-07
1.08147e-08
-2.7832e-07
1.0927e-08
-2.84334e-07
1.10358e-08
-2.90402e-07
1.114e-08
-2.9652e-07
1.12388e-08
-3.02684e-07
1.1331e-08
-3.0889e-07
1.14155e-08
-3.15134e-07
1.14912e-08
-3.21408e-07
1.15567e-08
-3.27708e-07
1.16107e-08
-3.34025e-07
1.16518e-08
-3.40352e-07
1.16785e-08
-3.46679e-07
1.16892e-08
-3.52998e-07
1.16824e-08
-3.59297e-07
1.16564e-08
-3.65565e-07
1.16093e-08
-3.7179e-07
1.15394e-08
-3.77957e-07
1.14448e-08
-3.84053e-07
1.13237e-08
-3.90062e-07
1.1174e-08
-3.95966e-07
1.09938e-08
-4.0175e-07
1.07812e-08
-4.07393e-07
1.0534e-08
-4.12875e-07
1.02503e-08
-4.18178e-07
9.92818e-09
-4.23277e-07
9.56559e-09
-4.28151e-07
9.16069e-09
-4.32776e-07
8.71165e-09
-4.37126e-07
8.21675e-09
-4.41178e-07
7.67439e-09
-4.44904e-07
7.08312e-09
-4.48278e-07
6.44165e-09
-4.51272e-07
5.74889e-09
-4.53859e-07
5.004e-09
-4.5601e-07
4.20639e-09
-4.57698e-07
3.35576e-09
-4.58894e-07
2.45216e-09
-4.59571e-07
1.496e-09
-4.59702e-07
4.88064e-10
-4.5926e-07
-5.704e-10
-4.58219e-07
-1.67769e-09
-4.56555e-07
-2.83162e-09
-4.54246e-07
-4.02945e-09
-4.5127e-07
-5.26791e-09
-4.47609e-07
-6.54313e-09
-4.43245e-07
-7.85068e-09
-4.38165e-07
-9.18547e-09
-4.32359e-07
-1.05418e-08
-4.25819e-07
-1.19135e-08
-4.18542e-07
-1.32935e-08
-4.10527e-07
-1.46744e-08
-4.01779e-07
-1.60482e-08
-3.92309e-07
-1.74061e-08
-3.82128e-07
-1.87391e-08
-3.71258e-07
-2.00377e-08
-3.59721e-07
-2.1292e-08
-3.47547e-07
-2.24917e-08
-3.34772e-07
-2.36266e-08
-3.21436e-07
-2.46862e-08
-3.07585e-07
-2.56599e-08
-2.9327e-07
-2.65373e-08
-2.78548e-07
-2.73084e-08
-2.63481e-07
-2.79635e-08
-2.48136e-07
-2.84931e-08
-2.32584e-07
-2.88888e-08
-2.169e-07
-2.91426e-08
-2.01162e-07
-2.92475e-08
-1.85454e-07
-2.91974e-08
-1.69859e-07
-2.89876e-08
-1.54465e-07
-2.86142e-08
-1.39358e-07
-2.80748e-08
-1.24627e-07
-2.73684e-08
-1.1036e-07
-2.64954e-08
-9.66433e-08
-2.54575e-08
-8.35627e-08
-2.42582e-08
-7.12e-08
-2.29025e-08
-5.96335e-08
-2.13972e-08
-4.89366e-08
-1.97509e-08
-3.9177e-08
-1.79742e-08
-3.04146e-08
-1.60803e-08
-2.27003e-08
-1.40854e-08
-1.60737e-08
-1.20098e-08
-1.05601e-08
-9.87908e-09
-6.16645e-09
-7.72652e-09
-2.87625e-09
-5.59655e-09
-6.42048e-10
-3.54978e-09
6.24417e-10
-1.67054e-09
1.06501e-09
-7.76441e-11
8.89825e-10
1.06338e-09
3.93916e-10
1.52423e-09
9.85892e-10
1.47895e-10
-5.10217e-10
3.63874e-10
-9.05985e-10
4.97082e-10
-8.39203e-10
4.39429e-10
-4.34597e-10
1.11378e-10
2.09721e-10
-5.43135e-10
1.01482e-09
-1.56054e-09
1.91905e-09
-2.96136e-09
2.87548e-09
-4.75351e-09
3.84885e-09
-6.93512e-09
4.81316e-09
-9.4968e-09
5.74954e-09
-1.24237e-08
6.64464e-09
-1.56971e-08
7.48939e-09
-1.92956e-08
8.27801e-09
-2.31963e-08
9.00733e-09
-2.73753e-08
9.67608e-09
-3.18089e-08
1.02845e-08
-3.64735e-08
1.08341e-08
-4.13463e-08
1.13271e-08
-4.64055e-08
1.17664e-08
-5.16306e-08
1.21554e-08
-5.70024e-08
1.24976e-08
-6.25031e-08
1.27968e-08
-6.81165e-08
1.3057e-08
-7.3828e-08
1.3282e-08
-7.96243e-08
1.34755e-08
-8.54937e-08
1.36413e-08
-9.14259e-08
1.37827e-08
-9.74119e-08
1.39033e-08
-1.03444e-07
1.4006e-08
-1.09516e-07
1.40939e-08
-1.15622e-07
1.41696e-08
-1.21758e-07
1.42356e-08
-1.27921e-07
1.42942e-08
-1.34108e-07
1.43475e-08
-1.40318e-07
1.43974e-08
-1.46549e-07
1.44455e-08
-1.52801e-07
1.44933e-08
-1.59075e-07
1.45422e-08
-1.65371e-07
1.45933e-08
-1.7169e-07
1.46477e-08
-1.78034e-07
1.47063e-08
-1.84404e-07
1.47698e-08
-1.90804e-07
1.48388e-08
-1.97234e-07
1.4914e-08
-2.03699e-07
1.49958e-08
-2.102e-07
1.50845e-08
-2.16741e-07
1.51804e-08
-2.23324e-07
1.52837e-08
-2.29952e-07
1.53946e-08
-2.36629e-07
1.55131e-08
-2.43358e-07
1.56391e-08
-2.50142e-07
1.57727e-08
-2.56983e-07
1.59137e-08
-2.63884e-07
1.60619e-08
-2.70849e-07
1.62171e-08
-2.77879e-07
1.63789e-08
-2.84978e-07
1.6547e-08
-2.92148e-07
1.67209e-08
-2.9939e-07
1.69003e-08
-3.06707e-07
1.70844e-08
-3.141e-07
1.72726e-08
-3.2157e-07
1.74644e-08
-3.29118e-07
1.76587e-08
-3.36745e-07
1.78549e-08
-3.44451e-07
1.8052e-08
-3.52235e-07
1.82489e-08
-3.60096e-07
1.84445e-08
-3.68034e-07
1.86375e-08
-3.76046e-07
1.88268e-08
-3.8413e-07
1.90108e-08
-3.92282e-07
1.91881e-08
-4.00499e-07
1.9357e-08
-4.08776e-07
1.95157e-08
-4.17108e-07
1.96625e-08
-4.25487e-07
1.97953e-08
-4.33908e-07
1.99121e-08
-4.42362e-07
2.00107e-08
-4.5084e-07
2.00887e-08
-4.59332e-07
2.01437e-08
-4.67827e-07
2.01732e-08
-4.76312e-07
2.01744e-08
-4.84774e-07
2.01447e-08
-4.93199e-07
2.0081e-08
-5.0157e-07
1.99805e-08
-5.09871e-07
1.984e-08
-5.18083e-07
1.96564e-08
-5.26185e-07
1.94265e-08
-5.34158e-07
1.91469e-08
-5.41979e-07
1.88143e-08
-5.49623e-07
1.84254e-08
-5.57066e-07
1.79768e-08
-5.64281e-07
1.74652e-08
-5.7124e-07
1.68873e-08
-5.77914e-07
1.62398e-08
-5.84273e-07
1.55197e-08
-5.90285e-07
1.47239e-08
-5.95918e-07
1.38496e-08
-6.01138e-07
1.28943e-08
-6.05911e-07
1.18557e-08
-6.10201e-07
1.07317e-08
-6.13972e-07
9.52057e-09
-6.17189e-07
8.22114e-09
-6.19816e-07
6.83256e-09
-6.21814e-07
5.35454e-09
-6.23149e-07
3.78733e-09
-6.23785e-07
2.13182e-09
-6.23687e-07
3.89581e-10
-6.2282e-07
-1.4371e-09
-6.21153e-07
-3.34515e-09
-6.18654e-07
-5.33063e-09
-6.15294e-07
-7.38876e-09
-6.11048e-07
-9.5138e-09
-6.05893e-07
-1.16991e-08
-5.99806e-07
-1.39369e-08
-5.92773e-07
-1.62185e-08
-5.84781e-07
-1.85343e-08
-5.75821e-07
-2.08735e-08
-5.6589e-07
-2.32245e-08
-5.5499e-07
-2.55744e-08
-5.43129e-07
-2.79096e-08
-5.30319e-07
-3.02157e-08
-5.16581e-07
-3.24773e-08
-5.0194e-07
-3.46785e-08
-4.86429e-07
-3.68026e-08
-4.70088e-07
-3.88326e-08
-4.52964e-07
-4.07511e-08
-4.3511e-07
-4.25406e-08
-4.16586e-07
-4.41836e-08
-3.9746e-07
-4.56629e-08
-3.77807e-07
-4.69615e-08
-3.57707e-07
-4.80632e-08
-3.37248e-07
-4.89526e-08
-3.16521e-07
-4.96154e-08
-2.95625e-07
-5.00384e-08
-2.74663e-07
-5.02099e-08
-2.5374e-07
-5.01202e-08
-2.32967e-07
-4.97609e-08
-2.12455e-07
-4.9126e-08
-1.92318e-07
-4.82117e-08
-1.72671e-07
-4.70162e-08
-1.53626e-07
-4.55405e-08
-1.35295e-07
-4.37879e-08
-1.17789e-07
-4.17646e-08
-1.01212e-07
-3.94796e-08
-8.56642e-08
-3.69447e-08
-7.12398e-08
-3.41752e-08
-5.80237e-08
-3.11903e-08
-4.60909e-08
-2.80131e-08
-3.55038e-08
-2.46725e-08
-2.63098e-08
-2.12038e-08
-1.85375e-08
-1.76514e-08
-1.21925e-08
-1.40716e-08
-7.25136e-09
-1.05377e-08
-3.65526e-09
-7.14588e-09
-1.30058e-09
-4.02521e-09
-2.86058e-11
-1.34963e-09
3.87063e-10
6.4771e-10
2.5411e-10
1.65719e-09
1.24e-09
9.90054e-11
-6.09212e-10
1.88012e-10
-9.94997e-10
1.19489e-10
-7.70721e-10
-2.14251e-10
-1.00832e-10
-8.92965e-10
8.88452e-10
-1.9733e-09
2.09515e-09
-3.49252e-09
3.43828e-09
-5.47188e-09
4.85483e-09
-7.91951e-09
6.29648e-09
-1.08331e-08
7.72674e-09
-1.42021e-08
9.11854e-09
-1.80097e-08
1.04523e-08
-2.22348e-08
1.17144e-08
-2.68528e-08
1.2896e-08
-3.18372e-08
1.39917e-08
-3.71605e-08
1.49993e-08
-4.27946e-08
1.59187e-08
-4.8712e-08
1.67515e-08
-5.48857e-08
1.75008e-08
-6.12896e-08
1.81704e-08
-6.78993e-08
1.87651e-08
-7.46917e-08
1.92899e-08
-8.16454e-08
1.97505e-08
-8.87406e-08
2.01523e-08
-9.59595e-08
2.05009e-08
-1.03286e-07
2.08019e-08
-1.10705e-07
2.10607e-08
-1.18205e-07
2.12825e-08
-1.25774e-07
2.14722e-08
-1.33402e-07
2.16345e-08
-1.41082e-07
2.17737e-08
-1.48807e-07
2.1894e-08
-1.5657e-07
2.1999e-08
-1.64368e-07
2.20923e-08
-1.72198e-07
2.21769e-08
-1.80056e-07
2.22557e-08
-1.87942e-07
2.23312e-08
-1.95854e-07
2.24058e-08
-2.03793e-07
2.24815e-08
-2.1176e-07
2.25601e-08
-2.19756e-07
2.26431e-08
-2.27781e-07
2.2732e-08
-2.35839e-07
2.28279e-08
-2.43932e-07
2.29318e-08
-2.52063e-07
2.30446e-08
-2.60234e-07
2.31669e-08
-2.68449e-07
2.32995e-08
-2.76711e-07
2.34425e-08
-2.85024e-07
2.35965e-08
-2.93391e-07
2.37616e-08
-3.01815e-07
2.39378e-08
-3.10302e-07
2.41252e-08
-3.18852e-07
2.43236e-08
-3.27472e-07
2.4533e-08
-3.36163e-07
2.47529e-08
-3.44929e-07
2.49829e-08
-3.53772e-07
2.52227e-08
-3.62697e-07
2.54715e-08
-3.71705e-07
2.57288e-08
-3.80798e-07
2.59938e-08
-3.89979e-07
2.62655e-08
-3.9925e-07
2.6543e-08
-4.08611e-07
2.68252e-08
-4.18063e-07
2.71108e-08
-4.27606e-07
2.73985e-08
-4.37241e-07
2.76869e-08
-4.46966e-07
2.79742e-08
-4.56781e-07
2.82589e-08
-4.66682e-07
2.85391e-08
-4.76668e-07
2.88126e-08
-4.86735e-07
2.90773e-08
-4.96877e-07
2.93308e-08
-5.07091e-07
2.95708e-08
-5.1737e-07
2.97944e-08
-5.27706e-07
2.99989e-08
-5.38092e-07
3.01813e-08
-5.48518e-07
3.03383e-08
-5.58974e-07
3.04666e-08
-5.69448e-07
3.05628e-08
-5.79928e-07
3.0623e-08
-5.90398e-07
3.06435e-08
-6.00844e-07
3.06201e-08
-6.11248e-07
3.05487e-08
-6.21592e-07
3.0425e-08
-6.31856e-07
3.02445e-08
-6.42018e-07
3.00025e-08
-6.52056e-07
2.96943e-08
-6.61945e-07
2.93152e-08
-6.71658e-07
2.88601e-08
-6.81168e-07
2.83243e-08
-6.90445e-07
2.77027e-08
-6.99459e-07
2.69903e-08
-7.08176e-07
2.61823e-08
-7.16562e-07
2.52738e-08
-7.24583e-07
2.42601e-08
-7.322e-07
2.31368e-08
-7.39375e-07
2.18995e-08
-7.4607e-07
2.05442e-08
-7.52243e-07
1.90671e-08
-7.57852e-07
1.74651e-08
-7.62856e-07
1.57354e-08
-7.67211e-07
1.38756e-08
-7.70874e-07
1.18841e-08
-7.73801e-07
9.7599e-09
-7.75949e-07
7.5029e-09
-7.77276e-07
5.11373e-09
-7.77738e-07
2.59396e-09
-7.77295e-07
-5.37748e-11
-7.75906e-07
-2.82581e-09
-7.73534e-07
-5.71726e-09
-7.70142e-07
-8.72203e-09
-7.65698e-07
-1.18327e-08
-7.60172e-07
-1.50406e-08
-7.53535e-07
-1.83355e-08
-7.45766e-07
-2.17057e-08
-7.36847e-07
-2.51382e-08
-7.26763e-07
-2.86184e-08
-7.15506e-07
-3.21302e-08
-7.03074e-07
-3.56561e-08
-6.89472e-07
-3.91772e-08
-6.74708e-07
-4.26732e-08
-6.58801e-07
-4.61227e-08
-6.41775e-07
-4.95028e-08
-6.23664e-07
-5.279e-08
-6.04507e-07
-5.59598e-08
-5.84352e-07
-5.89869e-08
-5.63258e-07
-6.18458e-08
-5.41288e-07
-6.45107e-08
-5.18515e-07
-6.69559e-08
-4.95022e-07
-6.91559e-08
-4.70898e-07
-7.10859e-08
-4.46239e-07
-7.2722e-08
-4.2115e-07
-7.40418e-08
-3.95742e-07
-7.50239e-08
-3.70131e-07
-7.56493e-08
-3.4444e-07
-7.59008e-08
-3.18796e-07
-7.57639e-08
-2.9333e-07
-7.52267e-08
-2.68176e-07
-7.42803e-08
-2.43468e-07
-7.29192e-08
-2.19343e-07
-7.11412e-08
-1.95936e-07
-6.89479e-08
-1.73379e-07
-6.63446e-08
-1.51803e-07
-6.33408e-08
-1.31332e-07
-5.99505e-08
-1.12085e-07
-5.61921e-08
-9.41708e-08
-5.20892e-08
-7.76901e-08
-4.7671e-08
-6.27296e-08
-4.29736e-08
-4.93614e-08
-3.80407e-08
-3.76394e-08
-3.29258e-08
-2.75956e-08
-2.76952e-08
-1.92357e-08
-2.24315e-08
-1.25341e-08
-1.72392e-08
-7.42774e-09
-1.22523e-08
-3.80866e-09
-7.6443e-09
-1.51637e-09
-3.64192e-09
-3.29063e-10
-5.39601e-10
4.70732e-11
1.28105e-09
1.28708e-09
3.26148e-11
-6.41809e-10
-4.79817e-11
-9.14418e-10
-3.75853e-10
-4.42844e-10
-1.05158e-09
5.7489e-10
-2.15015e-09
1.98701e-09
-3.725e-09
3.67002e-09
-5.81127e-09
5.52456e-09
-8.42861e-09
7.47216e-09
-1.15838e-08
9.45163e-09
-1.5273e-08
1.14159e-08
-1.9484e-08
1.33296e-08
-2.41982e-08
1.51665e-08
-2.93918e-08
1.6908e-08
-3.50377e-08
1.85419e-08
-4.11064e-08
2.00605e-08
-4.75672e-08
2.14601e-08
-5.43886e-08
2.27402e-08
-6.15396e-08
2.39025e-08
-6.89896e-08
2.49508e-08
-7.67092e-08
2.589e-08
-8.46704e-08
2.67263e-08
-9.28469e-08
2.74664e-08
-1.01214e-07
2.81175e-08
-1.09749e-07
2.86872e-08
-1.18431e-07
2.9183e-08
-1.27241e-07
2.96124e-08
-1.36163e-07
2.99827e-08
-1.45182e-07
3.0301e-08
-1.54284e-07
3.05741e-08
-1.63458e-07
3.08083e-08
-1.72694e-07
3.10098e-08
-1.81984e-07
3.11842e-08
-1.91322e-07
3.13365e-08
-2.00701e-07
3.14717e-08
-2.10118e-07
3.15941e-08
-2.1957e-07
3.17076e-08
-2.29055e-07
3.18159e-08
-2.38571e-07
3.19221e-08
-2.48119e-07
3.20292e-08
-2.57698e-07
3.21396e-08
-2.67311e-07
3.22557e-08
-2.76958e-07
3.23793e-08
-2.86642e-07
3.25121e-08
-2.96366e-07
3.26556e-08
-3.06133e-07
3.28109e-08
-3.15945e-07
3.29791e-08
-3.25806e-07
3.3161e-08
-3.35721e-07
3.33572e-08
-3.45693e-07
3.35681e-08
-3.55725e-07
3.37941e-08
-3.65823e-07
3.40352e-08
-3.75989e-07
3.42915e-08
-3.86228e-07
3.45627e-08
-3.96544e-07
3.48486e-08
-4.06939e-07
3.51488e-08
-4.17419e-07
3.54627e-08
-4.27986e-07
3.57896e-08
-4.38643e-07
3.61287e-08
-4.49393e-07
3.64789e-08
-4.60239e-07
3.68392e-08
-4.71181e-07
3.72082e-08
-4.82223e-07
3.75847e-08
-4.93365e-07
3.79669e-08
-5.04607e-07
3.83531e-08
-5.1595e-07
3.87413e-08
-5.27393e-07
3.91296e-08
-5.38934e-07
3.95156e-08
-5.50572e-07
3.98968e-08
-5.62304e-07
4.02706e-08
-5.74125e-07
4.0634e-08
-5.86032e-07
4.0984e-08
-5.98018e-07
4.13172e-08
-6.10077e-07
4.16301e-08
-6.22202e-07
4.1919e-08
-6.34383e-07
4.21799e-08
-6.4661e-07
4.24084e-08
-6.58872e-07
4.26002e-08
-6.71156e-07
4.27506e-08
-6.83448e-07
4.28545e-08
-6.95732e-07
4.29069e-08
-7.07991e-07
4.29024e-08
-7.20206e-07
4.28353e-08
-7.32357e-07
4.26998e-08
-7.44422e-07
4.24899e-08
-7.56377e-07
4.21994e-08
-7.68196e-07
4.1822e-08
-7.79853e-07
4.1351e-08
-7.91318e-07
4.078e-08
-8.0256e-07
4.01021e-08
-8.13546e-07
3.93107e-08
-8.24243e-07
3.8399e-08
-8.34613e-07
3.73603e-08
-8.44618e-07
3.61879e-08
-8.5422e-07
3.48753e-08
-8.63376e-07
3.34162e-08
-8.72043e-07
3.18045e-08
-8.80178e-07
3.00345e-08
-8.87735e-07
2.8101e-08
-8.94667e-07
2.5999e-08
-9.00926e-07
2.37244e-08
-9.06465e-07
2.12735e-08
-9.11233e-07
1.86436e-08
-9.15181e-07
1.58326e-08
-9.18261e-07
1.28396e-08
-9.20423e-07
9.66468e-09
-9.21618e-07
6.30905e-09
-9.21799e-07
2.77527e-09
-9.2092e-07
-9.32741e-10
-9.18937e-07
-4.80956e-09
-9.15806e-07
-8.84818e-09
-9.11488e-07
-1.30399e-08
-9.05946e-07
-1.73742e-08
-8.99148e-07
-2.18389e-08
-8.91064e-07
-2.64197e-08
-8.81669e-07
-3.11004e-08
-8.70944e-07
-3.58628e-08
-8.58876e-07
-4.06869e-08
-8.45456e-07
-4.55503e-08
-8.30683e-07
-5.04292e-08
-8.14562e-07
-5.52974e-08
-7.97108e-07
-6.01272e-08
-7.78342e-07
-6.48891e-08
-7.58293e-07
-6.95522e-08
-7.36999e-07
-7.40842e-08
-7.14507e-07
-7.84516e-08
-6.90873e-07
-8.26202e-08
-6.66164e-07
-8.65552e-08
-6.40453e-07
-9.02215e-08
-6.13825e-07
-9.3584e-08
-5.86373e-07
-9.66082e-08
-5.58198e-07
-9.92606e-08
-5.29412e-07
-1.01509e-07
-5.00132e-07
-1.03321e-07
-4.70485e-07
-1.04671e-07
-4.40605e-07
-1.0553e-07
-4.1063e-07
-1.05876e-07
-3.80704e-07
-1.0569e-07
-3.50976e-07
-1.04954e-07
-3.21598e-07
-1.03658e-07
-2.92724e-07
-1.01794e-07
-2.64507e-07
-9.93584e-08
-2.371e-07
-9.63544e-08
-2.10655e-07
-9.27897e-08
-1.85318e-07
-8.86776e-08
-1.61231e-07
-8.40379e-08
-1.38527e-07
-7.88965e-08
-1.17329e-07
-7.32867e-08
-9.77504e-08
-6.72497e-08
-7.98882e-08
-6.08357e-08
-6.38233e-08
-5.41056e-08
-4.96159e-08
-4.71332e-08
-3.73027e-08
-4.00084e-08
-2.68924e-08
-3.28418e-08
-1.83617e-08
-2.57699e-08
-1.16499e-08
-1.8964e-08
-6.65422e-09
-1.264e-08
-3.22403e-09
-7.07211e-09
-1.15625e-09
-2.60738e-09
-1.90187e-10
3.1499e-10
1.09689e-09
-4.43523e-11
-5.97472e-10
-3.23514e-10
-6.35222e-10
-9.52641e-10
1.86286e-10
-2.02022e-09
1.64246e-09
-3.59268e-09
3.55946e-09
-5.71719e-09
5.79454e-09
-8.42421e-09
8.23158e-09
-1.17298e-08
1.07777e-08
-1.56378e-08
1.33596e-08
-2.01418e-08
1.592e-08
-2.52274e-08
1.84151e-08
-3.08733e-08
2.08124e-08
-3.70534e-08
2.30882e-08
-4.37381e-08
2.52266e-08
-5.08951e-08
2.72174e-08
-5.84907e-08
2.90557e-08
-6.64908e-08
3.07402e-08
-7.48611e-08
3.22728e-08
-8.35681e-08
3.36578e-08
-9.25794e-08
3.49013e-08
-1.01864e-07
3.6011e-08
-1.11393e-07
3.69951e-08
-1.21138e-07
3.7863e-08
-1.31075e-07
3.86241e-08
-1.4118e-07
3.9288e-08
-1.51432e-07
3.98644e-08
-1.61812e-07
4.03627e-08
-1.72303e-07
4.07921e-08
-1.82891e-07
4.11613e-08
-1.93561e-07
4.14786e-08
-2.04303e-07
4.1752e-08
-2.15108e-07
4.19888e-08
-2.25967e-07
4.21958e-08
-2.36874e-07
4.23792e-08
-2.47825e-07
4.25448e-08
-2.58815e-07
4.26979e-08
-2.69843e-07
4.28431e-08
-2.80905e-07
4.29849e-08
-2.92003e-07
4.31268e-08
-3.03136e-07
4.32725e-08
-3.14305e-07
4.34247e-08
-3.25512e-07
4.35862e-08
-3.36759e-07
4.37591e-08
-3.48049e-07
4.39455e-08
-3.59385e-07
4.41468e-08
-3.7077e-07
4.43645e-08
-3.82209e-07
4.45997e-08
-3.93705e-07
4.48531e-08
-4.05262e-07
4.51254e-08
-4.16885e-07
4.54169e-08
-4.28578e-07
4.57279e-08
-4.40344e-07
4.60583e-08
-4.5219e-07
4.64078e-08
-4.64117e-07
4.67762e-08
-4.76131e-07
4.71627e-08
-4.88235e-07
4.75667e-08
-5.00432e-07
4.79871e-08
-5.12727e-07
4.84229e-08
-5.2512e-07
4.88726e-08
-5.37616e-07
4.93348e-08
-5.50215e-07
4.98077e-08
-5.6292e-07
5.02894e-08
-5.75731e-07
5.07778e-08
-5.88649e-07
5.12704e-08
-6.01672e-07
5.17647e-08
-6.148e-07
5.22578e-08
-6.28031e-07
5.27466e-08
-6.41362e-07
5.32279e-08
-6.5479e-07
5.3698e-08
-6.68308e-07
5.4153e-08
-6.81913e-07
5.45888e-08
-6.95597e-07
5.50009e-08
-7.09352e-07
5.53847e-08
-7.23168e-07
5.57351e-08
-7.37035e-07
5.60469e-08
-7.50941e-07
5.63142e-08
-7.64872e-07
5.65314e-08
-7.78813e-07
5.66921e-08
-7.92749e-07
5.67898e-08
-8.06659e-07
5.68177e-08
-8.20525e-07
5.67686e-08
-8.34325e-07
5.66353e-08
-8.48036e-07
5.64101e-08
-8.61631e-07
5.60851e-08
-8.75084e-07
5.56521e-08
-8.88365e-07
5.5103e-08
-9.01443e-07
5.44292e-08
-9.14285e-07
5.36222e-08
-9.26856e-07
5.26732e-08
-9.39119e-07
5.15736e-08
-9.51034e-07
5.03146e-08
-9.62562e-07
4.88877e-08
-9.73658e-07
4.72843e-08
-9.84279e-07
4.54961e-08
-9.94378e-07
4.35151e-08
-1.00391e-06
4.13336e-08
-1.01282e-06
3.89445e-08
-1.02106e-06
3.63412e-08
-1.02858e-06
3.35175e-08
-1.03532e-06
3.04684e-08
-1.04124e-06
2.71895e-08
-1.04627e-06
2.36776e-08
-1.05037e-06
1.99303e-08
-1.05348e-06
1.5947e-08
-1.05554e-06
1.1728e-08
-1.0565e-06
7.27536e-09
-1.05632e-06
2.59285e-09
-1.05494e-06
-2.31405e-09
-1.05231e-06
-7.4379e-09
-1.04839e-06
-1.27692e-08
-1.04314e-06
-1.82963e-08
-1.0365e-06
-2.40053e-08
-1.02846e-06
-2.98798e-08
-1.01898e-06
-3.59011e-08
-1.00803e-06
-4.2048e-08
-9.956e-07
-4.82967e-08
-9.81666e-07
-5.46209e-08
-9.66225e-07
-6.09917e-08
-9.49276e-07
-6.73778e-08
-9.30828e-07
-7.37456e-08
-9.10896e-07
-8.0059e-08
-8.89505e-07
-8.62799e-08
-8.66689e-07
-9.23684e-08
-8.42491e-07
-9.82827e-08
-8.16963e-07
-1.0398e-07
-7.90167e-07
-1.09415e-07
-7.62178e-07
-1.14545e-07
-7.33077e-07
-1.19322e-07
-7.02957e-07
-1.23704e-07
-6.71922e-07
-1.27644e-07
-6.40083e-07
-1.311e-07
-6.07562e-07
-1.34029e-07
-5.7449e-07
-1.36393e-07
-5.41005e-07
-1.38155e-07
-5.07255e-07
-1.3928e-07
-4.73392e-07
-1.39739e-07
-4.39575e-07
-1.39507e-07
-4.05967e-07
-1.38562e-07
-3.72735e-07
-1.3689e-07
-3.40049e-07
-1.3448e-07
-3.08077e-07
-1.3133e-07
-2.76988e-07
-1.27443e-07
-2.46949e-07
-1.22829e-07
-2.1812e-07
-1.17507e-07
-1.90657e-07
-1.11501e-07
-1.64706e-07
-1.04847e-07
-1.40405e-07
-9.75884e-08
-1.17875e-07
-8.97796e-08
-9.72244e-08
-8.14861e-08
-7.85426e-08
-7.27874e-08
-6.18972e-08
-6.37786e-08
-4.73312e-08
-5.45745e-08
-3.48595e-08
-4.53134e-08
-2.44653e-08
-3.61641e-08
-1.60965e-08
-2.73328e-08
-9.66244e-09
-1.90741e-08
-5.03118e-09
-1.17034e-08
-2.02818e-09
-5.61038e-09
-4.36477e-10
-1.27671e-09
6.60412e-10
-1.27507e-10
-4.69961e-10
-6.24581e-10
-1.38139e-10
-1.58476e-09
1.14646e-09
-3.08131e-09
3.13901e-09
-5.16926e-09
5.64742e-09
-7.88709e-09
8.51237e-09
-1.12585e-08
1.1603e-08
-1.52941e-08
1.48134e-08
-1.99935e-08
1.8059e-08
-2.53468e-08
2.12732e-08
-3.1336e-08
2.44044e-08
-3.79373e-08
2.74136e-08
-4.51216e-08
3.02726e-08
-5.28567e-08
3.29617e-08
-6.11077e-08
3.54684e-08
-6.98381e-08
3.77862e-08
-7.90111e-08
3.99133e-08
-8.85899e-08
4.18516e-08
-9.85382e-08
4.36061e-08
-1.08821e-07
4.51842e-08
-1.19405e-07
4.65947e-08
-1.30258e-07
4.78481e-08
-1.4135e-07
4.89554e-08
-1.52655e-07
4.99283e-08
-1.64145e-07
5.07786e-08
-1.75799e-07
5.15182e-08
-1.87595e-07
5.21588e-08
-1.99515e-07
5.27117e-08
-2.11541e-07
5.31879e-08
-2.2366e-07
5.35978e-08
-2.3586e-07
5.39512e-08
-2.48128e-07
5.42573e-08
-2.60457e-07
5.45248e-08
-2.72839e-07
5.47614e-08
-2.85269e-07
5.49745e-08
-2.97742e-07
5.51706e-08
-3.10255e-07
5.53559e-08
-3.22805e-07
5.55357e-08
-3.35393e-07
5.57149e-08
-3.48019e-07
5.58977e-08
-3.60682e-07
5.6088e-08
-3.73385e-07
5.62891e-08
-3.8613e-07
5.65039e-08
-3.98919e-07
5.67348e-08
-4.11756e-07
5.6984e-08
-4.24645e-07
5.72531e-08
-4.37589e-07
5.75436e-08
-4.50592e-07
5.78565e-08
-4.63659e-07
5.81926e-08
-4.76795e-07
5.85523e-08
-4.90003e-07
5.89359e-08
-5.03288e-07
5.93434e-08
-5.16655e-07
5.97745e-08