/*--------------------------------*- C++ -*----------------------------------*\
  =========                 |
  \\      /  F ield         | OpenFOAM: The Open Source CFD Toolbox
   \\    /   O peration     | Website:  https://openfoam.org
    \\  /    A nd           | Version:  7
     \\/     M anipulation  |
\*---------------------------------------------------------------------------*/
FoamFile
{
    version     2.0;
    format      ascii;
    class       volVectorField;
    location    "0.3625";
    object      U;
}
// * * * * * * * * * * * * * * * * * * * * * * * * * * * * * * * * * * * * * //

dimensions      [0 1 -1 0 0 0 0];

internalField   nonuniform List<vector> 
12800
(
(3.17754e-06 -3.38348e-06 0)
(1.80988e-05 -9.79013e-06 0)
(4.41294e-05 -1.20332e-05 0)
(7.04709e-05 -1.11028e-05 0)
(9.05529e-05 -8.42128e-06 0)
(0.000101027 -4.85092e-06 0)
(0.000100101 -8.9403e-07 0)
(8.69337e-05 3.15956e-06 0)
(6.13252e-05 7.13877e-06 0)
(2.34836e-05 1.0944e-05 0)
(-2.61195e-05 1.45167e-05 0)
(-8.68448e-05 1.78284e-05 0)
(-0.000157952 2.08657e-05 0)
(-0.000238648 2.36261e-05 0)
(-0.000328119 2.61126e-05 0)
(-0.000425552 2.83352e-05 0)
(-0.000530154 3.03078e-05 0)
(-0.000641162 3.20456e-05 0)
(-0.000757857 3.35643e-05 0)
(-0.000879562 3.48815e-05 0)
(-0.00100565 3.60162e-05 0)
(-0.00113555 3.69864e-05 0)
(-0.00126874 3.78087e-05 0)
(-0.00140475 3.84994e-05 0)
(-0.00154315 3.90748e-05 0)
(-0.00168359 3.95507e-05 0)
(-0.00182573 3.99411e-05 0)
(-0.0019693 4.02588e-05 0)
(-0.00211405 4.05162e-05 0)
(-0.00225979 4.07242e-05 0)
(-0.00240636 4.08931e-05 0)
(-0.00255362 4.10323e-05 0)
(-0.00270147 4.11504e-05 0)
(-0.00284983 4.12547e-05 0)
(-0.00299865 4.13515e-05 0)
(-0.00314791 4.14466e-05 0)
(-0.0032976 4.15452e-05 0)
(-0.00344771 4.16519e-05 0)
(-0.00359828 4.17705e-05 0)
(-0.00374933 4.19045e-05 0)
(-0.00390092 4.20568e-05 0)
(-0.0040531 4.22297e-05 0)
(-0.00420593 4.2425e-05 0)
(-0.00435949 4.26446e-05 0)
(-0.00451386 4.28898e-05 0)
(-0.0046691 4.3162e-05 0)
(-0.00482532 4.34621e-05 0)
(-0.0049826 4.37906e-05 0)
(-0.00514103 4.41478e-05 0)
(-0.00530071 4.4534e-05 0)
(-0.00546173 4.49493e-05 0)
(-0.00562417 4.5394e-05 0)
(-0.00578815 4.58677e-05 0)
(-0.00595374 4.63701e-05 0)
(-0.00612104 4.69007e-05 0)
(-0.00629014 4.74589e-05 0)
(-0.00646112 4.80438e-05 0)
(-0.00663407 4.86545e-05 0)
(-0.00680906 4.929e-05 0)
(-0.00698618 4.9949e-05 0)
(-0.00716548 5.063e-05 0)
(-0.00734704 5.13314e-05 0)
(-0.00753091 5.20514e-05 0)
(-0.00771714 5.2788e-05 0)
(-0.00790577 5.35388e-05 0)
(-0.00809684 5.43015e-05 0)
(-0.00829036 5.5073e-05 0)
(-0.00848635 5.58504e-05 0)
(-0.00868481 5.66301e-05 0)
(-0.00888572 5.74085e-05 0)
(-0.00908906 5.81815e-05 0)
(-0.00929478 5.89447e-05 0)
(-0.00950283 5.96935e-05 0)
(-0.00971313 6.04227e-05 0)
(-0.00992558 6.11267e-05 0)
(-0.0101401 6.17994e-05 0)
(-0.0103564 6.24347e-05 0)
(-0.0105746 6.30255e-05 0)
(-0.0107942 6.35646e-05 0)
(-0.0110153 6.40442e-05 0)
(-0.0112374 6.44562e-05 0)
(-0.0114603 6.47917e-05 0)
(-0.0116838 6.50416e-05 0)
(-0.0119074 6.51961e-05 0)
(-0.012131 6.52451e-05 0)
(-0.0123539 6.5178e-05 0)
(-0.0125758 6.49839e-05 0)
(-0.0127963 6.46512e-05 0)
(-0.0130148 6.41682e-05 0)
(-0.0132307 6.35226e-05 0)
(-0.0134435 6.27019e-05 0)
(-0.0136525 6.16935e-05 0)
(-0.0138571 6.04845e-05 0)
(-0.0140566 5.90621e-05 0)
(-0.0142501 5.74131e-05 0)
(-0.014437 5.55246e-05 0)
(-0.0146162 5.3384e-05 0)
(-0.0147871 5.09789e-05 0)
(-0.0149486 4.82976e-05 0)
(-0.0150999 4.5329e-05 0)
(-0.0152399 4.20625e-05 0)
(-0.0153677 3.84887e-05 0)
(-0.0154821 3.45992e-05 0)
(-0.0155822 3.03874e-05 0)
(-0.0156669 2.58482e-05 0)
(-0.0157351 2.09781e-05 0)
(-0.0157857 1.57759e-05 0)
(-0.0158177 1.02426e-05 0)
(-0.01583 4.38181e-06 0)
(-0.0158216 -1.79952e-06 0)
(-0.0157915 -8.29212e-06 0)
(-0.0157387 -1.5083e-05 0)
(-0.0156623 -2.21555e-05 0)
(-0.0155614 -2.94897e-05 0)
(-0.0154354 -3.70613e-05 0)
(-0.0152835 -4.4842e-05 0)
(-0.0151052 -5.27993e-05 0)
(-0.0149 -6.08964e-05 0)
(-0.0146676 -6.90924e-05 0)
(-0.0144078 -7.73422e-05 0)
(-0.0141206 -8.55966e-05 0)
(-0.0138062 -9.38021e-05 0)
(-0.0134649 -0.000101902 0)
(-0.0130972 -0.000109836 0)
(-0.0127038 -0.000117541 0)
(-0.0122856 -0.000124951 0)
(-0.0118438 -0.000132 0)
(-0.0113798 -0.000138619 0)
(-0.010895 -0.000144739 0)
(-0.0103914 -0.000150292 0)
(-0.00987079 -0.00015521 0)
(-0.00933554 -0.000159428 0)
(-0.00878801 -0.000162884 0)
(-0.00823081 -0.000165521 0)
(-0.00766673 -0.000167284 0)
(-0.00709869 -0.000168126 0)
(-0.00652977 -0.000168005 0)
(-0.00596318 -0.000166886 0)
(-0.00540219 -0.000164744 0)
(-0.00485017 -0.000161559 0)
(-0.00431051 -0.000157321 0)
(-0.00378663 -0.000152027 0)
(-0.00328193 -0.000145682 0)
(-0.00279977 -0.000138302 0)
(-0.00234343 -0.000129907 0)
(-0.0019161 -0.000120527 0)
(-0.00152083 -0.000110197 0)
(-0.00116054 -9.89602e-05 0)
(-0.000837903 -8.68658e-05 0)
(-0.000555404 -7.39728e-05 0)
(-0.000315216 -6.03537e-05 0)
(-0.000119152 -4.61039e-05 0)
(3.14529e-05 -3.13614e-05 0)
(0.000135941 -1.63437e-05 0)
(0.000194658 -1.429e-06 0)
(0.000209514 1.26865e-05 0)
(0.000184837 2.47214e-05 0)
(0.000129252 3.22062e-05 0)
(6.14824e-05 3.05416e-05 0)
(1.39009e-05 1.39222e-05 0)
(9.72894e-06 -1.85328e-05 0)
(4.17787e-05 -4.19148e-05 0)
(8.84229e-05 -4.80649e-05 0)
(0.00013099 -4.11621e-05 0)
(0.000156972 -2.59498e-05 0)
(0.000158983 -5.81608e-06 0)
(0.000132412 1.6959e-05 0)
(7.46737e-05 4.08468e-05 0)
(-1.52782e-05 6.48288e-05 0)
(-0.000137382 8.82368e-05 0)
(-0.000290814 0.00011063 0)
(-0.000474234 0.000131733 0)
(-0.000685953 0.000151381 0)
(-0.000924071 0.000169486 0)
(-0.00118657 0.000186019 0)
(-0.00147139 0.000200994 0)
(-0.00177647 0.000214456 0)
(-0.00209982 0.00022647 0)
(-0.00243952 0.000237115 0)
(-0.00279375 0.000246481 0)
(-0.00316081 0.000254668 0)
(-0.00353911 0.000261776 0)
(-0.00392722 0.000267903 0)
(-0.00432383 0.00027315 0)
(-0.00472774 0.000277614 0)
(-0.00513792 0.00028139 0)
(-0.00555341 0.000284566 0)
(-0.00597343 0.000287225 0)
(-0.00639726 0.000289446 0)
(-0.00682431 0.000291302 0)
(-0.00725409 0.00029286 0)
(-0.0076862 0.000294182 0)
(-0.0081203 0.000295323 0)
(-0.00855617 0.000296335 0)
(-0.00899361 0.000297262 0)
(-0.00943252 0.000298145 0)
(-0.00987283 0.000299021 0)
(-0.0103145 0.000299922 0)
(-0.0107577 0.000300874 0)
(-0.0112023 0.000301904 0)
(-0.0116486 0.000303032 0)
(-0.0120966 0.000304276 0)
(-0.0125465 0.000305652 0)
(-0.0129985 0.000307172 0)
(-0.0134527 0.000308847 0)
(-0.0139095 0.000310687 0)
(-0.014369 0.000312699 0)
(-0.0148315 0.000314887 0)
(-0.0152972 0.000317255 0)
(-0.0157664 0.000319806 0)
(-0.0162392 0.00032254 0)
(-0.016716 0.000325459 0)
(-0.0171971 0.00032856 0)
(-0.0176826 0.000331841 0)
(-0.0181728 0.000335299 0)
(-0.0186679 0.000338927 0)
(-0.0191682 0.000342721 0)
(-0.0196739 0.000346673 0)
(-0.0201852 0.000350775 0)
(-0.0207023 0.000355018 0)
(-0.0212253 0.000359389 0)
(-0.0217545 0.000363877 0)
(-0.0222899 0.000368467 0)
(-0.0228317 0.000373144 0)
(-0.02338 0.000377891 0)
(-0.0239348 0.000382689 0)
(-0.0244962 0.000387518 0)
(-0.0250641 0.000392353 0)
(-0.0256386 0.000397171 0)
(-0.0262196 0.000401944 0)
(-0.026807 0.000406643 0)
(-0.0274005 0.000411236 0)
(-0.028 0.000415689 0)
(-0.0286053 0.000419966 0)
(-0.029216 0.000424028 0)
(-0.0298317 0.000427831 0)
(-0.0304521 0.000431333 0)
(-0.0310766 0.000434484 0)
(-0.0317046 0.000437235 0)
(-0.0323355 0.000439532 0)
(-0.0329686 0.000441319 0)
(-0.033603 0.000442536 0)
(-0.0342379 0.000443123 0)
(-0.0348722 0.000443013 0)
(-0.035505 0.000442139 0)
(-0.0361349 0.000440431 0)
(-0.0367608 0.000437817 0)
(-0.0373813 0.000434221 0)
(-0.0379948 0.000429567 0)
(-0.0385998 0.000423776 0)
(-0.0391946 0.000416769 0)
(-0.0397773 0.000408465 0)
(-0.0403461 0.000398783 0)
(-0.0408988 0.000387643 0)
(-0.0414334 0.000374964 0)
(-0.0419476 0.000360668 0)
(-0.042439 0.000344678 0)
(-0.0429052 0.000326921 0)
(-0.0433436 0.000307328 0)
(-0.0437517 0.000285836 0)
(-0.0441266 0.000262385 0)
(-0.0444656 0.000236925 0)
(-0.0447659 0.000209414 0)
(-0.0450245 0.000179819 0)
(-0.0452386 0.000148119 0)
(-0.0454053 0.000114307 0)
(-0.0455215 7.83859e-05 0)
(-0.0455846 4.03783e-05 0)
(-0.0455915 3.21554e-07 0)
(-0.0455396 -4.17274e-05 0)
(-0.0454262 -8.56926e-05 0)
(-0.0452487 -0.000131477 0)
(-0.0450049 -0.00017896 0)
(-0.0446925 -0.000227999 0)
(-0.0443096 -0.000278427 0)
(-0.0438545 -0.00033005 0)
(-0.0433259 -0.000382651 0)
(-0.0427225 -0.000435985 0)
(-0.0420439 -0.000489783 0)
(-0.0412896 -0.000543749 0)
(-0.0404597 -0.000597565 0)
(-0.0395549 -0.00065089 0)
(-0.0385761 -0.000703359 0)
(-0.0375251 -0.000754592 0)
(-0.0364038 -0.000804188 0)
(-0.035215 -0.000851738 0)
(-0.033962 -0.000896821 0)
(-0.0326485 -0.00093901 0)
(-0.0312789 -0.000977877 0)
(-0.0298582 -0.001013 0)
(-0.028392 -0.00104396 0)
(-0.0268864 -0.00107037 0)
(-0.025348 -0.00109183 0)
(-0.0237839 -0.001108 0)
(-0.0222018 -0.00111855 0)
(-0.0206096 -0.00112318 0)
(-0.0190157 -0.00112166 0)
(-0.0174288 -0.00111376 0)
(-0.0158578 -0.00109934 0)
(-0.0143118 -0.00107828 0)
(-0.0128 -0.00105054 0)
(-0.0113316 -0.00101612 0)
(-0.00991571 -0.000975063 0)
(-0.00856146 -0.000927497 0)
(-0.0072776 -0.000873594 0)
(-0.00607262 -0.000813585 0)
(-0.00495461 -0.000747765 0)
(-0.00393114 -0.000676499 0)
(-0.00300915 -0.000600228 0)
(-0.00219482 -0.000519497 0)
(-0.00149336 -0.000434987 0)
(-0.000908759 -0.000347581 0)
(-0.000443435 -0.00025848 0)
(-9.76948e-05 -0.000169388 0)
(0.000131067 -8.28545e-05 0)
(0.000249568 -2.82814e-06 0)
(0.000270124 6.44407e-05 0)
(0.00021313 0.000108928 0)
(0.00011456 0.000114813 0)
(3.03562e-05 6.13611e-05 0)
(1.20897e-05 -4.44656e-05 0)
(4.82777e-05 -8.86339e-05 0)
(9.52898e-05 -9.49859e-05 0)
(0.000130341 -7.32337e-05 0)
(0.000138239 -3.2252e-05 0)
(0.000109528 2.10345e-05 0)
(3.78879e-05 8.15014e-05 0)
(-8.0494e-05 0.000145445 0)
(-0.00024737 0.000210247 0)
(-0.00046295 0.000274071 0)
(-0.000726313 0.000335645 0)
(-0.00103572 0.000394121 0)
(-0.00138886 0.000448952 0)
(-0.00178305 0.000499815 0)
(-0.00221539 0.00054656 0)
(-0.00268285 0.000589162 0)
(-0.0031824 0.00062769 0)
(-0.00371102 0.000662278 0)
(-0.00426582 0.000693112 0)
(-0.00484402 0.000720416 0)
(-0.00544299 0.000744434 0)
(-0.00606031 0.000765425 0)
(-0.0066937 0.000783653 0)
(-0.00734112 0.000799383 0)
(-0.00800069 0.000812878 0)
(-0.00867074 0.00082439 0)
(-0.00934978 0.000834165 0)
(-0.0100365 0.000842433 0)
(-0.0107298 0.000849413 0)
(-0.0114287 0.000855309 0)
(-0.0121323 0.000860308 0)
(-0.01284 0.000864586 0)
(-0.0135512 0.000868301 0)
(-0.0142656 0.000871599 0)
(-0.0149828 0.000874609 0)
(-0.0157025 0.00087745 0)
(-0.0164247 0.000880225 0)
(-0.0171493 0.000883029 0)
(-0.0178763 0.000885944 0)
(-0.0186058 0.000889041 0)
(-0.019338 0.000892384 0)
(-0.020073 0.000896027 0)
(-0.0208111 0.000900016 0)
(-0.0215525 0.000904389 0)
(-0.0222975 0.00090918 0)
(-0.0230465 0.000914416 0)
(-0.0237998 0.000920118 0)
(-0.0245577 0.000926301 0)
(-0.0253206 0.00093298 0)
(-0.026089 0.000940159 0)
(-0.0268631 0.000947844 0)
(-0.0276433 0.000956033 0)
(-0.0284301 0.000964724 0)
(-0.0292238 0.000973907 0)
(-0.0300248 0.000983572 0)
(-0.0308334 0.000993705 0)
(-0.03165 0.00100429 0)
(-0.032475 0.0010153 0)
(-0.0333085 0.00102671 0)
(-0.0341509 0.00103849 0)
(-0.0350025 0.00105062 0)
(-0.0358635 0.00106304 0)
(-0.0367341 0.00107573 0)
(-0.0376143 0.00108862 0)
(-0.0385045 0.00110168 0)
(-0.0394045 0.00111484 0)
(-0.0403145 0.00112805 0)
(-0.0412344 0.00114123 0)
(-0.0421641 0.00115431 0)
(-0.0431035 0.00116721 0)
(-0.0440523 0.00117984 0)
(-0.0450102 0.00119212 0)
(-0.0459769 0.00120393 0)
(-0.0469519 0.00121518 0)
(-0.0479346 0.00122575 0)
(-0.0489244 0.00123552 0)
(-0.0499206 0.00124435 0)
(-0.0509223 0.00125212 0)
(-0.0519285 0.00125867 0)
(-0.0529381 0.00126385 0)
(-0.05395 0.0012675 0)
(-0.0549627 0.00126945 0)
(-0.0559748 0.00126953 0)
(-0.0569847 0.00126754 0)
(-0.0579905 0.0012633 0)
(-0.0589905 0.00125661 0)
(-0.0599824 0.00124727 0)
(-0.0609641 0.00123507 0)
(-0.061933 0.00121979 0)
(-0.0628868 0.00120121 0)
(-0.0638225 0.00117911 0)
(-0.0647374 0.00115328 0)
(-0.0656283 0.00112348 0)
(-0.0664919 0.0010895 0)
(-0.0673249 0.00105112 0)
(-0.0681237 0.00100813 0)
(-0.0688846 0.00096033 0)
(-0.0696036 0.000907515 0)
(-0.0702768 0.000849507 0)
(-0.0709001 0.000786141 0)
(-0.0714691 0.000717267 0)
(-0.0719796 0.000642759 0)
(-0.0724272 0.000562515 0)
(-0.0728074 0.000476463 0)
(-0.0731156 0.00038456 0)
(-0.0733474 0.000286802 0)
(-0.0734984 0.000183224 0)
(-0.0735641 7.39054e-05 0)
(-0.0735402 -4.10287e-05 0)
(-0.0734225 -0.0001614 0)
(-0.0732071 -0.000286977 0)
(-0.0728901 -0.000417467 0)
(-0.0724681 -0.000552519 0)
(-0.0719378 -0.000691715 0)
(-0.0712963 -0.000834572 0)
(-0.0705414 -0.00098054 0)
(-0.0696708 -0.001129 0)
(-0.0686834 -0.00127926 0)
(-0.067578 -0.00143055 0)
(-0.0663545 -0.00158207 0)
(-0.0650133 -0.00173292 0)
(-0.0635553 -0.00188214 0)
(-0.0619826 -0.00202873 0)
(-0.0602977 -0.00217164 0)
(-0.058504 -0.00230978 0)
(-0.0566059 -0.002442 0)
(-0.0546085 -0.00256716 0)
(-0.0525179 -0.0026841 0)
(-0.050341 -0.00279163 0)
(-0.0480855 -0.00288862 0)
(-0.0457603 -0.00297394 0)
(-0.0433747 -0.00304648 0)
(-0.040939 -0.00310524 0)
(-0.0384643 -0.00314922 0)
(-0.0359623 -0.00317757 0)
(-0.0334454 -0.00318949 0)
(-0.0309265 -0.00318431 0)
(-0.0284189 -0.00316148 0)
(-0.0259363 -0.00312058 0)
(-0.0234927 -0.00306133 0)
(-0.0211022 -0.00298361 0)
(-0.0187789 -0.00288744 0)
(-0.0165368 -0.00277302 0)
(-0.0143898 -0.0026407 0)
(-0.0123512 -0.00249101 0)
(-0.0104338 -0.00232467 0)
(-0.00865 -0.00214259 0)
(-0.00701097 -0.00194589 0)
(-0.00552703 -0.00173597 0)
(-0.00420712 -0.00151455 0)
(-0.00305858 -0.00128377 0)
(-0.00208672 -0.00104638 0)
(-0.00129432 -0.000806007 0)
(-0.000680854 -0.000567597 0)
(-0.000241511 -0.000338072 0)
(3.41661e-05 -0.000127355 0)
(0.000163794 5.0121e-05 0)
(0.00017428 0.000173519 0)
(0.000108779 0.000213277 0)
(3.18943e-05 0.000128718 0)
(1.13202e-05 -7.10761e-05 0)
(4.17928e-05 -0.000131527 0)
(7.40532e-05 -0.000130145 0)
(8.4173e-05 -8.34889e-05 0)
(5.60227e-05 -4.97748e-06 0)
(-2.08024e-05 9.46608e-05 0)
(-0.000153451 0.000207141 0)
(-0.000346357 0.00032625 0)
(-0.000601685 0.0004474 0)
(-0.000919816 0.000567253 0)
(-0.00129976 0.000683429 0)
(-0.00173951 0.000794271 0)
(-0.00223633 0.000898669 0)
(-0.00278696 0.000995936 0)
(-0.00338782 0.00108571 0)
(-0.00403514 0.00116786 0)
(-0.00472509 0.00124246 0)
(-0.00545386 0.0013097 0)
(-0.00621774 0.00136989 0)
(-0.00701314 0.00142342 0)
(-0.00783667 0.00147071 0)
(-0.00868515 0.00151223 0)
(-0.00955562 0.00154845 0)
(-0.0104454 0.00157986 0)
(-0.0113519 0.00160695 0)
(-0.012273 0.0016302 0)
(-0.0132067 0.00165005 0)
(-0.0141512 0.00166694 0)
(-0.015105 0.0016813 0)
(-0.0160668 0.0016935 0)
(-0.0170353 0.0017039 0)
(-0.0180098 0.00171285 0)
(-0.0189893 0.00172064 0)
(-0.0199734 0.00172756 0)
(-0.0209614 0.00173387 0)
(-0.0219532 0.00173978 0)
(-0.0229485 0.0017455 0)
(-0.0239472 0.00175123 0)
(-0.0249493 0.00175711 0)
(-0.0259548 0.0017633 0)
(-0.0269639 0.00176991 0)
(-0.0279769 0.00177706 0)
(-0.0289939 0.00178483 0)
(-0.0300154 0.00179331 0)
(-0.0310417 0.00180256 0)
(-0.0320732 0.00181264 0)
(-0.0331104 0.00182358 0)
(-0.0341536 0.00183543 0)
(-0.0352034 0.0018482 0)
(-0.0362602 0.00186191 0)
(-0.0373246 0.00187657 0)
(-0.0383969 0.00189218 0)
(-0.0394778 0.00190872 0)
(-0.0405676 0.00192619 0)
(-0.0416669 0.00194457 0)
(-0.0427761 0.00196381 0)
(-0.0438956 0.00198389 0)
(-0.0450259 0.00200476 0)
(-0.0461673 0.00202637 0)
(-0.0473201 0.00204866 0)
(-0.0484848 0.00207157 0)
(-0.0496615 0.00209501 0)
(-0.0508505 0.0021189 0)
(-0.0520519 0.00214315 0)
(-0.0532659 0.00216765 0)
(-0.0544926 0.00219229 0)
(-0.0557318 0.00221696 0)
(-0.0569835 0.0022415 0)
(-0.0582475 0.00226577 0)
(-0.0595236 0.00228962 0)
(-0.0608113 0.00231288 0)
(-0.0621104 0.00233535 0)
(-0.0634201 0.00235685 0)
(-0.0647398 0.00237716 0)
(-0.0660687 0.00239606 0)
(-0.0674059 0.0024133 0)
(-0.0687502 0.00242864 0)
(-0.0701006 0.0024418 0)
(-0.0714555 0.0024525 0)
(-0.0728135 0.00246044 0)
(-0.0741729 0.00246532 0)
(-0.0755318 0.00246679 0)
(-0.0768882 0.00246453 0)
(-0.0782398 0.00245817 0)
(-0.0795841 0.00244735 0)
(-0.0809185 0.00243168 0)
(-0.0822403 0.00241079 0)
(-0.0835462 0.00238426 0)
(-0.0848332 0.00235169 0)
(-0.0860976 0.00231267 0)
(-0.0873357 0.00226679 0)
(-0.0885437 0.00221361 0)
(-0.0897174 0.00215273 0)
(-0.0908525 0.00208372 0)
(-0.0919443 0.0020062 0)
(-0.0929882 0.00191977 0)
(-0.0939791 0.00182404 0)
(-0.0949121 0.00171867 0)
(-0.0957816 0.00160332 0)
(-0.0965824 0.0014777 0)
(-0.0973088 0.00134155 0)
(-0.0979552 0.00119463 0)
(-0.0985157 0.0010368 0)
(-0.0989847 0.000867924 0)
(-0.0993561 0.000687958 0)
(-0.0996242 0.000496918 0)
(-0.0997833 0.0002949 0)
(-0.0998277 8.20811e-05 0)
(-0.0997518 -0.00014127 0)
(-0.0995503 -0.000374786 0)
(-0.0992181 -0.000617998 0)
(-0.0987505 -0.000870325 0)
(-0.0981431 -0.00113107 0)
(-0.0973918 -0.00139942 0)
(-0.0964932 -0.00167444 0)
(-0.0954442 -0.00195505 0)
(-0.0942426 -0.00224006 0)
(-0.0928866 -0.00252815 0)
(-0.0913753 -0.00281788 0)
(-0.0897087 -0.00310767 0)
(-0.0878874 -0.00339582 0)
(-0.085913 -0.00368055 0)
(-0.0837883 -0.00395995 0)
(-0.0815168 -0.00423203 0)
(-0.0791032 -0.00449472 0)
(-0.0765534 -0.00474591 0)
(-0.0738742 -0.00498342 0)
(-0.0710736 -0.00520508 0)
(-0.0681608 -0.00540869 0)
(-0.065146 -0.00559211 0)
(-0.0620407 -0.00575322 0)
(-0.0588571 -0.00589 0)
(-0.0556088 -0.00600051 0)
(-0.0523102 -0.00608297 0)
(-0.0489764 -0.00613573 0)
(-0.0456236 -0.00615734 0)
(-0.0422685 -0.00614654 0)
(-0.0389285 -0.00610232 0)
(-0.0356212 -0.00602392 0)
(-0.0323648 -0.00591082 0)
(-0.0291775 -0.00576283 0)
(-0.0260776 -0.00558002 0)
(-0.0230832 -0.00536281 0)
(-0.020212 -0.00511191 0)
(-0.0174812 -0.00482841 0)
(-0.0149074 -0.00451375 0)
(-0.0125062 -0.00416976 0)
(-0.0102918 -0.00379875 0)
(-0.00827711 -0.00340352 0)
(-0.00647334 -0.00298755 0)
(-0.00488934 -0.00255516 0)
(-0.00353135 -0.00211179 0)
(-0.00240228 -0.00166447 0)
(-0.00150098 -0.00122244 0)
(-0.000821151 -0.000798143 0)
(-0.000350161 -0.000408569 0)
(-6.76297e-05 -7.71603e-05 0)
(5.63004e-05 0.000164016 0)
(6.60752e-05 0.000271568 0)
(2.45717e-05 0.000184165 0)
(8.76995e-06 -9.16597e-05 0)
(2.67823e-05 -0.000157926 0)
(3.28839e-05 -0.000137999 0)
(4.66168e-06 -5.51979e-05 0)
(-7.36139e-05 7.244e-05 0)
(-0.000212512 0.000230393 0)
(-0.000419335 0.000407225 0)
(-0.000698651 0.000594128 0)
(-0.00105271 0.000784421 0)
(-0.00148187 0.000973116 0)
(-0.00198502 0.00115656 0)
(-0.00255991 0.00133213 0)
(-0.00320344 0.00149804 0)
(-0.0039119 0.00165313 0)
(-0.00468117 0.00179674 0)
(-0.00550688 0.00192859 0)
(-0.00638458 0.0020487 0)
(-0.0073098 0.00215733 0)
(-0.00827813 0.0022549 0)
(-0.00928534 0.00234196 0)
(-0.0103274 0.00241914 0)
(-0.0114004 0.00248714 0)
(-0.0125009 0.0025467 0)
(-0.0136256 0.00259856 0)
(-0.0147714 0.00264346 0)
(-0.0159356 0.00268216 0)
(-0.0171159 0.00271535 0)
(-0.0183099 0.00274374 0)
(-0.0195158 0.00276797 0)
(-0.0207319 0.00278865 0)
(-0.0219569 0.00280637 0)
(-0.0231895 0.00282165 0)
(-0.0244287 0.00283499 0)
(-0.0256737 0.00284684 0)
(-0.0269241 0.0028576 0)
(-0.0281791 0.00286764 0)
(-0.0294387 0.00287731 0)
(-0.0307026 0.00288689 0)
(-0.0319707 0.00289666 0)
(-0.0332432 0.00290684 0)
(-0.0345201 0.00291764 0)
(-0.0358017 0.00292924 0)
(-0.0370883 0.00294178 0)
(-0.0383803 0.00295541 0)
(-0.0396781 0.00297022 0)
(-0.0409821 0.00298631 0)
(-0.0422928 0.00300376 0)
(-0.0436109 0.00302261 0)
(-0.0449367 0.0030429 0)
(-0.0462709 0.00306467 0)
(-0.0476141 0.00308792 0)
(-0.0489669 0.00311265 0)
(-0.0503297 0.00313885 0)
(-0.0517032 0.0031665 0)
(-0.0530878 0.00319555 0)
(-0.0544843 0.00322596 0)
(-0.0558929 0.00325767 0)
(-0.0573143 0.00329059 0)
(-0.0587488 0.00332465 0)
(-0.0601968 0.00335974 0)
(-0.0616587 0.00339575 0)
(-0.0631348 0.00343256 0)
(-0.0646252 0.00347002 0)
(-0.0661302 0.00350798 0)
(-0.0676499 0.00354626 0)
(-0.0691842 0.00358467 0)
(-0.070733 0.00362301 0)
(-0.0722963 0.00366106 0)
(-0.0738737 0.00369858 0)
(-0.0754648 0.00373529 0)
(-0.0770691 0.00377092 0)
(-0.0786861 0.00380518 0)
(-0.0803148 0.00383772 0)
(-0.0819545 0.00386821 0)
(-0.083604 0.00389629 0)
(-0.0852621 0.00392155 0)
(-0.0869275 0.00394359 0)
(-0.0885985 0.00396197 0)
(-0.0902734 0.00397624 0)
(-0.0919502 0.0039859 0)
(-0.0936268 0.00399046 0)
(-0.0953007 0.00398938 0)
(-0.0969694 0.00398213 0)
(-0.09863 0.00396812 0)
(-0.100279 0.00394677 0)
(-0.101914 0.00391748 0)
(-0.103531 0.00387962 0)
(-0.105127 0.00383256 0)
(-0.106696 0.00377566 0)
(-0.108235 0.00370826 0)
(-0.109739 0.0036297 0)
(-0.111204 0.00353933 0)
(-0.112623 0.00343649 0)
(-0.113993 0.00332055 0)
(-0.115307 0.00319088 0)
(-0.116559 0.00304687 0)
(-0.117744 0.00288794 0)
(-0.118856 0.00271355 0)
(-0.119887 0.00252321 0)
(-0.120831 0.00231646 0)
(-0.121682 0.00209293 0)
(-0.122432 0.00185229 0)
(-0.123075 0.00159431 0)
(-0.123604 0.00131884 0)
(-0.124012 0.00102584 0)
(-0.124292 0.000715376 0)
(-0.124436 0.000387635 0)
(-0.124439 4.29409e-05 0)
(-0.124294 -0.000318241 0)
(-0.123995 -0.000695292 0)
(-0.123535 -0.00108743 0)
(-0.12291 -0.00149369 0)
(-0.122113 -0.00191294 0)
(-0.121141 -0.00234387 0)
(-0.11999 -0.00278494 0)
(-0.118655 -0.00323444 0)
(-0.117135 -0.00369047 0)
(-0.115428 -0.00415091 0)
(-0.113533 -0.00461346 0)
(-0.11145 -0.00507562 0)
(-0.10918 -0.00553472 0)
(-0.106726 -0.00598793 0)
(-0.10409 -0.00643223 0)
(-0.101277 -0.00686451 0)
(-0.0982942 -0.00728151 0)
(-0.0951472 -0.00767991 0)
(-0.0918449 -0.00805631 0)
(-0.0883969 -0.00840729 0)
(-0.0848145 -0.00872943 0)
(-0.0811099 -0.00901937 0)
(-0.0772968 -0.00927381 0)
(-0.0733901 -0.00948959 0)
(-0.069406 -0.00966369 0)
(-0.0653617 -0.00979333 0)
(-0.0612754 -0.00987594 0)
(-0.0571663 -0.00990926 0)
(-0.0530544 -0.00989135 0)
(-0.0489604 -0.00982062 0)
(-0.0449055 -0.00969591 0)
(-0.0409111 -0.00951645 0)
(-0.0369991 -0.00928194 0)
(-0.0331912 -0.00899257 0)
(-0.0295089 -0.00864902 0)
(-0.0259732 -0.00825252 0)
(-0.0226046 -0.00780486 0)
(-0.0194226 -0.00730842 0)
(-0.0164455 -0.00676626 0)
(-0.0136902 -0.00618217 0)
(-0.0111718 -0.00556081 0)
(-0.00890297 -0.00490788 0)
(-0.00689403 -0.00423041 0)
(-0.00515198 -0.00353714 0)
(-0.00368004 -0.00283911 0)
(-0.00247684 -0.00215046 0)
(-0.00153553 -0.0014896 0)
(-0.000842751 -0.00088079 0)
(-0.000377401 -0.000356252 0)
(-0.000109253 4.14873e-05 0)
(3.13689e-06 0.000256518 0)
(1.31764e-05 0.000210113 0)
(5.25664e-06 -0.000102699 0)
(6.35298e-06 -0.000159943 0)
(-2.19942e-05 -0.000108196 0)
(-9.87346e-05 2.3317e-05 0)
(-0.000238124 0.000212211 0)
(-0.00045026 0.000440365 0)
(-0.000742078 0.000693298 0)
(-0.00111785 0.000959657 0)
(-0.00157961 0.00123066 0)
(-0.00212748 0.00149963 0)
(-0.00276013 0.00176155 0)
(-0.00347499 0.00201277 0)
(-0.00426863 0.00225073 0)
(-0.00513692 0.00247373 0)
(-0.00607529 0.00268077 0)
(-0.00707889 0.00287135 0)
(-0.00814271 0.00304544 0)
(-0.00926173 0.00320331 0)
(-0.010431 0.0033455 0)
(-0.0116457 0.00347274 0)
(-0.0129013 0.00358586 0)
(-0.0141933 0.00368583 0)
(-0.0155177 0.00377366 0)
(-0.0168707 0.00385038 0)
(-0.0182489 0.00391704 0)
(-0.019649 0.00397468 0)
(-0.0210683 0.00402431 0)
(-0.0225041 0.0040669 0)
(-0.0239542 0.00410339 0)
(-0.0254167 0.00413464 0)
(-0.0268898 0.00416149 0)
(-0.0283722 0.0041847 0)
(-0.0298627 0.00420498 0)
(-0.0313602 0.00422298 0)
(-0.0328641 0.0042393 0)
(-0.0343737 0.00425447 0)
(-0.0358887 0.00426899 0)
(-0.0374088 0.00428328 0)
(-0.0389339 0.00429773 0)
(-0.0404641 0.0043127 0)
(-0.0419994 0.00432847 0)
(-0.0435401 0.00434531 0)
(-0.0450865 0.00436345 0)
(-0.0466391 0.00438309 0)
(-0.0481981 0.00440437 0)
(-0.0497643 0.00442744 0)
(-0.051338 0.0044524 0)
(-0.05292 0.00447934 0)
(-0.0545107 0.00450832 0)
(-0.0561109 0.00453937 0)
(-0.0577212 0.00457252 0)
(-0.0593421 0.00460775 0)
(-0.0609744 0.00464506 0)
(-0.0626186 0.0046844 0)
(-0.0642754 0.00472571 0)
(-0.0659453 0.00476892 0)
(-0.0676289 0.00481394 0)
(-0.0693267 0.00486066 0)
(-0.0710392 0.00490894 0)
(-0.0727667 0.00495863 0)
(-0.0745097 0.00500957 0)
(-0.0762684 0.00506156 0)
(-0.0780431 0.0051144 0)
(-0.0798338 0.00516784 0)
(-0.0816406 0.00522164 0)
(-0.0834635 0.0052755 0)
(-0.0853023 0.00532913 0)
(-0.0871567 0.00538218 0)
(-0.0890264 0.00543431 0)
(-0.0909108 0.00548512 0)
(-0.0928093 0.00553419 0)
(-0.094721 0.00558109 0)
(-0.0966449 0.00562533 0)
(-0.09858 0.0056664 0)
(-0.100525 0.00570376 0)
(-0.102478 0.00573686 0)
(-0.104437 0.00576506 0)
(-0.106402 0.00578776 0)
(-0.108368 0.00580426 0)
(-0.110335 0.00581387 0)
(-0.112299 0.00581586 0)
(-0.114258 0.00580947 0)
(-0.116208 0.00579389 0)
(-0.118146 0.00576831 0)
(-0.120069 0.00573189 0)
(-0.121972 0.00568374 0)
(-0.123851 0.00562299 0)
(-0.125702 0.00554872 0)
(-0.12752 0.00546002 0)
(-0.129299 0.00535595 0)
(-0.131035 0.00523558 0)
(-0.132722 0.005098 0)
(-0.134354 0.00494227 0)
(-0.135924 0.00476749 0)
(-0.137426 0.0045728 0)
(-0.138854 0.00435734 0)
(-0.1402 0.00412033 0)
(-0.141457 0.00386101 0)
(-0.142618 0.0035787 0)
(-0.143675 0.00327281 0)
(-0.144621 0.00294282 0)
(-0.145447 0.00258832 0)
(-0.146147 0.00220902 0)
(-0.146711 0.00180476 0)
(-0.147132 0.00137552 0)
(-0.147403 0.000921451 0)
(-0.147515 0.00044287 0)
(-0.147461 -5.97101e-05 0)
(-0.147233 -0.000585573 0)
(-0.146826 -0.00113378 0)
(-0.146231 -0.00170317 0)
(-0.145444 -0.00229233 0)
(-0.144458 -0.00289958 0)
(-0.143269 -0.00352301 0)
(-0.141871 -0.0041604 0)
(-0.140262 -0.00480928 0)
(-0.138439 -0.00546691 0)
(-0.1364 -0.00613024 0)
(-0.134145 -0.00679597 0)
(-0.131673 -0.00746056 0)
(-0.128986 -0.00812018 0)
(-0.126088 -0.00877078 0)
(-0.122981 -0.00940811 0)
(-0.119672 -0.0100277 0)
(-0.116167 -0.010625 0)
(-0.112475 -0.0111953 0)
(-0.108604 -0.0117338 0)
(-0.104568 -0.0122356 0)
(-0.100377 -0.0126959 0)
(-0.0960466 -0.0131099 0)
(-0.0915922 -0.0134731 0)
(-0.0870308 -0.0137809 0)
(-0.0823806 -0.0140291 0)
(-0.0776613 -0.0142138 0)
(-0.0728938 -0.0143313 0)
(-0.0680997 -0.0143785 0)
(-0.0633018 -0.0143527 0)
(-0.0585235 -0.0142515 0)
(-0.053789 -0.0140734 0)
(-0.0491228 -0.0138174 0)
(-0.0445493 -0.013483 0)
(-0.0400934 -0.0130705 0)
(-0.0357793 -0.0125811 0)
(-0.031631 -0.0120164 0)
(-0.0276716 -0.0113792 0)
(-0.0239232 -0.010673 0)
(-0.0204063 -0.00990234 0)
(-0.01714 -0.00907271 0)
(-0.0141412 -0.00819098 0)
(-0.0114242 -0.00726545 0)
(-0.00900047 -0.00630627 0)
(-0.00687788 -0.00532587 0)
(-0.00506025 -0.00433965 0)
(-0.00354659 -0.00336692 0)
(-0.00233039 -0.00243214 0)
(-0.00139882 -0.00156659 0)
(-0.000731702 -0.000810588 0)
(-0.000300424 -0.00021585 0)
(-6.95249e-05 0.000151303 0)
(2.79019e-07 0.000199452 0)
(1.23506e-06 -0.00010209 0)
(-1.74585e-05 -0.000132089 0)
(-8.60968e-05 -3.30265e-05 0)
(-0.000218914 0.000161076 0)
(-0.000427871 0.000424009 0)
(-0.000722088 0.000734365 0)
(-0.0011077 0.00107484 0)
(-0.00158833 0.00143166 0)
(-0.00216547 0.00179405 0)
(-0.00283886 0.00215362 0)
(-0.00360675 0.00250404 0)
(-0.00446621 0.00284059 0)
(-0.00541342 0.00315991 0)
(-0.00644384 0.00345972 0)
(-0.00755249 0.00373862 0)
(-0.00873405 0.0039959 0)
(-0.00998308 0.00423143 0)
(-0.0112941 0.0044455 0)
(-0.0126616 0.00463875 0)
(-0.0140803 0.00481208 0)
(-0.0155452 0.00496657 0)
(-0.0170514 0.00510343 0)
(-0.0185944 0.00522398 0)
(-0.0201699 0.00532956 0)
(-0.0217742 0.00542155 0)
(-0.0234035 0.00550132 0)
(-0.0250548 0.00557019 0)
(-0.0267251 0.00562946 0)
(-0.0284119 0.00568037 0)
(-0.030113 0.00572409 0)
(-0.0318264 0.00576173 0)
(-0.0335505 0.00579431 0)
(-0.0352839 0.00582279 0)
(-0.0370255 0.00584805 0)
(-0.0387743 0.0058709 0)
(-0.0405297 0.00589206 0)
(-0.0422912 0.00591219 0)
(-0.0440584 0.0059319 0)
(-0.0458313 0.00595171 0)
(-0.0476097 0.00597209 0)
(-0.0493938 0.00599345 0)
(-0.0511838 0.00601615 0)
(-0.05298 0.00604051 0)
(-0.0547829 0.0060668 0)
(-0.0565928 0.00609523 0)
(-0.0584104 0.00612599 0)
(-0.0602361 0.00615924 0)
(-0.0620707 0.00619508 0)
(-0.0639148 0.0062336 0)
(-0.0657691 0.00627485 0)
(-0.0676341 0.00631886 0)
(-0.0695107 0.00636562 0)
(-0.0713995 0.00641511 0)
(-0.0733012 0.00646727 0)
(-0.0752163 0.00652202 0)
(-0.0771456 0.00657925 0)
(-0.0790896 0.00663884 0)
(-0.0810488 0.00670062 0)
(-0.0830238 0.00676441 0)
(-0.0850148 0.00683001 0)
(-0.0870224 0.00689717 0)
(-0.0890467 0.00696563 0)
(-0.0910879 0.0070351 0)
(-0.0931462 0.00710524 0)
(-0.0952215 0.0071757 0)
(-0.0973136 0.00724608 0)
(-0.0994225 0.00731597 0)
(-0.101548 0.0073849 0)
(-0.103688 0.00745238 0)
(-0.105844 0.00751786 0)
(-0.108014 0.00758078 0)
(-0.110198 0.00764051 0)
(-0.112393 0.00769642 0)
(-0.114599 0.00774778 0)
(-0.116814 0.00779388 0)
(-0.119037 0.00783393 0)
(-0.121264 0.00786709 0)
(-0.123495 0.00789252 0)
(-0.125726 0.00790929 0)
(-0.127954 0.00791645 0)
(-0.130177 0.00791301 0)
(-0.132391 0.00789793 0)
(-0.134593 0.00787016 0)
(-0.136779 0.00782857 0)
(-0.138943 0.00777204 0)
(-0.141083 0.0076994 0)
(-0.143193 0.00760945 0)
(-0.145268 0.00750099 0)
(-0.147303 0.00737279 0)
(-0.149291 0.00722362 0)
(-0.151227 0.00705225 0)
(-0.153104 0.00685744 0)
(-0.154916 0.00663801 0)
(-0.156655 0.00639275 0)
(-0.158314 0.00612054 0)
(-0.159887 0.00582027 0)
(-0.161364 0.00549091 0)
(-0.162738 0.00513151 0)
(-0.164001 0.00474121 0)
(-0.165144 0.00431923 0)
(-0.166159 0.00386496 0)
(-0.167037 0.0033779 0)
(-0.167769 0.00285771 0)
(-0.168348 0.00230424 0)
(-0.168764 0.00171753 0)
(-0.169008 0.00109783 0)
(-0.169073 0.00044563 0)
(-0.16895 -0.000238321 0)
(-0.168631 -0.000953006 0)
(-0.168109 -0.00169712 0)
(-0.167376 -0.00246904 0)
(-0.166427 -0.00326684 0)
(-0.165254 -0.00408823 0)
(-0.163854 -0.00493061 0)
(-0.16222 -0.00579099 0)
(-0.16035 -0.00666604 0)
(-0.158241 -0.00755206 0)
(-0.155891 -0.008445 0)
(-0.1533 -0.00934044 0)
(-0.150468 -0.0102336 0)
(-0.147397 -0.0111195 0)
(-0.14409 -0.0119927 0)
(-0.140551 -0.0128475 0)
(-0.136788 -0.013678 0)
(-0.132808 -0.0144783 0)
(-0.128619 -0.0152419 0)
(-0.124234 -0.0159626 0)
(-0.119663 -0.016634 0)
(-0.114921 -0.0172497 0)
(-0.110025 -0.0178034 0)
(-0.10499 -0.0182889 0)
(-0.0998361 -0.0187005 0)
(-0.0945833 -0.0190324 0)
(-0.0892531 -0.0192794 0)
(-0.0838684 -0.0194369 0)
(-0.0784531 -0.0195005 0)
(-0.0730323 -0.0194668 0)
(-0.0676317 -0.0193326 0)
(-0.0622779 -0.019096 0)