/*--------------------------------*- C++ -*----------------------------------*\
  =========                 |
  \\      /  F ield         | OpenFOAM: The Open Source CFD Toolbox
   \\    /   O peration     | Website:  https://openfoam.org
    \\  /    A nd           | Version:  7
     \\/     M anipulation  |
\*---------------------------------------------------------------------------*/
FoamFile
{
    version     2.0;
    format      ascii;
    class       surfaceScalarField;
    location    "0.15";
    object      phi;
}
// * * * * * * * * * * * * * * * * * * * * * * * * * * * * * * * * * * * * * //

dimensions      [0 3 -1 0 0 0 0];

internalField   nonuniform List<scalar> 
25360
(
1.1421e-10
-1.14373e-10
3.59426e-10
-2.45217e-10
6.0397e-10
-2.44542e-10
7.64766e-10
-1.60792e-10
7.97691e-10
-3.29308e-11
6.80949e-10
1.16731e-10
4.05924e-10
2.75021e-10
-2.80518e-11
4.33978e-10
-6.1685e-10
5.88798e-10
-1.35345e-09
7.36597e-10
-2.22909e-09
8.75638e-10
-3.234e-09
1.00491e-09
-4.35788e-09
1.12388e-09
-5.5902e-09
1.23232e-09
-6.92046e-09
1.33025e-09
-8.33828e-09
1.41782e-09
-9.83357e-09
1.49528e-09
-1.13965e-08
1.56297e-09
-1.30178e-08
1.62128e-09
-1.46884e-08
1.67062e-09
-1.63999e-08
1.71146e-09
-1.81441e-08
1.74424e-09
-1.99136e-08
1.76946e-09
-2.17012e-08
1.78758e-09
-2.35003e-08
1.79907e-09
-2.53047e-08
1.80441e-09
-2.71087e-08
1.80406e-09
-2.89072e-08
1.79845e-09
-3.06952e-08
1.78805e-09
-3.24685e-08
1.77325e-09
-3.4223e-08
1.75449e-09
-3.59551e-08
1.73214e-09
-3.76617e-08
1.70657e-09
-3.93398e-08
1.67815e-09
-4.0987e-08
1.64721e-09
-4.26011e-08
1.61408e-09
-4.41802e-08
1.57906e-09
-4.57226e-08
1.54242e-09
-4.7227e-08
1.50443e-09
-4.86924e-08
1.46535e-09
-5.01178e-08
1.42539e-09
-5.15026e-08
1.38478e-09
-5.28463e-08
1.3437e-09
-5.41486e-08
1.30234e-09
-5.54095e-08
1.26086e-09
-5.66289e-08
1.2194e-09
-5.7807e-08
1.1781e-09
-5.89441e-08
1.13709e-09
-6.00405e-08
1.09645e-09
-6.10968e-08
1.0563e-09
-6.21135e-08
1.0167e-09
-6.30912e-08
9.77733e-10
-6.40307e-08
9.39449e-10
-6.49326e-08
9.01899e-10
-6.57977e-08
8.65122e-10
-6.66269e-08
8.29146e-10
-6.74209e-08
7.93991e-10
-6.81805e-08
7.5967e-10
-6.89067e-08
7.26189e-10
-6.96003e-08
6.93545e-10
-7.0262e-08
6.61731e-10
-7.08927e-08
6.30731e-10
-7.14933e-08
6.00523e-10
-7.20643e-08
5.71082e-10
-7.26067e-08
5.42378e-10
-7.31211e-08
5.14375e-10
-7.36081e-08
4.87034e-10
-7.40684e-08
4.60312e-10
-7.45026e-08
4.3416e-10
-7.49111e-08
4.08527e-10
-7.52945e-08
3.8336e-10
-7.56531e-08
3.58604e-10
-7.59873e-08
3.34199e-10
-7.62974e-08
3.10083e-10
-7.65836e-08
2.86192e-10
-7.6846e-08
2.62459e-10
-7.70849e-08
2.38817e-10
-7.73001e-08
2.15198e-10
-7.74916e-08
1.9153e-10
-7.76593e-08
1.67743e-10
-7.78031e-08
1.43764e-10
-7.79226e-08
1.19517e-10
-7.80175e-08
9.4929e-11
-7.80875e-08
6.99256e-11
-7.81319e-08
4.44335e-11
-7.81503e-08
1.83793e-11
-7.8142e-08
-8.31119e-12
-7.81063e-08
-3.57122e-11
-7.80424e-08
-6.3897e-11
-7.79494e-08
-9.29363e-11
-7.78265e-08
-1.22897e-10
-7.76727e-08
-1.53846e-10
-7.74868e-08
-1.85845e-10
-7.72679e-08
-2.18958e-10
-7.70146e-08
-2.53244e-10
-7.67259e-08
-2.88756e-10
-7.64003e-08
-3.25541e-10
-7.60367e-08
-3.63644e-10
-7.56336e-08
-4.03101e-10
-7.51897e-08
-4.43945e-10
-7.47035e-08
-4.862e-10
-7.41736e-08
-5.29885e-10
-7.35986e-08
-5.75005e-10
-7.2977e-08
-6.21561e-10
-7.23075e-08
-6.6954e-10
-7.15885e-08
-7.18917e-10
-7.08189e-08
-7.69661e-10
-6.99972e-08
-8.21723e-10
-6.91221e-08
-8.75045e-10
-6.81926e-08
-9.2955e-10
-6.72074e-08
-9.85146e-10
-6.61657e-08
-1.04173e-09
-6.50665e-08
-1.09916e-09
-6.39092e-08
-1.15732e-09
-6.26932e-08
-1.21604e-09
-6.1418e-08
-1.27514e-09
-6.00836e-08
-1.33442e-09
-5.86899e-08
-1.39366e-09
-5.72373e-08
-1.45262e-09
-5.57263e-08
-1.51103e-09
-5.41577e-08
-1.56863e-09
-5.25326e-08
-1.62509e-09
-5.08525e-08
-1.6801e-09
-4.91192e-08
-1.7333e-09
-4.73348e-08
-1.78434e-09
-4.5502e-08
-1.83281e-09
-4.36237e-08
-1.87833e-09
-4.17033e-08
-1.92045e-09
-3.97445e-08
-1.95874e-09
-3.77518e-08
-1.99273e-09
-3.57298e-08
-2.02195e-09
-3.36839e-08
-2.04593e-09
-3.16198e-08
-2.06415e-09
-2.95436e-08
-2.07611e-09
-2.74623e-08
-2.08131e-09
-2.53831e-08
-2.07922e-09
-2.33138e-08
-2.06934e-09
-2.12626e-08
-2.05115e-09
-1.92385e-08
-2.02413e-09
-1.72507e-08
-1.98781e-09
-1.5309e-08
-1.94169e-09
-1.34237e-08
-1.88533e-09
-1.16054e-08
-1.81827e-09
-9.86525e-09
-1.74014e-09
-8.21466e-09
-1.65059e-09
-6.66533e-09
-1.54932e-09
-5.22917e-09
-1.43616e-09
-3.91817e-09
-1.311e-09
-2.74424e-09
-1.17393e-09
-1.71899e-09
-1.02525e-09
-8.53371e-10
-8.65611e-10
-1.5723e-10
-6.96139e-10
3.61524e-10
-5.18754e-10
6.9814e-10
-3.36617e-10
8.53113e-10
-1.5497e-10
8.35678e-10
1.74436e-11
6.69647e-10
1.66039e-10
4.03747e-10
2.6589e-10
1.30739e-10
2.72973e-10
1.30705e-10
2.45334e-10
-3.59708e-10
6.33755e-10
-6.33646e-10
9.49628e-10
-5.60427e-10
1.04628e-09
-2.57443e-10
8.27897e-10
1.85463e-10
2.3799e-10
7.06634e-10
-7.51794e-10
1.26479e-09
-2.15047e-09
1.83264e-09
-3.9539e-09
2.39223e-09
-6.14913e-09
2.93182e-09
-8.71728e-09
3.44378e-09
-1.16357e-08
3.92328e-09
-1.48792e-08
4.3674e-09
-1.84214e-08
4.77456e-09
-2.22353e-08
5.14415e-09
-2.62937e-08
5.47621e-09
-3.05698e-08
5.77132e-09
-3.50372e-08
6.03038e-09
-3.96705e-08
6.25459e-09
-4.44452e-08
6.44531e-09
-4.93378e-08
6.60407e-09
-5.4326e-08
6.73247e-09
-5.93887e-08
6.83217e-09
-6.4506e-08
6.90487e-09
-6.96593e-08
6.9523e-09
-7.4831e-08
6.97617e-09
-8.00051e-08
6.97816e-09
-8.51667e-08
6.95996e-09
-9.03018e-08
6.92319e-09
-9.5398e-08
6.86942e-09
-1.00444e-07
6.80021e-09
-1.05429e-07
6.71702e-09
-1.10343e-07
6.62128e-09
-1.15179e-07
6.51434e-09
-1.1993e-07
6.39749e-09
-1.24588e-07
6.27195e-09
-1.29147e-07
6.13888e-09
-1.33604e-07
5.99937e-09
-1.37954e-07
5.85443e-09
-1.42194e-07
5.70503e-09
-1.46321e-07
5.55205e-09
-1.50332e-07
5.3963e-09
-1.54227e-07
5.23856e-09
-1.58004e-07
5.07951e-09
-1.61663e-07
4.91979e-09
-1.65204e-07
4.75998e-09
-1.68626e-07
4.60059e-09
-1.71931e-07
4.44211e-09
-1.7512e-07
4.28494e-09
-1.78193e-07
4.12946e-09
-1.81152e-07
3.97598e-09
-1.83999e-07
3.82477e-09
-1.86736e-07
3.67608e-09
-1.89364e-07
3.5301e-09
-1.91886e-07
3.38697e-09
-1.94304e-07
3.24684e-09
-1.96619e-07
3.10977e-09
-1.98836e-07
2.97582e-09
-2.00954e-07
2.84503e-09
-2.02978e-07
2.71738e-09
-2.04909e-07
2.59286e-09
-2.0675e-07
2.4714e-09
-2.08503e-07
2.35295e-09
-2.10169e-07
2.23739e-09
-2.11751e-07
2.12463e-09
-2.13251e-07
2.01451e-09
-2.14671e-07
1.9069e-09
-2.16012e-07
1.80164e-09
-2.17277e-07
1.69854e-09
-2.18466e-07
1.59741e-09
-2.1958e-07
1.49804e-09
-2.20622e-07
1.40023e-09
-2.21592e-07
1.30374e-09
-2.2249e-07
1.20834e-09
-2.23317e-07
1.11378e-09
-2.24075e-07
1.01982e-09
-2.24762e-07
9.26189e-10
-2.2538e-07
8.32629e-10
-2.25927e-07
7.38868e-10
-2.26404e-07
6.44632e-10
-2.2681e-07
5.49644e-10
-2.27144e-07
4.53624e-10
-2.27405e-07
3.56287e-10
-2.27593e-07
2.5735e-10
-2.27705e-07
1.56527e-10
-2.2774e-07
5.35363e-11
-2.27696e-07
-5.19014e-11
-2.27572e-07
-1.60064e-10
-2.27365e-07
-2.71224e-10
-2.27072e-07
-3.85652e-10
-2.26691e-07
-5.03607e-10
-2.2622e-07
-6.2534e-10
-2.25654e-07
-7.51091e-10
-2.24992e-07
-8.81088e-10
-2.2423e-07
-1.01555e-09
-2.23364e-07
-1.15467e-09
-2.22391e-07
-1.29863e-09
-2.21307e-07
-1.4476e-09
-2.20108e-07
-1.6017e-09
-2.18791e-07
-1.76106e-09
-2.17352e-07
-1.92575e-09
-2.15786e-07
-2.09583e-09
-2.14089e-07
-2.27133e-09
-2.12259e-07
-2.45221e-09
-2.1029e-07
-2.63844e-09
-2.08179e-07
-2.82991e-09
-2.05922e-07
-3.02647e-09
-2.03516e-07
-3.22793e-09
-2.00957e-07
-3.43406e-09
-1.98242e-07
-3.64453e-09
-1.95368e-07
-3.85901e-09
-1.92333e-07
-4.07705e-09
-1.89134e-07
-4.29819e-09
-1.85769e-07
-4.52185e-09
-1.82238e-07
-4.74742e-09
-1.78539e-07
-4.9742e-09
-1.74672e-07
-5.20142e-09
-1.70637e-07
-5.42822e-09
-1.66436e-07
-5.65368e-09
-1.6207e-07
-5.87678e-09
-1.57543e-07
-6.09645e-09
-1.52856e-07
-6.31151e-09
-1.48016e-07
-6.52072e-09
-1.43026e-07
-6.72274e-09
-1.37894e-07
-6.91617e-09
-1.32628e-07
-7.09954e-09
-1.27235e-07
-7.27129e-09
-1.21725e-07
-7.42982e-09
-1.16111e-07
-7.57343e-09
-1.10403e-07
-7.7004e-09
-1.04616e-07
-7.80894e-09
-9.87646e-08
-7.89723e-09
-9.28653e-08
-7.96339e-09
-8.69359e-08
-8.00554e-09
-8.09954e-08
-8.02178e-09
-7.50644e-08
-8.01021e-09
-6.91649e-08
-7.96892e-09
-6.332e-08
-7.89605e-09
-5.75543e-08
-7.78977e-09
-5.18938e-08
-7.6483e-09
-4.63656e-08
-7.46996e-09
-4.09977e-08
-7.25317e-09
-3.58195e-08
-6.99649e-09
-3.0861e-08
-6.69866e-09
-2.61529e-08
-6.35868e-09
-2.17264e-08
-5.97582e-09
-1.76127e-08
-5.5498e-09
-1.38429e-08
-5.08084e-09
-1.04469e-08
-4.56993e-09
-7.45312e-09
-4.01904e-09
-4.88713e-09
-3.4316e-09
-2.7702e-09
-2.81307e-09
-1.11702e-09
-2.17192e-09
6.74881e-11
-1.52113e-09
7.92955e-10
-8.80446e-10
1.09043e-09
-2.80032e-10
1.02228e-09
2.34205e-10
6.9508e-10
5.93154e-10
2.73066e-10
6.95063e-10
4.03747e-10
2.4572e-10
-6.05424e-10
5.63261e-10
-9.51187e-10
6.97491e-10
-6.94675e-10
4.74474e-10
-3.44384e-11
-2.25446e-10
8.85385e-10
-1.47814e-09
1.95933e-09
-3.32548e-09
3.11213e-09
-5.78401e-09
4.29116e-09
-8.85171e-09
5.45994e-09
-1.25133e-08
6.59339e-09
-1.67439e-08
7.67444e-09
-2.15124e-08
8.69173e-09
-2.6783e-08
9.63799e-09
-3.25173e-08
1.05089e-08
-3.86753e-08
1.13022e-08
-4.52164e-08
1.20173e-08
-5.21e-08
1.26549e-08
-5.92861e-08
1.32164e-08
-6.67354e-08
1.37039e-08
-7.441e-08
1.412e-08
-8.22736e-08
1.44676e-08
-9.02912e-08
1.47501e-08
-9.84297e-08
1.49707e-08
-1.06658e-07
1.5133e-08
-1.14946e-07
1.52405e-08
-1.23267e-07
1.52969e-08
-1.31594e-07
1.53056e-08
-1.39905e-07
1.52704e-08
-1.48176e-07
1.51945e-08
-1.56388e-07
1.50814e-08
-1.64522e-07
1.49344e-08
-1.72562e-07
1.47566e-08
-1.80492e-07
1.45512e-08
-1.88298e-07
1.4321e-08
-1.9597e-07
1.40689e-08
-2.03495e-07
1.37974e-08
-2.10865e-07
1.35092e-08
-2.18073e-07
1.32065e-08
-2.2511e-07
1.28917e-08
-2.31971e-07
1.25667e-08
-2.38653e-07
1.22336e-08
-2.45151e-07
1.18941e-08
-2.51462e-07
1.15499e-08
-2.57585e-07
1.12026e-08
-2.63519e-07
1.08535e-08
-2.69263e-07
1.05039e-08
-2.74817e-07
1.01549e-08
-2.80183e-07
9.80765e-09
-2.85361e-07
9.46301e-09
-2.90353e-07
9.12181e-09
-2.95162e-07
8.78476e-09
-2.9979e-07
8.45248e-09
-3.04239e-07
8.12549e-09
-3.08513e-07
7.80423e-09
-3.12615e-07
7.48905e-09
-3.16549e-07
7.18023e-09
-3.20317e-07
6.87797e-09
-3.23924e-07
6.58239e-09
-3.27372e-07
6.29358e-09
-3.30666e-07
6.01153e-09
-3.3381e-07
5.73618e-09
-3.36806e-07
5.46745e-09
-3.39658e-07
5.20518e-09
-3.4237e-07
4.94916e-09
-3.44944e-07
4.69915e-09
-3.47384e-07
4.45487e-09
-3.49694e-07
4.21601e-09
-3.51874e-07
3.9822e-09
-3.53929e-07
3.75306e-09
-3.55859e-07
3.52817e-09
-3.57669e-07
3.3071e-09
-3.59358e-07
3.08937e-09
-3.60928e-07
2.8745e-09
-3.62382e-07
2.66196e-09
-3.63719e-07
2.45125e-09
-3.64941e-07
2.24179e-09
-3.66048e-07
2.03304e-09
-3.6704e-07
1.82442e-09
-3.67917e-07
1.61535e-09
-3.68677e-07
1.40521e-09
-3.69321e-07
1.19342e-09
-3.69847e-07
9.79365e-10
-3.70253e-07
7.62426e-10
-3.70537e-07
5.41989e-10
-3.70698e-07
3.17438e-10
-3.70733e-07
8.81601e-11
-3.70638e-07
-1.46453e-10
-3.70412e-07
-3.87001e-10
-3.70049e-07
-6.34073e-10
-3.69546e-07
-8.88245e-10
-3.689e-07
-1.15008e-09
-3.68105e-07
-1.42012e-09
-3.67157e-07
-1.69887e-09
-3.66051e-07
-1.98684e-09
-3.64782e-07
-2.28447e-09
-3.63345e-07
-2.5922e-09
-3.61733e-07
-2.91039e-09
-3.59941e-07
-3.2394e-09
-3.57963e-07
-3.57951e-09
-3.55794e-07
-3.93094e-09
-3.53425e-07
-4.29387e-09
-3.50853e-07
-4.6684e-09
-3.4807e-07
-5.05456e-09
-3.4507e-07
-5.4523e-09
-3.41847e-07
-5.86147e-09
-3.38395e-07
-6.28185e-09
-3.34708e-07
-6.71311e-09
-3.30781e-07
-7.1548e-09
-3.26609e-07
-7.60637e-09
-3.22186e-07
-8.06715e-09
-3.17509e-07
-8.53634e-09
-3.12573e-07
-9.01299e-09
-3.07375e-07
-9.49604e-09
-3.01913e-07
-9.98426e-09
-2.96184e-07
-1.04763e-08
-2.90187e-07
-1.09705e-08
-2.83923e-07
-1.14654e-08
-2.77393e-07
-1.19589e-08
-2.70597e-07
-1.24491e-08
-2.6354e-07
-1.29338e-08
-2.56226e-07
-1.34106e-08
-2.48661e-07
-1.38769e-08
-2.40851e-07
-1.43301e-08
-2.32807e-07
-1.47672e-08
-2.24538e-07
-1.51853e-08
-2.16056e-07
-1.55811e-08
-2.07376e-07
-1.59512e-08
-1.98514e-07
-1.62922e-08
-1.89487e-07
-1.66005e-08
-1.80315e-07
-1.68723e-08
-1.7102e-07
-1.71038e-08
-1.61626e-07
-1.7291e-08
-1.5216e-07
-1.74301e-08
-1.42648e-07
-1.75169e-08
-1.33123e-07
-1.75475e-08
-1.23615e-07
-1.75177e-08
-1.1416e-07
-1.74236e-08
-1.04795e-07
-1.72613e-08
-9.55579e-08
-1.7027e-08
-8.64891e-08
-1.67171e-08
-7.7631e-08
-1.6328e-08
-6.90275e-08
-1.58567e-08
-6.07235e-08
-1.53004e-08
-5.27654e-08
-1.46568e-08
-4.52e-08
-1.39241e-08
-3.80745e-08
-1.31013e-08
-3.14357e-08
-1.21885e-08
-2.53296e-08
-1.1187e-08
-1.97998e-08
-1.00997e-08
-1.48868e-08
-8.93202e-09
-1.0626e-08
-7.69241e-09
-7.0453e-09
-6.39375e-09
-4.16212e-09
-5.05509e-09
-1.97901e-09
-3.70423e-09
-4.77936e-10
-2.38152e-09
3.87294e-10
-1.14528e-09
7.00795e-10
-7.9329e-11
5.95813e-10
6.98125e-10
2.66822e-10
1.0241e-09
6.70564e-10
1.63693e-10
-7.6912e-10
2.64612e-10
-1.05209e-09
4.40659e-11
-4.74134e-10
-6.78265e-10
6.87876e-10
-2.02909e-09
2.23621e-09
-4.09163e-09
4.02187e-09
-6.91396e-09
5.93446e-09
-1.05166e-08
7.89379e-09
-1.48988e-08
9.84217e-09
-2.00439e-08
1.17384e-08
-2.59229e-08
1.35535e-08
-3.24987e-08
1.52675e-08
-3.97276e-08
1.68669e-08
-4.75622e-08
1.83434e-08
-5.59522e-08
1.96922e-08
-6.48462e-08
2.09114e-08
-7.41924e-08
2.20011e-08
-8.39391e-08
2.29631e-08
-9.40358e-08
2.38005e-08
-1.04433e-07
2.45171e-08
-1.15083e-07
2.51176e-08
-1.2594e-07
2.56071e-08
-1.3696e-07
2.5991e-08
-1.48102e-07
2.62751e-08
-1.59327e-07
2.64654e-08
-1.70598e-07
2.65677e-08
-1.8188e-07
2.6588e-08
-1.93142e-07
2.65323e-08
-2.04354e-07
2.64065e-08
-2.15489e-07
2.62163e-08
-2.26522e-07
2.59672e-08
-2.3743e-07
2.56647e-08
-2.48193e-07
2.5314e-08
-2.58792e-07
2.49201e-08
-2.69211e-07
2.44878e-08
-2.79435e-07
2.40218e-08
-2.89452e-07
2.35262e-08
-2.99251e-07
2.30052e-08
-3.08822e-07
2.24626e-08
-3.18157e-07
2.1902e-08
-3.27251e-07
2.13269e-08
-3.36097e-07
2.07403e-08
-3.44692e-07
2.0145e-08
-3.53033e-07
1.95439e-08
-3.61119e-07
1.89393e-08
-3.68948e-07
1.83334e-08
-3.76522e-07
1.77282e-08
-3.8384e-07
1.71256e-08
-3.90904e-07
1.65272e-08
-3.97716e-07
1.59344e-08
-4.0428e-07
1.53484e-08
-4.10598e-07
1.47704e-08
-4.16674e-07
1.42012e-08
-4.22511e-07
1.36417e-08
-4.28115e-07
1.30925e-08
-4.33489e-07
1.25541e-08
-4.38637e-07
1.20268e-08
-4.43566e-07
1.15108e-08
-4.48279e-07
1.10064e-08
-4.5278e-07
1.05135e-08
-4.57076e-07
1.0032e-08
-4.61171e-07
9.56186e-09
-4.65068e-07
9.10274e-09
-4.68773e-07
8.65432e-09
-4.7229e-07
8.2162e-09
-4.75623e-07
7.78788e-09
-4.78776e-07
7.36883e-09
-4.81753e-07
6.95844e-09
-4.84556e-07
6.55605e-09
-4.87188e-07
6.16094e-09
-4.89654e-07
5.77237e-09
-4.91954e-07
5.38952e-09
-4.94091e-07
5.01155e-09
-4.96066e-07
4.63758e-09
-4.97882e-07
4.26671e-09
-4.99538e-07
3.89798e-09
-5.01035e-07
3.53043e-09
-5.02374e-07
3.16308e-09
-5.03554e-07
2.79491e-09
-5.04573e-07
2.42489e-09
-5.05432e-07
2.05199e-09
-5.06128e-07
1.67515e-09
-5.06659e-07
1.29332e-09
-5.07022e-07
9.05442e-10
-5.07215e-07
5.10458e-10
-5.07234e-07
1.07315e-10
-5.07076e-07
-3.05031e-10
-5.06735e-07
-7.2761e-10
-5.06208e-07
-1.16143e-09
-5.05488e-07
-1.60748e-09
-5.04572e-07
-2.06671e-09
-5.03452e-07
-2.54006e-09
-5.02122e-07
-3.02839e-09
-5.00577e-07
-3.53254e-09
-4.98808e-07
-4.05329e-09
-4.96809e-07
-4.59136e-09
-4.94572e-07
-5.14738e-09
-4.92089e-07
-5.72193e-09
-4.89353e-07
-6.31547e-09
-4.86356e-07
-6.92839e-09
-4.83089e-07
-7.56095e-09
-4.79544e-07
-8.21333e-09
-4.75713e-07
-8.88553e-09
-4.71588e-07
-9.57744e-09
-4.6716e-07
-1.02888e-08
-4.62423e-07
-1.10192e-08
-4.57368e-07
-1.17681e-08
-4.51988e-07
-1.25345e-08
-4.46277e-07
-1.33177e-08
-4.40228e-07
-1.41163e-08
-4.33835e-07
-1.49291e-08
-4.27094e-07
-1.57542e-08
-4.2e-07
-1.65899e-08
-4.1255e-07
-1.7434e-08
-4.04742e-07
-1.82842e-08
-3.96575e-07
-1.91377e-08
-3.88049e-07
-1.99917e-08
-3.79165e-07
-2.08429e-08
-3.69926e-07
-2.16877e-08
-3.60338e-07
-2.25225e-08
-3.50405e-07
-2.3343e-08
-3.40137e-07
-2.4145e-08
-3.29543e-07
-2.49237e-08
-3.18636e-07
-2.56742e-08
-3.0743e-07
-2.63913e-08
-2.95942e-07
-2.70695e-08
-2.8419e-07
-2.7703e-08
-2.72196e-07
-2.82859e-08
-2.59985e-07
-2.8812e-08
-2.47582e-07
-2.92749e-08
-2.35018e-07
-2.96681e-08
-2.22324e-07
-2.99849e-08
-2.09536e-07
-3.02186e-08
-1.9669e-07
-3.03624e-08
-1.83828e-07
-3.04095e-08
-1.70993e-07
-3.0353e-08
-1.5823e-07
-3.01863e-08
-1.45589e-07
-2.9903e-08
-1.33119e-07
-2.94966e-08
-1.20875e-07
-2.89613e-08
-1.08911e-07
-2.82916e-08
-9.72856e-08
-2.74824e-08
-8.60566e-08
-2.65294e-08
-7.52841e-08
-2.54293e-08
-6.50285e-08
-2.41797e-08
-5.535e-08
-2.27798e-08
-4.63083e-08
-2.12303e-08
-3.79607e-08
-1.95346e-08
-3.03615e-08
-1.76988e-08
-2.35603e-08
-1.57333e-08
-1.75992e-08
-1.36535e-08
-1.25108e-08
-1.14822e-08
-8.31397e-09
-9.25188e-09
-5.0099e-09
-7.0083e-09
-2.57594e-09
-4.81546e-09
-9.58848e-10
-2.76236e-09
-6.62469e-11
-9.71937e-10
2.42759e-10
3.89094e-10
1.68926e-10
1.09795e-09
8.39495e-10
3.77047e-11
-8.06837e-10
-1.74236e-10
-8.40147e-10
-8.70573e-10
2.22211e-10
-2.22135e-09
2.03864e-09
-4.3483e-09
4.36315e-09
-7.33294e-09
7.0065e-09
-1.12232e-08
9.82473e-09
-1.60397e-08
1.27102e-08
-2.17808e-08
1.55833e-08
-2.84278e-08
1.83854e-08
-3.59485e-08
2.10742e-08
-4.43007e-08
2.36196e-08
-5.34347e-08
2.60009e-08
-6.32957e-08
2.82044e-08
-7.38254e-08
3.02219e-08
-8.49635e-08
3.20495e-08
-9.66489e-08
3.36865e-08
-1.0882e-07
3.51347e-08
-1.21418e-07
3.63977e-08
-1.34381e-07
3.74809e-08
-1.47654e-07
3.83905e-08
-1.61181e-07
3.91339e-08
-1.74909e-07
3.97187e-08
-1.88787e-07
4.01533e-08
-2.02768e-07
4.04464e-08
-2.16807e-07
4.06065e-08
-2.30862e-07
4.06426e-08
-2.44893e-07
4.05634e-08
-2.58864e-07
4.03777e-08
-2.72741e-07
4.00939e-08
-2.86495e-07
3.97205e-08
-3.00096e-07
3.92656e-08
-3.13519e-07
3.8737e-08
-3.26741e-07
3.81423e-08
-3.39742e-07
3.74887e-08
-3.52503e-07
3.67831e-08
-3.65009e-07
3.6032e-08
-3.77245e-07
3.52417e-08
-3.89201e-07
3.4418e-08
-4.00865e-07
3.35663e-08
-4.1223e-07
3.26918e-08
-4.23289e-07
3.17992e-08
-4.34037e-07
3.0893e-08
-4.4447e-07
2.99772e-08
-4.54586e-07
2.90555e-08
-4.64384e-07
2.81313e-08
-4.73864e-07
2.72078e-08
-4.83026e-07
2.62876e-08
-4.91872e-07
2.53734e-08
-5.00405e-07
2.44672e-08
-5.08628e-07
2.35711e-08
-5.16544e-07
2.26867e-08
-5.24158e-07
2.18154e-08
-5.31475e-07
2.09584e-08
-5.38499e-07
2.01168e-08
-5.45236e-07
1.92912e-08
-5.51692e-07
1.84823e-08
-5.57871e-07
1.76905e-08
-5.63781e-07
1.69159e-08
-5.69426e-07
1.61587e-08
-5.74813e-07
1.54186e-08
-5.79946e-07
1.46956e-08
-5.84833e-07
1.39892e-08
-5.89478e-07
1.3299e-08
-5.93886e-07
1.26242e-08
-5.98062e-07
1.19643e-08
-6.02012e-07
1.13183e-08
-6.05739e-07
1.06854e-08
-6.09247e-07
1.00646e-08
-6.12541e-07
9.45475e-09
-6.15623e-07
8.85476e-09
-6.18497e-07
8.2634e-09
-6.21165e-07
7.6794e-09
-6.23629e-07
7.10142e-09
-6.2589e-07
6.52809e-09
-6.2795e-07
5.95798e-09
-6.29809e-07
5.38962e-09
-6.31468e-07
4.82151e-09
-6.32925e-07
4.25213e-09
-6.3418e-07
3.67991e-09
-6.35231e-07
3.10329e-09
-6.36077e-07
2.52067e-09
-6.36714e-07
1.93045e-09
-6.3714e-07
1.33104e-09
-6.3735e-07
7.20832e-10
-6.37341e-07
9.8238e-11
-6.37108e-07
-5.38318e-10
-6.36645e-07
-1.19039e-09
-6.35947e-07
-1.8595e-09
-6.35007e-07
-2.54714e-09
-6.33819e-07
-3.25474e-09
-6.32375e-07
-3.98369e-09
-6.30669e-07
-4.73532e-09
-6.2869e-07
-5.51086e-09
-6.26432e-07
-6.31149e-09
-6.23885e-07
-7.13826e-09
-6.2104e-07
-7.99214e-09
-6.17888e-07
-8.87395e-09
-6.14419e-07
-9.78439e-09
-6.10624e-07
-1.0724e-08
-6.06492e-07
-1.16932e-08
-6.02013e-07
-1.26922e-08
-5.97177e-07
-1.37209e-08
-5.91975e-07
-1.47793e-08
-5.86397e-07
-1.58668e-08
-5.80434e-07
-1.69828e-08
-5.74076e-07
-1.81263e-08
-5.67314e-07
-1.92961e-08
-5.60141e-07
-2.04908e-08
-5.52549e-07
-2.17084e-08
-5.44531e-07
-2.29468e-08
-5.36082e-07
-2.42036e-08
-5.27196e-07
-2.54757e-08
-5.1787e-07
-2.67599e-08
-5.08102e-07
-2.80527e-08
-4.97889e-07
-2.93499e-08
-4.87234e-07
-3.0647e-08
-4.76138e-07
-3.19392e-08
-4.64604e-07
-3.32211e-08
-4.5264e-07
-3.44869e-08
-4.40252e-07
-3.57305e-08
-4.27452e-07
-3.69452e-08
-4.14252e-07
-3.81238e-08
-4.00667e-07
-3.92591e-08
-3.86716e-07
-4.0343e-08
-3.72418e-07
-4.13672e-08
-3.57798e-07
-4.23232e-08
-3.42882e-07
-4.32019e-08
-3.277e-07
-4.3994e-08
-3.12285e-07
-4.469e-08
-2.96673e-07
-4.528e-08
-2.80903e-07
-4.57542e-08
-2.6502e-07
-4.61025e-08
-2.49067e-07
-4.63146e-08
-2.33096e-07
-4.63805e-08
-2.17159e-07
-4.62901e-08
-2.01312e-07
-4.60336e-08
-1.85613e-07
-4.56015e-08
-1.70125e-07
-4.49846e-08
-1.54912e-07
-4.41744e-08
-1.40041e-07
-4.31629e-08
-1.2558e-07
-4.19432e-08
-1.116e-07
-4.05094e-08
-9.81723e-08
-3.88571e-08
-8.53684e-08
-3.69837e-08
-7.32594e-08
-3.48887e-08
-6.19152e-08
-3.25745e-08
-5.14027e-08
-3.00471e-08
-4.17845e-08
-2.7317e-08
-3.31171e-08
-2.44007e-08
-2.54482e-08
-2.13223e-08
-1.88143e-08
-1.81161e-08
-1.32365e-08
-1.48297e-08
-8.71667e-09
-1.15282e-08
-5.23197e-09
-8.30015e-09
-2.7292e-09
-5.26511e-09
-1.11792e-09
-2.5832e-09
-2.63172e-10
-4.65664e-10
2.32166e-11
8.11558e-10
8.62717e-10
-1.10614e-10
-6.96232e-10
-6.93976e-10
-2.56794e-10
-1.94586e-09
1.4741e-09
-4.01405e-09
4.10684e-09
-7.00632e-09
7.35542e-09
-1.09954e-08
1.09956e-08
-1.60238e-08
1.48531e-08
-2.21081e-08
1.87946e-08
-2.92438e-08
2.2719e-08
-3.74087e-08
2.65503e-08
-4.65668e-08
3.02323e-08
-5.66714e-08
3.37242e-08
-6.76674e-08
3.69969e-08
-7.94939e-08
4.00309e-08
-9.2086e-08
4.28139e-08
-1.05376e-07
4.53394e-08
-1.19295e-07
4.76053e-08
-1.33773e-07
4.96131e-08
-1.48742e-07
5.13671e-08
-1.64135e-07
5.28737e-08
-1.79886e-07
5.41411e-08
-1.95931e-07
5.51786e-08
-2.12209e-07
5.59966e-08
-2.28661e-07
5.66062e-08
-2.45234e-07
5.70188e-08
-2.61874e-07
5.72464e-08
-2.78532e-07
5.73009e-08
-2.95163e-07
5.71943e-08
-3.11724e-07
5.69387e-08
-3.28176e-07
5.65457e-08
-3.44482e-07
5.60269e-08
-3.6061e-07
5.53936e-08
-3.7653e-07
5.46566e-08
-3.92214e-07
5.38263e-08
-4.07638e-07
5.2913e-08
-4.22781e-07
5.1926e-08
-4.37624e-07
5.08747e-08
-4.5215e-07
4.97677e-08
-4.66345e-07
4.86131e-08
-4.80197e-07
4.74186e-08
-4.93697e-07
4.61913e-08
-5.06836e-07
4.49381e-08
-5.19608e-07
4.36649e-08
-5.32008e-07
4.23776e-08
-5.44034e-07
4.10815e-08
-5.55684e-07
3.97812e-08
-5.66957e-07
3.84812e-08
-5.77855e-07
3.71854e-08
-5.88379e-07
3.58973e-08
-5.98532e-07
3.462e-08
-6.08317e-07
3.33563e-08
-6.17739e-07
3.21085e-08
-6.26802e-07
3.08787e-08
-6.35512e-07
2.96686e-08
-6.43875e-07
2.84797e-08
-6.51897e-07
2.73129e-08
-6.59584e-07
2.61692e-08
-6.66942e-07
2.50491e-08
-6.73979e-07
2.39529e-08
-6.80702e-07
2.28808e-08
-6.87116e-07
2.18326e-08
-6.93228e-07
2.08081e-08
-6.99045e-07
1.98067e-08
-7.04574e-07
1.88277e-08
-7.0982e-07
1.78703e-08
-7.14789e-07
1.69335e-08
-7.19487e-07
1.60162e-08
-7.23919e-07
1.5117e-08
-7.28089e-07
1.42347e-08
-7.32002e-07
1.33677e-08
-7.35662e-07
1.25144e-08
-7.39071e-07
1.16731e-08
-7.42234e-07
1.08421e-08
-7.45152e-07
1.00194e-08
-7.47827e-07
9.20323e-09
-7.50261e-07
8.39148e-09
-7.52453e-07
7.58214e-09
-7.54405e-07
6.77311e-09
-7.56115e-07
5.96226e-09
-7.57582e-07
5.14741e-09
-7.58805e-07
4.32636e-09
-7.59782e-07
3.49689e-09
-7.60508e-07
2.65678e-09
-7.60981e-07
1.80378e-09
-7.61196e-07
9.3567e-10
-7.61148e-07
5.02249e-11
-7.60831e-07
-8.54746e-10
-7.6024e-07
-1.78141e-09
-7.59368e-07
-2.73188e-09
-7.58207e-07
-3.70822e-09
-7.56749e-07
-4.71244e-09
-7.54986e-07
-5.74646e-09
-7.52909e-07
-6.81211e-09
-7.50509e-07
-7.91111e-09
-7.47776e-07
-9.04506e-09
-7.44698e-07
-1.02154e-08
-7.41267e-07
-1.14235e-08
-7.3747e-07
-1.26705e-08
-7.33298e-07
-1.39573e-08
-7.28737e-07
-1.52847e-08
-7.23777e-07
-1.66531e-08
-7.18406e-07
-1.80628e-08
-7.12613e-07
-1.95139e-08
-7.06387e-07
-2.10059e-08
-6.99715e-07
-2.25383e-08
-6.92588e-07
-2.411e-08
-6.84995e-07
-2.57198e-08
-6.76925e-07
-2.73658e-08
-6.6837e-07
-2.90459e-08
-6.59321e-07
-3.07575e-08
-6.4977e-07
-3.24976e-08
-6.39711e-07
-3.42625e-08
-6.29138e-07
-3.60483e-08
-6.18048e-07
-3.78503e-08
-6.06437e-07
-3.96634e-08
-5.94305e-07
-4.14818e-08
-5.81653e-07
-4.32994e-08
-5.68483e-07
-4.51092e-08
-5.548e-07
-4.69038e-08
-5.40612e-07
-4.86751e-08
-5.25928e-07
-5.04144e-08
-5.10761e-07
-5.21124e-08
-4.95125e-07
-5.37593e-08
-4.7904e-07
-5.53447e-08
-4.62525e-07
-5.68575e-08
-4.45606e-07
-5.82862e-08
-4.28311e-07
-5.96189e-08
-4.1067e-07
-6.08429e-08
-3.92718e-07
-6.19456e-08
-3.74495e-07
-6.29135e-08
-3.56041e-07
-6.37331e-08
-3.37405e-07
-6.43908e-08
-3.18635e-07
-6.48725e-08
-2.99785e-07
-6.51644e-08
-2.80913e-07
-6.52526e-08
-2.6208e-07
-6.51234e-08
-2.4335e-07
-6.47633e-08
-2.24792e-07
-6.41595e-08
-2.06477e-07
-6.32997e-08
-1.88479e-07
-6.21724e-08
-1.70875e-07
-6.07672e-08
-1.53743e-07
-5.9075e-08
-1.37164e-07
-5.70886e-08
-1.21218e-07
-5.48026e-08
-1.05988e-07
-5.22142e-08
-9.15526e-08
-4.9324e-08
-7.79908e-08
-4.61363e-08
-6.53773e-08
-4.26606e-08
-5.37818e-08
-3.89126e-08
-4.32667e-08
-3.49158e-08
-3.38851e-08
-3.07039e-08
-2.56775e-08
-2.63237e-08
-1.86687e-08
-2.18385e-08
-1.28638e-08
-1.7333e-08
-8.24441e-09
-1.29196e-08
-4.76317e-09
-8.74635e-09
-2.33952e-09
-5.00684e-09
-8.54526e-10
-1.95065e-09
-1.45843e-10
1.02874e-10
7.16876e-10
-2.68823e-10
-4.27408e-10
-1.25583e-09
7.30195e-10
-3.11165e-09
3.32991e-09
-5.95454e-09
6.94973e-09
-9.87192e-09
1.12728e-08
-1.49224e-08
1.60461e-08
-2.11385e-08
2.10692e-08
-2.85296e-08
2.61857e-08
-3.70854e-08
3.12748e-08
-4.6779e-08
3.62438e-08
-5.75696e-08
4.10229e-08
-6.94056e-08
4.55602e-08
-8.22269e-08
4.98182e-08
-9.5967e-08
5.37711e-08
-1.10555e-07
5.74019e-08
-1.25917e-07
6.07012e-08
-1.41977e-07
6.36653e-08
-1.58659e-07
6.62951e-08
-1.75887e-07
6.85953e-08
-1.93587e-07
7.05734e-08
-2.11685e-07
7.22393e-08
-2.30111e-07
7.36047e-08
-2.48797e-07
7.46825e-08
-2.67677e-07
7.54866e-08
-2.8669e-07
7.6032e-08
-3.05778e-07
7.63336e-08
-3.24884e-07
7.64071e-08
-3.43957e-07
7.62679e-08
-3.6295e-07
7.59316e-08
-3.81818e-07
7.54135e-08
-4.0052e-07
7.47287e-08
-4.19018e-07
7.38918e-08
-4.37279e-07
7.29171e-08
-4.55271e-07
7.18185e-08
-4.72967e-07
7.0609e-08
-4.90342e-07
6.93015e-08
-5.07376e-07
6.79078e-08
-5.24047e-07
6.64396e-08
-5.40342e-07
6.49075e-08
-5.56245e-07
6.33217e-08
-5.71745e-07
6.16918e-08
-5.86834e-07
6.00265e-08
-6.01503e-07
5.83341e-08
-6.15748e-07
5.66223e-08
-6.29564e-07
5.48979e-08
-6.4295e-07
5.31675e-08
-6.55906e-07
5.14366e-08
-6.68431e-07
4.97107e-08
-6.80528e-07
4.79944e-08
-6.922e-07
4.62919e-08
-7.03451e-07
4.46068e-08
-7.14285e-07
4.29423e-08
-7.24707e-07
4.13012e-08
-7.34724e-07
3.96858e-08
-7.44343e-07
3.80979e-08
-7.53569e-07
3.65391e-08
-7.6241e-07
3.50105e-08
-7.70874e-07
3.35129e-08
-7.78968e-07
3.20468e-08
-7.86699e-07
3.06122e-08
-7.94076e-07
2.92092e-08
-8.01105e-07
2.78372e-08
-8.07794e-07
2.64956e-08
-8.1415e-07
2.51836e-08
-8.2018e-07
2.39001e-08
-8.2589e-07
2.26437e-08
-8.31287e-07
2.14129e-08
-8.36376e-07
2.02062e-08
-8.41163e-07
1.90216e-08
-8.45652e-07
1.78572e-08
-8.49849e-07
1.67109e-08
-8.53756e-07
1.55804e-08
-8.57377e-07
1.44634e-08
-8.60715e-07
1.33574e-08
-8.63772e-07
1.226e-08
-8.66549e-07
1.11684e-08
-8.69047e-07
1.00799e-08
-8.71265e-07
8.99179e-09
-8.73204e-07
7.90124e-09
-8.74862e-07
6.80537e-09
-8.76237e-07
5.70128e-09
-8.77326e-07
4.58603e-09
-8.78126e-07
3.45667e-09
-8.78633e-07
2.31026e-09
-8.78841e-07
1.14385e-09
-8.78745e-07
-4.54816e-11
-8.78339e-07
-1.26063e-09
-8.77616e-07
-2.50444e-09
-8.76568e-07
-3.7797e-09
-8.75187e-07
-5.08914e-09
-8.73465e-07
-6.43537e-09
-8.7139e-07
-7.82093e-09
-8.68954e-07
-9.24821e-09
-8.66146e-07
-1.07195e-08
-8.62954e-07
-1.22368e-08
-8.59367e-07
-1.38021e-08
-8.55374e-07
-1.54171e-08
-8.50961e-07
-1.70833e-08
-8.46116e-07
-1.88019e-08
-8.40827e-07
-2.05738e-08
-8.3508e-07
-2.23997e-08
-8.28864e-07
-2.42798e-08
-8.22163e-07
-2.62141e-08
-8.14967e-07
-2.82022e-08
-8.07262e-07
-3.02431e-08
-7.99037e-07
-3.23356e-08
-7.90279e-07
-3.44777e-08
-7.80977e-07
-3.66672e-08
-7.71122e-07
-3.89011e-08
-7.60704e-07
-4.11759e-08
-7.49714e-07
-4.34877e-08
-7.38145e-07
-4.58315e-08
-7.25991e-07
-4.82021e-08
-7.13248e-07
-5.05933e-08
-6.99913e-07
-5.29983e-08
-6.85985e-07
-5.54095e-08
-6.71466e-07
-5.78186e-08
-6.56359e-07
-6.02166e-08
-6.40669e-07
-6.25934e-08
-6.24406e-07
-6.49386e-08
-6.07579e-07
-6.72405e-08
-5.90205e-07
-6.9487e-08
-5.72299e-07
-7.16651e-08
-5.53883e-07
-7.3761e-08
-5.3498e-07
-7.57601e-08
-5.15619e-07
-7.76475e-08
-4.9583e-07
-7.94072e-08
-4.75651e-07
-8.10229e-08
-4.55118e-07
-8.24776e-08
-4.34278e-07
-8.37541e-08
-4.13176e-07
-8.48345e-08
-3.91866e-07
-8.5701e-08
-3.70403e-07
-8.63353e-08
-3.48848e-07
-8.67194e-08
-3.27266e-07
-8.68353e-08
-3.05724e-07
-8.66651e-08
-2.84295e-07
-8.61917e-08
-2.63057e-07
-8.53984e-08
-2.42087e-07
-8.42695e-08
-2.21468e-07
-8.27907e-08
-2.01287e-07
-8.09487e-08
-1.81629e-07
-7.87326e-08
-1.62585e-07
-7.61333e-08
-1.44242e-07
-7.3145e-08
-1.26691e-07
-6.9765e-08
-1.1002e-07
-6.59951e-08
-9.43144e-08
-6.18421e-08
-7.96557e-08
-5.73193e-08
-6.61201e-08
-5.24482e-08
-5.37759e-08
-4.72599e-08
-4.26816e-08
-4.17982e-08
-3.28829e-08
-3.61225e-08
-2.44098e-08
-3.03115e-08
-1.7274e-08
-2.44689e-08
-1.14645e-08
-1.8729e-08
-6.94533e-09
-1.32655e-08
-3.65163e-09
-8.30053e-09
-1.48752e-09
-4.11476e-09
-3.24285e-10
-1.06036e-09
3.92592e-10
-4.2967e-10
2.26892e-12
-1.83494e-09
2.13545e-09
-4.32034e-09
5.81531e-09
-7.97095e-09
1.06003e-08
-1.28498e-08
1.61516e-08
-1.89974e-08
2.21937e-08
-2.64328e-08
2.85046e-08
-3.51554e-08
3.49083e-08
-4.51468e-08
4.12662e-08
-5.63734e-08
4.74704e-08
-6.87887e-08
5.34382e-08
-8.23357e-08
5.91072e-08
-9.6949e-08
6.44315e-08
-1.12557e-07
6.93786e-08
-1.29082e-07
7.39272e-08
-1.46445e-07
7.80645e-08
-1.64565e-07
8.17849e-08
-1.83358e-07
8.50888e-08
-2.02744e-07
8.79811e-08
-2.22641e-07
9.04703e-08
-2.4297e-07
9.2568e-08
-2.63653e-07
9.42882e-08
-2.84617e-07
9.56465e-08
-3.05791e-07
9.66602e-08
-3.27106e-07
9.73471e-08
-3.48499e-07
9.77262e-08
-3.69908e-07
9.78166e-08
-3.91278e-07
9.76375e-08
-4.12555e-07
9.72085e-08
-4.3369e-07
9.65487e-08
-4.54638e-07
9.56769e-08
-4.75358e-07
9.46116e-08
-4.95811e-07
9.33709e-08
-5.15965e-07
9.19719e-08
-5.35788e-07
9.04316e-08
-5.55252e-07
8.87658e-08
-5.74334e-07
8.69898e-08
-5.93012e-07
8.51182e-08
-6.1127e-07
8.31646e-08
-6.2909e-07
8.11419e-08
-6.4646e-07
7.90622e-08
-6.6337e-07
7.69368e-08
-6.79812e-07
7.47761e-08
-6.9578e-07
7.25898e-08
-7.11269e-07
7.03869e-08
-7.26277e-07
6.81754e-08
-7.40803e-07
6.59629e-08