/*--------------------------------*- C++ -*----------------------------------*\
  =========                 |
  \\      /  F ield         | OpenFOAM: The Open Source CFD Toolbox
   \\    /   O peration     | Website:  https://openfoam.org
    \\  /    A nd           | Version:  7
     \\/     M anipulation  |
\*---------------------------------------------------------------------------*/
FoamFile
{
    version     2.0;
    format      ascii;
    class       volVectorField;
    location    "0.15";
    object      U;
}
// * * * * * * * * * * * * * * * * * * * * * * * * * * * * * * * * * * * * * //

dimensions      [0 1 -1 0 0 0 0];

internalField   nonuniform List<vector> 
12800
(
(8.31791e-06 -8.32777e-06 0)
(3.70715e-05 -1.85349e-05 0)
(7.85155e-05 -1.97085e-05 0)
(0.000113222 -1.53505e-05 0)
(0.00012996 -8.3089e-06 0)
(0.000123843 -1.37183e-07 0)
(9.27278e-05 8.34421e-06 0)
(3.60019e-05 1.66951e-05 0)
(-4.59781e-05 2.46829e-05 0)
(-0.000152265 3.2188e-05 0)
(-0.00028156 3.91513e-05 0)
(-0.000432357 4.55474e-05 0)
(-0.000603033 5.13711e-05 0)
(-0.000791912 5.66288e-05 0)
(-0.000997303 6.13346e-05 0)
(-0.00121753 6.55074e-05 0)
(-0.00145095 6.91687e-05 0)
(-0.00169597 7.23421e-05 0)
(-0.00195106 7.50523e-05 0)
(-0.00221474 7.73246e-05 0)
(-0.00248562 7.91846e-05 0)
(-0.00276238 8.06577e-05 0)
(-0.00304376 8.17693e-05 0)
(-0.00332858 8.25444e-05 0)
(-0.00361576 8.30072e-05 0)
(-0.00390427 8.31815e-05 0)
(-0.00419316 8.30903e-05 0)
(-0.00448156 8.27558e-05 0)
(-0.00476866 8.21996e-05 0)
(-0.00505372 8.14423e-05 0)
(-0.00533609 8.05035e-05 0)
(-0.00561515 7.94021e-05 0)
(-0.00589037 7.81557e-05 0)
(-0.00616125 7.67814e-05 0)
(-0.00642738 7.5295e-05 0)
(-0.00668836 7.37118e-05 0)
(-0.00694388 7.20458e-05 0)
(-0.00719366 7.03102e-05 0)
(-0.00743746 6.85172e-05 0)
(-0.00767508 6.66782e-05 0)
(-0.00790637 6.48039e-05 0)
(-0.00813121 6.29039e-05 0)
(-0.0083495 6.09872e-05 0)
(-0.0085612 5.9062e-05 0)
(-0.00876625 5.71356e-05 0)
(-0.00896467 5.52146e-05 0)
(-0.00915647 5.3305e-05 0)
(-0.00934167 5.14122e-05 0)
(-0.00952034 4.95409e-05 0)
(-0.00969254 4.76952e-05 0)
(-0.00985836 4.58785e-05 0)
(-0.0100179 4.4094e-05 0)
(-0.0101712 4.23441e-05 0)
(-0.0103185 4.06308e-05 0)
(-0.0104599 3.89559e-05 0)
(-0.0105954 3.73204e-05 0)
(-0.0107252 3.57251e-05 0)
(-0.0108494 3.41705e-05 0)
(-0.0109683 3.26566e-05 0)
(-0.0110818 3.11832e-05 0)
(-0.0111902 2.97498e-05 0)
(-0.0112936 2.83556e-05 0)
(-0.0113921 2.69995e-05 0)
(-0.0114858 2.56801e-05 0)
(-0.0115748 2.43959e-05 0)
(-0.0116593 2.31453e-05 0)
(-0.0117394 2.19264e-05 0)
(-0.0118152 2.0737e-05 0)
(-0.0118867 1.95748e-05 0)
(-0.0119541 1.84374e-05 0)
(-0.0120174 1.73223e-05 0)
(-0.0120768 1.62269e-05 0)
(-0.0121322 1.51483e-05 0)
(-0.0121837 1.40837e-05 0)
(-0.0122314 1.303e-05 0)
(-0.0122753 1.1984e-05 0)
(-0.0123154 1.09427e-05 0)
(-0.0123517 9.90271e-06 0)
(-0.0123843 8.86084e-06 0)
(-0.012413 7.81369e-06 0)
(-0.012438 6.75783e-06 0)
(-0.012459 5.68974e-06 0)
(-0.0124762 4.60594e-06 0)
(-0.0124894 3.50295e-06 0)
(-0.0124986 2.37729e-06 0)
(-0.0125036 1.22548e-06 0)
(-0.0125045 4.40148e-08 0)
(-0.012501 -1.17064e-06 0)
(-0.012493 -2.42198e-06 0)
(-0.0124805 -3.71337e-06 0)
(-0.0124633 -5.04805e-06 0)
(-0.0124412 -6.42915e-06 0)
(-0.012414 -7.8598e-06 0)
(-0.0123817 -9.34303e-06 0)
(-0.012344 -1.08817e-05 0)
(-0.0123007 -1.24785e-05 0)
(-0.0122516 -1.41358e-05 0)
(-0.0121965 -1.58558e-05 0)
(-0.0121352 -1.76403e-05 0)
(-0.0120675 -1.94912e-05 0)
(-0.0119931 -2.14098e-05 0)
(-0.0119119 -2.3397e-05 0)
(-0.0118236 -2.54535e-05 0)
(-0.0117279 -2.75795e-05 0)
(-0.0116247 -2.97745e-05 0)
(-0.0115136 -3.20379e-05 0)
(-0.0113946 -3.43681e-05 0)
(-0.0112673 -3.67635e-05 0)
(-0.0111316 -3.92213e-05 0)
(-0.0109873 -4.17384e-05 0)
(-0.0108342 -4.43106e-05 0)
(-0.0106721 -4.69333e-05 0)
(-0.0105008 -4.96009e-05 0)
(-0.0103203 -5.23071e-05 0)
(-0.0101305 -5.50446e-05 0)
(-0.00993118 -5.78052e-05 0)
(-0.00972242 -6.05798e-05 0)
(-0.00950417 -6.33583e-05 0)
(-0.00927645 -6.61296e-05 0)
(-0.00903932 -6.88815e-05 0)
(-0.00879291 -7.16009e-05 0)
(-0.00853736 -7.42736e-05 0)
(-0.00827288 -7.68843e-05 0)
(-0.00799973 -7.94168e-05 0)
(-0.00771823 -8.18536e-05 0)
(-0.00742875 -8.41765e-05 0)
(-0.00713173 -8.63661e-05 0)
(-0.00682769 -8.84021e-05 0)
(-0.00651719 -9.02633e-05 0)
(-0.0062009 -9.19278e-05 0)
(-0.00587953 -9.33726e-05 0)
(-0.00555389 -9.45744e-05 0)
(-0.00522485 -9.55088e-05 0)
(-0.00489338 -9.61512e-05 0)
(-0.00456051 -9.64764e-05 0)
(-0.00422738 -9.64586e-05 0)
(-0.00389518 -9.60723e-05 0)
(-0.00356521 -9.52912e-05 0)
(-0.00323885 -9.40894e-05 0)
(-0.00291752 -9.24409e-05 0)
(-0.00260278 -9.032e-05 0)
(-0.00229622 -8.7701e-05 0)
(-0.00199953 -8.45592e-05 0)
(-0.00171443 -8.08705e-05 0)
(-0.00144274 -7.66119e-05 0)
(-0.0011863 -7.17619e-05 0)
(-0.000947025 -6.63012e-05 0)
(-0.000726817 -6.02134e-05 0)
(-0.0005276 -5.34871e-05 0)
(-0.000351267 -4.61184e-05 0)
(-0.000199642 -3.81154e-05 0)
(-7.44145e-05 -2.95065e-05 0)
(2.29574e-05 -2.03555e-05 0)
(9.14001e-05 -1.07908e-05 0)
(0.000130485 -1.06267e-06 0)
(0.000140844 8.34962e-06 0)
(0.000124793 1.65423e-05 0)
(8.7694e-05 2.17835e-05 0)
(4.20353e-05 2.08539e-05 0)
(9.63231e-06 9.62919e-06 0)
(1.85467e-05 -3.70901e-05 0)
(7.03364e-05 -7.02874e-05 0)
(0.000132022 -6.77419e-05 0)
(0.000170112 -4.2075e-05 0)
(0.000163329 -3.14488e-06 0)
(0.000100241 4.27176e-05 0)
(-2.54168e-05 9.15456e-05 0)
(-0.000216379 0.000140857 0)
(-0.000472857 0.000189107 0)
(-0.000793346 0.000235334 0)
(-0.0011752 0.000278947 0)
(-0.00161504 0.000319591 0)
(-0.00210898 0.000357071 0)
(-0.00265287 0.000391295 0)
(-0.00324241 0.000422248 0)
(-0.00387325 0.000449964 0)
(-0.00454104 0.000474514 0)
(-0.00524152 0.000495996 0)
(-0.00597056 0.000514526 0)
(-0.00672414 0.000530233 0)
(-0.00749842 0.000543254 0)
(-0.00828974 0.000553732 0)
(-0.00909462 0.000561816 0)
(-0.00990978 0.000567652 0)
(-0.0107321 0.000571389 0)
(-0.0115588 0.000573174 0)
(-0.0123871 0.000573151 0)
(-0.0132145 0.000571462 0)
(-0.0140387 0.000568245 0)
(-0.0148577 0.000563633 0)
(-0.0156695 0.000557754 0)
(-0.0164724 0.000550733 0)
(-0.0172647 0.000542688 0)
(-0.0180451 0.000533731 0)
(-0.0188122 0.00052397 0)
(-0.0195651 0.000513506 0)
(-0.0203028 0.000502434 0)
(-0.0210243 0.000490846 0)
(-0.021729 0.000478824 0)
(-0.0224163 0.000466447 0)
(-0.0230857 0.000453789 0)
(-0.0237368 0.000440916 0)
(-0.0243694 0.000427891 0)
(-0.0249832 0.000414771 0)
(-0.0255781 0.000401608 0)
(-0.026154 0.000388449 0)
(-0.0267111 0.000375336 0)
(-0.0272492 0.000362307 0)
(-0.0277687 0.000349396 0)
(-0.0282696 0.000336634 0)
(-0.0287521 0.000324045 0)
(-0.0292165 0.000311653 0)
(-0.0296632 0.000299474 0)
(-0.0300923 0.000287526 0)
(-0.0305042 0.000275821 0)
(-0.0308993 0.000264368 0)
(-0.0312779 0.000253173 0)
(-0.0316403 0.000242242 0)
(-0.031987 0.000231574 0)
(-0.0323184 0.000221171 0)
(-0.0326347 0.000211029 0)
(-0.0329363 0.000201145 0)
(-0.0332237 0.00019151 0)
(-0.0334971 0.000182118 0)
(-0.0337569 0.000172959 0)
(-0.0340034 0.000164021 0)
(-0.0342369 0.000155292 0)
(-0.0344578 0.000146759 0)
(-0.0346662 0.000138406 0)
(-0.0348624 0.000130217 0)
(-0.0350466 0.000122176 0)
(-0.0352191 0.000114264 0)
(-0.0353799 0.000106463 0)
(-0.0355293 9.87529e-05 0)
(-0.0356674 9.11139e-05 0)
(-0.0357942 8.35249e-05 0)
(-0.0359097 7.59644e-05 0)
(-0.0360141 6.84105e-05 0)
(-0.0361073 6.08409e-05 0)
(-0.0361893 5.32329e-05 0)
(-0.0362599 4.55636e-05 0)
(-0.0363192 3.78095e-05 0)
(-0.0363668 2.99472e-05 0)
(-0.0364028 2.1953e-05 0)
(-0.0364268 1.38034e-05 0)
(-0.0364387 5.47505e-06 0)
(-0.0364381 -3.05537e-06 0)
(-0.0364247 -1.1811e-05 0)
(-0.0363983 -2.08149e-05 0)
(-0.0363584 -3.00893e-05 0)
(-0.0363046 -3.96559e-05 0)
(-0.0362365 -4.95357e-05 0)
(-0.0361537 -5.97487e-05 0)
(-0.0360556 -7.03142e-05 0)
(-0.0359418 -8.12506e-05 0)
(-0.0358117 -9.25748e-05 0)
(-0.0356647 -0.000104302 0)
(-0.0355003 -0.000116446 0)
(-0.0353179 -0.000129018 0)
(-0.0351168 -0.000142028 0)
(-0.0348964 -0.000155485 0)
(-0.0346561 -0.000169392 0)
(-0.0343953 -0.000183753 0)
(-0.0341133 -0.000198566 0)
(-0.0338095 -0.000213827 0)
(-0.0334832 -0.00022953 0)
(-0.0331339 -0.000245662 0)
(-0.032761 -0.000262209 0)
(-0.0323639 -0.000279151 0)
(-0.0319421 -0.000296464 0)
(-0.0314951 -0.000314119 0)
(-0.0310225 -0.000332081 0)
(-0.0305238 -0.000350312 0)
(-0.0299988 -0.000368764 0)
(-0.0294472 -0.000387389 0)
(-0.0288688 -0.000406128 0)
(-0.0282635 -0.000424919 0)
(-0.0276313 -0.00044369 0)
(-0.0269724 -0.000462366 0)
(-0.026287 -0.000480864 0)
(-0.0255754 -0.000499094 0)
(-0.0248381 -0.000516959 0)
(-0.0240757 -0.000534356 0)
(-0.0232891 -0.000551175 0)
(-0.0224791 -0.000567299 0)
(-0.0216469 -0.000582606 0)
(-0.0207937 -0.000596967 0)
(-0.0199211 -0.000610246 0)
(-0.0190307 -0.000622304 0)
(-0.0181244 -0.000632996 0)
(-0.0172043 -0.000642172 0)
(-0.0162726 -0.000649679 0)
(-0.0153319 -0.00065536 0)
(-0.0143849 -0.000659055 0)
(-0.0134345 -0.000660604 0)
(-0.012484 -0.000659845 0)
(-0.0115366 -0.000656616 0)
(-0.0105961 -0.000650757 0)
(-0.0096663 -0.000642109 0)
(-0.00875117 -0.000630518 0)
(-0.00785499 -0.000615836 0)
(-0.00698217 -0.000597919 0)
(-0.00613733 -0.000576638 0)
(-0.00532521 -0.000551871 0)
(-0.00455067 -0.000523516 0)
(-0.00381869 -0.000491493 0)
(-0.00313427 -0.000455751 0)
(-0.00250242 -0.000416276 0)
(-0.00192803 -0.000373111 0)
(-0.00141581 -0.000326378 0)
(-0.000970144 -0.000276308 0)
(-0.000594837 -0.000223302 0)
(-0.000292875 -0.000168013 0)
(-6.59729e-05 -0.000111497 0)
(8.60428e-05 -5.5447e-05 0)
(0.000166141 -2.59569e-06 0)
(0.000181208 4.26545e-05 0)
(0.000143906 7.32145e-05 0)
(7.79522e-05 7.79139e-05 0)
(2.08575e-05 4.20168e-05 0)
(1.97995e-05 -7.8616e-05 0)
(6.80892e-05 -0.000132063 0)
(0.000111169 -0.000110638 0)
(0.000110348 -3.9433e-05 0)
(4.03736e-05 6.29742e-05 0)
(-0.000113611 0.000183367 0)
(-0.000360501 0.000312603 0)
(-0.000704694 0.000444475 0)
(-0.00114714 0.000574804 0)
(-0.00168626 0.000700797 0)
(-0.00231874 0.000820606 0)
(-0.00303998 0.000933036 0)
(-0.00384456 0.00103735 0)
(-0.00472649 0.00113312 0)
(-0.00567946 0.00122018 0)
(-0.00669699 0.0012985 0)
(-0.00777256 0.00136818 0)
(-0.00889969 0.00142943 0)
(-0.010072 0.0014825 0)
(-0.0112834 0.00152771 0)
(-0.0125279 0.00156539 0)
(-0.0137997 0.00159592 0)
(-0.0150935 0.00161969 0)
(-0.016404 0.00163708 0)
(-0.0177265 0.0016485 0)
(-0.0190562 0.00165435 0)
(-0.0203891 0.00165502 0)
(-0.021721 0.00165091 0)
(-0.0230484 0.00164239 0)
(-0.0243678 0.00162985 0)
(-0.0256762 0.00161364 0)
(-0.0269707 0.0015941 0)
(-0.0282489 0.00157159 0)
(-0.0295083 0.0015464 0)
(-0.030747 0.00151886 0)
(-0.0319631 0.00148924 0)
(-0.0331551 0.00145783 0)
(-0.0343216 0.00142487 0)
(-0.0354614 0.00139062 0)
(-0.0365736 0.0013553 0)
(-0.0376572 0.00131911 0)
(-0.0387117 0.00128225 0)
(-0.0397365 0.00124491 0)
(-0.0407313 0.00120725 0)
(-0.0416959 0.00116941 0)
(-0.0426301 0.00113154 0)
(-0.0435339 0.00109376 0)
(-0.0444075 0.00105619 0)
(-0.0452509 0.00101891 0)
(-0.0460645 0.000982028 0)
(-0.0468485 0.000945608 0)
(-0.0476033 0.000909719 0)
(-0.0483293 0.000874418 0)
(-0.0490271 0.00083975 0)
(-0.0496971 0.000805754 0)
(-0.0503398 0.000772457 0)
(-0.0509558 0.000739882 0)
(-0.0515456 0.000708042 0)
(-0.0521099 0.000676943 0)
(-0.0526491 0.000646586 0)
(-0.053164 0.000616964 0)
(-0.053655 0.000588065 0)
(-0.0541227 0.000559873 0)
(-0.0545677 0.000532364 0)
(-0.0549905 0.000505513 0)
(-0.0553916 0.000479288 0)
(-0.0557714 0.000453654 0)
(-0.0561305 0.000428573 0)
(-0.0564692 0.000404001 0)
(-0.0567879 0.000379895 0)
(-0.0570871 0.000356205 0)
(-0.0573668 0.000332881 0)
(-0.0576276 0.000309869 0)
(-0.0578695 0.000287113 0)
(-0.0580927 0.000264556 0)
(-0.0582975 0.000242139 0)
(-0.0584838 0.000219799 0)
(-0.0586517 0.000197475 0)
(-0.0588011 0.000175103 0)
(-0.0589321 0.000152618 0)
(-0.0590445 0.000129953 0)
(-0.0591382 0.000107044 0)
(-0.0592128 8.38222e-05 0)
(-0.0592681 6.02214e-05 0)
(-0.0593039 3.61742e-05 0)
(-0.0593196 1.16137e-05 0)
(-0.0593149 -1.35263e-05 0)
(-0.0592893 -3.93112e-05 0)
(-0.0592423 -6.58054e-05 0)
(-0.0591732 -9.3072e-05 0)
(-0.0590815 -0.000121173 0)
(-0.0589664 -0.000150166 0)
(-0.0588271 -0.00018011 0)
(-0.0586631 -0.000211057 0)
(-0.0584733 -0.000243057 0)
(-0.058257 -0.000276159 0)
(-0.0580133 -0.000310404 0)
(-0.0577412 -0.000345829 0)
(-0.0574399 -0.000382466 0)
(-0.0571083 -0.000420342 0)
(-0.0567455 -0.000459476 0)
(-0.0563505 -0.00049988 0)
(-0.0559223 -0.000541559 0)
(-0.0554599 -0.000584507 0)
(-0.0549623 -0.000628711 0)
(-0.0544285 -0.000674146 0)
(-0.0538576 -0.000720779 0)
(-0.0532488 -0.000768562 0)
(-0.052601 -0.000817437 0)
(-0.0519136 -0.000867332 0)
(-0.0511858 -0.00091816 0)
(-0.0504169 -0.000969822 0)
(-0.0496063 -0.0010222 0)
(-0.0487536 -0.00107516 0)
(-0.0478583 -0.00112857 0)
(-0.0469203 -0.00118224 0)
(-0.0459395 -0.001236 0)
(-0.0449158 -0.00128964 0)
(-0.0438497 -0.00134295 0)
(-0.0427413 -0.00139569 0)
(-0.0415914 -0.0014476 0)
(-0.0404008 -0.0014984 0)
(-0.0391705 -0.0015478 0)
(-0.0379018 -0.00159548 0)
(-0.0365962 -0.00164111 0)
(-0.0352557 -0.00168435 0)
(-0.0338822 -0.00172482 0)
(-0.0324781 -0.00176215 0)
(-0.0310462 -0.00179594 0)
(-0.0295895 -0.00182578 0)
(-0.0281112 -0.00185125 0)
(-0.0266151 -0.00187193 0)
(-0.0251052 -0.00188736 0)
(-0.0235858 -0.00189711 0)
(-0.0220616 -0.00190074 0)
(-0.0205376 -0.00189779 0)
(-0.0190192 -0.00188782 0)
(-0.0175121 -0.0018704 0)
(-0.0160224 -0.0018451 0)
(-0.0145562 -0.00181151 0)
(-0.0131204 -0.00176924 0)
(-0.0117217 -0.00171792 0)
(-0.0103673 -0.00165723 0)
(-0.00906451 -0.0015869 0)
(-0.00782077 -0.00150669 0)
(-0.00664364 -0.00141646 0)
(-0.00554068 -0.00131618 0)
(-0.00451933 -0.00120593 0)
(-0.00358681 -0.00108598 0)
(-0.0027499 -0.000956847 0)
(-0.00201475 -0.000819401 0)
(-0.00138654 -0.00067499 0)
(-0.000869042 -0.000525674 0)
(-0.000464033 -0.00037454 0)
(-0.000170522 -0.0002262 0)
(1.63199e-05 -8.75233e-05 0)
(0.00010633 3.13121e-05 0)
(0.000116028 0.000115485 0)
(7.35142e-05 0.000143948 0)
(2.184e-05 8.77211e-05 0)
(1.55743e-05 -0.000113639 0)
(4.29041e-05 -0.000170619 0)
(4.08617e-05 -0.000110024 0)
(-2.81594e-05 2.97585e-05 0)
(-0.00018985 0.000221194 0)
(-0.000460396 0.000443848 0)
(-0.000849867 0.000682858 0)
(-0.0013635 0.000927634 0)
(-0.00200265 0.00117071 0)
(-0.00276574 0.00140685 0)
(-0.00364898 0.00163246 0)
(-0.00464696 0.0018451 0)
(-0.00575314 0.00204317 0)
(-0.00696015 0.0022257 0)
(-0.00826013 0.00239217 0)
(-0.0096449 0.00254241 0)
(-0.0111062 0.0026765 0)
(-0.0126356 0.0027947 0)
(-0.0142251 0.00289744 0)
(-0.0158665 0.00298523 0)
(-0.0175521 0.00305867 0)
(-0.0192745 0.00311843 0)
(-0.0210263 0.00316519 0)
(-0.0228009 0.00319968 0)
(-0.0245918 0.00322264 0)
(-0.0263929 0.00323482 0)
(-0.0281984 0.00323697 0)
(-0.0300032 0.00322982 0)
(-0.0318023 0.00321409 0)
(-0.0335911 0.0031905 0)
(-0.0353654 0.00315974 0)
(-0.0371216 0.00312248 0)
(-0.038856 0.00307935 0)
(-0.0405657 0.00303097 0)
(-0.0422477 0.00297794 0)
(-0.0438997 0.0029208 0)
(-0.0455195 0.0028601 0)
(-0.0471052 0.00279633 0)
(-0.0486551 0.00272996 0)
(-0.0501678 0.00266143 0)
(-0.0516424 0.00259115 0)
(-0.0530777 0.0025195 0)
(-0.0544731 0.00244684 0)
(-0.0558281 0.00237349 0)
(-0.0571423 0.00229974 0)
(-0.0584156 0.00222587 0)
(-0.0596478 0.00215212 0)
(-0.060839 0.0020787 0)
(-0.0619895 0.00200582 0)
(-0.0630996 0.00193365 0)
(-0.0641696 0.00186234 0)
(-0.0652 0.00179203 0)
(-0.0661913 0.00172282 0)
(-0.0671442 0.0016548 0)
(-0.0680593 0.00158805 0)
(-0.0689373 0.00152264 0)
(-0.0697789 0.0014586 0)
(-0.0705849 0.00139597 0)
(-0.071356 0.00133475 0)
(-0.072093 0.00127495 0)
(-0.0727967 0.00121657 0)
(-0.0734677 0.00115957 0)
(-0.0741069 0.00110393 0)
(-0.0747149 0.0010496 0)
(-0.0752925 0.000996538 0)
(-0.0758404 0.000944681 0)
(-0.0763591 0.000893962 0)
(-0.0768493 0.000844306 0)
(-0.0773115 0.000795633 0)
(-0.0777462 0.000747855 0)
(-0.078154 0.000700879 0)
(-0.0785351 0.000654606 0)
(-0.07889 0.000608933 0)
(-0.079219 0.000563752 0)
(-0.0795222 0.000518952 0)
(-0.0797999 0.000474417 0)
(-0.0800522 0.000430029 0)
(-0.0802791 0.000385667 0)
(-0.0804806 0.000341207 0)
(-0.0806566 0.000296522 0)
(-0.0808069 0.000251487 0)
(-0.0809313 0.000205972 0)
(-0.0810295 0.000159848 0)
(-0.0811012 0.000112985 0)
(-0.0811458 6.52545e-05 0)
(-0.081163 1.6526e-05 0)
(-0.081152 -3.33281e-05 0)
(-0.0811122 -8.4434e-05 0)
(-0.081043 -0.000136916 0)
(-0.0809435 -0.000190895 0)
(-0.0808128 -0.000246488 0)
(-0.0806501 -0.000303811 0)
(-0.0804544 -0.00036297 0)
(-0.0802247 -0.000424069 0)
(-0.0799598 -0.000487204 0)
(-0.0796587 -0.000552463 0)
(-0.0793201 -0.000619926 0)
(-0.0789428 -0.000689664 0)
(-0.0785256 -0.000761736 0)
(-0.0780673 -0.000836189 0)
(-0.0775665 -0.00091306 0)
(-0.0770218 -0.000992367 0)
(-0.0764321 -0.00107412 0)
(-0.0757959 -0.0011583 0)
(-0.075112 -0.00124487 0)
(-0.0743792 -0.0013338 0)
(-0.0735961 -0.00142501 0)
(-0.0727616 -0.0015184 0)
(-0.0718745 -0.00161385 0)
(-0.0709339 -0.00171123 0)
(-0.0699388 -0.00181037 0)
(-0.0688883 -0.00191105 0)
(-0.0677816 -0.00201306 0)
(-0.0666182 -0.00211614 0)
(-0.0653977 -0.00221999 0)
(-0.0641197 -0.00232429 0)
(-0.0627842 -0.00242868 0)
(-0.0613913 -0.00253277 0)
(-0.0599413 -0.00263613 0)
(-0.0584349 -0.0027383 0)
(-0.0568729 -0.00283877 0)
(-0.0552565 -0.00293701 0)
(-0.0535871 -0.00303244 0)
(-0.0518666 -0.00312447 0)
(-0.0500969 -0.00321244 0)
(-0.0482806 -0.00329568 0)
(-0.0464206 -0.0033735 0)
(-0.0445201 -0.00344515 0)
(-0.0425826 -0.00350988 0)
(-0.0406124 -0.00356689 0)
(-0.0386138 -0.00361539 0)
(-0.0365918 -0.00365456 0)
(-0.0345518 -0.00368355 0)
(-0.0324995 -0.00370153 0)
(-0.0304413 -0.00370766 0)
(-0.0283837 -0.00370108 0)
(-0.026334 -0.00368097 0)
(-0.0242997 -0.0036465 0)
(-0.0222887 -0.00359691 0)
(-0.0203095 -0.00353142 0)
(-0.0183706 -0.00344934 0)
(-0.0164812 -0.00335003 0)
(-0.0146505 -0.00323292 0)
(-0.012888 -0.00309755 0)
(-0.0112033 -0.00294358 0)
(-0.00960621 -0.00277087 0)
(-0.00810628 -0.00257944 0)
(-0.00671291 -0.00236964 0)
(-0.00543512 -0.00214215 0)
(-0.00428128 -0.00189816 0)
(-0.00325881 -0.00163953 0)
(-0.00237382 -0.00136902 0)
(-0.00163058 -0.00109066 0)
(-0.00103092 -0.000810252 0)
(-0.000573331 -0.000536073 0)
(-0.000252048 -0.000279868 0)
(-5.58921e-05 -5.81931e-05 0)
(3.31482e-05 0.000106058 0)
(4.35404e-05 0.000181785 0)
(1.67286e-05 0.000125095 0)
(8.69095e-06 -0.000131005 0)
(4.47797e-06 -0.000164744 0)
(-6.07598e-05 -4.0639e-05 0)
(-0.00021873 0.000191281 0)
(-0.000492928 0.000495174 0)
(-0.000899332 0.000843797 0)
(-0.001448 0.0012167 0)
(-0.00214419 0.00159881 0)
(-0.00298922 0.00197913 0)
(-0.0039813 0.00234971 0)
(-0.0051162 0.00270488 0)
(-0.00638787 0.00304068 0)
(-0.00778884 0.0033544 0)
(-0.00931069 0.00364433 0)
(-0.0109443 0.00390947 0)
(-0.0126801 0.00414936 0)
(-0.0145085 0.00436398 0)
(-0.0164194 0.00455363 0)
(-0.0184033 0.00471886 0)
(-0.0204505 0.0048604 0)
(-0.0225517 0.00497912 0)
(-0.0246978 0.005076 0)
(-0.0268802 0.00515211 0)
(-0.0290907 0.00520855 0)
(-0.0313212 0.00524648 0)
(-0.0335646 0.00526704 0)
(-0.0358136 0.00527141 0)
(-0.038062 0.00526076 0)
(-0.0403036 0.00523623 0)
(-0.0425328 0.00519894 0)
(-0.0447444 0.00515 0)
(-0.0469338 0.00509047 0)
(-0.0490967 0.00502138 0)
(-0.0512292 0.00494372 0)
(-0.0533278 0.00485843 0)
(-0.0553894 0.00476642 0)
(-0.0574114 0.00466853 0)
(-0.0593913 0.00456558 0)
(-0.0613271 0.00445833 0)
(-0.063217 0.00434748 0)
(-0.0650597 0.00423371 0)
(-0.0668538 0.00411764 0)
(-0.0685985 0.00399983 0)
(-0.0702931 0.00388081 0)
(-0.0719372 0.00376107 0)
(-0.0735303 0.00364105 0)
(-0.0750725 0.00352115 0)
(-0.0765638 0.00340173 0)
(-0.0780044 0.00328311 0)
(-0.0793946 0.00316557 0)
(-0.0807349 0.00304936 0)
(-0.0820259 0.00293471 0)
(-0.0832681 0.00282179 0)
(-0.0844624 0.00271076 0)
(-0.0856095 0.00260175 0)
(-0.0867101 0.00249485 0)
(-0.0877653 0.00239014 0)
(-0.0887759 0.00228767 0)
(-0.0897428 0.00218746 0)
(-0.090667 0.00208952 0)
(-0.0915493 0.00199384 0)
(-0.0923907 0.00190038 0)
(-0.0931921 0.0018091 0)
(-0.0939544 0.00171992 0)
(-0.0946784 0.00163278 0)
(-0.095365 0.00154757 0)
(-0.0960149 0.00146418 0)
(-0.0966288 0.00138251 0)
(-0.0972075 0.00130241 0)
(-0.0977515 0.00122375 0)
(-0.0982615 0.00114637 0)
(-0.0987379 0.00107013 0)
(-0.0991812 0.000994842 0)
(-0.0995916 0.000920347 0)
(-0.0999696 0.00084646 0)
(-0.100315 0.000772996 0)
(-0.100629 0.000699763 0)
(-0.10091 0.000626565 0)
(-0.101159 0.000553204 0)
(-0.101377 0.000479476 0)
(-0.101561 0.000405176 0)
(-0.101713 0.000330096 0)
(-0.101832 0.000254028 0)
(-0.101917 0.000176763 0)
(-0.101968 9.80925e-05 0)
(-0.101984 1.78084e-05 0)
(-0.101965 -6.4295e-05 0)
(-0.101909 -0.000148421 0)
(-0.101817 -0.000234769 0)
(-0.101686 -0.000323532 0)
(-0.101516 -0.0004149 0)
(-0.101306 -0.000509055 0)
(-0.101054 -0.000606169 0)
(-0.10076 -0.000706406 0)
(-0.100421 -0.000809919 0)
(-0.100037 -0.000916848 0)
(-0.0996061 -0.00102732 0)
(-0.0991267 -0.00114144 0)
(-0.0985975 -0.00125931 0)
(-0.0980167 -0.001381 0)
(-0.0973828 -0.00150656 0)
(-0.0966944 -0.00163601 0)
(-0.0959496 -0.00176938 0)
(-0.095147 -0.00190662 0)
(-0.094285 -0.00204769 0)
(-0.0933621 -0.00219249 0)
(-0.0923767 -0.00234092 0)
(-0.0913274 -0.00249281 0)
(-0.0902129 -0.00264797 0)
(-0.089032 -0.00280616 0)
(-0.0877835 -0.00296711 0)
(-0.0864663 -0.00313048 0)
(-0.0850797 -0.0032959 0)
(-0.0836229 -0.00346295 0)
(-0.0820954 -0.00363115 0)
(-0.0804969 -0.00379998 0)
(-0.0788275 -0.00396886 0)
(-0.0770872 -0.00413714 0)
(-0.0752767 -0.00430414 0)
(-0.0733966 -0.0044691 0)
(-0.071448 -0.0046312 0)
(-0.0694326 -0.0047896 0)
(-0.067352 -0.00494335 0)
(-0.0652085 -0.0050915 0)
(-0.0630048 -0.00523299 0)
(-0.060744 -0.00536676 0)
(-0.0584296 -0.00549167 0)
(-0.0560656 -0.00560654 0)
(-0.0536565 -0.00571016 0)
(-0.0512073 -0.00580126 0)
(-0.0487237 -0.00587858 0)
(-0.0462115 -0.0059408 0)
(-0.0436775 -0.00598658 0)
(-0.0411287 -0.00601461 0)
(-0.0385728 -0.00602353 0)
(-0.036018 -0.00601203 0)
(-0.033473 -0.0059788 0)
(-0.0309469 -0.00592258 0)
(-0.0284495 -0.00584214 0)
(-0.0259908 -0.00573632 0)
(-0.0235813 -0.00560408 0)
(-0.021232 -0.00544444 0)
(-0.0189539 -0.00525661 0)
(-0.0167584 -0.00503994 0)
(-0.014657 -0.00479404 0)
(-0.0126612 -0.00451877 0)
(-0.0107822 -0.00421439 0)
(-0.00903113 -0.00388158 0)
(-0.0074183 -0.00352166 0)
(-0.00595337 -0.00313672 0)
(-0.00464479 -0.00272988 0)
(-0.00349941 -0.00230566 0)
(-0.002522 -0.00187042 0)
(-0.00171457 -0.001433 0)
(-0.00107567 -0.00100561 0)
(-0.000599479 -0.00060498 0)
(-0.000274807 -0.000253883 0)
(-8.38904e-05 1.72232e-05 0)
(-8.64016e-07 0.000168032 0)
(8.7339e-06 0.000141823 0)
(6.6472e-07 -0.0001258 0)
(-4.10654e-05 -0.000102816 0)
(-0.000181024 0.000112786 0)
(-0.00044195 0.000461974 0)
(-0.000843243 0.000901795 0)
(-0.00139947 0.00139893 0)
(-0.00211973 0.00192777 0)
(-0.00300853 0.00246894 0)
(-0.00406669 0.00300793 0)
(-0.00529191 0.00353397 0)
(-0.00667941 0.00403918 0)
(-0.00822246 0.00451789 0)
(-0.00991282 0.00496614 0)
(-0.0117411 0.00538131 0)
(-0.0136973 0.00576178 0)
(-0.0157705 0.00610672 0)
(-0.01795 0.00641594 0)
(-0.0202245 0.0066897 0)
(-0.022583 0.00692866 0)
(-0.0250147 0.00713374 0)
(-0.0275087 0.00730612 0)
(-0.0300548 0.0074471 0)
(-0.032643 0.00755815 0)
(-0.0352637 0.0076408 0)
(-0.0379079 0.00769665 0)
(-0.0405669 0.00772734 0)
(-0.0432327 0.00773452 0)
(-0.0458976 0.00771984 0)
(-0.0485545 0.00768494 0)
(-0.0511971 0.00763144 0)
(-0.0538191 0.00756089 0)
(-0.0564151 0.00747485 0)
(-0.05898 0.00737479 0)
(-0.0615094 0.00726215 0)
(-0.0639989 0.00713828 0)
(-0.0664451 0.0070045 0)
(-0.0688447 0.00686204 0)
(-0.0711948 0.00671209 0)
(-0.073493 0.00655574 0)
(-0.0757372 0.00639405 0)
(-0.0779257 0.00622797 0)
(-0.0800571 0.00605842 0)
(-0.0821302 0.00588623 0)
(-0.0841441 0.00571218 0)
(-0.0860983 0.00553697 0)
(-0.0879924 0.00536126 0)
(-0.0898263 0.00518562 0)
(-0.0915999 0.00501059 0)
(-0.0933136 0.00483665 0)
(-0.0949676 0.00466421 0)
(-0.0965625 0.00449365 0)
(-0.0980989 0.00432527 0)
(-0.0995775 0.00415937 0)
(-0.100999 0.00399616 0)
(-0.102365 0.00383584 0)
(-0.103675 0.00367855 0)
(-0.104932 0.00352441 0)
(-0.106135 0.00337348 0)
(-0.107286 0.00322582 0)
(-0.108387 0.00308144 0)
(-0.109438 0.00294031 0)
(-0.110439 0.0028024 0)
(-0.111394 0.00266763 0)
(-0.112301 0.00253591 0)
(-0.113163 0.00240713 0)
(-0.11398 0.00228115 0)
(-0.114753 0.00215782 0)
(-0.115483 0.00203696 0)
(-0.116171 0.00191838 0)
(-0.116817 0.00180189 0)
(-0.117423 0.00168726 0)
(-0.117989 0.00157426 0)
(-0.118514 0.00146266 0)
(-0.119001 0.00135219 0)
(-0.119448 0.00124261 0)
(-0.119857 0.00113363 0)
(-0.120227 0.00102498 0)
(-0.120558 0.000916375 0)
(-0.120851 0.000807526 0)
(-0.121106 0.000698138 0)
(-0.121321 0.000587912 0)
(-0.121497 0.000476546 0)
(-0.121633 0.000363738 0)
(-0.121729 0.000249183 0)
(-0.121784 0.00013258 0)
(-0.121798 1.36267e-05 0)
(-0.121769 -0.000107975 0)
(-0.121697 -0.00023252 0)
(-0.12158 -0.000360295 0)
(-0.121418 -0.000491583 0)
(-0.121208 -0.000626655 0)
(-0.120951 -0.000765773 0)
(-0.120644 -0.000909188 0)
(-0.120287 -0.00105713 0)
(-0.119876 -0.00120983 0)
(-0.119412 -0.00136747 0)
(-0.118892 -0.00153025 0)
(-0.118314 -0.00169831 0)
(-0.117677 -0.0018718 0)
(-0.116978 -0.0020508 0)
(-0.116217 -0.00223539 0)
(-0.115391 -0.00242561 0)
(-0.114499 -0.00262146 0)
(-0.113538 -0.0028229 0)
(-0.112506 -0.00302984 0)
(-0.111403 -0.00324216 0)
(-0.110225 -0.00345966 0)
(-0.108973 -0.00368213 0)
(-0.107643 -0.00390927 0)
(-0.106235 -0.00414072 0)
(-0.104747 -0.00437609 0)
(-0.103179 -0.00461487 0)
(-0.101529 -0.00485654 0)
(-0.0997956 -0.00510046 0)
(-0.0979796 -0.00534594 0)
(-0.0960802 -0.00559221 0)
(-0.0940974 -0.00583843 0)
(-0.0920314 -0.00608365 0)
(-0.089883 -0.00632686 0)
(-0.0876529 -0.00656698 0)
(-0.0853427 -0.00680282 0)
(-0.0829541 -0.00703312 0)
(-0.0804892 -0.00725655 0)
(-0.0779508 -0.00747169 0)
(-0.0753418 -0.00767704 0)
(-0.0726661 -0.00787103 0)
(-0.0699278 -0.00805203 0)
(-0.0671315 -0.00821834 0)
(-0.0642826 -0.0083682 0)
(-0.061387 -0.00849981 0)
(-0.0584511 -0.00861131 0)
(-0.055482 -0.00870084 0)
(-0.0524875 -0.00876648 0)
(-0.0494757 -0.00880633 0)
(-0.0464555 -0.00881848 0)
(-0.0434366 -0.00880106 0)
(-0.0404289 -0.00875221 0)
(-0.0374431 -0.00867016 0)
(-0.0344904 -0.00855319 0)
(-0.0315823 -0.00839972 0)
(-0.0287311 -0.00820829 0)
(-0.025949 -0.00797761 0)
(-0.0232489 -0.00770663 0)
(-0.0206437 -0.00739457 0)
(-0.0181464 -0.00704098 0)
(-0.01577 -0.00664585 0)
(-0.0135272 -0.00620971 0)
(-0.0114303 -0.00573376 0)
(-0.00949095 -0.00522008 0)
(-0.00771979 -0.00467184 0)
(-0.00612618 -0.00409364 0)
(-0.00471772 -0.00349194 0)
(-0.00349978 -0.0028756 0)
(-0.00247493 -0.00225663 0)
(-0.00164226 -0.00165117 0)
(-0.000996741 -0.00108072 0)
(-0.000528262 -0.000573758 0)
(-0.000220649 -0.000167429 0)
(-5.27523e-05 9.01857e-05 0)
(-4.37065e-07 0.000132658 0)
(-7.72418e-06 -9.5736e-05 0)
(-8.99803e-05 2.19046e-05 0)
(-0.000311363 0.000359977 0)
(-0.000684021 0.000853111 0)
(-0.00122201 0.00145269 0)
(-0.0019376 0.00212028 0)
(-0.00283811 0.00282573 0)
(-0.00392673 0.00354572 0)
(-0.00520326 0.00426244 0)
(-0.00666457 0.00496234 0)
(-0.00830516 0.00563532 0)
(-0.0101175 0.00627394 0)
(-0.0120926 0.00687291 0)
(-0.0142203 0.00742858 0)
(-0.0164894 0.00793864 0)
(-0.0188884 0.00840182 0)
(-0.0214052 0.00881767 0)
(-0.0240276 0.0091864 0)
(-0.0267434 0.00950871 0)
(-0.0295406 0.00978574 0)
(-0.0324073 0.0100189 0)
(-0.035332 0.0102099 0)
(-0.0383036 0.0103606 0)
(-0.0413114 0.0104731 0)
(-0.0443453 0.0105493 0)
(-0.0473956 0.0105914 0)
(-0.0504532 0.0106017 0)
(-0.0535096 0.0105822 0)
(-0.0565568 0.0105353 0)
(-0.0595873 0.0104631 0)
(-0.0625945 0.0103676 0)
(-0.0655719 0.010251 0)
(-0.0685139 0.0101152 0)
(-0.0714153 0.00996222 0)
(-0.0742714 0.00979381 0)
(-0.077078 0.00961179 0)
(-0.0798315 0.00941784 0)
(-0.0825286 0.00921354 0)
(-0.0851665 0.00900042 0)
(-0.0877428 0.00877988 0)
(-0.0902555 0.00855324 0)
(-0.0927029 0.00832174 0)
(-0.0950838 0.00808653 0)
(-0.0973971 0.00784866 0)
(-0.0996421 0.00760909 0)
(-0.101818 0.00736873 0)
(-0.103926 0.00712837 0)
(-0.105964 0.00688874 0)
(-0.107934 0.00665049 0)
(-0.109835 0.0064142 0)
(-0.111669 0.00618038 0)
(-0.113435 0.00594946 0)
(-0.115136 0.00572184 0)
(-0.116771 0.00549782 0)
(-0.118341 0.00527767 0)
(-0.119848 0.00506159 0)
(-0.121294 0.00484975 0)
(-0.122678 0.00464224 0)
(-0.124002 0.00443913 0)
(-0.125268 0.00424044 0)
(-0.126476 0.00404616 0)
(-0.127628 0.00385622 0)
(-0.128725 0.00367053 0)
(-0.129769 0.00348897 0)
(-0.130759 0.00331138 0)
(-0.131698 0.00313758 0)
(-0.132587 0.00296737 0)
(-0.133425 0.00280051 0)
(-0.134215 0.00263674 0)
(-0.134957 0.00247579 0)
(-0.135652 0.00231737 0)
(-0.1363 0.00216115 0)
(-0.136902 0.00200682 0)
(-0.137459 0.00185404 0)
(-0.13797 0.00170244 0)
(-0.138437 0.00155165 0)
(-0.138859 0.00140131 0)
(-0.139236 0.00125103 0)
(-0.139569 0.0011004 0)
(-0.139857 0.000949035 0)
(-0.140099 0.000796525 0)
(-0.140297 0.00064246 0)
(-0.140448 0.000486431 0)
(-0.140553 0.000328025 0)
(-0.14061 0.000166832 0)
(-0.140619 2.44233e-06 0)
(-0.140579 -0.000165547 0)
(-0.140489 -0.000337535 0)
(-0.140348 -0.00051391 0)
(-0.140154 -0.000695053 0)
(-0.139906 -0.000881332 0)
(-0.139603 -0.0010731 0)
(-0.139242 -0.00127069 0)
(-0.138823 -0.00147443 0)
(-0.138343 -0.0016846 0)
(-0.137802 -0.00190147 0)
(-0.137196 -0.00212529 0)
(-0.136524 -0.00235625 0)
(-0.135784 -0.00259455 0)
(-0.134973 -0.0028403 0)
(-0.134091 -0.0030936 0)
(-0.133135 -0.00335449 0)
(-0.132102 -0.00362297 0)
(-0.13099 -0.00389898 0)
(-0.129799 -0.00418239 0)
(-0.128525 -0.00447303 0)
(-0.127167 -0.00477064 0)
(-0.125722 -0.00507489 0)
(-0.12419 -0.00538539 0)
(-0.122569 -0.00570165 0)
(-0.120856 -0.0060231 0)
(-0.119052 -0.00634909 0)
(-0.117154 -0.00667886 0)
(-0.115163 -0.00701158 0)
(-0.113076 -0.00734627 0)
(-0.110895 -0.0076819 0)
(-0.10862 -0.00801731 0)
(-0.106249 -0.00835122 0)
(-0.103785 -0.00868226 0)
(-0.101229 -0.00900894 0)
(-0.098581 -0.00932967 0)
(-0.0958443 -0.00964272 0)
(-0.0930211 -0.0099463 0)
(-0.0901144 -0.0102385 0)
(-0.0871279 -0.0105172 0)
(-0.0840656 -0.0107804 0)
(-0.0809323 -0.0110258 0)
(-0.0777333 -0.0112512 0)
(-0.0744747 -0.0114542 0)
(-0.0711631 -0.0116323 0)
(-0.0678057 -0.0117831 0)