/*--------------------------------*- C++ -*----------------------------------*\
  =========                 |
  \\      /  F ield         | OpenFOAM: The Open Source CFD Toolbox
   \\    /   O peration     | Website:  https://openfoam.org
    \\  /    A nd           | Version:  7
     \\/     M anipulation  |
\*---------------------------------------------------------------------------*/
FoamFile
{
    version     2.0;
    format      ascii;
    class       volScalarField;
    location    "0.0625";
    object      p;
}
// * * * * * * * * * * * * * * * * * * * * * * * * * * * * * * * * * * * * * //

dimensions      [0 2 -2 0 0 0 0];

internalField   nonuniform List<scalar> 
12800
(
2.15672e-08
2.45812e-06
-7.66807e-05
-0.000235724
-0.000459476
-0.000732631
-0.00103942
-0.00136559
-0.0016991
-0.00203018
-0.00235085
-0.00265462
-0.00293647
-0.00319241
-0.00341941
-0.00361529
-0.00377846
-0.00390778
-0.00400261
-0.00406262
-0.00408768
-0.00407798
-0.00403392
-0.00395594
-0.00384466
-0.0037007
-0.0035246
-0.00331693
-0.00307831
-0.00280939
-0.00251078
-0.00218304
-0.00182676
-0.00144248
-0.0010307
-0.000591973
-0.00012681
0.000364365
0.000881245
0.00142353
0.00199086
0.00258291
0.00319944
0.0038403
0.00450531
0.00519428
0.00590702
0.00664332
0.007403
0.00818584
0.00899172
0.00982057
0.0106723
0.0115468
0.012444
0.0133638
0.0143061
0.015271
0.0162584
0.0172682
0.0183005
0.019355
0.0204318
0.0215307
0.0226516
0.0237945
0.0249595
0.0261465
0.0273555
0.0285864
0.0298394
0.0311144
0.0324115
0.0337307
0.035072
0.0364354
0.037821
0.0392288
0.0406591
0.0421116
0.0435866
0.0450841
0.0466041
0.0481467
0.0497118
0.0512994
0.0529096
0.0545424
0.0561977
0.0578755
0.0595756
0.0612981
0.0630428
0.0648096
0.0665983
0.0684085
0.07024
0.0720922
0.0739646
0.0758567
0.0777677
0.0796966
0.0816425
0.0836042
0.0855804
0.08757
0.0895713
0.0915827
0.0936024
0.0956284
0.0976586
0.0996905
0.101722
0.10375
0.105771
0.107782
0.10978
0.111761
0.113722
0.115658
0.117566
0.11944
0.121276
0.123071
0.124819
0.126515
0.128155
0.129734
0.131248
0.132691
0.13406
0.13535
0.136558
0.137679
0.138709
0.139647
0.140489
0.141233
0.141878
0.142423
0.142867
0.14321
0.143455
0.143603
0.143656
0.14362
0.143497
0.143295
0.14302
0.142682
0.142289
0.141854
0.141391
0.140916
0.14045
0.140015
0.139638
0.139352
0.139191
0.139168
3.26872e-07
8.87784e-06
-5.90798e-05
-0.000194557
-0.00038359
-0.000614766
-0.000875907
-0.00115539
-0.00144311
-0.0017305
-0.00201037
-0.00227686
-0.00252505
-0.00275101
-0.0029517
-0.0031247
-0.00326827
-0.00338118
-0.00346253
-0.00351175
-0.00352857
-0.0035129
-0.00346481
-0.00338457
-0.00327256
-0.00312921
-0.00295496
-0.00275026
-0.00251558
-0.00225139
-0.00195818
-0.00163644
-0.00128669
-0.000909356
-0.000504856
-7.36509e-05
0.000383789
0.000867084
0.00137594
0.00191008
0.00246922
0.00305309
0.00366149
0.00429421
0.00495106
0.00563187
0.00633653
0.00706486
0.00781664
0.00859167
0.00938981
0.010211
0.0110551
0.0119221
0.0128119
0.0137244
0.0146596
0.0156175
0.0165979
0.0176008
0.0186263
0.0196741
0.0207444
0.0218367
0.0229512
0.0240878
0.0252466
0.0264274
0.0276302
0.0288552
0.0301022
0.0313713
0.0326626
0.0339759
0.0353112
0.0366687
0.0380484
0.0394503
0.0408745
0.0423208
0.0437895
0.0452805
0.0467939
0.0483296
0.0498876
0.051468
0.0530706
0.0546954
0.0563424
0.0580114
0.0597023
0.0614151
0.0631495
0.0649055
0.0666826
0.0684806
0.0702991
0.0721375
0.0739953
0.0758719
0.0777664
0.0796779
0.0816053
0.0835474
0.085503
0.0874708
0.0894491
0.0914363
0.0934306
0.0954299
0.0974322
0.0994351
0.101436
0.103433
0.105421
0.107399
0.109363
0.111309
0.113234
0.115133
0.117004
0.118841
0.12064
0.122398
0.124109
0.125769
0.127374
0.12892
0.130401
0.131814
0.133154
0.134418
0.135603
0.136704
0.137718
0.138643
0.139476
0.140216
0.140862
0.141412
0.141867
0.142228
0.142495
0.142671
0.142759
0.142763
0.142687
0.142538
0.142323
0.14205
0.141728
0.14137
0.140986
0.140594
0.140209
0.139852
0.139543
0.139306
0.139167
0.139144
8.97003e-05
9.15383e-05
2.41348e-05
-0.000101459
-0.000272378
-0.000479174
-0.00071173
-0.000960525
-0.00121699
-0.00147356
-0.00172395
-0.00196278
-0.00218548
-0.0023884
-0.00256848
-0.00272331
-0.00285115
-0.0029506
-0.00302065
-0.00306067
-0.00307023
-0.00304909
-0.0029972
-0.00291461
-0.00280153
-0.00265826
-0.00248512
-0.00228247
-0.00205069
-0.00179011
-0.00150109
-0.00118411
-0.000839593
-0.000467902
-6.93911e-05
0.000355545
0.00080652
0.00128322
0.00178533
0.00231259
0.00286475
0.00344164
0.00404307
0.00466882
0.00531868
0.00599251
0.0066902
0.0074116
0.00815652
0.00892475
0.0097162
0.0105308
0.0113683
0.0122288
0.0131122
0.0140184
0.0149474
0.0158991
0.0168734
0.0178703
0.0188899
0.0199319
0.0209963
0.022083
0.0231919
0.0243229
0.0254761
0.0266515
0.0278489
0.0290686
0.0303103
0.0315743
0.0328603
0.0341684
0.0354986
0.0368509
0.0382253
0.0396219
0.0410406
0.0424814
0.0439445
0.0454297
0.0469372
0.0484669
0.0500187
0.0515926
0.0531885
0.0548064
0.0564462
0.0581077
0.0597906
0.061495
0.0632207
0.0649674
0.0667348
0.0685224
0.0703299
0.0721567
0.0740023
0.075866
0.0777469
0.079644
0.0815562
0.0834824
0.0854212
0.0873713
0.0893311
0.0912989
0.0932728
0.0952509
0.0972311
0.0992111
0.101188
0.10316
0.105123
0.107075
0.109012
0.110931
0.112828
0.1147
0.116542
0.118351
0.120123
0.121852
0.123536
0.125169
0.126748
0.128268
0.129725
0.131115
0.132435
0.13368
0.134848
0.135934
0.136937
0.137853
0.138681
0.139419
0.140066
0.140621
0.141085
0.141459
0.141743
0.141941
0.142056
0.14209
0.14205
0.141941
0.141769
0.141543
0.141272
0.140966
0.140637
0.140299
0.139966
0.139655
0.139382
0.139166
0.139029
0.138985
0.000269847
0.000246034
0.000165991
3.79346e-05
-0.000127834
-0.0003232
-0.000539718
-0.000769507
-0.00100522
-0.00124046
-0.00146962
-0.00168783
-0.00189107
-0.00207591
-0.00223949
-0.00237959
-0.00249442
-0.00258254
-0.00264296
-0.00267493
-0.00267793
-0.00265167
-0.00259603
-0.00251097
-0.00239657
-0.002253
-0.00208046
-0.00187926
-0.00164966
-0.00139194
-0.0011064
-0.000793401
-0.000453287
-8.63882e-05
0.000306943
0.000726377
0.00117164
0.00164249
0.00213863
0.00265977
0.00320572
0.00377633
0.00437145
0.00499086
0.00563439
0.00630191
0.0069933
0.00770838
0.00844699
0.009209
0.00999433
0.0108029
0.0116344
0.012489
0.0133665
0.0142669
0.0151901
0.0161362
0.0171049
0.0180964
0.0191105
0.0201471
0.0212061
0.0222875
0.0233911
0.024517
0.0256651
0.0268353
0.0280278
0.0292425
0.0304794
0.0317384
0.0330196
0.0343228
0.0356482
0.0369956
0.0383652
0.0397567
0.0411703
0.0426059
0.0440637
0.0455435
0.0470455
0.0485695
0.0501155
0.0516834
0.0532733
0.0548848
0.0565179
0.0581725
0.0598483
0.0615452
0.0632629
0.0650013
0.0667599
0.0685384
0.0703361
0.0721528
0.0739877
0.0758401
0.0777092
0.0795939
0.0814932
0.0834058
0.0853306
0.0872659
0.0892102
0.0911618
0.093119
0.0950796
0.0970417
0.099003
0.100961
0.102913
0.104856
0.106787
0.108703
0.1106
0.112476
0.114326
0.116146
0.117933
0.119683
0.121391
0.123053
0.124666
0.126225
0.127726
0.129165
0.130539
0.131843
0.133075
0.13423
0.135306
0.136301
0.137212
0.138036
0.138773
0.139422
0.139982
0.140454
0.140839
0.141137
0.141352
0.141487
0.141545
0.141531
0.141451
0.141311
0.141119
0.140884
0.140614
0.14032
0.140016
0.139712
0.139423
0.139164
0.138949
0.138791
0.1387
0.000518262
0.000454659
0.000351994
0.000213661
4.53395e-05
-0.000146071
-0.000353688
-0.000570921
-0.000791833
-0.00101096
-0.0012234
-0.001425
-0.00161208
-0.00178152
-0.00193085
-0.00205795
-0.0021611
-0.00223899
-0.00229057
-0.00231505
-0.00231189
-0.00228073
-0.00222136
-0.00213373
-0.00201783
-0.00187373
-0.00170156
-0.00150152
-0.00127378
-0.00101859
-0.00073623
-0.00042694
-9.09706e-05
0.000271386
0.000659798
0.001074
0.0015138
0.00197897
0.00246929
0.0029845
0.00352445
0.00408898
0.0046779
0.00529105
0.00592835
0.00658965
0.00727483
0.00798368
0.00871607
0.00947195
0.0102512
0.0110537
0.0118793
0.012728
0.0135997
0.0144944
0.015412
0.0163523
0.0173155
0.0183015
0.0193102
0.0203414
0.0213951
0.0224712
0.0235696
0.0246904
0.0258333
0.0269985
0.028186
0.0293957
0.0306276
0.0318818
0.033158
0.0344564
0.0357769
0.0371194
0.038484
0.0398705
0.0412789
0.0427093
0.0441617
0.0456362
0.0471326
0.0486509
0.0501911
0.0517531
0.0533368
0.054942
0.0565686
0.0582163
0.059885
0.0615745
0.0632846
0.0650149
0.0667651
0.0685346
0.0703231
0.07213
0.0739548
0.0757966
0.0776546
0.0795277
0.081415
0.0833151
0.0852268
0.0871486
0.0890788
0.0910158
0.0929577
0.0949027
0.0968488
0.0987935
0.100734
0.102669
0.104594
0.106507
0.108405
0.110284
0.11214
0.113972
0.115774
0.117542
0.119274
0.120964
0.122609
0.124205
0.125747
0.127233
0.128658
0.130018
0.13131
0.132531
0.133677
0.134746
0.135734
0.136641
0.137464
0.138201
0.138852
0.139417
0.139896
0.14029
0.140601
0.140831
0.140982
0.14106
0.141068
0.141011
0.140897
0.140731
0.140522
0.140279
0.14001
0.139727
0.139441
0.139162
0.138902
0.138674
0.138482
0.138327
0.000815306
0.000703933
0.000571811
0.000417275
0.000240405
4.67099e-05
-0.000157915
-0.000368315
-0.000579634
-0.000787271
-0.000987207
-0.00117582
-0.00134986
-0.00150668
-0.00164402
-0.00175995
-0.00185292
-0.0019217
-0.00196529
-0.00198295
-0.00197412
-0.00193839
-0.00187551
-0.00178536
-0.00166791
-0.00152317
-0.00135121
-0.0011521
-0.000925992
-0.000673091
-0.000393616
-8.7744e-05
0.000244321
0.000602338
0.000986067
0.00139532
0.00182991
0.00228964
0.00277432
0.00328381
0.00381796
0.00437658
0.0049595
0.00556658
0.00619779
0.00685299
0.00753203
0.00823477
0.00896111
0.00971098
0.0104843
0.0112808
0.0121006
0.0129435
0.0138095
0.0146986
0.0156105
0.0165453
0.0175031
0.0184837
0.019487
0.020513
0.0215614
0.0226323
0.0237256
0.0248413
0.0259792
0.0271393
0.0283218
0.0295266
0.0307536
0.0320028
0.0332742
0.0345676
0.0358832
0.0372208
0.0385804
0.0399618
0.0413651
0.0427903
0.0442375
0.0457065
0.0471974
0.0487101
0.0502446
0.0518006
0.0533782
0.0549772
0.0565972
0.0582383
0.0599
0.0615824
0.0632851
0.0650076
0.0667496
0.0685107
0.0702903
0.0720881
0.0739033
0.0757352
0.0775829
0.0794453
0.0813215
0.0832101
0.0851099
0.0870194
0.0889369
0.0908608
0.0927893
0.0947205
0.0966524
0.0985827
0.100509
0.102428
0.104338
0.106236
0.108118
0.109981
0.111823
0.113639
0.115425
0.117179
0.118895
0.120571
0.122202
0.123785
0.125315
0.126789
0.128202
0.129552
0.130835
0.132048
0.133188
0.134251
0.135236
0.136141
0.136963
0.137701
0.138355
0.138925
0.139411
0.139813
0.140134
0.140376
0.140542
0.140635
0.14066
0.140622
0.140527
0.14038
0.14019
0.139965
0.139712
0.139441
0.13916
0.13888
0.13861
0.13836
0.138124
0.137896
0.00114558
0.000982426
0.000816611
0.000641267
0.00045083
0.000249824
4.30132e-05
-0.000165533
-0.00037189
-0.0005724
-0.000763672
-0.000942669
-0.00110674
-0.00125356
-0.00138113
-0.00148779
-0.00157217
-0.00163312
-0.00166974
-0.00168133
-0.00166739
-0.0016275
-0.0015614
-0.00146892
-0.00134998
-0.00120457
-0.00103269
-0.000834382
-0.000609757
-0.000358959
-8.21223e-05
0.000220601
0.000549008
0.000902921
0.00128222
0.00168677
0.00211642
0.00257097
0.0030503
0.00355431
0.00408285
0.00463575
0.00521287
0.00581413
0.00643946
0.00708872
0.0077618
0.0084586
0.00917907
0.0099231
0.0106906
0.0114814
0.0122954
0.0131327
0.0139932
0.0148767
0.0157832
0.0167127
0.0176652
0.0186405
0.0196386
0.0206594
0.0217027
0.0227686
0.0238569
0.0249676
0.0261005
0.0272558
0.0284334
0.0296333
0.0308554
0.0320997
0.0333662
0.0346548
0.0359655
0.0372982
0.0386528
0.0400292
0.0414274
0.0428476
0.0442895
0.0457533
0.0472388
0.0487459
0.0502747
0.0518249
0.0533965
0.0549892
0.0566029
0.0582374
0.0598925
0.0615679
0.0632634
0.0649784
0.0667127
0.0684657
0.0702371
0.0720263
0.0738327
0.0756554
0.0774935
0.0793461
0.0812121
0.0830904
0.0849795
0.0868779
0.0887842
0.0906965
0.0926133
0.0945326
0.0964524
0.0983704
0.100284
0.102191
0.104088
0.105973
0.107843
0.109694
0.111523
0.113326
0.115101
0.116843
0.118548
0.120213
0.121834
0.123407
0.124927
0.126393
0.127799
0.129142
0.130419
0.131627
0.132763
0.133823
0.134806
0.13571
0.136533
0.137274
0.137931
0.138506
0.138998
0.139408
0.139738
0.13999
0.140167
0.140272
0.14031
0.140285
0.140203
0.14007
0.139892
0.139676
0.13943
0.139162
0.138879
0.138589
0.1383
0.13802
0.137736
0.137432
0.00149602
0.00127959
0.00107749
0.000878049
0.000670376
0.000458008
0.000244927
3.42426e-05
-0.000171092
-0.000368128
-0.000554083
-0.000726548
-0.000883353
-0.00102251
-0.00114236
-0.00124152
-0.00131878
-0.00137316
-0.00140384
-0.0014102
-0.00139178
-0.00134822
-0.00127923
-0.00118466
-0.00106438
-0.000918344
-0.000746514
-0.000548937
-0.000325695
-7.68583e-05
0.000197497
0.000497236
0.000822191
0.00117225
0.00154737
0.00194744
0.00237234
0.00282196
0.00329621
0.00379498
0.00431811
0.00486548
0.00543701
0.00603266
0.00665231
0.00729583
0.00796316
0.00865426
0.00936904
0.0101074
0.0108692
0.0116545
0.0124631
0.0132949
0.01415
0.0150281
0.0159294
0.0168537
0.017801
0.0187713
0.0197643
0.0207801
0.0218185
0.0228795
0.023963
0.0250688
0.0261969
0.0273474
0.0285202
0.0297153
0.0309326
0.0321721
0.0334338
0.0347176
0.0360235
0.0373513
0.038701
0.0400724
0.0414657
0.0428808
0.0443177
0.0457762
0.0472563
0.048758
0.0502811
0.0518256
0.0533912
0.0549778
0.0565853
0.0582134
0.0598619
0.0615306
0.0632192
0.0649271
0.066654
0.0683995
0.0701631
0.0719443
0.0737423
0.0755565
0.0773858
0.0792294
0.0810862
0.082955
0.0848345
0.0867232
0.0886196
0.0905219
0.0924286
0.0943377
0.0962473
0.098155
0.100059
0.101955
0.103842
0.105717
0.107577
0.109418
0.111237
0.113032
0.114798
0.116531
0.118228
0.119886
0.1215
0.123066
0.124581
0.126041
0.127442
0.128782
0.130056
0.131262
0.132396
0.133456
0.13444
0.135345
0.13617
0.136914
0.137575
0.138155
0.138653
0.13907
0.139407
0.139667
0.139853
0.139967
0.140014
0.139998
0.139924
0.139798
0.139626
0.139414
0.139169
0.138896
0.138604
0.138298
0.137984
0.13767
0.137335
0.136955
0.00185539
0.00158573
0.00134605
0.00112048
0.000892828
0.000666024
0.000443526
0.000227441
1.99784e-05
-0.000176582
-0.000360112
-0.000528713
-0.00068063
-0.000814277
-0.000928318
-0.0010216
-0.00109312
-0.00114209
-0.00116783
-0.00116979
-0.00114756
-0.00110084
-0.00102937
-0.000932993
-0.000811585
-0.000665041
-0.000493328
-0.000296486
-7.45545e-05
0.000172435
0.00044441
0.00074127
0.00106294
0.00140937
0.00178052
0.00217632
0.00259669
0.0030416
0.00351099
0.00400472
0.00452265
0.00506473
0.00563091
0.00622113
0.00683529
0.0074733
0.00813514
0.00882076
0.00953009
0.010263
0.0110194
0.0117993
0.0126026
0.0134293
0.0142791
0.0151521
0.0160483
0.0169676
0.01791
0.0188754
0.0198635
0.0208745
0.0219082
0.0229644
0.0240431
0.0251442
0.0262677
0.0274136
0.0285817
0.0297722
0.0309848
0.0322196
0.0334765
0.0347557
0.0360568
0.0373798
0.0387247
0.0400913
0.0414797
0.0428899
0.0443216
0.0457749
0.0472497
0.048746
0.0502635
0.0518023
0.0533621
0.0549427
0.0565441
0.058166
0.0598082
0.0614704
0.0631522
0.0648532
0.0665731
0.0683115
0.0700678
0.0718414
0.0736318
0.075438
0.0772592
0.0790946
0.080943
0.0828034
0.0846743
0.0865544
0.0884421
0.0903358
0.0922339
0.0941346
0.0960357
0.0979351
0.0998303
0.101719
0.103598
0.105465
0.107318
0.109152
0.110965
0.112752
0.114512
0.11624
0.117932
0.119586
0.121196
0.122759
0.124271
0.125729
0.127129
0.128468
0.129742
0.130949
0.132084
0.133146
0.134132
0.13504
0.135869
0.136617
0.137283
0.137868
0.138371
0.138794
0.139138
0.139405
0.139597
0.139717
0.13977
0.13976
0.13969
0.139567
0.139396
0.139181
0.138931
0.138649
0.138342
0.138014
0.137672
0.137321
0.136934
0.136482
0.00221422
0.00189228
0.00161473
0.00136171
0.00111226
0.00086888
0.000634425
0.000410368
0.00019824
-3.73849e-07
-0.000183913
-0.000350889
-0.00049999
-0.000630041
-0.000739978
-0.000828884
-0.000895996
-0.000940688
-0.000962432
-0.0009608
-0.000935439
-0.000886112
-0.000812604
-0.00071475
-0.000592428
-0.000445549
-0.000274088
-7.80398e-05
0.000142601
0.000387794
0.000657463
0.000951559
0.00127009
0.00161306
0.00198042
0.00237215
0.00278824
0.00322867
0.00369337
0.00418225
0.00469522
0.00523225
0.00579331
0.00637833
0.00698723
0.00761998
0.00827659
0.008957
0.0096611
0.0103888
0.0111401
0.0119149
0.0127132
0.0135348
0.0143797
0.0152478
0.0161392
0.0170537
0.0179913
0.0189519
0.0199354
0.0209418
0.0219708
0.0230225
0.0240967
0.0251933
0.0263123
0.0274537
0.0286174
0.0298033
0.0310113
0.0322416
0.033494
0.0347686
0.036065
0.0373834
0.0387235
0.0400854
0.041469
0.0428742
0.044301
0.0457491
0.0472187
0.0487096
0.0502217
0.0517549
0.0533089
0.0548837
0.0564791
0.058095
0.059731
0.0613869
0.0630622
0.0647567
0.0664699
0.0682014
0.0699508
0.0717174
0.0735005
0.0752993
0.0771131
0.0789409
0.0807818
0.0826346
0.084498
0.0863705
0.0882507
0.0901372
0.0920282
0.0939218
0.0958161
0.0977089
0.0995978
0.10148
0.103354
0.105216
0.107063
0.108893
0.110701
0.112485
0.114242
0.115967
0.117657
0.119309
0.120918
0.122481
0.123994
0.125453
0.126855
0.128196
0.129473
0.130683
0.131822
0.132888
0.133878
0.134791
0.135625
0.136378
0.13705
0.137641
0.13815
0.138579
0.138928
0.1392
0.139397
0.139522
0.139578
0.139569
0.1395
0.139376
0.139201
0.13898
0.13872
0.138424
0.138098
0.137745
0.137372
0.136983
0.136544
0.136023
0.00256438
0.00219171
0.00187652
0.00159543
0.00132315
0.0010616
0.000813404
0.000579406
0.000360502
0.000157731
-2.78154e-05
-0.000195095
-0.000343208
-0.000471312
-0.000578637
-0.000664536
-0.000728458
-0.000769941
-0.000788615
-0.000784175
-0.000756362
-0.000704989
-0.000629893
-0.000530912
-0.000407943
-0.000260935
-8.98607e-05
0.000105324
0.000324634
0.000568015
0.000835429
0.00112689
0.00144243
0.00178207
0.00214582
0.00253368
0.0029457
0.00338187
0.0038421
0.00432633
0.00483457
0.00536681
0.00592298
0.00650303
0.00710696
0.00773476
0.00838642
0.00906186
0.009761
0.0104838
0.0112303
0.0120003
0.0127938
0.0136106
0.0144508
0.0153143
0.0162011
0.0171111
0.0180442
0.0190003
0.0199793
0.0209812
0.0220059
0.0230532
0.024123
0.0252153
0.02633
0.0274671
0.0286265
0.0298081
0.0310118
0.0322378
0.0334858
0.0347559
0.0360479
0.0373617
0.0386972
0.0400544
0.0414333
0.0428336
0.0442554
0.0456985
0.0471629
0.0486485
0.0501553
0.0516829
0.0532314
0.0548005
0.0563901
0.0580001
0.0596301
0.0612798
0.0629489
0.064637
0.0663438
0.0680689
0.0698116
0.0715715
0.0733477
0.0751397
0.0769466
0.0787677
0.0806018
0.0824478
0.0843045
0.0861705
0.0880444
0.0899247
0.0918098
0.0936979
0.0955869
0.0974748
0.0993591
0.101237
0.103107
0.104966
0.10681
0.108638
0.110444
0.112227
0.113983
0.115709
0.1174
0.119053
0.120665
0.12223
0.123746
0.125209
0.126616
0.127962
0.129244
0.13046
0.131605
0.132678
0.133675
0.134594
0.135435
0.136195
0.136873
0.13747
0.137985
0.13842
0.138774
0.13905
0.139251
0.139378
0.139435
0.139426
0.139355
0.139226
0.139043
0.138813
0.138539
0.138226
0.137877
0.137497
0.137091
0.136664
0.136176
0.13559
0.00289899
0.00247735
0.00212523
0.00181599
0.00152016
0.00123948
0.000976303
0.00073085
0.000503521
0.000294939
0.000105727
-6.35095e-05
-0.000212196
-0.000339797
-0.000445852
-0.000529964
-0.00059179
-0.000631051
-0.000647531
-0.000641033
-0.000611419
-0.000558553
-0.000482308
-0.000382563
-0.000259258
-0.000112353
5.82048e-05
0.000252438
0.00047034
0.000711886
0.00097709
0.00126602
0.0015787
0.00191515
0.00227545
0.00265967
0.00306784
0.00349993
0.0039559
0.00443576
0.00493953
0.00546721
0.00601876
0.00659414
0.00719339
0.00781653
0.00846353
0.0091343
0.00982879
0.010547
0.0112889
0.0120544
0.0128434
0.0136557
0.0144915
0.0153507
0.0162332
0.0171389
0.0180677
0.0190196
0.0199944
0.0209922
0.0220127
0.0230558
0.0241215
0.0252098
0.0263205
0.0274535
0.0286088
0.0297862
0.0309859
0.0322077
0.0334516
0.0347173
0.0360049
0.0373143
0.0386453
0.039998
0.0413722
0.0427677
0.0441846
0.0456227
0.0470821
0.0485625
0.050064
0.0515863
0.0531292
0.0546928
0.0562768
0.057881
0.0595052
0.0611489
0.0628119
0.0644939
0.0661945
0.0679132
0.0696496
0.0714031
0.0731729
0.0749585
0.0767592
0.078574
0.080402
0.082242
0.0840928
0.0859532
0.0878218
0.0896971
0.0915776
0.0934614
0.0953465
0.0972309
0.0991123
0.100988
0.102856
0.104714
0.106557
0.108384
0.110192
0.111976
0.113734
0.115462
0.117157
0.118814
0.120431
0.122002
0.123524
0.124994
0.126408
0.127762
0.129053
0.130276
0.13143
0.132511
0.133517
0.134445
0.135294
0.136062
0.136749
0.137353
0.137874
0.138314
0.138674
0.138954
0.139156
0.139284
0.139341
0.139329
0.139253
0.139117
0.138925
0.138681
0.138391
0.138058
0.137685
0.137276
0.136836
0.136371
0.135834
0.135188
0.003212
0.00274342
0.00235538
0.00201816
0.00169855
0.00139817
0.00111906
0.000861032
0.000624054
0.000408339
0.000214087
4.15537e-05
-0.000109004
-0.000237368
-0.000343335
-0.000426745
-0.000487474
-0.000525417
-0.000540504
-0.000532675
-0.000501869
-0.000448016
-0.00037105
-0.000270914
-0.000147577
-9.98396e-07
0.000168884
0.000362048
0.00057846
0.000818162
0.00108122
0.00136768
0.00167759
0.00201103
0.00236809
0.00274887
0.00315337
0.00358159
0.00403356
0.00450933
0.00500891
0.0055323
0.00607949
0.00665053
0.00724545
0.00786425
0.00850688
0.00917329
0.00986349
0.0105774
0.0113151
0.0120764
0.0128611
0.0136694
0.0145011
0.0153563
0.0162348
0.0171364
0.0180613
0.0190092
0.0199802
0.0209741
0.0219906
0.0230299
0.0240918
0.0251763
0.0262832
0.0274124
0.0285638
0.0297374
0.0309331
0.032151
0.0333908
0.0346524
0.0359358
0.0372409
0.0385676
0.0399158
0.0412854
0.0426763
0.0440883
0.0455216
0.046976
0.0484514
0.0499477
0.0514647
0.0530024
0.0545605
0.056139
0.0577376
0.059356
0.0609939
0.062651
0.064327
0.0660215
0.0677342
0.0694645
0.0712118
0.0729756
0.0747553
0.0765501
0.0783593
0.0801817
0.0820164
0.0838622
0.0857178
0.0875819
0.0894532
0.0913301
0.0932108
0.0950933
0.0969756
0.0988555
0.100731
0.102599
0.104456
0.106301
0.10813
0.109941
0.111728
0.113491
0.115224
0.116925
0.118589
0.120213
0.121793
0.123324
0.124804
0.126228
0.127592
0.128894
0.130129
0.131294
0.132386
0.133402
0.134341
0.135201
0.135978
0.136674
0.137286
0.137815
0.138261
0.138625
0.138908
0.139113
0.139241
0.139295
0.139279
0.139196
0.139051
0.138847
0.138588
0.138279
0.137923
0.137525
0.137086
0.136612
0.136108
0.135526
0.134822
0.00349829
0.00298478
0.00256194
0.00219722
0.00185394
0.00153347
0.00123783
0.000966464
0.000718907
0.000494989
0.0002946
0.000117675
-3.58501e-05
-0.000166042
-0.000272945
-0.000356618
-0.000417137
-0.000454579
-0.000469012
-0.000460511
-0.00042908
-0.000374717
-0.000297448
-0.00019728
-7.41752e-05
7.18825e-05
0.000240893
0.00043284
0.000647722
0.000885593
0.00114654
0.0014306
0.00173786
0.00206845
0.00242248
0.0028
0.00320103
0.00362563
0.00407389
0.00454584
0.00504151
0.00556091
0.0061041
0.00667115
0.00726206
0.00787684
0.00851545
0.00917788
0.00986413
0.0105742
0.0113079
0.0120653
0.0128462
0.0136507
0.0144787
0.0153301
0.0162049
0.017103
0.0180242
0.0189686
0.019936
0.0209263
0.0219393
0.0229751
0.0240335
0.0251145
0.0262178
0.0273434
0.0284911
0.0296611
0.0308531
0.0320672
0.0333032
0.0345609
0.0358403
0.0371413
0.0384638
0.0398077
0.0411728
0.0425591
0.0439666
0.0453952
0.0468447
0.0483152
0.0498064
0.0513183
0.0528507
0.0544035
0.0559766
0.0575697
0.0591824
0.0608146
0.0624659
0.064136
0.0658247
0.0675314
0.0692558
0.0709973
0.0727554
0.0745295
0.0763189
0.0781228
0.0799403
0.0817702
0.0836116
0.0854631
0.0873237
0.0891918
0.0910661
0.0929446
0.0948257
0.0967072
0.0985869
0.100463
0.102332
0.104192
0.10604
0.107873
0.109688
0.111482
0.113251
0.114992
0.116701
0.118375
0.120009
0.1216
0.123143
0.124635
0.126072
0.12745
0.128765
0.130013
0.131192
0.132297
0.133327
0.134279
0.13515
0.13594
0.136645
0.137267
0.137804
0.138257
0.138626
0.138912
0.139118
0.139245
0.139297
0.139275
0.139184
0.139028
0.13881
0.138534
0.138205
0.137826
0.1374
0.136929
0.136421
0.13588
0.135254
0.134497
0.00375347
0.00319689
0.00274044
0.00234886
0.00198206
0.00164144
0.00132896
0.00104372
0.00078488
0.000551979
0.000344601
0.000162375
4.96626e-06
-0.00012795
-0.000236664
-0.000321439
-0.000382537
-0.000420211
-0.000434662
-0.000426053
-0.000394502
-0.000340098
-0.000262921
-0.00016302
-4.03951e-05
0.00010493
0.0002729
0.000463517
0.000676832
0.000912889
0.00117175
0.0014535
0.00175827
0.00208618
0.00243733
0.00281179
0.00320959
0.00363085
0.00407567
0.0045441
0.00503616
0.00555191
0.00609147
0.00665489
0.00724217
0.00785328
0.00848824
0.00914708
0.00982978
0.0105363
0.0112664
0.0120203
0.0127977
0.0135989
0.0144235
0.0152716
0.0161431
0.0170379
0.0179559
0.0188971
0.0198613
0.0208484
0.0218583
0.0228909
0.0239461
0.0250238
0.0261239
0.0272461
0.0283905
0.029557
0.0307456
0.0319562
0.0331884
0.0344424
0.035718
0.0370151
0.0383336
0.0396734
0.0410343
0.0424162
0.0438193
0.0452433
0.0466882
0.0481538
0.04964
0.0511468
0.0526741
0.0542217
0.0557894
0.057377
0.0589842
0.0606107
0.0622563
0.0639207
0.0656036
0.0673046
0.0690232
0.0707591
0.0725117
0.0742805
0.0760649
0.077864
0.0796769
0.0815026
0.08334
0.0851882
0.0870458
0.0889116
0.0907841
0.0926615
0.094542
0.0964238
0.0983047
0.100182
0.102055
0.103919
0.105771
0.10761
0.109432
0.111234
0.113012
0.114763
0.116483
0.118168
0.119815
0.12142
0.122977
0.124484
0.125937
0.12733
0.128662
0.129926
0.131121
0.132243
0.133289
0.134256
0.135141
0.135944
0.136662
0.137294
0.13784
0.1383
0.138675
0.138965
0.139172
0.139298
0.139346
0.139318
0.139218
0.139049
0.138816
0.138522
0.138171
0.137766
0.137312
0.136811
0.136268
0.13569
0.135021
0.134213
0.00397357
0.00337577
0.00288688
0.00246902
0.00207909
0.00171843
0.00138893
0.00108944
0.000818845
0.000576391
0.00036136
0.000173111
1.10754e-05
-0.000125313
-0.000236576
-0.000323175
-0.000385549
-0.000424088
-0.000439134
-0.00043093
-0.000399711
-0.000345669
-0.000268926
-0.000169558
-4.76412e-05
9.67408e-05
0.000263536
0.000452766
0.000664484
0.00089873
0.00115557
0.00143512
0.00173755
0.00206296
0.00241142
0.002783
0.00317784
0.00359606
0.00403774
0.00450294
0.00499173
0.00550423
0.00604054
0.0066007
0.00718469
0.00779254
0.0084243
0.00907997
0.00975951
0.0104628
0.0111899
0.0119406
0.0127151
0.0135132
0.0143349
0.0151801
0.0160486
0.0169405
0.0178558
0.0187941
0.0197556
0.0207399
0.021747
0.0227768
0.0238292
0.024904
0.026001
0.0271202
0.0282616
0.029425
0.0306103
0.0318175
0.0330463
0.0342968
0.0355688
0.0368622
0.0381769
0.0395128
0.0408696
0.0422475
0.0436463
0.0450659
0.0465062
0.047967
0.0494484
0.0509502
0.0524724
0.0540148
0.0555772
0.0571593
0.058761
0.0603819
0.0620219
0.0636807
0.065358
0.0670533
0.0687663
0.0704968
0.0722441
0.074008
0.0757876
0.0775821
0.0793908
0.0812126
0.0830466
0.0848919
0.0867473
0.0886114
0.0904828
0.0923598
0.0942408
0.0961239
0.098007
0.099888
0.101764
0.103634
0.105493
0.107339
0.10917
0.110981
0.11277
0.114533
0.116267
0.117967
0.119629
0.121249
0.122824
0.124349
0.125819
0.127232
0.128582
0.129865
0.131079
0.13222
0.133284
0.134268
0.13517
0.135988
0.13672
0.137365
0.137921
0.13839
0.138771
0.139065
0.139274
0.139399
0.139442
0.139407
0.139297
0.139115
0.138866
0.138552
0.138178
0.137748
0.137265
0.136732
0.136155
0.13554
0.13483
0.133974
0.00415509
0.00351779
0.00299752
0.00255408
0.00214145
0.00176093
0.0014144
0.00110047
0.000817785
0.000565335
0.000342141
0.000147314
-1.99505e-05
-0.000160433
-0.000274862
-0.000363892
-0.000428127
-0.000468079
-0.000484188
-0.000476842
-0.000446372
-0.000393023
-0.000316975
-0.000218381
-9.73898e-05
4.58863e-05
0.000211422
0.000399241
0.000609356
0.000841807
0.00109672
0.00137424
0.00167449
0.00199754
0.0023435
0.00271248
0.00310465
0.00352011
0.00395894
0.00442125
0.00490716
0.00541681
0.00595026
0.00650754
0.00708867
0.00769371
0.00832272
0.00897566
0.00965247
0.0103531
0.0110775
0.0118257
0.0125976
0.0133932
0.0142123
0.0150549
0.015921
0.0168105
0.0177233
0.0186593
0.0196183
0.0206003
0.0216051
0.0226325
0.0236824
0.0247546
0.025849
0.0269655
0.028104
0.0292645
0.0304469
0.0316509
0.0328766
0.0341238
0.0353925
0.0366825
0.0379937
0.0393258
0.0406789
0.0420528
0.0434475
0.0448628
0.0462986
0.0477548
0.0492314
0.0507283
0.0522455
0.0537827
0.0553398
0.0569165
0.0585127
0.0601282
0.0617627
0.0634159
0.0650876
0.0667773
0.068485
0.0702101
0.0719524
0.0737113
0.0754863
0.0772765
0.0790811
0.0808994
0.0827305
0.0845734
0.0864269
0.0882899
0.0901609
0.0920383
0.0939205
0.0958058
0.0976922
0.0995775
0.101459
0.103335
0.105202
0.107058
0.108899
0.110722
0.112524
0.114301
0.11605
0.117767
0.119446
0.121085
0.12268
0.124225
0.125716
0.12715
0.128522
0.129827
0.131063
0.132225
0.133309
0.134314
0.135235
0.13607
0.136818
0.137477
0.138046
0.138525
0.138913
0.139212
0.139423
0.139547
0.139586
0.139544
0.139423
0.139227
0.138961
0.138627
0.13823
0.137773
0.137261
0.136695
0.136084
0.135433
0.134682
0.133779
0.00429488
0.00361957
0.003069
0.00260068
0.00216576
0.00176562
0.00140216
0.00107372
0.000778739
0.000515976
0.000284247
8.24031e-05
-9.05788e-05
-0.000235657
-0.000353766
-0.000445741
-0.0005123
-0.000554097
-0.000571686
-0.000565581
-0.000536178
-0.000483777
-0.00040865
-0.000311052
-0.00019116
-4.9067e-05
0.000115175
0.000301552
0.000510082
0.000740842
0.000993971
0.00126961
0.00156783
0.00188873
0.00223243
0.0025991
0.00298889
0.0034019
0.00383823
0.00429804
0.00478149
0.00528868
0.00581968
0.0063745
0.00695323
0.00755595
0.00818267
0.00883334
0.0095079
0.0102063
0.0109286
0.0116747
0.0124446
0.0132381
0.0140551
0.0148957
0.0157598
0.0166474
0.0175582
0.0184922
0.0194493
0.0204293
0.0214321
0.0224575
0.0235053
0.0245753
0.0256674
0.0267816
0.0279177
0.0290757
0.0302553
0.0314565
0.0326793
0.0339236
0.0351892
0.036476
0.0377838
0.0391125
0.0404621
0.0418323
0.0432231
0.0446342
0.0460656
0.0475173
0.0489892
0.0504812
0.0519934
0.0535254
0.0550773
0.0566486
0.0582394
0.0598494
0.0614784
0.0631261
0.0647923
0.0664766
0.0681788
0.0698988
0.0716361
0.0733902
0.0751606
0.0769466
0.0787474
0.0805625
0.0823908
0.0842316
0.0860838
0.087946
0.0898171
0.0916955
0.0935797
0.095468
0.0973585
0.0992492
0.101138
0.103021
0.104898
0.106764
0.108617
0.110453
0.11227
0.114064
0.11583
0.117565
0.119265
0.120925
0.122541
0.124109
0.125625
0.127082
0.128479
0.129809
0.131069
0.132255
0.133363
0.134391
0.135333
0.136189
0.136955
0.13763
0.138213
0.138703
0.1391
0.139405
0.139618
0.139742
0.139777
0.139728
0.139597
0.139387
0.139103
0.138748
0.138326
0.137843
0.1373
0.136702
0.136056
0.135369
0.134578
0.133628
0.00439003
0.0036781
0.00309823
0.00260566
0.0021489
0.00172941
0.00134913