/*--------------------------------*- C++ -*----------------------------------*\
  =========                 |
  \\      /  F ield         | OpenFOAM: The Open Source CFD Toolbox
   \\    /   O peration     | Website:  https://openfoam.org
    \\  /    A nd           | Version:  7
     \\/     M anipulation  |
\*---------------------------------------------------------------------------*/
FoamFile
{
    version     2.0;
    format      ascii;
    class       volScalarField;
    location    "0.45";
    object      p;
}
// * * * * * * * * * * * * * * * * * * * * * * * * * * * * * * * * * * * * * //

dimensions      [0 2 -2 0 0 0 0];

internalField   nonuniform List<scalar> 
51200
(
-1.48213e-08
2.05281e-06
5.14554e-06
8.13915e-06
1.05791e-05
1.26471e-05
1.4429e-05
1.59777e-05
1.73244e-05
1.84871e-05
1.94815e-05
2.03203e-05
2.10108e-05
2.15593e-05
2.19732e-05
2.22588e-05
2.24212e-05
2.24678e-05
2.24014e-05
2.22248e-05
2.1946e-05
2.15689e-05
2.10981e-05
2.05358e-05
1.98864e-05
1.91543e-05
1.83422e-05
1.74557e-05
1.64975e-05
1.54683e-05
1.43723e-05
1.32133e-05
1.19938e-05
1.07172e-05
9.38594e-06
8.00223e-06
6.56942e-06
5.09058e-06
3.56926e-06
2.00976e-06
4.13622e-07
-1.21916e-06
-2.88638e-06
-4.58546e-06
-6.31521e-06
-8.07447e-06
-9.86118e-06
-1.16734e-05
-1.35099e-05
-1.53698e-05
-1.7252e-05
-1.91552e-05
-2.10777e-05
-2.30177e-05
-2.4974e-05
-2.69453e-05
-2.89298e-05
-3.09278e-05
-3.29408e-05
-3.49679e-05
-3.7007e-05
-3.90572e-05
-4.11194e-05
-4.31933e-05
-4.52771e-05
-4.73693e-05
-4.94692e-05
-5.15772e-05
-5.36942e-05
-5.58205e-05
-5.79547e-05
-6.0096e-05
-6.22448e-05
-6.44014e-05
-6.65651e-05
-6.87345e-05
-7.09097e-05
-7.30913e-05
-7.5279e-05
-7.74718e-05
-7.96694e-05
-8.18723e-05
-8.40804e-05
-8.62933e-05
-8.85107e-05
-9.07314e-05
-9.29544e-05
-9.51794e-05
-9.74073e-05
-9.96389e-05
-0.000101873
-0.000104107
-0.000106342
-0.000108578
-0.000110814
-0.000113051
-0.000115284
-0.000117514
-0.000119741
-0.000121964
-0.000124182
-0.000126395
-0.000128602
-0.0001308
-0.000132987
-0.000135163
-0.000137329
-0.000139482
-0.000141621
-0.000143744
-0.00014585
-0.000147937
-0.000150005
-0.000152049
-0.000154068
-0.00015606
-0.000158023
-0.000159956
-0.000161859
-0.000163729
-0.000165563
-0.000167359
-0.000169112
-0.000170822
-0.000172488
-0.000174106
-0.000175673
-0.000177187
-0.000178646
-0.000180049
-0.000181392
-0.000182674
-0.000183891
-0.000185041
-0.000186121
-0.000187128
-0.000188062
-0.00018892
-0.000189701
-0.000190404
-0.000191025
-0.000191562
-0.000192013
-0.000192379
-0.000192659
-0.000192853
-0.000192964
-0.000192993
-0.000192942
-0.000192814
-0.000192616
-0.000192353
-0.000192036
-0.00019168
-0.0001913
-0.000190918
-0.000190557
-0.000190247
-0.00019003
-0.000189947
1.90695e-06
3.88502e-06
6.36267e-06
8.76239e-06
1.0867e-05
1.27017e-05
1.43079e-05
1.57193e-05
1.69584e-05
1.80351e-05
1.89599e-05
1.97415e-05
2.03854e-05
2.08998e-05
2.12881e-05
2.15535e-05
2.17045e-05
2.17436e-05
2.16732e-05
2.15001e-05
2.12262e-05
2.0858e-05
2.03998e-05
1.98546e-05
1.92256e-05
1.85141e-05
1.77241e-05
1.68604e-05
1.59252e-05
1.49218e-05
1.38535e-05
1.2721e-05
1.15277e-05
1.0277e-05
8.97119e-06
7.61411e-06
6.20842e-06
4.7556e-06
3.25964e-06
1.72417e-06
1.50288e-07
-1.46043e-06
-3.10549e-06
-4.78362e-06
-6.49372e-06
-8.23324e-06
-1.00006e-05
-1.17948e-05
-1.36147e-05
-1.54596e-05
-1.73277e-05
-1.92175e-05
-2.11279e-05
-2.30579e-05
-2.50066e-05
-2.69709e-05
-2.89485e-05
-3.09405e-05
-3.29481e-05
-3.49705e-05
-3.70063e-05
-3.90549e-05
-4.11158e-05
-4.31886e-05
-4.52726e-05
-4.73666e-05
-4.94692e-05
-5.15802e-05
-5.37004e-05
-5.58294e-05
-5.79659e-05
-6.01107e-05
-6.22651e-05
-6.44284e-05
-6.65981e-05
-6.87732e-05
-7.09542e-05
-7.31414e-05
-7.53343e-05
-7.75321e-05
-7.97347e-05
-8.19422e-05
-8.41549e-05
-8.63727e-05
-8.8595e-05
-9.08199e-05
-9.30459e-05
-9.52735e-05
-9.75033e-05
-9.97355e-05
-0.000101969
-0.000104203
-0.000106437
-0.000108672
-0.000110906
-0.000113138
-0.000115366
-0.00011759
-0.00011981
-0.000122025
-0.000124235
-0.000126439
-0.000128634
-0.000130819
-0.000132992
-0.000135154
-0.000137305
-0.000139441
-0.000141562
-0.000143666
-0.000145752
-0.000147817
-0.000149862
-0.000151883
-0.000153878
-0.000155846
-0.000157783
-0.000159689
-0.000161565
-0.000163407
-0.000165213
-0.00016698
-0.000168704
-0.000170384
-0.00017202
-0.000173609
-0.000175147
-0.000176633
-0.000178064
-0.000179438
-0.000180755
-0.000182011
-0.000183204
-0.000184331
-0.000185389
-0.000186377
-0.000187294
-0.000188138
-0.000188907
-0.000189601
-0.000190216
-0.000190751
-0.000191205
-0.000191579
-0.000191871
-0.000192084
-0.000192219
-0.000192278
-0.000192264
-0.00019218
-0.000192033
-0.000191829
-0.000191579
-0.000191294
-0.000190989
-0.000190684
-0.000190403
-0.000190166
-0.000189996
-0.000189913
4.60971e-06
6.03453e-06
7.7828e-06
9.62565e-06
1.13707e-05
1.29597e-05
1.4388e-05
1.56642e-05
1.67966e-05
1.77891e-05
1.86473e-05
1.93722e-05
1.99707e-05
2.04488e-05
2.08081e-05
2.10548e-05
2.11913e-05
2.12189e-05
2.11438e-05
2.09687e-05
2.06973e-05
2.03335e-05
1.98816e-05
1.93463e-05
1.87295e-05
1.80334e-05
1.72606e-05
1.6413e-05
1.5495e-05
1.45103e-05
1.34607e-05
1.23488e-05
1.11762e-05
9.94477e-06
8.65848e-06
7.32127e-06
5.93522e-06
4.50348e-06
3.02925e-06
1.51366e-06
-4.18139e-08
-1.63425e-06
-3.2617e-06
-4.92333e-06
-6.618e-06
-8.34309e-06
-1.00965e-05
-1.18772e-05
-1.36849e-05
-1.55192e-05
-1.73778e-05
-1.92579e-05
-2.11587e-05
-2.30802e-05
-2.50207e-05
-2.69777e-05
-2.89505e-05
-3.09396e-05
-3.29441e-05
-3.49632e-05
-3.69971e-05
-3.90455e-05
-4.11069e-05
-4.31801e-05
-4.52642e-05
-4.73582e-05
-4.94622e-05
-5.15768e-05
-5.37015e-05
-5.58344e-05
-5.79748e-05
-6.01238e-05
-6.22825e-05
-6.44497e-05
-6.66235e-05
-6.88036e-05
-7.09904e-05
-7.31835e-05
-7.53819e-05
-7.7585e-05
-7.97924e-05
-8.20042e-05
-8.42216e-05
-8.64442e-05
-8.86703e-05
-9.0898e-05
-9.31267e-05
-9.53577e-05
-9.75905e-05
-9.98242e-05
-0.000102058
-0.000104292
-0.000106526
-0.00010876
-0.000110993
-0.000113222
-0.000115446
-0.000117665
-0.000119879
-0.000122088
-0.000124293
-0.00012649
-0.000128676
-0.00013085
-0.000133013
-0.000135164
-0.000137301
-0.000139424
-0.00014153
-0.000143619
-0.000145689
-0.000147738
-0.000149765
-0.000151767
-0.000153743
-0.00015569
-0.000157607
-0.000159493
-0.000161347
-0.000163167
-0.000164949
-0.000166692
-0.000168393
-0.00017005
-0.000171662
-0.000173227
-0.000174743
-0.000176206
-0.000177614
-0.000178967
-0.000180263
-0.000181499
-0.000182673
-0.000183781
-0.000184823
-0.000185795
-0.000186699
-0.000187532
-0.000188294
-0.000188981
-0.000189593
-0.000190126
-0.000190582
-0.000190962
-0.000191266
-0.000191494
-0.000191649
-0.000191732
-0.000191744
-0.000191692
-0.000191581
-0.00019142
-0.000191217
-0.000190981
-0.000190723
-0.000190459
-0.00019021
-0.000190001
-0.000189842
-0.000189737
7.01801e-06
7.9745e-06
9.21417e-06
1.06107e-05
1.2028e-05
1.33806e-05
1.46351e-05
1.57763e-05
1.67998e-05
1.77077e-05
1.84956e-05
1.91651e-05
1.97188e-05
2.01572e-05
2.04876e-05
2.07116e-05
2.08292e-05
2.08443e-05
2.07602e-05
2.05798e-05
2.03079e-05
1.99463e-05
1.94988e-05
1.89687e-05
1.83586e-05
1.76721e-05
1.69103e-05
1.60758e-05
1.51721e-05
1.42011e-05
1.31662e-05
1.20701e-05
1.09131e-05
9.69804e-06
8.42847e-06
7.10627e-06
5.73494e-06
4.3191e-06
2.86068e-06
1.36019e-06
-1.80193e-07
-1.7582e-06
-3.37192e-06
-5.02023e-06
-6.70186e-06
-8.41468e-06
-1.01566e-05
-1.19265e-05
-1.37244e-05
-1.55497e-05
-1.73999e-05
-1.92732e-05
-2.11689e-05
-2.30853e-05
-2.50193e-05
-2.69703e-05
-2.89394e-05
-3.09261e-05
-3.29287e-05
-3.49461e-05
-3.69788e-05
-3.90269e-05
-4.10895e-05
-4.31647e-05
-4.52503e-05
-4.73456e-05
-4.94518e-05
-5.15692e-05
-5.36965e-05
-5.58325e-05
-5.79776e-05
-6.01327e-05
-6.22969e-05
-6.44685e-05
-6.66465e-05
-6.88314e-05
-7.10231e-05
-7.3221e-05
-7.54245e-05
-7.76327e-05
-7.9845e-05
-8.2062e-05
-8.42848e-05
-8.65125e-05
-8.87422e-05
-9.09726e-05
-9.32045e-05
-9.54388e-05
-9.76747e-05
-9.99103e-05
-0.000102145
-0.00010438
-0.000106615
-0.000108849
-0.00011108
-0.000113307
-0.000115529
-0.000117744
-0.000119954
-0.00012216
-0.000124359
-0.00012655
-0.000128729
-0.000130896
-0.00013305
-0.000135192
-0.000137319
-0.00013943
-0.000141524
-0.0001436
-0.000145657
-0.000147692
-0.000149705
-0.000151691
-0.000153651
-0.000155581
-0.000157481
-0.00015935
-0.000161187
-0.000162987
-0.00016475
-0.000166473
-0.000168154
-0.000169792
-0.000171386
-0.000172931
-0.000174428
-0.000175873
-0.000177263
-0.000178598
-0.000179877
-0.000181096
-0.000182254
-0.000183348
-0.000184376
-0.000185336
-0.00018623
-0.000187055
-0.000187809
-0.000188492
-0.0001891
-0.000189634
-0.000190092
-0.000190478
-0.000190791
-0.000191032
-0.000191202
-0.000191303
-0.000191336
-0.000191307
-0.000191223
-0.000191089
-0.000190916
-0.000190713
-0.000190486
-0.000190244
-0.000190003
-0.000189786
-0.000189603
-0.000189447
8.77607e-06
9.54498e-06
1.05009e-05
1.15957e-05
1.27508e-05
1.38967e-05
1.49876e-05
1.59987e-05
1.69185e-05
1.77374e-05
1.84536e-05
1.9066e-05
1.95703e-05
1.99706e-05
2.02695e-05
2.04659e-05
2.05635e-05
2.05635e-05
2.04669e-05
2.0279e-05
2.00022e-05
1.96402e-05
1.91952e-05
1.86687e-05
1.80638e-05
1.73829e-05
1.66286e-05
1.58043e-05
1.49114e-05
1.39525e-05
1.29301e-05
1.18457e-05
1.07014e-05
9.50072e-06
8.24531e-06
6.93717e-06
5.58047e-06
4.17859e-06
2.73323e-06
1.24594e-06
-2.81119e-07
-1.84646e-06
-3.44893e-06
-5.08629e-06
-6.7568e-06
-8.45902e-06
-1.01911e-05
-1.19528e-05
-1.37432e-05
-1.556e-05
-1.74021e-05
-1.92692e-05
-2.11603e-05
-2.30721e-05
-2.50016e-05
-2.69493e-05
-2.89157e-05
-3.09002e-05
-3.29016e-05
-3.4919e-05
-3.69518e-05
-3.90004e-05
-4.1064e-05
-4.31405e-05
-4.5228e-05
-4.73266e-05
-4.94369e-05
-5.1558e-05
-5.36881e-05
-5.58273e-05
-5.79772e-05
-6.01379e-05
-6.23073e-05
-6.44839e-05
-6.66675e-05
-6.88581e-05
-7.10553e-05
-7.32585e-05
-7.5467e-05
-7.76801e-05
-7.98977e-05
-8.21208e-05
-8.43493e-05
-8.65815e-05
-8.88152e-05
-9.10496e-05
-9.32856e-05
-9.55235e-05
-9.77621e-05
-0.0001
-0.000102237
-0.000104474
-0.00010671
-0.000108944
-0.000111175
-0.0001134
-0.000115619
-0.000117832
-0.000120041
-0.000122243
-0.000124439
-0.000126623
-0.000128796
-0.000130956
-0.000133103
-0.000135237
-0.000137355
-0.000139457
-0.00014154
-0.000143604
-0.000145649
-0.000147672
-0.000149671
-0.000151644
-0.000153589
-0.000155504
-0.000157388
-0.000159242
-0.000161063
-0.000162846
-0.000164591
-0.000166296
-0.000167959
-0.00016958
-0.000171156
-0.000172685
-0.000174164
-0.000175592
-0.000176966
-0.000178285
-0.000179548
-0.000180752
-0.000181896
-0.000182976
-0.000183993
-0.000184943
-0.000185828
-0.000186645
-0.000187394
-0.000188071
-0.000188677
-0.000189211
-0.000189673
-0.000190064
-0.000190385
-0.000190637
-0.00019082
-0.000190935
-0.000190985
-0.000190976
-0.000190912
-0.0001908
-0.000190647
-0.000190462
-0.000190252
-0.000190023
-0.000189783
-0.000189547
-0.000189321
-0.000189092
1.01364e-05
1.0825e-05
1.16236e-05
1.25246e-05
1.34915e-05
1.44683e-05
1.54169e-05
1.6311e-05
1.71309e-05
1.78668e-05
1.85138e-05
1.90648e-05
1.95216e-05
1.98829e-05
2.01473e-05
2.03165e-05
2.03918e-05
2.03737e-05
2.02647e-05
2.00665e-05
1.97831e-05
1.94173e-05
1.89708e-05
1.84462e-05
1.78442e-05
1.71672e-05
1.6419e-05
1.56013e-05
1.47165e-05
1.37677e-05
1.27551e-05
1.16804e-05
1.0547e-05
9.35671e-06
8.11182e-06
6.81593e-06
5.472e-06
4.08195e-06
2.64766e-06
1.17176e-06
-3.43929e-07
-1.89864e-06
-3.49119e-06
-5.11914e-06
-6.78037e-06
-8.47327e-06
-1.01972e-05
-1.19525e-05
-1.37367e-05
-1.55473e-05
-1.73842e-05
-1.92469e-05
-2.1133e-05
-2.30401e-05
-2.49667e-05
-2.69128e-05
-2.88777e-05
-3.08608e-05
-3.28615e-05
-3.48795e-05
-3.69143e-05
-3.8965e-05
-4.10302e-05
-4.31079e-05
-4.51976e-05
-4.73e-05
-4.94147e-05
-5.15397e-05
-5.3674e-05
-5.58184e-05
-5.7974e-05
-6.01399e-05
-6.23143e-05
-6.44961e-05
-6.66854e-05
-6.8882e-05
-7.10855e-05
-7.32947e-05
-7.55085e-05
-7.7727e-05
-7.99509e-05
-8.21806e-05
-8.44148e-05
-8.66514e-05
-8.88892e-05
-9.11286e-05
-9.33695e-05
-9.56113e-05
-9.78528e-05
-0.000100093
-0.000102333
-0.000104573
-0.000106811
-0.000109047
-0.000111277
-0.000113501
-0.000115719
-0.000117931
-0.000120138
-0.000122339
-0.000124531
-0.000126711
-0.000128878
-0.000131033
-0.000133174
-0.0001353
-0.000137411
-0.000139503
-0.000141578
-0.000143632
-0.000145667
-0.000147679
-0.000149666
-0.000151626
-0.000153558
-0.00015546
-0.000157331
-0.00015917
-0.000160975
-0.000162744
-0.000164473
-0.000166162
-0.00016781
-0.000169415
-0.000170976
-0.000172489
-0.000173953
-0.000175365
-0.000176724
-0.000178029
-0.000179278
-0.000180469
-0.0001816
-0.000182669
-0.000183675
-0.000184616
-0.000185494
-0.000186305
-0.000187048
-0.000187722
-0.000188326
-0.00018886
-0.000189324
-0.000189721
-0.000190049
-0.000190309
-0.000190501
-0.000190628
-0.000190692
-0.000190697
-0.00019065
-0.000190555
-0.000190416
-0.00019024
-0.000190033
-0.000189804
-0.000189557
-0.000189299
-0.000189023
-0.000188714
1.12374e-05
1.18988e-05
1.26121e-05
1.33913e-05
1.42254e-05
1.50739e-05
1.59052e-05
1.6695e-05
1.74258e-05
1.80862e-05
1.86652e-05
1.91604e-05
1.95703e-05
1.98909e-05
2.01217e-05
2.02626e-05
2.03131e-05
2.0276e-05
2.01519e-05
1.99431e-05
1.96519e-05
1.92799e-05
1.88299e-05
1.83035e-05
1.77015e-05
1.7027e-05
1.62822e-05
1.54689e-05
1.45901e-05
1.36475e-05
1.26418e-05
1.15757e-05
1.04509e-05
9.26874e-06
8.03256e-06
6.7465e-06
5.41264e-06
4.03199e-06
2.60731e-06
1.14075e-06
-3.66396e-07
-1.91258e-06
-3.4969e-06
-5.11727e-06
-6.77096e-06
-8.45685e-06
-1.0175e-05
-1.19244e-05
-1.37028e-05
-1.55091e-05
-1.73431e-05
-1.92029e-05
-2.10852e-05
-2.29889e-05
-2.49137e-05
-2.68591e-05
-2.88238e-05
-3.08068e-05
-3.28077e-05
-3.4827e-05
-3.68643e-05
-3.8918e-05
-4.09857e-05
-4.3066e-05
-4.51596e-05
-4.72665e-05
-4.9385e-05
-5.15137e-05
-5.36531e-05
-5.58039e-05
-5.79658e-05
-6.01373e-05
-6.23173e-05
-6.45051e-05
-6.67005e-05
-6.89034e-05
-7.11133e-05
-7.33287e-05
-7.55484e-05
-7.7773e-05
-8.00039e-05
-8.22407e-05
-8.44807e-05
-8.67221e-05
-8.89648e-05
-9.12094e-05
-9.34556e-05
-9.57017e-05
-9.79466e-05
-0.000100191
-0.000102434
-0.000104677
-0.000106918
-0.000109156
-0.000111387
-0.000113611
-0.000115829
-0.000118041
-0.000120248
-0.000122447
-0.000124636
-0.000126812
-0.000128975
-0.000131126
-0.000133262
-0.000135383
-0.000137486
-0.000139572
-0.000141638
-0.000143685
-0.000145711
-0.000147714
-0.00014969
-0.000151639
-0.000153559
-0.000155449
-0.000157308
-0.000159135
-0.000160927
-0.000162682
-0.000164398
-0.000166073
-0.000167708
-0.0001693
-0.000170847
-0.000172346
-0.000173795
-0.000175194
-0.000176539
-0.000177832
-0.00017907
-0.000180249
-0.000181369
-0.000182428
-0.000183425
-0.000184358
-0.000185229
-0.000186036
-0.000186775
-0.000187446
-0.000188048
-0.000188582
-0.000189049
-0.000189449
-0.000189782
-0.000190049
-0.000190249
-0.000190385
-0.000190459
-0.000190476
-0.000190439
-0.000190354
-0.000190224
-0.000190052
-0.000189842
-0.000189602
-0.000189339
-0.000189056
-0.00018873
-0.000188342
1.21726e-05
1.28351e-05
1.35045e-05
1.42049e-05
1.49462e-05
1.57e-05
1.64369e-05
1.7139e-05
1.77925e-05
1.83819e-05
1.89007e-05
1.93446e-05
1.97078e-05
1.99889e-05
2.01864e-05
2.02984e-05
2.03246e-05
2.02667e-05
2.01264e-05
1.99053e-05
1.96042e-05
1.92256e-05
1.877e-05
1.82392e-05
1.76356e-05
1.6961e-05
1.62172e-05
1.5407e-05
1.45316e-05
1.35924e-05
1.25915e-05
1.1531e-05
1.04119e-05
9.23614e-06
8.00754e-06
6.72895e-06
5.40221e-06
4.02937e-06
2.6127e-06
1.15333e-06
-3.47186e-07
-1.88701e-06
-3.46501e-06
-5.07885e-06
-6.72664e-06
-8.40838e-06
-1.01229e-05
-1.18675e-05
-1.36418e-05
-1.54456e-05
-1.72776e-05
-1.9135e-05
-2.10152e-05
-2.29175e-05
-2.48417e-05
-2.6787e-05
-2.87524e-05
-3.07366e-05
-3.27394e-05
-3.47613e-05
-3.68016e-05
-3.88581e-05
-4.09287e-05
-4.30132e-05
-4.5112e-05
-4.72239e-05
-4.93468e-05
-5.14802e-05
-5.36255e-05
-5.57831e-05
-5.79514e-05
-6.0129e-05
-6.23153e-05
-6.45097e-05
-6.67121e-05
-6.89219e-05
-7.11383e-05
-7.336e-05
-7.55864e-05
-7.78185e-05
-8.0057e-05
-8.23005e-05
-8.45466e-05
-8.67937e-05
-8.90423e-05
-9.12927e-05
-9.3544e-05
-9.57947e-05
-9.80439e-05
-0.000100292
-0.000102541
-0.000104788
-0.000107033
-0.000109272
-0.000111505
-0.00011373
-0.00011595
-0.000118163
-0.00012037
-0.000122567
-0.000124753
-0.000126927
-0.000129088
-0.000131235
-0.000133368
-0.000135484
-0.000137582
-0.000139662
-0.000141723
-0.000143763
-0.000145782
-0.000147776
-0.000149743
-0.000151682
-0.000153591
-0.000155471
-0.000157321
-0.000159137
-0.000160917
-0.00016266
-0.000164365
-0.00016603
-0.000167653
-0.000169232
-0.000170767
-0.000172253
-0.00017369
-0.000175077
-0.000176412
-0.000177693
-0.000178921
-0.000180091
-0.000181201
-0.000182251
-0.00018324
-0.000184167
-0.000185033
-0.000185835
-0.000186571
-0.00018724
-0.000187842
-0.000188376
-0.000188844
-0.000189247
-0.000189584
-0.000189855
-0.000190062
-0.000190205
-0.000190287
-0.000190311
-0.000190281
-0.000190201
-0.000190072
-0.0001899
-0.000189683
-0.000189428
-0.000189143
-0.000188831
-0.000188457
-0.000187995
1.30043e-05
1.36838e-05
1.43328e-05
1.49813e-05
1.56592e-05
1.63398e-05
1.70034e-05
1.76352e-05
1.82194e-05
1.87478e-05
1.92132e-05
1.96081e-05
1.99286e-05
2.0172e-05
2.03359e-05
2.04192e-05
2.04214e-05
2.03429e-05
2.01858e-05
1.99503e-05
1.96383e-05
1.92508e-05
1.87879e-05
1.82519e-05
1.76447e-05
1.69675e-05
1.62232e-05
1.54137e-05
1.45394e-05
1.36022e-05
1.26041e-05
1.15462e-05
1.04302e-05
9.25963e-06
8.03677e-06
6.76319e-06
5.44181e-06
4.07484e-06
2.6638e-06
1.20995e-06
-2.85746e-07
-1.82145e-06
-3.3947e-06
-5.0036e-06
-6.64773e-06
-8.32686e-06
-1.00384e-05
-1.17804e-05
-1.35532e-05
-1.5356e-05
-1.71864e-05
-1.90423e-05
-2.09219e-05
-2.28245e-05
-2.47495e-05
-2.66956e-05
-2.86621e-05
-3.06486e-05
-3.26549e-05
-3.46809e-05
-3.67249e-05
-3.87846e-05
-4.08592e-05
-4.2949e-05
-4.50533e-05
-4.71704e-05
-4.92985e-05
-5.14382e-05
-5.35905e-05
-5.5755e-05
-5.79302e-05
-6.01145e-05
-6.23077e-05
-6.45094e-05
-6.67196e-05
-6.8937e-05
-7.11602e-05
-7.33885e-05
-7.56226e-05
-7.78634e-05
-8.01098e-05
-8.236e-05
-8.46123e-05
-8.68663e-05
-8.91218e-05
-9.13784e-05
-9.3635e-05
-9.58907e-05
-9.81452e-05
-0.000100399
-0.000102653
-0.000104905
-0.000107154
-0.000109396
-0.000111631
-0.000113859
-0.000116081
-0.000118296
-0.000120503
-0.0001227
-0.000124885
-0.000127057
-0.000129216
-0.000131362
-0.000133491
-0.000135604
-0.000137699
-0.000139774
-0.00014183
-0.000143866
-0.000145878
-0.000147865
-0.000149825
-0.000151755
-0.000153656
-0.000155527
-0.000157368
-0.000159175
-0.000160946
-0.000162679
-0.000164374
-0.000166029
-0.000167642
-0.000169212
-0.000170735
-0.00017221
-0.000173636
-0.000175013
-0.000176339
-0.000177612
-0.000178831
-0.000179992
-0.000181094
-0.000182136
-0.000183119
-0.000184041
-0.000184903
-0.000185701
-0.000186435
-0.000187102
-0.000187703
-0.000188238
-0.000188707
-0.000189112
-0.000189452
-0.000189727
-0.000189938
-0.000190087
-0.000190174
-0.000190203
-0.000190177
-0.000190096
-0.000189966
-0.000189788
-0.000189562
-0.000189292
-0.000188983
-0.000188639
-0.000188219
-0.000187689
1.3774e-05
1.44768e-05
1.51201e-05
1.57393e-05
1.63693e-05
1.69957e-05
1.76025e-05
1.81744e-05
1.87027e-05
1.91789e-05
1.95951e-05
1.9946e-05
2.02271e-05
2.04343e-05
2.05658e-05
2.0621e-05
2.05993e-05
2.05012e-05
2.03263e-05
2.00763e-05
1.97519e-05
1.93534e-05
1.88822e-05
1.83396e-05
1.7727e-05
1.70462e-05
1.62994e-05
1.5488e-05
1.46126e-05
1.36758e-05
1.26782e-05
1.16208e-05
1.05067e-05
9.33922e-06
8.11951e-06
6.84962e-06
5.53218e-06
4.16884e-06
2.76131e-06
1.31094e-06
-1.81895e-07
-1.71474e-06
-3.28473e-06
-4.89138e-06
-6.53417e-06
-8.21136e-06
-9.92085e-06
-1.16623e-05
-1.34355e-05
-1.52384e-05
-1.70684e-05
-1.89241e-05
-2.08044e-05
-2.27086e-05
-2.46356e-05
-2.65838e-05
-2.85525e-05
-3.05424e-05
-3.25533e-05
-3.45841e-05
-3.66322e-05
-3.86964e-05
-4.07767e-05
-4.28728e-05
-4.49828e-05
-4.71051e-05
-4.92396e-05
-5.13869e-05
-5.35469e-05
-5.57189e-05
-5.79014e-05
-6.00933e-05
-6.22941e-05
-6.45039e-05
-6.67223e-05
-6.89476e-05
-7.1178e-05
-7.34139e-05
-7.56567e-05
-7.79067e-05
-8.01615e-05
-8.24189e-05
-8.46782e-05
-8.69396e-05
-8.92027e-05
-9.1466e-05
-9.37285e-05
-9.599e-05
-9.82505e-05
-0.000100511
-0.00010277
-0.000105028
-0.000107282
-0.000109528
-0.000111766
-0.000113997
-0.000116222
-0.00011844
-0.000120649
-0.000122846
-0.000125031
-0.000127203
-0.000129362
-0.000131506
-0.000133634
-0.000135744
-0.000137836
-0.000139909
-0.000141962
-0.000143993
-0.000146
-0.000147981
-0.000149934
-0.000151858
-0.000153752
-0.000155617
-0.00015745
-0.000159249
-0.000161012
-0.000162738
-0.000164425
-0.000166072
-0.000167676
-0.000169237
-0.000170751
-0.000172216
-0.000173633
-0.000175002
-0.00017632
-0.000177586
-0.000178798
-0.000179951
-0.000181046
-0.000182082
-0.00018306
-0.000183979
-0.000184837
-0.000185633
-0.000186364
-0.00018703
-0.000187631
-0.000188166
-0.000188636
-0.000189043
-0.000189385
-0.000189663
-0.000189878
-0.000190029
-0.00019012
-0.000190151
-0.000190126
-0.000190045
-0.000189909
-0.000189722
-0.000189485
-0.000189198
-0.000188865
-0.00018849
-0.000188026
-0.000187434
1.45145e-05
1.52425e-05
1.58884e-05
1.6488e-05
1.70863e-05
1.7673e-05
1.8232e-05
1.87568e-05
1.92393e-05
1.967e-05
2.0043e-05
2.0354e-05
2.05982e-05
2.07718e-05
2.0873e-05
2.09013e-05
2.08564e-05
2.07376e-05
2.05456e-05
2.02808e-05
1.99425e-05
1.95323e-05
1.90514e-05
1.85004e-05
1.78811e-05
1.71955e-05
1.64443e-05
1.56288e-05
1.47512e-05
1.38123e-05
1.28127e-05
1.17549e-05
1.06416e-05
9.4745e-06
8.25603e-06
6.98826e-06
5.67294e-06
4.3117e-06
2.90577e-06
1.45637e-06
-3.50066e-08
-1.56577e-06
-3.13462e-06
-4.74147e-06
-6.38427e-06
-8.06064e-06
-9.77029e-06
-1.1513e-05
-1.32874e-05
-1.50913e-05
-1.69224e-05
-1.87794e-05
-2.06618e-05
-2.25686e-05
-2.44985e-05
-2.645e-05
-2.84228e-05
-3.04177e-05
-3.24341e-05
-3.44698e-05
-3.65228e-05
-3.85928e-05
-4.068e-05
-4.27829e-05
-4.4899e-05
-4.70277e-05
-4.91697e-05
-5.13253e-05
-5.34937e-05
-5.56737e-05
-5.78642e-05
-6.00644e-05
-6.2274e-05
-6.44928e-05
-6.67196e-05
-6.89527e-05
-7.11913e-05
-7.34361e-05
-7.56885e-05
-7.79475e-05
-8.02108e-05
-8.24764e-05
-8.47439e-05
-8.70136e-05
-8.92845e-05
-9.1555e-05
-9.38242e-05
-9.60923e-05
-9.83597e-05
-0.000100627
-0.000102894
-0.000105158
-0.000107416
-0.000109666
-0.000111909
-0.000114145
-0.000116374
-0.000118595
-0.000120806
-0.000123004
-0.000125191
-0.000127364
-0.000129524
-0.000131668
-0.000133795
-0.000135904
-0.000137995
-0.000140065
-0.000142116
-0.000144145
-0.000146148
-0.000148125
-0.000150072
-0.000151991
-0.000153881
-0.000155741
-0.000157568
-0.00015936
-0.000161117
-0.000162836
-0.000164517
-0.000166157
-0.000167754
-0.000169307
-0.000170813
-0.000172271
-0.000173681
-0.000175044
-0.000176356
-0.000177616
-0.000178821
-0.000179968
-0.000181058
-0.00018209
-0.000183063
-0.000183979
-0.000184835
-0.000185628
-0.000186358
-0.000187023
-0.000187623
-0.000188158
-0.00018863
-0.000189039
-0.000189383
-0.000189663
-0.000189879
-0.000190033
-0.000190125
-0.000190157
-0.000190131
-0.000190047
-0.000189905
-0.000189709
-0.000189458
-0.000189153
-0.000188797
-0.000188392
-0.000187888
-0.000187241
1.52504e-05
1.60026e-05
1.6652e-05
1.7241e-05
1.78189e-05
1.83727e-05
1.88965e-05
1.9384e-05
1.98265e-05
2.02184e-05
2.0554e-05
2.08286e-05
2.10383e-05
2.11811e-05
2.12543e-05
2.12576e-05
2.11898e-05
2.10509e-05
2.08413e-05
2.05602e-05
2.02079e-05
1.97855e-05
1.92934e-05
1.87327e-05
1.8106e-05
1.74135e-05
1.6656e-05
1.58358e-05
1.49538e-05
1.40101e-05
1.30074e-05
1.19481e-05
1.08335e-05
9.66555e-06
8.44691e-06
7.17927e-06
5.86438e-06
4.50352e-06
3.097e-06
1.64689e-06
1.55857e-07
-1.37484e-06
-2.94484e-06
-4.55293e-06
-6.19647e-06
-7.87406e-06
-9.58612e-06
-1.13314e-05
-1.31078e-05
-1.49138e-05
-1.67473e-05
-1.86074e-05
-2.04935e-05
-2.24038e-05
-2.43372e-05
-2.62932e-05
-2.82719e-05
-3.02732e-05
-3.22957e-05
-3.4337e-05
-3.63963e-05
-3.84737e-05
-4.05682e-05
-4.2678e-05
-4.48011e-05
-4.69376e-05
-4.90881e-05
-5.12526e-05
-5.34299e-05
-5.56187e-05
-5.78179e-05
-6.00273e-05
-6.22466e-05
-6.4475e-05
-6.67104e-05
-6.89517e-05
-7.11994e-05
-7.34545e-05
-7.57171e-05
-7.79853e-05
-8.02572e-05
-8.25318e-05
-8.48088e-05
-8.70874e-05
-8.93667e-05
-9.1645e-05
-9.39218e-05
-9.61975e-05
-9.84729e-05
-0.000100749
-0.000103023
-0.000105293
-0.000107556
-0.000109812
-0.00011206
-0.000114302
-0.000116536
-0.000118761
-0.000120975
-0.000123176
-0.000125365
-0.000127541
-0.000129703
-0.000131848
-0.000133976
-0.000136084
-0.000138174
-0.000140245
-0.000142294
-0.000144321
-0.000146322
-0.000148296
-0.00015024
-0.000152156
-0.000154043
-0.000155899
-0.000157721
-0.000159508
-0.00016126
-0.000162974
-0.000164649
-0.000166284
-0.000167876
-0.000169422
-0.000170922
-0.000172375
-0.00017378
-0.000175138
-0.000176445
-0.000177701
-0.0001789
-0.000180043
-0.000181128
-0.000182157
-0.000183128
-0.000184041
-0.000184894
-0.000185686
-0.000186414
-0.000187079
-0.000187679
-0.000188216
-0.000188689
-0.000189099
-0.000189444
-0.000189725
-0.000189943
-0.000190097
-0.000190189
-0.000190221
-0.000190193
-0.000190105
-0.000189957
-0.00018975
-0.000189486
-0.000189163
-0.000188784
-0.000188352
-0.000187812
-0.000187116
1.59975e-05
1.67717e-05
1.74273e-05
1.80104e-05
1.8571e-05
1.91035e-05
1.96003e-05
2.00553e-05
2.04645e-05
2.0823e-05
2.11253e-05
2.1367e-05
2.15457e-05
2.16598e-05
2.17073e-05
2.16866e-05
2.15971e-05
2.14389e-05
2.1211e-05
2.09131e-05
2.05464e-05
2.01104e-05
1.96063e-05
1.9036e-05
1.83997e-05
1.76984e-05
1.69339e-05
1.61072e-05
1.52184e-05
1.42694e-05
1.32624e-05
1.21994e-05
1.10819e-05
9.91191e-06
8.69154e-06
7.42247e-06
6.10626e-06
4.74351e-06
3.33487e-06
1.88343e-06
3.91063e-07
-1.1423e-06
-2.71507e-06
-4.32496e-06
-5.9706e-06
-7.6516e-06
-9.36747e-06
-1.11163e-05
-1.28961e-05
-1.47051e-05
-1.65424e-05
-1.84071e-05
-2.02981e-05
-2.22131e-05
-2.41513e-05
-2.61134e-05
-2.80993e-05
-3.01079e-05
-3.21369e-05
-3.41849e-05
-3.62521e-05
-3.83379e-05
-4.04401e-05
-4.25571e-05
-4.46883e-05
-4.68338e-05
-4.89938e-05
-5.11679e-05
-5.33547e-05
-5.5553e-05
-5.77619e-05
-5.99815e-05
-6.22113e-05
-6.44493e-05
-6.66937e-05
-6.8944e-05
-7.1202e-05
-7.34682e-05
-7.57412e-05
-7.80191e-05
-8.03005e-05
-8.2585e-05
-8.48722e-05
-8.71605e-05
-8.94486e-05
-9.17354e-05
-9.40207e-05
-9.63053e-05
-9.85899e-05
-0.000100874
-0.000103157
-0.000105433
-0.000107702
-0.000109964
-0.00011222
-0.000114468
-0.000116708
-0.000118938
-0.000121156
-0.000123362
-0.000125555
-0.000127735
-0.000129899
-0.000132046
-0.000134175
-0.000136285
-0.000138376
-0.000140447
-0.000142497
-0.000144523
-0.000146522
-0.000148495
-0.000150439
-0.000152353
-0.000154238
-0.000156091
-0.00015791
-0.000159693
-0.000161441
-0.000163151
-0.000164823
-0.000166454
-0.000168041
-0.000169583
-0.000171079
-0.000172527
-0.00017393
-0.000175284
-0.000176588
-0.000177839
-0.000179035
-0.000180174
-0.000181257
-0.000182283
-0.000183253
-0.000184164
-0.000185015
-0.000185805
-0.000186533
-0.000187197
-0.000187799
-0.000188337
-0.000188812
-0.000189223
-0.000189569
-0.00018985
-0.000190068
-0.000190222
-0.000190315
-0.000190346
-0.000190315
-0.000190222
-0.000190067
-0.000189851
-0.000189572
-0.000189232
-0.000188833
-0.000188376
-0.000187803
-0.000187066
1.67684e-05
1.75642e-05
1.82271e-05
1.88039e-05
1.9354e-05
1.98699e-05
2.03439e-05
2.07729e-05
2.11539e-05
2.14825e-05
2.1755e-05
2.1968e-05
2.21191e-05
2.22068e-05
2.22299e-05
2.21863e-05
2.20766e-05
2.18988e-05
2.16522e-05
2.13381e-05
2.09556e-05
2.05053e-05
1.99893e-05
1.94075e-05
1.87602e-05
1.80497e-05
1.72765e-05
1.64409e-05
1.55443e-05
1.45891e-05
1.35764e-05
1.25081e-05
1.13865e-05
1.0213e-05
8.98963e-06
7.71782e-06
6.39799e-06
5.03139e-06
3.61998e-06
2.16594e-06
6.69908e-07
-8.67652e-07
-2.44399e-06
-4.05724e-06
-5.70712e-06
-7.39305e-06
-9.11367e-06
-1.08672e-05
-1.26514e-05
-1.44651e-05
-1.63076e-05
-1.81779e-05
-2.00743e-05
-2.19951e-05
-2.39401e-05
-2.59101e-05
-2.79043e-05
-2.99204e-05
-3.19569e-05
-3.40133e-05
-3.60895e-05
-3.81841e-05
-4.02945e-05
-4.24197e-05
-4.45599e-05
-4.67155e-05
-4.8886e-05
-5.10703e-05
-5.32672e-05
-5.54757e-05
-5.76955e-05
-5.99265e-05
-6.2167e-05
-6.44147e-05
-6.66687e-05
-6.89297e-05
-7.11989e-05
-7.34764e-05
-7.57601e-05
-7.80484e-05
-8.03404e-05
-8.26358e-05
-8.49337e-05
-8.72324e-05
-8.95301e-05
-9.1826e-05
-9.41207e-05
-9.64155e-05
-9.87103e-05
-0.000101004
-0.000103294
-0.000105578
-0.000107855
-0.000110124
-0.000112388
-0.000114644
-0.00011689
-0.000119125
-0.000121349
-0.00012356
-0.000125759
-0.000127944
-0.000130112
-0.000132262
-0.000134393
-0.000136505
-0.000138599
-0.000140672
-0.000142723
-0.00014475
-0.000146749
-0.000148722
-0.000150667
-0.000152582
-0.000154466
-0.000156317
-0.000158133
-0.000159915
-0.00016166
-0.000163368
-0.000165037
-0.000166666
-0.000168251
-0.00016979
-0.000171283
-0.000172729
-0.000174129
-0.000175481
-0.000176782
-0.00017803
-0.000179224
-0.000180361
-0.000181443
-0.000182469
-0.000183437
-0.000184347
-0.000185197
-0.000185986
-0.000186713
-0.000187379
-0.000187982
-0.000188522
-0.000188999
-0.000189411
-0.000189757
-0.000190038
-0.000190256
-0.000190411
-0.000190503
-0.000190534
-0.0001905
-0.000190402
-0.000190239
-0.000190013
-0.000189721
-0.000189365
-0.000188947
-0.000188468
-0.000187868
-0.000187095
1.75753e-05
1.83889e-05
1.90576e-05
1.96334e-05
2.01753e-05
2.06756e-05
2.11311e-05
2.15387e-05
2.18949e-05
2.2197e-05
2.24429e-05
2.26302e-05
2.27566e-05
2.28204e-05
2.28201e-05
2.27559e-05
2.26253e-05
2.24277e-05
2.21636e-05
2.18321e-05
2.14335e-05
2.09694e-05
2.04399e-05
1.98453e-05
1.91869e-05
1.84657e-05
1.76818e-05
1.68362e-05
1.5931e-05
1.4968e-05
1.39483e-05
1.2874e-05
1.17469e-05
1.05685e-05
9.34082e-06
8.06431e-06
6.73905e-06
5.36773e-06
3.95241e-06
2.49352e-06
9.9197e-07
-5.50397e-07
-2.13132e-06
-3.74984e-06
-5.40585e-06
-7.09794e-06
-8.82436e-06
-1.05834e-05
-1.23733e-05
-1.41933e-05
-1.60427e-05
-1.79194e-05
-1.98219e-05
-2.17499e-05
-2.37034e-05
-2.56825e-05
-2.76853e-05
-2.97098e-05
-3.17552e-05
-3.38215e-05
-3.59075e-05
-3.8011e-05
-4.01304e-05
-4.22651e-05
-4.44156e-05
-4.65821e-05
-4.87637e-05
-5.09589e-05
-5.31666e-05
-5.53864e-05
-5.76183e-05
-5.98611e-05
-6.21125e-05
-6.43704e-05
-6.66353e-05
-6.89083e-05
-7.11897e-05
-7.34787e-05
-7.57735e-05
-7.8073e-05
-8.03768e-05
-8.2684e-05