/*--------------------------------*- C++ -*----------------------------------*\
  =========                 |
  \\      /  F ield         | OpenFOAM: The Open Source CFD Toolbox
   \\    /   O peration     | Website:  https://openfoam.org
    \\  /    A nd           | Version:  7
     \\/     M anipulation  |
\*---------------------------------------------------------------------------*/
FoamFile
{
    version     2.0;
    format      ascii;
    class       volScalarField;
    location    "0.35";
    object      p;
}
// * * * * * * * * * * * * * * * * * * * * * * * * * * * * * * * * * * * * * //

dimensions      [0 2 -2 0 0 0 0];

internalField   nonuniform List<scalar> 
12800
(
2.74357e-06
3.25581e-05
6.22991e-07
-0.000104406
-0.000274781
-0.000500527
-0.000770969
-0.00107571
-0.00140529
-0.00175142
-0.00210699
-0.00246588
-0.00282305
-0.00317429
-0.00351611
-0.00384575
-0.00416102
-0.00446025
-0.00474219
-0.00500593
-0.00525093
-0.00547688
-0.00568368
-0.0058714
-0.00604023
-0.00619049
-0.00632257
-0.00643691
-0.00653395
-0.00661419
-0.00667808
-0.00672609
-0.00675867
-0.00677621
-0.00677906
-0.00676754
-0.00674191
-0.0067024
-0.00664918
-0.00658236
-0.00650198
-0.00640805
-0.00630051
-0.00617925
-0.00604414
-0.00589495
-0.00573144
-0.00555327
-0.00536009
-0.00515147
-0.00492695
-0.00468604
-0.00442818
-0.00415277
-0.00385914
-0.00354659
-0.00321437
-0.00286168
-0.00248767
-0.00209144
-0.00167204
-0.00122848
-0.000759714
-0.00026463
0.000257923
0.000809157
0.00139033
0.00200277
0.00264784
0.00332695
0.00404157
0.00479323
0.00558349
0.00641397
0.00728634
0.0082023
0.00916362
0.0101721
0.0112295
0.0123376
0.0134984
0.0147138
0.0159854
0.0173153
0.0187052
0.020157
0.0216725
0.0232533
0.0249011
0.0266174
0.0284038
0.0302616
0.032192
0.0341959
0.0362744
0.038428
0.0406571
0.0429618
0.0453421
0.0477974
0.050327
0.0529297
0.055604
0.0583477
0.0611585
0.0640334
0.066969
0.0699613
0.0730058
0.0760974
0.0792305
0.0823988
0.0855955
0.0888132
0.092044
0.0952793
0.09851
0.101727
0.104919
0.108078
0.111191
0.114247
0.117237
0.120147
0.122968
0.125687
0.128294
0.130778
0.133129
0.135336
0.137392
0.139287
0.141015
0.142568
0.143943
0.145136
0.146143
0.146964
0.1476
0.148053
0.148326
0.148425
0.148356
0.14813
0.147757
0.147248
0.146618
0.145884
0.145061
0.144172
0.143237
0.14228
0.141329
0.140413
0.139566
0.138825
0.138228
0.137817
0.137631
0.137658
-2.12274e-05
6.90797e-06
-2.70873e-05
-0.000123642
-0.000273918
-0.00047109
-0.000707584
-0.00097534
-0.00126668
-0.00157461
-0.0018929
-0.0022161
-0.00253957
-0.00285934
-0.00317209
-0.00347511
-0.0037662
-0.00404362
-0.00430602
-0.0045524
-0.00478206
-0.00499455
-0.0051896
-0.00536712
-0.00552716
-0.00566988
-0.00579553
-0.0059044
-0.0059968
-0.00607309
-0.00613362
-0.00617874
-0.00620881
-0.00622413
-0.00622496
-0.00621154
-0.00618407
-0.00614273
-0.00608762
-0.00601882
-0.00593633
-0.00584011
-0.00573007
-0.00560609
-0.005468
-0.00531558
-0.00514854
-0.00496657
-0.00476927
-0.00455623
-0.00432699
-0.00408105
-0.00381785
-0.00353679
-0.00323724
-0.00291848
-0.00257978
-0.00222034
-0.00183933
-0.00143589
-0.00100907
-0.000557924
-8.14154e-05
0.000421526
0.000952026
0.00151126
0.00210045
0.00272087
0.00337384
0.00406072
0.00478292
0.00554192
0.00633921
0.00717635
0.00805492
0.00897658
0.00994297
0.0109558
0.0120168
0.0131277
0.0142903
0.0155062
0.0167774
0.0181054
0.019492
0.020939
0.0224479
0.0240204
0.0256579
0.027362
0.0291338
0.0309747
0.0328857
0.0348677
0.0369214
0.0390474
0.0412459
0.0435169
0.0458603
0.0482754
0.0507614
0.053317
0.0559405
0.0586301
0.0613831
0.0641966
0.0670673
0.0699912
0.0729639
0.0759804
0.0790352
0.0821223
0.0852351
0.0883665
0.0915088
0.0946537
0.0977928
0.100917
0.104016
0.107081
0.110101
0.113066
0.115966
0.118789
0.121525
0.124164
0.126694
0.129107
0.131392
0.133541
0.135545
0.137396
0.139088
0.140616
0.141974
0.14316
0.144171
0.145007
0.145668
0.146158
0.146479
0.146637
0.146639
0.146494
0.146212
0.145805
0.145287
0.144672
0.143978
0.143222
0.142426
0.141612
0.140804
0.140028
0.139313
0.138688
0.138183
0.137827
0.137657
0.137685
1.43736e-05
4.32918e-05
8.61853e-06
-8.35646e-05
-0.000222536
-0.000402559
-0.000617544
-0.000860826
-0.00112595
-0.00140689
-0.00169817
-0.00199496
-0.00229299
-0.00258859
-0.00287865
-0.00316059
-0.00343224
-0.00369189
-0.00393815
-0.00416999
-0.00438663
-0.00458752
-0.0047723
-0.00494079
-0.00509292
-0.00522875
-0.00534842
-0.0054521
-0.00554003
-0.00561245
-0.00566964
-0.00571186
-0.00573938
-0.00575243
-0.00575122
-0.0057359
-0.00570664
-0.00566356
-0.00560672
-0.00553615
-0.00545182
-0.00535365
-0.00524155
-0.00511536
-0.00497489
-0.00481991
-0.00465011
-0.00446517
-0.00426469
-0.00404825
-0.00381539
-0.0035656
-0.00329833
-0.003013
-0.00270896
-0.00238551
-0.00204193
-0.00167744
-0.00129121
-0.000882403
-0.000450101
6.63951e-06
0.000488816
0.000997477
0.00153372
0.00209869
0.00269357
0.0033196
0.00397806
0.00467026
0.00539756
0.00616139
0.0069632
0.00780448
0.00868677
0.00961162
0.0105807
0.0115955
0.0126578
0.0137692
0.0149313
0.0161459
0.0174147
0.0187392
0.0201211
0.021562
0.0230634
0.0246268
0.0262537
0.0279453
0.029703
0.0315278
0.0334206
0.0353824
0.0374136
0.0395149
0.0416862
0.0439277
0.046239
0.0486194
0.0510681
0.0535838
0.0561648
0.058809
0.061514
0.064277
0.0670944
0.0699625
0.072877
0.075833
0.0788252
0.0818475
0.0848938
0.087957
0.0910297
0.0941041
0.0971718
0.100224
0.103251
0.106245
0.109194
0.11209
0.114921
0.117678
0.120351
0.122929
0.125403
0.127763
0.13
0.132106
0.134072
0.135892
0.137559
0.139068
0.140416
0.141598
0.142613
0.143461
0.144143
0.144661
0.145019
0.145222
0.145277
0.145193
0.14498
0.144649
0.144213
0.143686
0.143084
0.142426
0.141729
0.141014
0.140304
0.139621
0.13899
0.138436
0.137983
0.137655
0.137487
0.1375
0.000122644
0.00014234
0.000101788
8.63874e-06
-0.000126377
-0.000297853
-0.000500407
-0.000728289
-0.000975889
-0.00123795
-0.00150968
-0.00178673
-0.00206525
-0.00234189
-0.00261379
-0.00287853
-0.00313405
-0.00337869
-0.00361112
-0.0038303
-0.00403543
-0.00422591
-0.00440134
-0.00456146
-0.00470617
-0.00483543
-0.0049493
-0.0050479
-0.00513136
-0.00519986
-0.00525363
-0.00529285
-0.00531772
-0.00532841
-0.00532505
-0.00530779
-0.00527673
-0.00523194
-0.00517345
-0.00510124
-0.00501525
-0.00491539
-0.00480152
-0.00467349
-0.00453107
-0.00437402
-0.00420203
-0.00401473
-0.00381175
-0.00359266
-0.00335699
-0.00310424
-0.00283387
-0.00254527
-0.00223781
-0.00191082
-0.00156357
-0.00119529
-0.000805178
-0.000392402
4.39263e-05
0.000504735
0.000990999
0.00150374
0.00204403
0.00261298
0.00321175
0.00384153
0.00450357
0.00519914
0.00592957
0.00669622
0.0075005
0.00834385
0.00922775
0.0101537
0.0111233
0.0121381
0.0131996
0.0143094
0.0154693
0.0166806
0.0179452
0.0192644
0.0206399
0.0220732
0.0235658
0.025119
0.0267343
0.0284128
0.0301558
0.0319642
0.033839
0.035781
0.0377906
0.0398683
0.0420141
0.0442281
0.0465099
0.0488588
0.0512739
0.0537538
0.056297
0.0589014
0.0615647
0.0642838
0.0670556
0.0698762
0.0727415
0.0756467
0.0785865
0.0815553
0.0845468
0.0875543
0.0905707
0.0935881
0.0965987
0.0995937
0.102564
0.105502
0.108396
0.111237
0.114016
0.116723
0.119347
0.12188
0.124311
0.126632
0.128834
0.130908
0.132847
0.134645
0.136295
0.137792
0.139133
0.140314
0.141334
0.142193
0.142892
0.143433
0.14382
0.144058
0.144155
0.144118
0.143956
0.143682
0.143307
0.142845
0.142311
0.141722
0.141094
0.140448
0.139803
0.139179
0.138597
0.13808
0.137649
0.137323
0.137131
0.137094
0.00029722
0.000295821
0.00024222
0.00014275
6.32039e-06
-0.000162054
-0.000357576
-0.000575241
-0.00081019
-0.00105787
-0.00131408
-0.00157498
-0.00183713
-0.00209752
-0.00235356
-0.002603
-0.00284396
-0.00307487
-0.00329447
-0.00350176
-0.00369593
-0.00387639
-0.00404271
-0.00419461
-0.00433192
-0.00445457
-0.00456255
-0.0046559
-0.00473472
-0.00479914
-0.0048493
-0.00488534
-0.0049074
-0.00491557
-0.00490995
-0.00489065
-0.00485772
-0.0048112
-0.00475105
-0.00467724
-0.00458967
-0.00448823
-0.00437275
-0.00424307
-0.00409894
-0.0039401
-0.00376621
-0.00357692
-0.00337183
-0.00315052
-0.00291252
-0.00265732
-0.00238438
-0.00209311
-0.00178288
-0.00145301
-0.0011028
-0.000731492
-0.000338303
7.75901e-05
0.000517052
0.000980989
0.00147036
0.00198615
0.00252941
0.00310122
0.0037027
0.00433502
0.00499937
0.005697
0.00642918
0.00719724
0.00800254
0.00884647
0.00973047
0.010656
0.0116245
0.0126375
0.0136966
0.0148033
0.015959
0.0171654
0.018424
0.0197363
0.0211037
0.0225278
0.0240099
0.0255513
0.0271535
0.0288174
0.0305444
0.0323352
0.0341909
0.036112
0.0380991
0.0401526
0.0422725
0.0444588
0.0467111
0.0490287
0.0514107
0.0538558
0.0563625
0.0589287
0.061552
0.0642297
0.0669585
0.0697347
0.0725543
0.0754127
0.0783047
0.0812248
0.0841669
0.0871245
0.0900905
0.0930577
0.096018
0.0989632
0.101885
0.104773
0.10762
0.110416
0.113151
0.115816
0.1184
0.120896
0.123292
0.125582
0.127755
0.129805
0.131724
0.133504
0.135142
0.136631
0.137968
0.139151
0.140177
0.141047
0.141761
0.142323
0.142736
0.143005
0.143136
0.143138
0.14302
0.142792
0.142467
0.142058
0.141578
0.141043
0.140469
0.139874
0.139275
0.13869
0.138139
0.137639
0.137209
0.136866
0.136629
0.136508
0.00052953
0.000497841
0.000424727
0.000313847
0.000171039
8.26167e-07
-0.000192478
-0.000404561
-0.000631268
-0.000868673
-0.00111311
-0.00136121
-0.00160999
-0.00185676
-0.0020992
-0.00233529
-0.00256332
-0.00278185
-0.00298973
-0.003186
-0.00336991
-0.00354088
-0.00369847
-0.0038424
-0.00397248
-0.0040886
-0.00419071
-0.0042788
-0.00435293
-0.00441319
-0.00445965
-0.00449242
-0.00451156
-0.00451714
-0.00450922
-0.00448784
-0.00445304
-0.00440479
-0.00434304
-0.00426771
-0.00417868
-0.00407581
-0.00395892
-0.00382781
-0.00368223
-0.00352189
-0.00334645
-0.00315554
-0.00294876
-0.00272569
-0.00248584
-0.00222873
-0.0019538
-0.00166047
-0.00134812
-0.00101608
-0.000663648
-0.000290094
0.000105351
0.000523491
0.00096517
0.00143128
0.00192274
0.00244053
0.00298566
0.00355918
0.00416218
0.00479579
0.00546117
0.00615951
0.00689206
0.00766011
0.00846496
0.00930795
0.0101905
0.0111139
0.0120798
0.0130895
0.0141444
0.0152462
0.0163962
0.0175959
0.0188468
0.0201504
0.0215081
0.0229212
0.0243912
0.0259193
0.0275068
0.0291547
0.0308643
0.0326363
0.0344717
0.036371
0.0383348
0.0403635
0.042457
0.0446154
0.0468382
0.0491248
0.0514743
0.0538855
0.0563568
0.0588862
0.0614716
0.06411
0.0667985
0.0695335
0.0723109
0.0751264
0.0779748
0.0808509
0.0837488
0.0866621
0.089584
0.0925071
0.095424
0.0983265
0.101206
0.104054
0.106862
0.10962
0.112319
0.114949
0.117502
0.119968
0.122338
0.124604
0.126756
0.128788
0.130692
0.132462
0.134092
0.135577
0.136914
0.1381
0.139134
0.140015
0.140745
0.141326
0.141761
0.142056
0.142217
0.142252
0.142169
0.14198
0.141694
0.141326
0.140887
0.140392
0.139857
0.139297
0.138728
0.138166
0.137628
0.137128
0.136683
0.136308
0.136008
0.135782
0.000810138
0.000741594
0.000643755
0.000516955
0.000363298
0.000186818
-8.6059e-06
-0.000219336
-0.000441845
-0.000672758
-0.000908922
-0.00114745
-0.00138575
-0.00162147
-0.00185258
-0.00207728
-0.00229406
-0.00250166
-0.00269902
-0.00288527
-0.00305973
-0.00322184
-0.00337122
-0.00350758
-0.00363072
-0.00374051
-0.00383687
-0.00391979
-0.00398928
-0.00404539
-0.00408817
-0.00411765
-0.00413386
-0.00413685
-0.00412663
-0.00410321
-0.00406658
-0.00401667
-0.00395342
-0.00387669
-0.00378635
-0.00368224
-0.00356416
-0.00343189
-0.00328515
-0.00312364
-0.00294701
-0.00275489
-0.00254686
-0.0023225
-0.00208134
-0.00182287
-0.00154655
-0.00125181
-0.000938012
-0.000604515
-0.000250631
0.000124356
0.0005212
0.000940686
0.00138364
0.00185092
0.00234344
0.00286214
0.00340801
0.00398206
0.00458535
0.00521897
0.00588404
0.00658173
0.00731323
0.0080798
0.00888269
0.0097232
0.0106027
0.0115225
0.012484
0.0134886
0.0145377
0.0156328
0.0167753
0.0179666
0.0192081
0.0205013
0.0218475
0.023248
0.0247043
0.0262174
0.0277887
0.0294192
0.03111
0.032862
0.0346759
0.0365525
0.0384923
0.0404954
0.0425622
0.0446924
0.0468857
0.0491416
0.0514592
0.0538373
0.0562744
0.0587687
0.0613179
0.0639194
0.0665702
0.0692669
0.0720056
0.074782
0.0775912
0.080428
0.0832868
0.0861612
0.0890447
0.0919303
0.0948103
0.097677
0.100522
0.103337
0.106113
0.108841
0.111512
0.114116
0.116646
0.11909
0.121441
0.12369
0.125829
0.12785
0.129746
0.13151
0.133138
0.134624
0.135964
0.137157
0.1382
0.139093
0.139838
0.140437
0.140892
0.14121
0.141396
0.141457
0.141403
0.141243
0.140988
0.14065
0.140241
0.139775
0.139265
0.138726
0.138172
0.137618
0.137077
0.136563
0.136089
0.135669
0.135294
0.134953
0.00112959
0.00101965
0.000893042
0.000746561
0.000578284
0.000391772
0.000190494
-2.25206e-05
-0.000244316
-0.000472038
-0.000703032
-0.00093485
-0.00116527
-0.00139229
-0.00161413
-0.00182929
-0.00203644
-0.00223449
-0.00242251
-0.00259974
-0.00276557
-0.00291952
-0.00306125
-0.00319049
-0.00330704
-0.00341077
-0.0035016
-0.0035795
-0.00364448
-0.00369654
-0.0037357
-0.00376195
-0.00377529
-0.00377574
-0.00376329
-0.0037379
-0.00369953
-0.00364809
-0.00358345
-0.00350548
-0.00341402
-0.00330889
-0.00318987
-0.0030567
-0.00290911
-0.00274677
-0.00256933
-0.00237639
-0.00216756
-0.00194239
-0.00170043
-0.00144116
-0.00116405
-0.000868517
-0.000553952
-0.000219714
0.000134867
0.000510491
0.000907891
0.00132783
0.00177113
0.00223861
0.00273116
0.0032497
0.00379518
0.00436859
0.00497096
0.00560332
0.00626677
0.00696244
0.00769149
0.00845511
0.00925454
0.010091
0.0109659
0.0118804
0.0128359
0.0138337
0.0148753
0.0159621
0.0170953
0.0182764
0.0195068
0.0207877
0.0221207
0.0235069
0.0249477
0.0264442
0.0279978
0.0296093
0.0312799
0.0330105
0.0348018
0.0366546
0.0385692
0.0405461
0.0425855
0.0446871
0.0468509
0.0490762
0.0513621
0.0537078
0.0561116
0.0585718
0.0610864
0.0636529
0.0662683
0.0689293
0.0716322
0.0743729
0.0771466
0.0799483
0.0827725
0.0856131
0.0884636
0.0913171
0.0941663
0.0970036
0.0998207
0.102609
0.105361
0.108066
0.110717
0.113303
0.115816
0.118246
0.120586
0.122826
0.124958
0.126974
0.128868
0.130633
0.132263
0.133754
0.135102
0.136304
0.137359
0.138266
0.139026
0.139642
0.140116
0.140454
0.140661
0.140745
0.140713
0.140576
0.140344
0.140027
0.139638
0.139189
0.138693
0.138163
0.137612
0.137053
0.136498
0.135958
0.135446
0.134971
0.134515
0.134054
0.00147907
0.00132468
0.00116628
0.000997113
0.000811122
0.00061142
0.00040114
0.000182758
-4.13093e-05
-0.000268712
-0.000497247
-0.000724877
-0.000949738
-0.00117016
-0.00138466
-0.00159198
-0.00179101
-0.00198084
-0.00216066
-0.00232985
-0.0024879
-0.00263441
-0.00276908
-0.00289169
-0.00300206
-0.00310007
-0.00318566
-0.00325878
-0.00331943
-0.00336759
-0.00340325
-0.00342639
-0.00343698
-0.00343501
-0.00342044
-0.00339321
-0.00335324
-0.00330039
-0.00323454
-0.00315552
-0.00306315
-0.00295723
-0.00283752
-0.00270375
-0.00255563
-0.0023928
-0.00221491
-0.00202158
-0.00181238
-0.00158689
-0.00134464
-0.00108512
-0.000807791
-0.000512092
-0.000197417
0.000136862
0.000491398
0.000866874
0.001264
0.00168353
0.00212625
0.00259296
0.00308454
0.00360187
0.00414586
0.00471748
0.00531771
0.00594756
0.0066081
0.0073004
0.00802559
0.00878483
0.0095793
0.0104102
0.0112788
0.0121864
0.0131343
0.0141237
0.015156
0.0162326
0.0173548
0.0185239
0.0197413
0.0210083
0.0223263
0.0236964
0.02512
0.0265982
0.0281323
0.0297233
0.0313722
0.03308
0.0348473
0.036675
0.0385635
0.0405132
0.0425244
0.0445969
0.0467307
0.0489251
0.0511796
0.0534931
0.0558642
0.0582913
0.0607725
0.0633054
0.0658872
0.0685147
0.0711845
0.0738923
0.0766338
0.0794041
0.0821977
0.0850088
0.087831
0.0906576
0.0934815
0.096295
0.0990902
0.101859
0.104592
0.107282
0.109919
0.112493
0.114997
0.117421
0.119756
0.121993
0.124125
0.126144
0.128042
0.129813
0.131451
0.132952
0.134311
0.135526
0.136595
0.137518
0.138295
0.138928
0.13942
0.139777
0.140003
0.140105
0.140092
0.139972
0.139755
0.139453
0.139075
0.138635
0.138143
0.137613
0.137055
0.136481
0.135902
0.135327
0.134768
0.134233
0.133691
0.13311
0.00185058
0.00164973
0.00145736
0.00126317
0.00105695
0.000841459
0.000619557
0.000393203
0.0001643
-6.52667e-05
-0.000293708
-0.000519367
-0.000740734
-0.000956464
-0.00116537
-0.00136644
-0.00155877
-0.00174161
-0.00191435
-0.00207647
-0.00222759
-0.00236739
-0.00249565
-0.00261217
-0.00271681
-0.00280949
-0.00289016
-0.0029588
-0.00301537
-0.00305985
-0.00309221
-0.00311241
-0.00312041
-0.00311619
-0.00309966
-0.00307075
-0.00302934
-0.00297528
-0.0029084
-0.00282855
-0.0027355
-0.00262905
-0.00250893
-0.00237486
-0.00222651
-0.00206355
-0.0018856
-0.00169228
-0.00148316
-0.00125782
-0.00101578
-0.000756538
-0.000479573
-0.000184316
0.000129822
0.000463453
0.000817217
0.00119178
0.00158782
0.00200609
0.00244732
0.00291233
0.00340194
0.00391702
0.00445844
0.00502712
0.00562403
0.00625014
0.00690646
0.00759406
0.00831401
0.00906742
0.00985545
0.0106793
0.0115401
0.0124391
0.0133777
0.0143569
0.0153783
0.016443
0.0175524
0.0187077
0.0199103
0.0211615
0.0224626
0.0238148
0.0252194
0.0266776
0.0281905
0.0297593
0.0313849
0.0330682
0.0348102
0.0366114
0.0384726
0.0403941
0.0423761
0.0444188
0.0465219
0.0486852
0.0509079
0.0531893
0.0555281
0.0579227
0.0603714
0.0628718
0.0654215
0.0680174
0.070656
0.0733335
0.0760457
0.0787876
0.0815542
0.0843396
0.0871378
0.0899421
0.0927455
0.0955405
0.0983193
0.101074
0.103795
0.106475
0.109105
0.111674
0.114176
0.116599
0.118936
0.121178
0.123316
0.125343
0.127252
0.129035
0.130686
0.132202
0.133577
0.134809
0.135896
0.136837
0.137632
0.138283
0.138794
0.139168
0.139411
0.13953
0.139531
0.139424
0.139219
0.138924
0.138552
0.138113
0.137618
0.137078
0.136505
0.135908
0.135298
0.134681
0.134069
0.13347
0.132842
0.132145
0.00223683
0.00198832
0.00176042
0.00153941
0.00131097
0.00107759
0.000841917
0.000605397
0.000369476
0.000135623
-9.47639e-05
-0.000320395
-0.000540106
-0.000752866
-0.000957767
-0.00115402
-0.00134095
-0.00151801
-0.00168472
-0.00184073
-0.00198576
-0.0021196
-0.00224208
-0.00235308
-0.00245249
-0.00254029
-0.00261644
-0.00268092
-0.00273371
-0.00277478
-0.00280407
-0.00282156
-0.00282719
-0.00282092
-0.00280264
-0.00277225
-0.0027296
-0.00267453
-0.00260686
-0.0025264
-0.00243294
-0.00232622
-0.00220598
-0.0020719
-0.00192367
-0.00176093
-0.0015833
-0.00139039
-0.00118179
-0.000957051
-0.000715717
-0.000457289
-0.00018124
0.000112981
0.000425951
0.000758268
0.00111055
0.00148344
0.00187762
0.00229378
0.00273266
0.00319504
0.00368171
0.00419351
0.00473129
0.00529593
0.00588834
0.00650948
0.00716033
0.0078419
0.00855523
0.00930139
0.0100815
0.0108967
0.0117481
0.012637
0.0135646
0.014532
0.0155406
0.0165917
0.0176864
0.0188261
0.0200121
0.0212457
0.0225281
0.0238605
0.0252443
0.0266806
0.0281706
0.0297153
0.0313159
0.0329733
0.0346883
0.0364617
0.0382941
0.0401861
0.0421379
0.0441497
0.0462215
0.048353
0.0505437
0.0527928
0.0550992
0.0574616
0.0598783
0.0623472
0.0648659
0.0674315
0.0700407
0.07269
0.0753751
0.0780915
0.080834
0.0835972
0.0863751
0.0891611
0.0919484
0.0947296
0.097497
0.100243
0.102958
0.105634
0.108262
0.110833
0.113338
0.115768
0.118113
0.120366
0.122517
0.124558
0.126483
0.128284
0.129955
0.13149
0.132886
0.134139
0.135247
0.136209
0.137025
0.137697
0.138227
0.138619
0.138879
0.139012
0.139025
0.138929
0.13873
0.138439
0.138067
0.137623
0.137118
0.136563
0.135968
0.135342
0.134694
0.134031
0.133363
0.132697
0.131984
0.131173
0.00263124
0.00233434
0.00206984
0.00182067
0.00156849
0.00131556
0.00106434
0.000815834
0.000571069
0.000331133
9.70484e-05
-0.00013025
-0.000349927
-0.000561244
-0.000763559
-0.000956321
-0.00113907
-0.00131144
-0.00147314
-0.00162396
-0.00176374
-0.00189235
-0.00200972
-0.00211577
-0.00221049
-0.00229388
-0.00236593
-0.00242664
-0.00247599
-0.00251394
-0.00254046
-0.00255551
-0.00255903
-0.00255095
-0.00253115
-0.00249951
-0.00245585
-0.00240001
-0.0023318
-0.002251
-0.00215737
-0.00205067
-0.00193059
-0.00179682
-0.00164903
-0.00148685
-0.00130992
-0.00111782
-0.000910157
-0.000686481
-0.000446333
-0.000189221
8.53702e-05
0.000377982
0.000689176
0.00101953
0.00136965
0.00174015
0.00213168
0.00254494
0.00298062
0.00343947
0.00392226
0.00442979
0.00496288
0.00552238
0.00610916
0.00672414
0.00736826
0.0080425
0.00874785
0.00948536
0.0102561
0.0110612
0.0119017
0.0127788
0.0136937
0.0146476
0.0156418
0.0166774
0.0177557
0.018878
0.0200455
0.0212595
0.0225213
0.0238321
0.0251932
0.0266057
0.0280709
0.0295899
0.0311637
0.0327933
0.0344797
0.0362237
0.038026
0.0398871
0.0418075
0.0437874
0.0458268
0.0479258
0.0500837
0.0523001
0.054574
0.0569042
0.0592892
0.061727
0.0642154
0.0667518
0.069333
0.0719557
0.0746157
0.0773087
0.0800299
0.0827737
0.0855345
0.0883058
0.0910809
0.0938525
0.0966131
0.0993544
0.102068
0.104746
0.107378
0.109956
0.112471
0.114913
0.117273
0.119543
0.121713
0.123775
0.125722
0.127547
0.129242
0.130803
0.132225
0.133504
0.134637
0.135624
0.136464
0.137158
0.137709
0.13812
0.138397
0.138544
0.138569
0.13848
0.138285
0.137995
0.137618
0.137165
0.136645
0.13607
0.135448
0.134788
0.134098
0.133385
0.132658
0.131925
0.131128
0.13021
0.00302773
0.00268209
0.00238032
0.00210204
0.00182494
0.00155113
0.00128293
0.00102096
0.000765844
0.000518309
0.000279026
4.85911e-05
-0.000172466
-0.000383688
-0.000584687
-0.00077515
-0.000954833
-0.00112356
-0.00128121
-0.00142772
-0.00156304
-0.00168715
-0.00180005
-0.00190177
-0.00199235
-0.00207183
-0.00214024
-0.00219758
-0.00224385
-0.00227904
-0.00230311
-0.00231603
-0.00231772
-0.00230811
-0.00228705
-0.00225441
-0.00221
-0.00215365
-0.00208515
-0.00200427
-0.00191076
-0.00180435
-0.00168473
-0.00155157
-0.00140454
-0.00124328
-0.00106739
-0.000876497
-0.000670175
-0.000447991
-0.000209486
4.5824e-05
0.000318444
0.0006089
0.000917736
0.00124551
0.00159281
0.00196022
0.00234838
0.00275795
0.0031896
0.00364406
0.00412206
0.00462437
0.00515176
0.00570505
0.00628509
0.00689274
0.00752892
0.00819455
0.00889061
0.00961808
0.010378
0.0111714
0.0119995
0.0128633
0.0137639
0.0147026
0.0156806
0.016699
0.017759
0.018862
0.0200092
0.0212018
0.0224411
0.0237284
0.0250649
0.0264517
0.0278903
0.0293816
0.0309268
0.032527
0.034183
0.035896
0.0376665
0.0394952
0.0413828
0.0433294
0.0453355
0.0474008
0.0495253
0.0517083
0.0539492
0.056247
0.0586002
0.0610071
0.0634657
0.0659736
0.0685278
0.071125
0.0737615
0.076433
0.0791349
0.0818619
0.0846083
0.087368
0.0901343
0.0929001
0.0956578
0.0983994
0.101117
0.103801
0.106442
0.109033
0.111563
0.114023
0.116404
0.118697
0.120892
0.122981
0.124957
0.126811
0.128537
0.130129
0.131581
0.132891
0.134055
0.135071
0.135938
0.136658
0.137232
0.137664
0.137958
0.13812
0.138156
0.138073
0.137881
0.137589
0.137205
0.136739
0.136202
0.135602
0.134949
0.134252
0.133517
0.132751
0.131964
0.131164
0.130285
0.129264
0.00342072
0.00302626
0.0026868
0.00237872
0.00207583
0.00178012
0.00149382
0.00121719
0.000950486
0.000694084
0.000448327
0.000213498
-1.01639e-05
-0.000222469
-0.000423283
-0.000612524
-0.000790159
-0.000956203
-0.00111071
-0.00125373
-0.00138536
-0.00150567
-0.00161477
-0.00171277
-0.00179977
-0.00187586
-0.00194109
-0.00199549
-0.00203909
-0.00207188
-0.00209386
-0.00210498
-0.00210516
-0.0020943
-0.00207226
-0.0020389
-0.00199401
-0.00193741
-0.00186889
-0.0017882
-0.00169508
-0.00158924
-0.00147036
-0.00133812
-0.00119217
-0.00103213
-0.000857649
-0.000668315
-0.00046372
-0.000243434
-7.00298e-06
0.000246048
0.000516211
0.000803994
0.00110992
0.00143453
0.00177839
0.00214206
0.00252615
0.00293129
0.00335814
0.00380738
0.00427972
0.00477587
0.00529659
0.00584266
0.00641488
0.00701408
0.00764112
0.00829691
0.00898238
0.00969847
0.0104462
0.0112265
0.0120406
0.0128895
0.0137743
0.0146961
0.0156561
0.0166556
0.0176956
0.0187775
0.0199025
0.0210718
0.0222867
0.0235485
0.0248585
0.0262178
0.0276277
0.0290895
0.0306042
0.032173
0.033797
0.0354771
0.0372142
0.039009
0.0408622
0.0427743
0.0447456
0.0467762
0.0488661
0.051015
0.0532222
0.055487
0.0578081
0.0601841
0.062613
0.0650927
0.0676204
0.0701931
0.0728072
0.0754587
0.078143
0.0808551
0.0835896
0.0863403
0.0891008
0.091864
0.0946224
0.0973682
0.100093
0.102788
0.105444
0.108052
0.110603
0.113086
0.115494
0.117815
0.120041
0.122164
0.124174
0.126064
0.127826
0.129455
0.130944
0.13229
0.133489
0.134538
0.135437
0.136187
0.136787
0.137243
0.137556
0.137734
0.137781
0.137705
0.137515
0.137219
0.136826
0.136346
0.135788
0.135161
0.134474
0.133737
0.132955
0.132135
0.131288
0.130421
0.129462
0.128343
0.00380502
0.00336182
0.00298445
0.00264612
0.00231681
0.00199843
0.00169316
0.00140092
0.00112162
0.000855295
0.000601995
0.000361707
0.000134391
-8.00252e-05
-0.000281652
-0.000470638
-0.000647156
-0.000811404
-0.000963588
-0.00110391
-0.00123258
-0.00134978
-0.00145574
-0.00155062
-0.0016346
-0.00170781
-0.00177033
-0.00182224
-0.00186359
-0.00189439
-0.00191464
-0.0019243
-0.00192328
-0.00191148
-0.00188876
-0.00185495
-0.00180986
-0.00175329
-0.00168502
-0.00160478
-0.00151231
-0.00140731
-0.00128946
-0.00115841
-0.00101382
-0.000855334
-0.000682567
-0.000495132
-0.00029262
-7.46069e-05
0.000159354
0.000409725
0.000676981
0.000961613
0.00126412
0.00158503
0.00192486
0.00228417
0.00266354
0.00306356
0.00348488
0.00392812
0.00439396
0.00488309
0.00539622
0.00593408
0.00649745
0.00708711
0.00770389
0.00834865
0.00902227
0.00972567
0.0104598
0.0112257
0.0120243
0.0128568
0.0137241
0.0146274
0.0155679
0.0165466
0.0175649
0.0186239
0.0197248
0.020869
0.0220576
0.023292
0.0245735
0.0259033
0.0272827
0.028713
0.0301953
0.031731
0.033321
0.0349665
0.0366684
0.0384275
0.0402448
0.0421208
0.0440559
0.0460505
0.0481047
0.0502183
0.0523909
0.054622
0.0569105
0.0592551
0.0616542
0.0641057
0.0666073
0.069156
0.0717484
0.0743808
0.0770489
0.0797478
0.0824722
0.0852161
0.0879733
0.0907368
0.0934991
0.0962525
0.0989885
0.101698
0.104373
0.107004
0.10958
0.112093
0.114532
0.116888
0.119151
0.121312
0.123363
0.125294
0.127099
0.128771
0.130303
0.13169
0.13293
0.134018
0.134953
0.135736
0.136367
0.136849
0.137185
0.13738
0.13744
0.137372
0.137184
0.136884
0.136481
0.135985
0.135404
0.134749
0.134027
0.133248
0.132417
0.131543
0.130634
0.129702
0.128666
0.127454
0.00417573
0.00368399
0.00326865
0.00289977
0.00254362
0.00220202
0.00187712
0.00156853
0.0012758
0.000998708
0.000736984
0.000490345
0.000258481
4.10611e-05
-0.000162261
-0.000351855
-0.000528094
-0.000691349
-0.000841977
-0.000980323
-0.00110672
-0.00122149
-0.00132492
-0.00141728
-0.00149879
-0.00156963
-0.00162993
-0.0016798
-0.00171932
-0.00174852
-0.00176742
-0.00177597
-0.00177409
-0.00176166
-0.00173855
-0.00170458
-0.00165956
-0.00160329
-0.00153552
-0.00145599
-0.00136443
-0.00126052
-0.00114393
-0.00101434
-0.000871391
-0.000714723
-0.000543967
-0.000358734
-0.000158624
5.67817e-05
0.000287916
0.000535227
0.000799172
0.00108022
0.00137885
0.00169555
0.00203083
0.00238522
0.00275926
0.00315353
0.00356862
0.00400513
0.00446371
0.00494499
0.00544965
0.00597839
0.00653193
0.00711102
0.00771645
0.00834903
0.00900961
0.00969908
0.0104183
0.0111684
0.0119501
0.0127647
0.013613
0.0144962
0.0154155
0.0163719
0.0173667
0.018401
0.0194761
0.0205932
0.0217537
0.0229588
0.0242099
0.0255083
0.0268552
0.0282521
0.0297002
0.0312007
0.0327548
0.0343638
0.0360287
0.0377505
0.0395302
0.0413684
0.0432658
0.0452229
0.04724
0.0493172
0.0514541
0.0536505
0.0559055
0.0582182
0.060587
0.0630101
0.0654855
0.0680103
0.0705815
0.0731956
0.0758483
0.0785352
0.0812509
0.0839899
0.0867459
0.089512
0.092281
0.095045
0.0977957
0.100524
0.103222
0.105879
0.108486
0.111032
0.113508
0.115904
0.11821
0.120416
0.122513
0.124493
0.126347
0.128067
0.129648
0.131083
0.132368
0.133501
0.134478
0.135299
0.135964
0.136477
0.136838
0.137054
0.137129
0.13707
0.136885
0.136582
0.136169
0.135656
0.135053
0.134367
0.133609
0.132787
0.131908
0.130978
0.130009
0.129012
0.127901
0.126599
0.00452819
0.0039882
0.00353494
0.0031354
0.00275212
0.00238692
0.0020419
0.00171636
0.00140959
0.00112103
0.000850171
0.000596439
0.000359267
0.000138076
-6.7714e-05
-0.00025868
-0.000435385
-0.000598367
-0.000748137
-0.000885184
-0.00100997
-0.00112293
-0.00122445
-0.00131485
-0.00139442
-0.00146338
-0.00152193
-0.00157021
-0.00160833
-0.00163634
-0.00165426
-0.00166204
-0.00165961
-0.00164686
-0.00162364
-0.00158979
-0.00154511
-0.00148939
-0.00142237
-0.00134379
-0.00125336
-0.00115076
-0.00103567
-0.000907763
-0.000766684
-0.000612081
-0.000443585
-0.000260817
-6.33814e-05
0.000149126
0.000377126
0.000621046
0.000881324
0.00115841
0.00145274
0.00176481
0.00209507
0.00244402
0.0028122
0.00320013
0.00360837
0.00403749
0.00448807
0.00496074
0.00545613
0.00597487
0.00651767
0.00708523
0.00767829
0.00829762
0.00894403
0.00961836
0.0103215
0.0110544
0.0118179
0.0126131
0.013441
0.0143026
0.0151991
0.0161315
0.0171011
0.018109
0.0191565
0.0202448
0.0213753
0.0225493
0.0237681
0.0250331
0.0263457
0.0277072
0.0291191
0.0305825
0.0320989
0.0336696
0.0352956
0.0369782
0.0387185
0.0405172
0.0423753
0.0442934
0.046272
0.0483112
0.0504113
0.0525718
0.0547924
0.0570722
0.05941
0.0618042
0.064253
0.0667538
0.0693039
0.0718999
0.0745378
0.0772134
0.0799217
0.082657
0.0854134
0.0881842
0.0909621
0.0937394
0.0965078
0.0992586
0.101983
0.10467
0.107311
0.109896
0.112414
0.114856
0.11721
0.119466
0.121616
0.12365
0.125559
0.127334
0.12897
0.130459
0.131797
0.132979
0.134003
0.134868
0.135573
0.13612
0.136511
0.136751
0.136844
0.136796
0.136616
0.136311
0.135889
0.13536
0.134734
0.134018
0.133224
0.132358
0.13143
0.130445
0.129416
0.128355
0.127171
0.125782
0.00485794
0.00427007
0.00377905
0.00334881
0.00293827
0.0025492
0.0021837
0.0018408
0.00151948
0.00121894
0.000938362
0.000676926
0.000433807
0.000208187
-7.36394e-07
-0.000193739
-0.000371564
-0.000534916
-0.000684464
-0.000820842
-0.000944635
-0.00105637
-0.00115653
-0.0012455
-0.00132363
-0.00139121
-0.00144847
-0.0014956
-0.00153273
-0.00155992
-0.00157721
-0.00158456
-0.0015819
-0.00156911
-0.00154607
-0.00151259
-0.00146849
-0.00141354
-0.00134749
-0.00127005
-0.00118095
-0.00107986
-0.000966462
-0.000840427
-0.000701413
-0.000549072
-0.000383042
-0.000202949
-8.41272e-06
0.00020096
0.000425571
0.000665827
0.000922142
0.00119494
0.00148464
0.00179167
0.0021165
0.00245959
0.00282142
0.0032025
0.00360333
0.00402445
0.00446641
0.00492977
0.00541513