/*--------------------------------*- C++ -*----------------------------------*\
  =========                 |
  \\      /  F ield         | OpenFOAM: The Open Source CFD Toolbox
   \\    /   O peration     | Website:  https://openfoam.org
    \\  /    A nd           | Version:  7
     \\/     M anipulation  |
\*---------------------------------------------------------------------------*/
FoamFile
{
    version     2.0;
    format      ascii;
    class       surfaceScalarField;
    location    "0.35";
    object      phi;
}
// * * * * * * * * * * * * * * * * * * * * * * * * * * * * * * * * * * * * * //

dimensions      [0 3 -1 0 0 0 0];

internalField   nonuniform List<scalar> 
25360
(
5.01938e-11
-5.37072e-11
1.92289e-10
-1.4211e-10
3.59793e-10
-1.67495e-10
5.05331e-10
-1.45547e-10
6.00879e-10
-9.55453e-11
6.305e-10
-2.96367e-11
5.86047e-10
4.44612e-11
4.64334e-10
1.21711e-10
2.65448e-10
1.98886e-10
-8.45586e-12
2.73915e-10
-3.53896e-10
3.45436e-10
-7.66553e-10
4.12653e-10
-1.24162e-09
4.75079e-10
-1.77409e-09
5.32469e-10
-2.35885e-09
5.84764e-10
-2.99089e-09
6.32036e-10
-3.66533e-09
6.74445e-10
-4.37754e-09
7.12215e-10
-5.12316e-09
7.45616e-10
-5.89811e-09
7.74946e-10
-6.69863e-09
8.00522e-10
-7.5213e-09
8.2267e-10
-8.36303e-09
8.41719e-10
-9.22101e-09
8.57986e-10
-1.00928e-08
8.7178e-10
-1.09762e-08
8.834e-10
-1.18693e-08
8.93132e-10
-1.27706e-08
9.01247e-10
-1.36786e-08
9.07995e-10
-1.45922e-08
9.13603e-10
-1.55104e-08
9.18281e-10
-1.64327e-08
9.22226e-10
-1.73583e-08
9.25619e-10
-1.82869e-08
9.28618e-10
-1.92183e-08
9.31363e-10
-2.01522e-08
9.3398e-10
-2.10888e-08
9.36586e-10
-2.20281e-08
9.39282e-10
-2.29703e-08
9.42156e-10
-2.39155e-08
9.45283e-10
-2.48643e-08
9.4873e-10
-2.58168e-08
9.52552e-10
-2.67736e-08
9.56797e-10
-2.77351e-08
9.61506e-10
-2.87018e-08
9.66714e-10
-2.96743e-08
9.72447e-10
-3.0653e-08
9.78729e-10
-3.16386e-08
9.85575e-10
-3.26316e-08
9.92996e-10
-3.36326e-08
1.001e-09
-3.46422e-08
1.00959e-09
-3.56609e-08
1.01877e-09
-3.66895e-08
1.02852e-09
-3.77283e-08
1.03886e-09
-3.87781e-08
1.04975e-09
-3.98393e-08
1.0612e-09
-4.09124e-08
1.07317e-09
-4.19981e-08
1.08565e-09
-4.30967e-08
1.09861e-09
-4.42087e-08
1.11202e-09
-4.53346e-08
1.12585e-09
-4.64746e-08
1.14006e-09
-4.76292e-08
1.1546e-09
-4.87986e-08
1.16943e-09
-4.99831e-08
1.18449e-09
-5.11829e-08
1.19973e-09
-5.23979e-08
1.21508e-09
-5.36284e-08
1.23046e-09
-5.48742e-08
1.24581e-09
-5.61352e-08
1.26103e-09
-5.74113e-08
1.27604e-09
-5.8702e-08
1.29073e-09
-6.0007e-08
1.305e-09
-6.13257e-08
1.31873e-09
-6.26575e-08
1.33181e-09
-6.40016e-08
1.34409e-09
-6.53571e-08
1.35545e-09
-6.67228e-08
1.36572e-09
-6.80976e-08
1.37476e-09
-6.94799e-08
1.38239e-09
-7.08684e-08
1.38843e-09
-7.22611e-08
1.3927e-09
-7.36561e-08
1.39501e-09
-7.50512e-08
1.39515e-09
-7.64441e-08
1.3929e-09
-7.78322e-08
1.38804e-09
-7.92125e-08
1.38034e-09
-8.05821e-08
1.36958e-09
-8.19376e-08
1.35549e-09
-8.32754e-08
1.33784e-09
-8.45918e-08
1.31637e-09
-8.58826e-08
1.29082e-09
-8.71436e-08
1.26094e-09
-8.837e-08
1.22647e-09
-8.95572e-08
1.18715e-09
-9.06999e-08
1.14273e-09
-9.17929e-08
1.09297e-09
-9.28305e-08
1.03763e-09
-9.3807e-08
9.76485e-10
-9.47163e-08
9.09331e-10
-9.55523e-08
8.35978e-10
-9.63086e-08
7.56262e-10
-9.69786e-08
6.70042e-10
-9.75558e-08
5.7721e-10
-9.80335e-08
4.77693e-10
-9.8405e-08
3.71458e-10
-9.86635e-08
2.58516e-10
-9.88024e-08
1.38926e-10
-9.88152e-08
1.28061e-11
-9.86955e-08
-1.19682e-10
-9.84373e-08
-2.58292e-10
-9.80345e-08
-4.02726e-10
-9.74819e-08
-5.5261e-10
-9.67744e-08
-7.07497e-10
-9.59076e-08
-8.66859e-10
-9.48775e-08
-1.03009e-09
-9.3681e-08
-1.1965e-09
-9.23157e-08
-1.36532e-09
-9.078e-08
-1.53569e-09
-8.90733e-08
-1.70669e-09
-8.7196e-08
-1.8773e-09
-8.51496e-08
-2.04643e-09
-8.29366e-08
-2.21294e-09
-8.0561e-08
-2.3756e-09
-7.80279e-08
-2.53314e-09
-7.53436e-08
-2.68427e-09
-7.2516e-08
-2.82762e-09
-6.95541e-08
-2.96185e-09
-6.64685e-08
-3.08559e-09
-6.3271e-08
-3.19749e-09
-5.99748e-08
-3.29621e-09
-5.65943e-08
-3.38049e-09
-5.31452e-08
-3.4491e-09
-4.96443e-08
-3.5009e-09
-4.61095e-08
-3.53486e-09
-4.25595e-08
-3.55003e-09
-3.90138e-08
-3.54562e-09
-3.54929e-08
-3.52096e-09
-3.20173e-08
-3.47555e-09
-2.86083e-08
-3.40903e-09
-2.52871e-08
-3.32124e-09
-2.20749e-08
-3.21216e-09
-1.89929e-08
-3.08198e-09
-1.60619e-08
-2.93104e-09
-1.3302e-08
-2.75989e-09
-1.07328e-08
-2.56924e-09
-8.37277e-09
-2.35999e-09
-6.23952e-09
-2.13325e-09
-4.34914e-09
-1.89038e-09
-2.71615e-09
-1.633e-09
-1.353e-09
-1.36315e-09
-2.69516e-10
-1.08348e-09
5.28079e-10
-7.97596e-10
1.03873e-09
-5.10648e-10
1.26925e-09
-2.3052e-10
1.23911e-09
3.01452e-11
9.88567e-10
2.50539e-10
5.93156e-10
3.95411e-10
1.90996e-10
4.02159e-10
1.90996e-10
1.40896e-10
-1.94611e-10
4.06903e-10
-4.08102e-10
6.8798e-10
-4.48595e-10
9.01575e-10
-3.59116e-10
9.88918e-10
-1.82885e-10
9.11764e-10
4.75328e-11
6.47453e-10
3.08757e-10
1.84828e-10
5.84332e-10
-4.79097e-10
8.62833e-10
-1.34156e-09
1.13638e-09
-2.39577e-09
1.39964e-09
-3.63221e-09
1.64909e-09
-5.03963e-09
1.8825e-09
-6.60578e-09
2.09862e-09
-8.31788e-09
2.29686e-09
-1.0163e-08
2.47721e-09
-1.21286e-08
2.64002e-09
-1.42023e-08
2.78592e-09
-1.63725e-08
2.91576e-09
-1.8628e-08
3.03052e-09
-2.09588e-08
3.13126e-09
-2.33552e-08
3.21912e-09
-2.58088e-08
3.29524e-09
-2.83116e-08
3.36078e-09
-3.08566e-08
3.41684e-09
-3.34377e-08
3.46453e-09
-3.60495e-08
3.50488e-09
-3.86871e-08
3.53889e-09
-4.13466e-08
3.56749e-09
-4.40245e-08
3.59153e-09
-4.67181e-08
3.61183e-09
-4.9425e-08
3.62913e-09
-5.21435e-08
3.64409e-09
-5.48722e-08
3.65734e-09
-5.76102e-08
3.66942e-09
-6.03571e-08
3.68082e-09
-6.31125e-08
3.69199e-09
-6.58765e-08
3.70332e-09
-6.86495e-08
3.71517e-09
-7.14321e-08
3.72782e-09
-7.42249e-08
3.74155e-09
-7.70289e-08
3.75658e-09
-7.98452e-08
3.7731e-09
-8.2675e-08
3.79129e-09
-8.55195e-08
3.81126e-09
-8.83802e-08
3.83314e-09
-9.12585e-08
3.85702e-09
-9.41559e-08
3.88297e-09
-9.7074e-08
3.91103e-09
-1.00014e-07
3.94124e-09
-1.02978e-07
3.9736e-09
-1.05968e-07
4.00813e-09
-1.08984e-07
4.04479e-09
-1.12029e-07
4.08357e-09
-1.15103e-07
4.12442e-09
-1.18209e-07
4.16727e-09
-1.21348e-07
4.21205e-09
-1.24521e-07
4.25867e-09
-1.2773e-07
4.30703e-09
-1.30975e-07
4.357e-09
-1.34257e-07
4.40845e-09
-1.37578e-07
4.46121e-09
-1.40939e-07
4.51511e-09
-1.44339e-07
4.56997e-09
-1.4778e-07
4.62555e-09
-1.51262e-07
4.68163e-09
-1.54785e-07
4.73795e-09
-1.58349e-07
4.79423e-09
-1.61953e-07
4.85015e-09
-1.65598e-07
4.90538e-09
-1.69281e-07
4.95956e-09
-1.73003e-07
5.0123e-09
-1.76761e-07
5.06318e-09
-1.80554e-07
5.11175e-09
-1.8438e-07
5.15752e-09
-1.88236e-07
5.2e-09
-1.92119e-07
5.23862e-09
-1.96026e-07
5.27282e-09
-1.99953e-07
5.30198e-09
-2.03896e-07
5.32544e-09
-2.0785e-07
5.34254e-09
-2.1181e-07
5.35255e-09
-2.1577e-07
5.35473e-09
-2.19723e-07
5.3483e-09
-2.23663e-07
5.33245e-09
-2.27581e-07
5.30634e-09
-2.3147e-07
5.2691e-09
-2.3532e-07
5.21984e-09
-2.39122e-07
5.15765e-09
-2.42866e-07
5.0816e-09
-2.4654e-07
4.99075e-09
-2.50133e-07
4.88415e-09
-2.53633e-07
4.76086e-09
-2.57027e-07
4.61993e-09
-2.603e-07
4.46042e-09
-2.63439e-07
4.28143e-09
-2.66428e-07
4.08207e-09
-2.69252e-07
3.86151e-09
-2.71894e-07
3.61896e-09
-2.74339e-07
3.3537e-09
-2.76568e-07
3.06507e-09
-2.78564e-07
2.75252e-09
-2.8031e-07
2.4156e-09
-2.81786e-07
2.05397e-09
-2.82976e-07
1.66744e-09
-2.83861e-07
1.25597e-09
-2.84422e-07
8.19675e-10
-2.84642e-07
3.58868e-10
-2.84503e-07
-1.25938e-10
-2.83989e-07
-6.34016e-10
-2.83083e-07
-1.1644e-09
-2.81769e-07
-1.71587e-09
-2.80035e-07
-2.28696e-09
-2.77867e-07
-2.87591e-09
-2.75253e-07
-3.48069e-09
-2.72184e-07
-4.09898e-09
-2.68652e-07
-4.72814e-09
-2.64652e-07
-5.36527e-09
-2.60181e-07
-6.00713e-09
-2.55237e-07
-6.65023e-09
-2.49824e-07
-7.29079e-09
-2.43945e-07
-7.92477e-09
-2.37611e-07
-8.54787e-09
-2.3083e-07
-9.15561e-09
-2.2362e-07
-9.7433e-09
-2.15998e-07
-1.03061e-08
-2.07987e-07
-1.08391e-08
-1.99611e-07
-1.13374e-08
-1.90901e-07
-1.17958e-08
-1.81889e-07
-1.22095e-08
-1.72612e-07
-1.25737e-08
-1.63108e-07
-1.28837e-08
-1.53422e-07
-1.31351e-08
-1.436e-07
-1.33236e-08
-1.33689e-07
-1.34457e-08
-1.23741e-07
-1.34978e-08
-1.1381e-07
-1.34771e-08
-1.0395e-07
-1.33812e-08
-9.42168e-08
-1.32083e-08
-8.46686e-08
-1.29572e-08
-7.53625e-08
-1.26273e-08
-6.63559e-08
-1.22188e-08
-5.77055e-08
-1.17324e-08
-4.9467e-08
-1.11695e-08
-4.16945e-08
-1.05324e-08
-3.44398e-08
-9.82401e-09
-2.77516e-08
-9.04813e-09
-2.16754e-08
-8.20941e-09
-1.62523e-08
-7.31357e-09
-1.15176e-08
-6.36766e-09
-7.50023e-09
-5.38052e-09
-4.22022e-09
-4.3635e-09
-1.68614e-09
-3.33168e-09
1.09041e-10
-2.30583e-09
1.19418e-09
-1.31566e-09
1.62898e-09
-4.04666e-10
1.51751e-09
3.62007e-10
1.02581e-09
8.87111e-10
4.0057e-10
1.0274e-09
5.91565e-10
1.68019e-10
-3.62622e-10
4.50177e-10
-6.90283e-10
7.07569e-10
-7.05986e-10
8.40166e-10
-4.91733e-10
7.74564e-10
-1.17264e-10
4.60143e-10
3.61957e-10
-1.34983e-10
9.03869e-10
-1.02803e-09
1.4774e-09
-2.22511e-09
2.05991e-09
-3.72393e-09
2.63519e-09
-5.51613e-09
3.19184e-09
-7.58902e-09
3.72199e-09
-9.927e-09
4.22048e-09
-1.25125e-08
4.68416e-09
-1.53271e-08
5.11141e-09
-1.83517e-08
5.50178e-09
-2.15673e-08
5.85569e-09
-2.49556e-08
6.17421e-09
-2.84987e-08
6.45888e-09
-3.21798e-08
6.71158e-09
-3.5983e-08
6.93444e-09
-3.98936e-08
7.12971e-09
-4.38981e-08
7.29974e-09
-4.79842e-08
7.44689e-09
-5.21408e-08
7.57349e-09
-5.63581e-08
7.68182e-09
-6.06273e-08
7.77407e-09
-6.49408e-08
7.85234e-09
-6.92919e-08
7.91861e-09
-7.36751e-08
7.97472e-09
-7.80857e-08
8.02241e-09
-8.25198e-08
8.06325e-09
-8.69744e-08
8.09872e-09
-9.14472e-08
8.13013e-09
-9.59365e-08
8.1587e-09
-1.00441e-07
8.18551e-09
-1.04961e-07
8.21153e-09
-1.09495e-07
8.23762e-09
-1.14044e-07
8.26455e-09
-1.1861e-07
8.29299e-09
-1.23192e-07
8.32353e-09
-1.27792e-07
8.35668e-09
-1.32411e-07
8.39287e-09
-1.37053e-07
8.43247e-09
-1.41717e-07
8.47579e-09
-1.46407e-07
8.52308e-09
-1.51125e-07
8.57455e-09
-1.55872e-07
8.63035e-09
-1.60651e-07
8.6906e-09
-1.65466e-07
8.75537e-09
-1.70317e-07
8.82469e-09
-1.75207e-07
8.89856e-09
-1.80139e-07
8.97694e-09
-1.85115e-07
9.05977e-09
-1.90138e-07
9.14694e-09
-1.95209e-07
9.23831e-09
-2.00331e-07
9.33372e-09
-2.05505e-07
9.43295e-09
-2.10734e-07
9.53578e-09
-2.16019e-07
9.64191e-09
-2.21361e-07
9.75104e-09
-2.26763e-07
9.86281e-09
-2.32225e-07
9.97683e-09
-2.37747e-07
1.00926e-08
-2.43331e-07
1.02098e-08
-2.48978e-07
1.03277e-08
-2.54686e-07
1.04459e-08
-2.60455e-07
1.05636e-08
-2.66285e-07
1.06802e-08
-2.72175e-07
1.0795e-08
-2.78122e-07
1.09071e-08
-2.84125e-07
1.10156e-08
-2.90182e-07
1.11197e-08
-2.96289e-07
1.12184e-08
-3.02442e-07
1.13105e-08
-3.08636e-07
1.1395e-08
-3.14869e-07
1.14706e-08
-3.21132e-07
1.15362e-08
-3.2742e-07
1.15903e-08
-3.33726e-07
1.16315e-08
-3.40042e-07
1.16584e-08
-3.46359e-07
1.16694e-08
-3.52667e-07
1.16628e-08
-3.58956e-07
1.16371e-08
-3.65214e-07
1.15904e-08
-3.71428e-07
1.15209e-08
-3.77586e-07
1.14268e-08
-3.83672e-07
1.13062e-08
-3.89672e-07
1.11571e-08
-3.95568e-07
1.09776e-08
-4.01342e-07
1.07656e-08
-4.06978e-07
1.05192e-08
-4.12453e-07
1.02363e-08
-4.17748e-07
9.91502e-09
-4.22841e-07
9.55336e-09
-4.27709e-07
9.14942e-09
-4.32328e-07
8.7014e-09
-4.36674e-07
8.20758e-09
-4.40722e-07
7.66634e-09
-4.44444e-07
7.07624e-09
-4.47815e-07
6.43598e-09
-4.50807e-07
5.74448e-09
-4.53392e-07
5.00089e-09
-4.55543e-07
4.20461e-09
-4.57231e-07
3.35536e-09
-4.58428e-07
2.45316e-09
-4.59107e-07
1.49842e-09
-4.5924e-07
4.91933e-10
-4.58801e-07
-5.65069e-10
-4.57764e-07
-1.67089e-09
-4.56105e-07
-2.82334e-09
-4.53801e-07
-4.01969e-09
-4.50832e-07
-5.25667e-09
-4.47177e-07
-6.53044e-09
-4.42821e-07
-7.83654e-09
-4.3775e-07
-9.16993e-09
-4.31953e-07
-1.05249e-08
-4.25423e-07
-1.18953e-08
-4.18157e-07
-1.3274e-08
-4.10153e-07
-1.46537e-08
-4.01418e-07
-1.60262e-08
-3.91959e-07
-1.73831e-08
-3.81792e-07
-1.87151e-08
-3.70935e-07
-2.00127e-08
-3.59412e-07
-2.12662e-08
-3.47253e-07
-2.24653e-08
-3.34493e-07
-2.35996e-08
-3.21171e-07
-2.46586e-08
-3.07335e-07
-2.56319e-08
-2.93036e-07
-2.65091e-08
-2.78329e-07
-2.72801e-08
-2.63278e-07
-2.79352e-08
-2.47948e-07
-2.8465e-08
-2.3241e-07
-2.8861e-08
-2.16741e-07
-2.91152e-08
-2.01018e-07
-2.92207e-08
-1.85324e-07
-2.91713e-08
-1.69743e-07
-2.89623e-08
-1.54361e-07
-2.85899e-08
-1.39267e-07
-2.80516e-08
-1.24547e-07
-2.73464e-08
-1.10292e-07
-2.64747e-08
-9.65858e-08
-2.54382e-08
-8.3515e-08
-2.42404e-08
-7.11611e-08
-2.28862e-08
-5.96026e-08
-2.13825e-08
-4.89129e-08
-1.97378e-08
-3.91595e-08
-1.79628e-08
-3.04025e-08
-1.60706e-08
-2.26927e-08
-1.40775e-08
-1.60697e-08
-1.20035e-08
-1.05588e-08
-9.8744e-09
-6.16705e-09
-7.72339e-09
-2.87803e-09
-5.59486e-09
-6.44327e-10
-3.54936e-09
6.22191e-10
-1.67118e-09
1.06325e-09
-7.90508e-11
8.88753e-10
1.0616e-09
3.93531e-10
1.52262e-09
9.85093e-10
1.47871e-10
-5.10503e-10
3.63701e-10
-9.0608e-10
4.9647e-10
-8.38768e-10
4.38103e-10
-4.33352e-10
1.08968e-10
2.11861e-10
-5.46974e-10
1.01789e-09
-1.56614e-09
1.92306e-09
-2.96908e-09
2.88034e-09
-4.76367e-09
3.85449e-09
-6.94795e-09
4.81949e-09
-9.51255e-09
5.75644e-09
-1.24426e-08
6.652e-09
-1.57192e-08
7.49711e-09
-1.9321e-08
8.286e-09
-2.32251e-08
9.01546e-09
-2.74075e-08
9.68425e-09
-3.18445e-08
1.02927e-08
-3.65124e-08
1.08421e-08
-4.13884e-08
1.13349e-08
-4.64507e-08
1.17739e-08
-5.16788e-08
1.21625e-08
-5.70533e-08
1.25042e-08
-6.25565e-08
1.2803e-08
-6.81723e-08
1.30626e-08
-7.38858e-08
1.3287e-08
-7.96838e-08
1.34798e-08
-8.55546e-08
1.36449e-08
-9.14879e-08
1.37856e-08
-9.74747e-08
1.39054e-08
-1.03507e-07
1.40073e-08
-1.09579e-07
1.40943e-08
-1.15685e-07
1.41691e-08
-1.2182e-07
1.42342e-08
-1.27982e-07
1.42919e-08
-1.34168e-07
1.43442e-08
-1.40375e-07
1.43931e-08
-1.46604e-07
1.44402e-08
-1.52853e-07
1.4487e-08
-1.59124e-07
1.45349e-08
-1.65416e-07
1.45849e-08
-1.7173e-07
1.46383e-08
-1.7807e-07
1.46958e-08
-1.84435e-07
1.47582e-08
-1.90829e-07
1.48262e-08
-1.97253e-07
1.49003e-08
-2.03711e-07
1.4981e-08
-2.10205e-07
1.50687e-08
-2.16739e-07
1.51635e-08
-2.23314e-07
1.52658e-08
-2.29934e-07
1.53756e-08
-2.36602e-07
1.5493e-08
-2.43322e-07
1.56181e-08
-2.50096e-07
1.57506e-08
-2.56926e-07
1.58906e-08
-2.63817e-07
1.60379e-08
-2.70771e-07
1.61921e-08
-2.7779e-07
1.6353e-08
-2.84878e-07
1.65202e-08
-2.92035e-07
1.66933e-08
-2.99265e-07
1.68717e-08
-3.06569e-07
1.7055e-08
-3.13948e-07
1.72425e-08
-3.21405e-07
1.74335e-08
-3.2894e-07
1.76272e-08
-3.36553e-07
1.78227e-08
-3.44244e-07
1.80192e-08
-3.52014e-07
1.82155e-08
-3.59861e-07
1.84106e-08
-3.67784e-07
1.86032e-08
-3.75781e-07
1.87921e-08
-3.83849e-07
1.89757e-08
-3.91986e-07
1.91527e-08
-4.00188e-07
1.93213e-08
-4.0845e-07
1.94799e-08
-4.16766e-07
1.96266e-08
-4.2513e-07
1.97594e-08
-4.33536e-07
1.98762e-08
-4.41975e-07
1.99749e-08
-4.50437e-07
2.00531e-08
-4.58914e-07
2.01084e-08
-4.67394e-07
2.01383e-08
-4.75865e-07
2.01399e-08
-4.84313e-07
2.01107e-08
-4.92723e-07
2.00477e-08
-5.01081e-07
1.99478e-08
-5.09368e-07
1.98082e-08
-5.17567e-07
1.96254e-08
-5.25657e-07
1.93965e-08
-5.33618e-07
1.91179e-08
-5.41427e-07
1.87865e-08
-5.4906e-07
1.83989e-08
-5.56492e-07
1.79517e-08
-5.63698e-07
1.74415e-08
-5.70648e-07
1.68651e-08
-5.77314e-07
1.62192e-08
-5.83665e-07
1.55008e-08
-5.8967e-07
1.47068e-08
-5.95297e-07
1.38345e-08
-6.00512e-07
1.28812e-08
-6.0528e-07
1.18446e-08
-6.09567e-07
1.07227e-08
-6.13336e-07
9.51377e-09
-6.16552e-07
8.2166e-09
-6.19178e-07
6.83035e-09
-6.21177e-07
5.3547e-09
-6.22514e-07
3.78991e-09
-6.23152e-07
2.13687e-09
-6.23058e-07
3.97115e-10
-6.22196e-07
-1.42706e-09
-6.20534e-07
-3.33258e-09
-6.18042e-07
-5.31553e-09
-6.1469e-07
-7.37113e-09
-6.10453e-07
-9.49366e-09
-6.05307e-07
-1.16764e-08
-5.99232e-07
-1.39118e-08
-5.92211e-07
-1.61911e-08
-5.84231e-07
-1.85045e-08
-5.75285e-07
-2.08415e-08
-5.65369e-07
-2.31903e-08
-5.54484e-07
-2.55381e-08
-5.42639e-07
-2.78714e-08
-5.29846e-07
-3.01757e-08
-5.16126e-07
-3.24356e-08
-5.01503e-07
-3.46353e-08
-4.86011e-07
-3.6758e-08
-4.6969e-07
-3.87868e-08
-4.52585e-07
-4.07044e-08
-4.34751e-07
-4.24931e-08
-4.16247e-07
-4.41355e-08
-3.97142e-07
-4.56144e-08
-3.77509e-07
-4.69128e-08
-3.5743e-07
-4.80146e-08
-3.3699e-07
-4.89043e-08
-3.16284e-07
-4.95676e-08
-2.95408e-07
-4.99913e-08
-2.74464e-07
-5.01639e-08
-2.53561e-07
-5.00753e-08
-2.32805e-07
-4.97175e-08
-2.12311e-07
-4.90842e-08
-1.92191e-07
-4.81717e-08
-1.72559e-07
-4.69783e-08
-1.53529e-07
-4.55048e-08
-1.35213e-07
-4.37546e-08
-1.17719e-07
-4.17338e-08
-1.01154e-07
-3.94513e-08
-8.56176e-08
-3.69191e-08
-7.1203e-08
-3.41524e-08
-5.79955e-08
-3.11703e-08
-4.60701e-08
-2.7996e-08
-3.54894e-08
-2.46582e-08
-2.63005e-08
-2.11923e-08
-1.85323e-08
-1.76426e-08
-1.21903e-08
-1.40655e-08
-7.25121e-09
-1.05339e-08
-3.65631e-09
-7.14427e-09
-1.3021e-09
-4.0254e-09
-3.0004e-11
-1.35115e-09
3.86131e-10
6.45467e-10
2.53755e-10
1.655e-09
1.23884e-09
9.89005e-11
-6.09406e-10
1.87545e-10
-9.94737e-10
1.18347e-10
-7.69546e-10
-2.16507e-10
-9.8512e-11
-8.96738e-10
8.92076e-10
-1.97898e-09
2.10015e-09
-3.50053e-09
3.44461e-09
-5.48259e-09
4.86239e-09
-7.93328e-09
6.30517e-09
-1.08502e-08
7.73642e-09
-1.42228e-08
9.12906e-09
-1.80343e-08
1.04635e-08
-2.22634e-08
1.17262e-08
-2.68855e-08
1.29081e-08
-3.1874e-08
1.4004e-08
-3.72015e-08
1.50117e-08
-4.28398e-08
1.5931e-08
-4.87612e-08
1.67636e-08
-5.49388e-08
1.75124e-08
-6.13465e-08
1.81816e-08
-6.79597e-08
1.87757e-08
-7.47554e-08
1.92999e-08
-8.17121e-08
1.97597e-08
-8.881e-08
2.01606e-08
-9.60313e-08
2.05083e-08
-1.0336e-07
2.08083e-08
-1.10781e-07
2.1066e-08
-1.18282e-07
2.12866e-08
-1.25851e-07
2.1475e-08
-1.3348e-07
2.1636e-08
-1.4116e-07
2.1774e-08
-1.48884e-07
2.18928e-08
-1.56646e-07
2.19965e-08
-1.64442e-07
2.20883e-08
-1.72269e-07
2.21714e-08
-1.80125e-07
2.22486e-08
-1.88007e-07
2.23226e-08
-1.95916e-07
2.23957e-08
-2.03851e-07
2.24697e-08
-2.11813e-07
2.25467e-08
-2.19802e-07
2.26281e-08
-2.27822e-07
2.27153e-08
-2.35873e-07
2.28095e-08
-2.43959e-07
2.29118e-08
-2.52081e-07
2.30229e-08
-2.60244e-07
2.31436e-08
-2.6845e-07
2.32745e-08
-2.76702e-07
2.34159e-08
-2.85005e-07
2.35683e-08
-2.93361e-07
2.37317e-08
-3.01774e-07
2.39063e-08
-3.10248e-07
2.40922e-08
-3.18787e-07
2.42891e-08
-3.27393e-07
2.44969e-08
-3.3607e-07
2.47153e-08
-3.44822e-07
2.49439e-08
-3.53651e-07
2.51822e-08
-3.62561e-07
2.54297e-08
-3.71553e-07
2.56857e-08
-3.80631e-07
2.59494e-08
-3.89796e-07
2.62198e-08
-3.99049e-07
2.64962e-08
-4.08393e-07
2.67772e-08
-4.17828e-07
2.70618e-08
-4.27353e-07
2.73485e-08
-4.3697e-07
2.7636e-08
-4.46677e-07
2.79226e-08
-4.56473e-07
2.82065e-08
-4.66356e-07
2.8486e-08
-4.76323e-07
2.87589e-08
-4.8637e-07
2.90231e-08
-4.96494e-07
2.92763e-08
-5.06689e-07
2.95159e-08
-5.16948e-07
2.97394e-08
-5.27265e-07
2.99438e-08
-5.37632e-07
3.01261e-08
-5.48039e-07
3.02833e-08
-5.58476e-07
3.04119e-08
-5.68931e-07
3.05084e-08
-5.79392e-07
3.05691e-08
-5.89844e-07
3.05902e-08
-6.00271e-07
3.05676e-08
-6.10658e-07
3.04971e-08
-6.20984e-07
3.03744e-08
-6.31231e-07
3.0195e-08
-6.41378e-07
2.99543e-08
-6.514e-07
2.96475e-08
-6.61273e-07
2.92699e-08
-6.70972e-07
2.88166e-08
-6.80468e-07
2.82826e-08
-6.89732e-07
2.76629e-08
-6.98733e-07
2.69527e-08
-7.07438e-07
2.6147e-08
-7.15814e-07
2.52409e-08
-7.23825e-07
2.42298e-08
-7.31433e-07
2.31091e-08
-7.38601e-07
2.18746e-08
-7.45289e-07
2.05222e-08
-7.51456e-07
1.90482e-08
-7.5706e-07
1.74494e-08
-7.62061e-07
1.57229e-08
-7.66413e-07
1.38665e-08
-7.70075e-07
1.18784e-08
-7.73003e-07
9.7578e-09
-7.75152e-07
7.50441e-09
-7.76481e-07
5.11892e-09
-7.76947e-07
2.60288e-09
-7.76509e-07
-4.10856e-11
-7.75127e-07
-2.80932e-09
-7.72763e-07
-5.69696e-09
-7.6938e-07
-8.69794e-09
-7.64946e-07
-1.18048e-08
-7.59431e-07
-1.5009e-08
-7.52807e-07
-1.83001e-08
-7.45053e-07
-2.16667e-08
-7.36148e-07
-2.50956e-08
-7.2608e-07
-2.85724e-08
-7.14841e-07
-3.20808e-08
-7.02428e-07
-3.56036e-08
-6.88844e-07
-3.91216e-08
-6.74101e-07
-4.26148e-08
-6.58215e-07
-4.60616e-08
-6.41211e-07
-4.94393e-08
-6.23122e-07
-5.27242e-08
-6.03988e-07
-5.5892e-08
-5.83857e-07
-5.89174e-08
-5.62787e-07
-6.17749e-08
-5.40841e-07
-6.44387e-08
-5.18094e-07
-6.6883e-08
-4.94626e-07
-6.90824e-08
-4.70526e-07
-7.10123e-08
-4.45892e-07
-7.26486e-08
-4.20828e-07
-7.39687e-08
-3.95444e-07
-7.49517e-08
-3.69857e-07
-7.55782e-08
-3.4419e-07
-7.58312e-08
-3.18569e-07
-7.56961e-08
-2.93125e-07
-7.5161e-08
-2.67992e-07
-7.42171e-08
-2.43305e-07
-7.28588e-08
-2.192e-07
-7.10838e-08
-1.95811e-07
-6.88937e-08
-1.73272e-07
-6.62939e-08
-1.51712e-07
-6.32938e-08
-1.31255e-07
-5.99074e-08
-1.12022e-07
-5.61529e-08
-9.41199e-08
-5.20542e-08
-7.765e-08
-4.76402e-08
-6.2699e-08
-4.2947e-08
-4.93389e-08
-3.80183e-08
-3.76237e-08
-3.29076e-08
-2.75853e-08
-2.7681e-08
-1.92297e-08
-2.24211e-08
-1.25312e-08
-1.72324e-08
-7.42686e-09
-1.22486e-08
-3.80893e-09
-7.64333e-09
-1.51706e-09
-3.64301e-09
-3.29663e-10
-5.41933e-10
4.68118e-11
1.27852e-09
1.28566e-09
3.24291e-11
-6.41838e-10
-4.8734e-11
-9.13571e-10
-3.77612e-10
-4.40671e-10
-1.05482e-09
5.78688e-10
-2.15533e-09
1.99261e-09
-3.73261e-09
3.67744e-09
-5.82176e-09
5.53375e-09
-8.44239e-09
7.48302e-09
-1.16012e-08
9.46401e-09
-1.52944e-08
1.14296e-08
-1.95098e-08
1.33444e-08
-2.42284e-08
1.51822e-08
-2.94267e-08
1.69245e-08
-3.50774e-08
1.85588e-08
-4.1151e-08
2.00776e-08
-4.76166e-08
2.14773e-08
-5.44428e-08
2.27572e-08
-6.15985e-08
2.39192e-08
-6.9053e-08
2.4967e-08
-7.67769e-08
2.59055e-08
-8.47422e-08
2.6741e-08
-9.29224e-08
2.74801e-08
-1.01293e-07
2.81302e-08
-1.09831e-07
2.86986e-08
-1.18516e-07
2.9193e-08
-1.27328e-07
2.96209e-08
-1.36252e-07
2.99897e-08
-1.45272e-07
3.03063e-08
-1.54374e-07
3.05776e-08
-1.63548e-07
3.08101e-08
-1.72784e-07
3.10096e-08
-1.82073e-07
3.1182e-08
-1.91409e-07
3.13323e-08
-2.00786e-07
3.14654e-08
-2.10201e-07
3.15857e-08
-2.19649e-07
3.1697e-08
-2.29129e-07
3.18031e-08
-2.38641e-07
3.1907e-08
-2.48183e-07
3.20118e-08
-2.57756e-07
3.21199e-08
-2.67362e-07
3.22336e-08
-2.77001e-07
3.23549e-08
-2.86677e-07
3.24853e-08
-2.96392e-07
3.26264e-08
-3.06148e-07
3.27794e-08
-3.1595e-07
3.29453e-08
-3.258e-07
3.31248e-08
-3.35703e-07
3.33187e-08
-3.45662e-07
3.35273e-08
-3.55681e-07
3.37509e-08
-3.65765e-07
3.39898e-08
-3.75916e-07
3.42438e-08
-3.8614e-07
3.45128e-08
-3.9644e-07
3.47966e-08
-4.06819e-07
3.50947e-08
-4.17282e-07
3.54066e-08
-4.27831e-07
3.57315e-08
-4.3847e-07
3.60686e-08
-4.49201e-07
3.6417e-08
-4.60027e-07
3.67755e-08
-4.7095e-07
3.71428e-08
-4.81972e-07
3.75176e-08
-4.93093e-07
3.78983e-08
-5.04314e-07
3.82831e-08
-5.15636e-07
3.867e-08
-5.27057e-07
3.90571e-08
-5.38576e-07
3.9442e-08
-5.50192e-07
3.98222e-08
-5.61901e-07
4.01951e-08
-5.737e-07
4.05577e-08
-5.85584e-07
4.09071e-08
-5.97547e-07
4.12398e-08
-6.09584e-07
4.15524e-08
-6.21685e-07
4.18411e-08
-6.33844e-07
4.21019e-08
-6.46048e-07
4.23305e-08
-6.58287e-07
4.25226e-08
-6.70549e-07
4.26734e-08
-6.82818e-07
4.27779e-08
-6.9508e-07
4.28311e-08
-7.07318e-07
4.28276e-08
-7.19512e-07
4.27616e-08
-7.31642e-07
4.26275e-08
-7.43687e-07
4.24191e-08
-7.55622e-07
4.21303e-08
-7.67423e-07
4.17548e-08
-7.79061e-07
4.12859e-08
-7.90508e-07
4.07172e-08
-8.01734e-07
4.00418e-08
-8.12704e-07
3.92531e-08
-8.23386e-07
3.83443e-08
-8.33742e-07
3.73087e-08
-8.43734e-07
3.61395e-08
-8.53324e-07
3.48304e-08
-8.62469e-07
3.33749e-08
-8.71127e-07
3.17671e-08
-8.79253e-07
3.00011e-08
-8.86803e-07
2.80717e-08
-8.93728e-07
2.59741e-08
-8.99983e-07
2.3704e-08
-9.05518e-07
2.12577e-08
-9.10284e-07
1.86325e-08
-9.14232e-07
1.58264e-08
-9.17313e-07
1.28384e-08
-9.19477e-07
9.66853e-09
-9.20676e-07
6.31805e-09
-9.20862e-07
2.78948e-09
-9.1999e-07
-9.13281e-10
-9.18015e-07
-4.78483e-09
-9.14893e-07
-8.81816e-09
-9.10587e-07
-1.30046e-08
-9.05058e-07
-1.73337e-08
-8.98274e-07
-2.17932e-08
-8.90205e-07
-2.63689e-08
-8.80827e-07
-3.10446e-08
-8.7012e-07
-3.58021e-08
-8.58071e-07
-4.06215e-08
-8.44672e-07
-4.54804e-08
-8.29921e-07
-5.03549e-08
-8.13823e-07
-5.52189e-08
-7.96393e-07
-6.00448e-08
-7.77652e-07
-6.48032e-08
-7.57628e-07
-6.94629e-08
-7.3636e-07
-7.39919e-08
-7.13896e-07
-7.83567e-08
-6.9029e-07
-8.2523e-08
-6.65609e-07
-8.64561e-08
-6.39927e-07
-9.01208e-08
-6.13327e-07
-9.34822e-08
-5.85904e-07
-9.65058e-08
-5.57758e-07
-9.91579e-08
-5.29001e-07
-1.01406e-07
-4.9975e-07
-1.0322e-07
-4.70132e-07
-1.0457e-07
-4.40279e-07
-1.05431e-07
-4.10331e-07
-1.05779e-07
-3.80432e-07
-1.05595e-07
-3.5073e-07
-1.04863e-07
-3.21377e-07
-1.0357e-07
-2.92527e-07
-1.01709e-07
-2.64332e-07
-9.92781e-08
-2.36947e-07
-9.62787e-08
-2.10523e-07
-9.27187e-08
-1.85205e-07
-8.86117e-08
-1.61135e-07
-8.39772e-08
-1.38446e-07
-7.88413e-08
-1.17263e-07
-7.32372e-08
-9.76977e-08
-6.72059e-08
-7.9847e-08
-6.07977e-08
-6.3792e-08
-5.40733e-08
-4.9593e-08
-4.71066e-08
-3.72867e-08
-3.99873e-08
-2.68819e-08
-3.28258e-08
-1.83554e-08
-2.57589e-08
-1.16467e-08
-1.89574e-08
-6.65289e-09
-1.26371e-08
-3.22377e-09
-7.07213e-09
-1.15639e-09
-2.60931e-09
-1.90318e-10
3.12445e-10
1.09534e-09
-4.45938e-11
-5.97229e-10
-3.24568e-10
-6.33618e-10
-9.55017e-10
1.89773e-10
-2.02445e-09
1.64814e-09
-3.5993e-09
3.56746e-09
-5.72674e-09
5.80487e-09
-8.43718e-09
8.24418e-09
-1.17466e-08
1.07925e-08
-1.56589e-08
1.33762e-08
-2.01675e-08
1.59383e-08
-2.5258e-08
1.84349e-08
-3.0909e-08
2.08332e-08
-3.70945e-08
2.31099e-08
-4.37846e-08
2.52489e-08
-5.09471e-08
2.72401e-08
-5.85482e-08
2.90784e-08
-6.65536e-08
3.07626e-08
-7.49291e-08
3.22947e-08
-8.36412e-08
3.3679e-08
-9.26573e-08
3.49216e-08
-1.01946e-07
3.60301e-08
-1.11479e-07
3.7013e-08
-1.21229e-07
3.78794e-08
-1.31169e-07
3.86388e-08
-1.41277e-07
3.93009e-08
-1.51531e-07
3.98753e-08
-1.61913e-07
4.03714e-08
-1.72405e-07
4.07985e-08
-1.82993e-07
4.11654e-08
-1.93663e-07
4.14803e-08
-2.04404e-07
4.17511e-08
-2.15208e-07
4.19852e-08
-2.26065e-07
4.21894e-08
-2.36969e-07
4.237e-08
-2.47916e-07
4.25327e-08
-2.58902e-07
4.26828e-08
-2.69924e-07
4.28251e-08
-2.80981e-07
4.29638e-08
-2.92072e-07
4.31027e-08
-3.03197e-07
4.32452e-08
-3.14357e-07
4.33943e-08
-3.25555e-07
4.35526e-08
-3.36792e-07
4.37223e-08
-3.48071e-07
4.39055e-08
-3.59395e-07
4.41037e-08
-3.70768e-07
4.43182e-08
-3.82194e-07
4.45502e-08
-3.93675e-07
4.48004e-08
-4.05218e-07
4.50696e-08
-4.16825e-07
4.53581e-08
-4.28501e-07
4.5666e-08
-4.40251e-07
4.59934e-08
-4.52078e-07
4.634e-08
-4.63987e-07
4.67055e-08
-4.75981e-07
4.70892e-08
-4.88065e-07
4.74905e-08
-5.00242e-07
4.79083e-08
-5.12515e-07
4.83415e-08
-5.24886e-07
4.87888e-08
-5.3736e-07
4.92486e-08
-5.49936e-07
4.97193e-08
-5.62617e-07
5.01989e-08
-5.75404e-07
5.06852e-08
-5.88297e-07
5.1176e-08
-6.01296e-07
5.16686e-08
-6.14399e-07
5.21601e-08
-6.27604e-07
5.26475e-08
-6.4091e-07
5.31275e-08
-6.54311e-07
5.35965e-08
-6.67804e-07
5.40506e-08
-6.81382e-07
5.44856e-08
-6.9504e-07
5.48972e-08
-7.08768e-07
5.52807e-08
-7.22558e-07
5.56309e-08
-7.36399e-07
5.59427e-08
-7.50279e-07
5.62103e-08
-7.64184e-07
5.64279e-08
-7.781e-07
5.65893e-08
-7.9201e-07
5.66879e-08
-8.05896e-07
5.6717e-08
-8.19738e-07
5.66694e-08
-8.33514e-07
5.65377e-08
-8.47201e-07
5.63144e-08
-8.60773e-07
5.59915e-08
-8.74204e-07
5.5561e-08
-8.87464e-07
5.50146e-08
-9.00521e-07
5.43437e-08
-9.13344e-07
5.35398e-08
-9.25897e-07
5.25943e-08
-9.38142e-07
5.14984e-08
-9.50041e-07
5.02434e-08
-9.61553e-07
4.88207e-08
-9.72635e-07
4.72218e-08
-9.83243e-07
4.54383e-08
-9.93331e-07
4.34622e-08
-1.00285e-06
4.12859e-08
-1.01175e-06
3.89022e-08
-1.01998e-06
3.63045e-08
-1.0275e-06
3.34866e-08
-1.03424e-06
3.04435e-08
-1.04015e-06
2.71708e-08
-1.04518e-06
2.36651e-08
-1.04928e-06
1.99244e-08
-1.05239e-06
1.59476e-08
-1.05446e-06
1.17353e-08
-1.05543e-06
7.28953e-09
-1.05525e-06
2.61388e-09
-1.05388e-06
-2.28611e-09
-1.05126e-06
-7.40304e-09
-1.04735e-06
-1.27274e-08
-1.04211e-06
-1.82476e-08
-1.03549e-06
-2.39498e-08
-1.02747e-06
-2.98175e-08
-1.018e-06
-3.58322e-08
-1.00708e-06
-4.19726e-08
-9.94663e-07
-4.8215e-08
-9.80751e-07
-5.45331e-08
-9.65334e-07
-6.0898e-08
-9.4841e-07
-6.72786e-08
-9.29988e-07
-7.3641e-08
-9.10083e-07
-7.99494e-08
-8.88721e-07
-8.61658e-08
-8.65934e-07
-9.225e-08
-8.41765e-07
-9.81605e-08
-8.16268e-07
-1.03854e-07
-7.89504e-07
-1.09287e-07
-7.61546e-07
-1.14414e-07
-7.32477e-07
-1.1919e-07
-7.0239e-07
-1.2357e-07
-6.71387e-07
-1.27509e-07
-6.3958e-07
-1.30965e-07
-6.07092e-07
-1.33895e-07
-5.74052e-07
-1.3626e-07
-5.40599e-07
-1.38023e-07
-5.0688e-07
-1.3915e-07
-4.73048e-07
-1.39612e-07
-4.39261e-07
-1.39382e-07
-4.05682e-07
-1.38442e-07
-3.72478e-07
-1.36774e-07
-3.39819e-07
-1.34369e-07
-3.07873e-07
-1.31224e-07
-2.76808e-07
-1.27343e-07
-2.46792e-07
-1.22735e-07
-2.17984e-07
-1.17419e-07
-1.90541e-07
-1.1142e-07
-1.64609e-07
-1.04773e-07
-1.40324e-07
-9.75222e-08
-1.17809e-07
-8.97208e-08
-9.71722e-08
-8.14348e-08
-7.8502e-08
-7.27435e-08
-6.18666e-08
-6.3742e-08
-4.7309e-08
-5.45449e-08
-3.48441e-08
-4.52907e-08
-2.44553e-08
-3.61477e-08
-1.60905e-08
-2.73221e-08
-9.65929e-09
-1.90683e-08
-5.02983e-09
-1.17016e-08
-2.0278e-09
-5.61134e-09
-4.36458e-10
-1.27889e-09
6.58884e-10
-1.2784e-10
-4.69388e-10
-6.25913e-10
-1.35556e-10
-1.58771e-09
1.15158e-09
-3.0865e-09
3.14693e-09
-5.1773e-09
5.65825e-09
-7.89853e-09
8.52611e-09
-1.12738e-08
1.16195e-08
-1.53139e-08
1.48325e-08
-2.00182e-08
1.80805e-08
-2.53766e-08
2.12967e-08
-3.13713e-08
2.44296e-08
-3.79783e-08
2.74402e-08
-4.51686e-08
3.03002e-08
-5.29097e-08
3.299e-08
-6.11666e-08
3.5497e-08
-6.99031e-08
3.78148e-08
-7.9082e-08
3.99416e-08
-8.86665e-08
4.18792e-08
-9.86203e-08
4.36328e-08
-1.08908e-07
4.52097e-08
-1.19497e-07
4.66188e-08
-1.30354e-07
4.78704e-08
-1.41451e-07
4.89758e-08
-1.52759e-07
4.99465e-08
-1.64252e-07
5.07944e-08
-1.75908e-07
5.15314e-08
-1.87706e-07
5.21692e-08
-1.99627e-07
5.27192e-08
-2.11654e-07
5.31923e-08
-2.23772e-07
5.3599e-08
-2.3597e-07
5.39491e-08
-2.48237e-07
5.42518e-08
-2.60563e-07
5.45156e-08
-2.72942e-07
5.47486e-08
-2.85367e-07
5.49579e-08
-2.97834e-07
5.51503e-08
-3.10341e-07
5.53317e-08
-3.22885e-07
5.55075e-08
-3.35465e-07
5.56827e-08
-3.48081e-07
5.58615e-08
-3.60734e-07
5.60477e-08
-3.73427e-07
5.62447e-08
-3.8616e-07
5.64554e-08
-3.98936e-07
5.66822e-08
-4.1176e-07
5.69273e-08
-4.24634e-07
5.71923e-08
-4.37563e-07
5.74787e-08
-4.5055e-07
5.77875e-08
-4.636e-07
5.81196e-08
-4.76717e-07
5.84754e-08
-4.89906e-07
5.88551e-08
-5.03171e-07
5.92588e-08
-5.16517e-07
5.96861e-08
-5.29948e-07
6.01365e-08