/*--------------------------------*- C++ -*----------------------------------*\
  =========                 |
  \\      /  F ield         | OpenFOAM: The Open Source CFD Toolbox
   \\    /   O peration     | Website:  https://openfoam.org
    \\  /    A nd           | Version:  7
     \\/     M anipulation  |
\*---------------------------------------------------------------------------*/
FoamFile
{
    version     2.0;
    format      ascii;
    class       volVectorField;
    location    "0.35";
    object      U;
}
// * * * * * * * * * * * * * * * * * * * * * * * * * * * * * * * * * * * * * //

dimensions      [0 1 -1 0 0 0 0];

internalField   nonuniform List<vector> 
12800
(
(3.16832e-06 -3.40348e-06 0)
(1.80916e-05 -9.80297e-06 0)
(4.41484e-05 -1.20427e-05 0)
(7.05011e-05 -1.11062e-05 0)
(9.05813e-05 -8.42032e-06 0)
(0.000101033 -4.84678e-06 0)
(0.000100077 -8.83118e-07 0)
(8.68671e-05 3.17452e-06 0)
(6.1202e-05 7.15551e-06 0)
(2.32971e-05 1.09631e-05 0)
(-2.63782e-05 1.45385e-05 0)
(-8.71844e-05 1.78528e-05 0)
(-0.000158376 2.0892e-05 0)
(-0.00023916 2.36529e-05 0)
(-0.000328722 2.61399e-05 0)
(-0.000426247 2.83629e-05 0)
(-0.000530942 3.0335e-05 0)
(-0.000642042 3.20717e-05 0)
(-0.000758827 3.35901e-05 0)
(-0.00088062 3.49073e-05 0)
(-0.00100679 3.60411e-05 0)
(-0.00113677 3.70094e-05 0)
(-0.00127004 3.78302e-05 0)
(-0.00140612 3.852e-05 0)
(-0.00154459 3.90943e-05 0)
(-0.00168508 3.95679e-05 0)
(-0.00182727 3.99555e-05 0)
(-0.00197088 4.02707e-05 0)
(-0.00211567 4.05259e-05 0)
(-0.00226144 4.07321e-05 0)
(-0.00240802 4.08991e-05 0)
(-0.00255529 4.10361e-05 0)
(-0.00270314 4.11517e-05 0)
(-0.00285149 4.12533e-05 0)
(-0.0030003 4.13473e-05 0)
(-0.00314953 4.14395e-05 0)
(-0.00329917 4.15353e-05 0)
(-0.00344924 4.16394e-05 0)
(-0.00359975 4.17554e-05 0)
(-0.00375073 4.18866e-05 0)
(-0.00390224 4.20359e-05 0)
(-0.00405433 4.22056e-05 0)
(-0.00420706 4.23978e-05 0)
(-0.00436051 4.26144e-05 0)
(-0.00451475 4.28569e-05 0)
(-0.00466986 4.31263e-05 0)
(-0.00482593 4.34233e-05 0)
(-0.00498305 4.37486e-05 0)
(-0.00514132 4.41026e-05 0)
(-0.00530082 4.44859e-05 0)
(-0.00546164 4.48984e-05 0)
(-0.00562389 4.53402e-05 0)
(-0.00578765 4.58111e-05 0)
(-0.00595302 4.63105e-05 0)
(-0.00612009 4.68381e-05 0)
(-0.00628894 4.73932e-05 0)
(-0.00645967 4.79751e-05 0)
(-0.00663236 4.8583e-05 0)
(-0.00680708 4.92158e-05 0)
(-0.00698392 4.98723e-05 0)
(-0.00716293 5.05509e-05 0)
(-0.00734419 5.12499e-05 0)
(-0.00752775 5.19673e-05 0)
(-0.00771367 5.27014e-05 0)
(-0.00790197 5.34498e-05 0)
(-0.00809271 5.42102e-05 0)
(-0.00828589 5.49798e-05 0)
(-0.00848153 5.57553e-05 0)
(-0.00867964 5.65333e-05 0)
(-0.0088802 5.73099e-05 0)
(-0.00908317 5.80812e-05 0)
(-0.00928853 5.8843e-05 0)
(-0.00949621 5.95905e-05 0)
(-0.00970613 6.03186e-05 0)
(-0.00991821 6.10215e-05 0)
(-0.0101323 6.16934e-05 0)
(-0.0103483 6.2328e-05 0)
(-0.0105661 6.29183e-05 0)
(-0.0107854 6.34573e-05 0)
(-0.011006 6.3937e-05 0)
(-0.0112277 6.43492e-05 0)
(-0.0114503 6.4685e-05 0)
(-0.0116734 6.49355e-05 0)
(-0.0118967 6.5091e-05 0)
(-0.0121198 6.51412e-05 0)
(-0.0123424 6.50756e-05 0)
(-0.012564 6.48831e-05 0)
(-0.0127841 6.45524e-05 0)
(-0.0130023 6.40716e-05 0)
(-0.0132179 6.34286e-05 0)
(-0.0134304 6.2611e-05 0)
(-0.0136391 6.16059e-05 0)
(-0.0138434 6.04005e-05 0)
(-0.0140426 5.89819e-05 0)
(-0.0142359 5.73371e-05 0)
(-0.0144225 5.54533e-05 0)
(-0.0146015 5.33178e-05 0)
(-0.0147722 5.09181e-05 0)
(-0.0149335 4.82424e-05 0)
(-0.0150846 4.52795e-05 0)
(-0.0152245 4.20192e-05 0)
(-0.0153521 3.84519e-05 0)
(-0.0154665 3.45695e-05 0)
(-0.0155665 3.03649e-05 0)
(-0.0156512 2.5833e-05 0)
(-0.0157193 2.09704e-05 0)
(-0.01577 1.57759e-05 0)
(-0.015802 1.02505e-05 0)
(-0.0158144 4.39795e-06 0)
(-0.0158061 -1.77496e-06 0)
(-0.0157761 -8.25908e-06 0)
(-0.0157234 -1.50415e-05 0)
(-0.0156472 -2.21056e-05 0)
(-0.0155465 -2.94312e-05 0)
(-0.0154207 -3.69942e-05 0)
(-0.0152691 -4.47663e-05 0)
(-0.0150911 -5.2715e-05 0)
(-0.0148862 -6.0804e-05 0)
(-0.0146542 -6.89921e-05 0)
(-0.0143948 -7.72342e-05 0)
(-0.014108 -8.54811e-05 0)
(-0.013794 -9.36797e-05 0)
(-0.0134531 -0.000101773 0)
(-0.0130859 -0.000109701 0)
(-0.0126929 -0.000117401 0)
(-0.0122753 -0.000124806 0)
(-0.011834 -0.000131851 0)
(-0.0113705 -0.000138466 0)
(-0.0108862 -0.000144584 0)
(-0.0103831 -0.000150134 0)
(-0.0098631 -0.000155051 0)
(-0.00932839 -0.000159268 0)
(-0.00878141 -0.000162725 0)
(-0.00822475 -0.000165363 0)
(-0.0076612 -0.000167129 0)
(-0.00709368 -0.000167973 0)
(-0.00652528 -0.000167857 0)
(-0.00595918 -0.000166743 0)
(-0.00539867 -0.000164607 0)
(-0.00484711 -0.000161429 0)
(-0.00430789 -0.000157197 0)
(-0.00378442 -0.000151911 0)
(-0.0032801 -0.000145575 0)
(-0.00279829 -0.000138204 0)
(-0.00234228 -0.000129819 0)
(-0.00191524 -0.000120449 0)
(-0.00152024 -0.000110129 0)
(-0.00116016 -9.89026e-05 0)
(-0.000837719 -8.68185e-05 0)
(-0.000555375 -7.39361e-05 0)
(-0.000315308 -6.03279e-05 0)
(-0.000119331 -4.60892e-05 0)
(3.12206e-05 -3.13574e-05 0)
(0.000135687 -1.63497e-05 0)
(0.000194412 -1.4438e-06 0)
(0.000209301 1.26643e-05 0)
(0.000184676 2.46945e-05 0)
(0.000129154 3.21786e-05 0)
(6.14442e-05 3.05206e-05 0)
(1.38949e-05 1.39162e-05 0)
(9.73376e-06 -1.85786e-05 0)
(4.17928e-05 -4.19563e-05 0)
(8.84497e-05 -4.80867e-05 0)
(0.000131013 -4.11608e-05 0)
(0.000156958 -2.59272e-05 0)
(0.000158905 -5.76568e-06 0)
(0.00013223 1.70359e-05 0)
(7.43553e-05 4.09454e-05 0)
(-1.57555e-05 6.49485e-05 0)
(-0.000138043 8.83734e-05 0)
(-0.000291683 0.00011078 0)
(-0.000475328 0.000131895 0)
(-0.000687287 0.000151552 0)
(-0.000925654 0.000169663 0)
(-0.00118841 0.000186201 0)
(-0.00147348 0.000201178 0)
(-0.00177883 0.000214639 0)
(-0.00210244 0.000226649 0)
(-0.00244239 0.00023729 0)
(-0.00279686 0.000246652 0)
(-0.00316415 0.000254831 0)
(-0.00354268 0.000261928 0)
(-0.003931 0.000268045 0)
(-0.0043278 0.000273282 0)
(-0.00473189 0.000277735 0)
(-0.00514221 0.000281496 0)
(-0.00555784 0.000284657 0)
(-0.00597797 0.0002873 0)
(-0.00640189 0.000289505 0)
(-0.006829 0.000291345 0)
(-0.00725882 0.000292886 0)
(-0.00769094 0.000294189 0)
(-0.00812503 0.000295312 0)
(-0.00856086 0.000296305 0)
(-0.00899823 0.000297213 0)
(-0.00943703 0.000298077 0)
(-0.00987722 0.000298932 0)
(-0.0103188 0.000299812 0)
(-0.0107617 0.000300744 0)
(-0.0112061 0.000301752 0)
(-0.0116521 0.000302859 0)
(-0.0120998 0.000304081 0)
(-0.0125494 0.000305435 0)
(-0.0130011 0.000306933 0)
(-0.013455 0.000308587 0)
(-0.0139113 0.000310404 0)
(-0.0143704 0.000312394 0)
(-0.0148324 0.00031456 0)
(-0.0152976 0.000316906 0)
(-0.0157662 0.000319436 0)
(-0.0162384 0.000322149 0)
(-0.0167146 0.000325046 0)
(-0.017195 0.000328126 0)
(-0.0176799 0.000331386 0)
(-0.0181693 0.000334823 0)
(-0.0186637 0.000338431 0)
(-0.0191633 0.000342205 0)
(-0.0196682 0.000346138 0)
(-0.0201787 0.000350221 0)
(-0.0206949 0.000354445 0)
(-0.0212171 0.000358798 0)
(-0.0217453 0.000363269 0)
(-0.0222798 0.000367843 0)
(-0.0228207 0.000372504 0)
(-0.023368 0.000377236 0)
(-0.0239218 0.00038202 0)
(-0.0244822 0.000386835 0)
(-0.0250492 0.000391658 0)
(-0.0256226 0.000396465 0)
(-0.0262026 0.000401227 0)
(-0.0267888 0.000405917 0)
(-0.0273813 0.000410501 0)
(-0.0279797 0.000414948 0)
(-0.0285839 0.000419219 0)
(-0.0291935 0.000423275 0)
(-0.0298081 0.000427076 0)
(-0.0304274 0.000430575 0)
(-0.0310508 0.000433726 0)
(-0.0316777 0.000436478 0)
(-0.0323075 0.000438778 0)
(-0.0329394 0.000440569 0)
(-0.0335728 0.000441793 0)
(-0.0342066 0.000442387 0)
(-0.0348399 0.000442287 0)
(-0.0354716 0.000441424 0)
(-0.0361005 0.00043973 0)
(-0.0367255 0.000437131 0)
(-0.0373449 0.000433552 0)
(-0.0379575 0.000428918 0)
(-0.0385616 0.000423148 0)
(-0.0391555 0.000416165 0)
(-0.0397374 0.000407887 0)
(-0.0403054 0.000398233 0)
(-0.0408574 0.000387123 0)
(-0.0413913 0.000374476 0)
(-0.0419048 0.000360215 0)
(-0.0423956 0.000344261 0)
(-0.0428613 0.000326543 0)
(-0.0432992 0.000306991 0)
(-0.0437069 0.000285541 0)
(-0.0440814 0.000262135 0)
(-0.0444201 0.000236721 0)
(-0.0447202 0.000209258 0)
(-0.0449787 0.000179714 0)
(-0.0451927 0.000148065 0)
(-0.0453594 0.000114305 0)
(-0.0454757 7.84378e-05 0)
(-0.0455389 4.04849e-05 0)
(-0.0455461 4.83886e-07 0)
(-0.0454945 -4.15086e-05 0)
(-0.0453814 -8.54171e-05 0)
(-0.0452045 -0.000131144 0)
(-0.0449612 -0.000178571 0)
(-0.0446494 -0.000227553 0)
(-0.0442672 -0.000277925 0)
(-0.043813 -0.000329492 0)
(-0.0432852 -0.000382039 0)
(-0.0426828 -0.00043532 0)
(-0.0420052 -0.000489066 0)
(-0.0412519 -0.000542983 0)
(-0.0404232 -0.000596753 0)
(-0.0395196 -0.000650034 0)
(-0.0385421 -0.000702462 0)
(-0.0374924 -0.000753657 0)
(-0.0363725 -0.00080322 0)
(-0.0351852 -0.00085074 0)
(-0.0339336 -0.000895797 0)
(-0.0326215 -0.000937965 0)
(-0.0312534 -0.000976817 0)
(-0.0298343 -0.00101193 0)
(-0.0283696 -0.00104289 0)
(-0.0268656 -0.00106929 0)
(-0.0253287 -0.00109076 0)
(-0.0237661 -0.00110694 0)
(-0.0221855 -0.0011175 0)
(-0.0205948 -0.00112216 0)
(-0.0190023 -0.00112066 0)
(-0.0174168 -0.0011128 0)
(-0.0158472 -0.00109841 0)
(-0.0143025 -0.0010774 0)
(-0.0127919 -0.00104971 0)
(-0.0113247 -0.00101533 0)
(-0.0099099 -0.000974331 0)
(-0.00855666 -0.000926825 0)
(-0.00727372 -0.000872983 0)
(-0.00606958 -0.000813038 0)
(-0.00495232 -0.000747284 0)
(-0.00392951 -0.000676085 0)
(-0.00300809 -0.000599882 0)
(-0.00219423 -0.000519219 0)
(-0.00149314 -0.000434776 0)
(-0.000908825 -0.000347436 0)
(-0.000443699 -0.000258398 0)
(-9.80723e-05 -0.000169366 0)
(0.000130651 -8.2885e-05 0)
(0.000249179 -2.90215e-06 0)
(0.000269812 6.43371e-05 0)
(0.000212926 0.000108814 0)
(0.000114467 0.00011472 0)
(3.0336e-05 6.13231e-05 0)
(1.20938e-05 -4.45148e-05 0)
(4.82896e-05 -8.86859e-05 0)
(9.52918e-05 -9.49996e-05 0)
(0.000130293 -7.31954e-05 0)
(0.000138112 -3.21476e-05 0)
(0.000109273 2.12036e-05 0)
(3.74524e-05 8.17315e-05 0)
(-8.11504e-05 0.000145738 0)
(-0.00024829 0.000210595 0)
(-0.000464172 0.000274464 0)
(-0.000727865 0.000336077 0)
(-0.00103763 0.000394584 0)
(-0.00139115 0.000449438 0)
(-0.00178574 0.00050032 0)
(-0.00221848 0.000547077 0)
(-0.00268635 0.000589683 0)
(-0.00318631 0.000628207 0)
(-0.00371534 0.000662787 0)
(-0.00427054 0.00069361 0)
(-0.00484912 0.000720897 0)
(-0.00544846 0.000744892 0)
(-0.00606612 0.000765855 0)
(-0.00669984 0.000784053 0)
(-0.00734755 0.00079975 0)
(-0.00800739 0.000813208 0)
(-0.00867767 0.00082468 0)
(-0.00935692 0.000834412 0)
(-0.0100438 0.000842635 0)
(-0.0107372 0.000849568 0)
(-0.0114362 0.000855414 0)
(-0.0121398 0.000860362 0)
(-0.0128476 0.000864586 0)
(-0.0135588 0.000868246 0)
(-0.014273 0.000871487 0)
(-0.0149901 0.00087444 0)
(-0.0157096 0.000877221 0)
(-0.0164316 0.000879937 0)
(-0.0171559 0.000882679 0)
(-0.0178825 0.000885531 0)
(-0.0186117 0.000888566 0)
(-0.0193434 0.000891845 0)
(-0.0200779 0.000895423 0)
(-0.0208154 0.000899348 0)
(-0.0215562 0.000903656 0)
(-0.0223006 0.000908382 0)
(-0.0230489 0.000913553 0)
(-0.0238014 0.000919189 0)
(-0.0245585 0.000925308 0)
(-0.0253206 0.000931922 0)
(-0.026088 0.000939038 0)
(-0.0268611 0.000946659 0)
(-0.0276403 0.000954786 0)
(-0.028426 0.000963414 0)
(-0.0292186 0.000972536 0)
(-0.0300184 0.000982141 0)
(-0.0308258 0.000992215 0)
(-0.0316411 0.00100274 0)
(-0.0324647 0.00101369 0)
(-0.0332969 0.00102505 0)
(-0.034138 0.00103678 0)
(-0.0349881 0.00104886 0)
(-0.0358476 0.00106123 0)
(-0.0367166 0.00107387 0)
(-0.0375953 0.00108672 0)
(-0.0384839 0.00109974 0)
(-0.0393823 0.00111286 0)
(-0.0402906 0.00112603 0)
(-0.0412088 0.00113917 0)
(-0.0421368 0.00115222 0)
(-0.0430745 0.00116509 0)
(-0.0440215 0.0011777 0)
(-0.0449777 0.00118995 0)
(-0.0459426 0.00120175 0)
(-0.0469158 0.00121299 0)
(-0.0478967 0.00122355 0)
(-0.0488847 0.00123331 0)
(-0.0498791 0.00124214 0)
(-0.050879 0.00124991 0)
(-0.0518834 0.00125647 0)
(-0.0528912 0.00126166 0)
(-0.0539013 0.00126533 0)
(-0.0549123 0.0012673 0)
(-0.0559227 0.0012674 0)
(-0.0569309 0.00126545 0)
(-0.0579351 0.00126125 0)
(-0.0589334 0.0012546 0)
(-0.0599237 0.00124531 0)
(-0.0609038 0.00123316 0)
(-0.0618714 0.00121794 0)
(-0.0628237 0.00119943 0)
(-0.0637581 0.0011774 0)
(-0.0646716 0.00115165 0)
(-0.0655613 0.00112194 0)
(-0.0664237 0.00108805 0)
(-0.0672557 0.00104977 0)
(-0.0680535 0.00100688 0)
(-0.0688134 0.000959188 0)
(-0.0695316 0.000906488 0)
(-0.0702041 0.000848601 0)
(-0.0708268 0.00078536 0)
(-0.0713953 0.000716616 0)
(-0.0719054 0.000642244 0)
(-0.0723527 0.00056214 0)
(-0.0727327 0.000476232 0)
(-0.0730409 0.000384478 0)
(-0.0732728 0.000286872 0)
(-0.0734239 0.000183448 0)
(-0.0734899 7.42866e-05 0)
(-0.0734665 -4.04883e-05 0)
(-0.0733494 -0.000160699 0)
(-0.0731346 -0.000286114 0)
(-0.0728185 -0.000416443 0)
(-0.0723974 -0.000551333 0)
(-0.0718681 -0.00069037 0)
(-0.0712279 -0.000833069 0)
(-0.0704742 -0.000978881 0)
(-0.0696052 -0.00112719 0)
(-0.0686192 -0.0012773 0)
(-0.0675155 -0.00142846 0)
(-0.0662938 -0.00157984 0)
(-0.0649544 -0.00173055 0)
(-0.0634985 -0.00187965 0)
(-0.0619278 -0.00202614 0)
(-0.060245 -0.00216895 0)
(-0.0584535 -0.00230699 0)
(-0.0565576 -0.00243913 0)
(-0.0545626 -0.00256422 0)
(-0.0524743 -0.0026811 0)
(-0.0502998 -0.0027886 0)
(-0.0480468 -0.00288556 0)
(-0.045724 -0.00297086 0)
(-0.0433408 -0.00304341 0)
(-0.0409076 -0.00310217 0)
(-0.0384353 -0.00314619 0)
(-0.0359358 -0.00317459 0)
(-0.0334212 -0.00318657 0)
(-0.0309045 -0.00318147 0)
(-0.0283991 -0.00315873 0)
(-0.0259187 -0.00311794 0)
(-0.0234771 -0.00305881 0)
(-0.0210886 -0.00298122 0)
(-0.0187671 -0.00288519 0)
(-0.0165268 -0.00277092 0)
(-0.0143814 -0.00263876 0)
(-0.0123443 -0.00248924 0)
(-0.0104283 -0.00232308 0)
(-0.00864567 -0.00214118 0)
(-0.00700772 -0.00194467 0)
(-0.0055247 -0.00173494 0)
(-0.00420557 -0.00151371 0)
(-0.00305768 -0.00128311 0)
(-0.00208633 -0.0010459 0)
(-0.0012943 -0.000805701 0)
(-0.000681072 -0.000567452 0)
(-0.00024186 -0.000338068 0)
(3.37864e-05 -0.000127469 0)
(0.000163461 4.99244e-05 0)
(0.00017405 0.000173287 0)
(0.000108668 0.000213073 0)
(3.1868e-05 0.000128622 0)
(1.13226e-05 -7.11266e-05 0)
(4.17864e-05 -0.000131562 0)
(7.40003e-05 -0.00013012 0)
(8.40325e-05 -8.33617e-05 0)
(5.57383e-05 -4.73529e-06 0)
(-2.12886e-05 9.50192e-05 0)
(-0.000154192 0.000207616 0)
(-0.00034741 0.000326834 0)
(-0.000603104 0.000448082 0)
(-0.000921645 0.000568023 0)
(-0.00130204 0.000684272 0)
(-0.00174228 0.000795171 0)
(-0.0022396 0.000899614 0)
(-0.00279076 0.000996914 0)
(-0.00339216 0.0010867 0)
(-0.00404002 0.00116886 0)
(-0.00473052 0.00124345 0)
(-0.00545983 0.00131068 0)
(-0.00622423 0.00137085 0)
(-0.00702013 0.00142434 0)
(-0.00784415 0.00147159 0)
(-0.00869309 0.00151305 0)
(-0.00956398 0.00154921 0)
(-0.0104541 0.00158056 0)
(-0.011361 0.00160758 0)
(-0.0122824 0.00163074 0)
(-0.0132164 0.00165051 0)
(-0.0141611 0.00166731 0)
(-0.015115 0.00168157 0)
(-0.0160769 0.00169367 0)
(-0.0170454 0.00170397 0)
(-0.0180199 0.00171281 0)
(-0.0189993 0.0017205 0)
(-0.0199832 0.00172731 0)
(-0.0209711 0.00173349 0)
(-0.0219626 0.00173928 0)
(-0.0229575 0.00174489 0)
(-0.0239558 0.00175049 0)
(-0.0249573 0.00175625 0)
(-0.0259623 0.00176231 0)
(-0.0269708 0.0017688 0)
(-0.027983 0.00177582 0)
(-0.0289993 0.00178346 0)
(-0.0300199 0.00179181 0)
(-0.0310453 0.00180093 0)
(-0.0320758 0.00181088 0)
(-0.0331118 0.00182169 0)
(-0.0341539 0.00183341 0)
(-0.0352025 0.00184605 0)
(-0.036258 0.00185964 0)
(-0.0373209 0.00187417 0)
(-0.0383918 0.00188965 0)
(-0.0394712 0.00190608 0)
(-0.0405594 0.00192343 0)
(-0.0416571 0.00194168 0)
(-0.0427645 0.00196081 0)
(-0.0438823 0.00198078 0)
(-0.0450107 0.00200154 0)
(-0.0461502 0.00202305 0)
(-0.0473011 0.00204523 0)
(-0.0484637 0.00206804 0)
(-0.0496384 0.00209138 0)
(-0.0508252 0.00211518 0)
(-0.0520245 0.00213935 0)
(-0.0532363 0.00216377 0)
(-0.0544606 0.00218834 0)
(-0.0556976 0.00221293 0)
(-0.0569469 0.00223741 0)
(-0.0582086 0.00226162 0)
(-0.0594823 0.00228542 0)
(-0.0607677 0.00230863 0)
(-0.0620643 0.00233107 0)
(-0.0633715 0.00235254 0)
(-0.0646888 0.00237283 0)
(-0.0660152 0.00239171 0)
(-0.0673499 0.00240894 0)
(-0.0686918 0.00242428 0)
(-0.0700397 0.00243745 0)
(-0.0713922 0.00244817 0)
(-0.0727478 0.00245615 0)
(-0.0741049 0.00246106 0)
(-0.0754614 0.00246258 0)
(-0.0768154 0.00246038 0)
(-0.0781647 0.00245409 0)
(-0.0795068 0.00244335 0)
(-0.0808391 0.00242778 0)
(-0.0821588 0.00240699 0)
(-0.0834627 0.00238058 0)
(-0.0847476 0.00234814 0)
(-0.0860101 0.00230925 0)
(-0.0872465 0.00226351 0)
(-0.0884528 0.0022105 0)
(-0.0896249 0.00214979 0)
(-0.0907584 0.00208097 0)
(-0.0918489 0.00200364 0)
(-0.0928915 0.00191741 0)
(-0.0938813 0.00182191 0)
(-0.0948132 0.00171676 0)
(-0.0956819 0.00160166 0)
(-0.0964819 0.00147628 0)
(-0.0972077 0.00134038 0)
(-0.0978536 0.00119374 0)
(-0.0984139 0.00103618 0)
(-0.0988826 0.000867587 0)
(-0.0992541 0.000687911 0)
(-0.0995224 0.000497167 0)
(-0.0996818 0.00029545 0)
(-0.0997266 8.29364e-05 0)
(-0.0996514 -0.000140106 0)
(-0.0994508 -0.000373312 0)
(-0.0991196 -0.000616213 0)
(-0.0986532 -0.000868229 0)
(-0.0980471 -0.00112867 0)
(-0.0972973 -0.00139671 0)
(-0.0964004 -0.00167142 0)
(-0.0953532 -0.00195174 0)
(-0.0941536 -0.00223646 0)
(-0.0927997 -0.00252428 0)
(-0.0912907 -0.00281374 0)
(-0.0896265 -0.00310327 0)
(-0.0878077 -0.00339118 0)
(-0.085836 -0.00367568 0)
(-0.0837141 -0.00395487 0)
(-0.0814454 -0.00422676 0)
(-0.0790349 -0.00448928 0)
(-0.0764881 -0.00474032 0)
(-0.073812 -0.00497771 0)
(-0.0710146 -0.00519926 0)
(-0.068105 -0.0054028 0)
(-0.0650935 -0.00558617 0)
(-0.0619914 -0.00574726 0)
(-0.0588111 -0.00588404 0)
(-0.055566 -0.00599459 0)
(-0.0522706 -0.00607711 0)
(-0.04894 -0.00612996 0)
(-0.0455903 -0.00615169 0)
(-0.0422383 -0.00614104 0)
(-0.0389012 -0.006097 0)
(-0.0355967 -0.0060188 0)
(-0.0323431 -0.00590593 0)
(-0.0291584 -0.00575819 0)
(-0.026061 -0.00557565 0)
(-0.0230689 -0.00535873 0)
(-0.0201999 -0.00510814 0)
(-0.0174711 -0.00482496 0)
(-0.0148992 -0.00451063 0)
(-0.0124995 -0.004167 0)
(-0.0102866 -0.00379633 0)
(-0.00827325 -0.00340146 0)
(-0.00647057 -0.00298585 0)
(-0.00488749 -0.00255381 0)
(-0.00353023 -0.00211077 0)
(-0.00240173 -0.00166377 0)
(-0.00150082 -0.00122204 0)
(-0.000821256 -0.000798012 0)
(-0.000350392 -0.00040866 0)
(-6.7882e-05 -7.74122e-05 0)
(5.61043e-05 0.000163682 0)
(6.59734e-05 0.000271256 0)
(2.45462e-05 0.000184007 0)
(8.7668e-06 -9.16991e-05 0)
(2.67486e-05 -0.000157923 0)
(3.27713e-05 -0.000137881 0)
(4.40555e-06 -5.49269e-05 0)
(-7.40795e-05 7.28832e-05 0)
(-0.000213252 0.00023102 0)
(-0.000420415 0.00040803 0)
(-0.000700134 0.000595098 0)
(-0.00105465 0.000785542 0)
(-0.00148433 0.00097437 0)
(-0.00198804 0.00115792 0)
(-0.00256353 0.00133359 0)
(-0.00320769 0.00149957 0)
(-0.0039168 0.0016547 0)
(-0.00468673 0.00179834 0)
(-0.00551311 0.0019302 0)
(-0.00639148 0.0020503 0)
(-0.00731735 0.00215891 0)
(-0.00828632 0.00225643 0)
(-0.00929414 0.00234343 0)
(-0.0103368 0.00242054 0)
(-0.0114104 0.00248845 0)
(-0.0125114 0.00254791 0)
(-0.0136365 0.00259966 0)
(-0.0147827 0.00264444 0)
(-0.0159473 0.002683 0)
(-0.0171278 0.00271606 0)
(-0.018322 0.0027443 0)
(-0.0195281 0.00276837 0)
(-0.0207443 0.00278889 0)
(-0.0219693 0.00280643 0)
(-0.0232018 0.00282154 0)
(-0.0244409 0.0028347 0)
(-0.0256857 0.00284635 0)
(-0.0269357 0.00285692 0)
(-0.0281904 0.00286677 0)
(-0.0294495 0.00287624 0)
(-0.0307128 0.00288562 0)
(-0.0319803 0.00289518 0)
(-0.033252 0.00290515 0)
(-0.034528 0.00291574 0)
(-0.0358087 0.00292713 0)
(-0.0370943 0.00293946 0)
(-0.0383851 0.00295287 0)
(-0.0396817 0.00296747 0)
(-0.0409844 0.00298335 0)
(-0.0422937 0.00300058 0)
(-0.0436102 0.00301921 0)
(-0.0449345 0.0030393 0)
(-0.046267 0.00306086 0)
(-0.0476084 0.0030839 0)
(-0.0489593 0.00310843 0)
(-0.0503202 0.00313443 0)
(-0.0516916 0.00316188 0)
(-0.0530742 0.00319074 0)
(-0.0544684 0.00322096 0)
(-0.0558747 0.00325248 0)
(-0.0572937 0.00328523 0)
(-0.0587258 0.00331911 0)
(-0.0601713 0.00335404 0)
(-0.0616306 0.00338989 0)
(-0.0631041 0.00342655 0)
(-0.0645918 0.00346386 0)
(-0.066094 0.00350168 0)
(-0.0676109 0.00353983 0)
(-0.0691423 0.00357813 0)
(-0.0706883 0.00361636 0)
(-0.0722486 0.00365431 0)
(-0.073823 0.00369173 0)
(-0.0754111 0.00372837 0)
(-0.0770124 0.00376394 0)
(-0.0786262 0.00379813 0)
(-0.0802519 0.00383063 0)
(-0.0818885 0.0038611 0)
(-0.083535 0.00388915 0)
(-0.08519 0.00391441 0)
(-0.0868523 0.00393647 0)
(-0.0885203 0.00395488 0)
(-0.0901921 0.00396918 0)
(-0.0918659 0.0039789 0)
(-0.0935395 0.00398353 0)
(-0.0952106 0.00398255 0)
(-0.0968764 0.0039754 0)
(-0.0985342 0.00396152 0)
(-0.100181 0.00394031 0)
(-0.101813 0.00391118 0)
(-0.103428 0.0038735 0)
(-0.10502 0.00382664 0)
(-0.106587 0.00376995 0)
(-0.108124 0.00370278 0)
(-0.109626 0.00362448 0)
(-0.111088 0.00353438 0)
(-0.112506 0.00343183 0)
(-0.113874 0.0033162 0)
(-0.115186 0.00318685 0)
(-0.116437 0.00304318 0)
(-0.117621 0.00288462 0)
(-0.118731 0.00271061 0)
(-0.119761 0.00252066 0)
(-0.120705 0.00231432 0)
(-0.121555 0.00209121 0)
(-0.122305 0.00185101 0)
(-0.122948 0.00159347 0)
(-0.123476 0.00131847 0)
(-0.123884 0.00102594 0)
(-0.124164 0.000715952 0)
(-0.12431 0.000388698 0)
(-0.124313 4.44956e-05 0)
(-0.124169 -0.00031619 0)
(-0.123871 -0.000692743 0)
(-0.123413 -0.00108438 0)
(-0.122789 -0.00149015 0)
(-0.121994 -0.00190891 0)
(-0.121024 -0.00233934 0)
(-0.119874 -0.00277993 0)
(-0.118542 -0.00322897 0)
(-0.117025 -0.00368454 0)
(-0.11532 -0.00414454 0)
(-0.113428 -0.00460666 0)
(-0.111348 -0.00506842 0)
(-0.109081 -0.00552715 0)
(-0.10663 -0.00598 0)
(-0.103998 -0.00642397 0)
(-0.101189 -0.00685595 0)
(-0.0982094 -0.00727269 0)
(-0.0950661 -0.00767086 0)
(-0.0917676 -0.00804707 0)
(-0.0883236 -0.00839789 0)
(-0.084745 -0.00871992 0)
(-0.0810444 -0.00900979 0)
(-0.0772353 -0.0092642 0)
(-0.0733327 -0.00947999 0)
(-0.0693525 -0.00965416 0)
(-0.0653121 -0.0097839 0)
(-0.0612297 -0.00986665 0)
(-0.0571244 -0.00990017 0)
(-0.0530163 -0.00988249 0)
(-0.0489259 -0.00981205 0)
(-0.0448744 -0.00968766 0)
(-0.0408835 -0.00950856 0)
(-0.0369747 -0.00927444 0)
(-0.0331698 -0.0089855 0)
(-0.0294903 -0.00864242 0)
(-0.0259573 -0.0082464 0)
(-0.0225912 -0.00779925 0)
(-0.0194115 -0.00730335 0)
(-0.0164365 -0.00676173 0)
(-0.013683 -0.0061782 0)
(-0.0111662 -0.00555739 0)
(-0.00889877 -0.00490502 0)
(-0.00689102 -0.0042281 0)
(-0.00514995 -0.00353536 0)
(-0.00367879 -0.00283783 0)
(-0.00247617 -0.00214965 0)
(-0.00153527 -0.00148921 0)
(-0.000842734 -0.000880758 0)
(-0.000377502 -0.000356485 0)
(-0.000109371 4.11037e-05 0)
(3.06363e-06 0.000256129 0)
(1.31556e-05 0.000209903 0)
(5.24878e-06 -0.000102721 0)
(6.29478e-06 -0.000159861 0)
(-2.21752e-05 -0.00010794 0)
(-9.91166e-05 2.37908e-05 0)
(-0.000238779 0.000212931 0)
(-0.000451264 0.000441339 0)
(-0.000743509 0.000694518 0)
(-0.00111978 0.000961109 0)
(-0.00158209 0.00123233 0)
(-0.00213058 0.00150147 0)
(-0.00276389 0.00176355 0)
(-0.00347947 0.00201489 0)
(-0.00427384 0.00225295 0)
(-0.00514289 0.00247603 0)
(-0.00608204 0.00268309 0)
(-0.00708641 0.00287369 0)
(-0.00815101 0.00304776 0)
(-0.00927079 0.00320559 0)
(-0.0104408 0.00334771 0)
(-0.0116562 0.00347485 0)
(-0.0129124 0.00358787 0)
(-0.0142051 0.00368771 0)
(-0.0155301 0.00377539 0)
(-0.0168836 0.00385195 0)
(-0.0182623 0.00391843 0)
(-0.0196628 0.00397587 0)
(-0.0210823 0.00402529 0)
(-0.0225183 0.00406766 0)
(-0.0239686 0.0041039 0)
(-0.0254312 0.00413491 0)
(-0.0269043 0.0041615 0)
(-0.0283866 0.00418445 0)
(-0.0298768 0.00420446 0)
(-0.0313741 0.00422218 0)
(-0.0328775 0.00423821 0)
(-0.0343866 0.00425309 0)
(-0.035901 0.00426731 0)
(-0.0374204 0.0042813 0)
(-0.0389447 0.00429545 0)
(-0.0404738 0.0043101 0)
(-0.0420081 0.00432556 0)
(-0.0435476 0.00434209 0)
(-0.0450928 0.00435992 0)
(-0.0466439 0.00437923 0)
(-0.0482015 0.0044002 0)
(-0.049766 0.00442295 0)
(-0.051338 0.0044476 0)
(-0.0529181 0.00447422 0)
(-0.0545069 0.00450289 0)
(-0.056105 0.00453363 0)
(-0.057713 0.00456647 0)
(-0.0593317 0.0046014 0)
(-0.0609616 0.00463841 0)
(-0.0626033 0.00467746 0)
(-0.0642575 0.00471849 0)
(-0.0659247 0.00476143 0)
(-0.0676055 0.00480618 0)
(-0.0693005 0.00485263 0)
(-0.07101 0.00490066 0)
(-0.0727345 0.00495011 0)
(-0.0744744 0.00500082 0)
(-0.0762299 0.00505259 0)
(-0.0780012 0.00510522 0)
(-0.0797886 0.00515847 0)
(-0.081592 0.00521208 0)
(-0.0834115 0.00526577 0)
(-0.0852468 0.00531924 0)
(-0.0870977 0.00537216 0)
(-0.0889638 0.00542416 0)
(-0.0908446 0.00547487 0)
(-0.0927394 0.00552385 0)
(-0.0946475 0.00557067 0)
(-0.0965678 0.00561486 0)
(-0.0984991 0.0056559 0)
(-0.10044 0.00569325 0)
(-0.10239 0.00572635 0)
(-0.104346 0.00575459 0)
(-0.106306 0.00577733 0)
(-0.108269 0.00579391 0)
(-0.110233 0.00580362 0)
(-0.112193 0.00580573 0)
(-0.114149 0.00579948 0)
(-0.116095 0.00578408 0)
(-0.11803 0.0057587 0)
(-0.11995 0.0057225 0)
(-0.12185 0.0056746 0)
(-0.123726 0.00561413 0)
(-0.125574 0.00554016 0)
(-0.127389 0.00545179 0)
(-0.129166 0.00534807 0)
(-0.130899 0.00522809 0)
(-0.132584 0.00509092 0)
(-0.134213 0.00493562 0)
(-0.135782 0.00476131 0)
(-0.137282 0.00456711 0)
(-0.138708 0.00435216 0)
(-0.140053 0.00411569 0)
(-0.141308 0.00385692 0)
(-0.142468 0.0035752 0)
(-0.143525 0.00326991 0)
(-0.14447 0.00294054 0)
(-0.145296 0.00258669 0)
(-0.145995 0.00220805 0)
(-0.146559 0.00180446 0)
(-0.146981 0.00137591 0)
(-0.147252 0.000922534 0)
(-0.147364 0.00044466 0)
(-0.147311 -5.72059e-05 0)
(-0.147085 -0.00058235 0)
(-0.146679 -0.00112984 0)
(-0.146086 -0.00169851 0)
(-0.145301 -0.00228695 0)
(-0.144317 -0.0028935 0)
(-0.14313 -0.00351622 0)
(-0.141735 -0.00415293 0)
(-0.140129 -0.00480115 0)
(-0.138309 -0.00545812 0)
(-0.136273 -0.00612082 0)
(-0.134021 -0.00678596 0)
(-0.131553 -0.00744998 0)
(-0.12887 -0.00810906 0)
(-0.125975 -0.00875916 0)
(-0.122873 -0.00939604 0)
(-0.119568 -0.0100152 0)
(-0.116067 -0.0106122 0)
(-0.112379 -0.0111821 0)
(-0.108513 -0.0117203 0)
(-0.104481 -0.0122219 0)
(-0.100295 -0.0126821 0)
(-0.0959693 -0.013096 0)
(-0.0915195 -0.0134592 0)
(-0.0869627 -0.013767 0)
(-0.0823172 -0.0140153 0)
(-0.0776025 -0.0142001 0)
(-0.0728394 -0.0143179 0)
(-0.0680497 -0.0143654 0)
(-0.0632562 -0.0143398 0)
(-0.0584821 -0.0142391 0)
(-0.0537517 -0.0140615 0)
(-0.0490893 -0.0138059 0)
(-0.0445196 -0.0134721 0)
(-0.0400672 -0.0130603 0)
(-0.0357565 -0.0125715 0)
(-0.0316114 -0.0120075 0)
(-0.0276549 -0.011371 0)
(-0.0239091 -0.0106656 0)
(-0.0203947 -0.00989567 0)
(-0.0171306 -0.00906683 0)
(-0.0141338 -0.00818588 0)
(-0.0114185 -0.00726115 0)
(-0.00899618 -0.00630275 0)
(-0.00687482 -0.0053231 0)
(-0.00505818 -0.0043376 0)
(-0.00354529 -0.00336554 0)
(-0.00232967 -0.00243135 0)
(-0.00139848 -0.00156631 0)
(-0.000731606 -0.000810705 0)
(-0.000300436 -0.000216211 0)
(-6.95582e-05 0.000150883 0)
(2.65304e-07 0.00019921 0)
(1.22498e-06 -0.000102076 0)
(-1.75393e-05 -0.000131901 0)
(-8.63489e-05 -3.25859e-05 0)
(-0.000219421 0.00016182 0)
(-0.000428718 0.000425079 0)
(-0.000723361 0.000735765 0)
(-0.00110948 0.00107656 0)
(-0.00159069 0.00143369 0)
(-0.00216849 0.00179634 0)
(-0.00284259 0.00215616 0)
(-0.00361124 0.00250678 0)
(-0.00447151 0.0028435 0)
(-0.00541956 0.00316294 0)
(-0.00645085 0.00346283 0)
(-0.00756037 0.00374177 0)
(-0.00874281 0.00399907 0)
(-0.0099927 0.00423457 0)
(-0.0113045 0.00444858 0)
(-0.0126729 0.00464173 0)
(-0.0140924 0.00481493 0)
(-0.015558 0.00496926 0)
(-0.0170649 0.00510594 0)
(-0.0186085 0.00522628 0)
(-0.0201846 0.00533163 0)
(-0.0217894 0.00542337 0)
(-0.0234191 0.00550287 0)
(-0.0250707 0.00557145 0)
(-0.0267413 0.00563041 0)
(-0.0284283 0.00568099 0)
(-0.0301294 0.00572437 0)
(-0.0318427 0.00576165 0)
(-0.0335666 0.00579386 0)
(-0.0352998 0.00582197 0)
(-0.0370409 0.00584684 0)
(-0.0387892 0.00586929 0)
(-0.040544 0.00589004 0)
(-0.0423047 0.00590976 0)
(-0.044071 0.00592905 0)
(-0.0458428 0.00594843 0)
(-0.0476201 0.00596838 0)
(-0.0494029 0.00598931 0)
(-0.0511915 0.00601158 0)
(-0.0529862 0.0060355 0)
(-0.0547873 0.00606134 0)
(-0.0565955 0.00608933 0)
(-0.0584111 0.00611966 0)
(-0.0602348 0.00615246 0)
(-0.0620672 0.00618787 0)
(-0.0639089 0.00622596 0)
(-0.0657607 0.00626679 0)
(-0.0676232 0.00631037 0)
(-0.0694971 0.00635672 0)
(-0.0713831 0.00640581 0)
(-0.0732818 0.00645757 0)
(-0.0751939 0.00651192 0)
(-0.0771201 0.00656878 0)
(-0.0790608 0.006628 0)
(-0.0810166 0.00668942 0)
(-0.0829881 0.00675287 0)
(-0.0849756 0.00681814 0)
(-0.0869795 0.00688499 0)
(-0.0890001 0.00695316 0)
(-0.0910375 0.00702234 0)
(-0.0930919 0.00709222 0)
(-0.0951633 0.00716243 0)
(-0.0972514 0.0072326 0)
(-0.0993562 0.00730228 0)
(-0.101477 0.00737104 0)
(-0.103614 0.00743835 0)
(-0.105766 0.0075037 0)
(-0.107932 0.00756651 0)
(-0.110111 0.00762616 0)
(-0.112302 0.007682 0)
(-0.114504 0.00773334 0)
(-0.116715 0.00777943 0)
(-0.118933 0.00781951 0)
(-0.121156 0.00785273 0)
(-0.123383 0.00787824 0)
(-0.125609 0.00789513 0)
(-0.127834 0.00790244 0)
(-0.130053 0.00789919 0)
(-0.132263 0.00788433 0)
(-0.134461 0.00785681 0)
(-0.136643 0.00781551 0)
(-0.138804 0.00775931 0)
(-0.140941 0.00768702 0)
(-0.143048 0.00759747 0)
(-0.145119 0.00748945 0)
(-0.147151 0.00736172 0)
(-0.149136 0.00721305 0)
(-0.151069 0.00704222 0)
(-0.152944 0.006848 0)
(-0.154753 0.00662917 0)
(-0.15649 0.00638457 0)
(-0.158148 0.00611303 0)
(-0.159718 0.00581347 0)
(-0.161194 0.00548486 0)
(-0.162566 0.00512624 0)
(-0.163828 0.00473673 0)
(-0.16497 0.00431559 0)
(-0.165985 0.00386218 0)
(-0.166863 0.003376 0)
(-0.167595 0.00285671 0)
(-0.168174 0.00230416 0)
(-0.16859 0.00171838 0)
(-0.168835 0.00109962 0)
(-0.168901 0.000448385 0)
(-0.168779 -0.0002346 0)
(-0.168462 -0.000948315 0)
(-0.167941 -0.00169146 0)
(-0.167211 -0.00246241 0)
(-0.166263 -0.00325925 0)
(-0.165093 -0.0040797 0)
(-0.163696 -0.00492114 0)
(-0.162065 -0.00578061 0)
(-0.160199 -0.00665477 0)
(-0.158093 -0.00753993 0)
(-0.155747 -0.00843203 0)
(-0.153159 -0.00932668 0)
(-0.150331 -0.0102191 0)
(-0.147264 -0.0111043 0)
(-0.143962 -0.0119768 0)
(-0.140428 -0.012831 0)
(-0.13667 -0.013661 0)
(-0.132694 -0.0144608 0)
(-0.128511 -0.015224 0)
(-0.12413 -0.0159444 0)
(-0.119564 -0.0166155 0)
(-0.114828 -0.017231 0)
(-0.109936 -0.0177845 0)
(-0.104907 -0.0182701 0)
(-0.0997583 -0.0186816 0)
(-0.0945107 -0.0190137 0)
(-0.0891856 -0.0192609 0)
(-0.083806 -0.0194187 0)
(-0.0783957 -0.0194827 0)
(-0.0729797 -0.0194494 0)
(-0.0675838 -0.0193158 0)