/*--------------------------------*- C++ -*----------------------------------*\
  =========                 |
  \\      /  F ield         | OpenFOAM: The Open Source CFD Toolbox
   \\    /   O peration     | Website:  https://openfoam.org
    \\  /    A nd           | Version:  7
     \\/     M anipulation  |
\*---------------------------------------------------------------------------*/
FoamFile
{
    version     2.0;
    format      ascii;
    class       volScalarField;
    location    "0.1";
    object      p;
}
// * * * * * * * * * * * * * * * * * * * * * * * * * * * * * * * * * * * * * //

dimensions      [0 2 -2 0 0 0 0];

internalField   nonuniform List<scalar> 
51200
(
1.81443e-08
7.39759e-06
2.90702e-05
8.62707e-05
0.000165581
0.000253393
0.000343811
0.0004337
0.000521282
0.000605312
0.000685092
0.000760412
0.000830816
0.000896116
0.000956135
0.00101069
0.00106018
0.00110468
0.0011444
0.00117954
0.00121032
0.00123702
0.00125995
0.00127935
0.00129567
0.00130898
0.00131944
0.0013274
0.00133294
0.0013363
0.00133772
0.00133728
0.00133521
0.0013318
0.0013271
0.00132123
0.00131446
0.00130678
0.00129821
0.0012889
0.00127883
0.00126789
0.00125626
0.00124404
0.00123114
0.00121767
0.0012037
0.00118916
0.00117412
0.00115867
0.00114269
0.00112607
0.00110897
0.00109143
0.00107334
0.00105475
0.00103569
0.00101607
0.00099586
0.00097522
0.000954255
0.000932944
0.000911208
0.000889067
0.000866608
0.000843988
0.000821391
0.000798795
0.000776018
0.000752793
0.000728999
0.000704782
0.000680366
0.000655896
0.000631384
0.000606799
0.000582062
0.000557046
0.000531757
0.000506329
0.000480907
0.000455602
0.00043043
0.00040536
0.000380385
0.000355518
0.000330793
0.000306285
0.000282058
0.00025805
0.000234139
0.000210302
0.000186635
0.000163297
0.000140366
0.000117792
9.54899e-05
7.33891e-05
5.14729e-05
2.97912e-05
8.45301e-06
-1.24234e-05
-3.28371e-05
-5.29457e-05
-7.28989e-05
-9.27127e-05
-0.000112326
-0.000131678
-0.000150753
-0.000169611
-0.000188313
-0.000206889
-0.000225354
-0.000243615
-0.000261433
-0.00027859
-0.000294979
-0.000310599
-0.000325542
-0.000339868
-0.000353553
-0.000366573
-0.000378893
-0.000390427
-0.000401096
-0.00041087
-0.000419797
-0.000427971
-0.000435397
-0.000441956
-0.00044751
-0.000451961
-0.000455265
-0.000457411
-0.000458383
-0.000458228
-0.000457066
-0.000455002
-0.000452095
-0.000448369
-0.000443827
-0.000438523
-0.000432545
-0.00042596
-0.000418818
-0.000411179
-0.000403116
-0.000394722
-0.000386091
-0.000377302
-0.000368479
-0.000359873
-0.000351811
-0.000344594
-0.000338498
-0.000333791
-0.000330706
-0.000329441
-0.000330102
-0.000332174
3.71439e-07
5.37058e-05
0.000102267
0.000167406
0.00024344
0.000322157
0.000401411
0.000480024
0.000556864
0.000631105
0.000702122
0.000769512
0.000833021
0.000892349
0.000947086
0.000997486
0.0010433
0.0010848
0.00112214
0.00115544
0.00118494
0.00121082
0.00123313
0.00125231
0.00126852
0.00128193
0.00129278
0.00130112
0.00130722
0.00131127
0.00131335
0.00131369
0.00131248
0.00130985
0.00130593
0.00130089
0.00129484
0.00128783
0.00127996
0.00127127
0.00126175
0.00125145
0.00124039
0.0012286
0.00121617
0.00120325
0.00118973
0.00117568
0.00116117
0.00114612
0.00113046
0.00111426
0.00109752
0.00108016
0.00106223
0.00104382
0.00102497
0.00100566
0.000985847
0.000965549
0.000944843
0.000923847
0.000902579
0.000880999
0.000859068
0.000836781
0.000814293
0.000791783
0.000769263
0.000746556
0.000723469
0.000699943
0.000676034
0.000651881
0.000627654
0.000603416
0.0005791
0.000554595
0.000529862
0.000504984
0.000480076
0.000455233
0.000430484
0.000405833
0.000381282
0.000356831
0.000332557
0.000308545
0.000284783
0.000261175
0.000237609
0.000214075
0.000190698
0.000167641
0.000144983
0.000122687
0.000100665
7.88165e-05
5.70963e-05
3.55701e-05
1.44124e-05
-6.25202e-06
-2.64851e-05
-4.64355e-05
-6.62219e-05
-8.58657e-05
-0.000105277
-0.000124389
-0.000143218
-0.00016178
-0.000180131
-0.000198372
-0.000216503
-0.000234373
-0.000251746
-0.000268408
-0.000284283
-0.000299427
-0.000313909
-0.000327762
-0.000341015
-0.000353676
-0.000365674
-0.000376903
-0.00038729
-0.0003968
-0.000405505
-0.000413533
-0.000420856
-0.000427317
-0.000432824
-0.000437324
-0.000440741
-0.000443054
-0.000444274
-0.000444434
-0.000443656
-0.000442057
-0.000439655
-0.000436442
-0.000432469
-0.000427822
-0.000422563
-0.000416746
-0.000410444
-0.000403721
-0.000396631
-0.00038926
-0.000381691
-0.000373965
-0.000366179
-0.000358606
-0.000351595
-0.000345387
-0.000340153
-0.000336096
-0.000333392
-0.000332161
-0.000332511
-0.000334248
1.79245e-05
9.70764e-05
0.000160543
0.00023001
0.000303793
0.000376927
0.000448995
0.000519762
0.000588736
0.000655444
0.00071952
0.000780587
0.000838288
0.000892419
0.000942883
0.000989354
0.00103197
0.00107077
0.00110578
0.00113728
0.0011654
0.00119025
0.00121196
0.00123068
0.00124662
0.00126005
0.00127097
0.00127955
0.00128605
0.00129052
0.00129311
0.00129405
0.00129341
0.00129136
0.00128811
0.00128373
0.00127826
0.0012719
0.0012646
0.00125638
0.00124739
0.00123763
0.00122701
0.00121564
0.00120365
0.00119103
0.00117789
0.00116424
0.00115006
0.00113532
0.00112001
0.0011041
0.00108765
0.0010706
0.00105291
0.00103465
0.00101597
0.000996911
0.000977399
0.0009574
0.000936935
0.000916101
0.000895076
0.000873918
0.000852485
0.000830644
0.000808468
0.000786134
0.000763739
0.000741273
0.000718636
0.000695654
0.000672245
0.000648503
0.000624621
0.000600693
0.00057667
0.000552489
0.000528149
0.000503699
0.000479218
0.000454789
0.000430436
0.000406139
0.00038192
0.000357807
0.000333886
0.000310261
0.000286874
0.000263566
0.000240258
0.000216993
0.000193896
0.000171098
0.000148666
0.000126594
0.000104789
8.31165e-05
6.15447e-05
4.01726e-05
1.91875e-05
-1.28135e-06
-2.13408e-05
-4.11641e-05
-6.08036e-05
-8.02669e-05
-9.95134e-05
-0.000118453
-0.000137068
-0.000155383
-0.000173456
-0.000191422
-0.000209312
-0.000226901
-0.000243911
-0.000260181
-0.000275668
-0.000290427
-0.000304541
-0.000318038
-0.000330954
-0.000343339
-0.000355105
-0.000366074
-0.000376179
-0.00038547
-0.000394035
-0.000401954
-0.000409205
-0.000415646
-0.000421172
-0.000425748
-0.000429293
-0.000431732
-0.000433102
-0.000433507
-0.000433054
-0.000431813
-0.000429809
-0.000427041
-0.000423556
-0.000419445
-0.000414782
-0.000409606
-0.000403963
-0.000397931
-0.0003916
-0.000385045
-0.00037828
-0.00037132
-0.000364298
-0.000357482
-0.000351171
-0.00034559
-0.00034089
-0.000337221
-0.000334717
-0.000333482
-0.000333623
-0.000335049
7.17049e-05
0.000157827
0.000225287
0.000292802
0.000362056
0.000429401
0.000495148
0.000559204
0.000621531
0.000681779
0.000739654
0.000794999
0.000847544
0.00089696
0.000943104
0.000985948
0.00102543
0.00106149
0.00109429
0.00112382
0.00115035
0.00117401
0.00119486
0.00121293
0.00122852
0.00124172
0.00125255
0.00126129
0.00126797
0.0012727
0.00127571
0.00127706
0.00127687
0.00127536
0.0012726
0.00126867
0.00126381
0.001258
0.00125114
0.00124342
0.00123489
0.00122547
0.00121531
0.00120438
0.00119273
0.00118044
0.00116764
0.00115427
0.00114032
0.00112584
0.00111076
0.00109505
0.00107883
0.00106205
0.00104462
0.00102662
0.00100813
0.000989214
0.000969914
0.000950208
0.000930016
0.000909377
0.000888499
0.000867498
0.000846302
0.000824865
0.000803199
0.000781275
0.000759119
0.000736805
0.000714345
0.000691623
0.00066858
0.000645308
0.000621882
0.000598311
0.000574563
0.000550628
0.000526566
0.000502452
0.000478339
0.000454273
0.000430274
0.000406302
0.000382359
0.000358541
0.000334965
0.000311678
0.000288566
0.000265466
0.000242348
0.000219313
0.000196478
0.00017394
0.000151734
0.000129843
0.000108174
8.65855e-05
6.50943e-05
4.3882e-05
2.31038e-05
2.79762e-06
-1.71446e-05
-3.68724e-05
-5.64099e-05
-7.57236e-05
-9.48055e-05
-0.000113592
-0.000132014
-0.000150112
-0.000167998
-0.000185786
-0.000203466
-0.000220801
-0.000237488
-0.000253409
-0.000268584
-0.000283038
-0.000296819
-0.000310017
-0.000322708
-0.000334877
-0.000346395
-0.000357106
-0.000366963
-0.000376061
-0.000384527
-0.000392392
-0.000399575
-0.00040599
-0.000411572
-0.000416228
-0.000419859
-0.000422425
-0.000423959
-0.000424571
-0.000424396
-0.000423486
-0.000421817
-0.000419406
-0.000416358
-0.000412761
-0.000408612
-0.000403939
-0.000398857
-0.000393454
-0.000387758
-0.000381817
-0.000375664
-0.000369293
-0.000362829
-0.000356558
-0.000350758
-0.000345587
-0.00034117
-0.000337676
-0.00033523
-0.000333874
-0.000333669
-0.000334549
0.000147291
0.000229566
0.000294514
0.000357398
0.000420608
0.000481773
0.000541076
0.000598821
0.000654957
0.000709206
0.000761481
0.00081154
0.00085916
0.000904184
0.000946372
0.000985697
0.00102206
0.00105559
0.00108612
0.00111379
0.00113868
0.00116103
0.00118079
0.00119809
0.00121314
0.00122591
0.00123661
0.00124526
0.00125196
0.0012569
0.00126014
0.00126174
0.00126195
0.00126081
0.0012584
0.00125492
0.00125048
0.00124503
0.00123864
0.00123132
0.00122312
0.00121407
0.00120424
0.00119365
0.00118234
0.00117044
0.0011579
0.00114475
0.00113107
0.00111683
0.00110195
0.00108647
0.0010704
0.00105377
0.00103659
0.00101888
0.00100062
0.000981873
0.000962725
0.000943186
0.000923254
0.000902982
0.000882404
0.000861534
0.000840425
0.000819185
0.000797856
0.000776351
0.000754616
0.000732618
0.000710341
0.000687781
0.000664995
0.000642095
0.000619077
0.000595857
0.00057241
0.000548769
0.000524995
0.000501177
0.000477398
0.000453673
0.000429971
0.000406275
0.000382611
0.000359095
0.000335855
0.00031288
0.00029
0.000267085
0.000244166
0.000221352
0.00019874
0.000176435
0.000154468
0.000132759
0.000111186
8.96668e-05
6.82772e-05
4.72239e-05
2.66449e-05
6.49147e-06
-1.33591e-05
-3.29821e-05
-5.2401e-05
-7.1602e-05
-9.05396e-05
-0.000109145
-0.000127365
-0.000145258
-0.000162992
-0.000180663
-0.000198147
-0.000215197
-0.000231604
-0.000247259
-0.000262144
-0.000276308
-0.000289816
-0.000302763
-0.000315255
-0.000327247
-0.000338525
-0.00034896
-0.000358608
-0.000367567
-0.000375931
-0.000383742
-0.000390907
-0.000397316
-0.000402941
-0.000407691
-0.000411405
-0.000414051
-0.000415745
-0.000416608
-0.000416698
-0.00041604
-0.000414667
-0.000412635
-0.000410012
-0.000406851
-0.000403156
-0.000398957
-0.000394374
-0.000389519
-0.000384411
-0.000379024
-0.000373357
-0.00036745
-0.000361452
-0.000355621
-0.000350192
-0.000345297
-0.000341066
-0.000337657
-0.00033517
-0.000333598
-0.000332906
-0.00033302
0.00023039
0.000303308
0.000362644
0.000419739
0.000476809
0.000531663
0.000584741
0.000636455
0.000686863
0.000735819
0.000782985
0.00082824
0.000871495
0.000912506
0.000951189
0.000987293
0.00102091
0.00105196
0.00108043
0.00110635
0.00112977
0.00115079
0.00116952
0.00118602
0.00120034
0.0012127
0.00122307
0.00123147
0.00123815
0.00124313
0.0012464
0.00124822
0.0012487
0.00124777
0.0012457
0.00124256
0.00123835
0.0012332
0.00122713
0.00122012
0.0012122
0.00120348
0.00119385
0.00118352
0.00117252
0.00116091
0.00114864
0.0011357
0.00112218
0.00110813
0.00109352
0.00107827
0.00106236
0.00104587
0.00102888
0.00101137
0.000993374
0.000974876
0.000955873
0.000936425
0.000916664
0.000896689
0.000876434
0.000855844
0.000834968
0.000813895
0.000792716
0.000771445
0.000750045
0.000728382
0.000706367
0.00068406
0.000661568
0.00063896
0.00061622
0.000593274
0.000570102
0.000546751
0.000523292
0.00049979
0.000476316
0.000452889
0.000429446
0.000405978
0.000382589
0.000359398
0.000336464
0.000313728
0.000291047
0.000268328
0.000245624
0.000223036
0.000200645
0.000178544
0.000156768
0.00013521
0.000113716
9.2275e-05
7.10403e-05
5.01696e-05
2.97404e-05
9.7083e-06
-1.00432e-05
-2.95558e-05
-4.88445e-05
-6.79363e-05
-8.67493e-05
-0.000105158
-0.000123175
-0.000140921
-0.00015853
-0.000176059
-0.000193358
-0.000210157
-0.000226298
-0.000241727
-0.000256382
-0.000270276
-0.000283546
-0.000296322
-0.000308643
-0.000320428
-0.000331484
-0.000341693
-0.000351156
-0.000360019
-0.00036832
-0.000376052
-0.000383189
-0.000389663
-0.000395365
-0.000400154
-0.000403926
-0.000406696
-0.000408563
-0.000409618
-0.00040993
-0.000409526
-0.000408431
-0.000406722
-0.00040449
-0.00040174
-0.000398429
-0.000394626
-0.000390502
-0.000386148
-0.000381525
-0.000376583
-0.000371324
-0.000365798
-0.000360165
-0.00035467
-0.000349509
-0.000344789
-0.000340641
-0.000337241
-0.000334639
-0.000332763
-0.000331478
-0.000330698
0.000314836
0.000376654
0.000428862
0.000479687
0.000530601
0.000579381
0.000626705
0.000672737
0.000717818
0.000761776
0.000804378
0.000845337
0.000884522
0.000921966
0.000957363
0.000990599
0.00102169
0.00105044
0.00107697
0.00110123
0.00112322
0.00114305
0.00116078
0.0011764
0.00119006
0.00120191
0.00121184
0.00121999
0.00122648
0.00123132
0.00123464
0.00123653
0.00123706
0.00123636
0.00123451
0.00123154
0.00122757
0.00122266
0.00121674
0.00120993
0.00120228
0.00119376
0.00118437
0.00117422
0.00116344
0.00115203
0.00113999
0.00112728
0.00111389
0.00109999
0.00108556
0.00107048
0.00105477
0.00103847
0.00102163
0.00100426
0.000986457
0.00096819
0.00094939
0.000930127
0.000910544
0.000890718
0.000870619
0.00085027
0.000829709
0.000808915
0.000787946
0.000766865
0.000745645
0.000724174
0.000702394
0.000680386
0.00065823
0.000635916
0.000613401
0.000590664
0.000567734
0.000544647
0.000521467
0.000498274
0.000475095
0.000451911
0.000428683
0.000405443
0.000382329
0.00035945
0.000336787
0.000314239
0.000291714
0.000269186
0.000246697
0.00022432
0.00020215
0.000180269
0.00015864
0.000137158
0.000115731
9.43946e-05
7.33305e-05
5.26472e-05
3.23415e-05
1.24005e-05
-7.24537e-06
-2.666e-05
-4.58462e-05
-6.48046e-05
-8.34672e-05
-0.000101704
-0.000119543
-0.00013717
-0.000154697
-0.000172079
-0.000189161
-0.000205748
-0.000221684
-0.000236886
-0.000251317
-0.000265002
-0.00027808
-0.000290714
-0.000302902
-0.000314472
-0.000325276
-0.000335316
-0.000344678
-0.000353432
-0.000361649
-0.000369362
-0.000376514
-0.000383023
-0.000388787
-0.000393647
-0.000397487
-0.000400358
-0.000402391
-0.000403647
-0.000404148
-0.000403945
-0.000403118
-0.000401735
-0.000399834
-0.00039741
-0.000394438
-0.000391003
-0.000387289
-0.000383371
-0.000379156
-0.000374559
-0.000369607
-0.000364381
-0.000359033
-0.000353781
-0.000348786
-0.000344163
-0.000340037
-0.000336561
-0.000333756
-0.000331493
-0.000329548
-0.000327813
0.000397479
0.000448222
0.000492829
0.000537093
0.000581791
0.000625017
0.000666957
0.000707878
0.00074798
0.000787284
0.000825737
0.000862718
0.000898326
0.000932435
0.000964798
0.00099549
0.00102414
0.00105086
0.00107555
0.00109815
0.00111878
0.00113745
0.00115413
0.00116894
0.00118198
0.00119318
0.00120268
0.00121053
0.00121671
0.00122139
0.00122465
0.00122647
0.00122701
0.00122642
0.00122464
0.00122181
0.00121801
0.00121319
0.00120744
0.00120076
0.00119326
0.00118486
0.00117571
0.00116573
0.0011551
0.00114383
0.00113193
0.00111939
0.00110622
0.00109246
0.0010781
0.00106316
0.00104762
0.00103152
0.00101485
0.000997642
0.000979949
0.00096178
0.000943163
0.000924178
0.000904849
0.000885173
0.000865176
0.000844962
0.000824602
0.000804066
0.000783372
0.000762536
0.000741471
0.000720117
0.00069853
0.000676804
0.000654936
0.000632866
0.00061057
0.00058804
0.000565325
0.000542487
0.000519572
0.000496643
0.00047372
0.000450742
0.000427694
0.000404688
0.000381859
0.000359248
0.000336798
0.000314428
0.00029207
0.000269708
0.000247399
0.000225224
0.000203266
0.00018158
0.000160076
0.000138636
0.000117271
9.60688e-05
7.51636e-05
5.4631e-05
3.44446e-05
1.45884e-05
-4.96387e-06
-2.42853e-05
-4.33996e-05
-6.22416e-05
-8.07121e-05
-9.87719e-05
-0.000116504
-0.000134044
-0.000151465
-0.000168702
-0.00018559
-0.00020198
-0.000217751
-0.00023276
-0.000246955
-0.000260463
-0.00027344
-0.000285946
-0.000297955
-0.000309343
-0.000319959
-0.000329826
-0.000339081
-0.000347775
-0.000355935
-0.000363616
-0.000370799
-0.000377378
-0.000383198
-0.000388091
-0.000392002
-0.000395012
-0.000397205
-0.000398611
-0.000399273
-0.000399272
-0.0003987
-0.000397609
-0.000395992
-0.000393824
-0.000391134
-0.00038805
-0.000384723
-0.000381167
-0.000377266
-0.000372946
-0.000368247
-0.000363251
-0.000358095
-0.000352987
-0.000348096
-0.00034351
-0.000339354
-0.00033574
-0.000332643
-0.000329924
-0.000327284
-0.000324578
0.000476655
0.00051698
0.000554006
0.000591887
0.000630643
0.000668422
0.000705521
0.000741777
0.000777415
0.000812564
0.000846946
0.000880484
0.00091282
0.000943822
0.000973557
0.00100163
0.00102817
0.00105294
0.00107587
0.00109696
0.00111624
0.00113369
0.0011494
0.00116337
0.00117562
0.00118626
0.00119531
0.0012027
0.00120861
0.00121311
0.00121616
0.0012179
0.00121845
0.00121782
0.00121605
0.00121328
0.00120951
0.00120478
0.00119912
0.00119252
0.00118506
0.0011768
0.00116777
0.00115799
0.00114747
0.00113631
0.00112451
0.00111208
0.00109906
0.00108546
0.00107121
0.00105636
0.00104094
0.00102499
0.00100852
0.000991495
0.000973899
0.0009558
0.000937316
0.000918534
0.000899413
0.000879922
0.000860109
0.000840038
0.000819795
0.000799437
0.000778966
0.000758327
0.000737416
0.000716222
0.000694851
0.000673366
0.00065172
0.000629834
0.000607721
0.000585402
0.000562892
0.00054028
0.000517626
0.000494932
0.000472195
0.000449394
0.000426543
0.000403772
0.000381197
0.000358804
0.000336523
0.000314309
0.000292125
0.000269935
0.000247785
0.000225793
0.000204031
0.000182486
0.000161057
0.000139666
0.000118381
9.73242e-05
7.65626e-05
5.61267e-05
3.60404e-05
1.62928e-05
-3.18483e-06
-2.24488e-05
-4.14782e-05
-6.01937e-05
-7.84972e-05
-9.63992e-05
-0.000114048
-0.000131536
-0.000148835
-0.000165902
-0.000182642
-0.000198882
-0.000214469
-0.000229296
-0.00024333
-0.000256691
-0.00026956
-0.000281973
-0.000293826
-0.000305009
-0.000315462
-0.000325227
-0.000334394
-0.000342997
-0.000351102
-0.000358803
-0.000366048
-0.000372672
-0.000378521
-0.000383465
-0.000387471
-0.000390617
-0.000392951
-0.000394479
-0.00039528
-0.000395485
-0.000395156
-0.000394302
-0.000392911
-0.000390977
-0.000388548
-0.000385773
-0.000382784
-0.000379533
-0.000375876
-0.000371763
-0.00036726
-0.00036245
-0.000357429
-0.000352381
-0.000347511
-0.000342924
-0.000338693
-0.00033488
-0.000331424
-0.000328194
-0.000324846
-0.000321186
0.000551193
0.000582356
0.000612384
0.000644099
0.000677226
0.000710009
0.000742416
0.000774525
0.000806197
0.000837475
0.000868355
0.000898531
0.000927823
0.00095617
0.000983257
0.00100907
0.00103354
0.00105642
0.00107769
0.00109735
0.00111529
0.00113161
0.00114633
0.00115938
0.00117089
0.00118091
0.00118936
0.00119635
0.00120195
0.00120614
0.00120905
0.00121068
0.00121111
0.00121043
0.00120865
0.00120584
0.00120206
0.00119738
0.00119171
0.00118519
0.00117775
0.00116955
0.00116059
0.00115095
0.00114055
0.00112945
0.00111775
0.00110543
0.0010925
0.00107897
0.00106485
0.00105012
0.00103481
0.00101895
0.00100262
0.000985731
0.000968259
0.00095031
0.000931984
0.000913318
0.000894294
0.000874944
0.000855323
0.000835438
0.000815344
0.000795141
0.000774813
0.000754279
0.000733494
0.000712497
0.000691361
0.000670077
0.000648601
0.000626885
0.000604929
0.000582786
0.000560484
0.000538085
0.000515652
0.000493153
0.000470563
0.000447914
0.000425273
0.000402741
0.000380379
0.000358147
0.00033601
0.000313947
0.000291909
0.000269871
0.000247889
0.000226073
0.00020447
0.000183012
0.000161613
0.000140283
0.000119104
9.81653e-05
7.75165e-05
5.71685e-05
3.71558e-05
1.74937e-05
-1.91489e-06
-2.11386e-05
-4.00855e-05
-5.86471e-05
-7.6806e-05
-9.46185e-05
-0.000112193
-0.000129593
-0.000146785
-0.000163706
-0.000180292
-0.000196408
-0.000211848
-0.000226486
-0.000240371
-0.000253662
-0.000266467
-0.000278753
-0.000290434
-0.000301464
-0.000311811
-0.000321482
-0.000330548
-0.000339078
-0.000347172
-0.000354913
-0.000362207
-0.000368862
-0.000374751
-0.000379772
-0.000383884
-0.000387145
-0.000389605
-0.000391265
-0.000392205
-0.000392584
-0.000392475
-0.000391835
-0.000390627
-0.000388886
-0.000386707
-0.000384233
-0.000381533
-0.000378505
-0.000375017
-0.000371067
-0.000366731
-0.000362051
-0.000357089
-0.00035205
-0.000347151
-0.000342505
-0.000338146
-0.00033408
-0.000330211
-0.000326438
-0.000322386
-0.000317796
0.000620469
0.000643898
0.000667634
0.000693751
0.000721711
0.000749831
0.000778017
0.000806218
0.00083421
0.000862154
0.000889729
0.000916881
0.000943445
0.000969135
0.000993884
0.00101758
0.00104
0.00106113
0.00108084
0.00109901
0.0011157
0.00113094
0.00114462
0.0011568
0.00116758
0.00117688
0.00118476
0.0011913
0.0011965
0.00120041
0.00120311
0.00120458
0.0012049
0.00120412
0.00120227
0.00119939
0.00119559
0.00119086
0.0011852
0.00117867
0.00117128
0.00116309
0.0011542
0.00114459
0.00113427
0.00112327
0.00111163
0.0010994
0.00108652
0.00107304
0.00105901
0.00104441
0.00102922
0.00101348
0.000997202
0.000980374
0.000963017
0.000945244
0.000927098
0.000908541
0.000889591
0.000870342
0.000850843
0.000831109
0.000811193
0.000791148
0.000770915
0.00075045
0.000729796
0.000708986
0.000688044
0.000666926
0.000645588
0.000624026
0.00060223
0.000580237
0.000558124
0.000535933
0.000513675
0.000491319
0.000468858
0.000446372
0.000423936
0.000401602
0.000379406
0.000357315
0.000335312
0.000313388
0.000291473
0.000269557
0.000247736
0.000226081
0.000204584
0.000183177
0.000161806
0.000140538
0.000119467
9.86181e-05
7.80344e-05
5.7769e-05
3.78393e-05
1.82201e-05
-1.16086e-06
-2.03245e-05
-3.91737e-05
-5.76083e-05
-7.56433e-05
-9.33875e-05
-0.000110918
-0.000128214
-0.000145264
-0.000162076
-0.00017857
-0.00019455
-0.000209819
-0.000224311
-0.000238117
-0.000251359
-0.000264081
-0.000276245
-0.000287804
-0.000298724
-0.000308965
-0.000318544
-0.000327541
-0.000336033
-0.000344128
-0.000351907
-0.00035926
-0.000365965
-0.000371889
-0.000376982
-0.000381223
-0.00038462
-0.000387174
-0.00038893
-0.000390028
-0.00039061
-0.000390686
-0.000390194
-0.000389139
-0.000387605
-0.000385679
-0.000383451
-0.00038096
-0.000378106
-0.000374761
-0.000370933
-0.000366707
-0.000362108
-0.000357165
-0.000352079
-0.000347104
-0.000342346
-0.000337798
-0.00033342
-0.000329107
-0.000324789
-0.000320046
-0.000314548
0.000683975
0.000700952
0.000719345
0.000740458
0.000763857
0.000787695
0.000812104
0.000836664
0.000861509
0.000886321
0.000911015
0.000935443
0.000959391
0.000982709
0.00100531
0.00102688
0.00104749
0.00106693
0.00108507
0.00110187
0.00111737
0.00113146
0.00114419
0.00115552
0.00116545
0.00117411
0.00118142
0.00118745
0.00119224
0.00119584
0.00119827
0.00119955
0.0011997
0.00119878
0.00119683
0.00119385
0.00118999
0.00118518
0.00117949
0.0011729
0.00116555
0.00115737
0.0011485
0.0011389
0.00112861
0.0011177
0.00110614
0.00109393
0.00108111
0.00106769
0.0010537
0.00103919
0.00102413
0.00100851
0.000992288
0.000975508
0.000958261
0.000940609
0.000922571
0.000904126
0.000885296
0.000866147
0.000846723
0.0008271
0.000807327
0.000787393
0.000767231
0.000746854
0.000726356
0.000705714
0.000684897
0.000663911
0.000642711
0.000621273
0.000599617
0.00057778
0.000555836
0.000533817
0.000511693
0.00048945
0.000467125
0.000444808
0.000422553
0.00040037
0.000378288
0.000356327
0.000334459
0.00031265
0.000290845
0.000269049
0.000247365
0.000225834
0.000204393
0.000183009
0.00016169
0.000140495
0.000119489
9.86995e-05
7.81778e-05
5.79788e-05
3.81137e-05
1.85291e-05
-8.4795e-07
-1.99676e-05
-3.8698e-05
-5.70178e-05
-7.49982e-05
-9.26972e-05
-0.00011014
-0.000127327
-0.000144287
-0.000161023
-0.000177412
-0.000193255
-0.000208398
-0.000222796
-0.000236534
-0.000249729
-0.000262398
-0.000274471
-0.000285915
-0.000296746
-0.000306932
-0.000316444
-0.000325355
-0.000333812
-0.000341963
-0.000349819
-0.000357198
-0.000363917
-0.000369922
-0.000375147
-0.000379499
-0.000382976
-0.000385624
-0.000387511
-0.000388769
-0.000389516
-0.000389742
-0.00038939
-0.00038849
-0.000387144
-0.000385438
-0.000383422
-0.00038109
-0.00037834
-0.000375091
-0.000371379
-0.000367248
-0.000362675
-0.0003577
-0.000352542
-0.000347462
-0.000342535
-0.000337722
-0.000332978
-0.000328211
-0.000323363
-0.000317946
-0.000311557
0.000741324
0.000753181
0.000767177
0.000783907
0.000803195
0.000823464
0.000844417
0.000865927
0.000887822
0.000909852
0.000932033
0.000953991
0.000975614
0.00099681
0.00101725
0.00103701
0.00105585
0.00107362
0.00109031
0.00110582
0.00112006
0.0011331
0.00114488
0.00115532
0.00116449
0.00117244
0.00117917
0.00118472
0.00118911
0.00119238
0.0011945
0.00119555
0.00119549
0.0011944
0.00119228
0.0011892
0.00118521
0.00118032
0.00117454
0.00116793
0.00116055
0.00115238
0.00114347
0.0011339
0.00112365
0.00111274
0.0011012
0.00108904
0.00107626
0.0010629
0.00104897
0.00103452
0.00101954
0.00100398
0.000987829
0.000971145
0.000954017
0.00093644
0.000918439
0.000900081
0.000881371
0.000862316
0.000842976
0.000823459
0.000803772
0.000783876
0.000763785
0.000743531
0.000723165
0.000702653
0.00068194
0.00066106
0.000639991
0.000618664
0.000597115
0.000575426
0.000553635
0.000531744
0.000509721
0.000487583
0.000465406
0.00044325
0.000421128
0.000399056
0.000377076
0.000355223
0.000333468
0.000311748
0.00029004
0.000268372
0.000246802
0.000225338
0.000203933
0.000182578
0.000161306
0.000140174
0.000119213
9.84481e-05
7.79795e-05
5.78594e-05
3.80283e-05
1.84305e-05
-9.2549e-07
-1.99718e-05
-3.86278e-05
-5.68927e-05
-7.48186e-05
-9.24534e-05
-0.000109827
-0.000126938
-0.000143816
-0.000160485
-0.000176806
-0.000192538
-0.000207547
-0.000221875
-0.000235619
-0.000248798
-0.000261374
-0.000273353
-0.000284767
-0.000295572
-0.000305672
-0.000315088
-0.000323976
-0.000332476
-0.00034067
-0.000348554
-0.000355977
-0.000362769
-0.000368863
-0.000374192
-0.000378654
-0.000382228
-0.000384968
-0.000386972
-0.000388384
-0.000389295
-0.000389653
-0.000389408
-0.000388652
-0.000387511
-0.000386009
-0.00038413
-0.000381881
-0.000379209
-0.000376052
-0.000372431
-0.000368357
-0.000363775
-0.000358744
-0.000353503
-0.000348288
-0.000343138
-0.000338
-0.000332848
-0.000327621
-0.000322261
-0.000316185
-0.000308912
0.000792964
0.000800753
0.000811004
0.000824133
0.000839861
0.000856952
0.000875018
0.000893843
0.000913103
0.000932811
0.000952569
0.000972342
0.000991975
0.00101111
0.00102975
0.00104772
0.00106487
0.00108117
0.00109647
0.00111067
0.00112377
0.00113575
0.00114658
0.00115617
0.00116456
0.00117184
0.001178
0.00118304
0.00118703
0.00118996
0.00119178
0.00119255
0.00119227
0.00119098
0.00118867
0.00118544
0.00118129
0.0011763
0.00117039
0.00116375
0.0011563
0.00114812
0.00113918
0.00112959
0.00111937
0.00110846
0.0010969
0.00108474
0.00107199
0.00105868
0.00104483
0.00103044
0.0010155
0.000999955
0.000983863
0.000967286
0.000950244
0.000932722
0.000914769
0.000896478
0.000877834
0.000858847
0.000839606
0.000820182
0.00080054
0.000780662
0.000760648
0.000740529
0.00072025
0.000699808
0.000679207
0.000658432
0.000637453
0.000616221
0.000594776
0.000573213
0.000551544
0.000529739
0.000507804
0.00048578
0.000463735
0.000441706
0.000419675
0.000397683
0.000375809
0.000354051
0.000332365
0.000310716
0.000289095
0.000267529
0.000246049
0.000224621
0.000203227
0.000181917
0.000160701
0.000139577
0.00011862
9.79112e-05
7.7504e-05
5.74058e-05
3.75841e-05
1.7996e-05
-1.35003e-06
-2.03573e-05
-3.89465e-05
-5.71649e-05
-7.50757e-05
-9.26618e-05
-0.00010993
-0.000126969
-0.000143854
-0.0001605
-0.000176697
-0.0001923
-0.00020727
-0.000221598
-0.000235306
-0.000248433
-0.000260987
-0.000272954
-0.000284328
-0.000295075
-0.000305128
-0.000314515
-0.000323387
-0.000331915
-0.000340183
-0.000348131
-0.000355594
-0.000362452
-0.000368664
-0.000374119
-0.000378671
-0.000382313
-0.000385152
-0.000387311
-0.000388891
-0.000389924
-0.000390376
-0.000390254
-0.000389666
-0.000388703
-0.000387345
-0.000385558
-0.000383359
-0.000380737
-0.000377647
-0.00037409
-0.000370047
-0.000365443
-0.000360339
-0.000354996
-0.000349623
-0.00034421
-0.000338701
-0.000333112
-0.000327423
-0.000321564
-0.000314834
-0.000306684
0.000839381
0.000843759
0.000851096
0.000861165
0.000873948
0.000888299
0.00090385
0.0009203
0.000937492
0.000954932
0.000972668
0.00099051
0.00100815
0.00102558
0.00104251
0.00105882
0.00107453
0.00108941
0.00110343
0.00111644
0.00112842
0.00113938
0.00114929
0.00115806
0.00116573
0.00117232
0.00117791
0.00118247
0.00118605
0.00118859
0.0011901
0.00119059
0.00119006
0.00118852
0.00118604
0.00118263
0.00117833
0.00117315
0.00116714
0.00116038
0.00115286
0.00114461
0.00113565
0.00112603
0.00111576
0.00110486
0.0010933
0.00108111
0.00106836
0.00105507
0.00104127
0.00102692
0.00101199
0.000996481
0.000980454
0.000963933
0.000946923
0.000929462
0.000911591
0.000893348
0.000874727
0.000855797
0.000836645
0.00081726
0.000797634
0.000777816
0.000757882
0.000737844
0.000717633
0.000697247
0.000676741
0.000656057
0.00063513
0.000613974
0.000592628
0.000571156
0.000549576
0.000527843
0.000505991
0.000484083
0.000462137
0.000440176
0.000418211
0.000396287
0.000374497
0.000352817
0.000331165
0.000309558
0.00028803
0.000266541
0.000245082
0.000223682
0.000202337
0.000181046
0.000159831
0.000138722
0.000117769
9.70801e-05
7.67393e-05
5.66816e-05
3.68194e-05
1.71965e-05
-2.10231e-06
-2.10499e-05
-3.96525e-05
-5.78843e-05
-7.57146e-05
-9.32027e-05
-0.000110453
-0.000127505
-0.000144354
-0.000160936
-0.000177076
-0.00019262
-0.000207536
-0.000221842
-0.000235557
-0.000248683
-0.000261211
-0.000273166
-0.000284556
-0.00029529
-0.000305278
-0.000314627
-0.000323543
-0.000332149
-0.000340475
-0.000348464
-0.000355996
-0.000362974
-0.000369318
-0.000374863
-0.000379477
-0.00038321
-0.000386186
-0.000388498
-0.000390217
-0.00039137
-0.000391929
-0.000391927
-0.000391492
-0.000390681
-0.000389427
-0.000387685
-0.000385512
-0.000382925
-0.000379878
-0.000376353
-0.000372311
-0.000367669
-0.000362496
-0.000357049
-0.000351499
-0.000345795
-0.000339891
-0.000333853
-0.000327692
-0.000321323
-0.000313938
-0.000304931
0.000880719
0.000882661
0.000887445
0.000895025
0.000905508
0.000917534
0.000930922
0.000945484
0.000960667
0.000976324
0.000992291
0.00100828
0.00102429
0.00104008
0.00105543
0.00107034
0.00108461
0.00109823
0.00111108
0.001123
0.00113397
0.00114397
0.00115298
0.00116097
0.00116792
0.00117389
0.00117893
0.001183
0.00118612
0.0011883
0.00118948
0.00118964
0.00118882
0.00118703
0.00118432
0.0011807
0.00117625
0.00117091
0.00116479
0.00115786
0.00115024
0.0011419
0.00113288
0.00112321
0.00111287