/*--------------------------------*- C++ -*----------------------------------*\
  =========                 |
  \\      /  F ield         | OpenFOAM: The Open Source CFD Toolbox
   \\    /   O peration     | Website:  https://openfoam.org
    \\  /    A nd           | Version:  7
     \\/     M anipulation  |
\*---------------------------------------------------------------------------*/
FoamFile
{
    version     2.0;
    format      ascii;
    class       volScalarField;
    location    "0.2125";
    object      p;
}
// * * * * * * * * * * * * * * * * * * * * * * * * * * * * * * * * * * * * * //

dimensions      [0 2 -2 0 0 0 0];

internalField   nonuniform List<scalar> 
12800
(
1.47368e-06
0.00018466
-0.000900431
-0.00334475
-0.00690257
-0.0113271
-0.0163851
-0.0218633
-0.0275751
-0.0333602
-0.0390825
-0.0446265
-0.049895
-0.0548066
-0.0592932
-0.0632988
-0.0667776
-0.0696929
-0.0720161
-0.0737251
-0.0748044
-0.0752433
-0.0750363
-0.0741817
-0.0726812
-0.07054
-0.0677657
-0.0643682
-0.0603594
-0.0557529
-0.0505637
-0.0448077
-0.0385019
-0.0316639
-0.0243119
-0.0164642
-0.0081397
0.000642959
0.00986503
0.0195079
0.0295533
0.0399831
0.0507797
0.0619257
0.0734044
0.0851994
0.0972952
0.109677
0.122329
0.135238
0.148391
0.161774
0.175377
0.189187
0.203193
0.217385
0.231754
0.246289
0.260984
0.275829
0.290818
0.305943
0.321197
0.336576
0.352072
0.367682
0.3834
0.399221
0.415143
0.431161
0.447271
0.463471
0.479758
0.496128
0.51258
0.529111
0.545718
0.5624
0.579154
0.595978
0.61287
0.629827
0.646848
0.663931
0.681071
0.698268
0.715517
0.732816
0.750162
0.767549
0.784975
0.802433
0.819921
0.837431
0.854957
0.872493
0.890032
0.907565
0.925084
0.94258
0.960041
0.977458
0.994817
1.01211
1.02931
1.04642
1.06342
1.08028
1.097
1.11355
1.12992
1.14608
1.16201
1.17769
1.1931
1.20821
1.223
1.23744
1.2515
1.26516
1.27839
1.29116
1.30345
1.31522
1.32644
1.33709
1.34714
1.35656
1.36533
1.37342
1.3808
1.38745
1.39335
1.39849
1.40285
1.4064
1.40916
1.4111
1.41223
1.41254
1.41206
1.41079
1.40875
1.40597
1.4025
1.39837
1.39363
1.38837
1.38266
1.37659
1.37028
1.36386
1.3575
1.35136
1.34567
1.34067
1.33662
1.33381
1.33253
1.33269
-0.000179272
3.76728e-06
-0.000999446
-0.00313183
-0.00616944
-0.00993698
-0.0142608
-0.0189701
-0.0239084
-0.0289366
-0.0339325
-0.03879
-0.043418
-0.0477387
-0.0516859
-0.0552045
-0.0582484
-0.0607801
-0.0627696
-0.0641934
-0.0650337
-0.065278
-0.0649182
-0.0639504
-0.0623741
-0.0601917
-0.0574086
-0.0540324
-0.0500725
-0.0455403
-0.0404485
-0.0348108
-0.0286423
-0.0219585
-0.0147756
-0.00711044
0.00102016
0.00959899
0.0186089
0.0280326
0.0378532
0.0480537
0.0586177
0.0695289
0.0807715
0.0923301
0.10419
0.116336
0.128755
0.141433
0.154357
0.167516
0.180897
0.194489
0.208281
0.222264
0.236427
0.250763
0.265261
0.279915
0.294717
0.309659
0.324735
0.33994
0.355266
0.37071
0.386265
0.401928
0.417694
0.433559
0.449519
0.465571
0.481711
0.497937
0.514245
0.530634
0.547099
0.563638
0.58025
0.596931
0.613679
0.63049
0.647364
0.664296
0.681284
0.698325
0.715414
0.73255
0.749727
0.766941
0.784189
0.801464
0.818761
0.836076
0.8534
0.870727
0.888049
0.905359
0.922647
0.939904
0.957119
0.974281
0.991378
1.0084
1.02533
1.04215
1.05885
1.07542
1.09183
1.10807
1.12412
1.13996
1.15556
1.17091
1.18599
1.20076
1.21522
1.22932
1.24305
1.25639
1.2693
1.28175
1.29373
1.3052
1.31615
1.32653
1.33633
1.34553
1.35409
1.36199
1.36922
1.37575
1.38156
1.38664
1.39098
1.39456
1.39738
1.39943
1.40072
1.40125
1.40104
1.40009
1.39843
1.3961
1.39312
1.38955
1.38543
1.38085
1.37587
1.37059
1.36512
1.35957
1.35409
1.34883
1.34399
1.33974
1.3363
1.33387
1.33269
1.33286
0.000904641
0.00100725
3.41139e-06
-0.00198082
-0.00473023
-0.00810267
-0.011958
-0.0161544
-0.0205587
-0.0250493
-0.0295173
-0.0338664
-0.0380122
-0.0418815
-0.0454116
-0.0485491
-0.0512489
-0.053474
-0.0551939
-0.0563845
-0.0570271
-0.057108
-0.0566176
-0.0555503
-0.0539042
-0.0516799
-0.048881
-0.0455134
-0.0415848
-0.0371047
-0.0320842
-0.0265354
-0.0204715
-0.0139067
-0.00685569
0.000666333
0.00864375
0.0170607
0.0259012
0.0351493
0.044789
0.0548045
0.0651802
0.0759006
0.0869509
0.0983163
0.109983
0.121936
0.134163
0.14665
0.159386
0.172358
0.185554
0.198965
0.212579
0.226387
0.240378
0.254545
0.268879
0.283371
0.298015
0.312803
0.327728
0.342785
0.357967
0.373269
0.388686
0.404212
0.419845
0.435578
0.451409
0.467333
0.483348
0.499449
0.515633
0.531898
0.54824
0.564657
0.581145
0.597702
0.614325
0.631011
0.647757
0.664559
0.681415
0.698321
0.715274
0.732268
0.749301
0.766367
0.783463
0.800581
0.817717
0.834865
0.852018
0.869168
0.886308
0.903429
0.920523
0.937579
0.954588
0.971538
0.988417
1.00521
1.02191
1.0385
1.05496
1.07128
1.08744
1.10342
1.11921
1.13478
1.15012
1.16521
1.18001
1.19452
1.2087
1.22254
1.236
1.24908
1.26173
1.27393
1.28567
1.29691
1.30763
1.31781
1.32742
1.33644
1.34484
1.35261
1.35972
1.36616
1.37191
1.37695
1.38128
1.38489
1.38778
1.38993
1.39136
1.39207
1.39207
1.39138
1.39003
1.38804
1.38545
1.38231
1.37868
1.37461
1.37019
1.36549
1.36062
1.35568
1.35081
1.34615
1.34184
1.33806
1.33495
1.33269
1.33152
1.33158
0.00334962
0.0031422
0.00198568
-3.65773e-06
-0.0026465
-0.00581922
-0.0094019
-0.0132739
-0.0173205
-0.0214355
-0.0255224
-0.0294943
-0.0332742
-0.0367946
-0.0399967
-0.0428298
-0.0452511
-0.0472246
-0.0487205
-0.0497147
-0.0501885
-0.0501273
-0.0495212
-0.0483635
-0.046651
-0.0443834
-0.0415631
-0.0381945
-0.034284
-0.02984
-0.024872
-0.0193909
-0.0134087
-0.00693811
7.29728e-06
0.00741349
0.015266
0.0235501
0.0322508
0.0413531
0.050842
0.0607024
0.0709197
0.0814792
0.0923666
0.103568
0.115069
0.126857
0.138919
0.151243
0.163816
0.176626
0.189664
0.202917
0.216376
0.23003
0.243872
0.257891
0.27208
0.28643
0.300934
0.315585
0.330376
0.345301
0.360355
0.37553
0.390823
0.406227
0.421739
0.437355
0.453069
0.468878
0.484778
0.500766
0.516838
0.532991
0.549221
0.565526
0.581903
0.598347
0.614857
0.631428
0.648058
0.664743
0.681479
0.698264
0.715092
0.73196
0.748863
0.765796
0.782755
0.799733
0.816725
0.833725
0.850725
0.867719
0.884697
0.901653
0.918576
0.935457
0.952286
0.96905
0.98574
1.00234
1.01884
1.03522
1.05148
1.06759
1.08353
1.0993
1.11486
1.13021
1.14533
1.16018
1.17476
1.18904
1.203
1.21661
1.22986
1.24272
1.25516
1.26716
1.2787
1.28975
1.30029
1.3103
1.31976
1.32863
1.33691
1.34457
1.3516
1.35797
1.36368
1.36871
1.37304
1.37669
1.37963
1.38187
1.38342
1.38428
1.38447
1.384
1.38289
1.38119
1.37891
1.37612
1.37286
1.36919
1.36518
1.36091
1.35647
1.35197
1.34751
1.34322
1.33923
1.33567
1.33269
1.33043
1.32908
1.32878
0.00691912
0.00619142
0.00473827
0.00262698
-2.64663e-05
-0.00311602
-0.00653862
-0.0101925
-0.01398
-0.0178092
-0.0215955
-0.0252616
-0.0287383
-0.0319639
-0.0348844
-0.0374527
-0.0396284
-0.0413774
-0.0426711
-0.0434861
-0.0438038
-0.0436098
-0.0428936
-0.0416481
-0.0398694
-0.0375564
-0.0347103
-0.0313347
-0.027435
-0.0230182
-0.0180928
-0.0126687
-0.00675655
-0.000368128
0.0064842
0.0137874
0.0215281
0.0296926
0.0382667
0.0472364
0.0565875
0.0663059
0.0763775
0.0867885
0.0975251
0.108574
0.119922
0.131556
0.143464
0.155634
0.168054
0.180713
0.193599
0.206703
0.220015
0.233525
0.247223
0.261101
0.275151
0.289365
0.303735
0.318255
0.332917
0.347715
0.362644
0.377697
0.392869
0.408155
0.42355
0.43905
0.45465
0.470347
0.486135
0.502012
0.517974
0.534017
0.550138
0.566333
0.5826
0.598933
0.615332
0.63179
0.648307
0.664876
0.681496
0.698161
0.714868
0.731612
0.748389
0.765193
0.782019
0.798861
0.815714
0.832571
0.849424
0.866267
0.883091
0.899888
0.916648
0.933362
0.950019
0.966608
0.983118
0.999536
1.01585
1.03204
1.0481
1.06401
1.07975
1.09532
1.11068
1.12582
1.14073
1.15537
1.16975
1.18382
1.19757
1.21098
1.22403
1.23669
1.24894
1.26075
1.27212
1.283
1.29339
1.30325
1.31257
1.32133
1.3295
1.33707
1.34403
1.35035
1.35602
1.36104
1.36539
1.36906
1.37207
1.3744
1.37606
1.37706
1.37742
1.37714
1.37626
1.37481
1.37281
1.37031
1.36737
1.36403
1.36036
1.35644
1.35235
1.34817
1.34401
1.33997
1.33616
1.3327
1.32971
1.32732
1.32563
1.32473
0.0113771
0.00998753
0.00812555
0.0057935
0.00302985
-7.60736e-05
-0.00343574
-0.00696469
-0.0105807
-0.0142052
-0.0177648
-0.0211917
-0.0244243
-0.0274073
-0.0300916
-0.032434
-0.0343973
-0.0359495
-0.0370637
-0.0377177
-0.0378934
-0.0375769
-0.0367577
-0.0354285
-0.0335849
-0.0312254
-0.0283505
-0.0249629
-0.0210673
-0.0166699
-0.0117781
-0.00640075
-0.000547761
0.00577018
0.0125416
0.0197545
0.0273964
0.0354543
0.0439151
0.0527656
0.0619923
0.0715818
0.0815208
0.0917961
0.102395
0.113303
0.12451
0.136002
0.147767
0.159794
0.172072
0.184589
0.197334
0.210299
0.223472
0.236845
0.250408
0.264153
0.278072
0.292156
0.306399
0.320793
0.335332
0.350009
0.364818
0.379753
0.394809
0.409981
0.425263
0.440652
0.456142
0.471729
0.487409
0.503178
0.519033
0.534969
0.550983
0.567071
0.58323
0.599457
0.615746
0.632096
0.648501
0.664959
0.681464
0.698014
0.714603
0.731228
0.747882
0.764561
0.78126
0.797971
0.814691
0.83141
0.848124
0.864823
0.881499
0.898145
0.914751
0.931307
0.947803
0.964227
0.980568
0.996813
1.01295
1.02897
1.04484
1.06057
1.07613
1.0915
1.10668
1.12163
1.13635
1.1508
1.16499
1.17887
1.19244
1.20566
1.21853
1.23102
1.2431
1.25475
1.26596
1.2767
1.28695
1.29668
1.30589
1.31454
1.32262
1.33012
1.33702
1.3433
1.34895
1.35396
1.35833
1.36205
1.36512
1.36753
1.3693
1.37043
1.37094
1.37084
1.37015
1.36891
1.36715
1.36491
1.36223
1.35916
1.35577
1.35212
1.34828
1.34433
1.34036
1.33647
1.33274
1.32926
1.32616
1.32351
1.32136
1.31971
0.0165023
0.0143656
0.0120143
0.0093821
0.00642501
0.0032176
-0.000163877
-0.00365047
-0.00717401
-0.0106681
-0.0140696
-0.01732
-0.0203651
-0.0231558
-0.0256483
-0.0278037
-0.0295878
-0.0309715
-0.0319297
-0.0324417
-0.0324907
-0.0320631
-0.0311489
-0.0297411
-0.027835
-0.0254289
-0.0225229
-0.0191193
-0.015222
-0.0108364
-0.00596949
-0.00062921
0.00517538
0.0114344
0.0181371
0.0252724
0.0328286
0.0407934
0.0491546
0.0578995
0.0670156
0.07649
0.0863101
0.0964632
0.106937
0.117719
0.128797
0.140159
0.151794
0.16369
0.175836
0.188222
0.200838
0.213673
0.226717
0.239963
0.2534
0.26702
0.280816
0.294779
0.308902
0.323178
0.3376
0.352162
0.366858
0.381681
0.396627
0.411689
0.426864
0.442145
0.457529
0.473011
0.488587
0.504253
0.520004
0.535838
0.551749
0.567734
0.583789
0.599911
0.616096
0.63234
0.648638
0.664988
0.681384
0.697823
0.714299
0.730808
0.747346
0.763905
0.780482
0.79707
0.813662
0.830251
0.846832
0.863395
0.879933
0.896437
0.912898
0.929307
0.945651
0.961922
0.978106
0.994193
1.01017
1.02602
1.04173
1.05729
1.07268
1.08788
1.10289
1.11767
1.13221
1.1465
1.16051
1.17423
1.18763
1.2007
1.21341
1.22574
1.23767
1.24919
1.26026
1.27087
1.281
1.29063
1.29974
1.30831
1.31632
1.32376
1.33061
1.33687
1.34251
1.34753
1.35192
1.35568
1.3588
1.3613
1.36316
1.36441
1.36505
1.36511
1.36459
1.36354
1.36197
1.35993
1.35746
1.35461
1.35143
1.34797
1.34431
1.34051
1.33665
1.3328
1.32905
1.32547
1.32215
1.31917
1.31647
1.31397
0.0220933
0.0191638
0.0162699
0.0132779
0.0100624
0.00668519
0.00321251
-0.000300527
-0.00379837
-0.00722556
-0.0105288
-0.0136576
-0.0165654
-0.0192093
-0.0215503
-0.023554
-0.0251898
-0.0264312
-0.0272556
-0.0276439
-0.0275805
-0.0270531
-0.0260521
-0.0245709
-0.0226051
-0.0201529
-0.0172142
-0.013791
-0.00988677
-0.00550657
-0.000656668
0.00465552
0.0104216
0.0166323
0.0232778
0.0303474
0.0378301
0.0457146
0.053989
0.0626415
0.0716601
0.0810325
0.0907467
0.100791
0.111152
0.12182
0.132782
0.144026
0.155542
0.167319
0.179345
0.191612
0.204107
0.216823
0.229749
0.242876
0.256196
0.269701
0.283382
0.297231
0.311242
0.325406
0.339719
0.354172
0.36876
0.383478
0.398318
0.413277
0.428349
0.443529
0.458812
0.474193
0.489669
0.505236
0.520888
0.536622
0.552434
0.568319
0.584275
0.600297
0.616381
0.632523
0.648719
0.664965
0.681256
0.697588
0.713956
0.730355
0.74678
0.763226
0.779687
0.796156
0.812628
0.829095
0.84555
0.861985
0.878393
0.894764
0.91109
0.92736
0.943565
0.959693
0.975733
0.991673
1.0075
1.0232
1.03876
1.05417
1.0694
1.08445
1.0993
1.11393
1.12832
1.14246
1.15632
1.16989
1.18315
1.19607
1.20864
1.22084
1.23265
1.24404
1.255
1.26551
1.27554
1.28508
1.29411
1.30261
1.31057
1.31797
1.32479
1.33102
1.33666
1.34169
1.34611
1.34992
1.3531
1.35567
1.35763
1.35898
1.35974
1.35993
1.35956
1.35866
1.35725
1.35538
1.35307
1.35038
1.34735
1.34403
1.34048
1.33675
1.33292
1.32905
1.32519
1.32142
1.31782
1.31444
1.31114
1.30775
0.0279752
0.024234
0.020765
0.0173712
0.0138482
0.0102479
0.00662829
0.00303245
-0.000495323
-0.00390942
-0.00716532
-0.0102205
-0.0130351
-0.0155721
-0.0177977
-0.0196817
-0.0211972
-0.0223205
-0.0230314
-0.023313
-0.023151
-0.0225344
-0.0214545
-0.0199051
-0.0178825
-0.0153849
-0.0124122
-0.00896645
-0.00505081
-0.000670011
0.00417005
0.00946241
0.0151992
0.0213716
0.0279704
0.0349855
0.0424065
0.0502226
0.0584225
0.066995
0.0759286
0.0852117
0.0948327
0.10478
0.115042
0.125607
0.136465
0.147604
0.159012
0.170681
0.182598
0.194755
0.207142
0.219748
0.232565
0.245583
0.258795
0.272192
0.285766
0.29951
0.313415
0.327476
0.341686
0.356037
0.370524
0.385141
0.399883
0.414743
0.429717
0.4448
0.459987
0.475273
0.490654
0.506125
0.521682
0.537321
0.553038
0.568828
0.584688
0.600614
0.616601
0.632645
0.648743
0.664889
0.681079
0.697309
0.713574
0.729868
0.746187
0.762524
0.778874
0.795232
0.811589
0.82794
0.844277
0.860592
0.876878
0.893125
0.909325
0.925467
0.941542
0.957538
0.973445
0.98925
1.00494
1.02051
1.03593
1.0512
1.06629
1.08121
1.09592
1.11041
1.12466
1.13866
1.15239
1.16583
1.17897
1.19177
1.20422
1.21631
1.22801
1.2393
1.25016
1.26058
1.27054
1.28001
1.28898
1.29743
1.30534
1.31271
1.31952
1.32575
1.33139
1.33644
1.3409
1.34474
1.34799
1.35063
1.35267
1.35411
1.35498
1.35528
1.35503
1.35426
1.35298
1.35124
1.34906
1.34648
1.34355
1.34031
1.33681
1.3331
1.32923
1.32527
1.32125
1.31723
1.31329
1.30946
1.30552
1.30124
0.0339966
0.0294436
0.0253832
0.0215593
0.0176932
0.013829
0.0100184
0.00629409
0.00269042
-0.000755731
-0.00400781
-0.0070305
-0.00979024
-0.0122557
-0.0143979
-0.0161909
-0.0176112
-0.0186384
-0.0192547
-0.0194451
-0.0191973
-0.0185014
-0.0173499
-0.0157375
-0.0136609
-0.0111186
-0.00811102
-0.00463995
-0.000708692
0.00367824
0.00851518
0.0137955
0.0195116
0.0256553
0.0322175
0.0391888
0.0465592
0.0543184
0.0624556
0.0709602
0.0798209
0.0890268
0.0985667
0.108429
0.118604
0.129079
0.139844
0.150889
0.162201
0.173773
0.185592
0.19765
0.209937
0.222444
0.235161
0.24808
0.261193
0.274491
0.287966
0.301612
0.31542
0.329384
0.343498
0.357754
0.372146
0.386669
0.401317
0.416085
0.430967
0.445958
0.461053
0.476248
0.491538
0.506918
0.522385
0.537933
0.553559
0.569258
0.585027
0.600861
0.616755
0.632706
0.648709
0.66476
0.680854
0.696987
0.713153
0.729347
0.745564
0.761799
0.778045
0.794296
0.810546
0.826788
0.843014
0.859217
0.875389
0.89152
0.907603
0.923626
0.939581
0.955457
0.971242
0.986924
1.00249
1.01793
1.03323
1.04837
1.06335
1.07814
1.09272
1.10709
1.12123
1.13512
1.14873
1.16206
1.17508
1.18778
1.20014
1.21213
1.22374
1.23495
1.24574
1.25609
1.26598
1.2754
1.28432
1.29274
1.30063
1.30798
1.31478
1.32102
1.32668
1.33175
1.33624
1.34014
1.34344
1.34615
1.34826
1.3498
1.35076
1.35115
1.35101
1.35034
1.34916
1.34752
1.34542
1.34292
1.34005
1.33684
1.33334
1.32959
1.32564
1.32153
1.3173
1.313
1.30867
1.30437
1.29978
1.29461
0.0400292
0.0346755
0.0300186
0.0257475
0.0215136
0.0173552
0.0133196
0.00943027
0.00571326
0.00219763
-0.0010872
-0.00411245
-0.00685042
-0.00927501
-0.011362
-0.0130892
-0.014437
-0.0153876
-0.0159261
-0.0160395
-0.0157174
-0.0149514
-0.0137351
-0.0120642
-0.00993611
-0.00734993
-0.00430634
-0.000807429
0.00314345
0.00754179
0.012382
0.0176577
0.0233615
0.0294854
0.0360208
0.0429586
0.0502891
0.0580025
0.0660885
0.0745367
0.0833364
0.092477
0.101948
0.111738
0.121836
0.132233
0.142917
0.153879
0.165107
0.176592
0.188324
0.200293
0.212491
0.224908
0.237535
0.250364
0.263386
0.276593
0.289979
0.303534
0.317253
0.331127
0.345152
0.359319
0.373623
0.388059
0.402619
0.4173
0.432095
0.446999
0.462008
0.477117
0.492321
0.507615
0.522996
0.538458
0.553997
0.56961
0.585291
0.601037
0.616843
0.632705
0.648618
0.664578
0.680581
0.69662
0.712692
0.728792
0.744913
0.76105
0.777198
0.793349
0.809498
0.825638
0.84176
0.857858
0.873924
0.889948
0.905923
0.921837
0.937682
0.953447
0.969121
0.984692
1.00015
1.01548
1.03066
1.0457
1.06056
1.07524
1.08972
1.10399
1.11802
1.13181
1.14532
1.15856
1.17149
1.1841
1.19638
1.20829
1.21983
1.23098
1.24171
1.25201
1.26185
1.27124
1.28013
1.28853
1.29641
1.30376
1.31056
1.31681
1.3225
1.32761
1.33214
1.33609
1.33945
1.34222
1.34441
1.34602
1.34706
1.34754
1.34748
1.34689
1.34579
1.34421
1.34218
1.33972
1.33687
1.33365
1.33011
1.32628
1.3222
1.31791
1.31343
1.3088
1.30407
1.29928
1.29404
1.28799
0.0459622
0.0398264
0.034576
0.0298489
0.0252311
0.0207571
0.0164706
0.012388
0.00852762
0.00491193
0.001564
-0.00149327
-0.00423758
-0.00664764
-0.00870359
-0.0103872
-0.011682
-0.0125734
-0.013049
-0.013098
-0.0127119
-0.0118838
-0.0106087
-0.00888327
-0.00670584
-0.00407617
-0.000995428
0.00253396
0.00650842
0.0109233
0.0157731
0.0210513
0.0267508
0.0328638
0.0393818
0.046296
0.0535972
0.0612756
0.0693214
0.0777245
0.0864747
0.0955615
0.104975
0.114704
0.124738
0.135068
0.145683
0.156572
0.167726
0.179136
0.190791
0.202682
0.214801
0.227138
0.239684
0.252431
0.265372
0.278498
0.291801
0.305274
0.318911
0.332703
0.346646
0.360731
0.374954
0.389307
0.403787
0.418386
0.4331
0.447923
0.462851
0.477879
0.493001
0.508214
0.523513
0.538893
0.554351
0.569881
0.585479
0.601141
0.616863
0.632641
0.648468
0.664342
0.680258
0.69621
0.712193
0.728203
0.744233
0.760279
0.776334
0.792391
0.808446
0.824489
0.840515
0.856516
0.872483
0.888409
0.904284
0.920098
0.935843
0.951508
0.967081
0.982551
0.997908
1.01314
1.02823
1.04316
1.05793
1.07252
1.0869
1.10108
1.11502
1.12872
1.14216
1.15532
1.16818
1.18072
1.19293
1.20479
1.21628
1.22737
1.23806
1.24833
1.25815
1.26751
1.27639
1.28478
1.29267
1.30002
1.30685
1.31312
1.31884
1.32399
1.32857
1.33257
1.33599
1.33883
1.34109
1.34277
1.34388
1.34444
1.34444
1.34392
1.34288
1.34134
1.33934
1.33689
1.33403
1.33077
1.32716
1.32321
1.31897
1.31447
1.30971
1.30473
1.29958
1.29429
1.28841
1.28151
0.0517003
0.0448051
0.0389698
0.0337844
0.0287736
0.0239692
0.0194133
0.0151156
0.0110884
0.00734808
0.00391226
0.000798565
-0.00197558
-0.00439336
-0.00643895
-0.00809774
-0.00935656
-0.0102038
-0.0106293
-0.0106248
-0.0101835
-0.00930021
-0.00797133
-0.00619469
-0.00396951
-0.00129636
0.00182301
0.00538569
0.00938777
0.0138244
0.0186899
0.0239778
0.0296809
0.0357915
0.0423014
0.0492019
0.0564838
0.0641378
0.0721544
0.0805235
0.0892354
0.0982799
0.107647
0.117326
0.127308
0.137582
0.148138
0.158967
0.170058
0.181403
0.192992
0.204815
0.216864
0.229131
0.241606
0.254281
0.267149
0.280201
0.293431
0.30683
0.320392
0.33411
0.347977
0.361988
0.376135
0.390414
0.404818
0.419341
0.43398
0.448728
0.46358
0.478531
0.493578
0.508714
0.523936
0.539239
0.554619
0.570071
0.585591
0.601174
0.616816
0.632513
0.64826
0.664053
0.679886
0.695754
0.711654
0.727579
0.743524
0.759483
0.775451
0.791421
0.807387
0.823342
0.839278
0.855189
0.871066
0.8869
0.902684
0.918408
0.934061
0.949635
0.965118
0.980499
0.995767
1.01091
1.02591
1.04076
1.05545
1.06995
1.08426
1.09836
1.11224
1.12587
1.13924
1.15234
1.16514
1.17763
1.18979
1.20161
1.21306
1.22412
1.23479
1.24504
1.25485
1.2642
1.27309
1.28149
1.28939
1.29677
1.30362
1.30994
1.3157
1.3209
1.32553
1.32959
1.33307
1.33597
1.33829
1.34004
1.34122
1.34183
1.3419
1.34142
1.34042
1.33891
1.33692
1.33446
1.33156
1.32823
1.32452
1.32044
1.31601
1.31126
1.30621
1.30087
1.29529
1.2895
1.28298
1.27527
0.0571607
0.0495312
0.0431232
0.0374818
0.0320741
0.0269305
0.022092
0.0175634
0.0133512
0.00946706
0.00592351
0.00273355
-8.97661e-05
-0.0025337
-0.00458619
-0.00623603
-0.00747316
-0.00828872
-0.00867514
-0.00862623
-0.00813715
-0.00720438
-0.00582573
-0.00400025
-0.00172821
0.000988978
0.00414885
0.00774796
0.011782
0.0162457
0.0211331
0.0264378
0.0321525
0.0382693
0.0447802
0.0516766
0.0589494
0.0665895
0.0745874
0.0829336
0.0916183
0.100632
0.109964
0.119605
0.129545
0.139774
0.150283
0.161062
0.172101
0.183392
0.194925
0.20669
0.21868
0.230886
0.243299
0.255911
0.268715
0.281703
0.294866
0.308199
0.321695
0.335346
0.349145
0.363088
0.377167
0.391376
0.405711
0.420165
0.434734
0.449411
0.464193
0.479074
0.494049
0.509114
0.524264
0.539494
0.554801
0.57018
0.585626
0.601134
0.616701
0.632323
0.647993
0.663709
0.679464
0.695254
0.711075
0.72692
0.742785
0.758664
0.77455
0.790439
0.806322
0.822194
0.838048
0.853875
0.869669
0.885421
0.901122
0.916763
0.932335
0.947828
0.96323
0.978532
0.993722
1.00879
1.02372
1.03849
1.05311
1.06755
1.08179
1.09583
1.10965
1.12322
1.13655
1.1496
1.16236
1.17481
1.18695
1.19874
1.21017
1.22122
1.23188
1.24212
1.25194
1.26131
1.27021
1.27863
1.28656
1.29398
1.30087
1.30723
1.31305
1.3183
1.32299
1.32712
1.33066
1.33363
1.33602
1.33783
1.33907
1.33974
1.33985
1.33941
1.33843
1.33694
1.33493
1.33244
1.32948
1.32607
1.32223
1.31799
1.31336
1.30835
1.30299
1.29727
1.29126
1.28498
1.27785
1.26934
0.0622712
0.0539334
0.0469673
0.0408755
0.0350709
0.0295836
0.0244544
0.0196835
0.0152731
0.0112303
0.00756349
0.00428152
0.0013935
-0.00109154
-0.003165
-0.00481889
-0.00604607
-0.00684034
-0.00719654
-0.00711061
-0.00657961
-0.0056017
-0.00417615
-0.00230329
1.55268e-05
0.00277797
0.00598078
0.00961989
0.0136904
0.0181868
0.0231027
0.0284315
0.0341656
0.0402973
0.0468184
0.0537202
0.060994
0.0686305
0.0766206
0.0849546
0.0936232
0.102617
0.111925
0.121539
0.131449
0.141644
0.152117
0.162857
0.173855
0.185102
0.196588
0.208306
0.220247
0.232401
0.244762
0.25732
0.270069
0.283
0.296107
0.309382
0.322818
0.336409
0.350148
0.36403
0.378047
0.392194
0.406466
0.420857
0.435361
0.449974
0.464691
0.479506
0.494415
0.509413
0.524496
0.539659
0.554897
0.570207
0.585583
0.601022
0.616518
0.632068
0.647667
0.66331
0.678992
0.694709
0.710456
0.726227
0.742016
0.75782
0.77363
0.789443
0.80525
0.821046
0.836823
0.852575
0.868293
0.883969
0.899596
0.915163
0.930662
0.946082
0.961414
0.976647
0.99177
1.00677
1.02164
1.03635
1.05091
1.06529
1.07949
1.09348
1.10725
1.12079
1.13408
1.1471
1.15983
1.17227
1.18439
1.19617
1.20759
1.21865
1.22932
1.23958
1.24941
1.25881
1.26774
1.2762
1.28417
1.29164
1.29859
1.30501
1.31088
1.3162
1.32096
1.32515
1.32877
1.3318
1.33426
1.33613
1.33743
1.33815
1.3383
1.33789
1.33693
1.33543
1.3334
1.33086
1.32783
1.32432
1.32034
1.31592
1.31106
1.30579
1.30011
1.29402
1.28757
1.28081
1.27307
1.26382
0.0669682
0.0579481
0.0504398
0.0439056
0.0377073
0.0318752
0.0264506
0.0214302
0.0168121
0.0125998
0.00879807
0.00541198
0.00244716
-9.07588e-05
-0.00219633
-0.00386458
-0.00509109
-0.00587222
-0.0062051
-0.00608778
-0.00551917
-0.00449911
-0.00302834
-0.00110851
0.0012579
0.00406756
0.0073164
0.0109996
0.0151118
0.0196467
0.0245979
0.0299582
0.03572
0.0418754
0.0484159
0.0553329
0.0626177
0.0702611
0.0782539
0.0865866
0.09525
0.104234
0.11353
0.123128
0.133019
0.143192
0.153639
0.164351
0.175318
0.186532
0.197983
0.209663
0.221564
0.233677
0.245994
0.258508
0.27121
0.284094
0.297151
0.310376
0.323761
0.3373
0.350986
0.364813
0.378775
0.392866
0.407082
0.421415
0.435861
0.450415
0.465072
0.479827
0.494675
0.509611
0.524632
0.539732
0.554906
0.570152
0.585463
0.600836
0.616267
0.63175
0.647281
0.662856
0.678471
0.694119
0.709796
0.725497
0.741217
0.75695
0.772691
0.788433
0.80417
0.819896
0.835604
0.851286
0.866935
0.882544
0.898103
0.913604
0.929039
0.944396
0.959667
0.974841
0.989906
1.00485
1.01967
1.03433
1.04885
1.06319
1.07734
1.0913
1.10504
1.11855
1.13182
1.14483
1.15755
1.16998
1.1821
1.19389
1.20533
1.2164
1.22709
1.23738
1.24725
1.25669
1.26567
1.27419
1.28222
1.28975
1.29676
1.30325
1.3092
1.31459
1.31943
1.32369
1.32738
1.33049
1.33301
1.33495
1.3363
1.33707
1.33726
1.33687
1.33592
1.3344
1.33234
1.32975
1.32663
1.323
1.31887
1.31426
1.30917
1.30362
1.29762
1.29115
1.28428
1.27704
1.26873
1.25875
0.0711953
0.0615184
0.0534843
0.0465171
0.0399304
0.0337551
0.0280336
0.0227595
0.0179277
0.0135386
0.00959342
0.00609432
0.00304366
0.000444018
-0.0017021
-0.00339247
-0.00462529
-0.00539929
-0.00571384
-0.00556899
-0.00496549
-0.00390485
-0.0023893
-0.000421807
0.00199397
0.00485369
0.00815238
0.0118845
0.0160438
0.0206239
0.0256175
0.0310172
0.0368151
0.043003
0.0495724
0.0565145
0.0638205
0.0714812
0.0794874
0.0878298
0.096499
0.105486
0.11478
0.124373
0.134255
0.144417
0.15485
0.165544
0.176491
0.187682
0.199108
0.21076
0.222631
0.234712
0.246996
0.259474
0.272139
0.284983
0.298
0.311183
0.324524
0.338018
0.351658
0.365438
0.379351
0.393394
0.407558
0.42184
0.436234
0.450735
0.465337
0.480037
0.494829
0.509709
0.524672
0.539714
0.55483
0.570015
0.585266
0.600578
0.615947
0.631368
0.646837
0.662348
0.677899
0.693483
0.709096
0.724732
0.740387
0.756056
0.771731
0.787409
0.803081
0.818743
0.834388
0.850007
0.865595
0.881143
0.896642
0.912086
0.927464
0.942767
0.957986
0.973109
0.988127
1.00303
1.0178
1.03243
1.04691
1.06122
1.07535
1.08929
1.10301
1.11651
1.12977
1.14278
1.15551
1.16795
1.18008
1.19189
1.20336
1.21447
1.2252
1.23553
1.24546
1.25495
1.264
1.27258
1.28068
1.28828
1.29538
1.30195
1.30798
1.31346
1.31838
1.32273
1.3265
1.32969
1.33228
1.33429
1.33569
1.33651
1.33673
1.33636
1.33541
1.33388
1.33178
1.32912
1.3259
1.32215
1.31786
1.31305
1.30773
1.3019
1.29557
1.28873
1.28144
1.27374
1.26487
1.2542
0.0749022
0.0645927
0.0560494
0.0486597
0.0416913
0.0351765
0.0291589
0.0236296
0.0185808
0.0140101
0.00991613
0.00629796
0.00315518
0.000487603
-0.00170497
-0.00342288
-0.00466675
-0.0054376
-0.00573689
-0.00556664
-0.0049294
-0.00382833
-0.00226713
-0.000250113
0.00221786
0.0051314
0.00848458
0.012271
0.0164839
0.021116
0.0261597
0.0316071
0.0374499
0.0436797
0.0502876
0.057265
0.0646025
0.0722912
0.0803217
0.0886847
0.0973708
0.106371
0.115675
0.125274
0.135159
0.145321
0.15575
0.166438
0.177375
0.188553
0.199964
0.211599
0.22345
0.235509
0.247767
0.260219
0.272855
0.285669
0.298653
0.311802
0.325107
0.338564
0.352165
0.365904
0.379777
0.393776
0.407896
0.422133
0.43648
0.450933
0.465487
0.480137
0.494879
0.509707
0.524617
0.539605
0.554667
0.569797
0.584993
0.600248
0.61556
0.630923
0.646333
0.661786
0.677277
0.692802
0.708355
0.723931
0.739527
0.755135
0.770751
0.786369
0.801983
0.817587
0.833174
0.848737
0.86427
0.879764
0.895211
0.910604
0.925934
0.941191
0.956367
0.97145
0.98643
1.0013
1.01604
1.03064
1.0451
1.05939
1.07351
1.08743
1.10116
1.11466
1.12792
1.14094
1.15369
1.16616
1.17832
1.19017
1.20168
1.21284
1.22362
1.23402
1.24401
1.25357
1.2627
1.27136
1.27955
1.28724
1.29443
1.3011
1.30722
1.3128
1.31782
1.32226
1.32612
1.32939
1.33207
1.33414
1.33561
1.33647
1.33673
1.33638
1.33542
1.33387
1.33173
1.32899
1.32568
1.3218
1.31735
1.31234
1.30678
1.30067
1.29401
1.28681
1.27911
1.27095
1.26154
1.25021
0.0780434
0.0671244
0.0580878
0.0502865
0.0429443
0.0360951
0.0297841
0.0240003
0.0187335
0.0139791
0.00973324
0.00599245
0.00275375
1.44137e-05
-0.00222822
-0.00397687
-0.00523444
-0.0060041
-0.00628937
-0.00609414
-0.00542273
-0.00427989
-0.00267085
-0.000601234
0.00192287
0.00489499
0.00830822
0.0121553
0.0164287
0.0211206
0.0262226
0.0317264
0.0376234
0.0439047
0.0505613
0.0575842
0.064964
0.0726914
0.0807572
0.0891519
0.0978662
0.106891
0.116216
0.125832
0.135732
0.145904
0.15634
0.167032
0.177971
0.189147
0.200553
0.21218
0.224021
0.236067
0.24831
0.260744
0.27336
0.286152
0.299112
0.312234
0.325512
0.338939
0.352508
0.366214
0.380052
0.394014
0.408097
0.422294
0.436601
0.451012
0.465523
0.480128
0.494824
0.509605
0.524468
0.539407
0.554419
0.569499
0.584643
0.599847
0.615105
0.630415
0.645771
0.66117
0.676606
0.692076
0.707573
0.723095
0.738635
0.754189
0.76975
0.785314
0.800875
0.816427
0.831962
0.847475
0.862959
0.878406
0.893808
0.909158
0.924448
0.939667
0.954807
0.969858
0.98481
0.999652
1.01437
1.02896
1.0434
1.05769
1.0718
1.08573
1.09946
1.11298
1.12627
1.13931
1.15209
1.1646
1.17681
1.18871
1.20028
1.2115
1.22236
1.23283
1.2429
1.25256
1.26177
1.27053
1.27882
1.28662
1.29392
1.30069
1.30692
1.31261
1.31773
1.32228
1.32624
1.3296
1.33236
1.33451
1.33605
1.33696
1.33726
1.33692
1.33597
1.3344
1.33221
1.3294
1.32599
1.32197
1.31736
1.31215
1.30635
1.29996
1.29299
1.28542
1.27732
1.26872
1.25879
1.24682
0.0805775
0.0690702
0.059556
0.0513541
0.0436466
0.0364692
0.0298688
0.0238328
0.0183491
0.0134109
0.00901227
0.00514749
0.00181127
-0.00100143
-0.00329556
-0.00507606
-0.00634799
-0.00711655
-0.00738722
-0.00716572
-0.00645811
-0.00527073
-0.00361027
-0.00148371
0.00110163
0.00413815
0.00761797
0.0115329
0.0158747
0.0206346
0.0258038
0.0313735
0.0373344
0.0436774
0.0503932
0.0574723
0.0649053
0.0726827
0.080795
0.0892328
0.0979865
0.107047
0.116404
0.12605
0.135974
0.146168
0.156623
0.16733
0.17828
0.189465
0.200876
0.212506
0.224346
0.236389
0.248626
0.261051
0.273656
0.286434
0.299379
0.312483
0.32574
0.339144
0.352689
0.366369
0.380178
0.39411
0.408161
0.422325
0.436597
0.450972
0.465445
0.480011
0.494666
0.509406
0.524226
0.539121
0.554088
0.569122
0.584219
0.599374
0.614585
0.629845
0.645152
0.6605
0.675886
0.691305
0.706752
0.722223
0.737713
0.753216
0.768728
0.784244
0.799756
0.815261
0.830751
0.84622
0.861661
0.877067
0.892432
0.907746
0.923002
0.938191
0.953304
0.968331
0.983264
0.99809
1.0128
1.02738
1.04182
1.05611
1.07024
1.08418
1.09793
1.11148
1.1248
1.13788
1.15071
1.16327
1.17554
1.1875
1.19914
1.21045
1.22139
1.23196
1.24213
1.25189
1.26121
1.27008
1.27849
1.28641
1.29382
1.30072
1.30708
1.31289
1.31813
1.32279
1.32686
1.33033
1.33318
1.33542
1.33702
1.338
1.33833
1.33802
1.33708
1.33548
1.33325
1.33037
1.32686
1.32271
1.31793
1.31252
1.30648
1.29982
1.29253
1.28461
1.27612
1.2671
1.25666
1.24408
0.0824661
0.0703905
0.0604132
0.0518216
0.0437577
0.0362589
0.0293743
0.0230899
0.0173918
0.0122715
0.00772115
0.00373299
0.000299652
-0.00258603
-0.0049311
-0.0067426
-0.00802761
-0.00879332
-0.00904705
-0.00879634
-0.00804892
-0.0068127
-0.00509585
-0.0029067
-0.000253798
0.00285411
0.00640809
0.0103991
0.0148178
0.019655
0.024901
0.0305465
0.0365818
0.0429972
0.0497831
0.0569296
0.0644271