/*--------------------------------*- C++ -*----------------------------------*\
  =========                 |
  \\      /  F ield         | OpenFOAM: The Open Source CFD Toolbox
   \\    /   O peration     | Website:  https://openfoam.org
    \\  /    A nd           | Version:  7
     \\/     M anipulation  |
\*---------------------------------------------------------------------------*/
FoamFile
{
    version     2.0;
    format      ascii;
    class       surfaceScalarField;
    location    "0.2125";
    object      phi;
}
// * * * * * * * * * * * * * * * * * * * * * * * * * * * * * * * * * * * * * //

dimensions      [0 3 -1 0 0 0 0];

internalField   nonuniform List<scalar> 
25360
(
1.14166e-10
-1.14439e-10
3.59453e-10
-2.45283e-10
6.0406e-10
-2.44584e-10
7.64881e-10
-1.60822e-10
7.97822e-10
-3.29509e-11
6.81088e-10
1.16725e-10
4.06061e-10
2.75032e-10
-2.79347e-11
4.34004e-10
-6.16771e-10
5.88839e-10
-1.35342e-09
7.36649e-10
-2.22913e-09
8.75699e-10
-3.23411e-09
1.00498e-09
-4.35806e-09
1.12396e-09
-5.59048e-09
1.23242e-09
-6.92084e-09
1.33035e-09
-8.33876e-09
1.41793e-09
-9.83416e-09
1.49539e-09
-1.13972e-08
1.56309e-09
-1.30186e-08
1.62139e-09
-1.46894e-08
1.67074e-09
-1.6401e-08
1.71158e-09
-1.81453e-08
1.74437e-09
-1.99149e-08
1.76959e-09
-2.17026e-08
1.7877e-09
-2.35018e-08
1.7992e-09
-2.53064e-08
1.80454e-09
-2.71105e-08
1.80418e-09
-2.89091e-08
1.79858e-09
-3.06973e-08
1.78817e-09
-3.24707e-08
1.77338e-09
-3.42253e-08
1.75461e-09
-3.59575e-08
1.73226e-09
-3.76642e-08
1.7067e-09
-3.93425e-08
1.67827e-09
-4.09898e-08
1.64734e-09
-4.26041e-08
1.6142e-09
-4.41832e-08
1.57918e-09
-4.57258e-08
1.54254e-09
-4.72303e-08
1.50455e-09
-4.86958e-08
1.46546e-09
-5.01213e-08
1.42551e-09
-5.15062e-08
1.38489e-09
-5.285e-08
1.34381e-09
-5.41524e-08
1.30245e-09
-5.54134e-08
1.26097e-09
-5.66329e-08
1.21951e-09
-5.78111e-08
1.17821e-09
-5.89483e-08
1.13719e-09
-6.00449e-08
1.09656e-09
-6.11013e-08
1.0564e-09
-6.21181e-08
1.0168e-09
-6.30959e-08
9.7783e-10
-6.40355e-08
9.39543e-10
-6.49375e-08
9.01991e-10
-6.58027e-08
8.65211e-10
-6.66319e-08
8.29232e-10
-6.7426e-08
7.94075e-10
-6.81857e-08
7.59753e-10
-6.8912e-08
7.2627e-10
-6.96056e-08
6.93624e-10
-7.02674e-08
6.61806e-10
-7.08983e-08
6.30802e-10
-7.14988e-08
6.00593e-10
-7.207e-08
5.7115e-10
-7.26124e-08
5.42443e-10
-7.31269e-08
5.14438e-10
-7.3614e-08
4.87094e-10
-7.40743e-08
4.6037e-10
-7.45086e-08
4.34216e-10
-7.49171e-08
4.0858e-10
-7.53005e-08
3.8341e-10
-7.56592e-08
3.58649e-10
-7.59934e-08
3.34241e-10
-7.63036e-08
3.10124e-10
-7.65898e-08
2.86231e-10
-7.68523e-08
2.62497e-10
-7.70911e-08
2.38852e-10
-7.73064e-08
2.15228e-10
-7.74979e-08
1.91557e-10
-7.76657e-08
1.67767e-10
-7.78095e-08
1.43784e-10
-7.7929e-08
1.19534e-10
-7.8024e-08
9.49427e-11
-7.80939e-08
6.9937e-11
-7.81383e-08
4.4443e-11
-7.81567e-08
1.83862e-11
-7.81484e-08
-8.30799e-12
-7.81127e-08
-3.57136e-11
-7.80488e-08
-6.39027e-11
-7.79559e-08
-9.29451e-11
-7.78329e-08
-1.22909e-10
-7.76791e-08
-1.5386e-10
-7.74932e-08
-1.85863e-10
-7.72742e-08
-2.18981e-10
-7.7021e-08
-2.5327e-10
-7.67322e-08
-2.88784e-10
-7.64066e-08
-3.25572e-10
-7.60429e-08
-3.63677e-10
-7.56398e-08
-4.03137e-10
-7.51958e-08
-4.43985e-10
-7.47096e-08
-4.86245e-10
-7.41796e-08
-5.29933e-10
-7.36046e-08
-5.75057e-10
-7.2983e-08
-6.21616e-10
-7.23134e-08
-6.69597e-10
-7.15944e-08
-7.18979e-10
-7.08247e-08
-7.69728e-10
-7.00029e-08
-8.21795e-10
-6.91277e-08
-8.7512e-10
-6.81981e-08
-9.29628e-10
-6.72129e-08
-9.85227e-10
-6.61711e-08
-1.04181e-09
-6.50718e-08
-1.09926e-09
-6.39144e-08
-1.15742e-09
-6.26983e-08
-1.21614e-09
-6.1423e-08
-1.27525e-09
-6.00885e-08
-1.33453e-09
-5.86947e-08
-1.39377e-09
-5.7242e-08
-1.45273e-09
-5.57308e-08
-1.51115e-09
-5.41621e-08
-1.56875e-09
-5.25368e-08
-1.62522e-09
-5.08566e-08
-1.68023e-09
-4.91232e-08
-1.73344e-09
-4.73387e-08
-1.78448e-09
-4.55057e-08
-1.83296e-09
-4.36273e-08
-1.87848e-09
-4.17067e-08
-1.9206e-09
-3.97478e-08
-1.95889e-09
-3.77549e-08
-1.99289e-09
-3.57328e-08
-2.02212e-09
-3.36867e-08
-2.04609e-09
-3.16224e-08
-2.06431e-09
-2.95461e-08
-2.07628e-09
-2.74646e-08
-2.08148e-09
-2.53852e-08
-2.0794e-09
-2.33157e-08
-2.06951e-09
-2.12644e-08
-2.05132e-09
-1.92401e-08
-2.02431e-09
-1.72521e-08
-1.98798e-09
-1.53102e-08
-1.94186e-09
-1.34247e-08
-1.88549e-09
-1.16063e-08
-1.81843e-09
-9.866e-09
-1.7403e-09
-8.21526e-09
-1.65074e-09
-6.6658e-09
-1.54947e-09
-5.22951e-09
-1.43629e-09
-3.91839e-09
-1.31112e-09
-2.74435e-09
-1.17403e-09
-1.719e-09
-1.02535e-09
-8.53313e-10
-8.65689e-10
-1.57117e-10
-6.96201e-10
3.61673e-10
-5.18796e-10
6.98309e-10
-3.36638e-10
8.53283e-10
-1.54972e-10
8.3582e-10
1.74595e-11
6.69732e-10
1.66079e-10
4.0378e-10
2.65956e-10
1.3075e-10
2.73044e-10
1.30727e-10
2.45329e-10
-3.59766e-10
6.33829e-10
-6.33745e-10
9.49774e-10
-5.60536e-10
1.04647e-09
-2.57532e-10
8.28098e-10
1.85418e-10
2.38185e-10
7.06641e-10
-7.5164e-10
1.26485e-09
-2.15039e-09
1.83275e-09
-3.95396e-09
2.3924e-09
-6.14934e-09
2.93203e-09
-8.71768e-09
3.44404e-09
-1.16363e-08
3.92358e-09
-1.488e-08
4.36773e-09
-1.84226e-08
4.77493e-09
-2.22367e-08
5.14454e-09
-2.62954e-08
5.47663e-09
-3.05718e-08
5.77175e-09
-3.50396e-08
6.03083e-09
-3.96732e-08
6.25505e-09
-4.44483e-08
6.44579e-09
-4.93412e-08
6.60456e-09
-5.43298e-08
6.73296e-09
-5.93929e-08
6.83267e-09
-6.45106e-08
6.90538e-09
-6.96642e-08
6.95281e-09
-7.48363e-08
6.97667e-09
-8.00108e-08
6.97867e-09
-8.51727e-08
6.96047e-09
-9.03082e-08
6.92369e-09
-9.54047e-08
6.86993e-09
-1.00451e-07
6.80071e-09
-1.05436e-07
6.71752e-09
-1.10351e-07
6.62178e-09
-1.15188e-07
6.51483e-09
-1.19938e-07
6.39798e-09
-1.24597e-07
6.27244e-09
-1.29157e-07
6.13936e-09
-1.33614e-07
5.99984e-09
-1.37964e-07
5.85491e-09
-1.42204e-07
5.7055e-09
-1.46331e-07
5.55251e-09
-1.50343e-07
5.39676e-09
-1.54239e-07
5.23901e-09
-1.58016e-07
5.07995e-09
-1.61675e-07
4.92022e-09
-1.65216e-07
4.7604e-09
-1.68639e-07
4.60101e-09
-1.71944e-07
4.44252e-09
-1.75133e-07
4.28535e-09
-1.78207e-07
4.12986e-09
-1.81166e-07
3.97636e-09
-1.84013e-07
3.82515e-09
-1.8675e-07
3.67645e-09
-1.89379e-07
3.53046e-09
-1.91901e-07
3.38733e-09
-1.94319e-07
3.24718e-09
-1.96635e-07
3.1101e-09
-1.98851e-07
2.97615e-09
-2.0097e-07
2.84534e-09
-2.02994e-07
2.71769e-09
-2.04926e-07
2.59315e-09
-2.06767e-07
2.47169e-09
-2.08519e-07
2.35323e-09
-2.10186e-07
2.23766e-09
-2.11768e-07
2.12489e-09
-2.13269e-07
2.01477e-09
-2.14689e-07
1.90715e-09
-2.1603e-07
1.80187e-09
-2.17295e-07
1.69876e-09
-2.18484e-07
1.59761e-09
-2.19599e-07
1.49824e-09
-2.2064e-07
1.40041e-09
-2.2161e-07
1.30391e-09
-2.22508e-07
1.2085e-09
-2.23336e-07
1.11393e-09
-2.24094e-07
1.01996e-09
-2.24781e-07
9.2632e-10
-2.25399e-07
8.32748e-10
-2.25946e-07
7.38973e-10
-2.26423e-07
6.44723e-10
-2.26829e-07
5.49722e-10
-2.27163e-07
4.53689e-10
-2.27424e-07
3.5634e-10
-2.27612e-07
2.57391e-10
-2.27724e-07
1.56557e-10
-2.27759e-07
5.35542e-11
-2.27716e-07
-5.1897e-11
-2.27591e-07
-1.60074e-10
-2.27384e-07
-2.71249e-10
-2.27091e-07
-3.85691e-10
-2.2671e-07
-5.03659e-10
-2.26239e-07
-6.25404e-10
-2.25674e-07
-7.51168e-10
-2.25011e-07
-8.81178e-10
-2.24249e-07
-1.01565e-09
-2.23383e-07
-1.15478e-09
-2.2241e-07
-1.29876e-09
-2.21326e-07
-1.44774e-09
-2.20127e-07
-1.60186e-09
-2.1881e-07
-1.76123e-09
-2.1737e-07
-1.92593e-09
-2.15804e-07
-2.09603e-09
-2.14108e-07
-2.27154e-09
-2.12277e-07
-2.45244e-09
-2.10308e-07
-2.63868e-09
-2.08196e-07
-2.83016e-09
-2.05939e-07
-3.02674e-09
-2.03533e-07
-3.22822e-09
-2.00974e-07
-3.43435e-09
-1.98259e-07
-3.64485e-09
-1.95384e-07
-3.85933e-09
-1.92349e-07
-4.0774e-09
-1.8915e-07
-4.29854e-09
-1.85785e-07
-4.52223e-09
-1.82253e-07
-4.74781e-09
-1.78554e-07
-4.97461e-09
-1.74686e-07
-5.20185e-09
-1.70651e-07
-5.42866e-09
-1.6645e-07
-5.65414e-09
-1.62084e-07
-5.87726e-09
-1.57556e-07
-6.09695e-09
-1.52869e-07
-6.31202e-09
-1.48028e-07
-6.52124e-09
-1.43038e-07
-6.72328e-09
-1.37906e-07
-6.91673e-09
-1.32639e-07
-7.10011e-09
-1.27245e-07
-7.27188e-09
-1.21735e-07
-7.43042e-09
-1.1612e-07
-7.57404e-09
-1.10412e-07
-7.70103e-09
-1.04625e-07
-7.80958e-09
-9.8773e-08
-7.89787e-09
-9.28732e-08
-7.96404e-09
-8.69433e-08
-8.0062e-09
-8.10023e-08
-8.02245e-09
-7.50709e-08
-8.01088e-09
-6.91708e-08
-7.96959e-09
-6.33254e-08
-7.89672e-09
-5.75593e-08
-7.79043e-09
-5.18983e-08
-7.64896e-09
-4.63695e-08
-7.47061e-09
-4.10012e-08
-7.25381e-09
-3.58225e-08
-6.99711e-09
-3.08636e-08
-6.69926e-09
-2.6155e-08
-6.35925e-09
-2.17281e-08
-5.97637e-09
-1.76141e-08
-5.55031e-09
-1.38439e-08
-5.08131e-09
-1.04476e-08
-4.57035e-09
-7.45353e-09
-4.01941e-09
-4.88731e-09
-3.43191e-09
-2.7702e-09
-2.81332e-09
-1.11689e-09
-2.17211e-09
6.77082e-11
-1.52123e-09
7.9321e-10
-8.80472e-10
1.09067e-09
-2.79996e-10
1.02247e-09
2.34282e-10
6.95182e-10
5.9326e-10
2.73076e-10
6.95188e-10
4.03826e-10
2.45753e-10
-6.05497e-10
5.63341e-10
-9.51338e-10
6.9763e-10
-6.94835e-10
4.74641e-10
-3.45569e-11
-2.25296e-10
8.85349e-10
-1.47805e-09
1.9594e-09
-3.3255e-09
3.11231e-09
-5.78419e-09
4.29144e-09
-8.85213e-09
5.46033e-09
-1.2514e-08
6.59388e-09
-1.6745e-08
7.67502e-09
-2.15138e-08
8.6924e-09
-2.67848e-08
9.63873e-09
-3.25195e-08
1.05097e-08
-3.8678e-08
1.13031e-08
-4.52197e-08
1.20183e-08
-5.21038e-08
1.26559e-08
-5.92904e-08
1.32174e-08
-6.67403e-08
1.37049e-08
-7.44155e-08
1.4121e-08
-8.22797e-08
1.44687e-08
-9.02979e-08
1.47512e-08
-9.8437e-08
1.49718e-08
-1.06666e-07
1.51341e-08
-1.14955e-07
1.52416e-08
-1.23276e-07
1.5298e-08
-1.31604e-07
1.53068e-08
-1.39915e-07
1.52715e-08
-1.48187e-07
1.51956e-08
-1.56399e-07
1.50825e-08
-1.64534e-07
1.49355e-08
-1.72574e-07
1.47577e-08
-1.80505e-07
1.45523e-08
-1.88312e-07
1.43221e-08
-1.95984e-07
1.407e-08
-2.0351e-07
1.37985e-08
-2.10881e-07
1.35103e-08
-2.18089e-07
1.32076e-08
-2.25127e-07
1.28927e-08
-2.31989e-07
1.25678e-08
-2.38671e-07
1.22346e-08
-2.4517e-07
1.18951e-08
-2.51482e-07
1.15509e-08
-2.57605e-07
1.12036e-08
-2.63539e-07
1.08544e-08
-2.69284e-07
1.05048e-08
-2.74839e-07
1.01558e-08
-2.80205e-07
9.80857e-09
-2.85383e-07
9.46391e-09
-2.90376e-07
9.1227e-09
-2.95185e-07
8.78563e-09
-2.99814e-07
8.45333e-09
-3.04263e-07
8.12632e-09
-3.08538e-07
7.80504e-09
-3.12641e-07
7.48984e-09
-3.16574e-07
7.181e-09
-3.20343e-07
6.87872e-09
-3.2395e-07
6.58312e-09
-3.27399e-07
6.29429e-09
-3.30693e-07
6.01221e-09
-3.33837e-07
5.73685e-09
-3.36834e-07
5.4681e-09
-3.39686e-07
5.2058e-09
-3.42398e-07
4.94976e-09
-3.44973e-07
4.69973e-09
-3.47414e-07
4.45543e-09
-3.49723e-07
4.21654e-09
-3.51904e-07
3.98271e-09
-3.53959e-07
3.75355e-09
-3.5589e-07
3.52864e-09
-3.57699e-07
3.30754e-09
-3.59388e-07
3.08978e-09
-3.60959e-07
2.87488e-09
-3.62413e-07
2.66233e-09
-3.63751e-07
2.45158e-09
-3.64973e-07
2.2421e-09
-3.6608e-07
2.03333e-09
-3.67072e-07
1.82468e-09
-3.67949e-07
1.61557e-09
-3.68709e-07
1.40541e-09
-3.69353e-07
1.1936e-09
-3.69879e-07
9.79511e-10
-3.70285e-07
7.62543e-10
-3.7057e-07
5.42077e-10
-3.70731e-07
3.17497e-10
-3.70765e-07
8.81896e-11
-3.70671e-07
-1.46452e-10
-3.70444e-07
-3.8703e-10
-3.70081e-07
-6.34132e-10
-3.69578e-07
-8.88336e-10
-3.68932e-07
-1.1502e-09
-3.68137e-07
-1.42027e-09
-3.67189e-07
-1.69905e-09
-3.66083e-07
-1.98705e-09
-3.64814e-07
-2.28471e-09
-3.63376e-07
-2.59246e-09
-3.61765e-07
-2.91069e-09
-3.59973e-07
-3.23973e-09
-3.57995e-07
-3.57986e-09
-3.55824e-07
-3.93133e-09
-3.53456e-07
-4.29429e-09
-3.50883e-07
-4.66885e-09
-3.481e-07
-5.05504e-09
-3.45099e-07
-5.45281e-09
-3.41876e-07
-5.86201e-09
-3.38424e-07
-6.28242e-09
-3.34737e-07
-6.71371e-09
-3.3081e-07
-7.15544e-09
-3.26637e-07
-7.60704e-09
-3.22214e-07
-8.06786e-09
-3.17536e-07
-8.53708e-09
-3.126e-07
-9.01377e-09
-3.07401e-07
-9.49686e-09
-3.01939e-07
-9.98511e-09
-2.96209e-07
-1.04772e-08
-2.90212e-07
-1.09715e-08
-2.83948e-07
-1.14663e-08
-2.77417e-07
-1.19599e-08
-2.70621e-07
-1.24502e-08
-2.63563e-07
-1.29349e-08
-2.56248e-07
-1.34117e-08
-2.48682e-07
-1.38781e-08
-2.40872e-07
-1.43313e-08
-2.32827e-07
-1.47684e-08
-2.24557e-07
-1.51865e-08
-2.16075e-07
-1.55823e-08
-2.07394e-07
-1.59525e-08
-1.98531e-07
-1.62935e-08
-1.89503e-07
-1.66018e-08
-1.80331e-07
-1.68737e-08
-1.71035e-07
-1.71052e-08
-1.61641e-07
-1.72925e-08
-1.52173e-07
-1.74315e-08
-1.42661e-07
-1.75184e-08
-1.33134e-07
-1.75489e-08
-1.23626e-07
-1.75192e-08
-1.14171e-07
-1.74251e-08
-1.04804e-07
-1.72628e-08
-9.55664e-08
-1.70285e-08
-8.64968e-08
-1.67185e-08
-7.7638e-08
-1.63295e-08
-6.90336e-08
-1.58582e-08
-6.07289e-08
-1.53018e-08
-5.277e-08
-1.46581e-08
-4.52039e-08
-1.39254e-08
-3.80778e-08
-1.31025e-08
-3.14384e-08
-1.21897e-08
-2.53317e-08
-1.1188e-08
-1.98014e-08
-1.01007e-08
-1.48879e-08
-8.93286e-09
-1.06267e-08
-7.69313e-09
-7.04567e-09
-6.39434e-09
-4.16223e-09
-5.05553e-09
-1.97894e-09
-3.70453e-09
-4.77768e-10
-2.38167e-09
3.87489e-10
-1.14529e-09
7.00972e-10
-7.92249e-11
5.95945e-10
6.98305e-10
2.66846e-10
1.02429e-09
6.70685e-10
1.63731e-10
-7.69229e-10
2.6467e-10
-1.0523e-09
4.41503e-11
-4.74318e-10
-6.78191e-10
6.87782e-10
-2.02909e-09
2.23625e-09
-4.09177e-09
4.02208e-09
-6.91431e-09
5.93485e-09
-1.05172e-08
7.89437e-09
-1.48998e-08
9.84291e-09
-2.00452e-08
1.17393e-08
-2.59248e-08
1.35546e-08
-3.25011e-08
1.52687e-08
-3.97306e-08
1.68683e-08
-4.75658e-08
1.83449e-08
-5.59565e-08
1.96938e-08
-6.48512e-08
2.0913e-08
-7.41982e-08
2.20028e-08
-8.39457e-08
2.29649e-08
-9.40431e-08
2.38023e-08
-1.04441e-07
2.4519e-08
-1.15092e-07
2.51195e-08
-1.2595e-07
2.5609e-08
-1.36971e-07
2.5993e-08
-1.48114e-07
2.62771e-08
-1.5934e-07
2.64674e-08
-1.70611e-07
2.65697e-08
-1.81894e-07
2.659e-08
-1.93157e-07
2.65344e-08
-2.0437e-07
2.64085e-08
-2.15506e-07
2.62183e-08
-2.2654e-07
2.59692e-08
-2.37449e-07
2.56667e-08
-2.48212e-07
2.5316e-08
-2.58812e-07
2.49221e-08
-2.69232e-07
2.44898e-08
-2.79457e-07
2.40237e-08
-2.89475e-07
2.35281e-08
-2.99275e-07
2.3007e-08
-3.08846e-07
2.24644e-08
-3.18182e-07
2.19039e-08
-3.27276e-07
2.13287e-08
-3.36123e-07
2.07421e-08
-3.44719e-07
2.01468e-08
-3.53061e-07
1.95457e-08
-3.61148e-07
1.8941e-08
-3.68978e-07
1.83351e-08
-3.76552e-07
1.77299e-08
-3.83871e-07
1.71272e-08
-3.90936e-07
1.65288e-08
-3.97749e-07
1.59359e-08
-4.04313e-07
1.53499e-08
-4.10632e-07
1.47719e-08
-4.16708e-07
1.42027e-08
-4.22546e-07
1.36432e-08
-4.2815e-07
1.30939e-08
-4.33525e-07
1.25554e-08
-4.38674e-07
1.20281e-08
-4.43603e-07
1.15121e-08
-4.48317e-07
1.10076e-08
-4.52819e-07
1.05147e-08
-4.57115e-07
1.00332e-08
-4.6121e-07
9.56301e-09
-4.65108e-07
9.10385e-09
-4.68814e-07
8.65539e-09
-4.72331e-07
8.21723e-09
-4.75665e-07
7.78887e-09
-4.78818e-07
7.36978e-09
-4.81795e-07
6.95935e-09
-4.84598e-07
6.55691e-09
-4.87231e-07
6.16177e-09
-4.89697e-07
5.77315e-09
-4.91997e-07
5.39025e-09
-4.94135e-07
5.01224e-09
-4.96111e-07
4.63822e-09
-4.97926e-07
4.2673e-09
-4.99583e-07
3.89853e-09
-5.0108e-07
3.53093e-09
-5.02419e-07
3.16353e-09
-5.03599e-07
2.79531e-09
-5.04619e-07
2.42524e-09
-5.05477e-07
2.05229e-09
-5.06173e-07
1.6754e-09
-5.06704e-07
1.29352e-09
-5.07068e-07
9.0559e-10
-5.07261e-07
5.10553e-10
-5.0728e-07
1.07357e-10
-5.07121e-07
-3.05043e-10
-5.06781e-07
-7.27675e-10
-5.06253e-07
-1.16155e-09
-5.05534e-07
-1.60765e-09
-5.04617e-07
-2.06694e-09
-5.03497e-07
-2.54033e-09
-5.02168e-07
-3.02872e-09
-5.00622e-07
-3.53292e-09
-4.98853e-07
-4.05373e-09
-4.96853e-07
-4.59184e-09
-4.94616e-07
-5.14792e-09
-4.92133e-07
-5.72252e-09
-4.89397e-07
-6.31611e-09
-4.86399e-07
-6.92908e-09
-4.83132e-07
-7.5617e-09
-4.79587e-07
-8.21413e-09
-4.75755e-07
-8.88639e-09
-4.7163e-07
-9.57836e-09
-4.67202e-07
-1.02898e-08
-4.62464e-07
-1.10202e-08
-4.57409e-07
-1.17691e-08
-4.52028e-07
-1.25357e-08
-4.46317e-07
-1.33189e-08
-4.40267e-07
-1.41176e-08
-4.33874e-07
-1.49304e-08
-4.27132e-07
-1.57556e-08
-4.20037e-07
-1.65914e-08
-4.12587e-07
-1.74356e-08
-4.04778e-07
-1.82858e-08
-3.9661e-07
-1.91394e-08
-3.88083e-07
-1.99934e-08
-3.79198e-07
-2.08446e-08
-3.69959e-07
-2.16895e-08
-3.6037e-07
-2.25244e-08
-3.50436e-07
-2.3345e-08
-3.40167e-07
-2.4147e-08
-3.29573e-07
-2.49258e-08
-3.18665e-07
-2.56764e-08
-3.07458e-07
-2.63935e-08
-2.95968e-07
-2.70717e-08
-2.84216e-07
-2.77053e-08
-2.72221e-07
-2.82882e-08
-2.60008e-07
-2.88144e-08
-2.47605e-07
-2.92773e-08
-2.35039e-07
-2.96706e-08
-2.22344e-07
-2.99874e-08
-2.09555e-07
-3.02212e-08
-1.96708e-07
-3.0365e-08
-1.83845e-07
-3.04121e-08
-1.71009e-07
-3.03556e-08
-1.58245e-07
-3.01889e-08
-1.45602e-07
-2.99056e-08
-1.33131e-07
-2.94992e-08
-1.20886e-07
-2.89639e-08
-1.08921e-07
-2.82941e-08
-9.72947e-08
-2.74849e-08
-8.60647e-08
-2.65318e-08
-7.52912e-08
-2.54317e-08
-6.50346e-08
-2.4182e-08
-5.53552e-08
-2.27819e-08
-4.63125e-08
-2.12323e-08
-3.79641e-08
-1.95364e-08
-3.03643e-08
-1.77005e-08
-2.35623e-08
-1.57348e-08
-1.76007e-08
-1.36548e-08
-1.25117e-08
-1.14833e-08
-8.31453e-09
-9.25273e-09
-5.01014e-09
-7.0089e-09
-2.57599e-09
-4.81582e-09
-9.5879e-10
-2.76249e-09
-6.614e-11
-9.71867e-10
2.42859e-10
3.89294e-10
1.68959e-10
1.09818e-09
8.39637e-10
3.77304e-11
-8.06973e-10
-1.7421e-10
-8.40375e-10
-8.70576e-10
2.2205e-10
-2.22143e-09
2.03864e-09
-4.34853e-09
4.36336e-09
-7.33341e-09
7.00695e-09
-1.1224e-08
9.82545e-09
-1.60409e-08
1.27112e-08
-2.17825e-08
1.55845e-08
-2.84301e-08
1.83869e-08
-3.59514e-08
2.1076e-08
-4.43043e-08
2.36216e-08
-5.34391e-08
2.6003e-08
-6.33009e-08
2.82067e-08
-7.38315e-08
3.02243e-08
-8.49706e-08
3.20521e-08
-9.66569e-08
3.36892e-08
-1.08829e-07
3.51374e-08
-1.21428e-07
3.64006e-08
-1.34393e-07
3.74838e-08
-1.47667e-07
3.83935e-08
-1.61194e-07
3.91369e-08
-1.74923e-07
3.97218e-08
-1.88803e-07
4.01564e-08
-2.02785e-07
4.04495e-08
-2.16825e-07
4.06096e-08
-2.3088e-07
4.06457e-08
-2.44912e-07
4.05665e-08
-2.58885e-07
4.03808e-08
-2.72763e-07
4.0097e-08
-2.86518e-07
3.97236e-08
-3.0012e-07
3.92687e-08
-3.13544e-07
3.87401e-08
-3.26767e-07
3.81454e-08
-3.39769e-07
3.74917e-08
-3.52532e-07
3.67861e-08
-3.65039e-07
3.6035e-08
-3.77276e-07
3.52446e-08
-3.89233e-07
3.44209e-08
-4.00898e-07
3.35692e-08
-4.12264e-07
3.26946e-08
-4.23324e-07
3.1802e-08
-4.34073e-07
3.08958e-08
-4.44507e-07
2.99799e-08
-4.54624e-07
2.90582e-08
-4.64423e-07
2.8134e-08
-4.73904e-07
2.72104e-08
-4.83067e-07
2.62902e-08
-4.91914e-07
2.53759e-08
-5.00447e-07
2.44697e-08
-5.08671e-07
2.35735e-08
-5.16588e-07
2.2689e-08
-5.24203e-07
2.18177e-08
-5.31521e-07
2.09607e-08
-5.38546e-07
2.0119e-08
-5.45283e-07
1.92933e-08
-5.5174e-07
1.84844e-08
-5.5792e-07
1.76925e-08
-5.6383e-07
1.69179e-08
-5.69476e-07
1.61606e-08
-5.74864e-07
1.54205e-08
-5.79998e-07
1.46974e-08
-5.84885e-07
1.3991e-08
-5.8953e-07
1.33007e-08
-5.93939e-07
1.26259e-08
-5.98116e-07
1.19658e-08
-6.02066e-07
1.13198e-08
-6.05794e-07
1.06868e-08
-6.09303e-07
1.00659e-08
-6.12597e-07
9.45603e-09
-6.1568e-07
8.85597e-09
-6.18554e-07
8.26454e-09
-6.21222e-07
7.68047e-09
-6.23686e-07
7.10242e-09
-6.25948e-07
6.52901e-09
-6.28008e-07
5.95882e-09
-6.29868e-07
5.39039e-09
-6.31526e-07
4.82221e-09
-6.32984e-07
4.25275e-09
-6.34239e-07
3.68045e-09
-6.35291e-07
3.10375e-09
-6.36136e-07
2.52105e-09
-6.36773e-07
1.93075e-09
-6.37199e-07
1.33126e-09
-6.3741e-07
7.20965e-10
-6.374e-07
9.8288e-11
-6.37167e-07
-5.38352e-10
-6.36704e-07
-1.19051e-09
-6.36006e-07
-1.8597e-09
-6.35066e-07
-2.54742e-09
-6.33878e-07
-3.25511e-09
-6.32434e-07
-3.98414e-09
-6.30727e-07
-4.73585e-09
-6.28749e-07
-5.51148e-09
-6.2649e-07
-6.31219e-09
-6.23943e-07
-7.13904e-09
-6.21098e-07
-7.993e-09
-6.17946e-07
-8.87489e-09
-6.14476e-07
-9.78541e-09
-6.1068e-07
-1.07251e-08
-6.06548e-07
-1.16944e-08
-6.02068e-07
-1.26935e-08
-5.97232e-07
-1.37223e-08
-5.9203e-07
-1.47807e-08
-5.86451e-07
-1.58683e-08
-5.80487e-07
-1.69844e-08
-5.74128e-07
-1.8128e-08
-5.67366e-07
-1.9298e-08
-5.60192e-07
-2.04927e-08
-5.526e-07
-2.17104e-08
-5.44581e-07
-2.29489e-08
-5.36131e-07
-2.42057e-08
-5.27244e-07
-2.5478e-08
-5.17917e-07
-2.67623e-08
-5.08148e-07
-2.80552e-08
-4.97935e-07
-2.93524e-08
-4.87279e-07
-3.06497e-08
-4.76181e-07
-3.1942e-08
-4.64647e-07
-3.32239e-08
-4.52681e-07
-3.44899e-08
-4.40293e-07
-3.57335e-08
-4.27492e-07
-3.69483e-08
-4.1429e-07
-3.81271e-08
-4.00704e-07
-3.92624e-08
-3.86751e-07
-4.03464e-08
-3.72452e-07
-4.13707e-08
-3.57831e-07
-4.23268e-08
-3.42914e-07
-4.32055e-08
-3.2773e-07
-4.39977e-08
-3.12314e-07
-4.46938e-08
-2.96701e-07
-4.52839e-08
-2.8093e-07
-4.57581e-08
-2.65045e-07
-4.61064e-08
-2.49091e-07
-4.63186e-08
-2.33119e-07
-4.63845e-08
-2.1718e-07
-4.62941e-08
-2.01331e-07
-4.60377e-08
-1.85631e-07
-4.56056e-08
-1.70142e-07
-4.49887e-08
-1.54927e-07
-4.41784e-08
-1.40055e-07
-4.31668e-08
-1.25592e-07
-4.19471e-08
-1.11611e-07
-4.05132e-08
-9.8182e-08
-3.88608e-08
-8.53768e-08
-3.69872e-08
-7.32667e-08
-3.4892e-08
-6.19213e-08
-3.25777e-08
-5.14078e-08
-3.005e-08
-4.17886e-08
-2.73197e-08
-3.31203e-08
-2.44031e-08
-2.54506e-08
-2.13244e-08
-1.88161e-08
-1.81179e-08
-1.32377e-08
-1.48311e-08
-8.71736e-09
-1.15292e-08
-5.23233e-09
-8.30087e-09
-2.72935e-09
-5.26549e-09
-1.11794e-09
-2.58328e-09
-2.63142e-10
-4.65525e-10
2.32427e-11
8.11793e-10
8.62874e-10
-1.1061e-10
-6.96367e-10
-6.93995e-10
-2.56984e-10
-1.94597e-09
1.47403e-09
-4.01433e-09
4.107e-09
-7.00686e-09
7.35589e-09
-1.09963e-08
1.09964e-08
-1.60252e-08
1.48543e-08
-2.21101e-08
1.87961e-08
-2.92464e-08
2.27208e-08
-3.7412e-08
2.65525e-08
-4.65709e-08
3.02349e-08
-5.66764e-08
3.3727e-08
-6.76734e-08
3.7e-08
-7.9501e-08
4.00343e-08
-9.20941e-08
4.28175e-08
-1.05385e-07
4.53431e-08
-1.19305e-07
4.76092e-08
-1.33785e-07
4.96171e-08
-1.48755e-07
5.13712e-08
-1.6415e-07
5.2878e-08
-1.79901e-07
5.41454e-08
-1.95947e-07
5.5183e-08
-2.12227e-07
5.6001e-08
-2.28681e-07
5.66106e-08
-2.45255e-07
5.70233e-08
-2.61896e-07
5.72509e-08
-2.78556e-07
5.73054e-08
-2.95188e-07
5.71988e-08
-3.1175e-07
5.69432e-08
-3.28203e-07
5.65502e-08
-3.44511e-07
5.60314e-08
-3.60641e-07
5.5398e-08
-3.76561e-07
5.4661e-08
-3.92247e-07
5.38307e-08
-4.07672e-07
5.29173e-08
-4.22817e-07
5.19304e-08
-4.37661e-07
5.0879e-08
-4.52188e-07
4.9772e-08
-4.66385e-07
4.86173e-08
-4.80238e-07
4.74228e-08
-4.93739e-07
4.61955e-08
-5.06879e-07
4.49421e-08
-5.19652e-07
4.36689e-08
-5.32054e-07
4.23816e-08
-5.44081e-07
4.10854e-08
-5.55732e-07
3.9785e-08
-5.67007e-07
3.8485e-08
-5.77906e-07
3.71891e-08
-5.88431e-07
3.59009e-08
-5.98585e-07
3.46236e-08
-6.08371e-07
3.33598e-08
-6.17794e-07
3.21119e-08
-6.26858e-07
3.08821e-08
-6.35569e-07
2.96719e-08
-6.43933e-07
2.84828e-08
-6.51956e-07
2.7316e-08
-6.59644e-07
2.61722e-08
-6.67003e-07
2.5052e-08
-6.74041e-07
2.39558e-08
-6.80764e-07
2.28836e-08
-6.87179e-07
2.18353e-08
-6.93292e-07
2.08107e-08
-6.9911e-07
1.98092e-08
-7.0464e-07
1.88301e-08
-7.09886e-07
1.78726e-08
-7.14856e-07
1.69357e-08
-7.19555e-07
1.60183e-08
-7.23987e-07
1.51191e-08
-7.28158e-07
1.42366e-08
-7.32071e-07
1.33695e-08
-7.35731e-07
1.25161e-08
-7.39142e-07
1.16748e-08
-7.42305e-07
1.08436e-08
-7.45223e-07
1.00209e-08
-7.47899e-07
9.20455e-09
-7.50333e-07
8.39269e-09
-7.52526e-07
7.58324e-09
-7.54477e-07
6.7741e-09
-7.56188e-07
5.96313e-09
-7.57656e-07
5.14817e-09
-7.58879e-07
4.32701e-09
-7.59855e-07
3.49742e-09
-7.60582e-07
2.65719e-09
-7.61054e-07
1.80407e-09
-7.61269e-07
9.3584e-10
-7.61221e-07
5.0277e-11
-7.60905e-07
-8.54813e-10
-7.60314e-07
-1.78159e-09
-7.59441e-07
-2.73218e-09
-7.5828e-07
-3.70865e-09
-7.56822e-07
-4.71299e-09
-7.55059e-07
-5.74713e-09
-7.52982e-07
-6.8129e-09
-7.50582e-07
-7.91202e-09
-7.47848e-07
-9.04609e-09
-7.4477e-07
-1.02166e-08
-7.41338e-07
-1.14248e-08
-7.37541e-07
-1.26719e-08
-7.33368e-07
-1.39588e-08
-7.28807e-07
-1.52863e-08
-7.23846e-07
-1.66548e-08
-7.18475e-07
-1.80647e-08
-7.12681e-07
-1.95159e-08
-7.06454e-07
-2.1008e-08
-6.99782e-07
-2.25405e-08
-6.92654e-07
-2.41124e-08
-6.8506e-07
-2.57223e-08
-6.76989e-07
-2.73684e-08
-6.68433e-07
-2.90487e-08
-6.59383e-07
-3.07604e-08
-6.49832e-07
-3.25006e-08
-6.39772e-07
-3.42657e-08
-6.29198e-07
-3.60516e-08
-6.18107e-07
-3.78537e-08
-6.06495e-07
-3.9667e-08
-5.94362e-07
-4.14856e-08
-5.81708e-07
-4.33033e-08
-5.68537e-07
-4.51132e-08
-5.54853e-07
-4.69079e-08
-5.40663e-07
-4.86793e-08
-5.25978e-07
-5.04188e-08
-5.10809e-07
-5.21169e-08
-4.95173e-07
-5.3764e-08
-4.79086e-07
-5.53495e-08
-4.6257e-07
-5.68624e-08
-4.45649e-07
-5.82913e-08
-4.28352e-07
-5.9624e-08
-4.10709e-07
-6.08482e-08
-3.92756e-07
-6.19509e-08
-3.74531e-07
-6.29189e-08
-3.56076e-07
-6.37386e-08
-3.37438e-07
-6.43963e-08
-3.18666e-07
-6.48782e-08
-2.99815e-07
-6.51701e-08
-2.80941e-07
-6.52583e-08
-2.62106e-07
-6.51291e-08
-2.43374e-07
-6.47691e-08
-2.24815e-07
-6.41653e-08
-2.06498e-07
-6.33054e-08
-1.88498e-07
-6.21781e-08
-1.70892e-07
-6.07728e-08
-1.53759e-07
-5.90805e-08
-1.37178e-07
-5.7094e-08
-1.21231e-07
-5.48078e-08
-1.05999e-07
-5.22192e-08
-9.15622e-08
-4.93288e-08
-7.7999e-08
-4.61408e-08
-6.53842e-08
-4.26648e-08
-5.37874e-08
-3.89165e-08
-4.32713e-08
-3.49193e-08
-3.38886e-08
-3.0707e-08
-2.56801e-08
-2.63264e-08
-1.86706e-08
-2.18406e-08
-1.28651e-08
-1.73347e-08
-8.24518e-09
-1.29208e-08
-4.76358e-09
-8.7471e-09
-2.3397e-09
-5.00718e-09
-8.54578e-10
-1.95066e-09
-1.4584e-10
1.03055e-10
7.17034e-10
-2.68844e-10
-4.27525e-10
-1.25591e-09
7.30097e-10
-3.1119e-09
3.33002e-09
-5.95507e-09
6.95017e-09
-9.87283e-09
1.12737e-08
-1.49238e-08
1.60474e-08
-2.11405e-08
2.10709e-08
-2.85323e-08
2.6188e-08
-3.7089e-08
3.12775e-08
-4.67834e-08
3.6247e-08
-5.7575e-08
4.10265e-08
-6.94121e-08
4.55642e-08
-8.22346e-08
4.98225e-08
-9.59761e-08
5.37757e-08
-1.10565e-07
5.74068e-08
-1.25929e-07
6.07063e-08
-1.4199e-07
6.36706e-08
-1.58673e-07
6.63006e-08
-1.75903e-07
6.86009e-08
-1.93604e-07
7.05792e-08
-2.11704e-07
7.22452e-08
-2.30132e-07
7.36106e-08
-2.48819e-07
7.46884e-08
-2.67701e-07
7.54927e-08
-2.86716e-07
7.6038e-08
-3.05805e-07
7.63397e-08
-3.24913e-07
7.64132e-08
-3.43988e-07
7.6274e-08
-3.62982e-07
7.59377e-08
-3.81852e-07
7.54196e-08
-4.00555e-07
7.47348e-08
-4.19055e-07
7.38979e-08
-4.37317e-07
7.29232e-08
-4.55311e-07
7.18245e-08
-4.73009e-07
7.0615e-08
-4.90386e-07
6.93074e-08
-5.0742e-07
6.79137e-08
-5.24094e-07
6.64454e-08
-5.4039e-07
6.49132e-08
-5.56294e-07
6.33274e-08
-5.71796e-07
6.16974e-08
-5.86886e-07
6.0032e-08
-6.01557e-07
5.83396e-08
-6.15803e-07
5.66277e-08
-6.29621e-07
5.49033e-08
-6.43008e-07
5.31727e-08
-6.55965e-07
5.14418e-08
-6.68492e-07
4.97158e-08
-6.8059e-07
4.79994e-08
-6.92264e-07
4.62967e-08
-7.03515e-07
4.46115e-08
-7.1435e-07
4.2947e-08
-7.24774e-07
4.13058e-08
-7.34793e-07
3.96903e-08
-7.44412e-07
3.81023e-08
-7.53639e-07
3.65434e-08
-7.62482e-07
3.50147e-08
-7.70947e-07
3.3517e-08
-7.79042e-07
3.20507e-08
-7.86774e-07
3.0616e-08
-7.94152e-07
2.92128e-08
-8.01182e-07
2.78407e-08
-8.07872e-07
2.64991e-08
-8.14228e-07
2.51869e-08
-8.20259e-07
2.39033e-08
-8.2597e-07
2.26467e-08
-8.31368e-07
2.14158e-08
-8.36458e-07
2.0209e-08
-8.41245e-07
1.90242e-08
-8.45735e-07
1.78597e-08
-8.49932e-07
1.67132e-08
-8.5384e-07
1.55826e-08
-8.57462e-07
1.44655e-08
-8.60801e-07
1.33594e-08
-8.63858e-07
1.22618e-08
-8.66635e-07
1.117e-08
-8.69133e-07
1.00814e-08
-8.71352e-07
8.99312e-09
-8.73292e-07
7.90242e-09
-8.7495e-07
6.80639e-09
-8.76325e-07
5.70214e-09
-8.77414e-07
4.58673e-09
-8.78214e-07
3.45721e-09
-8.78721e-07
2.31063e-09
-8.78929e-07
1.14406e-09
-8.78833e-07
-4.54363e-11
-8.78427e-07
-1.26075e-09
-8.77704e-07
-2.50472e-09
-8.76656e-07
-3.78015e-09
-8.75275e-07
-5.08975e-09
-8.73552e-07
-6.43615e-09
-8.71477e-07
-7.82187e-09
-8.69041e-07
-9.24932e-09
-8.66232e-07
-1.07207e-08
-8.6304e-07
-1.22382e-08
-8.59453e-07
-1.38037e-08
-8.55459e-07
-1.54189e-08
-8.51045e-07
-1.70852e-08
-8.462e-07
-1.8804e-08
-8.40911e-07
-2.0576e-08
-8.35163e-07
-2.24021e-08
-8.28946e-07
-2.42824e-08
-8.22245e-07
-2.62169e-08
-8.15047e-07
-2.82051e-08
-8.07342e-07
-3.02462e-08
-7.99115e-07
-3.23388e-08
-7.90356e-07
-3.44812e-08
-7.81054e-07
-3.66708e-08
-7.71198e-07
-3.89049e-08
-7.60778e-07
-4.11799e-08
-7.49787e-07
-4.34918e-08
-7.38217e-07
-4.58359e-08
-7.26062e-07
-4.82066e-08
-7.13318e-07
-5.0598e-08
-6.99981e-07
-5.30032e-08
-6.86052e-07
-5.54146e-08
-6.71532e-07
-5.78239e-08
-6.56423e-07
-6.0222e-08
-6.40732e-07
-6.25991e-08
-6.24467e-07
-6.49444e-08
-6.07639e-07
-6.72465e-08
-5.90263e-07
-6.94932e-08
-5.72355e-07
-7.16714e-08
-5.53937e-07
-7.37675e-08
-5.35033e-07
-7.57668e-08
-5.1567e-07
-7.76543e-08
-4.9588e-07
-7.94142e-08
-4.75698e-07
-8.103e-08
-4.55164e-07
-8.24849e-08
-4.34321e-07
-8.37614e-08
-4.13218e-07
-8.4842e-08
-3.91906e-07
-8.57085e-08
-3.70441e-07
-8.6343e-08
-3.48884e-07
-8.67272e-08
-3.27299e-07
-8.6843e-08
-3.05755e-07
-8.66729e-08
-2.84325e-07
-8.61995e-08
-2.63084e-07
-8.54062e-08
-2.42112e-07
-8.42773e-08
-2.21492e-07
-8.27984e-08
-2.01308e-07
-8.09563e-08
-1.81649e-07
-7.874e-08
-1.62602e-07
-7.61406e-08
-1.44258e-07
-7.31521e-08
-1.26705e-07
-6.97719e-08
-1.10032e-07
-6.60016e-08
-9.43248e-08
-6.18483e-08
-7.96645e-08
-5.73251e-08
-6.61275e-08
-5.24535e-08
-5.3782e-08
-4.72648e-08
-4.26864e-08
-4.18026e-08
-3.28866e-08
-3.61262e-08
-2.44126e-08
-3.03146e-08
-1.72759e-08
-2.44713e-08
-1.14658e-08
-1.87309e-08
-6.94606e-09
-1.32668e-08
-3.652e-09
-8.30123e-09
-1.48765e-09
-4.11501e-09
-3.24308e-10
-1.0603e-09
3.92724e-10
-4.29712e-10
2.18521e-12
-1.83511e-09
2.1355e-09
-4.32076e-09
5.81567e-09
-7.97175e-09
1.06012e-08
-1.28511e-08
1.6153e-08
-1.89993e-08
2.21956e-08
-2.64355e-08
2.85072e-08
-3.5159e-08
3.49114e-08
-4.51514e-08
4.12699e-08
-5.63792e-08
4.74747e-08
-6.87957e-08
5.3443e-08
-8.2344e-08
5.91125e-08
-9.69586e-08
6.44371e-08
-1.12568e-07
6.93847e-08
-1.29095e-07
7.39336e-08
-1.46459e-07
7.80712e-08
-1.64581e-07
8.17919e-08
-1.83376e-07
8.5096e-08
-2.02764e-07
8.79884e-08
-2.22662e-07
9.04778e-08
-2.42993e-07
9.25756e-08
-2.63678e-07
9.42959e-08
-2.84644e-07
9.56544e-08
-3.05819e-07
9.6668e-08
-3.27136e-07
9.73551e-08
-3.48531e-07
9.77342e-08
-3.69942e-07
9.78245e-08
-3.91314e-07
9.76455e-08
-4.12592e-07
9.72165e-08
-4.33729e-07
9.65566e-08
-4.54679e-07
9.56848e-08
-4.75401e-07
9.46195e-08
-4.95857e-07
9.33787e-08
-5.16012e-07
9.19798e-08
-5.35836e-07
9.04394e-08
-5.55303e-07
8.87735e-08
-5.74386e-07
8.69975e-08
-5.93067e-07
8.51258e-08
-6.11326e-07
8.31721e-08
-6.29148e-07
8.11493e-08
-6.4652e-07
7.90695e-08
-6.63432e-07
7.6944e-08
-6.79875e-07
7.47832e-08
-6.95845e-07
7.25969e-08
-7.11335e-07
7.03939e-08
-7.26345e-07
6.81823e-08
-7.40873e-07
6.59696e-08
-7.54919e-07