/*--------------------------------*- C++ -*----------------------------------*\
  =========                 |
  \\      /  F ield         | OpenFOAM: The Open Source CFD Toolbox
   \\    /   O peration     | Website:  https://openfoam.org
    \\  /    A nd           | Version:  7
     \\/     M anipulation  |
\*---------------------------------------------------------------------------*/
FoamFile
{
    version     2.0;
    format      ascii;
    class       volVectorField;
    location    "0.2125";
    object      U;
}
// * * * * * * * * * * * * * * * * * * * * * * * * * * * * * * * * * * * * * //

dimensions      [0 1 -1 0 0 0 0];

internalField   nonuniform List<vector> 
12800
(
(8.31324e-06 -8.33388e-06 0)
(3.70691e-05 -1.85411e-05 0)
(7.85243e-05 -1.97121e-05 0)
(0.000113239 -1.53532e-05 0)
(0.00012998 -8.31091e-06 0)
(0.000123865 -1.38325e-07 0)
(9.27504e-05 8.34413e-06 0)
(3.60227e-05 1.6696e-05 0)
(-4.59619e-05 2.46844e-05 0)
(-0.000152256 3.21901e-05 0)
(-0.00028156 3.91538e-05 0)
(-0.000432368 4.55505e-05 0)
(-0.000603056 5.13747e-05 0)
(-0.000791949 5.66329e-05 0)
(-0.000997355 6.13392e-05 0)
(-0.0012176 6.55123e-05 0)
(-0.00145104 6.91738e-05 0)
(-0.00169607 7.23473e-05 0)
(-0.00195118 7.50576e-05 0)
(-0.00221488 7.73299e-05 0)
(-0.00248578 7.919e-05 0)
(-0.00276256 8.06633e-05 0)
(-0.00304396 8.1775e-05 0)
(-0.0033288 8.25501e-05 0)
(-0.003616 8.30129e-05 0)
(-0.00390453 8.31871e-05 0)
(-0.00419344 8.30959e-05 0)
(-0.00448186 8.27615e-05 0)
(-0.00476898 8.22054e-05 0)
(-0.00505406 8.1448e-05 0)
(-0.00533645 8.05092e-05 0)
(-0.00561553 7.94076e-05 0)
(-0.00589077 7.81612e-05 0)
(-0.00616167 7.67868e-05 0)
(-0.00642782 7.53005e-05 0)
(-0.00668882 7.37173e-05 0)
(-0.00694436 7.20512e-05 0)
(-0.00719416 7.03155e-05 0)
(-0.00743797 6.85224e-05 0)
(-0.00767561 6.66834e-05 0)
(-0.00790692 6.4809e-05 0)
(-0.00813178 6.29091e-05 0)
(-0.00835009 6.09923e-05 0)
(-0.0085618 5.9067e-05 0)
(-0.00876688 5.71405e-05 0)
(-0.00896532 5.52194e-05 0)
(-0.00915713 5.33098e-05 0)
(-0.00934235 5.14169e-05 0)
(-0.00952103 4.95455e-05 0)
(-0.00969325 4.76996e-05 0)
(-0.00985908 4.58829e-05 0)
(-0.0100186 4.40983e-05 0)
(-0.010172 4.23483e-05 0)
(-0.0103193 4.06349e-05 0)
(-0.0104606 3.89599e-05 0)
(-0.0105962 3.73243e-05 0)
(-0.010726 3.57289e-05 0)
(-0.0108503 3.41742e-05 0)
(-0.0109691 3.26602e-05 0)
(-0.0110827 3.11867e-05 0)
(-0.0111911 2.97532e-05 0)
(-0.0112945 2.83588e-05 0)
(-0.0113929 2.70025e-05 0)
(-0.0114867 2.56831e-05 0)
(-0.0115757 2.43988e-05 0)
(-0.0116602 2.31481e-05 0)
(-0.0117403 2.19291e-05 0)
(-0.0118161 2.07396e-05 0)
(-0.0118877 1.95773e-05 0)
(-0.0119551 1.84398e-05 0)
(-0.0120184 1.73245e-05 0)
(-0.0120778 1.62288e-05 0)
(-0.0121332 1.51502e-05 0)
(-0.0121847 1.40855e-05 0)
(-0.0122324 1.30318e-05 0)
(-0.0122763 1.19857e-05 0)
(-0.0123164 1.09443e-05 0)
(-0.0123527 9.90412e-06 0)
(-0.0123853 8.86208e-06 0)
(-0.012414 7.81478e-06 0)
(-0.012439 6.75877e-06 0)
(-0.01246 5.69053e-06 0)
(-0.0124772 4.6066e-06 0)
(-0.0124904 3.50351e-06 0)
(-0.0124996 2.37778e-06 0)
(-0.0125046 1.2259e-06 0)
(-0.0125055 4.42899e-08 0)
(-0.012502 -1.17057e-06 0)
(-0.0124941 -2.42212e-06 0)
(-0.0124815 -3.71368e-06 0)
(-0.0124643 -5.04848e-06 0)
(-0.0124422 -6.42973e-06 0)
(-0.0124151 -7.86055e-06 0)
(-0.0123827 -9.34396e-06 0)
(-0.012345 -1.08828e-05 0)
(-0.0123017 -1.24797e-05 0)
(-0.0122526 -1.41371e-05 0)
(-0.0121975 -1.58571e-05 0)
(-0.0121362 -1.76419e-05 0)
(-0.0120685 -1.94929e-05 0)
(-0.0119941 -2.14116e-05 0)
(-0.0119129 -2.33991e-05 0)
(-0.0118245 -2.54557e-05 0)
(-0.0117289 -2.75818e-05 0)
(-0.0116256 -2.9777e-05 0)
(-0.0115146 -3.20405e-05 0)
(-0.0113955 -3.4371e-05 0)
(-0.0112683 -3.67666e-05 0)
(-0.0111325 -3.92246e-05 0)
(-0.0109882 -4.17418e-05 0)
(-0.0108351 -4.43142e-05 0)
(-0.0106729 -4.6937e-05 0)
(-0.0105017 -4.96048e-05 0)
(-0.0103212 -5.23112e-05 0)
(-0.0101313 -5.50489e-05 0)
(-0.00993199 -5.78097e-05 0)
(-0.00972321 -6.05845e-05 0)
(-0.00950494 -6.33632e-05 0)
(-0.0092772 -6.61347e-05 0)
(-0.00904006 -6.88868e-05 0)
(-0.00879363 -7.16064e-05 0)
(-0.00853806 -7.42793e-05 0)
(-0.00827356 -7.68902e-05 0)
(-0.00800038 -7.94229e-05 0)
(-0.00771886 -8.18599e-05 0)
(-0.00742935 -8.4183e-05 0)
(-0.00713231 -8.63728e-05 0)
(-0.00682824 -8.84089e-05 0)
(-0.00651773 -9.02703e-05 0)
(-0.00620141 -9.19349e-05 0)
(-0.00588001 -9.33799e-05 0)
(-0.00555434 -9.45818e-05 0)
(-0.00522528 -9.55163e-05 0)
(-0.00489378 -9.61588e-05 0)
(-0.00456089 -9.64841e-05 0)
(-0.00422773 -9.64664e-05 0)
(-0.0038955 -9.608e-05 0)
(-0.00356551 -9.5299e-05 0)
(-0.00323911 -9.40972e-05 0)
(-0.00291776 -9.24487e-05 0)
(-0.00260299 -9.03276e-05 0)
(-0.00229641 -8.77084e-05 0)
(-0.00199968 -8.45665e-05 0)
(-0.00171456 -8.08776e-05 0)
(-0.00144285 -7.66188e-05 0)
(-0.00118639 -7.17683e-05 0)
(-0.000947089 -6.6307e-05 0)
(-0.000726861 -6.02185e-05 0)
(-0.000527625 -5.34916e-05 0)
(-0.000351276 -4.61223e-05 0)
(-0.000199638 -3.81187e-05 0)
(-7.44001e-05 -2.95091e-05 0)
(2.29791e-05 -2.0357e-05 0)
(9.14264e-05 -1.07911e-05 0)
(0.000130512 -1.06181e-06 0)
(0.000140869 8.35153e-06 0)
(0.000124811 1.65454e-05 0)
(8.77033e-05 2.17874e-05 0)
(4.20392e-05 2.08571e-05 0)
(9.63396e-06 9.62959e-06 0)
(1.85447e-05 -3.71006e-05 0)
(7.03402e-05 -7.03013e-05 0)
(0.000132039 -6.77543e-05 0)
(0.000170139 -4.20849e-05 0)
(0.000163361 -3.15099e-06 0)
(0.000100274 4.27162e-05 0)
(-2.53875e-05 9.1549e-05 0)
(-0.00021636 0.000140865 0)
(-0.000472854 0.000189119 0)
(-0.000793366 0.00023535 0)
(-0.00117525 0.000278967 0)
(-0.00161512 0.000319615 0)
(-0.0021091 0.000357098 0)
(-0.00265303 0.000391325 0)
(-0.00324262 0.00042228 0)
(-0.0038735 0.000449998 0)
(-0.00454134 0.000474549 0)
(-0.00524188 0.000496033 0)
(-0.00597097 0.000514564 0)
(-0.0067246 0.000530271 0)
(-0.00749894 0.000543293 0)
(-0.00829032 0.000553772 0)
(-0.00909526 0.000561856 0)
(-0.00991047 0.000567692 0)
(-0.0107329 0.00057143 0)
(-0.0115596 0.000573215 0)
(-0.012388 0.000573192 0)
(-0.0132154 0.000571503 0)
(-0.0140397 0.000568286 0)
(-0.0148588 0.000563674 0)
(-0.0156706 0.000557795 0)
(-0.0164735 0.000550774 0)
(-0.0172659 0.000542728 0)
(-0.0180463 0.000533771 0)
(-0.0188136 0.000524009 0)
(-0.0195665 0.000513545 0)
(-0.0203042 0.000502473 0)
(-0.0210258 0.000490884 0)
(-0.0217306 0.000478862 0)
(-0.0224179 0.000466485 0)
(-0.0230874 0.000453826 0)
(-0.0237386 0.000440953 0)
(-0.0243712 0.000427928 0)
(-0.024985 0.000414807 0)
(-0.02558 0.000401643 0)
(-0.026156 0.000388483 0)
(-0.0267131 0.00037537 0)
(-0.0272513 0.00036234 0)
(-0.0277708 0.000349429 0)
(-0.0282717 0.000336666 0)
(-0.0287543 0.000324077 0)
(-0.0292188 0.000311683 0)
(-0.0296654 0.000299504 0)
(-0.0300946 0.000287556 0)
(-0.0305066 0.00027585 0)
(-0.0309017 0.000264396 0)
(-0.0312803 0.0002532 0)
(-0.0316428 0.000242268 0)
(-0.0319896 0.0002316 0)
(-0.0323209 0.000221196 0)
(-0.0326373 0.000211053 0)
(-0.032939 0.000201168 0)
(-0.0332263 0.000191533 0)
(-0.0334998 0.00018214 0)
(-0.0337596 0.00017298 0)
(-0.0340062 0.000164041 0)
(-0.0342397 0.000155312 0)
(-0.0344606 0.000146778 0)
(-0.034669 0.000138424 0)
(-0.0348653 0.000130234 0)
(-0.0350495 0.000122192 0)
(-0.035222 0.000114279 0)
(-0.0353829 0.000106477 0)
(-0.0355323 9.87661e-05 0)
(-0.0356704 9.11264e-05 0)
(-0.0357972 8.35366e-05 0)
(-0.0359128 7.59752e-05 0)
(-0.0360172 6.84202e-05 0)
(-0.0361104 6.08495e-05 0)
(-0.0361923 5.32404e-05 0)
(-0.036263 4.557e-05 0)
(-0.0363222 3.78149e-05 0)
(-0.0363699 2.99516e-05 0)
(-0.0364059 2.19566e-05 0)
(-0.0364299 1.38062e-05 0)
(-0.0364418 5.4769e-06 0)
(-0.0364412 -3.05464e-06 0)
(-0.0364278 -1.18116e-05 0)
(-0.0364014 -2.08167e-05 0)
(-0.0363614 -3.00922e-05 0)
(-0.0363077 -3.96599e-05 0)
(-0.0362396 -4.95406e-05 0)
(-0.0361568 -5.97547e-05 0)
(-0.0360587 -7.03213e-05 0)
(-0.0359449 -8.12588e-05 0)
(-0.0358147 -9.25838e-05 0)
(-0.0356677 -0.000104312 0)
(-0.0355033 -0.000116457 0)
(-0.0353208 -0.00012903 0)
(-0.0351197 -0.000142042 0)
(-0.0348993 -0.000155499 0)
(-0.034659 -0.000169408 0)
(-0.0343982 -0.000183769 0)
(-0.0341161 -0.000198583 0)
(-0.0338123 -0.000213846 0)
(-0.033486 -0.00022955 0)
(-0.0331367 -0.000245684 0)
(-0.0327638 -0.000262232 0)
(-0.0323666 -0.000279175 0)
(-0.0319448 -0.00029649 0)
(-0.0314978 -0.000314145 0)
(-0.0310251 -0.000332109 0)
(-0.0305264 -0.00035034 0)
(-0.0300013 -0.000368795 0)
(-0.0294496 -0.000387421 0)
(-0.0288712 -0.000406161 0)
(-0.0282658 -0.000424953 0)
(-0.0276336 -0.000443726 0)
(-0.0269747 -0.000462403 0)
(-0.0262892 -0.000480903 0)
(-0.0255775 -0.000499134 0)
(-0.0248401 -0.000517 0)
(-0.0240777 -0.000534399 0)
(-0.023291 -0.000551219 0)
(-0.022481 -0.000567344 0)
(-0.0216487 -0.000582652 0)
(-0.0207955 -0.000597014 0)
(-0.0199228 -0.000610295 0)
(-0.0190324 -0.000622354 0)
(-0.018126 -0.000633047 0)
(-0.0172058 -0.000642224 0)
(-0.016274 -0.000649731 0)
(-0.0153332 -0.000655413 0)
(-0.0143861 -0.000659109 0)
(-0.0134357 -0.000660658 0)
(-0.012485 -0.0006599 0)
(-0.0115376 -0.000656671 0)
(-0.010597 -0.000650812 0)
(-0.00966713 -0.000642164 0)
(-0.00875192 -0.000630572 0)
(-0.00785566 -0.000615889 0)
(-0.00698277 -0.000597972 0)
(-0.00613785 -0.000576688 0)
(-0.00532565 -0.00055192 0)
(-0.00455105 -0.000523563 0)
(-0.003819 -0.000491538 0)
(-0.00313452 -0.000455792 0)
(-0.0025026 -0.000416313 0)
(-0.00192816 -0.000373145 0)
(-0.0014159 -0.000326407 0)
(-0.00097019 -0.000276333 0)
(-0.00059485 -0.000223321 0)
(-0.000292861 -0.000168027 0)
(-6.59422e-05 -0.000111504 0)
(8.60829e-05 -5.54469e-05 0)
(0.000166183 -2.58996e-06 0)
(0.000181243 4.26646e-05 0)
(0.00014393 7.32281e-05 0)
(7.79607e-05 7.79292e-05 0)
(2.08599e-05 4.20239e-05 0)
(1.98013e-05 -7.86271e-05 0)
(6.80976e-05 -0.000132084 0)
(0.000111187 -0.00011066 0)
(0.000110374 -3.9451e-05 0)
(4.04007e-05 6.29658e-05 0)
(-0.00011359 0.000183371 0)
(-0.000360494 0.000312619 0)
(-0.000704709 0.000444503 0)
(-0.00114718 0.000574844 0)
(-0.00168635 0.000700848 0)
(-0.00231887 0.000820668 0)
(-0.00304017 0.000933107 0)
(-0.00384481 0.00103743 0)
(-0.00472681 0.00113321 0)
(-0.00567986 0.00122027 0)
(-0.00669747 0.0012986 0)
(-0.00777312 0.00136829 0)
(-0.00890034 0.00142954 0)
(-0.0100728 0.00148261 0)
(-0.0112843 0.00152782 0)
(-0.0125288 0.00156551 0)
(-0.0138007 0.00159604 0)
(-0.0150946 0.00161981 0)
(-0.0164052 0.0016372 0)
(-0.0177278 0.00164862 0)
(-0.0190577 0.00165447 0)
(-0.0203906 0.00165514 0)
(-0.0217226 0.00165103 0)
(-0.0230501 0.00164251 0)
(-0.0243696 0.00162997 0)
(-0.0256781 0.00161376 0)
(-0.0269727 0.00159422 0)
(-0.028251 0.0015717 0)
(-0.0295105 0.00154652 0)
(-0.0307493 0.00151897 0)
(-0.0319655 0.00148936 0)
(-0.0331576 0.00145794 0)
(-0.0343242 0.00142499 0)
(-0.0354641 0.00139073 0)
(-0.0365763 0.00135541 0)
(-0.03766 0.00131922 0)
(-0.0387146 0.00128236 0)
(-0.0397395 0.00124502 0)
(-0.0407344 0.00120735 0)
(-0.0416991 0.00116952 0)
(-0.0426334 0.00113164 0)
(-0.0435373 0.00109386 0)
(-0.0444109 0.00105629 0)
(-0.0452545 0.00101901 0)
(-0.0460681 0.000982123 0)
(-0.0468522 0.000945701 0)
(-0.0476071 0.00090981 0)
(-0.0483332 0.000874506 0)
(-0.049031 0.000839836 0)
(-0.0497011 0.000805838 0)
(-0.0503438 0.000772539 0)
(-0.0509599 0.000739962 0)
(-0.0515498 0.00070812 0)
(-0.0521141 0.000677019 0)
(-0.0526535 0.000646659 0)
(-0.0531684 0.000617035 0)
(-0.0536594 0.000588134 0)
(-0.0541272 0.000559939 0)
(-0.0545723 0.000532429 0)
(-0.0549951 0.000505575 0)
(-0.0553962 0.000479348 0)
(-0.0557761 0.000453712 0)
(-0.0561352 0.000428627 0)
(-0.056474 0.000404054 0)
(-0.0567928 0.000379944 0)
(-0.0570919 0.000356252 0)
(-0.0573717 0.000332925 0)
(-0.0576325 0.00030991 0)
(-0.0578745 0.000287152 0)
(-0.0580977 0.000264592 0)
(-0.0583025 0.000242172 0)
(-0.0584888 0.00021983 0)
(-0.0586568 0.000197503 0)
(-0.0588063 0.000175128 0)
(-0.0589373 0.000152639 0)
(-0.0590497 0.000129972 0)
(-0.0591433 0.00010706 0)
(-0.0592179 8.3835e-05 0)
(-0.0592733 6.02312e-05 0)
(-0.059309 3.61809e-05 0)
(-0.0593248 1.16174e-05 0)
(-0.0593201 -1.35257e-05 0)
(-0.0592945 -3.93138e-05 0)
(-0.0592475 -6.58113e-05 0)
(-0.0591784 -9.30814e-05 0)
(-0.0590866 -0.000121185 0)
(-0.0589715 -0.000150182 0)
(-0.0588323 -0.000180128 0)
(-0.0586682 -0.000211078 0)
(-0.0584784 -0.000243082 0)
(-0.0582621 -0.000276187 0)
(-0.0580183 -0.000310434 0)
(-0.0577463 -0.000345863 0)
(-0.0574449 -0.000382504 0)
(-0.0571133 -0.000420383 0)
(-0.0567505 -0.00045952 0)
(-0.0563554 -0.000499928 0)
(-0.0559271 -0.000541609 0)
(-0.0554647 -0.00058456 0)
(-0.054967 -0.000628768 0)
(-0.0544332 -0.000674207 0)
(-0.0538623 -0.000720843 0)
(-0.0532534 -0.00076863 0)
(-0.0526056 -0.000817509 0)
(-0.0519181 -0.000867407 0)
(-0.0511902 -0.000918239 0)
(-0.0504212 -0.000969904 0)
(-0.0496106 -0.00102229 0)
(-0.0487577 -0.00107525 0)
(-0.0478624 -0.00112866 0)
(-0.0469244 -0.00118234 0)
(-0.0459434 -0.0012361 0)
(-0.0449197 -0.00128975 0)
(-0.0438534 -0.00134306 0)
(-0.042745 -0.0013958 0)
(-0.041595 -0.00144772 0)
(-0.0404043 -0.00149852 0)
(-0.0391739 -0.00154792 0)
(-0.0379051 -0.00159561 0)
(-0.0365994 -0.00164124 0)
(-0.0352587 -0.00168448 0)
(-0.0338851 -0.00172496 0)
(-0.0324809 -0.00176229 0)
(-0.0310489 -0.00179609 0)
(-0.029592 -0.00182593 0)
(-0.0281137 -0.00185141 0)
(-0.0266175 -0.00187208 0)
(-0.0251074 -0.00188752 0)
(-0.0235879 -0.00189727 0)
(-0.0220635 -0.0019009 0)
(-0.0205394 -0.00189795 0)
(-0.0190209 -0.00188798 0)
(-0.0175137 -0.00187056 0)
(-0.0160238 -0.00184526 0)
(-0.0145575 -0.00181167 0)
(-0.0131216 -0.00176939 0)
(-0.0117228 -0.00171807 0)
(-0.0103682 -0.00165738 0)
(-0.00906531 -0.00158704 0)
(-0.00782146 -0.00150682 0)
(-0.00664422 -0.00141659 0)
(-0.00554116 -0.0013163 0)
(-0.00451971 -0.00120604 0)
(-0.0035871 -0.00108608 0)
(-0.00275011 -0.000956935 0)
(-0.0020149 -0.000819476 0)
(-0.00138663 -0.000675051 0)
(-0.000869078 -0.000525719 0)
(-0.000464033 -0.000374568 0)
(-0.000170499 -0.00022621 0)
(1.63518e-05 -8.75181e-05 0)
(0.000106362 3.13289e-05 0)
(0.000116053 0.000115509 0)
(7.35268e-05 0.000143974 0)
(2.18426e-05 8.77374e-05 0)
(1.5577e-05 -0.000113653 0)
(4.2912e-05 -0.000170648 0)
(4.08743e-05 -0.000110053 0)
(-2.81449e-05 2.97393e-05 0)
(-0.000189842 0.000221191 0)
(-0.000460404 0.000443867 0)
(-0.000849903 0.000682899 0)
(-0.00136357 0.000927698 0)
(-0.00200277 0.00117079 0)
(-0.00276592 0.00140696 0)
(-0.00364923 0.00163259 0)
(-0.0046473 0.00184524 0)
(-0.00575357 0.00204333 0)
(-0.00696068 0.00222587 0)
(-0.00826076 0.00239235 0)
(-0.00964565 0.00254261 0)
(-0.011107 0.0026767 0)
(-0.0126366 0.00279492 0)
(-0.0142262 0.00289766 0)
(-0.0158677 0.00298546 0)
(-0.0175535 0.0030589 0)
(-0.019276 0.00311866 0)
(-0.021028 0.00316542 0)
(-0.0228027 0.00319992 0)
(-0.0245937 0.00322288 0)
(-0.0263949 0.00323506 0)
(-0.0282006 0.00323721 0)
(-0.0300055 0.00323006 0)
(-0.0318047 0.00321433 0)
(-0.0335937 0.00319074 0)
(-0.0353682 0.00315998 0)
(-0.0371244 0.00312272 0)
(-0.038859 0.00307958 0)
(-0.0405688 0.00303121 0)
(-0.042251 0.00297817 0)
(-0.0439032 0.00292104 0)
(-0.0455231 0.00286033 0)
(-0.0471088 0.00279656 0)
(-0.0486589 0.00273018 0)
(-0.0501718 0.00266165 0)
(-0.0516464 0.00259137 0)
(-0.0530819 0.00251972 0)
(-0.0544774 0.00244706 0)
(-0.0558326 0.0023737 0)
(-0.0571469 0.00229995 0)
(-0.0584203 0.00222607 0)
(-0.0596526 0.00215232 0)
(-0.060844 0.0020789 0)
(-0.0619946 0.00200602 0)
(-0.0631047 0.00193384 0)
(-0.0641748 0.00186253 0)
(-0.0652053 0.00179221 0)
(-0.0661968 0.00172299 0)
(-0.0671498 0.00165497 0)
(-0.068065 0.00158822 0)
(-0.0689431 0.00152281 0)
(-0.0697848 0.00145876 0)
(-0.0705909 0.00139612 0)
(-0.0713621 0.0013349 0)
(-0.0720992 0.0012751 0)
(-0.0728029 0.00121671 0)
(-0.073474 0.00115971 0)
(-0.0741132 0.00110406 0)
(-0.0747214 0.00104973 0)
(-0.0752991 0.000996661 0)
(-0.075847 0.0009448 0)
(-0.0763658 0.000894076 0)
(-0.076856 0.000844416 0)
(-0.0773183 0.000795738 0)
(-0.0777531 0.000747954 0)
(-0.0781609 0.000700973 0)
(-0.0785421 0.000654694 0)
(-0.078897 0.000609016 0)
(-0.079226 0.000563829 0)
(-0.0795293 0.000519024 0)
(-0.0798071 0.000474483 0)
(-0.0800594 0.00043009 0)
(-0.0802863 0.000385721 0)
(-0.0804878 0.000341255 0)
(-0.0806638 0.000296565 0)
(-0.0808142 0.000251523 0)
(-0.0809386 0.000206003 0)
(-0.0810368 0.000159873 0)
(-0.0811085 0.000113004 0)
(-0.0811532 6.52666e-05 0)
(-0.0811703 1.65317e-05 0)
(-0.0811593 -3.33287e-05 0)
(-0.0811195 -8.44409e-05 0)
(-0.0810503 -0.000136929 0)
(-0.0809508 -0.000190914 0)
(-0.0808201 -0.000246514 0)
(-0.0806574 -0.000303843 0)
(-0.0804617 -0.000363009 0)
(-0.0802319 -0.000424114 0)
(-0.079967 -0.000487255 0)
(-0.0796658 -0.00055252 0)
(-0.0793272 -0.00061999 0)
(-0.0789499 -0.000689734 0)
(-0.0785327 -0.000761812 0)
(-0.0780743 -0.000836272 0)
(-0.0775734 -0.000913149 0)
(-0.0770287 -0.000992463 0)
(-0.0764389 -0.00107422 0)
(-0.0758027 -0.0011584 0)
(-0.0751187 -0.00124499 0)
(-0.0743858 -0.00133392 0)
(-0.0736026 -0.00142514 0)
(-0.072768 -0.00151853 0)
(-0.0718809 -0.001614 0)
(-0.0709402 -0.00171139 0)
(-0.069945 -0.00181052 0)
(-0.0688944 -0.00191122 0)
(-0.0677876 -0.00201323 0)
(-0.0666241 -0.00211632 0)
(-0.0654035 -0.00222018 0)
(-0.0641254 -0.00232449 0)
(-0.0627897 -0.00242889 0)
(-0.0613967 -0.00253299 0)
(-0.0599466 -0.00263635 0)
(-0.0584401 -0.00273853 0)
(-0.056878 -0.00283901 0)
(-0.0552614 -0.00293725 0)
(-0.0535919 -0.00303269 0)
(-0.0518712 -0.00312472 0)
(-0.0501014 -0.0032127 0)
(-0.048285 -0.00329595 0)
(-0.0464248 -0.00337378 0)
(-0.0445241 -0.00344543 0)
(-0.0425865 -0.00351016 0)
(-0.0406161 -0.00356719 0)
(-0.0386173 -0.00361569 0)
(-0.0365952 -0.00365486 0)
(-0.034555 -0.00368386 0)
(-0.0325025 -0.00370185 0)
(-0.0304441 -0.00370797 0)
(-0.0283863 -0.00370139 0)
(-0.0263364 -0.00368128 0)
(-0.0243019 -0.00364682 0)
(-0.0222908 -0.00359722 0)
(-0.0203114 -0.00353173 0)
(-0.0183723 -0.00344965 0)
(-0.0164827 -0.00335033 0)
(-0.0146518 -0.00323321 0)
(-0.0128892 -0.00309783 0)
(-0.0112044 -0.00294386 0)
(-0.00960711 -0.00277113 0)
(-0.00810703 -0.00257969 0)
(-0.00671353 -0.00236986 0)
(-0.00543561 -0.00214235 0)
(-0.00428165 -0.00189834 0)
(-0.00325908 -0.00163968 0)
(-0.00237401 -0.00136914 0)
(-0.0016307 -0.00109075 0)
(-0.00103098 -0.000810319 0)
(-0.000573351 -0.000536109 0)
(-0.000252043 -0.000279875 0)
(-5.58759e-05 -5.81765e-05 0)
(3.3166e-05 0.000106091 0)
(4.35514e-05 0.00018182 0)
(1.67314e-05 0.000125117 0)
(8.69297e-06 -0.000131025 0)
(4.48311e-06 -0.00016478 0)
(-6.07562e-05 -4.06689e-05 0)
(-0.000218734 0.00019127 0)
(-0.000492951 0.00049519 0)
(-0.000899385 0.000843846 0)
(-0.0014481 0.00121678 0)
(-0.00214435 0.00159892 0)
(-0.00298945 0.00197928 0)
(-0.00398161 0.00234989 0)
(-0.00511661 0.0027051 0)
(-0.00638839 0.00304092 0)
(-0.00778948 0.00335467 0)
(-0.00931145 0.00364463 0)
(-0.0109452 0.00390978 0)
(-0.0126812 0.00414969 0)
(-0.0145097 0.00436432 0)
(-0.0164208 0.00455399 0)
(-0.0184048 0.00471923 0)
(-0.0204522 0.00486077 0)
(-0.0225535 0.0049795 0)
(-0.0246998 0.00507639 0)
(-0.0268824 0.0051525 0)
(-0.029093 0.00520895 0)
(-0.0313238 0.00524687 0)
(-0.0335673 0.00526744 0)
(-0.0358166 0.00527181 0)
(-0.0380651 0.00526116 0)
(-0.0403068 0.00523663 0)
(-0.0425362 0.00519934 0)
(-0.044748 0.0051504 0)
(-0.0469376 0.00509087 0)
(-0.0491007 0.00502178 0)
(-0.0512333 0.00494411 0)
(-0.0533321 0.00485882 0)
(-0.0553939 0.0047668 0)
(-0.0574161 0.00466891 0)
(-0.0593962 0.00456596 0)
(-0.0613321 0.0044587 0)
(-0.0632222 0.00434785 0)
(-0.065065 0.00423408 0)
(-0.0668593 0.004118 0)
(-0.0686042 0.00400018 0)
(-0.070299 0.00388116 0)
(-0.0719432 0.00376142 0)
(-0.0735365 0.00364139 0)
(-0.0750788 0.00352149 0)
(-0.0765702 0.00340206 0)
(-0.078011 0.00328343 0)
(-0.0794013 0.00316588 0)
(-0.0807418 0.00304967 0)
(-0.0820329 0.00293501 0)
(-0.0832753 0.00282209 0)
(-0.0844697 0.00271105 0)
(-0.0856168 0.00260203 0)
(-0.0867177 0.00249513 0)
(-0.087773 0.00239041 0)
(-0.0887837 0.00228793 0)
(-0.0897507 0.00218771 0)
(-0.090675 0.00208977 0)
(-0.0915574 0.00199408 0)
(-0.0923989 0.00190061 0)
(-0.0932004 0.00180932 0)
(-0.0939628 0.00172014 0)
(-0.0946869 0.00163298 0)
(-0.0953736 0.00154776 0)
(-0.0960235 0.00146437 0)
(-0.0966376 0.00138269 0)
(-0.0972163 0.00130258 0)
(-0.0977605 0.00122391 0)
(-0.0982705 0.00114653 0)
(-0.098747 0.00107027 0)
(-0.0991903 0.000994979 0)
(-0.0996008 0.000920475 0)
(-0.0999788 0.000846578 0)
(-0.100325 0.000773104 0)
(-0.100638 0.000699862 0)
(-0.10092 0.000626655 0)
(-0.101169 0.000553284 0)
(-0.101386 0.000479545 0)
(-0.101571 0.000405235 0)
(-0.101722 0.000330145 0)
(-0.101841 0.000254067 0)
(-0.101926 0.000176792 0)
(-0.101977 9.81106e-05 0)
(-0.101994 1.78159e-05 0)
(-0.101974 -6.42983e-05 0)
(-0.101919 -0.000148435 0)
(-0.101826 -0.000234793 0)
(-0.101696 -0.000323567 0)
(-0.101526 -0.000414946 0)
(-0.101315 -0.000509111 0)
(-0.101064 -0.000606235 0)
(-0.100769 -0.000706483 0)
(-0.10043 -0.000810006 0)
(-0.100046 -0.000916945 0)
(-0.0996154 -0.00102743 0)
(-0.0991359 -0.00114156 0)
(-0.0986066 -0.00125944 0)
(-0.0980258 -0.00138114 0)
(-0.0973919 -0.00150671 0)
(-0.0967033 -0.00163618 0)
(-0.0959585 -0.00176955 0)
(-0.0951558 -0.0019068 0)
(-0.0942937 -0.00204788 0)
(-0.0933707 -0.0021927 0)
(-0.0923852 -0.00234114 0)
(-0.0913358 -0.00249304 0)
(-0.0902212 -0.00264821 0)
(-0.0890402 -0.00280642 0)
(-0.0877915 -0.00296737 0)
(-0.0864742 -0.00313075 0)
(-0.0850875 -0.00329619 0)
(-0.0836305 -0.00346325 0)
(-0.0821029 -0.00363147 0)
(-0.0805043 -0.00380031 0)
(-0.0788347 -0.0039692 0)
(-0.0770943 -0.0041375 0)
(-0.0752836 -0.00430451 0)
(-0.0734033 -0.00446948 0)
(-0.0714546 -0.0046316 0)
(-0.069439 -0.00479 0)
(-0.0673582 -0.00494377 0)
(-0.0652145 -0.00509192 0)
(-0.0630107 -0.00523343 0)
(-0.0607496 -0.00536721 0)
(-0.058435 -0.00549213 0)
(-0.0560708 -0.00560701 0)
(-0.0536615 -0.00571063 0)
(-0.0512121 -0.00580175 0)
(-0.0487282 -0.00587908 0)
(-0.0462159 -0.0059413 0)
(-0.0436816 -0.00598709 0)
(-0.0411326 -0.00601512 0)
(-0.0385765 -0.00602405 0)
(-0.0360215 -0.00601255 0)
(-0.0334762 -0.00597932 0)
(-0.0309499 -0.0059231 0)
(-0.0284522 -0.00584265 0)
(-0.0259933 -0.00573684 0)
(-0.0235836 -0.00560458 0)
(-0.0212341 -0.00544494 0)
(-0.0189558 -0.00525709 0)
(-0.0167601 -0.00504041 0)
(-0.0146585 -0.00479449 0)
(-0.0126625 -0.0045192 0)
(-0.0107833 -0.00421479 0)
(-0.00903202 -0.00388195 0)
(-0.00741903 -0.003522 0)
(-0.00595395 -0.00313702 0)
(-0.00464524 -0.00273015 0)
(-0.00349974 -0.00230588 0)
(-0.00252222 -0.00187059 0)
(-0.00171471 -0.00143313 0)
(-0.00107575 -0.00100569 0)
(-0.000599516 -0.000605016 0)
(-0.000274818 -0.000253881 0)
(-8.38872e-05 1.7253e-05 0)
(-8.58088e-07 0.000168071 0)
(8.73633e-06 0.000141848 0)
(6.65688e-07 -0.000125823 0)
(-4.10647e-05 -0.000102851 0)
(-0.000181032 0.000112765 0)
(-0.000441979 0.000461984 0)
(-0.000843305 0.000901845 0)
(-0.00139958 0.00139903 0)
(-0.0021199 0.00192791 0)
(-0.00300879 0.00246913 0)
(-0.00406704 0.00300817 0)
(-0.00529237 0.00353426 0)
(-0.00668 0.00403951 0)
(-0.00822319 0.00451826 0)
(-0.0099137 0.00496655 0)
(-0.0117422 0.00538175 0)
(-0.0136985 0.00576225 0)
(-0.0157719 0.00610721 0)
(-0.0179516 0.00641645 0)
(-0.0202263 0.00669023 0)
(-0.022585 0.0069292 0)
(-0.0250168 0.0071343 0)
(-0.0275111 0.00730669 0)
(-0.0300574 0.00744768 0)
(-0.0326458 0.00755874 0)
(-0.0352668 0.00764139 0)
(-0.0379111 0.00769725 0)
(-0.0405704 0.00772794 0)
(-0.0432363 0.00773512 0)
(-0.0459014 0.00772044 0)
(-0.0485587 0.00768554 0)
(-0.0512014 0.00763203 0)
(-0.0538236 0.00756149 0)
(-0.0564199 0.00747544 0)
(-0.058985 0.00737538 0)
(-0.0615146 0.00726273 0)
(-0.0640043 0.00713886 0)
(-0.0664507 0.00700507 0)
(-0.0688505 0.00686261 0)
(-0.0712008 0.00671265 0)
(-0.0734993 0.0065563 0)
(-0.0757437 0.0063946 0)
(-0.0779324 0.00622852 0)
(-0.080064 0.00605896 0)
(-0.0821372 0.00588677 0)
(-0.0841514 0.00571271 0)
(-0.0861058 0.00553749 0)
(-0.0880001 0.00536176 0)
(-0.0898341 0.00518612 0)
(-0.0916079 0.00501109 0)
(-0.0933218 0.00483713 0)
(-0.094976 0.00466469 0)
(-0.096571 0.00449411 0)
(-0.0981076 0.00432573 0)
(-0.0995863 0.00415981 0)
(-0.101008 0.0039966 0)
(-0.102374 0.00383626 0)
(-0.103685 0.00367896 0)
(-0.104941 0.00352481 0)
(-0.106145 0.00337387 0)
(-0.107296 0.0032262 0)
(-0.108397 0.0030818 0)
(-0.109448 0.00294067 0)
(-0.11045 0.00280274 0)
(-0.111404 0.00266796 0)
(-0.112311 0.00253623 0)
(-0.113173 0.00240744 0)
(-0.11399 0.00228145 0)
(-0.114764 0.0021581 0)
(-0.115494 0.00203723 0)
(-0.116182 0.00191864 0)
(-0.116829 0.00180213 0)
(-0.117434 0.00168749 0)
(-0.118 0.00157448 0)
(-0.118526 0.00146286 0)
(-0.119012 0.00135238 0)
(-0.119459 0.00124278 0)
(-0.119868 0.00113379 0)
(-0.120238 0.00102513 0)
(-0.12057 0.000916507 0)
(-0.120863 0.000807644 0)
(-0.121117 0.000698241 0)
(-0.121333 0.000587999 0)
(-0.121509 0.000476618 0)
(-0.121645 0.000363793 0)
(-0.121741 0.000249223 0)
(-0.121796 0.000132604 0)
(-0.12181 1.36351e-05 0)
(-0.121781 -0.000107983 0)
(-0.121709 -0.000232543 0)
(-0.121592 -0.000360335 0)
(-0.121429 -0.000491638 0)
(-0.12122 -0.000626726 0)
(-0.120963 -0.000765861 0)
(-0.120656 -0.000909291 0)
(-0.120298 -0.00105725 0)
(-0.119888 -0.00120996 0)
(-0.119423 -0.00136763 0)
(-0.118903 -0.00153042 0)
(-0.118325 -0.0016985 0)
(-0.117688 -0.00187199 0)
(-0.11699 -0.00205101 0)
(-0.116228 -0.00223562 0)
(-0.115402 -0.00242586 0)
(-0.11451 -0.00262172 0)
(-0.113548 -0.00282318 0)
(-0.112517 -0.00303014 0)
(-0.111413 -0.00324247 0)
(-0.110236 -0.00346 0)
(-0.108983 -0.00368248 0)
(-0.107653 -0.00390964 0)
(-0.106245 -0.00414111 0)
(-0.104757 -0.00437649 0)
(-0.103189 -0.00461529 0)
(-0.101538 -0.00485698 0)
(-0.0998051 -0.00510092 0)
(-0.0979889 -0.00534642 0)
(-0.0960893 -0.00559271 0)
(-0.0941063 -0.00583894 0)
(-0.0920401 -0.00608418 0)
(-0.0898915 -0.00632741 0)
(-0.0876613 -0.00656755 0)
(-0.0853508 -0.0068034 0)
(-0.082962 -0.00703373 0)
(-0.0804969 -0.00725717 0)
(-0.0779582 -0.00747233 0)
(-0.075349 -0.00767769 0)
(-0.0726731 -0.0078717 0)
(-0.0699345 -0.00805272 0)
(-0.067138 -0.00821904 0)
(-0.0642888 -0.00836892 0)
(-0.0613929 -0.00850054 0)
(-0.0584568 -0.00861205 0)
(-0.0554874 -0.00870158 0)
(-0.0524926 -0.00876723 0)
(-0.0494805 -0.00880709 0)
(-0.0464601 -0.00881925 0)
(-0.0434409 -0.00880183 0)
(-0.0404329 -0.00875299 0)
(-0.0374469 -0.00867093 0)
(-0.0344939 -0.00855396 0)
(-0.0315855 -0.00840049 0)
(-0.028734 -0.00820904 0)
(-0.0259517 -0.00797835 0)
(-0.0232513 -0.00770735 0)
(-0.0206459 -0.00739527 0)
(-0.0181483 -0.00704165 0)
(-0.0157717 -0.00664649 0)
(-0.0135286 -0.00621031 0)
(-0.0114315 -0.00573432 0)
(-0.00949195 -0.00522059 0)
(-0.0077206 -0.0046723 0)
(-0.00612682 -0.00409404 0)
(-0.00471821 -0.00349228 0)
(-0.00350014 -0.00287587 0)
(-0.00247518 -0.00225685 0)
(-0.00164242 -0.00165132 0)
(-0.00099683 -0.00108081 0)
(-0.000528305 -0.000573787 0)
(-0.000220664 -0.000167415 0)
(-5.27534e-05 9.02213e-05 0)
(-4.35777e-07 0.000132684 0)
(-7.72441e-06 -9.57569e-05 0)
(-8.99857e-05 2.18795e-05 0)
(-0.000311387 0.000359977 0)
(-0.000684079 0.000853155 0)
(-0.00122212 0.00145279 0)
(-0.00193778 0.00212045 0)
(-0.00283838 0.00282596 0)
(-0.00392711 0.00354602 0)
(-0.00520375 0.0042628 0)
(-0.00666521 0.00496276 0)
(-0.00830595 0.0056358 0)
(-0.0101185 0.00627448 0)
(-0.0120938 0.00687349 0)
(-0.0142216 0.00742921 0)
(-0.016491 0.00793931 0)
(-0.0188902 0.00840252 0)
(-0.0214072 0.0088184 0)
(-0.0240298 0.00918715 0)
(-0.0267459 0.00950948 0)
(-0.0295433 0.00978653 0)
(-0.0324102 0.0100197 0)
(-0.0353352 0.0102108 0)
(-0.038307 0.0103615 0)
(-0.0413151 0.0104739 0)
(-0.0443493 0.0105501 0)
(-0.0473998 0.0105922 0)
(-0.0504577 0.0106025 0)
(-0.0535143 0.0105831 0)
(-0.0565617 0.0105362 0)
(-0.0595926 0.0104639 0)
(-0.0626 0.0103685 0)
(-0.0655776 0.0102519 0)
(-0.0685199 0.0101161 0)
(-0.0714215 0.00996304 0)
(-0.0742779 0.00979463 0)
(-0.0770848 0.0096126 0)
(-0.0798385 0.00941864 0)
(-0.0825359 0.00921434 0)
(-0.085174 0.0090012 0)
(-0.0877506 0.00878065 0)
(-0.0902635 0.00855401 0)
(-0.0927112 0.0083225 0)
(-0.0950923 0.00808728 0)
(-0.0974058 0.00784939 0)
(-0.099651 0.00760982 0)
(-0.101828 0.00736944 0)
(-0.103935 0.00712907 0)
(-0.105974 0.00688943 0)
(-0.107944 0.00665117 0)
(-0.109845 0.00641486 0)
(-0.111679 0.00618103 0)
(-0.113446 0.0059501 0)
(-0.115146 0.00572246 0)
(-0.116781 0.00549843 0)
(-0.118352 0.00527826 0)
(-0.11986 0.00506217 0)
(-0.121305 0.00485031 0)
(-0.122689 0.00464279 0)
(-0.124014 0.00443966 0)
(-0.12528 0.00424096 0)
(-0.126488 0.00404666 0)
(-0.12764 0.0038567 0)
(-0.128738 0.00367099 0)
(-0.129781 0.00348942 0)
(-0.130772 0.00331181 0)
(-0.131711 0.003138 0)
(-0.132599 0.00296777 0)
(-0.133438 0.00280089 0)
(-0.134228 0.0026371 0)
(-0.13497 0.00247614 0)
(-0.135665 0.00231769 0)
(-0.136313 0.00216146 0)
(-0.136916 0.00200711 0)
(-0.137472 0.0018543 0)
(-0.137984 0.00170268 0)
(-0.138451 0.00155188 0)
(-0.138873 0.00140152 0)
(-0.13925 0.00125121 0)
(-0.139583 0.00110056 0)
(-0.139871 0.000949176 0)
(-0.140113 0.000796644 0)
(-0.140311 0.000642558 0)
(-0.140462 0.000486506 0)
(-0.140567 0.000328078 0)
(-0.140624 0.000166862 0)
(-0.140633 2.45051e-06 0)
(-0.140593 -0.000165561 0)
(-0.140503 -0.000337571 0)
(-0.140362 -0.000513969 0)
(-0.140168 -0.000695135 0)
(-0.13992 -0.000881436 0)
(-0.139617 -0.00107323 0)
(-0.139256 -0.00127084 0)
(-0.138837 -0.0014746 0)
(-0.138357 -0.00168479 0)
(-0.137815 -0.00190168 0)
(-0.137209 -0.00212552 0)
(-0.136537 -0.00235651 0)
(-0.135797 -0.00259483 0)
(-0.134987 -0.0028406 0)
(-0.134104 -0.00309392 0)
(-0.133148 -0.00335484 0)
(-0.132115 -0.00362335 0)
(-0.131003 -0.00389938 0)
(-0.129812 -0.00418282 0)
(-0.128538 -0.00447348 0)
(-0.127179 -0.00477111 0)
(-0.125735 -0.00507538 0)
(-0.124202 -0.00538591 0)
(-0.122581 -0.00570219 0)
(-0.120868 -0.00602367 0)
(-0.119064 -0.00634968 0)
(-0.117166 -0.00667948 0)
(-0.115174 -0.00701222 0)
(-0.113088 -0.00734694 0)
(-0.110906 -0.0076826 0)
(-0.10863 -0.00801803 0)
(-0.10626 -0.00835197 0)
(-0.103795 -0.00868303 0)
(-0.101239 -0.00900974 0)
(-0.0985906 -0.00933049 0)
(-0.0958537 -0.00964357 0)
(-0.0930302 -0.00994717 0)
(-0.0901233 -0.0102394 0)
(-0.0871365 -0.0105181 0)
(-0.0840739 -0.0107813 0)
(-0.0809403 -0.0110268 0)
(-0.077741 -0.0112522 0)
(-0.0744821 -0.0114552 0)
(-0.0711702 -0.0116333 0)
(-0.0678125 -0.0117841 0)
(-0.0644171 -0.011905 0)