/*--------------------------------*- C++ -*----------------------------------*\
  =========                 |
  \\      /  F ield         | OpenFOAM: The Open Source CFD Toolbox
   \\    /   O peration     | Website:  https://openfoam.org
    \\  /    A nd           | Version:  7
     \\/     M anipulation  |
\*---------------------------------------------------------------------------*/
FoamFile
{
    version     2.0;
    format      ascii;
    class       volScalarField;
    location    "0.0375";
    object      p;
}
// * * * * * * * * * * * * * * * * * * * * * * * * * * * * * * * * * * * * * //

dimensions      [0 2 -2 0 0 0 0];

internalField   nonuniform List<scalar> 
12800
(
-2.74671e-08
-0.000138903
-0.000423159
-0.000775172
-0.00114817
-0.00153489
-0.00192356
-0.00230314
-0.00266439
-0.00299978
-0.0033033
-0.00357024
-0.00379713
-0.00398151
-0.00412172
-0.00421665
-0.0042657
-0.00426883
-0.00422646
-0.00413913
-0.00400739
-0.00383176
-0.00361298
-0.003352
-0.00304992
-0.00270778
-0.00232658
-0.00190722
-0.00145059
-0.000957613
-0.000429202
0.000133811
0.000730682
0.00136075
0.0020234
0.00271799
0.00344393
0.00420066
0.00498765
0.00580437
0.00665029
0.00752484
0.00842748
0.00935777
0.0103153
0.0112995
0.01231
0.0133462
0.0144075
0.0154935
0.0166037
0.0177378
0.0188955
0.0200762
0.0212797
0.0225056
0.0237534
0.025023
0.0263139
0.0276258
0.0289583
0.0303111
0.0316837
0.0330758
0.034487
0.035917
0.0373655
0.0388321
0.0403165
0.0418183
0.0433374
0.0448734
0.0464262
0.0479953
0.0495803
0.0511811
0.0527973
0.0544288
0.0560751
0.0577359
0.059411
0.0610999
0.0628024
0.0645185
0.0662477
0.0679897
0.0697442
0.0715109
0.0732893
0.0750791
0.0768799
0.0786911
0.0805123
0.0823429
0.0841823
0.0860299
0.0878853
0.0897477
0.0916167
0.0934915
0.0953713
0.0972552
0.0991424
0.101032
0.102923
0.104814
0.106704
0.108591
0.110475
0.112354
0.114226
0.116089
0.117942
0.119784
0.121612
0.123424
0.125218
0.126993
0.128744
0.130471
0.132171
0.13384
0.135476
0.137076
0.138638
0.140158
0.141634
0.143062
0.14444
0.145763
0.14703
0.148236
0.149379
0.150455
0.151463
0.152399
0.15326
0.154044
0.154749
0.155374
0.155917
0.156376
0.156752
0.157044
0.157253
0.15738
0.157428
0.157398
0.157296
0.157125
0.156894
0.156609
0.156281
0.155924
0.155553
0.15519
0.154858
0.154589
0.154421
0.154376
-9.63232e-05
-0.000224448
-0.00045512
-0.000741695
-0.00105512
-0.00138314
-0.00171509
-0.0020412
-0.00235307
-0.0026437
-0.00290741
-0.00313954
-0.00333644
-0.00349541
-0.00361452
-0.00369239
-0.00372804
-0.00372095
-0.00367105
-0.0035786
-0.00344399
-0.00326763
-0.00305
-0.00279171
-0.00249353
-0.00215634
-0.00178098
-0.00136829
-0.000919055
-0.000434036
8.5996e-05
0.000640283
0.00122815
0.00184899
0.00250221
0.00318724
0.00390352
0.0046505
0.00542764
0.00623449
0.0070706
0.00793541
0.00882838
0.00974903
0.0106969
0.0116716
0.0126725
0.0136991
0.0147511
0.0158279
0.0169291
0.0180542
0.0192029
0.0203748
0.0215696
0.0227869
0.0240264
0.0252876
0.0265704
0.0278742
0.0291987
0.0305435
0.0319084
0.0332928
0.0346964
0.0361189
0.03756
0.0390193
0.0404964
0.041991
0.0435029
0.0450319
0.0465776
0.0481397
0.0497178
0.0513116
0.0529209
0.0545454
0.0561847
0.0578385
0.0595064
0.0611881
0.0628834
0.064592
0.0663138
0.0680482
0.069795
0.0715537
0.0733239
0.0751054
0.0768975
0.0786999
0.080512
0.0823331
0.0841628
0.0860004
0.0878453
0.089697
0.0915547
0.0934179
0.0952856
0.0971569
0.099031
0.100907
0.102784
0.10466
0.106534
0.108406
0.110273
0.112135
0.113989
0.115834
0.117668
0.11949
0.121298
0.12309
0.124863
0.126615
0.128345
0.130049
0.131725
0.133371
0.134983
0.13656
0.138098
0.139594
0.141047
0.142452
0.143806
0.145108
0.146353
0.147539
0.148663
0.149722
0.150714
0.151636
0.152486
0.153261
0.15396
0.154582
0.155125
0.155589
0.155974
0.156279
0.156506
0.156656
0.156732
0.156737
0.156674
0.15655
0.156371
0.156145
0.155881
0.155593
0.155293
0.155
0.154734
0.154517
0.154376
0.154332
-0.000147757
-0.000255624
-0.000442263
-0.00068356
-0.000955171
-0.00124279
-0.00153541
-0.00182381
-0.00210013
-0.00235785
-0.00259164
-0.00279707
-0.00297055
-0.00310925
-0.00321113
-0.00327473
-0.00329894
-0.00328298
-0.00322642
-0.0031292
-0.00299155
-0.00281382
-0.00259637
-0.00233961
-0.00204407
-0.00171043
-0.00133942
-0.000931787
-0.000488242
-9.46309e-06
0.000503914
0.00105123
0.00163184
0.00224519
0.00289074
0.00356796
0.00427632
0.0050153
0.00578438
0.00658309
0.007411
0.00826766
0.00915256
0.0100652
0.0110051
0.0119717
0.0129646
0.0139834
0.0150275
0.0160966
0.0171901
0.0183076
0.0194489
0.0206135
0.0218011
0.0230112
0.0242436
0.025498
0.0267739
0.028071
0.0293889
0.0307272
0.0320855
0.0334635
0.0348608
0.0362771
0.0377119
0.039165
0.0406361
0.0421247
0.0436307
0.0451537
0.0466935
0.0482497
0.049822
0.0514101
0.0530136
0.0546322
0.0562657
0.0579136
0.0595755
0.0612513
0.0629406
0.0646431
0.0663586
0.0680868
0.0698271
0.0715791
0.0733426
0.075117
0.076902
0.0786971
0.0805016
0.082315
0.0841367
0.0859661
0.0878025
0.0896455
0.0914942
0.093348
0.0952059
0.0970672
0.0989307
0.100796
0.102661
0.104525
0.106388
0.108247
0.110101
0.111949
0.113789
0.11562
0.11744
0.119246
0.121039
0.122814
0.124571
0.126306
0.128019
0.129705
0.131364
0.132992
0.134586
0.136145
0.137665
0.139144
0.140578
0.141966
0.143304
0.144589
0.145818
0.146989
0.1481
0.149146
0.150127
0.151039
0.15188
0.15265
0.153346
0.153966
0.154511
0.154979
0.155371
0.155687
0.155928
0.156096
0.156193
0.156224
0.156191
0.1561
0.155959
0.155773
0.155553
0.15531
0.155055
0.154803
0.154571
0.154376
0.154236
0.154165
-9.76102e-05
-0.00020971
-0.00038108
-0.00059817
-0.000844289
-0.00110575
-0.00137183
-0.00163387
-0.00188465
-0.00211809
-0.00232918
-0.00251386
-0.00266873
-0.00279102
-0.00287862
-0.00292999
-0.00294408
-0.00292007
-0.00285738
-0.0027557
-0.00261502
-0.00243555
-0.00221758
-0.00196147
-0.00166765
-0.0013366
-0.000968933
-0.000565293
-0.000126288
0.000347453
0.000855342
0.00139684
0.00197139
0.00257843
0.00321746
0.00388801
0.00458959
0.00532172
0.00608389
0.00687562
0.00769648
0.00854603
0.00942381
0.0103294
0.0112622
0.0122219
0.0132079
0.0142197
0.0152569
0.0163192
0.017406
0.018517
0.0196518
0.02081
0.0219912
0.0231952
0.0244215
0.0256699
0.0269399
0.0282311
0.0295432
0.0308758
0.0322285
0.033601
0.0349928
0.0364035
0.037833
0.0392807
0.0407465
0.0422299
0.0437306
0.0452485
0.0467831
0.0483342
0.0499014
0.0514844
0.0530828
0.0546964
0.0563247
0.0579675
0.0596243
0.0612949
0.062979
0.0646762
0.0663863
0.0681089
0.0698436
0.0715899
0.0733474
0.0751158
0.0768946
0.0786832
0.0804813
0.082288
0.084103
0.0859254
0.0877548
0.0895904
0.0914315
0.0932775
0.0951273
0.0969801
0.0988349
0.100691
0.102547
0.104401
0.106254
0.108102
0.109946
0.111783
0.113612
0.115431
0.117239
0.119034
0.120814
0.122577
0.12432
0.126043
0.127742
0.129415
0.131059
0.132673
0.134254
0.135799
0.137305
0.138771
0.140192
0.141567
0.142892
0.144165
0.145383
0.146543
0.147643
0.14868
0.149653
0.150558
0.151395
0.15216
0.152854
0.153474
0.154021
0.154493
0.154892
0.155216
0.155469
0.155651
0.155765
0.155814
0.155803
0.155737
0.155622
0.155464
0.155273
0.155057
0.154827
0.154595
0.154375
0.154179
0.154018
0.153897
4.79055e-05
-9.74592e-05
-0.000276449
-0.000485861
-0.00071864
-0.000963477
-0.0012108
-0.00145304
-0.00168382
-0.00189769
-0.00209005
-0.00225715
-0.00239595
-0.00250388
-0.00257885
-0.00261927
-0.00262401
-0.0025923
-0.00252359
-0.00241745
-0.00227368
-0.00209233
-0.00187357
-0.0016177
-0.00132508
-0.000996141
-0.000631332
-0.000231174
0.000203779
0.000672996
0.00117596
0.00171216
0.00228113
0.00288239
0.00351545
0.00417981
0.00487505
0.00560072
0.00635639
0.00714158
0.00795584
0.00879872
0.00966979
0.0105686
0.0114948
0.0124478
0.0134272
0.0144324
0.0154631
0.0165189
0.0175994
0.0187041
0.0198328
0.020985
0.0221603
0.0233584
0.024579
0.0258217
0.0270861
0.0283718
0.0296784
0.0310057
0.0323531
0.0337203
0.0351069
0.0365126
0.0379369
0.0393796
0.0408404
0.0423189
0.0438147
0.0453276
0.0468573
0.0484035
0.0499659
0.0515441
0.0531376
0.0547464
0.0563699
0.0580078
0.0596598
0.0613255
0.0630046
0.0646968
0.0664018
0.0681192
0.0698485
0.0715894
0.0733414
0.075104
0.0768769
0.0786596
0.0804516
0.0822522
0.0840609
0.085877
0.0876998
0.0895287
0.091363
0.0932017
0.0950442
0.0968893
0.0987363
0.100584
0.102431
0.104277
0.106121
0.10796
0.109794
0.111622
0.113441
0.11525
0.117048
0.118832
0.120602
0.122353
0.124086
0.125797
0.127485
0.129146
0.13078
0.132382
0.133951
0.135485
0.13698
0.138434
0.139844
0.141208
0.142523
0.143787
0.144995
0.146147
0.147239
0.148269
0.149236
0.150136
0.150969
0.151732
0.152425
0.153046
0.153595
0.154071
0.154475
0.154808
0.15507
0.155264
0.155392
0.155457
0.155464
0.155416
0.155321
0.155183
0.155012
0.154813
0.154598
0.154374
0.154153
0.153946
0.153752
0.153568
0.000251793
6.10677e-05
-0.000138762
-0.00035255
-0.000582142
-0.00081886
-0.00105467
-0.00128325
-0.00149924
-0.00169798
-0.00187541
-0.00202813
-0.0021534
-0.00224895
-0.00231291
-0.00234372
-0.0023402
-0.0023015
-0.00222708
-0.00211656
-0.00196969
-0.00178636
-0.00156667
-0.0013108
-0.00101903
-0.000691748
-0.000329351
6.77694e-05
0.00049917
0.000964371
0.0014629
0.00199434
0.00255826
0.00315423
0.00378181
0.00444053
0.00512995
0.00584968
0.00659928
0.00737834
0.00818643
0.00902311
0.00988795
0.0107805
0.0117004
0.0126471
0.0136203
0.0146193
0.0156439
0.0166937
0.0177683
0.0188671
0.01999
0.0211366
0.0223064
0.0234991
0.0247143
0.0259517
0.0272109
0.0284915
0.0297931
0.0311153
0.0324578
0.0338201
0.0352019
0.0366027
0.0380223
0.0394604
0.0409165
0.0423903
0.0438815
0.0453899
0.046915
0.0484567
0.0500145
0.0515881
0.0531772
0.0547814
0.0564003
0.0580337
0.0596812
0.0613424
0.0630169
0.0647045
0.0664047
0.0681172
0.0698416
0.0715774
0.0733241
0.0750815
0.0768489
0.0786261
0.0804125
0.0822075
0.0840105
0.0858208
0.0876377
0.0894605
0.0912885
0.0931208
0.0949566
0.096795
0.0986349
0.100475
0.102315
0.104154
0.105989
0.107821
0.109647
0.111466
0.113277
0.115078
0.116867
0.118642
0.120403
0.122145
0.123869
0.125571
0.127249
0.128901
0.130525
0.132118
0.133678
0.135203
0.136689
0.138134
0.139536
0.140892
0.142199
0.143455
0.144657
0.145802
0.146888
0.147914
0.148876
0.149773
0.150603
0.151365
0.152058
0.15268
0.153231
0.153712
0.154121
0.154461
0.154732
0.154935
0.155074
0.155152
0.155172
0.155139
0.155057
0.154934
0.154774
0.154585
0.154375
0.15415
0.15392
0.153692
0.153458
0.153205
0.00048949
0.000248443
2.03177e-05
-0.000206119
-0.000440387
-0.000676076
-0.000906696
-0.00112723
-0.00133332
-0.00152112
-0.00168725
-0.00182876
-0.00194316
-0.00202845
-0.00208302
-0.00210551
-0.00209477
-0.00204994
-0.00197042
-0.00185581
-0.00170591
-0.00152058
-0.00129981
-0.00104375
-0.000752604
-0.000426647
-6.622e-05
0.000328318
0.000756608
0.00121827
0.0017129
0.00224011
0.00279952
0.00339072
0.00401331
0.0046669
0.00535106
0.00606537
0.00680945
0.00758287
0.00838526
0.00921621
0.0100753
0.0109621
0.0118762
0.0128171
0.0137845
0.0147778
0.0157968
0.016841
0.0179101
0.0190036
0.0201212
0.0212626
0.0224273
0.023615
0.0248254
0.0260579
0.0273124
0.0285882
0.0298852
0.0312028
0.0325407
0.0338985
0.0352758
0.0366723
0.0380876
0.0395213
0.0409732
0.0424428
0.0439298
0.0454339
0.0469549
0.0484923
0.050046
0.0516154
0.0532003
0.0548003
0.0564151
0.0580444
0.0596877
0.0613447
0.063015
0.0646982
0.0663941
0.0681022
0.069822
0.0715531
0.0732951
0.0750476
0.0768102
0.0785824
0.0803637
0.0821536
0.0839515
0.0857565
0.0875682
0.0893856
0.091208
0.0930347
0.0948646
0.096697
0.0985308
0.100365
0.102198
0.10403
0.105859
0.107684
0.109503
0.111316
0.11312
0.114914
0.116696
0.118464
0.120217
0.121953
0.123669
0.125364
0.127034
0.128679
0.130296
0.131883
0.133436
0.134954
0.136433
0.137872
0.139268
0.140618
0.14192
0.143171
0.144368
0.145509
0.146592
0.147614
0.148574
0.149469
0.150299
0.151061
0.151754
0.152378
0.152932
0.153416
0.153831
0.154176
0.154454
0.154665
0.154813
0.1549
0.15493
0.154906
0.154834
0.154718
0.154564
0.154378
0.154165
0.153932
0.153686
0.153432
0.153154
0.152834
0.000742174
0.000449682
0.000189523
-5.48245e-05
-0.000299407
-0.00053949
-0.000769961
-0.000987112
-0.0011875
-0.00136805
-0.00152605
-0.0016591
-0.00176509
-0.00184222
-0.00188907
-0.00190449
-0.0018875
-0.00183729
-0.00175327
-0.00163503
-0.00148232
-0.00129503
-0.00107316
-0.000816772
-0.000526024
-0.000201131
0.000157637
0.00054998
0.000975588
0.00143414
0.00192533
0.0024488
0.0030042
0.00359114
0.00420925
0.00485817
0.00553754
0.00624695
0.00698602
0.00775434
0.00855153
0.00937723
0.0102311
0.0111126
0.0120213
0.012957
0.013919
0.0149072
0.015921
0.0169602
0.0180243
0.0191129
0.0202257
0.0213624
0.0225225
0.0237057
0.0249115
0.0261397
0.0273898
0.0286614
0.0299541
0.0312675
0.0326013
0.033955
0.0353283
0.0367208
0.0381321
0.039562
0.04101
0.0424757
0.0439589
0.0454593
0.0469764
0.0485101
0.05006
0.0516256
0.0532067
0.0548029
0.0564139
0.0580394
0.0596789
0.0613321
0.0629985
0.0646779
0.0663698
0.0680738
0.0697895
0.0715165
0.0732542
0.0750023
0.0767604
0.0785282
0.080305
0.0820904
0.0838836
0.0856841
0.0874909
0.0893036
0.0911211
0.0929428
0.0947677
0.096595
0.0984235
0.100252
0.102081
0.103907
0.105731
0.10755
0.109364
0.111171
0.112969
0.114758
0.116534
0.118297
0.120045
0.121775
0.123485
0.125175
0.12684
0.12848
0.130092
0.131674
0.133222
0.134736
0.136211
0.137646
0.139039
0.140385
0.141684
0.142931
0.144126
0.145265
0.146347
0.147368
0.148327
0.149222
0.150052
0.150815
0.15151
0.152137
0.152694
0.153182
0.153601
0.153951
0.154234
0.154452
0.154607
0.1547
0.154736
0.154719
0.154651
0.154538
0.154385
0.154196
0.153975
0.153729
0.153462
0.15318
0.152858
0.152472
0.000995106
0.000652214
0.000358651
9.33525e-05
-0.000165339
-0.000413823
-0.000648041
-0.0008655
-0.00106369
-0.00124018
-0.00139285
-0.00151984
-0.0016195
-0.00169034
-0.00173108
-0.00174073
-0.00171847
-0.00166363
-0.00157567
-0.00145421
-0.001299
-0.00110991
-0.000886946
-0.000630161
-0.000339665
-1.56213e-05
0.00034176
0.000732238
0.00115555
0.00161141
0.00209957
0.00261973
0.00317157
0.00375473
0.00436886
0.00501363
0.00568869
0.00639366
0.0071282
0.00789192
0.00868445
0.00950542
0.0103545
0.0112312
0.0121351
0.013066
0.0140233
0.0150067
0.0160159
0.0170505
0.0181102
0.0191944
0.0203029
0.0214354
0.0225914
0.0237705
0.0249724
0.0261967
0.0274429
0.0287106
0.0299995
0.0313092
0.0326393
0.0339893
0.035359
0.036748
0.0381558
0.0395822
0.0410268
0.0424891
0.043969
0.0454659
0.0469797
0.04851
0.0500564
0.0516186
0.0531962
0.054789
0.0563966
0.0580186
0.0596547
0.0613044
0.0629674
0.0646433
0.0663316
0.068032
0.069744
0.0714672
0.0732011
0.0749454
0.0766996
0.0784634
0.0802362
0.0820176
0.0838067
0.085603
0.0874058
0.0892142
0.0910275
0.0928449
0.0946655
0.0964884
0.0983127
0.100137
0.101961
0.103783
0.105603
0.107418
0.109227
0.11103
0.112824
0.114609
0.116381
0.11814
0.119884
0.12161
0.123317
0.125003
0.126665
0.128302
0.129911
0.13149
0.133036
0.134547
0.136021
0.137454
0.138845
0.14019
0.141488
0.142735
0.143929
0.145068
0.14615
0.147172
0.148133
0.149029
0.149861
0.150626
0.151324
0.151953
0.152514
0.153005
0.153428
0.153783
0.154071
0.154294
0.154453
0.154551
0.154591
0.154576
0.154509
0.154396
0.154238
0.154042
0.15381
0.153547
0.153257
0.152945
0.152579
0.152133
0.00123678
0.000845665
0.000518704
0.00023097
-4.41695e-05
-0.000303887
-0.000544803
-0.000765452
-0.000964215
-0.00113931
-0.00128911
-0.00141223
-0.00150741
-0.00157354
-0.00160959
-0.00161469
-0.00158816
-0.00152945
-0.00143813
-0.00131387
-0.00115645
-0.000965765
-0.000741794
-0.00048458
-0.000194215
0.000129169
0.000485403
0.000874301
0.00129566
0.00174924
0.0022348
0.00275208
0.00330079
0.00388062
0.00449126
0.00513238
0.00580363
0.00650468
0.00723519
0.00799482
0.00878319
0.00959996
0.0104448
0.0113172
0.0122169
0.0131434
0.0140966
0.0150758
0.0160809
0.0171115
0.0181672
0.0192476
0.0203524
0.0214812
0.0226336
0.0238092
0.0250076
0.0262284
0.0274712
0.0287356
0.0300212
0.0313276
0.0326544
0.0340013
0.0353678
0.0367537
0.0381585
0.0395819
0.0410235
0.0424829
0.0439598
0.0454538
0.0469645
0.0484917
0.0500351
0.0515943
0.0531689
0.0547586
0.0563631
0.057982
0.059615
0.0612617
0.0629216
0.0645943
0.0662794
0.0679766
0.0696853
0.0714052
0.0731358
0.0748767
0.0766275
0.0783879
0.0801572
0.081935
0.0837206
0.0855133
0.0873124
0.0891172
0.0909268
0.0927406
0.0945577
0.0963771
0.0981979
0.100019
0.10184
0.103658
0.105475
0.107287
0.109093
0.110893
0.112684
0.114466
0.116235
0.117992
0.119733
0.121457
0.123163
0.124847
0.126508
0.128144
0.129752
0.13133
0.132876
0.134387
0.13586
0.137294
0.138685
0.140031
0.14133
0.142579
0.143775
0.144916
0.146
0.147025
0.147988
0.148888
0.149723
0.150492
0.151193
0.151826
0.15239
0.152885
0.153312
0.153671
0.153963
0.154189
0.154351
0.154451
0.154492
0.154477
0.154409
0.154291
0.154128
0.153921
0.153676
0.153393
0.153079
0.152736
0.152329
0.151826
0.00145824
0.00102157
0.00066202
0.000351329
5.84831e-05
-0.000214311
-0.000464121
-0.000690201
-0.000891706
-0.00106753
-0.00121652
-0.00133766
-0.00143006
-0.00149292
-0.0015255
-0.00152713
-0.00149726
-0.00143544
-0.00134134
-0.00121471
-0.00105539
-0.000863308
-0.000638428
-0.000380783
-9.04558e-05
0.000232438
0.000587758
0.000975359
0.00139509
0.00184677
0.00233014
0.00284497
0.00339101
0.00396798
0.0045756
0.00521356
0.00588154
0.00657919
0.00730621
0.00806227
0.00884703
0.00966013
0.0105012
0.0113699
0.0122659
0.0131887
0.0141382
0.0151139
0.0161155
0.0171426
0.018195
0.0192721
0.0203737
0.0214993
0.0226486
0.0238212
0.0250166
0.0262345
0.0274744
0.028736
0.0300188
0.0313223
0.0326464
0.0339906
0.0353545
0.0367377
0.03814
0.0395608
0.0409999
0.0424568
0.0439312
0.0454226
0.0469308
0.0484554
0.0499961
0.0515526
0.0531245
0.0547115
0.0563133
0.0579295
0.0595598
0.0612037
0.0628609
0.0645308
0.0662132
0.0679075
0.0696134
0.0713304
0.0730581
0.0747961
0.076544
0.0783014
0.0800677
0.0818425
0.083625
0.0854146
0.0872105
0.0890122
0.0908189
0.0926297
0.0944439
0.0962606
0.0980788
0.0998975
0.101716
0.103532
0.105346
0.107156
0.108961
0.110758
0.112548
0.114328
0.116097
0.117852
0.119592
0.121316
0.123021
0.124706
0.126367
0.128004
0.129613
0.131193
0.13274
0.134253
0.135728
0.137164
0.138558
0.139907
0.141209
0.142461
0.143661
0.144807
0.145895
0.146924
0.147892
0.148796
0.149636
0.150409
0.151114
0.151752
0.15232
0.15282
0.15325
0.153613
0.153907
0.154136
0.1543
0.154401
0.154441
0.154424
0.154352
0.154228
0.154055
0.153837
0.153575
0.153272
0.152933
0.15256
0.152115
0.15156
0.0016523
0.00117305
0.000782152
0.000448556
0.00013745
-0.000149483
-0.000409681
-0.000642918
-0.000848915
-0.00102714
-0.00117695
-0.0012977
-0.0013888
-0.0014497
-0.00147994
-0.00147906
-0.00144667
-0.00138243
-0.00128611
-0.00115754
-0.000996636
-0.000803334
-0.000577633
-0.000319566
-2.92029e-05
0.000293358
0.000648001
0.00103461
0.00145305
0.00190316
0.00238474
0.00289756
0.0034414
0.00401599
0.00462108
0.00525639
0.0059216
0.0066164
0.00734049
0.00809355
0.00887523
0.00968522
0.0105232
0.0113887
0.0122815
0.0132013
0.0141477
0.0151204
0.0161191
0.0171433
0.0181929
0.0192673
0.0203662
0.0214893
0.0226361
0.0238062
0.0249992
0.0262146
0.0274521
0.0287113
0.0299918
0.0312931
0.0326148
0.0339568
0.0353185
0.0366996
0.0380998
0.0395185
0.0409556
0.0424104
0.0438827
0.045372
0.046878
0.0484005
0.049939
0.0514932
0.0530629
0.0546476
0.056247
0.0578609
0.0594888
0.0611303
0.0627851
0.0644526
0.0661325
0.0678244
0.0695279
0.0712425
0.0729678
0.0747034
0.0764488
0.0782037
0.0799675
0.0817396
0.0835195
0.0853065
0.0870999
0.0888991
0.0907034
0.0925119
0.094324
0.0961386
0.097955
0.099772
0.101589
0.103404
0.105216
0.107025
0.108829
0.110626
0.112415
0.114195
0.115964
0.117719
0.119461
0.121186
0.122892
0.124578
0.126242
0.127881
0.129493
0.131076
0.132627
0.134143
0.135623
0.137064
0.138462
0.139816
0.141124
0.142381
0.143587
0.144738
0.145832
0.146867
0.147841
0.148752
0.149597
0.150376
0.151087
0.15173
0.152303
0.152807
0.153242
0.153607
0.153904
0.154135
0.154299
0.154399
0.154438
0.154417
0.154339
0.154207
0.154023
0.153791
0.153513
0.153189
0.152825
0.152423
0.151941
0.15134
0.0018131
0.00129433
0.000873658
0.000517582
0.000188059
-0.000113557
-0.000385042
-0.00062666
-0.000838537
-0.00102054
-0.0011725
-0.00129413
-0.00138514
-0.00144523
-0.00147413
-0.00147161
-0.00143742
-0.00137138
-0.00127335
-0.00114325
-0.000981032
-0.000786685
-0.00056024
-0.000301747
-1.1273e-05
0.000311104
0.000665298
0.0010512
0.00146868
0.00191759
0.00239775
0.00290898
0.00345108
0.00402379
0.00462686
0.00526003
0.005923
0.00661548
0.0073372
0.00808783
0.00886703
0.00967447
0.0105099
0.0113729
0.0122631
0.0131804
0.0141244
0.0150947
0.0160911
0.0171131
0.0181604
0.0192328
0.0203296
0.0214506
0.0225955
0.0237636
0.0249547
0.0261682
0.0274038
0.0286612
0.0299398
0.0312393
0.0325593
0.0338995
0.0352595
0.036639
0.0380375
0.0394547
0.0408901
0.0423433
0.043814
0.0453016
0.046806
0.0483267
0.0498634
0.0514158
0.0529836
0.0545664
0.0561639
0.0577757
0.0594017
0.0610412
0.062694
0.0643595
0.0660374
0.0677272
0.0694287
0.0711412
0.0728646
0.0745982
0.0763416
0.0780945
0.0798562
0.0816262
0.083404
0.0851889
0.0869803
0.0887775
0.0905799
0.0923868
0.0941974
0.0960108
0.0978261
0.0996422
0.101458
0.103273
0.105085
0.106894
0.108698
0.110495
0.112285
0.114066
0.115836
0.117594
0.119337
0.121064
0.122774
0.124464
0.126131
0.127775
0.129391
0.130979
0.132535
0.134058
0.135543
0.13699
0.138396
0.139757
0.141071
0.142337
0.14355
0.144709
0.145811
0.146854
0.147835
0.148753
0.149606
0.150392
0.15111
0.151759
0.152338
0.152847
0.153285
0.153654
0.153953
0.154184
0.154348
0.154447
0.154482
0.154456
0.154371
0.15423
0.154035
0.153788
0.153491
0.153146
0.152757
0.152328
0.151812
0.151169
0.00193583
0.00138054
0.000931854
0.000554005
0.000206187
-0.000110368
-0.000393675
-0.000644448
-0.000863191
-0.00105009
-0.00120528
-0.00132884
-0.00142075
-0.00148096
-0.0015094
-0.00150598
-0.00147064
-0.00140334
-0.00130405
-0.00117276
-0.00100947
-0.00081423
-0.000587109
-0.000328172
-3.74916e-05
0.000284865
0.000638825
0.00102429
0.00144112
0.00188919
0.00236834
0.0028784
0.00341921
0.00399051
0.00459206
0.00522362
0.0058849
0.00657563
0.00729554
0.00804432
0.00882161
0.00962713
0.0104606
0.0113217
0.01221
0.0131255
0.0140677
0.0150363
0.0160309
0.0170513
0.0180971
0.019168
0.0202634
0.021383
0.0225264
0.0236931
0.0248828
0.026095
0.0273293
0.0285853
0.0298626
0.0311608
0.0324796
0.0338185
0.0351774
0.0365557
0.0379531
0.0393691
0.0408033
0.0422554
0.0437249
0.0452114
0.0467145
0.0482339
0.0497693
0.0513203
0.0528866
0.0544678
0.0560638
0.0576741
0.0592984
0.0609363
0.0625874
0.0642513
0.0659275
0.0676158
0.0693156
0.0710266
0.0727483
0.0744803
0.0762222
0.0779734
0.0797335
0.0815019
0.083278
0.0850614
0.0868513
0.0886472
0.0904484
0.0922543
0.0940641
0.0958769
0.0976917
0.0995077
0.101324
0.103139
0.104952
0.106761
0.108566
0.110365
0.112157
0.11394
0.115713
0.117473
0.11922
0.120952
0.122666
0.124361
0.126034
0.127683
0.129306
0.1309
0.132464
0.133994
0.135488
0.136943
0.138357
0.139727
0.141051
0.142326
0.143549
0.144717
0.145829
0.146881
0.147872
0.148799
0.149661
0.150455
0.151181
0.151837
0.152422
0.152937
0.15338
0.153752
0.154053
0.154285
0.154448
0.154545
0.154576
0.154544
0.154451
0.154299
0.154091
0.153829
0.153514
0.153147
0.152735
0.152279
0.151731
0.15105
0.00201665
0.00142758
0.000952613
0.000553913
0.000188173
-0.000143372
-0.000438818
-0.000699239
-0.000925509
-0.0011181
-0.0012774
-0.00140373
-0.00149736
-0.00155844
-0.0015871
-0.00158343
-0.0015475
-0.00147941
-0.00137922
-0.00124701
-0.00108286
-0.000886862
-0.000659115
-0.000399703
-0.000108701
0.000213815
0.000567761
0.000953033
0.00136953
0.00181711
0.00229565
0.00280499
0.00334495
0.00391532
0.00451586
0.00514635
0.00580651
0.00649606
0.00721475
0.00796228
0.00873828
0.00954249
0.0103747
0.0112345
0.0121217
0.0130359
0.013977
0.0149446
0.0159382
0.0169577
0.0180026
0.0190725
0.0201671
0.0212859
0.0224284
0.0235944
0.0247833
0.0259947
0.0272282
0.0284834
0.02976
0.0310575
0.0323756
0.0337139
0.0350721
0.0364498
0.0378465
0.0392619
0.0406954
0.0421468
0.0436155
0.0451013
0.0466036
0.0481221
0.0496566
0.0512066
0.0527719
0.0543521
0.0559469
0.057556
0.059179
0.0608157
0.0624655
0.0641281
0.0658031
0.06749
0.0691886
0.0708984
0.0726189
0.0743498
0.0760904
0.0778405
0.0795994
0.0813666
0.0831416
0.0849239
0.0867129
0.088508
0.0903086
0.0921141
0.0939237
0.0957365
0.0975516
0.0993681
0.101185
0.103001
0.104815
0.106626
0.108433
0.110235
0.11203
0.113816
0.115593
0.117358
0.11911
0.120847
0.122567
0.124268
0.125948
0.127605
0.129236
0.130839
0.132411
0.133951
0.135455
0.13692
0.138345
0.139727
0.141062
0.142348
0.143582
0.144762
0.145885
0.146949
0.14795
0.148888
0.14976
0.150564
0.151299
0.151964
0.152556
0.153077
0.153525
0.153901
0.154204
0.154437
0.154599
0.154693
0.154719
0.154681
0.154579
0.154416
0.154195
0.153916
0.153582
0.153195
0.152759
0.152278
0.151702
0.150985
0.00205251
0.00143202
0.000932345
0.000513787
0.000130688
-0.000215691
-0.000523427
-0.000793819
-0.00102806
-0.00122689
-0.00139093
-0.00152071
-0.0016167
-0.00167926
-0.0017087
-0.00170529
-0.00166923
-0.00160072
-0.00149994
-0.00136704
-0.00120219
-0.00100551
-0.000777155
-0.000517206
-0.000225753
9.71046e-05
0.000451266
0.000836628
0.0012531
0.00170058
0.00217891
0.00268796
0.00322757
0.0037975
0.00439755
0.00502753
0.00568714
0.00637611
0.00709419
0.00784107
0.00861643
0.00942002
0.0102516
0.0111109
0.0119975
0.0129113
0.013852
0.0148192
0.0158125
0.0168317
0.0178764
0.0189461
0.0200405
0.0211591
0.0223014
0.0234672
0.0246559
0.0258671
0.0271005
0.0283555
0.029632
0.0309293
0.0322473
0.0335855
0.0349436
0.0363212
0.0377178
0.039133
0.0405664
0.0420175
0.043486
0.0449714
0.0464734
0.0479915
0.0495254
0.0510749
0.0526396
0.0542191
0.0558132
0.0574215
0.0590437
0.0606795
0.0623284
0.0639901
0.0656641
0.0673501
0.0690478
0.0707567
0.0724764
0.0742064
0.0759463
0.0776955
0.0794536
0.0812201
0.0829945
0.0847763
0.0865649
0.0883598
0.0901604
0.091966
0.0937759
0.0955893
0.0974053
0.0992229
0.101041
0.102859
0.104675
0.106489
0.108299
0.110104
0.111903
0.113694
0.115476
0.117247
0.119005
0.120749
0.122476
0.124185
0.125873
0.127539
0.12918
0.130793
0.132376
0.133927
0.135443
0.136921
0.138359
0.139753
0.141101
0.142401
0.143648
0.144842
0.145978
0.147055
0.148069
0.14902
0.149903
0.150719
0.151464
0.152138
0.152739
0.153266
0.15372
0.1541
0.154406
0.154639
0.154801
0.154892
0.154913
0.154868
0.154757
0.154582
0.154346
0.154052
0.153699
0.153291
0.152833
0.152328
0.151724
0.150975
0.0020409
0.00139106
0.000868041
0.000430511
3.06819e-05
-0.000330203
-0.000650209
-0.000930772
-0.00117328
-0.00137874
-0.00154796
-0.00168168
-0.00178052
-0.00184505
-0.00187573
-0.00187298
-0.00183714
-0.0017685
-0.00166735
-0.00153394
-0.00136849
-0.00117117
-0.000942159
-0.000681569
-0.000389517
-6.61172e-05
0.00028852
0.00067429
0.00109111
0.00153887
0.00201743
0.00252666
0.00306639
0.00363642
0.00423655
0.00486659
0.00552624
0.00621523
0.00693332
0.00768022
0.00845562
0.00925927
0.010091
0.0109504
0.0118372
0.0127513
0.0136922
0.0146597
0.0156535
0.0166731
0.0177182
0.0187884
0.0198833
0.0210023
0.0221451
0.0233114
0.0245005
0.0257122
0.0269459
0.0282015
0.0294784
0.0307762
0.0320947
0.0334334
0.0347919
0.03617
0.0375669
0.0389824
0.0404161
0.0418674
0.0433361
0.0448217
0.0463237
0.0478418
0.0493758
0.0509251
0.0524896
0.0540689
0.0556627
0.0572706
0.0588924
0.0605277
0.0621761
0.0638372
0.0655106
0.0671961
0.0688932
0.0706015
0.0723207
0.0740502
0.0757896
0.0775385
0.0792962
0.0810625
0.0828367
0.0846184
0.0864072
0.0882024
0.0900034
0.0918097
0.0936205
0.0954351
0.0972524
0.0990718
0.100892
0.102712
0.104532
0.106349
0.108163
0.109973
0.111777
0.113573
0.115361
0.117139
0.118904
0.120656
0.122392
0.12411
0.125809
0.127485
0.129137
0.130762
0.132358
0.133922
0.135452
0.136944
0.138397
0.139806
0.141169
0.142484
0.143747
0.144956
0.146107
0.147199
0.148228
0.149192
0.15009
0.150918
0.151675
0.152359
0.152969
0.153505
0.153965
0.15435
0.154659
0.154894
0.155054
0.155142
0.155159
0.155105
0.154985
0.154798
0.154548
0.154237
0.153866
0.153438
0.152958
0.152429
0.151799
0.151019
0.00197968
0.00130231
0.00075717
0.000301437
-0.000114559
-0.000489579
-0.000821701
-0.0011125
-0.00136349
-0.00157584
-0.00175056
-0.00188856
-0.00199064
-0.0020575
-0.00208976
-0.00208797
-0.0020526
-0.00198405
-0.0018827
-0.00174888
-0.00158286
-0.00138487
-0.0011551
-0.000893721
-0.000600874
-0.000276688
7.87264e-05
0.000465263
0.000882825
0.0013313
0.00181055
0.00232044
0.00286083
0.00343153
0.00403232
0.00466301
0.00532332
0.00601296
0.00673171
0.0074793
0.00825543
0.00905986
0.00989238
0.0107527
0.0116404
0.0125554
0.0134974
0.014466
0.0154609
0.0164816
0.0175279
0.0185993
0.0196952
0.0208154
0.0219594
0.0231267
0.024317
0.0255297
0.0267646
0.0280212
0.0292992
0.0305981
0.0319177
0.0332574
0.034617
0.0359959
0.0373937
0.03881
0.0402444
0.0416965
0.0431658
0.044652
0.0461545
0.0476731
0.0492075
0.0507572
0.052322
0.0539015
0.0554954
0.0571034
0.0587251
0.0603603
0.0620084
0.0636693
0.0653425
0.0670277
0.0687246
0.0704327
0.0721517
0.0738811
0.0756204
0.0773692
0.079127
0.0808934
0.0826679
0.0844501
0.0862395
0.0880354
0.0898375
0.0916449
0.0934571
0.0952733
0.0970927
0.0989143
0.100737
0.102561
0.104384
0.106205
0.108024
0.109839
0.111649
0.113453
0.115248
0.117033
0.118807
0.120568
0.122314
0.124043
0.125753
0.127441
0.129106
0.130745
0.132355
0.133935
0.13548
0.136988
0.138457
0.139883
0.141264
0.142596
0.143877
0.145103
0.146271
0.14738
0.148426
0.149406
0.150318
0.15116
0.15193
0.152626
0.153247
0.153792
0.15426
0.15465
0.154963
0.155199
0.155359
0.155444
0.155456
0.155395
0.155264
0.155065
0.154801
0.154474
0.154085
0.153636
0.153134
0.152583
0.151927
0.151119
0.00186695
0.00116367
0.000597526
0.0001243
-0.0003074
-0.00069624
-0.0010403
-0.0013413
-0.00160087
-0.0018203
-0.00200075
-0.00214329
-0.00224887
-0.00231834
-0.00235242
-0.0023518
-0.00231707
-0.00224875
-0.00214728
-0.00201307
-0.00184645
-0.00164768
-0.00141701
-0.00115464
-0.000860737
-0.000535456
-0.000178911
0.000208781
0.000627513
0.00107717
0.0015576
0.00206869
0.00261031
0.00318225
0.0037843
0.00441627
0.00507787
0.00576883