/*--------------------------------*- C++ -*----------------------------------*\
  =========                 |
  \\      /  F ield         | OpenFOAM: The Open Source CFD Toolbox
   \\    /   O peration     | Website:  https://openfoam.org
    \\  /    A nd           | Version:  7
     \\/     M anipulation  |
\*---------------------------------------------------------------------------*/
FoamFile
{
    version     2.0;
    format      ascii;
    class       surfaceScalarField;
    location    "0.35";
    object      phi;
}
// * * * * * * * * * * * * * * * * * * * * * * * * * * * * * * * * * * * * * //

dimensions      [0 3 -1 0 0 0 0];

internalField   nonuniform List<scalar> 
101920
(
-1.54969e-13
1.36296e-13
-5.20692e-13
3.65704e-13
-9.40501e-13
4.21592e-13
-1.28743e-12
3.50923e-13
-1.49245e-12
2.0218e-13
-1.50842e-12
1.53748e-14
-1.3159e-12
-1.93534e-13
-9.04569e-13
-4.13841e-13
-2.70383e-13
-6.36339e-13
5.83589e-13
-8.54907e-13
1.64995e-12
-1.06637e-12
2.91995e-12
-1.26915e-12
4.38378e-12
-1.46208e-12
6.03073e-12
-1.64472e-12
7.84937e-12
-1.81749e-12
9.82898e-12
-1.9799e-12
1.19596e-11
-2.13086e-12
1.42302e-11
-2.27032e-12
1.66293e-11
-2.39883e-12
1.91462e-11
-2.51661e-12
2.17705e-11
-2.62411e-12
2.44918e-11
-2.72173e-12
2.73009e-11
-2.80958e-12
3.01883e-11
-2.88794e-12
3.31448e-11
-2.95732e-12
3.61621e-11
-3.01809e-12
3.92319e-11
-3.07044e-12
4.23464e-11
-3.11457e-12
4.54977e-11
-3.15079e-12
4.86782e-11
-3.1795e-12
5.18802e-11
-3.20114e-12
5.50966e-11
-3.21611e-12
5.83211e-11
-3.22467e-12
6.15478e-11
-3.227e-12
6.47709e-11
-3.22325e-12
6.79848e-11
-3.21368e-12
7.11839e-11
-3.19872e-12
7.43628e-11
-3.17876e-12
7.75167e-11
-3.15408e-12
8.06411e-11
-3.12484e-12
8.3732e-11
-3.09119e-12
8.67851e-11
-3.05331e-12
8.97964e-11
-3.01143e-12
9.27621e-11
-2.96583e-12
9.56785e-11
-2.9168e-12
9.85424e-11
-2.86452e-12
1.01351e-10
-2.80906e-12
1.04101e-10
-2.75049e-12
1.0679e-10
-2.68897e-12
1.09415e-10
-2.62478e-12
1.11974e-10
-2.55821e-12
1.14463e-10
-2.4895e-12
1.16882e-10
-2.41874e-12
1.19227e-10
-2.34597e-12
1.21498e-10
-2.27122e-12
1.23692e-10
-2.19454e-12
1.25808e-10
-2.11605e-12
1.27844e-10
-2.03591e-12
1.29798e-10
-1.95432e-12
1.3167e-10
-1.87142e-12
1.33457e-10
-1.78738e-12
1.35159e-10
-1.70228e-12
1.36775e-10
-1.61617e-12
1.38303e-10
-1.52907e-12
1.39744e-10
-1.44101e-12
1.41096e-10
-1.35204e-12
1.42359e-10
-1.26226e-12
1.43531e-10
-1.17178e-12
1.44611e-10
-1.08071e-12
1.456e-10
-9.89106e-13
1.46497e-10
-8.96993e-13
1.47301e-10
-8.04377e-13
1.48012e-10
-7.11292e-13
1.4863e-10
-6.17809e-13
1.49155e-10
-5.24017e-13
1.49584e-10
-4.30001e-13
1.4992e-10
-3.35823e-13
1.50161e-10
-2.41514e-13
1.50308e-10
-1.47082e-13
1.5036e-10
-5.25382e-14
1.50318e-10
4.20873e-14
1.50181e-10
1.3674e-13
1.4995e-10
2.31356e-13
1.49625e-10
3.25888e-13
1.49205e-10
4.20306e-13
1.48691e-10
5.14581e-13
1.48082e-10
6.08661e-13
1.4738e-10
7.02471e-13
1.46584e-10
7.95929e-13
1.45695e-10
8.88974e-13
1.44714e-10
9.81566e-13
1.4364e-10
1.07367e-12
1.42475e-10
1.16526e-12
1.41219e-10
1.25624e-12
1.39872e-10
1.34653e-12
1.38437e-10
1.43601e-12
1.36912e-10
1.52463e-12
1.35299e-10
1.61236e-12
1.336e-10
1.69918e-12
1.31815e-10
1.78501e-12
1.29946e-10
1.86975e-12
1.27993e-10
1.95328e-12
1.25958e-10
2.03545e-12
1.23843e-10
2.11611e-12
1.21648e-10
2.19514e-12
1.19375e-10
2.27242e-12
1.17027e-10
2.34789e-12
1.14606e-10
2.42144e-12
1.12113e-10
2.49296e-12
1.09551e-10
2.5623e-12
1.06922e-10
2.6293e-12
1.04228e-10
2.69383e-12
1.01472e-10
2.75573e-12
9.86576e-11
2.81482e-12
9.57868e-11
2.87088e-12
9.28631e-11
2.92372e-12
8.989e-11
2.97313e-12
8.68711e-11
3.01895e-12
8.38102e-11
3.06099e-12
8.07113e-11
3.09907e-12
7.75786e-11
3.13296e-12
7.44163e-11
3.16239e-12
7.12293e-11
3.18712e-12
6.80224e-11
3.20692e-12
6.4801e-11
3.22158e-12
6.15703e-11
3.23088e-12
5.83361e-11
3.23454e-12
5.5104e-11
3.23222e-12
5.18805e-11
3.22357e-12
4.8672e-11
3.20832e-12
4.54856e-11
3.18622e-12
4.23285e-11
3.157e-12
3.92082e-11
3.12032e-12
3.61325e-11
3.07579e-12
3.31094e-11
3.02304e-12
3.01474e-11
2.96179e-12
2.72556e-11
2.89179e-12
2.44429e-11
2.8128e-12
2.17188e-11
2.72449e-12
1.9093e-11
2.62647e-12
1.65752e-11
2.5183e-12
1.41758e-11
2.3996e-12
1.19054e-11
2.27008e-12
9.77496e-12
2.12977e-12
7.7959e-12
1.97887e-12
5.97965e-12
1.81717e-12
4.33683e-12
1.644e-12
2.87721e-12
1.4595e-12
1.61107e-12
1.26496e-12
5.49073e-13
1.06138e-12
-2.99974e-13
8.49274e-13
-9.30093e-13
6.30398e-13
-1.33834e-12
4.0844e-13
-1.52752e-12
1.89157e-13
-1.50836e-12
-1.90693e-14
-1.30129e-12
-2.04997e-13
-9.43941e-13
-3.5389e-13
-5.09511e-13
-4.37664e-13
-1.31777e-13
-3.98393e-13
-1.61486e-13
-3.79343e-13
5.16372e-13
-1.04978e-12
1.03909e-12
-1.72261e-12
1.09489e-12
-2.18044e-12
8.05969e-13
-2.26422e-12
2.91004e-13
-1.87928e-12
-3.6897e-13
-9.64765e-13
-1.11485e-12
5.18109e-13
-1.9027e-12
2.58517e-12
-2.70462e-12
5.2348e-12
-3.50289e-12
8.4554e-12
-4.28441e-12
1.22298e-11
-5.03987e-12
1.65351e-11
-5.76416e-12
2.1345e-11
-6.45407e-12
2.66333e-11
-7.10668e-12
3.23732e-11
-7.71998e-12
3.85363e-11
-8.293e-12
4.50926e-11
-8.82549e-12
5.20127e-11
-9.318e-12
5.92676e-11
-9.77128e-12
6.68288e-11
-1.0186e-11
7.46689e-11
-1.05628e-11
8.27611e-11
-1.09028e-11
9.1079e-11
-1.12071e-11
9.95973e-11
-1.14768e-11
1.08292e-10
-1.17132e-11
1.17138e-10
-1.19173e-11
1.26115e-10
-1.20904e-11
1.35199e-10
-1.22335e-11
1.44368e-10
-1.2348e-11
1.53603e-10
-1.2435e-11
1.62883e-10
-1.24958e-11
1.72189e-10
-1.25316e-11
1.81505e-10
-1.25431e-11
1.90813e-10
-1.25313e-11
2.00097e-10
-1.24973e-11
2.09341e-10
-1.24425e-11
2.1853e-10
-1.23679e-11
2.2765e-10
-1.22745e-11
2.36688e-10
-1.2163e-11
2.4563e-10
-1.20343e-11
2.54466e-10
-1.18891e-11
2.63183e-10
-1.17285e-11
2.7177e-10
-1.15534e-11
2.80216e-10
-1.13644e-11
2.88513e-10
-1.11623e-11
2.96651e-10
-1.09476e-11
3.04622e-10
-1.07211e-11
3.12417e-10
-1.04835e-11
3.20029e-10
-1.02356e-11
3.27448e-10
-9.97802e-12
3.34669e-10
-9.71144e-12
3.41686e-10
-9.4363e-12
3.48492e-10
-9.153e-12
3.55083e-10
-8.86197e-12
3.61452e-10
-8.56366e-12
3.67595e-10
-8.25858e-12
3.73506e-10
-7.94724e-12
3.79182e-10
-7.63017e-12
3.84618e-10
-7.30783e-12
3.89811e-10
-6.98065e-12
3.94757e-10
-6.64894e-12
3.99453e-10
-6.313e-12
4.03896e-10
-5.97305e-12
4.08085e-10
-5.62936e-12
4.12015e-10
-5.28221e-12
4.15685e-10
-4.93194e-12
4.19092e-10
-4.57888e-12
4.22234e-10
-4.22332e-12
4.2511e-10
-3.86549e-12
4.27718e-10
-3.50557e-12
4.30058e-10
-3.14373e-12
4.32127e-10
-2.78018e-12
4.33924e-10
-2.41513e-12
4.35449e-10
-2.04882e-12
4.367e-10
-1.68148e-12
4.37676e-10
-1.31328e-12
4.38379e-10
-9.4439e-13
4.38806e-10
-5.74959e-13
4.38959e-10
-2.05165e-13
4.38836e-10
1.64805e-13
4.38439e-10
5.34777e-13
4.37766e-10
9.04594e-13
4.36819e-10
1.2741e-12
4.35596e-10
1.64311e-12
4.341e-10
2.01144e-12
4.3233e-10
2.37887e-12
4.30288e-10
2.74516e-12
4.27974e-10
3.11009e-12
4.25389e-10
3.47346e-12
4.22536e-10
3.83509e-12
4.19415e-10
4.19479e-12
4.16028e-10
4.55232e-12
4.12377e-10
4.90742e-12
4.08463e-10
5.25979e-12
4.0429e-10
5.60913e-12
3.9986e-10
5.95517e-12
3.95174e-10
6.29762e-12
3.90238e-10
6.63622e-12
3.85053e-10
6.97063e-12
3.79623e-10
7.30051e-12
3.73951e-10
7.62542e-12
3.68042e-10
7.94493e-12
3.619e-10
8.25859e-12
3.55529e-10
8.56597e-12
3.48935e-10
8.86664e-12
3.42123e-10
9.16014e-12
3.35098e-10
9.446e-12
3.27868e-10
9.72371e-12
3.20438e-10
9.99274e-12
3.12815e-10
1.02525e-11
3.05007e-10
1.05024e-11
2.97021e-10
1.07418e-11
2.88866e-10
1.097e-11
2.80551e-10
1.11863e-11
2.72084e-10
1.139e-11
2.63477e-10
1.15805e-11
2.54739e-10
1.17569e-11
2.45882e-10
1.19184e-11
2.36918e-10
1.20644e-11
2.27857e-10
1.21938e-11
2.18714e-10
1.23057e-11
2.09502e-10
1.23994e-11
2.00235e-10
1.2474e-11
1.90928e-10
1.25284e-11
1.81598e-10
1.25617e-11
1.7226e-10
1.25728e-11
1.62932e-10
1.25606e-11
1.53631e-10
1.25243e-11
1.44377e-10
1.24625e-11
1.35188e-10
1.23741e-11
1.26087e-10
1.22582e-11
1.17094e-10
1.21135e-11
1.08231e-10
1.19387e-11
9.95214e-11
1.17326e-11
9.09891e-11
1.14941e-11
8.2659e-11
1.12222e-11
7.45567e-11
1.09158e-11
6.67083e-11
1.05737e-11
5.91407e-11
1.01948e-11
5.18814e-11
9.77802e-12
4.49587e-11
9.32244e-12
3.84018e-11
8.82699e-12
3.224e-11
8.29118e-12
2.65025e-11
7.71565e-12
2.12179e-11
7.10122e-12
1.6415e-11
6.44783e-12
1.212e-11
5.75571e-12
8.35636e-12
5.02788e-12
5.14604e-12
4.26971e-12
2.50773e-12
3.48705e-12
4.52603e-13
2.68754e-12
-1.01938e-12
1.88358e-12
-1.92388e-12
1.0946e-12
-2.29786e-12
3.50619e-13
-2.20502e-12
-3.0436e-13
-1.74164e-12
-8.11735e-13
-1.05204e-12
-1.09559e-12
-3.52066e-13
-1.04506e-12
-5.27911e-13
-4.27845e-13
9.47109e-13
-1.10353e-12
1.72019e-12
-1.66474e-12
1.64963e-12
-1.8384e-12
9.77934e-13
-1.43273e-12
-1.14324e-13
-3.17044e-13
-1.48866e-12
1.6e-12
-3.03639e-12
4.37308e-12
-4.67855e-12
8.02788e-12
-6.36039e-12
1.25692e-11
-8.04286e-12
1.79862e-11
-9.69801e-12
2.42563e-11
-1.13066e-11
3.1349e-11
-1.28553e-11
3.92293e-11
-1.43343e-11
4.78594e-11
-1.57371e-11
5.71989e-11
-1.7059e-11
6.72049e-11
-1.82975e-11
7.78323e-11
-1.94518e-11
8.90367e-11
-2.0522e-11
1.00774e-10
-2.15085e-11
1.13e-10
-2.24126e-11
1.25672e-10
-2.32357e-11
1.38748e-10
-2.39798e-11
1.52187e-10
-2.46469e-11
1.65949e-10
-2.52394e-11
1.79995e-10
-2.57596e-11
1.94287e-10
-2.62099e-11
2.0879e-10
-2.65924e-11
2.23467e-10
-2.69097e-11
2.38284e-10
-2.71645e-11
2.53209e-10
-2.73593e-11
2.6821e-10
-2.74968e-11
2.83258e-10
-2.75789e-11
2.98323e-10
-2.7608e-11
3.13378e-10
-2.75863e-11
3.28397e-10
-2.75161e-11
3.43355e-10
-2.73998e-11
3.58226e-10
-2.72396e-11
3.72989e-10
-2.70376e-11
3.87621e-10
-2.67957e-11
4.02102e-10
-2.65158e-11
4.16412e-10
-2.61997e-11
4.30533e-10
-2.58493e-11
4.44445e-10
-2.54666e-11
4.58134e-10
-2.50532e-11
4.71582e-10
-2.46106e-11
4.84774e-10
-2.41404e-11
4.97698e-10
-2.36441e-11
5.10338e-10
-2.31231e-11
5.22681e-10
-2.25791e-11
5.34716e-10
-2.20134e-11
5.46431e-10
-2.14274e-11
5.57816e-10
-2.08222e-11
5.68862e-10
-2.01988e-11
5.79558e-10
-1.95584e-11
5.89896e-10
-1.89018e-11
5.99868e-10
-1.82303e-11
6.09466e-10
-1.75449e-11
6.18682e-10
-1.68467e-11
6.2751e-10
-1.61365e-11
6.35944e-10
-1.54152e-11
6.43978e-10
-1.46837e-11
6.51606e-10
-1.39425e-11
6.58826e-10
-1.31924e-11
6.6563e-10
-1.24339e-11
6.72016e-10
-1.16678e-11
6.77979e-10
-1.08948e-11
6.83516e-10
-1.01154e-11
6.88623e-10
-9.33044e-12
6.93297e-10
-8.54026e-12
6.97536e-10
-7.74534e-12
7.01339e-10
-6.94611e-12
7.04702e-10
-6.14305e-12
7.07624e-10
-5.33666e-12
7.10102e-10
-4.52743e-12
7.12136e-10
-3.71583e-12
7.13725e-10
-2.90229e-12
7.14867e-10
-2.0872e-12
7.15562e-10
-1.27093e-12
7.15811e-10
-4.53849e-13
7.15612e-10
3.63674e-13
7.14966e-10
1.18125e-12
7.13873e-10
1.99847e-12
7.12333e-10
2.81494e-12
7.10346e-10
3.63024e-12
7.07914e-10
4.44392e-12
7.05038e-10
5.25551e-12
7.01719e-10
6.06453e-12
6.97958e-10
6.87055e-12
6.93758e-10
7.67312e-12
6.89121e-10
8.47179e-12
6.8405e-10
9.2661e-12
6.78547e-10
1.00555e-11
6.72615e-10
1.08394e-11
6.66258e-10
1.16172e-11
6.59479e-10
1.23882e-11
6.52282e-10
1.31517e-11
6.44672e-10
1.39073e-11
6.36655e-10
1.46541e-11
6.28235e-10
1.53914e-11
6.19418e-10
1.61185e-11
6.10209e-10
1.68344e-11
6.00616e-10
1.75382e-11
5.90646e-10
1.8229e-11
5.80306e-10
1.89058e-11
5.69605e-10
1.95677e-11
5.58551e-10
2.02136e-11
5.47155e-10
2.08424e-11
5.35426e-10
2.14531e-11
5.23374e-10
2.20443e-11
5.11012e-10
2.26149e-11
4.98352e-10
2.31634e-11
4.85405e-10
2.36886e-11
4.72186e-10
2.41888e-11
4.5871e-10
2.46627e-11
4.44991e-10
2.51087e-11
4.31046e-10
2.55252e-11
4.16892e-10
2.59106e-11
4.02548e-10
2.62631e-11
3.88031e-10
2.6581e-11
3.73363e-10
2.68624e-11
3.58563e-10
2.71054e-11
3.43655e-10
2.7308e-11
3.28661e-10
2.74682e-11
3.13605e-10
2.75841e-11
2.98514e-10
2.76534e-11
2.83413e-10
2.76739e-11
2.6833e-10
2.76434e-11
2.53295e-10
2.75596e-11
2.38337e-10
2.74201e-11
2.23489e-10
2.72224e-11
2.08782e-10
2.69644e-11
1.94252e-10
2.66435e-11
1.79933e-10
2.62572e-11
1.65863e-10
2.5803e-11
1.52078e-10
2.52785e-11
1.3862e-10
2.46815e-11
1.25526e-10
2.40097e-11
1.1284e-10
2.32609e-11
1.00603e-10
2.24328e-11
8.88568e-11
2.15236e-11
7.76463e-11
2.05319e-11
6.7016e-11
1.94566e-11
5.70113e-11
1.8297e-11
4.76757e-11
1.7053e-11
3.90506e-11
1.57263e-11
3.11777e-11
1.43199e-11
2.40969e-11
1.28372e-11
1.7842e-11
1.12838e-11
1.24406e-11
9.66949e-12
7.91507e-12
8.00945e-12
4.2771e-12
6.32415e-12
1.52182e-12
4.64092e-12
-3.76832e-13
2.99731e-12
-1.4738e-12
1.44773e-12
-1.86306e-12
7.21444e-14
-1.68426e-12
-1.01661e-12
-1.11927e-12
-1.67183e-12
-4.19954e-13
-1.7237e-12
-9.46915e-13
-3.531e-13
1.30097e-12
-8.17177e-13
2.18436e-12
-9.94436e-13
1.8298e-12
-6.02578e-13
5.85012e-13
5.68767e-13
-1.29154e-12
2.67327e-12
-3.59847e-12
5.81606e-12
-6.18116e-12
1.00606e-11
-8.92386e-12
1.54405e-11
-1.17401e-11
2.19657e-11
-1.45661e-11
2.96259e-11
-1.73555e-11
3.83967e-11
-2.00753e-11
4.82436e-11
-2.27014e-11
5.91246e-11
-2.52162e-11
7.09937e-11
-2.76067e-11
8.38002e-11
-2.98646e-11
9.7489e-11
-3.1985e-11
1.12004e-10
-3.39655e-11
1.27287e-10
-3.58048e-11
1.43282e-10
-3.75034e-11
1.59932e-10
-3.90627e-11
1.7718e-10
-4.04845e-11
1.94971e-10
-4.17718e-11
2.13251e-10
-4.29278e-11
2.31966e-10
-4.39562e-11
2.51066e-10
-4.48604e-11
2.70501e-10
-4.56441e-11
2.9022e-10
-4.63112e-11
3.10178e-10
-4.68662e-11
3.30328e-10
-4.73132e-11
3.50625e-10
-4.76565e-11
3.71029e-10
-4.79001e-11
3.91497e-10
-4.80479e-11
4.11993e-10
-4.81035e-11
4.32479e-10
-4.8071e-11
4.52917e-10
-4.79542e-11
4.73275e-10
-4.77572e-11
4.93518e-10
-4.74836e-11
5.13617e-10
-4.7137e-11
5.33542e-10
-4.67206e-11
5.53264e-10
-4.62377e-11
5.72756e-10
-4.56918e-11
5.91992e-10
-4.50859e-11
6.10948e-10
-4.44234e-11
6.29602e-10
-4.3707e-11
6.4793e-10
-4.29396e-11
6.65913e-10
-4.21236e-11
6.83531e-10
-4.12617e-11
7.00765e-10
-4.03568e-11
7.17597e-10
-3.94112e-11
7.34011e-10
-3.84275e-11
7.4999e-10
-3.74079e-11
7.65522e-10
-3.63544e-11
7.80591e-10
-3.52688e-11
7.95186e-10
-3.41533e-11
8.09294e-10
-3.30095e-11
8.22904e-10
-3.18394e-11
8.36004e-10
-3.06449e-11
8.48585e-10
-2.94276e-11
8.60636e-10
-2.81891e-11
8.72151e-10
-2.6931e-11
8.83121e-10
-2.56545e-11
8.93539e-10
-2.43609e-11
9.03397e-10
-2.30514e-11
9.12691e-10
-2.17272e-11
9.21413e-10
-2.03896e-11
9.29558e-10
-1.90397e-11
9.37121e-10
-1.76786e-11
9.44097e-10
-1.63074e-11
9.50484e-10
-1.49268e-11
9.56276e-10
-1.35379e-11
9.61471e-10
-1.21413e-11
9.66067e-10
-1.0738e-11
9.70059e-10
-9.32881e-12
9.73446e-10
-7.91461e-12
9.76226e-10
-6.49618e-12
9.78397e-10
-5.07424e-12
9.79959e-10
-3.6495e-12
9.8091e-10
-2.22262e-12
9.8125e-10
-7.94289e-13
9.80979e-10
6.34795e-13
9.80097e-10
2.06393e-12
9.78604e-10
3.49239e-12
9.765e-10
4.91946e-12
9.73786e-10
6.34438e-12
9.70464e-10
7.7664e-12
9.66535e-10
9.18473e-12
9.62001e-10
1.05986e-11
9.56864e-10
1.20071e-11
9.51128e-10
1.34095e-11
9.44794e-10
1.4805e-11
9.37868e-10
1.61926e-11
9.30352e-10
1.75715e-11
9.22251e-10
1.89406e-11
9.13569e-10
2.02988e-11
9.04312e-10
2.16451e-11
8.94486e-10
2.29781e-11
8.84096e-10
2.42969e-11
8.7315e-10
2.56003e-11
8.61655e-10
2.68868e-11
8.49619e-10
2.81551e-11
8.37051e-10
2.94036e-11
8.23959e-10
3.06308e-11
8.10353e-10
3.1835e-11
7.96244e-10
3.30146e-11
7.81643e-10
3.41679e-11
7.66564e-10
3.52929e-11
7.51019e-10
3.63879e-11
7.35021e-10
3.74509e-11
7.18586e-10
3.84796e-11
7.0173e-10
3.94719e-11
6.84468e-10
4.04254e-11
6.66819e-10
4.13377e-11
6.48802e-10
4.22063e-11
6.30435e-10
4.30288e-11
6.11742e-10
4.38023e-11
5.92743e-10
4.45242e-11
5.73462e-10
4.51915e-11
5.53924e-10
4.58013e-11
5.34154e-10
4.63505e-11
5.14181e-10
4.68359e-11
4.94032e-10
4.72542e-11
4.73738e-10
4.7602e-11
4.5333e-10
4.7876e-11
4.32842e-10
4.80727e-11
4.12307e-10
4.81882e-11
3.91763e-10
4.82189e-11
3.71246e-10
4.81607e-11
3.50795e-10
4.80099e-11
3.30452e-10
4.77626e-11
3.10259e-10
4.74149e-11
2.90261e-10
4.69626e-11
2.70503e-10
4.64016e-11
2.51032e-10
4.57279e-11
2.31897e-10
4.49373e-11
2.1315e-10
4.40261e-11
1.94842e-10
4.29902e-11
1.77027e-10
4.18261e-11
1.59758e-10
4.05303e-11
1.43091e-10
3.90999e-11
1.27083e-10
3.75319e-11
1.11789e-10
3.58243e-11
9.72688e-11
3.39763e-11
8.35789e-11
3.19878e-11
7.07757e-11
2.98589e-11
5.89121e-11
2.7592e-11
4.80385e-11
2.51929e-11
3.82033e-11
2.26706e-11
2.94482e-11
2.00369e-11
2.18064e-11
1.73093e-11
1.53014e-11
1.45133e-11
9.94269e-12
1.16835e-11
5.71945e-12
8.86638e-12
2.59806e-12
6.12449e-12
5.15143e-13
3.54299e-12
-6.34845e-13
1.23659e-12
-1.0105e-12
-6.37601e-13
-8.31167e-13
-1.86955e-12
-3.56766e-13
-2.19987e-12
-1.29988e-12
-2.07826e-13
1.50429e-12
-3.0097e-13
2.27933e-12
9.71522e-14
1.43352e-12
1.26637e-12
-5.86815e-13
3.41891e-12
-3.45004e-12
6.71268e-12
-6.89702e-12
1.12571e-11
-1.07274e-11
1.71207e-11
-1.47874e-11
2.43412e-11
-1.89587e-11
3.29304e-11
-2.31518e-11
4.28785e-11
-2.73004e-11
5.41595e-11
-3.13553e-11
6.67364e-11
-3.52791e-11
8.05631e-11
-3.90442e-11
9.55863e-11
-4.26305e-11
1.11747e-10
-4.60247e-11
1.28981e-10
-4.92183e-11
1.47222e-10
-5.22062e-11
1.66404e-10
-5.49859e-11
1.86458e-10
-5.75569e-11
2.07315e-10
-5.99203e-11
2.28908e-10
-6.20786e-11
2.51171e-10
-6.40355e-11
2.74037e-10
-6.57952e-11
2.97442e-10
-6.73624e-11
3.21323e-10
-6.87421e-11
3.4562e-10
-6.99398e-11
3.70271e-10
-7.09612e-11
3.95218e-10
-7.18126e-11
4.20406e-10
-7.25001e-11
4.45779e-10
-7.30298e-11
4.71286e-10
-7.34075e-11
4.96877e-10
-7.36389e-11
5.22504e-10
-7.37298e-11
5.4812e-10
-7.36862e-11
5.73681e-10
-7.3514e-11
5.99142e-10
-7.32189e-11
6.24465e-10
-7.28064e-11
6.49609e-10
-7.22819e-11
6.74538e-10
-7.16502e-11
6.99217e-10
-7.09166e-11
7.23611e-10
-7.00862e-11
7.47688e-10
-6.91637e-11
7.71418e-10
-6.81539e-11
7.94771e-10
-6.70611e-11
8.17721e-10
-6.58895e-11
8.40241e-10
-6.46432e-11
8.62306e-10
-6.33263e-11
8.83892e-10
-6.1943e-11
9.04978e-10
-6.0497e-11
9.25541e-10
-5.89921e-11
9.45564e-10
-5.74314e-11
9.65027e-10
-5.58181e-11
9.83913e-10
-5.41554e-11
1.00221e-09
-5.24462e-11
1.01989e-09
-5.06934e-11
1.03695e-09
-4.89e-11
1.05338e-09
-4.70687e-11
1.06915e-09
-4.5202e-11
1.08426e-09
-4.33024e-11
1.0987e-09
-4.13722e-11
1.11246e-09
-3.94134e-11
1.12553e-09
-3.74279e-11
1.13789e-09
-3.54178e-11
1.14955e-09
-3.33849e-11
1.16049e-09
-3.1331e-11
1.17071e-09
-2.92581e-11
1.1802e-09
-2.71677e-11
1.18895e-09
-2.50614e-11
1.19697e-09
-2.29407e-11
1.20424e-09
-2.08067e-11
1.21076e-09
-1.86609e-11
1.21652e-09
-1.65047e-11
1.22153e-09
-1.43393e-11
1.22578e-09
-1.21661e-11
1.22927e-09
-9.98618e-12
1.232e-09
-7.80078e-12
1.23396e-09
-5.61096e-12
1.23516e-09
-3.41782e-12
1.23558e-09
-1.22245e-12
1.23524e-09
9.74051e-13
1.23414e-09
3.17059e-12
1.23227e-09
5.36605e-12
1.22963e-09
7.55932e-12
1.22622e-09
9.74923e-12
1.22205e-09
1.19346e-11
1.21712e-09
1.41141e-11
1.21144e-09
1.62867e-11
1.20499e-09
1.8451e-11
1.1978e-09
2.06058e-11
1.18985e-09
2.27498e-11
1.18116e-09
2.48815e-11
1.17173e-09
2.69995e-11
1.16157e-09
2.91022e-11
1.15068e-09
3.11879e-11
1.13907e-09
3.3255e-11
1.12675e-09
3.53017e-11
1.11372e-09
3.73261e-11
1.09999e-09
3.93265e-11
1.08558e-09
4.13007e-11
1.07049e-09
4.32465e-11
1.05473e-09
4.51617e-11
1.03832e-09
4.70437e-11
1.02127e-09
4.88901e-11
1.00358e-09
5.06984e-11
9.85283e-10
5.24659e-11
9.66387e-10
5.41898e-11
9.46908e-10
5.58671e-11
9.26865e-10
5.74946e-11
9.06276e-10
5.90692e-11
8.8516e-10
6.05875e-11
8.6354e-10
6.20459e-11
8.41437e-10
6.34408e-11
8.18876e-10
6.47682e-11
7.9588e-10
6.60244e-11
7.72477e-10
6.72053e-11
7.48694e-10
6.83066e-11
7.24562e-10
6.93239e-11
7.00111e-10
7.02528e-11
6.75373e-10
7.10885e-11
6.50383e-10
7.18262e-11
6.25176e-10
7.24609e-11
5.9979e-10
7.29877e-11
5.74266e-10
7.34011e-11
5.48643e-10
7.3696e-11
5.22965e-10
7.38666e-11
4.97276e-10
7.39075e-11
4.71624e-10
7.38129e-11
4.46057e-10
7.35769e-11
4.20626e-10
7.31937e-11
3.95383e-10
7.26575e-11
3.70383e-10
7.19624e-11
3.45683e-10
7.11022e-11
3.21339e-10
7.00709e-11
2.97414e-10
6.88629e-11
2.73968e-10
6.74723e-11
2.51065e-10
6.58936e-11
2.2877e-10
6.41219e-11
2.07149e-10
6.21525e-11
1.86268e-10
5.99815e-11
1.66195e-10
5.76052e-11
1.47e-10
5.50207e-11
1.28748e-10
5.22273e-11
1.1151e-10
4.9226e-11
9.53491e-11
4.60192e-11
8.03298e-11
4.26117e-11
6.651e-11
3.9013e-11
5.39436e-11
3.52372e-11
4.26778e-11
3.13034e-11
3.27498e-11
2.72382e-11
2.41841e-11
2.30791e-11
1.69882e-11
1.88769e-11
1.1148e-11
1.46999e-11
6.62559e-12
1.06394e-11
3.35283e-12
6.81379e-12
1.22139e-12
3.37266e-12
7.5283e-14
5.19649e-13
-3.12865e-13
-1.48494e-12
-2.12798e-13
-2.30726e-12
-1.51126e-12
-1.79622e-14
1.52324e-12
3.58568e-13
1.90056e-12
1.46683e-12
3.20369e-13
3.56829e-12
-2.69204e-12
6.86162e-12
-6.74686e-12
1.14966e-11
-1.15346e-11
1.75793e-11
-1.6811e-11
2.51786e-11
-2.23852e-11
3.43321e-11
-2.81083e-11
4.50503e-11
-3.38661e-11
5.73226e-11
-3.95712e-11
7.11223e-11
-4.51559e-11
8.64102e-11
-5.05686e-11
1.03136e-10
-5.57709e-11
1.2124e-10
-6.07349e-11
1.40657e-10
-6.54411e-11
1.61316e-10
-6.98765e-11
1.83143e-10
-7.40325e-11
2.06062e-10
-7.79043e-11
2.29996e-10
-8.14903e-11
2.54866e-10
-8.47912e-11
2.80596e-10
-8.78095e-11
3.07109e-10
-9.05494e-11
3.34329e-10
-9.30161e-11
3.62181e-10
-9.52155e-11
3.90593e-10
-9.7154e-11
4.19493e-10
-9.88389e-11
4.48811e-10
-1.00278e-10
4.78478e-10
-1.01479e-10
5.0843e-10
-1.02451e-10
5.38602e-10
-1.03202e-10
5.68934e-10
-1.03739e-10
5.99366e-10
-1.04071e-10
6.29842e-10
-1.04205e-10
6.60307e-10
-1.0415e-10
6.90708e-10
-1.03914e-10
7.20993e-10
-1.03505e-10
7.51116e-10
-1.0293e-10
7.8103e-10
-1.02196e-10
8.1069e-10
-1.01311e-10
8.40056e-10
-1.00282e-10
8.69085e-10
-9.91162e-11
8.9774e-10
-9.78198e-11
9.25985e-10
-9.63995e-11
9.53785e-10
-9.48614e-11
9.81107e-10
-9.32115e-11
1.00792e-09
-9.14557e-11
1.03419e-09
-8.95999e-11
1.0599e-09
-8.76496e-11
1.08501e-09
-8.56102e-11
1.10951e-09
-8.34866e-11
1.13336e-09
-8.12836e-11
1.15655e-09
-7.90057e-11
1.17905e-09
-7.66574e-11
1.20084e-09
-7.42429e-11
1.22192e-09
-7.17664e-11
1.24225e-09
-6.9232e-11
1.26182e-09
-6.66433e-11
1.28063e-09
-6.40042e-11
1.29864e-09
-6.1318e-11
1.31586e-09
-5.85878e-11
1.33226e-09
-5.58166e-11
1.34784e-09
-5.30074e-11
1.36258e-09
-5.01628e-11
1.37648e-09
-4.72857e-11
1.38953e-09
-4.43786e-11
1.40172e-09
-4.14442e-11
1.41303e-09
-3.84847e-11
1.42347e-09
-3.55023e-11
1.43303e-09
-3.24991e-11
1.4417e-09
-2.94771e-11
1.44948e-09
-2.6438e-11
1.45636e-09
-2.3384e-11
1.46234e-09
-2.03168e-11
1.46741e-09
-1.72383e-11
1.47157e-09
-1.41502e-11
1.47482e-09
-1.10543e-11
1.47717e-09
-7.95194e-12
1.47859e-09
-4.84486e-12
1.4791e-09
-1.73459e-12
1.4787e-09
1.3773e-12
1.47738e-09
4.48923e-12
1.47515e-09
7.59961e-12
1.472e-09
1.07068e-11
1.46794e-09
1.38091e-11
1.46297e-09
1.69048e-11
1.4571e-09
1.99922e-11
1.45031e-09
2.30696e-11
1.44263e-09
2.61351e-11
1.43405e-09
2.91869e-11
1.42457e-09
3.22232e-11
1.41421e-09
3.52419e-11
1.40297e-09
3.82409e-11
1.39086e-09
4.12179e-11
1.37787e-09
4.41705e-11
1.36403e-09
4.70964e-11
1.34934e-09
4.99932e-11
1.33381e-09
5.28581e-11
1.31745e-09
5.56884e-11
1.30027e-09
5.84813e-11
1.28228e-09
6.12336e-11
1.2635e-09
6.3942e-11
1.24394e-09
6.66031e-11
1.22362e-09
6.92135e-11
1.20255e-09
7.17694e-11
1.18075e-09
7.42671e-11
1.15823e-09
7.67025e-11
1.13503e-09
7.90714e-11
1.11116e-09
8.13695e-11
1.08663e-09
8.35922e-11
1.06149e-09
8.57346e-11
1.03574e-09
8.77919e-11
1.00942e-09
8.97589e-11
9.82561e-10
9.16301e-11
9.55185e-10
9.34001e-11
9.27327e-10
9.50631e-11
8.9902e-10
9.66133e-11
8.70299e-10
9.80446e-11
8.41202e-10
9.93504e-11
8.11766e-10
1.00524e-10
7.82033e-10
1.01559e-10
7.52046e-10
1.02449e-10
7.21848e-10
1.03186e-10
6.91486e-10
1.03763e-10
6.61011e-10
1.04172e-10
6.30471e-10
1.04406e-10
5.99921e-10
1.04458e-10
5.69415e-10
1.04319e-10
5.39011e-10
1.03981e-10
5.08769e-10
1.03436e-10
4.7875e-10
1.02677e-10
4.49018e-10
1.01694e-10
4.19639e-10
1.00481e-10
3.90681e-10
9.90281e-11
3.62215e-10
9.73288e-11
3.34312e-10
9.53752e-11
3.07046e-10
9.31602e-11
2.80493e-10
9.0677e-11
2.54727e-10
8.79198e-11
2.29826e-10
8.48835e-11
2.05866e-10
8.15644e-11
1.82927e-10
7.79597e-11
1.61086e-10
7.40688e-11
1.40418e-10
6.98937e-11
1.20997e-10
6.54397e-11
1.02894e-10
6.07153e-11
8.61745e-11
5.57339e-11
7.08953e-11
5.05156e-11
5.71081e-11
4.50889e-11
4.48539e-11
3.94921e-11
3.41593e-11
3.37768e-11
2.50328e-11
2.80093e-11
1.74608e-11
2.22765e-11
1.14034e-11
1.66962e-11
6.78802e-12
1.14205e-11
3.51593e-12
6.6428e-12
1.43786e-12
2.60306e-12
3.44339e-13
-3.88167e-13
-2.45629e-14
-1.94126e-12
-1.53594e-12
1.92135e-13
1.33242e-12
1.10113e-12
9.85104e-13
3.01207e-12
-1.59722e-12
6.15236e-12
-5.83556e-12
1.06985e-11
-1.12941e-11
1.67848e-11
-1.76208e-11
2.45078e-11
-2.45323e-11
3.39306e-11
-3.18045e-11
4.50859e-11
-3.92601e-11
5.79814e-11
-4.67601e-11
7.2605e-11
-5.41953e-11
8.89281e-11
-6.14803e-11
1.06908e-10
-6.85494e-11
1.2649e-10
-7.5353e-11
1.4761e-10
-8.18543e-11
1.70196e-10
-8.80268e-11
1.94172e-10
-9.38519e-11
2.19458e-10
-9.93172e-11
2.4597e-10
-1.04415e-10
2.73622e-10
-1.09143e-10
3.0233e-10
-1.13499e-10
3.32007e-10
-1.17487e-10
3.62568e-10
-1.21112e-10
3.93929e-10
-1.24378e-10
4.26005e-10
-1.27293e-10
4.58716e-10
-1.29865e-10
4.91981e-10
-1.32102e-10
5.2572e-10
-1.34016e-10
5.59856e-10
-1.35616e-10
5.94316e-10
-1.36912e-10
6.29028e-10
-1.37914e-10
6.63923e-10
-1.38634e-10
6.98933e-10
-1.3908e-10
7.33993e-10
-1.39264e-10
7.69041e-10
-1.39197e-10
8.04016e-10
-1.38889e-10
8.3886e-10
-1.3835e-10
8.7352e-10
-1.37589e-10
9.0794e-10
-1.36617e-10
9.42073e-10
-1.35443e-10
9.75867e-10
-1.34077e-10
1.00928e-09
-1.32527e-10
1.04226e-09
-1.30803e-10
1.07477e-09
-1.28913e-10
1.10678e-09
-1.26865e-10
1.13823e-09
-1.24667e-10
1.1691e-09
-1.22327e-10
1.19936e-09
-1.19854e-10
1.22896e-09
-1.17253e-10
1.25788e-09
-1.14532e-10
1.28609e-09
-1.11699e-10
1.31357e-09
-1.08758e-10
1.34028e-09
-1.05717e-10
1.3662e-09
-1.02581e-10
1.39132e-09
-9.93557e-11
1.4156e-09
-9.60471e-11
1.43903e-09
-9.26605e-11
1.46158e-09
-8.92009e-11
1.48325e-09
-8.56731e-11
1.50401e-09
-8.20816e-11
1.52385e-09
-7.84306e-11
1.54276e-09
-7.47243e-11
1.56072e-09
-7.09665e-11
1.57772e-09
-6.7161e-11
1.59375e-09
-6.33115e-11
1.60879e-09
-5.94216e-11
1.62284e-09
-5.54947e-11
1.63589e-09
-5.15338e-11
1.64793e-09
-4.75419e-11
1.65895e-09
-4.35216e-11
1.66895e-09
-3.94758e-11
1.67792e-09
-3.54071e-11
1.68585e-09
-3.1318e-11
1.69275e-09
-2.72111e-11
1.6986e-09
-2.3089e-11
1.7034e-09
-1.89538e-11
1.70715e-09
-1.48079e-11
1.70985e-09
-1.06534e-11
1.7115e-09
-6.49236e-12
1.71209e-09
-2.32702e-12
1.71163e-09
1.84053e-12
1.71011e-09
6.00811e-12
1.70754e-09
1.01735e-11
1.70391e-09
1.43345e-11
1.69923e-09
1.84889e-11
1.6935e-09
2.26343e-11
1.68673e-09
2.67684e-11
1.67891e-09
3.08889e-11
1.67005e-09
3.49934e-11
1.66016e-09
3.90795e-11
1.64924e-09
4.31444e-11
1.63729e-09
4.71854e-11
1.62433e-09
5.11996e-11
1.61037e-09
5.51841e-11
1.5954e-09
5.91356e-11
1.57945e-09
6.30509e-11
1.56251e-09
6.69268e-11
1.54461e-09
7.07596e-11
1.52576e-09
7.45457e-11
1.50596e-09
7.82811e-11
1.48523e-09
8.19617e-11
1.46359e-09
8.5583e-11
1.44105e-09
8.91406e-11
1.41763e-09
9.26297e-11
1.39336e-09
9.60455e-11
1.36824e-09
9.93827e-11
1.34231e-09
1.02636e-10
1.31558e-09
1.058e-10
1.28808e-09
1.08868e-10
1.25984e-09
1.11835e-10
1.23088e-09
1.14695e-10
1.20123e-09
1.17439e-10
1.17093e-09
1.20063e-10
1.14e-09
1.22558e-10
1.10848e-09
1.24917e-10
1.07641e-09
1.27132e-10
1.04383e-09
1.29197e-10
1.01077e-09
1.31102e-10
9.77285e-10
1.32839e-10
9.4341e-10
1.344e-10
9.09194e-10
1.35775e-10
8.74688e-10
1.36955e-10
8.39942e-10
1.37932e-10
8.05009e-10
1.38695e-10
7.69946e-10
1.39235e-10
7.34811e-10
1.39542e-10
6.99664e-10
1.39605e-10
6.64568e-10
1.39415e-10
6.29589e-10
1.3896e-10
5.94795e-10
1.38231e-10
5.60254e-10
1.37217e-10
5.26041e-10
1.35907e-10
4.9223e-10
1.34292e-10
4.58896e-10
1.32361e-10
4.26121e-10
1.30104e-10
3.93983e-10
1.27513e-10
3.62567e-10
1.24577e-10
3.31956e-10
1.2129e-10
3.02235e-10
1.17643e-10
2.73489e-10
1.1363e-10
2.45803e-10
1.09249e-10
2.19264e-10
1.04497e-10
1.93958e-10
9.93748e-11
1.69968e-10
9.38847e-11
1.47373e-10
8.80349e-11
1.26251e-10
8.18384e-11
1.06672e-10
7.53141e-11
8.86989e-11
6.8489e-11
7.23867e-11
6.14002e-11
5.77796e-11
5.40976e-11
4.4905e-11
4.66478e-11
3.37733e-11
3.91366e-11
2.43782e-11
3.16729e-11
1.66838e-11
2.43953e-11
1.06219e-11
1.74824e-11
6.09686e-12
1.11646e-11
2.97907e-12
5.72272e-12
1.08439e-12
1.50962e-12
1.8535e-13
-1.04064e-12
-1.3508e-12
4.09126e-13
9.20838e-13
1.88807e-12
-4.97673e-13
4.65868e-12
-4.37067e-12
8.90618e-12
-1.00846e-11
1.47793e-11
-1.71672e-11
2.23921e-11
-2.52317e-11
3.18257e-11
-3.39629e-11
4.31322e-11
-4.31076e-11
5.63371e-11
-5.24629e-11
7.1443e-11
-6.18662e-11
8.8434e-11
-7.11877e-11
1.07278e-10
-8.03252e-11
1.27927e-10
-8.91992e-11
1.50323e-10
-9.77486e-11
1.74397e-10
-1.05927e-10
2.00073e-10
-1.13701e-10
2.27268e-10
-1.21046e-10
2.55897e-10
-1.27945e-10
2.85869e-10
-1.34387e-10
3.17094e-10
-1.40367e-10
3.49478e-10
-1.45884e-10
3.82929e-10
-1.50939e-10
4.17352e-10
-1.55537e-10
4.52657e-10
-1.59684e-10
4.88753e-10
-1.63388e-10
5.25548e-10
-1.66659e-10
5.62955e-10
-1.69508e-10
6.00887e-10
-1.71947e-10
6.39259e-10
-1.73987e-10
6.77989e-10
-1.75642e-10
7.16998e-10
-1.76923e-10
7.5621e-10
-1.77844e-10
7.95549e-10
-1.78418e-10
8.34944e-10
-1.78658e-10
8.74323e-10
-1.78576e-10
9.13621e-10
-1.78187e-10
9.52773e-10
-1.77503e-10
9.91719e-10
-1.76535e-10
1.0304e-09
-1.75296e-10
1.06875e-09
-1.73799e-10
1.10673e-09
-1.72055e-10
1.14428e-09
-1.70076e-10
1.18135e-09
-1.67874e-10
1.21789e-09
-1.65457e-10
1.25387e-09
-1.62839e-10
1.28923e-09
-1.60027e-10
1.32394e-09
-1.57034e-10
1.35795e-09
-1.53867e-10
1.39123e-09
-1.50538e-10
1.42375e-09
-1.47053e-10
1.45548e-09
-1.43423e-10
1.48638e-09
-1.39655e-10
1.51642e-09
-1.35758e-10
1.54557e-09
-1.31738e-10
1.57382e-09
-1.27603e-10
1.60113e-09
-1.2336e-10
1.62749e-09
-1.19017e-10
1.65287e-09
-1.14579e-10
1.67725e-09
-1.10052e-10
1.70061e-09
-1.05444e-10
1.72293e-09
-1.00758e-10
1.74421e-09
-9.60004e-11
1.76442e-09
-9.11763e-11
1.78355e-09
-8.62904e-11
1.80159e-09
-8.13477e-11
1.81852e-09
-7.63525e-11
1.83433e-09
-7.13092e-11
1.84902e-09
-6.62218e-11
1.86257e-09
-6.10941e-11
1.87498e-09
-5.59296e-11
1.88623e-09
-5.07318e-11
1.89633e-09
-4.55044e-11
1.90527e-09
-4.02506e-11
1.91303e-09
-3.49737e-11
1.91962e-09
-2.9677e-11
1.92502e-09
-2.43633e-11
1.92925e-09
-1.90355e-11
1.93229e-09
-1.36965e-11
1.93415e-09
-8.3491e-12
1.93482e-09
-2.99608e-12
1.9343e-09
2.35976e-12
1.9326e-09
7.71559e-12
1.9297e-09
1.30686e-11
1.92562e-09
1.84158e-11
1.92036e-09
2.37543e-11
1.91391e-09
2.90812e-11
1.90628e-09