/*--------------------------------*- C++ -*----------------------------------*\
  =========                 |
  \\      /  F ield         | OpenFOAM: The Open Source CFD Toolbox
   \\    /   O peration     | Website:  https://openfoam.org
    \\  /    A nd           | Version:  7
     \\/     M anipulation  |
\*---------------------------------------------------------------------------*/
FoamFile
{
    version     2.0;
    format      ascii;
    class       volVectorField;
    location    "0.5";
    object      U;
}
// * * * * * * * * * * * * * * * * * * * * * * * * * * * * * * * * * * * * * //

dimensions      [0 1 -1 0 0 0 0];

internalField   nonuniform List<vector> 
12800
(
(3.13379e-06 -3.38682e-06 0)
(1.80372e-05 -9.77897e-06 0)
(4.39795e-05 -1.19945e-05 0)
(7.02838e-05 -1.10776e-05 0)
(9.03597e-05 -8.41654e-06 0)
(0.000100886 -4.86825e-06 0)
(0.000100071 -9.2901e-07 0)
(8.70666e-05 3.10875e-06 0)
(6.16646e-05 7.07414e-06 0)
(2.40725e-05 1.08675e-05 0)
(-2.52499e-05 1.44291e-05 0)
(-8.56698e-05 1.77349e-05 0)
(-0.000156447 2.07672e-05 0)
(-0.000236799 2.35229e-05 0)
(-0.000325915 2.6007e-05 0)
(-0.000422988 2.82291e-05 0)
(-0.00052723 3.02019e-05 0)
(-0.000637883 3.19407e-05 0)
(-0.00075423 3.34622e-05 0)
(-0.000875598 3.47838e-05 0)
(-0.00100137 3.59234e-05 0)
(-0.00113096 3.68983e-05 0)
(-0.00126387 3.77262e-05 0)
(-0.00139961 3.84236e-05 0)
(-0.00153778 3.90064e-05 0)
(-0.00167801 3.94899e-05 0)
(-0.00181997 3.9888e-05 0)
(-0.00196339 4.0214e-05 0)
(-0.00210802 4.048e-05 0)
(-0.00225368 4.06973e-05 0)
(-0.00240019 4.08759e-05 0)
(-0.00254743 4.1025e-05 0)
(-0.0026953 4.11529e-05 0)
(-0.00284372 4.12671e-05 0)
(-0.00299264 4.13741e-05 0)
(-0.00314204 4.14797e-05 0)
(-0.00329189 4.1589e-05 0)
(-0.00344222 4.17065e-05 0)
(-0.00359304 4.18361e-05 0)
(-0.0037444 4.19812e-05 0)
(-0.00389632 4.21445e-05 0)
(-0.00404888 4.23285e-05 0)
(-0.00420213 4.25351e-05 0)
(-0.00435615 4.27662e-05 0)
(-0.00451102 4.3023e-05 0)
(-0.00466682 4.33067e-05 0)
(-0.00482362 4.36182e-05 0)
(-0.00498154 4.3958e-05 0)
(-0.00514064 4.43267e-05 0)
(-0.00530103 4.47244e-05 0)
(-0.0054628 4.51513e-05 0)
(-0.00562605 4.56074e-05 0)
(-0.00579086 4.60923e-05 0)
(-0.00595733 4.66058e-05 0)
(-0.00612555 4.71474e-05 0)
(-0.00629561 4.77163e-05 0)
(-0.00646759 4.8312e-05 0)
(-0.00664157 4.89332e-05 0)
(-0.00681764 4.95791e-05 0)
(-0.00699586 5.02482e-05 0)
(-0.00717631 5.09391e-05 0)
(-0.00735904 5.16502e-05 0)
(-0.00754412 5.23797e-05 0)
(-0.00773159 5.31254e-05 0)
(-0.00792149 5.3885e-05 0)
(-0.00811385 5.4656e-05 0)
(-0.0083087 5.54354e-05 0)
(-0.00850604 5.62202e-05 0)
(-0.00870587 5.70069e-05 0)
(-0.00890817 5.77918e-05 0)
(-0.00911292 5.85709e-05 0)
(-0.00932008 5.93398e-05 0)
(-0.00952957 6.00938e-05 0)
(-0.00974133 6.08275e-05 0)
(-0.00995525 6.15354e-05 0)
(-0.0101712 6.22114e-05 0)
(-0.0103891 6.28491e-05 0)
(-0.0106087 6.34416e-05 0)
(-0.0108298 6.39815e-05 0)
(-0.0110523 6.44612e-05 0)
(-0.0112759 6.48722e-05 0)
(-0.0115003 6.52058e-05 0)
(-0.0117253 6.54528e-05 0)
(-0.0119504 6.56036e-05 0)
(-0.0121753 6.56478e-05 0)
(-0.0123996 6.5575e-05 0)
(-0.0126229 6.53739e-05 0)
(-0.0128447 6.50332e-05 0)
(-0.0130645 6.45409e-05 0)
(-0.0132816 6.38848e-05 0)
(-0.0134956 6.30524e-05 0)
(-0.0137058 6.2031e-05 0)
(-0.0139116 6.08079e-05 0)
(-0.014112 5.93699e-05 0)
(-0.0143066 5.77042e-05 0)
(-0.0144943 5.57977e-05 0)
(-0.0146745 5.36379e-05 0)
(-0.0148461 5.12123e-05 0)
(-0.0150083 4.85092e-05 0)
(-0.0151602 4.55174e-05 0)
(-0.0153008 4.22264e-05 0)
(-0.0154289 3.86271e-05 0)
(-0.0155437 3.47112e-05 0)
(-0.0156441 3.04719e-05 0)
(-0.0157289 2.5904e-05 0)
(-0.0157972 2.10043e-05 0)
(-0.0158478 1.57716e-05 0)
(-0.0158796 1.0207e-05 0)
(-0.0158916 4.31433e-06 0)
(-0.0158829 -1.89936e-06 0)
(-0.0158522 -8.42487e-06 0)
(-0.0157988 -1.5249e-05 0)
(-0.0157217 -2.23551e-05 0)
(-0.01562 -2.97227e-05 0)
(-0.015493 -3.73275e-05 0)
(-0.01534 -4.51409e-05 0)
(-0.0151606 -5.31305e-05 0)
(-0.0149541 -6.12592e-05 0)
(-0.0147203 -6.94859e-05 0)
(-0.0144591 -7.77653e-05 0)
(-0.0141704 -8.60479e-05 0)
(-0.0138543 -9.42801e-05 0)
(-0.0135112 -0.000102405 0)
(-0.0131417 -0.000110362 0)
(-0.0127464 -0.000118088 0)
(-0.0123263 -0.000125517 0)
(-0.0118825 -0.000132582 0)
(-0.0114164 -0.000139214 0)
(-0.0109296 -0.000145345 0)
(-0.0104238 -0.000150905 0)
(-0.00990112 -0.000155827 0)
(-0.00936374 -0.000160047 0)
(-0.00881408 -0.000163501 0)
(-0.00825477 -0.000166132 0)
(-0.0076886 -0.000167886 0)
(-0.00711852 -0.000168715 0)
(-0.0065476 -0.000168579 0)
(-0.00597907 -0.000167442 0)
(-0.00541621 -0.000165278 0)
(-0.00486239 -0.000162068 0)
(-0.00432103 -0.000157802 0)
(-0.00379554 -0.000152477 0)
(-0.00328933 -0.0001461 0)
(-0.00280578 -0.000138685 0)
(-0.00234816 -0.000130254 0)
(-0.00191968 -0.000120835 0)
(-0.00152339 -0.000110466 0)
(-0.0011622 -9.9188e-05 0)
(-0.000838807 -8.70525e-05 0)
(-0.000555681 -7.41181e-05 0)
(-0.000315001 -6.04575e-05 0)
(-0.000118577 -4.61669e-05 0)
(3.2259e-05 -3.1385e-05 0)
(0.000136854 -1.63295e-05 0)
(0.000195564 -1.37977e-06 0)
(0.000210311 1.2766e-05 0)
(0.000185446 2.48215e-05 0)
(0.000129626 3.23099e-05 0)
(6.16345e-05 3.0621e-05 0)
(1.39266e-05 1.39462e-05 0)
(9.66388e-06 -1.8438e-05 0)
(4.16223e-05 -4.18142e-05 0)
(8.81995e-05 -4.79543e-05 0)
(0.000130765 -4.11266e-05 0)
(0.00015685 -2.60191e-05 0)
(0.000159097 -5.99168e-06 0)
(0.000132893 1.66822e-05 0)
(7.56445e-05 4.04765e-05 0)
(-1.36978e-05 6.43772e-05 0)
(-0.000135088 8.77138e-05 0)
(-0.000287722 0.000110045 0)
(-0.000470274 0.000131103 0)
(-0.000681067 0.000150715 0)
(-0.000918217 0.000168795 0)
(-0.00117972 0.000185313 0)
(-0.00146353 0.000200284 0)
(-0.00176761 0.000213749 0)
(-0.00208996 0.000225774 0)
(-0.00242869 0.000236438 0)
(-0.00278198 0.000245832 0)
(-0.00314814 0.000254051 0)
(-0.0035256 0.000261195 0)
(-0.00391293 0.000267365 0)
(-0.00430882 0.00027266 0)
(-0.00471209 0.000277177 0)
(-0.0051217 0.000281008 0)
(-0.00553672 0.000284242 0)
(-0.00595634 0.000286963 0)
(-0.00637988 0.000289249 0)
(-0.00680674 0.000291172 0)
(-0.00723643 0.0002928 0)
(-0.00766855 0.000294194 0)
(-0.00810278 0.000295409 0)
(-0.00853888 0.000296496 0)
(-0.00897667 0.0002975 0)
(-0.00941605 0.000298462 0)
(-0.00985695 0.000299417 0)
(-0.0102994 0.000300398 0)
(-0.0107433 0.000301432 0)
(-0.0111889 0.000302544 0)
(-0.0116362 0.000303755 0)
(-0.0120854 0.000305083 0)
(-0.0125367 0.000306542 0)
(-0.0129901 0.000308147 0)
(-0.013446 0.000309907 0)
(-0.0139044 0.000311832 0)
(-0.0143658 0.000313927 0)
(-0.0148302 0.000316199 0)
(-0.015298 0.000318652 0)
(-0.0157693 0.000321286 0)
(-0.0162445 0.000324104 0)
(-0.0167238 0.000327104 0)
(-0.0172074 0.000330286 0)
(-0.0176955 0.000333647 0)
(-0.0181885 0.000337183 0)
(-0.0186866 0.000340889 0)
(-0.0191899 0.000344758 0)
(-0.0196988 0.000348785 0)
(-0.0202133 0.000352959 0)
(-0.0207337 0.000357271 0)
(-0.0212602 0.00036171 0)
(-0.0217929 0.000366263 0)
(-0.0223319 0.000370917 0)
(-0.0228775 0.000375654 0)
(-0.0234295 0.000380459 0)
(-0.0239882 0.000385312 0)
(-0.0245536 0.000390191 0)
(-0.0251256 0.000395074 0)
(-0.0257041 0.000399935 0)
(-0.0262893 0.000404748 0)
(-0.0268808 0.000409482 0)
(-0.0274785 0.000414107 0)
(-0.0280823 0.000418588 0)
(-0.0286919 0.000422887 0)
(-0.0293069 0.000426966 0)
(-0.029927 0.000430781 0)
(-0.0305517 0.000434289 0)
(-0.0311805 0.000437441 0)
(-0.0318128 0.000440187 0)
(-0.032448 0.000442472 0)
(-0.0330854 0.000444241 0)
(-0.033724 0.000445434 0)
(-0.0343631 0.000445988 0)
(-0.0350015 0.000445839 0)
(-0.0356383 0.000444919 0)
(-0.0362722 0.000443157 0)
(-0.036902 0.000440481 0)
(-0.0375262 0.000436815 0)
(-0.0381434 0.000432084 0)
(-0.0387519 0.000426207 0)
(-0.03935 0.000419106 0)
(-0.039936 0.0004107 0)
(-0.0405078 0.000400907 0)
(-0.0410634 0.000389648 0)
(-0.0416007 0.000376841 0)
(-0.0421174 0.000362409 0)
(-0.0426111 0.000346275 0)
(-0.0430794 0.000328367 0)
(-0.0435197 0.000308614 0)
(-0.0439293 0.000286954 0)
(-0.0443055 0.000263328 0)
(-0.0446456 0.000237686 0)
(-0.0449467 0.000209986 0)
(-0.0452059 0.000180196 0)
(-0.0454202 0.000148296 0)
(-0.0455868 0.000114277 0)
(-0.0457027 7.81454e-05 0)
(-0.0457651 3.99231e-05 0)
(-0.045771 -3.51387e-07 0)
(-0.0457178 -4.26205e-05 0)
(-0.0456028 -8.68076e-05 0)
(-0.0454234 -0.000132815 0)
(-0.0451773 -0.00018052 0)
(-0.0448624 -0.000229781 0)
(-0.0444767 -0.000280427 0)
(-0.0440184 -0.000332266 0)
(-0.0434863 -0.000385077 0)
(-0.0428792 -0.000438616 0)
(-0.0421965 -0.000492612 0)
(-0.0414379 -0.000546768 0)
(-0.0406035 -0.000600764 0)
(-0.0396939 -0.000654258 0)
(-0.0387101 -0.000706885 0)
(-0.0376539 -0.000758261 0)
(-0.0365272 -0.000807987 0)
(-0.0353329 -0.000855651 0)
(-0.0340741 -0.000900831 0)
(-0.0327547 -0.000943099 0)
(-0.0313792 -0.000982027 0)
(-0.0299526 -0.00101719 0)
(-0.0284803 -0.00104818 0)
(-0.0269687 -0.00107458 0)
(-0.0254243 -0.00109603 0)
(-0.0238542 -0.00111215 0)
(-0.0222662 -0.00112264 0)
(-0.0206682 -0.00112719 0)
(-0.0190687 -0.00112555 0)
(-0.0174763 -0.00111753 0)
(-0.0159 -0.00110297 0)
(-0.0143489 -0.00108175 0)
(-0.0128323 -0.00105382 0)
(-0.0113593 -0.0010192 0)
(-0.00993919 -0.000977934 0)
(-0.00858096 -0.000930144 0)
(-0.00729345 -0.000876003 0)
(-0.00608515 -0.000815748 0)
(-0.00496417 -0.000749674 0)
(-0.00393809 -0.000678148 0)
(-0.00301385 -0.000601615 0)
(-0.00219763 -0.000520621 0)
(-0.00149464 -0.000435849 0)
(-0.000908859 -0.000348188 0)
(-0.000442703 -0.00025884 0)
(-9.64536e-05 -0.000169518 0)
(0.000132519 -8.27759e-05 0)
(0.000250971 -2.57418e-06 0)
(0.000271271 6.48184e-05 0)
(0.000213888 0.000109351 0)
(0.000114913 0.000115166 0)
(3.04375e-05 6.15091e-05 0)
(1.20571e-05 -4.43152e-05 0)
(4.81939e-05 -8.84378e-05 0)
(9.52033e-05 -9.48638e-05 0)
(0.00013037 -7.33077e-05 0)
(0.000138551 -3.25778e-05 0)
(0.000110305 2.04408e-05 0)
(3.9315e-05 8.0643e-05 0)
(-7.82322e-05 0.000144344 0)
(-0.000244105 0.000208928 0)
(-0.000458531 0.000272561 0)
(-0.000720608 0.000333975 0)
(-0.00102862 0.000392322 0)
(-0.00138029 0.000447054 0)
(-0.00177294 0.000497849 0)
(-0.0022037 0.000544555 0)
(-0.00266957 0.000587145 0)
(-0.00316753 0.000625684 0)
(-0.00369458 0.000660307 0)
(-0.00424785 0.000691199 0)
(-0.00482457 0.00071858 0)
(-0.00542214 0.000742693 0)
(-0.00603813 0.000763795 0)
(-0.00667031 0.000782149 0)
(-0.00731661 0.00079802 0)
(-0.0079752 0.000811668 0)
(-0.00864439 0.000823345 0)
(-0.00932272 0.000833295 0)
(-0.0100089 0.000841748 0)
(-0.0107018 0.00084892 0)
(-0.0114004 0.000855017 0)
(-0.0121039 0.000860224 0)
(-0.0128117 0.000864716 0)
(-0.0135233 0.000868651 0)
(-0.0142381 0.000872174 0)
(-0.0149559 0.000875414 0)
(-0.0156765 0.000878488 0)
(-0.0163998 0.000881502 0)
(-0.0171256 0.000884547 0)
(-0.0178541 0.000887705 0)
(-0.0185853 0.000891049 0)
(-0.0193193 0.00089464 0)
(-0.0200564 0.000898531 0)
(-0.0207967 0.00090277 0)
(-0.0215406 0.000907395 0)
(-0.0222884 0.000912438 0)
(-0.0230403 0.000917925 0)
(-0.0237966 0.000923878 0)
(-0.0245579 0.000930311 0)
(-0.0253244 0.000937238 0)
(-0.0260964 0.000944663 0)
(-0.0268744 0.000952592 0)
(-0.0276588 0.000961023 0)
(-0.02845 0.000969951 0)
(-0.0292482 0.000979368 0)
(-0.0300539 0.000989264 0)
(-0.0308674 0.000999622 0)
(-0.0316891 0.00101042 0)
(-0.0325193 0.00102165 0)
(-0.0333582 0.00103327 0)
(-0.0342063 0.00104526 0)
(-0.0350636 0.00105757 0)
(-0.0359305 0.00107019 0)
(-0.0368071 0.00108305 0)
(-0.0376935 0.00109612 0)
(-0.03859 0.00110934 0)
(-0.0394965 0.00112265 0)
(-0.040413 0.001136 0)
(-0.0413395 0.0011493 0)
(-0.042276 0.0011625 0)
(-0.0432222 0.00117551 0)
(-0.0441778 0.00118824 0)
(-0.0451427 0.00120059 0)
(-0.0461164 0.00121247 0)
(-0.0470984 0.00122377 0)
(-0.0480882 0.00123438 0)
(-0.0490851 0.00124417 0)
(-0.0500883 0.00125301 0)
(-0.051097 0.00126076 0)
(-0.0521102 0.00126727 0)
(-0.0531268 0.0012724 0)
(-0.0541456 0.00127598 0)
(-0.0551651 0.00127785 0)
(-0.0561839 0.00127781 0)
(-0.0572004 0.00127569 0)
(-0.0582127 0.0012713 0)
(-0.059219 0.00126444 0)
(-0.0602171 0.0012549 0)
(-0.0612047 0.00124248 0)
(-0.0621794 0.00122695 0)
(-0.0631387 0.0012081 0)
(-0.0640798 0.00118572 0)
(-0.0649997 0.00115957 0)
(-0.0658953 0.00112944 0)
(-0.0667634 0.0010951 0)
(-0.0676006 0.00105633 0)
(-0.0684032 0.00101294 0)
(-0.0691675 0.000964702 0)
(-0.0698896 0.000911435 0)
(-0.0705655 0.000852954 0)
(-0.0711911 0.000789092 0)
(-0.0717621 0.000719704 0)
(-0.0722741 0.000644663 0)
(-0.0727227 0.000563868 0)
(-0.0731034 0.000477248 0)
(-0.0734118 0.000384763 0)
(-0.0736432 0.00028641 0)
(-0.0737934 0.000182226 0)
(-0.0738577 7.22908e-05 0)
(-0.073832 -4.32668e-05 0)
(-0.073712 -0.000164267 0)
(-0.0734938 -0.000290475 0)
(-0.0731735 -0.000421597 0)
(-0.0727476 -0.000557277 0)
(-0.072213 -0.000697096 0)
(-0.0715668 -0.000840569 0)
(-0.0708065 -0.00098714 0)
(-0.0699303 -0.00113619 0)
(-0.0689367 -0.00128701 0)
(-0.0678247 -0.00143886 0)
(-0.0665942 -0.00159091 0)
(-0.0652456 -0.00174225 0)
(-0.0637799 -0.00189193 0)
(-0.062199 -0.00203896 0)
(-0.0605057 -0.00218226 0)
(-0.0587033 -0.00232075 0)
(-0.0567963 -0.00245328 0)
(-0.0547898 -0.0025787 0)
(-0.0526898 -0.00269584 0)
(-0.0505035 -0.00280354 0)
(-0.0482385 -0.00290063 0)
(-0.0459037 -0.002986 0)
(-0.0435085 -0.00305854 0)
(-0.0410632 -0.00311722 0)
(-0.0385791 -0.00316108 0)
(-0.0360678 -0.00318925 0)
(-0.0335417 -0.00320092 0)
(-0.0310138 -0.00319545 0)
(-0.0284975 -0.00317226 0)
(-0.0260065 -0.00313095 0)
(-0.0235548 -0.00307124 0)
(-0.0211566 -0.00299301 0)
(-0.018826 -0.00289629 0)
(-0.0165771 -0.00278127 0)
(-0.0144237 -0.00264832 0)
(-0.0123793 -0.00249798 0)
(-0.0104566 -0.00233095 0)
(-0.00866793 -0.00214816 0)
(-0.00702463 -0.00195075 0)
(-0.00553697 -0.00174011 0)
(-0.00421391 -0.00151796 0)
(-0.00306276 -0.00128645 0)
(-0.00208884 -0.00104836 0)
(-0.0012949 -0.000807322 0)
(-0.00068038 -0.000568286 0)
(-0.000240434 -0.000338198 0)
(3.54503e-05 -0.000127011 0)
(0.000164965 5.08069e-05 0)
(0.000175114 0.000174367 0)
(0.000109192 0.000214037 0)
(3.1996e-05 0.000129087 0)
(1.13018e-05 -7.08755e-05 0)
(4.17865e-05 -0.000131325 0)
(7.4171e-05 -0.000130147 0)
(8.45907e-05 -8.3852e-05 0)
(5.69468e-05 -5.78879e-06 0)
(-1.91468e-05 9.33681e-05 0)
(-0.00015083 0.000205375 0)
(-0.000342548 0.00032404 0)
(-0.000596479 0.000444788 0)
(-0.000913025 0.000564292 0)
(-0.00129122 0.000680172 0)
(-0.0017291 0.000790774 0)
(-0.00222393 0.00089499 0)
(-0.0027725 0.000992132 0)
(-0.00337125 0.00108183 0)
(-0.00401644 0.00116396 0)
(-0.00470427 0.00123859 0)
(-0.00543096 0.0013059 0)
(-0.0061928 0.00136621 0)
(-0.00698625 0.00141989 0)
(-0.00780793 0.00146737 0)
(-0.00865468 0.00150911 0)
(-0.00952356 0.00154558 0)
(-0.0104119 0.00157728 0)
(-0.0113172 0.00160468 0)
(-0.0122372 0.00162825 0)
(-0.01317 0.00164845 0)
(-0.0141138 0.00166571 0)
(-0.0150671 0.00168045 0)
(-0.0160286 0.00169305 0)
(-0.0169972 0.00170388 0)
(-0.0179719 0.00171325 0)
(-0.0189519 0.00172149 0)
(-0.0199367 0.00172886 0)
(-0.0209259 0.00173562 0)
(-0.021919 0.001742 0)
(-0.0229158 0.0017482 0)
(-0.0239163 0.00175441 0)
(-0.0249205 0.00176078 0)
(-0.0259285 0.00176746 0)
(-0.0269403 0.00177457 0)
(-0.0279562 0.00178222 0)
(-0.0289766 0.00179049 0)
(-0.0300017 0.00179947 0)
(-0.0310318 0.00180923 0)
(-0.0320675 0.0018198 0)
(-0.0331091 0.00183125 0)
(-0.034157 0.00184359 0)
(-0.0352118 0.00185685 0)
(-0.0362739 0.00187105 0)
(-0.0373438 0.0018862 0)
(-0.038422 0.00190228 0)
(-0.039509 0.0019193 0)
(-0.0406052 0.00193723 0)
(-0.0417111 0.00195606 0)
(-0.0428272 0.00197575 0)
(-0.0439539 0.00199626 0)
(-0.0450915 0.00201755 0)
(-0.0462405 0.00203957 0)
(-0.0474012 0.00206225 0)
(-0.0485739 0.00208553 0)
(-0.0497588 0.00210933 0)
(-0.0509562 0.00213357 0)
(-0.0521663 0.00215814 0)
(-0.0533891 0.00218295 0)
(-0.0546246 0.00220788 0)
(-0.0558729 0.00223281 0)
(-0.0571338 0.00225759 0)
(-0.0584071 0.00228209 0)
(-0.0596926 0.00230613 0)
(-0.0609899 0.00232955 0)
(-0.0622985 0.00235217 0)
(-0.0636178 0.00237378 0)
(-0.0649472 0.00239417 0)
(-0.0662857 0.00241311 0)
(-0.0676326 0.00243037 0)
(-0.0689866 0.00244569 0)
(-0.0703465 0.0024588 0)
(-0.071711 0.00246941 0)
(-0.0730784 0.00247723 0)
(-0.0744472 0.00248194 0)
(-0.0758153 0.00248321 0)
(-0.0771807 0.0024807 0)
(-0.0785411 0.00247406 0)
(-0.0798941 0.00246291 0)
(-0.081237 0.00244688 0)
(-0.082567 0.00242556 0)
(-0.0838809 0.00239858 0)
(-0.0851754 0.00236551 0)
(-0.0864472 0.00232594 0)
(-0.0876923 0.00227945 0)
(-0.0889069 0.00222564 0)
(-0.0900868 0.00216407 0)
(-0.0912276 0.00209434 0)
(-0.0923248 0.00201604 0)
(-0.0933736 0.00192879 0)
(-0.0943689 0.0018322 0)
(-0.0953057 0.00172593 0)
(-0.0961786 0.00160964 0)
(-0.0969822 0.00148303 0)
(-0.0977109 0.00134586 0)
(-0.0983589 0.0011979 0)
(-0.0989205 0.00103898 0)
(-0.0993898 0.000868991 0)
(-0.0997611 0.000687886 0)
(-0.100028 0.000495686 0)
(-0.100186 0.000292487 0)
(-0.100228 7.84717e-05 0)
(-0.100149 -0.000146087 0)
(-0.0999445 -0.000380818 0)
(-0.0996083 -0.000625247 0)
(-0.0991359 -0.000878788 0)
(-0.0985231 -0.00114074 0)
(-0.0977657 -0.00141028 0)
(-0.0968604 -0.00168647 0)
(-0.0958041 -0.00196823 0)
(-0.0945946 -0.00225436 0)
(-0.0932301 -0.00254354 0)
(-0.0917098 -0.00283431 0)
(-0.0900335 -0.00312508 0)
(-0.0882021 -0.00341417 0)
(-0.0862173 -0.00369977 0)
(-0.0840815 -0.00397998 0)
(-0.0817987 -0.00425279 0)
(-0.0793734 -0.00451614 0)
(-0.0768116 -0.00476789 0)
(-0.0741201 -0.00500588 0)
(-0.071307 -0.00522792 0)
(-0.0683815 -0.00543182 0)
(-0.065354 -0.00561542 0)
(-0.0622358 -0.00577661 0)
(-0.0590395 -0.00591335 0)
(-0.0557784 -0.00602373 0)
(-0.0524671 -0.00610593 0)
(-0.0491209 -0.00615833 0)
(-0.0457559 -0.00617947 0)
(-0.0423888 -0.0061681 0)
(-0.0390372 -0.0061232 0)
(-0.0357187 -0.00604401 0)
(-0.0324515 -0.00593004 0)
(-0.0292539 -0.00578107 0)
(-0.0261443 -0.00559722 0)
(-0.0231407 -0.00537887 0)
(-0.0202609 -0.00512678 0)
(-0.0175223 -0.00484203 0)
(-0.0149412 -0.00452607 0)
(-0.0125334 -0.00418075 0)
(-0.0103131 -0.00380838 0)
(-0.00829338 -0.00341178 0)
(-0.00648519 -0.00299444 0)
(-0.00489749 -0.00256069 0)
(-0.00353649 -0.00211601 0)
(-0.00240509 -0.00166743 0)
(-0.00150208 -0.00122422 0)
(-0.000821136 -0.000798872 0)
(-0.000349538 -0.000408411 0)
(-6.68232e-05 -7.63401e-05 0)
(5.69682e-05 0.000165195 0)
(6.6436e-05 0.000272708 0)
(2.46664e-05 0.000184763 0)
(8.76821e-06 -9.1475e-05 0)
(2.68675e-05 -0.000157849 0)
(3.32509e-05 -0.000138298 0)
(5.53993e-06 -5.60731e-05 0)
(-7.19757e-05 7.08751e-05 0)
(-0.000209847 0.0002281 0)
(-0.000415377 0.000404213 0)
(-0.000693142 0.000590436 0)
(-0.00104541 0.000780114 0)
(-0.00147256 0.00096827 0)
(-0.00197353 0.00115125 0)
(-0.00254608 0.00132646 0)
(-0.00318716 0.00149209 0)
(-0.00389307 0.00164699 0)
(-0.00465974 0.00179049 0)
(-0.00548285 0.00192231 0)
(-0.00635796 0.00204248 0)
(-0.00728062 0.00215124 0)
(-0.00824649 0.002249 0)
(-0.00925133 0.00233631 0)
(-0.0102911 0.00241381 0)
(-0.0113621 0.00248218 0)
(-0.0124607 0.00254216 0)
(-0.0135836 0.00259448 0)
(-0.014728 0.00263989 0)
(-0.0158909 0.00267913 0)
(-0.0170701 0.00271291 0)
(-0.0182634 0.00274191 0)
(-0.0194688 0.00276678 0)
(-0.0206848 0.00278813 0)
(-0.0219099 0.00280654 0)
(-0.0231429 0.00282253 0)
(-0.0243829 0.0028366 0)
(-0.0256291 0.0028492 0)
(-0.0268808 0.00286073 0)
(-0.0281377 0.00287155 0)
(-0.0293994 0.00288201 0)
(-0.0306658 0.0028924 0)
(-0.0319368 0.00290298 0)
(-0.0332124 0.00291398 0)
(-0.0344929 0.0029256 0)
(-0.0357785 0.00293802 0)
(-0.0370694 0.0029514 0)
(-0.0383661 0.00296586 0)
(-0.0396689 0.0029815 0)
(-0.0409783 0.00299843 0)
(-0.0422949 0.0030167 0)
(-0.0436191 0.00303637 0)
(-0.0449514 0.00305747 0)
(-0.0462925 0.00308005 0)
(-0.0476429 0.00310409 0)
(-0.0490032 0.00312961 0)
(-0.0503739 0.00315659 0)
(-0.0517556 0.00318499 0)
(-0.0531489 0.00321479 0)
(-0.0545542 0.00324592 0)
(-0.055972 0.00327832 0)
(-0.0574028 0.00331193 0)
(-0.0588471 0.00334665 0)
(-0.0603051 0.00338237 0)
(-0.0617773 0.003419 0)
(-0.0632639 0.00345638 0)
(-0.0647651 0.00349439 0)
(-0.066281 0.00353287 0)
(-0.0678119 0.00357163 0)
(-0.0693575 0.0036105 0)
(-0.0709179 0.00364926 0)
(-0.0724928 0.00368768 0)
(-0.074082 0.00372553 0)
(-0.075685 0.00376253 0)
(-0.0773013 0.00379841 0)
(-0.0789303 0.00383286 0)
(-0.0805712 0.00386556 0)
(-0.082223 0.00389615 0)
(-0.0838846 0.00392427 0)
(-0.0855549 0.00394953 0)
(-0.0872323 0.00397151 0)
(-0.0889153 0.00398977 0)
(-0.090602 0.00400385 0)
(-0.0922906 0.00401327 0)
(-0.0939787 0.00401752 0)
(-0.095664 0.00401607 0)
(-0.0973439 0.00400837 0)
(-0.0990155 0.00399386 0)
(-0.100676 0.00397193 0)
(-0.102321 0.00394199 0)
(-0.103948 0.00390342 0)
(-0.105553 0.00385557 0)
(-0.107131 0.0037978 0)
(-0.108679 0.00372946 0)
(-0.110192 0.0036499 0)
(-0.111664 0.00355845 0)
(-0.113091 0.00345446 0)
(-0.114468 0.0033373 0)
(-0.115788 0.00320633 0)
(-0.117046 0.00306096 0)
(-0.118236 0.0029006 0)
(-0.119352 0.00272472 0)
(-0.120387 0.00253282 0)
(-0.121334 0.00232446 0)
(-0.122187 0.00209926 0)
(-0.122939 0.0018569 0)
(-0.123583 0.00159715 0)
(-0.124112 0.00131987 0)
(-0.124519 0.00102502 0)
(-0.124798 0.000712669 0)
(-0.12494 0.000383019 0)
(-0.12494 3.63942e-05 0)
(-0.124791 -0.000326732 0)
(-0.124487 -0.000705734 0)
(-0.124022 -0.00109982 0)
(-0.12339 -0.00150802 0)
(-0.122587 -0.0019292 0)
(-0.121607 -0.00236202 0)
(-0.120447 -0.00280496 0)
(-0.119103 -0.00325629 0)
(-0.117573 -0.00371408 0)
(-0.115855 -0.00417623 0)
(-0.113949 -0.00464042 0)
(-0.111854 -0.00510414 0)
(-0.109571 -0.00556471 0)
(-0.107104 -0.00601927 0)
(-0.104454 -0.00646483 0)
(-0.101628 -0.00689825 0)
(-0.0986299 -0.00731626 0)
(-0.0954681 -0.00771553 0)
(-0.0921506 -0.00809267 0)
(-0.0886873 -0.00844423 0)
(-0.0850893 -0.0087668 0)
(-0.081369 -0.009057 0)
(-0.0775402 -0.00931154 0)
(-0.0736179 -0.00952725 0)
(-0.0696181 -0.00970111 0)
(-0.0655583 -0.00983033 0)
(-0.0614568 -0.00991235 0)
(-0.0573327 -0.00994492 0)
(-0.0532062 -0.00992608 0)
(-0.049098 -0.00985427 0)
(-0.0450293 -0.00972831 0)
(-0.0410218 -0.00954745 0)
(-0.0370971 -0.0093114 0)
(-0.0332772 -0.00902037 0)
(-0.0295836 -0.00867504 0)
(-0.0260373 -0.00827665 0)
(-0.0226589 -0.00782701 0)
(-0.0194679 -0.00732852 0)
(-0.0164827 -0.00678425 0)
(-0.01372 -0.00619802 0)
(-0.0111951 -0.0055745 0)
(-0.00892062 -0.00491941 0)
(-0.00690688 -0.00423981 0)
(-0.00516086 -0.00354447 0)
(-0.00368574 -0.00284446 0)
(-0.00248011 -0.00215397 0)
(-0.00153707 -0.00149145 0)
(-0.000843172 -0.00088123 0)
(-0.000377236 -0.000355609 0)
(-0.000108919 4.27797e-05 0)
(3.37501e-06 0.000257904 0)
(1.32491e-05 0.000210888 0)
(5.27303e-06 -0.000102583 0)
(6.54106e-06 -0.000160118 0)
(-2.1356e-05 -0.000108985 0)
(-9.73612e-05 2.16838e-05 0)
(-0.000235718 0.00020961 0)
(-0.000446521 0.000436753 0)
(-0.000736709 0.000688689 0)
(-0.00111057 0.000954109 0)
(-0.00157015 0.00122426 0)
(-0.00211562 0.00149248 0)
(-0.00274565 0.00175376 0)
(-0.00345775 0.00200447 0)
(-0.00424848 0.00224205 0)
(-0.00511379 0.0024648 0)
(-0.00604913 0.00267169 0)
(-0.00704968 0.00286225 0)
(-0.00811048 0.00303643 0)
(-0.00922654 0.0031945 0)
(-0.010393 0.00333698 0)
(-0.0116049 0.0034646 0)
(-0.0128579 0.0035782 0)
(-0.0141476 0.00367872 0)
(-0.0154698 0.00376718 0)
(-0.0168209 0.00384459 0)
(-0.0181974 0.00391201 0)
(-0.0195961 0.00397047 0)
(-0.0210143 0.00402096 0)
(-0.0224493 0.00406446 0)
(-0.0238991 0.0041019 0)
(-0.0253615 0.00413415 0)
(-0.0268349 0.00416203 0)
(-0.028318 0.00418631 0)
(-0.0298096 0.00420769 0)
(-0.0313086 0.00422681 0)
(-0.0328144 0.00424427 0)
(-0.0343263 0.00426061 0)
(-0.035844 0.00427631 0)
(-0.0373673 0.0042918 0)
(-0.038896 0.00430747 0)
(-0.0404302 0.00432366 0)
(-0.04197 0.00434066 0)
(-0.0435157 0.00435874 0)
(-0.0450675 0.00437812 0)
(-0.0466258 0.00439899 0)
(-0.0481912 0.00442151 0)
(-0.049764 0.00444582 0)
(-0.0513449 0.00447201 0)
(-0.0529345 0.00450017 0)
(-0.0545332 0.00453035 0)
(-0.0561418 0.0045626 0)
(-0.0577609 0.00459692 0)
(-0.0593911 0.00463332 0)
(-0.0610331 0.00467176 0)
(-0.0626874 0.00471221 0)
(-0.0643546 0.00475462 0)
(-0.0660353 0.00479889 0)
(-0.0677301 0.00484494 0)
(-0.0694394 0.00489265 0)
(-0.0711638 0.00494189 0)
(-0.0729035 0.00499251 0)
(-0.0746589 0.00504433 0)
(-0.0764304 0.00509716 0)
(-0.078218 0.00515079 0)
(-0.080022 0.00520497 0)
(-0.0818423 0.00525946 0)
(-0.0836788 0.00531396 0)
(-0.0855315 0.00536816 0)
(-0.0874 0.00542174 0)
(-0.0892838 0.00547432 0)
(-0.0911825 0.00552552 0)
(-0.0930953 0.00557492 0)
(-0.0950214 0.00562207 0)
(-0.0969598 0.00566648 0)
(-0.0989093 0.00570766 0)
(-0.100869 0.00574505 0)
(-0.102836 0.00577808 0)
(-0.10481 0.00580615 0)
(-0.106788 0.00582861 0)
(-0.108769 0.00584479 0)
(-0.11075 0.00585399 0)
(-0.112727 0.00585547 0)
(-0.114699 0.00584847 0)
(-0.116663 0.00583219 0)
(-0.118614 0.00580581 0)
(-0.120549 0.00576848 0)
(-0.122464 0.00571932 0)
(-0.124355 0.00565746 0)
(-0.126217 0.00558197 0)
(-0.128045 0.00549195 0)
(-0.129835 0.00538645 0)
(-0.13158 0.00526456 0)
(-0.133276 0.00512533 0)
(-0.134916 0.00496787 0)
(-0.136494 0.00479125 0)
(-0.138003 0.00459462 0)
(-0.139437 0.00437713 0)
(-0.140789 0.00413799 0)
(-0.142051 0.00387645 0)
(-0.143216 0.00359184 0)
(-0.144276 0.00328356 0)
(-0.145224 0.00295111 0)
(-0.146052 0.00259407 0)
(-0.146752 0.00221218 0)
(-0.147315 0.00180526 0)
(-0.147735 0.00137332 0)
(-0.148004 0.000916506 0)
(-0.148112 0.000435147 0)
(-0.148054 -7.02345e-05 0)
(-0.147822 -0.000598912 0)
(-0.147409 -0.00114994 0)
(-0.146807 -0.00172214 0)
(-0.146012 -0.00231409 0)
(-0.145018 -0.00292411 0)
(-0.143819 -0.00355026 0)
(-0.142411 -0.00419032 0)
(-0.140791 -0.0048418 0)
(-0.138956 -0.00550194 0)
(-0.136904 -0.0061677 0)
(-0.134635 -0.00683576 0)
(-0.132149 -0.00750254 0)
(-0.129447 -0.00816423 0)
(-0.126533 -0.00881675 0)
(-0.12341 -0.00945585 0)
(-0.120085 -0.0100771 0)
(-0.116563 -0.0106758 0)
(-0.112853 -0.0112473 0)
(-0.108965 -0.0117867 0)
(-0.10491 -0.0122893 0)
(-0.100702 -0.0127502 0)
(-0.0963529 -0.0131646 0)
(-0.0918803 -0.0135279 0)
(-0.0873005 -0.0138356 0)
(-0.0826322 -0.0140834 0)
(-0.077895 -0.0142675 0)
(-0.0731097 -0.0143842 0)
(-0.0682982 -0.0144303 0)
(-0.0634833 -0.0144031 0)
(-0.0586885 -0.0143004 0)
(-0.053938 -0.0141205 0)
(-0.0492564 -0.0138624 0)
(-0.0446682 -0.0135258 0)
(-0.0401982 -0.013111 0)
(-0.035871 -0.012619 0)
(-0.0317103 -0.0120517 0)
(-0.0277393 -0.0114117 0)
(-0.0239802 -0.0107026 0)
(-0.0204537 -0.00992886 0)
(-0.0171786 -0.00909618 0)
(-0.014172 -0.00821137 0)
(-0.0114481 -0.00728278 0)
(-0.00901851 -0.00632058 0)
(-0.00689096 -0.00533724 0)
(-0.00506927 -0.00434822 0)
(-0.0035524 -0.00337287 0)
(-0.00233379 -0.00243571 0)
(-0.00140053 -0.00156813 0)
(-0.000732358 -0.000810522 0)
(-0.00030053 -0.000214742 0)
(-6.94528e-05 0.000152738 0)
(3.21847e-07 0.000200326 0)
(1.27069e-06 -0.000102093 0)
(-1.71636e-05 -0.000132655 0)
(-8.5185e-05 -3.45107e-05 0)
(-0.000217035 0.000158436 0)
(-0.000424685 0.000420081 0)
(-0.000717258 0.000729108 0)
(-0.0011009 0.00106828 0)
(-0.00157926 0.00142388 0)
(-0.00215385 0.00178516 0)
(-0.00282444 0.00214376 0)
(-0.00358932 0.00249336 0)
(-0.0044456 0.00282925 0)
(-0.0053895 0.00314808 0)
(-0.00641653 0.00344756 0)
(-0.00752174 0.00372629 0)
(-0.00869986 0.00398357 0)
(-0.00994549 0.00421924 0)
(-0.0112531 0.00443359 0)
(-0.0126175 0.00462726 0)
(-0.0140331 0.00480113 0)
(-0.0154952 0.00495628 0)
(-0.0169987 0.00509392 0)
(-0.0185394 0.00521534 0)
(-0.0201128 0.00532189 0)
(-0.0217153 0.00541494 0)
(-0.0233432 0.00549584 0)
(-0.0249934 0.00556592 0)
(-0.026663 0.00562646 0)
(-0.0283495 0.0056787 0)
(-0.0300507 0.00572381 0)
(-0.0317646 0.00576289 0)
(-0.0334897 0.00579696 0)
(-0.0352245 0.00582696 0)
(-0.036968 0.00585379 0)
(-0.0387192 0.00587823 0)
(-0.0404774 0.00590101 0)
(-0.0422423 0.0059228 0)
(-0.0440134 0.00594418 0)
(-0.0457906 0.00596567 0)
(-0.0475739 0.00598775 0)
(-0.0493634 0.00601082 0)
(-0.0511594 0.00603525 0)
(-0.052962 0.00606133 0)
(-0.0547718 0.00608934 0)
(-0.0565893 0.00611949 0)
(-0.0584148 0.00615196 0)
(-0.0602491 0.00618691 0)
(-0.0620927 0.00622443 0)
(-0.0639463 0.00626462 0)
(-0.0658105 0.00630753 0)
(-0.0676861 0.00635316 0)
(-0.0695736 0.00640152 0)
(-0.0714738 0.00645258 0)
(-0.0733874 0.00650627 0)
(-0.0753148 0.00656251 0)
(-0.0772568 0.00662119 0)
(-0.0792139 0.00668218 0)
(-0.0811867 0.00674532 0)
(-0.0831755 0.00681042 0)
(-0.0851808 0.00687727 0)
(-0.0872029 0.00694562 0)
(-0.0892421 0.00701521 0)
(-0.0912985 0.00708573 0)
(-0.0933722 0.00715686 0)
(-0.0954632 0.00722824 0)
(-0.0975713 0.00729946 0)
(-0.0996962 0.00737011 0)
(-0.101838 0.00743971 0)
(-0.103995 0.00750776 0)
(-0.106167 0.00757373 0)
(-0.108354 0.00763704 0)
(-0.110554 0.00769707 0)
(-0.112766 0.00775315 0)
(-0.114989 0.0078046 0)
(-0.11722 0.00785067 0)
(-0.119459 0.00789057 0)
(-0.121703 0.00792347 0)
(-0.12395 0.0079485 0)
(-0.126196 0.00796476 0)
(-0.128441 0.00797128 0)
(-0.130679 0.00796706 0)
(-0.132908 0.00795109 0)
(-0.135125 0.00792227 0)
(-0.137325 0.00787951 0)
(-0.139504 0.00782166 0)
(-0.141657 0.00774755 0)
(-0.14378 0.00765601 0)
(-0.145868 0.00754581 0)
(-0.147914 0.00741572 0)
(-0.149913 0.00726453 0)
(-0.15186 0.00709099 0)
(-0.153747 0.00689389 0)
(-0.155567 0.00667201 0)
(-0.157315 0.00642418 0)
(-0.158982 0.00614926 0)
(-0.16056 0.00584616 0)
(-0.162043 0.00551385 0)
(-0.163422 0.00515137 0)
(-0.164689 0.00475788 0)
(-0.165835 0.00433263 0)
(-0.166852 0.00387497 0)
(-0.167731 0.00338444 0)
(-0.168464 0.0028607 0)
(-0.169042 0.0023036 0)
(-0.169455 0.00171321 0)
(-0.169697 0.00108977 0)
(-0.169757 0.000433809 0)
(-0.169629 -0.000253933 0)
(-0.169304 -0.00097242 0)
(-0.168775 -0.00172033 0)
(-0.168034 -0.00249604 0)
(-0.167075 -0.00329758 0)
(-0.165892 -0.00412268 0)
(-0.16448 -0.00496869 0)
(-0.162835 -0.00583263 0)
(-0.160952 -0.00671115 0)
(-0.158829 -0.00760052 0)
(-0.156464 -0.00849667 0)
(-0.153857 -0.00939518 0)
(-0.151009 -0.0102913 0)
(-0.147921 -0.0111799 0)
(-0.144596 -0.0120556 0)
(-0.14104 -0.0129127 0)
(-0.137258 -0.0137453 0)
(-0.133258 -0.0145474 0)
(-0.12905 -0.0153126 0)
(-0.124644 -0.0160346 0)
(-0.120053 -0.016707 0)
(-0.115291 -0.0173234 0)
(-0.110374 -0.0178776 0)
(-0.105319 -0.0183632 0)
(-0.100145 -0.0187746 0)
(-0.0948713 -0.0191059 0)
(-0.089521 -0.0193521 0)
(-0.0841163 -0.0195084 0)
(-0.0786815 -0.0195706 0)
(-0.0732416 -0.019535 0)
(-0.0678225 -0.0193988 0)
(-0.0624507 -0.0191598 0)