/*--------------------------------*- C++ -*----------------------------------*\
  =========                 |
  \\      /  F ield         | OpenFOAM: The Open Source CFD Toolbox
   \\    /   O peration     | Website:  https://openfoam.org
    \\  /    A nd           | Version:  7
     \\/     M anipulation  |
\*---------------------------------------------------------------------------*/
FoamFile
{
    version     2.0;
    format      ascii;
    class       volScalarField;
    location    "0.15";
    object      p;
}
// * * * * * * * * * * * * * * * * * * * * * * * * * * * * * * * * * * * * * //

dimensions      [0 2 -2 0 0 0 0];

internalField   nonuniform List<scalar> 
12800
(
6.15525e-09
1.49392e-05
-4.17991e-05
-0.000175652
-0.000375067
-0.000629286
-0.000926618
-0.00125582
-0.00160676
-0.00197067
-0.00234004
-0.00270855
-0.00307095
-0.00342289
-0.00376088
-0.00408213
-0.00438444
-0.00466616
-0.00492613
-0.00516354
-0.0053779
-0.00556897
-0.0057367
-0.00588124
-0.00600286
-0.00610192
-0.00617886
-0.00623413
-0.00626824
-0.00628169
-0.00627496
-0.00624852
-0.00620281
-0.00613823
-0.00605515
-0.0059539
-0.00583478
-0.00569802
-0.00554384
-0.00537241
-0.00518383
-0.00497818
-0.00475545
-0.00451564
-0.0042587
-0.00398454
-0.00369302
-0.00338399
-0.00305725
-0.00271254
-0.00234958
-0.00196806
-0.00156765
-0.00114796
-0.0007086
-0.000249119
0.000230967
0.000732182
0.00125507
0.00180021
0.00236819
0.00295966
0.00357529
0.00421584
0.00488209
0.00557485
0.00629495
0.00704327
0.00782073
0.0086283
0.009467
0.0103379
0.0112421
0.0121806
0.0131546
0.0141654
0.015214
0.0163019
0.0174302
0.0186002
0.0198133
0.0210708
0.0223739
0.023724
0.0251225
0.0265707
0.0280698
0.0296211
0.0312259
0.0328851
0.0345999
0.0363713
0.0382001
0.0400871
0.0420328
0.0440379
0.0461025
0.0482267
0.0504104
0.0526533
0.0549547
0.0573137
0.059729
0.0621991
0.0647221
0.0672956
0.069917
0.0725831
0.0752903
0.0780346
0.0808115
0.0836161
0.0864429
0.0892859
0.0921387
0.0949945
0.0978459
0.100685
0.103504
0.106294
0.109046
0.111751
0.114401
0.116984
0.119492
0.121916
0.124245
0.126471
0.128585
0.130579
0.132443
0.134172
0.135757
0.137195
0.138479
0.139605
0.140572
0.141377
0.142021
0.142504
0.142829
0.142999
0.14302
0.1429
0.142645
0.142267
0.141777
0.141188
0.140515
0.139774
0.138986
0.138169
0.13735
0.136552
0.135808
0.135149
0.134611
0.134234
0.134055
0.134069
-3.14042e-05
-1.57612e-05
-6.948e-05
-0.000189114
-0.000363285
-0.000584056
-0.000842974
-0.00113119
-0.00144039
-0.0017631
-0.00209272
-0.00242354
-0.00275068
-0.00307006
-0.00337829
-0.0036726
-0.00395076
-0.00421104
-0.0044521
-0.00467301
-0.00487312
-0.00505203
-0.00520955
-0.00534563
-0.00546038
-0.00555398
-0.00562672
-0.00567892
-0.00571093
-0.00572314
-0.00571589
-0.00568955
-0.00564445
-0.00558091
-0.00549922
-0.00539963
-0.00528236
-0.0051476
-0.00499552
-0.00482622
-0.00463978
-0.00443622
-0.00421554
-0.00397768
-0.00372256
-0.00345007
-0.00316006
-0.00285236
-0.00252675
-0.00218296
-0.00182071
-0.00143968
-0.0010395
-0.00061981
-0.000180199
0.000279785
0.000760633
0.00126287
0.00178703
0.00233369
0.00290343
0.00349688
0.00411473
0.00475771
0.00542658
0.00612214
0.00684519
0.00759658
0.00837722
0.00918805
0.01003
0.0109042
0.0118116
0.0127533
0.0137303
0.0147439
0.0157951
0.0168851
0.0180153
0.0191866
0.0204005
0.0216581
0.0229607
0.0243095
0.0257057
0.0271505
0.0286452
0.0301908
0.0317885
0.0334392
0.035144
0.0369035
0.0387186
0.04059
0.042518
0.0445031
0.0465455
0.048645
0.0508015
0.0530145
0.0552832
0.0576067
0.0599836
0.0624123
0.0648909
0.0674169
0.0699878
0.0726003
0.0752509
0.0779357
0.0806503
0.0833898
0.0861489
0.0889219
0.0917026
0.0944844
0.0972602
0.100023
0.102764
0.105476
0.10815
0.110777
0.11335
0.115858
0.118293
0.120646
0.122908
0.125071
0.127127
0.129066
0.130883
0.13257
0.134121
0.135531
0.136796
0.137912
0.138877
0.139689
0.14035
0.140859
0.14122
0.141436
0.141514
0.141459
0.14128
0.140986
0.140589
0.140101
0.139537
0.138912
0.138244
0.137552
0.136858
0.136185
0.135558
0.135005
0.134553
0.13423
0.134069
0.134083
1.71109e-06
1.94445e-05
-3.14657e-05
-0.000142936
-0.000302336
-0.00050267
-0.000736967
-0.000997858
-0.0012783
-0.00157182
-0.00187258
-0.00217544
-0.00247595
-0.0027703
-0.00305527
-0.00332822
-0.00358696
-0.00382974
-0.00405519
-0.00426228
-0.0044503
-0.00461875
-0.00476731
-0.00489585
-0.00500434
-0.00509286
-0.00516157
-0.00521069
-0.00524047
-0.00525117
-0.00524308
-0.00521645
-0.00517154
-0.0051086
-0.00502784
-0.00492946
-0.00481361
-0.00468046
-0.0045301
-0.0043626
-0.004178
-0.0039763
-0.00375745
-0.00352139
-0.003268
-0.00299715
-0.00270868
-0.00240239
-0.00207805
-0.0017354
-0.00137412
-0.000993873
-0.000594315
-0.000175069
0.000264281
0.000724194
0.00120517
0.00170772
0.00223239
0.00277973
0.00335032
0.00394479
0.00456383
0.00520815
0.00587849
0.00657563
0.00730036
0.0080535
0.00883594
0.0096486
0.0104924
0.0113684
0.0122775
0.0132207
0.0141992
0.0152139
0.0162661
0.0173568
0.0184872
0.0196584
0.0208716
0.022128
0.0234287
0.0247749
0.0261678
0.0276084
0.0290979
0.0306373
0.0322277
0.0338698
0.0355647
0.0373129
0.0391152
0.0409722
0.0428842
0.0448515
0.0468742
0.0489522
0.0510851
0.0532724
0.0555133
0.0578067
0.0601514
0.0625456
0.0649873
0.0674743
0.0700038
0.0725727
0.0751775
0.0778144
0.080479
0.0831667
0.0858722
0.0885899
0.091314
0.0940379
0.0967548
0.0994576
0.102139
0.10479
0.107405
0.109973
0.112487
0.114939
0.117319
0.119619
0.121831
0.123947
0.125959
0.127859
0.129641
0.131297
0.132824
0.134215
0.135466
0.136575
0.13754
0.138359
0.139033
0.139563
0.139952
0.140203
0.140323
0.140317
0.140194
0.139963
0.139635
0.139222
0.138737
0.138195
0.137613
0.137008
0.1364
0.135809
0.135258
0.134769
0.134364
0.134066
0.133907
0.133906
0.000114862
0.000122368
6.6604e-05
-4.38851e-05
-0.000197244
-0.000386938
-0.000606731
-0.000850223
-0.00111131
-0.00138432
-0.0016641
-0.00194604
-0.00222612
-0.00250084
-0.00276722
-0.00302275
-0.00326537
-0.00349339
-0.00370547
-0.00390058
-0.00407794
-0.00423701
-0.00437742
-0.00449897
-0.00460154
-0.00468515
-0.00474987
-0.00479584
-0.00482323
-0.00483222
-0.00482302
-0.00479582
-0.00475079
-0.00468814
-0.00460801
-0.00451054
-0.00439585
-0.00426406
-0.00411522
-0.00394936
-0.00376647
-0.00356653
-0.00334947
-0.00311519
-0.00286356
-0.00259443
-0.00230762
-0.00200291
-0.00168006
-0.00133879
-0.000978768
-0.000599666
-0.000201128
0.000217229
0.000655829
0.00111514
0.00159566
0.00209791
0.0026224
0.00316969
0.00374036
0.00433503
0.00495438
0.00559911
0.00626996
0.00696767
0.007693
0.00844678
0.00922987
0.0100432
0.0108876
0.011764
0.0126735
0.013617
0.0145955
0.01561
0.0166618
0.0177517
0.018881
0.0200507
0.021262
0.0225158
0.0238134
0.0251559
0.0265442
0.0279796
0.029463
0.0309954
0.0325777
0.0342108
0.0358954
0.0376322
0.0394219
0.0412648
0.0431614
0.0451118
0.0471161
0.0491741
0.0512854
0.0534494
0.0556653
0.0579321
0.0602483
0.0626123
0.0650221
0.0674754
0.0699695
0.0725013
0.0750675
0.0776642
0.0802873
0.082932
0.0855935
0.0882661
0.0909441
0.0936213
0.0962911
0.0989464
0.10158
0.104184
0.106752
0.109274
0.111743
0.114151
0.116489
0.118749
0.120923
0.123004
0.124984
0.126855
0.128611
0.130246
0.131755
0.133132
0.134375
0.13548
0.136446
0.137271
0.137957
0.138503
0.138914
0.139193
0.139346
0.139378
0.139298
0.139114
0.138837
0.138478
0.138051
0.137568
0.137046
0.1365
0.135949
0.13541
0.134903
0.134447
0.134061
0.133765
0.133584
0.133533
0.000300411
0.000283751
0.000214189
9.80503e-05
-5.55903e-05
-0.000240834
-0.000452124
-0.000683915
-0.000930923
-0.00118823
-0.00145133
-0.00171613
-0.00197906
-0.00223697
-0.00248712
-0.00272722
-0.00295533
-0.00316988
-0.00336959
-0.00355347
-0.00372073
-0.00387082
-0.00400334
-0.00411802
-0.00421472
-0.00429337
-0.00435401
-0.00439669
-0.00442153
-0.00442864
-0.00441814
-0.00439018
-0.00434489
-0.00428237
-0.00420273
-0.00410607
-0.00399248
-0.00386199
-0.00371464
-0.00355041
-0.00336928
-0.00317118
-0.002956
-0.00272363
-0.00247392
-0.00220669
-0.00192176
-0.00161888
-0.00129779
-0.000958186
-0.000599747
-0.000222136
0.000175002
0.000592064
0.00102949
0.00148774
0.00196733
0.00246876
0.00299253
0.00353919
0.00410934
0.00470358
0.00532259
0.00596705
0.00663768
0.00733519
0.00806035
0.00881395
0.00959684
0.0104099
0.0112539
0.01213
0.0130388
0.0139815
0.014959
0.0159724
0.0170225
0.0181106
0.0192377
0.0204047
0.0216128
0.0228629
0.0241562
0.0254938
0.0268765
0.0283055
0.0297817
0.031306
0.0328792
0.0345022
0.0361757
0.0379002
0.0396764
0.0415047
0.0433854
0.0453185
0.0473042
0.0493421
0.0514319
0.053573
0.0557645
0.0580053
0.0602941
0.0626292
0.0650087
0.0674302
0.0698911
0.0723885
0.074919
0.0774788
0.0800639
0.0826697
0.0852914
0.0879237
0.0905608
0.0931967
0.0958249
0.0984388
0.101031
0.103595
0.106122
0.108605
0.111036
0.113407
0.11571
0.117937
0.12008
0.122133
0.124086
0.125934
0.12767
0.129288
0.130784
0.132152
0.133389
0.134493
0.135461
0.136293
0.136989
0.137551
0.137981
0.138284
0.138464
0.138528
0.138483
0.138338
0.138103
0.137788
0.137406
0.13697
0.136494
0.135992
0.135481
0.134976
0.134495
0.134054
0.133669
0.133357
0.133133
0.133004
0.000546657
0.000495929
0.000405184
0.000277386
0.000117738
-6.86003e-05
-0.00027673
-0.000501904
-0.000739608
-0.000985617
-0.00123602
-0.00148726
-0.00173619
-0.00198
-0.00221629
-0.00244295
-0.00265825
-0.00286072
-0.00304919
-0.00322273
-0.00338059
-0.00352222
-0.00364722
-0.00375529
-0.00384627
-0.00392006
-0.00397663
-0.004016
-0.00403823
-0.00404335
-0.00403147
-0.00400266
-0.00395697
-0.00389449
-0.00381528
-0.00371937
-0.00360682
-0.00347762
-0.00333176
-0.0031692
-0.00298987
-0.00279368
-0.00258049
-0.00235017
-0.00210253
-0.0018374
-0.00155455
-0.00125374
-0.000934667
-0.000597023
-0.000240483
0.000135292
0.000530665
0.000946042
0.00138187
0.00183863
0.00231681
0.00281691
0.00333943
0.00388491
0.00445395
0.00504715
0.00566516
0.00630867
0.00697836
0.00767493
0.00839914
0.00915175
0.0099336
0.0107455
0.0115883
0.0124629
0.0133703
0.0143112
0.0152866
0.0162977
0.0173452
0.0184304
0.019554
0.0207172
0.021921
0.0231663
0.0244542
0.0257856
0.0271616
0.0285831
0.0300509
0.0315661
0.0331292
0.0347412
0.0364026
0.0381141
0.0398762
0.0416892
0.0435534
0.045469
0.0474357
0.0494536
0.0515221
0.0536405
0.0558082
0.0580239
0.0602863
0.0625939
0.0649446
0.0673362
0.0697662
0.0722316
0.0747292
0.0772553
0.079806
0.0823769
0.0849631
0.0875595
0.0901606
0.0927605
0.0953528
0.0979311
0.100488
0.103018
0.105511
0.107962
0.110361
0.112703
0.114977
0.117178
0.119297
0.121327
0.123261
0.125091
0.126813
0.128419
0.129906
0.131268
0.132503
0.133607
0.134579
0.135418
0.136125
0.136701
0.137148
0.137471
0.137675
0.137765
0.137749
0.137635
0.137433
0.137152
0.136805
0.136403
0.135959
0.135488
0.135002
0.134517
0.134046
0.133605
0.133206
0.132864
0.132582
0.132357
0.000842099
0.000750623
0.000633053
0.000488488
0.000317799
0.000125428
-8.43182e-05
-0.000307477
-0.000540239
-0.00077901
-0.00102047
-0.00126155
-0.00149952
-0.00173194
-0.0019567
-0.00217196
-0.00237618
-0.00256805
-0.00274652
-0.00291073
-0.00306001
-0.00319383
-0.00331181
-0.00341365
-0.00349919
-0.00356831
-0.00362094
-0.00365707
-0.0036767
-0.00367985
-0.00366656
-0.00363684
-0.00359073
-0.00352825
-0.00344941
-0.00335423
-0.00324271
-0.0031148
-0.00297045
-0.00280961
-0.00263215
-0.00243795
-0.00222687
-0.00199872
-0.00175333
-0.00149048
-0.00120992
-0.000911396
-0.000594589
-0.000259183
9.51499e-05
0.000468753
0.000862004
0.00127532
0.00170916
0.002164
0.0026403
0.00313857
0.00365932
0.00420308
0.00477042
0.00536197
0.00597836
0.00662023
0.00728827
0.00798316
0.00870564
0.00945647
0.0102364
0.0110463
0.011887
0.0127593
0.0136641
0.0146022
0.0155746
0.0165823
0.0176262
0.0187073
0.0198264
0.0209847
0.022183
0.0234223
0.0247036
0.0260278
0.0273959
0.0288087
0.0302672
0.0317721
0.0333242
0.0349242
0.0365728
0.0382704
0.0400176
0.0418147
0.043662
0.0455596
0.0475074
0.0495051
0.0515524
0.0536486
0.0557929
0.0579843
0.0602214
0.0625027
0.0648262
0.0671898
0.0695911
0.072027
0.0744946
0.0769903
0.0795101
0.0820498
0.0846048
0.0871699
0.0897399
0.0923089
0.0948709
0.0974193
0.0999476
0.102449
0.104915
0.10734
0.109715
0.112033
0.114287
0.116468
0.118569
0.120583
0.122503
0.124322
0.126035
0.127634
0.129117
0.130477
0.131712
0.132819
0.133797
0.134644
0.135361
0.13595
0.136413
0.136754
0.136977
0.137088
0.137095
0.137005
0.136828
0.136572
0.13625
0.135871
0.135448
0.134994
0.134521
0.134041
0.133568
0.133113
0.132688
0.132305
0.131954
0.131624
0.00117573
0.00103914
0.000890583
0.000725207
0.00053933
0.000336788
0.00012137
-0.000103699
-0.000335274
-0.000570351
-0.000806148
-0.00104009
-0.00126984
-0.00149333
-0.00170874
-0.00191452
-0.00210932
-0.00229202
-0.00246169
-0.0026176
-0.00275914
-0.00288585
-0.00299737
-0.00309344
-0.00317389
-0.0032386
-0.00328749
-0.00332052
-0.00333766
-0.0033389
-0.00332423
-0.00329364
-0.00324711
-0.00318463
-0.0031062
-0.00301176
-0.00290129
-0.00277471
-0.00263194
-0.00247287
-0.00229736
-0.00210527
-0.0018964
-0.00167058
-0.0014276
-0.00116721
-0.000889157
-0.000593139
-0.000278842
5.40558e-05
0.000405885
0.000776999
0.00116779
0.00157869
0.00201015
0.00246264
0.00293664
0.00343262
0.00395109
0.00449259
0.0050577
0.00564702
0.00626115
0.00690075
0.00756646
0.00825896
0.00897897
0.00972724
0.0105045
0.0113116
0.0121493
0.0130183
0.0139196
0.014854
0.0158224
0.0168257
0.0178648
0.0189407
0.0200543
0.0212065
0.0223982
0.0236304
0.0249039
0.0262198
0.0275789
0.0289819
0.0304299
0.0319235
0.0334635
0.0350506
0.0366853
0.0383682
0.0400998
0.0418804
0.0437102
0.0455894
0.0475178
0.0494952
0.0515213
0.0535955
0.0557169
0.0578846
0.0600972
0.0623533
0.064651
0.0669882
0.0693625
0.0717713
0.0742113
0.0766793
0.0791713
0.0816834
0.0842109
0.0867489
0.0892921
0.0918351
0.0943716
0.0968956
0.0994003
0.101879
0.104324
0.106729
0.109086
0.111388
0.113626
0.115794
0.117883
0.119888
0.1218
0.123614
0.125322
0.12692
0.128402
0.129765
0.131004
0.132117
0.133102
0.133959
0.134687
0.135289
0.135766
0.136122
0.136361
0.13649
0.136515
0.136443
0.136283
0.136045
0.135738
0.135373
0.134961
0.134514
0.134042
0.133558
0.133071
0.132591
0.132131
0.131698
0.131274
0.130836
0.00153758
0.00135315
0.00117065
0.000981346
0.000776991
0.0005609
0.000336439
0.000106154
-0.000127442
-0.000361887
-0.000594888
-0.000824337
-0.00104831
-0.00126509
-0.00147317
-0.00167123
-0.00185818
-0.00203307
-0.00219514
-0.00234375
-0.00247841
-0.00259873
-0.00270439
-0.00279519
-0.00287096
-0.00293159
-0.00297701
-0.00300714
-0.00302196
-0.00302142
-0.00300547
-0.00297408
-0.00292721
-0.0028648
-0.00278682
-0.00269319
-0.00258382
-0.00245864
-0.00231752
-0.00216032
-0.00198687
-0.00179699
-0.00159049
-0.00136715
-0.00112674
-0.000869
-0.000593639
-0.000300346
1.12018e-05
0.000341329
0.000690374
0.0010587
0.00144672
0.00185486
0.00228358
0.00273333
0.0032046
0.00369784
0.00421357
0.00475233
0.00531469
0.00590121
0.00651251
0.0071492
0.00781194
0.00850137
0.00921821
0.00996317
0.010737
0.0115404
0.0123742
0.0132391
0.014136
0.0150657
0.0160291
0.017027
0.0180604
0.0191301
0.020237
0.021382
0.022566
0.02379
0.0250546
0.026361
0.0277099
0.0291021
0.0305384
0.0320196
0.0335465
0.0351195
0.0367394
0.0384067
0.0401219
0.0418852
0.0436968
0.045557
0.0474657
0.0494225
0.0514273
0.0534794
0.0555781
0.0577224
0.0599111
0.0621428
0.0644158
0.0667279
0.069077
0.0714604
0.073875
0.0763178
0.0787848
0.0812722
0.0837756
0.0862901
0.0888107
0.0913317
0.0938475
0.0963517
0.098838
0.1013
0.103729
0.10612
0.108465
0.110755
0.112984
0.115145
0.117229
0.11923
0.12114
0.122953
0.124663
0.126264
0.127751
0.129119
0.130366
0.131488
0.132483
0.133351
0.134091
0.134705
0.135196
0.135565
0.135819
0.135962
0.136
0.135942
0.135794
0.135567
0.135269
0.13491
0.1345
0.134051
0.133572
0.133073
0.132564
0.132052
0.131549
0.131062
0.130561
0.130015
0.00191882
0.00168493
0.00146646
0.00125089
0.00102549
0.000793129
0.000556853
0.00031859
8.02643e-05
-0.000156168
-0.000388874
-0.000616179
-0.000836548
-0.00104861
-0.00125117
-0.00144317
-0.00162372
-0.00179211
-0.00194772
-0.00209005
-0.00221869
-0.00233336
-0.00243381
-0.00251987
-0.00259142
-0.00264836
-0.00269061
-0.00271812
-0.00273083
-0.00272869
-0.00271162
-0.00267957
-0.00263246
-0.00257023
-0.0024928
-0.00240006
-0.00229191
-0.00216822
-0.00202885
-0.00187362
-0.00170234
-0.00151481
-0.00131081
-0.00109011
-0.000852439
-0.00059752
-0.000325039
-3.46765e-05
0.000273893
0.000601002
0.000947001
0.00131227
0.00169721
0.00210228
0.00252792
0.00297457
0.00344271
0.00393281
0.00444538
0.00498093
0.00554003
0.00612325
0.00673116
0.00736437
0.00802351
0.00870924
0.00942223
0.0101632
0.0109328
0.0117318
0.0125609
0.0134208
0.0143125
0.0152366
0.016194
0.0171856
0.0182122
0.0192746
0.0203738
0.0215105
0.0226857
0.0239002
0.0251549
0.0264506
0.0277881
0.0291683
0.0305918
0.0320596
0.0335721
0.0351301
0.0367342
0.0383849
0.0400826
0.0418278
0.0436206
0.0454611
0.0473494
0.0492852
0.0512684
0.0532983
0.0553743
0.0574954
0.0596606
0.0618686
0.0641176
0.0664057
0.0687308
0.0710903
0.0734815
0.075901
0.0783455
0.080811
0.0832932
0.0857874
0.0882888
0.0907919
0.0932909
0.0957799
0.0982523
0.100702
0.103121
0.105503
0.10784
0.110126
0.112351
0.11451
0.116594
0.118597
0.120511
0.122329
0.124045
0.125654
0.12715
0.128529
0.129787
0.13092
0.131928
0.132809
0.133563
0.134191
0.134695
0.135077
0.135344
0.135498
0.135547
0.135498
0.135358
0.135136
0.13484
0.134481
0.134067
0.133608
0.133114
0.132594
0.132055
0.131506
0.130955
0.13041
0.129831
0.129181
0.00231154
0.00202736
0.00177158
0.00152804
0.00127963
0.00102886
0.000778516
0.000529989
0.00028467
4.40266e-05
-0.000190535
-0.000417738
-0.000636427
-0.000845568
-0.00104425
-0.00123169
-0.00140724
-0.00157035
-0.00172059
-0.0018576
-0.00198109
-0.00209086
-0.00218675
-0.00226865
-0.00233646
-0.00239013
-0.0024296
-0.0024548
-0.00246567
-0.00246215
-0.00244416
-0.00241162
-0.00236444
-0.00230253
-0.00222576
-0.00213404
-0.00202723
-0.00190515
-0.00176765
-0.00161452
-0.00144554
-0.00126049
-0.00105914
-0.000841218
-0.000606448
-0.000354514
-8.50907e-05
0.000202147
0.000507529
0.000831396
0.00117411
0.00153607
0.00191768
0.00231938
0.00274162
0.00318485
0.00364951
0.00413609
0.00464508
0.00517701
0.00573241
0.00631182
0.00691583
0.00754502
0.0082
0.00888141
0.00958991
0.0103262
0.0110908
0.0118846
0.0127083
0.0135625
0.014448
0.0153656
0.0163162
0.0173004
0.0183193
0.0193735
0.0204638
0.0215912
0.0227565
0.0239605
0.025204
0.0264878
0.0278128
0.0291798
0.0305894
0.0320424
0.0335395
0.0350814
0.0366686
0.0383016
0.039981
0.041707
0.04348
0.0453001
0.0471674
0.0490817
0.0510427
0.0530501
0.0551032
0.0572012
0.0593431
0.0615276
0.0637532
0.0660181
0.0683202
0.0706572
0.0730263
0.0754245
0.0778484
0.0802942
0.0827578
0.0852348
0.0877201
0.0902086
0.0926946
0.0951722
0.0976351
0.100077
0.10249
0.104868
0.107203
0.109489
0.111716
0.113879
0.115969
0.117978
0.119901
0.121729
0.123458
0.125079
0.126589
0.127982
0.129255
0.130404
0.131428
0.132324
0.133094
0.133736
0.134254
0.13465
0.134928
0.135093
0.13515
0.135108
0.134971
0.13475
0.134452
0.134087
0.133663
0.133189
0.132674
0.132126
0.131553
0.130961
0.130359
0.129754
0.129099
0.128348
0.00270861
0.00237388
0.00207999
0.00180727
0.00153438
0.00126355
0.000997334
0.000736671
0.000482471
0.000235754
-2.49331e-06
-0.000231368
-0.000450065
-0.000657864
-0.000854153
-0.00103841
-0.00121022
-0.00136921
-0.00151512
-0.00164774
-0.00176692
-0.00187255
-0.00196455
-0.00204287
-0.00210747
-0.00215832
-0.0021954
-0.00221863
-0.00222797
-0.00222334
-0.00220467
-0.00217185
-0.00212479
-0.00206336
-0.00198744
-0.00189689
-0.00179154
-0.00167121
-0.00153571
-0.0013848
-0.00121825
-0.00103583
-0.000837266
-0.000622273
-0.000390543
-0.000141746
0.000124456
0.000408392
0.000710399
0.00103083
0.00137005
0.00172848
0.00210651
0.0025046
0.00292317
0.00336267
0.00382354
0.00430626
0.00481132
0.00533923
0.00589051
0.00646568
0.00706531
0.00768997
0.00834025
0.00901678
0.00972018
0.0104511
0.0112102
0.0119981
0.0128155
0.0136631
0.0145417
0.015452
0.0163948
0.0173709
0.018381
0.0194259
0.0205065
0.0216235
0.0227777
0.02397
0.0252012
0.0264721
0.0277834
0.0291359
0.0305304
0.0319675
0.033448
0.0349725
0.0365417
0.0381559
0.0398158
0.0415218
0.0432741
0.0450729
0.0469183
0.0488102
0.0507486
0.0527329
0.0547628
0.0568374
0.058956
0.0611172
0.0633197
0.0655619
0.0678418
0.0701572
0.0725054
0.0748836
0.0772886
0.0797168
0.082164
0.0846261
0.0870982
0.0895751
0.0920515
0.0945213
0.0969785
0.0994164
0.101828
0.104207
0.106545
0.108835
0.11107
0.113241
0.115341
0.117364
0.1193
0.121144
0.122889
0.124528
0.126057
0.127469
0.128761
0.12993
0.130972
0.131887
0.132674
0.133333
0.133866
0.134276
0.134566
0.13474
0.134805
0.134766
0.134631
0.134408
0.134104
0.133728
0.133289
0.132796
0.132255
0.131676
0.131064
0.130426
0.129771
0.129105
0.128374
0.127527
0.00310363
0.00271842
0.002386
0.00208328
0.00178483
0.00149269
0.00120922
0.000934922
0.000670291
0.000415939
0.000172459
-5.96055e-05
-0.000279772
-0.000487633
-0.00068286
-0.000865186
-0.00103439
-0.00119033
-0.00133289
-0.00146203
-0.00157771
-0.00167993
-0.0017687
-0.00184404
-0.00190597
-0.00195448
-0.00198958
-0.00201123
-0.00201937
-0.00201393
-0.00199484
-0.00196199
-0.00191526
-0.00185451
-0.00177961
-0.00169039
-0.00158667
-0.00146823
-0.00133486
-0.00118631
-0.00102233
-0.000842665
-0.000647018
-0.00043508
-0.000206519
3.90077e-05
0.000301843
0.000582326
0.0008808
0.00119763
0.00153319
0.00188789
0.00226215
0.00265639
0.00307106
0.00350657
0.00396338
0.00444194
0.00494275
0.0054663
0.00601308
0.0065836
0.00717842
0.00779809
0.00844319
0.00911431
0.00981205
0.010537
0.0112899
0.0120712
0.0128818
0.0137221
0.014593
0.0154951
0.0164293
0.0173962
0.0183966
0.0194313
0.0205011
0.0216066
0.0227488
0.0239283
0.0251461
0.0264027
0.0276992
0.0290361
0.0304142
0.0318342
0.0332969
0.0348028
0.0363527
0.037947
0.0395864
0.0412711
0.0430016
0.044778
0.0466007
0.0484695
0.0503844
0.0523451
0.0543511
0.056402
0.0584969
0.0606348
0.0628143
0.065034
0.0672921
0.0695865
0.0719148
0.0742742
0.0766616
0.0790736
0.0815064
0.0839557
0.0864169
0.088885
0.0913545
0.0938198
0.0962747
0.0987126
0.101127
0.10351
0.105855
0.108155
0.110401
0.112586
0.114703
0.116742
0.118698
0.120563
0.122329
0.123991
0.125543
0.126979
0.128295
0.129487
0.130552
0.131489
0.132296
0.132974
0.133525
0.133949
0.134251
0.134435
0.134506
0.134471
0.134335
0.134107
0.133795
0.133405
0.132948
0.132431
0.131861
0.131246
0.130593
0.129907
0.129197
0.128471
0.127666
0.126727
0.00349072
0.00305535
0.00268427
0.00235106
0.0020263
0.0017119
0.00141011
0.001121
0.000844688
0.000581407
0.000331397
9.48602e-05
-0.000128042
-0.000337198
-0.000532541
-0.000714038
-0.000881696
-0.00103556
-0.0011757
-0.0013022
-0.00141516
-0.00151469
-0.00160088
-0.00167384
-0.00173363
-0.0017803
-0.00181386
-0.00183431
-0.0018416
-0.00183569
-0.00181647
-0.00178384
-0.00173767
-0.00167782
-0.00160413
-0.00151642
-0.00141447
-0.00129807
-0.00116697
-0.00102091
-0.000859631
-0.00068284
-0.000490224
-0.000281448
-5.61648e-05
0.000185979
0.000445331
0.000722236
0.00101705
0.00133014
0.0016619
0.00201273
0.00238305
0.00277327
0.00318383
0.00361515
0.00406766
0.00454182
0.0050381
0.00555697
0.00609893
0.00666445
0.00725408
0.00786834
0.00850781
0.00917304
0.00986462
0.0105831
0.0113292
0.0121033
0.0129063
0.0137386
0.014601
0.0154943
0.016419
0.0173759
0.0183658
0.0193893
0.0204472
0.0215403
0.0226693
0.0238349
0.0250381
0.0262794
0.0275598
0.0288798
0.0302404
0.0316421
0.0330856
0.0345718
0.0361011
0.0376743
0.0392918
0.0409541
0.0426616
0.0444147
0.0462135
0.0480582
0.0499487
0.0518849
0.0538665
0.0558931
0.0579638
0.060078
0.0622344
0.0644316
0.0666681
0.0689419
0.0712508
0.0735921
0.075963
0.0783602
0.0807799
0.0832182
0.0856705
0.088132
0.0905973
0.0930608
0.0955165
0.0979579
0.100378
0.10277
0.105127
0.10744
0.109702
0.111906
0.114043
0.116105
0.118085
0.119975
0.121769
0.123459
0.125039
0.126503
0.127847
0.129067
0.130159
0.131121
0.131952
0.132652
0.133222
0.133663
0.133979
0.134173
0.134251
0.134218
0.134081
0.133847
0.133523
0.133118
0.13264
0.132096
0.131495
0.130843
0.130146
0.12941
0.128645
0.127858
0.126982
0.125954
0.00386449
0.00337943
0.00296976
0.0026058
0.00225424
0.00191692
0.001596
0.00129117
0.00100217
0.000728915
0.000471298
0.000229202
2.47728e-06
-0.00020904
-0.000405527
-0.000587189
-0.000754249
-0.000906941
-0.0010455
-0.00117016
-0.00128115
-0.00137867
-0.00146294
-0.0015341
-0.00159229
-0.00163759
-0.00167006
-0.00168971
-0.00169653
-0.00169045
-0.0016714
-0.00163926
-0.0015939
-0.00153517
-0.00146288
-0.00137685
-0.00127684
-0.00116262
-0.00103392
-0.000890476
-0.000732005
-0.000558193
-0.0003687
-0.000163173
5.87496e-05
0.000297425
0.000553206
0.000826444
0.0011175
0.00142676
0.00175462
0.00210147
0.00246773
0.0028538
0.0032601
0.00368705
0.00413508
0.00460463
0.00509616
0.00561011
0.00614696
0.00670718
0.00729128
0.00789978
0.00853322
0.00919214
0.0098771
0.0105886
0.0113273
0.0120937
0.0128885
0.0137121
0.0145654
0.015449
0.0163635
0.0173096
0.018288
0.0192994
0.0203446
0.0214241
0.0225389
0.0236896
0.0248771
0.0261019
0.027365
0.028667
0.0300087
0.0313908
0.032814
0.0342791
0.0357866
0.0373373
0.0389317
0.0405703
0.0422537
0.0439821
0.0457559
0.0475753
0.0494405
0.0513513
0.0533075
0.0553089
0.057355
0.0594449
0.0615777
0.0637522
0.065967
0.0682203
0.07051
0.0728338
0.0751888
0.077572
0.0799799
0.0824086
0.0848537
0.0873104
0.0897737
0.092238
0.0946971
0.0971449
0.0995744
0.101979
0.10435
0.106681
0.108964
0.11119
0.113353
0.115442
0.117452
0.119373
0.121198
0.122921
0.124534
0.126032
0.127409
0.128661
0.129785
0.130777
0.131635
0.13236
0.132952
0.133412
0.133744
0.133949
0.134035
0.134004
0.133866
0.133625
0.133289
0.132867
0.132367
0.131795
0.131159
0.130468
0.129726
0.12894
0.128119
0.127272
0.126326
0.125214
0.00421994
0.00368573
0.00323768
0.00284291
0.00246427
0.00210358
0.00176293
0.00144169
0.00113924
0.00085516
0.00058905
0.000340477
0.000109011
-0.000105775
-0.000304306
-0.000487014
-0.00065433
-0.000806669
-0.00094443
-0.00106799
-0.0011777
-0.00127388
-0.00135682
-0.00142675
-0.00148385
-0.00152827
-0.00156008
-0.00157935
-0.00158605
-0.00158015
-0.00156156
-0.00153018
-0.00148587
-0.00142847
-0.00135779
-0.0012736
-0.00117568
-0.00106376
-0.000937587
-0.000796868
-0.000641297
-0.000470539
-0.000284234
-8.20131e-05
0.000136492
0.000371644
0.000623802
0.000893324
0.00118058
0.00148596
0.00180986
0.00215267
0.00251478
0.00289661
0.00329855
0.00372102
0.00416444
0.00462923
0.00511583
0.00562467
0.00615619
0.00671086
0.00728915
0.00789158
0.00851866
0.00917091
0.00984883
0.0105529
0.0112838
0.0120419
0.0128279
0.0136423
0.0144858
0.015359
0.0162625
0.017197
0.0181632
0.0191616
0.020193
0.0212581
0.0223577
0.0234924
0.024663
0.0258702
0.0271148
0.0283976
0.0297192
0.0310804
0.0324819
0.0339246
0.035409
0.0369359
0.0385058
0.0401195
0.0417773
0.0434798
0.0452274
0.0470204
0.0488589
0.0507432
0.0526731
0.0546485
0.0566689
0.0587338
0.0608424
0.0629938
0.0651865
0.0674191
0.0696897
0.071996
0.0743356
0.0767054
0.0791023
0.0815224
0.0839615
0.0864151
0.0888782
0.0913452
0.0938103
0.0962671
0.0987088
0.101128
0.103518
0.105871
0.108178
0.110432
0.112624
0.114746
0.116789
0.118746
0.120609
0.122369
0.124021
0.125558
0.126973
0.128263
0.129422
0.130448
0.131338
0.132092
0.13271
0.133192
0.133541
0.133761
0.133855
0.133828
0.133688
0.133441
0.133093
0.132653
0.132128
0.131527
0.130857
0.130125
0.129337
0.1285
0.127623
0.126716
0.125702
0.124509
0.00455236
0.00396963
0.00348349
0.00305796
0.00265214
0.00226779
0.00190702
0.00156885
0.00125234
0.000956784
0.00068146
0.00042566
0.000188687
-3.01412e-05
-0.000231495
-0.000416026
-0.000584356
-0.000737076
-0.000874744
-0.000997883
-0.00110697
-0.00120242
-0.00128462
-0.00135385
-0.00141036
-0.00145435
-0.00148595
-0.00150521
-0.00151216
-0.00150675
-0.00148892
-0.00145857
-0.00141554
-0.00135968
-0.00129077
-0.00120858
-0.00111288
-0.00100339
-0.000879841
-0.000741927
-0.000589319
-0.000421659
-0.000238572
-3.96824e-05
0.000175384
0.000406996
0.000655518
0.000921319
0.00120477
0.00150627
0.0018262
0.00216494
0.0025229
0.00290044
0.00329798
0.00371591
0.00415464
0.00461458
0.00509613
0.00559971
0.00612575
0.00667467
0.00724696
0.00784308
0.00846352
0.00910878
0.00977931
0.0104756
0.0111982
0.0119476
0.0127243
0.0135289
0.014362
0.0152242
0.016116
0.0170382
0.0179912
0.0189758
0.0199926
0.0210423
0.0221257
0.0232433
0.024396
0.0255845
0.0268095
0.0280717
0.029372
0.0307111
0.0320897
0.0335086
0.0349685
0.0364702
0.0380144
0.0396016
0.0412326
0.0429078
0.0446278
0.046393
0.0482037
0.0500602
0.0519626
0.0539108
0.0559046
0.0579436
0.0600272
0.0621546
0.0643247
0.0665362
0.0687873
0.0710761
0.0734003
0.0757571
0.0781434
0.0805556
0.0829897
0.0854414
0.0879057
0.0903772
0.0928502
0.0953183
0.0977748
0.100213
0.102624
0.105002
0.107338
0.109623
0.111849
0.114007
0.11609
0.118087
0.119992
0.121796
0.123492
0.125072
0.126531
0.127863
0.129063
0.130128
0.131055
0.131842
0.132489
0.132997
0.133367
0.133603
0.133708
0.133687
0.133547
0.133293
0.132933
0.132475
0.131927
0.131295
0.130589
0.129816
0.128982
0.128093
0.127161
0.126195
0.125114
0.123842
0.00485729
0.00422672
0.00370286
0.0032467
0.00281371
0.00240558
0.00202441
0.00166895
0.00133795
0.00103039
0.000745287
0.000481657
0.000238545
1.50177e-05
-0.000189827
-0.000376847
-0.000546854
-0.000700608
-0.000838825
-0.000962164
-0.00107122
-0.00116651
-0.00124849
-0.00131753
-0.00137393
-0.00141794
-0.00144972
-0.00146935
-0.00147688
-0.00147227
-0.00145548
-0.0014264
-0.00138488
-0.00133073
-0.00126375
-0.0011837
-0.00109033
-0.000983363
-0.000862511
-0.000727451
-0.000577832
-0.000413278
-0.000233405
-3.78311e-05
0.000173818
0.000401919
0.000646843
0.000908966
0.00118867
0.00148633
0.00180233
0.00213705
0.00249086
0.00286414
0.00325729
0.00367068
0.00410472
0.00455977
0.00503622
0.00553447
0.00605492
0.00659798
0.0071641
0.00775373
0.00836733
0.00900534
0.0096682
0.0103564
0.0110703
0.0118105
0.0125775
0.0133718
0.014194
0.0150445
0.0159241
0.0168332
0.0177724
0.0187423
0.0197437
0.0207771
0.0218432
0.0229428
0.0240766
0.0252452
0.0264495
0.02769
0.0289678