/*--------------------------------*- C++ -*----------------------------------*\
  =========                 |
  \\      /  F ield         | OpenFOAM: The Open Source CFD Toolbox
   \\    /   O peration     | Website:  https://openfoam.org
    \\  /    A nd           | Version:  7
     \\/     M anipulation  |
\*---------------------------------------------------------------------------*/
FoamFile
{
    version     2.0;
    format      ascii;
    class       surfaceScalarField;
    location    "0.15";
    object      phi;
}
// * * * * * * * * * * * * * * * * * * * * * * * * * * * * * * * * * * * * * //

dimensions      [0 3 -1 0 0 0 0];

internalField   nonuniform List<scalar> 
25360
(
5.92585e-11
-5.92804e-11
2.09405e-10
-1.5014e-10
3.76723e-10
-1.67319e-10
5.1261e-10
-1.35878e-10
5.88442e-10
-7.58342e-11
5.88779e-10
-3.33356e-13
5.06394e-10
8.23806e-11
3.39152e-10
1.67245e-10
8.82145e-11
2.50938e-10
-2.43193e-10
3.31404e-10
-6.50571e-10
4.07378e-10
-1.12867e-09
4.78089e-10
-1.67181e-09
5.43136e-10
-2.27416e-09
6.02358e-10
-2.92994e-09
6.55768e-10
-3.63344e-09
7.03503e-10
-4.37923e-09
7.45789e-10
-5.16214e-09
7.82907e-10
-5.97733e-09
8.15181e-10
-6.82029e-09
8.42958e-10
-7.68688e-09
8.66594e-10
-8.57332e-09
8.86446e-10
-9.47619e-09
9.02868e-10
-1.03924e-08
9.16209e-10
-1.13192e-08
9.26801e-10
-1.22541e-08
9.34952e-10
-1.31951e-08
9.40961e-10
-1.41402e-08
9.45105e-10
-1.50878e-08
9.47639e-10
-1.60367e-08
9.48801e-10
-1.69855e-08
9.48806e-10
-1.79333e-08
9.47847e-10
-1.88794e-08
9.46096e-10
-1.98231e-08
9.43712e-10
-2.07639e-08
9.40835e-10
-2.17015e-08
9.37591e-10
-2.26356e-08
9.34088e-10
-2.35661e-08
9.30428e-10
-2.44928e-08
9.267e-10
-2.54157e-08
9.22978e-10
-2.63351e-08
9.19328e-10
-2.72509e-08
9.15812e-10
-2.81634e-08
9.12478e-10
-2.90727e-08
9.0937e-10
-2.99793e-08
9.06529e-10
-3.08833e-08
9.03992e-10
-3.1785e-08
9.01789e-10
-3.2685e-08
8.99943e-10
-3.35835e-08
8.98476e-10
-3.44809e-08
8.97408e-10
-3.53776e-08
8.96761e-10
-3.62742e-08
8.96548e-10
-3.7171e-08
8.96781e-10
-3.80684e-08
8.97472e-10
-3.89671e-08
8.98626e-10
-3.98673e-08
9.0025e-10
-4.07696e-08
9.02345e-10
-4.16746e-08
9.04915e-10
-4.25825e-08
9.07957e-10
-4.3494e-08
9.11468e-10
-4.44094e-08
9.15437e-10
-4.53293e-08
9.19855e-10
-4.6254e-08
9.24704e-10
-4.7184e-08
9.29962e-10
-4.81196e-08
9.35602e-10
-4.90612e-08
9.41594e-10
-5.00091e-08
9.47905e-10
-5.09636e-08
9.54497e-10
-5.19249e-08
9.61327e-10
-5.28932e-08
9.68343e-10
-5.38687e-08
9.75487e-10
-5.48514e-08
9.82693e-10
-5.58413e-08
9.8989e-10
-5.68383e-08
9.96997e-10
-5.78422e-08
1.00393e-09
-5.88528e-08
1.01059e-09
-5.98697e-08
1.01688e-09
-6.08924e-08
1.02268e-09
-6.19202e-08
1.02786e-09
-6.29526e-08
1.03231e-09
-6.39884e-08
1.03588e-09
-6.50269e-08
1.03843e-09
-6.60666e-08
1.03979e-09
-6.71064e-08
1.0398e-09
-6.81447e-08
1.03828e-09
-6.91798e-08
1.03506e-09
-7.02097e-08
1.02993e-09
-7.12324e-08
1.0227e-09
-7.22456e-08
1.01315e-09
-7.32466e-08
1.00107e-09
-7.42329e-08
9.86243e-10
-7.52013e-08
9.68437e-10
-7.61487e-08
9.47424e-10
-7.70717e-08
9.22969e-10
-7.79666e-08
8.94837e-10
-7.88293e-08
8.62793e-10
-7.96559e-08
8.26605e-10
-8.0442e-08
7.86046e-10
-8.11829e-08
7.40898e-10
-8.18738e-08
6.90951e-10
-8.25099e-08
6.36004e-10
-8.30857e-08
5.75878e-10
-8.35961e-08
5.10407e-10
-8.40356e-08
4.39453e-10
-8.43985e-08
3.62904e-10
-8.46792e-08
2.80679e-10
-8.48719e-08
1.92732e-10
-8.4971e-08
9.90569e-11
-8.49706e-08
-3.12339e-13
-8.48654e-08
-1.05281e-10
-8.46496e-08
-2.15718e-10
-8.43182e-08
-3.31424e-10
-8.38661e-08
-4.52145e-10
-8.32885e-08
-5.77563e-10
-8.25812e-08
-7.07292e-10
-8.17403e-08
-8.40879e-10
-8.07625e-08
-9.77795e-10
-7.96451e-08
-1.11744e-09
-7.8386e-08
-1.25914e-09
-7.69838e-08
-1.40213e-09
-7.54382e-08
-1.54562e-09
-7.37495e-08
-1.6887e-09
-7.19191e-08
-1.83043e-09
-6.99493e-08
-1.96978e-09
-6.78436e-08
-2.1057e-09
-6.56065e-08
-2.23706e-09
-6.32438e-08
-2.36271e-09
-6.07624e-08
-2.48148e-09
-5.81702e-08
-2.59218e-09
-5.54766e-08
-2.6936e-09
-5.2692e-08
-2.78458e-09
-4.98281e-08
-2.86395e-09
-4.68975e-08
-2.93059e-09
-4.3914e-08
-2.98346e-09
-4.08925e-08
-3.02155e-09
-3.78485e-08
-3.04396e-09
-3.47986e-08
-3.04989e-09
-3.176e-08
-3.03864e-09
-2.87503e-08
-3.00963e-09
-2.57879e-08
-2.96241e-09
-2.28912e-08
-2.89668e-09
-2.0079e-08
-2.81228e-09
-1.73698e-08
-2.70918e-09
-1.47823e-08
-2.58752e-09
-1.23347e-08
-2.44759e-09
-1.00448e-08
-2.28983e-09
-7.93001e-09
-2.11483e-09
-6.00662e-09
-1.92338e-09
-4.29016e-09
-1.71646e-09
-2.79485e-09
-1.49531e-09
-1.53335e-09
-1.2615e-09
-5.16227e-10
-1.01713e-09
2.48904e-10
-7.65132e-10
7.58705e-10
-5.09799e-10
1.01649e-09
-2.57784e-10
1.0365e-09
-2.00115e-11
8.50968e-10
1.85538e-10
5.23575e-10
3.27394e-10
1.74378e-10
3.49198e-10
1.74378e-10
1.48119e-10
-2.07394e-10
4.15049e-10
-4.17072e-10
6.79718e-10
-4.31987e-10
8.54046e-10
-3.1021e-10
8.78223e-10
-1.00015e-10
7.14562e-10
1.63327e-10
3.41995e-10
4.54947e-10
-2.48421e-10
7.57656e-10
-1.05721e-09
1.05972e-09
-2.07901e-09
1.35322e-09
-3.30452e-09
1.63289e-09
-4.72179e-09
1.89537e-09
-6.3173e-09
2.13865e-09
-8.07663e-09
2.36169e-09
-9.98503e-09
2.56418e-09
-1.20278e-08
2.74631e-09
-1.41907e-08
2.90865e-09
-1.64598e-08
3.05205e-09
-1.88222e-08
3.17753e-09
-2.12655e-08
3.28625e-09
-2.37783e-08
3.37941e-09
-2.63501e-08
3.45827e-09
-2.89714e-08
3.52409e-09
-3.16333e-08
3.5781e-09
-3.4328e-08
3.62151e-09
-3.70485e-08
3.65546e-09
-3.97886e-08
3.68105e-09
-4.25427e-08
3.69929e-09
-4.53063e-08
3.71115e-09
-4.8075e-08
3.71751e-09
-5.08453e-08
3.71919e-09
-5.36144e-08
3.71693e-09
-5.63797e-08
3.71139e-09
-5.91392e-08
3.70321e-09
-6.18913e-08
3.69291e-09
-6.46347e-08
3.68098e-09
-6.73685e-08
3.66787e-09
-7.0092e-08
3.65397e-09
-7.28049e-08
3.63963e-09
-7.55071e-08
3.62514e-09
-7.81985e-08
3.61079e-09
-8.08795e-08
3.5968e-09
-8.35504e-08
3.58338e-09
-8.62118e-08
3.57072e-09
-8.88642e-08
3.55898e-09
-9.15085e-08
3.5483e-09
-9.41456e-08
3.53882e-09
-9.67763e-08
3.53064e-09
-9.94016e-08
3.52384e-09
-1.02023e-07
3.51853e-09
-1.04641e-07
3.51475e-09
-1.07257e-07
3.51258e-09
-1.09872e-07
3.51206e-09
-1.12488e-07
3.51325e-09
-1.15105e-07
3.51616e-09
-1.17726e-07
3.52084e-09
-1.20351e-07
3.52727e-09
-1.22981e-07
3.53547e-09
-1.25619e-07
3.54543e-09
-1.28264e-07
3.55711e-09
-1.3092e-07
3.57049e-09
-1.33585e-07
3.58551e-09
-1.36263e-07
3.60211e-09
-1.38953e-07
3.6202e-09
-1.41657e-07
3.63967e-09
-1.44376e-07
3.66041e-09
-1.4711e-07
3.68229e-09
-1.49861e-07
3.70514e-09
-1.52628e-07
3.7288e-09
-1.55413e-07
3.75304e-09
-1.58215e-07
3.77764e-09
-1.61035e-07
3.80235e-09
-1.63872e-07
3.82689e-09
-1.66726e-07
3.85094e-09
-1.69596e-07
3.87415e-09
-1.72481e-07
3.89617e-09
-1.75381e-07
3.91658e-09
-1.78293e-07
3.93495e-09
-1.81216e-07
3.95079e-09
-1.84148e-07
3.96363e-09
-1.87085e-07
3.97291e-09
-1.90024e-07
3.97807e-09
-1.92963e-07
3.9785e-09
-1.95897e-07
3.97358e-09
-1.98821e-07
3.96261e-09
-2.01731e-07
3.94492e-09
-2.04621e-07
3.91975e-09
-2.07485e-07
3.88636e-09
-2.10315e-07
3.84395e-09
-2.13106e-07
3.79171e-09
-2.15849e-07
3.72881e-09
-2.18535e-07
3.65439e-09
-2.21155e-07
3.56761e-09
-2.23699e-07
3.46759e-09
-2.26158e-07
3.35346e-09
-2.2852e-07
3.22436e-09
-2.30772e-07
3.07945e-09
-2.32904e-07
2.9179e-09
-2.34902e-07
2.7389e-09
-2.36753e-07
2.54172e-09
-2.38443e-07
2.32564e-09
-2.39957e-07
2.09003e-09
-2.41281e-07
1.83432e-09
-2.42399e-07
1.55805e-09
-2.43297e-07
1.26085e-09
-2.43959e-07
9.42483e-10
-2.44369e-07
6.02829e-10
-2.44512e-07
2.41933e-10
-2.44372e-07
-1.39999e-10
-2.43935e-07
-5.42578e-10
-2.43186e-07
-9.65219e-10
-2.4211e-07
-1.40713e-09
-2.40695e-07
-1.86728e-09
-2.38928e-07
-2.34442e-09
-2.36798e-07
-2.83706e-09
-2.34296e-07
-3.34342e-09
-2.31412e-07
-3.8615e-09
-2.2814e-07
-4.38901e-09
-2.24476e-07
-4.92338e-09
-2.20416e-07
-5.4618e-09
-2.15961e-07
-6.00118e-09
-2.11111e-07
-6.53821e-09
-2.05872e-07
-7.06933e-09
-2.00251e-07
-7.59077e-09
-1.94259e-07
-8.09856e-09
-1.87907e-07
-8.58858e-09
-1.81213e-07
-9.0566e-09
-1.74196e-07
-9.49828e-09
-1.66879e-07
-9.90924e-09
-1.59288e-07
-1.02851e-08
-1.51451e-07
-1.06215e-08
-1.434e-07
-1.09143e-08
-1.35172e-07
-1.11594e-08
-1.26802e-07
-1.13529e-08
-1.18332e-07
-1.14912e-08
-1.09805e-07
-1.1571e-08
-1.01266e-07
-1.15895e-08
-9.27605e-08
-1.1544e-08
-8.43376e-08
-1.14325e-08
-7.60465e-08
-1.12535e-08
-6.79373e-08
-1.10059e-08
-6.00605e-08
-1.06891e-08
-5.24664e-08
-1.03033e-08
-4.52049e-08
-9.84903e-09
-3.83248e-08
-9.32764e-09
-3.18736e-08
-8.74103e-09
-2.58967e-08
-8.09179e-09
-2.04367e-08
-7.38332e-09
-1.55332e-08
-6.61995e-09
-1.12214e-08
-5.80714e-09
-7.53097e-09
-4.95195e-09
-4.4845e-09
-4.0636e-09
-2.095e-09
-3.15464e-09
-3.62204e-10
-2.2426e-09
7.32938e-10
-1.35293e-09
1.23645e-09
-5.23523e-10
1.23376e-09
1.88225e-10
8.65913e-10
6.95247e-10
3.47912e-10
8.67203e-10
5.22295e-10
1.69406e-10
-3.76801e-10
4.3505e-10
-6.82721e-10
6.48783e-10
-6.45722e-10
7.05098e-10
-3.66528e-10
5.28965e-10
7.6118e-11
7.04522e-11
6.21843e-10
-7.00285e-10
1.22568e-09
-1.79758e-09
1.85495e-09
-3.22412e-09
2.48626e-09
-4.97404e-09
3.10313e-09
-7.0353e-09
3.69416e-09
-9.39169e-09
4.25175e-09
-1.20241e-08
4.77108e-09
-1.49119e-08
5.24944e-09
-1.80333e-08
5.68563e-09
-2.13667e-08
6.07967e-09
-2.48904e-08
6.4324e-09
-2.85837e-08
6.74529e-09
-3.24264e-08
7.02025e-09
-3.63997e-08
7.25953e-09
-4.04858e-08
7.46555e-09
-4.46683e-08
7.64081e-09
-4.89322e-08
7.78791e-09
-5.32634e-08
7.90939e-09
-5.76497e-08
8.00774e-09
-6.20796e-08
8.08538e-09
-6.65432e-08
8.14462e-09
-7.10315e-08
8.18762e-09
-7.55368e-08
8.21643e-09
-8.00522e-08
8.23294e-09
-8.45719e-08
8.2389e-09
-8.90909e-08
8.23592e-09
-9.3605e-08
8.22547e-09
-9.81106e-08
8.20888e-09
-1.02605e-07
8.18734e-09
-1.07086e-07
8.16195e-09
-1.11552e-07
8.13366e-09
-1.16001e-07
8.10335e-09
-1.20433e-07
8.0718e-09
-1.24848e-07
8.03967e-09
-1.29245e-07
8.00759e-09
-1.33624e-07
7.97608e-09
-1.37986e-07
7.94562e-09
-1.42332e-07
7.91663e-09
-1.46663e-07
7.88948e-09
-1.50979e-07
7.86449e-09
-1.55282e-07
7.84194e-09
-1.59573e-07
7.82209e-09
-1.63855e-07
7.80516e-09
-1.68128e-07
7.79134e-09
-1.72394e-07
7.78079e-09
-1.76655e-07
7.77364e-09
-1.80913e-07
7.77001e-09
-1.85169e-07
7.77e-09
-1.89427e-07
7.77367e-09
-1.93687e-07
7.78108e-09
-1.97952e-07
7.79224e-09
-2.02224e-07
7.80716e-09
-2.06504e-07
7.82581e-09
-2.10795e-07
7.84812e-09
-2.15099e-07
7.87401e-09
-2.19417e-07
7.90337e-09
-2.2375e-07
7.93604e-09
-2.28102e-07
7.97182e-09
-2.32473e-07
8.0105e-09
-2.36864e-07
8.0518e-09
-2.41277e-07
8.09542e-09
-2.45713e-07
8.14099e-09
-2.50173e-07
8.18812e-09
-2.54656e-07
8.23635e-09
-2.59163e-07
8.28515e-09
-2.63695e-07
8.33398e-09
-2.6825e-07
8.38218e-09
-2.72829e-07
8.42908e-09
-2.77428e-07
8.47393e-09
-2.82048e-07
8.51589e-09
-2.86686e-07
8.55409e-09
-2.91338e-07
8.58755e-09
-2.96003e-07
8.61526e-09
-3.00675e-07
8.6361e-09
-3.05351e-07
8.64892e-09
-3.10026e-07
8.65247e-09
-3.14692e-07
8.64544e-09
-3.19345e-07
8.62644e-09
-3.23977e-07
8.59401e-09
-3.28578e-07
8.54665e-09
-3.33141e-07
8.48276e-09
-3.37656e-07
8.4007e-09
-3.42111e-07
8.29879e-09
-3.46494e-07
8.17528e-09
-3.50794e-07
8.02838e-09
-3.54996e-07
7.8563e-09
-3.59085e-07
7.65719e-09
-3.63047e-07
7.42922e-09
-3.66864e-07
7.17055e-09
-3.70519e-07
6.87936e-09
-3.73993e-07
6.55388e-09
-3.77268e-07
6.19238e-09
-3.80322e-07
5.7932e-09
-3.83135e-07
5.35479e-09
-3.85685e-07
4.87571e-09
-3.8795e-07
4.35467e-09
-3.89906e-07
3.79054e-09
-3.91531e-07
3.18241e-09
-3.92799e-07
2.52958e-09
-3.93688e-07
1.83162e-09
-3.94174e-07
1.08841e-09
-3.94232e-07
3.00118e-10
-3.93839e-07
-5.32697e-10
-3.92973e-07
-1.4091e-09
-3.9161e-07
-2.32775e-09
-3.89731e-07
-3.28682e-09
-3.87314e-07
-4.28406e-09
-3.84342e-07
-5.31667e-09
-3.80797e-07
-6.38136e-09
-3.76667e-07
-7.47429e-09
-3.71937e-07
-8.59108e-09
-3.66599e-07
-9.72677e-09
-3.60647e-07
-1.08759e-08
-3.54076e-07
-1.20323e-08
-3.46888e-07
-1.31895e-08
-3.39086e-07
-1.43404e-08
-3.30678e-07
-1.54773e-08
-3.21676e-07
-1.65923e-08
-3.12098e-07
-1.76771e-08
-3.01964e-07
-1.87227e-08
-2.913e-07
-1.97204e-08
-2.80137e-07
-2.06609e-08
-2.68511e-07
-2.1535e-08
-2.56463e-07
-2.23335e-08
-2.44037e-07
-2.30473e-08
-2.31284e-07
-2.36676e-08
-2.18258e-07
-2.41858e-08
-2.05017e-07
-2.45937e-08
-1.91624e-07
-2.48839e-08
-1.78146e-07
-2.50495e-08
-1.64651e-07
-2.50844e-08
-1.51211e-07
-2.49833e-08
-1.37902e-07
-2.4742e-08
-1.24798e-07
-2.43572e-08
-1.11977e-07
-2.38269e-08
-9.95164e-08
-2.315e-08
-8.74926e-08
-2.23271e-08
-7.59821e-08
-2.13596e-08
-6.50591e-08
-2.02506e-08
-5.47954e-08
-1.90047e-08
-4.52594e-08
-1.76278e-08
-3.65147e-08
-1.61281e-08
-2.86192e-08
-1.45154e-08
-2.16236e-08
-1.28028e-08
-1.55692e-08
-1.10063e-08
-1.04855e-08
-9.14728e-09
-6.38665e-09
-7.2535e-09
-3.26647e-09
-5.36278e-09
-1.092e-09
-3.5274e-09
2.05601e-10
-1.82112e-09
7.42879e-10
-3.4905e-10
6.98002e-10
7.40128e-10
3.26339e-10
1.23887e-09
8.48636e-10
1.39381e-10
-5.16168e-10
3.16732e-10
-8.60081e-10
3.73669e-10
-7.02664e-10
1.97989e-10
-1.90841e-10
-2.90994e-10
5.65101e-10
-1.14827e-09
1.47911e-09
-2.40773e-09
2.48515e-09
-4.08644e-09
3.53366e-09
-6.18822e-09
4.58804e-09
-8.70675e-09
5.62166e-09
-1.16282e-08
6.61558e-09
-1.49331e-08
7.5567e-09
-1.85985e-08
8.43645e-09
-2.25987e-08
9.24967e-09
-2.69069e-08
9.99381e-09
-3.14956e-08
1.06683e-08
-3.63373e-08
1.12742e-08
-4.14055e-08
1.18134e-08
-4.66742e-08
1.22889e-08
-5.21188e-08
1.27042e-08
-5.77163e-08
1.3063e-08
-6.34451e-08
1.33695e-08
-6.9285e-08
1.36279e-08
-7.52178e-08
1.38422e-08
-8.12268e-08
1.40167e-08
-8.72968e-08
1.41554e-08
-9.34142e-08
1.42621e-08
-9.9567e-08
1.43404e-08
-1.05745e-07
1.43939e-08
-1.11937e-07
1.44258e-08
-1.18137e-07
1.4439e-08
-1.24338e-07
1.44363e-08
-1.30533e-07
1.44201e-08
-1.36717e-07
1.43929e-08
-1.42886e-07
1.43567e-08
-1.49037e-07
1.43133e-08
-1.55168e-07
1.42645e-08
-1.61277e-07
1.42118e-08
-1.67361e-07
1.41565e-08
-1.73421e-07
1.40998e-08
-1.79457e-07
1.40428e-08
-1.85467e-07
1.39865e-08
-1.91453e-07
1.39317e-08
-1.97416e-07
1.38792e-08
-2.03356e-07
1.38295e-08
-2.09275e-07
1.37834e-08
-2.15174e-07
1.37413e-08
-2.21055e-07
1.37036e-08
-2.26921e-07
1.36708e-08
-2.32773e-07
1.36432e-08
-2.38613e-07
1.3621e-08
-2.44444e-07
1.36047e-08
-2.50268e-07
1.35942e-08
-2.56088e-07
1.35898e-08
-2.61906e-07
1.35917e-08
-2.67725e-07
1.35999e-08
-2.73547e-07
1.36144e-08
-2.79375e-07
1.36353e-08
-2.85212e-07
1.36625e-08
-2.9106e-07
1.36958e-08
-2.96921e-07
1.37352e-08
-3.02798e-07
1.37803e-08
-3.08693e-07
1.3831e-08
-3.14608e-07
1.38869e-08
-3.20545e-07
1.39475e-08
-3.26506e-07
1.40125e-08
-3.32491e-07
1.40812e-08
-3.38503e-07
1.4153e-08
-3.44542e-07
1.42272e-08
-3.50609e-07
1.4303e-08
-3.56703e-07
1.43796e-08
-3.62825e-07
1.44558e-08
-3.68974e-07
1.45306e-08
-3.75147e-07
1.46028e-08
-3.81344e-07
1.4671e-08
-3.87562e-07
1.47339e-08
-3.93798e-07
1.47899e-08
-4.00048e-07
1.48373e-08
-4.06307e-07
1.48743e-08
-4.1257e-07
1.48991e-08
-4.18831e-07
1.49096e-08
-4.25082e-07
1.49037e-08
-4.31315e-07
1.4879e-08
-4.37522e-07
1.48333e-08
-4.43692e-07
1.4764e-08
-4.49814e-07
1.46686e-08
-4.55876e-07
1.45443e-08
-4.61863e-07
1.43883e-08
-4.67762e-07
1.41977e-08
-4.73557e-07
1.39696e-08
-4.79229e-07
1.37009e-08
-4.84762e-07
1.33887e-08
-4.90134e-07
1.30297e-08
-4.95326e-07
1.2621e-08
-5.00315e-07
1.21594e-08
-5.05077e-07
1.16418e-08
-5.09589e-07
1.10654e-08
-5.13824e-07
1.04272e-08
-5.17755e-07
9.72453e-09
-5.21355e-07
8.95482e-09
-5.24595e-07
8.11574e-09
-5.27445e-07
7.20519e-09
-5.29876e-07
6.22138e-09
-5.31857e-07
5.16289e-09
-5.33356e-07
4.02867e-09
-5.34342e-07
2.81813e-09
-5.34785e-07
1.5312e-09
-5.34653e-07
1.68347e-10
-5.33917e-07
-1.26936e-09
-5.32546e-07
-2.78017e-09
-5.30512e-07
-4.36164e-09
-5.27788e-07
-6.01056e-09
-5.24349e-07
-7.72292e-09
-5.20172e-07
-9.49389e-09
-5.15236e-07
-1.13177e-08
-5.09522e-07
-1.31879e-08
-5.03016e-07
-1.50967e-08
-4.95707e-07
-1.70358e-08
-4.87587e-07
-1.89958e-08
-4.78653e-07
-2.09664e-08
-4.68906e-07
-2.29364e-08
-4.58353e-07
-2.48937e-08
-4.47005e-07
-2.68257e-08
-4.34878e-07
-2.87188e-08
-4.21996e-07
-3.05588e-08
-4.08388e-07
-3.23311e-08
-3.94088e-07
-3.40207e-08
-3.79137e-07
-3.56121e-08
-3.63581e-07
-3.709e-08
-3.47476e-07
-3.8439e-08
-3.3088e-07
-3.96438e-08
-3.13858e-07
-4.06895e-08
-2.96481e-07
-4.15621e-08
-2.78827e-07
-4.22478e-08
-2.60977e-07
-4.27342e-08
-2.43017e-07
-4.30098e-08
-2.25036e-07
-4.30645e-08
-2.0713e-07
-4.28897e-08
-1.89394e-07
-4.24782e-08
-1.71926e-07
-4.18248e-08
-1.54827e-07
-4.09261e-08
-1.38196e-07
-3.97809e-08
-1.22133e-07
-3.839e-08
-1.06736e-07
-3.67566e-08
-9.21007e-08
-3.48861e-08
-7.83186e-08
-3.27868e-08
-6.54766e-08
-3.04698e-08
-5.36554e-08
-2.79493e-08
-4.29272e-08
-2.52436e-08
-3.33545e-08
-2.23755e-08
-2.4987e-08
-1.93738e-08
-1.78589e-08
-1.62754e-08
-1.19846e-08
-1.31278e-08
-7.35393e-09
-9.99347e-09
-3.92534e-09
-6.95599e-09
-1.61808e-09
-4.12838e-09
-3.02253e-10
-1.66488e-09
2.12366e-10
2.2551e-10
1.89677e-10
1.26156e-09
1.03831e-09
8.00062e-11
-5.96171e-10
1.05926e-10
-8.86002e-10
-7.36245e-11
-5.23111e-10
-5.68461e-10
3.03998e-10
-1.45827e-09
1.45491e-09
-2.79788e-09
2.81872e-09
-4.62144e-09
4.30871e-09
-6.94615e-09
5.85837e-09
-9.77549e-09
7.41738e-09
-1.31021e-08
8.94828e-09
-1.69103e-08
1.04238e-08
-2.11782e-08
1.18246e-08
-2.58793e-08
1.31376e-08
-3.09843e-08
1.43547e-08
-3.64619e-08
1.54715e-08
-4.22803e-08
1.64866e-08
-4.84071e-08
1.7401e-08
-5.48107e-08
1.82171e-08
-6.14606e-08
1.89388e-08
-6.83273e-08
1.95709e-08
-7.5383e-08
2.01188e-08
-8.26017e-08
2.05882e-08
-8.99589e-08
2.09851e-08
-9.74324e-08
2.13157e-08
-1.05002e-07
2.1586e-08
-1.12648e-07
2.18018e-08
-1.20355e-07
2.19689e-08
-1.28107e-07
2.20927e-08
-1.35892e-07
2.21782e-08
-1.43696e-07
2.22303e-08
-1.51511e-07
2.22535e-08
-1.59326e-07
2.2252e-08
-1.67136e-07
2.22294e-08
-1.74932e-07
2.21893e-08
-1.8271e-07
2.21349e-08
-1.90466e-07
2.2069e-08
-1.98196e-07
2.19943e-08
-2.05897e-07
2.19129e-08
-2.13568e-07
2.18272e-08
-2.21207e-07
2.17388e-08
-2.28813e-07
2.16495e-08
-2.36388e-07
2.15608e-08
-2.4393e-07
2.14739e-08
-2.51441e-07
2.139e-08
-2.58921e-07
2.13102e-08
-2.66373e-07
2.12354e-08
-2.73798e-07
2.11664e-08
-2.81199e-07
2.11039e-08
-2.88576e-07
2.10485e-08
-2.95934e-07
2.10008e-08
-3.03274e-07
2.09611e-08
-3.10599e-07
2.093e-08
-3.17913e-07
2.09077e-08
-3.25218e-07
2.08945e-08
-3.32516e-07
2.08905e-08
-3.39812e-07
2.0896e-08
-3.47109e-07
2.09109e-08
-3.54409e-07
2.09352e-08
-3.61715e-07
2.09688e-08
-3.69031e-07
2.10116e-08
-3.76359e-07
2.10633e-08
-3.83702e-07
2.11236e-08
-3.91063e-07
2.1192e-08
-3.98445e-07
2.12681e-08
-4.05848e-07
2.13511e-08
-4.13276e-07
2.14403e-08
-4.2073e-07
2.15348e-08
-4.2821e-07
2.16338e-08
-4.35719e-07
2.1736e-08
-4.43256e-07
2.18402e-08
-4.50822e-07
2.1945e-08
-4.58415e-07
2.20489e-08
-4.66034e-07
2.21502e-08
-4.73679e-07
2.2247e-08
-4.81345e-07
2.23373e-08
-4.8903e-07
2.24189e-08
-4.96729e-07
2.24894e-08
-5.04439e-07
2.25464e-08
-5.12151e-07
2.2587e-08
-5.19861e-07
2.26085e-08
-5.27559e-07
2.26076e-08
-5.35236e-07
2.25813e-08
-5.42883e-07
2.25259e-08
-5.50488e-07
2.2438e-08
-5.58038e-07
2.23138e-08
-5.65519e-07
2.21494e-08
-5.72915e-07
2.19406e-08
-5.8021e-07
2.16832e-08
-5.87385e-07
2.13731e-08
-5.94421e-07
2.10056e-08
-6.01297e-07
2.05764e-08
-6.07989e-07
2.00808e-08
-6.14473e-07
1.95143e-08
-6.20725e-07
1.88722e-08
-6.26715e-07
1.81501e-08
-6.32417e-07
1.73434e-08
-6.37799e-07
1.64478e-08
-6.42831e-07
1.5459e-08
-6.4748e-07
1.43732e-08
-6.51712e-07
1.31866e-08
-6.55492e-07
1.18959e-08
-6.58785e-07
1.04981e-08
-6.61554e-07
8.99058e-09
-6.63763e-07
7.37151e-09
-6.65373e-07
5.63947e-09
-6.66349e-07
3.79379e-09
-6.66652e-07
1.83454e-09
-6.66247e-07
-2.37388e-10
-6.65096e-07
-2.42016e-09
-6.63165e-07
-4.71099e-09
-6.60421e-07
-7.106e-09
-6.56831e-07
-9.60023e-09
-6.52366e-07
-1.21875e-08
-6.47e-07
-1.48604e-08
-6.40707e-07
-1.76102e-08
-6.33468e-07
-2.0427e-08
-6.25266e-07
-2.32993e-08
-6.16087e-07
-2.62144e-08
-6.05925e-07
-2.91583e-08
-5.94775e-07
-3.21155e-08
-5.82642e-07
-3.50695e-08
-5.69534e-07
-3.80022e-08
-5.55465e-07
-4.08946e-08
-5.40457e-07
-4.37267e-08
-5.24538e-07
-4.64776e-08
-5.07744e-07
-4.91255e-08
-4.90116e-07
-5.16481e-08
-4.71706e-07
-5.40228e-08
-4.52569e-07
-5.62268e-08
-4.32771e-07
-5.82372e-08
-4.12383e-07
-6.00317e-08
-3.91484e-07
-6.15884e-08
-3.7016e-07
-6.28864e-08
-3.48502e-07
-6.39056e-08
-3.26608e-07
-6.46277e-08
-3.04583e-07
-6.50357e-08
-2.82532e-07
-6.51149e-08
-2.60569e-07
-6.48525e-08
-2.38809e-07
-6.42383e-08
-2.17369e-07
-6.32647e-08
-1.96368e-07
-6.19269e-08
-1.75926e-07
-6.02233e-08
-1.5616e-07
-5.81556e-08
-1.37188e-07
-5.57288e-08
-1.19122e-07
-5.29518e-08
-1.02072e-07
-4.98375e-08
-8.61383e-08
-4.64033e-08
-7.14161e-08
-4.26714e-08
-5.79896e-08
-3.86701e-08
-4.59305e-08
-3.44346e-08
-3.52954e-08
-3.00088e-08
-2.61229e-08
-2.5448e-08
-1.84287e-08
-2.08219e-08
-1.22019e-08
-1.62204e-08
-7.39827e-09
-1.17596e-08
-3.93476e-09
-7.59189e-09
-1.68138e-09
-3.91826e-09
-4.53669e-10
-1.0022e-09
-3.43453e-12
8.11333e-10
1.03488e-09
3.49891e-12
-5.99669e-10
-1.64572e-10
-7.17932e-10
-6.3831e-10
-4.93761e-11
-1.51785e-09
1.18354e-09
-2.87657e-09
2.81362e-09
-4.76504e-09
4.70719e-09
-7.21452e-09
6.75818e-09
-1.024e-08
8.88382e-09
-1.38429e-08
1.10204e-08
-1.80141e-08
1.31195e-08
-2.27356e-08
1.51452e-08
-2.79828e-08
1.70718e-08
-3.37264e-08
1.88812e-08
-3.99339e-08
2.05621e-08
-4.65702e-08
2.21079e-08
-5.35997e-08
2.35161e-08
-6.0986e-08
2.47874e-08
-6.86936e-08
2.59247e-08
-7.66876e-08
2.69328e-08
-8.49345e-08
2.78178e-08
-9.34025e-08
2.85868e-08
-1.02062e-07
2.92473e-08
-1.10884e-07
2.98074e-08
-1.19843e-07
3.02752e-08
-1.28916e-07
3.06588e-08
-1.38081e-07
3.09663e-08
-1.47317e-07
3.12053e-08
-1.56608e-07
3.13833e-08
-1.65937e-07
3.15073e-08
-1.75291e-07
3.1584e-08
-1.84656e-07
3.16194e-08
-1.94024e-07
3.16194e-08
-2.03384e-07
3.15891e-08
-2.12728e-07
3.15336e-08
-2.2205e-07
3.14572e-08
-2.31345e-07
3.1364e-08
-2.40609e-07
3.12576e-08
-2.49837e-07
3.11412e-08
-2.59028e-07
3.10179e-08
-2.68179e-07
3.08903e-08
-2.7729e-07
3.07608e-08
-2.86361e-07
3.06314e-08
-2.95391e-07
3.05041e-08
-3.04382e-07
3.03806e-08
-3.13334e-07
3.02623e-08
-3.22249e-07
3.01505e-08
-3.31129e-07
3.00465e-08
-3.39976e-07
2.99512e-08
-3.48793e-07
2.98656e-08
-3.57583e-07
2.97903e-08
-3.66348e-07
2.97261e-08
-3.75091e-07
2.96736e-08
-3.83817e-07
2.96332e-08
-3.92528e-07
2.96052e-08
-4.01227e-07
2.959e-08
-4.09919e-07
2.95876e-08
-4.18606e-07
2.95983e-08
-4.27293e-07
2.96219e-08
-4.35982e-07
2.96582e-08
-4.44678e-07
2.97072e-08
-4.53383e-07
2.97683e-08
-4.621e-07
2.98411e-08
-4.70833e-07
2.99249e-08
-4.79584e-07
3.0019e-08
-4.88355e-07
3.01225e-08
-4.97149e-07
3.02343e-08
-5.05968e-07
3.03531e-08
-5.14811e-07
3.04776e-08
-5.23682e-07
3.06061e-08
-5.32578e-07
3.07369e-08
-5.41501e-07
3.0868e-08
-5.5045e-07
3.09973e-08
-5.59422e-07
3.11222e-08
-5.68415e-07
3.12402e-08
-5.77426e-07
3.13484e-08
-5.86451e-07
3.14437e-08
-5.95484e-07
3.15229e-08
-6.0452e-07
3.15823e-08
-6.13551e-07
3.16181e-08
-6.22569e-07
3.16263e-08
-6.31564e-07
3.16025e-08
-6.40525e-07
3.15423e-08
-6.4944e-07
3.14407e-08
-6.58295e-07
3.12929e-08
-6.67075e-07
3.10936e-08
-6.75763e-07
3.08373e-08
-6.8434e-07
3.05184e-08
-6.92788e-07
3.0131e-08
-7.01084e-07
2.96692e-08
-7.09205e-07
2.91269e-08
-7.17127e-07
2.84979e-08
-7.24822e-07
2.77759e-08
-7.32262e-07
2.69546e-08
-7.39418e-07
2.60277e-08
-7.46257e-07
2.49891e-08
-7.52746e-07
2.38326e-08
-7.58851e-07
2.25524e-08
-7.64534e-07
2.11427e-08
-7.69759e-07
1.95984e-08
-7.74487e-07
1.79143e-08
-7.78677e-07
1.60861e-08
-7.82289e-07
1.41098e-08
-7.85281e-07
1.19822e-08
-7.8761e-07
9.70086e-09
-7.89235e-07
7.26403e-09
-7.90112e-07
4.67103e-09
-7.90199e-07
1.92222e-09
-7.89456e-07
-9.80897e-10
-7.87841e-07
-4.03557e-09
-7.85314e-07
-7.23769e-09
-7.81838e-07
-1.05817e-08
-7.77378e-07
-1.40605e-08
-7.719e-07
-1.76653e-08
-7.65375e-07
-2.13858e-08
-7.57775e-07
-2.52098e-08
-7.49079e-07
-2.91234e-08
-7.39267e-07
-3.31107e-08
-7.28328e-07
-3.71541e-08
-7.16252e-07
-4.12342e-08
-7.03037e-07
-4.53298e-08
-6.88689e-07
-4.94179e-08
-6.73217e-07
-5.34739e-08
-6.5664e-07
-5.74717e-08
-6.38983e-07
-6.13839e-08
-6.20279e-07
-6.51817e-08
-6.00569e-07
-6.88355e-08
-5.79902e-07
-7.23148e-08
-5.58336e-07
-7.55886e-08
-5.35937e-07
-7.86259e-08
-5.12779e-07
-8.13956e-08
-4.88943e-07
-8.38672e-08
-4.64521e-07
-8.60108e-08
-4.3961e-07
-8.77978e-08
-4.14314e-07
-8.92012e-08
-3.88746e-07
-9.01958e-08
-3.63023e-07
-9.07587e-08
-3.37268e-07
-9.08697e-08
-3.11609e-07
-9.05116e-08
-2.86177e-07
-8.96705e-08
-2.61105e-07
-8.83363e-08
-2.3653e-07
-8.65027e-08
-2.12585e-07
-8.41678e-08
-1.89407e-07
-8.13342e-08
-1.67126e-07
-7.80096e-08
-1.45871e-07
-7.42067e-08
-1.25764e-07
-6.99439e-08
-1.06922e-07
-6.5246e-08
-8.94484e-08
-6.01447e-08
-7.34389e-08
-5.46797e-08
-5.89733e-08
-4.89002e-08
-4.61151e-08
-4.28671e-08
-3.49075e-08
-3.66556e-08
-2.537e-08
-3.03594e-08
-1.74943e-08
-2.40961e-08
-1.12397e-08
-1.80142e-08
-6.52825e-09
-1.23033e-08
-3.24029e-09
-7.20621e-09
-1.20975e-09
-3.03274e-09
-2.20291e-10
-1.78121e-10
8.14595e-10
-8.27554e-11
-5.16915e-10
-4.72468e-10
-3.28214e-10
-1.28071e-09
7.58862e-10
-2.59298e-09
2.4958e-09
-4.47224e-09
4.69289e-09
-6.96159e-09
7.19654e-09
-1.00867e-08
9.88327e-09
-1.38582e-08
1.26553e-08
-1.82741e-08
1.54363e-08
-2.33222e-08
1.81675e-08
-2.89815e-08
2.08045e-08
-3.52247e-08
2.3315e-08
-4.20196e-08
2.56761e-08
-4.93302e-08
2.78727e-08
-5.71187e-08
2.98963e-08
-6.53457e-08
3.17431e-08
-7.39717e-08
3.34133e-08
-8.29573e-08
3.49103e-08
-9.22643e-08
3.62398e-08
-1.01856e-07
3.74091e-08
-1.11696e-07
3.84271e-08
-1.21752e-07
3.93033e-08
-1.31992e-07
4.00478e-08
-1.42388e-07
4.0671e-08
-1.52912e-07
4.11832e-08
-1.63541e-07
4.15947e-08
-1.74251e-07
4.19155e-08
-1.85023e-07
4.21551e-08
-1.95838e-07
4.23227e-08
-2.06681e-07
4.24269e-08
-2.17537e-07
4.24758e-08
-2.28395e-07
4.24769e-08
-2.39243e-07
4.24372e-08
-2.50072e-07
4.2363e-08
-2.60875e-07
4.22602e-08
-2.71646e-07
4.21342e-08
-2.82378e-07
4.19898e-08
-2.93068e-07
4.18314e-08
-3.03713e-07
4.1663e-08
-3.14311e-07
4.1488e-08
-3.2486e-07
4.13097e-08
-3.35359e-07
4.1131e-08
-3.45809e-07
4.09543e-08
-3.56211e-07
4.0782e-08
-3.66565e-07
4.06161e-08
-3.76872e-07
4.04583e-08
-3.87136e-07
4.03102e-08
-3.97358e-07
4.01733e-08
-4.07541e-07
4.00487e-08
-4.17689e-07
3.99376e-08
-4.27803e-07
3.98407e-08
-4.37888e-07
3.97589e-08
-4.47948e-07
3.96928e-08
-4.57986e-07
3.9643e-08
-4.68006e-07
3.96096e-08
-4.78011e-07
3.95931e-08
-4.88006e-07
3.95934e-08
-4.97995e-07
3.96105e-08
-5.07981e-07
3.96442e-08
-5.17968e-07
3.96942e-08
-5.27959e-07
3.97599e-08
-5.37959e-07
3.98407e-08
-5.4797e-07
3.99358e-08
-5.57995e-07
4.00439e-08
-5.68036e-07
4.0164e-08
-5.78097e-07
4.02946e-08
-5.88178e-07
4.0434e-08
-5.9828e-07
4.05802e-08
-6.08405e-07
4.07312e-08
-6.18553e-07
4.08846e-08
-6.28723e-07
4.10377e-08
-6.38913e-07
4.11875e-08
-6.49122e-07
4.13308e-08
-6.59346e-07
4.14642e-08
-6.69581e-07
4.15839e-08
-6.79823e-07
4.16856e-08
-6.90065e-07
4.17651e-08
-7.003e-07
4.18174e-08
-7.1052e-07
4.18377e-08
-7.20714e-07
4.18205e-08
-7.30872e-07
4.17601e-08
-7.4098e-07
4.16506e-08
-7.51025e-07
4.14856e-08
-7.6099e-07
4.12584e-08
-7.70859e-07
4.09623e-08
-7.80612e-07
4.05901e-08
-7.90228e-07
4.01343e-08
-7.99684e-07
3.95875e-08
-8.08957e-07
3.89416e-08
-8.18019e-07
3.81889e-08
-8.26842e-07
3.73212e-08
-8.35397e-07
3.63304e-08
-8.4365e-07
3.52083e-08
-8.51569e-07
3.39468e-08
-8.59118e-07
3.2538e-08
-8.6626e-07
3.09739e-08
-8.72954e-07
2.92471e-08
-8.79162e-07
2.73503e-08
-8.8484e-07
2.52767e-08
-8.89946e-07
2.30201e-08
-8.94435e-07
2.05748e-08
-8.98261e-07
1.7936e-08
-9.01379e-07
1.50998e-08
-9.03741e-07
1.2063e-08
-9.05301e-07
8.8239e-09
-9.06011e-07
5.38178e-09
-9.05826e-07
1.73741e-09
-9.047e-07
-2.10697e-09
-9.02589e-07
-6.14748e-09
-8.99448e-07
-1.03785e-08
-8.95237e-07
-1.47924e-08
-8.89918e-07
-1.93798e-08
-8.83454e-07
-2.4129e-08
-8.75814e-07
-2.90262e-08
-8.66968e-07
-3.40554e-08
-8.56893e-07
-3.91983e-08
-8.4557e-07
-4.44342e-08
-8.32984e-07
-4.97399e-08
-8.19128e-07
-5.50902e-08
-8.04e-07
-6.04574e-08
-7.87606e-07
-6.58117e-08
-7.69959e-07
-7.1121e-08
-7.5108e-07
-7.63515e-08
-7.30996e-07
-8.14676e-08
-7.09745e-07
-8.64321e-08
-6.87374e-07
-9.12067e-08
-6.63937e-07
-9.57518e-08
-6.39498e-07
-1.00028e-07
-6.1413e-07
-1.03994e-07
-5.87916e-07
-1.0761e-07
-5.60945e-07
-1.10838e-07
-5.33319e-07
-1.13637e-07
-5.05144e-07
-1.15972e-07
-4.76538e-07
-1.17808e-07
-4.47623e-07
-1.19111e-07
-4.18529e-07
-1.19853e-07
-3.89392e-07
-1.20007e-07
-3.60353e-07
-1.19551e-07
-3.31556e-07
-1.18468e-07
-3.03149e-07
-1.16743e-07
-2.7528e-07
-1.14371e-07
-2.48101e-07
-1.11347e-07
-2.21758e-07
-1.07677e-07
-1.96396e-07
-1.03371e-07
-1.72158e-07
-9.84448e-08
-1.49178e-07
-9.29243e-08
-1.27582e-07
-8.68422e-08
-1.07486e-07
-8.02404e-08
-8.89944e-08
-7.31713e-08
-7.21952e-08
-6.56994e-08
-5.7159e-08
-5.79033e-08
-4.39354e-08
-4.98792e-08
-3.25498e-08
-4.17449e-08
-2.30006e-08
-3.36453e-08
-1.52551e-08
-2.57597e-08
-9.24718e-09
-1.83112e-08
-4.87477e-09
-1.15786e-08
-1.99859e-09
-5.90892e-09
-4.42995e-10
-1.73372e-09
3.716e-10
-1.74197e-10
-3.42718e-10
-8.02862e-10
3.00453e-10
-1.97289e-09
1.92888e-09
-3.75205e-09
4.27496e-09
-6.19011e-09
7.13095e-09
-9.32007e-09
1.03265e-08
-1.31598e-08
1.3723e-08
-1.77139e-08
1.72094e-08
-2.29755e-08
2.06979e-08
-2.89279e-08
2.41199e-08
-3.55468e-08
2.74234e-08
-4.28014e-08
3.05696e-08
-5.06563e-08
3.35309e-08
-5.90725e-08
3.6289e-08
-6.80089e-08
3.88328e-08
-7.74232e-08
4.11574e-08
-8.72726e-08
4.32627e-08
-9.75147e-08
4.51524e-08
-1.08108e-07
4.6833e-08
-1.19012e-07
4.83135e-08
-1.3019e-07
4.96043e-08
-1.41603e-07
5.07169e-08
-1.53219e-07
5.16638e-08
-1.65006e-07
5.24575e-08
-1.76933e-07
5.31108e-08
-1.88975e-07
5.36364e-08
-2.01106e-07
5.40467e-08
-2.13305e-07
5.43536e-08
-2.2555e-07
5.45684e-08
-2.37825e-07
5.47019e-08
-2.50114e-07
5.47643e-08
-2.62402e-07
5.4765e-08
-2.74678e-07
5.47129e-08
-2.86931e-07
5.46159e-08
-2.99152e-07
5.44815e-08
-3.11334e-07
5.43165e-08
-3.23472e-07
5.41271e-08
-3.35559e-07
5.39189e-08
-3.47593e-07
5.3697e-08
-3.59571e-07
5.34658e-08
-3.71491e-07
5.32296e-08
-3.83352e-07
5.29919e-08
-3.95154e-07
5.27561e-08
-4.06897e-07
5.25252e-08
-4.18582e-07
5.23016e-08
-4.30212e-07
5.20879e-08
-4.41788e-07
5.18859e-08
-4.53312e-07
5.16975e-08
-4.64788e-07
5.15244e-08
-4.76218e-07
5.13679e-08
-4.87606e-07
5.12291e-08
-4.98956e-07