/*--------------------------------*- C++ -*----------------------------------*\
  =========                 |
  \\      /  F ield         | OpenFOAM: The Open Source CFD Toolbox
   \\    /   O peration     | Website:  https://openfoam.org
    \\  /    A nd           | Version:  7
     \\/     M anipulation  |
\*---------------------------------------------------------------------------*/
FoamFile
{
    version     2.0;
    format      ascii;
    class       surfaceScalarField;
    location    "0.1125";
    object      phi;
}
// * * * * * * * * * * * * * * * * * * * * * * * * * * * * * * * * * * * * * //

dimensions      [0 3 -1 0 0 0 0];

internalField   nonuniform List<scalar> 
101920
(
1.13056e-13
-1.26984e-13
-5.51252e-12
5.62498e-12
-6.74036e-12
1.22734e-12
-7.57875e-12
8.39078e-13
-7.50259e-12
-7.56367e-14
-6.93415e-12
-5.67142e-13
-6.18545e-12
-7.46956e-13
-5.46271e-12
-7.21784e-13
-4.88044e-12
-5.82935e-13
-4.49534e-12
-3.86018e-13
-4.3352e-12
-1.59723e-13
-4.40776e-12
7.22414e-14
-4.71859e-12
3.12569e-13
-5.26962e-12
5.5133e-13
-6.04553e-12
7.76421e-13
-7.03728e-12
9.90939e-13
-8.22737e-12
1.19112e-12
-9.60981e-12
1.38271e-12
-1.11796e-11
1.56974e-12
-1.29228e-11
1.74407e-12
-1.48234e-11
1.90038e-12
-1.68724e-11
2.05025e-12
-1.90585e-11
2.18766e-12
-2.13694e-11
2.31113e-12
-2.37957e-11
2.42804e-12
-2.63284e-11
2.53262e-12
-2.89509e-11
2.62329e-12
-3.1654e-11
2.70491e-12
-3.44321e-11
2.77826e-12
-3.7273e-11
2.84167e-12
-4.01652e-11
2.89212e-12
-4.31e-11
2.93338e-12
-4.60717e-11
2.97161e-12
-4.90749e-11
3.00255e-12
-5.20991e-11
3.02255e-12
-5.51357e-11
3.03579e-12
-5.81815e-11
3.04363e-12
-6.12273e-11
3.04359e-12
-6.42623e-11
3.03483e-12
-6.72825e-11
3.01942e-12
-7.02848e-11
3.00103e-12
-7.32646e-11
2.97881e-12
-7.62152e-11
2.94821e-12
-7.91276e-11
2.91056e-12
-8.19983e-11
2.87142e-12
-8.48287e-11
2.83135e-12
-8.76144e-11
2.78636e-12
-9.03475e-11
2.73399e-12
-9.30221e-11
2.6752e-12
-9.5635e-11
2.6136e-12
-9.8185e-11
2.55158e-12
-1.00671e-10
2.4872e-12
-1.03091e-10
2.41911e-12
-1.05442e-10
2.34965e-12
-1.07722e-10
2.27968e-12
-1.0993e-10
2.20621e-12
-1.12057e-10
2.12713e-12
-1.141e-10
2.04325e-12
-1.16059e-10
1.95795e-12
-1.17936e-10
1.87472e-12
-1.1973e-10
1.79339e-12
-1.2144e-10
1.71009e-12
-1.23061e-10
1.62172e-12
-1.2459e-10
1.53009e-12
-1.26028e-10
1.43925e-12
-1.27376e-10
1.34982e-12
-1.28634e-10
1.2596e-12
-1.298e-10
1.1668e-12
-1.30869e-10
1.07101e-12
-1.31845e-10
9.73882e-13
-1.32725e-10
8.77987e-13
-1.33511e-10
7.83373e-13
-1.34199e-10
6.87588e-13
-1.3479e-10
5.89594e-13
-1.3528e-10
4.90977e-13
-1.35672e-10
3.93317e-13
-1.35968e-10
2.96433e-13
-1.36167e-10
1.9932e-13
-1.36267e-10
1.01415e-13
-1.36269e-10
2.62904e-15
-1.36172e-10
-9.68095e-14
-1.35976e-10
-1.95557e-13
-1.35683e-10
-2.92892e-13
-1.35292e-10
-3.89872e-13
-1.34804e-10
-4.87941e-13
-1.34217e-10
-5.8677e-13
-1.33533e-10
-6.85111e-13
-1.32753e-10
-7.82333e-13
-1.31877e-10
-8.78156e-13
-1.30905e-10
-9.72466e-13
-1.29837e-10
-1.06598e-12
-1.28675e-10
-1.15986e-12
-1.27419e-10
-1.25419e-12
-1.26071e-10
-1.34767e-12
-1.24632e-10
-1.43921e-12
-1.23104e-10
-1.52899e-12
-1.21487e-10
-1.6177e-12
-1.19782e-10
-1.70544e-12
-1.1799e-10
-1.79205e-12
-1.16113e-10
-1.8774e-12
-1.14152e-10
-1.96104e-12
-1.12109e-10
-2.04243e-12
-1.09986e-10
-2.12164e-12
-1.07786e-10
-2.19951e-12
-1.0551e-10
-2.2767e-12
-1.03158e-10
-2.35249e-12
-1.00734e-10
-2.42516e-12
-9.82418e-11
-2.49374e-12
-9.56843e-11
-2.55866e-12
-9.3064e-11
-2.62083e-12
-9.03831e-11
-2.68058e-12
-8.76443e-11
-2.73775e-12
-8.48513e-11
-2.79192e-12
-8.20087e-11
-2.84225e-12
-7.91207e-11
-2.88815e-12
-7.61916e-11
-2.92978e-12
-7.32254e-11
-2.96732e-12
-7.02253e-11
-3.00073e-12
-6.71949e-11
-3.03011e-12
-6.41387e-11
-3.05536e-12
-6.10621e-11
-3.07599e-12
-5.79717e-11
-3.09087e-12
-5.48739e-11
-3.0986e-12
-5.17748e-11
-3.09909e-12
-4.86805e-11
-3.09362e-12
-4.5597e-11
-3.08288e-12
-4.2531e-11
-3.06611e-12
-3.94898e-11
-3.0419e-12
-3.64817e-11
-3.00932e-12
-3.35148e-11
-2.96818e-12
-3.05972e-11
-2.91837e-12
-2.77368e-11
-2.85966e-12
-2.49428e-11
-2.79213e-12
-2.22247e-11
-2.71622e-12
-1.95919e-11
-2.63215e-12
-1.70539e-11
-2.53914e-12
-1.46201e-11
-2.43568e-12
-1.23001e-11
-2.32094e-12
-1.01043e-11
-2.19547e-12
-8.04292e-12
-2.06043e-12
-6.12459e-12
-1.91701e-12
-4.35763e-12
-1.76593e-12
-2.75049e-12
-1.60717e-12
-1.31138e-12
-1.44022e-12
-4.77805e-14
-1.26492e-12
1.03349e-12
-1.08184e-12
1.92601e-12
-8.92039e-13
2.62379e-12
-6.96965e-13
3.12247e-12
-4.98592e-13
3.42163e-12
-2.99652e-13
3.52504e-12
-1.03757e-13
3.44029e-12
8.46599e-14
3.17989e-12
2.60382e-13
2.76279e-12
4.16814e-13
2.21867e-12
5.43626e-13
1.59294e-12
6.2567e-13
9.51258e-13
6.42056e-13
3.90061e-13
5.61462e-13
4.38727e-14
3.46217e-13
4.38657e-14
6.47163e-12
-6.59865e-12
7.43377e-12
4.66543e-12
5.02847e-12
3.63212e-12
3.61694e-12
2.24976e-12
2.67299e-12
8.6836e-13
2.15409e-12
-5.0502e-14
1.86245e-12
-4.55869e-13
1.57812e-12
-4.36118e-13
1.11261e-12
-1.16082e-13
3.17283e-13
4.10586e-13
-8.95741e-13
1.05252e-12
-2.58749e-12
1.76345e-12
-4.78604e-12
2.50899e-12
-7.49814e-12
3.26502e-12
-1.07355e-11
4.01277e-12
-1.44839e-11
4.73934e-12
-1.87303e-11
5.43666e-12
-2.34579e-11
6.10891e-12
-2.8639e-11
6.75175e-12
-3.42541e-11
7.35721e-12
-4.02806e-11
7.92599e-12
-4.66892e-11
8.45754e-12
-5.34512e-11
8.94646e-12
-6.05389e-11
9.39967e-12
-6.79286e-11
9.81589e-12
-7.55886e-11
1.01912e-11
-8.34922e-11
1.05269e-11
-9.16176e-11
1.08276e-11
-9.99349e-11
1.10961e-11
-1.08418e-10
1.13257e-11
-1.17042e-10
1.15168e-11
-1.25785e-10
1.16781e-11
-1.34624e-10
1.18116e-11
-1.43536e-10
1.19151e-11
-1.52498e-10
1.19887e-11
-1.61495e-10
1.20345e-11
-1.70503e-10
1.20543e-11
-1.79504e-10
1.20463e-11
-1.88477e-10
1.20091e-11
-1.97407e-10
1.19502e-11
-2.06277e-10
1.18744e-11
-2.15072e-10
1.1777e-11
-2.23778e-10
1.16557e-11
-2.32381e-10
1.15147e-11
-2.40869e-10
1.13582e-11
-2.49228e-10
1.11879e-11
-2.57443e-10
1.10011e-11
-2.65504e-10
1.07945e-11
-2.73403e-10
1.0571e-11
-2.81129e-10
1.03372e-11
-2.88673e-10
1.00945e-11
-2.96026e-10
9.84026e-12
-3.0318e-10
9.57454e-12
-3.10127e-10
9.29945e-12
-3.16862e-10
9.01506e-12
-3.23376e-10
8.72039e-12
-3.29663e-10
8.41484e-12
-3.35716e-10
8.09862e-12
-3.41531e-10
7.77498e-12
-3.47102e-10
7.44775e-12
-3.52424e-10
7.11663e-12
-3.57494e-10
6.77871e-12
-3.62307e-10
6.43285e-12
-3.66858e-10
6.08083e-12
-3.71146e-10
5.72537e-12
-3.75166e-10
5.36774e-12
-3.78916e-10
5.00749e-12
-3.82392e-10
4.64315e-12
-3.85593e-10
4.2735e-12
-3.88516e-10
3.8997e-12
-3.91158e-10
3.52386e-12
-3.93517e-10
3.14557e-12
-3.95593e-10
2.76353e-12
-3.97383e-10
2.37883e-12
-3.98886e-10
1.99339e-12
-4.00101e-10
1.60783e-12
-4.01028e-10
1.22251e-12
-4.01666e-10
8.37493e-13
-4.02015e-10
4.51531e-13
-4.02075e-10
6.3729e-14
-4.01846e-10
-3.24855e-13
-4.01328e-10
-7.1257e-13
-4.00522e-10
-1.09905e-12
-3.99428e-10
-1.48471e-12
-3.98047e-10
-1.86961e-12
-3.96379e-10
-2.25344e-12
-3.94425e-10
-2.63633e-12
-3.92187e-10
-3.01831e-12
-3.89667e-10
-3.39835e-12
-3.86866e-10
-3.77508e-12
-3.83787e-10
-4.14819e-12
-3.80431e-10
-4.51807e-12
-3.768e-10
-4.88476e-12
-3.72898e-10
-5.24797e-12
-3.68727e-10
-5.60751e-12
-3.64292e-10
-5.96301e-12
-3.59594e-10
-6.31389e-12
-3.54638e-10
-6.6599e-12
-3.49429e-10
-7.00116e-12
-3.4397e-10
-7.33723e-12
-3.38266e-10
-7.66671e-12
-3.32321e-10
-7.98845e-12
-3.26141e-10
-8.30248e-12
-3.19733e-10
-8.60908e-12
-3.13102e-10
-8.90796e-12
-3.06255e-10
-9.19848e-12
-2.99199e-10
-9.47973e-12
-2.91942e-10
-9.75052e-12
-2.84491e-10
-1.00099e-11
-2.76855e-10
-1.02578e-11
-2.69042e-10
-1.04941e-11
-2.61063e-10
-1.07183e-11
-2.52927e-10
-1.09287e-11
-2.44645e-10
-1.11241e-11
-2.36228e-10
-1.1304e-11
-2.27687e-10
-1.14689e-11
-2.19036e-10
-1.16184e-11
-2.10285e-10
-1.1751e-11
-2.0145e-10
-1.18654e-11
-1.92544e-10
-1.19607e-11
-1.83582e-10
-1.20363e-11
-1.74581e-10
-1.20911e-11
-1.65557e-10
-1.21232e-11
-1.56528e-10
-1.21305e-11
-1.47512e-10
-1.21122e-11
-1.38528e-10
-1.20679e-11
-1.29598e-10
-1.19964e-11
-1.20741e-10
-1.18966e-11
-1.11979e-10
-1.17678e-11
-1.03337e-10
-1.16093e-11
-9.4837e-11
-1.14194e-11
-8.65035e-11
-1.11958e-11
-7.83615e-11
-1.09368e-11
-7.0437e-11
-1.0642e-11
-6.27558e-11
-1.03122e-11
-5.5344e-11
-9.94764e-12
-4.82285e-11
-9.54811e-12
-4.14359e-11
-9.11247e-12
-3.49924e-11
-8.64001e-12
-2.89244e-11
-8.13087e-12
-2.32573e-11
-7.58609e-12
-1.80157e-11
-7.00762e-12
-1.32236e-11
-6.39794e-12
-8.90354e-12
-5.75908e-12
-5.07551e-12
-5.09263e-12
-1.75672e-12
-4.40118e-12
1.03894e-12
-3.68874e-12
3.30201e-12
-2.96077e-12
5.02781e-12
-2.22481e-12
6.21837e-12
-1.49059e-12
6.88481e-12
-7.70278e-13
7.0493e-12
-7.97568e-14
6.74901e-12
5.60805e-13
6.03984e-12
1.12609e-12
5.00113e-12
1.58203e-12
3.74339e-12
1.88298e-12
2.41434e-12
1.9709e-12
1.20403e-12
1.77178e-12
3.36094e-13
1.21428e-12
3.79983e-13
2.45285e-12
-9.05201e-12
7.41767e-12
-3.00519e-13
8.97176e-12
2.07876e-12
9.42551e-12
1.79593e-12
9.30709e-12
9.84975e-13
8.87037e-12
3.86811e-13
8.14753e-12
2.65721e-13
7.0715e-12
6.39116e-13
5.52685e-12
1.42781e-12
3.41322e-12
2.52539e-12
6.35131e-13
3.83275e-12
-2.87258e-12
5.27025e-12
-7.1436e-12
6.78078e-12
-1.21973e-11
8.31753e-12
-1.80323e-11
9.84848e-12
-2.46421e-11
1.13501e-11
-3.20136e-11
1.28073e-11
-4.01126e-11
1.42095e-11
-4.8914e-11
1.55525e-11
-5.83797e-11
1.68247e-11
-6.84738e-11
1.80224e-11
-7.91582e-11
1.91418e-11
-9.03926e-11
2.01831e-11
-1.02137e-10
2.11443e-11
-1.14347e-10
2.20262e-11
-1.26979e-10
2.28262e-11
-1.39998e-10
2.35448e-11
-1.53358e-10
2.41882e-11
-1.67018e-10
2.47564e-11
-1.80941e-10
2.52468e-11
-1.95089e-10
2.56642e-11
-2.09424e-10
2.60125e-11
-2.23908e-10
2.62934e-11
-2.38504e-10
2.65099e-11
-2.53181e-10
2.6663e-11
-2.67905e-10
2.67561e-11
-2.82642e-10
2.6792e-11
-2.97365e-10
2.67686e-11
-3.12048e-10
2.66891e-11
-3.2666e-10
2.6561e-11
-3.41175e-10
2.63869e-11
-3.55566e-10
2.61659e-11
-3.69808e-10
2.58994e-11
-3.83882e-10
2.55909e-11
-3.97769e-10
2.52449e-11
-4.11445e-10
2.48646e-11
-4.2489e-10
2.44479e-11
-4.38088e-10
2.39933e-11
-4.51021e-10
2.35055e-11
-4.63673e-10
2.29898e-11
-4.76028e-10
2.24481e-11
-4.88073e-10
2.18824e-11
-4.99793e-10
2.12941e-11
-5.11178e-10
2.06836e-11
-5.22214e-10
2.00511e-11
-5.3289e-10
1.93965e-11
-5.43197e-10
1.87201e-11
-5.53125e-10
1.80241e-11
-5.62664e-10
1.73135e-11
-5.71806e-10
1.65907e-11
-5.80542e-10
1.58544e-11
-5.88866e-10
1.51032e-11
-5.9677e-10
1.43385e-11
-6.04248e-10
1.35616e-11
-6.11295e-10
1.27746e-11
-6.17906e-10
1.19792e-11
-6.24073e-10
1.11752e-11
-6.29793e-10
1.03619e-11
-6.35064e-10
9.54044e-12
-6.39879e-10
8.71284e-12
-6.44235e-10
7.87979e-12
-6.4813e-10
7.0404e-12
-6.51561e-10
6.19464e-12
-6.54524e-10
5.34397e-12
-6.57019e-10
4.48991e-12
-6.59045e-10
3.63371e-12
-6.60598e-10
2.77666e-12
-6.61678e-10
1.91897e-12
-6.62286e-10
1.05953e-12
-6.62421e-10
1.98314e-13
-6.62082e-10
-6.63065e-13
-6.6127e-10
-1.52359e-12
-6.59985e-10
-2.38329e-12
-6.58229e-10
-3.24158e-12
-6.56003e-10
-4.09735e-12
-6.53308e-10
-4.95008e-12
-6.50146e-10
-5.79957e-12
-6.46519e-10
-6.64523e-12
-6.42428e-10
-7.48625e-12
-6.37878e-10
-8.32216e-12
-6.32873e-10
-9.15246e-12
-6.27416e-10
-9.97597e-12
-6.2151e-10
-1.07915e-11
-6.1516e-10
-1.15987e-11
-6.08371e-10
-1.23973e-11
-6.01148e-10
-1.31863e-11
-5.93497e-10
-1.39647e-11
-5.85424e-10
-1.47321e-11
-5.76936e-10
-1.54884e-11
-5.68041e-10
-1.62324e-11
-5.58744e-10
-1.69622e-11
-5.49056e-10
-1.76764e-11
-5.38984e-10
-1.83746e-11
-5.28539e-10
-1.90558e-11
-5.1773e-10
-1.97185e-11
-5.06569e-10
-2.03613e-11
-4.95066e-10
-2.09832e-11
-4.83235e-10
-2.15827e-11
-4.71087e-10
-2.21579e-11
-4.58635e-10
-2.27078e-11
-4.45896e-10
-2.3232e-11
-4.32886e-10
-2.3729e-11
-4.19619e-10
-2.41961e-11
-4.06113e-10
-2.4631e-11
-3.92386e-10
-2.50319e-11
-3.78457e-10
-2.53981e-11
-3.64346e-10
-2.57285e-11
-3.50075e-10
-2.60211e-11
-3.35666e-10
-2.62736e-11
-3.21144e-10
-2.64838e-11
-3.06532e-10
-2.66488e-11
-2.91857e-10
-2.67661e-11
-2.77145e-10
-2.68337e-11
-2.62426e-10
-2.6849e-11
-2.47729e-10
-2.68094e-11
-2.33087e-10
-2.67119e-11
-2.18531e-10
-2.6554e-11
-2.04096e-10
-2.63332e-11
-1.89816e-10
-2.60479e-11
-1.75728e-10
-2.56963e-11
-1.61869e-10
-2.52763e-11
-1.48278e-10
-2.4785e-11
-1.34995e-10
-2.42198e-11
-1.2206e-10
-2.35787e-11
-1.09514e-10
-2.28605e-11
-9.73973e-11
-2.20649e-11
-8.57518e-11
-2.11923e-11
-7.46195e-11
-2.02429e-11
-6.40417e-11
-1.92163e-11
-5.40585e-11
-1.81132e-11
-4.47101e-11
-1.6935e-11
-3.6035e-11
-1.56841e-11
-2.80696e-11
-1.43646e-11
-2.08468e-11
-1.2982e-11
-1.43965e-11
-1.15423e-11
-8.74404e-12
-1.00529e-11
-3.90938e-12
-8.52346e-12
9.51314e-14
-6.96609e-12
3.26643e-12
-5.39663e-12
5.61171e-12
-3.83588e-12
7.15113e-12
-2.30972e-12
7.9213e-12
-8.50491e-13
7.98058e-12
5.00947e-13
7.41327e-12
1.69341e-12
6.33349e-12
2.66205e-12
4.89155e-12
3.3251e-12
3.2797e-12
3.5827e-12
1.7358e-12
3.31534e-12
5.40851e-13
2.40906e-12
9.20915e-13
2.16442e-12
-1.12156e-11
6.29201e-12
-4.42881e-12
9.03318e-12
-6.62657e-13
1.05673e-11
2.65498e-13
1.11331e-11
4.20213e-13
1.08852e-11
6.35313e-13
9.89604e-12
1.25734e-12
8.15249e-12
2.38265e-12
5.60193e-12
3.97659e-12
2.18012e-12
5.94708e-12
-2.17879e-12
8.19155e-12
-7.52587e-12
1.06187e-11
-1.38915e-11
1.31458e-11
-2.12898e-11
1.57159e-11
-2.97241e-11
1.82829e-11
-3.91797e-11
2.08046e-11
-4.96296e-11
2.32585e-11
-6.10451e-11
2.56232e-11
-7.33811e-11
2.78879e-11
-8.65956e-11
3.00394e-11
-1.00644e-10
3.20695e-11
-1.15472e-10
3.39704e-11
-1.31028e-10
3.57393e-11
-1.47261e-10
3.73755e-11
-1.64112e-10
3.88785e-11
-1.81532e-10
4.02446e-11
-1.99463e-10
4.14771e-11
-2.17852e-10
4.25785e-11
-2.36643e-10
4.35473e-11
-2.55783e-10
4.43883e-11
-2.75224e-10
4.51061e-11
-2.94915e-10
4.5704e-11
-3.14805e-10
4.61857e-11
-3.34848e-10
4.65539e-11
-3.54999e-10
4.68131e-11
-3.75211e-10
4.69688e-11
-3.95441e-10
4.70226e-11
-4.15649e-10
4.69769e-11
-4.35797e-10
4.6839e-11
-4.55849e-10
4.66149e-11
-4.75772e-10
4.63075e-11
-4.95526e-10
4.59195e-11
-5.15081e-10
4.54535e-11
-5.34405e-10
4.49143e-11
-5.53468e-10
4.4308e-11
-5.72241e-10
4.36379e-11
-5.90701e-10
4.29055e-11
-6.08823e-10
4.21148e-11
-6.26586e-10
4.12699e-11
-6.43968e-10
4.03727e-11
-6.60945e-10
3.94255e-11
-6.77495e-10
3.84326e-11
-6.93599e-10
3.73985e-11
-7.09244e-10
3.63267e-11
-7.24411e-10
3.52188e-11
-7.39086e-10
3.40736e-11
-7.53256e-10
3.28911e-11
-7.66908e-10
3.16754e-11
-7.80027e-10
3.04322e-11
-7.92601e-10
2.9164e-11
-8.04618e-10
2.78711e-11
-8.16069e-10
2.65538e-11
-8.26945e-10
2.52141e-11
-8.37238e-10
2.38539e-11
-8.46939e-10
2.24757e-11
-8.56039e-10
2.10813e-11
-8.64532e-10
1.96699e-11
-8.7241e-10
1.8242e-11
-8.7967e-10
1.68006e-11
-8.86304e-10
1.53481e-11
-8.9231e-10
1.38849e-11
-8.97682e-10
1.24114e-11
-9.02416e-10
1.09284e-11
-9.06508e-10
9.43709e-12
-9.09958e-10
7.93949e-12
-9.12763e-10
6.43793e-12
-9.14918e-10
4.93351e-12
-9.16424e-10
3.42589e-12
-9.1728e-10
1.91514e-12
-9.17485e-10
4.02938e-13
-9.17039e-10
-1.10864e-12
-9.15944e-10
-2.6188e-12
-9.14199e-10
-4.12744e-12
-9.11805e-10
-5.63379e-12
-9.08764e-10
-7.1368e-12
-9.05079e-10
-8.63542e-12
-9.00752e-10
-1.01278e-11
-8.95787e-10
-1.16119e-11
-8.90187e-10
-1.30869e-11
-8.83955e-10
-1.45531e-11
-8.77097e-10
-1.60098e-11
-8.69617e-10
-1.7455e-11
-8.61521e-10
-1.88867e-11
-8.52815e-10
-2.03036e-11
-8.43508e-10
-2.17049e-11
-8.33604e-10
-2.30893e-11
-8.23113e-10
-2.44555e-11
-8.12043e-10
-2.58027e-11
-8.00403e-10
-2.71291e-11
-7.88203e-10
-2.84326e-11
-7.75454e-10
-2.97108e-11
-7.62168e-10
-3.09624e-11
-7.48357e-10
-3.2186e-11
-7.34032e-10
-3.33797e-11
-7.19209e-10
-3.45414e-11
-7.03902e-10
-3.56685e-11
-6.88128e-10
-3.67589e-11
-6.71902e-10
-3.78097e-11
-6.55242e-10
-3.88183e-11
-6.38168e-10
-3.97827e-11
-6.20699e-10
-4.07012e-11
-6.02856e-10
-4.15713e-11
-5.84661e-10
-4.23896e-11
-5.66139e-10
-4.31524e-11
-5.47314e-10
-4.38568e-11
-5.28213e-10
-4.44995e-11
-5.08863e-10
-4.50779e-11
-4.89294e-10
-4.55891e-11
-4.69537e-10
-4.60299e-11
-4.49625e-10
-4.63965e-11
-4.29591e-10
-4.66838e-11
-4.09471e-10
-4.68872e-11
-3.89302e-10
-4.70027e-11
-3.69124e-10
-4.70267e-11
-3.48978e-10
-4.69552e-11
-3.28904e-10
-4.67842e-11
-3.08948e-10
-4.65093e-11
-2.89156e-10
-4.61264e-11
-2.69575e-10
-4.56312e-11
-2.50254e-10
-4.50196e-11
-2.31242e-10
-4.42882e-11
-2.12592e-10
-4.34339e-11
-1.94356e-10
-4.2454e-11
-1.76588e-10
-4.13458e-11
-1.59341e-10
-4.0107e-11
-1.4267e-10
-3.8736e-11
-1.26631e-10
-3.72322e-11
-1.11279e-10
-3.55959e-11
-9.66677e-11
-3.38277e-11
-8.28501e-11
-3.19297e-11
-6.9878e-11
-2.99055e-11
-5.78014e-11
-2.77603e-11
-4.66669e-11
-2.55002e-11
-3.65163e-11
-2.31336e-11
-2.73872e-11
-2.06717e-11
-1.93112e-11
-1.81287e-11
-1.23122e-11
-1.55224e-11
-6.40415e-12
-1.28745e-11
-1.58886e-12
-1.02122e-11
2.14564e-12
-7.5702e-12
4.82797e-12
-4.99168e-12
6.50659e-12
-2.52953e-12
7.25534e-12
-2.48716e-13
7.17778e-12
1.77073e-12
6.40982e-12
3.43014e-12
5.12584e-12
4.60908e-12
3.54464e-12
5.16378e-12
1.93462e-12
4.9249e-12
6.22092e-13
3.72117e-12
1.54305e-12
1.19776e-12
-1.2413e-11
4.65458e-12
-7.88562e-12
7.58253e-12
-3.5925e-12
9.43915e-12
-1.59007e-12
1.01786e-11
-3.2028e-13
9.82207e-12
9.91018e-13
8.39008e-12
2.69039e-12
5.87234e-12
4.90137e-12
2.23696e-12
7.61319e-12
-2.56091e-12
1.07434e-11
-8.56762e-12
1.41989e-11
-1.58167e-11
1.78679e-11
-2.43283e-11
2.16576e-11
-3.41112e-11
2.54996e-11
-4.51568e-11
2.93269e-11
-5.74457e-11
3.30949e-11
-7.09512e-11
3.67635e-11
-8.5632e-11
4.03047e-11
-1.01438e-10
4.36949e-11
-1.1832e-10
4.69207e-11
-1.36218e-10
4.99683e-11
-1.55073e-10
5.28261e-11
-1.74823e-10
5.54887e-11
-1.95399e-10
5.79533e-11
-2.16737e-10
6.02153e-11
-2.3877e-10
6.22773e-11
-2.61433e-10
6.41407e-11
-2.84659e-10
6.58037e-11
-3.08382e-10
6.72695e-11
-3.32537e-10
6.85436e-11
-3.57062e-10
6.96303e-11
-3.81894e-10
7.0535e-11
-4.0697e-10
7.12623e-11
-4.32235e-10
7.18182e-11
-4.57632e-10
7.22101e-11
-4.83105e-10
7.24419e-11
-5.08602e-10
7.25176e-11
-5.34071e-10
7.2445e-11
-5.59464e-10
7.22324e-11
-5.84734e-10
7.18855e-11
-6.09836e-10
7.14103e-11
-6.34728e-10
7.08121e-11
-6.59372e-10
7.00966e-11
-6.83729e-10
6.92712e-11
-7.0776e-10
6.83406e-11
-7.31429e-10
6.73073e-11
-7.54703e-10
6.61784e-11
-7.7755e-10
6.49622e-11
-7.99946e-10
6.36639e-11
-8.21861e-10
6.22863e-11
-8.43267e-10
6.08325e-11
-8.64141e-10
5.93071e-11
-8.84459e-10
5.77154e-11
-9.04196e-10
5.60631e-11
-9.23332e-10
5.4354e-11
-9.41847e-10
5.25889e-11
-9.59726e-10
5.077e-11
-9.76952e-10
4.89024e-11
-9.93508e-10
4.69902e-11
-1.00938e-09
4.5036e-11
-1.02455e-09
4.30424e-11
-1.03901e-09
4.10115e-11
-1.05274e-09
3.89461e-11
-1.06573e-09
3.68498e-11
-1.07799e-09
3.47253e-11
-1.08948e-09
3.25738e-11
-1.10021e-09
3.03963e-11
-1.11016e-09
2.81951e-11
-1.11933e-09
2.59735e-11
-1.12772e-09
2.37335e-11
-1.13531e-09
2.1476e-11
-1.1421e-09
1.92027e-11
-1.14808e-09
1.69152e-11
-1.15326e-09
1.46151e-11
-1.15763e-09
1.23056e-11
-1.16118e-09
9.98959e-12
-1.16391e-09
7.66776e-12
-1.16583e-09
5.34008e-12
-1.16692e-09
3.00808e-12
-1.16719e-09
6.74362e-13
-1.16664e-09
-1.65887e-12
-1.16527e-09
-3.99005e-12
-1.16308e-09
-6.31798e-12
-1.16007e-09
-8.64175e-12
-1.15625e-09
-1.09605e-11
-1.15161e-09
-1.32726e-11
-1.14616e-09
-1.55751e-11
-1.1399e-09
-1.78654e-11
-1.13285e-09
-2.01423e-11
-1.125e-09
-2.24049e-11
-1.11636e-09
-2.46517e-11
-1.10693e-09
-2.68806e-11
-1.09673e-09
-2.90893e-11
-1.08576e-09
-3.12752e-11
-1.07403e-09
-3.34362e-11
-1.06154e-09
-3.55708e-11
-1.04832e-09
-3.76779e-11
-1.03437e-09
-3.97553e-11
-1.0197e-09
-4.18001e-11
-1.00432e-09
-4.38089e-11
-9.88251e-10
-4.57792e-11
-9.71507e-10
-4.77084e-11
-9.541e-10
-4.95938e-11
-9.36047e-10
-5.14326e-11
-9.17366e-10
-5.32221e-11
-8.98076e-10
-5.49586e-11
-8.78197e-10
-5.66383e-11
-8.5775e-10
-5.82571e-11
-8.36756e-10
-5.98117e-11
-8.15241e-10
-6.12987e-11
-7.93229e-10
-6.27143e-11
-7.70746e-10
-6.40542e-11
-7.47821e-10
-6.53138e-11
-7.24484e-10
-6.64886e-11
-7.00766e-10
-6.75738e-11
-6.76701e-10
-6.85644e-11
-6.52323e-10
-6.94553e-11
-6.27671e-10
-7.02417e-11
-6.02782e-10
-7.09187e-11
-5.77698e-10
-7.14804e-11
-5.52461e-10
-7.19206e-11
-5.27116e-10
-7.22325e-11
-5.0171e-10
-7.24096e-11
-4.76291e-10
-7.2446e-11
-4.50911e-10
-7.23358e-11
-4.25622e-10
-7.20729e-11
-4.00479e-10
-7.16518e-11
-3.75538e-10
-7.10667e-11
-3.50859e-10
-7.0311e-11
-3.265e-10
-6.93786e-11
-3.02526e-10
-6.82639e-11
-2.78998e-10
-6.69624e-11
-2.55982e-10
-6.54702e-11
-2.33543e-10
-6.37844e-11
-2.11746e-10
-6.1902e-11
-1.9066e-10
-5.98214e-11
-1.70351e-10
-5.75415e-11
-1.50885e-10
-5.50623e-11
-1.32328e-10
-5.23851e-11
-1.14745e-10
-4.95132e-11
-9.81968e-11
-4.6453e-11
-8.27433e-11
-4.32131e-11
-6.84397e-11
-3.98038e-11
-5.53354e-11
-3.62383e-11
-4.34739e-11
-3.25336e-11
-3.28915e-11
-2.87115e-11
-2.36145e-11
-2.47995e-11
-1.56581e-11
-2.08311e-11
-9.02316e-12
-1.68472e-11
-3.69469e-12
-1.2899e-11
3.62273e-13
-9.04873e-12
3.20508e-12
-5.37239e-12
4.91753e-12
-1.96159e-12
5.61486e-12
1.07319e-12
5.44621e-12
3.59875e-12
4.59969e-12
5.45532e-12
3.30937e-12
6.45389e-12
1.86258e-12
6.37145e-12
6.1318e-13
4.97021e-12
2.15616e-12
5.32661e-13
-1.29447e-11
3.08777e-12
-1.04431e-11
5.57465e-12
-6.07892e-12
7.17565e-12
-3.19068e-12
7.61551e-12
-7.60758e-13
6.78873e-12
1.81718e-12
4.64717e-12
4.8308e-12
1.15649e-12
8.39281e-12
-3.71716e-12
1.24866e-11
-1.0014e-11
1.70411e-11
-1.77627e-11
2.19463e-11
-2.69904e-11
2.70948e-11
-3.77121e-11
3.23801e-11
-4.99234e-11
3.77095e-11
-6.3609e-11
4.30136e-11
-7.87457e-11
4.82305e-11
-9.52947e-11
5.33124e-11
-1.13211e-10
5.82216e-11
-1.3244e-10
6.29236e-11
-1.5292e-10
6.74009e-11
-1.74584e-10
7.16327e-11
-1.97365e-10
7.56062e-11
-2.21189e-10
7.93133e-11
-2.4598e-10
8.2745e-11
-2.71664e-10
8.58982e-11
-2.9816e-10
8.87748e-11
-3.25392e-10
9.13726e-11
-3.53282e-10
9.36939e-11
-3.81755e-10
9.57433e-11
-4.10736e-10
9.75249e-11
-4.40151e-10
9.9045e-11
-4.69924e-10
1.00309e-10
-4.99987e-10
1.01324e-10
-5.30269e-10
1.021e-10
-5.60703e-10
1.02645e-10
-5.91225e-10
1.02964e-10
-6.21773e-10
1.03066e-10
-6.52288e-10
1.0296e-10
-6.82714e-10
1.02657e-10
-7.12992e-10
1.02163e-10
-7.43068e-10
1.01487e-10
-7.72892e-10
1.00636e-10
-8.02418e-10
9.96218e-11
-8.316e-10
9.84528e-11
-8.60393e-10
9.7134e-11
-8.88757e-10
9.56711e-11
-9.16651e-10
9.40735e-11
-9.44038e-10
9.23501e-11
-9.70883e-10
9.05078e-11
-9.9715e-10
8.85529e-11
-1.02281e-09
8.64915e-11
-1.04783e-09
8.43295e-11
-1.07219e-09
8.2074e-11
-1.09586e-09
7.97303e-11
-1.11881e-09
7.73022e-11
-1.14101e-09
7.4794e-11
-1.16245e-09
7.22124e-11
-1.18311e-09
6.95629e-11
-1.20297e-09
6.6849e-11
-1.22201e-09
6.40741e-11
-1.24021e-09
6.12424e-11
-1.25756e-09
5.83573e-11
-1.27403e-09
5.54235e-11
-1.28963e-09
5.24457e-11
-1.30433e-09
4.94263e-11
-1.31812e-09
4.63667e-11
-1.331e-09
4.32705e-11
-1.34294e-09
4.0142e-11
-1.35395e-09
3.69843e-11
-1.36402e-09
3.37998e-11
-1.37313e-09
3.05903e-11
-1.38129e-09
2.73581e-11
-1.38848e-09
2.41055e-11
-1.3947e-09
2.08358e-11
-1.39994e-09
1.75528e-11
-1.40421e-09
1.42592e-11
-1.4075e-09
1.0956e-11
-1.40981e-09
7.6448e-12
-1.41113e-09
4.32849e-12
-1.41146e-09
1.00985e-12
-1.41081e-09
-2.3089e-12
-1.40918e-09
-5.62529e-12
-1.40656e-09
-8.93715e-12
-1.40296e-09
-1.2243e-11
-1.39838e-09
-1.5541e-11
-1.39282e-09
-1.88282e-11
-1.38629e-09
-2.21014e-11
-1.3788e-09
-2.53582e-11
-1.37034e-09
-2.85968e-11
-1.36093e-09
-3.18149e-11
-1.35058e-09
-3.50097e-11
-1.33928e-09
-3.81784e-11
-1.32705e-09
-4.13183e-11
-1.3139e-09
-4.44261e-11
-1.29984e-09
-4.74984e-11
-1.28487e-09
-5.05332e-11
-1.26902e-09
-5.35283e-11
-1.2523e-09
-5.64805e-11
-1.23471e-09
-5.93854e-11
-1.21628e-09
-6.22391e-11
-1.19702e-09
-6.50382e-11
-1.17695e-09
-6.77791e-11
-1.15609e-09
-7.04575e-11
-1.13445e-09
-7.30695e-11
-1.11206e-09
-7.56109e-11
-1.08894e-09
-7.8077e-11
-1.06512e-09
-8.04618e-11
-1.04062e-09
-8.27602e-11
-1.01546e-09
-8.49678e-11
-9.89681e-10
-8.70797e-11
-9.63306e-10
-8.90901e-11
-9.36367e-10
-9.09925e-11
-9.089e-10
-9.27806e-11
-8.8094e-10
-9.4448e-11
-8.52525e-10
-9.5988e-11
-8.23695e-10
-9.73938e-11
-7.94491e-10
-9.86584e-11
-7.64959e-10
-9.97746e-11
-7.35144e-10
-1.00735e-10
-7.05095e-10
-1.0153e-10
-6.74862e-10
-1.02152e-10
-6.445e-10
-1.02594e-10
-6.14063e-10
-1.02846e-10
-5.8361e-10
-1.02899e-10
-5.53201e-10
-1.02746e-10
-5.22898e-10
-1.02377e-10
-4.92766e-10
-1.01785e-10
-4.62871e-10
-1.00962e-10
-4.33282e-10
-9.98993e-11
-4.04071e-10
-9.85892e-11
-3.75309e-10
-9.70247e-11
-3.47072e-10
-9.51997e-11
-3.19435e-10
-9.31084e-11
-2.92474e-10
-9.07463e-11
-2.66265e-10
-8.81103e-11
-2.40888e-10
-8.51983e-11
-2.1642e-10
-8.20097e-11
-1.92936e-10
-7.85452e-11
-1.70514e-10
-7.48074e-11
-1.49225e-10
-7.08016e-11
-1.29143e-10
-6.65363e-11
-1.10332e-10
-6.20236e-11
-9.2857e-11
-5.72791e-11
-7.67728e-11
-5.23223e-11
-6.21289e-11
-4.71778e-11
-4.89649e-11
-4.1876e-11
-3.73094e-11
-3.64552e-11
-2.71784e-11
-3.09619e-11
-1.85725e-11
-2.5453e-11
-1.14749e-11
-1.9997e-11
-5.84708e-12
-1.46773e-11
-1.62638e-12
-9.59331e-12
1.27685e-12
-4.86456e-12
2.98346e-12
-6.33206e-13
3.64914e-12
2.93284e-12
3.4687e-12
5.63505e-12
2.68278e-12
7.23931e-12
1.58623e-12
7.46794e-12
5.41758e-13
6.01457e-12
2.6978e-12
9.37271e-14
-1.30368e-11
1.74392e-12
-1.20941e-11
3.46108e-12
-7.79746e-12
4.39649e-12
-4.1239e-12
4.14886e-12
-5.11933e-13
2.51842e-12
3.44657e-12
-6.01835e-13
7.95226e-12
-5.28208e-12
1.30716e-11
-1.15715e-11
1.87779e-11
-1.95068e-11
2.4976e-11
-2.91155e-11
3.15553e-11
-4.04166e-11
3.83963e-11
-5.34157e-11
4.53784e-11
-6.81048e-11
5.24001e-11
-8.44655e-11
5.9374e-11
-1.02463e-10
6.62269e-11
-1.22053e-10
7.29033e-11
-1.43184e-10
7.93523e-11
-1.65796e-10
8.55364e-11
-1.89819e-10
9.14243e-11
-2.1518e-10
9.6993e-11
-2.418e-10
1.02227e-10
-2.69597e-10
1.0711e-10
-2.98488e-10
1.11636e-10
-3.28388e-10
1.15799e-10
-3.59209e-10
1.19596e-10
-3.90863e-10
1.23026e-10
-4.23262e-10
1.26093e-10
-4.56322e-10
1.28802e-10
-4.89955e-10
1.31159e-10
-5.24078e-10
1.33169e-10
-5.58609e-10
1.3484e-10
-5.93468e-10
1.36183e-10
-6.28576e-10
1.37208e-10
-6.63855e-10
1.37924e-10
-6.99231e-10
1.3834e-10
-7.34633e-10
1.38469e-10
-7.69995e-10
1.38322e-10
-8.0525e-10
1.37911e-10
-8.40333e-10
1.37247e-10
-8.75185e-10
1.36338e-10
-9.09748e-10
1.35198e-10
-9.43963e-10
1.33838e-10
-9.77779e-10
1.32269e-10
-1.01115e-09
1.30499e-10
-1.04401e-09
1.28539e-10
-1.07634e-09
1.26401e-10
-1.10808e-09
1.24093e-10
-1.1392e-09
1.21624e-10
-1.16965e-09
1.19002e-10
-1.19939e-09
1.16236e-10
-1.2284e-09
1.13337e-10
-1.25664e-09
1.10313e-10
-1.28408e-09
1.07169e-10
-1.31069e-09
1.03911e-10
-1.33644e-09
1.00545e-10
-1.36131e-09
9.70809e-11
-1.38527e-09
9.35244e-11
-1.4083e-09
8.98809e-11
-1.43038e-09
8.61551e-11
-1.45149e-09
8.23521e-11
-1.47161e-09
7.84776e-11
-1.49073e-09
7.45381e-11
-1.50882e-09
7.05386e-11
-1.52587e-09
6.64816e-11
-1.54188e-09
6.23705e-11
-1.55682e-09
5.82105e-11
-1.57068e-09
5.40068e-11
-1.58346e-09
4.97632e-11
-1.59514e-09
4.54832e-11
-1.60572e-09
4.11695e-11
-1.61519e-09
3.68248e-11
-1.62354e-09
3.2453e-11
-1.63076e-09
2.80591e-11
-1.63685e-09
2.36469e-11
-1.64181e-09
1.92189e-11
-1.64563e-09
1.47771e-11
-1.64831e-09
1.0325e-11
-1.64985e-09
5.86659e-12
-1.65025e-09
1.40525e-12
-1.6495e-09
-3.05617e-12
-1.64761e-09
-7.51475e-12
-1.64458e-09
-1.1968e-11
-1.6404e-09
-1.64136e-11
-1.6351e-09
-2.08481e-11
-1.62866e-09
-2.5267e-11
-1.62109e-09
-2.96666e-11
-1.61241e-09
-3.40445e-11
-1.60261e-09
-3.83981e-11
-1.5917e-09
-4.27241e-11
-1.57969e-09
-4.70185e-11
-1.56659e-09
-5.12772e-11
-1.55241e-09
-5.54966e-11
-1.53716e-09
-5.96726e-11
-1.52086e-09
-6.38016e-11
-1.50351e-09
-6.78804e-11
-1.48514e-09
-7.19052e-11
-1.46574e-09
-7.58713e-11
-1.44536e-09
-7.97732e-11
-1.42399e-09
-8.36062e-11
-1.40166e-09
-8.73656e-11
-1.3784e-09
-9.10463e-11
-1.35421e-09
-9.46431e-11
-1.32913e-09
-9.81507e-11
-1.30318e-09
-1.01563e-10
-1.27638e-09
-1.04874e-10
-1.24877e-09
-1.08075e-10
-1.22037e-09
-1.11161e-10
-1.19121e-09
-1.14124e-10
-1.16133e-09
-1.16959e-10
-1.13076e-09
-1.19657e-10
-1.09955e-09
-1.2221e-10
-1.06772e-09
-1.2461e-10
-1.03532e-09
-1.26848e-10
-1.00239e-09
-1.28914e-10
-9.68984e-10
-1.308e-10
-9.35146e-10
-1.32496e-10
-9.00927e-10
-1.33994e-10
-8.6638e-10
-1.35282e-10
-8.31562e-10
-1.36349e-10
-7.9653e-10
-1.37184e-10
-7.61346e-10
-1.37777e-10
-7.26075e-10
-1.38116e-10
-6.90782e-10
-1.38192e-10
-6.55535e-10
-1.37992e-10
-6.20407e-10
-1.37506e-10
-5.85471e-10
-1.36723e-10
-5.50804e-10
-1.35631e-10
-5.16483e-10
-1.34221e-10
-4.82589e-10
-1.32483e-10
-4.49205e-10
-1.30408e-10
-4.16414e-10
-1.27989e-10
-3.84303e-10
-1.25219e-10
-3.52957e-10
-1.22092e-10
-3.22464e-10
-1.18604e-10
-2.9291e-10
-1.14753e-10
-2.64383e-10
-1.10537e-10
-2.36969e-10
-1.05959e-10
-2.10752e-10
-1.01024e-10
-1.85814e-10
-9.57393e-11
-1.62233e-10
-9.01171e-11
-1.40085e-10
-8.41731e-11
-1.19436e-10
-7.79281e-11
-1.00349e-10
-7.14087e-11
-8.28786e-11
-6.46485e-11
-6.70673e-11
-5.76878e-11
-5.29463e-11
-5.05764e-11
-4.05328e-11
-4.33752e-11
-2.9828e-11
-3.61576e-11
-2.08143e-11
-2.90112e-11
-1.34519e-11
-2.20403e-11
-7.67648e-12
-1.53692e-11
-3.39638e-12
-9.14453e-12
-4.89284e-13
-3.53996e-12
1.20157e-12
1.24185e-12
1.8716e-12
4.96435e-12
1.76054e-12
7.34978e-12
1.1602e-12
8.06818e-12
4.26732e-13
6.74796e-12
3.12439e-12
-2.04157e-13
-1.28319e-11
6.13186e-13
-1.29102e-11
1.4125e-12
-8.59785e-12
1.42453e-12
-4.13616e-12
2.0915e-13
7.04371e-13
-2.49107e-12
6.14785e-12
-6.83179e-12
1.22917e-11
-1.29051e-11
1.9145e-11
-2.07765e-11
2.66486e-11
-3.04918e-11
3.46917e-11
-4.20767e-11
4.31414e-11
-5.5545e-11
5.18635e-11
-7.08967e-11
6.07304e-11
-8.81202e-11
6.96234e-11
-1.07189e-10
7.8443e-11
-1.28065e-10
8.71039e-11
-1.50699e-10
9.55364e-11
-1.7503e-10
1.03684e-10
-2.00992e-10
1.11499e-10
-2.2851e-10
1.18942e-10
-2.57504e-10
1.25987e-10
-2.87886e-10
1.32609e-10
-3.19568e-10
1.38791e-10
-3.52456e-10
1.44524e-10
-3.86458e-10
1.49801e-10
-4.21477e-10
1.54614e-10
-4.57416e-10
1.58966e-10
-4.94181e-10
1.62858e-10
-5.31676e-10
1.66296e-10
-5.69804e-10
1.69287e-10
-6.08473e-10
1.71837e-10
-6.47591e-10
1.73959e-10
-6.8707e-10
1.75663e-10
-7.26824e-10
1.76961e-10
-7.66765e-10
1.77864e-10
-8.06811e-10
1.78386e-10
-8.46884e-10
1.78542e-10
-8.86908e-10
1.78345e-10
-9.26805e-10
1.77809e-10
-9.66506e-10
1.76948e-10
-1.00595e-09
1.75776e-10
-1.04506e-09
1.74309e-10
-1.08378e-09
1.7256e-10
-1.12205e-09
1.70538e-10
-1.15981e-09
1.68259e-10
-1.19701e-09
1.65738e-10
-1.23359e-09
1.62987e-10
-1.26952e-09
1.60017e-10
-1.30473e-09