/*--------------------------------*- C++ -*----------------------------------*\
  =========                 |
  \\      /  F ield         | OpenFOAM: The Open Source CFD Toolbox
   \\    /   O peration     | Website:  https://openfoam.org
    \\  /    A nd           | Version:  7
     \\/     M anipulation  |
\*---------------------------------------------------------------------------*/
FoamFile
{
    version     2.0;
    format      ascii;
    class       volVectorField;
    location    "0.05";
    object      U;
}
// * * * * * * * * * * * * * * * * * * * * * * * * * * * * * * * * * * * * * //

dimensions      [0 1 -1 0 0 0 0];

internalField   nonuniform List<vector> 
12800
(
(8.87218e-06 -8.58734e-06 0)
(3.80143e-05 -1.82514e-05 0)
(7.89499e-05 -1.88354e-05 0)
(0.000112313 -1.4397e-05 0)
(0.000127656 -7.48221e-06 0)
(0.000120367 5.43651e-07 0)
(8.82999e-05 8.88461e-06 0)
(3.08452e-05 1.71228e-05 0)
(-5.16647e-05 2.49996e-05 0)
(-0.000158332 3.24195e-05 0)
(-0.000287854 3.93117e-05 0)
(-0.000438768 4.56421e-05 0)
(-0.000609463 5.14158e-05 0)
(-0.000798276 5.6628e-05 0)
(-0.00100354 6.12933e-05 0)
(-0.00122358 6.54339e-05 0)
(-0.00145677 6.90733e-05 0)
(-0.00170154 7.22239e-05 0)
(-0.00195634 7.49214e-05 0)
(-0.00221972 7.71889e-05 0)
(-0.00249029 7.90408e-05 0)
(-0.00276673 8.05106e-05 0)
(-0.00304778 8.16216e-05 0)
(-0.00333228 8.23954e-05 0)
(-0.00361914 8.28597e-05 0)
(-0.00390732 8.30407e-05 0)
(-0.0041959 8.29539e-05 0)
(-0.00448398 8.26187e-05 0)
(-0.00477077 8.20648e-05 0)
(-0.00505553 8.13145e-05 0)
(-0.00533761 8.03845e-05 0)
(-0.00561638 7.92939e-05 0)
(-0.00589131 7.80587e-05 0)
(-0.00616191 7.66905e-05 0)
(-0.00642775 7.52042e-05 0)
(-0.00668846 7.3619e-05 0)
(-0.00694371 7.19531e-05 0)
(-0.00719321 7.02207e-05 0)
(-0.00743674 6.84327e-05 0)
(-0.00767409 6.65982e-05 0)
(-0.00790511 6.47267e-05 0)
(-0.00812968 6.28278e-05 0)
(-0.0083477 6.09103e-05 0)
(-0.00855912 5.89835e-05 0)
(-0.00876391 5.70561e-05 0)
(-0.00896205 5.51353e-05 0)
(-0.00915357 5.32259e-05 0)
(-0.0093385 5.13315e-05 0)
(-0.00951689 4.94571e-05 0)
(-0.0096888 4.76086e-05 0)
(-0.00985433 4.57904e-05 0)
(-0.0100136 4.40053e-05 0)
(-0.0101666 4.22552e-05 0)
(-0.0103136 4.05419e-05 0)
(-0.0104547 3.88673e-05 0)
(-0.0105899 3.72322e-05 0)
(-0.0107194 3.56372e-05 0)
(-0.0108434 3.40831e-05 0)
(-0.010962 3.25709e-05 0)
(-0.0110753 3.11e-05 0)
(-0.0111834 2.96689e-05 0)
(-0.0112865 2.8276e-05 0)
(-0.0113847 2.69207e-05 0)
(-0.0114782 2.56024e-05 0)
(-0.011567 2.43202e-05 0)
(-0.0116513 2.30718e-05 0)
(-0.0117312 2.18549e-05 0)
(-0.0118067 2.06675e-05 0)
(-0.011878 1.9508e-05 0)
(-0.0119452 1.83742e-05 0)
(-0.0120084 1.7263e-05 0)
(-0.0120675 1.61716e-05 0)
(-0.0121228 1.5097e-05 0)
(-0.0121742 1.40366e-05 0)
(-0.0122217 1.29875e-05 0)
(-0.0122655 1.19461e-05 0)
(-0.0123054 1.09084e-05 0)
(-0.0123416 9.87096e-06 0)
(-0.0123741 8.83095e-06 0)
(-0.0124027 7.78551e-06 0)
(-0.0124276 6.73135e-06 0)
(-0.0124486 5.66494e-06 0)
(-0.0124657 4.58298e-06 0)
(-0.0124788 3.4823e-06 0)
(-0.0124879 2.35967e-06 0)
(-0.0124929 1.21153e-06 0)
(-0.0124938 3.3948e-08 0)
(-0.0124902 -1.1772e-06 0)
(-0.0124823 -2.42568e-06 0)
(-0.0124698 -3.71472e-06 0)
(-0.0124526 -5.04738e-06 0)
(-0.0124305 -6.42689e-06 0)
(-0.0124034 -7.85658e-06 0)
(-0.0123711 -9.33959e-06 0)
(-0.0123334 -1.08786e-05 0)
(-0.0122902 -1.24757e-05 0)
(-0.0122411 -1.41327e-05 0)
(-0.0121861 -1.58516e-05 0)
(-0.0121249 -1.76344e-05 0)
(-0.0120573 -1.9483e-05 0)
(-0.011983 -2.13991e-05 0)
(-0.0119019 -2.33834e-05 0)
(-0.0118137 -2.54364e-05 0)
(-0.0117181 -2.75583e-05 0)
(-0.011615 -2.97489e-05 0)
(-0.0115042 -3.20078e-05 0)
(-0.0113853 -3.43339e-05 0)
(-0.0112582 -3.67255e-05 0)
(-0.0111227 -3.918e-05 0)
(-0.0109785 -4.16945e-05 0)
(-0.0108256 -4.42651e-05 0)
(-0.0106637 -4.68872e-05 0)
(-0.0104926 -4.9555e-05 0)
(-0.0103124 -5.22616e-05 0)
(-0.0101227 -5.49992e-05 0)
(-0.00992364 -5.77591e-05 0)
(-0.0097151 -6.05323e-05 0)
(-0.00949707 -6.33092e-05 0)
(-0.00926958 -6.6079e-05 0)
(-0.00903269 -6.88299e-05 0)
(-0.00878652 -7.15487e-05 0)
(-0.00853121 -7.42211e-05 0)
(-0.00826697 -7.68314e-05 0)
(-0.00799406 -7.93632e-05 0)
(-0.0077128 -8.17992e-05 0)
(-0.00742356 -8.41212e-05 0)
(-0.00712679 -8.63097e-05 0)
(-0.00682299 -8.83442e-05 0)
(-0.00651275 -9.02032e-05 0)
(-0.00619671 -9.18649e-05 0)
(-0.00587559 -9.33066e-05 0)
(-0.0055502 -9.45054e-05 0)
(-0.00522142 -9.54376e-05 0)
(-0.00489021 -9.60787e-05 0)
(-0.0045576 -9.64035e-05 0)
(-0.00422471 -9.63862e-05 0)
(-0.00389277 -9.60006e-05 0)
(-0.00356304 -9.52207e-05 0)
(-0.00323691 -9.4021e-05 0)
(-0.00291582 -9.2376e-05 0)
(-0.00260129 -9.02601e-05 0)
(-0.00229493 -8.76475e-05 0)
(-0.00199842 -8.45124e-05 0)
(-0.00171349 -8.08299e-05 0)
(-0.00144195 -7.65767e-05 0)
(-0.00118566 -7.17318e-05 0)
(-0.000946511 -6.62756e-05 0)
(-0.000726415 -6.01923e-05 0)
(-0.000527296 -5.34707e-05 0)
(-0.000351046 -4.61073e-05 0)
(-0.000199486 -3.81104e-05 0)
(-7.43043e-05 -2.9508e-05 0)
(2.30405e-05 -2.03634e-05 0)
(9.14749e-05 -1.08049e-05 0)
(0.000130568 -1.08217e-06 0)
(0.000140948 8.32795e-06 0)
(0.000124919 1.65253e-05 0)
(8.78263e-05 2.17825e-05 0)
(4.21275e-05 2.08845e-05 0)
(9.66904e-06 9.66447e-06 0)
(1.98252e-05 -3.84408e-05 0)
(7.29457e-05 -7.0694e-05 0)
(0.000134692 -6.61474e-05 0)
(0.000171367 -3.97761e-05 0)
(0.000162619 -9.17672e-07 0)
(9.76021e-05 4.46198e-05 0)
(-2.97251e-05 9.30768e-05 0)
(-0.000222074 0.000142028 0)
(-0.000479646 0.000189955 0)
(-0.000800917 0.000235907 0)
(-0.00118333 0.000279279 0)
(-0.00162349 0.000319729 0)
(-0.00211756 0.000357044 0)
(-0.00266144 0.00039113 0)
(-0.00325082 0.000421966 0)
(-0.00388139 0.000449598 0)
(-0.00454882 0.000474069 0)
(-0.00524888 0.000495501 0)
(-0.00597742 0.000513989 0)
(-0.00673046 0.000529668 0)
(-0.00750417 0.000542668 0)
(-0.00829488 0.000553137 0)
(-0.00909913 0.000561212 0)
(-0.00991364 0.000567043 0)
(-0.0107353 0.000570784 0)
(-0.0115613 0.000572573 0)
(-0.0123889 0.000572557 0)
(-0.0132156 0.000570873 0)
(-0.0140392 0.000567663 0)
(-0.0148575 0.000563057 0)
(-0.0156685 0.000557184 0)
(-0.0164707 0.000550172 0)
(-0.0172623 0.000542138 0)
(-0.0180419 0.000533189 0)
(-0.0188084 0.000523431 0)
(-0.0195606 0.000512967 0)
(-0.0202975 0.000501894 0)
(-0.0210182 0.000490305 0)
(-0.0217222 0.000478286 0)
(-0.0224088 0.000465913 0)
(-0.0230774 0.000453257 0)
(-0.0237278 0.000440385 0)
(-0.0243596 0.000427357 0)
(-0.0249726 0.000414232 0)
(-0.0255667 0.000401065 0)
(-0.0261419 0.000387904 0)
(-0.0266982 0.000374788 0)
(-0.0272355 0.000361755 0)
(-0.0277542 0.000348839 0)
(-0.0282543 0.000336071 0)
(-0.028736 0.000323479 0)
(-0.0291996 0.000311086 0)
(-0.0296455 0.00029891 0)
(-0.0300738 0.000286966 0)
(-0.0304849 0.000275264 0)
(-0.0308792 0.000263815 0)
(-0.031257 0.000252625 0)
(-0.0316187 0.0002417 0)
(-0.0319646 0.000231043 0)
(-0.0322952 0.000220651 0)
(-0.0326107 0.000210521 0)
(-0.0329117 0.000200646 0)
(-0.0331983 0.000191022 0)
(-0.033471 0.000181641 0)
(-0.0337302 0.000172495 0)
(-0.033976 0.000163571 0)
(-0.0342089 0.000154857 0)
(-0.0344291 0.000146339 0)
(-0.0346369 0.000138003 0)
(-0.0348326 0.000129832 0)
(-0.0350163 0.00012181 0)
(-0.0351882 0.000113918 0)
(-0.0353486 0.000106138 0)
(-0.0354975 9.845e-05 0)
(-0.0356351 9.08336e-05 0)
(-0.0357615 8.32666e-05 0)
(-0.0358767 7.57268e-05 0)
(-0.0359807 6.81922e-05 0)
(-0.0360736 6.06412e-05 0)
(-0.0361553 5.30516e-05 0)
(-0.0362257 4.54005e-05 0)
(-0.0362847 3.76649e-05 0)
(-0.0363322 2.98218e-05 0)
(-0.036368 2.18483e-05 0)
(-0.0363919 1.3721e-05 0)
(-0.0364036 5.41586e-06 0)
(-0.036403 -3.09154e-06 0)
(-0.0363896 -1.18252e-05 0)
(-0.0363632 -2.08082e-05 0)
(-0.0363233 -3.00628e-05 0)
(-0.0362696 -3.96105e-05 0)
(-0.0362016 -4.94726e-05 0)
(-0.036119 -5.96695e-05 0)
(-0.036021 -7.02206e-05 0)
(-0.0359074 -8.11431e-05 0)
(-0.0357775 -9.2453e-05 0)
(-0.0356308 -0.000104165 0)
(-0.0354666 -0.000116292 0)
(-0.0352845 -0.000128846 0)
(-0.0350837 -0.000141838 0)
(-0.0348637 -0.000155275 0)
(-0.0346238 -0.000169162 0)
(-0.0343634 -0.000183501 0)
(-0.0340818 -0.000198293 0)
(-0.0337785 -0.000213532 0)
(-0.0334527 -0.000229213 0)
(-0.033104 -0.000245325 0)
(-0.0327317 -0.000261852 0)
(-0.0323352 -0.000278776 0)
(-0.031914 -0.000296073 0)
(-0.0314676 -0.000313715 0)
(-0.0309956 -0.000331666 0)
(-0.0304976 -0.000349888 0)
(-0.0299733 -0.000368334 0)
(-0.0294224 -0.000386951 0)
(-0.0288447 -0.000405681 0)
(-0.0282401 -0.000424462 0)
(-0.0276087 -0.000443224 0)
(-0.0269505 -0.000461892 0)
(-0.0262659 -0.000480383 0)
(-0.025555 -0.000498608 0)
(-0.0248185 -0.000516469 0)
(-0.024057 -0.000533863 0)
(-0.0232711 -0.000550679 0)
(-0.0224619 -0.000566801 0)
(-0.0216305 -0.000582106 0)
(-0.0207782 -0.000596464 0)
(-0.0199064 -0.00060974 0)
(-0.0190168 -0.000621795 0)
(-0.0181113 -0.000632484 0)
(-0.017192 -0.000641657 0)
(-0.0162611 -0.000649162 0)
(-0.0153212 -0.000654844 0)
(-0.0143749 -0.000658543 0)
(-0.0134253 -0.000660098 0)
(-0.0124755 -0.000659347 0)
(-0.0115289 -0.000656128 0)
(-0.0105891 -0.000650281 0)
(-0.00966001 -0.000641649 0)
(-0.00874555 -0.000630078 0)
(-0.00785001 -0.00061542 0)
(-0.0069778 -0.000597531 0)
(-0.00613353 -0.000576278 0)
(-0.00532194 -0.00055154 0)
(-0.0045479 -0.000523214 0)
(-0.00381638 -0.00049122 0)
(-0.00313237 -0.000455506 0)
(-0.00250089 -0.00041606 0)
(-0.00192682 -0.000372926 0)
(-0.00141489 -0.000326226 0)
(-0.000969451 -0.000276191 0)
(-0.000594327 -0.000223221 0)
(-0.000292498 -0.000167969 0)
(-6.56832e-05 -0.000111486 0)
(8.62872e-05 -5.54633e-05 0)
(0.000166372 -2.62739e-06 0)
(0.000181438 4.2631e-05 0)
(0.000144123 7.32393e-05 0)
(7.80958e-05 7.80264e-05 0)
(2.0905e-05 4.21187e-05 0)
(2.12223e-05 -8.19483e-05 0)
(7.14165e-05 -0.000134044 0)
(0.000115504 -0.0001087 0)
(0.000114097 -3.56801e-05 0)
(4.26951e-05 6.70391e-05 0)
(-0.000112938 0.000187102 0)
(-0.000361437 0.000315769 0)
(-0.000707038 0.000446985 0)
(-0.00115062 0.000576705 0)
(-0.00169064 0.000702138 0)
(-0.00232374 0.000821453 0)
(-0.00304538 0.000933475 0)
(-0.00385017 0.00103742 0)
(-0.00473211 0.00113291 0)
(-0.00568495 0.00121971 0)
(-0.00670222 0.00129782 0)
(-0.00777741 0.00136735 0)
(-0.00890406 0.00142846 0)
(-0.0100759 0.00148142 0)
(-0.0112866 0.00152654 0)
(-0.0125304 0.00156416 0)
(-0.0138015 0.00159463 0)
(-0.0150945 0.00161836 0)
(-0.0164042 0.00163572 0)
(-0.0177258 0.00164712 0)
(-0.0190546 0.00165295 0)
(-0.0203865 0.00165361 0)
(-0.0217175 0.00164949 0)
(-0.0230439 0.00164097 0)
(-0.0243623 0.00162842 0)
(-0.0256697 0.00161219 0)
(-0.0269632 0.00159265 0)
(-0.0282402 0.00157013 0)
(-0.0294986 0.00154494 0)
(-0.0307361 0.00151739 0)
(-0.0319512 0.00148777 0)
(-0.033142 0.00145635 0)
(-0.0343074 0.00142338 0)
(-0.035446 0.00138912 0)
(-0.0365569 0.00135379 0)
(-0.0376393 0.0013176 0)
(-0.0386926 0.00128073 0)
(-0.0397162 0.00124338 0)
(-0.0407098 0.0012057 0)
(-0.0416731 0.00116786 0)
(-0.042606 0.00112998 0)
(-0.0435086 0.00109219 0)
(-0.0443809 0.0010546 0)
(-0.045223 0.00101732 0)
(-0.0460353 0.000980426 0)
(-0.046818 0.000944002 0)
(-0.0475716 0.000908113 0)
(-0.0482963 0.000872816 0)
(-0.0489928 0.000838156 0)
(-0.0496615 0.00080417 0)
(-0.0503029 0.000770885 0)
(-0.0509177 0.000738323 0)
(-0.0515063 0.000706501 0)
(-0.0520693 0.000675424 0)
(-0.0526074 0.000645093 0)
(-0.053121 0.000615499 0)
(-0.0536109 0.000586629 0)
(-0.0540775 0.000558466 0)
(-0.0545213 0.00053099 0)
(-0.054943 0.000504175 0)
(-0.055343 0.000477989 0)
(-0.0557219 0.000452397 0)
(-0.0560799 0.000427359 0)
(-0.0564177 0.000402835 0)
(-0.0567355 0.000378778 0)
(-0.0570337 0.00035514 0)
(-0.0573127 0.000331871 0)
(-0.0575726 0.000308916 0)
(-0.0578137 0.00028622 0)
(-0.0580363 0.000263725 0)
(-0.0582404 0.000241368 0)
(-0.0584261 0.000219088 0)
(-0.0585934 0.000196823 0)
(-0.0587424 0.00017451 0)
(-0.0588729 0.000152083 0)
(-0.0589849 0.000129479 0)
(-0.0590781 0.00010663 0)
(-0.0591525 8.34704e-05 0)
(-0.0592076 5.99338e-05 0)
(-0.0592431 3.59528e-05 0)
(-0.0592587 1.14597e-05 0)
(-0.059254 -1.36129e-05 0)
(-0.0592284 -3.93318e-05 0)
(-0.0591813 -6.57621e-05 0)
(-0.0591124 -9.29668e-05 0)
(-0.0590207 -0.000121007 0)
(-0.0589058 -0.000149942 0)
(-0.0587668 -0.000179829 0)
(-0.058603 -0.000210721 0)
(-0.0584136 -0.000242668 0)
(-0.0581977 -0.000275716 0)
(-0.0579545 -0.000309905 0)
(-0.0576829 -0.000345273 0)
(-0.0573821 -0.000381853 0)
(-0.0570512 -0.00041967 0)
(-0.056689 -0.000458744 0)
(-0.0562947 -0.000499088 0)
(-0.0558673 -0.000540705 0)
(-0.0554056 -0.000583592 0)
(-0.0549089 -0.000627736 0)
(-0.054376 -0.000673113 0)
(-0.0538061 -0.000719689 0)
(-0.0531982 -0.000767418 0)
(-0.0525515 -0.000816243 0)
(-0.0518652 -0.000866092 0)
(-0.0511384 -0.000916878 0)
(-0.0503706 -0.000968503 0)
(-0.0495612 -0.00102085 0)
(-0.0487097 -0.00107378 0)
(-0.0478157 -0.00112716 0)
(-0.0468789 -0.0011808 0)
(-0.0458994 -0.00123453 0)
(-0.044877 -0.00128815 0)
(-0.0438122 -0.00134144 0)
(-0.0427052 -0.00139416 0)
(-0.0415566 -0.00144605 0)
(-0.0403673 -0.00149684 0)
(-0.0391384 -0.00154622 0)
(-0.0378711 -0.0015939 0)
(-0.0365669 -0.00163952 0)
(-0.0352278 -0.00168276 0)
(-0.0338556 -0.00172323 0)
(-0.032453 -0.00176056 0)
(-0.0310224 -0.00179435 0)
(-0.0295671 -0.00182419 0)
(-0.0280902 -0.00184967 0)
(-0.0265954 -0.00187035 0)
(-0.0250869 -0.0018858 0)
(-0.0235688 -0.00189557 0)
(-0.0220458 -0.00189922 0)
(-0.0205231 -0.0018963 0)
(-0.0190059 -0.00188637 0)
(-0.0175 -0.00186899 0)
(-0.0160114 -0.00184374 0)
(-0.0145464 -0.0018102 0)
(-0.0131116 -0.00176799 0)
(-0.011714 -0.00171675 0)
(-0.0103605 -0.00165613 0)
(-0.00905861 -0.00158588 0)
(-0.00781572 -0.00150575 0)
(-0.00663937 -0.0014156 0)
(-0.00553713 -0.0013154 0)
(-0.00451642 -0.00120524 0)
(-0.00358447 -0.00108538 0)
(-0.00274807 -0.000956341 0)
(-0.00201335 -0.000818992 0)
(-0.00138549 -0.000674681 0)
(-0.000868267 -0.000525461 0)
(-0.000463466 -0.000374415 0)
(-0.000170101 -0.000226149 0)
(1.66476e-05 -8.75194e-05 0)
(0.000106598 3.13124e-05 0)
(0.000116244 0.000115555 0)
(7.36463e-05 0.000144155 0)
(2.18772e-05 8.79075e-05 0)
(1.67055e-05 -0.00011894 0)
(4.57845e-05 -0.00017456 0)
(4.50712e-05 -0.000108531 0)
(-2.38889e-05 3.42185e-05 0)
(-0.000186357 0.000226563 0)
(-0.000458044 0.00044908 0)
(-0.000848762 0.000687447 0)
(-0.00136356 0.000931424 0)
(-0.00200372 0.00117363 0)
(-0.00276759 0.00140897 0)
(-0.00365141 0.00163387 0)
(-0.00464976 0.00184585 0)
(-0.0057561 0.00204338 0)
(-0.00696309 0.00222544 0)
(-0.0082629 0.00239151 0)
(-0.00964735 0.00254141 0)
(-0.0111082 0.00267522 0)
(-0.0126371 0.00279319 0)
(-0.0142259 0.00289574 0)
(-0.0158666 0.00298336 0)
(-0.0175514 0.00305666 0)
(-0.0192728 0.0031163 0)
(-0.0210237 0.00316297 0)
(-0.0227973 0.00319738 0)
(-0.0245871 0.00322027 0)
(-0.026387 0.00323239 0)
(-0.0281914 0.00323448 0)
(-0.029995 0.00322729 0)
(-0.0317927 0.00321152 0)
(-0.0335802 0.0031879 0)
(-0.0353532 0.0031571 0)
(-0.037108 0.0031198 0)
(-0.038841 0.00307663 0)
(-0.0405492 0.00302822 0)
(-0.0422298 0.00297516 0)
(-0.0438802 0.00291799 0)
(-0.0454985 0.00285726 0)
(-0.0470826 0.00279346 0)
(-0.0486309 0.00272706 0)
(-0.050142 0.0026585 0)
(-0.0516149 0.0025882 0)
(-0.0530486 0.00251653 0)
(-0.0544423 0.00244384 0)
(-0.0557956 0.00237046 0)
(-0.0571081 0.00229669 0)
(-0.0583796 0.0022228 0)
(-0.0596101 0.00214903 0)
(-0.0607996 0.0020756 0)
(-0.0619483 0.0020027 0)
(-0.0630566 0.00193052 0)
(-0.0641248 0.00185921 0)
(-0.0651535 0.00178889 0)
(-0.066143 0.00171969 0)
(-0.0670942 0.00165169 0)
(-0.0680076 0.00158496 0)
(-0.0688838 0.00151957 0)
(-0.0697237 0.00145556 0)
(-0.070528 0.00139296 0)
(-0.0712975 0.00133178 0)
(-0.0720328 0.00127203 0)
(-0.0727348 0.00121369 0)
(-0.0734042 0.00115675 0)
(-0.0740419 0.00110117 0)
(-0.0746484 0.00104691 0)
(-0.0752245 0.000993916 0)
(-0.0757709 0.000942134 0)
(-0.0762882 0.000891495 0)
(-0.076777 0.000841926 0)
(-0.0772379 0.000793343 0)
(-0.0776714 0.000745661 0)
(-0.0780779 0.000698785 0)
(-0.0784579 0.000652616 0)
(-0.0788117 0.000607053 0)
(-0.0791397 0.000561986 0)
(-0.0794419 0.000517302 0)
(-0.0797187 0.000472885 0)
(-0.0799702 0.000428616 0)
(-0.0801963 0.000384373 0)
(-0.0803971 0.000340033 0)
(-0.0805724 0.00029547 0)
(-0.0807222 0.000250559 0)
(-0.0808461 0.00020517 0)
(-0.080944 0.000159174 0)
(-0.0810153 0.000112441 0)
(-0.0810597 6.48427e-05 0)
(-0.0810766 1.62476e-05 0)
(-0.0810655 -3.34734e-05 0)
(-0.0810258 -8.44476e-05 0)
(-0.0809566 -0.0001368 0)
(-0.0808572 -0.000190651 0)
(-0.0807267 -0.000246119 0)
(-0.0805643 -0.000303318 0)
(-0.080369 -0.000362356 0)
(-0.0801397 -0.000423336 0)
(-0.0798753 -0.000486353 0)
(-0.0795748 -0.000551494 0)
(-0.0792368 -0.000618838 0)
(-0.0788603 -0.000688456 0)
(-0.078444 -0.000760408 0)
(-0.0779865 -0.000834741 0)
(-0.0774866 -0.000911491 0)
(-0.076943 -0.000990677 0)
(-0.0763543 -0.00107231 0)
(-0.0757193 -0.00115637 0)
(-0.0750366 -0.00124283 0)
(-0.074305 -0.00133165 0)
(-0.0735233 -0.00142274 0)
(-0.0726902 -0.00151603 0)
(-0.0718046 -0.00161139 0)
(-0.0708655 -0.00170868 0)
(-0.0698719 -0.00180772 0)
(-0.068823 -0.00190833 0)
(-0.067718 -0.00201027 0)
(-0.0665563 -0.00211328 0)
(-0.0653375 -0.00221707 0)
(-0.0640613 -0.00232131 0)
(-0.0627276 -0.00242565 0)
(-0.0613365 -0.00252969 0)
(-0.0598884 -0.00263301 0)
(-0.0583839 -0.00273513 0)
(-0.0568238 -0.00283557 0)
(-0.0552093 -0.00293379 0)
(-0.0535419 -0.0030292 0)
(-0.0518233 -0.00312121 0)
(-0.0500556 -0.00320917 0)
(-0.0482412 -0.00329241 0)
(-0.0463832 -0.00337023 0)
(-0.0444846 -0.00344188 0)
(-0.0425491 -0.00350662 0)
(-0.0405808 -0.00356365 0)
(-0.0385841 -0.00361217 0)
(-0.036564 -0.00365137 0)
(-0.0345258 -0.0036804 0)
(-0.0324753 -0.00369843 0)
(-0.0304189 -0.00370461 0)
(-0.028363 -0.0036981 0)
(-0.026315 -0.00367806 0)
(-0.0242824 -0.00364369 0)
(-0.022273 -0.00359419 0)
(-0.0202953 -0.00352881 0)
(-0.0183579 -0.00344685 0)
(-0.0164699 -0.00334767 0)
(-0.0146405 -0.00323069 0)
(-0.0128792 -0.00309547 0)
(-0.0111958 -0.00294166 0)
(-0.00959977 -0.0027691 0)
(-0.00810085 -0.00257784 0)
(-0.00670841 -0.00236821 0)
(-0.00543145 -0.00214089 0)
(-0.00427833 -0.00189708 0)
(-0.0032565 -0.00163863 0)
(-0.00237205 -0.00136831 0)
(-0.00162926 -0.00109013 0)
(-0.00102994 -0.000809891 0)
(-0.000572624 -0.000535854 0)
(-0.00025154 -0.000279748 0)
(-5.55281e-05 -5.81064e-05 0)
(3.33999e-05 0.000106211 0)
(4.36758e-05 0.000182097 0)
(1.67632e-05 0.000125352 0)
(9.44101e-06 -0.000137791 0)
(6.51373e-06 -0.000170505 0)
(-5.74548e-05 -3.99904e-05 0)
(-0.000214992 0.000195804 0)
(-0.00048946 0.000501193 0)
(-0.000896518 0.000849959 0)
(-0.00144601 0.00122231 0)
(-0.00214304 0.00160351 0)
(-0.00298883 0.00198285 0)
(-0.0039815 0.00235243 0)
(-0.00511684 0.00270668 0)
(-0.00638875 0.00304165 0)
(-0.00778978 0.00335464 0)
(-0.00931153 0.00364393 0)
(-0.0109449 0.00390852 0)
(-0.0126803 0.00414794 0)
(-0.0145081 0.00436215 0)
(-0.0164184 0.00455146 0)
(-0.0184015 0.00471639 0)
(-0.0204478 0.00485767 0)
(-0.022548 0.00497617 0)
(-0.024693 0.00507286 0)
(-0.0268743 0.0051488 0)
(-0.0290835 0.00520509 0)
(-0.0313127 0.00524288 0)
(-0.0335547 0.00526333 0)
(-0.0358023 0.00526759 0)
(-0.0380492 0.00525684 0)
(-0.0402892 0.00523221 0)
(-0.0425167 0.00519484 0)
(-0.0447267 0.00514582 0)
(-0.0469144 0.00508622 0)
(-0.0490755 0.00501705 0)
(-0.0512062 0.00493932 0)
(-0.0533029 0.00485396 0)
(-0.0553626 0.00476188 0)
(-0.0573827 0.00466393 0)
(-0.0593606 0.00456092 0)
(-0.0612944 0.0044536 0)
(-0.0631823 0.00434271 0)
(-0.0650228 0.00422889 0)
(-0.0668148 0.00411276 0)
(-0.0685574 0.0039949 0)
(-0.0702499 0.00387585 0)
(-0.0718918 0.00375607 0)
(-0.0734827 0.00363602 0)
(-0.0750227 0.00351608 0)
(-0.0765118 0.00339664 0)
(-0.0779501 0.00327799 0)
(-0.0793381 0.00316044 0)
(-0.0806762 0.00304423 0)
(-0.0819649 0.00292958 0)
(-0.083205 0.00281668 0)
(-0.084397 0.00270567 0)
(-0.0855419 0.00259669 0)
(-0.0866404 0.00248983 0)
(-0.0876934 0.00238516 0)
(-0.0887019 0.00228275 0)
(-0.0896667 0.0021826 0)
(-0.0905887 0.00208474 0)
(-0.091469 0.00198914 0)
(-0.0923084 0.00189577 0)
(-0.0931078 0.00180459 0)
(-0.0938682 0.00171552 0)
(-0.0945903 0.00162849 0)
(-0.0952751 0.0015434 0)
(-0.0959232 0.00146015 0)
(-0.0965354 0.00137861 0)
(-0.0971125 0.00129866 0)
(-0.0976549 0.00122015 0)
(-0.0981634 0.00114294 0)
(-0.0986383 0.00106687 0)
(-0.0990802 0.000991759 0)
(-0.0994894 0.000917448 0)
(-0.0998661 0.00084375 0)
(-0.100211 0.000770478 0)
(-0.100523 0.00069744 0)
(-0.100804 0.000624442 0)
(-0.101052 0.000551282 0)
(-0.101268 0.000477759 0)
(-0.101452 0.000403667 0)
(-0.101603 0.000328798 0)
(-0.101722 0.000252944 0)
(-0.101806 0.000175897 0)
(-0.101857 9.74458e-05 0)
(-0.101873 1.7382e-05 0)
(-0.101854 -6.45017e-05 0)
(-0.101798 -0.000148409 0)
(-0.101706 -0.00023454 0)
(-0.101575 -0.000323088 0)
(-0.101406 -0.000414244 0)
(-0.101196 -0.000508188 0)
(-0.100944 -0.000605095 0)
(-0.100651 -0.000705126 0)
(-0.100313 -0.000808435 0)
(-0.0999294 -0.000915161 0)
(-0.0994993 -0.00102543 0)
(-0.0990208 -0.00113935 0)
(-0.0984926 -0.00125701 0)
(-0.097913 -0.0013785 0)
(-0.0972804 -0.00150386 0)
(-0.0965932 -0.00163312 0)
(-0.0958498 -0.00176628 0)
(-0.0950487 -0.00190333 0)
(-0.0941883 -0.00204421 0)
(-0.093267 -0.00218884 0)
(-0.0922833 -0.00233709 0)
(-0.0912359 -0.00248881 0)
(-0.0901233 -0.00264381 0)
(-0.0889443 -0.00280185 0)
(-0.0876977 -0.00296265 0)
(-0.0863826 -0.00312589 0)
(-0.0849981 -0.00329119 0)
(-0.0835435 -0.00345812 0)
(-0.0820182 -0.00362622 0)
(-0.0804221 -0.00379496 0)
(-0.0787549 -0.00396374 0)
(-0.077017 -0.00413195 0)
(-0.0752088 -0.00429887 0)
(-0.0733311 -0.00446377 0)
(-0.071385 -0.00462582 0)
(-0.069372 -0.00478417 0)
(-0.0672939 -0.0049379 0)
(-0.0651529 -0.00508602 0)
(-0.0629517 -0.0052275 0)
(-0.0606934 -0.00536126 0)
(-0.0583814 -0.00548618 0)
(-0.0560199 -0.00560106 0)
(-0.0536133 -0.0057047 0)
(-0.0511666 -0.00579585 0)
(-0.0486853 -0.00587321 0)
(-0.0461755 -0.00593548 0)
(-0.0436439 -0.00598134 0)
(-0.0410974 -0.00600945 0)
(-0.0385438 -0.00601848 0)
(-0.0359912 -0.0060071 0)
(-0.0334483 -0.005974 0)
(-0.0309243 -0.00591792 0)
(-0.0284289 -0.00583764 0)
(-0.0259721 -0.005732 0)
(-0.0235645 -0.00559995 0)
(-0.021217 -0.00544052 0)
(-0.0189406 -0.00525291 0)
(-0.0167468 -0.00503647 0)
(-0.0146469 -0.00479081 0)
(-0.0126525 -0.0045158 0)
(-0.0107748 -0.00421167 0)
(-0.00902488 -0.00387914 0)
(-0.00741313 -0.0035195 0)
(-0.00594917 -0.00313485 0)
(-0.00464143 -0.0027283 0)
(-0.00349679 -0.00230437 0)
(-0.00251999 -0.00186941 0)
(-0.00171308 -0.00143226 0)
(-0.00107459 -0.00100509 0)
(-0.000598717 -0.000604639 0)
(-0.000274293 -0.000253626 0)
(-8.35679e-05 1.75191e-05 0)
(-7.0758e-07 0.000168481 0)
(8.77044e-06 0.000142159 0)
(1.10672e-06 -0.000133492 0)
(-3.97927e-05 -0.000109927 0)
(-0.000178712 0.000112593 0)
(-0.000439045 0.000466256 0)
(-0.000840243 0.000908048 0)
(-0.00139669 0.00140562 0)
(-0.00211738 0.00193401 0)
(-0.00300669 0.0024743 0)
(-0.0040653 0.0030122 0)
(-0.0052909 0.00353712 0)
(-0.00667863 0.00404124 0)
(-0.00822177 0.00451895 0)
(-0.00991206 0.00496629 0)
(-0.0117401 0.00538067 0)
(-0.0136959 0.00576043 0)
(-0.0157686 0.00610475 0)
(-0.0179474 0.00641343 0)
(-0.0202211 0.00668672 0)
(-0.0225787 0.00692527 0)
(-0.0250093 0.00712999 0)
(-0.0275021 0.00730205 0)
(-0.030047 0.00744275 0)
(-0.0326338 0.00755354 0)
(-0.0352531 0.00763596 0)
(-0.0378957 0.0076916 0)
(-0.0405531 0.00772209 0)
(-0.0432171 0.00772909 0)
(-0.0458802 0.00771425 0)
(-0.0485353 0.00767919 0)
(-0.0511759 0.00762553 0)
(-0.053796 0.00755485 0)
(-0.0563899 0.00746867 0)
(-0.0589528 0.00736849 0)
(-0.0614799 0.00725572 0)
(-0.0639672 0.00713173 0)
(-0.0664111 0.00699784 0)
(-0.0688084 0.00685528 0)
(-0.0711561 0.00670522 0)
(-0.0734519 0.00654878 0)
(-0.0756937 0.006387 0)
(-0.0778797 0.00622084 0)
(-0.0800085 0.00605121 0)
(-0.082079 0.00587895 0)
(-0.0840904 0.00570483 0)
(-0.086042 0.00552956 0)
(-0.0879335 0.0053538 0)
(-0.0897647 0.00517812 0)
(-0.0915357 0.00500306 0)
(-0.0932467 0.00482909 0)
(-0.094898 0.00465663 0)
(-0.0964902 0.00448606 0)
(-0.0980239 0.0043177 0)
(-0.0994999 0.00415181 0)
(-0.100919 0.00398864 0)
(-0.102282 0.00382836 0)
(-0.10359 0.00367113 0)
(-0.104844 0.00351706 0)
(-0.106044 0.00336622 0)
(-0.107193 0.00321865 0)
(-0.108291 0.00307438 0)
(-0.109339 0.00293337 0)
(-0.110339 0.0027956 0)
(-0.111291 0.00266098 0)
(-0.112196 0.00252942 0)
(-0.113055 0.00240081 0)
(-0.11387 0.00227501 0)
(-0.114641 0.00215187 0)
(-0.115369 0.00203121 0)
(-0.116055 0.00191286 0)
(-0.1167 0.00179659 0)
(-0.117304 0.0016822 0)
(-0.117867 0.00156945 0)
(-0.118391 0.00145811 0)
(-0.118876 0.00134791 0)
(-0.119322 0.0012386 0)
(-0.119729 0.00112991 0)
(-0.120098 0.00102155 0)
(-0.120429 0.000913243 0)
(-0.120721 0.000804697 0)
(-0.120974 0.000695616 0)
(-0.121188 0.000585701 0)
(-0.121364 0.000474651 0)
(-0.1215 0.000362163 0)
(-0.121595 0.000247933 0)
(-0.12165 0.000131657 0)
(-0.121663 1.30312e-05 0)
(-0.121634 -0.000108243 0)
(-0.121562 -0.000232461 0)
(-0.121445 -0.000359911 0)
(-0.121283 -0.000490876 0)
(-0.121074 -0.000625627 0)
(-0.120818 -0.000764428 0)
(-0.120511 -0.000907527 0)
(-0.120154 -0.00105516 0)
(-0.119745 -0.00120754 0)
(-0.119281 -0.00136488 0)
(-0.118762 -0.00152735 0)
(-0.118185 -0.00169511 0)
(-0.11755 -0.00186829 0)
(-0.116853 -0.00204698 0)
(-0.116093 -0.00223128 0)
(-0.115269 -0.00242121 0)
(-0.114378 -0.00261677 0)
(-0.113418 -0.00281792 0)
(-0.112389 -0.00302459 0)
(-0.111287 -0.00323663 0)
(-0.110112 -0.00345388 0)
(-0.108862 -0.0036761 0)
(-0.107534 -0.003903 0)
(-0.106129 -0.00413423 0)
(-0.104644 -0.00436938 0)
(-0.103077 -0.00460797 0)
(-0.10143 -0.00484945 0)
(-0.0996994 -0.0050932 0)
(-0.0978861 -0.00533853 0)
(-0.0959894 -0.00558465 0)
(-0.0940094 -0.00583073 0)
(-0.0919463 -0.00607583 0)
(-0.0898007 -0.00631894 0)
(-0.0875736 -0.00655897 0)
(-0.0852663 -0.00679473 0)
(-0.0828806 -0.00702498 0)
(-0.0804187 -0.00724836 0)
(-0.0778833 -0.00746346 0)
(-0.0752773 -0.0076688 0)
(-0.0726046 -0.00786279 0)
(-0.0698692 -0.0080438 0)
(-0.067076 -0.00821014 0)
(-0.06423 -0.00836005 0)
(-0.0613374 -0.00849171 0)
(-0.0584044 -0.0086033 0)
(-0.0554382 -0.00869292 0)
(-0.0524464 -0.00875867 0)
(-0.0494373 -0.00879866 0)
(-0.0464199 -0.00881097 0)
(-0.0434037 -0.00879372 0)
(-0.0403986 -0.00874507 0)
(-0.0374153 -0.00866323 0)
(-0.034465 -0.00854651 0)
(-0.0315593 -0.0083933 0)
(-0.0287102 -0.00820214 0)
(-0.0259303 -0.00797177 0)
(-0.0232323 -0.0077011 0)
(-0.020629 -0.00738937 0)
(-0.0181336 -0.00703613 0)
(-0.0157589 -0.00664137 0)
(-0.0135176 -0.0062056 0)
(-0.0114222 -0.00573005 0)
(-0.00948418 -0.00521677 0)
(-0.00771422 -0.00466894 0)
(-0.00612168 -0.00409116 0)
(-0.00471416 -0.00348987 0)
(-0.00349703 -0.00287394 0)
(-0.00247285 -0.00225535 0)
(-0.00164075 -0.00165023 0)
(-0.000995681 -0.00108004 0)
(-0.000527563 -0.000573236 0)
(-0.000220235 -0.000166919 0)
(-5.25663e-05 9.0812e-05 0)
(-3.97378e-07 0.000133086 0)
(-7.51193e-06 -0.000103919 0)
(-8.93012e-05 1.38849e-05 0)
(-0.000309866 0.000358994 0)
(-0.00068188 0.000856952 0)
(-0.00121953 0.00145885 0)
(-0.00193502 0.00212711 0)
(-0.0028356 0.00283225 0)
(-0.0039244 0.0035514 0)
(-0.00520111 0.00426699 0)
(-0.00666254 0.00496568 0)
(-0.00830315 0.00563745 0)
(-0.0101154 0.00627492 0)
(-0.0120903 0.00687284 0)
(-0.0142176 0.00742755 0)
(-0.0164862 0.00793676 0)
(-0.0188845 0.00839918 0)
(-0.0214004 0.00881435 0)
(-0.0240218 0.00918247 0)
(-0.0267366 0.00950425 0)
(-0.0295325 0.0097808 0)
(-0.0323979 0.0100135 0)
(-0.0353211 0.0102042 0)
(-0.0382912 0.0103545 0)
(-0.0412973 0.0104666 0)
(-0.0443294 0.0105425 0)
(-0.0473778 0.0105843 0)
(-0.0504335 0.0105943 0)
(-0.0534878 0.0105747 0)
(-0.0565328 0.0105275 0)
(-0.0595612 0.0104551 0)
(-0.062566 0.0103594 0)
(-0.065541 0.0102426 0)
(-0.0684806 0.0101066 0)
(-0.0713795 0.00995341 0)
(-0.074233 0.00978483 0)
(-0.077037 0.00960264 0)
(-0.0797878 0.00940853 0)
(-0.0824821 0.00920409 0)
(-0.0851172 0.00899082 0)
(-0.0876907 0.00877015 0)
(-0.0902005 0.00854339 0)
(-0.092645 0.00831178 0)
(-0.0950229 0.00807647 0)
(-0.0973332 0.0078385 0)
(-0.0995752 0.00759885 0)
(-0.101748 0.00735842 0)
(-0.103853 0.007118 0)
(-0.105888 0.00687832 0)
(-0.107855 0.00664004 0)
(-0.109753 0.00640373 0)
(-0.111583 0.0061699 0)
(-0.113347 0.005939 0)
(-0.115044 0.00571141 0)
(-0.116676 0.00548744 0)
(-0.118243 0.00526735 0)
(-0.119748 0.00505136 0)
(-0.12119 0.00483961 0)
(-0.122571 0.00463222 0)
(-0.123892 0.00442925 0)
(-0.125155 0.00423071 0)
(-0.126361 0.0040366 0)
(-0.12751 0.00384684 0)
(-0.128605 0.00366136 0)
(-0.129645 0.00348002 0)
(-0.130633 0.00330267 0)
(-0.13157 0.00312912 0)
(-0.132455 0.00295918 0)
(-0.133292 0.0027926 0)
(-0.134079 0.00262913 0)
(-0.134819 0.0024685 0)
(-0.135512 0.0023104 0)
(-0.136158 0.00215453 0)
(-0.136758 0.00200056 0)
(-0.137313 0.00184814 0)
(-0.137823 0.00169692 0)
(-0.138288 0.00154653 0)
(-0.138709 0.0013966 0)
(-0.139085 0.00124672 0)
(-0.139416 0.00109651 0)
(-0.139703 0.000945576 0)
(-0.139945 0.0007935 0)
(-0.140141 0.000639875 0)
(-0.140292 0.000484292 0)
(-0.140396 0.000326336 0)
(-0.140453 0.000165596 0)
(-0.140462 1.66175e-06 0)
(-0.140422 -0.000165872 0)
(-0.140332 -0.000337405 0)
(-0.140191 -0.000513327 0)
(-0.139997 -0.000694018 0)
(-0.139749 -0.000879849 0)
(-0.139447 -0.00107117 0)
(-0.139087 -0.00126832 0)
(-0.138669 -0.00147162 0)
(-0.13819 -0.00168135 0)
(-0.137649 -0.00189779 0)
(-0.137045 -0.00212117 0)
(-0.136374 -0.00235171 0)
(-0.135635 -0.00258958 0)
(-0.134827 -0.00283491 0)
(-0.133946 -0.0030878 0)
(-0.132992 -0.00334829 0)
(-0.131961 -0.00361637 0)
(-0.130852 -0.00389199 0)
(-0.129662 -0.00417502 0)
(-0.128391 -0.00446529 0)
(-0.127035 -0.00476254 0)
(-0.125593 -0.00506645 0)
(-0.124063 -0.00537662 0)
(-0.122445 -0.00569257 0)
(-0.120735 -0.00601373 0)
(-0.118934 -0.00633944 0)
(-0.117039 -0.00666896 0)
(-0.11505 -0.00700143 0)
(-0.112967 -0.00733591 0)
(-0.11079 -0.00767134 0)
(-0.108517 -0.00800656 0)
(-0.10615 -0.00834031 0)
(-0.103689 -0.00867121 0)
(-0.101136 -0.00899777 0)
(-0.0984917 -0.00931839 0)
(-0.0957585 -0.00963136 0)
(-0.0929387 -0.00993488 0)
(-0.0900355 -0.010227 0)
(-0.0870525 -0.0105057 0)
(-0.0839936 -0.0107689 0)
(-0.0808638 -0.0110144 0)
(-0.0776683 -0.0112398 0)
(-0.0744131 -0.0114429 0)
(-0.0711048 -0.0116211 0)
(-0.0677509 -0.011772 0)
(-0.0643591 -0.011893 0)