/*--------------------------------*- C++ -*----------------------------------*\
  =========                 |
  \\      /  F ield         | OpenFOAM: The Open Source CFD Toolbox
   \\    /   O peration     | Website:  https://openfoam.org
    \\  /    A nd           | Version:  7
     \\/     M anipulation  |
\*---------------------------------------------------------------------------*/
FoamFile
{
    version     2.0;
    format      ascii;
    class       volScalarField;
    location    "0.375";
    object      p;
}
// * * * * * * * * * * * * * * * * * * * * * * * * * * * * * * * * * * * * * //

dimensions      [0 2 -2 0 0 0 0];

internalField   nonuniform List<scalar> 
12800
(
8.66726e-07
0.000183614
-0.000901335
-0.00334558
-0.00690375
-0.0113289
-0.0163877
-0.0218668
-0.0275796
-0.0333659
-0.0390895
-0.0446349
-0.0499049
-0.0548179
-0.059306
-0.0633131
-0.0667934
-0.0697103
-0.0720348
-0.0737453
-0.0748258
-0.075266
-0.07506
-0.0742064
-0.0727068
-0.0705664
-0.0677928
-0.0643959
-0.0603877
-0.0557817
-0.0505929
-0.0448373
-0.0385318
-0.031694
-0.0243422
-0.0164947
-0.00817032
0.000612242
0.00983425
0.0194771
0.0295225
0.0399523
0.0507488
0.0618949
0.0733736
0.0851688
0.0972647
0.109646
0.122298
0.135208
0.148361
0.161745
0.175347
0.189157
0.203164
0.217356
0.231725
0.246261
0.260956
0.275801
0.29079
0.305915
0.32117
0.336549
0.352046
0.367656
0.383374
0.399197
0.415119
0.431138
0.447249
0.46345
0.479737
0.496109
0.512562
0.529094
0.545702
0.562385
0.57914
0.595966
0.612859
0.629818
0.64684
0.663924
0.681066
0.698263
0.715514
0.732815
0.750161
0.76755
0.784977
0.802437
0.819925
0.837437
0.854964
0.872502
0.890042
0.907576
0.925097
0.942593
0.960056
0.977473
0.994834
1.01213
1.02933
1.04644
1.06344
1.08031
1.09702
1.11358
1.12994
1.1461
1.16204
1.17772
1.19313
1.20824
1.22303
1.23747
1.25153
1.26519
1.27842
1.2912
1.30348
1.31525
1.32648
1.33713
1.34718
1.3566
1.36537
1.37345
1.38083
1.38749
1.39339
1.39853
1.40288
1.40644
1.40919
1.41113
1.41226
1.41258
1.41209
1.41082
1.40878
1.406
1.40253
1.39839
1.39366
1.3884
1.38268
1.37661
1.3703
1.36388
1.35751
1.35138
1.34568
1.34068
1.33663
1.33382
1.33254
1.33271
-0.000180572
2.69459e-06
-0.00100033
-0.00313273
-0.00617066
-0.00993871
-0.0142631
-0.0189732
-0.0239126
-0.0289418
-0.0339389
-0.0387977
-0.0434271
-0.0477491
-0.0516977
-0.0552177
-0.058263
-0.0607962
-0.0627871
-0.0642122
-0.0650537
-0.0652991
-0.0649404
-0.0639736
-0.0623981
-0.0602165
-0.0574341
-0.0540585
-0.0500992
-0.0455675
-0.040476
-0.0348388
-0.0286705
-0.021987
-0.0148043
-0.00713927
0.000991193
0.00956992
0.0185797
0.0280034
0.0378239
0.0480244
0.0585884
0.0694997
0.0807423
0.092301
0.104161
0.116307
0.128726
0.141404
0.154329
0.167488
0.180869
0.194461
0.208253
0.222236
0.2364
0.250735
0.265234
0.279888
0.29469
0.309632
0.324709
0.339913
0.355241
0.370685
0.386241
0.401904
0.417671
0.433536
0.449497
0.46555
0.481691
0.497918
0.514228
0.530617
0.547083
0.563624
0.580237
0.596919
0.613668
0.630481
0.647356
0.664289
0.681278
0.69832
0.715411
0.732548
0.749726
0.766942
0.78419
0.801467
0.818766
0.836081
0.853407
0.870735
0.888059
0.905369
0.922659
0.939916
0.957132
0.974296
0.991394
1.00842
1.02535
1.04217
1.05887
1.07544
1.09185
1.10809
1.12414
1.13998
1.15559
1.17094
1.18601
1.20079
1.21524
1.22935
1.24308
1.25642
1.26933
1.28178
1.29376
1.30524
1.31618
1.32657
1.33637
1.34556
1.35412
1.36203
1.36925
1.37578
1.38159
1.38668
1.39101
1.39459
1.39741
1.39947
1.40076
1.40129
1.40107
1.40012
1.39846
1.39612
1.39315
1.38957
1.38546
1.38087
1.37589
1.37061
1.36514
1.35959
1.3541
1.34885
1.344
1.33976
1.33631
1.33388
1.3327
1.33287
0.000903674
0.00100662
2.82995e-06
-0.00198151
-0.00473124
-0.00810412
-0.01196
-0.0161572
-0.0205624
-0.025054
-0.0295232
-0.0338734
-0.0380205
-0.0418911
-0.0454225
-0.0485613
-0.0512625
-0.053489
-0.0552102
-0.0564021
-0.0570459
-0.0571278
-0.0566384
-0.0555721
-0.0539268
-0.0517033
-0.0489051
-0.0455381
-0.04161
-0.0371304
-0.0321103
-0.0265618
-0.0204983
-0.0139337
-0.00688289
0.00063896
0.00861623
0.0170331
0.0258735
0.0351215
0.0447612
0.0547766
0.0651523
0.0758728
0.0869231
0.0982885
0.109955
0.121908
0.134135
0.146623
0.159358
0.17233
0.185527
0.198938
0.212552
0.22636
0.240352
0.254519
0.268853
0.283345
0.297989
0.312777
0.327703
0.34276
0.357942
0.373245
0.388662
0.404189
0.419822
0.435556
0.451388
0.467313
0.483328
0.49943
0.515616
0.531882
0.548225
0.564643
0.581132
0.597691
0.614315
0.631002
0.647749
0.664553
0.68141
0.698317
0.71527
0.732266
0.7493
0.766368
0.783464
0.800584
0.817721
0.83487
0.852024
0.869175
0.886316
0.903439
0.920534
0.937591
0.954601
0.971552
0.988432
1.00523
1.02193
1.03852
1.05498
1.0713
1.08746
1.10344
1.11923
1.13481
1.15015
1.16523
1.18004
1.19454
1.20873
1.22257
1.23603
1.24911
1.26176
1.27396
1.2857
1.29694
1.30767
1.31784
1.32745
1.33647
1.34487
1.35264
1.35975
1.36619
1.37194
1.37698
1.38132
1.38493
1.38781
1.38996
1.39139
1.3921
1.3921
1.39141
1.39005
1.38806
1.38548
1.38234
1.3787
1.37464
1.37021
1.36551
1.36064
1.3557
1.35083
1.34617
1.34186
1.33807
1.33496
1.3327
1.33153
1.33159
0.00334936
0.00314214
0.00198555
-3.97684e-06
-0.00264712
-0.00582025
-0.00940349
-0.0132762
-0.0173237
-0.0214397
-0.0255277
-0.0295007
-0.0332819
-0.0368035
-0.0400068
-0.0428412
-0.0452639
-0.0472387
-0.0487359
-0.0497313
-0.0502062
-0.0501461
-0.0495409
-0.0483841
-0.0466724
-0.0444056
-0.041586
-0.0382179
-0.034308
-0.0298644
-0.0248968
-0.019416
-0.0134341
-0.00696378
-1.85836e-05
0.00738742
0.0152398
0.0235237
0.0322243
0.0413266
0.0508154
0.0606758
0.0708931
0.0814525
0.0923399
0.103541
0.115043
0.126831
0.138893
0.151217
0.16379
0.1766
0.189638
0.202891
0.21635
0.230005
0.243846
0.257865
0.272054
0.286404
0.300909
0.31556
0.330351
0.345277
0.36033
0.375506
0.390799
0.406205
0.421717
0.437333
0.453048
0.468858
0.484759
0.500748
0.516821
0.532975
0.549207
0.565513
0.58189
0.598336
0.614847
0.631419
0.64805
0.664736
0.681474
0.698259
0.715089
0.731958
0.748862
0.765797
0.782756
0.799736
0.816729
0.83373
0.850731
0.867726
0.884706
0.901662
0.918587
0.935469
0.952298
0.969064
0.985754
1.00236
1.01886
1.03524
1.0515
1.06761
1.08355
1.09932
1.11488
1.13023
1.14535
1.16021
1.17479
1.18907
1.20303
1.21664
1.22989
1.24274
1.25518
1.26719
1.27873
1.28978
1.30032
1.31033
1.31979
1.32867
1.33695
1.34461
1.35163
1.358
1.36371
1.36874
1.37307
1.37672
1.37966
1.3819
1.38345
1.38431
1.38449
1.38402
1.38292
1.38121
1.37894
1.37615
1.37288
1.36921
1.3652
1.36093
1.35649
1.35199
1.34753
1.34323
1.33924
1.33568
1.3327
1.33044
1.32909
1.32879
0.00691962
0.00619197
0.00473871
0.00262722
-2.65245e-05
-0.00311652
-0.00653971
-0.0101944
-0.0139827
-0.0178129
-0.0216002
-0.0252674
-0.0287452
-0.031972
-0.0348937
-0.0374633
-0.0396404
-0.0413906
-0.0426855
-0.0435017
-0.0438205
-0.0436275
-0.0429122
-0.0416676
-0.0398897
-0.0375774
-0.0347319
-0.0313569
-0.0274576
-0.0230413
-0.0181163
-0.0126925
-0.00678067
-0.000392487
0.00645962
0.0137627
0.0215032
0.0296675
0.0382415
0.0472111
0.0565622
0.0662805
0.0763521
0.0867631
0.0974997
0.108549
0.119897
0.131531
0.143439
0.155609
0.168029
0.180688
0.193574
0.206679
0.21999
0.2335
0.247198
0.261076
0.275127
0.289341
0.303711
0.318231
0.332893
0.347692
0.36262
0.377674
0.392846
0.408133
0.423529
0.439029
0.45463
0.470328
0.486117
0.501995
0.517958
0.534002
0.550124
0.56632
0.582587
0.598922
0.615322
0.631782
0.648299
0.66487
0.68149
0.698157
0.714865
0.73161
0.748388
0.765193
0.78202
0.798864
0.815718
0.832576
0.84943
0.866274
0.883099
0.899897
0.916658
0.933373
0.950031
0.966621
0.983132
0.99955
1.01586
1.03206
1.04812
1.06403
1.07977
1.09534
1.1107
1.12584
1.14075
1.1554
1.16977
1.18384
1.19759
1.21101
1.22405
1.23671
1.24896
1.26078
1.27215
1.28303
1.29342
1.30328
1.3126
1.32136
1.32953
1.3371
1.34406
1.35038
1.35605
1.36107
1.36542
1.36909
1.3721
1.37443
1.37609
1.37709
1.37745
1.37717
1.37629
1.37483
1.37283
1.37034
1.36739
1.36405
1.36038
1.35646
1.35236
1.34818
1.34402
1.33998
1.33617
1.33271
1.32973
1.32733
1.32564
1.32474
0.0113785
0.00998881
0.00812672
0.00579444
0.00303045
-7.59909e-05
-0.00343631
-0.00696603
-0.0105829
-0.0142084
-0.017769
-0.0211969
-0.0244306
-0.0274147
-0.0301002
-0.0324439
-0.0344084
-0.0359619
-0.0370773
-0.0377323
-0.0379091
-0.0375936
-0.0367752
-0.0354468
-0.033604
-0.0312452
-0.0283709
-0.0249839
-0.0210888
-0.0166917
-0.0118003
-0.0064233
-0.000570585
0.00574712
0.0125184
0.0197311
0.0273727
0.0354305
0.0438912
0.0527416
0.0619682
0.0715577
0.0814966
0.0917719
0.10237
0.113279
0.124486
0.135978
0.147743
0.15977
0.172048
0.184565
0.19731
0.210275
0.223448
0.236821
0.250384
0.264129
0.278048
0.292133
0.306376
0.32077
0.335309
0.349986
0.364795
0.379731
0.394787
0.409959
0.425242
0.440632
0.456122
0.47171
0.487391
0.503161
0.519017
0.534954
0.550969
0.567058
0.583218
0.599446
0.615736
0.632087
0.648493
0.664952
0.681459
0.69801
0.7146
0.731225
0.747881
0.764561
0.781261
0.797974
0.814694
0.831415
0.848129
0.864829
0.881507
0.898154
0.914761
0.931317
0.947814
0.964239
0.980581
0.996827
1.01297
1.02898
1.04486
1.06059
1.07615
1.09152
1.1067
1.12165
1.13637
1.15083
1.16501
1.17889
1.19246
1.20569
1.21856
1.23104
1.24312
1.25478
1.26599
1.27673
1.28697
1.29671
1.30592
1.31457
1.32265
1.33015
1.33705
1.34333
1.34898
1.35399
1.35836
1.36208
1.36514
1.36756
1.36933
1.37046
1.37096
1.37086
1.37018
1.36894
1.36718
1.36493
1.36225
1.35918
1.35579
1.35213
1.34829
1.34435
1.34038
1.33648
1.33275
1.32928
1.32617
1.32352
1.32137
1.31972
0.0165047
0.0143678
0.0120164
0.00938382
0.00642628
0.00321828
-0.000163901
-0.00365128
-0.00717567
-0.0106706
-0.0140732
-0.0173245
-0.0203707
-0.0231626
-0.0256563
-0.0278128
-0.0295982
-0.030983
-0.0319424
-0.0324555
-0.0325054
-0.0320787
-0.0311654
-0.0297583
-0.027853
-0.0254476
-0.0225422
-0.0191391
-0.0152422
-0.0108571
-0.00599048
-0.000650512
0.00515381
0.0114126
0.0181151
0.0252502
0.0328061
0.0407708
0.0491319
0.0578767
0.0669927
0.076467
0.086287
0.0964401
0.106914
0.117695
0.128773
0.140136
0.15177
0.163667
0.175813
0.188199
0.200815
0.21365
0.226694
0.23994
0.253377
0.266997
0.280793
0.294756
0.308879
0.323155
0.337578
0.35214
0.366835
0.381659
0.396605
0.411668
0.426843
0.442126
0.45751
0.472993
0.48857
0.504237
0.519989
0.535823
0.551735
0.567721
0.583777
0.5999
0.616086
0.632331
0.648631
0.664982
0.681379
0.697818
0.714296
0.730806
0.747344
0.763905
0.780483
0.797071
0.813664
0.830255
0.846837
0.863401
0.87994
0.896445
0.912907
0.929316
0.945662
0.961933
0.978119
0.994206
1.01018
1.02603
1.04175
1.05731
1.0727
1.0879
1.1029
1.11769
1.13223
1.14652
1.16053
1.17425
1.18765
1.20072
1.21343
1.22576
1.2377
1.24921
1.26029
1.2709
1.28103
1.29066
1.29977
1.30834
1.31635
1.32379
1.33064
1.33689
1.34254
1.34755
1.35195
1.3557
1.35883
1.36132
1.36319
1.36444
1.36508
1.36513
1.36462
1.36356
1.36199
1.35995
1.35748
1.35463
1.35144
1.34799
1.34433
1.34053
1.33666
1.33282
1.32906
1.32548
1.32216
1.31918
1.31648
1.31398
0.0220969
0.0191671
0.0162728
0.0132804
0.0100643
0.00668649
0.00321306
-0.00030077
-0.00379946
-0.00722753
-0.0105317
-0.0136616
-0.0165704
-0.0192154
-0.0215577
-0.0235625
-0.0251995
-0.026442
-0.0272674
-0.0276567
-0.0275943
-0.0270678
-0.0260676
-0.0245871
-0.0226221
-0.0201705
-0.0172323
-0.0138096
-0.00990586
-0.00552604
-0.000676473
0.00463543
0.0104012
0.0166117
0.023257
0.0303264
0.0378089
0.0456932
0.0539675
0.0626199
0.0716383
0.0810106
0.0907248
0.100769
0.11113
0.121798
0.132759
0.144004
0.15552
0.167297
0.179323
0.191589
0.204085
0.216801
0.229727
0.242854
0.256174
0.269679
0.283359
0.297209
0.311219
0.325384
0.339697
0.35415
0.368739
0.383456
0.398298
0.413257
0.428329
0.443509
0.458793
0.474176
0.489652
0.505219
0.520872
0.536607
0.55242
0.568307
0.584264
0.600287
0.616372
0.632515
0.648712
0.664958
0.68125
0.697583
0.713952
0.730353
0.746779
0.763226
0.779687
0.796158
0.81263
0.829098
0.845554
0.861991
0.878399
0.894772
0.911098
0.927369
0.943575
0.959704
0.975745
0.991685
1.00751
1.02322
1.03878
1.05418
1.06942
1.08447
1.09932
1.11395
1.12834
1.14248
1.15634
1.16991
1.18317
1.19609
1.20866
1.22086
1.23267
1.24406
1.25502
1.26553
1.27556
1.28511
1.29414
1.30264
1.3106
1.31799
1.32482
1.33105
1.33669
1.34172
1.34614
1.34994
1.35313
1.3557
1.35765
1.359
1.35976
1.35995
1.35958
1.35868
1.35727
1.3554
1.35309
1.3504
1.34737
1.34404
1.34049
1.33677
1.33293
1.32906
1.3252
1.32143
1.31782
1.31445
1.31114
1.30776
0.0279799
0.0242383
0.0207689
0.0173745
0.0138508
0.0102498
0.00662945
0.0030328
-0.000495807
-0.00391078
-0.00716762
-0.0102238
-0.0130395
-0.0155777
-0.0178045
-0.0196896
-0.0212062
-0.0223305
-0.0230425
-0.023325
-0.0231639
-0.0225482
-0.021469
-0.0199204
-0.0178985
-0.0154014
-0.0124293
-0.00898401
-0.0050688
-0.000688357
0.0041514
0.00944348
0.01518
0.0213522
0.0279508
0.0349657
0.0423865
0.0502023
0.0584021
0.0669745
0.075908
0.0851909
0.0948118
0.104759
0.115021
0.125586
0.136444
0.147582
0.158991
0.17066
0.182577
0.194734
0.20712
0.219726
0.232543
0.245562
0.258774
0.272171
0.285745
0.299488
0.313394
0.327455
0.341664
0.356016
0.370503
0.385121
0.399863
0.414724
0.429698
0.444781
0.459969
0.475255
0.490637
0.506109
0.521667
0.537307
0.553024
0.568816
0.584677
0.600603
0.616591
0.632637
0.648735
0.664882
0.681074
0.697305
0.71357
0.729865
0.746185
0.762523
0.778875
0.795233
0.811591
0.827943
0.844281
0.860597
0.876884
0.893132
0.909332
0.925476
0.941551
0.957549
0.973456
0.989262
1.00495
1.02052
1.03594
1.05121
1.06631
1.08122
1.09593
1.11042
1.12468
1.13868
1.15241
1.16585
1.17899
1.19179
1.20424
1.21633
1.22803
1.23932
1.25019
1.26061
1.27056
1.28003
1.289
1.29745
1.30537
1.31274
1.31954
1.32577
1.33142
1.33647
1.34092
1.34477
1.34801
1.35065
1.35269
1.35414
1.355
1.3553
1.35505
1.35428
1.353
1.35126
1.34908
1.3465
1.34357
1.34032
1.33682
1.33311
1.32924
1.32528
1.32126
1.31724
1.31329
1.30947
1.30553
1.30125
0.0340025
0.0294489
0.0253879
0.0215634
0.0176966
0.0138316
0.0100202
0.00629508
0.00269056
-0.000756497
-0.00400955
-0.00703329
-0.00979415
-0.0122607
-0.0144041
-0.0161982
-0.0176196
-0.0186477
-0.019265
-0.0194563
-0.0192094
-0.0185143
-0.0173636
-0.0157518
-0.0136758
-0.0111341
-0.00812706
-0.00465646
-0.000725603
0.00366099
0.00849764
0.0137777
0.0194935
0.025637
0.032199
0.03917
0.0465402
0.0542992
0.0624363
0.0709407
0.0798013
0.0890071
0.0985469
0.108409
0.118584
0.129059
0.139824
0.150868
0.162181
0.173752
0.185572
0.19763
0.209917
0.222423
0.23514
0.248059
0.261172
0.27447
0.287945
0.301591
0.315399
0.329363
0.343477
0.357733
0.372126
0.386649
0.401298
0.416066
0.430948
0.44594
0.461036
0.476231
0.491522
0.506903
0.52237
0.537919
0.553546
0.569246
0.585016
0.60085
0.616746
0.632698
0.648702
0.664754
0.680849
0.696982
0.713149
0.729344
0.745562
0.761798
0.778045
0.794297
0.810548
0.826791
0.843018
0.859222
0.875394
0.891526
0.90761
0.923634
0.93959
0.955467
0.971252
0.986935
1.0025
1.01794
1.03324
1.04839
1.06336
1.07815
1.09274
1.10711
1.12125
1.13513
1.14875
1.16208
1.1751
1.1878
1.20016
1.21215
1.22376
1.23497
1.24576
1.25611
1.266
1.27542
1.28435
1.29276
1.30065
1.308
1.3148
1.32104
1.3267
1.33178
1.33627
1.34016
1.34346
1.34617
1.34829
1.34982
1.35078
1.35118
1.35103
1.35036
1.34918
1.34753
1.34544
1.34294
1.34006
1.33685
1.33335
1.3296
1.32565
1.32154
1.31731
1.313
1.30868
1.30438
1.29979
1.29461
0.0400362
0.0346819
0.0300242
0.0257524
0.0215177
0.0173585
0.013322
0.00943192
0.00571402
0.00219743
-0.00108843
-0.00411476
-0.00685385
-0.00927954
-0.0113676
-0.0130959
-0.0144446
-0.0153962
-0.0159356
-0.01605
-0.0157287
-0.0149634
-0.0137479
-0.0120776
-0.00995009
-0.00736446
-0.00432138
-0.000822907
0.0031276
0.00752561
0.0123656
0.0176409
0.0233445
0.0294681
0.0360033
0.0429409
0.0502712
0.0579844
0.0660703
0.0745182
0.0833178
0.0924582
0.101929
0.111719
0.121817
0.132214
0.142898
0.153859
0.165087
0.176572
0.188304
0.200274
0.212472
0.224888
0.237515
0.250344
0.263366
0.276573
0.289958
0.303514
0.317232
0.331107
0.345131
0.359299
0.373603
0.388039
0.4026
0.417281
0.432077
0.446982
0.461991
0.477101
0.492305
0.5076
0.522981
0.538444
0.553984
0.569598
0.58528
0.601027
0.616833
0.632696
0.64861
0.664572
0.680575
0.696616
0.712689
0.728789
0.744911
0.761049
0.777198
0.79335
0.8095
0.82564
0.841763
0.857862
0.873929
0.889954
0.905929
0.921845
0.937691
0.953456
0.969131
0.984703
1.00016
1.01549
1.03068
1.04571
1.06058
1.07526
1.08974
1.104
1.11804
1.13182
1.14534
1.15858
1.17151
1.18412
1.1964
1.20831
1.21985
1.231
1.24173
1.25203
1.26188
1.27126
1.28016
1.28855
1.29643
1.30378
1.31059
1.31684
1.32252
1.32763
1.33216
1.33611
1.33947
1.34224
1.34443
1.34604
1.34708
1.34756
1.3475
1.34691
1.34581
1.34423
1.3422
1.33974
1.33688
1.33366
1.33012
1.32629
1.32221
1.31792
1.31344
1.30881
1.30408
1.29929
1.29404
1.28799
0.0459704
0.0398337
0.0345825
0.0298546
0.025236
0.0207611
0.0164738
0.0123902
0.00852895
0.00491226
0.00156325
-0.00149512
-0.00424053
-0.00665166
-0.00870863
-0.0103932
-0.011689
-0.0125813
-0.0130578
-0.0131077
-0.0127223
-0.011895
-0.0106205
-0.00889574
-0.00671889
-0.00408975
-0.00100948
0.0025195
0.0064936
0.0109082
0.0157577
0.0210356
0.0267348
0.0328476
0.0393653
0.0462794
0.0535803
0.0612585
0.0693041
0.0777071
0.0864571
0.0955437
0.104957
0.114686
0.12472
0.13505
0.145664
0.156553
0.167708
0.179117
0.190772
0.202664
0.214782
0.227119
0.239665
0.252412
0.265353
0.278478
0.291781
0.305255
0.318891
0.332684
0.346626
0.360712
0.374934
0.389288
0.403768
0.418367
0.433082
0.447906
0.462834
0.477862
0.492986
0.508199
0.523499
0.53888
0.554338
0.569869
0.585468
0.601131
0.616854
0.632632
0.648461
0.664336
0.680252
0.696205
0.712189
0.728199
0.744231
0.760277
0.776333
0.792391
0.808447
0.824491
0.840518
0.856519
0.872488
0.888414
0.90429
0.920105
0.935851
0.951516
0.96709
0.982561
0.997918
1.01315
1.02824
1.04317
1.05794
1.07253
1.08692
1.10109
1.11504
1.12874
1.14218
1.15534
1.1682
1.18074
1.19295
1.20481
1.2163
1.22739
1.23808
1.24835
1.25817
1.26753
1.27641
1.28481
1.29269
1.30005
1.30687
1.31315
1.31886
1.32402
1.3286
1.3326
1.33601
1.33885
1.34111
1.34279
1.3439
1.34445
1.34446
1.34393
1.34289
1.34136
1.33936
1.33691
1.33404
1.33078
1.32717
1.32323
1.31898
1.31447
1.30972
1.30474
1.29959
1.2943
1.28841
1.28151
0.0517096
0.0448134
0.0389771
0.0337909
0.0287792
0.0239739
0.019417
0.0151184
0.0110902
0.00734888
0.00391197
0.00079718
-0.00197803
-0.00439683
-0.00644339
-0.00810313
-0.00936287
-0.010211
-0.0106374
-0.0106337
-0.0101932
-0.00931057
-0.00798232
-0.00620627
-0.00398164
-0.00130899
0.00180993
0.00537223
0.00937397
0.0138103
0.0186755
0.0239631
0.0296659
0.0357763
0.042286
0.0491862
0.0564679
0.0641217
0.0721381
0.080507
0.0892187
0.098263
0.10763
0.117309
0.127291
0.137564
0.148121
0.158949
0.170041
0.181385
0.192974
0.204797
0.216846
0.229112
0.241587
0.254263
0.26713
0.280182
0.293412
0.306811
0.320373
0.334091
0.347958
0.361969
0.376116
0.390395
0.404799
0.419323
0.433962
0.44871
0.463563
0.478515
0.493562
0.508699
0.523922
0.539226
0.554606
0.570059
0.58558
0.601164
0.616807
0.632505
0.648253
0.664046
0.67988
0.695749
0.71165
0.727576
0.743521
0.759482
0.77545
0.791421
0.807388
0.823343
0.83928
0.855192
0.871069
0.886905
0.902689
0.918414
0.934068
0.949643
0.965126
0.980508
0.995776
1.01092
1.02592
1.04077
1.05546
1.06997
1.08428
1.09838
1.11225
1.12588
1.13925
1.15235
1.16515
1.17765
1.18981
1.20163
1.21308
1.22414
1.23481
1.24506
1.25487
1.26422
1.27311
1.28151
1.28941
1.29679
1.30364
1.30996
1.31572
1.32092
1.32555
1.32961
1.33309
1.33599
1.33831
1.34006
1.34124
1.34185
1.34191
1.34144
1.34044
1.33893
1.33693
1.33447
1.33157
1.32825
1.32453
1.32045
1.31602
1.31127
1.30621
1.30087
1.29529
1.2895
1.28298
1.27527
0.057171
0.0495404
0.0431314
0.0374891
0.0320804
0.0269358
0.0220964
0.0175667
0.0133535
0.0094683
0.00592367
0.00273265
-9.1685e-05
-0.0025366
-0.00459002
-0.00624079
-0.00747883
-0.00829526
-0.00868252
-0.00863439
-0.00814602
-0.0072139
-0.00583585
-0.00401094
-0.00173943
0.000977283
0.00413674
0.00773548
0.0117691
0.0162325
0.0211197
0.0264241
0.0321385
0.0382551
0.0447657
0.0516618
0.0589344
0.0665743
0.074572
0.082918
0.0916025
0.100616
0.109948
0.119588
0.129528
0.139758
0.150266
0.161045
0.172084
0.183375
0.194907
0.206673
0.218662
0.230868
0.243281
0.255893
0.268697
0.281684
0.294848
0.308181
0.321676
0.335327
0.349127
0.363069
0.377148
0.391358
0.405693
0.420148
0.434717
0.449395
0.464177
0.479058
0.494034
0.509099
0.52425
0.539481
0.554789
0.570168
0.585614
0.601124
0.616692
0.632314
0.647986
0.663702
0.679458
0.695249
0.71107
0.726917
0.742782
0.758662
0.774549
0.790438
0.806322
0.822195
0.83805
0.853878
0.869672
0.885425
0.901127
0.916768
0.932341
0.947834
0.963238
0.97854
0.993731
1.0088
1.02373
1.03851
1.05312
1.06756
1.08181
1.09584
1.10966
1.12324
1.13656
1.14961
1.16237
1.17483
1.18696
1.19875
1.21019
1.22124
1.2319
1.24214
1.25196
1.26133
1.27023
1.27865
1.28658
1.294
1.30089
1.30725
1.31307
1.31832
1.32301
1.32714
1.33068
1.33365
1.33604
1.33785
1.33908
1.33975
1.33986
1.33943
1.33845
1.33695
1.33495
1.33245
1.32949
1.32608
1.32224
1.318
1.31336
1.30836
1.30299
1.29728
1.29126
1.28498
1.27785
1.26934
0.0622825
0.0539434
0.0469763
0.0408835
0.0350779
0.0295895
0.0244592
0.0196873
0.0152758
0.011232
0.00756412
0.00428115
0.00139215
-0.00109384
-0.00316823
-0.00482303
-0.00605109
-0.0068462
-0.00720319
-0.00711799
-0.00658766
-0.00561038
-0.00418541
-0.00231309
5.22062e-06
0.00276721
0.00596962
0.00960837
0.0136786
0.0181746
0.0230903
0.0284187
0.0341526
0.040284
0.0468048
0.0537064
0.0609799
0.0686162
0.076606
0.0849399
0.0936082
0.102601
0.11191
0.121523
0.131433
0.141629
0.152101
0.162841
0.173838
0.185085
0.196572
0.208289
0.22023
0.232384
0.244744
0.257303
0.270051
0.282982
0.296089
0.309364
0.3228
0.336391
0.35013
0.364011
0.378029
0.392176
0.406448
0.420839
0.435344
0.449958
0.464674
0.47949
0.4944
0.509398
0.524482
0.539645
0.554885
0.570195
0.585572
0.601011
0.616509
0.63206
0.647659
0.663303
0.678986
0.694704
0.710451
0.726222
0.742013
0.757817
0.773629
0.789442
0.80525
0.821046
0.836825
0.852577
0.868296
0.883973
0.8996
0.915167
0.930667
0.946088
0.961421
0.976655
0.991778
1.00678
1.02164
1.03636
1.05092
1.06531
1.0795
1.09349
1.10726
1.1208
1.13409
1.14711
1.15985
1.17228
1.1844
1.19618
1.20761
1.21867
1.22933
1.23959
1.24943
1.25882
1.26776
1.27622
1.28419
1.29166
1.29861
1.30503
1.3109
1.31622
1.32098
1.32517
1.32879
1.33182
1.33428
1.33615
1.33745
1.33816
1.33831
1.3379
1.33694
1.33544
1.33341
1.33087
1.32784
1.32433
1.32035
1.31592
1.31107
1.30579
1.30011
1.29402
1.28757
1.28081
1.27307
1.26382
0.0669804
0.0579589
0.0504495
0.0439142
0.0377148
0.0318816
0.0264559
0.0214344
0.0168152
0.012602
0.0087992
0.00541215
0.00244639
-9.24586e-05
-0.00219895
-0.00386809
-0.00509546
-0.00587739
-0.00621102
-0.00609438
-0.00552641
-0.00450695
-0.00303674
-0.00111743
0.0012485
0.00405774
0.00730619
0.0109891
0.0151009
0.0196355
0.0245864
0.0299464
0.035708
0.041863
0.0484032
0.05532
0.0626045
0.0702476
0.0782401
0.0865727
0.0952358
0.10422
0.113516
0.123113
0.133003
0.143177
0.153624
0.164335
0.175302
0.186516
0.197967
0.209647
0.221547
0.23366
0.245977
0.258491
0.271193
0.284076
0.297134
0.310358
0.323743
0.337282
0.350968
0.364795
0.378757
0.392849
0.407064
0.421398
0.435844
0.450399
0.465056
0.479811
0.49466
0.509597
0.524618
0.539719
0.554894
0.57014
0.585452
0.600826
0.616257
0.631741
0.647273
0.662849
0.678464
0.694113
0.709791
0.725493
0.741213
0.756947
0.772689
0.788431
0.804169
0.819896
0.835604
0.851287
0.866937
0.882546
0.898106
0.913608
0.929043
0.944402
0.959673
0.974847
0.989913
1.00486
1.01967
1.03434
1.04886
1.0632
1.07735
1.09131
1.10505
1.11857
1.13183
1.14484
1.15757
1.17
1.18212
1.1939
1.20534
1.21642
1.22711
1.2374
1.24727
1.25671
1.26569
1.27421
1.28224
1.28977
1.29678
1.30327
1.30921
1.31461
1.31945
1.32371
1.3274
1.33051
1.33303
1.33497
1.33632
1.33709
1.33727
1.33688
1.33593
1.33441
1.33235
1.32976
1.32664
1.32301
1.31888
1.31426
1.30918
1.30363
1.29762
1.29116
1.28428
1.27704
1.26873
1.25875
0.0712084
0.0615299
0.0534946
0.0465263
0.0399384
0.033762
0.0280394
0.0227642
0.0179313
0.0135411
0.00959507
0.00609505
0.00304347
0.000442914
-0.0017041
-0.00339534
-0.00462897
-0.00540374
-0.00571899
-0.00557479
-0.00497192
-0.00391185
-0.00239684
-0.00042984
0.00198549
0.00484479
0.0081431
0.0118748
0.0160339
0.0206136
0.0256069
0.0310063
0.0368039
0.0429915
0.0495606
0.0565025
0.0638082
0.0714686
0.0794745
0.0878166
0.0964855
0.105472
0.114766
0.124359
0.134241
0.144403
0.154835
0.165529
0.176476
0.187666
0.199092
0.210745
0.222615
0.234696
0.246979
0.259457
0.272122
0.284966
0.297983
0.311165
0.324507
0.338
0.35164
0.36542
0.379334
0.393376
0.407541
0.421823
0.436218
0.450719
0.465322
0.480022
0.494815
0.509695
0.524658
0.539701
0.554817
0.570003
0.585255
0.600568
0.615937
0.631359
0.646828
0.662341
0.677892
0.693477
0.70909
0.724727
0.740383
0.756052
0.771729
0.787407
0.80308
0.818743
0.834388
0.850008
0.865596
0.881144
0.896645
0.912089
0.927468
0.942772
0.957991
0.973115
0.988134
1.00304
1.01781
1.03244
1.04692
1.06123
1.07536
1.0893
1.10302
1.11653
1.12979
1.14279
1.15552
1.16796
1.1801
1.19191
1.20337
1.21448
1.22521
1.23555
1.24547
1.25497
1.26401
1.27259
1.2807
1.2883
1.2954
1.30196
1.308
1.31348
1.3184
1.32275
1.32652
1.3297
1.3323
1.3343
1.33571
1.33652
1.33674
1.33637
1.33542
1.33389
1.33179
1.32912
1.32591
1.32215
1.31787
1.31306
1.30773
1.30191
1.29557
1.28874
1.28144
1.27374
1.26487
1.2542
0.074916
0.0646049
0.0560602
0.0486693
0.0416997
0.0351838
0.0291651
0.0236347
0.0185849
0.0140132
0.00991832
0.00629924
0.00315556
0.000487093
-0.00170635
-0.00342508
-0.00466973
-0.00544129
-0.00574126
-0.00557164
-0.00493501
-0.00383449
-0.00227381
-0.000257264
0.00221028
0.00512341
0.00847622
0.0122623
0.0164749
0.0211066
0.02615
0.0315971
0.0374396
0.0436691
0.0502767
0.0572537
0.064591
0.0722793
0.0803095
0.0886722
0.097358
0.106358
0.115661
0.12526
0.135145
0.145307
0.155736
0.166423
0.17736
0.188538
0.199949
0.211584
0.223434
0.235493
0.247751
0.260202
0.272838
0.285652
0.298636
0.311785
0.32509
0.338547
0.352148
0.365887
0.379759
0.393759
0.407879
0.422116
0.436464
0.450917
0.465472
0.480122
0.494864
0.509693
0.524604
0.539592
0.554654
0.569786
0.584981
0.600238
0.61555
0.630914
0.646325
0.661778
0.67727
0.692795
0.708349
0.723926
0.739522
0.755131
0.770748
0.786367
0.801981
0.817586
0.833173
0.848737
0.86427
0.879765
0.895213
0.910607
0.925937
0.941195
0.956371
0.971455
0.986436
1.0013
1.01605
1.03065
1.04511
1.0594
1.07352
1.08744
1.10117
1.11467
1.12794
1.14095
1.1537
1.16617
1.17833
1.19018
1.20169
1.21285
1.22364
1.23403
1.24402
1.25359
1.26271
1.27138
1.27957
1.28726
1.29445
1.30111
1.30724
1.31282
1.31783
1.32227
1.32614
1.32941
1.33208
1.33415
1.33562
1.33648
1.33674
1.33639
1.33543
1.33388
1.33173
1.329
1.32569
1.3218
1.31735
1.31234
1.30678
1.30067
1.29401
1.28681
1.27911
1.27095
1.26154
1.25021
0.0780578
0.067137
0.0580991
0.0502966
0.0429532
0.0361028
0.0297907
0.0240058
0.0187381
0.0139828
0.00973597
0.00599428
0.00275469
1.45042e-05
-0.00222895
-0.00397837
-0.00523668
-0.00600703
-0.00629295
-0.00609834
-0.00542751
-0.00428522
-0.00267667
-0.000607507
0.00191618
0.0048879
0.00830077
0.0121475
0.0164206
0.0211121
0.0262138
0.0317173
0.0376139
0.0438949
0.0505512
0.0575737
0.0649531
0.0726803
0.0807457
0.0891401
0.097854
0.106878
0.116203
0.125819
0.135718
0.14589
0.156326
0.167018
0.177956
0.189132
0.200538
0.212165
0.224006
0.236051
0.248294
0.260728
0.273343
0.286135
0.299095
0.312218
0.325495
0.338922
0.352491
0.366197
0.380035
0.393997
0.40808
0.422278
0.436585
0.450996
0.465507
0.480113
0.494809
0.509591
0.524454
0.539394
0.554407
0.569487
0.584632
0.599836
0.615095
0.630406
0.645763
0.661162
0.676599
0.692069
0.707567
0.723089
0.73863
0.754184
0.769747
0.785311
0.800873
0.816425
0.831961
0.847475
0.862959
0.878406
0.89381
0.90916
0.92445
0.93967
0.954811
0.969862
0.984815
0.999658
1.01438
1.02897
1.04341
1.0577
1.07181
1.08574
1.09947
1.11299
1.12628
1.13932
1.1521
1.16461
1.17682
1.18872
1.20029
1.21151
1.22237
1.23284
1.24292
1.25257
1.26179
1.27055
1.27884
1.28664
1.29393
1.3007
1.30694
1.31263
1.31775
1.32229
1.32625
1.32962
1.33238
1.33453
1.33606
1.33697
1.33727
1.33694
1.33598
1.33441
1.33222
1.32941
1.326
1.32198
1.31736
1.31215
1.30635
1.29996
1.29299
1.28542
1.27732
1.26872
1.25879
1.24682
0.0805923
0.0690833
0.0595677
0.0513646
0.0436559
0.0364773
0.0298758
0.0238389
0.0183542
0.0134151
0.00901553
0.00514987
0.00181279
-0.00100073
-0.00329563
-0.00507687
-0.00634949
-0.00711873
-0.00739003
-0.00716913
-0.00646208
-0.00527522
-0.00361523
-0.00148912
0.00109581
0.00413195
0.00761139
0.011526
0.0158674
0.0206269
0.0257958
0.0313652
0.0373258
0.0436684
0.0503838
0.0574625
0.0648951
0.0726722
0.0807842
0.0892216
0.097975
0.107035
0.116392
0.126037
0.135961
0.146155
0.15661
0.167316
0.178266
0.189451
0.200862
0.212491
0.224331
0.236373
0.24861
0.261035
0.27364
0.286418
0.299362
0.312466
0.325723
0.339127
0.352672
0.366352
0.380161
0.394094
0.408145
0.422309
0.436581
0.450956
0.465429
0.479996
0.494652
0.509392
0.524212
0.539108
0.554075
0.56911
0.584207
0.599363
0.614574
0.629836
0.645143
0.660492
0.675878
0.691298
0.706746
0.722217
0.737708
0.753212
0.768724
0.78424
0.799753
0.815258
0.830749
0.846218
0.86166
0.877067
0.892432
0.907747
0.923003
0.938193
0.953307
0.968335
0.983268
0.998095
1.01281
1.02739
1.04183
1.05612
1.07024
1.08419
1.09794
1.11148
1.12481
1.13789
1.15072
1.16328
1.17555
1.18751
1.19916
1.21046
1.2214
1.23197
1.24214
1.2519
1.26122
1.2701
1.2785
1.28642
1.29384
1.30073
1.30709
1.3129
1.31814
1.3228
1.32687
1.33034
1.3332
1.33543
1.33704
1.33801
1.33834
1.33803
1.33708
1.33549
1.33326
1.33038
1.32687
1.32272
1.31793
1.31252
1.30648
1.29982
1.29253
1.28461
1.27611
1.26709
1.25666
1.24407
0.0824814
0.070404
0.0604254
0.0518326
0.0437674
0.0362675
0.0293819
0.0230965
0.0173974
0.0122762
0.00772491
0.0037359
0.000301752
-0.0025847
-0.0049305
-0.00674271
-0.00802841
-0.00879476
-0.00904911
-0.00879898
-0.00805209
-0.00681637
-0.00509997
-0.00291125
-0.000258759
0.00284875
0.00640235
0.010393
0.0148113
0.0196481
0.0248939
0.030539
0.0365739
0.042989
0.0497744
0.0569205
0.0644177
0.0722561
0.0804261