/*--------------------------------*- C++ -*----------------------------------*\
  =========                 |
  \\      /  F ield         | OpenFOAM: The Open Source CFD Toolbox
   \\    /   O peration     | Website:  https://openfoam.org
    \\  /    A nd           | Version:  7
     \\/     M anipulation  |
\*---------------------------------------------------------------------------*/
FoamFile
{
    version     2.0;
    format      ascii;
    class       surfaceScalarField;
    location    "0.375";
    object      phi;
}
// * * * * * * * * * * * * * * * * * * * * * * * * * * * * * * * * * * * * * //

dimensions      [0 3 -1 0 0 0 0];

internalField   nonuniform List<scalar> 
25360
(
1.14251e-10
-1.14384e-10
3.59539e-10
-2.45296e-10
6.04185e-10
-2.44629e-10
7.65065e-10
-1.60865e-10
7.98046e-10
-3.29828e-11
6.81328e-10
1.16704e-10
4.06291e-10
2.75027e-10
-2.77338e-11
4.34025e-10
-6.16618e-10
5.88891e-10
-1.35334e-09
7.3673e-10
-2.22915e-09
8.75803e-10
-3.23425e-09
1.0051e-09
-4.35835e-09
1.1241e-09
-5.59093e-09
1.23258e-09
-6.92146e-09
1.33054e-09
-8.33958e-09
1.41812e-09
-9.83519e-09
1.4956e-09
-1.13985e-08
1.56331e-09
-1.30201e-08
1.62163e-09
-1.46911e-08
1.67099e-09
-1.64029e-08
1.71183e-09
-1.81476e-08
1.74463e-09
-1.99174e-08
1.76985e-09
-2.17054e-08
1.78797e-09
-2.35049e-08
1.79947e-09
-2.53097e-08
1.80482e-09
-2.71141e-08
1.80446e-09
-2.8913e-08
1.79886e-09
-3.07015e-08
1.78846e-09
-3.24751e-08
1.77367e-09
-3.423e-08
1.7549e-09
-3.59626e-08
1.73254e-09
-3.76696e-08
1.70698e-09
-3.93481e-08
1.67856e-09
-4.09957e-08
1.64762e-09
-4.26102e-08
1.61448e-09
-4.41897e-08
1.57945e-09
-4.57325e-08
1.54281e-09
-4.72373e-08
1.50482e-09
-4.8703e-08
1.46573e-09
-5.01288e-08
1.42577e-09
-5.1514e-08
1.38516e-09
-5.2858e-08
1.34408e-09
-5.41608e-08
1.30271e-09
-5.5422e-08
1.26122e-09
-5.66417e-08
1.21976e-09
-5.78202e-08
1.17846e-09
-5.89576e-08
1.13744e-09
-6.00544e-08
1.0968e-09
-6.11111e-08
1.05664e-09
-6.21281e-08
1.01704e-09
-6.31062e-08
9.78061e-10
-6.4046e-08
9.39772e-10
-6.49482e-08
9.02215e-10
-6.58136e-08
8.65429e-10
-6.6643e-08
8.29444e-10
-6.74373e-08
7.94283e-10
-6.81973e-08
7.59957e-10
-6.89238e-08
7.26469e-10
-6.96176e-08
6.93817e-10
-7.02796e-08
6.61994e-10
-7.09106e-08
6.30985e-10
-7.15113e-08
6.00771e-10
-7.20826e-08
5.71324e-10
-7.26253e-08
5.42612e-10
-7.31399e-08
5.146e-10
-7.36271e-08
4.8725e-10
-7.40876e-08
4.60519e-10
-7.4522e-08
4.34358e-10
-7.49307e-08
4.08715e-10
-7.53142e-08
3.83538e-10
-7.5673e-08
3.58772e-10
-7.60074e-08
3.34357e-10
-7.63176e-08
3.1023e-10
-7.66039e-08
2.86326e-10
-7.68665e-08
2.62581e-10
-7.71054e-08
2.38931e-10
-7.73208e-08
2.15305e-10
-7.75124e-08
1.91631e-10
-7.76802e-08
1.67834e-10
-7.7824e-08
1.43839e-10
-7.79436e-08
1.19578e-10
-7.80386e-08
9.49767e-11
-7.81086e-08
6.99635e-11
-7.8153e-08
4.44621e-11
-7.81714e-08
1.83964e-11
-7.81631e-08
-8.30772e-12
-7.81274e-08
-3.57224e-11
-7.80635e-08
-6.39182e-11
-7.79705e-08
-9.29658e-11
-7.78476e-08
-1.22935e-10
-7.76937e-08
-1.53895e-10
-7.75078e-08
-1.85909e-10
-7.72887e-08
-2.19037e-10
-7.70354e-08
-2.53337e-10
-7.67465e-08
-2.8886e-10
-7.64209e-08
-3.25656e-10
-7.60571e-08
-3.63769e-10
-7.56539e-08
-4.03238e-10
-7.52098e-08
-4.44095e-10
-7.47234e-08
-4.86364e-10
-7.41934e-08
-5.30061e-10
-7.36182e-08
-5.75195e-10
-7.29964e-08
-6.21764e-10
-7.23266e-08
-6.69755e-10
-7.16075e-08
-7.19147e-10
-7.08376e-08
-7.69904e-10
-7.00156e-08
-8.2198e-10
-6.91403e-08
-8.75315e-10
-6.82105e-08
-9.29832e-10
-6.7225e-08
-9.85442e-10
-6.6183e-08
-1.04204e-09
-6.50835e-08
-1.09949e-09
-6.39258e-08
-1.15766e-09
-6.27094e-08
-1.21639e-09
-6.14339e-08
-1.27551e-09
-6.00991e-08
-1.3348e-09
-5.87051e-08
-1.39405e-09
-5.7252e-08
-1.45303e-09
-5.57406e-08
-1.51145e-09
-5.41715e-08
-1.56906e-09
-5.2546e-08
-1.62553e-09
-5.08654e-08
-1.68055e-09
-4.91317e-08
-1.73377e-09
-4.73468e-08
-1.78482e-09
-4.55135e-08
-1.83331e-09
-4.36347e-08
-1.87883e-09
-4.17138e-08
-1.92096e-09
-3.97545e-08
-1.95926e-09
-3.77612e-08
-1.99326e-09
-3.57388e-08
-2.02249e-09
-3.36923e-08
-2.04647e-09
-3.16276e-08
-2.06469e-09
-2.95509e-08
-2.07666e-09
-2.74691e-08
-2.08186e-09
-2.53893e-08
-2.07977e-09
-2.33194e-08
-2.06988e-09
-2.12677e-08
-2.05168e-09
-1.92431e-08
-2.02467e-09
-1.72547e-08
-1.98833e-09
-1.53125e-08
-1.9422e-09
-1.34267e-08
-1.88582e-09
-1.1608e-08
-1.81875e-09
-9.86738e-09
-1.7406e-09
-8.21636e-09
-1.65102e-09
-6.66663e-09
-1.54973e-09
-5.23011e-09
-1.43652e-09
-3.91878e-09
-1.31133e-09
-2.74455e-09
-1.17422e-09
-1.71905e-09
-1.02551e-09
-8.53238e-10
-8.65816e-10
-1.56947e-10
-6.96292e-10
3.61907e-10
-5.18851e-10
6.98571e-10
-3.36659e-10
8.53538e-10
-1.54963e-10
8.36039e-10
1.74907e-11
6.69888e-10
1.6613e-10
4.03846e-10
2.66033e-10
1.30737e-10
2.73143e-10
1.3079e-10
2.4541e-10
-3.59811e-10
6.34e-10
-6.33865e-10
9.5004e-10
-5.60682e-10
1.04682e-09
-2.57662e-10
8.28492e-10
1.85335e-10
2.3857e-10
7.06623e-10
-7.51315e-10
1.26491e-09
-2.15019e-09
1.8329e-09
-3.95394e-09
2.39264e-09
-6.14957e-09
2.93237e-09
-8.71823e-09
3.44446e-09
-1.16372e-08
3.92408e-09
-1.48814e-08
4.36831e-09
-1.84244e-08
4.77557e-09
-2.22391e-08
5.14525e-09
-2.62984e-08
5.4774e-09
-3.05754e-08
5.77258e-09
-3.50438e-08
6.03171e-09
-3.96781e-08
6.25597e-09
-4.44539e-08
6.44674e-09
-4.93476e-08
6.60554e-09
-5.43369e-08
6.73397e-09
-5.94008e-08
6.8337e-09
-6.45192e-08
6.90643e-09
-6.96736e-08
6.95388e-09
-7.48466e-08
6.97776e-09
-8.00219e-08
6.97977e-09
-8.51846e-08
6.96157e-09
-9.03209e-08
6.9248e-09
-9.54183e-08
6.87104e-09
-1.00465e-07
6.80182e-09
-1.05451e-07
6.71863e-09
-1.10367e-07
6.62289e-09
-1.15205e-07
6.51594e-09
-1.19956e-07
6.39908e-09
-1.24615e-07
6.27353e-09
-1.29176e-07
6.14045e-09
-1.33634e-07
6.00093e-09
-1.37985e-07
5.85598e-09
-1.42226e-07
5.70656e-09
-1.46354e-07
5.55356e-09
-1.50367e-07
5.3978e-09
-1.54263e-07
5.24004e-09
-1.58041e-07
5.08097e-09
-1.61701e-07
4.92123e-09
-1.65243e-07
4.7614e-09
-1.68666e-07
4.602e-09
-1.71972e-07
4.4435e-09
-1.75162e-07
4.28631e-09
-1.78236e-07
4.1308e-09
-1.81196e-07
3.97729e-09
-1.84044e-07
3.82606e-09
-1.86782e-07
3.67735e-09
-1.89411e-07
3.53134e-09
-1.91934e-07
3.38819e-09
-1.94352e-07
3.24802e-09
-1.96669e-07
3.11092e-09
-1.98886e-07
2.97695e-09
-2.01005e-07
2.84613e-09
-2.0303e-07
2.71845e-09
-2.04962e-07
2.5939e-09
-2.06803e-07
2.47241e-09
-2.08557e-07
2.35392e-09
-2.10224e-07
2.23834e-09
-2.11806e-07
2.12554e-09
-2.13307e-07
2.01539e-09
-2.14728e-07
1.90775e-09
-2.1607e-07
1.80245e-09
-2.17335e-07
1.69931e-09
-2.18524e-07
1.59814e-09
-2.19639e-07
1.49874e-09
-2.20681e-07
1.40088e-09
-2.21651e-07
1.30435e-09
-2.2255e-07
1.20891e-09
-2.23378e-07
1.11432e-09
-2.24136e-07
1.02031e-09
-2.24823e-07
9.26642e-10
-2.25441e-07
8.33041e-10
-2.25989e-07
7.39239e-10
-2.26466e-07
6.44962e-10
-2.26872e-07
5.49932e-10
-2.27206e-07
4.53866e-10
-2.27468e-07
3.56482e-10
-2.27655e-07
2.57497e-10
-2.27768e-07
1.56629e-10
-2.27803e-07
5.35937e-11
-2.27759e-07
-5.18881e-11
-2.27635e-07
-1.60095e-10
-2.27427e-07
-2.71302e-10
-2.27135e-07
-3.85776e-10
-2.26754e-07
-5.03778e-10
-2.26282e-07
-6.25558e-10
-2.25717e-07
-7.51357e-10
-2.25054e-07
-8.81403e-10
-2.24292e-07
-1.01591e-09
-2.23425e-07
-1.15508e-09
-2.22452e-07
-1.29909e-09
-2.21368e-07
-1.4481e-09
-2.20169e-07
-1.60226e-09
-2.18851e-07
-1.76167e-09
-2.17411e-07
-1.92641e-09
-2.15845e-07
-2.09654e-09
-2.14148e-07
-2.27209e-09
-2.12316e-07
-2.45303e-09
-2.10347e-07
-2.6393e-09
-2.08235e-07
-2.83082e-09
-2.05978e-07
-3.02744e-09
-2.03571e-07
-3.22895e-09
-2.01011e-07
-3.43513e-09
-1.98295e-07
-3.64566e-09
-1.9542e-07
-3.86018e-09
-1.92384e-07
-4.07828e-09
-1.89184e-07
-4.29947e-09
-1.85819e-07
-4.52319e-09
-1.82286e-07
-4.74881e-09
-1.78586e-07
-4.97565e-09
-1.74718e-07
-5.20292e-09
-1.70682e-07
-5.42977e-09
-1.6648e-07
-5.65528e-09
-1.62113e-07
-5.87844e-09
-1.57584e-07
-6.09816e-09
-1.52896e-07
-6.31327e-09
-1.48054e-07
-6.52252e-09
-1.43063e-07
-6.72458e-09
-1.3793e-07
-6.91806e-09
-1.32662e-07
-7.10147e-09
-1.27267e-07
-7.27326e-09
-1.21757e-07
-7.43182e-09
-1.1614e-07
-7.57547e-09
-1.10431e-07
-7.70247e-09
-1.04643e-07
-7.81103e-09
-9.87898e-08
-7.89933e-09
-9.2889e-08
-7.96551e-09
-8.6958e-08
-8.00767e-09
-8.10159e-08
-8.02391e-09
-7.50834e-08
-8.01233e-09
-6.91822e-08
-7.97103e-09
-6.33357e-08
-7.89814e-09
-5.75686e-08
-7.79183e-09
-5.19066e-08
-7.65033e-09
-4.63768e-08
-7.47194e-09
-4.10076e-08
-7.25509e-09
-3.5828e-08
-6.99834e-09
-3.08682e-08
-6.70043e-09
-2.61588e-08
-6.36035e-09
-2.17312e-08
-5.97739e-09
-1.76164e-08
-5.55124e-09
-1.38456e-08
-5.08215e-09
-1.04488e-08
-4.57109e-09
-7.45423e-09
-4.02004e-09
-4.88762e-09
-3.43242e-09
-2.7702e-09
-2.81371e-09
-1.11667e-09
-2.17238e-09
6.80547e-11
-1.52139e-09
7.93602e-10
-8.80526e-10
1.09104e-09
-2.79955e-10
1.02278e-09
2.34398e-10
6.9536e-10
5.93419e-10
2.73102e-10
6.95338e-10
4.0392e-10
2.45821e-10
-6.05617e-10
5.63529e-10
-9.51564e-10
6.97918e-10
-6.95083e-10
4.74994e-10
-3.47533e-11
-2.24941e-10
8.85256e-10
-1.47777e-09
1.95945e-09
-3.32537e-09
3.11253e-09
-5.78431e-09
4.29185e-09
-8.85259e-09
5.46092e-09
-1.25149e-08
6.59466e-09
-1.67464e-08
7.67599e-09
-2.15159e-08
8.69354e-09
-2.67876e-08
9.64003e-09
-3.25231e-08
1.05111e-08
-3.86825e-08
1.13046e-08
-4.52251e-08
1.202e-08
-5.21103e-08
1.26577e-08
-5.92979e-08
1.32193e-08
-6.67489e-08
1.3707e-08
-7.44253e-08
1.41232e-08
-8.22907e-08
1.44709e-08
-9.03101e-08
1.47534e-08
-9.84505e-08
1.49741e-08
-1.06681e-07
1.51364e-08
-1.14971e-07
1.5244e-08
-1.23293e-07
1.53004e-08
-1.31623e-07
1.53092e-08
-1.39935e-07
1.52739e-08
-1.48208e-07
1.51981e-08
-1.56422e-07
1.5085e-08
-1.64558e-07
1.4938e-08
-1.726e-07
1.47602e-08
-1.80532e-07
1.45548e-08
-1.8834e-07
1.43246e-08
-1.96014e-07
1.40724e-08
-2.03541e-07
1.38009e-08
-2.10913e-07
1.35127e-08
-2.18123e-07
1.321e-08
-2.25162e-07
1.28951e-08
-2.32025e-07
1.25701e-08
-2.38709e-07
1.2237e-08
-2.45208e-07
1.18975e-08
-2.51522e-07
1.15533e-08
-2.57646e-07
1.12059e-08
-2.63582e-07
1.08567e-08
-2.69328e-07
1.0507e-08
-2.74884e-07
1.0158e-08
-2.80251e-07
9.81073e-09
-2.85431e-07
9.46604e-09
-2.90425e-07
9.12479e-09
-2.95235e-07
8.78769e-09
-2.99864e-07
8.45536e-09
-3.04315e-07
8.12831e-09
-3.08591e-07
7.80699e-09
-3.12694e-07
7.49176e-09
-3.16629e-07
7.18287e-09
-3.20399e-07
6.88054e-09
-3.24007e-07
6.58491e-09
-3.27457e-07
6.29602e-09
-3.30752e-07
6.0139e-09
-3.33897e-07
5.73849e-09
-3.36894e-07
5.46969e-09
-3.39748e-07
5.20735e-09
-3.4246e-07
4.95125e-09
-3.45036e-07
4.70117e-09
-3.47478e-07
4.45682e-09
-3.49788e-07
4.21788e-09
-3.51969e-07
3.98399e-09
-3.54025e-07
3.75477e-09
-3.55956e-07
3.5298e-09
-3.57766e-07
3.30864e-09
-3.59456e-07
3.09082e-09
-3.61028e-07
2.87586e-09
-3.62482e-07
2.66324e-09
-3.6382e-07
2.45243e-09
-3.65043e-07
2.24288e-09
-3.6615e-07
2.03404e-09
-3.67142e-07
1.82533e-09
-3.68019e-07
1.61616e-09
-3.6878e-07
1.40593e-09
-3.69424e-07
1.19404e-09
-3.6995e-07
9.79888e-10
-3.70357e-07
7.62849e-10
-3.70642e-07
5.4231e-10
-3.70803e-07
3.17657e-10
-3.70837e-07
8.82754e-11
-3.70743e-07
-1.46442e-10
-3.70516e-07
-3.87094e-10
-3.70153e-07
-6.3427e-10
-3.6965e-07
-8.88546e-10
-3.69003e-07
-1.15048e-09
-3.68208e-07
-1.42062e-09
-3.6726e-07
-1.69949e-09
-3.66154e-07
-1.98756e-09
-3.64885e-07
-2.2853e-09
-3.63446e-07
-2.59313e-09
-3.61834e-07
-2.91144e-09
-3.60042e-07
-3.24055e-09
-3.58063e-07
-3.58077e-09
-3.55893e-07
-3.93231e-09
-3.53524e-07
-4.29536e-09
-3.5095e-07
-4.67e-09
-3.48166e-07
-5.05627e-09
-3.45165e-07
-5.45412e-09
-3.41941e-07
-5.86341e-09
-3.38488e-07
-6.2839e-09
-3.348e-07
-6.71527e-09
-3.30872e-07
-7.15708e-09
-3.26698e-07
-7.60877e-09
-3.22274e-07
-8.06967e-09
-3.17595e-07
-8.53897e-09
-3.12658e-07
-9.01575e-09
-3.07458e-07
-9.49892e-09
-3.01994e-07
-9.98725e-09
-2.96264e-07
-1.04794e-08
-2.90266e-07
-1.09738e-08
-2.84e-07
-1.14687e-08
-2.77467e-07
-1.19624e-08
-2.7067e-07
-1.24527e-08
-2.63611e-07
-1.29375e-08
-2.56295e-07
-1.34144e-08
-2.48727e-07
-1.38808e-08
-2.40915e-07
-1.43341e-08
-2.32869e-07
-1.47713e-08
-2.24597e-07
-1.51895e-08
-2.16113e-07
-1.55853e-08
-2.07431e-07
-1.59556e-08
-1.98566e-07
-1.62966e-08
-1.89537e-07
-1.6605e-08
-1.80362e-07
-1.68769e-08
-1.71065e-07
-1.71084e-08
-1.61669e-07
-1.72957e-08
-1.52199e-07
-1.74348e-08
-1.42685e-07
-1.75216e-08
-1.33157e-07
-1.75522e-08
-1.23647e-07
-1.75224e-08
-1.1419e-07
-1.74283e-08
-1.04822e-07
-1.7266e-08
-9.55822e-08
-1.70316e-08
-8.6511e-08
-1.67215e-08
-7.76506e-08
-1.63324e-08
-6.90447e-08
-1.5861e-08
-6.07385e-08
-1.53045e-08
-5.27782e-08
-1.46607e-08
-4.52108e-08
-1.39278e-08
-3.80834e-08
-1.31048e-08
-3.14429e-08
-1.21917e-08
-2.53352e-08
-1.11899e-08
-1.98039e-08
-1.01023e-08
-1.48897e-08
-8.93428e-09
-1.06278e-08
-7.69431e-09
-7.04623e-09
-6.39527e-09
-4.1624e-09
-5.05621e-09
-1.97883e-09
-3.70495e-09
-4.77499e-10
-2.38186e-09
3.87816e-10
-1.14527e-09
7.01274e-10
-7.9055e-11
5.96139e-10
6.98559e-10
2.66914e-10
1.02454e-09
6.70825e-10
1.6379e-10
-7.69402e-10
2.6483e-10
-1.05261e-09
4.43756e-11
-4.74637e-10
-6.77956e-10
6.87567e-10
-2.02893e-09
2.23622e-09
-4.09177e-09
4.0223e-09
-6.91459e-09
5.93536e-09
-1.05179e-08
7.89518e-09
-1.4901e-08
9.84404e-09
-2.00471e-08
1.17408e-08
-2.59275e-08
1.35563e-08
-3.25047e-08
1.52707e-08
-3.97352e-08
1.68706e-08
-4.75715e-08
1.83474e-08
-5.59634e-08
1.96966e-08
-6.48595e-08
2.0916e-08
-7.42078e-08
2.2006e-08
-8.39568e-08
2.29683e-08
-9.40557e-08
2.38059e-08
-1.04455e-07
2.45227e-08
-1.15108e-07
2.51233e-08
-1.25967e-07
2.56129e-08
-1.3699e-07
2.5997e-08
-1.48135e-07
2.62812e-08
-1.59362e-07
2.64715e-08
-1.70636e-07
2.65739e-08
-1.81921e-07
2.65943e-08
-1.93186e-07
2.65386e-08
-2.04401e-07
2.64128e-08
-2.15538e-07
2.62226e-08
-2.26574e-07
2.59735e-08
-2.37485e-07
2.5671e-08
-2.4825e-07
2.53203e-08
-2.58852e-07
2.49264e-08
-2.69274e-07
2.44941e-08
-2.79501e-07
2.4028e-08
-2.8952e-07
2.35323e-08
-2.99321e-07
2.30113e-08
-3.08895e-07
2.24686e-08
-3.18233e-07
2.1908e-08
-3.27329e-07
2.13328e-08
-3.36177e-07
2.07462e-08
-3.44775e-07
2.01509e-08
-3.53119e-07
1.95497e-08
-3.61207e-07
1.89449e-08
-3.69039e-07
1.8339e-08
-3.76615e-07
1.77337e-08
-3.83935e-07
1.7131e-08
-3.91002e-07
1.65325e-08
-3.97816e-07
1.59396e-08
-4.04382e-07
1.53536e-08
-4.10702e-07
1.47755e-08
-4.1678e-07
1.42062e-08
-4.2262e-07
1.36466e-08
-4.28225e-07
1.30973e-08
-4.33601e-07
1.25587e-08
-4.38752e-07
1.20313e-08
-4.43682e-07
1.15152e-08
-4.48397e-07
1.10107e-08
-4.52901e-07
1.05177e-08
-4.57198e-07
1.00361e-08
-4.61294e-07
9.56581e-09
-4.65194e-07
9.10656e-09
-4.689e-07
8.65801e-09
-4.72419e-07
8.21975e-09
-4.75753e-07
7.7913e-09
-4.78908e-07
7.37211e-09
-4.81885e-07
6.96158e-09
-4.8469e-07
6.55904e-09
-4.87323e-07
6.16379e-09
-4.8979e-07
5.77507e-09
-4.92091e-07
5.39206e-09
-4.94229e-07
5.01394e-09
-4.96206e-07
4.63981e-09
-4.98022e-07
4.26877e-09
-4.99679e-07
3.89989e-09
-5.01177e-07
3.53218e-09
-5.02517e-07
3.16466e-09
-5.03697e-07
2.79632e-09
-5.04717e-07
2.42613e-09
-5.05576e-07
2.05306e-09
-5.06272e-07
1.67604e-09
-5.06803e-07
1.29404e-09
-5.07167e-07
9.0598e-10
-5.0736e-07
5.10817e-10
-5.07379e-07
1.07495e-10
-5.07221e-07
-3.05032e-10
-5.0688e-07
-7.27792e-10
-5.06353e-07
-1.1618e-09
-5.05633e-07
-1.60803e-09
-5.04716e-07
-2.06745e-09
-5.03596e-07
-2.54098e-09
-5.02266e-07
-3.0295e-09
-5.00719e-07
-3.53384e-09
-4.9895e-07
-4.05478e-09
-4.9695e-07
-4.59303e-09
-4.94712e-07
-5.14925e-09
-4.92229e-07
-5.72398e-09
-4.89492e-07
-6.31772e-09
-4.86493e-07
-6.93083e-09
-4.83225e-07
-7.56359e-09
-4.79679e-07
-8.21616e-09
-4.75847e-07
-8.88856e-09
-4.7172e-07
-9.58068e-09
-4.67291e-07
-1.02923e-08
-4.62552e-07
-1.10229e-08
-4.57496e-07
-1.17719e-08
-4.52114e-07
-1.25386e-08
-4.46401e-07
-1.33219e-08
-4.4035e-07
-1.41208e-08
-4.33955e-07
-1.49337e-08
-4.27212e-07
-1.57591e-08
-4.20116e-07
-1.6595e-08
-4.12664e-07
-1.74393e-08
-4.04853e-07
-1.82897e-08
-3.96684e-07
-1.91434e-08
-3.88155e-07
-1.99976e-08
-3.79268e-07
-2.08489e-08
-3.70027e-07
-2.1694e-08
-3.60436e-07
-2.25289e-08
-3.505e-07
-2.33497e-08
-3.40229e-07
-2.41518e-08
-3.29633e-07
-2.49307e-08
-3.18722e-07
-2.56814e-08
-3.07513e-07
-2.63987e-08
-2.96022e-07
-2.7077e-08
-2.84267e-07
-2.77106e-08
-2.7227e-07
-2.82937e-08
-2.60055e-07
-2.88199e-08
-2.47649e-07
-2.92829e-08
-2.35081e-07
-2.96762e-08
-2.22384e-07
-2.99931e-08
-2.09591e-07
-3.02268e-08
-1.96742e-07
-3.03706e-08
-1.83877e-07
-3.04177e-08
-1.71038e-07
-3.03612e-08
-1.58272e-07
-3.01945e-08
-1.45627e-07
-2.9911e-08
-1.33154e-07
-2.95046e-08
-1.20906e-07
-2.89691e-08
-1.0894e-07
-2.82992e-08
-9.73108e-08
-2.74898e-08
-8.60787e-08
-2.65366e-08
-7.53033e-08
-2.54362e-08
-6.50448e-08
-2.41862e-08
-5.53638e-08
-2.27859e-08
-4.63195e-08
-2.1236e-08
-3.79697e-08
-1.95397e-08
-3.03686e-08
-1.77035e-08
-2.35655e-08
-1.57373e-08
-1.76029e-08
-1.36569e-08
-1.25131e-08
-1.1485e-08
-8.31532e-09
-9.25404e-09
-5.01048e-09
-7.00981e-09
-2.57603e-09
-4.81633e-09
-9.5866e-10
-2.76265e-09
-6.59537e-11
-9.71741e-10
2.43007e-10
3.89597e-10
1.69028e-10
1.09852e-09
8.39833e-10
3.77753e-11
-8.07185e-10
-1.74114e-10
-8.40741e-10
-8.70475e-10
2.21717e-10
-2.2214e-09
2.03849e-09
-4.34867e-09
4.36351e-09
-7.33385e-09
7.00748e-09
-1.12249e-08
9.8264e-09
-1.60423e-08
1.27126e-08
-2.17847e-08
1.55864e-08
-2.84332e-08
1.83892e-08
-3.59556e-08
2.10787e-08
-4.43096e-08
2.36248e-08
-5.34457e-08
2.60067e-08
-6.3309e-08
2.82107e-08
-7.38411e-08
3.02287e-08
-8.49818e-08
3.20568e-08
-9.667e-08
3.36942e-08
-1.08844e-07
3.51427e-08
-1.21445e-07
3.64061e-08
-1.34411e-07
3.74895e-08
-1.47687e-07
3.83994e-08
-1.61218e-07
3.9143e-08
-1.74948e-07
3.9728e-08
-1.8883e-07
4.01628e-08
-2.02814e-07
4.04559e-08
-2.16857e-07
4.06161e-08
-2.30915e-07
4.06523e-08
-2.44949e-07
4.05732e-08
-2.58924e-07
4.03874e-08
-2.72805e-07
4.01037e-08
-2.86562e-07
3.97303e-08
-3.00166e-07
3.92754e-08
-3.13593e-07
3.87468e-08
-3.26818e-07
3.8152e-08
-3.39822e-07
3.74984e-08
-3.52587e-07
3.67927e-08
-3.65096e-07
3.60416e-08
-3.77336e-07
3.52512e-08
-3.89295e-07
3.44274e-08
-4.00963e-07
3.35756e-08
-4.12331e-07
3.2701e-08
-4.23393e-07
3.18083e-08
-4.34144e-07
3.0902e-08
-4.44581e-07
2.99861e-08
-4.547e-07
2.90643e-08
-4.64501e-07
2.814e-08
-4.73984e-07
2.72163e-08
-4.83149e-07
2.62961e-08
-4.91998e-07
2.53817e-08
-5.00533e-07
2.44754e-08
-5.08759e-07
2.35791e-08
-5.16678e-07
2.26945e-08
-5.24295e-07
2.18231e-08
-5.31614e-07
2.0966e-08
-5.38641e-07
2.01241e-08
-5.45381e-07
1.92984e-08
-5.51839e-07
1.84893e-08
-5.58021e-07
1.76973e-08
-5.63933e-07
1.69226e-08
-5.6958e-07
1.61651e-08
-5.74969e-07
1.54249e-08
-5.80105e-07
1.47017e-08
-5.84994e-07
1.39952e-08
-5.8964e-07
1.33047e-08
-5.9405e-07
1.26297e-08
-5.98229e-07
1.19696e-08
-6.0218e-07
1.13234e-08
-6.05909e-07
1.06903e-08
-6.09419e-07
1.00692e-08
-6.12714e-07
9.45914e-09
-6.15798e-07
8.85891e-09
-6.18673e-07
8.26732e-09
-6.21342e-07
7.68307e-09
-6.23807e-07
7.10485e-09
-6.2607e-07
6.53127e-09
-6.28131e-07
5.96091e-09
-6.29991e-07
5.39229e-09
-6.3165e-07
4.82393e-09
-6.33108e-07
4.25428e-09
-6.34364e-07
3.6818e-09
-6.35416e-07
3.10491e-09
-6.36262e-07
2.52201e-09
-6.36899e-07
1.93152e-09
-6.37325e-07
1.33184e-09
-6.37536e-07
7.21353e-10
-6.37527e-07
9.84803e-11
-6.37293e-07
-5.38357e-10
-6.3683e-07
-1.19071e-09
-6.36132e-07
-1.86011e-09
-6.35192e-07
-2.54804e-09
-6.34004e-07
-3.25593e-09
-6.32559e-07
-3.98517e-09
-6.30852e-07
-4.73708e-09
-6.28873e-07
-5.51292e-09
-6.26614e-07
-6.31384e-09
-6.24066e-07
-7.1409e-09
-6.2122e-07
-7.99507e-09
-6.18067e-07
-8.87718e-09
-6.14597e-07
-9.78792e-09
-6.108e-07
-1.07278e-08
-6.06666e-07
-1.16973e-08
-6.02185e-07
-1.26966e-08
-5.97348e-07
-1.37257e-08
-5.92145e-07
-1.47843e-08
-5.86565e-07
-1.58722e-08
-5.80599e-07
-1.69884e-08
-5.74239e-07
-1.81323e-08
-5.67475e-07
-1.93024e-08
-5.60299e-07
-2.04974e-08
-5.52705e-07
-2.17153e-08
-5.44684e-07
-2.29541e-08
-5.36232e-07
-2.42111e-08
-5.27344e-07
-2.54836e-08
-5.18015e-07
-2.67681e-08
-5.08243e-07
-2.80612e-08
-4.98028e-07
-2.93587e-08
-4.8737e-07
-3.06561e-08
-4.7627e-07
-3.19486e-08
-4.64733e-07
-3.32308e-08
-4.52765e-07
-3.44969e-08
-4.40374e-07
-3.57408e-08
-4.2757e-07
-3.69557e-08
-4.14366e-07
-3.81347e-08
-4.00777e-07
-3.92702e-08
-3.86822e-07
-4.03543e-08
-3.7252e-07
-4.13788e-08
-3.57896e-07
-4.2335e-08
-3.42976e-07
-4.32138e-08
-3.27789e-07
-4.40061e-08
-3.1237e-07
-4.47023e-08
-2.96754e-07
-4.52925e-08
-2.8098e-07
-4.57668e-08
-2.65092e-07
-4.61151e-08
-2.49135e-07
-4.63272e-08
-2.3316e-07
-4.63931e-08
-2.17218e-07
-4.63027e-08
-2.01366e-07
-4.60462e-08
-1.85663e-07
-4.56139e-08
-1.70171e-07
-4.49969e-08
-1.54954e-07
-4.41864e-08
-1.40078e-07
-4.31747e-08
-1.25614e-07
-4.19546e-08
-1.1163e-07
-4.05204e-08
-9.81982e-08
-3.88677e-08
-8.53907e-08
-3.69937e-08
-7.32784e-08
-3.48981e-08
-6.19311e-08
-3.25833e-08
-5.14157e-08
-3.00552e-08
-4.17949e-08
-2.73243e-08
-3.31251e-08
-2.44071e-08
-2.54542e-08
-2.13278e-08
-1.88185e-08
-1.81207e-08
-1.32393e-08
-1.48333e-08
-8.71832e-09
-1.15308e-08
-5.2328e-09
-8.30185e-09
-2.7295e-09
-5.26596e-09
-1.11793e-09
-2.58332e-09
-2.63076e-10
-4.65265e-10
2.32842e-11
8.12166e-10
8.63106e-10
-1.10586e-10
-6.96604e-10
-6.93983e-10
-2.5736e-10
-1.94603e-09
1.47376e-09
-4.01456e-09
4.10703e-09
-7.0074e-09
7.35635e-09
-1.09973e-08
1.09974e-08
-1.60268e-08
1.48558e-08
-2.21124e-08
1.87983e-08
-2.92497e-08
2.27237e-08
-3.74165e-08
2.6556e-08
-4.65767e-08
3.0239e-08
-5.66836e-08
3.37317e-08
-6.76822e-08
3.70053e-08
-7.95116e-08
4.004e-08
-9.21066e-08
4.28237e-08
-1.054e-07
4.53498e-08
-1.19322e-07
4.76163e-08
-1.33804e-07
4.96246e-08
-1.48777e-07
5.13791e-08
-1.64173e-07
5.28861e-08
-1.79928e-07
5.41538e-08
-1.95976e-07
5.51916e-08
-2.12258e-07
5.60099e-08
-2.28715e-07
5.66196e-08
-2.45291e-07
5.70324e-08
-2.61935e-07
5.72601e-08
-2.78598e-07
5.73147e-08
-2.95233e-07
5.72083e-08
-3.11798e-07
5.69527e-08
-3.28254e-07
5.65597e-08
-3.44565e-07
5.60409e-08
-3.60697e-07
5.54076e-08
-3.76621e-07
5.46705e-08
-3.92309e-07
5.38402e-08
-4.07737e-07
5.29268e-08
-4.22884e-07
5.19398e-08
-4.37731e-07
5.08884e-08
-4.52261e-07
4.97813e-08
-4.6646e-07
4.86266e-08
-4.80317e-07
4.74319e-08
-4.9382e-07
4.62045e-08
-5.06963e-07
4.49511e-08
-5.19739e-07
4.36778e-08
-5.32143e-07
4.23904e-08
-5.44173e-07
4.1094e-08
-5.55827e-07
3.97936e-08
-5.67104e-07
3.84934e-08
-5.78005e-07
3.71974e-08
-5.88533e-07
3.59091e-08
-5.98689e-07
3.46316e-08
-6.08477e-07
3.33677e-08
-6.17903e-07
3.21197e-08
-6.26969e-07
3.08897e-08
-6.35683e-07
2.96794e-08
-6.44049e-07
2.84902e-08
-6.52073e-07
2.73232e-08
-6.59763e-07
2.61792e-08
-6.67125e-07
2.50588e-08
-6.74165e-07
2.39624e-08
-6.8089e-07
2.28901e-08
-6.87306e-07
2.18416e-08
-6.93421e-07
2.08168e-08
-6.99241e-07
1.98151e-08
-7.04772e-07
1.88358e-08
-7.10021e-07
1.78781e-08
-7.14992e-07
1.6941e-08
-7.19692e-07
1.60234e-08
-7.24126e-07
1.51239e-08
-7.28298e-07
1.42413e-08
-7.32213e-07
1.33739e-08
-7.35874e-07
1.25203e-08
-7.39286e-07
1.16787e-08
-7.4245e-07
1.08473e-08
-7.45369e-07
1.00243e-08
-7.48046e-07
9.20774e-09
-7.5048e-07
8.39562e-09
-7.52674e-07
7.58592e-09
-7.54627e-07
6.77652e-09
-7.56338e-07
5.96529e-09
-7.57806e-07
5.15006e-09
-7.5903e-07
4.32862e-09
-7.60006e-07
3.49877e-09
-7.60733e-07
2.65826e-09
-7.61206e-07
1.80487e-09
-7.61421e-07
9.36359e-10
-7.61373e-07
5.05139e-11
-7.61057e-07
-8.5486e-10
-7.60466e-07
-1.78193e-09
-7.59593e-07
-2.7328e-09
-7.58431e-07
-3.70956e-09
-7.56973e-07
-4.71419e-09
-7.5521e-07
-5.74863e-09
-7.53132e-07
-6.81469e-09
-7.50731e-07
-7.9141e-09
-7.47996e-07
-9.04848e-09
-7.44918e-07
-1.02193e-08
-7.41485e-07
-1.14278e-08
-7.37687e-07
-1.26752e-08
-7.33513e-07
-1.39624e-08
-7.2895e-07
-1.52902e-08
-7.23988e-07
-1.66591e-08
-7.18616e-07
-1.80692e-08
-7.12821e-07
-1.95207e-08
-7.06592e-07
-2.10132e-08
-6.99918e-07
-2.2546e-08
-6.92788e-07
-2.41182e-08
-6.85192e-07
-2.57284e-08
-6.7712e-07
-2.73748e-08
-6.68562e-07
-2.90554e-08
-6.5951e-07
-3.07675e-08
-6.49956e-07
-3.2508e-08
-6.39894e-07
-3.42734e-08
-6.29318e-07
-3.60596e-08
-6.18224e-07
-3.7862e-08
-6.0661e-07
-3.96755e-08
-5.94474e-07
-4.14944e-08
-5.81818e-07
-4.33124e-08
-5.68643e-07
-4.51227e-08
-5.54957e-07
-4.69177e-08
-5.40764e-07
-4.86894e-08
-5.26076e-07
-5.0429e-08
-5.10904e-07
-5.21275e-08
-4.95264e-07
-5.37748e-08
-4.79174e-07
-5.53605e-08
-4.62655e-07
-5.68736e-08
-4.45731e-07
-5.83027e-08
-4.2843e-07
-5.96356e-08
-4.10784e-07
-6.086e-08
-3.92827e-07
-6.19628e-08
-3.74598e-07
-6.29309e-08
-3.5614e-07
-6.37508e-08
-3.37498e-07
-6.44085e-08
-3.18723e-07
-6.48904e-08
-2.99868e-07
-6.51823e-08
-2.80991e-07
-6.52705e-08
-2.62152e-07
-6.51412e-08
-2.43417e-07
-6.47811e-08
-2.24854e-07
-6.41771e-08
-2.06534e-07
-6.3317e-08
-1.88531e-07
-6.21894e-08
-1.70922e-07
-6.07838e-08
-1.53785e-07
-5.90912e-08
-1.37201e-07
-5.71042e-08
-1.21251e-07
-5.48176e-08
-1.06017e-07
-5.22285e-08
-9.15773e-08
-4.93374e-08
-7.80117e-08
-4.61489e-08
-6.53947e-08
-4.26722e-08
-5.37959e-08
-3.8923e-08
-4.32779e-08
-3.49251e-08
-3.38937e-08
-3.0712e-08
-2.56838e-08
-2.63305e-08
-1.86731e-08
-2.1844e-08
-1.28668e-08
-1.73371e-08
-8.24619e-09
-1.29225e-08
-4.76409e-09
-8.74805e-09
-2.3399e-09
-5.00752e-09
-8.54616e-10
-1.95056e-09
-1.45834e-10
1.03376e-10
7.17271e-10
-2.68847e-10
-4.27758e-10
-1.25599e-09
7.29785e-10
-3.11214e-09
3.32992e-09
-5.9556e-09
6.9505e-09
-9.87381e-09
1.12746e-08
-1.49254e-08
1.6049e-08
-2.11429e-08
2.10733e-08
-2.85357e-08
2.61911e-08
-3.70936e-08
3.12815e-08
-4.67894e-08
3.62518e-08
-5.75826e-08
4.10321e-08
-6.94214e-08
4.55706e-08
-8.22458e-08
4.98297e-08
-9.59893e-08
5.37835e-08
-1.10581e-07
5.74153e-08
-1.25946e-07
6.07154e-08
-1.4201e-07
6.36802e-08
-1.58696e-07
6.63107e-08
-1.75929e-07
6.86115e-08
-1.93633e-07
7.05901e-08
-2.11736e-07
7.22565e-08
-2.30166e-07
7.36222e-08
-2.48857e-07
7.47003e-08
-2.67742e-07
7.55048e-08
-2.8676e-07
7.60503e-08
-3.05852e-07
7.63522e-08
-3.24963e-07
7.64258e-08
-3.44041e-07
7.62867e-08
-3.63039e-07
7.59505e-08
-3.81912e-07
7.54324e-08
-4.00618e-07
7.47476e-08
-4.19121e-07
7.39107e-08
-4.37387e-07
7.2936e-08
-4.55384e-07
7.18372e-08
-4.73085e-07
7.06277e-08
-4.90465e-07
6.932e-08
-5.07503e-07
6.79263e-08
-5.2418e-07
6.64579e-08
-5.40479e-07
6.49256e-08
-5.56386e-07
6.33397e-08
-5.71892e-07
6.17096e-08
-5.86985e-07
6.00441e-08
-6.01658e-07
5.83516e-08
-6.15907e-07
5.66395e-08
-6.29728e-07
5.49149e-08
-6.43119e-07
5.31842e-08
-6.56079e-07
5.14532e-08
-6.68608e-07
4.9727e-08
-6.8071e-07
4.80104e-08
-6.92385e-07
4.63076e-08
-7.0364e-07
4.46222e-08
-7.14478e-07
4.29575e-08
-7.24904e-07
4.13161e-08
-7.34925e-07
3.97003e-08
-7.44547e-07
3.81122e-08
-7.53777e-07
3.6553e-08
-7.62622e-07
3.50241e-08
-7.71089e-07
3.35261e-08
-7.79186e-07
3.20596e-08
-7.86921e-07
3.06247e-08
-7.94301e-07
2.92213e-08
-8.01333e-07
2.78489e-08
-8.08025e-07
2.6507e-08
-8.14383e-07
2.51946e-08
-8.20416e-07
2.39106e-08
-8.26129e-07
2.26538e-08
-8.31528e-07
2.14226e-08
-8.36619e-07
2.02154e-08
-8.41409e-07
1.90304e-08
-8.459e-07
1.78656e-08
-8.50099e-07
1.67188e-08
-8.54008e-07
1.55879e-08
-8.57631e-07
1.44704e-08
-8.60971e-07
1.3364e-08
-8.64029e-07
1.2266e-08
-8.66807e-07
1.11739e-08
-8.69306e-07
1.00849e-08
-8.71526e-07
8.99633e-09
-8.73466e-07
7.90527e-09
-8.75125e-07
6.80889e-09
-8.76501e-07
5.70428e-09
-8.7759e-07
4.5885e-09
-8.78391e-07
3.45861e-09
-8.78897e-07
2.31166e-09
-8.79106e-07
1.14471e-09
-8.7901e-07
-4.51631e-11
-8.78604e-07
-1.26086e-09
-8.77881e-07
-2.50521e-09
-8.76833e-07
-3.78103e-09
-8.75451e-07
-5.09102e-09
-8.73727e-07
-6.43781e-09
-8.71652e-07
-7.82393e-09
-8.69215e-07
-9.25177e-09
-8.66406e-07
-1.07236e-08
-8.63213e-07
-1.22415e-08
-8.59624e-07
-1.38074e-08
-8.55629e-07
-1.5423e-08
-8.51215e-07
-1.70897e-08
-8.46368e-07
-1.88089e-08
-8.41077e-07
-2.05813e-08
-8.35328e-07
-2.24078e-08
-8.29109e-07
-2.42885e-08
-8.22406e-07
-2.62234e-08
-8.15208e-07
-2.82121e-08
-8.075e-07
-3.02536e-08
-7.99271e-07
-3.23466e-08
-7.9051e-07
-3.44894e-08
-7.81206e-07
-3.66794e-08
-7.71347e-07
-3.89139e-08
-7.60925e-07
-4.11894e-08
-7.49932e-07
-4.35017e-08
-7.38359e-07
-4.58462e-08
-7.26201e-07
-4.82173e-08
-7.13454e-07
-5.06091e-08
-7.00115e-07
-5.30147e-08
-6.86183e-07
-5.54265e-08
-6.71659e-07
-5.78362e-08
-6.56547e-07
-6.02347e-08
-6.40852e-07
-6.26121e-08
-6.24584e-07
-6.49578e-08
-6.07753e-07
-6.72603e-08
-5.90373e-07
-6.95073e-08
-5.72462e-07
-7.16859e-08
-5.5404e-07
-7.37822e-08
-5.35132e-07
-7.57818e-08
-5.15765e-07
-7.76696e-08
-4.95971e-07
-7.94297e-08
-4.75785e-07
-8.10458e-08
-4.55247e-07
-8.25008e-08
-4.344e-07
-8.37775e-08
-4.13293e-07
-8.48582e-08
-3.91977e-07
-8.57248e-08
-3.70508e-07
-8.63593e-08
-3.48947e-07
-8.67435e-08
-3.27358e-07
-8.68593e-08
-3.0581e-07
-8.66891e-08
-2.84375e-07
-8.62155e-08
-2.63131e-07
-8.5422e-08
-2.42155e-07
-8.42928e-08
-2.21531e-07
-8.28135e-08
-2.01343e-07
-8.09711e-08
-1.8168e-07
-7.87543e-08
-1.6263e-07
-7.61544e-08
-1.44282e-07
-7.31652e-08
-1.26727e-07
-6.97843e-08
-1.10051e-07
-6.60133e-08
-9.43405e-08
-6.18591e-08
-7.96776e-08
-5.7335e-08
-6.61382e-08
-5.24625e-08
-5.37906e-08
-4.72727e-08
-4.26931e-08
-4.18095e-08
-3.28916e-08
-3.6132e-08
-2.44162e-08
-3.03194e-08
-1.72784e-08
-2.4475e-08
-1.14674e-08
-1.87335e-08
-6.94696e-09
-1.32684e-08
-3.65245e-09
-8.30205e-09
-1.48781e-09
-4.11519e-09
-3.24339e-10
-1.06011e-09
3.92938e-10
-4.29746e-10
1.98998e-12
-1.83528e-09
2.13533e-09
-4.32119e-09
5.81585e-09
-7.97261e-09
1.06019e-08
-1.28526e-08
1.61545e-08
-1.90016e-08
2.2198e-08
-2.64388e-08
2.85106e-08
-3.51635e-08
3.49159e-08
-4.51574e-08
4.12754e-08
-5.63867e-08
4.74812e-08
-6.88051e-08
5.34505e-08
-8.23555e-08
5.91209e-08
-9.69723e-08
6.44465e-08
-1.12584e-07
6.93949e-08
-1.29113e-07
7.39446e-08
-1.46481e-07
7.8083e-08
-1.64605e-07
8.18044e-08
-1.83403e-07
8.51091e-08
-2.02794e-07
8.80021e-08
-2.22696e-07
9.0492e-08
-2.43029e-07
9.25902e-08
-2.63718e-07
9.43109e-08
-2.84687e-07
9.56697e-08
-3.05866e-07
9.66837e-08
-3.27187e-07
9.73709e-08
-3.48585e-07
9.77502e-08
-3.7e-07
9.78407e-08
-3.91375e-07
9.76619e-08
-4.12658e-07
9.72329e-08
-4.33798e-07
9.65731e-08
-4.54752e-07
9.57013e-08
-4.75477e-07
9.46361e-08
-4.95937e-07
9.33952e-08
-5.16096e-07
9.19962e-08
-5.35924e-07
9.04558e-08
-5.55394e-07
8.87898e-08
-5.74481e-07
8.70137e-08
-5.93165e-07
8.51419e-08
-6.11427e-07
8.31881e-08
-6.29253e-07
8.11652e-08
-6.46629e-07
7.90853e-08
-6.63544e-07
7.69596e-08
-6.79991e-07
7.47987e-08
-6.95964e-07
7.26121e-08
-7.11458e-07
7.04089e-08
-7.26471e-07
6.81972e-08
-7.41002e-07
6.59843e-08
-7.55052e-07