/*--------------------------------*- C++ -*----------------------------------*\
  =========                 |
  \\      /  F ield         | OpenFOAM: The Open Source CFD Toolbox
   \\    /   O peration     | Website:  https://openfoam.org
    \\  /    A nd           | Version:  7
     \\/     M anipulation  |
\*---------------------------------------------------------------------------*/
FoamFile
{
    version     2.0;
    format      ascii;
    class       volVectorField;
    location    "0.375";
    object      U;
}
// * * * * * * * * * * * * * * * * * * * * * * * * * * * * * * * * * * * * * //

dimensions      [0 1 -1 0 0 0 0];

internalField   nonuniform List<vector> 
12800
(
(8.32052e-06 -8.32845e-06 0)
(3.70831e-05 -1.85405e-05 0)
(7.85417e-05 -1.97145e-05 0)
(0.000113264 -1.5356e-05 0)
(0.000130014 -8.31348e-06 0)
(0.000123903 -1.40553e-07 0)
(9.27888e-05 8.34264e-06 0)
(3.60581e-05 1.66959e-05 0)
(-4.59327e-05 2.46861e-05 0)
(-0.000152237 3.21933e-05 0)
(-0.000281555 3.91582e-05 0)
(-0.00043238 4.55558e-05 0)
(-0.00060309 5.13809e-05 0)
(-0.000792007 5.66401e-05 0)
(-0.000997441 6.13472e-05 0)
(-0.00121771 6.5521e-05 0)
(-0.00145118 6.91832e-05 0)
(-0.00169626 7.23574e-05 0)
(-0.0019514 7.50683e-05 0)
(-0.00221514 7.73411e-05 0)
(-0.00248608 7.92014e-05 0)
(-0.0027629 8.06748e-05 0)
(-0.00304434 8.17868e-05 0)
(-0.00332923 8.25621e-05 0)
(-0.00361647 8.30252e-05 0)
(-0.00390504 8.31996e-05 0)
(-0.004194 8.31085e-05 0)
(-0.00448246 8.27741e-05 0)
(-0.00476962 8.2218e-05 0)
(-0.00505476 8.14606e-05 0)
(-0.00533719 8.05218e-05 0)
(-0.00561632 7.94202e-05 0)
(-0.0058916 7.81737e-05 0)
(-0.00616255 7.67993e-05 0)
(-0.00642873 7.53129e-05 0)
(-0.00668978 7.37296e-05 0)
(-0.00694537 7.20635e-05 0)
(-0.00719521 7.03277e-05 0)
(-0.00743907 6.85346e-05 0)
(-0.00767675 6.66954e-05 0)
(-0.00790811 6.48209e-05 0)
(-0.008133 6.29208e-05 0)
(-0.00835136 6.1004e-05 0)
(-0.00856311 5.90786e-05 0)
(-0.00876823 5.71519e-05 0)
(-0.00896671 5.52307e-05 0)
(-0.00915856 5.33209e-05 0)
(-0.00934382 5.14278e-05 0)
(-0.00952254 4.95562e-05 0)
(-0.0096948 4.77101e-05 0)
(-0.00986067 4.58932e-05 0)
(-0.0100203 4.41085e-05 0)
(-0.0101737 4.23585e-05 0)
(-0.010321 4.0645e-05 0)
(-0.0104624 3.89696e-05 0)
(-0.0105979 3.73337e-05 0)
(-0.0107278 3.57381e-05 0)
(-0.0108521 3.41832e-05 0)
(-0.010971 3.26691e-05 0)
(-0.0110846 3.11953e-05 0)
(-0.011193 2.97615e-05 0)
(-0.0112964 2.83669e-05 0)
(-0.0113949 2.70105e-05 0)
(-0.0114887 2.56909e-05 0)
(-0.0115778 2.44064e-05 0)
(-0.0116623 2.31554e-05 0)
(-0.0117424 2.19361e-05 0)
(-0.0118182 2.07463e-05 0)
(-0.0118898 1.95838e-05 0)
(-0.0119572 1.84459e-05 0)
(-0.0120206 1.73304e-05 0)
(-0.01208 1.62345e-05 0)
(-0.0121354 1.51555e-05 0)
(-0.0121869 1.40903e-05 0)
(-0.0122347 1.30359e-05 0)
(-0.0122786 1.19894e-05 0)
(-0.0123187 1.09477e-05 0)
(-0.012355 9.9076e-06 0)
(-0.0123876 8.86557e-06 0)
(-0.0124164 7.81801e-06 0)
(-0.0124413 6.76146e-06 0)
(-0.0124624 5.69262e-06 0)
(-0.0124796 4.60819e-06 0)
(-0.0124928 3.50476e-06 0)
(-0.0125019 2.37872e-06 0)
(-0.012507 1.22642e-06 0)
(-0.0125078 4.4332e-08 0)
(-0.0125043 -1.17096e-06 0)
(-0.0124964 -2.42278e-06 0)
(-0.0124839 -3.7145e-06 0)
(-0.0124667 -5.04949e-06 0)
(-0.0124445 -6.43108e-06 0)
(-0.0124174 -7.86239e-06 0)
(-0.012385 -9.34634e-06 0)
(-0.0123473 -1.08857e-05 0)
(-0.012304 -1.2483e-05 0)
(-0.0122549 -1.41407e-05 0)
(-0.0121998 -1.58611e-05 0)
(-0.0121385 -1.76462e-05 0)
(-0.0120707 -1.94977e-05 0)
(-0.0119963 -2.14168e-05 0)
(-0.0119151 -2.34046e-05 0)
(-0.0118267 -2.54617e-05 0)
(-0.011731 -2.75883e-05 0)
(-0.0116277 -2.97839e-05 0)
(-0.0115167 -3.20479e-05 0)
(-0.0113976 -3.43788e-05 0)
(-0.0112703 -3.67747e-05 0)
(-0.0111346 -3.92331e-05 0)
(-0.0109902 -4.17508e-05 0)
(-0.010837 -4.43237e-05 0)
(-0.0106749 -4.6947e-05 0)
(-0.0105036 -4.96152e-05 0)
(-0.010323 -5.2322e-05 0)
(-0.0101331 -5.50601e-05 0)
(-0.00993376 -5.78213e-05 0)
(-0.00972493 -6.05966e-05 0)
(-0.00950662 -6.33758e-05 0)
(-0.00927883 -6.61477e-05 0)
(-0.00904165 -6.89003e-05 0)
(-0.00879517 -7.16203e-05 0)
(-0.00853955 -7.42935e-05 0)
(-0.00827499 -7.69049e-05 0)
(-0.00800177 -7.94379e-05 0)
(-0.00772019 -8.18753e-05 0)
(-0.00743063 -8.41987e-05 0)
(-0.00713353 -8.63887e-05 0)
(-0.00682941 -8.84252e-05 0)
(-0.00651883 -9.02868e-05 0)
(-0.00620246 -9.19516e-05 0)
(-0.005881 -9.33968e-05 0)
(-0.00555527 -9.45989e-05 0)
(-0.00522615 -9.55335e-05 0)
(-0.00489459 -9.6176e-05 0)
(-0.00456163 -9.65011e-05 0)
(-0.00422841 -9.64834e-05 0)
(-0.00389613 -9.6097e-05 0)
(-0.00356608 -9.53158e-05 0)
(-0.00323962 -9.41137e-05 0)
(-0.00291822 -9.24647e-05 0)
(-0.00260339 -9.03431e-05 0)
(-0.00229675 -8.77235e-05 0)
(-0.00199998 -8.45809e-05 0)
(-0.0017148 -8.08912e-05 0)
(-0.00144304 -7.66315e-05 0)
(-0.00118654 -7.17801e-05 0)
(-0.000947203 -6.63176e-05 0)
(-0.000726938 -6.0228e-05 0)
(-0.000527671 -5.34999e-05 0)
(-0.000351295 -4.61292e-05 0)
(-0.000199635 -3.81239e-05 0)
(-7.43793e-05 -2.95124e-05 0)
(2.30127e-05 -2.03584e-05 0)
(9.14673e-05 -1.07906e-05 0)
(0.000130555 -1.05986e-06 0)
(0.000140908 8.35454e-06 0)
(0.000124842 1.65495e-05 0)
(8.77211e-05 2.17934e-05 0)
(4.20423e-05 2.08651e-05 0)
(9.63229e-06 9.63464e-06 0)
(1.85518e-05 -3.70985e-05 0)
(7.03608e-05 -7.03098e-05 0)
(0.000132074 -6.77684e-05 0)
(0.00017019 -4.20982e-05 0)
(0.000163422 -3.16078e-06 0)
(0.000100338 4.27112e-05 0)
(-2.53283e-05 9.15502e-05 0)
(-0.000216315 0.000140875 0)
(-0.000472834 0.000189137 0)
(-0.00079338 0.000235376 0)
(-0.00117531 0.000279 0)
(-0.00161523 0.000319655 0)
(-0.00210928 0.000357144 0)
(-0.00265329 0.000391377 0)
(-0.00324295 0.000422337 0)
(-0.00387392 0.00045006 0)
(-0.00454186 0.000474617 0)
(-0.00524249 0.000496104 0)
(-0.00597169 0.000514639 0)
(-0.00672544 0.000530349 0)
(-0.00749989 0.000543373 0)
(-0.00829139 0.000553854 0)
(-0.00909645 0.00056194 0)
(-0.0099118 0.000567778 0)
(-0.0107343 0.000571517 0)
(-0.0115612 0.000573303 0)
(-0.0123897 0.000573281 0)
(-0.0132173 0.000571593 0)
(-0.0140417 0.000568376 0)
(-0.0148609 0.000563764 0)
(-0.0156729 0.000557885 0)
(-0.0164759 0.000550864 0)
(-0.0172684 0.000542818 0)
(-0.018049 0.00053386 0)
(-0.0188164 0.000524098 0)
(-0.0195694 0.000513634 0)
(-0.0203073 0.000502561 0)
(-0.021029 0.000490972 0)
(-0.0217339 0.000478949 0)
(-0.0224213 0.000466571 0)
(-0.0230909 0.000453911 0)
(-0.0237422 0.000441037 0)
(-0.024375 0.000428011 0)
(-0.0249889 0.00041489 0)
(-0.025584 0.000401725 0)
(-0.0261602 0.000388564 0)
(-0.0267174 0.000375449 0)
(-0.0272557 0.000362419 0)
(-0.0277753 0.000349507 0)
(-0.0282763 0.000336742 0)
(-0.028759 0.000324152 0)
(-0.0292236 0.000311757 0)
(-0.0296704 0.000299577 0)
(-0.0300997 0.000287627 0)
(-0.0305117 0.00027592 0)
(-0.0309069 0.000264464 0)
(-0.0312857 0.000253267 0)
(-0.0316483 0.000242333 0)
(-0.0319951 0.000231663 0)
(-0.0323266 0.000221258 0)
(-0.032643 0.000211114 0)
(-0.0329448 0.000201226 0)
(-0.0332323 0.000191589 0)
(-0.0335058 0.000182195 0)
(-0.0337657 0.000173033 0)
(-0.0340123 0.000164093 0)
(-0.034246 0.000155361 0)
(-0.0344669 0.000146825 0)
(-0.0346754 0.000138469 0)
(-0.0348717 0.000130277 0)
(-0.035056 0.000122232 0)
(-0.0352285 0.000114317 0)
(-0.0353895 0.000106513 0)
(-0.0355389 9.87998e-05 0)
(-0.0356771 9.11572e-05 0)
(-0.0358039 8.35647e-05 0)
(-0.0359195 7.60011e-05 0)
(-0.036024 6.84443e-05 0)
(-0.0361172 6.08719e-05 0)
(-0.0361992 5.32607e-05 0)
(-0.0362699 4.55876e-05 0)
(-0.0363292 3.78295e-05 0)
(-0.0363769 2.99632e-05 0)
(-0.0364128 2.19653e-05 0)
(-0.0364369 1.38122e-05 0)
(-0.0364487 5.48024e-06 0)
(-0.0364481 -3.05391e-06 0)
(-0.0364348 -1.18134e-05 0)
(-0.0364083 -2.08209e-05 0)
(-0.0363684 -3.00988e-05 0)
(-0.0363146 -3.96689e-05 0)
(-0.0362465 -4.95524e-05 0)
(-0.0361637 -5.97695e-05 0)
(-0.0360656 -7.03392e-05 0)
(-0.0359517 -8.12797e-05 0)
(-0.0358216 -9.26076e-05 0)
(-0.0356745 -0.000104338 0)
(-0.0355101 -0.000116486 0)
(-0.0353275 -0.000129062 0)
(-0.0351264 -0.000142077 0)
(-0.0349059 -0.000155537 0)
(-0.0346655 -0.000169449 0)
(-0.0344046 -0.000183813 0)
(-0.0341225 -0.000198631 0)
(-0.0338186 -0.000213896 0)
(-0.0334923 -0.000229603 0)
(-0.0331429 -0.00024574 0)
(-0.0327698 -0.000262291 0)
(-0.0323726 -0.000279238 0)
(-0.0319507 -0.000296555 0)
(-0.0315036 -0.000314214 0)
(-0.0310308 -0.000332181 0)
(-0.030532 -0.000350415 0)
(-0.0300068 -0.000368873 0)
(-0.029455 -0.000387502 0)
(-0.0288764 -0.000406245 0)
(-0.0282709 -0.00042504 0)
(-0.0276386 -0.000443816 0)
(-0.0269795 -0.000462496 0)
(-0.0262939 -0.000480998 0)
(-0.0255821 -0.000499232 0)
(-0.0248446 -0.000517101 0)
(-0.024082 -0.000534502 0)
(-0.0232951 -0.000551325 0)
(-0.0224849 -0.000567453 0)
(-0.0216525 -0.000582763 0)
(-0.0207991 -0.000597127 0)
(-0.0199263 -0.000610409 0)
(-0.0190357 -0.00062247 0)
(-0.0181291 -0.000633164 0)
(-0.0172087 -0.000642343 0)
(-0.0162768 -0.000649851 0)
(-0.0153358 -0.000655533 0)
(-0.0143885 -0.000659229 0)
(-0.0134379 -0.000660778 0)
(-0.0124871 -0.000660019 0)
(-0.0115395 -0.000656789 0)
(-0.0105988 -0.000650928 0)
(-0.0096687 -0.000642278 0)
(-0.00875333 -0.000630684 0)
(-0.00785691 -0.000615997 0)
(-0.00698386 -0.000598076 0)
(-0.0061388 -0.000576789 0)
(-0.00532646 -0.000552015 0)
(-0.00455172 -0.000523653 0)
(-0.00381954 -0.000491621 0)
(-0.00313495 -0.000455868 0)
(-0.00250293 -0.000416381 0)
(-0.00192839 -0.000373205 0)
(-0.00141605 -0.000326458 0)
(-0.000970267 -0.000276373 0)
(-0.000594871 -0.000223351 0)
(-0.000292841 -0.000168046 0)
(-6.58937e-05 -0.000111513 0)
(8.61449e-05 -5.54471e-05 0)
(0.000166246 -2.58256e-06 0)
(0.000181299 4.26784e-05 0)
(0.000143969 7.32467e-05 0)
(7.7976e-05 7.79488e-05 0)
(2.08608e-05 4.20366e-05 0)
(1.98068e-05 -7.86396e-05 0)
(6.81179e-05 -0.000132111 0)
(0.000111226 -0.000110692 0)
(0.000110427 -3.94782e-05 0)
(4.046e-05 6.29495e-05 0)
(-0.000113536 0.00018337 0)
(-0.000360457 0.000312637 0)
(-0.000704704 0.000444541 0)
(-0.00114722 0.000574903 0)
(-0.00168646 0.000700929 0)
(-0.00231906 0.000820769 0)
(-0.00304045 0.000933227 0)
(-0.0038452 0.00103757 0)
(-0.00472732 0.00113337 0)
(-0.0056805 0.00122044 0)
(-0.00669826 0.00129878 0)
(-0.00777407 0.00136848 0)
(-0.00890145 0.00142975 0)
(-0.0100741 0.00148283 0)
(-0.0112857 0.00152805 0)
(-0.0125305 0.00156574 0)
(-0.0138026 0.00159628 0)
(-0.0150967 0.00162005 0)
(-0.0164075 0.00163745 0)
(-0.0177302 0.00164888 0)
(-0.0190603 0.00165473 0)
(-0.0203935 0.0016554 0)
(-0.0217257 0.00165129 0)
(-0.0230534 0.00164278 0)
(-0.0243732 0.00163023 0)
(-0.0256819 0.00161402 0)
(-0.0269767 0.00159449 0)
(-0.0282552 0.00157197 0)
(-0.0295149 0.00154678 0)
(-0.0307539 0.00151924 0)
(-0.0319704 0.00148962 0)
(-0.0331627 0.0014582 0)
(-0.0343295 0.00142525 0)
(-0.0354696 0.00139099 0)
(-0.036582 0.00135566 0)
(-0.0376659 0.00131947 0)
(-0.0387207 0.00128261 0)
(-0.0397458 0.00124527 0)
(-0.0407409 0.0012076 0)
(-0.0417058 0.00116976 0)
(-0.0426403 0.00113188 0)
(-0.0435444 0.0010941 0)
(-0.0444182 0.00105652 0)
(-0.0452619 0.00101924 0)
(-0.0460758 0.000982348 0)
(-0.04686 0.000945922 0)
(-0.0476151 0.000910027 0)
(-0.0483414 0.00087472 0)
(-0.0490394 0.000840046 0)
(-0.0497096 0.000806043 0)
(-0.0503525 0.00077274 0)
(-0.0509688 0.000740158 0)
(-0.0515588 0.000708311 0)
(-0.0521233 0.000677205 0)
(-0.0526628 0.000646841 0)
(-0.0531779 0.000617211 0)
(-0.0536691 0.000588305 0)
(-0.054137 0.000560105 0)
(-0.0545822 0.000532589 0)
(-0.0550051 0.00050573 0)
(-0.0554064 0.000479497 0)
(-0.0557864 0.000453855 0)
(-0.0561456 0.000428765 0)
(-0.0564845 0.000404185 0)
(-0.0568034 0.000380069 0)
(-0.0571026 0.00035637 0)
(-0.0573825 0.000333037 0)
(-0.0576434 0.000310015 0)
(-0.0578854 0.00028725 0)
(-0.0581088 0.000264683 0)
(-0.0583136 0.000242256 0)
(-0.0585 0.000219907 0)
(-0.058668 0.000197573 0)
(-0.0588175 0.000175191 0)
(-0.0589486 0.000152696 0)
(-0.0590611 0.000130021 0)
(-0.0591547 0.000107101 0)
(-0.0592294 8.38685e-05 0)
(-0.0592848 6.02566e-05 0)
(-0.0593205 3.61984e-05 0)
(-0.0593363 1.1627e-05 0)
(-0.0593316 -1.35239e-05 0)
(-0.059306 -3.93198e-05 0)
(-0.059259 -6.5825e-05 0)
(-0.0591899 -9.31028e-05 0)
(-0.0590981 -0.000121214 0)
(-0.0589829 -0.000150219 0)
(-0.0588437 -0.000180174 0)
(-0.0586795 -0.000211132 0)
(-0.0584897 -0.000243145 0)
(-0.0582733 -0.000276258 0)
(-0.0580295 -0.000310514 0)
(-0.0577574 -0.00034595 0)
(-0.0574559 -0.0003826 0)
(-0.0571242 -0.000420488 0)
(-0.0567613 -0.000459634 0)
(-0.0563662 -0.00050005 0)
(-0.0559378 -0.00054174 0)
(-0.0554752 -0.000584701 0)
(-0.0549774 -0.000628917 0)
(-0.0544435 -0.000674365 0)
(-0.0538724 -0.00072101 0)
(-0.0532634 -0.000768806 0)
(-0.0526154 -0.000817693 0)
(-0.0519278 -0.000867601 0)
(-0.0511997 -0.000918442 0)
(-0.0504306 -0.000970116 0)
(-0.0496197 -0.00102251 0)
(-0.0487668 -0.00107548 0)
(-0.0478712 -0.0011289 0)
(-0.046933 -0.00118258 0)
(-0.0459518 -0.00123635 0)
(-0.0449279 -0.00129001 0)
(-0.0438614 -0.00134334 0)
(-0.0427527 -0.00139609 0)
(-0.0416025 -0.001448 0)
(-0.0404115 -0.00149882 0)
(-0.0391809 -0.00154823 0)
(-0.0379118 -0.00159592 0)
(-0.0366059 -0.00164156 0)
(-0.035265 -0.00168481 0)
(-0.0338911 -0.00172529 0)
(-0.0324867 -0.00176263 0)
(-0.0310544 -0.00179643 0)
(-0.0295972 -0.00182627 0)
(-0.0281186 -0.00185175 0)
(-0.0266221 -0.00187243 0)
(-0.0251118 -0.00188786 0)
(-0.0235919 -0.00189762 0)
(-0.0220673 -0.00190125 0)
(-0.0205429 -0.0018983 0)
(-0.0190241 -0.00188833 0)
(-0.0175166 -0.0018709 0)
(-0.0160265 -0.00184559 0)
(-0.01456 -0.00181199 0)
(-0.0131237 -0.00176971 0)
(-0.0117247 -0.00171838 0)
(-0.0103699 -0.00165767 0)
(-0.00906673 -0.00158732 0)
(-0.00782266 -0.00150709 0)
(-0.00664522 -0.00141684 0)
(-0.00554197 -0.00131652 0)
(-0.00452035 -0.00120624 0)
(-0.00358758 -0.00108625 0)
(-0.00275045 -0.000957086 0)
(-0.00201512 -0.000819599 0)
(-0.00138676 -0.000675147 0)
(-0.000869131 -0.000525786 0)
(-0.000464032 -0.000374607 0)
(-0.000170465 -0.000226224 0)
(1.64031e-05 -8.751e-05 0)
(0.000106415 3.13539e-05 0)
(0.000116094 0.000115543 0)
(7.35475e-05 0.000144006 0)
(2.18473e-05 8.77561e-05 0)
(1.55816e-05 -0.000113677 0)
(4.29296e-05 -0.000170692 0)
(4.09065e-05 -0.000110101 0)
(-2.81053e-05 2.97036e-05 0)
(-0.000189806 0.000221178 0)
(-0.000460387 0.000443884 0)
(-0.000849922 0.000682952 0)
(-0.00136364 0.000927789 0)
(-0.00200292 0.00117092 0)
(-0.00276617 0.00140713 0)
(-0.00364959 0.0016328 0)
(-0.0046478 0.00184549 0)
(-0.00575422 0.0020436 0)
(-0.0069615 0.00222618 0)
(-0.00826177 0.00239269 0)
(-0.00964686 0.00254297 0)
(-0.0111085 0.00267709 0)
(-0.0126383 0.00279533 0)
(-0.0142281 0.00289809 0)
(-0.0158699 0.00298591 0)
(-0.0175559 0.00305937 0)
(-0.0192786 0.00311914 0)
(-0.0210309 0.00316591 0)
(-0.0228059 0.00320041 0)
(-0.0245972 0.00322339 0)
(-0.0263987 0.00323558 0)
(-0.0282047 0.00323773 0)
(-0.0300099 0.00323058 0)
(-0.0318094 0.00321485 0)
(-0.0335987 0.00319127 0)
(-0.0353735 0.00316051 0)
(-0.03713 0.00312324 0)
(-0.0388649 0.00308011 0)
(-0.040575 0.00303173 0)
(-0.0422575 0.00297869 0)
(-0.0439099 0.00292155 0)
(-0.0455301 0.00286085 0)
(-0.0471162 0.00279707 0)
(-0.0486665 0.00273069 0)
(-0.0501797 0.00266216 0)
(-0.0516547 0.00259187 0)
(-0.0530904 0.00252022 0)
(-0.0544862 0.00244755 0)
(-0.0558417 0.00237418 0)
(-0.0571563 0.00230043 0)
(-0.0584299 0.00222654 0)
(-0.0596625 0.00215278 0)
(-0.0608541 0.00207936 0)
(-0.062005 0.00200647 0)
(-0.0631154 0.00193429 0)
(-0.0641857 0.00186297 0)
(-0.0652165 0.00179264 0)
(-0.0662082 0.00172341 0)
(-0.0671614 0.00165539 0)
(-0.0680769 0.00158863 0)
(-0.0689552 0.0015232 0)
(-0.0697971 0.00145915 0)
(-0.0706034 0.0013965 0)
(-0.0713748 0.00133527 0)
(-0.0721121 0.00127546 0)
(-0.072816 0.00121706 0)
(-0.0734874 0.00116004 0)
(-0.0741268 0.00110439 0)
(-0.0747351 0.00105004 0)
(-0.075313 0.000996967 0)
(-0.0758611 0.000945094 0)
(-0.07638 0.000894358 0)
(-0.0768704 0.000844686 0)
(-0.0773328 0.000795996 0)
(-0.0777678 0.0007482 0)
(-0.0781757 0.000701206 0)
(-0.078557 0.000654914 0)
(-0.0789121 0.000609222 0)
(-0.0792412 0.000564022 0)
(-0.0795446 0.000519203 0)
(-0.0798225 0.000474649 0)
(-0.0800749 0.000430241 0)
(-0.0803019 0.000385859 0)
(-0.0805034 0.000341378 0)
(-0.0806795 0.000296674 0)
(-0.0808299 0.000251618 0)
(-0.0809544 0.000206082 0)
(-0.0810527 0.000159936 0)
(-0.0811244 0.000113052 0)
(-0.081169 6.52997e-05 0)
(-0.0811862 1.65495e-05 0)
(-0.0811752 -3.33264e-05 0)
(-0.0811354 -8.44543e-05 0)
(-0.0810662 -0.000136958 0)
(-0.0809666 -0.000190959 0)
(-0.0808359 -0.000246575 0)
(-0.0806732 -0.00030392 0)
(-0.0804774 -0.000363102 0)
(-0.0802476 -0.000424223 0)
(-0.0799826 -0.000487381 0)
(-0.0796813 -0.000552663 0)
(-0.0793426 -0.000620149 0)
(-0.0789652 -0.00068991 0)
(-0.0785479 -0.000762005 0)
(-0.0780894 -0.000836482 0)
(-0.0775884 -0.000913376 0)
(-0.0770436 -0.000992707 0)
(-0.0764536 -0.00107448 0)
(-0.0758172 -0.00115868 0)
(-0.0751331 -0.00124529 0)
(-0.0744 -0.00133424 0)
(-0.0736166 -0.00142547 0)
(-0.0727819 -0.00151888 0)
(-0.0718945 -0.00161437 0)
(-0.0709536 -0.00171177 0)
(-0.0699582 -0.00181093 0)
(-0.0689073 -0.00191164 0)
(-0.0678003 -0.00201367 0)
(-0.0666366 -0.00211677 0)
(-0.0654156 -0.00222065 0)
(-0.0641373 -0.00232498 0)
(-0.0628013 -0.00242939 0)
(-0.061408 -0.00253351 0)
(-0.0599576 -0.00263689 0)
(-0.0584508 -0.00273908 0)
(-0.0568884 -0.00283958 0)
(-0.0552715 -0.00293784 0)
(-0.0536017 -0.00303329 0)
(-0.0518806 -0.00312534 0)
(-0.0501104 -0.00321333 0)
(-0.0482936 -0.00329659 0)
(-0.0464331 -0.00337442 0)
(-0.044532 -0.00344609 0)
(-0.0425941 -0.00351083 0)
(-0.0406233 -0.00356786 0)
(-0.0386242 -0.00361637 0)
(-0.0366016 -0.00365555 0)
(-0.034561 -0.00368455 0)
(-0.0325082 -0.00370253 0)
(-0.0304494 -0.00370865 0)
(-0.0283912 -0.00370207 0)
(-0.026341 -0.00368195 0)
(-0.0243061 -0.00364748 0)
(-0.0222946 -0.00359787 0)
(-0.0203148 -0.00353237 0)
(-0.0183754 -0.00345027 0)
(-0.0164854 -0.00335093 0)
(-0.0146542 -0.00323378 0)
(-0.0128912 -0.00309837 0)
(-0.0112061 -0.00294437 0)
(-0.00960861 -0.00277161 0)
(-0.00810827 -0.00258013 0)
(-0.00671453 -0.00237026 0)
(-0.0054364 -0.0021427 0)
(-0.00428225 -0.00189864 0)
(-0.00325951 -0.00163994 0)
(-0.00237429 -0.00136934 0)
(-0.00163087 -0.0010909 0)
(-0.00103106 -0.000810417 0)
(-0.000573375 -0.000536159 0)
(-0.000252031 -0.000279881 0)
(-5.58468e-05 -5.81483e-05 0)
(3.31954e-05 0.000106138 0)
(4.35696e-05 0.00018187 0)
(1.67367e-05 0.000125144 0)
(8.69665e-06 -0.000131057 0)
(4.49525e-06 -0.000164836 0)
(-6.0738e-05 -4.07239e-05 0)
(-0.00021872 0.000191237 0)
(-0.000492955 0.000495195 0)
(-0.000899426 0.0008439 0)
(-0.0014482 0.00121689 0)
(-0.00214453 0.00159909 0)
(-0.00298973 0.00197951 0)
(-0.00398203 0.00235019 0)
(-0.00511719 0.00270545 0)
(-0.00638914 0.00304133 0)
(-0.00779043 0.00335513 0)
(-0.00931262 0.00364514 0)
(-0.0109466 0.00391034 0)
(-0.0126829 0.00415029 0)
(-0.0145116 0.00436497 0)
(-0.016423 0.00455467 0)
(-0.0184074 0.00471994 0)
(-0.020455 0.00486151 0)
(-0.0225567 0.00498026 0)
(-0.0247034 0.00507717 0)
(-0.0268863 0.0051533 0)
(-0.0290973 0.00520977 0)
(-0.0313284 0.0052477 0)
(-0.0335722 0.00526828 0)
(-0.0358219 0.00527266 0)
(-0.0380708 0.00526201 0)
(-0.0403129 0.00523749 0)
(-0.0425426 0.0052002 0)
(-0.0447548 0.00515126 0)
(-0.0469448 0.00509173 0)
(-0.0491082 0.00502264 0)
(-0.0512413 0.00494497 0)
(-0.0533404 0.00485968 0)
(-0.0554026 0.00476766 0)
(-0.0574252 0.00466976 0)
(-0.0594056 0.0045668 0)
(-0.0613419 0.00445954 0)
(-0.0632324 0.00434868 0)
(-0.0650755 0.0042349 0)
(-0.0668702 0.00411881 0)
(-0.0686154 0.00400099 0)
(-0.0703106 0.00388196 0)
(-0.0719551 0.00376221 0)
(-0.0735488 0.00364217 0)
(-0.0750914 0.00352225 0)
(-0.0765832 0.00340281 0)
(-0.0780242 0.00328417 0)
(-0.0794149 0.00316662 0)
(-0.0807557 0.00305039 0)
(-0.0820471 0.00293572 0)
(-0.0832898 0.00282278 0)
(-0.0844845 0.00271173 0)
(-0.085632 0.0026027 0)
(-0.0867331 0.00249578 0)
(-0.0877887 0.00239105 0)
(-0.0887997 0.00228855 0)
(-0.089767 0.00218832 0)
(-0.0906915 0.00209036 0)
(-0.0915742 0.00199465 0)
(-0.0924159 0.00190117 0)
(-0.0932177 0.00180986 0)
(-0.0939803 0.00172066 0)
(-0.0947046 0.00163348 0)
(-0.0953915 0.00154825 0)
(-0.0960417 0.00146483 0)
(-0.0966559 0.00138313 0)
(-0.0972348 0.001303 0)
(-0.0977791 0.00122431 0)
(-0.0982893 0.00114691 0)
(-0.098766 0.00107063 0)
(-0.0992094 0.000995317 0)
(-0.0996201 0.00092079 0)
(-0.0999982 0.000846871 0)
(-0.100344 0.000773375 0)
(-0.100658 0.000700109 0)
(-0.100939 0.000626878 0)
(-0.101189 0.000553483 0)
(-0.101406 0.000479721 0)
(-0.101591 0.000405386 0)
(-0.101742 0.000330272 0)
(-0.101861 0.000254169 0)
(-0.101946 0.000176868 0)
(-0.101998 9.81623e-05 0)
(-0.102014 1.78424e-05 0)
(-0.101995 -6.42971e-05 0)
(-0.101939 -0.000148459 0)
(-0.101847 -0.000234844 0)
(-0.101716 -0.000323644 0)
(-0.101546 -0.00041505 0)
(-0.101335 -0.000509241 0)
(-0.101084 -0.000606392 0)
(-0.100789 -0.000706667 0)
(-0.10045 -0.000810217 0)
(-0.100066 -0.000917184 0)
(-0.0996349 -0.00102769 0)
(-0.0991554 -0.00114185 0)
(-0.0986259 -0.00125976 0)
(-0.0980449 -0.00138149 0)
(-0.0974108 -0.00150709 0)
(-0.0967221 -0.00163658 0)
(-0.0959771 -0.00176998 0)
(-0.0951742 -0.00190727 0)
(-0.0943119 -0.00204837 0)
(-0.0933886 -0.00219322 0)
(-0.0924029 -0.00234169 0)
(-0.0913533 -0.00249362 0)
(-0.0902385 -0.00264882 0)
(-0.0890572 -0.00280705 0)
(-0.0878082 -0.00296804 0)
(-0.0864906 -0.00313145 0)
(-0.0851036 -0.00329691 0)
(-0.0836463 -0.003464 0)
(-0.0821183 -0.00363224 0)
(-0.0805194 -0.00380112 0)
(-0.0788494 -0.00397003 0)
(-0.0771087 -0.00413836 0)
(-0.0752976 -0.00430539 0)
(-0.0734169 -0.00447039 0)
(-0.0714678 -0.00463253 0)
(-0.0694517 -0.00479096 0)
(-0.0673705 -0.00494475 0)
(-0.0652265 -0.00509293 0)
(-0.0630221 -0.00523446 0)
(-0.0607607 -0.00536825 0)
(-0.0584456 -0.00549319 0)
(-0.0560809 -0.00560808 0)
(-0.0536711 -0.00571172 0)
(-0.0512213 -0.00580285 0)
(-0.0487369 -0.00588019 0)
(-0.0462241 -0.00594241 0)
(-0.0436894 -0.00598821 0)
(-0.0411399 -0.00601624 0)
(-0.0385833 -0.00602517 0)
(-0.0360278 -0.00601366 0)
(-0.033482 -0.00598042 0)
(-0.0309553 -0.00592418 0)
(-0.0284571 -0.00584372 0)
(-0.0259978 -0.00573788 0)
(-0.0235876 -0.00560559 0)
(-0.0212376 -0.00544591 0)
(-0.0189589 -0.00525803 0)
(-0.0167629 -0.0050413 0)
(-0.0146609 -0.00479533 0)
(-0.0126645 -0.00451999 0)
(-0.010785 -0.00421551 0)
(-0.00903343 -0.00388261 0)
(-0.00742016 -0.00352259 0)
(-0.00595483 -0.00313753 0)
(-0.0046459 -0.00273058 0)
(-0.00350022 -0.00230623 0)
(-0.00252255 -0.00187086 0)
(-0.00171491 -0.00143331 0)
(-0.00107586 -0.0010058 0)
(-0.000599559 -0.00060506 0)
(-0.000274823 -0.000253868 0)
(-8.38772e-05 1.73023e-05 0)
(-8.4741e-07 0.000168131 0)
(8.74009e-06 0.000141883 0)
(6.68254e-07 -0.00012586 0)
(-4.10597e-05 -0.000102913 0)
(-0.000181032 0.000112714 0)
(-0.000441998 0.00046197 0)
(-0.000843361 0.000901889 0)
(-0.0013997 0.00139914 0)
(-0.0021201 0.00192811 0)
(-0.0030091 0.00246941 0)
(-0.00406749 0.00300854 0)
(-0.00529299 0.00353472 0)
(-0.00668081 0.00404005 0)
(-0.00822422 0.00451888 0)
(-0.00991497 0.00496725 0)
(-0.0117437 0.00538252 0)
(-0.0137003 0.00576308 0)
(-0.0157741 0.00610811 0)
(-0.017954 0.00641741 0)
(-0.0202291 0.00669124 0)
(-0.0225882 0.00693026 0)
(-0.0250204 0.0071354 0)
(-0.0275151 0.00730782 0)
(-0.0300618 0.00744884 0)
(-0.0326506 0.00755993 0)
(-0.035272 0.0076426 0)
(-0.0379168 0.00769848 0)
(-0.0405765 0.00772919 0)
(-0.0432429 0.00773638 0)
(-0.0459084 0.00772171 0)
(-0.0485661 0.00768682 0)
(-0.0512093 0.00763331 0)
(-0.053832 0.00756277 0)
(-0.0564287 0.00747672 0)
(-0.0589943 0.00737666 0)
(-0.0615242 0.00726401 0)
(-0.0640145 0.00714013 0)
(-0.0664613 0.00700634 0)
(-0.0688616 0.00686387 0)
(-0.0712123 0.0067139 0)
(-0.0735112 0.00655754 0)
(-0.0757561 0.00639583 0)
(-0.0779452 0.00622974 0)
(-0.0800772 0.00606017 0)
(-0.0821509 0.00588796 0)
(-0.0841654 0.00571389 0)
(-0.0861203 0.00553866 0)
(-0.088015 0.00536292 0)
(-0.0898494 0.00518726 0)
(-0.0916237 0.00501221 0)
(-0.0933379 0.00483824 0)
(-0.0949924 0.00466577 0)
(-0.0965879 0.00449518 0)
(-0.0981248 0.00432678 0)
(-0.0996039 0.00416084 0)
(-0.101026 0.00399761 0)
(-0.102392 0.00383725 0)
(-0.103703 0.00367993 0)
(-0.10496 0.00352575 0)
(-0.106164 0.00337479 0)
(-0.107316 0.0032271 0)
(-0.108417 0.00308268 0)
(-0.109468 0.00294151 0)
(-0.11047 0.00280356 0)
(-0.111425 0.00266876 0)
(-0.112333 0.002537 0)
(-0.113195 0.00240818 0)
(-0.114012 0.00228216 0)
(-0.114786 0.00215878 0)
(-0.115516 0.00203788 0)
(-0.116204 0.00191926 0)
(-0.116851 0.00180273 0)
(-0.117457 0.00168805 0)
(-0.118023 0.00157501 0)
(-0.118549 0.00146336 0)
(-0.119035 0.00135285 0)
(-0.119483 0.00124321 0)
(-0.119892 0.00113419 0)
(-0.120262 0.00102549 0)
(-0.120594 0.000916834 0)
(-0.120887 0.000807936 0)
(-0.121141 0.000698497 0)
(-0.121357 0.000588219 0)
(-0.121533 0.000476801 0)
(-0.121669 0.00036394 0)
(-0.121765 0.000249333 0)
(-0.121821 0.000132677 0)
(-0.121834 1.36698e-05 0)
(-0.121805 -0.000107986 0)
(-0.121733 -0.000232585 0)
(-0.121616 -0.000360415 0)
(-0.121454 -0.000491758 0)
(-0.121244 -0.000626885 0)
(-0.120987 -0.000766059 0)
(-0.12068 -0.000909528 0)
(-0.120322 -0.00105753 0)
(-0.119912 -0.00121028 0)
(-0.119447 -0.00136798 0)
(-0.118927 -0.00153082 0)
(-0.118349 -0.00169894 0)
(-0.117711 -0.00187247 0)
(-0.117013 -0.00205153 0)
(-0.116251 -0.00223618 0)
(-0.115425 -0.00242646 0)
(-0.114532 -0.00262237 0)
(-0.113571 -0.00282387 0)
(-0.112539 -0.00303087 0)
(-0.111435 -0.00324324 0)
(-0.110257 -0.00346081 0)
(-0.109004 -0.00368334 0)
(-0.107674 -0.00391054 0)
(-0.106266 -0.00414205 0)
(-0.104777 -0.00437747 0)
(-0.103208 -0.00461632 0)
(-0.101557 -0.00485805 0)
(-0.099824 -0.00510203 0)
(-0.0980075 -0.00534757 0)
(-0.0961075 -0.0055939 0)
(-0.094124 -0.00584017 0)
(-0.0920574 -0.00608545 0)
(-0.0899083 -0.00632872 0)
(-0.0876776 -0.00656889 0)
(-0.0853667 -0.00680479 0)
(-0.0829774 -0.00703514 0)
(-0.0805118 -0.00725862 0)
(-0.0779726 -0.00747381 0)
(-0.0753629 -0.0076792 0)
(-0.0726864 -0.00787324 0)
(-0.0699473 -0.00805428 0)
(-0.0671502 -0.00822063 0)
(-0.0643005 -0.00837052 0)
(-0.0614041 -0.00850216 0)
(-0.0584673 -0.00861369 0)
(-0.0554974 -0.00870323 0)
(-0.052502 -0.00876888 0)
(-0.0494893 -0.00880874 0)
(-0.0464684 -0.00882089 0)
(-0.0434486 -0.00880346 0)
(-0.0404401 -0.0087546 0)
(-0.0374534 -0.00867253 0)
(-0.0344999 -0.00855553 0)
(-0.031591 -0.00840202 0)
(-0.028739 -0.00821053 0)
(-0.0259561 -0.00797979 0)
(-0.0232553 -0.00770874 0)
(-0.0206494 -0.00739658 0)
(-0.0181514 -0.00704289 0)
(-0.0157743 -0.00664765 0)
(-0.0135308 -0.00621139 0)
(-0.0114334 -0.0057353 0)
(-0.00949345 -0.00522147 0)
(-0.0077218 -0.00467307 0)
(-0.00612775 -0.0040947 0)
(-0.00471891 -0.00349282 0)
(-0.00350064 -0.0028763 0)
(-0.00247551 -0.00225716 0)
(-0.00164263 -0.00165152 0)
(-0.000996944 -0.00108091 0)
(-0.000528355 -0.000573811 0)
(-0.000220678 -0.000167382 0)
(-5.27525e-05 9.02797e-05 0)
(-4.34136e-07 0.000132723 0)
(-7.7234e-06 -9.57954e-05 0)
(-8.99887e-05 2.18218e-05 0)
(-0.000311407 0.000359944 0)
(-0.000684135 0.000853179 0)
(-0.00122224 0.0014529 0)
(-0.00193798 0.00212065 0)
(-0.00283869 0.00282626 0)
(-0.00392757 0.00354644 0)
(-0.00520439 0.00426333 0)
(-0.00666605 0.00496342 0)
(-0.00830702 0.00563657 0)
(-0.0101198 0.00627535 0)
(-0.0120954 0.00687447 0)
(-0.0142236 0.00743028 0)
(-0.0164933 0.00794047 0)
(-0.0188928 0.00840377 0)
(-0.0214102 0.00881973 0)
(-0.0240333 0.00918854 0)
(-0.0267497 0.00951094 0)
(-0.0295476 0.00978804 0)
(-0.032415 0.0100213 0)
(-0.0353404 0.0102124 0)
(-0.0383128 0.0103631 0)
(-0.0413214 0.0104756 0)
(-0.044356 0.0105518 0)
(-0.0474071 0.0105939 0)
(-0.0504655 0.0106042 0)
(-0.0535226 0.0105848 0)
(-0.0565705 0.0105379 0)
(-0.0596019 0.0104657 0)
(-0.0626098 0.0103702 0)
(-0.065588 0.0102536 0)
(-0.0685308 0.0101178 0)
(-0.071433 0.0099648 0)
(-0.0742898 0.00979638 0)
(-0.0770972 0.00961435 0)
(-0.0798515 0.00942038 0)
(-0.0825494 0.00921607 0)
(-0.085188 0.00900292 0)
(-0.0877651 0.00878235 0)
(-0.0902785 0.00855569 0)
(-0.0927267 0.00832417 0)
(-0.0951083 0.00808893 0)
(-0.0974223 0.00785103 0)
(-0.099668 0.00761144 0)
(-0.101845 0.00737104 0)
(-0.103953 0.00713064 0)
(-0.105992 0.00689098 0)
(-0.107962 0.00665269 0)
(-0.109865 0.00641636 0)
(-0.111699 0.0061825 0)
(-0.113466 0.00595155 0)
(-0.115167 0.00572388 0)
(-0.116802 0.00549982 0)
(-0.118374 0.00527963 0)
(-0.119881 0.00506351 0)
(-0.121327 0.00485161 0)
(-0.122712 0.00464406 0)
(-0.124037 0.0044409 0)
(-0.125303 0.00424216 0)
(-0.126512 0.00404783 0)
(-0.127664 0.00385783 0)
(-0.128762 0.00367209 0)
(-0.129806 0.00349048 0)
(-0.130797 0.00331283 0)
(-0.131736 0.00313898 0)
(-0.132625 0.00296871 0)
(-0.133464 0.00280179 0)
(-0.134254 0.00263796 0)
(-0.134996 0.00247695 0)
(-0.135692 0.00231846 0)
(-0.13634 0.00216219 0)
(-0.136942 0.00200779 0)
(-0.137499 0.00185494 0)
(-0.138011 0.00170327 0)
(-0.138478 0.00155242 0)
(-0.1389 0.00140201 0)
(-0.139278 0.00125166 0)
(-0.139611 0.00110096 0)
(-0.139899 0.000949524 0)
(-0.140141 0.000796942 0)
(-0.140339 0.000642806 0)
(-0.14049 0.000486704 0)
(-0.140595 0.000328224 0)
(-0.140652 0.000166956 0)
(-0.140662 2.49185e-06 0)
(-0.140622 -0.000165573 0)
(-0.140532 -0.000337636 0)
(-0.14039 -0.000514087 0)
(-0.140196 -0.000695306 0)
(-0.139948 -0.000881662 0)
(-0.139645 -0.00107351 0)
(-0.139284 -0.00127118 0)
(-0.138865 -0.00147499 0)
(-0.138385 -0.00168524 0)
(-0.137843 -0.00190219 0)
(-0.137237 -0.00212608 0)
(-0.136565 -0.00235713 0)
(-0.135824 -0.0025955 0)
(-0.135014 -0.00284133 0)
(-0.134131 -0.00309471 0)
(-0.133174 -0.00335568 0)
(-0.132141 -0.00362425 0)
(-0.131029 -0.00390034 0)
(-0.129837 -0.00418383 0)
(-0.128563 -0.00447455 0)
(-0.127204 -0.00477224 0)
(-0.125759 -0.00507657 0)
(-0.124227 -0.00538715 0)
(-0.122604 -0.0057035 0)
(-0.120892 -0.00602503 0)
(-0.119086 -0.00635111 0)
(-0.117188 -0.00668096 0)
(-0.115196 -0.00701376 0)
(-0.113109 -0.00734853 0)
(-0.110927 -0.00768425 0)
(-0.108651 -0.00801973 0)
(-0.10628 -0.00835372 0)
(-0.103815 -0.00868484 0)
(-0.101258 -0.0090116 0)
(-0.0986091 -0.00933239 0)
(-0.0958716 -0.00964552 0)
(-0.0930476 -0.00994917 0)
(-0.09014 -0.0102414 0)
(-0.0871526 -0.0105202 0)
(-0.0840894 -0.0107835 0)
(-0.0809552 -0.011029 0)
(-0.0777553 -0.0112544 0)
(-0.0744958 -0.0114574 0)
(-0.0711832 -0.0116356 0)