/*--------------------------------*- C++ -*----------------------------------*\
  =========                 |
  \\      /  F ield         | OpenFOAM: The Open Source CFD Toolbox
   \\    /   O peration     | Website:  https://openfoam.org
    \\  /    A nd           | Version:  7
     \\/     M anipulation  |
\*---------------------------------------------------------------------------*/
FoamFile
{
    version     2.0;
    format      ascii;
    class       surfaceScalarField;
    location    "0.0625";
    object      phi;
}
// * * * * * * * * * * * * * * * * * * * * * * * * * * * * * * * * * * * * * //

dimensions      [0 3 -1 0 0 0 0];

internalField   nonuniform List<scalar> 
25360
(
7.80982e-11
-7.81196e-11
2.19862e-10
-1.41765e-10
3.37692e-10
-1.17829e-10
3.90439e-10
-5.27502e-11
3.56006e-10
3.44309e-11
2.23817e-10
1.32202e-10
-8.65856e-12
2.32467e-10
-3.3897e-10
3.30317e-10
-7.61801e-10
4.22835e-10
-1.27027e-09
5.08468e-10
-1.85669e-09
5.8642e-10
-2.51306e-09
6.56369e-10
-3.23145e-09
7.18395e-10
-4.00419e-09
7.7273e-10
-4.82392e-09
8.19742e-10
-5.68382e-09
8.59888e-10
-6.57746e-09
8.93643e-10
-7.49898e-09
9.21522e-10
-8.44302e-09
9.44036e-10
-9.40468e-09
9.61676e-10
-1.03796e-08
9.74926e-10
-1.13638e-08
9.84237e-10
-1.23539e-08
9.90058e-10
-1.33467e-08
9.92815e-10
-1.43396e-08
9.92874e-10
-1.53302e-08
9.90566e-10
-1.63164e-08
9.86221e-10
-1.72965e-08
9.80108e-10
-1.8269e-08
9.7247e-10
-1.92325e-08
9.63558e-10
-2.01861e-08
9.53585e-10
-2.11288e-08
9.42708e-10
-2.20599e-08
9.31074e-10
-2.29787e-08
9.1884e-10
-2.38849e-08
9.06135e-10
-2.47779e-08
8.93051e-10
-2.56576e-08
8.79678e-10
-2.65237e-08
8.66111e-10
-2.73761e-08
8.52401e-10
-2.82147e-08
8.38589e-10
-2.90394e-08
8.24732e-10
-2.98503e-08
8.10892e-10
-3.06474e-08
7.97101e-10
-3.14308e-08
7.83356e-10
-3.22004e-08
7.69673e-10
-3.29565e-08
7.56085e-10
-3.36992e-08
7.42619e-10
-3.44284e-08
7.29277e-10
-3.51445e-08
7.16056e-10
-3.58475e-08
7.02976e-10
-3.65375e-08
6.90056e-10
-3.72148e-08
6.77297e-10
-3.78795e-08
6.64692e-10
-3.85318e-08
6.52247e-10
-3.91717e-08
6.39981e-10
-3.97996e-08
6.279e-10
-4.04156e-08
6.15997e-10
-4.10199e-08
6.04268e-10
-4.16126e-08
5.92719e-10
-4.2194e-08
5.81359e-10
-4.27642e-08
5.70187e-10
-4.33234e-08
5.59183e-10
-4.38717e-08
5.4834e-10
-4.44094e-08
5.37669e-10
-4.49365e-08
5.27172e-10
-4.54534e-08
5.16827e-10
-4.596e-08
5.06612e-10
-4.64565e-08
4.96524e-10
-4.69431e-08
4.86559e-10
-4.74198e-08
4.76706e-10
-4.78867e-08
4.66952e-10
-4.8344e-08
4.57274e-10
-4.87916e-08
4.47643e-10
-4.92297e-08
4.38042e-10
-4.96581e-08
4.28459e-10
-5.0077e-08
4.1887e-10
-5.04862e-08
4.09231e-10
-5.08857e-08
3.99498e-10
-5.12754e-08
3.89641e-10
-5.1655e-08
3.79626e-10
-5.20244e-08
3.69411e-10
-5.23834e-08
3.58942e-10
-5.27315e-08
3.48171e-10
-5.30686e-08
3.37048e-10
-5.33941e-08
3.25525e-10
-5.37077e-08
3.13546e-10
-5.40087e-08
3.01054e-10
-5.42967e-08
2.87978e-10
-5.45709e-08
2.74245e-10
-5.48307e-08
2.59784e-10
-5.50752e-08
2.44519e-10
-5.53036e-08
2.28368e-10
-5.55148e-08
2.11238e-10
-5.57079e-08
1.93033e-10
-5.58815e-08
1.73664e-10
-5.60346e-08
1.53043e-10
-5.61657e-08
1.31084e-10
-5.62734e-08
1.0769e-10
-5.63561e-08
8.27578e-11
-5.64123e-08
5.61868e-11
-5.64402e-08
2.7882e-11
-5.64379e-08
-2.24349e-12
-5.64037e-08
-3.42684e-11
-5.63354e-08
-6.8272e-11
-5.62311e-08
-1.04332e-10
-5.60886e-08
-1.42523e-10
-5.59056e-08
-1.82914e-10
-5.56801e-08
-2.25556e-10
-5.54096e-08
-2.70486e-10
-5.50919e-08
-3.17722e-10
-5.47246e-08
-3.6727e-10
-5.43055e-08
-4.1912e-10
-5.38322e-08
-4.73236e-10
-5.33027e-08
-5.29559e-10
-5.27147e-08
-5.87995e-10
-5.20663e-08
-6.48427e-10
-5.13555e-08
-7.10711e-10
-5.05809e-08
-7.7468e-10
-4.97407e-08
-8.40131e-10
-4.88339e-08
-9.06824e-10
-4.78594e-08
-9.74474e-10
-4.68167e-08
-1.04276e-09
-4.57054e-08
-1.11131e-09
-4.45256e-08
-1.17975e-09
-4.3278e-08
-1.24764e-09
-4.19635e-08
-1.31453e-09
-4.05835e-08
-1.37991e-09
-3.91403e-08
-1.44326e-09
-3.76363e-08
-1.50402e-09
-3.60747e-08
-1.56159e-09
-3.44593e-08
-1.61538e-09
-3.27945e-08
-1.66476e-09
-3.10854e-08
-1.70911e-09
-2.93376e-08
-1.74777e-09
-2.75575e-08
-1.7801e-09
-2.57521e-08
-1.80546e-09
-2.39289e-08
-1.8232e-09
-2.20962e-08
-1.83271e-09
-2.02628e-08
-1.83341e-09
-1.8438e-08
-1.82473e-09
-1.66319e-08
-1.80616e-09
-1.48547e-08
-1.77719e-09
-1.31173e-08
-1.73737e-09
-1.1431e-08
-1.68627e-09
-9.80751e-09
-1.62354e-09
-8.25863e-09
-1.54888e-09
-6.79661e-09
-1.46202e-09
-5.43382e-09
-1.36278e-09
-4.18277e-09
-1.25105e-09
-3.05594e-09
-1.12683e-09
-2.06567e-09
-9.90269e-10
-1.22386e-09
-8.4181e-10
-5.41551e-10
-6.82313e-10
-2.81243e-11
-5.13428e-10
3.10163e-10
-3.38288e-10
4.72717e-10
-1.62554e-10
4.69951e-10
2.76548e-12
3.31988e-10
1.37964e-10
1.2926e-10
2.0273e-10
1.29263e-10
1.53416e-10
-2.31536e-10
3.60057e-10
-3.48402e-10
4.77208e-10
-2.34979e-10
4.237e-10
7.67403e-13
1.50417e-10
3.07703e-10
-3.68278e-10
6.50906e-10
-1.14145e-09
1.00564e-09
-2.16651e-09
1.35537e-09
-3.43338e-09
1.68971e-09
-4.92717e-09
2.00225e-09
-6.63013e-09
2.28939e-09
-8.52313e-09
2.54937e-09
-1.05865e-08
2.78171e-09
-1.28005e-08
2.98678e-09
-1.51463e-08
3.16552e-09
-1.76056e-08
3.3192e-09
-2.01613e-08
3.4494e-09
-2.27976e-08
3.55774e-09
-2.54995e-08
3.64597e-09
-2.82537e-08
3.71585e-09
-3.10478e-08
3.76903e-09
-3.38708e-08
3.8072e-09
-3.67126e-08
3.83194e-09
-3.95646e-08
3.84475e-09
-4.24187e-08
3.84699e-09
-4.52681e-08
3.83998e-09
-4.81067e-08
3.82487e-09
-5.09293e-08
3.80273e-09
-5.37314e-08
3.77454e-09
-5.6509e-08
3.74119e-09
-5.92589e-08
3.70347e-09
-6.19783e-08
3.66206e-09
-6.46648e-08
3.61758e-09
-6.73165e-08
3.57058e-09
-6.99319e-08
3.52155e-09
-7.25097e-08
3.47088e-09
-7.5049e-08
3.41894e-09
-7.7549e-08
3.36606e-09
-8.0009e-08
3.31248e-09
-8.24289e-08
3.25842e-09
-8.48082e-08
3.2041e-09
-8.7147e-08
3.14968e-09
-8.94452e-08
3.09531e-09
-9.1703e-08
3.04108e-09
-9.39204e-08
2.98708e-09
-9.60977e-08
2.9334e-09
-9.82352e-08
2.88013e-09
-1.00333e-07
2.82731e-09
-1.02392e-07
2.77496e-09
-1.04412e-07
2.72316e-09
-1.06394e-07
2.67193e-09
-1.08338e-07
2.6213e-09
-1.10245e-07
2.57128e-09
-1.12114e-07
2.52191e-09
-1.13948e-07
2.47322e-09
-1.15745e-07
2.42523e-09
-1.17507e-07
2.37792e-09
-1.19234e-07
2.33131e-09
-1.20927e-07
2.28541e-09
-1.22586e-07
2.24023e-09
-1.24211e-07
2.19574e-09
-1.25804e-07
2.15193e-09
-1.27364e-07
2.10878e-09
-1.28893e-07
2.06628e-09
-1.3039e-07
2.0244e-09
-1.31856e-07
1.9831e-09
-1.33292e-07
1.94235e-09
-1.34698e-07
1.90209e-09
-1.36073e-07
1.86229e-09
-1.3742e-07
1.8229e-09
-1.38737e-07
1.78387e-09
-1.40024e-07
1.74511e-09
-1.41283e-07
1.70654e-09
-1.42513e-07
1.66808e-09
-1.43714e-07
1.62964e-09
-1.44887e-07
1.59112e-09
-1.4603e-07
1.55238e-09
-1.47144e-07
1.5133e-09
-1.48228e-07
1.47373e-09
-1.49282e-07
1.43352e-09
-1.50305e-07
1.39252e-09
-1.51296e-07
1.35055e-09
-1.52256e-07
1.30741e-09
-1.53181e-07
1.26292e-09
-1.54073e-07
1.21686e-09
-1.54928e-07
1.16903e-09
-1.55746e-07
1.11919e-09
-1.56526e-07
1.06708e-09
-1.57264e-07
1.01244e-09
-1.57959e-07
9.54979e-10
-1.58609e-07
8.94414e-10
-1.59211e-07
8.30436e-10
-1.59762e-07
7.62718e-10
-1.6026e-07
6.90927e-10
-1.60701e-07
6.14727e-10
-1.61082e-07
5.33783e-10
-1.61399e-07
4.47752e-10
-1.61647e-07
3.56281e-10
-1.61824e-07
2.59011e-10
-1.61923e-07
1.55587e-10
-1.61941e-07
4.56604e-11
-1.61872e-07
-7.10983e-11
-1.61711e-07
-1.95002e-10
-1.61453e-07
-3.26344e-10
-1.61092e-07
-4.65403e-10
-1.60622e-07
-6.1243e-10
-1.60037e-07
-7.67643e-10
-1.59332e-07
-9.31217e-10
-1.58499e-07
-1.10327e-09
-1.57533e-07
-1.28386e-09
-1.56427e-07
-1.473e-09
-1.55176e-07
-1.67059e-09
-1.53772e-07
-1.87648e-09
-1.52212e-07
-2.09042e-09
-1.50487e-07
-2.31207e-09
-1.48595e-07
-2.54096e-09
-1.46529e-07
-2.77656e-09
-1.44286e-07
-3.01819e-09
-1.41861e-07
-3.26506e-09
-1.39251e-07
-3.51624e-09
-1.36455e-07
-3.77068e-09
-1.33471e-07
-4.02715e-09
-1.30298e-07
-4.28432e-09
-1.26937e-07
-4.54072e-09
-1.2339e-07
-4.79474e-09
-1.19659e-07
-5.04464e-09
-1.15751e-07
-5.28857e-09
-1.11669e-07
-5.52455e-09
-1.07423e-07
-5.75051e-09
-1.0302e-07
-5.96426e-09
-9.84721e-08
-6.16357e-09
-9.37908e-08
-6.34612e-09
-8.89903e-08
-6.50956e-09
-8.40866e-08
-6.65151e-09
-7.90971e-08
-6.76959e-09
-7.40411e-08
-6.86144e-09
-6.89396e-08
-6.92474e-09
-6.38151e-08
-6.95723e-09
-5.86917e-08
-6.95675e-09
-5.35952e-08
-6.92126e-09
-4.85525e-08
-6.84885e-09
-4.3592e-08
-6.73773e-09
-3.8743e-08
-6.5863e-09
-3.40361e-08
-6.39316e-09
-2.95026e-08
-6.15711e-09
-2.51742e-08
-5.87721e-09
-2.10835e-08
-5.55278e-09
-1.72627e-08
-5.18352e-09
-1.37443e-08
-4.76952e-09
-1.05596e-08
-4.3115e-09
-7.73884e-09
-3.81101e-09
-5.30979e-09
-3.27086e-09
-3.29627e-09
-2.69583e-09
-1.71585e-09
-2.09385e-09
-5.76148e-10
-1.47799e-09
1.31192e-10
-8.69893e-10
4.39418e-10
-3.0546e-10
4.2064e-10
1.56747e-10
2.02183e-10
4.21193e-10
3.31447e-10
1.4306e-10
-3.74594e-10
2.79293e-10
-4.84638e-10
2.44233e-10
-1.99925e-10
-6.10623e-11
3.0606e-10
-6.98035e-10
9.44688e-10
-1.70038e-09
1.65324e-09
-3.08094e-09
2.38621e-09
-4.83765e-09
3.11208e-09
-6.95778e-09
3.80984e-09
-9.42145e-09
4.46593e-09
-1.22042e-08
5.07217e-09
-1.5279e-08
5.62411e-09
-1.86172e-08
6.11994e-09
-2.21902e-08
6.55977e-09
-2.59697e-08
6.94497e-09
-2.99282e-08
7.27778e-09
-3.40399e-08
7.56107e-09
-3.82802e-08
7.79803e-09
-4.26263e-08
7.99208e-09
-4.70571e-08
8.1467e-09
-5.15535e-08
8.26538e-09
-5.60978e-08
8.35153e-09
-6.06743e-08
8.40843e-09
-6.52688e-08
8.4392e-09
-6.98686e-08
8.44678e-09
-7.44625e-08
8.43389e-09
-7.90407e-08
8.40305e-09
-8.35945e-08
8.35657e-09
-8.81165e-08
8.29655e-09
-9.26003e-08
8.22492e-09
-9.70402e-08
8.14337e-09
-1.01432e-07
8.05344e-09
-1.0577e-07
7.95648e-09
-1.10054e-07
7.85371e-09
-1.14278e-07
7.74618e-09
-1.18442e-07
7.63481e-09
-1.22544e-07
7.52042e-09
-1.26581e-07
7.4037e-09
-1.30554e-07
7.28524e-09
-1.34461e-07
7.16557e-09
-1.38302e-07
7.04513e-09
-1.42077e-07
6.92433e-09
-1.45785e-07
6.80347e-09
-1.49427e-07
6.68282e-09
-1.53002e-07
6.5626e-09
-1.56512e-07
6.44302e-09
-1.59956e-07
6.32424e-09
-1.63335e-07
6.2064e-09
-1.6665e-07
6.08962e-09
-1.69901e-07
5.974e-09
-1.73088e-07
5.85962e-09
-1.76214e-07
5.74655e-09
-1.79277e-07
5.63484e-09
-1.8228e-07
5.52456e-09
-1.85222e-07
5.41576e-09
-1.88106e-07
5.30848e-09
-1.9093e-07
5.20272e-09
-1.93698e-07
5.0985e-09
-1.96408e-07
4.99584e-09
-1.99062e-07
4.89473e-09
-2.01662e-07
4.79515e-09
-2.04207e-07
4.69707e-09
-2.06699e-07
4.60043e-09
-2.09138e-07
4.50522e-09
-2.11525e-07
4.41137e-09
-2.1386e-07
4.31879e-09
-2.16145e-07
4.2274e-09
-2.1838e-07
4.13712e-09
-2.20566e-07
4.04783e-09
-2.22702e-07
3.95943e-09
-2.2479e-07
3.87176e-09
-2.2683e-07
3.78468e-09
-2.28821e-07
3.698e-09
-2.30765e-07
3.61154e-09
-2.3266e-07
3.52509e-09
-2.34508e-07
3.43841e-09
-2.36306e-07
3.35123e-09
-2.38056e-07
3.26327e-09
-2.39757e-07
3.17423e-09
-2.41407e-07
3.08379e-09
-2.43006e-07
2.99158e-09
-2.44553e-07
2.89724e-09
-2.46046e-07
2.80035e-09
-2.47483e-07
2.70049e-09
-2.48864e-07
2.5972e-09
-2.50185e-07
2.49e-09
-2.51444e-07
2.37839e-09
-2.52639e-07
2.26182e-09
-2.53766e-07
2.13971e-09
-2.54822e-07
2.01145e-09
-2.55804e-07
1.87643e-09
-2.56708e-07
1.73398e-09
-2.57529e-07
1.58342e-09
-2.58262e-07
1.42405e-09
-2.58902e-07
1.25516e-09
-2.59444e-07
1.07602e-09
-2.59883e-07
8.85897e-10
-2.6021e-07
6.84047e-10
-2.60421e-07
4.69718e-10
-2.60508e-07
2.42165e-10
-2.60463e-07
6.65817e-13
-2.60278e-07
-2.55478e-10
-2.59946e-07
-5.2693e-10
-2.59458e-07
-8.14311e-10
-2.58806e-07
-1.1182e-09
-2.57979e-07
-1.43909e-09
-2.56969e-07
-1.77743e-09
-2.55767e-07
-2.13355e-09
-2.54362e-07
-2.50767e-09
-2.52746e-07
-2.89991e-09
-2.50909e-07
-3.3102e-09
-2.48841e-07
-3.73837e-09
-2.46534e-07
-4.18403e-09
-2.43978e-07
-4.64662e-09
-2.41164e-07
-5.12538e-09
-2.38086e-07
-5.61931e-09
-2.34735e-07
-6.12719e-09
-2.31106e-07
-6.64756e-09
-2.27192e-07
-7.17868e-09
-2.2299e-07
-7.71855e-09
-2.18496e-07
-8.26487e-09
-2.13708e-07
-8.81506e-09
-2.08626e-07
-9.36624e-09
-2.03251e-07
-9.91525e-09
-1.97588e-07
-1.04587e-08
-1.91639e-07
-1.09928e-08
-1.85414e-07
-1.15136e-08
-1.78922e-07
-1.20169e-08
-1.72174e-07
-1.24983e-08
-1.65185e-07
-1.29532e-08
-1.57972e-07
-1.33767e-08
-1.50554e-07
-1.37641e-08
-1.42954e-07
-1.41102e-08
-1.35195e-07
-1.44101e-08
-1.27306e-07
-1.46587e-08
-1.19316e-07
-1.48511e-08
-1.11259e-07
-1.49823e-08
-1.03168e-07
-1.50477e-08
-9.50822e-08
-1.50427e-08
-8.70405e-08
-1.4963e-08
-7.90848e-08
-1.48046e-08
-7.12587e-08
-1.45638e-08
-6.36075e-08
-1.42376e-08
-5.61777e-08
-1.38229e-08
-4.90171e-08
-1.33177e-08
-4.21742e-08
-1.27201e-08
-3.56977e-08
-1.20293e-08
-2.96361e-08
-1.12452e-08
-2.40369e-08
-1.03687e-08
-1.8946e-08
-9.4024e-09
-1.44062e-08
-8.35076e-09
-1.04559e-08
-7.22121e-09
-7.12626e-09
-6.02546e-09
-4.43838e-09
-4.78173e-09
-2.39828e-09
-3.51809e-09
-9.90212e-10
-2.27796e-09
-1.67387e-10
-1.12828e-09
1.59929e-10
-1.70566e-10
1.38145e-10
4.42983e-10
4.69594e-10
7.41118e-11
-4.48707e-10
4.38159e-11
-4.54336e-10
-2.51139e-10
9.50253e-11
-9.13226e-10
9.68147e-10
-2.0069e-09
2.03837e-09
-3.56809e-09
3.21443e-09
-5.61058e-09
4.4287e-09
-8.13179e-09
5.63328e-09
-1.11168e-08
6.7949e-09
-1.45423e-08
7.8914e-09
-1.83788e-08
8.90869e-09
-2.25934e-08
9.83864e-09
-2.71508e-08
1.06774e-08
-3.20154e-08
1.14243e-08
-3.71513e-08
1.20809e-08
-4.25238e-08
1.26503e-08
-4.80997e-08
1.31369e-08
-5.38471e-08
1.35455e-08
-5.97365e-08
1.38815e-08
-6.57402e-08
1.41505e-08
-7.1833e-08
1.43582e-08
-7.79916e-08
1.45101e-08
-8.41949e-08
1.46117e-08
-9.04239e-08
1.46682e-08
-9.66616e-08
1.46844e-08
-1.02893e-07
1.46651e-08
-1.09104e-07
1.46143e-08
-1.15284e-07
1.45361e-08
-1.21421e-07
1.4434e-08
-1.27508e-07
1.43114e-08
-1.33535e-07
1.41712e-08
-1.39498e-07
1.4016e-08
-1.4539e-07
1.38482e-08
-1.51206e-07
1.36699e-08
-1.56943e-07
1.34829e-08
-1.62597e-07
1.32889e-08
-1.68165e-07
1.30892e-08
-1.73647e-07
1.28852e-08
-1.7904e-07
1.26779e-08
-1.84342e-07
1.24682e-08
-1.89554e-07
1.2257e-08
-1.94675e-07
1.20449e-08
-1.99704e-07
1.18325e-08
-2.04641e-07
1.16203e-08
-2.09487e-07
1.14087e-08
-2.14242e-07
1.11982e-08
-2.18907e-07
1.09889e-08
-2.23482e-07
1.07813e-08
-2.27968e-07
1.05754e-08
-2.32365e-07
1.03715e-08
-2.36675e-07
1.01697e-08
-2.40899e-07
9.97025e-09
-2.45037e-07
9.77316e-09
-2.49091e-07
9.57855e-09
-2.53062e-07
9.38653e-09
-2.56951e-07
9.19713e-09
-2.60758e-07
9.01039e-09
-2.64486e-07
8.82634e-09
-2.68135e-07
8.64502e-09
-2.71707e-07
8.46638e-09
-2.75202e-07
8.29039e-09
-2.78622e-07
8.11702e-09
-2.81968e-07
7.94619e-09
-2.85241e-07
7.77782e-09
-2.88441e-07
7.61181e-09
-2.9157e-07
7.44803e-09
-2.94629e-07
7.28632e-09
-2.97619e-07
7.12653e-09
-3.00539e-07
6.96846e-09
-3.03392e-07
6.8119e-09
-3.06177e-07
6.6566e-09
-3.08894e-07
6.50229e-09
-3.11545e-07
6.34866e-09
-3.14129e-07
6.19537e-09
-3.16646e-07
6.04206e-09
-3.19096e-07
5.8883e-09
-3.21478e-07
5.73366e-09
-3.23792e-07
5.57764e-09
-3.26038e-07
5.41973e-09
-3.28213e-07
5.25936e-09
-3.30318e-07
5.09591e-09
-3.32349e-07
4.92875e-09
-3.34306e-07
4.75716e-09
-3.36186e-07
4.58042e-09
-3.37987e-07
4.39775e-09
-3.39705e-07
4.2083e-09
-3.41338e-07
4.0112e-09
-3.42881e-07
3.80552e-09
-3.44332e-07
3.59027e-09
-3.45685e-07
3.36444e-09
-3.46935e-07
3.12695e-09
-3.48078e-07
2.87669e-09
-3.49107e-07
2.61251e-09
-3.50016e-07
2.33322e-09
-3.50799e-07
2.03761e-09
-3.51447e-07
1.72446e-09
-3.51954e-07
1.39252e-09
-3.5231e-07
1.04055e-09
-3.52508e-07
6.67271e-10
-3.52537e-07
2.71457e-10
-3.52388e-07
-1.48106e-10
-3.52051e-07
-5.92584e-10
-3.51515e-07
-1.06308e-09
-3.50769e-07
-1.56063e-09
-3.49801e-07
-2.08618e-09
-3.48599e-07
-2.64056e-09
-3.47152e-07
-3.22445e-09
-3.45448e-07
-3.83839e-09
-3.43473e-07
-4.48272e-09
-3.41215e-07
-5.15756e-09
-3.38662e-07
-5.8628e-09
-3.35803e-07
-6.59807e-09
-3.32624e-07
-7.36268e-09
-3.29115e-07
-8.15564e-09
-3.25265e-07
-8.97561e-09
-3.21063e-07
-9.82085e-09
-3.16501e-07
-1.06893e-08
-3.1157e-07
-1.15783e-08
-3.06264e-07
-1.24849e-08
-3.00577e-07
-1.34058e-08
-2.94505e-07
-1.43369e-08
-2.88046e-07
-1.52739e-08
-2.812e-07
-1.62119e-08
-2.7397e-07
-1.71455e-08
-2.6636e-07
-1.80689e-08
-2.58377e-07
-1.89757e-08
-2.50031e-07
-1.98593e-08
-2.41336e-07
-2.07125e-08
-2.32306e-07
-2.15279e-08
-2.22962e-07
-2.22976e-08
-2.13325e-07
-2.30136e-08
-2.03421e-07
-2.36676e-08
-1.9328e-07
-2.42512e-08
-1.82934e-07
-2.4756e-08
-1.72419e-07
-2.51735e-08
-1.61775e-07
-2.54953e-08
-1.51044e-07
-2.57132e-08
-1.40273e-07
-2.58194e-08
-1.29509e-07
-2.58063e-08
-1.18805e-07
-2.56667e-08
-1.08216e-07
-2.53941e-08
-9.77972e-08
-2.49826e-08
-8.76079e-08
-2.44268e-08
-7.77084e-08
-2.37225e-08
-6.81599e-08
-2.28661e-08
-5.90245e-08
-2.18555e-08
-5.03643e-08
-2.06896e-08
-4.22403e-08
-1.93691e-08
-3.47123e-08
-1.78967e-08
-2.78368e-08
-1.62779e-08
-2.16658e-08
-1.45217e-08
-1.62451e-08
-1.2642e-08
-1.16108e-08
-1.06598e-08
-7.78615e-09
-8.60634e-09
-4.77682e-09
-6.52743e-09
-2.56434e-09
-4.49044e-09
-1.09858e-09
-2.59404e-09
-2.88773e-10
-9.80367e-10
6.75505e-12
1.47457e-10
4.76351e-10
-2.1243e-11
-4.27466e-10
-2.77066e-10
-1.98526e-10
-9.05006e-10
7.22978e-10
-1.99863e-09
2.06177e-09
-3.61771e-09
3.65744e-09
-5.79527e-09
5.392e-09
-8.54318e-09
7.17661e-09
-1.18566e-08
8.94674e-09
-1.57183e-08
1.06565e-08
-2.01013e-08
1.22745e-08
-2.49725e-08
1.37799e-08
-3.02941e-08
1.51602e-08
-3.60258e-08
1.64091e-08
-4.21262e-08
1.75246e-08
-4.85536e-08
1.85083e-08
-5.52672e-08
1.9364e-08
-6.22276e-08
2.00973e-08
-6.93973e-08
2.07151e-08
-7.67406e-08
2.12248e-08
-8.42245e-08
2.16344e-08
-9.18182e-08
2.19519e-08
-9.94936e-08
2.21855e-08
-1.07225e-07
2.2343e-08
-1.14989e-07
2.24321e-08
-1.22764e-07
2.24599e-08
-1.30533e-07
2.24333e-08
-1.38277e-07
2.23586e-08
-1.45983e-07
2.22418e-08
-1.53637e-07
2.20881e-08
-1.61228e-07
2.19026e-08
-1.68746e-07
2.16896e-08
-1.76183e-07
2.14533e-08
-1.83532e-07
2.11971e-08
-1.90787e-07
2.09244e-08
-1.97942e-07
2.0638e-08
-2.04993e-07
2.03403e-08
-2.11938e-07
2.00336e-08
-2.18772e-07
1.97198e-08
-2.25495e-07
1.94006e-08
-2.32104e-07
1.90775e-08
-2.38599e-07
1.87516e-08
-2.44978e-07
1.84241e-08
-2.51242e-07
1.80959e-08
-2.57389e-07
1.77679e-08
-2.63421e-07
1.74406e-08
-2.69338e-07
1.71148e-08
-2.7514e-07
1.67909e-08
-2.80828e-07
1.64692e-08
-2.86403e-07
1.61503e-08
-2.91865e-07
1.58344e-08
-2.97217e-07
1.55217e-08
-3.0246e-07
1.52125e-08
-3.07593e-07
1.4907e-08
-3.1262e-07
1.46053e-08
-3.17541e-07
1.43075e-08
-3.22358e-07
1.40137e-08
-3.27071e-07
1.37241e-08
-3.31684e-07
1.34386e-08
-3.36196e-07
1.31573e-08
-3.4061e-07
1.28801e-08
-3.44926e-07
1.2607e-08
-3.49147e-07
1.23379e-08
-3.53274e-07
1.20726e-08
-3.57307e-07
1.18112e-08
-3.61249e-07
1.15534e-08
-3.651e-07
1.1299e-08
-3.68861e-07
1.10478e-08
-3.72534e-07
1.07995e-08
-3.76119e-07
1.05538e-08
-3.79618e-07
1.03105e-08
-3.8303e-07
1.0069e-08
-3.86357e-07
9.82902e-09
-3.89598e-07
9.59005e-09
-3.92755e-07
9.35159e-09
-3.95826e-07
9.11305e-09
-3.98811e-07
8.87381e-09
-4.01711e-07
8.63318e-09
-4.04523e-07
8.39042e-09
-4.07248e-07
8.14476e-09
-4.09884e-07
7.89532e-09
-4.1243e-07
7.64119e-09
-4.14882e-07
7.38136e-09
-4.1724e-07
7.11481e-09
-4.195e-07
6.84039e-09
-4.21659e-07
6.55695e-09
-4.23714e-07
6.2632e-09
-4.25661e-07
5.95782e-09
-4.27495e-07
5.63941e-09
-4.29211e-07
5.30649e-09
-4.30804e-07
4.95753e-09
-4.32268e-07
4.59093e-09
-4.33596e-07
4.20503e-09
-4.34782e-07
3.7981e-09
-4.35817e-07
3.36838e-09
-4.36693e-07
2.91405e-09
-4.37402e-07
2.43331e-09
-4.37934e-07
1.92429e-09
-4.38279e-07
1.38513e-09
-4.38425e-07
8.1397e-10
-4.38363e-07
2.08981e-10
-4.38079e-07
-4.31624e-10
-4.37562e-07
-1.10956e-09
-4.36799e-07
-1.82645e-09
-4.35776e-07
-2.58381e-09
-4.34479e-07
-3.38301e-09
-4.32894e-07
-4.22525e-09
-4.31007e-07
-5.11152e-09
-4.28803e-07
-6.04254e-09
-4.26267e-07
-7.01878e-09
-4.23384e-07
-8.04038e-09
-4.2014e-07
-9.10712e-09
-4.16519e-07
-1.02184e-08
-4.12509e-07
-1.13731e-08
-4.08095e-07
-1.25696e-08
-4.03265e-07
-1.38061e-08
-3.98006e-07
-1.50797e-08
-3.92308e-07
-1.63872e-08
-3.86161e-07
-1.77249e-08
-3.79558e-07
-1.90883e-08
-3.72492e-07
-2.0472e-08
-3.64958e-07
-2.18702e-08
-3.56956e-07
-2.32764e-08
-3.48485e-07
-2.46831e-08
-3.39548e-07
-2.60824e-08
-3.30151e-07
-2.74655e-08
-3.20304e-07
-2.8823e-08
-3.10018e-07
-3.01448e-08
-2.9931e-07
-3.14205e-08
-2.882e-07
-3.26387e-08
-2.76709e-07
-3.37878e-08
-2.64867e-07
-3.4856e-08
-2.52704e-07
-3.58309e-08
-2.40255e-07
-3.66999e-08
-2.2756e-07
-3.74506e-08
-2.14663e-07
-3.80705e-08
-2.01612e-07
-3.85471e-08
-1.88456e-07
-3.88683e-08
-1.75253e-07
-3.90225e-08
-1.62061e-07
-3.89987e-08
-1.48941e-07
-3.87862e-08
-1.3596e-07
-3.83757e-08
-1.23184e-07
-3.77585e-08
-1.10684e-07
-3.69272e-08
-9.85304e-08
-3.58756e-08
-8.67972e-08
-3.45993e-08
-7.55572e-08
-3.30955e-08
-6.4883e-08
-3.13637e-08
-5.48463e-08
-2.94058e-08
-4.5516e-08
-2.72271e-08
-3.6957e-08
-2.48369e-08
-2.92287e-08
-2.225e-08
-2.23822e-08
-1.94884e-08
-1.6458e-08
-1.6584e-08
-1.14823e-08
-1.35821e-08
-7.46253e-09
-1.05472e-08
-4.38279e-09
-7.57018e-09
-2.19785e-09
-4.77898e-09
-8.27562e-10
-2.35066e-09
-1.51286e-10
-5.28816e-10
3.25063e-10
-1.26567e-10
-3.00885e-10
-6.39913e-10
3.14823e-10
-1.64561e-09
1.72866e-09
-3.21981e-09
3.63597e-09
-5.41154e-09
5.84918e-09
-8.24662e-09
8.22707e-09
-1.17318e-08
1.06618e-08
-1.58584e-08
1.30733e-08
-2.06055e-08
1.54036e-08
-2.59427e-08
1.76118e-08
-3.18332e-08
1.96703e-08
-3.8235e-08
2.15621e-08
-4.51036e-08
2.32777e-08
-5.23927e-08
2.48138e-08
-6.00561e-08
2.61716e-08
-6.80478e-08
2.73557e-08
-7.63234e-08
2.8373e-08
-8.48403e-08
2.9232e-08
-9.35581e-08
2.99426e-08
-1.02439e-07
3.05151e-08
-1.11447e-07
3.09603e-08
-1.20551e-07
3.1289e-08
-1.2972e-07
3.15118e-08
-1.38927e-07
3.1639e-08
-1.48147e-07
3.16804e-08
-1.57359e-07
3.16453e-08
-1.66543e-07
3.15425e-08
-1.75681e-07
3.13799e-08
-1.84758e-07
3.11652e-08
-1.93761e-07
3.09051e-08
-2.02677e-07
3.06059e-08
-2.11497e-07
3.02731e-08
-2.20212e-07
2.99119e-08
-2.28814e-07
2.95267e-08
-2.37297e-07
2.91216e-08
-2.45657e-07
2.87001e-08
-2.53889e-07
2.82653e-08
-2.61989e-07
2.782e-08
-2.69955e-07
2.73666e-08
-2.77785e-07
2.69073e-08
-2.85477e-07
2.64437e-08
-2.93031e-07
2.59776e-08
-3.00445e-07
2.55102e-08
-3.0772e-07
2.50428e-08
-3.14855e-07
2.45763e-08
-3.21852e-07
2.41116e-08
-3.28711e-07
2.36495e-08
-3.35432e-07
2.31905e-08
-3.42017e-07
2.27353e-08
-3.48467e-07
2.22843e-08
-3.54783e-07
2.18379e-08
-3.60967e-07
2.13963e-08
-3.6702e-07
2.096e-08
-3.72944e-07
2.05291e-08
-3.7874e-07
2.01037e-08
-3.84411e-07
1.96841e-08
-3.89957e-07
1.92703e-08
-3.95381e-07
1.88624e-08
-4.00684e-07
1.84604e-08
-4.05868e-07
1.80642e-08
-4.10935e-07
1.76739e-08
-4.15886e-07
1.72892e-08
-4.20723e-07
1.69101e-08
-4.25449e-07
1.65363e-08
-4.30063e-07
1.61676e-08
-4.34568e-07
1.58038e-08
-4.38964e-07
1.54445e-08
-4.43254e-07
1.50893e-08
-4.47438e-07
1.47379e-08
-4.51517e-07
1.43896e-08
-4.55492e-07
1.4044e-08
-4.59364e-07
1.37006e-08
-4.63132e-07
1.33585e-08
-4.66798e-07
1.30171e-08
-4.7036e-07
1.26756e-08
-4.7382e-07
1.23331e-08
-4.77175e-07
1.19886e-08
-4.80426e-07
1.16411e-08
-4.8357e-07
1.12895e-08
-4.86608e-07
1.09326e-08
-4.89536e-07
1.0569e-08
-4.92352e-07
1.01975e-08
-4.95053e-07
9.81657e-09
-4.97638e-07
9.42459e-09
-5.00101e-07
9.01995e-09
-5.02438e-07
8.60089e-09
-5.04646e-07
8.16556e-09
-5.06719e-07
7.712e-09
-5.0865e-07
7.23819e-09
-5.10435e-07
6.742e-09
-5.12065e-07
6.22121e-09
-5.13534e-07
5.67352e-09
-5.14832e-07
5.09655e-09
-5.15952e-07
4.48789e-09
-5.16883e-07
3.84504e-09
-5.17615e-07
3.16549e-09
-5.18137e-07
2.44669e-09
-5.18438e-07
1.68608e-09
-5.18505e-07
8.81123e-10
-5.18326e-07
2.93197e-11
-5.17885e-07
-8.71765e-10
-5.17171e-07
-1.82447e-09
-5.16166e-07
-2.831e-09
-5.14856e-07
-3.89341e-09
-5.13226e-07
-5.01354e-09
-5.11258e-07
-6.193e-09
-5.08937e-07
-7.43309e-09
-5.06244e-07
-8.73477e-09
-5.03164e-07
-1.00986e-08
-4.9968e-07
-1.15247e-08
-4.95774e-07
-1.30128e-08
-4.91431e-07
-1.45619e-08
-4.86634e-07
-1.61704e-08
-4.81367e-07
-1.78361e-08
-4.75617e-07
-1.95563e-08
-4.6937e-07
-2.1327e-08
-4.62613e-07
-2.31439e-08
-4.55336e-07
-2.50016e-08
-4.47531e-07
-2.68937e-08
-4.3919e-07
-2.88131e-08
-4.30308e-07
-3.07516e-08
-4.20885e-07
-3.27e-08
-4.1092e-07
-3.46482e-08
-4.00417e-07
-3.65851e-08
-3.89384e-07
-3.84987e-08
-3.77831e-07
-4.03759e-08
-3.65773e-07
-4.2203e-08
-3.53228e-07
-4.39652e-08
-3.40219e-07
-4.56474e-08
-3.26774e-07
-4.72334e-08
-3.12923e-07
-4.87068e-08
-2.98703e-07
-5.00507e-08
-2.84155e-07
-5.12481e-08
-2.69324e-07
-5.22816e-08
-2.5426e-07
-5.31341e-08
-2.39019e-07
-5.37887e-08
-2.23658e-07
-5.42289e-08
-2.08242e-07
-5.44387e-08
-1.92837e-07
-5.44031e-08
-1.77515e-07
-5.41081e-08
-1.62351e-07
-5.35406e-08
-1.4742e-07
-5.26893e-08
-1.32803e-07
-5.15444e-08
-1.1858e-07
-5.0098e-08
-1.04835e-07
-4.83447e-08
-9.16489e-08
-4.62814e-08
-7.91042e-08
-4.39083e-08
-6.72807e-08
-4.12293e-08
-5.62549e-08
-3.82528e-08
-4.60989e-08
-3.49929e-08
-3.68779e-08
-3.14711e-08
-2.86483e-08
-2.7718e-08
-2.14551e-08
-2.37772e-08
-1.53286e-08
-1.97085e-08
-1.02814e-08
-1.55944e-08
-6.30442e-09
-1.15472e-08
-3.36363e-09
-7.71976e-09
-1.39747e-09
-4.31681e-09
-3.15629e-10
-1.61066e-09
9.43554e-12
-2.34418e-10
-6.64753e-11
-1.01956e-09
1.09996e-09
-2.4269e-09
3.13601e-09
-4.51045e-09
5.71952e-09
-7.30398e-09
8.6427e-09
-1.08228e-08
1.17458e-08
-1.50659e-08
1.49049e-08
-2.00188e-08
1.80262e-08
-2.56558e-08
2.10406e-08
-3.19425e-08
2.38985e-08
-3.88379e-08
2.65657e-08
-4.62964e-08
2.90205e-08
-5.42693e-08
3.12506e-08
-6.27065e-08
3.3251e-08
-7.15574e-08
3.50225e-08
-8.07719e-08
3.65703e-08
-9.03015e-08
3.79025e-08
-1.00099e-07
3.90296e-08
-1.1012e-07
3.99636e-08
-1.20323e-07
4.07176e-08
-1.30667e-07
4.13051e-08
-1.41118e-07
4.17398e-08
-1.51641e-07
4.2035e-08
-1.62206e-07
4.22042e-08
-1.72786e-07
4.22599e-08
-1.83355e-07
4.22141e-08
-1.9389e-07
4.20781e-08
-2.04373e-07
4.18626e-08
-2.14785e-07
4.15772e-08
-2.25111e-07
4.1231e-08
-2.35337e-07
4.08321e-08
-2.45452e-07
4.0388e-08
-2.55445e-07
3.99052e-08
-2.65308e-07
3.93899e-08
-2.75034e-07
3.88474e-08
-2.84617e-07
3.82825e-08
-2.94051e-07
3.76993e-08
-3.03332e-07
3.71015e-08
-3.12458e-07
3.64924e-08
-3.21426e-07
3.58749e-08
-3.30233e-07
3.52514e-08
-3.3888e-07
3.46241e-08
-3.47364e-07
3.39948e-08
-3.55687e-07
3.33652e-08
-3.63847e-07
3.27366e-08
-3.71846e-07
3.21102e-08
-3.79683e-07
3.14872e-08
-3.87361e-07
3.08683e-08
-3.9488e-07
3.02543e-08
-4.02242e-07
2.96459e-08
-4.09447e-07
2.90436e-08
-4.16499e-07
2.84478e-08
-4.23398e-07
2.7859e-08
-4.30146e-07
2.72775e-08
-4.36746e-07
2.67034e-08
-4.43199e-07
2.61371e-08
-4.49507e-07
2.55786e-08
-4.55673e-07
2.5028e-08
-4.61698e-07
2.44854e-08
-4.67584e-07
2.39506e-08
-4.73334e-07
2.34236e-08
-4.78949e-07
2.29042e-08
-4.84431e-07
2.23923e-08
-4.89783e-07
2.18876e-08
-4.95005e-07
2.13898e-08
-5.00099e-07
2.08984e-08
-5.05068e-07
2.04131e-08
-5.09912e-07
1.99333e-08
-5.14633e-07
1.94586e-08
-5.19231e-07
1.89881e-08
-5.23708e-07
1.85212e-08
-5.28065e-07
1.80571e-08
-5.32301e-07
1.75948e-08
-5.36418e-07
1.71335e-08
-5.40414e-07
1.6672e-08
-5.4429e-07
1.62092e-08
-5.48045e-07
1.57437e-08
-5.51679e-07
1.52743e-08
-5.55188e-07
1.47994e-08
-5.58573e-07
1.43175e-08
-5.61831e-07
1.38268e-08
-5.64959e-07
1.33255e-08
-5.67954e-07
1.28117e-08
-5.70813e-07
1.22833e-08
-5.73531e-07
1.17382e-08
-5.76104e-07
1.1174e-08
-5.78527e-07
1.05884e-08
-5.80794e-07
9.97863e-09
-5.82898e-07
9.34219e-09
-5.84832e-07
8.67624e-09
-5.86589e-07
7.97787e-09
-5.88159e-07
7.2441e-09
-5.89535e-07
6.47181e-09
-5.90704e-07
5.65784e-09
-5.91658e-07
4.79895e-09
-5.92385e-07
3.89186e-09
-5.92871e-07
2.93325e-09
-5.93105e-07
1.91981e-09
-5.93072e-07
8.48235e-10
-5.92758e-07
-2.8471e-10
-5.92148e-07
-1.48217e-09
-5.91225e-07
-2.74717e-09
-5.89973e-07
-4.08255e-09
-5.88376e-07
-5.49094e-09
-5.86415e-07
-6.97472e-09
-5.84072e-07
-8.53591e-09
-5.81329e-07
-1.01762e-08
-5.78167e-07
-1.18967e-08
-5.74567e-07
-1.36981e-08
-5.70511e-07
-1.55806e-08
-5.65981e-07
-1.75436e-08
-5.60957e-07
-1.95858e-08
-5.55422e-07
-2.17052e-08
-5.49359e-07
-2.38988e-08
-5.42753e-07
-2.61626e-08
-5.35588e-07
-2.8492e-08
-5.27851e-07
-3.08808e-08
-5.19531e-07
-3.3322e-08
-5.10617e-07
-3.58073e-08
-5.01103e-07
-3.83273e-08
-4.90983e-07
-4.08713e-08
-4.80256e-07
-4.34272e-08
-4.68923e-07
-4.59818e-08
-4.56987e-07
-4.85206e-08
-4.44458e-07
-5.10279e-08
-4.31347e-07
-5.34866e-08
-4.17671e-07
-5.58789e-08
-4.03451e-07
-5.81855e-08
-3.88712e-07
-6.03865e-08
-3.73484e-07
-6.24611e-08
-3.57803e-07
-6.43879e-08
-3.41709e-07
-6.61448e-08
-3.25247e-07
-6.77096e-08
-3.08469e-07
-6.90599e-08
-2.9143e-07
-7.01735e-08
-2.7419e-07
-7.10284e-08
-2.56816e-07
-7.16032e-08
-2.39377e-07
-7.18774e-08
-2.21948e-07
-7.18316e-08
-2.04609e-07
-7.14477e-08
-1.8744e-07
-7.07091e-08
-1.70528e-07
-6.96015e-08
-1.5396e-07
-6.81127e-08
-1.37825e-07
-6.6233e-08
-1.22213e-07
-6.3956e-08
-1.07216e-07
-6.12786e-08
-9.29224e-08
-5.82022e-08
-7.94189e-08
-5.47328e-08
-6.67893e-08
-5.08825e-08
-5.51115e-08
-4.66707e-08
-4.44567e-08
-4.21259e-08
-3.48865e-08
-3.72882e-08
-2.64514e-08
-3.22123e-08
-1.91878e-08
-2.69722e-08
-1.31157e-08
-2.16665e-08
-8.23665e-09
-1.64262e-08
-4.53226e-09
-1.14242e-08
-1.96404e-09
-6.88503e-09
-4.75579e-10
-3.09912e-09
-4.66142e-10
-3.40867e-10
2.74395e-10
-1.40145e-09
2.16054e-09
-3.21987e-09
4.95444e-09
-5.82606e-09
8.3257e-09
-9.2361e-09
1.20528e-08
-1.34522e-08
1.5962e-08
-1.84637e-08
1.99164e-08
-2.42484e-08
2.3811e-08
-3.07748e-08
2.7567e-08
-3.80036e-08
3.11272e-08
-4.58892e-08
3.44514e-08
-5.43821e-08
3.75134e-08
-6.34298e-08
4.02983e-08
-7.29785e-08
4.27996e-08
-8.29737e-08
4.50178e-08
-9.33618e-08
4.69584e-08
-1.0409e-07
4.8631e-08
-1.15109e-07
5.0048e-08
-1.26369e-07
5.12237e-08
-1.37825e-07
5.21739e-08
-1.49435e-07
5.29149e-08
-1.61159e-07
5.34635e-08
-1.7296e-07
5.38362e-08
-1.84805e-07
5.40492e-08
-1.96663e-07
5.41183e-08
-2.08508e-07
5.40584e-08
-2.20313e-07
5.38835e-08
-2.32057e-07
5.3607e-08
-2.43721e-07
5.3241e-08
-2.55287e-07
5.27969e-08
-2.6674e-07
5.22849e-08
-2.78066e-07
5.17145e-08
-2.89255e-07
5.10941e-08
-3.00297e-07
5.04314e-08
-3.11182e-07
4.97332e-08
-3.21906e-07
4.90057e-08
-3.32461e-07
4.82542e-08
-3.42842e-07
4.74835e-08
-3.53048e-07
4.66978e-08
-3.63074e-07
4.59008e-08
-3.72918e-07
4.50957e-08
-3.82579e-07
4.42853e-08
-3.92056e-07
4.34721e-08
-4.01349e-07
4.26582e-08
-4.10458e-07
4.18454e-08
-4.19383e-07
4.10353e-08
-4.28125e-07
4.02293e-08
-4.36686e-07
3.94286e-08
-4.45066e-07
3.86341e-08
-4.53266e-07