/*--------------------------------*- C++ -*----------------------------------*\
  =========                 |
  \\      /  F ield         | OpenFOAM: The Open Source CFD Toolbox
   \\    /   O peration     | Website:  https://openfoam.org
    \\  /    A nd           | Version:  7
     \\/     M anipulation  |
\*---------------------------------------------------------------------------*/
FoamFile
{
    version     2.0;
    format      ascii;
    class       volVectorField;
    location    "0.0625";
    object      U;
}
// * * * * * * * * * * * * * * * * * * * * * * * * * * * * * * * * * * * * * //

dimensions      [0 1 -1 0 0 0 0];

internalField   nonuniform List<vector> 
12800
(
(5.94761e-06 -5.92636e-06 0)
(2.40045e-05 -1.07994e-05 0)
(4.60122e-05 -9.87921e-06 0)
(6.10004e-05 -6.58899e-06 0)
(6.30239e-05 -2.00348e-06 0)
(4.99361e-05 3.19571e-06 0)
(2.08117e-05 8.47747e-06 0)
(-2.43141e-05 1.35628e-05 0)
(-8.47575e-05 1.83081e-05 0)
(-0.000159511 2.26326e-05 0)
(-0.000247375 2.65167e-05 0)
(-0.000347078 2.99513e-05 0)
(-0.000457346 3.29494e-05 0)
(-0.000576908 3.55497e-05 0)
(-0.000704566 3.77736e-05 0)
(-0.00083919 3.96483e-05 0)
(-0.000979701 4.12111e-05 0)
(-0.00112512 4.24833e-05 0)
(-0.00127457 4.34871e-05 0)
(-0.0014272 4.42585e-05 0)
(-0.00158228 4.48184e-05 0)
(-0.00173917 4.5188e-05 0)
(-0.00189724 4.54014e-05 0)
(-0.00205597 4.54849e-05 0)
(-0.00221493 4.54501e-05 0)
(-0.0023737 4.5308e-05 0)
(-0.00253192 4.50771e-05 0)
(-0.00268929 4.47676e-05 0)
(-0.00284555 4.4388e-05 0)
(-0.00300048 4.3955e-05 0)
(-0.00315389 4.34812e-05 0)
(-0.00330563 4.29682e-05 0)
(-0.00345556 4.24192e-05 0)
(-0.00360357 4.18463e-05 0)
(-0.00374959 4.12614e-05 0)
(-0.00389354 4.06648e-05 0)
(-0.00403537 4.0057e-05 0)
(-0.00417504 3.94422e-05 0)
(-0.00431253 3.88231e-05 0)
(-0.00444781 3.82014e-05 0)
(-0.00458088 3.75806e-05 0)
(-0.00471173 3.69666e-05 0)
(-0.00484036 3.63594e-05 0)
(-0.0049668 3.57533e-05 0)
(-0.00509104 3.51458e-05 0)
(-0.00521309 3.45418e-05 0)
(-0.00533298 3.39489e-05 0)
(-0.00545073 3.33662e-05 0)
(-0.00556635 3.27894e-05 0)
(-0.00567987 3.22174e-05 0)
(-0.00579131 3.16509e-05 0)
(-0.00590069 3.10912e-05 0)
(-0.00600804 3.05385e-05 0)
(-0.00611339 2.99924e-05 0)
(-0.00621677 2.94558e-05 0)
(-0.00631819 2.89308e-05 0)
(-0.00641769 2.84142e-05 0)
(-0.00651531 2.79035e-05 0)
(-0.00661106 2.73992e-05 0)
(-0.00670498 2.69032e-05 0)
(-0.00679709 2.64174e-05 0)
(-0.00688743 2.59414e-05 0)
(-0.00697603 2.5473e-05 0)
(-0.00706291 2.5011e-05 0)
(-0.00714809 2.45561e-05 0)
(-0.0072316 2.41081e-05 0)
(-0.00731347 2.3666e-05 0)
(-0.00739372 2.32292e-05 0)
(-0.00747236 2.27984e-05 0)
(-0.00754942 2.23742e-05 0)
(-0.00762491 2.1956e-05 0)
(-0.00769884 2.15414e-05 0)
(-0.00777124 2.11278e-05 0)
(-0.00784209 2.07149e-05 0)
(-0.00791141 2.03043e-05 0)
(-0.0079792 1.9896e-05 0)
(-0.00804545 1.9487e-05 0)
(-0.00811015 1.90735e-05 0)
(-0.00817329 1.86532e-05 0)
(-0.00823484 1.82251e-05 0)
(-0.00829477 1.77879e-05 0)
(-0.00835305 1.73396e-05 0)
(-0.00840963 1.68775e-05 0)
(-0.00846446 1.6399e-05 0)
(-0.00851749 1.59017e-05 0)
(-0.00856863 1.53838e-05 0)
(-0.00861782 1.48432e-05 0)
(-0.00866497 1.42765e-05 0)
(-0.00870997 1.36798e-05 0)
(-0.00875272 1.30488e-05 0)
(-0.0087931 1.23804e-05 0)
(-0.00883097 1.16711e-05 0)
(-0.00886618 1.09163e-05 0)
(-0.00889856 1.01109e-05 0)
(-0.00892794 9.24983e-06 0)
(-0.00895413 8.32901e-06 0)
(-0.00897691 7.34421e-06 0)
(-0.00899607 6.2907e-06 0)
(-0.00901137 5.16333e-06 0)
(-0.00902254 3.95695e-06 0)
(-0.00902934 2.66669e-06 0)
(-0.00903146 1.28813e-06 0)
(-0.00902861 -1.82882e-07 0)
(-0.00902049 -1.74995e-06 0)
(-0.00900676 -3.41658e-06 0)
(-0.00898709 -5.18665e-06 0)
(-0.00896114 -7.06438e-06 0)
(-0.00892855 -9.05358e-06 0)
(-0.00888895 -1.11567e-05 0)
(-0.00884198 -1.33748e-05 0)
(-0.00878727 -1.57078e-05 0)
(-0.00872444 -1.81556e-05 0)
(-0.00865314 -2.07174e-05 0)
(-0.00857299 -2.33913e-05 0)
(-0.00848366 -2.61729e-05 0)
(-0.00838482 -2.90566e-05 0)
(-0.00827616 -3.20356e-05 0)
(-0.00815738 -3.51023e-05 0)
(-0.00802825 -3.82479e-05 0)
(-0.00788853 -4.14613e-05 0)
(-0.00773805 -4.47287e-05 0)
(-0.00757669 -4.80342e-05 0)
(-0.00740437 -5.136e-05 0)
(-0.00722107 -5.46865e-05 0)
(-0.00702684 -5.79933e-05 0)
(-0.00682182 -6.12585e-05 0)
(-0.00660619 -6.44586e-05 0)
(-0.00638025 -6.75677e-05 0)
(-0.00614435 -7.05581e-05 0)
(-0.00589897 -7.34005e-05 0)
(-0.00564466 -7.60645e-05 0)
(-0.00538207 -7.85185e-05 0)
(-0.00511195 -8.07311e-05 0)
(-0.00483517 -8.26711e-05 0)
(-0.00455269 -8.43075e-05 0)
(-0.00426556 -8.56082e-05 0)
(-0.00397497 -8.65404e-05 0)
(-0.00368218 -8.70722e-05 0)
(-0.00338854 -8.71735e-05 0)
(-0.00309553 -8.6816e-05 0)
(-0.00280467 -8.5973e-05 0)
(-0.0025176 -8.462e-05 0)
(-0.00223602 -8.27337e-05 0)
(-0.0019617 -8.0291e-05 0)
(-0.00169647 -7.72695e-05 0)
(-0.00144223 -7.36487e-05 0)
(-0.0012009 -6.94102e-05 0)
(-0.000974458 -6.45369e-05 0)
(-0.000764895 -5.90121e-05 0)
(-0.000574218 -5.28194e-05 0)
(-0.000404424 -4.59471e-05 0)
(-0.000257467 -3.83898e-05 0)
(-0.000135206 -3.01548e-05 0)
(-3.93154e-05 -2.12833e-05 0)
(2.88756e-05 -1.18918e-05 0)
(6.86933e-05 -2.24838e-06 0)
(8.06303e-05 7.02345e-06 0)
(6.74796e-05 1.45437e-05 0)
(3.80456e-05 1.74351e-05 0)
(1.04639e-05 1.04754e-05 0)
(1.2563e-05 -2.45162e-05 0)
(4.25451e-05 -4.02216e-05 0)
(7.18037e-05 -3.19273e-05 0)
(7.97401e-05 -1.17882e-05 0)
(5.49628e-05 1.49895e-05 0)
(-7.75683e-06 4.50536e-05 0)
(-0.00011098 7.60101e-05 0)
(-0.000255059 0.000106366 0)
(-0.000438884 0.000135179 0)
(-0.000660352 0.000161952 0)
(-0.000916795 0.000186405 0)
(-0.00120522 0.000208403 0)
(-0.00152248 0.000227964 0)
(-0.00186542 0.000245141 0)
(-0.00223093 0.000260027 0)
(-0.00261602 0.000272776 0)
(-0.00301787 0.000283521 0)
(-0.00343383 0.000292411 0)
(-0.00386143 0.000299613 0)
(-0.00429843 0.000305278 0)
(-0.00474276 0.000309544 0)
(-0.00519253 0.000312564 0)
(-0.00564609 0.000314479 0)
(-0.00610193 0.000315411 0)
(-0.0065587 0.000315483 0)
(-0.00701524 0.000314806 0)
(-0.00747051 0.000313473 0)
(-0.00792361 0.000311571 0)
(-0.00837375 0.000309182 0)
(-0.00882026 0.000306383 0)
(-0.00926259 0.00030324 0)
(-0.00970023 0.000299803 0)
(-0.0101328 0.000296125 0)
(-0.0105599 0.000292251 0)
(-0.0109813 0.000288221 0)
(-0.0113968 0.000284067 0)
(-0.0118062 0.00027982 0)
(-0.0122094 0.000275505 0)
(-0.0126062 0.000271141 0)
(-0.0129966 0.000266741 0)
(-0.0133806 0.000262325 0)
(-0.013758 0.000257912 0)
(-0.014129 0.000253511 0)
(-0.0144935 0.000249124 0)
(-0.0148515 0.000244756 0)
(-0.015203 0.000240417 0)
(-0.0155482 0.000236114 0)
(-0.015887 0.000231851 0)
(-0.0162196 0.000227628 0)
(-0.0165459 0.00022345 0)
(-0.016866 0.000219321 0)
(-0.0171801 0.00021524 0)
(-0.0174881 0.000211208 0)
(-0.0177902 0.000207229 0)
(-0.0180864 0.000203305 0)
(-0.0183768 0.000199441 0)
(-0.0186616 0.000195634 0)
(-0.0189407 0.000191883 0)
(-0.0192142 0.000188189 0)
(-0.0194823 0.000184554 0)
(-0.019745 0.000180978 0)
(-0.0200025 0.000177456 0)
(-0.0202547 0.000173988 0)
(-0.0205018 0.000170574 0)
(-0.0207439 0.000167212 0)
(-0.0209809 0.000163898 0)
(-0.0212131 0.000160626 0)
(-0.0214404 0.000157395 0)
(-0.0216629 0.000154203 0)
(-0.0218806 0.000151045 0)
(-0.0220937 0.000147919 0)
(-0.022302 0.000144816 0)
(-0.0225058 0.000141729 0)
(-0.0227049 0.000138651 0)
(-0.0228994 0.000135577 0)
(-0.0230893 0.000132498 0)
(-0.0232745 0.000129405 0)
(-0.0234551 0.000126282 0)
(-0.0236309 0.00012312 0)
(-0.023802 0.000119907 0)
(-0.0239682 0.000116629 0)
(-0.0241294 0.000113271 0)
(-0.0242855 0.000109817 0)
(-0.0244363 0.000106252 0)
(-0.0245818 0.000102558 0)
(-0.0247216 9.87198e-05 0)
(-0.0248555 9.47172e-05 0)
(-0.0249834 9.0529e-05 0)
(-0.0251048 8.61322e-05 0)
(-0.0252196 8.15034e-05 0)
(-0.0253273 7.66183e-05 0)
(-0.0254275 7.14511e-05 0)
(-0.0255199 6.59738e-05 0)
(-0.025604 6.01579e-05 0)
(-0.0256793 5.39748e-05 0)
(-0.0257451 4.73965e-05 0)
(-0.0258011 4.03941e-05 0)
(-0.0258465 3.29377e-05 0)
(-0.0258806 2.49963e-05 0)
(-0.0259029 1.65392e-05 0)
(-0.0259124 7.53643e-06 0)
(-0.0259085 -2.04004e-06 0)
(-0.0258904 -1.22165e-05 0)
(-0.0258571 -2.30177e-05 0)
(-0.0258078 -3.44675e-05 0)
(-0.0257415 -4.65884e-05 0)
(-0.0256574 -5.94006e-05 0)
(-0.0255544 -7.29205e-05 0)
(-0.0254316 -8.71593e-05 0)
(-0.0252879 -0.000102123 0)
(-0.0251224 -0.000117812 0)
(-0.0249341 -0.000134222 0)
(-0.0247219 -0.00015134 0)
(-0.024485 -0.000169148 0)
(-0.0242224 -0.000187616 0)
(-0.0239333 -0.000206708 0)
(-0.0236168 -0.000226378 0)
(-0.0232722 -0.000246572 0)
(-0.0228989 -0.000267225 0)
(-0.0224962 -0.00028826 0)
(-0.0220638 -0.000309589 0)
(-0.0216014 -0.000331109 0)
(-0.0211088 -0.000352708 0)
(-0.0205861 -0.000374262 0)
(-0.0200333 -0.000395636 0)
(-0.019451 -0.000416683 0)
(-0.0188397 -0.000437249 0)
(-0.0182002 -0.000457166 0)
(-0.0175337 -0.000476259 0)
(-0.0168414 -0.000494343 0)
(-0.0161248 -0.000511229 0)
(-0.015386 -0.00052672 0)
(-0.0146268 -0.000540616 0)
(-0.0138498 -0.000552716 0)
(-0.0130577 -0.000562818 0)
(-0.0122532 -0.000570721 0)
(-0.0114398 -0.000576224 0)
(-0.0106208 -0.000579136 0)
(-0.00979999 -0.000579271 0)
(-0.00898136 -0.000576454 0)
(-0.00816914 -0.000570521 0)
(-0.00736776 -0.000561317 0)
(-0.00658184 -0.0005487 0)
(-0.00581617 -0.000532543 0)
(-0.0050757 -0.000512736 0)
(-0.0043655 -0.000489185 0)
(-0.00369072 -0.000461818 0)
(-0.00305654 -0.000430582 0)
(-0.00246818 -0.000395458 0)
(-0.00193074 -0.000356464 0)
(-0.0014492 -0.000313677 0)
(-0.00102824 -0.000267271 0)
(-0.000672061 -0.000217572 0)
(-0.000384085 -0.000165168 0)
(-0.000166498 -0.000111114 0)
(-1.95054e-05 -5.7273e-05 0)
(5.96919e-05 -6.9871e-06 0)
(7.87344e-05 3.38099e-05 0)
(5.46378e-05 5.46994e-05 0)
(1.73645e-05 3.79906e-05 0)
(1.2889e-05 -4.99129e-05 0)
(3.80122e-05 -7.10906e-05 0)
(5.04416e-05 -4.27796e-05 0)
(2.66457e-05 1.24362e-05 0)
(-4.69378e-05 8.36123e-05 0)
(-0.000177215 0.000163019 0)
(-0.000367639 0.000245227 0)
(-0.000618924 0.000326449 0)
(-0.000929708 0.000404311 0)
(-0.00129727 0.000477286 0)
(-0.00171801 0.000544482 0)
(-0.0021877 0.000605475 0)
(-0.00270186 0.000660095 0)
(-0.00325588 0.000708389 0)
(-0.00384517 0.000750573 0)
(-0.00446526 0.000786905 0)
(-0.00511188 0.000817736 0)
(-0.00578096 0.000843452 0)
(-0.00646874 0.000864441 0)
(-0.0071717 0.0008811 0)
(-0.0078866 0.000893831 0)
(-0.00861052 0.000903013 0)
(-0.00934078 0.000909005 0)
(-0.010075 0.000912168 0)
(-0.010811 0.000912821 0)
(-0.0115469 0.000911265 0)
(-0.0122811 0.000907783 0)
(-0.0130119 0.000902624 0)
(-0.0137383 0.000896018 0)
(-0.014459 0.000888175 0)
(-0.0151731 0.000879283 0)
(-0.0158797 0.000869505 0)
(-0.0165783 0.000858986 0)
(-0.0172682 0.000847859 0)
(-0.0179489 0.000836235 0)
(-0.0186201 0.000824212 0)
(-0.0192814 0.000811879 0)
(-0.0199326 0.000799313 0)
(-0.0205734 0.000786574 0)
(-0.0212038 0.000773712 0)
(-0.0218237 0.000760779 0)
(-0.022433 0.000747818 0)
(-0.0230316 0.000734862 0)
(-0.0236196 0.000721936 0)
(-0.024197 0.000709062 0)
(-0.0247638 0.000696263 0)
(-0.02532 0.000683555 0)
(-0.0258659 0.000670949 0)
(-0.0264013 0.000658459 0)
(-0.0269266 0.000646095 0)
(-0.0274416 0.000633869 0)
(-0.0279466 0.000621786 0)
(-0.0284417 0.000609848 0)
(-0.028927 0.000598062 0)
(-0.0294025 0.000586438 0)
(-0.0298686 0.000574977 0)
(-0.0303252 0.000563681 0)
(-0.0307725 0.000552551 0)
(-0.0312107 0.000541589 0)
(-0.0316398 0.000530795 0)
(-0.0320601 0.000520167 0)
(-0.0324717 0.0005097 0)
(-0.0328746 0.000499388 0)
(-0.033269 0.000489229 0)
(-0.033655 0.000479218 0)
(-0.0340328 0.000469347 0)
(-0.0344025 0.000459604 0)
(-0.034764 0.000449979 0)
(-0.0351177 0.000440462 0)
(-0.0354634 0.000431041 0)
(-0.0358014 0.000421704 0)
(-0.0361315 0.000412432 0)
(-0.036454 0.000403205 0)
(-0.0367688 0.000394002 0)
(-0.0370759 0.000384802 0)
(-0.0373754 0.00037558 0)
(-0.0376671 0.000366306 0)
(-0.037951 0.000356948 0)
(-0.0382271 0.000347474 0)
(-0.0384951 0.000337849 0)
(-0.0387551 0.000328035 0)
(-0.0390068 0.000317989 0)
(-0.0392501 0.000307668 0)
(-0.0394846 0.000297025 0)
(-0.0397101 0.000286012 0)
(-0.0399263 0.000274577 0)
(-0.0401328 0.000262664 0)
(-0.0403292 0.000250214 0)
(-0.0405151 0.000237164 0)
(-0.04069 0.000223445 0)
(-0.0408532 0.000208991 0)
(-0.0410042 0.000193729 0)
(-0.0411423 0.000177583 0)
(-0.0412668 0.000160476 0)
(-0.0413769 0.000142328 0)
(-0.0414718 0.00012306 0)
(-0.0415504 0.000102592 0)
(-0.041612 8.08403e-05 0)
(-0.0416553 5.77228e-05 0)
(-0.0416794 3.31561e-05 0)
(-0.041683 7.05923e-06 0)
(-0.041665 -2.06453e-05 0)
(-0.041624 -5.00308e-05 0)
(-0.0415587 -8.11663e-05 0)
(-0.0414678 -0.000114116 0)
(-0.0413498 -0.000148938 0)
(-0.0412033 -0.000185683 0)
(-0.0410267 -0.00022439 0)
(-0.0408185 -0.000265086 0)
(-0.0405773 -0.000307783 0)
(-0.0403014 -0.000352479 0)
(-0.0399893 -0.000399155 0)
(-0.0396397 -0.000447772 0)
(-0.0392509 -0.00049827 0)
(-0.0388217 -0.000550567 0)
(-0.0383506 -0.000604555 0)
(-0.0378366 -0.000660103 0)
(-0.0372784 -0.000717052 0)
(-0.0366752 -0.000775214 0)
(-0.0360261 -0.00083437 0)
(-0.0353304 -0.000894269 0)
(-0.0345879 -0.000954628 0)
(-0.0337983 -0.00101513 0)
(-0.0329617 -0.00107543 0)
(-0.0320784 -0.00113515 0)
(-0.0311492 -0.00119388 0)
(-0.0301751 -0.00125118 0)
(-0.0291572 -0.0013066 0)
(-0.0280975 -0.00135964 0)
(-0.026998 -0.00140979 0)
(-0.0258611 -0.00145653 0)
(-0.0246898 -0.00149931 0)
(-0.0234874 -0.00153758 0)
(-0.0222576 -0.00157079 0)
(-0.0210046 -0.00159838 0)
(-0.0197331 -0.00161979 0)
(-0.018448 -0.00163449 0)
(-0.0171547 -0.00164194 0)
(-0.0158591 -0.00164164 0)
(-0.0145673 -0.00163312 0)
(-0.0132858 -0.00161593 0)
(-0.0120215 -0.00158965 0)
(-0.0107815 -0.00155392 0)
(-0.00957315 -0.00150841 0)
(-0.00840403 -0.00145285 0)
(-0.00728184 -0.00138704 0)
(-0.00621437 -0.00131083 0)
(-0.00520943 -0.00122419 0)
(-0.00427473 -0.00112716 0)
(-0.00341778 -0.00101995 0)
(-0.00264574 -0.000902994 0)
(-0.00196518 -0.000777018 0)
(-0.00138175 -0.000643231 0)
(-0.000899813 -0.000503585 0)
(-0.000521737 -0.000361212 0)
(-0.000247046 -0.00022114 0)
(-7.12301e-05 -9.14374e-05 0)
(1.59785e-05 1.51801e-05 0)
(3.40444e-05 7.88301e-05 0)
(1.44798e-05 6.73176e-05 0)
(8.95951e-06 -6.86532e-05 0)
(1.74003e-05 -8.26825e-05 0)
(-4.03965e-06 -2.01286e-05 0)
(-7.71752e-05 8.62359e-05 0)
(-0.000215716 0.000219028 0)
(-0.000427156 0.00036594 0)
(-0.000715247 0.000517864 0)
(-0.00108071 0.000668518 0)
(-0.00152196 0.000813584 0)
(-0.00203586 0.000950227 0)
(-0.00261806 0.00107674 0)
(-0.00326349 0.00119213 0)
(-0.00396666 0.00129596 0)
(-0.00472183 0.00138823 0)
(-0.00552326 0.00146917 0)
(-0.00636529 0.0015392 0)
(-0.00724245 0.00159892 0)
(-0.00814952 0.00164895 0)
(-0.0090816 0.00168999 0)
(-0.0100341 0.00172276 0)
(-0.0110028 0.00174798 0)
(-0.0119838 0.00176636 0)
(-0.0129735 0.00177857 0)
(-0.0139688 0.00178526 0)
(-0.0149668 0.00178704 0)
(-0.0159649 0.00178448 0)
(-0.0169608 0.00177811 0)
(-0.0179525 0.00176842 0)
(-0.0189382 0.00175585 0)
(-0.0199165 0.00174081 0)
(-0.0208859 0.00172364 0)
(-0.0218454 0.00170468 0)
(-0.0227939 0.00168421 0)
(-0.0237307 0.0016625 0)
(-0.0246551 0.00163976 0)
(-0.0255665 0.00161618 0)
(-0.0264644 0.00159195 0)
(-0.0273485 0.00156721 0)
(-0.0282185 0.00154209 0)
(-0.0290742 0.0015167 0)
(-0.0299154 0.00149114 0)
(-0.030742 0.00146549 0)
(-0.0315539 0.00143981 0)
(-0.0323512 0.00141417 0)
(-0.0331339 0.00138862 0)
(-0.033902 0.0013632 0)
(-0.0346556 0.00133794 0)
(-0.0353947 0.00131288 0)
(-0.0361195 0.00128803 0)
(-0.0368301 0.00126344 0)
(-0.0375267 0.0012391 0)
(-0.0382094 0.00121504 0)
(-0.0388783 0.00119128 0)
(-0.0395336 0.00116781 0)
(-0.0401756 0.00114466 0)
(-0.0408043 0.00112183 0)
(-0.0414199 0.00109931 0)
(-0.0420227 0.00107713 0)
(-0.0426129 0.00105527 0)
(-0.0431905 0.00103375 0)
(-0.0437558 0.00101255 0)
(-0.0443089 0.000991658 0)
(-0.0448502 0.000971077 0)
(-0.0453796 0.000950797 0)
(-0.0458974 0.000930804 0)
(-0.0464037 0.000911083 0)
(-0.0468988 0.000891614 0)
(-0.0473826 0.000872377 0)
(-0.0478554 0.000853351 0)
(-0.0483172 0.000834511 0)
(-0.0487682 0.000815826 0)
(-0.0492083 0.000797262 0)
(-0.0496378 0.000778783 0)
(-0.0500566 0.000760349 0)
(-0.0504646 0.000741915 0)
(-0.050862 0.000723428 0)
(-0.0512486 0.000704834 0)
(-0.0516244 0.000686074 0)
(-0.0519892 0.000667084 0)
(-0.0523429 0.000647795 0)
(-0.0526854 0.000628134 0)
(-0.0530163 0.000608019 0)
(-0.0533354 0.000587367 0)
(-0.0536425 0.000566086 0)
(-0.053937 0.00054408 0)
(-0.0542187 0.00052125 0)
(-0.0544869 0.000497486 0)
(-0.0547412 0.000472673 0)
(-0.0549809 0.000446691 0)
(-0.0552053 0.000419412 0)
(-0.0554138 0.000390706 0)
(-0.0556055 0.000360436 0)
(-0.0557795 0.000328457 0)
(-0.0559348 0.000294624 0)
(-0.0560704 0.000258785 0)
(-0.0561852 0.000220791 0)
(-0.0562779 0.000180487 0)
(-0.0563473 0.000137718 0)
(-0.056392 9.23276e-05 0)
(-0.0564105 4.41608e-05 0)
(-0.0564013 -6.93356e-06 0)
(-0.0563629 -6.11005e-05 0)
(-0.0562935 -0.000118478 0)
(-0.0561913 -0.000179195 0)
(-0.0560546 -0.000243371 0)
(-0.0558815 -0.000311111 0)
(-0.0556701 -0.000382504 0)
(-0.0554185 -0.000457617 0)
(-0.0551246 -0.000536496 0)
(-0.0547865 -0.00061916 0)
(-0.0544021 -0.000705597 0)
(-0.0539696 -0.000795764 0)
(-0.053487 -0.000889581 0)
(-0.0529524 -0.000986928 0)
(-0.0523641 -0.00108764 0)
(-0.0517203 -0.00119151 0)
(-0.0510196 -0.00129828 0)
(-0.0502605 -0.00140763 0)
(-0.0494418 -0.00151921 0)
(-0.0485625 -0.00163259 0)
(-0.0476218 -0.00174729 0)
(-0.0466194 -0.00186276 0)
(-0.045555 -0.0019784 0)
(-0.0444288 -0.00209355 0)
(-0.0432413 -0.00220749 0)
(-0.0419935 -0.00231945 0)
(-0.0406868 -0.00242858 0)
(-0.0393229 -0.00253401 0)
(-0.0379042 -0.00263482 0)
(-0.0364334 -0.00273002 0)
(-0.034914 -0.00281864 0)
(-0.0333497 -0.00289964 0)
(-0.0317449 -0.00297197 0)
(-0.0301046 -0.0030346 0)
(-0.0284342 -0.00308646 0)
(-0.0267399 -0.00312652 0)
(-0.0250281 -0.00315375 0)
(-0.023306 -0.00316718 0)
(-0.0215812 -0.00316586 0)
(-0.0198617 -0.00314889 0)
(-0.0181561 -0.00311546 0)
(-0.0164731 -0.00306481 0)
(-0.0148221 -0.00299626 0)
(-0.0132126 -0.00290926 0)
(-0.0116544 -0.00280335 0)
(-0.0101572 -0.0026782 0)
(-0.0087311 -0.00253366 0)
(-0.00738597 -0.00236973 0)
(-0.00613152 -0.0021867 0)
(-0.00497708 -0.00198514 0)
(-0.00393143 -0.00176609 0)
(-0.00300248 -0.00153118 0)
(-0.00219688 -0.00128296 0)
(-0.00151957 -0.00102531 0)
(-0.000973069 -0.000764072 0)
(-0.000556629 -0.000508082 0)
(-0.000265108 -0.000270645 0)
(-8.75154e-05 -7.14193e-05 0)
(-5.57736e-06 6.07463e-05 0)
(7.13464e-06 8.06888e-05 0)
(3.44498e-06 -7.36688e-05 0)
(-1.13167e-05 -6.16448e-05 0)
(-7.7626e-05 5.13241e-05 0)
(-0.000212446 0.000224208 0)
(-0.000427675 0.000433757 0)
(-0.00073054 0.000663091 0)
(-0.00112446 0.000899644 0)
(-0.00160982 0.0011344 0)
(-0.00218473 0.001361 0)
(-0.0028455 0.00157519 0)
(-0.00358725 0.00177419 0)
(-0.00440424 0.00195636 0)
(-0.00529012 0.00212091 0)
(-0.00623834 0.00226766 0)
(-0.0072422 0.00239683 0)
(-0.00829507 0.00250903 0)
(-0.00939053 0.00260502 0)
(-0.0105224 0.00268574 0)
(-0.0116848 0.00275222 0)
(-0.0128722 0.00280554 0)
(-0.0140796 0.00284679 0)
(-0.0153022 0.00287704 0)
(-0.0165357 0.00289737 0)
(-0.0177762 0.00290876 0)
(-0.0190202 0.00291219 0)
(-0.0202644 0.00290855 0)
(-0.021506 0.00289868 0)
(-0.0227426 0.00288335 0)
(-0.0239718 0.00286327 0)
(-0.0251919 0.00283909 0)
(-0.026401 0.00281138 0)
(-0.0275977 0.00278068 0)
(-0.0287809 0.00274745 0)
(-0.0299494 0.0027121 0)
(-0.0311024 0.00267501 0)
(-0.032239 0.00263649 0)
(-0.0333588 0.00259684 0)
(-0.0344613 0.00255629 0)
(-0.0355459 0.00251507 0)
(-0.0366125 0.00247336 0)
(-0.0376609 0.00243133 0)
(-0.0386908 0.00238911 0)
(-0.0397022 0.00234681 0)
(-0.0406951 0.00230454 0)
(-0.0416694 0.0022624 0)
(-0.0426253 0.00222044 0)
(-0.0435628 0.00217873 0)
(-0.0444819 0.00213734 0)
(-0.0453829 0.00209629 0)
(-0.0462659 0.00205564 0)
(-0.047131 0.00201541 0)
(-0.0479785 0.00197563 0)
(-0.0488086 0.00193632 0)
(-0.0496213 0.00189752 0)
(-0.0504171 0.00185922 0)
(-0.051196 0.00182144 0)
(-0.0519584 0.00178419 0)
(-0.0527044 0.00174748 0)
(-0.0534344 0.0017113 0)
(-0.0541484 0.00167566 0)
(-0.0548467 0.00164054 0)
(-0.0555297 0.00160595 0)
(-0.0561974 0.00157186 0)
(-0.0568501 0.00153825 0)
(-0.0574881 0.00150512 0)
(-0.0581115 0.00147243 0)
(-0.0587204 0.00144014 0)
(-0.0593151 0.00140824 0)
(-0.0598958 0.00137668 0)
(-0.0604624 0.00134542 0)
(-0.0610153 0.00131441 0)
(-0.0615544 0.00128359 0)
(-0.0620798 0.0012529 0)
(-0.0625917 0.00122228 0)
(-0.0630898 0.00119166 0)
(-0.0635744 0.00116094 0)
(-0.0640452 0.00113005 0)
(-0.0645022 0.00109888 0)
(-0.0649453 0.00106733 0)
(-0.0653742 0.00103529 0)
(-0.0657888 0.00100265 0)
(-0.0661887 0.000969264 0)
(-0.0665736 0.000935005 0)
(-0.0669432 0.000899726 0)
(-0.0672968 0.000863271 0)
(-0.0676341 0.000825476 0)
(-0.0679544 0.000786167 0)
(-0.068257 0.000745159 0)
(-0.0685412 0.000702259 0)
(-0.0688062 0.000657267 0)
(-0.069051 0.000609973 0)
(-0.0692747 0.000560158 0)
(-0.0694761 0.000507595 0)
(-0.0696541 0.000452052 0)
(-0.0698073 0.000393291 0)
(-0.0699345 0.000331072 0)
(-0.0700342 0.000265151 0)
(-0.0701047 0.000195282 0)
(-0.0701444 0.000121221 0)
(-0.0701516 4.2723e-05 0)
(-0.0701244 -4.04469e-05 0)
(-0.0700609 -0.000128516 0)
(-0.069959 -0.000221701 0)
(-0.0698166 -0.000320202 0)
(-0.0696315 -0.000424203 0)
(-0.0694016 -0.000533865 0)
(-0.0691244 -0.000649321 0)
(-0.0687977 -0.000770671 0)
(-0.0684191 -0.000897979 0)
(-0.0679862 -0.00103127 0)
(-0.0674966 -0.00117051 0)
(-0.066948 -0.00131563 0)
(-0.0663381 -0.00146649 0)
(-0.0656646 -0.00162289 0)
(-0.0649256 -0.00178457 0)
(-0.0641189 -0.00195118 0)
(-0.0632427 -0.0021223 0)
(-0.0622955 -0.00229743 0)
(-0.0612758 -0.00247598 0)
(-0.0601824 -0.00265727 0)
(-0.0590146 -0.00284054 0)
(-0.0577718 -0.0030249 0)
(-0.0564538 -0.00320941 0)
(-0.055061 -0.003393 0)
(-0.053594 -0.00357453 0)
(-0.0520541 -0.00375276 0)
(-0.0504429 -0.00392637 0)
(-0.0487627 -0.00409396 0)
(-0.0470163 -0.00425407 0)
(-0.0452073 -0.00440517 0)
(-0.0433395 -0.00454567 0)
(-0.0414177 -0.00467395 0)
(-0.0394473 -0.00478837 0)
(-0.0374341 -0.00488727 0)
(-0.035385 -0.004969 0)
(-0.0333071 -0.00503191 0)
(-0.0312085 -0.00507441 0)
(-0.0290975 -0.00509496 0)
(-0.0269835 -0.00509208 0)
(-0.024876 -0.00506438 0)
(-0.0227853 -0.00501059 0)
(-0.020722 -0.00492955 0)
(-0.0186971 -0.00482026 0)
(-0.0167219 -0.00468188 0)
(-0.0148081 -0.00451378 0)
(-0.0129674 -0.00431554 0)
(-0.0112114 -0.00408702 0)
(-0.0095517 -0.00382841 0)
(-0.00799967 -0.00354033 0)
(-0.00656605 -0.00322392 0)
(-0.00526087 -0.00288103 0)
(-0.00409305 -0.00251451 0)
(-0.00307006 -0.00212853 0)
(-0.00219736 -0.00172921 0)
(-0.00147785 -0.00132535 0)
(-0.000911092 -0.000929699 0)
(-0.000492327 -0.000560515 0)
(-0.000211338 -0.000243622 0)
(-5.35471e-05 -1.52662e-05 0)
(-1.72334e-06 6.9845e-05 0)
(-2.42992e-06 -6.21341e-05 0)
(-4.34885e-05 -9.72249e-07 0)
(-0.000161161 0.000180725 0)
(-0.000365454 0.000436142 0)
(-0.000665331 0.000737126 0)
(-0.00106683 0.00106276 0)
(-0.0015725 0.00139722 0)
(-0.00218206 0.00172885 0)
(-0.00289298 0.00204934 0)
(-0.00370108 0.00235287 0)
(-0.00460088 0.00263558 0)
(-0.00558599 0.0028951 0)
(-0.00664943 0.00313018 0)
(-0.00778389 0.0033404 0)
(-0.00898193 0.00352599 0)
(-0.0102361 0.00368762 0)
(-0.0115393 0.00382631 0)
(-0.0128843 0.00394328 0)
(-0.0142647 0.00403991 0)
(-0.015674 0.00411766 0)
(-0.0171065 0.00417804 0)
(-0.0185567 0.00422254 0)
(-0.0200196 0.00425264 0)
(-0.0214907 0.00426975 0)
(-0.0229658 0.00427523 0)
(-0.0244412 0.00427037 0)
(-0.0259136 0.00425634 0)
(-0.0273801 0.00423428 0)
(-0.0288379 0.00420519 0)
(-0.0302847 0.00417 0)
(-0.0317187 0.00412956 0)
(-0.0331379 0.00408464 0)
(-0.034541 0.00403592 0)
(-0.0359267 0.003984 0)
(-0.0372938 0.00392943 0)
(-0.0386414 0.00387269 0)
(-0.0399689 0.0038142 0)
(-0.0412755 0.00375433 0)
(-0.0425609 0.0036934 0)
(-0.0438247 0.00363169 0)
(-0.0450665 0.00356944 0)
(-0.0462862 0.00350686 0)
(-0.0474836 0.00344414 0)
(-0.0486587 0.00338143 0)
(-0.0498116 0.00331886 0)
(-0.0509422 0.00325655 0)
(-0.0520506 0.00319458 0)
(-0.0531369 0.00313305 0)
(-0.0542014 0.00307204 0)
(-0.0552441 0.00301159 0)
(-0.0562654 0.00295176 0)
(-0.0572653 0.00289259 0)
(-0.0582442 0.00283412 0)
(-0.0592023 0.00277638 0)
(-0.0601398 0.00271939 0)
(-0.0610571 0.00266317 0)
(-0.0619543 0.00260773 0)
(-0.0628318 0.00255308 0)
(-0.0636899 0.00249923 0)
(-0.0645288 0.00244616 0)
(-0.0653488 0.00239387 0)
(-0.0661502 0.00234234 0)
(-0.0669333 0.00229157 0)
(-0.0676982 0.00224151 0)
(-0.0684453 0.00219214 0)
(-0.0691748 0.00214342 0)
(-0.0698868 0.0020953 0)
(-0.0705817 0.00204775 0)
(-0.0712596 0.00200069 0)
(-0.0719206 0.00195407 0)
(-0.0725649 0.00190781 0)
(-0.0731926 0.00186184 0)
(-0.0738038 0.00181605 0)
(-0.0743985 0.00177036 0)
(-0.0749768 0.00172465 0)
(-0.0755385 0.0016788 0)
(-0.0760837 0.00163269 0)
(-0.0766123 0.00158618 0)
(-0.077124 0.00153911 0)
(-0.0776186 0.00149132 0)
(-0.0780959 0.00144264 0)
(-0.0785555 0.00139287 0)
(-0.078997 0.00134183 0)
(-0.0794201 0.0012893 0)
(-0.079824 0.00123505 0)
(-0.0802082 0.00117884 0)
(-0.080572 0.00112043 0)
(-0.0809147 0.00105954 0)
(-0.0812353 0.0009959 0)
(-0.0815328 0.000929223 0)
(-0.0818063 0.000859203 0)
(-0.0820545 0.000785526 0)
(-0.0822762 0.000707868 0)
(-0.08247 0.000625896 0)
(-0.0826345 0.00053927 0)
(-0.0827679 0.000447647 0)
(-0.0828687 0.000350677 0)
(-0.0829351 0.000248011 0)
(-0.082965 0.000139299 0)
(-0.0829566 2.41961e-05 0)
(-0.0829075 -9.76305e-05 0)
(-0.0828157 -0.000226503 0)
(-0.0826788 -0.000362726 0)
(-0.0824942 -0.000506583 0)
(-0.0822597 -0.000658329 0)
(-0.0819725 -0.000818187 0)
(-0.08163 -0.000986339 0)
(-0.0812296 -0.00116292 0)
(-0.0807685 -0.00134801 0)
(-0.080244 -0.00154164 0)
(-0.0796535 -0.00174375 0)
(-0.0789942 -0.00195424 0)
(-0.0782635 -0.00217288 0)
(-0.077459 -0.00239939 0)
(-0.0765782 -0.00263336 0)
(-0.0756189 -0.00287431 0)
(-0.0745791 -0.00312162 0)
(-0.0734568 -0.00337456 0)
(-0.0722505 -0.00363226 0)
(-0.070959 -0.00389377 0)
(-0.0695814 -0.00415794 0)
(-0.068117 -0.00442355 0)
(-0.0665658 -0.0046892 0)
(-0.0649282 -0.00495338 0)
(-0.0632049 -0.00521443 0)
(-0.0613975 -0.0054706 0)
(-0.059508 -0.00571999 0)
(-0.0575389 -0.00596059 0)
(-0.0554937 -0.0061903 0)
(-0.0533762 -0.00640694 0)
(-0.0511911 -0.00660826 0)
(-0.0489439 -0.00679193 0)
(-0.0466408 -0.00695561 0)
(-0.0442885 -0.00709694 0)
(-0.0418949 -0.00721356 0)
(-0.0394682 -0.00730316 0)
(-0.0370176 -0.00736345 0)
(-0.0345529 -0.00739226 0)
(-0.0320845 -0.0073875 0)
(-0.0296235 -0.00734723 0)
(-0.0271815 -0.00726966 0)
(-0.0247708 -0.00715319 0)
(-0.0224037 -0.00699647 0)
(-0.0200933 -0.00679836 0)
(-0.0178526 -0.00655807 0)
(-0.0156948 -0.00627512 0)
(-0.0136332 -0.00594947 0)
(-0.0116806 -0.00558157 0)
(-0.00984971 -0.0051725 0)
(-0.00815243 -0.00472409 0)
(-0.00659983 -0.00423923 0)
(-0.00520175 -0.00372211 0)
(-0.0039664 -0.00317875 0)
(-0.00289994 -0.00261757 0)
(-0.00200595 -0.00205038 0)
(-0.00128489 -0.00149356 0)
(-0.000733262 -0.000969737 0)
(-0.000342722 -0.000509781 0)
(-0.000103898 -0.00015544 0)
(-1.07133e-05 3.26486e-05 0)
(-8.2433e-06 -3.33162e-05 0)
(-7.6759e-05 0.000102559 0)
(-0.000248968 0.000373152 0)
(-0.000527215 0.000727963 0)
(-0.000916494 0.0011351 0)
(-0.00142116 0.00157031 0)
(-0.00204244 0.00201488 0)
(-0.00277894 0.00245485 0)
(-0.00362735 0.00288 0)
(-0.00458276 0.00328303 0)
(-0.00563907 0.00365902 0)
(-0.00678926 0.00400483 0)
(-0.00802575 0.00431872 0)
(-0.00934057 0.00460004 0)
(-0.0107256 0.00484895 0)
(-0.0121728 0.00506621 0)
(-0.0136743 0.00525303 0)
(-0.0152223 0.00541095 0)
(-0.0168095 0.0055417 0)
(-0.018429 0.00564717 0)
(-0.0200743 0.00572927 0)
(-0.0217393 0.00578996 0)
(-0.0234185 0.00583117 0)
(-0.0251067 0.00585476 0)
(-0.0267993 0.00586253 0)
(-0.0284921 0.00585617 0)
(-0.0301813 0.00583728 0)
(-0.0318636 0.00580735 0)
(-0.0335358 0.00576773 0)
(-0.0351954 0.00571969 0)
(-0.0368401 0.00566438 0)
(-0.0384678 0.00560282 0)
(-0.0400768 0.00553596 0)
(-0.0416657 0.00546462 0)
(-0.0432331 0.00538954 0)
(-0.0447779 0.0053114 0)
(-0.0462994 0.00523076 0)
(-0.0477968 0.00514815 0)
(-0.0492695 0.00506401 0)
(-0.0507171 0.00497872 0)
(-0.0521391 0.00489264 0)
(-0.0535355 0.00480605 0)
(-0.054906 0.0047192 0)
(-0.0562506 0.00463234 0)
(-0.0575692 0.00454563 0)
(-0.0588619 0.00445925 0)
(-0.0601288 0.00437332 0)
(-0.0613699 0.00428799 0)
(-0.0625856 0.00420333 0)
(-0.063776 0.00411946 0)
(-0.0649413 0.00403642 0)
(-0.0660818 0.0039543 0)
(-0.0671978 0.00387314 0)
(-0.0682895 0.00379298 0)
(-0.0693573 0.00371386 0)
(-0.0704014 0.0036358 0)
(-0.0714223 0.00355883 0)
(-0.0724201 0.00348294 0)
(-0.0733953 0.00340815 0)
(-0.0743481 0.00333445 0)
(-0.0752789 0.00326182 0)
(-0.076188 0.00319025 0)
(-0.0770757 0.0031197 0)
(-0.0779423 0.00305015 0)
(-0.0787881 0.00298155 0)
(-0.0796134 0.00291385 0)
(-0.0804184 0.00284698 0)
(-0.0812034 0.00278087 0)
(-0.0819685 0.00271546 0)
(-0.082714 0.00265064 0)
(-0.08344 0.00258632 0)
(-0.0841467 0.00252238 0)
(-0.0848341 0.0024587 0)
(-0.0855023 0.00239515 0)
(-0.0861513 0.00233157 0)
(-0.0867812 0.0022678 0)
(-0.0873917 0.00220367 0)
(-0.0879828 0.00213899 0)
(-0.0885543 0.00207355 0)
(-0.089106 0.00200712 0)
(-0.0896375 0.00193948 0)
(-0.0901485 0.00187036 0)
(-0.0906384 0.00179949 0)
(-0.0911069 0.0017266 0)
(-0.0915532 0.00165136 0)
(-0.0919767 0.00157347 0)
(-0.0923766 0.00149258 0)
(-0.092752 0.00140833 0)
(-0.093102 0.00132035 0)
(-0.0934253 0.00122824 0)
(-0.0937209 0.00113161 0)
(-0.0939874 0.00103003 0)
(-0.0942235 0.000923057 0)
(-0.0944275 0.000810257 0)
(-0.0945979 0.000691171 0)
(-0.0947328 0.00056534 0)
(-0.0948303 0.000432296 0)
(-0.0948885 0.000291572 0)
(-0.0949051 0.000142702 0)
(-0.0948779 -1.47686e-05 0)
(-0.0948046 -0.000181285 0)
(-0.0946826 -0.000357273 0)
(-0.0945093 -0.000543135 0)
(-0.0942821 -0.000739244 0)
(-0.0939981 -0.000945936 0)
(-0.0936545 -0.0011635 0)
(-0.0932484 -0.00139217 0)
(-0.0927767 -0.00163212 0)
(-0.0922365 -0.00188345 0)
(-0.0916248 -0.00214617 0)
(-0.0909386 -0.00242023 0)
(-0.090175 -0.00270543 0)
(-0.089331 -0.00300151 0)
(-0.0884038 -0.00330804 0)
(-0.0873909 -0.00362448 0)
(-0.0862898 -0.00395016 0)
(-0.0850981 -0.00428425 0)
(-0.083814 -0.00462575 0)
(-0.0824356 -0.00497351 0)
(-0.0809616 -0.00532621 0)
(-0.079391 -0.00568233 0)