/*--------------------------------*- C++ -*----------------------------------*\
  =========                 |
  \\      /  F ield         | OpenFOAM: The Open Source CFD Toolbox
   \\    /   O peration     | Website:  https://openfoam.org
    \\  /    A nd           | Version:  7
     \\/     M anipulation  |
\*---------------------------------------------------------------------------*/
FoamFile
{
    version     2.0;
    format      ascii;
    class       volScalarField;
    location    "0.2125";
    object      p;
}
// * * * * * * * * * * * * * * * * * * * * * * * * * * * * * * * * * * * * * //

dimensions      [0 2 -2 0 0 0 0];

internalField   nonuniform List<scalar> 
51200
(
4.32589e-09
2.71573e-08
-4.41769e-07
-1.68225e-06
-3.1385e-06
-4.51467e-06
-5.77326e-06
-6.95947e-06
-8.10478e-06
-9.24014e-06
-1.0379e-05
-1.15368e-05
-1.27279e-05
-1.39702e-05
-1.52519e-05
-1.6565e-05
-1.78976e-05
-1.92525e-05
-2.06329e-05
-2.203e-05
-2.34401e-05
-2.48582e-05
-2.62825e-05
-2.77116e-05
-2.91403e-05
-3.05601e-05
-3.19702e-05
-3.337e-05
-3.47567e-05
-3.61301e-05
-3.74858e-05
-3.88148e-05
-4.0117e-05
-4.13951e-05
-4.26462e-05
-4.38751e-05
-4.5084e-05
-4.62638e-05
-4.74132e-05
-4.85343e-05
-4.96217e-05
-5.06742e-05
-5.16969e-05
-5.26873e-05
-5.36411e-05
-5.4562e-05
-5.54502e-05
-5.62975e-05
-5.71012e-05
-5.78656e-05
-5.85923e-05
-5.92846e-05
-5.99489e-05
-6.05852e-05
-6.11873e-05
-6.17518e-05
-6.22794e-05
-6.27694e-05
-6.32196e-05
-6.363e-05
-6.40026e-05
-6.43396e-05
-6.46428e-05
-6.49156e-05
-6.51638e-05
-6.53892e-05
-6.55879e-05
-6.57587e-05
-6.59056e-05
-6.60303e-05
-6.61336e-05
-6.62217e-05
-6.63037e-05
-6.63832e-05
-6.64569e-05
-6.65228e-05
-6.65821e-05
-6.66345e-05
-6.66779e-05
-6.67141e-05
-6.67503e-05
-6.67916e-05
-6.68371e-05
-6.68855e-05
-6.69387e-05
-6.69978e-05
-6.70618e-05
-6.71301e-05
-6.72062e-05
-6.72956e-05
-6.74021e-05
-6.75269e-05
-6.76732e-05
-6.7845e-05
-6.80442e-05
-6.82688e-05
-6.85171e-05
-6.87925e-05
-6.90987e-05
-6.94344e-05
-6.9796e-05
-7.01851e-05
-7.06099e-05
-7.10756e-05
-7.15794e-05
-7.21152e-05
-7.26808e-05
-7.3278e-05
-7.39076e-05
-7.45686e-05
-7.52633e-05
-7.59964e-05
-7.67683e-05
-7.75742e-05
-7.84088e-05
-7.92749e-05
-8.01806e-05
-8.11295e-05
-8.21182e-05
-8.31393e-05
-8.41877e-05
-8.52634e-05
-8.63675e-05
-8.74998e-05
-8.86594e-05
-8.9845e-05
-9.1056e-05
-9.22919e-05
-9.35504e-05
-9.4827e-05
-9.61175e-05
-9.7418e-05
-9.87261e-05
-0.000100039
-0.000101353
-0.000102665
-0.000103974
-0.000105278
-0.000106568
-0.000107838
-0.000109081
-0.000110296
-0.000111476
-0.000112615
-0.000113702
-0.000114728
-0.000115689
-0.000116579
-0.000117394
-0.000118129
-0.000118775
-0.000119324
-0.000119768
-0.000120101
-0.000120321
-0.000120425
-0.00012042
-0.000120325
-0.00012018
-0.000120044
-2.35545e-07
-9.85561e-07
-1.80973e-06
-2.98952e-06
-4.23012e-06
-5.35829e-06
-6.41129e-06
-7.43277e-06
-8.45104e-06
-9.48884e-06
-1.05508e-05
-1.16364e-05
-1.27611e-05
-1.3928e-05
-1.51427e-05
-1.63891e-05
-1.76582e-05
-1.89515e-05
-2.02645e-05
-2.1601e-05
-2.2953e-05
-2.43111e-05
-2.56756e-05
-2.70455e-05
-2.84167e-05
-2.97901e-05
-3.11564e-05
-3.25103e-05
-3.38527e-05
-3.51813e-05
-3.64939e-05
-3.77899e-05
-3.90657e-05
-4.03164e-05
-4.15439e-05
-4.27515e-05
-4.39358e-05
-4.50956e-05
-4.62313e-05
-4.73374e-05
-4.84115e-05
-4.94574e-05
-5.04741e-05
-5.14584e-05
-5.24125e-05
-5.33362e-05
-5.42262e-05
-5.50836e-05
-5.59075e-05
-5.66944e-05
-5.74445e-05
-5.8161e-05
-5.88471e-05
-5.95033e-05
-6.01275e-05
-6.0717e-05
-6.127e-05
-6.17865e-05
-6.22665e-05
-6.27116e-05
-6.31254e-05
-6.35081e-05
-6.3857e-05
-6.41735e-05
-6.4462e-05
-6.47237e-05
-6.49586e-05
-6.51706e-05
-6.53636e-05
-6.55367e-05
-6.56911e-05
-6.58327e-05
-6.59662e-05
-6.60925e-05
-6.62116e-05
-6.63253e-05
-6.64343e-05
-6.65364e-05
-6.66305e-05
-6.67198e-05
-6.6809e-05
-6.69007e-05
-6.6995e-05
-6.70931e-05
-6.71971e-05
-6.73059e-05
-6.74177e-05
-6.75341e-05
-6.76588e-05
-6.77955e-05
-6.79464e-05
-6.81139e-05
-6.8303e-05
-6.85186e-05
-6.87607e-05
-6.9026e-05
-6.93129e-05
-6.96247e-05
-6.99656e-05
-7.03359e-05
-7.07331e-05
-7.11577e-05
-7.16148e-05
-7.21078e-05
-7.26347e-05
-7.31929e-05
-7.37823e-05
-7.4404e-05
-7.50556e-05
-7.57323e-05
-7.64355e-05
-7.71728e-05
-7.79485e-05
-7.87599e-05
-7.96022e-05
-8.04752e-05
-8.1383e-05
-8.2327e-05
-8.3304e-05
-8.43102e-05
-8.53451e-05
-8.64085e-05
-8.74972e-05
-8.86078e-05
-8.97408e-05
-9.08986e-05
-9.2081e-05
-9.32849e-05
-9.45057e-05
-9.57404e-05
-9.69881e-05
-9.82463e-05
-9.95098e-05
-0.000100773
-0.000102034
-0.00010329
-0.000104542
-0.000105787
-0.000107019
-0.000108229
-0.00010941
-0.000110561
-0.000111678
-0.000112754
-0.000113779
-0.000114745
-0.00011565
-0.000116487
-0.000117251
-0.000117938
-0.000118542
-0.000119058
-0.000119481
-0.000119807
-0.000120032
-0.000120157
-0.00012019
-0.000120147
-0.000120043
-0.000119906
-9.86536e-07
-1.99402e-06
-2.95671e-06
-4.03181e-06
-5.07319e-06
-6.01437e-06
-6.9175e-06
-7.81213e-06
-8.72244e-06
-9.66781e-06
-1.06535e-05
-1.16837e-05
-1.27478e-05
-1.38561e-05
-1.50083e-05
-1.61951e-05
-1.74139e-05
-1.86524e-05
-1.99133e-05
-2.12003e-05
-2.25032e-05
-2.3816e-05
-2.51345e-05
-2.64536e-05
-2.77805e-05
-2.91127e-05
-3.04414e-05
-3.17634e-05
-3.30727e-05
-3.43649e-05
-3.56436e-05
-3.69092e-05
-3.81573e-05
-3.93874e-05
-4.05986e-05
-4.17875e-05
-4.29542e-05
-4.41005e-05
-4.52218e-05
-4.63159e-05
-4.73837e-05
-4.84241e-05
-4.94356e-05
-5.04199e-05
-5.13761e-05
-5.23009e-05
-5.31938e-05
-5.40572e-05
-5.48902e-05
-5.5692e-05
-5.64626e-05
-5.72007e-05
-5.79075e-05
-5.85846e-05
-5.92294e-05
-5.98404e-05
-6.04172e-05
-6.09579e-05
-6.14616e-05
-6.1933e-05
-6.23773e-05
-6.27932e-05
-6.31791e-05
-6.35365e-05
-6.38637e-05
-6.41596e-05
-6.44282e-05
-6.4676e-05
-6.49053e-05
-6.5116e-05
-6.53121e-05
-6.54996e-05
-6.56779e-05
-6.58454e-05
-6.6005e-05
-6.61602e-05
-6.63103e-05
-6.64527e-05
-6.65886e-05
-6.67228e-05
-6.68576e-05
-6.69928e-05
-6.71299e-05
-6.72719e-05
-6.742e-05
-6.7571e-05
-6.77227e-05
-6.78789e-05
-6.80445e-05
-6.8221e-05
-6.84096e-05
-6.86142e-05
-6.8841e-05
-6.90939e-05
-6.93711e-05
-6.967e-05
-6.99909e-05
-7.03359e-05
-7.07063e-05
-7.11033e-05
-7.15285e-05
-7.19839e-05
-7.24709e-05
-7.29889e-05
-7.35361e-05
-7.41133e-05
-7.47222e-05
-7.53623e-05
-7.60298e-05
-7.67205e-05
-7.7435e-05
-7.81792e-05
-7.89572e-05
-7.97687e-05
-8.06129e-05
-8.14908e-05
-8.24032e-05
-8.33467e-05
-8.43166e-05
-8.53116e-05
-8.63348e-05
-8.73875e-05
-8.84639e-05
-8.95574e-05
-9.06682e-05
-9.18021e-05
-9.2961e-05
-9.41396e-05
-9.5331e-05
-9.65326e-05
-9.77458e-05
-9.89694e-05
-0.000100197
-0.000101421
-0.000102638
-0.000103849
-0.000105055
-0.000106253
-0.000107436
-0.000108597
-0.00010973
-0.000110833
-0.000111902
-0.000112929
-0.000113905
-0.000114825
-0.000115686
-0.000116484
-0.000117211
-0.000117862
-0.000118434
-0.000118925
-0.000119332
-0.000119651
-0.000119877
-0.000120011
-0.000120062
-0.00012004
-0.00011994
-0.000119765
-2.38997e-06
-3.24786e-06
-4.06145e-06
-4.90396e-06
-5.72564e-06
-6.50717e-06
-7.28458e-06
-8.0784e-06
-8.90225e-06
-9.76608e-06
-1.06855e-05
-1.1658e-05
-1.26763e-05
-1.37376e-05
-1.48355e-05
-1.59743e-05
-1.71433e-05
-1.8338e-05
-1.95581e-05
-2.07975e-05
-2.20582e-05
-2.33335e-05
-2.46124e-05
-2.58973e-05
-2.71884e-05
-2.84815e-05
-2.97771e-05
-3.107e-05
-3.23511e-05
-3.36193e-05
-3.48738e-05
-3.61108e-05
-3.73331e-05
-3.8543e-05
-3.97353e-05
-4.09086e-05
-4.20645e-05
-4.31978e-05
-4.43068e-05
-4.53937e-05
-4.64559e-05
-4.74915e-05
-4.85028e-05
-4.94896e-05
-5.0449e-05
-5.13798e-05
-5.22799e-05
-5.31481e-05
-5.3986e-05
-5.47958e-05
-5.55779e-05
-5.63317e-05
-5.70575e-05
-5.77536e-05
-5.84174e-05
-5.90499e-05
-5.96497e-05
-6.02132e-05
-6.07417e-05
-6.12395e-05
-6.17086e-05
-6.21488e-05
-6.25636e-05
-6.29543e-05
-6.33158e-05
-6.36464e-05
-6.39517e-05
-6.4235e-05
-6.44967e-05
-6.47396e-05
-6.49713e-05
-6.51964e-05
-6.54126e-05
-6.56183e-05
-6.58172e-05
-6.60111e-05
-6.61977e-05
-6.63753e-05
-6.65481e-05
-6.67215e-05
-6.68959e-05
-6.70704e-05
-6.72475e-05
-6.743e-05
-6.76172e-05
-6.78057e-05
-6.79944e-05
-6.81881e-05
-6.83907e-05
-6.8602e-05
-6.8824e-05
-6.9063e-05
-6.93249e-05
-6.96104e-05
-6.99167e-05
-7.02442e-05
-7.05963e-05
-7.09733e-05
-7.13718e-05
-7.17926e-05
-7.22417e-05
-7.27239e-05
-7.32377e-05
-7.37789e-05
-7.43464e-05
-7.49428e-05
-7.55692e-05
-7.62219e-05
-7.68983e-05
-7.75993e-05
-7.83274e-05
-7.90833e-05
-7.98665e-05
-8.06781e-05
-8.15221e-05
-8.24022e-05
-8.33167e-05
-8.42597e-05
-8.52261e-05
-8.62152e-05
-8.72298e-05
-8.82708e-05
-8.93336e-05
-9.04131e-05
-9.15092e-05
-9.26254e-05
-9.37633e-05
-9.4919e-05
-9.60861e-05
-9.72619e-05
-9.84474e-05
-9.96407e-05
-0.000100835
-0.000102025
-0.000103208
-0.000104385
-0.000105554
-0.00010671
-0.000107849
-0.000108967
-0.000110061
-0.000111127
-0.000112158
-0.000113147
-0.000114086
-0.000114971
-0.000115798
-0.000116563
-0.000117259
-0.000117882
-0.000118429
-0.000118902
-0.000119297
-0.00011961
-0.000119834
-0.00011997
-0.000120027
-0.000120008
-0.000119896
-0.000119675
-3.82863e-06
-4.39303e-06
-4.97745e-06
-5.59449e-06
-6.23766e-06
-6.88077e-06
-7.54836e-06
-8.25854e-06
-9.0095e-06
-9.81366e-06
-1.06697e-05
-1.15846e-05
-1.25587e-05
-1.35728e-05
-1.46272e-05
-1.57175e-05
-1.68396e-05
-1.79974e-05
-1.91774e-05
-2.0377e-05
-2.1597e-05
-2.28296e-05
-2.40738e-05
-2.53295e-05
-2.65884e-05
-2.78514e-05
-2.91166e-05
-3.03767e-05
-3.16316e-05
-3.28784e-05
-3.41104e-05
-3.53266e-05
-3.65294e-05
-3.77176e-05
-3.88909e-05
-4.00509e-05
-4.11937e-05
-4.23148e-05
-4.34154e-05
-4.44947e-05
-4.55502e-05
-4.65827e-05
-4.7593e-05
-4.85792e-05
-4.95406e-05
-5.04771e-05
-5.13848e-05
-5.22619e-05
-5.31099e-05
-5.39289e-05
-5.47209e-05
-5.54887e-05
-5.62301e-05
-5.69421e-05
-5.76244e-05
-5.82765e-05
-5.8895e-05
-5.94797e-05
-6.00343e-05
-6.05599e-05
-6.10556e-05
-6.15234e-05
-6.19667e-05
-6.23851e-05
-6.27754e-05
-6.31396e-05
-6.34814e-05
-6.37999e-05
-6.40957e-05
-6.43747e-05
-6.46426e-05
-6.49017e-05
-6.51517e-05
-6.53939e-05
-6.56309e-05
-6.58616e-05
-6.60834e-05
-6.62973e-05
-6.65079e-05
-6.67185e-05
-6.69295e-05
-6.71422e-05
-6.73594e-05
-6.75814e-05
-6.78054e-05
-6.80296e-05
-6.82558e-05
-6.84873e-05
-6.87257e-05
-6.8971e-05
-6.9227e-05
-6.95013e-05
-6.97979e-05
-7.0115e-05
-7.04502e-05
-7.08062e-05
-7.11873e-05
-7.15931e-05
-7.20191e-05
-7.24659e-05
-7.29402e-05
-7.34466e-05
-7.3983e-05
-7.45452e-05
-7.51337e-05
-7.57517e-05
-7.63967e-05
-7.70626e-05
-7.77476e-05
-7.8457e-05
-7.91959e-05
-7.99626e-05
-8.07533e-05
-8.15694e-05
-8.24172e-05
-8.32996e-05
-8.4213e-05
-8.51518e-05
-8.61144e-05
-8.7101e-05
-8.81105e-05
-8.91404e-05
-9.0188e-05
-9.12532e-05
-9.23376e-05
-9.34407e-05
-9.45602e-05
-9.56936e-05
-9.68386e-05
-9.79931e-05
-9.91553e-05
-0.000100321
-0.000101484
-0.00010264
-0.000103791
-0.000104936
-0.000106072
-0.000107192
-0.000108291
-0.00010937
-0.000110428
-0.000111459
-0.000112457
-0.000113414
-0.000114322
-0.000115177
-0.000115976
-0.000116711
-0.000117378
-0.000117977
-0.000118505
-0.000118963
-0.000119349
-0.000119655
-0.000119877
-0.000120014
-0.000120072
-0.000120052
-0.000119926
-0.000119669
-4.95308e-06
-5.23541e-06
-5.61758e-06
-6.07218e-06
-6.58147e-06
-7.12077e-06
-7.70464e-06
-8.33861e-06
-9.03463e-06
-9.78798e-06
-1.0598e-05
-1.14675e-05
-1.23901e-05
-1.33635e-05
-1.43768e-05
-1.54232e-05
-1.65076e-05
-1.7625e-05
-1.87698e-05
-1.99367e-05
-2.11187e-05
-2.23143e-05
-2.35263e-05
-2.4749e-05
-2.59807e-05
-2.72195e-05
-2.84568e-05
-2.96903e-05
-3.09212e-05
-3.21428e-05
-3.33526e-05
-3.45521e-05
-3.57372e-05
-3.69077e-05
-3.8067e-05
-3.9213e-05
-4.03424e-05
-4.14547e-05
-4.25481e-05
-4.36202e-05
-4.46719e-05
-4.57032e-05
-4.6713e-05
-4.76996e-05
-4.86628e-05
-4.96013e-05
-5.05132e-05
-5.13986e-05
-5.2257e-05
-5.3087e-05
-5.38917e-05
-5.46729e-05
-5.54278e-05
-5.61559e-05
-5.68566e-05
-5.75261e-05
-5.81621e-05
-5.87673e-05
-5.93448e-05
-5.9894e-05
-6.04164e-05
-6.09148e-05
-6.1388e-05
-6.18334e-05
-6.22525e-05
-6.26488e-05
-6.30226e-05
-6.33727e-05
-6.37028e-05
-6.40194e-05
-6.43241e-05
-6.46168e-05
-6.49003e-05
-6.51782e-05
-6.54504e-05
-6.57141e-05
-6.59693e-05
-6.62197e-05
-6.64675e-05
-6.67136e-05
-6.69597e-05
-6.72097e-05
-6.74658e-05
-6.7725e-05
-6.7984e-05
-6.82439e-05
-6.85076e-05
-6.87759e-05
-6.90484e-05
-6.93274e-05
-6.96188e-05
-6.99284e-05
-7.02576e-05
-7.06049e-05
-7.09707e-05
-7.13571e-05
-7.17657e-05
-7.21958e-05
-7.26463e-05
-7.312e-05
-7.3621e-05
-7.41503e-05
-7.47064e-05
-7.52878e-05
-7.58965e-05
-7.65337e-05
-7.71955e-05
-7.78761e-05
-7.85752e-05
-7.9297e-05
-8.00453e-05
-8.08188e-05
-8.16157e-05
-8.24391e-05
-8.32937e-05
-8.41797e-05
-8.50915e-05
-8.60249e-05
-8.69818e-05
-8.79646e-05
-8.89697e-05
-8.99909e-05
-9.10263e-05
-9.20791e-05
-9.31527e-05
-9.42448e-05
-9.53493e-05
-9.64637e-05
-9.75888e-05
-9.8724e-05
-9.98652e-05
-0.000101006
-0.00010214
-0.000103267
-0.000104388
-0.000105502
-0.000106605
-0.000107691
-0.000108758
-0.000109805
-0.000110832
-0.000111833
-0.000112801
-0.000113727
-0.000114608
-0.000115439
-0.000116213
-0.000116924
-0.000117568
-0.000118146
-0.000118661
-0.00011911
-0.000119487
-0.000119787
-0.000120005
-0.000120143
-0.000120202
-0.00012018
-0.000120042
-0.000119763
-5.71921e-06
-5.79892e-06
-6.03288e-06
-6.36331e-06
-6.77086e-06
-7.23738e-06
-7.75796e-06
-8.33665e-06
-8.98172e-06
-9.69324e-06
-1.04686e-05
-1.12958e-05
-1.2178e-05
-1.31104e-05
-1.40836e-05
-1.50989e-05
-1.61469e-05
-1.72278e-05
-1.83402e-05
-1.94734e-05
-2.06234e-05
-2.17918e-05
-2.29726e-05
-2.41661e-05
-2.53726e-05
-2.65848e-05
-2.77988e-05
-2.90132e-05
-3.02217e-05
-3.14206e-05
-3.26113e-05
-3.37919e-05
-3.49599e-05
-3.61176e-05
-3.72648e-05
-3.83978e-05
-3.95167e-05
-4.06211e-05
-4.17071e-05
-4.27738e-05
-4.38229e-05
-4.48529e-05
-4.58626e-05
-4.68522e-05
-4.78189e-05
-4.87603e-05
-4.96768e-05
-5.05678e-05
-5.14337e-05
-5.22749e-05
-5.30924e-05
-5.38853e-05
-5.46533e-05
-5.53971e-05
-5.61139e-05
-5.67997e-05
-5.74551e-05
-5.80821e-05
-5.86807e-05
-5.92514e-05
-5.97989e-05
-6.03249e-05
-6.0825e-05
-6.12983e-05
-6.17486e-05
-6.21765e-05
-6.25802e-05
-6.2961e-05
-6.33248e-05
-6.36763e-05
-6.40149e-05
-6.43412e-05
-6.46595e-05
-6.49722e-05
-6.52771e-05
-6.55723e-05
-6.58603e-05
-6.61451e-05
-6.64273e-05
-6.67072e-05
-6.69882e-05
-6.72744e-05
-6.75662e-05
-6.78597e-05
-6.81529e-05
-6.84486e-05
-6.87489e-05
-6.90521e-05
-6.93581e-05
-6.96718e-05
-6.99996e-05
-7.0344e-05
-7.07038e-05
-7.10799e-05
-7.14763e-05
-7.18937e-05
-7.23291e-05
-7.27815e-05
-7.32542e-05
-7.37525e-05
-7.42781e-05
-7.48287e-05
-7.54037e-05
-7.60053e-05
-7.66345e-05
-7.72886e-05
-7.79635e-05
-7.8658e-05
-7.93739e-05
-8.01122e-05
-8.08719e-05
-8.16521e-05
-8.24551e-05
-8.32858e-05
-8.41467e-05
-8.50349e-05
-8.59452e-05
-8.68755e-05
-8.78281e-05
-8.88048e-05
-8.98027e-05
-9.08162e-05
-9.18436e-05
-9.2888e-05
-9.39524e-05
-9.50337e-05
-9.61257e-05
-9.72262e-05
-9.83356e-05
-9.9453e-05
-0.000100573
-0.000101689
-0.000102798
-0.0001039
-0.000104995
-0.000106081
-0.000107153
-0.000108209
-0.000109247
-0.000110269
-0.00011127
-0.000112245
-0.000113186
-0.000114087
-0.000114945
-0.000115754
-0.000116508
-0.000117198
-0.000117825
-0.00011839
-0.000118896
-0.000119338
-0.000119709
-0.000120003
-0.000120219
-0.000120358
-0.000120418
-0.000120395
-0.000120253
-0.000119966
-6.17366e-06
-6.12407e-06
-6.25485e-06
-6.49578e-06
-6.82739e-06
-7.2316e-06
-7.7104e-06
-8.25285e-06
-8.85847e-06
-9.53585e-06
-1.02751e-05
-1.10718e-05
-1.19196e-05
-1.28126e-05
-1.37547e-05
-1.47379e-05
-1.57574e-05
-1.68098e-05
-1.78888e-05
-1.89897e-05
-2.01136e-05
-2.12554e-05
-2.24112e-05
-2.35826e-05
-2.47633e-05
-2.59502e-05
-2.71443e-05
-2.83381e-05
-2.95268e-05
-3.07092e-05
-3.18824e-05
-3.30452e-05
-3.41994e-05
-3.53452e-05
-3.64808e-05
-3.76043e-05
-3.87155e-05
-3.98126e-05
-4.08927e-05
-4.19564e-05
-4.30031e-05
-4.40312e-05
-4.50409e-05
-4.6032e-05
-4.70017e-05
-4.79482e-05
-4.88707e-05
-4.97675e-05
-5.06408e-05
-5.14922e-05
-5.23203e-05
-5.31248e-05
-5.39068e-05
-5.46646e-05
-5.53948e-05
-5.60962e-05
-5.67708e-05
-5.74182e-05
-5.8038e-05
-5.86326e-05
-5.92051e-05
-5.97547e-05
-6.02791e-05
-6.07803e-05
-6.12608e-05
-6.1718e-05
-6.21514e-05
-6.2565e-05
-6.29629e-05
-6.33465e-05
-6.37167e-05
-6.40763e-05
-6.44289e-05
-6.4774e-05
-6.51099e-05
-6.5437e-05
-6.5758e-05
-6.60751e-05
-6.63887e-05
-6.67011e-05
-6.70168e-05
-6.73376e-05
-6.7662e-05
-6.79878e-05
-6.83151e-05
-6.86462e-05
-6.89812e-05
-6.93177e-05
-6.96573e-05
-7.00067e-05
-7.03706e-05
-7.07485e-05
-7.11391e-05
-7.15448e-05
-7.19705e-05
-7.2416e-05
-7.28766e-05
-7.33518e-05
-7.38472e-05
-7.43681e-05
-7.49142e-05
-7.54832e-05
-7.60767e-05
-7.66985e-05
-7.73478e-05
-7.80187e-05
-7.87072e-05
-7.94157e-05
-8.01479e-05
-8.0902e-05
-8.16737e-05
-8.24628e-05
-8.32745e-05
-8.41133e-05
-8.49785e-05
-8.58662e-05
-8.6774e-05
-8.77028e-05
-8.86536e-05
-8.96248e-05
-9.06138e-05
-9.16195e-05
-9.26419e-05
-9.36817e-05
-9.47386e-05
-9.58094e-05
-9.68902e-05
-9.798e-05
-9.90776e-05
-0.000100179
-0.000101279
-0.000102372
-0.000103458
-0.000104537
-0.000105609
-0.00010667
-0.000107716
-0.000108746
-0.000109761
-0.000110762
-0.000111741
-0.000112692
-0.00011361
-0.000114491
-0.000115329
-0.00011612
-0.000116856
-0.000117531
-0.000118146
-0.000118704
-0.000119204
-0.000119641
-0.000120008
-0.000120299
-0.000120515
-0.000120656
-0.00012072
-0.0001207
-0.000120562
-0.000120281
-6.36497e-06
-6.24054e-06
-6.30618e-06
-6.49062e-06
-6.76429e-06
-7.12449e-06
-7.56838e-06
-8.0849e-06
-8.66985e-06
-9.31364e-06
-1.00244e-05
-1.07927e-05
-1.16091e-05
-1.24766e-05
-1.33879e-05
-1.43431e-05
-1.53388e-05
-1.63638e-05
-1.74147e-05
-1.84908e-05
-1.95882e-05
-2.0705e-05
-2.18416e-05
-2.29916e-05
-2.41509e-05
-2.53195e-05
-2.64934e-05
-2.76665e-05
-2.8838e-05
-3.00048e-05
-3.11622e-05
-3.23115e-05
-3.34545e-05
-3.45889e-05
-3.57141e-05
-3.68304e-05
-3.7935e-05
-3.90255e-05
-4.01025e-05
-4.11642e-05
-4.22092e-05
-4.32376e-05
-4.42478e-05
-4.52393e-05
-4.62111e-05
-4.71619e-05
-4.80899e-05
-4.89939e-05
-4.98758e-05
-5.07359e-05
-5.15734e-05
-5.23899e-05
-5.31851e-05
-5.39555e-05
-5.46992e-05
-5.54169e-05
-5.61088e-05
-5.67739e-05
-5.74146e-05
-5.80339e-05
-5.86305e-05
-5.92026e-05
-5.97519e-05
-6.02809e-05
-6.07887e-05
-6.12727e-05
-6.17358e-05
-6.21827e-05
-6.26135e-05
-6.30283e-05
-6.34302e-05
-6.38233e-05
-6.42085e-05
-6.45838e-05
-6.49496e-05
-6.53086e-05
-6.5662e-05
-6.60095e-05
-6.6353e-05
-6.66975e-05
-6.70468e-05
-6.73998e-05
-6.77546e-05
-6.81119e-05
-6.84733e-05
-6.88386e-05
-6.9206e-05
-6.95751e-05
-6.99496e-05
-7.03349e-05
-7.07327e-05
-7.11421e-05
-7.15641e-05
-7.20013e-05
-7.24554e-05
-7.29251e-05
-7.34084e-05
-7.39071e-05
-7.44261e-05
-7.49682e-05
-7.55323e-05
-7.61188e-05
-7.67309e-05
-7.73713e-05
-7.80376e-05
-7.87244e-05
-7.94291e-05
-8.01544e-05
-8.09022e-05
-8.16691e-05
-8.24513e-05
-8.32506e-05
-8.40728e-05
-8.49203e-05
-8.57892e-05
-8.66759e-05
-8.75813e-05
-8.85087e-05
-8.94582e-05
-9.04254e-05
-9.14072e-05
-9.24061e-05
-9.34246e-05
-9.44611e-05
-9.55122e-05
-9.6574e-05
-9.7645e-05
-9.87255e-05
-9.98126e-05
-0.0001009
-0.000101981
-0.000103054
-0.000104119
-0.000105178
-0.00010623
-0.000107269
-0.000108293
-0.000109303
-0.000110301
-0.000111283
-0.000112243
-0.000113174
-0.000114072
-0.000114935
-0.000115758
-0.000116534
-0.000117255
-0.000117919
-0.000118527
-0.000119082
-0.000119578
-0.000120012
-0.000120375
-0.000120668
-0.000120889
-0.000121037
-0.000121108
-0.000121097
-0.00012097
-0.000120709
-6.33963e-06
-6.1802e-06
-6.20525e-06
-6.35491e-06
-6.60226e-06
-6.92822e-06
-7.34297e-06
-7.84147e-06
-8.40516e-06
-9.03088e-06
-9.71606e-06
-1.04558e-05
-1.12521e-05
-1.20971e-05
-1.29852e-05
-1.39184e-05
-1.48889e-05
-1.58895e-05
-1.69191e-05
-1.7973e-05
-1.90477e-05
-2.01457e-05
-2.12615e-05
-2.23915e-05
-2.35347e-05
-2.46869e-05
-2.58429e-05
-2.69999e-05
-2.81554e-05
-2.93063e-05
-3.04507e-05
-3.15899e-05
-3.27231e-05
-3.38478e-05
-3.49656e-05
-3.60754e-05
-3.71737e-05
-3.82601e-05
-3.93344e-05
-4.03938e-05
-4.14381e-05
-4.24675e-05
-4.34794e-05
-4.44726e-05
-4.54468e-05
-4.64006e-05
-4.73336e-05
-4.82453e-05
-4.91354e-05
-5.00038e-05
-5.08514e-05
-5.16796e-05
-5.2486e-05
-5.3268e-05
-5.40262e-05
-5.47602e-05
-5.54682e-05
-5.61508e-05
-5.68124e-05
-5.74541e-05
-5.80722e-05
-5.86673e-05
-5.92427e-05
-5.97983e-05
-6.03314e-05
-6.08425e-05
-6.13357e-05
-6.18137e-05
-6.2275e-05
-6.27206e-05
-6.3155e-05
-6.35806e-05
-6.39965e-05
-6.44015e-05
-6.47976e-05
-6.51877e-05
-6.55713e-05
-6.59481e-05
-6.63218e-05
-6.66979e-05
-6.70785e-05
-6.74615e-05
-6.78459e-05
-6.82348e-05
-6.86294e-05
-6.90267e-05
-6.94249e-05
-6.98267e-05
-7.02366e-05
-7.06568e-05
-7.10863e-05
-7.15256e-05
-7.19787e-05
-7.24474e-05
-7.29292e-05
-7.34217e-05
-7.39267e-05
-7.44488e-05
-7.49905e-05
-7.55521e-05
-7.61335e-05
-7.67384e-05
-7.73702e-05
-7.80281e-05
-7.87083e-05
-7.94091e-05
-8.01309e-05
-8.08744e-05
-8.16371e-05
-8.24149e-05
-8.32069e-05
-8.40171e-05
-8.48496e-05
-8.57043e-05
-8.65768e-05
-8.74647e-05
-8.83704e-05
-8.92972e-05
-9.02446e-05
-9.12084e-05
-9.21862e-05
-9.31812e-05
-9.4196e-05
-9.52284e-05
-9.62734e-05
-9.73279e-05
-9.83914e-05
-9.94637e-05
-0.00010054
-0.000101613
-0.000102678
-0.000103734
-0.000104784
-0.000105826
-0.000106859
-0.000107879
-0.000108885
-0.000109881
-0.000110864
-0.000111832
-0.000112775
-0.000113689
-0.000114572
-0.000115421
-0.000116231
-0.000116995
-0.000117705
-0.000118361
-0.000118965
-0.000119517
-0.000120012
-0.000120443
-0.000120807
-0.000121105
-0.000121337
-0.000121498
-0.000121583
-0.000121585
-0.000121479
-0.000121245
-6.13228e-06
-5.96838e-06
-5.97075e-06
-6.10477e-06
-6.33763e-06
-6.65056e-06
-7.04784e-06
-7.52388e-06
-8.07427e-06
-8.68514e-06
-9.34934e-06
-1.00714e-05
-1.08479e-05
-1.16743e-05
-1.2548e-05
-1.34601e-05
-1.44082e-05
-1.53897e-05
-1.63997e-05
-1.74344e-05
-1.84941e-05
-1.95749e-05
-2.06724e-05
-2.17864e-05
-2.29143e-05
-2.40502e-05
-2.51917e-05
-2.63355e-05
-2.74767e-05
-2.86142e-05
-2.9749e-05
-3.08789e-05
-3.20028e-05
-3.31212e-05
-3.42333e-05
-3.53371e-05
-3.64313e-05
-3.75152e-05
-3.8587e-05
-3.96452e-05
-4.0689e-05
-4.17184e-05
-4.27319e-05
-4.37282e-05
-4.47057e-05
-4.56632e-05
-4.66017e-05
-4.75204e-05
-4.84179e-05
-4.92953e-05
-5.01538e-05
-5.09926e-05
-5.18091e-05
-5.26031e-05
-5.33751e-05
-5.41234e-05
-5.48472e-05
-5.55491e-05
-5.62313e-05
-5.68924e-05
-5.7531e-05
-5.81497e-05
-5.87504e-05
-5.93299e-05
-5.98879e-05
-6.04276e-05
-6.09508e-05
-6.14575e-05
-6.19477e-05
-6.24243e-05
-6.28906e-05
-6.33465e-05
-6.37913e-05
-6.42264e-05
-6.46534e-05
-6.5073e-05
-6.54847e-05
-6.58905e-05
-6.62952e-05
-6.67022e-05
-6.71117e-05
-6.75232e-05
-6.79378e-05
-6.83582e-05
-6.8784e-05
-6.92112e-05
-6.96398e-05
-7.00745e-05
-7.05186e-05
-7.09712e-05
-7.14309e-05
-7.19001e-05
-7.23831e-05
-7.28807e-05
-7.33884e-05
-7.39043e-05
-7.44325e-05
-7.4978e-05
-7.55411e-05
-7.61209e-05
-7.67202e-05
-7.73444e-05
-7.79957e-05
-7.86701e-05
-7.93638e-05
-8.00784e-05
-8.08164e-05
-8.15759e-05
-8.23515e-05
-8.31392e-05
-8.39418e-05
-8.47638e-05
-8.56062e-05
-8.64664e-05
-8.73422e-05
-8.8234e-05
-8.91436e-05
-9.00717e-05
-9.1017e-05
-9.19778e-05
-9.29542e-05
-9.39481e-05
-9.49598e-05
-9.59863e-05
-9.70245e-05
-9.80727e-05
-9.91304e-05
-0.000100195
-0.000101261
-0.00010232
-0.000103371
-0.000104415
-0.000105452
-0.000106482
-0.000107499
-0.000108503
-0.000109497
-0.000110481
-0.000111454
-0.000112408
-0.000113337
-0.000114238
-0.00011511
-0.000115949
-0.000116748
-0.000117501
-0.000118204
-0.000118855
-0.000119457
-0.000120007
-0.000120501
-0.000120932
-0.000121301
-0.00012161
-0.000121857
-0.000122036
-0.000122141
-0.000122164
-0.000122084
-0.000121886
-5.76504e-06
-5.62032e-06
-5.6288e-06
-5.75253e-06
-5.97874e-06
-6.2932e-06
-6.67936e-06
-7.14238e-06
-7.67847e-06
-8.27468e-06
-8.9303e-06
-9.63945e-06
-1.03997e-05
-1.12151e-05
-1.20728e-05
-1.29678e-05
-1.39002e-05
-1.48641e-05
-1.58564e-05
-1.68776e-05
-1.79232e-05
-1.89892e-05
-2.00744e-05
-2.1176e-05
-2.22896e-05
-2.34113e-05
-2.45402e-05
-2.56716e-05
-2.68006e-05
-2.79293e-05
-2.90559e-05
-3.01773e-05
-3.12947e-05
-3.2408e-05
-3.35144e-05
-3.46137e-05
-3.57056e-05
-3.67873e-05
-3.78578e-05
-3.89163e-05
-3.99604e-05
-4.09901e-05
-4.2005e-05
-4.30036e-05
-4.39849e-05
-4.49478e-05
-4.58925e-05
-4.68178e-05
-4.7723e-05
-4.86102e-05
-4.94791e-05
-5.03274e-05
-5.11547e-05
-5.19612e-05
-5.27454e-05
-5.35063e-05
-5.42464e-05
-5.49679e-05
-5.56689e-05
-5.63484e-05
-5.70084e-05
-5.7651e-05
-5.82743e-05
-5.8876e-05
-5.94592e-05
-6.00271e-05
-6.05785e-05
-6.11124e-05
-6.16316e-05
-6.21391e-05
-6.26356e-05
-6.31198e-05
-6.3593e-05
-6.40581e-05
-6.45151e-05
-6.49627e-05
-6.54018e-05
-6.5837e-05
-6.62726e-05
-6.67092e-05
-6.71463e-05
-6.75862e-05
-6.80314e-05
-6.84823e-05
-6.89366e-05
-6.93926e-05
-6.98522e-05
-7.03194e-05
-7.07947e-05
-7.12766e-05
-7.17658e-05
-7.22653e-05
-7.27773e-05
-7.33004e-05
-7.38317e-05
-7.43721e-05
-7.49253e-05
-7.5494e-05
-7.60772e-05
-7.66762e-05
-7.72954e-05
-7.79394e-05
-7.86082e-05
-7.92976e-05
-8.00057e-05
-8.07355e-05
-8.14886e-05
-8.22605e-05
-8.30458e-05
-8.38433e-05
-8.46572e-05
-8.54912e-05
-8.63432e-05
-8.72093e-05
-8.80897e-05
-8.89873e-05
-8.99032e-05
-9.08346e-05
-9.17795e-05
-9.27387e-05
-9.37148e-05
-9.47085e-05
-9.57172e-05
-9.67373e-05
-9.77686e-05
-9.88114e-05
-9.98641e-05
-0.000100922
-0.000101977
-0.000103025
-0.000104066
-0.000105101
-0.000106129
-0.000107148
-0.000108153
-0.000109146
-0.00011013
-0.000111106
-0.000112069
-0.000113012
-0.00011393
-0.000114823
-0.000115688
-0.000116519
-0.000117309
-0.000118054
-0.000118751
-0.0001194
-0.000120001
-0.00012055
-0.000121043
-0.000121479
-0.000121859
-0.000122183
-0.00012245
-0.00012265
-0.000122778
-0.000122827
-0.000122779
-0.000122623
-5.25185e-06
-5.15389e-06
-5.18139e-06
-5.31142e-06
-5.53982e-06
-5.85195e-06
-6.24093e-06
-6.69868e-06
-7.22108e-06
-7.81126e-06
-8.45949e-06
-9.15994e-06
-9.91448e-06
-1.0716e-05
-1.15607e-05
-1.24442e-05
-1.33626e-05
-1.43129e-05
-1.52937e-05
-1.63028e-05
-1.73353e-05
-1.83904e-05
-1.9466e-05
-2.05565e-05
-2.16585e-05
-2.27701e-05
-2.38872e-05
-2.50069e-05
-2.61282e-05
-2.72497e-05
-2.83692e-05
-2.94853e-05
-3.05983e-05
-3.17066e-05
-3.28088e-05
-3.39051e-05
-3.49948e-05
-3.60748e-05
-3.71446e-05
-3.82038e-05
-3.92494e-05
-4.02807e-05
-4.12975e-05
-4.22985e-05
-4.3284e-05
-4.42529e-05
-4.52039e-05
-4.61363e-05
-4.70507e-05
-4.79479e-05
-4.88259e-05
-4.96837e-05
-5.05226e-05
-5.13409e-05
-5.21364e-05
-5.29106e-05
-5.36671e-05
-5.44059e-05
-5.51236e-05
-5.58222e-05
-5.65045e-05
-5.7169e-05
-5.78132e-05
-5.8438e-05
-5.90469e-05
-5.9641e-05
-6.0218e-05
-6.07789e-05
-6.1327e-05
-6.18636e-05
-6.23879e-05
-6.28997e-05
-6.34015e-05
-6.38956e-05
-6.43806e-05
-6.48553e-05
-6.53227e-05
-6.57877e-05
-6.6253e-05
-6.67176e-05
-6.71824e-05
-6.76517e-05
-6.81273e-05
-6.86066e-05
-6.90878e-05
-6.95721e-05
-7.00628e-05
-7.0561e-05
-7.10645e-05
-7.15732e-05
-7.20908e-05
-7.262e-05
-7.31594e-05
-7.37061e-05
-7.42607e-05
-7.48263e-05
-7.54049e-05
-7.59958e-05
-7.65991e-05
-7.72189e-05
-7.78603e-05
-7.85242e-05
-7.92084e-05
-7.99114e-05
-8.06347e-05
-8.13806e-05
-8.21472e-05
-8.2929e-05
-8.37229e-05
-8.45306e-05
-8.53562e-05
-8.62011e-05
-8.70617e-05
-8.79354e-05
-8.88235e-05
-8.97289e-05
-9.06512e-05
-9.15866e-05
-9.25335e-05
-9.34938e-05
-9.44706e-05
-9.54633e-05
-9.64682e-05
-9.74826e-05
-9.85082e-05
-9.95467e-05
-0.000100594
-0.000101645
-0.000102691
-0.000103731
-0.000104766
-0.000105796
-0.000106818
-0.000107827
-0.000108823
-0.000109809
-0.000110786
-0.000111754
-0.000112709
-0.000113644
-0.000114556
-0.000115444
-0.000116304
-0.00011713
-0.000117913
-0.000118651
-0.000119345
-0.000119994
-0.000120596
-0.000121146
-0.000121642
-0.000122087
-0.000122481
-0.000122825
-0.000123113
-0.000123336
-0.000123489
-0.000123567
-0.000123555
-0.000123447
-4.62434e-06
-4.57357e-06
-4.63823e-06
-4.78872e-06
-5.01989e-06
-5.33715e-06
-5.7312e-06
-6.18877e-06
-6.71263e-06
-7.29784e-06
-7.94107e-06
-8.64145e-06
-9.38832e-06
-1.01799e-05
-1.10152e-05
-1.18879e-05
-1.27954e-05
-1.37369e-05
-1.47094e-05
-1.57087e-05
-1.67325e-05
-1.77802e-05
-1.88466e-05
-1.99271e-05
-2.10214e-05
-2.21241e-05
-2.3231e-05
-2.43434e-05
-2.54591e-05
-2.6574e-05
-2.76886e-05
-2.88016e-05
-2.99108e-05
-3.10153e-05
-3.21153e-05
-3.32098e-05
-3.42978e-05
-3.53774e-05
-3.64473e-05
-3.75068e-05
-3.8554e-05
-3.95876e-05
-4.06071e-05
-4.1612e-05
-4.26027e-05
-4.35776e-05
-4.4535e-05
-4.54759e-05
-4.64002e-05
-4.73066e-05
-4.81936e-05
-4.90619e-05
-4.99115e-05
-5.07399e-05
-5.15473e-05
-5.23366e-05
-5.31088e-05
-5.38623e-05
-5.45969e-05
-5.53156e-05
-5.60185e-05
-5.6702e-05
-5.73668e-05
-5.80158e-05
-5.86496e-05
-5.92676e-05
-5.98694e-05
-6.04576e-05
-6.10337e-05
-6.15968e-05
-6.2147e-05
-6.26864e-05
-6.32167e-05
-6.37379e-05
-6.4249e-05
-6.47509e-05
-6.52477e-05
-6.57424e-05
-6.62356e-05
-6.67277e-05
-6.72212e-05
-6.77201e-05
-6.82244e-05
-6.87304e-05
-6.92382e-05
-6.97514e-05
-7.02719e-05
-7.07984e-05
-7.13283e-05
-7.18633e-05
-7.24082e-05
-7.29643e-05
-7.35284e-05
-7.40984e-05
-7.46774e-05
-7.52684e-05
-7.5871e-05
-7.64834e-05
-7.71077e-05
-7.77501e-05
-7.84141e-05
-7.90971e-05
-7.97963e-05
-8.05133e-05
-8.1252e-05
-8.2013e-05
-8.2791e-05
-8.35815e-05
-8.43847e-05
-8.52041e-05
-8.60416e-05
-8.68961e-05
-8.77649e-05
-8.8648e-05
-8.95466e-05
-9.0461e-05
-9.1389e-05
-9.23283e-05
-9.32788e-05
-9.42425e-05
-9.52207e-05
-9.62116e-05
-9.72123e-05
-9.82225e-05
-9.92448e-05
-0.00010028
-0.000101323
-0.000102366
-0.000103406
-0.000104441
-0.000105473
-0.0001065
-0.000107517
-0.000108521
-0.00010951
-0.000110491
-0.000111463
-0.000112425
-0.000113373
-0.000114303
-0.000115212
-0.000116099
-0.000116956
-0.000117778
-0.000118556
-0.000119291
-0.000119984
-0.000120636
-0.000121242
-0.000121797
-0.000122301
-0.000122758
-0.00012317
-0.000123534
-0.000123843
-0.000124089
-0.000124268
-0.000124377
-0.000124406
-0.000124349
-3.89927e-06
-3.90121e-06
-4.00092e-06
-4.17803e-06
-4.42945e-06
-4.75413e-06
-5.15219e-06
-5.62105e-06
-6.14925e-06
-6.73585e-06
-7.38145e-06
-8.07862e-06
-8.82186e-06
-9.60899e-06
-1.04368e-05
-1.13019e-05
-1.22019e-05
-1.31372e-05
-1.41021e-05
-1.50949e-05
-1.61149e-05
-1.71561e-05
-1.8215e-05
-1.92897e-05
-2.03764e-05
-2.14711e-05
-2.25723e-05
-2.36804e-05
-2.47915e-05
-2.59028e-05
-2.70149e-05
-2.81251e-05
-2.9231e-05