/*--------------------------------*- C++ -*----------------------------------*\
  =========                 |
  \\      /  F ield         | OpenFOAM: The Open Source CFD Toolbox
   \\    /   O peration     | Website:  https://openfoam.org
    \\  /    A nd           | Version:  7
     \\/     M anipulation  |
\*---------------------------------------------------------------------------*/
FoamFile
{
    version     2.0;
    format      ascii;
    class       surfaceScalarField;
    location    "0.2125";
    object      phi;
}
// * * * * * * * * * * * * * * * * * * * * * * * * * * * * * * * * * * * * * //

dimensions      [0 3 -1 0 0 0 0];

internalField   nonuniform List<scalar> 
101920
(
-1.78771e-14
1.22925e-14
8.74143e-13
-8.93223e-13
2.65639e-12
-1.78095e-12
4.21596e-12
-1.56415e-12
5.33851e-12
-1.12231e-12
6.11922e-12
-7.81701e-13
6.69476e-12
-5.75838e-13
7.14414e-12
-4.47255e-13
7.50106e-12
-3.57573e-13
7.78007e-12
-2.76856e-13
7.98678e-12
-2.03782e-13
8.11341e-12
-1.28928e-13
8.15839e-12
-4.50185e-14
8.10639e-12
5.01557e-14
7.9586e-12
1.49323e-13
7.70592e-12
2.5247e-13
7.35236e-12
3.5538e-13
6.8915e-12
4.62147e-13
6.32144e-12
5.69531e-13
5.64625e-12
6.77289e-13
4.86375e-12
7.81019e-13
3.98014e-12
8.84825e-13
2.99409e-12
9.85172e-13
1.90931e-12
1.08431e-12
7.3078e-13
1.17978e-12
-5.39324e-13
1.27039e-12
-1.89513e-12
1.3568e-12
-3.33207e-12
1.4391e-12
-4.84866e-12
1.516e-12
-6.43781e-12
1.58873e-12
-8.09422e-12
1.65593e-12
-9.81378e-12
1.71786e-12
-1.15884e-11
1.77608e-12
-1.34143e-11
1.82709e-12
-1.52876e-11
1.87227e-12
-1.72024e-11
1.91408e-12
-1.91549e-11
1.95027e-12
-2.11398e-11
1.982e-12
-2.31507e-11
2.01011e-12
-2.51831e-11
2.03141e-12
-2.72335e-11
2.04841e-12
-2.92955e-11
2.06152e-12
-3.13646e-11
2.06798e-12
-3.34365e-11
2.07039e-12
-3.55055e-11
2.06986e-12
-3.75661e-11
2.06276e-12
-3.9615e-11
2.04981e-12
-4.16478e-11
2.03398e-12
-4.36588e-11
2.01277e-12
-4.56439e-11
1.98545e-12
-4.75992e-11
1.95603e-12
-4.95214e-11
1.92346e-12
-5.1408e-11
1.88543e-12
-5.32553e-11
1.84509e-12
-5.50598e-11
1.80357e-12
-5.68182e-11
1.75767e-12
-5.85262e-11
1.70695e-12
-6.018e-11
1.65436e-12
-6.1778e-11
1.59866e-12
-6.33171e-11
1.53764e-12
-6.47927e-11
1.47442e-12
-6.62032e-11
1.41116e-12
-6.75481e-11
1.34519e-12
-6.88235e-11
1.27535e-12
-7.0027e-11
1.20414e-12
-7.11596e-11
1.13251e-12
-7.22189e-11
1.05848e-12
-7.32007e-11
9.81837e-13
-7.41038e-11
9.04099e-13
-7.49286e-11
8.24953e-13
-7.56731e-11
7.43771e-13
-7.63345e-11
6.61227e-13
-7.69128e-11
5.78321e-13
-7.74097e-11
4.95913e-13
-7.78238e-11
4.13412e-13
-7.81529e-11
3.29404e-13
-7.83971e-11
2.44388e-13
-7.85569e-11
1.59489e-13
-7.86314e-11
7.41455e-14
-7.86192e-11
-1.21818e-14
-7.85208e-11
-9.83359e-14
-7.83379e-11
-1.83015e-13
-7.80708e-11
-2.6668e-13
-7.77191e-11
-3.5085e-13
-7.72836e-11
-4.35564e-13
-7.67653e-11
-5.19272e-13
-7.61655e-11
-6.01088e-13
-7.54849e-11
-6.81788e-13
-7.4723e-11
-7.62314e-13
-7.38811e-11
-8.41676e-13
-7.29612e-11
-9.18736e-13
-7.19648e-11
-9.94719e-13
-7.08938e-11
-1.07054e-12
-6.97502e-11
-1.14439e-12
-6.85366e-11
-1.21457e-12
-6.72551e-11
-1.28193e-12
-6.59071e-11
-1.34824e-12
-6.44945e-11
-1.41325e-12
-6.30202e-11
-1.47522e-12
-6.14873e-11
-1.53378e-12
-5.98975e-11
-1.59038e-12
-5.82526e-11
-1.64535e-12
-5.65563e-11
-1.69649e-12
-5.48131e-11
-1.74244e-12
-5.30269e-11
-1.78493e-12
-5.12004e-11
-1.82585e-12
-4.93357e-11
-1.8648e-12
-4.74362e-11
-1.90006e-12
-4.55062e-11
-1.93076e-12
-4.3549e-11
-1.9576e-12
-4.15686e-11
-1.98077e-12
-3.95697e-11
-1.99937e-12
-3.7557e-11
-2.01329e-12
-3.55349e-11
-2.0232e-12
-3.35067e-11
-2.02916e-12
-3.14759e-11
-2.0306e-12
-2.94478e-11
-2.02675e-12
-2.74284e-11
-2.01762e-12
-2.54237e-11
-2.004e-12
-2.34382e-11
-1.98591e-12
-2.14752e-11
-1.96306e-12
-1.95386e-11
-1.93575e-12
-1.76341e-11
-1.90402e-12
-1.57678e-11
-1.86704e-12
-1.39456e-11
-1.82385e-12
-1.21715e-11
-1.77463e-12
-1.04492e-11
-1.72068e-12
-8.78462e-12
-1.66253e-12
-7.18415e-12
-1.59935e-12
-5.65297e-12
-1.5308e-12
-4.19569e-12
-1.45731e-12
-2.81636e-12
-1.37936e-12
-1.51947e-12
-1.2972e-12
-3.10529e-13
-1.21038e-12
8.06149e-13
-1.11838e-12
1.82732e-12
-1.02181e-12
2.74904e-12
-9.21447e-13
3.56752e-12
-8.17405e-13
4.2795e-12
-7.10406e-13
4.88201e-12
-6.01661e-13
5.37309e-12
-4.91509e-13
5.75128e-12
-3.7951e-13
6.01531e-12
-2.65546e-13
6.16546e-12
-1.50611e-13
6.20308e-12
-3.6687e-14
6.12948e-12
7.44608e-14
5.948e-12
1.81735e-13
5.66455e-12
2.84048e-13
5.28508e-12
3.80228e-13
4.81682e-12
4.68523e-13
4.27096e-12
5.45697e-13
3.6627e-12
6.07786e-13
3.01088e-12
6.51267e-13
2.33884e-12
6.71985e-13
1.67603e-12
6.63101e-13
1.06015e-12
6.15775e-13
5.38335e-13
5.2165e-13
1.62923e-13
3.75687e-13
-1.77897e-14
1.80718e-13
-1.81767e-14
-5.1836e-13
5.29484e-13
8.91682e-14
-1.50138e-12
2.07365e-12
-3.7622e-12
4.40548e-12
-3.89572e-12
6.60585e-12
-3.31905e-12
8.5587e-12
-2.73771e-12
1.02636e-11
-2.27962e-12
1.17325e-11
-1.91909e-12
1.29765e-11
-1.60141e-12
1.39877e-11
-1.29081e-12
1.47523e-11
-9.68005e-13
1.52561e-11
-6.29787e-13
1.54773e-11
-2.6585e-13
1.5411e-11
1.1859e-13
1.50365e-11
5.21025e-13
1.43539e-11
9.34967e-13
1.33535e-11
1.35497e-12
1.20326e-11
1.77958e-12
1.03976e-11
2.20616e-12
8.44319e-12
2.62884e-12
6.18048e-12
3.04621e-12
3.6136e-12
3.45215e-12
7.49436e-13
3.84889e-12
-2.39935e-12
4.234e-12
-5.82476e-12
4.6044e-12
-9.51666e-12
4.96065e-12
-1.34593e-11
5.30058e-12
-1.76436e-11
5.62261e-12
-2.20527e-11
5.92758e-12
-2.66718e-11
6.21204e-12
-3.14906e-11
6.47494e-12
-3.64911e-11
6.71926e-12
-4.1659e-11
6.94413e-12
-4.69811e-11
7.14856e-12
-5.24387e-11
7.33398e-12
-5.80191e-11
7.49855e-12
-6.37082e-11
7.64188e-12
-6.94886e-11
7.76652e-12
-7.53465e-11
7.8707e-12
-8.12683e-11
7.95418e-12
-8.72375e-11
8.02052e-12
-9.32395e-11
8.06645e-12
-9.92625e-11
8.09114e-12
-1.05291e-10
8.09894e-12
-1.1131e-10
8.08785e-12
-1.17308e-10
8.05625e-12
-1.23269e-10
8.00893e-12
-1.29181e-10
7.94494e-12
-1.35032e-10
7.86101e-12
-1.4081e-10
7.76166e-12
-1.46504e-10
7.64954e-12
-1.52101e-10
7.52093e-12
-1.57591e-10
7.37671e-12
-1.62964e-10
7.22103e-12
-1.68211e-10
7.05138e-12
-1.7332e-10
6.86598e-12
-1.78283e-10
6.6691e-12
-1.83089e-10
6.46151e-12
-1.87732e-10
6.24008e-12
-1.922e-10
6.00607e-12
-1.96488e-10
5.76309e-12
-2.0059e-10
5.51141e-12
-2.04498e-10
5.25049e-12
-2.08204e-10
4.98144e-12
-2.11703e-10
4.7048e-12
-2.14992e-10
4.4204e-12
-2.18063e-10
4.1285e-12
-2.20911e-10
3.82988e-12
-2.23534e-10
3.52567e-12
-2.25926e-10
3.21615e-12
-2.28084e-10
2.90131e-12
-2.30003e-10
2.58182e-12
-2.31684e-10
2.25884e-12
-2.33123e-10
1.93372e-12
-2.34316e-10
1.60643e-12
-2.35262e-10
1.27584e-12
-2.35962e-10
9.43051e-13
-2.36413e-10
6.09846e-13
-2.36613e-10
2.7549e-13
-2.36564e-10
-6.0602e-14
-2.36267e-10
-3.96399e-13
-2.35721e-10
-7.29867e-13
-2.34927e-10
-1.06126e-12
-2.33886e-10
-1.39163e-12
-2.32601e-10
-1.72033e-12
-2.31074e-10
-2.04566e-12
-2.29306e-10
-2.36758e-12
-2.27301e-10
-2.68689e-12
-2.25062e-10
-3.00289e-12
-2.22593e-10
-3.31332e-12
-2.19897e-10
-3.61683e-12
-2.16978e-10
-3.91458e-12
-2.13842e-10
-4.20723e-12
-2.10494e-10
-4.49262e-12
-2.06939e-10
-4.76902e-12
-2.03184e-10
-5.03719e-12
-1.99235e-10
-5.29806e-12
-1.95097e-10
-5.55074e-12
-1.90778e-10
-5.79339e-12
-1.86285e-10
-6.02575e-12
-1.81627e-10
-6.24875e-12
-1.76811e-10
-6.46189e-12
-1.71846e-10
-6.66249e-12
-1.66742e-10
-6.84869e-12
-1.61507e-10
-7.02175e-12
-1.56151e-10
-7.18339e-12
-1.50683e-10
-7.33295e-12
-1.45113e-10
-7.46883e-12
-1.39454e-10
-7.59003e-12
-1.33717e-10
-7.69607e-12
-1.27912e-10
-7.78635e-12
-1.2205e-10
-7.85977e-12
-1.16146e-10
-7.9163e-12
-1.10211e-10
-7.95709e-12
-1.04258e-10
-7.98202e-12
-9.8301e-11
-7.98925e-12
-9.23528e-11
-7.97696e-12
-8.6427e-11
-7.94465e-12
-8.05366e-11
-7.8937e-12
-7.46962e-11
-7.82521e-12
-6.89202e-11
-7.73826e-12
-6.32231e-11
-7.63174e-12
-5.76191e-11
-7.50571e-12
-5.21217e-11
-7.36057e-12
-4.67464e-11
-7.19637e-12
-4.15098e-11
-7.01237e-12
-3.64259e-11
-6.80779e-12
-3.15078e-11
-6.58283e-12
-2.67693e-11
-6.33803e-12
-2.22253e-11
-6.07396e-12
-1.78909e-11
-5.79138e-12
-1.37797e-11
-5.49047e-12
-9.90375e-12
-5.17149e-12
-6.27587e-12
-4.83585e-12
-2.90883e-12
-4.48482e-12
1.863e-13
-4.11862e-12
2.99914e-12
-3.73743e-12
5.52043e-12
-3.3419e-12
7.74256e-12
-2.93386e-12
9.65835e-12
-2.51656e-12
1.1262e-11
-2.09313e-12
1.25501e-11
-1.66539e-12
1.35208e-11
-1.23493e-12
1.41743e-11
-8.04389e-13
1.45146e-11
-3.77742e-13
1.45484e-11
4.00913e-14
1.42852e-11
4.44165e-13
1.37395e-11
8.29486e-13
1.29309e-11
1.18968e-12
1.18843e-11
1.51624e-12
1.06315e-11
1.79922e-12
9.2125e-12
2.02733e-12
7.67665e-12
2.18718e-12
6.08487e-12
2.26319e-12
4.51015e-12
2.23704e-12
3.03718e-12
2.08772e-12
1.76164e-12
1.79574e-12
7.82869e-13
1.35342e-12
1.82871e-13
7.80243e-13
1.64382e-13
-1.0149e-12
1.54568e-12
-1.00225e-12
-1.51106e-12
4.72902e-13
-5.23687e-12
2.75236e-12
-6.17723e-12
5.32387e-12
-5.88998e-12
7.90013e-12
-5.31395e-12
1.03231e-11
-4.70239e-12
1.25077e-11
-4.10259e-12
1.43875e-11
-3.48231e-12
1.59156e-11
-2.82081e-12
1.70537e-11
-2.10533e-12
1.77585e-11
-1.33722e-12
1.80114e-11
-5.16428e-13
1.77846e-11
3.45914e-13
1.70632e-11
1.24424e-12
1.5836e-11
2.16305e-12
1.40946e-11
3.09688e-12
1.18399e-11
4.03654e-12
9.07074e-12
4.97416e-12
5.79418e-12
5.90535e-12
2.01712e-12
6.82252e-12
-2.24967e-12
7.71864e-12
-6.99293e-12
8.5937e-12
-1.21977e-11
9.43965e-12
-1.78471e-11
1.02546e-11
-2.39217e-11
1.10376e-11
-3.04043e-11
1.17821e-11
-3.72722e-11
1.24897e-11
-4.4504e-11
1.31593e-11
-5.20786e-11
1.37851e-11
-5.99696e-11
1.43682e-11
-6.81561e-11
1.49076e-11
-7.66155e-11
1.54012e-11
-8.53203e-11
1.58519e-11
-9.42475e-11
1.62591e-11
-1.03374e-10
1.66211e-11
-1.12671e-10
1.69387e-11
-1.22117e-10
1.7212e-11
-1.31688e-10
1.74398e-11
-1.4136e-10
1.76245e-11
-1.51106e-10
1.77665e-11
-1.60907e-10
1.78652e-11
-1.70736e-10
1.79219e-11
-1.8057e-10
1.79369e-11
-1.90391e-10
1.79095e-11
-2.00176e-10
1.78417e-11
-2.09901e-10
1.77359e-11
-2.19546e-10
1.7591e-11
-2.29092e-10
1.74076e-11
-2.38519e-10
1.71892e-11
-2.47807e-10
1.69366e-11
-2.5694e-10
1.66499e-11
-2.65896e-10
1.63326e-11
-2.7466e-10
1.59849e-11
-2.83216e-10
1.56057e-11
-2.91547e-10
1.5197e-11
-2.99638e-10
1.47612e-11
-3.07477e-10
1.42981e-11
-3.15047e-10
1.38089e-11
-3.22336e-10
1.32958e-11
-3.29331e-10
1.27595e-11
-3.36022e-10
1.22011e-11
-3.42394e-10
1.16231e-11
-3.4844e-10
1.10271e-11
-3.54149e-10
1.04133e-11
-3.59512e-10
9.78278e-12
-3.64519e-10
9.13677e-12
-3.69165e-10
8.47584e-12
-3.73442e-10
7.80149e-12
-3.77342e-10
7.11544e-12
-3.80859e-10
6.41843e-12
-3.8399e-10
5.71162e-12
-3.86729e-10
4.99701e-12
-3.8907e-10
4.27603e-12
-3.91012e-10
3.54889e-12
-3.92553e-10
2.81586e-12
-3.9369e-10
2.0788e-12
-3.94419e-10
1.33946e-12
-3.94741e-10
5.97879e-13
-3.94657e-10
-1.45175e-13
-3.94166e-10
-8.87316e-13
-3.93268e-10
-1.62692e-12
-3.91966e-10
-2.36381e-12
-3.90261e-10
-3.09736e-12
-3.88158e-10
-3.82553e-12
-3.85658e-10
-4.54646e-12
-3.82765e-10
-5.26017e-12
-3.79485e-10
-5.96668e-12
-3.75822e-10
-6.66432e-12
-3.71783e-10
-7.3511e-12
-3.67374e-10
-8.02576e-12
-3.62602e-10
-8.68758e-12
-3.57475e-10
-9.33536e-12
-3.52001e-10
-9.96708e-12
-3.46189e-10
-1.05817e-11
-3.40048e-10
-1.11791e-11
-3.33589e-10
-1.17585e-11
-3.26823e-10
-1.2318e-11
-3.1976e-10
-1.28562e-11
-3.12413e-10
-1.33726e-11
-3.04796e-10
-1.38668e-11
-2.96919e-10
-1.43371e-11
-2.88799e-10
-1.47813e-11
-2.80449e-10
-1.5198e-11
-2.71885e-10
-1.5587e-11
-2.63121e-10
-1.5948e-11
-2.54175e-10
-1.628e-11
-2.45062e-10
-1.65813e-11
-2.35802e-10
-1.68509e-11
-2.26412e-10
-1.70873e-11
-2.16911e-10
-1.72887e-11
-2.07318e-10
-1.74539e-11
-1.97653e-10
-1.75822e-11
-1.87935e-10
-1.76738e-11
-1.78186e-10
-1.7729e-11
-1.68427e-10
-1.7746e-11
-1.58681e-10
-1.77226e-11
-1.48969e-10
-1.76573e-11
-1.39313e-10
-1.75502e-11
-1.29734e-10
-1.74027e-11
-1.20257e-10
-1.72146e-11
-1.10906e-10
-1.69841e-11
-1.01704e-10
-1.67096e-11
-9.26729e-11
-1.63911e-11
-8.3836e-11
-1.60299e-11
-7.52184e-11
-1.56269e-11
-6.68446e-11
-1.51809e-11
-5.8737e-11
-1.46908e-11
-5.09176e-11
-1.41574e-11
-4.34088e-11
-1.35825e-11
-3.62341e-11
-1.29671e-11
-2.94151e-11
-1.23117e-11
-2.29718e-11
-1.16168e-11
-1.69234e-11
-1.08844e-11
-1.12895e-11
-1.01175e-11
-6.08829e-12
-9.31857e-12
-1.33546e-12
-8.48935e-12
2.95484e-12
-7.63206e-12
6.76988e-12
-6.75011e-12
1.00991e-11
-5.84794e-12
1.2935e-11
-4.93061e-12
1.52729e-11
-4.00324e-12
1.71106e-11
-3.07134e-12
1.84494e-11
-2.14205e-12
1.92956e-11
-1.22364e-12
1.9661e-11
-3.25025e-13
1.95624e-11
5.43339e-13
1.90229e-11
1.36928e-12
1.80731e-11
2.1391e-12
1.67523e-11
2.83631e-12
1.51106e-11
3.44084e-12
1.32082e-11
3.92992e-12
1.11176e-11
4.27793e-12
8.92601e-12
4.45495e-12
6.7352e-12
4.42773e-12
4.66015e-12
4.16241e-12
2.82561e-12
3.62997e-12
1.359e-12
2.81959e-12
3.78603e-13
1.76006e-12
5.42599e-13
-5.15535e-13
2.05682e-12
-2.81571e-13
-1.74458e-12
1.07795e-12
-6.59833e-12
3.26398e-12
-8.36236e-12
5.8815e-12
-8.50903e-12
8.62376e-12
-8.05606e-12
1.12762e-11
-7.35626e-12
1.36856e-11
-6.51067e-12
1.57435e-11
-5.53759e-12
1.73631e-11
-4.43925e-12
1.84785e-11
-3.22142e-12
1.90357e-11
-1.89459e-12
1.89923e-11
-4.76197e-13
1.83178e-11
1.02145e-12
1.69887e-11
2.57286e-12
1.4984e-11
4.16633e-12
1.22981e-11
5.78348e-12
8.92501e-12
7.4092e-12
4.86718e-12
9.03288e-12
1.31439e-13
1.06433e-11
-5.27479e-12
1.22267e-11
-1.13354e-11
1.37799e-11
-1.80338e-11
1.52919e-11
-2.53512e-11
1.67559e-11
-3.32647e-11
1.817e-11
-4.17509e-11
1.95243e-11
-5.0783e-11
2.08155e-11
-6.03332e-11
2.20426e-11
-7.03735e-11
2.31984e-11
-8.08726e-11
2.42837e-11
-9.18004e-11
2.52977e-11
-1.03126e-10
2.62337e-11
-1.14815e-10
2.70934e-11
-1.26838e-10
2.78769e-11
-1.3916e-10
2.85811e-11
-1.51747e-10
2.92086e-11
-1.64566e-10
2.97594e-11
-1.77585e-10
3.02308e-11
-1.9077e-10
3.06255e-11
-2.04088e-10
3.09442e-11
-2.17509e-10
3.11856e-11
-2.30998e-10
3.13531e-11
-2.44524e-10
3.14476e-11
-2.58058e-10
3.14687e-11
-2.71567e-10
3.14176e-11
-2.85022e-10
3.12973e-11
-2.98396e-10
3.1109e-11
-3.1166e-10
3.08536e-11
-3.24785e-10
3.05342e-11
-3.37745e-10
3.01517e-11
-3.50516e-10
2.9707e-11
-3.6307e-10
2.92045e-11
-3.75383e-10
2.86461e-11
-3.87433e-10
2.80327e-11
-3.99195e-10
2.73665e-11
-4.10646e-10
2.665e-11
-4.21769e-10
2.58842e-11
-4.32543e-10
2.50709e-11
-4.42949e-10
2.42137e-11
-4.52969e-10
2.33152e-11
-4.62587e-10
2.23763e-11
-4.71785e-10
2.13991e-11
-4.80547e-10
2.03864e-11
-4.88861e-10
1.93402e-11
-4.96711e-10
1.82626e-11
-5.04085e-10
1.71563e-11
-5.10971e-10
1.60229e-11
-5.1736e-10
1.4864e-11
-5.23241e-10
1.36823e-11
-5.28605e-10
1.24798e-11
-5.33443e-10
1.12575e-11
-5.37751e-10
1.00182e-11
-5.4152e-10
8.76493e-12
-5.44742e-10
7.49911e-12
-5.47416e-10
6.22214e-12
-5.49536e-10
4.93627e-12
-5.51101e-10
3.64373e-12
-5.52108e-10
2.3461e-12
-5.52555e-10
1.0447e-12
-5.52443e-10
-2.57934e-13
-5.51772e-10
-1.55877e-12
-5.50542e-10
-2.85637e-12
-5.48755e-10
-4.1498e-12
-5.46416e-10
-5.43667e-12
-5.43527e-10
-6.71409e-12
-5.40094e-10
-7.98027e-12
-5.36122e-10
-9.23421e-12
-5.31616e-10
-1.04739e-11
-5.26584e-10
-1.16963e-11
-5.21035e-10
-1.29e-11
-5.14976e-10
-1.40838e-11
-5.08419e-10
-1.52453e-11
-5.01373e-10
-1.63815e-11
-4.9385e-10
-1.749e-11
-4.85862e-10
-1.85697e-11
-4.77421e-10
-1.96197e-11
-4.68542e-10
-2.06374e-11
-4.5924e-10
-2.16201e-11
-4.49531e-10
-2.2566e-11
-4.3943e-10
-2.34739e-11
-4.28956e-10
-2.43419e-11
-4.18127e-10
-2.51672e-11
-4.06961e-10
-2.59475e-11
-3.95477e-10
-2.66813e-11
-3.83697e-10
-2.73669e-11
-3.71642e-10
-2.80026e-11
-3.59336e-10
-2.85862e-11
-3.46802e-10
-2.91158e-11
-3.34064e-10
-2.95897e-11
-3.21144e-10
-3.00063e-11
-3.08069e-10
-3.03628e-11
-2.94866e-10
-3.06571e-11
-2.81562e-10
-3.08873e-11
-2.68185e-10
-3.10523e-11
-2.54762e-10
-3.11517e-11
-2.41323e-10
-3.11842e-11
-2.27897e-10
-3.11477e-11
-2.14514e-10
-3.10401e-11
-2.01204e-10
-3.08603e-11
-1.87997e-10
-3.06082e-11
-1.74925e-10
-3.02843e-11
-1.6202e-10
-2.98872e-11
-1.49316e-10
-2.94149e-11
-1.36841e-10
-2.88669e-11
-1.24628e-10
-2.82435e-11
-1.12709e-10
-2.75456e-11
-1.01115e-10
-2.67733e-11
-8.98792e-11
-2.59263e-11
-7.90312e-11
-2.50052e-11
-6.86008e-11
-2.40122e-11
-5.86183e-11
-2.29491e-11
-4.91126e-11
-2.18172e-11
-4.01117e-11
-2.06187e-11
-3.16416e-11
-1.93565e-11
-2.37266e-11
-1.80344e-11
-1.63898e-11
-1.66562e-11
-9.65306e-12
-1.52261e-11
-3.53487e-12
-1.37491e-11
1.94859e-12
-1.22323e-11
6.78319e-12
-1.06829e-11
1.09595e-11
-9.10817e-12
1.44726e-11
-7.51689e-12
1.73206e-11
-5.91941e-12
1.95061e-11
-4.32773e-12
2.10384e-11
-2.75604e-12
2.19333e-11
-1.21999e-12
2.22139e-11
2.63145e-13
2.19113e-11
1.67297e-12
2.10654e-11
2.98548e-12
1.97274e-11
4.17367e-12
1.79613e-11
5.20673e-12
1.58427e-11
6.04881e-12
1.34606e-11
6.65957e-12
1.09205e-11
6.99412e-12
8.34404e-12
7.00376e-12
5.86561e-12
6.6404e-12
3.63166e-12
5.86362e-12
1.79679e-12
4.65429e-12
5.21788e-13
3.03438e-12
1.06391e-12
1.10864e-13
1.94622e-12
8.26098e-13
-2.45609e-12
2.31518e-12
-8.08664e-12
4.47848e-12
-1.0527e-11
7.04575e-12
-1.10747e-11
9.73947e-12
-1.07509e-11
1.23381e-11
-9.95424e-12
1.46629e-11
-8.83701e-12
1.65816e-11
-7.45484e-12
1.79831e-11
-5.84301e-12
1.87857e-11
-4.0204e-12
1.89169e-11
-2.02514e-12
1.8322e-11
1.19393e-13
1.69646e-11
2.38003e-12
1.48089e-11
4.72884e-12
1.18339e-11
7.14055e-12
8.02888e-12
9.58866e-12
3.38376e-12
1.20532e-11
-2.09766e-12
1.45155e-11
-8.4104e-12
1.69547e-11
-1.55434e-11
1.93613e-11
-2.34808e-11
2.17175e-11
-3.22011e-11
2.40117e-11
-4.1682e-11
2.62375e-11
-5.1896e-11
2.83833e-11
-6.28143e-11
3.04418e-11
-7.44054e-11
3.24082e-11
-8.66354e-11
3.42731e-11
-9.94688e-11
3.60324e-11
-1.12869e-10
3.76847e-11
-1.26798e-10
3.92251e-11
-1.41216e-10
4.06509e-11
-1.56084e-10
4.19619e-11
-1.71362e-10
4.31544e-11
-1.87008e-10
4.42275e-11
-2.02982e-10
4.51828e-11
-2.19242e-10
4.60188e-11
-2.35747e-10
4.67351e-11
-2.52455e-10
4.73344e-11
-2.69326e-10
4.7816e-11
-2.86321e-10
4.81804e-11
-3.03397e-10
4.84312e-11
-3.20518e-10
4.85686e-11
-3.37645e-10
4.8594e-11
-3.54737e-10
4.85109e-11
-3.71759e-10
4.83202e-11
-3.88675e-10
4.8024e-11
-4.05448e-10
4.76269e-11
-4.22046e-10
4.71312e-11
-4.38434e-10
4.65381e-11
-4.54579e-10
4.58518e-11
-4.70449e-10
4.50757e-11
-4.86015e-10
4.42115e-11
-5.01246e-10
4.32631e-11
-5.16114e-10
4.22344e-11
-5.30592e-10
4.11278e-11
-5.44654e-10
3.99455e-11
-5.58274e-10
3.86912e-11
-5.71428e-10
3.73686e-11
-5.84095e-10
3.59811e-11
-5.96253e-10
3.45325e-11
-6.07879e-10
3.3026e-11
-6.18957e-10
3.14643e-11
-6.29468e-10
2.98506e-11
-6.39394e-10
2.81885e-11
-6.48719e-10
2.64811e-11
-6.57428e-10
2.47315e-11
-6.65509e-10
2.29434e-11
-6.72946e-10
2.11202e-11
-6.79731e-10
1.92644e-11
-6.85852e-10
1.73788e-11
-6.91302e-10
1.54675e-11
-6.9607e-10
1.35337e-11
-7.0015e-10
1.15794e-11
-7.03537e-10
9.60815e-12
-7.06225e-10
7.62382e-12
-7.0821e-10
5.62888e-12
-7.09489e-10
3.62555e-12
-7.10062e-10
1.61709e-12
-7.09928e-10
-3.92528e-13
-7.09087e-10
-2.40006e-12
-7.07541e-10
-4.4034e-12
-7.05292e-10
-6.39973e-12
-7.02343e-10
-8.38494e-12
-6.987e-10
-1.03559e-11
-6.94369e-10
-1.23109e-11
-6.89356e-10
-1.42471e-11
-6.8367e-10
-1.61606e-11
-6.77319e-10
-1.80476e-11
-6.70314e-10
-1.99056e-11
-6.62665e-10
-2.17329e-11
-6.54385e-10
-2.35255e-11
-6.45487e-10
-2.52793e-11
-6.35986e-10
-2.69914e-11
-6.25897e-10
-2.86596e-11
-6.15236e-10
-3.02811e-11
-6.0402e-10
-3.18525e-11
-5.92269e-10
-3.33703e-11
-5.80003e-10
-3.48321e-11
-5.67241e-10
-3.62354e-11
-5.54006e-10
-3.75765e-11
-5.40322e-10
-3.88517e-11
-5.26212e-10
-4.00582e-11
-5.117e-10
-4.11936e-11
-4.96812e-10
-4.22549e-11
-4.81575e-10
-4.32388e-11
-4.66019e-10
-4.41424e-11
-4.50173e-10
-4.49626e-11
-4.34067e-10
-4.56966e-11
-4.17731e-10
-4.63419e-11
-4.01198e-10
-4.68953e-11
-3.84501e-10
-4.73541e-11
-3.67671e-10
-4.77158e-11
-3.50746e-10
-4.79779e-11
-3.33759e-10
-4.8138e-11
-3.16749e-10
-4.81943e-11
-2.99752e-10
-4.81448e-11
-2.82803e-10
-4.79877e-11
-2.65942e-10
-4.77213e-11
-2.49208e-10
-4.73437e-11
-2.32638e-10
-4.68539e-11
-2.16272e-10
-4.62511e-11
-2.0015e-10
-4.55347e-11
-1.84312e-10
-4.4704e-11
-1.68797e-10
-4.37587e-11
-1.53645e-10
-4.26984e-11
-1.38894e-10
-4.15237e-11
-1.24584e-10
-4.02363e-11
-1.10752e-10
-3.88375e-11
-9.74368e-11
-3.7329e-11
-8.46733e-11
-3.5713e-11
-7.24973e-11
-3.39925e-11
-6.09429e-11
-3.2172e-11
-5.00432e-11
-3.02562e-11
-3.98284e-11
-2.82504e-11
-3.03258e-11
-2.61601e-11
-2.15611e-11
-2.39919e-11
-1.35572e-11
-2.17539e-11
-6.33304e-12
-1.94563e-11
9.53024e-14
-1.71108e-11
5.71591e-12
-1.47288e-11
1.05225e-11
-1.23234e-11
1.45139e-11
-9.91058e-12
1.76949e-11
-7.50905e-12
2.00777e-11
-5.13917e-12
2.16815e-11
-2.82386e-12
2.25337e-11
-5.89355e-13
2.26724e-11
1.5343e-12
2.21459e-11
3.51242e-12
2.10141e-11
5.30568e-12
1.93503e-11
6.87041e-12
1.72424e-11
8.15717e-12
1.47919e-11
9.11024e-12
1.21165e-11
9.6688e-12
9.35102e-12
9.76848e-12
6.64531e-12
9.34566e-12
4.16366e-12
8.34497e-12
2.08592e-12
6.73189e-12
6.13012e-13
4.50647e-12
1.67633e-12
5.25792e-13
1.41961e-12
1.6422e-12
-3.57546e-12
3.29202e-12
-9.73632e-12
5.44645e-12
-1.26811e-11
7.90516e-12
-1.35345e-11
1.04327e-11
-1.3275e-11
1.28079e-11
-1.23313e-11
1.48533e-11
-1.08817e-11
1.64203e-11
-9.0238e-12
1.73891e-11
-6.80961e-12
1.76615e-11
-4.29488e-12
1.71601e-11
-1.52277e-12
1.58198e-11
1.45959e-12
1.35913e-11
4.60741e-12
1.04405e-11
7.8813e-12
6.33905e-12
1.1242e-11
1.27081e-12
1.46569e-11
-4.77138e-12
1.80968e-11
-1.17901e-11
2.15319e-11
-1.97759e-11
2.4942e-11
-2.87189e-11
2.83037e-11
-3.85999e-11
3.15976e-11
-4.93966e-11
3.48099e-11
-6.10824e-11
3.79236e-11
-7.36259e-11
4.09264e-11
-8.69933e-11
4.38103e-11
-1.01149e-10
4.65628e-11
-1.16052e-10
4.91764e-11
-1.31663e-10
5.16453e-11
-1.47938e-10
5.39609e-11
-1.64833e-10
5.61203e-11
-1.82301e-10
5.81207e-11
-2.00298e-10
5.99572e-11
-2.18773e-10
6.16293e-11
-2.37679e-10
6.3135e-11
-2.56969e-10
6.44726e-11
-2.76593e-10
6.56425e-11
-2.96502e-10
6.66449e-11
-3.1665e-10
6.74805e-11
-3.36986e-10
6.81504e-11
-3.57461e-10
6.8657e-11
-3.78031e-10
6.90013e-11
-3.98649e-10
6.9185e-11
-4.19267e-10
6.92125e-11
-4.39841e-10
6.90858e-11
-4.60329e-10
6.88069e-11
-4.80684e-10
6.83804e-11
-5.00866e-10
6.78099e-11
-5.20834e-10
6.70984e-11
-5.40547e-10
6.62506e-11
-5.59966e-10
6.52712e-11
-5.79055e-10
6.41635e-11
-5.97775e-10
6.29313e-11
-6.16091e-10
6.15799e-11
-6.33971e-10
6.01139e-11
-6.51381e-10
5.85371e-11
-6.68291e-10
5.6854e-11
-6.84669e-10
5.50697e-11
-7.00488e-10
5.31881e-11
-7.15722e-10
5.12137e-11
-7.30341e-10
4.9152e-11
-7.44323e-10
4.70081e-11
-7.57646e-10
4.47858e-11
-7.70286e-10
4.24901e-11
-7.82222e-10
4.01257e-11
-7.93438e-10
3.76964e-11
-8.03914e-10
3.52072e-11
-8.13634e-10
3.26633e-11
-8.22582e-10
3.00686e-11
-8.30746e-10
2.74275e-11
-8.38113e-10
2.47449e-11
-8.4467e-10
2.20255e-11
-8.50409e-10
1.92733e-11
-8.55322e-10
1.64922e-11
-8.59402e-10
1.36872e-11
-8.62642e-10
1.08633e-11
-8.65037e-10
8.02374e-12
-8.66584e-10
5.17251e-12
-8.67282e-10
2.3149e-12
-8.6713e-10
-5.44453e-13
-8.66128e-10
-3.40194e-12
-8.64278e-10
-6.25369e-12
-8.61584e-10
-9.09464e-12
-8.58049e-10
-1.19197e-11
-8.5368e-10
-1.47253e-11
-8.48483e-10
-1.75081e-11
-8.42467e-10
-2.02635e-11
-8.3564e-10
-2.29863e-11
-8.28015e-10
-2.56725e-11
-8.19604e-10
-2.8318e-11
-8.10418e-10
-3.09187e-11
-8.00474e-10
-3.34697e-11
-7.89786e-10
-3.59662e-11
-7.78373e-10
-3.84045e-11
-7.66252e-10
-4.07808e-11
-7.53444e-10
-4.30899e-11
-7.39968e-10
-4.53275e-11
-7.25849e-10
-4.74895e-11
-7.11109e-10
-4.95723e-11
-6.95773e-10
-5.15715e-11
-6.79867e-10
-5.3482e-11
-6.63419e-10
-5.52992e-11
-6.46458e-10
-5.70193e-11
-6.29014e-10
-5.86383e-11
-6.11117e-10
-6.01519e-11
-5.92799e-10
-6.15556e-11
-5.74096e-10
-6.28453e-11
-5.55041e-10
-6.40172e-11
-5.35671e-10
-6.50671e-11
-5.16022e-10
-6.59906e-11
-4.96135e-10
-6.67837e-11
-4.76047e-10
-6.74427e-11
-4.55797e-10
-6.79648e-11
-4.35427e-10
-6.83467e-11
-4.1498e-10
-6.85846e-11
-3.94499e-10
-6.86751e-11
-3.74028e-10
-6.86154e-11
-3.53611e-10
-6.84038e-11
-3.33292e-10
-6.80385e-11
-3.1312e-10
-6.75171e-11
-2.93139e-10
-6.68364e-11
-2.73395e-10
-6.59951e-11
-2.53934e-10
-6.49936e-11
-2.34805e-10
-6.38317e-11
-2.16054e-10
-6.25087e-11
-1.97729e-10
-6.10241e-11
-1.79874e-10
-5.93786e-11
-1.62535e-10
-5.75746e-11
-1.45758e-10
-5.56149e-11
-1.29586e-10
-5.35017e-11
-1.14062e-10
-5.12379e-11
-9.92277e-11
-4.88279e-11
-8.51216e-11
-4.6278e-11
-7.17822e-11
-4.35953e-11
-5.92452e-11
-4.07875e-11
-4.75431e-11
-3.78624e-11
-3.67054e-11
-3.48299e-11
-2.67583e-11
-3.17022e-11
-1.77235e-11
-2.84926e-11
-9.61831e-12
-2.52163e-11
-2.45627e-12
-2.18904e-11
3.75495e-12
-1.85343e-11
9.01439e-12
-1.51701e-11
1.33285e-11
-1.18232e-11
1.67114e-11
-8.52196e-12
1.91854e-11
-5.29774e-12
2.07823e-11
-2.18624e-12
2.15445e-11
7.71667e-13
2.15267e-11
3.5299e-12
2.0796e-11
6.03655e-12
1.9433e-11
8.23379e-12
1.75325e-11
1.00575e-11
1.52054e-11
1.14369e-11
1.25792e-11
1.22945e-11
9.79842e-12
1.2549e-11
7.02423e-12
1.21196e-11
4.43653e-12
1.09323e-11
2.23755e-12
8.93068e-12
6.60208e-13
6.08311e-12
2.33596e-12
7.32575e-13
6.86938e-13
2.09165e-12
-4.93311e-12
3.8303e-12
-1.14746e-11
5.91757e-12
-1.47695e-11
8.19736e-12
-1.58135e-11
1.04525e-11
-1.55322e-11
1.24796e-11
-1.4357e-11
1.40978e-11
-1.24989e-11
1.51517e-11
-1.00782e-11
1.55188e-11
-7.17774e-12
1.50935e-11
-3.8703e-12
1.3792e-11
-2.19903e-13
1.15434e-11
3.70754e-12
8.2938e-12
7.85699e-12
4.00357e-12
1.21718e-11
-1.35942e-12
1.66035e-11
-7.81015e-12
2.111e-11
-1.5362e-11
2.5648e-11
-2.40141e-11
3.01848e-11
-3.37598e-11
3.46881e-11
-4.45851e-11
3.91288e-11
-5.64719e-11
4.34845e-11
-6.93937e-11
4.77321e-11
-8.33217e-11
5.18511e-11
-9.82209e-11
5.58268e-11
-1.14054e-10
5.96433e-11
-1.30779e-10
6.32865e-11
-1.48351e-10
6.67491e-11
-1.66726e-10
7.00193e-11
-1.85853e-10
7.30879e-11
-2.05682e-10
7.59508e-11
-2.26162e-10
7.86013e-11
-2.4724e-10
8.10342e-11
-2.68859e-10
8.32496e-11
-2.90968e-10
8.52434e-11
-3.13509e-10
8.70135e-11
-3.36427e-10
8.85614e-11
-3.59667e-10
8.98858e-11
-3.83175e-10
9.09866e-11
-4.06892e-10
9.18681e-11
-4.30766e-10
9.2531e-11
-4.54742e-10
9.29764e-11
-4.78765e-10
9.32093e-11
-5.02785e-10
9.32322e-11
-5.26749e-10
9.30484e-11
-5.50605e-10
9.26631e-11
-5.74305e-10
9.20807e-11
-5.978e-10
9.13046e-11
-6.21042e-10
9.03403e-11
-6.43985e-10
8.91939e-11
-6.66584e-10
8.78703e-11
-6.88797e-10
8.63748e-11
-7.10579e-10
8.47135e-11
-7.31891e-10
8.28924e-11
-7.52694e-10
8.09168e-11
-7.72949e-10
7.87922e-11
-7.92621e-10
7.65257e-11
-8.11675e-10
7.41235e-11
-8.30079e-10
7.1591e-11
-8.478e-10
6.89344e-11
-8.64807e-10
6.61605e-11
-8.81075e-10
6.32751e-11
-8.96575e-10
6.02846e-11
-9.1128e-10
5.71955e-11
-9.25168e-10
5.40138e-11
-9.38218e-10
5.07452e-11
-9.50407e-10
4.73965e-11
-9.61717e-10
4.39737e-11
-9.72131e-10
4.04823e-11
-9.81633e-10
3.69285e-11
-9.90207e-10
3.33193e-11
-9.97841e-10
2.96599e-11
-1.00452e-09
2.59559e-11
-1.01025e-09
2.22137e-11
-1.015e-09
1.84397e-11
-1.01877e-09
1.46393e-11
-1.02157e-09
1.08175e-11
-1.02338e-09
6.9809e-12
-1.0242e-09
3.13611e-12
-1.02403e-09
-7.11647e-13
-1.02288e-09
-4.55746e-12
-1.02074e-09
-8.39499e-12
-1.01761e-09
-1.22176e-11
-1.01351e-09
-1.60197e-11
-1.00844e-09
-1.97965e-11
-1.00241e-09
-2.35421e-11
-9.95422e-10
-2.72498e-11
-9.87494e-10
-3.09139e-11
-9.78636e-10
-3.45297e-11
-9.68863e-10
-3.80911e-11
-9.58191e-10
-4.15915e-11
-9.46636e-10
-4.50247e-11
-9.34216e-10
-4.83856e-11
-9.20952e-10
-5.16687e-11
-9.06864e-10
-5.48682e-11
-8.91976e-10
-5.79774e-11
-8.76312e-10
-6.09906e-11
-8.59899e-10
-6.3903e-11
-8.42762e-10
-6.67087e-11
-8.24932e-10
-6.94015e-11
-8.06439e-10
-7.19752e-11
-7.87314e-10
-7.44242e-11
-7.6759e-10
-7.67432e-11
-7.47302e-10
-7.89262e-11
-7.26486e-10
-8.09673e-11
-7.05181e-10
-8.28609e-11
-6.83424e-10
-8.46017e-11
-6.61256e-10
-8.61845e-11
-6.38718e-10
-8.76042e-11
-6.15854e-10
-8.88547e-11
-5.92708e-10
-8.99305e-11
-5.69324e-10
-9.08269e-11
-5.45749e-10
-9.15396e-11
-5.2203e-10
-9.20647e-11
-4.98216e-10
-9.23978e-11
-4.74357e-10
-9.25339e-11
-4.50504e-10
-9.24694e-11
-4.26706e-10
-9.22016e-11
-4.03015e-10
-9.17279e-11
-3.79486e-10
-9.10456e-11
-3.56171e-10
-9.01517e-11
-3.33122e-10
-8.90439e-11
-3.10393e-10
-8.7722e-11
-2.88038e-10
-8.6186e-11
-2.66111e-10
-8.44354e-11
-2.44665e-10
-8.24701e-11
-2.23753e-10
-8.02915e-11
-2.03425e-10
-7.79022e-11
-1.83734e-10
-7.53059e-11
-1.6473e-10
-7.2506e-11
-1.46461e-10
-6.95069e-11
-1.28974e-10
-6.63151e-11
-1.12314e-10
-6.2939e-11
-9.65235e-11
-5.9387e-11
-8.16422e-11
-5.56693e-11
-6.77068e-11
-5.17976e-11
-5.47512e-11
-4.77856e-11
-4.28044e-11
-4.36494e-11
-3.1891e-11
-3.94069e-11
-2.20304e-11
-3.50776e-11
-1.32367e-11
-3.0684e-11
-5.5182e-12
-2.62525e-11
1.12359e-12
-2.18124e-11
6.69606e-12
-1.73963e-11
1.12153e-11
-1.30409e-11
1.47054e-11
-8.78736e-12
1.72008e-11
-4.68171e-12
1.87484e-11
-7.76033e-13
1.94071e-11
2.8712e-12
1.92487e-11
6.19518e-12
1.83586e-11
9.12414e-12
1.68377e-11
1.15785e-11
1.48027e-11
1.34712e-11
1.2388e-11
1.47085e-11
9.74556e-12
1.51915e-11
7.04553e-12
1.48194e-11
4.4805e-12
1.34966e-11
2.27049e-12
1.11402e-11
6.71251e-13
7.68188e-12
3.00687e-12
8.06093e-13
-1.16855e-13
2.24457e-12
-6.37405e-12
3.95976e-12
-1.31885e-11
5.90076e-12
-1.67088e-11
7.91392e-12
-1.78277e-11
9.80113e-12
-1.74186e-11
1.13626e-11
-1.59178e-11
1.24236e-11
-1.35604e-11
1.28322e-11
-1.04846e-11
1.24573e-11
-6.8031e-12
1.11924e-11
-2.60418e-12
8.94873e-12
2.02309e-12
5.65411e-12
7.00317e-12
1.2511e-12
1.22599e-11
-4.30507e-12
1.77271e-11
-1.10438e-11
2.33441e-11
-1.89886e-11
2.90527e-11
-2.81459e-11
3.48061e-11
-3.852e-11
4.05592e-11
-5.0103e-11
4.62699e-11
-6.28787e-11
5.19055e-11
-7.68273e-11
5.74331e-11
-9.19209e-11
6.28246e-11
-1.08126e-10
6.80573e-11
-1.25408e-10
7.31081e-11
-1.43721e-10
7.79572e-11
-1.63022e-10
8.25892e-11
-1.83262e-10
8.69895e-11
-2.0439e-10
9.11461e-11
-2.2635e-10
9.50488e-11
-2.49088e-10
9.86889e-11
-2.72546e-10
1.02059e-10
-2.96664e-10
1.05153e-10
-3.21382e-10
1.07968e-10
-3.4664e-10
1.10501e-10
-3.72375e-10
1.12749e-10
-3.98525e-10
1.14712e-10
-4.2503e-10
1.16389e-10
-4.51825e-10
1.17782e-10
-4.78849e-10
1.18893e-10
-5.06043e-10
1.19723e-10
-5.33344e-10
1.20277e-10
-5.60692e-10
1.20558e-10
-5.88028e-10
1.20568e-10
-6.15295e-10
1.20315e-10
-6.42434e-10
1.19803e-10
-6.69391e-10
1.19037e-10
-6.9611e-10
1.18023e-10
-7.22537e-10
1.16768e-10
-7.48622e-10
1.15279e-10
-7.74314e-10
1.13561e-10
-7.99562e-10
1.11623e-10
-8.24321e-10
1.09472e-10
-8.48544e-10
1.07115e-10