/*--------------------------------*- C++ -*----------------------------------*\
  =========                 |
  \\      /  F ield         | OpenFOAM: The Open Source CFD Toolbox
   \\    /   O peration     | Website:  https://openfoam.org
    \\  /    A nd           | Version:  7
     \\/     M anipulation  |
\*---------------------------------------------------------------------------*/
FoamFile
{
    version     2.0;
    format      ascii;
    class       volVectorField;
    location    "0.2125";
    object      U;
}
// * * * * * * * * * * * * * * * * * * * * * * * * * * * * * * * * * * * * * //

dimensions      [0 1 -1 0 0 0 0];

internalField   nonuniform List<vector> 
51200
(
(-8.46998e-09 7.06737e-10 0)
(3.11461e-08 -1.21524e-07 0)
(2.77624e-07 -2.0238e-07 0)
(5.50503e-07 -1.60382e-07 0)
(7.76743e-07 -1.01345e-07 0)
(9.26846e-07 -6.03018e-08 0)
(1.03207e-06 -3.68965e-08 0)
(1.112e-06 -2.31906e-08 0)
(1.17504e-06 -1.60283e-08 0)
(1.22533e-06 -1.02393e-08 0)
(1.26458e-06 -7.88799e-09 0)
(1.29153e-06 -4.2582e-09 0)
(1.30538e-06 -8.44671e-10 0)
(1.30439e-06 4.10755e-09 0)
(1.28896e-06 8.72266e-09 0)
(1.25691e-06 1.24902e-08 0)
(1.209e-06 1.72076e-08 0)
(1.14377e-06 2.16883e-08 0)
(1.06092e-06 2.64019e-08 0)
(9.61664e-07 3.15975e-08 0)
(8.44733e-07 3.56023e-08 0)
(7.11427e-07 4.0391e-08 0)
(5.62071e-07 4.5477e-08 0)
(3.95678e-07 4.9692e-08 0)
(2.14745e-07 5.40824e-08 0)
(1.90273e-08 5.7907e-08 0)
(-1.91643e-07 6.10036e-08 0)
(-4.15002e-07 6.48325e-08 0)
(-6.51343e-07 6.86395e-08 0)
(-9.0052e-07 7.17907e-08 0)
(-1.16013e-06 7.48479e-08 0)
(-1.43006e-06 7.7446e-08 0)
(-1.71022e-06 7.93558e-08 0)
(-1.99825e-06 8.12536e-08 0)
(-2.29407e-06 8.33118e-08 0)
(-2.59789e-06 8.50266e-08 0)
(-2.90741e-06 8.66544e-08 0)
(-3.22222e-06 8.85741e-08 0)
(-3.54242e-06 8.98599e-08 0)
(-3.86612e-06 9.06649e-08 0)
(-4.19253e-06 9.1979e-08 0)
(-4.52185e-06 9.29583e-08 0)
(-4.85285e-06 9.32663e-08 0)
(-5.18406e-06 9.39727e-08 0)
(-5.51543e-06 9.46532e-08 0)
(-5.84635e-06 9.43995e-08 0)
(-6.17528e-06 9.37145e-08 0)
(-6.50167e-06 9.28422e-08 0)
(-6.82538e-06 9.11279e-08 0)
(-7.14533e-06 8.8935e-08 0)
(-7.46054e-06 8.72638e-08 0)
(-7.77087e-06 8.58394e-08 0)
(-8.07599e-06 8.4113e-08 0)
(-8.37489e-06 8.25242e-08 0)
(-8.66694e-06 8.12758e-08 0)
(-8.95212e-06 7.97569e-08 0)
(-9.22976e-06 7.77456e-08 0)
(-9.49877e-06 7.56672e-08 0)
(-9.75885e-06 7.33309e-08 0)
(-1.001e-05 7.0186e-08 0)
(-1.02514e-05 6.65469e-08 0)
(-1.04822e-05 6.31585e-08 0)
(-1.07026e-05 6.00712e-08 0)
(-1.09124e-05 5.70003e-08 0)
(-1.1111e-05 5.41295e-08 0)
(-1.12979e-05 5.15542e-08 0)
(-1.14732e-05 4.87581e-08 0)
(-1.16366e-05 4.53627e-08 0)
(-1.17875e-05 4.15597e-08 0)
(-1.19257e-05 3.76447e-08 0)
(-1.20511e-05 3.36971e-08 0)
(-1.21637e-05 2.97245e-08 0)
(-1.22631e-05 2.59334e-08 0)
(-1.23492e-05 2.25579e-08 0)
(-1.2422e-05 1.93082e-08 0)
(-1.24815e-05 1.56898e-08 0)
(-1.25274e-05 1.17557e-08 0)
(-1.25597e-05 7.82267e-09 0)
(-1.25783e-05 3.88178e-09 0)
(-1.25833e-05 -1.5361e-10 0)
(-1.25746e-05 -4.11418e-09 0)
(-1.25521e-05 -7.79808e-09 0)
(-1.25161e-05 -1.13062e-08 0)
(-1.24665e-05 -1.49901e-08 0)
(-1.24036e-05 -1.89592e-08 0)
(-1.23272e-05 -2.28916e-08 0)
(-1.22377e-05 -2.65277e-08 0)
(-1.21351e-05 -3.00365e-08 0)
(-1.20197e-05 -3.3664e-08 0)
(-1.18914e-05 -3.72746e-08 0)
(-1.17504e-05 -4.06373e-08 0)
(-1.1597e-05 -4.39264e-08 0)
(-1.14315e-05 -4.73995e-08 0)
(-1.12544e-05 -5.08993e-08 0)
(-1.10658e-05 -5.41339e-08 0)
(-1.0866e-05 -5.70823e-08 0)
(-1.06555e-05 -5.99092e-08 0)
(-1.04346e-05 -6.27146e-08 0)
(-1.02037e-05 -6.5467e-08 0)
(-9.96297e-06 -6.8155e-08 0)
(-9.71287e-06 -7.08549e-08 0)
(-9.4539e-06 -7.34699e-08 0)
(-9.18664e-06 -7.56802e-08 0)
(-8.91153e-06 -7.74226e-08 0)
(-8.62899e-06 -7.90372e-08 0)
(-8.33971e-06 -8.08317e-08 0)
(-8.0443e-06 -8.28335e-08 0)
(-7.74311e-06 -8.48189e-08 0)
(-7.43656e-06 -8.64395e-08 0)
(-7.1253e-06 -8.74968e-08 0)
(-6.81012e-06 -8.8069e-08 0)
(-6.49178e-06 -8.84376e-08 0)
(-6.1708e-06 -8.89501e-08 0)
(-5.84772e-06 -8.96965e-08 0)
(-5.52332e-06 -9.03737e-08 0)
(-5.1984e-06 -9.06316e-08 0)
(-4.87368e-06 -9.03652e-08 0)
(-4.54982e-06 -8.96672e-08 0)
(-4.22768e-06 -8.8698e-08 0)
(-3.90817e-06 -8.76342e-08 0)
(-3.59207e-06 -8.66272e-08 0)
(-3.27994e-06 -8.56636e-08 0)
(-2.97244e-06 -8.44888e-08 0)
(-2.67052e-06 -8.28122e-08 0)
(-2.37523e-06 -8.06064e-08 0)
(-2.08739e-06 -7.81425e-08 0)
(-1.80753e-06 -7.56674e-08 0)
(-1.53638e-06 -7.30688e-08 0)
(-1.27497e-06 -7.00774e-08 0)
(-1.02423e-06 -6.67409e-08 0)
(-7.84946e-07 -6.33394e-08 0)
(-5.57834e-07 -5.9948e-08 0)
(-3.43563e-07 -5.63698e-08 0)
(-1.42896e-07 -5.23677e-08 0)
(4.33541e-08 -4.78802e-08 0)
(2.14509e-07 -4.30905e-08 0)
(3.69993e-07 -3.82469e-08 0)
(5.09284e-07 -3.34567e-08 0)
(6.31886e-07 -2.86669e-08 0)
(7.37235e-07 -2.37372e-08 0)
(8.24807e-07 -1.85615e-08 0)
(8.94293e-07 -1.31515e-08 0)
(9.45582e-07 -7.58764e-09 0)
(9.78706e-07 -1.97694e-09 0)
(9.93762e-07 3.55118e-09 0)
(9.9084e-07 8.87088e-09 0)
(9.70272e-07 1.39067e-08 0)
(9.32834e-07 1.87071e-08 0)
(8.79468e-07 2.33777e-08 0)
(8.11224e-07 2.78583e-08 0)
(7.29595e-07 3.18421e-08 0)
(6.36664e-07 3.49873e-08 0)
(5.3508e-07 3.71385e-08 0)
(4.28169e-07 3.81396e-08 0)
(3.20184e-07 3.75386e-08 0)
(2.16535e-07 3.46436e-08 0)
(1.24026e-07 2.87975e-08 0)
(5.06814e-08 1.95764e-08 0)
(5.12673e-09 7.17871e-09 0)
(-4.63623e-09 -4.42714e-09 0)
(-1.05968e-07 2.03078e-08 0)
(-7.8729e-08 -2.08247e-07 0)
(1.4452e-07 -4.58452e-07 0)
(5.06094e-07 -4.30676e-07 0)
(8.9018e-07 -3.31587e-07 0)
(1.22388e-06 -2.47277e-07 0)
(1.51593e-06 -1.91489e-07 0)
(1.76904e-06 -1.53395e-07 0)
(1.98589e-06 -1.24071e-07 0)
(2.16612e-06 -9.83425e-08 0)
(2.30918e-06 -7.29141e-08 0)
(2.41198e-06 -4.72513e-08 0)
(2.46974e-06 -1.93481e-08 0)
(2.48296e-06 1.18663e-08 0)
(2.44712e-06 4.34623e-08 0)
(2.36373e-06 7.72201e-08 0)
(2.22934e-06 1.10422e-07 0)
(2.04328e-06 1.44513e-07 0)
(1.8073e-06 1.7952e-07 0)
(1.51924e-06 2.13493e-07 0)
(1.18182e-06 2.47124e-07 0)
(7.95868e-07 2.80534e-07 0)
(3.60256e-07 3.12314e-07 0)
(-1.20807e-07 3.44162e-07 0)
(-6.47041e-07 3.74834e-07 0)
(-1.21756e-06 4.0334e-07 0)
(-1.8282e-06 4.31104e-07 0)
(-2.47879e-06 4.57488e-07 0)
(-3.16735e-06 4.81902e-07 0)
(-3.88975e-06 5.0541e-07 0)
(-4.64537e-06 5.27157e-07 0)
(-5.43194e-06 5.46652e-07 0)
(-6.2456e-06 5.65014e-07 0)
(-7.0852e-06 5.81677e-07 0)
(-7.94856e-06 5.9615e-07 0)
(-8.83212e-06 6.09423e-07 0)
(-9.73408e-06 6.2144e-07 0)
(-1.06525e-05 6.31376e-07 0)
(-1.15842e-05 6.3992e-07 0)
(-1.25268e-05 6.47024e-07 0)
(-1.34788e-05 6.52415e-07 0)
(-1.44373e-05 6.5611e-07 0)
(-1.53996e-05 6.58315e-07 0)
(-1.63643e-05 6.59196e-07 0)
(-1.73289e-05 6.58469e-07 0)
(-1.82907e-05 6.56171e-07 0)
(-1.92479e-05 6.52612e-07 0)
(-2.01983e-05 6.47479e-07 0)
(-2.11397e-05 6.40445e-07 0)
(-2.20704e-05 6.32044e-07 0)
(-2.29886e-05 6.22691e-07 0)
(-2.38924e-05 6.1199e-07 0)
(-2.47799e-05 6.00044e-07 0)
(-2.56494e-05 5.87447e-07 0)
(-2.64993e-05 5.73864e-07 0)
(-2.73282e-05 5.58886e-07 0)
(-2.81344e-05 5.42985e-07 0)
(-2.89162e-05 5.26417e-07 0)
(-2.96723e-05 5.08618e-07 0)
(-3.04016e-05 4.89432e-07 0)
(-3.11025e-05 4.69466e-07 0)
(-3.17738e-05 4.4889e-07 0)
(-3.24148e-05 4.2744e-07 0)
(-3.30242e-05 4.05264e-07 0)
(-3.36009e-05 3.82731e-07 0)
(-3.41442e-05 3.59889e-07 0)
(-3.46531e-05 3.36432e-07 0)
(-3.51268e-05 3.12259e-07 0)
(-3.55647e-05 2.87586e-07 0)
(-3.5966e-05 2.62384e-07 0)
(-3.633e-05 2.36551e-07 0)
(-3.66564e-05 2.10268e-07 0)
(-3.69446e-05 1.83842e-07 0)
(-3.71942e-05 1.57497e-07 0)
(-3.74048e-05 1.31117e-07 0)
(-3.75762e-05 1.0438e-07 0)
(-3.7708e-05 7.73625e-08 0)
(-3.77999e-05 5.03231e-08 0)
(-3.78518e-05 2.31227e-08 0)
(-3.7864e-05 -4.38121e-09 0)
(-3.78364e-05 -3.18401e-08 0)
(-3.77689e-05 -5.88853e-08 0)
(-3.76616e-05 -8.56371e-08 0)
(-3.75148e-05 -1.12423e-07 0)
(-3.73288e-05 -1.39232e-07 0)
(-3.71037e-05 -1.65756e-07 0)
(-3.68398e-05 -1.91882e-07 0)
(-3.65377e-05 -2.17779e-07 0)
(-3.61982e-05 -2.43508e-07 0)
(-3.58215e-05 -2.6878e-07 0)
(-3.54081e-05 -2.93369e-07 0)
(-3.49586e-05 -3.17493e-07 0)
(-3.44741e-05 -3.41367e-07 0)
(-3.39553e-05 -3.64704e-07 0)
(-3.34028e-05 -3.87149e-07 0)
(-3.28177e-05 -4.08816e-07 0)
(-3.2201e-05 -4.29972e-07 0)
(-3.15539e-05 -4.50514e-07 0)
(-3.08772e-05 -4.70161e-07 0)
(-3.01718e-05 -4.88929e-07 0)
(-2.94393e-05 -5.07065e-07 0)
(-2.8681e-05 -5.24567e-07 0)
(-2.78984e-05 -5.40946e-07 0)
(-2.70926e-05 -5.55814e-07 0)
(-2.6265e-05 -5.69481e-07 0)
(-2.54173e-05 -5.82431e-07 0)
(-2.4551e-05 -5.94664e-07 0)
(-2.36676e-05 -6.05889e-07 0)
(-2.27689e-05 -6.15888e-07 0)
(-2.18564e-05 -6.24552e-07 0)
(-2.09325e-05 -6.31784e-07 0)
(-1.99989e-05 -6.3749e-07 0)
(-1.90573e-05 -6.41788e-07 0)
(-1.81096e-05 -6.44948e-07 0)
(-1.71579e-05 -6.47026e-07 0)
(-1.62045e-05 -6.47738e-07 0)
(-1.52517e-05 -6.46721e-07 0)
(-1.43014e-05 -6.43891e-07 0)
(-1.33555e-05 -6.39462e-07 0)
(-1.24163e-05 -6.33593e-07 0)
(-1.14865e-05 -6.26302e-07 0)
(-1.05682e-05 -6.17599e-07 0)
(-9.66346e-06 -6.0741e-07 0)
(-8.77461e-06 -5.95564e-07 0)
(-7.90416e-06 -5.81964e-07 0)
(-7.05472e-06 -5.66643e-07 0)
(-6.22866e-06 -5.49703e-07 0)
(-5.42798e-06 -5.31196e-07 0)
(-4.65477e-06 -5.11028e-07 0)
(-3.9115e-06 -4.89161e-07 0)
(-3.20076e-06 -4.65756e-07 0)
(-2.52469e-06 -4.40968e-07 0)
(-1.88519e-06 -4.14819e-07 0)
(-1.28427e-06 -3.87241e-07 0)
(-7.2413e-07 -3.58193e-07 0)
(-2.06746e-07 -3.27761e-07 0)
(2.6614e-07 -2.96062e-07 0)
(6.93061e-07 -2.6318e-07 0)
(1.07287e-06 -2.29324e-07 0)
(1.40434e-06 -1.94807e-07 0)
(1.68614e-06 -1.59795e-07 0)
(1.91742e-06 -1.24287e-07 0)
(2.098e-06 -8.83516e-08 0)
(2.22791e-06 -5.22538e-08 0)
(2.30735e-06 -1.64409e-08 0)
(2.33699e-06 1.85892e-08 0)
(2.31812e-06 5.24142e-08 0)
(2.25273e-06 8.46541e-08 0)
(2.14349e-06 1.14896e-07 0)
(1.99394e-06 1.42519e-07 0)
(1.8086e-06 1.66582e-07 0)
(1.59313e-06 1.85945e-07 0)
(1.35456e-06 1.99398e-07 0)
(1.10174e-06 2.0557e-07 0)
(8.45453e-07 2.02605e-07 0)
(5.98338e-07 1.88183e-07 0)
(3.74834e-07 1.60096e-07 0)
(1.90405e-07 1.17317e-07 0)
(6.21443e-08 6.17292e-08 0)
(7.05689e-09 5.18384e-09 0)
(-1.61144e-07 1.73672e-07 0)
(-2.16689e-07 -2.45574e-07 0)
(-8.56579e-08 -7.29925e-07 0)
(2.33724e-07 -8.05895e-07 0)
(6.44211e-07 -7.24465e-07 0)
(1.06341e-06 -6.25905e-07 0)
(1.46586e-06 -5.37548e-07 0)
(1.8383e-06 -4.61422e-07 0)
(2.16489e-06 -3.88999e-07 0)
(2.43884e-06 -3.15133e-07 0)
(2.65383e-06 -2.36772e-07 0)
(2.80223e-06 -1.55495e-07 0)
(2.88074e-06 -6.64618e-08 0)
(2.88252e-06 2.49257e-08 0)
(2.80776e-06 1.22433e-07 0)
(2.65203e-06 2.21316e-07 0)
(2.41444e-06 3.21622e-07 0)
(2.09588e-06 4.23656e-07 0)
(1.69294e-06 5.24701e-07 0)
(1.20887e-06 6.25285e-07 0)
(6.44811e-07 7.25061e-07 0)
(2.37037e-10 8.20959e-07 0)
(-7.20576e-07 9.15671e-07 0)
(-1.51677e-06 1.00762e-06 0)
(-2.38673e-06 1.09517e-06 0)
(-3.32503e-06 1.18041e-06 0)
(-4.33024e-06 1.26129e-06 0)
(-5.39958e-06 1.33716e-06 0)
(-6.52786e-06 1.40987e-06 0)
(-7.71325e-06 1.47764e-06 0)
(-8.95195e-06 1.54005e-06 0)
(-1.02387e-05 1.59867e-06 0)
(-1.15713e-05 1.65247e-06 0)
(-1.29457e-05 1.70079e-06 0)
(-1.43571e-05 1.74493e-06 0)
(-1.58022e-05 1.78432e-06 0)
(-1.72773e-05 1.81815e-06 0)
(-1.87777e-05 1.84772e-06 0)
(-2.02999e-05 1.87268e-06 0)
(-2.18404e-05 1.89246e-06 0)
(-2.33948e-05 1.90784e-06 0)
(-2.49593e-05 1.9188e-06 0)
(-2.65307e-05 1.92472e-06 0)
(-2.81048e-05 1.92606e-06 0)
(-2.96779e-05 1.92321e-06 0)
(-3.12473e-05 1.91587e-06 0)
(-3.2809e-05 1.9045e-06 0)
(-3.43593e-05 1.88934e-06 0)
(-3.58955e-05 1.86998e-06 0)
(-3.74141e-05 1.84666e-06 0)
(-3.89119e-05 1.81977e-06 0)
(-4.03863e-05 1.78915e-06 0)
(-4.18343e-05 1.75496e-06 0)
(-4.32527e-05 1.71757e-06 0)
(-4.46388e-05 1.67682e-06 0)
(-4.59904e-05 1.63265e-06 0)
(-4.73047e-05 1.5856e-06 0)
(-4.85795e-05 1.53587e-06 0)
(-4.98127e-05 1.48338e-06 0)
(-5.10022e-05 1.42829e-06 0)
(-5.21455e-05 1.37085e-06 0)
(-5.32407e-05 1.31112e-06 0)
(-5.42862e-05 1.24911e-06 0)
(-5.52801e-05 1.18492e-06 0)
(-5.62208e-05 1.11875e-06 0)
(-5.71067e-05 1.05084e-06 0)
(-5.79366e-05 9.81355e-07 0)
(-5.87093e-05 9.1036e-07 0)
(-5.94234e-05 8.3807e-07 0)
(-6.00777e-05 7.64613e-07 0)
(-6.06713e-05 6.89898e-07 0)
(-6.12035e-05 6.1393e-07 0)
(-6.16732e-05 5.37025e-07 0)
(-6.20797e-05 4.59524e-07 0)
(-6.24226e-05 3.81431e-07 0)
(-6.27014e-05 3.02656e-07 0)
(-6.29157e-05 2.23516e-07 0)
(-6.30649e-05 1.44298e-07 0)
(-6.3149e-05 6.48072e-08 0)
(-6.31681e-05 -1.50636e-08 0)
(-6.31221e-05 -9.49353e-08 0)
(-6.30108e-05 -1.74394e-07 0)
(-6.28347e-05 -2.5342e-07 0)
(-6.25942e-05 -3.32144e-07 0)
(-6.22896e-05 -4.10375e-07 0)
(-6.19211e-05 -4.87763e-07 0)
(-6.14893e-05 -5.64301e-07 0)
(-6.09953e-05 -6.4017e-07 0)
(-6.04397e-05 -7.15248e-07 0)
(-5.98233e-05 -7.89098e-07 0)
(-5.9147e-05 -8.61439e-07 0)
(-5.84122e-05 -9.32388e-07 0)
(-5.76202e-05 -1.00195e-06 0)
(-5.6772e-05 -1.06978e-06 0)
(-5.58686e-05 -1.13562e-06 0)
(-5.49118e-05 -1.1996e-06 0)
(-5.39034e-05 -1.2618e-06 0)
(-5.2845e-05 -1.32198e-06 0)
(-5.17382e-05 -1.37971e-06 0)
(-5.05849e-05 -1.43493e-06 0)
(-4.93872e-05 -1.48789e-06 0)
(-4.81473e-05 -1.53851e-06 0)
(-4.6867e-05 -1.58634e-06 0)
(-4.55488e-05 -1.63102e-06 0)
(-4.41949e-05 -1.67253e-06 0)
(-4.28081e-05 -1.71104e-06 0)
(-4.13908e-05 -1.74651e-06 0)
(-3.99455e-05 -1.77872e-06 0)
(-3.84748e-05 -1.80756e-06 0)
(-3.69818e-05 -1.83295e-06 0)
(-3.54696e-05 -1.85465e-06 0)
(-3.39415e-05 -1.8723e-06 0)
(-3.24002e-05 -1.88579e-06 0)
(-3.08487e-05 -1.89529e-06 0)
(-2.92905e-05 -1.90092e-06 0)
(-2.77291e-05 -1.9026e-06 0)
(-2.61679e-05 -1.89999e-06 0)
(-2.46104e-05 -1.89278e-06 0)
(-2.30598e-05 -1.881e-06 0)
(-2.152e-05 -1.86483e-06 0)
(-1.99948e-05 -1.84425e-06 0)
(-1.84878e-05 -1.81907e-06 0)
(-1.70026e-05 -1.78923e-06 0)
(-1.55427e-05 -1.75472e-06 0)
(-1.41122e-05 -1.71558e-06 0)
(-1.27152e-05 -1.6719e-06 0)
(-1.13551e-05 -1.62355e-06 0)
(-1.00357e-05 -1.5704e-06 0)
(-8.76041e-06 -1.51248e-06 0)
(-7.53316e-06 -1.44998e-06 0)
(-6.35774e-06 -1.38308e-06 0)
(-5.2376e-06 -1.31182e-06 0)
(-4.17578e-06 -1.23631e-06 0)
(-3.17546e-06 -1.15682e-06 0)
(-2.24003e-06 -1.07367e-06 0)
(-1.37262e-06 -9.86989e-07 0)
(-5.75845e-07 -8.96854e-07 0)
(1.48046e-07 -8.03436e-07 0)
(7.96964e-07 -7.07135e-07 0)
(1.36898e-06 -6.08627e-07 0)
(1.86248e-06 -5.08617e-07 0)
(2.27641e-06 -4.076e-07 0)
(2.61035e-06 -3.06013e-07 0)
(2.86438e-06 -2.04514e-07 0)
(3.03899e-06 -1.04008e-07 0)
(3.13537e-06 -5.56859e-09 0)
(3.1558e-06 8.95846e-08 0)
(3.10364e-06 1.80143e-07 0)
(2.98321e-06 2.64638e-07 0)
(2.7999e-06 3.41223e-07 0)
(2.56071e-06 4.07598e-07 0)
(2.27445e-06 4.61099e-07 0)
(1.95181e-06 4.98701e-07 0)
(1.60559e-06 5.16887e-07 0)
(1.25084e-06 5.11618e-07 0)
(9.04897e-07 4.78502e-07 0)
(5.87084e-07 4.13695e-07 0)
(3.17081e-07 3.16001e-07 0)
(1.17956e-07 1.89985e-07 0)
(1.96681e-08 5.09885e-08 0)
(-1.00053e-07 2.96326e-07 0)
(-1.05685e-07 -2.55867e-07 0)
(2.50301e-08 -9.49894e-07 0)
(3.21451e-07 -1.1666e-06 0)
(7.24548e-07 -1.15345e-06 0)
(1.16106e-06 -1.06921e-06 0)
(1.60001e-06 -9.63204e-07 0)
(2.00907e-06 -8.48353e-07 0)
(2.37065e-06 -7.23192e-07 0)
(2.66792e-06 -5.84863e-07 0)
(2.88776e-06 -4.34824e-07 0)
(3.02451e-06 -2.70315e-07 0)
(3.06633e-06 -9.77407e-08 0)
(3.01055e-06 8.58735e-08 0)
(2.85118e-06 2.75964e-07 0)
(2.58428e-06 4.70266e-07 0)
(2.2102e-06 6.69011e-07 0)
(1.72498e-06 8.67288e-07 0)
(1.13045e-06 1.06554e-06 0)
(4.27069e-07 1.26326e-06 0)
(-3.85586e-07 1.45641e-06 0)
(-1.3032e-06 1.64632e-06 0)
(-2.32408e-06 1.83144e-06 0)
(-3.44679e-06 2.00938e-06 0)
(-4.66594e-06 2.18223e-06 0)
(-5.9788e-06 2.34802e-06 0)
(-7.38193e-06 2.50525e-06 0)
(-8.86931e-06 2.65534e-06 0)
(-1.04374e-05 2.79667e-06 0)
(-1.20822e-05 2.92846e-06 0)
(-1.37974e-05 3.05206e-06 0)
(-1.55786e-05 3.16643e-06 0)
(-1.74215e-05 3.27086e-06 0)
(-1.93198e-05 3.36661e-06 0)
(-2.12684e-05 3.45291e-06 0)
(-2.32628e-05 3.52926e-06 0)
(-2.52966e-05 3.59642e-06 0)
(-2.73646e-05 3.65428e-06 0)
(-2.94625e-05 3.70236e-06 0)
(-3.15841e-05 3.74135e-06 0)
(-3.37242e-05 3.77134e-06 0)
(-3.58785e-05 3.79205e-06 0)
(-3.80411e-05 3.80386e-06 0)
(-4.02069e-05 3.80691e-06 0)
(-4.23716e-05 3.80084e-06 0)
(-4.45299e-05 3.78611e-06 0)
(-4.66772e-05 3.76339e-06 0)
(-4.88093e-05 3.73257e-06 0)
(-5.09216e-05 3.69388e-06 0)
(-5.30095e-05 3.64781e-06 0)
(-5.50691e-05 3.59431e-06 0)
(-5.70961e-05 3.53355e-06 0)
(-5.90864e-05 3.46615e-06 0)
(-6.10363e-05 3.39227e-06 0)
(-6.29422e-05 3.31178e-06 0)
(-6.48002e-05 3.225e-06 0)
(-6.66068e-05 3.13233e-06 0)
(-6.83592e-05 3.03384e-06 0)
(-7.00543e-05 2.92981e-06 0)
(-7.16892e-05 2.82087e-06 0)
(-7.32608e-05 2.70732e-06 0)
(-7.47667e-05 2.58923e-06 0)
(-7.62043e-05 2.46682e-06 0)
(-7.7571e-05 2.34036e-06 0)
(-7.88645e-05 2.21004e-06 0)
(-8.00828e-05 2.07607e-06 0)
(-8.12241e-05 1.93869e-06 0)
(-8.22865e-05 1.79825e-06 0)
(-8.32683e-05 1.65521e-06 0)
(-8.41682e-05 1.50975e-06 0)
(-8.49849e-05 1.36194e-06 0)
(-8.57171e-05 1.21207e-06 0)
(-8.63633e-05 1.06054e-06 0)
(-8.69227e-05 9.07445e-07 0)
(-8.73947e-05 7.52869e-07 0)
(-8.77785e-05 5.97139e-07 0)
(-8.80732e-05 4.40701e-07 0)
(-8.82788e-05 2.83787e-07 0)
(-8.83953e-05 1.26399e-07 0)
(-8.84224e-05 -3.12211e-08 0)
(-8.83596e-05 -1.88615e-07 0)
(-8.82072e-05 -3.4559e-07 0)
(-8.79658e-05 -5.02128e-07 0)
(-8.76359e-05 -6.57935e-07 0)
(-8.72175e-05 -8.12498e-07 0)
(-8.67113e-05 -9.65543e-07 0)
(-8.61185e-05 -1.11712e-06 0)
(-8.54401e-05 -1.26712e-06 0)
(-8.46769e-05 -1.4151e-06 0)
(-8.38299e-05 -1.56074e-06 0)
(-8.29008e-05 -1.70393e-06 0)
(-8.18912e-05 -1.84447e-06 0)
(-8.08028e-05 -1.982e-06 0)
(-7.96368e-05 -2.11605e-06 0)
(-7.83952e-05 -2.24646e-06 0)
(-7.70804e-05 -2.37329e-06 0)
(-7.56944e-05 -2.49641e-06 0)
(-7.42393e-05 -2.61537e-06 0)
(-7.27175e-05 -2.7298e-06 0)
(-7.11319e-05 -2.83946e-06 0)
(-6.94854e-05 -2.94428e-06 0)
(-6.77807e-05 -3.04403e-06 0)
(-6.60202e-05 -3.13837e-06 0)
(-6.42073e-05 -3.22704e-06 0)
(-6.23453e-05 -3.30992e-06 0)
(-6.04377e-05 -3.38682e-06 0)
(-5.8488e-05 -3.45735e-06 0)
(-5.64998e-05 -3.52114e-06 0)
(-5.44769e-05 -3.57808e-06 0)
(-5.24233e-05 -3.62816e-06 0)
(-5.03427e-05 -3.67123e-06 0)
(-4.82394e-05 -3.70683e-06 0)
(-4.61177e-05 -3.73444e-06 0)
(-4.3982e-05 -3.75399e-06 0)
(-4.1837e-05 -3.7656e-06 0)
(-3.96871e-05 -3.76915e-06 0)
(-3.75367e-05 -3.76432e-06 0)
(-3.53906e-05 -3.75086e-06 0)
(-3.32538e-05 -3.72865e-06 0)
(-3.11312e-05 -3.69777e-06 0)
(-2.90277e-05 -3.65816e-06 0)
(-2.69485e-05 -3.60948e-06 0)
(-2.48984e-05 -3.5515e-06 0)
(-2.28826e-05 -3.48436e-06 0)
(-2.09063e-05 -3.40821e-06 0)
(-1.89746e-05 -3.32304e-06 0)
(-1.70925e-05 -3.2287e-06 0)
(-1.52648e-05 -3.12516e-06 0)
(-1.34967e-05 -3.01263e-06 0)
(-1.17932e-05 -2.89138e-06 0)
(-1.01592e-05 -2.76155e-06 0)
(-8.59909e-06 -2.62321e-06 0)
(-7.11739e-06 -2.47654e-06 0)
(-5.71856e-06 -2.32201e-06 0)
(-4.40681e-06 -2.1603e-06 0)
(-3.18586e-06 -1.99191e-06 0)
(-2.05921e-06 -1.8171e-06 0)
(-1.0301e-06 -1.63633e-06 0)
(-1.01325e-07 -1.45041e-06 0)
(7.24602e-07 -1.26035e-06 0)
(1.4457e-06 -1.06719e-06 0)
(2.06087e-06 -8.72024e-07 0)
(2.56972e-06 -6.7603e-07 0)
(2.9723e-06 -4.8065e-07 0)
(3.26934e-06 -2.87622e-07 0)
(3.4627e-06 -9.8842e-08 0)
(3.55556e-06 8.35655e-08 0)
(3.55239e-06 2.5705e-07 0)
(3.45881e-06 4.18598e-07 0)
(3.28194e-06 5.64768e-07 0)
(3.03083e-06 6.91582e-07 0)
(2.71662e-06 7.94423e-07 0)
(2.3526e-06 8.6803e-07 0)
(1.95445e-06 9.06456e-07 0)
(1.54025e-06 9.03247e-07 0)
(1.13029e-06 8.51895e-07 0)
(7.46979e-07 7.46868e-07 0)
(4.13799e-07 5.86015e-07 0)
(1.60155e-07 3.7422e-07 0)
(2.87792e-08 1.24572e-07 0)
(-3.10838e-08 3.36524e-07 0)
(4.4081e-08 -3.17532e-07 0)
(2.22855e-07 -1.16599e-06 0)
(5.20606e-07 -1.50875e-06 0)
(9.13247e-07 -1.56884e-06 0)
(1.34446e-06 -1.50784e-06 0)
(1.77406e-06 -1.38964e-06 0)
(2.17416e-06 -1.23494e-06 0)
(2.5187e-06 -1.04876e-06 0)
(2.7872e-06 -8.36635e-07 0)
(2.96764e-06 -5.96162e-07 0)
(3.04352e-06 -3.35399e-07 0)
(3.00843e-06 -5.46274e-08 0)
(2.85439e-06 2.41293e-07 0)
(2.57375e-06 5.47007e-07 0)
(2.16475e-06 8.62979e-07 0)
(1.62219e-06 1.18203e-06 0)
(9.46014e-07 1.50333e-06 0)
(1.36516e-07 1.82499e-06 0)
(-8.07853e-07 2.14256e-06 0)
(-1.88411e-06 2.4562e-06 0)
(-3.08994e-06 2.76405e-06 0)
(-4.42405e-06 3.06253e-06 0)
(-5.88095e-06 3.35244e-06 0)
(-7.45727e-06 3.63219e-06 0)
(-9.14964e-06 3.89958e-06 0)
(-1.09515e-05 4.15554e-06 0)
(-1.28583e-05 4.39878e-06 0)
(-1.48652e-05 4.62736e-06 0)
(-1.69653e-05 4.84241e-06 0)
(-1.91529e-05 5.04317e-06 0)
(-2.14224e-05 5.22812e-06 0)
(-2.37669e-05 5.39847e-06 0)
(-2.618e-05 5.55382e-06 0)
(-2.86558e-05 5.69326e-06 0)
(-3.11872e-05 5.81751e-06 0)
(-3.37673e-05 5.92668e-06 0)
(-3.63902e-05 6.01985e-06 0)
(-3.90489e-05 6.09786e-06 0)
(-4.17368e-05 6.1609e-06 0)
(-4.44476e-05 6.20843e-06 0)
(-4.71749e-05 6.24135e-06 0)
(-4.99122e-05 6.25989e-06 0)
(-5.26536e-05 6.26387e-06 0)
(-5.53927e-05 6.25365e-06 0)
(-5.81233e-05 6.22961e-06 0)
(-6.08397e-05 6.1918e-06 0)
(-6.35363e-05 6.14062e-06 0)
(-6.62072e-05 6.0768e-06 0)
(-6.88473e-05 6.0005e-06 0)
(-7.14514e-05 5.912e-06 0)
(-7.40139e-05 5.81196e-06 0)
(-7.65299e-05 5.70073e-06 0)
(-7.89948e-05 5.57855e-06 0)
(-8.1404e-05 5.44596e-06 0)
(-8.37527e-05 5.30348e-06 0)
(-8.60368e-05 5.1513e-06 0)
(-8.82524e-05 4.98958e-06 0)
(-9.03953e-05 4.81891e-06 0)
(-9.24618e-05 4.63991e-06 0)
(-9.44485e-05 4.45292e-06 0)
(-9.63521e-05 4.25837e-06 0)
(-9.81693e-05 4.05684e-06 0)
(-9.98971e-05 3.84886e-06 0)
(-0.000101533 3.6347e-06 0)
(-0.000103073 3.4146e-06 0)
(-0.000104517 3.18899e-06 0)
(-0.00010586 2.95837e-06 0)
(-0.000107102 2.72316e-06 0)
(-0.00010824 2.48365e-06 0)
(-0.000109273 2.24031e-06 0)
(-0.000110199 1.99382e-06 0)
(-0.000111017 1.74457e-06 0)
(-0.000111725 1.49266e-06 0)
(-0.000112323 1.23848e-06 0)
(-0.000112809 9.82627e-07 0)
(-0.000113183 7.25391e-07 0)
(-0.000113444 4.6698e-07 0)
(-0.000113592 2.07845e-07 0)
(-0.000113628 -5.13346e-08 0)
(-0.000113549 -3.10093e-07 0)
(-0.000113358 -5.68342e-07 0)
(-0.000113055 -8.2584e-07 0)
(-0.000112639 -1.08194e-06 0)
(-0.000112111 -1.3361e-06 0)
(-0.000111473 -1.58813e-06 0)
(-0.000110725 -1.83781e-06 0)
(-0.000109869 -2.0846e-06 0)
(-0.000108905 -2.32785e-06 0)
(-0.000107836 -2.56732e-06 0)
(-0.000106664 -2.80292e-06 0)
(-0.000105389 -3.03413e-06 0)
(-0.000104014 -3.26028e-06 0)
(-0.000102542 -3.48099e-06 0)
(-0.000100974 -3.69599e-06 0)
(-9.93131e-05 -3.90498e-06 0)
(-9.75624e-05 -4.1075e-06 0)
(-9.57243e-05 -4.30307e-06 0)
(-9.38019e-05 -4.49149e-06 0)
(-9.17986e-05 -4.67246e-06 0)
(-8.97182e-05 -4.84538e-06 0)
(-8.75639e-05 -5.00965e-06 0)
(-8.53393e-05 -5.16493e-06 0)
(-8.30484e-05 -5.31102e-06 0)
(-8.06954e-05 -5.44765e-06 0)
(-7.82845e-05 -5.57446e-06 0)
(-7.58199e-05 -5.69092e-06 0)
(-7.33063e-05 -5.79653e-06 0)
(-7.07488e-05 -5.8909e-06 0)
(-6.81523e-05 -5.97369e-06 0)
(-6.55218e-05 -6.0446e-06 0)
(-6.28619e-05 -6.10337e-06 0)
(-6.01781e-05 -6.14966e-06 0)
(-5.74763e-05 -6.18306e-06 0)
(-5.47621e-05 -6.20329e-06 0)
(-5.20411e-05 -6.21007e-06 0)
(-4.93189e-05 -6.20302e-06 0)
(-4.66017e-05 -6.18191e-06 0)
(-4.38954e-05 -6.14667e-06 0)
(-4.12063e-05 -6.09721e-06 0)
(-3.85404e-05 -6.03334e-06 0)
(-3.59039e-05 -5.9548e-06 0)
(-3.33032e-05 -5.86135e-06 0)
(-3.07448e-05 -5.75299e-06 0)
(-2.82351e-05 -5.62982e-06 0)
(-2.57803e-05 -5.49183e-06 0)
(-2.33864e-05 -5.33896e-06 0)
(-2.10599e-05 -5.17125e-06 0)
(-1.8807e-05 -4.98903e-06 0)
(-1.66339e-05 -4.7927e-06 0)
(-1.45462e-05 -4.58248e-06 0)
(-1.25497e-05 -4.35863e-06 0)
(-1.06497e-05 -4.12159e-06 0)
(-8.85204e-06 -3.87199e-06 0)
(-7.16184e-06 -3.61056e-06 0)
(-5.58355e-06 -3.33811e-06 0)
(-4.12116e-06 -3.05553e-06 0)
(-2.77868e-06 -2.7638e-06 0)
(-1.55966e-06 -2.46421e-06 0)
(-4.67005e-07 -2.15823e-06 0)
(4.97127e-07 -1.84735e-06 0)
(1.33138e-06 -1.53327e-06 0)
(2.03521e-06 -1.21808e-06 0)
(2.60877e-06 -9.04242e-07 0)
(3.05329e-06 -5.94505e-07 0)
(3.37122e-06 -2.91884e-07 0)
(3.56638e-06 2.66584e-10 0)
(3.64402e-06 2.77999e-07 0)
(3.61095e-06 5.36621e-07 0)
(3.47568e-06 7.70788e-07 0)
(3.24877e-06 9.74554e-07 0)
(2.94313e-06 1.14117e-06 0)
(2.574e-06 1.263e-06 0)
(2.15902e-06 1.3316e-06 0)
(1.71831e-06 1.33794e-06 0)
(1.27441e-06 1.27323e-06 0)
(8.52099e-07 1.12997e-06 0)
(4.78047e-07 9.04083e-07 0)
(1.87675e-07 5.97761e-07 0)
(3.44025e-08 2.16892e-07 0)
(1.40473e-08 2.80947e-07 0)
(1.51184e-07 -4.69258e-07 0)
(3.73198e-07 -1.41861e-06 0)
(6.80837e-07 -1.85711e-06 0)
(1.06219e-06 -1.97275e-06 0)
(1.46977e-06 -1.93044e-06 0)
(1.8699e-06 -1.79433e-06 0)
(2.22974e-06 -1.59088e-06 0)
(2.5232e-06 -1.33578e-06 0)
(2.7312e-06 -1.03232e-06 0)
(2.83333e-06 -6.90151e-07 0)
(2.81786e-06 -3.13012e-07 0)
(2.67307e-06 9.35708e-08 0)
(2.38834e-06 5.20591e-07 0)
(1.9603e-06 9.66459e-07 0)
(1.38086e-06 1.42265e-06 0)
(6.47156e-07 1.88642e-06 0)
(-2.40961e-07 2.35423e-06 0)
(-1.28633e-06 2.82033e-06 0)
(-2.4871e-06 3.28278e-06 0)
(-3.84138e-06 3.73948e-06 0)
(-5.34855e-06 4.18592e-06 0)
(-7.00388e-06 4.6215e-06 0)
(-8.80325e-06 5.04434e-06 0)
(-1.07433e-05 5.45104e-06 0)
(-1.28176e-05 5.84177e-06 0)
(-1.50205e-05 6.21518e-06 0)
(-1.73472e-05 6.5688e-06 0)
(-1.97901e-05 6.90317e-06 0)
(-2.23422e-05 7.21728e-06 0)
(-2.49979e-05 7.50966e-06 0)
(-2.77489e-05 7.78051e-06 0)
(-3.05876e-05 8.02958e-06 0)
(-3.35075e-05 8.25589e-06 0)
(-3.65e-05 8.45967e-06 0)
(-3.95574e-05 8.64119e-06 0)
(-4.26726e-05 8.7998e-06 0)
(-4.58372e-05 8.93571e-06 0)
(-4.90436e-05 9.04941e-06 0)
(-5.22843e-05 9.14052e-06 0)
(-5.55512e-05 9.20944e-06 0)
(-5.88366e-05 9.25663e-06 0)
(-6.21334e-05 9.28211e-06 0)
(-6.54341e-05 9.28639e-06 0)
(-6.87314e-05 9.27011e-06 0)
(-7.2018e-05 9.23343e-06 0)
(-7.52872e-05 9.17672e-06 0)
(-7.85318e-05 9.10065e-06 0)
(-8.17453e-05 9.00563e-06 0)
(-8.49214e-05 8.89208e-06 0)
(-8.80536e-05 8.76079e-06 0)
(-9.11357e-05 8.61241e-06 0)
(-9.41618e-05 8.4472e-06 0)
(-9.71262e-05 8.26578e-06 0)
(-0.000100023 8.06903e-06 0)
(-0.000102847 7.85749e-06 0)
(-0.000105594 7.63162e-06 0)
(-0.000108259 7.39208e-06 0)
(-0.000110836 7.1396e-06 0)
(-0.000113321 6.87474e-06 0)
(-0.00011571 6.598e-06 0)
(-0.000117999 6.31002e-06 0)
(-0.000120184 6.01155e-06 0)
(-0.000122262 5.70327e-06 0)
(-0.000124229 5.38575e-06 0)
(-0.000126082 5.05956e-06 0)
(-0.000127818 4.72543e-06 0)
(-0.000129434 4.38403e-06 0)
(-0.000130928 4.03576e-06 0)
(-0.000132298 3.68112e-06 0)
(-0.000133541 3.32087e-06 0)
(-0.000134655 2.95574e-06 0)
(-0.000135639 2.58623e-06 0)
(-0.000136492 2.21279e-06 0)
(-0.000137212 1.83623e-06 0)
(-0.000137797 1.45725e-06 0)
(-0.000138248 1.07617e-06 0)
(-0.000138564 6.93354e-07 0)
(-0.000138743 3.09598e-07 0)
(-0.000138787 -7.42984e-08 0)
(-0.000138694 -4.57843e-07 0)
(-0.000138466 -8.40663e-07 0)
(-0.000138103 -1.2221e-06 0)
(-0.000137604 -1.60133e-06 0)
(-0.000136972 -1.97786e-06 0)
(-0.000136206 -2.3514e-06 0)
(-0.000135309 -2.72138e-06 0)
(-0.000134281 -3.08696e-06 0)
(-0.000133124 -3.44747e-06 0)
(-0.000131841 -3.8025e-06 0)
(-0.000130432 -4.15164e-06 0)
(-0.000128901 -4.49412e-06 0)
(-0.00012725 -4.82913e-06 0)
(-0.000125481 -5.15631e-06 0)
(-0.000123598 -5.47526e-06 0)
(-0.000121603 -5.78527e-06 0)
(-0.000119499 -6.08554e-06 0)
(-0.000117291 -6.37548e-06 0)
(-0.000114981 -6.6548e-06 0)
(-0.000112574 -6.92308e-06 0)
(-0.000110073 -7.17956e-06 0)
(-0.000107484 -7.42339e-06 0)
(-0.00010481 -7.65404e-06 0)
(-0.000102056 -7.87111e-06 0)
(-9.92279e-05 -8.07399e-06 0)
(-9.63296e-05 -8.26206e-06 0)
(-9.33665e-05 -8.43483e-06 0)
(-9.03442e-05 -8.59186e-06 0)
(-8.72687e-05 -8.73256e-06 0)
(-8.41458e-05 -8.85625e-06 0)
(-8.09814e-05 -8.96222e-06 0)
(-7.77818e-05 -9.04999e-06 0)
(-7.45529e-05 -9.11937e-06 0)
(-7.13017e-05 -9.17e-06 0)
(-6.80348e-05 -9.20127e-06 0)
(-6.4759e-05 -9.21269e-06 0)
(-6.14809e-05 -9.20385e-06 0)
(-5.82079e-05 -9.17445e-06 0)
(-5.49474e-05 -9.12423e-06 0)
(-5.17064e-05 -9.05295e-06 0)
(-4.84923e-05 -8.96028e-06 0)
(-4.53122e-05 -8.84603e-06 0)
(-4.21738e-05 -8.71012e-06 0)
(-3.90849e-05 -8.55251e-06 0)
(-3.60528e-05 -8.37314e-06 0)
(-3.3085e-05 -8.17195e-06 0)
(-3.01886e-05 -7.94902e-06 0)
(-2.73711e-05 -7.70462e-06 0)
(-2.46401e-05 -7.43907e-06 0)
(-2.20026e-05 -7.1527e-06 0)
(-1.94654e-05 -6.84595e-06 0)
(-1.7035e-05 -6.51943e-06 0)
(-1.4718e-05 -6.17394e-06 0)
(-1.25209e-05 -5.81044e-06 0)
(-1.04495e-05 -5.42988e-06 0)
(-8.50927e-06 -5.03324e-06 0)
(-6.70491e-06 -4.62188e-06 0)
(-5.04104e-06 -4.1975e-06 0)
(-3.52166e-06 -3.76201e-06 0)
(-2.14995e-06 -3.31747e-06 0)
(-9.28305e-07 -2.8661e-06 0)
(1.41685e-07 -2.41042e-06 0)
(1.05935e-06 -1.95345e-06 0)
(1.82492e-06 -1.4987e-06 0)
(2.43989e-06 -1.05008e-06 0)
(2.90726e-06 -6.11933e-07 0)
(3.23152e-06 -1.89143e-07 0)
(3.41853e-06 2.12708e-07 0)
(3.47576e-06 5.87185e-07 0)
(3.41285e-06 9.26947e-07 0)
(3.24171e-06 1.22387e-06 0)
(2.97646e-06 1.46895e-06 0)
(2.63351e-06 1.65212e-06 0)
(2.2319e-06 1.76233e-06 0)
(1.7934e-06 1.78791e-06 0)
(1.3423e-06 1.71738e-06 0)
(9.05291e-07 1.54065e-06 0)
(5.11788e-07 1.25063e-06 0)
(2.02138e-07 8.44988e-07 0)
(3.72432e-08 3.2005e-07 0)
(3.75759e-08 1.74063e-07 0)
(2.07643e-07 -6.74103e-07 0)
(4.58182e-07 -1.69567e-06 0)
(7.67178e-07 -2.19887e-06 0)
(1.1266e-06 -2.35614e-06 0)
(1.49728e-06 -2.31663e-06 0)
(1.84844e-06 -2.15085e-06 0)
(2.14611e-06 -1.8905e-06 0)
(2.36542e-06 -1.55073e-06 0)
(2.48301e-06 -1.14586e-06 0)
(2.48223e-06 -6.84184e-07 0)
(2.34778e-06 -1.73866e-07 0)
(2.06526e-06 3.73493e-07 0)
(1.62794e-06 9.53931e-07 0)
(1.02606e-06 1.55619e-06 0)
(2.54345e-07 2.1745e-06 0)
(-6.89433e-07 2.80395e-06 0)
(-1.80998e-06 3.43716e-06 0)
(-3.10666e-06 4.06997e-06 0)
(-4.57825e-06 4.69888e-06 0)
(-6.22485e-06 5.3179e-06 0)
(-8.04284e-06 5.9249e-06 0)
(-1.00282e-05 6.51759e-06 0)
(-1.21778e-05 7.09137e-06 0)
(-1.44857e-05 7.64537e-06 0)
(-1.69453e-05 8.17774e-06 0)
(-1.95519e-05 8.68504e-06 0)
(-2.22977e-05 9.16717e-06 0)
(-2.5175e-05 9.62291e-06 0)
(-2.81772e-05 1.00501e-05 0)
(-3.12959e-05 1.04486e-05 0)
(-3.45225e-05 1.08181e-05 0)
(-3.78493e-05 1.11569e-05 0)
(-4.12675e-05 1.14654e-05 0)
(-4.47678e-05 1.17433e-05 0)
(-4.83419e-05 1.19899e-05 0)
(-5.19811e-05 1.22057e-05 0)
(-5.56758e-05 1.23905e-05 0)
(-5.94178e-05 1.25444e-05 0)
(-6.31981e-05 1.26676e-05 0)
(-6.70075e-05 1.27608e-05 0)
(-7.08376e-05 1.28237e-05 0)
(-7.46798e-05 1.2857e-05 0)
(-7.85253e-05 1.28612e-05 0)
(-8.2366e-05 1.28368e-05 0)
(-8.61936e-05 1.27844e-05 0)
(-9.00001e-05 1.27047e-05 0)
(-9.37775e-05 1.25984e-05 0)
(-9.75184e-05 1.24658e-05 0)
(-0.000101215 1.2308e-05 0)