/*--------------------------------*- C++ -*----------------------------------*\
  =========                 |
  \\      /  F ield         | OpenFOAM: The Open Source CFD Toolbox
   \\    /   O peration     | Website:  https://openfoam.org
    \\  /    A nd           | Version:  7
     \\/     M anipulation  |
\*---------------------------------------------------------------------------*/
FoamFile
{
    version     2.0;
    format      ascii;
    class       surfaceScalarField;
    location    "0.3625";
    object      phi;
}
// * * * * * * * * * * * * * * * * * * * * * * * * * * * * * * * * * * * * * //

dimensions      [0 3 -1 0 0 0 0];

internalField   nonuniform List<scalar> 
101920
(
-2.03866e-13
8.75102e-14
-5.44778e-13
3.53963e-13
-9.66893e-13
4.11482e-13
-1.31124e-12
3.48728e-13
-1.50882e-12
2.08492e-13
-1.52648e-12
1.41347e-14
-1.33231e-12
-1.97595e-13
-9.14609e-13
-4.131e-13
-2.82474e-13
-6.35248e-13
5.69058e-13
-8.54043e-13
1.63489e-12
-1.06431e-12
2.90166e-12
-1.26626e-12
4.36106e-12
-1.45976e-12
6.00358e-12
-1.64508e-12
7.82121e-12
-1.81721e-12
9.80181e-12
-1.97662e-12
1.19298e-11
-2.12784e-12
1.41961e-11
-2.269e-12
1.65927e-11
-2.39711e-12
1.91075e-11
-2.5143e-12
2.17284e-11
-2.62253e-12
2.44477e-11
-2.7204e-12
2.72559e-11
-2.80763e-12
3.0142e-11
-2.88563e-12
3.30972e-11
-2.95473e-12
3.61132e-11
-3.01528e-12
3.91816e-11
-3.06823e-12
4.22946e-11
-3.11322e-12
4.54449e-11
-3.14929e-12
4.86235e-11
-3.17716e-12
5.18227e-11
-3.1988e-12
5.5036e-11
-3.21448e-12
5.82585e-11
-3.22308e-12
6.14844e-11
-3.22492e-12
6.47065e-11
-3.22102e-12
6.79187e-11
-3.2118e-12
7.11165e-11
-3.19707e-12
7.4294e-11
-3.1769e-12
7.7446e-11
-3.15205e-12
8.05684e-11
-3.12341e-12
8.36575e-11
-3.09044e-12
8.67095e-11
-3.0524e-12
8.97201e-11
-3.01008e-12
9.26851e-11
-2.96456e-12
9.56009e-11
-2.91582e-12
9.84643e-11
-2.86352e-12
1.01272e-10
-2.80783e-12
1.04022e-10
-2.7489e-12
1.06711e-10
-2.68698e-12
1.09334e-10
-2.6228e-12
1.1189e-10
-2.55689e-12
1.14378e-10
-2.48896e-12
1.16796e-10
-2.41841e-12
1.19141e-10
-2.34516e-12
1.21411e-10
-2.26998e-12
1.23605e-10
-2.19344e-12
1.2572e-10
-2.11528e-12
1.27755e-10
-2.03525e-12
1.29709e-10
-1.95367e-12
1.31581e-10
-1.871e-12
1.33368e-10
-1.78723e-12
1.35069e-10
-1.70212e-12
1.36685e-10
-1.61573e-12
1.38214e-10
-1.5285e-12
1.39655e-10
-1.44065e-12
1.41007e-10
-1.35192e-12
1.42269e-10
-1.2621e-12
1.43441e-10
-1.17153e-12
1.44522e-10
-1.08051e-12
1.45511e-10
-9.88926e-13
1.46407e-10
-8.96679e-13
1.47212e-10
-8.03954e-13
1.47923e-10
-7.1093e-13
1.48541e-10
-6.17554e-13
1.49065e-10
-5.23766e-13
1.49494e-10
-4.29694e-13
1.4983e-10
-3.35506e-13
1.50072e-10
-2.41302e-13
1.50218e-10
-1.47053e-13
1.5027e-10
-5.26086e-14
1.50228e-10
4.20851e-14
1.50092e-10
1.36897e-13
1.49861e-10
2.31641e-13
1.49535e-10
3.26178e-13
1.49114e-10
4.20521e-13
1.48599e-10
5.147e-13
1.4799e-10
6.08574e-13
1.47288e-10
7.02131e-13
1.46492e-10
7.95587e-13
1.45603e-10
8.88841e-13
1.44622e-10
9.81388e-13
1.43549e-10
1.0731e-12
1.42384e-10
1.16449e-12
1.41128e-10
1.25577e-12
1.39782e-10
1.34636e-12
1.38346e-10
1.43582e-12
1.36822e-10
1.5244e-12
1.3521e-10
1.61224e-12
1.33511e-10
1.69899e-12
1.31727e-10
1.7845e-12
1.29858e-10
1.86902e-12
1.27905e-10
1.9526e-12
1.2587e-10
2.03476e-12
1.23754e-10
2.11515e-12
1.2156e-10
2.19409e-12
1.19288e-10
2.27175e-12
1.16942e-10
2.34768e-12
1.14521e-10
2.42137e-12
1.12028e-10
2.49269e-12
1.09466e-10
2.56164e-12
1.06837e-10
2.62828e-12
1.04144e-10
2.69258e-12
1.0139e-10
2.75445e-12
9.85765e-11
2.81377e-12
9.57068e-11
2.87019e-12
9.27844e-11
2.92312e-12
8.98129e-11
2.9721e-12
8.67953e-11
3.01729e-12
8.37352e-11
3.05922e-12
8.06372e-11
3.09777e-12
7.7506e-11
3.132e-12
7.43459e-11
3.16117e-12
7.11607e-11
3.18556e-12
6.79552e-11
3.20557e-12
6.47353e-11
3.22047e-12
6.15064e-11
3.22929e-12
5.82732e-11
3.23244e-12
5.5042e-11
3.23054e-12
5.18206e-11
3.22252e-12
4.86151e-11
3.20697e-12
4.54311e-11
3.18406e-12
4.22757e-11
3.15445e-12
3.91574e-11
3.11775e-12
3.60841e-11
3.0732e-12
3.30638e-11
3.02048e-12
3.01047e-11
2.95943e-12
2.72154e-11
2.8896e-12
2.44052e-11
2.81036e-12
2.16834e-11
2.72161e-12
1.90596e-11
2.62353e-12
1.65442e-11
2.5155e-12
1.41474e-11
2.39678e-12
1.18799e-11
2.26746e-12
9.75264e-12
2.12757e-12
7.77658e-12
1.97652e-12
5.96296e-12
1.81396e-12
4.3226e-12
1.64042e-12
2.86584e-12
1.45661e-12
1.60316e-12
1.26241e-12
5.44035e-13
1.05823e-12
-3.02949e-13
8.4592e-13
-9.31218e-13
6.27808e-13
-1.33864e-12
4.0708e-13
-1.52747e-12
1.88893e-13
-1.50676e-12
-1.9479e-14
-1.29843e-12
-2.07554e-13
-9.43485e-13
-3.56459e-13
-5.15488e-13
-4.3344e-13
-1.41658e-13
-3.84072e-13
-1.50472e-13
-3.90633e-13
4.91751e-13
-1.06564e-12
1.02686e-12
-1.73279e-12
1.08693e-12
-2.19299e-12
8.02094e-13
-2.28943e-12
2.8517e-13
-1.90504e-12
-3.71609e-13
-9.81859e-13
-1.10905e-12
5.02894e-13
-1.89572e-12
2.56469e-12
-2.70027e-12
5.20952e-12
-3.49852e-12
8.42488e-12
-4.27754e-12
1.21898e-11
-5.0331e-12
1.64842e-11
-5.75986e-12
2.12882e-11
-6.44963e-12
2.65735e-11
-7.09938e-12
3.23067e-11
-7.71104e-12
3.84607e-11
-8.28457e-12
4.50097e-11
-8.81685e-12
5.1923e-11
-9.30865e-12
5.91697e-11
-9.76261e-12
6.67232e-11
-1.01779e-11
7.45577e-11
-1.05541e-11
8.26446e-11
-1.08941e-11
9.09562e-11
-1.1199e-11
9.94684e-11
-1.14685e-11
1.08157e-10
-1.17047e-11
1.16998e-10
-1.19092e-11
1.2597e-10
-1.20822e-11
1.35049e-10
-1.22246e-11
1.44212e-10
-1.2339e-11
1.53439e-10
-1.24269e-11
1.62713e-10
-1.24888e-11
1.72014e-10
-1.25246e-11
1.81326e-10
-1.25359e-11
1.90629e-10
-1.25244e-11
1.99908e-10
-1.24909e-11
2.09149e-10
-1.24358e-11
2.18333e-10
-1.23612e-11
2.27447e-10
-1.22682e-11
2.3648e-10
-1.21573e-11
2.45419e-10
-1.20289e-11
2.54251e-10
-1.18839e-11
2.62964e-10
-1.17234e-11
2.71548e-10
-1.15483e-11
2.79992e-10
-1.13595e-11
2.88287e-10
-1.11576e-11
2.96424e-10
-1.09429e-11
3.04393e-10
-1.07162e-11
3.12185e-10
-1.04786e-11
3.19791e-10
-1.02315e-11
3.27206e-10
-9.9749e-12
3.34425e-10
-9.7083e-12
3.4144e-10
-9.4325e-12
3.48245e-10
-9.14903e-12
3.54833e-10
-8.85841e-12
3.612e-10
-8.56059e-12
3.67342e-10
-8.25586e-12
3.73252e-10
-7.94488e-12
3.78926e-10
-7.62807e-12
3.84361e-10
-7.30587e-12
3.89553e-10
-6.97894e-12
3.94498e-10
-6.64754e-12
3.99193e-10
-6.31146e-12
4.03636e-10
-5.97106e-12
4.07823e-10
-5.62743e-12
4.11752e-10
-5.28095e-12
4.15421e-10
-4.93094e-12
4.18827e-10
-4.57738e-12
4.2197e-10
-4.22149e-12
4.24845e-10
-3.86397e-12
4.27453e-10
-3.50439e-12
4.29792e-10
-3.14247e-12
4.31861e-10
-2.77879e-12
4.33658e-10
-2.41398e-12
4.35181e-10
-2.04798e-12
4.36432e-10
-1.6806e-12
4.37409e-10
-1.3122e-12
4.38111e-10
-9.43389e-13
4.38539e-10
-5.74402e-13
4.38691e-10
-2.05064e-13
4.38568e-10
1.64797e-13
4.3817e-10
5.3501e-13
4.37498e-10
9.05121e-13
4.3655e-10
1.27457e-12
4.35327e-10
1.64308e-12
4.3383e-10
2.0109e-12
4.32059e-10
2.37813e-12
4.30017e-10
2.7443e-12
4.27703e-10
3.10904e-12
4.25119e-10
3.47245e-12
4.22266e-10
3.83437e-12
4.19146e-10
4.19409e-12
4.1576e-10
4.55126e-12
4.1211e-10
4.90611e-12
4.08197e-10
5.25849e-12
4.04025e-10
5.60771e-12
3.99595e-10
5.95346e-12
3.94911e-10
6.29592e-12
3.89976e-10
6.63487e-12
3.84792e-10
6.96947e-12
3.79363e-10
7.29901e-12
3.73692e-10
7.62338e-12
3.67784e-10
7.94252e-12
3.61643e-10
8.25587e-12
3.55274e-10
8.56298e-12
3.48682e-10
8.86375e-12
3.41872e-10
9.15771e-12
3.34849e-10
9.4439e-12
3.2762e-10
9.72155e-12
3.20192e-10
9.99022e-12
3.12571e-10
1.02496e-11
3.04765e-10
1.04993e-11
2.96783e-10
1.07384e-11
2.88631e-10
1.0966e-11
2.80318e-10
1.11821e-11
2.71854e-10
1.13861e-11
2.6325e-10
1.15768e-11
2.54517e-10
1.17528e-11
2.45663e-10
1.19135e-11
2.36701e-10
1.20589e-11
2.27644e-10
1.21886e-11
2.18506e-10
1.23009e-11
2.09299e-10
1.23941e-11
2.00036e-10
1.24682e-11
1.90734e-10
1.25229e-11
1.81408e-10
1.25561e-11
1.72075e-10
1.2566e-11
1.62751e-10
1.25529e-11
1.53455e-10
1.25169e-11
1.44208e-10
1.24559e-11
1.35027e-10
1.23672e-11
1.25931e-10
1.225e-11
1.16944e-10
1.21044e-11
1.08087e-10
1.19293e-11
9.93855e-11
1.17234e-11
9.08609e-11
1.1485e-11
8.25377e-11
1.12128e-11
7.44423e-11
1.0906e-11
6.66012e-11
1.05633e-11
5.90408e-11
1.01839e-11
5.17888e-11
9.76691e-12
4.48743e-11
9.31117e-12
3.83259e-11
8.81571e-12
3.21719e-11
8.28019e-12
2.64417e-11
7.7051e-12
2.11653e-11
7.09068e-12
1.63705e-11
6.437e-12
1.20822e-11
5.74553e-12
8.32555e-12
5.01896e-12
5.12329e-12
4.26085e-12
2.49226e-12
3.47733e-12
4.42623e-13
2.67758e-12
-1.02616e-12
1.87494e-12
-1.92933e-12
1.08986e-12
-2.30141e-12
3.50355e-13
-2.20322e-12
-3.03987e-13
-1.73512e-12
-8.1584e-13
-1.04965e-12
-1.102e-12
-3.64743e-13
-1.04597e-12
-5.20767e-13
-4.33856e-13
9.16057e-13
-1.11618e-12
1.70386e-12
-1.66615e-12
1.65236e-12
-1.84796e-12
9.75032e-13
-1.45155e-12
-1.20961e-13
-3.34103e-13
-1.48486e-12
1.58163e-12
-3.02517e-12
4.34989e-12
-4.66623e-12
7.99909e-12
-6.34717e-12
1.2534e-11
-8.02686e-12
1.79396e-11
-9.68146e-12
2.41944e-11
-1.12928e-11
3.12752e-11
-1.28419e-11
3.91481e-11
-1.43177e-11
4.77697e-11
-1.57187e-11
5.70958e-11
-1.7041e-11
6.70889e-11
-1.82789e-11
7.77054e-11
-1.94316e-11
8.88973e-11
-2.05017e-11
1.00622e-10
-2.14888e-11
1.12837e-10
-2.23923e-11
1.25499e-10
-2.3215e-11
1.38565e-10
-2.39593e-11
1.51994e-10
-2.4627e-11
1.65745e-10
-2.52201e-11
1.7978e-10
-2.57413e-11
1.94064e-10
-2.61915e-11
2.08558e-10
-2.65734e-11
2.23226e-10
-2.68907e-11
2.38033e-10
-2.71465e-11
2.52947e-10
-2.73424e-11
2.67939e-10
-2.74802e-11
2.82979e-10
-2.75624e-11
2.98036e-10
-2.75921e-11
3.13083e-10
-2.75712e-11
3.28095e-10
-2.75012e-11
3.43045e-10
-2.73848e-11
3.57908e-10
-2.72254e-11
3.72662e-10
-2.70249e-11
3.87287e-10
-2.67836e-11
4.01762e-10
-2.65035e-11
4.16067e-10
-2.61879e-11
4.30182e-10
-2.58383e-11
4.44089e-10
-2.54559e-11
4.57773e-10
-2.50426e-11
4.71217e-10
-2.46003e-11
4.84406e-10
-2.413e-11
4.97325e-10
-2.36335e-11
5.0996e-10
-2.31131e-11
5.22297e-10
-2.25705e-11
5.34326e-10
-2.2006e-11
5.46038e-10
-2.14201e-11
5.5742e-10
-2.08145e-11
5.68462e-10
-2.01913e-11
5.79154e-10
-1.95514e-11
5.89489e-10
-1.88953e-11
5.99459e-10
-1.82242e-11
6.09054e-10
-1.75393e-11
6.18268e-10
-1.68415e-11
6.27093e-10
-1.61317e-11
6.35525e-10
-1.54108e-11
6.43557e-10
-1.46796e-11
6.51185e-10
-1.39385e-11
6.58402e-10
-1.31883e-11
6.65204e-10
-1.243e-11
6.71588e-10
-1.16643e-11
6.7755e-10
-1.08918e-11
6.83085e-10
-1.01124e-11
6.88191e-10
-9.32719e-12
6.92865e-10
-8.53718e-12
6.97104e-10
-7.74257e-12
7.00905e-10
-6.94336e-12
7.04267e-10
-6.14025e-12
7.07188e-10
-5.33418e-12
7.09666e-10
-4.52553e-12
7.11699e-10
-3.71428e-12
7.13287e-10
-2.90077e-12
7.14429e-10
-2.08576e-12
7.15125e-10
-1.26979e-12
7.15373e-10
-4.53007e-13
7.15174e-10
3.64389e-13
7.14528e-10
1.18188e-12
7.13434e-10
1.99894e-12
7.11893e-10
2.8151e-12
7.09906e-10
3.6299e-12
7.07474e-10
4.44307e-12
7.04597e-10
5.25439e-12
7.01278e-10
6.06325e-12
6.97518e-10
6.86887e-12
6.93319e-10
7.67101e-12
6.88683e-10
8.46965e-12
6.83613e-10
9.26417e-12
6.78112e-10
1.00536e-11
6.72181e-10
1.08373e-11
6.65825e-10
1.16148e-11
6.59047e-10
1.23854e-11
6.51852e-10
1.31484e-11
6.44245e-10
1.39035e-11
6.36229e-10
1.46503e-11
6.27811e-10
1.53878e-11
6.18995e-10
1.61148e-11
6.09788e-10
1.68302e-11
6.00197e-10
1.75334e-11
5.90229e-10
1.8224e-11
5.79892e-10
1.89007e-11
5.69195e-10
1.95625e-11
5.58144e-10
2.02084e-11
5.46751e-10
2.08371e-11
5.35024e-10
2.14472e-11
5.22975e-10
2.20379e-11
5.10617e-10
2.26082e-11
4.9796e-10
2.31567e-11
4.85018e-10
2.36816e-11
4.71804e-10
2.41811e-11
4.58332e-10
2.4654e-11
4.44618e-10
2.50995e-11
4.30678e-10
2.55161e-11
4.1653e-10
2.59017e-11
4.02192e-10
2.62536e-11
3.87681e-10
2.65703e-11
3.73018e-10
2.6851e-11
3.58225e-10
2.70939e-11
3.43325e-10
2.72961e-11
3.28338e-10
2.74556e-11
3.13289e-10
2.75713e-11
2.98204e-10
2.76407e-11
2.83112e-10
2.76601e-11
2.68038e-10
2.76277e-11
2.53011e-10
2.75429e-11
2.38063e-10
2.74036e-11
2.23224e-10
2.72058e-11
2.08527e-10
2.69467e-11
1.94007e-10
2.66244e-11
1.79699e-10
2.62373e-11
1.6564e-10
2.57828e-11
1.51868e-10
2.5258e-11
1.3842e-10
2.46603e-11
1.25338e-10
2.39878e-11
1.12664e-10
2.32386e-11
1.00438e-10
2.241e-11
8.87046e-11
2.15002e-11
7.75073e-11
2.05084e-11
6.68906e-11
1.94329e-11
5.68985e-11
1.82727e-11
4.75743e-11
1.70287e-11
3.89619e-11
1.57029e-11
3.11026e-11
1.42967e-11
2.40329e-11
1.28139e-11
1.77876e-11
1.12615e-11
1.23975e-11
9.64965e-12
7.88335e-12
7.99213e-12
4.25526e-12
6.30857e-12
1.50833e-12
4.62671e-12
-3.85729e-13
2.98477e-12
-1.48232e-12
1.43855e-12
-1.87004e-12
6.83737e-14
-1.68302e-12
-1.01507e-12
-1.11298e-12
-1.67259e-12
-4.23254e-13
-1.72623e-12
-9.43427e-13
-3.52341e-13
1.2788e-12
-8.19614e-13
2.1703e-12
-1.00493e-12
1.82312e-12
-6.17739e-13
5.82815e-13
5.57931e-13
-1.28373e-12
2.6595e-12
-3.58617e-12
5.79254e-12
-6.16564e-12
1.00291e-11
-8.90516e-12
1.54021e-11
-1.17166e-11
2.19157e-11
-1.45399e-11
2.95579e-11
-1.73312e-11
3.83129e-11
-2.00507e-11
4.81483e-11
-2.26734e-11
5.90174e-11
-2.51847e-11
7.0872e-11
-2.75746e-11
8.36623e-11
-2.98325e-11
9.73356e-11
-3.19514e-11
1.11834e-10
-3.39312e-11
1.271e-10
-3.57707e-11
1.4308e-10
-3.74688e-11
1.59715e-10
-3.90277e-11
1.76948e-10
-4.04499e-11
1.94725e-10
-4.17369e-11
2.12991e-10
-4.28931e-11
2.31692e-10
-4.39225e-11
2.50779e-10
-4.48276e-11
2.70201e-10
-4.56112e-11
2.89909e-10
-4.62783e-11
3.09853e-10
-4.68342e-11
3.29988e-10
-4.72829e-11
3.50272e-10
-4.76272e-11
3.70664e-10
-4.78712e-11
3.91121e-10
-4.80197e-11
4.11606e-10
-4.80765e-11
4.32081e-10
-4.80447e-11
4.5251e-10
-4.79282e-11
4.72856e-10
-4.7732e-11
4.93089e-10
-4.746e-11
5.13177e-10
-4.71148e-11
5.33093e-10
-4.66991e-11
5.52806e-10
-4.62165e-11
5.7229e-10
-4.56713e-11
5.91519e-10
-4.50667e-11
6.10467e-10
-4.44051e-11
6.29114e-10
-4.36892e-11
6.47437e-10
-4.29218e-11
6.65415e-10
-4.21058e-11
6.83026e-10
-4.12444e-11
7.00252e-10
-4.03407e-11
7.17077e-10
-3.93966e-11
7.33484e-10
-3.84138e-11
7.49459e-10
-3.73945e-11
7.64986e-10
-3.63411e-11
7.8005e-10
-3.52563e-11
7.9464e-10
-3.41416e-11
8.08744e-10
-3.29985e-11
8.2235e-10
-3.18289e-11
8.35446e-10
-3.0635e-11
8.48023e-10
-2.94186e-11
8.60072e-10
-2.81809e-11
8.71583e-10
-2.6923e-11
8.82551e-10
-2.56466e-11
8.92967e-10
-2.43533e-11
9.02823e-10
-2.30444e-11
9.12113e-10
-2.17206e-11
9.20832e-10
-2.03832e-11
9.28976e-10
-1.90338e-11
9.36537e-10
-1.76732e-11
9.43511e-10
-1.63023e-11
9.49896e-10
-1.49218e-11
9.55688e-10
-1.35329e-11
9.60882e-10
-1.21367e-11
9.65476e-10
-1.07339e-11
9.69466e-10
-9.32515e-12
9.72853e-10
-7.91129e-12
9.75632e-10
-6.49326e-12
9.77803e-10
-5.07179e-12
9.79364e-10
-3.64746e-12
9.80314e-10
-2.22084e-12
9.80655e-10
-7.92689e-13
9.80383e-10
6.36171e-13
9.79501e-10
2.0649e-12
9.78007e-10
3.49281e-12
9.75902e-10
4.91937e-12
9.73188e-10
6.34379e-12
9.69866e-10
7.76519e-12
9.65937e-10
9.18301e-12
9.61403e-10
1.05966e-11
9.56267e-10
1.20048e-11
9.50532e-10
1.34066e-11
9.442e-10
1.48015e-11
9.37275e-10
1.61891e-11
9.29761e-10
1.7568e-11
9.21662e-10
1.89368e-11
9.12981e-10
2.02944e-11
9.03726e-10
2.16402e-11
8.93902e-10
2.2973e-11
8.83515e-10
2.42914e-11
8.72572e-10
2.55944e-11
8.6108e-10
2.68806e-11
8.49046e-10
2.81484e-11
8.36479e-10
2.93961e-11
8.2339e-10
3.06225e-11
8.09787e-10
3.18264e-11
7.95682e-10
3.3006e-11
7.81087e-10
3.41592e-11
7.66012e-10
3.52841e-11
7.5047e-10
3.63786e-11
7.34476e-10
3.74407e-11
7.18046e-10
3.84684e-11
7.01194e-10
3.94598e-11
6.83938e-10
4.04128e-11
6.66295e-10
4.1325e-11
6.48283e-10
4.21933e-11
6.29924e-10
4.30149e-11
6.11237e-10
4.37871e-11
5.92245e-10
4.4508e-11
5.7297e-10
4.51749e-11
5.5344e-10
4.57843e-11
5.33679e-10
4.63324e-11
5.13714e-10
4.68167e-11
4.93574e-10
4.72345e-11
4.73289e-10
4.75819e-11
4.52892e-10
4.78545e-11
4.32413e-10
4.80493e-11
4.11887e-10
4.81639e-11
3.91353e-10
4.81941e-11
3.70848e-10
4.81349e-11
3.5041e-10
4.79824e-11
3.3008e-10
4.77338e-11
3.09899e-10
4.73851e-11
2.89914e-10
4.69315e-11
2.70169e-10
4.63691e-11
2.50714e-10
4.56941e-11
2.31594e-10
4.49024e-11
2.12862e-10
4.39902e-11
1.9457e-10
4.29534e-11
1.7677e-10
4.17884e-11
1.59516e-10
4.04915e-11
1.42866e-10
3.90599e-11
1.26874e-10
3.74914e-11
1.11598e-10
3.57839e-11
9.70948e-11
3.39357e-11
8.34221e-11
3.19462e-11
7.06353e-11
2.98167e-11
5.87878e-11
2.75506e-11
4.79313e-11
2.51532e-11
3.81122e-11
2.26325e-11
2.93715e-11
2.00015e-11
2.17443e-11
1.72774e-11
1.52532e-11
1.44832e-11
9.90666e-12
1.16537e-11
5.6945e-12
8.83718e-12
2.58161e-12
6.09839e-12
5.03736e-13
3.52265e-12
-6.4305e-13
1.22523e-12
-1.01637e-12
-6.43084e-13
-8.29375e-13
-1.8677e-12
-3.5471e-13
-2.19991e-12
-1.29779e-12
-2.04038e-13
1.48782e-12
-3.07638e-13
2.25807e-12
8.24982e-14
1.42394e-12
1.2543e-12
-5.79132e-13
3.40573e-12
-3.43133e-12
6.69422e-12
-6.87406e-12
1.12269e-11
-1.0702e-11
1.70817e-11
-1.47549e-11
2.42907e-11
-1.8921e-11
3.28612e-11
-2.31143e-11
4.27906e-11
-2.72636e-11
5.40563e-11
-3.1315e-11
6.66191e-11
-3.52342e-11
8.04283e-11
-3.89965e-11
9.54334e-11
-4.25809e-11
1.11576e-10
-4.59732e-11
1.28791e-10
-4.91658e-11
1.47012e-10
-5.21536e-11
1.66174e-10
-5.49328e-11
1.86208e-10
-5.75029e-11
2.07047e-10
-5.98662e-11
2.28623e-10
-6.20249e-11
2.50867e-10
-6.39821e-11
2.73715e-10
-6.57427e-11
2.97103e-10
-6.73111e-11
3.20969e-10
-6.86911e-11
3.4525e-10
-6.98889e-11
3.69885e-10
-7.09114e-11
3.94815e-10
-7.17648e-11
4.19986e-10
-7.24541e-11
4.45344e-10
-7.29847e-11
4.70836e-10
-7.33635e-11
4.96413e-10
-7.35964e-11
5.22026e-10
-7.36886e-11
5.4763e-10
-7.3646e-11
5.73177e-10
-7.34749e-11
5.98625e-10
-7.31816e-11
6.23934e-10
-7.27709e-11
6.49066e-10
-7.22476e-11
6.73985e-10
-7.16172e-11
6.98652e-10
-7.08848e-11
7.23036e-10
-7.00554e-11
7.47104e-10
-6.91341e-11
7.70825e-10
-6.81257e-11
7.9417e-10
-6.70338e-11
8.17113e-10
-6.58623e-11
8.39625e-10
-6.46164e-11
8.61682e-10
-6.3301e-11
8.83258e-10
-6.19197e-11
9.04335e-10
-6.04751e-11
9.24892e-10
-5.89706e-11
9.44909e-10
-5.74106e-11
9.64365e-10
-5.57983e-11
9.83245e-10
-5.41366e-11
1.00153e-09
-5.24284e-11
1.01921e-09
-5.06766e-11
1.03627e-09
-4.88841e-11
1.05269e-09
-4.70537e-11
1.06846e-09
-4.51881e-11
1.08356e-09
-4.32896e-11
1.098e-09
-4.13598e-11
1.11176e-09
-3.9401e-11
1.12482e-09
-3.7416e-11
1.13718e-09
-3.54069e-11
1.14884e-09
-3.33748e-11
1.15978e-09
-3.13214e-11
1.16999e-09
-2.92489e-11
1.17948e-09
-2.71594e-11
1.18823e-09
-2.50537e-11
1.19624e-09
-2.2933e-11
1.20351e-09
-2.07993e-11
1.21003e-09
-1.86541e-11
1.21579e-09
-1.64988e-11
1.2208e-09
-1.4334e-11
1.22505e-09
-1.21611e-11
1.22854e-09
-9.98173e-12
1.23126e-09
-7.79699e-12
1.23322e-09
-5.60786e-12
1.23442e-09
-3.4153e-12
1.23485e-09
-1.22039e-12
1.23451e-09
9.7573e-13
1.2334e-09
3.17184e-12
1.23153e-09
5.36663e-12
1.22889e-09
7.5591e-12
1.22548e-09
9.74831e-12
1.22131e-09
1.19329e-11
1.21638e-09
1.41117e-11
1.2107e-09
1.62835e-11
1.20425e-09
1.84474e-11
1.19706e-09
2.06018e-11
1.18912e-09
2.27453e-11
1.18043e-09
2.48766e-11
1.171e-09
2.69943e-11
1.16084e-09
2.90963e-11
1.14996e-09
3.11812e-11
1.13835e-09
3.32476e-11
1.12603e-09
3.52939e-11
1.113e-09
3.73181e-11
1.09928e-09
3.9318e-11
1.08487e-09
4.12914e-11
1.06978e-09
4.32364e-11
1.05403e-09
4.51506e-11
1.03762e-09
4.70316e-11
1.02057e-09
4.88774e-11
1.00289e-09
5.06855e-11
9.84595e-10
5.24527e-11
9.65703e-10
5.41757e-11
9.46229e-10
5.58519e-11
9.2619e-10
5.74786e-11
9.05607e-10
5.90524e-11
8.84498e-10
6.05698e-11
8.62885e-10
6.20271e-11
8.40789e-10
6.34207e-11
8.18234e-10
6.47472e-11
7.95246e-10
6.60029e-11
7.71851e-10
6.71828e-11
7.48078e-10
6.82825e-11
7.23954e-10
6.92985e-11
6.99511e-10
7.02264e-11
6.74784e-10
7.1061e-11
6.49804e-10
7.17969e-11
6.24608e-10
7.24301e-11
5.99234e-10
7.2956e-11
5.73722e-10
7.33685e-11
5.48111e-10
7.36611e-11
5.22445e-10
7.38291e-11
4.96768e-10
7.38683e-11
4.71131e-10
7.37727e-11
4.4558e-10
7.35354e-11
4.20164e-10
7.31502e-11
3.94936e-10
7.26119e-11
3.69952e-10
7.19146e-11
3.45268e-10
7.10527e-11
3.20944e-10
7.00199e-11
2.97037e-10
6.88101e-11
2.73609e-10
6.74175e-11
2.50725e-10
6.58372e-11
2.28449e-10
6.40643e-11
2.06847e-10
6.2094e-11
1.85986e-10
5.99218e-11
1.65934e-10
5.75439e-11
1.46759e-10
5.49581e-11
1.28528e-10
5.21641e-11
1.11311e-10
4.91628e-11
9.51714e-11
4.59566e-11
8.01724e-11
4.25508e-11
6.63729e-11
3.89541e-11
5.38268e-11
3.51796e-11
4.25791e-11
3.12473e-11
3.26667e-11
2.71851e-11
2.41159e-11
2.30308e-11
1.69352e-11
1.88353e-11
1.1111e-11
1.46658e-11
6.60275e-12
1.06097e-11
3.33956e-12
6.78501e-12
1.21047e-12
3.34984e-12
7e-14
5.07057e-13
-3.17103e-13
-1.48918e-12
-2.1076e-13
-2.30677e-12
-1.50975e-12
-2.30808e-14
1.50582e-12
3.50648e-13
1.88232e-12
1.45794e-12
3.20669e-13
3.55667e-12
-2.67629e-12
6.84204e-12
-6.72165e-12
1.14691e-11
-1.15021e-11
1.75434e-11
-1.67706e-11
2.51301e-11
-2.23384e-11
3.42643e-11
-2.80604e-11
4.49612e-11
-3.38165e-11
5.7217e-11
-3.95161e-11
7.10004e-11
-4.50949e-11
8.62701e-11
-5.05035e-11
1.02975e-10
-5.57036e-11
1.21059e-10
-6.06647e-11
1.40455e-10
-6.53686e-11
1.61091e-10
-6.98034e-11
1.82895e-10
-7.39586e-11
2.05792e-10
-7.78297e-11
2.29703e-10
-8.14155e-11
2.54552e-10
-8.4716e-11
2.80261e-10
-8.77342e-11
3.06752e-10
-9.04752e-11
3.33951e-10
-9.29434e-11
3.61784e-10
-9.51435e-11
3.90179e-10
-9.7082e-11
4.1906e-10
-9.87678e-11
4.48358e-10
-1.00209e-10
4.78005e-10
-1.01413e-10
5.07939e-10
-1.02387e-10
5.38093e-10
-1.03139e-10
5.68407e-10
-1.03678e-10
5.98823e-10
-1.04012e-10
6.29284e-10
-1.04147e-10
6.59734e-10
-1.04094e-10
6.90119e-10
-1.0386e-10
7.20389e-10
-1.03453e-10
7.50496e-10
-1.0288e-10
7.80397e-10
-1.02148e-10
8.10045e-10
-1.01265e-10
8.39397e-10
-1.00238e-10
8.68415e-10
-9.90735e-11
8.97059e-10
-9.77789e-11
9.25293e-10
-9.63602e-11
9.53085e-10
-9.48229e-11
9.80398e-10
-9.31735e-11
1.0072e-09
-9.1419e-11
1.03346e-09
-8.95653e-11
1.05916e-09
-8.76173e-11
1.08426e-09
-8.55793e-11
1.10875e-09
-8.34566e-11
1.13259e-09
-8.12547e-11
1.15577e-09
-7.89783e-11
1.17827e-09
-7.66314e-11
1.20006e-09
-7.42181e-11
1.22113e-09
-7.1743e-11
1.24145e-09
-6.92099e-11
1.26102e-09
-6.66226e-11
1.27982e-09
-6.39846e-11
1.29783e-09
-6.12993e-11
1.31504e-09
-5.85699e-11
1.33144e-09
-5.57993e-11
1.34701e-09
-5.29906e-11
1.36175e-09
-5.01472e-11
1.37565e-09
-4.72715e-11
1.38869e-09
-4.43654e-11
1.40088e-09
-4.14317e-11
1.41219e-09
-3.84729e-11
1.42263e-09
-3.54913e-11
1.43219e-09
-3.24886e-11
1.44085e-09
-2.94669e-11
1.44863e-09
-2.64287e-11
1.45551e-09
-2.33757e-11
1.46148e-09
-2.03095e-11
1.46655e-09
-1.72318e-11
1.47071e-09
-1.41444e-11
1.47397e-09
-1.10491e-11
1.47631e-09
-7.94771e-12
1.47773e-09
-4.84144e-12
1.47824e-09
-1.73186e-12
1.47784e-09
1.37938e-12
1.47652e-09
4.4906e-12
1.47429e-09
7.60011e-12
1.47114e-09
1.07063e-11
1.46708e-09
1.38078e-11
1.46211e-09
1.69027e-11
1.45623e-09
1.99889e-11
1.44945e-09
2.30652e-11
1.44177e-09
2.61301e-11
1.43319e-09
2.91816e-11
1.42372e-09
3.22173e-11
1.41336e-09
3.52354e-11
1.40212e-09
3.82337e-11
1.39001e-09
4.12099e-11
1.37703e-09
4.41616e-11
1.36319e-09
4.70866e-11
1.3485e-09
4.99826e-11
1.33297e-09
5.2847e-11
1.31661e-09
5.56767e-11
1.29944e-09
5.84685e-11
1.28145e-09
6.12196e-11
1.26268e-09
6.39269e-11
1.24312e-09
6.65871e-11
1.2228e-09
6.91964e-11
1.20174e-09
7.17514e-11
1.17994e-09
7.42483e-11
1.15744e-09
7.66826e-11
1.13424e-09
7.90502e-11
1.11037e-09
8.13471e-11
1.08585e-09
8.35686e-11
1.06071e-09
8.57099e-11
1.03497e-09
8.77658e-11
1.00867e-09
8.9731e-11
9.81811e-10
9.16006e-11
9.54444e-10
9.33695e-11
9.26596e-10
9.50316e-11
8.98299e-10
9.65801e-11
8.69589e-10
9.8009e-11
8.40501e-10
9.93129e-11
8.11077e-10
1.00485e-10
7.81357e-10
1.01519e-10
7.51382e-10
1.02406e-10
7.21197e-10
1.03141e-10
6.90849e-10
1.03716e-10
6.60387e-10
1.04123e-10
6.29862e-10
1.04355e-10
5.99327e-10
1.04403e-10
5.68837e-10
1.04262e-10
5.38451e-10
1.03922e-10
5.08226e-10
1.03375e-10
4.78224e-10
1.02613e-10
4.48511e-10
1.01628e-10
4.19153e-10
1.00412e-10
3.90216e-10
9.89562e-11
3.61771e-10
9.72544e-11
3.3389e-10
9.5299e-11
3.06646e-10
9.30822e-11
2.80115e-10
9.05965e-11
2.54371e-10
8.78369e-11
2.29492e-10
8.4799e-11
2.05557e-10
8.14787e-11
1.82642e-10
7.7873e-11
1.60825e-10
7.39818e-11
1.40181e-10
6.98073e-11
1.20786e-10
6.53539e-11
1.02706e-10
6.06297e-11
8.60083e-11
5.56494e-11
7.07523e-11
5.04345e-11
5.69871e-11
4.5013e-11
4.47528e-11
3.94223e-11
3.40773e-11
3.37117e-11
2.49685e-11
2.79472e-11
1.74109e-11
2.22196e-11
1.13664e-11
1.6648e-11
6.76779e-12
1.13842e-11
3.50464e-12
6.6102e-12
1.43209e-12
2.58164e-12
3.38615e-13
-4.01532e-13
-2.46853e-14
-1.94472e-12
-1.53559e-12
1.83042e-13
1.31895e-12
1.09822e-12
9.83812e-13
3.00522e-12
-1.58628e-12
6.13705e-12
-5.81359e-12
1.06729e-11
-1.12617e-11
1.67515e-11
-1.75753e-11
2.44631e-11
-2.44781e-11
3.38664e-11
-3.17468e-11
4.50012e-11
-3.91994e-11
5.78777e-11
-4.66934e-11
7.24836e-11
-5.41204e-11
8.87869e-11
-6.13992e-11
1.06745e-10
-6.84638e-11
1.26305e-10
-7.52631e-11
1.47402e-10
-8.1761e-11
1.69963e-10
-8.79315e-11
1.93915e-10
-9.37554e-11
2.19175e-10
-9.92195e-11
2.45663e-10
-1.04317e-10
2.73291e-10
-1.09044e-10
3.01975e-10
-1.134e-10
3.31628e-10
-1.17389e-10
3.62165e-10
-1.21015e-10
3.93503e-10
-1.24282e-10
4.25559e-10
-1.27197e-10
4.58249e-10
-1.29769e-10
4.91492e-10
-1.3201e-10
5.25208e-10
-1.33926e-10
5.59324e-10
-1.35528e-10
5.93764e-10
-1.36826e-10
6.28456e-10
-1.37831e-10
6.63331e-10
-1.38553e-10
6.98324e-10
-1.39002e-10
7.33367e-10
-1.39189e-10
7.68397e-10
-1.39124e-10
8.03354e-10
-1.38818e-10
8.38182e-10
-1.38282e-10
8.72825e-10
-1.37524e-10
9.0723e-10
-1.36554e-10
9.41348e-10
-1.35382e-10
9.75129e-10
-1.34018e-10
1.00853e-09
-1.32471e-10
1.0415e-09
-1.30749e-10
1.074e-09
-1.28861e-10
1.10599e-09
-1.26814e-10
1.13744e-09
-1.24618e-10
1.1683e-09
-1.2228e-10
1.19854e-09
-1.19809e-10
1.22813e-09
-1.1721e-10
1.25704e-09
-1.14492e-10
1.28525e-09
-1.11659e-10
1.31271e-09
-1.08721e-10
1.33941e-09
-1.05681e-10
1.36533e-09
-1.02547e-10
1.39044e-09
-9.93232e-11
1.41471e-09
-9.60164e-11
1.43813e-09
-9.26316e-11
1.46068e-09
-8.91737e-11
1.48235e-09
-8.56472e-11
1.5031e-09
-8.20566e-11
1.52294e-09
-7.84066e-11
1.54184e-09
-7.47015e-11
1.5598e-09
-7.0945e-11
1.57679e-09
-6.71408e-11
1.59281e-09
-6.32928e-11
1.60785e-09
-5.94043e-11
1.6219e-09
-5.54785e-11
1.63495e-09
-5.15184e-11
1.64698e-09
-4.75272e-11
1.658e-09
-4.35078e-11
1.668e-09
-3.9463e-11
1.67697e-09
-3.53954e-11
1.6849e-09
-3.13075e-11
1.69179e-09
-2.72018e-11
1.69764e-09
-2.30807e-11
1.70244e-09
-1.89466e-11
1.70619e-09
-1.48017e-11
1.70889e-09
-1.06481e-11
1.71054e-09
-6.48794e-12
1.71113e-09
-2.32353e-12
1.71067e-09
1.84301e-12
1.70915e-09
6.00962e-12
1.70658e-09
1.0174e-11
1.70295e-09
1.43338e-11
1.69827e-09
1.84869e-11
1.69254e-09
2.26313e-11
1.68576e-09
2.67645e-11
1.67794e-09
3.0884e-11
1.66909e-09
3.49874e-11
1.6592e-09
3.90727e-11
1.64828e-09
4.3137e-11
1.63634e-09
4.71771e-11
1.62338e-09
5.11902e-11
1.60942e-09
5.51736e-11
1.59445e-09
5.91242e-11
1.5785e-09
6.30386e-11
1.56157e-09
6.69135e-11
1.54367e-09
7.07456e-11
1.52482e-09
7.45307e-11
1.50503e-09
7.82647e-11
1.4843e-09
8.19436e-11
1.46266e-09
8.55634e-11
1.44013e-09
8.91198e-11
1.41672e-09
9.26079e-11
1.39245e-09
9.60224e-11
1.36734e-09
9.93584e-11
1.34141e-09
1.0261e-10
1.31469e-09
1.05772e-10
1.2872e-09
1.08839e-10
1.25896e-09
1.11804e-10
1.23001e-09
1.14662e-10
1.20037e-09
1.17405e-10
1.17008e-09
1.20027e-10
1.13916e-09
1.22519e-10
1.10765e-09
1.24876e-10
1.07559e-09
1.2709e-10
1.04302e-09
1.29153e-10
1.00998e-09
1.31055e-10
9.76498e-10
1.3279e-10
9.42635e-10
1.34348e-10
9.08433e-10
1.35721e-10
8.73942e-10
1.36899e-10
8.3921e-10
1.37873e-10
8.04292e-10
1.38633e-10
7.69244e-10
1.39171e-10
7.34125e-10
1.39474e-10
6.98995e-10
1.39534e-10
6.63918e-10
1.3934e-10
6.28958e-10
1.38883e-10
5.94183e-10
1.3815e-10
5.59662e-10
1.37132e-10
5.2547e-10
1.3582e-10
4.9168e-10
1.34202e-10
4.58371e-10
1.32267e-10
4.25619e-10
1.30007e-10
3.93506e-10
1.27412e-10
3.62114e-10
1.24473e-10
3.31527e-10
1.21183e-10
3.01831e-10
1.17534e-10
2.7311e-10
1.1352e-10
2.45451e-10
1.09138e-10
2.1894e-10
1.04384e-10
1.93661e-10
9.92599e-11
1.69697e-10
9.37698e-11
1.4713e-10
8.79215e-11
1.26034e-10
8.1727e-11
1.06481e-10
7.52056e-11
8.85345e-11
6.83835e-11
7.2247e-11
6.12972e-11
5.76601e-11
5.39992e-11
4.48048e-11
4.65579e-11
3.36946e-11
3.90573e-11
2.43191e-11
3.16017e-11
1.66423e-11
2.43331e-11
1.05906e-11
1.74319e-11
6.0831e-12
1.11227e-11
2.97076e-12
5.69163e-12
1.08004e-12
1.48771e-12
1.83875e-13
-1.05046e-12
-1.35267e-12
4.06262e-13
9.13712e-13
1.88318e-12
-4.92507e-13
4.64819e-12
-4.35251e-12
8.88642e-12
-1.00532e-11
1.47517e-11
-1.71208e-11
2.2352e-11
-2.51729e-11
3.17679e-11
-3.38976e-11
4.30534e-11
-4.30371e-11
5.62394e-11
-5.2384e-11
7.13271e-11
-6.17775e-11
8.82973e-11
-7.10909e-11
1.07119e-10
-8.02219e-11
1.27745e-10
-8.90897e-11
1.50117e-10
-9.7634e-11
1.74165e-10
-1.0581e-10
1.99814e-10
-1.13582e-10
2.26982e-10
-1.20925e-10
2.55584e-10
-1.27822e-10
2.85531e-10
-1.34263e-10
3.1673e-10
-1.40243e-10
3.49088e-10
-1.45759e-10
3.82511e-10
-1.50816e-10
4.16909e-10
-1.55415e-10
4.52192e-10
-1.59562e-10
4.88265e-10
-1.63267e-10
5.25036e-10
-1.6654e-10
5.62419e-10
-1.69392e-10
6.00328e-10
-1.71834e-10
6.38677e-10
-1.73877e-10
6.77385e-10
-1.75535e-10
7.16373e-10
-1.7682e-10
7.55564e-10
-1.77744e-10
7.94885e-10
-1.7832e-10
8.3426e-10
-1.78562e-10
8.7362e-10
-1.78485e-10
9.12899e-10
-1.78099e-10
9.52034e-10
-1.77417e-10
9.90963e-10
-1.76453e-10
1.02962e-09
-1.75217e-10
1.06796e-09
-1.73723e-10
1.10593e-09
-1.71982e-10
1.14346e-09
-1.70007e-10
1.18052e-09
-1.67806e-10
1.21705e-09
-1.65392e-10
1.25302e-09
-1.62775e-10
1.28837e-09
-1.59966e-10
1.32306e-09
-1.56975e-10
1.35706e-09
-1.53812e-10
1.39033e-09
-1.50484e-10
1.42285e-09
-1.47002e-10
1.45456e-09
-1.43374e-10
1.48545e-09
-1.39609e-10
1.51548e-09
-1.35713e-10
1.54463e-09
-1.31695e-10
1.57287e-09
-1.27562e-10
1.60017e-09
-1.23322e-10
1.62652e-09
-1.1898e-10
1.65189e-09
-1.14545e-10
1.67627e-09
-1.1002e-10
1.69962e-09
-1.05412e-10
1.72194e-09
-1.00728e-10
1.74322e-09
-9.59721e-11
1.76342e-09
-9.11499e-11
1.78255e-09
-8.62655e-11
1.80058e-09
-8.13242e-11
1.8175e-09
-7.63308e-11
1.83331e-09
-7.12891e-11
1.848e-09
-6.62027e-11
1.86155e-09
-6.10758e-11
1.87395e-09
-5.59126e-11
1.88521e-09
-5.07164e-11
1.8953e-09
-4.54904e-11
1.90423e-09
-4.02378e-11
1.91199e-09
-3.49622e-11
1.91858e-09
-2.96668e-11
1.92399e-09
-2.43545e-11
1.92821e-09
-1.9028e-11
1.93126e-09
-1.36902e-11
1.93311e-09
-8.34393e-12
1.93378e-09
-2.99194e-12
1.93326e-09
2.36274e-12
1.93155e-09
7.71724e-12
1.92866e-09
1.30689e-11
1.92458e-09
1.84148e-11
1.91931e-09
2.37519e-11
1.91286e-09
2.90776e-11
1.90524e-09