/*--------------------------------*- C++ -*----------------------------------*\
  =========                 |
  \\      /  F ield         | OpenFOAM: The Open Source CFD Toolbox
   \\    /   O peration     | Website:  https://openfoam.org
    \\  /    A nd           | Version:  7
     \\/     M anipulation  |
\*---------------------------------------------------------------------------*/
FoamFile
{
    version     2.0;
    format      ascii;
    class       volVectorField;
    location    "0.3625";
    object      U;
}
// * * * * * * * * * * * * * * * * * * * * * * * * * * * * * * * * * * * * * //

dimensions      [0 1 -1 0 0 0 0];

internalField   nonuniform List<vector> 
51200
(
(-1.36027e-08 5.7981e-09 0)
(-5.72504e-08 2.56322e-08 0)
(-1.21458e-07 3.07043e-08 0)
(-1.86251e-07 2.79418e-08 0)
(-2.31694e-07 2.04173e-08 0)
(-2.50017e-07 9.82978e-09 0)
(-2.36561e-07 -1.46427e-09 0)
(-1.87881e-07 -1.25798e-08 0)
(-1.03867e-07 -2.40186e-08 0)
(1.48656e-08 -3.5171e-08 0)
(1.68488e-07 -4.56436e-08 0)
(3.55422e-07 -5.54665e-08 0)
(5.73829e-07 -6.48807e-08 0)
(8.22376e-07 -7.39115e-08 0)
(1.09961e-06 -8.21753e-08 0)
(1.40387e-06 -8.97375e-08 0)
(1.73294e-06 -9.69287e-08 0)
(2.0849e-06 -1.03602e-07 0)
(2.45834e-06 -1.09586e-07 0)
(2.85162e-06 -1.15054e-07 0)
(3.26289e-06 -1.20093e-07 0)
(3.6905e-06 -1.24599e-07 0)
(4.13305e-06 -1.28588e-07 0)
(4.58893e-06 -1.32163e-07 0)
(5.05657e-06 -1.35305e-07 0)
(5.53462e-06 -1.38026e-07 0)
(6.02171e-06 -1.40418e-07 0)
(6.51652e-06 -1.42463e-07 0)
(7.01786e-06 -1.44069e-07 0)
(7.52445e-06 -1.45265e-07 0)
(8.03496e-06 -1.46183e-07 0)
(8.54822e-06 -1.46848e-07 0)
(9.06333e-06 -1.47177e-07 0)
(9.57944e-06 -1.47189e-07 0)
(1.00955e-05 -1.4695e-07 0)
(1.06105e-05 -1.46474e-07 0)
(1.11235e-05 -1.45738e-07 0)
(1.16337e-05 -1.44745e-07 0)
(1.21402e-05 -1.43553e-07 0)
(1.26424e-05 -1.42216e-07 0)
(1.31395e-05 -1.40679e-07 0)
(1.36309e-05 -1.38883e-07 0)
(1.41161e-05 -1.36889e-07 0)
(1.45942e-05 -1.34776e-07 0)
(1.50648e-05 -1.32528e-07 0)
(1.55273e-05 -1.30107e-07 0)
(1.59812e-05 -1.27523e-07 0)
(1.64259e-05 -1.2479e-07 0)
(1.68611e-05 -1.21922e-07 0)
(1.72861e-05 -1.18964e-07 0)
(1.77006e-05 -1.15951e-07 0)
(1.81042e-05 -1.12864e-07 0)
(1.84967e-05 -1.09649e-07 0)
(1.88779e-05 -1.06299e-07 0)
(1.92472e-05 -1.02862e-07 0)
(1.96043e-05 -9.93678e-08 0)
(1.9949e-05 -9.57988e-08 0)
(2.02811e-05 -9.2147e-08 0)
(2.06004e-05 -8.8435e-08 0)
(2.09065e-05 -8.4684e-08 0)
(2.11992e-05 -8.08826e-08 0)
(2.14783e-05 -7.70091e-08 0)
(2.17438e-05 -7.30759e-08 0)
(2.19954e-05 -6.91185e-08 0)
(2.2233e-05 -6.5147e-08 0)
(2.24565e-05 -6.11315e-08 0)
(2.26655e-05 -5.70574e-08 0)
(2.28603e-05 -5.29534e-08 0)
(2.30405e-05 -4.88396e-08 0)
(2.32062e-05 -4.46982e-08 0)
(2.3357e-05 -4.05177e-08 0)
(2.34931e-05 -3.63153e-08 0)
(2.36144e-05 -3.21093e-08 0)
(2.37208e-05 -2.78952e-08 0)
(2.38121e-05 -2.36599e-08 0)
(2.38884e-05 -1.94041e-08 0)
(2.39497e-05 -1.51428e-08 0)
(2.39959e-05 -1.08886e-08 0)
(2.40269e-05 -6.63793e-09 0)
(2.40428e-05 -2.37538e-09 0)
(2.40436e-05 1.90438e-09 0)
(2.40293e-05 6.19165e-09 0)
(2.39999e-05 1.04746e-08 0)
(2.39554e-05 1.4745e-08 0)
(2.38957e-05 1.90054e-08 0)
(2.38208e-05 2.32606e-08 0)
(2.37309e-05 2.75003e-08 0)
(2.36259e-05 3.17232e-08 0)
(2.3506e-05 3.59494e-08 0)
(2.33713e-05 4.01759e-08 0)
(2.32217e-05 4.43636e-08 0)
(2.30573e-05 4.85e-08 0)
(2.28782e-05 5.26276e-08 0)
(2.26845e-05 5.67705e-08 0)
(2.24763e-05 6.08887e-08 0)
(2.22538e-05 6.49471e-08 0)
(2.20169e-05 6.89632e-08 0)
(2.1766e-05 7.295e-08 0)
(2.15011e-05 7.68834e-08 0)
(2.12224e-05 8.07542e-08 0)
(2.09301e-05 8.45903e-08 0)
(2.06242e-05 8.84009e-08 0)
(2.03051e-05 9.21487e-08 0)
(1.9973e-05 9.5809e-08 0)
(1.96282e-05 9.94033e-08 0)
(1.92709e-05 1.0295e-07 0)
(1.89013e-05 1.06426e-07 0)
(1.85198e-05 1.09801e-07 0)
(1.81267e-05 1.13065e-07 0)
(1.77222e-05 1.16219e-07 0)
(1.73069e-05 1.19263e-07 0)
(1.6881e-05 1.22203e-07 0)
(1.64451e-05 1.25046e-07 0)
(1.59996e-05 1.27796e-07 0)
(1.55448e-05 1.30427e-07 0)
(1.50813e-05 1.32887e-07 0)
(1.46096e-05 1.35142e-07 0)
(1.41304e-05 1.37217e-07 0)
(1.3644e-05 1.3917e-07 0)
(1.31512e-05 1.41001e-07 0)
(1.26527e-05 1.42635e-07 0)
(1.21492e-05 1.44014e-07 0)
(1.16414e-05 1.45169e-07 0)
(1.11299e-05 1.46144e-07 0)
(1.06157e-05 1.46886e-07 0)
(1.00996e-05 1.47325e-07 0)
(9.58237e-06 1.47512e-07 0)
(9.06497e-06 1.47515e-07 0)
(8.5485e-06 1.47251e-07 0)
(8.03409e-06 1.46596e-07 0)
(7.52268e-06 1.45563e-07 0)
(7.01525e-06 1.44235e-07 0)
(6.51305e-06 1.42612e-07 0)
(6.01739e-06 1.4064e-07 0)
(5.52959e-06 1.38277e-07 0)
(5.05091e-06 1.35508e-07 0)
(4.58271e-06 1.32316e-07 0)
(4.1264e-06 1.28682e-07 0)
(3.68345e-06 1.24605e-07 0)
(3.25541e-06 1.2009e-07 0)
(2.84389e-06 1.15088e-07 0)
(2.45053e-06 1.09548e-07 0)
(2.07699e-06 1.03486e-07 0)
(1.725e-06 9.6906e-08 0)
(1.39632e-06 8.97572e-08 0)
(1.09274e-06 8.20029e-08 0)
(8.16033e-07 7.36619e-08 0)
(5.67893e-07 6.47624e-08 0)
(3.49984e-07 5.52732e-08 0)
(1.63937e-07 4.5191e-08 0)
(1.12367e-08 3.46004e-08 0)
(-1.06902e-07 2.35791e-08 0)
(-1.89717e-07 1.22643e-08 0)
(-2.37123e-07 8.98237e-10 0)
(-2.49912e-07 -1.01584e-08 0)
(-2.30409e-07 -2.0317e-08 0)
(-1.83281e-07 -2.83849e-08 0)
(-1.17141e-07 -3.20489e-08 0)
(-4.97363e-08 -2.71788e-08 0)
(-9.43263e-09 -1.00148e-08 0)
(-2.71387e-08 4.33852e-08 0)
(-1.12609e-07 1.06503e-07 0)
(-2.27467e-07 1.1895e-07 0)
(-3.25795e-07 9.7057e-08 0)
(-3.75171e-07 5.28144e-08 0)
(-3.55156e-07 -5.22123e-09 0)
(-2.52363e-07 -6.96228e-08 0)
(-6.05598e-08 -1.37281e-07 0)
(2.22757e-07 -2.06558e-07 0)
(5.99509e-07 -2.74878e-07 0)
(1.06882e-06 -3.40923e-07 0)
(1.62794e-06 -4.0474e-07 0)
(2.27362e-06 -4.65886e-07 0)
(3.00249e-06 -5.23923e-07 0)
(3.81066e-06 -5.7826e-07 0)
(4.69325e-06 -6.29121e-07 0)
(5.64537e-06 -6.76883e-07 0)
(6.66272e-06 -7.21208e-07 0)
(7.74082e-06 -7.61914e-07 0)
(8.87475e-06 -7.99359e-07 0)
(1.00599e-05 -8.3366e-07 0)
(1.1292e-05 -8.64662e-07 0)
(1.25667e-05 -8.92553e-07 0)
(1.38796e-05 -9.17529e-07 0)
(1.52265e-05 -9.39579e-07 0)
(1.66035e-05 -9.58871e-07 0)
(1.80068e-05 -9.75602e-07 0)
(1.94327e-05 -9.89749e-07 0)
(2.08776e-05 -1.00128e-06 0)
(2.23379e-05 -1.01043e-06 0)
(2.38099e-05 -1.01747e-06 0)
(2.52907e-05 -1.02243e-06 0)
(2.67774e-05 -1.02521e-06 0)
(2.82672e-05 -1.02594e-06 0)
(2.9757e-05 -1.02483e-06 0)
(3.12442e-05 -1.02193e-06 0)
(3.27264e-05 -1.01726e-06 0)
(3.4201e-05 -1.01096e-06 0)
(3.56654e-05 -1.00319e-06 0)
(3.71176e-05 -9.94028e-07 0)
(3.85559e-05 -9.83444e-07 0)
(3.99781e-05 -9.71431e-07 0)
(4.13821e-05 -9.58123e-07 0)
(4.27663e-05 -9.4368e-07 0)
(4.41289e-05 -9.28154e-07 0)
(4.54685e-05 -9.11543e-07 0)
(4.67834e-05 -8.93878e-07 0)
(4.80721e-05 -8.75208e-07 0)
(4.93333e-05 -8.55643e-07 0)
(5.05655e-05 -8.35343e-07 0)
(5.17675e-05 -8.14339e-07 0)
(5.29384e-05 -7.92554e-07 0)
(5.40774e-05 -7.69991e-07 0)
(5.51833e-05 -7.46756e-07 0)
(5.6255e-05 -7.2294e-07 0)
(5.72916e-05 -6.98576e-07 0)
(5.82924e-05 -6.73659e-07 0)
(5.92567e-05 -6.48212e-07 0)
(6.01837e-05 -6.22295e-07 0)
(6.10725e-05 -5.95968e-07 0)
(6.19228e-05 -5.69272e-07 0)
(6.27339e-05 -5.42199e-07 0)
(6.35053e-05 -5.14732e-07 0)
(6.42364e-05 -4.86931e-07 0)
(6.4927e-05 -4.58901e-07 0)
(6.55764e-05 -4.30641e-07 0)
(6.61842e-05 -4.0207e-07 0)
(6.67503e-05 -3.7321e-07 0)
(6.72742e-05 -3.44179e-07 0)
(6.77558e-05 -3.1502e-07 0)
(6.81946e-05 -2.85682e-07 0)
(6.85903e-05 -2.56157e-07 0)
(6.8943e-05 -2.26502e-07 0)
(6.92522e-05 -1.9676e-07 0)
(6.95179e-05 -1.66915e-07 0)
(6.97399e-05 -1.36957e-07 0)
(6.99182e-05 -1.06923e-07 0)
(7.00525e-05 -7.68684e-08 0)
(7.01429e-05 -4.68112e-08 0)
(7.01893e-05 -1.67196e-08 0)
(7.01916e-05 1.34329e-08 0)
(7.015e-05 4.36264e-08 0)
(7.00644e-05 7.38098e-08 0)
(6.99347e-05 1.03928e-07 0)
(6.9761e-05 1.33966e-07 0)
(6.95434e-05 1.63949e-07 0)
(6.92819e-05 1.93878e-07 0)
(6.89769e-05 2.2372e-07 0)
(6.86283e-05 2.53468e-07 0)
(6.82365e-05 2.83128e-07 0)
(6.78014e-05 3.12644e-07 0)
(6.73236e-05 3.4195e-07 0)
(6.6803e-05 3.71072e-07 0)
(6.62401e-05 4.00053e-07 0)
(6.56349e-05 4.28839e-07 0)
(6.4988e-05 4.57341e-07 0)
(6.42998e-05 4.85558e-07 0)
(6.35706e-05 5.13525e-07 0)
(6.28009e-05 5.41201e-07 0)
(6.19912e-05 5.68508e-07 0)
(6.11421e-05 5.95423e-07 0)
(6.0254e-05 6.21954e-07 0)
(5.93274e-05 6.48058e-07 0)
(5.83633e-05 6.73671e-07 0)
(5.73623e-05 6.9879e-07 0)
(5.63252e-05 7.23431e-07 0)
(5.52528e-05 7.47528e-07 0)
(5.4146e-05 7.70975e-07 0)
(5.30056e-05 7.93708e-07 0)
(5.18327e-05 8.15703e-07 0)
(5.06285e-05 8.3695e-07 0)
(4.93941e-05 8.57421e-07 0)
(4.81307e-05 8.77051e-07 0)
(4.68396e-05 8.95787e-07 0)
(4.5522e-05 9.13599e-07 0)
(4.41795e-05 9.30409e-07 0)
(4.28137e-05 9.46084e-07 0)
(4.14263e-05 9.6054e-07 0)
(4.00189e-05 9.73794e-07 0)
(3.85932e-05 9.85868e-07 0)
(3.71511e-05 9.96657e-07 0)
(3.5695e-05 1.00597e-06 0)
(3.42268e-05 1.01372e-06 0)
(3.27486e-05 1.01995e-06 0)
(3.12628e-05 1.02461e-06 0)
(2.97719e-05 1.02744e-06 0)
(2.82786e-05 1.02838e-06 0)
(2.67854e-05 1.02751e-06 0)
(2.5295e-05 1.0248e-06 0)
(2.38108e-05 1.01993e-06 0)
(2.23357e-05 1.01274e-06 0)
(2.08728e-05 1.00324e-06 0)
(1.94253e-05 9.91428e-07 0)
(1.79969e-05 9.77192e-07 0)
(1.65913e-05 9.60407e-07 0)
(1.52122e-05 9.40936e-07 0)
(1.38634e-05 9.18654e-07 0)
(1.25489e-05 8.93454e-07 0)
(1.12729e-05 8.65265e-07 0)
(1.00397e-05 8.34043e-07 0)
(8.85361e-06 7.99669e-07 0)
(7.71919e-06 7.61999e-07 0)
(6.64105e-06 7.20964e-07 0)
(5.62372e-06 6.76531e-07 0)
(4.67185e-06 6.28688e-07 0)
(3.79022e-06 5.77404e-07 0)
(2.98348e-06 5.22685e-07 0)
(2.25585e-06 4.64659e-07 0)
(1.61136e-06 4.0346e-07 0)
(1.05393e-06 3.39308e-07 0)
(5.86778e-07 2.72695e-07 0)
(2.12167e-07 2.0438e-07 0)
(-6.90323e-08 1.35436e-07 0)
(-2.5783e-07 6.75819e-08 0)
(-3.57978e-07 3.28169e-09 0)
(-3.76835e-07 -5.39715e-08 0)
(-3.26562e-07 -9.86246e-08 0)
(-2.26394e-07 -1.2174e-07 0)
(-1.09008e-07 -1.10459e-07 0)
(-2.58429e-08 -5.09018e-08 0)
(-3.18807e-08 1.13025e-07 0)
(-1.22936e-07 2.22196e-07 0)
(-2.31798e-07 2.28246e-07 0)
(-3.0035e-07 1.58464e-07 0)
(-2.89714e-07 3.79666e-08 0)
(-1.72853e-07 -1.13993e-07 0)
(6.71736e-08 -2.85534e-07 0)
(4.40304e-07 -4.68542e-07 0)
(9.53118e-07 -6.55653e-07 0)
(1.60789e-06 -8.41981e-07 0)
(2.40375e-06 -1.02487e-06 0)
(3.33765e-06 -1.20242e-06 0)
(4.40575e-06 -1.37298e-06 0)
(5.60343e-06 -1.53511e-06 0)
(6.92458e-06 -1.68848e-06 0)
(8.36206e-06 -1.83299e-06 0)
(9.90929e-06 -1.96826e-06 0)
(1.15598e-05 -2.09398e-06 0)
(1.33062e-05 -2.21042e-06 0)
(1.51413e-05 -2.3178e-06 0)
(1.70582e-05 -2.416e-06 0)
(1.905e-05 -2.5052e-06 0)
(2.11098e-05 -2.58586e-06 0)
(2.3231e-05 -2.65817e-06 0)
(2.5407e-05 -2.72225e-06 0)
(2.76315e-05 -2.77847e-06 0)
(2.98985e-05 -2.82704e-06 0)
(3.22021e-05 -2.86818e-06 0)
(3.45365e-05 -2.90222e-06 0)
(3.68958e-05 -2.92961e-06 0)
(3.92747e-05 -2.95057e-06 0)
(4.16685e-05 -2.96528e-06 0)
(4.40722e-05 -2.97392e-06 0)
(4.6481e-05 -2.97684e-06 0)
(4.88904e-05 -2.97431e-06 0)
(5.12962e-05 -2.96649e-06 0)
(5.36941e-05 -2.95363e-06 0)
(5.60801e-05 -2.93614e-06 0)
(5.84504e-05 -2.91425e-06 0)
(6.08015e-05 -2.88799e-06 0)
(6.31303e-05 -2.85756e-06 0)
(6.54335e-05 -2.82327e-06 0)
(6.77078e-05 -2.78532e-06 0)
(6.99502e-05 -2.74387e-06 0)
(7.21581e-05 -2.69911e-06 0)
(7.4329e-05 -2.65123e-06 0)
(7.64603e-05 -2.60033e-06 0)
(7.85495e-05 -2.5466e-06 0)
(8.05943e-05 -2.49031e-06 0)
(8.25925e-05 -2.43168e-06 0)
(8.45423e-05 -2.37074e-06 0)
(8.6442e-05 -2.30745e-06 0)
(8.82899e-05 -2.24204e-06 0)
(9.00842e-05 -2.17476e-06 0)
(9.18234e-05 -2.10572e-06 0)
(9.35059e-05 -2.03496e-06 0)
(9.51306e-05 -1.96257e-06 0)
(9.6696e-05 -1.8887e-06 0)
(9.8201e-05 -1.81346e-06 0)
(9.96444e-05 -1.73693e-06 0)
(0.000101025 -1.65924e-06 0)
(0.000102343 -1.58045e-06 0)
(0.000103596 -1.5006e-06 0)
(0.000104783 -1.41974e-06 0)
(0.000105905 -1.33805e-06 0)
(0.00010696 -1.25563e-06 0)
(0.000107948 -1.17243e-06 0)
(0.000108868 -1.08846e-06 0)
(0.000109719 -1.00388e-06 0)
(0.000110502 -9.18842e-07 0)
(0.000111215 -8.33312e-07 0)
(0.000111858 -7.47267e-07 0)
(0.000112431 -6.60808e-07 0)
(0.000112934 -5.74054e-07 0)
(0.000113366 -4.87023e-07 0)
(0.000113727 -3.99691e-07 0)
(0.000114017 -3.12113e-07 0)
(0.000114235 -2.24397e-07 0)
(0.000114382 -1.36607e-07 0)
(0.000114458 -4.87335e-08 0)
(0.000114462 3.92281e-08 0)
(0.000114394 1.27229e-07 0)
(0.000114255 2.15192e-07 0)
(0.000114044 3.03038e-07 0)
(0.000113762 3.90709e-07 0)
(0.000113408 4.78209e-07 0)
(0.000112983 5.65533e-07 0)
(0.000112488 6.52599e-07 0)
(0.000111921 7.39321e-07 0)
(0.000111284 8.25692e-07 0)
(0.000110577 9.11699e-07 0)
(0.000109801 9.9724e-07 0)
(0.000108955 1.08221e-06 0)
(0.00010804 1.16659e-06 0)
(0.000107057 1.25034e-06 0)
(0.000106006 1.33334e-06 0)
(0.000104888 1.41553e-06 0)
(0.000103704 1.49689e-06 0)
(0.000102454 1.57739e-06 0)
(0.000101139 1.65689e-06 0)
(9.97602e-05 1.73522e-06 0)
(9.83181e-05 1.81232e-06 0)
(9.68139e-05 1.88814e-06 0)
(9.52489e-05 1.9626e-06 0)
(9.36242e-05 2.03557e-06 0)
(9.19411e-05 2.10699e-06 0)
(9.02009e-05 2.17672e-06 0)
(8.8405e-05 2.24461e-06 0)
(8.6555e-05 2.31049e-06 0)
(8.46525e-05 2.37428e-06 0)
(8.26995e-05 2.43588e-06 0)
(8.06978e-05 2.49515e-06 0)
(7.86494e-05 2.55188e-06 0)
(7.65563e-05 2.60588e-06 0)
(7.44209e-05 2.65706e-06 0)
(7.22453e-05 2.70534e-06 0)
(7.00324e-05 2.7505e-06 0)
(6.77846e-05 2.79226e-06 0)
(6.5505e-05 2.83038e-06 0)
(6.31963e-05 2.86477e-06 0)
(6.08616e-05 2.89534e-06 0)
(5.85042e-05 2.92181e-06 0)
(5.61278e-05 2.94385e-06 0)
(5.37359e-05 2.96131e-06 0)
(5.13321e-05 2.97409e-06 0)
(4.89203e-05 2.98183e-06 0)
(4.65051e-05 2.98411e-06 0)
(4.40907e-05 2.98084e-06 0)
(4.16814e-05 2.972e-06 0)
(3.92822e-05 2.95726e-06 0)
(3.68979e-05 2.93611e-06 0)
(3.45338e-05 2.90826e-06 0)
(3.21951e-05 2.87357e-06 0)
(2.98874e-05 2.83188e-06 0)
(2.76166e-05 2.78289e-06 0)
(2.53885e-05 2.72623e-06 0)
(2.32093e-05 2.66161e-06 0)
(2.10854e-05 2.58881e-06 0)
(1.90232e-05 2.50759e-06 0)
(1.70295e-05 2.41768e-06 0)
(1.5111e-05 2.31889e-06 0)
(1.32748e-05 2.21103e-06 0)
(1.1528e-05 2.0939e-06 0)
(9.87753e-06 1.96737e-06 0)
(8.33052e-06 1.83154e-06 0)
(6.89394e-06 1.68655e-06 0)
(5.57463e-06 1.53248e-06 0)
(4.37888e-06 1.36969e-06 0)
(3.31244e-06 1.19891e-06 0)
(2.38063e-06 1.0211e-06 0)
(1.58772e-06 8.37745e-07 0)
(9.36251e-07 6.50992e-07 0)
(4.26844e-07 4.63914e-07 0)
(5.7111e-08 2.81032e-07 0)
(-1.79351e-07 1.08762e-07 0)
(-2.93839e-07 -4.35044e-08 0)
(-3.03299e-07 -1.62557e-07 0)
(-2.32663e-07 -2.3096e-07 0)
(-1.21768e-07 -2.2529e-07 0)
(-3.12473e-08 -1.17549e-07 0)
(-2.81201e-08 1.79469e-07 0)
(-9.87198e-08 3.21278e-07 0)
(-1.62273e-07 2.97039e-07 0)
(-1.56805e-07 1.51497e-07 0)
(-3.90378e-08 -7.73274e-08 0)
(2.18253e-07 -3.62034e-07 0)
(6.33749e-07 -6.82799e-07 0)
(1.22146e-06 -1.02396e-06 0)
(1.98931e-06 -1.37387e-06 0)
(2.94018e-06 -1.72451e-06 0)
(4.07335e-06 -2.07046e-06 0)
(5.38631e-06 -2.40734e-06 0)
(6.87502e-06 -2.73167e-06 0)
(8.53312e-06 -3.04142e-06 0)
(1.0353e-05 -3.33575e-06 0)
(1.23266e-05 -3.61363e-06 0)
(1.44459e-05 -3.87404e-06 0)
(1.67019e-05 -4.11693e-06 0)
(1.90853e-05 -4.34244e-06 0)
(2.15873e-05 -4.55046e-06 0)
(2.41987e-05 -4.74114e-06 0)
(2.69103e-05 -4.91492e-06 0)
(2.97132e-05 -5.07214e-06 0)
(3.25988e-05 -5.21322e-06 0)
(3.55583e-05 -5.33869e-06 0)
(3.85834e-05 -5.44894e-06 0)
(4.16661e-05 -5.54429e-06 0)
(4.47984e-05 -5.6253e-06 0)
(4.79723e-05 -5.69271e-06 0)
(5.11804e-05 -5.74706e-06 0)
(5.44157e-05 -5.7887e-06 0)
(5.76714e-05 -5.81809e-06 0)
(6.0941e-05 -5.8358e-06 0)
(6.42178e-05 -5.84236e-06 0)
(6.74961e-05 -5.83814e-06 0)
(7.07698e-05 -5.8236e-06 0)
(7.40331e-05 -5.79932e-06 0)
(7.72807e-05 -5.76588e-06 0)
(8.05076e-05 -5.7236e-06 0)
(8.37091e-05 -5.67272e-06 0)
(8.68805e-05 -5.61369e-06 0)
(9.00173e-05 -5.54709e-06 0)
(9.31153e-05 -5.4733e-06 0)
(9.61704e-05 -5.39257e-06 0)
(9.9179e-05 -5.30527e-06 0)
(0.000102137 -5.21176e-06 0)
(0.000105042 -5.11235e-06 0)
(0.00010789 -5.00741e-06 0)
(0.000110678 -4.89738e-06 0)
(0.000113403 -4.78253e-06 0)
(0.000116062 -4.66302e-06 0)
(0.000118653 -4.53902e-06 0)
(0.000121174 -4.4109e-06 0)
(0.000123622 -4.279e-06 0)
(0.000125994 -4.14351e-06 0)
(0.00012829 -4.00459e-06 0)
(0.000130508 -3.86247e-06 0)
(0.000132644 -3.71742e-06 0)
(0.000134698 -3.56965e-06 0)
(0.000136669 -3.41931e-06 0)
(0.000138554 -3.26656e-06 0)
(0.000140353 -3.1116e-06 0)
(0.000142064 -2.9546e-06 0)
(0.000143686 -2.79567e-06 0)
(0.000145217 -2.63497e-06 0)
(0.000146658 -2.47268e-06 0)
(0.000148008 -2.30893e-06 0)
(0.000149264 -2.1438e-06 0)
(0.000150427 -1.97742e-06 0)
(0.000151496 -1.80993e-06 0)
(0.000152471 -1.64145e-06 0)
(0.00015335 -1.47206e-06 0)
(0.000154133 -1.30185e-06 0)
(0.000154819 -1.13097e-06 0)
(0.00015541 -9.59489e-07 0)
(0.000155903 -7.87492e-07 0)
(0.000156299 -6.15057e-07 0)
(0.000156598 -4.42286e-07 0)
(0.000156799 -2.69267e-07 0)
(0.000156902 -9.60667e-08 0)
(0.000156907 7.72345e-08 0)
(0.000156815 2.50533e-07 0)
(0.000156625 4.23737e-07 0)
(0.000156337 5.9677e-07 0)
(0.000155952 7.69532e-07 0)
(0.000155469 9.41935e-07 0)
(0.000154888 1.11392e-06 0)
(0.000154211 1.2854e-06 0)
(0.000153438 1.45622e-06 0)
(0.000152568 1.62627e-06 0)
(0.000151602 1.79552e-06 0)
(0.000150542 1.9639e-06 0)
(0.000149386 2.13122e-06 0)
(0.000148137 2.29732e-06 0)
(0.000146794 2.4621e-06 0)
(0.000145359 2.62542e-06 0)
(0.000143833 2.78715e-06 0)
(0.000142216 2.94718e-06 0)
(0.000140509 3.10539e-06 0)
(0.000138714 3.2616e-06 0)
(0.000136831 3.41558e-06 0)
(0.000134863 3.56711e-06 0)
(0.00013281 3.71607e-06 0)
(0.000130674 3.86232e-06 0)
(0.000128457 4.00565e-06 0)
(0.000126161 4.1458e-06 0)
(0.000123787 4.28253e-06 0)
(0.000121337 4.41561e-06 0)
(0.000118813 4.54475e-06 0)
(0.000116219 4.66975e-06 0)
(0.000113556 4.79038e-06 0)
(0.000110826 4.90638e-06 0)
(0.000108034 5.01742e-06 0)
(0.00010518 5.12311e-06 0)
(0.00010227 5.22314e-06 0)
(9.93054e-05 5.31725e-06 0)
(9.62902e-05 5.40519e-06 0)
(9.32279e-05 5.48658e-06 0)
(9.01225e-05 5.56093e-06 0)
(8.69782e-05 5.62784e-06 0)
(8.3799e-05 5.68703e-06 0)
(8.05893e-05 5.73817e-06 0)
(7.73542e-05 5.78075e-06 0)
(7.40984e-05 5.81426e-06 0)
(7.08269e-05 5.83837e-06 0)
(6.75451e-05 5.85272e-06 0)
(6.42588e-05 5.85669e-06 0)
(6.09742e-05 5.84971e-06 0)
(5.76972e-05 5.83148e-06 0)
(5.44341e-05 5.80162e-06 0)
(5.11914e-05 5.7595e-06 0)
(4.79764e-05 5.70452e-06 0)
(4.47961e-05 5.63622e-06 0)
(4.16582e-05 5.55416e-06 0)
(3.85702e-05 5.45786e-06 0)
(3.55401e-05 5.34677e-06 0)
(3.25761e-05 5.22038e-06 0)
(2.96865e-05 5.07824e-06 0)
(2.688e-05 4.91989e-06 0)
(2.41655e-05 4.74491e-06 0)
(2.15519e-05 4.55298e-06 0)
(1.90482e-05 4.34386e-06 0)
(1.66636e-05 4.11726e-06 0)
(1.44073e-05 3.87304e-06 0)
(1.22884e-05 3.61134e-06 0)
(1.03155e-05 3.33256e-06 0)
(8.49726e-06 3.03721e-06 0)
(6.84145e-06 2.72617e-06 0)
(5.35517e-06 2.40097e-06 0)
(4.04464e-06 2.06373e-06 0)
(2.91456e-06 1.71729e-06 0)
(1.96757e-06 1.36588e-06 0)
(1.20372e-06 1.01553e-06 0)
(6.19678e-07 6.74289e-07 0)
(2.077e-07 3.53468e-07 0)
(-4.52419e-08 6.85595e-08 0)
(-1.59597e-07 -1.59403e-07 0)
(-1.63812e-07 -3.02177e-07 0)
(-9.94825e-08 -3.25515e-07 0)
(-2.82762e-08 -1.83179e-07 0)
(-2.01811e-08 2.27255e-07 0)
(-5.42027e-08 3.70684e-07 0)
(-4.29187e-08 2.85347e-07 0)
(7.18287e-08 3.43962e-08 0)
(3.30402e-07 -3.34782e-07 0)
(7.60377e-07 -7.86288e-07 0)
(1.38261e-06 -1.29067e-06 0)
(2.21151e-06 -1.8259e-06 0)
(3.2556e-06 -2.37584e-06 0)
(4.51792e-06 -2.92878e-06 0)
(5.99862e-06 -3.47564e-06 0)
(7.69546e-06 -4.00904e-06 0)
(9.60342e-06 -4.52424e-06 0)
(1.17152e-05 -5.01814e-06 0)
(1.40226e-05 -5.48833e-06 0)
(1.65168e-05 -5.93288e-06 0)
(1.91879e-05 -6.35066e-06 0)
(2.20254e-05 -6.74125e-06 0)
(2.50188e-05 -7.10433e-06 0)
(2.81572e-05 -7.43975e-06 0)
(3.14298e-05 -7.74791e-06 0)
(3.48256e-05 -8.02919e-06 0)
(3.83338e-05 -8.28395e-06 0)
(4.19438e-05 -8.51294e-06 0)
(4.56452e-05 -8.71683e-06 0)
(4.9428e-05 -8.89616e-06 0)
(5.32822e-05 -9.05162e-06 0)
(5.71978e-05 -9.18413e-06 0)
(6.11652e-05 -9.29463e-06 0)
(6.51755e-05 -9.38382e-06 0)
(6.922e-05 -9.45237e-06 0)
(7.329e-05 -9.50112e-06 0)
(7.73775e-05 -9.53094e-06 0)
(8.14746e-05 -9.54252e-06 0)
(8.55738e-05 -9.53656e-06 0)
(8.96676e-05 -9.51389e-06 0)
(9.37489e-05 -9.47539e-06 0)
(9.7811e-05 -9.42176e-06 0)
(0.000101848 -9.35355e-06 0)
(0.000105853 -9.27142e-06 0)
(0.000109822 -9.17606e-06 0)
(0.000113747 -9.0682e-06 0)
(0.000117624 -8.94848e-06 0)
(0.000121449 -8.81748e-06 0)
(0.000125215 -8.67568e-06 0)
(0.000128919 -8.52361e-06 0)
(0.000132557 -8.36192e-06 0)
(0.000136123 -8.19123e-06 0)
(0.000139615 -8.01207e-06 0)
(0.000143028 -7.82479e-06 0)
(0.000146359 -7.6298e-06 0)
(0.000149606 -7.42761e-06 0)
(0.000152765 -7.21866e-06 0)
(0.000155832 -7.00339e-06 0)
(0.000158806 -6.78214e-06 0)
(0.000161684 -6.55526e-06 0)
(0.000164463 -6.32312e-06 0)
(0.000167142 -6.08612e-06 0)
(0.000169718 -5.84461e-06 0)
(0.000172188 -5.59886e-06 0)
(0.000174552 -5.34908e-06 0)
(0.000176808 -5.09558e-06 0)
(0.000178954 -4.83873e-06 0)
(0.000180988 -4.57877e-06 0)
(0.00018291 -4.31584e-06 0)
(0.000184718 -4.05019e-06 0)
(0.00018641 -3.78211e-06 0)
(0.000187987 -3.51183e-06 0)
(0.000189446 -3.23947e-06 0)
(0.000190787 -2.9652e-06 0)
(0.00019201 -2.68924e-06 0)
(0.000193113 -2.41183e-06 0)
(0.000194096 -2.13311e-06 0)
(0.000194958 -1.85318e-06 0)
(0.000195698 -1.57222e-06 0)
(0.000196318 -1.29043e-06 0)
(0.000196815 -1.00796e-06 0)
(0.00019719 -7.24913e-07 0)
(0.000197442 -4.41423e-07 0)
(0.000197572 -1.57627e-07 0)
(0.000197579 1.26319e-07 0)
(0.000197463 4.10252e-07 0)
(0.000197225 6.94017e-07 0)
(0.000196864 9.77495e-07 0)
(0.00019638 1.26055e-06 0)
(0.000195774 1.54302e-06 0)
(0.000195046 1.82475e-06 0)
(0.000194197 2.1056e-06 0)
(0.000193226 2.38542e-06 0)
(0.000192135 2.66399e-06 0)
(0.000190924 2.94118e-06 0)
(0.000189593 3.21684e-06 0)
(0.000188144 3.49076e-06 0)
(0.000186577 3.76267e-06 0)
(0.000184893 4.03236e-06 0)
(0.000183093 4.29969e-06 0)
(0.000181178 4.56443e-06 0)
(0.00017915 4.82632e-06 0)
(0.00017701 5.0851e-06 0)
(0.000174759 5.3405e-06 0)
(0.000172399 5.59224e-06 0)
(0.000169931 5.84e-06 0)
(0.000167357 6.0835e-06 0)
(0.00016468 6.32248e-06 0)
(0.000161901 6.55663e-06 0)
(0.000159023 6.78551e-06 0)
(0.000156047 7.00871e-06 0)
(0.000152977 7.22589e-06 0)
(0.000149816 7.43664e-06 0)
(0.000146565 7.64056e-06 0)
(0.000143229 7.83723e-06 0)
(0.00013981 8.02619e-06 0)
(0.000136313 8.20698e-06 0)
(0.00013274 8.37909e-06 0)
(0.000129095 8.54198e-06 0)
(0.000125383 8.69506e-06 0)
(0.000121609 8.83785e-06 0)
(0.000117776 8.96986e-06 0)
(0.000113889 9.09048e-06 0)
(0.000109954 9.19898e-06 0)
(0.000105976 9.29473e-06 0)
(0.000101961 9.37723e-06 0)
(9.79137e-05 9.44582e-06 0)
(9.38412e-05 9.49965e-06 0)
(8.97497e-05 9.53796e-06 0)
(8.56458e-05 9.56022e-06 0)
(8.15365e-05 9.56579e-06 0)
(7.74295e-05 9.55376e-06 0)
(7.33324e-05 9.52328e-06 0)
(6.9253e-05 9.47364e-06 0)
(6.51994e-05 9.40413e-06 0)
(6.11802e-05 9.31393e-06 0)
(5.72045e-05 9.20226e-06 0)
(5.32815e-05 9.06831e-06 0)
(4.94205e-05 8.91127e-06 0)
(4.56313e-05 8.73039e-06 0)
(4.19239e-05 8.52496e-06 0)
(3.83084e-05 8.29431e-06 0)
(3.47955e-05 8.03775e-06 0)
(3.13958e-05 7.75468e-06 0)
(2.81201e-05 7.44461e-06 0)
(2.49792e-05 7.1072e-06 0)
(2.19841e-05 6.74228e-06 0)
(1.91455e-05 6.34987e-06 0)
(1.64744e-05 5.9302e-06 0)
(1.3981e-05 5.48395e-06 0)
(1.16748e-05 5.01221e-06 0)
(9.56518e-06 4.51659e-06 0)
(7.66002e-06 3.99971e-06 0)
(5.96601e-06 3.46511e-06 0)
(4.48831e-06 2.91758e-06 0)
(3.22987e-06 2.36397e-06 0)
(2.19048e-06 1.8134e-06 0)
(1.36602e-06 1.2781e-06 0)
(7.47826e-07 7.74172e-07 0)
(3.21615e-07 3.23737e-07 0)
(6.74981e-08 -4.4976e-08 0)
(-4.44228e-08 -2.94077e-07 0)
(-5.53025e-08 -3.76941e-07 0)
(-2.05849e-08 -2.30581e-07 0)
(-1.0536e-08 2.46664e-07 0)
(2.65336e-09 3.50762e-07 0)
(1.10058e-07 1.69531e-07 0)
(3.57549e-07 -2.21212e-07 0)
(7.81319e-07 -7.64603e-07 0)
(1.40932e-06 -1.41437e-06 0)
(2.26194e-06 -2.13436e-06 0)
(3.35269e-06 -2.89642e-06 0)
(4.68946e-06 -3.67994e-06 0)
(6.27593e-06 -4.46842e-06 0)
(8.11287e-06 -5.24893e-06 0)
(1.01973e-05 -6.01204e-06 0)
(1.25234e-05 -6.75108e-06 0)
(1.50836e-05 -7.46106e-06 0)
(1.78691e-05 -8.1379e-06 0)
(2.08702e-05 -8.77902e-06 0)
(2.40756e-05 -9.38288e-06 0)
(2.74738e-05 -9.94828e-06 0)
(3.1053e-05 -1.04746e-05 0)
(3.48007e-05 -1.09617e-05 0)
(3.87046e-05 -1.14098e-05 0)
(4.27523e-05 -1.18193e-05 0)
(4.69314e-05 -1.21908e-05 0)
(5.12296e-05 -1.25252e-05 0)
(5.56351e-05 -1.28231e-05 0)
(6.01362e-05 -1.30855e-05 0)
(6.4721e-05 -1.33134e-05 0)
(6.93781e-05 -1.35081e-05 0)
(7.40964e-05 -1.36706e-05 0)
(7.88655e-05 -1.3802e-05 0)
(8.36749e-05 -1.39033e-05 0)
(8.85148e-05 -1.39758e-05 0)
(9.33756e-05 -1.40205e-05 0)
(9.8248e-05 -1.40384e-05 0)
(0.000103123 -1.40307e-05 0)
(0.000107992 -1.39987e-05 0)
(0.000112846 -1.39433e-05 0)
(0.000117678 -1.38655e-05 0)
(0.000122481 -1.37662e-05 0)
(0.000127246 -1.36466e-05 0)
(0.000131968 -1.35076e-05 0)
(0.000136639 -1.33501e-05 0)
(0.000141253 -1.31751e-05 0)
(0.000145805 -1.29833e-05 0)
(0.000150289 -1.27756e-05 0)
(0.000154698 -1.25529e-05 0)
(0.000159029 -1.23159e-05 0)
(0.000163275 -1.20656e-05 0)
(0.000167433 -1.18027e-05 0)
(0.000171498 -1.15277e-05 0)
(0.000175466 -1.12413e-05 0)
(0.000179334 -1.09443e-05 0)
(0.000183096 -1.06373e-05 0)
(0.000186751 -1.03208e-05 0)
(0.000190295 -9.99539e-06 0)
(0.000193724 -9.66169e-06 0)
(0.000197036 -9.32022e-06 0)
(0.000200228 -8.97148e-06 0)
(0.000203298 -8.61598e-06 0)
(0.000206243 -8.25417e-06 0)
(0.000209062 -7.8864e-06 0)
(0.000211751 -7.51309e-06 0)
(0.000214309 -7.13472e-06 0)
(0.000216735 -6.75173e-06 0)
(0.000219026 -6.36438e-06 0)
(0.000221182 -5.97295e-06 0)
(0.0002232 -5.57784e-06 0)
(0.00022508 -5.17941e-06 0)
(0.000226821 -4.77791e-06 0)
(0.000228421 -4.37357e-06 0)
(0.000229879 -3.96671e-06 0)
(0.000231194 -3.55765e-06 0)
(0.000232367 -3.14663e-06 0)
(0.000233395 -2.73382e-06 0)
(0.000234279 -2.31946e-06 0)
(0.000235018 -1.90382e-06 0)
(0.000235611 -1.48715e-06 0)
(0.000236058 -1.06965e-06 0)
(0.00023636 -6.51501e-07 0)
(0.000236515 -2.32899e-07 0)
(0.000236523 1.85929e-07 0)
(0.000236386 6.04753e-07 0)
(0.000236101 1.02334e-06 0)
(0.000235671 1.44148e-06 0)
(0.000235094 1.859e-06 0)
(0.000234372 2.27563e-06 0)
(0.000233504 2.69112e-06 0)
(0.000232491 3.10528e-06 0)
(0.000231333 3.51792e-06 0)
(0.000230032 3.92876e-06 0)
(0.000228588 4.3375e-06 0)
(0.000227002 4.74389e-06 0)
(0.000225273 5.14765e-06 0)
(0.000223405 5.54843e-06 0)
(0.000221397 5.94593e-06 0)
(0.000219251 6.33987e-06 0)
(0.000216969 6.72996e-06 0)
(0.000214551 7.1158e-06 0)
(0.000212 7.49699e-06 0)
(0.000209316 7.87312e-06 0)
(0.000206503 8.24378e-06 0)
(0.000203562 8.60858e-06 0)
(0.000200495 8.96705e-06 0)
(0.000197304 9.31873e-06 0)
(0.000193993 9.66316e-06 0)
(0.000190563 9.99978e-06 0)
(0.000187018 1.0328e-05 0)
(0.000183361 1.06472e-05 0)
(0.000179595 1.0957e-05 0)
(0.000175723 1.12567e-05 0)
(0.00017175 1.15456e-05 0)
(0.000167678 1.1823e-05 0)
(0.000163513 1.20882e-05 0)
(0.000159259 1.23406e-05 0)
(0.00015492 1.25795e-05 0)
(0.000150502 1.28039e-05 0)
(0.000146009 1.30131e-05 0)
(0.000141447 1.32062e-05 0)
(0.000136821 1.33825e-05 0)
(0.000132139 1.35411e-05 0)
(0.000127406 1.36809e-05 0)
(0.000122628 1.3801e-05 0)
(0.000117814 1.39007e-05 0)
(0.000112969 1.39788e-05 0)
(0.000108102 1.40341e-05 0)
(0.000103221 1.40657e-05 0)
(9.83344e-05 1.40727e-05 0)
(9.34501e-05 1.40541e-05 0)
(8.85777e-05 1.40086e-05 0)
(8.37264e-05 1.3935e-05 0)
(7.89058e-05 1.38322e-05 0)
(7.41261e-05 1.36993e-05 0)
(6.93976e-05 1.35351e-05 0)
(6.47313e-05 1.33385e-05 0)
(6.01379e-05 1.31084e-05 0)
(5.56289e-05 1.28437e-05 0)
(5.1216e-05 1.25435e-05 0)
(4.6911e-05 1.22067e-05 0)
(4.27259e-05 1.18327e-05 0)
(3.8673e-05 1.14206e-05 0)
(3.47648e-05 1.09698e-05 0)
(3.10137e-05 1.04798e-05 0)
(2.74321e-05 9.95076e-06 0)
(2.40323e-05 9.38277e-06 0)
(2.08263e-05 8.77635e-06 0)
(1.78256e-05 8.13257e-06 0)
(1.50409e-05 7.45327e-06 0)
(1.24824e-05 6.74117e-06 0)
(1.01589e-05 6.00006e-06 0)
(8.07764e-06 5.23514e-06 0)
(6.24415e-06 4.45335e-06 0)
(4.66147e-06 3.66401e-06 0)
(3.32922e-06 2.87981e-06 0)
(2.24316e-06 2.11721e-06 0)
(1.39512e-06 1.39795e-06 0)
(7.71292e-07 7.49215e-07 0)
(3.51413e-07 2.08002e-07 0)
(1.07293e-07 -1.8119e-07 0)
(1.90284e-09 -3.59618e-07 0)
(-1.0568e-08 -2.50783e-07 0)
(3.40947e-10 2.33791e-07 0)
(6.74107e-08 2.50699e-07 0)
(2.83032e-07 -6.83651e-08 0)
(6.78698e-07 -6.36578e-07 0)
(1.28605e-06 -1.3873e-06 0)
(2.13058e-06 -2.26687e-06 0)
(3.23058e-06 -3.23309e-06 0)
(4.59791e-06 -4.2528e-06 0)
(6.24015e-06 -5.29982e-06 0)
(8.16116e-06 -6.35309e-06 0)
(1.03606e-05 -7.3966e-06 0)
(1.28348e-05 -8.41873e-06 0)
(1.55776e-05 -9.41024e-06 0)
(1.85814e-05 -1.0364e-05 0)
(2.18367e-05 -1.12748e-05 0)
(2.53323e-05 -1.2139e-05 0)
(2.90564e-05 -1.29541e-05 0)
(3.29967e-05 -1.37183e-05 0)
(3.71399e-05 -1.44308e-05 0)
(4.14725e-05 -1.5091e-05 0)
(4.59809e-05 -1.56991e-05 0)
(5.06512e-05 -1.62556e-05 0)
(5.54698e-05 -1.67611e-05 0)
(6.04232e-05 -1.72164e-05 0)
(6.54981e-05 -1.76225e-05 0)
(7.0681e-05 -1.79806e-05 0)
(7.59588e-05 -1.82922e-05 0)
(8.13186e-05 -1.85586e-05 0)
(8.67482e-05 -1.87813e-05 0)
(9.22355e-05 -1.89616e-05 0)
(9.77689e-05 -1.9101e-05 0)
(0.000103337 -1.9201e-05 0)
(0.000108929 -1.92631e-05 0)
(0.000114534 -1.92886e-05 0)
(0.000120143 -1.92792e-05 0)
(0.000125744 -1.92364e-05 0)
(0.000131329 -1.91616e-05 0)
(0.000136889 -1.90559e-05 0)
(0.000142415 -1.89209e-05 0)
(0.000147899 -1.87579e-05 0)
(0.000153333 -1.85683e-05 0)
(0.000158708 -1.83532e-05 0)
(0.00016402 -1.8114e-05 0)
(0.000169259 -1.78517e-05 0)
(0.00017442 -1.75675e-05 0)
(0.000179497 -1.72626e-05 0)
(0.000184483 -1.69381e-05 0)
(0.000189372 -1.65952e-05 0)
(0.00019416 -1.62347e-05 0)
(0.000198842 -1.58575e-05 0)
(0.000203412 -1.54647e-05 0)
(0.000207867 -1.50571e-05 0)
(0.000212201 -1.46357e-05 0)
(0.000216411 -1.42012e-05 0)
(0.000220494 -1.37543e-05 0)
(0.000224445 -1.3296e-05 0)
(0.000228262 -1.28268e-05 0)
(0.00023194 -1.23477e-05 0)
(0.000235478 -1.1859e-05 0)
(0.000238872 -1.13616e-05 0)
(0.000242121 -1.08559e-05 0)
(0.000245221 -1.03426e-05 0)
(0.00024817 -9.82224e-06 0)
(0.000250966 -9.29535e-06 0)
(0.000253608 -8.76243e-06 0)
(0.000256093 -8.22392e-06 0)
(0.00025842 -7.68024e-06 0)
(0.000260588 -7.13189e-06 0)
(0.000262595 -6.57925e-06 0)
(0.00026444 -6.02272e-06 0)
(0.000266121 -5.46267e-06 0)
(0.000267639 -4.89952e-06 0)