/*--------------------------------*- C++ -*----------------------------------*\
  =========                 |
  \\      /  F ield         | OpenFOAM: The Open Source CFD Toolbox
   \\    /   O peration     | Website:  https://openfoam.org
    \\  /    A nd           | Version:  7
     \\/     M anipulation  |
\*---------------------------------------------------------------------------*/
FoamFile
{
    version     2.0;
    format      ascii;
    class       volVectorField;
    location    "0.1375";
    object      U;
}
// * * * * * * * * * * * * * * * * * * * * * * * * * * * * * * * * * * * * * //

dimensions      [0 1 -1 0 0 0 0];

internalField   nonuniform List<vector> 
51200
(
(1.52421e-08 1.81185e-08 0)
(5.14067e-08 -1.35158e-08 0)
(1.34392e-07 -4.36068e-08 0)
(2.69422e-07 -5.26511e-08 0)
(4.17543e-07 -4.9031e-08 0)
(5.50833e-07 -4.15756e-08 0)
(6.62208e-07 -3.42295e-08 0)
(7.4596e-07 -2.50574e-08 0)
(8.0216e-07 -1.73154e-08 0)
(8.30048e-07 -9.90517e-09 0)
(8.30128e-07 -2.18908e-09 0)
(8.01258e-07 5.67527e-09 0)
(7.44565e-07 1.4394e-08 0)
(6.60205e-07 2.26099e-08 0)
(5.4813e-07 3.01213e-08 0)
(4.10379e-07 3.7596e-08 0)
(2.45828e-07 4.55627e-08 0)
(5.52789e-08 5.32392e-08 0)
(-1.58418e-07 6.07394e-08 0)
(-3.95741e-07 6.80925e-08 0)
(-6.5602e-07 7.50057e-08 0)
(-9.36701e-07 8.16246e-08 0)
(-1.23769e-06 8.78793e-08 0)
(-1.55797e-06 9.33541e-08 0)
(-1.89497e-06 9.85121e-08 0)
(-2.24802e-06 1.0374e-07 0)
(-2.61676e-06 1.08251e-07 0)
(-2.99925e-06 1.1145e-07 0)
(-3.39396e-06 1.13081e-07 0)
(-3.79978e-06 1.13152e-07 0)
(-4.21523e-06 1.13352e-07 0)
(-4.63917e-06 1.15696e-07 0)
(-5.07093e-06 1.20066e-07 0)
(-5.50968e-06 1.24926e-07 0)
(-5.95401e-06 1.28618e-07 0)
(-6.40235e-06 1.29843e-07 0)
(-6.85343e-06 1.28671e-07 0)
(-7.30609e-06 1.26781e-07 0)
(-7.75943e-06 1.25751e-07 0)
(-8.21273e-06 1.25702e-07 0)
(-8.66488e-06 1.25908e-07 0)
(-9.11489e-06 1.25933e-07 0)
(-9.56224e-06 1.25409e-07 0)
(-1.0006e-05 1.24105e-07 0)
(-1.04451e-05 1.22277e-07 0)
(-1.08789e-05 1.20322e-07 0)
(-1.13068e-05 1.18361e-07 0)
(-1.1728e-05 1.16413e-07 0)
(-1.21419e-05 1.14425e-07 0)
(-1.25479e-05 1.12203e-07 0)
(-1.29455e-05 1.09769e-07 0)
(-1.33341e-05 1.07272e-07 0)
(-1.37134e-05 1.04515e-07 0)
(-1.40826e-05 1.01269e-07 0)
(-1.44414e-05 9.78125e-08 0)
(-1.47894e-05 9.45814e-08 0)
(-1.51263e-05 9.16476e-08 0)
(-1.54518e-05 8.88074e-08 0)
(-1.57652e-05 8.5834e-08 0)
(-1.60663e-05 8.24882e-08 0)
(-1.63547e-05 7.86176e-08 0)
(-1.66302e-05 7.44562e-08 0)
(-1.68923e-05 7.05056e-08 0)
(-1.71408e-05 6.69621e-08 0)
(-1.73757e-05 6.35677e-08 0)
(-1.75969e-05 5.99565e-08 0)
(-1.78039e-05 5.58906e-08 0)
(-1.79965e-05 5.1416e-08 0)
(-1.81745e-05 4.68905e-08 0)
(-1.83379e-05 4.2699e-08 0)
(-1.84864e-05 3.89687e-08 0)
(-1.86202e-05 3.53766e-08 0)
(-1.87389e-05 3.13352e-08 0)
(-1.88424e-05 2.67078e-08 0)
(-1.89305e-05 2.19452e-08 0)
(-1.90032e-05 1.7431e-08 0)
(-1.90604e-05 1.32126e-08 0)
(-1.91019e-05 9.14784e-09 0)
(-1.91278e-05 5.00895e-09 0)
(-1.91382e-05 6.45684e-10 0)
(-1.9133e-05 -3.94798e-09 0)
(-1.91122e-05 -8.65167e-09 0)
(-1.90756e-05 -1.32012e-08 0)
(-1.90235e-05 -1.73988e-08 0)
(-1.8956e-05 -2.13909e-08 0)
(-1.88732e-05 -2.55568e-08 0)
(-1.87751e-05 -3.00807e-08 0)
(-1.86616e-05 -3.46776e-08 0)
(-1.85329e-05 -3.88583e-08 0)
(-1.83896e-05 -4.25027e-08 0)
(-1.82318e-05 -4.6037e-08 0)
(-1.80595e-05 -4.99463e-08 0)
(-1.78729e-05 -5.42101e-08 0)
(-1.76722e-05 -5.83991e-08 0)
(-1.74576e-05 -6.22424e-08 0)
(-1.72291e-05 -6.5891e-08 0)
(-1.69867e-05 -6.96492e-08 0)
(-1.67306e-05 -7.35492e-08 0)
(-1.64611e-05 -7.73176e-08 0)
(-1.61786e-05 -8.08228e-08 0)
(-1.58834e-05 -8.42904e-08 0)
(-1.55756e-05 -8.79276e-08 0)
(-1.52556e-05 -9.15865e-08 0)
(-1.49241e-05 -9.49321e-08 0)
(-1.45815e-05 -9.7848e-08 0)
(-1.42281e-05 -1.00543e-07 0)
(-1.38644e-05 -1.03216e-07 0)
(-1.34909e-05 -1.05831e-07 0)
(-1.3108e-05 -1.08354e-07 0)
(-1.27163e-05 -1.10884e-07 0)
(-1.23161e-05 -1.13404e-07 0)
(-1.19081e-05 -1.15615e-07 0)
(-1.14932e-05 -1.17229e-07 0)
(-1.1072e-05 -1.18372e-07 0)
(-1.06452e-05 -1.19544e-07 0)
(-1.02132e-05 -1.21048e-07 0)
(-9.77662e-06 -1.22616e-07 0)
(-9.33634e-06 -1.23781e-07 0)
(-8.89314e-06 -1.24438e-07 0)
(-8.44773e-06 -1.24809e-07 0)
(-8.00089e-06 -1.25015e-07 0)
(-7.55361e-06 -1.24952e-07 0)
(-7.10698e-06 -1.24554e-07 0)
(-6.66203e-06 -1.23958e-07 0)
(-6.21966e-06 -1.23269e-07 0)
(-5.78091e-06 -1.22265e-07 0)
(-5.34705e-06 -1.20604e-07 0)
(-4.91932e-06 -1.18321e-07 0)
(-4.4987e-06 -1.15852e-07 0)
(-4.08612e-06 -1.13457e-07 0)
(-3.68272e-06 -1.10856e-07 0)
(-3.28984e-06 -1.07617e-07 0)
(-2.9088e-06 -1.0377e-07 0)
(-2.54063e-06 -9.9762e-08 0)
(-2.18633e-06 -9.58161e-08 0)
(-1.8471e-06 -9.15766e-08 0)
(-1.52437e-06 -8.65627e-08 0)
(-1.21954e-06 -8.08347e-08 0)
(-9.33699e-07 -7.49169e-08 0)
(-6.67901e-07 -6.90951e-08 0)
(-4.23306e-07 -6.30879e-08 0)
(-2.01146e-07 -5.6474e-08 0)
(-2.50003e-09 -4.92354e-08 0)
(1.71802e-07 -4.16867e-08 0)
(3.2098e-07 -3.40213e-08 0)
(4.44217e-07 -2.62154e-08 0)
(5.40886e-07 -1.82482e-08 0)
(6.10673e-07 -1.02129e-08 0)
(6.53607e-07 -2.22727e-09 0)
(6.70027e-07 5.77693e-09 0)
(6.60471e-07 1.389e-08 0)
(6.26019e-07 2.1736e-08 0)
(5.68699e-07 2.86746e-08 0)
(4.91422e-07 3.42995e-08 0)
(3.98334e-07 3.83028e-08 0)
(2.95366e-07 4.01241e-08 0)
(1.90639e-07 3.85002e-08 0)
(9.54691e-08 3.1415e-08 0)
(2.5525e-08 1.72682e-08 0)
(-1.50202e-10 -4.54234e-10 0)
(1.99124e-08 5.51919e-09 0)
(9.99863e-08 -1.00618e-07 0)
(2.86742e-07 -2.20369e-07 0)
(5.64618e-07 -2.70859e-07 0)
(8.73465e-07 -2.65767e-07 0)
(1.15855e-06 -2.29385e-07 0)
(1.39305e-06 -1.81091e-07 0)
(1.56485e-06 -1.28414e-07 0)
(1.66641e-06 -7.34138e-08 0)
(1.69617e-06 -1.89398e-08 0)
(1.6497e-06 3.537e-08 0)
(1.52778e-06 9.02687e-08 0)
(1.32899e-06 1.45224e-07 0)
(1.05296e-06 1.99315e-07 0)
(7.02272e-07 2.53125e-07 0)
(2.76599e-07 3.04689e-07 0)
(-2.22421e-07 3.54916e-07 0)
(-7.91856e-07 4.04364e-07 0)
(-1.43015e-06 4.51493e-07 0)
(-2.13449e-06 4.96377e-07 0)
(-2.90127e-06 5.3984e-07 0)
(-3.72811e-06 5.8075e-07 0)
(-4.61165e-06 6.18909e-07 0)
(-5.5481e-06 6.54772e-07 0)
(-6.53436e-06 6.88251e-07 0)
(-7.56707e-06 7.19269e-07 0)
(-8.64248e-06 7.48322e-07 0)
(-9.75698e-06 7.75166e-07 0)
(-1.09069e-05 7.988e-07 0)
(-1.20883e-05 8.18587e-07 0)
(-1.32981e-05 8.35251e-07 0)
(-1.45334e-05 8.50239e-07 0)
(-1.57909e-05 8.64206e-07 0)
(-1.70672e-05 8.7712e-07 0)
(-1.83587e-05 8.88386e-07 0)
(-1.96618e-05 8.96639e-07 0)
(-2.09731e-05 9.01118e-07 0)
(-2.22901e-05 9.02558e-07 0)
(-2.36101e-05 9.02126e-07 0)
(-2.49302e-05 9.0057e-07 0)
(-2.62475e-05 8.97818e-07 0)
(-2.75594e-05 8.93483e-07 0)
(-2.88635e-05 8.87442e-07 0)
(-3.01573e-05 8.79584e-07 0)
(-3.14383e-05 8.69819e-07 0)
(-3.27046e-05 8.58392e-07 0)
(-3.39539e-05 8.45673e-07 0)
(-3.51845e-05 8.3188e-07 0)
(-3.63942e-05 8.16965e-07 0)
(-3.75813e-05 8.00776e-07 0)
(-3.87442e-05 7.83417e-07 0)
(-3.98813e-05 7.65145e-07 0)
(-4.0991e-05 7.45988e-07 0)
(-4.20718e-05 7.2581e-07 0)
(-4.31224e-05 7.04607e-07 0)
(-4.41415e-05 6.82518e-07 0)
(-4.51281e-05 6.59725e-07 0)
(-4.60809e-05 6.36358e-07 0)
(-4.69987e-05 6.12383e-07 0)
(-4.78805e-05 5.87655e-07 0)
(-4.87252e-05 5.62064e-07 0)
(-4.95321e-05 5.35697e-07 0)
(-5.03003e-05 5.08859e-07 0)
(-5.10291e-05 4.8175e-07 0)
(-5.17179e-05 4.54318e-07 0)
(-5.23658e-05 4.26538e-07 0)
(-5.29721e-05 3.98334e-07 0)
(-5.35363e-05 3.69472e-07 0)
(-5.40579e-05 3.3998e-07 0)
(-5.45367e-05 3.10255e-07 0)
(-5.49722e-05 2.80633e-07 0)
(-5.53639e-05 2.51104e-07 0)
(-5.57113e-05 2.21284e-07 0)
(-5.60139e-05 1.90848e-07 0)
(-5.62719e-05 1.59956e-07 0)
(-5.6485e-05 1.28932e-07 0)
(-5.6653e-05 9.79433e-08 0)
(-5.67756e-05 6.70509e-08 0)
(-5.68525e-05 3.61452e-08 0)
(-5.68838e-05 5.0588e-09 0)
(-5.68697e-05 -2.61674e-08 0)
(-5.68103e-05 -5.73517e-08 0)
(-5.67055e-05 -8.83224e-08 0)
(-5.65553e-05 -1.19005e-07 0)
(-5.63599e-05 -1.49506e-07 0)
(-5.61198e-05 -1.80004e-07 0)
(-5.58348e-05 -2.1056e-07 0)
(-5.55053e-05 -2.41011e-07 0)
(-5.51315e-05 -2.71005e-07 0)
(-5.47142e-05 -3.00265e-07 0)
(-5.42539e-05 -3.28887e-07 0)
(-5.37509e-05 -3.57284e-07 0)
(-5.32055e-05 -3.85744e-07 0)
(-5.26183e-05 -4.14124e-07 0)
(-5.19898e-05 -4.4209e-07 0)
(-5.13207e-05 -4.69546e-07 0)
(-5.06113e-05 -4.96677e-07 0)
(-4.98624e-05 -5.23605e-07 0)
(-4.90749e-05 -5.50096e-07 0)
(-4.82495e-05 -5.75777e-07 0)
(-4.7387e-05 -6.00614e-07 0)
(-4.64882e-05 -6.24862e-07 0)
(-4.55543e-05 -6.48602e-07 0)
(-4.45866e-05 -6.71567e-07 0)
(-4.35863e-05 -6.93445e-07 0)
(-4.25543e-05 -7.1423e-07 0)
(-4.1492e-05 -7.34143e-07 0)
(-4.04009e-05 -7.53239e-07 0)
(-3.92826e-05 -7.71372e-07 0)
(-3.81385e-05 -7.88468e-07 0)
(-3.69698e-05 -8.04528e-07 0)
(-3.57783e-05 -8.19409e-07 0)
(-3.45661e-05 -8.32836e-07 0)
(-3.3335e-05 -8.44687e-07 0)
(-3.2087e-05 -8.55177e-07 0)
(-3.08239e-05 -8.64628e-07 0)
(-2.95477e-05 -8.73015e-07 0)
(-2.82607e-05 -8.79941e-07 0)
(-2.69651e-05 -8.85093e-07 0)
(-2.56633e-05 -8.8848e-07 0)
(-2.43577e-05 -8.90175e-07 0)
(-2.30511e-05 -8.90039e-07 0)
(-2.17463e-05 -8.87833e-07 0)
(-2.04461e-05 -8.83496e-07 0)
(-1.9153e-05 -8.77169e-07 0)
(-1.78703e-05 -8.68873e-07 0)
(-1.66013e-05 -8.58354e-07 0)
(-1.53494e-05 -8.4538e-07 0)
(-1.41175e-05 -8.30071e-07 0)
(-1.29086e-05 -8.12715e-07 0)
(-1.17259e-05 -7.93293e-07 0)
(-1.05731e-05 -7.71441e-07 0)
(-9.45354e-06 -7.46958e-07 0)
(-8.37067e-06 -7.20079e-07 0)
(-7.32782e-06 -6.91115e-07 0)
(-6.32855e-06 -6.59988e-07 0)
(-5.37646e-06 -6.26255e-07 0)
(-4.47494e-06 -5.89673e-07 0)
(-3.62707e-06 -5.50558e-07 0)
(-2.83596e-06 -5.09403e-07 0)
(-2.10492e-06 -4.66364e-07 0)
(-1.4372e-06 -4.21272e-07 0)
(-8.35642e-07 -3.74037e-07 0)
(-3.02527e-07 -3.24916e-07 0)
(1.60231e-07 -2.74313e-07 0)
(5.50946e-07 -2.22533e-07 0)
(8.68352e-07 -1.69931e-07 0)
(1.1119e-06 -1.17071e-07 0)
(1.28184e-06 -6.4636e-08 0)
(1.37932e-06 -1.32991e-08 0)
(1.40668e-06 3.62536e-08 0)
(1.36789e-06 8.29061e-08 0)
(1.26895e-06 1.24721e-07 0)
(1.11803e-06 1.59294e-07 0)
(9.26099e-07 1.83915e-07 0)
(7.07697e-07 1.95154e-07 0)
(4.81418e-07 1.88674e-07 0)
(2.70112e-07 1.59165e-07 0)
(1.03378e-07 1.02463e-07 0)
(1.78601e-08 2.59162e-08 0)
(1.79989e-08 -4.99982e-08 0)
(9.46712e-08 -2.44905e-07 0)
(2.95893e-07 -4.73488e-07 0)
(5.98284e-07 -6.00761e-07 0)
(9.42372e-07 -6.03696e-07 0)
(1.27272e-06 -5.29908e-07 0)
(1.54418e-06 -4.15941e-07 0)
(1.73281e-06 -2.82048e-07 0)
(1.82409e-06 -1.38092e-07 0)
(1.80713e-06 1.06318e-08 0)
(1.67834e-06 1.62508e-07 0)
(1.43215e-06 3.1587e-07 0)
(1.06676e-06 4.68703e-07 0)
(5.82367e-07 6.22231e-07 0)
(-2.18521e-08 7.7293e-07 0)
(-7.43184e-07 9.20573e-07 0)
(-1.57929e-06 1.0649e-06 0)
(-2.5286e-06 1.20423e-06 0)
(-3.58619e-06 1.33817e-06 0)
(-4.74812e-06 1.46714e-06 0)
(-6.01091e-06 1.58998e-06 0)
(-7.36861e-06 1.70627e-06 0)
(-8.81611e-06 1.81608e-06 0)
(-1.03489e-05 1.91869e-06 0)
(-1.19609e-05 2.01396e-06 0)
(-1.36466e-05 2.10243e-06 0)
(-1.5401e-05 2.18442e-06 0)
(-1.72187e-05 2.25995e-06 0)
(-1.90935e-05 2.32885e-06 0)
(-2.10195e-05 2.39036e-06 0)
(-2.29912e-05 2.44394e-06 0)
(-2.5003e-05 2.49002e-06 0)
(-2.70494e-05 2.52924e-06 0)
(-2.91259e-05 2.56217e-06 0)
(-3.12273e-05 2.58935e-06 0)
(-3.33478e-05 2.61072e-06 0)
(-3.54825e-05 2.62559e-06 0)
(-3.76266e-05 2.63387e-06 0)
(-3.97754e-05 2.6363e-06 0)
(-4.19247e-05 2.63328e-06 0)
(-4.40701e-05 2.62499e-06 0)
(-4.62069e-05 2.61169e-06 0)
(-4.83314e-05 2.59365e-06 0)
(-5.04396e-05 2.57092e-06 0)
(-5.25277e-05 2.54354e-06 0)
(-5.45921e-05 2.51177e-06 0)
(-5.66296e-05 2.47583e-06 0)
(-5.86368e-05 2.4361e-06 0)
(-6.06106e-05 2.39284e-06 0)
(-6.2548e-05 2.346e-06 0)
(-6.44462e-05 2.29575e-06 0)
(-6.63027e-05 2.24251e-06 0)
(-6.81149e-05 2.18653e-06 0)
(-6.98804e-05 2.12784e-06 0)
(-7.15968e-05 2.06651e-06 0)
(-7.32618e-05 2.00252e-06 0)
(-7.48735e-05 1.93596e-06 0)
(-7.64301e-05 1.86713e-06 0)
(-7.79299e-05 1.79629e-06 0)
(-7.93711e-05 1.72354e-06 0)
(-8.07521e-05 1.64889e-06 0)
(-8.20713e-05 1.57243e-06 0)
(-8.33272e-05 1.49432e-06 0)
(-8.45188e-05 1.41472e-06 0)
(-8.5645e-05 1.33377e-06 0)
(-8.67046e-05 1.25172e-06 0)
(-8.76965e-05 1.16869e-06 0)
(-8.86197e-05 1.08452e-06 0)
(-8.94731e-05 9.99056e-07 0)
(-9.02562e-05 9.12454e-07 0)
(-9.09684e-05 8.25144e-07 0)
(-9.16092e-05 7.37439e-07 0)
(-9.21778e-05 6.49223e-07 0)
(-9.26734e-05 5.60226e-07 0)
(-9.30958e-05 4.70462e-07 0)
(-9.34448e-05 3.80139e-07 0)
(-9.37201e-05 2.89522e-07 0)
(-9.39214e-05 1.98865e-07 0)
(-9.40486e-05 1.08178e-07 0)
(-9.41015e-05 1.73437e-08 0)
(-9.40803e-05 -7.3582e-08 0)
(-9.39849e-05 -1.64408e-07 0)
(-9.38151e-05 -2.54967e-07 0)
(-9.35713e-05 -3.45178e-07 0)
(-9.32538e-05 -4.35036e-07 0)
(-9.28633e-05 -5.2451e-07 0)
(-9.23998e-05 -6.1353e-07 0)
(-9.18634e-05 -7.02006e-07 0)
(-9.12547e-05 -7.89753e-07 0)
(-9.05744e-05 -8.76501e-07 0)
(-8.98236e-05 -9.62086e-07 0)
(-8.90027e-05 -1.04661e-06 0)
(-8.81122e-05 -1.1303e-06 0)
(-8.71529e-05 -1.21321e-06 0)
(-8.6126e-05 -1.29515e-06 0)
(-8.50325e-05 -1.37588e-06 0)
(-8.38737e-05 -1.45538e-06 0)
(-8.26505e-05 -1.53368e-06 0)
(-8.13642e-05 -1.61055e-06 0)
(-8.00161e-05 -1.68559e-06 0)
(-7.86077e-05 -1.75855e-06 0)
(-7.71406e-05 -1.82946e-06 0)
(-7.56163e-05 -1.89836e-06 0)
(-7.40367e-05 -1.96505e-06 0)
(-7.24036e-05 -2.02922e-06 0)
(-7.0719e-05 -2.09072e-06 0)
(-6.89848e-05 -2.14961e-06 0)
(-6.72035e-05 -2.20584e-06 0)
(-6.53776e-05 -2.25911e-06 0)
(-6.35096e-05 -2.30917e-06 0)
(-6.16017e-05 -2.35591e-06 0)
(-5.96565e-05 -2.39927e-06 0)
(-5.7677e-05 -2.43904e-06 0)
(-5.56666e-05 -2.47494e-06 0)
(-5.36283e-05 -2.50682e-06 0)
(-5.15654e-05 -2.53471e-06 0)
(-4.94811e-05 -2.55856e-06 0)
(-4.7379e-05 -2.57807e-06 0)
(-4.5263e-05 -2.59288e-06 0)
(-4.31371e-05 -2.60281e-06 0)
(-4.10051e-05 -2.6077e-06 0)
(-3.88715e-05 -2.60729e-06 0)
(-3.67406e-05 -2.60117e-06 0)
(-3.4617e-05 -2.58907e-06 0)
(-3.25049e-05 -2.57097e-06 0)
(-3.04092e-05 -2.54691e-06 0)
(-2.83351e-05 -2.51673e-06 0)
(-2.62877e-05 -2.48013e-06 0)
(-2.42723e-05 -2.43696e-06 0)
(-2.22938e-05 -2.38726e-06 0)
(-2.03572e-05 -2.33104e-06 0)
(-1.84682e-05 -2.26808e-06 0)
(-1.66324e-05 -2.19812e-06 0)
(-1.48555e-05 -2.12119e-06 0)
(-1.31428e-05 -2.03751e-06 0)
(-1.14997e-05 -1.94717e-06 0)
(-9.93165e-06 -1.84998e-06 0)
(-8.44416e-06 -1.74573e-06 0)
(-7.04237e-06 -1.6346e-06 0)
(-5.73112e-06 -1.51708e-06 0)
(-4.51523e-06 -1.39366e-06 0)
(-3.39944e-06 -1.26466e-06 0)
(-2.38807e-06 -1.13043e-06 0)
(-1.48471e-06 -9.9152e-07 0)
(-6.92208e-07 -8.48692e-07 0)
(-1.28289e-08 -7.02895e-07 0)
(5.51813e-07 -5.55262e-07 0)
(1.00111e-06 -4.0727e-07 0)
(1.3359e-06 -2.60839e-07 0)
(1.55856e-06 -1.18145e-07 0)
(1.67309e-06 1.8376e-08 0)
(1.68579e-06 1.4555e-07 0)
(1.6059e-06 2.59045e-07 0)
(1.44586e-06 3.53308e-07 0)
(1.22179e-06 4.21591e-07 0)
(9.53955e-07 4.56058e-07 0)
(6.66862e-07 4.47827e-07 0)
(3.89567e-07 3.87644e-07 0)
(1.60485e-07 2.69122e-07 0)
(3.18872e-08 9.68449e-08 0)
(2.22538e-08 -1.03055e-07 0)
(1.00663e-07 -3.85298e-07 0)
(2.82106e-07 -7.1783e-07 0)
(5.53334e-07 -9.22922e-07 0)
(8.66414e-07 -9.43342e-07 0)
(1.16236e-06 -8.32397e-07 0)
(1.39794e-06 -6.43161e-07 0)
(1.53937e-06 -4.09184e-07 0)
(1.56109e-06 -1.50189e-07 0)
(1.44997e-06 1.25991e-07 0)
(1.19365e-06 4.11359e-07 0)
(7.86014e-07 7.01836e-07 0)
(2.24607e-07 9.95213e-07 0)
(-4.94739e-07 1.28759e-06 0)
(-1.37166e-06 1.57766e-06 0)
(-2.40326e-06 1.8631e-06 0)
(-3.58851e-06 2.14117e-06 0)
(-4.92319e-06 2.41112e-06 0)
(-6.40215e-06 2.67162e-06 0)
(-8.02102e-06 2.92115e-06 0)
(-9.77391e-06 3.15951e-06 0)
(-1.1654e-05 3.38588e-06 0)
(-1.36551e-05 3.59929e-06 0)
(-1.57704e-05 3.79966e-06 0)
(-1.79923e-05 3.98642e-06 0)
(-2.03133e-05 4.15909e-06 0)
(-2.27258e-05 4.31768e-06 0)
(-2.52228e-05 4.4628e-06 0)
(-2.77972e-05 4.59492e-06 0)
(-3.04417e-05 4.71391e-06 0)
(-3.31486e-05 4.81973e-06 0)
(-3.591e-05 4.91218e-06 0)
(-3.87179e-05 4.99065e-06 0)
(-4.15652e-05 5.05551e-06 0)
(-4.44452e-05 5.10798e-06 0)
(-4.73515e-05 5.1485e-06 0)
(-5.02779e-05 5.1772e-06 0)
(-5.32174e-05 5.19433e-06 0)
(-5.61635e-05 5.20017e-06 0)
(-5.91101e-05 5.19506e-06 0)
(-6.20512e-05 5.17959e-06 0)
(-6.49808e-05 5.15405e-06 0)
(-6.78935e-05 5.11879e-06 0)
(-7.07843e-05 5.07439e-06 0)
(-7.36479e-05 5.02118e-06 0)
(-7.64795e-05 4.95942e-06 0)
(-7.92745e-05 4.88958e-06 0)
(-8.20282e-05 4.81216e-06 0)
(-8.47364e-05 4.72748e-06 0)
(-8.73951e-05 4.63581e-06 0)
(-9.00002e-05 4.53743e-06 0)
(-9.25481e-05 4.43273e-06 0)
(-9.50355e-05 4.32218e-06 0)
(-9.74591e-05 4.20622e-06 0)
(-9.98157e-05 4.08516e-06 0)
(-0.000102102 3.95907e-06 0)
(-0.000104316 3.82805e-06 0)
(-0.000106454 3.69243e-06 0)
(-0.000108513 3.55254e-06 0)
(-0.000110493 3.40872e-06 0)
(-0.00011239 3.26132e-06 0)
(-0.000114202 3.11062e-06 0)
(-0.000115928 2.9567e-06 0)
(-0.000117566 2.79957e-06 0)
(-0.000119114 2.63948e-06 0)
(-0.00012057 2.47689e-06 0)
(-0.000121933 2.31222e-06 0)
(-0.000123202 2.14559e-06 0)
(-0.000124376 1.97694e-06 0)
(-0.000125453 1.80627e-06 0)
(-0.000126432 1.63375e-06 0)
(-0.000127313 1.4598e-06 0)
(-0.000128094 1.2848e-06 0)
(-0.000128776 1.10876e-06 0)
(-0.000129358 9.31646e-07 0)
(-0.000129839 7.53556e-07 0)
(-0.000130218 5.74732e-07 0)
(-0.000130495 3.95519e-07 0)
(-0.000130671 2.16095e-07 0)
(-0.000130745 3.64877e-08 0)
(-0.000130716 -1.43073e-07 0)
(-0.000130586 -3.22274e-07 0)
(-0.000130354 -5.01031e-07 0)
(-0.00013002 -6.79419e-07 0)
(-0.000129585 -8.57381e-07 0)
(-0.00012905 -1.03456e-06 0)
(-0.000128414 -1.21054e-06 0)
(-0.000127678 -1.38514e-06 0)
(-0.000126843 -1.55845e-06 0)
(-0.000125909 -1.73036e-06 0)
(-0.000124878 -1.90055e-06 0)
(-0.000123751 -2.06873e-06 0)
(-0.000122528 -2.23485e-06 0)
(-0.00012121 -2.399e-06 0)
(-0.0001198 -2.56109e-06 0)
(-0.000118298 -2.72083e-06 0)
(-0.000116706 -2.8779e-06 0)
(-0.000115026 -3.03215e-06 0)
(-0.000113259 -3.18341e-06 0)
(-0.000111408 -3.33134e-06 0)
(-0.000109473 -3.47551e-06 0)
(-0.000107459 -3.61566e-06 0)
(-0.000105366 -3.75162e-06 0)
(-0.000103197 -3.8832e-06 0)
(-0.000100954 -4.01001e-06 0)
(-9.8641e-05 -4.13172e-06 0)
(-9.62601e-05 -4.2482e-06 0)
(-9.38145e-05 -4.35935e-06 0)
(-9.13074e-05 -4.4648e-06 0)
(-8.87424e-05 -4.56399e-06 0)
(-8.61229e-05 -4.65646e-06 0)
(-8.34525e-05 -4.74205e-06 0)
(-8.07351e-05 -4.82068e-06 0)
(-7.79747e-05 -4.89206e-06 0)
(-7.5176e-05 -4.95567e-06 0)
(-7.23436e-05 -5.0111e-06 0)
(-6.9482e-05 -5.05809e-06 0)
(-6.6596e-05 -5.09636e-06 0)
(-6.36907e-05 -5.12542e-06 0)
(-6.07718e-05 -5.14484e-06 0)
(-5.78447e-05 -5.15427e-06 0)
(-5.4915e-05 -5.1534e-06 0)
(-5.19886e-05 -5.14173e-06 0)
(-4.90716e-05 -5.11865e-06 0)
(-4.61704e-05 -5.08378e-06 0)
(-4.32915e-05 -5.03702e-06 0)
(-4.04414e-05 -4.97834e-06 0)
(-3.76268e-05 -4.90745e-06 0)
(-3.4855e-05 -4.82384e-06 0)
(-3.2133e-05 -4.72721e-06 0)
(-2.94678e-05 -4.61752e-06 0)
(-2.68664e-05 -4.4948e-06 0)
(-2.43364e-05 -4.35884e-06 0)
(-2.18855e-05 -4.20938e-06 0)
(-1.9521e-05 -4.04641e-06 0)
(-1.72502e-05 -3.87016e-06 0)
(-1.50798e-05 -3.68089e-06 0)
(-1.3017e-05 -3.47866e-06 0)
(-1.10689e-05 -3.26358e-06 0)
(-9.24206e-06 -3.03615e-06 0)
(-7.5428e-06 -2.79721e-06 0)
(-5.97685e-06 -2.54771e-06 0)
(-4.54951e-06 -2.28861e-06 0)
(-3.26542e-06 -2.021e-06 0)
(-2.12831e-06 -1.74636e-06 0)
(-1.14094e-06 -1.46662e-06 0)
(-3.05019e-07 -1.18412e-06 0)
(3.7895e-07 -9.0154e-07 0)
(9.12229e-07 -6.22283e-07 0)
(1.29829e-06 -3.50627e-07 0)
(1.54284e-06 -9.15912e-08 0)
(1.65411e-06 1.4888e-07 0)
(1.64354e-06 3.63429e-07 0)
(1.52632e-06 5.42883e-07 0)
(1.32204e-06 6.7602e-07 0)
(1.05495e-06 7.49897e-07 0)
(7.5341e-07 7.50625e-07 0)
(4.50262e-07 6.64483e-07 0)
(1.90458e-07 4.80665e-07 0)
(3.92236e-08 1.93262e-07 0)
(2.96347e-08 -1.59545e-07 0)
(1.15228e-07 -5.19978e-07 0)
(2.85885e-07 -9.33241e-07 0)
(5.13774e-07 -1.19084e-06 0)
(7.60178e-07 -1.22123e-06 0)
(9.79059e-07 -1.06772e-06 0)
(1.12521e-06 -7.93951e-07 0)
(1.16135e-06 -4.46644e-07 0)
(1.06241e-06 -4.97155e-08 0)
(8.06128e-07 3.77359e-07 0)
(3.78624e-07 8.2512e-07 0)
(-2.28476e-07 1.28601e-06 0)
(-1.02218e-06 1.75217e-06 0)
(-2.00477e-06 2.21904e-06 0)
(-3.17736e-06 2.6834e-06 0)
(-4.5395e-06 3.14036e-06 0)
(-6.08744e-06 3.58726e-06 0)
(-7.81776e-06 4.02188e-06 0)
(-9.72527e-06 4.4413e-06 0)
(-1.18033e-05 4.84397e-06 0)
(-1.40456e-05 5.2287e-06 0)
(-1.64444e-05 5.59399e-06 0)
(-1.89915e-05 5.93882e-06 0)
(-2.16791e-05 6.26302e-06 0)
(-2.44987e-05 6.566e-06 0)
(-2.7441e-05 6.84711e-06 0)
(-3.04964e-05 7.10582e-06 0)
(-3.36557e-05 7.34179e-06 0)
(-3.69097e-05 7.55508e-06 0)
(-4.02496e-05 7.7463e-06 0)
(-4.36664e-05 7.91644e-06 0)
(-4.71515e-05 8.06585e-06 0)
(-5.06954e-05 8.19427e-06 0)
(-5.42884e-05 8.30164e-06 0)
(-5.79216e-05 8.38806e-06 0)
(-6.1587e-05 8.45397e-06 0)
(-6.52766e-05 8.50042e-06 0)
(-6.89823e-05 8.52823e-06 0)
(-7.26962e-05 8.53779e-06 0)
(-7.64107e-05 8.52984e-06 0)
(-8.01183e-05 8.50507e-06 0)
(-8.38117e-05 8.46391e-06 0)
(-8.74837e-05 8.40685e-06 0)
(-9.11279e-05 8.33455e-06 0)
(-9.47381e-05 8.2477e-06 0)
(-9.83081e-05 8.14697e-06 0)
(-0.000101832 8.0331e-06 0)
(-0.000105304 7.90666e-06 0)
(-0.000108719 7.76821e-06 0)
(-0.000112072 7.61842e-06 0)
(-0.000115358 7.45781e-06 0)
(-0.000118572 7.28673e-06 0)
(-0.000121709 7.1057e-06 0)
(-0.000124766 6.91537e-06 0)
(-0.000127739 6.71632e-06 0)
(-0.000130624 6.50912e-06 0)
(-0.000133417 6.29421e-06 0)
(-0.000136114 6.07191e-06 0)
(-0.000138714 5.84247e-06 0)
(-0.000141212 5.60633e-06 0)
(-0.000143607 5.36411e-06 0)
(-0.000145894 5.11634e-06 0)
(-0.000148073 4.86333e-06 0)
(-0.000150141 4.6054e-06 0)
(-0.000152095 4.34281e-06 0)
(-0.000153933 4.07583e-06 0)
(-0.000155654 3.80481e-06 0)
(-0.000157257 3.53026e-06 0)
(-0.000158739 3.25263e-06 0)
(-0.000160099 2.97218e-06 0)
(-0.000161337 2.68896e-06 0)
(-0.00016245 2.40314e-06 0)
(-0.000163437 2.1151e-06 0)
(-0.000164299 1.8252e-06 0)
(-0.000165034 1.53376e-06 0)
(-0.000165642 1.24111e-06 0)
(-0.000166121 9.47491e-07 0)
(-0.000166472 6.53078e-07 0)
(-0.000166695 3.5809e-07 0)
(-0.00016679 6.27454e-08 0)
(-0.000166755 -2.3257e-07 0)
(-0.000166591 -5.27395e-07 0)
(-0.000166299 -8.21486e-07 0)
(-0.000165879 -1.11479e-06 0)
(-0.000165331 -1.40725e-06 0)
(-0.000164655 -1.69855e-06 0)
(-0.000163852 -1.98817e-06 0)
(-0.000162924 -2.27566e-06 0)
(-0.000161871 -2.5608e-06 0)
(-0.000160693 -2.84355e-06 0)
(-0.000159392 -3.12372e-06 0)
(-0.00015797 -3.40095e-06 0)
(-0.000156426 -3.67481e-06 0)
(-0.000154764 -3.94508e-06 0)
(-0.000152984 -4.21165e-06 0)
(-0.000151089 -4.47433e-06 0)
(-0.00014908 -4.73266e-06 0)
(-0.00014696 -4.98609e-06 0)
(-0.000144731 -5.23425e-06 0)
(-0.000142395 -5.47688e-06 0)
(-0.000139954 -5.71364e-06 0)
(-0.000137411 -5.94401e-06 0)
(-0.00013477 -6.16746e-06 0)
(-0.000132034 -6.38355e-06 0)
(-0.000129204 -6.59192e-06 0)
(-0.000126286 -6.79209e-06 0)
(-0.000123282 -6.9836e-06 0)
(-0.000120197 -7.1661e-06 0)
(-0.000117034 -7.3392e-06 0)
(-0.000113798 -7.50231e-06 0)
(-0.000110494 -7.65467e-06 0)
(-0.000107125 -7.79564e-06 0)
(-0.000103697 -7.92487e-06 0)
(-0.000100215 -8.04207e-06 0)
(-9.6685e-05 -8.14672e-06 0)
(-9.3112e-05 -8.23808e-06 0)
(-8.95021e-05 -8.31546e-06 0)
(-8.58615e-05 -8.37831e-06 0)
(-8.21965e-05 -8.42609e-06 0)
(-7.85141e-05 -8.45812e-06 0)
(-7.48211e-05 -8.47372e-06 0)
(-7.11247e-05 -8.47234e-06 0)
(-6.7432e-05 -8.45344e-06 0)
(-6.37504e-05 -8.41642e-06 0)
(-6.00882e-05 -8.36053e-06 0)
(-5.64534e-05 -8.28522e-06 0)
(-5.28544e-05 -8.19019e-06 0)
(-4.92992e-05 -8.07523e-06 0)
(-4.57966e-05 -7.9399e-06 0)
(-4.23553e-05 -7.78361e-06 0)
(-3.89843e-05 -7.60596e-06 0)
(-3.56925e-05 -7.40691e-06 0)
(-3.24887e-05 -7.18649e-06 0)
(-2.93822e-05 -6.94461e-06 0)
(-2.63822e-05 -6.68105e-06 0)
(-2.34977e-05 -6.39584e-06 0)
(-2.07371e-05 -6.08942e-06 0)
(-1.81088e-05 -5.76237e-06 0)
(-1.56212e-05 -5.41527e-06 0)
(-1.32825e-05 -5.04882e-06 0)
(-1.11003e-05 -4.66409e-06 0)
(-9.08138e-06 -4.26253e-06 0)
(-7.23197e-06 -3.8459e-06 0)
(-5.55739e-06 -3.41621e-06 0)
(-4.06205e-06 -2.97591e-06 0)
(-2.74911e-06 -2.52813e-06 0)
(-1.6203e-06 -2.07668e-06 0)
(-6.75856e-07 -1.62597e-06 0)
(8.57801e-08 -1.18119e-06 0)
(6.68707e-07 -7.48779e-07 0)
(1.07984e-06 -3.36614e-07 0)
(1.32904e-06 4.59603e-08 0)
(1.42954e-06 3.87909e-07 0)
(1.39827e-06 6.76177e-07 0)
(1.25676e-06 8.95224e-07 0)
(1.03164e-06 1.02705e-06 0)
(7.53977e-07 1.05223e-06 0)
(4.59491e-07 9.51517e-07 0)
(1.97578e-07 7.07514e-07 0)
(4.13178e-08 2.99468e-07 0)
(3.37878e-08 -2.26737e-07 0)
(1.25967e-07 -6.59242e-07 0)
(2.81948e-07 -1.11893e-06 0)
(4.59869e-07 -1.39866e-06 0)
(6.24515e-07 -1.41055e-06 0)
(7.37732e-07 -1.19731e-06 0)
(7.5629e-07 -8.26289e-07 0)
(6.49405e-07 -3.45566e-07 0)
(3.85765e-07 2.06813e-07 0)
(-5.60523e-08 8.09229e-07 0)
(-6.91166e-07 1.44534e-06 0)
(-1.5336e-06 2.10265e-06 0)
(-2.58911e-06 2.77154e-06 0)
(-3.86149e-06 3.4439e-06 0)
(-5.35356e-06 4.11273e-06 0)
(-7.06366e-06 4.77296e-06 0)
(-8.98904e-06 5.41956e-06 0)
(-1.11261e-05 6.04862e-06 0)
(-1.34687e-05 6.65709e-06 0)
(-1.60098e-05 7.24181e-06 0)
(-1.87422e-05 7.80078e-06 0)
(-2.16573e-05 8.33217e-06 0)
(-2.47454e-05 8.83405e-06 0)
(-2.79973e-05 9.30549e-06 0)
(-3.14032e-05 9.74619e-06 0)
(-3.4953e-05 1.01556e-05 0)
(-3.8636e-05 1.05335e-05 0)
(-4.24414e-05 1.08793e-05 0)
(-4.63583e-05 1.11924e-05 0)
(-5.03753e-05 1.14729e-05 0)
(-5.44818e-05 1.17212e-05 0)
(-5.8668e-05 1.1938e-05 0)
(-6.29232e-05 1.21246e-05 0)
(-6.72366e-05 1.22812e-05 0)
(-7.15981e-05 1.24078e-05 0)
(-7.59972e-05 1.2505e-05 0)
(-8.04243e-05 1.25736e-05 0)
(-8.487e-05 1.26145e-05 0)
(-8.93249e-05 1.26285e-05 0)
(-9.378e-05 1.26167e-05 0)
(-9.82265e-05 1.258e-05 0)
(-0.000102656 1.25194e-05 0)
(-0.00010706 1.24356e-05 0)
(-0.00011143 1.23294e-05 0)
(-0.00011576 1.22017e-05 0)
(-0.000120042 1.20535e-05 0)
(-0.000124268 1.18859e-05 0)
(-0.000128432 1.16995e-05 0)
(-0.000132528 1.14952e-05 0)
(-0.00013655 1.12741e-05 0)
(-0.000140491 1.10369e-05 0)
(-0.000144346 1.07846e-05 0)
(-0.00014811 1.05176e-05 0)
(-0.000151778 1.02368e-05 0)
(-0.000155345 9.94278e-06 0)
(-0.000158806 9.63644e-06 0)
(-0.000162157 9.31857e-06 0)
(-0.000165394 8.98975e-06 0)
(-0.000168514 8.6506e-06 0)
(-0.000171512 8.30174e-06 0)
(-0.000174386 7.94374e-06 0)
(-0.000177132 7.57714e-06 0)
(-0.000179747 7.20254e-06 0)
(-0.000182229 6.82067e-06 0)
(-0.000184575 6.43218e-06 0)
(-0.000186782 6.03738e-06 0)
(-0.000188849 5.63656e-06 0)
(-0.000190773 5.23016e-06 0)
(-0.000192553 4.81885e-06 0)
(-0.000194187 4.40328e-06 0)
(-0.000195673 3.9839e-06 0)
(-0.00019701 3.56094e-06 0)
(-0.000198196 3.13468e-06 0)
(-0.000199232 2.70548e-06 0)
(-0.000200115 2.27388e-06 0)
(-0.000200845 1.84049e-06 0)
(-0.000201422 1.40571e-06 0)
(-0.000201845 9.69746e-07 0)
(-0.000202114 5.32975e-07 0)
(-0.000202228 9.58385e-08 0)
(-0.000202187 -3.41248e-07 0)
(-0.000201991 -7.77887e-07 0)
(-0.000201641 -1.2137e-06 0)
(-0.000201138 -1.64829e-06 0)
(-0.000200481 -2.08127e-06 0)
(-0.000199671 -2.51235e-06 0)
(-0.000198708 -2.94116e-06 0)
(-0.000197594 -3.36719e-06 0)
(-0.00019633 -3.78987e-06 0)
(-0.000194917 -4.20883e-06 0)
(-0.000193357 -4.62385e-06 0)
(-0.00019165 -5.03457e-06 0)
(-0.000189798 -5.44045e-06 0)
(-0.000187803 -5.84095e-06 0)
(-0.000185668 -6.23573e-06 0)
(-0.000183394 -6.62457e-06 0)
(-0.000180984 -7.00694e-06 0)
(-0.00017844 -7.38209e-06 0)
(-0.000175764 -7.74932e-06 0)
(-0.000172961 -8.10818e-06 0)
(-0.000170032 -8.45827e-06 0)
(-0.000166982 -8.79899e-06 0)
(-0.000163813 -9.12956e-06 0)
(-0.000160529 -9.44926e-06 0)
(-0.000157135 -9.75756e-06 0)
(-0.000153633 -1.00539e-05 0)
(-0.00015003 -1.03374e-05 0)
(-0.000146329 -1.06075e-05 0)
(-0.000142534 -1.08634e-05 0)
(-0.000138652 -1.11045e-05 0)
(-0.000134688 -1.133e-05 0)
(-0.000130646 -1.15389e-05 0)
(-0.000126534 -1.17305e-05 0)
(-0.000122358 -1.1904e-05 0)
(-0.000118123 -1.20588e-05 0)
(-0.000113837 -1.2194e-05 0)
(-0.000109506 -1.23086e-05 0)
(-0.000105139 -1.24018e-05 0)
(-0.000100742 -1.24727e-05 0)
(-9.63234e-05 -1.25205e-05 0)
(-9.18921e-05 -1.25442e-05 0)
(-8.74562e-05 -1.25428e-05 0)
(-8.30243e-05 -1.25155e-05 0)
(-7.86053e-05 -1.24617e-05 0)
(-7.42084e-05 -1.23806e-05 0)
(-6.98435e-05 -1.22712e-05 0)
(-6.55205e-05 -1.2133e-05 0)
(-6.12491e-05 -1.19653e-05 0)
(-5.70391e-05 -1.17677e-05 0)
(-5.2901e-05 -1.15397e-05 0)
(-4.88453e-05 -1.12808e-05 0)
(-4.48825e-05 -1.09904e-05 0)
(-4.10233e-05 -1.06687e-05 0)
(-3.7278e-05 -1.03158e-05 0)
(-3.36573e-05 -9.93171e-06 0)
(-3.01716e-05 -9.51643e-06 0)
(-2.6831e-05 -9.07034e-06 0)
(-2.36454e-05 -8.5943e-06 0)
(-2.06242e-05 -8.08943e-06 0)
(-1.77767e-05 -7.55706e-06 0)
(-1.51116e-05 -6.99875e-06 0)
(-1.26368e-05 -6.41653e-06 0)
(-1.03592e-05 -5.81296e-06 0)
(-8.28485e-06 -5.19111e-06 0)
(-6.41859e-06 -4.55466e-06 0)
(-4.76406e-06 -3.90805e-06 0)
(-3.32308e-06 -3.25677e-06 0)
(-2.09561e-06 -2.60733e-06 0)
(-1.07965e-06 -1.96718e-06 0)
(-2.70749e-07 -1.34518e-06 0)
(3.38609e-07 -7.51992e-07 0)
(7.5927e-07 -2.00377e-07 0)
(1.00571e-06 2.94623e-07 0)
(1.09618e-06 7.15605e-07 0)
(1.05324e-06 1.04254e-06 0)
(9.04741e-07 1.25247e-06 0)
(6.83399e-07 1.32032e-06 0)
(4.269e-07 1.22049e-06 0)
(1.87082e-07 9.27474e-07 0)
(3.97374e-08 4.04424e-07 0)
(3.20434e-08 -2.95092e-07 0)
(1.22561e-07 -7.91983e-07 0)
(2.52883e-07 -1.27016e-06 0)
(3.69499e-07 -1.53391e-06 0)
(4.3794e-07 -1.49593e-06 0)
(4.23491e-07 -1.19937e-06 0)
(2.93229e-07 -7.06326e-07 0)
(1.20988e-08 -7.49917e-08 0)
(-4.46605e-07 6.55373e-07 0)
(-1.10414e-06 1.45575e-06 0)
(-1.97939e-06 2.30328e-06 0)
(-3.08361e-06 3.1825e-06 0)
(-4.42619e-06 4.08006e-06 0)
(-6.01164e-06 4.98385e-06 0)
(-7.84158e-06 5.88526e-06 0)
(-9.91611e-06 6.77617e-06 0)
(-1.2232e-05 7.64971e-06 0)
(-1.47848e-05 8.5008e-06 0)
(-1.7569e-05 9.32465e-06 0)
(-2.05767e-05 1.01171e-05 0)
(-2.37995e-05 1.08756e-05 0)
(-2.72288e-05 1.15973e-05 0)
(-3.08538e-05 1.22799e-05 0)
(-3.46635e-05 1.29215e-05 0)
(-3.86472e-05 1.3521e-05 0)
(-4.27931e-05 1.40777e-05 0)
(-4.70895e-05 1.45911e-05 0)
(-5.15249e-05 1.50613e-05 0)
(-5.6087e-05 1.54882e-05 0)
(-6.07632e-05 1.58717e-05 0)
(-6.55412e-05 1.62113e-05 0)
(-7.04087e-05 1.65077e-05 0)
(-7.53539e-05 1.67619e-05 0)
(-8.03652e-05 1.69747e-05 0)
(-8.5431e-05 1.71468e-05 0)
(-9.05396e-05 1.72793e-05 0)
(-9.56796e-05 1.73728e-05 0)
(-0.00010084 1.74285e-05 0)
(-0.000106011 1.74475e-05 0)
(-0.000111181 1.7431e-05 0)
(-0.000116341 1.73801e-05 0)
(-0.000121481 1.72962e-05 0)
(-0.00012659 1.71805e-05 0)
(-0.000131662 1.70342e-05 0)
(-0.000136685 1.68584e-05 0)
(-0.000141653 1.66544e-05 0)
(-0.000146556 1.64235e-05 0)