/*--------------------------------*- C++ -*----------------------------------*\
  =========                 |
  \\      /  F ield         | OpenFOAM: The Open Source CFD Toolbox
   \\    /   O peration     | Website:  https://openfoam.org
    \\  /    A nd           | Version:  7
     \\/     M anipulation  |
\*---------------------------------------------------------------------------*/
FoamFile
{
    version     2.0;
    format      ascii;
    class       volVectorField;
    location    "0.3125";
    object      U;
}
// * * * * * * * * * * * * * * * * * * * * * * * * * * * * * * * * * * * * * //

dimensions      [0 1 -1 0 0 0 0];

internalField   nonuniform List<vector> 
12800
(
(3.2232e-06 -3.3989e-06 0)
(1.82679e-05 -9.84749e-06 0)
(4.43409e-05 -1.20675e-05 0)
(7.06931e-05 -1.11117e-05 0)
(9.07021e-05 -8.40096e-06 0)
(0.000101026 -4.80648e-06 0)
(9.98781e-05 -8.24377e-07 0)
(8.64235e-05 3.25248e-06 0)
(6.04648e-05 7.24972e-06 0)
(2.22219e-05 1.10684e-05 0)
(-2.78247e-05 1.46539e-05 0)
(-8.90302e-05 1.79761e-05 0)
(-0.000160646 2.10209e-05 0)
(-0.00024187 2.37867e-05 0)
(-0.000331883 2.62771e-05 0)
(-0.000429866 2.85008e-05 0)
(-0.000535019 3.04723e-05 0)
(-0.000646574 3.22075e-05 0)
(-0.000763805 3.37231e-05 0)
(-0.000886033 3.50366e-05 0)
(-0.00101263 3.61657e-05 0)
(-0.00114301 3.71284e-05 0)
(-0.00127665 3.79424e-05 0)
(-0.00141308 3.86243e-05 0)
(-0.00155188 3.91903e-05 0)
(-0.00169267 3.96557e-05 0)
(-0.00183513 4.00349e-05 0)
(-0.00197897 4.03411e-05 0)
(-0.00212396 4.0586e-05 0)
(-0.00226989 4.0781e-05 0)
(-0.00241659 4.09366e-05 0)
(-0.00256394 4.10623e-05 0)
(-0.00271182 4.11662e-05 0)
(-0.00286017 4.12555e-05 0)
(-0.00300893 4.1337e-05 0)
(-0.00315806 4.14167e-05 0)
(-0.00330756 4.14999e-05 0)
(-0.00345744 4.15908e-05 0)
(-0.00360771 4.1693e-05 0)
(-0.0037584 4.181e-05 0)
(-0.00390957 4.1945e-05 0)
(-0.00406127 4.21007e-05 0)
(-0.00421356 4.22789e-05 0)
(-0.00436651 4.24812e-05 0)
(-0.0045202 4.27091e-05 0)
(-0.00467471 4.29637e-05 0)
(-0.00483014 4.3246e-05 0)
(-0.00498656 4.35567e-05 0)
(-0.00514406 4.38963e-05 0)
(-0.00530275 4.42651e-05 0)
(-0.00546272 4.46633e-05 0)
(-0.00562405 4.50908e-05 0)
(-0.00578685 4.55472e-05 0)
(-0.00595121 4.60323e-05 0)
(-0.00611721 4.65458e-05 0)
(-0.00628496 4.70872e-05 0)
(-0.00645453 4.76557e-05 0)
(-0.00662601 4.82503e-05 0)
(-0.00679948 4.887e-05 0)
(-0.00697501 4.95134e-05 0)
(-0.00715268 5.01794e-05 0)
(-0.00733256 5.08663e-05 0)
(-0.0075147 5.15722e-05 0)
(-0.00769915 5.22951e-05 0)
(-0.00788595 5.30326e-05 0)
(-0.00807515 5.37824e-05 0)
(-0.00826676 5.45418e-05 0)
(-0.0084608 5.53078e-05 0)
(-0.00865728 5.6077e-05 0)
(-0.00885617 5.68455e-05 0)
(-0.00905747 5.76096e-05 0)
(-0.00926112 5.83647e-05 0)
(-0.00946708 5.91063e-05 0)
(-0.00967526 5.98292e-05 0)
(-0.00988559 6.05278e-05 0)
(-0.0100979 6.11962e-05 0)
(-0.0103122 6.18281e-05 0)
(-0.0105281 6.24168e-05 0)
(-0.0107457 6.29549e-05 0)
(-0.0109645 6.34348e-05 0)
(-0.0111845 6.38483e-05 0)
(-0.0114053 6.41867e-05 0)
(-0.0116267 6.44408e-05 0)
(-0.0118483 6.4601e-05 0)
(-0.0120697 6.46572e-05 0)
(-0.0122907 6.45988e-05 0)
(-0.0125106 6.44148e-05 0)
(-0.0127292 6.40939e-05 0)
(-0.0129458 6.36243e-05 0)
(-0.0131599 6.29937e-05 0)
(-0.0133709 6.21899e-05 0)
(-0.0135783 6.12001e-05 0)
(-0.0137813 6.00115e-05 0)
(-0.0139792 5.86114e-05 0)
(-0.0141713 5.69866e-05 0)
(-0.0143568 5.51243e-05 0)
(-0.0145348 5.30117e-05 0)
(-0.0147045 5.06364e-05 0)
(-0.014865 4.79866e-05 0)
(-0.0150154 4.50511e-05 0)
(-0.0151546 4.18195e-05 0)
(-0.0152817 3.82823e-05 0)
(-0.0153956 3.44313e-05 0)
(-0.0154953 3.02596e-05 0)
(-0.0155797 2.57618e-05 0)
(-0.0156478 2.09343e-05 0)
(-0.0156985 1.57759e-05 0)
(-0.0157307 1.02876e-05 0)
(-0.0157434 4.47289e-06 0)
(-0.0157355 -1.66154e-06 0)
(-0.015706 -8.10663e-06 0)
(-0.015654 -1.48496e-05 0)
(-0.0155786 -2.18741e-05 0)
(-0.0154789 -2.91602e-05 0)
(-0.0153542 -3.66838e-05 0)
(-0.0152038 -4.4417e-05 0)
(-0.0150271 -5.23273e-05 0)
(-0.0148237 -6.03786e-05 0)
(-0.0145932 -6.853e-05 0)
(-0.0143355 -7.67367e-05 0)
(-0.0140506 -8.49498e-05 0)
(-0.0137385 -9.31164e-05 0)
(-0.0133996 -0.00010118 0)
(-0.0130345 -0.00010908 0)
(-0.0126438 -0.000116754 0)
(-0.0122284 -0.000124138 0)
(-0.0117894 -0.000131163 0)
(-0.0113283 -0.000137762 0)
(-0.0108465 -0.000143866 0)
(-0.0103459 -0.000149407 0)
(-0.00982834 -0.000154318 0)
(-0.00929614 -0.000158535 0)
(-0.00875165 -0.000161994 0)
(-0.00819748 -0.000164638 0)
(-0.00763637 -0.000166414 0)
(-0.00707126 -0.000167274 0)
(-0.00650521 -0.000167176 0)
(-0.00594139 -0.000166086 0)
(-0.00538308 -0.000163976 0)
(-0.00483361 -0.000160828 0)
(-0.00429639 -0.000156631 0)
(-0.0037748 -0.000151382 0)
(-0.00327223 -0.000145086 0)
(-0.00279204 -0.000137758 0)
(-0.00233749 -0.000129419 0)
(-0.00191178 -0.000120096 0)
(-0.00151793 -0.000109825 0)
(-0.00115886 -9.86486e-05 0)
(-0.000837258 -8.66156e-05 0)
(-0.000555587 -7.37846e-05 0)
(-0.000316031 -6.02273e-05 0)
(-0.000120404 -4.60382e-05 0)
(2.99522e-05 -3.13541e-05 0)
(0.000134369 -1.63913e-05 0)
(0.000193176 -1.52519e-06 0)
(0.000208259 1.25509e-05 0)
(0.00018391 2.45622e-05 0)
(0.000128705 3.20483e-05 0)
(6.12768e-05 3.04258e-05 0)
(1.38718e-05 1.3893e-05 0)
(9.75867e-06 -1.8565e-05 0)
(4.19002e-05 -4.20316e-05 0)
(8.85633e-05 -4.81053e-05 0)
(0.000131014 -4.10764e-05 0)
(0.000156701 -2.5724e-05 0)
(0.000158232 -5.44735e-06 0)
(0.000131001 1.74645e-05 0)
(7.24281e-05 4.14757e-05 0)
(-1.8508e-05 6.55672e-05 0)
(-0.00014173 8.90683e-05 0)
(-0.000296398 0.000111539 0)
(-0.000481151 0.000132705 0)
(-0.000694278 0.0001524 0)
(-0.00093386 0.00017054 0)
(-0.00119786 0.000187095 0)
(-0.0014842 0.000202079 0)
(-0.00179081 0.000215538 0)
(-0.00211567 0.000227537 0)
(-0.00245685 0.000238158 0)
(-0.00281252 0.000247493 0)
(-0.00318097 0.000255639 0)
(-0.0035606 0.000262697 0)
(-0.00394996 0.000268768 0)
(-0.00434772 0.000273952 0)
(-0.00475269 0.000278348 0)
(-0.00516382 0.000282049 0)
(-0.00558016 0.000285145 0)
(-0.00600089 0.000287719 0)
(-0.00642531 0.000289851 0)
(-0.00685282 0.000291614 0)
(-0.00728292 0.000293075 0)
(-0.00771519 0.000294296 0)
(-0.00814932 0.000295334 0)
(-0.00858504 0.000296238 0)
(-0.00902219 0.000297055 0)
(-0.00946063 0.000297827 0)
(-0.00990032 0.000298588 0)
(-0.0103412 0.000299372 0)
(-0.0107834 0.000300206 0)
(-0.0112269 0.000301114 0)
(-0.0116718 0.000302119 0)
(-0.0121183 0.00030324 0)
(-0.0125665 0.00030449 0)
(-0.0130166 0.000305885 0)
(-0.0134688 0.000307434 0)
(-0.0139233 0.000309148 0)
(-0.0143804 0.000311033 0)
(-0.0148402 0.000313094 0)
(-0.0153031 0.000315336 0)
(-0.0157692 0.000317762 0)
(-0.0162389 0.000320373 0)
(-0.0167124 0.000323168 0)
(-0.0171899 0.000326147 0)
(-0.0176716 0.000329307 0)
(-0.0181579 0.000332645 0)
(-0.018649 0.000336157 0)
(-0.0191451 0.000339836 0)
(-0.0196464 0.000343676 0)
(-0.0201531 0.000347668 0)
(-0.0206654 0.000351804 0)
(-0.0211836 0.000356073 0)
(-0.0217078 0.000360461 0)
(-0.022238 0.000364956 0)
(-0.0227746 0.000369542 0)
(-0.0233174 0.000374203 0)
(-0.0238667 0.000378918 0)
(-0.0244225 0.000383669 0)
(-0.0249847 0.000388433 0)
(-0.0255534 0.000393184 0)
(-0.0261284 0.000397897 0)
(-0.0267098 0.000402542 0)
(-0.0272973 0.000407087 0)
(-0.0278907 0.0004115 0)
(-0.0284898 0.000415744 0)
(-0.0290943 0.000419779 0)
(-0.0297038 0.000423565 0)
(-0.0303179 0.000427056 0)
(-0.0309362 0.000430206 0)
(-0.031558 0.000432963 0)
(-0.0321827 0.000435276 0)
(-0.0328096 0.000437089 0)
(-0.0334379 0.000438341 0)
(-0.0340668 0.000438973 0)
(-0.0346952 0.000438918 0)
(-0.0353221 0.00043811 0)
(-0.0359464 0.000436479 0)
(-0.0365667 0.000433951 0)
(-0.0371817 0.000430454 0)
(-0.0377899 0.00042591 0)
(-0.0383898 0.000420241 0)
(-0.0389797 0.000413367 0)
(-0.0395577 0.000405208 0)
(-0.040122 0.000395683 0)
(-0.0406706 0.000384712 0)
(-0.0412012 0.000372215 0)
(-0.0417117 0.000358112 0)
(-0.0421998 0.000342327 0)
(-0.0426629 0.000324786 0)
(-0.0430986 0.000305421 0)
(-0.0435043 0.000284167 0)
(-0.0438772 0.000260966 0)
(-0.0442145 0.000235765 0)
(-0.0445135 0.000208523 0)
(-0.0447713 0.000179207 0)
(-0.0449849 0.000147794 0)
(-0.0451515 0.000114276 0)
(-0.0452682 7.86558e-05 0)
(-0.045332 4.09549e-05 0)
(-0.0453402 1.20982e-06 0)
(-0.04529 -4.05237e-05 0)
(-0.0451787 -8.41709e-05 0)
(-0.0450039 -0.000129636 0)
(-0.0447631 -0.0001768 0)
(-0.0444543 -0.000225522 0)
(-0.0440753 -0.000275635 0)
(-0.0436246 -0.000326948 0)
(-0.0431008 -0.000379245 0)
(-0.0425027 -0.000432283 0)
(-0.0418297 -0.000485794 0)
(-0.0410814 -0.000539486 0)
(-0.0402579 -0.000593041 0)
(-0.0393598 -0.000646119 0)
(-0.0383882 -0.000698359 0)
(-0.0373445 -0.000749381 0)
(-0.0362309 -0.000798788 0)
(-0.03505 -0.000846171 0)
(-0.033805 -0.000891109 0)
(-0.0324997 -0.00093318 0)
(-0.0311386 -0.000971956 0)
(-0.0297264 -0.00100702 0)
(-0.0282688 -0.00103795 0)
(-0.0267717 -0.00106435 0)
(-0.0252419 -0.00108584 0)
(-0.0236863 -0.00110207 0)
(-0.0221126 -0.0011127 0)
(-0.0205286 -0.00111746 0)
(-0.0189427 -0.00111608 0)
(-0.0173636 -0.00110837 0)
(-0.0158002 -0.00109416 0)
(-0.0142614 -0.00107335 0)
(-0.0127564 -0.00104587 0)
(-0.0112945 -0.00101174 0)
(-0.00988469 -0.000970997 0)
(-0.00853604 -0.000923766 0)
(-0.0072573 -0.000870214 0)
(-0.00605696 -0.000810572 0)
(-0.00494306 -0.00074513 0)
(-0.00392318 -0.000674249 0)
(-0.00300425 -0.000598367 0)
(-0.00219244 -0.000518025 0)
(-0.00149297 -0.000433898 0)
(-0.000909838 -0.000346866 0)
(-0.00044549 -0.000258121 0)
(-0.000100262 -0.000169358 0)
(0.000128406 -8.31142e-05 0)
(0.000247166 -3.31977e-06 0)
(0.000268249 6.38005e-05 0)
(0.000211936 0.000108257 0)
(0.000114029 0.00011428 0)
(3.02421e-05 6.11564e-05 0)
(1.21131e-05 -4.45723e-05 0)
(4.83161e-05 -8.87473e-05 0)
(9.51935e-05 -9.4892e-05 0)
(0.000129898 -7.28246e-05 0)
(0.000137205 -3.14824e-05 0)
(0.000107644 2.21737e-05 0)
(3.48854e-05 8.29904e-05 0)
(-8.48583e-05 0.000147262 0)
(-0.000253322 0.000212357 0)
(-0.000470691 0.000276432 0)
(-0.000736013 0.000338219 0)
(-0.00104752 0.000396867 0)
(-0.00140288 0.000451829 0)
(-0.00179937 0.000502786 0)
(-0.00223407 0.00054959 0)
(-0.00270392 0.000592215 0)
(-0.00320586 0.000630732 0)
(-0.00373685 0.000665279 0)
(-0.00429396 0.000696046 0)
(-0.00487441 0.000723254 0)
(-0.00547555 0.000747151 0)
(-0.00609491 0.000767999 0)
(-0.00673023 0.000786062 0)
(-0.00737943 0.000801609 0)
(-0.00804062 0.000814901 0)
(-0.00871212 0.000826194 0)
(-0.00939243 0.000835735 0)
(-0.0100802 0.000843754 0)
(-0.0107744 0.000850471 0)
(-0.0114739 0.000856091 0)
(-0.0121779 0.000860805 0)
(-0.0128858 0.000864786 0)
(-0.0135969 0.000868194 0)
(-0.0143109 0.000871175 0)
(-0.0150275 0.00087386 0)
(-0.0157463 0.000876368 0)
(-0.0164674 0.000878805 0)
(-0.0171905 0.000881263 0)
(-0.0179158 0.000883827 0)
(-0.0186433 0.000886568 0)
(-0.0193732 0.00088955 0)
(-0.0201056 0.000892828 0)
(-0.0208407 0.000896449 0)
(-0.0215789 0.000900453 0)
(-0.0223204 0.000904873 0)
(-0.0230656 0.000909737 0)
(-0.0238147 0.000915067 0)
(-0.0245682 0.00092088 0)
(-0.0253264 0.000927188 0)
(-0.0260897 0.000934 0)
(-0.0268585 0.00094132 0)
(-0.0276331 0.000949148 0)
(-0.0284139 0.000957481 0)
(-0.0292014 0.000966313 0)
(-0.0299959 0.000975632 0)
(-0.0307978 0.000985426 0)
(-0.0316073 0.000995676 0)
(-0.032425 0.00100636 0)
(-0.0332509 0.00101746 0)
(-0.0340856 0.00102894 0)
(-0.0349291 0.00104077 0)
(-0.0357818 0.00105291 0)
(-0.0366439 0.00106532 0)
(-0.0375154 0.00107796 0)
(-0.0383967 0.00109078 0)
(-0.0392876 0.00110371 0)
(-0.0401884 0.0011167 0)
(-0.0410989 0.00112968 0)
(-0.042019 0.00114258 0)
(-0.0429487 0.00115532 0)
(-0.0438877 0.00116781 0)
(-0.0448357 0.00117996 0)
(-0.0457924 0.00119167 0)
(-0.0467574 0.00120284 0)
(-0.0477301 0.00121335 0)
(-0.0487098 0.00122308 0)
(-0.0496959 0.00123191 0)
(-0.0506875 0.00123969 0)
(-0.0516837 0.00124628 0)
(-0.0526833 0.00125152 0)
(-0.0536853 0.00125527 0)
(-0.0546882 0.00125734 0)
(-0.0556907 0.00125757 0)
(-0.0566911 0.00125577 0)
(-0.0576876 0.00125174 0)
(-0.0586785 0.0012453 0)
(-0.0596615 0.00123623 0)
(-0.0606346 0.00122434 0)
(-0.0615952 0.0012094 0)
(-0.0625409 0.00119119 0)
(-0.063469 0.0011695 0)
(-0.0643765 0.00114411 0)
(-0.0652605 0.00111479 0)
(-0.0661176 0.00108132 0)
(-0.0669445 0.00104348 0)
(-0.0677377 0.00100107 0)
(-0.0684934 0.000953874 0)
(-0.0692078 0.000901699 0)
(-0.069877 0.000844362 0)
(-0.0704967 0.000781696 0)
(-0.0710628 0.000713551 0)
(-0.071571 0.000639799 0)
(-0.0720169 0.000560338 0)
(-0.072396 0.000475091 0)
(-0.0727038 0.000384016 0)
(-0.0729359 0.000287105 0)
(-0.0730879 0.000184391 0)
(-0.0731552 7.59496e-05 0)
(-0.0731336 -3.80956e-05 0)
(-0.073019 -0.00015757 0)
(-0.0728074 -0.000282245 0)
(-0.0724949 -0.000411832 0)
(-0.072078 -0.000545983 0)
(-0.0715535 -0.000684286 0)
(-0.0709187 -0.000826261 0)
(-0.0701709 -0.000971361 0)
(-0.0693083 -0.00111897 0)
(-0.0683294 -0.00126841 0)
(-0.0672332 -0.00141891 0)
(-0.0660195 -0.00156967 0)
(-0.0646886 -0.00171979 0)
(-0.0632415 -0.00186834 0)
(-0.0616801 -0.0020143 0)
(-0.060007 -0.00215664 0)
(-0.0582255 -0.00229426 0)
(-0.05634 -0.00242603 0)
(-0.0543555 -0.0025508 0)
(-0.052278 -0.00266742 0)
(-0.0501144 -0.00277472 0)
(-0.0478725 -0.00287155 0)
(-0.0455608 -0.00295678 0)
(-0.0431888 -0.00302933 0)
(-0.0407667 -0.00308817 0)
(-0.0383054 -0.00313233 0)
(-0.0358167 -0.00316094 0)
(-0.0333128 -0.00317321 0)
(-0.0308065 -0.00316846 0)
(-0.0283113 -0.00314614 0)
(-0.0258406 -0.00310584 0)
(-0.0234084 -0.00304726 0)
(-0.0210288 -0.00297028 0)
(-0.0187157 -0.00287492 0)
(-0.0164833 -0.00276137 0)
(-0.0143452 -0.00262997 0)
(-0.0123148 -0.00248126 0)
(-0.0104049 -0.00231593 0)
(-0.00862774 -0.00213489 0)
(-0.00699456 -0.00193926 0)
(-0.00551566 -0.00173042 0)
(-0.00419997 -0.00151006 0)
(-0.00305485 -0.00128033 0)
(-0.00208562 -0.00104396 0)
(-0.0012951 -0.000804556 0)
(-0.000682811 -0.000567035 0)
(-0.000244013 -0.00033829 0)
(3.16588e-05 -0.000128201 0)
(0.0001617 4.88528e-05 0)
(0.000172872 0.000172105 0)
(0.000108117 0.000212082 0)
(3.17405e-05 0.000128176 0)
(1.13205e-05 -7.11778e-05 0)
(4.17078e-05 -0.000131497 0)
(7.36356e-05 -0.000129704 0)
(8.31402e-05 -8.24681e-05 0)
(5.40622e-05 -3.30093e-06 0)
(-2.40221e-05 9.70002e-05 0)
(-0.000158248 0.000210122 0)
(-0.000353038 0.000329827 0)
(-0.000610532 0.000451512 0)
(-0.000931079 0.000571833 0)
(-0.00131366 0.000688403 0)
(-0.00175622 0.000799564 0)
(-0.00225599 0.000904207 0)
(-0.00280968 0.00100165 0)
(-0.00341366 0.00109153 0)
(-0.00406414 0.00117372 0)
(-0.00475724 0.00124829 0)
(-0.00548913 0.00131545 0)
(-0.00625605 0.00137551 0)
(-0.00705441 0.00142884 0)
(-0.00788077 0.00147589 0)
(-0.00873194 0.00151712 0)
(-0.00960491 0.00155302 0)
(-0.010497 0.00158407 0)
(-0.0114056 0.00161076 0)
(-0.0123286 0.00163357 0)
(-0.0132639 0.00165296 0)
(-0.0142097 0.00166936 0)
(-0.0151645 0.00168319 0)
(-0.016127 0.00169484 0)
(-0.0170959 0.00170468 0)
(-0.0180704 0.00171304 0)
(-0.0190497 0.00172022 0)
(-0.0200331 0.00172651 0)
(-0.0210202 0.00173217 0)
(-0.0220106 0.00173742 0)
(-0.0230042 0.00174247 0)
(-0.0240007 0.00174751 0)
(-0.0250002 0.00175269 0)
(-0.0260028 0.00175817 0)
(-0.0270086 0.00176407 0)
(-0.0280178 0.00177049 0)
(-0.0290307 0.00177754 0)
(-0.0300476 0.00178529 0)
(-0.0310689 0.0017938 0)
(-0.0320949 0.00180314 0)
(-0.0331262 0.00181335 0)
(-0.0341632 0.00182446 0)
(-0.0352063 0.0018365 0)
(-0.036256 0.00184949 0)
(-0.0373129 0.00186343 0)
(-0.0383773 0.00187832 0)
(-0.0394499 0.00189417 0)
(-0.040531 0.00191095 0)
(-0.0416212 0.00192864 0)
(-0.042721 0.00194722 0)
(-0.0438307 0.00196665 0)
(-0.0449508 0.00198689 0)
(-0.0460817 0.00200789 0)
(-0.0472237 0.00202959 0)
(-0.0483772 0.00205192 0)
(-0.0495424 0.00207482 0)
(-0.0507197 0.00209819 0)
(-0.0519091 0.00212194 0)
(-0.0531108 0.00214598 0)
(-0.0543249 0.00217019 0)
(-0.0555513 0.00219444 0)
(-0.0567901 0.00221861 0)
(-0.058041 0.00224255 0)
(-0.0593038 0.0022661 0)
(-0.0605781 0.0022891 0)
(-0.0618636 0.00231135 0)
(-0.0631597 0.00233267 0)
(-0.0644657 0.00235285 0)
(-0.0657809 0.00237166 0)
(-0.0671044 0.00238886 0)
(-0.068435 0.0024042 0)
(-0.0697717 0.00241742 0)
(-0.071113 0.00242823 0)
(-0.0724576 0.00243634 0)
(-0.0738036 0.00244143 0)
(-0.0751494 0.00244318 0)
(-0.0764928 0.00244124 0)
(-0.0778316 0.00243528 0)
(-0.0791635 0.00242491 0)
(-0.0804858 0.00240976 0)
(-0.0817957 0.00238944 0)
(-0.0830902 0.00236355 0)
(-0.0843661 0.00233168 0)
(-0.0856199 0.00229343 0)
(-0.0868479 0.00224837 0)
(-0.0880463 0.00219609 0)
(-0.089211 0.00213617 0)
(-0.0903375 0.00206819 0)
(-0.0914215 0.00199176 0)
(-0.0924582 0.00190647 0)
(-0.0934426 0.00181195 0)
(-0.0943698 0.00170785 0)
(-0.0952343 0.00159384 0)
(-0.0960307 0.0014696 0)
(-0.0967536 0.00133488 0)
(-0.0973973 0.00118945 0)
(-0.097956 0.00103315 0)
(-0.0984239 0.000865851 0)
(-0.0987953 0.000687499 0)
(-0.0990642 0.000498107 0)
(-0.099225 0.000297766 0)
(-0.099272 8.66473e-05 0)
(-0.0991997 -0.000134985 0)
(-0.0990028 -0.000366772 0)
(-0.0986761 -0.000608249 0)
(-0.0982149 -0.000858843 0)
(-0.0976148 -0.00111786 0)
(-0.0968717 -0.00138451 0)
(-0.0959822 -0.00165784 0)
(-0.0949433 -0.0019368 0)
(-0.0937525 -0.0022202 0)
(-0.0924082 -0.00250674 0)
(-0.0909095 -0.00279496 0)
(-0.0892561 -0.00308332 0)
(-0.0874488 -0.00337012 0)
(-0.0854891 -0.00365358 0)
(-0.0833797 -0.0039318 0)
(-0.0811241 -0.00420281 0)
(-0.0787269 -0.00446454 0)
(-0.0761939 -0.00471489 0)
(-0.073532 -0.00495169 0)
(-0.0707489 -0.00517277 0)
(-0.067854 -0.00537595 0)
(-0.0648572 -0.00555908 0)
(-0.0617699 -0.00572006 0)
(-0.0586044 -0.00585686 0)
(-0.0553741 -0.00596756 0)
(-0.0520933 -0.00605036 0)
(-0.0487771 -0.00610363 0)
(-0.0454416 -0.0061259 0)
(-0.0421034 -0.00611593 0)
(-0.0387797 -0.0060727 0)
(-0.0354883 -0.00599542 0)
(-0.0322471 -0.00588361 0)
(-0.0290743 -0.00573702 0)
(-0.0259882 -0.00555575 0)
(-0.0230066 -0.00534019 0)
(-0.0201474 -0.00509104 0)
(-0.0174277 -0.00480938 0)
(-0.014864 -0.00449663 0)
(-0.0124717 -0.00415462 0)
(-0.0102653 -0.00378561 0)
(-0.00825767 -0.0033924 0)
(-0.00645982 -0.00297844 0)
(-0.0048807 -0.00254803 0)
(-0.00352658 -0.00210657 0)
(-0.00240042 -0.00166105 0)
(-0.00150113 -0.00122069 0)
(-0.000822493 -0.000797851 0)
(-0.00035199 -0.000409468 0)
(-6.93812e-05 -7.88931e-05 0)
(5.50255e-05 0.000161916 0)
(6.54424e-05 0.000269695 0)
(2.4418e-05 0.000183251 0)
(8.74841e-06 -9.16944e-05 0)
(2.65564e-05 -0.000157592 0)
(3.21076e-05 -0.000136957 0)
(2.97641e-06 -5.32425e-05 0)
(-7.65898e-05 7.5397e-05 0)
(-0.000217159 0.00023437 0)
(-0.000426026 0.000412186 0)
(-0.000707739 0.000600002 0)
(-0.00106451 0.000791118 0)
(-0.00149668 0.000980533 0)
(-0.00200309 0.00116458 0)
(-0.00258144 0.00134065 0)
(-0.00322859 0.00150694 0)
(-0.00394079 0.00166229 0)
(-0.00471387 0.00180606 0)
(-0.00554343 0.00193796 0)
(-0.00642496 0.00205803 0)
(-0.00735395 0.00216652 0)
(-0.00832598 0.00226385 0)
(-0.00933676 0.00235059 0)
(-0.0103822 0.00242738 0)
(-0.0114585 0.00249491 0)
(-0.012562 0.00255393 0)
(-0.0136894 0.00260519 0)
(-0.0148376 0.00264943 0)
(-0.016004 0.00268741 0)
(-0.0171861 0.00271984 0)
(-0.0183816 0.00274741 0)
(-0.0195886 0.00277078 0)
(-0.0208055 0.00279056 0)
(-0.0220307 0.00280734 0)
(-0.0232632 0.00282165 0)
(-0.0245019 0.00283398 0)
(-0.025746 0.00284478 0)
(-0.0269949 0.00285448 0)
(-0.028248 0.00286344 0)
(-0.0295052 0.00287199 0)
(-0.0307662 0.00288044 0)
(-0.0320309 0.00288905 0)
(-0.0332994 0.00289807 0)
(-0.0345719 0.00290769 0)
(-0.0358486 0.00291809 0)
(-0.0371297 0.00292944 0)
(-0.0384157 0.00294186 0)
(-0.0397069 0.00295546 0)
(-0.0410039 0.00297034 0)
(-0.0423071 0.00298658 0)
(-0.043617 0.00300422 0)
(-0.0449342 0.00302332 0)
(-0.0462593 0.00304389 0)
(-0.0475929 0.00306597 0)
(-0.0489354 0.00308954 0)
(-0.0502876 0.00311459 0)
(-0.0516499 0.00314111 0)
(-0.053023 0.00316906 0)
(-0.0544073 0.00319839 0)
(-0.0558034 0.00322904 0)
(-0.0572118 0.00326094 0)
(-0.0586329 0.003294 0)
(-0.0600672 0.00332814 0)
(-0.0615149 0.00336323 0)
(-0.0629764 0.00339916 0)
(-0.0644519 0.00343579 0)
(-0.0659417 0.00347296 0)
(-0.0674458 0.00351049 0)
(-0.0689642 0.00354822 0)
(-0.070497 0.00358593 0)
(-0.0720439 0.0036234 0)
(-0.0736048 0.00366039 0)
(-0.0751792 0.00369665 0)
(-0.0767666 0.00373189 0)
(-0.0783666 0.00376582 0)
(-0.0799783 0.00379811 0)
(-0.0816008 0.00382842 0)
(-0.0832332 0.00385639 0)
(-0.0848742 0.00388163 0)
(-0.0865225 0.00390373 0)
(-0.0881765 0.00392225 0)
(-0.0898346 0.00393674 0)
(-0.0914947 0.00394671 0)
(-0.0931547 0.00395168 0)
(-0.0948124 0.0039511 0)
(-0.0964651 0.00394443 0)
(-0.0981101 0.00393111 0)
(-0.0997443 0.00391055 0)
(-0.101364 0.00388215 0)
(-0.102967 0.00384528 0)
(-0.104548 0.00379931 0)
(-0.106104 0.0037436 0)
(-0.10763 0.00367749 0)
(-0.109122 0.00360033 0)
(-0.110575 0.00351147 0)
(-0.111984 0.00341024 0)
(-0.113344 0.00329601 0)
(-0.114648 0.00316814 0)
(-0.115893 0.00302604 0)
(-0.11707 0.00286911 0)
(-0.118174 0.00269682 0)
(-0.1192 0.00250866 0)
(-0.120139 0.00230418 0)
(-0.120986 0.002083 0)
(-0.121734 0.00184479 0)
(-0.122375 0.0015893 0)
(-0.122903 0.00131639 0)
(-0.123312 0.00102601 0)
(-0.123593 0.00071821 0)
(-0.12374 0.000393176 0)
(-0.123747 5.12196e-05 0)
(-0.123607 -0.000307201 0)
(-0.123314 -0.000681477 0)
(-0.122861 -0.00107084 0)
(-0.122244 -0.00147433 0)
(-0.121457 -0.00189084 0)
(-0.120496 -0.00231904 0)
(-0.119356 -0.00275744 0)
(-0.118034 -0.00320433 0)
(-0.116528 -0.00365781 0)
(-0.114835 -0.00411579 0)
(-0.112956 -0.00457598 0)
(-0.110889 -0.00503589 0)
(-0.108637 -0.00549287 0)
(-0.106201 -0.00594409 0)
(-0.103584 -0.00638656 0)
(-0.100791 -0.00681717 0)
(-0.0978279 -0.00723269 0)
(-0.0947016 -0.00762979 0)
(-0.0914204 -0.00800509 0)
(-0.087994 -0.00835519 0)
(-0.0844333 -0.00867668 0)
(-0.0807507 -0.0089662 0)
(-0.0769597 -0.00922046 0)
(-0.0730751 -0.0094363 0)
(-0.069113 -0.00961072 0)
(-0.0650904 -0.00974092 0)
(-0.0610256 -0.00982435 0)
(-0.0569376 -0.00985874 0)
(-0.0528463 -0.00984214 0)
(-0.0487723 -0.00977298 0)
(-0.0447367 -0.00965007 0)
(-0.040761 -0.00947262 0)
(-0.0368668 -0.00924035 0)
(-0.0330757 -0.0089534 0)
(-0.0294092 -0.00861246 0)
(-0.0258882 -0.00821872 0)
(-0.0225333 -0.00777396 0)
(-0.0193638 -0.00728054 0)
(-0.016398 -0.00674147 0)
(-0.0136528 -0.00616054 0)
(-0.0111431 -0.00554235 0)
(-0.00888193 -0.00489258 0)
(-0.00687936 -0.00421821 0)
(-0.00514248 -0.00352794 0)
(-0.00367456 -0.00283274 0)
(-0.00247432 -0.0021467 0)
(-0.00153499 -0.00148814 0)
(-0.000843335 -0.000881237 0)
(-0.000378404 -0.000358078 0)
(-0.000110147 3.89512e-05 0)
(2.64106e-06 0.000254109 0)
(1.30459e-05 0.000208874 0)
(5.21194e-06 -0.000102596 0)
(5.98601e-06 -0.000159124 0)
(-2.3139e-05 -0.000106286 0)
(-0.0001011 2.65366e-05 0)
(-0.000242141 0.000216843 0)
(-0.000456364 0.00044642 0)
(-0.000750687 0.000700722 0)
(-0.00112936 0.000968352 0)
(-0.00159436 0.0012405 0)
(-0.0021458 0.00151047 0)
(-0.00278228 0.00177323 0)
(-0.00350121 0.00202514 0)
(-0.00429907 0.00226363 0)
(-0.00517172 0.002487 0)
(-0.00611452 0.00269424 0)
(-0.00712257 0.00288488 0)
(-0.00819082 0.00305888 0)
(-0.0093142 0.00321654 0)
(-0.0104877 0.00335837 0)
(-0.0117065 0.00348513 0)
(-0.012966 0.00359766 0)
(-0.0142617 0.00369694 0)
(-0.0155895 0.00378397 0)
(-0.0169456 0.00385979 0)
(-0.0183265 0.00392547 0)
(-0.019729 0.00398205 0)
(-0.0211502 0.00403054 0)
(-0.0225876 0.00407192 0)
(-0.0240388 0.00410712 0)
(-0.025502 0.00413704 0)
(-0.0269753 0.00416249 0)
(-0.0284574 0.00418425 0)
(-0.029947 0.00420303 0)
(-0.0314431 0.00421949 0)
(-0.032945 0.00423423 0)
(-0.0344521 0.00424778 0)
(-0.035964 0.00426064 0)
(-0.0374804 0.00427325 0)
(-0.0390012 0.004286 0)
(-0.0405264 0.00429923 0)
(-0.0420562 0.00431325 0)
(-0.0435908 0.00432833 0)
(-0.0451304 0.00434469 0)
(-0.0466755 0.00436254 0)
(-0.0482265 0.00438203 0)
(-0.049784 0.00440331 0)
(-0.0513484 0.00442649 0)
(-0.0529204 0.00445165 0)
(-0.0545006 0.00447886 0)
(-0.0560896 0.00450815 0)
(-0.0576881 0.00453956 0)
(-0.0592966 0.00457309 0)
(-0.0609159 0.00460871 0)
(-0.0625466 0.00464639 0)
(-0.0641893 0.00468608 0)
(-0.0658445 0.00472771 0)
(-0.067513 0.00477119 0)
(-0.0691951 0.00481642 0)
(-0.0708913 0.00486325 0)
(-0.0726022 0.00491156 0)
(-0.0743281 0.00496117 0)
(-0.0760692 0.00501189 0)
(-0.0778259 0.00506353 0)
(-0.0795983 0.00511584 0)
(-0.0813864 0.00516858 0)
(-0.0831903 0.00522146 0)
(-0.0850099 0.00527419 0)
(-0.0868448 0.00532644 0)
(-0.0886947 0.00537784 0)
(-0.0905592 0.00542803 0)
(-0.0924375 0.00547657 0)
(-0.094329 0.00552304 0)
(-0.0962327 0.00556696 0)
(-0.0981474 0.00560783 0)
(-0.100072 0.0056451 0)
(-0.102005 0.00567821 0)
(-0.103944 0.00570657 0)
(-0.105888 0.00572953 0)
(-0.107835 0.00574642 0)
(-0.109782 0.00575657 0)
(-0.111727 0.00575922 0)
(-0.113667 0.00575362 0)
(-0.115598 0.00573899 0)
(-0.117518 0.00571449 0)
(-0.119423 0.00567929 0)
(-0.121309 0.00563252 0)
(-0.123171 0.00557329 0)
(-0.125006 0.00550069 0)
(-0.126809 0.00541381 0)
(-0.128573 0.00531171 0)
(-0.130296 0.00519346 0)
(-0.131969 0.00505814 0)
(-0.133589 0.00490482 0)
(-0.135148 0.00473261 0)
(-0.136639 0.00454062 0)
(-0.138058 0.004328 0)
(-0.139395 0.00409396 0)
(-0.140645 0.00383774 0)
(-0.1418 0.00355867 0)
(-0.142852 0.00325612 0)
(-0.143794 0.00292959 0)
(-0.144618 0.00257865 0)
(-0.145316 0.002203 0)
(-0.14588 0.00180248 0)
(-0.146303 0.00137706 0)
(-0.146575 0.000926864 0)
(-0.146691 0.000452212 0)
(-0.146642 -4.64005e-05 0)
(-0.146421 -0.00056827 0)
(-0.146022 -0.00111248 0)
(-0.145436 -0.00167786 0)
(-0.144659 -0.00226304 0)
(-0.143685 -0.00286635 0)
(-0.142508 -0.00348589 0)
(-0.141125 -0.00411947 0)
(-0.139531 -0.00476462 0)
(-0.137724 -0.00541862 0)
(-0.135703 -0.00607846 0)
(-0.133466 -0.00674085 0)
(-0.131014 -0.00740225 0)
(-0.128348 -0.00805887 0)
(-0.12547 -0.00870667 0)
(-0.122386 -0.00934143 0)
(-0.1191 -0.00995872 0)
(-0.115618 -0.010554 0)
(-0.11195 -0.0111224 0)
(-0.108105 -0.0116594 0)
(-0.104093 -0.0121599 0)
(-0.0999276 -0.0126194 0)
(-0.0956228 -0.0130329 0)
(-0.0911941 -0.0133958 0)
(-0.0866582 -0.0137037 0)
(-0.0820335 -0.0139524 0)
(-0.0773395 -0.0141379 0)
(-0.0725968 -0.0142567 0)
(-0.0678272 -0.0143054 0)
(-0.0630532 -0.0142814 0)
(-0.0582982 -0.0141825 0)
(-0.0535861 -0.014007 0)
(-0.0489414 -0.0137538 0)
(-0.0443886 -0.0134226 0)
(-0.0399523 -0.0130136 0)
(-0.0356567 -0.0125279 0)
(-0.0315258 -0.0119671 0)
(-0.0275824 -0.0113341 0)
(-0.0238487 -0.0106321 0)
(-0.0203452 -0.00986584 0)
(-0.0170909 -0.00904067 0)
(-0.0141027 -0.00816344 0)
(-0.0113949 -0.00724239 0)
(-0.00897902 -0.0062876 0)
(-0.00686292 -0.00531145 0)
(-0.00505049 -0.00432925 0)
(-0.00354081 -0.00336023 0)
(-0.00232747 -0.00242874 0)
(-0.00139777 -0.00156595 0)
(-0.000731686 -0.000812007 0)
(-0.000300777 -0.000218456 0)
(-6.98176e-05 0.000148592 0)
(1.84544e-07 0.000197984 0)
(1.16873e-06 -0.000101774 0)
(-1.79592e-05 -0.000130601 0)
(-8.76085e-05 -2.99865e-05 0)
(-0.000221949 0.0001659 0)
(-0.000432919 0.000430709 0)
(-0.000729631 0.000742933 0)
(-0.00111819 0.00108519 0)
(-0.00160219 0.00144368 0)
(-0.00218309 0.00180756 0)
(-0.00286057 0.00216844 0)
(-0.00363283 0.00251996 0)
(-0.00449691 0.0028574 0)
(-0.0054489 0.0031774 0)
(-0.00648423 0.00347767 0)
(-0.00759786 0.00375682 0)
(-0.00878442 0.00401416 0)
(-0.0100384 0.00424955 0)
(-0.0113542 0.00446329 0)
(-0.0127265 0.00465604 0)
(-0.0141497 0.0048287 0)
(-0.0156189 0.00498236 0)
(-0.0171292 0.00511825 0)
(-0.0186759 0.00523769 0)
(-0.0202548 0.00534203 0)
(-0.021862 0.00543266 0)
(-0.0234939 0.00551095 0)
(-0.0251472 0.00557824 0)
(-0.0268191 0.00563583 0)
(-0.028507 0.00568497 0)
(-0.0302087 0.00572683 0)
(-0.031922 0.00576253 0)
(-0.0336455 0.00579311 0)
(-0.0353776 0.00581951 0)
(-0.0371173 0.00584263 0)
(-0.0388636 0.00586329 0)
(-0.0406158 0.0058822 0)
(-0.0423735 0.00590005 0)
(-0.0441361 0.00591742 0)
(-0.0459037 0.00593486 0)
(-0.0476762 0.00595285 0)
(-0.0494536 0.00597178 0)
(-0.0512362 0.00599205 0)
(-0.0530243 0.00601395 0)
(-0.0548183 0.00603777 0)
(-0.0566186 0.00606373 0)
(-0.0584259 0.00609202 0)
(-0.0602406 0.0061228 0)
(-0.0620634 0.00615619 0)
(-0.0638951 0.00619228 0)
(-0.0657361 0.00623112 0)
(-0.0675873 0.00627274 0)
(-0.0694493 0.00631715 0)
(-0.0713229 0.00636433 0)
(-0.0732087 0.00641422 0)
(-0.0751073 0.00646676 0)
(-0.0770194 0.00652183 0)
(-0.0789456 0.00657932 0)
(-0.0808865 0.00663906 0)
(-0.0828426 0.0067009 0)
(-0.0848142 0.00676462 0)
(-0.0868018 0.00682998 0)
(-0.0888057 0.00689674 0)
(-0.0908261 0.00696459 0)
(-0.0928631 0.00703322 0)
(-0.0949168 0.00710227 0)
(-0.096987 0.00717136 0)
(-0.0990735 0.00724007 0)
(-0.101176 0.00730795 0)
(-0.103294 0.00737449 0)
(-0.105427 0.00743918 0)
(-0.107574 0.00750144 0)
(-0.109734 0.00756066 0)
(-0.111906 0.0076162 0)
(-0.114089 0.00766736 0)
(-0.116281 0.00771341 0)
(-0.11848 0.00775357 0)
(-0.120685 0.00778702 0)
(-0.122892 0.0078129 0)
(-0.125101 0.0078303 0)
(-0.127307 0.00783828 0)
(-0.129508 0.00783584 0)
(-0.131701 0.00782196 0)
(-0.133881 0.00779556 0)
(-0.136046 0.00775556 0)
(-0.138191 0.0077008 0)
(-0.140312 0.00763013 0)
(-0.142403 0.00754236 0)
(-0.144461 0.00743628 0)
(-0.146478 0.00731066 0)
(-0.14845 0.00716428 0)
(-0.150371 0.00699589 0)
(-0.152233 0.00680427 0)
(-0.154032 0.00658821 0)
(-0.155759 0.00634652 0)
(-0.157407 0.00607807 0)
(-0.158969 0.00578174 0)
(-0.160438 0.0054565 0)
(-0.161804 0.00510138 0)
(-0.163061 0.00471552 0)
(-0.164199 0.00429815 0)
(-0.16521 0.00384862 0)
(-0.166086 0.00336643 0)
(-0.166818 0.00285124 0)
(-0.167397 0.00230286 0)
(-0.167815 0.00172133 0)
(-0.168063 0.00110689 0)
(-0.168133 0.000460017 0)
(-0.168016 -0.000218571 0)
(-0.167705 -0.00092787 0)
(-0.167192 -0.00166659 0)
(-0.16647 -0.00243314 0)
(-0.165533 -0.0032256 0)
(-0.164374 -0.00404172 0)
(-0.162989 -0.00487891 0)
(-0.161372 -0.0057342 0)
(-0.159519 -0.00660429 0)
(-0.157429 -0.0074855 0)
(-0.155099 -0.0083738 0)
(-0.152529 -0.00926481 0)
(-0.149719 -0.0101538 0)
(-0.146672 -0.0110357 0)
(-0.143389 -0.0119052 0)
(-0.139876 -0.0127566 0)
(-0.136139 -0.0135841 0)
(-0.132185 -0.0143817 0)
(-0.128024 -0.015143 0)
(-0.123666 -0.0158617 0)
(-0.119123 -0.0165315 0)
(-0.11441 -0.0171461 0)
(-0.109542 -0.0176991 0)
(-0.104536 -0.0181844 0)
(-0.0994108 -0.0185961 0)
(-0.0941866 -0.0189287 0)
(-0.0888846 -0.0191769 0)
(-0.0835278 -0.019336 0)
(-0.0781399 -0.0194017 0)
(-0.0727458 -0.0193705 0)