/*--------------------------------*- C++ -*----------------------------------*\
  =========                 |
  \\      /  F ield         | OpenFOAM: The Open Source CFD Toolbox
   \\    /   O peration     | Website:  https://openfoam.org
    \\  /    A nd           | Version:  7
     \\/     M anipulation  |
\*---------------------------------------------------------------------------*/
FoamFile
{
    version     2.0;
    format      ascii;
    class       volScalarField;
    location    "0.0875";
    object      p;
}
// * * * * * * * * * * * * * * * * * * * * * * * * * * * * * * * * * * * * * //

dimensions      [0 2 -2 0 0 0 0];

internalField   nonuniform List<scalar> 
12800
(
-6.32053e-09
1.2974e-05
-5.02564e-05
-0.000194026
-0.000405477
-0.000670794
-0.000975807
-0.0013073
-0.00165397
-0.00200617
-0.00235609
-0.00269721
-0.0030242
-0.00333285
-0.00361974
-0.00388223
-0.00411839
-0.00432678
-0.00450638
-0.00465664
-0.00477727
-0.00486817
-0.00492947
-0.00496141
-0.00496429
-0.00493859
-0.00488487
-0.00480373
-0.00469568
-0.00456126
-0.00440099
-0.00421537
-0.00400489
-0.00377005
-0.00351132
-0.00322905
-0.00292356
-0.0025952
-0.0022443
-0.00187109
-0.00147572
-0.00105831
-0.000619001
-0.000157861
0.000325057
0.000829709
0.00135607
0.00190416
0.00247403
0.00306572
0.00367924
0.00431464
0.004972
0.00565142
0.00635299
0.0070768
0.00782296
0.00859165
0.00938308
0.0101974
0.0110348
0.0118954
0.0127795
0.0136872
0.0146187
0.0155742
0.0165539
0.0175582
0.0185873
0.0196416
0.0207212
0.0218267
0.0229584
0.0241168
0.0253022
0.026515
0.0277556
0.0290246
0.0303223
0.0316492
0.0330058
0.0343924
0.0358097
0.0372582
0.0387383
0.0402505
0.0417951
0.0433727
0.0449836
0.0466282
0.0483067
0.0500194
0.0517665
0.0535482
0.0553645
0.0572156
0.0591011
0.061021
0.0629748
0.064962
0.066982
0.0690339
0.0711167
0.0732291
0.0753698
0.0775369
0.0797288
0.0819432
0.0841778
0.0864298
0.0886964
0.0909742
0.0932597
0.0955492
0.0978385
0.100123
0.102398
0.104659
0.1069
0.109116
0.1113
0.113448
0.115552
0.117607
0.119606
0.121543
0.123411
0.125204
0.126916
0.128541
0.130073
0.131507
0.132837
0.13406
0.13517
0.136165
0.137043
0.1378
0.138436
0.138951
0.139345
0.13962
0.139778
0.139824
0.139763
0.139599
0.139341
0.138998
0.138578
0.138094
0.137559
0.136987
0.136397
0.135809
0.135245
0.134733
0.134303
0.133987
0.133823
0.133815
-1.17841e-05
4.39243e-06
-5.28397e-05
-0.000178441
-0.000359789
-0.000586984
-0.000849302
-0.00113626
-0.00143831
-0.00174733
-0.00205627
-0.00235913
-0.00265099
-0.00292772
-0.00318597
-0.00342313
-0.00363706
-0.00382618
-0.00398936
-0.00412578
-0.00423493
-0.00431659
-0.00437068
-0.00439727
-0.00439653
-0.00436871
-0.00431417
-0.00423331
-0.00412655
-0.00399431
-0.003837
-0.00365496
-0.00344861
-0.00321837
-0.0029646
-0.00268764
-0.00238776
-0.00206523
-0.00172028
-0.0013531
-0.00096385
-0.000552641
-0.000119554
0.000335372
0.000812107
0.00131061
0.00183087
0.00237293
0.00293685
0.00352266
0.0041304
0.00476012
0.0054119
0.00608587
0.00678209
0.00750065
0.0082417
0.00900542
0.009792
0.0106016
0.0114344
0.0122906
0.0131703
0.0140738
0.0150011
0.0159526
0.0169284
0.0179289
0.0189542
0.0200048
0.0210808
0.0221827
0.0233109
0.0244657
0.0256476
0.0268569
0.0280939
0.0293592
0.030653
0.0319759
0.0333282
0.0347104
0.0361229
0.0375662
0.0390408
0.040547
0.0420852
0.0436557
0.0452589
0.0468951
0.0485645
0.0502672
0.0520034
0.0537732
0.0555766
0.0574135
0.0592836
0.0611868
0.0631225
0.0650902
0.067089
0.0691182
0.0711766
0.073263
0.0753757
0.0775132
0.0796735
0.0818545
0.0840537
0.0862686
0.0884962
0.0907332
0.0929763
0.0952216
0.0974652
0.0997027
0.10193
0.104141
0.106332
0.108497
0.11063
0.112726
0.11478
0.116784
0.118733
0.120622
0.122443
0.124192
0.125862
0.127448
0.128944
0.130346
0.131649
0.132848
0.133941
0.134924
0.135794
0.136551
0.137193
0.137721
0.138135
0.138437
0.13863
0.138717
0.138705
0.138598
0.138403
0.13813
0.137787
0.137386
0.13694
0.136462
0.135968
0.135476
0.135006
0.134581
0.134224
0.133958
0.133814
0.133806
5.64756e-05
6.90696e-05
1.20321e-05
-0.000105448
-0.00027068
-0.000475362
-0.000710841
-0.000968339
-0.0012399
-0.00151842
-0.00179766
-0.00207225
-0.00233757
-0.00258974
-0.00282565
-0.00304265
-0.00323865
-0.00341206
-0.00356163
-0.00368644
-0.00378587
-0.00385952
-0.00390719
-0.00392886
-0.00392458
-0.0038945
-0.0038388
-0.00375776
-0.00365168
-0.00352089
-0.00336571
-0.00318642
-0.00298335
-0.0027568
-0.0025071
-0.00223452
-0.00193931
-0.00162169
-0.00128181
-0.000919803
-0.000535808
-0.000129939
0.000297758
0.000747274
0.00121859
0.00171167
0.00222654
0.00276326
0.00332188
0.00390245
0.00450499
0.0051296
0.00577638
0.00644541
0.00713677
0.00785057
0.00858698
0.00934616
0.0101283
0.0109335
0.0117621
0.0126141
0.0134898
0.0143893
0.0153127
0.0162603
0.0172323
0.018229
0.0192507
0.0202976
0.0213701
0.0224685
0.0235932
0.0247446
0.0259229
0.0271286
0.0283621
0.0296236
0.0309137
0.0322326
0.0335806
0.0349584
0.0363662
0.0378046
0.0392738
0.0407742
0.0423063
0.0438702
0.0454663
0.0470949
0.048756
0.0504497
0.0521763
0.0539356
0.0557276
0.0575522
0.0594091
0.061298
0.0632183
0.0651694
0.0671506
0.0691608
0.071199
0.0732638
0.0753536
0.0774668
0.0796015
0.0817556
0.0839265
0.0861117
0.0883082
0.090513
0.0927225
0.0949331
0.0971409
0.0993417
0.101531
0.103704
0.105856
0.107982
0.110076
0.112133
0.114148
0.116114
0.118026
0.119878
0.121665
0.12338
0.125019
0.126576
0.128047
0.129425
0.130708
0.131891
0.132971
0.133946
0.134812
0.13557
0.136217
0.136756
0.137185
0.137508
0.137727
0.137847
0.137871
0.137806
0.137659
0.137437
0.137151
0.13681
0.136426
0.136013
0.135584
0.135156
0.134746
0.134373
0.134056
0.133813
0.13367
0.133643
0.000211197
0.000204433
0.000137405
1.83029e-05
-0.000141861
-0.000335705
-0.000555845
-0.00079495
-0.00104622
-0.00130346
-0.00156124
-0.00181474
-0.00205975
-0.00229276
-0.00251079
-0.00271138
-0.00289254
-0.00305268
-0.00319056
-0.00330528
-0.00339614
-0.00346263
-0.00350446
-0.00352149
-0.00351372
-0.00348122
-0.00342411
-0.00334253
-0.00323671
-0.00310689
-0.00295331
-0.00277621
-0.00257586
-0.00235249
-0.00210632
-0.00183757
-0.0015465
-0.00123324
-0.000897901
-0.000540579
-0.000161385
0.000239606
0.000662373
0.0011069
0.00157318
0.0020612
0.00257103
0.00310274
0.00365637
0.00423195
0.00482957
0.00544933
0.00609133
0.00675563
0.00744232
0.00815153
0.00888344
0.00963822
0.010416
0.011217
0.0120414
0.0128893
0.0137609
0.0146564
0.0155758
0.0165195
0.0174877
0.0184806
0.0194986
0.0205417
0.0216105
0.0227053
0.0238263
0.0249741
0.0261487
0.0273507
0.0285803
0.029838
0.031124
0.0324387
0.0337824
0.0351555
0.0365585
0.0379918
0.0394556
0.0409502
0.0424761
0.0440336
0.0456227
0.0472439
0.0488971
0.0505824
0.0522998
0.0540493
0.0558309
0.0576443
0.0594891
0.0613651
0.0632716
0.0652081
0.0671737
0.0691673
0.071188
0.0732342
0.0753044
0.0773971
0.0795102
0.0816416
0.0837889
0.0859494
0.0881204
0.0902986
0.0924808
0.0946633
0.0968423
0.0990136
0.101173
0.103316
0.105437
0.107532
0.109596
0.111623
0.113608
0.115544
0.117428
0.119253
0.121013
0.122704
0.124319
0.125855
0.127306
0.128668
0.129936
0.131108
0.132179
0.133148
0.134013
0.134772
0.135425
0.135972
0.136414
0.136754
0.136994
0.137137
0.13719
0.137157
0.137045
0.136861
0.136616
0.136318
0.135978
0.135609
0.135223
0.134835
0.134459
0.134112
0.13381
0.133568
0.133404
0.133331
0.000436235
0.000396442
0.000310182
0.000182329
2.02581e-05
-0.000169657
-0.00038115
-0.000608133
-0.000844796
-0.00108593
-0.00132676
-0.00156304
-0.00179111
-0.00200777
-0.00221027
-0.00239639
-0.00256426
-0.00271235
-0.0028395
-0.00294478
-0.00302749
-0.00308712
-0.00312331
-0.00313581
-0.00312455
-0.00308954
-0.00303083
-0.00294853
-0.00284279
-0.00271373
-0.00256153
-0.00238641
-0.00218858
-0.0019682
-0.00172541
-0.00146041
-0.00117335
-0.000864325
-0.000533426
-0.000180729
0.000193704
0.000589853
0.00100771
0.00144725
0.00190846
0.00239141
0.00289616
0.00342278
0.00397132
0.00454184
0.00513444
0.00574924
0.00638632
0.00704575
0.00772763
0.00843211
0.00915937
0.00990956
0.0106828
0.0114793
0.0122993
0.0131429
0.0140102
0.0149014
0.0158167
0.0167562
0.0177203
0.0187092
0.019723
0.0207622
0.021827
0.0229178
0.0240349
0.0251786
0.0263492
0.0275471
0.0287725
0.0300259
0.0313074
0.0326175
0.0339564
0.0353246
0.0367223
0.03815
0.039608
0.0410966
0.042616
0.0441666
0.0457486
0.047362
0.0490071
0.0506837
0.0523919
0.0541317
0.0559028
0.057705
0.059538
0.0614014
0.0632946
0.0652169
0.0671675
0.0691454
0.0711494
0.0731781
0.0752301
0.0773036
0.0793968
0.0815074
0.0836332
0.0857714
0.0879193
0.0900738
0.0922317
0.0943893
0.0965428
0.0986883
0.100821
0.102938
0.105033
0.107102
0.10914
0.111141
0.1131
0.115013
0.116872
0.118674
0.120413
0.122084
0.123681
0.125199
0.126635
0.127983
0.129241
0.130404
0.131469
0.132435
0.133299
0.13406
0.134718
0.135274
0.135728
0.136082
0.136339
0.136504
0.13658
0.136573
0.136489
0.136337
0.136123
0.135859
0.135552
0.135215
0.134859
0.134497
0.134141
0.133806
0.133503
0.133248
0.133047
0.132906
0.00071615
0.000634317
0.000521941
0.000379468
0.000209613
1.77218e-05
-0.00019088
-0.000411144
-0.000638346
-0.000868014
-0.00109604
-0.00131883
-0.00153315
-0.00173618
-0.00192551
-0.00209912
-0.00225531
-0.0023927
-0.00251019
-0.00260688
-0.00268206
-0.00273525
-0.00276605
-0.00277421
-0.00275958
-0.00272208
-0.00266174
-0.00257863
-0.00247281
-0.00234437
-0.00219344
-0.00202017
-0.00182469
-0.00160712
-0.00136759
-0.00110621
-0.000823048
-0.000518159
-0.00019161
0.000156546
0.000526297
0.000917656
0.00133062
0.00176517
0.00222135
0.00269922
0.00319888
0.00372037
0.00426377
0.00482918
0.0054167
0.00602646
0.00665853
0.00731298
0.00798995
0.0086896
0.00941206
0.0101575
0.0109261
0.011718
0.0125334
0.0133725
0.0142353
0.015122
0.0160329
0.0169681
0.0179278
0.0189124
0.0199219
0.0209568
0.0220174
0.023104
0.0242168
0.0253561
0.0265224
0.0277158
0.0289367
0.0301854
0.0314621
0.0327672
0.0341009
0.0354638
0.0368559
0.0382778
0.0397296
0.0412117
0.0427244
0.044268
0.0458425
0.0474481
0.0490848
0.0507526
0.0524515
0.0541814
0.0559421
0.0577334
0.0595547
0.0614058
0.0632861
0.0651949
0.0671312
0.0690942
0.0710826
0.073095
0.07513
0.0771859
0.0792608
0.0813526
0.0834588
0.085577
0.0877044
0.0898379
0.0919743
0.0941101
0.0962416
0.0983649
0.100476
0.10257
0.104643
0.10669
0.108706
0.110686
0.112625
0.114518
0.116358
0.118142
0.119864
0.121519
0.123101
0.124607
0.126031
0.12737
0.12862
0.129777
0.130839
0.131803
0.132668
0.133433
0.134096
0.134659
0.135123
0.13549
0.135763
0.135944
0.136039
0.136053
0.135992
0.135864
0.135675
0.135434
0.135151
0.134836
0.134499
0.134151
0.133803
0.133466
0.133151
0.132871
0.132622
0.1324
0.0010374
0.000908241
0.000764747
0.000602937
0.00042032
0.000221364
1.06896e-05
-0.000207744
-0.000430026
-0.000652436
-0.000871588
-0.00108438
-0.00128805
-0.00148018
-0.00165868
-0.00182176
-0.00196796
-0.00209606
-0.00220504
-0.00229408
-0.00236251
-0.00240983
-0.00243566
-0.00243975
-0.00242192
-0.00238207
-0.00232016
-0.00223621
-0.00213025
-0.00200236
-0.00185261
-0.00168108
-0.00148783
-0.00127296
-0.00103655
-0.000778647
-0.000499262
-0.000198409
0.000123876
0.000467588
0.000832755
0.00121939
0.00162751
0.00205712
0.00250829
0.00298113
0.0034757
0.00399206
0.00453032
0.0050906
0.00567304
0.00627772
0.00690471
0.00755413
0.00822614
0.00892086
0.00963844
0.010379
0.0111428
0.01193
0.0127408
0.0135752
0.0144333
0.0153155
0.0162218
0.0171525
0.0181077
0.0190878
0.0200928
0.0211233
0.0221794
0.0232614
0.0243697
0.0255044
0.026666
0.0278546
0.0290707
0.0303143
0.0315859
0.0328856
0.0342139
0.0355711
0.0369574
0.0383731
0.0398185
0.0412939
0.0427996
0.0443358
0.0459027
0.0475002
0.0491284
0.0507873
0.0524769
0.054197
0.0559474
0.0577278
0.0595378
0.061377
0.0632449
0.0651407
0.0670636
0.0690125
0.0709863
0.0729836
0.075003
0.0770428
0.0791012
0.0811759
0.0832648
0.0853653
0.0874746
0.0895899
0.0917078
0.093825
0.0959379
0.0980425
0.100135
0.102211
0.104266
0.106295
0.108294
0.110258
0.11218
0.114058
0.115884
0.117655
0.119364
0.121008
0.12258
0.124077
0.125494
0.126827
0.128073
0.129227
0.130288
0.131253
0.13212
0.132888
0.133557
0.134128
0.134601
0.134979
0.135264
0.135459
0.135569
0.135599
0.135555
0.135443
0.135272
0.135047
0.134779
0.134476
0.134148
0.133803
0.133452
0.133104
0.132768
0.132454
0.13215
0.131842
0.00138791
0.00120848
0.00103059
0.000845769
0.000646447
0.000436387
0.000219458
-1.15704e-06
-0.000222356
-0.000441175
-0.000654818
-0.000860684
-0.00105648
-0.00124019
-0.00141004
-0.00156452
-0.00170237
-0.00182254
-0.00192414
-0.00200647
-0.00206891
-0.00211099
-0.00213235
-0.00213273
-0.00211196
-0.00206994
-0.00200659
-0.00192187
-0.00181581
-0.00168845
-0.00153983
-0.00136997
-0.00117889
-0.000966649
-0.000733265
-0.000478725
-0.000203013
9.38809e-05
0.00041198
0.00075133
0.00111198
0.00149395
0.00189726
0.00232197
0.0027682
0.00323602
0.00372551
0.00423674
0.00476987
0.00532504
0.00590236
0.00650192
0.00712382
0.00776819
0.00843519
0.00912495
0.00983758
0.0105733
0.0113322
0.0121146
0.0129205
0.0137501
0.0146036
0.015481
0.0163826
0.0173087
0.0182593
0.0192347
0.0202351
0.0212609
0.0223123
0.0233896
0.024493
0.0256229
0.0267795
0.0279631
0.0291739
0.0304123
0.0316784
0.0329725
0.034295
0.0356462
0.0370263
0.0384356
0.0398743
0.0413428
0.0428413
0.0443699
0.0459289
0.0475181
0.0491377
0.0507876
0.0524678
0.054178
0.0559182
0.0576879
0.0594868
0.0613145
0.0631704
0.0650538
0.0669638
0.0688995
0.0708596
0.0728429
0.0748479
0.076873
0.0789164
0.0809759
0.0830493
0.0851341
0.0872278
0.0893272
0.0914294
0.093531
0.0956283
0.0977177
0.0997951
0.101856
0.103897
0.105913
0.107899
0.10985
0.111761
0.113628
0.115444
0.117206
0.118907
0.120544
0.122111
0.123603
0.125016
0.126347
0.127591
0.128746
0.129808
0.130775
0.131646
0.132419
0.133095
0.133673
0.134155
0.134542
0.134837
0.135043
0.135165
0.135207
0.135175
0.135074
0.134913
0.134698
0.134437
0.134138
0.13381
0.13346
0.133098
0.13273
0.132366
0.132012
0.131648
0.131254
0.00175708
0.00152607
0.00131162
0.00110115
0.000882184
0.000657766
0.000431299
0.000205204
-1.81826e-05
-0.000236506
-0.000447519
-0.000649155
-0.00083955
-0.00101705
-0.00118024
-0.00132788
-0.00145893
-0.00157251
-0.00166787
-0.00174442
-0.00180165
-0.00183913
-0.00185654
-0.00185364
-0.00183026
-0.0017863
-0.00172168
-0.00163633
-0.00153028
-0.0014035
-0.00125601
-0.00108779
-0.000898863
-0.000689208
-0.000458783
-0.000207537
6.45674e-05
0.000357574
0.000671565
0.00100662
0.0013628
0.00174013
0.00213869
0.00255857
0.00299988
0.0034627
0.00394712
0.00445325
0.00498128
0.00553134
0.00610354
0.00669798
0.0073148
0.00795413
0.00861611
0.00930086
0.0100085
0.0107393
0.0114934
0.0122709
0.0130719
0.0138967
0.0147453
0.0156179
0.0165148
0.017436
0.0183818
0.0193524
0.0203481
0.021369
0.0224156
0.0234879
0.0245863
0.0257111
0.0268625
0.0280408
0.0292462
0.0304789
0.0317392
0.0330275
0.034344
0.0356889
0.0370625
0.0384651
0.0398968
0.0413581
0.0428491
0.04437
0.0459207
0.0475015
0.0491123
0.050753
0.0524237
0.054124
0.0558539
0.0576131
0.0594011
0.0612175
0.0630618
0.0649332
0.066831
0.068754
0.0707013
0.0726715
0.0746633
0.0766749
0.0787047
0.0807505
0.0828101
0.0848813
0.0869613
0.0890474
0.0911363
0.0932249
0.0953097
0.0973868
0.0994525
0.101503
0.103533
0.105539
0.107515
0.109458
0.111362
0.113222
0.115032
0.116789
0.118487
0.12012
0.121685
0.123177
0.12459
0.125922
0.127168
0.128326
0.129392
0.130364
0.13124
0.13202
0.132702
0.133288
0.133778
0.134173
0.134477
0.134692
0.134822
0.134872
0.134848
0.134754
0.134598
0.134386
0.134126
0.133824
0.133489
0.133128
0.132748
0.132354
0.131955
0.131558
0.131134
0.130655
0.00213555
0.00185267
0.00160052
0.00136263
0.00112177
0.000880545
0.000641966
0.00040768
0.000179416
-4.10055e-05
-0.000251889
-0.000451655
-0.000638826
-0.000812122
-0.000970453
-0.00111287
-0.00123855
-0.0013468
-0.00143703
-0.00150874
-0.00156155
-0.00159509
-0.00160911
-0.00160339
-0.00157778
-0.00153218
-0.0014665
-0.00138072
-0.0012748
-0.00114871
-0.0010024
-0.000835867
-0.00064908
-0.000441974
-0.000214461
3.35266e-05
0.000302064
0.000591253
0.000901208
0.00123202
0.00158376
0.00195651
0.00235038
0.00276548
0.00320191
0.00365976
0.00413915
0.00464024
0.00516321
0.00570819
0.00627528
0.00686464
0.00747641
0.00811073
0.00876771
0.00944747
0.0101502
0.0108761
0.0116252
0.0123978
0.013194
0.0140138
0.0148576
0.0157254
0.0166174
0.0175337
0.0184746
0.0194403
0.020431
0.021447
0.0224884
0.0235556
0.0246488
0.0257683
0.0269144
0.0280871
0.0292868
0.0305137
0.0317681
0.0330502
0.0343603
0.0356987
0.0370655
0.0384611
0.0398856
0.0413394
0.0428226
0.0443354
0.0458778
0.0474498
0.0490516
0.0506831
0.0523441
0.0540345
0.0557542
0.0575028
0.05928
0.0610853
0.0629183
0.0647781
0.066664
0.0685751
0.0705102
0.0724682
0.0744476
0.0764469
0.0784642
0.0804977
0.0825453
0.0846045
0.0866728
0.0887475
0.0908256
0.0929037
0.0949784
0.0970462
0.0991032
0.101145
0.103168
0.105168
0.107139
0.109077
0.110977
0.112834
0.114643
0.116399
0.118096
0.119731
0.121298
0.122792
0.124209
0.125546
0.126797
0.12796
0.129033
0.130012
0.130895
0.131683
0.132373
0.132967
0.133465
0.133868
0.134179
0.134401
0.134538
0.134593
0.134573
0.134482
0.134326
0.134112
0.133847
0.133538
0.13319
0.132812
0.132408
0.131984
0.131548
0.131105
0.130619
0.130058
0.00251518
0.00218083
0.00189053
0.00162406
0.00135975
0.00109991
0.000847142
0.00060252
0.000367216
0.000142511
-7.03704e-05
-0.000270272
-0.000456133
-0.00062703
-0.000782158
-0.000920826
-0.00104246
-0.00114656
-0.0012327
-0.0013005
-0.00134966
-0.00137994
-0.00139113
-0.00138307
-0.00135564
-0.00130873
-0.00124229
-0.00115629
-0.00105068
-0.000925381
-0.000780366
-0.000615583
-0.000430953
-0.000226381
-1.7681e-06
0.000242988
0.000508004
0.00079343
0.0010994
0.00142602
0.00177338
0.00214161
0.00253086
0.00294124
0.00337284
0.00382577
0.00430021
0.00479633
0.0053143
0.00585424
0.00641631
0.00700066
0.00760744
0.00823679
0.0088888
0.00956363
0.0102615
0.0109824
0.0117267
0.0124944
0.0132857
0.0141006
0.0149395
0.0158024
0.0166895
0.0176009
0.0185368
0.0194975
0.0204832
0.021494
0.0225303
0.0235922
0.0246801
0.0257942
0.0269346
0.0281017
0.0292955
0.0305164
0.0317645
0.0330402
0.0343437
0.0356752
0.037035
0.0384233
0.0398403
0.0412863
0.0427615
0.0442659
0.0457996
0.0473628
0.0489554
0.0505773
0.0522286
0.053909
0.0556184
0.0573564
0.0591228
0.0609172
0.062739
0.0645875
0.066462
0.0683615
0.070285
0.0722314
0.0741993
0.0761871
0.0781932
0.0802157
0.0822525
0.0843013
0.0863597
0.088425
0.0904941
0.092564
0.0946312
0.0966922
0.0987432
0.10078
0.102799
0.104795
0.106764
0.108701
0.110601
0.112459
0.11427
0.116028
0.11773
0.11937
0.120942
0.122443
0.123868
0.125212
0.126472
0.127644
0.128725
0.129714
0.130607
0.131403
0.132103
0.132705
0.133211
0.133622
0.13394
0.134168
0.134308
0.134367
0.134348
0.134256
0.134097
0.133877
0.133603
0.133281
0.132916
0.132516
0.132084
0.131627
0.131151
0.13066
0.130115
0.129475
0.00288889
0.00250389
0.00217538
0.00187972
0.00159099
0.00131114
0.00104262
0.000785989
0.000541868
0.000311071
9.44197e-05
-0.000107346
-0.000293563
-0.000463626
-0.000617013
-0.000753292
-0.000872107
-0.000973158
-0.00105617
-0.00112093
-0.00116722
-0.00119491
-0.00120386
-0.00119395
-0.0011651
-0.00111726
-0.00105038
-0.000964413
-0.000859284
-0.000734943
-0.000591337
-0.000428381
-0.000245949
-4.39287e-05
0.000177782
0.000419323
0.00068087
0.000962586
0.00126461
0.00158707
0.00193013
0.00229394
0.00267864
0.00308436
0.00351121
0.00395933
0.00442892
0.00492016
0.00543321
0.00596822
0.00652535
0.00710479
0.00770668
0.00833112
0.00897825
0.00964823
0.0103412
0.0110574
0.0117968
0.0125597
0.0133461
0.0141562
0.0149902
0.0158482
0.0167303
0.0176367
0.0185677
0.0195233
0.0205039
0.0215095
0.0225405
0.0235971
0.0246796
0.0257881
0.0269228
0.028084
0.0292717
0.0304864
0.0317281
0.0329972
0.0342938
0.0356182
0.0369706
0.0383513
0.0397605
0.0411985
0.0426653
0.0441611
0.0456859
0.0472399
0.0488231
0.0504354
0.0520767
0.0537469
0.0554459
0.0571733
0.0589289
0.0607124
0.0625231
0.0643604
0.0662237
0.068112
0.0700244
0.0719598
0.0739168
0.075894
0.0778898
0.0799022
0.0819295
0.0839694
0.0860194
0.0880769
0.090139
0.0922026
0.0942645
0.0963211
0.0983687
0.100403
0.102421
0.104417
0.106387
0.108326
0.110229
0.112091
0.113907
0.115673
0.117382
0.11903
0.120612
0.122123
0.123559
0.124914
0.126186
0.12737
0.128463
0.129463
0.130368
0.131176
0.131886
0.132498
0.133013
0.133431
0.133755
0.133988
0.134132
0.134191
0.134171
0.134076
0.133911
0.133682
0.133395
0.133056
0.132671
0.132245
0.131783
0.131289
0.130771
0.130234
0.12963
0.128915
0.00325045
0.00281581
0.00244942
0.00212432
0.00181048
0.00150972
0.0012243
0.000954339
0.000699984
0.000461641
0.00023973
3.46093e-05
-0.000153389
-0.000323973
-0.000476912
-0.000612012
-0.000729124
-0.000828141
-0.000908959
-0.000971484
-0.00101565
-0.00104141
-0.00104868
-0.00103742
-0.0010076
-0.000959201
-0.000892197
-0.000806514
-0.000702096
-0.000578896
-0.000436827
-0.000275767
-9.55901e-05
0.000103828
0.000322629
0.000560988
0.000819102
0.00109714
0.00139527
0.00171365
0.0020525
0.00241197
0.00279223
0.00319337
0.00361558
0.00405902
0.0045239
0.00501038
0.00551863
0.00604883
0.00660118
0.00717584
0.00777293
0.00839258
0.00903494
0.00970018
0.0103884
0.0110999
0.0118345
0.0125926
0.0133742
0.0141795
0.0150087
0.0158618
0.0167391
0.0176406
0.0185665
0.0195171
0.0204925
0.0214929
0.0225186
0.0235698
0.0246467
0.0257495
0.0268784
0.0280335
0.0292151
0.0304234
0.0316585
0.0329207
0.0342102
0.0355272
0.036872
0.0382449
0.0396461
0.0410756
0.0425338
0.0440207
0.0455364
0.0470809
0.0486544
0.0502568
0.051888
0.0535478
0.0552362
0.0569529
0.0586976
0.06047
0.0622697
0.0640959
0.0659481
0.0678255
0.0697271
0.0716519
0.0735985
0.0755658
0.077552
0.0795554
0.0815742
0.0836062
0.0856491
0.0877003
0.089757
0.0918163
0.0938748
0.0959291
0.0979756
0.10001
0.102029
0.104028
0.106001
0.107946
0.109855
0.111725
0.113551
0.115326
0.117047
0.118707
0.120302
0.121827
0.123277
0.124647
0.125933
0.127132
0.128241
0.129255
0.130174
0.130995
0.131717
0.132341
0.132865
0.133292
0.133622
0.133859
0.134006
0.134065
0.134042
0.133941
0.133767
0.133526
0.133224
0.132865
0.132456
0.132002
0.131507
0.130976
0.130415
0.12983
0.129169
0.128384
0.00359426
0.00311122
0.00270746
0.00235285
0.00201358
0.00169132
0.00138816
0.00110386
0.000838167
0.000591102
0.000362696
0.000152984
-3.80127e-05
-0.000210303
-0.000363919
-0.000498906
-0.000615322
-0.000713233
-0.000792707
-0.000853786
-0.000896529
-0.000920973
-0.000927124
-0.00091501
-0.000884663
-0.000836087
-0.000769255
-0.000684131
-0.000580664
-0.000458782
-0.000318375
-0.000159308
1.85428e-05
0.000215318
0.000431202
0.000666404
0.000921119
0.00119552
0.00148981
0.00180422
0.00213896
0.0024942
0.0028701
0.00326681
0.00368452
0.00412344
0.00458375
0.00506562
0.00556924
0.00609482
0.00664255
0.00721256
0.007805
0.00842001
0.00905775
0.00971839
0.010402
0.0111088
0.0118388
0.0125922
0.0133692
0.0141698
0.0149943
0.0158426
0.0167151
0.0176117
0.0185327
0.0194783
0.0204486
0.0214438
0.0224641
0.0235098
0.0245811
0.0256782
0.0268011
0.0279501
0.0291253
0.030327
0.0315553
0.0328105
0.0340927
0.0354021
0.0367391
0.0381039
0.0394966
0.0409176
0.0423668
0.0438445
0.0453507
0.0468856
0.0484491
0.0500413
0.051662
0.0533112
0.0549887
0.0566945
0.0584282
0.0601895
0.061978
0.0637931
0.0656343
0.0675008
0.0693918
0.0713063
0.073243
0.0752008
0.077178
0.0791732
0.0811844
0.0832096
0.0852465
0.0872927
0.0893454
0.0914018
0.0934587
0.0955127
0.0975602
0.0995973
0.10162
0.103624
0.105604
0.107556
0.109476
0.111357
0.113194
0.114984
0.116719
0.118395
0.120006
0.121548
0.123016
0.124404
0.125709
0.126926
0.128052
0.129084
0.13002
0.130856
0.131593
0.132229
0.132765
0.1332
0.133538
0.133779
0.133927
0.133986
0.133959
0.133851
0.133667
0.133412
0.133091
0.132711
0.132276
0.131792
0.131262
0.130692
0.130087
0.129455
0.128738
0.127885
0.0039153
0.00338515
0.00294464
0.00256071
0.00219591
0.00185175
0.00153029
0.00123091
0.000953022
0.000696279
0.000460387
0.00024507
5.00439e-05
-0.000124965
-0.000280237
-0.000416051
-0.000532662
-0.000630308
-0.000709216
-0.000769584
-0.000811556
-0.000835268
-0.000840834
-0.000828354
-0.000797903
-0.000749507
-0.000683164
-0.00059887
-0.000496579
-0.000376183
-0.000237563
-8.05998e-05
9.48461e-05
0.000288955
0.000501934
0.000733991
0.000985328
0.00125616
0.00154671
0.00185725
0.002188
0.00253912
0.0029108
0.00330322
0.00371663
0.0041512
0.00460712
0.00508457
0.00558377
0.00610493
0.00664823
0.00721379
0.00780176
0.00841232
0.00904563
0.00970182
0.010381
0.0110833
0.0118088
0.0125577
0.0133302
0.0141263
0.0149461
0.0157899
0.0166576
0.0175495
0.0184657
0.0194063
0.0203715
0.0213615
0.0223766
0.0234168
0.0244825
0.0255736
0.0266905
0.0278332
0.029002
0.030197
0.0314183
0.0326663
0.033941
0.0352426
0.0365716
0.037928
0.0393121
0.0407241
0.0421641
0.0436323
0.0451287
0.0466536
0.0482068
0.0497885
0.0513984
0.0530367
0.0547031
0.0563977
0.0581201
0.0598701
0.0616473
0.0634512
0.0652813
0.067137
0.0690175
0.0709218
0.0728488
0.0747974
0.0767662
0.0787536
0.0807579
0.082777
0.0848089
0.0868512
0.0889011
0.0909561
0.0930129
0.0950683
0.0971187
0.0991602
0.101189
0.1032
0.10519
0.107153
0.109085
0.11098
0.112833
0.114639
0.116392
0.118087
0.119719
0.121282
0.122771
0.124181
0.125507
0.126746
0.127894
0.128946
0.129901
0.130755
0.131509
0.132159
0.132708
0.133154
0.133499
0.133746
0.133896
0.133953
0.133921
0.133805
0.133609
0.133338
0.132998
0.132594
0.132132
0.131616
0.13105
0.130439
0.129791
0.129112
0.128341
0.127423
0.004209
0.00363297
0.0031565
0.00274359
0.00235325
0.00198703
0.00164691
0.00133193
0.00104118
0.000774014
0.000529846
0.000308089
0.000108179
-7.04077e-05
-0.000228185
-0.000365644
-0.000483236
-0.000581377
-0.000660432
-0.000720733
-0.000762539
-0.000786077
-0.000791566
-0.000779173
-0.000749004
-0.000701129
-0.000635589
-0.000552385
-0.00045146
-0.000332707
-0.000196012
-4.12527e-05
0.000131735
0.000323161
0.00053324
0.000762174
0.00101018
0.00127752
0.00156446
0.00187126
0.00219812
0.00254526
0.00291289
0.00330124
0.00371052
0.00414094
0.00459267
0.00506594
0.00556097
0.00607795
0.00661703
0.00717837
0.00776212
0.00836846
0.00899756
0.00964952
0.0103244
0.0110224
0.0117437
0.0124883
0.0132564
0.0140482
0.0148636
0.0157029
0.0165662
0.0174535
0.018365
0.0193007
0.020261
0.0212459
0.0222556
0.0232904
0.0243503
0.0254356
0.0265463
0.0276827
0.0288449
0.0300331
0.0312474
0.032488
0.033755
0.0350487
0.0363694
0.0377173
0.0390925
0.0404952
0.0419257
0.043384
0.0448704
0.0463849
0.0479275
0.0494982
0.051097
0.052724
0.054379
0.056062
0.0577729
0.0595113
0.0612769
0.0630694
0.0648883
0.0667331
0.068603
0.0704972
0.0724147
0.0743543
0.0763149
0.0782949
0.0802927
0.0823065
0.0843341
0.0863732
0.0884215
0.0904761
0.0925342
0.0945925
0.0966474
0.0986951
0.100732
0.102753
0.104754
0.106731
0.108678
0.11059
0.112462
0.114288
0.116062
0.11778
0.119435
0.121022
0.122536
0.123972
0.125323
0.126587
0.127759
0.128835
0.129812
0.130688
0.131461
0.132128
0.132691
0.13315
0.133504
0.133756
0.133909
0.133965
0.133929
0.133804
0.133595
0.133308
0.132947
0.132518
0.132026
0.131477
0.130874
0.130223
0.12953
0.128804
0.12798
0.127
0.00447115
0.00385052
0.00333887
0.00289734
0.00248165
0.00209332
0.00173431
0.00140338
0.0010993
0.000821161
0.000568084
0.000339213
0.000133721
-4.91635e-05
-0.00021017
-0.000349988
-0.000469256
-0.000568557
-0.0006484
-0.000709211
-0.000751386
-0.000775274
-0.000781158
-0.000769253
-0.000739724
-0.000692696
-0.000628243
-0.000546356
-0.000446969
-0.000330002
-0.000195355
-4.288e-05
0.000127622
0.000316366
0.000523553
0.000749396
0.000994154
0.00125812
0.00154158
0.00184476
0.0021679
0.00251124
0.00287503
0.00325951
0.00366489
0.00409137
0.00453918
0.00500854
0.00549967
0.00601273
0.00654787
0.00710526
0.00768508
0.0082875
0.00891265
0.00956062
0.0102315
0.0109255
0.0116428
0.0123833
0.0131474
0.013935
0.0147463
0.0155813
0.0164402
0.0173231
0.0182301
0.0191612
0.0201165
0.0210964
0.022101
0.0231303
0.0241845
0.0252639
0.0263684
0.0274985
0.0286541
0.0298354
0.0310425
0.0322755
0.0335348
0.0348204
0.0361326
0.0374717
0.0388377
0.040231
0.0416516
0.0430998
0.0445757
0.0460794
0.0476109
0.0491703
0.0507576
0.0523729
0.0540161
0.0556873
0.0573861
0.0591126
0.0608664
0.0626472
0.0644547
0.0662883
0.0681475
0.0700314
0.0719392
0.07387
0.0758224
0.0777953
0.0797869
0.0817957
0.0838195
0.0858562
0.0879036
0.0899589
0.0920194
0.0940818
0.0961427
0.0981984
0.100245
0.102278
0.104293
0.106286
0.108251
0.110182
0.112075
0.113924
0.115724
0.117467
0.119149
0.120764
0.122307
0.123771
0.125152
0.126445
0.127644
0.128748
0.12975
0.13065
0.131445
0.132133
0.132713
0.133185
0.13355
0.133809
0.133966
0.134021
0.13398
0.133847
0.133625
0.13332
0.132937
0.132483
0.131961
0.131377
0.130737
0.130044
0.129307
0.128534
0.127658
0.126616
0.00469792
0.00403387
0.00348776
0.0030181
0.00257732
0.00216693
0.00178893
0.00144182
0.0011241
0.000834564
0.000572088
0.000335568
0.000123924
-6.38528e-05
-0.000228692
-0.000371479
-0.000493033
-0.000594071
-0.000675234
-0.000737083
-0.00078013
-0.000804822
-0.000811503
-0.000800449
-0.000771896
-0.000726015
-0.000662879
-0.000582486
-0.000484802
-0.000369761
-0.000237248
-8.70893e-05
8.09198e-05
0.000266981
0.000471302
0.000694133
0.000935769
0.00119651
0.00147662
0.00177635
0.00209595
0.00243571
0.0027959
0.00317675
0.00357847
0.00400131
0.00444549
0.00491125
0.00539877
0.00590821
0.00643972
0.00699351
0.00756974
0.00816857
0.00879008
0.00943439
0.0101016
0.0107919
0.0115055
0.0122423
0.0130025
0.0137862
0.0145936
0.0154246
0.0162795
0.0171581
0.0180607
0.0189873
0.019938
0.020913
0.0219124
0.0229364
0.023985
0.0250584
0.0261569
0.0272806
0.0284295
0.0296038
0.0308036
0.0320291
0.0332804
0.0345578
0.0358614
0.0371914
0.038548
0.0399314
0.0413419
0.0427796
0.0442446
0.0457371
0.0472572
0.0488048
0.0503802
0.0519834
0.0536144
0.0552732
0.0569597
0.0586737
0.0604153
0.062184
0.0639797
0.0658019
0.06765
0.0695235
0.0714214
0.0733431
0.0752874
0.0772531
0.0792387
0.0812426
0.083263
0.0852978
0.0873449
0.0894017
0.0914654
0.0935331
0.0956012
0.0976662
0.0997242
0.101771
0.103802
0.105813
0.107798
0.109752
0.111669
0.113544