/*--------------------------------*- C++ -*----------------------------------*\
  =========                 |
  \\      /  F ield         | OpenFOAM: The Open Source CFD Toolbox
   \\    /   O peration     | Website:  https://openfoam.org
    \\  /    A nd           | Version:  7
     \\/     M anipulation  |
\*---------------------------------------------------------------------------*/
FoamFile
{
    version     2.0;
    format      ascii;
    class       surfaceScalarField;
    location    "0.0875";
    object      phi;
}
// * * * * * * * * * * * * * * * * * * * * * * * * * * * * * * * * * * * * * //

dimensions      [0 3 -1 0 0 0 0];

internalField   nonuniform List<scalar> 
25360
(
6.99764e-11
-6.9973e-11
2.18135e-10
-1.48152e-10
3.63613e-10
-1.45481e-10
4.59973e-10
-9.63659e-11
4.81304e-10
-2.13353e-11
4.14334e-10
6.69727e-11
2.54001e-10
1.60333e-10
4.83112e-13
2.5352e-10
-3.4291e-10
3.43388e-10
-7.7102e-10
4.2812e-10
-1.27767e-09
5.06643e-10
-1.85609e-09
5.78422e-10
-2.49937e-09
6.4327e-10
-3.2006e-09
7.01231e-10
-3.95308e-09
7.52475e-10
-4.75039e-09
7.97314e-10
-5.58648e-09
8.36097e-10
-6.4557e-09
8.69227e-10
-7.35282e-09
8.97124e-10
-8.27303e-09
9.20205e-10
-9.21194e-09
9.38915e-10
-1.01656e-08
9.53662e-10
-1.11304e-08
9.64832e-10
-1.21032e-08
9.72806e-10
-1.30812e-08
9.77948e-10
-1.40618e-08
9.80579e-10
-1.50428e-08
9.81018e-10
-1.60223e-08
9.79559e-10
-1.69988e-08
9.76448e-10
-1.79707e-08
9.71912e-10
-1.89369e-08
9.66168e-10
-1.98963e-08
9.59408e-10
-2.08481e-08
9.51799e-10
-2.17916e-08
9.43488e-10
-2.27262e-08
9.34612e-10
-2.36515e-08
9.25286e-10
-2.45671e-08
9.15601e-10
-2.54727e-08
9.05645e-10
-2.63682e-08
8.95509e-10
-2.72535e-08
8.85257e-10
-2.81284e-08
8.74929e-10
-2.8993e-08
8.64565e-10
-2.98472e-08
8.54216e-10
-3.06911e-08
8.43924e-10
-3.15248e-08
8.3371e-10
-3.23484e-08
8.2359e-10
-3.3162e-08
8.13586e-10
-3.39657e-08
8.03724e-10
-3.47597e-08
7.94016e-10
-3.55442e-08
7.84464e-10
-3.63193e-08
7.75084e-10
-3.70852e-08
7.65894e-10
-3.78421e-08
7.569e-10
-3.85902e-08
7.48103e-10
-3.93297e-08
7.39509e-10
-4.00608e-08
7.31138e-10
-4.07838e-08
7.22998e-10
-4.14989e-08
7.15087e-10
-4.22063e-08
7.07399e-10
-4.29063e-08
6.99933e-10
-4.3599e-08
6.92698e-10
-4.42847e-08
6.85697e-10
-4.49636e-08
6.7892e-10
-4.56359e-08
6.72354e-10
-4.63019e-08
6.66e-10
-4.69618e-08
6.59859e-10
-4.76157e-08
6.53917e-10
-4.82639e-08
6.48157e-10
-4.89064e-08
6.42559e-10
-4.95435e-08
6.3711e-10
-5.01753e-08
6.31791e-10
-5.08019e-08
6.26582e-10
-5.14234e-08
6.21449e-10
-5.20397e-08
6.16355e-10
-5.2651e-08
6.11262e-10
-5.32571e-08
6.06131e-10
-5.3858e-08
6.00919e-10
-5.44536e-08
5.95568e-10
-5.50436e-08
5.90015e-10
-5.56278e-08
5.84198e-10
-5.62059e-08
5.78055e-10
-5.67774e-08
5.71513e-10
-5.73419e-08
5.64491e-10
-5.78988e-08
5.56897e-10
-5.84474e-08
5.48639e-10
-5.8987e-08
5.3962e-10
-5.95168e-08
5.29738e-10
-6.00356e-08
5.18887e-10
-6.05426e-08
5.0695e-10
-6.10364e-08
4.93798e-10
-6.15157e-08
4.79301e-10
-6.1979e-08
4.63325e-10
-6.24248e-08
4.45733e-10
-6.28511e-08
4.26382e-10
-6.32563e-08
4.0512e-10
-6.3638e-08
3.81796e-10
-6.39943e-08
3.56258e-10
-6.43227e-08
3.28358e-10
-6.46206e-08
2.97948e-10
-6.48855e-08
2.6488e-10
-6.51145e-08
2.29011e-10
-6.53047e-08
1.90206e-10
-6.5453e-08
1.48337e-10
-6.55563e-08
1.03287e-10
-6.56113e-08
5.49525e-11
-6.56145e-08
3.24464e-12
-6.55626e-08
-5.19109e-11
-6.54521e-08
-1.10572e-10
-6.52793e-08
-1.72769e-10
-6.50408e-08
-2.385e-10
-6.4733e-08
-3.07731e-10
-6.43527e-08
-3.80397e-10
-6.38962e-08
-4.56401e-10
-6.33606e-08
-5.35606e-10
-6.27428e-08
-6.17833e-10
-6.204e-08
-7.02856e-10
-6.12495e-08
-7.90407e-10
-6.03694e-08
-8.80166e-10
-5.93976e-08
-9.71769e-10
-5.83328e-08
-1.0648e-09
-5.7174e-08
-1.15879e-09
-5.59208e-08
-1.25322e-09
-5.45733e-08
-1.3475e-09
-5.31323e-08
-1.44104e-09
-5.15991e-08
-1.53314e-09
-4.9976e-08
-1.62313e-09
-4.82658e-08
-1.71024e-09
-4.64721e-08
-1.79371e-09
-4.45993e-08
-1.87273e-09
-4.26528e-08
-1.9465e-09
-4.06386e-08
-2.01418e-09
-3.85637e-08
-2.07493e-09
-3.64358e-08
-2.12793e-09
-3.42634e-08
-2.17237e-09
-3.2056e-08
-2.20746e-09
-2.98235e-08
-2.23245e-09
-2.75769e-08
-2.24661e-09
-2.53276e-08
-2.2493e-09
-2.30877e-08
-2.23991e-09
-2.08698e-08
-2.21791e-09
-1.86869e-08
-2.18284e-09
-1.65526e-08
-2.13433e-09
-1.44805e-08
-2.07206e-09
-1.24847e-08
-1.99584e-09
-1.05791e-08
-1.90556e-09
-8.77797e-09
-1.80118e-09
-7.0952e-09
-1.68277e-09
-5.54468e-09
-1.55052e-09
-4.13992e-09
-1.40476e-09
-2.89396e-09
-1.24596e-09
-1.81911e-09
-1.07486e-09
-9.26589e-10
-8.92517e-10
-2.2599e-10
-7.00599e-10
2.75789e-10
-5.01777e-10
5.76276e-10
-3.00487e-10
6.80614e-10
-1.04337e-10
6.07343e-10
7.32701e-11
3.99141e-10
2.08202e-10
1.44019e-10
2.5512e-10
1.44018e-10
1.54259e-10
-2.24226e-10
3.95627e-10
-3.89534e-10
5.90225e-10
-3.40075e-10
6.52055e-10
-1.58191e-10
5.25453e-10
1.05257e-10
1.77933e-10
4.14486e-10
-4.05786e-10
7.44055e-10
-1.22909e-09
1.07682e-09
-2.28708e-09
1.40139e-09
-3.5695e-09
1.71053e-09
-5.06254e-09
1.99969e-09
-6.75036e-09
2.26625e-09
-8.61602e-09
2.50893e-09
-1.06421e-08
2.72735e-09
-1.28115e-08
2.92182e-09
-1.51073e-08
3.09308e-09
-1.75134e-08
3.24219e-09
-2.00146e-08
3.37043e-09
-2.25966e-08
3.47916e-09
-2.52462e-08
3.56984e-09
-2.79513e-08
3.64395e-09
-3.07006e-08
3.70296e-09
-3.3484e-08
3.74828e-09
-3.62925e-08
3.7813e-09
-3.91179e-08
3.80332e-09
-4.19529e-08
3.81556e-09
-4.47911e-08
3.81919e-09
-4.76268e-08
3.81527e-09
-5.04551e-08
3.80476e-09
-5.32717e-08
3.78856e-09
-5.6073e-08
3.76748e-09
-5.88559e-08
3.74224e-09
-6.16176e-08
3.71349e-09
-6.43559e-08
3.68183e-09
-6.7069e-08
3.64777e-09
-6.97555e-08
3.61176e-09
-7.24141e-08
3.57419e-09
-7.50439e-08
3.53541e-09
-7.76441e-08
3.49574e-09
-8.02143e-08
3.45543e-09
-8.2754e-08
3.41471e-09
-8.52632e-08
3.37375e-09
-8.77417e-08
3.33274e-09
-9.01896e-08
3.29182e-09
-9.26071e-08
3.25111e-09
-9.49942e-08
3.21071e-09
-9.73513e-08
3.17072e-09
-9.96788e-08
3.1312e-09
-1.01977e-07
3.09222e-09
-1.04246e-07
3.05384e-09
-1.06487e-07
3.0161e-09
-1.08701e-07
2.97906e-09
-1.10886e-07
2.94276e-09
-1.13046e-07
2.90721e-09
-1.15178e-07
2.87244e-09
-1.17286e-07
2.8385e-09
-1.19368e-07
2.8054e-09
-1.21426e-07
2.77316e-09
-1.23461e-07
2.74179e-09
-1.25472e-07
2.71128e-09
-1.27461e-07
2.68165e-09
-1.29428e-07
2.65288e-09
-1.31374e-07
2.62496e-09
-1.333e-07
2.59786e-09
-1.35205e-07
2.57157e-09
-1.37091e-07
2.54604e-09
-1.38959e-07
2.52124e-09
-1.40808e-07
2.49712e-09
-1.42639e-07
2.47359e-09
-1.44452e-07
2.45059e-09
-1.46249e-07
2.42805e-09
-1.48028e-07
2.40587e-09
-1.4979e-07
2.38392e-09
-1.51536e-07
2.36208e-09
-1.53265e-07
2.34019e-09
-1.54977e-07
2.3181e-09
-1.56672e-07
2.29562e-09
-1.58349e-07
2.27254e-09
-1.60007e-07
2.24865e-09
-1.61647e-07
2.22368e-09
-1.63266e-07
2.1974e-09
-1.64864e-07
2.1695e-09
-1.66439e-07
2.1397e-09
-1.6799e-07
2.10764e-09
-1.69514e-07
2.07299e-09
-1.7101e-07
2.03537e-09
-1.72475e-07
1.99438e-09
-1.73905e-07
1.94961e-09
-1.75299e-07
1.90061e-09
-1.76652e-07
1.84691e-09
-1.77961e-07
1.78803e-09
-1.79221e-07
1.72345e-09
-1.80428e-07
1.65266e-09
-1.81577e-07
1.57512e-09
-1.82662e-07
1.49029e-09
-1.83678e-07
1.3976e-09
-1.84618e-07
1.29651e-09
-1.85476e-07
1.18646e-09
-1.86245e-07
1.06689e-09
-1.86917e-07
9.37285e-10
-1.87486e-07
7.97109e-10
-1.87941e-07
6.45874e-10
-1.88276e-07
4.83123e-10
-1.88481e-07
3.08439e-10
-1.88548e-07
1.21454e-10
-1.88466e-07
-7.81437e-11
-1.88228e-07
-2.90599e-10
-1.87822e-07
-5.16077e-10
-1.8724e-07
-7.54651e-10
-1.86472e-07
-1.00629e-09
-1.85509e-07
-1.27083e-09
-1.84342e-07
-1.54801e-09
-1.82961e-07
-1.83742e-09
-1.81358e-07
-2.13851e-09
-1.79525e-07
-2.45057e-09
-1.77455e-07
-2.77273e-09
-1.75142e-07
-3.10395e-09
-1.72579e-07
-3.44301e-09
-1.69762e-07
-3.78851e-09
-1.66688e-07
-4.13888e-09
-1.63354e-07
-4.49233e-09
-1.59761e-07
-4.84691e-09
-1.55908e-07
-5.20048e-09
-1.51798e-07
-5.55072e-09
-1.47436e-07
-5.89515e-09
-1.42828e-07
-6.23115e-09
-1.37982e-07
-6.55596e-09
-1.32909e-07
-6.86671e-09
-1.27622e-07
-7.16044e-09
-1.22134e-07
-7.43414e-09
-1.16463e-07
-7.68473e-09
-1.10629e-07
-7.90915e-09
-1.04653e-07
-8.10437e-09
-9.85577e-08
-8.2674e-09
-9.23698e-08
-8.39535e-09
-8.61168e-08
-8.48546e-09
-7.98282e-08
-8.53514e-09
-7.35356e-08
-8.54197e-09
-6.72717e-08
-8.50378e-09
-6.1071e-08
-8.41866e-09
-5.49688e-08
-8.28497e-09
-4.90018e-08
-8.10137e-09
-4.3207e-08
-7.86688e-09
-3.76219e-08
-7.58085e-09
-3.22845e-08
-7.24301e-09
-2.72321e-08
-6.85351e-09
-2.2502e-08
-6.41294e-09
-1.81301e-08
-5.9224e-09
-1.41512e-08
-5.38366e-09
-1.05979e-08
-4.79928e-09
-7.49979e-09
-4.17294e-09
-4.88237e-09
-3.50994e-09
-2.76497e-09
-2.818e-09
-1.15805e-09
-2.10869e-09
-5.88632e-11
-1.39967e-09
5.55319e-10
-7.18518e-10
7.37252e-10
-1.08661e-10
5.84008e-10
3.61446e-10
2.54315e-10
5.84813e-10
3.98333e-10
1.59101e-10
-3.83331e-10
3.64091e-10
-5.94515e-10
4.55326e-10
-4.31315e-10
3.28794e-10
-3.16529e-11
-8.51933e-11
5.19235e-10
-8.29321e-10
1.15862e-09
-1.92549e-09
1.84022e-09
-3.37995e-09
2.53128e-09
-5.18768e-09
3.20911e-09
-7.33556e-09
3.85842e-09
-9.80504e-09
4.46917e-09
-1.2574e-08
5.03519e-09
-1.56182e-08
5.5531e-09
-1.89123e-08
6.02148e-09
-2.24309e-08
6.4404e-09
-2.61487e-08
6.81098e-09
-3.00416e-08
7.13505e-09
-3.40861e-08
7.41496e-09
-3.82604e-08
7.65341e-09
-4.25438e-08
7.85325e-09
-4.69173e-08
8.01748e-09
-5.13634e-08
8.14907e-09
-5.58661e-08
8.25098e-09
-6.04109e-08
8.32605e-09
-6.49846e-08
8.37704e-09
-6.95756e-08
8.40654e-09
-7.41734e-08
8.417e-09
-7.87688e-08
8.41068e-09
-8.33537e-08
8.38968e-09
-8.79211e-08
8.35591e-09
-9.24647e-08
8.31113e-09
-9.69794e-08
8.25692e-09
-1.01461e-07
8.19471e-09
-1.05905e-07
8.12578e-09
-1.10308e-07
8.05127e-09
-1.14668e-07
7.97218e-09
-1.18984e-07
7.8894e-09
-1.23252e-07
7.8037e-09
-1.27472e-07
7.71578e-09
-1.31643e-07
7.62623e-09
-1.35764e-07
7.53555e-09
-1.39834e-07
7.44418e-09
-1.43854e-07
7.35253e-09
-1.47823e-07
7.26091e-09
-1.51742e-07
7.16962e-09
-1.5561e-07
7.0789e-09
-1.59428e-07
6.98896e-09
-1.63197e-07
6.89999e-09
-1.66917e-07
6.81213e-09
-1.70588e-07
6.72551e-09
-1.74212e-07
6.64028e-09
-1.7779e-07
6.55653e-09
-1.81322e-07
6.47434e-09
-1.84808e-07
6.39379e-09
-1.88251e-07
6.31495e-09
-1.9165e-07
6.23788e-09
-1.95007e-07
6.16262e-09
-1.98323e-07
6.08921e-09
-2.01599e-07
6.01767e-09
-2.04836e-07
5.94802e-09
-2.08034e-07
5.88024e-09
-2.11196e-07
5.81434e-09
-2.14321e-07
5.75026e-09
-2.17411e-07
5.68796e-09
-2.20467e-07
5.62738e-09
-2.2349e-07
5.56845e-09
-2.26479e-07
5.51106e-09
-2.29437e-07
5.45509e-09
-2.32364e-07
5.40039e-09
-2.3526e-07
5.3468e-09
-2.38126e-07
5.29413e-09
-2.40963e-07
5.24216e-09
-2.43769e-07
5.19063e-09
-2.46547e-07
5.13925e-09
-2.49294e-07
5.08769e-09
-2.52012e-07
5.03559e-09
-2.54699e-07
4.98256e-09
-2.57354e-07
4.92813e-09
-2.59977e-07
4.87183e-09
-2.62567e-07
4.81311e-09
-2.65121e-07
4.75142e-09
-2.67637e-07
4.68613e-09
-2.70114e-07
4.61657e-09
-2.72549e-07
4.54202e-09
-2.74937e-07
4.46174e-09
-2.77277e-07
4.37489e-09
-2.79563e-07
4.28063e-09
-2.81792e-07
4.17804e-09
-2.83957e-07
4.06618e-09
-2.86054e-07
3.94403e-09
-2.88077e-07
3.81055e-09
-2.90018e-07
3.66465e-09
-2.91871e-07
3.50523e-09
-2.93627e-07
3.33115e-09
-2.95278e-07
3.14124e-09
-2.96814e-07
2.93432e-09
-2.98227e-07
2.70922e-09
-2.99505e-07
2.46477e-09
-3.00638e-07
2.19981e-09
-3.01614e-07
1.91321e-09
-3.02421e-07
1.60389e-09
-3.03046e-07
1.27083e-09
-3.03476e-07
9.13061e-10
-3.03697e-07
5.29737e-10
-3.03696e-07
1.20107e-10
-3.03457e-07
-3.16453e-10
-3.02968e-07
-7.80413e-10
-3.02212e-07
-1.27207e-09
-3.01175e-07
-1.79153e-09
-2.99842e-07
-2.33866e-09
-2.982e-07
-2.91309e-09
-2.96234e-07
-3.51418e-09
-2.9393e-07
-4.14101e-09
-2.91277e-07
-4.79235e-09
-2.88261e-07
-5.46663e-09
-2.84871e-07
-6.16194e-09
-2.81099e-07
-6.87602e-09
-2.76936e-07
-7.60622e-09
-2.72375e-07
-8.34951e-09
-2.67411e-07
-9.10246e-09
-2.62043e-07
-9.86127e-09
-2.56268e-07
-1.06217e-08
-2.50089e-07
-1.13793e-08
-2.43511e-07
-1.21289e-08
-2.3654e-07
-1.28655e-08
-2.29188e-07
-1.35833e-08
-2.21468e-07
-1.42765e-08
-2.13395e-07
-1.4939e-08
-2.04991e-07
-1.55646e-08
-1.96279e-07
-1.61468e-08
-1.87284e-07
-1.66792e-08
-1.78038e-07
-1.71553e-08
-1.68574e-07
-1.75687e-08
-1.58928e-07
-1.7913e-08
-1.49141e-07
-1.81823e-08
-1.39256e-07
-1.83706e-08
-1.29319e-07
-1.84726e-08
-1.19377e-07
-1.84832e-08
-1.09483e-07
-1.83979e-08
-9.96891e-08
-1.82127e-08
-9.00499e-08
-1.79242e-08
-8.06215e-08
-1.75298e-08
-7.14609e-08
-1.70275e-08
-6.26255e-08
-1.64162e-08
-5.41729e-08
-1.56956e-08
-4.61601e-08
-1.48664e-08
-3.86427e-08
-1.39303e-08
-3.16748e-08
-1.28904e-08
-2.53073e-08
-1.17511e-08
-1.95875e-08
-1.05191e-08
-1.45573e-08
-9.2032e-09
-1.02509e-08
-7.81625e-09
-6.69288e-09
-6.37607e-09
-3.89337e-09
-4.90819e-09
-1.8434e-09
-3.44964e-09
-5.07129e-10
-2.05479e-09
1.88246e-10
-8.04035e-10
3.64806e-10
1.84887e-10
2.08063e-10
7.41553e-10
6.06397e-10
1.08613e-10
-4.91952e-10
1.8358e-10
-6.69478e-10
6.23451e-11
-3.10074e-10
-3.64294e-10
3.94981e-10
-1.17048e-09
1.32542e-09
-2.40258e-09
2.39072e-09
-4.08509e-09
3.52274e-09
-6.22542e-09
4.67161e-09
-8.81803e-09
5.80173e-09
-1.18478e-08
6.88816e-09
-1.52926e-08
7.91402e-09
-1.91259e-08
8.86845e-09
-2.33178e-08
9.74504e-09
-2.78371e-08
1.05407e-08
-3.26517e-08
1.1255e-08
-3.77297e-08
1.1889e-08
-4.30401e-08
1.24454e-08
-4.85529e-08
1.29277e-08
-5.42395e-08
1.334e-08
-6.00732e-08
1.36869e-08
-6.60288e-08
1.39731e-08
-7.20833e-08
1.42036e-08
-7.82154e-08
1.43831e-08
-8.44057e-08
1.45163e-08
-9.06366e-08
1.4608e-08
-9.68923e-08
1.46623e-08
-1.03159e-07
1.46834e-08
-1.09423e-07
1.46751e-08
-1.15674e-07
1.4641e-08
-1.21903e-07
1.45845e-08
-1.281e-07
1.45083e-08
-1.34259e-07
1.44154e-08
-1.40372e-07
1.43082e-08
-1.46435e-07
1.41888e-08
-1.52443e-07
1.40593e-08
-1.58393e-07
1.39215e-08
-1.6428e-07
1.37768e-08
-1.70103e-07
1.36267e-08
-1.7586e-07
1.34723e-08
-1.81548e-07
1.33148e-08
-1.87168e-07
1.3155e-08
-1.92717e-07
1.29938e-08
-1.98197e-07
1.28318e-08
-2.03605e-07
1.26697e-08
-2.08944e-07
1.25079e-08
-2.14212e-07
1.23469e-08
-2.1941e-07
1.21872e-08
-2.24539e-07
1.2029e-08
-2.29599e-07
1.18726e-08
-2.34592e-07
1.17183e-08
-2.39518e-07
1.15664e-08
-2.44379e-07
1.14169e-08
-2.49174e-07
1.12701e-08
-2.53907e-07
1.11261e-08
-2.58577e-07
1.09851e-08
-2.63186e-07
1.08471e-08
-2.67735e-07
1.07121e-08
-2.72227e-07
1.05804e-08
-2.76661e-07
1.04519e-08
-2.81039e-07
1.03266e-08
-2.85364e-07
1.02045e-08
-2.89635e-07
1.00856e-08
-2.93855e-07
9.96989e-09
-2.98024e-07
9.8572e-09
-3.02144e-07
9.74744e-09
-3.06216e-07
9.64049e-09
-3.10241e-07
9.53615e-09
-3.1422e-07
9.4342e-09
-3.18154e-07
9.33439e-09
-3.22044e-07
9.23643e-09
-3.2589e-07
9.13997e-09
-3.29692e-07
9.04461e-09
-3.33451e-07
8.94991e-09
-3.37167e-07
8.85536e-09
-3.4084e-07
8.76039e-09
-3.44469e-07
8.66436e-09
-3.48053e-07
8.56658e-09
-3.51591e-07
8.46628e-09
-3.55082e-07
8.36261e-09
-3.58523e-07
8.25465e-09
-3.61913e-07
8.14141e-09
-3.65249e-07
8.02184e-09
-3.68527e-07
7.89476e-09
-3.71744e-07
7.75897e-09
-3.74896e-07
7.61313e-09
-3.77977e-07
7.45587e-09
-3.80982e-07
7.2857e-09
-3.83905e-07
7.10107e-09
-3.86739e-07
6.90035e-09
-3.89477e-07
6.68183e-09
-3.9211e-07
6.44372e-09
-3.94629e-07
6.18421e-09
-3.97026e-07
5.90139e-09
-3.99288e-07
5.59334e-09
-4.01405e-07
5.2581e-09
-4.03364e-07
4.89368e-09
-4.05153e-07
4.4981e-09
-4.06758e-07
4.0694e-09
-4.08163e-07
3.60564e-09
-4.09355e-07
3.10494e-09
-4.10317e-07
2.56549e-09
-4.11031e-07
1.98558e-09
-4.11482e-07
1.36366e-09
-4.11651e-07
6.98311e-10
-4.11519e-07
-1.16812e-11
-4.11068e-07
-7.67307e-10
-4.10279e-07
-1.5693e-09
-4.09133e-07
-2.41809e-09
-4.07611e-07
-3.31376e-09
-4.05693e-07
-4.25604e-09
-4.03362e-07
-5.2442e-09
-4.00599e-07
-6.27711e-09
-3.97387e-07
-7.35312e-09
-3.9371e-07
-8.47006e-09
-3.89551e-07
-9.6252e-09
-3.84898e-07
-1.08152e-08
-3.79737e-07
-1.20363e-08
-3.7406e-07
-1.32837e-08
-3.67857e-07
-1.45525e-08
-3.61123e-07
-1.58366e-08
-3.53855e-07
-1.71296e-08
-3.46052e-07
-1.84243e-08
-3.37718e-07
-1.97131e-08
-3.2886e-07
-2.09875e-08
-3.19487e-07
-2.22385e-08
-3.09613e-07
-2.34568e-08
-2.99257e-07
-2.46325e-08
-2.88441e-07
-2.57553e-08
-2.77191e-07
-2.68146e-08
-2.65538e-07
-2.77996e-08
-2.53518e-07
-2.86995e-08
-2.4117e-07
-2.95034e-08
-2.28538e-07
-3.02004e-08
-2.15671e-07
-3.07801e-08
-2.02621e-07
-3.12323e-08
-1.89444e-07
-3.15472e-08
-1.76201e-07
-3.17158e-08
-1.62954e-07
-3.17297e-08
-1.49771e-07
-3.15813e-08
-1.3672e-07
-3.1264e-08
-1.23871e-07
-3.07725e-08
-1.11299e-07
-3.01023e-08
-9.90758e-08
-2.92505e-08
-8.72765e-08
-2.82155e-08
-7.59748e-08
-2.69973e-08
-6.52436e-08
-2.55975e-08
-5.5154e-08
-2.40199e-08
-4.57741e-08
-2.22703e-08
-3.71677e-08
-2.03575e-08
-2.93931e-08
-1.82936e-08
-2.25011e-08
-1.60953e-08
-1.65322e-08
-1.37851e-08
-1.15139e-08
-1.13943e-08
-7.45638e-09
-8.96573e-09
-4.34701e-09
-6.55902e-09
-2.14374e-09
-4.25806e-09
-7.66631e-10
-2.18114e-09
-8.8257e-11
-4.93486e-10
7.76129e-11
5.75683e-10
6.84008e-10
2.97884e-11
-5.21743e-10
-8.74427e-11
-5.52254e-10
-4.98866e-10
1.01341e-10
-1.30812e-09
1.20423e-09
-2.58632e-09
2.60362e-09
-4.37836e-09
4.18276e-09
-6.70775e-09
5.85212e-09
-9.58093e-09
7.54479e-09
-1.29909e-08
9.21168e-09
-1.69203e-08
1.08176e-08
-2.13442e-08
1.23379e-08
-2.62321e-08
1.37564e-08
-3.155e-08
1.50629e-08
-3.72617e-08
1.62524e-08
-4.33299e-08
1.73232e-08
-4.97173e-08
1.82765e-08
-5.63873e-08
1.91154e-08
-6.33042e-08
1.98446e-08
-7.04341e-08
2.04699e-08
-7.77447e-08
2.09975e-08
-8.52058e-08
2.14343e-08
-9.27895e-08
2.17872e-08
-1.0047e-07
2.20632e-08
-1.08223e-07
2.22693e-08
-1.16027e-07
2.24121e-08
-1.23863e-07
2.24981e-08
-1.31712e-07
2.25332e-08
-1.39561e-07
2.25233e-08
-1.47393e-07
2.24737e-08
-1.55198e-07
2.23892e-08
-1.62964e-07
2.22744e-08
-1.70682e-07
2.21334e-08
-1.78344e-07
2.197e-08
-1.85942e-07
2.17875e-08
-1.93472e-07
2.15889e-08
-2.00928e-07
2.13771e-08
-2.08305e-07
2.11542e-08
-2.15601e-07
2.09226e-08
-2.22813e-07
2.0684e-08
-2.29938e-07
2.04402e-08
-2.36976e-07
2.01925e-08
-2.43924e-07
1.99422e-08
-2.50783e-07
1.96904e-08
-2.57551e-07
1.94381e-08
-2.64229e-07
1.91861e-08
-2.70818e-07
1.89351e-08
-2.77316e-07
1.86858e-08
-2.83726e-07
1.84387e-08
-2.90048e-07
1.81942e-08
-2.96282e-07
1.79528e-08
-3.02431e-07
1.77149e-08
-3.08494e-07
1.74807e-08
-3.14475e-07
1.72505e-08
-3.20373e-07
1.70245e-08
-3.26191e-07
1.68029e-08
-3.3193e-07
1.6586e-08
-3.37591e-07
1.63737e-08
-3.43177e-07
1.61662e-08
-3.48689e-07
1.59636e-08
-3.54128e-07
1.57659e-08
-3.59497e-07
1.55731e-08
-3.64796e-07
1.53851e-08
-3.70028e-07
1.52019e-08
-3.75194e-07
1.50232e-08
-3.80296e-07
1.4849e-08
-3.85334e-07
1.4679e-08
-3.90311e-07
1.45129e-08
-3.95227e-07
1.43503e-08
-4.00084e-07
1.4191e-08
-4.04882e-07
1.40343e-08
-4.09622e-07
1.38799e-08
-4.14304e-07
1.3727e-08
-4.18929e-07
1.35749e-08
-4.23497e-07
1.3423e-08
-4.28006e-07
1.32702e-08
-4.32458e-07
1.31157e-08
-4.3685e-07
1.29584e-08
-4.41181e-07
1.27971e-08
-4.45449e-07
1.26305e-08
-4.49651e-07
1.24573e-08
-4.53786e-07
1.22759e-08
-4.57848e-07
1.20846e-08
-4.61835e-07
1.18819e-08
-4.65742e-07
1.16657e-08
-4.69563e-07
1.14341e-08
-4.73292e-07
1.11851e-08
-4.76923e-07
1.09163e-08
-4.80447e-07
1.06255e-08
-4.83857e-07
1.03101e-08
-4.87143e-07
9.96771e-09
-4.90295e-07
9.59557e-09
-4.93302e-07
9.19095e-09
-4.96151e-07
8.75104e-09
-4.98831e-07
8.27295e-09
-5.01326e-07
7.75377e-09
-5.03623e-07
7.19055e-09
-5.05706e-07
6.58036e-09
-5.07556e-07
5.92027e-09
-5.09158e-07
5.20744e-09
-5.10492e-07
4.43908e-09
-5.11539e-07
3.61255e-09
-5.12279e-07
2.72535e-09
-5.12691e-07
1.7752e-09
-5.12753e-07
7.60075e-10
-5.12442e-07
-3.21783e-10
-5.11738e-07
-1.47177e-09
-5.10616e-07
-2.69089e-09
-5.09055e-07
-3.97969e-09
-5.0703e-07
-5.33821e-09
-5.0452e-07
-6.76593e-09
-5.01503e-07
-8.2617e-09
-4.97956e-07
-9.82369e-09
-4.9386e-07
-1.14494e-08
-4.89195e-07
-1.31354e-08
-4.83943e-07
-1.48775e-08
-4.78087e-07
-1.66709e-08
-4.71614e-07
-1.85094e-08
-4.64511e-07
-2.03864e-08
-4.5677e-07
-2.22938e-08
-4.48383e-07
-2.4223e-08
-4.39349e-07
-2.61642e-08
-4.29666e-07
-2.81067e-08
-4.1934e-07
-3.0039e-08
-4.08379e-07
-3.19484e-08
-3.96796e-07
-3.38217e-08
-3.84608e-07
-3.56449e-08
-3.71837e-07
-3.74033e-08
-3.58511e-07
-3.90815e-08
-3.44662e-07
-4.06638e-08
-3.30327e-07
-4.21344e-08
-3.1555e-07
-4.3477e-08
-3.00378e-07
-4.46754e-08
-2.84864e-07
-4.57139e-08
-2.69068e-07
-4.65766e-08
-2.53051e-07
-4.72487e-08
-2.36883e-07
-4.77156e-08
-2.20635e-07
-4.79641e-08
-2.04383e-07
-4.79818e-08
-1.88206e-07
-4.77576e-08
-1.72188e-07
-4.72821e-08
-1.56414e-07
-4.65472e-08
-1.40969e-07
-4.55468e-08
-1.25943e-07
-4.42769e-08
-1.11422e-07
-4.27356e-08
-9.74964e-08
-4.09234e-08
-8.42504e-08
-3.88435e-08
-7.17681e-08
-3.65022e-08
-6.01291e-08
-3.39094e-08
-4.94075e-08
-3.10791e-08
-3.96704e-08
-2.80307e-08
-3.09755e-08
-2.47902e-08
-2.33685e-08
-2.13921e-08
-1.68801e-08
-1.78828e-08
-1.15216e-08
-1.43242e-08
-7.28078e-09
-1.07998e-08
-4.11603e-09
-7.42281e-09
-1.95021e-09
-4.34696e-09
-6.64335e-10
-1.77936e-09
-9.03044e-11
1.65693e-12
5.93706e-10
-6.28882e-11
-4.58854e-10
-4.10149e-10
-2.05001e-10
-1.16395e-09
8.55154e-10
-2.41417e-09
2.45444e-09
-4.2231e-09
4.41256e-09
-6.62982e-09
6.58948e-09
-9.65376e-09
8.87607e-09
-1.32982e-08
1.11892e-08
-1.75534e-08
1.34668e-08
-2.23991e-08
1.56633e-08
-2.78073e-08
1.77461e-08
-3.37443e-08
1.96933e-08
-4.01721e-08
2.14908e-08
-4.70506e-08
2.31309e-08
-5.43382e-08
2.46107e-08
-6.19929e-08
2.59312e-08
-6.99735e-08
2.70959e-08
-7.82395e-08
2.81107e-08
-8.67525e-08
2.89828e-08
-9.54755e-08
2.97205e-08
-1.04374e-07
3.03327e-08
-1.13415e-07
3.08286e-08
-1.2257e-07
3.12177e-08
-1.3181e-07
3.15092e-08
-1.4111e-07
3.17122e-08
-1.50447e-07
3.18354e-08
-1.59801e-07
3.18872e-08
-1.69153e-07
3.18753e-08
-1.78486e-07
3.18071e-08
-1.87787e-07
3.16894e-08
-1.97041e-07
3.15285e-08
-2.06237e-07
3.13301e-08
-2.15367e-07
3.10994e-08
-2.24421e-07
3.08413e-08
-2.33392e-07
3.05598e-08
-2.42273e-07
3.02589e-08
-2.51061e-07
2.9942e-08
-2.59751e-07
2.9612e-08
-2.68338e-07
2.92717e-08
-2.76821e-07
2.89234e-08
-2.85198e-07
2.85692e-08
-2.93467e-07
2.82109e-08
-3.01626e-07
2.78501e-08
-3.09676e-07
2.74881e-08
-3.17617e-07
2.71263e-08
-3.25447e-07
2.67657e-08
-3.33168e-07
2.64071e-08
-3.40781e-07
2.60514e-08
-3.48286e-07
2.56993e-08
-3.55685e-07
2.53514e-08
-3.62978e-07
2.50082e-08
-3.70168e-07
2.46702e-08
-3.77255e-07
2.43377e-08
-3.84241e-07
2.40111e-08
-3.91129e-07
2.36907e-08
-3.9792e-07
2.33767e-08
-4.04615e-07
2.30693e-08
-4.11218e-07
2.27686e-08
-4.17729e-07
2.24747e-08
-4.24151e-07
2.21877e-08
-4.30485e-07
2.19075e-08
-4.36734e-07
2.1634e-08
-4.42899e-07
2.13672e-08
-4.48983e-07
2.11068e-08
-4.54986e-07
2.08525e-08
-4.60911e-07
2.06041e-08
-4.6676e-07
2.03611e-08
-4.72532e-07
2.01231e-08
-4.78231e-07
1.98894e-08
-4.83856e-07
1.96594e-08
-4.89408e-07
1.94324e-08
-4.94889e-07
1.92074e-08
-5.00297e-07
1.89835e-08
-5.05634e-07
1.87595e-08
-5.10898e-07
1.85343e-08
-5.16089e-07
1.83065e-08
-5.21205e-07
1.80745e-08
-5.26244e-07
1.78367e-08
-5.31205e-07
1.75914e-08
-5.36085e-07
1.73365e-08
-5.40879e-07
1.707e-08
-5.45584e-07
1.67896e-08
-5.50195e-07
1.64929e-08
-5.54706e-07
1.61772e-08
-5.59112e-07
1.58398e-08
-5.63404e-07
1.54777e-08
-5.67576e-07
1.5088e-08
-5.71618e-07
1.46672e-08
-5.7552e-07
1.42121e-08
-5.79271e-07
1.37191e-08
-5.8286e-07
1.31845e-08
-5.86274e-07
1.26045e-08
-5.89498e-07
1.19752e-08
-5.92518e-07
1.12928e-08
-5.95317e-07
1.0553e-08
-5.97879e-07
9.75202e-09
-6.00184e-07
8.8857e-09
-6.02214e-07
7.95009e-09
-6.03948e-07
6.94128e-09
-6.05364e-07
5.8555e-09
-6.06441e-07
4.68915e-09
-6.07154e-07
3.43887e-09
-6.07481e-07
2.10157e-09
-6.07395e-07
6.7453e-10
-6.06872e-07
-8.44565e-10
-6.05886e-07
-2.45755e-09
-6.04412e-07
-4.16571e-09
-6.02422e-07
-5.96968e-09
-5.9989e-07
-7.86942e-09
-5.96792e-07
-9.86408e-09
-5.93102e-07
-1.1952e-08
-5.88795e-07
-1.41304e-08
-5.83849e-07
-1.63959e-08
-5.78241e-07
-1.87436e-08
-5.7195e-07
-2.11677e-08
-5.6496e-07
-2.36612e-08
-5.57254e-07
-2.62158e-08
-5.48818e-07
-2.8822e-08
-5.39643e-07
-3.14689e-08
-5.29721e-07
-3.41444e-08
-5.19051e-07
-3.68349e-08
-5.07632e-07
-3.95258e-08
-4.9547e-07
-4.2201e-08
-4.82575e-07
-4.48432e-08
-4.68962e-07
-4.74343e-08
-4.54652e-07
-4.99548e-08
-4.39671e-07
-5.23846e-08
-4.2405e-07
-5.47027e-08
-4.07826e-07
-5.68876e-08
-3.91043e-07
-5.89172e-08
-3.7375e-07
-6.07696e-08
-3.56003e-07
-6.24226e-08
-3.37863e-07
-6.38543e-08
-3.19396e-07
-6.50434e-08
-3.00675e-07
-6.59694e-08
-2.81778e-07
-6.66125e-08
-2.62788e-07
-6.69547e-08
-2.43791e-07
-6.69789e-08
-2.24878e-07
-6.66704e-08
-2.06144e-07
-6.60162e-08
-1.87685e-07
-6.50057e-08
-1.69601e-07
-6.36309e-08
-1.51991e-07
-6.18866e-08
-1.34956e-07
-5.97706e-08
-1.18595e-07
-5.72845e-08
-1.03005e-07
-5.44334e-08
-8.82805e-08
-5.1227e-08
-7.45102e-08
-4.76797e-08
-6.17771e-08
-4.38122e-08
-5.01558e-08
-3.9652e-08
-3.97102e-08
-3.52357e-08
-3.04911e-08
-3.06111e-08
-2.25333e-08
-2.58406e-08
-1.58519e-08
-2.10057e-08
-1.04385e-08
-1.62131e-08
-6.25794e-09
-1.16034e-08
-3.24338e-09
-7.36152e-09
-1.29373e-09
-3.72901e-09
-2.71355e-10
-1.02071e-09
3.22354e-10
-1.61738e-10
-2.97114e-10
-7.60452e-10
3.93717e-10
-1.88935e-09
1.98404e-09
-3.6195e-09
4.1846e-09
-6.00026e-09
6.79331e-09
-9.06139e-09
9.65061e-09
-1.28156e-08
1.26302e-08
-1.72609e-08
1.56346e-08
-2.23834e-08
1.85893e-08
-2.81591e-08
2.1439e-08
-3.45567e-08
2.41437e-08
-4.15387e-08
2.66754e-08
-4.9064e-08
2.90161e-08
-5.70884e-08
3.11554e-08
-6.55667e-08
3.3089e-08
-7.44531e-08
3.48175e-08
-8.37021e-08
3.6345e-08
-9.32695e-08
3.76781e-08
-1.03113e-07
3.88259e-08
-1.13191e-07
3.97986e-08
-1.23465e-07
4.06072e-08
-1.339e-07
4.12634e-08
-1.44461e-07
4.17792e-08
-1.55119e-07
4.21665e-08
-1.65843e-07
4.24367e-08
-1.76609e-07
4.26013e-08
-1.87393e-07
4.26709e-08
-1.98173e-07
4.26557e-08
-2.08931e-07
4.25653e-08
-2.19651e-07
4.24085e-08
-2.30316e-07
4.21937e-08
-2.40914e-07
4.19283e-08
-2.51434e-07
4.16192e-08
-2.61865e-07
4.12727e-08
-2.722e-07
4.08945e-08
-2.82431e-07
4.04897e-08
-2.92552e-07
4.00627e-08
-3.02557e-07
3.96177e-08
-3.12444e-07
3.91582e-08
-3.22208e-07
3.86875e-08
-3.31847e-07
3.82083e-08
-3.41359e-07
3.77232e-08
-3.50743e-07
3.72342e-08
-3.59999e-07
3.67434e-08
-3.69125e-07
3.62523e-08
-3.78121e-07
3.57624e-08
-3.86989e-07
3.5275e-08
-3.95729e-07
3.47912e-08
-4.04342e-07
3.4312e-08
-4.12829e-07
3.38382e-08
-4.21191e-07
3.33706e-08
-4.29431e-07
3.29097e-08
-4.37549e-07
3.24561e-08
-4.45548e-07
3.20103e-08
-4.5343e-07
3.15727e-08
-4.61197e-07
3.11436e-08
-4.68851e-07
3.07232e-08
-4.76394e-07
3.03118e-08
-4.83829e-07
2.99093e-08
-4.91157e-07
2.9516e-08
-4.98381e-07
2.91317e-08
-5.05504e-07
2.87563e-08
-5.12526e-07
2.83897e-08
-5.19451e-07
2.80316e-08
-5.2628e-07
2.76817e-08
-5.33015e-07
2.73394e-08
-5.39659e-07
2.70043e-08
-5.46211e-07
2.66756e-08
-5.52674e-07
2.63527e-08
-5.5905e-07
2.60345e-08
-5.65337e-07
2.57202e-08
-5.71538e-07
2.54084e-08
-5.77653e-07
2.50979e-08
-5.8368e-07
2.47872e-08
-5.89621e-07
2.44746e-08
-5.95473e-07
2.41584e-08
-6.01235e-07
2.38366e-08
-6.06905e-07
2.35068e-08
-6.1248e-07
2.31669e-08
-6.17958e-07
2.28141e-08
-6.23334e-07
2.24457e-08
-6.28603e-07
2.20587e-08
-6.3376e-07
2.16499e-08
-6.38798e-07
2.12158e-08
-6.43712e-07
2.07529e-08
-6.48491e-07
2.02572e-08
-6.53128e-07
1.97247e-08
-6.57612e-07
1.91512e-08
-6.61932e-07
1.85321e-08
-6.66076e-07
1.78629e-08
-6.7003e-07
1.71387e-08
-6.7378e-07
1.63546e-08
-6.7731e-07
1.55055e-08
-6.80604e-07
1.45863e-08
-6.83642e-07
1.35917e-08
-6.86407e-07
1.25165e-08
-6.88877e-07
1.13554e-08
-6.9103e-07
1.01034e-08
-6.92844e-07
8.75529e-09
-6.94295e-07
7.30628e-09
-6.95357e-07
5.75173e-09
-6.96006e-07
4.08732e-09
-6.96213e-07
2.30911e-09
-6.95952e-07
4.13637e-10
-6.95195e-07
-1.60202e-09
-6.93912e-07
-3.74016e-09
-6.92076e-07
-6.00231e-09
-6.89656e-07
-8.38923e-09
-6.86625e-07
-1.09007e-08
-6.82953e-07
-1.35355e-08
-6.78614e-07
-1.62913e-08
-6.7358e-07
-1.91646e-08
-6.67825e-07
-2.21504e-08
-6.61326e-07
-2.52426e-08
-6.54061e-07
-2.84333e-08
-6.46009e-07
-3.17134e-08
-6.37153e-07
-3.50719e-08
-6.27478e-07
-3.84963e-08
-6.16975e-07
-4.19724e-08
-6.05635e-07
-4.54842e-08
-5.93456e-07
-4.90141e-08
-5.80439e-07
-5.2543e-08
-5.6659e-07
-5.60498e-08
-5.51921e-07
-5.95121e-08
-5.36449e-07
-6.29062e-08
-5.20197e-07
-6.62068e-08
-5.03194e-07
-6.93877e-08
-4.85475e-07
-7.24217e-08
-4.67082e-07
-7.52806e-08
-4.48063e-07
-7.79361e-08
-4.28474e-07
-8.03594e-08
-4.08374e-07
-8.25217e-08
-3.87834e-07
-8.43949e-08
-3.66926e-07
-8.59511e-08
-3.45732e-07
-8.71637e-08
-3.24337e-07
-8.80073e-08
-3.02834e-07
-8.84583e-08
-2.81317e-07
-8.8495e-08
-2.5989e-07
-8.80982e-08
-2.38655e-07
-8.72513e-08
-2.17719e-07
-8.59409e-08
-1.97194e-07
-8.41568e-08
-1.77187e-07
-8.18928e-08
-1.57811e-07
-7.91469e-08
-1.39174e-07
-7.59214e-08
-1.21384e-07
-7.2224e-08
-1.04542e-07
-6.80682e-08
-8.8748e-08
-6.34739e-08
-7.40915e-08
-5.84687e-08
-6.0654e-08
-5.30895e-08
-4.85059e-08
-4.73838e-08
-3.77037e-08
-4.14134e-08
-2.82876e-08
-3.52567e-08
-2.02789e-08
-2.90144e-08
-1.36771e-08
-2.2815e-08
-8.45735e-09
-1.68232e-08
-4.56897e-09
-1.12499e-08
-1.93465e-09
-6.36333e-09
-4.52211e-10
-2.50315e-09
-1.29857e-10
-2.62586e-10
-3.45269e-11
-1.12332e-09
1.25444e-09
-2.64596e-09
3.50668e-09
-4.8802e-09
6.41884e-09
-7.85962e-09
9.77273e-09
-1.16022e-08
1.33932e-08
-1.61116e-08
1.71396e-08
-2.1379e-08
2.0902e-08
-2.73848e-08
2.45951e-08
-3.41005e-08
2.81548e-08
-4.14905e-08
3.15337e-08
-4.95138e-08
3.46987e-08
-5.81254e-08
3.76277e-08
-6.72778e-08
4.03078e-08
-7.69221e-08
4.27333e-08
-8.7009e-08
4.49044e-08
-9.74896e-08
4.68255e-08
-1.08316e-07
4.85046e-08
-1.19442e-07
4.99521e-08
-1.30824e-07
5.11802e-08
-1.42419e-07
5.22024e-08
-1.54189e-07
5.30329e-08
-1.66096e-07
5.36862e-08
-1.78106e-07
5.4177e-08
-1.90189e-07
5.45195e-08
-2.02315e-07
5.47276e-08
-2.14459e-07
5.48148e-08
-2.26597e-07
5.47938e-08
-2.38708e-07
5.46764e-08
-2.50774e-07
5.44739e-08
-2.62777e-07
5.41967e-08
-2.74702e-07
5.38541e-08
-2.86538e-07
5.34551e-08
-2.98273e-07
5.30074e-08
-3.09897e-07
5.25184e-08
-3.21402e-07
5.19945e-08
-3.32781e-07
5.14416e-08
-3.44028e-07
5.08648e-08
-3.55138e-07
5.02688e-08
-3.66109e-07
4.96577e-08
-3.76935e-07
4.90352e-08
-3.87617e-07
4.84045e-08
-3.98151e-07
4.77684e-08
-4.08537e-07
4.71294e-08
-4.18774e-07
4.64896e-08
-4.28863e-07
4.58511e-08
-4.38803e-07
4.52155e-08
-4.48596e-07
4.45842e-08
-4.58243e-07
4.39585e-08
-4.67744e-07
4.33395e-08