/*--------------------------------*- C++ -*----------------------------------*\
  =========                 |
  \\      /  F ield         | OpenFOAM: The Open Source CFD Toolbox
   \\    /   O peration     | Website:  https://openfoam.org
    \\  /    A nd           | Version:  7
     \\/     M anipulation  |
\*---------------------------------------------------------------------------*/
FoamFile
{
    version     2.0;
    format      ascii;
    class       volVectorField;
    location    "0.15";
    object      U;
}
// * * * * * * * * * * * * * * * * * * * * * * * * * * * * * * * * * * * * * //

dimensions      [0 1 -1 0 0 0 0];

internalField   nonuniform List<vector> 
12800
(
(3.67782e-06 -4.19806e-06 0)
(2.03598e-05 -1.08839e-05 0)
(4.70144e-05 -1.24864e-05 0)
(7.28284e-05 -1.09634e-05 0)
(9.05321e-05 -7.68976e-06 0)
(9.70369e-05 -3.58068e-06 0)
(9.06676e-05 8.52742e-07 0)
(7.07446e-05 5.31256e-06 0)
(3.72346e-05 9.62977e-06 0)
(-9.47514e-06 1.37127e-05 0)
(-6.87413e-05 1.75108e-05 0)
(-0.000139771 2.09977e-05 0)
(-0.000221674 2.41649e-05 0)
(-0.000313523 2.70142e-05 0)
(-0.000414385 2.95534e-05 0)
(-0.000523332 3.17961e-05 0)
(-0.000639473 3.37606e-05 0)
(-0.000761956 3.54659e-05 0)
(-0.00088998 3.69324e-05 0)
(-0.0010228 3.81803e-05 0)
(-0.00115971 3.9228e-05 0)
(-0.00130009 4.0094e-05 0)
(-0.00144336 4.07976e-05 0)
(-0.001589 4.13572e-05 0)
(-0.00173654 4.17901e-05 0)
(-0.00188557 4.21117e-05 0)
(-0.00203572 4.23366e-05 0)
(-0.00218668 4.24789e-05 0)
(-0.00233816 4.25505e-05 0)
(-0.00248992 4.25628e-05 0)
(-0.00264178 4.25265e-05 0)
(-0.00279354 4.24507e-05 0)
(-0.00294509 4.2343e-05 0)
(-0.0030963 4.2211e-05 0)
(-0.00324708 4.20612e-05 0)
(-0.00339737 4.18987e-05 0)
(-0.00354711 4.17282e-05 0)
(-0.00369628 4.15544e-05 0)
(-0.00384485 4.13816e-05 0)
(-0.00399282 4.12129e-05 0)
(-0.00414021 4.10508e-05 0)
(-0.00428701 4.08976e-05 0)
(-0.00443327 4.07552e-05 0)
(-0.00457901 4.06258e-05 0)
(-0.00472427 4.05114e-05 0)
(-0.0048691 4.04138e-05 0)
(-0.00501355 4.0334e-05 0)
(-0.00515767 4.02722e-05 0)
(-0.00530153 4.02289e-05 0)
(-0.00544519 4.02053e-05 0)
(-0.00558871 4.02027e-05 0)
(-0.00573215 4.0222e-05 0)
(-0.0058756 4.02636e-05 0)
(-0.00601913 4.03275e-05 0)
(-0.0061628 4.04138e-05 0)
(-0.00630669 4.05229e-05 0)
(-0.00645088 4.06551e-05 0)
(-0.00659544 4.08108e-05 0)
(-0.00674045 4.09901e-05 0)
(-0.00688599 4.11926e-05 0)
(-0.00703213 4.14178e-05 0)
(-0.00717893 4.16654e-05 0)
(-0.00732648 4.19348e-05 0)
(-0.00747484 4.22251e-05 0)
(-0.00762407 4.2535e-05 0)
(-0.00777424 4.28629e-05 0)
(-0.00792539 4.32075e-05 0)
(-0.00807757 4.35674e-05 0)
(-0.00823083 4.39408e-05 0)
(-0.0083852 4.43256e-05 0)
(-0.0085407 4.47191e-05 0)
(-0.00869736 4.51183e-05 0)
(-0.00885517 4.55199e-05 0)
(-0.00901412 4.59206e-05 0)
(-0.00917421 4.63166e-05 0)
(-0.00933538 4.67035e-05 0)
(-0.0094976 4.70767e-05 0)
(-0.00966078 4.74308e-05 0)
(-0.00982486 4.77601e-05 0)
(-0.0099897 4.80587e-05 0)
(-0.0101552 4.83203e-05 0)
(-0.0103212 4.85381e-05 0)
(-0.0104875 4.87046e-05 0)
(-0.0106539 4.88121e-05 0)
(-0.0108202 4.88524e-05 0)
(-0.0109862 4.88167e-05 0)
(-0.0111514 4.86959e-05 0)
(-0.0113157 4.84805e-05 0)
(-0.0114787 4.81603e-05 0)
(-0.0116399 4.77248e-05 0)
(-0.011799 4.71634e-05 0)
(-0.0119555 4.64651e-05 0)
(-0.0121089 4.56186e-05 0)
(-0.0122587 4.46125e-05 0)
(-0.0124043 4.34353e-05 0)
(-0.012545 4.2075e-05 0)
(-0.0126804 4.052e-05 0)
(-0.0128095 3.87587e-05 0)
(-0.0129319 3.67798e-05 0)
(-0.0130466 3.45724e-05 0)
(-0.013153 3.21262e-05 0)
(-0.0132501 2.94312e-05 0)
(-0.0133372 2.64784e-05 0)
(-0.0134134 2.326e-05 0)
(-0.0134778 1.97693e-05 0)
(-0.0135295 1.60012e-05 0)
(-0.0135676 1.19521e-05 0)
(-0.0135912 7.62025e-06 0)
(-0.0135993 3.00607e-06 0)
(-0.013591 -1.88795e-06 0)
(-0.0135656 -7.05602e-06 0)
(-0.013522 -1.249e-05 0)
(-0.0134595 -1.81789e-05 0)
(-0.0133773 -2.41087e-05 0)
(-0.0132746 -3.02622e-05 0)
(-0.0131509 -3.66185e-05 0)
(-0.0130055 -4.31529e-05 0)
(-0.012838 -4.98369e-05 0)
(-0.0126479 -5.66384e-05 0)
(-0.012435 -6.35214e-05 0)
(-0.0121992 -7.04465e-05 0)
(-0.0119404 -7.73707e-05 0)
(-0.0116588 -8.42471e-05 0)
(-0.0113547 -9.10258e-05 0)
(-0.0110285 -9.76541e-05 0)
(-0.0106809 -0.000104076 0)
(-0.0103126 -0.000110236 0)
(-0.00992483 -0.000116073 0)
(-0.0095186 -0.000121529 0)
(-0.00909536 -0.000126544 0)
(-0.00865669 -0.000131058 0)
(-0.00820434 -0.000135012 0)
(-0.00774027 -0.000138349 0)
(-0.00726661 -0.000141017 0)
(-0.00678563 -0.000142965 0)
(-0.00629978 -0.000144148 0)
(-0.00581164 -0.000144522 0)
(-0.0053239 -0.000144053 0)
(-0.00483936 -0.00014271 0)
(-0.0043609 -0.00014047 0)
(-0.00389148 -0.000137315 0)
(-0.00343406 -0.000133236 0)
(-0.00299164 -0.000128229 0)
(-0.00256721 -0.000122297 0)
(-0.00216373 -0.000115449 0)
(-0.00178408 -0.000107701 0)
(-0.00143109 -9.90749e-05 0)
(-0.00110745 -8.95978e-05 0)
(-0.000815722 -7.93027e-05 0)
(-0.000558304 -6.82304e-05 0)
(-0.000337363 -5.6433e-05 0)
(-0.000154783 -4.39813e-05 0)
(-1.20609e-05 -3.09813e-05 0)
(8.98546e-05 -1.76075e-05 0)
(0.000150858 -4.17051e-06 0)
(0.000172177 8.74457e-06 0)
(0.000157115 2.00215e-05 0)
(0.000112755 2.74957e-05 0)
(5.51836e-05 2.70292e-05 0)
(1.29639e-05 1.29807e-05 0)
(1.02699e-05 -2.02317e-05 0)
(4.33843e-05 -4.40115e-05 0)
(8.9178e-05 -4.77234e-05 0)
(0.000127453 -3.78537e-05 0)
(0.000145222 -1.95537e-05 0)
(0.000135147 3.54378e-06 0)
(9.28195e-05 2.9026e-05 0)
(1.59697e-05 5.53047e-05 0)
(-9.60509e-05 8.13451e-05 0)
(-0.000242771 0.000106482 0)
(-0.000422959 0.000130289 0)
(-0.000634867 0.00015251 0)
(-0.000876426 0.000173 0)
(-0.00114538 0.000191695 0)
(-0.00143936 0.000208589 0)
(-0.00175602 0.000223717 0)
(-0.00209302 0.000237142 0)
(-0.0024481 0.000248948 0)
(-0.00281912 0.000259233 0)
(-0.00320403 0.000268103 0)
(-0.00360095 0.000275667 0)
(-0.00400812 0.000282035 0)
(-0.00442393 0.000287317 0)
(-0.0048469 0.000291621 0)
(-0.00527572 0.000295051 0)
(-0.00570921 0.000297705 0)
(-0.00614628 0.000299676 0)
(-0.00658603 0.000301051 0)
(-0.00702762 0.00030191 0)
(-0.00747035 0.000302327 0)
(-0.00791361 0.000302372 0)
(-0.00835687 0.000302105 0)
(-0.00879972 0.000301581 0)
(-0.00924177 0.000300851 0)
(-0.00968276 0.000299961 0)
(-0.0101224 0.000298948 0)
(-0.0105606 0.00029785 0)
(-0.0109973 0.000296697 0)
(-0.0114322 0.000295518 0)
(-0.0118654 0.000294338 0)
(-0.0122969 0.000293177 0)
(-0.0127267 0.000292056 0)
(-0.0131548 0.000290989 0)
(-0.0135813 0.000289991 0)
(-0.0140064 0.000289075 0)
(-0.0144301 0.000288254 0)
(-0.0148526 0.000287536 0)
(-0.015274 0.000286931 0)
(-0.0156944 0.000286445 0)
(-0.0161141 0.000286084 0)
(-0.0165332 0.000285854 0)
(-0.0169519 0.000285761 0)
(-0.0173703 0.000285807 0)
(-0.0177888 0.000285998 0)
(-0.0182074 0.000286334 0)
(-0.0186264 0.000286819 0)
(-0.019046 0.000287452 0)
(-0.0194663 0.000288235 0)
(-0.0198877 0.000289166 0)
(-0.0203103 0.000290244 0)
(-0.0207343 0.000291466 0)
(-0.02116 0.000292828 0)
(-0.0215874 0.000294325 0)
(-0.0220167 0.00029595 0)
(-0.0224482 0.000297695 0)
(-0.022882 0.000299549 0)
(-0.0233183 0.000301503 0)
(-0.023757 0.000303544 0)
(-0.0241985 0.000305657 0)
(-0.0246426 0.000307827 0)
(-0.0250896 0.000310034 0)
(-0.0255393 0.000312259 0)
(-0.0259919 0.000314477 0)
(-0.0264472 0.000316664 0)
(-0.0269051 0.000318792 0)
(-0.0273656 0.000320831 0)
(-0.0278285 0.000322748 0)
(-0.0282935 0.000324505 0)
(-0.0287604 0.000326066 0)
(-0.0292289 0.000327388 0)
(-0.0296985 0.000328427 0)
(-0.0301687 0.000329137 0)
(-0.0306392 0.000329468 0)
(-0.0311091 0.000329367 0)
(-0.031578 0.000328778 0)
(-0.0320449 0.000327643 0)
(-0.0325091 0.000325902 0)
(-0.0329696 0.000323489 0)
(-0.0334255 0.00032034 0)
(-0.0338755 0.000316386 0)
(-0.0343185 0.000311558 0)
(-0.0347531 0.000305783 0)
(-0.035178 0.00029899 0)
(-0.0355916 0.000291105 0)
(-0.0359922 0.000282054 0)
(-0.0363783 0.000271763 0)
(-0.0367479 0.000260161 0)
(-0.0370992 0.000247175 0)
(-0.0374301 0.000232738 0)
(-0.0377385 0.000216784 0)
(-0.0380223 0.000199252 0)
(-0.0382792 0.000180084 0)
(-0.0385068 0.000159231 0)
(-0.0387028 0.000136651 0)
(-0.0388648 0.000112308 0)
(-0.0389901 8.61793e-05 0)
(-0.0390765 5.82513e-05 0)
(-0.0391213 2.85236e-05 0)
(-0.0391222 -2.99056e-06 0)
(-0.0390766 -3.62627e-05 0)
(-0.0389822 -7.12472e-05 0)
(-0.0388367 -0.000107881 0)
(-0.038638 -0.000146082 0)
(-0.0383839 -0.000185749 0)
(-0.0380725 -0.00022676 0)
(-0.0377023 -0.000268968 0)
(-0.0372717 -0.000312209 0)
(-0.0367795 -0.00035629 0)
(-0.0362248 -0.000400998 0)
(-0.0356069 -0.000446098 0)
(-0.0349257 -0.000491331 0)
(-0.0341811 -0.000536417 0)
(-0.0333738 -0.000581056 0)
(-0.0325047 -0.00062493 0)
(-0.0315751 -0.000667701 0)
(-0.030587 -0.000709021 0)
(-0.0295426 -0.000748528 0)
(-0.0284449 -0.000785854 0)
(-0.0272973 -0.000820625 0)
(-0.0261035 -0.000852467 0)
(-0.024868 -0.00088101 0)
(-0.0235957 -0.000905893 0)
(-0.022292 -0.000926766 0)
(-0.0209626 -0.000943299 0)
(-0.0196138 -0.000955181 0)
(-0.0182524 -0.000962131 0)
(-0.0168853 -0.000963896 0)
(-0.0155198 -0.000960259 0)
(-0.0141636 -0.00095104 0)
(-0.0128246 -0.000936101 0)
(-0.0115106 -0.000915346 0)
(-0.0102298 -0.000888727 0)
(-0.00899013 -0.000856241 0)
(-0.00779976 -0.000817933 0)
(-0.00666656 -0.000773898 0)
(-0.00559825 -0.00072428 0)
(-0.00460229 -0.000669278 0)
(-0.00368575 -0.000609149 0)
(-0.00285524 -0.00054422 0)
(-0.00211677 -0.000474904 0)
(-0.0014756 -0.000401734 0)
(-0.00093598 -0.000325419 0)
(-0.000500884 -0.000246942 0)
(-0.000171499 -0.000167727 0)
(5.34828e-05 -8.99379e-05 0)
(0.000178919 -1.6985e-05 0)
(0.000214594 4.56437e-05 0)
(0.000177521 8.90254e-05 0)
(9.86121e-05 9.88016e-05 0)
(2.68793e-05 5.50775e-05 0)
(1.24963e-05 -4.70773e-05 0)
(4.80533e-05 -8.95772e-05 0)
(9.05361e-05 -9.00674e-05 0)
(0.000116097 -6.08819e-05 0)
(0.00010899 -1.20573e-05 0)
(5.97327e-05 4.88636e-05 0)
(-3.77627e-05 0.000116412 0)
(-0.00018688 0.000186707 0)
(-0.000388854 0.00025705 0)
(-0.000643322 0.000325573 0)
(-0.000948771 0.000391025 0)
(-0.00130288 0.000452587 0)
(-0.00170276 0.000509757 0)
(-0.00214521 0.00056227 0)
(-0.0026268 0.000610026 0)
(-0.00314404 0.000653052 0)
(-0.00369344 0.000691467 0)
(-0.00427161 0.000725453 0)
(-0.00487525 0.000755241 0)
(-0.00550125 0.000781091 0)
(-0.00614668 0.000803283 0)
(-0.0068088 0.000822106 0)
(-0.00748508 0.000837848 0)
(-0.00817321 0.000850799 0)
(-0.00887108 0.000861238 0)
(-0.0095768 0.000869433 0)
(-0.0102887 0.000875639 0)
(-0.0110051 0.000880098 0)
(-0.0117249 0.000883033 0)
(-0.0124468 0.000884654 0)
(-0.0131699 0.000885152 0)
(-0.0138931 0.000884703 0)
(-0.0146159 0.000883466 0)
(-0.0153376 0.000881585 0)
(-0.0160578 0.000879192 0)
(-0.0167759 0.000876401 0)
(-0.0174917 0.000873317 0)
(-0.0182049 0.000870035 0)
(-0.0189155 0.000866636 0)
(-0.0196232 0.000863193 0)
(-0.0203281 0.000859773 0)
(-0.0210302 0.00085643 0)
(-0.0217295 0.000853215 0)
(-0.0224261 0.000850172 0)
(-0.0231202 0.000847341 0)
(-0.0238119 0.000844755 0)
(-0.0245014 0.000842445 0)
(-0.0251889 0.000840438 0)
(-0.0258746 0.000838756 0)
(-0.0265589 0.000837419 0)
(-0.0272419 0.000836444 0)
(-0.027924 0.000835845 0)
(-0.0286055 0.000835635 0)
(-0.0292866 0.000835823 0)
(-0.0299676 0.000836418 0)
(-0.030649 0.000837425 0)
(-0.0313309 0.000838847 0)
(-0.0320138 0.000840683 0)
(-0.0326979 0.00084293 0)
(-0.0333835 0.000845582 0)
(-0.034071 0.000848631 0)
(-0.0347606 0.000852065 0)
(-0.0354527 0.000855867 0)
(-0.0361475 0.000860017 0)
(-0.0368452 0.000864491 0)
(-0.0375462 0.000869259 0)
(-0.0382505 0.00087429 0)
(-0.0389584 0.000879546 0)
(-0.03967 0.000884983 0)
(-0.0403854 0.000890553 0)
(-0.0411046 0.000896201 0)
(-0.0418278 0.000901866 0)
(-0.0425547 0.000907481 0)
(-0.0432855 0.000912971 0)
(-0.0440198 0.000918254 0)
(-0.0447574 0.000923244 0)
(-0.0454981 0.000927843 0)
(-0.0462414 0.000931948 0)
(-0.0469869 0.000935446 0)
(-0.047734 0.00093822 0)
(-0.0484821 0.000940142 0)
(-0.0492304 0.000941077 0)
(-0.0499779 0.000940884 0)
(-0.0507238 0.00093941 0)
(-0.0514668 0.000936497 0)
(-0.0522058 0.00093198 0)
(-0.0529394 0.000925686 0)
(-0.053666 0.000917435 0)
(-0.054384 0.000907041 0)
(-0.0550915 0.000894314 0)
(-0.0557867 0.000879057 0)
(-0.0564674 0.000861071 0)
(-0.0571313 0.000840153 0)
(-0.057776 0.000816102 0)
(-0.058399 0.000788713 0)
(-0.0589975 0.000757784 0)
(-0.0595686 0.000723118 0)
(-0.0601093 0.000684521 0)
(-0.0606164 0.000641808 0)
(-0.0610866 0.000594805 0)
(-0.0615166 0.000543349 0)
(-0.0619026 0.000487291 0)
(-0.0622412 0.000426505 0)
(-0.0625286 0.000360881 0)
(-0.062761 0.000290338 0)
(-0.0629346 0.000214822 0)
(-0.0630455 0.000134311 0)
(-0.0630899 4.88193e-05 0)
(-0.0630641 -4.16015e-05 0)
(-0.0629642 -0.000136855 0)
(-0.0627868 -0.000236801 0)
(-0.0625282 -0.000341246 0)
(-0.0621852 -0.000449948 0)
(-0.0617548 -0.000562608 0)
(-0.0612341 -0.000678869 0)
(-0.0606206 -0.000798315 0)
(-0.0599122 -0.000920468 0)
(-0.0591071 -0.00104479 0)
(-0.0582041 -0.00117067 0)
(-0.0572023 -0.00129745 0)
(-0.0561015 -0.00142441 0)
(-0.054902 -0.00155076 0)
(-0.0536048 -0.00167567 0)
(-0.0522114 -0.00179825 0)
(-0.0507243 -0.00191758 0)
(-0.0491463 -0.00203269 0)
(-0.0474814 -0.00214258 0)
(-0.045734 -0.00224625 0)
(-0.0439094 -0.00234266 0)
(-0.0420138 -0.0024308 0)
(-0.0400539 -0.00250966 0)
(-0.0380376 -0.00257824 0)
(-0.035973 -0.0026356 0)
(-0.0338692 -0.00268083 0)
(-0.031736 -0.0027131 0)
(-0.0295836 -0.00273163 0)
(-0.0274229 -0.00273575 0)
(-0.0252653 -0.00272487 0)
(-0.0231225 -0.00269851 0)
(-0.0210064 -0.00265631 0)
(-0.0189294 -0.00259801 0)
(-0.0169038 -0.00252352 0)
(-0.014942 -0.00243285 0)
(-0.0130563 -0.00232616 0)
(-0.0112587 -0.00220376 0)
(-0.00956103 -0.00206613 0)
(-0.00797446 -0.0019139 0)
(-0.0065096 -0.00174789 0)
(-0.00517626 -0.00156916 0)
(-0.00398316 -0.00137905 0)
(-0.00293777 -0.00117929 0)
(-0.00204587 -0.000972112 0)
(-0.00131111 -0.000760554 0)
(-0.000734337 -0.000548796 0)
(-0.000312715 -0.000342789 0)
(-3.84674e-05 -0.000151192 0)
(0.000102523 1.32443e-05 0)
(0.000132749 0.000131842 0)
(8.90655e-05 0.000177663 0)
(2.72734e-05 0.000112339 0)
(1.11905e-05 -7.30082e-05 0)
(3.86927e-05 -0.000128161 0)
(6.19979e-05 -0.000115733 0)
(5.66568e-05 -5.56227e-05 0)
(6.19232e-06 3.70077e-05 0)
(-9.97973e-05 0.000150438 0)
(-0.000268149 0.000275796 0)
(-0.000502803 0.000406534 0)
(-0.000805301 0.000537891 0)
(-0.00117533 0.00066646 0)
(-0.00161119 0.00078986 0)
(-0.00211014 0.000906473 0)
(-0.00266873 0.00101526 0)
(-0.00328302 0.00111562 0)
(-0.00394877 0.00120727 0)
(-0.0046616 0.00129018 0)
(-0.00541711 0.00136451 0)
(-0.00621094 0.00143053 0)
(-0.00703889 0.00148863 0)
(-0.0078969 0.00153927 0)
(-0.00878117 0.00158294 0)
(-0.00968809 0.00162014 0)
(-0.0106143 0.00165143 0)
(-0.0115569 0.00167732 0)
(-0.0125128 0.00169833 0)
(-0.0134797 0.00171496 0)
(-0.0144552 0.0017277 0)
(-0.0154373 0.001737 0)
(-0.0164241 0.00174328 0)
(-0.0174141 0.00174694 0)
(-0.0184058 0.00174836 0)
(-0.0193981 0.00174787 0)
(-0.02039 0.00174577 0)
(-0.0213804 0.00174235 0)
(-0.0223689 0.00173787 0)
(-0.0233546 0.00173255 0)
(-0.0243373 0.00172659 0)
(-0.0253165 0.00172019 0)
(-0.026292 0.00171351 0)
(-0.0272636 0.00170668 0)
(-0.0282312 0.00169985 0)
(-0.0291949 0.00169312 0)
(-0.0301546 0.0016866 0)
(-0.0311104 0.00168038 0)
(-0.0320626 0.00167453 0)
(-0.0330112 0.00166913 0)
(-0.0339566 0.00166423 0)
(-0.034899 0.00165989 0)
(-0.0358387 0.00165616 0)
(-0.036776 0.00165308 0)
(-0.0377113 0.00165068 0)
(-0.0386449 0.00164899 0)
(-0.0395772 0.00164804 0)
(-0.0405087 0.00164784 0)
(-0.0414396 0.00164842 0)
(-0.0423704 0.00164978 0)
(-0.0433016 0.00165192 0)
(-0.0442335 0.00165485 0)
(-0.0451666 0.00165856 0)
(-0.0461013 0.00166303 0)
(-0.0470379 0.00166826 0)
(-0.0479769 0.0016742 0)
(-0.0489185 0.00168084 0)
(-0.0498632 0.00168812 0)
(-0.0508113 0.00169601 0)
(-0.0517631 0.00170443 0)
(-0.0527187 0.00171334 0)
(-0.0536785 0.00172264 0)
(-0.0546426 0.00173226 0)
(-0.055611 0.0017421 0)
(-0.0565839 0.00175205 0)
(-0.0575612 0.00176198 0)
(-0.0585429 0.00177177 0)
(-0.0595287 0.00178126 0)
(-0.0605185 0.0017903 0)
(-0.0615118 0.00179872 0)
(-0.0625083 0.00180632 0)
(-0.0635073 0.0018129 0)
(-0.0645082 0.00181825 0)
(-0.0655102 0.00182213 0)
(-0.0665123 0.0018243 0)
(-0.0675136 0.00182448 0)
(-0.0685127 0.00182242 0)
(-0.0695083 0.00181781 0)
(-0.0704989 0.00181035 0)
(-0.0714827 0.00179972 0)
(-0.0724579 0.00178558 0)
(-0.0734224 0.0017676 0)
(-0.0743739 0.00174541 0)
(-0.0753101 0.00171865 0)
(-0.0762281 0.00168694 0)
(-0.0771253 0.00164992 0)
(-0.0779985 0.00160718 0)
(-0.0788445 0.00155836 0)
(-0.0796598 0.00150307 0)
(-0.0804409 0.00144092 0)
(-0.0811838 0.00137155 0)
(-0.0818845 0.0012946 0)
(-0.0825389 0.00120972 0)
(-0.0831426 0.00111659 0)
(-0.0836909 0.00101492 0)
(-0.0841793 0.000904443 0)
(-0.0846031 0.000784924 0)
(-0.0849572 0.000656178 0)
(-0.0852368 0.000518068 0)
(-0.0854369 0.00037051 0)
(-0.0855524 0.000213484 0)
(-0.0855785 4.7035e-05 0)
(-0.0855102 -0.000128714 0)
(-0.0853428 -0.000313559 0)
(-0.0850715 -0.000507209 0)
(-0.0846919 -0.000709279 0)
(-0.0841998 -0.000919285 0)
(-0.0835914 -0.00113664 0)
(-0.0828631 -0.00136064 0)
(-0.0820118 -0.00159048 0)
(-0.0810347 -0.00182523 0)
(-0.0799299 -0.00206386 0)
(-0.0786958 -0.0023052 0)
(-0.0773315 -0.00254799 0)
(-0.0758369 -0.00279085 0)
(-0.0742125 -0.00303229 0)
(-0.0724598 -0.00327072 0)
(-0.070581 -0.00350446 0)
(-0.0685794 -0.00373177 0)
(-0.0664589 -0.00395083 0)
(-0.0642247 -0.00415975 0)
(-0.0618828 -0.00435663 0)
(-0.0594403 -0.00453955 0)
(-0.0569052 -0.00470659 0)
(-0.0542866 -0.00485585 0)
(-0.0515944 -0.00498549 0)
(-0.0488396 -0.00509371 0)
(-0.0460341 -0.00517885 0)
(-0.0431904 -0.00523933 0)
(-0.0403221 -0.00527371 0)
(-0.0374432 -0.00528074 0)
(-0.0345685 -0.00525932 0)
(-0.0317132 -0.00520857 0)
(-0.028893 -0.00512782 0)
(-0.0261237 -0.00501665 0)
(-0.0234213 -0.00487487 0)
(-0.0208019 -0.00470257 0)
(-0.0182813 -0.0045001 0)
(-0.015875 -0.00426813 0)
(-0.013598 -0.00400763 0)
(-0.0114648 -0.00371991 0)
(-0.00948872 -0.00340669 0)
(-0.00768209 -0.00307014 0)
(-0.0060558 -0.00271302 0)
(-0.00461891 -0.00233881 0)
(-0.00337829 -0.00195203 0)
(-0.00233799 -0.00155857 0)
(-0.00149858 -0.00116633 0)
(-0.000856202 -0.000786053 0)
(-0.000401402 -0.000432629 0)
(-0.000117879 -0.000126834 0)
(1.92299e-05 0.000102562 0)
(4.74426e-05 0.000216074 0)
(2.00007e-05 0.000156733 0)
(8.05442e-06 -9.14368e-05 0)
(2.05312e-05 -0.000146466 0)
(1.28738e-05 -0.000108641 0)
(-3.71365e-05 -5.01607e-06 0)
(-0.00014523 0.000144208 0)
(-0.000321849 0.000323212 0)
(-0.000573905 0.000519732 0)
(-0.000905369 0.000724471 0)
(-0.00131778 0.000930476 0)
(-0.00181073 0.00113263 0)
(-0.00238227 0.00132726 0)
(-0.00302931 0.00151179 0)
(-0.00374794 0.00168451 0)
(-0.00453364 0.00184438 0)
(-0.00538151 0.00199085 0)
(-0.00628646 0.00212379 0)
(-0.00724334 0.00224334 0)
(-0.00824702 0.00234988 0)
(-0.0092925 0.00244396 0)
(-0.010375 0.00252621 0)
(-0.0114898 0.00259739 0)
(-0.0126328 0.00265826 0)
(-0.0137998 0.00270965 0)
(-0.0149871 0.00275236 0)
(-0.0161913 0.0027872 0)
(-0.0174093 0.00281495 0)
(-0.0186382 0.00283637 0)
(-0.0198755 0.00285216 0)
(-0.0211189 0.00286301 0)
(-0.0223664 0.00286954 0)
(-0.0236163 0.00287235 0)
(-0.0248671 0.00287198 0)
(-0.0261173 0.00286892 0)
(-0.027366 0.00286364 0)
(-0.0286122 0.00285653 0)
(-0.0298551 0.00284797 0)
(-0.031094 0.00283831 0)
(-0.0323286 0.00282784 0)
(-0.0335584 0.00281682 0)
(-0.0347832 0.00280551 0)
(-0.0360029 0.00279412 0)
(-0.0372174 0.00278283 0)
(-0.0384267 0.00277181 0)
(-0.0396309 0.00276122 0)
(-0.0408301 0.00275119 0)
(-0.0420247 0.00274183 0)
(-0.0432148 0.00273325 0)
(-0.0444007 0.00272553 0)
(-0.0455829 0.00271876 0)
(-0.0467616 0.002713 0)
(-0.0479373 0.00270832 0)
(-0.0491104 0.00270476 0)
(-0.0502814 0.00270237 0)
(-0.0514508 0.00270117 0)
(-0.0526189 0.0027012 0)
(-0.0537864 0.00270246 0)
(-0.0549536 0.00270496 0)
(-0.0561212 0.00270871 0)
(-0.0572896 0.00271369 0)
(-0.0584593 0.00271988 0)
(-0.0596307 0.00272725 0)
(-0.0608043 0.00273576 0)
(-0.0619805 0.00274534 0)
(-0.0631598 0.00275593 0)
(-0.0643425 0.00276745 0)
(-0.065529 0.00277981 0)
(-0.0667194 0.00279289 0)
(-0.0679141 0.00280657 0)
(-0.0691133 0.0028207 0)
(-0.0703169 0.00283513 0)
(-0.0715252 0.00284967 0)
(-0.0727379 0.00286412 0)
(-0.073955 0.00287827 0)
(-0.0751762 0.00289187 0)
(-0.0764011 0.00290467 0)
(-0.0776294 0.00291638 0)
(-0.0788603 0.00292669 0)
(-0.0800932 0.00293527 0)
(-0.0813272 0.00294178 0)
(-0.0825613 0.00294582 0)
(-0.0837942 0.00294701 0)
(-0.0850247 0.00294492 0)
(-0.0862511 0.0029391 0)
(-0.0874717 0.00292908 0)
(-0.0886846 0.00291438 0)
(-0.0898876 0.00289446 0)
(-0.0910784 0.00286881 0)
(-0.0922544 0.00283687 0)
(-0.0934128 0.00279808 0)
(-0.0945505 0.00275185 0)
(-0.0956643 0.00269758 0)
(-0.0967507 0.00263468 0)
(-0.0978058 0.00256255 0)
(-0.0988257 0.00248057 0)
(-0.0998062 0.00238814 0)
(-0.100743 0.00228467 0)
(-0.101631 0.00216958 0)
(-0.102465 0.00204231 0)
(-0.103241 0.00190234 0)
(-0.103953 0.00174916 0)
(-0.104595 0.00158232 0)
(-0.105162 0.00140142 0)
(-0.105649 0.00120612 0)
(-0.106048 0.000996148 0)
(-0.106355 0.000771308 0)
(-0.106564 0.000531496 0)
(-0.106668 0.000276707 0)
(-0.106661 7.04414e-06 0)
(-0.106538 -0.000277269 0)
(-0.106293 -0.000575878 0)
(-0.10592 -0.000888293 0)
(-0.105414 -0.00121387 0)
(-0.104771 -0.00155182 0)
(-0.103986 -0.00190117 0)
(-0.103054 -0.00226079 0)
(-0.101972 -0.00262937 0)
(-0.100737 -0.00300544 0)
(-0.0993472 -0.00338731 0)
(-0.0978001 -0.00377315 0)
(-0.0960952 -0.00416093 0)
(-0.0942324 -0.00454846 0)
(-0.0922126 -0.00493337 0)
(-0.0900377 -0.00531316 0)
(-0.0877105 -0.00568518 0)
(-0.0852351 -0.00604666 0)
(-0.0826165 -0.00639474 0)
(-0.0798609 -0.00672646 0)
(-0.0769758 -0.00703883 0)
(-0.0739696 -0.00732884 0)
(-0.070852 -0.00759345 0)
(-0.0676342 -0.00782972 0)
(-0.064328 -0.00803473 0)
(-0.0609466 -0.00820571 0)
(-0.0575042 -0.00834001 0)
(-0.0540162 -0.00843519 0)
(-0.0504984 -0.00848902 0)
(-0.0469679 -0.00849952 0)
(-0.0434424 -0.00846499 0)
(-0.0399399 -0.00838408 0)
(-0.0364792 -0.00825577 0)
(-0.0330792 -0.00807941 0)
(-0.029759 -0.00785476 0)
(-0.0265377 -0.00758201 0)
(-0.0234342 -0.00726181 0)
(-0.0204667 -0.00689527 0)
(-0.0176532 -0.00648405 0)
(-0.0150106 -0.00603038 0)
(-0.0125546 -0.00553712 0)
(-0.0102996 -0.00500792 0)
(-0.00825817 -0.00444734 0)
(-0.00644074 -0.00386112 0)
(-0.00485503 -0.00325653 0)
(-0.00350556 -0.00264289 0)
(-0.00239293 -0.00203233 0)
(-0.00151296 -0.00144081 0)
(-0.000855771 -0.000889615 0)
(-0.000404619 -0.000407322 0)
(-0.000134567 -3.20364e-05 0)
(-1.12236e-05 0.000185567 0)
(9.34712e-06 0.000173182 0)
(3.98249e-06 -9.86221e-05 0)
(-2.9835e-06 -0.00013641 0)
(-4.99098e-05 -5.82455e-05 0)
(-0.000154754 0.000102736 0)
(-0.000331359 0.000321748 0)
(-0.000589525 0.000579116 0)
(-0.000935659 0.000859351 0)
(-0.00137334 0.00115046 0)
(-0.00190378 0.00144331 0)
(-0.00252627 0.00173102 0)
(-0.00323853 0.00200853 0)
(-0.0040371 0.00227223 0)
(-0.00491761 0.00251967 0)
(-0.00587504 0.00274927 0)
(-0.00690395 0.00296018 0)
(-0.00799865 0.00315209 0)
(-0.00915335 0.00332514 0)
(-0.0103623 0.00347976 0)
(-0.0116198 0.00361665 0)
(-0.0129203 0.00373667 0)
(-0.0142588 0.00384081 0)
(-0.0156301 0.00393015 0)
(-0.0170297 0.0040058 0)
(-0.0184532 0.00406889 0)
(-0.0198967 0.00412055 0)
(-0.0213565 0.00416188 0)
(-0.0228293 0.00419394 0)
(-0.0243122 0.00421775 0)
(-0.0258023 0.00423428 0)
(-0.0272975 0.00424444 0)
(-0.0287955 0.00424906 0)
(-0.0302946 0.00424893 0)
(-0.0317931 0.00424477 0)
(-0.0332897 0.00423724 0)
(-0.0347833 0.00422694 0)
(-0.0362728 0.00421441 0)
(-0.0377576 0.00420015 0)
(-0.0392371 0.00418461 0)
(-0.0407107 0.00416818 0)
(-0.0421781 0.00415121 0)
(-0.0436392 0.00413403 0)
(-0.0450937 0.00411692 0)
(-0.0465418 0.00410013 0)
(-0.0479834 0.00408389 0)
(-0.0494188 0.00406839 0)
(-0.0508481 0.00405382 0)
(-0.0522716 0.00404031 0)
(-0.0536897 0.00402803 0)
(-0.0551027 0.00401707 0)
(-0.0565112 0.00400754 0)
(-0.0579154 0.00399954 0)
(-0.059316 0.00399314 0)
(-0.0607133 0.0039884 0)
(-0.0621081 0.00398536 0)
(-0.0635008 0.00398407 0)
(-0.0648919 0.00398455 0)
(-0.0662821 0.00398681 0)
(-0.0676719 0.00399084 0)
(-0.0690619 0.00399662 0)
(-0.0704525 0.00400413 0)
(-0.0718444 0.00401331 0)
(-0.0732381 0.0040241 0)
(-0.074634 0.00403641 0)
(-0.0760326 0.00405014 0)
(-0.0774343 0.00406518 0)
(-0.0788395 0.00408136 0)
(-0.0802484 0.00409854 0)
(-0.0816613 0.00411653 0)
(-0.0830784 0.0041351 0)
(-0.0844998 0.00415402 0)
(-0.0859254 0.00417302 0)
(-0.0873551 0.00419182 0)
(-0.0887889 0.00421007 0)
(-0.0902262 0.00422744 0)
(-0.0916667 0.00424354 0)
(-0.0931098 0.00425795 0)
(-0.0945546 0.00427021 0)
(-0.0960005 0.00427986 0)
(-0.0974461 0.00428636 0)
(-0.0988904 0.00428917 0)
(-0.100332 0.00428772 0)
(-0.101769 0.00428137 0)
(-0.103199 0.00426948 0)
(-0.104622 0.00425137 0)
(-0.106033 0.00422633 0)
(-0.107431 0.00419361 0)
(-0.108813 0.00415245 0)
(-0.110176 0.00410204 0)
(-0.111516 0.00404158 0)
(-0.112831 0.00397023 0)
(-0.114115 0.00388714 0)
(-0.115366 0.00379145 0)
(-0.116578 0.0036823 0)
(-0.117746 0.00355882 0)
(-0.118867 0.00342016 0)
(-0.119935 0.00326549 0)
(-0.120944 0.00309398 0)
(-0.121888 0.00290485 0)
(-0.122763 0.00269737 0)
(-0.12356 0.00247084 0)
(-0.124275 0.00222464 0)
(-0.124901 0.00195823 0)
(-0.125431 0.00167113 0)
(-0.125859 0.001363 0)
(-0.126177 0.00103359 0)
(-0.126378 0.000682787 0)
(-0.126457 0.000310616 0)
(-0.126406 -8.27354e-05 0)
(-0.126219 -0.000496908 0)
(-0.125889 -0.00093136 0)
(-0.125411 -0.00138535 0)
(-0.124777 -0.00185792 0)
(-0.123983 -0.00234789 0)
(-0.123024 -0.00285387 0)
(-0.121895 -0.00337419 0)
(-0.120592 -0.00390695 0)
(-0.119112 -0.00445002 0)
(-0.117453 -0.00500098 0)
(-0.115612 -0.00555718 0)
(-0.113588 -0.00611571 0)
(-0.111383 -0.00667343 0)
(-0.108997 -0.00722698 0)
(-0.106432 -0.00777277 0)
(-0.103692 -0.00830703 0)
(-0.100782 -0.00882582 0)
(-0.0977069 -0.00932506 0)
(-0.0944746 -0.00980057 0)
(-0.0910936 -0.0102481 0)
(-0.0875736 -0.0106634 0)
(-0.0839259 -0.0110421 0)
(-0.0801629 -0.0113801 0)
(-0.0762986 -0.0116732 0)
(-0.0723478 -0.0119176 0)
(-0.068327 -0.0121094 0)
(-0.0642533 -0.0122453 0)
(-0.0601452 -0.0123221 0)
(-0.056022 -0.012337 0)
(-0.0519038 -0.0122876 0)
(-0.0478112 -0.012172 0)
(-0.0437656 -0.0119887 0)
(-0.0397884 -0.011737 0)
(-0.0359014 -0.0114166 0)
(-0.0321263 -0.0110277 0)
(-0.0284844 -0.0105713 0)
(-0.0249965 -0.0100493 0)
(-0.0216829 -0.00946398 0)
(-0.0185626 -0.00881875 0)
(-0.0156533 -0.00811788 0)
(-0.0129712 -0.00736674 0)
(-0.0105303 -0.00657204 0)
(-0.00834224 -0.00574209 0)
(-0.00641569 -0.0048873 0)
(-0.00475583 -0.00402072 0)
(-0.0033637 -0.00315893 0)
(-0.00223558 -0.00232316 0)
(-0.00136222 -0.00154088 0)
(-0.000727875 -0.000847819 0)
(-0.000309253 -0.000290212 0)
(-7.76877e-05 7.21203e-05 0)
(-2.45513e-06 0.000155901 0)
(-5.37002e-07 -9.25864e-05 0)
(-2.9654e-05 -9.26521e-05 0)
(-0.000121464 4.30039e-05 0)
(-0.000288431 0.000276477 0)
(-0.000541668 0.000579022 0)
(-0.000889786 0.000927535 0)
(-0.00133823 0.00130356 0)
(-0.0018898 0.0016926 0)
(-0.0025451 0.0020834 0)
(-0.00330289 0.00246736 0)
(-0.00416045 0.00283806 0)
(-0.00511385 0.00319082 0)
(-0.00615825 0.00352239 0)
(-0.00728817 0.00383064 0)
(-0.00849765 0.00411437 0)
(-0.00978046 0.00437307 0)
(-0.0111303 0.00460683 0)
(-0.0125408 0.00481615 0)
(-0.0140057 0.00500186 0)
(-0.015519 0.00516505 0)
(-0.0170749 0.00530697 0)
(-0.0186679 0.005429 0)
(-0.0202928 0.00553259 0)
(-0.0219448 0.0056192 0)
(-0.0236194 0.00569031 0)
(-0.0253126 0.00574738 0)
(-0.0270205 0.00579182 0)
(-0.0287398 0.00582497 0)
(-0.0304674 0.00584812 0)
(-0.0322007 0.00586249 0)
(-0.0339372 0.00586921 0)
(-0.0356748 0.00586933 0)
(-0.0374116 0.00586384 0)
(-0.0391461 0.00585361 0)
(-0.040877 0.00583947 0)
(-0.0426031 0.00582216 0)
(-0.0443235 0.00580236 0)
(-0.0460374 0.00578067 0)
(-0.0477443 0.00575765 0)
(-0.0494438 0.00573378 0)
(-0.0511356 0.00570951 0)
(-0.0528195 0.00568523 0)
(-0.0544955 0.00566129 0)
(-0.0561636 0.005638 0)
(-0.0578239 0.00561564 0)
(-0.0594768 0.00559446 0)
(-0.0611224 0.00557467 0)
(-0.0627612 0.00555646 0)
(-0.0643935 0.00554001 0)
(-0.0660198 0.00552545 0)
(-0.0676406 0.00551292 0)
(-0.0692564 0.00550251 0)
(-0.0708679 0.00549431 0)
(-0.0724755 0.0054884 0)
(-0.07408 0.00548481 0)
(-0.0756818 0.00548359 0)
(-0.0772817 0.00548473 0)
(-0.0788803 0.00548825 0)
(-0.0804781 0.0054941 0)
(-0.0820758 0.00550225 0)
(-0.0836739 0.00551262 0)
(-0.0852731 0.00552512 0)
(-0.0868738 0.00553963 0)
(-0.0884766 0.00555601 0)
(-0.0900818 0.00557409 0)
(-0.0916899 0.00559367 0)
(-0.0933011 0.00561451 0)
(-0.0949158 0.00563636 0)
(-0.096534 0.00565892 0)
(-0.0981558 0.00568186 0)
(-0.0997812 0.00570481 0)
(-0.10141 0.00572737 0)
(-0.103042 0.00574908 0)
(-0.104677 0.00576947 0)
(-0.106314 0.005788 0)
(-0.107952 0.0058041 0)
(-0.109591 0.00581717 0)
(-0.11123 0.00582653 0)
(-0.112866 0.00583148 0)
(-0.1145 0.00583128 0)
(-0.116129 0.00582514 0)
(-0.11775 0.0058122 0)
(-0.119363 0.0057916 0)
(-0.120965 0.00576241 0)
(-0.122552 0.00572367 0)
(-0.124123 0.00567437 0)
(-0.125673 0.00561347 0)
(-0.1272 0.00553992 0)
(-0.128699 0.00545261 0)
(-0.130167 0.00535043 0)
(-0.131599 0.00523223 0)
(-0.13299 0.00509688 0)
(-0.134336 0.00494322 0)
(-0.135632 0.00477011 0)
(-0.136871 0.00457642 0)
(-0.138047 0.00436103 0)
(-0.139156 0.00412288 0)
(-0.14019 0.00386093 0)
(-0.141142 0.00357423 0)
(-0.142007 0.00326187 0)
(-0.142776 0.00292305 0)
(-0.143443 0.00255707 0)
(-0.144 0.00216336 0)
(-0.144441 0.00174147 0)
(-0.144756 0.00129111 0)
(-0.14494 0.000812179 0)
(-0.144984 0.000304755 0)
(-0.144881 -0.000230867 0)
(-0.144623 -0.000794164 0)
(-0.144205 -0.00138436 0)
(-0.143618 -0.00200043 0)
(-0.142857 -0.00264104 0)
(-0.141916 -0.00330458 0)
(-0.140789 -0.00398913 0)
(-0.139471 -0.00469246 0)
(-0.137958 -0.00541199 0)
(-0.136247 -0.00614481 0)
(-0.134335 -0.00688771 0)
(-0.13222 -0.00763711 0)
(-0.129901 -0.00838913 0)
(-0.127379 -0.00913955 0)
(-0.124655 -0.0098839 0)
(-0.121732 -0.0106174 0)
(-0.118613 -0.011335 0)
(-0.115305 -0.0120315 0)
(-0.111813 -0.0127014 0)
(-0.108146 -0.0133392 0)
(-0.104313 -0.0139393 0)
(-0.100326 -0.0144959 0)
(-0.0961956 -0.0150035 0)
(-0.091937 -0.0154564 0)
(-0.0875651 -0.0158492 0)
(-0.0830966 -0.0161767 0)