/*--------------------------------*- C++ -*----------------------------------*\
  =========                 |
  \\      /  F ield         | OpenFOAM: The Open Source CFD Toolbox
   \\    /   O peration     | Website:  https://openfoam.org
    \\  /    A nd           | Version:  7
     \\/     M anipulation  |
\*---------------------------------------------------------------------------*/
FoamFile
{
    version     2.0;
    format      ascii;
    class       volScalarField;
    location    "0.425";
    object      p;
}
// * * * * * * * * * * * * * * * * * * * * * * * * * * * * * * * * * * * * * //

dimensions      [0 2 -2 0 0 0 0];

internalField   nonuniform List<scalar> 
12800
(
-6.80023e-09
2.70936e-05
-6.42721e-06
-0.000112489
-0.000283452
-0.00050946
-0.000780013
-0.00108475
-0.00141427
-0.00176032
-0.00211595
-0.00247487
-0.00283216
-0.00318359
-0.00352571
-0.00385576
-0.00417155
-0.00447142
-0.00475412
-0.00501877
-0.0052648
-0.00549189
-0.00569994
-0.00588904
-0.00605939
-0.00621128
-0.00634508
-0.00646125
-0.00656024
-0.00664253
-0.00670859
-0.00675887
-0.0067938
-0.00681378
-0.00681916
-0.00681028
-0.00678738
-0.00675069
-0.00670035
-0.00663649
-0.00655915
-0.00646835
-0.00636403
-0.00624608
-0.00611432
-0.00596853
-0.00580847
-0.0056338
-0.00544418
-0.00523917
-0.00501833
-0.00478112
-0.00452698
-0.0042553
-0.00396541
-0.00365661
-0.00332815
-0.00297922
-0.00260897
-0.00221648
-0.00180079
-0.0013609
-0.000895736
-0.00040419
0.000114906
0.00066277
0.00124067
0.00184993
0.00249194
0.00316811
0.00387994
0.00462897
0.00541677
0.00624498
0.00711527
0.00802937
0.00898903
0.00999604
0.0110522
0.0121594
0.0133195
0.0145343
0.0158058
0.0171358
0.0185261
0.0199786
0.0214952
0.0230774
0.024727
0.0264456
0.0282346
0.0300954
0.0320292
0.034037
0.0361196
0.0382778
0.040512
0.0428222
0.0452083
0.0476698
0.050206
0.0528157
0.0554972
0.0582486
0.0610674
0.0639505
0.0668946
0.0698957
0.0729491
0.0760499
0.0791922
0.0823699
0.0855761
0.0888034
0.0920437
0.0952885
0.0985287
0.101755
0.104957
0.108124
0.111245
0.114311
0.117308
0.120226
0.123054
0.125781
0.128394
0.130884
0.13324
0.135452
0.137512
0.139411
0.141141
0.142698
0.144074
0.145268
0.146276
0.147097
0.147733
0.148184
0.148456
0.148553
0.148483
0.148254
0.147877
0.147366
0.146733
0.145995
0.145169
0.144276
0.143338
0.142378
0.141424
0.140506
0.139657
0.138914
0.138316
0.137904
0.137718
0.137745
-2.75156e-05
-3.68897e-07
-3.5315e-05
-0.000132659
-0.00028343
-0.000480915
-0.000717584
-0.000985427
-0.00127682
-0.00158477
-0.00190312
-0.00222642
-0.00255003
-0.00287002
-0.0031831
-0.00348653
-0.00377812
-0.00405615
-0.00431929
-0.00456652
-0.00479714
-0.00501069
-0.00520691
-0.00538573
-0.0055472
-0.00569144
-0.00581871
-0.00592929
-0.00602351
-0.00610172
-0.00616429
-0.00621154
-0.0062438
-0.0062614
-0.00626461
-0.00625367
-0.00622879
-0.00619011
-0.00613774
-0.00607173
-0.00599211
-0.00589885
-0.00579187
-0.00567102
-0.00553612
-0.00538694
-0.00522319
-0.00504455
-0.00485065
-0.00464106
-0.00441533
-0.00417293
-0.0039133
-0.00363583
-0.00333986
-0.0030247
-0.00268961
-0.0023338
-0.00195642
-0.0015566
-0.00113338
-0.000685776
-0.000212761
0.000286751
0.000813893
0.00136985
0.00195584
0.00257316
0.00322313
0.00390712
0.00462659
0.00538299
0.00617786
0.00701275
0.00788927
0.00880905
0.00977378
0.0107852
0.0118449
0.0129548
0.0141165
0.015332
0.0166028
0.0179308
0.0193178
0.0207654
0.0222753
0.023849
0.0254882
0.0271943
0.0289686
0.0308122
0.0327264
0.034712
0.0367697
0.0389
0.0411033
0.0433795
0.0457284
0.0481494
0.0506417
0.0532039
0.0558344
0.0585313
0.0612919
0.0641133
0.0669921
0.0699244
0.0729056
0.0759309
0.0789947
0.0820908
0.0852127
0.0883533
0.0915047
0.0946588
0.097807
0.10094
0.104048
0.107122
0.11015
0.113124
0.116031
0.118862
0.121605
0.12425
0.126787
0.129205
0.131496
0.133649
0.135657
0.137512
0.139208
0.140738
0.142098
0.143285
0.144297
0.145133
0.145795
0.146283
0.146603
0.14676
0.14676
0.146613
0.146329
0.145919
0.145398
0.14478
0.144083
0.143325
0.142526
0.141709
0.140898
0.14012
0.139403
0.138776
0.13827
0.137914
0.137744
0.137772
5.37877e-06
3.4023e-05
-1.10864e-06
-9.37272e-05
-0.000233061
-0.00041334
-0.00062848
-0.000871875
-0.00113708
-0.00141809
-0.00170947
-0.00200636
-0.00230455
-0.00260039
-0.00289078
-0.00317311
-0.00344526
-0.00370549
-0.00395247
-0.00418511
-0.00440265
-0.00460453
-0.00479043
-0.00496014
-0.0051136
-0.00525086
-0.00537205
-0.00547735
-0.005567
-0.00564125
-0.00570035
-0.00574457
-0.00577416
-0.00578937
-0.0057904
-0.00577744
-0.00575062
-0.00571006
-0.00565581
-0.0055879
-0.00550631
-0.00541097
-0.00530178
-0.00517858
-0.00504115
-0.00488926
-0.00472261
-0.00454086
-0.00434363
-0.00413051
-0.00390102
-0.00365465
-0.00339082
-0.00310893
-0.00280835
-0.00248838
-0.00214829
-0.00178731
-0.00140461
-0.000999316
-0.00057051
-0.000117226
0.000361548
0.000866864
0.00139983
0.00196158
0.00255333
0.00317631
0.00383181
0.00452116
0.00524576
0.00600702
0.00680642
0.00764546
0.00852568
0.00944866
0.010416
0.0114293
0.0124903
0.0136006
0.0147619
0.0159759
0.0172443
0.0185687
0.0199508
0.0213922
0.0228944
0.024459
0.0260874
0.0277809
0.0295408
0.0313682
0.033264
0.0352292
0.0372642
0.0393695
0.0415454
0.0437918
0.0461084
0.0484945
0.0509492
0.0534712
0.0560588
0.0587101
0.0614224
0.0641929
0.0670182
0.0698944
0.0728172
0.0757816
0.0787824
0.0818135
0.0848686
0.0879407
0.0910223
0.0941056
0.0971821
0.100243
0.103279
0.106281
0.109238
0.112142
0.114981
0.117745
0.120425
0.12301
0.12549
0.127856
0.130098
0.132208
0.134179
0.136002
0.137673
0.139185
0.140534
0.141718
0.142734
0.143583
0.144264
0.144782
0.145139
0.145341
0.145395
0.145309
0.145094
0.14476
0.144321
0.143792
0.143188
0.142527
0.141827
0.14111
0.140397
0.139712
0.13908
0.138524
0.13807
0.137741
0.137573
0.137587
0.000111352
0.000131133
9.04884e-05
-2.8388e-06
-0.000138024
-0.000309638
-0.000512302
-0.000740261
-0.000987924
-0.00125007
-0.00152189
-0.00179905
-0.00207774
-0.00235463
-0.00262684
-0.00289196
-0.00314795
-0.00339317
-0.00362628
-0.00384622
-0.00405219
-0.00424362
-0.00442011
-0.00458139
-0.00472735
-0.00485795
-0.00497325
-0.00507337
-0.00515846
-0.0052287
-0.00528427
-0.00532537
-0.0053522
-0.00536493
-0.00536373
-0.00534871
-0.00531997
-0.00527756
-0.00522152
-0.00515184
-0.00506847
-0.00497132
-0.00486024
-0.00473506
-0.00459555
-0.00444145
-0.00427246
-0.00408823
-0.00388839
-0.0036725
-0.00344008
-0.00319061
-0.00292355
-0.00263828
-0.00233417
-0.00201055
-0.00166668
-0.00130182
-0.000915142
-0.000505795
-7.2878e-05
0.000384554
0.000867487
0.00137695
0.00191402
0.00247981
0.00307549
0.00370225
0.00436136
0.00505411
0.00578184
0.00654593
0.0073478
0.0081889
0.00907073
0.00999479
0.0109626
0.0119759
0.013036
0.0141447
0.0153036
0.0165143
0.0177783
0.0190973
0.0204729
0.0219066
0.0233998
0.0249541
0.0265707
0.028251
0.029996
0.0318069
0.0336845
0.0356296
0.0376428
0.0397244
0.0418745
0.0440932
0.04638
0.0487343
0.0511551
0.0536412
0.0561908
0.058802
0.0614722
0.0641987
0.0669781
0.0698065
0.0726798
0.0755932
0.0785414
0.0815187
0.0845188
0.087535
0.09056
0.0935861
0.0966053
0.0996089
0.102588
0.105533
0.108436
0.111285
0.114071
0.116785
0.119417
0.121956
0.124393
0.12672
0.128927
0.131006
0.132949
0.134751
0.136404
0.137904
0.139246
0.140429
0.141451
0.14231
0.143009
0.14355
0.143936
0.144174
0.144269
0.14423
0.144067
0.14379
0.143413
0.142948
0.142412
0.141821
0.141191
0.140543
0.139895
0.139269
0.138686
0.138168
0.137735
0.137409
0.137217
0.13718
0.000283947
0.000282852
0.00022938
0.000129941
-6.49098e-06
-0.000174896
-0.000370449
-0.000588136
-0.000823126
-0.00107086
-0.00132714
-0.00158815
-0.00185048
-0.0021111
-0.00236743
-0.00261724
-0.00285866
-0.00309013
-0.00331037
-0.00351836
-0.00371333
-0.00389469
-0.00406202
-0.00421501
-0.0043535
-0.0044774
-0.00458672
-0.00468152
-0.00476189
-0.00482794
-0.00487979
-0.0049176
-0.00494149
-0.0049516
-0.00494803
-0.00493085
-0.00490012
-0.00485584
-0.00479802
-0.00472661
-0.00464154
-0.00454268
-0.00442988
-0.00430291
-0.00416156
-0.00400553
-0.00383452
-0.00364818
-0.00344611
-0.00322788
-0.002993
-0.00274097
-0.00247122
-0.00218316
-0.00187617
-0.00154957
-0.00120266
-0.000834677
-0.000444833
-3.22865e-05
0.000403843
0.000864477
0.00135058
0.00186315
0.00240324
0.00297193
0.00357035
0.00419967
0.00486111
0.00555593
0.00628542
0.00705091
0.00785378
0.00869544
0.00957732
0.0105009
0.0114676
0.0124791
0.0135367
0.0146421
0.0157969
0.0170024
0.0182604
0.0195724
0.0209397
0.022364
0.0238467
0.025389
0.0269923
0.0286578
0.0303866
0.0321797
0.034038
0.0359621
0.0379525
0.0400097
0.0421337
0.0443244
0.0465815
0.0489043
0.0512918
0.0537428
0.0562556
0.0588283
0.0614584
0.0641431
0.0668793
0.0696631
0.0724905
0.0753569
0.078257
0.0811854
0.0841358
0.0871019
0.0900765
0.0930521
0.0960209
0.0989745
0.101904
0.104801
0.107656
0.110459
0.113202
0.115874
0.118465
0.120967
0.12337
0.125665
0.127844
0.129898
0.131821
0.133605
0.135246
0.136738
0.138078
0.139262
0.140289
0.14116
0.141875
0.142437
0.142849
0.143117
0.143247
0.143247
0.143128
0.142898
0.142571
0.142159
0.141677
0.14114
0.140564
0.139967
0.139366
0.138779
0.138227
0.137726
0.137295
0.136951
0.136714
0.136593
0.000514449
0.000483252
0.000410431
0.000299748
0.000157069
-1.30537e-05
-0.000206302
-0.000418361
-0.000645062
-0.000882473
-0.00112695
-0.00137517
-0.00162411
-0.0018711
-0.00211381
-0.00235025
-0.00257873
-0.00279779
-0.00300626
-0.0032032
-0.00338786
-0.00355968
-0.00371822
-0.00386318
-0.00399435
-0.00411165
-0.00421502
-0.00430448
-0.00438006
-0.00444184
-0.00448989
-0.00452432
-0.00454519
-0.00455261
-0.00454661
-0.00452724
-0.0044945
-0.00444838
-0.00438883
-0.00431579
-0.00422914
-0.00412873
-0.00401438
-0.00388586
-0.00374292
-0.00358527
-0.00341259
-0.00322451
-0.00302063
-0.00280052
-0.00256369
-0.00230962
-0.00203777
-0.00174755
-0.00143833
-0.00110947
-0.000760249
-0.000389943
2.2329e-06
0.000417101
0.000855519
0.00131838
0.00180664
0.00232125
0.00286325
0.00343368
0.00403364
0.00466426
0.00532673
0.00602226
0.00675211
0.00751757
0.00831996
0.00916064
0.010041
0.0109625
0.0119265
0.0129345
0.0139879
0.0150883
0.0162371
0.0174359
0.0186861
0.0199893
0.0213467
0.0227599
0.0242303
0.0257591
0.0273476
0.0289969
0.0307081
0.0324822
0.03432
0.036222
0.038189
0.0402211
0.0423185
0.0444811
0.0467084
0.049
0.0513548
0.0537716
0.0562488
0.0587845
0.0613764
0.0640217
0.0667173
0.0694596
0.0722446
0.0750678
0.0779242
0.0808084
0.0837145
0.0866361
0.0895663
0.0924978
0.095423
0.0983337
0.101221
0.104078
0.106893
0.109659
0.112365
0.115003
0.117562
0.120035
0.122411
0.124682
0.12684
0.128876
0.130785
0.132558
0.134192
0.13568
0.137019
0.138207
0.139242
0.140125
0.140855
0.141436
0.141871
0.142165
0.142325
0.142358
0.142274
0.142083
0.141796
0.141425
0.140984
0.140488
0.139951
0.139389
0.138818
0.138254
0.137714
0.137213
0.136767
0.136391
0.136091
0.135865
0.00079337
0.000725486
0.000628108
0.000501627
0.000348224
0.000171945
-2.33437e-05
-0.000233982
-0.000456423
-0.000687307
-0.0009235
-0.00116212
-0.00140055
-0.00163646
-0.00186782
-0.00209287
-0.00231008
-0.00251816
-0.00271607
-0.00290295
-0.00307812
-0.00324104
-0.0033913
-0.00352861
-0.00365277
-0.00376366
-0.00386122
-0.00394542
-0.00401627
-0.0040738
-0.00411805
-0.00414908
-0.00416694
-0.00417166
-0.00416326
-0.00414172
-0.00410702
-0.00405912
-0.00399795
-0.0039234
-0.00383533
-0.00373356
-0.00361789
-0.00348808
-0.00334386
-0.00318492
-0.00301093
-0.00282153
-0.00261629
-0.00239479
-0.00215653
-0.001901
-0.00162765
-0.00133591
-0.00102516
-0.000694762
-0.000344017
2.77944e-05
0.000421438
0.000837715
0.00127746
0.00174156
0.00223092
0.00274648
0.00328923
0.00386021
0.00446046
0.00509109
0.00575325
0.0064481
0.00717688
0.00794082
0.00874121
0.00957936
0.0104566
0.0113743
0.0123339
0.0133367
0.0143842
0.0154779
0.0166191
0.0178093
0.01905
0.0203425
0.0216884
0.0230888
0.0245452
0.0260589
0.027631
0.0292627
0.030955
0.0327088
0.0345249
0.036404
0.0383467
0.0403531
0.0424234
0.0445576
0.0467553
0.0490159
0.0513385
0.053722
0.0561648
0.0586651
0.0612206
0.0638287
0.0664865
0.0691903
0.0719364
0.0747203
0.0775373
0.0803821
0.0832488
0.0861314
0.0890231
0.0919169
0.0948051
0.09768
0.100533
0.103356
0.10614
0.108875
0.111554
0.114165
0.116701
0.119152
0.121509
0.123764
0.125908
0.127934
0.129834
0.131603
0.133234
0.134722
0.136065
0.13726
0.138305
0.139199
0.139944
0.140543
0.140998
0.141315
0.141501
0.141561
0.141506
0.141344
0.141087
0.140747
0.140336
0.139868
0.139356
0.138816
0.13826
0.137704
0.137162
0.136647
0.136172
0.135751
0.135376
0.135035
0.00111126
0.00100214
0.000876134
0.000730098
0.000562183
0.000375959
0.000174906
-3.79304e-05
-0.000259603
-0.000487272
-0.000718268
-0.000950137
-0.00118065
-0.00140784
-0.00162994
-0.00184542
-0.00205296
-0.00225145
-0.00243998
-0.0026178
-0.0027843
-0.00293901
-0.00308156
-0.00321167
-0.00332917
-0.00343394
-0.0035259
-0.003605
-0.00367123
-0.0037246
-0.00376513
-0.00379283
-0.00380773
-0.00380981
-0.00379906
-0.00377543
-0.00373887
-0.00368932
-0.00362666
-0.00355076
-0.00346145
-0.00335854
-0.00324181
-0.00311098
-0.00296578
-0.0028059
-0.00263099
-0.00244068
-0.00223453
-0.00201212
-0.00177295
-0.00151652
-0.00124228
-0.000949669
-0.000638074
-0.00030686
4.46458e-05
0.000417155
0.000811413
0.0012282
0.00166834
0.00213267
0.00262209
0.00313751
0.00367989
0.00425022
0.00484954
0.0054789
0.00613941
0.00683222
0.0075585
0.00831945
0.00911632
0.00995037
0.0108229
0.0117352
0.0126887
0.0136847
0.0147245
0.0158097
0.0169415
0.0181213
0.0193507
0.0206309
0.0219633
0.0233493
0.0247901
0.0262869
0.0278411
0.0294536
0.0311255
0.0328576
0.0346509
0.036506
0.0384233
0.0404032
0.0424459
0.0445514
0.0467192
0.0489489
0.0512397
0.0535905
0.0559998
0.0584659
0.0609866
0.0635594
0.0661815
0.0688495
0.0715596
0.0743077
0.077089
0.0798985
0.0827306
0.0855792
0.0884377
0.0912994
0.0941568
0.0970021
0.0998272
0.102624
0.105383
0.108096
0.110754
0.113347
0.115867
0.118304
0.120649
0.122895
0.125032
0.127054
0.128952
0.130721
0.132355
0.133849
0.135199
0.136403
0.13746
0.138368
0.139129
0.139745
0.140219
0.140557
0.140763
0.140846
0.140813
0.140675
0.14044
0.140122
0.139731
0.13928
0.138783
0.138251
0.137698
0.137138
0.136581
0.13604
0.135527
0.135051
0.134594
0.134133
0.00145933
0.0013059
0.00114823
0.000979619
0.000794082
0.000594757
0.000384792
0.000166658
-5.72426e-05
-0.000284553
-0.000513049
-0.000740688
-0.000965622
-0.00118619
-0.00140093
-0.00160854
-0.00180792
-0.00199814
-0.00217844
-0.00234819
-0.00250687
-0.00265408
-0.0027895
-0.00291292
-0.00302417
-0.00312316
-0.00320979
-0.00328402
-0.00334582
-0.0033952
-0.00343214
-0.00345664
-0.00346868
-0.00346824
-0.00345525
-0.00342966
-0.00339138
-0.00334032
-0.00327634
-0.00319928
-0.00310895
-0.00300514
-0.0028876
-0.00275605
-0.0026102
-0.00244974
-0.00227429
-0.00208347
-0.00187687
-0.00165404
-0.00141448
-0.00115771
-0.000883171
-0.000590314
-0.000278543
5.27685e-05
0.000404283
0.000776693
0.00117073
0.00158714
0.00202674
0.00249033
0.00297879
0.00349301
0.00403389
0.00460242
0.00519957
0.00582639
0.00648395
0.00717334
0.0078957
0.0086522
0.00944403
0.0102724
0.0111386
0.0120439
0.0129896
0.013977
0.0150075
0.0160823
0.0172029
0.0183707
0.0195869
0.0208529
0.0221701
0.0235398
0.0249632
0.0264416
0.0279761
0.0295678
0.0312178
0.0329269
0.034696
0.0365257
0.0384167
0.0403692
0.0423835
0.0444595
0.0465971
0.0487958
0.0510549
0.0533732
0.0557496
0.0581824
0.0606695
0.0632086
0.0657968
0.0684312
0.0711079
0.073823
0.076572
0.0793499
0.0821513
0.0849703
0.0878005
0.0906352
0.0934671
0.0962887
0.0990919
0.101868
0.10461
0.107307
0.109951
0.112533
0.115043
0.117473
0.119815
0.122058
0.124195
0.126219
0.128121
0.129897
0.131539
0.133043
0.134405
0.135622
0.136693
0.137617
0.138394
0.139028
0.13952
0.139876
0.140102
0.140203
0.140189
0.140068
0.13985
0.139545
0.139166
0.138724
0.138231
0.137699
0.137139
0.136564
0.135983
0.135407
0.134846
0.13431
0.133768
0.133187
0.00182958
0.00162984
0.00143828
0.00124475
0.00103908
0.000824061
0.000602546
0.000376485
0.000147792
-8.16257e-05
-0.000309977
-0.000535615
-0.000757042
-0.000972909
-0.00118202
-0.00138332
-0.00157595
-0.00175917
-0.00193235
-0.002095
-0.0022467
-0.00238713
-0.00251606
-0.00263333
-0.0027388
-0.00283239
-0.00291403
-0.00298367
-0.0030413
-0.00308689
-0.00312044
-0.00314192
-0.00315128
-0.00314847
-0.00313341
-0.00310602
-0.0030662
-0.00301381
-0.00294871
-0.00287071
-0.0027796
-0.00267514
-0.00255708
-0.00242511
-0.00227895
-0.00211825
-0.00194265
-0.00175176
-0.00154515
-0.00132237
-0.00108294
-0.00082637
-0.000552121
-0.000259644
5.16434e-05
0.000382356
0.000733139
0.00110467
0.00149766
0.00191283
0.00235097
0.00281287
0.00329937
0.00381131
0.0043496
0.00491516
0.00550896
0.00613198
0.00678528
0.00746989
0.00818693
0.00893752
0.00972282
0.010544
0.0114023
0.0122989
0.0132352
0.0142123
0.0152316
0.0162944
0.017402
0.0185557
0.019757
0.021007
0.0223072
0.0236587
0.0250629
0.026521
0.0280341
0.0296034
0.0312298
0.0329143
0.0346578
0.0364609
0.0383242
0.0402482
0.0422331
0.0442791
0.0463859
0.0485531
0.0507802
0.0530663
0.0554101
0.0578101
0.0602645
0.062771
0.065327
0.0679294
0.070575
0.0732596
0.0759791
0.0787286
0.0815028
0.0842961
0.0871022
0.0899145
0.0927259
0.0955289
0.0983157
0.101078
0.103807
0.106495
0.109132
0.111709
0.114217
0.116647
0.11899
0.121238
0.123382
0.125414
0.127327
0.129114
0.13077
0.132289
0.133667
0.134901
0.13599
0.136932
0.137728
0.13838
0.138891
0.139265
0.139508
0.139625
0.139626
0.139518
0.139311
0.139015
0.138641
0.1382
0.137703
0.137162
0.136587
0.135989
0.135377
0.134759
0.134146
0.133546
0.132917
0.132218
0.00221475
0.00196743
0.00174045
0.00152018
0.0012924
0.00105957
0.000824329
0.00058815
0.000352496
0.000118847
-0.000111412
-0.000337003
-0.000556757
-0.00076962
-0.000974672
-0.00117113
-0.00135833
-0.00153573
-0.00170285
-0.00185934
-0.00200489
-0.00213929
-0.00226239
-0.00237408
-0.00247427
-0.0025629
-0.00263992
-0.00270532
-0.00275907
-0.00280116
-0.00283156
-0.00285024
-0.00285713
-0.00285215
-0.00283523
-0.00280625
-0.00276509
-0.00271161
-0.00264562
-0.00256691
-0.00247527
-0.00237044
-0.00225214
-0.00212007
-0.00197393
-0.00181336
-0.001638
-0.00144744
-0.00124126
-0.00101901
-0.000780215
-0.000524381
-0.000250991
4.04992e-05
0.000350661
0.000680093
0.00102943
0.00139931
0.00179045
0.00220354
0.00263933
0.0030986
0.00358214
0.00409078
0.00462539
0.00518685
0.0057761
0.0063941
0.00704183
0.00772034
0.00843067
0.0091739
0.00995117
0.0107636
0.0116124
0.0124987
0.0134238
0.0143889
0.0153953
0.0164442
0.017537
0.018675
0.0198594
0.0210916
0.0223728
0.0237044
0.0250875
0.0265235
0.0280134
0.0295585
0.0311596
0.0328179
0.0345341
0.0363091
0.0381435
0.0400378
0.0419922
0.0440071
0.0460823
0.0482175
0.0504123
0.0526659
0.0549772
0.0573448
0.059767
0.0622417
0.0647665
0.0673386
0.0699546
0.0726108
0.0753032
0.0780269
0.0807771
0.0835481
0.0863338
0.0891278
0.0919231
0.0947123
0.0974877
0.100241
0.102964
0.105648
0.108283
0.110862
0.113374
0.11581
0.118162
0.120421
0.122577
0.124624
0.126554
0.128359
0.130034
0.131573
0.132972
0.134227
0.135337
0.136301
0.137118
0.137791
0.138321
0.138713
0.138972
0.139105
0.139118
0.13902
0.13882
0.138527
0.138153
0.137708
0.137201
0.136645
0.136048
0.135421
0.134771
0.134106
0.133437
0.13277
0.132055
0.131244
0.00260821
0.00231262
0.00204915
0.0018008
0.00154934
0.00129701
0.00104627
0.00079817
0.000553731
0.000314035
8.00984e-05
-0.000147139
-0.000366823
-0.000578196
-0.000780618
-0.000973553
-0.00115655
-0.00132923
-0.00149131
-0.00164254
-0.00178278
-0.00191189
-0.00202983
-0.00213652
-0.00223195
-0.00231608
-0.00238892
-0.00245045
-0.00250067
-0.00253957
-0.00256712
-0.00258327
-0.00258794
-0.00258104
-0.0025625
-0.00253217
-0.00248991
-0.00243557
-0.00236893
-0.00228978
-0.00219788
-0.00209295
-0.00197472
-0.00184287
-0.00169708
-0.00153701
-0.00136226
-0.00117244
-0.000967117
-0.000745853
-0.000508177
-0.000253604
1.83744e-05
0.000308292
0.000616705
0.000944199
0.00129138
0.00165889
0.0020474
0.00245758
0.00289016
0.00334588
0.0038255
0.00432983
0.00485969
0.00541595
0.00599949
0.00661125
0.00725216
0.00792324
0.00862548
0.00935994
0.0101277
0.0109299
0.0117676
0.012642
0.0135542
0.0145056
0.0154973
0.0165306
0.0176068
0.0187271
0.0198928
0.0211052
0.0223656
0.0236753
0.0250355
0.0264475
0.0279124
0.0294314
0.0310055
0.0326358
0.0343232
0.0360685
0.0378725
0.0397356
0.0416584
0.0436411
0.0456837
0.0477861
0.049948
0.0521686
0.0544472
0.0567824
0.0591727
0.0616161
0.0641106
0.0666532
0.0692411
0.0718706
0.0745377
0.0772381
0.0799668
0.0827183
0.0854869
0.0882662
0.0910493
0.093829
0.0965975
0.0993468
0.102069
0.104754
0.107394
0.109979
0.112501
0.11495
0.117317
0.119592
0.121768
0.123836
0.125788
0.127617
0.129317
0.130881
0.132306
0.133588
0.134724
0.135712
0.136553
0.137249
0.1378
0.138211
0.138487
0.138634
0.138658
0.138568
0.138373
0.138081
0.137702
0.137248
0.136727
0.13615
0.135526
0.134864
0.134173
0.133458
0.13273
0.131996
0.131197
0.130277
0.00300393
0.00265972
0.00235905
0.00208164
0.00180531
0.00153215
0.00126451
0.001003
0.000748248
0.000500976
0.000261859
3.15205e-05
-0.000189496
-0.000400729
-0.000601805
-0.000792417
-0.000972319
-0.00114132
-0.0012993
-0.00144616
-0.00158187
-0.00170644
-0.00181987
-0.00192218
-0.00201339
-0.00209353
-0.00216262
-0.0022207
-0.00226778
-0.00230384
-0.00232886
-0.00234277
-0.00234551
-0.00233698
-0.00231707
-0.00228566
-0.00224257
-0.00218762
-0.0021206
-0.00204127
-0.00194938
-0.00184465
-0.00172678
-0.00159547
-0.00145037
-0.00129113
-0.00111736
-0.000928672
-0.000724628
-0.000504791
-0.000268704
-1.58888e-05
0.000254151
0.000541936
0.000848007
0.00117293
0.0015173
0.00188172
0.00226685
0.00267333
0.00310186
0.00355315
0.00402793
0.00452697
0.00505107
0.00560104
0.00617774
0.00678207
0.00741493
0.00807727
0.00877009
0.00949438
0.0102512
0.0110416
0.0118666
0.0127275
0.0136253
0.0145613
0.0155366
0.0165524
0.0176101
0.0187109
0.019856
0.0210468
0.0222845
0.0235704
0.0249057
0.0262918
0.0277297
0.0292208
0.0307661
0.0323666
0.0340234
0.0357374
0.0375093
0.0393398
0.0412295
0.0431788
0.0451877
0.0472563
0.0493844
0.0515715
0.0538169
0.0561194
0.0584777
0.0608902
0.0633546
0.0658686
0.0684293
0.0710333
0.0736768
0.0763556
0.079065
0.0817996
0.0845539
0.0873215
0.0900958
0.0928697
0.0956354
0.098385
0.10111
0.103802
0.106451
0.10905
0.111587
0.114054
0.116441
0.11874
0.120942
0.123036
0.125017
0.126876
0.128606
0.130202
0.131658
0.132971
0.134137
0.135155
0.136024
0.136745
0.13732
0.137752
0.138046
0.138207
0.138242
0.138159
0.137966
0.137672
0.137287
0.13682
0.13628
0.135679
0.135025
0.134325
0.133589
0.132822
0.132033
0.131232
0.130351
0.129328
0.00339633
0.00300337
0.00266508
0.00235793
0.00205586
0.00176086
0.00147517
0.00119904
0.000932722
0.000676605
0.00043105
0.000196364
-2.72132e-05
-0.000239501
-0.000440371
-0.000629737
-0.000807558
-0.000973831
-0.00112859
-0.00127192
-0.0014039
-0.00152463
-0.00163421
-0.00173273
-0.00182028
-0.00189694
-0.00196277
-0.00201784
-0.00206218
-0.00209578
-0.00211861
-0.00213062
-0.00213174
-0.00212187
-0.00210089
-0.00206867
-0.00202502
-0.00196974
-0.0019026
-0.00182337
-0.00173177
-0.00162752
-0.00151032
-0.00137984
-0.00123575
-0.00107768
-0.000905254
-0.00071806
-0.000515684
-0.000297691
-6.36326e-05
0.000186956
0.000454559
0.000739682
0.00104285
0.00136461
0.00170553
0.0020662
0.00244723
0.00284927
0.00327295
0.00371897
0.00418801
0.00468082
0.00519816
0.0057408
0.00630958
0.00690533
0.00752893
0.0081813
0.00886338
0.00957612
0.0103205
0.0110977
0.0119086
0.0127543
0.013636
0.0145549
0.015512
0.0165087
0.0175461
0.0186256
0.0197482
0.0209155
0.0221285
0.0233887
0.0246972
0.0260554
0.0274645
0.0289257
0.0304402
0.0320092
0.0336336
0.0353145
0.0370527
0.038849
0.0407041
0.0426185
0.0445924
0.0466261
0.0487195
0.0508721
0.0530836
0.0553529
0.057679
0.0600603
0.062495
0.0649807
0.0675147
0.0700941
0.0727151
0.0753738
0.0780655
0.0807853
0.0835276
0.0862863
0.0890548
0.0918261
0.0945926
0.0973464
0.100079
0.102782
0.105446
0.108062
0.11062
0.113111
0.115525
0.117853
0.120085
0.122213
0.124229
0.126123
0.12789
0.129523
0.131016
0.132365
0.133567
0.134618
0.135519
0.13627
0.136871
0.137327
0.137641
0.137818
0.137865
0.137789
0.137597
0.1373
0.136906
0.136424
0.135864
0.135236
0.134547
0.133808
0.133025
0.132203
0.131354
0.130486
0.129525
0.128404
0.00378019
0.00333857
0.00296243
0.00262507
0.00229665
0.00197903
0.0016744
0.00138268
0.00110378
0.00083778
0.000584731
0.000344628
0.000117426
-9.69552e-05
-0.00029862
-0.000487702
-0.000664362
-0.000828782
-0.000981173
-0.00112175
-0.00125074
-0.00136832
-0.00147469
-0.00157002
-0.00165447
-0.00172817
-0.00179123
-0.00184375
-0.00188576
-0.00191728
-0.00193829
-0.00194874
-0.00194857
-0.00193768
-0.00191594
-0.00188319
-0.00183926
-0.00178392
-0.00171695
-0.00163808
-0.00154704
-0.00144355
-0.0013273
-0.00119795
-0.00105517
-0.000898588
-0.00072782
-0.000542469
-0.000342124
-0.00012636
0.000105259
0.000353187
0.000617893
0.000899865
0.00119961
0.00151765
0.00185453
0.00221082
0.0025871
0.00298397
0.00340205
0.003842
0.00430447
0.00479016
0.00529979
0.00583412
0.00639391
0.00697999
0.00759318
0.00823436
0.00890443
0.00960431
0.010335
0.0110974
0.0118926
0.0127217
0.0135857
0.0144858
0.0154232
0.0163989
0.0174143
0.0184705
0.0195689
0.0207107
0.0218972
0.0231297
0.0244095
0.0257379
0.0271162
0.0285456
0.0300275
0.0315629
0.0331531
0.0347991
0.0365018
0.0382623
0.0400811
0.0419591
0.0438967
0.0458941
0.0479515
0.0500687
0.0522453
0.0544808
0.056774
0.0591238
0.0615284
0.0639859
0.0664937
0.0690489
0.0716483
0.0742878
0.0769633
0.0796698
0.0824019
0.0851539
0.0879191
0.0906907
0.0934612
0.0962228
0.0989669
0.101685
0.104368
0.107006
0.10959
0.11211
0.114556
0.116918
0.119188
0.121355
0.123412
0.125348
0.127158
0.128834
0.13037
0.131761
0.133003
0.134093
0.135031
0.135815
0.136447
0.13693
0.137266
0.137461
0.137521
0.137452
0.137263
0.136962
0.136558
0.13606
0.135478
0.134821
0.134097
0.133316
0.132484
0.131608
0.130698
0.129764
0.128726
0.127512
0.00415062
0.00366053
0.00324648
0.00287864
0.00252341
0.0021826
0.00185836
0.0015503
0.00125802
0.000981291
0.000719858
0.000473428
0.000241691
2.43231e-05
-0.00017901
-0.000368661
-0.000544989
-0.000708365
-0.000859162
-0.000997736
-0.00112442
-0.00123951
-0.00134329
-0.00143602
-0.00151792
-0.00158918
-0.00164996
-0.00170037
-0.00174049
-0.00177033
-0.00178989
-0.00179915
-0.00179802
-0.00178643
-0.00176422
-0.00173124
-0.0016873
-0.00163218
-0.00156562
-0.00148738
-0.00139717
-0.0012947
-0.00117966
-0.00105171
-0.000910513
-0.0007557
-0.00058689
-0.000403694
-0.000205709
7.47744e-06
0.00023629
0.000481166
0.000742558
0.00102093
0.00131678
0.00163059
0.0019629
0.00231422
0.00268513
0.00307618
0.00348797
0.00392109
0.0043762
0.00485393
0.00535497
0.00588004
0.00642986
0.00700522
0.0076069
0.00823573
0.00889258
0.00957832
0.0102939
0.0110402
0.0118184
0.0126293
0.0134741
0.0143538
0.0152697
0.0162228
0.0172144
0.0182457
0.0193179
0.0204324
0.0215905
0.0227934
0.0240425
0.0253392
0.0266847
0.0280805
0.0295277
0.0310277
0.0325817
0.034191
0.0358564
0.0375792
0.0393602
0.0412002
0.0430997
0.0450594
0.0470795
0.04916
0.0513008
0.0535014
0.055761
0.0580786
0.0604528
0.0628818
0.0653632
0.0678945
0.0704726
0.0730937
0.0757538
0.0784482
0.0811718
0.0839187
0.0866828
0.0894571
0.0922344
0.0950066
0.0977656
0.100503
0.103208
0.105873
0.108487
0.111041
0.113525
0.115928
0.11824
0.120453
0.122556
0.124541
0.126399
0.128125
0.129709
0.131148
0.132437
0.133572
0.134551
0.135374
0.136041
0.136554
0.136916
0.137132
0.137206
0.137147
0.136961
0.136657
0.136243
0.135729
0.135124
0.134437
0.133677
0.132853
0.131972
0.13104
0.13007
0.129071
0.127958
0.126654
0.00450299
0.00396471
0.0035128
0.00311432
0.00273199
0.00236759
0.00202325
0.00169829
0.001392
0.00110385
0.000833293
0.00057978
0.000342748
0.000121632
-8.41306e-05
-0.000275105
-0.000451852
-0.000614919
-0.000764832
-0.000902076
-0.0010271
-0.00114032
-0.00124211
-0.0013328
-0.00141269
-0.00148203
-0.00154101
-0.00158977
-0.0016284
-0.00165696
-0.00167545
-0.00168386
-0.00168212
-0.00167013
-0.00164775
-0.00161482
-0.00157114
-0.00151648
-0.00145059
-0.00137321
-0.00128407
-0.00118286
-0.00106926
-0.000942955
-0.000803584
-0.000650789
-0.000484197
-0.000303426
-0.000108086
0.00010222
0.000327903
0.000569384
0.000827095
0.00110148
0.00139301
0.00170215
0.00202939
0.00237524
0.00274021
0.00312485
0.00352969
0.00395532
0.00440232
0.00487131
0.00536294
0.00587786
0.00641679
0.00698043
0.00756956
0.00818495
0.00882742
0.00949782
0.010197
0.010926
0.0116856
0.012477
0.013301
0.0141589
0.0150516
0.0159805
0.0169466
0.0179512
0.0189955
0.0200809
0.0212087
0.0223801
0.0235967
0.0248597
0.0261706
0.0275306
0.0289414
0.030404
0.03192
0.0334905
0.0351169
0.0368002
0.0385415
0.0403417
0.0422017
0.0441221
0.0461034
0.0481458
0.0502495
0.052414
0.054639
0.0569237
0.0592667
0.0616666
0.0641214
0.0666286
0.0691854
0.0717885
0.0744338
0.0771169
0.079833
0.0825763
0.0853408
0.0881199
0.0909061
0.0936918
0.0964686
0.0992278
0.10196
0.104656
0.107305
0.109897
0.112423
0.114872
0.117232
0.119496
0.121652
0.123691
0.125605
0.127386
0.129026
0.130519
0.13186
0.133045
0.134072
0.134938
0.135645
0.136193
0.136585
0.136825
0.136918
0.13687
0.136689
0.136383
0.13596
0.13543
0.134802
0.134085
0.133289
0.132422
0.131491
0.130504
0.129474
0.128411
0.127225
0.125834
0.00483284
0.00424672
0.00375707
0.00332792
0.00291833
0.00253009
0.00216531
0.00182303
0.00150222
0.00120209
0.000921828
0.000660622
0.000417664
0.000192155
-1.66951e-05
-0.000209661
-0.000387497
-0.000550913
-0.00070058
-0.000837116
-0.000961087
-0.00107302
-0.00117337
-0.00126257
-0.00134098
-0.00140888
-0.00146651
-0.00151404
-0.0015516
-0.00157926
-0.00159705
-0.00160495
-0.0016029
-0.00159082
-0.00156855
-0.00153593
-0.00149275
-0.00143878
-0.00137378
-0.00129749
-0.00120961
-0.00110986
-0.000997916
-0.000873443
-0.000736098
-0.000585526
-0.000421364
-0.000243242
-5.07847e-05
0.000156392
0.000378679
0.000616477
0.000870199
0.00114027
0.00142711
0.00173118
0.00205294
0.00239285
0.00275141
0.00312909
0.00352642
0.00394393
0.00438216
0.00484171
0.00532316