/*--------------------------------*- C++ -*----------------------------------*\
  =========                 |
  \\      /  F ield         | OpenFOAM: The Open Source CFD Toolbox
   \\    /   O peration     | Website:  https://openfoam.org
    \\  /    A nd           | Version:  7
     \\/     M anipulation  |
\*---------------------------------------------------------------------------*/
FoamFile
{
    version     2.0;
    format      ascii;
    class       surfaceScalarField;
    location    "0.425";
    object      phi;
}
// * * * * * * * * * * * * * * * * * * * * * * * * * * * * * * * * * * * * * //

dimensions      [0 3 -1 0 0 0 0];

internalField   nonuniform List<scalar> 
25360
(
5.17281e-11
-5.17178e-11
1.93073e-10
-1.4135e-10
3.60458e-10
-1.67371e-10
5.06281e-10
-1.45819e-10
6.02442e-10
-9.6169e-11
6.33041e-10
-3.0594e-11
5.89852e-10
4.31815e-11
4.69708e-10
1.20152e-10
2.72605e-10
1.97094e-10
6.79065e-13
2.71924e-10
-3.42537e-10
3.43211e-10
-7.52859e-10
4.10324e-10
-1.22552e-09
4.72656e-10
-1.75549e-09
5.29973e-10
-2.33773e-09
5.82237e-10
-2.96723e-09
6.29501e-10
-3.63917e-09
6.71931e-10
-4.34891e-09
7.09746e-10
-5.09213e-09
7.43212e-10
-5.86476e-09
7.72631e-10
-6.66307e-09
7.98319e-10
-7.48366e-09
8.20589e-10
-8.32344e-09
8.39772e-10
-9.17963e-09
8.56193e-10
-1.00498e-08
8.70157e-10
-1.09317e-08
8.81961e-10
-1.18236e-08
8.9189e-10
-1.27238e-08
9.00207e-10
-1.3631e-08
9.0716e-10
-1.4544e-08
9.12983e-10
-1.54619e-08
9.17891e-10
-1.63839e-08
9.22071e-10
-1.73096e-08
9.25699e-10
-1.82386e-08
9.2894e-10
-1.91705e-08
9.31934e-10
-2.01053e-08
9.34806e-10
-2.1043e-08
9.37676e-10
-2.19836e-08
9.40643e-10
-2.29274e-08
9.43789e-10
-2.38746e-08
9.47185e-10
-2.48255e-08
9.509e-10
-2.57805e-08
9.54993e-10
-2.674e-08
9.59513e-10
-2.77045e-08
9.64499e-10
-2.86745e-08
9.69985e-10
-2.96505e-08
9.75999e-10
-3.0633e-08
9.82557e-10
-3.16227e-08
9.89676e-10
-3.26201e-08
9.97369e-10
-3.36257e-08
1.00564e-09
-3.46402e-08
1.0145e-09
-3.56642e-08
1.02395e-09
-3.66981e-08
1.03396e-09
-3.77427e-08
1.04455e-09
-3.87984e-08
1.0557e-09
-3.98658e-08
1.06739e-09
-4.09454e-08
1.0796e-09
-4.20377e-08
1.09232e-09
-4.31432e-08
1.10551e-09
-4.42624e-08
1.11914e-09
-4.53956e-08
1.13318e-09
-4.65431e-08
1.1476e-09
-4.77055e-08
1.16233e-09
-4.88828e-08
1.17735e-09
-5.00754e-08
1.19259e-09
-5.12834e-08
1.20799e-09
-5.25069e-08
1.22349e-09
-5.37459e-08
1.23901e-09
-5.50004e-08
1.25449e-09
-5.62702e-08
1.26983e-09
-5.75552e-08
1.28494e-09
-5.88549e-08
1.29972e-09
-6.0169e-08
1.31406e-09
-6.14968e-08
1.32786e-09
-6.28378e-08
1.34097e-09
-6.41911e-08
1.35328e-09
-6.55557e-08
1.36465e-09
-6.69306e-08
1.37491e-09
-6.83145e-08
1.38391e-09
-6.9706e-08
1.39149e-09
-7.11035e-08
1.39746e-09
-7.25051e-08
1.40165e-09
-7.3909e-08
1.40384e-09
-7.53128e-08
1.40384e-09
-7.67143e-08
1.40144e-09
-7.81107e-08
1.3964e-09
-7.94992e-08
1.3885e-09
-8.08767e-08
1.37751e-09
-8.22398e-08
1.36317e-09
-8.35851e-08
1.34525e-09
-8.49086e-08
1.32348e-09
-8.62062e-08
1.29761e-09
-8.74735e-08
1.26737e-09
-8.87061e-08
1.23253e-09
-8.98989e-08
1.19281e-09
-9.10468e-08
1.14796e-09
-9.21446e-08
1.09775e-09
-9.31865e-08
1.04194e-09
-9.41668e-08
9.80297e-10
-9.50795e-08
9.12625e-10
-9.59182e-08
8.38733e-10
-9.66766e-08
7.58456e-10
-9.73483e-08
6.71657e-10
-9.79265e-08
5.78227e-10
-9.84046e-08
4.78096e-10
-9.87759e-08
3.71232e-10
-9.90335e-08
2.57646e-10
-9.91709e-08
1.37401e-10
-9.91815e-08
1.06178e-11
-9.9059e-08
-1.22542e-10
-9.87972e-08
-2.61827e-10
-9.83902e-08
-4.06937e-10
-9.78327e-08
-5.57497e-10
-9.71197e-08
-7.13054e-10
-9.62466e-08
-8.73078e-10
-9.52096e-08
-1.03696e-09
-9.40056e-08
-1.20401e-09
-9.26322e-08
-1.37345e-09
-9.10878e-08
-1.54442e-09
-8.93718e-08
-1.71599e-09
-8.74846e-08
-1.88714e-09
-8.54279e-08
-2.05678e-09
-8.32041e-08
-2.22376e-09
-8.08173e-08
-2.38685e-09
-7.82725e-08
-2.54478e-09
-7.55762e-08
-2.69624e-09
-7.27364e-08
-2.83988e-09
-6.9762e-08
-2.97434e-09
-6.66638e-08
-3.09826e-09
-6.34535e-08
-3.21026e-09
-6.01445e-08
-3.30904e-09
-5.67511e-08
-3.3933e-09
-5.32893e-08
-3.46183e-09
-4.97758e-08
-3.51349e-09
-4.62286e-08
-3.54723e-09
-4.26665e-08
-3.56212e-09
-3.91091e-08
-3.55736e-09
-3.55768e-08
-3.5323e-09
-3.20904e-08
-3.48642e-09
-2.8671e-08
-3.41937e-09
-2.534e-08
-3.33099e-09
-2.21187e-08
-3.22128e-09
-1.90283e-08
-3.09042e-09
-1.60896e-08
-2.93876e-09
-1.33227e-08
-2.76686e-09
-1.07473e-08
-2.57542e-09
-8.38191e-09
-2.36537e-09
-6.24409e-09
-2.13782e-09
-4.34997e-09
-1.89412e-09
-2.71405e-09
-1.63592e-09
-1.34877e-09
-1.36528e-09
-2.6394e-10
-1.08483e-09
5.34265e-10
-7.98204e-10
1.04484e-09
-5.10577e-10
1.2747e-09
-2.29855e-10
1.24342e-09
3.12816e-11
9.91449e-10
2.5197e-10
5.94578e-10
3.96872e-10
1.91316e-10
4.03261e-10
1.91316e-10
1.41687e-10
-1.93412e-10
4.08181e-10
-4.07852e-10
6.90227e-10
-4.4942e-10
9.05394e-10
-3.60994e-10
9.95061e-10
-1.85832e-10
9.21e-10
4.34736e-11
6.60551e-10
3.03628e-10
2.02485e-10
5.7823e-10
-4.56278e-10
8.55865e-10
-1.31302e-09
1.12866e-09
-2.3611e-09
1.39129e-09
-3.59104e-09
1.64026e-09
-4.99171e-09
1.87332e-09
-6.55091e-09
2.08919e-09
-8.25598e-09
2.28731e-09
-1.00941e-08
2.46764e-09
-1.20527e-08
2.63053e-09
-1.41196e-08
2.7766e-09
-1.62831e-08
2.9067e-09
-1.85322e-08
3.0218e-09
-2.08569e-08
3.12296e-09
-2.32476e-08
3.2113e-09
-2.56958e-08
3.28797e-09
-2.81937e-08
3.35411e-09
-3.07344e-08
3.41083e-09
-3.33116e-08
3.45922e-09
-3.59201e-08
3.50033e-09
-3.8555e-08
3.53512e-09
-4.12124e-08
3.56455e-09
-4.38889e-08
3.58946e-09
-4.65816e-08
3.61065e-09
-4.92885e-08
3.62887e-09
-5.20075e-08
3.64479e-09
-5.47376e-08
3.659e-09
-5.74777e-08
3.67207e-09
-6.02274e-08
3.68448e-09
-6.29864e-08
3.69668e-09
-6.57548e-08
3.70905e-09
-6.8533e-08
3.72195e-09
-7.13214e-08
3.73567e-09
-7.4121e-08
3.75048e-09
-7.69326e-08
3.76659e-09
-7.97573e-08
3.7842e-09
-8.25963e-08
3.80346e-09
-8.54508e-08
3.82453e-09
-8.83223e-08
3.8475e-09
-9.12122e-08
3.87247e-09
-9.4122e-08
3.89949e-09
-9.70533e-08
3.92862e-09
-1.00008e-07
3.95989e-09
-1.02986e-07
3.9933e-09
-1.05991e-07
4.02886e-09
-1.09024e-07
4.06655e-09
-1.12086e-07
4.10633e-09
-1.15178e-07
4.14816e-09
-1.18303e-07
4.19197e-09
-1.21461e-07
4.23768e-09
-1.24654e-07
4.28521e-09
-1.27883e-07
4.33445e-09
-1.31149e-07
4.38527e-09
-1.34453e-07
4.43753e-09
-1.37797e-07
4.49107e-09
-1.4118e-07
4.54572e-09
-1.44604e-07
4.60127e-09
-1.48069e-07
4.65752e-09
-1.51575e-07
4.71422e-09
-1.55123e-07
4.77111e-09
-1.58712e-07
4.82791e-09
-1.62341e-07
4.8843e-09
-1.66011e-07
4.93995e-09
-1.69721e-07
4.99449e-09
-1.73469e-07
5.04753e-09
-1.77253e-07
5.09866e-09
-1.81073e-07
5.1474e-09
-1.84925e-07
5.1933e-09
-1.88808e-07
5.23582e-09
-1.92718e-07
5.27442e-09
-1.96651e-07
5.30852e-09
-2.00605e-07
5.3375e-09
-2.04574e-07
5.36072e-09
-2.08554e-07
5.37749e-09
-2.12539e-07
5.38709e-09
-2.16524e-07
5.38877e-09
-2.20502e-07
5.38176e-09
-2.24466e-07
5.36524e-09
-2.28408e-07
5.33837e-09
-2.3232e-07
5.30028e-09
-2.36192e-07
5.25008e-09
-2.40016e-07
5.18685e-09
-2.43781e-07
5.10968e-09
-2.47475e-07
5.01761e-09
-2.51087e-07
4.90969e-09
-2.54604e-07
4.78499e-09
-2.58014e-07
4.64255e-09
-2.61303e-07
4.48145e-09
-2.64456e-07
4.30077e-09
-2.67458e-07
4.09964e-09
-2.70293e-07
3.87721e-09
-2.72945e-07
3.63271e-09
-2.75398e-07
3.36542e-09
-2.77634e-07
3.07468e-09
-2.79636e-07
2.75995e-09
-2.81385e-07
2.42078e-09
-2.82863e-07
2.05684e-09
-2.84053e-07
1.66794e-09
-2.84936e-07
1.25404e-09
-2.85494e-07
8.15276e-10
-2.85708e-07
3.51962e-10
-2.85562e-07
-1.35378e-10
-2.85039e-07
-6.4601e-10
-2.84122e-07
-1.17896e-09
-2.82796e-07
-1.73299e-09
-2.81046e-07
-2.30663e-09
-2.78861e-07
-2.89811e-09
-2.76229e-07
-3.50538e-09
-2.7314e-07
-4.12611e-09
-2.69586e-07
-4.75765e-09
-2.65563e-07
-5.39708e-09
-2.61066e-07
-6.04117e-09
-2.56096e-07
-6.68639e-09
-2.50654e-07
-7.32895e-09
-2.44746e-07
-7.9648e-09
-2.3838e-07
-8.58963e-09
-2.31568e-07
-9.19895e-09
-2.24324e-07
-9.78804e-09
-2.16669e-07
-1.03521e-08
-2.08622e-07
-1.08861e-08
-2.00212e-07
-1.13852e-08
-1.91466e-07
-1.18442e-08
-1.82418e-07
-1.22583e-08
-1.73104e-07
-1.26227e-08
-1.63565e-07
-1.29326e-08
-1.53843e-07
-1.31836e-08
-1.43985e-07
-1.33716e-08
-1.34039e-07
-1.34928e-08
-1.24057e-07
-1.35438e-08
-1.14093e-07
-1.35218e-08
-1.04201e-07
-1.34244e-08
-9.44376e-08
-1.32497e-08
-8.48603e-08
-1.29967e-08
-7.55267e-08
-1.26646e-08
-6.64942e-08
-1.22537e-08
-5.78199e-08
-1.17648e-08
-4.95594e-08
-1.11992e-08
-4.1767e-08
-1.05593e-08
-3.44943e-08
-9.84804e-09
-2.77905e-08
-9.06918e-09
-2.17009e-08
-8.22744e-09
-1.62664e-08
-7.32856e-09
-1.15227e-08
-6.37964e-09
-7.49844e-09
-5.38955e-09
-4.21359e-09
-4.36968e-09
-1.67662e-09
-3.33517e-09
1.19682e-10
-2.30687e-09
1.20439e-09
-1.31456e-09
1.63754e-09
-4.0187e-10
1.52361e-09
3.65899e-10
1.02919e-09
8.91294e-10
4.01667e-10
1.03079e-09
5.92976e-10
1.68694e-10
-3.62095e-10
4.52157e-10
-6.91317e-10
7.11678e-10
-7.08941e-10
8.47396e-10
-4.96707e-10
7.85996e-10
-1.24436e-10
4.76898e-10
3.52565e-10
-1.11821e-10
8.92337e-10
-9.97463e-10
1.46388e-09
-2.18623e-09
2.04462e-09
-3.67594e-09
2.61839e-09
-5.45841e-09
3.17376e-09
-7.52105e-09
3.7029e-09
-9.84838e-09
4.20064e-09
-1.2423e-08
4.66383e-09
-1.52265e-08
5.09082e-09
-1.82401e-08
5.48118e-09
-2.14448e-08
5.83528e-09
-2.48224e-08
6.15418e-09
-2.83551e-08
6.43944e-09
-3.20262e-08
6.6929e-09
-3.582e-08
6.91667e-09
-3.97217e-08
7.11302e-09
-4.3718e-08
7.28426e-09
-4.77966e-08
7.43275e-09
-5.19466e-08
7.5608e-09
-5.6158e-08
7.67069e-09
-6.04223e-08
7.7646e-09
-6.47318e-08
7.84462e-09
-6.908e-08
7.91272e-09
-7.34612e-08
7.97075e-09
-7.7871e-08
8.02041e-09
-8.23054e-08
8.0633e-09
-8.67615e-08
8.10088e-09
-9.1237e-08
8.13445e-09
-9.57302e-08
8.16522e-09
-1.0024e-07
8.19428e-09
-1.04766e-07
8.22258e-09
-1.09308e-07
8.25099e-09
-1.13866e-07
8.28026e-09
-1.18441e-07
8.31107e-09
-1.23035e-07
8.344e-09
-1.27648e-07
8.37955e-09
-1.32282e-07
8.41815e-09
-1.36939e-07
8.46016e-09
-1.4162e-07
8.50589e-09
-1.46328e-07
8.55559e-09
-1.51065e-07
8.60946e-09
-1.55833e-07
8.66765e-09
-1.60635e-07
8.73027e-09
-1.65472e-07
8.79738e-09
-1.70348e-07
8.86901e-09
-1.75264e-07
8.94516e-09
-1.80224e-07
9.02579e-09
-1.85228e-07
9.11082e-09
-1.9028e-07
9.20015e-09
-1.95382e-07
9.29362e-09
-2.00535e-07
9.39107e-09
-2.05742e-07
9.49229e-09
-2.11005e-07
9.59703e-09
-2.16325e-07
9.70501e-09
-2.21703e-07
9.8159e-09
-2.27141e-07
9.92936e-09
-2.3264e-07
1.0045e-08
-2.38202e-07
1.01623e-08
-2.43825e-07
1.02809e-08
-2.49511e-07
1.04001e-08
-2.55259e-07
1.05195e-08
-2.6107e-07
1.06383e-08
-2.66941e-07
1.07559e-08
-2.72873e-07
1.08715e-08
-2.78863e-07
1.09843e-08
-2.84908e-07
1.10935e-08
-2.91008e-07
1.1198e-08
-2.97157e-07
1.1297e-08
-3.03354e-07
1.13893e-08
-3.09592e-07
1.14738e-08
-3.15866e-07
1.15493e-08
-3.22173e-07
1.16146e-08
-3.28503e-07
1.16682e-08
-3.34851e-07
1.17088e-08
-3.41209e-07
1.17348e-08
-3.47566e-07
1.17448e-08
-3.53915e-07
1.17371e-08
-3.60243e-07
1.17099e-08
-3.66539e-07
1.16617e-08
-3.72791e-07
1.15904e-08
-3.78985e-07
1.14944e-08
-3.85107e-07
1.13716e-08
-3.9114e-07
1.12201e-08
-3.97068e-07
1.1038e-08
-4.02874e-07
1.08233e-08
-4.08538e-07
1.05739e-08
-4.14041e-07
1.02878e-08
-4.19362e-07
9.96316e-09
-4.24478e-07
9.59791e-09
-4.29368e-07
9.19021e-09
-4.34006e-07
8.73824e-09
-4.38369e-07
8.24027e-09
-4.42431e-07
7.69472e-09
-4.46166e-07
7.10013e-09
-4.49547e-07
6.45522e-09
-4.52546e-07
5.75892e-09
-4.55135e-07
5.01039e-09
-4.57287e-07
4.20905e-09
-4.58974e-07
3.35461e-09
-4.60167e-07
2.44712e-09
-4.60839e-07
1.48701e-09
-4.60962e-07
4.75083e-10
-4.6051e-07
-5.87406e-10
-4.59457e-07
-1.69874e-09
-4.57779e-07
-2.85672e-09
-4.55454e-07
-4.05858e-09
-4.52459e-07
-5.30104e-09
-4.48777e-07
-6.58022e-09
-4.44391e-07
-7.89165e-09
-4.39287e-07
-9.23024e-09
-4.33454e-07
-1.05903e-08
-4.26886e-07
-1.19655e-08
-4.19578e-07
-1.3349e-08
-4.11531e-07
-1.47331e-08
-4.0275e-07
-1.61099e-08
-3.93244e-07
-1.74707e-08
-3.83028e-07
-1.88063e-08
-3.72119e-07
-2.01073e-08
-3.60544e-07
-2.13637e-08
-3.4833e-07
-2.25653e-08
-3.35515e-07
-2.37017e-08
-3.22138e-07
-2.47624e-08
-3.08245e-07
-2.5737e-08
-2.93888e-07
-2.66149e-08
-2.79125e-07
-2.73862e-08
-2.64016e-07
-2.8041e-08
-2.4863e-07
-2.85701e-08
-2.33037e-07
-2.89647e-08
-2.17312e-07
-2.92172e-08
-2.01536e-07
-2.93203e-08
-1.8579e-07
-2.92682e-08
-1.70158e-07
-2.90559e-08
-1.54728e-07
-2.86797e-08
-1.39588e-07
-2.81372e-08
-1.24825e-07
-2.74274e-08
-1.10528e-07
-2.65506e-08
-9.67841e-08
-2.55087e-08
-8.36781e-08
-2.43052e-08
-7.12922e-08
-2.29452e-08
-5.9705e-08
-2.14353e-08
-4.89899e-08
-1.97843e-08
-3.92144e-08
-1.80029e-08
-3.04387e-08
-1.61043e-08
-2.27135e-08
-1.41048e-08
-1.60784e-08
-1.20246e-08
-1.05586e-08
-9.88951e-09
-6.16092e-09
-7.73286e-09
-2.86861e-09
-5.59918e-09
-6.3398e-10
-3.5492e-09
6.31572e-10
-1.66742e-09
1.07034e-09
-7.28713e-11
8.92903e-10
1.06873e-09
3.94972e-10
1.52873e-09
9.87947e-10
1.48569e-10
-5.10677e-10
3.66329e-10
-9.09055e-10
5.02365e-10
-8.44985e-10
4.48694e-10
-4.43029e-10
1.25706e-10
1.98559e-10
-5.22684e-10
1.00095e-09
-1.53296e-09
1.90261e-09
-2.92576e-09
2.85667e-09
-4.70908e-09
3.82795e-09
-6.88115e-09
4.79045e-09
-9.43272e-09
5.72533e-09
-1.23491e-08
6.61925e-09
-1.56116e-08
7.46314e-09
-1.9199e-08
8.25123e-09
-2.30884e-08
8.9803e-09
-2.72564e-08
9.64909e-09
-3.16789e-08
1.02579e-08
-3.63328e-08
1.0808e-08
-4.11952e-08
1.13018e-08
-4.62444e-08
1.17422e-08
-5.14601e-08
1.21323e-08
-5.68231e-08
1.2476e-08
-6.23157e-08
1.27769e-08
-6.79218e-08
1.30388e-08
-7.36267e-08
1.32657e-08
-7.94174e-08
1.34613e-08
-8.52821e-08
1.36293e-08
-9.12106e-08
1.37731e-08
-9.71939e-08
1.38961e-08
-1.03225e-07
1.40013e-08
-1.09296e-07
1.40918e-08
-1.15403e-07
1.41702e-08
-1.21541e-07
1.4239e-08
-1.27707e-07
1.43005e-08
-1.33898e-07
1.43567e-08
-1.40114e-07
1.44095e-08
-1.46352e-07
1.44606e-08
-1.52612e-07
1.45115e-08
-1.58896e-07
1.45635e-08
-1.65202e-07
1.46177e-08
-1.71533e-07
1.46753e-08
-1.77891e-07
1.4737e-08
-1.84276e-07
1.48036e-08
-1.90692e-07
1.48758e-08
-1.9714e-07
1.49542e-08
-2.03624e-07
1.50391e-08
-2.10145e-07
1.51309e-08
-2.16707e-07
1.52299e-08
-2.23314e-07
1.53363e-08
-2.29966e-07
1.54502e-08
-2.36669e-07
1.55717e-08
-2.43425e-07
1.57007e-08
-2.50236e-07
1.58372e-08
-2.57106e-07
1.5981e-08
-2.64038e-07
1.6132e-08
-2.71034e-07
1.62898e-08
-2.78098e-07
1.64543e-08
-2.8523e-07
1.66249e-08
-2.92434e-07
1.68013e-08
-2.99712e-07
1.69829e-08
-3.07066e-07
1.71693e-08
-3.14496e-07
1.73596e-08
-3.22004e-07
1.75533e-08
-3.29592e-07
1.77496e-08
-3.37258e-07
1.79475e-08
-3.45004e-07
1.81462e-08
-3.52829e-07
1.83445e-08
-3.60732e-07
1.85414e-08
-3.68712e-07
1.87357e-08
-3.76767e-07
1.89259e-08
-3.84893e-07
1.91107e-08
-3.93088e-07
1.92886e-08
-4.01348e-07
1.9458e-08
-4.09668e-07
1.9617e-08
-4.18043e-07
1.97638e-08
-4.26465e-07
1.98965e-08
-4.34929e-07
2.0013e-08
-4.43425e-07
2.0111e-08
-4.51945e-07
2.01882e-08
-4.60479e-07
2.02422e-08
-4.69014e-07
2.02705e-08
-4.7754e-07
2.02702e-08
-4.86041e-07
2.02388e-08
-4.94505e-07
2.01732e-08
-5.02914e-07
2.00704e-08
-5.11251e-07
1.99275e-08
-5.19497e-07
1.97412e-08
-5.27634e-07
1.95083e-08
-5.3564e-07
1.92255e-08
-5.43491e-07
1.88895e-08
-5.51165e-07
1.84969e-08
-5.58635e-07
1.80443e-08
-5.65876e-07
1.75285e-08
-5.72859e-07
1.69461e-08
-5.79555e-07
1.62939e-08
-5.85933e-07
1.55689e-08
-5.91963e-07
1.47679e-08
-5.97611e-07
1.38883e-08
-6.02844e-07
1.29275e-08
-6.07627e-07
1.1883e-08
-6.11925e-07
1.0753e-08
-6.15701e-07
9.53579e-09
-6.18921e-07
8.23006e-09
-6.21547e-07
6.83503e-09
-6.23543e-07
5.35043e-09
-6.24872e-07
3.77653e-09
-6.255e-07
2.11425e-09
-6.2539e-07
3.6516e-10
-6.24509e-07
-1.46841e-09
-6.22824e-07
-3.38336e-09
-6.20305e-07
-5.37574e-09
-6.16923e-07
-7.44072e-09
-6.12651e-07
-9.57255e-09
-6.07467e-07
-1.17645e-08
-6.0135e-07
-1.40089e-08
-5.94283e-07
-1.6297e-08
-5.86255e-07
-1.8619e-08
-5.77256e-07
-2.09642e-08
-5.67284e-07
-2.33208e-08
-5.56341e-07
-2.56762e-08
-5.44434e-07
-2.80165e-08
-5.31578e-07
-3.03274e-08
-5.17791e-07
-3.25934e-08
-5.03099e-07
-3.47985e-08
-4.87537e-07
-3.6926e-08
-4.71143e-07
-3.8959e-08
-4.53965e-07
-4.088e-08
-4.36056e-07
-4.26715e-08
-4.17477e-07
-4.43159e-08
-3.98296e-07
-4.57959e-08
-3.78588e-07
-4.70947e-08
-3.58433e-07
-4.8196e-08
-3.37918e-07
-4.90843e-08
-3.17138e-07
-4.97454e-08
-2.96189e-07
-5.0166e-08
-2.75174e-07
-5.03346e-08
-2.54201e-07
-5.02413e-08
-2.33379e-07
-4.98778e-08
-2.12821e-07
-4.92383e-08
-1.92639e-07
-4.83186e-08
-1.72949e-07
-4.71174e-08
-1.53865e-07
-4.56354e-08
-1.35497e-07
-4.38761e-08
-1.17957e-07
-4.18458e-08
-1.01349e-07
-3.95533e-08
-8.5773e-08
-3.70108e-08
-7.13238e-08
-3.42336e-08
-5.8086e-08
-3.12407e-08
-4.61346e-08
-2.80557e-08
-3.55322e-08
-2.47072e-08
-2.63259e-08
-2.12309e-08
-1.85443e-08
-1.76712e-08
-1.21926e-08
-1.40846e-08
-7.24736e-09
-1.05444e-08
-3.64934e-09
-7.14721e-09
-1.29455e-09
-4.02222e-09
-2.37661e-11
-1.34365e-09
3.90027e-10
6.54937e-10
2.55161e-10
1.66359e-09
1.24311e-09
9.97473e-11
-6.10417e-10
1.90941e-10
-1.00026e-09
1.26096e-10
-7.80138e-10
-2.02553e-10
-1.14378e-10
-8.74783e-10
8.70794e-10
-1.94734e-09
2.07352e-09
-3.45762e-09
3.41289e-09
-5.42696e-09
4.82601e-09
-7.86364e-09
6.26462e-09
-1.07655e-08
7.69227e-09
-1.41221e-08
9.08192e-09
-1.79168e-08
1.0414e-08
-2.21286e-08
1.16749e-08
-2.67331e-08
1.28557e-08
-3.17039e-08
1.39512e-08
-3.70137e-08
1.49589e-08
-4.26346e-08
1.58787e-08
-4.8539e-08
1.67125e-08
-5.47002e-08
1.7463e-08
-6.10922e-08
1.81342e-08
-6.76906e-08
1.87308e-08
-7.44725e-08
1.92579e-08
-8.14165e-08
1.97209e-08
-8.85031e-08
2.01254e-08
-9.57144e-08
2.0477e-08
-1.03034e-07
2.07812e-08
-1.10448e-07
2.10434e-08
-1.17944e-07
2.12688e-08
-1.2551e-07
2.14622e-08
-1.33137e-07
2.16284e-08
-1.40817e-07
2.17716e-08
-1.48543e-07
2.18961e-08
-1.56309e-07
2.20054e-08
-1.64112e-07
2.2103e-08
-1.71947e-07
2.21921e-08
-1.79813e-07
2.22755e-08
-1.87708e-07
2.23557e-08
-1.95632e-07
2.2435e-08
-2.03584e-07
2.25154e-08
-2.11565e-07
2.25987e-08
-2.19576e-07
2.26866e-08
-2.27619e-07
2.27803e-08
-2.35697e-07
2.2881e-08
-2.43811e-07
2.29898e-08
-2.51964e-07
2.31074e-08
-2.60159e-07
2.32346e-08
-2.684e-07
2.33719e-08
-2.7669e-07
2.35198e-08
-2.85032e-07
2.36784e-08
-2.9343e-07
2.38481e-08
-3.01887e-07
2.40289e-08
-3.10407e-07
2.42208e-08
-3.18994e-07
2.44237e-08
-3.2765e-07
2.46373e-08
-3.3638e-07
2.48614e-08
-3.45186e-07
2.50956e-08
-3.54071e-07
2.53393e-08
-3.63038e-07
2.5592e-08
-3.72089e-07
2.5853e-08
-3.81228e-07
2.61214e-08
-3.90455e-07
2.63965e-08
-3.99773e-07
2.66772e-08
-4.09182e-07
2.69623e-08
-4.18683e-07
2.72507e-08
-4.28276e-07
2.7541e-08
-4.37962e-07
2.78317e-08
-4.47739e-07
2.81213e-08
-4.57605e-07
2.84079e-08
-4.67559e-07
2.86896e-08
-4.77598e-07
2.89645e-08
-4.87717e-07
2.92303e-08
-4.97913e-07
2.94848e-08
-5.08181e-07
2.97252e-08
-5.18513e-07
2.99491e-08
-5.28903e-07
3.01536e-08
-5.39342e-07
3.03356e-08
-5.49821e-07
3.04919e-08
-5.60329e-07
3.06193e-08
-5.70855e-07
3.07141e-08
-5.81385e-07
3.07726e-08
-5.91906e-07
3.0791e-08
-6.02401e-07
3.07652e-08
-6.12853e-07
3.06911e-08
-6.23244e-07
3.05642e-08
-6.33554e-07
3.03802e-08
-6.43761e-07
3.01343e-08
-6.53841e-07
2.98218e-08
-6.63771e-07
2.9438e-08
-6.73523e-07
2.89779e-08
-6.83071e-07
2.84367e-08
-6.92383e-07
2.78092e-08
-7.01429e-07
2.70907e-08
-7.10177e-07
2.62761e-08
-7.18592e-07
2.53607e-08
-7.26637e-07
2.43398e-08
-7.34277e-07
2.32089e-08
-7.41473e-07
2.19636e-08
-7.48185e-07
2.06e-08
-7.54372e-07
1.91144e-08
-7.59992e-07
1.75036e-08
-7.65004e-07
1.57647e-08
-7.69364e-07
1.38955e-08
-7.73028e-07
1.18944e-08
-7.75954e-07
9.76049e-09
-7.78097e-07
7.49353e-09
-7.79415e-07
5.09424e-09
-7.79865e-07
2.56425e-09
-7.79406e-07
-9.37955e-11
-7.77998e-07
-2.87617e-09
-7.75603e-07
-5.77798e-09
-7.72186e-07
-8.79308e-09
-7.67713e-07
-1.1914e-08
-7.62153e-07
-1.5132e-08
-7.55481e-07
-1.84369e-08
-7.47673e-07
-2.18168e-08
-7.38711e-07
-2.52588e-08
-7.28582e-07
-2.87482e-08
-7.17277e-07
-3.22689e-08
-7.04794e-07
-3.58033e-08
-6.91138e-07
-3.93324e-08
-6.76319e-07
-4.2836e-08
-6.60354e-07
-4.62924e-08
-6.43268e-07
-4.96789e-08
-6.25095e-07
-5.29718e-08
-6.05874e-07
-5.61466e-08
-5.85655e-07
-5.91781e-08
-5.64495e-07
-6.20406e-08
-5.42458e-07
-6.47082e-08
-5.19619e-07
-6.71553e-08
-4.96058e-07
-6.93564e-08
-4.71866e-07
-7.12865e-08
-4.4714e-07
-7.2922e-08
-4.21985e-07
-7.424e-08
-3.9651e-07
-7.52196e-08
-3.70835e-07
-7.58414e-08
-3.45081e-07
-7.60885e-08
-3.19376e-07
-7.59463e-08
-2.93851e-07
-7.54029e-08
-2.6864e-07
-7.44495e-08
-2.43878e-07
-7.30806e-08
-2.19701e-07
-7.1294e-08
-1.96245e-07
-6.90913e-08
-1.73643e-07
-6.64781e-08
-1.52025e-07
-6.34639e-08
-1.31516e-07
-6.00627e-08
-1.12233e-07
-5.6293e-08
-9.42883e-08
-5.21786e-08
-7.77802e-08
-4.77488e-08
-6.27962e-08
-4.30397e-08
-4.94082e-08
-3.80952e-08
-3.767e-08
-3.29691e-08
-2.76134e-08
-2.77277e-08
-1.92441e-08
-2.24539e-08
-1.2536e-08
-1.72524e-08
-7.42581e-09
-1.22574e-08
-3.80511e-09
-7.64292e-09
-1.51288e-09
-3.63588e-09
-3.26713e-10
-5.31229e-10
4.79571e-11
1.28892e-09
1.29107e-09
3.3494e-11
-6.43905e-10
-4.44418e-11
-9.22316e-10
-3.67896e-10
-4.56695e-10
-1.03746e-09
5.55184e-10
-2.12825e-09
1.96158e-09
-3.69384e-09
3.63911e-09
-5.7695e-09
5.48854e-09
-8.375e-09
7.43152e-09
-1.15173e-08
9.40691e-09
-1.51927e-08
1.13677e-08
-1.93893e-08
1.32785e-08
-2.40885e-08
1.51132e-08
-2.92667e-08
1.68531e-08
-3.4897e-08
1.8486e-08
-4.095e-08
2.00042e-08
-4.73952e-08
2.14041e-08
-5.42014e-08
2.26849e-08
-6.13375e-08
2.38486e-08
-6.87732e-08
2.48986e-08
-7.64792e-08
2.58402e-08
-8.44276e-08
2.66792e-08
-9.25921e-08
2.74224e-08
-1.00948e-07
2.80771e-08
-1.09474e-07
2.86507e-08
-1.18147e-07
2.91507e-08
-1.26951e-07
2.95846e-08
-1.35867e-07
2.99597e-08
-1.44881e-07
3.0283e-08
-1.5398e-07
3.05614e-08
-1.63153e-07
3.08012e-08
-1.7239e-07
3.10084e-08
-1.81683e-07
3.11887e-08
-1.91024e-07
3.13471e-08
-2.0041e-07
3.14885e-08
-2.09835e-07
3.16172e-08
-2.19297e-07
3.17372e-08
-2.28793e-07
3.18521e-08
-2.38323e-07
3.1965e-08
-2.47886e-07
3.20787e-08
-2.57484e-07
3.2196e-08
-2.67116e-07
3.23188e-08
-2.76785e-07
3.24493e-08
-2.86493e-07
3.25889e-08
-2.96242e-07
3.27393e-08
-3.06036e-07
3.29015e-08
-3.15878e-07
3.30765e-08
-3.25771e-07
3.32652e-08
-3.3572e-07
3.34681e-08
-3.45727e-07
3.36856e-08
-3.55797e-07
3.39181e-08
-3.65934e-07
3.41657e-08
-3.76141e-07
3.44283e-08
-3.86423e-07
3.47057e-08
-3.96783e-07
3.49977e-08
-4.07226e-07
3.53038e-08
-4.17754e-07
3.56234e-08
-4.2837e-07
3.59558e-08
-4.39078e-07
3.63002e-08
-4.49881e-07
3.66556e-08
-4.6078e-07
3.70208e-08
-4.71778e-07
3.73945e-08
-4.82876e-07
3.77753e-08
-4.94076e-07
3.81615e-08
-5.05376e-07
3.85516e-08
-5.16779e-07
3.89434e-08
-5.28282e-07
3.93349e-08
-5.39884e-07
3.97237e-08
-5.51584e-07
4.01075e-08
-5.63378e-07
4.04834e-08
-5.75262e-07
4.08486e-08
-5.87232e-07
4.12e-08
-5.99281e-07
4.15342e-08
-6.11404e-07
4.18478e-08
-6.23591e-07
4.21368e-08
-6.35835e-07
4.23974e-08
-6.48125e-07
4.26252e-08
-6.60449e-07
4.28159e-08
-6.72794e-07
4.29646e-08
-6.85146e-07
4.30665e-08
-6.9749e-07
4.31163e-08
-7.09808e-07
4.31086e-08
-7.2208e-07
4.30379e-08
-7.34287e-07
4.28983e-08
-7.46407e-07
4.26837e-08
-7.58415e-07
4.2388e-08
-7.70285e-07
4.20048e-08
-7.81991e-07
4.15276e-08
-7.93503e-07
4.09498e-08
-8.04789e-07
4.02647e-08
-8.15818e-07
3.94654e-08
-8.26554e-07
3.85454e-08
-8.36962e-07
3.74978e-08
-8.47001e-07
3.6316e-08
-8.56634e-07
3.49935e-08
-8.65818e-07
3.35241e-08
-8.74511e-07
3.19016e-08
-8.82668e-07
3.01204e-08
-8.90243e-07
2.81751e-08
-8.9719e-07
2.60611e-08
-9.0346e-07
2.3774e-08
-9.09005e-07
2.13103e-08
-9.13777e-07
1.86672e-08
-9.17725e-07
1.58428e-08
-9.20801e-07
1.28361e-08
-9.22955e-07
9.64724e-09
-9.24138e-07
6.27753e-09
-9.24303e-07
2.72954e-09
-9.23404e-07
-9.92759e-10
-9.21397e-07
-4.88391e-09
-9.18238e-07
-8.93683e-09
-9.13888e-07
-1.31428e-08
-9.08311e-07
-1.74913e-08
-9.01473e-07
-2.19698e-08
-8.93346e-07
-2.65643e-08
-8.83904e-07
-3.12583e-08
-8.73129e-07
-3.60338e-08
-8.61007e-07
-4.08704e-08
-8.4753e-07
-4.57459e-08
-8.32697e-07
-5.06363e-08
-8.16514e-07
-5.55153e-08
-7.98995e-07
-6.03553e-08
-7.80161e-07
-6.51266e-08
-7.60041e-07
-6.97983e-08
-7.38675e-07
-7.4338e-08
-7.16109e-07
-7.87122e-08
-6.92401e-07
-8.28866e-08
-6.67615e-07
-8.68263e-08
-6.41827e-07
-9.04962e-08
-6.15121e-07
-9.38612e-08
-5.87591e-07
-9.68868e-08
-5.59338e-07
-9.95392e-08
-5.30474e-07
-1.01786e-07
-5.01118e-07
-1.03597e-07
-4.71395e-07
-1.04942e-07
-4.4144e-07
-1.05796e-07
-4.11392e-07
-1.06137e-07
-3.81395e-07
-1.05943e-07
-3.51599e-07
-1.05199e-07
-3.22156e-07
-1.03893e-07
-2.93218e-07
-1.02018e-07
-2.64941e-07
-9.9571e-08
-2.37478e-07
-9.65544e-08
-2.1098e-07
-9.29761e-08
-1.85594e-07
-8.88498e-08
-1.61461e-07
-8.41952e-08
-1.38716e-07
-7.90385e-08
-1.17482e-07
-7.3413e-08
-9.78702e-08
-6.73601e-08
-7.99797e-08
-6.09302e-08
-6.38905e-08
-5.41844e-08
-4.9663e-08
-4.71966e-08
-3.73336e-08
-4.00572e-08
-2.69108e-08
-3.28766e-08
-1.8371e-08
-2.57922e-08
-1.16533e-08
-1.89752e-08
-6.65411e-09
-1.26421e-08
-3.22255e-09
-7.06744e-09
-1.15485e-09
-2.59893e-09
-1.8957e-10
3.23648e-10
1.1015e-09
-4.32761e-11
-6.00631e-10
-3.19336e-10
-6.46265e-10
-9.43299e-10
1.67268e-10
-2.00374e-09
1.61562e-09
-3.56723e-09
3.52507e-09
-5.68111e-09
5.75298e-09
-8.37599e-09
8.18342e-09
-1.16681e-08
1.07236e-08
-1.55615e-08
1.33003e-08
-2.005e-08
1.58562e-08
-2.51192e-08
1.83477e-08
-3.07482e-08
2.07422e-08
-3.69111e-08
2.3016e-08
-4.35783e-08
2.51532e-08
-5.07178e-08
2.71437e-08
-5.82961e-08
2.89824e-08
-6.62791e-08
3.0668e-08
-7.46329e-08
3.22024e-08
-8.33241e-08
3.35898e-08
-9.23204e-08
3.48364e-08
-1.01591e-07
3.59497e-08
-1.11107e-07
3.69382e-08
-1.2084e-07
3.78108e-08
-1.30767e-07
3.85771e-08
-1.40863e-07
3.92466e-08
-1.51107e-07
3.98291e-08
-1.61481e-07
4.03338e-08
-1.71968e-07
4.077e-08
-1.82553e-07
4.11463e-08
-1.93223e-07
4.14711e-08
-2.03967e-07
4.17521e-08
-2.14775e-07
4.19968e-08
-2.2564e-07
4.22119e-08
-2.36555e-07
4.24036e-08
-2.47515e-07
4.25778e-08
-2.58518e-07
4.27395e-08
-2.69559e-07
4.28936e-08
-2.80638e-07
4.30442e-08
-2.91755e-07
4.31952e-08
-3.02909e-07
4.33499e-08
-3.14101e-07
4.35113e-08
-3.25334e-07
4.36819e-08
-3.36609e-07
4.38641e-08
-3.4793e-07
4.40596e-08
-3.59298e-07
4.42701e-08
-3.70719e-07
4.44969e-08
-3.82194e-07
4.47411e-08
-3.9373e-07
4.50034e-08
-4.05329e-07
4.52846e-08
-4.16995e-07
4.55848e-08
-4.28734e-07
4.59044e-08
-4.40549e-07
4.62431e-08
-4.52444e-07
4.66009e-08
-4.64424e-07
4.69773e-08
-4.76492e-07
4.73717e-08
-4.88651e-07
4.77832e-08
-5.00906e-07
4.82109e-08
-5.1326e-07
4.86537e-08
-5.25714e-07
4.91102e-08
-5.38273e-07
4.95788e-08
-5.50936e-07
5.00578e-08
-5.63706e-07
5.05452e-08
-5.76583e-07
5.10389e-08
-5.89568e-07
5.15364e-08
-6.0266e-07
5.20352e-08
-6.15857e-07
5.25324e-08
-6.29158e-07
5.30249e-08
-6.4256e-07
5.35093e-08
-6.56059e-07
5.39821e-08
-6.6965e-07
5.44393e-08
-6.83326e-07
5.48767e-08
-6.97082e-07
5.529e-08
-7.10909e-07
5.56744e-08
-7.24797e-07
5.60247e-08
-7.38735e-07
5.63358e-08
-7.52712e-07
5.6602e-08
-7.66713e-07
5.68173e-08
-7.80724e-07
5.69756e-08
-7.94728e-07
5.70701e-08
-8.08706e-07
5.70943e-08
-8.22638e-07
5.70408e-08
-8.36503e-07
5.69024e-08
-8.50276e-07
5.66713e-08
-8.63932e-07
5.63398e-08
-8.77444e-07
5.58997e-08
-8.90781e-07
5.53426e-08
-9.03914e-07
5.46602e-08
-9.16808e-07
5.38439e-08
-9.29428e-07
5.2885e-08
-9.41738e-07
5.17747e-08
-9.53697e-07
5.05044e-08
-9.65264e-07
4.90655e-08
-9.76398e-07
4.74494e-08
-9.87052e-07
4.56479e-08
-9.97181e-07
4.3653e-08
-1.00674e-06
4.1457e-08
-1.01567e-06
3.90528e-08
-1.02393e-06
3.64338e-08
-1.03146e-06
3.35941e-08
-1.03821e-06
3.05284e-08
-1.04414e-06
2.72324e-08
-1.04917e-06
2.3703e-08
-1.05327e-06
1.99381e-08
-1.05637e-06
1.59366e-08
-1.05842e-06
1.16993e-08
-1.05937e-06
7.22817e-09
-1.05917e-06
2.52701e-09
-1.05776e-06
-2.39862e-09
-1.05511e-06
-7.5412e-09
-1.05115e-06
-1.28912e-08
-1.04586e-06
-1.84368e-08
-1.03918e-06
-2.41641e-08
-1.0311e-06
-3.00567e-08
-1.02157e-06
-3.60958e-08
-1.01056e-06
-4.22599e-08
-9.98073e-07
-4.85254e-08
-9.84078e-07
-5.48658e-08
-9.68571e-07
-6.12521e-08
-9.51555e-07
-6.7653e-08
-9.33035e-07
-7.40347e-08
-9.13029e-07
-8.03611e-08
-8.91562e-07
-8.6594e-08
-8.68667e-07
-9.26934e-08
-8.44387e-07
-9.86175e-08
-8.18776e-07
-1.04323e-07
-7.91897e-07
-1.09766e-07
-7.63822e-07
-1.14901e-07
-7.34635e-07
-1.19684e-07
-7.04428e-07
-1.24068e-07
-6.73305e-07
-1.2801e-07
-6.41379e-07
-1.31466e-07
-6.08771e-07
-1.34394e-07
-5.75613e-07
-1.36754e-07
-5.42044e-07
-1.38511e-07
-5.08211e-07
-1.3963e-07
-4.74266e-07
-1.40081e-07
-4.4037e-07
-1.39839e-07
-4.06686e-07
-1.38883e-07
-3.7338e-07
-1.37199e-07
-3.40623e-07
-1.34775e-07
-3.08584e-07
-1.3161e-07
-2.77432e-07
-1.27707e-07
-2.47332e-07
-1.23075e-07
-2.18448e-07
-1.17734e-07
-1.90934e-07
-1.11709e-07
-1.64937e-07
-1.05036e-07
-1.40593e-07
-9.77569e-08
-1.18025e-07
-8.99276e-08
-9.73418e-08
-8.16136e-08
-7.86315e-08
-7.28946e-08
-6.19621e-08
-6.38661e-08
-4.73764e-08
-5.46429e-08
-3.48891e-08
-4.53639e-08
-2.44831e-08
-3.61982e-08
-1.61059e-08
-2.73524e-08
-9.66634e-09
-1.90816e-08
-5.03208e-09
-1.17017e-08
-2.02792e-09
-5.6031e-09
-4.36186e-10
-1.26808e-09
6.65312e-10
-1.26259e-10
-4.74367e-10
-6.19742e-10
-1.52776e-10
-1.57405e-09
1.12157e-09
-3.06254e-09
3.10413e-09
-5.14043e-09
5.60296e-09
-7.84638e-09
8.45893e-09
-1.12043e-08
1.15413e-08
-1.5225e-08
1.47443e-08
-1.99082e-08
1.79835e-08
-2.52442e-08
2.11923e-08
-3.12155e-08
2.4319e-08
-3.77982e-08
2.73249e-08
-4.49636e-08
3.01815e-08
-5.26796e-08
3.28692e-08
-6.09114e-08
3.53755e-08
-6.9623e-08
3.76939e-08
-7.87776e-08
3.98225e-08
-8.83384e-08
4.17632e-08
-9.82696e-08
4.3521e-08
-1.08536e-07
4.51031e-08
-1.19105e-07
4.65184e-08
-1.29944e-07
4.77773e-08
-1.41024e-07
4.88907e-08
-1.52317e-07
4.98703e-08
-1.63798e-07
5.07278e-08
-1.75444e-07
5.14752e-08
-1.87235e-07
5.21241e-08
-1.9915e-07
5.26857e-08
-2.11175e-07
5.31711e-08
-2.23295e-07
5.35905e-08
-2.35496e-07
5.39538e-08
-2.4777e-07
5.42701e-08
-2.60106e-07
5.4548e-08
-2.72497e-07
5.47953e-08
-2.84939e-07
5.50193e-08
-2.97426e-07
5.52267e-08
-3.09956e-07
5.54233e-08
-3.22526e-07
5.56145e-08
-3.35136e-07
5.58053e-08
-3.47786e-07
5.59997e-08
-3.60476e-07
5.62018e-08
-3.73209e-07
5.64146e-08
-3.85986e-07
5.66412e-08
-3.98811e-07
5.68839e-08
-4.11685e-07
5.71448e-08
-4.24614e-07
5.74256e-08
-4.376e-07
5.77276e-08
-4.50649e-07
5.80519e-08
-4.63764e-07
5.83993e-08
-4.76949e-07
5.87702e-08
-4.90209e-07
5.91648e-08
-5.03549e-07
5.9583e-08
-5.16973e-07