/*--------------------------------*- C++ -*----------------------------------*\
  =========                 |
  \\      /  F ield         | OpenFOAM: The Open Source CFD Toolbox
   \\    /   O peration     | Website:  https://openfoam.org
    \\  /    A nd           | Version:  7
     \\/     M anipulation  |
\*---------------------------------------------------------------------------*/
FoamFile
{
    version     2.0;
    format      ascii;
    class       volVectorField;
    location    "0.425";
    object      U;
}
// * * * * * * * * * * * * * * * * * * * * * * * * * * * * * * * * * * * * * //

dimensions      [0 1 -1 0 0 0 0];

internalField   nonuniform List<vector> 
12800
(
(3.27604e-06 -3.2605e-06 0)
(1.82843e-05 -9.75032e-06 0)
(4.42545e-05 -1.2024e-05 0)
(7.06194e-05 -1.11138e-05 0)
(9.07723e-05 -8.44337e-06 0)
(0.000101352 -4.8866e-06 0)
(0.000100573 -9.42482e-07 0)
(8.75922e-05 3.10086e-06 0)
(6.21972e-05 7.07099e-06 0)
(2.4603e-05 1.08685e-05 0)
(-2.47354e-05 1.4431e-05 0)
(-8.51842e-05 1.77425e-05 0)
(-0.000155995 2.07785e-05 0)
(-0.000236386 2.35349e-05 0)
(-0.000325545 2.60192e-05 0)
(-0.000422664 2.82415e-05 0)
(-0.000526955 3.02147e-05 0)
(-0.000637656 3.19536e-05 0)
(-0.000754051 3.34745e-05 0)
(-0.000875466 3.47958e-05 0)
(-0.00100128 3.5935e-05 0)
(-0.00113091 3.69091e-05 0)
(-0.00126385 3.77358e-05 0)
(-0.00139963 3.8432e-05 0)
(-0.00153783 3.90136e-05 0)
(-0.00167808 3.94957e-05 0)
(-0.00182005 3.98925e-05 0)
(-0.00196348 4.02169e-05 0)
(-0.00210812 4.04812e-05 0)
(-0.00225377 4.06967e-05 0)
(-0.00240027 4.08739e-05 0)
(-0.00254749 4.10213e-05 0)
(-0.00269534 4.11473e-05 0)
(-0.00284372 4.12597e-05 0)
(-0.0029926 4.13648e-05 0)
(-0.00314194 4.14683e-05 0)
(-0.00329174 4.15758e-05 0)
(-0.00344201 4.16918e-05 0)
(-0.00359275 4.18196e-05 0)
(-0.00374402 4.19625e-05 0)
(-0.00389585 4.21236e-05 0)
(-0.00404831 4.23055e-05 0)
(-0.00420145 4.25101e-05 0)
(-0.00435536 4.27391e-05 0)
(-0.0045101 4.29939e-05 0)
(-0.00466576 4.32756e-05 0)
(-0.00482242 4.35849e-05 0)
(-0.00498018 4.39225e-05 0)
(-0.00513912 4.42888e-05 0)
(-0.00529934 4.46842e-05 0)
(-0.00546093 4.51088e-05 0)
(-0.00562398 4.55625e-05 0)
(-0.00578859 4.6045e-05 0)
(-0.00595485 4.65561e-05 0)
(-0.00612285 4.70953e-05 0)
(-0.00629268 4.76618e-05 0)
(-0.00646442 4.82549e-05 0)
(-0.00663816 4.88736e-05 0)
(-0.00681397 4.95168e-05 0)
(-0.00699192 5.01834e-05 0)
(-0.0071721 5.08718e-05 0)
(-0.00735455 5.15803e-05 0)
(-0.00753933 5.23072e-05 0)
(-0.0077265 5.30503e-05 0)
(-0.00791609 5.38072e-05 0)
(-0.00810813 5.45755e-05 0)
(-0.00830265 5.53524e-05 0)
(-0.00849965 5.61349e-05 0)
(-0.00869913 5.69194e-05 0)
(-0.00890109 5.77021e-05 0)
(-0.00910548 5.84789e-05 0)
(-0.00931227 5.92456e-05 0)
(-0.0095214 5.99974e-05 0)
(-0.00973277 6.07291e-05 0)
(-0.00994631 6.14351e-05 0)
(-0.0101619 6.21091e-05 0)
(-0.0103794 6.27449e-05 0)
(-0.0105986 6.33359e-05 0)
(-0.0108193 6.38747e-05 0)
(-0.0110414 6.43533e-05 0)
(-0.0112646 6.47635e-05 0)
(-0.0114886 6.50963e-05 0)
(-0.0117131 6.53428e-05 0)
(-0.0119378 6.54934e-05 0)
(-0.0121624 6.5538e-05 0)
(-0.0123863 6.54657e-05 0)
(-0.0126092 6.52654e-05 0)
(-0.0128306 6.49255e-05 0)
(-0.01305 6.44344e-05 0)
(-0.0132668 6.37801e-05 0)
(-0.0134805 6.29501e-05 0)
(-0.0136903 6.19314e-05 0)
(-0.0138957 6.07112e-05 0)
(-0.0140959 5.92765e-05 0)
(-0.0142901 5.76143e-05 0)
(-0.0144776 5.57119e-05 0)
(-0.0146574 5.35567e-05 0)
(-0.0148288 5.11362e-05 0)
(-0.0149908 4.84385e-05 0)
(-0.0151425 4.54525e-05 0)
(-0.0152828 4.21678e-05 0)
(-0.0154109 3.85751e-05 0)
(-0.0155255 3.46663e-05 0)
(-0.0156258 3.04345e-05 0)
(-0.0157105 2.58744e-05 0)
(-0.0157787 2.09828e-05 0)
(-0.0158293 1.57584e-05 0)
(-0.0158611 1.02024e-05 0)
(-0.0158732 4.3187e-06 0)
(-0.0158645 -1.8857e-06 0)
(-0.015834 -8.40169e-06 0)
(-0.0157807 -1.52162e-05 0)
(-0.0157037 -2.23127e-05 0)
(-0.0156022 -2.96706e-05 0)
(-0.0154755 -3.72654e-05 0)
(-0.0153228 -4.5069e-05 0)
(-0.0151437 -5.30488e-05 0)
(-0.0149375 -6.1168e-05 0)
(-0.0147041 -6.93855e-05 0)
(-0.0144433 -7.76559e-05 0)
(-0.014155 -8.59296e-05 0)
(-0.0138394 -9.41533e-05 0)
(-0.0134968 -0.00010227 0)
(-0.0131278 -0.00011022 0)
(-0.012733 -0.000117939 0)
(-0.0123135 -0.000125362 0)
(-0.0118703 -0.000132422 0)
(-0.0114047 -0.000139049 0)
(-0.0109185 -0.000145175 0)
(-0.0104133 -0.000150732 0)
(-0.00989127 -0.000155652 0)
(-0.0093545 -0.00015987 0)
(-0.00880547 -0.000163324 0)
(-0.00824679 -0.000165955 0)
(-0.00768124 -0.000167711 0)
(-0.00711176 -0.000168542 0)
(-0.00654145 -0.000168409 0)
(-0.0059735 -0.000167276 0)
(-0.00541121 -0.000165117 0)
(-0.00485795 -0.000161913 0)
(-0.00431712 -0.000157654 0)
(-0.00379214 -0.000152336 0)
(-0.00328642 -0.000145967 0)
(-0.00280331 -0.000138561 0)
(-0.00234612 -0.000130139 0)
(-0.00191803 -0.00012073 0)
(-0.0015221 -0.000110371 0)
(-0.00116123 -9.91036e-05 0)
(-0.000838121 -8.69791e-05 0)
(-0.000555243 -7.40564e-05 0)
(-0.000314772 -6.04082e-05 0)
(-0.000118519 -4.613e-05 0)
(3.21879e-05 -3.13603e-05 0)
(0.000136695 -1.63174e-05 0)
(0.000195356 -1.3807e-06 0)
(0.000210096 1.27518e-05 0)
(0.000185258 2.47961e-05 0)
(0.000129494 3.22781e-05 0)
(6.15693e-05 3.0592e-05 0)
(1.39114e-05 1.39328e-05 0)
(9.77947e-06 -1.82976e-05 0)
(4.19495e-05 -4.18476e-05 0)
(8.87012e-05 -4.81035e-05 0)
(0.000131474 -4.12768e-05 0)
(0.000157726 -2.614e-05 0)
(0.000160104 -6.08114e-06 0)
(0.00013399 1.6626e-05 0)
(7.67901e-05 4.04493e-05 0)
(-1.25399e-05 6.43765e-05 0)
(-0.000133951 8.7736e-05 0)
(-0.000286641 0.000110084 0)
(-0.000469273 0.00013116 0)
(-0.000680168 0.000150787 0)
(-0.000917435 0.000168877 0)
(-0.00117907 0.000185403 0)
(-0.00146302 0.000200378 0)
(-0.00176723 0.000213845 0)
(-0.00208973 0.00022587 0)
(-0.0024286 0.000236531 0)
(-0.00278203 0.000245921 0)
(-0.00314832 0.000254135 0)
(-0.0035259 0.000261271 0)
(-0.00391333 0.000267433 0)
(-0.00430931 0.000272718 0)
(-0.00471266 0.000277224 0)
(-0.00512232 0.000281043 0)
(-0.00553738 0.000284265 0)
(-0.00595702 0.000286973 0)
(-0.00638055 0.000289245 0)
(-0.00680739 0.000291154 0)
(-0.00723703 0.000292768 0)
(-0.00766907 0.000294146 0)
(-0.00810321 0.000295346 0)
(-0.00853918 0.000296417 0)
(-0.00897683 0.000297405 0)
(-0.00941603 0.00029835 0)
(-0.00985672 0.000299289 0)
(-0.0102989 0.000300253 0)
(-0.0107426 0.000301271 0)
(-0.0111879 0.000302366 0)
(-0.0116349 0.000303559 0)
(-0.0120838 0.000304869 0)
(-0.0125347 0.00030631 0)
(-0.0129877 0.000307897 0)
(-0.0134431 0.000309639 0)
(-0.0139012 0.000311545 0)
(-0.014362 0.000313623 0)
(-0.0148259 0.000315876 0)
(-0.0152932 0.000318309 0)
(-0.0157639 0.000320925 0)
(-0.0162385 0.000323724 0)
(-0.0167172 0.000326706 0)
(-0.0172001 0.000329869 0)
(-0.0176876 0.000333211 0)
(-0.0181799 0.000336728 0)
(-0.0186772 0.000340415 0)
(-0.0191797 0.000344266 0)
(-0.0196878 0.000348273 0)
(-0.0202015 0.000352429 0)
(-0.020721 0.000356722 0)
(-0.0212466 0.000361143 0)
(-0.0217784 0.000365679 0)
(-0.0223166 0.000370314 0)
(-0.0228611 0.000375035 0)
(-0.0234122 0.000379822 0)
(-0.0239699 0.000384658 0)
(-0.0245342 0.000389521 0)
(-0.0251051 0.000394389 0)
(-0.0256827 0.000399236 0)
(-0.0262667 0.000404035 0)
(-0.0268571 0.000408756 0)
(-0.0274537 0.000413368 0)
(-0.0280564 0.000417837 0)
(-0.0286648 0.000422126 0)
(-0.0292787 0.000426195 0)
(-0.0298976 0.000430002 0)
(-0.0305211 0.000433503 0)
(-0.0311487 0.000436649 0)
(-0.0317798 0.00043939 0)
(-0.0324138 0.000441673 0)
(-0.03305 0.000443441 0)
(-0.0336874 0.000444635 0)
(-0.0343253 0.000445192 0)
(-0.0349626 0.000445048 0)
(-0.0355983 0.000444134 0)
(-0.036231 0.000442382 0)
(-0.0368597 0.000439717 0)
(-0.0374828 0.000436065 0)
(-0.0380989 0.000431349 0)
(-0.0387064 0.000425491 0)
(-0.0393035 0.000418411 0)
(-0.0398885 0.000410029 0)
(-0.0404594 0.000400263 0)
(-0.0410141 0.000389032 0)
(-0.0415505 0.000376257 0)
(-0.0420664 0.000361859 0)
(-0.0425594 0.000345763 0)
(-0.043027 0.000327894 0)
(-0.0434667 0.000308184 0)
(-0.0438758 0.000286569 0)
(-0.0442516 0.000262991 0)
(-0.0445912 0.000237399 0)
(-0.044892 0.000209752 0)
(-0.0451509 0.000180017 0)
(-0.0453651 0.000148173 0)
(-0.0455316 0.000114213 0)
(-0.0456476 7.81421e-05 0)
(-0.04571 3.99817e-05 0)
(-0.0457162 -2.29601e-07 0)
(-0.0456633 -4.24344e-05 0)
(-0.0455486 -8.65564e-05 0)
(-0.0453698 -0.000132497 0)
(-0.0451243 -0.000180137 0)
(-0.04481 -0.000229331 0)
(-0.044425 -0.000279912 0)
(-0.0439676 -0.000331685 0)
(-0.0434364 -0.000384432 0)
(-0.0428304 -0.000437908 0)
(-0.0421489 -0.000491842 0)
(-0.0413914 -0.00054594 0)
(-0.0405583 -0.00059988 0)
(-0.03965 -0.00065332 0)
(-0.0386677 -0.000705896 0)
(-0.037613 -0.000757226 0)
(-0.0364879 -0.00080691 0)
(-0.0352951 -0.000854536 0)
(-0.034038 -0.000899682 0)
(-0.0327204 -0.000941922 0)
(-0.0313466 -0.000980827 0)
(-0.0299217 -0.00101597 0)
(-0.0284513 -0.00104695 0)
(-0.0269414 -0.00107335 0)
(-0.0253988 -0.00109479 0)
(-0.0238306 -0.00111092 0)
(-0.0222443 -0.00112142 0)
(-0.0206481 -0.00112598 0)
(-0.0190503 -0.00112438 0)
(-0.0174596 -0.00111638 0)
(-0.0158849 -0.00110185 0)
(-0.0143354 -0.00108067 0)
(-0.0128203 -0.00105279 0)
(-0.0113488 -0.00101822 0)
(-0.00993004 -0.000977007 0)
(-0.00857312 -0.000929274 0)
(-0.00728682 -0.000875195 0)
(-0.00607966 -0.000815005 0)
(-0.00495972 -0.000748999 0)
(-0.00393457 -0.000677543 0)
(-0.00301117 -0.000601083 0)
(-0.00219569 -0.000520163 0)
(-0.00149333 -0.000435469 0)
(-0.000908074 -0.000347886 0)
(-0.000442334 -0.000258617 0)
(-9.63951e-05 -0.000169373 0)
(0.000132373 -8.27081e-05 0)
(0.000250721 -2.57987e-06 0)
(0.000271007 6.475e-05 0)
(0.000213681 0.000109241 0)
(0.000114799 0.000115054 0)
(3.04066e-05 6.14474e-05 0)
(1.21411e-05 -4.43735e-05 0)
(4.84629e-05 -8.87236e-05 0)
(9.57399e-05 -9.52618e-05 0)
(0.000131159 -7.36817e-05 0)
(0.000139558 -3.28821e-05 0)
(0.000111486 2.02199e-05 0)
(4.06053e-05 8.0504e-05 0)
(-7.68905e-05 0.000144285 0)
(-0.000242767 0.000208942 0)
(-0.00045725 0.000272638 0)
(-0.000719431 0.000334106 0)
(-0.00102759 0.000392501 0)
(-0.00137943 0.000447272 0)
(-0.00177229 0.000498096 0)
(-0.00220328 0.000544823 0)
(-0.00266938 0.000587426 0)
(-0.00316758 0.00062597 0)
(-0.00369488 0.000660592 0)
(-0.00424838 0.000691476 0)
(-0.00482533 0.000718844 0)
(-0.00542311 0.000742939 0)
(-0.0060393 0.000764018 0)
(-0.00667165 0.000782345 0)
(-0.0073181 0.000798185 0)
(-0.0079768 0.000811799 0)
(-0.00864608 0.00082344 0)
(-0.00932447 0.000833351 0)
(-0.0100106 0.000841762 0)
(-0.0107035 0.000848891 0)
(-0.0114021 0.000854942 0)
(-0.0121055 0.000860103 0)
(-0.0128132 0.000864547 0)
(-0.0135245 0.000868433 0)
(-0.0142391 0.000871906 0)
(-0.0149567 0.000875094 0)
(-0.015677 0.000878116 0)
(-0.0163998 0.000881076 0)
(-0.0171252 0.000884067 0)
(-0.0178532 0.000887171 0)
(-0.0185839 0.000890459 0)
(-0.0193174 0.000893995 0)
(-0.0200538 0.000897831 0)
(-0.0207935 0.000902014 0)
(-0.0215367 0.000906581 0)
(-0.0222837 0.000911567 0)
(-0.0230347 0.000916996 0)
(-0.0237903 0.000922891 0)
(-0.0245506 0.000929267 0)
(-0.0253161 0.000936135 0)
(-0.0260871 0.000943503 0)
(-0.0268641 0.000951374 0)
(-0.0276473 0.000959747 0)
(-0.0284373 0.000968617 0)
(-0.0292343 0.000977977 0)
(-0.0300387 0.000987815 0)
(-0.0308509 0.000998117 0)
(-0.0316713 0.00100886 0)
(-0.0325 0.00102003 0)
(-0.0333375 0.0010316 0)
(-0.0341841 0.00104353 0)
(-0.0350399 0.00105579 0)
(-0.0359052 0.00106836 0)
(-0.0367801 0.00108117 0)
(-0.0376649 0.00109419 0)
(-0.0385597 0.00110736 0)
(-0.0394644 0.00112062 0)
(-0.0403792 0.00113393 0)
(-0.0413039 0.00114719 0)
(-0.0422385 0.00116035 0)
(-0.0431828 0.00117332 0)
(-0.0441366 0.00118601 0)
(-0.0450995 0.00119834 0)
(-0.0460713 0.00121019 0)
(-0.0470514 0.00122147 0)
(-0.0480392 0.00123205 0)
(-0.0490341 0.00124182 0)
(-0.0500353 0.00125064 0)
(-0.0510421 0.00125838 0)
(-0.0520533 0.0012649 0)
(-0.0530679 0.00127003 0)
(-0.0540846 0.00127361 0)
(-0.0551022 0.00127548 0)
(-0.0561191 0.00127546 0)
(-0.0571337 0.00127337 0)
(-0.0581441 0.00126901 0)
(-0.0591485 0.00126218 0)
(-0.0601448 0.00125268 0)
(-0.0611306 0.00124031 0)
(-0.0621037 0.00122483 0)
(-0.0630613 0.00120605 0)
(-0.0640007 0.00118373 0)
(-0.0649191 0.00115766 0)
(-0.0658132 0.00112761 0)
(-0.06668 0.00109337 0)
(-0.0675158 0.00105471 0)
(-0.0683172 0.00101142 0)
(-0.0690804 0.000963297 0)
(-0.0698015 0.000910152 0)
(-0.0704766 0.000851801 0)
(-0.0711014 0.000788077 0)
(-0.0716717 0.000718833 0)
(-0.0721831 0.000643942 0)
(-0.0726313 0.000563304 0)
(-0.0730117 0.000476847 0)
(-0.07332 0.00038453 0)
(-0.0735514 0.00028635 0)
(-0.0737017 0.000182343 0)
(-0.0737664 7.2588e-05 0)
(-0.0737411 -4.27858e-05 0)
(-0.0736217 -0.0001636 0)
(-0.0734042 -0.00028962 0)
(-0.0730847 -0.000420552 0)
(-0.0726599 -0.000556043 0)
(-0.0721265 -0.000695674 0)
(-0.0714816 -0.00083896 0)
(-0.0707229 -0.000985346 0)
(-0.0698483 -0.00113421 0)
(-0.0688564 -0.00128486 0)
(-0.0677463 -0.00143654 0)
(-0.0665179 -0.00158842 0)
(-0.0651714 -0.0017396 0)
(-0.0637079 -0.00188914 0)
(-0.0621295 -0.00203603 0)
(-0.0604386 -0.00217921 0)
(-0.0586388 -0.00231758 0)
(-0.0567344 -0.00245 0)
(-0.0547306 -0.00257534 0)
(-0.0526335 -0.0026924 0)
(-0.0504499 -0.00280004 0)
(-0.0481878 -0.00289709 0)
(-0.0458559 -0.00298242 0)
(-0.0434636 -0.00305495 0)
(-0.0410213 -0.00311363 0)
(-0.03854 -0.00315752 0)
(-0.0360315 -0.00318572 0)
(-0.0335083 -0.00319745 0)
(-0.0309832 -0.00319204 0)
(-0.0284696 -0.00316894 0)
(-0.0259812 -0.00312773 0)
(-0.0235321 -0.00306813 0)
(-0.0211364 -0.00299003 0)
(-0.0188081 -0.00289345 0)
(-0.0165615 -0.00277859 0)
(-0.0144102 -0.0026458 0)
(-0.0123677 -0.00249563 0)
(-0.0104468 -0.00232878 0)
(-0.00865988 -0.00214619 0)
(-0.00701812 -0.00194897 0)
(-0.00553185 -0.00173853 0)
(-0.00421 -0.00151659 0)
(-0.00305992 -0.0012853 0)
(-0.0020869 -0.00104743 0)
(-0.00129368 -0.000806601 0)
(-0.000679729 -0.000567779 0)
(-0.000240195 -0.000337897 0)
(3.54294e-05 -0.000126902 0)
(0.000164819 5.07513e-05 0)
(0.000174955 0.000174196 0)
(0.00010909 0.000213829 0)
(3.19653e-05 0.000128958 0)
(1.13537e-05 -7.10895e-05 0)
(4.20004e-05 -0.000131862 0)
(7.46226e-05 -0.000130809 0)
(8.52911e-05 -8.44769e-05 0)
(5.78681e-05 -6.29929e-06 0)
(-1.80614e-05 9.29985e-05 0)
(-0.000149647 0.000205154 0)
(-0.000341337 0.000323966 0)
(-0.000595313 0.00044485 0)
(-0.000911969 0.000564476 0)
(-0.00129034 0.000680462 0)
(-0.00172843 0.000791153 0)
(-0.00222353 0.000895441 0)
(-0.0027724 0.000992639 0)
(-0.00337146 0.00108238 0)
(-0.00401699 0.00116453 0)
(-0.00470517 0.00123917 0)
(-0.0054322 0.00130648 0)
(-0.00619438 0.00136677 0)
(-0.00698814 0.00142042 0)
(-0.00781012 0.00146786 0)
(-0.00865714 0.00150955 0)
(-0.00952626 0.00154597 0)
(-0.0104148 0.0015776 0)
(-0.0113202 0.00160493 0)
(-0.0122403 0.00162842 0)
(-0.0131732 0.00164854 0)
(-0.014117 0.00166572 0)
(-0.0150703 0.00168037 0)
(-0.0160317 0.00169287 0)
(-0.0170001 0.0017036 0)
(-0.0179746 0.00171287 0)
(-0.0189543 0.001721 0)
(-0.0199388 0.00172827 0)
(-0.0209275 0.00173492 0)
(-0.0219201 0.00174119 0)
(-0.0229163 0.00174728 0)
(-0.0239162 0.00175338 0)
(-0.0249197 0.00175963 0)
(-0.0259269 0.0017662 0)
(-0.0269378 0.00177319 0)
(-0.0279529 0.00178072 0)
(-0.0289722 0.00178888 0)
(-0.0299962 0.00179774 0)
(-0.0310252 0.00180737 0)
(-0.0320597 0.00181783 0)
(-0.0331 0.00182915 0)
(-0.0341465 0.00184137 0)
(-0.0351999 0.00185452 0)
(-0.0362605 0.0018686 0)
(-0.0373288 0.00188362 0)
(-0.0384054 0.00189959 0)
(-0.0394906 0.00191649 0)
(-0.040585 0.00193431 0)
(-0.0416891 0.00195302 0)
(-0.0428032 0.00197259 0)
(-0.0439278 0.00199299 0)
(-0.0450634 0.00201417 0)
(-0.0462103 0.00203608 0)
(-0.0473688 0.00205866 0)
(-0.0485392 0.00208183 0)
(-0.0497219 0.00210553 0)
(-0.0509169 0.00212967 0)
(-0.0521245 0.00215415 0)
(-0.0533448 0.00217887 0)
(-0.0545779 0.00220371 0)
(-0.0558236 0.00222855 0)
(-0.0570819 0.00225326 0)
(-0.0583526 0.00227768 0)
(-0.0596354 0.00230166 0)
(-0.06093 0.00232502 0)
(-0.0622359 0.00234758 0)
(-0.0635525 0.00236914 0)
(-0.064879 0.00238949 0)
(-0.0662148 0.0024084 0)
(-0.0675589 0.00242563 0)
(-0.0689101 0.00244093 0)
(-0.0702673 0.00245403 0)
(-0.071629 0.00246465 0)
(-0.0729937 0.00247248 0)
(-0.0743597 0.00247721 0)
(-0.0757251 0.00247851 0)
(-0.0770878 0.00247605 0)
(-0.0784456 0.00246946 0)
(-0.079796 0.00245838 0)
(-0.0811364 0.00244243 0)
(-0.0824639 0.00242121 0)
(-0.0837754 0.00239433 0)
(-0.0850676 0.00236139 0)
(-0.0863371 0.00232195 0)
(-0.0875801 0.00227562 0)
(-0.0887927 0.00222197 0)
(-0.0899706 0.00216058 0)
(-0.0911097 0.00209104 0)
(-0.0922052 0.00201295 0)
(-0.0932524 0.00192592 0)
(-0.0942463 0.00182957 0)
(-0.0951819 0.00172355 0)
(-0.0960537 0.00160752 0)
(-0.0968563 0.0014812 0)
(-0.0975842 0.00134432 0)
(-0.0982316 0.00119666 0)
(-0.0987927 0.00103805 0)
(-0.0992618 0.00086839 0)
(-0.099633 0.000687619 0)
(-0.0999005 0.00049576 0)
(-0.100058 0.00029291 0)
(-0.100101 7.92511e-05 0)
(-0.100023 -0.000144947 0)
(-0.0998192 -0.000379313 0)
(-0.0994841 -0.000623375 0)
(-0.0990131 -0.000876549 0)
(-0.0984017 -0.00113813 0)
(-0.0976461 -0.00140731 0)
(-0.0967427 -0.00168314 0)
(-0.0956886 -0.00196455 0)
(-0.0944814 -0.00225033 0)
(-0.0931194 -0.00253917 0)
(-0.0916018 -0.00282961 0)
(-0.0899284 -0.00312008 0)
(-0.0881 -0.00340887 0)
(-0.0861182 -0.00369419 0)
(-0.0839858 -0.00397414 0)
(-0.0817064 -0.00424671 0)
(-0.0792847 -0.00450984 0)
(-0.0767265 -0.00476141 0)
(-0.0740387 -0.00499923 0)
(-0.0712294 -0.00522113 0)
(-0.0683078 -0.00542492 0)
(-0.0652842 -0.00560844 0)
(-0.06217 -0.00576958 0)
(-0.0589776 -0.00590631 0)
(-0.0557205 -0.00601669 0)
(-0.0524131 -0.00609894 0)
(-0.0490707 -0.00615142 0)
(-0.0457095 -0.00617266 0)
(-0.0423463 -0.00616143 0)
(-0.0389983 -0.00611669 0)
(-0.0356833 -0.0060377 0)
(-0.0324196 -0.00592395 0)
(-0.0292254 -0.00577524 0)
(-0.0261189 -0.00559165 0)
(-0.0231184 -0.0053736 0)
(-0.0202415 -0.00512183 0)
(-0.0175055 -0.00483741 0)
(-0.014927 -0.0045218 0)
(-0.0125215 -0.00417685 0)
(-0.0103033 -0.00380485 0)
(-0.00828547 -0.00340864 0)
(-0.00647899 -0.0029917 0)
(-0.00489278 -0.00255836 0)
(-0.00353306 -0.00211408 0)
(-0.00240272 -0.0016659 0)
(-0.00150057 -0.0012231 0)
(-0.000820279 -0.000798135 0)
(-0.000349143 -0.000408029 0)
(-6.67148e-05 -7.62637e-05 0)
(5.69409e-05 0.000165044 0)
(6.63824e-05 0.000272452 0)
(2.46444e-05 0.000184582 0)
(8.80309e-06 -9.17858e-05 0)
(2.70173e-05 -0.000158574 0)
(3.35843e-05 -0.000139185 0)
(6.06842e-06 -5.69113e-05 0)
(-7.12764e-05 7.01878e-05 0)
(-0.00020903 0.000227615 0)
(-0.00041451 0.000403947 0)
(-0.000692305 0.000590392 0)
(-0.00104468 0.000780279 0)
(-0.00147202 0.000968626 0)
(-0.00197323 0.00115178 0)
(-0.00254609 0.00132712 0)
(-0.00318752 0.00149287 0)
(-0.00389383 0.00164785 0)
(-0.00466093 0.00179142 0)
(-0.00548448 0.00192328 0)
(-0.00636003 0.00204345 0)
(-0.00728314 0.0021522 0)
(-0.00824943 0.00224993 0)
(-0.00925468 0.0023372 0)
(-0.0102949 0.00241463 0)
(-0.0113662 0.00248291 0)
(-0.0124651 0.00254279 0)
(-0.0135882 0.002595 0)
(-0.0147327 0.00264029 0)
(-0.0158958 0.0026794 0)
(-0.0170751 0.00271303 0)
(-0.0182684 0.00274188 0)
(-0.0194737 0.00276659 0)
(-0.0206895 0.00278778 0)
(-0.0219144 0.00280602 0)
(-0.0231471 0.00282184 0)
(-0.0243866 0.00283573 0)
(-0.0256323 0.00284814 0)
(-0.0268835 0.00285948 0)
(-0.0281396 0.00287012 0)
(-0.0294006 0.00288038 0)
(-0.0306661 0.00289057 0)
(-0.0319361 0.00290095 0)
(-0.0332107 0.00291175 0)
(-0.03449 0.00292317 0)
(-0.0357743 0.00293539 0)
(-0.0370639 0.00294857 0)
(-0.0383591 0.00296282 0)
(-0.0396603 0.00297826 0)
(-0.0409681 0.00299498 0)
(-0.0422829 0.00301304 0)
(-0.0436052 0.0030325 0)
(-0.0449356 0.00305341 0)
(-0.0462747 0.00307578 0)
(-0.047623 0.00309962 0)
(-0.048981 0.00312494 0)
(-0.0503494 0.00315172 0)
(-0.0517287 0.00317993 0)
(-0.0531194 0.00320953 0)
(-0.0545221 0.00324047 0)
(-0.0559373 0.00327269 0)
(-0.0573654 0.00330611 0)
(-0.0588068 0.00334065 0)
(-0.0602619 0.0033762 0)
(-0.0617311 0.00341265 0)
(-0.0632146 0.00344988 0)
(-0.0647127 0.00348773 0)
(-0.0662255 0.00352605 0)
(-0.0677531 0.00356467 0)
(-0.0692954 0.0036034 0)
(-0.0708525 0.00364203 0)
(-0.072424 0.00368033 0)
(-0.0740097 0.00371807 0)
(-0.0756093 0.00375497 0)
(-0.0772221 0.00379076 0)
(-0.0788475 0.00382513 0)
(-0.0804848 0.00385776 0)
(-0.0821331 0.00388829 0)
(-0.0837911 0.00391637 0)
(-0.0854578 0.0039416 0)
(-0.0871316 0.00396357 0)
(-0.0888111 0.00398183 0)
(-0.0904943 0.00399593 0)
(-0.0921794 0.00400539 0)
(-0.093864 0.00400969 0)
(-0.0955459 0.00400832 0)
(-0.0972224 0.00400071 0)
(-0.0988907 0.00398631 0)
(-0.100548 0.00396452 0)
(-0.10219 0.00393473 0)
(-0.103814 0.00389633 0)
(-0.105416 0.00384868 0)
(-0.106991 0.00379113 0)
(-0.108536 0.00372304 0)
(-0.110046 0.00364373 0)
(-0.111516 0.00355257 0)
(-0.112941 0.0034489 0)
(-0.114316 0.00333207 0)
(-0.115634 0.00320146 0)
(-0.11689 0.00305647 0)
(-0.118079 0.00289651 0)
(-0.119193 0.00272106 0)
(-0.120226 0.00252961 0)
(-0.121173 0.00232171 0)
(-0.122025 0.00209699 0)
(-0.122776 0.00185514 0)
(-0.12342 0.00159591 0)
(-0.123949 0.00131916 0)
(-0.124356 0.00102486 0)
(-0.124635 0.00071308 0)
(-0.124778 0.000384002 0)
(-0.124779 3.7959e-05 0)
(-0.124631 -0.00032458 0)
(-0.124328 -0.000702989 0)
(-0.123865 -0.00109648 0)
(-0.123235 -0.00150409 0)
(-0.122433 -0.00192468 0)
(-0.121455 -0.00235692 0)
(-0.120298 -0.00279927 0)
(-0.118957 -0.00325004 0)
(-0.11743 -0.00370728 0)
(-0.115715 -0.00416889 0)
(-0.113812 -0.00463256 0)
(-0.111721 -0.00509579 0)
(-0.109442 -0.00555589 0)
(-0.106979 -0.00601002 0)
(-0.104334 -0.00645518 0)
(-0.101511 -0.00688822 0)
(-0.0985182 -0.0073059 0)
(-0.0953609 -0.00770488 0)
(-0.0920481 -0.00808175 0)
(-0.0885896 -0.00843311 0)
(-0.0849964 -0.00875551 0)
(-0.081281 -0.0090456 0)
(-0.0774571 -0.00930007 0)
(-0.0735397 -0.00951576 0)
(-0.0695448 -0.00968965 0)
(-0.0654899 -0.00981895 0)
(-0.0613932 -0.0099011 0)
(-0.0572739 -0.00993383 0)
(-0.053152 -0.00991522 0)
(-0.0490484 -0.00984368 0)
(-0.0449841 -0.00971804 0)
(-0.0409809 -0.00953754 0)
(-0.0370604 -0.0093019 0)
(-0.0332445 -0.0090113 0)
(-0.0295546 -0.00866644 0)
(-0.0260119 -0.00826856 0)
(-0.0226369 -0.00781945 0)
(-0.019449 -0.00732153 0)
(-0.0164667 -0.00677784 0)
(-0.0137067 -0.00619221 0)
(-0.0111842 -0.0055693 0)
(-0.00891189 -0.00491485 0)
(-0.00690007 -0.00423589 0)
(-0.00515572 -0.00354119 0)
(-0.00368201 -0.00284182 0)
(-0.00247755 -0.00215195 0)
(-0.00153544 -0.00149004 0)
(-0.000842234 -0.000880373 0)
(-0.000376783 -0.000355239 0)
(-0.00010876 4.27721e-05 0)
(3.39289e-06 0.000257683 0)
(1.32403e-05 0.000210689 0)
(5.29609e-06 -0.000102956 0)
(6.63468e-06 -0.000160977 0)
(-2.11483e-05 -0.000110027 0)
(-9.70363e-05 2.06966e-05 0)
(-0.000235305 0.000208813 0)
(-0.000446072 0.000436219 0)
(-0.000736295 0.00068845 0)
(-0.00111027 0.000954169 0)
(-0.00157004 0.00122461 0)
(-0.00211578 0.00149309 0)
(-0.00274616 0.00175461 0)
(-0.00345866 0.00200552 0)
(-0.00424986 0.00224326 0)
(-0.00511566 0.00246612 0)
(-0.00605153 0.0026731 0)
(-0.00705262 0.00286371 0)
(-0.00811397 0.0030379 0)
(-0.00923057 0.00319594 0)
(-0.0103975 0.00333838 0)
(-0.01161 0.00346591 0)
(-0.0128634 0.00357941 0)
(-0.0141535 0.0036798 0)
(-0.0154761 0.0037681 0)
(-0.0168274 0.00384535 0)
(-0.0182041 0.00391258 0)
(-0.019603 0.00397082 0)
(-0.0210212 0.0040211 0)
(-0.0224562 0.00406437 0)
(-0.0239058 0.00410157 0)
(-0.0253679 0.00413356 0)
(-0.0268411 0.00416118 0)
(-0.0283237 0.00418518 0)
(-0.0298147 0.00420628 0)
(-0.0313131 0.00422512 0)
(-0.032818 0.00424229 0)
(-0.0343291 0.00425834 0)
(-0.0358458 0.00427373 0)
(-0.0373679 0.00428892 0)
(-0.0388954 0.00430428 0)
(-0.0404282 0.00432016 0)
(-0.0419665 0.00433685 0)
(-0.0435105 0.00435462 0)
(-0.0450606 0.00437368 0)
(-0.0466171 0.00439424 0)
(-0.0481804 0.00441644 0)
(-0.0497512 0.00444043 0)
(-0.0513298 0.00446631 0)
(-0.052917 0.00449415 0)
(-0.0545133 0.00452403 0)
(-0.0561193 0.00455596 0)
(-0.0577357 0.00458998 0)
(-0.0593631 0.00462607 0)
(-0.0610021 0.00466422 0)
(-0.0626533 0.00470437 0)
(-0.0643174 0.00474649 0)
(-0.0659949 0.00479048 0)
(-0.0676863 0.00483625 0)
(-0.0693922 0.00488369 0)
(-0.071113 0.00493267 0)
(-0.072849 0.00498302 0)
(-0.0746007 0.0050346 0)
(-0.0763684 0.00508719 0)
(-0.0781521 0.00514058 0)
(-0.0799521 0.00519455 0)
(-0.0817684 0.00524883 0)
(-0.0836009 0.00530313 0)
(-0.0854494 0.00535716 0)
(-0.0873137 0.00541057 0)
(-0.0891933 0.005463 0)
(-0.0910877 0.00551406 0)
(-0.0929962 0.00556334 0)
(-0.094918 0.00561039 0)
(-0.096852 0.00565472 0)
(-0.0987972 0.00569583 0)
(-0.100752 0.00573318 0)
(-0.102715 0.0057662 0)
(-0.104685 0.00579426 0)
(-0.106659 0.00581675 0)
(-0.108635 0.00583299 0)
(-0.110612 0.00584226 0)
(-0.112585 0.00584385 0)
(-0.114553 0.00583698 0)
(-0.116513 0.00582087 0)
(-0.11846 0.00579468 0)
(-0.120391 0.00575757 0)
(-0.122302 0.00570867 0)
(-0.124189 0.00564709 0)
(-0.126048 0.00557192 0)
(-0.127873 0.00548224 0)
(-0.12966 0.00537713 0)
(-0.131402 0.00525565 0)
(-0.133095 0.00511688 0)
(-0.134733 0.0049599 0)
(-0.136308 0.0047838 0)
(-0.137815 0.00458772 0)
(-0.139247 0.00437081 0)
(-0.140597 0.00413228 0)
(-0.141857 0.00387139 0)
(-0.143021 0.00358745 0)
(-0.14408 0.00327987 0)
(-0.145027 0.00294815 0)
(-0.145854 0.00259187 0)
(-0.146554 0.00221075 0)
(-0.147118 0.00180463 0)
(-0.147538 0.0013735 0)
(-0.147807 0.000917513 0)
(-0.147917 0.000436997 0)
(-0.14786 -6.75318e-05 0)
(-0.147629 -0.000595349 0)
(-0.147217 -0.00114551 0)
(-0.146618 -0.00171685 0)
(-0.145825 -0.00230794 0)
(-0.144833 -0.0029171 0)
(-0.143637 -0.0035424 0)
(-0.142233 -0.00418163 0)
(-0.140616 -0.0048323 0)
(-0.138785 -0.00549165 0)
(-0.136737 -0.00615664 0)
(-0.134472 -0.00682397 0)
(-0.13199 -0.00749005 0)
(-0.129293 -0.00815108 0)
(-0.126384 -0.00880298 0)
(-0.123266 -0.00944151 0)
(-0.119946 -0.0100622 0)
(-0.116429 -0.0106605 0)
(-0.112725 -0.0112315 0)
(-0.108843 -0.0117707 0)
(-0.104794 -0.012273 0)
(-0.100591 -0.0127336 0)
(-0.0962477 -0.0131479 0)
(-0.0917809 -0.0135111 0)
(-0.0872069 -0.0138187 0)
(-0.0825444 -0.0140666 0)
(-0.0778129 -0.0142508 0)
(-0.0730333 -0.0143677 0)
(-0.0682274 -0.014414 0)
(-0.063418 -0.0143872 0)
(-0.0586286 -0.0142848 0)
(-0.0538833 -0.0141054 0)
(-0.0492067 -0.0138479 0)
(-0.0446234 -0.0135119 0)
(-0.0401582 -0.0130977 0)
(-0.0358354 -0.0126064 0)
(-0.0316789 -0.0120398 0)
(-0.027712 -0.0114006 0)
(-0.0239566 -0.0106922 0)
(-0.0204335 -0.00991938 0)
(-0.0171616 -0.00908755 0)
(-0.0141579 -0.00820363 0)
(-0.0114367 -0.00727594 0)
(-0.00900945 -0.00631465 0)
(-0.00688397 -0.00533223 0)
(-0.00506405 -0.00434411 0)
(-0.00354868 -0.00336965 0)
(-0.00233129 -0.00243336 0)
(-0.00139898 -0.00156657 0)
(-0.000731504 -0.000809669 0)
(-0.000300152 -0.000214458 0)
(-6.9351e-05 0.000152654 0)
(3.28532e-07 0.000200151 0)
(1.28299e-06 -0.000102504 0)
(-1.71187e-05 -0.000133586 0)
(-8.50992e-05 -3.56266e-05 0)
(-0.000216926 0.00015739 0)
(-0.000424587 0.000419268 0)
(-0.000717228 0.000728619 0)
(-0.00110101 0.00106816 0)
(-0.00157958 0.00142415 0)
(-0.00215447 0.00178579 0)
(-0.00282544 0.00214473 0)
(-0.00359077 0.00249463 0)
(-0.00444757 0.00283078 0)
(-0.00539203 0.00314982 0)
(-0.00641967 0.00344945 0)
(-0.00752551 0.00372829 0)
(-0.00870429 0.00398562 0)
(-0.00995055 0.00422129 0)
(-0.0112588 0.00443561 0)
(-0.0126238 0.0046292 0)
(-0.01404 0.00480295 0)
(-0.0155026 0.00495795 0)
(-0.0170066 0.00509539 0)
(-0.0185476 0.0052166 0)
(-0.0201213 0.0053229 0)
(-0.021724 0.00541567 0)
(-0.023352 0.00549628 0)
(-0.0250023 0.00556604 0)
(-0.0266718 0.00562625 0)
(-0.0283581 0.00567814 0)
(-0.0300589 0.00572289 0)
(-0.0317724 0.00576159 0)
(-0.0334969 0.00579526 0)
(-0.035231 0.00582487 0)
(-0.0369737 0.00585128 0)
(-0.0387239 0.00587531 0)
(-0.040481 0.00589766 0)
(-0.0422446 0.00591902 0)
(-0.0440143 0.00593996 0)
(-0.04579 0.00596102 0)
(-0.0475716 0.00598265 0)
(-0.0493593 0.00600528 0)
(-0.0511532 0.00602925 0)
(-0.0529537 0.00605488 0)
(-0.0547612 0.00608244 0)
(-0.0565762 0.00611214 0)
(-0.0583992 0.00614416 0)
(-0.0602307 0.00617866 0)
(-0.0620715 0.00621574 0)
(-0.0639221 0.00625549 0)
(-0.0657831 0.00629795 0)
(-0.0676554 0.00634316 0)
(-0.0695395 0.00639109 0)
(-0.0714362 0.00644172 0)
(-0.073346 0.006495 0)
(-0.0752696 0.00655084 0)
(-0.0772077 0.00660912 0)
(-0.0791608 0.00666973 0)
(-0.0811293 0.00673249 0)
(-0.0831139 0.00679723 0)
(-0.0851148 0.00686372 0)
(-0.0871325 0.00693174 0)
(-0.0891671 0.007001 0)
(-0.0912188 0.00707121 0)
(-0.0932878 0.00714205 0)
(-0.095374 0.00721315 0)
(-0.0974772 0.00728412 0)
(-0.0995972 0.00735453 0)
(-0.101734 0.00742392 0)
(-0.103886 0.00749178 0)
(-0.106053 0.00755759 0)
(-0.108235 0.00762075 0)
(-0.11043 0.00768066 0)
(-0.112637 0.00773666 0)
(-0.114854 0.00778805 0)
(-0.117081 0.00783408 0)
(-0.119315 0.00787398 0)
(-0.121553 0.00790691 0)
(-0.123795 0.00793202 0)
(-0.126037 0.00794838 0)
(-0.128276 0.00795504 0)
(-0.13051 0.007951 0)
(-0.132735 0.00793524 0)
(-0.134946 0.00790668 0)
(-0.137142 0.00786422 0)
(-0.139316 0.00780671 0)
(-0.141466 0.00773299 0)
(-0.143585 0.00764187 0)
(-0.145668 0.00753214 0)
(-0.147711 0.00740257 0)
(-0.149707 0.00725194 0)
(-0.15165 0.00707901 0)
(-0.153533 0.00688256 0)
(-0.155351 0.00666138 0)
(-0.157096 0.00641429 0)
(-0.158761 0.00614015 0)
(-0.160337 0.00583787 0)
(-0.161818 0.00550643 0)
(-0.163196 0.00514486 0)
(-0.164461 0.00475232 0)
(-0.165606 0.00432804 0)
(-0.166622 0.0038714 0)
(-0.167501 0.00338191 0)
(-0.168234 0.00285925 0)
(-0.168812 0.00230325 0)
(-0.169226 0.00171398 0)
(-0.169468 0.00109168 0)
(-0.16953 0.000436874 0)
(-0.169404 -0.000249702 0)
(-0.16908 -0.000967017 0)
(-0.168553 -0.00171375 0)
(-0.167815 -0.00248828 0)
(-0.166859 -0.00328866 0)
(-0.16568 -0.00411261 0)
(-0.164271 -0.00495748 0)
(-0.162629 -0.00582031 0)
(-0.160751 -0.00669773 0)
(-0.158632 -0.00758604 0)
(-0.156272 -0.00848117 0)
(-0.15367 -0.00937871 0)
(-0.150827 -0.0102739 0)
(-0.147744 -0.0111616 0)
(-0.144425 -0.0120365 0)
(-0.140874 -0.0128928 0)
(-0.137098 -0.0137248 0)
(-0.133105 -0.0145263 0)
(-0.128903 -0.0152909 0)
(-0.124503 -0.0160125 0)
(-0.119919 -0.0166845 0)
(-0.115164 -0.0173007 0)
(-0.110253 -0.0178546 0)
(-0.105204 -0.0183402 0)
(-0.100037 -0.0187515 0)
(-0.0947699 -0.0190829 0)
(-0.0894261 -0.0193293 0)
(-0.0840279 -0.0194859 0)
(-0.0785994 -0.0195484 0)
(-0.0731658 -0.0195133 0)
(-0.0677527 -0.0193776 0)