/*--------------------------------*- C++ -*----------------------------------*\
  =========                 |
  \\      /  F ield         | OpenFOAM: The Open Source CFD Toolbox
   \\    /   O peration     | Website:  https://openfoam.org
    \\  /    A nd           | Version:  7
     \\/     M anipulation  |
\*---------------------------------------------------------------------------*/
FoamFile
{
    version     2.0;
    format      ascii;
    class       volScalarField;
    location    "0.225";
    object      p;
}
// * * * * * * * * * * * * * * * * * * * * * * * * * * * * * * * * * * * * * //

dimensions      [0 2 -2 0 0 0 0];

internalField   nonuniform List<scalar> 
12800
(
1.77967e-06
0.000185064
-0.000899742
-0.00334366
-0.00690124
-0.0113257
-0.0163837
-0.021862
-0.0275738
-0.033359
-0.0390814
-0.0446256
-0.0498943
-0.0548061
-0.0592929
-0.0632987
-0.0667778
-0.0696935
-0.072017
-0.0737264
-0.074806
-0.0752452
-0.0750385
-0.0741841
-0.0726838
-0.0705428
-0.0677686
-0.0643712
-0.0603625
-0.0557561
-0.0505669
-0.0448109
-0.038505
-0.031667
-0.0243149
-0.0164672
-0.00814258
0.000640181
0.00986236
0.0195054
0.0295508
0.0399807
0.0507774
0.0619235
0.0734022
0.0851974
0.0972932
0.109675
0.122327
0.135236
0.148389
0.161772
0.175375
0.189184
0.20319
0.217382
0.231751
0.246287
0.260981
0.275826
0.290814
0.305939
0.321194
0.336572
0.352068
0.367678
0.383396
0.399217
0.415139
0.431157
0.447267
0.463468
0.479754
0.496125
0.512577
0.529108
0.545715
0.562397
0.579151
0.595976
0.612868
0.629826
0.646847
0.663929
0.68107
0.698267
0.715517
0.732816
0.750162
0.767549
0.784975
0.802434
0.819922
0.837432
0.854958
0.872495
0.890034
0.907567
0.925086
0.942581
0.960043
0.977459
0.994819
1.01211
1.02932
1.04642
1.06342
1.08028
1.097
1.11355
1.12992
1.14608
1.16201
1.17769
1.1931
1.20821
1.223
1.23744
1.2515
1.26516
1.27839
1.29117
1.30345
1.31522
1.32644
1.33709
1.34714
1.35657
1.36533
1.37342
1.3808
1.38745
1.39336
1.39849
1.40285
1.40641
1.40916
1.4111
1.41223
1.41255
1.41206
1.41079
1.40875
1.40598
1.4025
1.39837
1.39364
1.38837
1.38266
1.37659
1.37028
1.36387
1.3575
1.35136
1.34567
1.34067
1.33662
1.33381
1.33253
1.3327
-0.000178878
4.32139e-06
-0.000998506
-0.00313059
-0.00616808
-0.00993557
-0.0142593
-0.0189687
-0.0239071
-0.0289354
-0.0339314
-0.0387891
-0.0434173
-0.0477381
-0.0516855
-0.0552043
-0.0582485
-0.0607806
-0.0627705
-0.0641946
-0.0650352
-0.0652798
-0.0649203
-0.0639527
-0.0623765
-0.0601944
-0.0574114
-0.0540353
-0.0500755
-0.0455433
-0.0404515
-0.0348139
-0.0286453
-0.0219615
-0.0147785
-0.00711324
0.00101744
0.00959637
0.0186063
0.0280302
0.0378508
0.0480515
0.0586156
0.0695269
0.0807695
0.0923282
0.104188
0.116334
0.128753
0.141431
0.154356
0.167514
0.180895
0.194487
0.208279
0.222261
0.236425
0.25076
0.265258
0.279912
0.294713
0.309655
0.324732
0.339936
0.355262
0.370706
0.386261
0.401924
0.41769
0.433555
0.449515
0.465567
0.481708
0.497934
0.514242
0.53063
0.547096
0.563636
0.580248
0.596929
0.613677
0.630489
0.647363
0.664295
0.681283
0.698324
0.715414
0.732549
0.749727
0.766941
0.784189
0.801464
0.818762
0.836077
0.853401
0.870728
0.888051
0.90536
0.922648
0.939905
0.95712
0.974282
0.99138
1.0084
1.02533
1.04215
1.05886
1.07542
1.09183
1.10807
1.12412
1.13996
1.15556
1.17091
1.18599
1.20076
1.21522
1.22932
1.24306
1.25639
1.2693
1.28175
1.29373
1.30521
1.31615
1.32653
1.33634
1.34553
1.35409
1.36199
1.36922
1.37575
1.38156
1.38664
1.39098
1.39456
1.39738
1.39944
1.40073
1.40126
1.40104
1.40009
1.39843
1.3961
1.39312
1.38955
1.38544
1.38085
1.37588
1.3706
1.36512
1.35957
1.35409
1.34884
1.34399
1.33975
1.3363
1.33387
1.33269
1.33286
0.000905343
0.00100822
4.6127e-06
-0.00197944
-0.00472877
-0.0081012
-0.0119565
-0.016153
-0.0205573
-0.025048
-0.0295161
-0.0338654
-0.0380113
-0.0418808
-0.0454111
-0.0485488
-0.051249
-0.0534743
-0.0551946
-0.0563856
-0.0570285
-0.0571096
-0.0566195
-0.0555525
-0.0539065
-0.0516824
-0.0488837
-0.0455162
-0.0415876
-0.0371076
-0.0320871
-0.0265383
-0.0204744
-0.0139095
-0.00685843
0.000663671
0.00864118
0.0170582
0.0258989
0.035147
0.0447868
0.0548024
0.0651782
0.0758987
0.0869491
0.0983146
0.109981
0.121934
0.134161
0.146648
0.159384
0.172356
0.185552
0.198963
0.212577
0.226384
0.240376
0.254543
0.268876
0.283368
0.298012
0.312799
0.327725
0.342781
0.357963
0.373265
0.388682
0.404209
0.419841
0.435574
0.451405
0.46733
0.483344
0.499445
0.51563
0.531895
0.548237
0.564654
0.581143
0.5977
0.614323
0.631009
0.647755
0.664558
0.681414
0.698321
0.715273
0.732268
0.749301
0.766368
0.783463
0.800582
0.817718
0.834866
0.852019
0.869169
0.886309
0.90343
0.920524
0.937581
0.954589
0.971539
0.988418
1.00521
1.02191
1.0385
1.05496
1.07128
1.08744
1.10342
1.11921
1.13479
1.15012
1.16521
1.18001
1.19452
1.2087
1.22254
1.23601
1.24908
1.26173
1.27394
1.28567
1.29691
1.30764
1.31781
1.32742
1.33644
1.34484
1.35261
1.35972
1.36616
1.37191
1.37695
1.38129
1.3849
1.38778
1.38993
1.39136
1.39207
1.39207
1.39138
1.39003
1.38804
1.38545
1.38232
1.37868
1.37462
1.37019
1.36549
1.36062
1.35569
1.35082
1.34615
1.34185
1.33806
1.33495
1.33269
1.33152
1.33158
0.00335081
0.00314355
0.0019871
-2.16519e-06
-0.00264496
-0.00581767
-0.00940035
-0.0132724
-0.017319
-0.0214342
-0.0255212
-0.0294932
-0.0332733
-0.0367939
-0.0399961
-0.0428295
-0.0452511
-0.0472249
-0.0487212
-0.0497158
-0.0501898
-0.0501289
-0.049523
-0.0483655
-0.0466532
-0.0443859
-0.0415657
-0.0381971
-0.0342868
-0.0298428
-0.0248748
-0.0193937
-0.0134114
-0.00694079
4.68149e-06
0.00741095
0.0152636
0.0235477
0.0322485
0.0413509
0.0508399
0.0607004
0.0709178
0.0814774
0.0923649
0.103566
0.115068
0.126856
0.138918
0.151241
0.163814
0.176625
0.189662
0.202915
0.216373
0.230028
0.243869
0.257888
0.272077
0.286427
0.300931
0.315582
0.330373
0.345298
0.360351
0.375526
0.390819
0.406223
0.421736
0.437351
0.453065
0.468874
0.484775
0.500763
0.516835
0.532988
0.549219
0.565524
0.5819
0.598345
0.614855
0.631426
0.648057
0.664742
0.681479
0.698263
0.715091
0.73196
0.748863
0.765796
0.782755
0.799734
0.816726
0.833726
0.850726
0.86772
0.884699
0.901654
0.918578
0.935459
0.952287
0.969052
0.985741
1.00234
1.01884
1.03523
1.05148
1.06759
1.08353
1.0993
1.11486
1.13021
1.14533
1.16018
1.17476
1.18904
1.203
1.21661
1.22986
1.24272
1.25516
1.26716
1.2787
1.28975
1.3003
1.31031
1.31976
1.32864
1.33692
1.34458
1.3516
1.35797
1.36368
1.36871
1.37305
1.37669
1.37963
1.38187
1.38342
1.38428
1.38447
1.384
1.3829
1.38119
1.37892
1.37612
1.37286
1.36919
1.36518
1.36091
1.35648
1.35197
1.34751
1.34322
1.33923
1.33567
1.33269
1.33043
1.32908
1.32878
0.00692066
0.00619302
0.00473986
0.00262859
-2.48266e-05
-0.00311437
-0.00653699
-0.010191
-0.0139785
-0.0178079
-0.0215943
-0.0252605
-0.0287373
-0.0319631
-0.0348838
-0.0374524
-0.0396284
-0.0413777
-0.0426718
-0.0434871
-0.0438051
-0.0436114
-0.0428954
-0.0416501
-0.0398716
-0.0375587
-0.0347128
-0.0313373
-0.0274376
-0.0230208
-0.0180955
-0.0126713
-0.00675916
-0.000370678
0.00648171
0.013785
0.0215258
0.0296903
0.0382645
0.0472343
0.0565856
0.0663041
0.0763758
0.0867868
0.0975235
0.108572
0.11992
0.131555
0.143463
0.155633
0.168052
0.180711
0.193598
0.206702
0.220013
0.233522
0.24722
0.261099
0.275148
0.289362
0.303732
0.318252
0.332914
0.347712
0.36264
0.377693
0.392865
0.408151
0.423546
0.439046
0.454647
0.470343
0.486132
0.502009
0.517971
0.534014
0.550135
0.566331
0.582597
0.598931
0.61533
0.631789
0.648305
0.664875
0.681495
0.69816
0.714868
0.731612
0.748389
0.765193
0.782019
0.798862
0.815715
0.832572
0.849426
0.866268
0.883093
0.899889
0.91665
0.933363
0.950021
0.96661
0.983119
0.999537
1.01585
1.03204
1.0481
1.06401
1.07975
1.09532
1.11068
1.12582
1.14073
1.15538
1.16975
1.18382
1.19757
1.21098
1.22403
1.23669
1.24894
1.26076
1.27212
1.283
1.29339
1.30325
1.31257
1.32133
1.3295
1.33707
1.34403
1.35035
1.35602
1.36104
1.36539
1.36907
1.37207
1.3744
1.37606
1.37707
1.37742
1.37715
1.37627
1.37481
1.37281
1.37032
1.36737
1.36403
1.36037
1.35644
1.35235
1.34817
1.34401
1.33997
1.33616
1.3327
1.32972
1.32732
1.32563
1.32473
0.0113789
0.00998925
0.00812728
0.00579524
0.00303161
-7.43315e-05
-0.00343404
-0.00696307
-0.0105792
-0.0142038
-0.0177635
-0.0211905
-0.0244233
-0.0274064
-0.0300909
-0.0324337
-0.0343973
-0.0359498
-0.0370644
-0.0377186
-0.0378947
-0.0375784
-0.0367594
-0.0354304
-0.033587
-0.0312276
-0.0283529
-0.0249654
-0.0210699
-0.0166724
-0.0117806
-0.00640325
-0.000550224
0.00576777
0.0125393
0.0197523
0.0273942
0.0354522
0.0439131
0.0527637
0.0619905
0.0715801
0.0815192
0.0917946
0.102393
0.113302
0.124509
0.136001
0.147766
0.159793
0.17207
0.184587
0.197333
0.210297
0.22347
0.236843
0.250406
0.26415
0.278069
0.292153
0.306396
0.32079
0.335329
0.350006
0.364814
0.379749
0.394805
0.409977
0.42526
0.440648
0.456138
0.471725
0.487405
0.503175
0.51903
0.534966
0.55098
0.567069
0.583228
0.599455
0.615744
0.632094
0.6485
0.664957
0.681463
0.698013
0.714603
0.731227
0.747882
0.764561
0.78126
0.797972
0.814692
0.831411
0.848125
0.864824
0.881501
0.898147
0.914753
0.931308
0.947804
0.964228
0.980569
0.996815
1.01295
1.02897
1.04485
1.06057
1.07613
1.0915
1.10668
1.12163
1.13635
1.1508
1.16499
1.17887
1.19244
1.20567
1.21853
1.23102
1.2431
1.25475
1.26596
1.2767
1.28695
1.29668
1.30589
1.31454
1.32263
1.33012
1.33702
1.3433
1.34895
1.35397
1.35834
1.36205
1.36512
1.36753
1.3693
1.37043
1.37094
1.37084
1.37016
1.36892
1.36716
1.36491
1.36223
1.35916
1.35577
1.35212
1.34828
1.34433
1.34037
1.33647
1.33274
1.32927
1.32616
1.32351
1.32137
1.31971
0.0165042
0.0143674
0.0120162
0.00938398
0.00642687
0.00321941
-0.000162144
-0.00364883
-0.00717247
-0.0106666
-0.0140683
-0.0173188
-0.020364
-0.023155
-0.0256477
-0.0278033
-0.0295878
-0.0309718
-0.0319303
-0.0324427
-0.0324919
-0.0320645
-0.0311506
-0.0297429
-0.0278371
-0.0254311
-0.0225252
-0.0191217
-0.0152244
-0.0108388
-0.0059719
-0.000631587
0.00517305
0.0114321
0.0181349
0.0252703
0.0328265
0.0407914
0.0491527
0.0578977
0.0670139
0.0764884
0.0863085
0.0964617
0.106935
0.117717
0.128795
0.140157
0.151792
0.163688
0.175835
0.188221
0.200836
0.213671
0.226715
0.239961
0.253398
0.267018
0.280813
0.294776
0.308899
0.323175
0.337597
0.352159
0.366854
0.381677
0.396623
0.411685
0.42686
0.442141
0.457526
0.473008
0.488584
0.50425
0.520001
0.535835
0.551746
0.567731
0.583787
0.599909
0.616094
0.632338
0.648637
0.664987
0.681383
0.697822
0.714299
0.730808
0.747346
0.763906
0.780482
0.79707
0.813662
0.830252
0.846833
0.863397
0.879935
0.896439
0.9129
0.929308
0.945653
0.961923
0.978108
0.994194
1.01017
1.02602
1.04173
1.05729
1.07268
1.08789
1.10289
1.11767
1.13221
1.1465
1.16051
1.17423
1.18763
1.2007
1.21341
1.22574
1.23767
1.24919
1.26026
1.27087
1.281
1.29063
1.29974
1.30831
1.31632
1.32376
1.33062
1.33687
1.34251
1.34753
1.35192
1.35568
1.35881
1.3613
1.36317
1.36441
1.36506
1.36511
1.3646
1.36354
1.36197
1.35994
1.35747
1.35461
1.35143
1.34797
1.34431
1.34051
1.33665
1.33281
1.32905
1.32547
1.32215
1.31917
1.31647
1.31398
0.0220954
0.0191658
0.0162719
0.0132799
0.0100643
0.00668706
0.00321427
-0.000298868
-0.0037968
-0.00722407
-0.0105274
-0.0136564
-0.0165644
-0.0192084
-0.0215497
-0.0235537
-0.0251898
-0.0264316
-0.0272562
-0.0276448
-0.0275817
-0.0270545
-0.0260537
-0.0245727
-0.0226071
-0.020155
-0.0172164
-0.0137933
-0.0098891
-0.0055089
-0.000658971
0.00465326
0.0104194
0.0166302
0.0232757
0.0303454
0.0378282
0.0457127
0.0539872
0.0626398
0.0716585
0.081031
0.0907453
0.100789
0.111151
0.121819
0.13278
0.144025
0.155541
0.167317
0.179344
0.19161
0.204106
0.216821
0.229747
0.242874
0.256194
0.269698
0.283379
0.297228
0.311239
0.325403
0.339715
0.354169
0.368757
0.383474
0.398315
0.413273
0.428345
0.443525
0.458808
0.47419
0.489666
0.505232
0.520885
0.536619
0.552431
0.568317
0.584273
0.600295
0.616379
0.632522
0.648718
0.664964
0.681255
0.697587
0.713956
0.730355
0.746781
0.763227
0.779687
0.796157
0.812629
0.829096
0.845551
0.861987
0.878394
0.894766
0.911091
0.927362
0.943566
0.959694
0.975734
0.991674
1.0075
1.0232
1.03876
1.05417
1.0694
1.08445
1.0993
1.11393
1.12832
1.14246
1.15632
1.16989
1.18315
1.19607
1.20864
1.22084
1.23265
1.24404
1.255
1.26551
1.27554
1.28508
1.29411
1.30261
1.31057
1.31797
1.32479
1.33103
1.33667
1.3417
1.34612
1.34992
1.3531
1.35567
1.35763
1.35898
1.35974
1.35993
1.35956
1.35866
1.35725
1.35538
1.35308
1.35038
1.34735
1.34403
1.34048
1.33676
1.33292
1.32905
1.32519
1.32143
1.31782
1.31444
1.31114
1.30775
0.0279774
0.0242362
0.0207672
0.0173733
0.0138502
0.0102498
0.00663009
0.00303414
-0.000493709
-0.00390789
-0.00716389
-0.0102192
-0.013034
-0.0155713
-0.0177972
-0.0196815
-0.0211973
-0.0223209
-0.0230321
-0.0233139
-0.0231522
-0.0225358
-0.0214561
-0.0199069
-0.0178845
-0.0153869
-0.0124144
-0.00896867
-0.00505305
-0.000672242
0.00416785
0.00946027
0.0151971
0.0213696
0.0279685
0.0349836
0.0424047
0.0502208
0.0584209
0.0669935
0.0759272
0.0852103
0.0948313
0.104779
0.115041
0.125606
0.136464
0.147602
0.159011
0.170679
0.182597
0.194754
0.20714
0.219746
0.232563
0.245581
0.258793
0.27219
0.285764
0.299507
0.313412
0.327473
0.341682
0.356034
0.370521
0.385138
0.399879
0.41474
0.429714
0.444797
0.459983
0.475269
0.49065
0.506121
0.521679
0.537318
0.553035
0.568826
0.584686
0.600612
0.616599
0.632644
0.648742
0.664888
0.681079
0.697309
0.713573
0.729868
0.746187
0.762524
0.778875
0.795232
0.81159
0.827941
0.844278
0.860594
0.876879
0.893127
0.909326
0.925469
0.941543
0.95754
0.973447
0.989252
1.00494
1.02051
1.03593
1.0512
1.0663
1.08121
1.09592
1.11041
1.12466
1.13867
1.1524
1.16584
1.17897
1.19177
1.20422
1.21631
1.22801
1.2393
1.25016
1.26058
1.27054
1.28001
1.28898
1.29743
1.30535
1.31271
1.31952
1.32575
1.33139
1.33645
1.3409
1.34475
1.34799
1.35063
1.35267
1.35412
1.35498
1.35528
1.35504
1.35426
1.35299
1.35124
1.34906
1.34648
1.34355
1.34031
1.33681
1.3331
1.32923
1.32527
1.32125
1.31724
1.31329
1.30946
1.30552
1.30124
0.033999
0.029446
0.0253854
0.0215615
0.0176953
0.013831
0.0100203
0.00629584
0.00269209
-0.000754154
-0.00400637
-0.00702925
-0.00978924
-0.012255
-0.0143975
-0.0161908
-0.0176114
-0.0186389
-0.0192554
-0.0194461
-0.0191985
-0.0185028
-0.0173515
-0.0157393
-0.0136628
-0.0111206
-0.00811311
-0.00464209
-0.000710839
0.00367611
0.0085131
0.0137935
0.0195096
0.0256534
0.0322157
0.039187
0.0465575
0.0543168
0.0624541
0.0709587
0.0798196
0.0890256
0.0985655
0.108428
0.118603
0.129078
0.139843
0.150887
0.1622
0.173771
0.185591
0.197649
0.209936
0.222442
0.235159
0.248078
0.26119
0.274488
0.287964
0.301609
0.315417
0.329381
0.343494
0.35775
0.372143
0.386666
0.401314
0.416081
0.430963
0.445954
0.46105
0.476245
0.491535
0.506915
0.522382
0.53793
0.553557
0.569256
0.585025
0.600859
0.616753
0.632705
0.648708
0.664759
0.680854
0.696986
0.713152
0.729347
0.745564
0.761799
0.778045
0.794297
0.810547
0.826789
0.843015
0.859218
0.87539
0.891522
0.907604
0.923628
0.939583
0.955458
0.971243
0.986926
1.00249
1.01793
1.03323
1.04838
1.06335
1.07814
1.09273
1.1071
1.12123
1.13512
1.14873
1.16206
1.17508
1.18778
1.20014
1.21213
1.22374
1.23495
1.24574
1.25609
1.26598
1.2754
1.28432
1.29274
1.30063
1.30798
1.31478
1.32102
1.32668
1.33176
1.33625
1.34014
1.34344
1.34615
1.34827
1.3498
1.35076
1.35116
1.35101
1.35034
1.34917
1.34752
1.34543
1.34293
1.34005
1.33684
1.33334
1.32959
1.32564
1.32153
1.3173
1.313
1.30867
1.30437
1.29978
1.29461
0.0400317
0.034678
0.030021
0.0257497
0.0215157
0.0173572
0.0133215
0.0094321
0.005715
0.00219923
-0.00108578
-0.00411126
-0.00684951
-0.00927439
-0.0113617
-0.0130892
-0.0144372
-0.0153881
-0.0159268
-0.0160405
-0.0157186
-0.0149528
-0.0137367
-0.0120659
-0.00993796
-0.00735188
-0.00430836
-0.000809474
0.00314141
0.00753978
0.0123801
0.0176558
0.0233596
0.0294836
0.0360191
0.042957
0.0502876
0.058001
0.0660871
0.0745354
0.0833352
0.0924758
0.101947
0.111737
0.121835
0.132232
0.142916
0.153878
0.165106
0.176591
0.188323
0.200292
0.21249
0.224906
0.237533
0.250362
0.263384
0.276591
0.289976
0.303531
0.31725
0.331124
0.345148
0.359316
0.37362
0.388055
0.402616
0.417296
0.432091
0.446996
0.462005
0.477114
0.492318
0.507612
0.522993
0.538455
0.553995
0.569607
0.585289
0.601035
0.616841
0.632703
0.648617
0.664577
0.68058
0.69662
0.712692
0.728792
0.744913
0.761051
0.777199
0.79335
0.809499
0.825639
0.841762
0.85786
0.873925
0.88995
0.905924
0.921839
0.937684
0.953449
0.969123
0.984693
1.00015
1.01548
1.03067
1.0457
1.06056
1.07524
1.08972
1.10399
1.11802
1.13181
1.14532
1.15856
1.17149
1.1841
1.19638
1.20829
1.21983
1.23098
1.24171
1.25201
1.26186
1.27124
1.28013
1.28853
1.29641
1.30376
1.31056
1.31682
1.3225
1.32761
1.33214
1.33609
1.33945
1.34222
1.34441
1.34602
1.34706
1.34754
1.34748
1.34689
1.3458
1.34422
1.34218
1.33972
1.33687
1.33365
1.33011
1.32628
1.3222
1.31791
1.31343
1.3088
1.30407
1.29928
1.29404
1.28799
0.0459648
0.0398289
0.0345784
0.0298512
0.0252334
0.0207592
0.0164726
0.0123899
0.00852938
0.00491352
0.00156537
-0.00149217
-0.00423676
-0.00664712
-0.00870335
-0.0103872
-0.0116823
-0.012574
-0.0130497
-0.013099
-0.0127131
-0.0118852
-0.0106102
-0.00888495
-0.00670763
-0.00407805
-0.000997352
0.00253202
0.0065065
0.0109214
0.0157712
0.0210495
0.0267491
0.0328621
0.0393802
0.0462945
0.0535957
0.0612742
0.0693201
0.0777233
0.0864736
0.0955605
0.104974
0.114703
0.124737
0.135067
0.145681
0.156571
0.167725
0.179135
0.19079
0.202681
0.214799
0.227136
0.239682
0.25243
0.26537
0.278495
0.291798
0.305272
0.318908
0.3327
0.346642
0.360728
0.37495
0.389304
0.403783
0.418382
0.433096
0.44792
0.462848
0.477875
0.492998
0.508211
0.52351
0.538891
0.554348
0.569878
0.585477
0.60114
0.616862
0.632639
0.648467
0.664342
0.680257
0.696209
0.712193
0.728203
0.744233
0.760279
0.776334
0.792392
0.808446
0.82449
0.840516
0.856517
0.872485
0.88841
0.904285
0.9201
0.935845
0.951509
0.967082
0.982553
0.997909
1.01314
1.02823
1.04316
1.05793
1.07252
1.0869
1.10108
1.11503
1.12873
1.14216
1.15532
1.16818
1.18072
1.19293
1.20479
1.21628
1.22737
1.23806
1.24833
1.25815
1.26751
1.2764
1.28479
1.29267
1.30003
1.30685
1.31313
1.31885
1.324
1.32858
1.33258
1.336
1.33883
1.34109
1.34277
1.34388
1.34444
1.34444
1.34392
1.34288
1.34135
1.33934
1.33689
1.33403
1.33077
1.32716
1.32322
1.31898
1.31447
1.30971
1.30473
1.29958
1.29429
1.28841
1.28151
0.051703
0.0448077
0.0389723
0.0337868
0.0287759
0.0239714
0.0194153
0.0151175
0.0110901
0.00734961
0.00391355
0.000799573
-0.00197486
-0.00439292
-0.00643877
-0.00809781
-0.00935687
-0.0102043
-0.0106301
-0.0106258
-0.0101847
-0.00930158
-0.00797284
-0.00619631
-0.00397123
-0.00129814
0.00182119
0.00538387
0.00938598
0.0138227
0.0186882
0.0239761
0.0296793
0.03579
0.0423
0.0492005
0.0564825
0.0641367
0.0721533
0.0805225
0.0892344
0.098279
0.107646
0.117325
0.127307
0.137581
0.148137
0.158966
0.170057
0.181402
0.192991
0.204814
0.216863
0.229129
0.241604
0.254279
0.267147
0.280199
0.293428
0.306827
0.320389
0.334107
0.347974
0.361984
0.376132
0.39041
0.404814
0.419338
0.433976
0.448724
0.463576
0.478528
0.493574
0.508711
0.523933
0.539236
0.554616
0.570069
0.585589
0.601172
0.616815
0.632512
0.648259
0.664052
0.679885
0.695754
0.711654
0.727579
0.743524
0.759484
0.775452
0.791422
0.807388
0.823343
0.839279
0.85519
0.871067
0.886902
0.902685
0.918409
0.934063
0.949636
0.965119
0.9805
0.995768
1.01091
1.02591
1.04076
1.05545
1.06995
1.08426
1.09836
1.11224
1.12587
1.13924
1.15234
1.16514
1.17763
1.18979
1.20161
1.21306
1.22413
1.23479
1.24504
1.25485
1.26421
1.27309
1.28149
1.28939
1.29677
1.30363
1.30994
1.3157
1.3209
1.32553
1.32959
1.33307
1.33597
1.3383
1.34004
1.34122
1.34184
1.3419
1.34142
1.34042
1.33892
1.33692
1.33446
1.33156
1.32824
1.32452
1.32044
1.31601
1.31126
1.30621
1.30087
1.29529
1.2895
1.28298
1.27527
0.0571635
0.0495339
0.0431258
0.0374843
0.0320764
0.0269327
0.0220941
0.0175653
0.0133529
0.0094685
0.00592468
0.00273446
-8.91272e-05
-0.00253332
-0.00458605
-0.00623614
-0.0074735
-0.00828929
-0.00867594
-0.00862724
-0.00813833
-0.00720571
-0.00582717
-0.00400179
-0.00172983
0.000987309
0.00414716
0.00774628
0.0117803
0.0162441
0.0211316
0.0264363
0.032151
0.038268
0.0447789
0.0516753
0.0589482
0.0665884
0.0745865
0.0829327
0.0916174
0.100631
0.109963
0.119604
0.129544
0.139774
0.150282
0.161061
0.1721
0.183391
0.194923
0.206689
0.218679
0.230884
0.243297
0.255909
0.268713
0.2817
0.294864
0.308197
0.321692
0.335342
0.349142
0.363084
0.377163
0.391373
0.405707
0.420162
0.43473
0.449408
0.46419
0.47907
0.494046
0.509111
0.524261
0.539492
0.554799
0.570177
0.585624
0.601133
0.6167
0.632321
0.647992
0.663708
0.679463
0.695254
0.711075
0.726921
0.742786
0.758664
0.774551
0.790439
0.806323
0.822195
0.838049
0.853877
0.869671
0.885422
0.901123
0.916764
0.932336
0.947829
0.963232
0.978533
0.993723
1.00879
1.02372
1.0385
1.05311
1.06755
1.08179
1.09583
1.10965
1.12323
1.13655
1.1496
1.16236
1.17482
1.18695
1.19874
1.21017
1.22122
1.23188
1.24213
1.25194
1.26131
1.27021
1.27864
1.28656
1.29398
1.30088
1.30724
1.31305
1.31831
1.323
1.32712
1.33066
1.33363
1.33602
1.33783
1.33907
1.33974
1.33985
1.33941
1.33844
1.33694
1.33494
1.33244
1.32948
1.32607
1.32224
1.31799
1.31336
1.30835
1.30299
1.29728
1.29126
1.28498
1.27785
1.26934
0.0622741
0.0539361
0.04697
0.040878
0.0350733
0.0295858
0.0244564
0.0196853
0.0152747
0.0112316
0.00756455
0.00428234
0.00139408
-0.00109121
-0.00316491
-0.00481903
-0.00604644
-0.00684093
-0.00719734
-0.00711159
-0.00658074
-0.00560296
-0.00417751
-0.00230473
1.40252e-05
0.00277643
0.00597923
0.00961835
0.0136889
0.0181853
0.0231013
0.0284301
0.0341643
0.0402961
0.0468172
0.0537192
0.060993
0.0686296
0.0766197
0.0849539
0.0936224
0.102616
0.111924
0.121538
0.131448
0.141644
0.152116
0.162856
0.173854
0.185101
0.196587
0.208305
0.220245
0.2324
0.24476
0.257318
0.270067
0.282998
0.296104
0.309379
0.322815
0.336406
0.350145
0.364026
0.378043
0.39219
0.406462
0.420853
0.435357
0.449971
0.464687
0.479502
0.494412
0.50941
0.524493
0.539656
0.554895
0.570205
0.585581
0.60102
0.616517
0.632067
0.647666
0.663309
0.678992
0.694709
0.710456
0.726227
0.742017
0.75782
0.773631
0.789444
0.805251
0.821047
0.836825
0.852576
0.868294
0.883971
0.899597
0.915164
0.930663
0.946083
0.961416
0.976648
0.991771
1.00677
1.02164
1.03635
1.05091
1.06529
1.07949
1.09348
1.10725
1.12079
1.13408
1.1471
1.15983
1.17227
1.18439
1.19617
1.2076
1.21865
1.22932
1.23958
1.24941
1.25881
1.26774
1.27621
1.28418
1.29164
1.29859
1.30501
1.31089
1.31621
1.32097
1.32516
1.32877
1.33181
1.33426
1.33614
1.33743
1.33815
1.3383
1.33789
1.33693
1.33543
1.3334
1.33086
1.32783
1.32432
1.32034
1.31592
1.31106
1.30579
1.30011
1.29402
1.28757
1.28081
1.27307
1.26382
0.0669711
0.0579509
0.0504425
0.0439081
0.0377096
0.0318773
0.0264525
0.0214318
0.0168135
0.012601
0.00879904
0.00541273
0.00244768
-9.04646e-05
-0.00219627
-0.00386474
-0.00509148
-0.00587281
-0.00620589
-0.00608872
-0.00552024
-0.00450028
-0.0030296
-0.00110983
0.00125653
0.00406617
0.00731501
0.0109982
0.0151104
0.0196455
0.0245967
0.0299571
0.0357189
0.0418743
0.0484149
0.055332
0.0626169
0.0702603
0.0782531
0.086586
0.0952493
0.104234
0.11353
0.123127
0.133018
0.143191
0.153638
0.16435
0.175317
0.186531
0.197982
0.209662
0.221562
0.233675
0.245992
0.258506
0.271208
0.284091
0.297149
0.310374
0.323758
0.337297
0.350983
0.36481
0.378772
0.392863
0.407078
0.421411
0.435858
0.450412
0.465069
0.479824
0.494672
0.509608
0.524629
0.539729
0.554904
0.57015
0.585461
0.600835
0.616265
0.631749
0.647281
0.662856
0.67847
0.694118
0.709796
0.725497
0.741218
0.756951
0.772692
0.788434
0.804171
0.819897
0.835605
0.851287
0.866937
0.882545
0.898104
0.913606
0.92904
0.944397
0.959668
0.974842
0.989907
1.00485
1.01967
1.03434
1.04885
1.06319
1.07734
1.0913
1.10504
1.11856
1.13182
1.14483
1.15755
1.16998
1.1821
1.19389
1.20533
1.2164
1.2271
1.23739
1.24726
1.25669
1.26568
1.27419
1.28222
1.28975
1.29676
1.30325
1.3092
1.31459
1.31943
1.3237
1.32739
1.33049
1.33302
1.33495
1.33631
1.33707
1.33726
1.33687
1.33592
1.3344
1.33234
1.32975
1.32663
1.323
1.31887
1.31426
1.30917
1.30362
1.29762
1.29115
1.28428
1.27704
1.26873
1.25875
0.0711982
0.0615211
0.0534869
0.0465196
0.0399326
0.0337571
0.0280354
0.022761
0.017929
0.0135397
0.00959432
0.00609501
0.00304414
0.000444278
-0.00170206
-0.00339265
-0.00462568
-0.00539987
-0.00571458
-0.00556986
-0.00496648
-0.00390592
-0.00239044
-0.000422999
0.00199274
0.00485245
0.00815115
0.0118833
0.0160427
0.0206228
0.0256165
0.0310162
0.0368142
0.0430021
0.0495716
0.0565138
0.0638198
0.0714806
0.0794868
0.0878292
0.0964984
0.105485
0.114779
0.124372
0.134254
0.144416
0.154849
0.165543
0.17649
0.187681
0.199107
0.210759
0.22263
0.234711
0.246994
0.259472
0.272136
0.284981
0.297998
0.31118
0.324521
0.338015
0.351655
0.365434
0.379348
0.39339
0.407555
0.421836
0.43623
0.450731
0.465334
0.480034
0.494826
0.509706
0.524669
0.539711
0.554827
0.570013
0.585264
0.600577
0.615946
0.631367
0.646836
0.662348
0.677898
0.693483
0.709096
0.724732
0.740388
0.756056
0.771732
0.787409
0.803082
0.818744
0.834389
0.850008
0.865596
0.881144
0.896643
0.912087
0.927465
0.942768
0.957987
0.97311
0.988128
1.00303
1.0178
1.03243
1.04691
1.06122
1.07535
1.08929
1.10301
1.11651
1.12977
1.14278
1.15551
1.16795
1.18008
1.19189
1.20336
1.21447
1.2252
1.23554
1.24546
1.25495
1.264
1.27258
1.28068
1.28829
1.29538
1.30195
1.30798
1.31346
1.31838
1.32273
1.3265
1.32969
1.33229
1.33429
1.3357
1.33651
1.33673
1.33636
1.33541
1.33388
1.33178
1.32912
1.3259
1.32215
1.31786
1.31305
1.30773
1.3019
1.29557
1.28873
1.28144
1.27374
1.26487
1.2542
0.0749051
0.0645954
0.0560519
0.048662
0.0416934
0.0351784
0.0291605
0.023631
0.0185821
0.0140112
0.00991697
0.00629861
0.00315563
0.000487831
-0.00170496
-0.00342307
-0.00466713
-0.00543813
-0.00573756
-0.00556743
-0.00493029
-0.00382928
-0.00226814
-0.000251161
0.00221679
0.00513033
0.00848353
0.01227
0.0164829
0.0211151
0.0261589
0.0316063
0.0374492
0.043679
0.050287
0.0572644
0.064602
0.0722907
0.0803212
0.0886842
0.0973703
0.10637
0.115674
0.125273
0.135158
0.14532
0.155749
0.166437
0.177374
0.188552
0.199963
0.211598
0.223448
0.235507
0.247766
0.260217
0.272853
0.285666
0.298651
0.311799
0.325105
0.338561
0.352162
0.365901
0.379773
0.393772
0.407893
0.422129
0.436477
0.45093
0.465484
0.480134
0.494876
0.509704
0.524615
0.539603
0.554665
0.569795
0.584991
0.600247
0.615558
0.630922
0.646332
0.661785
0.677277
0.692801
0.708355
0.723932
0.739527
0.755135
0.770752
0.78637
0.801984
0.817588
0.833175
0.848738
0.864271
0.879765
0.895212
0.910605
0.925935
0.941192
0.956367
0.97145
0.986431
1.0013
1.01604
1.03064
1.0451
1.05939
1.07351
1.08743
1.10116
1.11466
1.12793
1.14094
1.15369
1.16616
1.17832
1.19017
1.20168
1.21284
1.22362
1.23402
1.24401
1.25358
1.2627
1.27136
1.27955
1.28725
1.29443
1.3011
1.30723
1.3128
1.31782
1.32226
1.32612
1.32939
1.33207
1.33414
1.33561
1.33647
1.33673
1.33638
1.33542
1.33387
1.33173
1.32899
1.32568
1.3218
1.31735
1.31234
1.30678
1.30067
1.29401
1.28681
1.27911
1.27095
1.26154
1.25021
0.0780462
0.0671269
0.0580901
0.0502887
0.0429463
0.0360968
0.0297856
0.0240016
0.0187347
0.0139801
0.00973403
0.00599305
0.00275415
1.46149e-05
-0.00222821
-0.00397704
-0.00523477
-0.00600458
-0.00628996
-0.00609483
-0.0054235
-0.00428073
-0.00267172
-0.000602131
0.00192197
0.00489409
0.00830735
0.0121545
0.0164279
0.0211198
0.0262219
0.0317258
0.0376228
0.0439042
0.0505608
0.0575837
0.0649636
0.0726911
0.0807568
0.0891515
0.0978657
0.10689
0.116215
0.125832
0.135731
0.145903
0.156339
0.167031
0.177969
0.189146
0.200552
0.212179
0.224019
0.236065
0.248308
0.260742
0.273358
0.286149
0.29911
0.312232
0.325509
0.338936
0.352505
0.366211
0.380048
0.394011
0.408093
0.42229
0.436597
0.451008
0.465519
0.480125
0.494821
0.509602
0.524465
0.539405
0.554417
0.569497
0.584641
0.599845
0.615104
0.630414
0.64577
0.661169
0.676606
0.692075
0.707573
0.723095
0.738635
0.754189
0.769751
0.785315
0.800876
0.816427
0.831963
0.847476
0.86296
0.878407
0.893809
0.909159
0.924448
0.939668
0.954808
0.969859
0.984811
0.999653
1.01437
1.02896
1.0434
1.05769
1.0718
1.08573
1.09946
1.11298
1.12627
1.13931
1.15209
1.1646
1.17681
1.18871
1.20028
1.2115
1.22236
1.23283
1.2429
1.25256
1.26177
1.27054
1.27882
1.28662
1.29392
1.30069
1.30693
1.31261
1.31773
1.32228
1.32624
1.32961
1.33237
1.33452
1.33605
1.33697
1.33726
1.33693
1.33597
1.3344
1.33221
1.32941
1.32599
1.32197
1.31736
1.31215
1.30635
1.29996
1.29299
1.28542
1.27732
1.26872
1.25879
1.24682
0.0805801
0.0690726
0.0595582
0.0513561
0.0436485
0.0364708
0.0298702
0.023834
0.0183502
0.0134118
0.00901301
0.00514805
0.00181165
-0.00100124
-0.00329554
-0.0050762
-0.00634826
-0.00711694
-0.00738772
-0.00716631
-0.00645876
-0.00527143
-0.003611
-0.00148445
0.00110089
0.00413743
0.00761728
0.0115323
0.015874
0.020634
0.0258033
0.031373
0.037334
0.043677
0.0503928
0.057472
0.064905
0.0726824
0.0807947
0.0892324
0.0979862
0.107046
0.116404
0.126049
0.135974
0.146168
0.156622
0.167329
0.178279
0.189464
0.200875
0.212505
0.224345
0.236387
0.248624
0.261049
0.273654
0.286432
0.299376
0.31248
0.325737
0.339141
0.352686
0.366365
0.380174
0.394107
0.408158
0.422322
0.436593
0.450968
0.465441
0.480008
0.494663
0.509403
0.524223
0.539119
0.554086
0.56912
0.584217
0.599373
0.614583
0.629844
0.645151
0.6605
0.675886
0.691305
0.706752
0.722223
0.737713
0.753217
0.768729
0.784244
0.799757
0.815262
0.830751
0.84622
0.861662
0.877068
0.892432
0.907746
0.923002
0.938191
0.953304
0.968332
0.983264
0.998091
1.0128
1.02738
1.04182
1.05611
1.07024
1.08418
1.09793
1.11148
1.1248
1.13788
1.15071
1.16327
1.17554
1.1875
1.19915
1.21045
1.22139
1.23196
1.24213
1.25189
1.26121
1.27009
1.27849
1.28641
1.29383
1.30072
1.30708
1.31289
1.31813
1.32279
1.32686
1.33033
1.33319
1.33542
1.33703
1.338
1.33833
1.33803
1.33708
1.33548
1.33325
1.33037
1.32686
1.32271
1.31793
1.31252
1.30648
1.29982
1.29253
1.28461
1.27612
1.2671
1.25666
1.24408
0.0824686
0.0703927
0.0604153
0.0518235
0.0437594
0.0362604
0.0293757
0.0230911
0.0173928
0.0122724
0.00772183
0.00373351
0.000300006
-0.00258583
-0.00493106
-0.00674269
-0.00802781
-0.00879362
-0.00904745
-0.00879682
-0.00804945
-0.00681327
-0.00509643
-0.00290727
-0.000254358
0.00285356
0.00640757
0.0103986
0.0148173
0.0196545
0.0249007
0.0305462
0.0365815
0.042997
0.0497828
0.0569294