/*--------------------------------*- C++ -*----------------------------------*\
  =========                 |
  \\      /  F ield         | OpenFOAM: The Open Source CFD Toolbox
   \\    /   O peration     | Website:  https://openfoam.org
    \\  /    A nd           | Version:  7
     \\/     M anipulation  |
\*---------------------------------------------------------------------------*/
FoamFile
{
    version     2.0;
    format      ascii;
    class       surfaceScalarField;
    location    "0.225";
    object      phi;
}
// * * * * * * * * * * * * * * * * * * * * * * * * * * * * * * * * * * * * * //

dimensions      [0 3 -1 0 0 0 0];

internalField   nonuniform List<scalar> 
25360
(
1.14179e-10
-1.14431e-10
3.59458e-10
-2.45279e-10
6.04057e-10
-2.44598e-10
7.64891e-10
-1.60832e-10
7.97844e-10
-3.29505e-11
6.81118e-10
1.16728e-10
4.06088e-10
2.75033e-10
-2.79149e-11
4.34005e-10
-6.16757e-10
5.88845e-10
-1.35342e-09
7.36662e-10
-2.22913e-09
8.75715e-10
-3.23412e-09
1.005e-09
-4.3581e-09
1.12398e-09
-5.59053e-09
1.23244e-09
-6.9209e-09
1.33038e-09
-8.33885e-09
1.41795e-09
-9.83427e-09
1.49542e-09
-1.13974e-08
1.56311e-09
-1.30188e-08
1.62142e-09
-1.46896e-08
1.67077e-09
-1.64012e-08
1.71161e-09
-1.81456e-08
1.7444e-09
-1.99152e-08
1.76961e-09
-2.17029e-08
1.78773e-09
-2.35021e-08
1.79923e-09
-2.53067e-08
1.80457e-09
-2.71109e-08
1.80421e-09
-2.89095e-08
1.79861e-09
-3.06977e-08
1.7882e-09
-3.24711e-08
1.77341e-09
-3.42258e-08
1.75464e-09
-3.59581e-08
1.73229e-09
-3.76648e-08
1.70672e-09
-3.93431e-08
1.6783e-09
-4.09905e-08
1.64737e-09
-4.26047e-08
1.61423e-09
-4.41839e-08
1.5792e-09
-4.57265e-08
1.54256e-09
-4.7231e-08
1.50458e-09
-4.86965e-08
1.46549e-09
-5.01221e-08
1.42553e-09
-5.1507e-08
1.38492e-09
-5.28508e-08
1.34384e-09
-5.41533e-08
1.30248e-09
-5.54143e-08
1.26099e-09
-5.66338e-08
1.21953e-09
-5.7812e-08
1.17823e-09
-5.89493e-08
1.13722e-09
-6.00458e-08
1.09658e-09
-6.11023e-08
1.05642e-09
-6.21191e-08
1.01682e-09
-6.30969e-08
9.77851e-10
-6.40365e-08
9.39564e-10
-6.49385e-08
9.02012e-10
-6.58037e-08
8.65231e-10
-6.6633e-08
8.29252e-10
-6.74271e-08
7.94095e-10
-6.81869e-08
7.59772e-10
-6.89132e-08
7.26288e-10
-6.96068e-08
6.93642e-10
-7.02686e-08
6.61824e-10
-7.08994e-08
6.3082e-10
-7.15001e-08
6.0061e-10
-7.20712e-08
5.71166e-10
-7.26137e-08
5.42459e-10
-7.31281e-08
5.14453e-10
-7.36153e-08
4.87109e-10
-7.40756e-08
4.60383e-10
-7.45099e-08
4.34228e-10
-7.49185e-08
4.08592e-10
-7.53019e-08
3.83423e-10
-7.56606e-08
3.58663e-10
-7.59948e-08
3.34254e-10
-7.63049e-08
3.10133e-10
-7.65912e-08
2.86238e-10
-7.68537e-08
2.62502e-10
-7.70925e-08
2.38858e-10
-7.73078e-08
2.15235e-10
-7.74993e-08
1.91564e-10
-7.76671e-08
1.67773e-10
-7.78109e-08
1.43788e-10
-7.79304e-08
1.19537e-10
-7.80254e-08
9.49453e-11
-7.80953e-08
6.99398e-11
-7.81398e-08
4.44453e-11
-7.81582e-08
1.83873e-11
-7.81499e-08
-8.30851e-12
-7.81141e-08
-3.57152e-11
-7.80502e-08
-6.39045e-11
-7.79573e-08
-9.29468e-11
-7.78344e-08
-1.22911e-10
-7.76805e-08
-1.53863e-10
-7.74946e-08
-1.85868e-10
-7.72757e-08
-2.18986e-10
-7.70224e-08
-2.53276e-10
-7.67336e-08
-2.88791e-10
-7.6408e-08
-3.25579e-10
-7.60443e-08
-3.63685e-10
-7.56412e-08
-4.03147e-10
-7.51972e-08
-4.43996e-10
-7.47109e-08
-4.86256e-10
-7.4181e-08
-5.29945e-10
-7.36059e-08
-5.75069e-10
-7.29843e-08
-6.21629e-10
-7.23147e-08
-6.69612e-10
-7.15957e-08
-7.18995e-10
-7.08259e-08
-7.69744e-10
-7.00041e-08
-8.21812e-10
-6.9129e-08
-8.75138e-10
-6.81993e-08
-9.29646e-10
-6.72141e-08
-9.85246e-10
-6.61722e-08
-1.04183e-09
-6.5073e-08
-1.09928e-09
-6.39155e-08
-1.15744e-09
-6.26994e-08
-1.21617e-09
-6.14241e-08
-1.27527e-09
-6.00895e-08
-1.33455e-09
-5.86957e-08
-1.3938e-09
-5.7243e-08
-1.45276e-09
-5.57318e-08
-1.51118e-09
-5.4163e-08
-1.56878e-09
-5.25378e-08
-1.62525e-09
-5.08575e-08
-1.68026e-09
-4.9124e-08
-1.73347e-09
-4.73395e-08
-1.78451e-09
-4.55065e-08
-1.83299e-09
-4.3628e-08
-1.87851e-09
-4.17074e-08
-1.92064e-09
-3.97485e-08
-1.95893e-09
-3.77555e-08
-1.99292e-09
-3.57334e-08
-2.02215e-09
-3.36873e-08
-2.04613e-09
-3.16229e-08
-2.06435e-09
-2.95466e-08
-2.07632e-09
-2.74651e-08
-2.08152e-09
-2.53856e-08
-2.07943e-09
-2.33161e-08
-2.06955e-09
-2.12647e-08
-2.05136e-09
-1.92404e-08
-2.02434e-09
-1.72524e-08
-1.98802e-09
-1.53105e-08
-1.9419e-09
-1.3425e-08
-1.88552e-09
-1.16065e-08
-1.81847e-09
-9.86617e-09
-1.74033e-09
-8.2154e-09
-1.65077e-09
-6.66591e-09
-1.5495e-09
-5.22959e-09
-1.43632e-09
-3.91845e-09
-1.31114e-09
-2.74439e-09
-1.17406e-09
-1.71902e-09
-1.02537e-09
-8.53321e-10
-8.65703e-10
-1.57112e-10
-6.96207e-10
3.6169e-10
-5.18799e-10
6.98335e-10
-3.36646e-10
8.53311e-10
-1.54987e-10
8.35844e-10
1.74479e-11
6.69745e-10
1.66088e-10
4.03771e-10
2.65994e-10
1.30722e-10
2.73102e-10
1.30766e-10
2.45344e-10
-3.59775e-10
6.33837e-10
-6.33767e-10
9.49797e-10
-5.60554e-10
1.04651e-09
-2.57542e-10
8.28148e-10
1.85416e-10
2.38231e-10
7.06649e-10
-7.51602e-10
1.26487e-09
-2.15037e-09
1.83278e-09
-3.95395e-09
2.39243e-09
-6.14937e-09
2.93208e-09
-8.71774e-09
3.44409e-09
-1.16364e-08
3.92364e-09
-1.48802e-08
4.3678e-09
-1.84228e-08
4.77501e-09
-2.2237e-08
5.14462e-09
-2.62958e-08
5.47672e-09
-3.05722e-08
5.77185e-09
-3.504e-08
6.03093e-09
-3.96737e-08
6.25516e-09
-4.44489e-08
6.4459e-09
-4.93419e-08
6.60466e-09
-5.43306e-08
6.73307e-09
-5.93937e-08
6.83277e-09
-6.45115e-08
6.90549e-09
-6.96652e-08
6.95292e-09
-7.48374e-08
6.97679e-09
-8.0012e-08
6.97878e-09
-8.51739e-08
6.96058e-09
-9.03095e-08
6.9238e-09
-9.54061e-08
6.87004e-09
-1.00452e-07
6.80082e-09
-1.05438e-07
6.71763e-09
-1.10353e-07
6.62189e-09
-1.15189e-07
6.51494e-09
-1.1994e-07
6.39808e-09
-1.24598e-07
6.27254e-09
-1.29159e-07
6.13947e-09
-1.33616e-07
5.99995e-09
-1.37967e-07
5.85501e-09
-1.42207e-07
5.7056e-09
-1.46334e-07
5.55261e-09
-1.50346e-07
5.39686e-09
-1.54241e-07
5.2391e-09
-1.58019e-07
5.08005e-09
-1.61678e-07
4.92032e-09
-1.65219e-07
4.7605e-09
-1.68642e-07
4.60111e-09
-1.71947e-07
4.44261e-09
-1.75136e-07
4.28544e-09
-1.78209e-07
4.12994e-09
-1.81169e-07
3.97645e-09
-1.84016e-07
3.82524e-09
-1.86753e-07
3.67654e-09
-1.89382e-07
3.53054e-09
-1.91904e-07
3.38741e-09
-1.94322e-07
3.24726e-09
-1.96638e-07
3.11018e-09
-1.98855e-07
2.97622e-09
-2.00974e-07
2.84542e-09
-2.02998e-07
2.71776e-09
-2.04929e-07
2.59322e-09
-2.0677e-07
2.47176e-09
-2.08523e-07
2.35329e-09
-2.1019e-07
2.23772e-09
-2.11772e-07
2.12494e-09
-2.13272e-07
2.01482e-09
-2.14693e-07
1.9072e-09
-2.16034e-07
1.80192e-09
-2.17299e-07
1.69881e-09
-2.18488e-07
1.59767e-09
-2.19603e-07
1.49829e-09
-2.20644e-07
1.40046e-09
-2.21614e-07
1.30395e-09
-2.22512e-07
1.20854e-09
-2.2334e-07
1.11397e-09
-2.24098e-07
1.01999e-09
-2.24785e-07
9.26344e-10
-2.25403e-07
8.3277e-10
-2.2595e-07
7.38995e-10
-2.26427e-07
6.44746e-10
-2.26833e-07
5.49744e-10
-2.27167e-07
4.53707e-10
-2.27429e-07
3.56354e-10
-2.27616e-07
2.574e-10
-2.27728e-07
1.56562e-10
-2.27763e-07
5.35565e-11
-2.2772e-07
-5.18966e-11
-2.27595e-07
-1.60075e-10
-2.27388e-07
-2.71253e-10
-2.27095e-07
-3.85698e-10
-2.26715e-07
-5.03668e-10
-2.26243e-07
-6.25416e-10
-2.25678e-07
-7.51183e-10
-2.25016e-07
-8.81197e-10
-2.24253e-07
-1.01567e-09
-2.23387e-07
-1.15481e-09
-2.22414e-07
-1.29879e-09
-2.2133e-07
-1.44777e-09
-2.20131e-07
-1.60189e-09
-2.18814e-07
-1.76127e-09
-2.17374e-07
-1.92598e-09
-2.15808e-07
-2.09608e-09
-2.14111e-07
-2.27159e-09
-2.12281e-07
-2.45249e-09
-2.10311e-07
-2.63874e-09
-2.082e-07
-2.83022e-09
-2.05943e-07
-3.0268e-09
-2.03537e-07
-3.22828e-09
-2.00977e-07
-3.43443e-09
-1.98262e-07
-3.64492e-09
-1.95388e-07
-3.85941e-09
-1.92352e-07
-4.07748e-09
-1.89153e-07
-4.29863e-09
-1.85788e-07
-4.52232e-09
-1.82256e-07
-4.74791e-09
-1.78557e-07
-4.97471e-09
-1.74689e-07
-5.20194e-09
-1.70655e-07
-5.42877e-09
-1.66453e-07
-5.65425e-09
-1.62087e-07
-5.87737e-09
-1.57559e-07
-6.09706e-09
-1.52872e-07
-6.31214e-09
-1.48031e-07
-6.52136e-09
-1.43041e-07
-6.7234e-09
-1.37908e-07
-6.91685e-09
-1.32641e-07
-7.10024e-09
-1.27248e-07
-7.27201e-09
-1.21738e-07
-7.43055e-09
-1.16122e-07
-7.57418e-09
-1.10414e-07
-7.70116e-09
-1.04627e-07
-7.80972e-09
-9.87747e-08
-7.89801e-09
-9.28749e-08
-7.96418e-09
-8.69449e-08
-8.00634e-09
-8.10038e-08
-8.02259e-09
-7.50722e-08
-8.01102e-09
-6.9172e-08
-7.96974e-09
-6.33265e-08
-7.89687e-09
-5.75603e-08
-7.79058e-09
-5.18992e-08
-7.6491e-09
-4.63703e-08
-7.47075e-09
-4.10019e-08
-7.25394e-09
-3.58231e-08
-6.99724e-09
-3.08641e-08
-6.69939e-09
-2.61555e-08
-6.35938e-09
-2.17285e-08
-5.97649e-09
-1.76144e-08
-5.55042e-09
-1.38441e-08
-5.08141e-09
-1.04478e-08
-4.57044e-09
-7.45364e-09
-4.01948e-09
-4.88737e-09
-3.43197e-09
-2.77022e-09
-2.81336e-09
-1.11689e-09
-2.17213e-09
6.77238e-11
-1.52125e-09
7.93249e-10
-8.80488e-10
1.09073e-09
-2.80021e-10
1.02253e-09
2.34256e-10
6.95201e-10
5.93249e-10
2.73037e-10
6.95193e-10
4.03848e-10
2.45752e-10
-6.05526e-10
5.63358e-10
-9.51368e-10
6.97662e-10
-6.94854e-10
4.74687e-10
-3.45635e-11
-2.25248e-10
8.85355e-10
-1.47802e-09
1.95942e-09
-3.32549e-09
3.11235e-09
-5.78421e-09
4.2915e-09
-8.85218e-09
5.46041e-09
-1.25141e-08
6.59398e-09
-1.67451e-08
7.67515e-09
-2.1514e-08
8.69254e-09
-2.67851e-08
9.63889e-09
-3.25199e-08
1.05098e-08
-3.86785e-08
1.13032e-08
-4.52203e-08
1.20185e-08
-5.21045e-08
1.26561e-08
-5.92912e-08
1.32176e-08
-6.67412e-08
1.37051e-08
-7.44166e-08
1.41213e-08
-8.22808e-08
1.44689e-08
-9.02992e-08
1.47514e-08
-9.84384e-08
1.4972e-08
-1.06667e-07
1.51343e-08
-1.14956e-07
1.52419e-08
-1.23278e-07
1.52982e-08
-1.31606e-07
1.5307e-08
-1.39917e-07
1.52717e-08
-1.48189e-07
1.51958e-08
-1.56402e-07
1.50827e-08
-1.64537e-07
1.49357e-08
-1.72577e-07
1.4758e-08
-1.80508e-07
1.45525e-08
-1.88315e-07
1.43223e-08
-1.95987e-07
1.40702e-08
-2.03513e-07
1.37987e-08
-2.10884e-07
1.35105e-08
-2.18092e-07
1.32078e-08
-2.2513e-07
1.2893e-08
-2.31993e-07
1.2568e-08
-2.38675e-07
1.22349e-08
-2.45173e-07
1.18954e-08
-2.51486e-07
1.15512e-08
-2.57609e-07
1.12038e-08
-2.63544e-07
1.08547e-08
-2.69288e-07
1.0505e-08
-2.74843e-07
1.01561e-08
-2.80209e-07
9.80877e-09
-2.85388e-07
9.46412e-09
-2.90381e-07
9.12289e-09
-2.9519e-07
8.78582e-09
-2.99819e-07
8.45352e-09
-3.04269e-07
8.12651e-09
-3.08543e-07
7.80523e-09
-3.12646e-07
7.49002e-09
-3.1658e-07
7.18118e-09
-3.20348e-07
6.87889e-09
-3.23956e-07
6.58329e-09
-3.27405e-07
6.29445e-09
-3.30699e-07
6.01237e-09
-3.33843e-07
5.737e-09
-3.36839e-07
5.46825e-09
-3.39692e-07
5.20594e-09
-3.42404e-07
4.9499e-09
-3.44979e-07
4.69986e-09
-3.4742e-07
4.45556e-09
-3.49729e-07
4.21667e-09
-3.5191e-07
3.98283e-09
-3.53965e-07
3.75366e-09
-3.55896e-07
3.52874e-09
-3.57706e-07
3.30764e-09
-3.59395e-07
3.08988e-09
-3.60966e-07
2.87497e-09
-3.6242e-07
2.66241e-09
-3.63758e-07
2.45166e-09
-3.6498e-07
2.24217e-09
-3.66087e-07
2.03339e-09
-3.67079e-07
1.82474e-09
-3.67955e-07
1.61563e-09
-3.68716e-07
1.40546e-09
-3.6936e-07
1.19364e-09
-3.69886e-07
9.79546e-10
-3.70292e-07
7.6257e-10
-3.70577e-07
5.42097e-10
-3.70738e-07
3.17509e-10
-3.70772e-07
8.81953e-11
-3.70678e-07
-1.46453e-10
-3.70451e-07
-3.87036e-10
-3.70088e-07
-6.34144e-10
-3.69585e-07
-8.88353e-10
-3.68939e-07
-1.15022e-09
-3.68144e-07
-1.4203e-09
-3.67196e-07
-1.69909e-09
-3.6609e-07
-1.98709e-09
-3.64821e-07
-2.28476e-09
-3.63383e-07
-2.59252e-09
-3.61771e-07
-2.91076e-09
-3.59979e-07
-3.2398e-09
-3.58001e-07
-3.57995e-09
-3.55831e-07
-3.93142e-09
-3.53463e-07
-4.29439e-09
-3.5089e-07
-4.66895e-09
-3.48106e-07
-5.05515e-09
-3.45106e-07
-5.45293e-09
-3.41882e-07
-5.86214e-09
-3.3843e-07
-6.28256e-09
-3.34743e-07
-6.71386e-09
-3.30816e-07
-7.15559e-09
-3.26643e-07
-7.6072e-09
-3.2222e-07
-8.06803e-09
-3.17542e-07
-8.53726e-09
-3.12605e-07
-9.01396e-09
-3.07407e-07
-9.49705e-09
-3.01944e-07
-9.98531e-09
-2.96215e-07
-1.04774e-08
-2.90218e-07
-1.09717e-08
-2.83953e-07
-1.14666e-08
-2.77422e-07
-1.19601e-08
-2.70626e-07
-1.24504e-08
-2.63568e-07
-1.29351e-08
-2.56253e-07
-1.34119e-08
-2.48687e-07
-1.38783e-08
-2.40877e-07
-1.43315e-08
-2.32831e-07
-1.47687e-08
-2.24561e-07
-1.51868e-08
-2.16079e-07
-1.55826e-08
-2.07398e-07
-1.59528e-08
-1.98535e-07
-1.62938e-08
-1.89507e-07
-1.66021e-08
-1.80334e-07
-1.6874e-08
-1.71038e-07
-1.71055e-08
-1.61644e-07
-1.72928e-08
-1.52176e-07
-1.74319e-08
-1.42664e-07
-1.75187e-08
-1.33137e-07
-1.75493e-08
-1.23628e-07
-1.75195e-08
-1.14173e-07
-1.74254e-08
-1.04806e-07
-1.72632e-08
-9.55681e-08
-1.70288e-08
-8.64984e-08
-1.67189e-08
-7.76394e-08
-1.63298e-08
-6.90348e-08
-1.58585e-08
-6.073e-08
-1.53021e-08
-5.2771e-08
-1.46584e-08
-4.52047e-08
-1.39256e-08
-3.80784e-08
-1.31028e-08
-3.14389e-08
-1.21899e-08
-2.53321e-08
-1.11882e-08
-1.98017e-08
-1.01008e-08
-1.48881e-08
-8.93303e-09
-1.06268e-08
-7.69327e-09
-7.04576e-09
-6.39445e-09
-4.16229e-09
-5.05562e-09
-1.97897e-09
-3.70457e-09
-4.77768e-10
-2.38168e-09
3.8753e-10
-1.14528e-09
7.01037e-10
-7.92204e-11
5.95981e-10
6.98292e-10
2.66832e-10
1.02428e-09
6.70694e-10
1.63732e-10
-7.69257e-10
2.64693e-10
-1.05233e-09
4.41795e-11
-4.74336e-10
-6.7816e-10
6.8778e-10
-2.02907e-09
2.23627e-09
-4.09177e-09
4.02212e-09
-6.91434e-09
5.93493e-09
-1.05173e-08
7.89448e-09
-1.49e-08
9.84306e-09
-2.00455e-08
1.17395e-08
-2.59251e-08
1.35548e-08
-3.25015e-08
1.52689e-08
-3.97311e-08
1.68685e-08
-4.75664e-08
1.83452e-08
-5.59573e-08
1.96941e-08
-6.48522e-08
2.09134e-08
-7.41992e-08
2.20032e-08
-8.39469e-08
2.29653e-08
-9.40445e-08
2.38027e-08
-1.04443e-07
2.45194e-08
-1.15094e-07
2.51199e-08
-1.25952e-07
2.56094e-08
-1.36973e-07
2.59934e-08
-1.48116e-07
2.62775e-08
-1.59342e-07
2.64678e-08
-1.70614e-07
2.65701e-08
-1.81897e-07
2.65904e-08
-1.9316e-07
2.65348e-08
-2.04373e-07
2.64089e-08
-2.15509e-07
2.62187e-08
-2.26543e-07
2.59696e-08
-2.37452e-07
2.56671e-08
-2.48216e-07
2.53164e-08
-2.58816e-07
2.49225e-08
-2.69236e-07
2.44902e-08
-2.79462e-07
2.40241e-08
-2.8948e-07
2.35285e-08
-2.99279e-07
2.30074e-08
-3.08851e-07
2.24648e-08
-3.18187e-07
2.19043e-08
-3.27282e-07
2.13291e-08
-3.36129e-07
2.07425e-08
-3.44725e-07
2.01472e-08
-3.53067e-07
1.9546e-08
-3.61154e-07
1.89414e-08
-3.68984e-07
1.83354e-08
-3.76558e-07
1.77302e-08
-3.83877e-07
1.71276e-08
-3.90942e-07
1.65291e-08
-3.97756e-07
1.59363e-08
-4.0432e-07
1.53503e-08
-4.10639e-07
1.47722e-08
-4.16715e-07
1.4203e-08
-4.22554e-07
1.36435e-08
-4.28158e-07
1.30942e-08
-4.33532e-07
1.25558e-08
-4.38682e-07
1.20284e-08
-4.43611e-07
1.15124e-08
-4.48324e-07
1.10079e-08
-4.52827e-07
1.0515e-08
-4.57124e-07
1.00335e-08
-4.61219e-07
9.56327e-09
-4.65117e-07
9.1041e-09
-4.68822e-07
8.65564e-09
-4.7234e-07
8.21746e-09
-4.75674e-07
7.78909e-09
-4.78827e-07
7.36999e-09
-4.81804e-07
6.95955e-09
-4.84607e-07
6.55711e-09
-4.8724e-07
6.16195e-09
-4.89706e-07
5.77332e-09
-4.92007e-07
5.39042e-09
-4.94144e-07
5.01239e-09
-4.9612e-07
4.63837e-09
-4.97936e-07
4.26743e-09
-4.99592e-07
3.89865e-09
-5.0109e-07
3.53104e-09
-5.02429e-07
3.16363e-09
-5.03609e-07
2.7954e-09
-5.04628e-07
2.42532e-09
-5.05487e-07
2.05235e-09
-5.06183e-07
1.67546e-09
-5.06714e-07
1.29356e-09
-5.07078e-07
9.05624e-10
-5.07271e-07
5.10575e-10
-5.0729e-07
1.07367e-10
-5.07131e-07
-3.05044e-10
-5.06791e-07
-7.27686e-10
-5.06263e-07
-1.16157e-09
-5.05544e-07
-1.60768e-09
-5.04627e-07
-2.06698e-09
-5.03507e-07
-2.54039e-09
-5.02177e-07
-3.02879e-09
-5.00631e-07
-3.53301e-09
-4.98862e-07
-4.05382e-09
-4.96863e-07
-4.59195e-09
-4.94626e-07
-5.14804e-09
-4.92143e-07
-5.72265e-09
-4.89406e-07
-6.31626e-09
-4.86409e-07
-6.92924e-09
-4.83141e-07
-7.56188e-09
-4.79596e-07
-8.21432e-09
-4.75764e-07
-8.88659e-09
-4.71639e-07
-9.57857e-09
-4.67211e-07
-1.029e-08
-4.62473e-07
-1.10205e-08
-4.57417e-07
-1.17694e-08
-4.52037e-07
-1.2536e-08
-4.46325e-07
-1.33192e-08
-4.40275e-07
-1.41179e-08
-4.33882e-07
-1.49307e-08
-4.2714e-07
-1.57559e-08
-4.20045e-07
-1.65917e-08
-4.12594e-07
-1.74359e-08
-4.04786e-07
-1.82861e-08
-3.96618e-07
-1.91398e-08
-3.8809e-07
-1.99938e-08
-3.79205e-07
-2.0845e-08
-3.69966e-07
-2.169e-08
-3.60376e-07
-2.25248e-08
-3.50443e-07
-2.33454e-08
-3.40174e-07
-2.41475e-08
-3.29579e-07
-2.49263e-08
-3.18671e-07
-2.56768e-08
-3.07463e-07
-2.6394e-08
-2.95974e-07
-2.70722e-08
-2.84221e-07
-2.77058e-08
-2.72226e-07
-2.82888e-08
-2.60013e-07
-2.88149e-08
-2.47609e-07
-2.92779e-08
-2.35044e-07
-2.96711e-08
-2.22348e-07
-2.9988e-08
-2.09559e-07
-3.02217e-08
-1.96712e-07
-3.03655e-08
-1.83848e-07
-3.04126e-08
-1.71012e-07
-3.03562e-08
-1.58248e-07
-3.01895e-08
-1.45605e-07
-2.99061e-08
-1.33134e-07
-2.94998e-08
-1.20888e-07
-2.89644e-08
-1.08923e-07
-2.82946e-08
-9.72965e-08
-2.74854e-08
-8.60663e-08
-2.65324e-08
-7.52925e-08
-2.54321e-08
-6.50357e-08
-2.41824e-08
-5.53562e-08
-2.27823e-08
-4.63134e-08
-2.12327e-08
-3.79648e-08
-1.95368e-08
-3.03648e-08
-1.77009e-08
-2.35627e-08
-1.57351e-08
-1.7601e-08
-1.3655e-08
-1.25119e-08
-1.14835e-08
-8.31465e-09
-9.25289e-09
-5.01022e-09
-7.00902e-09
-2.57603e-09
-4.81588e-09
-9.58794e-10
-2.76251e-09
-6.61175e-11
-9.71861e-10
2.42896e-10
3.89304e-10
1.68964e-10
1.09819e-09
8.3965e-10
3.77362e-11
-8.06992e-10
-1.74192e-10
-8.40394e-10
-8.7056e-10
2.22037e-10
-2.22142e-09
2.03865e-09
-4.34855e-09
4.3634e-09
-7.33346e-09
7.00704e-09
-1.12241e-08
9.82558e-09
-1.6041e-08
1.27114e-08
-2.17827e-08
1.55848e-08
-2.84304e-08
1.83872e-08
-3.59519e-08
2.10763e-08
-4.43049e-08
2.3622e-08
-5.34398e-08
2.60034e-08
-6.33018e-08
2.82071e-08
-7.38326e-08
3.02248e-08
-8.49718e-08
3.20526e-08
-9.66584e-08
3.36897e-08
-1.08831e-07
3.5138e-08
-1.2143e-07
3.64012e-08
-1.34395e-07
3.74844e-08
-1.47669e-07
3.83941e-08
-1.61197e-07
3.91375e-08
-1.74926e-07
3.97224e-08
-1.88805e-07
4.01571e-08
-2.02788e-07
4.04501e-08
-2.16828e-07
4.06103e-08
-2.30884e-07
4.06464e-08
-2.44916e-07
4.05672e-08
-2.58889e-07
4.03814e-08
-2.72768e-07
4.00977e-08
-2.86522e-07
3.97243e-08
-3.00125e-07
3.92694e-08
-3.13549e-07
3.87407e-08
-3.26773e-07
3.8146e-08
-3.39775e-07
3.74924e-08
-3.52537e-07
3.67867e-08
-3.65045e-07
3.60356e-08
-3.77282e-07
3.52453e-08
-3.89239e-07
3.44215e-08
-4.00905e-07
3.35698e-08
-4.12271e-07
3.26952e-08
-4.23331e-07
3.18026e-08
-4.3408e-07
3.08963e-08
-4.44514e-07
2.99805e-08
-4.54632e-07
2.90587e-08
-4.64431e-07
2.81345e-08
-4.73912e-07
2.72109e-08
-4.83075e-07
2.62908e-08
-4.91922e-07
2.53765e-08
-5.00456e-07
2.44702e-08
-5.0868e-07
2.3574e-08
-5.16597e-07
2.26896e-08
-5.24212e-07
2.18182e-08
-5.3153e-07
2.09612e-08
-5.38555e-07
2.01194e-08
-5.45293e-07
1.92938e-08
-5.5175e-07
1.84849e-08
-5.5793e-07
1.76929e-08
-5.63841e-07
1.69183e-08
-5.69487e-07
1.6161e-08
-5.74874e-07
1.54209e-08
-5.80009e-07
1.46978e-08
-5.84896e-07
1.39914e-08
-5.89541e-07
1.3301e-08
-5.9395e-07
1.26262e-08
-5.98127e-07
1.19662e-08
-6.02077e-07
1.13201e-08
-6.05805e-07
1.06872e-08
-6.09314e-07
1.00662e-08
-6.12608e-07
9.45632e-09
-6.15691e-07
8.85624e-09
-6.18566e-07
8.26479e-09
-6.21234e-07
7.6807e-09
-6.23698e-07
7.10264e-09
-6.2596e-07
6.52922e-09
-6.2802e-07
5.95901e-09
-6.2988e-07
5.39056e-09
-6.31539e-07
4.82236e-09
-6.32996e-07
4.25288e-09
-6.34251e-07
3.68057e-09
-6.35303e-07
3.10385e-09
-6.36149e-07
2.52113e-09
-6.36786e-07
1.93082e-09
-6.37212e-07
1.33131e-09
-6.37422e-07
7.20999e-10
-6.37413e-07
9.83032e-11
-6.3718e-07
-5.38355e-10
-6.36717e-07
-1.19053e-09
-6.36019e-07
-1.85974e-09
-6.35079e-07
-2.54748e-09
-6.33891e-07
-3.25518e-09
-6.32447e-07
-3.98424e-09
-6.3074e-07
-4.73596e-09
-6.28761e-07
-5.51161e-09
-6.26502e-07
-6.31234e-09
-6.23955e-07
-7.13921e-09
-6.2111e-07
-7.99319e-09
-6.17958e-07
-8.8751e-09
-6.14488e-07
-9.78564e-09
-6.10692e-07
-1.07254e-08
-6.06559e-07
-1.16947e-08
-6.0208e-07
-1.26938e-08
-5.97244e-07
-1.37226e-08
-5.92041e-07
-1.47811e-08
-5.86463e-07
-1.58687e-08
-5.80498e-07
-1.69848e-08
-5.74139e-07
-1.81284e-08
-5.67377e-07
-1.92984e-08
-5.60203e-07
-2.04931e-08
-5.5261e-07
-2.17109e-08
-5.44591e-07
-2.29494e-08
-5.36141e-07
-2.42062e-08
-5.27254e-07
-2.54785e-08
-5.17927e-07
-2.67629e-08
-5.08158e-07
-2.80557e-08
-4.97944e-07
-2.9353e-08
-4.87288e-07
-3.06503e-08
-4.7619e-07
-3.19426e-08
-4.64656e-07
-3.32246e-08
-4.5269e-07
-3.44905e-08
-4.40301e-07
-3.57342e-08
-4.275e-07
-3.6949e-08
-4.14298e-07
-3.81278e-08
-4.00712e-07
-3.92631e-08
-3.86759e-07
-4.03471e-08
-3.72459e-07
-4.13715e-08
-3.57838e-07
-4.23275e-08
-3.4292e-07
-4.32063e-08
-3.27736e-07
-4.39985e-08
-3.1232e-07
-4.46946e-08
-2.96706e-07
-4.52847e-08
-2.80935e-07
-4.5759e-08
-2.6505e-07
-4.61073e-08
-2.49096e-07
-4.63194e-08
-2.33123e-07
-4.63853e-08
-2.17184e-07
-4.6295e-08
-2.01335e-07
-4.60385e-08
-1.85635e-07
-4.56064e-08
-1.70145e-07
-4.49895e-08
-1.5493e-07
-4.41792e-08
-1.40057e-07
-4.31677e-08
-1.25595e-07
-4.19478e-08
-1.11613e-07
-4.05139e-08
-9.81839e-08
-3.88615e-08
-8.53784e-08
-3.69879e-08
-7.3268e-08
-3.48927e-08
-6.19225e-08
-3.25783e-08
-5.14087e-08
-3.00506e-08
-4.17893e-08
-2.73202e-08
-3.31208e-08
-2.44036e-08
-2.54511e-08
-2.13248e-08
-1.88164e-08
-1.81182e-08
-1.32379e-08
-1.48313e-08
-8.71751e-09
-1.15294e-08
-5.23242e-09
-8.30099e-09
-2.72939e-09
-5.26555e-09
-1.11796e-09
-2.58329e-09
-2.63122e-10
-4.65499e-10
2.32541e-11
8.11821e-10
8.62893e-10
-1.10603e-10
-6.96387e-10
-6.9399e-10
-2.57004e-10
-1.94597e-09
1.47402e-09
-4.01436e-09
4.10704e-09
-7.00693e-09
7.35597e-09
-1.09964e-08
1.09966e-08
-1.60253e-08
1.48545e-08
-2.21103e-08
1.87964e-08
-2.92468e-08
2.27212e-08
-3.74125e-08
2.65529e-08
-4.65716e-08
3.02354e-08
-5.66772e-08
3.37276e-08
-6.76744e-08
3.70006e-08
-7.95022e-08
4.00349e-08
-9.20955e-08
4.28182e-08
-1.05387e-07
4.53438e-08
-1.19307e-07
4.76099e-08
-1.33787e-07
4.96179e-08
-1.48758e-07
5.13721e-08
-1.64152e-07
5.28788e-08
-1.79904e-07
5.41463e-08
-1.95951e-07
5.51839e-08
-2.1223e-07
5.60019e-08
-2.28685e-07
5.66115e-08
-2.45259e-07
5.70242e-08
-2.619e-07
5.72518e-08
-2.7856e-07
5.73063e-08
-2.95193e-07
5.71998e-08
-3.11755e-07
5.69441e-08
-3.28209e-07
5.65511e-08
-3.44517e-07
5.60323e-08
-3.60646e-07
5.5399e-08
-3.76568e-07
5.46619e-08
-3.92253e-07
5.38316e-08
-4.07679e-07
5.29182e-08
-4.22824e-07
5.19313e-08
-4.37668e-07
5.08799e-08
-4.52196e-07
4.97729e-08
-4.66392e-07
4.86182e-08
-4.80246e-07
4.74236e-08
-4.93747e-07
4.61963e-08
-5.06888e-07
4.4943e-08
-5.19661e-07
4.36698e-08
-5.32063e-07
4.23824e-08
-5.4409e-07
4.10862e-08
-5.55742e-07
3.97858e-08
-5.67017e-07
3.84858e-08
-5.77916e-07
3.71899e-08
-5.88441e-07
3.59017e-08
-5.98595e-07
3.46243e-08
-6.08381e-07
3.33605e-08
-6.17805e-07
3.21127e-08
-6.26869e-07
3.08828e-08
-6.35581e-07
2.96726e-08
-6.43945e-07
2.84835e-08
-6.51968e-07
2.73167e-08
-6.59656e-07
2.61728e-08
-6.67015e-07
2.50526e-08
-6.74053e-07
2.39564e-08
-6.80776e-07
2.28842e-08
-6.87191e-07
2.18359e-08
-6.93305e-07
2.08113e-08
-6.99123e-07
1.98097e-08
-7.04653e-07
1.88306e-08
-7.099e-07
1.78731e-08
-7.1487e-07
1.69362e-08
-7.19568e-07
1.60188e-08
-7.24001e-07
1.51195e-08
-7.28172e-07
1.42371e-08
-7.32085e-07
1.33699e-08
-7.35746e-07
1.25165e-08
-7.39156e-07
1.16751e-08
-7.42319e-07
1.0844e-08
-7.45238e-07
1.00212e-08
-7.47913e-07
9.20484e-09
-7.50347e-07
8.39296e-09
-7.5254e-07
7.58348e-09
-7.54492e-07
6.77432e-09
-7.56203e-07
5.96333e-09
-7.5767e-07
5.14834e-09
-7.58894e-07
4.32715e-09
-7.5987e-07
3.49754e-09
-7.60597e-07
2.65728e-09
-7.61069e-07
1.80414e-09
-7.61284e-07
9.35885e-10
-7.61236e-07
5.02956e-11
-7.6092e-07
-8.54822e-10
-7.60329e-07
-1.78163e-09
-7.59456e-07
-2.73225e-09
-7.58295e-07
-3.70874e-09
-7.56837e-07
-4.71311e-09
-7.55074e-07
-5.74727e-09
-7.52997e-07
-6.81306e-09
-7.50596e-07
-7.91221e-09
-7.47862e-07
-9.04631e-09
-7.44785e-07
-1.02168e-08
-7.41353e-07
-1.14251e-08
-7.37556e-07
-1.26722e-08
-7.33382e-07
-1.39592e-08
-7.28821e-07
-1.52867e-08
-7.2386e-07
-1.66552e-08
-7.18489e-07
-1.80651e-08
-7.12695e-07
-1.95163e-08
-7.06468e-07
-2.10085e-08
-6.99795e-07
-2.2541e-08
-6.92667e-07
-2.41129e-08
-6.85073e-07
-2.57228e-08
-6.77002e-07
-2.7369e-08
-6.68446e-07
-2.90493e-08
-6.59396e-07
-3.07611e-08
-6.49844e-07
-3.25013e-08
-6.39784e-07
-3.42664e-08
-6.2921e-07
-3.60523e-08
-6.18118e-07
-3.78545e-08
-6.06506e-07
-3.96678e-08
-5.94373e-07
-4.14864e-08
-5.81719e-07
-4.33041e-08
-5.68548e-07
-4.51141e-08
-5.54863e-07
-4.69089e-08
-5.40674e-07
-4.86803e-08
-5.25988e-07
-5.04197e-08
-5.10819e-07
-5.21179e-08
-4.95182e-07
-5.3765e-08
-4.79095e-07
-5.53505e-08
-4.62578e-07
-5.68635e-08
-4.45657e-07
-5.82923e-08
-4.2836e-07
-5.96251e-08
-4.10717e-07
-6.08493e-08
-3.92763e-07
-6.1952e-08
-3.74538e-07
-6.292e-08
-3.56083e-07
-6.37398e-08
-3.37444e-07
-6.43975e-08
-3.18672e-07
-6.48793e-08
-2.9982e-07
-6.51713e-08
-2.80946e-07
-6.52595e-08
-2.62111e-07
-6.51303e-08
-2.43379e-07
-6.47703e-08
-2.24819e-07
-6.41665e-08
-2.06502e-07
-6.33066e-08
-1.88502e-07
-6.21792e-08
-1.70895e-07
-6.07739e-08
-1.53762e-07
-5.90817e-08
-1.37181e-07
-5.70951e-08
-1.21233e-07
-5.48088e-08
-1.06001e-07
-5.22202e-08
-9.15639e-08
-4.93297e-08
-7.80005e-08
-4.61417e-08
-6.53854e-08
-4.26657e-08
-5.37884e-08
-3.89172e-08
-4.32721e-08
-3.49199e-08
-3.38893e-08
-3.07076e-08
-2.56806e-08
-2.63269e-08
-1.86709e-08
-2.1841e-08
-1.28653e-08
-1.7335e-08
-8.24532e-09
-1.2921e-08
-4.76367e-09
-8.74722e-09
-2.33974e-09
-5.00722e-09
-8.54584e-10
-1.95065e-09
-1.45832e-10
1.03086e-10
7.17055e-10
-2.6884e-10
-4.27544e-10
-1.25592e-09
7.30081e-10
-3.11193e-09
3.33003e-09
-5.95513e-09
6.95024e-09
-9.87295e-09
1.12738e-08
-1.4924e-08
1.60476e-08
-2.11408e-08
2.10713e-08
-2.85327e-08
2.61884e-08
-3.70895e-08
3.1278e-08
-4.67841e-08
3.62476e-08
-5.75759e-08
4.10272e-08
-6.94132e-08
4.55649e-08
-8.22359e-08
4.98233e-08
-9.59776e-08
5.37765e-08
-1.10567e-07
5.74077e-08
-1.25931e-07
6.07073e-08
-1.41992e-07
6.36716e-08
-1.58676e-07
6.63017e-08
-1.75906e-07
6.8602e-08
-1.93607e-07
7.05803e-08
-2.11708e-07
7.22464e-08
-2.30135e-07
7.36118e-08
-2.48823e-07
7.46897e-08
-2.67706e-07
7.54939e-08
-2.86721e-07
7.60393e-08
-3.0581e-07
7.6341e-08
-3.24918e-07
7.64145e-08
-3.43994e-07
7.62753e-08
-3.62988e-07
7.5939e-08
-3.81858e-07
7.54209e-08
-4.00562e-07
7.4736e-08
-4.19062e-07
7.38991e-08
-4.37325e-07
7.29244e-08
-4.55319e-07
7.18257e-08
-4.73017e-07
7.06162e-08
-4.90394e-07
6.93086e-08
-5.07429e-07
6.79149e-08
-5.24103e-07
6.64466e-08
-5.40399e-07
6.49144e-08
-5.56304e-07
6.33286e-08
-5.71806e-07
6.16985e-08
-5.86896e-07
6.00332e-08
-6.01567e-07
5.83408e-08
-6.15814e-07
5.66288e-08
-6.29632e-07
5.49044e-08
-6.4302e-07
5.31738e-08
-6.55977e-07
5.14429e-08
-6.68504e-07
4.97168e-08
-6.80602e-07
4.80004e-08
-6.92276e-07
4.62978e-08
-7.03528e-07
4.46126e-08
-7.14363e-07
4.2948e-08
-7.24787e-07
4.13068e-08
-7.34806e-07
3.96912e-08
-7.44426e-07
3.81032e-08
-7.53653e-07
3.65443e-08
-7.62496e-07
3.50156e-08
-7.70961e-07
3.35178e-08
-7.79056e-07
3.20515e-08
-7.86789e-07
3.06168e-08
-7.94167e-07
2.92136e-08
-8.01197e-07
2.78415e-08
-8.07887e-07
2.64998e-08
-8.14244e-07
2.51876e-08
-8.20275e-07
2.39039e-08
-8.25986e-07
2.26474e-08
-8.31384e-07
2.14165e-08
-8.36474e-07
2.02096e-08
-8.41261e-07
1.90248e-08
-8.45752e-07
1.78602e-08
-8.49949e-07
1.67138e-08
-8.53857e-07
1.55831e-08
-8.57479e-07
1.44659e-08
-8.60817e-07
1.33598e-08
-8.63875e-07
1.22622e-08
-8.66652e-07
1.11704e-08
-8.6915e-07
1.00817e-08
-8.7137e-07
8.99341e-09
-8.73309e-07
7.90268e-09
-8.74967e-07
6.80662e-09
-8.76342e-07
5.70233e-09
-8.77432e-07
4.58688e-09
-8.78232e-07
3.45733e-09
-8.78738e-07
2.31072e-09
-8.78947e-07
1.14411e-09
-8.78851e-07
-4.54164e-11
-8.78445e-07
-1.26076e-09
-8.77722e-07
-2.50477e-09
-8.76674e-07
-3.78024e-09
-8.75293e-07
-5.08987e-09
-8.73569e-07
-6.43631e-09
-8.71495e-07
-7.82207e-09
-8.69058e-07
-9.24955e-09
-8.66249e-07
-1.0721e-08
-8.63057e-07
-1.22385e-08
-8.5947e-07
-1.38041e-08
-8.55476e-07
-1.54193e-08
-8.51062e-07
-1.70857e-08
-8.46217e-07
-1.88044e-08
-8.40927e-07
-2.05765e-08
-8.3518e-07
-2.24026e-08
-8.28962e-07
-2.4283e-08
-8.22261e-07
-2.62175e-08
-8.15063e-07
-2.82058e-08
-8.07357e-07
-3.02469e-08
-7.99131e-07
-3.23396e-08
-7.90372e-07
-3.44819e-08
-7.81069e-07
-3.66716e-08
-7.71213e-07
-3.89057e-08
-7.60793e-07
-4.11808e-08
-7.49802e-07
-4.34928e-08
-7.38231e-07
-4.58368e-08
-7.26076e-07
-4.82076e-08
-7.13331e-07
-5.0599e-08
-6.99995e-07
-5.30043e-08
-6.86065e-07
-5.54157e-08
-6.71545e-07
-5.78251e-08
-6.56435e-07
-6.02232e-08
-6.40744e-07
-6.26003e-08
-6.24479e-07
-6.49457e-08
-6.07651e-07
-6.72478e-08
-5.90274e-07
-6.94945e-08
-5.72366e-07
-7.16728e-08
-5.53948e-07
-7.37689e-08
-5.35043e-07
-7.57682e-08
-5.1568e-07
-7.76558e-08
-4.95889e-07
-7.94157e-08
-4.75707e-07
-8.10315e-08
-4.55172e-07
-8.24864e-08
-4.3433e-07
-8.3763e-08
-4.13226e-07
-8.48436e-08
-3.91913e-07
-8.57101e-08
-3.70448e-07
-8.63446e-08
-3.4889e-07
-8.67288e-08
-3.27305e-07
-8.68447e-08
-3.05761e-07
-8.66745e-08
-2.8433e-07
-8.62011e-08
-2.63089e-07
-8.54078e-08
-2.42117e-07
-8.42789e-08
-2.21496e-07
-8.27999e-08
-2.01312e-07
-8.09578e-08
-1.81652e-07
-7.87415e-08
-1.62605e-07
-7.61421e-08
-1.44261e-07
-7.31535e-08
-1.26708e-07
-6.97732e-08
-1.10034e-07
-6.60029e-08
-9.43266e-08
-6.18495e-08
-7.96661e-08
-5.73262e-08
-6.61287e-08
-5.24545e-08
-5.3783e-08
-4.72657e-08
-4.26872e-08
-4.18034e-08
-3.28872e-08
-3.61269e-08
-2.4413e-08
-3.03152e-08
-1.72762e-08
-2.44718e-08
-1.1466e-08
-1.87312e-08
-6.94618e-09
-1.3267e-08
-3.65207e-09
-8.30134e-09
-1.48769e-09
-4.11504e-09
-3.24311e-10
-1.06028e-09
3.92745e-10
-4.29713e-10
2.17141e-12
-1.83513e-09
2.1355e-09
-4.32081e-09
5.81572e-09
-7.97185e-09
1.06013e-08
-1.28513e-08
1.61532e-08
-1.89996e-08
2.2196e-08
-2.64359e-08
2.85076e-08
-3.51596e-08
3.4912e-08
-4.51521e-08
4.12706e-08
-5.63801e-08
4.74755e-08
-6.87968e-08
5.34439e-08
-8.23453e-08
5.91134e-08
-9.69602e-08
6.44382e-08
-1.12569e-07
6.93858e-08
-1.29097e-07
7.39348e-08
-1.46462e-07
7.80725e-08
-1.64583e-07
8.17932e-08
-1.83379e-07
8.50974e-08
-2.02767e-07
8.79899e-08
-2.22666e-07
9.04793e-08
-2.42997e-07
9.25772e-08
-2.63682e-07
9.42975e-08
-2.84649e-07
9.56559e-08
-3.05824e-07
9.66696e-08
-3.27142e-07
9.73567e-08
-3.48537e-07
9.77358e-08
-3.69948e-07
9.78262e-08
-3.9132e-07
9.76472e-08
-4.12599e-07
9.72181e-08
-4.33737e-07
9.65583e-08
-4.54687e-07
9.56865e-08
-4.75409e-07
9.46212e-08
-4.95865e-07
9.33803e-08
-5.16021e-07
9.19814e-08
-5.35846e-07
9.04409e-08
-5.55312e-07
8.87751e-08
-5.74396e-07
8.6999e-08
-5.93077e-07
8.51273e-08
-6.11336e-07
8.31736e-08
-6.29158e-07
8.11508e-08
-6.46531e-07
7.9071e-08
-6.63443e-07
7.69455e-08
-6.79887e-07
7.47847e-08
-6.95857e-07
7.25983e-08
-7.11348e-07
7.03953e-08