/*--------------------------------*- C++ -*----------------------------------*\
  =========                 |
  \\      /  F ield         | OpenFOAM: The Open Source CFD Toolbox
   \\    /   O peration     | Website:  https://openfoam.org
    \\  /    A nd           | Version:  7
     \\/     M anipulation  |
\*---------------------------------------------------------------------------*/
FoamFile
{
    version     2.0;
    format      ascii;
    class       surfaceScalarField;
    location    "0.4625";
    object      phi;
}
// * * * * * * * * * * * * * * * * * * * * * * * * * * * * * * * * * * * * * //

dimensions      [0 3 -1 0 0 0 0];

internalField   nonuniform List<scalar> 
101920
(
-1.27976e-13
1.41013e-13
-6.32162e-13
5.06285e-13
-7.88533e-13
1.5644e-13
-7.34538e-13
-5.32385e-14
-4.23053e-13
-3.12332e-13
1.11733e-13
-5.36021e-13
8.3245e-13
-7.20232e-13
1.7042e-12
-8.75042e-13
2.70856e-12
-1.00192e-12
3.81883e-12
-1.10962e-12
5.01928e-12
-1.20018e-12
6.29362e-12
-1.27454e-12
7.62749e-12
-1.33552e-12
9.00898e-12
-1.38279e-12
1.04259e-11
-1.41785e-12
1.18678e-11
-1.4416e-12
1.33241e-11
-1.45634e-12
1.4788e-11
-1.46238e-12
1.62515e-11
-1.46138e-12
1.77063e-11
-1.45429e-12
1.91476e-11
-1.43974e-12
2.05681e-11
-1.42055e-12
2.19653e-11
-1.39512e-12
2.33331e-11
-1.36629e-12
2.46672e-11
-1.3346e-12
2.59663e-11
-1.29822e-12
2.72261e-11
-1.25943e-12
2.8445e-11
-1.21875e-12
2.96211e-11
-1.17527e-12
3.07518e-11
-1.13098e-12
3.18366e-11
-1.08605e-12
3.28745e-11
-1.03919e-12
3.38641e-11
-9.91583e-13
3.48064e-11
-9.43942e-13
3.57013e-11
-8.95933e-13
3.65479e-11
-8.48534e-13
3.7347e-11
-8.01542e-13
3.81001e-11
-7.54364e-13
3.88072e-11
-7.08058e-13
3.94697e-11
-6.62841e-13
4.00893e-11
-6.18501e-13
4.06663e-11
-5.763e-13
4.12019e-11
-5.35866e-13
4.16981e-11
-4.95771e-13
4.21564e-11
-4.56984e-13
4.25782e-11
-4.20841e-13
4.29658e-11
-3.86658e-13
4.33201e-11
-3.54193e-13
4.36426e-11
-3.23608e-13
4.39363e-11
-2.94706e-13
4.4203e-11
-2.67575e-13
4.44442e-11
-2.42211e-13
4.46614e-11
-2.1848e-13
4.48568e-11
-1.96219e-13
4.50328e-11
-1.75603e-13
4.51908e-11
-1.5716e-13
4.53323e-11
-1.40708e-13
4.54597e-11
-1.25838e-13
4.55741e-11
-1.12975e-13
4.56767e-11
-1.02383e-13
4.577e-11
-9.33013e-14
4.58555e-11
-8.54073e-14
4.59341e-11
-7.94819e-14
4.60071e-11
-7.52453e-14
4.60762e-11
-7.10706e-14
4.61424e-11
-6.6742e-14
4.6207e-11
-6.37269e-14
4.62718e-11
-6.28599e-14
4.63379e-11
-6.39854e-14
4.64047e-11
-6.65294e-14
4.64724e-11
-6.93477e-14
4.65427e-11
-7.15943e-14
4.66169e-11
-7.37359e-14
4.6695e-11
-7.68354e-14
4.67772e-11
-8.10734e-14
4.68637e-11
-8.57576e-14
4.69543e-11
-9.04593e-14
4.70489e-11
-9.53341e-14
4.71479e-11
-1.00307e-13
4.72515e-11
-1.04709e-13
4.73592e-11
-1.0827e-13
4.74702e-11
-1.11278e-13
4.75841e-11
-1.13832e-13
4.77012e-11
-1.15888e-13
4.78204e-11
-1.17572e-13
4.79405e-11
-1.19175e-13
4.80602e-11
-1.20331e-13
4.8179e-11
-1.19946e-13
4.82966e-11
-1.17831e-13
4.84113e-11
-1.1468e-13
4.85218e-11
-1.10684e-13
4.86273e-11
-1.05397e-13
4.87259e-11
-9.83445e-14
4.88166e-11
-8.988e-14
4.88976e-11
-8.05066e-14
4.89674e-11
-6.96371e-14
4.90247e-11
-5.67922e-14
4.90671e-11
-4.21491e-14
4.9093e-11
-2.59231e-14
4.91012e-11
-8.22192e-15
4.90894e-11
1.15256e-14
4.90562e-11
3.34178e-14
4.89993e-11
5.69786e-14
4.89166e-11
8.22602e-14
4.88072e-11
1.09507e-13
4.86689e-11
1.38633e-13
4.84997e-11
1.69606e-13
4.82983e-11
2.02058e-13
4.80623e-11
2.35919e-13
4.77894e-11
2.71955e-13
4.74785e-11
3.1022e-13
4.71278e-11
3.501e-13
4.67358e-11
3.91509e-13
4.63017e-11
4.34234e-13
4.58231e-11
4.7823e-13
4.52984e-11
5.23899e-13
4.47271e-11
5.70877e-13
4.41076e-11
6.18883e-13
4.34395e-11
6.68179e-13
4.27223e-11
7.18146e-13
4.19541e-11
7.68158e-13
4.11339e-11
8.18725e-13
4.02624e-11
8.70165e-13
3.93393e-11
9.22116e-13
3.83648e-11
9.74234e-13
3.73394e-11
1.02583e-12
3.6263e-11
1.07638e-12
3.51362e-11
1.12633e-12
3.39609e-11
1.17553e-12
3.27382e-11
1.22292e-12
3.14687e-11
1.26852e-12
3.01556e-11
1.31265e-12
2.88015e-11
1.3546e-12
2.74082e-11
1.39366e-12
2.59795e-11
1.42937e-12
2.45191e-11
1.46084e-12
2.30304e-11
1.4879e-12
2.15188e-11
1.51097e-12
1.99901e-11
1.52933e-12
1.84493e-11
1.54158e-12
1.69019e-11
1.54735e-12
1.5356e-11
1.54621e-12
1.38192e-11
1.53696e-12
1.22994e-11
1.51901e-12
1.08068e-11
1.49209e-12
9.35222e-12
1.45497e-12
7.94605e-12
1.40637e-12
6.60048e-12
1.34568e-12
5.32929e-12
1.27199e-12
4.14617e-12
1.18384e-12
3.06581e-12
1.08033e-12
2.10538e-12
9.60805e-13
1.28206e-12
8.24092e-13
6.11671e-13
6.70084e-13
1.10456e-13
5.00563e-13
-2.07752e-13
3.18772e-13
-3.38806e-13
1.31899e-13
-2.97563e-13
-4.19825e-14
-1.38048e-13
-1.61787e-13
-1.40027e-13
2.37561e-13
-9.45964e-14
2.24035e-13
5.16728e-13
2.85217e-13
9.46726e-14
8.15727e-13
-5.82036e-13
1.82626e-12
-1.32475e-12
3.31929e-12
-2.02697e-12
5.25604e-12
-2.65749e-12
7.59026e-12
-3.20868e-12
1.02701e-11
-3.68503e-12
1.32508e-11
-4.09141e-12
1.64866e-11
-4.4357e-12
1.99362e-11
-4.72336e-12
2.35611e-11
-4.95841e-12
2.73256e-11
-5.14601e-12
3.11984e-11
-5.28929e-12
3.51478e-11
-5.39308e-12
3.91487e-11
-5.45936e-12
4.31769e-11
-5.49236e-12
4.72085e-11
-5.49578e-12
5.12253e-11
-5.47188e-12
5.52065e-11
-5.4254e-12
5.91388e-11
-5.3547e-12
6.30072e-11
-5.26457e-12
6.67977e-11
-5.1592e-12
7.05005e-11
-5.03787e-12
7.41051e-11
-4.90391e-12
7.76028e-11
-4.75963e-12
8.09879e-11
-4.60436e-12
8.42538e-11
-4.441e-12
8.73958e-11
-4.27216e-12
9.04109e-11
-4.09819e-12
9.32946e-11
-3.92097e-12
9.60457e-11
-3.74135e-12
9.86643e-11
-3.55976e-12
1.01149e-10
-3.37818e-12
1.035e-10
-3.19737e-12
1.0572e-10
-3.01801e-12
1.07809e-10
-2.84199e-12
1.09768e-10
-2.66896e-12
1.11603e-10
-2.49808e-12
1.13315e-10
-2.33138e-12
1.14907e-10
-2.17035e-12
1.16385e-10
-2.01427e-12
1.17751e-10
-1.86333e-12
1.19009e-10
-1.71832e-12
1.20165e-10
-1.57909e-12
1.21225e-10
-1.44622e-12
1.22191e-10
-1.32055e-12
1.23071e-10
-1.20193e-12
1.23868e-10
-1.09052e-12
1.24589e-10
-9.86413e-13
1.25238e-10
-8.89754e-13
1.25822e-10
-8.00576e-13
1.26344e-10
-7.18445e-13
1.26811e-10
-6.43393e-13
1.27227e-10
-5.75411e-13
1.27598e-10
-5.13579e-13
1.27929e-10
-4.57981e-13
1.28224e-10
-4.09544e-13
1.28488e-10
-3.67535e-13
1.28727e-10
-3.30915e-13
1.28944e-10
-3.00227e-13
1.29143e-10
-2.76041e-13
1.29329e-10
-2.57838e-13
1.29506e-10
-2.4504e-13
1.29675e-10
-2.3703e-13
1.2984e-10
-2.32552e-13
1.30006e-10
-2.30917e-13
1.30176e-10
-2.33074e-13
1.30351e-10
-2.39794e-13
1.30533e-10
-2.49951e-13
1.30724e-10
-2.62246e-13
1.30926e-10
-2.7654e-13
1.3114e-10
-2.92546e-13
1.31367e-10
-3.09351e-13
1.31609e-10
-3.267e-13
1.31865e-10
-3.45063e-13
1.32135e-10
-3.64272e-13
1.32419e-10
-3.83424e-13
1.32718e-10
-4.01764e-13
1.3303e-10
-4.19123e-13
1.33353e-10
-4.35295e-13
1.33686e-10
-4.49297e-13
1.34029e-10
-4.60291e-13
1.34379e-10
-4.68346e-13
1.34733e-10
-4.73709e-13
1.3509e-10
-4.76168e-13
1.35447e-10
-4.74967e-13
1.358e-10
-4.6963e-13
1.36145e-10
-4.60092e-13
1.36481e-10
-4.45818e-13
1.36803e-10
-4.26386e-13
1.37108e-10
-4.01819e-13
1.37389e-10
-3.7185e-13
1.37645e-10
-3.36185e-13
1.3787e-10
-2.94323e-13
1.38059e-10
-2.45828e-13
1.38208e-10
-1.9085e-13
1.38311e-10
-1.29187e-13
1.38364e-10
-6.06471e-14
1.38362e-10
1.4698e-14
1.38299e-10
9.71446e-14
1.3817e-10
1.8672e-13
1.37969e-10
2.83231e-13
1.37692e-10
3.86891e-13
1.37332e-10
4.97634e-13
1.36885e-10
6.15496e-13
1.36346e-10
7.40809e-13
1.3571e-10
8.7309e-13
1.34971e-10
1.01176e-12
1.34124e-10
1.15699e-12
1.33164e-10
1.30863e-12
1.32087e-10
1.46663e-12
1.30889e-10
1.63109e-12
1.29566e-10
1.80108e-12
1.28114e-10
1.97588e-12
1.26528e-10
2.15548e-12
1.24807e-10
2.33941e-12
1.22947e-10
2.52732e-12
1.20946e-10
2.71893e-12
1.18802e-10
2.9129e-12
1.16514e-10
3.10801e-12
1.14079e-10
3.30429e-12
1.11499e-10
3.50141e-12
1.08772e-10
3.69847e-12
1.05901e-10
3.89496e-12
1.02888e-10
4.08968e-12
9.97331e-11
4.28105e-12
9.64411e-11
4.46824e-12
9.30162e-11
4.64978e-12
8.94623e-11
4.82367e-12
8.57851e-11
4.98928e-12
8.19923e-11
5.14628e-12
7.80915e-11
5.29298e-12
7.40926e-11
5.42728e-12
7.00069e-11
5.54738e-12
6.58456e-11
5.65095e-12
6.16214e-11
5.73598e-12
5.73495e-11
5.80134e-12
5.30465e-11
5.8449e-12
4.87297e-11
5.86367e-12
4.44195e-11
5.85548e-12
4.01383e-11
5.81821e-12
3.59092e-11
5.74846e-12
3.17581e-11
5.64304e-12
2.77135e-11
5.49963e-12
2.38059e-11
5.31512e-12
2.00675e-11
5.08544e-12
1.65329e-11
4.80731e-12
1.32387e-11
4.47831e-12
1.02229e-11
4.09579e-12
7.52516e-12
3.65779e-12
5.18549e-12
3.16403e-12
3.23991e-12
2.61656e-12
1.71846e-12
2.02214e-12
6.40603e-13
1.39651e-12
4.6244e-15
7.69777e-13
-2.2874e-13
1.96346e-13
-1.58951e-13
-2.25777e-13
-3.00473e-13
1.41579e-13
-2.36101e-13
6.7787e-13
-1.98135e-14
1.47132e-12
-7.00909e-13
2.78148e-12
-1.89156e-12
4.69965e-12
-3.24157e-12
7.24542e-12
-4.57368e-12
1.04004e-11
-5.81033e-12
1.41175e-11
-6.92545e-12
1.8343e-11
-7.90843e-12
2.30134e-11
-8.7633e-12
2.80711e-11
-9.49424e-12
3.34567e-11
-1.01094e-11
3.91133e-11
-1.06165e-11
4.49908e-11
-1.10215e-11
5.1037e-11
-1.13354e-11
5.7209e-11
-1.15633e-11
6.34644e-11
-1.17129e-11
6.97642e-11
-1.17915e-11
7.60749e-11
-1.18045e-11
8.23626e-11
-1.17599e-11
8.86017e-11
-1.1662e-11
9.47648e-11
-1.15161e-11
1.00828e-10
-1.13286e-11
1.06773e-10
-1.11031e-11
1.12581e-10
-1.0845e-11
1.18236e-10
-1.05592e-11
1.23726e-10
-1.02484e-11
1.29038e-10
-9.91677e-12
1.34162e-10
-9.56778e-12
1.39092e-10
-9.20389e-12
1.43821e-10
-8.82917e-12
1.48344e-10
-8.44657e-12
1.5266e-10
-8.05782e-12
1.56764e-10
-7.66619e-12
1.60656e-10
-7.27366e-12
1.64339e-10
-6.88098e-12
1.67812e-10
-6.49165e-12
1.71078e-10
-6.10829e-12
1.74141e-10
-5.73085e-12
1.77005e-10
-5.36094e-12
1.79673e-10
-5.00046e-12
1.82153e-10
-4.64954e-12
1.84451e-10
-4.30988e-12
1.86572e-10
-3.98295e-12
1.88523e-10
-3.66915e-12
1.90312e-10
-3.36872e-12
1.91947e-10
-3.08228e-12
1.93435e-10
-2.81065e-12
1.94786e-10
-2.55394e-12
1.96007e-10
-2.31262e-12
1.97106e-10
-2.08704e-12
1.98092e-10
-1.87683e-12
1.98975e-10
-1.6822e-12
1.99762e-10
-1.50386e-12
2.00461e-10
-1.34158e-12
2.01082e-10
-1.19438e-12
2.01632e-10
-1.06194e-12
2.02118e-10
-9.44562e-13
2.0255e-10
-8.41908e-13
2.02935e-10
-7.52878e-13
2.0328e-10
-6.77178e-13
2.03591e-10
-6.14556e-13
2.03877e-10
-5.63626e-13
2.04143e-10
-5.23799e-13
2.04396e-10
-4.95865e-13
2.04641e-10
-4.79534e-13
2.04883e-10
-4.73073e-13
2.05127e-10
-4.75101e-13
2.05377e-10
-4.84885e-13
2.05638e-10
-5.01575e-13
2.05914e-10
-5.24465e-13
2.06207e-10
-5.53415e-13
2.06519e-10
-5.87979e-13
2.06854e-10
-6.26619e-13
2.07212e-10
-6.67691e-13
2.07595e-10
-7.10504e-13
2.08003e-10
-7.54788e-13
2.08437e-10
-7.9956e-13
2.08897e-10
-8.4348e-13
2.09381e-10
-8.85788e-13
2.09888e-10
-9.25924e-13
2.10417e-10
-9.6311e-13
2.10966e-10
-9.9638e-13
2.11531e-10
-1.02479e-12
2.12109e-10
-1.04743e-12
2.12697e-10
-1.06304e-12
2.13291e-10
-1.07081e-12
2.13887e-10
-1.07057e-12
2.14479e-10
-1.06181e-12
2.15062e-10
-1.04347e-12
2.15631e-10
-1.0145e-12
2.1618e-10
-9.74324e-13
2.16702e-10
-9.22981e-13
2.17189e-10
-8.59713e-13
2.17637e-10
-7.83434e-13
2.18037e-10
-6.93758e-13
2.18381e-10
-5.90188e-13
2.18663e-10
-4.72268e-13
2.18873e-10
-3.39594e-13
2.19005e-10
-1.91681e-13
2.19049e-10
-2.86893e-14
2.18996e-10
1.49508e-13
2.18839e-10
3.43602e-13
2.18569e-10
5.53504e-13
2.18178e-10
7.78794e-13
2.17657e-10
1.01942e-12
2.16996e-10
1.27537e-12
2.16189e-10
1.54711e-12
2.15226e-10
1.83486e-12
2.141e-10
2.13748e-12
2.12803e-10
2.4541e-12
2.11327e-10
2.78472e-12
2.09664e-10
3.12887e-12
2.07809e-10
3.4862e-12
2.05753e-10
3.85613e-12
2.03491e-10
4.23722e-12
2.01019e-10
4.62842e-12
1.98329e-10
5.02898e-12
1.95419e-10
5.43745e-12
1.92283e-10
5.85292e-12
1.88919e-10
6.27479e-12
1.85326e-10
6.70104e-12
1.81501e-10
7.12942e-12
1.77444e-10
7.55874e-12
1.73155e-10
7.98737e-12
1.68637e-10
8.41332e-12
1.63891e-10
8.83498e-12
1.58922e-10
9.24972e-12
1.53736e-10
9.65463e-12
1.48337e-10
1.00476e-11
1.42736e-10
1.04258e-11
1.36941e-10
1.07856e-11
1.30963e-10
1.11244e-11
1.24816e-10
1.14398e-11
1.18514e-10
1.17281e-11
1.12076e-10
1.19853e-11
1.0552e-10
1.22075e-11
9.88665e-11
1.23902e-11
9.21398e-11
1.25288e-11
8.53654e-11
1.26191e-11
7.8572e-11
1.26567e-11
7.17916e-11
1.26361e-11
6.50579e-11
1.25518e-11
5.84075e-11
1.23984e-11
5.18814e-11
1.21697e-11
4.55227e-11
1.1859e-11
3.93765e-11
1.14608e-11
3.34928e-11
1.09692e-11
2.79237e-11
1.03774e-11
2.27222e-11
9.68016e-12
1.79432e-11
8.87419e-12
1.36429e-11
7.95793e-12
9.87522e-12
6.9322e-12
6.68781e-12
5.80398e-12
4.11923e-12
4.59042e-12
2.19097e-12
3.3241e-12
8.95537e-13
2.06277e-12
1.85903e-13
9.03419e-13
-4.28259e-14
5.28609e-15
-3.43827e-13
2.80238e-13
-5.15638e-13
1.1614e-12
-8.99017e-13
2.61237e-12
-2.15125e-12
4.73995e-12
-4.02243e-12
7.61143e-12
-6.11329e-12
1.12381e-11
-8.20038e-12
1.55967e-11
-1.01705e-11
2.06439e-11
-1.19709e-11
2.63163e-11
-1.35815e-11
3.25471e-11
-1.49941e-11
3.92665e-11
-1.6213e-11
4.64025e-11
-1.72465e-11
5.38878e-11
-1.81013e-11
6.16546e-11
-1.87911e-11
6.96433e-11
-1.93255e-11
7.77957e-11
-1.97162e-11
8.60578e-11
-1.99754e-11
9.43796e-11
-2.01135e-11
1.02714e-10
-2.01413e-11
1.11022e-10
-2.0069e-11
1.19266e-10
-1.99051e-11
1.2741e-10
-1.96609e-11
1.35424e-10
-1.93437e-11
1.43283e-10
-1.89613e-11
1.50959e-10
-1.85227e-11
1.58434e-10
-1.80341e-11
1.6569e-10
-1.75029e-11
1.7271e-10
-1.6936e-11
1.79482e-10
-1.63384e-11
1.85995e-10
-1.57161e-11
1.9224e-10
-1.50744e-11
1.98212e-10
-1.44176e-11
2.03907e-10
-1.3751e-11
2.0932e-10
-1.30794e-11
2.14453e-10
-1.24052e-11
2.19304e-10
-1.17323e-11
2.23875e-10
-1.10646e-11
2.2817e-10
-1.04044e-11
2.32195e-10
-9.75483e-12
2.35952e-10
-9.11928e-12
2.3945e-10
-8.49922e-12
2.42696e-10
-7.89604e-12
2.45697e-10
-7.31191e-12
2.48462e-10
-6.74898e-12
2.51002e-10
-6.20853e-12
2.53326e-10
-5.69173e-12
2.55443e-10
-5.19967e-12
2.57366e-10
-4.73276e-12
2.59105e-10
-4.29211e-12
2.60671e-10
-3.87859e-12
2.62075e-10
-3.49217e-12
2.6333e-10
-3.13236e-12
2.64446e-10
-2.7996e-12
2.65436e-10
-2.49461e-12
2.6631e-10
-2.21655e-12
2.6708e-10
-1.96461e-12
2.67758e-10
-1.73917e-12
2.68352e-10
-1.53976e-12
2.68877e-10
-1.36498e-12
2.6934e-10
-1.21431e-12
2.69752e-10
-1.0878e-12
2.70122e-10
-9.84423e-13
2.7046e-10
-9.02167e-13
2.70774e-10
-8.39683e-13
2.71073e-10
-7.96206e-13
2.71365e-10
-7.70726e-13
2.71656e-10
-7.62566e-13
2.71954e-10
-7.70998e-13
2.72262e-10
-7.93891e-13
2.72588e-10
-8.28676e-13
2.72938e-10
-8.7408e-13
2.73313e-10
-9.29524e-13
2.73719e-10
-9.93748e-13
2.74159e-10
-1.06481e-12
2.74633e-10
-1.14103e-12
2.75144e-10
-1.22117e-12
2.75693e-10
-1.3037e-12
2.76281e-10
-1.38683e-12
2.76906e-10
-1.46885e-12
2.77567e-10
-1.54832e-12
2.78263e-10
-1.62353e-12
2.78992e-10
-1.69266e-12
2.79751e-10
-1.75466e-12
2.80536e-10
-1.80863e-12
2.81342e-10
-1.85294e-12
2.82164e-10
-1.88537e-12
2.82997e-10
-1.90431e-12
2.83836e-10
-1.90922e-12
2.84673e-10
-1.89905e-12
2.85501e-10
-1.87193e-12
2.86313e-10
-1.82642e-12
2.871e-10
-1.76159e-12
2.87854e-10
-1.67677e-12
2.88565e-10
-1.57091e-12
2.89224e-10
-1.44246e-12
2.89822e-10
-1.2907e-12
2.90347e-10
-1.11505e-12
2.9079e-10
-9.14409e-13
2.91139e-10
-6.88131e-13
2.91384e-10
-4.35783e-13
2.91512e-10
-1.57018e-13
2.91514e-10
1.48302e-13
2.91376e-10
4.80879e-13
2.91088e-10
8.41242e-13
2.90638e-10
1.22884e-12
2.90014e-10
1.6433e-12
2.89205e-10
2.0847e-12
2.882e-10
2.55285e-12
2.86986e-10
3.04783e-12
2.85554e-10
3.56918e-12
2.83892e-10
4.11545e-12
2.81991e-10
4.68598e-12
2.7984e-10
5.28012e-12
2.7743e-10
5.89632e-12
2.74752e-10
6.53361e-12
2.71797e-10
7.19089e-12
2.6856e-10
7.86614e-12
2.65031e-10
8.55739e-12
2.61207e-10
9.26257e-12
2.57081e-10
9.97919e-12
2.52649e-10
1.07057e-11
2.47908e-10
1.14404e-11
2.42858e-10
1.21796e-11
2.37496e-10
1.292e-11
2.31825e-10
1.36589e-11
2.25846e-10
1.4393e-11
2.19563e-10
1.51185e-11
2.12982e-10
1.58314e-11
2.06109e-10
1.65274e-11
1.98954e-10
1.7202e-11
1.91527e-10
1.78511e-11
1.83843e-10
1.84698e-11
1.75917e-10
1.90519e-11
1.67765e-10
1.9592e-11
1.59407e-10
2.0085e-11
1.50869e-10
2.05242e-11
1.42174e-10
2.09025e-11
1.3335e-10
2.12132e-11
1.2443e-10
2.14488e-11
1.15449e-10
2.16013e-11
1.06442e-10
2.16626e-11
9.74538e-11
2.1625e-11
8.85278e-11
2.14788e-11
7.97114e-11
2.12145e-11
7.10576e-11
2.0823e-11
6.26228e-11
2.02944e-11
5.44652e-11
1.96185e-11
4.66464e-11
1.87865e-11
3.92325e-11
1.77903e-11
3.2291e-11
1.66223e-11
2.58885e-11
1.52773e-11
2.00915e-11
1.37546e-11
1.4964e-11
1.20598e-11
1.0562e-11
1.02067e-11
6.92961e-12
8.22331e-12
4.09299e-12
6.16143e-12
2.04908e-12
4.10674e-12
7.55753e-13
2.19392e-12
1.27843e-13
6.33285e-13
-2.15953e-13
3.881e-13
-9.04502e-13
1.66003e-12
-2.1724e-12
3.75222e-12
-4.24202e-12
6.69303e-12
-6.96388e-12
1.05098e-11
-9.92959e-12
1.51967e-11
-1.28864e-11
2.0719e-11
-1.56945e-11
2.70258e-11
-1.82798e-11
3.40525e-11
-2.06077e-11
4.17219e-11
-2.26646e-11
4.99569e-11
-2.44493e-11
5.86798e-11
-2.59666e-11
6.78096e-11
-2.72309e-11
7.72719e-11
-2.82531e-11
8.69948e-11
-2.90483e-11
9.69105e-11
-2.96323e-11
1.06956e-10
-3.00203e-11
1.17072e-10
-3.02287e-11
1.27202e-10
-3.02727e-11
1.37299e-10
-3.0165e-11
1.47315e-10
-2.99219e-11
1.57211e-10
-2.95564e-11
1.66949e-10
-2.90805e-11
1.76495e-10
-2.85079e-11
1.8582e-10
-2.78485e-11
1.94899e-10
-2.71137e-11
2.03709e-10
-2.63144e-11
2.12232e-10
-2.54592e-11
2.20451e-10
-2.45577e-11
2.28353e-10
-2.3619e-11
2.35927e-10
-2.26496e-11
2.43167e-10
-2.16575e-11
2.50064e-10
-2.06502e-11
2.56618e-10
-1.96332e-11
2.62828e-10
-1.86128e-11
2.68691e-10
-1.75956e-11
2.74211e-10
-1.65851e-11
2.79393e-10
-1.5586e-11
2.84241e-10
-1.4603e-11
2.88762e-10
-1.36402e-11
2.92965e-10
-1.2701e-11
2.96857e-10
-1.17882e-11
3.00449e-10
-1.09048e-11
3.03752e-10
-1.0053e-11
3.06778e-10
-9.23503e-12
3.09538e-10
-8.45332e-12
3.12046e-10
-7.70889e-12
3.14316e-10
-7.00267e-12
3.16361e-10
-6.33668e-12
3.18193e-10
-5.71163e-12
3.1983e-10
-5.12752e-12
3.21284e-10
-4.585e-12
3.22568e-10
-4.08452e-12
3.23699e-10
-3.62569e-12
3.2469e-10
-3.20764e-12
3.25556e-10
-2.83029e-12
3.26309e-10
-2.49358e-12
3.26965e-10
-2.19609e-12
3.27536e-10
-1.93633e-12
3.28034e-10
-1.71362e-12
3.28473e-10
-1.52683e-12
3.28865e-10
-1.37466e-12
3.29221e-10
-1.25614e-12
3.2955e-10
-1.16945e-12
3.29865e-10
-1.11179e-12
3.30174e-10
-1.08094e-12
3.30488e-10
-1.07596e-12
3.30813e-10
-1.09565e-12
3.31157e-10
-1.13739e-12
3.31528e-10
-1.19841e-12
3.31931e-10
-1.2768e-12
3.32371e-10
-1.37047e-12
3.32853e-10
-1.4767e-12
3.33382e-10
-1.59308e-12
3.33958e-10
-1.71769e-12
3.34585e-10
-1.84829e-12
3.35263e-10
-1.98211e-12
3.35994e-10
-2.11674e-12
3.36776e-10
-2.25014e-12
3.37607e-10
-2.37995e-12
3.38487e-10
-2.50336e-12
3.39412e-10
-2.61768e-12
3.40377e-10
-2.72102e-12
3.41379e-10
-2.81146e-12
3.42413e-10
-2.88647e-12
3.43471e-10
-2.94365e-12
3.44548e-10
-2.98095e-12
3.45634e-10
-2.99656e-12
3.46723e-10
-2.98846e-12
3.47806e-10
-2.95431e-12
3.48872e-10
-2.89239e-12
3.49912e-10
-2.80115e-12
3.50913e-10
-2.67875e-12
3.51866e-10
-2.52366e-12
3.52759e-10
-2.33434e-12
3.53577e-10
-2.1093e-12
3.5431e-10
-1.84748e-12
3.54944e-10
-1.54752e-12
3.55465e-10
-1.20838e-12
3.5586e-10
-8.29607e-13
3.56113e-10
-4.10363e-13
3.56211e-10
5.00652e-14
3.56141e-10
5.51884e-13
3.55886e-10
1.09559e-12
3.55433e-10
1.68134e-12
3.54767e-10
2.3087e-12
3.53873e-10
2.97772e-12
3.52739e-10
3.6879e-12
3.51349e-10
4.43814e-12
3.4969e-10
5.22808e-12
3.47748e-10
6.0568e-12
3.45512e-10
6.92262e-12
3.42967e-10
7.8243e-12
3.40104e-10
8.75991e-12
3.36911e-10
9.72708e-12
3.33376e-10
1.07242e-11
3.29493e-10
1.17491e-11
3.25251e-10
1.27985e-11
3.20643e-10
1.38693e-11
3.15664e-10
1.49583e-11
3.10309e-10
1.60617e-11
3.04573e-10
1.71761e-11
2.98455e-10
1.82977e-11
2.91954e-10
1.94213e-11
2.8507e-10
2.05418e-11
2.77808e-10
2.16549e-11
2.70173e-10
2.27548e-11
2.62169e-10
2.38349e-11
2.53808e-10
2.4889e-11
2.451e-10
2.59107e-11
2.36058e-10
2.68927e-11
2.26698e-10
2.78278e-11
2.17042e-10
2.87083e-11
2.0711e-10
2.95249e-11
1.96926e-10
3.02686e-11
1.86519e-10
3.09306e-11
1.75921e-10
3.15008e-11
1.65166e-10
3.19681e-11
1.54292e-10
3.23218e-11
1.43343e-10
3.2551e-11
1.32363e-10
3.26431e-11
1.21403e-10
3.25855e-11
1.10517e-10
3.23654e-11
9.97623e-11
3.19695e-11
8.92009e-11
3.1384e-11
7.88995e-11
3.05953e-11
6.89272e-11
2.95905e-11
5.93566e-11
2.83568e-11
5.02633e-11
2.68831e-11
4.1724e-11
2.51611e-11
3.38162e-11
2.31857e-11
2.66148e-11
2.09569e-11
2.01904e-11
1.8484e-11
1.46055e-11
1.579e-11
9.91169e-12
1.29161e-11
6.14282e-12
9.93064e-12
3.30726e-12
6.94309e-12
1.38147e-12
4.11813e-12
3.12362e-13
1.70203e-12
9.68398e-14
5.1989e-13
-1.42554e-12
2.17828e-12
-3.82823e-12
4.88549e-12
-6.94961e-12
8.61175e-12
-1.06904e-11
1.33414e-11
-1.46583e-11
1.90453e-11
-1.8589e-11
2.56751e-11
-2.23233e-11
3.31681e-11
-2.57738e-11
4.14533e-11
-2.88927e-11
5.0447e-11
-3.16597e-11
6.00672e-11
-3.40679e-11
7.02243e-11
-3.61251e-11
8.0835e-11
-3.78416e-11
9.18151e-11
-3.92334e-11
1.03085e-10
-4.03187e-11
1.14569e-10
-4.11162e-11
1.26195e-10
-4.16465e-11
1.37896e-10
-4.1931e-11
1.49613e-10
-4.19877e-11
1.61285e-10
-4.18378e-11
1.72862e-10
-4.14995e-11
1.84297e-10
-4.09907e-11
1.95546e-10
-4.03298e-11
2.06572e-10
-3.9533e-11
2.1734e-10
-3.86159e-11
2.2782e-10
-3.75941e-11
2.37987e-10
-3.64811e-11
2.47818e-10
-3.52901e-11
2.57294e-10
-3.40345e-11
2.66401e-10
-3.27253e-11
2.75126e-10
-3.13738e-11
2.83459e-10
-2.9991e-11
2.91394e-10
-2.85855e-11
2.98927e-10
-2.71661e-11
3.06055e-10
-2.57422e-11
3.12781e-10
-2.43213e-11
3.19106e-10
-2.29101e-11
3.25036e-10
-2.15152e-11
3.30574e-10
-2.01428e-11
3.35732e-10
-1.87978e-11
3.40517e-10
-1.74854e-11
3.44939e-10
-1.62108e-11
3.49012e-10
-1.49772e-11
3.52747e-10
-1.37879e-11
3.56158e-10
-1.26465e-11
3.5926e-10
-1.15557e-11
3.62069e-10
-1.05172e-11
3.64599e-10
-9.53337e-12
3.66867e-10
-8.60583e-12
3.6889e-10
-7.73502e-12
3.70684e-10
-6.92202e-12
3.72267e-10
-6.168e-12
3.73655e-10
-5.47286e-12
3.74866e-10
-4.836e-12
3.75916e-10
-4.25716e-12
3.76821e-10
-3.73604e-12
3.776e-10
-3.27166e-12
3.78267e-10
-2.86264e-12
3.78839e-10
-2.50786e-12
3.7933e-10
-2.20574e-12
3.79755e-10
-1.95368e-12
3.8013e-10
-1.7498e-12
3.80467e-10
-1.59301e-12
3.8078e-10
-1.48106e-12
3.8108e-10
-1.41085e-12
3.81379e-10
-1.37977e-12
3.81687e-10
-1.38523e-12
3.82015e-10
-1.42418e-12
3.82372e-10
-1.49362e-12
3.82765e-10
-1.5909e-12
3.83201e-10
-1.71323e-12
3.83688e-10
-1.85702e-12
3.8423e-10
-2.01857e-12
3.84832e-10
-2.19478e-12
3.85497e-10
-2.38267e-12
3.86227e-10
-2.57882e-12
3.87024e-10
-2.77946e-12
3.87888e-10
-2.98125e-12
3.88818e-10
-3.18106e-12
3.89814e-10
-3.37537e-12
3.90872e-10
-3.56078e-12
3.91989e-10
-3.73419e-12
3.9316e-10
-3.89232e-12
3.9438e-10
-4.03168e-12
3.95642e-10
-4.14882e-12
3.9694e-10
-4.241e-12
3.98264e-10
-4.30558e-12
3.99605e-10
-4.33924e-12
4.00956e-10
-4.33883e-12
4.02303e-10
-4.30172e-12
4.03636e-10
-4.22552e-12
4.04943e-10
-4.10785e-12
4.0621e-10
-3.94596e-12
4.07425e-10
-3.73766e-12
4.08573e-10
-3.48125e-12
4.09638e-10
-3.17447e-12
4.10606e-10
-2.81533e-12
4.11462e-10
-2.40251e-12
4.12189e-10
-1.93465e-12
4.12771e-10
-1.4107e-12
4.13189e-10
-8.2958e-13
4.13429e-10
-1.89994e-13
4.13474e-10
5.08314e-13
4.13304e-10
1.26517e-12
4.12904e-10
2.08118e-12
4.12256e-10
2.95641e-12
4.11342e-10
3.8904e-12
4.10148e-10
4.88268e-12
4.08655e-10
5.93172e-12
4.06847e-10
7.03608e-12
4.04708e-10
8.19498e-12
4.02225e-10
9.40645e-12
3.99381e-10
1.0668e-11
3.96162e-10
1.19775e-11
3.92557e-10
1.33321e-11
3.88553e-10
1.47282e-11
3.84139e-10
1.61627e-11
3.79305e-10
1.76318e-11
3.74041e-10
1.91312e-11
3.68342e-10
2.06565e-11
3.62202e-10
2.22025e-11
3.55616e-10
2.37631e-11
3.4858e-10
2.53328e-11
3.41096e-10
2.69055e-11
3.33164e-10
2.84741e-11
3.24788e-10
3.00309e-11
3.15973e-10
3.15688e-11
3.06728e-10
3.30795e-11
2.97063e-10
3.45536e-11
2.86992e-10
3.59817e-11
2.76531e-10
3.73542e-11
2.65699e-10
3.86603e-11
2.54518e-10
3.98888e-11
2.43013e-10
4.10286e-11
2.31215e-10
4.20667e-11
2.19156e-10
4.29896e-11
2.06872e-10
4.37842e-11
1.94404e-10
4.44361e-11
1.81797e-10
4.49298e-11
1.69098e-10
4.52498e-11
1.56361e-10
4.53802e-11
1.43644e-10
4.53038e-11
1.31008e-10
4.50026e-11
1.18518e-10
4.44591e-11
1.06245e-10
4.36563e-11
9.42633e-11
4.25764e-11
8.26511e-11
4.12022e-11
7.1489e-11
3.95183e-11
6.08613e-11
3.75114e-11
5.08521e-11
3.51713e-11
4.15452e-11
3.24929e-11
3.30235e-11
2.9479e-11
2.53652e-11
2.61434e-11
1.86393e-11
2.25158e-11
1.2905e-11
1.86489e-11
8.20843e-12
1.46269e-11
4.57519e-12
1.05771e-11
2.00828e-12
6.68463e-12
4.94173e-13
3.21622e-12
5.91691e-13
6.62184e-13
-2.08716e-12
2.6926e-12
-5.85909e-12
5.98437e-12
-1.02387e-11
1.0454e-11
-1.51616e-11
1.60485e-11
-2.02544e-11
2.27146e-11
-2.52534e-11
3.0384e-11
-2.99939e-11
3.89845e-11
-3.43748e-11
4.8434e-11
-3.83427e-11
5.86451e-11
-4.18692e-11
6.95246e-11
-4.49476e-11
8.09806e-11
-4.75819e-11
9.29217e-11
-4.97831e-11
1.05259e-10
-5.15706e-11
1.17906e-10
-5.29648e-11
1.3078e-10
-5.39897e-11
1.43802e-10
-5.46701e-11
1.56901e-10
-5.50297e-11
1.70009e-10
-5.50953e-11
1.83062e-10
-5.48914e-11
1.96004e-10
-5.44409e-11
2.08781e-10
-5.37683e-11
2.21346e-10
-5.28955e-11
2.33657e-10
-5.18436e-11
2.45675e-10
-5.06344e-11
2.57368e-10
-4.92864e-11
2.68705e-10
-4.78181e-11
2.79662e-10
-4.62477e-11
2.90217e-10
-4.45905e-11
3.00355e-10
-4.28624e-11
3.1006e-10
-4.10788e-11
3.19321e-10
-3.92527e-11
3.28133e-10
-3.73967e-11
3.36489e-10
-3.55228e-11
3.44389e-10
-3.36424e-11
3.51832e-10
-3.17648e-11
3.58823e-10
-2.99002e-11
3.65366e-10
-2.80577e-11
3.71467e-10
-2.62447e-11
3.77137e-10
-2.4468e-11
3.82386e-10
-2.27348e-11
3.87225e-10
-2.1051e-11
3.9167e-10
-1.94216e-11
3.95733e-10
-1.78519e-11
3.99431e-10
-1.63455e-11
4.02781e-10
-1.49056e-11
4.058e-10
-1.35359e-11
4.08506e-10
-1.22394e-11
4.10917e-10
-1.10172e-11
4.13053e-10
-9.87076e-12
4.14933e-10
-8.80198e-12
4.16576e-10
-7.81162e-12
4.18002e-10
-6.89911e-12
4.19231e-10
-6.06444e-12
4.20281e-10
-5.30778e-12
4.21172e-10
-4.6279e-12
4.21924e-10
-4.02313e-12
4.22553e-10
-3.49227e-12
4.2308e-10
-3.03395e-12
4.23521e-10
-2.64605e-12
4.23893e-10
-2.32579e-12
4.24213e-10
-2.07037e-12
4.24495e-10
-1.87696e-12
4.24757e-10
-1.74238e-12
4.25011e-10
-1.66376e-12
4.2527e-10
-1.63831e-12
4.25547e-10
-1.66196e-12
4.25852e-10
-1.73009e-12
4.26198e-10
-1.8389e-12
4.26591e-10
-1.98503e-12
4.27042e-10
-2.16436e-12
4.27557e-10
-2.37211e-12
4.28143e-10
-2.60383e-12
4.28803e-10
-2.85542e-12
4.29543e-10
-3.12245e-12
4.30365e-10
-3.40032e-12
4.3127e-10
-3.68453e-12
4.32259e-10
-3.97061e-12
4.33331e-10
-4.25385e-12
4.34485e-10
-4.52937e-12
4.35718e-10
-4.79289e-12
4.37024e-10
-5.04062e-12
4.384e-10
-5.268e-12
4.39838e-10
-5.4701e-12
4.41332e-10
-5.64256e-12
4.42873e-10
-5.78175e-12
4.44451e-10
-5.88399e-12
4.46056e-10
-5.94482e-12
4.47677e-10
-5.95999e-12
4.49302e-10
-5.92621e-12
4.50916e-10
-5.84011e-12
4.52507e-10
-5.69826e-12
4.54059e-10
-5.49738e-12
4.55556e-10
-5.23446e-12
4.56982e-10
-4.90702e-12
4.58321e-10
-4.51245e-12
4.59554e-10
-4.04792e-12
4.60664e-10
-3.51159e-12
4.61632e-10
-2.90199e-12
4.62439e-10
-2.21726e-12
4.63065e-10
-1.45596e-12
4.63491e-10
-6.16838e-13
4.63699e-10
3.01035e-13
4.63667e-10
1.2974e-12
4.63375e-10
2.37243e-12
4.62805e-10
3.52663e-12
4.61936e-10
4.75924e-12
4.60749e-10
6.06923e-12
4.59225e-10
7.45544e-12
4.57346e-10
8.91578e-12
4.55093e-10
1.04483e-11
4.52448e-10
1.20508e-11
4.49395e-10
1.37201e-11
4.45919e-10
1.5453e-11
4.42003e-10
1.72464e-11
4.37636e-10
1.90956e-11
4.32803e-10
2.09953e-11
4.27493e-10
2.29408e-11
4.21697e-10
2.49268e-11
4.15406e-10
2.6947e-11
4.08613e-10
2.89945e-11
4.01315e-10
3.10619e-11
3.93507e-10
3.31407e-11
3.85189e-10
3.52229e-11
3.76363e-10
3.72998e-11
3.67033e-10
3.93613e-11
3.57205e-10
4.13965e-11
3.46887e-10
4.33952e-11
3.36094e-10
4.53461e-11
3.24841e-10
4.72358e-11
3.13143e-10
4.90512e-11
3.01025e-10
5.07786e-11
2.88512e-10
5.24032e-11
2.7563e-10
5.39094e-11
2.62415e-10
5.52814e-11
2.48902e-10
5.6502e-11
2.35134e-10
5.75529e-11
2.21153e-10
5.84156e-11
2.07013e-10
5.9071e-11
1.92765e-10
5.94985e-11
1.78469e-10
5.96768e-11
1.64189e-10
5.95845e-11
1.49992e-10
5.92e-11
1.3595e-10
5.85006e-11
1.22142e-10
5.74644e-11
1.08648e-10
5.60701e-11
9.55523e-11
5.42975e-11
8.29435e-11
5.21274e-11
7.09119e-11
4.95439e-11
5.95482e-11
4.6536e-11
4.89423e-11
4.30992e-11
3.91836e-11
3.92379e-11
3.03571e-11
3.49699e-11
2.2541e-11
3.03319e-11
1.58045e-11
2.53848e-11
1.02076e-11
2.02238e-11
5.79699e-12
1.49885e-11
2.60661e-12
9.87533e-12
6.64746e-13
5.15864e-12
1.2571e-12
7.99808e-13
-2.89003e-12
3.18505e-12
-8.24393e-12
7.01928e-12
-1.40722e-11
1.21839e-11
-2.03245e-11
1.85861e-11
-2.66592e-11
2.61485e-11
-3.28162e-11
3.47865e-11
-3.86314e-11
4.44109e-11
-4.40012e-11
5.49327e-11
-4.88636e-11
6.6254e-11
-5.31907e-11
7.82774e-11
-5.69713e-11
9.09052e-11
-6.02091e-11
1.04039e-10
-6.29182e-11
1.17586e-10
-6.51172e-11
1.31454e-10
-6.68321e-11
1.45554e-10
-6.80905e-11
1.59806e-10
-6.89207e-11
1.74129e-10
-6.9353e-11
1.88451e-10
-6.94183e-11
2.02706e-10
-6.91457e-11
2.16831e-10
-6.85654e-11
2.30769e-10
-6.7706e-11
2.44468e-10
-6.65947e-11
2.57883e-10
-6.52588e-11
2.70972e-10
-6.37235e-11
2.83699e-10
-6.20128e-11
2.96031e-10
-6.01507e-11
3.07942e-10
-5.81586e-11
3.19408e-10
-5.60569e-11
3.30411e-10
-5.38657e-11
3.40935e-10
-5.16033e-11
3.50968e-10
-4.92864e-11
3.60504e-10
-4.69318e-11
3.69536e-10
-4.45553e-11
3.78063e-10
-4.21695e-11
3.86086e-10
-3.97876e-11
3.93607e-10
-3.74224e-11
4.00634e-10
-3.50845e-11
4.07174e-10
-3.27841e-11
4.13237e-10
-3.0531e-11
4.18834e-10
-2.83331e-11
4.23981e-10
-2.61976e-11
4.28692e-10
-2.41322e-11
4.32982e-10
-2.21429e-11
4.3687e-10
-2.02342e-11
4.40376e-10
-1.84109e-11
4.43517e-10
-1.66777e-11
4.46314e-10
-1.50371e-11
4.48789e-10
-1.34917e-11
4.50962e-10
-1.20439e-11
4.52855e-10
-1.06954e-11
4.5449e-10
-9.44666e-12
4.55889e-10
-8.29789e-12
4.57074e-10
-7.2492e-12
4.58067e-10
-6.3003e-12
4.58888e-10
-5.44969e-12
4.59561e-10
-4.69569e-12
4.60104e-10
-4.03659e-12
4.60539e-10
-3.46971e-12
4.60886e-10
-2.99256e-12
4.61164e-10
-2.60285e-12
4.61391e-10
-2.29701e-12
4.61584e-10
-2.07052e-12
4.61761e-10
-1.91933e-12
4.61937e-10
-1.83994e-12
4.62127e-10
-1.82832e-12
4.62344e-10
-1.87941e-12
4.62603e-10
-1.98802e-12
4.62913e-10
-2.14941e-12
4.63286e-10
-2.35856e-12
4.63732e-10
-2.60979e-12
4.64257e-10
-2.89749e-12
4.6487e-10
-3.21634e-12
4.65575e-10
-3.56079e-12
4.66377e-10
-3.92472e-12
4.67279e-10
-4.30235e-12
4.68283e-10
-4.68831e-12
4.69389e-10
-5.07676e-12
4.70597e-10
-5.46147e-12
4.71905e-10
-5.83647e-12
4.73308e-10
-6.19629e-12
4.74803e-10