/*--------------------------------*- C++ -*----------------------------------*\
  =========                 |
  \\      /  F ield         | OpenFOAM: The Open Source CFD Toolbox
   \\    /   O peration     | Website:  https://openfoam.org
    \\  /    A nd           | Version:  7
     \\/     M anipulation  |
\*---------------------------------------------------------------------------*/
FoamFile
{
    version     2.0;
    format      ascii;
    class       volScalarField;
    location    "0.1";
    object      p;
}
// * * * * * * * * * * * * * * * * * * * * * * * * * * * * * * * * * * * * * //

dimensions      [0 2 -2 0 0 0 0];

internalField   nonuniform List<scalar> 
12800
(
2.2336e-08
1.58673e-05
-4.23455e-05
-0.000180428
-0.000386502
-0.000647527
-0.000949928
-0.00128094
-0.00162953
-0.00198623
-0.00234318
-0.00269383
-0.00303278
-0.00335576
-0.00365938
-0.00394098
-0.00419857
-0.00443058
-0.00463592
-0.00481392
-0.00496418
-0.00508658
-0.00518121
-0.00524831
-0.0052882
-0.00530128
-0.005288
-0.00524888
-0.00518442
-0.00509517
-0.00498169
-0.00484445
-0.00468387
-0.00450035
-0.00429431
-0.00406613
-0.00381612
-0.00354452
-0.00325155
-0.00293739
-0.00260219
-0.00224609
-0.00186924
-0.00147168
-0.00105342
-0.000614474
-0.000154835
0.000325511
0.000826639
0.00134866
0.00189167
0.00245582
0.00304127
0.00364822
0.00427685
0.00492734
0.00559986
0.00629462
0.00701188
0.00775188
0.00851488
0.00930117
0.0101111
0.0109451
0.0118034
0.0126865
0.0135947
0.0145286
0.0154885
0.0164748
0.0174881
0.0185289
0.0195975
0.0206947
0.0218209
0.0229767
0.0241629
0.0253799
0.0266285
0.0279093
0.0292232
0.0305706
0.0319524
0.0333692
0.0348216
0.0363104
0.0378362
0.0393996
0.0410011
0.0426415
0.0443211
0.0460406
0.0478002
0.0496002
0.0514409
0.0533224
0.0552447
0.0572076
0.0592108
0.0612538
0.0633361
0.0654566
0.0676145
0.0698083
0.0720366
0.0742976
0.0765891
0.0789089
0.0812543
0.0836223
0.0860096
0.0884126
0.0908272
0.0932491
0.0956736
0.0980959
0.10051
0.102911
0.105293
0.107648
0.109972
0.112256
0.114494
0.116679
0.118804
0.120861
0.122843
0.124743
0.126555
0.128271
0.129886
0.131393
0.132787
0.134063
0.135217
0.136245
0.137145
0.137915
0.138553
0.13906
0.139437
0.139686
0.13981
0.139814
0.139704
0.139485
0.139168
0.138761
0.138277
0.137727
0.137126
0.136492
0.135843
0.135201
0.134592
0.134042
0.133585
0.133254
0.133086
0.133084
-1.58166e-05
2.65038e-06
-5.10063e-05
-0.000172689
-0.000350425
-0.000574861
-0.00083583
-0.00112329
-0.00142797
-0.0017419
-0.00205806
-0.00237044
-0.00267407
-0.00296479
-0.00323926
-0.00349483
-0.00372938
-0.00394126
-0.00412926
-0.00429253
-0.00443047
-0.00454277
-0.0046293
-0.00469009
-0.0047253
-0.00473517
-0.00472
-0.00468015
-0.00461599
-0.00452793
-0.00441639
-0.00428176
-0.00412437
-0.00394456
-0.00374262
-0.00351881
-0.00327339
-0.00300661
-0.00271865
-0.00240962
-0.00207962
-0.00172877
-0.00135715
-0.000964805
-0.000551743
-0.000117968
0.000336536
0.000811831
0.00130801
0.00182519
0.00236348
0.00292301
0.00350397
0.00410656
0.00473096
0.00537735
0.00604593
0.00673692
0.00745056
0.00818708
0.00894673
0.00972983
0.0105367
0.0113678
0.0122234
0.0131038
0.0140096
0.0149411
0.0158987
0.0168828
0.017894
0.0189326
0.0199992
0.0210942
0.0222184
0.023372
0.0245559
0.0257705
0.0270166
0.0282947
0.0296055
0.0309497
0.0323278
0.0337404
0.0351883
0.0366719
0.0381919
0.0397488
0.041343
0.0429752
0.0446458
0.0463551
0.0481034
0.049891
0.0517179
0.0535843
0.05549
0.0574346
0.059418
0.0614394
0.0634981
0.0655933
0.0677237
0.0698881
0.0720849
0.0743122
0.0765679
0.0788497
0.0811548
0.0834805
0.0858234
0.0881798
0.0905459
0.0929174
0.0952899
0.0976585
0.100018
0.102363
0.104687
0.106985
0.10925
0.111477
0.113657
0.115785
0.117854
0.119857
0.121787
0.123638
0.125403
0.127076
0.128652
0.130124
0.131489
0.13274
0.133876
0.134892
0.135786
0.136557
0.137204
0.137727
0.138128
0.138408
0.138572
0.138624
0.138568
0.138414
0.138167
0.137839
0.137439
0.13698
0.136477
0.135943
0.135398
0.13486
0.134351
0.133893
0.133511
0.133231
0.133083
0.133081
4.51448e-05
6.13129e-05
7.9333e-06
-0.000106169
-0.000268523
-0.000471279
-0.000706178
-0.000964835
-0.00123952
-0.00152325
-0.00180983
-0.0020939
-0.00237084
-0.00263679
-0.00288857
-0.00312354
-0.00333959
-0.00353508
-0.00370873
-0.0038596
-0.00398702
-0.00409054
-0.0041699
-0.00422499
-0.00425582
-0.00426253
-0.00424533
-0.00420444
-0.00414013
-0.00405271
-0.00394247
-0.00380972
-0.00365475
-0.00347784
-0.00327918
-0.00305895
-0.00281736
-0.00255462
-0.00227088
-0.00196623
-0.00164072
-0.00129445
-0.00092743
-0.00053969
-0.000131236
0.000297926
0.000747834
0.00121859
0.0017103
0.00222307
0.00275702
0.0033123
0.00388912
0.00448766
0.00510811
0.00575065
0.00641549
0.00710288
0.00781303
0.00854617
0.00930256
0.0100825
0.0108864
0.0117145
0.0125673
0.013445
0.0143482
0.0152771
0.0162322
0.0172139
0.0182226
0.0192588
0.020323
0.0214156
0.0225372
0.0236883
0.0248695
0.0260814
0.0273245
0.0285996
0.0299071
0.0312476
0.0326218
0.0340302
0.0354734
0.0369518
0.038466
0.0400165
0.0416038
0.0432283
0.0448905
0.0465905
0.0483286
0.050105
0.0519198
0.0537729
0.0556641
0.0575931
0.0595594
0.0615624
0.0636014
0.0656753
0.067783
0.0699231
0.0720939
0.0742936
0.0765201
0.0787711
0.081044
0.0833357
0.0856431
0.0879625
0.0902903
0.0926223
0.094954
0.0972807
0.0995974
0.101899
0.104179
0.106433
0.108654
0.110836
0.112972
0.115057
0.117084
0.119046
0.120938
0.122752
0.124482
0.126124
0.127671
0.129118
0.130461
0.131695
0.132817
0.133825
0.134716
0.135489
0.136143
0.136679
0.137099
0.137403
0.137597
0.137685
0.137671
0.137564
0.13737
0.137099
0.136761
0.136369
0.135934
0.135471
0.134996
0.134526
0.134081
0.133678
0.133338
0.133081
0.132934
0.132914
0.000191187
0.000190199
0.0001278
1.23345e-05
-0.000145015
-0.000337218
-0.000557202
-0.000797882
-0.00105262
-0.0013153
-0.00158052
-0.00184346
-0.00209996
-0.00234653
-0.00258019
-0.00279842
-0.00299922
-0.00318096
-0.00334235
-0.00348246
-0.00360056
-0.00369615
-0.00376891
-0.00381865
-0.00384528
-0.00384884
-0.00382945
-0.00378726
-0.00372249
-0.00363534
-0.003526
-0.00339468
-0.00324164
-0.00306709
-0.00287118
-0.00265404
-0.00241585
-0.00215672
-0.00187677
-0.00157607
-0.00125468
-0.000912628
-0.000549907
-0.000166496
0.0002376
0.000662389
0.00110794
0.00157437
0.00206178
0.00257028
0.00310002
0.00365116
0.00422392
0.00481847
0.005435
0.0060737
0.0067348
0.00741854
0.00812512
0.00885478
0.00960778
0.0103845
0.0111852
0.0120102
0.0128599
0.0137347
0.0146349
0.015561
0.0165133
0.0174922
0.0184981
0.0195314
0.0205928
0.0216825
0.0228011
0.0239492
0.0251272
0.0263359
0.0275756
0.0288471
0.0301508
0.0314873
0.0328572
0.0342609
0.035699
0.037172
0.0386802
0.0402242
0.0418045
0.0434214
0.0450752
0.0467662
0.0484946
0.0502604
0.0520638
0.0539046
0.0557825
0.0576973
0.0596483
0.061635
0.0636564
0.0657117
0.0677995
0.0699185
0.072067
0.0742432
0.076445
0.0786701
0.0809159
0.0831794
0.0854574
0.0877466
0.090043
0.0923428
0.0946416
0.0969348
0.0992173
0.101484
0.10373
0.105949
0.108135
0.110282
0.112385
0.114437
0.116432
0.118363
0.120225
0.122011
0.123716
0.125334
0.12686
0.128289
0.129616
0.130839
0.131952
0.132955
0.133844
0.13462
0.135281
0.135827
0.136262
0.136586
0.136803
0.136918
0.136937
0.136865
0.13671
0.136481
0.136189
0.135843
0.135456
0.135041
0.134613
0.134186
0.133776
0.133401
0.133078
0.132822
0.132654
0.132586
0.000408146
0.000376385
0.000295969
0.000172263
1.31407e-05
-0.000175212
-0.000386772
-0.00061558
-0.000855942
-0.00110267
-0.00135103
-0.00159677
-0.00183624
-0.00206628
-0.00228417
-0.00248762
-0.00267473
-0.00284397
-0.00299411
-0.0031242
-0.00323351
-0.00332152
-0.00338787
-0.00343233
-0.00345476
-0.00345512
-0.00343344
-0.0033898
-0.00332437
-0.00323726
-0.00312862
-0.00299859
-0.00284732
-0.00267496
-0.00248162
-0.00226744
-0.00203253
-0.00177694
-0.00150074
-0.00120398
-0.000886692
-0.000548869
-0.000190469
0.00018854
0.000588179
0.0010085
0.0014496
0.00191158
0.00239456
0.00289865
0.00342402
0.00397086
0.00453936
0.00512971
0.00574209
0.00637673
0.00703386
0.00771369
0.00841643
0.00914232
0.00989165
0.0106648
0.0114619
0.0122835
0.0131298
0.0140013
0.0148982
0.015821
0.0167701
0.0177457
0.0187483
0.0197784
0.0208364
0.0219227
0.0230378
0.0241823
0.0253567
0.0265615
0.0277973
0.0290646
0.030364
0.0316958
0.0330608
0.0344592
0.0358917
0.0373586
0.0388603
0.0403974
0.0419701
0.0435789
0.0452241
0.0469057
0.048624
0.0503791
0.052171
0.0539995
0.0558643
0.057765
0.0597011
0.0616718
0.0636764
0.0657137
0.0677827
0.0698817
0.0720093
0.0741636
0.0763425
0.0785438
0.0807647
0.0830025
0.085254
0.0875159
0.0897844
0.0920556
0.0943253
0.0965889
0.0988417
0.101078
0.103294
0.105483
0.107639
0.109758
0.111832
0.113856
0.115824
0.11773
0.119567
0.121331
0.123015
0.124615
0.126124
0.127539
0.128854
0.130068
0.131175
0.132175
0.133064
0.133843
0.13451
0.135066
0.135514
0.135855
0.136092
0.136231
0.136275
0.136233
0.13611
0.135915
0.135658
0.135349
0.134998
0.134619
0.134223
0.133824
0.133436
0.133073
0.132749
0.132479
0.132273
0.132135
0.000681767
0.000610015
0.000504616
0.000366833
0.000200153
9.82483e-06
-0.000198956
-0.000421195
-0.000652204
-0.000887541
-0.00112314
-0.0013554
-0.0015811
-0.0017974
-0.00200191
-0.00219257
-0.00236764
-0.00252573
-0.00266569
-0.00278662
-0.00288782
-0.00296875
-0.00302904
-0.00306844
-0.00308678
-0.00308397
-0.00306
-0.00301489
-0.0029487
-0.00286151
-0.00275342
-0.00262453
-0.00247491
-0.00230462
-0.00211375
-0.00190242
-0.00167068
-0.00141856
-0.00114607
-0.000853244
-0.000540057
-0.000206456
0.00014761
0.000522175
0.000917302
0.00133309
0.00176965
0.0022271
0.00270554
0.00320511
0.00372599
0.00426839
0.00483249
0.00541845
0.00602652
0.00665691
0.00730986
0.00798555
0.0086842
0.00940608
0.0101515
0.0109207
0.0117141
0.0125319
0.0133745
0.0142422
0.0151355
0.0160547
0.0170001
0.017972
0.018971
0.0199973
0.0210515
0.022134
0.0232451
0.0243856
0.0255558
0.0267563
0.0279875
0.0292501
0.0305445
0.0318712
0.0332306
0.0346233
0.0360495
0.0375098
0.0390046
0.0405342
0.042099
0.0436994
0.0453355
0.0470075
0.0487156
0.0504598
0.0522401
0.0540563
0.055908
0.0577949
0.0597164
0.0616717
0.06366
0.0656803
0.0677313
0.0698117
0.0719197
0.0740537
0.0762116
0.078391
0.0805894
0.0828041
0.0850318
0.0872694
0.0895132
0.0917594
0.0940038
0.0962419
0.098469
0.10068
0.10287
0.105034
0.107166
0.10926
0.111311
0.113312
0.115259
0.117144
0.118963
0.120709
0.122378
0.123963
0.12546
0.126864
0.128172
0.129379
0.130483
0.131481
0.132372
0.133155
0.133828
0.134394
0.134853
0.135209
0.135463
0.135621
0.135687
0.135668
0.13557
0.135402
0.135172
0.134889
0.134564
0.134208
0.133833
0.133449
0.133069
0.132705
0.132369
0.132072
0.131815
0.131593
0.00099918
0.000881748
0.000746223
0.000589574
0.000410363
0.000213032
2.13109e-06
-0.000218361
-0.000444528
-0.000672656
-0.000899381
-0.00112164
-0.00133664
-0.00154195
-0.00173547
-0.00191538
-0.00208017
-0.00222856
-0.00235953
-0.00247226
-0.00256612
-0.00264058
-0.00269528
-0.00272997
-0.00274445
-0.00273861
-0.00271243
-0.00266587
-0.00259893
-0.00251162
-0.00240401
-0.00227615
-0.00212806
-0.00195976
-0.00177131
-0.00156275
-0.00133409
-0.00108535
-0.000816538
-0.000527609
-0.000218493
0.000110891
0.000460607
0.000830717
0.00122132
0.00163256
0.00206454
0.00251737
0.00299119
0.00348617
0.00400249
0.00454034
0.0050999
0.00568137
0.00628498
0.00691097
0.00755955
0.00823091
0.00892528
0.00964294
0.0103842
0.0111493
0.0119386
0.0127523
0.0135909
0.0144546
0.015344
0.0162591
0.0172005
0.0181684
0.0191633
0.0201855
0.0212355
0.0223137
0.0234204
0.0245563
0.0257219
0.0269176
0.0281438
0.0294012
0.0306901
0.032011
0.0333644
0.0347507
0.0361703
0.0376235
0.0391109
0.0406326
0.0421891
0.0437807
0.0454075
0.0470696
0.0487673
0.0505005
0.0522691
0.0540731
0.0559119
0.0577852
0.0596925
0.0616329
0.0636057
0.0656097
0.0676439
0.0697067
0.0717967
0.073912
0.0760506
0.0782102
0.0803885
0.0825825
0.0847893
0.0870056
0.089228
0.0914526
0.0936753
0.0958919
0.0980977
0.100288
0.102457
0.104601
0.106713
0.108788
0.11082
0.112805
0.114735
0.116605
0.11841
0.120143
0.121801
0.123376
0.124865
0.126263
0.127567
0.128771
0.129874
0.130874
0.131767
0.132555
0.133235
0.13381
0.134279
0.134647
0.134915
0.135088
0.135172
0.13517
0.135091
0.134942
0.134731
0.134466
0.134158
0.133815
0.133449
0.133069
0.132686
0.132309
0.13195
0.131618
0.131302
0.13099
0.00134871
0.00118217
0.00101298
0.000833701
0.000637977
0.000429616
0.000212471
-1.02418e-05
-0.000235398
-0.000459998
-0.000681242
-0.000896566
-0.00110366
-0.00130046
-0.00148517
-0.00165625
-0.0018124
-0.00195251
-0.0020757
-0.00218123
-0.00226855
-0.0023372
-0.00238685
-0.00241723
-0.00242816
-0.00241954
-0.00239129
-0.00234336
-0.00227571
-0.00218833
-0.00208121
-0.00195434
-0.00180772
-0.00164136
-0.00145527
-0.00124944
-0.00102385
-0.000778473
-0.000513292
-0.00022822
7.68513e-05
0.00040202
0.000747371
0.00111301
0.00149909
0.00190575
0.0023331
0.00278127
0.00325042
0.00374074
0.00425241
0.0047856
0.00534052
0.00591739
0.00651643
0.00713789
0.00778194
0.0084488
0.00913872
0.00985198
0.0105889
0.0113496
0.0121345
0.012944
0.0137783
0.0146378
0.0155228
0.0164337
0.0173707
0.0183342
0.0193247
0.0203424
0.0213878
0.0224613
0.0235633
0.0246942
0.0258546
0.027045
0.0282657
0.0295173
0.0308002
0.0321149
0.0334618
0.0348413
0.0362537
0.0376994
0.0391789
0.0406924
0.0422402
0.0438225
0.0454397
0.0470917
0.0487787
0.0505007
0.0522577
0.0540493
0.0558753
0.0577353
0.0596286
0.0615546
0.0635124
0.065501
0.0675192
0.0695656
0.0716387
0.0737367
0.0758577
0.0779995
0.0801596
0.0823352
0.0845236
0.0867214
0.0889253
0.0911316
0.0933362
0.0955349
0.0977231
0.0998961
0.102049
0.104177
0.106274
0.108334
0.110353
0.112325
0.114244
0.116104
0.1179
0.119626
0.121277
0.122847
0.124332
0.125728
0.12703
0.128235
0.12934
0.130343
0.131241
0.132034
0.132722
0.133305
0.133784
0.134162
0.134442
0.134628
0.134724
0.134736
0.13467
0.134534
0.134334
0.13408
0.133779
0.133441
0.133075
0.13269
0.132295
0.131898
0.131508
0.131133
0.130754
0.13035
0.00171986
0.00150252
0.00129724
0.00109258
0.000877316
0.000654633
0.000427949
0.000199726
-2.76659e-05
-0.000251841
-0.000470509
-0.000681609
-0.000883272
-0.0010738
-0.00125171
-0.00141573
-0.0015648
-0.00169799
-0.00181455
-0.00191388
-0.0019955
-0.00205903
-0.00210418
-0.00213072
-0.0021385
-0.00212739
-0.0020973
-0.00204814
-0.00197989
-0.0018925
-0.00178592
-0.00166007
-0.00151495
-0.00135053
-0.00116678
-0.000963658
-0.000741116
-0.000499108
-0.000237544
4.36992e-05
0.000344741
0.000665692
0.00100668
0.00136786
0.00174941
0.00215145
0.00257413
0.0030176
0.00348204
0.00396764
0.00447459
0.00500305
0.00555324
0.00612541
0.00671979
0.00733658
0.00797597
0.0086382
0.00932354
0.0100322
0.0107646
0.0115208
0.0123012
0.0131062
0.013936
0.0147909
0.0156714
0.0165777
0.01751
0.0184689
0.0194546
0.0204675
0.0215079
0.0225763
0.0236731
0.0247987
0.0259536
0.0271381
0.0283529
0.0295983
0.0308747
0.0321827
0.0335226
0.0348947
0.0362995
0.0377372
0.0392083
0.0407131
0.0422518
0.0438246
0.0454317
0.0470733
0.0487494
0.0504601
0.0522052
0.0539845
0.0557977
0.0576443
0.0595239
0.0614358
0.0633791
0.0653528
0.0673558
0.0693867
0.071444
0.0735261
0.075631
0.0777565
0.0799002
0.0820596
0.0842317
0.0864135
0.0886017
0.0907925
0.0929821
0.0951663
0.0973405
0.0995003
0.101641
0.103756
0.105843
0.107894
0.109904
0.111868
0.11378
0.115634
0.117426
0.119148
0.120797
0.122366
0.123852
0.125249
0.126554
0.127762
0.128872
0.12988
0.130785
0.131585
0.132281
0.132872
0.133361
0.133749
0.134038
0.134234
0.13434
0.134361
0.134304
0.134175
0.133981
0.133731
0.133431
0.13309
0.132717
0.132319
0.131905
0.13148
0.131053
0.130633
0.130189
0.129693
0.00210347
0.00183461
0.00159186
0.00135988
0.00112277
0.000883242
0.000644359
0.000407867
0.00017553
-5.08151e-05
-0.000269414
-0.000478655
-0.000677064
-0.000863314
-0.00103625
-0.00119487
-0.00133832
-0.00146587
-0.00157694
-0.00167105
-0.00174782
-0.00180695
-0.0018482
-0.0018714
-0.00187643
-0.00186316
-0.00183149
-0.00178135
-0.00171267
-0.00162538
-0.0015194
-0.00139465
-0.00125109
-0.00108865
-0.000907258
-0.000706862
-0.000487389
-0.000248739
9.22153e-06
0.000286642
0.000583655
0.000900397
0.00123704
0.00159378
0.00197078
0.00236819
0.00278618
0.00322493
0.00368463
0.00416548
0.00466763
0.0051913
0.00573672
0.00630414
0.00689375
0.00750577
0.00814041
0.00879792
0.00947857
0.0101826
0.0109103
0.0116618
0.0124376
0.0132378
0.014063
0.0149132
0.0157889
0.0166903
0.0176177
0.0185717
0.0195523
0.02056
0.0215951
0.022658
0.0237492
0.0248691
0.026018
0.0271964
0.0284047
0.0296435
0.0309131
0.0322139
0.0335463
0.0349106
0.0363072
0.0377365
0.0391988
0.0406944
0.0422235
0.0437864
0.0453831
0.0470139
0.0486788
0.0503778
0.0521108
0.0538777
0.055678
0.0575114
0.0593775
0.0612755
0.0632047
0.065164
0.0671523
0.0691684
0.0712109
0.0732781
0.0753681
0.0774788
0.0796078
0.0817527
0.0839107
0.0860787
0.0882536
0.0904316
0.0926091
0.0947817
0.0969453
0.0990953
0.101227
0.103335
0.105414
0.107459
0.109465
0.111425
0.113335
0.115188
0.116979
0.118703
0.120354
0.121927
0.123416
0.124819
0.126129
0.127345
0.128462
0.129478
0.130391
0.131201
0.131905
0.132506
0.133004
0.1334
0.133698
0.133902
0.134015
0.134042
0.13399
0.133864
0.133671
0.133418
0.133114
0.132765
0.132378
0.131961
0.131522
0.131064
0.130598
0.130128
0.129618
0.129034
0.00249142
0.00217109
0.00189015
0.00162954
0.00136892
0.00111066
0.00085744
0.000610457
0.000370957
0.000140238
-8.0431e-05
-0.000289841
-0.000486912
-0.000670679
-0.000840288
-0.000994997
-0.00113418
-0.00125731
-0.00136397
-0.00145382
-0.00152656
-0.00158201
-0.00162
-0.0016404
-0.00164312
-0.00162805
-0.00159512
-0.00154425
-0.00147535
-0.00138831
-0.00128306
-0.00115952
-0.0010176
-0.000857203
-0.000678229
-0.000480605
-0.000264223
-2.89311e-05
0.000225436
0.000499032
0.000792012
0.00110456
0.00143689
0.00178919
0.00216164
0.00255443
0.00296773
0.00340176
0.00385672
0.00433277
0.00483012
0.00534898
0.0058896
0.00645221
0.00703701
0.00764421
0.00827404
0.00892677
0.00960266
0.0103019
0.0110248
0.0117716
0.0125426
0.013338
0.0141583
0.0150036
0.0158743
0.0167707
0.017693
0.0186417
0.019617
0.0206192
0.0216487
0.0227058
0.0237911
0.0249048
0.0260473
0.0272192
0.0284207
0.0296524
0.0309147
0.0322079
0.0335324
0.0348884
0.0362765
0.0376969
0.0391499
0.0406358
0.0421549
0.0437073
0.0452932
0.0469128
0.0485662
0.0502533
0.051974
0.0537281
0.0555155
0.0573357
0.0591883
0.0610725
0.0629878
0.064933
0.0669072
0.0689092
0.0709376
0.0729907
0.0750669
0.077164
0.0792797
0.0814118
0.0835574
0.0857136
0.0878773
0.090045
0.0922129
0.0943769
0.0965328
0.0986761
0.100802
0.102906
0.104982
0.107025
0.10903
0.110991
0.112902
0.114759
0.116554
0.118283
0.119941
0.121521
0.123018
0.12443
0.12575
0.126976
0.128103
0.12913
0.130054
0.130874
0.131589
0.1322
0.132707
0.133112
0.133418
0.133628
0.133746
0.133776
0.133726
0.133599
0.133403
0.133144
0.13283
0.132467
0.132062
0.131622
0.131153
0.130659
0.130149
0.129629
0.129055
0.128386
0.00287659
0.00250533
0.00218592
0.00189587
0.0016106
0.00133213
0.00106294
0.000803741
0.000555257
0.000318333
9.38134e-05
-0.000117508
-0.000314921
-0.00049778
-0.000665525
-0.000817683
-0.00095385
-0.0010737
-0.00117696
-0.00126345
-0.00133298
-0.00138547
-0.00142083
-0.00143898
-0.00143985
-0.00142339
-0.00138954
-0.00133822
-0.00126932
-0.00118274
-0.0010784
-0.000956197
-0.000816018
-0.000657743
-0.000481271
-0.00028648
-7.32111e-05
0.000158717
0.000409479
0.000679244
0.000968207
0.00127659
0.00160462
0.00195251
0.00232044
0.00270861
0.00311727
0.0035466
0.00399682
0.0044681
0.00496065
0.00547472
0.00601054
0.00656834
0.0071483
0.00775067
0.00837568
0.00902361
0.00969469
0.0103891
0.0111072
0.0118491
0.0126153
0.0134058
0.0142211
0.0150614
0.0159269
0.016818
0.017735
0.0186782
0.0196479
0.0206444
0.0216679
0.0227191
0.023798
0.0249053
0.0260412
0.0272061
0.0284005
0.0296248
0.0308793
0.0321644
0.0334805
0.0348278
0.0362069
0.0376178
0.0390611
0.0405369
0.0420454
0.0435869
0.0451616
0.0467696
0.048411
0.0500858
0.0517939
0.0535352
0.0553094
0.0571162
0.0589552
0.0608258
0.0627271
0.0646585
0.0666189
0.0686072
0.070622
0.0726619
0.0747251
0.0768096
0.0789133
0.0810338
0.0831687
0.0853149
0.0874694
0.0896288
0.0917894
0.0939473
0.0960983
0.098238
0.100362
0.102464
0.104541
0.106586
0.108594
0.110559
0.112476
0.11434
0.116143
0.117882
0.119549
0.121141
0.122651
0.124075
0.125408
0.126647
0.127788
0.128829
0.129766
0.130598
0.131326
0.131948
0.132465
0.132879
0.133192
0.133407
0.133529
0.133561
0.13351
0.13338
0.133177
0.132908
0.13258
0.1322
0.131773
0.131305
0.130803
0.13027
0.129715
0.129144
0.128507
0.127758
0.00325266
0.00283119
0.00247345
0.00215355
0.00184278
0.00154307
0.00125671
0.00098393
0.000725001
0.000480385
0.00025052
3.58054e-05
-0.000163381
-0.000346708
-0.000513897
-0.000664724
-0.000799009
-0.000916615
-0.00101744
-0.00110143
-0.00116854
-0.00121876
-0.00125211
-0.00126855
-0.00126807
-0.00125064
-0.00121623
-0.00116474
-0.0010961
-0.0010102
-0.000906961
-0.000786248
-0.000647935
-0.000491901
-0.000318013
-0.000126106
8.40184e-05
0.00031256
0.000559701
0.000825639
0.00111061
0.00141487
0.00173864
0.00208214
0.00244558
0.00282921
0.00323326
0.00365795
0.00410346
0.00457001
0.00505783
0.00556716
0.00609823
0.00665123
0.00722639
0.00782396
0.00844419
0.00908733
0.00975359
0.0104432
0.0111564
0.0118935
0.0126547
0.0134403
0.0142505
0.0150856
0.0159459
0.0168316
0.0177431
0.0186807
0.0196445
0.020635
0.0216524
0.0226972
0.0237697
0.0248701
0.025999
0.0271567
0.0283436
0.02956
0.0308064
0.0320831
0.0333903
0.0347285
0.036098
0.0374991
0.0389321
0.0403972
0.0418947
0.0434248
0.0449878
0.0465838
0.0482128
0.0498749
0.05157
0.053298
0.0550588
0.056852
0.0586773
0.0605341
0.0624216
0.0643392
0.0662859
0.0682608
0.0702625
0.0722896
0.0743405
0.0764132
0.0785059
0.0806161
0.0827414
0.0848791
0.0870261
0.0891792
0.0913347
0.0934887
0.0956373
0.0977759
0.0999
0.102005
0.104085
0.106135
0.108149
0.110123
0.112049
0.113924
0.11574
0.117492
0.119173
0.12078
0.122306
0.123747
0.125097
0.126353
0.127511
0.128568
0.129521
0.130369
0.13111
0.131744
0.132273
0.132696
0.133017
0.133238
0.133362
0.133395
0.133341
0.133205
0.132993
0.132712
0.132367
0.131965
0.131513
0.131015
0.130477
0.129904
0.129303
0.12868
0.127981
0.127156
0.00361385
0.00314315
0.00274741
0.00239746
0.00206077
0.00173911
0.00143468
0.00114727
0.000876763
0.000623242
0.000386775
0.000167426
-3.47569e-05
-0.000219747
-0.000387526
-0.000538106
-0.00067153
-0.000787844
-0.000887112
-0.000969415
-0.00103485
-0.0010835
-0.00111543
-0.00113069
-0.00112934
-0.00111137
-0.00107675
-0.00102542
-0.000957302
-0.00087233
-0.000770382
-0.00065132
-0.00051502
-0.000361347
-0.000190125
-1.14382e-06
0.000205807
0.000430931
0.000674443
0.00093658
0.00121761
0.00151778
0.00183733
0.00217649
0.00253552
0.00291469
0.00331422
0.00373433
0.00417522
0.00463713
0.00512031
0.00562499
0.00615137
0.00669966
0.0072701
0.00786295
0.00847846
0.00911685
0.00977833
0.0104631
0.0111715
0.0119037
0.01266
0.0134406
0.0142457
0.0150755
0.0159305
0.0168107
0.0177166
0.0186484
0.0196062
0.0205906
0.0216017
0.0226399
0.0237056
0.024799
0.0259206
0.0270707
0.0282497
0.029458
0.0306958
0.0319636
0.0332616
0.0345902
0.0359497
0.0373404
0.0387626
0.0402165
0.0417025
0.0432208
0.0447715
0.0463549
0.047971
0.04962
0.0513017
0.0530161
0.0547631
0.0565425
0.0583537
0.0601964
0.06207
0.0639737
0.0659069
0.0678684
0.0698572
0.0718719
0.0739109
0.0759726
0.0780549
0.0801557
0.0822727
0.0844031
0.0865441
0.0886925
0.0908446
0.0929969
0.0951452
0.0972852
0.0994123
0.101522
0.103608
0.105666
0.107691
0.109676
0.111616
0.113505
0.115337
0.117106
0.118806
0.120432
0.121978
0.123439
0.12481
0.126086
0.127264
0.128341
0.129313
0.130178
0.130936
0.131585
0.132127
0.132561
0.13289
0.133116
0.133243
0.133275
0.133217
0.133074
0.132851
0.132555
0.132191
0.131766
0.131285
0.130755
0.13018
0.129564
0.128916
0.128243
0.127483
0.126585
0.00395499
0.00343607
0.00300276
0.00262286
0.00226005
0.001916
0.00159284
0.00129004
0.00100708
0.000743686
0.000499599
0.000274575
6.83524e-05
-0.000119323
-0.00028869
-0.000439987
-0.000573459
-0.000689338
-0.000787849
-0.00086923
-0.000933686
-0.000981386
-0.00101249
-0.00102711
-0.00102536
-0.00100726
-0.000972791
-0.000921931
-0.000854635
-0.000770812
-0.000670348
-0.000553116
-0.000418981
-0.000267773
-9.92814e-05
8.67265e-05
0.000290469
0.000512166
0.000752067
0.00101045
0.00128758
0.00158372
0.00189912
0.00223404
0.00258877
0.00296357
0.00335868
0.00377431
0.0042107
0.00466812
0.00514678
0.00564692
0.00616873
0.00671243
0.00727829
0.00786654
0.00847742
0.00911114
0.00976792
0.010448
0.0111516
0.011879
0.0126303
0.0134059
0.0142058
0.0150304
0.01588
0.0167548
0.0176549
0.0185808
0.0195326
0.0205107
0.0215153
0.0225468
0.0236054
0.0246916
0.0258056
0.0269478
0.0281186
0.0293184
0.0305473
0.0318058
0.0330941
0.0344126
0.0357616
0.0371415
0.0385524
0.0399947
0.0414686
0.0429745
0.0445124
0.0460828
0.0476855
0.0493208
0.0509886
0.052689
0.0544218
0.0561868
0.0579836
0.059812
0.0616713
0.063561
0.0654804
0.0674286
0.0694046
0.071407
0.0734345
0.0754854
0.077558
0.0796502
0.0817596
0.0838838
0.08602
0.088165
0.0903154
0.0924676
0.0946176
0.0967611
0.0988936
0.10101
0.103106
0.105175
0.107213
0.109213
0.111169
0.113077
0.114928
0.116718
0.118441
0.12009
0.12166
0.123145
0.12454
0.125841
0.127043
0.128143
0.129137
0.130023
0.1308
0.131466
0.132022
0.132468
0.132806
0.133039
0.133169
0.1332
0.133138
0.132986
0.132751
0.132438
0.132054
0.131603
0.131093
0.130528
0.129914
0.129255
0.12856
0.127836
0.127018
0.126048
0.00427132
0.00370519
0.00323492
0.00282529
0.00243632
0.00206964
0.00172735
0.00140859
0.00111249
0.000838467
0.000585946
0.000354384
0.000143248
-4.7984e-05
-0.000219799
-0.000372649
-0.000506973
-0.000623191
-0.000721691
-0.000802837
-0.000866948
-0.000914294
-0.000945123
-0.000959625
-0.000957915
-0.000940063
-0.000906105
-0.000856042
-0.000789832
-0.000707386
-0.000608604
-0.000493373
-0.000361534
-0.000212876
-4.71656e-05
0.00013583
0.000336342
0.000554625
0.000790967
0.00104566
0.00131896
0.00161115
0.0019225
0.00225331
0.00260387
0.00297444
0.00336526
0.00377656
0.00420862
0.00466169
0.005136
0.00563174
0.00614913
0.00668842
0.00724986
0.00783367
0.00844007
0.00906925
0.00972146
0.0103969
0.0110959
0.0118185
0.0125649
0.0133355
0.0141303
0.0149498
0.015794
0.0166632
0.0175576
0.0184776
0.0194233
0.020395
0.021393
0.0224176
0.023469
0.0245477
0.0256539
0.026788
0.0279503
0.0291411
0.0303607
0.0316095
0.0328877
0.0341957
0.0355338
0.0369023
0.0383015
0.0397316
0.0411929
0.0426858
0.0442105
0.0457672
0.0473559
0.048977
0.0506304
0.0523161
0.0540341
0.0557843
0.0575663
0.0593799
0.0612246
0.0630999
0.0650054
0.06694
0.0689031
0.0708932
0.0729093
0.0749497
0.0770129
0.0790969
0.0811995
0.0833182
0.0854505
0.0875933
0.0897432
0.0918969
0.0940502
0.0961992
0.0983392
0.100465
0.102573
0.104656
0.106709
0.108727
0.110704
0.112633
0.114508
0.116323
0.118071
0.119747
0.121345
0.122858
0.124282
0.125611
0.126841
0.127967
0.128987
0.129897
0.130696
0.131382
0.131955
0.132415
0.132764
0.133004
0.133138
0.133169
0.133102
0.132942
0.132693
0.132363
0.131956
0.131479
0.130937
0.130337
0.129683
0.12898
0.128238
0.127462
0.126587
0.125549
0.00455841
0.00394618
0.00343959
0.00300049
0.00258547
0.00219612
0.00183444
0.00149931
0.00118957
0.000904331
0.000642726
0.000403928
0.000187153
-8.36975e-06
-0.000183363
-0.000338487
-0.00047437
-0.000591617
-0.000690771
-0.000772303
-0.000836652
-0.000884203
-0.000915276
-0.000930108
-0.000928849
-0.000911626
-0.000878522
-0.00082955
-0.000764668
-0.000683818
-0.000586919
-0.000473842
-0.000344394
-0.000198346
-3.54625e-05
0.000144494
0.000341788
0.000556712
0.000789568
0.00104064
0.00131022
0.00159857
0.00190603
0.00223289
0.00257944
0.00294593
0.00333263
0.0037398
0.00416773
0.00461665
0.00508677
0.00557831
0.00609149
0.00662658
0.00718381
0.00776337
0.00836547
0.00899031
0.00963813
0.0103092
0.0110036
0.0117215
0.0124632
0.0132289
0.0140187
0.014833
0.0156719
0.0165356
0.0174244
0.0183384
0.0192779
0.0202432
0.0212346
0.0222521
0.0232962
0.0243672
0.0254654
0.0265911
0.0277445
0.0289261
0.030136
0.0313747
0.0326425
0.0339396
0.0352663
0.036623
0.0380099
0.0394273
0.0408755
0.0423549
0.0438657
0.0454081
0.0469823
0.0485885
0.0502268
0.0518972
0.0535999
0.0553346
0.0571012
0.0588994
0.060729
0.0625896
0.0644806
0.0664015
0.0683512
0.070329
0.0723335
0.0743635
0.0764174
0.0784935
0.0805896
0.0827035
0.0848325
0.0869739
0.0891245
0.0912808
0.093439
0.0955949
0.0977443
0.0998821
0.102004
0.104103
0.106175
0.108214
0.110213
0.112167
0.114069
0.115913
0.117691
0.119398
0.121028
0.122573
0.12403
0.125391
0.126652
0.127809
0.128858
0.129796
0.13062
0.131329
0.131921
0.132398
0.13276
0.133009
0.133148
0.133179
0.133108
0.132939
0.132678
0.132329
0.131899
0.131394
0.130821
0.130184
0.129489
0.128742
0.127951
0.127126
0.126193
0.125088
0.0048122
0.00415492
0.00361266
0.00314449
0.00270361
0.00229158
0.00191041
0.00155866
0.00123492
0.000938023
0.000666829
0.000420245
0.000197234
-3.19193e-06
-0.000181973
-0.000339986
-0.000478055
-0.000596936
-0.000697307
-0.00077978
-0.000844912
-0.000893176
-0.000924946
-0.00094051
-0.000940091
-0.000923856
-0.000891909
-0.000844281
-0.000780961
-0.000701917
-0.000607066
-0.000496254
-0.000369268
-0.000225877
-6.58475e-05
0.00011108
0.000305208
0.000516855
0.000746318
0.000993886
0.00125986
0.00154455
0.0018483
0.00217139
0.00251411
0.00287673
0.00325954
0.00366282
0.00408684
0.00453182
0.004998
0.00548558
0.00599482
0.00652597
0.00707922
0.00765477
0.0082528
0.00887355
0.00951723
0.010184
0.0108741
0.0115876
0.0123247
0.0130856
0.0138706
0.0146799
0.0155135
0.0163718
0.0172549
0.018163
0.0190964
0.0200553
0.0210399
0.0220503
0.023087
0.0241501
0.0252401
0.0263571
0.0275015
0.0286735
0.0298735
0.0311017
0.0323586
0.0336444
0.0349593
0.0363036
0.0376778
0.0390819
0.0405165
0.0419818
0.0434781
0.0450056
0.0465645
0.0481552
0.0497777
0.0514322
0.0531188
0.0548373
0.0565878
0.05837
0.0601839
0.0620291
0.0639053
0.0658118
0.0677479
0.0697129
0.0717057
0.073725
0.0757696
0.0778378
0.0799275
0.0820368
0.0841631
0.0863037
0.0884557
0.0906156