/*--------------------------------*- C++ -*----------------------------------*\
  =========                 |
  \\      /  F ield         | OpenFOAM: The Open Source CFD Toolbox
   \\    /   O peration     | Website:  https://openfoam.org
    \\  /    A nd           | Version:  7
     \\/     M anipulation  |
\*---------------------------------------------------------------------------*/
FoamFile
{
    version     2.0;
    format      ascii;
    class       volScalarField;
    location    "0.275";
    object      p;
}
// * * * * * * * * * * * * * * * * * * * * * * * * * * * * * * * * * * * * * //

dimensions      [0 2 -2 0 0 0 0];

internalField   nonuniform List<scalar> 
12800
(
1.55199e-06
2.93941e-05
-5.26683e-06
-0.000113483
-0.000287177
-0.000516298
-0.000790093
-0.00109805
-0.00143062
-0.00177941
-0.00213723
-0.00249798
-0.00285652
-0.00320863
-0.00355085
-0.00388038
-0.00419505
-0.00449318
-0.00477351
-0.00503518
-0.00527761
-0.00550052
-0.00570382
-0.0058876
-0.00605207
-0.00619756
-0.00632446
-0.00643321
-0.00652427
-0.00659814
-0.00665529
-0.00669619
-0.00672128
-0.00673099
-0.00672567
-0.00670565
-0.0066712
-0.00662256
-0.00655987
-0.00648326
-0.00639279
-0.00628848
-0.00617027
-0.00603808
-0.00589175
-0.00573109
-0.00555585
-0.00536574
-0.00516041
-0.00493947
-0.00470246
-0.00444891
-0.00417827
-0.00388996
-0.00358335
-0.00325776
-0.00291247
-0.0025467
-0.00215963
-0.00175037
-0.00131802
-0.000861607
-0.000380109
0.000127543
0.000662466
0.00122583
0.00181885
0.00244282
0.00309905
0.00378892
0.00451386
0.00527535
0.00607492
0.00691414
0.00779462
0.00871804
0.00968608
0.0107005
0.011763
0.0128754
0.0140395
0.0152571
0.01653
0.0178601
0.0192491
0.0206987
0.0222108
0.0237871
0.025429
0.0271383
0.0289162
0.0307641
0.0326833
0.0346747
0.0367391
0.0388772
0.0410895
0.043376
0.0457366
0.0481709
0.0506781
0.0532571
0.0559063
0.0586238
0.0614072
0.0642536
0.0671597
0.0701216
0.0731348
0.0761944
0.0792948
0.08243
0.0855931
0.088777
0.0919739
0.0951753
0.0983724
0.101556
0.104716
0.107841
0.110923
0.113949
0.116909
0.119792
0.122586
0.12528
0.127863
0.130326
0.132656
0.134846
0.136886
0.138767
0.140483
0.142028
0.143396
0.144583
0.145587
0.146407
0.147044
0.1475
0.147777
0.147882
0.147822
0.147604
0.147241
0.146743
0.146125
0.145402
0.144592
0.143715
0.142792
0.141847
0.140906
0.14
0.139161
0.138427
0.137835
0.137426
0.13724
0.137266
-2.38094e-05
3.08008e-06
-3.30126e-05
-0.000132174
-0.000285257
-0.000485309
-0.00072465
-0.000995162
-0.00128906
-0.00159927
-0.00191951
-0.0022443
-0.00256895
-0.00288946
-0.0032025
-0.00350536
-0.00379584
-0.0040722
-0.00433309
-0.00457751
-0.00480476
-0.00501439
-0.00520616
-0.00538
-0.00553597
-0.00567423
-0.00579503
-0.00589865
-0.00598543
-0.00605573
-0.00610992
-0.00614836
-0.00617139
-0.00617933
-0.00617246
-0.00615103
-0.00611525
-0.00606527
-0.00600122
-0.00592315
-0.0058311
-0.00572503
-0.00560488
-0.00547051
-0.00532177
-0.00515843
-0.00498023
-0.00478687
-0.00457798
-0.00435318
-0.00411201
-0.00385398
-0.00357854
-0.00328513
-0.00297312
-0.00264184
-0.00229057
-0.00191856
-0.00152498
-0.00110899
-0.000669686
-0.000206117
0.000282703
0.000797815
0.0013403
0.00191131
0.00251201
0.00314364
0.00380749
0.00450487
0.00523717
0.00600581
0.00681224
0.00765799
0.00854459
0.00947363
0.0104467
0.0114655
0.0125317
0.0136469
0.0148129
0.0160313
0.0173039
0.0186324
0.0200184
0.0214636
0.0229696
0.024538
0.0261702
0.0278676
0.0296316
0.0314634
0.0333639
0.035334
0.0373745
0.0394859
0.0416685
0.0439222
0.0462469
0.048642
0.0511067
0.0536397
0.0562394
0.0589039
0.0616308
0.0644171
0.0672596
0.0701544
0.0730971
0.0760829
0.0791065
0.0821618
0.0852424
0.0883413
0.0914509
0.0945633
0.0976699
0.100762
0.103829
0.106863
0.109853
0.112789
0.11566
0.118456
0.121166
0.12378
0.126288
0.128679
0.130945
0.133076
0.135064
0.136902
0.138583
0.1401
0.141451
0.142631
0.143639
0.144473
0.145134
0.145625
0.14595
0.146113
0.146122
0.145984
0.145711
0.145314
0.144805
0.144201
0.143517
0.142772
0.141987
0.141183
0.140384
0.139616
0.138908
0.138289
0.137788
0.137435
0.137266
0.137292
1.13883e-05
3.93203e-05
2.95601e-06
-9.14141e-05
-0.000232834
-0.000415393
-0.000632899
-0.000878605
-0.00114597
-0.00142893
-0.00172194
-0.00202012
-0.00231916
-0.0026154
-0.00290569
-0.00318743
-0.00345848
-0.0037171
-0.00396193
-0.00419191
-0.00440627
-0.00460446
-0.00478616
-0.00495118
-0.00509948
-0.00523111
-0.00534621
-0.00544495
-0.00552758
-0.00559435
-0.00564556
-0.00568146
-0.00570232
-0.00570838
-0.00569987
-0.00567698
-0.00563984
-0.00558856
-0.00552321
-0.00544383
-0.0053504
-0.00524286
-0.00512111
-0.004985
-0.00483436
-0.00466893
-0.00448845
-0.0042926
-0.00408101
-0.00385328
-0.00360896
-0.00334754
-0.0030685
-0.00277127
-0.00245521
-0.00211968
-0.00176396
-0.0013873
-0.000988914
-0.000567947
-0.000123522
0.000345285
0.000839442
0.00135996
0.0019079
0.00248436
0.0030905
0.00372751
0.00439664
0.00509917
0.00583642
0.00660977
0.00742063
0.00827045
0.00916072
0.010093
0.0110687
0.0120896
0.0131571
0.014273
0.0154387
0.016656
0.0179265
0.0192517
0.0206333
0.0220728
0.0235717
0.0251314
0.0267535
0.0284391
0.0301894
0.0320057
0.0338887
0.0358393
0.037858
0.0399454
0.0421017
0.0443267
0.0466202
0.0489815
0.0514099
0.0539039
0.056462
0.0590822
0.0617621
0.0644988
0.0672891
0.0701292
0.0730148
0.0759412
0.0789031
0.0818947
0.0849098
0.0879416
0.0909828
0.0940255
0.0970617
0.100083
0.103079
0.106042
0.108962
0.111829
0.114633
0.117363
0.120011
0.122565
0.125016
0.127355
0.129573
0.131661
0.133612
0.135418
0.137074
0.138573
0.139912
0.141088
0.1421
0.142945
0.143627
0.144145
0.144506
0.144713
0.144774
0.144697
0.144491
0.144168
0.143741
0.143223
0.142631
0.141982
0.141295
0.140589
0.139887
0.139211
0.138587
0.138038
0.137589
0.137263
0.137096
0.137108
0.000120262
0.000138854
9.67261e-05
1.61303e-06
-0.000135605
-0.000309398
-0.000514251
-0.000744325
-0.000993956
-0.00125784
-0.00153112
-0.0018094
-0.00208883
-0.00236602
-0.0026381
-0.00290262
-0.00315755
-0.00340123
-0.00363229
-0.0038497
-0.00405267
-0.00424061
-0.00441313
-0.00456999
-0.00471108
-0.00483637
-0.00494593
-0.00503985
-0.00511831
-0.00518149
-0.00522959
-0.00526282
-0.00528138
-0.00528545
-0.00527519
-0.00525074
-0.00521219
-0.0051596
-0.00509301
-0.0050124
-0.00491773
-0.00480892
-0.00468584
-0.00454831
-0.00439614
-0.00422908
-0.00404683
-0.00384906
-0.0036354
-0.00340544
-0.00315873
-0.00289476
-0.00261301
-0.0023129
-0.00199383
-0.00165513
-0.00129611
-0.000916024
-0.000514091
-8.94851e-05
0.000358658
0.000831241
0.00132921
0.00185355
0.0024053
0.00298554
0.00359537
0.00423597
0.00490853
0.00561431
0.00635459
0.0071307
0.007944
0.00879589
0.00968781
0.0106212
0.0115976
0.0126185
0.0136854
0.0147999
0.0159635
0.0171778
0.0184443
0.0197646
0.0211402
0.0225725
0.0240629
0.025613
0.0272239
0.0288969
0.0306332
0.0324337
0.0342993
0.0362307
0.0382285
0.0402931
0.0424246
0.0446229
0.0468877
0.0492183
0.0516138
0.054073
0.0565942
0.0591755
0.0618144
0.0645083
0.0672538
0.0700473
0.0728846
0.075761
0.0786715
0.0816104
0.0845716
0.0875486
0.0905341
0.0935208
0.0965006
0.0994651
0.102406
0.105313
0.108178
0.110992
0.113743
0.116424
0.119023
0.121532
0.123941
0.126242
0.128424
0.130481
0.132405
0.134189
0.135827
0.137314
0.138646
0.139821
0.140837
0.141693
0.14239
0.142932
0.143321
0.143563
0.143664
0.143632
0.143478
0.143211
0.142844
0.14239
0.141865
0.141284
0.140666
0.140028
0.13939
0.138773
0.138197
0.137685
0.137257
0.136933
0.136743
0.136704
0.000296247
0.000293392
0.000238097
0.000136735
-1.77179e-06
-0.000172306
-0.000369958
-0.000589647
-0.000826466
-0.00107581
-0.00133343
-0.00159544
-0.0018584
-0.00211928
-0.00237545
-0.00262468
-0.00286507
-0.00309506
-0.00331337
-0.00351898
-0.00371111
-0.00388919
-0.00405278
-0.00420162
-0.00433553
-0.00445444
-0.00455835
-0.00464731
-0.00472143
-0.00478083
-0.00482565
-0.00485603
-0.00487212
-0.00487404
-0.00486191
-0.0048358
-0.00479577
-0.00474183
-0.00467399
-0.00459219
-0.00449636
-0.00438638
-0.00426211
-0.00412336
-0.00396989
-0.00380145
-0.00361773
-0.00341838
-0.00320304
-0.00297127
-0.00272263
-0.00245661
-0.00217268
-0.00187028
-0.00154879
-0.00120758
-0.000845951
-0.000463173
-5.8476e-05
0.00036895
0.000819948
0.0012954
0.00179623
0.0023234
0.00287792
0.00346083
0.00407323
0.00471623
0.00539101
0.00609877
0.00684076
0.00761827
0.0084326
0.00928512
0.0101772
0.0111103
0.0120857
0.0131051
0.0141697
0.0152813
0.0164411
0.0176507
0.0189116
0.0202253
0.0215932
0.0230167
0.0244971
0.0260359
0.0276342
0.0292933
0.0310141
0.0327976
0.0346447
0.036556
0.0385321
0.0405732
0.0426795
0.0448508
0.0470869
0.049387
0.0517503
0.0541755
0.056661
0.0592049
0.0618048
0.064458
0.0671614
0.0699114
0.0727039
0.0755343
0.0783977
0.0812887
0.0842013
0.087129
0.090065
0.093002
0.0959322
0.0988476
0.101739
0.104599
0.107418
0.110186
0.112894
0.115532
0.118092
0.120564
0.122939
0.125208
0.127362
0.129394
0.131297
0.133064
0.13469
0.136168
0.137497
0.138673
0.139694
0.140561
0.141274
0.141835
0.142249
0.142521
0.142656
0.142664
0.142552
0.142331
0.142013
0.141611
0.141139
0.140612
0.140046
0.139459
0.138867
0.138288
0.137743
0.137248
0.136821
0.136481
0.136245
0.136123
0.000530396
0.00049683
0.000421819
0.000308985
0.000164129
-8.15083e-06
-0.000203472
-0.000417467
-0.000645923
-0.000884865
-0.00113059
-0.00137973
-0.00162924
-0.00187645
-0.002119
-0.00235488
-0.00258238
-0.00280005
-0.0030067
-0.0032014
-0.0033834
-0.00355213
-0.00370718
-0.00384825
-0.00397515
-0.00408776
-0.00418605
-0.00427003
-0.00433974
-0.00439528
-0.00443672
-0.00446416
-0.00447769
-0.00447739
-0.00446332
-0.00443552
-0.00439398
-0.00433871
-0.00426966
-0.00418674
-0.00408985
-0.00397886
-0.00385358
-0.00371381
-0.0035593
-0.00338977
-0.0032049
-0.00300435
-0.00278771
-0.00255458
-0.00230448
-0.00203692
-0.00175136
-0.00144726
-0.001124
-0.000780948
-0.000417421
-3.27019e-05
0.000373964
0.000803368
0.00125634
0.00173373
0.00223645
0.00276543
0.00332166
0.00390614
0.00451994
0.00516415
0.00583989
0.00654835
0.00729072
0.00806824
0.00888219
0.00973386
0.0106246
0.0115558
0.0125287
0.0135449
0.0146058
0.0157126
0.016867
0.0180703
0.019324
0.0206294
0.0219879
0.023401
0.0248699
0.0263959
0.0279801
0.0296238
0.0313278
0.0330932
0.0349207
0.0368109
0.0387644
0.0407814
0.0428621
0.0450063
0.0472137
0.0494837
0.0518153
0.0542073
0.0566583
0.0591663
0.061729
0.0643438
0.0670077
0.0697172
0.0724682
0.0752565
0.0780771
0.0809248
0.0837938
0.0866779
0.0895702
0.0924639
0.0953512
0.0982242
0.101075
0.103894
0.106674
0.109404
0.112076
0.114681
0.11721
0.119652
0.122
0.124245
0.126379
0.128393
0.130281
0.132037
0.133655
0.135129
0.136457
0.137637
0.138665
0.139543
0.14027
0.14085
0.141287
0.141584
0.141748
0.141788
0.14171
0.141527
0.141248
0.140887
0.140455
0.139969
0.139441
0.138888
0.138326
0.13777
0.137237
0.136742
0.1363
0.135928
0.135629
0.135403
0.00081306
0.000742197
0.000642203
0.000513333
0.000357593
0.000179067
-1.83257e-05
-0.000230894
-0.000455063
-0.000687427
-0.000924809
-0.0011643
-0.00140329
-0.00163941
-0.00187062
-0.00209514
-0.00231143
-0.00251821
-0.00271442
-0.00289921
-0.00307189
-0.00323193
-0.00337893
-0.00351262
-0.00363279
-0.00373931
-0.00383211
-0.00391118
-0.00397654
-0.00402823
-0.00406629
-0.00409077
-0.00410173
-0.0040992
-0.00408319
-0.00405371
-0.00401071
-0.00395417
-0.00388399
-0.00380006
-0.00370226
-0.00359043
-0.00346435
-0.00332381
-0.00316853
-0.00299823
-0.00281257
-0.00261119
-0.00239369
-0.00215965
-0.00190859
-0.00164002
-0.00135341
-0.00104822
-0.000723845
-0.000379647
-1.49571e-05
0.000370927
0.000778741
0.00120926
0.00166329
0.00214167
0.00264528
0.00317503
0.00373187
0.00431679
0.00493081
0.00557498
0.00625042
0.00695824
0.00769962
0.00847574
0.00928785
0.0101372
0.0110251
0.0119528
0.0129217
0.0139331
0.0149884
0.016089
0.0172362
0.0184315
0.0196762
0.0209716
0.0223192
0.0237202
0.0251759
0.0266876
0.0282563
0.0298831
0.0315691
0.0333151
0.0351219
0.0369902
0.0389203
0.0409126
0.0429673
0.0450841
0.0472629
0.0495029
0.0518034
0.0541632
0.0565807
0.0590543
0.0615817
0.0641603
0.0667873
0.0694591
0.0721721
0.074922
0.077704
0.0805131
0.0833435
0.0861893
0.0890439
0.0919003
0.0947512
0.0975889
0.100405
0.103192
0.10594
0.108641
0.111285
0.113864
0.116369
0.11879
0.121119
0.123347
0.125467
0.12747
0.12935
0.1311
0.132715
0.13419
0.135521
0.136707
0.137744
0.138633
0.139376
0.139973
0.140429
0.140748
0.140937
0.141003
0.140954
0.140799
0.140551
0.140219
0.139817
0.139358
0.138855
0.138323
0.137775
0.137227
0.136692
0.136182
0.135713
0.135295
0.134922
0.134582
0.00113463
0.00102192
0.000892893
0.000744198
0.000573754
0.000385159
0.000181924
-3.2886e-05
-0.000256288
-0.000485414
-0.000717579
-0.000950316
-0.00118139
-0.00140879
-0.00163076
-0.00184576
-0.00205246
-0.00224975
-0.0024367
-0.00261258
-0.00277677
-0.00292881
-0.00306834
-0.00319509
-0.00330888
-0.00340957
-0.0034971
-0.00357143
-0.00363254
-0.00368047
-0.00371521
-0.00373679
-0.00374522
-0.00374051
-0.00372262
-0.00369152
-0.00364715
-0.00358943
-0.00351824
-0.00343346
-0.00333492
-0.00322244
-0.0030958
-0.00295474
-0.00279899
-0.00262823
-0.00244213
-0.00224032
-0.00202238
-0.00178788
-0.00153635
-0.00126731
-0.000980228
-0.000674554
-0.000349699
-5.03533e-06
0.000360094
0.000746375
0.00115453
0.00158531
0.00203951
0.00251794
0.00302146
0.00355095
0.00410733
0.00469155
0.00530462
0.00594755
0.00662141
0.00732729
0.00806632
0.00883965
0.00964847
0.010494
0.0113775
0.0123001
0.0132633
0.0142683
0.0153165
0.0164091
0.0175475
0.018733
0.0199671
0.0212509
0.0225858
0.0239731
0.025414
0.0269096
0.0284612
0.0300698
0.0317364
0.0334617
0.0352466
0.0370918
0.0389977
0.0409645
0.0429926
0.0450817
0.0472316
0.0494418
0.0517115
0.0540396
0.0564246
0.0588649
0.0613585
0.0639028
0.066495
0.0691319
0.0718097
0.0745245
0.0772717
0.0800461
0.0828425
0.0856549
0.0884769
0.0913017
0.0941221
0.0969306
0.0997192
0.10248
0.105203
0.107882
0.110506
0.113066
0.115555
0.117962
0.120279
0.122498
0.124611
0.12661
0.128487
0.130237
0.131855
0.133334
0.134673
0.135867
0.136915
0.137818
0.138575
0.139189
0.139664
0.140003
0.140213
0.1403
0.140273
0.140141
0.139914
0.139604
0.139221
0.138779
0.13829
0.137767
0.137222
0.136669
0.13612
0.135585
0.135076
0.134605
0.134151
0.133692
0.00148619
0.00132859
0.0011675
0.00099595
0.000807674
0.000605826
0.000393571
0.000173402
-5.22517e-05
-0.000281031
-0.000510712
-0.000739235
-0.00096474
-0.00118556
-0.00140021
-0.00160739
-0.00180601
-0.00199514
-0.00217399
-0.00234195
-0.0024985
-0.00264325
-0.0027759
-0.00289622
-0.00300403
-0.00309924
-0.00318176
-0.00325156
-0.00330862
-0.00335293
-0.00338449
-0.00340328
-0.0034093
-0.0034025
-0.00338283
-0.00335023
-0.00330461
-0.00324585
-0.00317381
-0.00308834
-0.00298927
-0.00287636
-0.00274939
-0.00260809
-0.00245216
-0.00228128
-0.0020951
-0.00189324
-0.00167528
-0.00144077
-0.00118927
-0.000920277
-0.000633272
-0.000327708
-3.00245e-06
0.000341459
0.00070632
0.00109225
0.00149996
0.00193017
0.00238366
0.00286122
0.00336369
0.0038919
0.00444676
0.00502919
0.00564015
0.00628064
0.00695168
0.00765432
0.00838966
0.0091588
0.00996289
0.0108031
0.0116807
0.0125968
0.0135527
0.0145496
0.0155889
0.0166719
0.0177997
0.0189738
0.0201954
0.0214659
0.0227864
0.0241582
0.0255826
0.0270607
0.0285936
0.0301823
0.0318279
0.0335312
0.035293
0.0371139
0.0389944
0.0409349
0.0429356
0.0449964
0.0471171
0.0492973
0.0515363
0.053833
0.0561861
0.058594
0.0610549
0.0635663
0.0661256
0.0687296
0.0713749
0.0740575
0.0767729
0.0795164
0.0822827
0.0850659
0.08786
0.0906582
0.0934536
0.0962386
0.0990054
0.101746
0.104452
0.107114
0.109724
0.112274
0.114753
0.117153
0.119465
0.121682
0.123794
0.125794
0.127676
0.129432
0.131057
0.132546
0.133895
0.135102
0.136165
0.137082
0.137856
0.138487
0.138979
0.139336
0.139564
0.139669
0.13966
0.139545
0.139334
0.139038
0.138667
0.138233
0.137748
0.137223
0.136672
0.136104
0.135531
0.134961
0.134406
0.133874
0.133336
0.132758
0.00185964
0.00165518
0.00145983
0.00126307
0.00105445
0.000836732
0.000612813
0.000384648
0.000154149
-7.67833e-05
-0.000306354
-0.000532906
-0.000754934
-0.000971085
-0.00118016
-0.00138112
-0.00157309
-0.00175531
-0.00192718
-0.00208819
-0.00223795
-0.00237615
-0.00250255
-0.00261696
-0.00271926
-0.00280937
-0.00288722
-0.00295278
-0.00300603
-0.00304694
-0.0030755
-0.00309167
-0.00309543
-0.00308669
-0.00306541
-0.00303146
-0.00298474
-0.0029251
-0.0028524
-0.00276645
-0.00266705
-0.00255396
-0.00242692
-0.00228565
-0.00212985
-0.00195918
-0.00177328
-0.00157176
-0.00135418
-0.00112013
-0.000869129
-0.000600693
-0.000314308
-9.43105e-06
0.00031451
0.000658118
0.00102202
0.00140687
0.00181335
0.00224219
0.00269412
0.00316991
0.00367037
0.00419632
0.00474862
0.00532817
0.00593589
0.00657275
0.00723974
0.00793786
0.00866817
0.00943174
0.0102297
0.0110631
0.0119332
0.0128412
0.0137882
0.0147755
0.0158043
0.0168759
0.0179915
0.0191524
0.0203598
0.0216151
0.0229195
0.0242741
0.0256802
0.027139
0.0286515
0.0302188
0.0318419
0.0335216
0.0352588
0.0370542
0.0389082
0.0408212
0.0427936
0.0448254
0.0469164
0.0490662
0.0512742
0.0535396
0.0558611
0.0582373
0.0606663
0.063146
0.0656738
0.0682468
0.0708615
0.0735143
0.0762008
0.0789164
0.081656
0.084414
0.0871843
0.0899604
0.0927355
0.0955021
0.0982527
0.100979
0.103673
0.106326
0.108928
0.111473
0.113949
0.116349
0.118663
0.120883
0.123002
0.12501
0.126901
0.128669
0.130307
0.13181
0.133175
0.134398
0.135478
0.136413
0.137204
0.137854
0.138363
0.138738
0.138982
0.139104
0.139109
0.139006
0.138806
0.138517
0.138151
0.137718
0.13723
0.136697
0.13613
0.135539
0.134934
0.134323
0.133716
0.133121
0.132497
0.131803
0.00224762
0.00199509
0.00176395
0.0015402
0.00130923
0.00107354
0.00083578
0.00059741
0.000359873
0.000124646
-0.00010688
-0.000333423
-0.000553818
-0.00076702
-0.000972108
-0.0011683
-0.00135493
-0.00153145
-0.0016974
-0.00185242
-0.00199624
-0.00212862
-0.00224941
-0.0023585
-0.00245579
-0.00254123
-0.00261479
-0.00267644
-0.00272616
-0.00276394
-0.00278974
-0.00280351
-0.00280521
-0.00279474
-0.00277202
-0.00273691
-0.00268929
-0.00262899
-0.00255583
-0.00246962
-0.00237012
-0.00225709
-0.00213025
-0.00198931
-0.00183395
-0.00166382
-0.00147855
-0.00127774
-0.00106097
-0.000827794
-0.00057776
-0.000310377
-2.51386e-05
0.00027849
0.000601071
0.000943191
0.00130546
0.00168852
0.00209304
0.0025197
0.00296924
0.00344239
0.00393992
0.00446263
0.00501135
0.00558696
0.00619033
0.00682241
0.00748412
0.00817646
0.00890043
0.00965706
0.0104474
0.0112726
0.0121338
0.0130321
0.0139686
0.0149446
0.0159612
0.0170197
0.0181213
0.0192673
0.0204588
0.0216971
0.0229835
0.0243192
0.0257053
0.027143
0.0286334
0.0301775
0.0317765
0.0334311
0.0351422
0.0369105
0.0387367
0.0406211
0.0425642
0.044566
0.0466265
0.0487453
0.0509221
0.0531559
0.0554459
0.0577906
0.0601883
0.0626371
0.0651345
0.0676777
0.0702637
0.0728886
0.0755486
0.078239
0.0809549
0.083691
0.0864412
0.0891992
0.0919583
0.0947112
0.0974503
0.100168
0.102855
0.105504
0.108105
0.11065
0.11313
0.115536
0.117858
0.120089
0.122219
0.124242
0.126149
0.127934
0.12959
0.131113
0.132498
0.133742
0.134842
0.135798
0.13661
0.137279
0.137807
0.138199
0.13846
0.138595
0.138612
0.13852
0.138326
0.13804
0.137674
0.137236
0.136738
0.136189
0.1356
0.134981
0.134339
0.133681
0.133018
0.132357
0.131648
0.130843
0.00264344
0.00234218
0.0020742
0.00182213
0.00156728
0.00131194
0.00105856
0.000808159
0.000561751
0.000320413
8.51586e-05
-0.000143081
-0.000363461
-0.000575241
-0.000777779
-0.000970533
-0.00115305
-0.00132498
-0.00148603
-0.00163599
-0.00177468
-0.00190198
-0.00201783
-0.00212217
-0.00221498
-0.00229623
-0.00236591
-0.00242402
-0.00247057
-0.00250551
-0.00252883
-0.00254047
-0.00254035
-0.00252838
-0.00250444
-0.0024684
-0.00242009
-0.00235934
-0.00228596
-0.00219972
-0.00210037
-0.00198766
-0.0018613
-0.00172097
-0.00156636
-0.0013971
-0.00121281
-0.00101308
-0.0007975
-0.000565629
-0.000317009
-5.11547e-05
0.000232433
0.000534276
0.000854924
0.00119495
0.00155495
0.00193554
0.00233736
0.0027611
0.00320743
0.00367709
0.0041708
0.00468933
0.0052335
0.00580412
0.00640206
0.00702821
0.00768347
0.00836878
0.00908511
0.00983347
0.0106149
0.0114304
0.0122811
0.0131682
0.0140926
0.0150557
0.0160585
0.0171022
0.0181881
0.0193173
0.0204911
0.0217107
0.0229773
0.0242921
0.0256564
0.0270712
0.0285377
0.0300569
0.03163
0.0332578
0.0349412
0.0366811
0.038478
0.0403325
0.042245
0.0442157
0.0462447
0.0483318
0.0504767
0.0526786
0.0549368
0.05725
0.0596167
0.062035
0.0645028
0.0670174
0.0695758
0.0721746
0.0748099
0.0774773
0.0801721
0.0828891
0.0856223
0.0883658
0.0911127
0.0938561
0.0965882
0.0993014
0.101987
0.104637
0.107243
0.109794
0.112284
0.114701
0.117038
0.119285
0.121434
0.123477
0.125406
0.127213
0.128894
0.130441
0.131852
0.13312
0.134246
0.135226
0.136061
0.136752
0.137301
0.137711
0.137988
0.138137
0.138165
0.13808
0.13789
0.137605
0.137233
0.136786
0.136273
0.135704
0.135089
0.134435
0.133752
0.133044
0.132323
0.131595
0.130803
0.12989
0.00304101
0.0026907
0.00238522
0.00210387
0.00182399
0.00154766
0.00127724
0.00101332
0.000756518
0.000507539
0.00026705
3.56499e-05
-0.000186133
-0.000397846
-0.000599114
-0.000789633
-0.000969168
-0.00113755
-0.00129466
-0.00144042
-0.00157478
-0.00169775
-0.00180932
-0.00190952
-0.00199838
-0.00207592
-0.00214218
-0.00219717
-0.0022409
-0.00227336
-0.00229451
-0.0023043
-0.00230264
-0.00228942
-0.00226452
-0.00222779
-0.00217904
-0.00211809
-0.00204472
-0.00195869
-0.00185975
-0.00174762
-0.00162201
-0.00148259
-0.00132902
-0.00116094
-0.00097796
-0.000779673
-0.000565662
-0.000335494
-8.87107e-05
0.000175163
0.00045662
0.000756168
0.00107434
0.00141169
0.00176881
0.00214628
0.00254473
0.00296481
0.00340717
0.00387252
0.00436155
0.004875
0.00541365
0.00597829
0.00656975
0.00718886
0.0078365
0.00851358
0.00922102
0.00995979
0.0107309
0.0115353
0.0123741
0.0132484
0.0141592
0.0151077
0.016095
0.0171223
0.0181907
0.0193014
0.0204557
0.0216547
0.0228997
0.0241919
0.0255324
0.0269225
0.0283632
0.0298558
0.0314012
0.0330005
0.0346545
0.0363643
0.0381303
0.0399534
0.041834
0.0437724
0.0457689
0.0478233
0.0499354
0.0521048
0.0543308
0.0566122
0.0589478
0.0613359
0.0637745
0.0662611
0.0687929
0.0713667
0.0739788
0.0766251
0.0793009
0.0820012
0.0847203
0.0874522
0.0901903
0.0929278
0.095657
0.0983702
0.101059
0.103715
0.10633
0.108894
0.111398
0.113833
0.116189
0.118459
0.120633
0.122702
0.124658
0.126495
0.128205
0.129783
0.131224
0.132523
0.133677
0.134686
0.135548
0.136263
0.136835
0.137266
0.13756
0.137723
0.137762
0.137683
0.137495
0.137207
0.136829
0.136369
0.135838
0.135245
0.134598
0.133908
0.133179
0.13242
0.131639
0.130844
0.129971
0.128956
0.00343469
0.00303528
0.00269192
0.00238062
0.00207483
0.00177651
0.00148791
0.00120928
0.000940835
0.000682946
0.000435951
0.000200134
-2.42802e-05
-0.000237119
-0.000438259
-0.000627626
-0.0008052
-0.000970998
-0.00112506
-0.00126746
-0.00139827
-0.0015176
-0.00162555
-0.00172221
-0.00180768
-0.00188203
-0.00194532
-0.00199762
-0.00203894
-0.00206928
-0.0020886
-0.00209686
-0.00209396
-0.00207978
-0.00205419
-0.00201702
-0.00196808
-0.00190718
-0.00183407
-0.00174851
-0.00165023
-0.00153894
-0.00141434
-0.0012761
-0.00112386
-0.000957265
-0.000775913
-0.000579399
-0.000367311
-0.000139217
0.000105332
0.000366805
0.000645683
0.000942458
0.00125765
0.00159179
0.00194545
0.00231919
0.00271362
0.00312935
0.00356702
0.00402728
0.00451081
0.00501832
0.00555055
0.00610824
0.00669219
0.00730321
0.00794212
0.00860978
0.0093071
0.010035
0.0107944
0.0115864
0.0124118
0.0132719
0.0141675
0.0150998
0.01607
0.0170791
0.0181283
0.0192188
0.0203518
0.0215284
0.02275
0.0240176
0.0253326
0.0266961
0.0281092
0.0295732
0.0310891
0.0326581
0.034281
0.0359589
0.0376925
0.0394826
0.0413298
0.0432345
0.0451971
0.0472177
0.0492961
0.0514322
0.0536252
0.0558744
0.0581786
0.0605363
0.0629457
0.0654047
0.0679105
0.0704602
0.0730503
0.0756768
0.0783353
0.0810209
0.0837281
0.086451
0.0891833
0.0919181
0.0946479
0.097365
0.100061
0.102728
0.105356
0.107937
0.110461
0.112919
0.115302
0.1176
0.119804
0.121905
0.123895
0.125767
0.127513
0.129127
0.130603
0.131938
0.133126
0.134168
0.135061
0.135805
0.136403
0.136856
0.137169
0.137348
0.137397
0.137325
0.137138
0.136847
0.136459
0.135985
0.135433
0.134812
0.134133
0.133402
0.132627
0.131813
0.130972
0.130112
0.129159
0.128048
0.00381923
0.00337087
0.00298942
0.00264773
0.00231541
0.00199434
0.00168671
0.0013924
0.0011113
0.000843463
0.000588903
0.000347596
0.000119489
-9.55115e-05
-0.000297529
-0.000486718
-0.000663262
-0.000827358
-0.000979207
-0.00111902
-0.00124702
-0.00136341
-0.00146837
-0.00156209
-0.00164472
-0.00171639
-0.00177721
-0.00182725
-0.00186657
-0.00189516
-0.00191302
-0.00192007
-0.00191624
-0.0019014
-0.00187539
-0.00183806
-0.0017892
-0.00172859
-0.00165599
-0.00157114
-0.00147377
-0.00136357
-0.00124024
-0.00110344
-0.000952802
-0.000787962
-0.000608527
-0.000414094
-0.00020425
2.14285e-05
0.000263384
0.000522072
0.000797959
0.00109152
0.00140327
0.0017337
0.00208337
0.00245282
0.00284263
0.00325337
0.00368565
0.00414011
0.00461737
0.00511812
0.00564306
0.00619289
0.00676837
0.00737026
0.00799936
0.0086565
0.00934251
0.0100583
0.0108048
0.0115829
0.0123936
0.0132379
0.0141169
0.0150315
0.0159829
0.0169722
0.0180005
0.019069
0.0201789
0.0213313
0.0225276
0.0237689
0.0250564
0.0263914
0.0277751
0.0292086
0.0306932
0.03223
0.03382
0.0354643
0.0371637
0.0389192
0.0407314
0.0426009
0.0445283
0.0465137
0.0485572
0.0506588
0.052818
0.0550342
0.0573064
0.0596334
0.0620136
0.0644449
0.066925
0.0694511
0.0720199
0.0746276
0.0772701
0.0799425
0.0826397
0.0853559
0.0880848
0.0908197
0.0935532
0.0962777
0.0989849
0.101666
0.104313
0.106915
0.109465
0.111951
0.114364
0.116696
0.118936
0.121076
0.123106
0.125018
0.126806
0.128462
0.12998
0.131355
0.132584
0.133663
0.134591
0.135368
0.135995
0.136475
0.13681
0.137005
0.137067
0.137001
0.136817
0.136521
0.136124
0.135633
0.135058
0.134409
0.133694
0.132922
0.132098
0.131231
0.130329
0.129403
0.128374
0.12717
0.00418971
0.00369263
0.00327306
0.00290073
0.00254146
0.00219709
0.00186976
0.00155904
0.00126449
0.000985849
0.000722838
0.000475144
0.000242439
2.43784e-05
-0.000179404
-0.000369279
-0.000545626
-0.000708817
-0.00085922
-0.000997191
-0.00112307
-0.00123717
-0.00133977
-0.00143113
-0.00151146
-0.00158097
-0.00163978
-0.00168802
-0.00172575
-0.00175299
-0.00176973
-0.00177593
-0.00177148
-0.00175627
-0.00173014
-0.00169291
-0.00164437
-0.00158431
-0.00151246
-0.00142856
-0.00133232
-0.00122345
-0.00110163
-0.000966493
-0.000817696
-0.000654863
-0.000477606
-0.000285524
-7.82097e-05
0.000144753
0.000383795
0.000639357
0.00091189
0.00120185
0.00150973
0.00183601
0.00218122
0.00254587
0.00293049
0.00333566
0.00376193
0.0042099
0.00468018
0.00517341
0.00569023
0.00623134
0.00679744
0.00738924
0.00800751
0.00865304
0.00932662
0.0100291
0.0107614
0.0115244
0.012319
0.0131462
0.014007
0.0149024
0.0158334
0.0168013
0.0178071
0.0188519
0.0199369
0.0210634
0.0222326
0.0234457
0.0247039
0.0260085
0.0273608
0.028762
0.0302134
0.0317161
0.0332713
0.0348802
0.0365437
0.0382628
0.0400383
0.0418711
0.0437616
0.0457105
0.0477178
0.0497837
0.051908
0.0540902
0.0563297
0.0586253
0.0609757
0.0633792
0.0658335
0.0683361
0.070884
0.0734736
0.0761009
0.0787614
0.08145
0.0841612
0.0868888
0.0896261
0.092366
0.0951008
0.0978224
0.100522
0.103191
0.105819
0.108398
0.110918
0.113368
0.115738
0.11802
0.120204
0.122279
0.124239
0.126074
0.127778
0.129344
0.130766
0.13204
0.133162
0.134131
0.134946
0.135607
0.136115
0.136475
0.13669
0.136767
0.13671
0.136528
0.136229
0.135821
0.135314
0.134716
0.134037
0.133286
0.132471
0.131599
0.130676
0.129714
0.128724
0.127621
0.126327
0.00454145
0.00399597
0.00353838
0.00313528
0.00274881
0.00238076
0.00203325
0.00170556
0.00139693
0.0011068
0.000834613
0.000579783
0.000341717
0.000119824
-8.64926e-05
-0.000277813
-0.000454703
-0.000617715
-0.000767376
-0.000904181
-0.00102859
-0.00114102
-0.00124184
-0.0013314
-0.00140998
-0.00147782
-0.0015351
-0.00158197
-0.00161852
-0.0016448
-0.00166079
-0.00166646
-0.00166171
-0.00164642
-0.00162044
-0.00158357
-0.0015356
-0.00147631
-0.00140543
-0.0013227
-0.00122781
-0.00112047
-0.00100035
-0.00086709
-0.000720339
-0.000559726
-0.000384865
-0.000195361
9.18314e-06
0.000229175
0.000465031
0.000717175
0.000986041
0.00127207
0.00157572
0.00189746
0.00223777
0.00259716
0.00297612
0.00337517
0.00379486
0.00423574
0.00469838
0.00518338
0.00569135
0.00622293
0.00677878
0.00735959
0.00796608
0.00859898
0.00925906
0.00994713
0.010664
0.0114106
0.0121878
0.0129966
0.0138378
0.0147125
0.0156217
0.0165666
0.0175482
0.0185677
0.0196262
0.0207249
0.0218652
0.0230483
0.0242753
0.0255478
0.0268668
0.0282338
0.0296501
0.0311169
0.0326354
0.034207
0.0358327
0.0375136
0.0392508
0.041045
0.0428972
0.0448079
0.0467775
0.0488064
0.0508945
0.0530416
0.0552473
0.0575107
0.0598306
0.0622057
0.0646339
0.0671129
0.0696399
0.0722116
0.0748243
0.0774736
0.0801547
0.0828622
0.0855901
0.0883319
0.0910805
0.0938282
0.096567
0.0992882
0.101983
0.104641
0.107254
0.109811
0.112302
0.114718
0.117047
0.11928
0.121407
0.12342
0.125309
0.127067
0.128686
0.130161
0.131486
0.132658
0.133673
0.13453
0.13523
0.135772
0.136161
0.1364
0.136493
0.136447
0.13627
0.135968
0.135551
0.135027
0.134407
0.133698
0.13291
0.132052
0.131131
0.130153
0.129132
0.128078
0.126902
0.125523
0.00487
0.00427651
0.00378105
0.00334717
0.00293337
0.0025414
0.00217339
0.00182831
0.00150511
0.00120296
0.000921014
0.000658434
0.000414368
0.000187987
-2.15231e-05
-0.000214946
-0.000393037
-0.000556522
-0.000706078
-0.000842337
-0.000965873
-0.00107721
-0.00117682
-0.00126512
-0.00134244
-0.00140909
-0.00146529
-0.00151122
-0.00154699
-0.00157267
-0.00158826
-0.00159372
-0.00158897
-0.00157388
-0.0015483
-0.00151203
-0.00146486
-0.00140655
-0.00133684
-0.00125545
-0.00116209
-0.00105645
-0.000938194
-0.000806974
-0.000662433
-0.000504205
-0.000331911
-0.000145164
5.64223e-05
0.000273242
0.000505694
0.000754186
0.00101913
0.00130095
0.00160006
0.00191693
0.002252
0.00260573
0.00297859
0.00337107
0.00378367
0.00421691
0.00467133
0.00514747
0.00564589
0.00616721