/*--------------------------------*- C++ -*----------------------------------*\
  =========                 |
  \\      /  F ield         | OpenFOAM: The Open Source CFD Toolbox
   \\    /   O peration     | Website:  https://openfoam.org
    \\  /    A nd           | Version:  7
     \\/     M anipulation  |
\*---------------------------------------------------------------------------*/
FoamFile
{
    version     2.0;
    format      ascii;
    class       surfaceScalarField;
    location    "0.275";
    object      phi;
}
// * * * * * * * * * * * * * * * * * * * * * * * * * * * * * * * * * * * * * //

dimensions      [0 3 -1 0 0 0 0];

internalField   nonuniform List<scalar> 
25360
(
5.17688e-11
-5.37865e-11
1.94661e-10
-1.42879e-10
3.62354e-10
-1.67682e-10
5.07269e-10
-1.44917e-10
6.0119e-10
-9.39156e-11
6.28166e-10
-2.69769e-11
5.80054e-10
4.81084e-11
4.53775e-10
1.26285e-10
2.49501e-10
2.04273e-10
-3.04936e-11
2.79991e-10
-3.82603e-10
3.52105e-10
-8.0241e-10
4.19794e-10
-1.285e-09
4.82586e-10
-1.82525e-09
5.40244e-10
-2.41796e-09
5.92709e-10
-3.05801e-09
6.40063e-10
-3.74048e-09
6.82468e-10
-4.46065e-09
7.20158e-10
-5.21406e-09
7.53411e-10
-5.99659e-09
7.82531e-10
-6.80442e-09
8.07835e-10
-7.63407e-09
8.29652e-10
-8.48238e-09
8.48316e-10
-9.34654e-09
8.64155e-10
-1.0224e-08
8.7748e-10
-1.11126e-08
8.88593e-10
-1.20104e-08
8.97781e-10
-1.29157e-08
9.05311e-10
-1.38271e-08
9.11435e-10
-1.47435e-08
9.16388e-10
-1.56639e-08
9.20387e-10
-1.65875e-08
9.23628e-10
-1.75138e-08
9.26286e-10
-1.84423e-08
9.28523e-10
-1.93728e-08
9.30484e-10
-2.03051e-08
9.323e-10
-2.12392e-08
9.34083e-10
-2.21751e-08
9.35936e-10
-2.31131e-08
9.37949e-10
-2.40533e-08
9.40199e-10
-2.4996e-08
9.42754e-10
-2.59417e-08
9.45672e-10
-2.68907e-08
9.49002e-10
-2.78435e-08
9.52787e-10
-2.88006e-08
9.57065e-10
-2.97624e-08
9.61862e-10
-3.07296e-08
9.67199e-10
-3.17027e-08
9.73097e-10
-3.26823e-08
9.7957e-10
-3.36689e-08
9.86629e-10
-3.46632e-08
9.94279e-10
-3.56657e-08
1.00252e-09
-3.66771e-08
1.01135e-09
-3.76978e-08
1.02075e-09
-3.87285e-08
1.03073e-09
-3.97698e-08
1.04128e-09
-4.08222e-08
1.05237e-09
-4.18862e-08
1.06398e-09
-4.29623e-08
1.0761e-09
-4.4051e-08
1.08868e-09
-4.51527e-08
1.10171e-09
-4.62678e-08
1.11514e-09
-4.73967e-08
1.12893e-09
-4.85398e-08
1.14304e-09
-4.96972e-08
1.15742e-09
-5.08692e-08
1.17201e-09
-5.20559e-08
1.18674e-09
-5.32575e-08
1.20154e-09
-5.44738e-08
1.21635e-09
-5.57049e-08
1.23108e-09
-5.69506e-08
1.24564e-09
-5.82105e-08
1.25993e-09
-5.94843e-08
1.27385e-09
-6.07716e-08
1.28729e-09
-6.20717e-08
1.30012e-09
-6.33839e-08
1.31222e-09
-6.47074e-08
1.32345e-09
-6.60411e-08
1.33366e-09
-6.73837e-08
1.34269e-09
-6.87341e-08
1.35039e-09
-7.00907e-08
1.35657e-09
-7.14518e-08
1.36105e-09
-7.28154e-08
1.36363e-09
-7.41795e-08
1.36413e-09
-7.55418e-08
1.36232e-09
-7.68998e-08
1.35798e-09
-7.82507e-08
1.35089e-09
-7.95915e-08
1.34081e-09
-8.0919e-08
1.32751e-09
-8.22297e-08
1.31072e-09
-8.35199e-08
1.2902e-09
-8.47856e-08
1.2657e-09
-8.60226e-08
1.23695e-09
-8.72263e-08
1.2037e-09
-8.8392e-08
1.1657e-09
-8.95147e-08
1.12269e-09
-9.05891e-08
1.07443e-09
-9.16098e-08
1.02068e-09
-9.2571e-08
9.61212e-10
-9.34668e-08
8.95822e-10
-9.42911e-08
8.24317e-10
-9.50377e-08
7.46529e-10
-9.57e-08
6.62315e-10
-9.62715e-08
5.7156e-10
-9.67457e-08
4.74188e-10
-9.71159e-08
3.70159e-10
-9.73754e-08
2.59478e-10
-9.75176e-08
1.42199e-10
-9.7536e-08
1.84297e-11
-9.74243e-08
-1.11671e-10
-9.71765e-08
-2.47871e-10
-9.67866e-08
-3.8988e-10
-9.62492e-08
-5.37335e-10
-9.55594e-08
-6.89798e-10
-9.47127e-08
-8.46754e-10
-9.37051e-08
-1.00761e-09
-9.25334e-08
-1.17169e-09
-9.11952e-08
-1.33823e-09
-8.96888e-08
-1.5064e-09
-8.80135e-08
-1.67527e-09
-8.61697e-08
-1.84385e-09
-8.41586e-08
-2.01107e-09
-8.19828e-08
-2.17578e-09
-7.9646e-08
-2.3368e-09
-7.71532e-08
-2.49285e-09
-7.45105e-08
-2.64265e-09
-7.17257e-08
-2.78486e-09
-6.88075e-08
-2.91814e-09
-6.57664e-08
-3.04113e-09
-6.26139e-08
-3.1525e-09
-5.9363e-08
-3.25092e-09
-5.60279e-08
-3.33512e-09
-5.2624e-08
-3.4039e-09
-4.91679e-08
-3.4561e-09
-4.56772e-08
-3.4907e-09
-4.21704e-08
-3.50676e-09
-3.86669e-08
-3.50347e-09
-3.51867e-08
-3.48018e-09
-3.17504e-08
-3.43636e-09
-2.83787e-08
-3.37165e-09
-2.50929e-08
-3.28587e-09
-2.19139e-08
-3.17901e-09
-1.88627e-08
-3.05121e-09
-1.59598e-08
-2.90281e-09
-1.32255e-08
-2.73434e-09
-1.0679e-08
-2.54648e-09
-8.3389e-09
-2.34012e-09
-6.22257e-09
-2.11633e-09
-4.34613e-09
-1.87644e-09
-2.72408e-09
-1.62205e-09
-1.36892e-09
-1.35516e-09
-2.90542e-10
-1.07837e-09
5.0469e-10
-7.95232e-10
1.01553e-09
-5.10838e-10
1.24847e-09
-2.32947e-10
1.22256e-09
2.5914e-11
9.77409e-10
2.45151e-10
5.87568e-10
3.89845e-10
1.89691e-10
3.97879e-10
1.89691e-10
1.42278e-10
-1.96061e-10
4.09023e-10
-4.09642e-10
6.8918e-10
-4.47847e-10
8.99534e-10
-3.55265e-10
9.81131e-10
-1.75519e-10
8.95641e-10
5.85085e-11
6.20523e-10
3.23242e-10
1.44734e-10
6.02063e-10
-5.34458e-10
8.83468e-10
-1.41401e-09
1.15955e-09
-2.48684e-09
1.42494e-09
-3.74317e-09
1.67613e-09
-5.17148e-09
1.9109e-09
-6.75923e-09
2.12798e-09
-8.49339e-09
2.32686e-09
-1.03608e-08
2.50751e-09
-1.23487e-08
2.6703e-09
-1.44444e-08
2.81589e-09
-1.66361e-08
2.94515e-09
-1.89127e-08
3.05907e-09
-2.12636e-08
3.15874e-09
-2.36792e-08
3.24532e-09
-2.61509e-08
3.31995e-09
-2.86705e-08
3.3838e-09
-3.1231e-08
3.43802e-09
-3.38262e-08
3.48369e-09
-3.64503e-08
3.52189e-09
-3.90985e-08
3.55359e-09
-4.17668e-08
3.57974e-09
-4.44517e-08
3.60122e-09
-4.71501e-08
3.61884e-09
-4.98598e-08
3.63333e-09
-5.25789e-08
3.64539e-09
-5.5306e-08
3.65562e-09
-5.80402e-08
3.6646e-09
-6.07807e-08
3.67283e-09
-6.35273e-08
3.68074e-09
-6.62801e-08
3.68874e-09
-6.90394e-08
3.69718e-09
-7.18055e-08
3.70637e-09
-7.45794e-08
3.71658e-09
-7.73617e-08
3.72804e-09
-8.01537e-08
3.74095e-09
-8.29564e-08
3.75548e-09
-8.57711e-08
3.77178e-09
-8.85992e-08
3.78997e-09
-9.14421e-08
3.81014e-09
-9.43014e-08
3.83237e-09
-9.71785e-08
3.85671e-09
-1.00075e-07
3.88321e-09
-1.02993e-07
3.91188e-09
-1.05933e-07
3.94274e-09
-1.08897e-07
3.97577e-09
-1.11888e-07
4.01095e-09
-1.14905e-07
4.04825e-09
-1.17951e-07
4.08761e-09
-1.21028e-07
4.12896e-09
-1.24136e-07
4.17223e-09
-1.27277e-07
4.21732e-09
-1.30453e-07
4.26411e-09
-1.33664e-07
4.31247e-09
-1.36911e-07
4.36226e-09
-1.40195e-07
4.41331e-09
-1.43518e-07
4.46542e-09
-1.46879e-07
4.51841e-09
-1.50279e-07
4.57203e-09
-1.53718e-07
4.62604e-09
-1.57196e-07
4.68017e-09
-1.60714e-07
4.7341e-09
-1.64271e-07
4.78752e-09
-1.67865e-07
4.84008e-09
-1.71497e-07
4.89139e-09
-1.75164e-07
4.94104e-09
-1.78865e-07
4.9886e-09
-1.82599e-07
5.03359e-09
-1.86362e-07
5.07551e-09
-1.90152e-07
5.11381e-09
-1.93967e-07
5.14794e-09
-1.97801e-07
5.17729e-09
-2.01652e-07
5.20121e-09
-2.05514e-07
5.21904e-09
-2.09383e-07
5.23006e-09
-2.13253e-07
5.23355e-09
-2.17118e-07
5.22873e-09
-2.2097e-07
5.2148e-09
-2.24803e-07
5.19092e-09
-2.28609e-07
5.15624e-09
-2.32378e-07
5.10987e-09
-2.36101e-07
5.05091e-09
-2.39769e-07
4.97842e-09
-2.4337e-07
4.89148e-09
-2.46894e-07
4.78913e-09
-2.50327e-07
4.67043e-09
-2.53658e-07
4.53444e-09
-2.56872e-07
4.38022e-09
-2.59957e-07
4.20685e-09
-2.62896e-07
4.01347e-09
-2.65674e-07
3.7992e-09
-2.68276e-07
3.56328e-09
-2.70685e-07
3.30495e-09
-2.72885e-07
3.02356e-09
-2.74857e-07
2.71855e-09
-2.76584e-07
2.38943e-09
-2.78048e-07
2.03587e-09
-2.79231e-07
1.65764e-09
-2.80116e-07
1.25468e-09
-2.80684e-07
8.27091e-10
-2.80917e-07
3.7515e-10
-2.80797e-07
-1.00657e-10
-2.80309e-07
-5.99634e-10
-2.79436e-07
-1.12085e-09
-2.78163e-07
-1.66312e-09
-2.76476e-07
-2.22501e-09
-2.74361e-07
-2.80482e-09
-2.71807e-07
-3.40055e-09
-2.68804e-07
-4.00992e-09
-2.65346e-07
-4.63036e-09
-2.61425e-07
-5.25898e-09
-2.57039e-07
-5.89263e-09
-2.52186e-07
-6.52784e-09
-2.46869e-07
-7.1609e-09
-2.41092e-07
-7.78781e-09
-2.34864e-07
-8.40433e-09
-2.28195e-07
-9.00603e-09
-2.21099e-07
-9.58826e-09
-2.13596e-07
-1.01463e-08
-2.05705e-07
-1.06751e-08
-1.97453e-07
-1.117e-08
-1.88869e-07
-1.16258e-08
-1.79984e-07
-1.20377e-08
-1.70834e-07
-1.24008e-08
-1.61458e-07
-1.27107e-08
-1.51899e-07
-1.29627e-08
-1.42203e-07
-1.31529e-08
-1.32416e-07
-1.32774e-08
-1.2259e-07
-1.33329e-08
-1.12777e-07
-1.33165e-08
-1.03031e-07
-1.32257e-08
-9.34086e-08
-1.30588e-08
-8.39657e-08
-1.28145e-08
-7.47594e-08
-1.24922e-08
-6.58465e-08
-1.20919e-08
-5.72834e-08
-1.16143e-08
-4.91254e-08
-1.10609e-08
-4.1426e-08
-1.04337e-08
-3.42368e-08
-9.7357e-09
-2.76064e-08
-8.9705e-09
-2.15801e-08
-8.14268e-09
-1.61987e-08
-7.25784e-09
-1.14978e-08
-6.32293e-09
-7.50634e-09
-5.34661e-09
-4.24462e-09
-4.34009e-09
-1.72161e-09
-3.31824e-09
6.91275e-11
-2.30158e-09
1.15565e-09
-1.31948e-09
1.59651e-09
-4.14949e-10
1.49421e-09
3.47452e-10
1.01277e-09
8.71284e-10
3.96311e-10
1.01434e-09
5.86001e-10
1.68788e-10
-3.64836e-10
4.50188e-10
-6.91055e-10
7.04131e-10
-7.01771e-10
8.29865e-10
-4.81007e-10
7.53668e-10
-9.93287e-11
4.24904e-10
3.87289e-10
-1.88217e-10
9.36359e-10
-1.10269e-09
1.51653e-09
-2.32427e-09
2.10504e-09
-3.85031e-09
2.68557e-09
-5.67204e-09
3.24667e-09
-7.77635e-09
3.78046e-09
-1.01472e-08
4.28177e-09
-1.27667e-08
4.74749e-09
-1.56159e-08
5.17605e-09
-1.86755e-08
5.56701e-09
-2.1926e-08
5.92085e-09
-2.53488e-08
6.23865e-09
-2.89256e-08
6.52201e-09
-3.26394e-08
6.77285e-09
-3.6474e-08
6.99334e-09
-4.04144e-08
7.18576e-09
-4.4447e-08
7.35249e-09
-4.85591e-08
7.49591e-09
-5.27395e-08
7.6184e-09
-5.6978e-08
7.72224e-09
-6.12658e-08
7.80967e-09
-6.5595e-08
7.88281e-09
-6.99589e-08
7.94363e-09
-7.43517e-08
7.99402e-09
-7.87686e-08
8.03572e-09
-8.32056e-08
8.07032e-09
-8.76595e-08
8.09931e-09
-9.21279e-08
8.12403e-09
-9.6609e-08
8.14569e-09
-1.01102e-07
8.16541e-09
-1.05605e-07
8.18415e-09
-1.10119e-07
8.20281e-09
-1.14644e-07
8.22216e-09
-1.19181e-07
8.24288e-09
-1.2373e-07
8.26559e-09
-1.28292e-07
8.29079e-09
-1.3287e-07
8.31895e-09
-1.37465e-07
8.35044e-09
-1.42079e-07
8.38559e-09
-1.46714e-07
8.42467e-09
-1.51372e-07
8.46791e-09
-1.56055e-07
8.51547e-09
-1.60765e-07
8.56748e-09
-1.65506e-07
8.62404e-09
-1.7028e-07
8.68519e-09
-1.75088e-07
8.75096e-09
-1.79933e-07
8.82132e-09
-1.84819e-07
8.89623e-09
-1.89746e-07
8.97559e-09
-1.94718e-07
9.05929e-09
-1.99736e-07
9.14718e-09
-2.04803e-07
9.23908e-09
-2.0992e-07
9.33475e-09
-2.1509e-07
9.43394e-09
-2.20314e-07
9.53636e-09
-2.25593e-07
9.64167e-09
-2.30929e-07
9.74949e-09
-2.36323e-07
9.85942e-09
-2.41776e-07
9.97097e-09
-2.47288e-07
1.00836e-08
-2.52858e-07
1.01969e-08
-2.58488e-07
1.031e-08
-2.64177e-07
1.04224e-08
-2.69922e-07
1.05334e-08
-2.75725e-07
1.06422e-08
-2.81581e-07
1.07478e-08
-2.87489e-07
1.08495e-08
-2.93447e-07
1.09461e-08
-2.9945e-07
1.10368e-08
-3.05495e-07
1.11204e-08
-3.11577e-07
1.11956e-08
-3.1769e-07
1.12613e-08
-3.23829e-07
1.13162e-08
-3.29987e-07
1.13587e-08
-3.36155e-07
1.13876e-08
-3.42326e-07
1.14011e-08
-3.4849e-07
1.13978e-08
-3.54638e-07
1.1376e-08
-3.60757e-07
1.13339e-08
-3.66836e-07
1.12697e-08
-3.72861e-07
1.11816e-08
-3.78819e-07
1.10677e-08
-3.84694e-07
1.09261e-08
-3.9047e-07
1.07547e-08
-3.9613e-07
1.05517e-08
-4.01656e-07
1.03149e-08
-4.07028e-07
1.00425e-08
-4.12226e-07
9.73237e-09
-4.17229e-07
9.3826e-09
-4.22013e-07
8.99129e-09
-4.26556e-07
8.55661e-09
-4.30834e-07
8.07683e-09
-4.34821e-07
7.55033e-09
-4.38492e-07
6.97561e-09
-4.41819e-07
6.35137e-09
-4.44777e-07
5.67648e-09
-4.47338e-07
4.95007e-09
-4.49474e-07
4.17149e-09
-4.51156e-07
3.34041e-09
-4.52359e-07
2.45682e-09
-4.53052e-07
1.52105e-09
-4.53211e-07
5.33847e-10
-4.52808e-07
-5.03624e-10
-4.51818e-07
-1.58974e-09
-4.50217e-07
-2.72237e-09
-4.47981e-07
-3.89889e-09
-4.4509e-07
-5.1161e-09
-4.41524e-07
-6.37024e-09
-4.37268e-07
-7.65695e-09
-4.32307e-07
-8.97128e-09
-4.26629e-07
-1.03077e-08
-4.20228e-07
-1.16599e-08
-4.131e-07
-1.30212e-08
-4.05243e-07
-1.43842e-08
-3.96664e-07
-1.57408e-08
-3.87369e-07
-1.70828e-08
-3.77372e-07
-1.84009e-08
-3.66692e-07
-1.96859e-08
-3.55352e-07
-2.0928e-08
-3.43382e-07
-2.2117e-08
-3.30814e-07
-2.32427e-08
-3.17689e-07
-2.42948e-08
-3.04052e-07
-2.52627e-08
-2.89954e-07
-2.61362e-08
-2.75449e-07
-2.69053e-08
-2.606e-07
-2.75602e-08
-2.45471e-07
-2.80917e-08
-2.30132e-07
-2.84913e-08
-2.14659e-07
-2.8751e-08
-1.99128e-07
-2.88638e-08
-1.83621e-07
-2.88236e-08
-1.68221e-07
-2.86256e-08
-1.53014e-07
-2.8266e-08
-1.38086e-07
-2.77421e-08
-1.23526e-07
-2.70529e-08
-1.09419e-07
-2.61987e-08
-9.5852e-08
-2.5181e-08
-8.29096e-08
-2.40033e-08
-7.06731e-08
-2.26702e-08
-5.92203e-08
-2.11885e-08
-4.86244e-08
-1.95664e-08
-3.89527e-08
-1.78144e-08
-3.0265e-08
-1.59455e-08
-2.26125e-08
-1.39755e-08
-1.60347e-08
-1.19243e-08
-1.05575e-08
-9.81728e-09
-6.18862e-09
-7.68717e-09
-2.91235e-09
-5.57785e-09
-6.82602e-10
-3.54922e-09
5.87171e-10
-1.68472e-09
1.03659e-09
-1.01963e-10
8.73015e-10
1.03486e-09
3.88028e-10
1.49933e-09
9.7403e-10
1.47533e-10
-5.12372e-10
3.60367e-10
-9.03885e-10
4.864e-10
-8.27806e-10
4.16867e-10
-4.1148e-10
7.18858e-11
2.45665e-10
-6.04633e-10
1.0638e-09
-1.64894e-09
1.98067e-09
-3.08125e-09
2.94886e-09
-4.90908e-09
3.93286e-09
-7.13e-09
4.9065e-09
-9.73412e-09
5.85079e-09
-1.2706e-08
6.75236e-09
-1.60264e-08
7.60214e-09
-1.96733e-08
8.3944e-09
-2.36233e-08
9.12598e-09
-2.78519e-08
9.79569e-09
-3.2335e-08
1.04039e-08
-3.70483e-08
1.0952e-08
-4.19688e-08
1.14424e-08
-4.70741e-08
1.18781e-08
-5.23432e-08
1.22625e-08
-5.77567e-08
1.25993e-08
-6.32965e-08
1.28922e-08
-6.89458e-08
1.31453e-08
-7.46899e-08
1.33624e-08
-8.0515e-08
1.35474e-08
-8.64093e-08
1.37039e-08
-9.23621e-08
1.38356e-08
-9.83642e-08
1.39458e-08
-1.04408e-07
1.40376e-08
-1.10486e-07
1.41141e-08
-1.16594e-07
1.41779e-08
-1.22726e-07
1.42316e-08
-1.28879e-07
1.42775e-08
-1.35051e-07
1.43176e-08
-1.4124e-07
1.4354e-08
-1.47444e-07
1.43883e-08
-1.53663e-07
1.4422e-08
-1.59898e-07
1.44565e-08
-1.66148e-07
1.4493e-08
-1.72415e-07
1.45326e-08
-1.787e-07
1.45761e-08
-1.85006e-07
1.46244e-08
-1.91333e-07
1.46782e-08
-1.97686e-07
1.4738e-08
-2.04065e-07
1.48043e-08
-2.10475e-07
1.48774e-08
-2.16917e-07
1.49579e-08
-2.23396e-07
1.50457e-08
-2.29913e-07
1.51412e-08
-2.36472e-07
1.52443e-08
-2.43076e-07
1.53552e-08
-2.49729e-07
1.54738e-08
-2.56432e-07
1.56e-08
-2.6319e-07
1.57336e-08
-2.70006e-07
1.58745e-08
-2.76881e-07
1.60224e-08
-2.83819e-07
1.61769e-08
-2.90821e-07
1.63376e-08
-2.97891e-07
1.65041e-08
-3.05031e-07
1.66758e-08
-3.12241e-07
1.68522e-08
-3.19525e-07
1.70326e-08
-3.26881e-07
1.72162e-08
-3.34313e-07
1.74022e-08
-3.41819e-07
1.75897e-08
-3.494e-07
1.77777e-08
-3.57055e-07
1.79652e-08
-3.64783e-07
1.81508e-08
-3.72583e-07
1.83335e-08
-3.80453e-07
1.85117e-08
-3.88389e-07
1.86839e-08
-3.96388e-07
1.88487e-08
-4.04446e-07
1.90044e-08
-4.12558e-07
1.91489e-08
-4.20719e-07
1.92806e-08
-4.2892e-07
1.93972e-08
-4.37156e-07
1.94967e-08
-4.45416e-07
1.95768e-08
-4.53692e-07
1.96349e-08
-4.61974e-07
1.96687e-08
-4.70248e-07
1.96755e-08
-4.78503e-07
1.96525e-08
-4.86723e-07
1.95968e-08
-4.94895e-07
1.95056e-08
-5.03001e-07
1.93757e-08
-5.11024e-07
1.9204e-08
-5.18943e-07
1.89873e-08
-5.26739e-07
1.87223e-08
-5.3439e-07
1.84057e-08
-5.41873e-07
1.80341e-08
-5.49162e-07
1.76043e-08
-5.56232e-07
1.71127e-08
-5.63056e-07
1.65562e-08
-5.69605e-07
1.59315e-08
-5.75849e-07
1.52354e-08
-5.81758e-07
1.4465e-08
-5.87298e-07
1.36173e-08
-5.92438e-07
1.26899e-08
-5.97142e-07
1.16803e-08
-6.01377e-07
1.05863e-08
-6.05107e-07
9.4064e-09
-6.08296e-07
8.1391e-09
-6.10908e-07
6.78356e-09
-6.12907e-07
5.33938e-09
-6.14257e-07
3.80673e-09
-6.14923e-07
2.1864e-09
-6.14868e-07
4.7982e-10
-6.14061e-07
-1.31082e-09
-6.12468e-07
-3.18257e-09
-6.10059e-07
-5.13165e-09
-6.06805e-07
-7.15341e-09
-6.02679e-07
-9.24226e-09
-5.97657e-07
-1.13917e-08
-5.9172e-07
-1.35942e-08
-5.8485e-07
-1.58412e-08
-5.77034e-07
-1.81232e-08
-5.68265e-07
-2.04297e-08
-5.58537e-07
-2.2749e-08
-5.47852e-07
-2.50688e-08
-5.36217e-07
-2.73755e-08
-5.23645e-07
-2.96549e-08
-5.10155e-07
-3.18918e-08
-4.9577e-07
-3.40703e-08
-4.80524e-07
-3.61742e-08
-4.64455e-07
-3.81864e-08
-4.47608e-07
-4.00898e-08
-4.30035e-07
-4.1867e-08
-4.11797e-07
-4.35007e-08
-3.9296e-07
-4.49737e-08
-3.73596e-07
-4.62692e-08
-3.53785e-07
-4.7371e-08
-3.33613e-07
-4.82639e-08
-3.13171e-07
-4.89335e-08
-2.92555e-07
-4.93667e-08
-2.71867e-07
-4.95518e-08
-2.51212e-07
-4.94789e-08
-2.30698e-07
-4.91397e-08
-2.10435e-07
-4.85281e-08
-1.90538e-07
-4.764e-08
-1.71117e-07
-4.64736e-08
-1.52286e-07
-4.50296e-08
-1.34156e-07
-4.33111e-08
-1.16835e-07
-4.1324e-08
-1.00428e-07
-3.9077e-08
-8.50351e-08
-3.65817e-08
-7.07484e-08
-3.3853e-08
-5.76533e-08
-3.09096e-08
-4.58245e-08
-2.77743e-08
-3.53246e-08
-2.44753e-08
-2.62014e-08
-2.10476e-08
-1.84839e-08
-1.75347e-08
-1.21786e-08
-1.39925e-08
-7.26341e-09
-1.04931e-08
-3.68089e-09
-7.13174e-09
-1.32952e-09
-4.03609e-09
-5.3059e-11
-1.37842e-09
3.71597e-10
6.102e-10
2.48444e-10
1.62248e-09
1.22248e-09
9.74065e-11
-6.09765e-10
1.80434e-10
-9.86926e-10
1.00739e-10
-7.48122e-10
-2.49937e-10
-6.07847e-11
-9.51557e-10
9.47278e-10
-2.06071e-09
2.17295e-09
-3.61443e-09
3.53439e-09
-5.63357e-09
4.96799e-09
-8.12578e-09
6.42507e-09
-1.10881e-08
7.86887e-09
-1.45095e-08
9.27216e-09
-1.83725e-08
1.06153e-08
-2.26551e-08
1.18848e-08
-2.73323e-08
1.30715e-08
-3.23768e-08
1.41705e-08
-3.77604e-08
1.51793e-08
-4.34546e-08
1.60981e-08
-4.94311e-08
1.69285e-08
-5.56624e-08
1.76737e-08
-6.2122e-08
1.83377e-08
-6.87847e-08
1.89253e-08
-7.56271e-08
1.94417e-08
-8.26274e-08
1.98924e-08
-8.97652e-08
2.02832e-08
-9.70225e-08
2.06197e-08
-1.04383e-07
2.09074e-08
-1.11831e-07
2.1152e-08
-1.19354e-07
2.13586e-08
-1.2694e-07
2.15322e-08
-1.3458e-07
2.16776e-08
-1.42265e-07
2.17992e-08
-1.49988e-07
2.1901e-08
-1.57744e-07
2.1987e-08
-1.65527e-07
2.20605e-08
-1.73334e-07
2.21248e-08
-1.81163e-07
2.21827e-08
-1.89011e-07
2.22369e-08
-1.96879e-07
2.22897e-08
-2.04766e-07
2.23431e-08
-2.12672e-07
2.23991e-08
-2.20598e-07
2.24592e-08
-2.28547e-07
2.25248e-08
-2.3652e-07
2.25972e-08
-2.44519e-07
2.26775e-08
-2.52547e-07
2.27665e-08
-2.60608e-07
2.2865e-08
-2.68704e-07
2.29736e-08
-2.76839e-07
2.30928e-08
-2.85017e-07
2.3223e-08
-2.9324e-07
2.33644e-08
-3.01513e-07
2.35171e-08
-3.09839e-07
2.36812e-08
-3.18221e-07
2.38567e-08
-3.26665e-07
2.40434e-08
-3.35172e-07
2.4241e-08
-3.43747e-07
2.44493e-08
-3.52392e-07
2.46677e-08
-3.61111e-07
2.48959e-08
-3.69907e-07
2.51331e-08
-3.78781e-07
2.53786e-08
-3.87737e-07
2.56316e-08
-3.96776e-07
2.58912e-08
-4.059e-07
2.61563e-08
-4.15109e-07
2.64257e-08
-4.24405e-07
2.66982e-08
-4.33788e-07
2.69724e-08
-4.43257e-07
2.72467e-08
-4.52811e-07
2.75194e-08
-4.62449e-07
2.77886e-08
-4.72168e-07
2.80526e-08
-4.81965e-07
2.8309e-08
-4.91837e-07
2.85556e-08
-5.01778e-07
2.87899e-08
-5.11783e-07
2.90095e-08
-5.21846e-07
2.92114e-08
-5.31958e-07
2.93927e-08
-5.42111e-07
2.95503e-08
-5.52295e-07
2.96809e-08
-5.62499e-07
2.9781e-08
-5.72711e-07
2.98469e-08
-5.82917e-07
2.98749e-08
-5.93103e-07
2.98609e-08
-6.03251e-07
2.98008e-08
-6.13345e-07
2.96903e-08
-6.23364e-07
2.95249e-08
-6.33288e-07
2.93001e-08
-6.43095e-07
2.90111e-08
-6.52761e-07
2.86531e-08
-6.6226e-07
2.82213e-08
-6.71565e-07
2.77108e-08
-6.80648e-07
2.71165e-08
-6.89477e-07
2.64335e-08
-6.98021e-07
2.5657e-08
-7.06247e-07
2.47819e-08
-7.14119e-07
2.38037e-08
-7.21602e-07
2.27178e-08
-7.28656e-07
2.15198e-08
-7.35245e-07
2.02056e-08
-7.41326e-07
1.87715e-08
-7.4686e-07
1.72141e-08
-7.51804e-07
1.55305e-08
-7.56116e-07
1.37184e-08
-7.59753e-07
1.1776e-08
-7.62672e-07
9.70223e-09
-7.64829e-07
7.49672e-09
-7.66183e-07
5.16e-09
-7.6669e-07
2.69352e-09
-7.6631e-07
9.96955e-11
-7.65002e-07
-2.61795e-09
-7.6273e-07
-5.45476e-09
-7.59457e-07
-8.40483e-09
-7.55149e-07
-1.1461e-08
-7.49777e-07
-1.46147e-08
-7.43313e-07
-1.7856e-08
-7.35733e-07
-2.11735e-08
-7.2702e-07
-2.45545e-08
-7.17159e-07
-2.79845e-08
-7.06141e-07
-3.14477e-08
-6.93963e-07
-3.4927e-08
-6.80628e-07
-3.84037e-08
-6.66146e-07
-4.18577e-08
-6.50533e-07
-4.52678e-08
-6.33813e-07
-4.86116e-08
-6.16018e-07
-5.18657e-08
-5.97186e-07
-5.50059e-08
-5.77365e-07
-5.80071e-08
-5.56611e-07
-6.08442e-08
-5.34986e-07
-6.34914e-08
-5.12564e-07
-6.59232e-08
-4.89423e-07
-6.81144e-08
-4.65652e-07
-7.00403e-08
-4.41346e-07
-7.16772e-08
-4.16607e-07
-7.30024e-08
-3.91546e-07
-7.39951e-08
-3.66277e-07
-7.46359e-08
-3.40921e-07
-7.49079e-08
-3.15603e-07
-7.47962e-08
-2.90454e-07
-7.4289e-08
-2.65605e-07
-7.33773e-08
-2.4119e-07
-7.20552e-08
-2.17343e-07
-7.03203e-08
-1.94198e-07
-6.8174e-08
-1.71888e-07
-6.56212e-08
-1.50541e-07
-6.26711e-08
-1.30281e-07
-5.93371e-08
-1.11226e-07
-5.56372e-08
-9.34842e-08
-5.15946e-08
-7.7156e-08
-4.72378e-08
-6.23281e-08
-4.26022e-08
-4.90726e-08
-3.77308e-08
-3.74438e-08
-3.26764e-08
-2.74743e-08
-2.75042e-08
-1.91709e-08
-2.22959e-08
-1.25093e-08
-1.71547e-08
-7.42801e-09
-1.2213e-08
-3.82144e-09
-7.64266e-09
-1.53174e-09
-3.66812e-09
-3.40334e-10
-5.81207e-10
4.25814e-11
1.23956e-09
1.26506e-09
2.97977e-11
-6.39565e-10
-5.96874e-11
-8.9744e-10
-4.02945e-10
-4.04855e-10
-1.10083e-09
6.37098e-10
-2.22836e-09
2.07482e-09
-3.83884e-09
3.78343e-09
-5.96705e-09
5.66259e-09
-8.63216e-09
7.6331e-09
-1.18404e-08
9.63328e-09
-1.55872e-08
1.16157e-08
-1.98599e-08
1.35448e-08
-2.46388e-08
1.53943e-08
-2.98996e-08
1.71456e-08
-3.56143e-08
1.87863e-08
-4.17528e-08
2.0309e-08
-4.82835e-08
2.171e-08
-5.51743e-08
2.29889e-08
-6.23935e-08
2.41477e-08
-6.99097e-08
2.519e-08
-7.76931e-08
2.61211e-08
-8.5715e-08
2.69472e-08
-9.39484e-08
2.76751e-08
-1.02368e-07
2.83122e-08
-1.10951e-07
2.88662e-08
-1.19676e-07
2.93446e-08
-1.28524e-07
2.97551e-08
-1.37477e-07
3.0105e-08
-1.4652e-07
3.04017e-08
-1.55639e-07
3.06518e-08
-1.64824e-07
3.0862e-08
-1.74063e-07
3.10382e-08
-1.83348e-07
3.11863e-08
-1.92673e-07
3.13114e-08
-2.02031e-07
3.14185e-08
-2.11418e-07
3.15119e-08
-2.20831e-07
3.15956e-08
-2.30267e-07
3.16734e-08
-2.39726e-07
3.17486e-08
-2.49207e-07
3.18239e-08
-2.5871e-07
3.19021e-08
-2.68236e-07
3.19855e-08
-2.77787e-07
3.2076e-08
-2.87366e-07
3.21755e-08
-2.96973e-07
3.22853e-08
-3.06614e-07
3.24069e-08
-3.1629e-07
3.25412e-08
-3.26006e-07
3.26892e-08
-3.35764e-07
3.28516e-08
-3.4557e-07
3.30287e-08
-3.55427e-07
3.32212e-08
-3.65339e-07
3.3429e-08
-3.7531e-07
3.36524e-08
-3.85344e-07
3.38912e-08
-3.95446e-07
3.41452e-08
-4.05619e-07
3.4414e-08
-4.15867e-07
3.46973e-08
-4.26194e-07
3.49943e-08
-4.36602e-07
3.53043e-08
-4.47096e-07
3.56264e-08
-4.57677e-07
3.59596e-08
-4.68348e-07
3.63026e-08
-4.79111e-07
3.66541e-08
-4.89967e-07
3.70127e-08
-5.00918e-07
3.73766e-08
-5.11964e-07
3.7744e-08
-5.23104e-07
3.81128e-08
-5.34338e-07
3.84809e-08
-5.45665e-07
3.88459e-08
-5.57081e-07
3.92051e-08
-5.68585e-07
3.95558e-08
-5.80171e-07
3.98949e-08
-5.91834e-07
4.02192e-08
-6.0357e-07
4.05253e-08
-6.1537e-07
4.08094e-08
-6.27226e-07
4.10676e-08
-6.39129e-07
4.12958e-08
-6.51068e-07
4.14896e-08
-6.63032e-07
4.16443e-08
-6.75006e-07
4.1755e-08
-6.86975e-07
4.18167e-08
-6.98925e-07
4.18241e-08
-7.10835e-07
4.17715e-08
-7.22688e-07
4.16532e-08
-7.3446e-07
4.14632e-08
-7.46131e-07
4.11953e-08
-7.57674e-07
4.08433e-08
-7.69064e-07
4.04007e-08
-7.80271e-07
3.98608e-08
-7.91267e-07
3.92169e-08
-8.02019e-07
3.84624e-08
-8.12493e-07
3.75904e-08
-8.22653e-07
3.65942e-08
-8.32463e-07
3.54671e-08
-8.41884e-07
3.42026e-08
-8.50874e-07
3.27943e-08
-8.59393e-07
3.12361e-08
-8.67395e-07
2.95222e-08
-8.74837e-07
2.76471e-08
-8.81671e-07
2.56061e-08
-8.87852e-07
2.33946e-08
-8.9333e-07
2.1009e-08
-8.98058e-07
1.84463e-08
-9.01986e-07
1.57044e-08
-9.05066e-07
1.27821e-08
-9.07249e-07
9.67925e-09
-9.08486e-07
6.39695e-09
-9.0873e-07
2.93748e-09
-9.07934e-07
-6.95466e-10
-9.06056e-07
-4.49673e-09
-9.03051e-07
-8.45958e-09
-8.9888e-07
-1.25756e-08
-8.93507e-07
-1.68346e-08
-8.86897e-07
-2.12246e-08
-8.79021e-07
-2.57317e-08
-8.69855e-07
-3.034e-08
-8.59377e-07
-3.50317e-08
-8.47575e-07
-3.97871e-08
-8.34438e-07
-4.45842e-08
-8.19966e-07
-4.93995e-08
-8.04162e-07
-5.42072e-08
-7.8704e-07
-5.89799e-08
-7.68619e-07
-6.36885e-08
-7.48928e-07
-6.83025e-08
-7.28004e-07
-7.27898e-08
-7.05893e-07
-7.71175e-08
-6.82648e-07
-8.12514e-08
-6.58335e-07
-8.51572e-08
-6.33027e-07
-8.87999e-08
-6.06805e-07
-9.21449e-08
-5.79762e-07
-9.51578e-08
-5.51997e-07
-9.78051e-08
-5.23619e-07
-1.00055e-07
-4.94746e-07
-1.01876e-07
-4.65502e-07
-1.0324e-07
-4.36017e-07
-1.0412e-07
-4.0643e-07
-1.04495e-07
-3.76883e-07
-1.04343e-07
-3.47523e-07
-1.03649e-07
-3.18499e-07
-1.02401e-07
-2.89965e-07
-1.0059e-07
-2.62072e-07
-9.82133e-08
-2.34972e-07
-9.52736e-08
-2.08815e-07
-9.17779e-08
-1.83747e-07
-8.77391e-08
-1.59908e-07
-8.31762e-08
-1.37431e-07
-7.81148e-08
-1.16438e-07
-7.25872e-08
-9.70421e-08
-6.66339e-08
-7.93401e-08
-6.03042e-08
-6.34129e-08
-5.3658e-08
-4.93213e-08
-4.6768e-08
-3.71025e-08
-3.9723e-08
-2.67665e-08
-3.26319e-08
-1.82912e-08
-2.563e-08
-1.16177e-08
-1.88865e-08
-6.64553e-09
-1.26149e-08
-3.22673e-09
-7.08692e-09
-1.16147e-09
-2.64646e-09
-1.92949e-10
2.7104e-10
1.07211e-09
-4.82914e-11
-5.91279e-10
-3.39224e-10
-6.06493e-10
-9.87927e-10
2.43837e-10
-2.08285e-09
1.73203e-09
-3.69028e-09
3.68224e-09
-5.85708e-09
5.95023e-09
-8.61323e-09
8.41875e-09
-1.19742e-08
1.09941e-08
-1.59433e-08
1.36023e-08
-2.05133e-08
1.61858e-08
-2.56689e-08
1.87004e-08
-3.13883e-08
2.11136e-08
-3.76443e-08
2.34016e-08
-4.44066e-08
2.55485e-08
-5.16419e-08
2.75443e-08
-5.93159e-08
2.9384e-08
-6.73936e-08
3.10666e-08
-7.58399e-08
3.2594e-08
-8.46206e-08
3.39707e-08
-9.37027e-08
3.52031e-08
-1.03054e-07
3.62988e-08
-1.12646e-07
3.72665e-08
-1.22449e-07
3.81154e-08
-1.32438e-07
3.88552e-08
-1.42589e-07
3.94957e-08
-1.52881e-07
4.00466e-08
-1.63293e-07
4.05174e-08
-1.73809e-07
4.09176e-08
-1.84413e-07
4.12558e-08
-1.95092e-07
4.15407e-08
-2.05833e-07
4.17801e-08
-2.16628e-07
4.19814e-08
-2.27469e-07
4.21516e-08
-2.38347e-07
4.22971e-08
-2.49259e-07
4.24237e-08
-2.602e-07
4.25366e-08
-2.71167e-07
4.26409e-08
-2.8216e-07
4.27407e-08
-2.93176e-07
4.284e-08
-3.04216e-07
4.29423e-08
-3.15281e-07
4.30506e-08
-3.26372e-07
4.31676e-08
-3.37493e-07
4.32957e-08
-3.48644e-07
4.34369e-08
-3.5983e-07
4.35929e-08
-3.71054e-07
4.37652e-08
-3.8232e-07
4.39549e-08
-3.93631e-07
4.41629e-08
-4.04992e-07
4.43901e-08
-4.16408e-07
4.46368e-08
-4.27882e-07
4.49033e-08
-4.3942e-07
4.51898e-08
-4.51025e-07
4.54961e-08
-4.62701e-07
4.58219e-08
-4.74454e-07
4.61668e-08
-4.86287e-07
4.65301e-08
-4.98203e-07
4.69109e-08
-5.10207e-07
4.73082e-08
-5.22302e-07
4.77208e-08
-5.34489e-07
4.81472e-08
-5.46773e-07
4.85859e-08
-5.59153e-07
4.9035e-08
-5.71633e-07
4.94924e-08
-5.84213e-07
4.99559e-08
-5.96892e-07
5.04231e-08
-6.0967e-07
5.08911e-08
-6.22546e-07
5.1357e-08
-6.35518e-07
5.18176e-08
-6.48582e-07
5.22693e-08
-6.61734e-07
5.27084e-08
-6.7497e-07
5.31309e-08
-6.88284e-07
5.35324e-08
-7.01667e-07
5.39083e-08
-7.15111e-07
5.42537e-08
-7.28607e-07
5.45634e-08
-7.42143e-07
5.48317e-08
-7.55706e-07
5.5053e-08
-7.69283e-07
5.5221e-08
-7.82857e-07
5.53294e-08
-7.96412e-07
5.53713e-08
-8.09927e-07
5.53398e-08
-8.23383e-07
5.52274e-08
-8.36757e-07
5.50268e-08
-8.50024e-07
5.473e-08
-8.63157e-07
5.43289e-08
-8.76129e-07
5.38154e-08
-8.8891e-07
5.31809e-08
-9.01466e-07
5.2417e-08
-9.13764e-07
5.15149e-08
-9.25767e-07
5.04659e-08
-9.37438e-07
4.92612e-08
-9.48736e-07
4.78923e-08
-9.5962e-07
4.63506e-08
-9.70045e-07
4.46276e-08
-9.79966e-07
4.27154e-08
-9.89336e-07
4.0606e-08
-9.98106e-07
3.82924e-08
-1.00623e-06
3.57675e-08
-1.01365e-06
3.30255e-08
-1.02031e-06
3.00608e-08
-1.02617e-06
2.68689e-08
-1.03117e-06
2.34465e-08
-1.03526e-06
1.97909e-08
-1.03838e-06
1.59012e-08
-1.04048e-06
1.17776e-08
-1.0415e-06
7.42173e-09
-1.0414e-06
2.8371e-09
-1.04012e-06
-1.97112e-09
-1.03763e-06
-6.99584e-09
-1.03386e-06
-1.22279e-08
-1.02878e-06
-1.76561e-08
-1.02234e-06
-2.32667e-08
-1.01453e-06
-2.9044e-08
-1.00529e-06
-3.49695e-08
-9.94605e-07
-4.10225e-08
-9.82457e-07
-4.71797e-08
-9.68829e-07
-5.34151e-08
-9.53713e-07
-5.97003e-08
-9.37108e-07
-6.60045e-08
-9.19021e-07
-7.22945e-08
-8.99466e-07
-7.85346e-08
-8.78467e-07
-8.46873e-08
-8.56057e-07
-9.0713e-08
-8.32276e-07
-9.65703e-08
-8.07177e-07
-1.02217e-07
-7.8082e-07
-1.07608e-07
-7.53276e-07
-1.12701e-07
-7.24627e-07
-1.17449e-07
-6.94964e-07
-1.21808e-07
-6.64387e-07
-1.25735e-07
-6.33007e-07
-1.29185e-07
-6.00944e-07
-1.32117e-07
-5.68327e-07
-1.34493e-07
-5.35293e-07
-1.36274e-07
-5.01986e-07
-1.37427e-07
-4.68558e-07
-1.37923e-07
-4.35165e-07
-1.37736e-07
-4.01969e-07
-1.36845e-07
-3.69136e-07
-1.35234e-07
-3.36832e-07
-1.32894e-07
-3.05225e-07
-1.2982e-07
-2.74482e-07
-1.26016e-07
-2.44769e-07
-1.21491e-07
-2.16244e-07
-1.16263e-07
-1.89064e-07
-1.10357e-07
-1.63372e-07
-1.03806e-07
-1.39306e-07
-9.66536e-08
-1.16987e-07
-8.89527e-08
-9.65235e-08
-8.0768e-08
-7.80038e-08
-7.21776e-08
-6.14965e-08
-6.32753e-08
-4.70454e-08
-5.41742e-08
-3.46662e-08
-4.50111e-08
-2.43437e-08
-3.59526e-08
-1.60274e-08
-2.72027e-08
-9.629e-09
-1.90133e-08
-5.0191e-09
-1.16968e-08
-2.02629e-09
-5.63927e-09
-4.37215e-10
-1.31804e-09
6.34897e-10
-1.32505e-10
-4.5877e-10
-6.44066e-10
-9.49304e-11
-1.62784e-09
1.22761e-09
-3.15677e-09
3.26096e-09
-5.2855e-09
5.81097e-09
-8.05202e-09
8.71675e-09
-1.14794e-08
1.18462e-08
-1.55778e-08
1.50924e-08
-2.03458e-08
1.83703e-08
-2.57727e-08
2.16127e-08
-3.18399e-08
2.47676e-08
-3.85225e-08
2.77962e-08
-4.57907e-08
3.06698e-08
-5.36111e-08
3.3369e-08
-6.19481e-08
3.58813e-08
-7.07644e-08
3.82003e-08
-8.00221e-08
4.03243e-08
-8.96837e-08
4.22555e-08
-9.9712e-08
4.39991e-08
-1.10071e-07
4.55625e-08
-1.20727e-07
4.69548e-08
-1.31648e-07
4.81867e-08
-1.42802e-07
4.92694e-08
-1.54161e-07
5.02146e-08
-1.657e-07
5.10345e-08
-1.77394e-07
5.17411e-08
-1.89223e-07
5.23461e-08
-2.01167e-07
5.28612e-08
-2.13208e-07
5.32974e-08
-2.25333e-07
5.36652e-08
-2.37527e-07
5.39746e-08
-2.49781e-07
5.42349e-08
-2.62084e-07
5.44548e-08
-2.74429e-07
5.46424e-08
-2.86811e-07
5.4805e-08
-2.99223e-07
5.49494e-08
-3.11664e-07
5.50816e-08
-3.24131e-07
5.52073e-08
-3.36622e-07
5.53314e-08
-3.49138e-07
5.54583e-08
-3.6168e-07
5.55919e-08
-3.74248e-07
5.57357e-08
-3.86845e-07
5.58927e-08
-3.99473e-07
5.60655e-08
-4.12137e-07
5.62563e-08
-4.24839e-07
5.6467e-08
-4.37583e-07
5.66991e-08
-4.50374e-07
5.69537e-08
-4.63215e-07
5.72318e-08
-4.76113e-07
5.75341e-08
-4.8907e-07
5.78608e-08
-5.02093e-07
5.82122e-08
-5.15185e-07
5.8588e-08