/*--------------------------------*- C++ -*----------------------------------*\
  =========                 |
  \\      /  F ield         | OpenFOAM: The Open Source CFD Toolbox
   \\    /   O peration     | Website:  https://openfoam.org
    \\  /    A nd           | Version:  7
     \\/     M anipulation  |
\*---------------------------------------------------------------------------*/
FoamFile
{
    version     2.0;
    format      ascii;
    class       volVectorField;
    location    "0.275";
    object      U;
}
// * * * * * * * * * * * * * * * * * * * * * * * * * * * * * * * * * * * * * //

dimensions      [0 1 -1 0 0 0 0];

internalField   nonuniform List<vector> 
12800
(
(3.27432e-06 -3.43871e-06 0)
(1.84391e-05 -9.8934e-06 0)
(4.45528e-05 -1.20871e-05 0)
(7.08991e-05 -1.111e-05 0)
(9.07986e-05 -8.37065e-06 0)
(0.000100911 -4.74151e-06 0)
(9.94458e-05 -7.24803e-07 0)
(8.55744e-05 3.38276e-06 0)
(5.911e-05 7.40692e-06 0)
(2.02813e-05 1.12494e-05 0)
(-3.04193e-05 1.4854e-05 0)
(-9.23336e-05 1.81915e-05 0)
(-0.000164702 2.1249e-05 0)
(-0.000246714 2.40231e-05 0)
(-0.000337538 2.65188e-05 0)
(-0.000436344 2.87462e-05 0)
(-0.000542325 3.07188e-05 0)
(-0.000654707 3.24523e-05 0)
(-0.000772754 3.39639e-05 0)
(-0.00089578 3.52716e-05 0)
(-0.00102315 3.63932e-05 0)
(-0.00115427 3.73466e-05 0)
(-0.00128862 3.815e-05 0)
(-0.00142572 3.88202e-05 0)
(-0.00156515 3.93733e-05 0)
(-0.00170651 3.98247e-05 0)
(-0.00184949 4.01887e-05 0)
(-0.0019938 4.04785e-05 0)
(-0.00213919 4.07063e-05 0)
(-0.00228546 4.08833e-05 0)
(-0.00243244 4.10203e-05 0)
(-0.00257999 4.11263e-05 0)
(-0.002728 4.12096e-05 0)
(-0.0028764 4.12777e-05 0)
(-0.00302513 4.13373e-05 0)
(-0.00317416 4.13943e-05 0)
(-0.00332347 4.14538e-05 0)
(-0.00347307 4.15206e-05 0)
(-0.00362297 4.15987e-05 0)
(-0.00377321 4.16912e-05 0)
(-0.00392384 4.18013e-05 0)
(-0.0040749 4.19313e-05 0)
(-0.00422646 4.20833e-05 0)
(-0.00437858 4.22591e-05 0)
(-0.00453135 4.24604e-05 0)
(-0.00468485 4.26881e-05 0)
(-0.00483915 4.29431e-05 0)
(-0.00499435 4.32263e-05 0)
(-0.00515054 4.35383e-05 0)
(-0.00530782 4.38794e-05 0)
(-0.00546627 4.42498e-05 0)
(-0.00562599 4.46495e-05 0)
(-0.00578708 4.50783e-05 0)
(-0.00594962 4.5536e-05 0)
(-0.00611372 4.60221e-05 0)
(-0.00627946 4.65365e-05 0)
(-0.00644693 4.70782e-05 0)
(-0.00661622 4.76465e-05 0)
(-0.00678741 4.82403e-05 0)
(-0.00696057 4.88585e-05 0)
(-0.00713579 4.94996e-05 0)
(-0.00731312 5.01622e-05 0)
(-0.00749264 5.08446e-05 0)
(-0.00767439 5.15449e-05 0)
(-0.00785842 5.22609e-05 0)
(-0.00804476 5.299e-05 0)
(-0.00823346 5.37297e-05 0)
(-0.00842452 5.44769e-05 0)
(-0.00861796 5.52283e-05 0)
(-0.00881376 5.59802e-05 0)
(-0.00901191 5.67287e-05 0)
(-0.00921237 5.74695e-05 0)
(-0.00941509 5.81982e-05 0)
(-0.00962 5.89096e-05 0)
(-0.00982702 5.95983e-05 0)
(-0.010036 6.02584e-05 0)
(-0.0102469 6.08836e-05 0)
(-0.0104595 6.14672e-05 0)
(-0.0106737 6.2002e-05 0)
(-0.0108892 6.24805e-05 0)
(-0.0111058 6.28944e-05 0)
(-0.0113233 6.32353e-05 0)
(-0.0115414 6.34941e-05 0)
(-0.0117597 6.36612e-05 0)
(-0.0119779 6.37266e-05 0)
(-0.0121956 6.368e-05 0)
(-0.0124124 6.35104e-05 0)
(-0.0126279 6.32065e-05 0)
(-0.0128415 6.27566e-05 0)
(-0.0130527 6.21485e-05 0)
(-0.0132609 6.13697e-05 0)
(-0.0134655 6.04078e-05 0)
(-0.0136659 5.92499e-05 0)
(-0.0138614 5.78832e-05 0)
(-0.0140511 5.62947e-05 0)
(-0.0142344 5.44717e-05 0)
(-0.0144103 5.24014e-05 0)
(-0.0145782 5.00713e-05 0)
(-0.0147369 4.74697e-05 0)
(-0.0148857 4.45852e-05 0)
(-0.0150236 4.14075e-05 0)
(-0.0151495 3.79269e-05 0)
(-0.0152624 3.41351e-05 0)
(-0.0153614 3.00249e-05 0)
(-0.0154453 2.55911e-05 0)
(-0.0155131 2.083e-05 0)
(-0.0155637 1.57401e-05 0)
(-0.0155961 1.03221e-05 0)
(-0.0156092 4.57949e-06 0)
(-0.015602 -1.48159e-06 0)
(-0.0155734 -7.8522e-06 0)
(-0.0155226 -1.45198e-05 0)
(-0.0154486 -2.14684e-05 0)
(-0.0153506 -2.86781e-05 0)
(-0.0152279 -3.61256e-05 0)
(-0.0150796 -4.37831e-05 0)
(-0.0149054 -5.16189e-05 0)
(-0.0147047 -5.9597e-05 0)
(-0.0144771 -6.76772e-05 0)
(-0.0142226 -7.5815e-05 0)
(-0.013941 -8.39619e-05 0)
(-0.0136326 -9.20654e-05 0)
(-0.0132975 -0.00010007 0)
(-0.0129363 -0.000107915 0)
(-0.0125497 -0.000115539 0)
(-0.0121386 -0.000122878 0)
(-0.0117041 -0.000129864 0)
(-0.0112475 -0.00013643 0)
(-0.0107703 -0.000142507 0)
(-0.0102744 -0.000148029 0)
(-0.00976157 -0.000152928 0)
(-0.00923413 -0.00015714 0)
(-0.0086944 -0.000160602 0)
(-0.00814495 -0.000163258 0)
(-0.00758853 -0.000165052 0)
(-0.00702801 -0.000165939 0)
(-0.00646645 -0.000165875 0)
(-0.005907 -0.000164827 0)
(-0.00535289 -0.000162767 0)
(-0.00480746 -0.000159677 0)
(-0.00427407 -0.000155544 0)
(-0.00375609 -0.000150365 0)
(-0.00325689 -0.000144146 0)
(-0.00277981 -0.000136899 0)
(-0.0023281 -0.000128646 0)
(-0.00190493 -0.000119413 0)
(-0.00151334 -0.000109236 0)
(-0.00115621 -9.81551e-05 0)
(-0.000836234 -8.62195e-05 0)
(-0.000555879 -7.34866e-05 0)
(-0.000317324 -6.00269e-05 0)
(-0.000122392 -4.59334e-05 0)
(2.75691e-05 -3.13415e-05 0)
(0.000131872 -1.64652e-05 0)
(0.000190819 -1.67587e-06 0)
(0.00020626 1.23375e-05 0)
(0.000182434 2.43107e-05 0)
(0.000127831 3.17983e-05 0)
(6.09462e-05 3.02411e-05 0)
(1.38238e-05 1.38449e-05 0)
(9.84556e-06 -1.86976e-05 0)
(4.21094e-05 -4.2194e-05 0)
(8.87874e-05 -4.81262e-05 0)
(0.000131036 -4.0932e-05 0)
(0.000156272 -2.53881e-05 0)
(0.00015709 -4.90995e-06 0)
(0.00012888 1.81995e-05 0)
(6.90793e-05 4.2395e-05 0)
(-2.33156e-05 6.66507e-05 0)
(-0.000148201 9.02936e-05 0)
(-0.000304709 0.000112885 0)
(-0.000491447 0.000134148 0)
(-0.000706678 0.00015392 0)
(-0.000948455 0.000172115 0)
(-0.00121471 0.000188706 0)
(-0.00150334 0.000203709 0)
(-0.00181226 0.00021717 0)
(-0.00213942 0.000229155 0)
(-0.00248286 0.000239749 0)
(-0.00284075 0.000249043 0)
(-0.00321134 0.000257136 0)
(-0.00359302 0.000264129 0)
(-0.00398434 0.000270125 0)
(-0.00438393 0.000275225 0)
(-0.00479062 0.000279527 0)
(-0.0052033 0.000283127 0)
(-0.00562104 0.000286113 0)
(-0.00604301 0.00028857 0)
(-0.00646849 0.000290578 0)
(-0.00689687 0.000292209 0)
(-0.00732764 0.000293533 0)
(-0.00776037 0.000294611 0)
(-0.00819474 0.000295499 0)
(-0.00863049 0.000296249 0)
(-0.00906742 0.000296906 0)
(-0.00950541 0.000297513 0)
(-0.00994439 0.000298106 0)
(-0.0103843 0.000298716 0)
(-0.0108253 0.000299373 0)
(-0.0112673 0.000300102 0)
(-0.0117105 0.000300924 0)
(-0.0121549 0.000301857 0)
(-0.0126008 0.000302919 0)
(-0.0130484 0.000304122 0)
(-0.0134977 0.000305478 0)
(-0.0139491 0.000306997 0)
(-0.0144027 0.000308685 0)
(-0.0148588 0.000310549 0)
(-0.0153177 0.000312593 0)
(-0.0157795 0.000314821 0)
(-0.0162446 0.000317234 0)
(-0.0167131 0.000319833 0)
(-0.0171854 0.000322616 0)
(-0.0176618 0.000325583 0)
(-0.0181423 0.000328729 0)
(-0.0186274 0.000332051 0)
(-0.0191171 0.000335545 0)
(-0.0196119 0.000339202 0)
(-0.0201118 0.000343016 0)
(-0.0206171 0.000346978 0)
(-0.0211279 0.000351076 0)
(-0.0216445 0.0003553 0)
(-0.022167 0.000359637 0)
(-0.0226955 0.000364071 0)
(-0.0232302 0.000368586 0)
(-0.023771 0.000373164 0)
(-0.0243182 0.000377785 0)
(-0.0248716 0.000382426 0)
(-0.0254314 0.000387063 0)
(-0.0259973 0.00039167 0)
(-0.0265694 0.000396219 0)
(-0.0271475 0.000400679 0)
(-0.0277315 0.000405017 0)
(-0.028321 0.000409196 0)
(-0.0289159 0.000413178 0)
(-0.0295158 0.000416923 0)
(-0.0301202 0.000420385 0)
(-0.0307287 0.000423519 0)
(-0.0313407 0.000426275 0)
(-0.0319557 0.0004286 0)
(-0.032573 0.000430438 0)
(-0.0331917 0.000431732 0)
(-0.0338111 0.00043242 0)
(-0.0344301 0.000432438 0)
(-0.0350478 0.000431719 0)
(-0.0356629 0.000430194 0)
(-0.0362743 0.000427792 0)
(-0.0368806 0.000424436 0)
(-0.0374804 0.000420053 0)
(-0.0380721 0.000414562 0)
(-0.038654 0.000407886 0)
(-0.0392245 0.000399943 0)
(-0.0397815 0.000390654 0)
(-0.0403232 0.000379937 0)
(-0.0408474 0.000367713 0)
(-0.0413518 0.000353902 0)
(-0.0418343 0.000338429 0)
(-0.0422923 0.000321219 0)
(-0.0427234 0.000302203 0)
(-0.0431249 0.000281315 0)
(-0.0434943 0.000258498 0)
(-0.0438287 0.000233699 0)
(-0.0441253 0.000206873 0)
(-0.0443813 0.000177989 0)
(-0.0445938 0.000147022 0)
(-0.04476 0.000113962 0)
(-0.0448768 7.88127e-05 0)
(-0.0449416 4.15925e-05 0)
(-0.0449513 2.33678e-06 0)
(-0.0449034 -3.89005e-05 0)
(-0.0447951 -8.20464e-05 0)
(-0.044624 -0.000127007 0)
(-0.0443877 -0.000173666 0)
(-0.0440839 -0.000221883 0)
(-0.0437108 -0.000271496 0)
(-0.0432667 -0.000322314 0)
(-0.04275 -0.000374126 0)
(-0.0421599 -0.00042669 0)
(-0.0414954 -0.000479741 0)
(-0.0407562 -0.000532991 0)
(-0.0399425 -0.000586124 0)
(-0.0390548 -0.000638803 0)
(-0.038094 -0.00069067 0)
(-0.0370616 -0.000741348 0)
(-0.0359598 -0.000790444 0)
(-0.0347911 -0.00083755 0)
(-0.0335587 -0.000882249 0)
(-0.0322663 -0.000924121 0)
(-0.0309181 -0.00096274 0)
(-0.0295192 -0.000997688 0)
(-0.028075 -0.00102855 0)
(-0.0265913 -0.00105494 0)
(-0.0250749 -0.00107646 0)
(-0.0235326 -0.00109277 0)
(-0.021972 -0.00110354 0)
(-0.0204009 -0.00110847 0)
(-0.0188277 -0.00110733 0)
(-0.0172609 -0.0010999 0)
(-0.0157092 -0.00108601 0)
(-0.0141818 -0.00106557 0)
(-0.0126876 -0.00103851 0)
(-0.0112359 -0.00100483 0)
(-0.00983565 -0.00096458 0)
(-0.00849584 -0.000917873 0)
(-0.0072252 -0.000864873 0)
(-0.00603216 -0.000805806 0)
(-0.00492478 -0.000740959 0)
(-0.00391057 -0.000670685 0)
(-0.00299648 -0.000595419 0)
(-0.00218867 -0.000515692 0)
(-0.00149235 -0.000432173 0)
(-0.000911556 -0.000345733 0)
(-0.000448759 -0.000257551 0)
(-0.000104343 -0.00016931 0)
(0.000124174 -8.35253e-05 0)
(0.000243345 -4.09917e-06 0)
(0.000265264 6.27843e-05 0)
(0.000210031 0.000107191 0)
(0.000113181 0.00011343 0)
(3.00585e-05 6.08263e-05 0)
(1.21877e-05 -4.48498e-05 0)
(4.84351e-05 -8.8946e-05 0)
(9.51329e-05 -9.47237e-05 0)
(0.000129334 -7.2192e-05 0)
(0.000135761 -3.03336e-05 0)
(0.000104928 2.3854e-05 0)
(3.05146e-05 8.51919e-05 0)
(-9.12542e-05 0.000149948 0)
(-0.000262082 0.00021548 0)
(-0.000482116 0.000279938 0)
(-0.000750366 0.00034205 0)
(-0.00106502 0.000400964 0)
(-0.0014237 0.000456133 0)
(-0.00182366 0.000507243 0)
(-0.00226191 0.000554146 0)
(-0.00273536 0.000596822 0)
(-0.00324092 0.000635341 0)
(-0.00377551 0.000669847 0)
(-0.00433618 0.000700531 0)
(-0.00492009 0.000727619 0)
(-0.00552457 0.00075136 0)
(-0.00614714 0.000772019 0)
(-0.0067855 0.000789862 0)
(-0.00743754 0.00080516 0)
(-0.00810136 0.000818176 0)
(-0.00877525 0.000829169 0)
(-0.00945769 0.000838385 0)
(-0.0101473 0.000846058 0)
(-0.010843 0.000852409 0)
(-0.0115438 0.000857642 0)
(-0.0122487 0.000861949 0)
(-0.0129572 0.000865506 0)
(-0.0136686 0.000868473 0)
(-0.0143824 0.000870997 0)
(-0.0150985 0.000873211 0)
(-0.0158164 0.000875233 0)
(-0.0165361 0.000877171 0)
(-0.0172575 0.000879118 0)
(-0.0179806 0.000881159 0)
(-0.0187055 0.000883367 0)
(-0.0194323 0.000885807 0)
(-0.0201612 0.000888534 0)
(-0.0208924 0.000891597 0)
(-0.0216261 0.000895036 0)
(-0.0223628 0.000898886 0)
(-0.0231026 0.000903176 0)
(-0.0238459 0.000907929 0)
(-0.0245931 0.000913163 0)
(-0.0253445 0.000918891 0)
(-0.0261005 0.000925124 0)
(-0.0268615 0.000931867 0)
(-0.027628 0.000939121 0)
(-0.0284002 0.000946885 0)
(-0.0291785 0.000955152 0)
(-0.0299635 0.000963915 0)
(-0.0307553 0.00097316 0)
(-0.0315544 0.000982872 0)
(-0.0323611 0.00099303 0)
(-0.0331758 0.00100361 0)
(-0.0339987 0.00101459 0)
(-0.0348301 0.00102593 0)
(-0.0356704 0.00103761 0)
(-0.0365196 0.00104957 0)
(-0.0373779 0.00106177 0)
(-0.0382456 0.00107418 0)
(-0.0391228 0.00108672 0)
(-0.0400094 0.00109934 0)
(-0.0409054 0.00111198 0)
(-0.0418109 0.00112457 0)
(-0.0427257 0.00113702 0)
(-0.0436496 0.00114925 0)
(-0.0445824 0.00116117 0)
(-0.0455237 0.00117269 0)
(-0.0464731 0.00118369 0)
(-0.0474301 0.00119407 0)
(-0.0483941 0.00120371 0)
(-0.0493644 0.00121248 0)
(-0.0503403 0.00122024 0)
(-0.0513207 0.00122685 0)
(-0.0523047 0.00123217 0)
(-0.0532911 0.00123602 0)
(-0.0542786 0.00123825 0)
(-0.0552659 0.00123867 0)
(-0.0562512 0.00123711 0)
(-0.057233 0.00123338 0)
(-0.0582093 0.00122728 0)
(-0.0591782 0.00121861 0)
(-0.0601374 0.00120716 0)
(-0.0610847 0.00119272 0)
(-0.0620175 0.00117507 0)
(-0.0629331 0.00115398 0)
(-0.0638287 0.00112925 0)
(-0.0647013 0.00110064 0)
(-0.0655478 0.00106794 0)
(-0.0663647 0.00103092 0)
(-0.0671485 0.00098938 0)
(-0.0678957 0.00094311 0)
(-0.0686023 0.000891912 0)
(-0.0692645 0.000835603 0)
(-0.0698781 0.000774015 0)
(-0.0704391 0.000706994 0)
(-0.070943 0.000634412 0)
(-0.0713856 0.000556163 0)
(-0.0717624 0.000472168 0)
(-0.0720689 0.000382382 0)
(-0.0723008 0.000286793 0)
(-0.0724536 0.000185431 0)
(-0.0725229 7.83667e-05 0)
(-0.0725043 -3.42805e-05 0)
(-0.0723939 -0.000152341 0)
(-0.0721875 -0.000275592 0)
(-0.0718813 -0.00040375 0)
(-0.071472 -0.000536474 0)
(-0.0709562 -0.000673356 0)
(-0.070331 -0.000813925 0)
(-0.0695941 -0.00095764 0)
(-0.0687433 -0.00110389 0)
(-0.0677773 -0.00125201 0)
(-0.066695 -0.00140124 0)
(-0.0654962 -0.00155077 0)
(-0.064181 -0.00169973 0)
(-0.0627506 -0.00184717 0)
(-0.0612066 -0.00199212 0)
(-0.0595516 -0.00213351 0)
(-0.057789 -0.00227028 0)
(-0.0559229 -0.0024013 0)
(-0.0539584 -0.00252543 0)
(-0.0519013 -0.00264152 0)
(-0.0497585 -0.0027484 0)
(-0.0475376 -0.00284494 0)
(-0.0452471 -0.00293001 0)
(-0.0428962 -0.00300253 0)
(-0.0404953 -0.00306147 0)
(-0.038055 -0.00310588 0)
(-0.0355871 -0.00313486 0)
(-0.0331036 -0.00314765 0)
(-0.0306173 -0.00314355 0)
(-0.0281414 -0.00312202 0)
(-0.0256895 -0.00308263 0)
(-0.0232753 -0.00302509 0)
(-0.0209128 -0.00294927 0)
(-0.0186159 -0.00285517 0)
(-0.0163987 -0.00274298 0)
(-0.0142747 -0.00261304 0)
(-0.0122572 -0.00246585 0)
(-0.0103591 -0.00230212 0)
(-0.00859247 -0.00212272 0)
(-0.00696856 -0.00192877 0)
(-0.00549763 -0.00172162 0)
(-0.00418864 -0.00150295 0)
(-0.00304893 -0.00127488 0)
(-0.00208388 -0.00104013 0)
(-0.00129634 -0.000802253 0)
(-0.000685916 -0.000566142 0)
(-0.000247985 -0.000338634 0)
(2.76757e-05 -0.000129544 0)
(0.000158373 4.68393e-05 0)
(0.000170632 0.000169858 0)
(0.00010706 0.000210179 0)
(3.1494e-05 0.000127308 0)
(1.13463e-05 -7.14847e-05 0)
(4.1622e-05 -0.000131544 0)
(7.30917e-05 -0.000129046 0)
(8.1707e-05 -8.09359e-05 0)
(5.12584e-05 -8.13135e-07 0)
(-2.86842e-05 0.000100468 0)
(-0.000165254 0.000214541 0)
(-0.000362848 0.000335133 0)
(-0.000623568 0.000457622 0)
(-0.000947717 0.000578649 0)
(-0.00133422 0.000695821 0)
(-0.001781 0.000807476 0)
(-0.0022852 0.000912507 0)
(-0.00284348 0.00101023 0)
(-0.00345218 0.00110029 0)
(-0.00410743 0.00118257 0)
(-0.00480532 0.00125714 0)
(-0.00554197 0.00132422 0)
(-0.00631358 0.00138411 0)
(-0.00711649 0.0014372 0)
(-0.00794725 0.00148394 0)
(-0.00880261 0.0015248 0)
(-0.00967956 0.00156026 0)
(-0.0105753 0.00159081 0)
(-0.0114874 0.00161696 0)
(-0.0124134 0.00163917 0)
(-0.0133514 0.00165791 0)
(-0.0142996 0.00167362 0)
(-0.0152563 0.00168673 0)
(-0.0162202 0.00169761 0)
(-0.0171902 0.00170664 0)
(-0.0181653 0.00171415 0)
(-0.0191447 0.00172046 0)
(-0.0201276 0.00172584 0)
(-0.0211138 0.00173056 0)
(-0.0221027 0.00173484 0)
(-0.0230941 0.0017389 0)
(-0.024088 0.00174293 0)
(-0.0250843 0.00174707 0)
(-0.026083 0.00175149 0)
(-0.0270843 0.00175631 0)
(-0.0280884 0.00176164 0)
(-0.0290956 0.00176758 0)
(-0.0301062 0.00177421 0)
(-0.0311205 0.00178159 0)
(-0.032139 0.0017898 0)
(-0.033162 0.00179886 0)
(-0.03419 0.00180883 0)
(-0.0352236 0.00181973 0)
(-0.0362631 0.00183157 0)
(-0.037309 0.00184437 0)
(-0.038362 0.00185814 0)
(-0.0394224 0.00187286 0)
(-0.0404908 0.00188853 0)
(-0.0415676 0.00190514 0)
(-0.0426534 0.00192264 0)
(-0.0437485 0.00194102 0)
(-0.0448534 0.00196023 0)
(-0.0459686 0.00198022 0)
(-0.0470943 0.00200095 0)
(-0.048231 0.00202234 0)
(-0.049379 0.00204432 0)
(-0.0505384 0.00206682 0)
(-0.0517096 0.00208974 0)
(-0.0528926 0.00211299 0)
(-0.0540876 0.00213645 0)
(-0.0552945 0.00216001 0)
(-0.0565134 0.00218353 0)
(-0.0577442 0.00220688 0)
(-0.0589865 0.00222989 0)
(-0.0602402 0.00225241 0)
(-0.0615048 0.00227425 0)
(-0.0627798 0.00229522 0)
(-0.0640645 0.00231511 0)
(-0.0653584 0.0023337 0)
(-0.0666604 0.00235076 0)
(-0.0679697 0.00236603 0)
(-0.0692849 0.00237926 0)
(-0.070605 0.00239017 0)
(-0.0719283 0.00239845 0)
(-0.0732534 0.0024038 0)
(-0.0745783 0.0024059 0)
(-0.0759012 0.00240441 0)
(-0.0772198 0.00239897 0)
(-0.0785318 0.00238923 0)
(-0.0798347 0.00237481 0)
(-0.0811258 0.00235531 0)
(-0.0824019 0.00233035 0)
(-0.08366 0.00229951 0)
(-0.0848967 0.00226239 0)
(-0.0861083 0.00221856 0)
(-0.0872911 0.00216761 0)
(-0.0884409 0.00210913 0)
(-0.0895535 0.0020427 0)
(-0.0906245 0.00196791 0)
(-0.0916491 0.00188437 0)
(-0.0926226 0.0017917 0)
(-0.0935398 0.00168955 0)
(-0.0943955 0.00157757 0)
(-0.0951844 0.00145546 0)
(-0.095901 0.00132296 0)
(-0.0965396 0.00117983 0)
(-0.0970945 0.00102591 0)
(-0.0975601 0.00086106 0)
(-0.0979304 0.000685225 0)
(-0.0981997 0.000498409 0)
(-0.0983623 0.000300694 0)
(-0.0984126 9.22456e-05 0)
(-0.098345 -0.000126683 0)
(-0.0981542 -0.000355741 0)
(-0.0978352 -0.000594475 0)
(-0.0973832 -0.000842323 0)
(-0.0967938 -0.00109861 0)
(-0.0960628 -0.00136253 0)
(-0.0951869 -0.00163318 0)
(-0.0941629 -0.0019095 0)
(-0.0929885 -0.00219033 0)
(-0.0916619 -0.00247436 0)
(-0.0901821 -0.00276017 0)
(-0.0885489 -0.00304621 0)
(-0.086763 -0.00333081 0)
(-0.0848258 -0.0036122 0)
(-0.0827399 -0.00388851 0)
(-0.0805088 -0.00415776 0)
(-0.0781369 -0.00441791 0)
(-0.07563 -0.00466687 0)
(-0.0729948 -0.00490248 0)
(-0.070239 -0.00512258 0)
(-0.0673717 -0.005325 0)
(-0.0644029 -0.00550761 0)
(-0.0613438 -0.00566831 0)
(-0.0582065 -0.00580508 0)
(-0.0550044 -0.00591601 0)
(-0.0517515 -0.00599929 0)
(-0.0484629 -0.00605329 0)
(-0.0451545 -0.00607657 0)
(-0.0418428 -0.00606785 0)
(-0.038545 -0.00602612 0)
(-0.0352784 -0.00595059 0)
(-0.0320612 -0.00584074 0)
(-0.0289112 -0.00569635 0)
(-0.0258467 -0.00551747 0)
(-0.0228855 -0.00530449 0)
(-0.0200452 -0.00505809 0)
(-0.0173429 -0.00477932 0)
(-0.0147951 -0.00446958 0)
(-0.0124172 -0.00413066 0)
(-0.0102235 -0.00376481 0)
(-0.00822683 -0.00337479 0)
(-0.00643836 -0.00296401 0)
(-0.00486698 -0.00253672 0)
(-0.003519 -0.00209828 0)
(-0.00239746 -0.00165563 0)
(-0.00150135 -0.0012179 0)
(-0.000824615 -0.000797383 0)
(-0.000354887 -0.000410892 0)
(-7.21578e-05 -8.16414e-05 0)
(5.30024e-05 0.000158581 0)
(6.44352e-05 0.000266714 0)
(2.41725e-05 0.000181788 0)
(8.72418e-06 -9.19162e-05 0)
(2.62408e-05 -0.000157222 0)
(3.10007e-05 -0.000135442 0)
(5.40659e-07 -5.03496e-05 0)
(-8.09199e-05 7.97806e-05 0)
(-0.000223962 0.000240264 0)
(-0.000435862 0.000419543 0)
(-0.000721139 0.000608727 0)
(-0.00108196 0.000801083 0)
(-0.00151862 0.000991588 0)
(-0.00202989 0.00117657 0)
(-0.00261342 0.0013534 0)
(-0.00326601 0.00152029 0)
(-0.00398383 0.00167608 0)
(-0.00476267 0.00182012 0)
(-0.00559805 0.00195215 0)
(-0.00648541 0.0020722 0)
(-0.00742018 0.00218054 0)
(-0.00839787 0.0022776 0)
(-0.00941416 0.00236393 0)
(-0.0104649 0.0024402 0)
(-0.0115462 0.00250712 0)
(-0.0126545 0.00256541 0)
(-0.0137863 0.00261585 0)
(-0.0149386 0.00265919 0)
(-0.0161086 0.00269619 0)
(-0.0172938 0.00272755 0)
(-0.018492 0.00275398 0)
(-0.0197012 0.00277614 0)
(-0.0209196 0.00279466 0)
(-0.022146 0.0028101 0)
(-0.0233789 0.00282301 0)
(-0.0246174 0.00283389 0)
(-0.0258606 0.0028432 0)
(-0.0271079 0.00285134 0)
(-0.0283589 0.0028587 0)
(-0.0296131 0.00286562 0)
(-0.0308705 0.00287239 0)
(-0.0321308 0.00287929 0)
(-0.0333942 0.00288656 0)
(-0.0346607 0.0028944 0)
(-0.0359307 0.002903 0)
(-0.0372043 0.00291252 0)
(-0.038482 0.0029231 0)
(-0.0397641 0.00293484 0)
(-0.0410511 0.00294786 0)
(-0.0423435 0.00296221 0)
(-0.0436419 0.00297798 0)
(-0.0449467 0.00299519 0)
(-0.0462586 0.0030139 0)
(-0.0475782 0.00303411 0)
(-0.0489059 0.00305583 0)
(-0.0502425 0.00307905 0)
(-0.0515884 0.00310376 0)
(-0.0529444 0.00312993 0)
(-0.0543108 0.00315751 0)
(-0.0556883 0.00318644 0)
(-0.0570773 0.00321667 0)
(-0.0584784 0.00324811 0)
(-0.0598919 0.00328067 0)
(-0.0613182 0.00331424 0)
(-0.0627577 0.00334871 0)
(-0.0642107 0.00338393 0)
(-0.0656773 0.00341976 0)
(-0.0671577 0.00345604 0)
(-0.0686521 0.00349259 0)
(-0.0701602 0.00352919 0)
(-0.0716821 0.00356565 0)
(-0.0732176 0.00360171 0)
(-0.0747662 0.00363714 0)
(-0.0763277 0.00367165 0)
(-0.0779014 0.00370494 0)
(-0.0794866 0.00373671 0)
(-0.0810825 0.00376662 0)
(-0.0826882 0.0037943 0)
(-0.0843025 0.00381937 0)
(-0.0859241 0.00384142 0)
(-0.0875515 0.00386003 0)
(-0.089183 0.00387473 0)
(-0.0908168 0.00388507 0)
(-0.0924509 0.00389053 0)
(-0.0940828 0.0038906 0)
(-0.0957102 0.00388473 0)
(-0.0973303 0.00387236 0)
(-0.0989401 0.0038529 0)
(-0.100536 0.00382576 0)
(-0.102116 0.00379031 0)
(-0.103675 0.00374593 0)
(-0.105209 0.00369197 0)
(-0.106714 0.00362778 0)
(-0.108187 0.0035527 0)
(-0.109621 0.00346608 0)
(-0.111012 0.00336727 0)
(-0.112355 0.00325561 0)
(-0.113644 0.00313049 0)
(-0.114874 0.00299128 0)
(-0.116038 0.00283741 0)
(-0.117132 0.00266833 0)
(-0.118147 0.00248353 0)
(-0.119078 0.00228255 0)
(-0.119918 0.00206499 0)
(-0.12066 0.00183054 0)
(-0.121297 0.00157893 0)
(-0.121824 0.00131001 0)
(-0.122231 0.00102371 0)
(-0.122514 0.00072008 0)
(-0.122664 0.00039929 0)
(-0.122676 6.16384e-05 0)
(-0.122543 -0.000292432 0)
(-0.122258 -0.000662328 0)
(-0.121815 -0.00104729 0)
(-0.12121 -0.0014464 0)
(-0.120437 -0.00185853 0)
(-0.119491 -0.00228241 0)
(-0.118368 -0.00271654 0)
(-0.117066 -0.00315925 0)
(-0.11558 -0.00360865 0)
(-0.11391 -0.00406268 0)
(-0.112054 -0.00451906 0)
(-0.110013 -0.00497533 0)
(-0.107787 -0.00542886 0)
(-0.105379 -0.00587684 0)
(-0.102791 -0.00631632 0)
(-0.100028 -0.00674419 0)
(-0.0970965 -0.00715724 0)
(-0.0940023 -0.00755219 0)
(-0.0907539 -0.00792565 0)
(-0.0873609 -0.00827425 0)
(-0.0838341 -0.0085946 0)
(-0.0801857 -0.00888333 0)
(-0.0764292 -0.00913719 0)
(-0.072579 -0.00935303 0)
(-0.0686513 -0.00952784 0)
(-0.0646628 -0.00965883 0)
(-0.0606316 -0.00974346 0)
(-0.0565767 -0.00977945 0)
(-0.0525178 -0.00976485 0)
(-0.0484753 -0.00969808 0)
(-0.0444701 -0.00957792 0)
(-0.0405237 -0.00940361 0)
(-0.0366574 -0.00917479 0)
(-0.0328928 -0.00889163 0)
(-0.0292513 -0.00855476 0)
(-0.0257537 -0.00816535 0)
(-0.0224203 -0.00772514 0)
(-0.0192706 -0.00723645 0)
(-0.0163227 -0.00670226 0)
(-0.0135934 -0.00612629 0)
(-0.0110977 -0.00551311 0)
(-0.00884853 -0.00486833 0)
(-0.00685604 -0.00419886 0)
(-0.00512736 -0.00351333 0)
(-0.00366584 -0.00282262 0)
(-0.00247029 -0.00214072 0)
(-0.00153412 -0.00148582 0)
(-0.000844246 -0.000881936 0)
(-0.000379986 -0.00036097 0)
(-0.000111561 3.49251e-05 0)
(1.85371e-06 0.000250277 0)
(1.28383e-05 0.000206897 0)
(5.14399e-06 -0.000102605 0)
(5.4418e-06 -0.000158049 0)
(-2.48243e-05 -0.000103513 0)
(-0.000104571 3.12905e-05 0)
(-0.000248053 0.0002237 0)
(-0.000465366 0.000455393 0)
(-0.000763405 0.000711737 0)
(-0.00114638 0.000981274 0)
(-0.00161622 0.00125515 0)
(-0.00217298 0.00152664 0)
(-0.0028152 0.0017907 0)
(-0.0035402 0.00204367 0)
(-0.00434442 0.00228299 0)
(-0.00522363 0.00250696 0)
(-0.00617312 0.00271458 0)
(-0.00718792 0.00290538 0)
(-0.00826291 0.00307934 0)
(-0.00939296 0.00323675 0)
(-0.010573 0.00337816 0)
(-0.0117982 0.00350431 0)
(-0.0130637 0.00361607 0)
(-0.0143651 0.00371442 0)
(-0.0156984 0.00380037 0)
(-0.0170595 0.00387498 0)
(-0.0184449 0.00393932 0)
(-0.0198514 0.00399443 0)
(-0.0212762 0.00404133 0)
(-0.0227164 0.00408102 0)
(-0.0241699 0.00411443 0)
(-0.0256347 0.00414245 0)
(-0.0271089 0.00416591 0)
(-0.0285912 0.0041856 0)
(-0.0300802 0.00420223 0)
(-0.031575 0.00421646 0)
(-0.0330748 0.00422889 0)
(-0.0345789 0.00424007 0)
(-0.0360869 0.0042505 0)
(-0.0375986 0.00426062 0)
(-0.0391137 0.00427082 0)
(-0.0406324 0.00428146 0)
(-0.0421547 0.00429285 0)
(-0.0436809 0.00430525 0)
(-0.0452111 0.00431891 0)
(-0.0467459 0.00433402 0)
(-0.0482856 0.00435077 0)
(-0.0498308 0.00436928 0)
(-0.051382 0.00438968 0)
(-0.0529398 0.00441206 0)
(-0.0545048 0.0044365 0)
(-0.0560777 0.00446303 0)
(-0.057659 0.0044917 0)
(-0.0592495 0.0045225 0)
(-0.0608498 0.00455543 0)
(-0.0624605 0.00459045 0)
(-0.0640824 0.00462753 0)
(-0.0657159 0.0046666 0)
(-0.0673617 0.00470758 0)
(-0.0690204 0.00475035 0)
(-0.0706924 0.00479482 0)
(-0.0723783 0.00484083 0)
(-0.0740783 0.00488823 0)
(-0.075793 0.00493683 0)
(-0.0775225 0.00498644 0)
(-0.079267 0.00503683 0)
(-0.0810268 0.00508776 0)
(-0.0828017 0.00513895 0)
(-0.0845917 0.00519011 0)
(-0.0863966 0.00524092 0)
(-0.0882162 0.00529103 0)
(-0.0900499 0.00534005 0)
(-0.0918972 0.0053876 0)
(-0.0937574 0.00543322 0)
(-0.0956296 0.00547645 0)
(-0.0975127 0.00551679 0)
(-0.0994056 0.00555373 0)
(-0.101307 0.00558668 0)
(-0.103215 0.00561507 0)
(-0.105127 0.00563825 0)
(-0.107043 0.00565557 0)
(-0.108959 0.00566635 0)
(-0.110873 0.00566984 0)
(-0.112783 0.0056653 0)
(-0.114685 0.00565194 0)
(-0.116576 0.00562895 0)
(-0.118452 0.00559548 0)
(-0.12031 0.00555067 0)
(-0.122146 0.00549364 0)
(-0.123955 0.00542347 0)
(-0.125732 0.00533926 0)
(-0.127473 0.00524008 0)
(-0.129173 0.00512498 0)
(-0.130825 0.00499306 0)
(-0.132424 0.00484337 0)
(-0.133964 0.00467502 0)
(-0.135439 0.00448712 0)
(-0.136841 0.00427883 0)
(-0.138165 0.00404933 0)
(-0.139402 0.00379788 0)
(-0.140546 0.00352376 0)
(-0.141589 0.00322638 0)
(-0.142524 0.00290519 0)
(-0.143342 0.00255978 0)
(-0.144036 0.00218981 0)
(-0.144599 0.00179512 0)
(-0.145022 0.00137566 0)
(-0.145297 0.000931539 0)
(-0.145418 0.000463056 0)
(-0.145375 -2.93128e-05 0)
(-0.145163 -0.000544886 0)
(-0.144774 -0.00108276 0)
(-0.144202 -0.00164182 0)
(-0.14344 -0.00222068 0)
(-0.142482 -0.00281772 0)
(-0.141324 -0.00343105 0)
(-0.139962 -0.00405853 0)
(-0.138391 -0.00469771 0)
(-0.136609 -0.00534589 0)
(-0.134614 -0.0060001 0)
(-0.132405 -0.00665709 0)
(-0.129983 -0.00731333 0)
(-0.127348 -0.00796507 0)
(-0.124504 -0.00860832 0)
(-0.121454 -0.00923886 0)
(-0.118203 -0.0098523 0)
(-0.114758 -0.0104441 0)
(-0.111127 -0.0110095 0)
(-0.10732 -0.0115439 0)
(-0.103347 -0.0120424 0)
(-0.0992211 -0.0125003 0)
(-0.094956 -0.0129127 0)
(-0.0905672 -0.0132752 0)
(-0.0860714 -0.0135831 0)
(-0.0814865 -0.0138324 0)
(-0.076832 -0.0140191 0)
(-0.0721283 -0.0141396 0)
(-0.067397 -0.0141906 0)
(-0.0626605 -0.0141695 0)
(-0.0579421 -0.014074 0)
(-0.0532654 -0.0139025 0)
(-0.0486547 -0.0136537 0)
(-0.0441344 -0.0133274 0)
(-0.039729 -0.0129238 0)
(-0.0354627 -0.0124439 0)
(-0.031359 -0.0118893 0)
(-0.027441 -0.0112627 0)
(-0.0237306 -0.0105675 0)
(-0.0202483 -0.00980808 0)
(-0.017013 -0.00898996 0)
(-0.0140416 -0.00811982 0)
(-0.0113484 -0.00720584 0)
(-0.00894492 -0.006258 0)
(-0.00683912 -0.00528857 0)
(-0.00503494 -0.00431274 0)
(-0.00353159 -0.00334961 0)
(-0.00232281 -0.00242334 0)
(-0.00139608 -0.00156491 0)
(-0.000731643 -0.000814244 0)
(-0.000301329 -0.000222588 0)
(-7.02804e-05 0.000144284 0)
(3.4711e-08 0.000195641 0)
(1.06362e-06 -0.000101455 0)
(-1.87181e-05 -0.00012854 0)
(-8.98534e-05 -2.55441e-05 0)
(-0.00022644 0.000173017 0)
(-0.000440392 0.000440621 0)
(-0.000740804 0.000755633 0)
(-0.00113375 0.00110057 0)
(-0.00162276 0.00146155 0)
(-0.00220926 0.00182768 0)
(-0.00289284 0.00219055 0)
(-0.00367164 0.00254375 0)
(-0.00454262 0.00288258 0)
(-0.00550181 0.00320365 0)
(-0.00654454 0.0035047 0)
(-0.0076657 0.00378432 0)
(-0.00885983 0.00404184 0)
(-0.0101214 0.00427713 0)
(-0.0114447 0.00449052 0)
(-0.0128242 0.00468265 0)
(-0.0142545 0.00485446 0)
(-0.0157304 0.00500703 0)
(-0.017247 0.00514163 0)
(-0.0187996 0.00525957 0)
(-0.020384 0.00536222 0)
(-0.0219961 0.00545098 0)
(-0.0236324 0.00552723 0)
(-0.0252894 0.00559233 0)
(-0.0269643 0.00564757 0)
(-0.0286545 0.00569421 0)
(-0.0303576 0.00573345 0)
(-0.0320717 0.00576639 0)
(-0.033795 0.00579409 0)
(-0.0355261 0.00581751 0)
(-0.0372638 0.00583754 0)
(-0.0390073 0.00585499 0)
(-0.0407556 0.00587062 0)
(-0.0425084 0.00588509 0)
(-0.0442652 0.00589902 0)
(-0.0460259 0.00591293 0)
(-0.0477903 0.00592733 0)
(-0.0495587 0.00594262 0)
(-0.0513312 0.00595918 0)
(-0.053108 0.00597735 0)
(-0.0548896 0.00599739 0)
(-0.0566765 0.00601955 0)
(-0.0584692 0.00604403 0)
(-0.0602682 0.00607098 0)
(-0.0620742 0.00610054 0)
(-0.0638878 0.00613281 0)
(-0.0657098 0.00616785 0)
(-0.0675408 0.0062057 0)
(-0.0693816 0.00624637 0)
(-0.0712328 0.00628986 0)
(-0.0730951 0.00633611 0)
(-0.0749693 0.00638507 0)
(-0.076856 0.00643664 0)
(-0.0787558 0.00649071 0)
(-0.0806693 0.00654713 0)
(-0.0825971 0.00660574 0)
(-0.0845395 0.00666634 0)
(-0.0864971 0.00672871 0)
(-0.0884702 0.0067926 0)
(-0.090459 0.00685772 0)
(-0.0924637 0.00692377 0)
(-0.0944844 0.0069904 0)
(-0.096521 0.00705724 0)
(-0.0985734 0.00712388 0)
(-0.100641 0.00718986 0)
(-0.102724 0.0072547 0)
(-0.104822 0.0073179 0)
(-0.106933 0.00737887 0)
(-0.109057 0.00743703 0)
(-0.111193 0.00749174 0)
(-0.11334 0.0075423 0)
(-0.115496 0.007588 0)
(-0.117659 0.00762807 0)
(-0.119827 0.00766169 0)
(-0.121999 0.007688 0)
(-0.124172 0.00770612 0)
(-0.126343 0.0077151 0)
(-0.128509 0.00771396 0)
(-0.130668 0.00770167 0)
(-0.132815 0.00767717 0)
(-0.134947 0.00763937 0)
(-0.13706 0.00758713 0)
(-0.13915 0.0075193 0)
(-0.141211 0.00743468 0)
(-0.14324 0.00733208 0)
(-0.145229 0.00721026 0)
(-0.147175 0.007068 0)
(-0.149071 0.00690406 0)
(-0.15091 0.00671721 0)
(-0.152686 0.00650624 0)
(-0.154392 0.00626995 0)
(-0.156022 0.0060072 0)
(-0.157567 0.00571688 0)
(-0.15902 0.00539794 0)
(-0.160374 0.0050494 0)
(-0.161619 0.00467039 0)
(-0.162748 0.00426012 0)
(-0.163752 0.00381793 0)
(-0.164623 0.00334331 0)
(-0.165352 0.00283588 0)
(-0.165931 0.00229546 0)
(-0.16635 0.00172204 0)
(-0.166602 0.00111585 0)
(-0.166678 0.000477334 0)
(-0.16657 -0.000192808 0)
(-0.16627 -0.000893606 0)
(-0.16577 -0.0016238 0)
(-0.165064 -0.00238183 0)
(-0.164144 -0.00316581 0)
(-0.163006 -0.00397353 0)
(-0.161642 -0.00480242 0)
(-0.160049 -0.00564956 0)
(-0.158224 -0.00651169 0)
(-0.156162 -0.00738517 0)
(-0.153863 -0.00826601 0)
(-0.151325 -0.00914985 0)
(-0.148549 -0.010032 0)
(-0.145537 -0.0109075 0)
(-0.142292 -0.011771 0)
(-0.138817 -0.0126169 0)
(-0.13512 -0.0134393 0)
(-0.131208 -0.0142323 0)
(-0.127088 -0.0149897 0)
(-0.122773 -0.0157051 0)
(-0.118274 -0.0163723 0)
(-0.113606 -0.0169848 0)
(-0.108782 -0.0175365 0)
(-0.103821 -0.0180212 0)
(-0.0987407 -0.018433 0)
(-0.093561 -0.0187665 0)
(-0.0883034 -0.0190163 0)
(-0.0829902 -0.0191777 0)
(-0.0776453 -0.0192465 0)
(-0.0722933 -0.0192191 0)
(-0.0669597 -0.0190926 0)
(-0.0616707 -0.0188646 0)