/*--------------------------------*- C++ -*----------------------------------*\
  =========                 |
  \\      /  F ield         | OpenFOAM: The Open Source CFD Toolbox
   \\    /   O peration     | Website:  https://openfoam.org
    \\  /    A nd           | Version:  7
     \\/     M anipulation  |
\*---------------------------------------------------------------------------*/
FoamFile
{
    version     2.0;
    format      ascii;
    class       volScalarField;
    location    "0.2875";
    object      p;
}
// * * * * * * * * * * * * * * * * * * * * * * * * * * * * * * * * * * * * * //

dimensions      [0 2 -2 0 0 0 0];

internalField   nonuniform List<scalar> 
51200
(
-6.78498e-06
-1.23284e-05
-1.21451e-05
-9.1875e-06
-4.3943e-06
1.93193e-06
9.40305e-06
1.77446e-05
2.66574e-05
3.59867e-05
4.55546e-05
5.51658e-05
6.46464e-05
7.38408e-05
8.26574e-05
9.10168e-05
9.88192e-05
0.000106008
0.000112514
0.000118273
0.000123241
0.00012737
0.000130615
0.000132959
0.000134398
0.000134913
0.000134479
0.000133086
0.000130727
0.000127399
0.000123108
0.000117853
0.000111629
0.000104449
9.63261e-05
8.72648e-05
7.72666e-05
6.63413e-05
5.45077e-05
4.17873e-05
2.81963e-05
1.3745e-05
-1.55485e-06
-1.76806e-05
-3.46029e-05
-5.22995e-05
-7.07605e-05
-8.99788e-05
-0.000109935
-0.000130598
-0.000151931
-0.000173909
-0.000196517
-0.000219738
-0.000243554
-0.000267942
-0.000292881
-0.000318348
-0.000344321
-0.000370775
-0.000397686
-0.000425033
-0.00045279
-0.000480936
-0.000509447
-0.000538304
-0.000567483
-0.000596961
-0.000626712
-0.00065671
-0.000686938
-0.00071738
-0.00074802
-0.000778835
-0.000809801
-0.00084089
-0.000872077
-0.000903341
-0.000934659
-0.00096601
-0.000997371
-0.00102872
-0.00106003
-0.0010913
-0.0011225
-0.0011536
-0.00118458
-0.00121541
-0.00124607
-0.00127656
-0.00130683
-0.00133689
-0.00136668
-0.0013962
-0.00142541
-0.0014543
-0.00148285
-0.00151105
-0.00153885
-0.00156624
-0.0015932
-0.00161971
-0.00164574
-0.00167127
-0.00169626
-0.0017207
-0.00174455
-0.00176782
-0.00179047
-0.00181248
-0.00183384
-0.00185451
-0.00187447
-0.00189369
-0.00191216
-0.00192985
-0.00194675
-0.00196284
-0.00197809
-0.0019925
-0.00200606
-0.00201873
-0.00203051
-0.00204137
-0.00205131
-0.00206032
-0.00206838
-0.00207549
-0.00208164
-0.00208682
-0.00209104
-0.00209428
-0.00209656
-0.00209786
-0.00209822
-0.00209763
-0.00209611
-0.00209368
-0.00209035
-0.00208617
-0.00208116
-0.00207536
-0.00206881
-0.00206159
-0.00205374
-0.00204535
-0.0020365
-0.00202727
-0.0020178
-0.0020082
-0.00199863
-0.00198925
-0.00198027
-0.00197192
-0.00196445
-0.00195815
-0.0019533
-0.00195019
-0.00194907
-0.00194964
-1.11148e-05
-1.23588e-05
-1.142e-05
-8.7064e-06
-4.58946e-06
7.90303e-07
7.25112e-06
1.45459e-05
2.23569e-05
3.05279e-05
3.89432e-05
4.74523e-05
5.58668e-05
6.40608e-05
7.19327e-05
7.93987e-05
8.63619e-05
9.27512e-05
9.85113e-05
0.000103597
0.000107958
0.000111535
0.000114284
0.000116175
0.000117201
0.000117354
0.000116613
0.00011496
0.000112388
0.000108894
0.000104473
9.91212e-05
9.28397e-05
8.56386e-05
7.75312e-05
6.85226e-05
5.86106e-05
4.77963e-05
3.60932e-05
2.35263e-05
1.01219e-05
-4.10522e-06
-1.91509e-05
-3.50077e-05
-5.16549e-05
-6.90646e-05
-8.7214e-05
-0.00010609
-0.00012568
-0.000145965
-0.000166915
-0.000188503
-0.000210703
-0.000233499
-0.000256874
-0.00028081
-0.00030529
-0.000330293
-0.000355795
-0.000381769
-0.000408188
-0.00043503
-0.000462278
-0.000489917
-0.00051792
-0.000546262
-0.000574914
-0.000603852
-0.000633059
-0.000662516
-0.000692207
-0.000722111
-0.000752209
-0.000782476
-0.000812889
-0.000843422
-0.000874054
-0.000904762
-0.000935525
-0.000966319
-0.000997122
-0.00102791
-0.00105868
-0.00108939
-0.00112003
-0.00115057
-0.001181
-0.00121128
-0.00124141
-0.00127134
-0.00130107
-0.00133058
-0.00135984
-0.00138882
-0.00141751
-0.00144587
-0.0014739
-0.00150157
-0.00152887
-0.00155577
-0.00158224
-0.00160826
-0.00163381
-0.00165886
-0.00168339
-0.00170738
-0.0017308
-0.00175364
-0.00177587
-0.00179748
-0.00181845
-0.00183875
-0.00185835
-0.00187724
-0.00189538
-0.00191276
-0.00192938
-0.0019452
-0.00196022
-0.00197441
-0.00198777
-0.00200028
-0.00201192
-0.00202268
-0.00203254
-0.0020415
-0.00204954
-0.00205667
-0.00206287
-0.00206815
-0.0020725
-0.00207592
-0.00207842
-0.00207999
-0.00208064
-0.00208041
-0.0020793
-0.00207732
-0.00207451
-0.00207088
-0.00206648
-0.00206135
-0.00205554
-0.00204911
-0.00204211
-0.00203462
-0.00202671
-0.0020185
-0.00201007
-0.00200156
-0.00199311
-0.00198487
-0.00197702
-0.00196974
-0.00196326
-0.00195779
-0.00195356
-0.00195076
-0.00194964
-0.00195022
-1.31678e-05
-1.36678e-05
-1.25605e-05
-9.93789e-06
-6.16042e-06
-1.30164e-06
4.47441e-06
1.10107e-05
1.80587e-05
2.54531e-05
3.30452e-05
4.07176e-05
4.83234e-05
5.57369e-05
6.28672e-05
6.96288e-05
7.59289e-05
8.16984e-05
8.68752e-05
9.14118e-05
9.52643e-05
9.83759e-05
0.000100711
0.000102238
0.00010293
0.000102777
0.000101769
9.98939e-05
9.71408e-05
9.35034e-05
8.89724e-05
8.35387e-05
7.72038e-05
6.99786e-05
6.18722e-05
5.28888e-05
4.30332e-05
3.23112e-05
2.07278e-05
8.29385e-06
-4.96863e-06
-1.90336e-05
-3.38843e-05
-4.95149e-05
-6.59198e-05
-8.30843e-05
-0.000100984
-0.000119595
-0.000138893
-0.000158862
-0.000179482
-0.000200734
-0.000222598
-0.000245051
-0.00026807
-0.000291633
-0.000315723
-0.000340326
-0.000365426
-0.000391
-0.000417018
-0.000443452
-0.000470279
-0.000497484
-0.000525049
-0.00055295
-0.00058116
-0.000609652
-0.000638409
-0.000667413
-0.00069665
-0.0007261
-0.000755739
-0.000785542
-0.000815487
-0.000845554
-0.00087572
-0.000905963
-0.000936258
-0.000966583
-0.000996915
-0.00102724
-0.00105753
-0.00108778
-0.00111795
-0.00114803
-0.00117798
-0.0012078
-0.00123747
-0.00126695
-0.00129622
-0.00132527
-0.00135407
-0.0013826
-0.00141085
-0.00143878
-0.00146638
-0.00149362
-0.00152049
-0.00154696
-0.00157302
-0.00159863
-0.00162378
-0.00164844
-0.00167259
-0.0016962
-0.00171926
-0.00174174
-0.00176363
-0.0017849
-0.00180555
-0.00182554
-0.00184485
-0.00186345
-0.00188133
-0.00189847
-0.00191484
-0.00193045
-0.00194528
-0.0019593
-0.0019725
-0.00198488
-0.00199641
-0.00200708
-0.00201689
-0.00202581
-0.00203385
-0.002041
-0.00204726
-0.00205262
-0.00205708
-0.00206066
-0.00206334
-0.00206514
-0.00206606
-0.00206611
-0.00206533
-0.00206373
-0.00206134
-0.00205817
-0.00205427
-0.00204969
-0.00204447
-0.00203866
-0.00203233
-0.00202553
-0.00201837
-0.00201093
-0.00200331
-0.00199561
-0.00198798
-0.00198055
-0.00197348
-0.00196694
-0.0019611
-0.00195616
-0.00195228
-0.00194964
-0.00194852
-0.0019491
-1.63416e-05
-1.6531e-05
-1.52706e-05
-1.2625e-05
-8.93399e-06
-4.30142e-06
1.06513e-06
7.08724e-06
1.35938e-05
2.04277e-05
2.74423e-05
3.44922e-05
4.148e-05
4.82944e-05
5.48303e-05
6.10112e-05
6.67645e-05
7.20245e-05
7.67282e-05
8.08227e-05
8.42481e-05
8.69566e-05
8.89267e-05
9.01327e-05
9.05416e-05
9.01324e-05
8.88966e-05
8.68264e-05
8.39092e-05
8.01332e-05
7.54913e-05
6.99799e-05
6.36e-05
5.63555e-05
4.8247e-05
3.92762e-05
2.94544e-05
1.87964e-05
7.30938e-06
-5.00507e-06
-1.81367e-05
-3.20635e-05
-4.67621e-05
-6.22164e-05
-7.84186e-05
-9.5362e-05
-0.000113034
-0.000131412
-0.000150469
-0.000170178
-0.000190519
-0.000211478
-0.00023304
-0.000255185
-0.000277891
-0.000301134
-0.000324895
-0.000349159
-0.00037391
-0.000399128
-0.000424787
-0.000450857
-0.000477316
-0.000504146
-0.000531329
-0.000558845
-0.000586666
-0.000614766
-0.000643126
-0.000671732
-0.000700568
-0.000729615
-0.000758849
-0.000788246
-0.000817783
-0.000847439
-0.000877193
-0.000907023
-0.000936906
-0.000966817
-0.000996737
-0.00102664
-0.00105653
-0.00108636
-0.00111612
-0.00114579
-0.00117533
-0.00120474
-0.00123399
-0.00126308
-0.00129195
-0.0013206
-0.001349
-0.00137713
-0.00140499
-0.00143254
-0.00145975
-0.00148662
-0.00151311
-0.00153921
-0.00156491
-0.00159017
-0.00161497
-0.00163928
-0.00166309
-0.00168638
-0.00170912
-0.00173129
-0.00175289
-0.00177388
-0.00179424
-0.00181396
-0.00183302
-0.00185138
-0.00186904
-0.00188596
-0.00190214
-0.00191756
-0.00193222
-0.0019461
-0.00195918
-0.00197145
-0.00198289
-0.00199349
-0.00200325
-0.00201215
-0.0020202
-0.00202737
-0.00203369
-0.00203913
-0.0020437
-0.00204741
-0.00205026
-0.00205225
-0.0020534
-0.00205372
-0.00205322
-0.00205194
-0.0020499
-0.00204713
-0.00204365
-0.00203952
-0.00203478
-0.00202949
-0.0020237
-0.00201748
-0.0020109
-0.00200406
-0.00199705
-0.00198997
-0.00198294
-0.00197608
-0.00196955
-0.00196348
-0.00195804
-0.00195337
-0.00194964
-0.00194699
-0.00194571
-0.00194598
-2.11807e-05
-2.07657e-05
-1.91759e-05
-1.63965e-05
-1.26578e-05
-8.1232e-06
-2.98509e-06
2.69294e-06
8.79594e-06
1.51815e-05
2.17129e-05
2.82528e-05
3.47199e-05
4.10163e-05
4.70455e-05
5.27253e-05
5.79961e-05
6.27974e-05
6.70674e-05
7.0756e-05
7.37924e-05
7.61352e-05
7.77697e-05
7.86706e-05
7.8808e-05
7.81599e-05
7.67134e-05
7.44583e-05
7.13811e-05
6.74702e-05
6.27198e-05
5.71275e-05
5.06954e-05
4.34266e-05
3.53175e-05
2.63632e-05
1.65708e-05
5.95922e-06
-5.45564e-06
-1.76671e-05
-3.06706e-05
-4.44556e-05
-5.9006e-05
-7.43031e-05
-9.03311e-05
-0.000107079
-0.000124536
-0.000142687
-0.000161508
-0.000180971
-0.000201055
-0.000221742
-0.000243018
-0.000264869
-0.000287274
-0.000310214
-0.000333667
-0.000357615
-0.000382036
-0.000406911
-0.000432218
-0.000457939
-0.00048405
-0.00051053
-0.000537355
-0.0005645
-0.000591943
-0.000619664
-0.000647645
-0.000675871
-0.000704325
-0.000732987
-0.000761834
-0.000790842
-0.000819987
-0.00084925
-0.000878609
-0.000908043
-0.000937528
-0.000967043
-0.000996568
-0.00102608
-0.00105557
-0.001085
-0.00111437
-0.00114364
-0.00117279
-0.00120181
-0.00123067
-0.00125936
-0.00128785
-0.00131612
-0.00134415
-0.0013719
-0.00139938
-0.00142655
-0.0014534
-0.00147991
-0.00150605
-0.0015318
-0.00155715
-0.00158207
-0.00160654
-0.00163053
-0.00165402
-0.001677
-0.00169944
-0.00172132
-0.00174263
-0.00176335
-0.00178346
-0.00180293
-0.00182174
-0.00183987
-0.00185731
-0.00187404
-0.00189004
-0.0019053
-0.00191981
-0.00193355
-0.00194651
-0.00195868
-0.00197004
-0.00198059
-0.00199031
-0.0019992
-0.00200725
-0.00201446
-0.00202082
-0.00202635
-0.00203103
-0.00203487
-0.00203787
-0.00204005
-0.00204142
-0.00204199
-0.00204176
-0.00204078
-0.00203906
-0.00203664
-0.00203355
-0.00202984
-0.00202554
-0.00202071
-0.0020154
-0.00200968
-0.00200361
-0.00199729
-0.00199078
-0.00198421
-0.00197766
-0.00197126
-0.00196512
-0.00195939
-0.00195418
-0.00194965
-0.00194591
-0.00194311
-0.00194146
-0.00194111
-2.74891e-05
-2.62592e-05
-2.41098e-05
-2.10582e-05
-1.72075e-05
-1.26688e-05
-7.60148e-06
-2.09946e-06
3.72599e-06
9.77643e-06
1.59329e-05
2.20654e-05
2.8099e-05
3.39579e-05
3.95532e-05
4.48024e-05
4.96561e-05
5.40533e-05
5.79298e-05
6.12416e-05
6.39264e-05
6.59461e-05
6.72778e-05
6.78949e-05
6.77771e-05
6.69053e-05
6.52608e-05
6.28302e-05
5.96013e-05
5.55643e-05
5.07135e-05
4.50441e-05
3.85553e-05
3.12504e-05
2.31291e-05
1.41873e-05
4.42751e-06
-6.13722e-06
-1.74905e-05
-2.96192e-05
-4.25143e-05
-5.61692e-05
-7.05762e-05
-8.57223e-05
-0.00010159
-0.000118164
-0.000135428
-0.000153368
-0.000171963
-0.000191191
-0.000211032
-0.000231468
-0.000252484
-0.000274062
-0.000296184
-0.000318834
-0.000341992
-0.00036564
-0.000389753
-0.000414308
-0.000439287
-0.000464676
-0.000490454
-0.000516599
-0.000543082
-0.000569877
-0.000596965
-0.000624327
-0.000651949
-0.000679815
-0.000707906
-0.000736201
-0.000764678
-0.000793314
-0.000822088
-0.000850978
-0.000879962
-0.000909017
-0.000938122
-0.000967258
-0.000996407
-0.00102555
-0.00105466
-0.00108371
-0.0011127
-0.00114159
-0.00117037
-0.00119902
-0.00122752
-0.00125583
-0.00128396
-0.00131186
-0.00133953
-0.00136693
-0.00139405
-0.00142087
-0.00144737
-0.00147354
-0.00149934
-0.00152477
-0.00154979
-0.00157439
-0.00159854
-0.00162222
-0.00164541
-0.0016681
-0.00169026
-0.00171187
-0.00173291
-0.00175338
-0.00177324
-0.00179248
-0.00181107
-0.00182899
-0.00184623
-0.00186277
-0.0018786
-0.00189371
-0.00190808
-0.0019217
-0.00193456
-0.00194664
-0.00195793
-0.00196843
-0.00197812
-0.001987
-0.00199506
-0.0020023
-0.00200873
-0.00201433
-0.00201911
-0.00202308
-0.00202623
-0.00202859
-0.00203016
-0.00203095
-0.00203099
-0.00203028
-0.00202886
-0.00202676
-0.00202402
-0.00202068
-0.00201677
-0.00201235
-0.00200746
-0.00200217
-0.00199653
-0.00199063
-0.00198455
-0.00197838
-0.00197222
-0.00196615
-0.00196029
-0.00195475
-0.00194965
-0.00194511
-0.00194123
-0.00193815
-0.00193598
-0.00193479
-3.49837e-05
-3.27606e-05
-2.99214e-05
-2.64686e-05
-2.23946e-05
-1.77516e-05
-1.2665e-05
-7.22511e-06
-1.55159e-06
4.25772e-06
1.01329e-05
1.59618e-05
2.16573e-05
2.7158e-05
3.23907e-05
3.7283e-05
4.17879e-05
4.58371e-05
4.93709e-05
5.2343e-05
5.47082e-05
5.64364e-05
5.74963e-05
5.78591e-05
5.75108e-05
5.64334e-05
5.46047e-05
5.20099e-05
4.86382e-05
4.44819e-05
3.95362e-05
3.37943e-05
2.72505e-05
1.99057e-05
1.17621e-05
2.821e-06
-6.91281e-06
-1.74312e-05
-2.87245e-05
-4.07808e-05
-5.35865e-05
-6.71308e-05
-8.1408e-05
-9.64117e-05
-0.00011213
-0.000128545
-0.000145637
-0.000163386
-0.000181773
-0.000200781
-0.000220395
-0.000240599
-0.000261374
-0.000282701
-0.000304562
-0.000326941
-0.000349822
-0.000373188
-0.000397012
-0.000421272
-0.000445947
-0.000471023
-0.000496485
-0.000522313
-0.000548476
-0.000574946
-0.000601699
-0.000628723
-0.000656007
-0.000683536
-0.000711289
-0.00073924
-0.000767366
-0.000795648
-0.000824069
-0.000852606
-0.000881238
-0.000909939
-0.000938689
-0.000967467
-0.000996257
-0.00102504
-0.0010538
-0.0010825
-0.00111113
-0.00113967
-0.0011681
-0.00119639
-0.00122454
-0.00125251
-0.00128029
-0.00130785
-0.00133518
-0.00136224
-0.00138903
-0.00141552
-0.0014417
-0.00146754
-0.00149303
-0.00151814
-0.00154286
-0.00156716
-0.00159102
-0.00161441
-0.00163733
-0.00165974
-0.00168163
-0.00170299
-0.00172379
-0.00174402
-0.00176366
-0.00178268
-0.00180106
-0.00181879
-0.00183585
-0.00185222
-0.0018679
-0.00188287
-0.00189712
-0.00191063
-0.00192339
-0.0019354
-0.00194663
-0.00195708
-0.00196675
-0.00197562
-0.0019837
-0.00199098
-0.00199746
-0.00200314
-0.00200802
-0.00201211
-0.00201541
-0.00201793
-0.00201968
-0.00202068
-0.00202095
-0.00202049
-0.00201935
-0.00201754
-0.00201511
-0.00201209
-0.00200852
-0.00200445
-0.00199992
-0.00199498
-0.00198971
-0.00198417
-0.00197842
-0.00197256
-0.00196666
-0.00196082
-0.00195513
-0.00194968
-0.00194457
-0.0019399
-0.00193577
-0.00193229
-0.00192948
-0.0019273
-4.33711e-05
-4.00874e-05
-3.65058e-05
-3.2547e-05
-2.81151e-05
-2.3252e-05
-1.8057e-05
-1.25917e-05
-6.9748e-06
-1.30565e-06
4.37349e-06
9.97816e-06
1.54139e-05
2.06297e-05
2.55676e-05
3.01657e-05
3.43715e-05
3.81202e-05
4.13617e-05
4.40419e-05
4.61248e-05
4.75896e-05
4.84033e-05
4.85382e-05
4.79818e-05
4.67156e-05
4.47183e-05
4.19748e-05
3.84725e-05
3.42026e-05
2.91621e-05
2.33462e-05
1.67482e-05
9.36482e-06
1.19637e-06
-7.75251e-06
-1.74713e-05
-2.79497e-05
-3.91839e-05
-5.11704e-05
-6.38986e-05
-7.73537e-05
-9.15241e-05
-0.000106402
-0.000121979
-0.00013824
-0.000155169
-0.000172744
-0.000190948
-0.000209761
-0.000229168
-0.000249153
-0.000269701
-0.000290793
-0.000312414
-0.000334546
-0.000357172
-0.000380271
-0.000403823
-0.000427806
-0.000452201
-0.00047699
-0.000502158
-0.000527684
-0.000553541
-0.000579702
-0.000606148
-0.000632863
-0.000659834
-0.000687044
-0.000714472
-0.000742094
-0.000769892
-0.000797846
-0.000825938
-0.000854145
-0.000882443
-0.000910809
-0.000939224
-0.000967667
-0.000996122
-0.00102457
-0.00105299
-0.00108136
-0.00110966
-0.00113787
-0.00116596
-0.00119393
-0.00122174
-0.00124939
-0.00127685
-0.00130408
-0.00133109
-0.00135784
-0.00138432
-0.0014105
-0.00143637
-0.00146191
-0.0014871
-0.00151193
-0.00153636
-0.00156039
-0.00158397
-0.0016071
-0.00162975
-0.00165191
-0.00167355
-0.00169468
-0.00171525
-0.00173526
-0.00175469
-0.00177351
-0.00179171
-0.00180927
-0.00182616
-0.00184238
-0.00185792
-0.00187276
-0.0018869
-0.00190031
-0.001913
-0.00192493
-0.00193611
-0.00194653
-0.00195617
-0.00196505
-0.00197314
-0.00198046
-0.001987
-0.00199276
-0.00199773
-0.00200193
-0.00200536
-0.00200803
-0.00200996
-0.00201115
-0.00201162
-0.0020114
-0.0020105
-0.00200895
-0.00200679
-0.00200405
-0.00200078
-0.001997
-0.00199277
-0.00198814
-0.00198316
-0.0019779
-0.00197241
-0.00196676
-0.00196105
-0.00195534
-0.00194972
-0.00194425
-0.00193904
-0.00193415
-0.00192968
-0.00192571
-0.00192216
-0.0019189
-5.23708e-05
-4.79913e-05
-4.36477e-05
-3.91263e-05
-3.42436e-05
-2.90663e-05
-2.36869e-05
-1.81423e-05
-1.25102e-05
-6.88522e-06
-1.3212e-06
4.12809e-06
9.38576e-06
1.43926e-05
1.91e-05
2.34559e-05
2.74045e-05
3.08943e-05
3.38834e-05
3.63149e-05
3.81556e-05
3.93877e-05
3.99809e-05
3.99128e-05
3.91702e-05
3.77314e-05
3.55771e-05
3.26954e-05
2.90724e-05
2.46971e-05
1.95663e-05
1.36756e-05
7.01973e-06
-4.02974e-07
-8.59279e-06
-1.75476e-05
-2.72582e-05
-3.77124e-05
-4.89038e-05
-6.08297e-05
-7.34834e-05
-8.68532e-05
-0.000100928
-0.000115697
-0.000131152
-0.000147278
-0.000164057
-0.000181471
-0.000199503
-0.000218136
-0.000237355
-0.000257143
-0.000277483
-0.00029836
-0.000319757
-0.00034166
-0.000364048
-0.000386901
-0.000410198
-0.00043392
-0.000458052
-0.000482577
-0.000507477
-0.000532725
-0.000558296
-0.000584167
-0.00061032
-0.000636743
-0.00066342
-0.000690333
-0.000717461
-0.00074478
-0.00077227
-0.000799915
-0.000827696
-0.000855591
-0.000883576
-0.000911627
-0.000939727
-0.000967858
-0.000996001
-0.00102414
-0.00105224
-0.00108029
-0.00110828
-0.00113618
-0.00116397
-0.00119162
-0.00121913
-0.00124647
-0.00127362
-0.00130056
-0.00132727
-0.00135372
-0.0013799
-0.0014058
-0.00143138
-0.00145665
-0.00148156
-0.00150612
-0.00153029
-0.00155405
-0.00157738
-0.00160026
-0.00162267
-0.00164459
-0.00166601
-0.00168691
-0.00170728
-0.00172709
-0.00174633
-0.00176497
-0.001783
-0.00180039
-0.00181713
-0.00183322
-0.00184863
-0.00186336
-0.0018774
-0.00189073
-0.00190334
-0.00191522
-0.00192636
-0.00193674
-0.00194638
-0.00195525
-0.00196337
-0.00197072
-0.00197732
-0.00198315
-0.00198822
-0.00199252
-0.00199607
-0.00199888
-0.00200096
-0.00200233
-0.00200299
-0.00200297
-0.00200229
-0.00200098
-0.00199905
-0.00199656
-0.00199353
-0.00199001
-0.00198604
-0.00198164
-0.00197689
-0.00197183
-0.00196652
-0.00196104
-0.00195543
-0.00194977
-0.00194414
-0.00193858
-0.00193318
-0.00192799
-0.0019231
-0.00191859
-0.00191424
-0.00190985
-6.18129e-05
-5.62896e-05
-5.11292e-05
-4.6016e-05
-4.0638e-05
-3.50934e-05
-2.94619e-05
-2.37743e-05
-1.80675e-05
-1.24204e-05
-6.9019e-06
-1.54878e-06
3.58948e-06
8.44931e-06
1.29893e-05
1.71596e-05
2.08987e-05
2.41703e-05
2.69369e-05
2.91527e-05
3.07878e-05
3.18188e-05
3.22189e-05
3.19715e-05
3.10623e-05
2.94663e-05
2.71654e-05
2.41525e-05
2.04164e-05
1.59457e-05
1.07344e-05
4.77386e-06
-1.94284e-06
-9.41335e-06
-1.76316e-05
-2.65935e-05
-3.62941e-05
-4.67263e-05
-5.78845e-05
-6.97634e-05
-8.23544e-05
-9.56482e-05
-0.000109637
-0.000124312
-0.00013966
-0.000155666
-0.000172309
-0.000189575
-0.000207448
-0.000225915
-0.000244962
-0.000264573
-0.000284731
-0.000305414
-0.000326604
-0.000348286
-0.000370447
-0.000393071
-0.000416138
-0.000439628
-0.000463523
-0.000487802
-0.000512445
-0.000537428
-0.00056273
-0.000588332
-0.000614219
-0.000640373
-0.000666778
-0.000693413
-0.000720257
-0.00074729
-0.000774495
-0.000801852
-0.000829343
-0.000856946
-0.000884637
-0.000912395
-0.000940202
-0.000968041
-0.000995892
-0.00102373
-0.00105154
-0.0010793
-0.00110699
-0.0011346
-0.0011621
-0.00118948
-0.0012167
-0.00124375
-0.00127061
-0.00129726
-0.00132369
-0.00134987
-0.00137578
-0.00140141
-0.00142673
-0.00145174
-0.0014764
-0.0015007
-0.00152462
-0.00154814
-0.00157124
-0.00159389
-0.00161608
-0.00163779
-0.001659
-0.0016797
-0.00169987
-0.0017195
-0.00173856
-0.00175704
-0.00177491
-0.00179216
-0.00180877
-0.00182473
-0.00184003
-0.00185466
-0.00186861
-0.00188186
-0.00189441
-0.00190624
-0.00191734
-0.00192771
-0.00193734
-0.00194622
-0.00195436
-0.00196175
-0.0019684
-0.0019743
-0.00197945
-0.00198386
-0.00198753
-0.00199047
-0.00199269
-0.00199421
-0.00199504
-0.0019952
-0.00199471
-0.00199361
-0.0019919
-0.00198961
-0.00198679
-0.00198347
-0.00197969
-0.00197549
-0.00197091
-0.00196601
-0.00196083
-0.00195543
-0.00194986
-0.00194419
-0.00193847
-0.00193275
-0.0019271
-0.00192155
-0.0019162
-0.00191109
-0.00190591
-0.00190038
-7.1512e-05
-6.48162e-05
-5.87999e-05
-5.308e-05
-4.72063e-05
-4.12549e-05
-3.53074e-05
-2.94105e-05
-2.35714e-05
-1.78523e-05
-1.23179e-05
-6.99989e-06
-1.92982e-06
2.83404e-06
7.25437e-06
1.12799e-05
1.48532e-05
1.79481e-05
2.05271e-05
2.25578e-05
2.40165e-05
2.48739e-05
2.5106e-05
2.47004e-05
2.36419e-05
2.19063e-05
1.94766e-05
1.63446e-05
1.2499e-05
7.93092e-06
2.63741e-06
-3.3893e-06
-1.01589e-05
-1.76715e-05
-2.59199e-05
-3.48971e-05
-4.45963e-05
-5.50119e-05
-6.61415e-05
-7.79813e-05
-9.05222e-05
-0.000103753
-0.000117668
-0.000132258
-0.00014751
-0.000163406
-0.000179928
-0.000197062
-0.000214798
-0.00023312
-0.000252011
-0.000271455
-0.000291437
-0.000311939
-0.000332945
-0.000354437
-0.000376397
-0.00039881
-0.00042166
-0.000444929
-0.000468598
-0.000492649
-0.000517058
-0.000541803
-0.000566861
-0.000592216
-0.000617852
-0.000643754
-0.000669904
-0.000696279
-0.00072286
-0.00074963
-0.000776569
-0.000803661
-0.000830882
-0.000858212
-0.000885629
-0.000913115
-0.000940649
-0.000968214
-0.00099579
-0.00102336
-0.00105089
-0.00107838
-0.0011058
-0.00113314
-0.00116037
-0.00118747
-0.00121443
-0.00124121
-0.00126781
-0.0012942
-0.00132037
-0.0013463
-0.00137196
-0.00139733
-0.00142241
-0.00144717
-0.0014716
-0.00149568
-0.00151937
-0.00154267
-0.00156554
-0.00158798
-0.00160996
-0.00163148
-0.0016525
-0.00167302
-0.00169302
-0.00171248
-0.00173138
-0.00174971
-0.00176744
-0.00178456
-0.00180104
-0.00181689
-0.0018321
-0.00184664
-0.00186051
-0.0018737
-0.00188619
-0.00189798
-0.00190906
-0.00191941
-0.00192904
-0.00193794
-0.0019461
-0.00195354
-0.00196023
-0.0019662
-0.00197143
-0.00197593
-0.00197971
-0.00198276
-0.00198512
-0.00198678
-0.00198776
-0.00198809
-0.00198777
-0.00198683
-0.0019853
-0.00198319
-0.00198054
-0.00197739
-0.00197376
-0.00196971
-0.00196526
-0.00196046
-0.00195535
-0.00194998
-0.0019444
-0.00193865
-0.00193279
-0.00192686
-0.0019209
-0.00191496
-0.00190909
-0.00190336
-0.00189734
-0.00189067
-8.12642e-05
-7.34357e-05
-6.65628e-05
-6.02009e-05
-5.38157e-05
-4.7438e-05
-4.11393e-05
-3.49831e-05
-2.897e-05
-2.31349e-05
-1.75289e-05
-1.21836e-05
-7.13213e-06
-2.42118e-06
1.91173e-06
5.8208e-06
9.26649e-06
1.2225e-05
1.46559e-05
1.65327e-05
1.78379e-05
1.85455e-05
1.86359e-05
1.80947e-05
1.69015e-05
1.50358e-05
1.24867e-05
9.24715e-06
5.30389e-06
6.46618e-07
-4.72773e-06
-1.08241e-05
-1.76483e-05
-2.51997e-05
-3.34742e-05
-4.24684e-05
-5.2175e-05
-6.25853e-05
-7.36944e-05
-8.55004e-05
-9.79973e-05
-0.000111176
-0.000125029
-0.000139547
-0.000154715
-0.000170515
-0.00018693
-0.000203948
-0.000221558
-0.000239747
-0.000258498
-0.000277795
-0.000297622
-0.000317964
-0.000338802
-0.000360117
-0.000381891
-0.00040411
-0.00042676
-0.000449826
-0.000473292
-0.000497134
-0.000521331
-0.000545856
-0.000570689
-0.000595816
-0.00062122
-0.000646888
-0.000672799
-0.000698934
-0.000725274
-0.000751801
-0.000778496
-0.00080534
-0.000832312
-0.000859388
-0.000886552
-0.000913784
-0.000941067
-0.000968381
-0.000995703
-0.00102302
-0.0010503
-0.00107754
-0.0011047
-0.00113179
-0.00115877
-0.00118562
-0.00121233
-0.00123887
-0.00126523
-0.00129138
-0.0013173
-0.00134299
-0.00136841
-0.00139356
-0.00141842
-0.00144296
-0.00146717
-0.00149103
-0.00151452
-0.00153761
-0.00156028
-0.00158253
-0.00160433
-0.00162566
-0.00164652
-0.00166687
-0.00168672
-0.00170603
-0.00172478
-0.00174297
-0.00176057
-0.00177757
-0.00179395
-0.00180971
-0.00182483
-0.00183929
-0.0018531
-0.00186623
-0.00187868
-0.00189044
-0.00190149
-0.00191184
-0.00192147
-0.00193038
-0.00193858
-0.00194605
-0.0019528
-0.00195883
-0.00196413
-0.00196872
-0.0019726
-0.00197577
-0.00197824
-0.00198003
-0.00198115
-0.00198161
-0.00198144
-0.00198065
-0.00197926
-0.0019773
-0.0019748
-0.00197178
-0.00196828
-0.00196433
-0.00195996
-0.00195521
-0.00195012
-0.00194474
-0.00193909
-0.00193323
-0.00192718
-0.00192099
-0.00191469
-0.00190831
-0.00190191
-0.00189554
-0.00188868
-0.00188089
-9.09108e-05
-8.20199e-05
-7.43003e-05
-6.72841e-05
-6.03548e-05
-5.35331e-05
-4.68643e-05
-4.0408e-05
-3.41806e-05
-2.81934e-05
-2.24812e-05
-1.70699e-05
-1.19991e-05
-7.30192e-06
-3.01885e-06
8.1132e-07
4.16428e-06
7.01227e-06
9.32278e-06
1.10759e-05
1.22542e-05
1.28366e-05
1.28051e-05
1.21431e-05
1.08296e-05
8.84798e-06
6.19179e-06
2.85372e-06
-1.18047e-06
-5.92074e-06
-1.13703e-05
-1.75344e-05
-2.44165e-05
-3.20119e-05
-4.03156e-05
-4.93267e-05
-5.90406e-05
-6.94491e-05
-8.05465e-05
-9.23305e-05
-0.000104796
-0.000117935
-0.000131737
-0.000146192
-0.000161284
-0.000176998
-0.000193319
-0.000210237
-0.00022774
-0.000245813
-0.000264442
-0.000283608
-0.000303295
-0.000323489
-0.000344171
-0.000365323
-0.00038693
-0.000408977
-0.000431451
-0.000454338
-0.000477617
-0.000501266
-0.000525263
-0.000549585
-0.000574213
-0.000599131
-0.000624325
-0.000649778
-0.000675471
-0.000701385
-0.000727503
-0.000753806
-0.000780276
-0.000806893
-0.000833635
-0.00086048
-0.00088741
-0.000914408
-0.000941458
-0.000968538
-0.000995627
-0.0010227
-0.00104975
-0.00107675
-0.00110369
-0.00113055
-0.00115729
-0.00118392
-0.0012104
-0.00123671
-0.00126285
-0.00128877
-0.00131448
-0.00133995
-0.00136516
-0.0013901
-0.00141474
-0.00143909
-0.0014631
-0.00148677
-0.00151006
-0.00153296
-0.00155546
-0.00157753
-0.00159916
-0.00162034
-0.00164103
-0.00166124
-0.00168094
-0.00170012
-0.00171875
-0.00173681
-0.0017543
-0.0017712
-0.00178749
-0.00180316
-0.0018182
-0.0018326
-0.00184635
-0.00185944
-0.00187186
-0.00188359
-0.00189463
-0.00190497
-0.00191461
-0.00192355
-0.00193177
-0.00193929
-0.00194609
-0.00195218
-0.00195756
-0.00196223
-0.00196619
-0.00196947
-0.00197205
-0.00197395
-0.00197519
-0.00197577
-0.00197573
-0.00197506
-0.0019738
-0.00197196
-0.00196957
-0.00196665
-0.00196324
-0.00195935
-0.00195503
-0.0019503
-0.0019452
-0.00193976
-0.00193401
-0.00192799
-0.00192172
-0.00191524
-0.00190856
-0.00190172
-0.00189477
-0.00188775
-0.00188006
-0.00187119
-0.000100347
-9.04345e-05
-8.1908e-05
-7.42326e-05
-6.6735e-05
-5.94516e-05
-5.24061e-05
-4.56302e-05
-3.91485e-05
-3.29695e-05
-2.7116e-05
-2.16081e-05
-1.64866e-05
-1.17774e-05
-7.51977e-06
-3.73904e-06
-4.49152e-07
2.31738e-06
4.53707e-06
6.19622e-06
7.27144e-06
7.7476e-06
7.60936e-06
6.8387e-06
5.41897e-06
3.33734e-06
5.87032e-07
-2.8406e-06
-6.96056e-06
-1.1782e-05
-1.73067e-05
-2.35376e-05
-3.04758e-05
-3.81146e-05
-4.64491e-05
-5.54805e-05
-6.52066e-05
-7.56197e-05
-8.67135e-05
-9.84851e-05
-0.000110929
-0.000124037
-0.000137797
-0.000152198
-0.000167226
-0.000182867
-0.000199108
-0.000215942
-0.000233354
-0.000251328
-0.000269848
-0.000288897
-0.000308459
-0.000328518
-0.000349058
-0.000370065
-0.000391525
-0.000413423
-0.000435742
-0.000458466
-0.000481573
-0.000505043
-0.000528857
-0.000552995
-0.000577438
-0.000602169
-0.000627171
-0.000652427
-0.000677922
-0.000703635
-0.00072955
-0.000755649
-0.000781912
-0.000808319
-0.000834849
-0.000861483
-0.000888201
-0.000914987
-0.000941822
-0.000968686
-0.000995558
-0.00102242
-0.00104925
-0.00107605
-0.00110277
-0.00112941
-0.00115595
-0.00118236
-0.00120863
-0.00123474
-0.00126067
-0.00128639
-0.0013119
-0.00133717
-0.00136218
-0.00138693
-0.00141139
-0.00143555
-0.00145938
-0.00148287
-0.001506
-0.00152873
-0.00155107
-0.00157298
-0.00159446
-0.00161549
-0.00163605
-0.00165612
-0.0016757
-0.00169476
-0.00171327
-0.00173123
-0.00174862
-0.00176543
-0.00178163
-0.00179724
-0.00181222
-0.00182657
-0.00184027
-0.00185333
-0.00186571
-0.00187743
-0.00188846
-0.00189881
-0.00190847
-0.00191742
-0.00192568
-0.00193324
-0.00194009
-0.00194624
-0.00195169
-0.00195644
-0.00196049
-0.00196385
-0.00196653
-0.00196853
-0.00196988
-0.00197057
-0.00197063
-0.00197007
-0.00196891
-0.00196717
-0.00196487
-0.00196202
-0.00195866
-0.00195481
-0.0019505
-0.00194576
-0.00194061
-0.00193508
-0.0019292
-0.00192298
-0.00191646
-0.00190966
-0.0019026
-0.00189529
-0.00188778
-0.00188012
-0.00187162
-0.0018617
-0.000109473
-9.85443e-05
-8.92475e-05
-8.09359e-05
-7.28755e-05
-6.51177e-05
-5.76813e-05
-5.05724e-05
-4.38062e-05
-3.74038e-05
-3.1384e-05
-2.57658e-05
-2.05749e-05
-1.58325e-05
-1.15705e-05
-7.80478e-06
-4.54946e-06
-1.83877e-06
3.11056e-07
1.89444e-06
2.88613e-06
3.27521e-06
3.049e-06
2.18695e-06
6.7611e-07
-1.49479e-06
-4.33505e-06
-7.85161e-06
-1.20543e-05
-1.69499e-05
-2.25414e-05
-2.88344e-05
-3.58292e-05
-4.35159e-05
-5.18869e-05
-6.09427e-05
-7.06836e-05
-8.11051e-05
-9.22026e-05
-0.000103972
-0.000116406
-0.000129492
-0.000143219
-0.000157576
-0.000172551
-0.000188132
-0.00020431
-0.000221073
-0.000238408
-0.000256296
-0.000274721
-0.000293666
-0.000313118
-0.000333059
-0.000353476
-0.000374354
-0.000395683
-0.000417449
-0.000439632
-0.000462211
-0.000485164
-0.000508472
-0.00053212
-0.000556091
-0.000580369
-0.000604933
-0.000629763
-0.000654841
-0.000680153
-0.000705682
-0.000731414
-0.000757329
-0.000783404
-0.000809621
-0.000835958
-0.000862399
-0.000888925
-0.000915517
-0.000942157
-0.000968825
-0.000995501
-0.00102217
-0.00104881
-0.0010754
-0.00110194
-0.00112839
-0.00115473
-0.00118095
-0.00120703
-0.00123295
-0.00125869
-0.00128423
-0.00130956
-0.00133465
-0.00135949
-0.00138406
-0.00140835
-0.00143235
-0.00145602
-0.00147935
-0.00150232
-0.0015249
-0.0015471
-0.00156887
-0.00159022
-0.00161112
-0.00163155
-0.00165151
-0.00167098
-0.00168993
-0.00170835
-0.00172622
-0.00174352
-0.00176025
-0.00177639
-0.00179193
-0.00180686
-0.00182117
-0.00183485
-0.00184787
-0.00186024
-0.00187195
-0.00188298
-0.00189334
-0.00190301
-0.001912
-0.00192029
-0.00192789
-0.0019348
-0.00194101
-0.00194652
-0.00195134
-0.00195547
-0.00195892
-0.00196168
-0.00196378
-0.00196522
-0.00196601
-0.00196616
-0.00196569
-0.00196461
-0.00196294
-0.0019607
-0.00195791
-0.00195458
-0.00195074
-0.00194642
-0.00194163
-0.00193641
-0.00193076
-0.00192471
-0.00191827
-0.00191149
-0.00190435