/*--------------------------------*- C++ -*----------------------------------*\
  =========                 |
  \\      /  F ield         | OpenFOAM: The Open Source CFD Toolbox
   \\    /   O peration     | Website:  https://openfoam.org
    \\  /    A nd           | Version:  7
     \\/     M anipulation  |
\*---------------------------------------------------------------------------*/
FoamFile
{
    version     2.0;
    format      ascii;
    class       surfaceScalarField;
    location    "0.4125";
    object      phi;
}
// * * * * * * * * * * * * * * * * * * * * * * * * * * * * * * * * * * * * * //

dimensions      [0 3 -1 0 0 0 0];

internalField   nonuniform List<scalar> 
25360
(
1.14396e-10
-1.1424e-10
3.59616e-10
-2.45214e-10
6.04246e-10
-2.44613e-10
7.65117e-10
-1.6088e-10
7.98088e-10
-3.29944e-11
6.81367e-10
1.16714e-10
4.06337e-10
2.75051e-10
-2.76815e-11
4.34043e-10
-6.16571e-10
5.88894e-10
-1.35331e-09
7.36727e-10
-2.22914e-09
8.7581e-10
-3.23426e-09
1.00513e-09
-4.35837e-09
1.12413e-09
-5.59097e-09
1.2326e-09
-6.92152e-09
1.33056e-09
-8.33967e-09
1.41814e-09
-9.83531e-09
1.49563e-09
-1.13986e-08
1.56334e-09
-1.30203e-08
1.62166e-09
-1.46913e-08
1.67102e-09
-1.64032e-08
1.71186e-09
-1.81479e-08
1.74466e-09
-1.99177e-08
1.76989e-09
-2.17057e-08
1.78801e-09
-2.35053e-08
1.79951e-09
-2.53101e-08
1.80485e-09
-2.71146e-08
1.8045e-09
-2.89135e-08
1.79891e-09
-3.0702e-08
1.7885e-09
-3.24757e-08
1.77371e-09
-3.42307e-08
1.75494e-09
-3.59633e-08
1.73259e-09
-3.76703e-08
1.70702e-09
-3.93489e-08
1.6786e-09
-4.09965e-08
1.64766e-09
-4.26111e-08
1.61453e-09
-4.41906e-08
1.5795e-09
-4.57334e-08
1.54285e-09
-4.72383e-08
1.50487e-09
-4.87041e-08
1.46578e-09
-5.01299e-08
1.42582e-09
-5.15151e-08
1.3852e-09
-5.28592e-08
1.34412e-09
-5.41619e-08
1.30275e-09
-5.54232e-08
1.26126e-09
-5.6643e-08
1.2198e-09
-5.78215e-08
1.1785e-09
-5.8959e-08
1.13748e-09
-6.00558e-08
1.09684e-09
-6.11125e-08
1.05668e-09
-6.21296e-08
1.01708e-09
-6.31077e-08
9.78099e-10
-6.40475e-08
9.39808e-10
-6.49497e-08
9.0225e-10
-6.58152e-08
8.65465e-10
-6.66447e-08
8.29482e-10
-6.7439e-08
7.9432e-10
-6.8199e-08
7.59991e-10
-6.89255e-08
7.26501e-10
-6.96193e-08
6.93848e-10
-7.02814e-08
6.62026e-10
-7.09124e-08
6.31017e-10
-7.15132e-08
6.00801e-10
-7.20845e-08
5.7135e-10
-7.26272e-08
5.42635e-10
-7.31418e-08
5.14622e-10
-7.36291e-08
4.87273e-10
-7.40896e-08
4.60542e-10
-7.4524e-08
4.34381e-10
-7.49327e-08
4.08737e-10
-7.53163e-08
3.83559e-10
-7.56751e-08
3.58791e-10
-7.60094e-08
3.34376e-10
-7.63197e-08
3.1025e-10
-7.6606e-08
2.86347e-10
-7.68686e-08
2.626e-10
-7.71076e-08
2.38946e-10
-7.73229e-08
2.15315e-10
-7.75145e-08
1.91638e-10
-7.76824e-08
1.67841e-10
-7.78262e-08
1.43848e-10
-7.79458e-08
1.19587e-10
-7.80408e-08
9.49849e-11
-7.81108e-08
6.99697e-11
-7.81552e-08
4.44667e-11
-7.81736e-08
1.84005e-11
-7.81653e-08
-8.30414e-12
-7.81296e-08
-3.57204e-11
-7.80657e-08
-6.39192e-11
-7.79727e-08
-9.29704e-11
-7.78498e-08
-1.22943e-10
-7.76959e-08
-1.53904e-10
-7.751e-08
-1.85919e-10
-7.72909e-08
-2.19048e-10
-7.70376e-08
-2.53348e-10
-7.67487e-08
-2.88872e-10
-7.6423e-08
-3.25669e-10
-7.60592e-08
-3.63784e-10
-7.5656e-08
-4.03256e-10
-7.52119e-08
-4.44116e-10
-7.47255e-08
-4.86387e-10
-7.41954e-08
-5.30086e-10
-7.36202e-08
-5.7522e-10
-7.29984e-08
-6.21789e-10
-7.23286e-08
-6.69781e-10
-7.16094e-08
-7.19175e-10
-7.08395e-08
-7.69935e-10
-7.00175e-08
-8.22014e-10
-6.91422e-08
-8.7535e-10
-6.82123e-08
-9.29869e-10
-6.72268e-08
-9.85479e-10
-6.61847e-08
-1.04207e-09
-6.50852e-08
-1.09953e-09
-6.39275e-08
-1.15771e-09
-6.27111e-08
-1.21644e-09
-6.14355e-08
-1.27555e-09
-6.01007e-08
-1.33485e-09
-5.87066e-08
-1.3941e-09
-5.72535e-08
-1.45307e-09
-5.5742e-08
-1.51151e-09
-5.41729e-08
-1.56911e-09
-5.25473e-08
-1.62559e-09
-5.08667e-08
-1.68061e-09
-4.91329e-08
-1.73383e-09
-4.7348e-08
-1.78488e-09
-4.55147e-08
-1.83336e-09
-4.36358e-08
-1.87889e-09
-4.17147e-08
-1.92102e-09
-3.97554e-08
-1.95931e-09
-3.77621e-08
-1.99332e-09
-3.57396e-08
-2.02255e-09
-3.36931e-08
-2.04652e-09
-3.16283e-08
-2.06475e-09
-2.95516e-08
-2.07672e-09
-2.74697e-08
-2.08191e-09
-2.53899e-08
-2.07983e-09
-2.33199e-08
-2.06994e-09
-2.12682e-08
-2.05174e-09
-1.92435e-08
-2.02472e-09
-1.72551e-08
-1.98838e-09
-1.53128e-08
-1.94225e-09
-1.3427e-08
-1.88587e-09
-1.16082e-08
-1.81879e-09
-9.86755e-09
-1.74064e-09
-8.2165e-09
-1.65105e-09
-6.66674e-09
-1.54976e-09
-5.23018e-09
-1.43656e-09
-3.91883e-09
-1.31136e-09
-2.74458e-09
-1.17425e-09
-1.71906e-09
-1.02552e-09
-8.53227e-10
-8.65827e-10
-1.56927e-10
-6.963e-10
3.6193e-10
-5.18857e-10
6.98595e-10
-3.36664e-10
8.53561e-10
-1.54968e-10
8.36061e-10
1.74938e-11
6.69912e-10
1.66141e-10
4.03873e-10
2.66039e-10
1.30757e-10
2.73129e-10
1.30774e-10
2.45502e-10
-3.59746e-10
6.34071e-10
-6.33799e-10
9.50125e-10
-5.60637e-10
1.04693e-09
-2.57643e-10
8.2861e-10
1.85333e-10
2.38673e-10
7.06625e-10
-7.51233e-10
1.26494e-09
-2.15012e-09
1.83294e-09
-3.95388e-09
2.39268e-09
-6.14954e-09
2.93241e-09
-8.71824e-09
3.4445e-09
-1.16373e-08
3.92413e-09
-1.48815e-08
4.36838e-09
-1.84246e-08
4.77566e-09
-2.22394e-08
5.14535e-09
-2.62987e-08
5.4775e-09
-3.05758e-08
5.77268e-09
-3.50443e-08
6.03182e-09
-3.96787e-08
6.2561e-09
-4.44545e-08
6.44688e-09
-4.93483e-08
6.60568e-09
-5.43378e-08
6.73411e-09
-5.94018e-08
6.83384e-09
-6.45203e-08
6.90658e-09
-6.96748e-08
6.95404e-09
-7.48479e-08
6.97792e-09
-8.00233e-08
6.97993e-09
-8.51862e-08
6.96173e-09
-9.03226e-08
6.92496e-09
-9.54201e-08
6.87121e-09
-1.00467e-07
6.80199e-09
-1.05453e-07
6.7188e-09
-1.10369e-07
6.62306e-09
-1.15207e-07
6.51611e-09
-1.19959e-07
6.39925e-09
-1.24618e-07
6.2737e-09
-1.29179e-07
6.14062e-09
-1.33637e-07
6.0011e-09
-1.37988e-07
5.85615e-09
-1.42229e-07
5.70673e-09
-1.46357e-07
5.55373e-09
-1.5037e-07
5.39797e-09
-1.54266e-07
5.2402e-09
-1.58044e-07
5.08113e-09
-1.61705e-07
4.92139e-09
-1.65246e-07
4.76156e-09
-1.6867e-07
4.60216e-09
-1.71976e-07
4.44365e-09
-1.75166e-07
4.28646e-09
-1.7824e-07
4.13095e-09
-1.812e-07
3.97744e-09
-1.84049e-07
3.82621e-09
-1.86786e-07
3.67749e-09
-1.89415e-07
3.53148e-09
-1.91938e-07
3.38833e-09
-1.94357e-07
3.24816e-09
-1.96674e-07
3.11106e-09
-1.98891e-07
2.97708e-09
-2.01011e-07
2.84625e-09
-2.03035e-07
2.71857e-09
-2.04967e-07
2.59402e-09
-2.06809e-07
2.47253e-09
-2.08562e-07
2.35404e-09
-2.10229e-07
2.23845e-09
-2.11812e-07
2.12564e-09
-2.13313e-07
2.01549e-09
-2.14734e-07
1.90784e-09
-2.16076e-07
1.80254e-09
-2.17341e-07
1.6994e-09
-2.1853e-07
1.59823e-09
-2.19645e-07
1.49882e-09
-2.20687e-07
1.40096e-09
-2.21658e-07
1.30443e-09
-2.22556e-07
1.20898e-09
-2.23384e-07
1.11438e-09
-2.24142e-07
1.02037e-09
-2.2483e-07
9.26696e-10
-2.25448e-07
8.33087e-10
-2.25995e-07
7.39279e-10
-2.26472e-07
6.44998e-10
-2.26879e-07
5.49965e-10
-2.27213e-07
4.53895e-10
-2.27474e-07
3.56506e-10
-2.27662e-07
2.57516e-10
-2.27774e-07
1.56643e-10
-2.27809e-07
5.36031e-11
-2.27766e-07
-5.18847e-11
-2.27641e-07
-1.60099e-10
-2.27434e-07
-2.71314e-10
-2.27141e-07
-3.85795e-10
-2.2676e-07
-5.03802e-10
-2.26289e-07
-6.25587e-10
-2.25723e-07
-7.5139e-10
-2.25061e-07
-8.81442e-10
-2.24298e-07
-1.01596e-09
-2.23432e-07
-1.15513e-09
-2.22458e-07
-1.29915e-09
-2.21374e-07
-1.44817e-09
-2.20175e-07
-1.60233e-09
-2.18857e-07
-1.76174e-09
-2.17417e-07
-1.92649e-09
-2.15851e-07
-2.09663e-09
-2.14154e-07
-2.27218e-09
-2.12322e-07
-2.45313e-09
-2.10353e-07
-2.63941e-09
-2.08241e-07
-2.83094e-09
-2.05983e-07
-3.02756e-09
-2.03576e-07
-3.22908e-09
-2.01016e-07
-3.43526e-09
-1.983e-07
-3.6458e-09
-1.95426e-07
-3.86033e-09
-1.92389e-07
-4.07843e-09
-1.89189e-07
-4.29963e-09
-1.85824e-07
-4.52335e-09
-1.82291e-07
-4.74898e-09
-1.78591e-07
-4.97582e-09
-1.74722e-07
-5.2031e-09
-1.70687e-07
-5.42996e-09
-1.66484e-07
-5.65547e-09
-1.62117e-07
-5.87864e-09
-1.57588e-07
-6.09836e-09
-1.529e-07
-6.31347e-09
-1.48058e-07
-6.52273e-09
-1.43067e-07
-6.7248e-09
-1.37934e-07
-6.91828e-09
-1.32665e-07
-7.10169e-09
-1.27271e-07
-7.27348e-09
-1.2176e-07
-7.43204e-09
-1.16143e-07
-7.57569e-09
-1.10434e-07
-7.70269e-09
-1.04645e-07
-7.81125e-09
-9.87921e-08
-7.89956e-09
-9.28911e-08
-7.96573e-09
-8.696e-08
-8.00789e-09
-8.10177e-08
-8.02413e-09
-7.5085e-08
-8.01255e-09
-6.91837e-08
-7.97125e-09
-6.33371e-08
-7.89835e-09
-5.75698e-08
-7.79203e-09
-5.19077e-08
-7.65052e-09
-4.63778e-08
-7.47213e-09
-4.10084e-08
-7.25527e-09
-3.58287e-08
-6.99851e-09
-3.08687e-08
-6.70059e-09
-2.61593e-08
-6.3605e-09
-2.17315e-08
-5.97752e-09
-1.76167e-08
-5.55137e-09
-1.38458e-08
-5.08226e-09
-1.04489e-08
-4.57118e-09
-7.4543e-09
-4.02012e-09
-4.88765e-09
-3.43248e-09
-2.77019e-09
-2.81376e-09
-1.11664e-09
-2.17241e-09
6.8092e-11
-1.5214e-09
7.93651e-10
-8.80522e-10
1.0911e-09
-2.79944e-10
1.02281e-09
2.34416e-10
6.95386e-10
5.93442e-10
2.73129e-10
6.95356e-10
4.03913e-10
2.45875e-10
-6.05608e-10
5.63588e-10
-9.51549e-10
6.97993e-10
-6.95054e-10
4.751e-10
-3.47205e-11
-2.24811e-10
8.85281e-10
-1.47765e-09
1.95947e-09
-3.32529e-09
3.11256e-09
-5.78427e-09
4.2919e-09
-8.85259e-09
5.46101e-09
-1.25149e-08
6.59476e-09
-1.67465e-08
7.67611e-09
-2.15161e-08
8.69368e-09
-2.67879e-08
9.64019e-09
-3.25235e-08
1.05113e-08
-3.8683e-08
1.13049e-08
-4.52257e-08
1.20202e-08
-5.2111e-08
1.2658e-08
-5.92988e-08
1.32196e-08
-6.67499e-08
1.37072e-08
-7.44265e-08
1.41234e-08
-8.2292e-08
1.44712e-08
-9.03116e-08
1.47537e-08
-9.84522e-08
1.49744e-08
-1.06682e-07
1.51368e-08
-1.14973e-07
1.52444e-08
-1.23296e-07
1.53008e-08
-1.31625e-07
1.53096e-08
-1.39938e-07
1.52743e-08
-1.48211e-07
1.51984e-08
-1.56425e-07
1.50853e-08
-1.64562e-07
1.49383e-08
-1.72603e-07
1.47606e-08
-1.80536e-07
1.45551e-08
-1.88344e-07
1.43249e-08
-1.96018e-07
1.40728e-08
-2.03546e-07
1.38013e-08
-2.10918e-07
1.35131e-08
-2.18127e-07
1.32104e-08
-2.25167e-07
1.28955e-08
-2.3203e-07
1.25705e-08
-2.38714e-07
1.22374e-08
-2.45214e-07
1.18978e-08
-2.51527e-07
1.15536e-08
-2.57652e-07
1.12062e-08
-2.63588e-07
1.08571e-08
-2.69334e-07
1.05074e-08
-2.7489e-07
1.01584e-08
-2.80258e-07
9.81107e-09
-2.85437e-07
9.46638e-09
-2.90432e-07
9.12513e-09
-2.95242e-07
8.78802e-09
-2.99872e-07
8.45568e-09
-3.04323e-07
8.12863e-09
-3.08599e-07
7.80731e-09
-3.12702e-07
7.49206e-09
-3.16637e-07
7.18317e-09
-3.20407e-07
6.88084e-09
-3.24015e-07
6.58519e-09
-3.27465e-07
6.29631e-09
-3.30761e-07
6.01418e-09
-3.33906e-07
5.73876e-09
-3.36903e-07
5.46995e-09
-3.39757e-07
5.20759e-09
-3.4247e-07
4.95149e-09
-3.45045e-07
4.70141e-09
-3.47487e-07
4.45704e-09
-3.49797e-07
4.21809e-09
-3.51979e-07
3.98419e-09
-3.54034e-07
3.75496e-09
-3.55966e-07
3.52998e-09
-3.57776e-07
3.30882e-09
-3.59466e-07
3.09099e-09
-3.61038e-07
2.87602e-09
-3.62492e-07
2.66338e-09
-3.6383e-07
2.45257e-09
-3.65053e-07
2.24301e-09
-3.66161e-07
2.03416e-09
-3.67153e-07
1.82544e-09
-3.6803e-07
1.61625e-09
-3.68791e-07
1.40601e-09
-3.69435e-07
1.19411e-09
-3.69961e-07
9.79949e-10
-3.70367e-07
7.62899e-10
-3.70652e-07
5.42348e-10
-3.70813e-07
3.17682e-10
-3.70848e-07
8.8289e-11
-3.70753e-07
-1.46438e-10
-3.70526e-07
-3.87099e-10
-3.70163e-07
-6.34287e-10
-3.69661e-07
-8.88578e-10
-3.69014e-07
-1.15053e-09
-3.68219e-07
-1.42069e-09
-3.67271e-07
-1.69956e-09
-3.66165e-07
-1.98765e-09
-3.64895e-07
-2.2854e-09
-3.63457e-07
-2.59325e-09
-3.61845e-07
-2.91157e-09
-3.60052e-07
-3.2407e-09
-3.58073e-07
-3.58092e-09
-3.55903e-07
-3.93248e-09
-3.53534e-07
-4.29554e-09
-3.5096e-07
-4.67019e-09
-3.48176e-07
-5.05648e-09
-3.45175e-07
-5.45434e-09
-3.4195e-07
-5.86365e-09
-3.38497e-07
-6.28415e-09
-3.34809e-07
-6.71554e-09
-3.30881e-07
-7.15736e-09
-3.26707e-07
-7.60906e-09
-3.22283e-07
-8.06997e-09
-3.17604e-07
-8.53929e-09
-3.12666e-07
-9.01608e-09
-3.07467e-07
-9.49926e-09
-3.02002e-07
-9.98761e-09
-2.96272e-07
-1.04798e-08
-2.90273e-07
-1.09742e-08
-2.84007e-07
-1.14691e-08
-2.77475e-07
-1.19628e-08
-2.70677e-07
-1.24531e-08
-2.63618e-07
-1.29379e-08
-2.56301e-07
-1.34148e-08
-2.48733e-07
-1.38813e-08
-2.40922e-07
-1.43345e-08
-2.32875e-07
-1.47718e-08
-2.24603e-07
-1.51899e-08
-2.16119e-07
-1.55858e-08
-2.07436e-07
-1.5956e-08
-1.98571e-07
-1.62971e-08
-1.89541e-07
-1.66055e-08
-1.80367e-07
-1.68773e-08
-1.71069e-07
-1.71089e-08
-1.61672e-07
-1.72962e-08
-1.52203e-07
-1.74353e-08
-1.42689e-07
-1.75221e-08
-1.3316e-07
-1.75526e-08
-1.2365e-07
-1.75229e-08
-1.14192e-07
-1.74288e-08
-1.04824e-07
-1.72664e-08
-9.55843e-08
-1.7032e-08
-8.65129e-08
-1.6722e-08
-7.76522e-08
-1.63328e-08
-6.90461e-08
-1.58614e-08
-6.07397e-08
-1.53049e-08
-5.27793e-08
-1.46611e-08
-4.52117e-08
-1.39281e-08
-3.80841e-08
-1.31051e-08
-3.14434e-08
-1.2192e-08
-2.53356e-08
-1.11901e-08
-1.98042e-08
-1.01025e-08
-1.48899e-08
-8.93446e-09
-1.06279e-08
-7.69446e-09
-7.04629e-09
-6.39538e-09
-4.1624e-09
-5.05629e-09
-1.97881e-09
-3.705e-09
-4.77462e-10
-2.38187e-09
3.87864e-10
-1.14526e-09
7.01315e-10
-7.9022e-11
5.96165e-10
6.98593e-10
2.66925e-10
1.02458e-09
6.70837e-10
1.63831e-10
-7.69407e-10
2.64894e-10
-1.05263e-09
4.44445e-11
-4.74637e-10
-6.77877e-10
6.87592e-10
-2.02884e-09
2.23627e-09
-4.09169e-09
4.02235e-09
-6.91455e-09
5.93542e-09
-1.05179e-08
7.89528e-09
-1.49011e-08
9.84418e-09
-2.00473e-08
1.17409e-08
-2.59277e-08
1.35565e-08
-3.2505e-08
1.5271e-08
-3.97357e-08
1.68709e-08
-4.75721e-08
1.83478e-08
-5.59642e-08
1.96969e-08
-6.48604e-08
2.09164e-08
-7.42089e-08
2.20065e-08
-8.39581e-08
2.29688e-08
-9.40573e-08
2.38064e-08
-1.04457e-07
2.45232e-08
-1.1511e-07
2.51239e-08
-1.25969e-07
2.56135e-08
-1.36993e-07
2.59976e-08
-1.48138e-07
2.62818e-08
-1.59365e-07
2.64721e-08
-1.70639e-07
2.65745e-08
-1.81925e-07
2.65949e-08
-1.93189e-07
2.65393e-08
-2.04405e-07
2.64135e-08
-2.15542e-07
2.62232e-08
-2.26578e-07
2.59742e-08
-2.37489e-07
2.56717e-08
-2.48255e-07
2.5321e-08
-2.58857e-07
2.49271e-08
-2.69279e-07
2.44948e-08
-2.79507e-07
2.40286e-08
-2.89527e-07
2.3533e-08
-2.99328e-07
2.30119e-08
-3.08902e-07
2.24693e-08
-3.1824e-07
2.19087e-08
-3.27336e-07
2.13335e-08
-3.36185e-07
2.07468e-08
-3.44783e-07
2.01515e-08
-3.53127e-07
1.95503e-08
-3.61216e-07
1.89456e-08
-3.69048e-07
1.83396e-08
-3.76624e-07
1.77343e-08
-3.83944e-07
1.71316e-08
-3.91011e-07
1.65331e-08
-3.97826e-07
1.59402e-08
-4.04392e-07
1.53541e-08
-4.10713e-07
1.4776e-08
-4.16791e-07
1.42068e-08
-4.22631e-07
1.36472e-08
-4.28236e-07
1.30978e-08
-4.33612e-07
1.25592e-08
-4.38763e-07
1.20318e-08
-4.43694e-07
1.15157e-08
-4.48409e-07
1.10112e-08
-4.52913e-07
1.05181e-08
-4.57211e-07
1.00365e-08
-4.61307e-07
9.56625e-09
-4.65206e-07
9.10699e-09
-4.68913e-07
8.65843e-09
-4.72432e-07
8.22015e-09
-4.75767e-07
7.79169e-09
-4.78921e-07
7.37248e-09
-4.81899e-07
6.96193e-09
-4.84703e-07
6.55938e-09
-4.87337e-07
6.16411e-09
-4.89804e-07
5.77537e-09
-4.92105e-07
5.39235e-09
-4.94243e-07
5.01421e-09
-4.9622e-07
4.64007e-09
-4.98036e-07
4.26901e-09
-4.99694e-07
3.90011e-09
-5.01192e-07
3.53238e-09
-5.02531e-07
3.16484e-09
-5.03711e-07
2.79648e-09
-5.04732e-07
2.42627e-09
-5.05591e-07
2.05318e-09
-5.06287e-07
1.67615e-09
-5.06818e-07
1.29412e-09
-5.07182e-07
9.06048e-10
-5.07375e-07
5.10863e-10
-5.07394e-07
1.07517e-10
-5.07236e-07
-3.05033e-10
-5.06895e-07
-7.27815e-10
-5.06367e-07
-1.16184e-09
-5.05648e-07
-1.60809e-09
-5.04731e-07
-2.06754e-09
-5.0361e-07
-2.54109e-09
-5.0228e-07
-3.02963e-09
-5.00734e-07
-3.534e-09
-4.98965e-07
-4.05496e-09
-4.96965e-07
-4.59324e-09
-4.94727e-07
-5.14947e-09
-4.92243e-07
-5.72423e-09
-4.89506e-07
-6.31799e-09
-4.86507e-07
-6.93113e-09
-4.83239e-07
-7.56391e-09
-4.79693e-07
-8.21651e-09
-4.7586e-07
-8.88893e-09
-4.71734e-07
-9.58107e-09
-4.67305e-07
-1.02927e-08
-4.62565e-07
-1.10233e-08
-4.57509e-07
-1.17724e-08
-4.52127e-07
-1.25391e-08
-4.46413e-07
-1.33225e-08
-4.40362e-07
-1.41213e-08
-4.33967e-07
-1.49343e-08
-4.27224e-07
-1.57597e-08
-4.20127e-07
-1.65956e-08
-4.12675e-07
-1.74399e-08
-4.04864e-07
-1.82903e-08
-3.96694e-07
-1.91441e-08
-3.88165e-07
-1.99983e-08
-3.79278e-07
-2.08496e-08
-3.70037e-07
-2.16947e-08
-3.60445e-07
-2.25297e-08
-3.50509e-07
-2.33504e-08
-3.40238e-07
-2.41526e-08
-3.29641e-07
-2.49315e-08
-3.18731e-07
-2.56822e-08
-3.07521e-07
-2.63995e-08
-2.96029e-07
-2.70778e-08
-2.84274e-07
-2.77115e-08
-2.72276e-07
-2.82945e-08
-2.60061e-07
-2.88207e-08
-2.47655e-07
-2.92837e-08
-2.35087e-07
-2.9677e-08
-2.22389e-07
-2.99939e-08
-2.09596e-07
-3.02277e-08
-1.96747e-07
-3.03715e-08
-1.83881e-07
-3.04185e-08
-1.71042e-07
-3.0362e-08
-1.58276e-07
-3.01953e-08
-1.4563e-07
-2.99118e-08
-1.33157e-07
-2.95053e-08
-1.20909e-07
-2.89699e-08
-1.08942e-07
-2.82999e-08
-9.73128e-08
-2.74905e-08
-8.60805e-08
-2.65372e-08
-7.53048e-08
-2.54368e-08
-6.50461e-08
-2.41868e-08
-5.53648e-08
-2.27864e-08
-4.63204e-08
-2.12364e-08
-3.79704e-08
-1.95402e-08
-3.03691e-08
-1.77038e-08
-2.35659e-08
-1.57376e-08
-1.76031e-08
-1.36572e-08
-1.25133e-08
-1.14852e-08
-8.3154e-09
-9.25419e-09
-5.01051e-09
-7.0099e-09
-2.57602e-09
-4.81637e-09
-9.58632e-10
-2.76265e-09
-6.59311e-11
-9.71715e-10
2.43031e-10
3.89643e-10
1.69031e-10
1.09857e-09
8.39862e-10
3.77955e-11
-8.07182e-10
-1.74053e-10
-8.40751e-10
-8.70409e-10
2.21707e-10
-2.22134e-09
2.0385e-09
-4.34864e-09
4.36356e-09
-7.33384e-09
7.00757e-09
-1.12249e-08
9.82653e-09
-1.60424e-08
1.27128e-08
-2.17849e-08
1.55866e-08
-2.84335e-08
1.83895e-08
-3.5956e-08
2.10791e-08
-4.43102e-08
2.36252e-08
-5.34464e-08
2.60071e-08
-6.33099e-08
2.82112e-08
-7.38422e-08
3.02293e-08
-8.49832e-08
3.20574e-08
-9.66716e-08
3.36949e-08
-1.08846e-07
3.51434e-08
-1.21447e-07
3.64068e-08
-1.34414e-07
3.74903e-08
-1.4769e-07
3.84002e-08
-1.6122e-07
3.91438e-08
-1.74952e-07
3.97289e-08
-1.88834e-07
4.01637e-08
-2.02818e-07
4.04568e-08
-2.16861e-07
4.06171e-08
-2.30919e-07
4.06532e-08
-2.44954e-07
4.05741e-08
-2.58929e-07
4.03884e-08
-2.7281e-07
4.01047e-08
-2.86568e-07
3.97313e-08
-3.00172e-07
3.92764e-08
-3.13599e-07
3.87478e-08
-3.26825e-07
3.8153e-08
-3.3983e-07
3.74994e-08
-3.52595e-07
3.67937e-08
-3.65105e-07
3.60426e-08
-3.77345e-07
3.52522e-08
-3.89304e-07
3.44284e-08
-4.00972e-07
3.35766e-08
-4.1234e-07
3.2702e-08
-4.23403e-07
3.18093e-08
-4.34154e-07
3.0903e-08
-4.44591e-07
2.9987e-08
-4.54711e-07
2.90652e-08
-4.64512e-07
2.81409e-08
-4.73995e-07
2.72173e-08
-4.8316e-07
2.6297e-08
-4.9201e-07
2.53826e-08
-5.00546e-07
2.44763e-08
-5.08772e-07
2.358e-08
-5.16691e-07
2.26954e-08
-5.24308e-07
2.18239e-08
-5.31628e-07
2.09668e-08
-5.38655e-07
2.0125e-08
-5.45395e-07
1.92992e-08
-5.51853e-07
1.84901e-08
-5.58036e-07
1.76981e-08
-5.63948e-07
1.69233e-08
-5.69596e-07
1.61659e-08
-5.74985e-07
1.54256e-08
-5.80121e-07
1.47024e-08
-5.8501e-07
1.39958e-08
-5.89657e-07
1.33053e-08
-5.94067e-07
1.26304e-08
-5.98245e-07
1.19702e-08
-6.02197e-07
1.1324e-08
-6.05926e-07
1.06908e-08
-6.09436e-07
1.00697e-08
-6.12732e-07
9.45963e-09
-6.15816e-07
8.85938e-09
-6.18691e-07
8.26776e-09
-6.2136e-07
7.68349e-09
-6.23825e-07
7.10524e-09
-6.26088e-07
6.53163e-09
-6.28149e-07
5.96124e-09
-6.30009e-07
5.3926e-09
-6.31669e-07
4.82421e-09
-6.33127e-07
4.25453e-09
-6.34383e-07
3.68202e-09
-6.35434e-07
3.1051e-09
-6.3628e-07
2.52217e-09
-6.36918e-07
1.93165e-09
-6.37344e-07
1.33194e-09
-6.37554e-07
7.21418e-10
-6.37545e-07
9.85107e-11
-6.37312e-07
-5.38362e-10
-6.36849e-07
-1.19075e-09
-6.36151e-07
-1.86018e-09
-6.35211e-07
-2.54814e-09
-6.34022e-07
-3.25606e-09
-6.32578e-07
-3.98534e-09
-6.3087e-07
-4.73729e-09
-6.28891e-07
-5.51316e-09
-6.26632e-07
-6.31411e-09
-6.24084e-07
-7.14122e-09
-6.21238e-07
-7.99542e-09
-6.18085e-07
-8.87756e-09
-6.14614e-07
-9.78834e-09
-6.10817e-07
-1.07283e-08
-6.06683e-07
-1.16978e-08
-6.02203e-07
-1.26972e-08
-5.97365e-07
-1.37263e-08
-5.92162e-07
-1.47849e-08
-5.86581e-07
-1.58728e-08
-5.80616e-07
-1.69891e-08
-5.74255e-07
-1.8133e-08
-5.67491e-07
-1.93032e-08
-5.60315e-07
-2.04982e-08
-5.5272e-07
-2.17162e-08
-5.447e-07
-2.29549e-08
-5.36247e-07
-2.4212e-08
-5.27358e-07
-2.54845e-08
-5.18029e-07
-2.67691e-08
-5.08257e-07
-2.80622e-08
-4.98042e-07
-2.93597e-08
-4.87383e-07
-3.06572e-08
-4.76283e-07
-3.19497e-08
-4.64746e-07
-3.32319e-08
-4.52777e-07
-3.44981e-08
-4.40386e-07
-3.5742e-08
-4.27581e-07
-3.69569e-08
-4.14377e-07
-3.81359e-08
-4.00788e-07
-3.92714e-08
-3.86832e-07
-4.03556e-08
-3.7253e-07
-4.13801e-08
-3.57905e-07
-4.23362e-08
-3.42984e-07
-4.32151e-08
-3.27797e-07
-4.40074e-08
-3.12378e-07
-4.47036e-08
-2.96761e-07
-4.52938e-08
-2.80987e-07
-4.57681e-08
-2.65098e-07
-4.61164e-08
-2.49141e-07
-4.63285e-08
-2.33165e-07
-4.63944e-08
-2.17223e-07
-4.63039e-08
-2.01371e-07
-4.60474e-08
-1.85668e-07
-4.56151e-08
-1.70175e-07
-4.49981e-08
-1.54957e-07
-4.41876e-08
-1.40081e-07
-4.31757e-08
-1.25616e-07
-4.19556e-08
-1.11632e-07
-4.05214e-08
-9.82002e-08
-3.88686e-08
-8.53924e-08
-3.69946e-08
-7.32799e-08
-3.48989e-08
-6.19323e-08
-3.2584e-08
-5.14166e-08
-3.00558e-08
-4.17956e-08
-2.73249e-08
-3.31256e-08
-2.44076e-08
-2.54546e-08
-2.13282e-08
-1.88188e-08
-1.8121e-08
-1.32395e-08
-1.48335e-08
-8.71842e-09
-1.1531e-08
-5.23284e-09
-8.30196e-09
-2.72951e-09
-5.266e-09
-1.11793e-09
-2.5833e-09
-2.63062e-10
-4.65213e-10
2.32884e-11
8.12224e-10
8.63146e-10
-1.10586e-10
-6.96605e-10
-6.93946e-10
-2.57357e-10
-1.94598e-09
1.47377e-09
-4.01454e-09
4.10705e-09
-7.00741e-09
7.35641e-09
-1.09974e-08
1.09975e-08
-1.60269e-08
1.4856e-08
-2.21127e-08
1.87986e-08
-2.925e-08
2.2724e-08
-3.74169e-08
2.65564e-08
-4.65773e-08
3.02395e-08
-5.66844e-08
3.37323e-08
-6.76832e-08
3.70059e-08
-7.95128e-08
4.00408e-08
-9.21081e-08
4.28245e-08
-1.05401e-07
4.53507e-08
-1.19324e-07
4.76172e-08
-1.33806e-07
4.96256e-08
-1.48779e-07
5.13801e-08
-1.64176e-07
5.28872e-08
-1.79931e-07
5.4155e-08
-1.9598e-07
5.51928e-08
-2.12262e-07
5.60111e-08
-2.28719e-07
5.66209e-08
-2.45296e-07
5.70337e-08
-2.61941e-07
5.72615e-08
-2.78604e-07
5.73161e-08
-2.95239e-07
5.72096e-08
-3.11805e-07
5.69541e-08
-3.28261e-07
5.65611e-08
-3.44572e-07
5.60423e-08
-3.60705e-07
5.5409e-08
-3.76629e-07
5.46719e-08
-3.92317e-07
5.38417e-08
-4.07746e-07
5.29282e-08
-4.22894e-07
5.19412e-08
-4.37741e-07
5.08899e-08
-4.52272e-07
4.97827e-08
-4.66471e-07
4.8628e-08
-4.80328e-07
4.74333e-08
-4.93832e-07
4.6206e-08
-5.06975e-07
4.49525e-08
-5.19751e-07
4.36792e-08
-5.32156e-07
4.23918e-08
-5.44186e-07
4.10954e-08
-5.5584e-07
3.9795e-08
-5.67118e-07
3.84948e-08
-5.78019e-07
3.71988e-08
-5.88547e-07
3.59104e-08
-5.98704e-07
3.46329e-08
-6.08493e-07
3.3369e-08
-6.17918e-07
3.2121e-08
-6.26985e-07
3.08909e-08
-6.35699e-07
2.96806e-08
-6.44066e-07
2.84914e-08
-6.52091e-07
2.73243e-08
-6.59781e-07
2.61803e-08
-6.67143e-07
2.50599e-08
-6.74183e-07
2.39635e-08
-6.80908e-07
2.28911e-08
-6.87325e-07
2.18426e-08
-6.9344e-07
2.08178e-08
-6.99261e-07
1.9816e-08
-7.04792e-07
1.88367e-08
-7.10041e-07
1.7879e-08
-7.15012e-07
1.69419e-08
-7.19713e-07
1.60242e-08
-7.24147e-07
1.51247e-08
-7.28319e-07
1.4242e-08
-7.32234e-07
1.33746e-08
-7.35895e-07
1.2521e-08
-7.39307e-07
1.16793e-08
-7.42471e-07
1.08479e-08
-7.45391e-07
1.00249e-08
-7.48068e-07
9.20825e-09
-7.50502e-07
8.39609e-09
-7.52696e-07
7.58635e-09
-7.54649e-07
6.77691e-09
-7.5636e-07
5.96564e-09
-7.57828e-07
5.15036e-09
-7.59052e-07
4.32889e-09
-7.60029e-07
3.49899e-09
-7.60756e-07
2.65844e-09
-7.61229e-07
1.805e-09
-7.61444e-07
9.36446e-10
-7.61396e-07
5.05552e-11
-7.61079e-07
-8.54866e-10
-7.60488e-07
-1.78198e-09
-7.59615e-07
-2.73291e-09
-7.58454e-07
-3.70971e-09
-7.56996e-07
-4.71439e-09
-7.55232e-07
-5.74887e-09
-7.53154e-07
-6.81498e-09
-7.50753e-07
-7.91445e-09
-7.48018e-07
-9.04887e-09
-7.4494e-07
-1.02197e-08
-7.41507e-07
-1.14283e-08
-7.37709e-07
-1.26757e-08
-7.33534e-07
-1.3963e-08
-7.28971e-07
-1.52909e-08
-7.2401e-07
-1.66598e-08
-7.18637e-07
-1.807e-08
-7.12841e-07
-1.95215e-08
-7.06612e-07
-2.1014e-08
-6.99938e-07
-2.25469e-08
-6.92808e-07
-2.41191e-08
-6.85212e-07
-2.57294e-08
-6.77139e-07
-2.73759e-08
-6.68581e-07
-2.90565e-08
-6.59528e-07
-3.07686e-08
-6.49974e-07
-3.25092e-08
-6.39912e-07
-3.42746e-08
-6.29335e-07
-3.60609e-08
-6.18241e-07
-3.78634e-08
-6.06626e-07
-3.96769e-08
-5.9449e-07
-4.14959e-08
-5.81833e-07
-4.33139e-08
-5.68659e-07
-4.51242e-08
-5.54971e-07
-4.69193e-08
-5.40779e-07
-4.8691e-08
-5.2609e-07
-5.04307e-08
-5.10918e-07
-5.21291e-08
-4.95277e-07
-5.37765e-08
-4.79186e-07
-5.53622e-08
-4.62666e-07
-5.68754e-08
-4.45742e-07
-5.83045e-08
-4.28441e-07
-5.96374e-08
-4.10794e-07
-6.08618e-08
-3.92837e-07
-6.19647e-08
-3.74608e-07
-6.29328e-08
-3.56149e-07
-6.37526e-08
-3.37507e-07
-6.44104e-08
-3.18731e-07
-6.48922e-08
-2.99875e-07
-6.51841e-08
-2.80997e-07
-6.52723e-08
-2.62158e-07
-6.5143e-08
-2.43423e-07
-6.47828e-08
-2.24859e-07
-6.41788e-08
-2.06538e-07
-6.33187e-08
-1.88535e-07
-6.2191e-08
-1.70925e-07
-6.07854e-08
-1.53788e-07
-5.90927e-08
-1.37204e-07
-5.71056e-08
-1.21254e-07
-5.48189e-08
-1.06019e-07
-5.22297e-08
-9.15791e-08
-4.93386e-08
-7.80132e-08
-4.61499e-08
-6.53959e-08
-4.26731e-08
-5.37969e-08
-3.89239e-08
-4.32787e-08
-3.49258e-08
-3.38943e-08
-3.07126e-08
-2.56843e-08
-2.6331e-08
-1.86734e-08
-2.18444e-08
-1.2867e-08
-1.73374e-08
-8.24629e-09
-1.29227e-08
-4.76414e-09
-8.74814e-09
-2.33992e-09
-5.00754e-09
-8.54619e-10
-1.95052e-09
-1.45829e-10
1.03438e-10
7.17316e-10
-2.68852e-10
-4.27773e-10
-1.25598e-09
7.29783e-10
-3.11213e-09
3.32994e-09
-5.95562e-09
6.95056e-09
-9.87388e-09
1.12747e-08
-1.49256e-08
1.60492e-08
-2.11431e-08
2.10736e-08
-2.85361e-08
2.61915e-08
-3.70941e-08
3.1282e-08
-4.67901e-08
3.62524e-08
-5.75834e-08
4.10328e-08
-6.94225e-08
4.55714e-08
-8.22472e-08
4.98306e-08
-9.59909e-08
5.37845e-08
-1.10583e-07
5.74163e-08
-1.25949e-07
6.07166e-08
-1.42013e-07
6.36815e-08
-1.58699e-07
6.6312e-08
-1.75932e-07
6.86129e-08
-1.93636e-07
7.05916e-08
-2.1174e-07
7.22581e-08
-2.30171e-07
7.36239e-08
-2.48861e-07
7.4702e-08
-2.67747e-07
7.55065e-08
-2.86765e-07
7.60521e-08
-3.05858e-07
7.6354e-08
-3.24969e-07
7.64276e-08
-3.44048e-07
7.62886e-08
-3.63047e-07
7.59523e-08
-3.8192e-07
7.54343e-08
-4.00627e-07
7.47495e-08
-4.19131e-07
7.39126e-08
-4.37397e-07
7.29379e-08
-4.55394e-07
7.18392e-08
-4.73095e-07
7.06296e-08
-4.90476e-07
6.9322e-08
-5.07515e-07
6.79282e-08
-5.24192e-07
6.64598e-08
-5.40491e-07
6.49276e-08
-5.56399e-07
6.33416e-08
-5.71905e-07
6.17115e-08
-5.86999e-07
6.0046e-08
-6.01673e-07
5.83535e-08
-6.15922e-07
5.66414e-08
-6.29744e-07
5.49168e-08
-6.43135e-07
5.3186e-08
-6.56095e-07
5.14549e-08
-6.68625e-07
4.97288e-08
-6.80727e-07
4.80122e-08
-6.92403e-07
4.63093e-08
-7.03658e-07
4.46239e-08
-7.14496e-07
4.29591e-08
-7.24923e-07
4.13177e-08
-7.34944e-07
3.97019e-08
-7.44567e-07
3.81137e-08
-7.53797e-07
3.65546e-08
-7.62642e-07
3.50256e-08
-7.7111e-07
3.35276e-08
-7.79207e-07
3.20611e-08
-7.86942e-07
3.06261e-08
-7.94322e-07
2.92226e-08
-8.01355e-07
2.78502e-08
-8.08047e-07
2.65082e-08
-8.14406e-07
2.51958e-08
-8.20439e-07
2.39118e-08
-8.26152e-07
2.26549e-08
-8.31552e-07
2.14237e-08
-8.36643e-07
2.02165e-08
-8.41433e-07
1.90314e-08
-8.45925e-07
1.78665e-08
-8.50123e-07
1.67197e-08
-8.54033e-07
1.55887e-08
-8.57656e-07
1.44712e-08
-8.60996e-07
1.33647e-08
-8.64054e-07
1.22667e-08
-8.66833e-07
1.11745e-08
-8.69332e-07
1.00855e-08
-8.71552e-07
8.99685e-09
-8.73492e-07
7.90574e-09
-8.75151e-07
6.8093e-09
-8.76527e-07
5.70462e-09
-8.77616e-07
4.58879e-09
-8.78417e-07
3.45884e-09
-8.78924e-07
2.31183e-09
-8.79132e-07
1.14482e-09
-8.79036e-07
-4.5115e-11
-8.7863e-07
-1.26087e-09
-8.77907e-07
-2.50529e-09
-8.76859e-07
-3.78117e-09
-8.75477e-07
-5.09123e-09
-8.73754e-07
-6.43808e-09
-8.71678e-07
-7.82427e-09
-8.69241e-07
-9.25217e-09
-8.66431e-07
-1.07241e-08
-8.63238e-07
-1.2242e-08
-8.5965e-07
-1.3808e-08
-8.55655e-07
-1.54236e-08
-8.5124e-07
-1.70905e-08
-8.46393e-07
-1.88097e-08
-8.41102e-07
-2.05822e-08
-8.35353e-07
-2.24087e-08
-8.29133e-07
-2.42895e-08
-8.2243e-07
-2.62245e-08
-8.15231e-07
-2.82132e-08
-8.07523e-07
-3.02548e-08
-7.99294e-07
-3.23479e-08
-7.90533e-07
-3.44907e-08
-7.81228e-07
-3.66809e-08
-7.71369e-07
-3.89154e-08
-7.60947e-07
-4.11909e-08
-7.49953e-07
-4.35033e-08
-7.38379e-07
-4.58479e-08
-7.26221e-07
-4.82191e-08
-7.13474e-07
-5.06109e-08
-7.00134e-07
-5.30166e-08
-6.86202e-07
-5.54284e-08
-6.71677e-07
-5.78382e-08
-6.56565e-07
-6.02368e-08
-6.4087e-07
-6.26143e-08
-6.24601e-07
-6.496e-08
-6.07769e-07
-6.72625e-08
-5.90388e-07
-6.95096e-08
-5.72477e-07
-7.16882e-08
-5.54055e-07
-7.37845e-08
-5.35146e-07
-7.57842e-08
-5.15778e-07
-7.7672e-08
-4.95983e-07
-7.94321e-08
-4.75797e-07
-8.10482e-08
-4.55258e-07
-8.25033e-08
-4.34411e-07
-8.378e-08
-4.13303e-07
-8.48607e-08
-3.91986e-07
-8.57273e-08
-3.70517e-07
-8.63618e-08
-3.48955e-07
-8.67459e-08
-3.27366e-07
-8.68617e-08
-3.05817e-07
-8.66914e-08
-2.84382e-07
-8.62178e-08
-2.63137e-07
-8.54243e-08
-2.4216e-07
-8.4295e-08
-2.21536e-07
-8.28157e-08
-2.01348e-07
-8.09731e-08
-1.81684e-07
-7.87563e-08
-1.62634e-07
-7.61563e-08
-1.44286e-07
-7.3167e-08
-1.26729e-07
-6.9786e-08
-1.10053e-07
-6.60148e-08
-9.43424e-08
-6.18605e-08
-7.96792e-08
-5.73363e-08
-6.61395e-08
-5.24636e-08
-5.37916e-08
-4.72737e-08
-4.26939e-08
-4.18103e-08
-3.28922e-08
-3.61327e-08
-2.44166e-08
-3.03199e-08
-1.72787e-08
-2.44754e-08
-1.14675e-08
-1.87338e-08
-6.94707e-09
-1.32686e-08
-3.65249e-09
-8.30212e-09
-1.48783e-09
-4.11518e-09
-3.24338e-10
-1.06006e-09
3.92979e-10
-4.29746e-10
1.96616e-12
-1.83529e-09
2.13532e-09
-4.32123e-09
5.81588e-09
-7.97269e-09
1.0602e-08
-1.28527e-08
1.61547e-08
-1.90018e-08
2.21983e-08
-2.64392e-08
2.8511e-08
-3.5164e-08
3.49164e-08
-4.5158e-08
4.1276e-08
-5.63876e-08
4.7482e-08
-6.88062e-08
5.34514e-08
-8.23568e-08
5.9122e-08
-9.69739e-08
6.44477e-08
-1.12586e-07
6.93962e-08
-1.29115e-07
7.39461e-08
-1.46483e-07
7.80845e-08
-1.64608e-07
8.1806e-08
-1.83407e-07
8.51109e-08
-2.02798e-07
8.8004e-08
-2.227e-07
9.04939e-08
-2.43034e-07
9.25923e-08
-2.63723e-07
9.4313e-08
-2.84693e-07
9.56718e-08
-3.05872e-07
9.66859e-08
-3.27194e-07
9.73732e-08
-3.48592e-07
9.77525e-08
-3.70008e-07
9.78431e-08
-3.91383e-07
9.76642e-08
-4.12666e-07
9.72353e-08
-4.33808e-07
9.65756e-08
-4.54762e-07
9.57038e-08
-4.75488e-07
9.46385e-08
-4.95948e-07
9.33977e-08
-5.16107e-07
9.19987e-08
-5.35936e-07
9.04583e-08
-5.55406e-07
8.87923e-08
-5.74494e-07
8.70162e-08
-5.93179e-07
8.51444e-08
-6.11442e-07
8.31906e-08
-6.29268e-07
8.11677e-08
-6.46644e-07
7.90877e-08
-6.6356e-07
7.6962e-08
-6.80008e-07
7.48011e-08
-6.95981e-07
7.26145e-08
-7.11475e-07
7.04113e-08
-7.26489e-07