/*--------------------------------*- C++ -*----------------------------------*\
  =========                 |
  \\      /  F ield         | OpenFOAM: The Open Source CFD Toolbox
   \\    /   O peration     | Website:  https://openfoam.org
    \\  /    A nd           | Version:  7
     \\/     M anipulation  |
\*---------------------------------------------------------------------------*/
FoamFile
{
    version     2.0;
    format      ascii;
    class       volVectorField;
    location    "0.4125";
    object      U;
}
// * * * * * * * * * * * * * * * * * * * * * * * * * * * * * * * * * * * * * //

dimensions      [0 1 -1 0 0 0 0];

internalField   nonuniform List<vector> 
12800
(
(8.33297e-06 -8.31597e-06 0)
(3.71024e-05 -1.85325e-05 0)
(7.85534e-05 -1.97126e-05 0)
(0.000113273 -1.53566e-05 0)
(0.000130021 -8.314e-06 0)
(0.000123909 -1.39871e-07 0)
(9.27959e-05 8.34399e-06 0)
(3.60662e-05 1.66968e-05 0)
(-4.59247e-05 2.46861e-05 0)
(-0.000152231 3.21929e-05 0)
(-0.000281552 3.91584e-05 0)
(-0.00043238 4.55568e-05 0)
(-0.000603092 5.13823e-05 0)
(-0.000792012 5.66413e-05 0)
(-0.000997448 6.13481e-05 0)
(-0.00121773 6.55218e-05 0)
(-0.0014512 6.91843e-05 0)
(-0.00169628 7.23588e-05 0)
(-0.00195142 7.50697e-05 0)
(-0.00221517 7.73424e-05 0)
(-0.00248612 7.92028e-05 0)
(-0.00276294 8.06764e-05 0)
(-0.00304438 8.17886e-05 0)
(-0.00332928 8.2564e-05 0)
(-0.00361653 8.30269e-05 0)
(-0.00390511 8.32013e-05 0)
(-0.00419407 8.31102e-05 0)
(-0.00448254 8.2776e-05 0)
(-0.00476971 8.22199e-05 0)
(-0.00505485 8.14626e-05 0)
(-0.00533729 8.05237e-05 0)
(-0.00561642 7.94221e-05 0)
(-0.00589171 7.81757e-05 0)
(-0.00616267 7.68013e-05 0)
(-0.00642886 7.53149e-05 0)
(-0.00668992 7.37316e-05 0)
(-0.00694551 7.20654e-05 0)
(-0.00719535 7.03296e-05 0)
(-0.00743922 6.85364e-05 0)
(-0.00767691 6.66973e-05 0)
(-0.00790827 6.48228e-05 0)
(-0.00813318 6.29227e-05 0)
(-0.00835154 6.10058e-05 0)
(-0.0085633 5.90803e-05 0)
(-0.00876842 5.71536e-05 0)
(-0.0089669 5.52324e-05 0)
(-0.00915876 5.33226e-05 0)
(-0.00934403 5.14296e-05 0)
(-0.00952276 4.9558e-05 0)
(-0.00969502 4.7712e-05 0)
(-0.0098609 4.58951e-05 0)
(-0.0100205 4.41103e-05 0)
(-0.0101739 4.23601e-05 0)
(-0.0103212 4.06465e-05 0)
(-0.0104626 3.89713e-05 0)
(-0.0105982 3.73355e-05 0)
(-0.0107281 3.57399e-05 0)
(-0.0108524 3.41849e-05 0)
(-0.0109713 3.26706e-05 0)
(-0.0110849 3.11968e-05 0)
(-0.0111933 2.9763e-05 0)
(-0.0112967 2.83685e-05 0)
(-0.0113952 2.70119e-05 0)
(-0.011489 2.56921e-05 0)
(-0.0115781 2.44074e-05 0)
(-0.0116626 2.31564e-05 0)
(-0.0117427 2.19371e-05 0)
(-0.0118185 2.07473e-05 0)
(-0.0118901 1.95848e-05 0)
(-0.0119575 1.84469e-05 0)
(-0.0120209 1.73313e-05 0)
(-0.0120803 1.62354e-05 0)
(-0.0121357 1.51564e-05 0)
(-0.0121873 1.40913e-05 0)
(-0.012235 1.3037e-05 0)
(-0.0122789 1.19904e-05 0)
(-0.012319 1.09485e-05 0)
(-0.0123554 9.90809e-06 0)
(-0.0123879 8.86582e-06 0)
(-0.0124167 7.81824e-06 0)
(-0.0124416 6.7618e-06 0)
(-0.0124627 5.69306e-06 0)
(-0.0124799 4.60863e-06 0)
(-0.0124931 3.50511e-06 0)
(-0.0125023 2.37898e-06 0)
(-0.0125074 1.22665e-06 0)
(-0.0125082 4.45586e-08 0)
(-0.0125047 -1.17078e-06 0)
(-0.0124968 -2.42274e-06 0)
(-0.0124842 -3.71466e-06 0)
(-0.012467 -5.04984e-06 0)
(-0.0124449 -6.43154e-06 0)
(-0.0124178 -7.86289e-06 0)
(-0.0123854 -9.34683e-06 0)
(-0.0123477 -1.08862e-05 0)
(-0.0123043 -1.24835e-05 0)
(-0.0122552 -1.41413e-05 0)
(-0.0122001 -1.58618e-05 0)
(-0.0121388 -1.7647e-05 0)
(-0.0120711 -1.94986e-05 0)
(-0.0119967 -2.14179e-05 0)
(-0.0119154 -2.34058e-05 0)
(-0.011827 -2.54629e-05 0)
(-0.0117313 -2.75894e-05 0)
(-0.0116281 -2.97851e-05 0)
(-0.011517 -3.20492e-05 0)
(-0.0113979 -3.43802e-05 0)
(-0.0112706 -3.67763e-05 0)
(-0.0111349 -3.92348e-05 0)
(-0.0109905 -4.17525e-05 0)
(-0.0108373 -4.43254e-05 0)
(-0.0106751 -4.69487e-05 0)
(-0.0105038 -4.96171e-05 0)
(-0.0103233 -5.2324e-05 0)
(-0.0101334 -5.50622e-05 0)
(-0.00993402 -5.78235e-05 0)
(-0.00972519 -6.05988e-05 0)
(-0.00950686 -6.3378e-05 0)
(-0.00927907 -6.61499e-05 0)
(-0.00904188 -6.89026e-05 0)
(-0.00879539 -7.16227e-05 0)
(-0.00853976 -7.4296e-05 0)
(-0.0082752 -7.69074e-05 0)
(-0.00800197 -7.94405e-05 0)
(-0.00772038 -8.18779e-05 0)
(-0.00743081 -8.42013e-05 0)
(-0.00713371 -8.63913e-05 0)
(-0.00682957 -8.84278e-05 0)
(-0.00651899 -9.02895e-05 0)
(-0.0062026 -9.19544e-05 0)
(-0.00588114 -9.33996e-05 0)
(-0.0055554 -9.46015e-05 0)
(-0.00522626 -9.55361e-05 0)
(-0.0048947 -9.61786e-05 0)
(-0.00456173 -9.65038e-05 0)
(-0.0042285 -9.64861e-05 0)
(-0.00389621 -9.60996e-05 0)
(-0.00356615 -9.53183e-05 0)
(-0.00323969 -9.41161e-05 0)
(-0.00291828 -9.24671e-05 0)
(-0.00260344 -9.03455e-05 0)
(-0.0022968 -8.77257e-05 0)
(-0.00200001 -8.45829e-05 0)
(-0.00171484 -8.0893e-05 0)
(-0.00144307 -7.66332e-05 0)
(-0.00118656 -7.17817e-05 0)
(-0.000947217 -6.63193e-05 0)
(-0.000726948 -6.02295e-05 0)
(-0.000527677 -5.3501e-05 0)
(-0.000351298 -4.61299e-05 0)
(-0.000199634 -3.81243e-05 0)
(-7.43766e-05 -2.95126e-05 0)
(2.30162e-05 -2.03585e-05 0)
(9.14711e-05 -1.07909e-05 0)
(0.000130559 -1.0601e-06 0)
(0.000140912 8.35482e-06 0)
(0.000124846 1.65504e-05 0)
(8.77253e-05 2.17939e-05 0)
(4.20462e-05 2.08639e-05 0)
(9.63393e-06 9.63323e-06 0)
(1.85605e-05 -3.70801e-05 0)
(7.03755e-05 -7.0296e-05 0)
(0.000132087 -6.77627e-05 0)
(0.000170205 -4.20979e-05 0)
(0.00016344 -3.16189e-06 0)
(0.000100356 4.27121e-05 0)
(-2.53131e-05 9.15536e-05 0)
(-0.000216303 0.000140878 0)
(-0.000472824 0.00018914 0)
(-0.000793373 0.000235378 0)
(-0.00117531 0.000279003 0)
(-0.00161524 0.00031966 0)
(-0.00210929 0.00035715 0)
(-0.00265331 0.000391384 0)
(-0.00324299 0.000422345 0)
(-0.00387397 0.000450067 0)
(-0.00454191 0.000474625 0)
(-0.00524257 0.000496113 0)
(-0.00597178 0.000514649 0)
(-0.00672554 0.00053036 0)
(-0.00750001 0.000543384 0)
(-0.00829152 0.000553866 0)
(-0.0090966 0.000561952 0)
(-0.00991196 0.000567791 0)
(-0.0107345 0.000571529 0)
(-0.0115614 0.000573315 0)
(-0.0123899 0.000573294 0)
(-0.0132175 0.000571606 0)
(-0.014042 0.000568389 0)
(-0.0148612 0.000563778 0)
(-0.0156732 0.000557899 0)
(-0.0164762 0.000550878 0)
(-0.0172687 0.000542832 0)
(-0.0180493 0.000533874 0)
(-0.0188167 0.000524112 0)
(-0.0195698 0.000513647 0)
(-0.0203077 0.000502575 0)
(-0.0210294 0.000490985 0)
(-0.0217343 0.000478962 0)
(-0.0224218 0.000466585 0)
(-0.0230914 0.000453925 0)
(-0.0237428 0.000441051 0)
(-0.0243755 0.000428025 0)
(-0.0249895 0.000414903 0)
(-0.0255846 0.000401738 0)
(-0.0261607 0.000388577 0)
(-0.026718 0.000375462 0)
(-0.0272563 0.000362431 0)
(-0.0277759 0.000349519 0)
(-0.028277 0.000336755 0)
(-0.0287597 0.000324164 0)
(-0.0292243 0.000311769 0)
(-0.0296711 0.000299589 0)
(-0.0301004 0.000287639 0)
(-0.0305125 0.000275931 0)
(-0.0309077 0.000264475 0)
(-0.0312865 0.000253278 0)
(-0.0316491 0.000242344 0)
(-0.0319959 0.000231674 0)
(-0.0323274 0.000221268 0)
(-0.0326438 0.000211123 0)
(-0.0329456 0.000201236 0)
(-0.0332331 0.000191599 0)
(-0.0335067 0.000182204 0)
(-0.0337666 0.000173041 0)
(-0.0340132 0.0001641 0)
(-0.0342469 0.000155368 0)
(-0.0344678 0.000146832 0)
(-0.0346763 0.000138476 0)
(-0.0348726 0.000130284 0)
(-0.035057 0.000122239 0)
(-0.0352295 0.000114324 0)
(-0.0353905 0.000106519 0)
(-0.0355399 9.88057e-05 0)
(-0.0356781 9.11631e-05 0)
(-0.0358049 8.35702e-05 0)
(-0.0359205 7.60057e-05 0)
(-0.036025 6.8448e-05 0)
(-0.0361182 6.08748e-05 0)
(-0.0362002 5.32634e-05 0)
(-0.0362709 4.55902e-05 0)
(-0.0363302 3.7832e-05 0)
(-0.0363779 2.99654e-05 0)
(-0.0364139 2.1967e-05 0)
(-0.0364379 1.38135e-05 0)
(-0.0364498 5.48123e-06 0)
(-0.0364492 -3.05334e-06 0)
(-0.0364358 -1.18134e-05 0)
(-0.0364094 -2.08217e-05 0)
(-0.0363695 -3.01003e-05 0)
(-0.0363157 -3.9671e-05 0)
(-0.0362476 -4.95549e-05 0)
(-0.0361647 -5.97723e-05 0)
(-0.0360666 -7.03424e-05 0)
(-0.0359528 -8.12834e-05 0)
(-0.0358226 -9.26118e-05 0)
(-0.0356755 -0.000104343 0)
(-0.0355111 -0.000116491 0)
(-0.0353285 -0.000129068 0)
(-0.0351274 -0.000142083 0)
(-0.0349069 -0.000155544 0)
(-0.0346665 -0.000169456 0)
(-0.0344056 -0.000183821 0)
(-0.0341235 -0.000198639 0)
(-0.0338196 -0.000213905 0)
(-0.0334932 -0.000229612 0)
(-0.0331438 -0.00024575 0)
(-0.0327707 -0.000262302 0)
(-0.0323735 -0.000279249 0)
(-0.0319516 -0.000296566 0)
(-0.0315044 -0.000314226 0)
(-0.0310316 -0.000332193 0)
(-0.0305328 -0.000350428 0)
(-0.0300076 -0.000368886 0)
(-0.0294558 -0.000387516 0)
(-0.0288772 -0.00040626 0)
(-0.0282717 -0.000425055 0)
(-0.0276393 -0.000443831 0)
(-0.0269802 -0.000462512 0)
(-0.0262945 -0.000481014 0)
(-0.0255827 -0.000499249 0)
(-0.0248452 -0.000517118 0)
(-0.0240826 -0.000534519 0)
(-0.0232957 -0.000551342 0)
(-0.0224855 -0.000567471 0)
(-0.021653 -0.000582781 0)
(-0.0207996 -0.000597145 0)
(-0.0199268 -0.000610427 0)
(-0.0190361 -0.000622488 0)
(-0.0181295 -0.000633183 0)
(-0.0172091 -0.000642361 0)
(-0.0162772 -0.000649869 0)
(-0.0153362 -0.000655551 0)
(-0.0143889 -0.000659247 0)
(-0.0134382 -0.000660796 0)
(-0.0124874 -0.000660037 0)
(-0.0115398 -0.000656807 0)
(-0.010599 -0.000650945 0)
(-0.00966891 -0.000642295 0)
(-0.00875351 -0.0006307 0)
(-0.00785707 -0.000616013 0)
(-0.006984 -0.000598091 0)
(-0.00613892 -0.000576803 0)
(-0.00532656 -0.000552028 0)
(-0.0045518 -0.000523665 0)
(-0.00381961 -0.000491632 0)
(-0.003135 -0.000455878 0)
(-0.00250296 -0.000416391 0)
(-0.00192841 -0.000373212 0)
(-0.00141606 -0.000326464 0)
(-0.000970274 -0.000276378 0)
(-0.000594872 -0.000223354 0)
(-0.000292838 -0.000168048 0)
(-6.58886e-05 -0.000111513 0)
(8.61521e-05 -5.54468e-05 0)
(0.000166255 -2.58118e-06 0)
(0.000181306 4.26809e-05 0)
(0.000143974 7.32491e-05 0)
(7.79802e-05 7.79489e-05 0)
(2.08629e-05 4.20346e-05 0)
(1.98111e-05 -7.86331e-05 0)
(6.81278e-05 -0.000132104 0)
(0.000111237 -0.000110686 0)
(0.000110442 -3.94741e-05 0)
(4.04792e-05 6.29514e-05 0)
(-0.000113515 0.000183371 0)
(-0.00036044 0.000312641 0)
(-0.000704694 0.000444548 0)
(-0.00114722 0.000574913 0)
(-0.00168646 0.00070094 0)
(-0.00231907 0.000820781 0)
(-0.00304047 0.000933241 0)
(-0.00384524 0.00103758 0)
(-0.00472737 0.00113339 0)
(-0.00568057 0.00122047 0)
(-0.00669835 0.0012988 0)
(-0.00777418 0.00136851 0)
(-0.00890158 0.00142977 0)
(-0.0100742 0.00148286 0)
(-0.0112859 0.00152808 0)
(-0.0125307 0.00156577 0)
(-0.0138028 0.00159632 0)
(-0.0150969 0.00162009 0)
(-0.0164078 0.00163749 0)
(-0.0177306 0.00164891 0)
(-0.0190607 0.00165477 0)
(-0.0203939 0.00165544 0)
(-0.0217261 0.00165133 0)
(-0.0230539 0.00164282 0)
(-0.0243736 0.00163027 0)
(-0.0256824 0.00161406 0)
(-0.0269773 0.00159453 0)
(-0.0282557 0.00157201 0)
(-0.0295155 0.00154682 0)
(-0.0307546 0.00151928 0)
(-0.031971 0.00148966 0)
(-0.0331634 0.00145824 0)
(-0.0343302 0.00142529 0)
(-0.0354704 0.00139103 0)
(-0.0365828 0.0013557 0)
(-0.0376668 0.00131951 0)
(-0.0387216 0.00128265 0)
(-0.0397467 0.0012453 0)
(-0.0407419 0.00120764 0)
(-0.0417068 0.00116979 0)
(-0.0426413 0.00113192 0)
(-0.0435454 0.00109414 0)
(-0.0444193 0.00105656 0)
(-0.045263 0.00101927 0)
(-0.0460769 0.000982383 0)
(-0.0468612 0.000945957 0)
(-0.0476163 0.000910062 0)
(-0.0483426 0.000874754 0)
(-0.0490406 0.00084008 0)
(-0.0497109 0.000806076 0)
(-0.0503538 0.000772772 0)
(-0.0509701 0.00074019 0)
(-0.0515602 0.000708342 0)
(-0.0521247 0.000677236 0)
(-0.0526642 0.00064687 0)
(-0.0531793 0.00061724 0)
(-0.0536705 0.000588333 0)
(-0.0541384 0.000560132 0)
(-0.0545836 0.000532615 0)
(-0.0550066 0.000505755 0)
(-0.0554079 0.000479521 0)
(-0.0557879 0.000453877 0)
(-0.0561472 0.000428786 0)
(-0.056486 0.000404206 0)
(-0.0568049 0.00038009 0)
(-0.0571042 0.00035639 0)
(-0.0573841 0.000333055 0)
(-0.057645 0.000310032 0)
(-0.0578871 0.000287266 0)
(-0.0581104 0.000264699 0)
(-0.0583153 0.00024227 0)
(-0.0585017 0.00021992 0)
(-0.0586697 0.000197585 0)
(-0.0588192 0.000175201 0)
(-0.0589503 0.000152704 0)
(-0.0590628 0.000130029 0)
(-0.0591564 0.000107108 0)
(-0.0592311 8.3874e-05 0)
(-0.0592865 6.02609e-05 0)
(-0.0593222 3.62014e-05 0)
(-0.059338 1.16288e-05 0)
(-0.0593333 -1.35233e-05 0)
(-0.0593077 -3.93204e-05 0)
(-0.0592607 -6.58272e-05 0)
(-0.0591916 -9.31066e-05 0)
(-0.0590998 -0.00012122 0)
(-0.0589846 -0.000150226 0)
(-0.0588454 -0.000180182 0)
(-0.0586812 -0.000211142 0)
(-0.0584914 -0.000243156 0)
(-0.058275 -0.00027627 0)
(-0.0580312 -0.000310528 0)
(-0.057759 -0.000345966 0)
(-0.0574576 -0.000382617 0)
(-0.0571259 -0.000420506 0)
(-0.0567629 -0.000459653 0)
(-0.0563678 -0.000500071 0)
(-0.0559394 -0.000541763 0)
(-0.0554768 -0.000584725 0)
(-0.054979 -0.000628942 0)
(-0.054445 -0.000674392 0)
(-0.0538739 -0.000721039 0)
(-0.0532649 -0.000768836 0)
(-0.0526169 -0.000817725 0)
(-0.0519292 -0.000867634 0)
(-0.0512011 -0.000918476 0)
(-0.050432 -0.000970152 0)
(-0.0496211 -0.00102254 0)
(-0.0487681 -0.00107552 0)
(-0.0478725 -0.00112894 0)
(-0.0469342 -0.00118262 0)
(-0.0459531 -0.0012364 0)
(-0.0449291 -0.00129006 0)
(-0.0438626 -0.00134338 0)
(-0.0427538 -0.00139613 0)
(-0.0416036 -0.00144805 0)
(-0.0404126 -0.00149886 0)
(-0.0391819 -0.00154827 0)
(-0.0379128 -0.00159597 0)
(-0.0366069 -0.00164161 0)
(-0.0352659 -0.00168486 0)
(-0.033892 -0.00172534 0)
(-0.0324875 -0.00176268 0)
(-0.0310551 -0.00179648 0)
(-0.029598 -0.00182633 0)
(-0.0281193 -0.0018518 0)
(-0.0266227 -0.00187248 0)
(-0.0251124 -0.00188792 0)
(-0.0235925 -0.00189767 0)
(-0.0220678 -0.0019013 0)
(-0.0205434 -0.00189835 0)
(-0.0190246 -0.00188838 0)
(-0.017517 -0.00187095 0)
(-0.0160268 -0.00184564 0)
(-0.0145603 -0.00181204 0)
(-0.013124 -0.00176975 0)
(-0.0117249 -0.00171842 0)
(-0.0103701 -0.00165771 0)
(-0.00906691 -0.00158735 0)
(-0.00782281 -0.00150712 0)
(-0.00664534 -0.00141687 0)
(-0.00554206 -0.00131655 0)
(-0.00452042 -0.00120626 0)
(-0.00358763 -0.00108628 0)
(-0.00275049 -0.000957105 0)
(-0.00201515 -0.000819614 0)
(-0.00138677 -0.000675158 0)
(-0.000869135 -0.000525794 0)
(-0.000464031 -0.000374612 0)
(-0.00017046 -0.000226225 0)
(1.64105e-05 -8.75076e-05 0)
(0.000106423 3.13583e-05 0)
(0.000116099 0.000115548 0)
(7.35502e-05 0.000144011 0)
(2.1848e-05 8.77565e-05 0)
(1.55843e-05 -0.000113677 0)
(4.29381e-05 -0.000170693 0)
(4.09176e-05 -0.000110098 0)
(-2.80926e-05 2.97079e-05 0)
(-0.000189792 0.000221183 0)
(-0.000460373 0.000443889 0)
(-0.000849911 0.000682959 0)
(-0.00136364 0.0009278 0)
(-0.00200293 0.00117094 0)
(-0.00276618 0.00140715 0)
(-0.00364963 0.00163282 0)
(-0.00464785 0.00184552 0)
(-0.00575429 0.00204364 0)
(-0.00696159 0.00222622 0)
(-0.00826188 0.00239274 0)
(-0.009647 0.00254302 0)
(-0.0111086 0.00267714 0)
(-0.0126385 0.00279538 0)
(-0.0142283 0.00289815 0)
(-0.0158702 0.00298597 0)
(-0.0175562 0.00305943 0)
(-0.019279 0.0031192 0)
(-0.0210313 0.00316598 0)
(-0.0228064 0.00320048 0)
(-0.0245977 0.00322346 0)
(-0.0263992 0.00323565 0)
(-0.0282053 0.0032378 0)
(-0.0300105 0.00323065 0)
(-0.0318101 0.00321493 0)
(-0.0335993 0.00319135 0)
(-0.0353742 0.00316059 0)
(-0.0371308 0.00312332 0)
(-0.0388657 0.00308019 0)
(-0.0405758 0.00303181 0)
(-0.0422584 0.00297877 0)
(-0.0439109 0.00292163 0)
(-0.0455311 0.00286093 0)
(-0.0471172 0.00279715 0)
(-0.0486676 0.00273077 0)
(-0.0501809 0.00266223 0)
(-0.0516558 0.00259195 0)
(-0.0530916 0.00252029 0)
(-0.0544875 0.00244762 0)
(-0.0558429 0.00237426 0)
(-0.0571576 0.0023005 0)
(-0.0584313 0.00222662 0)
(-0.0596639 0.00215286 0)
(-0.0608556 0.00207943 0)
(-0.0620065 0.00200654 0)
(-0.0631169 0.00193436 0)
(-0.0641873 0.00186304 0)
(-0.0652181 0.00179271 0)
(-0.0662098 0.00172348 0)
(-0.0671631 0.00165545 0)
(-0.0680786 0.00158869 0)
(-0.068957 0.00152327 0)
(-0.0697989 0.00145921 0)
(-0.0706053 0.00139656 0)
(-0.0713767 0.00133533 0)
(-0.072114 0.00127552 0)
(-0.072818 0.00121711 0)
(-0.0734893 0.0011601 0)
(-0.0741288 0.00110444 0)
(-0.0747371 0.0010501 0)
(-0.075315 0.000997016 0)
(-0.0758631 0.000945141 0)
(-0.0763821 0.000894404 0)
(-0.0768725 0.000844729 0)
(-0.077335 0.000796037 0)
(-0.07777 0.000748239 0)
(-0.0781779 0.000701243 0)
(-0.0785593 0.00065495 0)
(-0.0789144 0.000609256 0)
(-0.0792435 0.000564054 0)
(-0.0795469 0.000519232 0)
(-0.0798247 0.000474676 0)
(-0.0800772 0.000430266 0)
(-0.0803042 0.000385881 0)
(-0.0805058 0.000341398 0)
(-0.0806819 0.000296691 0)
(-0.0808323 0.000251633 0)
(-0.0809568 0.000206094 0)
(-0.081055 0.000159947 0)
(-0.0811267 0.000113061 0)
(-0.0811714 6.53053e-05 0)
(-0.0811886 1.65523e-05 0)
(-0.0811776 -3.33261e-05 0)
(-0.0811378 -8.44564e-05 0)
(-0.0810685 -0.000136963 0)
(-0.080969 -0.000190967 0)
(-0.0808383 -0.000246586 0)
(-0.0806755 -0.000303933 0)
(-0.0804798 -0.000363118 0)
(-0.0802499 -0.000424242 0)
(-0.0799849 -0.000487402 0)
(-0.0796837 -0.000552687 0)
(-0.0793449 -0.000620176 0)
(-0.0789675 -0.00068994 0)
(-0.0785502 -0.000762038 0)
(-0.0780917 -0.000836518 0)
(-0.0775906 -0.000913415 0)
(-0.0770458 -0.000992749 0)
(-0.0764558 -0.00107452 0)
(-0.0758194 -0.00115873 0)
(-0.0751352 -0.00124534 0)
(-0.0744021 -0.00133429 0)
(-0.0736187 -0.00142553 0)
(-0.0727839 -0.00151894 0)
(-0.0718966 -0.00161443 0)
(-0.0709556 -0.00171183 0)
(-0.0699601 -0.00181099 0)
(-0.0689092 -0.00191171 0)
(-0.0678022 -0.00201375 0)
(-0.0666384 -0.00211685 0)
(-0.0654174 -0.00222073 0)
(-0.064139 -0.00232506 0)
(-0.062803 -0.00242948 0)
(-0.0614097 -0.00253359 0)
(-0.0599592 -0.00263698 0)
(-0.0584524 -0.00273917 0)
(-0.0568899 -0.00283967 0)
(-0.055273 -0.00293793 0)
(-0.053603 -0.00303339 0)
(-0.0518819 -0.00312543 0)
(-0.0501117 -0.00321343 0)
(-0.0482949 -0.00329669 0)
(-0.0464343 -0.00337453 0)
(-0.0445331 -0.00344619 0)
(-0.0425951 -0.00351093 0)
(-0.0406243 -0.00356796 0)
(-0.0386251 -0.00361648 0)
(-0.0366025 -0.00365565 0)
(-0.0345618 -0.00368465 0)
(-0.0325089 -0.00370263 0)
(-0.0304501 -0.00370875 0)
(-0.0283919 -0.00370217 0)
(-0.0263416 -0.00368205 0)
(-0.0243066 -0.00364758 0)
(-0.0222951 -0.00359797 0)
(-0.0203152 -0.00353246 0)
(-0.0183758 -0.00345035 0)
(-0.0164858 -0.00335101 0)
(-0.0146545 -0.00323386 0)
(-0.0128915 -0.00309845 0)
(-0.0112064 -0.00294444 0)
(-0.00960879 -0.00277167 0)
(-0.00810842 -0.00258018 0)
(-0.00671465 -0.00237031 0)
(-0.00543649 -0.00214275 0)
(-0.00428231 -0.00189868 0)
(-0.00325956 -0.00163997 0)
(-0.00237432 -0.00136937 0)
(-0.00163089 -0.00109092 0)
(-0.00103107 -0.000810428 0)
(-0.000573376 -0.000536163 0)
(-0.000252027 -0.00027988 0)
(-5.5842e-05 -5.81433e-05 0)
(3.31993e-05 0.000106145 0)
(4.35716e-05 0.000181876 0)
(1.67369e-05 0.000125148 0)
(8.69815e-06 -0.000131057 0)
(4.50169e-06 -0.000164838 0)
(-6.07275e-05 -4.07248e-05 0)
(-0.00021871 0.000191239 0)
(-0.000492947 0.000495202 0)
(-0.000899422 0.00084391 0)
(-0.0014482 0.00121691 0)
(-0.00214454 0.00159911 0)
(-0.00298976 0.00197954 0)
(-0.00398207 0.00235022 0)
(-0.00511724 0.00270549 0)
(-0.00638921 0.00304138 0)
(-0.00779053 0.00335519 0)
(-0.00931275 0.0036452 0)
(-0.0109468 0.00391041 0)
(-0.0126831 0.00415037 0)
(-0.0145118 0.00436505 0)
(-0.0164233 0.00455476 0)
(-0.0184077 0.00472003 0)
(-0.0204554 0.00486161 0)
(-0.0225571 0.00498037 0)
(-0.0247038 0.00507728 0)
(-0.0268868 0.00515342 0)
(-0.0290978 0.00520988 0)
(-0.031329 0.00524782 0)
(-0.0335729 0.0052684 0)
(-0.0358226 0.00527279 0)
(-0.0380715 0.00526214 0)
(-0.0403137 0.00523761 0)
(-0.0425435 0.00520033 0)
(-0.0447558 0.00515139 0)
(-0.0469458 0.00509186 0)
(-0.0491093 0.00502277 0)
(-0.0512424 0.00494511 0)
(-0.0533416 0.00485981 0)
(-0.0554039 0.00476779 0)
(-0.0574264 0.00466989 0)
(-0.0594069 0.00456693 0)
(-0.0613433 0.00445967 0)
(-0.0632338 0.00434881 0)
(-0.065077 0.00423503 0)
(-0.0668718 0.00411894 0)
(-0.0686171 0.00400112 0)
(-0.0703122 0.00388209 0)
(-0.0719568 0.00376233 0)
(-0.0735505 0.00364229 0)
(-0.0750933 0.00352238 0)
(-0.0765851 0.00340293 0)
(-0.0780262 0.00328429 0)
(-0.0794169 0.00316673 0)
(-0.0807577 0.00305051 0)
(-0.0820492 0.00293583 0)
(-0.0832919 0.00282289 0)
(-0.0844867 0.00271184 0)
(-0.0856342 0.00260281 0)
(-0.0867354 0.00249588 0)
(-0.087791 0.00239115 0)
(-0.088802 0.00228865 0)
(-0.0897694 0.00218841 0)
(-0.0906939 0.00209045 0)
(-0.0915766 0.00199474 0)
(-0.0924184 0.00190125 0)
(-0.0932202 0.00180994 0)
(-0.0939829 0.00172074 0)
(-0.0947072 0.00163356 0)
(-0.0953941 0.00154832 0)
(-0.0960443 0.00146491 0)
(-0.0966586 0.0013832 0)
(-0.0972376 0.00130307 0)
(-0.0977819 0.00122438 0)
(-0.0982921 0.00114697 0)
(-0.0987688 0.00107069 0)
(-0.0992123 0.000995371 0)
(-0.099623 0.000920841 0)
(-0.100001 0.000846918 0)
(-0.100347 0.000773418 0)
(-0.100661 0.000700149 0)
(-0.100942 0.000626915 0)
(-0.101192 0.000553516 0)
(-0.101409 0.00047975 0)
(-0.101594 0.000405411 0)
(-0.101745 0.000330292 0)
(-0.101864 0.000254186 0)
(-0.101949 0.000176882 0)
(-0.102001 9.81711e-05 0)
(-0.102017 1.78467e-05 0)
(-0.101998 -6.42974e-05 0)
(-0.101942 -0.000148464 0)
(-0.10185 -0.000234852 0)
(-0.101719 -0.000323657 0)
(-0.101549 -0.000415067 0)
(-0.101338 -0.000509263 0)
(-0.101087 -0.000606419 0)
(-0.100792 -0.000706698 0)
(-0.100453 -0.000810253 0)
(-0.100069 -0.000917224 0)
(-0.0996378 -0.00102774 0)
(-0.0991583 -0.0011419 0)
(-0.0986288 -0.00125982 0)
(-0.0980478 -0.00138155 0)
(-0.0974137 -0.00150715 0)
(-0.0967249 -0.00163665 0)
(-0.0959799 -0.00177006 0)
(-0.095177 -0.00190734 0)
(-0.0943146 -0.00204846 0)
(-0.0933913 -0.00219331 0)
(-0.0924055 -0.00234178 0)
(-0.0913559 -0.00249372 0)
(-0.090241 -0.00264892 0)
(-0.0890597 -0.00280716 0)
(-0.0878107 -0.00296815 0)
(-0.086493 -0.00313156 0)
(-0.0851059 -0.00329703 0)
(-0.0836486 -0.00346412 0)
(-0.0821206 -0.00363237 0)
(-0.0805216 -0.00380125 0)
(-0.0788516 -0.00397017 0)
(-0.0771107 -0.0041385 0)
(-0.0752996 -0.00430554 0)
(-0.0734188 -0.00447053 0)
(-0.0714697 -0.00463268 0)
(-0.0694536 -0.00479111 0)
(-0.0673723 -0.00494491 0)
(-0.0652282 -0.00509309 0)
(-0.0630238 -0.00523462 0)
(-0.0607622 -0.00536842 0)
(-0.0584471 -0.00549335 0)
(-0.0560823 -0.00560825 0)
(-0.0536725 -0.00571189 0)
(-0.0512226 -0.00580302 0)
(-0.0487381 -0.00588035 0)
(-0.0462252 -0.00594258 0)
(-0.0436904 -0.00598838 0)
(-0.0411409 -0.00601641 0)
(-0.0385842 -0.00602533 0)
(-0.0360286 -0.00601382 0)
(-0.0334828 -0.00598058 0)
(-0.030956 -0.00592434 0)
(-0.0284578 -0.00584387 0)
(-0.0259983 -0.00573802 0)
(-0.0235882 -0.00560573 0)
(-0.0212381 -0.00544605 0)
(-0.0189593 -0.00525816 0)
(-0.0167632 -0.00504142 0)
(-0.0146612 -0.00479544 0)
(-0.0126648 -0.00452009 0)
(-0.0107852 -0.00421561 0)
(-0.0090336 -0.0038827 0)
(-0.0074203 -0.00352266 0)
(-0.00595494 -0.0031376 0)
(-0.00464597 -0.00273063 0)
(-0.00350027 -0.00230628 0)
(-0.00252258 -0.00187089 0)
(-0.00171493 -0.00143334 0)
(-0.00107587 -0.00100581 0)
(-0.000599563 -0.000605062 0)
(-0.000274823 -0.000253864 0)
(-8.38754e-05 1.73104e-05 0)
(-8.45885e-07 0.000168139 0)
(8.74049e-06 0.000141888 0)
(6.68538e-07 -0.00012586 0)
(-4.10567e-05 -0.000102914 0)
(-0.000181025 0.000112713 0)
(-0.000441991 0.000461972 0)
(-0.000843359 0.000901897 0)
(-0.0013997 0.00139916 0)
(-0.00212012 0.00192813 0)
(-0.00300913 0.00246945 0)
(-0.00406754 0.00300858 0)
(-0.00529305 0.00353477 0)
(-0.0066809 0.00404012 0)
(-0.00822433 0.00451896 0)
(-0.00991512 0.00496734 0)
(-0.0117439 0.00538262 0)
(-0.0137005 0.00576319 0)
(-0.0157743 0.00610823 0)
(-0.0179543 0.00641753 0)
(-0.0202295 0.00669137 0)
(-0.0225886 0.0069304 0)
(-0.0250209 0.00713555 0)
(-0.0275156 0.00730797 0)
(-0.0300624 0.00744901 0)
(-0.0326513 0.00756009 0)
(-0.0352727 0.00764278 0)
(-0.0379175 0.00769865 0)
(-0.0405773 0.00772937 0)
(-0.0432437 0.00773656 0)
(-0.0459094 0.0077219 0)
(-0.0485671 0.007687 0)
(-0.0512103 0.0076335 0)
(-0.0538331 0.00756296 0)
(-0.0564299 0.00747692 0)
(-0.0589955 0.00737685 0)
(-0.0615256 0.0072642 0)
(-0.0640159 0.00714033 0)
(-0.0664628 0.00700653 0)
(-0.0688631 0.00686407 0)
(-0.0712139 0.0067141 0)
(-0.0735129 0.00655774 0)
(-0.0757578 0.00639602 0)
(-0.077947 0.00622993 0)
(-0.0800791 0.00606036 0)
(-0.0821528 0.00588815 0)
(-0.0841675 0.00571407 0)
(-0.0861223 0.00553884 0)
(-0.0880171 0.0053631 0)
(-0.0898516 0.00518744 0)
(-0.0916259 0.00501238 0)
(-0.0933402 0.00483841 0)
(-0.0949948 0.00466594 0)
(-0.0965903 0.00449535 0)
(-0.0981273 0.00432694 0)
(-0.0996065 0.00416101 0)
(-0.101029 0.00399777 0)
(-0.102395 0.00383741 0)
(-0.103706 0.00368008 0)
(-0.104963 0.0035259 0)
(-0.106167 0.00337494 0)
(-0.107319 0.00322724 0)
(-0.10842 0.00308282 0)
(-0.109471 0.00294165 0)
(-0.110473 0.00280369 0)
(-0.111428 0.00266888 0)
(-0.112336 0.00253712 0)
(-0.113198 0.0024083 0)
(-0.114015 0.00228227 0)
(-0.114789 0.00215889 0)
(-0.115519 0.00203799 0)
(-0.116208 0.00191936 0)
(-0.116854 0.00180282 0)
(-0.11746 0.00168814 0)
(-0.118026 0.00157509 0)
(-0.118552 0.00146344 0)
(-0.119039 0.00135292 0)
(-0.119486 0.00124328 0)
(-0.119895 0.00113425 0)
(-0.120266 0.00102555 0)
(-0.120597 0.000916887 0)
(-0.12089 0.000807983 0)
(-0.121145 0.000698538 0)
(-0.12136 0.000588255 0)
(-0.121536 0.000476831 0)
(-0.121673 0.000363964 0)
(-0.121769 0.000249351 0)
(-0.121824 0.000132689 0)
(-0.121838 1.36755e-05 0)
(-0.121809 -0.000107987 0)
(-0.121736 -0.000232592 0)
(-0.12162 -0.000360429 0)
(-0.121457 -0.000491778 0)
(-0.121248 -0.000626911 0)
(-0.120991 -0.000766091 0)
(-0.120684 -0.000909568 0)
(-0.120326 -0.00105758 0)
(-0.119915 -0.00121033 0)
(-0.119451 -0.00136804 0)
(-0.11893 -0.00153088 0)
(-0.118352 -0.00169901 0)
(-0.117715 -0.00187256 0)
(-0.117016 -0.00205162 0)
(-0.116255 -0.00223628 0)
(-0.115428 -0.00242657 0)
(-0.114535 -0.00262248 0)
(-0.113574 -0.00282398 0)
(-0.112542 -0.00303099 0)
(-0.111438 -0.00324337 0)
(-0.11026 -0.00346095 0)
(-0.109007 -0.00368348 0)
(-0.107677 -0.00391069 0)
(-0.106269 -0.00414221 0)
(-0.10478 -0.00437764 0)
(-0.103211 -0.00461649 0)
(-0.10156 -0.00485822 0)
(-0.0998268 -0.00510221 0)
(-0.0980102 -0.00534776 0)
(-0.0961101 -0.0055941 0)
(-0.0941266 -0.00584037 0)
(-0.0920599 -0.00608566 0)
(-0.0899107 -0.00632893 0)
(-0.08768 -0.00656911 0)
(-0.085369 -0.00680501 0)
(-0.0829796 -0.00703537 0)
(-0.0805139 -0.00725885 0)
(-0.0779746 -0.00747404 0)
(-0.0753648 -0.00767944 0)
(-0.0726883 -0.00787348 0)
(-0.069949 -0.00805452 0)
(-0.0671519 -0.00822087 0)
(-0.0643021 -0.00837077 0)
(-0.0614056 -0.00850241 0)
(-0.0584688 -0.00861393 0)
(-0.0554988 -0.00870348 0)
(-0.0525033 -0.00876913 0)
(-0.0494905 -0.00880898 0)
(-0.0464695 -0.00882113 0)
(-0.0434496 -0.0088037 0)
(-0.040441 -0.00875484 0)
(-0.0374543 -0.00867275 0)
(-0.0345007 -0.00855575 0)
(-0.0315917 -0.00840223 0)
(-0.0287396 -0.00821074 0)
(-0.0259567 -0.00797999 0)
(-0.0232558 -0.00770892 0)
(-0.0206498 -0.00739676 0)
(-0.0181517 -0.00704306 0)
(-0.0157746 -0.00664781 0)
(-0.0135311 -0.00621153 0)
(-0.0114336 -0.00573543 0)
(-0.00949363 -0.00522158 0)
(-0.00772194 -0.00467317 0)
(-0.00612786 -0.00409479 0)
(-0.00471899 -0.00349289 0)
(-0.0035007 -0.00287635 0)
(-0.00247555 -0.00225719 0)
(-0.00164265 -0.00165155 0)
(-0.000996955 -0.00108092 0)
(-0.00052836 -0.00057381 0)
(-0.00022068 -0.000167374 0)
(-5.2752e-05 9.02898e-05 0)
(-4.33572e-07 0.00013273 0)
(-7.72341e-06 -9.5797e-05 0)
(-8.99882e-05 2.18214e-05 0)
(-0.000311405 0.000359945 0)
(-0.000684136 0.000853184 0)
(-0.00122225 0.00145291 0)
(-0.00193799 0.00212067 0)
(-0.00283872 0.0028263 0)
(-0.00392761 0.00354649 0)
(-0.00520445 0.0042634 0)
(-0.00666614 0.0049635 0)
(-0.00830714 0.00563666 0)
(-0.01012 0.00627546 0)
(-0.0120956 0.0068746 0)
(-0.0142238 0.00743042 0)
(-0.0164936 0.00794063 0)
(-0.0188932 0.00840393 0)
(-0.0214106 0.0088199 0)
(-0.0240337 0.00918873 0)
(-0.0267502 0.00951114 0)
(-0.0295482 0.00978825 0)
(-0.0324156 0.0100215 0)
(-0.0353411 0.0102126 0)
(-0.0383135 0.0103633 0)
(-0.0413222 0.0104758 0)
(-0.0443569 0.010552 0)
(-0.047408 0.0105942 0)
(-0.0504665 0.0106045 0)
(-0.0535237 0.0105851 0)
(-0.0565717 0.0105382 0)
(-0.0596031 0.010466 0)
(-0.0626111 0.0103705 0)
(-0.0655894 0.0102539 0)
(-0.0685323 0.0101181 0)
(-0.0714345 0.00996507 0)
(-0.0742915 0.00979665 0)
(-0.077099 0.00961462 0)
(-0.0798533 0.00942065 0)
(-0.0825512 0.00921633 0)
(-0.08519 0.00900319 0)
(-0.0877671 0.00878262 0)
(-0.0902806 0.00855596 0)
(-0.0927289 0.00832443 0)
(-0.0951105 0.00808919 0)
(-0.0974246 0.00785128 0)
(-0.0996704 0.00761169 0)
(-0.101847 0.00737129 0)
(-0.103956 0.00713089 0)
(-0.105995 0.00689122 0)
(-0.107965 0.00665293 0)
(-0.109867 0.0064166 0)
(-0.111702 0.00618274 0)
(-0.113469 0.00595178 0)
(-0.11517 0.00572411 0)
(-0.116805 0.00550004 0)
(-0.118377 0.00527984 0)
(-0.119885 0.00506372 0)
(-0.12133 0.00485182 0)
(-0.122715 0.00464426 0)
(-0.12404 0.0044411 0)
(-0.125306 0.00424236 0)
(-0.126515 0.00404801 0)
(-0.127668 0.00385801 0)
(-0.128766 0.00367227 0)
(-0.129809 0.00349064 0)
(-0.130801 0.003313 0)
(-0.13174 0.00313914 0)
(-0.132629 0.00296886 0)
(-0.133468 0.00280193 0)
(-0.134258 0.0026381 0)
(-0.135 0.00247708 0)
(-0.135695 0.00231859 0)
(-0.136344 0.0021623 0)
(-0.136946 0.0020079 0)
(-0.137503 0.00185504 0)
(-0.138015 0.00170337 0)
(-0.138482 0.00155251 0)
(-0.138904 0.00140209 0)
(-0.139282 0.00125173 0)
(-0.139615 0.00110102 0)
(-0.139903 0.000949581 0)
(-0.140146 0.000796991 0)
(-0.140343 0.000642846 0)
(-0.140494 0.000486736 0)
(-0.140599 0.000328248 0)
(-0.140656 0.000166972 0)
(-0.140666 2.49902e-06 0)
(-0.140626 -0.000165574 0)
(-0.140536 -0.000337646 0)
(-0.140394 -0.000514106 0)
(-0.1402 -0.000695335 0)
(-0.139952 -0.000881699 0)
(-0.139649 -0.00107355 0)
(-0.139288 -0.00127123 0)
(-0.138869 -0.00147505 0)
(-0.138389 -0.00168531 0)
(-0.137847 -0.00190227 0)
(-0.137241 -0.00212617 0)
(-0.136569 -0.00235723 0)
(-0.135828 -0.00259561 0)
(-0.135018 -0.00284145 0)
(-0.134135 -0.00309484 0)
(-0.133178 -0.00335582 0)
(-0.132145 -0.0036244 0)
(-0.131033 -0.0039005 0)
(-0.129841 -0.004184 0)
(-0.128566 -0.00447473 0)
(-0.127208 -0.00477243 0)
(-0.125763 -0.00507677 0)
(-0.12423 -0.00538736 0)
(-0.122608 -0.00570371 0)
(-0.120895 -0.00602526 0)
(-0.11909 -0.00635134 0)
(-0.117191 -0.00668121 0)
(-0.115199 -0.00701401 0)
(-0.113112 -0.0073488 0)
(-0.11093 -0.00768452 0)
(-0.108654 -0.00802001 0)
(-0.106283 -0.00835401 0)
(-0.103818 -0.00868513 0)
(-0.10126 -0.0090119 0)
(-0.0986117 -0.0093327 0)
(-0.0958741 -0.00964584 0)
(-0.09305 -0.00994949 0)
(-0.0901424 -0.0102417 0)
(-0.0871549 -0.0105205 0)
(-0.0840916 -0.0107838 0)
(-0.0809573 -0.0110293 0)
(-0.0777573 -0.0112547 0)
(-0.0744976 -0.0114577 0)
(-0.071185 -0.0116359 0)