/*--------------------------------*- C++ -*----------------------------------*\
  =========                 |
  \\      /  F ield         | OpenFOAM: The Open Source CFD Toolbox
   \\    /   O peration     | Website:  https://openfoam.org
    \\  /    A nd           | Version:  7
     \\/     M anipulation  |
\*---------------------------------------------------------------------------*/
FoamFile
{
    version     2.0;
    format      ascii;
    class       volVectorField;
    location    "0.1375";
    object      U;
}
// * * * * * * * * * * * * * * * * * * * * * * * * * * * * * * * * * * * * * //

dimensions      [0 1 -1 0 0 0 0];

internalField   nonuniform List<vector> 
51200
(
(-2.91316e-07 1.22776e-07 0)
(-4.84978e-07 -1.77085e-07 0)
(-2.17407e-07 -4.83352e-07 0)
(5.03522e-07 -5.24603e-07 0)
(1.25761e-06 -4.60937e-07 0)
(1.912e-06 -3.83153e-07 0)
(2.46385e-06 -3.12997e-07 0)
(2.92198e-06 -2.53107e-07 0)
(3.30484e-06 -2.01607e-07 0)
(3.62634e-06 -1.58479e-07 0)
(3.8983e-06 -1.22698e-07 0)
(4.13509e-06 -9.43434e-08 0)
(4.34801e-06 -6.86589e-08 0)
(4.54175e-06 -5.20059e-08 0)
(4.73168e-06 -3.73765e-08 0)
(4.92187e-06 -3.09803e-08 0)
(5.11653e-06 -2.73143e-08 0)
(5.32583e-06 -2.66778e-08 0)
(5.5464e-06 -2.8601e-08 0)
(5.78466e-06 -3.12655e-08 0)
(6.0418e-06 -3.57195e-08 0)
(6.31536e-06 -4.31746e-08 0)
(6.61024e-06 -4.95661e-08 0)
(6.9241e-06 -5.79064e-08 0)
(7.25422e-06 -6.54242e-08 0)
(7.60369e-06 -7.14026e-08 0)
(7.96733e-06 -7.8581e-08 0)
(8.34483e-06 -8.51608e-08 0)
(8.73639e-06 -8.99178e-08 0)
(9.13647e-06 -9.50043e-08 0)
(9.54657e-06 -9.98591e-08 0)
(9.96572e-06 -1.03016e-07 0)
(1.03893e-05 -1.06601e-07 0)
(1.08183e-05 -1.09666e-07 0)
(1.12517e-05 -1.1097e-07 0)
(1.16856e-05 -1.12441e-07 0)
(1.21207e-05 -1.14379e-07 0)
(1.25571e-05 -1.14431e-07 0)
(1.2991e-05 -1.14509e-07 0)
(1.34224e-05 -1.15312e-07 0)
(1.38525e-05 -1.14092e-07 0)
(1.42784e-05 -1.12912e-07 0)
(1.46987e-05 -1.13131e-07 0)
(1.51161e-05 -1.11975e-07 0)
(1.55278e-05 -1.09695e-07 0)
(1.59319e-05 -1.08643e-07 0)
(1.63306e-05 -1.06929e-07 0)
(1.67228e-05 -1.0408e-07 0)
(1.71063e-05 -1.0264e-07 0)
(1.74819e-05 -1.0131e-07 0)
(1.78503e-05 -9.83013e-08 0)
(1.82088e-05 -9.54461e-08 0)
(1.85566e-05 -9.37668e-08 0)
(1.88959e-05 -9.19637e-08 0)
(1.92253e-05 -8.97427e-08 0)
(1.95429e-05 -8.75906e-08 0)
(1.98499e-05 -8.47753e-08 0)
(2.01464e-05 -8.09066e-08 0)
(2.04304e-05 -7.72613e-08 0)
(2.07025e-05 -7.44128e-08 0)
(2.09636e-05 -7.11017e-08 0)
(2.12127e-05 -6.65721e-08 0)
(2.14487e-05 -6.17457e-08 0)
(2.16721e-05 -5.77283e-08 0)
(2.18833e-05 -5.47432e-08 0)
(2.20819e-05 -5.28194e-08 0)
(2.2268e-05 -5.14435e-08 0)
(2.24416e-05 -4.9022e-08 0)
(2.2602e-05 -4.44251e-08 0)
(2.27483e-05 -3.81532e-08 0)
(2.28801e-05 -3.21503e-08 0)
(2.29983e-05 -2.77723e-08 0)
(2.3103e-05 -2.441e-08 0)
(2.31937e-05 -2.15458e-08 0)
(2.32707e-05 -1.86412e-08 0)
(2.33333e-05 -1.45707e-08 0)
(2.33814e-05 -9.29889e-09 0)
(2.3415e-05 -4.07395e-09 0)
(2.34346e-05 2.68959e-10 0)
(2.344e-05 4.12154e-09 0)
(2.34312e-05 7.92552e-09 0)
(2.3408e-05 1.21924e-08 0)
(2.33699e-05 1.68604e-08 0)
(2.33177e-05 2.11262e-08 0)
(2.32519e-05 2.49127e-08 0)
(2.31724e-05 2.85551e-08 0)
(2.30795e-05 3.21456e-08 0)
(2.29729e-05 3.6058e-08 0)
(2.28521e-05 4.0193e-08 0)
(2.27176e-05 4.41902e-08 0)
(2.25695e-05 4.80193e-08 0)
(2.24083e-05 5.1537e-08 0)
(2.22342e-05 5.48229e-08 0)
(2.20471e-05 5.83464e-08 0)
(2.18467e-05 6.22436e-08 0)
(2.16327e-05 6.6295e-08 0)
(2.1405e-05 7.02705e-08 0)
(2.11641e-05 7.39555e-08 0)
(2.09105e-05 7.73978e-08 0)
(2.06445e-05 8.09194e-08 0)
(2.0366e-05 8.4525e-08 0)
(2.00748e-05 8.81421e-08 0)
(1.97708e-05 9.20246e-08 0)
(1.9454e-05 9.60037e-08 0)
(1.91249e-05 9.968e-08 0)
(1.87839e-05 1.02987e-07 0)
(1.84318e-05 1.05877e-07 0)
(1.80691e-05 1.08704e-07 0)
(1.76954e-05 1.11999e-07 0)
(1.73108e-05 1.1544e-07 0)
(1.69153e-05 1.18717e-07 0)
(1.65088e-05 1.22069e-07 0)
(1.60921e-05 1.2522e-07 0)
(1.56659e-05 1.27872e-07 0)
(1.52307e-05 1.30307e-07 0)
(1.47872e-05 1.32555e-07 0)
(1.43361e-05 1.34674e-07 0)
(1.38774e-05 1.37012e-07 0)
(1.34115e-05 1.39285e-07 0)
(1.2939e-05 1.41015e-07 0)
(1.24605e-05 1.42413e-07 0)
(1.1977e-05 1.4362e-07 0)
(1.14899e-05 1.44423e-07 0)
(1.09996e-05 1.44919e-07 0)
(1.0507e-05 1.45211e-07 0)
(1.0013e-05 1.45126e-07 0)
(9.51834e-06 1.4486e-07 0)
(9.02345e-06 1.44727e-07 0)
(8.52921e-06 1.4437e-07 0)
(8.03689e-06 1.43386e-07 0)
(7.54746e-06 1.42046e-07 0)
(7.062e-06 1.40567e-07 0)
(6.58174e-06 1.38805e-07 0)
(6.1072e-06 1.36882e-07 0)
(5.63893e-06 1.34961e-07 0)
(5.17832e-06 1.32814e-07 0)
(4.72653e-06 1.30331e-07 0)
(4.2844e-06 1.27602e-07 0)
(3.8534e-06 1.24412e-07 0)
(3.43533e-06 1.20489e-07 0)
(3.0316e-06 1.16042e-07 0)
(2.6437e-06 1.11358e-07 0)
(2.27346e-06 1.0626e-07 0)
(1.92249e-06 1.00514e-07 0)
(1.59208e-06 9.42151e-08 0)
(1.28386e-06 8.7436e-08 0)
(9.99846e-07 8.00991e-08 0)
(7.41851e-07 7.22196e-08 0)
(5.1147e-07 6.37426e-08 0)
(3.10644e-07 5.44051e-08 0)
(1.41483e-07 4.41807e-08 0)
(5.41748e-09 3.33797e-08 0)
(-9.67984e-08 2.22837e-08 0)
(-1.64723e-07 1.10089e-08 0)
(-1.98392e-07 -2.984e-10 0)
(-1.9919e-07 -1.10858e-08 0)
(-1.70507e-07 -2.04051e-08 0)
(-1.18416e-07 -2.65803e-08 0)
(-5.61013e-08 -2.62375e-08 0)
(-1.30317e-08 -1.2324e-08 0)
(-7.03932e-07 7.32991e-07 0)
(-1.45706e-06 2.17182e-07 0)
(-1.54017e-06 -8.43263e-07 0)
(-8.16846e-07 -1.23242e-06 0)
(2.44536e-07 -1.22048e-06 0)
(1.34043e-06 -1.08754e-06 0)
(2.38268e-06 -9.33884e-07 0)
(3.34819e-06 -7.93989e-07 0)
(4.23748e-06 -6.76897e-07 0)
(5.06316e-06 -5.81526e-07 0)
(5.83979e-06 -5.10691e-07 0)
(6.58568e-06 -4.58731e-07 0)
(7.31597e-06 -4.26025e-07 0)
(8.05067e-06 -4.08476e-07 0)
(8.79289e-06 -4.06314e-07 0)
(9.55626e-06 -4.15267e-07 0)
(1.03558e-05 -4.33447e-07 0)
(1.11846e-05 -4.60318e-07 0)
(1.20563e-05 -4.89762e-07 0)
(1.29693e-05 -5.2235e-07 0)
(1.3921e-05 -5.57358e-07 0)
(1.49202e-05 -5.92686e-07 0)
(1.59591e-05 -6.29153e-07 0)
(1.70363e-05 -6.64663e-07 0)
(1.81548e-05 -6.96877e-07 0)
(1.93049e-05 -7.27379e-07 0)
(2.04877e-05 -7.55324e-07 0)
(2.17e-05 -7.79093e-07 0)
(2.29342e-05 -8.01065e-07 0)
(2.41913e-05 -8.19986e-07 0)
(2.54669e-05 -8.34825e-07 0)
(2.67545e-05 -8.48437e-07 0)
(2.8054e-05 -8.5864e-07 0)
(2.93623e-05 -8.655e-07 0)
(3.06733e-05 -8.70333e-07 0)
(3.19861e-05 -8.7357e-07 0)
(3.3299e-05 -8.72748e-07 0)
(3.46069e-05 -8.71448e-07 0)
(3.59076e-05 -8.68421e-07 0)
(3.72015e-05 -8.62961e-07 0)
(3.84836e-05 -8.55712e-07 0)
(3.97518e-05 -8.4799e-07 0)
(4.10076e-05 -8.38583e-07 0)
(4.22462e-05 -8.27444e-07 0)
(4.34655e-05 -8.16584e-07 0)
(4.46667e-05 -8.0375e-07 0)
(4.58473e-05 -7.89163e-07 0)
(4.70042e-05 -7.74202e-07 0)
(4.8138e-05 -7.59101e-07 0)
(4.92478e-05 -7.42397e-07 0)
(5.03303e-05 -7.24283e-07 0)
(5.13853e-05 -7.05664e-07 0)
(5.2413e-05 -6.85951e-07 0)
(5.34108e-05 -6.65368e-07 0)
(5.43778e-05 -6.45289e-07 0)
(5.53141e-05 -6.2468e-07 0)
(5.62179e-05 -6.02366e-07 0)
(5.70882e-05 -5.79053e-07 0)
(5.79253e-05 -5.55858e-07 0)
(5.87283e-05 -5.32768e-07 0)
(5.94959e-05 -5.09117e-07 0)
(6.02281e-05 -4.84719e-07 0)
(6.09246e-05 -4.59429e-07 0)
(6.15841e-05 -4.33436e-07 0)
(6.22069e-05 -4.07607e-07 0)
(6.27932e-05 -3.82742e-07 0)
(6.33418e-05 -3.58677e-07 0)
(6.38521e-05 -3.3394e-07 0)
(6.43238e-05 -3.0729e-07 0)
(6.47565e-05 -2.79275e-07 0)
(6.51492e-05 -2.50678e-07 0)
(6.55022e-05 -2.22462e-07 0)
(6.58161e-05 -1.9495e-07 0)
(6.60901e-05 -1.67655e-07 0)
(6.63238e-05 -1.40455e-07 0)
(6.65168e-05 -1.12517e-07 0)
(6.66691e-05 -8.37258e-08 0)
(6.67806e-05 -5.49607e-08 0)
(6.68514e-05 -2.68351e-08 0)
(6.68818e-05 1.11721e-09 0)
(6.68717e-05 2.94963e-08 0)
(6.68208e-05 5.80218e-08 0)
(6.67288e-05 8.66981e-08 0)
(6.6596e-05 1.14914e-07 0)
(6.64231e-05 1.42163e-07 0)
(6.62101e-05 1.69142e-07 0)
(6.59572e-05 1.96178e-07 0)
(6.56645e-05 2.23454e-07 0)
(6.53317e-05 2.5119e-07 0)
(6.49593e-05 2.78661e-07 0)
(6.45475e-05 3.05368e-07 0)
(6.40966e-05 3.3149e-07 0)
(6.36067e-05 3.57318e-07 0)
(6.30784e-05 3.83459e-07 0)
(6.25118e-05 4.1022e-07 0)
(6.19066e-05 4.37133e-07 0)
(6.12631e-05 4.63546e-07 0)
(6.05817e-05 4.8933e-07 0)
(5.98627e-05 5.14585e-07 0)
(5.9107e-05 5.39447e-07 0)
(5.83148e-05 5.64395e-07 0)
(5.74862e-05 5.89496e-07 0)
(5.66218e-05 6.14653e-07 0)
(5.5722e-05 6.39695e-07 0)
(5.47872e-05 6.63742e-07 0)
(5.38185e-05 6.86417e-07 0)
(5.28165e-05 7.08358e-07 0)
(5.17821e-05 7.29958e-07 0)
(5.07167e-05 7.51486e-07 0)
(4.96202e-05 7.73165e-07 0)
(4.8493e-05 7.94554e-07 0)
(4.73367e-05 8.15243e-07 0)
(4.61527e-05 8.34987e-07 0)
(4.49417e-05 8.53235e-07 0)
(4.37054e-05 8.69959e-07 0)
(4.24451e-05 8.85845e-07 0)
(4.11618e-05 9.01239e-07 0)
(3.98578e-05 9.1595e-07 0)
(3.85344e-05 9.29638e-07 0)
(3.71922e-05 9.41901e-07 0)
(3.58339e-05 9.52449e-07 0)
(3.44622e-05 9.61286e-07 0)
(3.30784e-05 9.68493e-07 0)
(3.16845e-05 9.73984e-07 0)
(3.02838e-05 9.77777e-07 0)
(2.88778e-05 9.80134e-07 0)
(2.74685e-05 9.81124e-07 0)
(2.60593e-05 9.80506e-07 0)
(2.46522e-05 9.78041e-07 0)
(2.32492e-05 9.73501e-07 0)
(2.18538e-05 9.6676e-07 0)
(2.04695e-05 9.5803e-07 0)
(1.90985e-05 9.4751e-07 0)
(1.77437e-05 9.35109e-07 0)
(1.64086e-05 9.20758e-07 0)
(1.50959e-05 9.04506e-07 0)
(1.38089e-05 8.86188e-07 0)
(1.25519e-05 8.65216e-07 0)
(1.13287e-05 8.41026e-07 0)
(1.01424e-05 8.13651e-07 0)
(8.99722e-06 7.83372e-07 0)
(7.89878e-06 7.50142e-07 0)
(6.85091e-06 7.1375e-07 0)
(5.85704e-06 6.74159e-07 0)
(4.92231e-06 6.31326e-07 0)
(4.05193e-06 5.85055e-07 0)
(3.24945e-06 5.3536e-07 0)
(2.51888e-06 4.82385e-07 0)
(1.86553e-06 4.25997e-07 0)
(1.29354e-06 3.6598e-07 0)
(8.05316e-07 3.02773e-07 0)
(4.03879e-07 2.37486e-07 0)
(9.22525e-08 1.71009e-07 0)
(-1.29732e-07 1.0436e-07 0)
(-2.65458e-07 3.9595e-08 0)
(-3.19813e-07 -2.01866e-08 0)
(-3.0092e-07 -7.04223e-08 0)
(-2.24224e-07 -1.04378e-07 0)
(-1.17859e-07 -1.08759e-07 0)
(-3.1373e-08 -5.77201e-08 0)
(-8.07077e-07 1.84649e-06 0)
(-1.91763e-06 1.15802e-06 0)
(-2.56832e-06 -9.5168e-07 0)
(-2.31337e-06 -1.97964e-06 0)
(-1.52524e-06 -2.25595e-06 0)
(-5.0802e-07 -2.20903e-06 0)
(6.13269e-07 -2.05478e-06 0)
(1.76734e-06 -1.87602e-06 0)
(2.93375e-06 -1.71945e-06 0)
(4.10567e-06 -1.59344e-06 0)
(5.28831e-06 -1.50636e-06 0)
(6.4932e-06 -1.453e-06 0)
(7.73538e-06 -1.43321e-06 0)
(9.01716e-06 -1.4395e-06 0)
(1.03514e-05 -1.4732e-06 0)
(1.17462e-05 -1.52102e-06 0)
(1.31969e-05 -1.58811e-06 0)
(1.47167e-05 -1.66251e-06 0)
(1.63007e-05 -1.74466e-06 0)
(1.7948e-05 -1.83081e-06 0)
(1.96614e-05 -1.91717e-06 0)
(2.14326e-05 -2.00207e-06 0)
(2.32632e-05 -2.08813e-06 0)
(2.51502e-05 -2.16658e-06 0)
(2.70831e-05 -2.24207e-06 0)
(2.90634e-05 -2.31107e-06 0)
(3.10861e-05 -2.3713e-06 0)
(3.31425e-05 -2.42697e-06 0)
(3.52311e-05 -2.4743e-06 0)
(3.73467e-05 -2.51347e-06 0)
(3.9482e-05 -2.54755e-06 0)
(4.16347e-05 -2.57418e-06 0)
(4.37997e-05 -2.59246e-06 0)
(4.59711e-05 -2.60608e-06 0)
(4.81455e-05 -2.61356e-06 0)
(5.03194e-05 -2.61307e-06 0)
(5.24873e-05 -2.60904e-06 0)
(5.46455e-05 -2.59967e-06 0)
(5.67925e-05 -2.58447e-06 0)
(5.89221e-05 -2.56559e-06 0)
(6.10316e-05 -2.54338e-06 0)
(6.31198e-05 -2.51534e-06 0)
(6.51822e-05 -2.48451e-06 0)
(6.72154e-05 -2.45179e-06 0)
(6.92189e-05 -2.41445e-06 0)
(7.11892e-05 -2.37422e-06 0)
(7.31227e-05 -2.33186e-06 0)
(7.50197e-05 -2.28619e-06 0)
(7.68772e-05 -2.23769e-06 0)
(7.86916e-05 -2.18774e-06 0)
(8.04632e-05 -2.13494e-06 0)
(8.21899e-05 -2.07846e-06 0)
(8.38688e-05 -2.02031e-06 0)
(8.54995e-05 -1.96062e-06 0)
(8.7081e-05 -1.89873e-06 0)
(8.86104e-05 -1.83538e-06 0)
(9.00867e-05 -1.77061e-06 0)
(9.15102e-05 -1.70352e-06 0)
(9.28786e-05 -1.63509e-06 0)
(9.41904e-05 -1.56662e-06 0)
(9.54458e-05 -1.49722e-06 0)
(9.6644e-05 -1.42619e-06 0)
(9.7783e-05 -1.35412e-06 0)
(9.88623e-05 -1.28083e-06 0)
(9.98819e-05 -1.20605e-06 0)
(0.000100841 -1.13084e-06 0)
(0.000101737 -1.05562e-06 0)
(0.000102572 -9.79571e-07 0)
(0.000103345 -9.02162e-07 0)
(0.000104056 -8.23804e-07 0)
(0.000104702 -7.45018e-07 0)
(0.000105284 -6.65533e-07 0)
(0.000105802 -5.85488e-07 0)
(0.000106256 -5.05099e-07 0)
(0.000106645 -4.24431e-07 0)
(0.000106969 -3.43306e-07 0)
(0.000107229 -2.61851e-07 0)
(0.000107422 -1.80714e-07 0)
(0.00010755 -9.95741e-08 0)
(0.000107612 -1.82016e-08 0)
(0.000107609 6.34715e-08 0)
(0.000107542 1.45314e-07 0)
(0.000107408 2.26856e-07 0)
(0.000107209 3.07712e-07 0)
(0.000106945 3.87785e-07 0)
(0.000106615 4.67399e-07 0)
(0.00010622 5.47124e-07 0)
(0.000105761 6.26917e-07 0)
(0.000105237 7.06655e-07 0)
(0.000104649 7.8596e-07 0)
(0.000103997 8.64205e-07 0)
(0.000103281 9.41437e-07 0)
(0.000102501 1.01827e-06 0)
(0.000101658 1.09531e-06 0)
(0.000100753 1.17259e-06 0)
(9.97862e-05 1.24968e-06 0)
(9.87571e-05 1.32596e-06 0)
(9.76672e-05 1.40092e-06 0)
(9.65164e-05 1.47487e-06 0)
(9.53053e-05 1.54806e-06 0)
(9.40349e-05 1.62057e-06 0)
(9.27058e-05 1.69291e-06 0)
(9.13194e-05 1.76477e-06 0)
(8.9877e-05 1.83534e-06 0)
(8.83782e-05 1.90424e-06 0)
(8.68245e-05 1.971e-06 0)
(8.52174e-05 2.0357e-06 0)
(8.35575e-05 2.0993e-06 0)
(8.18465e-05 2.16187e-06 0)
(8.00864e-05 2.22298e-06 0)
(7.82781e-05 2.28276e-06 0)
(7.64237e-05 2.34072e-06 0)
(7.45255e-05 2.39588e-06 0)
(7.25843e-05 2.44802e-06 0)
(7.0602e-05 2.49712e-06 0)
(6.85816e-05 2.54319e-06 0)
(6.6525e-05 2.58685e-06 0)
(6.44346e-05 2.62815e-06 0)
(6.23134e-05 2.66613e-06 0)
(6.01638e-05 2.7003e-06 0)
(5.79882e-05 2.73061e-06 0)
(5.57908e-05 2.75652e-06 0)
(5.35743e-05 2.77775e-06 0)
(5.13411e-05 2.79463e-06 0)
(4.90952e-05 2.80705e-06 0)
(4.68409e-05 2.81483e-06 0)
(4.45813e-05 2.81832e-06 0)
(4.23206e-05 2.81714e-06 0)
(4.00634e-05 2.81026e-06 0)
(3.78131e-05 2.79753e-06 0)
(3.55741e-05 2.77935e-06 0)
(3.3352e-05 2.75541e-06 0)
(3.11514e-05 2.72541e-06 0)
(2.89764e-05 2.68957e-06 0)
(2.68328e-05 2.6477e-06 0)
(2.4727e-05 2.59926e-06 0)
(2.26638e-05 2.54398e-06 0)
(2.06486e-05 2.48147e-06 0)
(1.86882e-05 2.41081e-06 0)
(1.67887e-05 2.33147e-06 0)
(1.4956e-05 2.24368e-06 0)
(1.31971e-05 2.14754e-06 0)
(1.15192e-05 2.04268e-06 0)
(9.92846e-06 1.92882e-06 0)
(8.43118e-06 1.80608e-06 0)
(7.03478e-06 1.67449e-06 0)
(5.74639e-06 1.53387e-06 0)
(4.57184e-06 1.38432e-06 0)
(3.51663e-06 1.22624e-06 0)
(2.58634e-06 1.06023e-06 0)
(1.78566e-06 8.87515e-07 0)
(1.11766e-06 7.10234e-07 0)
(5.83994e-07 5.31079e-07 0)
(1.84167e-07 3.53507e-07 0)
(-8.59218e-08 1.82659e-07 0)
(-2.34735e-07 2.62405e-08 0)
(-2.75938e-07 -1.04963e-07 0)
(-2.29428e-07 -1.95994e-07 0)
(-1.29276e-07 -2.22557e-07 0)
(-3.62016e-08 -1.30789e-07 0)
(-6.56823e-07 2.99836e-06 0)
(-1.69106e-06 2.33688e-06 0)
(-2.50123e-06 -6.23042e-07 0)
(-2.55923e-06 -2.35657e-06 0)
(-2.03629e-06 -3.06711e-06 0)
(-1.16489e-06 -3.26997e-06 0)
(-6.92188e-08 -3.24491e-06 0)
(1.17772e-06 -3.14426e-06 0)
(2.5287e-06 -3.03599e-06 0)
(3.96888e-06 -2.95689e-06 0)
(5.48856e-06 -2.91572e-06 0)
(7.09021e-06 -2.91847e-06 0)
(8.77691e-06 -2.95855e-06 0)
(1.05559e-05 -3.03752e-06 0)
(1.2425e-05 -3.13949e-06 0)
(1.43867e-05 -3.26859e-06 0)
(1.64462e-05 -3.41033e-06 0)
(1.85956e-05 -3.56349e-06 0)
(2.08374e-05 -3.72314e-06 0)
(2.31694e-05 -3.88327e-06 0)
(2.55835e-05 -4.04139e-06 0)
(2.80778e-05 -4.19726e-06 0)
(3.0647e-05 -4.34238e-06 0)
(3.32844e-05 -4.48185e-06 0)
(3.59846e-05 -4.61084e-06 0)
(3.87425e-05 -4.72619e-06 0)
(4.15495e-05 -4.83123e-06 0)
(4.44008e-05 -4.92313e-06 0)
(4.72908e-05 -5.0011e-06 0)
(5.02115e-05 -5.06733e-06 0)
(5.31575e-05 -5.12192e-06 0)
(5.61236e-05 -5.16167e-06 0)
(5.91018e-05 -5.19154e-06 0)
(6.20866e-05 -5.20944e-06 0)
(6.50754e-05 -5.21531e-06 0)
(6.80589e-05 -5.21115e-06 0)
(7.10329e-05 -5.19774e-06 0)
(7.3995e-05 -5.17315e-06 0)
(7.69371e-05 -5.14051e-06 0)
(7.98557e-05 -5.10049e-06 0)
(8.27481e-05 -5.05125e-06 0)
(8.56085e-05 -4.99457e-06 0)
(8.84324e-05 -4.932e-06 0)
(9.1218e-05 -4.86236e-06 0)
(9.39611e-05 -4.78602e-06 0)
(9.66574e-05 -4.70556e-06 0)
(9.93053e-05 -4.61854e-06 0)
(0.000101901 -4.52566e-06 0)
(0.000104442 -4.42913e-06 0)
(0.000106925 -4.32762e-06 0)
(0.000109349 -4.22088e-06 0)
(0.00011171 -4.11059e-06 0)
(0.000114007 -3.99605e-06 0)
(0.000116238 -3.87689e-06 0)
(0.0001184 -3.75481e-06 0)
(0.000120492 -3.63002e-06 0)
(0.000122512 -3.5012e-06 0)
(0.000124458 -3.36931e-06 0)
(0.00012633 -3.23545e-06 0)
(0.000128124 -3.09893e-06 0)
(0.000129841 -2.95985e-06 0)
(0.000131479 -2.81936e-06 0)
(0.000133038 -2.67752e-06 0)
(0.000134516 -2.53341e-06 0)
(0.000135911 -2.38745e-06 0)
(0.000137223 -2.24027e-06 0)
(0.000138451 -2.09115e-06 0)
(0.000139594 -1.93965e-06 0)
(0.000140652 -1.78693e-06 0)
(0.000141625 -1.63362e-06 0)
(0.000142512 -1.47938e-06 0)
(0.000143313 -1.32417e-06 0)
(0.000144026 -1.16814e-06 0)
(0.00014465 -1.01097e-06 0)
(0.000145186 -8.52539e-07 0)
(0.000145635 -6.93697e-07 0)
(0.000145995 -5.34919e-07 0)
(0.000146267 -3.76402e-07 0)
(0.000146449 -2.17697e-07 0)
(0.000146542 -5.83388e-08 0)
(0.000146546 1.01394e-07 0)
(0.000146462 2.61154e-07 0)
(0.000146289 4.20437e-07 0)
(0.000146027 5.78871e-07 0)
(0.000145675 7.36613e-07 0)
(0.000145235 8.93823e-07 0)
(0.000144705 1.05082e-06 0)
(0.000144087 1.20769e-06 0)
(0.000143382 1.36418e-06 0)
(0.000142589 1.51991e-06 0)
(0.000141709 1.67435e-06 0)
(0.000140741 1.82746e-06 0)
(0.000139687 1.97978e-06 0)
(0.000138546 2.13172e-06 0)
(0.00013732 2.28327e-06 0)
(0.000136009 2.43388e-06 0)
(0.000134615 2.58318e-06 0)
(0.000133137 2.73088e-06 0)
(0.000131577 2.8767e-06 0)
(0.000129934 3.02083e-06 0)
(0.000128211 3.16345e-06 0)
(0.000126408 3.30469e-06 0)
(0.000124527 3.44449e-06 0)
(0.00012257 3.58192e-06 0)
(0.000120537 3.71614e-06 0)
(0.00011843 3.8473e-06 0)
(0.000116249 3.97539e-06 0)
(0.000113998 4.10035e-06 0)
(0.000111677 4.22246e-06 0)
(0.000109289 4.34143e-06 0)
(0.000106837 4.45676e-06 0)
(0.000104323 4.56826e-06 0)
(0.000101749 4.6751e-06 0)
(9.91169e-05 4.77639e-06 0)
(9.64299e-05 4.87227e-06 0)
(9.36911e-05 4.96293e-06 0)
(9.09037e-05 5.04797e-06 0)
(8.8071e-05 5.12722e-06 0)
(8.51965e-05 5.20028e-06 0)
(8.22836e-05 5.26625e-06 0)
(7.93366e-05 5.32474e-06 0)
(7.63597e-05 5.37567e-06 0)
(7.33565e-05 5.41815e-06 0)
(7.03311e-05 5.45168e-06 0)
(6.72887e-05 5.47675e-06 0)
(6.42346e-05 5.49327e-06 0)
(6.11734e-05 5.50041e-06 0)
(5.81106e-05 5.49779e-06 0)
(5.50519e-05 5.48505e-06 0)
(5.2003e-05 5.46128e-06 0)
(4.89703e-05 5.42615e-06 0)
(4.59597e-05 5.37987e-06 0)
(4.29776e-05 5.32192e-06 0)
(4.00311e-05 5.25158e-06 0)
(3.71277e-05 5.16871e-06 0)
(3.42748e-05 5.07304e-06 0)
(3.14797e-05 4.96362e-06 0)
(2.87508e-05 4.83945e-06 0)
(2.60955e-05 4.70006e-06 0)
(2.35218e-05 4.5451e-06 0)
(2.10386e-05 4.37403e-06 0)
(1.86552e-05 4.18648e-06 0)
(1.63795e-05 3.98239e-06 0)
(1.42195e-05 3.76159e-06 0)
(1.21848e-05 3.52395e-06 0)
(1.02845e-05 3.26976e-06 0)
(8.52604e-06 2.99945e-06 0)
(6.91681e-06 2.71328e-06 0)
(5.465e-06 2.412e-06 0)
(4.17681e-06 2.09736e-06 0)
(3.0562e-06 1.77209e-06 0)
(2.10685e-06 1.43975e-06 0)
(1.33116e-06 1.10531e-06 0)
(7.27196e-07 7.75629e-07 0)
(2.88557e-07 4.59927e-07 0)
(5.49524e-09 1.71221e-07 0)
(-1.36932e-07 -7.30867e-08 0)
(-1.62219e-07 -2.48929e-07 0)
(-1.06824e-07 -3.19909e-07 0)
(-3.27728e-08 -2.02393e-07 0)
(-4.41825e-07 3.87035e-06 0)
(-1.18525e-06 3.40725e-06 0)
(-1.89105e-06 -1.40537e-07 0)
(-2.04166e-06 -2.47864e-06 0)
(-1.65656e-06 -3.65519e-06 0)
(-8.79319e-07 -4.20034e-06 0)
(2.04408e-07 -4.41189e-06 0)
(1.52163e-06 -4.49005e-06 0)
(3.03222e-06 -4.51959e-06 0)
(4.70461e-06 -4.5632e-06 0)
(6.52236e-06 -4.63783e-06 0)
(8.47874e-06 -4.75262e-06 0)
(1.05711e-05 -4.90691e-06 0)
(1.27959e-05 -5.09474e-06 0)
(1.51522e-05 -5.31492e-06 0)
(1.76379e-05 -5.55312e-06 0)
(2.02466e-05 -5.80564e-06 0)
(2.29769e-05 -6.06709e-06 0)
(2.58248e-05 -6.32735e-06 0)
(2.87835e-05 -6.58683e-06 0)
(3.18466e-05 -6.83776e-06 0)
(3.50082e-05 -7.07814e-06 0)
(3.82614e-05 -7.30517e-06 0)
(4.15964e-05 -7.51729e-06 0)
(4.50084e-05 -7.71064e-06 0)
(4.84881e-05 -7.88643e-06 0)
(5.2028e-05 -8.04371e-06 0)
(5.56212e-05 -8.17906e-06 0)
(5.92589e-05 -8.29575e-06 0)
(6.29326e-05 -8.39349e-06 0)
(6.66375e-05 -8.46966e-06 0)
(7.03643e-05 -8.52857e-06 0)
(7.41043e-05 -8.56893e-06 0)
(7.78543e-05 -8.59011e-06 0)
(8.16044e-05 -8.59464e-06 0)
(8.53481e-05 -8.58408e-06 0)
(8.90815e-05 -8.55547e-06 0)
(9.27964e-05 -8.51317e-06 0)
(9.64865e-05 -8.45734e-06 0)
(0.000100148 -8.38694e-06 0)
(0.000103776 -8.30441e-06 0)
(0.000107362 -8.21072e-06 0)
(0.000110905 -8.10515e-06 0)
(0.000114398 -7.98877e-06 0)
(0.000117837 -7.86325e-06 0)
(0.000121219 -7.72779e-06 0)
(0.00012454 -7.58331e-06 0)
(0.000127795 -7.43097e-06 0)
(0.00013098 -7.27045e-06 0)
(0.000134095 -7.10179e-06 0)
(0.000137133 -6.92608e-06 0)
(0.000140094 -6.74398e-06 0)
(0.000142975 -6.55509e-06 0)
(0.000145772 -6.36033e-06 0)
(0.000148482 -6.16023e-06 0)
(0.000151105 -5.95448e-06 0)
(0.000153638 -5.74338e-06 0)
(0.000156079 -5.52822e-06 0)
(0.000158426 -5.3091e-06 0)
(0.000160677 -5.08548e-06 0)
(0.00016283 -4.85804e-06 0)
(0.000164884 -4.62726e-06 0)
(0.000166838 -4.39311e-06 0)
(0.000168692 -4.1562e-06 0)
(0.000170442 -3.9175e-06 0)
(0.000172088 -3.6769e-06 0)
(0.00017363 -3.43327e-06 0)
(0.000175065 -3.18645e-06 0)
(0.000176394 -2.9372e-06 0)
(0.000177615 -2.68602e-06 0)
(0.000178729 -2.43327e-06 0)
(0.000179734 -2.17965e-06 0)
(0.00018063 -1.9253e-06 0)
(0.000181417 -1.66954e-06 0)
(0.000182093 -1.41187e-06 0)
(0.000182659 -1.15317e-06 0)
(0.000183114 -8.94135e-07 0)
(0.000183458 -6.34968e-07 0)
(0.000183691 -3.7583e-07 0)
(0.000183812 -1.16183e-07 0)
(0.000183822 1.43895e-07 0)
(0.000183721 4.04062e-07 0)
(0.000183509 6.63939e-07 0)
(0.000183185 9.23009e-07 0)
(0.00018275 1.18123e-06 0)
(0.000182203 1.43878e-06 0)
(0.000181545 1.69572e-06 0)
(0.000180777 1.95224e-06 0)
(0.000179898 2.20807e-06 0)
(0.00017891 2.4627e-06 0)
(0.000177812 2.7157e-06 0)
(0.000176604 2.96709e-06 0)
(0.000175288 3.21724e-06 0)
(0.000173865 3.46613e-06 0)
(0.000172334 3.71363e-06 0)
(0.000170697 3.9595e-06 0)
(0.000168955 4.2033e-06 0)
(0.000167109 4.44475e-06 0)
(0.00016516 4.68337e-06 0)
(0.000163108 4.91907e-06 0)
(0.000160955 5.15219e-06 0)
(0.000158703 5.38251e-06 0)
(0.000156354 5.60963e-06 0)
(0.000153909 5.83303e-06 0)
(0.000151369 6.05183e-06 0)
(0.000148736 6.26579e-06 0)
(0.000146013 6.475e-06 0)
(0.000143201 6.67901e-06 0)
(0.000140303 6.87757e-06 0)
(0.000137322 7.07069e-06 0)
(0.00013426 7.25779e-06 0)
(0.000131121 7.43807e-06 0)
(0.000127907 7.61086e-06 0)
(0.000124621 7.7754e-06 0)
(0.000121268 7.93128e-06 0)
(0.00011785 8.07861e-06 0)
(0.000114371 8.2169e-06 0)
(0.000110836 8.34511e-06 0)
(0.000107249 8.46284e-06 0)
(0.000103615 8.56973e-06 0)
(9.99381e-05 8.66475e-06 0)
(9.62242e-05 8.74711e-06 0)
(9.24775e-05 8.81651e-06 0)
(8.87034e-05 8.87223e-06 0)
(8.49089e-05 8.91362e-06 0)
(8.10996e-05 8.94064e-06 0)
(7.72812e-05 8.95271e-06 0)
(7.34614e-05 8.9486e-06 0)
(6.9647e-05 8.92764e-06 0)
(6.58444e-05 8.8895e-06 0)
(6.20619e-05 8.83326e-06 0)
(5.8308e-05 8.75803e-06 0)
(5.45895e-05 8.66339e-06 0)
(5.09147e-05 8.54889e-06 0)
(4.72937e-05 8.41371e-06 0)
(4.37361e-05 8.25696e-06 0)
(4.02499e-05 8.07775e-06 0)
(3.68446e-05 7.87511e-06 0)
(3.35312e-05 7.64804e-06 0)
(3.03193e-05 7.396e-06 0)
(2.72182e-05 7.11868e-06 0)
(2.42389e-05 6.81549e-06 0)
(2.13923e-05 6.48585e-06 0)
(1.8688e-05 6.1298e-06 0)
(1.61358e-05 5.74768e-06 0)
(1.37469e-05 5.33987e-06 0)
(1.15307e-05 4.907e-06 0)
(9.49534e-06 4.45027e-06 0)
(7.64886e-06 3.97145e-06 0)
(5.99889e-06 3.47329e-06 0)
(4.55088e-06 2.95998e-06 0)
(3.30797e-06 2.43735e-06 0)
(2.27131e-06 1.91302e-06 0)
(1.43896e-06 1.39714e-06 0)
(8.04888e-07 9.03741e-07 0)
(3.57879e-07 4.51261e-07 0)
(8.15386e-08 6.41825e-08 0)
(-4.72957e-08 -2.25984e-07 0)
(-6.36433e-08 -3.70066e-07 0)
(-2.49662e-08 -2.55651e-07 0)
(-2.49694e-07 4.39228e-06 0)
(-6.80267e-07 4.13368e-06 0)
(-1.1486e-06 2.28756e-07 0)
(-1.23854e-06 -2.58015e-06 0)
(-8.7447e-07 -4.20474e-06 0)
(-1.08101e-07 -5.11423e-06 0)
(1.00537e-06 -5.63863e-06 0)
(2.41721e-06 -5.96e-06 0)
(4.08685e-06 -6.20499e-06 0)
(5.97911e-06 -6.43466e-06 0)
(8.0793e-06 -6.68024e-06 0)
(1.03688e-05 -6.95937e-06 0)
(1.284e-05 -7.26897e-06 0)
(1.54835e-05 -7.61124e-06 0)
(1.82937e-05 -7.97563e-06 0)
(2.12666e-05 -8.35756e-06 0)
(2.43925e-05 -8.74978e-06 0)
(2.76654e-05 -9.14048e-06 0)
(3.10785e-05 -9.52821e-06 0)
(3.46245e-05 -9.90492e-06 0)
(3.82947e-05 -1.02675e-05 0)
(4.208e-05 -1.061e-05 0)
(4.59719e-05 -1.09333e-05 0)
(4.99622e-05 -1.12307e-05 0)
(5.40406e-05 -1.15023e-05 0)
(5.81969e-05 -1.17489e-05 0)
(6.24248e-05 -1.19649e-05 0)
(6.67133e-05 -1.21543e-05 0)
(7.10515e-05 -1.23156e-05 0)
(7.54349e-05 -1.24478e-05 0)
(7.98511e-05 -1.25522e-05 0)
(8.42915e-05 -1.26317e-05 0)
(8.87505e-05 -1.26825e-05 0)
(9.32168e-05 -1.27085e-05 0)
(9.76832e-05 -1.27115e-05 0)
(0.000102144 -1.26891e-05 0)
(0.00010659 -1.26448e-05 0)
(0.000111013 -1.25802e-05 0)
(0.000115408 -1.2494e-05 0)
(0.000119769 -1.23884e-05 0)
(0.000124087 -1.22655e-05 0)
(0.000128359 -1.21248e-05 0)
(0.000132577 -1.19676e-05 0)
(0.000136737 -1.17956e-05 0)
(0.000140833 -1.1609e-05 0)
(0.000144861 -1.14074e-05 0)
(0.000148815 -1.11938e-05 0)
(0.000152691 -1.0968e-05 0)
(0.000156486 -1.07298e-05 0)
(0.000160195 -1.04808e-05 0)
(0.000163814 -1.02214e-05 0)
(0.000167341 -9.95135e-06 0)
(0.000170771 -9.67222e-06 0)
(0.000174103 -9.38503e-06 0)
(0.000177332 -9.08929e-06 0)
(0.000180456 -8.7853e-06 0)
(0.000183473 -8.47432e-06 0)
(0.00018638 -8.15685e-06 0)
(0.000189175 -7.83306e-06 0)
(0.000191857 -7.50376e-06 0)
(0.000194423 -7.16949e-06 0)
(0.00019687 -6.82982e-06 0)
(0.000199199 -6.48471e-06 0)
(0.000201406 -6.1355e-06 0)
(0.000203491 -5.7828e-06 0)
(0.000205453 -5.42666e-06 0)
(0.00020729 -5.06721e-06 0)
(0.000209001 -4.70458e-06 0)
(0.000210585 -4.33882e-06 0)
(0.000212042 -3.96978e-06 0)
(0.00021337 -3.59808e-06 0)
(0.000214568 -3.22461e-06 0)
(0.000215637 -2.84957e-06 0)
(0.000216576 -2.47298e-06 0)
(0.000217384 -2.09472e-06 0)
(0.00021806 -1.71515e-06 0)
(0.000218605 -1.33472e-06 0)
(0.000219017 -9.53386e-07 0)
(0.000219297 -5.71757e-07 0)
(0.000219444 -1.89832e-07 0)
(0.000219459 1.92492e-07 0)
(0.000219342 5.74796e-07 0)
(0.000219092 9.56827e-07 0)
(0.000218709 1.33828e-06 0)
(0.000218193 1.71874e-06 0)
(0.000217545 2.09833e-06 0)
(0.000216765 2.47709e-06 0)
(0.000215853 2.85495e-06 0)
(0.000214809 3.2316e-06 0)
(0.000213635 3.60659e-06 0)
(0.00021233 3.97957e-06 0)
(0.000210896 4.35052e-06 0)
(0.000209332 4.71954e-06 0)
(0.00020764 5.08638e-06 0)
(0.00020582 5.45079e-06 0)
(0.000203874 5.81262e-06 0)
(0.000201803 6.17139e-06 0)
(0.000199609 6.52663e-06 0)
(0.00019729 6.87793e-06 0)
(0.000194851 7.22499e-06 0)
(0.000192292 7.56793e-06 0)
(0.000189615 7.90645e-06 0)
(0.000186821 8.23974e-06 0)
(0.000183914 8.56731e-06 0)
(0.000180895 8.88866e-06 0)
(0.000177765 9.20318e-06 0)
(0.000174529 9.51045e-06 0)
(0.000171187 9.80999e-06 0)
(0.000167743 1.01013e-05 0)
(0.0001642 1.03842e-05 0)
(0.000160562 1.0658e-05 0)
(0.000156832 1.09217e-05 0)
(0.000153014 1.11743e-05 0)
(0.000149111 1.14152e-05 0)
(0.000145127 1.16438e-05 0)
(0.000141067 1.18594e-05 0)
(0.000136936 1.20614e-05 0)
(0.000132737 1.2249e-05 0)
(0.000128478 1.24211e-05 0)
(0.000124162 1.25769e-05 0)
(0.000119796 1.27159e-05 0)
(0.000115386 1.28367e-05 0)
(0.000110938 1.2938e-05 0)
(0.000106457 1.30198e-05 0)
(0.000101952 1.30813e-05 0)
(9.74306e-05 1.31211e-05 0)
(9.28983e-05 1.31383e-05 0)
(8.83636e-05 1.31323e-05 0)
(8.38356e-05 1.31018e-05 0)
(7.93227e-05 1.30457e-05 0)
(7.48332e-05 1.29633e-05 0)
(7.03765e-05 1.28533e-05 0)
(6.59624e-05 1.27147e-05 0)
(6.16008e-05 1.25465e-05 0)
(5.73022e-05 1.2348e-05 0)
(5.30772e-05 1.2118e-05 0)
(4.89366e-05 1.18551e-05 0)
(4.48916e-05 1.1558e-05 0)
(4.09535e-05 1.1226e-05 0)
(3.71338e-05 1.08583e-05 0)
(3.34445e-05 1.0454e-05 0)
(2.98974e-05 1.00126e-05 0)
(2.65038e-05 9.5339e-06 0)
(2.32752e-05 9.01782e-06 0)
(2.02239e-05 8.46478e-06 0)
(1.73615e-05 7.87571e-06 0)
(1.46976e-05 7.25181e-06 0)
(1.22416e-05 6.59486e-06 0)
(1.00035e-05 5.90795e-06 0)
(7.99073e-06 5.19551e-06 0)
(6.20847e-06 4.46336e-06 0)
(4.66046e-06 3.71937e-06 0)
(3.3486e-06 2.97416e-06 0)
(2.27069e-06 2.24167e-06 0)
(1.41988e-06 1.54034e-06 0)
(7.85729e-07 8.93837e-07 0)
(3.52781e-07 3.33057e-07 0)
(9.82684e-08 -1.0278e-07 0)
(-8.51114e-09 -3.53997e-07 0)
(-1.50864e-08 -2.82123e-07 0)
(-1.03526e-07 4.62957e-06 0)
(-2.50775e-07 4.51784e-06 0)
(-4.52463e-07 4.11887e-07 0)
(-4.00818e-07 -2.76094e-06 0)
(4.69012e-08 -4.78083e-06 0)
(8.7346e-07 -6.07745e-06 0)
(2.07142e-06 -6.94128e-06 0)
(3.61037e-06 -7.56935e-06 0)
(5.45251e-06 -8.08501e-06 0)
(7.57698e-06 -8.55364e-06 0)
(9.95182e-06 -9.02733e-06 0)
(1.25642e-05 -9.51104e-06 0)
(1.53997e-05 -1.00215e-05 0)
(1.84437e-05 -1.05517e-05 0)
(2.16895e-05 -1.10956e-05 0)
(2.5123e-05 -1.16504e-05 0)
(2.87393e-05 -1.22047e-05 0)
(3.25269e-05 -1.27525e-05 0)
(3.64751e-05 -1.3288e-05 0)
(4.0576e-05 -1.38023e-05 0)
(4.48195e-05 -1.42929e-05 0)
(4.91935e-05 -1.47567e-05 0)
(5.36895e-05 -1.51873e-05 0)
(5.82971e-05 -1.55844e-05 0)
(6.30018e-05 -1.59473e-05 0)
(6.77983e-05 -1.62709e-05 0)
(7.26738e-05 -1.65579e-05 0)
(7.76154e-05 -1.68077e-05 0)
(8.26175e-05 -1.70181e-05 0)
(8.76667e-05 -1.71908e-05 0)
(9.27522e-05 -1.73285e-05 0)
(9.78676e-05 -1.74275e-05 0)
(0.000103001 -1.74927e-05 0)
(0.000108142 -1.75243e-05 0)
(0.000113285 -1.75219e-05 0)
(0.000118419 -1.74882e-05 0)
(0.000123535 -1.74251e-05 0)
(0.000128627 -1.73323e-05 0)
(0.000133686 -1.7212e-05 0)
(0.000138704 -1.7066e-05 0)
(0.000143675 -1.68946e-05 0)
(0.000148591 -1.66995e-05 0)
(0.000153446 -1.64826e-05 0)
(0.000158234 -1.62446e-05 0)
(0.000162949 -1.59861e-05 0)
(0.000167585 -1.5709e-05 0)
(0.000172136 -1.5414e-05 0)
(0.000176598 -1.51016e-05 0)
(0.000180966 -1.47735e-05 0)
(0.000185236 -1.44302e-05 0)
(0.000189403 -1.40724e-05 0)
(0.000193463 -1.37007e-05 0)
(0.000197412 -1.33167e-05 0)
(0.000201247 -1.29207e-05 0)
(0.000204965 -1.25132e-05 0)
(0.000208562 -1.20953e-05 0)
(0.000212035 -1.16678e-05 0)
(0.000215382 -1.12306e-05 0)
(0.000218601 -1.07847e-05 0)
(0.000221688 -1.03314e-05 0)
(0.000224642 -9.87095e-06 0)
(0.000227461 -9.40349e-06 0)
(0.000230142 -8.92966e-06 0)
(0.000232685 -8.45024e-06 0)
(0.000235085 -7.96513e-06 0)
(0.000237344 -7.47449e-06 0)
(0.00023946 -6.9795e-06 0)
(0.000241431 -6.48052e-06 0)
(0.000243256 -5.97754e-06 0)
(0.000244934 -5.4709e-06 0)
(0.000246465 -4.96104e-06 0)
(0.000247846 -4.44825e-06 0)
(0.000249077 -3.93258e-06 0)