/*--------------------------------*- C++ -*----------------------------------*\
  =========                 |
  \\      /  F ield         | OpenFOAM: The Open Source CFD Toolbox
   \\    /   O peration     | Website:  https://openfoam.org
    \\  /    A nd           | Version:  7
     \\/     M anipulation  |
\*---------------------------------------------------------------------------*/
FoamFile
{
    version     2.0;
    format      ascii;
    class       surfaceScalarField;
    location    "0.1625";
    object      phi;
}
// * * * * * * * * * * * * * * * * * * * * * * * * * * * * * * * * * * * * * //

dimensions      [0 3 -1 0 0 0 0];

internalField   nonuniform List<scalar> 
25360
(
1.13965e-10
-1.14625e-10
3.59324e-10
-2.45348e-10
6.03922e-10
-2.44605e-10
7.64756e-10
-1.60819e-10
7.97708e-10
-3.29462e-11
6.80978e-10
1.16721e-10
4.05951e-10
2.75019e-10
-2.80252e-11
4.33984e-10
-6.16823e-10
5.88809e-10
-1.35343e-09
7.36607e-10
-2.22908e-09
8.75645e-10
-3.234e-09
1.00492e-09
-4.3579e-09
1.12389e-09
-5.59023e-09
1.23234e-09
-6.9205e-09
1.33027e-09
-8.33834e-09
1.41784e-09
-9.83365e-09
1.4953e-09
-1.13966e-08
1.56299e-09
-1.30179e-08
1.6213e-09
-1.46886e-08
1.67065e-09
-1.64001e-08
1.71148e-09
-1.81443e-08
1.74427e-09
-1.99138e-08
1.76948e-09
-2.17014e-08
1.7876e-09
-2.35005e-08
1.79909e-09
-2.53049e-08
1.80443e-09
-2.7109e-08
1.80408e-09
-2.89075e-08
1.79848e-09
-3.06956e-08
1.78807e-09
-3.24688e-08
1.77328e-09
-3.42233e-08
1.75451e-09
-3.59555e-08
1.73216e-09
-3.76621e-08
1.70659e-09
-3.93403e-08
1.67817e-09
-4.09875e-08
1.64724e-09
-4.26016e-08
1.61411e-09
-4.41807e-08
1.57908e-09
-4.57231e-08
1.54244e-09
-4.72276e-08
1.50445e-09
-4.86929e-08
1.46537e-09
-5.01183e-08
1.42541e-09
-5.15031e-08
1.3848e-09
-5.28469e-08
1.34372e-09
-5.41492e-08
1.30236e-09
-5.54101e-08
1.26088e-09
-5.66295e-08
1.21942e-09
-5.78076e-08
1.17812e-09
-5.89447e-08
1.1371e-09
-6.00412e-08
1.09647e-09
-6.10975e-08
1.05632e-09
-6.21142e-08
1.01672e-09
-6.3092e-08
9.7775e-10
-6.40314e-08
9.39466e-10
-6.49334e-08
9.01916e-10
-6.57985e-08
8.65137e-10
-6.66277e-08
8.2916e-10
-6.74217e-08
7.94005e-10
-6.81813e-08
7.59684e-10
-6.89075e-08
7.26203e-10
-6.96011e-08
6.93559e-10
-7.02628e-08
6.61743e-10
-7.08936e-08
6.30742e-10
-7.14941e-08
6.00533e-10
-7.20652e-08
5.71092e-10
-7.26076e-08
5.42387e-10
-7.3122e-08
5.14385e-10
-7.3609e-08
4.87044e-10
-7.40693e-08
4.6032e-10
-7.45035e-08
4.34167e-10
-7.4912e-08
4.08534e-10
-7.52954e-08
3.83368e-10
-7.5654e-08
3.58613e-10
-7.59882e-08
3.34208e-10
-7.62983e-08
3.1009e-10
-7.65845e-08
2.86196e-10
-7.6847e-08
2.62462e-10
-7.70858e-08
2.3882e-10
-7.7301e-08
2.15202e-10
-7.74925e-08
1.91535e-10
-7.76603e-08
1.67747e-10
-7.78041e-08
1.43765e-10
-7.79236e-08
1.19518e-10
-7.80185e-08
9.49307e-11
-7.80884e-08
6.99286e-11
-7.81329e-08
4.44367e-11
-7.81513e-08
1.83809e-11
-7.81429e-08
-8.31177e-12
-7.81072e-08
-3.57142e-11
-7.80433e-08
-6.38987e-11
-7.79504e-08
-9.29364e-11
-7.78275e-08
-1.22896e-10
-7.76736e-08
-1.53845e-10
-7.74878e-08
-1.85846e-10
-7.72688e-08
-2.18961e-10
-7.70156e-08
-2.53248e-10
-7.67268e-08
-2.88758e-10
-7.64013e-08
-3.25543e-10
-7.60376e-08
-3.63646e-10
-7.56345e-08
-4.03104e-10
-7.51906e-08
-4.4395e-10
-7.47044e-08
-4.86206e-10
-7.41745e-08
-5.29891e-10
-7.35995e-08
-5.75011e-10
-7.29779e-08
-6.21566e-10
-7.23084e-08
-6.69545e-10
-7.15894e-08
-7.18924e-10
-7.08198e-08
-7.69669e-10
-6.9998e-08
-8.21733e-10
-6.9123e-08
-8.75055e-10
-6.81934e-08
-9.29559e-10
-6.72083e-08
-9.85156e-10
-6.61665e-08
-1.04174e-09
-6.50673e-08
-1.09918e-09
-6.391e-08
-1.15734e-09
-6.26939e-08
-1.21606e-09
-6.14188e-08
-1.27516e-09
-6.00844e-08
-1.33444e-09
-5.86907e-08
-1.39367e-09
-5.72381e-08
-1.45263e-09
-5.5727e-08
-1.51105e-09
-5.41584e-08
-1.56865e-09
-5.25332e-08
-1.62511e-09
-5.08531e-08
-1.68012e-09
-4.91198e-08
-1.73332e-09
-4.73355e-08
-1.78436e-09
-4.55026e-08
-1.83284e-09
-4.36243e-08
-1.87835e-09
-4.17038e-08
-1.92047e-09
-3.9745e-08
-1.95876e-09
-3.77523e-08
-1.99275e-09
-3.57303e-08
-2.02198e-09
-3.36843e-08
-2.04595e-09
-3.16202e-08
-2.06418e-09
-2.9544e-08
-2.07614e-09
-2.74627e-08
-2.08134e-09
-2.53834e-08
-2.07925e-09
-2.33141e-08
-2.06937e-09
-2.12629e-08
-2.05118e-09
-1.92387e-08
-2.02416e-09
-1.72509e-08
-1.98784e-09
-1.53092e-08
-1.94172e-09
-1.34238e-08
-1.88535e-09
-1.16055e-08
-1.8183e-09
-9.86535e-09
-1.74017e-09
-8.21474e-09
-1.65061e-09
-6.66539e-09
-1.54935e-09
-5.22921e-09
-1.43618e-09
-3.91819e-09
-1.31102e-09
-2.74424e-09
-1.17395e-09
-1.71896e-09
-1.02527e-09
-8.53335e-10
-8.65626e-10
-1.57186e-10
-6.96153e-10
3.61571e-10
-5.18763e-10
6.98189e-10
-3.36622e-10
8.53163e-10
-1.54974e-10
8.35722e-10
1.74411e-11
6.69666e-10
1.66053e-10
4.03733e-10
2.65938e-10
1.30712e-10
2.73048e-10
1.30746e-10
2.45216e-10
-3.59824e-10
6.33649e-10
-6.33791e-10
9.49562e-10
-5.60533e-10
1.04626e-09
-2.57507e-10
8.27902e-10
1.85432e-10
2.38019e-10
7.0662e-10
-7.51763e-10
1.26479e-09
-2.15045e-09
1.83266e-09
-3.9539e-09
2.39226e-09
-6.14914e-09
2.93186e-09
-8.71732e-09
3.44383e-09
-1.16357e-08
3.92333e-09
-1.48793e-08
4.36746e-09
-1.84216e-08
4.77463e-09
-2.22355e-08
5.14422e-09
-2.6294e-08
5.47629e-09
-3.05701e-08
5.7714e-09
-3.50376e-08
6.03046e-09
-3.96709e-08
6.25467e-09
-4.44457e-08
6.4454e-09
-4.93384e-08
6.60416e-09
-5.43266e-08
6.73256e-09
-5.93894e-08
6.83226e-09
-6.45068e-08
6.90497e-09
-6.96601e-08
6.9524e-09
-7.48319e-08
6.97626e-09
-8.00061e-08
6.97826e-09
-8.51677e-08
6.96005e-09
-9.03029e-08
6.92328e-09
-9.53991e-08
6.86952e-09
-1.00445e-07
6.8003e-09
-1.0543e-07
6.71712e-09
-1.10345e-07
6.62137e-09
-1.15181e-07
6.51443e-09
-1.19931e-07
6.39758e-09
-1.24589e-07
6.27204e-09
-1.29149e-07
6.13897e-09
-1.33606e-07
5.99945e-09
-1.37956e-07
5.85452e-09
-1.42196e-07
5.70511e-09
-1.46323e-07
5.55213e-09
-1.50334e-07
5.39638e-09
-1.54229e-07
5.23863e-09
-1.58006e-07
5.07958e-09
-1.61665e-07
4.91986e-09
-1.65206e-07
4.76005e-09
-1.68628e-07
4.60066e-09
-1.71933e-07
4.44218e-09
-1.75122e-07
4.28501e-09
-1.78195e-07
4.12952e-09
-1.81155e-07
3.97604e-09
-1.84002e-07
3.82483e-09
-1.86738e-07
3.67614e-09
-1.89367e-07
3.53016e-09
-1.91888e-07
3.38703e-09
-1.94306e-07
3.24689e-09
-1.96622e-07
3.10982e-09
-1.98838e-07
2.97587e-09
-2.00957e-07
2.84507e-09
-2.02981e-07
2.71743e-09
-2.04912e-07
2.5929e-09
-2.06753e-07
2.47145e-09
-2.08505e-07
2.35299e-09
-2.10172e-07
2.23743e-09
-2.11754e-07
2.12466e-09
-2.13254e-07
2.01455e-09
-2.14674e-07
1.90694e-09
-2.16015e-07
1.80168e-09
-2.1728e-07
1.69857e-09
-2.18469e-07
1.59744e-09
-2.19583e-07
1.49807e-09
-2.20625e-07
1.40026e-09
-2.21594e-07
1.30377e-09
-2.22493e-07
1.20836e-09
-2.2332e-07
1.1138e-09
-2.24078e-07
1.01984e-09
-2.24765e-07
9.26204e-10
-2.25383e-07
8.32644e-10
-2.2593e-07
7.38884e-10
-2.26407e-07
6.44649e-10
-2.26813e-07
5.49659e-10
-2.27147e-07
4.53635e-10
-2.27408e-07
3.56295e-10
-2.27596e-07
2.57356e-10
-2.27708e-07
1.56532e-10
-2.27743e-07
5.35406e-11
-2.27699e-07
-5.18985e-11
-2.27575e-07
-1.60063e-10
-2.27368e-07
-2.71226e-10
-2.27075e-07
-3.85656e-10
-2.26694e-07
-5.03612e-10
-2.26223e-07
-6.25347e-10
-2.25657e-07
-7.51099e-10
-2.24995e-07
-8.81098e-10
-2.24233e-07
-1.01556e-09
-2.23367e-07
-1.15468e-09
-2.22394e-07
-1.29864e-09
-2.2131e-07
-1.44761e-09
-2.20111e-07
-1.60172e-09
-2.18794e-07
-1.76108e-09
-2.17355e-07
-1.92577e-09
-2.15789e-07
-2.09586e-09
-2.14092e-07
-2.27135e-09
-2.12262e-07
-2.45224e-09
-2.10293e-07
-2.63847e-09
-2.08182e-07
-2.82994e-09
-2.05925e-07
-3.0265e-09
-2.03519e-07
-3.22797e-09
-2.0096e-07
-3.4341e-09
-1.98245e-07
-3.64458e-09
-1.95371e-07
-3.85905e-09
-1.92335e-07
-4.0771e-09
-1.89136e-07
-4.29823e-09
-1.85772e-07
-4.5219e-09
-1.8224e-07
-4.74748e-09
-1.78541e-07
-4.97426e-09
-1.74674e-07
-5.20148e-09
-1.7064e-07
-5.42829e-09
-1.66438e-07
-5.65375e-09
-1.62073e-07
-5.87686e-09
-1.57545e-07
-6.09653e-09
-1.52858e-07
-6.3116e-09
-1.48018e-07
-6.5208e-09
-1.43028e-07
-6.72283e-09
-1.37896e-07
-6.91626e-09
-1.32629e-07
-7.09963e-09
-1.27236e-07
-7.27139e-09
-1.21727e-07
-7.42991e-09
-1.16112e-07
-7.57353e-09
-1.10404e-07
-7.70051e-09
-1.04617e-07
-7.80905e-09
-9.87659e-08
-7.89733e-09
-9.28666e-08
-7.9635e-09
-8.69371e-08
-8.00565e-09
-8.09966e-08
-8.0219e-09
-7.50655e-08
-8.01032e-09
-6.91658e-08
-7.96904e-09
-6.33208e-08
-7.89617e-09
-5.75551e-08
-7.78988e-09
-5.18946e-08
-7.64842e-09
-4.63662e-08
-7.47008e-09
-4.09983e-08
-7.25328e-09
-3.582e-08
-6.9966e-09
-3.08614e-08
-6.69877e-09
-2.61532e-08
-6.35878e-09
-2.17266e-08
-5.97592e-09
-1.76129e-08
-5.54989e-09
-1.3843e-08
-5.08093e-09
-1.0447e-08
-4.57001e-09
-7.45314e-09
-4.01911e-09
-4.88712e-09
-3.43165e-09
-2.77015e-09
-2.81311e-09
-1.11696e-09
-2.17195e-09
6.75621e-11
-1.52114e-09
7.93034e-10
-8.80449e-10
1.09051e-09
-2.80038e-10
1.02236e-09
2.34187e-10
6.95113e-10
5.93138e-10
2.73017e-10
6.95075e-10
4.03782e-10
2.45665e-10
-6.05494e-10
5.63197e-10
-9.51304e-10
6.97445e-10
-6.94786e-10
4.74443e-10
-3.45222e-11
-2.25465e-10
8.85342e-10
-1.47815e-09
1.95932e-09
-3.32549e-09
3.11215e-09
-5.78404e-09
4.29119e-09
-8.85178e-09
5.46e-09
-1.25134e-08
6.59347e-09
-1.67441e-08
7.67454e-09
-2.15126e-08
8.69186e-09
-2.67833e-08
9.63812e-09
-3.25177e-08
1.0509e-08
-3.86758e-08
1.13023e-08
-4.5217e-08
1.20175e-08
-5.21007e-08
1.26551e-08
-5.92868e-08
1.32166e-08
-6.67362e-08
1.37041e-08
-7.4411e-08
1.41202e-08
-8.22746e-08
1.44678e-08
-9.02924e-08
1.47503e-08
-9.8431e-08
1.49709e-08
-1.06659e-07
1.51332e-08
-1.14948e-07
1.52407e-08
-1.23268e-07
1.52971e-08
-1.31596e-07
1.53058e-08
-1.39906e-07
1.52706e-08
-1.48178e-07
1.51947e-08
-1.5639e-07
1.50816e-08
-1.64524e-07
1.49346e-08
-1.72564e-07
1.47568e-08
-1.80494e-07
1.45514e-08
-1.88301e-07
1.43212e-08
-1.95972e-07
1.40691e-08
-2.03498e-07
1.37976e-08
-2.10868e-07
1.35094e-08
-2.18075e-07
1.32067e-08
-2.25113e-07
1.28919e-08
-2.31975e-07
1.25669e-08
-2.38656e-07
1.22338e-08
-2.45154e-07
1.18943e-08
-2.51466e-07
1.15501e-08
-2.57589e-07
1.12028e-08
-2.63523e-07
1.08536e-08
-2.69266e-07
1.0504e-08
-2.74821e-07
1.01551e-08
-2.80187e-07
9.8078e-09
-2.85365e-07
9.46316e-09
-2.90357e-07
9.12196e-09
-2.95166e-07
8.7849e-09
-2.99794e-07
8.45262e-09
-3.04243e-07
8.12563e-09
-3.08517e-07
7.80436e-09
-3.1262e-07
7.48918e-09
-3.16553e-07
7.18035e-09
-3.20321e-07
6.87808e-09
-3.23928e-07
6.58251e-09
-3.27377e-07
6.29369e-09
-3.30671e-07
6.01163e-09
-3.33814e-07
5.73629e-09
-3.3681e-07
5.46755e-09
-3.39662e-07
5.20527e-09
-3.42374e-07
4.94925e-09
-3.44949e-07
4.69924e-09
-3.47389e-07
4.45496e-09
-3.49698e-07
4.21609e-09
-3.51879e-07
3.98227e-09
-3.53934e-07
3.75313e-09
-3.55864e-07
3.52824e-09
-3.57673e-07
3.30716e-09
-3.59363e-07
3.08943e-09
-3.60933e-07
2.87455e-09
-3.62387e-07
2.66202e-09
-3.63725e-07
2.4513e-09
-3.64947e-07
2.24184e-09
-3.66053e-07
2.03308e-09
-3.67045e-07
1.82446e-09
-3.67922e-07
1.61538e-09
-3.68682e-07
1.40525e-09
-3.69326e-07
1.19345e-09
-3.69852e-07
9.7939e-10
-3.70258e-07
7.62445e-10
-3.70543e-07
5.42003e-10
-3.70704e-07
3.17448e-10
-3.70738e-07
8.81667e-11
-3.70644e-07
-1.4645e-10
-3.70417e-07
-3.87002e-10
-3.70054e-07
-6.34078e-10
-3.69551e-07
-8.88255e-10
-3.68905e-07
-1.15009e-09
-3.6811e-07
-1.42013e-09
-3.67162e-07
-1.69889e-09
-3.66056e-07
-1.98686e-09
-3.64788e-07
-2.2845e-09
-3.6335e-07
-2.59223e-09
-3.61738e-07
-2.91043e-09
-3.59946e-07
-3.23944e-09
-3.57969e-07
-3.57955e-09
-3.55799e-07
-3.93099e-09
-3.5343e-07
-4.29392e-09
-3.50858e-07
-4.66846e-09
-3.48075e-07
-5.05462e-09
-3.45074e-07
-5.45236e-09
-3.41851e-07
-5.86154e-09
-3.38399e-07
-6.28193e-09
-3.34713e-07
-6.71319e-09
-3.30786e-07
-7.15488e-09
-3.26613e-07
-7.60646e-09
-3.22191e-07
-8.06725e-09
-3.17513e-07
-8.53644e-09
-3.12577e-07
-9.01311e-09
-3.07379e-07
-9.49616e-09
-3.01917e-07
-9.98439e-09
-2.96188e-07
-1.04764e-08
-2.90192e-07
-1.09707e-08
-2.83928e-07
-1.14655e-08
-2.77397e-07
-1.19591e-08
-2.70601e-07
-1.24493e-08
-2.63544e-07
-1.2934e-08
-2.5623e-07
-1.34108e-08
-2.48664e-07
-1.38771e-08
-2.40855e-07
-1.43303e-08
-2.3281e-07
-1.47674e-08
-2.24541e-07
-1.51855e-08
-2.1606e-07
-1.55813e-08
-2.0738e-07
-1.59514e-08
-1.98517e-07
-1.62924e-08
-1.8949e-07
-1.66007e-08
-1.80318e-07
-1.68725e-08
-1.71023e-07
-1.7104e-08
-1.61629e-07
-1.72913e-08
-1.52162e-07
-1.74303e-08
-1.42651e-07
-1.75172e-08
-1.33125e-07
-1.75477e-08
-1.23617e-07
-1.7518e-08
-1.14162e-07
-1.74239e-08
-1.04797e-07
-1.72616e-08
-9.55593e-08
-1.70273e-08
-8.64904e-08
-1.67173e-08
-7.76322e-08
-1.63283e-08
-6.90285e-08
-1.5857e-08
-6.07244e-08
-1.53007e-08
-5.27661e-08
-1.4657e-08
-4.52006e-08
-1.39243e-08
-3.8075e-08
-1.31015e-08
-3.14361e-08
-1.21887e-08
-2.53299e-08
-1.11872e-08
-1.98e-08
-1.00999e-08
-1.4887e-08
-8.93218e-09
-1.06261e-08
-7.69255e-09
-7.04531e-09
-6.39386e-09
-4.1621e-09
-5.05517e-09
-1.97896e-09
-3.70428e-09
-4.77882e-10
-2.38153e-09
3.87355e-10
-1.14526e-09
7.00871e-10
-7.92965e-11
5.9588e-10
6.98143e-10
2.66806e-10
1.02411e-09
6.70587e-10
1.6367e-10
-7.6917e-10
2.64573e-10
-1.05218e-09
4.40317e-11
-4.74225e-10
-6.78297e-10
6.87802e-10
-2.02914e-09
2.23617e-09
-4.09169e-09
4.02187e-09
-6.91404e-09
5.93451e-09
-1.05167e-08
7.89389e-09
-1.4899e-08
9.84229e-09
-2.00441e-08
1.17386e-08
-2.59233e-08
1.35537e-08
-3.24991e-08
1.52677e-08
-3.97282e-08
1.68672e-08
-4.75628e-08
1.83437e-08
-5.5953e-08
1.96925e-08
-6.48471e-08
2.09117e-08
-7.41934e-08
2.20014e-08
-8.39403e-08
2.29635e-08
-9.40371e-08
2.38008e-08
-1.04434e-07
2.45175e-08
-1.15085e-07
2.5118e-08
-1.25942e-07
2.56074e-08
-1.36962e-07
2.59914e-08
-1.48104e-07
2.62755e-08
-1.59329e-07
2.64657e-08
-1.706e-07
2.6568e-08
-1.81883e-07
2.65884e-08
-1.93145e-07
2.65327e-08
-2.04357e-07
2.64069e-08
-2.15492e-07
2.62166e-08
-2.26525e-07
2.59675e-08
-2.37434e-07
2.5665e-08
-2.48197e-07
2.53143e-08
-2.58796e-07
2.49205e-08
-2.69215e-07
2.44882e-08
-2.79439e-07
2.40221e-08
-2.89457e-07
2.35265e-08
-2.99255e-07
2.30055e-08
-3.08826e-07
2.24629e-08
-3.18162e-07
2.19024e-08
-3.27255e-07
2.13272e-08
-3.36101e-07
2.07406e-08
-3.44697e-07
2.01454e-08
-3.53038e-07
1.95442e-08
-3.61124e-07
1.89396e-08
-3.68954e-07
1.83337e-08
-3.76527e-07
1.77285e-08
-3.83845e-07
1.71259e-08
-3.90909e-07
1.65275e-08
-3.97722e-07
1.59346e-08
-4.04286e-07
1.53487e-08
-4.10604e-07
1.47706e-08
-4.1668e-07
1.42015e-08
-4.22517e-07
1.3642e-08
-4.28121e-07
1.30928e-08
-4.33495e-07
1.25543e-08
-4.38644e-07
1.2027e-08
-4.43572e-07
1.1511e-08
-4.48285e-07
1.10066e-08
-4.52787e-07
1.05137e-08
-4.57083e-07
1.00322e-08
-4.61178e-07
9.56204e-09
-4.65075e-07
9.10291e-09
-4.6878e-07
8.65449e-09
-4.72298e-07
8.21635e-09
-4.75631e-07
7.78803e-09
-4.78783e-07
7.36897e-09
-4.8176e-07
6.95858e-09
-4.84563e-07
6.55618e-09
-4.87196e-07
6.16107e-09
-4.89661e-07
5.77249e-09
-4.91961e-07
5.38963e-09
-4.94098e-07
5.01165e-09
-4.96074e-07
4.63768e-09
-4.97889e-07
4.2668e-09
-4.99546e-07
3.89807e-09
-5.01043e-07
3.53051e-09
-5.02382e-07
3.16315e-09
-5.03561e-07
2.79497e-09
-5.04581e-07
2.42494e-09
-5.0544e-07
2.05204e-09
-5.06135e-07
1.67519e-09
-5.06666e-07
1.29335e-09
-5.0703e-07
9.05467e-10
-5.07223e-07
5.10475e-10
-5.07242e-07
1.07323e-10
-5.07083e-07
-3.0503e-10
-5.06743e-07
-7.27616e-10
-5.06215e-07
-1.16144e-09
-5.05496e-07
-1.6075e-09
-5.0458e-07
-2.06674e-09
-5.0346e-07
-2.54009e-09
-5.0213e-07
-3.02843e-09
-5.00584e-07
-3.53259e-09
-4.98815e-07
-4.05335e-09
-4.96816e-07
-4.59142e-09
-4.94579e-07
-5.14745e-09
-4.92097e-07
-5.722e-09
-4.89361e-07
-6.31555e-09
-4.86363e-07
-6.92848e-09
-4.83096e-07
-7.56105e-09
-4.79551e-07
-8.21343e-09
-4.7572e-07
-8.88564e-09
-4.71595e-07
-9.57757e-09
-4.67167e-07
-1.0289e-08
-4.6243e-07
-1.10194e-08
-4.57375e-07
-1.17682e-08
-4.51995e-07
-1.25347e-08
-4.46284e-07
-1.33179e-08
-4.40235e-07
-1.41165e-08
-4.33842e-07
-1.49292e-08
-4.271e-07
-1.57544e-08
-4.20006e-07
-1.65901e-08
-4.12557e-07
-1.74343e-08
-4.04749e-07
-1.82844e-08
-3.96581e-07
-1.9138e-08
-3.88055e-07
-1.9992e-08
-3.79171e-07
-2.08431e-08
-3.69932e-07
-2.1688e-08
-3.60343e-07
-2.25228e-08
-3.50411e-07
-2.33433e-08
-3.40142e-07
-2.41453e-08
-3.29549e-07
-2.49241e-08
-3.18641e-07
-2.56746e-08
-3.07435e-07
-2.63917e-08
-2.95947e-07
-2.70699e-08
-2.84195e-07
-2.77034e-08
-2.72201e-07
-2.82863e-08
-2.59989e-07
-2.88124e-08
-2.47586e-07
-2.92753e-08
-2.35022e-07
-2.96685e-08
-2.22328e-07
-2.99853e-08
-2.09539e-07
-3.02191e-08
-1.96693e-07
-3.03629e-08
-1.83831e-07
-3.04099e-08
-1.70996e-07
-3.03535e-08
-1.58233e-07
-3.01868e-08
-1.45591e-07
-2.99034e-08
-1.33121e-07
-2.94971e-08
-1.20877e-07
-2.89618e-08
-1.08913e-07
-2.8292e-08
-9.72873e-08
-2.74828e-08
-8.60581e-08
-2.65299e-08
-7.52854e-08
-2.54297e-08
-6.50296e-08
-2.41801e-08
-5.5351e-08
-2.27802e-08
-4.6309e-08
-2.12307e-08
-3.79613e-08
-1.95349e-08
-3.0362e-08
-1.76991e-08
-2.35606e-08
-1.57336e-08
-1.75994e-08
-1.36537e-08
-1.25109e-08
-1.14824e-08
-8.31404e-09
-9.25204e-09
-5.00991e-09
-7.00842e-09
-2.57593e-09
-4.81553e-09
-9.58828e-10
-2.76238e-09
-6.62141e-11
-9.71905e-10
2.42814e-10
3.89141e-10
1.68934e-10
1.09798e-09
8.39516e-10
3.77005e-11
-8.06879e-10
-1.74262e-10
-8.40222e-10
-8.70615e-10
2.22146e-10
-2.2214e-09
2.0386e-09
-4.34838e-09
4.36315e-09
-7.33307e-09
7.00655e-09
-1.12234e-08
9.82484e-09
-1.60399e-08
1.27104e-08
-2.17811e-08
1.55835e-08
-2.84283e-08
1.83857e-08
-3.59491e-08
2.10745e-08
-4.43014e-08
2.362e-08
-5.34355e-08
2.60013e-08
-6.32967e-08
2.82048e-08
-7.38265e-08
3.02224e-08
-8.49649e-08
3.205e-08
-9.66505e-08
3.3687e-08
-1.08822e-07
3.51352e-08
-1.2142e-07
3.63983e-08
-1.34384e-07
3.74814e-08
-1.47657e-07
3.83911e-08
-1.61184e-07
3.91344e-08
-1.74912e-07
3.97193e-08
-1.8879e-07
4.01539e-08
-2.02771e-07
4.04469e-08
-2.1681e-07
4.06071e-08
-2.30865e-07
4.06432e-08
-2.44896e-07
4.0564e-08
-2.58868e-07
4.03782e-08
-2.72746e-07
4.00945e-08
-2.86499e-07
3.97211e-08
-3.001e-07
3.92662e-08
-3.13523e-07
3.87376e-08
-3.26746e-07
3.81429e-08
-3.39747e-07
3.74892e-08
-3.52508e-07
3.67836e-08
-3.65014e-07
3.60325e-08
-3.77251e-07
3.52422e-08
-3.89207e-07
3.44185e-08
-4.00871e-07
3.35668e-08
-4.12236e-07
3.26923e-08
-4.23295e-07
3.17997e-08
-4.34043e-07
3.08935e-08
-4.44477e-07
2.99776e-08
-4.54593e-07
2.90559e-08
-4.64391e-07
2.81318e-08
-4.73871e-07
2.72082e-08
-4.83033e-07
2.62881e-08
-4.9188e-07
2.53738e-08
-5.00413e-07
2.44677e-08
-5.08636e-07
2.35715e-08
-5.16552e-07
2.26871e-08
-5.24166e-07
2.18158e-08
-5.31483e-07
2.09588e-08
-5.38507e-07
2.01171e-08
-5.45245e-07
1.92915e-08
-5.517e-07
1.84826e-08
-5.5788e-07
1.76908e-08
-5.6379e-07
1.69162e-08
-5.69435e-07
1.6159e-08
-5.74822e-07
1.54189e-08
-5.79956e-07
1.46959e-08
-5.84842e-07
1.39895e-08
-5.89487e-07
1.32993e-08
-5.93895e-07
1.26245e-08
-5.98072e-07
1.19645e-08
-6.02021e-07
1.13186e-08
-6.05748e-07
1.06856e-08
-6.09257e-07
1.00648e-08
-6.12551e-07
9.45495e-09
-6.15633e-07
8.85495e-09
-6.18507e-07
8.26358e-09
-6.21175e-07
7.67957e-09
-6.23639e-07
7.10158e-09
-6.25901e-07
6.52823e-09
-6.27961e-07
5.95811e-09
-6.2982e-07
5.38974e-09
-6.31478e-07
4.82163e-09
-6.32936e-07
4.25223e-09
-6.34191e-07
3.68e-09
-6.35242e-07
3.10336e-09
-6.36087e-07
2.52073e-09
-6.36725e-07
1.9305e-09
-6.3715e-07
1.33108e-09
-6.37361e-07
7.20856e-10
-6.37352e-07
9.82476e-11
-6.37118e-07
-5.38321e-10
-6.36655e-07
-1.19041e-09
-6.35957e-07
-1.85953e-09
-6.35018e-07
-2.54718e-09
-6.3383e-07
-3.25479e-09
-6.32386e-07
-3.98376e-09
-6.30679e-07
-4.73539e-09
-6.28701e-07
-5.51095e-09
-6.26442e-07
-6.31159e-09
-6.23895e-07
-7.13837e-09
-6.21051e-07
-7.99226e-09
-6.17899e-07
-8.87408e-09
-6.1443e-07
-9.78453e-09
-6.10634e-07
-1.07242e-08
-6.06502e-07
-1.16934e-08
-6.02023e-07
-1.26924e-08
-5.97187e-07
-1.37211e-08
-5.91985e-07
-1.47795e-08
-5.86407e-07
-1.5867e-08
-5.80443e-07
-1.6983e-08
-5.74085e-07
-1.81266e-08
-5.67323e-07
-1.92964e-08
-5.6015e-07
-2.04911e-08
-5.52558e-07
-2.17087e-08
-5.4454e-07
-2.29472e-08
-5.36091e-07
-2.42039e-08
-5.27205e-07
-2.5476e-08
-5.17879e-07
-2.67603e-08
-5.0811e-07
-2.80531e-08
-4.97898e-07
-2.93503e-08
-4.87242e-07
-3.06474e-08
-4.76146e-07
-3.19396e-08
-4.64612e-07
-3.32215e-08
-4.52648e-07
-3.44874e-08
-4.4026e-07
-3.5731e-08
-4.2746e-07
-3.69457e-08
-4.14259e-07
-3.81244e-08
-4.00674e-07
-3.92597e-08
-3.86722e-07
-4.03436e-08
-3.72424e-07
-4.13678e-08
-3.57804e-07
-4.23238e-08
-3.42888e-07
-4.32025e-08
-3.27706e-07
-4.39946e-08
-3.1229e-07
-4.46906e-08
-2.96678e-07
-4.52807e-08
-2.80908e-07
-4.57549e-08
-2.65024e-07
-4.61032e-08
-2.49072e-07
-4.63153e-08
-2.33101e-07
-4.63812e-08
-2.17163e-07
-4.62908e-08
-2.01316e-07
-4.60344e-08
-1.85617e-07
-4.56023e-08
-1.70129e-07
-4.49854e-08
-1.54915e-07
-4.41751e-08
-1.40044e-07
-4.31636e-08
-1.25583e-07
-4.19439e-08
-1.11602e-07
-4.05101e-08
-9.81742e-08
-3.88578e-08
-8.537e-08
-3.69844e-08
-7.32608e-08
-3.48893e-08
-6.19164e-08
-3.25751e-08
-5.14036e-08
-3.00477e-08
-4.17853e-08
-2.73175e-08
-3.31177e-08
-2.44012e-08
-2.54487e-08
-2.13227e-08
-1.88146e-08
-1.81164e-08
-1.32367e-08
-1.48299e-08
-8.71678e-09
-1.15284e-08
-5.23201e-09
-8.30029e-09
-2.72922e-09
-5.26519e-09
-1.11793e-09
-2.58321e-09
-2.63149e-10
-4.65625e-10
2.3229e-11
8.11607e-10
8.62745e-10
-1.10611e-10
-6.96262e-10
-6.93994e-10
-2.56853e-10
-1.94591e-09
1.47406e-09
-4.01414e-09
4.10685e-09
-7.00647e-09
7.35549e-09
-1.09957e-08
1.09957e-08
-1.60241e-08
1.48533e-08
-2.21086e-08
1.87949e-08
-2.92444e-08
2.27193e-08
-3.74094e-08
2.65507e-08
-4.65677e-08
3.02328e-08
-5.66724e-08
3.37247e-08
-6.76686e-08
3.69975e-08
-7.94954e-08
4.00316e-08
-9.20876e-08
4.28146e-08
-1.05378e-07
4.53401e-08
-1.19297e-07
4.7606e-08
-1.33775e-07
4.96139e-08
-1.48745e-07
5.13679e-08
-1.64138e-07
5.28745e-08
-1.79889e-07
5.41419e-08
-1.95934e-07
5.51794e-08
-2.12212e-07
5.59975e-08
-2.28665e-07
5.6607e-08
-2.45238e-07
5.70196e-08
-2.61878e-07
5.72472e-08
-2.78537e-07
5.73017e-08
-2.95168e-07
5.71952e-08
-3.11729e-07
5.69395e-08
-3.28181e-07
5.65465e-08
-3.44488e-07
5.60278e-08
-3.60616e-07
5.53944e-08
-3.76536e-07
5.46574e-08
-3.9222e-07
5.38271e-08
-4.07645e-07
5.29138e-08
-4.22788e-07
5.19268e-08
-4.37631e-07
5.08755e-08
-4.52157e-07
4.97685e-08
-4.66353e-07
4.86139e-08
-4.80205e-07
4.74193e-08
-4.93705e-07
4.61921e-08
-5.06844e-07
4.49388e-08
-5.19616e-07
4.36656e-08
-5.32017e-07
4.23783e-08
-5.44043e-07
4.10822e-08
-5.55693e-07
3.97819e-08
-5.66967e-07
3.84819e-08
-5.77865e-07
3.7186e-08
-5.88389e-07
3.58979e-08
-5.98542e-07
3.46206e-08
-6.08327e-07
3.33569e-08
-6.17749e-07
3.21091e-08
-6.26813e-07
3.08793e-08
-6.35523e-07
2.96692e-08
-6.43886e-07
2.84802e-08
-6.51908e-07
2.73134e-08
-6.59595e-07
2.61697e-08
-6.66954e-07
2.50495e-08
-6.73991e-07
2.39534e-08
-6.80713e-07
2.28813e-08
-6.87127e-07
2.18331e-08
-6.9324e-07
2.08085e-08
-6.99058e-07
1.98071e-08
-7.04586e-07
1.88281e-08
-7.09833e-07
1.78707e-08
-7.14802e-07
1.69339e-08
-7.195e-07
1.60165e-08
-7.23932e-07
1.51174e-08
-7.28102e-07
1.4235e-08
-7.32015e-07
1.3368e-08
-7.35675e-07
1.25147e-08
-7.39084e-07
1.16734e-08
-7.42247e-07
1.08423e-08
-7.45165e-07
1.00197e-08
-7.47841e-07
9.20344e-09
-7.50274e-07
8.39168e-09
-7.52467e-07
7.58232e-09
-7.54418e-07
6.77328e-09
-7.56129e-07
5.96241e-09
-7.57596e-07
5.14753e-09
-7.58819e-07
4.32647e-09
-7.59795e-07
3.49698e-09
-7.60522e-07
2.65685e-09
-7.60994e-07
1.80383e-09
-7.61209e-07
9.35701e-10
-7.61161e-07
5.0236e-11
-7.60845e-07
-8.54755e-10
-7.60254e-07
-1.78143e-09
-7.59381e-07
-2.73192e-09
-7.5822e-07
-3.70829e-09
-7.56763e-07
-4.71253e-09
-7.55e-07
-5.74657e-09
-7.52923e-07
-6.81223e-09
-7.50523e-07
-7.91125e-09
-7.47789e-07
-9.04522e-09
-7.44712e-07
-1.02156e-08
-7.4128e-07
-1.14237e-08
-7.37484e-07
-1.26707e-08
-7.33311e-07
-1.39575e-08
-7.2875e-07
-1.52849e-08
-7.2379e-07
-1.66534e-08
-7.18419e-07
-1.80631e-08
-7.12626e-07
-1.95142e-08
-7.06399e-07
-2.10062e-08
-6.99728e-07
-2.25386e-08
-6.926e-07
-2.41104e-08
-6.85007e-07
-2.57201e-08
-6.76937e-07
-2.73662e-08
-6.68382e-07
-2.90463e-08
-6.59333e-07
-3.0758e-08
-6.49782e-07
-3.24981e-08
-6.39723e-07
-3.4263e-08
-6.2915e-07
-3.60488e-08
-6.18059e-07
-3.78509e-08
-6.06448e-07
-3.9664e-08
-5.94316e-07
-4.14825e-08
-5.81663e-07
-4.33001e-08
-5.68493e-07
-4.51099e-08
-5.5481e-07
-4.69045e-08
-5.40622e-07
-4.86758e-08
-5.25938e-07
-5.04151e-08
-5.1077e-07
-5.21132e-08
-4.95135e-07
-5.37601e-08
-4.79049e-07
-5.53455e-08
-4.62534e-07
-5.68583e-08
-4.45615e-07
-5.82871e-08
-4.28319e-07
-5.96198e-08
-4.10677e-07
-6.08439e-08
-3.92725e-07
-6.19465e-08
-3.74502e-07
-6.29144e-08
-3.56048e-07
-6.37341e-08
-3.37411e-07
-6.43918e-08
-3.18641e-07
-6.48735e-08
-2.99791e-07
-6.51654e-08
-2.80918e-07
-6.52536e-08
-2.62085e-07
-6.51244e-08
-2.43355e-07
-6.47644e-08
-2.24796e-07
-6.41606e-08
-2.06481e-07
-6.33008e-08
-1.88483e-07
-6.21734e-08
-1.70878e-07
-6.07682e-08
-1.53746e-07
-5.90761e-08
-1.37167e-07
-5.70896e-08
-1.21221e-07
-5.48035e-08
-1.0599e-07
-5.22151e-08
-9.15545e-08
-4.93249e-08
-7.79925e-08
-4.61372e-08
-6.53787e-08
-4.26614e-08
-5.37829e-08
-3.89133e-08
-4.32676e-08
-3.49165e-08
-3.38858e-08
-3.07045e-08
-2.5678e-08
-2.63242e-08
-1.86691e-08
-2.18389e-08
-1.28641e-08
-1.73333e-08
-8.24456e-09
-1.29198e-08
-4.76324e-09
-8.74651e-09
-2.33956e-09
-5.00692e-09
-8.54533e-10
-1.95065e-09
-1.4584e-10
1.02911e-10
7.16908e-10
-2.68828e-10
-4.27422e-10
-1.25585e-09
7.30173e-10
-3.11172e-09
3.32992e-09
-5.95469e-09
6.94981e-09
-9.87216e-09
1.1273e-08
-1.49228e-08
1.60463e-08
-2.1139e-08
2.10695e-08
-2.85302e-08
2.61861e-08
-3.70862e-08
3.12753e-08
-4.678e-08
3.62444e-08
-5.75707e-08
4.10236e-08
-6.9407e-08
4.5561e-08
-8.22285e-08
4.98191e-08
-9.59689e-08
5.3772e-08
-1.10557e-07
5.74028e-08
-1.25919e-07
6.07022e-08
-1.4198e-07
6.36663e-08
-1.58662e-07
6.62961e-08
-1.7589e-07
6.85964e-08
-1.9359e-07
7.05745e-08
-2.11689e-07
7.22405e-08
-2.30115e-07
7.36058e-08
-2.48801e-07
7.46836e-08
-2.67682e-07
7.54878e-08
-2.86696e-07
7.60331e-08
-3.05783e-07
7.63348e-08
-3.2489e-07
7.64083e-08
-3.43964e-07
7.62691e-08
-3.62957e-07
7.59328e-08
-3.81825e-07
7.54147e-08
-4.00527e-07
7.47298e-08
-4.19026e-07
7.38929e-08
-4.37287e-07
7.29183e-08
-4.55279e-07
7.18196e-08
-4.72975e-07
7.06101e-08
-4.90351e-07
6.93026e-08
-5.07385e-07
6.79089e-08
-5.24057e-07
6.64407e-08
-5.40351e-07
6.49086e-08
-5.56255e-07
6.33228e-08
-5.71755e-07
6.16928e-08
-5.86844e-07
6.00275e-08
-6.01514e-07
5.83352e-08
-6.15759e-07
5.66233e-08
-6.29575e-07
5.48989e-08
-6.42962e-07
5.31684e-08
-6.55918e-07
5.14376e-08
-6.68443e-07
4.97116e-08
-6.80541e-07
4.79953e-08
-6.92213e-07
4.62928e-08
-7.03464e-07
4.46076e-08
-7.14298e-07
4.29431e-08
-7.2472e-07
4.1302e-08
-7.34738e-07
3.96866e-08
-7.44356e-07
3.80987e-08
-7.53583e-07
3.65399e-08
-7.62424e-07
3.50113e-08
-7.70888e-07
3.35136e-08
-7.78982e-07
3.20474e-08
-7.86714e-07
3.06129e-08
-7.94091e-07
2.92098e-08
-8.0112e-07
2.78378e-08
-8.07809e-07
2.64962e-08
-8.14165e-07
2.51842e-08
-8.20195e-07
2.39006e-08
-8.25906e-07
2.26442e-08
-8.31302e-07
2.14134e-08
-8.36392e-07
2.02066e-08
-8.41179e-07
1.9022e-08
-8.45668e-07
1.78576e-08
-8.49865e-07
1.67113e-08
-8.53772e-07
1.55808e-08
-8.57394e-07
1.44638e-08
-8.60732e-07
1.33578e-08
-8.63789e-07
1.22603e-08
-8.66566e-07
1.11686e-08
-8.69063e-07
1.00801e-08
-8.71282e-07
8.99202e-09
-8.73221e-07
7.90145e-09
-8.74879e-07
6.80555e-09
-8.76254e-07
5.70143e-09
-8.77343e-07
4.58615e-09
-8.78143e-07
3.45676e-09
-8.7865e-07
2.31032e-09
-8.78858e-07
1.14389e-09
-8.78762e-07
-4.54722e-11
-8.78356e-07
-1.26065e-09
-8.77633e-07
-2.50449e-09
-8.76585e-07
-3.77978e-09
-8.75204e-07
-5.08924e-09
-8.73481e-07
-6.4355e-09
-8.71407e-07
-7.82108e-09
-8.68971e-07
-9.24839e-09
-8.66162e-07
-1.07197e-08
-8.62971e-07
-1.2237e-08
-8.59384e-07
-1.38024e-08
-8.5539e-07
-1.54174e-08
-8.50977e-07
-1.70836e-08
-8.46132e-07
-1.88022e-08
-8.40843e-07
-2.05742e-08
-8.35097e-07
-2.24e-08
-8.28879e-07
-2.42802e-08
-8.22179e-07
-2.62146e-08
-8.14983e-07
-2.82027e-08
-8.07278e-07
-3.02436e-08
-7.99052e-07
-3.23361e-08
-7.90294e-07
-3.44783e-08
-7.80992e-07
-3.66678e-08
-7.71137e-07
-3.89017e-08
-7.60718e-07
-4.11766e-08
-7.49728e-07
-4.34884e-08
-7.38159e-07
-4.58322e-08
-7.26005e-07
-4.82029e-08
-7.13261e-07
-5.05941e-08
-6.99926e-07
-5.29991e-08
-6.85998e-07
-5.54104e-08
-6.71479e-07
-5.78195e-08
-6.56371e-07
-6.02175e-08
-6.40681e-07
-6.25944e-08
-6.24418e-07
-6.49396e-08
-6.07591e-07
-6.72416e-08
-5.90216e-07
-6.94881e-08
-5.7231e-07
-7.16662e-08
-5.53894e-07
-7.37621e-08
-5.34991e-07
-7.57613e-08
-5.15629e-07
-7.76487e-08
-4.9584e-07
-7.94085e-08
-4.7566e-07
-8.10242e-08
-4.55128e-07
-8.2479e-08
-4.34287e-07
-8.37554e-08
-4.13185e-07
-8.48359e-08
-3.91874e-07
-8.57024e-08
-3.70411e-07
-8.63367e-08
-3.48855e-07
-8.67209e-08
-3.27272e-07
-8.68367e-08
-3.0573e-07
-8.66666e-08
-2.84301e-07
-8.61931e-08
-2.63062e-07
-8.53999e-08
-2.42092e-07
-8.4271e-08
-2.21473e-07
-8.27921e-08
-2.01291e-07
-8.09502e-08
-1.81633e-07
-7.8734e-08
-1.62588e-07
-7.61347e-08
-1.44245e-07
-7.31464e-08
-1.26694e-07
-6.97664e-08
-1.10023e-07
-6.59964e-08
-9.43166e-08
-6.18433e-08
-7.96576e-08
-5.73204e-08
-6.61217e-08
-5.24492e-08
-5.37772e-08
-4.72609e-08
-4.26827e-08
-4.17991e-08
-3.28837e-08
-3.61232e-08
-2.44105e-08
-3.03121e-08
-1.72744e-08
-2.44694e-08
-1.14648e-08
-1.87294e-08
-6.94549e-09
-1.32658e-08
-3.65172e-09
-8.30069e-09
-1.48755e-09
-4.11483e-09
-3.2429e-10
-1.06035e-09
3.92617e-10
-4.29688e-10
2.26709e-12
-1.83498e-09
2.13548e-09
-4.32045e-09
5.81539e-09
-7.97116e-09
1.06005e-08
-1.28501e-08
1.61519e-08
-1.89979e-08
2.21941e-08
-2.64335e-08
2.85051e-08
-3.51563e-08
3.49089e-08
-4.51479e-08
4.12669e-08
-5.63747e-08
4.74713e-08
-6.87903e-08
5.34392e-08
-8.23376e-08
5.91082e-08
-9.69511e-08
6.44326e-08
-1.12559e-07
6.93798e-08
-1.29085e-07
7.39284e-08
-1.46448e-07
7.80658e-08
-1.64568e-07
8.17863e-08
-1.83362e-07
8.50903e-08
-2.02748e-07
8.79825e-08
-2.22646e-07
9.04717e-08
-2.42975e-07
9.25695e-08
-2.63658e-07
9.42897e-08
-2.84623e-07
9.5648e-08
-3.05797e-07
9.66617e-08
-3.27112e-07
9.73487e-08
-3.48505e-07
9.77277e-08
-3.69915e-07
9.78181e-08
-3.91285e-07
9.76391e-08
-4.12562e-07
9.72101e-08
-4.33698e-07
9.65502e-08
-4.54647e-07
9.56784e-08
-4.75367e-07
9.46131e-08
-4.95821e-07
9.33724e-08
-5.15975e-07
9.19734e-08
-5.35798e-07
9.04331e-08
-5.55262e-07
8.87673e-08
-5.74345e-07
8.69913e-08
-5.93024e-07
8.51196e-08
-6.11281e-07
8.3166e-08
-6.29102e-07
8.11433e-08
-6.46472e-07
7.90636e-08
-6.63383e-07
7.69381e-08
-6.79825e-07
7.47774e-08
-6.95793e-07
7.25911e-08
-7.11282e-07
7.03882e-08
-7.26291e-07
6.81767e-08