/*--------------------------------*- C++ -*----------------------------------*\
  =========                 |
  \\      /  F ield         | OpenFOAM: The Open Source CFD Toolbox
   \\    /   O peration     | Website:  https://openfoam.org
    \\  /    A nd           | Version:  7
     \\/     M anipulation  |
\*---------------------------------------------------------------------------*/
FoamFile
{
    version     2.0;
    format      ascii;
    class       surfaceScalarField;
    location    "0.2375";
    object      phi;
}
// * * * * * * * * * * * * * * * * * * * * * * * * * * * * * * * * * * * * * //

dimensions      [0 3 -1 0 0 0 0];

internalField   nonuniform List<scalar> 
25360
(
1.14172e-10
-1.14441e-10
3.59453e-10
-2.45291e-10
6.04064e-10
-2.44606e-10
7.64909e-10
-1.60838e-10
7.97865e-10
-3.29567e-11
6.81139e-10
1.16724e-10
4.06107e-10
2.75033e-10
-2.78972e-11
4.34009e-10
-6.16744e-10
5.88851e-10
-1.35341e-09
7.36669e-10
-2.22914e-09
8.75724e-10
-3.23415e-09
1.00501e-09
-4.35814e-09
1.12399e-09
-5.59059e-09
1.23245e-09
-6.92098e-09
1.33039e-09
-8.33895e-09
1.41797e-09
-9.83439e-09
1.49544e-09
-1.13975e-08
1.56313e-09
-1.3019e-08
1.62144e-09
-1.46898e-08
1.67079e-09
-1.64014e-08
1.71163e-09
-1.81458e-08
1.74442e-09
-1.99154e-08
1.76964e-09
-2.17032e-08
1.78776e-09
-2.35025e-08
1.79925e-09
-2.5307e-08
1.80459e-09
-2.71113e-08
1.80424e-09
-2.89099e-08
1.79864e-09
-3.06981e-08
1.78823e-09
-3.24716e-08
1.77344e-09
-3.42263e-08
1.75467e-09
-3.59586e-08
1.73231e-09
-3.76653e-08
1.70675e-09
-3.93436e-08
1.67833e-09
-4.0991e-08
1.64739e-09
-4.26053e-08
1.61426e-09
-4.41845e-08
1.57923e-09
-4.57271e-08
1.54259e-09
-4.72317e-08
1.5046e-09
-4.86972e-08
1.46551e-09
-5.01228e-08
1.42556e-09
-5.15077e-08
1.38494e-09
-5.28516e-08
1.34386e-09
-5.41541e-08
1.3025e-09
-5.54151e-08
1.26101e-09
-5.66347e-08
1.21956e-09
-5.78129e-08
1.17826e-09
-5.89502e-08
1.13724e-09
-6.00468e-08
1.0966e-09
-6.11032e-08
1.05644e-09
-6.212e-08
1.01684e-09
-6.30979e-08
9.77873e-10
-6.40375e-08
9.39586e-10
-6.49395e-08
9.02033e-10
-6.58048e-08
8.65252e-10
-6.66341e-08
8.29273e-10
-6.74282e-08
7.94115e-10
-6.8188e-08
7.59791e-10
-6.89143e-08
7.26307e-10
-6.96079e-08
6.9366e-10
-7.02698e-08
6.61842e-10
-7.09006e-08
6.30837e-10
-7.15012e-08
6.00626e-10
-7.20724e-08
5.71182e-10
-7.26149e-08
5.42475e-10
-7.31294e-08
5.14468e-10
-7.36165e-08
4.87124e-10
-7.40769e-08
4.60397e-10
-7.45111e-08
4.34242e-10
-7.49197e-08
4.08606e-10
-7.53032e-08
3.83435e-10
-7.56619e-08
3.58675e-10
-7.59961e-08
3.34265e-10
-7.63063e-08
3.10144e-10
-7.65925e-08
2.86248e-10
-7.6855e-08
2.62511e-10
-7.70939e-08
2.38866e-10
-7.73091e-08
2.15242e-10
-7.75007e-08
1.9157e-10
-7.76685e-08
1.67778e-10
-7.78123e-08
1.43793e-10
-7.79318e-08
1.19542e-10
-7.80268e-08
9.495e-11
-7.80967e-08
6.99432e-11
-7.81412e-08
4.44471e-11
-7.81596e-08
1.83875e-11
-7.81512e-08
-8.30936e-12
-7.81155e-08
-3.57166e-11
-7.80516e-08
-6.39063e-11
-7.79587e-08
-9.29491e-11
-7.78358e-08
-1.22914e-10
-7.76819e-08
-1.53867e-10
-7.7496e-08
-1.85872e-10
-7.7277e-08
-2.18991e-10
-7.70237e-08
-2.53282e-10
-7.6735e-08
-2.88797e-10
-7.64094e-08
-3.25587e-10
-7.60457e-08
-3.63694e-10
-7.56425e-08
-4.03157e-10
-7.51985e-08
-4.44006e-10
-7.47122e-08
-4.86267e-10
-7.41823e-08
-5.29957e-10
-7.36072e-08
-5.75082e-10
-7.29856e-08
-6.21642e-10
-7.23159e-08
-6.69626e-10
-7.15969e-08
-7.1901e-10
-7.08272e-08
-7.6976e-10
-7.00053e-08
-8.21828e-10
-6.91302e-08
-8.75155e-10
-6.82005e-08
-9.29664e-10
-6.72152e-08
-9.85265e-10
-6.61734e-08
-1.04185e-09
-6.50741e-08
-1.0993e-09
-6.39166e-08
-1.15746e-09
-6.27004e-08
-1.21619e-09
-6.14251e-08
-1.27529e-09
-6.00906e-08
-1.33458e-09
-5.86967e-08
-1.39382e-09
-5.7244e-08
-1.45279e-09
-5.57327e-08
-1.51121e-09
-5.41639e-08
-1.56881e-09
-5.25387e-08
-1.62528e-09
-5.08584e-08
-1.68029e-09
-4.91249e-08
-1.7335e-09
-4.73403e-08
-1.78454e-09
-4.55073e-08
-1.83302e-09
-4.36288e-08
-1.87854e-09
-4.17081e-08
-1.92067e-09
-3.97491e-08
-1.95896e-09
-3.77562e-08
-1.99296e-09
-3.5734e-08
-2.02219e-09
-3.36878e-08
-2.04616e-09
-3.16234e-08
-2.06439e-09
-2.95471e-08
-2.07635e-09
-2.74655e-08
-2.08155e-09
-2.53861e-08
-2.07947e-09
-2.33165e-08
-2.06959e-09
-2.12651e-08
-2.05139e-09
-1.92407e-08
-2.02438e-09
-1.72527e-08
-1.98805e-09
-1.53107e-08
-1.94193e-09
-1.34252e-08
-1.88556e-09
-1.16067e-08
-1.8185e-09
-9.86632e-09
-1.74036e-09
-8.21552e-09
-1.65079e-09
-6.666e-09
-1.54952e-09
-5.22965e-09
-1.43634e-09
-3.91849e-09
-1.31117e-09
-2.74442e-09
-1.17408e-09
-1.71903e-09
-1.02538e-09
-8.53315e-10
-8.65708e-10
-1.57091e-10
-6.9621e-10
3.61717e-10
-5.18803e-10
6.98362e-10
-3.36648e-10
8.53334e-10
-1.54984e-10
8.35865e-10
1.74542e-11
6.69769e-10
1.6609e-10
4.03796e-10
2.65987e-10
1.30736e-10
2.73088e-10
1.30757e-10
2.45343e-10
-3.59794e-10
6.33844e-10
-6.33793e-10
9.49815e-10
-5.60575e-10
1.04654e-09
-2.57558e-10
8.28182e-10
1.85404e-10
2.38264e-10
7.06643e-10
-7.51577e-10
1.26487e-09
-2.15036e-09
1.83279e-09
-3.95396e-09
2.39246e-09
-6.1494e-09
2.93211e-09
-8.71781e-09
3.44414e-09
-1.16365e-08
3.92369e-09
-1.48804e-08
4.36786e-09
-1.8423e-08
4.77507e-09
-2.22373e-08
5.14469e-09
-2.62961e-08
5.47679e-09
-3.05726e-08
5.77193e-09
-3.50405e-08
6.03102e-09
-3.96743e-08
6.25524e-09
-4.44495e-08
6.44599e-09
-4.93426e-08
6.60476e-09
-5.43313e-08
6.73316e-09
-5.93946e-08
6.83287e-09
-6.45124e-08
6.90559e-09
-6.96662e-08
6.95302e-09
-7.48385e-08
6.97689e-09
-8.00131e-08
6.97889e-09
-8.51751e-08
6.96068e-09
-9.03108e-08
6.92391e-09
-9.54075e-08
6.87014e-09
-1.00454e-07
6.80093e-09
-1.05439e-07
6.71774e-09
-1.10354e-07
6.62199e-09
-1.15191e-07
6.51505e-09
-1.19942e-07
6.39819e-09
-1.246e-07
6.27264e-09
-1.29161e-07
6.13957e-09
-1.33618e-07
6.00005e-09
-1.37969e-07
5.85511e-09
-1.42209e-07
5.7057e-09
-1.46336e-07
5.55271e-09
-1.50348e-07
5.39695e-09
-1.54243e-07
5.2392e-09
-1.58021e-07
5.08014e-09
-1.6168e-07
4.92041e-09
-1.65221e-07
4.76059e-09
-1.68644e-07
4.6012e-09
-1.7195e-07
4.44271e-09
-1.75139e-07
4.28553e-09
-1.78212e-07
4.13003e-09
-1.81172e-07
3.97654e-09
-1.84019e-07
3.82532e-09
-1.86756e-07
3.67662e-09
-1.89385e-07
3.53063e-09
-1.91907e-07
3.38749e-09
-1.94325e-07
3.24734e-09
-1.96642e-07
3.11026e-09
-1.98858e-07
2.9763e-09
-2.00977e-07
2.84549e-09
-2.03001e-07
2.71783e-09
-2.04933e-07
2.5933e-09
-2.06774e-07
2.47183e-09
-2.08527e-07
2.35336e-09
-2.10193e-07
2.23779e-09
-2.11776e-07
2.12501e-09
-2.13276e-07
2.01488e-09
-2.14696e-07
1.90726e-09
-2.16038e-07
1.80198e-09
-2.17302e-07
1.69886e-09
-2.18492e-07
1.59772e-09
-2.19606e-07
1.49833e-09
-2.20648e-07
1.4005e-09
-2.21618e-07
1.304e-09
-2.22516e-07
1.20858e-09
-2.23344e-07
1.114e-09
-2.24102e-07
1.02002e-09
-2.24789e-07
9.26375e-10
-2.25407e-07
8.32797e-10
-2.25954e-07
7.39019e-10
-2.26431e-07
6.44767e-10
-2.26837e-07
5.49762e-10
-2.27171e-07
4.53723e-10
-2.27433e-07
3.56368e-10
-2.2762e-07
2.57411e-10
-2.27732e-07
1.5657e-10
-2.27768e-07
5.35604e-11
-2.27724e-07
-5.1897e-11
-2.276e-07
-1.6008e-10
-2.27392e-07
-2.71261e-10
-2.27099e-07
-3.85708e-10
-2.26719e-07
-5.0368e-10
-2.26247e-07
-6.25431e-10
-2.25682e-07
-7.512e-10
-2.2502e-07
-8.81217e-10
-2.24257e-07
-1.0157e-09
-2.23391e-07
-1.15484e-09
-2.22418e-07
-1.29882e-09
-2.21334e-07
-1.44781e-09
-2.20135e-07
-1.60193e-09
-2.18818e-07
-1.76131e-09
-2.17378e-07
-1.92602e-09
-2.15812e-07
-2.09612e-09
-2.14115e-07
-2.27164e-09
-2.12284e-07
-2.45255e-09
-2.10315e-07
-2.63879e-09
-2.08204e-07
-2.83028e-09
-2.05947e-07
-3.02686e-09
-2.0354e-07
-3.22835e-09
-2.00981e-07
-3.43449e-09
-1.98266e-07
-3.64499e-09
-1.95391e-07
-3.85949e-09
-1.92356e-07
-4.07756e-09
-1.89156e-07
-4.29871e-09
-1.85791e-07
-4.5224e-09
-1.8226e-07
-4.748e-09
-1.7856e-07
-4.9748e-09
-1.74693e-07
-5.20204e-09
-1.70657e-07
-5.42886e-09
-1.66456e-07
-5.65435e-09
-1.6209e-07
-5.87748e-09
-1.57561e-07
-6.09717e-09
-1.52874e-07
-6.31225e-09
-1.48033e-07
-6.52148e-09
-1.43043e-07
-6.72352e-09
-1.37911e-07
-6.91697e-09
-1.32643e-07
-7.10036e-09
-1.2725e-07
-7.27214e-09
-1.2174e-07
-7.43068e-09
-1.16124e-07
-7.57431e-09
-1.10416e-07
-7.7013e-09
-1.04628e-07
-7.80985e-09
-9.87764e-08
-7.89815e-09
-9.28765e-08
-7.96432e-09
-8.69463e-08
-8.00648e-09
-8.10052e-08
-8.02273e-09
-7.50735e-08
-8.01116e-09
-6.91732e-08
-7.96987e-09
-6.33276e-08
-7.897e-09
-5.75612e-08
-7.79071e-09
-5.19001e-08
-7.64923e-09
-4.63711e-08
-7.47088e-09
-4.10026e-08
-7.25407e-09
-3.58237e-08
-6.99736e-09
-3.08646e-08
-6.69951e-09
-2.61559e-08
-6.35949e-09
-2.17288e-08
-5.97659e-09
-1.76146e-08
-5.55051e-09
-1.38443e-08
-5.08149e-09
-1.04479e-08
-4.57051e-09
-7.45371e-09
-4.01955e-09
-4.88741e-09
-3.43203e-09
-2.77023e-09
-2.8134e-09
-1.11687e-09
-2.17216e-09
6.77606e-11
-1.52126e-09
7.93288e-10
-8.80488e-10
1.09076e-09
-2.80004e-10
1.02256e-09
2.34283e-10
6.95229e-10
5.93272e-10
2.73065e-10
6.95202e-10
4.03841e-10
2.45756e-10
-6.05545e-10
5.63373e-10
-9.51402e-10
6.97685e-10
-6.94888e-10
4.74713e-10
-3.45893e-11
-2.25222e-10
8.85342e-10
-1.478e-09
1.95942e-09
-3.32549e-09
3.11237e-09
-5.78424e-09
4.29154e-09
-8.85225e-09
5.46047e-09
-1.25142e-08
6.59406e-09
-1.67453e-08
7.67524e-09
-2.15143e-08
8.69266e-09
-2.67854e-08
9.63902e-09
-3.25204e-08
1.051e-08
-3.86791e-08
1.13034e-08
-4.52209e-08
1.20186e-08
-5.21052e-08
1.26563e-08
-5.9292e-08
1.32178e-08
-6.67421e-08
1.37053e-08
-7.44176e-08
1.41215e-08
-8.2282e-08
1.44692e-08
-9.03005e-08
1.47516e-08
-9.84399e-08
1.49723e-08
-1.06669e-07
1.51346e-08
-1.14958e-07
1.52421e-08
-1.2328e-07
1.52985e-08
-1.31608e-07
1.53072e-08
-1.39919e-07
1.5272e-08
-1.48191e-07
1.51961e-08
-1.56404e-07
1.5083e-08
-1.64539e-07
1.4936e-08
-1.7258e-07
1.47582e-08
-1.8051e-07
1.45528e-08
-1.88318e-07
1.43226e-08
-1.9599e-07
1.40704e-08
-2.03517e-07
1.3799e-08
-2.10888e-07
1.35107e-08
-2.18096e-07
1.32081e-08
-2.25134e-07
1.28932e-08
-2.31996e-07
1.25682e-08
-2.38679e-07
1.22351e-08
-2.45177e-07
1.18956e-08
-2.51489e-07
1.15514e-08
-2.57613e-07
1.1204e-08
-2.63548e-07
1.08549e-08
-2.69292e-07
1.05052e-08
-2.74847e-07
1.01563e-08
-2.80214e-07
9.80897e-09
-2.85393e-07
9.46431e-09
-2.90386e-07
9.12309e-09
-2.95195e-07
8.78602e-09
-2.99823e-07
8.45371e-09
-3.04274e-07
8.1267e-09
-3.08548e-07
7.80541e-09
-3.12651e-07
7.4902e-09
-3.16585e-07
7.18135e-09
-3.20354e-07
6.87906e-09
-3.23961e-07
6.58346e-09
-3.2741e-07
6.29461e-09
-3.30705e-07
6.01253e-09
-3.33849e-07
5.73716e-09
-3.36845e-07
5.4684e-09
-3.39698e-07
5.20609e-09
-3.4241e-07
4.95004e-09
-3.44985e-07
4.7e-09
-3.47426e-07
4.45569e-09
-3.49736e-07
4.21679e-09
-3.51917e-07
3.98295e-09
-3.53971e-07
3.75377e-09
-3.55903e-07
3.52885e-09
-3.57712e-07
3.30774e-09
-3.59401e-07
3.08998e-09
-3.60973e-07
2.87506e-09
-3.62426e-07
2.66249e-09
-3.63764e-07
2.45174e-09
-3.64986e-07
2.24225e-09
-3.66094e-07
2.03346e-09
-3.67086e-07
1.8248e-09
-3.67962e-07
1.61568e-09
-3.68723e-07
1.40551e-09
-3.69367e-07
1.19368e-09
-3.69893e-07
9.79579e-10
-3.70299e-07
7.62598e-10
-3.70584e-07
5.42118e-10
-3.70745e-07
3.17523e-10
-3.70779e-07
8.82022e-11
-3.70685e-07
-1.46454e-10
-3.70458e-07
-3.87044e-10
-3.70095e-07
-6.34159e-10
-3.69592e-07
-8.88375e-10
-3.68946e-07
-1.15025e-09
-3.68151e-07
-1.42033e-09
-3.67203e-07
-1.69913e-09
-3.66097e-07
-1.98714e-09
-3.64828e-07
-2.28482e-09
-3.6339e-07
-2.59259e-09
-3.61778e-07
-2.91083e-09
-3.59986e-07
-3.23988e-09
-3.58008e-07
-3.58003e-09
-3.55838e-07
-3.93151e-09
-3.53469e-07
-4.29448e-09
-3.50896e-07
-4.66906e-09
-3.48113e-07
-5.05526e-09
-3.45112e-07
-5.45305e-09
-3.41889e-07
-5.86227e-09
-3.38436e-07
-6.28269e-09
-3.34749e-07
-6.714e-09
-3.30822e-07
-7.15574e-09
-3.26649e-07
-7.60736e-09
-3.22226e-07
-8.06819e-09
-3.17548e-07
-8.53742e-09
-3.12611e-07
-9.01413e-09
-3.07413e-07
-9.49723e-09
-3.01949e-07
-9.9855e-09
-2.9622e-07
-1.04776e-08
-2.90223e-07
-1.09719e-08
-2.83958e-07
-1.14668e-08
-2.77427e-07
-1.19604e-08
-2.7063e-07
-1.24506e-08
-2.63572e-07
-1.29353e-08
-2.56257e-07
-1.34122e-08
-2.48691e-07
-1.38786e-08
-2.40881e-07
-1.43318e-08
-2.32835e-07
-1.4769e-08
-2.24565e-07
-1.51871e-08
-2.16083e-07
-1.55829e-08
-2.07402e-07
-1.59531e-08
-1.98538e-07
-1.62941e-08
-1.8951e-07
-1.66024e-08
-1.80337e-07
-1.68743e-08
-1.71041e-07
-1.71058e-08
-1.61646e-07
-1.72931e-08
-1.52179e-07
-1.74322e-08
-1.42666e-07
-1.7519e-08
-1.33139e-07
-1.75496e-08
-1.2363e-07
-1.75198e-08
-1.14175e-07
-1.74257e-08
-1.04808e-07
-1.72635e-08
-9.55698e-08
-1.70291e-08
-8.64998e-08
-1.67191e-08
-7.76407e-08
-1.63301e-08
-6.9036e-08
-1.58587e-08
-6.0731e-08
-1.53024e-08
-5.27718e-08
-1.46587e-08
-4.52054e-08
-1.39259e-08
-3.8079e-08
-1.3103e-08
-3.14394e-08
-1.21901e-08
-2.53325e-08
-1.11884e-08
-1.9802e-08
-1.0101e-08
-1.48883e-08
-8.93317e-09
-1.0627e-08
-7.69339e-09
-7.04583e-09
-6.39455e-09
-4.16231e-09
-5.05569e-09
-1.97896e-09
-3.70463e-09
-4.77737e-10
-2.38171e-09
3.87558e-10
-1.14528e-09
7.01055e-10
-7.91903e-11
5.95998e-10
6.98336e-10
2.66854e-10
1.02432e-09
6.70704e-10
1.63736e-10
-7.69277e-10
2.64707e-10
-1.05237e-09
4.41966e-11
-4.74379e-10
-6.78147e-10
6.8775e-10
-2.02907e-09
2.23626e-09
-4.09178e-09
4.02214e-09
-6.91439e-09
5.93498e-09
-1.05174e-08
7.89456e-09
-1.49001e-08
9.84318e-09
-2.00457e-08
1.17396e-08
-2.59254e-08
1.3555e-08
-3.25019e-08
1.52691e-08
-3.97316e-08
1.68688e-08
-4.75671e-08
1.83454e-08
-5.5958e-08
1.96944e-08
-6.48531e-08
2.09137e-08
-7.42003e-08
2.20035e-08
-8.39481e-08
2.29656e-08
-9.40458e-08
2.38031e-08
-1.04444e-07
2.45198e-08
-1.15095e-07
2.51203e-08
-1.25953e-07
2.56098e-08
-1.36975e-07
2.59938e-08
-1.48118e-07
2.62779e-08
-1.59344e-07
2.64682e-08
-1.70616e-07
2.65705e-08
-1.819e-07
2.65909e-08
-1.93163e-07
2.65352e-08
-2.04376e-07
2.64094e-08
-2.15513e-07
2.62191e-08
-2.26547e-07
2.597e-08
-2.37456e-07
2.56675e-08
-2.4822e-07
2.53168e-08
-2.5882e-07
2.49229e-08
-2.6924e-07
2.44906e-08
-2.79466e-07
2.40245e-08
-2.89484e-07
2.35289e-08
-2.99284e-07
2.30078e-08
-3.08856e-07
2.24652e-08
-3.18192e-07
2.19047e-08
-3.27287e-07
2.13295e-08
-3.36134e-07
2.07428e-08
-3.4473e-07
2.01476e-08
-3.53073e-07
1.95464e-08
-3.6116e-07
1.89417e-08
-3.6899e-07
1.83358e-08
-3.76564e-07
1.77306e-08
-3.83883e-07
1.7128e-08
-3.90949e-07
1.65295e-08
-3.97762e-07
1.59366e-08
-4.04327e-07
1.53506e-08
-4.10646e-07
1.47726e-08
-4.16722e-07
1.42034e-08
-4.22561e-07
1.36438e-08
-4.28165e-07
1.30946e-08
-4.3354e-07
1.25561e-08
-4.38689e-07
1.20287e-08
-4.43619e-07
1.15127e-08
-4.48332e-07
1.10082e-08
-4.52835e-07
1.05152e-08
-4.57131e-07
1.00337e-08
-4.61227e-07
9.56353e-09
-4.65125e-07
9.10436e-09
-4.68831e-07
8.65588e-09
-4.72348e-07
8.2177e-09
-4.75682e-07
7.78932e-09
-4.78835e-07
7.37021e-09
-4.81812e-07
6.95976e-09
-4.84616e-07
6.55731e-09
-4.87249e-07
6.16214e-09
-4.89715e-07
5.7735e-09
-4.92015e-07
5.39059e-09
-4.94153e-07
5.01255e-09
-4.96129e-07
4.63851e-09
-4.97945e-07
4.26757e-09
-4.99601e-07
3.89877e-09
-5.01099e-07
3.53116e-09
-5.02438e-07
3.16374e-09
-5.03618e-07
2.79549e-09
-5.04638e-07
2.4254e-09
-5.05496e-07
2.05242e-09
-5.06192e-07
1.67551e-09
-5.06723e-07
1.29361e-09
-5.07087e-07
9.05657e-10
-5.0728e-07
5.10597e-10
-5.07299e-07
1.07377e-10
-5.07141e-07
-3.05045e-10
-5.068e-07
-7.277e-10
-5.06272e-07
-1.1616e-09
-5.05553e-07
-1.60772e-09
-5.04636e-07
-2.06703e-09
-5.03516e-07
-2.54045e-09
-5.02187e-07
-3.02886e-09
-5.00641e-07
-3.53309e-09
-4.98871e-07
-4.05392e-09
-4.96872e-07
-4.59206e-09
-4.94635e-07
-5.14816e-09
-4.92152e-07
-5.72278e-09
-4.89415e-07
-6.3164e-09
-4.86417e-07
-6.9294e-09
-4.8315e-07
-7.56205e-09
-4.79604e-07
-8.2145e-09
-4.75773e-07
-8.88678e-09
-4.71647e-07
-9.57878e-09
-4.67219e-07
-1.02902e-08
-4.62481e-07
-1.10207e-08
-4.57426e-07
-1.17696e-08
-4.52045e-07
-1.25362e-08
-4.46333e-07
-1.33195e-08
-4.40283e-07
-1.41182e-08
-4.33889e-07
-1.4931e-08
-4.27147e-07
-1.57562e-08
-4.20053e-07
-1.6592e-08
-4.12602e-07
-1.74362e-08
-4.04793e-07
-1.82865e-08
-3.96625e-07
-1.91401e-08
-3.88097e-07
-1.99942e-08
-3.79212e-07
-2.08454e-08
-3.69972e-07
-2.16904e-08
-3.60383e-07
-2.25252e-08
-3.50449e-07
-2.33458e-08
-3.4018e-07
-2.41479e-08
-3.29585e-07
-2.49267e-08
-3.18676e-07
-2.56773e-08
-3.07469e-07
-2.63945e-08
-2.95979e-07
-2.70727e-08
-2.84226e-07
-2.77063e-08
-2.72231e-07
-2.82893e-08
-2.60018e-07
-2.88154e-08
-2.47614e-07
-2.92784e-08
-2.35048e-07
-2.96716e-08
-2.22352e-07
-2.99885e-08
-2.09562e-07
-3.02223e-08
-1.96715e-07
-3.03661e-08
-1.83852e-07
-3.04131e-08
-1.71015e-07
-3.03567e-08
-1.58251e-07
-3.019e-08
-1.45607e-07
-2.99066e-08
-1.33136e-07
-2.95003e-08
-1.2089e-07
-2.89649e-08
-1.08925e-07
-2.82951e-08
-9.72982e-08
-2.74859e-08
-8.60677e-08
-2.65328e-08
-7.52938e-08
-2.54326e-08
-6.50368e-08
-2.41829e-08
-5.53571e-08
-2.27827e-08
-4.63141e-08
-2.12331e-08
-3.79654e-08
-1.95372e-08
-3.03652e-08
-1.77012e-08
-2.35631e-08
-1.57353e-08
-1.76012e-08
-1.36553e-08
-1.25121e-08
-1.14837e-08
-8.31474e-09
-9.25303e-09
-5.01026e-09
-7.00912e-09
-2.57603e-09
-4.81595e-09
-9.58777e-10
-2.76254e-09
-6.61081e-11
-9.71852e-10
2.42899e-10
3.89344e-10
1.68973e-10
1.09824e-09
8.39676e-10
3.77379e-11
-8.07016e-10
-1.74187e-10
-8.40439e-10
-8.70557e-10
2.21995e-10
-2.22143e-09
2.03863e-09
-4.34858e-09
4.36341e-09
-7.33353e-09
7.00709e-09
-1.12242e-08
9.82568e-09
-1.60412e-08
1.27116e-08
-2.1783e-08
1.5585e-08
-2.84308e-08
1.83874e-08
-3.59524e-08
2.10766e-08
-4.43055e-08
2.36223e-08
-5.34406e-08
2.60038e-08
-6.33027e-08
2.82075e-08
-7.38336e-08
3.02253e-08
-8.49731e-08
3.20531e-08
-9.66598e-08
3.36902e-08
-1.08833e-07
3.51385e-08
-1.21431e-07
3.64017e-08
-1.34397e-07
3.7485e-08
-1.47671e-07
3.83947e-08
-1.61199e-07
3.91381e-08
-1.74929e-07
3.9723e-08
-1.88808e-07
4.01577e-08
-2.02791e-07
4.04507e-08
-2.16831e-07
4.06109e-08
-2.30887e-07
4.0647e-08
-2.4492e-07
4.05678e-08
-2.58893e-07
4.03821e-08
-2.72772e-07
4.00983e-08
-2.86527e-07
3.97249e-08
-3.00129e-07
3.927e-08
-3.13554e-07
3.87414e-08
-3.26778e-07
3.81466e-08
-3.3978e-07
3.7493e-08
-3.52543e-07
3.67873e-08
-3.6505e-07
3.60362e-08
-3.77288e-07
3.52459e-08
-3.89245e-07
3.44221e-08
-4.00911e-07
3.35704e-08
-4.12277e-07
3.26958e-08
-4.23338e-07
3.18032e-08
-4.34087e-07
3.08969e-08
-4.44522e-07
2.9981e-08
-4.54639e-07
2.90593e-08
-4.64438e-07
2.81351e-08
-4.73919e-07
2.72115e-08
-4.83083e-07
2.62913e-08
-4.9193e-07
2.5377e-08
-5.00464e-07
2.44708e-08
-5.08688e-07
2.35746e-08
-5.16606e-07
2.26901e-08
-5.24221e-07
2.18187e-08
-5.31539e-07
2.09617e-08
-5.38564e-07
2.01199e-08
-5.45303e-07
1.92943e-08
-5.51759e-07
1.84853e-08
-5.5794e-07
1.76934e-08
-5.6385e-07
1.69187e-08
-5.69497e-07
1.61614e-08
-5.74884e-07
1.54213e-08
-5.80019e-07
1.46982e-08
-5.84906e-07
1.39918e-08
-5.89552e-07
1.33014e-08
-5.93961e-07
1.26266e-08
-5.98138e-07
1.19665e-08
-6.02088e-07
1.13205e-08
-6.05816e-07
1.06875e-08
-6.09325e-07
1.00665e-08
-6.1262e-07
9.4566e-09
-6.15703e-07
8.85651e-09
-6.18577e-07
8.26505e-09
-6.21245e-07
7.68094e-09
-6.2371e-07
7.10286e-09
-6.25972e-07
6.52942e-09
-6.28032e-07
5.9592e-09
-6.29892e-07
5.39074e-09
-6.3155e-07
4.82252e-09
-6.33008e-07
4.25302e-09
-6.34263e-07
3.68069e-09
-6.35315e-07
3.10396e-09
-6.36161e-07
2.52122e-09
-6.36798e-07
1.93089e-09
-6.37223e-07
1.33136e-09
-6.37434e-07
7.2103e-10
-6.37425e-07
9.83169e-11
-6.37192e-07
-5.38359e-10
-6.36729e-07
-1.19055e-09
-6.36031e-07
-1.85978e-09
-6.35091e-07
-2.54754e-09
-6.33902e-07
-3.25526e-09
-6.32459e-07
-3.98433e-09
-6.30751e-07
-4.73608e-09
-6.28773e-07
-5.51174e-09
-6.26514e-07
-6.31249e-09
-6.23967e-07
-7.13938e-09
-6.21122e-07
-7.99338e-09
-6.17969e-07
-8.87531e-09
-6.145e-07
-9.78587e-09
-6.10703e-07
-1.07256e-08
-6.06571e-07
-1.16949e-08
-6.02091e-07
-1.2694e-08
-5.97255e-07
-1.37229e-08
-5.92052e-07
-1.47814e-08
-5.86473e-07
-1.5869e-08
-5.80509e-07
-1.69851e-08
-5.7415e-07
-1.81288e-08
-5.67387e-07
-1.92988e-08
-5.60213e-07
-2.04936e-08
-5.5262e-07
-2.17113e-08
-5.44601e-07
-2.29499e-08
-5.36151e-07
-2.42067e-08
-5.27264e-07
-2.5479e-08
-5.17937e-07
-2.67634e-08
-5.08167e-07
-2.80563e-08
-4.97953e-07
-2.93536e-08
-4.87297e-07
-3.06509e-08
-4.76199e-07
-3.19432e-08
-4.64664e-07
-3.32252e-08
-4.52698e-07
-3.44912e-08
-4.40309e-07
-3.57349e-08
-4.27507e-07
-3.69497e-08
-4.14305e-07
-3.81285e-08
-4.00719e-07
-3.92639e-08
-3.86765e-07
-4.03479e-08
-3.72466e-07
-4.13722e-08
-3.57844e-07
-4.23283e-08
-3.42926e-07
-4.32071e-08
-3.27742e-07
-4.39993e-08
-3.12325e-07
-4.46954e-08
-2.96711e-07
-4.52855e-08
-2.8094e-07
-4.57598e-08
-2.65054e-07
-4.61081e-08
-2.491e-07
-4.63202e-08
-2.33127e-07
-4.63861e-08
-2.17188e-07
-4.62958e-08
-2.01339e-07
-4.60393e-08
-1.85638e-07
-4.56072e-08
-1.70148e-07
-4.49903e-08
-1.54933e-07
-4.418e-08
-1.4006e-07
-4.31684e-08
-1.25597e-07
-4.19486e-08
-1.11615e-07
-4.05147e-08
-9.81856e-08
-3.88622e-08
-8.53799e-08
-3.69886e-08
-7.32693e-08
-3.48933e-08
-6.19235e-08
-3.25789e-08
-5.14095e-08
-3.00511e-08
-4.179e-08
-2.73207e-08
-3.31214e-08
-2.4404e-08
-2.54515e-08
-2.13252e-08
-1.88166e-08
-1.81185e-08
-1.32381e-08
-1.48316e-08
-8.71762e-09
-1.15296e-08
-5.23246e-09
-8.3011e-09
-2.7294e-09
-5.26561e-09
-1.11795e-09
-2.5833e-09
-2.63124e-10
-4.65474e-10
2.32546e-11
8.11867e-10
8.62924e-10
-1.10603e-10
-6.96414e-10
-6.93995e-10
-2.57048e-10
-1.94599e-09
1.47399e-09
-4.0144e-09
4.10704e-09
-7.007e-09
7.35602e-09
-1.09966e-08
1.09967e-08
-1.60255e-08
1.48547e-08
-2.21106e-08
1.87966e-08
-2.92472e-08
2.27215e-08
-3.7413e-08
2.65533e-08
-4.65723e-08
3.02358e-08
-5.6678e-08
3.37281e-08
-6.76754e-08
3.70012e-08
-7.95034e-08
4.00355e-08
-9.20969e-08
4.28188e-08
-1.05388e-07
4.53445e-08
-1.19309e-07
4.76106e-08
-1.33789e-07
4.96187e-08
-1.4876e-07
5.13728e-08
-1.64155e-07
5.28796e-08
-1.79907e-07
5.41471e-08
-1.95954e-07
5.51847e-08
-2.12233e-07
5.60028e-08
-2.28688e-07
5.66124e-08
-2.45262e-07
5.70251e-08
-2.61904e-07
5.72527e-08
-2.78564e-07
5.73072e-08
-2.95197e-07
5.72007e-08
-3.1176e-07
5.6945e-08
-3.28214e-07
5.6552e-08
-3.44522e-07
5.60332e-08
-3.60652e-07
5.53999e-08
-3.76574e-07
5.46628e-08
-3.92259e-07
5.38325e-08
-4.07686e-07
5.29191e-08
-4.2283e-07
5.19322e-08
-4.37675e-07
5.08808e-08
-4.52203e-07
4.97737e-08
-4.664e-07
4.86191e-08
-4.80254e-07
4.74245e-08
-4.93755e-07
4.61972e-08
-5.06896e-07
4.49438e-08
-5.19669e-07
4.36706e-08
-5.32072e-07
4.23832e-08
-5.44099e-07
4.1087e-08
-5.55751e-07
3.97866e-08
-5.67026e-07
3.84866e-08
-5.77925e-07
3.71907e-08
-5.88451e-07
3.59025e-08
-5.98605e-07
3.46251e-08
-6.08392e-07
3.33613e-08
-6.17815e-07
3.21134e-08
-6.2688e-07
3.08835e-08
-6.35592e-07
2.96733e-08
-6.43956e-07
2.84842e-08
-6.51979e-07
2.73173e-08
-6.59667e-07
2.61735e-08
-6.67027e-07
2.50533e-08
-6.74065e-07
2.3957e-08
-6.80789e-07
2.28848e-08
-6.87204e-07
2.18365e-08
-6.93317e-07
2.08118e-08
-6.99136e-07
1.98103e-08
-7.04666e-07
1.88312e-08
-7.09913e-07
1.78736e-08
-7.14883e-07
1.69367e-08
-7.19582e-07
1.60192e-08
-7.24014e-07
1.512e-08
-7.28185e-07
1.42375e-08
-7.32099e-07
1.33704e-08
-7.35759e-07
1.25169e-08
-7.3917e-07
1.16755e-08
-7.42333e-07
1.08443e-08
-7.45252e-07
1.00215e-08
-7.47927e-07
9.20513e-09
-7.50361e-07
8.39323e-09
-7.52554e-07
7.58373e-09
-7.54506e-07
6.77454e-09
-7.56217e-07
5.96352e-09
-7.57685e-07
5.14851e-09
-7.58908e-07
4.32729e-09
-7.59885e-07
3.49766e-09
-7.60611e-07
2.65738e-09
-7.61084e-07
1.80421e-09
-7.61299e-07
9.35928e-10
-7.61251e-07
5.0313e-11
-7.60934e-07
-8.5483e-10
-7.60343e-07
-1.78166e-09
-7.59471e-07
-2.73231e-09
-7.58309e-07
-3.70883e-09
-7.56851e-07
-4.71322e-09
-7.55088e-07
-5.74741e-09
-7.53011e-07
-6.81323e-09
-7.50611e-07
-7.9124e-09
-7.47876e-07
-9.04653e-09
-7.44799e-07
-1.02171e-08
-7.41367e-07
-1.14254e-08
-7.3757e-07
-1.26725e-08
-7.33396e-07
-1.39595e-08
-7.28835e-07
-1.5287e-08
-7.23874e-07
-1.66556e-08
-7.18502e-07
-1.80655e-08
-7.12709e-07
-1.95168e-08
-7.06481e-07
-2.1009e-08
-6.99808e-07
-2.25415e-08
-6.9268e-07
-2.41134e-08
-6.85086e-07
-2.57234e-08
-6.77015e-07
-2.73696e-08
-6.68458e-07
-2.90499e-08
-6.59408e-07
-3.07617e-08
-6.49856e-07
-3.2502e-08
-6.39796e-07
-3.42671e-08
-6.29222e-07
-3.60531e-08
-6.1813e-07
-3.78552e-08
-6.06517e-07
-3.96685e-08
-5.94384e-07
-4.14872e-08
-5.8173e-07
-4.3305e-08
-5.68558e-07
-4.5115e-08
-5.54873e-07
-4.69097e-08
-5.40683e-07
-4.86812e-08
-5.25998e-07
-5.04207e-08
-5.10828e-07
-5.21189e-08
-4.95191e-07
-5.3766e-08
-4.79103e-07
-5.53515e-08
-4.62587e-07
-5.68645e-08
-4.45665e-07
-5.82934e-08
-4.28368e-07
-5.96262e-08
-4.10724e-07
-6.08504e-08
-3.9277e-07
-6.19531e-08
-3.74545e-07
-6.29212e-08
-3.56089e-07
-6.37409e-08
-3.3745e-07
-6.43987e-08
-3.18678e-07
-6.48805e-08
-2.99826e-07
-6.51725e-08
-2.80951e-07
-6.52607e-08
-2.62115e-07
-6.51315e-08
-2.43383e-07
-6.47714e-08
-2.24823e-07
-6.41676e-08
-2.06505e-07
-6.33077e-08
-1.88505e-07
-6.21803e-08
-1.70898e-07
-6.0775e-08
-1.53764e-07
-5.90827e-08
-1.37183e-07
-5.70961e-08
-1.21235e-07
-5.48098e-08
-1.06003e-07
-5.22212e-08
-9.15655e-08
-4.93306e-08
-7.80018e-08
-4.61425e-08
-6.53865e-08
-4.26664e-08
-5.37893e-08
-3.89179e-08
-4.32728e-08
-3.49206e-08
-3.38898e-08
-3.07081e-08
-2.5681e-08
-2.63273e-08
-1.86712e-08
-2.18414e-08
-1.28655e-08
-1.73352e-08
-8.24543e-09
-1.29212e-08
-4.76371e-09
-8.74732e-09
-2.33976e-09
-5.00726e-09
-8.54589e-10
-1.95064e-09
-1.45834e-10
1.03124e-10
7.17086e-10
-2.68842e-10
-4.2757e-10
-1.25594e-09
7.30046e-10
-3.11196e-09
3.33002e-09
-5.9552e-09
6.95028e-09
-9.87307e-09
1.12739e-08
-1.49242e-08
1.60478e-08
-2.11411e-08
2.10715e-08
-2.85331e-08
2.61887e-08
-3.709e-08
3.12784e-08
-4.67848e-08
3.62481e-08
-5.75768e-08
4.10278e-08
-6.94142e-08
4.55656e-08
-8.22372e-08
4.98241e-08
-9.5979e-08
5.37774e-08
-1.10569e-07
5.74086e-08
-1.25932e-07
6.07082e-08
-1.41994e-07
6.36726e-08
-1.58678e-07
6.63027e-08
-1.75909e-07
6.86031e-08
-1.9361e-07
7.05814e-08
-2.11711e-07
7.22475e-08
-2.30139e-07
7.3613e-08
-2.48827e-07
7.46908e-08
-2.6771e-07
7.54951e-08
-2.86725e-07
7.60405e-08
-3.05815e-07
7.63422e-08
-3.24923e-07
7.64157e-08
-3.43999e-07
7.62765e-08
-3.62994e-07
7.59402e-08
-3.81864e-07
7.54221e-08
-4.00568e-07
7.47372e-08
-4.19069e-07
7.39003e-08
-4.37332e-07
7.29256e-08
-4.55326e-07
7.18269e-08
-4.73024e-07
7.06174e-08
-4.90402e-07
6.93098e-08
-5.07437e-07
6.79161e-08
-5.24111e-07
6.64477e-08
-5.40408e-07
6.49156e-08
-5.56313e-07
6.33297e-08
-5.71815e-07
6.16997e-08
-5.86906e-07
6.00343e-08
-6.01577e-07
5.83419e-08
-6.15824e-07
5.66299e-08
-6.29642e-07
5.49055e-08
-6.4303e-07
5.31748e-08
-6.55988e-07
5.14439e-08
-6.68515e-07
4.97179e-08
-6.80614e-07
4.80015e-08
-6.92288e-07
4.62988e-08
-7.0354e-07
4.46136e-08
-7.14376e-07
4.2949e-08
-7.248e-07
4.13077e-08
-7.34819e-07
3.96921e-08
-7.44439e-07
3.81041e-08
-7.53666e-07
3.65452e-08
-7.62509e-07
3.50164e-08
-7.70975e-07
3.35187e-08
-7.7907e-07
3.20524e-08
-7.86803e-07
3.06176e-08
-7.94181e-07
2.92144e-08
-8.01211e-07
2.78423e-08
-8.07902e-07
2.65005e-08
-8.14259e-07
2.51884e-08
-8.2029e-07
2.39046e-08
-8.26001e-07
2.2648e-08
-8.31399e-07
2.14171e-08
-8.36489e-07
2.02102e-08
-8.41277e-07
1.90254e-08
-8.45768e-07
1.78608e-08
-8.49965e-07
1.67143e-08
-8.53873e-07
1.55836e-08
-8.57495e-07
1.44664e-08
-8.60834e-07
1.33602e-08
-8.63891e-07
1.22625e-08
-8.66669e-07
1.11707e-08
-8.69167e-07
1.0082e-08
-8.71386e-07
8.9937e-09
-8.73326e-07
7.90294e-09
-8.74984e-07
6.80684e-09
-8.76359e-07
5.70252e-09
-8.77449e-07
4.58704e-09
-8.78249e-07
3.45745e-09
-8.78755e-07
2.31081e-09
-8.78963e-07
1.14417e-09
-8.78868e-07
-4.53967e-11
-8.78462e-07
-1.26078e-09
-8.77739e-07
-2.50482e-09
-8.76691e-07
-3.78032e-09
-8.75309e-07
-5.09e-09
-8.73586e-07
-6.43647e-09
-8.71511e-07
-7.82226e-09
-8.69075e-07
-9.24978e-09
-8.66266e-07
-1.07213e-08
-8.63074e-07
-1.22388e-08
-8.59486e-07
-1.38044e-08
-8.55492e-07
-1.54197e-08
-8.51078e-07
-1.70861e-08
-8.46233e-07
-1.88049e-08
-8.40943e-07
-2.0577e-08
-8.35195e-07
-2.24031e-08
-8.28978e-07
-2.42835e-08
-8.22276e-07
-2.62181e-08
-8.15079e-07
-2.82064e-08
-8.07373e-07
-3.02476e-08
-7.99146e-07
-3.23403e-08
-7.90387e-07
-3.44827e-08
-7.81084e-07
-3.66724e-08
-7.71227e-07
-3.89065e-08
-7.60807e-07
-4.11817e-08
-7.49815e-07
-4.34936e-08
-7.38245e-07
-4.58378e-08
-7.26089e-07
-4.82086e-08
-7.13344e-07
-5.06e-08
-7.00008e-07
-5.30053e-08
-6.86078e-07
-5.54168e-08
-6.71557e-07
-5.78262e-08
-6.56448e-07
-6.02244e-08
-6.40756e-07
-6.26015e-08
-6.2449e-07
-6.49469e-08
-6.07662e-07
-6.72491e-08
-5.90285e-07
-6.94958e-08
-5.72377e-07
-7.16741e-08
-5.53958e-07
-7.37702e-08
-5.35053e-07
-7.57696e-08
-5.15689e-07
-7.76572e-08
-4.95898e-07
-7.94171e-08
-4.75716e-07
-8.1033e-08
-4.55181e-07
-8.24879e-08
-4.34337e-07
-8.37645e-08
-4.13233e-07
-8.48451e-08
-3.9192e-07
-8.57117e-08
-3.70455e-07
-8.63461e-08
-3.48897e-07
-8.67303e-08
-3.27311e-07
-8.68462e-08
-3.05767e-07
-8.66761e-08
-2.84336e-07
-8.62026e-08
-2.63094e-07
-8.54093e-08
-2.42121e-07
-8.42804e-08
-2.215e-07
-8.28014e-08
-2.01316e-07
-8.09593e-08
-1.81656e-07
-7.87429e-08
-1.62608e-07
-7.61435e-08
-1.44263e-07
-7.31548e-08
-1.2671e-07
-6.97745e-08
-1.10036e-07
-6.60041e-08
-9.43283e-08
-6.18506e-08
-7.96675e-08
-5.73272e-08
-6.61299e-08
-5.24555e-08
-5.37839e-08
-4.72665e-08
-4.2688e-08
-4.18041e-08
-3.28877e-08
-3.61275e-08
-2.44134e-08
-3.03157e-08
-1.72765e-08
-2.44722e-08
-1.14661e-08
-1.87315e-08
-6.94628e-09
-1.32672e-08
-3.65211e-09
-8.30143e-09
-1.4877e-09
-4.11506e-09
-3.24315e-10
-1.06026e-09
3.92772e-10
-4.29718e-10
2.15247e-12
-1.83515e-09
2.13548e-09
-4.32087e-09
5.81574e-09
-7.97196e-09
1.06014e-08
-1.28514e-08
1.61534e-08
-1.89999e-08
2.21962e-08
-2.64363e-08
2.8508e-08
-3.51601e-08
3.49125e-08
-4.51528e-08
4.12712e-08
-5.63809e-08
4.74762e-08
-6.87979e-08
5.34447e-08
-8.23466e-08
5.91143e-08
-9.69617e-08
6.44392e-08
-1.12571e-07
6.93869e-08
-1.29099e-07
7.39359e-08
-1.46464e-07
7.80737e-08
-1.64586e-07
8.17945e-08
-1.83382e-07
8.50987e-08
-2.0277e-07
8.79913e-08
-2.2267e-07
9.04807e-08
-2.43001e-07
9.25786e-08
-2.63687e-07
9.42989e-08
-2.84653e-07
9.56574e-08
-3.05829e-07
9.66711e-08
-3.27147e-07
9.73582e-08
-3.48542e-07
9.77373e-08
-3.69954e-07
9.78277e-08
-3.91326e-07
9.76487e-08
-4.12606e-07
9.72197e-08
-4.33744e-07
9.65598e-08
-4.54694e-07
9.5688e-08
-4.75417e-07
9.46227e-08
-4.95873e-07
9.33819e-08
-5.16029e-07
9.19829e-08
-5.35854e-07
9.04425e-08
-5.55321e-07
8.87766e-08
-5.74406e-07
8.70006e-08
-5.93087e-07
8.51288e-08
-6.11346e-07
8.31751e-08
-6.29169e-07
8.11523e-08
-6.46542e-07
7.90725e-08
-6.63454e-07
7.6947e-08
-6.79899e-07
7.47862e-08
-6.95868e-07
7.25998e-08
-7.1136e-07
7.03967e-08
-7.2637e-07
6.81851e-08
-7.40898e-07
6.59724e-08