/*--------------------------------*- C++ -*----------------------------------*\
  =========                 |
  \\      /  F ield         | OpenFOAM: The Open Source CFD Toolbox
   \\    /   O peration     | Website:  https://openfoam.org
    \\  /    A nd           | Version:  7
     \\/     M anipulation  |
\*---------------------------------------------------------------------------*/
FoamFile
{
    version     2.0;
    format      ascii;
    class       volVectorField;
    location    "0.2375";
    object      U;
}
// * * * * * * * * * * * * * * * * * * * * * * * * * * * * * * * * * * * * * //

dimensions      [0 1 -1 0 0 0 0];

internalField   nonuniform List<vector> 
12800
(
(8.31441e-06 -8.33323e-06 0)
(3.70697e-05 -1.85409e-05 0)
(7.85249e-05 -1.97134e-05 0)
(0.000113242 -1.53542e-05 0)
(0.000129986 -8.31139e-06 0)
(0.000123873 -1.3853e-07 0)
(9.27583e-05 8.34392e-06 0)
(3.60296e-05 1.66959e-05 0)
(-4.59565e-05 2.46848e-05 0)
(-0.000152253 3.21909e-05 0)
(-0.00028156 3.9155e-05 0)
(-0.000432371 4.55519e-05 0)
(-0.000603065 5.13762e-05 0)
(-0.000791963 5.66345e-05 0)
(-0.000997375 6.13409e-05 0)
(-0.00121762 6.55141e-05 0)
(-0.00145107 6.91757e-05 0)
(-0.00169611 7.23494e-05 0)
(-0.00195123 7.50598e-05 0)
(-0.00221494 7.73323e-05 0)
(-0.00248585 7.91923e-05 0)
(-0.00276263 8.06656e-05 0)
(-0.00304404 8.17773e-05 0)
(-0.00332889 8.25524e-05 0)
(-0.0036161 8.30153e-05 0)
(-0.00390464 8.31896e-05 0)
(-0.00419356 8.30984e-05 0)
(-0.00448198 8.2764e-05 0)
(-0.00476911 8.22078e-05 0)
(-0.00505421 8.14505e-05 0)
(-0.0053366 8.05116e-05 0)
(-0.00561569 7.941e-05 0)
(-0.00589094 7.81636e-05 0)
(-0.00616185 7.67892e-05 0)
(-0.006428 7.53029e-05 0)
(-0.00668901 7.37196e-05 0)
(-0.00694456 7.20535e-05 0)
(-0.00719437 7.03177e-05 0)
(-0.00743819 6.85246e-05 0)
(-0.00767584 6.66856e-05 0)
(-0.00790716 6.48112e-05 0)
(-0.00813202 6.29112e-05 0)
(-0.00835034 6.09945e-05 0)
(-0.00856206 5.90691e-05 0)
(-0.00876715 5.71425e-05 0)
(-0.00896559 5.52214e-05 0)
(-0.00915741 5.33118e-05 0)
(-0.00934263 5.14189e-05 0)
(-0.00952133 4.95474e-05 0)
(-0.00969355 4.77016e-05 0)
(-0.00985939 4.58848e-05 0)
(-0.0100189 4.41002e-05 0)
(-0.0101723 4.23502e-05 0)
(-0.0103196 4.06368e-05 0)
(-0.010461 3.89618e-05 0)
(-0.0105965 3.73261e-05 0)
(-0.0107263 3.57307e-05 0)
(-0.0108506 3.41759e-05 0)
(-0.0109695 3.26619e-05 0)
(-0.011083 3.11883e-05 0)
(-0.0111915 2.97548e-05 0)
(-0.0112948 2.83604e-05 0)
(-0.0113933 2.70041e-05 0)
(-0.011487 2.56845e-05 0)
(-0.0115761 2.44003e-05 0)
(-0.0116606 2.31495e-05 0)
(-0.0117407 2.19304e-05 0)
(-0.0118165 2.07408e-05 0)
(-0.0118881 1.95785e-05 0)
(-0.0119555 1.8441e-05 0)
(-0.0120188 1.73257e-05 0)
(-0.0120782 1.62301e-05 0)
(-0.0121336 1.51513e-05 0)
(-0.0121851 1.40864e-05 0)
(-0.0122328 1.30325e-05 0)
(-0.0122767 1.19864e-05 0)
(-0.0123169 1.09449e-05 0)
(-0.0123532 9.90474e-06 0)
(-0.0123857 8.86266e-06 0)
(-0.0124145 7.81529e-06 0)
(-0.0124394 6.7592e-06 0)
(-0.0124605 5.69094e-06 0)
(-0.0124777 4.607e-06 0)
(-0.0124909 3.50386e-06 0)
(-0.0125001 2.37801e-06 0)
(-0.0125051 1.22596e-06 0)
(-0.0125059 4.41972e-08 0)
(-0.0125024 -1.17074e-06 0)
(-0.0124945 -2.42229e-06 0)
(-0.012482 -3.71383e-06 0)
(-0.0124648 -5.04865e-06 0)
(-0.0124427 -6.42996e-06 0)
(-0.0124155 -7.86088e-06 0)
(-0.0123832 -9.34437e-06 0)
(-0.0123454 -1.08833e-05 0)
(-0.0123021 -1.24803e-05 0)
(-0.012253 -1.41377e-05 0)
(-0.0121979 -1.58579e-05 0)
(-0.0121366 -1.76427e-05 0)
(-0.0120689 -1.94938e-05 0)
(-0.0119945 -2.14126e-05 0)
(-0.0119133 -2.34001e-05 0)
(-0.011825 -2.54568e-05 0)
(-0.0117293 -2.7583e-05 0)
(-0.011626 -2.97782e-05 0)
(-0.011515 -3.20418e-05 0)
(-0.0113959 -3.43724e-05 0)
(-0.0112687 -3.6768e-05 0)
(-0.0111329 -3.92261e-05 0)
(-0.0109886 -4.17433e-05 0)
(-0.0108354 -4.43158e-05 0)
(-0.0106733 -4.69388e-05 0)
(-0.010502 -4.96067e-05 0)
(-0.0103215 -5.23132e-05 0)
(-0.0101316 -5.50509e-05 0)
(-0.00993234 -5.78118e-05 0)
(-0.00972355 -6.05867e-05 0)
(-0.00950527 -6.33655e-05 0)
(-0.00927752 -6.6137e-05 0)
(-0.00904037 -6.88892e-05 0)
(-0.00879393 -7.16089e-05 0)
(-0.00853835 -7.42819e-05 0)
(-0.00827384 -7.68929e-05 0)
(-0.00800066 -7.94256e-05 0)
(-0.00771912 -8.18627e-05 0)
(-0.00742961 -8.41859e-05 0)
(-0.00713256 -8.63757e-05 0)
(-0.00682848 -8.84119e-05 0)
(-0.00651795 -9.02734e-05 0)
(-0.00620162 -9.19381e-05 0)
(-0.00588021 -9.33831e-05 0)
(-0.00555453 -9.4585e-05 0)
(-0.00522546 -9.55196e-05 0)
(-0.00489394 -9.61621e-05 0)
(-0.00456104 -9.64873e-05 0)
(-0.00422787 -9.64697e-05 0)
(-0.00389563 -9.60834e-05 0)
(-0.00356563 -9.53024e-05 0)
(-0.00323922 -9.41005e-05 0)
(-0.00291786 -9.24519e-05 0)
(-0.00260308 -9.03308e-05 0)
(-0.00229648 -8.77117e-05 0)
(-0.00199975 -8.45697e-05 0)
(-0.00171462 -8.08804e-05 0)
(-0.00144289 -7.66212e-05 0)
(-0.00118643 -7.17706e-05 0)
(-0.000947116 -6.63095e-05 0)
(-0.00072688 -6.02212e-05 0)
(-0.000527638 -5.34939e-05 0)
(-0.000351284 -4.61238e-05 0)
(-0.000199641 -3.81194e-05 0)
(-7.43979e-05 -2.95092e-05 0)
(2.29849e-05 -2.0357e-05 0)
(9.14344e-05 -1.07913e-05 0)
(0.000130521 -1.06224e-06 0)
(0.000140877 8.35146e-06 0)
(0.000124818 1.65464e-05 0)
(8.77076e-05 2.17898e-05 0)
(4.20388e-05 2.08608e-05 0)
(9.63261e-06 9.63205e-06 0)
(1.85465e-05 -3.71027e-05 0)
(7.03429e-05 -7.03052e-05 0)
(0.000132044 -6.77589e-05 0)
(0.000170149 -4.20883e-05 0)
(0.000163374 -3.15275e-06 0)
(0.000100287 4.27158e-05 0)
(-2.53755e-05 9.15498e-05 0)
(-0.000216352 0.000140868 0)
(-0.000472852 0.000189124 0)
(-0.000793371 0.000235357 0)
(-0.00117527 0.000278975 0)
(-0.00161515 0.000319624 0)
(-0.00210914 0.000357108 0)
(-0.00265309 0.000391336 0)
(-0.00324269 0.000422292 0)
(-0.00387359 0.000450011 0)
(-0.00454145 0.000474563 0)
(-0.00524201 0.000496048 0)
(-0.00597112 0.000514579 0)
(-0.00672478 0.000530287 0)
(-0.00749915 0.000543309 0)
(-0.00829055 0.000553789 0)
(-0.00909551 0.000561873 0)
(-0.00991075 0.000567709 0)
(-0.0107332 0.000571447 0)
(-0.0115599 0.000573232 0)
(-0.0123883 0.000573209 0)
(-0.0132158 0.000571521 0)
(-0.0140401 0.000568303 0)
(-0.0148592 0.000563691 0)
(-0.0156711 0.000557812 0)
(-0.016474 0.000550791 0)
(-0.0172664 0.000542745 0)
(-0.0180469 0.000533788 0)
(-0.0188142 0.000524026 0)
(-0.0195671 0.000513562 0)
(-0.0203048 0.00050249 0)
(-0.0210264 0.000490901 0)
(-0.0217312 0.000478878 0)
(-0.0224186 0.000466501 0)
(-0.0230881 0.000453842 0)
(-0.0237393 0.000440969 0)
(-0.0243719 0.000427943 0)
(-0.0249858 0.000414822 0)
(-0.0255808 0.000401658 0)
(-0.0261568 0.000388498 0)
(-0.0267139 0.000375384 0)
(-0.0272522 0.000362355 0)
(-0.0277717 0.000349444 0)
(-0.0282726 0.00033668 0)
(-0.0287552 0.000324091 0)
(-0.0292197 0.000311697 0)
(-0.0296664 0.000299518 0)
(-0.0300956 0.000287569 0)
(-0.0305076 0.000275863 0)
(-0.0309027 0.000264409 0)
(-0.0312813 0.000253213 0)
(-0.0316439 0.00024228 0)
(-0.0319906 0.000231612 0)
(-0.032322 0.000221208 0)
(-0.0326384 0.000211065 0)
(-0.0329401 0.000201179 0)
(-0.0332275 0.000191543 0)
(-0.033501 0.00018215 0)
(-0.0337608 0.00017299 0)
(-0.0340074 0.000164051 0)
(-0.0342409 0.000155321 0)
(-0.0344618 0.000146786 0)
(-0.0346703 0.000138432 0)
(-0.0348665 0.000130242 0)
(-0.0350508 0.0001222 0)
(-0.0352233 0.000114286 0)
(-0.0353842 0.000106484 0)
(-0.0355336 9.87725e-05 0)
(-0.0356717 9.1132e-05 0)
(-0.0357985 8.35415e-05 0)
(-0.0359141 7.59796e-05 0)
(-0.0360185 6.84244e-05 0)
(-0.0361117 6.08534e-05 0)
(-0.0361937 5.3244e-05 0)
(-0.0362643 4.55733e-05 0)
(-0.0363236 3.78177e-05 0)
(-0.0363713 2.99539e-05 0)
(-0.0364072 2.19583e-05 0)
(-0.0364312 1.38073e-05 0)
(-0.0364431 5.47738e-06 0)
(-0.0364425 -3.05475e-06 0)
(-0.0364291 -1.18122e-05 0)
(-0.0364027 -2.08177e-05 0)
(-0.0363628 -3.00935e-05 0)
(-0.036309 -3.96615e-05 0)
(-0.0362409 -4.95426e-05 0)
(-0.0361581 -5.97572e-05 0)
(-0.03606 -7.03244e-05 0)
(-0.0359462 -8.12625e-05 0)
(-0.035816 -9.25882e-05 0)
(-0.0356691 -0.000104317 0)
(-0.0355046 -0.000116462 0)
(-0.0353221 -0.000129036 0)
(-0.035121 -0.000142048 0)
(-0.0349006 -0.000155506 0)
(-0.0346603 -0.000169415 0)
(-0.0343994 -0.000183777 0)
(-0.0341174 -0.000198592 0)
(-0.0338135 -0.000213855 0)
(-0.0334872 -0.00022956 0)
(-0.0331379 -0.000245694 0)
(-0.0327649 -0.000262243 0)
(-0.0323678 -0.000279187 0)
(-0.0319459 -0.000296501 0)
(-0.0314989 -0.000314158 0)
(-0.0310262 -0.000332122 0)
(-0.0305275 -0.000350354 0)
(-0.0300024 -0.000368809 0)
(-0.0294507 -0.000387435 0)
(-0.0288722 -0.000406176 0)
(-0.0282668 -0.000424969 0)
(-0.0276346 -0.000443742 0)
(-0.0269756 -0.00046242 0)
(-0.0262901 -0.00048092 0)
(-0.0255784 -0.000499152 0)
(-0.024841 -0.000517019 0)
(-0.0240786 -0.000534418 0)
(-0.0232918 -0.000551238 0)
(-0.0224818 -0.000567364 0)
(-0.0216495 -0.000582673 0)
(-0.0207962 -0.000597035 0)
(-0.0199235 -0.000610316 0)
(-0.019033 -0.000622376 0)
(-0.0181266 -0.000633069 0)
(-0.0172064 -0.000642246 0)
(-0.0162746 -0.000649754 0)
(-0.0153337 -0.000655436 0)
(-0.0143866 -0.000659132 0)
(-0.0134361 -0.000660682 0)
(-0.0124855 -0.000659923 0)
(-0.011538 -0.000656694 0)
(-0.0105974 -0.000650835 0)
(-0.00966746 -0.000642187 0)
(-0.00875222 -0.000630595 0)
(-0.00785593 -0.000615911 0)
(-0.00698301 -0.000597993 0)
(-0.00613806 -0.000576709 0)
(-0.00532583 -0.00055194 0)
(-0.0045512 -0.000523582 0)
(-0.00381912 -0.000491555 0)
(-0.00313462 -0.000455808 0)
(-0.00250268 -0.000416329 0)
(-0.00192822 -0.000373159 0)
(-0.00141594 -0.000326419 0)
(-0.000970212 -0.000276341 0)
(-0.000594859 -0.000223327 0)
(-0.000292862 -0.00016803 0)
(-6.59359e-05 -0.000111506 0)
(8.60939e-05 -5.54484e-05 0)
(0.000166197 -2.59071e-06 0)
(0.000181258 4.26658e-05 0)
(0.000143941 7.32317e-05 0)
(7.79633e-05 7.79339e-05 0)
(2.08585e-05 4.20278e-05 0)
(1.98018e-05 -7.86329e-05 0)
(6.81004e-05 -0.000132092 0)
(0.000111194 -0.000110668 0)
(0.000110385 -3.94559e-05 0)
(4.0413e-05 6.29635e-05 0)
(-0.000113579 0.000183372 0)
(-0.000360487 0.000312624 0)
(-0.000704711 0.000444513 0)
(-0.00114719 0.000574858 0)
(-0.00168638 0.000700867 0)
(-0.00231892 0.000820691 0)
(-0.00304024 0.000933134 0)
(-0.0038449 0.00103746 0)
(-0.00472693 0.00113324 0)
(-0.00568 0.00122031 0)
(-0.00669765 0.00129864 0)
(-0.00777333 0.00136833 0)
(-0.00890058 0.00142958 0)
(-0.0100731 0.00148266 0)
(-0.0112846 0.00152787 0)
(-0.0125292 0.00156556 0)
(-0.0138011 0.00159609 0)
(-0.0150951 0.00161986 0)
(-0.0164057 0.00163725 0)
(-0.0177283 0.00164867 0)
(-0.0190582 0.00165452 0)
(-0.0203912 0.00165519 0)
(-0.0217233 0.00165108 0)
(-0.0230508 0.00164256 0)
(-0.0243704 0.00163002 0)
(-0.0256789 0.00161381 0)
(-0.0269736 0.00159427 0)
(-0.0282518 0.00157175 0)
(-0.0295114 0.00154657 0)
(-0.0307502 0.00151902 0)
(-0.0319665 0.00148941 0)
(-0.0331586 0.00145799 0)
(-0.0343253 0.00142504 0)
(-0.0354652 0.00139078 0)
(-0.0365775 0.00135546 0)
(-0.0376612 0.00131927 0)
(-0.0387158 0.00128241 0)
(-0.0397408 0.00124506 0)
(-0.0407357 0.0012074 0)
(-0.0417004 0.00116956 0)
(-0.0426348 0.00113169 0)
(-0.0435387 0.00109391 0)
(-0.0444124 0.00105633 0)
(-0.0452559 0.00101905 0)
(-0.0460696 0.000982165 0)
(-0.0468537 0.000945742 0)
(-0.0476086 0.000909851 0)
(-0.0483348 0.000874546 0)
(-0.0490327 0.000839876 0)
(-0.0497027 0.000805877 0)
(-0.0503455 0.000772577 0)
(-0.0509616 0.000739999 0)
(-0.0515515 0.000708156 0)
(-0.0521159 0.000677054 0)
(-0.0526553 0.000646693 0)
(-0.0531702 0.000617068 0)
(-0.0536613 0.000588166 0)
(-0.0541291 0.00055997 0)
(-0.0545742 0.000532458 0)
(-0.054997 0.000505604 0)
(-0.0553982 0.000479375 0)
(-0.0557781 0.000453738 0)
(-0.0561372 0.000428653 0)
(-0.056476 0.000404078 0)
(-0.0567948 0.000379968 0)
(-0.057094 0.000356274 0)
(-0.0573738 0.000332946 0)
(-0.0576346 0.00030993 0)
(-0.0578766 0.00028717 0)
(-0.0580999 0.000264609 0)
(-0.0583047 0.000242187 0)
(-0.058491 0.000219844 0)
(-0.0586589 0.000197516 0)
(-0.0588084 0.000175139 0)
(-0.0589394 0.00015265 0)
(-0.0590519 0.000129981 0)
(-0.0591455 0.000107067 0)
(-0.0592201 8.38411e-05 0)
(-0.0592755 6.02357e-05 0)
(-0.0593112 3.61839e-05 0)
(-0.059327 1.16188e-05 0)
(-0.0593223 -1.35257e-05 0)
(-0.0592967 -3.93152e-05 0)
(-0.0592497 -6.58141e-05 0)
(-0.0591806 -9.30854e-05 0)
(-0.0590888 -0.00012119 0)
(-0.0589737 -0.000150189 0)
(-0.0588345 -0.000180136 0)
(-0.0586704 -0.000211088 0)
(-0.0584806 -0.000243094 0)
(-0.0582642 -0.0002762 0)
(-0.0580205 -0.000310449 0)
(-0.0577484 -0.000345879 0)
(-0.057447 -0.000382521 0)
(-0.0571154 -0.000420402 0)
(-0.0567525 -0.000459541 0)
(-0.0563575 -0.00049995 0)
(-0.0559292 -0.000541633 0)
(-0.0554667 -0.000584586 0)
(-0.054969 -0.000628795 0)
(-0.0544352 -0.000674236 0)
(-0.0538643 -0.000720873 0)
(-0.0532553 -0.000768662 0)
(-0.0526075 -0.000817542 0)
(-0.05192 -0.000867442 0)
(-0.0511921 -0.000918276 0)
(-0.050423 -0.000969943 0)
(-0.0496123 -0.00102233 0)
(-0.0487595 -0.0010753 0)
(-0.0478641 -0.0011287 0)
(-0.046926 -0.00118238 0)
(-0.0459451 -0.00123614 0)
(-0.0449213 -0.0012898 0)
(-0.043855 -0.00134311 0)
(-0.0427465 -0.00139586 0)
(-0.0415965 -0.00144777 0)
(-0.0404057 -0.00149857 0)
(-0.0391753 -0.00154798 0)
(-0.0379064 -0.00159566 0)
(-0.0366007 -0.0016413 0)
(-0.03526 -0.00168454 0)
(-0.0338863 -0.00172502 0)
(-0.0324821 -0.00176236 0)
(-0.03105 -0.00179615 0)
(-0.0295931 -0.001826 0)
(-0.0281147 -0.00185147 0)
(-0.0266184 -0.00187215 0)
(-0.0251083 -0.00188758 0)
(-0.0235887 -0.00189734 0)
(-0.0220643 -0.00190096 0)
(-0.0205402 -0.00189802 0)
(-0.0190216 -0.00188805 0)
(-0.0175143 -0.00187063 0)
(-0.0160244 -0.00184533 0)
(-0.0145581 -0.00181173 0)
(-0.013122 -0.00176946 0)
(-0.0117232 -0.00171813 0)
(-0.0103686 -0.00165744 0)
(-0.00906562 -0.0015871 0)
(-0.00782172 -0.00150688 0)
(-0.00664445 -0.00141664 0)
(-0.00554134 -0.00131635 0)
(-0.00451986 -0.00120608 0)
(-0.00358721 -0.00108612 0)
(-0.00275019 -0.000956969 0)
(-0.00201495 -0.000819503 0)
(-0.00138666 -0.000675073 0)
(-0.000869095 -0.000525734 0)
(-0.000464039 -0.000374577 0)
(-0.000170497 -0.000226214 0)
(1.63605e-05 -8.75173e-05 0)
(0.000106375 3.13322e-05 0)
(0.000116064 0.000115513 0)
(7.35315e-05 0.000143978 0)
(2.18431e-05 8.77401e-05 0)
(1.55774e-05 -0.000113661 0)
(4.29153e-05 -0.000170659 0)
(4.08813e-05 -0.000110063 0)
(-2.8137e-05 2.97334e-05 0)
(-0.000189836 0.000221191 0)
(-0.000460403 0.000443873 0)
(-0.000849911 0.000682913 0)
(-0.00136359 0.00092772 0)
(-0.00200281 0.00117082 0)
(-0.00276598 0.001407 0)
(-0.00364932 0.00163264 0)
(-0.00464742 0.0018453 0)
(-0.00575372 0.00204339 0)
(-0.00696087 0.00222594 0)
(-0.00826099 0.00239243 0)
(-0.00964592 0.00254268 0)
(-0.0111073 0.00267679 0)
(-0.012637 0.002795 0)
(-0.0142266 0.00289775 0)
(-0.0158682 0.00298555 0)
(-0.017554 0.003059 0)
(-0.0192765 0.00311876 0)
(-0.0210286 0.00316552 0)
(-0.0228034 0.00320001 0)
(-0.0245945 0.00322298 0)
(-0.0263957 0.00323516 0)
(-0.0282015 0.00323731 0)
(-0.0300065 0.00323016 0)
(-0.0318057 0.00321443 0)
(-0.0335947 0.00319084 0)
(-0.0353693 0.00316008 0)
(-0.0371256 0.00312282 0)
(-0.0388602 0.00307968 0)
(-0.0405701 0.00303131 0)
(-0.0422523 0.00297827 0)
(-0.0439045 0.00292113 0)
(-0.0455245 0.00286043 0)
(-0.0471103 0.00279665 0)
(-0.0486604 0.00273028 0)
(-0.0501734 0.00266175 0)
(-0.0516481 0.00259146 0)
(-0.0530836 0.00251981 0)
(-0.0544792 0.00244715 0)
(-0.0558344 0.00237379 0)
(-0.0571488 0.00230004 0)
(-0.0584222 0.00222616 0)
(-0.0596545 0.0021524 0)
(-0.060846 0.00207898 0)
(-0.0619966 0.0020061 0)
(-0.0631068 0.00193393 0)
(-0.064177 0.00186261 0)
(-0.0652075 0.00179229 0)
(-0.066199 0.00172307 0)
(-0.067152 0.00165505 0)
(-0.0680673 0.0015883 0)
(-0.0689454 0.00152288 0)
(-0.0697872 0.00145884 0)
(-0.0705933 0.00139619 0)
(-0.0713646 0.00133497 0)
(-0.0721017 0.00127517 0)
(-0.0728054 0.00121677 0)
(-0.0734766 0.00115977 0)
(-0.0741159 0.00110412 0)
(-0.074724 0.00104979 0)
(-0.0753017 0.000996718 0)
(-0.0758497 0.000944854 0)
(-0.0763685 0.000894128 0)
(-0.0768588 0.000844466 0)
(-0.0773211 0.000795786 0)
(-0.0777559 0.000748 0)
(-0.0781638 0.000701016 0)
(-0.078545 0.000654735 0)
(-0.0788999 0.000609054 0)
(-0.079229 0.000563865 0)
(-0.0795323 0.000519057 0)
(-0.07981 0.000474513 0)
(-0.0800624 0.000430117 0)
(-0.0802893 0.000385746 0)
(-0.0804908 0.000341277 0)
(-0.0806668 0.000296584 0)
(-0.0808172 0.00025154 0)
(-0.0809416 0.000206017 0)
(-0.0810399 0.000159884 0)
(-0.0811116 0.000113012 0)
(-0.0811562 6.52721e-05 0)
(-0.0811733 1.65344e-05 0)
(-0.0811624 -3.33288e-05 0)
(-0.0811226 -8.44438e-05 0)
(-0.0810533 -0.000136935 0)
(-0.0809538 -0.000190923 0)
(-0.0808231 -0.000246526 0)
(-0.0806604 -0.000303857 0)
(-0.0804647 -0.000363026 0)
(-0.0802349 -0.000424134 0)
(-0.07997 -0.000487278 0)
(-0.0796688 -0.000552546 0)
(-0.0793302 -0.000620019 0)
(-0.0789529 -0.000689766 0)
(-0.0785356 -0.000761847 0)
(-0.0780772 -0.00083631 0)
(-0.0775763 -0.00091319 0)
(-0.0770316 -0.000992507 0)
(-0.0764417 -0.00107427 0)
(-0.0758055 -0.00115846 0)
(-0.0751215 -0.00124504 0)
(-0.0743885 -0.00133398 0)
(-0.0736053 -0.0014252 0)
(-0.0727707 -0.0015186 0)
(-0.0718836 -0.00161407 0)
(-0.0709428 -0.00171145 0)
(-0.0699476 -0.0018106 0)
(-0.0688969 -0.00191129 0)
(-0.0677901 -0.00201331 0)
(-0.0666266 -0.0021164 0)
(-0.0654058 -0.00222026 0)
(-0.0641277 -0.00232458 0)
(-0.062792 -0.00242898 0)
(-0.0613989 -0.00253308 0)
(-0.0599488 -0.00263645 0)
(-0.0584422 -0.00273863 0)
(-0.05688 -0.00283911 0)
(-0.0552634 -0.00293736 0)
(-0.0535938 -0.0030328 0)
(-0.0518731 -0.00312484 0)
(-0.0501032 -0.00321282 0)
(-0.0482867 -0.00329607 0)
(-0.0464264 -0.0033739 0)
(-0.0445257 -0.00344556 0)
(-0.042588 -0.00351029 0)
(-0.0406175 -0.00356731 0)
(-0.0386187 -0.00361582 0)
(-0.0365965 -0.00365499 0)
(-0.0345562 -0.00368399 0)
(-0.0325037 -0.00370198 0)
(-0.0304452 -0.0037081 0)
(-0.0283874 -0.00370152 0)
(-0.0263374 -0.00368141 0)
(-0.0243028 -0.00364695 0)
(-0.0222916 -0.00359735 0)
(-0.0203121 -0.00353186 0)
(-0.018373 -0.00344977 0)
(-0.0164833 -0.00335045 0)
(-0.0146523 -0.00323333 0)
(-0.0128896 -0.00309794 0)
(-0.0112047 -0.00294396 0)
(-0.00960744 -0.00277123 0)
(-0.00810731 -0.00257978 0)
(-0.00671376 -0.00236995 0)
(-0.00543579 -0.00214243 0)
(-0.00428179 -0.00189841 0)
(-0.00325918 -0.00163974 0)
(-0.00237408 -0.00136919 0)
(-0.00163075 -0.00109079 0)
(-0.001031 -0.000810342 0)
(-0.000573361 -0.000536122 0)
(-0.000252044 -0.000279877 0)
(-5.58715e-05 -5.81714e-05 0)
(3.31725e-05 0.000106098 0)
(4.3556e-05 0.000181828 0)
(1.67325e-05 0.000125122 0)
(8.69368e-06 -0.000131033 0)
(4.48581e-06 -0.000164791 0)
(-6.07521e-05 -4.06788e-05 0)
(-0.000218732 0.000191265 0)
(-0.000492954 0.000495195 0)
(-0.000899397 0.000843861 0)
(-0.00144813 0.00121681 0)
(-0.00214439 0.00159897 0)
(-0.00298952 0.00197933 0)
(-0.00398171 0.00234996 0)
(-0.00511675 0.00270518 0)
(-0.00638856 0.00304101 0)
(-0.00778969 0.00335477 0)
(-0.00931172 0.00364474 0)
(-0.0109455 0.0039099 0)
(-0.0126816 0.00414982 0)
(-0.0145101 0.00436446 0)
(-0.0164213 0.00455413 0)
(-0.0184054 0.00471937 0)
(-0.0204528 0.00486092 0)
(-0.0225542 0.00497965 0)
(-0.0247006 0.00507655 0)
(-0.0268833 0.00515266 0)
(-0.0290939 0.00520911 0)
(-0.0313247 0.00524704 0)
(-0.0335683 0.0052676 0)
(-0.0358177 0.00527198 0)
(-0.0380663 0.00526133 0)
(-0.0403081 0.00523679 0)
(-0.0425375 0.00519951 0)
(-0.0447494 0.00515056 0)
(-0.0469391 0.00509103 0)
(-0.0491022 0.00502194 0)
(-0.0512349 0.00494428 0)
(-0.0533338 0.00485898 0)
(-0.0553957 0.00476697 0)
(-0.0574179 0.00466907 0)
(-0.0593981 0.00456612 0)
(-0.0613341 0.00445886 0)
(-0.0632243 0.00434801 0)
(-0.0650671 0.00423423 0)
(-0.0668615 0.00411815 0)
(-0.0686064 0.00400033 0)
(-0.0703013 0.00388131 0)
(-0.0719455 0.00376157 0)
(-0.0735389 0.00364154 0)
(-0.0750813 0.00352163 0)
(-0.0765728 0.0034022 0)
(-0.0780136 0.00328357 0)
(-0.079404 0.00316602 0)
(-0.0807445 0.00304981 0)
(-0.0820357 0.00293515 0)
(-0.0832781 0.00282222 0)
(-0.0844726 0.00271118 0)
(-0.0856198 0.00260216 0)
(-0.0867207 0.00249525 0)
(-0.0877761 0.00239053 0)
(-0.0887868 0.00228804 0)
(-0.0897539 0.00218782 0)
(-0.0906782 0.00208988 0)
(-0.0915607 0.00199418 0)
(-0.0924022 0.00190071 0)
(-0.0932038 0.00180942 0)
(-0.0939662 0.00172023 0)
(-0.0946903 0.00163308 0)
(-0.095377 0.00154785 0)
(-0.0960271 0.00146446 0)
(-0.0966411 0.00138277 0)
(-0.0972199 0.00130266 0)
(-0.0977641 0.00122398 0)
(-0.0982742 0.0011466 0)
(-0.0987506 0.00107034 0)
(-0.099194 0.000995041 0)
(-0.0996045 0.000920532 0)
(-0.0999826 0.000846632 0)
(-0.100328 0.000773154 0)
(-0.100642 0.000699907 0)
(-0.100923 0.000626695 0)
(-0.101173 0.00055332 0)
(-0.10139 0.000479577 0)
(-0.101574 0.000405262 0)
(-0.101726 0.000330167 0)
(-0.101845 0.000254085 0)
(-0.10193 0.000176805 0)
(-0.101981 9.81193e-05 0)
(-0.101998 1.78199e-05 0)
(-0.101978 -6.42988e-05 0)
(-0.101923 -0.00014844 0)
(-0.10183 -0.000234803 0)
(-0.101699 -0.000323582 0)
(-0.10153 -0.000414965 0)
(-0.101319 -0.000509135 0)
(-0.101067 -0.000606264 0)
(-0.100773 -0.000706517 0)
(-0.100434 -0.000810045 0)
(-0.10005 -0.000916989 0)
(-0.0996191 -0.00102748 0)
(-0.0991397 -0.00114161 0)
(-0.0986103 -0.0012595 0)
(-0.0980295 -0.0013812 0)
(-0.0973955 -0.00150678 0)
(-0.0967069 -0.00163625 0)
(-0.0959621 -0.00176963 0)
(-0.0951594 -0.00190689 0)
(-0.0942972 -0.00204797 0)
(-0.0933741 -0.0021928 0)
(-0.0923886 -0.00234124 0)
(-0.0913392 -0.00249315 0)
(-0.0902246 -0.00264833 0)
(-0.0890435 -0.00280653 0)
(-0.0877948 -0.00296749 0)
(-0.0864774 -0.00313088 0)
(-0.0850906 -0.00329632 0)
(-0.0836336 -0.00346339 0)
(-0.0821059 -0.00363161 0)
(-0.0805073 -0.00380046 0)
(-0.0788376 -0.00396935 0)
(-0.0770971 -0.00413765 0)
(-0.0752863 -0.00430467 0)
(-0.073406 -0.00446964 0)
(-0.0714572 -0.00463177 0)
(-0.0694415 -0.00479018 0)
(-0.0673606 -0.00494395 0)
(-0.0652169 -0.00509211 0)
(-0.063013 -0.00523362 0)
(-0.0607518 -0.0053674 0)
(-0.0584371 -0.00549232 0)
(-0.0560728 -0.00560721 0)
(-0.0536634 -0.00571084 0)
(-0.051214 -0.00580196 0)
(-0.04873 -0.00587929 0)
(-0.0462175 -0.00594151 0)
(-0.0436832 -0.0059873 0)
(-0.0411341 -0.00601533 0)
(-0.0385779 -0.00602426 0)
(-0.0360228 -0.00601277 0)
(-0.0334774 -0.00597954 0)
(-0.030951 -0.00592331 0)
(-0.0284533 -0.00584286 0)
(-0.0259942 -0.00573704 0)
(-0.0235845 -0.00560479 0)
(-0.0212348 -0.00544514 0)
(-0.0189564 -0.00525728 0)
(-0.0167607 -0.0050406 0)
(-0.014659 -0.00479466 0)
(-0.0126629 -0.00451937 0)
(-0.0107837 -0.00421494 0)
(-0.00903234 -0.0038821 0)
(-0.00741929 -0.00352213 0)
(-0.00595415 -0.00313714 0)
(-0.00464539 -0.00273024 0)
(-0.00349985 -0.00230596 0)
(-0.0025223 -0.00187065 0)
(-0.00171477 -0.00143317 0)
(-0.00107578 -0.00100572 0)
(-0.000599529 -0.000605028 0)
(-0.000274821 -0.000253879 0)
(-8.38859e-05 1.72622e-05 0)
(-8.55142e-07 0.000168082 0)
(8.73735e-06 0.000141855 0)
(6.66411e-07 -0.00012583 0)
(-4.10636e-05 -0.000102862 0)
(-0.000181033 0.000112757 0)
(-0.000441985 0.000461984 0)
(-0.00084332 0.000901859 0)
(-0.00139961 0.00139906 0)
(-0.00211995 0.00192796 0)
(-0.00300886 0.0024692 0)
(-0.00406715 0.00300826 0)
(-0.00529251 0.00353437 0)
(-0.00668018 0.00403964 0)
(-0.00822342 0.0045184 0)
(-0.00991399 0.00496671 0)
(-0.0117425 0.00538192 0)
(-0.0136989 0.00576243 0)
(-0.0157724 0.0061074 0)
(-0.0179521 0.00641665 0)
(-0.0202269 0.00669044 0)
(-0.0225857 0.00692942 0)
(-0.0250176 0.00713453 0)
(-0.027512 0.00730692 0)
(-0.0300584 0.00744792 0)
(-0.0326469 0.00755898 0)
(-0.0352679 0.00764163 0)
(-0.0379123 0.00769749 0)
(-0.0405716 0.00772819 0)
(-0.0432377 0.00773537 0)
(-0.0459029 0.00772069 0)
(-0.0485602 0.00768579 0)
(-0.051203 0.00763228 0)
(-0.0538254 0.00756173 0)
(-0.0564217 0.00747569 0)
(-0.0589869 0.00737563 0)
(-0.0615165 0.00726297 0)
(-0.0640064 0.0071391 0)
(-0.0664529 0.00700531 0)
(-0.0688527 0.00686285 0)
(-0.0712031 0.00671289 0)
(-0.0735017 0.00655654 0)
(-0.0757462 0.00639483 0)
(-0.077935 0.00622875 0)
(-0.0800666 0.00605919 0)
(-0.08214 0.00588699 0)
(-0.0841542 0.00571293 0)
(-0.0861087 0.00553771 0)
(-0.088003 0.00536198 0)
(-0.0898372 0.00518633 0)
(-0.0916111 0.0050113 0)
(-0.093325 0.00483734 0)
(-0.0949792 0.00466489 0)
(-0.0965743 0.00449431 0)
(-0.098111 0.00432592 0)
(-0.0995898 0.00416001 0)
(-0.101012 0.00399678 0)
(-0.102378 0.00383645 0)
(-0.103688 0.00367914 0)
(-0.104945 0.00352498 0)
(-0.106148 0.00337404 0)
(-0.1073 0.00322637 0)
(-0.108401 0.00308197 0)
(-0.109452 0.00294082 0)
(-0.110454 0.00280289 0)
(-0.111408 0.00266811 0)
(-0.112316 0.00253638 0)
(-0.113177 0.00240758 0)
(-0.113995 0.00228158 0)
(-0.114768 0.00215823 0)
(-0.115498 0.00203735 0)
(-0.116186 0.00191876 0)
(-0.116833 0.00180224 0)
(-0.117439 0.00168759 0)
(-0.118004 0.00157458 0)
(-0.11853 0.00146295 0)
(-0.119017 0.00135247 0)
(-0.119464 0.00124286 0)
(-0.119873 0.00113386 0)
(-0.120243 0.00102519 0)
(-0.120574 0.000916567 0)
(-0.120868 0.000807697 0)
(-0.121122 0.000698287 0)
(-0.121337 0.000588038 0)
(-0.121513 0.00047665 0)
(-0.12165 0.000363819 0)
(-0.121746 0.000249242 0)
(-0.121801 0.000132617 0)
(-0.121815 1.36404e-05 0)
(-0.121786 -0.000107984 0)
(-0.121713 -0.000232552 0)
(-0.121596 -0.00036035 0)
(-0.121434 -0.000491661 0)
(-0.121225 -0.000626756 0)
(-0.120968 -0.000765898 0)
(-0.120661 -0.000909335 0)
(-0.120303 -0.0010573 0)
(-0.119892 -0.00121002 0)
(-0.119428 -0.00136769 0)
(-0.118908 -0.00153049 0)
(-0.11833 -0.00169858 0)
(-0.117692 -0.00187208 0)
(-0.116994 -0.00205111 0)
(-0.116233 -0.00223572 0)
(-0.115407 -0.00242597 0)
(-0.114514 -0.00262184 0)
(-0.113553 -0.0028233 0)
(-0.112521 -0.00303027 0)
(-0.111417 -0.00324261 0)
(-0.11024 -0.00346014 0)
(-0.108987 -0.00368264 0)
(-0.107657 -0.0039098 0)
(-0.106249 -0.00414128 0)
(-0.104761 -0.00437667 0)
(-0.103193 -0.00461548 0)
(-0.101542 -0.00485717 0)
(-0.0998088 -0.00510112 0)
(-0.0979925 -0.00534663 0)
(-0.0960929 -0.00559293 0)
(-0.0941098 -0.00583916 0)
(-0.0920436 -0.00608441 0)
(-0.0898948 -0.00632765 0)
(-0.0876645 -0.00656779 0)
(-0.085354 -0.00680366 0)
(-0.082965 -0.00703399 0)
(-0.0804999 -0.00725744 0)
(-0.0779611 -0.0074726 0)
(-0.0753518 -0.00767797 0)
(-0.0726757 -0.00787199 0)
(-0.069937 -0.00805301 0)
(-0.0671404 -0.00821934 0)
(-0.0642912 -0.00836922 0)
(-0.0613952 -0.00850084 0)
(-0.0584589 -0.00861236 0)
(-0.0554895 -0.0087019 0)
(-0.0524945 -0.00876755 0)
(-0.0494823 -0.00880741 0)
(-0.0464618 -0.00881957 0)
(-0.0434425 -0.00880215 0)
(-0.0404344 -0.0087533 0)
(-0.0374483 -0.00867125 0)
(-0.0344951 -0.00855428 0)
(-0.0315867 -0.00840079 0)
(-0.0287351 -0.00820934 0)
(-0.0259526 -0.00797864 0)
(-0.0232522 -0.00770764 0)
(-0.0206466 -0.00739554 0)
(-0.018149 -0.00704191 0)
(-0.0157723 -0.00664673 0)
(-0.0135291 -0.00621054 0)
(-0.0114319 -0.00573453 0)
(-0.00949229 -0.00522078 0)
(-0.00772087 -0.00467247 0)
(-0.00612703 -0.00409419 0)
(-0.00471837 -0.0034924 0)
(-0.00350026 -0.00287597 0)
(-0.00247526 -0.00225692 0)
(-0.00164247 -0.00165137 0)
(-0.00099686 -0.00108083 0)
(-0.000528319 -0.000573794 0)
(-0.000220669 -0.000167408 0)
(-5.2753e-05 9.02334e-05 0)
(-4.35145e-07 0.000132693 0)
(-7.72397e-06 -9.57644e-05 0)
(-8.99865e-05 2.18697e-05 0)
(-0.000311392 0.000359974 0)
(-0.000684094 0.000853165 0)
(-0.00122215 0.00145282 0)
(-0.00193783 0.0021205 0)
(-0.00283845 0.00282603 0)
(-0.00392722 0.00354612 0)
(-0.0052039 0.00426292 0)
(-0.0066654 0.00496291 0)
(-0.0083062 0.00563597 0)
(-0.0101188 0.00627467 0)
(-0.0120942 0.00687371 0)
(-0.0142221 0.00742944 0)
(-0.0164915 0.00793956 0)
(-0.0188908 0.00840278 0)
(-0.0214079 0.00881868 0)
(-0.0240306 0.00918744 0)
(-0.0267467 0.00950978 0)
(-0.0295442 0.00978684 0)
(-0.0324112 0.01002 0)
(-0.0353363 0.0102111 0)
(-0.0383083 0.0103618 0)
(-0.0413164 0.0104742 0)
(-0.0443507 0.0105504 0)
(-0.0474014 0.0105926 0)
(-0.0504593 0.0106028 0)
(-0.053516 0.0105834 0)
(-0.0565636 0.0105365 0)
(-0.0595945 0.0104643 0)
(-0.062602 0.0103688 0)
(-0.0655798 0.0102522 0)
(-0.0685221 0.0101164 0)
(-0.0714239 0.00996337 0)
(-0.0742803 0.00979496 0)
(-0.0770873 0.00961293 0)
(-0.0798412 0.00941897 0)
(-0.0825386 0.00921466 0)
(-0.0851768 0.00900153 0)
(-0.0877535 0.00878097 0)
(-0.0902665 0.00855432 0)
(-0.0927143 0.00832281 0)
(-0.0950955 0.00808759 0)
(-0.0974091 0.0078497 0)
(-0.0996544 0.00761012 0)
(-0.101831 0.00736974 0)
(-0.103939 0.00712937 0)
(-0.105977 0.00688972 0)
(-0.107947 0.00665145 0)
(-0.109849 0.00641514 0)
(-0.111683 0.0061813 0)
(-0.11345 0.00595037 0)
(-0.11515 0.00572273 0)
(-0.116786 0.00549869 0)
(-0.118356 0.00527852 0)
(-0.119864 0.00506242 0)
(-0.121309 0.00485055 0)
(-0.122694 0.00464302 0)
(-0.124018 0.00443989 0)
(-0.125284 0.00424119 0)
(-0.126493 0.00404688 0)
(-0.127645 0.00385691 0)
(-0.128742 0.0036712 0)
(-0.129786 0.00348961 0)
(-0.130777 0.003312 0)
(-0.131716 0.00313818 0)
(-0.132604 0.00296794 0)
(-0.133443 0.00280106 0)
(-0.134233 0.00263726 0)
(-0.134975 0.00247629 0)
(-0.13567 0.00231783 0)
(-0.136319 0.00216159 0)
(-0.136921 0.00200724 0)
(-0.137478 0.00185442 0)
(-0.137989 0.00170279 0)
(-0.138456 0.00155198 0)
(-0.138878 0.00140161 0)
(-0.139255 0.00125129 0)
(-0.139588 0.00110063 0)
(-0.139876 0.000949239 0)
(-0.140119 0.000796697 0)
(-0.140316 0.000642602 0)
(-0.140467 0.000486541 0)
(-0.140572 0.000328103 0)
(-0.14063 0.000166878 0)
(-0.140639 2.45666e-06 0)
(-0.140599 -0.000165565 0)
(-0.140509 -0.000337585 0)
(-0.140367 -0.000513992 0)
(-0.140173 -0.000695168 0)
(-0.139925 -0.000881479 0)
(-0.139622 -0.00107328 0)
(-0.139262 -0.0012709 0)
(-0.138842 -0.00147467 0)
(-0.138363 -0.00168487 0)
(-0.137821 -0.00190178 0)
(-0.137215 -0.00212563 0)
(-0.136543 -0.00235663 0)
(-0.135802 -0.00259495 0)
(-0.134992 -0.00284074 0)
(-0.13411 -0.00309407 0)
(-0.133153 -0.003355 0)
(-0.13212 -0.00362351 0)
(-0.131008 -0.00389955 0)
(-0.129817 -0.004183 0)
(-0.128542 -0.00447367 0)
(-0.127184 -0.00477131 0)
(-0.12574 -0.0050756 0)
(-0.124207 -0.00538613 0)
(-0.122585 -0.00570243 0)
(-0.120873 -0.00602392 0)
(-0.119068 -0.00634994 0)
(-0.11717 -0.00667975 0)
(-0.115178 -0.0070125 0)
(-0.113092 -0.00734723 0)
(-0.11091 -0.0076829 0)
(-0.108634 -0.00801834 0)
(-0.106264 -0.00835229 0)
(-0.103799 -0.00868337 0)
(-0.101242 -0.00901008 0)
(-0.0985943 -0.00933084 0)
(-0.0958573 -0.00964393 0)
(-0.0930337 -0.00994754 0)
(-0.0901267 -0.0102397 0)
(-0.0871397 -0.0105185 0)
(-0.084077 -0.0107817 0)
(-0.0809433 -0.0110272 0)
(-0.0777439 -0.0112526 0)
(-0.0744849 -0.0114556 0)
(-0.0711728 -0.0116337 0)
(-0.067815 -0.0117845 0)