/*--------------------------------*- C++ -*----------------------------------*\
  =========                 |
  \\      /  F ield         | OpenFOAM: The Open Source CFD Toolbox
   \\    /   O peration     | Website:  https://openfoam.org
    \\  /    A nd           | Version:  7
     \\/     M anipulation  |
\*---------------------------------------------------------------------------*/
FoamFile
{
    version     2.0;
    format      ascii;
    class       volScalarField;
    location    "0.2375";
    object      p;
}
// * * * * * * * * * * * * * * * * * * * * * * * * * * * * * * * * * * * * * //

dimensions      [0 2 -2 0 0 0 0];

internalField   nonuniform List<scalar> 
12800
(
1.815e-06
0.000185215
-0.000899467
-0.00334336
-0.00690103
-0.0113256
-0.0163837
-0.021862
-0.0275739
-0.0333593
-0.0390818
-0.0446261
-0.0498949
-0.0548068
-0.0592937
-0.0632997
-0.0667789
-0.0696947
-0.0720183
-0.0737278
-0.0748075
-0.0752468
-0.0750402
-0.0741859
-0.0726857
-0.0705447
-0.0677706
-0.0643733
-0.0603647
-0.0557584
-0.0505693
-0.0448133
-0.0385076
-0.0316696
-0.0243175
-0.0164699
-0.00814532
0.000637372
0.00985948
0.0195024
0.0295479
0.0399777
0.0507743
0.0619204
0.0733991
0.0851943
0.0972901
0.109671
0.122324
0.135233
0.148386
0.161769
0.175372
0.189181
0.203187
0.217379
0.231748
0.246283
0.260978
0.275823
0.290811
0.305936
0.32119
0.336568
0.352065
0.367675
0.383392
0.399214
0.415136
0.431154
0.447265
0.463465
0.479752
0.496122
0.512574
0.529105
0.545713
0.562395
0.579149
0.595974
0.612866
0.629824
0.646846
0.663928
0.681069
0.698266
0.715516
0.732816
0.750161
0.767549
0.784975
0.802434
0.819922
0.837432
0.854959
0.872496
0.890035
0.907568
0.925088
0.942583
0.960045
0.977461
0.994821
1.01211
1.02932
1.04643
1.06342
1.08029
1.09701
1.11356
1.12992
1.14608
1.16202
1.1777
1.19311
1.20822
1.223
1.23744
1.25151
1.26517
1.2784
1.29117
1.30345
1.31522
1.32645
1.3371
1.34715
1.35657
1.36534
1.37342
1.3808
1.38746
1.39336
1.3985
1.40285
1.40641
1.40916
1.41111
1.41223
1.41255
1.41207
1.41079
1.40876
1.40598
1.4025
1.39837
1.39364
1.38838
1.38266
1.3766
1.37029
1.36387
1.3575
1.35137
1.34567
1.34067
1.33662
1.33381
1.33254
1.3327
-0.00017875
4.51955e-06
-0.000998256
-0.00313034
-0.00616789
-0.00993546
-0.0142593
-0.0189687
-0.0239072
-0.0289355
-0.0339316
-0.0387895
-0.0434178
-0.0477387
-0.0516863
-0.0552052
-0.0582495
-0.0607817
-0.0627716
-0.0641958
-0.0650365
-0.0652812
-0.0649218
-0.0639544
-0.0623783
-0.0601962
-0.0574133
-0.0540372
-0.0500775
-0.0455455
-0.0404537
-0.0348162
-0.0286477
-0.0219639
-0.014781
-0.00711578
0.00101485
0.00959372
0.0186036
0.0280274
0.037848
0.0480486
0.0586126
0.0695239
0.0807666
0.0923252
0.104185
0.116331
0.12875
0.141428
0.154352
0.167511
0.180892
0.194483
0.208276
0.222258
0.236421
0.250757
0.265255
0.279908
0.29471
0.309652
0.324728
0.339933
0.355259
0.370703
0.386258
0.401921
0.417687
0.433552
0.449512
0.465564
0.481705
0.497931
0.51424
0.530628
0.547094
0.563634
0.580246
0.596927
0.613675
0.630487
0.647361
0.664294
0.681282
0.698323
0.715413
0.732549
0.749726
0.766941
0.784189
0.801465
0.818763
0.836077
0.853402
0.870729
0.888052
0.905362
0.92265
0.939907
0.957122
0.974284
0.991382
1.0084
1.02533
1.04216
1.05886
1.07542
1.09184
1.10807
1.12412
1.13996
1.15557
1.17092
1.18599
1.20077
1.21522
1.22933
1.24306
1.25639
1.2693
1.28176
1.29374
1.30521
1.31615
1.32654
1.33634
1.34553
1.35409
1.362
1.36922
1.37575
1.38157
1.38665
1.39099
1.39457
1.39739
1.39944
1.40073
1.40126
1.40104
1.4001
1.39844
1.3961
1.39312
1.38955
1.38544
1.38086
1.37588
1.3706
1.36512
1.35957
1.35409
1.34884
1.34399
1.33975
1.33631
1.33387
1.3327
1.33286
0.000905607
0.0010085
4.85579e-06
-0.00197923
-0.0047286
-0.00810106
-0.0119564
-0.016153
-0.0205573
-0.0250481
-0.0295164
-0.0338657
-0.0380117
-0.0418814
-0.0454118
-0.0485496
-0.0512498
-0.0534753
-0.0551957
-0.0563867
-0.0570298
-0.057111
-0.0566209
-0.055554
-0.0539081
-0.0516841
-0.0488855
-0.045518
-0.0415896
-0.0371096
-0.0320892
-0.0265404
-0.0204766
-0.0139118
-0.00686079
0.00066126
0.00863871
0.0170557
0.0258963
0.0351444
0.0447841
0.0547997
0.0651754
0.0758959
0.0869462
0.0983117
0.109978
0.121931
0.134158
0.146645
0.159381
0.172353
0.185549
0.19896
0.212574
0.226381
0.240373
0.254539
0.268873
0.283365
0.298009
0.312796
0.327722
0.342778
0.35796
0.373262
0.388679
0.404206
0.419838
0.435572
0.451403
0.467327
0.483342
0.499443
0.515628
0.531893
0.548235
0.564652
0.581141
0.597698
0.614322
0.631008
0.647754
0.664557
0.681413
0.69832
0.715272
0.732267
0.749301
0.766367
0.783463
0.800582
0.817718
0.834866
0.852019
0.86917
0.88631
0.903432
0.920526
0.937582
0.954591
0.971541
0.98842
1.00522
1.02192
1.0385
1.05496
1.07128
1.08744
1.10343
1.11922
1.13479
1.15013
1.16521
1.18002
1.19452
1.20871
1.22254
1.23601
1.24908
1.26173
1.27394
1.28568
1.29692
1.30764
1.31782
1.32743
1.33644
1.34485
1.35261
1.35972
1.36616
1.37191
1.37696
1.38129
1.3849
1.38778
1.38994
1.39136
1.39207
1.39207
1.39139
1.39003
1.38804
1.38546
1.38232
1.37869
1.37462
1.37019
1.36549
1.36062
1.35569
1.35082
1.34615
1.34185
1.33806
1.33495
1.33269
1.33152
1.33158
0.00335114
0.00314388
0.00198736
-1.96138e-06
-0.00264479
-0.00581751
-0.00940023
-0.0132723
-0.017319
-0.0214343
-0.0255213
-0.0294935
-0.0332737
-0.0367944
-0.0399967
-0.0428302
-0.0452519
-0.0472258
-0.0487221
-0.0497168
-0.050191
-0.0501302
-0.0495244
-0.048367
-0.0466548
-0.0443875
-0.0415673
-0.0381989
-0.0342886
-0.0298447
-0.0248768
-0.0193957
-0.0134135
-0.00694298
2.44437e-06
0.00740866
0.0152612
0.0235453
0.032246
0.0413484
0.0508373
0.0606978
0.0709151
0.0814747
0.0923621
0.103563
0.115065
0.126853
0.138915
0.151239
0.163811
0.176622
0.189659
0.202912
0.21637
0.230025
0.243866
0.257885
0.272074
0.286424
0.300928
0.315579
0.33037
0.345295
0.360348
0.375523
0.390816
0.406221
0.421733
0.437348
0.453062
0.468872
0.484772
0.50076
0.516832
0.532986
0.549217
0.565522
0.581899
0.598343
0.614853
0.631425
0.648055
0.664741
0.681477
0.698262
0.715091
0.731959
0.748862
0.765796
0.782755
0.799734
0.816727
0.833727
0.850727
0.867721
0.8847
0.901655
0.918579
0.93546
0.952289
0.969054
0.985743
1.00234
1.01884
1.03523
1.05148
1.06759
1.08354
1.0993
1.11487
1.13022
1.14533
1.16019
1.17477
1.18905
1.203
1.21662
1.22987
1.24272
1.25516
1.26716
1.2787
1.28976
1.3003
1.31031
1.31976
1.32864
1.33692
1.34458
1.35161
1.35798
1.36369
1.36871
1.37305
1.37669
1.37964
1.38188
1.38343
1.38429
1.38447
1.384
1.3829
1.38119
1.37892
1.37613
1.37287
1.36919
1.36518
1.36092
1.35648
1.35197
1.34751
1.34322
1.33923
1.33567
1.33269
1.33043
1.32908
1.32878
0.00692101
0.00619336
0.00474017
0.00262885
-2.46034e-05
-0.00311418
-0.00653682
-0.0101908
-0.0139785
-0.0178079
-0.0215944
-0.0252607
-0.0287376
-0.0319635
-0.0348843
-0.037453
-0.0396291
-0.0413785
-0.0426727
-0.0434881
-0.0438062
-0.0436126
-0.0428967
-0.0416515
-0.0398731
-0.0375602
-0.0347144
-0.0313389
-0.0274393
-0.0230226
-0.0180974
-0.0126733
-0.00676118
-0.000372748
0.00647959
0.0137828
0.0215236
0.029688
0.0382622
0.0472319
0.0565831
0.0663015
0.0763732
0.0867842
0.0975209
0.10857
0.119918
0.131552
0.14346
0.15563
0.16805
0.180708
0.193595
0.206699
0.22001
0.233519
0.247217
0.261096
0.275145
0.289359
0.303729
0.318249
0.332911
0.347709
0.362637
0.37769
0.392862
0.408148
0.423544
0.439044
0.454644
0.47034
0.486129
0.502007
0.517969
0.534012
0.550133
0.566329
0.582595
0.59893
0.615328
0.631787
0.648304
0.664874
0.681494
0.69816
0.714867
0.731611
0.748388
0.765193
0.782019
0.798862
0.815715
0.832572
0.849426
0.866269
0.883093
0.89989
0.916651
0.933365
0.950022
0.966612
0.983121
0.999539
1.01585
1.03204
1.0481
1.06401
1.07976
1.09532
1.11068
1.12582
1.14073
1.15538
1.16975
1.18382
1.19757
1.21099
1.22403
1.23669
1.24894
1.26076
1.27212
1.28301
1.29339
1.30326
1.31258
1.32133
1.32951
1.33708
1.34403
1.35035
1.35603
1.36104
1.36539
1.36907
1.37208
1.37441
1.37607
1.37707
1.37742
1.37715
1.37627
1.37481
1.37282
1.37032
1.36737
1.36404
1.36037
1.35645
1.35235
1.34817
1.34401
1.33997
1.33616
1.33271
1.32972
1.32732
1.32563
1.32473
0.0113793
0.00998963
0.00812765
0.00579558
0.0030319
-7.40744e-05
-0.00343383
-0.0069629
-0.0105791
-0.0142038
-0.0177636
-0.0211907
-0.0244235
-0.0274068
-0.0300914
-0.0324342
-0.0343979
-0.0359505
-0.0370652
-0.0377196
-0.0378957
-0.0375795
-0.0367606
-0.0354317
-0.0335884
-0.031229
-0.0283543
-0.024967
-0.0210715
-0.0166741
-0.0117824
-0.0064051
-0.00055212
0.00576583
0.0125373
0.0197502
0.0273921
0.03545
0.0439109
0.0527614
0.0619881
0.0715777
0.0815168
0.0917921
0.102391
0.113299
0.124506
0.135998
0.147763
0.15979
0.172068
0.184584
0.19733
0.210294
0.223467
0.23684
0.250403
0.264148
0.278066
0.29215
0.306393
0.320787
0.335326
0.350003
0.364811
0.379747
0.394803
0.409974
0.425257
0.440645
0.456135
0.471723
0.487403
0.503173
0.519027
0.534964
0.550978
0.567067
0.583226
0.599453
0.615743
0.632092
0.648498
0.664956
0.681462
0.698013
0.714602
0.731227
0.747881
0.764561
0.78126
0.797972
0.814692
0.831412
0.848125
0.864825
0.881502
0.898148
0.914754
0.93131
0.947805
0.96423
0.980571
0.996817
1.01295
1.02897
1.04485
1.06057
1.07613
1.09151
1.10668
1.12163
1.13635
1.15081
1.16499
1.17887
1.19244
1.20567
1.21854
1.23102
1.2431
1.25476
1.26597
1.2767
1.28695
1.29669
1.30589
1.31455
1.32263
1.33013
1.33703
1.34331
1.34896
1.35397
1.35834
1.36206
1.36512
1.36754
1.36931
1.37044
1.37094
1.37084
1.37016
1.36892
1.36716
1.36491
1.36223
1.35917
1.35577
1.35212
1.34828
1.34434
1.34037
1.33647
1.33274
1.32927
1.32616
1.32351
1.32137
1.31971
0.0165047
0.0143679
0.0120167
0.00938439
0.00642725
0.00321973
-0.00016187
-0.0036486
-0.0071723
-0.0106665
-0.0140683
-0.0173189
-0.0203642
-0.0231553
-0.0256481
-0.0278038
-0.0295884
-0.0309724
-0.0319311
-0.0324435
-0.0324928
-0.0320656
-0.0311517
-0.0297441
-0.0278383
-0.0254324
-0.0225266
-0.0191231
-0.0152259
-0.0108404
-0.00597356
-0.000633309
0.00517127
0.0114303
0.018133
0.0252684
0.0328245
0.0407893
0.0491506
0.0578955
0.0670116
0.0764861
0.0863062
0.0964594
0.106933
0.117715
0.128793
0.140155
0.15179
0.163686
0.175832
0.188218
0.200833
0.213668
0.226713
0.239958
0.253395
0.267015
0.280811
0.294773
0.308896
0.323172
0.337594
0.352156
0.366851
0.381674
0.39662
0.411683
0.426857
0.442139
0.457523
0.473005
0.488582
0.504248
0.519999
0.535833
0.551744
0.567729
0.583785
0.599907
0.616093
0.632337
0.648636
0.664986
0.681382
0.697821
0.714298
0.730808
0.747345
0.763905
0.780482
0.79707
0.813663
0.830253
0.846834
0.863397
0.879935
0.89644
0.912901
0.929309
0.945654
0.961925
0.97811
0.994196
1.01017
1.02602
1.04174
1.05729
1.07268
1.08789
1.10289
1.11767
1.13222
1.1465
1.16052
1.17423
1.18764
1.2007
1.21341
1.22574
1.23768
1.24919
1.26027
1.27088
1.28101
1.29064
1.29975
1.30832
1.31633
1.32377
1.33062
1.33687
1.34251
1.34753
1.35192
1.35568
1.35881
1.3613
1.36317
1.36442
1.36506
1.36511
1.3646
1.36354
1.36198
1.35994
1.35747
1.35462
1.35143
1.34798
1.34431
1.34052
1.33666
1.33281
1.32905
1.32547
1.32215
1.31917
1.31647
1.31398
0.022096
0.0191664
0.0162724
0.0132804
0.0100648
0.00668745
0.0032146
-0.00029859
-0.00379659
-0.00722394
-0.0105273
-0.0136564
-0.0165645
-0.0192086
-0.0215501
-0.0235541
-0.0251903
-0.0264321
-0.0272569
-0.0276456
-0.0275826
-0.0270554
-0.0260548
-0.0245738
-0.0226083
-0.0201562
-0.0172177
-0.0137946
-0.00989053
-0.00551039
-0.000660522
0.00465166
0.0104177
0.0166285
0.0232739
0.0303435
0.0378263
0.0457107
0.0539852
0.0626378
0.0716564
0.0810288
0.0907431
0.100787
0.111149
0.121816
0.132778
0.144022
0.155538
0.167315
0.179342
0.191608
0.204103
0.216819
0.229744
0.242872
0.256191
0.269696
0.283376
0.297225
0.311236
0.325401
0.339713
0.354166
0.368754
0.383471
0.398312
0.413271
0.428343
0.443522
0.458805
0.474187
0.489664
0.50523
0.520882
0.536617
0.552429
0.568315
0.584271
0.600293
0.616378
0.63252
0.648716
0.664963
0.681254
0.697586
0.713955
0.730354
0.74678
0.763226
0.779687
0.796157
0.812629
0.829096
0.845551
0.861987
0.878395
0.894766
0.911092
0.927363
0.943568
0.959696
0.975736
0.991676
1.0075
1.0232
1.03876
1.05417
1.06941
1.08446
1.0993
1.11393
1.12832
1.14246
1.15632
1.16989
1.18315
1.19607
1.20865
1.22085
1.23265
1.24405
1.25501
1.26551
1.27554
1.28509
1.29412
1.30262
1.31058
1.31797
1.32479
1.33103
1.33667
1.3417
1.34612
1.34992
1.35311
1.35568
1.35763
1.35899
1.35975
1.35993
1.35956
1.35866
1.35726
1.35538
1.35308
1.35039
1.34735
1.34403
1.34048
1.33676
1.33293
1.32905
1.3252
1.32143
1.31782
1.31444
1.31114
1.30776
0.0279781
0.0242368
0.0207678
0.0173738
0.0138507
0.0102503
0.00663049
0.00303447
-0.000493458
-0.00390772
-0.00716381
-0.0102193
-0.0130341
-0.0155714
-0.0177975
-0.0196819
-0.0211977
-0.0223214
-0.0230327
-0.0233146
-0.023153
-0.0225367
-0.021457
-0.0199079
-0.0178855
-0.0153881
-0.0124156
-0.00896994
-0.00505439
-0.000673637
0.00416641
0.00945878
0.0151956
0.021368
0.0279668
0.0349819
0.0424029
0.050219
0.058419
0.0669915
0.0759252
0.0852083
0.0948292
0.104776
0.115039
0.125604
0.136461
0.1476
0.159009
0.170677
0.182595
0.194751
0.207138
0.219744
0.23256
0.245579
0.25879
0.272187
0.285761
0.299504
0.31341
0.32747
0.34168
0.356031
0.370518
0.385135
0.399877
0.414737
0.429711
0.444794
0.459981
0.475267
0.490648
0.506119
0.521677
0.537316
0.553033
0.568824
0.584684
0.60061
0.616598
0.632642
0.64874
0.664887
0.681077
0.697308
0.713572
0.729867
0.746186
0.762524
0.778875
0.795232
0.81159
0.827941
0.844279
0.860594
0.87688
0.893127
0.909327
0.92547
0.941544
0.957541
0.973448
0.989253
1.00494
1.02051
1.03593
1.0512
1.0663
1.08121
1.09592
1.11041
1.12467
1.13867
1.1524
1.16584
1.17897
1.19177
1.20423
1.21631
1.22801
1.2393
1.25017
1.26059
1.27054
1.28001
1.28898
1.29743
1.30535
1.31272
1.31952
1.32575
1.3314
1.33645
1.3409
1.34475
1.34799
1.35063
1.35267
1.35412
1.35499
1.35529
1.35504
1.35426
1.35299
1.35124
1.34906
1.34649
1.34356
1.34031
1.33681
1.3331
1.32924
1.32527
1.32125
1.31724
1.31329
1.30946
1.30553
1.30124
0.0339998
0.0294467
0.0253861
0.0215621
0.0176959
0.0138315
0.0100207
0.00629621
0.00269237
-0.000753963
-0.00400626
-0.00702922
-0.00978927
-0.0122551
-0.0143977
-0.0161911
-0.0176118
-0.0186393
-0.019256
-0.0194467
-0.0191992
-0.0185036
-0.0173524
-0.0157402
-0.0136638
-0.0111217
-0.00811425
-0.00464329
-0.000712094
0.00367481
0.00851175
0.0137921
0.0195082
0.0256519
0.0322141
0.0391854
0.0465558
0.054315
0.0624523
0.0709569
0.0798177
0.0890236
0.0985635
0.108426
0.118601
0.129076
0.139841
0.150885
0.162198
0.173769
0.185589
0.197647
0.209933
0.22244
0.235157
0.248076
0.261188
0.274486
0.287961
0.301606
0.315414
0.329378
0.343492
0.357747
0.37214
0.386663
0.401311
0.416079
0.430961
0.445952
0.461047
0.476242
0.491532
0.506913
0.52238
0.537928
0.553555
0.569254
0.585023
0.600857
0.616752
0.632703
0.648707
0.664758
0.680852
0.696985
0.713151
0.729346
0.745564
0.761799
0.778045
0.794297
0.810547
0.826789
0.843015
0.859219
0.87539
0.891522
0.907605
0.923629
0.939584
0.95546
0.971244
0.986927
1.00249
1.01793
1.03323
1.04838
1.06335
1.07814
1.09273
1.1071
1.12123
1.13512
1.14874
1.16206
1.17509
1.18779
1.20014
1.21213
1.22374
1.23495
1.24574
1.25609
1.26598
1.2754
1.28433
1.29274
1.30063
1.30799
1.31479
1.32102
1.32668
1.33176
1.33625
1.34015
1.34345
1.34615
1.34827
1.3498
1.35076
1.35116
1.35101
1.35034
1.34917
1.34752
1.34543
1.34293
1.34005
1.33684
1.33334
1.3296
1.32564
1.32153
1.31731
1.313
1.30867
1.30437
1.29978
1.29461
0.0400326
0.0346788
0.0300217
0.0257504
0.0215164
0.0173578
0.013322
0.00943251
0.0057153
0.00219945
-0.00108564
-0.00411118
-0.00684949
-0.00927444
-0.0113618
-0.0130894
-0.0144375
-0.0153885
-0.0159274
-0.0160411
-0.0157193
-0.0149535
-0.0137375
-0.0120668
-0.0099389
-0.00735289
-0.00430944
-0.000810609
0.00314023
0.00753856
0.0123788
0.0176545
0.0233583
0.0294822
0.0360176
0.0429554
0.050286
0.0579994
0.0660854
0.0745336
0.0833334
0.092474
0.101945
0.111735
0.121833
0.13223
0.142914
0.153875
0.165104
0.176588
0.18832
0.20029
0.212487
0.224904
0.237531
0.250359
0.263381
0.276589
0.289974
0.303529
0.317247
0.331122
0.345146
0.359313
0.373617
0.388053
0.402613
0.417294
0.432089
0.446993
0.462003
0.477112
0.492315
0.50761
0.522991
0.538453
0.553993
0.569605
0.585287
0.601033
0.61684
0.632702
0.648615
0.664576
0.680579
0.696619
0.712691
0.728791
0.744913
0.76105
0.777198
0.79335
0.809499
0.825639
0.841762
0.85786
0.873926
0.88995
0.905925
0.92184
0.937685
0.95345
0.969124
0.984695
1.00015
1.01548
1.03067
1.0457
1.06056
1.07524
1.08973
1.10399
1.11802
1.13181
1.14533
1.15856
1.17149
1.18411
1.19638
1.2083
1.21984
1.23098
1.24171
1.25201
1.26186
1.27124
1.28014
1.28853
1.29641
1.30376
1.31057
1.31682
1.3225
1.32762
1.33215
1.33609
1.33945
1.34223
1.34441
1.34602
1.34707
1.34755
1.34748
1.34689
1.3458
1.34422
1.34219
1.33972
1.33687
1.33365
1.33011
1.32629
1.32221
1.31791
1.31344
1.3088
1.30407
1.29928
1.29404
1.28799
0.0459659
0.0398299
0.0345793
0.029852
0.0252341
0.0207598
0.0164731
0.0123903
0.00852972
0.00491378
0.00156556
-0.00149204
-0.00423669
-0.00664712
-0.00870345
-0.0103874
-0.0116826
-0.0125744
-0.0130502
-0.0130996
-0.0127137
-0.0118858
-0.010611
-0.00888576
-0.00670852
-0.00407901
-0.000998378
0.00253095
0.00650539
0.0109203
0.0157701
0.0210483
0.0267478
0.0328608
0.0393788
0.046293
0.0535942
0.0612727
0.0693185
0.0777217
0.0864718
0.0955587
0.104972
0.114701
0.124735
0.135065
0.145679
0.156569
0.167723
0.179133
0.190788
0.202679
0.214797
0.227134
0.23968
0.252427
0.265367
0.278493
0.291796
0.305269
0.318905
0.332698
0.34664
0.360725
0.374948
0.389301
0.403781
0.41838
0.433094
0.447917
0.462845
0.477873
0.492996
0.508209
0.523508
0.538889
0.554346
0.569876
0.585475
0.601138
0.61686
0.632638
0.648466
0.66434
0.680256
0.696208
0.712192
0.728202
0.744233
0.760279
0.776334
0.792392
0.808446
0.82449
0.840516
0.856517
0.872485
0.888411
0.904286
0.9201
0.935845
0.95151
0.967083
0.982554
0.99791
1.01314
1.02823
1.04316
1.05793
1.07252
1.08691
1.10108
1.11503
1.12873
1.14217
1.15532
1.16818
1.18073
1.19294
1.20479
1.21628
1.22738
1.23807
1.24833
1.25815
1.26751
1.2764
1.28479
1.29267
1.30003
1.30685
1.31313
1.31885
1.324
1.32858
1.33258
1.336
1.33884
1.34109
1.34277
1.34389
1.34444
1.34445
1.34392
1.34288
1.34135
1.33934
1.3369
1.33403
1.33077
1.32716
1.32322
1.31898
1.31447
1.30971
1.30474
1.29958
1.2943
1.28841
1.28151
0.0517041
0.0448087
0.0389732
0.0337877
0.0287766
0.023972
0.0194159
0.015118
0.0110905
0.00734992
0.00391379
0.000799752
-0.00197475
-0.00439289
-0.00643884
-0.00809799
-0.00935715
-0.0102047
-0.0106305
-0.0106263
-0.0101853
-0.0093022
-0.00797353
-0.00619707
-0.00397207
-0.00129905
0.00182022
0.00538286
0.00938494
0.0138216
0.0186871
0.023975
0.0296781
0.0357887
0.0422986
0.0491991
0.0564811
0.0641351
0.0721517
0.0805209
0.0892328
0.0982772
0.107644
0.117324
0.127305
0.137579
0.148135
0.158964
0.170055
0.1814
0.192988
0.204812
0.216861
0.229127
0.241602
0.254277
0.267144
0.280197
0.293426
0.306825
0.320387
0.334104
0.347972
0.361982
0.376129
0.390408
0.404812
0.419335
0.433974
0.448722
0.463574
0.478526
0.493572
0.508709
0.523931
0.539234
0.554614
0.570067
0.585587
0.601171
0.616813
0.632511
0.648258
0.664051
0.679884
0.695753
0.711653
0.727578
0.743523
0.759483
0.775451
0.791422
0.807388
0.823343
0.839279
0.85519
0.871067
0.886902
0.902686
0.918409
0.934063
0.949637
0.96512
0.980501
0.995769
1.01091
1.02591
1.04076
1.05545
1.06995
1.08426
1.09836
1.11224
1.12587
1.13924
1.15234
1.16514
1.17763
1.1898
1.20161
1.21306
1.22413
1.2348
1.24504
1.25485
1.26421
1.27309
1.28149
1.28939
1.29678
1.30363
1.30994
1.3157
1.3209
1.32553
1.32959
1.33307
1.33598
1.3383
1.34005
1.34122
1.34184
1.3419
1.34143
1.34043
1.33892
1.33692
1.33446
1.33156
1.32824
1.32452
1.32044
1.31601
1.31126
1.30621
1.30087
1.29529
1.2895
1.28298
1.27527
0.0571647
0.049535
0.0431268
0.0374852
0.0320772
0.0269334
0.0220947
0.0175658
0.0133533
0.00946887
0.00592498
0.00273469
-8.89757e-05
-0.00253326
-0.00458609
-0.00623628
-0.00747375
-0.00828962
-0.00867634
-0.00862769
-0.00813884
-0.00720627
-0.00582781
-0.0040025
-0.00173061
0.000986456
0.00414626
0.00774534
0.0117793
0.0162431
0.0211306
0.0264352
0.0321499
0.0382667
0.0447776
0.051674
0.0589468
0.066587
0.074585
0.0829312
0.0916158
0.100629
0.109961
0.119602
0.129542
0.139772
0.150281
0.161059
0.172099
0.183389
0.194921
0.206687
0.218676
0.230882
0.243295
0.255907
0.268711
0.281698
0.294862
0.308194
0.32169
0.33534
0.34914
0.363082
0.377161
0.39137
0.405705
0.420159
0.434728
0.449406
0.464187
0.479068
0.494043
0.509109
0.524259
0.53949
0.554797
0.570176
0.585622
0.601131
0.616698
0.63232
0.647991
0.663706
0.679462
0.695253
0.711074
0.726919
0.742785
0.758664
0.77455
0.790439
0.806323
0.822195
0.838049
0.853877
0.86967
0.885422
0.901123
0.916765
0.932337
0.947829
0.963232
0.978534
0.993724
1.00879
1.02372
1.0385
1.05311
1.06755
1.0818
1.09583
1.10965
1.12323
1.13655
1.1496
1.16236
1.17482
1.18695
1.19874
1.21017
1.22123
1.23188
1.24213
1.25194
1.26131
1.27021
1.27864
1.28657
1.29398
1.30088
1.30724
1.31305
1.31831
1.323
1.32712
1.33067
1.33363
1.33602
1.33784
1.33907
1.33974
1.33985
1.33941
1.33844
1.33694
1.33494
1.33245
1.32948
1.32608
1.32224
1.31799
1.31336
1.30835
1.30299
1.29728
1.29126
1.28498
1.27785
1.26935
0.0622753
0.0539373
0.046971
0.040879
0.0350741
0.0295865
0.024457
0.0196859
0.0152751
0.011232
0.00756491
0.00428261
0.00139427
-0.00109112
-0.00316491
-0.00481914
-0.00604664
-0.0068412
-0.00719767
-0.00711198
-0.00658119
-0.00560347
-0.00417809
-0.00230538
1.33016e-05
0.00277564
0.0059784
0.00961749
0.013688
0.0181844
0.0231004
0.0284291
0.0341632
0.0402949
0.046816
0.0537179
0.0609917
0.0686282
0.0766183
0.0849523
0.0936208
0.102614
0.111923
0.121536
0.131446
0.141642
0.152114
0.162854
0.173852
0.185099
0.196585
0.208303
0.220243
0.232398
0.244758
0.257316
0.270065
0.282996
0.296102
0.309377
0.322813
0.336404
0.350143
0.364024
0.378041
0.392188
0.40646
0.420851
0.435355
0.449968
0.464685
0.4795
0.494409
0.509408
0.524491
0.539654
0.554893
0.570203
0.585579
0.601018
0.616515
0.632065
0.647664
0.663308
0.67899
0.694708
0.710454
0.726226
0.742016
0.757819
0.77363
0.789443
0.805251
0.821047
0.836824
0.852576
0.868294
0.883971
0.899597
0.915164
0.930663
0.946084
0.961416
0.976649
0.991771
1.00677
1.02164
1.03636
1.05091
1.0653
1.07949
1.09348
1.10725
1.12079
1.13408
1.1471
1.15984
1.17227
1.18439
1.19617
1.2076
1.21865
1.22932
1.23958
1.24942
1.25881
1.26775
1.27621
1.28418
1.29165
1.2986
1.30501
1.31089
1.31621
1.32097
1.32516
1.32877
1.33181
1.33426
1.33614
1.33743
1.33815
1.3383
1.33789
1.33693
1.33543
1.33341
1.33087
1.32783
1.32432
1.32034
1.31592
1.31106
1.30579
1.30011
1.29402
1.28757
1.28081
1.27308
1.26382
0.0669725
0.0579521
0.0504436
0.0439091
0.0377105
0.0318781
0.0264532
0.0214324
0.0168141
0.0126015
0.00879944
0.00541304
0.00244791
-9.03299e-05
-0.00219623
-0.00386479
-0.00509161
-0.00587302
-0.00620616
-0.00608905
-0.00552062
-0.00450073
-0.00303011
-0.00111042
0.00125587
0.00406545
0.00731426
0.0109975
0.0151096
0.0196446
0.0245958
0.0299561
0.0357179
0.0418732
0.0484137
0.0553308
0.0626156
0.070259
0.0782517
0.0865845
0.0952478
0.104232
0.113528
0.123126
0.133016
0.14319
0.153637
0.164348
0.175315
0.186529
0.19798
0.20966
0.22156
0.233673
0.24599
0.258504
0.271206
0.284089
0.297147
0.310371
0.323756
0.337295
0.35098
0.364807
0.378769
0.39286
0.407076
0.421409
0.435855
0.450409
0.465066
0.479821
0.49467
0.509606
0.524627
0.539727
0.554902
0.570148
0.585459
0.600833
0.616264
0.631747
0.647279
0.662854
0.678469
0.694117
0.709795
0.725496
0.741216
0.75695
0.772691
0.788433
0.80417
0.819897
0.835604
0.851287
0.866936
0.882545
0.898104
0.913606
0.92904
0.944398
0.959669
0.974842
0.989908
1.00485
1.01967
1.03434
1.04885
1.06319
1.07735
1.0913
1.10504
1.11856
1.13182
1.14483
1.15756
1.16999
1.1821
1.19389
1.20533
1.21641
1.2271
1.23739
1.24726
1.25669
1.26568
1.27419
1.28222
1.28975
1.29677
1.30325
1.3092
1.3146
1.31943
1.3237
1.32739
1.3305
1.33302
1.33496
1.33631
1.33708
1.33726
1.33687
1.33592
1.33441
1.33235
1.32975
1.32663
1.323
1.31887
1.31426
1.30917
1.30363
1.29762
1.29115
1.28428
1.27704
1.26873
1.25875
0.0711997
0.0615224
0.053488
0.0465206
0.0399336
0.033758
0.0280362
0.0227617
0.0179296
0.0135402
0.00959474
0.00609536
0.0030444
0.000444456
-0.00170197
-0.00339264
-0.00462575
-0.00540001
-0.00571479
-0.00557013
-0.0049668
-0.00390631
-0.0023909
-0.000423525
0.00199216
0.00485182
0.00815048
0.0118826
0.016042
0.020622
0.0256156
0.0310153
0.0368132
0.0430011
0.0495705
0.0565126
0.0638186
0.0714793
0.0794855
0.0878278
0.096497
0.105483
0.114778
0.124371
0.134253
0.144415
0.154847
0.165542
0.176488
0.187679
0.199105
0.210757
0.222628
0.234709
0.246992
0.25947
0.272134
0.284978
0.297995
0.311178
0.324519
0.338013
0.351652
0.365432
0.379346
0.393388
0.407552
0.421834
0.436228
0.450729
0.465332
0.480032
0.494824
0.509704
0.524667
0.539709
0.554825
0.570011
0.585263
0.600575
0.615944
0.631365
0.646834
0.662346
0.677897
0.693481
0.709094
0.724731
0.740386
0.756055
0.771731
0.787409
0.803082
0.818744
0.834388
0.850008
0.865595
0.881143
0.896643
0.912087
0.927465
0.942768
0.957987
0.973111
0.988129
1.00303
1.0178
1.03243
1.04691
1.06122
1.07535
1.08929
1.10301
1.11652
1.12978
1.14278
1.15551
1.16795
1.18009
1.1919
1.20336
1.21447
1.2252
1.23554
1.24546
1.25495
1.264
1.27258
1.28068
1.28829
1.29538
1.30195
1.30798
1.31346
1.31838
1.32273
1.32651
1.32969
1.33229
1.33429
1.3357
1.33651
1.33673
1.33637
1.33541
1.33388
1.33178
1.32912
1.3259
1.32215
1.31786
1.31305
1.30773
1.3019
1.29557
1.28873
1.28144
1.27374
1.26487
1.2542
0.0749066
0.0645967
0.0560531
0.0486631
0.0416944
0.0351793
0.0291613
0.0236317
0.0185827
0.0140117
0.00991742
0.00629898
0.00315593
0.000488055
-0.00170481
-0.00342301
-0.00466714
-0.00543822
-0.00573772
-0.00556765
-0.00493057
-0.00382963
-0.00226855
-0.000251633
0.00221627
0.00512976
0.00848293
0.0122694
0.0164823
0.0211144
0.0261581
0.0316055
0.0374483
0.043678
0.050286
0.0572633
0.0646008
0.0722895
0.0803199
0.0886828
0.0973688
0.106369
0.115673
0.125272
0.135157
0.145318
0.155747
0.166435
0.177372
0.18855
0.199961
0.211596
0.223447
0.235505
0.247764
0.260215
0.27285
0.285664
0.298648
0.311797
0.325102
0.338559
0.352159
0.365899
0.379771
0.39377
0.40789
0.422127
0.436474
0.450927
0.465482
0.480132
0.494873
0.509702
0.524612
0.539601
0.554663
0.569793
0.584989
0.600245
0.615556
0.63092
0.64633
0.661784
0.677275
0.6928
0.708353
0.72393
0.739526
0.755134
0.770751
0.786369
0.801983
0.817587
0.833174
0.848738
0.86427
0.879764
0.895212
0.910605
0.925935
0.941192
0.956367
0.97145
0.986431
1.0013
1.01604
1.03064
1.0451
1.05939
1.07351
1.08744
1.10116
1.11466
1.12793
1.14094
1.15369
1.16616
1.17832
1.19017
1.20168
1.21284
1.22363
1.23402
1.24401
1.25358
1.2627
1.27137
1.27955
1.28725
1.29444
1.3011
1.30723
1.31281
1.31782
1.32226
1.32612
1.3294
1.33207
1.33414
1.33561
1.33647
1.33673
1.33638
1.33543
1.33387
1.33173
1.329
1.32568
1.3218
1.31735
1.31234
1.30678
1.30067
1.29401
1.28681
1.27911
1.27095
1.26154
1.25021
0.0780477
0.0671283
0.0580914
0.0502898
0.0429473
0.0360978
0.0297864
0.0240023
0.0187353
0.0139806
0.0097345
0.00599345
0.00275449
1.48804e-05
-0.00222802
-0.00397693
-0.00523474
-0.00600462
-0.00629008
-0.00609502
-0.00542375
-0.00428104
-0.00267209
-0.000602557
0.0019215
0.00489358
0.0083068
0.0121539
0.0164273
0.0211191
0.0262212
0.031725
0.0376219
0.0439032
0.0505599
0.0575827
0.0649624
0.0726899
0.0807556
0.0891502
0.0978643
0.106889
0.116214
0.12583
0.135729
0.145901
0.156338
0.167029
0.177968
0.189144
0.20055
0.212177
0.224017
0.236063
0.248306
0.26074
0.273356
0.286147
0.299107
0.312229
0.325507
0.338933
0.352502
0.366209
0.380046
0.394008
0.408091
0.422288
0.436595
0.451006
0.465517
0.480123
0.494819
0.5096
0.524463
0.539403
0.554415
0.569495
0.584639
0.599843
0.615102
0.630412
0.645769
0.661167
0.676604
0.692074
0.707572
0.723094
0.738634
0.754188
0.76975
0.785314
0.800875
0.816426
0.831962
0.847475
0.862959
0.878406
0.893809
0.909159
0.924448
0.939667
0.954807
0.969859
0.984811
0.999653
1.01437
1.02896
1.04341
1.05769
1.07181
1.08574
1.09947
1.11298
1.12627
1.13931
1.1521
1.1646
1.17681
1.18871
1.20028
1.2115
1.22236
1.23283
1.24291
1.25256
1.26178
1.27054
1.27883
1.28663
1.29392
1.30069
1.30693
1.31261
1.31774
1.32228
1.32624
1.32961
1.33237
1.33452
1.33605
1.33697
1.33726
1.33693
1.33598
1.3344
1.33221
1.32941
1.32599
1.32198
1.31736
1.31215
1.30635
1.29996
1.29299
1.28542
1.27732
1.26872
1.25879
1.24682
0.0805817
0.069074
0.0595595
0.0513573
0.0436495
0.0364717
0.029871
0.0238348
0.0183508
0.0134124
0.00901349
0.00514848
0.00181201
-0.00100094
-0.00329532
-0.00507605
-0.0063482
-0.00711696
-0.00738781
-0.00716648
-0.00645899
-0.00527172
-0.00361134
-0.00148484
0.00110047
0.00413697
0.00761677
0.0115317
0.0158735
0.0206333
0.0258026
0.0313722
0.0373331
0.0436761
0.0503919
0.0574709
0.0649039
0.0726812
0.0807935
0.0892311
0.0979848
0.107045
0.116402
0.126048
0.135972
0.146166
0.156621
0.167327
0.178277
0.189462
0.200873
0.212503
0.224343
0.236385
0.248622
0.261047
0.273652
0.286429
0.299374
0.312477
0.325734
0.339138
0.352683
0.366363
0.380172
0.394105
0.408155
0.422319
0.436591
0.450966
0.465439
0.480005
0.494661
0.509401
0.524221
0.539116
0.554083
0.569118
0.584215
0.599371
0.614581
0.629842
0.645149
0.660498
0.675884
0.691303
0.706751
0.722222
0.737712
0.753215
0.768728
0.784243
0.799756
0.815261
0.830751
0.84622
0.861661
0.877067
0.892432
0.907746
0.923002
0.938191
0.953304
0.968332
0.983264
0.998091
1.0128
1.02738
1.04182
1.05611
1.07024
1.08418
1.09793
1.11148
1.1248
1.13788
1.15071
1.16327
1.17554
1.1875
1.19915
1.21045
1.22139
1.23196
1.24213
1.25189
1.26121
1.27009
1.27849
1.28641
1.29383
1.30072
1.30708
1.31289
1.31813
1.32279
1.32686
1.33033
1.33319
1.33542
1.33703
1.338
1.33833
1.33803
1.33708
1.33549
1.33325
1.33038
1.32686
1.32271
1.31793
1.31252
1.30648
1.29982
1.29253
1.28461
1.27612
1.2671
1.25666
1.24408
0.0824702
0.0703942
0.0604166
0.0518247
0.0437605
0.0362614
0.0293765
0.0230918
0.0173935
0.0122729
0.00772234
0.00373396
0.000300399
-0.0025855
-0.0049308
-0.00674252
-0.00802773
-0.00879363
-0.00904753
-0.00879697
-0.00804965
-0.00681352
-0.00509672
-0.00290761
-0.000254742
0.00285313
0.00640709
0.0103981
0.0148168
0.0196539
0.0249
0.0305455
0.0365807
0.0429961
0.0497819
0.0569284