/*--------------------------------*- C++ -*----------------------------------*\
  =========                 |
  \\      /  F ield         | OpenFOAM: The Open Source CFD Toolbox
   \\    /   O peration     | Website:  https://openfoam.org
    \\  /    A nd           | Version:  7
     \\/     M anipulation  |
\*---------------------------------------------------------------------------*/
FoamFile
{
    version     2.0;
    format      ascii;
    class       volScalarField;
    location    "0.325";
    object      p;
}
// * * * * * * * * * * * * * * * * * * * * * * * * * * * * * * * * * * * * * //

dimensions      [0 2 -2 0 0 0 0];

internalField   nonuniform List<scalar> 
12800
(
-6.39355e-07
0.000180891
-0.000904401
-0.00334859
-0.00690654
-0.0113315
-0.0163901
-0.0218691
-0.0275817
-0.0333677
-0.0390908
-0.0446359
-0.0499054
-0.054818
-0.0593056
-0.0633122
-0.0667921
-0.0697085
-0.0720327
-0.0737428
-0.074823
-0.0752629
-0.0750567
-0.0742028
-0.0727031
-0.0705625
-0.0677888
-0.0643918
-0.0603835
-0.0557775
-0.0505886
-0.0448329
-0.0385274
-0.0316896
-0.0243377
-0.0164902
-0.00816576
0.000616849
0.0098389
0.0194818
0.0295272
0.0399571
0.0507537
0.0618997
0.0733785
0.0851737
0.0972696
0.109651
0.122303
0.135213
0.148366
0.161749
0.175352
0.189162
0.203168
0.21736
0.231729
0.246265
0.26096
0.275805
0.290794
0.305919
0.321174
0.336552
0.352049
0.367659
0.383378
0.3992
0.415122
0.431141
0.447252
0.463452
0.47974
0.496111
0.512564
0.529095
0.545703
0.562386
0.579141
0.595966
0.612858
0.629817
0.646839
0.663923
0.681064
0.698262
0.715512
0.732813
0.750159
0.767547
0.784974
0.802434
0.819922
0.837433
0.854961
0.872498
0.890038
0.907572
0.925092
0.942588
0.960051
0.977468
0.994829
1.01212
1.02933
1.04644
1.06343
1.0803
1.09702
1.11357
1.12994
1.1461
1.16203
1.17771
1.19312
1.20823
1.22302
1.23746
1.25153
1.26519
1.27842
1.29119
1.30347
1.31524
1.32647
1.33712
1.34717
1.35659
1.36536
1.37344
1.38083
1.38748
1.39338
1.39852
1.40288
1.40643
1.40919
1.41113
1.41225
1.41257
1.41209
1.41081
1.40878
1.406
1.40252
1.39839
1.39366
1.38839
1.38268
1.37661
1.3703
1.36388
1.35751
1.35138
1.34568
1.34068
1.33663
1.33382
1.33254
1.33271
-0.000183168
-1.92435e-07
-0.00100323
-0.00313559
-0.00617342
-0.00994133
-0.0142656
-0.0189756
-0.0239147
-0.0289437
-0.0339404
-0.0387988
-0.0434277
-0.0477493
-0.0516975
-0.055217
-0.0582619
-0.0607947
-0.0627852
-0.06421
-0.0650512
-0.0652964
-0.0649374
-0.0639704
-0.0623947
-0.060213
-0.0574305
-0.0540548
-0.0500954
-0.0455636
-0.0404721
-0.0348348
-0.0286665
-0.0219829
-0.0148003
-0.00713517
0.000995337
0.00957412
0.018584
0.0280077
0.0378282
0.0480288
0.0585929
0.0695041
0.0807468
0.0923055
0.104165
0.116312
0.128731
0.141409
0.154333
0.167492
0.180873
0.194465
0.208257
0.22224
0.236404
0.250739
0.265238
0.279892
0.294693
0.309636
0.324713
0.339917
0.355244
0.370688
0.386244
0.401907
0.417674
0.433539
0.4495
0.465552
0.481693
0.49792
0.514229
0.530618
0.547084
0.563625
0.580237
0.596919
0.613668
0.630481
0.647355
0.664288
0.681277
0.698319
0.715409
0.732546
0.749724
0.766939
0.784188
0.801464
0.818763
0.836078
0.853403
0.870731
0.888055
0.905365
0.922654
0.939912
0.957128
0.974291
0.991389
1.00841
1.02534
1.04216
1.05887
1.07543
1.09185
1.10809
1.12414
1.13997
1.15558
1.17093
1.18601
1.20078
1.21524
1.22934
1.24308
1.25641
1.26932
1.28178
1.29376
1.30523
1.31617
1.32656
1.33636
1.34555
1.35411
1.36202
1.36925
1.37577
1.38159
1.38667
1.39101
1.39459
1.39741
1.39946
1.40075
1.40128
1.40106
1.40011
1.39846
1.39612
1.39314
1.38957
1.38546
1.38087
1.37589
1.37061
1.36513
1.35958
1.3541
1.34885
1.344
1.33976
1.33631
1.33388
1.3327
1.33287
0.000900692
0.00100368
-4.16777e-08
-0.00198436
-0.00473404
-0.00810685
-0.0119626
-0.0161596
-0.0205646
-0.0250559
-0.0295247
-0.0338746
-0.0380212
-0.0418915
-0.0454225
-0.0485608
-0.0512616
-0.0534877
-0.0552086
-0.0564002
-0.0570437
-0.0571254
-0.0566357
-0.0555693
-0.0539238
-0.0517002
-0.0489019
-0.0455348
-0.0416066
-0.037127
-0.0321068
-0.0265583
-0.0204947
-0.0139301
-0.00687921
0.000642681
0.00862
0.0170369
0.0258774
0.0351255
0.0447652
0.0547807
0.0651564
0.0758769
0.0869272
0.0982927
0.109959
0.121912
0.134139
0.146627
0.159362
0.172334
0.185531
0.198942
0.212556
0.226364
0.240355
0.254522
0.268856
0.283349
0.297993
0.312781
0.327706
0.342763
0.357945
0.373248
0.388665
0.404192
0.419825
0.435559
0.45139
0.467315
0.48333
0.499432
0.515617
0.531883
0.548226
0.564643
0.581133
0.597691
0.614314
0.631001
0.647748
0.664551
0.681408
0.698315
0.715269
0.732264
0.749298
0.766366
0.783462
0.800581
0.817718
0.834867
0.852021
0.869172
0.886313
0.903435
0.92053
0.937587
0.954596
0.971547
0.988427
1.00522
1.02192
1.03851
1.05497
1.07129
1.08745
1.10344
1.11923
1.1348
1.15014
1.16522
1.18003
1.19454
1.20872
1.22256
1.23603
1.2491
1.26175
1.27396
1.2857
1.29694
1.30766
1.31784
1.32745
1.33646
1.34486
1.35263
1.35974
1.36618
1.37193
1.37698
1.38131
1.38492
1.3878
1.38996
1.39138
1.39209
1.39209
1.3914
1.39005
1.38806
1.38547
1.38234
1.3787
1.37463
1.3702
1.36551
1.36063
1.3557
1.35083
1.34616
1.34186
1.33807
1.33496
1.3327
1.33153
1.33159
0.00334629
0.00313916
0.00198263
-6.8695e-06
-0.00265001
-0.00582311
-0.00940622
-0.0132787
-0.0173259
-0.0214417
-0.0255293
-0.029502
-0.0332828
-0.036804
-0.0400069
-0.0428409
-0.0452632
-0.0472376
-0.0487344
-0.0497296
-0.0502042
-0.0501439
-0.0495385
-0.0483815
-0.0466697
-0.0444028
-0.041583
-0.0382149
-0.0343049
-0.0298613
-0.0248936
-0.0194128
-0.0134308
-0.00696048
-1.52463e-05
0.00739081
0.0152432
0.0235272
0.0322279
0.0413302
0.050819
0.0606795
0.0708968
0.0814564
0.0923438
0.103545
0.115046
0.126835
0.138897
0.15122
0.163793
0.176604
0.189641
0.202894
0.216353
0.230008
0.24385
0.257869
0.272058
0.286408
0.300912
0.315563
0.330355
0.34528
0.360334
0.375509
0.390802
0.406208
0.42172
0.437336
0.453051
0.46886
0.484761
0.50075
0.516822
0.532976
0.549207
0.565513
0.58189
0.598336
0.614846
0.631418
0.648049
0.664735
0.681473
0.698258
0.715087
0.731956
0.74886
0.765794
0.782754
0.799733
0.816726
0.833727
0.850728
0.867722
0.884702
0.901658
0.918582
0.935464
0.952294
0.969059
0.985749
1.00235
1.01885
1.03524
1.05149
1.0676
1.08355
1.09931
1.11488
1.13023
1.14534
1.1602
1.17478
1.18906
1.20302
1.21663
1.22988
1.24274
1.25518
1.26718
1.27872
1.28977
1.30032
1.31033
1.31978
1.32866
1.33694
1.3446
1.35163
1.358
1.3637
1.36873
1.37307
1.37671
1.37965
1.3819
1.38344
1.3843
1.38449
1.38402
1.38291
1.38121
1.37894
1.37614
1.37288
1.36921
1.3652
1.36093
1.35649
1.35198
1.34752
1.34323
1.33924
1.33568
1.3327
1.33044
1.32909
1.32879
0.00691647
0.00618889
0.00473567
0.00262419
-2.95483e-05
-0.0031195
-0.00654255
-0.010197
-0.0139851
-0.017815
-0.021602
-0.0252688
-0.0287462
-0.0319727
-0.034894
-0.0374631
-0.0396398
-0.0413897
-0.0426843
-0.0435002
-0.0438188
-0.0436256
-0.0429101
-0.0416653
-0.0398873
-0.0375748
-0.0347293
-0.0313542
-0.0274549
-0.0230385
-0.0181135
-0.0126896
-0.00677775
-0.000389529
0.00646262
0.0137657
0.0215063
0.0296706
0.0382447
0.0472144
0.0565655
0.0662839
0.0763556
0.0867666
0.0975032
0.108552
0.1199
0.131534
0.143443
0.155612
0.168032
0.180691
0.193578
0.206682
0.219993
0.233503
0.247201
0.26108
0.27513
0.289344
0.303714
0.318234
0.332896
0.347695
0.362623
0.377677
0.392849
0.408136
0.423531
0.439032
0.454632
0.470329
0.486119
0.501996
0.517959
0.534003
0.550124
0.56632
0.582587
0.598922
0.615321
0.631781
0.648298
0.664869
0.681489
0.698155
0.714863
0.731608
0.748385
0.76519
0.782018
0.798861
0.815715
0.832573
0.849427
0.866271
0.883096
0.899893
0.916654
0.933369
0.950027
0.966617
0.983127
0.999545
1.01586
1.03205
1.04811
1.06402
1.07977
1.09533
1.11069
1.12584
1.14074
1.15539
1.16976
1.18384
1.19759
1.211
1.22405
1.23671
1.24896
1.26078
1.27214
1.28303
1.29341
1.30327
1.3126
1.32135
1.32952
1.3371
1.34405
1.35037
1.35604
1.36106
1.36541
1.36909
1.37209
1.37442
1.37608
1.37709
1.37744
1.37717
1.37629
1.37483
1.37283
1.37033
1.36739
1.36405
1.36038
1.35646
1.35236
1.34818
1.34402
1.33998
1.33617
1.33271
1.32973
1.32733
1.32564
1.32474
0.0113752
0.00998553
0.00812345
0.00579122
0.00302728
-7.90526e-05
-0.00343921
-0.00696871
-0.0105853
-0.0142105
-0.0177707
-0.0211983
-0.0244317
-0.0274154
-0.0301005
-0.0324438
-0.034408
-0.0359611
-0.0370762
-0.0377311
-0.0379076
-0.0375919
-0.0367733
-0.0354448
-0.0336019
-0.0312429
-0.0283686
-0.0249815
-0.0210863
-0.0166892
-0.0117978
-0.00642073
-0.000567991
0.00574974
0.012521
0.0197338
0.0273755
0.0354333
0.0438941
0.0527445
0.0619712
0.0715607
0.0814997
0.091775
0.102374
0.113282
0.124489
0.135981
0.147746
0.159773
0.172051
0.184568
0.197313
0.210278
0.223451
0.236824
0.250387
0.264132
0.278051
0.292136
0.306379
0.320773
0.335312
0.349989
0.364798
0.379734
0.39479
0.409962
0.425245
0.440634
0.456124
0.471712
0.487393
0.503163
0.519018
0.534955
0.55097
0.567059
0.583218
0.599445
0.615736
0.632086
0.648492
0.664951
0.681458
0.698008
0.714598
0.731223
0.747879
0.764559
0.781258
0.797971
0.814691
0.831412
0.848126
0.864826
0.881504
0.89815
0.914757
0.931313
0.94781
0.964235
0.980576
0.996823
1.01296
1.02898
1.04486
1.06058
1.07614
1.09152
1.10669
1.12164
1.13636
1.15082
1.165
1.17889
1.19245
1.20568
1.21855
1.23104
1.24312
1.25477
1.26598
1.27672
1.28697
1.2967
1.30591
1.31456
1.32265
1.33015
1.33704
1.34332
1.34897
1.35399
1.35836
1.36207
1.36514
1.36755
1.36932
1.37045
1.37096
1.37086
1.37017
1.36893
1.36717
1.36493
1.36224
1.35918
1.35578
1.35213
1.34829
1.34434
1.34038
1.33648
1.33275
1.32928
1.32617
1.32352
1.32137
1.31972
0.0165012
0.0143643
0.0120129
0.00938038
0.00642298
0.00321515
-0.000166853
-0.00365402
-0.00717815
-0.0106728
-0.014075
-0.017326
-0.0203718
-0.0231634
-0.0256567
-0.0278129
-0.0295979
-0.0309825
-0.0319415
-0.0324544
-0.0325041
-0.0320773
-0.0311638
-0.0297566
-0.0278512
-0.0254456
-0.0225402
-0.019137
-0.0152401
-0.0108549
-0.00598827
-0.000648268
0.00515608
0.0114149
0.0181174
0.0252526
0.0328086
0.0407733
0.0491344
0.0578793
0.0669954
0.0764697
0.0862898
0.0964429
0.106917
0.117698
0.128776
0.140139
0.151773
0.163669
0.175816
0.188202
0.200817
0.213652
0.226697
0.239943
0.25338
0.267
0.280796
0.294759
0.308882
0.323158
0.33758
0.352142
0.366838
0.381662
0.396608
0.411671
0.426845
0.442128
0.457512
0.472995
0.488571
0.504238
0.51999
0.535824
0.551735
0.567721
0.583777
0.5999
0.616086
0.63233
0.64863
0.66498
0.681377
0.697817
0.714294
0.730804
0.747342
0.763903
0.780481
0.797069
0.813662
0.830253
0.846834
0.863398
0.879937
0.896442
0.912904
0.929313
0.945658
0.961929
0.978115
0.994202
1.01018
1.02603
1.04174
1.0573
1.07269
1.0879
1.1029
1.11768
1.13223
1.14652
1.16053
1.17425
1.18765
1.20072
1.21343
1.22576
1.23769
1.24921
1.26028
1.27089
1.28102
1.29065
1.29976
1.30833
1.31634
1.32378
1.33064
1.33689
1.34253
1.34755
1.35194
1.3557
1.35883
1.36132
1.36318
1.36443
1.36507
1.36513
1.36461
1.36356
1.36199
1.35995
1.35748
1.35463
1.35144
1.34799
1.34432
1.34053
1.33666
1.33282
1.32906
1.32548
1.32216
1.31918
1.31648
1.31398
0.0220931
0.0191633
0.0162691
0.0132768
0.0100609
0.00668328
0.00321006
-0.000303555
-0.00380198
-0.00722976
-0.0105336
-0.0136631
-0.0165716
-0.0192162
-0.0215581
-0.0235627
-0.0251993
-0.0264416
-0.0272668
-0.0276558
-0.0275932
-0.0270665
-0.0260662
-0.0245856
-0.0226205
-0.0201688
-0.0172306
-0.0138078
-0.00990401
-0.00552417
-0.000674569
0.00463735
0.0104032
0.0166137
0.023259
0.0303284
0.037811
0.0456954
0.0539697
0.0626222
0.0716407
0.0810131
0.0907273
0.100771
0.111133
0.1218
0.132762
0.144007
0.155523
0.167299
0.179326
0.191592
0.204088
0.216803
0.229729
0.242857
0.256177
0.269681
0.283362
0.297211
0.311222
0.325387
0.339699
0.354153
0.368741
0.383459
0.3983
0.413259
0.428331
0.443511
0.458795
0.474177
0.489654
0.50522
0.520873
0.536608
0.552421
0.568307
0.584264
0.600286
0.616371
0.632514
0.648711
0.664957
0.681249
0.697582
0.713951
0.730351
0.746777
0.763224
0.779685
0.796155
0.812628
0.829096
0.845552
0.861988
0.878396
0.894768
0.911095
0.927366
0.943571
0.9597
0.975741
0.991681
1.00751
1.02321
1.03877
1.05418
1.06942
1.08447
1.09931
1.11394
1.12833
1.14247
1.15633
1.1699
1.18316
1.19609
1.20866
1.22086
1.23267
1.24406
1.25502
1.26553
1.27556
1.2851
1.29413
1.30263
1.31059
1.31799
1.32481
1.33105
1.33668
1.34172
1.34614
1.34994
1.35312
1.35569
1.35765
1.359
1.35976
1.35995
1.35958
1.35867
1.35727
1.3554
1.35309
1.3504
1.34736
1.34404
1.34049
1.33677
1.33293
1.32906
1.3252
1.32143
1.31783
1.31445
1.31114
1.30776
0.0279759
0.0242344
0.0207651
0.0173708
0.0138473
0.0102465
0.0066264
0.00302998
-0.000498367
-0.00391305
-0.00716957
-0.0102254
-0.0130408
-0.0155785
-0.017805
-0.0196899
-0.0212061
-0.0223302
-0.023042
-0.0233243
-0.0231631
-0.0225471
-0.0214678
-0.0199191
-0.0178971
-0.0154
-0.0124278
-0.00898248
-0.00506722
-0.000686762
0.00415301
0.00944511
0.0151816
0.0213539
0.0279525
0.0349674
0.0423883
0.0502042
0.0584041
0.0669765
0.0759101
0.0851931
0.094814
0.104761
0.115023
0.125589
0.136446
0.147585
0.158994
0.170662
0.18258
0.194736
0.207123
0.219729
0.232546
0.245564
0.258776
0.272173
0.285747
0.299491
0.313396
0.327457
0.341667
0.356018
0.370506
0.385123
0.399865
0.414726
0.4297
0.444783
0.45997
0.475257
0.490638
0.50611
0.521667
0.537307
0.553025
0.568816
0.584677
0.600603
0.616591
0.632636
0.648734
0.664881
0.681072
0.697303
0.713569
0.729864
0.746183
0.762521
0.778873
0.795231
0.811589
0.827941
0.844279
0.860595
0.876881
0.893129
0.909329
0.925472
0.941548
0.957545
0.973452
0.989258
1.00495
1.02051
1.03594
1.05121
1.06631
1.08122
1.09593
1.11042
1.12468
1.13868
1.15241
1.16585
1.17898
1.19178
1.20424
1.21632
1.22802
1.23932
1.25018
1.2606
1.27056
1.28003
1.289
1.29745
1.30536
1.31273
1.31954
1.32577
1.33141
1.33646
1.34092
1.34476
1.34801
1.35065
1.35269
1.35413
1.355
1.3553
1.35505
1.35428
1.353
1.35126
1.34908
1.3465
1.34356
1.34032
1.33682
1.33311
1.32924
1.32528
1.32126
1.31724
1.31329
1.30947
1.30553
1.30125
0.0339983
0.0294449
0.025384
0.0215596
0.017693
0.0138283
0.0100171
0.00629222
0.00268798
-0.000758778
-0.0040115
-0.0070349
-0.00979541
-0.0122616
-0.0144047
-0.0161985
-0.0176197
-0.0186476
-0.0192646
-0.0194558
-0.0192087
-0.0185135
-0.0173626
-0.0157508
-0.0136747
-0.0111329
-0.00812582
-0.00465518
-0.000724289
0.00366232
0.00849897
0.013779
0.0194949
0.0256384
0.0322004
0.0391716
0.0465418
0.0543009
0.062438
0.0709425
0.0798032
0.089009
0.0985489
0.108412
0.118586
0.129061
0.139826
0.15087
0.162183
0.173754
0.185574
0.197632
0.209919
0.222425
0.235143
0.248062
0.261174
0.274472
0.287948
0.301593
0.315402
0.329366
0.343479
0.357735
0.372128
0.386651
0.4013
0.416068
0.43095
0.445941
0.461037
0.476232
0.491523
0.506904
0.522371
0.53792
0.553546
0.569246
0.585016
0.60085
0.616745
0.632697
0.648701
0.664753
0.680847
0.696981
0.713147
0.729343
0.745561
0.761796
0.778043
0.794295
0.810546
0.826788
0.843015
0.859219
0.875391
0.891524
0.907607
0.923631
0.939587
0.955463
0.971249
0.986932
1.0025
1.01794
1.03324
1.04838
1.06336
1.07815
1.09274
1.10711
1.12124
1.13513
1.14875
1.16207
1.1751
1.1878
1.20015
1.21214
1.22376
1.23497
1.24575
1.2561
1.266
1.27542
1.28434
1.29276
1.30065
1.308
1.3148
1.32104
1.3267
1.33177
1.33626
1.34016
1.34346
1.34617
1.34828
1.34982
1.35077
1.35117
1.35103
1.35035
1.34918
1.34753
1.34544
1.34294
1.34006
1.33685
1.33335
1.3296
1.32565
1.32154
1.31731
1.313
1.30868
1.30438
1.29979
1.29461
0.0400319
0.0346777
0.0300202
0.0257486
0.0215141
0.0173551
0.0133189
0.00942904
0.00571143
0.00219516
-0.00109036
-0.00411635
-0.00685511
-0.00928051
-0.0113683
-0.0130963
-0.0144448
-0.0153962
-0.0159354
-0.0160496
-0.0157282
-0.0149628
-0.0137471
-0.0120768
-0.00994919
-0.00736351
-0.00432038
-0.000821868
0.00312866
0.00752668
0.0123666
0.017642
0.0233456
0.0294693
0.0360046
0.0429422
0.0502726
0.0579858
0.0660717
0.0745198
0.0833194
0.09246
0.101931
0.111721
0.121819
0.132216
0.1429
0.153861
0.165089
0.176574
0.188306
0.200276
0.212473
0.22489
0.237517
0.250346
0.263368
0.276575
0.28996
0.303516
0.317235
0.331109
0.345134
0.359301
0.373605
0.388041
0.402602
0.417283
0.432078
0.446983
0.461992
0.477102
0.492306
0.507601
0.522982
0.538445
0.553985
0.569598
0.58528
0.601026
0.616833
0.632696
0.64861
0.664571
0.680574
0.696614
0.712687
0.728787
0.744909
0.761048
0.777196
0.793348
0.809498
0.825638
0.841761
0.85786
0.873926
0.889952
0.905927
0.921842
0.937688
0.953453
0.969127
0.984699
1.00016
1.01548
1.03067
1.04571
1.06057
1.07525
1.08973
1.104
1.11803
1.13182
1.14534
1.15857
1.17151
1.18412
1.19639
1.20831
1.21985
1.23099
1.24172
1.25202
1.26187
1.27125
1.28015
1.28855
1.29643
1.30378
1.31058
1.31683
1.32252
1.32763
1.33216
1.33611
1.33947
1.34224
1.34443
1.34604
1.34708
1.34756
1.3475
1.34691
1.34581
1.34423
1.34219
1.33973
1.33688
1.33366
1.33012
1.32629
1.32221
1.31792
1.31344
1.30881
1.30408
1.29929
1.29404
1.28799
0.0459659
0.0398294
0.0345784
0.0298508
0.0252324
0.0207577
0.0164706
0.0123874
0.00852637
0.00491001
0.00156134
-0.00149671
-0.00424181
-0.00665267
-0.0087094
-0.0103938
-0.0116893
-0.0125815
-0.0130577
-0.0131075
-0.012722
-0.0118945
-0.01062
-0.00889512
-0.0067182
-0.00408901
-0.0010087
0.0025203
0.00649442
0.010909
0.0157585
0.0210365
0.0267357
0.0328485
0.0393663
0.0462804
0.0535814
0.0612597
0.0693054
0.0777084
0.0864585
0.0955453
0.104958
0.114687
0.124722
0.135051
0.145666
0.156555
0.167709
0.179119
0.190774
0.202665
0.214784
0.22712
0.239667
0.252414
0.265354
0.27848
0.291783
0.305257
0.318893
0.332686
0.346628
0.360713
0.374936
0.38929
0.40377
0.418369
0.433083
0.447907
0.462835
0.477863
0.492986
0.5082
0.523499
0.53888
0.554338
0.569869
0.585468
0.601131
0.616854
0.632632
0.64846
0.664335
0.680251
0.696204
0.712188
0.728198
0.744229
0.760276
0.776331
0.79239
0.808445
0.824489
0.840516
0.856517
0.872485
0.888412
0.904287
0.920102
0.935848
0.951513
0.967087
0.982558
0.997915
1.01314
1.02823
1.04317
1.05794
1.07252
1.08691
1.10109
1.11504
1.12874
1.14217
1.15533
1.16819
1.18074
1.19295
1.2048
1.21629
1.22739
1.23808
1.24834
1.25817
1.26753
1.27641
1.2848
1.29268
1.30004
1.30687
1.31314
1.31886
1.32401
1.32859
1.33259
1.33601
1.33885
1.34111
1.34279
1.3439
1.34445
1.34446
1.34393
1.34289
1.34136
1.33935
1.3369
1.33404
1.33078
1.32717
1.32322
1.31898
1.31447
1.30972
1.30474
1.29959
1.2943
1.28841
1.28151
0.051705
0.044809
0.038973
0.033787
0.0287755
0.0239705
0.0194139
0.0151156
0.0110877
0.00734665
0.00391007
0.000795579
-0.00197936
-0.00439791
-0.00644425
-0.00810378
-0.00936332
-0.0102112
-0.0106375
-0.0106336
-0.010193
-0.00931028
-0.00798196
-0.00620584
-0.00398116
-0.00130846
0.00181049
0.0053728
0.00937456
0.0138109
0.0186761
0.0239637
0.0296666
0.0357771
0.0422868
0.049187
0.0564688
0.0641227
0.0721391
0.0805082
0.08922
0.0982644
0.107631
0.117311
0.127292
0.137566
0.148122
0.158951
0.170042
0.181387
0.192975
0.204799
0.216848
0.229114
0.241589
0.254264
0.267132
0.280184
0.293413
0.306813
0.320375
0.334093
0.34796
0.361971
0.376118
0.390397
0.404801
0.419325
0.433964
0.448712
0.463564
0.478516
0.493563
0.5087
0.523922
0.539226
0.554607
0.570059
0.58558
0.601164
0.616807
0.632504
0.648252
0.664045
0.679879
0.695748
0.711649
0.727574
0.74352
0.75948
0.775449
0.791419
0.807386
0.823341
0.839279
0.85519
0.871067
0.886903
0.902687
0.918411
0.934066
0.94964
0.965123
0.980505
0.995773
1.01092
1.02592
1.04077
1.05546
1.06996
1.08427
1.09837
1.11225
1.12588
1.13925
1.15235
1.16515
1.17764
1.18981
1.20162
1.21307
1.22414
1.23481
1.24505
1.25486
1.26422
1.27311
1.28151
1.2894
1.29679
1.30364
1.30995
1.31571
1.32091
1.32555
1.3296
1.33308
1.33599
1.33831
1.34006
1.34123
1.34185
1.34191
1.34144
1.34043
1.33893
1.33693
1.33447
1.33157
1.32824
1.32453
1.32045
1.31602
1.31127
1.30622
1.30087
1.29529
1.28951
1.28298
1.27527
0.0571664
0.049536
0.0431273
0.0374852
0.0320767
0.0269324
0.0220933
0.0175639
0.013351
0.00946608
0.00592174
0.002731
-9.30815e-05
-0.00253777
-0.00459098
-0.00624155
-0.00747938
-0.00829563
-0.00868273
-0.00863447
-0.008146
-0.0072138
-0.00583569
-0.00401071
-0.00173915
0.000977603
0.00413708
0.00773583
0.0117695
0.0162329
0.0211201
0.0264246
0.032139
0.0382556
0.0447663
0.0516625
0.0589352
0.0665751
0.0745729
0.082919
0.0916036
0.100617
0.109949
0.11959
0.12953
0.139759
0.150268
0.161047
0.172086
0.183376
0.194909
0.206674
0.218664
0.230869
0.243282
0.255895
0.268698
0.281686
0.29485
0.308183
0.321678
0.335329
0.349128
0.363071
0.37715
0.39136
0.405694
0.420149
0.434718
0.449396
0.464178
0.479059
0.494034
0.5091
0.52425
0.539481
0.554789
0.570168
0.585614
0.601124
0.616692
0.632314
0.647985
0.663701
0.679457
0.695248
0.711069
0.726916
0.742781
0.75866
0.774548
0.790437
0.806321
0.822194
0.838048
0.853876
0.869671
0.885423
0.901124
0.916766
0.932339
0.947832
0.963235
0.978538
0.993728
1.00879
1.02372
1.0385
1.05312
1.06756
1.0818
1.09584
1.10966
1.12323
1.13656
1.14961
1.16237
1.17483
1.18696
1.19875
1.21018
1.22124
1.23189
1.24214
1.25195
1.26132
1.27023
1.27865
1.28658
1.294
1.30089
1.30725
1.31306
1.31832
1.32301
1.32713
1.33068
1.33365
1.33603
1.33785
1.33908
1.33975
1.33986
1.33942
1.33845
1.33695
1.33495
1.33245
1.32949
1.32608
1.32224
1.318
1.31336
1.30836
1.30299
1.29728
1.29126
1.28499
1.27785
1.26935
0.0622778
0.053939
0.0469721
0.0408796
0.0350742
0.0295861
0.0244562
0.0196845
0.0152733
0.0112297
0.00756214
0.00427941
0.00139065
-0.00109513
-0.0031693
-0.0048239
-0.00605177
-0.00684671
-0.00720357
-0.00711826
-0.00658784
-0.00561048
-0.00418544
-0.00231306
5.29542e-06
0.00276731
0.00596975
0.00960851
0.0136787
0.0181748
0.0230905
0.028419
0.0341529
0.0402844
0.0468052
0.0537069
0.0609805
0.0686169
0.0766068
0.0849407
0.0936091
0.102602
0.111911
0.121524
0.131434
0.14163
0.152102
0.162842
0.17384
0.185086
0.196573
0.208291
0.220231
0.232385
0.244746
0.257304
0.270053
0.282984
0.29609
0.309365
0.322801
0.336392
0.350132
0.364013
0.37803
0.392178
0.406449
0.42084
0.435345
0.449959
0.464675
0.479491
0.4944
0.509399
0.524482
0.539646
0.554885
0.570195
0.585572
0.601011
0.616509
0.632059
0.647659
0.663302
0.678985
0.694703
0.71045
0.726222
0.742012
0.757816
0.773627
0.78944
0.805249
0.821045
0.836823
0.852575
0.868294
0.883971
0.899598
0.915165
0.930665
0.946086
0.961419
0.976652
0.991775
1.00678
1.02164
1.03636
1.05092
1.0653
1.0795
1.09349
1.10726
1.1208
1.13409
1.14711
1.15985
1.17228
1.1844
1.19618
1.20761
1.21866
1.22933
1.23959
1.24943
1.25882
1.26776
1.27622
1.28419
1.29166
1.29861
1.30502
1.3109
1.31622
1.32098
1.32517
1.32878
1.33182
1.33428
1.33615
1.33744
1.33816
1.33831
1.3379
1.33694
1.33544
1.33341
1.33087
1.32784
1.32432
1.32035
1.31592
1.31107
1.30579
1.30011
1.29402
1.28758
1.28081
1.27308
1.26382
0.0669756
0.0579545
0.0504453
0.0439103
0.0377111
0.0318782
0.0264528
0.0214316
0.0168127
0.0125997
0.00879714
0.00541032
0.00244477
-9.38638e-05
-0.00220015
-0.00386908
-0.00509628
-0.00587806
-0.00621158
-0.00609484
-0.00552679
-0.00450725
-0.00303697
-0.00111761
0.00124836
0.00405762
0.00730609
0.010989
0.0151008
0.0196355
0.0245864
0.0299465
0.035708
0.0418631
0.0484034
0.0553203
0.0626049
0.0702481
0.0782407
0.0865734
0.0952365
0.104221
0.113516
0.123114
0.133004
0.143178
0.153625
0.164336
0.175303
0.186517
0.197968
0.209648
0.221548
0.233661
0.245978
0.258492
0.271194
0.284078
0.297135
0.31036
0.323745
0.337283
0.350969
0.364796
0.378759
0.39285
0.407065
0.421399
0.435845
0.4504
0.465057
0.479812
0.494661
0.509598
0.524619
0.539719
0.554894
0.57014
0.585452
0.600826
0.616257
0.631741
0.647273
0.662849
0.678463
0.694112
0.70979
0.725492
0.741213
0.756946
0.772688
0.78843
0.804168
0.819895
0.835603
0.851286
0.866936
0.882545
0.898105
0.913607
0.929041
0.944399
0.959671
0.974845
0.989911
1.00486
1.01967
1.03434
1.04885
1.06319
1.07735
1.09131
1.10505
1.11856
1.13183
1.14484
1.15756
1.16999
1.18211
1.1939
1.20534
1.21642
1.22711
1.2374
1.24727
1.25671
1.26569
1.2742
1.28223
1.28976
1.29678
1.30326
1.30921
1.31461
1.31944
1.32371
1.3274
1.33051
1.33303
1.33497
1.33632
1.33708
1.33727
1.33688
1.33593
1.33441
1.33235
1.32976
1.32664
1.32301
1.31888
1.31426
1.30918
1.30363
1.29762
1.29116
1.28428
1.27704
1.26873
1.25875
0.0712035
0.0615254
0.0534904
0.0465224
0.0399347
0.0337586
0.0280362
0.0227613
0.0179287
0.0135388
0.00959291
0.00609309
0.00304172
0.000441373
-0.00170544
-0.00339649
-0.00462997
-0.0054046
-0.00571976
-0.00557547
-0.0049725
-0.00391236
-0.00239729
-0.00043024
0.00198512
0.00484444
0.00814277
0.0118745
0.0160336
0.0206134
0.0256067
0.0310062
0.0368038
0.0429915
0.0495607
0.0565026
0.0638084
0.0714689
0.079475
0.0878172
0.0964861
0.105472
0.114767
0.12436
0.134242
0.144403
0.154836
0.16553
0.176477
0.187667
0.199093
0.210746
0.222616
0.234697
0.24698
0.259458
0.272123
0.284967
0.297984
0.311167
0.324508
0.338002
0.351642
0.365421
0.379335
0.393377
0.407542
0.421824
0.436218
0.450719
0.465322
0.480023
0.494815
0.509695
0.524659
0.539701
0.554817
0.570004
0.585255
0.600568
0.615937
0.631359
0.646828
0.66234
0.677891
0.693476
0.709089
0.724727
0.740382
0.756051
0.771728
0.787406
0.803079
0.818742
0.834387
0.850007
0.865595
0.881143
0.896643
0.912087
0.927466
0.94277
0.957989
0.973113
0.988132
1.00303
1.01781
1.03244
1.04692
1.06123
1.07536
1.08929
1.10302
1.11652
1.12978
1.14279
1.15552
1.16796
1.18009
1.1919
1.20337
1.21448
1.22521
1.23555
1.24547
1.25496
1.26401
1.27259
1.28069
1.2883
1.29539
1.30196
1.30799
1.31347
1.31839
1.32274
1.32652
1.3297
1.3323
1.3343
1.33571
1.33652
1.33674
1.33637
1.33542
1.33389
1.33179
1.32912
1.32591
1.32215
1.31787
1.31306
1.30773
1.30191
1.29557
1.28874
1.28145
1.27374
1.26487
1.2542
0.0749111
0.0646003
0.0560559
0.0486653
0.041696
0.0351803
0.0291619
0.0236317
0.0185822
0.0140107
0.00991602
0.00629715
0.00315367
0.000485396
-0.00170786
-0.00342643
-0.00467094
-0.00544239
-0.00574225
-0.00557254
-0.00493582
-0.00383523
-0.00227449
-0.000257899
0.00220967
0.00512283
0.00847567
0.0122618
0.0164744
0.0211062
0.0261497
0.0315968
0.0374393
0.0436689
0.0502766
0.0572537
0.0645911
0.0722795
0.0803098
0.0886726
0.0973584
0.106358
0.115662
0.125261
0.135146
0.145307
0.155736
0.166424
0.177361
0.188539
0.19995
0.211585
0.223435
0.235494
0.247752
0.260203
0.272839
0.285653
0.298638
0.311786
0.325092
0.338548
0.352149
0.365888
0.379761
0.39376
0.40788
0.422117
0.436465
0.450918
0.465472
0.480123
0.494865
0.509693
0.524604
0.539593
0.554655
0.569786
0.584982
0.600238
0.61555
0.630913
0.646324
0.661778
0.67727
0.692795
0.708348
0.723926
0.739521
0.755131
0.770747
0.786366
0.801981
0.817585
0.833172
0.848736
0.864269
0.879764
0.895212
0.910605
0.925936
0.941193
0.956369
0.971453
0.986433
1.0013
1.01604
1.03065
1.0451
1.0594
1.07351
1.08744
1.10116
1.11467
1.12793
1.14095
1.1537
1.16617
1.17833
1.19018
1.20169
1.21285
1.22363
1.23403
1.24402
1.25359
1.26271
1.27138
1.27956
1.28726
1.29445
1.30111
1.30724
1.31281
1.31783
1.32227
1.32613
1.3294
1.33208
1.33415
1.33562
1.33648
1.33674
1.33639
1.33543
1.33388
1.33173
1.329
1.32569
1.3218
1.31735
1.31234
1.30678
1.30067
1.29402
1.28681
1.27911
1.27095
1.26154
1.25021
0.0780528
0.0671324
0.0580948
0.0502925
0.0429494
0.0360993
0.0297874
0.0240027
0.0187352
0.0139801
0.00973352
0.00599203
0.00275264
1.26206e-05
-0.00223067
-0.00397995
-0.00523813
-0.00600837
-0.00629419
-0.00609948
-0.00542856
-0.0042862
-0.0026776
-0.000608396
0.00191533
0.00488708
0.00829997
0.0121468
0.0164199
0.0211114
0.0262132
0.0317167
0.0376135
0.0438945
0.0505509
0.0575736
0.0649531
0.0726804
0.0807459
0.0891404
0.0978544
0.106878
0.116203
0.12582
0.135719
0.145891
0.156327
0.167019
0.177957
0.189133
0.200539
0.212166
0.224006
0.236052
0.248295
0.260729
0.273345
0.286136
0.299097
0.312219
0.325496
0.338923
0.352492
0.366198
0.380036
0.393998
0.408081
0.422278
0.436585
0.450997
0.465508
0.480114
0.49481
0.509592
0.524455
0.539395
0.554407
0.569488
0.584632
0.599836
0.615095
0.630405
0.645762
0.661161
0.676598
0.692068
0.707567
0.723089
0.73863
0.754184
0.769746
0.785311
0.800872
0.816424
0.83196
0.847474
0.862958
0.878405
0.893808
0.909159
0.924448
0.939668
0.954809
0.96986
0.984813
0.999655
1.01438
1.02897
1.04341
1.05769
1.07181
1.08574
1.09947
1.11299
1.12628
1.13932
1.1521
1.16461
1.17682
1.18872
1.20029
1.21151
1.22237
1.23284
1.24291
1.25257
1.26179
1.27055
1.27884
1.28664
1.29393
1.3007
1.30694
1.31262
1.31775
1.32229
1.32625
1.32962
1.33238
1.33453
1.33606
1.33697
1.33727
1.33694
1.33598
1.33441
1.33222
1.32941
1.326
1.32198
1.31736
1.31215
1.30635
1.29996
1.29299
1.28542
1.27732
1.26872
1.25879
1.24682
0.0805872
0.0690786
0.0595633
0.0513604
0.043652
0.0364736
0.0298724
0.0238356
0.0183512
0.0134122
0.0090129
0.00514743
0.00181054
-0.00100283
-0.00329759
-0.0050787
-0.0063512
-0.00712032
-0.00739152
-0.00717053
-0.0064634
-0.00527647
-0.00361643
-0.00149027
0.0010947
0.00413087
0.00761036
0.011525
0.0158664
0.020626
0.025795
0.0313644
0.0373251
0.0436679
0.0503834
0.0574622
0.064895
0.0726721
0.0807842
0.0892217
0.0979752
0.107035
0.116393
0.126038
0.135962
0.146156
0.15661
0.167317
0.178267
0.189451
0.200863
0.212492
0.224332
0.236374
0.248611
0.261036
0.273641
0.286419
0.299363
0.312467
0.325724
0.339128
0.352673
0.366353
0.380162
0.394095
0.408146
0.42231
0.436582
0.450957
0.46543
0.479997
0.494652
0.509392
0.524212
0.539108
0.554076
0.56911
0.584207
0.599364
0.614574
0.629836
0.645143
0.660492
0.675878
0.691298
0.706745
0.722217
0.737707
0.753211
0.768724
0.78424
0.799753
0.815258
0.830748
0.846218
0.861659
0.877066
0.892431
0.907746
0.923002
0.938191
0.953305
0.968333
0.983266
0.998093
1.0128
1.02739
1.04183
1.05612
1.07024
1.08419
1.09794
1.11148
1.1248
1.13789
1.15072
1.16328
1.17555
1.18751
1.19915
1.21046
1.2214
1.23197
1.24214
1.2519
1.26122
1.2701
1.2785
1.28642
1.29384
1.30073
1.30709
1.3129
1.31814
1.3228
1.32687
1.33034
1.3332
1.33543
1.33704
1.33801
1.33834
1.33803
1.33708
1.33549
1.33326
1.33038
1.32687
1.32272
1.31793
1.31252
1.30648
1.29982
1.29253
1.28461
1.27612
1.26709
1.25666
1.24407
0.0824762
0.0703992
0.0604208
0.0518282
0.0437634
0.0362637
0.0293782
0.023093
0.0173942
0.0122732
0.00772209
0.00373326
0.000299267
-0.00258704
-0.00493272
-0.0067448
-0.00803037
-0.00879661
-0.00905086
-0.00880064
-0.00805368
-0.0068179
-0.00510145
-0.00291267
-0.000260133
0.00284742
0.00640108
0.0103917
0.0148102
0.019647
0.0248928
0.0305381
0.0365731
0.0429882
0.0497738
0.0569201
0.0644173