/*--------------------------------*- C++ -*----------------------------------*\
  =========                 |
  \\      /  F ield         | OpenFOAM: The Open Source CFD Toolbox
   \\    /   O peration     | Website:  https://openfoam.org
    \\  /    A nd           | Version:  7
     \\/     M anipulation  |
\*---------------------------------------------------------------------------*/
FoamFile
{
    version     2.0;
    format      ascii;
    class       volScalarField;
    location    "0.45";
    object      p;
}
// * * * * * * * * * * * * * * * * * * * * * * * * * * * * * * * * * * * * * //

dimensions      [0 2 -2 0 0 0 0];

internalField   nonuniform List<scalar> 
12800
(
-1.3365e-06
0.00017975
-0.000905656
-0.00335
-0.00690823
-0.0113335
-0.0163925
-0.021872
-0.0275851
-0.0333716
-0.0390954
-0.0446411
-0.0499113
-0.0548245
-0.0593127
-0.06332
-0.0668005
-0.0697176
-0.0720423
-0.073753
-0.0748338
-0.0752742
-0.0750686
-0.0742152
-0.0727159
-0.0705758
-0.0678025
-0.064406
-0.0603981
-0.0557924
-0.0506038
-0.0448485
-0.0385432
-0.0317057
-0.024354
-0.0165067
-0.00818248
0.000599962
0.00982187
0.0194647
0.02951
0.0399397
0.0507363
0.0618823
0.073361
0.0851562
0.0972521
0.109634
0.122286
0.135195
0.148348
0.161732
0.175335
0.189145
0.203151
0.217344
0.231713
0.246249
0.260944
0.27579
0.290778
0.305904
0.321159
0.336538
0.352035
0.367645
0.383364
0.399187
0.415109
0.431128
0.44724
0.463441
0.479729
0.496101
0.512554
0.529086
0.545694
0.562378
0.579133
0.595958
0.612852
0.629811
0.646834
0.663918
0.68106
0.698258
0.71551
0.73281
0.750157
0.767547
0.784974
0.802434
0.819923
0.837435
0.854963
0.872501
0.890042
0.907577
0.925098
0.942595
0.960058
0.977476
0.994837
1.01213
1.02934
1.04645
1.06344
1.08031
1.09703
1.11358
1.12995
1.14611
1.16205
1.17773
1.19314
1.20825
1.22304
1.23748
1.25154
1.26521
1.27844
1.29121
1.30349
1.31526
1.32649
1.33714
1.34719
1.35661
1.36538
1.37347
1.38085
1.3875
1.3934
1.39854
1.4029
1.40645
1.40921
1.41115
1.41227
1.41259
1.4121
1.41083
1.40879
1.40602
1.40254
1.3984
1.39367
1.38841
1.38269
1.37662
1.37031
1.36389
1.35752
1.35138
1.34569
1.34069
1.33664
1.33383
1.33255
1.33271
-0.000184439
-1.48317e-06
-0.00100454
-0.00313701
-0.00617509
-0.00994333
-0.014268
-0.0189783
-0.0239179
-0.0289474
-0.0339447
-0.0388037
-0.0434332
-0.0477554
-0.0517042
-0.0552243
-0.0582698
-0.0608031
-0.0627942
-0.0642195
-0.0650613
-0.065307
-0.0649485
-0.063982
-0.0624068
-0.0602255
-0.0574434
-0.0540681
-0.0501091
-0.0455777
-0.0404865
-0.0348495
-0.0286815
-0.0219981
-0.0148157
-0.00715082
0.000979499
0.0095581
0.0185678
0.0279914
0.0378118
0.0480123
0.0585763
0.0694875
0.0807302
0.0922889
0.104149
0.116295
0.128714
0.141392
0.154317
0.167475
0.180856
0.194449
0.208241
0.222224
0.236388
0.250724
0.265222
0.279877
0.294679
0.309621
0.324698
0.339903
0.35523
0.370675
0.386231
0.401895
0.417661
0.433527
0.449488
0.465541
0.481683
0.49791
0.51422
0.530609
0.547076
0.563617
0.58023
0.596912
0.613661
0.630475
0.64735
0.664284
0.681273
0.698315
0.715407
0.732544
0.749722
0.766938
0.784188
0.801464
0.818764
0.83608
0.853405
0.870734
0.888058
0.90537
0.922659
0.939917
0.957134
0.974298
0.991397
1.00842
1.02535
1.04217
1.05888
1.07545
1.09186
1.1081
1.12415
1.13999
1.15559
1.17095
1.18602
1.2008
1.21525
1.22936
1.24309
1.25643
1.26934
1.2818
1.29377
1.30525
1.31619
1.32658
1.33638
1.34557
1.35413
1.36204
1.36927
1.37579
1.38161
1.38669
1.39103
1.39461
1.39743
1.39948
1.40077
1.4013
1.40108
1.40013
1.39847
1.39613
1.39316
1.38958
1.38547
1.38088
1.3759
1.37062
1.36515
1.35959
1.35411
1.34886
1.34401
1.33976
1.33632
1.33389
1.33271
1.33288
0.000899355
0.00100239
-1.3452e-06
-0.00198575
-0.00473562
-0.00810874
-0.0119649
-0.0161623
-0.0205676
-0.0250594
-0.0295288
-0.0338792
-0.0380264
-0.0418972
-0.0454287
-0.0485676
-0.051269
-0.0534956
-0.055217
-0.0564091
-0.0570532
-0.0571353
-0.0566462
-0.0555802
-0.0539351
-0.0517119
-0.0489141
-0.0455473
-0.0416196
-0.0371402
-0.0321204
-0.0265722
-0.0205088
-0.0139445
-0.00689389
0.000627794
0.00860492
0.0170216
0.025862
0.0351099
0.0447495
0.0547649
0.0651405
0.075861
0.0869113
0.0982767
0.109943
0.121896
0.134123
0.146611
0.159347
0.172319
0.185516
0.198926
0.212541
0.226348
0.24034
0.254508
0.268842
0.283334
0.297978
0.312767
0.327692
0.34275
0.357932
0.373235
0.388652
0.40418
0.419813
0.435547
0.451379
0.467305
0.48332
0.499422
0.515608
0.531874
0.548218
0.564636
0.581125
0.597684
0.614308
0.630996
0.647743
0.664547
0.681404
0.698312
0.715266
0.732262
0.749297
0.766365
0.783461
0.800581
0.817719
0.834869
0.852023
0.869175
0.886316
0.903439
0.920534
0.937592
0.954603
0.971554
0.988434
1.00523
1.02193
1.03852
1.05498
1.0713
1.08747
1.10345
1.11924
1.13481
1.15015
1.16524
1.18005
1.19455
1.20874
1.22258
1.23604
1.24912
1.26177
1.27398
1.28571
1.29696
1.30768
1.31786
1.32746
1.33648
1.34488
1.35265
1.35976
1.3662
1.37195
1.377
1.38133
1.38494
1.38782
1.38997
1.3914
1.39211
1.39211
1.39142
1.39006
1.38808
1.38549
1.38235
1.37871
1.37464
1.37022
1.36552
1.36064
1.35571
1.35084
1.34617
1.34187
1.33808
1.33497
1.33271
1.33154
1.3316
0.00334511
0.00313799
0.00198142
-8.17772e-06
-0.00265147
-0.00582483
-0.0094083
-0.0132812
-0.0173288
-0.021445
-0.0255331
-0.0295063
-0.0332876
-0.0368093
-0.0400127
-0.0428473
-0.0452701
-0.047245
-0.0487424
-0.049738
-0.0502131
-0.0501533
-0.0495484
-0.0483918
-0.0466804
-0.0444139
-0.0415946
-0.0382268
-0.0343172
-0.0298739
-0.0249065
-0.019426
-0.0134443
-0.00697423
-2.92325e-05
0.00737661
0.0152288
0.0235127
0.0322132
0.0413153
0.050804
0.0606644
0.0708816
0.0814411
0.0923285
0.10353
0.115031
0.126819
0.138882
0.151205
0.163778
0.176589
0.189626
0.202879
0.216338
0.229993
0.243835
0.257854
0.272043
0.286394
0.300898
0.31555
0.330341
0.345267
0.360321
0.375497
0.39079
0.406196
0.421709
0.437325
0.45304
0.46885
0.484751
0.50074
0.516813
0.532968
0.549199
0.565506
0.581883
0.598329
0.61484
0.631413
0.648044
0.664731
0.681469
0.698254
0.715084
0.731954
0.748858
0.765793
0.782753
0.799733
0.816727
0.833728
0.85073
0.867725
0.884705
0.901662
0.918587
0.93547
0.952299
0.969066
0.985756
1.00236
1.01886
1.03525
1.0515
1.06761
1.08356
1.09932
1.11489
1.13024
1.14536
1.16021
1.17479
1.18908
1.20303
1.21665
1.2299
1.24275
1.25519
1.2672
1.27874
1.28979
1.30034
1.31035
1.3198
1.32868
1.33696
1.34462
1.35164
1.35802
1.36372
1.36875
1.37309
1.37673
1.37967
1.38191
1.38346
1.38432
1.38451
1.38403
1.38293
1.38122
1.37895
1.37616
1.37289
1.36922
1.36521
1.36094
1.3565
1.35199
1.34753
1.34324
1.33925
1.33569
1.33271
1.33045
1.3291
1.32879
0.00691554
0.00618796
0.00473464
0.00262303
-3.08705e-05
-0.00312104
-0.0065444
-0.0101992
-0.0139877
-0.017818
-0.0216054
-0.0252728
-0.0287507
-0.0319776
-0.0348994
-0.0374691
-0.0396462
-0.0413967
-0.0426918
-0.0435081
-0.0438272
-0.0436344
-0.0429194
-0.041675
-0.0398974
-0.0375854
-0.0347402
-0.0313655
-0.0274665
-0.0230504
-0.0181257
-0.0127022
-0.00679057
-0.000402608
0.00644931
0.0137522
0.0214926
0.0296567
0.0382307
0.0472002
0.0565512
0.0662695
0.076341
0.086752
0.0974886
0.108537
0.119885
0.13152
0.143428
0.155598
0.168018
0.180676
0.193563
0.206667
0.219979
0.233489
0.247187
0.261066
0.275116
0.28933
0.303701
0.318221
0.332883
0.347682
0.362611
0.377665
0.392837
0.408124
0.42352
0.439021
0.454622
0.470319
0.486109
0.501987
0.51795
0.533994
0.550116
0.566313
0.58258
0.598916
0.615315
0.631775
0.648293
0.664864
0.681485
0.698152
0.71486
0.731606
0.748384
0.765189
0.782017
0.798861
0.815716
0.832574
0.849429
0.866273
0.883099
0.899897
0.916658
0.933374
0.950032
0.966623
0.983134
0.999553
1.01587
1.03206
1.04812
1.06403
1.07978
1.09534
1.1107
1.12585
1.14075
1.1554
1.16978
1.18385
1.1976
1.21101
1.22406
1.23672
1.24897
1.26079
1.27216
1.28304
1.29343
1.30329
1.31261
1.32137
1.32954
1.33711
1.34407
1.35039
1.35606
1.36108
1.36543
1.36911
1.37211
1.37444
1.3761
1.3771
1.37746
1.37718
1.3763
1.37484
1.37284
1.37035
1.3674
1.36406
1.36039
1.35647
1.35237
1.34819
1.34403
1.33999
1.33618
1.33272
1.32973
1.32733
1.32565
1.32474
0.0113746
0.0099849
0.00812271
0.0057903
0.00302616
-8.03981e-05
-0.00344083
-0.00697067
-0.0105877
-0.0142133
-0.017774
-0.021202
-0.0244358
-0.02742
-0.0301056
-0.0324494
-0.034414
-0.0359676
-0.0370832
-0.0377385
-0.0379155
-0.0376002
-0.0367821
-0.0354539
-0.0336114
-0.0312529
-0.0283789
-0.0249922
-0.0210973
-0.0167005
-0.0118094
-0.00643264
-0.000580164
0.00573732
0.0125084
0.0197209
0.0273624
0.0354201
0.0438807
0.052731
0.0619575
0.0715469
0.0814859
0.0917611
0.10236
0.113268
0.124475
0.135967
0.147732
0.159759
0.172037
0.184554
0.197299
0.210264
0.223437
0.23681
0.250373
0.264119
0.278038
0.292122
0.306366
0.32076
0.335299
0.349977
0.364786
0.379722
0.394778
0.409951
0.425234
0.440623
0.456114
0.471702
0.487383
0.503153
0.519009
0.534947
0.550962
0.567051
0.583212
0.599439
0.61573
0.632081
0.648487
0.664946
0.681454
0.698005
0.714596
0.731221
0.747877
0.764558
0.781258
0.797971
0.814692
0.831413
0.848128
0.864828
0.881506
0.898154
0.914761
0.931318
0.947815
0.96424
0.980583
0.99683
1.01297
1.02898
1.04486
1.06059
1.07615
1.09153
1.1067
1.12166
1.13637
1.15083
1.16501
1.1789
1.19247
1.2057
1.21856
1.23105
1.24313
1.25479
1.266
1.27674
1.28698
1.29672
1.30593
1.31458
1.32266
1.33016
1.33706
1.34334
1.34899
1.354
1.35837
1.36209
1.36515
1.36757
1.36934
1.37047
1.37097
1.37087
1.37019
1.36895
1.36719
1.36494
1.36226
1.35919
1.35579
1.35214
1.3483
1.34435
1.34039
1.33649
1.33276
1.32928
1.32617
1.32353
1.32138
1.31972
0.0165009
0.014364
0.0120125
0.00937978
0.00642213
0.00321404
-0.00016823
-0.00365571
-0.00718021
-0.0106753
-0.0140779
-0.0173294
-0.0203756
-0.0231676
-0.0256613
-0.027818
-0.0296035
-0.0309885
-0.031948
-0.0324613
-0.0325114
-0.032085
-0.031172
-0.0297651
-0.0278601
-0.025455
-0.0225499
-0.0191471
-0.0152505
-0.0108656
-0.00599926
-0.000659542
0.00514454
0.0114031
0.0181054
0.0252404
0.0327962
0.0407607
0.0491217
0.0578664
0.0669823
0.0764566
0.0862766
0.0964296
0.106903
0.117685
0.128763
0.140125
0.15176
0.163656
0.175802
0.188189
0.200804
0.213639
0.226684
0.239929
0.253367
0.266987
0.280783
0.294746
0.30887
0.323146
0.337568
0.352131
0.366827
0.38165
0.396596
0.41166
0.426835
0.442117
0.457502
0.472985
0.488562
0.504229
0.519981
0.535815
0.551728
0.567714
0.583771
0.599894
0.61608
0.632325
0.648625
0.664976
0.681374
0.697814
0.714291
0.730802
0.747341
0.763902
0.78048
0.797069
0.813662
0.830254
0.846835
0.8634
0.87994
0.896445
0.912907
0.929317
0.945663
0.961935
0.978121
0.994208
1.01019
1.02604
1.04175
1.05731
1.0727
1.08791
1.10291
1.11769
1.13224
1.14653
1.16054
1.17426
1.18766
1.20073
1.21344
1.22577
1.23771
1.24922
1.2603
1.27091
1.28104
1.29067
1.29978
1.30835
1.31636
1.3238
1.33065
1.33691
1.34255
1.34756
1.35196
1.35572
1.35884
1.36133
1.3632
1.36445
1.36509
1.36514
1.36463
1.36357
1.362
1.35996
1.35749
1.35464
1.35145
1.348
1.34433
1.34053
1.33667
1.33282
1.32907
1.32549
1.32216
1.31918
1.31649
1.31399
0.0220933
0.0191634
0.0162691
0.0132766
0.0100604
0.00668247
0.00320895
-0.000304969
-0.00380374
-0.00723191
-0.0105361
-0.0136661
-0.016575
-0.0192201
-0.0215624
-0.0235674
-0.0252044
-0.0264471
-0.0272728
-0.0276623
-0.0276001
-0.0270738
-0.0260739
-0.0245937
-0.0226289
-0.0201775
-0.0172397
-0.0138173
-0.0099138
-0.00553426
-0.000684954
0.00462669
0.0103923
0.0166026
0.0232476
0.0303168
0.0377992
0.0456834
0.0539576
0.0626099
0.0716282
0.0810005
0.0907146
0.100758
0.11112
0.121787
0.132749
0.143994
0.15551
0.167286
0.179313
0.191579
0.204075
0.21679
0.229716
0.242844
0.256164
0.269669
0.28335
0.297199
0.31121
0.325375
0.339688
0.354141
0.36873
0.383448
0.398289
0.413248
0.428321
0.443501
0.458785
0.474168
0.489645
0.505212
0.520865
0.5366
0.552413
0.5683
0.584257
0.60028
0.616365
0.632509
0.648706
0.664953
0.681245
0.697578
0.713948
0.730349
0.746775
0.763222
0.779684
0.796155
0.812628
0.829096
0.845553
0.86199
0.878399
0.894771
0.911098
0.92737
0.943576
0.959705
0.975746
0.991687
1.00752
1.02322
1.03878
1.05419
1.06942
1.08448
1.09932
1.11395
1.12835
1.14248
1.15635
1.16992
1.18317
1.1961
1.20867
1.22087
1.23268
1.24407
1.25503
1.26554
1.27557
1.28512
1.29415
1.30265
1.31061
1.318
1.32483
1.33106
1.3367
1.34173
1.34615
1.34995
1.35314
1.35571
1.35766
1.35901
1.35977
1.35996
1.35959
1.35869
1.35728
1.35541
1.3531
1.35041
1.34737
1.34405
1.3405
1.33677
1.33294
1.32907
1.32521
1.32144
1.31783
1.31445
1.31115
1.30777
0.0279765
0.0242349
0.0207654
0.0173709
0.0138472
0.0102461
0.00662561
0.00302887
-0.000499821
-0.00391487
-0.00717178
-0.0102281
-0.0130438
-0.015582
-0.0178089
-0.0196941
-0.0212108
-0.0223354
-0.0230475
-0.0233302
-0.0231694
-0.0225539
-0.021475
-0.0199266
-0.017905
-0.0154082
-0.0124364
-0.00899137
-0.00507643
-0.000696273
0.00414321
0.00943504
0.0151713
0.0213433
0.0279417
0.0349564
0.0423771
0.0501928
0.0583925
0.0669648
0.0758982
0.0851812
0.094802
0.104749
0.115011
0.125576
0.136434
0.147572
0.158981
0.170649
0.182567
0.194724
0.20711
0.219716
0.232533
0.245552
0.258764
0.272161
0.285735
0.299479
0.313385
0.327446
0.341655
0.356007
0.370495
0.385112
0.399854
0.414715
0.42969
0.444773
0.459961
0.475248
0.490629
0.506101
0.521659
0.537299
0.553017
0.568809
0.58467
0.600597
0.616585
0.632631
0.64873
0.664877
0.681069
0.6973
0.713566
0.729861
0.746181
0.76252
0.778872
0.79523
0.811589
0.827941
0.84428
0.860596
0.876883
0.893132
0.909332
0.925476
0.941552
0.95755
0.973458
0.989264
1.00496
1.02052
1.03595
1.05121
1.06631
1.08123
1.09594
1.11043
1.12469
1.13869
1.15242
1.16586
1.17899
1.1918
1.20425
1.21634
1.22804
1.23933
1.2502
1.26061
1.27057
1.28004
1.28901
1.29746
1.30538
1.31275
1.31955
1.32578
1.33143
1.33648
1.34093
1.34478
1.34802
1.35066
1.3527
1.35415
1.35501
1.35531
1.35506
1.35429
1.35301
1.35127
1.34909
1.34651
1.34357
1.34033
1.33683
1.33312
1.32925
1.32528
1.32127
1.31725
1.3133
1.30948
1.30554
1.30125
0.0339995
0.0294458
0.0253847
0.0215601
0.0176932
0.0138282
0.0100167
0.00629144
0.00268684
-0.000760268
-0.00401337
-0.00703716
-0.00979808
-0.0122647
-0.0144082
-0.0162024
-0.0176239
-0.0186523
-0.0192697
-0.0194613
-0.0192146
-0.0185197
-0.0173692
-0.0157578
-0.013682
-0.0111406
-0.00813385
-0.00466352
-0.000732939
0.00365337
0.00848975
0.0137695
0.0194852
0.0256284
0.0321902
0.0391612
0.0465312
0.0542901
0.0624271
0.0709314
0.0797919
0.0889976
0.0985374
0.1084
0.118574
0.129049
0.139814
0.150858
0.162171
0.173743
0.185562
0.19762
0.209907
0.222413
0.235131
0.24805
0.261162
0.27446
0.287936
0.301582
0.31539
0.329355
0.343468
0.357724
0.372117
0.386641
0.401289
0.416058
0.43094
0.445932
0.461028
0.476223
0.491514
0.506895
0.522363
0.537912
0.553539
0.56924
0.585009
0.600844
0.61674
0.632692
0.648696
0.664748
0.680844
0.696977
0.713144
0.72934
0.745558
0.761794
0.778042
0.794294
0.810546
0.826789
0.843016
0.85922
0.875393
0.891526
0.90761
0.923635
0.939591
0.955467
0.971253
0.986937
1.00251
1.01795
1.03325
1.04839
1.06337
1.07816
1.09274
1.10712
1.12125
1.13514
1.14876
1.16209
1.17511
1.18781
1.20016
1.21216
1.22377
1.23498
1.24577
1.25612
1.26601
1.27543
1.28435
1.29277
1.30066
1.30801
1.31481
1.32105
1.32671
1.33179
1.33628
1.34017
1.34347
1.34618
1.3483
1.34983
1.35079
1.35118
1.35104
1.35036
1.34919
1.34754
1.34545
1.34295
1.34007
1.33686
1.33336
1.32961
1.32566
1.32155
1.31732
1.31301
1.30868
1.30438
1.29979
1.29462
0.0400336
0.0346791
0.0300214
0.0257494
0.0215147
0.0173554
0.0133188
0.00942861
0.00571064
0.002194
-0.00109189
-0.00411826
-0.00685741
-0.0092832
-0.0113714
-0.0130998
-0.0144487
-0.0154005
-0.0159401
-0.0160546
-0.0157336
-0.0149686
-0.0137532
-0.0120833
-0.00995604
-0.00737069
-0.00432787
-0.000829673
0.00312056
0.00751829
0.012358
0.0176331
0.0233364
0.0294599
0.0359949
0.0429323
0.0502625
0.0579756
0.0660613
0.0745092
0.0833087
0.0924491
0.10192
0.11171
0.121808
0.132205
0.142889
0.15385
0.165078
0.176563
0.188295
0.200264
0.212462
0.224879
0.237506
0.250334
0.263356
0.276564
0.289949
0.303505
0.317224
0.331098
0.345123
0.359291
0.373595
0.388031
0.402592
0.417273
0.432069
0.446974
0.461983
0.477093
0.492298
0.507593
0.522974
0.538437
0.553977
0.569591
0.585273
0.60102
0.616827
0.63269
0.648605
0.664566
0.68057
0.696611
0.712684
0.728785
0.744907
0.761046
0.777195
0.793347
0.809497
0.825638
0.841762
0.857861
0.873928
0.889954
0.905929
0.921845
0.937691
0.953457
0.969132
0.984704
1.00016
1.01549
1.03068
1.04571
1.06058
1.07526
1.08974
1.10401
1.11804
1.13183
1.14535
1.15858
1.17152
1.18413
1.1964
1.20832
1.21986
1.23101
1.24174
1.25204
1.26189
1.27127
1.28016
1.28856
1.29644
1.30379
1.31059
1.31685
1.32253
1.32764
1.33217
1.33612
1.33948
1.34225
1.34444
1.34605
1.34709
1.34757
1.34751
1.34692
1.34582
1.34424
1.3422
1.33974
1.33689
1.33367
1.33013
1.3263
1.32222
1.31792
1.31345
1.30881
1.30408
1.29929
1.29405
1.288
0.0459682
0.0398314
0.03458
0.029852
0.0252333
0.0207583
0.0164709
0.0123873
0.00852594
0.0049092
0.00156016
-0.00149826
-0.00424374
-0.00665499
-0.00871211
-0.0103968
-0.0116928
-0.0125853
-0.0130619
-0.013112
-0.0127269
-0.0118998
-0.0106256
-0.00890113
-0.00672455
-0.00409568
-0.00101568
0.00251302
0.00648685
0.0109012
0.0157504
0.0210281
0.0267271
0.0328396
0.0393573
0.0462711
0.0535719
0.06125
0.0692956
0.0776984
0.0864483
0.095535
0.104948
0.114677
0.124711
0.13504
0.145655
0.156544
0.167698
0.179108
0.190763
0.202654
0.214773
0.227109
0.239656
0.252403
0.265343
0.278469
0.291772
0.305246
0.318882
0.332675
0.346618
0.360703
0.374926
0.38928
0.40376
0.41836
0.433074
0.447898
0.462827
0.477855
0.492978
0.508192
0.523492
0.538873
0.554331
0.569862
0.585462
0.601125
0.616848
0.632626
0.648455
0.66433
0.680247
0.6962
0.712185
0.728195
0.744227
0.760274
0.77633
0.792389
0.808444
0.824489
0.840516
0.856518
0.872487
0.888413
0.904289
0.920105
0.935851
0.951516
0.967091
0.982562
0.997919
1.01315
1.02824
1.04318
1.05795
1.07253
1.08692
1.1011
1.11504
1.12875
1.14218
1.15534
1.1682
1.18075
1.19296
1.20481
1.2163
1.2274
1.23809
1.24836
1.25818
1.26754
1.27642
1.28481
1.2927
1.30006
1.30688
1.31316
1.31887
1.32403
1.3286
1.3326
1.33602
1.33886
1.34112
1.3428
1.34391
1.34446
1.34447
1.34394
1.3429
1.34137
1.33936
1.33691
1.33405
1.33079
1.32717
1.32323
1.31899
1.31448
1.30972
1.30474
1.29959
1.2943
1.28842
1.28152
0.0517079
0.0448115
0.0389751
0.0337887
0.0287769
0.0239715
0.0194146
0.0151159
0.0110876
0.0073462
0.00390924
0.000794382
-0.00198092
-0.00439985
-0.00644657
-0.00810648
-0.00936639
-0.0102147
-0.0106413
-0.0106378
-0.0101975
-0.00931514
-0.00798716
-0.00621138
-0.00398702
-0.00131464
0.00180401
0.00536602
0.0093675
0.0138036
0.0186685
0.0239559
0.0296585
0.0357687
0.0422782
0.0491783
0.0564599
0.0641136
0.0721298
0.0804987
0.0892103
0.0982546
0.107621
0.117301
0.127282
0.137556
0.148112
0.15894
0.170032
0.181376
0.192965
0.204788
0.216837
0.229103
0.241578
0.254254
0.267121
0.280174
0.293403
0.306802
0.320364
0.334082
0.34795
0.361961
0.376108
0.390387
0.404791
0.419316
0.433954
0.448703
0.463555
0.478508
0.493555
0.508692
0.523915
0.539219
0.5546
0.570052
0.585573
0.601158
0.616801
0.632499
0.648247
0.664041
0.679875
0.695745
0.711645
0.727571
0.743518
0.759478
0.775447
0.791418
0.807385
0.823341
0.839279
0.85519
0.871068
0.886904
0.902689
0.918414
0.934068
0.949643
0.965127
0.980509
0.995778
1.01092
1.02592
1.04078
1.05546
1.06997
1.08428
1.09838
1.11225
1.12589
1.13926
1.15236
1.16516
1.17765
1.18982
1.20163
1.21308
1.22415
1.23482
1.24506
1.25488
1.26423
1.27312
1.28152
1.28942
1.2968
1.30365
1.30997
1.31573
1.32093
1.32556
1.32962
1.3331
1.336
1.33832
1.34007
1.34125
1.34186
1.34192
1.34145
1.34044
1.33894
1.33694
1.33448
1.33157
1.32825
1.32454
1.32045
1.31602
1.31127
1.30622
1.30088
1.2953
1.28951
1.28299
1.27527
0.0571698
0.0495389
0.0431298
0.0374873
0.0320785
0.0269338
0.0220943
0.0175646
0.0133513
0.00946599
0.00592128
0.00273016
-9.42922e-05
-0.00253935
-0.00459293
-0.00624386
-0.00748206
-0.00829867
-0.00868612
-0.00863821
-0.00815008
-0.00721822
-0.00584044
-0.00401579
-0.00174454
0.000971904
0.00413108
0.00772955
0.0117629
0.0162261
0.021113
0.0264172
0.0321314
0.0382478
0.0447583
0.0516542
0.0589267
0.0665665
0.0745641
0.08291
0.0915944
0.100608
0.109939
0.11958
0.12952
0.139749
0.150258
0.161037
0.172076
0.183366
0.194898
0.206664
0.218654
0.230859
0.243272
0.255884
0.268688
0.281676
0.294839
0.308173
0.321668
0.335319
0.349118
0.363061
0.37714
0.39135
0.405685
0.42014
0.434709
0.449387
0.464169
0.479051
0.494026
0.509092
0.524243
0.539474
0.554782
0.570161
0.585608
0.601118
0.616686
0.632308
0.64798
0.663696
0.679453
0.695244
0.711066
0.726913
0.742778
0.758658
0.774546
0.790435
0.80632
0.822193
0.838048
0.853876
0.869671
0.885424
0.901126
0.916768
0.932341
0.947835
0.963238
0.978541
0.993732
1.0088
1.02373
1.03851
1.05312
1.06756
1.08181
1.09585
1.10966
1.12324
1.13657
1.14962
1.16238
1.17484
1.18697
1.19876
1.21019
1.22125
1.2319
1.24215
1.25197
1.26133
1.27024
1.27866
1.28659
1.29401
1.3009
1.30726
1.31307
1.31833
1.32302
1.32714
1.33069
1.33366
1.33605
1.33786
1.33909
1.33976
1.33987
1.33943
1.33846
1.33696
1.33495
1.33246
1.3295
1.32609
1.32225
1.318
1.31337
1.30836
1.303
1.29728
1.29127
1.28499
1.27785
1.26935
0.0622817
0.0539424
0.0469751
0.0408822
0.0350764
0.0295879
0.0244575
0.0196855
0.0152739
0.01123
0.00756203
0.00427893
0.0013898
-0.00109634
-0.00317088
-0.00482583
-0.00605406
-0.00684936
-0.00720656
-0.00712159
-0.00659151
-0.00561447
-0.00418976
-0.0023177
3.58953e-07
0.00276208
0.00596422
0.0096027
0.0136726
0.0181685
0.0230839
0.0284121
0.0341458
0.0402771
0.0467977
0.0536992
0.0609726
0.0686088
0.0765985
0.0849322
0.0936004
0.102593
0.111902
0.121515
0.131425
0.14162
0.152093
0.162832
0.17383
0.185077
0.196563
0.208281
0.220221
0.232376
0.244736
0.257294
0.270043
0.282974
0.296081
0.309356
0.322792
0.336383
0.350122
0.364003
0.378021
0.392168
0.406441
0.420832
0.435337
0.44995
0.464667
0.479483
0.494393
0.509391
0.524475
0.539639
0.554878
0.570188
0.585566
0.601005
0.616503
0.632054
0.647654
0.663298
0.678981
0.694699
0.710446
0.726218
0.742009
0.757814
0.773625
0.789439
0.805247
0.821044
0.836823
0.852575
0.868294
0.883972
0.899599
0.915167
0.930667
0.946088
0.961421
0.976655
0.991778
1.00678
1.02165
1.03637
1.05092
1.06531
1.0795
1.09349
1.10727
1.12081
1.13409
1.14712
1.15985
1.17229
1.18441
1.19619
1.20762
1.21867
1.22934
1.2396
1.24944
1.25883
1.26777
1.27623
1.2842
1.29167
1.29862
1.30504
1.31091
1.31623
1.32099
1.32518
1.3288
1.33183
1.33429
1.33616
1.33745
1.33817
1.33832
1.33791
1.33695
1.33545
1.33342
1.33088
1.32785
1.32433
1.32035
1.31593
1.31107
1.3058
1.30011
1.29403
1.28758
1.28081
1.27308
1.26382
0.0669801
0.0579584
0.0504487
0.0439133
0.0377137
0.0318803
0.0264546
0.0214329
0.0168137
0.0126003
0.00879738
0.00541018
0.00244426
-9.47284e-05
-0.00220137
-0.00387065
-0.00509819
-0.00588032
-0.00621417
-0.00609777
-0.00553004
-0.00451082
-0.00304086
-0.0011218
0.00124387
0.00405283
0.00730102
0.0109836
0.0150952
0.0196296
0.0245803
0.0299401
0.0357014
0.0418563
0.0483964
0.0553131
0.0625975
0.0702405
0.0782329
0.0865653
0.0952284
0.104212
0.113508
0.123106
0.132996
0.143169
0.153616
0.164327
0.175294
0.186507
0.197958
0.209638
0.221539
0.233652
0.245969
0.258482
0.271185
0.284068
0.297126
0.310351
0.323736
0.337274
0.35096
0.364787
0.37875
0.392841
0.407057
0.42139
0.435837
0.450391
0.465049
0.479804
0.494653
0.50959
0.524611
0.539712
0.554887
0.570134
0.585446
0.60082
0.616251
0.631735
0.647268
0.662844
0.678459
0.694108
0.709786
0.725489
0.74121
0.756944
0.772685
0.788428
0.804167
0.819894
0.835602
0.851286
0.866936
0.882545
0.898105
0.913608
0.929043
0.944401
0.959673
0.974848
0.989914
1.00486
1.01967
1.03435
1.04886
1.0632
1.07736
1.09131
1.10506
1.11857
1.13184
1.14484
1.15757
1.17
1.18212
1.19391
1.20535
1.21642
1.22712
1.23741
1.24728
1.25671
1.2657
1.27421
1.28224
1.28977
1.29679
1.30327
1.30922
1.31462
1.31945
1.32372
1.32741
1.33052
1.33304
1.33498
1.33633
1.33709
1.33728
1.33689
1.33594
1.33442
1.33236
1.32976
1.32664
1.32301
1.31888
1.31427
1.30918
1.30363
1.29762
1.29116
1.28429
1.27705
1.26873
1.25875
0.0712085
0.0615298
0.0534942
0.0465257
0.0399377
0.0337611
0.0280384
0.022763
0.01793
0.0135397
0.00959348
0.0060933
0.00304156
0.000440857
-0.00170631
-0.00339771
-0.00463152
-0.00540649
-0.00572197
-0.00557801
-0.00497536
-0.00391553
-0.00240077
-0.000434016
0.00198105
0.00484009
0.00813815
0.0118696
0.0160285
0.020608
0.0256011
0.0310003
0.0367977
0.0429851
0.0495541
0.0564958
0.0638014
0.0714618
0.0794676
0.0878096
0.0964784
0.105465
0.114759
0.124351
0.134233
0.144395
0.154827
0.165521
0.176468
0.187659
0.199084
0.210737
0.222607
0.234688
0.246971
0.259449
0.272114
0.284958
0.297975
0.311158
0.324499
0.337993
0.351633
0.365413
0.379326
0.393369
0.407534
0.421816
0.43621
0.450711
0.465314
0.480015
0.494808
0.509688
0.524652
0.539694
0.554811
0.569997
0.585249
0.600562
0.615932
0.631353
0.646823
0.662336
0.677887
0.693472
0.709086
0.724723
0.740379
0.756049
0.771725
0.787404
0.803077
0.81874
0.834385
0.850006
0.865594
0.881143
0.896644
0.912088
0.927467
0.942771
0.957991
0.973115
0.988134
1.00304
1.01781
1.03244
1.04692
1.06123
1.07536
1.0893
1.10303
1.11653
1.12979
1.14279
1.15553
1.16797
1.1801
1.19191
1.20338
1.21449
1.22522
1.23556
1.24548
1.25497
1.26402
1.2726
1.2807
1.28831
1.2954
1.30197
1.308
1.31348
1.3184
1.32275
1.32652
1.32971
1.33231
1.33431
1.33572
1.33653
1.33675
1.33638
1.33543
1.3339
1.33179
1.32913
1.32592
1.32216
1.31787
1.31306
1.30774
1.30191
1.29558
1.28874
1.28145
1.27374
1.26487
1.2542
0.0749165
0.0646051
0.0560602
0.0486691
0.0416993
0.0351832
0.0291643
0.0236338
0.0185838
0.014012
0.00991692
0.00629768
0.00315385
0.000485221
-0.00170839
-0.0034273
-0.00467214
-0.00544391
-0.0057441
-0.0055747
-0.00493829
-0.003838
-0.00227756
-0.000261266
0.00220602
0.0051189
0.00847147
0.0122573
0.0164697
0.0211012
0.0261444
0.0315913
0.0374337
0.043663
0.0502705
0.0572474
0.0645845
0.0722728
0.0803029
0.0886655
0.0973512
0.106351
0.115654
0.125253
0.135138
0.145299
0.155728
0.166415
0.177353
0.188531
0.199941
0.211576
0.223426
0.235485
0.247744
0.260195
0.272831
0.285644
0.298629
0.311777
0.325083
0.338539
0.35214
0.36588
0.379752
0.393751
0.407872
0.422109
0.436457
0.45091
0.465465
0.480115
0.494857
0.509686
0.524597
0.539586
0.554648
0.569779
0.584975
0.600232
0.615544
0.630908
0.646319
0.661773
0.677265
0.69279
0.708344
0.723922
0.739518
0.755128
0.770745
0.786364
0.801979
0.817583
0.833171
0.848735
0.864269
0.879764
0.895212
0.910606
0.925936
0.941195
0.956371
0.971454
0.986436
1.0013
1.01605
1.03065
1.04511
1.0594
1.07352
1.08745
1.10117
1.11467
1.12794
1.14096
1.15371
1.16617
1.17834
1.19019
1.2017
1.21286
1.22364
1.23404
1.24403
1.2536
1.26272
1.27138
1.27957
1.28727
1.29445
1.30112
1.30725
1.31282
1.31784
1.32228
1.32614
1.32941
1.33209
1.33416
1.33563
1.33649
1.33674
1.33639
1.33544
1.33389
1.33174
1.32901
1.32569
1.32181
1.31736
1.31235
1.30678
1.30068
1.29402
1.28681
1.27911
1.27095
1.26154
1.25021
0.0780587
0.0671376
0.0580994
0.0502967
0.0429531
0.0361025
0.0297902
0.0240051
0.0187372
0.0139817
0.00973474
0.00599288
0.00275314
1.2774e-05
-0.00223086
-0.00398048
-0.00523899
-0.00600955
-0.00629568
-0.00610128
-0.00543066
-0.0042886
-0.00268028
-0.000611366
0.00191208
0.00488356
0.00829619
0.0121427
0.0164156
0.0211069
0.0262084
0.0317117
0.0376082
0.0438891
0.0505452
0.0575676
0.064947
0.0726741
0.0807394
0.0891337
0.0978475
0.106871
0.116196
0.125813
0.135711
0.145883
0.156319
0.167011
0.177949
0.189125
0.200531
0.212158
0.223998
0.236044
0.248287
0.26072
0.273336
0.286128
0.299088
0.31221
0.325488
0.338914
0.352484
0.36619
0.380027
0.39399
0.408073
0.42227
0.436577
0.450989
0.4655
0.480106
0.494802
0.509584
0.524448
0.539388
0.5544
0.569481
0.584626
0.59983
0.615089
0.6304
0.645757
0.661156
0.676594
0.692064
0.707563
0.723085
0.738626
0.754181
0.769743
0.785308
0.80087
0.816422
0.831958
0.847472
0.862957
0.878405
0.893808
0.909159
0.924449
0.939669
0.95481
0.969862
0.984815
0.999657
1.01438
1.02897
1.04341
1.0577
1.07181
1.08574
1.09948
1.11299
1.12628
1.13933
1.15211
1.16461
1.17682
1.18872
1.20029
1.21152
1.22237
1.23285
1.24292
1.25258
1.26179
1.27055
1.27884
1.28664
1.29394
1.30071
1.30695
1.31263
1.31775
1.3223
1.32626
1.32963
1.33239
1.33453
1.33607
1.33698
1.33727
1.33694
1.33599
1.33442
1.33222
1.32942
1.326
1.32198
1.31737
1.31216
1.30635
1.29997
1.29299
1.28542
1.27732
1.26872
1.25879
1.24682
0.0805935
0.0690842
0.0595683
0.0513649
0.043656
0.0364772
0.0298755
0.0238383
0.0183534
0.0134141
0.00901442
0.00514859
0.00181135
-0.00100236
-0.00329746
-0.00507889
-0.00635172
-0.00712115
-0.00739266
-0.00717197
-0.00646514
-0.0052785
-0.00361874
-0.00149286
0.00109184
0.00412775
0.00760697
0.0115214
0.0158626
0.0206219
0.0257907
0.0313598
0.0373203
0.0436628
0.0503781
0.0574567
0.0648893
0.0726662
0.0807781
0.0892154
0.0979687
0.107029
0.116386
0.126031
0.135955
0.146148
0.156603
0.167309
0.178259
0.189444
0.200855
0.212484
0.224324
0.236366
0.248603
0.261028
0.273633
0.286411
0.299355
0.312459
0.325716
0.33912
0.352665
0.366345
0.380154
0.394087
0.408138
0.422302
0.436574
0.450949
0.465422
0.479989
0.494645
0.509385
0.524205
0.539101
0.554069
0.569103
0.584201
0.599357
0.614569
0.62983
0.645137
0.660487
0.675873
0.691293
0.706741
0.722213
0.737703
0.753208
0.768721
0.784237
0.79975
0.815256
0.830746
0.846216
0.861658
0.877065
0.89243
0.907745
0.923002
0.938192
0.953306
0.968334
0.983267
0.998095
1.01281
1.02739
1.04183
1.05612
1.07024
1.08419
1.09794
1.11149
1.12481
1.13789
1.15072
1.16328
1.17555
1.18752
1.19916
1.21046
1.22141
1.23198
1.24215
1.2519
1.26123
1.2701
1.27851
1.28643
1.29384
1.30074
1.3071
1.31291
1.31815
1.32281
1.32688
1.33035
1.3332
1.33544
1.33704
1.33802
1.33835
1.33804
1.33709
1.3355
1.33326
1.33039
1.32687
1.32272
1.31794
1.31253
1.30649
1.29983
1.29254
1.28461
1.27612
1.26709
1.25666
1.24407
0.0824828
0.0704051
0.0604261
0.051833
0.0437677
0.0362675
0.0293816
0.023096
0.0173968
0.0122754
0.00772391
0.00373471
0.000300374
-0.00258627
-0.00493228
-0.00674468
-0.00803056
-0.00879711
-0.00905167
-0.00880175
-0.00805507
-0.00681957
-0.00510339
-0.00291489
-0.000262616
0.00284468
0.00639808
0.0103885
0.0148067
0.0196433
0.0248889
0.0305339
0.0365687
0.0429836
0.0497689
0.056915
0.064412
0.0722503