/*--------------------------------*- C++ -*----------------------------------*\
  =========                 |
  \\      /  F ield         | OpenFOAM: The Open Source CFD Toolbox
   \\    /   O peration     | Website:  https://openfoam.org
    \\  /    A nd           | Version:  7
     \\/     M anipulation  |
\*---------------------------------------------------------------------------*/
FoamFile
{
    version     2.0;
    format      ascii;
    class       surfaceScalarField;
    location    "0.1875";
    object      phi;
}
// * * * * * * * * * * * * * * * * * * * * * * * * * * * * * * * * * * * * * //

dimensions      [0 3 -1 0 0 0 0];

internalField   nonuniform List<scalar> 
101920
(
1.76608e-12
-1.74264e-12
3.29288e-12
-1.52923e-12
3.28105e-12
1.32551e-14
2.68476e-12
5.98079e-13
2.23046e-12
4.53452e-13
2.20596e-12
2.51075e-14
2.69925e-12
-4.91342e-13
3.65943e-12
-9.65327e-13
5.01634e-12
-1.35639e-12
6.67326e-12
-1.66041e-12
8.56559e-12
-1.89142e-12
1.06288e-11
-2.06674e-12
1.28276e-11
-2.19812e-12
1.51281e-11
-2.30583e-12
1.75253e-11
-2.3927e-12
1.99926e-11
-2.47041e-12
2.25309e-11
-2.53924e-12
2.51382e-11
-2.60645e-12
2.78068e-11
-2.66938e-12
3.05386e-11
-2.73237e-12
3.33267e-11
-2.78913e-12
3.61702e-11
-2.84495e-12
3.90639e-11
-2.8949e-12
4.20046e-11
-2.94327e-12
4.49917e-11
-2.98499e-12
4.80146e-11
-3.02413e-12
5.10728e-11
-3.05897e-12
5.41601e-11
-3.08576e-12
5.72646e-11
-3.10806e-12
6.0388e-11
-3.12349e-12
6.35224e-11
-3.13482e-12
6.66629e-11
-3.14135e-12
6.98069e-11
-3.14165e-12
7.29457e-11
-3.13891e-12
7.60743e-11
-3.1302e-12
7.91907e-11
-3.11507e-12
8.22872e-11
-3.0959e-12
8.53592e-11
-3.0721e-12
8.84068e-11
-3.04567e-12
9.14191e-11
-3.01146e-12
9.43963e-11
-2.97816e-12
9.73358e-11
-2.93662e-12
1.00231e-10
-2.89395e-12
1.03078e-10
-2.84747e-12
1.05878e-10
-2.79886e-12
1.08623e-10
-2.74454e-12
1.11311e-10
-2.68945e-12
1.13943e-10
-2.63218e-12
1.16513e-10
-2.56891e-12
1.19019e-10
-2.50652e-12
1.21461e-10
-2.44467e-12
1.23836e-10
-2.3764e-12
1.2614e-10
-2.30509e-12
1.28371e-10
-2.23499e-12
1.30533e-10
-2.16225e-12
1.32621e-10
-2.08587e-12
1.34629e-10
-2.00975e-12
1.3656e-10
-1.93195e-12
1.38412e-10
-1.84896e-12
1.40178e-10
-1.76462e-12
1.41861e-10
-1.68254e-12
1.43464e-10
-1.60048e-12
1.44979e-10
-1.51536e-12
1.46405e-10
-1.42869e-12
1.47744e-10
-1.34173e-12
1.48998e-10
-1.25356e-12
1.50163e-10
-1.16524e-12
1.51238e-10
-1.07825e-12
1.52227e-10
-9.89667e-13
1.53124e-10
-8.96392e-13
1.53925e-10
-7.9939e-13
1.5463e-10
-7.0297e-13
1.55243e-10
-6.10688e-13
1.55765e-10
-5.21671e-13
1.56195e-10
-4.33668e-13
1.56534e-10
-3.43505e-13
1.56782e-10
-2.49321e-13
1.56934e-10
-1.51823e-13
1.56989e-10
-5.39324e-14
1.5695e-10
4.11541e-14
1.56819e-10
1.32457e-13
1.56595e-10
2.22872e-13
1.56277e-10
3.15066e-13
1.55865e-10
4.09503e-13
1.55361e-10
5.04217e-13
1.54762e-10
5.98674e-13
1.5407e-10
6.92426e-13
1.53285e-10
7.85459e-13
1.52408e-10
8.76928e-13
1.51439e-10
9.67837e-13
1.50378e-10
1.0596e-12
1.49224e-10
1.15228e-12
1.47981e-10
1.24386e-12
1.46648e-10
1.3332e-12
1.45225e-10
1.4218e-12
1.43714e-10
1.51058e-12
1.42114e-10
1.5987e-12
1.40429e-10
1.6852e-12
1.38658e-10
1.7703e-12
1.36802e-10
1.85511e-12
1.34863e-10
1.93917e-12
1.32842e-10
2.02092e-12
1.3074e-10
2.1006e-12
1.28559e-10
2.1797e-12
1.263e-10
2.2583e-12
1.23966e-10
2.33491e-12
1.21557e-10
2.40865e-12
1.19076e-10
2.4803e-12
1.16524e-10
2.55089e-12
1.13904e-10
2.61992e-12
1.11218e-10
2.68594e-12
1.08469e-10
2.74846e-12
1.0566e-10
2.80852e-12
1.02793e-10
2.86695e-12
9.98693e-11
2.92294e-12
9.68935e-11
2.97536e-12
9.38687e-11
3.02421e-12
9.07981e-11
3.07025e-12
8.76843e-11
3.11356e-12
8.45313e-11
3.15292e-12
8.13436e-11
3.18723e-12
7.81258e-11
3.21703e-12
7.48825e-11
3.24317e-12
7.16179e-11
3.26498e-12
6.83366e-11
3.28129e-12
6.50445e-11
3.29168e-12
6.17475e-11
3.29649e-12
5.84509e-11
3.29642e-12
5.51601e-11
3.2911e-12
5.18816e-11
3.27876e-12
4.86226e-11
3.25868e-12
4.53904e-11
3.23184e-12
4.21919e-11
3.19852e-12
3.90343e-11
3.15788e-12
3.59254e-11
3.10901e-12
3.28745e-11
3.05113e-12
2.98906e-11
2.98423e-12
2.69818e-11
2.9088e-12
2.41575e-11
2.82441e-12
2.14274e-11
2.72999e-12
1.8802e-11
2.6251e-12
1.62924e-11
2.50991e-12
1.39089e-11
2.3845e-12
1.16612e-11
2.24835e-12
9.56028e-12
2.10074e-12
7.61862e-12
1.94148e-12
5.84757e-12
1.77117e-12
4.25765e-12
1.59032e-12
2.85957e-12
1.39881e-12
1.66356e-12
1.19669e-12
6.79051e-13
9.84757e-13
-8.55223e-14
7.64747e-13
-6.24974e-13
5.39784e-13
-9.39002e-13
3.1443e-13
-1.03417e-12
9.56154e-14
-9.30517e-13
-1.03458e-13
-6.71141e-13
-2.58869e-13
-3.42032e-13
-3.2806e-13
-8.5035e-14
-2.56338e-13
-8.47891e-14
2.4755e-12
-4.21996e-12
5.1761e-12
-4.2262e-12
6.61231e-12
-1.42482e-12
7.755e-12
-5.44225e-13
9.27314e-12
-1.06655e-12
1.14892e-11
-2.19129e-12
1.44345e-11
-3.43856e-12
1.8081e-11
-4.60534e-12
2.23196e-11
-5.59876e-12
2.70698e-11
-6.40881e-12
3.22388e-11
-7.06221e-12
3.77751e-11
-7.59827e-12
4.36216e-11
-8.04881e-12
4.97666e-11
-8.44491e-12
5.61652e-11
-8.79697e-12
6.28302e-11
-9.12898e-12
6.97341e-11
-9.44409e-12
7.6872e-11
-9.7462e-12
8.42386e-11
-1.0035e-11
9.18137e-11
-1.03095e-11
9.95957e-11
-1.05692e-11
1.07568e-10
-1.0814e-11
1.15716e-10
-1.10417e-11
1.24029e-10
-1.12541e-11
1.32484e-10
-1.14433e-11
1.41072e-10
-1.1611e-11
1.49771e-10
-1.17565e-11
1.58565e-10
-1.18814e-11
1.6744e-10
-1.19808e-11
1.76375e-10
-1.20566e-11
1.85352e-10
-1.21142e-11
1.94358e-10
-1.21473e-11
2.03378e-10
-1.21612e-11
2.12392e-10
-1.21552e-11
2.21391e-10
-1.21281e-11
2.30354e-10
-1.2079e-11
2.39269e-10
-1.20152e-11
2.48126e-10
-1.19286e-11
2.56907e-10
-1.18269e-11
2.65601e-10
-1.17099e-11
2.74198e-10
-1.15766e-11
2.82687e-10
-1.14268e-11
2.91053e-10
-1.12636e-11
2.99291e-10
-1.10866e-11
3.07388e-10
-1.08942e-11
3.15333e-10
-1.06913e-11
3.2312e-10
-1.04784e-11
3.30744e-10
-1.02517e-11
3.3819e-10
-1.00163e-11
3.45456e-10
-9.77209e-12
3.52537e-10
-9.51946e-12
3.59422e-10
-9.25831e-12
3.66105e-10
-8.98845e-12
3.72585e-10
-8.71212e-12
3.78853e-10
-8.42794e-12
3.84902e-10
-8.13637e-12
3.90731e-10
-7.83897e-12
3.96334e-10
-7.53484e-12
4.01703e-10
-7.2217e-12
4.06836e-10
-6.90224e-12
4.11731e-10
-6.57851e-12
4.16385e-10
-6.2507e-12
4.2079e-10
-5.9188e-12
4.24946e-10
-5.58319e-12
4.28853e-10
-5.24426e-12
4.32503e-10
-4.90226e-12
4.35896e-10
-4.55832e-12
4.39034e-10
-4.21354e-12
4.41912e-10
-3.86583e-12
4.44523e-10
-3.51163e-12
4.46867e-10
-3.15008e-12
4.48946e-10
-2.78463e-12
4.50758e-10
-2.42126e-12
4.52301e-10
-2.06175e-12
4.53577e-10
-1.70479e-12
4.54586e-10
-1.34792e-12
4.55324e-10
-9.87812e-13
4.55788e-10
-6.21427e-13
4.5598e-10
-2.50931e-13
4.55902e-10
1.18395e-13
4.55553e-10
4.83179e-13
4.54931e-10
8.46037e-13
4.54038e-10
1.20962e-12
4.52875e-10
1.57435e-12
4.5144e-10
1.93873e-12
4.49731e-10
2.30338e-12
4.47753e-10
2.66825e-12
4.45508e-10
3.03177e-12
4.42995e-10
3.39158e-12
4.40213e-10
3.74928e-12
4.37166e-10
4.10733e-12
4.33853e-10
4.46444e-12
4.30278e-10
4.81837e-12
4.26441e-10
5.16876e-12
4.22345e-10
5.51717e-12
4.17993e-10
5.86336e-12
4.13387e-10
6.20516e-12
4.08529e-10
6.54225e-12
4.03422e-10
6.87581e-12
3.9807e-10
7.20621e-12
3.92478e-10
7.53199e-12
3.86648e-10
7.85115e-12
3.80584e-10
8.16425e-12
3.7429e-10
8.47322e-12
3.67771e-10
8.77742e-12
3.61032e-10
9.07426e-12
3.54078e-10
9.36265e-12
3.46914e-10
9.64366e-12
3.39547e-10
9.91785e-12
3.31984e-10
1.01835e-11
3.2423e-10
1.04389e-11
3.16293e-10
1.06846e-11
3.0818e-10
1.09213e-11
2.99899e-10
1.11484e-11
2.91459e-10
1.13639e-11
2.82867e-10
1.15669e-11
2.74133e-10
1.17577e-11
2.65268e-10
1.19363e-11
2.56282e-10
1.2101e-11
2.47185e-10
1.22499e-11
2.3799e-10
1.2382e-11
2.2871e-10
1.24975e-11
2.19357e-10
1.25965e-11
2.09945e-10
1.26772e-11
2.00489e-10
1.27373e-11
1.91005e-10
1.27763e-11
1.81507e-10
1.27947e-11
1.72013e-10
1.27914e-11
1.6254e-10
1.27648e-11
1.53106e-10
1.27127e-11
1.43731e-10
1.26342e-11
1.34434e-10
1.25291e-11
1.25238e-10
1.23964e-11
1.16162e-10
1.22342e-11
1.07229e-10
1.20411e-11
9.84644e-11
1.18159e-11
8.9892e-11
1.15581e-11
8.15362e-11
1.12664e-11
7.3423e-11
1.09388e-11
6.55799e-11
1.05737e-11
5.80345e-11
1.01706e-11
5.0815e-11
9.72956e-12
4.39506e-11
9.24969e-12
3.74704e-11
8.72967e-12
3.14034e-11
8.16862e-12
2.57795e-11
7.56666e-12
2.06273e-11
6.92496e-12
1.59738e-11
6.24484e-12
1.18456e-11
5.52759e-12
8.26688e-12
4.77596e-12
5.25746e-12
3.99497e-12
2.83172e-12
3.19212e-12
9.94821e-13
2.37857e-12
-2.61712e-13
1.57191e-12
-9.65027e-13
7.99678e-13
-1.17348e-12
1.05948e-13
-9.92079e-13
-4.39126e-13
-5.90629e-13
-7.27928e-13
-2.00604e-13
-6.45223e-13
-2.85287e-13
1.85072e-12
-6.06969e-12
4.59774e-12
-6.97617e-12
7.25587e-12
-4.08386e-12
1.03741e-11
-3.66404e-12
1.43354e-11
-5.02557e-12
1.91501e-11
-7.00276e-12
2.47988e-11
-9.08701e-12
3.11891e-11
-1.09991e-11
3.82544e-11
-1.26564e-11
4.59021e-11
-1.40574e-11
5.40929e-11
-1.52514e-11
6.27829e-11
-1.62869e-11
7.1949e-11
-1.72142e-11
8.15684e-11
-1.80669e-11
9.16402e-11
-1.88698e-11
1.02142e-10
-1.96331e-11
1.13067e-10
-2.03713e-11
1.24408e-10
-2.10813e-11
1.36137e-10
-2.17676e-11
1.48243e-10
-2.24125e-11
1.607e-10
-2.3028e-11
1.73483e-10
-2.36016e-11
1.86576e-10
-2.4133e-11
1.99942e-10
-2.46217e-11
2.13558e-10
-2.50601e-11
2.27398e-10
-2.54495e-11
2.41428e-10
-2.57886e-11
2.55623e-10
-2.60745e-11
2.69956e-10
-2.63102e-11
2.84392e-10
-2.64965e-11
2.98907e-10
-2.663e-11
3.13477e-10
-2.67156e-11
3.28069e-10
-2.67557e-11
3.42665e-10
-2.67476e-11
3.57234e-10
-2.66959e-11
3.71755e-10
-2.6601e-11
3.86203e-10
-2.64618e-11
4.0056e-10
-2.62837e-11
4.14797e-10
-2.60654e-11
4.28903e-10
-2.58141e-11
4.42851e-10
-2.55205e-11
4.56627e-10
-2.52032e-11
4.7021e-10
-2.48465e-11
4.83585e-10
-2.44598e-11
4.96736e-10
-2.40461e-11
5.09646e-10
-2.3603e-11
5.22305e-10
-2.31348e-11
5.34693e-10
-2.26421e-11
5.46801e-10
-2.21279e-11
5.5862e-10
-2.15918e-11
5.70134e-10
-2.10344e-11
5.81333e-10
-2.04599e-11
5.92209e-10
-1.98655e-11
6.02752e-10
-1.92531e-11
6.12949e-10
-1.86257e-11
6.22794e-10
-1.79826e-11
6.32283e-10
-1.73236e-11
6.41403e-10
-1.66513e-11
6.50147e-10
-1.59662e-11
6.58514e-10
-1.52678e-11
6.66493e-10
-1.45583e-11
6.74078e-10
-1.38388e-11
6.81266e-10
-1.31089e-11
6.88053e-10
-1.2369e-11
6.9443e-10
-1.16215e-11
7.00391e-10
-1.08672e-11
7.05938e-10
-1.01063e-11
7.11068e-10
-9.34015e-12
7.15774e-10
-8.56865e-12
7.20053e-10
-7.78957e-12
7.23907e-10
-7.00193e-12
7.27331e-10
-6.20919e-12
7.30319e-10
-5.41476e-12
7.32871e-10
-4.61953e-12
7.3499e-10
-3.82346e-12
7.36672e-10
-3.02682e-12
7.37913e-10
-2.22745e-12
7.38716e-10
-1.42316e-12
7.39081e-10
-6.15138e-13
7.39005e-10
1.9245e-13
7.38487e-10
9.98089e-13
7.37526e-10
1.80321e-12
7.36127e-10
2.60935e-12
7.34288e-10
3.41479e-12
7.32008e-10
4.21902e-12
7.29288e-10
5.02251e-12
7.26131e-10
5.82488e-12
7.22537e-10
6.62391e-12
7.18508e-10
7.4191e-12
7.14044e-10
8.21151e-12
7.0915e-10
9.00187e-12
7.03828e-10
9.78781e-12
6.98078e-10
1.05673e-11
6.91904e-10
1.13411e-11
6.8531e-10
1.21099e-11
6.78301e-10
1.28722e-11
6.7088e-10
1.36257e-11
6.63051e-10
1.43702e-11
6.5482e-10
1.51066e-11
6.46192e-10
1.5834e-11
6.37173e-10
1.65501e-11
6.27768e-10
1.72542e-11
6.17984e-10
1.79472e-11
6.07829e-10
1.86289e-11
5.97309e-10
1.92972e-11
5.86433e-10
1.99498e-11
5.75208e-10
2.05864e-11
5.63644e-10
2.12068e-11
5.51753e-10
2.18097e-11
5.39543e-10
2.2393e-11
5.27025e-10
2.29556e-11
5.14211e-10
2.34977e-11
5.01113e-10
2.40189e-11
4.87744e-10
2.45172e-11
4.74118e-10
2.49899e-11
4.60249e-10
2.54355e-11
4.46152e-10
2.58539e-11
4.31844e-10
2.62439e-11
4.17343e-10
2.66023e-11
4.02666e-10
2.69264e-11
3.87832e-10
2.72151e-11
3.72863e-10
2.74676e-11
3.57779e-10
2.76813e-11
3.42602e-10
2.78534e-11
3.27356e-10
2.79819e-11
3.12067e-10
2.80655e-11
2.9676e-10
2.81027e-11
2.81461e-10
2.80908e-11
2.66199e-10
2.80269e-11
2.51003e-10
2.79083e-11
2.35904e-10
2.7733e-11
2.20935e-10
2.74992e-11
2.06128e-10
2.72043e-11
1.91518e-10
2.68446e-11
1.77141e-10
2.64179e-11
1.63034e-10
2.59227e-11
1.49236e-10
2.53567e-11
1.35786e-10
2.4717e-11
1.22725e-10
2.40002e-11
1.10095e-10
2.32042e-11
9.79401e-11
2.23273e-11
8.63022e-11
2.13684e-11
7.52262e-11
2.03261e-11
6.47567e-11
1.91991e-11
5.49382e-11
1.79872e-11
4.58145e-11
1.66915e-11
3.74278e-11
1.53135e-11
2.98174e-11
1.38564e-11
2.30207e-11
1.23247e-11
1.7071e-11
1.07264e-11
1.19931e-11
9.07353e-12
7.8027e-12
7.38354e-12
4.50173e-12
5.68092e-12
2.07193e-12
4.00247e-12
4.685e-13
2.40379e-12
-3.91756e-13
9.67578e-13
-6.45106e-13
-1.84386e-13
-4.942e-13
-8.77766e-13
-2.0223e-13
-9.36475e-13
-4.87475e-13
1.17568e-12
-7.24564e-12
3.5273e-12
-9.32555e-12
6.712e-12
-7.26577e-12
1.10123e-11
-7.96929e-12
1.65146e-11
-1.05278e-11
2.31938e-11
-1.36944e-11
3.09508e-11
-1.68365e-11
3.96588e-11
-1.97098e-11
4.92179e-11
-2.22196e-11
5.95575e-11
-2.44006e-11
7.06199e-11
-2.63113e-11
8.23593e-11
-2.80297e-11
9.47615e-11
-2.96179e-11
1.07809e-10
-3.11113e-11
1.21478e-10
-3.254e-11
1.35762e-10
-3.39176e-11
1.50639e-10
-3.52479e-11
1.66086e-10
-3.65333e-11
1.82081e-10
-3.77611e-11
1.98598e-10
-3.89313e-11
2.15599e-10
-4.00298e-11
2.33055e-10
-4.10548e-11
2.50929e-10
-4.20076e-11
2.6918e-10
-4.28737e-11
2.87775e-10
-4.36541e-11
3.06671e-10
-4.43456e-11
3.25827e-10
-4.49469e-11
3.45211e-10
-4.54585e-11
3.64778e-10
-4.5879e-11
3.84493e-10
-4.62098e-11
4.04316e-10
-4.64522e-11
4.24211e-10
-4.6613e-11
4.44141e-10
-4.66852e-11
4.64075e-10
-4.66808e-11
4.83972e-10
-4.65954e-11
5.03807e-10
-4.6435e-11
5.23546e-10
-4.61996e-11
5.43156e-10
-4.58959e-11
5.62613e-10
-4.55236e-11
5.81886e-10
-4.50851e-11
6.00949e-10
-4.45879e-11
6.19776e-10
-4.40294e-11
6.38346e-10
-4.34146e-11
6.5663e-10
-4.27461e-11
6.74611e-10
-4.20262e-11
6.92267e-10
-4.12582e-11
7.0958e-10
-4.04439e-11
7.26526e-10
-3.95902e-11
7.43093e-10
-3.86938e-11
7.59264e-10
-3.776e-11
7.75019e-10
-3.67925e-11
7.90348e-10
-3.5789e-11
8.05237e-10
-3.47521e-11
8.19669e-10
-3.36861e-11
8.33632e-10
-3.25917e-11
8.47117e-10
-3.1468e-11
8.60112e-10
-3.03189e-11
8.72605e-10
-2.91464e-11
8.84589e-10
-2.795e-11
8.96058e-10
-2.67321e-11
9.06997e-10
-2.54963e-11
9.174e-10
-2.4243e-11
9.27263e-10
-2.29705e-11
9.36578e-10
-2.16816e-11
9.45335e-10
-2.03788e-11
9.53528e-10
-1.90624e-11
9.61155e-10
-1.77339e-11
9.68209e-10
-1.63954e-11
9.74683e-10
-1.50466e-11
9.8058e-10
-1.3686e-11
9.85898e-10
-1.23151e-11
9.90629e-10
-1.09375e-11
9.94769e-10
-9.55468e-12
9.98315e-10
-8.16701e-12
1.00127e-09
-6.77541e-12
1.00362e-09
-5.38131e-12
1.00537e-09
-3.98242e-12
1.00653e-09
-2.57793e-12
1.00708e-09
-1.17073e-12
1.00704e-09
2.36135e-13
1.00639e-09
1.64293e-12
1.00515e-09
3.05043e-12
1.0033e-09
4.45818e-12
1.00085e-09
5.86437e-12
9.97794e-10
7.26922e-12
9.94145e-10
8.67239e-12
9.89899e-10
1.0072e-11
9.85057e-10
1.14654e-11
9.79621e-10
1.28538e-11
9.73593e-10
1.42383e-11
9.66978e-10
1.5617e-11
9.59778e-10
1.69872e-11
9.51997e-10
1.83476e-11
9.43638e-10
1.96988e-11
9.34708e-10
2.104e-11
9.25211e-10
2.23687e-11
9.15153e-10
2.36831e-11
9.04539e-10
2.49831e-11
8.93377e-10
2.62683e-11
8.81676e-10
2.75362e-11
8.69441e-10
2.87844e-11
8.5668e-10
3.0013e-11
8.43404e-10
3.12226e-11
8.29622e-10
3.24112e-11
8.15344e-10
3.35753e-11
8.0058e-10
3.47123e-11
7.85344e-10
3.58219e-11
7.69647e-10
3.69032e-11
7.53504e-10
3.79531e-11
7.36927e-10
3.89686e-11
7.19933e-10
3.99491e-11
7.02537e-10
4.08939e-11
6.84755e-10
4.18007e-11
6.66606e-10
4.26659e-11
6.48109e-10
4.34865e-11
6.29283e-10
4.42608e-11
6.10151e-10
4.49866e-11
5.90735e-10
4.56608e-11
5.71057e-10
4.62795e-11
5.51143e-10
4.68395e-11
5.31019e-10
4.73387e-11
5.10713e-10
4.77738e-11
4.90254e-10
4.81406e-11
4.69672e-10
4.84351e-11
4.49e-10
4.86538e-11
4.2827e-10
4.87947e-11
4.07519e-10
4.88546e-11
3.86782e-10
4.88284e-11
3.66097e-10
4.87114e-11
3.45505e-10
4.85001e-11
3.25047e-10
4.81911e-11
3.04766e-10
4.77805e-11
2.84707e-10
4.72636e-11
2.64916e-10
4.66358e-11
2.45441e-10
4.58933e-11
2.26332e-10
4.50329e-11
2.07638e-10
4.40506e-11
1.89414e-10
4.29416e-11
1.71712e-10
4.17018e-11
1.54588e-10
4.0328e-11
1.38099e-10
3.88175e-11
1.223e-10
3.71679e-11
1.0725e-10
3.53771e-11
9.30048e-11
3.34443e-11
7.96217e-11
3.13706e-11
6.71553e-11
2.91583e-11
5.56586e-11
2.68112e-11
4.51807e-11
2.43349e-11
3.57663e-11
2.17393e-11
2.74544e-11
1.90391e-11
2.02731e-11
1.62561e-11
1.4237e-11
1.34204e-11
9.34489e-12
1.05738e-11
5.57121e-12
7.77657e-12
2.86026e-12
5.11517e-12
1.1163e-12
2.71281e-12
1.90838e-13
7.42353e-13
-1.28143e-13
-5.57985e-13
-1.09743e-13
-9.54249e-13
-5.96976e-13
5.66301e-13
-7.81183e-12
2.52679e-12
-1.12861e-11
5.94693e-12
-1.06853e-11
1.09251e-11
-1.29453e-11
1.7491e-11
-1.70913e-11
2.556e-11
-2.17577e-11
3.49935e-11
-2.62781e-11
4.56745e-11
-3.03911e-11
5.74819e-11
-3.40255e-11
7.03083e-11
-3.72291e-11
8.40949e-11
-4.0097e-11
9.87845e-11
-4.27186e-11
1.14332e-10
-4.51682e-11
1.30722e-10
-4.74979e-11
1.47914e-10
-4.97339e-11
1.65891e-10
-5.18942e-11
1.84619e-10
-5.39778e-11
2.04072e-10
-5.59852e-11
2.2421e-10
-5.78995e-11
2.44998e-10
-5.97183e-11
2.66394e-10
-6.14248e-11
2.88355e-10
-6.30184e-11
3.10832e-10
-6.44847e-11
3.33783e-10
-6.58214e-11
3.57151e-10
-6.70261e-11
3.80894e-10
-6.80893e-11
4.04964e-10
-6.90139e-11
4.29305e-10
-6.98016e-11
4.53877e-10
-7.04498e-11
4.78629e-10
-7.09602e-11
5.03514e-10
-7.13389e-11
5.28487e-10
-7.15851e-11
5.53506e-10
-7.17019e-11
5.78521e-10
-7.16979e-11
6.03496e-10
-7.15717e-11
6.28389e-10
-7.13256e-11
6.53161e-10
-7.09734e-11
6.77772e-10
-7.05077e-11
7.02194e-10
-6.99424e-11
7.26383e-10
-6.92749e-11
7.5031e-10
-6.85172e-11
7.73946e-10
-6.76618e-11
7.97255e-10
-6.67247e-11
8.20211e-10
-6.57046e-11
8.42788e-10
-6.46028e-11
8.64959e-10
-6.34291e-11
8.86697e-10
-6.2185e-11
9.07983e-10
-6.08748e-11
9.28794e-10
-5.95025e-11
9.49106e-10
-5.80727e-11
9.689e-10
-5.6588e-11
9.88161e-10
-5.50483e-11
1.00687e-09
-5.34587e-11
1.025e-09
-5.18229e-11
1.04256e-09
-5.01429e-11
1.05951e-09
-4.84202e-11
1.07585e-09
-4.66588e-11
1.09156e-09
-4.48601e-11
1.10664e-09
-4.30254e-11
1.12107e-09
-4.11587e-11
1.13483e-09
-3.92627e-11
1.14793e-09
-3.73379e-11
1.16034e-09
-3.53858e-11
1.17207e-09
-3.3409e-11
1.1831e-09
-3.14097e-11
1.19343e-09
-2.93892e-11
1.20305e-09
-2.7351e-11
1.21195e-09
-2.52972e-11
1.22013e-09
-2.32263e-11
1.22758e-09
-2.11384e-11
1.2343e-09
-1.90372e-11
1.24029e-09
-1.69246e-11
1.24553e-09
-1.48018e-11
1.25004e-09
-1.26711e-11
1.2538e-09
-1.05345e-11
1.25681e-09
-8.39199e-12
1.25907e-09
-6.24283e-12
1.26058e-09
-4.08752e-12
1.26134e-09
-1.92953e-12
1.26134e-09
2.3017e-13
1.26059e-09
2.39193e-12
1.25909e-09
4.55443e-12
1.25683e-09
6.7151e-12
1.25382e-09
8.8739e-12
1.25006e-09
1.10311e-11
1.24555e-09
1.31847e-11
1.24029e-09
1.53317e-11
1.23428e-09
1.74712e-11
1.22753e-09
1.96036e-11
1.22004e-09
2.17288e-11
1.21181e-09
2.38433e-11
1.20285e-09
2.59446e-11
1.19317e-09
2.80326e-11
1.18276e-09
3.01065e-11
1.17164e-09
3.21636e-11
1.1598e-09
3.4201e-11
1.14727e-09
3.62176e-11
1.13404e-09
3.82127e-11
1.12012e-09
4.01838e-11
1.10553e-09
4.21274e-11
1.09027e-09
4.4042e-11
1.07436e-09
4.59277e-11
1.0578e-09
4.77831e-11
1.0406e-09
4.96044e-11
1.02279e-09
5.13878e-11
1.00437e-09
5.3131e-11
9.85362e-10
5.48321e-11
9.65777e-10
5.64881e-11
9.45634e-10
5.80954e-11
9.2495e-10
5.9651e-11
9.03746e-10
6.11534e-11
8.8204e-10
6.26002e-11
8.59854e-10
6.39869e-11
8.3721e-10
6.53089e-11
8.14133e-10
6.65627e-11
7.90648e-10
6.77454e-11
7.66783e-10
6.88528e-11
7.42564e-10
6.98798e-11
7.18022e-10
7.08213e-11
6.93187e-10
7.16733e-11
6.68094e-10
7.24324e-11
6.42775e-10
7.30926e-11
6.17268e-10
7.36476e-11
5.91611e-10
7.4092e-11
5.65843e-10
7.44216e-11
5.40007e-10
7.46318e-11
5.14145e-10
7.47168e-11
4.88303e-10
7.46699e-11
4.62529e-10
7.44849e-11
4.36873e-10
7.41566e-11
4.11386e-10
7.36794e-11
3.8612e-10
7.3047e-11
3.6113e-10
7.22529e-11
3.36474e-10
7.12913e-11
3.12211e-10
7.0157e-11
2.88401e-10
6.88444e-11
2.65105e-10
6.73472e-11
2.42388e-10
6.56591e-11
2.20315e-10
6.37748e-11
1.98953e-10
6.16904e-11
1.78369e-10
5.9402e-11
1.58631e-10
5.69062e-11
1.39808e-10
5.4201e-11
1.21966e-10
5.12864e-11
1.05173e-10
4.81647e-11
8.9492e-11
4.48403e-11
7.49842e-11
4.13197e-11
6.17062e-11
3.76132e-11
4.97087e-11
3.3737e-11
3.90341e-11
2.97147e-11
2.97128e-11
2.5579e-11
2.17593e-11
2.13747e-11
1.51702e-11
1.71634e-11
9.91704e-12
1.30302e-11
5.93955e-12
9.0933e-12
3.13881e-12
5.51471e-12
1.36732e-12
2.51487e-12
4.19799e-13
3.89923e-13
4.0062e-14
-5.74197e-13
-5.5653e-13
1.92829e-13
-8.00636e-12
1.87737e-12
-1.29725e-11
5.47557e-12
-1.42852e-11
1.09883e-11
-1.84558e-11
1.83583e-11
-2.44664e-11
2.75276e-11
-3.09236e-11
3.83802e-11
-3.71292e-11
5.07816e-11
-4.27861e-11
6.45967e-11
-4.78451e-11
7.9732e-11
-5.23635e-11
9.60837e-11
-5.64469e-11
1.13573e-10
-6.02113e-11
1.32153e-10
-6.37474e-11
1.51766e-10
-6.71117e-11
1.72373e-10
-7.03392e-11
1.93926e-10
-7.34476e-11
2.16387e-10
-7.64385e-11
2.39708e-10
-7.93058e-11
2.63848e-10
-8.20425e-11
2.88754e-10
-8.4625e-11
3.1438e-10
-8.70495e-11
3.40664e-10
-8.93038e-11
3.67559e-10
-9.13785e-11
3.95006e-10
-9.32687e-11
4.22944e-10
-9.49634e-11
4.51319e-10
-9.6463e-11
4.80072e-10
-9.77676e-11
5.09141e-10
-9.88737e-11
5.38482e-10
-9.97879e-11
5.68026e-10
-1.00507e-10
5.97727e-10
-1.0104e-10
6.27528e-10
-1.01384e-10
6.57378e-10
-1.01553e-10
6.87222e-10
-1.01544e-10
7.17019e-10
-1.01365e-10
7.46713e-10
-1.01023e-10
7.7626e-10
-1.00521e-10
8.0562e-10
-9.98677e-11
8.34746e-10
-9.90681e-11
8.63601e-10
-9.81311e-11
8.92141e-10
-9.70568e-11
9.20335e-10
-9.58544e-11
9.48139e-10
-9.45309e-11
9.75527e-10
-9.30889e-11
1.00246e-09
-9.1537e-11
1.02891e-09
-8.98805e-11
1.05485e-09
-8.81256e-11
1.08025e-09
-8.62739e-11
1.10509e-09
-8.43361e-11
1.12933e-09
-8.23162e-11
1.15296e-09
-8.02152e-11
1.17595e-09
-7.80395e-11
1.19828e-09
-7.57934e-11
1.21993e-09
-7.34786e-11
1.2409e-09
-7.1101e-11
1.26114e-09
-6.86657e-11
1.28066e-09
-6.61743e-11
1.29943e-09
-6.36297e-11
1.31744e-09
-6.10363e-11
1.33468e-09
-5.83976e-11
1.35113e-09
-5.57155e-11
1.36679e-09
-5.2992e-11
1.38163e-09
-5.02311e-11
1.39566e-09
-4.74351e-11
1.40885e-09
-4.46061e-11
1.42121e-09
-4.1748e-11
1.43273e-09
-3.88645e-11
1.44339e-09
-3.59571e-11
1.45319e-09
-3.30261e-11
1.46212e-09
-3.00735e-11
1.47019e-09
-2.71027e-11
1.47737e-09
-2.41145e-11
1.48368e-09
-2.11106e-11
1.48911e-09
-1.80952e-11
1.49364e-09
-1.50704e-11
1.49729e-09
-1.20355e-11
1.50004e-09
-8.99237e-12
1.5019e-09
-5.94354e-12
1.50285e-09
-2.89065e-12
1.50292e-09
1.66271e-13
1.50208e-09
3.22673e-12
1.50035e-09
6.28793e-12
1.49772e-09
9.3466e-12
1.49419e-09
1.24029e-11
1.48976e-09
1.54557e-11
1.48445e-09
1.8502e-11
1.47824e-09
2.1539e-11
1.47114e-09
2.45671e-11
1.46316e-09
2.75856e-11
1.4543e-09
3.05914e-11
1.44456e-09
3.35814e-11
1.43395e-09
3.65537e-11
1.42247e-09
3.95075e-11
1.41014e-09
4.24405e-11
1.39695e-09
4.53487e-11
1.38292e-09
4.82298e-11
1.36806e-09
5.10821e-11
1.35237e-09
5.39034e-11
1.33586e-09
5.66896e-11
1.31855e-09
5.94372e-11
1.30045e-09
6.2145e-11
1.28156e-09
6.4812e-11
1.26191e-09
6.74346e-11
1.24151e-09
7.00076e-11
1.22037e-09
7.25272e-11
1.19851e-09
7.49907e-11
1.17594e-09
7.73941e-11
1.1527e-09
7.97326e-11
1.12879e-09
8.20018e-11
1.10424e-09
8.41988e-11
1.07908e-09
8.63204e-11
1.05331e-09
8.8362e-11
1.02698e-09
9.03173e-11
1.00011e-09
9.21803e-11
9.72727e-10
9.39471e-11
9.44859e-10
9.5613e-11
9.16541e-10
9.71711e-11
8.87806e-10
9.86145e-11
8.58689e-10
9.99377e-11
8.29228e-10
1.01135e-10
7.99461e-10
1.022e-10
7.69429e-10
1.03124e-10
7.39176e-10
1.039e-10
7.08747e-10
1.0452e-10
6.78189e-10
1.04979e-10
6.47552e-10
1.05269e-10
6.16887e-10
1.05382e-10
5.86247e-10
1.05309e-10
5.5569e-10
1.05042e-10
5.25272e-10
1.04574e-10
4.95055e-10
1.03897e-10
4.651e-10
1.03002e-10
4.35472e-10
1.01881e-10
4.06238e-10
1.00525e-10
3.77465e-10
9.89297e-11
3.49225e-10
9.70854e-11
3.21588e-10
9.49841e-11
2.94629e-10
9.2618e-11
2.68424e-10
8.99807e-11
2.43048e-10
8.70667e-11
2.18579e-10
8.38713e-11
1.95095e-10
8.03907e-11
1.72672e-10
7.66236e-11
1.51387e-10
7.25713e-11
1.31315e-10
6.82377e-11
1.12527e-10
6.36295e-11
9.50893e-11
5.87572e-11
7.90663e-11
5.36365e-11
6.45125e-11
4.82911e-11
5.14733e-11
4.27546e-11
3.99816e-11
3.70719e-11
3.00531e-11
3.13036e-11
2.16848e-11
2.55316e-11
1.48491e-11
1.98663e-11
9.48724e-12
1.44559e-11
5.50495e-12
9.49801e-12
2.7652e-12
5.25562e-12
1.08082e-12
2.07474e-12
2.2278e-13
2.8413e-13
-3.33376e-13
3.36579e-14
-8.03992e-12
1.68028e-12
-1.46148e-11
5.52709e-12
-1.81284e-11
1.15226e-11
-2.44527e-11
1.96176e-11
-3.25655e-11
2.97536e-11
-4.1056e-11
4.18349e-11
-4.92137e-11
5.57603e-11
-5.67149e-11
7.14132e-11
-6.34951e-11
8.86602e-11
-6.9614e-11
1.07407e-10
-7.51914e-11
1.27553e-10
-8.03566e-11
1.49008e-10
-8.5205e-11
1.7171e-10
-8.98114e-11
1.95586e-10
-9.42184e-11
2.20578e-10
-9.84406e-11
2.46632e-10
-1.02491e-10
2.73678e-10
-1.06354e-10
3.01663e-10
-1.10027e-10
3.30527e-10
-1.13489e-10
3.60206e-10
-1.16731e-10
3.90638e-10
-1.19735e-10
4.2176e-10
-1.22498e-10
4.535e-10
-1.25011e-10
4.858e-10
-1.27263e-10
5.18592e-10
-1.29255e-10
5.51806e-10
-1.30983e-10
5.85383e-10
-1.32448e-10
6.19253e-10
-1.33657e-10
6.53357e-10
-1.34611e-10
6.87631e-10
-1.35312e-10
7.22016e-10
-1.3577e-10
7.56449e-10
-1.35986e-10
7.90877e-10
-1.35969e-10
8.2524e-10
-1.35728e-10
8.59486e-10
-1.35269e-10
8.93561e-10
-1.34595e-10
9.27417e-10
-1.33723e-10
9.61001e-10
-1.32654e-10
9.94272e-10
-1.31402e-10
1.02718e-09
-1.29965e-10
1.05969e-09
-1.28363e-10
1.09175e-09
-1.26594e-10
1.12333e-09
-1.24668e-10
1.15439e-09
-1.22597e-10
1.1849e-09
-1.20384e-10
1.21481e-09
-1.18039e-10
1.24411e-09
-1.15569e-10
1.27275e-09
-1.1298e-10
1.30072e-09
-1.10279e-10
1.32797e-09
-1.07471e-10
1.3545e-09
-1.04563e-10
1.38026e-09
-1.0156e-10
1.40525e-09
-9.84665e-11
1.42944e-09
-9.52887e-11
1.4528e-09
-9.20321e-11
1.47533e-09
-8.86998e-11
1.497e-09
-8.52974e-11
1.51779e-09
-8.18303e-11
1.5377e-09
-7.83016e-11
1.5567e-09
-7.4714e-11
1.57478e-09
-7.10723e-11
1.59193e-09
-6.73801e-11
1.60813e-09
-6.36401e-11
1.62338e-09
-5.98571e-11
1.63767e-09
-5.60361e-11
1.65098e-09
-5.21794e-11
1.66331e-09
-4.82887e-11
1.67466e-09
-4.43671e-11
1.685e-09
-4.04182e-11
1.69435e-09
-3.64441e-11
1.70268e-09
-3.2447e-11
1.71e-09
-2.84296e-11
1.7163e-09
-2.4396e-11
1.72157e-09
-2.03476e-11
1.72582e-09
-1.62856e-11
1.72905e-09
-1.22134e-11
1.73124e-09
-8.13468e-12
1.7324e-09
-4.04951e-12
1.73252e-09
4.14673e-14
1.73161e-09
4.1359e-12
1.72967e-09
8.23079e-12
1.72669e-09
1.23243e-11
1.72268e-09
1.64145e-11
1.71764e-09
2.04983e-11
1.71157e-09
2.45722e-11
1.70447e-09
2.8635e-11
1.69635e-09
3.26861e-11
1.68721e-09
3.67235e-11
1.67706e-09
4.07427e-11
1.6659e-09
4.47404e-11
1.65374e-09
4.87153e-11
1.64058e-09
5.26651e-11
1.62644e-09
5.65856e-11
1.61131e-09
6.0473e-11
1.59521e-09
6.4325e-11
1.57816e-09
6.81389e-11
1.56015e-09
7.19098e-11
1.54121e-09
7.5633e-11
1.52134e-09
7.93059e-11
1.50056e-09
8.29266e-11
1.47888e-09
8.64915e-11
1.45632e-09
8.99953e-11
1.43289e-09
9.34325e-11
1.40862e-09
9.67987e-11
1.38352e-09
1.0009e-10
1.35762e-09
1.03299e-10
1.33093e-09
1.06421e-10
1.30348e-09
1.09451e-10
1.27529e-09
1.12385e-10
1.24639e-09
1.15217e-10
1.21682e-09
1.1794e-10
1.18659e-09
1.20547e-10
1.15574e-09
1.23031e-10
1.1243e-09
1.25386e-10
1.09231e-09
1.27604e-10
1.0598e-09
1.29678e-10
1.02681e-09
1.31598e-10
9.93394e-10
1.33358e-10
9.59579e-10
1.3495e-10
9.25416e-10
1.36363e-10
8.90951e-10
1.37589e-10
8.56233e-10
1.38617e-10
8.21316e-10
1.39438e-10
7.86251e-10
1.40044e-10
7.51097e-10
1.40424e-10
7.15912e-10
1.40567e-10
6.80757e-10
1.40463e-10
6.45697e-10
1.40103e-10
6.10797e-10
1.39475e-10
5.76125e-10
1.38569e-10
5.41753e-10
1.37374e-10
5.07753e-10
1.35881e-10
4.742e-10
1.34079e-10
4.41171e-10
1.31959e-10
4.08745e-10
1.29512e-10
3.77003e-10
1.26726e-10
3.46028e-10
1.23593e-10
3.15904e-10
1.20106e-10
2.86715e-10
1.16256e-10
2.58547e-10
1.1204e-10
2.31486e-10
1.07452e-10
2.05617e-10
1.02493e-10
1.81023e-10
9.71653e-11
1.57786e-10
9.14754e-11
1.35983e-10
8.54327e-11
1.15688e-10
7.90521e-11
9.6969e-11
7.2356e-11
7.98845e-11
6.53764e-11
6.4483e-11
5.81568e-11
5.08005e-11
5.07551e-11
3.88563e-11
4.3248e-11
2.86504e-11
3.57375e-11
2.01595e-11
2.83577e-11
1.33317e-11
2.12843e-11
8.08334e-12
1.47466e-11
4.29506e-12
9.04426e-12
1.80574e-12
4.56456e-12
4.2231e-13
1.66808e-12
8.94424e-14
6.4304e-14
-8.10522e-12
1.86379e-12
-1.64227e-11
6.06838e-12
-2.23373e-11
1.26188e-11
-3.09995e-11
2.14295e-11
-4.13776e-11
3.2487e-11
-5.21152e-11
4.57313e-11
-6.2456e-11
6.10754e-11
-7.20562e-11
7.84139e-11
-8.08326e-11
9.76319e-11
-8.88365e-11
1.18619e-10
-9.61779e-11
1.41249e-10
-1.02988e-10
1.65428e-10
-1.09385e-10
1.91059e-10
-1.15442e-10
2.1805e-10
-1.21211e-10
2.46329e-10
-1.26717e-10
2.75806e-10
-1.31969e-10
3.06417e-10
-1.36964e-10
3.38083e-10
-1.41691e-10
3.70732e-10
-1.46138e-10
4.04289e-10
-1.50286e-10
4.38681e-10
-1.54129e-10
4.73834e-10
-1.57653e-10
5.09677e-10
-1.60851e-10
5.46131e-10
-1.63718e-10
5.83127e-10
-1.66251e-10
6.20589e-10
-1.68443e-10
6.58447e-10
-1.70307e-10
6.96622e-10
-1.71836e-10
7.35056e-10
-1.73042e-10
7.7367e-10
-1.73927e-10
8.124e-10
-1.74501e-10
8.51182e-10
-1.74767e-10
8.89949e-10
-1.74736e-10
9.28638e-10
-1.7442e-10
9.67193e-10
-1.73821e-10
1.00555e-09
-1.72956e-10
1.04366e-09
-1.71832e-10
1.08147e-09
-1.7046e-10
1.11891e-09
-1.68847e-10
1.15596e-09
-1.67009e-10
1.19254e-09
-1.64949e-10
1.22863e-09
-1.6268e-10
1.26418e-09
-1.60214e-10
1.29914e-09
-1.57557e-10
1.33347e-09
-1.54721e-10
1.36715e-09
-1.51713e-10
1.40012e-09
-1.48546e-10
1.43237e-09
-1.45226e-10
1.46385e-09
-1.4176e-10
1.49454e-09
-1.38158e-10
1.5244e-09
-1.34427e-10
1.55341e-09
-1.30573e-10
1.58155e-09
-1.26604e-10
1.60879e-09
-1.22528e-10
1.63511e-09
-1.18349e-10
1.66048e-09
-1.14072e-10
1.68489e-09
-1.09707e-10
1.70832e-09
-1.05257e-10
1.73074e-09
-1.00727e-10
1.75215e-09
-9.61223e-11
1.77253e-09
-9.1448e-11
1.79185e-09
-8.67084e-11
1.81012e-09
-8.19078e-11
1.82732e-09
-7.7053e-11
1.84343e-09
-7.21491e-11
1.85845e-09
-6.7198e-11
1.87237e-09
-6.22032e-11
1.88517e-09
-5.71693e-11
1.89685e-09
-5.20997e-11
1.9074e-09
-4.69967e-11
1.91682e-09
-4.18647e-11
1.9251e-09
-3.67079e-11
1.93223e-09
-3.15288e-11
1.93821e-09
-2.63296e-11
1.94304e-09
-2.11138e-11
1.94671e-09
-1.58857e-11
1.94923e-09
-1.06481e-11
1.95058e-09
-5.40119e-12
1.95077e-09
-1.47444e-13
1.9498e-09
5.10939e-12
1.94766e-09
1.03669e-11
1.94436e-09
1.56234e-11
1.9399e-09
2.08751e-11
1.93428e-09
2.61174e-11
1.9275e-09
3.1347e-11
1.91957e-09
3.65634e-11
1.9105e-09
4.17645e-11
1.90027e-09