/*--------------------------------*- C++ -*----------------------------------*\
  =========                 |
  \\      /  F ield         | OpenFOAM: The Open Source CFD Toolbox
   \\    /   O peration     | Website:  https://openfoam.org
    \\  /    A nd           | Version:  7
     \\/     M anipulation  |
\*---------------------------------------------------------------------------*/
FoamFile
{
    version     2.0;
    format      ascii;
    class       volVectorField;
    location    "0.1875";
    object      U;
}
// * * * * * * * * * * * * * * * * * * * * * * * * * * * * * * * * * * * * * //

dimensions      [0 1 -1 0 0 0 0];

internalField   nonuniform List<vector> 
51200
(
(1.79918e-07 -1.5246e-07 0)
(4.17407e-07 -6.96975e-08 0)
(5.6277e-07 1.00558e-07 0)
(4.77037e-07 1.67908e-07 0)
(3.92147e-07 1.61672e-07 0)
(3.40499e-07 1.2314e-07 0)
(3.78577e-07 7.13998e-08 0)
(4.93895e-07 2.23023e-08 0)
(6.81954e-07 -1.88258e-08 0)
(9.25117e-07 -5.09608e-08 0)
(1.21142e-06 -7.58111e-08 0)
(1.5291e-06 -9.26814e-08 0)
(1.8716e-06 -1.06633e-07 0)
(2.23236e-06 -1.15263e-07 0)
(2.60867e-06 -1.22785e-07 0)
(2.9985e-06 -1.26835e-07 0)
(3.39874e-06 -1.30101e-07 0)
(3.81054e-06 -1.33193e-07 0)
(4.23324e-06 -1.35241e-07 0)
(4.66516e-06 -1.37896e-07 0)
(5.107e-06 -1.39904e-07 0)
(5.55774e-06 -1.40826e-07 0)
(6.01628e-06 -1.42712e-07 0)
(6.48363e-06 -1.44113e-07 0)
(6.95838e-06 -1.45613e-07 0)
(7.43884e-06 -1.47255e-07 0)
(7.92589e-06 -1.47944e-07 0)
(8.41791e-06 -1.48461e-07 0)
(8.91272e-06 -1.49011e-07 0)
(9.41177e-06 -1.48799e-07 0)
(9.91278e-06 -1.4896e-07 0)
(1.04144e-05 -1.49108e-07 0)
(1.09178e-05 -1.48457e-07 0)
(1.14206e-05 -1.47895e-07 0)
(1.19217e-05 -1.47486e-07 0)
(1.2422e-05 -1.46514e-07 0)
(1.29193e-05 -1.44933e-07 0)
(1.34125e-05 -1.4433e-07 0)
(1.39023e-05 -1.4247e-07 0)
(1.43878e-05 -1.40551e-07 0)
(1.48664e-05 -1.39087e-07 0)
(1.534e-05 -1.37108e-07 0)
(1.58076e-05 -1.34686e-07 0)
(1.62663e-05 -1.32461e-07 0)
(1.67184e-05 -1.30542e-07 0)
(1.71625e-05 -1.27394e-07 0)
(1.7597e-05 -1.24605e-07 0)
(1.80225e-05 -1.22258e-07 0)
(1.84389e-05 -1.1883e-07 0)
(1.88452e-05 -1.15389e-07 0)
(1.92409e-05 -1.12811e-07 0)
(1.96263e-05 -1.09622e-07 0)
(2.00009e-05 -1.05777e-07 0)
(2.03637e-05 -1.02629e-07 0)
(2.0715e-05 -9.99198e-08 0)
(2.10553e-05 -9.65794e-08 0)
(2.13833e-05 -9.31189e-08 0)
(2.16982e-05 -8.99137e-08 0)
(2.20007e-05 -8.62233e-08 0)
(2.22905e-05 -8.19431e-08 0)
(2.25666e-05 -7.79408e-08 0)
(2.28292e-05 -7.42321e-08 0)
(2.30787e-05 -6.99459e-08 0)
(2.33142e-05 -6.52394e-08 0)
(2.35354e-05 -6.10532e-08 0)
(2.37426e-05 -5.75459e-08 0)
(2.39363e-05 -5.42844e-08 0)
(2.41159e-05 -5.09317e-08 0)
(2.4281e-05 -4.72365e-08 0)
(2.44316e-05 -4.26225e-08 0)
(2.45675e-05 -3.7015e-08 0)
(2.4688e-05 -3.15075e-08 0)
(2.47934e-05 -2.72634e-08 0)
(2.48841e-05 -2.40705e-08 0)
(2.49605e-05 -2.08377e-08 0)
(2.50222e-05 -1.69508e-08 0)
(2.5069e-05 -1.24775e-08 0)
(2.51008e-05 -7.60304e-09 0)
(2.51175e-05 -2.65525e-09 0)
(2.51189e-05 1.86572e-09 0)
(2.51053e-05 5.73753e-09 0)
(2.50767e-05 9.42444e-09 0)
(2.50334e-05 1.35221e-08 0)
(2.49752e-05 1.80604e-08 0)
(2.49018e-05 2.25044e-08 0)
(2.48134e-05 2.67193e-08 0)
(2.47101e-05 3.09505e-08 0)
(2.4592e-05 3.52653e-08 0)
(2.44591e-05 3.94019e-08 0)
(2.43113e-05 4.3388e-08 0)
(2.41488e-05 4.75045e-08 0)
(2.39717e-05 5.18428e-08 0)
(2.378e-05 5.61255e-08 0)
(2.35738e-05 6.01146e-08 0)
(2.33532e-05 6.40047e-08 0)
(2.31185e-05 6.80387e-08 0)
(2.28697e-05 7.21358e-08 0)
(2.26069e-05 7.6066e-08 0)
(2.23302e-05 7.98199e-08 0)
(2.204e-05 8.36439e-08 0)
(2.17364e-05 8.75753e-08 0)
(2.14196e-05 9.1357e-08 0)
(2.10897e-05 9.49013e-08 0)
(2.07469e-05 9.84029e-08 0)
(2.03917e-05 1.01991e-07 0)
(2.00243e-05 1.05556e-07 0)
(1.96447e-05 1.08916e-07 0)
(1.92533e-05 1.12075e-07 0)
(1.88506e-05 1.15221e-07 0)
(1.84368e-05 1.18413e-07 0)
(1.80123e-05 1.21471e-07 0)
(1.75775e-05 1.2426e-07 0)
(1.71326e-05 1.26891e-07 0)
(1.66784e-05 1.29515e-07 0)
(1.62151e-05 1.3211e-07 0)
(1.57431e-05 1.34541e-07 0)
(1.52629e-05 1.36738e-07 0)
(1.4775e-05 1.38791e-07 0)
(1.42801e-05 1.40814e-07 0)
(1.37787e-05 1.4272e-07 0)
(1.32713e-05 1.44315e-07 0)
(1.27586e-05 1.45617e-07 0)
(1.22415e-05 1.4679e-07 0)
(1.17207e-05 1.47857e-07 0)
(1.11969e-05 1.48716e-07 0)
(1.06709e-05 1.49273e-07 0)
(1.01434e-05 1.49501e-07 0)
(9.61568e-06 1.4951e-07 0)
(9.08845e-06 1.49372e-07 0)
(8.56273e-06 1.48952e-07 0)
(8.0395e-06 1.48127e-07 0)
(7.51985e-06 1.46912e-07 0)
(7.00504e-06 1.45375e-07 0)
(6.49627e-06 1.43574e-07 0)
(5.99469e-06 1.41444e-07 0)
(5.50161e-06 1.38851e-07 0)
(5.01845e-06 1.35789e-07 0)
(4.54661e-06 1.32306e-07 0)
(4.08761e-06 1.28399e-07 0)
(3.64296e-06 1.24033e-07 0)
(3.21414e-06 1.19147e-07 0)
(2.8029e-06 1.13714e-07 0)
(2.41099e-06 1.07771e-07 0)
(2.04007e-06 1.0134e-07 0)
(1.69182e-06 9.43482e-08 0)
(1.36806e-06 8.67256e-08 0)
(1.07061e-06 7.84869e-08 0)
(8.01277e-07 6.96518e-08 0)
(5.61864e-07 6.0249e-08 0)
(3.54046e-07 5.02853e-08 0)
(1.79364e-07 3.97178e-08 0)
(3.92549e-08 2.85573e-08 0)
(-6.51597e-08 1.69451e-08 0)
(-1.33279e-07 5.11267e-09 0)
(-1.65396e-07 -6.57058e-09 0)
(-1.63425e-07 -1.73114e-08 0)
(-1.32091e-07 -2.55499e-08 0)
(-8.10264e-08 -2.81672e-08 0)
(-3.18213e-08 -2.02925e-08 0)
(-3.85487e-09 -5.12443e-09 0)
(2.04245e-07 -4.70847e-07 0)
(6.48709e-07 -4.38269e-07 0)
(9.47704e-07 -5.7062e-08 0)
(1.15238e-06 8.87114e-08 0)
(1.33752e-06 5.14217e-08 0)
(1.64266e-06 -6.62827e-08 0)
(2.0466e-06 -2.03642e-07 0)
(2.57933e-06 -3.33601e-07 0)
(3.21099e-06 -4.42626e-07 0)
(3.93369e-06 -5.28762e-07 0)
(4.7296e-06 -5.95389e-07 0)
(5.58773e-06 -6.4762e-07 0)
(6.49909e-06 -6.87639e-07 0)
(7.46001e-06 -7.21625e-07 0)
(8.46424e-06 -7.49623e-07 0)
(9.50929e-06 -7.74728e-07 0)
(1.05955e-05 -7.98243e-07 0)
(1.17192e-05 -8.20191e-07 0)
(1.28798e-05 -8.40991e-07 0)
(1.40759e-05 -8.61982e-07 0)
(1.53052e-05 -8.79925e-07 0)
(1.65654e-05 -8.99093e-07 0)
(1.78559e-05 -9.15678e-07 0)
(1.91735e-05 -9.31132e-07 0)
(2.05149e-05 -9.45996e-07 0)
(2.18801e-05 -9.58458e-07 0)
(2.32637e-05 -9.69318e-07 0)
(2.46629e-05 -9.78912e-07 0)
(2.60778e-05 -9.85809e-07 0)
(2.75031e-05 -9.90836e-07 0)
(2.89364e-05 -9.95311e-07 0)
(3.03764e-05 -9.9732e-07 0)
(3.18187e-05 -9.97394e-07 0)
(3.32619e-05 -9.97287e-07 0)
(3.47037e-05 -9.94081e-07 0)
(3.61413e-05 -9.89328e-07 0)
(3.75718e-05 -9.84369e-07 0)
(3.89942e-05 -9.76363e-07 0)
(4.04063e-05 -9.67941e-07 0)
(4.18038e-05 -9.57637e-07 0)
(4.31881e-05 -9.47241e-07 0)
(4.45556e-05 -9.33557e-07 0)
(4.59039e-05 -9.20686e-07 0)
(4.72329e-05 -9.06091e-07 0)
(4.854e-05 -8.89819e-07 0)
(4.98239e-05 -8.73173e-07 0)
(5.10828e-05 -8.55785e-07 0)
(5.23157e-05 -8.36984e-07 0)
(5.35218e-05 -8.17358e-07 0)
(5.4699e-05 -7.97609e-07 0)
(5.5847e-05 -7.77122e-07 0)
(5.69646e-05 -7.55331e-07 0)
(5.80503e-05 -7.33066e-07 0)
(5.91035e-05 -7.10694e-07 0)
(6.01235e-05 -6.87348e-07 0)
(6.11091e-05 -6.63318e-07 0)
(6.20595e-05 -6.3928e-07 0)
(6.29743e-05 -6.14601e-07 0)
(6.38522e-05 -5.88597e-07 0)
(6.46925e-05 -5.62221e-07 0)
(6.54949e-05 -5.35989e-07 0)
(6.6259e-05 -5.09368e-07 0)
(6.69839e-05 -4.82037e-07 0)
(6.7669e-05 -4.54352e-07 0)
(6.83139e-05 -4.26511e-07 0)
(6.89183e-05 -3.98386e-07 0)
(6.9482e-05 -3.7034e-07 0)
(7.00048e-05 -3.4277e-07 0)
(7.04861e-05 -3.14873e-07 0)
(7.09253e-05 -2.8575e-07 0)
(7.13218e-05 -2.55386e-07 0)
(7.16757e-05 -2.24736e-07 0)
(7.19868e-05 -1.94828e-07 0)
(7.22551e-05 -1.65798e-07 0)
(7.24809e-05 -1.37316e-07 0)
(7.26639e-05 -1.08701e-07 0)
(7.28036e-05 -7.92975e-08 0)
(7.28996e-05 -4.88811e-08 0)
(7.29522e-05 -1.80034e-08 0)
(7.29615e-05 1.23854e-08 0)
(7.29272e-05 4.18778e-08 0)
(7.28493e-05 7.10952e-08 0)
(7.27283e-05 1.00612e-07 0)
(7.25639e-05 1.3048e-07 0)
(7.2356e-05 1.60366e-07 0)
(7.21043e-05 1.90246e-07 0)
(7.18094e-05 2.20095e-07 0)
(7.14717e-05 2.49811e-07 0)
(7.1091e-05 2.79084e-07 0)
(7.06672e-05 3.08134e-07 0)
(7.02007e-05 3.37362e-07 0)
(6.9692e-05 3.66692e-07 0)
(6.9141e-05 3.95703e-07 0)
(6.85479e-05 4.24235e-07 0)
(6.7913e-05 4.52596e-07 0)
(6.72371e-05 4.80902e-07 0)
(6.65205e-05 5.08882e-07 0)
(6.57632e-05 5.36385e-07 0)
(6.49657e-05 5.63551e-07 0)
(6.41289e-05 5.9056e-07 0)
(6.32535e-05 6.17274e-07 0)
(6.23396e-05 6.43356e-07 0)
(6.13878e-05 6.68833e-07 0)
(6.03988e-05 6.94038e-07 0)
(5.93737e-05 7.1899e-07 0)
(5.8313e-05 7.4333e-07 0)
(5.72173e-05 7.66864e-07 0)
(5.60874e-05 7.89772e-07 0)
(5.49246e-05 8.12212e-07 0)
(5.37301e-05 8.34035e-07 0)
(5.25046e-05 8.54983e-07 0)
(5.12489e-05 8.75003e-07 0)
(4.99645e-05 8.94277e-07 0)
(4.86528e-05 9.12898e-07 0)
(4.73149e-05 9.3065e-07 0)
(4.5952e-05 9.4731e-07 0)
(4.45654e-05 9.62933e-07 0)
(4.3157e-05 9.77626e-07 0)
(4.17285e-05 9.91282e-07 0)
(4.02816e-05 1.00365e-06 0)
(3.88178e-05 1.01457e-06 0)
(3.73391e-05 1.02408e-06 0)
(3.58478e-05 1.03229e-06 0)
(3.43461e-05 1.0391e-06 0)
(3.28363e-05 1.04422e-06 0)
(3.13204e-05 1.04753e-06 0)
(2.98011e-05 1.04911e-06 0)
(2.8281e-05 1.04901e-06 0)
(2.6763e-05 1.04707e-06 0)
(2.52498e-05 1.04303e-06 0)
(2.37444e-05 1.03671e-06 0)
(2.22496e-05 1.02819e-06 0)
(2.07692e-05 1.01746e-06 0)
(1.93066e-05 1.00433e-06 0)
(1.78652e-05 9.88638e-07 0)
(1.64485e-05 9.70244e-07 0)
(1.50604e-05 9.49068e-07 0)
(1.37051e-05 9.25111e-07 0)
(1.23865e-05 8.98211e-07 0)
(1.11091e-05 8.6814e-07 0)
(9.87695e-06 8.34835e-07 0)
(8.69454e-06 7.9831e-07 0)
(7.56658e-06 7.58525e-07 0)
(6.49789e-06 7.15348e-07 0)
(5.49312e-06 6.68643e-07 0)
(4.55679e-06 6.18365e-07 0)
(3.6935e-06 5.64603e-07 0)
(2.90792e-06 5.07482e-07 0)
(2.20447e-06 4.47049e-07 0)
(1.58718e-06 3.8345e-07 0)
(1.05954e-06 3.17033e-07 0)
(6.2434e-07 2.48334e-07 0)
(2.83316e-07 1.78262e-07 0)
(3.65117e-08 1.08315e-07 0)
(-1.18534e-07 4.08665e-08 0)
(-1.88301e-07 -1.99738e-08 0)
(-1.8522e-07 -6.71933e-08 0)
(-1.30406e-07 -8.91559e-08 0)
(-6.05e-08 -7.28566e-08 0)
(-1.23178e-08 -2.9402e-08 0)
(1.45067e-07 -8.41454e-07 0)
(4.94334e-07 -8.98111e-07 0)
(9.41757e-07 -4.00783e-07 0)
(1.3686e-06 -2.69906e-07 0)
(1.9532e-06 -4.04048e-07 0)
(2.645e-06 -6.41566e-07 0)
(3.49029e-06 -9.02136e-07 0)
(4.45103e-06 -1.14202e-06 0)
(5.53267e-06 -1.34887e-06 0)
(6.71083e-06 -1.52056e-06 0)
(7.97915e-06 -1.66217e-06 0)
(9.3307e-06 -1.78187e-06 0)
(1.07603e-05 -1.8846e-06 0)
(1.22626e-05 -1.97846e-06 0)
(1.38392e-05 -2.06232e-06 0)
(1.54857e-05 -2.14398e-06 0)
(1.71998e-05 -2.22019e-06 0)
(1.89821e-05 -2.29411e-06 0)
(2.08279e-05 -2.36619e-06 0)
(2.27361e-05 -2.43216e-06 0)
(2.47018e-05 -2.49735e-06 0)
(2.67216e-05 -2.55667e-06 0)
(2.87934e-05 -2.61169e-06 0)
(3.09106e-05 -2.66442e-06 0)
(3.30706e-05 -2.70938e-06 0)
(3.52682e-05 -2.75021e-06 0)
(3.74988e-05 -2.78663e-06 0)
(3.97586e-05 -2.81611e-06 0)
(4.20414e-05 -2.84046e-06 0)
(4.43439e-05 -2.86037e-06 0)
(4.66616e-05 -2.87361e-06 0)
(4.89892e-05 -2.88182e-06 0)
(5.13231e-05 -2.88677e-06 0)
(5.36594e-05 -2.88435e-06 0)
(5.59937e-05 -2.87867e-06 0)
(5.83211e-05 -2.86798e-06 0)
(6.06402e-05 -2.85245e-06 0)
(6.29453e-05 -2.83234e-06 0)
(6.52333e-05 -2.80894e-06 0)
(6.7502e-05 -2.78149e-06 0)
(6.97468e-05 -2.74879e-06 0)
(7.19655e-05 -2.71497e-06 0)
(7.41547e-05 -2.67572e-06 0)
(7.63124e-05 -2.63367e-06 0)
(7.84349e-05 -2.58875e-06 0)
(8.05202e-05 -2.54082e-06 0)
(8.25667e-05 -2.49016e-06 0)
(8.45708e-05 -2.43663e-06 0)
(8.65306e-05 -2.38119e-06 0)
(8.84454e-05 -2.32335e-06 0)
(9.03127e-05 -2.26323e-06 0)
(9.213e-05 -2.20147e-06 0)
(9.38964e-05 -2.13741e-06 0)
(9.56104e-05 -2.07129e-06 0)
(9.72699e-05 -2.00366e-06 0)
(9.88736e-05 -1.93439e-06 0)
(0.000100421 -1.86328e-06 0)
(0.00010191 -1.79074e-06 0)
(0.000103339 -1.71673e-06 0)
(0.000104708 -1.64117e-06 0)
(0.000106016 -1.56449e-06 0)
(0.000107261 -1.48702e-06 0)
(0.000108444 -1.40859e-06 0)
(0.000109562 -1.32898e-06 0)
(0.000110615 -1.24833e-06 0)
(0.000111602 -1.16685e-06 0)
(0.000112523 -1.08458e-06 0)
(0.000113377 -1.00197e-06 0)
(0.000114164 -9.19126e-07 0)
(0.000114883 -8.35447e-07 0)
(0.000115534 -7.5043e-07 0)
(0.000116116 -6.64462e-07 0)
(0.000116629 -5.7844e-07 0)
(0.000117072 -4.92646e-07 0)
(0.000117446 -4.07043e-07 0)
(0.00011775 -3.21624e-07 0)
(0.000117984 -2.35921e-07 0)
(0.000118148 -1.49254e-07 0)
(0.000118241 -6.17663e-08 0)
(0.000118265 2.56481e-08 0)
(0.000118217 1.12415e-07 0)
(0.000118098 1.98904e-07 0)
(0.00011791 2.85594e-07 0)
(0.000117651 3.7235e-07 0)
(0.000117321 4.58927e-07 0)
(0.000116921 5.45488e-07 0)
(0.000116451 6.32092e-07 0)
(0.000115911 7.18363e-07 0)
(0.000115301 8.03955e-07 0)
(0.000114621 8.89128e-07 0)
(0.000113873 9.74267e-07 0)
(0.000113055 1.05909e-06 0)
(0.000112169 1.14314e-06 0)
(0.000111215 1.22643e-06 0)
(0.000110194 1.30924e-06 0)
(0.000109105 1.39149e-06 0)
(0.000107951 1.47275e-06 0)
(0.000106731 1.55291e-06 0)
(0.000105445 1.63219e-06 0)
(0.000104097 1.71065e-06 0)
(0.000102685 1.78797e-06 0)
(0.000101211 1.86384e-06 0)
(9.96751e-05 1.93839e-06 0)
(9.80796e-05 2.01185e-06 0)
(9.64255e-05 2.08402e-06 0)
(9.47135e-05 2.1545e-06 0)
(9.29449e-05 2.2231e-06 0)
(9.11213e-05 2.28992e-06 0)
(8.92446e-05 2.35501e-06 0)
(8.73162e-05 2.41805e-06 0)
(8.53376e-05 2.47875e-06 0)
(8.33104e-05 2.53716e-06 0)
(8.12369e-05 2.59339e-06 0)
(7.91192e-05 2.64725e-06 0)
(7.69591e-05 2.69841e-06 0)
(7.47588e-05 2.74661e-06 0)
(7.25207e-05 2.79184e-06 0)
(7.02476e-05 2.83408e-06 0)
(6.79424e-05 2.87304e-06 0)
(6.56075e-05 2.90829e-06 0)
(6.32457e-05 2.93961e-06 0)
(6.08605e-05 2.967e-06 0)
(5.84553e-05 2.99033e-06 0)
(5.60337e-05 3.00923e-06 0)
(5.35991e-05 3.02337e-06 0)
(5.11552e-05 3.0326e-06 0)
(4.87063e-05 3.03681e-06 0)
(4.62567e-05 3.03579e-06 0)
(4.38108e-05 3.02923e-06 0)
(4.13731e-05 3.01671e-06 0)
(3.89482e-05 2.99797e-06 0)
(3.65412e-05 2.97288e-06 0)
(3.41577e-05 2.94122e-06 0)
(3.18031e-05 2.90257e-06 0)
(2.94828e-05 2.8566e-06 0)
(2.72026e-05 2.8031e-06 0)
(2.49686e-05 2.74188e-06 0)
(2.27871e-05 2.67262e-06 0)
(2.06647e-05 2.59494e-06 0)
(1.86078e-05 2.50854e-06 0)
(1.66232e-05 2.41321e-06 0)
(1.47179e-05 2.30884e-06 0)
(1.2899e-05 2.19528e-06 0)
(1.11737e-05 2.07238e-06 0)
(9.54907e-06 1.93999e-06 0)
(8.03199e-06 1.79814e-06 0)
(6.62939e-06 1.64704e-06 0)
(5.34804e-06 1.48698e-06 0)
(4.19422e-06 1.3184e-06 0)
(3.1735e-06 1.14207e-06 0)
(2.29049e-06 9.59218e-07 0)
(1.54858e-06 7.71669e-07 0)
(9.49481e-07 5.82105e-07 0)
(4.92263e-07 3.94673e-07 0)
(1.72207e-07 2.15813e-07 0)
(-2.0593e-08 5.54209e-08 0)
(-1.03115e-07 -7.13436e-08 0)
(-1.01506e-07 -1.42027e-07 0)
(-5.74231e-08 -1.33273e-07 0)
(-1.43053e-08 -6.34467e-08 0)
(6.91392e-08 -1.08122e-06 0)
(3.46064e-07 -1.30655e-06 0)
(7.64218e-07 -8.81908e-07 0)
(1.37236e-06 -8.83506e-07 0)
(2.15338e-06 -1.18438e-06 0)
(3.1365e-06 -1.58332e-06 0)
(4.29124e-06 -1.99025e-06 0)
(5.61645e-06 -2.36423e-06 0)
(7.07755e-06 -2.68835e-06 0)
(8.67355e-06 -2.96654e-06 0)
(1.03866e-05 -3.20761e-06 0)
(1.22118e-05 -3.42e-06 0)
(1.41433e-05 -3.61551e-06 0)
(1.61808e-05 -3.79431e-06 0)
(1.83178e-05 -3.96819e-06 0)
(2.05551e-05 -4.13168e-06 0)
(2.28894e-05 -4.29211e-06 0)
(2.53152e-05 -4.44614e-06 0)
(2.78324e-05 -4.59299e-06 0)
(3.04339e-05 -4.73329e-06 0)
(3.31167e-05 -4.86571e-06 0)
(3.58757e-05 -4.9886e-06 0)
(3.87021e-05 -5.10394e-06 0)
(4.15945e-05 -5.20783e-06 0)
(4.45437e-05 -5.30188e-06 0)
(4.75439e-05 -5.38587e-06 0)
(5.05906e-05 -5.45793e-06 0)
(5.3675e-05 -5.51955e-06 0)
(5.67922e-05 -5.57112e-06 0)
(5.99365e-05 -5.61018e-06 0)
(6.31016e-05 -5.63938e-06 0)
(6.62797e-05 -5.65884e-06 0)
(6.94674e-05 -5.66684e-06 0)
(7.26584e-05 -5.66615e-06 0)
(7.58452e-05 -5.65565e-06 0)
(7.90259e-05 -5.63589e-06 0)
(8.21927e-05 -5.6063e-06 0)
(8.53416e-05 -5.56994e-06 0)
(8.84682e-05 -5.52348e-06 0)
(9.15679e-05 -5.47062e-06 0)
(9.46357e-05 -5.4094e-06 0)
(9.76676e-05 -5.34192e-06 0)
(0.000100661 -5.26658e-06 0)
(0.00010361 -5.185e-06 0)
(0.000106512 -5.09771e-06 0)
(0.000109364 -5.00375e-06 0)
(0.000112162 -4.90467e-06 0)
(0.000114903 -4.80097e-06 0)
(0.000117585 -4.69183e-06 0)
(0.000120205 -4.57815e-06 0)
(0.000122759 -4.46062e-06 0)
(0.000125247 -4.33884e-06 0)
(0.000127665 -4.21292e-06 0)
(0.000130011 -4.08354e-06 0)
(0.000132283 -3.95063e-06 0)
(0.000134479 -3.81412e-06 0)
(0.000136598 -3.67461e-06 0)
(0.000138637 -3.53228e-06 0)
(0.000140596 -3.38691e-06 0)
(0.000142473 -3.23886e-06 0)
(0.000144265 -3.08868e-06 0)
(0.000145973 -2.93627e-06 0)
(0.000147595 -2.78163e-06 0)
(0.000149129 -2.62533e-06 0)
(0.000150575 -2.46751e-06 0)
(0.000151932 -2.30773e-06 0)
(0.000153198 -2.14622e-06 0)
(0.000154372 -1.98347e-06 0)
(0.000155454 -1.81958e-06 0)
(0.000156444 -1.65431e-06 0)
(0.000157342 -1.48791e-06 0)
(0.000158146 -1.32085e-06 0)
(0.000158855 -1.15299e-06 0)
(0.000159471 -9.84262e-07 0)
(0.00015999 -8.15115e-07 0)
(0.000160414 -6.46001e-07 0)
(0.000160743 -4.76482e-07 0)
(0.000160976 -3.06084e-07 0)
(0.000161113 -1.35162e-07 0)
(0.000161154 3.56517e-08 0)
(0.000161099 2.0638e-07 0)
(0.000160947 3.77259e-07 0)
(0.0001607 5.48189e-07 0)
(0.000160355 7.18779e-07 0)
(0.000159915 8.89157e-07 0)
(0.000159379 1.0595e-06 0)
(0.000158747 1.22956e-06 0)
(0.00015802 1.39876e-06 0)
(0.000157198 1.5672e-06 0)
(0.00015628 1.73522e-06 0)
(0.000155269 1.90273e-06 0)
(0.000154164 2.06917e-06 0)
(0.000152965 2.23426e-06 0)
(0.000151674 2.39824e-06 0)
(0.00015029 2.56118e-06 0)
(0.000148816 2.72265e-06 0)
(0.000147251 2.88223e-06 0)
(0.000145597 3.04e-06 0)
(0.000143855 3.19609e-06 0)
(0.000142026 3.35017e-06 0)
(0.000140111 3.50182e-06 0)
(0.00013811 3.65094e-06 0)
(0.000136027 3.79777e-06 0)
(0.000133862 3.94224e-06 0)
(0.000131617 4.08377e-06 0)
(0.000129293 4.22192e-06 0)
(0.000126892 4.3567e-06 0)
(0.000124417 4.48812e-06 0)
(0.00012187 4.61579e-06 0)
(0.000119252 4.7393e-06 0)
(0.000116565 4.85843e-06 0)
(0.000113813 4.97321e-06 0)
(0.000110998 5.08354e-06 0)
(0.000108123 5.18895e-06 0)
(0.000105191 5.28889e-06 0)
(0.000102204 5.38311e-06 0)
(9.91664e-05 5.47156e-06 0)
(9.60817e-05 5.55388e-06 0)
(9.29533e-05 5.62947e-06 0)
(8.9785e-05 5.69787e-06 0)
(8.65806e-05 5.75882e-06 0)
(8.3345e-05 5.81203e-06 0)
(8.00828e-05 5.85704e-06 0)
(7.67984e-05 5.89325e-06 0)
(7.34968e-05 5.92017e-06 0)
(7.01832e-05 5.93759e-06 0)
(6.68632e-05 5.94523e-06 0)
(6.35427e-05 5.94246e-06 0)
(6.02275e-05 5.92864e-06 0)
(5.69238e-05 5.90325e-06 0)
(5.3638e-05 5.8659e-06 0)
(5.0377e-05 5.81618e-06 0)
(4.7148e-05 5.75355e-06 0)
(4.39583e-05 5.67733e-06 0)
(4.08151e-05 5.587e-06 0)
(3.77262e-05 5.48217e-06 0)
(3.46999e-05 5.3624e-06 0)
(3.17444e-05 5.22713e-06 0)
(2.88682e-05 5.07574e-06 0)
(2.608e-05 4.90774e-06 0)
(2.33886e-05 4.72282e-06 0)
(2.08032e-05 4.52071e-06 0)
(1.83331e-05 4.30111e-06 0)
(1.59873e-05 4.06384e-06 0)
(1.37749e-05 3.80894e-06 0)
(1.17047e-05 3.53663e-06 0)
(9.78553e-06 3.24733e-06 0)
(8.0257e-06 2.94171e-06 0)
(6.43284e-06 2.62088e-06 0)
(5.01352e-06 2.28653e-06 0)
(3.77309e-06 1.94126e-06 0)
(2.71528e-06 1.58878e-06 0)
(1.8415e-06 1.23434e-06 0)
(1.14991e-06 8.85579e-07 0)
(6.34213e-07 5.53785e-07 0)
(2.82596e-07 2.55389e-07 0)
(7.60666e-08 1.40613e-08 0)
(-1.3531e-08 -1.36999e-07 0)
(-2.80498e-08 -1.64757e-07 0)
(-1.01683e-08 -9.1312e-08 0)
(1.90778e-08 -1.22107e-06 0)
(1.89003e-07 -1.66236e-06 0)
(6.14939e-07 -1.42895e-06 0)
(1.28036e-06 -1.65212e-06 0)
(2.21296e-06 -2.17434e-06 0)
(3.38764e-06 -2.78921e-06 0)
(4.795e-06 -3.38902e-06 0)
(6.4059e-06 -3.93471e-06 0)
(8.21206e-06 -4.41443e-06 0)
(1.01843e-05 -4.83382e-06 0)
(1.23156e-05 -5.20522e-06 0)
(1.45949e-05 -5.54357e-06 0)
(1.70163e-05 -5.85691e-06 0)
(1.9571e-05 -6.15642e-06 0)
(2.22594e-05 -6.44095e-06 0)
(2.5074e-05 -6.71794e-06 0)
(2.80109e-05 -6.98482e-06 0)
(3.10677e-05 -7.24249e-06 0)
(3.42356e-05 -7.48895e-06 0)
(3.75115e-05 -7.72387e-06 0)
(4.08881e-05 -7.94254e-06 0)
(4.43577e-05 -8.14896e-06 0)
(4.79157e-05 -8.339e-06 0)
(5.15516e-05 -8.51103e-06 0)
(5.52584e-05 -8.66808e-06 0)
(5.90298e-05 -8.80522e-06 0)
(6.28569e-05 -8.92472e-06 0)
(6.67314e-05 -9.02774e-06 0)
(7.06464e-05 -9.11082e-06 0)
(7.45947e-05 -9.17727e-06 0)
(7.85666e-05 -9.22609e-06 0)
(8.25577e-05 -9.25827e-06 0)
(8.65587e-05 -9.27252e-06 0)
(9.05626e-05 -9.27279e-06 0)
(9.45641e-05 -9.25594e-06 0)
(9.85549e-05 -9.22385e-06 0)
(0.000102529 -9.17844e-06 0)
(0.000106482 -9.11766e-06 0)
(0.000110406 -9.04438e-06 0)
(0.000114296 -8.95737e-06 0)
(0.000118146 -8.8597e-06 0)
(0.000121953 -8.74825e-06 0)
(0.00012571 -8.62704e-06 0)
(0.000129412 -8.49472e-06 0)
(0.000133056 -8.35166e-06 0)
(0.000136637 -8.19972e-06 0)
(0.00014015 -8.03841e-06 0)
(0.000143593 -7.86859e-06 0)
(0.000146962 -7.69087e-06 0)
(0.000150252 -7.50572e-06 0)
(0.000153461 -7.31338e-06 0)
(0.000156587 -7.11397e-06 0)
(0.000159625 -6.90827e-06 0)
(0.000162573 -6.69658e-06 0)
(0.000165429 -6.47912e-06 0)
(0.00016819 -6.25615e-06 0)
(0.000170853 -6.0282e-06 0)
(0.000173418 -5.79533e-06 0)
(0.000175882 -5.55787e-06 0)
(0.000178242 -5.3164e-06 0)
(0.000180498 -5.07106e-06 0)
(0.000182648 -4.82179e-06 0)
(0.000184689 -4.56891e-06 0)
(0.00018662 -4.31293e-06 0)
(0.000188441 -4.0542e-06 0)
(0.000190151 -3.79287e-06 0)
(0.000191747 -3.52943e-06 0)
(0.000193229 -3.26389e-06 0)
(0.000194595 -2.99573e-06 0)
(0.000195845 -2.72515e-06 0)
(0.000196979 -2.45299e-06 0)
(0.000197996 -2.17967e-06 0)
(0.000198895 -1.90517e-06 0)
(0.000199676 -1.62961e-06 0)
(0.000200337 -1.35326e-06 0)
(0.000200879 -1.07615e-06 0)
(0.0002013 -7.9799e-07 0)
(0.000201602 -5.18994e-07 0)
(0.000201783 -2.39805e-07 0)
(0.000201844 3.94454e-08 0)
(0.000201785 3.19025e-07 0)
(0.000201605 5.98831e-07 0)
(0.000201304 8.78411e-07 0)
(0.000200882 1.15764e-06 0)
(0.00020034 1.43672e-06 0)
(0.000199678 1.71547e-06 0)
(0.000198896 1.99336e-06 0)
(0.000197995 2.27008e-06 0)
(0.000196974 2.54591e-06 0)
(0.000195835 2.82099e-06 0)
(0.000194578 3.09475e-06 0)
(0.000193202 3.36671e-06 0)
(0.000191711 3.63687e-06 0)
(0.000190103 3.90527e-06 0)
(0.00018838 4.17163e-06 0)
(0.000186544 4.4354e-06 0)
(0.000184594 4.69635e-06 0)
(0.000182532 4.95455e-06 0)
(0.00018036 5.2098e-06 0)
(0.000178079 5.4615e-06 0)
(0.000175691 5.70929e-06 0)
(0.000173196 5.95329e-06 0)
(0.000170598 6.19351e-06 0)
(0.000167897 6.42945e-06 0)
(0.000165096 6.66047e-06 0)
(0.000162197 6.88616e-06 0)
(0.000159202 7.10643e-06 0)
(0.000156114 7.32103e-06 0)
(0.000152935 7.52934e-06 0)
(0.000149668 7.73085e-06 0)
(0.000146316 7.92544e-06 0)
(0.000142882 8.11293e-06 0)
(0.00013937 8.29279e-06 0)
(0.000135783 8.46431e-06 0)
(0.000132124 8.62696e-06 0)
(0.000128398 8.78039e-06 0)
(0.000124609 8.9242e-06 0)
(0.000120761 9.05772e-06 0)
(0.000116859 9.18015e-06 0)
(0.000112908 9.29092e-06 0)
(0.000108912 9.38964e-06 0)
(0.000104878 9.47566e-06 0)
(0.00010081 9.54808e-06 0)
(9.67157e-05 9.60613e-06 0)
(9.25999e-05 9.64922e-06 0)
(8.84697e-05 9.67683e-06 0)
(8.43321e-05 9.68831e-06 0)
(8.01941e-05 9.68274e-06 0)
(7.60631e-05 9.6592e-06 0)
(7.19466e-05 9.61696e-06 0)
(6.78528e-05 9.55534e-06 0)
(6.37904e-05 9.47362e-06 0)
(5.97678e-05 9.37087e-06 0)
(5.5794e-05 9.24622e-06 0)
(5.1878e-05 9.09896e-06 0)
(4.80296e-05 8.92844e-06 0)
(4.42586e-05 8.73383e-06 0)
(4.05751e-05 8.51424e-06 0)
(3.69894e-05 8.26891e-06 0)
(3.35118e-05 7.99724e-06 0)
(3.01534e-05 7.69873e-06 0)
(2.69249e-05 7.37294e-06 0)
(2.38373e-05 7.01952e-06 0)
(2.09016e-05 6.63837e-06 0)
(1.81282e-05 6.22969e-06 0)
(1.55277e-05 5.79402e-06 0)
(1.31101e-05 5.33218e-06 0)
(1.08853e-05 4.84542e-06 0)
(8.86155e-06 4.33574e-06 0)
(7.04635e-06 3.80613e-06 0)
(5.44559e-06 3.2609e-06 0)
(4.06322e-06 2.70599e-06 0)
(2.90048e-06 2.14963e-06 0)
(1.95498e-06 1.60344e-06 0)
(1.21972e-06 1.08378e-06 0)
(6.82273e-07 6.13568e-07 0)
(3.23354e-07 2.24438e-07 0)
(1.15067e-07 -4.05388e-08 0)
(1.84561e-08 -1.39397e-07 0)
(-2.57614e-09 -9.8288e-08 0)
(-1.87484e-08 -1.27656e-06 0)
(9.93632e-08 -1.94807e-06 0)
(5.05212e-07 -1.99243e-06 0)
(1.23994e-06 -2.49529e-06 0)
(2.27344e-06 -3.29806e-06 0)
(3.60225e-06 -4.17621e-06 0)
(5.20886e-06 -5.02206e-06 0)
(7.07558e-06 -5.79125e-06 0)
(9.17597e-06 -6.47394e-06 0)
(1.14969e-05 -7.07912e-06 0)
(1.40185e-05 -7.6245e-06 0)
(1.67287e-05 -8.12408e-06 0)
(1.96153e-05 -8.59426e-06 0)
(2.26736e-05 -9.04108e-06 0)
(2.58923e-05 -9.47052e-06 0)
(2.92668e-05 -9.88597e-06 0)
(3.27905e-05 -1.0285e-05 0)
(3.64536e-05 -1.067e-05 0)
(4.02527e-05 -1.10372e-05 0)
(4.41787e-05 -1.13844e-05 0)
(4.82233e-05 -1.17117e-05 0)
(5.23778e-05 -1.20155e-05 0)
(5.66349e-05 -1.22947e-05 0)
(6.09844e-05 -1.25513e-05 0)
(6.5417e-05 -1.27797e-05 0)
(6.99253e-05 -1.29825e-05 0)
(7.44971e-05 -1.31594e-05 0)
(7.91254e-05 -1.33088e-05 0)
(8.38008e-05 -1.34324e-05 0)
(8.85129e-05 -1.35301e-05 0)
(9.32554e-05 -1.36025e-05 0)
(9.80176e-05 -1.36485e-05 0)
(0.000102791 -1.36722e-05 0)
(0.000107569 -1.36706e-05 0)
(0.000112343 -1.36468e-05 0)
(0.000117103 -1.36007e-05 0)
(0.000121844 -1.35335e-05 0)
(0.000126559 -1.34448e-05 0)
(0.00013124 -1.33375e-05 0)
(0.000135879 -1.32106e-05 0)
(0.000140473 -1.3066e-05 0)
(0.000145013 -1.29036e-05 0)
(0.000149494 -1.27253e-05 0)
(0.000153911 -1.25309e-05 0)
(0.000158258 -1.23212e-05 0)
(0.000162529 -1.20979e-05 0)
(0.000166722 -1.18613e-05 0)
(0.000170831 -1.16116e-05 0)
(0.00017485 -1.13503e-05 0)
(0.000178777 -1.10781e-05 0)
(0.000182608 -1.0795e-05 0)
(0.000186338 -1.05017e-05 0)
(0.000189965 -1.0199e-05 0)
(0.000193485 -9.88699e-06 0)
(0.000196895 -9.56672e-06 0)
(0.000200192 -9.2386e-06 0)
(0.000203373 -8.90281e-06 0)
(0.000206437 -8.55983e-06 0)
(0.00020938 -8.21036e-06 0)
(0.0002122 -7.85484e-06 0)
(0.000214896 -7.49353e-06 0)
(0.000217466 -7.12678e-06 0)
(0.000219906 -6.75495e-06 0)
(0.000222216 -6.37809e-06 0)
(0.000224394 -5.99659e-06 0)
(0.000226439 -5.61138e-06 0)
(0.000228349 -5.22305e-06 0)
(0.000230123 -4.83168e-06 0)
(0.000231761 -4.43699e-06 0)
(0.00023326 -4.0392e-06 0)
(0.00023462 -3.63886e-06 0)
(0.00023584 -3.23606e-06 0)
(0.00023692 -2.83125e-06 0)
(0.000237859 -2.42519e-06 0)
(0.000238656 -2.01805e-06 0)
(0.00023931 -1.60945e-06 0)
(0.000239822 -1.19951e-06 0)
(0.000240191 -7.88701e-07 0)
(0.000240416 -3.77509e-07 0)
(0.000240497 3.41647e-08 0)
(0.000240436 4.46388e-07 0)
(0.00024023 8.5869e-07 0)
(0.000239881 1.27056e-06 0)
(0.000239388 1.68214e-06 0)
(0.000238752 2.09345e-06 0)
(0.000237972 2.50392e-06 0)
(0.00023705 2.91304e-06 0)
(0.000235985 3.32085e-06 0)
(0.000234779 3.72744e-06 0)
(0.000233431 4.13254e-06 0)
(0.000231943 4.53545e-06 0)
(0.000230315 4.93585e-06 0)
(0.000228548 5.33382e-06 0)
(0.000226643 5.72913e-06 0)
(0.000224601 6.12111e-06 0)
(0.000222424 6.5093e-06 0)
(0.000220111 6.89362e-06 0)
(0.000217667 7.27386e-06 0)
(0.000215091 7.64945e-06 0)
(0.000212385 8.01977e-06 0)
(0.000209551 8.38459e-06 0)
(0.000206591 8.74397e-06 0)
(0.000203508 9.09754e-06 0)
(0.000200303 9.44448e-06 0)
(0.000196979 9.78414e-06 0)
(0.000193538 1.01162e-05 0)
(0.000189983 1.04403e-05 0)
(0.000186318 1.07557e-05 0)
(0.000182545 1.10618e-05 0)
(0.000178668 1.1358e-05 0)
(0.00017469 1.16442e-05 0)
(0.000170614 1.19197e-05 0)
(0.000166446 1.21836e-05 0)
(0.000162189 1.24351e-05 0)
(0.000157847 1.26737e-05 0)
(0.000153425 1.28986e-05 0)
(0.000148929 1.31092e-05 0)
(0.000144364 1.33044e-05 0)
(0.000139734 1.34833e-05 0)
(0.000135046 1.36452e-05 0)
(0.000130306 1.37893e-05 0)
(0.000125521 1.39146e-05 0)
(0.000120696 1.40198e-05 0)
(0.00011584 1.4104e-05 0)
(0.000110959 1.41663e-05 0)
(0.000106061 1.42059e-05 0)
(0.000101155 1.42216e-05 0)
(9.62487e-05 1.42123e-05 0)
(9.13506e-05 1.41766e-05 0)
(8.64701e-05 1.41138e-05 0)
(8.16168e-05 1.40226e-05 0)
(7.68006e-05 1.3902e-05 0)
(7.20315e-05 1.37507e-05 0)
(6.73199e-05 1.35676e-05 0)
(6.26764e-05 1.33518e-05 0)
(5.81124e-05 1.31023e-05 0)
(5.36394e-05 1.28178e-05 0)
(4.92689e-05 1.24972e-05 0)
(4.50128e-05 1.21396e-05 0)
(4.08832e-05 1.17442e-05 0)
(3.68924e-05 1.13104e-05 0)
(3.30531e-05 1.08375e-05 0)
(2.93776e-05 1.03253e-05 0)
(2.5878e-05 9.77376e-06 0)
(2.25665e-05 9.18349e-06 0)
(1.94547e-05 8.55531e-06 0)
(1.65541e-05 7.89056e-06 0)
(1.38751e-05 7.19129e-06 0)
(1.1427e-05 6.46064e-06 0)
(9.21796e-06 5.70313e-06 0)
(7.2543e-06 4.92496e-06 0)
(5.5403e-06 4.13454e-06 0)
(4.07727e-06 3.34337e-06 0)
(2.86281e-06 2.56709e-06 0)
(1.89002e-06 1.82708e-06 0)
(1.147e-06 1.15227e-06 0)
(6.15559e-07 5.81582e-07 0)
(2.6949e-07 1.66721e-07 0)
(7.51548e-08 -4.2681e-08 0)
(6.78768e-09 -7.80909e-08 0)
(-3.32664e-08 -1.28786e-06 0)
(5.82873e-08 -2.20728e-06 0)
(4.88165e-07 -2.58378e-06 0)
(1.2755e-06 -3.41566e-06 0)
(2.407e-06 -4.53761e-06 0)
(3.87061e-06 -5.72459e-06 0)
(5.6525e-06 -6.86289e-06 0)
(7.73642e-06 -7.90362e-06 0)
(1.01087e-05 -8.83847e-06 0)
(1.27448e-05 -9.6784e-06 0)
(1.5628e-05 -1.04388e-05 0)
(1.87427e-05 -1.11435e-05 0)
(2.20747e-05 -1.18044e-05 0)
(2.56089e-05 -1.24328e-05 0)
(2.93379e-05 -1.30373e-05 0)
(3.32503e-05 -1.36155e-05 0)
(3.73356e-05 -1.41735e-05 0)
(4.15864e-05 -1.47066e-05 0)
(4.59911e-05 -1.52141e-05 0)
(5.05411e-05 -1.56936e-05 0)
(5.5227e-05 -1.61433e-05 0)
(6.00392e-05 -1.65601e-05 0)
(6.49656e-05 -1.69446e-05 0)
(6.99971e-05 -1.72938e-05 0)
(7.51236e-05 -1.76069e-05 0)
(8.03324e-05 -1.78845e-05 0)
(8.56166e-05 -1.81257e-05 0)
(9.09623e-05 -1.83291e-05 0)
(9.636e-05 -1.84989e-05 0)
(0.000101801 -1.86312e-05 0)
(0.000107273 -1.87294e-05 0)
(0.000112769 -1.87936e-05 0)
(0.000118276 -1.88242e-05 0)
(0.000123788 -1.88223e-05 0)
(0.000129293 -1.87891e-05 0)
(0.000134784 -1.87261e-05 0)
(0.000140252 -1.86326e-05 0)
(0.000145688 -1.85123e-05 0)
(0.000151085 -1.8364e-05 0)
(0.000156436 -1.81908e-05 0)
(0.000161732 -1.79913e-05 0)
(0.000166967 -1.77695e-05 0)
(0.000172134 -1.75241e-05 0)
(0.000177227 -1.72572e-05 0)
(0.00018224 -1.69703e-05 0)
(0.000187166 -1.66633e-05 0)
(0.000192001 -1.63382e-05 0)
(0.000196739 -1.59958e-05 0)
(0.000201375 -1.5637e-05 0)
(0.000205905 -1.52626e-05 0)
(0.000210324 -1.48736e-05 0)
(0.000214627 -1.44707e-05 0)
(0.000218811 -1.40545e-05 0)
(0.000222873 -1.36258e-05 0)
(0.000226807 -1.31856e-05 0)
(0.000230612 -1.27344e-05 0)
(0.000234285 -1.22727e-05 0)
(0.000237821 -1.18014e-05 0)
(0.000241218 -1.1321e-05 0)
(0.000244475 -1.0832e-05 0)
(0.000247588 -1.03349e-05 0)
(0.000250555 -9.83051e-06 0)
(0.000253374 -9.31922e-06 0)
(0.000256043 -8.80124e-06 0)
(0.00025856 -8.27711e-06 0)
(0.000260923 -7.74768e-06 0)
(0.000263131 -7.2133e-06 0)
(0.000265183 -6.67428e-06 0)
(0.000267078 -6.13118e-06 0)
(0.000268813 -5.58444e-06 0)
(0.000270388 -5.03412e-06 0)
(0.000271802 -4.48033e-06 0)
(0.000273055 -3.92369e-06 0)
(0.000274144 -3.365e-06 0)