/*--------------------------------*- C++ -*----------------------------------*\
  =========                 |
  \\      /  F ield         | OpenFOAM: The Open Source CFD Toolbox
   \\    /   O peration     | Website:  https://openfoam.org
    \\  /    A nd           | Version:  7
     \\/     M anipulation  |
\*---------------------------------------------------------------------------*/
FoamFile
{
    version     2.0;
    format      ascii;
    class       volVectorField;
    location    "0.2";
    object      U;
}
// * * * * * * * * * * * * * * * * * * * * * * * * * * * * * * * * * * * * * //

dimensions      [0 1 -1 0 0 0 0];

internalField   nonuniform List<vector> 
51200
(
(-3.6328e-07 -3.55404e-07 0)
(1.19721e-07 -5.22911e-07 0)
(2.83753e-07 -2.27238e-07 0)
(6.99121e-07 -1.40591e-07 0)
(8.16934e-07 -8.17759e-08 0)
(9.16562e-07 -5.15491e-08 0)
(9.96438e-07 -3.64066e-08 0)
(1.06426e-06 -2.56018e-08 0)
(1.11987e-06 -1.88917e-08 0)
(1.16505e-06 -1.42387e-08 0)
(1.19959e-06 -9.42784e-09 0)
(1.2183e-06 -4.88093e-09 0)
(1.22235e-06 2.18689e-10 0)
(1.21184e-06 6.25964e-09 0)
(1.18249e-06 1.13712e-08 0)
(1.13572e-06 1.58717e-08 0)
(1.07256e-06 2.03091e-08 0)
(9.89621e-07 2.41045e-08 0)
(8.88561e-07 2.77906e-08 0)
(7.70543e-07 3.27941e-08 0)
(6.33656e-07 3.87572e-08 0)
(4.78894e-07 4.39108e-08 0)
(3.07706e-07 4.85596e-08 0)
(1.19928e-07 5.4088e-08 0)
(-8.44562e-08 5.95114e-08 0)
(-3.04499e-07 6.40188e-08 0)
(-5.38697e-07 6.80601e-08 0)
(-7.86299e-07 7.17314e-08 0)
(-1.04701e-06 7.49196e-08 0)
(-1.31991e-06 7.77093e-08 0)
(-1.60381e-06 8.0545e-08 0)
(-1.89792e-06 8.3824e-08 0)
(-2.20183e-06 8.69127e-08 0)
(-2.51467e-06 8.91087e-08 0)
(-2.83505e-06 9.07642e-08 0)
(-3.16196e-06 9.2371e-08 0)
(-3.49494e-06 9.38966e-08 0)
(-3.83324e-06 9.52419e-08 0)
(-4.17579e-06 9.6424e-08 0)
(-4.52158e-06 9.75837e-08 0)
(-4.86983e-06 9.86482e-08 0)
(-5.21988e-06 9.91096e-08 0)
(-5.57092e-06 9.87716e-08 0)
(-5.9218e-06 9.81559e-08 0)
(-6.27172e-06 9.77496e-08 0)
(-6.62031e-06 9.74833e-08 0)
(-6.96693e-06 9.70512e-08 0)
(-7.31063e-06 9.62702e-08 0)
(-7.65056e-06 9.51415e-08 0)
(-7.98604e-06 9.37378e-08 0)
(-8.31645e-06 9.20489e-08 0)
(-8.64132e-06 9.00558e-08 0)
(-8.96011e-06 8.80267e-08 0)
(-9.27212e-06 8.6294e-08 0)
(-9.57678e-06 8.47173e-08 0)
(-9.87363e-06 8.27772e-08 0)
(-1.01621e-05 8.01398e-08 0)
(-1.04414e-05 7.69954e-08 0)
(-1.07112e-05 7.38349e-08 0)
(-1.09712e-05 7.09966e-08 0)
(-1.12209e-05 6.8441e-08 0)
(-1.14601e-05 6.58348e-08 0)
(-1.16884e-05 6.28407e-08 0)
(-1.19053e-05 5.9413e-08 0)
(-1.21105e-05 5.57892e-08 0)
(-1.23038e-05 5.22113e-08 0)
(-1.24849e-05 4.87806e-08 0)
(-1.26537e-05 4.54598e-08 0)
(-1.28098e-05 4.20718e-08 0)
(-1.29527e-05 3.8486e-08 0)
(-1.30825e-05 3.48084e-08 0)
(-1.3199e-05 3.1158e-08 0)
(-1.33019e-05 2.74198e-08 0)
(-1.33913e-05 2.34446e-08 0)
(-1.34668e-05 1.9302e-08 0)
(-1.35284e-05 1.51907e-08 0)
(-1.35761e-05 1.12438e-08 0)
(-1.36098e-05 7.4749e-09 0)
(-1.36296e-05 3.79981e-09 0)
(-1.36353e-05 7.10834e-11 0)
(-1.36269e-05 -3.82198e-09 0)
(-1.36046e-05 -7.84816e-09 0)
(-1.35683e-05 -1.18792e-08 0)
(-1.35181e-05 -1.58329e-08 0)
(-1.34541e-05 -1.97215e-08 0)
(-1.33763e-05 -2.35469e-08 0)
(-1.32848e-05 -2.72656e-08 0)
(-1.31799e-05 -3.08918e-08 0)
(-1.30616e-05 -3.4523e-08 0)
(-1.29303e-05 -3.82203e-08 0)
(-1.27859e-05 -4.19204e-08 0)
(-1.26287e-05 -4.55285e-08 0)
(-1.2459e-05 -4.90217e-08 0)
(-1.2277e-05 -5.24047e-08 0)
(-1.20829e-05 -5.56527e-08 0)
(-1.18772e-05 -5.87399e-08 0)
(-1.16603e-05 -6.1715e-08 0)
(-1.14324e-05 -6.46761e-08 0)
(-1.11941e-05 -6.767e-08 0)
(-1.09453e-05 -7.06522e-08 0)
(-1.06867e-05 -7.34952e-08 0)
(-1.04186e-05 -7.60678e-08 0)
(-1.01415e-05 -7.83536e-08 0)
(-9.85598e-06 -8.04465e-08 0)
(-9.56247e-06 -8.24723e-08 0)
(-9.26152e-06 -8.45093e-08 0)
(-8.95357e-06 -8.65369e-08 0)
(-8.6391e-06 -8.84742e-08 0)
(-8.31867e-06 -9.02154e-08 0)
(-7.99294e-06 -9.16308e-08 0)
(-7.66261e-06 -9.26624e-08 0)
(-7.32832e-06 -9.34026e-08 0)
(-6.99077e-06 -9.40336e-08 0)
(-6.65059e-06 -9.4693e-08 0)
(-6.30843e-06 -9.53322e-08 0)
(-5.96496e-06 -9.57555e-08 0)
(-5.6209e-06 -9.58206e-08 0)
(-5.27712e-06 -9.55119e-08 0)
(-4.93449e-06 -9.4911e-08 0)
(-4.59376e-06 -9.41346e-08 0)
(-4.25568e-06 -9.32342e-08 0)
(-3.92101e-06 -9.22026e-08 0)
(-3.59058e-06 -9.09944e-08 0)
(-3.26533e-06 -8.94879e-08 0)
(-2.9462e-06 -8.75838e-08 0)
(-2.63405e-06 -8.53232e-08 0)
(-2.32977e-06 -8.28265e-08 0)
(-2.03417e-06 -8.01856e-08 0)
(-1.74805e-06 -7.73984e-08 0)
(-1.4722e-06 -7.43685e-08 0)
(-1.20748e-06 -7.10208e-08 0)
(-9.54741e-07 -6.73777e-08 0)
(-7.14896e-07 -6.34912e-08 0)
(-4.8878e-07 -5.9392e-08 0)
(-2.77171e-07 -5.50957e-08 0)
(-8.08664e-08 -5.05831e-08 0)
(9.93902e-08 -4.58243e-08 0)
(2.62975e-07 -4.08206e-08 0)
(4.09327e-07 -3.55944e-08 0)
(5.37938e-07 -3.02044e-08 0)
(6.48307e-07 -2.47431e-08 0)
(7.39914e-07 -1.92442e-08 0)
(8.12366e-07 -1.36568e-08 0)
(8.6547e-07 -7.9266e-09 0)
(8.99147e-07 -2.06895e-09 0)
(9.13534e-07 3.80172e-09 0)
(9.09052e-07 9.5132e-09 0)
(8.86291e-07 1.49446e-08 0)
(8.46e-07 2.00658e-08 0)
(7.89192e-07 2.4859e-08 0)
(7.17227e-07 2.9238e-08 0)
(6.31963e-07 3.30486e-08 0)
(5.35935e-07 3.60413e-08 0)
(4.32476e-07 3.78052e-08 0)
(3.25878e-07 3.78191e-08 0)
(2.2173e-07 3.54746e-08 0)
(1.27226e-07 3.0003e-08 0)
(5.11866e-08 2.05417e-08 0)
(4.25806e-09 6.82975e-09 0)
(-5.37342e-09 -5.44504e-09 0)
(-5.03449e-07 1.02588e-07 0)
(-5.22605e-07 -6.64913e-07 0)
(-7.71422e-08 -4.54329e-07 0)
(3.52549e-07 -3.65867e-07 0)
(7.14282e-07 -2.78506e-07 0)
(1.04318e-06 -2.21976e-07 0)
(1.33766e-06 -1.82069e-07 0)
(1.59195e-06 -1.51738e-07 0)
(1.80769e-06 -1.23491e-07 0)
(1.98392e-06 -9.41044e-08 0)
(2.11326e-06 -6.60749e-08 0)
(2.19651e-06 -3.48669e-08 0)
(2.23118e-06 -1.26946e-09 0)
(2.21223e-06 3.2982e-08 0)
(2.14126e-06 6.87283e-08 0)
(2.01722e-06 1.06029e-07 0)
(1.83739e-06 1.42659e-07 0)
(1.60369e-06 1.78595e-07 0)
(1.31587e-06 2.14778e-07 0)
(9.73503e-07 2.50749e-07 0)
(5.78446e-07 2.8655e-07 0)
(1.31794e-07 3.21475e-07 0)
(-3.64831e-07 3.55303e-07 0)
(-9.09742e-07 3.88181e-07 0)
(-1.50159e-06 4.19532e-07 0)
(-2.13808e-06 4.49486e-07 0)
(-2.81675e-06 4.78193e-07 0)
(-3.5353e-06 5.04996e-07 0)
(-4.29154e-06 5.29614e-07 0)
(-5.08338e-06 5.52374e-07 0)
(-5.90795e-06 5.73879e-07 0)
(-6.76244e-06 5.94118e-07 0)
(-7.64496e-06 6.12447e-07 0)
(-8.55305e-06 6.28742e-07 0)
(-9.48355e-06 6.43358e-07 0)
(-1.04337e-05 6.56222e-07 0)
(-1.14013e-05 6.67098e-07 0)
(-1.23842e-05 6.7611e-07 0)
(-1.33797e-05 6.8359e-07 0)
(-1.43848e-05 6.8982e-07 0)
(-1.53971e-05 6.94525e-07 0)
(-1.64147e-05 6.97141e-07 0)
(-1.74352e-05 6.97808e-07 0)
(-1.84559e-05 6.97039e-07 0)
(-1.94742e-05 6.94905e-07 0)
(-2.04882e-05 6.91261e-07 0)
(-2.14963e-05 6.86106e-07 0)
(-2.24962e-05 6.79562e-07 0)
(-2.34856e-05 6.71813e-07 0)
(-2.44621e-05 6.6287e-07 0)
(-2.54241e-05 6.5243e-07 0)
(-2.63701e-05 6.40318e-07 0)
(-2.72984e-05 6.26968e-07 0)
(-2.82069e-05 6.12945e-07 0)
(-2.9094e-05 5.98213e-07 0)
(-2.9958e-05 5.82351e-07 0)
(-3.07978e-05 5.65084e-07 0)
(-3.16117e-05 5.46501e-07 0)
(-3.23983e-05 5.27004e-07 0)
(-3.3156e-05 5.06979e-07 0)
(-3.38839e-05 4.86439e-07 0)
(-3.45811e-05 4.65136e-07 0)
(-3.52467e-05 4.42969e-07 0)
(-3.58792e-05 4.20082e-07 0)
(-3.64774e-05 3.96599e-07 0)
(-3.70405e-05 3.72511e-07 0)
(-3.75681e-05 3.47851e-07 0)
(-3.80595e-05 3.22743e-07 0)
(-3.8514e-05 2.97202e-07 0)
(-3.89307e-05 2.71222e-07 0)
(-3.93085e-05 2.44954e-07 0)
(-3.96472e-05 2.18467e-07 0)
(-3.99465e-05 1.91574e-07 0)
(-4.02063e-05 1.64174e-07 0)
(-4.04259e-05 1.36429e-07 0)
(-4.06048e-05 1.08522e-07 0)
(-4.07427e-05 8.05692e-08 0)
(-4.08398e-05 5.26863e-08 0)
(-4.08958e-05 2.48917e-08 0)
(-4.09111e-05 -2.94048e-09 0)
(-4.08856e-05 -3.08749e-08 0)
(-4.0819e-05 -5.87882e-08 0)
(-4.07112e-05 -8.65374e-08 0)
(-4.05626e-05 -1.14125e-07 0)
(-4.03735e-05 -1.4163e-07 0)
(-4.01444e-05 -1.69017e-07 0)
(-3.98755e-05 -1.96115e-07 0)
(-3.95671e-05 -2.22789e-07 0)
(-3.92196e-05 -2.49034e-07 0)
(-3.88335e-05 -2.74918e-07 0)
(-3.84093e-05 -3.00502e-07 0)
(-3.79478e-05 -3.25776e-07 0)
(-3.74501e-05 -3.5064e-07 0)
(-3.69166e-05 -3.74907e-07 0)
(-3.63481e-05 -3.98418e-07 0)
(-3.57453e-05 -4.21139e-07 0)
(-3.51093e-05 -4.43158e-07 0)
(-3.44411e-05 -4.64578e-07 0)
(-3.37418e-05 -4.85419e-07 0)
(-3.30126e-05 -5.05623e-07 0)
(-3.22547e-05 -5.2503e-07 0)
(-3.14693e-05 -5.4341e-07 0)
(-3.06574e-05 -5.60673e-07 0)
(-2.98204e-05 -5.76923e-07 0)
(-2.89598e-05 -5.92301e-07 0)
(-2.80773e-05 -6.06843e-07 0)
(-2.71742e-05 -6.2043e-07 0)
(-2.62524e-05 -6.3289e-07 0)
(-2.53133e-05 -6.4411e-07 0)
(-2.43587e-05 -6.53977e-07 0)
(-2.33904e-05 -6.62415e-07 0)
(-2.24102e-05 -6.69479e-07 0)
(-2.14202e-05 -6.7529e-07 0)
(-2.04224e-05 -6.79915e-07 0)
(-1.9419e-05 -6.83262e-07 0)
(-1.84119e-05 -6.85106e-07 0)
(-1.74034e-05 -6.85315e-07 0)
(-1.63954e-05 -6.83906e-07 0)
(-1.53903e-05 -6.80912e-07 0)
(-1.43902e-05 -6.7638e-07 0)
(-1.33977e-05 -6.70323e-07 0)
(-1.24151e-05 -6.62694e-07 0)
(-1.14449e-05 -6.53445e-07 0)
(-1.04895e-05 -6.42467e-07 0)
(-9.55135e-06 -6.29608e-07 0)
(-8.63279e-06 -6.14874e-07 0)
(-7.73629e-06 -5.98412e-07 0)
(-6.86433e-06 -5.80347e-07 0)
(-6.01938e-06 -5.60721e-07 0)
(-5.204e-06 -5.39481e-07 0)
(-4.42073e-06 -5.16526e-07 0)
(-3.67197e-06 -4.91835e-07 0)
(-2.95993e-06 -4.65446e-07 0)
(-2.2868e-06 -4.37404e-07 0)
(-1.6547e-06 -4.0783e-07 0)
(-1.06572e-06 -3.76877e-07 0)
(-5.21918e-07 -3.44628e-07 0)
(-2.51986e-08 -3.11118e-07 0)
(4.22698e-07 -2.76389e-07 0)
(8.20223e-07 -2.40539e-07 0)
(1.16614e-06 -2.03785e-07 0)
(1.4595e-06 -1.66389e-07 0)
(1.6996e-06 -1.28556e-07 0)
(1.88609e-06 -9.04927e-08 0)
(2.01891e-06 -5.24743e-08 0)
(2.09841e-06 -1.48513e-08 0)
(2.12555e-06 2.19259e-08 0)
(2.10201e-06 5.73234e-08 0)
(2.03022e-06 9.07803e-08 0)
(1.91343e-06 1.21691e-07 0)
(1.75588e-06 1.49293e-07 0)
(1.56305e-06 1.72574e-07 0)
(1.34195e-06 1.90217e-07 0)
(1.10143e-06 2.00493e-07 0)
(8.52285e-07 2.01241e-07 0)
(6.07558e-07 1.9e-07 0)
(3.82588e-07 1.6417e-07 0)
(1.94407e-07 1.21488e-07 0)
(6.29412e-08 6.27492e-08 0)
(6.92036e-09 4.51905e-09 0)
(-1.85284e-07 1.65629e-07 0)
(-1.99629e-07 -4.92093e-07 0)
(-5.57493e-08 -7.2389e-07 0)
(2.94385e-07 -7.32907e-07 0)
(6.89078e-07 -6.75308e-07 0)
(1.09547e-06 -6.01128e-07 0)
(1.48334e-06 -5.30223e-07 0)
(1.83234e-06 -4.55779e-07 0)
(2.13336e-06 -3.75168e-07 0)
(2.37239e-06 -2.92713e-07 0)
(2.54558e-06 -2.02871e-07 0)
(2.64587e-06 -1.07552e-07 0)
(2.66584e-06 -9.03123e-09 0)
(2.60569e-06 9.3712e-08 0)
(2.46067e-06 2.0042e-07 0)
(2.2283e-06 3.08131e-07 0)
(1.90995e-06 4.17004e-07 0)
(1.50426e-06 5.26179e-07 0)
(1.01137e-06 6.33312e-07 0)
(4.33124e-07 7.39301e-07 0)
(-2.30062e-07 8.43508e-07 0)
(-9.76136e-07 9.44748e-07 0)
(-1.80162e-06 1.04302e-06 0)
(-2.7044e-06 1.13769e-06 0)
(-3.68204e-06 1.2283e-06 0)
(-4.73108e-06 1.31476e-06 0)
(-5.84776e-06 1.39706e-06 0)
(-7.02851e-06 1.47488e-06 0)
(-8.27021e-06 1.54755e-06 0)
(-9.5689e-06 1.61516e-06 0)
(-1.09198e-05 1.67822e-06 0)
(-1.23192e-05 1.73633e-06 0)
(-1.37636e-05 1.78907e-06 0)
(-1.52487e-05 1.83669e-06 0)
(-1.677e-05 1.87937e-06 0)
(-1.83231e-05 1.91702e-06 0)
(-1.99045e-05 1.94934e-06 0)
(-2.15102e-05 1.97621e-06 0)
(-2.31358e-05 1.99818e-06 0)
(-2.47767e-05 2.01561e-06 0)
(-2.64296e-05 2.02816e-06 0)
(-2.8091e-05 2.03562e-06 0)
(-2.97569e-05 2.03839e-06 0)
(-3.14228e-05 2.03681e-06 0)
(-3.30851e-05 2.03086e-06 0)
(-3.47405e-05 2.02042e-06 0)
(-3.63859e-05 2.00538e-06 0)
(-3.80177e-05 1.98609e-06 0)
(-3.96322e-05 1.96319e-06 0)
(-4.1226e-05 1.93676e-06 0)
(-4.27966e-05 1.90644e-06 0)
(-4.43412e-05 1.87215e-06 0)
(-4.58565e-05 1.83427e-06 0)
(-4.73392e-05 1.79317e-06 0)
(-4.8787e-05 1.749e-06 0)
(-5.01976e-05 1.70176e-06 0)
(-5.15687e-05 1.65145e-06 0)
(-5.28979e-05 1.59819e-06 0)
(-5.41824e-05 1.54232e-06 0)
(-5.54201e-05 1.48415e-06 0)
(-5.66092e-05 1.42362e-06 0)
(-5.77482e-05 1.36067e-06 0)
(-5.88354e-05 1.29564e-06 0)
(-5.98688e-05 1.22886e-06 0)
(-6.08464e-05 1.16036e-06 0)
(-6.17667e-05 1.0901e-06 0)
(-6.26288e-05 1.01811e-06 0)
(-6.34315e-05 9.44462e-07 0)
(-6.41739e-05 8.69376e-07 0)
(-6.48543e-05 7.93156e-07 0)
(-6.54716e-05 7.15983e-07 0)
(-6.60249e-05 6.37836e-07 0)
(-6.65142e-05 5.587e-07 0)
(-6.69386e-05 4.78739e-07 0)
(-6.72974e-05 3.98144e-07 0)
(-6.759e-05 3.17003e-07 0)
(-6.78157e-05 2.3544e-07 0)
(-6.79744e-05 1.53638e-07 0)
(-6.80662e-05 7.16772e-08 0)
(-6.80912e-05 -1.04029e-08 0)
(-6.80494e-05 -9.24155e-08 0)
(-6.79404e-05 -1.7412e-07 0)
(-6.77642e-05 -2.55442e-07 0)
(-6.75213e-05 -3.36412e-07 0)
(-6.72123e-05 -4.16967e-07 0)
(-6.68378e-05 -4.9696e-07 0)
(-6.63982e-05 -5.76236e-07 0)
(-6.58941e-05 -6.54619e-07 0)
(-6.53261e-05 -7.31914e-07 0)
(-6.4695e-05 -8.08019e-07 0)
(-6.40017e-05 -8.82984e-07 0)
(-6.32477e-05 -9.56817e-07 0)
(-6.24341e-05 -1.02933e-06 0)
(-6.1562e-05 -1.10023e-06 0)
(-6.06326e-05 -1.16931e-06 0)
(-5.96471e-05 -1.23644e-06 0)
(-5.86073e-05 -1.30155e-06 0)
(-5.75147e-05 -1.36456e-06 0)
(-5.63713e-05 -1.42552e-06 0)
(-5.51789e-05 -1.48437e-06 0)
(-5.39394e-05 -1.54092e-06 0)
(-5.26546e-05 -1.59484e-06 0)
(-5.13266e-05 -1.64594e-06 0)
(-4.99576e-05 -1.69423e-06 0)
(-4.855e-05 -1.7397e-06 0)
(-4.71065e-05 -1.78221e-06 0)
(-4.56296e-05 -1.82159e-06 0)
(-4.41218e-05 -1.8577e-06 0)
(-4.25858e-05 -1.8904e-06 0)
(-4.10243e-05 -1.91947e-06 0)
(-3.94403e-05 -1.94471e-06 0)
(-3.78369e-05 -1.96606e-06 0)
(-3.62173e-05 -1.98356e-06 0)
(-3.45849e-05 -1.99716e-06 0)
(-3.29429e-05 -2.00671e-06 0)
(-3.12946e-05 -2.01202e-06 0)
(-2.96435e-05 -2.01289e-06 0)
(-2.79931e-05 -2.00929e-06 0)
(-2.6347e-05 -2.00116e-06 0)
(-2.4709e-05 -1.98844e-06 0)
(-2.30829e-05 -1.9711e-06 0)
(-2.14727e-05 -1.94903e-06 0)
(-1.98822e-05 -1.92212e-06 0)
(-1.83152e-05 -1.89029e-06 0)
(-1.67756e-05 -1.85346e-06 0)
(-1.52672e-05 -1.81158e-06 0)
(-1.37942e-05 -1.76469e-06 0)
(-1.23605e-05 -1.71287e-06 0)
(-1.09701e-05 -1.6562e-06 0)
(-9.62693e-06 -1.59477e-06 0)
(-8.33503e-06 -1.52861e-06 0)
(-7.09813e-06 -1.45769e-06 0)
(-5.9198e-06 -1.38208e-06 0)
(-4.80352e-06 -1.3019e-06 0)
(-3.75273e-06 -1.21734e-06 0)
(-2.77076e-06 -1.1287e-06 0)
(-1.86072e-06 -1.03631e-06 0)
(-1.02549e-06 -9.40449e-07 0)
(-2.67751e-07 -8.41419e-07 0)
(4.10141e-07 -7.39566e-07 0)
(1.00626e-06 -6.35301e-07 0)
(1.5192e-06 -5.29178e-07 0)
(1.94807e-06 -4.21882e-07 0)
(2.29248e-06 -3.14185e-07 0)
(2.55252e-06 -2.06998e-07 0)
(2.72898e-06 -1.01344e-07 0)
(2.82351e-06 1.67999e-09 0)
(2.83876e-06 1.00796e-07 0)
(2.77863e-06 1.94384e-07 0)
(2.64841e-06 2.80494e-07 0)
(2.45492e-06 3.56865e-07 0)
(2.20667e-06 4.20815e-07 0)
(1.91419e-06 4.69132e-07 0)
(1.5903e-06 4.97934e-07 0)
(1.25028e-06 5.02629e-07 0)
(9.12109e-07 4.78181e-07 0)
(5.95966e-07 4.19769e-07 0)
(3.23292e-07 3.24077e-07 0)
(1.20634e-07 1.93534e-07 0)
(2.02531e-08 5.11687e-08 0)
(-8.41057e-08 4.25563e-07 0)
(-3.5894e-08 -4.40842e-07 0)
(1.10498e-07 -9.1525e-07 0)
(4.28225e-07 -1.06897e-06 0)
(8.2445e-07 -1.07488e-06 0)
(1.24428e-06 -1.0186e-06 0)
(1.65368e-06 -9.25796e-07 0)
(2.02958e-06 -8.06709e-07 0)
(2.34378e-06 -6.68266e-07 0)
(2.5864e-06 -5.11463e-07 0)
(2.74466e-06 -3.39184e-07 0)
(2.80638e-06 -1.56376e-07 0)
(2.76743e-06 3.69648e-08 0)
(2.62138e-06 2.3792e-07 0)
(2.36361e-06 4.43294e-07 0)
(1.99174e-06 6.52967e-07 0)
(1.50437e-06 8.64648e-07 0)
(9.00545e-07 1.07592e-06 0)
(1.81106e-07 1.28582e-06 0)
(-6.52369e-07 1.49253e-06 0)
(-1.59887e-06 1.69478e-06 0)
(-2.6556e-06 1.89244e-06 0)
(-3.81917e-06 2.08421e-06 0)
(-5.08646e-06 2.26878e-06 0)
(-6.45362e-06 2.44561e-06 0)
(-7.91605e-06 2.61446e-06 0)
(-9.46927e-06 2.77503e-06 0)
(-1.11092e-05 2.92644e-06 0)
(-1.28308e-05 3.06829e-06 0)
(-1.46284e-05 3.20105e-06 0)
(-1.64966e-05 3.32443e-06 0)
(-1.84305e-05 3.43761e-06 0)
(-2.04245e-05 3.54054e-06 0)
(-2.24728e-05 3.6336e-06 0)
(-2.45698e-05 3.71695e-06 0)
(-2.67102e-05 3.79034e-06 0)
(-2.88888e-05 3.85338e-06 0)
(-3.10997e-05 3.90641e-06 0)
(-3.33368e-05 3.95e-06 0)
(-3.5595e-05 3.98399e-06 0)
(-3.78693e-05 4.00802e-06 0)
(-4.01544e-05 4.02244e-06 0)
(-4.24449e-05 4.02785e-06 0)
(-4.47354e-05 4.02457e-06 0)
(-4.7021e-05 4.01262e-06 0)
(-4.92973e-05 3.99183e-06 0)
(-5.15593e-05 3.96231e-06 0)
(-5.38021e-05 3.92467e-06 0)
(-5.60207e-05 3.87944e-06 0)
(-5.82115e-05 3.82664e-06 0)
(-6.03705e-05 3.7663e-06 0)
(-6.24935e-05 3.69882e-06 0)
(-6.4576e-05 3.62461e-06 0)
(-6.66141e-05 3.54381e-06 0)
(-6.86042e-05 3.45655e-06 0)
(-7.05431e-05 3.36303e-06 0)
(-7.24278e-05 3.26359e-06 0)
(-7.42548e-05 3.15874e-06 0)
(-7.60207e-05 3.04895e-06 0)
(-7.77226e-05 2.9343e-06 0)
(-7.9358e-05 2.81472e-06 0)
(-8.09243e-05 2.69037e-06 0)
(-8.2419e-05 2.56183e-06 0)
(-8.38397e-05 2.42962e-06 0)
(-8.5184e-05 2.29403e-06 0)
(-8.64502e-05 2.15512e-06 0)
(-8.76363e-05 2.01286e-06 0)
(-8.87407e-05 1.86734e-06 0)
(-8.97617e-05 1.71908e-06 0)
(-9.06976e-05 1.56861e-06 0)
(-9.15469e-05 1.41603e-06 0)
(-9.23088e-05 1.26132e-06 0)
(-9.29823e-05 1.10467e-06 0)
(-9.35665e-05 9.4644e-07 0)
(-9.40604e-05 7.86986e-07 0)
(-9.44635e-05 6.26624e-07 0)
(-9.47749e-05 4.65603e-07 0)
(-9.49943e-05 3.04029e-07 0)
(-9.51217e-05 1.41939e-07 0)
(-9.51571e-05 -2.04359e-08 0)
(-9.51002e-05 -1.82646e-07 0)
(-9.4951e-05 -3.44318e-07 0)
(-9.47097e-05 -5.05323e-07 0)
(-9.43768e-05 -6.6559e-07 0)
(-9.3953e-05 -8.24922e-07 0)
(-9.3439e-05 -9.83083e-07 0)
(-9.28355e-05 -1.13985e-06 0)
(-9.21432e-05 -1.29491e-06 0)
(-9.13629e-05 -1.44792e-06 0)
(-9.0496e-05 -1.59864e-06 0)
(-8.95439e-05 -1.74704e-06 0)
(-8.85082e-05 -1.89301e-06 0)
(-8.73903e-05 -2.03622e-06 0)
(-8.61918e-05 -2.17629e-06 0)
(-8.49145e-05 -2.31292e-06 0)
(-8.35602e-05 -2.44592e-06 0)
(-8.2131e-05 -2.57507e-06 0)
(-8.06292e-05 -2.70015e-06 0)
(-7.90575e-05 -2.821e-06 0)
(-7.74185e-05 -2.9374e-06 0)
(-7.57145e-05 -3.04906e-06 0)
(-7.3948e-05 -3.15565e-06 0)
(-7.21221e-05 -3.25692e-06 0)
(-7.02399e-05 -3.35273e-06 0)
(-6.83046e-05 -3.44289e-06 0)
(-6.63197e-05 -3.5271e-06 0)
(-6.42886e-05 -3.60504e-06 0)
(-6.22152e-05 -3.67643e-06 0)
(-6.01029e-05 -3.741e-06 0)
(-5.79554e-05 -3.7985e-06 0)
(-5.57767e-05 -3.84874e-06 0)
(-5.35711e-05 -3.89154e-06 0)
(-5.13431e-05 -3.92671e-06 0)
(-4.90971e-05 -3.95397e-06 0)
(-4.68376e-05 -3.97307e-06 0)
(-4.45692e-05 -3.98383e-06 0)
(-4.22964e-05 -3.98605e-06 0)
(-4.00242e-05 -3.97952e-06 0)
(-3.77574e-05 -3.96411e-06 0)
(-3.55011e-05 -3.93968e-06 0)
(-3.32608e-05 -3.90612e-06 0)
(-3.10415e-05 -3.86326e-06 0)
(-2.88485e-05 -3.81088e-06 0)
(-2.6687e-05 -3.74884e-06 0)
(-2.45622e-05 -3.67715e-06 0)
(-2.24794e-05 -3.59581e-06 0)
(-2.04439e-05 -3.50479e-06 0)
(-1.84614e-05 -3.40411e-06 0)
(-1.65371e-05 -3.29387e-06 0)
(-1.46764e-05 -3.17421e-06 0)
(-1.28845e-05 -3.04531e-06 0)
(-1.11663e-05 -2.90728e-06 0)
(-9.52663e-06 -2.76027e-06 0)
(-7.97024e-06 -2.60458e-06 0)
(-6.50173e-06 -2.44057e-06 0)
(-5.12555e-06 -2.26869e-06 0)
(-3.8458e-06 -2.08947e-06 0)
(-2.66621e-06 -1.90356e-06 0)
(-1.59022e-06 -1.71168e-06 0)
(-6.20787e-07 -1.51465e-06 0)
(2.3968e-07 -1.31335e-06 0)
(9.89342e-07 -1.10874e-06 0)
(1.62704e-06 -9.02046e-07 0)
(2.15236e-06 -6.94778e-07 0)
(2.56562e-06 -4.88678e-07 0)
(2.8681e-06 -2.85737e-07 0)
(3.06224e-06 -8.81937e-08 0)
(3.15167e-06 1.01436e-07 0)
(3.14148e-06 2.80203e-07 0)
(3.03858e-06 4.44566e-07 0)
(2.8518e-06 5.90357e-07 0)
(2.59205e-06 7.12744e-07 0)
(2.27246e-06 8.0613e-07 0)
(1.90871e-06 8.64066e-07 0)
(1.51913e-06 8.79307e-07 0)
(1.12489e-06 8.44174e-07 0)
(7.49457e-07 7.51443e-07 0)
(4.17697e-07 5.9616e-07 0)
(1.62501e-07 3.80385e-07 0)
(2.94607e-08 1.26551e-07 0)
(-1.29851e-08 3.53966e-07 0)
(9.63676e-08 -5.26928e-07 0)
(2.68257e-07 -1.13972e-06 0)
(5.80044e-07 -1.39873e-06 0)
(9.62435e-07 -1.46781e-06 0)
(1.36786e-06 -1.42754e-06 0)
(1.76471e-06 -1.31304e-06 0)
(2.11567e-06 -1.14734e-06 0)
(2.40204e-06 -9.3919e-07 0)
(2.60214e-06 -6.95194e-07 0)
(2.69992e-06 -4.25898e-07 0)
(2.68497e-06 -1.33483e-07 0)
(2.547e-06 1.76728e-07 0)
(2.27914e-06 4.99185e-07 0)
(1.87653e-06 8.30823e-07 0)
(1.33552e-06 1.16827e-06 0)
(6.53782e-07 1.50853e-06 0)
(-1.69702e-07 1.84884e-06 0)
(-1.13475e-06 2.18736e-06 0)
(-2.23998e-06 2.52091e-06 0)
(-3.48296e-06 2.8479e-06 0)
(-4.86096e-06 3.16715e-06 0)
(-6.37067e-06 3.47674e-06 0)
(-8.00796e-06 3.77529e-06 0)
(-9.76784e-06 4.06192e-06 0)
(-1.16449e-05 4.33585e-06 0)
(-1.36343e-05 4.59579e-06 0)
(-1.57303e-05 4.84093e-06 0)
(-1.79265e-05 5.07132e-06 0)
(-2.02162e-05 5.28673e-06 0)
(-2.25938e-05 5.48646e-06 0)
(-2.50524e-05 5.67006e-06 0)
(-2.7585e-05 5.83745e-06 0)
(-3.01843e-05 5.98873e-06 0)
(-3.28438e-05 6.12379e-06 0)
(-3.55571e-05 6.24227e-06 0)
(-3.83173e-05 6.34432e-06 0)
(-4.11168e-05 6.43059e-06 0)
(-4.39487e-05 6.50122e-06 0)
(-4.68069e-05 6.5559e-06 0)
(-4.96848e-05 6.59471e-06 0)
(-5.25752e-05 6.61807e-06 0)
(-5.54716e-05 6.62652e-06 0)
(-5.83675e-05 6.62043e-06 0)
(-6.12572e-05 6.59993e-06 0)
(-6.41348e-05 6.56517e-06 0)
(-6.6994e-05 6.51675e-06 0)
(-6.98283e-05 6.45525e-06 0)
(-7.26324e-05 6.38086e-06 0)
(-7.54012e-05 6.29367e-06 0)
(-7.81294e-05 6.19416e-06 0)
(-8.08117e-05 6.08311e-06 0)
(-8.3443e-05 5.96109e-06 0)
(-8.60183e-05 5.82839e-06 0)
(-8.85334e-05 5.68517e-06 0)
(-9.09838e-05 5.53163e-06 0)
(-9.33653e-05 5.36832e-06 0)
(-9.56737e-05 5.19611e-06 0)
(-9.7905e-05 5.01558e-06 0)
(-0.000100056 4.82696e-06 0)
(-0.000102123 4.63049e-06 0)
(-0.000104103 4.42654e-06 0)
(-0.000105992 4.21559e-06 0)
(-0.000107788 3.99819e-06 0)
(-0.000109487 3.77489e-06 0)
(-0.000111087 3.54604e-06 0)
(-0.000112587 3.31185e-06 0)
(-0.000113984 3.07265e-06 0)
(-0.000115274 2.82903e-06 0)
(-0.000116458 2.58155e-06 0)
(-0.000117532 2.33045e-06 0)
(-0.000118496 2.07597e-06 0)
(-0.000119348 1.81849e-06 0)
(-0.000120088 1.55836e-06 0)
(-0.000120713 1.29608e-06 0)
(-0.000121223 1.03221e-06 0)
(-0.000121618 7.6721e-07 0)
(-0.000121896 5.01279e-07 0)
(-0.000122059 2.34624e-07 0)
(-0.000122105 -3.23326e-08 0)
(-0.000122034 -2.9906e-07 0)
(-0.000121847 -5.65134e-07 0)
(-0.000121543 -8.30247e-07 0)
(-0.000121124 -1.09409e-06 0)
(-0.00012059 -1.35632e-06 0)
(-0.000119941 -1.61657e-06 0)
(-0.00011918 -1.87443e-06 0)
(-0.000118306 -2.12948e-06 0)
(-0.000117322 -2.3813e-06 0)
(-0.000116228 -2.62957e-06 0)
(-0.000115026 -2.87398e-06 0)
(-0.000113718 -3.11418e-06 0)
(-0.000112307 -3.34971e-06 0)
(-0.000110793 -3.58014e-06 0)
(-0.00010918 -3.80501e-06 0)
(-0.00010747 -4.02392e-06 0)
(-0.000105665 -4.23655e-06 0)
(-0.000103768 -4.44263e-06 0)
(-0.000101783 -4.64179e-06 0)
(-9.97126e-05 -4.83355e-06 0)
(-9.75599e-05 -5.0174e-06 0)
(-9.53283e-05 -5.19291e-06 0)
(-9.30216e-05 -5.35973e-06 0)
(-9.06437e-05 -5.51752e-06 0)
(-8.81987e-05 -5.66591e-06 0)
(-8.56907e-05 -5.80453e-06 0)
(-8.31243e-05 -5.93299e-06 0)
(-8.05039e-05 -6.05078e-06 0)
(-7.78342e-05 -6.15736e-06 0)
(-7.512e-05 -6.25229e-06 0)
(-7.23663e-05 -6.3353e-06 0)
(-6.95783e-05 -6.40615e-06 0)
(-6.67616e-05 -6.46452e-06 0)
(-6.39217e-05 -6.50999e-06 0)
(-6.10642e-05 -6.54212e-06 0)
(-5.8195e-05 -6.5606e-06 0)
(-5.53198e-05 -6.56509e-06 0)
(-5.24446e-05 -6.55528e-06 0)
(-4.95758e-05 -6.53092e-06 0)
(-4.67197e-05 -6.49182e-06 0)
(-4.38828e-05 -6.4378e-06 0)
(-4.10715e-05 -6.36861e-06 0)
(-3.82923e-05 -6.284e-06 0)
(-3.55518e-05 -6.18371e-06 0)
(-3.28566e-05 -6.0677e-06 0)
(-3.02131e-05 -5.936e-06 0)
(-2.76281e-05 -5.78864e-06 0)
(-2.51083e-05 -5.62569e-06 0)
(-2.26604e-05 -5.44727e-06 0)
(-2.0291e-05 -5.25355e-06 0)
(-1.80063e-05 -5.04476e-06 0)
(-1.58126e-05 -4.82119e-06 0)
(-1.37158e-05 -4.5832e-06 0)
(-1.17217e-05 -4.33131e-06 0)
(-9.83586e-06 -4.06619e-06 0)
(-8.06373e-06 -3.78855e-06 0)
(-6.41033e-06 -3.4992e-06 0)
(-4.88022e-06 -3.19914e-06 0)
(-3.47752e-06 -2.88958e-06 0)
(-2.20573e-06 -2.57188e-06 0)
(-1.0676e-06 -2.24757e-06 0)
(-6.52106e-08 -1.91837e-06 0)
(8.00053e-07 -1.58626e-06 0)
(1.5277e-06 -1.25355e-06 0)
(2.11824e-06 -9.22966e-07 0)
(2.57336e-06 -5.97637e-07 0)
(2.89616e-06 -2.81158e-07 0)
(3.09117e-06 2.23574e-08 0)
(3.16458e-06 3.08237e-07 0)
(3.12452e-06 5.71134e-07 0)
(2.98131e-06 8.0483e-07 0)
(2.74759e-06 1.00212e-06 0)
(2.43839e-06 1.15484e-06 0)
(2.07137e-06 1.25382e-06 0)
(1.66701e-06 1.28903e-06 0)
(1.24873e-06 1.25001e-06 0)
(8.42443e-07 1.12682e-06 0)
(4.76053e-07 9.11751e-07 0)
(1.88103e-07 6.03896e-07 0)
(3.48068e-08 2.20041e-07 0)
(2.51086e-08 2.46553e-07 0)
(1.72562e-07 -6.80109e-07 0)
(3.77688e-07 -1.38968e-06 0)
(6.79779e-07 -1.73023e-06 0)
(1.04056e-06 -1.84497e-06 0)
(1.41641e-06 -1.80814e-06 0)
(1.76758e-06 -1.66693e-06 0)
(2.06811e-06 -1.44264e-06 0)
(2.29023e-06 -1.15151e-06 0)
(2.41168e-06 -8.09016e-07 0)
(2.41627e-06 -4.23614e-07 0)
(2.29085e-06 -4.24962e-09 0)
(2.02299e-06 4.41536e-07 0)
(1.60458e-06 9.07484e-07 0)
(1.03007e-06 1.3877e-06 0)
(2.94825e-07 1.87697e-06 0)
(-6.03768e-07 2.37053e-06 0)
(-1.66678e-06 2.86457e-06 0)
(-2.89461e-06 3.35558e-06 0)
(-4.28586e-06 3.84035e-06 0)
(-5.83759e-06 4.31609e-06 0)
(-7.54703e-06 4.78021e-06 0)
(-9.41033e-06 5.23036e-06 0)
(-1.14225e-05 5.66486e-06 0)
(-1.35778e-05 6.08249e-06 0)
(-1.58709e-05 6.48151e-06 0)
(-1.82957e-05 6.86026e-06 0)
(-2.0845e-05 7.21819e-06 0)
(-2.35114e-05 7.55476e-06 0)
(-2.62879e-05 7.86891e-06 0)
(-2.91673e-05 8.16e-06 0)
(-3.21416e-05 8.42789e-06 0)
(-3.52025e-05 8.67248e-06 0)
(-3.83419e-05 8.89353e-06 0)
(-4.15521e-05 9.09051e-06 0)
(-4.48253e-05 9.26328e-06 0)
(-4.81527e-05 9.41241e-06 0)
(-5.1526e-05 9.53819e-06 0)
(-5.49374e-05 9.64053e-06 0)
(-5.83794e-05 9.71952e-06 0)
(-6.18439e-05 9.77561e-06 0)
(-6.53226e-05 9.80932e-06 0)
(-6.88077e-05 9.82107e-06 0)
(-7.22917e-05 9.81111e-06 0)
(-7.57678e-05 9.77967e-06 0)
(-7.92284e-05 9.72739e-06 0)
(-8.26662e-05 9.65522e-06 0)
(-8.60741e-05 9.56374e-06 0)
(-8.94457e-05 9.45317e-06 0)
(-9.27747e-05 9.3239e-06 0)
(-9.60545e-05 9.1766e-06 0)
(-9.92786e-05 9.01208e-06 0)
(-0.000102441 8.8311e-06 0)
(-0.000105537 8.63429e-06 0)
(-0.00010856 8.42204e-06 0)
(-0.000111506 8.19486e-06 0)
(-0.000114368 7.95355e-06 0)
(-0.000117143 7.69893e-06 0)
(-0.000119825 7.43155e-06 0)
(-0.00012241 7.15193e-06 0)
(-0.000124895 6.86079e-06 0)
(-0.000127275 6.55886e-06 0)
(-0.000129546 6.24677e-06 0)
(-0.000131705 5.92514e-06 0)
(-0.000133748 5.59451e-06 0)
(-0.000135672 5.25535e-06 0)
(-0.000137475 4.90828e-06 0)
(-0.000139155 4.55405e-06 0)
(-0.000140707 4.19332e-06 0)
(-0.00014213 3.82663e-06 0)
(-0.000143422 3.45448e-06 0)
(-0.000144582 3.07742e-06 0)
(-0.000145607 2.69604e-06 0)
(-0.000146497 2.31089e-06 0)
(-0.00014725 1.92259e-06 0)
(-0.000147864 1.53184e-06 0)
(-0.00014834 1.13915e-06 0)
(-0.000148676 7.4495e-07 0)
(-0.000148873 3.49809e-07 0)
(-0.00014893 -4.56069e-08 0)
(-0.000148846 -4.40692e-07 0)
(-0.000148622 -8.3493e-07 0)
(-0.000148259 -1.22781e-06 0)
(-0.000147756 -1.61883e-06 0)
(-0.000147116 -2.0075e-06 0)
(-0.000146338 -2.39323e-06 0)
(-0.000145424 -2.77536e-06 0)
(-0.000144376 -3.15322e-06 0)
(-0.000143194 -3.52635e-06 0)
(-0.00014188 -3.89431e-06 0)
(-0.000140437 -4.25658e-06 0)
(-0.000138867 -4.61252e-06 0)
(-0.000137172 -4.96154e-06 0)
(-0.000135354 -5.30306e-06 0)
(-0.000133417 -5.63641e-06 0)
(-0.000131362 -5.96096e-06 0)
(-0.000129194 -6.2762e-06 0)
(-0.000126916 -6.58171e-06 0)
(-0.000124531 -6.87696e-06 0)
(-0.000122044 -7.16123e-06 0)
(-0.000119457 -7.43383e-06 0)
(-0.000116776 -7.69418e-06 0)
(-0.000114004 -7.94171e-06 0)
(-0.000111147 -8.17583e-06 0)
(-0.000108209 -8.39594e-06 0)
(-0.000105195 -8.60152e-06 0)
(-0.00010211 -8.79204e-06 0)
(-9.89608e-05 -8.96686e-06 0)
(-9.57516e-05 -9.12526e-06 0)
(-9.24885e-05 -9.26659e-06 0)
(-8.91778e-05 -9.39035e-06 0)
(-8.58256e-05 -9.49609e-06 0)
(-8.24385e-05 -9.58329e-06 0)
(-7.9023e-05 -9.65146e-06 0)
(-7.55857e-05 -9.70006e-06 0)
(-7.21337e-05 -9.72858e-06 0)
(-6.86738e-05 -9.73652e-06 0)
(-6.52133e-05 -9.72344e-06 0)
(-6.17595e-05 -9.68897e-06 0)
(-5.83202e-05 -9.63278e-06 0)
(-5.49029e-05 -9.55456e-06 0)
(-5.15153e-05 -9.45403e-06 0)
(-4.81649e-05 -9.33092e-06 0)
(-4.48595e-05 -9.18501e-06 0)
(-4.16071e-05 -9.01611e-06 0)
(-3.84154e-05 -8.82419e-06 0)
(-3.52922e-05 -8.60933e-06 0)
(-3.22455e-05 -8.37169e-06 0)
(-2.92832e-05 -8.11149e-06 0)
(-2.64127e-05 -7.82899e-06 0)
(-2.36418e-05 -7.52451e-06 0)
(-2.09773e-05 -7.19849e-06 0)
(-1.84266e-05 -6.85155e-06 0)
(-1.59963e-05 -6.48448e-06 0)
(-1.36931e-05 -6.09823e-06 0)
(-1.1523e-05 -5.69393e-06 0)
(-9.49193e-06 -5.27286e-06 0)
(-7.60515e-06 -4.8365e-06 0)
(-5.86742e-06 -4.38654e-06 0)
(-4.28271e-06 -3.92495e-06 0)
(-2.85418e-06 -3.45396e-06 0)
(-1.58416e-06 -2.97618e-06 0)
(-4.74118e-07 -2.49461e-06 0)
(4.75459e-07 -2.01265e-06 0)
(1.26521e-06 -1.53413e-06 0)
(1.89712e-06 -1.06346e-06 0)
(2.37476e-06 -6.0574e-07 0)
(2.70333e-06 -1.66774e-07 0)
(2.88991e-06 2.46826e-07 0)
(2.94367e-06 6.276e-07 0)
(2.87597e-06 9.67117e-07 0)
(2.70059e-06 1.25575e-06 0)
(2.43393e-06 1.48263e-06 0)
(2.09506e-06 1.6358e-06 0)
(1.70595e-06 1.70235e-06 0)
(1.29169e-06 1.66876e-06 0)
(8.80161e-07 1.52183e-06 0)
(5.0188e-07 1.25005e-06 0)
(1.99805e-07 8.47633e-07 0)
(3.71989e-08 3.23209e-07 0)
(4.05554e-08 1.17583e-07 0)
(2.08562e-07 -8.68575e-07 0)
(4.27596e-07 -1.65215e-06 0)
(7.18446e-07 -2.05182e-06 0)
(1.04685e-06 -2.18855e-06 0)
(1.37166e-06 -2.14586e-06 0)
(1.66105e-06 -1.96111e-06 0)
(1.88439e-06 -1.66498e-06 0)
(2.01536e-06 -1.27964e-06 0)
(2.03079e-06 -8.21138e-07 0)
(1.91394e-06 -3.03117e-07 0)
(1.64946e-06 2.61134e-07 0)
(1.22493e-06 8.61822e-07 0)
(6.31225e-07 1.49085e-06 0)
(-1.386e-07 2.13968e-06 0)
(-1.0896e-06 2.80171e-06 0)
(-2.22468e-06 3.47028e-06 0)
(-3.54507e-06 4.13992e-06 0)
(-5.0511e-06 4.8056e-06 0)
(-6.74138e-06 5.46347e-06 0)
(-8.61318e-06 6.10938e-06 0)
(-1.06633e-05 6.73969e-06 0)
(-1.28873e-05 7.35153e-06 0)
(-1.52794e-05 7.94261e-06 0)
(-1.78337e-05 8.51055e-06 0)
(-2.05443e-05 9.05298e-06 0)
(-2.34037e-05 9.56854e-06 0)
(-2.6404e-05 1.00562e-05 0)
(-2.95374e-05 1.05147e-05 0)
(-3.27959e-05 1.09425e-05 0)
(-3.61707e-05 1.13391e-05 0)
(-3.96528e-05 1.17041e-05 0)
(-4.3233e-05 1.20374e-05 0)
(-4.69026e-05 1.23383e-05 0)
(-5.06526e-05 1.26062e-05 0)
(-5.44733e-05 1.28416e-05 0)
(-5.83552e-05 1.30449e-05 0)
(-6.22892e-05 1.32158e-05 0)
(-6.62662e-05 1.33544e-05 0)
(-7.02772e-05 1.34611e-05 0)
(-7.43128e-05 1.35364e-05 0)
(-7.83639e-05 1.35812e-05 0)
(-8.24216e-05 1.35958e-05 0)
(-8.64777e-05 1.35805e-05 0)
(-9.05236e-05 1.35358e-05 0)
(-9.45506e-05 1.34627e-05 0)
(-9.85503e-05 1.33621e-05 0)
(-0.000102515 1.32345e-05 0)
(-0.000106437 1.30807e-05 0)
(-0.000110309 1.29013e-05 0)