/*--------------------------------*- C++ -*----------------------------------*\
  =========                 |
  \\      /  F ield         | OpenFOAM: The Open Source CFD Toolbox
   \\    /   O peration     | Website:  https://openfoam.org
    \\  /    A nd           | Version:  7
     \\/     M anipulation  |
\*---------------------------------------------------------------------------*/
FoamFile
{
    version     2.0;
    format      ascii;
    class       volScalarField;
    location    "0.4375";
    object      p;
}
// * * * * * * * * * * * * * * * * * * * * * * * * * * * * * * * * * * * * * //

dimensions      [0 2 -2 0 0 0 0];

internalField   nonuniform List<scalar> 
51200
(
-1.99189e-08
2.16168e-06
5.42147e-06
8.5599e-06
1.11013e-05
1.32417e-05
1.50741e-05
1.66531e-05
1.80167e-05
1.91879e-05
2.01852e-05
2.10194e-05
2.17025e-05
2.22416e-05
2.26429e-05
2.29132e-05
2.30608e-05
2.30908e-05
2.30102e-05
2.28234e-05
2.25312e-05
2.21412e-05
2.16591e-05
2.10888e-05
2.04349e-05
1.96994e-05
1.88844e-05
1.79938e-05
1.7031e-05
1.60009e-05
1.49062e-05
1.37491e-05
1.25349e-05
1.1267e-05
9.94754e-06
8.581e-06
7.17063e-06
5.71801e-06
4.2257e-06
2.69644e-06
1.13191e-06
-4.65454e-07
-2.09385e-06
-3.75223e-06
-5.43792e-06
-7.14937e-06
-8.88704e-06
-1.06496e-05
-1.24333e-05
-1.42364e-05
-1.60575e-05
-1.78957e-05
-1.97499e-05
-2.16191e-05
-2.35031e-05
-2.5401e-05
-2.7312e-05
-2.92351e-05
-3.11696e-05
-3.31148e-05
-3.50714e-05
-3.70392e-05
-3.90163e-05
-4.10016e-05
-4.29951e-05
-4.49965e-05
-4.70048e-05
-4.90206e-05
-5.10448e-05
-5.30773e-05
-5.51174e-05
-5.71646e-05
-5.92185e-05
-6.12786e-05
-6.33456e-05
-6.54197e-05
-6.75001e-05
-6.95853e-05
-7.16754e-05
-7.37711e-05
-7.58731e-05
-7.79811e-05
-8.00951e-05
-8.22149e-05
-8.43395e-05
-8.64675e-05
-8.85996e-05
-9.07363e-05
-9.28769e-05
-9.502e-05
-9.7165e-05
-9.93132e-05
-0.000101465
-0.000103617
-0.000105769
-0.000107921
-0.000110074
-0.000112228
-0.00011438
-0.000116531
-0.000118679
-0.000120823
-0.000122963
-0.000125095
-0.000127221
-0.000129338
-0.000131446
-0.000133545
-0.000135633
-0.000137708
-0.000139768
-0.000141812
-0.000143839
-0.000145847
-0.000147835
-0.000149799
-0.000151738
-0.000153649
-0.000155533
-0.000157387
-0.000159208
-0.000160992
-0.000162738
-0.000164445
-0.000166111
-0.000167732
-0.000169308
-0.000170834
-0.000172309
-0.000173729
-0.000175089
-0.000176389
-0.000177628
-0.000178804
-0.000179912
-0.000180952
-0.000181921
-0.000182816
-0.000183635
-0.000184375
-0.000185035
-0.000185613
-0.000186109
-0.000186521
-0.000186847
-0.000187089
-0.000187246
-0.00018732
-0.000187313
-0.000187227
-0.000187067
-0.00018684
-0.000186556
-0.000186227
-0.000185869
-0.000185502
-0.000185151
-0.000184854
-0.000184655
-0.000184589
2.00759e-06
4.10136e-06
6.7061e-06
9.22349e-06
1.14197e-05
1.33182e-05
1.49711e-05
1.64113e-05
1.76669e-05
1.87536e-05
1.96817e-05
2.04635e-05
2.11049e-05
2.16129e-05
2.19926e-05
2.2249e-05
2.23864e-05
2.24132e-05
2.23353e-05
2.21526e-05
2.1871e-05
2.14936e-05
2.10247e-05
2.04711e-05
1.9836e-05
1.91217e-05
1.83309e-05
1.74654e-05
1.65286e-05
1.55251e-05
1.44574e-05
1.33293e-05
1.21444e-05
1.09039e-05
9.61169e-06
8.27133e-06
6.88492e-06
5.45635e-06
3.98851e-06
2.48325e-06
9.43313e-07
-6.30215e-07
-2.23727e-06
-3.87571e-06
-5.54231e-06
-7.23608e-06
-8.95661e-06
-1.07015e-05
-1.24691e-05
-1.42584e-05
-1.60677e-05
-1.78953e-05
-1.97397e-05
-2.16004e-05
-2.3477e-05
-2.53687e-05
-2.72745e-05
-2.91931e-05
-3.11237e-05
-3.30673e-05
-3.50236e-05
-3.69906e-05
-3.89677e-05
-4.09557e-05
-4.29539e-05
-4.49601e-05
-4.69731e-05
-4.89934e-05
-5.1022e-05
-5.3059e-05
-5.51046e-05
-5.71587e-05
-5.92203e-05
-6.12892e-05
-6.33654e-05
-6.5448e-05
-6.75355e-05
-6.96277e-05
-7.17262e-05
-7.38316e-05
-7.59427e-05
-7.80582e-05
-8.01783e-05
-8.23043e-05
-8.44356e-05
-8.65704e-05
-8.87082e-05
-9.08493e-05
-9.29938e-05
-9.51416e-05
-9.72915e-05
-9.94424e-05
-0.000101594
-0.000103745
-0.000105896
-0.000108047
-0.000110198
-0.000112348
-0.000114496
-0.000116642
-0.000118784
-0.00012092
-0.000123049
-0.000125171
-0.000127284
-0.000129388
-0.000131482
-0.000133566
-0.000135639
-0.000137697
-0.000139738
-0.000141761
-0.000143766
-0.000145752
-0.000147717
-0.000149659
-0.000151572
-0.000153458
-0.000155314
-0.000157139
-0.000158932
-0.000160688
-0.000162405
-0.000164082
-0.000165717
-0.000167309
-0.000168856
-0.000170353
-0.000171798
-0.000173188
-0.00017452
-0.000175793
-0.000177005
-0.000178156
-0.000179243
-0.000180261
-0.00018121
-0.000182087
-0.00018289
-0.000183619
-0.000184272
-0.000184846
-0.000185341
-0.000185757
-0.000186092
-0.000186348
-0.000186525
-0.000186625
-0.00018665
-0.000186604
-0.000186492
-0.00018632
-0.000186098
-0.000185839
-0.000185555
-0.000185265
-0.000184989
-0.000184751
-0.000184586
-0.000184522
4.88026e-06
6.38351e-06
8.22107e-06
1.01502e-05
1.19665e-05
1.36114e-05
1.50799e-05
1.6382e-05
1.75303e-05
1.85316e-05
1.93946e-05
2.01224e-05
2.07198e-05
2.11935e-05
2.15482e-05
2.17859e-05
2.19119e-05
2.19324e-05
2.1849e-05
2.16677e-05
2.13917e-05
2.10218e-05
2.05641e-05
2.00216e-05
1.93983e-05
1.86991e-05
1.79244e-05
1.70768e-05
1.61594e-05
1.51744e-05
1.41262e-05
1.3019e-05
1.18547e-05
1.06357e-05
9.36529e-06
8.04557e-06
6.67986e-06
5.27161e-06
3.82246e-06
2.33599e-06
8.15316e-07
-7.40259e-07
-2.33009e-06
-3.95153e-06
-5.6037e-06
-7.28516e-06
-8.99351e-06
-1.0726e-05
-1.24817e-05
-1.426e-05
-1.60598e-05
-1.78792e-05
-1.97163e-05
-2.15701e-05
-2.34409e-05
-2.53285e-05
-2.72311e-05
-2.91468e-05
-3.10761e-05
-3.302e-05
-3.49767e-05
-3.69436e-05
-3.89213e-05
-4.09112e-05
-4.29118e-05
-4.49212e-05
-4.69389e-05
-4.89646e-05
-5.0999e-05
-5.30428e-05
-5.50952e-05
-5.71551e-05
-5.92222e-05
-6.12975e-05
-6.33812e-05
-6.54713e-05
-6.75658e-05
-6.96651e-05
-7.17711e-05
-7.3884e-05
-7.60024e-05
-7.81252e-05
-8.02523e-05
-8.23843e-05
-8.45216e-05
-8.66631e-05
-8.88066e-05
-9.09514e-05
-9.30982e-05
-9.52489e-05
-9.74032e-05
-9.95578e-05
-0.000101711
-0.000103862
-0.000106013
-0.000108165
-0.000110314
-0.000112462
-0.000114606
-0.000116747
-0.000118884
-0.000121015
-0.000123137
-0.00012525
-0.000127353
-0.000129447
-0.00013153
-0.000133602
-0.000135661
-0.000137706
-0.000139732
-0.00014174
-0.000143728
-0.000145696
-0.000147642
-0.000149563
-0.000151458
-0.000153323
-0.000155157
-0.00015696
-0.000158729
-0.000160463
-0.000162158
-0.00016381
-0.000165421
-0.000166989
-0.000168513
-0.000169987
-0.000171408
-0.000172774
-0.000174083
-0.000175334
-0.000176526
-0.000177658
-0.000178726
-0.000179728
-0.000180662
-0.000181525
-0.000182317
-0.000183038
-0.000183685
-0.000184257
-0.000184753
-0.000185171
-0.000185513
-0.00018578
-0.000185974
-0.000186094
-0.000186144
-0.000186127
-0.000186049
-0.000185917
-0.000185739
-0.000185524
-0.000185286
-0.000185041
-0.000184803
-0.000184591
-0.000184425
-0.000184324
7.45227e-06
8.45715e-06
9.75496e-06
1.12111e-05
1.26807e-05
1.4076e-05
1.53617e-05
1.65265e-05
1.75656e-05
1.84812e-05
1.9276e-05
1.99487e-05
2.05019e-05
2.09396e-05
2.12639e-05
2.14798e-05
2.15922e-05
2.16008e-05
2.15101e-05
2.13248e-05
2.10464e-05
2.06808e-05
2.02299e-05
1.96956e-05
1.90827e-05
1.83936e-05
1.76304e-05
1.67963e-05
1.58929e-05
1.49228e-05
1.38904e-05
1.27983e-05
1.16495e-05
1.04468e-05
9.19197e-06
7.88844e-06
6.53942e-06
5.14692e-06
3.71353e-06
2.24272e-06
7.357e-07
-8.06951e-07
-2.38286e-06
-3.99062e-06
-5.63056e-06
-7.30122e-06
-8.99938e-06
-1.07228e-05
-1.24701e-05
-1.42404e-05
-1.60327e-05
-1.78457e-05
-1.96774e-05
-2.1527e-05
-2.33945e-05
-2.52788e-05
-2.71782e-05
-2.90922e-05
-3.10217e-05
-3.29661e-05
-3.49235e-05
-3.68925e-05
-3.88737e-05
-4.08666e-05
-4.28699e-05
-4.48825e-05
-4.69041e-05
-4.89343e-05
-5.09739e-05
-5.30238e-05
-5.50826e-05
-5.7149e-05
-5.92232e-05
-6.1306e-05
-6.33963e-05
-6.54923e-05
-6.75935e-05
-6.97006e-05
-7.18142e-05
-7.39338e-05
-7.60587e-05
-7.81884e-05
-8.03224e-05
-8.24604e-05
-8.4603e-05
-8.675e-05
-8.88993e-05
-9.10492e-05
-9.32005e-05
-9.53545e-05
-9.75114e-05
-9.96685e-05
-0.000101823
-0.000103976
-0.000106129
-0.00010828
-0.00011043
-0.000112576
-0.000114718
-0.000116856
-0.000118989
-0.000121114
-0.00012323
-0.000125337
-0.000127432
-0.000129518
-0.000131592
-0.000133655
-0.000135704
-0.000137736
-0.00013975
-0.000141745
-0.000143721
-0.000145674
-0.000147604
-0.000149508
-0.000151384
-0.000153232
-0.000155049
-0.000156834
-0.000158584
-0.000160298
-0.000161974
-0.000163608
-0.000165199
-0.000166747
-0.00016825
-0.000169704
-0.000171105
-0.000172451
-0.000173742
-0.000174976
-0.000176152
-0.000177268
-0.000178321
-0.000179309
-0.000180231
-0.000181084
-0.000181868
-0.000182582
-0.000183226
-0.000183796
-0.000184292
-0.000184713
-0.000185061
-0.000185337
-0.000185543
-0.000185679
-0.000185748
-0.000185753
-0.0001857
-0.000185594
-0.000185444
-0.000185258
-0.000185046
-0.00018482
-0.000184595
-0.000184383
-0.000184193
-0.00018403
9.3443e-06
1.01489e-05
1.11409e-05
1.22751e-05
1.34685e-05
1.46437e-05
1.57592e-05
1.67889e-05
1.77211e-05
1.8549e-05
1.92709e-05
1.98852e-05
2.03932e-05
2.07913e-05
2.1084e-05
2.12767e-05
2.13691e-05
2.13646e-05
2.12657e-05
2.10725e-05
2.07909e-05
2.04243e-05
1.99748e-05
1.94466e-05
1.88408e-05
1.81593e-05
1.74052e-05
1.65805e-05
1.56879e-05
1.47308e-05
1.37114e-05
1.26327e-05
1.14978e-05
1.03086e-05
9.06749e-06
7.77824e-06
6.44259e-06
5.06364e-06
3.64518e-06
2.18793e-06
6.92685e-07
-8.38489e-07
-2.40329e-06
-4.00101e-06
-5.63133e-06
-7.29207e-06
-8.98082e-06
-1.06963e-05
-1.24369e-05
-1.4201e-05
-1.59874e-05
-1.77945e-05
-1.96218e-05
-2.14688e-05
-2.33346e-05
-2.52167e-05
-2.71143e-05
-2.90285e-05
-3.0959e-05
-3.29036e-05
-3.48615e-05
-3.68332e-05
-3.88181e-05
-4.08149e-05
-4.28222e-05
-4.48392e-05
-4.68657e-05
-4.89019e-05
-5.09478e-05
-5.30032e-05
-5.50674e-05
-5.71402e-05
-5.92223e-05
-6.13132e-05
-6.34105e-05
-6.55129e-05
-6.76212e-05
-6.97365e-05
-7.1858e-05
-7.39848e-05
-7.61165e-05
-7.82532e-05
-8.03946e-05
-8.25399e-05
-8.46884e-05
-8.68399e-05
-8.89935e-05
-9.1149e-05
-9.33066e-05
-9.54659e-05
-9.76256e-05
-9.97847e-05
-0.000101942
-0.000104098
-0.000106252
-0.000108404
-0.000110553
-0.000112699
-0.00011484
-0.000116976
-0.000119105
-0.000121225
-0.000123337
-0.000125437
-0.000127526
-0.000129604
-0.000131672
-0.000133726
-0.000135766
-0.000137787
-0.000139789
-0.000141773
-0.000143736
-0.000145677
-0.000147592
-0.000149481
-0.000151341
-0.000153173
-0.000154974
-0.000156743
-0.000158477
-0.000160172
-0.000161829
-0.000163445
-0.000165019
-0.000166549
-0.000168034
-0.000169469
-0.000170852
-0.000172181
-0.000173456
-0.000174675
-0.000175836
-0.000176937
-0.000177977
-0.000178953
-0.000179864
-0.000180708
-0.000181485
-0.000182194
-0.000182834
-0.000183402
-0.000183898
-0.000184322
-0.000184676
-0.00018496
-0.000185176
-0.000185326
-0.000185411
-0.000185433
-0.000185398
-0.000185313
-0.000185183
-0.000185016
-0.000184819
-0.000184601
-0.000184374
-0.000184148
-0.00018392
-0.000183683
1.08214e-05
1.15338e-05
1.2358e-05
1.32833e-05
1.42744e-05
1.52741e-05
1.6239e-05
1.71461e-05
1.79779e-05
1.87216e-05
1.93719e-05
1.99283e-05
2.03861e-05
2.07447e-05
2.10064e-05
2.11712e-05
2.1242e-05
2.12215e-05
2.11096e-05
2.09089e-05
2.06227e-05
2.02525e-05
1.98028e-05
1.92763e-05
1.86741e-05
1.79986e-05
1.72509e-05
1.6433e-05
1.5549e-05
1.46012e-05
1.35922e-05
1.25246e-05
1.14006e-05
1.02226e-05
8.99368e-06
7.7159e-06
6.39134e-06
5.02424e-06
3.61748e-06
2.17101e-06
6.86355e-07
-8.34058e-07
-2.38971e-06
-3.9799e-06
-5.60263e-06
-7.25553e-06
-8.93704e-06
-1.06458e-05
-1.23807e-05
-1.41404e-05
-1.59223e-05
-1.77252e-05
-1.95496e-05
-2.13948e-05
-2.32589e-05
-2.51398e-05
-2.70376e-05
-2.89535e-05
-3.08857e-05
-3.28319e-05
-3.47921e-05
-3.6767e-05
-3.87557e-05
-4.07565e-05
-4.27682e-05
-4.47898e-05
-4.68216e-05
-4.88645e-05
-5.09177e-05
-5.29795e-05
-5.505e-05
-5.713e-05
-5.922e-05
-6.13185e-05
-6.34229e-05
-6.55328e-05
-6.76492e-05
-6.97725e-05
-7.1902e-05
-7.40365e-05
-7.61755e-05
-7.83192e-05
-8.04679e-05
-8.26209e-05
-8.47767e-05
-8.69336e-05
-8.90917e-05
-9.12524e-05
-9.34162e-05
-9.55814e-05
-9.7745e-05
-9.99069e-05
-0.000102067
-0.000104226
-0.000106383
-0.000108536
-0.000110685
-0.000112831
-0.000114971
-0.000117105
-0.000119232
-0.000121349
-0.000123456
-0.000125552
-0.000127635
-0.000129708
-0.000131769
-0.000133816
-0.000135847
-0.000137858
-0.000139851
-0.000141824
-0.000143776
-0.000145705
-0.000147608
-0.000149483
-0.000151329
-0.000153147
-0.000154934
-0.000156688
-0.000158406
-0.000160086
-0.000161726
-0.000163325
-0.000164884
-0.000166398
-0.000167866
-0.000169284
-0.000170651
-0.000171965
-0.000173225
-0.00017443
-0.000175579
-0.000176668
-0.000177696
-0.000178661
-0.000179562
-0.000180398
-0.00018117
-0.000181875
-0.000182511
-0.000183077
-0.000183573
-0.000184
-0.000184358
-0.00018465
-0.000184875
-0.000185035
-0.000185132
-0.000185168
-0.000185147
-0.000185074
-0.000184957
-0.000184801
-0.000184611
-0.000184393
-0.000184155
-0.000183907
-0.000183633
-0.000183319
1.20282e-05
1.27051e-05
1.34342e-05
1.42259e-05
1.5076e-05
1.5939e-05
1.67818e-05
1.75815e-05
1.83206e-05
1.89865e-05
1.95718e-05
2.00693e-05
2.04776e-05
2.07975e-05
2.10259e-05
2.11636e-05
2.12123e-05
2.11719e-05
2.10452e-05
2.08342e-05
2.05401e-05
2.01659e-05
1.9714e-05
1.91862e-05
1.85851e-05
1.79117e-05
1.71676e-05
1.63552e-05
1.54773e-05
1.45362e-05
1.35352e-05
1.24758e-05
1.136e-05
1.01914e-05
8.97171e-06
7.70311e-06
6.38865e-06
5.03156e-06
3.63326e-06
2.19486e-06
7.18922e-07
-7.93308e-07
-2.34214e-06
-3.92596e-06
-5.54243e-06
-7.18976e-06
-8.86614e-06
-1.057e-05
-1.23007e-05
-1.40565e-05
-1.58352e-05
-1.76362e-05
-1.94598e-05
-2.13041e-05
-2.3167e-05
-2.50482e-05
-2.69478e-05
-2.88654e-05
-3.07994e-05
-3.27487e-05
-3.47131e-05
-3.66923e-05
-3.86854e-05
-4.0691e-05
-4.27076e-05
-4.47345e-05
-4.67725e-05
-4.88222e-05
-5.08821e-05
-5.29508e-05
-5.50291e-05
-5.71177e-05
-5.92157e-05
-6.13214e-05
-6.34333e-05
-6.55515e-05
-6.76765e-05
-6.98081e-05
-7.19456e-05
-7.40883e-05
-7.62354e-05
-7.83867e-05
-8.05425e-05
-8.27028e-05
-8.48657e-05
-8.70291e-05
-8.91934e-05
-9.13604e-05
-9.35301e-05
-9.57005e-05
-9.78689e-05
-0.000100035
-0.000102199
-0.000104361
-0.00010652
-0.000108675
-0.000110826
-0.000112971
-0.000115112
-0.000117245
-0.000119371
-0.000121486
-0.000123589
-0.000125681
-0.000127761
-0.00012983
-0.000131886
-0.000133925
-0.000135948
-0.000137952
-0.000139936
-0.000141901
-0.000143842
-0.00014576
-0.000147651
-0.000149515
-0.00015135
-0.000153156
-0.000154929
-0.00015667
-0.000158375
-0.00016004
-0.000161666
-0.000163251
-0.000164795
-0.000166295
-0.000167748
-0.000169152
-0.000170505
-0.000171806
-0.000173054
-0.000174246
-0.000175383
-0.000176461
-0.000177479
-0.000178435
-0.000179328
-0.000180158
-0.000180924
-0.000181624
-0.000182258
-0.000182822
-0.000183318
-0.000183747
-0.00018411
-0.000184408
-0.000184641
-0.000184808
-0.000184913
-0.000184958
-0.000184947
-0.000184884
-0.000184773
-0.00018462
-0.00018443
-0.000184204
-0.00018395
-0.000183674
-0.000183352
-0.000182962
1.30586e-05
1.37294e-05
1.44078e-05
1.51149e-05
1.5864e-05
1.66258e-05
1.73715e-05
1.80798e-05
1.8737e-05
1.93331e-05
1.98562e-05
2.02995e-05
2.06623e-05
2.09418e-05
2.11367e-05
2.12477e-05
2.12729e-05
2.12126e-05
2.10703e-05
2.08459e-05
2.05422e-05
2.01616e-05
1.9705e-05
1.91747e-05
1.85719e-05
1.78978e-05
1.7155e-05
1.63454e-05
1.54711e-05
1.4535e-05
1.35393e-05
1.24857e-05
1.13767e-05
1.02147e-05
9.00135e-06
7.73995e-06
6.43405e-06
5.08445e-06
3.69259e-06
2.26113e-06
7.91559e-07
-7.15656e-07
-2.25965e-06
-3.83851e-06
-5.45034e-06
-7.09358e-06
-8.76647e-06
-1.04678e-05
-1.21958e-05
-1.39485e-05
-1.57253e-05
-1.75263e-05
-1.935e-05
-2.11941e-05
-2.30575e-05
-2.49409e-05
-2.68436e-05
-2.87637e-05
-3.07003e-05
-3.26535e-05
-3.46229e-05
-3.66073e-05
-3.86056e-05
-4.06162e-05
-4.26385e-05
-4.46722e-05
-4.67176e-05
-4.87742e-05
-5.08407e-05
-5.29169e-05
-5.5004e-05
-5.71017e-05
-5.92081e-05
-6.13213e-05
-6.34413e-05
-6.55684e-05
-6.77025e-05
-6.98427e-05
-7.19884e-05
-7.41393e-05
-7.62949e-05
-7.8455e-05
-8.06191e-05
-8.27863e-05
-8.49554e-05
-8.71257e-05
-8.92979e-05
-9.14725e-05
-9.36483e-05
-9.58238e-05
-9.79973e-05
-0.000100168
-0.000102337
-0.000104502
-0.000106664
-0.000108821
-0.000110974
-0.000113121
-0.000115263
-0.000117397
-0.000119522
-0.000121636
-0.000123737
-0.000125826
-0.000127904
-0.00012997
-0.000132021
-0.000134055
-0.00013607
-0.000138067
-0.000140045
-0.000142002
-0.000143935
-0.000145843
-0.000147725
-0.000149579
-0.000151404
-0.000153199
-0.000154962
-0.00015669
-0.000158382
-0.000160035
-0.000161648
-0.000163221
-0.000164752
-0.00016624
-0.000167681
-0.000169072
-0.000170413
-0.000171702
-0.000172939
-0.000174122
-0.000175248
-0.000176317
-0.000177326
-0.000178274
-0.00017916
-0.000179984
-0.000180745
-0.000181442
-0.000182072
-0.000182635
-0.000183132
-0.000183563
-0.000183929
-0.000184232
-0.00018447
-0.000184643
-0.000184754
-0.000184804
-0.000184798
-0.00018474
-0.000184633
-0.000184479
-0.000184283
-0.000184045
-0.00018377
-0.000183464
-0.000183095
-0.000182633
1.39796e-05
1.46602e-05
1.53132e-05
1.5965e-05
1.66437e-05
1.73288e-05
1.79972e-05
1.86312e-05
1.92197e-05
1.97509e-05
2.02169e-05
2.06125e-05
2.09316e-05
2.11726e-05
2.1335e-05
2.14174e-05
2.14182e-05
2.13387e-05
2.11791e-05
2.0941e-05
2.06264e-05
2.02368e-05
1.97737e-05
1.92386e-05
1.86319e-05
1.79556e-05
1.72118e-05
1.64023e-05
1.55298e-05
1.45962e-05
1.36033e-05
1.25536e-05
1.14494e-05
1.02918e-05
9.08306e-06
7.82749e-06
6.52711e-06
5.18228e-06
3.7958e-06
2.36968e-06
9.03992e-07
-6.00092e-07
-2.14094e-06
-3.71687e-06
-5.32583e-06
-6.96631e-06
-8.63729e-06
-1.03374e-05
-1.20639e-05
-1.38153e-05
-1.55925e-05
-1.73944e-05
-1.92187e-05
-2.10636e-05
-2.29293e-05
-2.48161e-05
-2.67225e-05
-2.86463e-05
-3.05872e-05
-3.25455e-05
-3.45205e-05
-3.65109e-05
-3.8515e-05
-4.05313e-05
-4.25598e-05
-4.46012e-05
-4.66547e-05
-4.87188e-05
-5.07928e-05
-5.28776e-05
-5.49741e-05
-5.70809e-05
-5.91957e-05
-6.13173e-05
-6.34463e-05
-6.55827e-05
-6.77261e-05
-6.98756e-05
-7.20301e-05
-7.41892e-05
-7.63536e-05
-7.8523e-05
-8.0696e-05
-8.28707e-05
-8.50464e-05
-8.72241e-05
-8.94047e-05
-9.15874e-05
-9.377e-05
-9.59512e-05
-9.81303e-05
-0.000100307
-0.000102481
-0.00010465
-0.000106815
-0.000108976
-0.000111131
-0.000113281
-0.000115425
-0.00011756
-0.000119685
-0.000121798
-0.000123899
-0.000125988
-0.000128064
-0.000130127
-0.000132174
-0.000134203
-0.000136214
-0.000138206
-0.000140177
-0.000142128
-0.000144054
-0.000145955
-0.000147828
-0.000149674
-0.00015149
-0.000153277
-0.00015503
-0.000156748
-0.000158428
-0.00016007
-0.000161673
-0.000163235
-0.000164756
-0.000166233
-0.000167663
-0.000169044
-0.000170374
-0.000171653
-0.000172881
-0.000174054
-0.000175172
-0.000176232
-0.000177234
-0.000178175
-0.000179056
-0.000179875
-0.000180632
-0.000181325
-0.000181952
-0.000182514
-0.000183012
-0.000183445
-0.000183815
-0.00018412
-0.000184362
-0.000184539
-0.000184653
-0.000184706
-0.000184703
-0.000184646
-0.000184538
-0.000184381
-0.000184175
-0.000183922
-0.000183625
-0.000183289
-0.000182875
-0.000182349
1.48364e-05
1.55336e-05
1.61744e-05
1.67928e-05
1.74222e-05
1.80482e-05
1.86549e-05
1.92299e-05
1.97591e-05
2.02337e-05
2.06495e-05
2.09996e-05
2.12787e-05
2.1485e-05
2.16156e-05
2.16691e-05
2.1646e-05
2.15455e-05
2.13684e-05
2.11161e-05
2.07891e-05
2.03895e-05
1.99179e-05
1.93753e-05
1.87631e-05
1.80827e-05
1.7336e-05
1.6525e-05
1.56522e-05
1.47188e-05
1.37269e-05
1.26794e-05
1.15769e-05
1.04217e-05
9.2171e-06
7.96526e-06
6.66758e-06
5.3261e-06
3.94326e-06
2.51983e-06
1.05617e-06
-4.46053e-07
-1.98539e-06
-3.55996e-06
-5.16771e-06
-6.80746e-06
-8.47813e-06
-1.01775e-05
-1.19035e-05
-1.36561e-05
-1.54352e-05
-1.72386e-05
-1.90645e-05
-2.09124e-05
-2.2782e-05
-2.46727e-05
-2.6583e-05
-2.85118e-05
-3.04585e-05
-3.2423e-05
-3.44045e-05
-3.64014e-05
-3.84119e-05
-4.04349e-05
-4.2471e-05
-4.45206e-05
-4.65821e-05
-4.86541e-05
-5.07371e-05
-5.28319e-05
-5.49381e-05
-5.70538e-05
-5.91774e-05
-6.13085e-05
-6.34472e-05
-6.55932e-05
-6.77462e-05
-6.99053e-05
-7.20692e-05
-7.42376e-05
-7.64112e-05
-7.859e-05
-8.07719e-05
-8.29548e-05
-8.51385e-05
-8.73245e-05
-8.95136e-05
-9.17042e-05
-9.38943e-05
-9.60823e-05
-9.82678e-05
-0.000100451
-0.00010263
-0.000104804
-0.000106974
-0.000109138
-0.000111297
-0.000113451
-0.000115597
-0.000117735
-0.000119861
-0.000121975
-0.000124076
-0.000126165
-0.000128241
-0.000130302
-0.000132347
-0.000134372
-0.000136379
-0.000138367
-0.000140335
-0.00014228
-0.0001442
-0.000146095
-0.000147962
-0.0001498
-0.00015161
-0.000153389
-0.000155134
-0.000156843
-0.000158514
-0.000160146
-0.00016174
-0.000163294
-0.000164806
-0.000166273
-0.000167694
-0.000169066
-0.000170387
-0.000171658
-0.000172878
-0.000174044
-0.000175154
-0.000176208
-0.000177202
-0.000178138
-0.000179014
-0.00017983
-0.000180584
-0.000181274
-0.000181899
-0.00018246
-0.000182958
-0.000183393
-0.000183765
-0.000184072
-0.000184316
-0.000184495
-0.000184611
-0.000184666
-0.000184663
-0.000184605
-0.000184494
-0.000184331
-0.000184114
-0.000183844
-0.000183525
-0.00018316
-0.000182704
-0.000182121
1.56642e-05
1.63775e-05
1.70152e-05
1.76123e-05
1.82067e-05
1.87881e-05
1.93468e-05
1.98707e-05
2.03502e-05
2.07783e-05
2.11488e-05
2.14569e-05
2.16997e-05
2.18725e-05
2.19725e-05
2.19992e-05
2.19521e-05
2.18305e-05
2.16356e-05
2.13677e-05
2.10277e-05
2.06167e-05
2.01348e-05
1.95832e-05
1.89638e-05
1.82774e-05
1.75259e-05
1.6712e-05
1.58366e-05
1.49018e-05
1.39099e-05
1.28618e-05
1.17589e-05
1.06051e-05
9.40265e-06
8.15196e-06
6.85579e-06
5.51646e-06
4.13489e-06
2.71194e-06
1.24866e-06
-2.53438e-07
-1.79261e-06
-3.36699e-06
-4.97534e-06
-6.61638e-06
-8.28777e-06
-9.98729e-06
-1.17148e-05
-1.34703e-05
-1.5252e-05
-1.70577e-05
-1.88865e-05
-2.07389e-05
-2.26138e-05
-2.45094e-05
-2.64247e-05
-2.83594e-05
-3.03129e-05
-3.22846e-05
-3.42733e-05
-3.62769e-05
-3.82945e-05
-4.03257e-05
-4.23708e-05
-4.44289e-05
-4.64985e-05
-4.85794e-05
-5.06726e-05
-5.27781e-05
-5.48941e-05
-5.70191e-05
-5.91522e-05
-6.12934e-05
-6.34425e-05
-6.55989e-05
-6.77618e-05
-6.99304e-05
-7.21044e-05
-7.42833e-05
-7.64673e-05
-7.86555e-05
-8.08458e-05
-8.30374e-05
-8.52306e-05
-8.74262e-05
-8.96241e-05
-9.18227e-05
-9.40205e-05
-9.62165e-05
-9.84094e-05
-0.000100599
-0.000102784
-0.000104964
-0.000107139
-0.000109309
-0.000111472
-0.000113631
-0.000115781
-0.000117921
-0.000120049
-0.000122164
-0.000124268
-0.000126358
-0.000128435
-0.000130495
-0.000132537
-0.000134561
-0.000136566
-0.000138552
-0.000140517
-0.000142458
-0.000144374
-0.000146263
-0.000148125
-0.000149958
-0.000151762
-0.000153535
-0.000155273
-0.000156974
-0.000158638
-0.000160263
-0.00016185
-0.000163397
-0.000164902
-0.000166361
-0.000167774
-0.000169138
-0.000170453
-0.000171717
-0.00017293
-0.000174089
-0.000175193
-0.000176241
-0.00017723
-0.000178162
-0.000179035
-0.000179847
-0.000180598
-0.000181286
-0.00018191
-0.000182471
-0.000182969
-0.000183405
-0.000183778
-0.000184087
-0.000184332
-0.000184512
-0.000184629
-0.000184685
-0.000184682
-0.000184622
-0.000184505
-0.000184333
-0.000184104
-0.000183817
-0.000183477
-0.000183085
-0.000182593
-0.000181958
1.64833e-05
1.72164e-05
1.78527e-05
1.84338e-05
1.90036e-05
1.95539e-05
2.00719e-05
2.05529e-05
2.09921e-05
2.13798e-05
2.17107e-05
2.19825e-05
2.21905e-05
2.23311e-05
2.24025e-05
2.24033e-05
2.23324e-05
2.21905e-05
2.19771e-05
2.16931e-05
2.1339e-05
2.09151e-05
2.04216e-05
1.98603e-05
1.92318e-05
1.85378e-05
1.77808e-05
1.69615e-05
1.60818e-05
1.51445e-05
1.415e-05
1.30994e-05
1.19957e-05
1.08418e-05
9.63853e-06
8.3875e-06
7.09179e-06
5.75259e-06
4.37029e-06
2.94631e-06
1.48174e-06
-2.18159e-08
-1.56208e-06
-3.13786e-06
-4.74843e-06
-6.39174e-06
-8.06467e-06
-9.76642e-06
-1.14976e-05
-1.32568e-05
-1.50417e-05
-1.68511e-05
-1.86847e-05
-2.05425e-05
-2.24232e-05
-2.43247e-05
-2.62464e-05
-2.8188e-05
-3.01493e-05
-3.21291e-05
-3.41253e-05
-3.61363e-05
-3.81619e-05
-4.02025e-05
-4.22571e-05
-4.43242e-05
-4.6403e-05
-4.8494e-05
-5.05982e-05
-5.27145e-05
-5.48408e-05
-5.69757e-05
-5.9119e-05
-6.12709e-05
-6.34309e-05
-6.55983e-05
-6.77717e-05
-6.99504e-05
-7.21348e-05
-7.43253e-05
-7.65206e-05
-7.87187e-05
-8.09178e-05
-8.31186e-05
-8.53221e-05
-8.75279e-05
-8.97352e-05
-9.19425e-05
-9.41486e-05
-9.6353e-05
-9.85543e-05
-0.000100751
-0.000102944
-0.000105131
-0.000107312
-0.000109487
-0.000111657
-0.000113821
-0.000115975
-0.000118119
-0.00012025
-0.000122368
-0.000124474
-0.000126567
-0.000128644
-0.000130705
-0.000132747
-0.000134771
-0.000136776
-0.00013876
-0.000140723
-0.000142662
-0.000144575
-0.00014646
-0.000148318
-0.000150148
-0.000151948
-0.000153715
-0.000155448
-0.000157143
-0.000158801
-0.000160422
-0.000162003
-0.000163545
-0.000165043
-0.000166496
-0.000167902
-0.00016926
-0.000170569
-0.000171829
-0.000173036
-0.00017419
-0.000175289
-0.000176331
-0.000177317
-0.000178246
-0.000179117
-0.000179927
-0.000180676
-0.000181363
-0.000181986
-0.000182546
-0.000183045
-0.000183481
-0.000183855
-0.000184165
-0.000184412
-0.000184593
-0.00018471
-0.000184766
-0.000184761
-0.000184697
-0.000184574
-0.000184393
-0.000184151
-0.000183849
-0.000183488
-0.000183072
-0.000182547
-0.000181869
1.73101e-05
1.80631e-05
1.8701e-05
1.92704e-05
1.98222e-05
2.03462e-05
2.08329e-05
2.12802e-05
2.1683e-05
2.20354e-05
2.23331e-05
2.25715e-05
2.27472e-05
2.2858e-05
2.29023e-05
2.28777e-05
2.27845e-05
2.26221e-05
2.23902e-05
2.20898e-05
2.17203e-05
2.12821e-05
2.07764e-05
2.02035e-05
1.95648e-05
1.88627e-05
1.8098e-05
1.72721e-05
1.63876e-05
1.54454e-05
1.44459e-05
1.33923e-05
1.22867e-05
1.11301e-05
9.92464e-06
8.67237e-06
7.37515e-06
6.03399e-06
4.6495e-06
3.22288e-06
1.75558e-06
2.49579e-07
-1.29355e-06
-2.87293e-06
-4.48677e-06
-6.13257e-06
-7.80857e-06
-9.51483e-06
-1.12508e-05
-1.30141e-05
-1.48033e-05
-1.66182e-05
-1.84582e-05
-2.03223e-05
-2.22093e-05
-2.41178e-05
-2.6047e-05
-2.79968e-05
-2.99666e-05
-3.19547e-05
-3.39591e-05
-3.59786e-05
-3.80136e-05
-4.00642e-05
-4.21285e-05
-4.42051e-05
-4.62944e-05
-4.8397e-05
-5.05126e-05
-5.26398e-05
-5.47767e-05
-5.69226e-05
-5.9077e-05
-6.12401e-05
-6.34114e-05
-6.559e-05
-6.77746e-05
-6.99645e-05
-7.21604e-05
-7.43628e-05
-7.65694e-05
-7.8778e-05
-8.09872e-05
-8.31984e-05
-8.54127e-05
-8.7629e-05
-8.98461e-05
-9.20629e-05
-9.42784e-05
-9.64918e-05
-9.87021e-05
-0.000100908
-0.000103108
-0.000105303
-0.000107491
-0.000109674
-0.000111851
-0.000114021
-0.00011618
-0.000118328
-0.000120463
-0.000122585
-0.000124695
-0.000126791
-0.000128871
-0.000130933
-0.000132977
-0.000135002
-0.000137007
-0.000138993
-0.000140955
-0.000142893
-0.000144803
-0.000146686
-0.000148542
-0.000150369
-0.000152167
-0.000153931
-0.000155659
-0.00015735
-0.000159005
-0.000160622
-0.000162199
-0.000163736
-0.000165229
-0.000166677
-0.000168079
-0.000169433
-0.000170738
-0.000171993
-0.000173197
-0.000174346
-0.000175441
-0.00017648
-0.000177463
-0.00017839
-0.00017926
-0.000180069
-0.000180817
-0.000181503
-0.000182126
-0.000182686
-0.000183185
-0.000183622
-0.000183996
-0.000184308
-0.000184555
-0.000184737
-0.000184854
-0.000184909
-0.000184902
-0.000184834
-0.000184705
-0.000184514
-0.000184261
-0.000183943
-0.000183564
-0.000183126
-0.000182573
-0.000181856
1.81565e-05
1.89282e-05
1.95708e-05
2.01326e-05
2.06667e-05
2.11696e-05
2.16336e-05
2.20523e-05
2.24239e-05
2.27459e-05
2.30128e-05
2.32207e-05
2.33673e-05
2.34505e-05
2.34685e-05
2.34203e-05
2.33049e-05
2.31222e-05
2.28725e-05
2.25547e-05
2.21688e-05
2.17161e-05
2.11965e-05
2.06111e-05
1.99621e-05
1.92499e-05
1.84761e-05
1.76431e-05
1.67519e-05
1.58027e-05
1.47977e-05
1.374e-05
1.26302e-05
1.14695e-05
1.02611e-05
9.0061e-06
7.70546e-06
6.36058e-06
4.97218e-06
3.5415e-06
2.07051e-06
5.60774e-07
-9.87078e-07
-2.57141e-06
-4.18924e-06
-5.83876e-06
-7.51996e-06
-9.23209e-06
-1.09733e-05
-1.27417e-05
-1.45368e-05
-1.63585e-05
-1.82059e-05
-2.00773e-05
-2.19717e-05
-2.3888e-05
-2.58259e-05
-2.7785e-05
-2.97639e-05
-3.17606e-05
-3.37737e-05
-3.58032e-05
-3.78489e-05
-3.99098e-05
-4.1984e-05
-4.40711e-05
-4.61722e-05
-4.82872e-05
-5.04147e-05
-5.25531e-05
-5.47012e-05
-5.68587e-05
-5.90252e-05
-6.12004e-05
-6.33834e-05
-6.55733e-05
-6.77696e-05
-6.99721e-05
-7.2181e-05
-7.43955e-05
-7.66132e-05
-7.88326e-05
-8.10534e-05
-8.32763e-05
-8.55017e-05
-8.77288e-05
-8.99565e-05
-9.21837e-05
-9.44095e-05
-9.66329e-05
-9.88528e-05
-0.000101068
-0.000103277
-0.00010548
-0.000107677
-0.000109869
-0.000112054
-0.00011423
-0.000116395
-0.000118548
-0.000120689
-0.000122817
-0.000124932
-0.000127032
-0.000129114
-0.000131179
-0.000133226
-0.000135254
-0.000137262
-0.000139249
-0.000141212
-0.000143149
-0.000145059
-0.000146942
-0.000148797
-0.000150623
-0.000152419
-0.000154181
-0.000155907
-0.000157596
-0.000159249
-0.000160863
-0.000162438
-0.000163971
-0.000165461
-0.000166905
-0.000168304
-0.000169655
-0.000170958
-0.000172211
-0.000173412
-0.000174558
-0.000175649
-0.000176686
-0.000177668
-0.000178595
-0.000179464
-0.000180273
-0.000181021
-0.000181707
-0.000182329
-0.00018289
-0.000183389
-0.000183827
-0.000184203
-0.000184516
-0.000184764
-0.000184946
-0.000185063
-0.000185117
-0.000185108
-0.000185036
-0.0001849
-0.000184701
-0.000184436
-0.000184104
-0.000183709
-0.000183252
-0.000182674
-0.000181925
1.90351e-05
1.98213e-05
2.04692e-05
2.10249e-05
2.1546e-05
2.20322e-05
2.24748e-05
2.28699e-05
2.3216e-05
2.35101e-05
2.37487e-05
2.39293e-05
2.40494e-05
2.41062e-05
2.41e-05
2.40288e-05
2.38917e-05
2.36895e-05
2.34206e-05
2.30849e-05
2.26829e-05
2.22142e-05
2.168e-05
2.10821e-05
2.0421e-05
1.96978e-05
1.89147e-05
1.80731e-05
1.71728e-05
1.6216e-05
1.52051e-05
1.41412e-05
1.30255e-05
1.18601e-05
1.06472e-05
9.38774e-06
8.08235e-06
6.73224e-06
5.33831e-06
3.90244e-06
2.42648e-06
9.11062e-07
-6.42838e-07
-2.23246e-06
-3.85517e-06
-5.51052e-06
-7.19853e-06
-8.91709e-06
-1.06643e-05
-1.24394e-05
-1.42419e-05
-1.60716e-05
-1.79272e-05
-1.98068e-05
-2.17095e-05
-2.36349e-05
-2.55827e-05
-2.75519e-05
-2.95402e-05
-3.1546e-05
-3.35691e-05
-3.56096e-05
-3.76665e-05
-3.9738e-05
-4.18231e-05
-4.39222e-05
-4.6036e-05
-4.81639e-05
-5.03037e-05
-5.24541e-05
-5.46142e-05
-5.67839e-05
-5.8963e-05
-6.11509e-05
-6.33463e-05
-6.5548e-05
-6.77566e-05
-6.99728e-05
-7.21956e-05
-7.44226e-05