/*--------------------------------*- C++ -*----------------------------------*\
  =========                 |
  \\      /  F ield         | OpenFOAM: The Open Source CFD Toolbox
   \\    /   O peration     | Website:  https://openfoam.org
    \\  /    A nd           | Version:  7
     \\/     M anipulation  |
\*---------------------------------------------------------------------------*/
FoamFile
{
    version     2.0;
    format      ascii;
    class       volScalarField;
    location    "0.3125";
    object      p;
}
// * * * * * * * * * * * * * * * * * * * * * * * * * * * * * * * * * * * * * //

dimensions      [0 2 -2 0 0 0 0];

internalField   nonuniform List<scalar> 
12800
(
3.95239e-07
0.000182747
-0.000902275
-0.00334637
-0.00690427
-0.0113292
-0.0163877
-0.0218666
-0.0275791
-0.0333649
-0.039088
-0.0446329
-0.0499023
-0.0548148
-0.0593024
-0.0633089
-0.0667887
-0.069705
-0.0720291
-0.0737391
-0.0748192
-0.0752591
-0.0750529
-0.0741989
-0.0726992
-0.0705586
-0.0677849
-0.0643879
-0.0603796
-0.0557736
-0.0505847
-0.044829
-0.0385235
-0.0316857
-0.0243338
-0.0164863
-0.0081619
0.000620699
0.00984273
0.0194856
0.029531
0.0399608
0.0507574
0.0619034
0.0733821
0.0851773
0.0972731
0.109654
0.122307
0.135216
0.148369
0.161752
0.175355
0.189165
0.203171
0.217363
0.231732
0.246268
0.260962
0.275808
0.290796
0.305921
0.321176
0.336554
0.352051
0.367661
0.383379
0.399202
0.415124
0.431142
0.447253
0.463454
0.479741
0.496112
0.512565
0.529096
0.545704
0.562386
0.579141
0.595966
0.612859
0.629817
0.646839
0.663922
0.681064
0.698262
0.715512
0.732812
0.750158
0.767546
0.784973
0.802433
0.819921
0.837432
0.854959
0.872496
0.890036
0.90757
0.92509
0.942586
0.960048
0.977465
0.994826
1.01212
1.02932
1.04643
1.06343
1.0803
1.09701
1.11357
1.12993
1.14609
1.16203
1.17771
1.19312
1.20823
1.22302
1.23746
1.25152
1.26518
1.27841
1.29118
1.30347
1.31524
1.32646
1.33711
1.34716
1.35659
1.36535
1.37344
1.38082
1.38747
1.39338
1.39852
1.40287
1.40643
1.40918
1.41112
1.41225
1.41257
1.41208
1.41081
1.40877
1.40599
1.40252
1.39838
1.39365
1.38839
1.38267
1.3766
1.37029
1.36388
1.35751
1.35137
1.34568
1.34068
1.33663
1.33382
1.33254
1.3327
-0.00018131
1.80964e-06
-0.00100109
-0.00313334
-0.00617112
-0.00993901
-0.0142632
-0.0189731
-0.0239121
-0.0289409
-0.0339375
-0.0387959
-0.0434247
-0.0477462
-0.0516943
-0.0552138
-0.0582586
-0.0607913
-0.0627818
-0.0642064
-0.0650476
-0.0652927
-0.0649337
-0.0639666
-0.062391
-0.0602093
-0.0574268
-0.054051
-0.0500917
-0.0455599
-0.0404684
-0.0348311
-0.0286628
-0.0219792
-0.0147965
-0.00713143
0.000999072
0.00957784
0.0185877
0.0280113
0.0378319
0.0480324
0.0585964
0.0695077
0.0807503
0.0923089
0.104169
0.116315
0.128734
0.141412
0.154336
0.167495
0.180876
0.194468
0.20826
0.222243
0.236406
0.250742
0.26524
0.279894
0.294696
0.309638
0.324715
0.339919
0.355246
0.37069
0.386246
0.401909
0.417675
0.43354
0.449501
0.465554
0.481695
0.497921
0.51423
0.530619
0.547085
0.563625
0.580238
0.596919
0.613668
0.630481
0.647355
0.664288
0.681277
0.698318
0.715409
0.732545
0.749723
0.766938
0.784187
0.801463
0.818761
0.836076
0.853401
0.870729
0.888052
0.905363
0.922652
0.939909
0.957125
0.974288
0.991386
1.00841
1.02534
1.04216
1.05886
1.07543
1.09184
1.10808
1.12413
1.13997
1.15557
1.17093
1.186
1.20078
1.21523
1.22934
1.24307
1.25641
1.26931
1.28177
1.29375
1.30523
1.31617
1.32655
1.33636
1.34555
1.35411
1.36201
1.36924
1.37577
1.38158
1.38666
1.391
1.39458
1.3974
1.39946
1.40075
1.40128
1.40106
1.40011
1.39845
1.39611
1.39314
1.38956
1.38545
1.38087
1.37589
1.37061
1.36513
1.35958
1.3541
1.34884
1.344
1.33975
1.33631
1.33387
1.3327
1.33287
0.000902816
0.00100579
2.12613e-06
-0.0019821
-0.00473171
-0.0081045
-0.0119602
-0.0161572
-0.020562
-0.0250532
-0.0295219
-0.0338717
-0.0380183
-0.0418885
-0.0454194
-0.0485576
-0.0512584
-0.0534844
-0.0552052
-0.0563967
-0.0570402
-0.0571218
-0.0566321
-0.0555656
-0.0539201
-0.0516965
-0.0488982
-0.0455311
-0.041603
-0.0371233
-0.0321031
-0.0265546
-0.020491
-0.0139264
-0.00687557
0.000646318
0.00862363
0.0170405
0.025881
0.035129
0.0447687
0.0547842
0.0651598
0.0758803
0.0869306
0.098296
0.109962
0.121915
0.134142
0.14663
0.159365
0.172337
0.185534
0.198945
0.212559
0.226366
0.240358
0.254525
0.268859
0.283351
0.297995
0.312783
0.327708
0.342765
0.357947
0.373249
0.388667
0.404194
0.419826
0.43556
0.451392
0.467317
0.483331
0.499433
0.515618
0.531884
0.548227
0.564644
0.581133
0.597691
0.614315
0.631001
0.647748
0.664551
0.681408
0.698315
0.715268
0.732264
0.749297
0.766365
0.78346
0.80058
0.817717
0.834865
0.852019
0.86917
0.886311
0.903433
0.920527
0.937584
0.954594
0.971544
0.988424
1.00522
1.02192
1.03851
1.05497
1.07129
1.08745
1.10343
1.11922
1.1348
1.15014
1.16522
1.18003
1.19453
1.20872
1.22255
1.23602
1.24909
1.26175
1.27395
1.28569
1.29693
1.30765
1.31783
1.32744
1.33646
1.34486
1.35263
1.35974
1.36618
1.37193
1.37697
1.38131
1.38492
1.3878
1.38995
1.39138
1.39209
1.39209
1.3914
1.39004
1.38806
1.38547
1.38233
1.3787
1.37463
1.3702
1.3655
1.36063
1.3557
1.35083
1.34616
1.34185
1.33806
1.33496
1.3327
1.33153
1.33159
0.0033485
0.00314134
0.00198482
-4.62197e-06
-0.00264769
-0.00582074
-0.00940381
-0.0132763
-0.0173234
-0.021439
-0.0255265
-0.0294992
-0.0332799
-0.036801
-0.0400038
-0.0428378
-0.04526
-0.0472343
-0.0487311
-0.0497262
-0.0502007
-0.0501404
-0.049535
-0.048378
-0.0466661
-0.0443992
-0.0415794
-0.0382113
-0.0343014
-0.0298577
-0.0248901
-0.0194093
-0.0134273
-0.00695693
-1.17057e-05
0.00739435
0.0152467
0.0235307
0.0322314
0.0413336
0.0508225
0.0606829
0.0709002
0.0814597
0.0923471
0.103548
0.11505
0.126838
0.1389
0.151224
0.163796
0.176607
0.189644
0.202897
0.216356
0.230011
0.243852
0.257871
0.27206
0.28641
0.300914
0.315565
0.330357
0.345282
0.360335
0.375511
0.390804
0.406209
0.421721
0.437337
0.453052
0.468861
0.484762
0.500751
0.516823
0.532977
0.549208
0.565514
0.581891
0.598336
0.614846
0.631419
0.648049
0.664735
0.681472
0.698257
0.715086
0.731955
0.748859
0.765793
0.782753
0.799732
0.816725
0.833725
0.850726
0.867721
0.8847
0.901656
0.91858
0.935462
0.952291
0.969056
0.985746
1.00235
1.01885
1.03523
1.05149
1.0676
1.08354
1.09931
1.11487
1.13022
1.14534
1.1602
1.17478
1.18906
1.20301
1.21663
1.22988
1.24273
1.25517
1.26718
1.27872
1.28977
1.30031
1.31032
1.31978
1.32865
1.33693
1.3446
1.35162
1.35799
1.3637
1.36873
1.37306
1.37671
1.37965
1.38189
1.38344
1.3843
1.38448
1.38401
1.38291
1.3812
1.37893
1.37614
1.37287
1.3692
1.36519
1.36092
1.35648
1.35198
1.34752
1.34323
1.33923
1.33568
1.3327
1.33044
1.32909
1.32878
0.00691872
0.00619111
0.00473787
0.00262641
-2.72647e-05
-0.00311713
-0.0065401
-0.0101945
-0.0139825
-0.0178123
-0.0215992
-0.025266
-0.0287434
-0.0319697
-0.0348909
-0.0374601
-0.0396367
-0.0413865
-0.042681
-0.0434969
-0.0438154
-0.0436221
-0.0429066
-0.0416618
-0.0398838
-0.0375714
-0.0347258
-0.0313507
-0.0274514
-0.023035
-0.01811
-0.0126862
-0.00677429
-0.000386079
0.00646606
0.0137691
0.0215097
0.0296741
0.0382481
0.0472178
0.0565689
0.0662872
0.0763588
0.0867698
0.0975064
0.108555
0.119903
0.131537
0.143446
0.155615
0.168035
0.180694
0.19358
0.206684
0.219996
0.233505
0.247204
0.261082
0.275132
0.289346
0.303716
0.318236
0.332898
0.347696
0.362625
0.377678
0.392851
0.408137
0.423533
0.439033
0.454634
0.47033
0.48612
0.501997
0.51796
0.534003
0.550125
0.566321
0.582588
0.598922
0.615321
0.631781
0.648298
0.664868
0.681489
0.698155
0.714862
0.731607
0.748385
0.76519
0.782016
0.79886
0.815714
0.832571
0.849425
0.866269
0.883094
0.899891
0.916652
0.933366
0.950024
0.966614
0.983124
0.999542
1.01586
1.03205
1.04811
1.06402
1.07976
1.09533
1.11069
1.12583
1.14074
1.15539
1.16976
1.18383
1.19758
1.211
1.22404
1.2367
1.24895
1.26077
1.27214
1.28302
1.29341
1.30327
1.31259
1.32135
1.32952
1.33709
1.34405
1.35037
1.35604
1.36106
1.36541
1.36908
1.37209
1.37442
1.37608
1.37708
1.37744
1.37716
1.37628
1.37482
1.37283
1.37033
1.36738
1.36404
1.36038
1.35645
1.35236
1.34818
1.34402
1.33997
1.33617
1.33271
1.32972
1.32732
1.32564
1.32473
0.0113774
0.00998777
0.00812568
0.00579344
0.00302954
-7.6702e-05
-0.00343675
-0.00696615
-0.0105827
-0.0142078
-0.017768
-0.0211955
-0.0244288
-0.0274125
-0.0300975
-0.0324408
-0.0344049
-0.035958
-0.037073
-0.0377278
-0.0379043
-0.0375885
-0.03677
-0.0354414
-0.0335985
-0.0312395
-0.0283652
-0.0249781
-0.021083
-0.0166859
-0.0117944
-0.00641737
-0.000564627
0.0057531
0.0125244
0.0197371
0.0273788
0.0354367
0.0438974
0.0527478
0.0619744
0.0715639
0.0815029
0.0917782
0.102377
0.113285
0.124492
0.135984
0.147749
0.159776
0.172054
0.18457
0.197316
0.21028
0.223454
0.236826
0.250389
0.264134
0.278053
0.292138
0.306381
0.320775
0.335314
0.349991
0.3648
0.379735
0.394791
0.409963
0.425246
0.440635
0.456125
0.471713
0.487394
0.503163
0.519019
0.534956
0.55097
0.567059
0.583219
0.599446
0.615736
0.632086
0.648492
0.664951
0.681457
0.698008
0.714598
0.731223
0.747878
0.764558
0.781257
0.79797
0.81469
0.83141
0.848124
0.864824
0.881502
0.898148
0.914755
0.931311
0.947807
0.964232
0.980574
0.99682
1.01296
1.02897
1.04485
1.06058
1.07614
1.09151
1.10669
1.12164
1.13636
1.15082
1.165
1.17888
1.19245
1.20568
1.21855
1.23103
1.24311
1.25477
1.26598
1.27672
1.28696
1.2967
1.3059
1.31456
1.32264
1.33014
1.33704
1.34332
1.34897
1.35398
1.35835
1.36207
1.36513
1.36755
1.36932
1.37045
1.37095
1.37085
1.37017
1.36893
1.36717
1.36492
1.36224
1.35917
1.35578
1.35213
1.34829
1.34434
1.34037
1.33648
1.33274
1.32927
1.32616
1.32352
1.32137
1.31971
0.0165034
0.0143665
0.0120151
0.00938264
0.00642526
0.0032175
-0.000164395
-0.00365146
-0.00717552
-0.0106701
-0.0140723
-0.0173233
-0.020369
-0.0231605
-0.0256538
-0.0278099
-0.0295949
-0.0309793
-0.0319384
-0.0324512
-0.0325008
-0.032074
-0.0311605
-0.0297533
-0.0278479
-0.0254423
-0.0225369
-0.0191337
-0.0152368
-0.0108516
-0.00598498
-0.000644985
0.00515936
0.0114181
0.0181207
0.0252559
0.0328118
0.0407766
0.0491377
0.0578825
0.0669985
0.0764729
0.0862929
0.096446
0.10692
0.117701
0.128779
0.140141
0.151776
0.163672
0.175819
0.188205
0.20082
0.213655
0.2267
0.239945
0.253382
0.267002
0.280798
0.294761
0.308884
0.32316
0.337582
0.352144
0.36684
0.381663
0.396609
0.411672
0.426847
0.442129
0.457513
0.472996
0.488572
0.504239
0.519991
0.535824
0.551736
0.567722
0.583778
0.599901
0.616086
0.632331
0.64863
0.66498
0.681377
0.697817
0.714294
0.730804
0.747342
0.763902
0.780479
0.797068
0.813661
0.830251
0.846832
0.863396
0.879935
0.89644
0.912902
0.92931
0.945656
0.961927
0.978112
0.994199
1.01018
1.02603
1.04174
1.0573
1.07269
1.08789
1.1029
1.11768
1.13222
1.14651
1.16052
1.17424
1.18764
1.20071
1.21342
1.22575
1.23769
1.2492
1.26028
1.27089
1.28102
1.29065
1.29976
1.30833
1.31634
1.32378
1.33063
1.33688
1.34253
1.34754
1.35194
1.3557
1.35882
1.36131
1.36318
1.36443
1.36507
1.36512
1.36461
1.36355
1.36199
1.35995
1.35748
1.35462
1.35144
1.34798
1.34432
1.34052
1.33666
1.33281
1.32906
1.32548
1.32215
1.31917
1.31648
1.31398
0.0220953
0.0191655
0.0162714
0.0132791
0.0100632
0.00668566
0.00321251
-0.000301021
-0.00379938
-0.0072271
-0.0105309
-0.0136604
-0.0165688
-0.0192134
-0.0215552
-0.0235597
-0.0251963
-0.0264385
-0.0272636
-0.0276527
-0.02759
-0.0270633
-0.026063
-0.0245824
-0.0226172
-0.0201656
-0.0172274
-0.0138046
-0.0099008
-0.00552096
-0.000671359
0.00464056
0.0104064
0.0166169
0.0232622
0.0303316
0.0378142
0.0456985
0.0539729
0.0626253
0.0716438
0.0810162
0.0907304
0.100774
0.111136
0.121803
0.132765
0.144009
0.155525
0.167302
0.179328
0.191595
0.20409
0.216806
0.229732
0.242859
0.256179
0.269683
0.283364
0.297213
0.311224
0.325389
0.339701
0.354154
0.368743
0.38346
0.398301
0.41326
0.428332
0.443512
0.458796
0.474178
0.489655
0.505221
0.520874
0.536609
0.552421
0.568308
0.584264
0.600287
0.616371
0.632514
0.648711
0.664957
0.681249
0.697581
0.71395
0.73035
0.746776
0.763223
0.779684
0.796154
0.812627
0.829094
0.84555
0.861986
0.878395
0.894767
0.911093
0.927364
0.943569
0.959697
0.975738
0.991678
1.00751
1.02321
1.03877
1.05418
1.06941
1.08446
1.09931
1.11394
1.12833
1.14247
1.15633
1.1699
1.18316
1.19608
1.20865
1.22085
1.23266
1.24406
1.25502
1.26552
1.27555
1.2851
1.29413
1.30263
1.31059
1.31798
1.32481
1.33104
1.33668
1.34171
1.34613
1.34993
1.35312
1.35569
1.35764
1.359
1.35976
1.35994
1.35957
1.35867
1.35727
1.35539
1.35309
1.35039
1.34736
1.34404
1.34049
1.33676
1.33293
1.32905
1.3252
1.32143
1.31782
1.31444
1.31114
1.30776
0.027978
0.0242365
0.0207673
0.0173731
0.0138497
0.0102489
0.00662885
0.00303249
-0.000495789
-0.00391041
-0.00716688
-0.0102227
-0.013038
-0.0155757
-0.0178021
-0.0196869
-0.0212031
-0.0223272
-0.0230389
-0.0233212
-0.0231599
-0.022544
-0.0214647
-0.019916
-0.0178939
-0.0153968
-0.0124247
-0.00897934
-0.00506408
-0.000683622
0.00415614
0.00944824
0.0151848
0.021357
0.0279556
0.0349705
0.0423914
0.0502073
0.0584072
0.0669796
0.0759131
0.0851961
0.094817
0.104764
0.115026
0.125592
0.136449
0.147587
0.158996
0.170665
0.182582
0.194739
0.207125
0.219731
0.232548
0.245566
0.258778
0.272175
0.285749
0.299493
0.313398
0.327459
0.341668
0.35602
0.370507
0.385124
0.399866
0.414727
0.429701
0.444784
0.459971
0.475258
0.490639
0.506111
0.521668
0.537308
0.553025
0.568816
0.584677
0.600603
0.616591
0.632636
0.648734
0.664881
0.681072
0.697303
0.713568
0.729863
0.746182
0.762521
0.778872
0.79523
0.811588
0.827939
0.844277
0.860593
0.876879
0.893127
0.909327
0.92547
0.941545
0.957542
0.97345
0.989256
1.00495
1.02051
1.03594
1.0512
1.0663
1.08121
1.09592
1.11042
1.12467
1.13867
1.15241
1.16585
1.17898
1.19178
1.20423
1.21632
1.22802
1.23931
1.25018
1.2606
1.27055
1.28002
1.28899
1.29744
1.30536
1.31273
1.31953
1.32576
1.33141
1.33646
1.34091
1.34476
1.348
1.35064
1.35268
1.35413
1.355
1.3553
1.35505
1.35427
1.353
1.35125
1.34907
1.34649
1.34356
1.34032
1.33682
1.33311
1.32924
1.32527
1.32126
1.31724
1.31329
1.30947
1.30553
1.30125
0.0340005
0.0294471
0.0253862
0.0215619
0.0176954
0.0138307
0.0100196
0.00629472
0.00269053
-0.000756161
-0.00400883
-0.00703219
-0.00979265
-0.0122588
-0.0144019
-0.0161956
-0.0176167
-0.0186446
-0.0192616
-0.0194527
-0.0192056
-0.0185104
-0.0173595
-0.0157477
-0.0136716
-0.0111299
-0.00812275
-0.00465211
-0.000721217
0.00366539
0.00850205
0.0137821
0.019498
0.0256414
0.0322035
0.0391746
0.0465448
0.0543039
0.062441
0.0709455
0.0798062
0.089012
0.0985518
0.108414
0.118589
0.129064
0.139829
0.150873
0.162186
0.173757
0.185577
0.197634
0.209921
0.222428
0.235145
0.248064
0.261176
0.274474
0.28795
0.301595
0.315403
0.329367
0.343481
0.357737
0.372129
0.386653
0.401301
0.416069
0.430951
0.445942
0.461038
0.476233
0.491524
0.506904
0.522372
0.53792
0.553547
0.569247
0.585016
0.60085
0.616745
0.632697
0.648701
0.664752
0.680847
0.69698
0.713147
0.729342
0.74556
0.761795
0.778042
0.794294
0.810545
0.826787
0.843014
0.859217
0.87539
0.891522
0.907605
0.923629
0.939585
0.955461
0.971246
0.986929
1.0025
1.01794
1.03324
1.04838
1.06336
1.07814
1.09273
1.1071
1.12124
1.13513
1.14874
1.16207
1.17509
1.18779
1.20015
1.21214
1.22375
1.23496
1.24575
1.2561
1.26599
1.27541
1.28434
1.29275
1.30064
1.308
1.3148
1.32103
1.32669
1.33177
1.33626
1.34015
1.34346
1.34616
1.34828
1.34981
1.35077
1.35117
1.35102
1.35035
1.34918
1.34753
1.34544
1.34293
1.34006
1.33685
1.33335
1.3296
1.32565
1.32154
1.31731
1.313
1.30867
1.30438
1.29979
1.29461
0.040034
0.0346799
0.0300224
0.0257508
0.0215164
0.0173575
0.0133213
0.00943153
0.00571397
0.00219775
-0.00108772
-0.00411366
-0.00685238
-0.00927772
-0.0113654
-0.0130934
-0.0144419
-0.0153933
-0.0159324
-0.0160466
-0.0157252
-0.0149598
-0.0137441
-0.0120738
-0.00994619
-0.00736051
-0.00431737
-0.000818858
0.00313167
0.00752969
0.0123696
0.0176451
0.0233486
0.0294723
0.0360075
0.0429451
0.0502755
0.0579888
0.0660747
0.0745227
0.0833223
0.0924628
0.101933
0.111723
0.121822
0.132219
0.142903
0.153864
0.165092
0.176577
0.188309
0.200278
0.212476
0.224892
0.237519
0.250348
0.26337
0.276577
0.289962
0.303518
0.317236
0.331111
0.345135
0.359303
0.373607
0.388042
0.402603
0.417284
0.432079
0.446984
0.461994
0.477103
0.492307
0.507602
0.522983
0.538445
0.553985
0.569598
0.58528
0.601026
0.616833
0.632696
0.64861
0.66457
0.680573
0.696614
0.712687
0.728787
0.744909
0.761047
0.777195
0.793347
0.809497
0.825637
0.84176
0.857859
0.873925
0.88995
0.905925
0.92184
0.937685
0.953451
0.969125
0.984697
1.00015
1.01548
1.03067
1.0457
1.06057
1.07525
1.08973
1.104
1.11803
1.13181
1.14533
1.15857
1.1715
1.18411
1.19639
1.2083
1.21984
1.23099
1.24172
1.25202
1.26187
1.27125
1.28015
1.28854
1.29642
1.30377
1.31058
1.31683
1.32251
1.32762
1.33216
1.3361
1.33946
1.34223
1.34442
1.34603
1.34707
1.34755
1.34749
1.3469
1.3458
1.34423
1.34219
1.33973
1.33687
1.33366
1.33012
1.32629
1.32221
1.31791
1.31344
1.30881
1.30407
1.29928
1.29404
1.28799
0.045968
0.0398316
0.0345806
0.029853
0.0252347
0.02076
0.016473
0.0123898
0.0085289
0.00491257
0.00156396
-0.00149404
-0.00423908
-0.00664989
-0.00870657
-0.0103909
-0.0116864
-0.0125785
-0.0130548
-0.0131045
-0.012719
-0.0118915
-0.010617
-0.00889217
-0.00671526
-0.00408607
-0.00100575
0.00252326
0.00649737
0.010912
0.0157614
0.0210394
0.0267387
0.0328514
0.0393693
0.0462833
0.0535843
0.0612626
0.0693083
0.0777113
0.0864613
0.0955481
0.104961
0.11469
0.124724
0.135054
0.145668
0.156558
0.167712
0.179121
0.190776
0.202668
0.214786
0.227123
0.239669
0.252416
0.265356
0.278482
0.291785
0.305258
0.318895
0.332687
0.346629
0.360715
0.374938
0.389291
0.403771
0.41837
0.433084
0.447908
0.462836
0.477864
0.492987
0.508201
0.5235
0.538881
0.554339
0.569869
0.585468
0.601131
0.616854
0.632632
0.64846
0.664335
0.680251
0.696203
0.712187
0.728198
0.744229
0.760275
0.77633
0.792389
0.808444
0.824488
0.840515
0.856516
0.872484
0.88841
0.904285
0.9201
0.935846
0.951511
0.967084
0.982555
0.997912
1.01314
1.02823
1.04317
1.05794
1.07252
1.08691
1.10109
1.11503
1.12873
1.14217
1.15533
1.16819
1.18073
1.19294
1.2048
1.21629
1.22738
1.23808
1.24834
1.25816
1.26752
1.27641
1.2848
1.29268
1.30004
1.30686
1.31314
1.31886
1.32401
1.32859
1.33259
1.33601
1.33884
1.3411
1.34278
1.34389
1.34445
1.34445
1.34393
1.34289
1.34135
1.33935
1.3369
1.33403
1.33078
1.32716
1.32322
1.31898
1.31447
1.30972
1.30474
1.29958
1.2943
1.28841
1.28151
0.0517071
0.0448112
0.0389752
0.0337892
0.0287778
0.0239728
0.0194163
0.015118
0.0110902
0.0073492
0.00391267
0.000798241
-0.00197664
-0.00439514
-0.00644144
-0.00810094
-0.00936045
-0.0102083
-0.0106346
-0.0106307
-0.0101901
-0.00930739
-0.00797907
-0.00620295
-0.00397827
-0.00130557
0.00181339
0.0053757
0.00937746
0.0138138
0.018679
0.0239666
0.0296695
0.0357799
0.0422896
0.0491899
0.0564717
0.0641256
0.072142
0.080511
0.0892227
0.0982671
0.107634
0.117313
0.127295
0.137569
0.148125
0.158953
0.170045
0.181389
0.192978
0.204801
0.21685
0.229116
0.241591
0.254266
0.267134
0.280186
0.293415
0.306814
0.320376
0.334094
0.347962
0.361972
0.37612
0.390398
0.404802
0.419326
0.433965
0.448713
0.463565
0.478517
0.493564
0.508701
0.523923
0.539227
0.554607
0.57006
0.58558
0.601164
0.616807
0.632504
0.648252
0.664045
0.679879
0.695748
0.711648
0.727574
0.743519
0.759479
0.775448
0.791419
0.807385
0.82334
0.839277
0.855188
0.871066
0.886901
0.902685
0.918409
0.934063
0.949638
0.965121
0.980503
0.99577
1.01091
1.02592
1.04077
1.05545
1.06996
1.08427
1.09837
1.11224
1.12587
1.13925
1.15234
1.16515
1.17764
1.1898
1.20162
1.21307
1.22414
1.2348
1.24505
1.25486
1.26422
1.2731
1.2815
1.2894
1.29678
1.30364
1.30995
1.31571
1.32091
1.32554
1.3296
1.33308
1.33598
1.33831
1.34005
1.34123
1.34185
1.34191
1.34143
1.34043
1.33892
1.33693
1.33447
1.33156
1.32824
1.32453
1.32044
1.31601
1.31126
1.30621
1.30087
1.29529
1.2895
1.28298
1.27527
0.0571684
0.0495381
0.0431294
0.0374874
0.032079
0.0269347
0.0220957
0.0175663
0.0133535
0.00946863
0.00592435
0.00273367
-9.03673e-05
-0.00253501
-0.0045882
-0.00623874
-0.00747656
-0.00829279
-0.00867989
-0.00863163
-0.00814316
-0.00721097
-0.00583285
-0.00400787
-0.0017363
0.000980453
0.00413993
0.00773868
0.0117724
0.0162358
0.021123
0.0264274
0.0321418
0.0382584
0.0447691
0.0516653
0.0589379
0.0665779
0.0745757
0.0829218
0.0916063
0.100619
0.109951
0.119592
0.129532
0.139761
0.15027
0.161049
0.172088
0.183378
0.194911
0.206676
0.218666
0.230872
0.243284
0.255897
0.2687
0.281688
0.294851
0.308184
0.321679
0.33533
0.34913
0.363072
0.377151
0.391361
0.405696
0.42015
0.434719
0.449397
0.464179
0.47906
0.494035
0.509101
0.524251
0.539482
0.554789
0.570168
0.585615
0.601124
0.616692
0.632314
0.647985
0.663701
0.679457
0.695248
0.711069
0.726915
0.74278
0.75866
0.774547
0.790436
0.80632
0.822193
0.838047
0.853875
0.869669
0.885421
0.901123
0.916764
0.932337
0.94783
0.963233
0.978535
0.993725
1.00879
1.02372
1.0385
1.05311
1.06755
1.0818
1.09584
1.10965
1.12323
1.13655
1.14961
1.16237
1.17482
1.18696
1.19875
1.21018
1.22123
1.23189
1.24214
1.25195
1.26132
1.27022
1.27865
1.28657
1.29399
1.30089
1.30725
1.31306
1.31832
1.32301
1.32713
1.33067
1.33364
1.33603
1.33784
1.33908
1.33975
1.33986
1.33942
1.33844
1.33695
1.33494
1.33245
1.32949
1.32608
1.32224
1.31799
1.31336
1.30835
1.30299
1.29728
1.29126
1.28498
1.27785
1.26934
0.0622798
0.0539411
0.0469743
0.0408818
0.0350765
0.0295884
0.0244585
0.0196869
0.0152758
0.0112323
0.00756476
0.00428208
0.00139336
-0.00109238
-0.00316654
-0.00482112
-0.00604898
-0.00684392
-0.00720077
-0.00711547
-0.00658505
-0.00560769
-0.00418265
-0.00231027
8.0996e-06
0.00277012
0.00597256
0.00961132
0.0136815
0.0181776
0.0230933
0.0284218
0.0341556
0.0402871
0.046808
0.0537097
0.0609832
0.0686196
0.0766095
0.0849434
0.0936118
0.102605
0.111913
0.121527
0.131436
0.141632
0.152105
0.162844
0.173842
0.185089
0.196575
0.208293
0.220233
0.232388
0.244748
0.257306
0.270055
0.282986
0.296092
0.309367
0.322803
0.336394
0.350133
0.364014
0.378031
0.392179
0.406451
0.420842
0.435346
0.44996
0.464676
0.479492
0.494401
0.5094
0.524483
0.539646
0.554885
0.570196
0.585572
0.601012
0.616509
0.632059
0.647659
0.663302
0.678985
0.694703
0.71045
0.726221
0.742011
0.757815
0.773627
0.78944
0.805248
0.821044
0.836822
0.852574
0.868292
0.883969
0.899596
0.915164
0.930663
0.946084
0.961416
0.97665
0.991772
1.00677
1.02164
1.03636
1.05092
1.0653
1.07949
1.09349
1.10726
1.1208
1.13408
1.1471
1.15984
1.17228
1.1844
1.19618
1.2076
1.21866
1.22933
1.23959
1.24942
1.25882
1.26775
1.27622
1.28419
1.29165
1.2986
1.30502
1.3109
1.31622
1.32098
1.32517
1.32878
1.33182
1.33427
1.33615
1.33744
1.33816
1.33831
1.3379
1.33694
1.33544
1.33341
1.33087
1.32784
1.32432
1.32034
1.31592
1.31106
1.30579
1.30011
1.29402
1.28757
1.28081
1.27307
1.26382
0.0669776
0.0579565
0.0504474
0.0439125
0.0377134
0.0318805
0.0264552
0.021434
0.0168152
0.0126022
0.00879976
0.00541298
0.00244747
-9.11421e-05
-0.00219741
-0.00386634
-0.00509353
-0.00587531
-0.00620883
-0.00609209
-0.00552404
-0.0045045
-0.00303422
-0.00111485
0.00125113
0.00406039
0.00730886
0.0109917
0.0151036
0.0196383
0.0245892
0.0299492
0.0357108
0.0418659
0.0484061
0.055323
0.0626076
0.0702508
0.0782434
0.086576
0.0952392
0.104223
0.113519
0.123117
0.133007
0.14318
0.153627
0.164339
0.175306
0.186519
0.19797
0.20965
0.221551
0.233663
0.245981
0.258494
0.271196
0.28408
0.297137
0.310362
0.323746
0.337285
0.350971
0.364798
0.37876
0.392851
0.407067
0.4214
0.435847
0.450401
0.465058
0.479813
0.494661
0.509598
0.524619
0.53972
0.554895
0.570141
0.585453
0.600826
0.616257
0.631741
0.647273
0.662849
0.678463
0.694112
0.70979
0.725492
0.741212
0.756946
0.772687
0.78843
0.804167
0.819894
0.835602
0.851285
0.866934
0.882543
0.898103
0.913605
0.929039
0.944397
0.959669
0.974843
0.989908
1.00485
1.01967
1.03434
1.04885
1.06319
1.07735
1.09131
1.10505
1.11856
1.13183
1.14483
1.15756
1.16999
1.18211
1.1939
1.20534
1.21641
1.2271
1.23739
1.24727
1.2567
1.26568
1.2742
1.28223
1.28976
1.29677
1.30326
1.30921
1.3146
1.31944
1.3237
1.32739
1.3305
1.33303
1.33496
1.33631
1.33708
1.33727
1.33688
1.33592
1.33441
1.33235
1.32975
1.32663
1.323
1.31887
1.31426
1.30917
1.30363
1.29762
1.29115
1.28428
1.27704
1.26873
1.25875
0.0712055
0.0615275
0.0534925
0.0465245
0.039937
0.0337609
0.0280386
0.0227637
0.0179312
0.0135413
0.00959553
0.00609575
0.0030444
0.000444071
-0.00170274
-0.00339378
-0.00462726
-0.00540189
-0.00571704
-0.00557275
-0.00496978
-0.00390964
-0.00239456
-0.000427512
0.00198785
0.00484718
0.00814551
0.0118773
0.0160363
0.0206161
0.0256094
0.0310089
0.0368065
0.0429942
0.0495633
0.0565053
0.0638111
0.0714716
0.0794776
0.0878198
0.0964888
0.105475
0.114769
0.124362
0.134244
0.144406
0.154838
0.165532
0.176479
0.18767
0.199095
0.210748
0.222618
0.234699
0.246982
0.25946
0.272125
0.284969
0.297986
0.311168
0.32451
0.338003
0.351643
0.365423
0.379337
0.393379
0.407543
0.421825
0.43622
0.450721
0.465323
0.480024
0.494816
0.509696
0.52466
0.539702
0.554818
0.570004
0.585256
0.600568
0.615938
0.631359
0.646828
0.66234
0.677891
0.693476
0.709089
0.724726
0.740382
0.756051
0.771727
0.787405
0.803078
0.818741
0.834385
0.850005
0.865593
0.881142
0.896642
0.912086
0.927464
0.942768
0.957987
0.973111
0.988129
1.00303
1.0178
1.03244
1.04691
1.06123
1.07536
1.08929
1.10302
1.11652
1.12978
1.14278
1.15551
1.16796
1.18009
1.1919
1.20337
1.21448
1.22521
1.23554
1.24547
1.25496
1.26401
1.27259
1.28069
1.28829
1.29539
1.30196
1.30799
1.31347
1.31839
1.32274
1.32651
1.3297
1.33229
1.3343
1.3357
1.33652
1.33674
1.33637
1.33542
1.33389
1.33178
1.32912
1.32591
1.32215
1.31786
1.31305
1.30773
1.3019
1.29557
1.28873
1.28144
1.27374
1.26487
1.2542
0.074913
0.0646024
0.0560581
0.0486675
0.0416983
0.0351827
0.0291643
0.0236342
0.0185847
0.0140133
0.00991864
0.00629979
0.00315633
0.000488068
-0.00170519
-0.00342376
-0.00466826
-0.0054397
-0.00573956
-0.00556985
-0.00493312
-0.00383253
-0.00227178
-0.000255196
0.00221238
0.00512553
0.00847837
0.0122645
0.0164771
0.0211089
0.0261523
0.0315994
0.037442
0.0436715
0.0502793
0.0572563
0.0645937
0.0722821
0.0803124
0.0886752
0.097361
0.106361
0.115665
0.125264
0.135148
0.14531
0.155739
0.166426
0.177363
0.188541
0.199952
0.211587
0.223437
0.235496
0.247754
0.260205
0.272841
0.285655
0.298639
0.311788
0.325093
0.338549
0.35215
0.36589
0.379762
0.393761
0.407882
0.422118
0.436466
0.450919
0.465473
0.480124
0.494866
0.509694
0.524605
0.539593
0.554655
0.569786
0.584982
0.600238
0.61555
0.630914
0.646324
0.661778
0.67727
0.692795
0.708348
0.723925
0.739521
0.75513
0.770747
0.786365
0.80198
0.817584
0.833171
0.848735
0.864268
0.879762
0.89521
0.910604
0.925934
0.941191
0.956367
0.97145
0.986431
1.0013
1.01604
1.03065
1.0451
1.05939
1.07351
1.08744
1.10116
1.11466
1.12793
1.14095
1.1537
1.16616
1.17833
1.19018
1.20169
1.21284
1.22363
1.23403
1.24402
1.25358
1.26271
1.27137
1.27956
1.28726
1.29444
1.30111
1.30723
1.31281
1.31783
1.32227
1.32613
1.3294
1.33208
1.33415
1.33562
1.33648
1.33673
1.33638
1.33543
1.33388
1.33173
1.329
1.32569
1.3218
1.31735
1.31234
1.30678
1.30067
1.29401
1.28681
1.27911
1.27095
1.26154
1.25021
0.0780548
0.0671345
0.0580969
0.0502948
0.0429517
0.0361017
0.0297898
0.0240052
0.0187378
0.0139827
0.00973612
0.00599465
0.00275527
1.52665e-05
-0.00222802
-0.0039773
-0.00523548
-0.00600571
-0.00629152
-0.0060968
-0.00542588
-0.00428352
-0.00267491
-0.000605711
0.00191801
0.00488976
0.00830265
0.0121494
0.0164225
0.0211141
0.0262158
0.0317194
0.0376161
0.0438972
0.0505535
0.0575761
0.0649557
0.0726829
0.0807485
0.0891429
0.0978569
0.106881
0.116206
0.125822
0.135721
0.145893
0.156329
0.167021
0.177959
0.189135
0.200541
0.212168
0.224009
0.236054
0.248297
0.260731
0.273347
0.286138
0.299098
0.31222
0.325498
0.338924
0.352494
0.3662
0.380037
0.394
0.408082
0.42228
0.436586
0.450998
0.465509
0.480115
0.494811
0.509593
0.524456
0.539395
0.554408
0.569488
0.584632
0.599836
0.615095
0.630406
0.645762
0.661162
0.676598
0.692068
0.707567
0.723089
0.738629
0.754183
0.769745
0.78531
0.800871
0.816423
0.831959
0.847472
0.862957
0.878404
0.893807
0.909157
0.924447
0.939666
0.954807
0.969858
0.984811
0.999653
1.01437
1.02896
1.04341
1.05769
1.07181
1.08574
1.09947
1.11299
1.12627
1.13932
1.1521
1.1646
1.17682
1.18871
1.20028
1.21151
1.22236
1.23284
1.24291
1.25257
1.26178
1.27054
1.27883
1.28663
1.29393
1.3007
1.30693
1.31262
1.31774
1.32229
1.32625
1.32961
1.33237
1.33452
1.33606
1.33697
1.33726
1.33693
1.33598
1.33441
1.33221
1.32941
1.326
1.32198
1.31736
1.31215
1.30635
1.29996
1.29299
1.28542
1.27732
1.26872
1.25879
1.24682
0.0805892
0.0690807
0.0595655
0.0513627
0.0436544
0.0364761
0.0298748
0.0238381
0.0183537
0.0134148
0.00901548
0.00515003
0.00181315
-0.00100021
-0.00329496
-0.00507607
-0.00634856
-0.00711767
-0.00738886
-0.00716787
-0.00646073
-0.0052738
-0.00361376
-0.00148761
0.00109736
0.00413353
0.00761302
0.0115277
0.0158691
0.0206287
0.0257977
0.031367
0.0373277
0.0436705
0.050386
0.0574648
0.0648975
0.0726747
0.0807867
0.0892242
0.0979777
0.107038
0.116395
0.12604
0.135964
0.146158
0.156613
0.167319
0.178269
0.189454
0.200865
0.212494
0.224334
0.236376
0.248613
0.261038
0.273643
0.286421
0.299365
0.312469
0.325726
0.33913
0.352675
0.366354
0.380163
0.394096
0.408147
0.422311
0.436583
0.450958
0.465431
0.479998
0.494653
0.509393
0.524213
0.539109
0.554076
0.569111
0.584208
0.599364
0.614575
0.629836
0.645143
0.660492
0.675878
0.691298
0.706745
0.722217
0.737707
0.753211
0.768723
0.784239
0.799752
0.815257
0.830747
0.846216
0.861658
0.877065
0.892429
0.907744
0.923
0.93819
0.953303
0.968331
0.983264
0.998091
1.0128
1.02738
1.04183
1.05611
1.07024
1.08418
1.09794
1.11148
1.1248
1.13788
1.15071
1.16327
1.17554
1.18751
1.19915
1.21045
1.2214
1.23197
1.24214
1.25189
1.26122
1.27009
1.2785
1.28642
1.29383
1.30073
1.30709
1.3129
1.31814
1.3228
1.32687
1.33034
1.33319
1.33543
1.33703
1.338
1.33834
1.33803
1.33708
1.33549
1.33325
1.33038
1.32686
1.32271
1.31793
1.31252
1.30648
1.29982
1.29253
1.28461
1.27611
1.26709
1.25666
1.24407
0.0824782
0.0704013
0.060423
0.0518305
0.0437657
0.0362661
0.0293807
0.0230956
0.0173967
0.0122757
0.00772466
0.00373584
0.000301858
-0.00258444
-0.00493011
-0.00674218
-0.00802774
-0.00879397
-0.00904821
-0.00879799
-0.00805102
-0.00681525
-0.0050988
-0.00291002
-0.000257485
0.00285007
0.00640372
0.0103944
0.0148128
0.0196497
0.0248955
0.0305407
0.0365757
0.0429908
0.0497764
0.0569226
0.0644199
0.0722584
0.0804285