/*--------------------------------*- C++ -*----------------------------------*\
  =========                 |
  \\      /  F ield         | OpenFOAM: The Open Source CFD Toolbox
   \\    /   O peration     | Website:  https://openfoam.org
    \\  /    A nd           | Version:  7
     \\/     M anipulation  |
\*---------------------------------------------------------------------------*/
FoamFile
{
    version     2.0;
    format      ascii;
    class       volScalarField;
    location    "0.3375";
    object      p;
}
// * * * * * * * * * * * * * * * * * * * * * * * * * * * * * * * * * * * * * //

dimensions      [0 2 -2 0 0 0 0];

internalField   nonuniform List<scalar> 
12800
(
1.66812e-06
3.03248e-05
-2.437e-06
-0.000108158
-0.000279158
-0.000505481
-0.000776471
-0.00108171
-0.00141173
-0.00175823
-0.0021141
-0.00247325
-0.0028306
-0.00318192
-0.00352377
-0.00385337
-0.00416856
-0.00446765
-0.0047494
-0.00501293
-0.00525765
-0.00548328
-0.00568971
-0.00587703
-0.00604544
-0.00619524
-0.00632684
-0.00644065
-0.00653713
-0.00661675
-0.00667998
-0.00672727
-0.00675907
-0.00677577
-0.00677772
-0.00676527
-0.00673868
-0.00669817
-0.00664391
-0.00657601
-0.00649453
-0.00639948
-0.00629081
-0.00616842
-0.00603216
-0.00588181
-0.00571712
-0.00553776
-0.00534338
-0.00513355
-0.00490783
-0.00466571
-0.00440664
-0.00413
-0.00383516
-0.0035214
-0.00318797
-0.00283409
-0.0024589
-0.0020615
-0.00164093
-0.00119622
-0.000726307
-0.00023009
0.00029359
0.00084594
0.00142821
0.00204172
0.00268781
0.00336791
0.0040835
0.00483609
0.00562724
0.00645857
0.00733174
0.00824844
0.00921041
0.0102194
0.0112773
0.0123859
0.013547
0.0147626
0.0160343
0.0173642
0.0187541
0.0202056
0.0217208
0.0233012
0.0249485
0.0266642
0.0284499
0.0303068
0.0322362
0.0342391
0.0363164
0.0384686
0.0406963
0.0429994
0.045378
0.0478315
0.0503592
0.0529598
0.0556319
0.0583733
0.0611817
0.0640541
0.0669871
0.0699767
0.0730185
0.0761073
0.0792375
0.0824029
0.0855967
0.0888114
0.0920392
0.0952716
0.0984994
0.101713
0.104903
0.108058
0.111169
0.114223
0.11721
0.120118
0.122936
0.125653
0.128258
0.13074
0.133089
0.135295
0.137349
0.139243
0.14097
0.142523
0.143897
0.145089
0.146096
0.146917
0.147553
0.148006
0.148279
0.148379
0.148311
0.148086
0.147713
0.147205
0.146576
0.145843
0.145021
0.144133
0.143199
0.142243
0.141293
0.140378
0.139532
0.138791
0.138195
0.137784
0.137598
0.137625
-2.34065e-05
4.24453e-06
-3.03155e-05
-0.000127452
-0.000278263
-0.000475955
-0.000712943
-0.000981149
-0.00127288
-0.00158114
-0.0018997
-0.00222313
-0.00254674
-0.00286659
-0.00317936
-0.00348234
-0.00377334
-0.00405063
-0.00431285
-0.00455902
-0.00478842
-0.00500059
-0.0051953
-0.00537245
-0.0055321
-0.0056744
-0.0057996
-0.00590798
-0.00599985
-0.00607556
-0.00613547
-0.00617991
-0.00620924
-0.00622375
-0.00622373
-0.00620943
-0.00618105
-0.00613875
-0.00608265
-0.00601281
-0.00592926
-0.00583197
-0.00572086
-0.0055958
-0.00545661
-0.00530307
-0.00513491
-0.00495178
-0.00475334
-0.00453915
-0.00430875
-0.00406164
-0.00379727
-0.00351504
-0.00321431
-0.00289438
-0.00255451
-0.00219392
-0.00181178
-0.0014072
-0.000979263
-0.000526998
-4.93804e-05
0.000454666
0.000986266
0.00154659
0.00213685
0.0027583
0.00341227
0.00410012
0.00482327
0.00558318
0.00638136
0.00721934
0.00809871
0.00902109
0.00998815
0.0110016
0.0120631
0.0131744
0.0143373
0.0155535
0.0168247
0.0181528
0.0195394
0.0209862
0.0224948
0.0240669
0.025704
0.0274075
0.0291786
0.0310188
0.0329289
0.0349098
0.0369624
0.0390872
0.0412843
0.0435538
0.0458956
0.0483089
0.0507931
0.0533467
0.0559682
0.0586555
0.0614062
0.0642174
0.0670856
0.0700069
0.072977
0.0759908
0.0790429
0.0821272
0.0852372
0.0883657
0.0915051
0.0946473
0.0977835
0.100905
0.104001
0.107063
0.110081
0.113044
0.115941
0.118761
0.121495
0.124132
0.12666
0.129071
0.131355
0.133502
0.135504
0.137354
0.139046
0.140572
0.14193
0.143115
0.144126
0.144962
0.145623
0.146113
0.146434
0.146592
0.146595
0.146451
0.14617
0.145764
0.145246
0.144632
0.143938
0.143184
0.142389
0.141575
0.140768
0.139993
0.139278
0.138653
0.138149
0.137794
0.137624
0.137651
1.15798e-05
4.02507e-05
5.17751e-06
-8.74574e-05
-0.000226895
-0.000407384
-0.000622803
-0.000866489
-0.00113196
-0.0014132
-0.00170474
-0.00200171
-0.00229986
-0.00259553
-0.0028856
-0.00316749
-0.00343906
-0.00369858
-0.00394468
-0.00417631
-0.00439269
-0.00459328
-0.00477775
-0.00494588
-0.00509764
-0.00523308
-0.00535233
-0.00545556
-0.00554299
-0.00561488
-0.00567147
-0.00571305
-0.00573985
-0.00575213
-0.0057501
-0.00573395
-0.00570382
-0.00565982
-0.00560203
-0.00553046
-0.00544512
-0.00534593
-0.0052328
-0.00510557
-0.00496405
-0.00480799
-0.00463711
-0.00445106
-0.00424947
-0.00403192
-0.00379794
-0.00354702
-0.00327863
-0.00299215
-0.00268697
-0.00236238
-0.00201767
-0.00165206
-0.00126473
-0.000854819
-0.000421426
3.64004e-05
0.00051966
0.0010294
0.00156673
0.00213276
0.00272868
0.00335573
0.00401516
0.00470832
0.00543656
0.00620131
0.00700399
0.00784611
0.00872918
0.00965477
0.0106245
0.0116399
0.0127027
0.0138145
0.014977
0.0161919
0.0174608
0.0187853
0.0201672
0.0216079
0.0231091
0.0246722
0.0262987
0.0279898
0.0297469
0.0315709
0.0334629
0.0354237
0.0374539
0.039554
0.041724
0.0439641
0.0462738
0.0486526
0.0510995
0.0536133
0.0561923
0.0588344
0.0615373
0.0642979
0.0671129
0.0699786
0.0728905
0.0758439
0.0788334
0.0818531
0.0848966
0.0879571
0.0910271
0.0940987
0.0971636
0.100213
0.103238
0.106229
0.109175
0.112068
0.114897
0.117652
0.120323
0.122899
0.125371
0.127729
0.129964
0.132068
0.134033
0.135852
0.137518
0.139027
0.140373
0.141555
0.14257
0.143418
0.144099
0.144617
0.144975
0.145179
0.145235
0.145151
0.144939
0.144608
0.144172
0.143646
0.143046
0.142388
0.141692
0.140978
0.140268
0.139586
0.138955
0.138402
0.137949
0.137621
0.137453
0.137467
0.000119481
0.00013899
9.81551e-05
4.63875e-06
-0.000130789
-0.000302666
-0.000505605
-0.00073384
-0.000981751
-0.00124409
-0.00151604
-0.00179324
-0.00207186
-0.00234856
-0.00262047
-0.00288515
-0.00314058
-0.00338511
-0.00361739
-0.00383636
-0.00404124
-0.00423144
-0.00440657
-0.00456637
-0.00471073
-0.00483962
-0.0049531
-0.00505126
-0.00513426
-0.00520226
-0.00525546
-0.00529406
-0.00531825
-0.0053282
-0.00532408
-0.00530603
-0.00527413
-0.00522846
-0.00516905
-0.00509588
-0.00500893
-0.00490809
-0.00479324
-0.00466421
-0.00452078
-0.00436269
-0.00418964
-0.00400128
-0.00379723
-0.00357706
-0.00334031
-0.00308647
-0.00281499
-0.00252528
-0.00221671
-0.00188861
-0.00154025
-0.00117088
-0.000779693
-0.000365844
7.15511e-05
0.000533424
0.00102075
0.00153456
0.00207591
0.00264591
0.0032457
0.00387648
0.00453949
0.00523601
0.00596736
0.00673492
0.00754008
0.00838427
0.00926897
0.0101957
0.0111659
0.0121813
0.0132434
0.0143537
0.0155139
0.0167255
0.0179902
0.0193095
0.020685
0.0221182
0.0236106
0.0251636
0.0267784
0.0284565
0.0301989
0.0320067
0.0338807
0.0358217
0.0378304
0.0399069
0.0420515
0.0442642
0.0465445
0.0488918
0.0513051
0.0537833
0.0563246
0.058927
0.0615881
0.064305
0.0670744
0.0698927
0.0727555
0.0756581
0.0785954
0.0815615
0.0845504
0.0875552
0.0905689
0.0935837
0.0965915
0.0995839
0.102552
0.105486
0.108378
0.111217
0.113994
0.116698
0.11932
0.121851
0.12428
0.126599
0.128799
0.130872
0.13281
0.134607
0.136256
0.137752
0.139092
0.140272
0.141292
0.142151
0.14285
0.143391
0.143778
0.144016
0.144113
0.144076
0.143915
0.143642
0.143267
0.142806
0.142273
0.141684
0.141058
0.140412
0.139767
0.139144
0.138563
0.138046
0.137615
0.137289
0.137098
0.137061
0.000293843
0.000292279
0.000238429
0.000138641
1.86509e-06
-0.000166863
-0.00036272
-0.000580691
-0.000815922
-0.00106385
-0.00132025
-0.00158127
-0.00184351
-0.00210394
-0.00235997
-0.00260937
-0.00285025
-0.00308105
-0.0033005
-0.00350758
-0.00370152
-0.00388172
-0.00404775
-0.00419935
-0.00433634
-0.00445864
-0.00456625
-0.0046592
-0.00473759
-0.00480153
-0.00485116
-0.0048866
-0.00490799
-0.00491547
-0.00490914
-0.00488909
-0.00485536
-0.00480799
-0.00474696
-0.00467224
-0.00458375
-0.00448137
-0.00436496
-0.00423432
-0.00408921
-0.00392937
-0.00375446
-0.00356415
-0.00335804
-0.00313569
-0.00289663
-0.00264037
-0.00236636
-0.00207401
-0.00176269
-0.00143174
-0.00108045
-0.000708078
-0.000313832
0.000103111
0.00054362
0.00100861
0.00149902
0.00201587
0.00256018
0.00313302
0.00373551
0.00436881
0.00503412
0.0057327
0.00646581
0.00723478
0.00804096
0.00888574
0.00977054
0.0106968
0.011666
0.0126797
0.0137393
0.0148465
0.0160026
0.0172093
0.0184681
0.0197805
0.021148
0.022572
0.0240539
0.0255951
0.0271969
0.0288605
0.0305869
0.0323771
0.034232
0.0361523
0.0381385
0.0401909
0.0423097
0.0444947
0.0467455
0.0490616
0.051442
0.0538854
0.0563902
0.0589544
0.0615757
0.0642512
0.0669778
0.0697517
0.0725689
0.0754248
0.0783143
0.0812318
0.0841713
0.0871263
0.0900897
0.0930542
0.0960119
0.0989545
0.101873
0.10476
0.107604
0.110397
0.11313
0.115792
0.118375
0.120868
0.123263
0.12555
0.127722
0.129771
0.131688
0.133467
0.135104
0.136592
0.137929
0.13911
0.140136
0.141006
0.14172
0.142282
0.142695
0.142964
0.143095
0.143098
0.14298
0.142753
0.142429
0.14202
0.14154
0.141006
0.140433
0.139838
0.13924
0.138656
0.138105
0.137605
0.137176
0.136833
0.136596
0.136475
0.000526061
0.000494183
0.000420821
0.000309662
0.000166554
-3.96787e-06
-0.000197565
-0.000409928
-0.000636886
-0.000874497
-0.00111909
-0.00136731
-0.00161616
-0.00186296
-0.00210538
-0.00234143
-0.00256939
-0.00278781
-0.00299554
-0.00319162
-0.00337531
-0.00354603
-0.00370335
-0.00384701
-0.00397679
-0.00409259
-0.00419435
-0.00428207
-0.0043558
-0.00441559
-0.00446155
-0.00449374
-0.00451226
-0.00451718
-0.00450859
-0.0044865
-0.00445093
-0.00440187
-0.00433927
-0.00426308
-0.00417317
-0.00406942
-0.00395164
-0.00381961
-0.00367309
-0.00351179
-0.00333537
-0.00314348
-0.00293571
-0.00271163
-0.00247077
-0.00221262
-0.00193665
-0.00164227
-0.00132886
-0.000995758
-0.000642276
-0.000267681
0.000128799
0.000547971
0.000990684
0.00145783
0.00195033
0.00246916
0.00301533
0.00358987
0.00419387
0.00482846
0.00549479
0.00619408
0.00692757
0.00769653
0.00850227
0.00934613
0.0102295
0.0111537
0.0121203
0.0131306
0.0141861
0.0152884
0.0164388
0.0176389
0.01889
0.0201938
0.0215515
0.0229646
0.0244345
0.0259624
0.0275496
0.0291972
0.0309063
0.0326778
0.0345125
0.036411
0.038374
0.0404016
0.042494
0.0446512
0.0468726
0.0491578
0.0515058
0.0539153
0.0563848
0.0589124
0.0614957
0.0641321
0.0668184
0.0695511
0.0723262
0.0751392
0.0779852
0.0808588
0.0837542
0.0866649
0.0895841
0.0925047
0.095419
0.0983189
0.101196
0.104042
0.106847
0.109602
0.112299
0.114927
0.117478
0.119942
0.12231
0.124574
0.126725
0.128755
0.130658
0.132426
0.134055
0.135539
0.136876
0.138061
0.139094
0.139975
0.140705
0.141286
0.141721
0.142016
0.142177
0.142212
0.14213
0.141941
0.141656
0.141288
0.14085
0.140356
0.139822
0.139262
0.138694
0.138132
0.137594
0.137095
0.13665
0.136275
0.135975
0.13575
0.000806655
0.000737876
0.000639791
0.00051273
0.000358803
0.000182053
-1.36426e-05
-0.000224628
-0.000447353
-0.000678437
-0.000914742
-0.00115338
-0.00139173
-0.00162747
-0.00185856
-0.00208323
-0.00229994
-0.00250743
-0.00270464
-0.00289072
-0.00306496
-0.00322684
-0.00337598
-0.00351208
-0.00363494
-0.00374443
-0.00384047
-0.00392305
-0.00399216
-0.00404783
-0.00409011
-0.00411904
-0.00413468
-0.00413706
-0.0041262
-0.0041021
-0.00406473
-0.00401405
-0.00394999
-0.00387245
-0.00378128
-0.00367633
-0.0035574
-0.00342425
-0.00327661
-0.00311418
-0.00293662
-0.00274355
-0.00253457
-0.00230924
-0.00206709
-0.00180762
-0.00153028
-0.00123451
-0.000919677
-0.000585151
-0.000230242
0.000145766
0.000543626
0.000964129
0.0014081
0.00187642
0.00236997
0.00288971
0.0034366
0.00401167
0.00461595
0.00525055
0.00591659
0.00661523
0.00734768
0.00811517
0.00891897
0.00976037
0.0106407
0.0115613
0.0125235
0.0135288
0.0145786
0.0156742
0.0168171
0.0180088
0.0192506
0.020544
0.0218903
0.0232908
0.024747
0.0262601
0.0278311
0.0294613
0.0311517
0.0329032
0.0347165
0.0365924
0.0385313
0.0405335
0.0425992
0.0447283
0.0469204
0.0491749
0.051491
0.0538675
0.0563029
0.0587954
0.0613426
0.0639421
0.0665908
0.0692853
0.0720217
0.0747957
0.0776025
0.0804369
0.0832931
0.0861651
0.089046
0.091929
0.0948065
0.0976706
0.100513
0.103326
0.106099
0.108825
0.111493
0.114096
0.116623
0.119065
0.121414
0.123662
0.125799
0.127818
0.129713
0.131476
0.133102
0.134587
0.135927
0.137119
0.138161
0.139054
0.139799
0.140397
0.140853
0.141171
0.141357
0.141419
0.141365
0.141205
0.140951
0.140613
0.140205
0.139739
0.13923
0.138691
0.138138
0.137584
0.137044
0.13653
0.136057
0.135637
0.135263
0.134922
0.00112614
0.00101593
0.00088907
0.000742333
0.000573802
0.000387033
0.000185503
-2.77334e-05
-0.000249715
-0.000477597
-0.000708714
-0.000940618
-0.00117108
-0.00139811
-0.00161996
-0.00183508
-0.00204217
-0.00224011
-0.00242798
-0.00260504
-0.00277067
-0.00292442
-0.00306592
-0.00319491
-0.00331121
-0.00341466
-0.0035052
-0.00358279
-0.00364739
-0.00369903
-0.00373771
-0.00376344
-0.00377625
-0.00377613
-0.00376308
-0.00373704
-0.00369797
-0.00364578
-0.00358039
-0.00350165
-0.00340941
-0.00330348
-0.00318364
-0.00304963
-0.00290118
-0.00273796
-0.00255962
-0.00236578
-0.00215603
-0.00192993
-0.001687
-0.00142676
-0.00114865
-0.000852117
-0.000536546
-0.000201302
0.000154281
0.000530904
0.000929303
0.00135025
0.00179456
0.00226307
0.00275665
0.00327622
0.00382273
0.00439715
0.00500051
0.00563386
0.00629829
0.00699493
0.00772494
0.00848951
0.00928987
0.0101273
0.011003
0.0119183
0.0128746
0.0138731
0.0149154
0.0160027
0.0171364
0.0183179
0.0195486
0.0208298
0.0221629
0.0235492
0.02499
0.0264865
0.0280399
0.0296512
0.0313215
0.0330516
0.0348424
0.0366945
0.0386084
0.0405844
0.0426228
0.0447234
0.0468859
0.0491099
0.0513945
0.0537385
0.0561407
0.0585992
0.0611119
0.0636764
0.0662897
0.0689486
0.0716493
0.0743877
0.077159
0.0799583
0.08278
0.0856181
0.0884661
0.0913171
0.0941638
0.0969985
0.0998131
0.102599
0.105348
0.108051
0.110699
0.113283
0.115794
0.118223
0.12056
0.122798
0.124929
0.126944
0.128836
0.1306
0.132229
0.133719
0.135066
0.136267
0.137321
0.138228
0.138988
0.139603
0.140078
0.140415
0.140623
0.140707
0.140676
0.140539
0.140307
0.139991
0.139602
0.139154
0.138658
0.138129
0.137579
0.13702
0.136466
0.135926
0.135414
0.13494
0.134484
0.134023
0.00147569
0.001321
0.00116233
0.000992913
0.000806658
0.000606706
0.000396201
0.000177623
-4.66167e-05
-0.000274166
-0.000502808
-0.000730507
-0.000955411
-0.00117586
-0.00139036
-0.00159764
-0.0017966
-0.00198632
-0.00216601
-0.00233504
-0.00249291
-0.00263922
-0.00277369
-0.00289607
-0.0030062
-0.00310396
-0.00318928
-0.0032621
-0.00332239
-0.00337014
-0.00340535
-0.00342801
-0.0034381
-0.0034356
-0.00342046
-0.0033926
-0.00335196
-0.00329842
-0.00323185
-0.00315211
-0.003059
-0.00295232
-0.00283183
-0.00269726
-0.0025483
-0.00238464
-0.00220589
-0.00201169
-0.00180161
-0.00157522
-0.00133203
-0.00107156
-0.000793263
-0.000496586
-0.000180929
0.000154332
0.000509849
0.000886305
0.00128442
0.00170494
0.00214867
0.00261641
0.00310902
0.00362738
0.0041724
0.00474503
0.00534626
0.00597712
0.00663865
0.00733193
0.00805811
0.00881832
0.00961375
0.0104456
0.0113151
0.0122236
0.0131722
0.0141624
0.0151954
0.0162726
0.0173953
0.0185649
0.0197827
0.02105
0.0223681
0.0237384
0.0251621
0.0266403
0.0281743
0.0297651
0.0314138
0.0331211
0.034888
0.0367151
0.0386029
0.0405519
0.0425621
0.0446337
0.0467663
0.0489595
0.0512126
0.0535246
0.0558941
0.0583196
0.060799
0.0633299
0.0659097
0.0685351
0.0712027
0.0739083
0.0766475
0.0794154
0.0822065
0.0850151
0.0878349
0.090659
0.0934804
0.0962914
0.0990841
0.10185
0.104581
0.107268
0.109903
0.112475
0.114977
0.117398
0.119731
0.121967
0.124097
0.126114
0.128011
0.129781
0.131418
0.132918
0.134276
0.13549
0.136559
0.137481
0.138258
0.13889
0.139383
0.139739
0.139965
0.140068
0.140055
0.139935
0.139719
0.139417
0.13904
0.1386
0.138109
0.137579
0.137022
0.136449
0.13587
0.135296
0.134737
0.134202
0.133661
0.13308
0.00184729
0.00164611
0.00145345
0.00125899
0.00105251
0.000836782
0.000614675
0.000388135
0.000159065
-7.06286e-05
-0.000299163
-0.000524891
-0.00074631
-0.000962067
-0.00117097
-0.00137199
-0.00156425
-0.00174699
-0.0019196
-0.00208158
-0.00223253
-0.00237216
-0.00250022
-0.00261653
-0.00272096
-0.00281341
-0.00289383
-0.00296217
-0.00301839
-0.00306248
-0.00309442
-0.00311418
-0.00312172
-0.00311699
-0.00309992
-0.00307041
-0.00302836
-0.00297365
-0.00290611
-0.00282557
-0.00273183
-0.00262465
-0.00250378
-0.00236894
-0.00221981
-0.00205604
-0.00187728
-0.00168312
-0.00147315
-0.00124693
-0.00100398
-0.000743817
-0.000465906
-0.000169693
0.000145406
0.000479999
0.000834723
0.00121025
0.00160727
0.00202652
0.00246877
0.0029348
0.00342545
0.00394155
0.004484
0.00505371
0.00565164
0.00627876
0.0069361
0.00762471
0.00834567
0.00910009
0.00988911
0.0107139
0.0115756
0.0124756
0.0134149
0.014395
0.0154171
0.0164824
0.0175924
0.0187482
0.0199513
0.0212028
0.0225042
0.0238566
0.0252614
0.0267196
0.0282326
0.0298012
0.0314266
0.0331097
0.0348512
0.036652
0.0385125
0.0404333
0.0424145
0.0444562
0.0465583
0.0487204
0.0509418
0.0532218
0.055559
0.057952
0.0603989
0.0628975
0.0654452
0.0680391
0.0706756
0.0733509
0.0760607
0.0788003
0.0815645
0.0843475
0.0871432
0.089945
0.0927459
0.0955384
0.0983148
0.101067
0.103786
0.106463
0.10909
0.111658
0.114157
0.116578
0.118913
0.121153
0.12329
0.125315
0.127222
0.129004
0.130654
0.132169
0.133543
0.134774
0.13586
0.136801
0.137595
0.138247
0.138757
0.139131
0.139375
0.139493
0.139495
0.139389
0.139183
0.138889
0.138518
0.138079
0.137585
0.137046
0.136473
0.135877
0.135267
0.134651
0.134039
0.13344
0.132813
0.132116
0.00223364
0.00198475
0.00175653
0.00153525
0.00130656
0.00107296
0.000837075
0.000600376
0.000364303
0.000130333
-0.000100146
-0.000325854
-0.000545619
-0.000758401
-0.00096329
-0.0011595
-0.00134636
-0.00152332
-0.00168991
-0.00184579
-0.00199068
-0.00212435
-0.00224665
-0.00235746
-0.00245668
-0.00254427
-0.00262017
-0.00268436
-0.00273681
-0.00277751
-0.00280641
-0.0028235
-0.0028287
-0.00282195
-0.00280315
-0.00277219
-0.00272895
-0.00267327
-0.00260498
-0.00252388
-0.00242975
-0.00232234
-0.00220138
-0.00206658
-0.0019176
-0.00175409
-0.00157567
-0.00138196
-0.00117253
-0.00094694
-0.000704725
-0.000445392
-0.000168419
0.000126739
0.000440653
0.000773913
0.00112714
0.00150098
0.00189612
0.00231328
0.00275318
0.00321658
0.00370429
0.00421713
0.00475594
0.00532162
0.00591507
0.00653725
0.00718914
0.00787174
0.00858612
0.00933332
0.0101145
0.0109307
0.0117831
0.0126729
0.0136013
0.0145696
0.015579
0.0166307
0.0177261
0.0188664
0.0200529
0.0212868
0.0225696
0.0239023
0.0252863
0.0267228
0.0282128
0.0297576
0.031358
0.0330152
0.0347298
0.0365028
0.0383347
0.0402261
0.0421771
0.0441881
0.0462589
0.0483893
0.0505787
0.0528265
0.0551314
0.0574922
0.0599072
0.0623743
0.0648911
0.0674547
0.0700618
0.0727089
0.0753918
0.0781059
0.080846
0.0836068
0.0863822
0.0891658
0.0919506
0.0947293
0.0974942
0.100237
0.10295
0.105624
0.108249
0.110818
0.113321
0.115748
0.118092
0.120343
0.122492
0.124532
0.126455
0.128254
0.129924
0.131458
0.132853
0.134105
0.135213
0.136174
0.13699
0.137661
0.138191
0.138583
0.138843
0.138976
0.13899
0.138894
0.138695
0.138405
0.138033
0.13759
0.137085
0.136531
0.135937
0.135311
0.134664
0.134001
0.133333
0.132668
0.131955
0.131145
0.00262813
0.00233081
0.00206599
0.00181654
0.00156411
0.00131095
0.00105952
0.000810844
0.00056594
0.000325881
9.16948e-05
-0.000135684
-0.000355407
-0.000566739
-0.000769038
-0.000961756
-0.00114444
-0.00131672
-0.00147832
-0.00162902
-0.00176866
-0.00189712
-0.00201432
-0.0021202
-0.00221475
-0.00229794
-0.00236975
-0.00243017
-0.00247919
-0.0025168
-0.00254297
-0.00255765
-0.00256076
-0.00255223
-0.00253193
-0.00249976
-0.00245555
-0.00239914
-0.00233034
-0.00224893
-0.00215468
-0.00204732
-0.00192656
-0.0017921
-0.0016436
-0.00148069
-0.00130299
-0.00111012
-0.000901654
-0.000677145
-0.000436136
-0.000178138
9.73614e-05
0.000390895
0.000703017
0.0010343
0.00138535
0.0017568
0.0021493
0.00256355
0.00300025
0.00346014
0.00394397
0.00445255
0.00498669
0.00554724
0.00613508
0.00675112
0.00739631
0.00807162
0.00877805
0.00951665
0.0102885
0.0110946
0.0119361
0.0128142
0.01373
0.0146848
0.0156798
0.0167162
0.0177952
0.0189181
0.0200862
0.0213007
0.0225629
0.0238741
0.0252355
0.0266482
0.0281136
0.0296326
0.0312064
0.0328359
0.0345221
0.0362657
0.0380675
0.0399281
0.0418478
0.0438268
0.0458654
0.0479633
0.0501201
0.0523352
0.0546077
0.0569363
0.0593197
0.0617557
0.0642423
0.0667767
0.0693559
0.0719764
0.0746342
0.077325
0.0800438
0.0827853
0.0855436
0.0883124
0.091085
0.0938541
0.0966122
0.099351
0.102062
0.104738
0.107368
0.109943
0.112456
0.114896
0.117254
0.119521
0.12169
0.12375
0.125696
0.127519
0.129213
0.130773
0.132193
0.133471
0.134604
0.13559
0.13643
0.137124
0.137674
0.138085
0.138362
0.138509
0.138534
0.138446
0.138251
0.137961
0.137585
0.137132
0.136614
0.136039
0.135417
0.134758
0.134069
0.133356
0.13263
0.131897
0.1311
0.130183
0.00302469
0.00267861
0.00237649
0.00209792
0.00182057
0.00154652
0.00127812
0.00101598
0.000760717
0.00051305
0.00027366
4.31505e-05
-0.000177947
-0.000389179
-0.000590161
-0.000780581
-0.0009602
-0.00112885
-0.00128641
-0.00143281
-0.001568
-0.00169197
-0.00180473
-0.00190631
-0.00199672
-0.002076
-0.00214416
-0.00220122
-0.0022472
-0.00228208
-0.00230583
-0.0023184
-0.0023197
-0.00230966
-0.00228813
-0.002255
-0.00221008
-0.0021532
-0.00208414
-0.00200269
-0.00190858
-0.00180154
-0.00168128
-0.00154747
-0.00139976
-0.00123779
-0.00106118
-0.000869528
-0.000662422
-0.000439424
-0.000200073
5.61098e-05
0.000329625
0.00062099
0.000930741
0.00125944
0.00160766
0.00197602
0.00236516
0.00277573
0.00320842
0.00366392
0.00414298
0.00464634
0.00517479
0.00572916
0.00631028
0.00691902
0.0075563
0.00822304
0.00892022
0.00964882
0.0104099
0.0112044
0.0120335
0.0128983
0.0138
0.0147396
0.0157184
0.0167377
0.0177985
0.0189022
0.02005
0.0212432
0.022483
0.0237707
0.0251076
0.0264948
0.0279336
0.029425
0.0309703
0.0325704
0.0342263
0.035939
0.0377091
0.0395374
0.0414243
0.0433703
0.0453755
0.0474399
0.0495632
0.051745
0.0539846
0.0562808
0.0586324
0.0610377
0.0634945
0.0660004
0.0685526
0.0711477
0.0737821
0.0764513
0.0791509
0.0818755
0.0846195
0.0873768
0.0901406
0.0929038
0.095659
0.0983981
0.101113
0.103794
0.106434
0.109022
0.11155
0.114008
0.116386
0.118677
0.12087
0.122958
0.124931
0.126784
0.128509
0.130099
0.131551
0.13286
0.134023
0.135038
0.135905
0.136624
0.137198
0.13763
0.137924
0.138086
0.138122
0.13804
0.137848
0.137556
0.137173
0.136708
0.136171
0.135572
0.134919
0.134222
0.133488
0.132723
0.131936
0.131137
0.130258
0.129238
0.00341773
0.0030228
0.00268297
0.00237459
0.00207144
0.00177549
0.00148899
0.00121218
0.00094531
0.000688775
0.000442916
0.000208018
-1.56819e-05
-0.000227995
-0.000428792
-0.000617994
-0.000795577
-0.000961554
-0.00111597
-0.00125889
-0.00139041
-0.0015106
-0.00161958
-0.00171745
-0.00180428
-0.00188016
-0.00194514
-0.00199929
-0.00204262
-0.00207514
-0.00209681
-0.0021076
-0.00210741
-0.00209615
-0.00207368
-0.00203985
-0.00199449
-0.0019374
-0.00186835
-0.00178712
-0.00169343
-0.00158699
-0.00146751
-0.00133464
-0.00118803
-0.00102733
-0.000852139
-0.000662071
-0.00045671
-0.000235623
1.64318e-06
0.000255559
0.00052661
0.000815294
0.00112213
0.00144766
0.00179244
0.00215707
0.00254215
0.00294831
0.0033762
0.0038265
0.0042999
0.00479713
0.00531894
0.0058661
0.00643942
0.00703975
0.00766793
0.00832488
0.00901151
0.00972878
0.0104777
0.0112592
0.0120744
0.0129244
0.0138102
0.014733
0.015694
0.0166944
0.0177353
0.0188179
0.0199436
0.0211136
0.0223291
0.0235915
0.0249019
0.0262616
0.0276719
0.0291339
0.0306487
0.0322176
0.0338415
0.0355214
0.0372582
0.0390526
0.0409053
0.0428168
0.0447873
0.046817
0.0489059
0.0510536
0.0532595
0.0555228
0.0578424
0.0602167
0.0626439
0.0651217
0.0676475
0.0702181
0.0728301
0.0754793
0.0781613
0.0808711
0.0836031
0.0863514
0.0891094
0.09187
0.0946259
0.0973691
0.100091
0.102784
0.105437
0.108043
0.110591
0.113073
0.115478
0.117797
0.120022
0.122142
0.12415
0.126039
0.1278
0.129427
0.130915
0.13226
0.133458
0.134507
0.135405
0.136154
0.136754
0.137209
0.137523
0.137701
0.137748
0.137673
0.137483
0.137187
0.136795
0.136315
0.135757
0.135131
0.134445
0.133708
0.132927
0.132108
0.131261
0.130395
0.129436
0.128318
0.00380204
0.00335835
0.0029806
0.00264195
0.00231237
0.00199374
0.00168826
0.00139582
0.00111635
0.0008499
0.000596505
0.000356152
0.000128801
-8.56241e-05
-0.000287241
-0.000476198
-0.000652672
-0.00081686
-0.000968965
-0.00110919
-0.00123776
-0.00135487
-0.00146071
-0.00155546
-0.00163927
-0.00171227
-0.00177456
-0.00182624
-0.00186734
-0.00189789
-0.00191786
-0.0019272
-0.00192584
-0.00191366
-0.00189054
-0.0018563
-0.00181077
-0.00175374
-0.00168497
-0.00160422
-0.00151121
-0.00140564
-0.00128721
-0.00115556
-0.00101035
-0.000851212
-0.000677762
-0.000489609
-0.000286343
-6.75377e-05
0.000167253
0.000418485
0.000686625
0.000972153
0.00127557
0.00159739
0.00193816
0.00229845
0.00267882
0.00307988
0.00350225
0.00394656
0.00441349
0.00490372
0.00541795
0.00595694
0.00652145
0.00711227
0.00773024
0.0083762
0.00905104
0.00975568
0.0104911
0.0112582
0.012058
0.0128916
0.01376
0.0146644
0.0156059
0.0165857
0.0176049
0.0186647
0.0197665
0.0209114
0.0221007
0.0233358
0.0246178
0.0259481
0.0273279
0.0287586
0.0302411
0.0317769
0.0333669
0.0350123
0.036714
0.0384729
0.0402897
0.0421651
0.0440995
0.0460933
0.0481465
0.050259
0.0524304
0.0546601
0.0569471
0.0592901
0.0616875
0.0641372
0.0666368
0.0691835
0.0717738
0.074404
0.0770698
0.0797664
0.0824883
0.0852298
0.0879844
0.0907453
0.0935051
0.0962559
0.0989894
0.101697
0.104369
0.106997
0.109571
0.112081
0.114518
0.116872
0.119133
0.121292
0.123341
0.125271
0.127074
0.128745
0.130275
0.131662
0.1329
0.133987
0.134922
0.135705
0.136335
0.136817
0.137153
0.137348
0.137408
0.13734
0.137153
0.136853
0.136451
0.135955
0.135375
0.13472
0.133999
0.13322
0.13239
0.131516
0.130609
0.129677
0.128641
0.12743
0.00417271
0.00368046
0.00326473
0.00289553
0.00253909
0.00219723
0.0018721
0.0015633
0.00127042
0.000993197
0.000731381
0.000484678
0.000252777
3.53441e-05
-0.000167977
-0.000357551
-0.000533751
-0.00069695
-0.000847509
-0.00098578
-0.0011121
-0.00122678
-0.0013301
-0.00142232
-0.00150365
-0.00157429
-0.00163438
-0.00168404
-0.00172334
-0.00175231
-0.00177094
-0.00177919
-0.00177698
-0.0017642
-0.00174072
-0.00170636
-0.00166093
-0.00160422
-0.00153598
-0.00145596
-0.00136389
-0.00125944
-0.0011423
-0.00101214
-0.000868587
-0.000711289
-0.000539866
-0.000353926
-0.000153068
6.31256e-05
0.000295088
0.000543259
0.000808086
0.00109003
0.00138956
0.00170719
0.00204343
0.00239881
0.00277388
0.0031692
0.00358537
0.00402298
0.00448266
0.00496507
0.00547087
0.00600076
0.00655548
0.00713578
0.00774245
0.00837629
0.00903816
0.00972892
0.0104495
0.0112008
0.0119838
0.0127996
0.0136491
0.0145335
0.0154539
0.0164114
0.0174071
0.0184424
0.0195184
0.0206364
0.0217977
0.0230036
0.0242553
0.0255543
0.0269018
0.0282991
0.0297474
0.0312481
0.0328024
0.0344114
0.0360762
0.0377978
0.039577
0.0414148
0.0433116
0.045268
0.0472841
0.0493602
0.051496
0.0536911
0.0559447
0.0582557
0.0606229
0.0630443
0.0655177
0.0680405
0.0706097
0.0732216
0.075872
0.0785565
0.0812699
0.0840063
0.0867597
0.0895233
0.0922897
0.0950511
0.0977992
0.100525
0.10322
0.105875
0.108479
0.111023
0.113497
0.11589
0.118194
0.120398
0.122494
0.124471
0.126323
0.128042
0.129622
0.131056
0.13234
0.133472
0.134448
0.135268
0.135934
0.136445
0.136807
0.137022
0.137098
0.137039
0.136854
0.136551
0.136139
0.135627
0.135024
0.134339
0.133582
0.13276
0.131882
0.130952
0.129984
0.128988
0.127877
0.126576
0.00452508
0.00398457
0.00353092
0.00313103
0.00274745
0.00238197
0.00203672
0.00171099
0.00140405
0.00111538
0.000844422
0.000590624
0.000353407
0.000132191
-7.36043e-05
-0.000264555
-0.000441224
-0.000604158
-0.000753876
-0.000890867
-0.00101559
-0.00112846
-0.00122985
-0.0013201
-0.0013995
-0.00146828
-0.00152665
-0.00157474
-0.00161266
-0.00164044
-0.0016581
-0.00166561
-0.00166288
-0.0016498
-0.00162625
-0.00159203
-0.00154696
-0.00149082
-0.00142335
-0.00134431
-0.00125339
-0.00115028
-0.00103467
-0.000906208
-0.000764548
-0.000609329
-0.000440178
-0.00025671
-5.85296e-05
0.000154767
0.000383596
0.000628377
0.000889538
0.00116752
0.00146277
0.00177577
0.00210701
0.00245699
0.00282621
0.00321522
0.00362456
0.0040548
0.00450653
0.00498036
0.00547692
0.00599687
0.00654089
0.00710971
0.00770406
0.00832472
0.00897247
0.00964817
0.0103527
0.0110869
0.0118518
0.0126483
0.0134774
0.0143403
0.015238
0.0161716
0.0171422
0.0181512
0.0191997
0.020289
0.0214204
0.0225953
0.0238149
0.0250806
0.0263938
0.0277558
0.029168
0.0306318
0.0321484
0.0337191
0.0353452
0.0370277
0.0387676
0.040566
0.0424235
0.0443409
0.0463186
0.0483569
0.0504558
0.0526151
0.0548343
0.0571126
0.0594487
0.0618412
0.0642881
0.066787
0.069335
0.0719288
0.0745646
0.0772378
0.0799436
0.0826764
0.0854303
0.0881984
0.0909737
0.0937484
0.0965142
0.0992623
0.101984
0.104669
0.107307
0.10989
0.112406
0.114844
0.117196
0.119451
0.121599
0.12363
0.125537
0.127311
0.128945
0.130433
0.13177
0.132951
0.133975
0.134839
0.135543
0.13609
0.136481
0.13672
0.136813
0.136766
0.136586
0.136281
0.13586
0.135332
0.134706
0.133991
0.133197
0.132332
0.131404
0.13042
0.129392
0.128332
0.127148
0.125761
0.0048547
0.0042663
0.00377486
0.00334426
0.0029334
0.00254406
0.00217834
0.00183525
0.00151377
0.0012131
0.000932428
0.000670919
0.000427744
0.00020209
-6.84241e-06
-0.000199833
-0.00037763
-0.000540948
-0.000690461
-0.000826793
-0.000950519
-0.00106216
-0.00116219
-0.00125101
-0.00132898
-0.0013964
-0.0014535
-0.00150045
-0.00153739
-0.00156437
-0.00158142
-0.0015885
-0.00158556
-0.00157248
-0.00154912
-0.00151531
-0.00147084
-0.00141549
-0.00134901
-0.00127113
-0.00118156
-0.00107999
-0.000966092
-0.000839521
-0.00069994
-0.000546994
-0.000380316
-0.000199526
-4.24213e-06
0.000205924
0.000431366
0.000672483
0.000929682
0.00120338
0.00149401
0.00180201
0.00212785
0.00247198
0.00283489
0.00321707
0.00361903
0.00404131
0.00448445
0.00494901
0.0054356
0.00594481