/*--------------------------------*- C++ -*----------------------------------*\
  =========                 |
  \\      /  F ield         | OpenFOAM: The Open Source CFD Toolbox
   \\    /   O peration     | Website:  https://openfoam.org
    \\  /    A nd           | Version:  7
     \\/     M anipulation  |
\*---------------------------------------------------------------------------*/
FoamFile
{
    version     2.0;
    format      ascii;
    class       surfaceScalarField;
    location    "0.2375";
    object      phi;
}
// * * * * * * * * * * * * * * * * * * * * * * * * * * * * * * * * * * * * * //

dimensions      [0 3 -1 0 0 0 0];

internalField   nonuniform List<scalar> 
101920
(
-5.68997e-13
-2.54878e-13
-7.53117e-13
1.83886e-13
-1.15299e-12
3.96292e-13
-1.47624e-12
3.26164e-13
-1.6424e-12
1.66589e-13
-1.60373e-12
-4.01888e-14
-1.34025e-12
-2.59111e-13
-8.55746e-13
-4.89391e-13
-1.34916e-13
-7.10474e-13
7.95585e-13
-9.35552e-13
1.94178e-12
-1.14343e-12
3.28816e-12
-1.34582e-12
4.82638e-12
-1.53718e-12
6.54757e-12
-1.71559e-12
8.43565e-12
-1.88932e-12
1.04833e-11
-2.04846e-12
1.26769e-11
-2.19497e-12
1.50062e-11
-2.33223e-12
1.74651e-11
-2.4559e-12
2.00392e-11
-2.57049e-12
2.27166e-11
-2.67704e-12
2.54902e-11
-2.77239e-12
2.83513e-11
-2.85481e-12
3.12839e-11
-2.93226e-12
3.42875e-11
-3e-12
3.73512e-11
-3.05877e-12
4.04613e-11
-3.11146e-12
4.36157e-11
-3.155e-12
4.68068e-11
-3.18959e-12
5.00243e-11
-3.21731e-12
5.32609e-11
-3.23834e-12
5.65125e-11
-3.25179e-12
5.97718e-11
-3.25822e-12
6.30317e-11
-3.2591e-12
6.62867e-11
-3.25561e-12
6.95337e-11
-3.24592e-12
7.27652e-11
-3.23017e-12
7.59748e-11
-3.20978e-12
7.91582e-11
-3.18491e-12
8.23126e-11
-3.15413e-12
8.54327e-11
-3.11877e-12
8.85134e-11
-3.08021e-12
9.15521e-11
-3.03787e-12
9.45452e-11
-2.99164e-12
9.74891e-11
-2.94145e-12
1.00378e-10
-2.88846e-12
1.03211e-10
-2.83269e-12
1.05986e-10
-2.77445e-12
1.08698e-10
-2.71327e-12
1.11346e-10
-2.6488e-12
1.13925e-10
-2.58156e-12
1.16436e-10
-2.51131e-12
1.18876e-10
-2.43822e-12
1.21242e-10
-2.36366e-12
1.23532e-10
-2.28845e-12
1.25745e-10
-2.21189e-12
1.27879e-10
-2.13312e-12
1.29931e-10
-2.05226e-12
1.31902e-10
-1.97e-12
1.33788e-10
-1.88676e-12
1.3559e-10
-1.80269e-12
1.37306e-10
-1.71739e-12
1.38935e-10
-1.63023e-12
1.40476e-10
-1.54146e-12
1.41928e-10
-1.45144e-12
1.43291e-10
-1.36071e-12
1.44564e-10
-1.27011e-12
1.45745e-10
-1.17978e-12
1.46834e-10
-1.08935e-12
1.47831e-10
-9.98047e-13
1.48734e-10
-9.05175e-13
1.49545e-10
-8.1074e-13
1.50262e-10
-7.15784e-13
1.50884e-10
-6.21292e-13
1.51413e-10
-5.27309e-13
1.51846e-10
-4.3325e-13
1.52185e-10
-3.38744e-13
1.52428e-10
-2.43831e-13
1.52576e-10
-1.48468e-13
1.52628e-10
-5.26755e-14
1.52585e-10
4.31719e-14
1.52448e-10
1.3886e-13
1.52215e-10
2.34444e-13
1.51887e-10
3.29792e-13
1.51464e-10
4.24515e-13
1.50945e-10
5.18549e-13
1.50333e-10
6.12371e-13
1.49625e-10
7.06276e-13
1.48824e-10
8.00336e-13
1.47928e-10
8.94663e-13
1.46939e-10
9.88995e-13
1.45858e-10
1.08266e-12
1.44686e-10
1.17515e-12
1.43422e-10
1.26612e-12
1.42066e-10
1.35564e-12
1.4062e-10
1.44447e-12
1.39085e-10
1.53331e-12
1.37461e-10
1.62237e-12
1.35749e-10
1.71131e-12
1.33952e-10
1.7991e-12
1.32069e-10
1.8848e-12
1.30102e-10
1.96823e-12
1.28052e-10
2.04985e-12
1.2592e-10
2.13044e-12
1.23709e-10
2.21026e-12
1.2142e-10
2.28875e-12
1.19055e-10
2.36517e-12
1.16615e-10
2.43927e-12
1.14103e-10
2.51134e-12
1.1152e-10
2.58167e-12
1.08871e-10
2.64995e-12
1.06155e-10
2.71559e-12
1.03377e-10
2.77843e-12
1.0054e-10
2.83828e-12
9.76457e-11
2.89479e-12
9.46978e-11
2.94778e-12
9.16994e-11
2.99736e-12
8.8654e-11
3.04378e-12
8.55654e-11
3.08704e-12
8.24378e-11
3.12668e-12
7.92755e-11
3.16203e-12
7.60827e-11
3.19281e-12
7.28644e-11
3.21886e-12
6.96256e-11
3.23974e-12
6.6371e-11
3.25514e-12
6.31055e-11
3.26508e-12
5.98351e-11
3.26945e-12
5.65658e-11
3.26802e-12
5.33042e-11
3.26058e-12
5.00568e-11
3.24671e-12
4.68301e-11
3.22606e-12
4.36311e-11
3.19846e-12
4.04673e-11
3.16353e-12
3.73465e-11
3.12062e-12
3.42767e-11
3.06932e-12
3.12669e-11
3.00932e-12
2.83256e-11
2.94039e-12
2.54613e-11
2.86258e-12
2.26837e-11
2.77583e-12
2.00027e-11
2.67966e-12
1.74286e-11
2.57358e-12
1.4972e-11
2.45703e-12
1.26439e-11
2.32923e-12
1.04548e-11
2.18976e-12
8.41529e-12
2.03895e-12
6.53688e-12
1.87719e-12
4.83143e-12
1.70443e-12
3.31033e-12
1.52044e-12
1.98413e-12
1.32542e-12
8.62618e-13
1.12032e-12
-4.52275e-14
9.06639e-13
-7.31893e-13
6.86218e-13
-1.19296e-12
4.61552e-13
-1.42935e-12
2.37007e-13
-1.44953e-12
2.01952e-14
-1.2738e-12
-1.76385e-13
-9.41895e-13
-3.32893e-13
-5.25904e-13
-4.1694e-13
-1.52105e-13
-3.74639e-13
-1.52394e-13
-6.30973e-13
3.68423e-13
-1.33911e-12
9.01972e-13
-1.99545e-12
1.05436e-12
-2.40482e-12
7.36268e-13
-2.40452e-12
1.53251e-13
-1.88029e-12
-5.58666e-13
-7.99666e-13
-1.34793e-12
8.76886e-13
-2.15888e-12
3.14203e-12
-2.98185e-12
6.00156e-12
-3.78484e-12
9.42663e-12
-4.57191e-12
1.34017e-11
-5.32633e-12
1.79083e-11
-6.0408e-12
2.29088e-11
-6.72315e-12
2.8388e-11
-7.36325e-12
3.43131e-11
-7.96501e-12
4.06461e-11
-8.53123e-12
4.73682e-11
-9.05457e-12
5.44482e-11
-9.53562e-12
6.18532e-11
-9.98202e-12
6.95616e-11
-1.03881e-11
7.75452e-11
-1.07555e-11
8.577e-11
-1.10884e-11
9.42156e-11
-1.13849e-11
1.02861e-10
-1.16444e-11
1.11674e-10
-1.18741e-11
1.20634e-10
-1.20738e-11
1.29722e-10
-1.22407e-11
1.38912e-10
-1.23782e-11
1.48183e-10
-1.24886e-11
1.57517e-10
-1.25719e-11
1.66895e-10
-1.26278e-11
1.76296e-10
-1.26597e-11
1.85703e-10
-1.26686e-11
1.95101e-10
-1.26541e-11
2.04474e-10
-1.26166e-11
2.13804e-10
-1.2559e-11
2.23076e-10
-1.24825e-11
2.32279e-10
-1.23864e-11
2.41397e-10
-1.22718e-11
2.50417e-10
-1.21409e-11
2.59328e-10
-1.19942e-11
2.6812e-10
-1.18312e-11
2.7678e-10
-1.16533e-11
2.85299e-10
-1.14614e-11
2.93664e-10
-1.12563e-11
3.01869e-10
-1.10383e-11
3.09906e-10
-1.08086e-11
3.17764e-10
-1.05688e-11
3.25436e-10
-1.03197e-11
3.32915e-10
-1.00609e-11
3.40194e-10
-9.79169e-12
3.47267e-10
-9.51319e-12
3.54127e-10
-9.2268e-12
3.60768e-10
-8.93292e-12
3.67187e-10
-8.63166e-12
3.73378e-10
-8.32354e-12
3.79334e-10
-8.00908e-12
3.85053e-10
-7.68869e-12
3.9053e-10
-7.36283e-12
3.95762e-10
-7.03243e-12
4.00747e-10
-6.69855e-12
4.05478e-10
-6.361e-12
4.09954e-10
-6.01937e-12
4.14172e-10
-5.67338e-12
4.1813e-10
-5.32277e-12
4.21826e-10
-4.96833e-12
4.25258e-10
-4.6115e-12
4.28423e-10
-4.25312e-12
4.3132e-10
-3.89307e-12
4.33947e-10
-3.53088e-12
4.36303e-10
-3.16659e-12
4.38385e-10
-2.80045e-12
4.40194e-10
-2.43241e-12
4.41729e-10
-2.06275e-12
4.4299e-10
-1.69212e-12
4.43974e-10
-1.32096e-12
4.44681e-10
-9.49534e-13
4.45112e-10
-5.78046e-13
4.45264e-10
-2.06342e-13
4.4514e-10
1.65821e-13
4.4474e-10
5.38324e-13
4.44062e-10
9.1093e-13
4.43108e-10
1.28334e-12
4.41877e-10
1.65533e-12
4.4037e-10
2.02659e-12
4.38589e-10
2.39672e-12
4.36534e-10
2.76504e-12
4.34206e-10
3.13113e-12
4.31605e-10
3.49546e-12
4.28733e-10
3.85876e-12
4.25592e-10
4.22095e-12
4.22183e-10
4.58154e-12
4.18509e-10
4.94008e-12
4.14571e-10
5.29564e-12
4.10372e-10
5.64723e-12
4.05915e-10
5.99454e-12
4.012e-10
6.33795e-12
3.96231e-10
6.67833e-12
3.91012e-10
7.01583e-12
3.85545e-10
7.34935e-12
3.79836e-10
7.67757e-12
3.73887e-10
7.99973e-12
3.67704e-10
8.31562e-12
3.6129e-10
8.62528e-12
3.54651e-10
8.92857e-12
3.47791e-10
9.22499e-12
3.40718e-10
9.51386e-12
3.33436e-10
9.79439e-12
3.25952e-10
1.0066e-11
3.18274e-10
1.03284e-11
3.10408e-10
1.0581e-11
3.02361e-10
1.08233e-11
2.94144e-10
1.10548e-11
2.85764e-10
1.12749e-11
2.77231e-10
1.14823e-11
2.68554e-10
1.16764e-11
2.59745e-10
1.18561e-11
2.50813e-10
1.20207e-11
2.4177e-10
1.21697e-11
2.32629e-10
1.23023e-11
2.23403e-10
1.24178e-11
2.14104e-10
1.25156e-11
2.04748e-10
1.25948e-11
1.9535e-10
1.26538e-11
1.85924e-10
1.26915e-11
1.76487e-10
1.27069e-11
1.67057e-10
1.26991e-11
1.5765e-10
1.26672e-11
1.48287e-10
1.26103e-11
1.38986e-10
1.2527e-11
1.29768e-10
1.24161e-11
1.20654e-10
1.22768e-11
1.11666e-10
1.21079e-11
1.02827e-10
1.1908e-11
9.41605e-11
1.16759e-11
8.56925e-11
1.14102e-11
7.74476e-11
1.11095e-11
6.94519e-11
1.07727e-11
6.17329e-11
1.03988e-11
5.4318e-11
9.9868e-12
4.7236e-11
9.53629e-12
4.05166e-11
9.04651e-12
3.41897e-11
8.51629e-12
2.82846e-11
7.94474e-12
2.28302e-11
7.33193e-12
1.78556e-11
6.67882e-12
1.33891e-11
5.98671e-12
9.45715e-12
5.25748e-12
6.08289e-12
4.4946e-12
3.28477e-12
3.70389e-12
1.07507e-12
2.89406e-12
-5.42876e-13
2.07753e-12
-1.57979e-12
1.27245e-12
-2.06628e-12
5.05902e-13
-2.06123e-12
-1.81841e-13
-1.66366e-12
-7.30943e-13
-1.02699e-12
-1.05407e-12
-3.71859e-13
-1.03013e-12
-5.24757e-13
-5.04294e-13
8.6863e-13
-1.21695e-12
1.6217e-12
-1.74625e-12
1.57837e-12
-1.83127e-12
8.24929e-13
-1.28348e-12
-3.91821e-13
2.58132e-14
-1.87581e-12
2.18609e-12
-3.50054e-12
5.22191e-12
-5.20395e-12
9.16752e-12
-6.91773e-12
1.40047e-11
-8.62102e-12
1.97209e-11
-1.02844e-11
2.62942e-11
-1.18899e-11
3.36801e-11
-1.34312e-11
4.18485e-11
-1.48943e-11
5.0762e-11
-1.6274e-11
6.03708e-11
-1.75762e-11
7.06368e-11
-1.87946e-11
8.15171e-11
-1.99262e-11
9.29572e-11
-2.09794e-11
1.04923e-10
-2.19457e-11
1.17371e-10
-2.2829e-11
1.30254e-10
-2.36351e-11
1.43532e-10
-2.4364e-11
1.57168e-10
-2.50142e-11
1.71116e-10
-2.55926e-11
1.85339e-10
-2.61007e-11
1.99805e-10
-2.65377e-11
2.14475e-10
-2.69085e-11
2.29311e-10
-2.72163e-11
2.44283e-10
-2.74617e-11
2.5936e-10
-2.76463e-11
2.74509e-10
-2.77745e-11
2.89698e-10
-2.78494e-11
3.04901e-10
-2.78726e-11
3.20093e-10
-2.78438e-11
3.35244e-10
-2.77674e-11
3.50328e-10
-2.76455e-11
3.65325e-10
-2.7479e-11
3.80212e-10
-2.72704e-11
3.94964e-10
-2.70227e-11
4.09561e-10
-2.67378e-11
4.23985e-10
-2.64164e-11
4.38217e-10
-2.60609e-11
4.52239e-10
-2.56732e-11
4.66033e-10
-2.52552e-11
4.79583e-10
-2.48078e-11
4.92876e-10
-2.43321e-11
5.05895e-10
-2.38297e-11
5.18628e-10
-2.33031e-11
5.31061e-10
-2.27539e-11
5.43185e-10
-2.21826e-11
5.54987e-10
-2.15902e-11
5.66455e-10
-2.09792e-11
5.77578e-10
-2.03507e-11
5.8835e-10
-1.97046e-11
5.98761e-10
-1.9042e-11
6.08803e-10
-1.83645e-11
6.18467e-10
-1.76733e-11
6.27746e-10
-1.69691e-11
6.36634e-10
-1.62528e-11
6.45125e-10
-1.55248e-11
6.53213e-10
-1.47865e-11
6.60893e-10
-1.40392e-11
6.68159e-10
-1.32834e-11
6.75009e-10
-1.25197e-11
6.81436e-10
-1.17484e-11
6.87437e-10
-1.09701e-11
6.93007e-10
-1.01852e-11
6.98146e-10
-9.3937e-12
7.0285e-10
-8.59672e-12
7.07116e-10
-7.79533e-12
7.10942e-10
-6.99028e-12
7.14325e-10
-6.18211e-12
7.17263e-10
-5.37085e-12
7.19756e-10
-4.55635e-12
7.21802e-10
-3.73882e-12
7.234e-10
-2.91902e-12
7.24548e-10
-2.09786e-12
7.25247e-10
-1.27605e-12
7.25496e-10
-4.53818e-13
7.25295e-10
3.68851e-13
7.24644e-10
1.19131e-12
7.23543e-10
2.01297e-12
7.21993e-10
2.83373e-12
7.19994e-10
3.65359e-12
7.17547e-10
4.47219e-12
7.14653e-10
5.289e-12
7.11315e-10
6.10342e-12
7.07533e-10
6.91458e-12
7.0331e-10
7.72159e-12
6.98647e-10
8.52418e-12
6.93547e-10
9.32226e-12
6.88013e-10
1.01155e-11
6.82047e-10
1.09038e-11
6.75653e-10
1.16866e-11
6.68836e-10
1.24632e-11
6.61599e-10
1.32324e-11
6.53947e-10
1.39931e-11
6.45884e-10
1.47444e-11
6.37414e-10
1.54861e-11
6.28544e-10
1.62181e-11
6.1928e-10
1.69397e-11
6.0963e-10
1.76494e-11
5.996e-10
1.83458e-11
5.89197e-10
1.9028e-11
5.7843e-10
1.96954e-11
5.67307e-10
2.03473e-11
5.55838e-10
2.09825e-11
5.44033e-10
2.15995e-11
5.31903e-10
2.2197e-11
5.19458e-10
2.27738e-11
5.06712e-10
2.33284e-11
4.93676e-10
2.38594e-11
4.80364e-10
2.43656e-11
4.66791e-10
2.4846e-11
4.52972e-10
2.52994e-11
4.38923e-10
2.57238e-11
4.24662e-10
2.61173e-11
4.10205e-10
2.64776e-11
3.95572e-10
2.68032e-11
3.80782e-10
2.70924e-11
3.65857e-10
2.73434e-11
3.50819e-10
2.75543e-11
3.35689e-10
2.77232e-11
3.20494e-10
2.78482e-11
3.05257e-10
2.79269e-11
2.90005e-10
2.79572e-11
2.74767e-10
2.79367e-11
2.5957e-10
2.78632e-11
2.44445e-10
2.77345e-11
2.29423e-10
2.75483e-11
2.14538e-10
2.73019e-11
1.99821e-10
2.69926e-11
1.8531e-10
2.66181e-11
1.7104e-10
2.61761e-11
1.57049e-10
2.56644e-11
1.43377e-10
2.50805e-11
1.30063e-10
2.44219e-11
1.17149e-10
2.3686e-11
1.04678e-10
2.28704e-11
9.26931e-11
2.19728e-11
8.12376e-11
2.09916e-11
7.03566e-11
1.99262e-11
6.00956e-11
1.87757e-11
5.04995e-11
1.75398e-11
4.16122e-11
1.62186e-11
3.34759e-11
1.48139e-11
2.61308e-11
1.333e-11
1.96143e-11
1.17727e-11
1.39582e-11
1.01507e-11
9.1861e-12
8.47663e-12
5.31087e-12
6.76961e-12
2.33109e-12
5.05698e-12
2.25302e-13
3.37727e-12
-1.05525e-12
1.78495e-12
-1.59524e-12
3.56828e-13
-1.52736e-12
-7.99641e-13
-1.04435e-12
-1.53736e-12
-4.113e-13
-1.66307e-12
-9.36565e-13
-3.62595e-13
1.23444e-12
-7.87178e-13
2.047e-12
-8.62187e-13
1.65868e-12
-3.23742e-13
2.77983e-13
1.04987e-12
-1.76657e-12
3.41491e-12
-4.22703e-12
6.84836e-12
-6.93936e-12
1.14242e-11
-9.77244e-12
1.71533e-11
-1.2651e-11
2.4041e-11
-1.55129e-11
3.20732e-11
-1.83135e-11
4.12166e-11
-2.10318e-11
5.14332e-11
-2.36459e-11
6.26796e-11
-2.61359e-11
7.49e-11
-2.84995e-11
8.80462e-11
-3.07261e-11
1.02066e-10
-3.28105e-11
1.16895e-10
-3.47589e-11
1.32481e-10
-3.65667e-11
1.48769e-10
-3.82315e-11
1.65695e-10
-3.97602e-11
1.8321e-10
-4.11528e-11
2.01259e-10
-4.24111e-11
2.19786e-10
-4.35396e-11
2.38738e-10
-4.4545e-11
2.58065e-10
-4.54273e-11
2.77719e-10
-4.61891e-11
2.97648e-10
-4.68379e-11
3.17808e-10
-4.73769e-11
3.38154e-10
-4.78079e-11
3.58643e-10
-4.81346e-11
3.79231e-10
-4.8364e-11
3.99879e-10
-4.84989e-11
4.20551e-10
-4.85415e-11
4.41206e-10
-4.84974e-11
4.61809e-10
-4.83707e-11
4.82327e-10
-4.81641e-11
5.02728e-10
-4.788e-11
5.22981e-10
-4.75232e-11
5.43054e-10
-4.70979e-11
5.62921e-10
-4.66057e-11
5.82555e-10
-4.60504e-11
6.0193e-10
-4.54354e-11
6.21021e-10
-4.47638e-11
6.39805e-10
-4.40385e-11
6.58261e-10
-4.32619e-11
6.76368e-10
-4.24369e-11
6.94104e-10
-4.15669e-11
7.11452e-10
-4.06538e-11
7.28396e-10
-3.96991e-11
7.44919e-10
-3.87053e-11
7.61004e-10
-3.76754e-11
7.76636e-10
-3.6612e-11
7.91802e-10
-3.55171e-11
8.0649e-10
-3.43921e-11
8.20687e-10
-3.32384e-11
8.3438e-10
-3.2058e-11
8.47561e-10
-3.08531e-11
8.60219e-10
-2.96257e-11
8.72345e-10
-2.83774e-11
8.83929e-10
-2.71096e-11
8.94964e-10
-2.58234e-11
9.05442e-10
-2.45198e-11
9.15357e-10
-2.32001e-11
9.24703e-10
-2.18656e-11
9.33475e-10
-2.05182e-11
9.41666e-10
-1.91593e-11
9.4927e-10
-1.77895e-11
9.56284e-10
-1.64087e-11
9.62704e-10
-1.50177e-11
9.68527e-10
-1.36184e-11
9.73748e-10
-1.22122e-11
9.78366e-10
-1.07998e-11
9.82378e-10
-9.38179e-12
9.85782e-10
-7.95875e-12
9.88575e-10
-6.5315e-12
9.90756e-10
-5.10068e-12
9.92324e-10
-3.66701e-12
9.93278e-10
-2.23136e-12
9.93618e-10
-7.94644e-13
9.93344e-10
6.42801e-13
9.92456e-10
2.08037e-12
9.90953e-10
3.51693e-12
9.88836e-10
4.95163e-12
9.86108e-10
6.38392e-12
9.82768e-10
7.81311e-12
9.78819e-10
9.2384e-12
9.74261e-10
1.06593e-11
9.69098e-10
1.20753e-11
9.63333e-10
1.34856e-11
9.56968e-10
1.48891e-11
9.50008e-10
1.62845e-11
9.42455e-10
1.76706e-11
9.34314e-10
1.90463e-11
9.2559e-10
2.04111e-11
9.16287e-10
2.17647e-11
9.06411e-10
2.31061e-11
8.9597e-10
2.44338e-11
8.84969e-10
2.5746e-11
8.73416e-10
2.7041e-11
8.61317e-10
2.83175e-11
8.48682e-10
2.95744e-11
8.35521e-10
3.08106e-11
8.21843e-10
3.20242e-11
8.07658e-10
3.32132e-11
7.92979e-10
3.43756e-11
7.77816e-10
3.55102e-11
7.62182e-10
3.66152e-11
7.46093e-10
3.76886e-11
7.29562e-10
3.8728e-11
7.12605e-10
3.9731e-11
6.95238e-10
4.06953e-11
6.7748e-10
4.16186e-11
6.59348e-10
4.24982e-11
6.40864e-10
4.33319e-11
6.22047e-10
4.41172e-11
6.02919e-10
4.48514e-11
5.83504e-10
4.55315e-11
5.63826e-10
4.61545e-11
5.43911e-10
4.67172e-11
5.23787e-10
4.72166e-11
5.03481e-10
4.76494e-11
4.83024e-10
4.8012e-11
4.62447e-10
4.8301e-11
4.41782e-10
4.85132e-11
4.21064e-10
4.86449e-11
4.00329e-10
4.86924e-11
3.79614e-10
4.86517e-11
3.58958e-10
4.85189e-11
3.38402e-10
4.82902e-11
3.17988e-10
4.79619e-11
2.9776e-10
4.75297e-11
2.77764e-10
4.69894e-11
2.58046e-10
4.63367e-11
2.38656e-10
4.55672e-11
2.19644e-10
4.46772e-11
2.01061e-10
4.36629e-11
1.82962e-10
4.25206e-11
1.654e-10
4.12466e-11
1.48432e-10
3.98376e-11
1.32114e-10
3.82901e-11
1.16505e-10
3.66014e-11
1.01661e-10
3.477e-11
8.7641e-11
3.27957e-11
7.45015e-11
3.0679e-11
6.22983e-11
2.84216e-11
5.10845e-11
2.60278e-11
4.09093e-11
2.35047e-11
3.18167e-11
2.08638e-11
2.38439e-11
1.8122e-11
1.70178e-11
1.53022e-11
1.13508e-11
1.24368e-11
6.83721e-12
9.57079e-12
3.44764e-12
6.76659e-12
1.12195e-12
4.10972e-12
-2.38604e-13
1.71636e-12
-7.82316e-13
-2.57024e-13
-7.17501e-13
-1.60277e-12
-3.25983e-13
-2.05408e-12
-1.2627e-12
-1.73504e-13
1.40212e-12
-1.6621e-13
2.03431e-12
3.96275e-13
1.09247e-12
1.77664e-12
-1.10687e-12
4.19234e-12
-4.18006e-12
7.78896e-12
-7.82823e-12
1.26782e-11
-1.18224e-11
1.89164e-11
-1.60071e-11
2.65336e-11
-2.02678e-11
3.55391e-11
-2.45127e-11
4.59062e-11
-2.86869e-11
5.76127e-11
-3.2742e-11
7.06178e-11
-3.66444e-11
8.48622e-11
-4.03808e-11
1.00293e-10
-4.393e-11
1.16851e-10
-4.72794e-11
1.34465e-10
-5.04271e-11
1.53072e-10
-5.33686e-11
1.7261e-10
-5.60988e-11
1.93002e-10
-5.86233e-11
2.14183e-10
-6.09428e-11
2.36089e-10
-6.30577e-11
2.58652e-10
-6.49723e-11
2.81804e-10
-6.66947e-11
3.05484e-10
-6.82267e-11
3.29632e-10
-6.9572e-11
3.54181e-10
-7.07391e-11
3.79075e-10
-7.17333e-11
4.04259e-10
-7.25588e-11
4.29675e-10
-7.32212e-11
4.55268e-10
-7.37287e-11
4.80988e-10
-7.4086e-11
5.06786e-10
-7.42975e-11
5.32615e-10
-7.4369e-11
5.58425e-10
-7.43082e-11
5.84174e-10
-7.412e-11
6.0982e-10
-7.3809e-11
6.35323e-10
-7.33811e-11
6.60641e-10
-7.28421e-11
6.85739e-10
-7.21967e-11
7.10583e-10
-7.14493e-11
7.35138e-10
-7.0605e-11
7.59372e-10
-6.96693e-11
7.83253e-10
-6.86467e-11
8.06753e-10
-6.75401e-11
8.29846e-10
-6.6354e-11
8.52504e-10
-6.50939e-11
8.74702e-10
-6.37647e-11
8.96417e-10
-6.23692e-11
9.17628e-10
-6.09095e-11
9.38313e-10
-5.93899e-11
9.58452e-10
-5.78151e-11
9.78026e-10
-5.61878e-11
9.9702e-10
-5.45108e-11
1.01542e-09
-5.27875e-11
1.0332e-09
-5.10207e-11
1.05035e-09
-4.92126e-11
1.06686e-09
-4.73662e-11
1.08272e-09
-4.54843e-11
1.09792e-09
-4.35697e-11
1.11243e-09
-4.16248e-11
1.12626e-09
-3.9652e-11
1.13939e-09
-3.76528e-11
1.15182e-09
-3.56284e-11
1.16354e-09
-3.35809e-11
1.17453e-09
-3.15128e-11
1.1848e-09
-2.9426e-11
1.19433e-09
-2.73219e-11
1.20312e-09
-2.52015e-11
1.21117e-09
-2.30666e-11
1.21847e-09
-2.09188e-11
1.22502e-09
-1.87597e-11
1.23081e-09
-1.65904e-11
1.23584e-09
-1.44121e-11
1.24011e-09
-1.22259e-11
1.24361e-09
-1.00332e-11
1.24634e-09
-7.83527e-12
1.24831e-09
-5.63347e-12
1.24951e-09
-3.42864e-12
1.24994e-09
-1.22181e-12
1.24959e-09
9.85894e-13
1.24848e-09
3.19354e-12
1.24659e-09
5.40002e-12
1.24394e-09
7.60434e-12
1.24052e-09
9.80543e-12
1.23633e-09
1.20017e-11
1.23138e-09
1.41913e-11
1.22567e-09
1.63733e-11
1.2192e-09
1.85472e-11
1.21197e-09
2.07121e-11
1.20399e-09
2.28665e-11
1.19527e-09
2.50089e-11
1.1858e-09
2.71378e-11
1.17559e-09
2.92513e-11
1.16466e-09
3.13473e-11
1.153e-09
3.34246e-11
1.14063e-09
3.54819e-11
1.12754e-09
3.7518e-11
1.11376e-09
3.95307e-11
1.09928e-09
4.15172e-11
1.08412e-09
4.34752e-11
1.06829e-09
4.54025e-11
1.05181e-09
4.7297e-11
1.03467e-09
4.91566e-11
1.01691e-09
5.09787e-11
9.98525e-10
5.27601e-11
9.79537e-10
5.44981e-11
9.59963e-10
5.61898e-11
9.3982e-10
5.78323e-11
9.19126e-10
5.94222e-11
8.979e-10
6.0956e-11
8.76165e-10
6.24301e-11
8.53941e-10
6.38412e-11
8.31253e-10
6.51856e-11
8.08126e-10
6.64593e-11
7.84585e-10
6.76582e-11
7.60659e-10
6.8778e-11
7.36377e-10
6.98142e-11
7.11769e-10
7.07623e-11
6.86867e-10
7.16178e-11
6.61707e-10
7.23764e-11
6.36323e-10
7.30329e-11
6.10752e-10
7.35821e-11
5.85034e-10
7.40186e-11
5.5921e-10
7.43373e-11
5.33322e-10
7.45326e-11
5.07415e-10
7.45992e-11
4.81535e-10
7.45312e-11
4.55731e-10
7.43228e-11
4.30054e-10
7.3968e-11
4.04554e-10
7.3461e-11
3.79287e-10
7.27958e-11
3.54309e-10
7.19665e-11
3.29678e-10
7.09671e-11
3.05453e-10
6.97915e-11
2.81697e-10
6.84335e-11
2.58473e-10
6.68878e-11
2.35845e-10
6.51487e-11
2.1388e-10
6.32112e-11
1.92645e-10
6.10711e-11
1.72208e-10
5.87249e-11
1.5264e-10
5.61692e-11
1.34008e-10
5.34018e-11
1.16381e-10
5.04228e-11
9.98252e-11
4.72343e-11
8.44056e-11
4.38407e-11
7.01837e-11
4.02494e-11
5.72158e-11
3.64725e-11
4.55514e-11
3.25281e-11
3.52309e-11
2.84421e-11
2.62827e-11
2.42498e-11
1.87192e-11
1.99997e-11
1.25328e-11
1.57569e-11
7.69046e-12
1.1609e-11
4.1273e-12
7.67269e-12
1.73978e-12
4.10321e-12
3.77481e-13
1.10452e-12
-1.67303e-13
-1.05899e-12
-1.69691e-13
-2.05166e-12
-1.43233e-12
3.80675e-14
1.3671e-12
5.54246e-13
1.51725e-12
1.87723e-12
-2.27626e-13
4.24362e-12
-3.4677e-12
7.838e-12
-7.7795e-12
1.28216e-11
-1.28038e-11
1.9283e-11
-1.82821e-11
2.72887e-11
-2.40151e-11
3.6876e-11
-2.98479e-11
4.80427e-11
-3.56782e-11
6.07732e-11
-4.14186e-11
7.50401e-11
-4.70053e-11
9.079e-11
-5.23988e-11
1.07974e-10
-5.75658e-11
1.26528e-10
-6.24811e-11
1.46381e-10
-6.71325e-11
1.6746e-10
-7.15096e-11
1.89694e-10
-7.56014e-11
2.13006e-10
-7.94084e-11
2.37313e-10
-8.2933e-11
2.62546e-10
-8.61726e-11
2.88623e-10
-8.91321e-11
3.15467e-10
-9.18169e-11
3.43004e-10
-9.42324e-11
3.71162e-10
-9.63827e-11
3.99866e-10
-9.82752e-11
4.29044e-10
-9.99193e-11
4.5863e-10
-1.0132e-10
4.88558e-10
-1.02484e-10
5.18759e-10
-1.03422e-10
5.49171e-10
-1.04142e-10
5.79736e-10
-1.0465e-10
6.10394e-10
-1.04954e-10
6.41088e-10
-1.05063e-10
6.71762e-10
-1.04984e-10
7.02367e-10
-1.04725e-10
7.32853e-10
-1.04293e-10
7.63168e-10
-1.03697e-10
7.93267e-10
-1.02943e-10
8.23109e-10
-1.02039e-10
8.52651e-10
-1.0099e-10
8.81851e-10
-9.98046e-11
9.10672e-10
-9.84899e-11
9.39077e-10
-9.70517e-11
9.67033e-10
-9.5495e-11
9.94505e-10
-9.38263e-11
1.02146e-09
-9.20524e-11
1.04787e-09
-9.01788e-11
1.07372e-09
-8.82103e-11
1.09896e-09
-8.6152e-11
1.12358e-09
-8.40093e-11
1.14755e-09
-8.17874e-11
1.17085e-09
-7.94908e-11
1.19347e-09
-7.71233e-11
1.21537e-09
-7.46895e-11
1.23654e-09
-7.21938e-11
1.25697e-09
-6.96402e-11
1.27663e-09
-6.70319e-11
1.29552e-09
-6.43726e-11
1.31362e-09
-6.16664e-11
1.33091e-09
-5.89164e-11
1.34738e-09
-5.61257e-11
1.36303e-09
-5.32972e-11
1.37784e-09
-5.04338e-11
1.39179e-09
-4.75382e-11
1.40489e-09
-4.46129e-11
1.41712e-09
-4.16599e-11
1.42848e-09
-3.86815e-11
1.43896e-09
-3.56802e-11
1.44855e-09
-3.26584e-11
1.45725e-09
-2.96183e-11
1.46506e-09
-2.65622e-11
1.47196e-09
-2.34916e-11
1.47795e-09
-2.04079e-11
1.48304e-09
-1.73128e-11
1.48722e-09
-1.42084e-11
1.49048e-09
-1.10966e-11
1.49282e-09
-7.97891e-12
1.49425e-09
-4.85664e-12
1.49476e-09
-1.7315e-12
1.49435e-09
1.39452e-12
1.49303e-09
4.52007e-12
1.49078e-09
7.64409e-12
1.48762e-09
1.07651e-11
1.48354e-09
1.38811e-11
1.47855e-09
1.69903e-11
1.47265e-09
2.0091e-11
1.46585e-09
2.31813e-11
1.45814e-09
2.62596e-11
1.44952e-09
2.93242e-11
1.44002e-09
3.23733e-11
1.42962e-09
3.5405e-11
1.41834e-09
3.84172e-11
1.40618e-09
4.14078e-11
1.39316e-09
4.43743e-11
1.37927e-09
4.73143e-11
1.36453e-09
5.02253e-11
1.34894e-09
5.31049e-11
1.33252e-09
5.59505e-11
1.31528e-09
5.8759e-11
1.29722e-09
6.15272e-11
1.27837e-09
6.4252e-11
1.25874e-09
6.69296e-11
1.23834e-09
6.95569e-11
1.21719e-09
7.21305e-11
1.1953e-09
7.46466e-11
1.1727e-09
7.71012e-11
1.1494e-09
7.94899e-11
1.12542e-09
8.18082e-11
1.1008e-09
8.40515e-11
1.07554e-09
8.6215e-11
1.04967e-09
8.82936e-11
1.02323e-09
9.02824e-11
9.96241e-10
9.21765e-11
9.68729e-10
9.39705e-11
9.40729e-10
9.56584e-11
9.12273e-10
9.7234e-11
8.83395e-10
9.86912e-11
8.54134e-10
1.00024e-10
8.24526e-10
1.01225e-10
7.94614e-10
1.02289e-10
7.64438e-10
1.03208e-10
7.34043e-10
1.03976e-10
7.03476e-10
1.04586e-10
6.72784e-10
1.05029e-10
6.42019e-10
1.05298e-10
6.11233e-10
1.05385e-10
5.80481e-10
1.05283e-10
5.49821e-10
1.04984e-10
5.1931e-10
1.04479e-10
4.89012e-10
1.0376e-10
4.58988e-10
1.0282e-10
4.29305e-10
1.01649e-10
4.00031e-10
1.0024e-10
3.71236e-10
9.85861e-11
3.42991e-10
9.6678e-11
3.15371e-10
9.45084e-11
2.88448e-10
9.20705e-11
2.62302e-10
8.93577e-11
2.37008e-10
8.63645e-11
2.12645e-10
8.30866e-11
1.89292e-10
7.95211e-11
1.67028e-10
7.56665e-11
1.45928e-10
7.15231e-11
1.26067e-10
6.70946e-11
1.07518e-10
6.23888e-11
9.03486e-11
5.74178e-11
7.46211e-11
5.21997e-11
6.03892e-11
4.67601e-11
4.76962e-11
4.1135e-11
3.65725e-11
3.53733e-11
2.70314e-11
2.95403e-11
1.90655e-11
2.3722e-11
1.26423e-11
1.80315e-11
7.69832e-12
1.26163e-11
4.13358e-12
7.6678e-12
1.80542e-12
3.4328e-12
5.19906e-13
2.25981e-13
2.58463e-14
-1.55797e-12
-1.40653e-12
2.54161e-13
1.11052e-12
1.32865e-12
4.43236e-13
3.48444e-12
-2.37618e-12
6.91623e-12
-6.90196e-12
1.17999e-11
-1.26577e-11
1.82594e-11
-1.92616e-11
2.63849e-11
-2.64114e-11
3.62413e-11
-3.38669e-11
4.78489e-11
-4.14581e-11
6.12168e-11
-4.90453e-11
7.63266e-11
-5.65241e-11
9.31397e-11
-6.38179e-11
1.11607e-10
-7.08694e-11
1.31675e-10
-7.76307e-11
1.53271e-10
-8.40756e-11
1.7632e-10
-9.01836e-11
2.00747e-10
-9.59347e-11
2.26468e-10
-1.01321e-10
2.53396e-10
-1.06341e-10
2.81451e-10
-1.10988e-10
3.10546e-10
-1.15266e-10
3.40595e-10
-1.19179e-10
3.71509e-10
-1.22734e-10
4.03209e-10
-1.25932e-10
4.35612e-10
-1.28782e-10
4.68631e-10
-1.31296e-10
5.02192e-10
-1.3348e-10
5.36216e-10
-1.35342e-10
5.70626e-10
-1.36894e-10
6.05348e-10
-1.38146e-10
6.40312e-10
-1.39108e-10
6.75451e-10
-1.39787e-10
7.10696e-10
-1.40198e-10
7.45981e-10
-1.40349e-10
7.81246e-10
-1.4025e-10
8.16433e-10
-1.3991e-10
8.51482e-10
-1.39342e-10
8.86339e-10
-1.38554e-10
9.2095e-10
-1.37555e-10
9.55266e-10
-1.36355e-10
9.89239e-10
-1.34963e-10
1.02282e-09
-1.33388e-10
1.05597e-09
-1.3164e-10
1.08865e-09
-1.29725e-10
1.1208e-09
-1.27652e-10
1.15241e-09
-1.25431e-10
1.18342e-09
-1.23069e-10
1.21382e-09
-1.20572e-10
1.24355e-09
-1.17947e-10
1.2726e-09
-1.15202e-10
1.30094e-09
-1.12344e-10
1.32853e-09
-1.09379e-10
1.35535e-09
-1.06314e-10
1.38138e-09
-1.03154e-10
1.4066e-09
-9.99045e-11
1.43097e-09
-9.65712e-11
1.45449e-09
-9.31598e-11
1.47714e-09
-8.96754e-11
1.49889e-09
-8.61227e-11
1.51973e-09
-8.25065e-11
1.53964e-09
-7.8831e-11
1.55861e-09
-7.51001e-11
1.57663e-09
-7.13177e-11
1.59369e-09
-6.7488e-11
1.60977e-09
-6.36153e-11
1.62486e-09
-5.97029e-11
1.63895e-09
-5.57531e-11
1.65204e-09
-5.17686e-11
1.66411e-09
-4.77532e-11
1.67516e-09
-4.37103e-11
1.68518e-09
-3.96427e-11
1.69417e-09
-3.55528e-11
1.70213e-09
-3.14432e-11
1.70904e-09
-2.73164e-11
1.7149e-09
-2.31746e-11
1.71971e-09
-1.90202e-11
1.72347e-09
-1.48556e-11
1.72617e-09
-1.06828e-11
1.72782e-09
-6.50407e-12
1.72841e-09
-2.32135e-12
1.72794e-09
1.86316e-12
1.72641e-09
6.04728e-12
1.72383e-09
1.02291e-11
1.72019e-09
1.44064e-11
1.71549e-09
1.85766e-11
1.70974e-09
2.27375e-11
1.70295e-09
2.68869e-11
1.69511e-09
3.10228e-11
1.68622e-09
3.51428e-11
1.6763e-09
3.92444e-11
1.66535e-09
4.3325e-11
1.65338e-09
4.73815e-11
1.64038e-09
5.1411e-11
1.62638e-09
5.5411e-11
1.61137e-09
5.93789e-11
1.59537e-09
6.33114e-11
1.5784e-09
6.72051e-11
1.56045e-09
7.1056e-11
1.54154e-09
7.48603e-11
1.52168e-09
7.86145e-11
1.50089e-09
8.23144e-11
1.47919e-09
8.59559e-11
1.45658e-09
8.95342e-11
1.4331e-09
9.30444e-11
1.40875e-09
9.64818e-11
1.38355e-09
9.98418e-11
1.35753e-09
1.03119e-10
1.33071e-09
1.06308e-10
1.30312e-09
1.09402e-10
1.27478e-09
1.12395e-10
1.24571e-09
1.15281e-10
1.21595e-09
1.18053e-10
1.18553e-09
1.20705e-10
1.15448e-09
1.23229e-10
1.12283e-09
1.25619e-10
1.09062e-09
1.27867e-10
1.05789e-09
1.29964e-10
1.02468e-09
1.31903e-10
9.91026e-10
1.33675e-10
9.5698e-10
1.35271e-10
9.22585e-10
1.36684e-10
8.87889e-10
1.37904e-10
8.52944e-10
1.38921e-10
8.17803e-10
1.39727e-10
7.82521e-10
1.40311e-10
7.47155e-10
1.40663e-10
7.11766e-10
1.40774e-10
6.76417e-10
1.40632e-10
6.41172e-10
1.40228e-10
6.06099e-10
1.39552e-10
5.71267e-10
1.38592e-10
5.36749e-10
1.37338e-10
5.02619e-10
1.35779e-10
4.68953e-10
1.33906e-10
4.35831e-10
1.31708e-10
4.03333e-10
1.29176e-10
3.71542e-10
1.263e-10
3.4054e-10
1.23071e-10
3.10414e-10
1.19483e-10
2.8125e-10
1.15528e-10
2.53135e-10
1.11201e-10
2.26156e-10
1.065e-10
2.00398e-10
1.01424e-10
1.75945e-10
9.59754e-11
1.5288e-10
9.01596e-11
1.3128e-10
8.3988e-11
1.1122e-10
7.74777e-11
9.2765e-11
7.06538e-11
7.59739e-11
6.35508e-11
6.08933e-11
5.62157e-11
4.75562e-11
4.87107e-11
3.59787e-11
4.11178e-11
2.61562e-11
3.35438e-11
1.80606e-11
2.61264e-11
1.16347e-11
1.90415e-11
6.78846e-12
1.25134e-11
3.39515e-12
6.82616e-12
1.28474e-12
2.33637e-12
2.41294e-13
-5.14843e-13
-1.16538e-12
4.76798e-13
6.34618e-13
2.12728e-12
-1.20489e-12
5.14955e-12
-5.39953e-12
9.71021e-12
-1.14555e-11
1.59347e-11
-1.88826e-11
2.39349e-11
-2.72616e-11
3.37908e-11
-3.62594e-11
4.55411e-11
-4.56196e-11
5.92126e-11
-5.51324e-11
7.48046e-11
-6.46359e-11
9.22945e-11
-7.4012e-11
1.1164e-10
-8.31661e-11
1.32795e-10
-9.20213e-11
1.5569e-10
-1.00526e-10
1.80253e-10
-1.08643e-10
2.0641e-10
-1.16339e-10
2.34073e-10
-1.23595e-10
2.63152e-10
-1.30402e-10
2.93559e-10
-1.36748e-10
3.25204e-10
-1.4263e-10
3.57989e-10
-1.48052e-10
3.91824e-10
-1.53015e-10
4.26616e-10
-1.57525e-10
4.62273e-10
-1.61587e-10
4.98703e-10
-1.65213e-10
5.35817e-10
-1.68411e-10
5.73529e-10
-1.71191e-10
6.11753e-10
-1.73564e-10
6.50403e-10
-1.75545e-10
6.894e-10
-1.77144e-10
7.28666e-10
-1.78373e-10
7.68123e-10
-1.79244e-10
8.07697e-10
-1.79772e-10
8.47316e-10
-1.79969e-10
8.86914e-10
-1.79846e-10
9.26422e-10
-1.79418e-10
9.65775e-10
-1.78696e-10
1.00491e-09
-1.77693e-10
1.04378e-09
-1.7642e-10
1.08231e-09
-1.74889e-10
1.12047e-09
-1.73114e-10
1.15818e-09
-1.71104e-10
1.19541e-09
-1.6887e-10
1.23211e-09
-1.66423e-10
1.26823e-09
-1.63773e-10
1.30373e-09
-1.60933e-10
1.33857e-09
-1.5791e-10
1.37271e-09
-1.54715e-10
1.40612e-09
-1.51355e-10
1.43876e-09
-1.47841e-10
1.4706e-09
-1.44181e-10
1.5016e-09
-1.40384e-10
1.53175e-09
-1.36457e-10
1.561e-09
-1.32408e-10
1.58934e-09
-1.28244e-10
1.61674e-09
-1.23971e-10
1.64318e-09
-1.19597e-10
1.66863e-09
-1.15129e-10
1.69308e-09
-1.10573e-10
1.71651e-09
-1.05935e-10
1.7389e-09
-1.0122e-10
1.76023e-09
-9.64333e-11
1.78049e-09
-9.15798e-11
1.79967e-09
-8.66652e-11
1.81775e-09
-8.16946e-11
1.83472e-09
-7.6672e-11
1.85057e-09
-7.16011e-11
1.86528e-09
-6.64861e-11
1.87886e-09
-6.13312e-11
1.89129e-09
-5.61406e-11
1.90257e-09
-5.09178e-11
1.91268e-09
-4.5666e-11
1.92162e-09
-4.03884e-11
1.9294e-09
-3.50883e-11
1.93599e-09
-2.9769e-11
1.9414e-09
-2.44334e-11
1.94563e-09
-1.90846e-11
1.94867e-09
-1.37253e-11
1.95053e-09
-8.35821e-12
1.95119e-09
-2.98608e-12
1.95067e-09
2.38845e-12
1.94895e-09
7.76267e-12
1.94605e-09
1.31341e-11
1.94195e-09
1.84997e-11
1.93667e-09
2.38562e-11
1.93021e-09
2.92004e-11