/*--------------------------------*- C++ -*----------------------------------*\
  =========                 |
  \\      /  F ield         | OpenFOAM: The Open Source CFD Toolbox
   \\    /   O peration     | Website:  https://openfoam.org
    \\  /    A nd           | Version:  7
     \\/     M anipulation  |
\*---------------------------------------------------------------------------*/
FoamFile
{
    version     2.0;
    format      ascii;
    class       volVectorField;
    location    "0.2375";
    object      U;
}
// * * * * * * * * * * * * * * * * * * * * * * * * * * * * * * * * * * * * * //

dimensions      [0 1 -1 0 0 0 0];

internalField   nonuniform List<vector> 
51200
(
(-5.16538e-08 -2.99224e-08 0)
(-1.06276e-07 5.79004e-09 0)
(-1.59191e-07 2.89071e-08 0)
(-2.13004e-07 2.67371e-08 0)
(-2.55912e-07 1.82081e-08 0)
(-2.67229e-07 6.81054e-09 0)
(-2.43625e-07 -4.66013e-09 0)
(-1.83952e-07 -1.69796e-08 0)
(-8.7524e-08 -2.79794e-08 0)
(4.48843e-08 -3.9605e-08 0)
(2.11114e-07 -4.97932e-08 0)
(4.11085e-07 -5.96355e-08 0)
(6.4202e-07 -6.89748e-08 0)
(9.03227e-07 -7.73554e-08 0)
(1.19244e-06 -8.56832e-08 0)
(1.50754e-06 -9.33005e-08 0)
(1.84738e-06 -1.00129e-07 0)
(2.20963e-06 -1.0657e-07 0)
(2.59299e-06 -1.12444e-07 0)
(2.99606e-06 -1.17668e-07 0)
(3.41663e-06 -1.22617e-07 0)
(3.85297e-06 -1.27065e-07 0)
(4.30413e-06 -1.30745e-07 0)
(4.76809e-06 -1.34258e-07 0)
(5.24322e-06 -1.37381e-07 0)
(5.72893e-06 -1.40127e-07 0)
(6.22319e-06 -1.42547e-07 0)
(6.72463e-06 -1.44536e-07 0)
(7.23254e-06 -1.46124e-07 0)
(7.74554e-06 -1.47286e-07 0)
(8.26217e-06 -1.48018e-07 0)
(8.78143e-06 -1.48425e-07 0)
(9.30249e-06 -1.48627e-07 0)
(9.82429e-06 -1.48671e-07 0)
(1.03458e-05 -1.48609e-07 0)
(1.08661e-05 -1.48267e-07 0)
(1.13846e-05 -1.47537e-07 0)
(1.19001e-05 -1.46447e-07 0)
(1.24117e-05 -1.45123e-07 0)
(1.29189e-05 -1.43598e-07 0)
(1.3421e-05 -1.4197e-07 0)
(1.39173e-05 -1.4021e-07 0)
(1.4407e-05 -1.38229e-07 0)
(1.48896e-05 -1.36067e-07 0)
(1.53647e-05 -1.33715e-07 0)
(1.58315e-05 -1.31232e-07 0)
(1.62895e-05 -1.28652e-07 0)
(1.67382e-05 -1.26004e-07 0)
(1.71772e-05 -1.23236e-07 0)
(1.76061e-05 -1.20299e-07 0)
(1.80244e-05 -1.17219e-07 0)
(1.84317e-05 -1.13997e-07 0)
(1.88278e-05 -1.10641e-07 0)
(1.92124e-05 -1.07219e-07 0)
(1.95849e-05 -1.03764e-07 0)
(1.99452e-05 -1.00235e-07 0)
(2.0293e-05 -9.65981e-08 0)
(2.0628e-05 -9.28857e-08 0)
(2.09499e-05 -8.91456e-08 0)
(2.12585e-05 -8.53916e-08 0)
(2.15536e-05 -8.16392e-08 0)
(2.18351e-05 -7.78563e-08 0)
(2.21027e-05 -7.39462e-08 0)
(2.23564e-05 -6.98715e-08 0)
(2.25958e-05 -6.56595e-08 0)
(2.2821e-05 -6.1415e-08 0)
(2.30319e-05 -5.72675e-08 0)
(2.32283e-05 -5.32439e-08 0)
(2.341e-05 -4.92764e-08 0)
(2.35769e-05 -4.52469e-08 0)
(2.37289e-05 -4.10503e-08 0)
(2.3866e-05 -3.66958e-08 0)
(2.39882e-05 -3.23146e-08 0)
(2.40954e-05 -2.80078e-08 0)
(2.41875e-05 -2.3773e-08 0)
(2.42644e-05 -1.95503e-08 0)
(2.43262e-05 -1.5293e-08 0)
(2.43728e-05 -1.10036e-08 0)
(2.4404e-05 -6.68939e-09 0)
(2.442e-05 -2.34739e-09 0)
(2.44208e-05 2.00005e-09 0)
(2.44064e-05 6.32848e-09 0)
(2.43768e-05 1.06361e-08 0)
(2.43319e-05 1.49219e-08 0)
(2.42718e-05 1.91758e-08 0)
(2.41965e-05 2.34122e-08 0)
(2.4106e-05 2.76731e-08 0)
(2.40003e-05 3.19655e-08 0)
(2.38796e-05 3.62649e-08 0)
(2.37438e-05 4.05533e-08 0)
(2.3593e-05 4.48121e-08 0)
(2.34274e-05 4.90256e-08 0)
(2.32471e-05 5.31903e-08 0)
(2.30522e-05 5.72888e-08 0)
(2.28426e-05 6.13231e-08 0)
(2.26184e-05 6.53369e-08 0)
(2.23799e-05 6.93663e-08 0)
(2.21271e-05 7.34289e-08 0)
(2.18602e-05 7.75074e-08 0)
(2.15794e-05 8.15327e-08 0)
(2.1285e-05 8.5445e-08 0)
(2.0977e-05 8.92264e-08 0)
(2.06555e-05 9.29013e-08 0)
(2.03209e-05 9.65272e-08 0)
(1.99734e-05 1.00141e-07 0)
(1.96133e-05 1.03729e-07 0)
(1.92409e-05 1.07253e-07 0)
(1.88564e-05 1.10684e-07 0)
(1.84602e-05 1.14009e-07 0)
(1.80525e-05 1.17226e-07 0)
(1.76339e-05 1.20323e-07 0)
(1.72046e-05 1.23299e-07 0)
(1.6765e-05 1.26174e-07 0)
(1.63157e-05 1.28941e-07 0)
(1.5857e-05 1.31562e-07 0)
(1.53895e-05 1.34013e-07 0)
(1.49137e-05 1.3631e-07 0)
(1.443e-05 1.38483e-07 0)
(1.39392e-05 1.40532e-07 0)
(1.34417e-05 1.42409e-07 0)
(1.29383e-05 1.44064e-07 0)
(1.24297e-05 1.45491e-07 0)
(1.19167e-05 1.46707e-07 0)
(1.13999e-05 1.47711e-07 0)
(1.08802e-05 1.48489e-07 0)
(1.03584e-05 1.49022e-07 0)
(9.83528e-06 1.49282e-07 0)
(9.31188e-06 1.49253e-07 0)
(8.78917e-06 1.48943e-07 0)
(8.26819e-06 1.48352e-07 0)
(7.74999e-06 1.47476e-07 0)
(7.23564e-06 1.46311e-07 0)
(6.72632e-06 1.44816e-07 0)
(6.22324e-06 1.42922e-07 0)
(5.72768e-06 1.40589e-07 0)
(5.241e-06 1.37824e-07 0)
(4.76457e-06 1.34654e-07 0)
(4.29975e-06 1.31101e-07 0)
(3.84802e-06 1.27138e-07 0)
(3.41095e-06 1.22706e-07 0)
(2.99016e-06 1.17774e-07 0)
(2.58731e-06 1.12333e-07 0)
(2.20412e-06 1.0636e-07 0)
(1.84233e-06 9.98312e-08 0)
(1.50361e-06 9.27303e-08 0)
(1.18976e-06 8.50379e-08 0)
(9.02659e-07 7.67347e-08 0)
(6.44145e-07 6.7811e-08 0)
(4.1599e-07 5.8282e-08 0)
(2.19843e-07 4.8186e-08 0)
(5.72339e-08 3.75649e-08 0)
(-7.04737e-08 2.64606e-08 0)
(-1.6228e-07 1.49447e-08 0)
(-2.17833e-07 3.20851e-09 0)
(-2.37773e-07 -8.35031e-09 0)
(-2.24212e-07 -1.90091e-08 0)
(-1.81546e-07 -2.74877e-08 0)
(-1.18208e-07 -3.14713e-08 0)
(-5.17741e-08 -2.69879e-08 0)
(-1.03275e-08 -1.03811e-08 0)
(-5.41568e-08 3.31036e-09 0)
(-1.63406e-07 7.50995e-08 0)
(-2.72321e-07 1.13663e-07 0)
(-3.65166e-07 9.07928e-08 0)
(-4.02778e-07 4.07639e-08 0)
(-3.63543e-07 -2.17845e-08 0)
(-2.36725e-07 -9.03998e-08 0)
(-1.67725e-08 -1.60678e-07 0)
(2.98709e-07 -2.31011e-07 0)
(7.08688e-07 -3.0002e-07 0)
(1.21257e-06 -3.66275e-07 0)
(1.80506e-06 -4.30169e-07 0)
(2.48472e-06 -4.90147e-07 0)
(3.24639e-06 -5.46971e-07 0)
(4.08559e-06 -6.00972e-07 0)
(4.99926e-06 -6.51002e-07 0)
(5.98105e-06 -6.97918e-07 0)
(7.02643e-06 -7.41501e-07 0)
(8.13185e-06 -7.81006e-07 0)
(9.29179e-06 -8.17832e-07 0)
(1.05018e-05 -8.51423e-07 0)
(1.17583e-05 -8.81683e-07 0)
(1.3056e-05 -9.08613e-07 0)
(1.43906e-05 -9.3307e-07 0)
(1.57589e-05 -9.54333e-07 0)
(1.71564e-05 -9.73022e-07 0)
(1.85791e-05 -9.89499e-07 0)
(2.00239e-05 -1.00319e-06 0)
(2.1487e-05 -1.0143e-06 0)
(2.29648e-05 -1.02321e-06 0)
(2.4454e-05 -1.02989e-06 0)
(2.59516e-05 -1.03423e-06 0)
(2.74546e-05 -1.0365e-06 0)
(2.89599e-05 -1.037e-06 0)
(3.0465e-05 -1.03578e-06 0)
(3.19673e-05 -1.03266e-06 0)
(3.34642e-05 -1.02782e-06 0)
(3.49529e-05 -1.02141e-06 0)
(3.64314e-05 -1.01339e-06 0)
(3.78977e-05 -1.00377e-06 0)
(3.93492e-05 -9.92814e-07 0)
(4.07842e-05 -9.80688e-07 0)
(4.22008e-05 -9.67258e-07 0)
(4.35974e-05 -9.52579e-07 0)
(4.49721e-05 -9.3672e-07 0)
(4.63232e-05 -9.19826e-07 0)
(4.76493e-05 -9.01925e-07 0)
(4.89489e-05 -8.83132e-07 0)
(5.02207e-05 -8.63516e-07 0)
(5.14635e-05 -8.43086e-07 0)
(5.26759e-05 -8.21839e-07 0)
(5.38568e-05 -7.99698e-07 0)
(5.50053e-05 -7.76763e-07 0)
(5.61201e-05 -7.53248e-07 0)
(5.72004e-05 -7.29228e-07 0)
(5.82454e-05 -7.04638e-07 0)
(5.92543e-05 -6.79441e-07 0)
(6.02263e-05 -6.53679e-07 0)
(6.11604e-05 -6.27447e-07 0)
(6.20562e-05 -6.00821e-07 0)
(6.29132e-05 -5.73882e-07 0)
(6.37307e-05 -5.4668e-07 0)
(6.4508e-05 -5.19133e-07 0)
(6.52447e-05 -4.91188e-07 0)
(6.59403e-05 -4.62815e-07 0)
(6.65945e-05 -4.34051e-07 0)
(6.72069e-05 -4.05065e-07 0)
(6.77772e-05 -3.76005e-07 0)
(6.8305e-05 -3.46899e-07 0)
(6.87901e-05 -3.17648e-07 0)
(6.92322e-05 -2.88131e-07 0)
(6.96308e-05 -2.58323e-07 0)
(6.99858e-05 -2.2833e-07 0)
(7.02972e-05 -1.9826e-07 0)
(7.05648e-05 -1.68148e-07 0)
(7.07885e-05 -1.37983e-07 0)
(7.0968e-05 -1.07757e-07 0)
(7.11034e-05 -7.74832e-08 0)
(7.11944e-05 -4.71733e-08 0)
(7.12411e-05 -1.68146e-08 0)
(7.12434e-05 1.35869e-08 0)
(7.12014e-05 4.4004e-08 0)
(7.11152e-05 7.44154e-08 0)
(7.09846e-05 1.04785e-07 0)
(7.08097e-05 1.35072e-07 0)
(7.05907e-05 1.65264e-07 0)
(7.03277e-05 1.95381e-07 0)
(7.00208e-05 2.254e-07 0)
(6.96701e-05 2.55293e-07 0)
(6.92756e-05 2.85099e-07 0)
(6.88377e-05 3.14847e-07 0)
(6.83566e-05 3.44473e-07 0)
(6.78326e-05 3.73905e-07 0)
(6.72658e-05 4.03099e-07 0)
(6.66568e-05 4.31996e-07 0)
(6.60058e-05 4.6059e-07 0)
(6.53132e-05 4.88915e-07 0)
(6.45793e-05 5.17018e-07 0)
(6.38045e-05 5.44951e-07 0)
(6.29893e-05 5.72648e-07 0)
(6.21343e-05 5.99948e-07 0)
(6.124e-05 6.26732e-07 0)
(6.03072e-05 6.52983e-07 0)
(5.93366e-05 6.78755e-07 0)
(5.83286e-05 7.0409e-07 0)
(5.72841e-05 7.28939e-07 0)
(5.6204e-05 7.53219e-07 0)
(5.50891e-05 7.76872e-07 0)
(5.39404e-05 7.99863e-07 0)
(5.27589e-05 8.22168e-07 0)
(5.15457e-05 8.43732e-07 0)
(5.03018e-05 8.64479e-07 0)
(4.90285e-05 8.84376e-07 0)
(4.7727e-05 9.03397e-07 0)
(4.63988e-05 9.21463e-07 0)
(4.50454e-05 9.38487e-07 0)
(4.36683e-05 9.54415e-07 0)
(4.2269e-05 9.69214e-07 0)
(4.08493e-05 9.82846e-07 0)
(3.94108e-05 9.95233e-07 0)
(3.79556e-05 1.00627e-06 0)
(3.64856e-05 1.01589e-06 0)
(3.50031e-05 1.02405e-06 0)
(3.35102e-05 1.03066e-06 0)
(3.20092e-05 1.03561e-06 0)
(3.05026e-05 1.03883e-06 0)
(2.8993e-05 1.04023e-06 0)
(2.74829e-05 1.03974e-06 0)
(2.59752e-05 1.03727e-06 0)
(2.44729e-05 1.03274e-06 0)
(2.2979e-05 1.02606e-06 0)
(2.14967e-05 1.01715e-06 0)
(2.00292e-05 1.00591e-06 0)
(1.85801e-05 9.92209e-07 0)
(1.7153e-05 9.75909e-07 0)
(1.57516e-05 9.56895e-07 0)
(1.43799e-05 9.3507e-07 0)
(1.30419e-05 9.10373e-07 0)
(1.17416e-05 8.82726e-07 0)
(1.04833e-05 8.51995e-07 0)
(9.27149e-06 8.18072e-07 0)
(8.11062e-06 7.80887e-07 0)
(7.00536e-06 7.40332e-07 0)
(5.9605e-06 6.96289e-07 0)
(4.98079e-06 6.48707e-07 0)
(4.07089e-06 5.97596e-07 0)
(3.23548e-06 5.42979e-07 0)
(2.47916e-06 4.84895e-07 0)
(1.80634e-06 4.23457e-07 0)
(1.22104e-06 3.58934e-07 0)
(7.26677e-07 2.91784e-07 0)
(3.25792e-07 2.22668e-07 0)
(1.97699e-08 1.52532e-07 0)
(-1.91792e-07 8.28592e-08 0)
(-3.11956e-07 1.60372e-08 0)
(-3.47542e-07 -4.4169e-08 0)
(-3.10441e-07 -9.1901e-08 0)
(-2.19805e-07 -1.18083e-07 0)
(-1.08756e-07 -1.0935e-07 0)
(-2.66757e-08 -5.17692e-08 0)
(-4.0927e-08 9.44662e-08 0)
(-1.409e-07 2.06775e-07 0)
(-2.49297e-07 2.20793e-07 0)
(-3.07884e-07 1.42967e-07 0)
(-2.76863e-07 7.83896e-09 0)
(-1.32541e-07 -1.57825e-07 0)
(1.42915e-07 -3.3994e-07 0)
(5.576e-07 -5.29495e-07 0)
(1.11549e-06 -7.20629e-07 0)
(1.81907e-06 -9.08754e-07 0)
(2.66367e-06 -1.09306e-06 0)
(3.64821e-06 -1.2699e-06 0)
(4.76647e-06 -1.43877e-06 0)
(6.01203e-06 -1.59961e-06 0)
(7.38041e-06 -1.75031e-06 0)
(8.86389e-06 -1.89259e-06 0)
(1.04554e-05 -2.02593e-06 0)
(1.21491e-05 -2.14923e-06 0)
(1.39364e-05 -2.26359e-06 0)
(1.58105e-05 -2.36892e-06 0)
(1.77654e-05 -2.46488e-06 0)
(1.97935e-05 -2.5521e-06 0)
(2.1888e-05 -2.63115e-06 0)
(2.40427e-05 -2.7014e-06 0)
(2.6251e-05 -2.76358e-06 0)
(2.85062e-05 -2.81836e-06 0)
(3.08027e-05 -2.86554e-06 0)
(3.31349e-05 -2.90533e-06 0)
(3.54968e-05 -2.93832e-06 0)
(3.78828e-05 -2.96469e-06 0)
(4.0288e-05 -2.9845e-06 0)
(4.27073e-05 -2.99805e-06 0)
(4.51354e-05 -3.00585e-06 0)
(4.75679e-05 -3.00806e-06 0)
(5.00006e-05 -3.00463e-06 0)
(5.2429e-05 -2.99602e-06 0)
(5.48488e-05 -2.9826e-06 0)
(5.72563e-05 -2.96447e-06 0)
(5.96479e-05 -2.94173e-06 0)
(6.20198e-05 -2.91473e-06 0)
(6.43684e-05 -2.88376e-06 0)
(6.66909e-05 -2.8489e-06 0)
(6.89842e-05 -2.81031e-06 0)
(7.12452e-05 -2.76827e-06 0)
(7.34711e-05 -2.72294e-06 0)
(7.56593e-05 -2.67444e-06 0)
(7.78073e-05 -2.62287e-06 0)
(7.99127e-05 -2.56846e-06 0)
(8.19734e-05 -2.51155e-06 0)
(8.39872e-05 -2.45228e-06 0)
(8.59523e-05 -2.39063e-06 0)
(8.78668e-05 -2.32665e-06 0)
(8.97288e-05 -2.26061e-06 0)
(9.15365e-05 -2.19272e-06 0)
(9.32885e-05 -2.123e-06 0)
(9.49835e-05 -2.0515e-06 0)
(9.662e-05 -1.9784e-06 0)
(9.81967e-05 -1.90382e-06 0)
(9.97124e-05 -1.82781e-06 0)
(0.000101166 -1.75046e-06 0)
(0.000102557 -1.67192e-06 0)
(0.000103883 -1.5924e-06 0)
(0.000105145 -1.51197e-06 0)
(0.000106341 -1.43065e-06 0)
(0.00010747 -1.34842e-06 0)
(0.000108532 -1.26528e-06 0)
(0.000109527 -1.1813e-06 0)
(0.000110453 -1.09663e-06 0)
(0.00011131 -1.01136e-06 0)
(0.000112097 -9.25586e-07 0)
(0.000112815 -8.39349e-07 0)
(0.000113462 -7.52708e-07 0)
(0.000114039 -6.65701e-07 0)
(0.000114545 -5.7831e-07 0)
(0.000114979 -4.90547e-07 0)
(0.000115342 -4.02483e-07 0)
(0.000115634 -3.14215e-07 0)
(0.000115854 -2.25838e-07 0)
(0.000116001 -1.37417e-07 0)
(0.000116077 -4.8944e-08 0)
(0.000116081 3.96056e-08 0)
(0.000116013 1.28169e-07 0)
(0.000115873 2.1668e-07 0)
(0.000115661 3.05114e-07 0)
(0.000115377 3.9345e-07 0)
(0.000115021 4.81627e-07 0)
(0.000114594 5.69574e-07 0)
(0.000114095 6.57204e-07 0)
(0.000113525 7.4444e-07 0)
(0.000112885 8.31256e-07 0)
(0.000112174 9.17681e-07 0)
(0.000111393 1.0037e-06 0)
(0.000110542 1.08923e-06 0)
(0.000109622 1.17424e-06 0)
(0.000108633 1.25864e-06 0)
(0.000107576 1.34227e-06 0)
(0.000106451 1.42504e-06 0)
(0.00010526 1.50689e-06 0)
(0.000104003 1.58783e-06 0)
(0.00010268 1.66785e-06 0)
(0.000101292 1.74688e-06 0)
(9.98415e-05 1.82475e-06 0)
(9.83281e-05 1.90131e-06 0)
(9.67533e-05 1.97642e-06 0)
(9.51184e-05 2.05001e-06 0)
(9.34245e-05 2.12201e-06 0)
(9.16729e-05 2.19236e-06 0)
(8.98651e-05 2.26091e-06 0)
(8.80028e-05 2.32753e-06 0)
(8.60875e-05 2.39206e-06 0)
(8.41211e-05 2.45438e-06 0)
(8.21053e-05 2.51433e-06 0)
(8.00422e-05 2.57177e-06 0)
(7.79339e-05 2.62657e-06 0)
(7.57825e-05 2.67861e-06 0)
(7.35905e-05 2.72773e-06 0)
(7.13604e-05 2.77371e-06 0)
(6.90949e-05 2.81633e-06 0)
(6.67967e-05 2.85538e-06 0)
(6.44687e-05 2.8907e-06 0)
(6.21141e-05 2.92212e-06 0)
(5.97361e-05 2.94945e-06 0)
(5.73381e-05 2.97248e-06 0)
(5.49238e-05 2.99101e-06 0)
(5.24968e-05 3.00479e-06 0)
(5.00612e-05 3.01355e-06 0)
(4.7621e-05 3.01707e-06 0)
(4.51807e-05 3.0151e-06 0)
(4.27447e-05 3.00741e-06 0)
(4.03177e-05 2.99375e-06 0)
(3.79047e-05 2.97384e-06 0)
(3.55108e-05 2.9474e-06 0)
(3.31413e-05 2.91417e-06 0)
(3.08016e-05 2.8739e-06 0)
(2.84976e-05 2.8263e-06 0)
(2.62352e-05 2.77108e-06 0)
(2.40206e-05 2.70796e-06 0)
(2.18602e-05 2.63665e-06 0)
(1.97603e-05 2.55689e-06 0)
(1.77278e-05 2.46838e-06 0)
(1.57696e-05 2.37088e-06 0)
(1.38925e-05 2.26421e-06 0)
(1.21039e-05 2.14823e-06 0)
(1.04107e-05 2.02282e-06 0)
(8.82043e-06 1.88786e-06 0)
(7.34005e-06 1.74333e-06 0)
(5.97653e-06 1.58943e-06 0)
(4.73651e-06 1.42652e-06 0)
(3.62625e-06 1.25516e-06 0)
(2.65136e-06 1.07623e-06 0)
(1.81638e-06 8.91073e-07 0)
(1.12437e-06 7.01772e-07 0)
(5.76428e-07 5.11324e-07 0)
(1.7095e-07 3.2405e-07 0)
(-9.73892e-08 1.4623e-07 0)
(-2.38901e-07 -1.30292e-08 0)
(-2.70227e-07 -1.40585e-07 0)
(-2.16209e-07 -2.17903e-07 0)
(-1.16751e-07 -2.20123e-07 0)
(-3.09059e-08 -1.17754e-07 0)
(-3.06675e-08 1.75209e-07 0)
(-9.9845e-08 3.07712e-07 0)
(-1.51467e-07 2.8071e-07 0)
(-1.23726e-07 1.17427e-07 0)
(2.13388e-08 -1.35437e-07 0)
(3.16254e-07 -4.42454e-07 0)
(7.77108e-07 -7.80454e-07 0)
(1.41609e-06 -1.1343e-06 0)
(2.24057e-06 -1.49172e-06 0)
(3.24972e-06 -1.84753e-06 0)
(4.44445e-06 -2.19468e-06 0)
(5.81997e-06 -2.53086e-06 0)
(7.37015e-06 -2.85401e-06 0)
(9.08929e-06 -3.16085e-06 0)
(1.09687e-05 -3.4515e-06 0)
(1.29999e-05 -3.72536e-06 0)
(1.51757e-05 -3.98141e-06 0)
(1.74857e-05 -4.22012e-06 0)
(1.99212e-05 -4.44194e-06 0)
(2.24733e-05 -4.64562e-06 0)
(2.51327e-05 -4.83243e-06 0)
(2.78902e-05 -5.00262e-06 0)
(3.07374e-05 -5.15637e-06 0)
(3.36656e-05 -5.29392e-06 0)
(3.6666e-05 -5.41638e-06 0)
(3.97303e-05 -5.52387e-06 0)
(4.28507e-05 -5.61646e-06 0)
(4.60192e-05 -5.69516e-06 0)
(4.92282e-05 -5.76048e-06 0)
(5.24704e-05 -5.81259e-06 0)
(5.57389e-05 -5.85202e-06 0)
(5.90267e-05 -5.87961e-06 0)
(6.23272e-05 -5.89575e-06 0)
(6.56343e-05 -5.9007e-06 0)
(6.89419e-05 -5.8949e-06 0)
(7.22439e-05 -5.87901e-06 0)
(7.55349e-05 -5.85345e-06 0)
(7.88098e-05 -5.8185e-06 0)
(8.20633e-05 -5.77476e-06 0)
(8.52905e-05 -5.72268e-06 0)
(8.84868e-05 -5.66252e-06 0)
(9.16479e-05 -5.59465e-06 0)
(9.47696e-05 -5.51958e-06 0)
(9.78478e-05 -5.43768e-06 0)
(0.000100879 -5.3493e-06 0)
(0.000103859 -5.25467e-06 0)
(0.000106785 -5.15415e-06 0)
(0.000109653 -5.04809e-06 0)
(0.00011246 -4.93684e-06 0)
(0.000115204 -4.82066e-06 0)
(0.000117882 -4.69976e-06 0)
(0.000120492 -4.57444e-06 0)
(0.000123029 -4.44508e-06 0)
(0.000125494 -4.31195e-06 0)
(0.000127883 -4.17517e-06 0)
(0.000130194 -4.03492e-06 0)
(0.000132426 -3.89148e-06 0)
(0.000134576 -3.74509e-06 0)
(0.000136643 -3.59598e-06 0)
(0.000138626 -3.44432e-06 0)
(0.000140524 -3.29024e-06 0)
(0.000142333 -3.13393e-06 0)
(0.000144055 -2.97557e-06 0)
(0.000145686 -2.81535e-06 0)
(0.000147228 -2.65341e-06 0)
(0.000148677 -2.48994e-06 0)
(0.000150035 -2.32505e-06 0)
(0.000151298 -2.15877e-06 0)
(0.000152468 -1.99109e-06 0)
(0.000153543 -1.8222e-06 0)
(0.000154522 -1.65235e-06 0)
(0.000155406 -1.48172e-06 0)
(0.000156193 -1.31039e-06 0)
(0.000156884 -1.13838e-06 0)
(0.000157477 -9.6571e-07 0)
(0.000157973 -7.92483e-07 0)
(0.000158371 -6.18815e-07 0)
(0.000158671 -4.44821e-07 0)
(0.000158873 -2.70623e-07 0)
(0.000158976 -9.63162e-08 0)
(0.000158982 7.80684e-08 0)
(0.000158888 2.52445e-07 0)
(0.000158697 4.26693e-07 0)
(0.000158408 6.00744e-07 0)
(0.00015802 7.74551e-07 0)
(0.000157534 9.4802e-07 0)
(0.000156951 1.12104e-06 0)
(0.000156271 1.29351e-06 0)
(0.000155493 1.46535e-06 0)
(0.000154618 1.63644e-06 0)
(0.000153648 1.80668e-06 0)
(0.000152582 1.97598e-06 0)
(0.000151421 2.14418e-06 0)
(0.000150165 2.31119e-06 0)
(0.000148815 2.47693e-06 0)
(0.000147373 2.64134e-06 0)
(0.000145839 2.80425e-06 0)
(0.000144213 2.96546e-06 0)
(0.000142497 3.12475e-06 0)
(0.000140693 3.28196e-06 0)
(0.0001388 3.43701e-06 0)
(0.000136821 3.58975e-06 0)
(0.000134757 3.73998e-06 0)
(0.00013261 3.88747e-06 0)
(0.00013038 4.03197e-06 0)
(0.00012807 4.17329e-06 0)
(0.000125683 4.31125e-06 0)
(0.000123218 4.44562e-06 0)
(0.00012068 4.57616e-06 0)
(0.00011807 4.7026e-06 0)
(0.00011539 4.82465e-06 0)
(0.000112643 4.94202e-06 0)
(0.000109833 5.0544e-06 0)
(0.000106961 5.1615e-06 0)
(0.000104031 5.26306e-06 0)
(0.000101046 5.35882e-06 0)
(9.80091e-05 5.4484e-06 0)
(9.49248e-05 5.53141e-06 0)
(9.17963e-05 5.60746e-06 0)
(8.86279e-05 5.67617e-06 0)
(8.54237e-05 5.73719e-06 0)
(8.21881e-05 5.79015e-06 0)
(7.89258e-05 5.83459e-06 0)
(7.56418e-05 5.8701e-06 0)
(7.23411e-05 5.89628e-06 0)
(6.90291e-05 5.91265e-06 0)
(6.57114e-05 5.91877e-06 0)
(6.23939e-05 5.91417e-06 0)
(5.90826e-05 5.89837e-06 0)
(5.5784e-05 5.87089e-06 0)
(5.25047e-05 5.83125e-06 0)
(4.92516e-05 5.7789e-06 0)
(4.60318e-05 5.7133e-06 0)
(4.28528e-05 5.63395e-06 0)
(3.97221e-05 5.54035e-06 0)
(3.66479e-05 5.43201e-06 0)
(3.36382e-05 5.30843e-06 0)
(3.07016e-05 5.1691e-06 0)
(2.78465e-05 5.01357e-06 0)
(2.50818e-05 4.84136e-06 0)
(2.24167e-05 4.65202e-06 0)
(1.98602e-05 4.44521e-06 0)
(1.74217e-05 4.2207e-06 0)
(1.51103e-05 3.97841e-06 0)
(1.29353e-05 3.71831e-06 0)
(1.09058e-05 3.44056e-06 0)
(9.03039e-06 3.1456e-06 0)
(7.3174e-06 2.83429e-06 0)
(5.77436e-06 2.50796e-06 0)
(4.40788e-06 2.16852e-06 0)
(3.2232e-06 1.81876e-06 0)
(2.2236e-06 1.4627e-06 0)
(1.40982e-06 1.10602e-06 0)
(7.79316e-07 7.56693e-07 0)
(3.2519e-07 4.25844e-07 0)
(3.50495e-08 1.28863e-07 0)
(-1.10194e-07 -1.13138e-07 0)
(-1.38021e-07 -2.71716e-07 0)
(-9.02034e-08 -3.09899e-07 0)
(-2.68336e-08 -1.80271e-07 0)
(-1.9484e-08 2.18179e-07 0)
(-4.35438e-08 3.44916e-07 0)
(-8.67605e-09 2.47787e-07 0)
(1.36065e-07 -3.01774e-08 0)
(4.33365e-07 -4.3145e-07 0)
(9.09052e-07 -9.12147e-07 0)
(1.58456e-06 -1.44074e-06 0)
(2.47338e-06 -1.99363e-06 0)
(3.58084e-06 -2.55679e-06 0)
(4.91109e-06 -3.11675e-06 0)
(6.46193e-06 -3.66626e-06 0)
(8.22903e-06 -4.19991e-06 0)
(1.0208e-05 -4.71293e-06 0)
(1.23901e-05 -5.20296e-06 0)
(1.47664e-05 -5.66834e-06 0)
(1.73281e-05 -6.10687e-06 0)
(2.00644e-05 -6.51828e-06 0)
(2.29648e-05 -6.90282e-06 0)
(2.60191e-05 -7.25938e-06 0)
(2.92162e-05 -7.58857e-06 0)
(3.25447e-05 -7.89086e-06 0)
(3.59943e-05 -8.16636e-06 0)
(3.95544e-05 -8.41543e-06 0)
(4.32142e-05 -8.63927e-06 0)
(4.69632e-05 -8.83841e-06 0)
(5.07919e-05 -9.01318e-06 0)
(5.46901e-05 -9.16454e-06 0)
(5.86479e-05 -9.29344e-06 0)
(6.26564e-05 -9.40039e-06 0)
(6.67065e-05 -9.48603e-06 0)
(7.07893e-05 -9.55134e-06 0)
(7.48963e-05 -9.59722e-06 0)
(7.90198e-05 -9.62429e-06 0)
(8.31518e-05 -9.6332e-06 0)
(8.72847e-05 -9.62491e-06 0)
(9.14112e-05 -9.60009e-06 0)
(9.55245e-05 -9.55933e-06 0)
(9.9618e-05 -9.50336e-06 0)
(0.000103685 -9.43301e-06 0)
(0.00010772 -9.34897e-06 0)
(0.000111717 -9.25168e-06 0)
(0.00011567 -9.14185e-06 0)
(0.000119574 -9.02019e-06 0)
(0.000123425 -8.88726e-06 0)
(0.000127216 -8.74356e-06 0)
(0.000130945 -8.58962e-06 0)
(0.000134606 -8.42612e-06 0)
(0.000138195 -8.25365e-06 0)
(0.000141709 -8.07262e-06 0)
(0.000145144 -7.88333e-06 0)
(0.000148497 -7.68629e-06 0)
(0.000151763 -7.48211e-06 0)
(0.000154941 -7.27118e-06 0)
(0.000158027 -7.0539e-06 0)
(0.000161019 -6.83063e-06 0)
(0.000163914 -6.6017e-06 0)
(0.000166709 -6.36746e-06 0)
(0.000169403 -6.1283e-06 0)
(0.000171993 -5.88462e-06 0)
(0.000174478 -5.63677e-06 0)
(0.000176855 -5.38506e-06 0)
(0.000179123 -5.12971e-06 0)
(0.00018128 -4.8709e-06 0)
(0.000183325 -4.60883e-06 0)
(0.000185257 -4.3438e-06 0)
(0.000187074 -4.07617e-06 0)
(0.000188775 -3.80623e-06 0)
(0.000190359 -3.53409e-06 0)
(0.000191826 -3.25981e-06 0)
(0.000193173 -2.98356e-06 0)
(0.000194401 -2.70565e-06 0)
(0.000195509 -2.42632e-06 0)
(0.000196496 -2.14572e-06 0)
(0.000197362 -1.86398e-06 0)
(0.000198106 -1.58124e-06 0)
(0.000198728 -1.29765e-06 0)
(0.000199227 -1.01337e-06 0)
(0.000199603 -7.28563e-07 0)
(0.000199856 -4.43363e-07 0)
(0.000199986 -1.57925e-07 0)
(0.000199993 1.27635e-07 0)
(0.000199876 4.13191e-07 0)
(0.000199637 6.98565e-07 0)
(0.000199273 9.83626e-07 0)
(0.000198787 1.26826e-06 0)
(0.000198179 1.55229e-06 0)
(0.000197448 1.83551e-06 0)
(0.000196594 2.11777e-06 0)
(0.000195619 2.39902e-06 0)
(0.000194523 2.6791e-06 0)
(0.000193307 2.95783e-06 0)
(0.00019197 3.23499e-06 0)
(0.000190515 3.51038e-06 0)
(0.000188941 3.78376e-06 0)
(0.000187249 4.05492e-06 0)
(0.000185442 4.32374e-06 0)
(0.000183519 4.59004e-06 0)
(0.000181481 4.85361e-06 0)
(0.000179331 5.11416e-06 0)
(0.00017707 5.37131e-06 0)
(0.000174699 5.62479e-06 0)
(0.00017222 5.87432e-06 0)
(0.000169634 6.11966e-06 0)
(0.000166944 6.3605e-06 0)
(0.000164152 6.59648e-06 0)
(0.000161259 6.82723e-06 0)
(0.000158269 7.05241e-06 0)
(0.000155183 7.27165e-06 0)
(0.000152005 7.48455e-06 0)
(0.000148737 7.69067e-06 0)
(0.000145383 7.88953e-06 0)
(0.000141945 8.08072e-06 0)
(0.000138427 8.26376e-06 0)
(0.000134833 8.43817e-06 0)
(0.000131167 8.60343e-06 0)
(0.000127433 8.75906e-06 0)
(0.000123634 8.90449e-06 0)
(0.000119777 9.03914e-06 0)
(0.000115864 9.16241e-06 0)
(0.000111902 9.27371e-06 0)
(0.000107896 9.37242e-06 0)
(0.000103851 9.45793e-06 0)
(9.97726e-05 9.52954e-06 0)
(9.5668e-05 9.58656e-06 0)
(9.1543e-05 9.62831e-06 0)
(8.74042e-05 9.65408e-06 0)
(8.32588e-05 9.66313e-06 0)
(7.91139e-05 9.65469e-06 0)
(7.49773e-05 9.62802e-06 0)
(7.08567e-05 9.58236e-06 0)
(6.67605e-05 9.51695e-06 0)
(6.2697e-05 9.43096e-06 0)
(5.86751e-05 9.32358e-06 0)
(5.47039e-05 9.19398e-06 0)
(5.0793e-05 9.04136e-06 0)
(4.69521e-05 8.86497e-06 0)
(4.31911e-05 8.66405e-06 0)
(3.95204e-05 8.43784e-06 0)
(3.59503e-05 8.18565e-06 0)
(3.24915e-05 7.90688e-06 0)
(2.91551e-05 7.60095e-06 0)
(2.5952e-05 7.26739e-06 0)
(2.28932e-05 6.90591e-06 0)
(1.99898e-05 6.51645e-06 0)
(1.72526e-05 6.09917e-06 0)
(1.46921e-05 5.65455e-06 0)
(1.23184e-05 5.18349e-06 0)
(1.01411e-05 4.68749e-06 0)
(8.16872e-06 4.16887e-06 0)
(6.40854e-06 3.63097e-06 0)
(4.86623e-06 3.07841e-06 0)
(3.54519e-06 2.51758e-06 0)
(2.44598e-06 1.95725e-06 0)
(1.56559e-06 1.4094e-06 0)
(8.96448e-07 8.90213e-07 0)
(4.25352e-07 4.21462e-07 0)
(1.32471e-07 3.21174e-08 0)
(-1.01383e-08 -2.39849e-07 0)
(-4.24396e-08 -3.45831e-07 0)
(-1.8398e-08 -2.21959e-07 0)
(-7.45122e-09 2.2932e-07 0)
(2.09221e-08 3.05095e-07 0)
(1.56752e-07 1.00508e-07 0)
(4.44307e-07 -3.2523e-07 0)
(9.13968e-07 -9.07625e-07 0)
(1.59541e-06 -1.59365e-06 0)
(2.50806e-06 -2.34356e-06 0)
(3.66327e-06 -3.12964e-06 0)
(5.07019e-06 -3.92948e-06 0)
(6.73087e-06 -4.72797e-06 0)
(8.64344e-06 -5.51383e-06 0)
(1.08049e-05 -6.27773e-06 0)
(1.32083e-05 -7.01409e-06 0)
(1.58453e-05 -7.71946e-06 0)
(1.8707e-05 -8.38968e-06 0)
(2.17824e-05 -9.02311e-06 0)
(2.50599e-05 -9.61885e-06 0)
(2.85279e-05 -1.01755e-05 0)
(3.21747e-05 -1.06927e-05 0)
(3.59872e-05 -1.11714e-05 0)
(3.99535e-05 -1.16111e-05 0)
(4.40614e-05 -1.20124e-05 0)
(4.82981e-05 -1.23762e-05 0)
(5.26515e-05 -1.27033e-05 0)
(5.711e-05 -1.29944e-05 0)
(6.16618e-05 -1.32503e-05 0)
(6.62952e-05 -1.34725e-05 0)
(7.09991e-05 -1.36618e-05 0)
(7.57628e-05 -1.3819e-05 0)
(8.05757e-05 -1.39455e-05 0)
(8.54272e-05 -1.40424e-05 0)
(9.03077e-05 -1.41106e-05 0)
(9.52078e-05 -1.41512e-05 0)
(0.000100118 -1.41654e-05 0)
(0.00010503 -1.41544e-05 0)
(0.000109934 -1.41189e-05 0)
(0.000114823 -1.40602e-05 0)
(0.000119689 -1.39792e-05 0)
(0.000124524 -1.3877e-05 0)
(0.000129321 -1.37545e-05 0)
(0.000134074 -1.36126e-05 0)
(0.000138775 -1.34523e-05 0)
(0.000143418 -1.32745e-05 0)
(0.000147997 -1.30801e-05 0)
(0.000152507 -1.28697e-05 0)
(0.000156943 -1.26442e-05 0)
(0.000161298 -1.24046e-05 0)
(0.000165569 -1.21517e-05 0)
(0.000169751 -1.1886e-05 0)
(0.000173838 -1.16082e-05 0)
(0.000177828 -1.1319e-05 0)
(0.000181717 -1.10192e-05 0)
(0.000185499 -1.07094e-05 0)
(0.000189174 -1.039e-05 0)
(0.000192735 -1.00618e-05 0)
(0.000196182 -9.72532e-06 0)
(0.000199511 -9.38096e-06 0)
(0.000202719 -9.02925e-06 0)
(0.000205804 -8.67074e-06 0)
(0.000208763 -8.30594e-06 0)
(0.000211595 -7.93533e-06 0)
(0.000214296 -7.55933e-06 0)
(0.000216866 -7.17828e-06 0)
(0.000219303 -6.79248e-06 0)
(0.000221604 -6.40231e-06 0)
(0.000223769 -6.00815e-06 0)
(0.000225796 -5.61034e-06 0)
(0.000227684 -5.20917e-06 0)
(0.000229431 -4.80495e-06 0)
(0.000231037 -4.39796e-06 0)
(0.0002325 -3.98851e-06 0)
(0.000233821 -3.57689e-06 0)
(0.000234997 -3.16332e-06 0)
(0.000236029 -2.74803e-06 0)
(0.000236916 -2.33121e-06 0)
(0.000237657 -1.91315e-06 0)
(0.000238252 -1.4941e-06 0)
(0.0002387 -1.07428e-06 0)
(0.000239002 -6.53851e-07 0)
(0.000239157 -2.33033e-07 0)
(0.000239166 1.87919e-07 0)
(0.000239027 6.08828e-07 0)
(0.000238741 1.02953e-06 0)
(0.000238309 1.44981e-06 0)
(0.00023773 1.86944e-06 0)
(0.000237004 2.28814e-06 0)
(0.000236133 2.70565e-06 0)
(0.000235116 3.12177e-06 0)
(0.000233955 3.53632e-06 0)
(0.000232649 3.94907e-06 0)
(0.000231199 4.35976e-06 0)
(0.000229607 4.76812e-06 0)
(0.000227872 5.17389e-06 0)
(0.000225997 5.57675e-06 0)
(0.000223982 5.97634e-06 0)
(0.000221828 6.37236e-06 0)
(0.000219537 6.76453e-06 0)
(0.000217111 7.15254e-06 0)
(0.00021455 7.53602e-06 0)
(0.000211856 7.91453e-06 0)
(0.000209032 8.28763e-06 0)
(0.000206079 8.65488e-06 0)
(0.000203 9.01583e-06 0)
(0.000199797 9.37005e-06 0)
(0.000196472 9.71705e-06 0)
(0.000193028 1.00563e-05 0)
(0.000189468 1.03873e-05 0)
(0.000185795 1.07095e-05 0)
(0.000182013 1.10223e-05 0)
(0.000178123 1.1325e-05 0)
(0.000174131 1.16169e-05 0)
(0.000170041 1.18975e-05 0)
(0.000165855 1.2166e-05 0)
(0.000161579 1.24217e-05 0)
(0.000157218 1.2664e-05 0)
(0.000152776 1.2892e-05 0)
(0.000148258 1.31049e-05 0)
(0.00014367 1.33019e-05 0)
(0.000139017 1.34821e-05 0)
(0.000134306 1.36446e-05 0)
(0.000129543 1.37886e-05 0)
(0.000124734 1.39132e-05 0)
(0.000119886 1.40173e-05 0)
(0.000115007 1.41e-05 0)
(0.000110105 1.41602e-05 0)
(0.000105186 1.4197e-05 0)
(0.00010026 1.42092e-05 0)
(9.53347e-05 1.41959e-05 0)
(9.04194e-05 1.41558e-05 0)
(8.55233e-05 1.40879e-05 0)
(8.06561e-05 1.39911e-05 0)
(7.58277e-05 1.38643e-05 0)
(7.10485e-05 1.37063e-05 0)
(6.63292e-05 1.3516e-05 0)
(6.16808e-05 1.32924e-05 0)
(5.71148e-05 1.30342e-05 0)
(5.26426e-05 1.27404e-05 0)
(4.82762e-05 1.24102e-05 0)
(4.40276e-05 1.20424e-05 0)
(3.99092e-05 1.16364e-05 0)
(3.59336e-05 1.11914e-05 0)
(3.21132e-05 1.07071e-05 0)
(2.84607e-05 1.0183e-05 0)
(2.49885e-05 9.61922e-06 0)
(2.17088e-05 9.0162e-06 0)
(1.86332e-05 8.37483e-06 0)
(1.57732e-05 7.69666e-06 0)
(1.31391e-05 6.98408e-06 0)
(1.07404e-05 6.24054e-06 0)
(8.5849e-06 5.47097e-06 0)
(6.67868e-06 4.68207e-06 0)
(5.02535e-06 3.88292e-06 0)
(3.62556e-06 3.0856e-06 0)
(2.47631e-06 2.3062e-06 0)
(1.57015e-06 1.56592e-06 0)
(8.94249e-07 8.92607e-07 0)
(4.29463e-07 3.22532e-07 0)
(1.49038e-07 -9.76657e-08 0)
(1.76065e-08 -3.09049e-07 0)
(-7.84616e-09 -2.34568e-07 0)
(4.08911e-09 2.06435e-07 0)
(8.79092e-08 1.7874e-07 0)
(3.37129e-07 -1.74572e-07 0)
(7.77138e-07 -7.86028e-07 0)
(1.43676e-06 -1.5828e-06 0)
(2.33992e-06 -2.50487e-06 0)
(3.50352e-06 -3.50789e-06 0)
(4.94057e-06 -4.55583e-06 0)
(6.65711e-06 -5.6227e-06 0)
(8.65539e-06 -6.68951e-06 0)
(1.09348e-05 -7.74032e-06 0)
(1.34903e-05 -8.76421e-06 0)
(1.63149e-05 -9.75352e-06 0)
(1.94003e-05 -1.07015e-05 0)
(2.27363e-05 -1.16043e-05 0)
(2.63109e-05 -1.24593e-05 0)
(3.01121e-05 -1.3264e-05 0)
(3.41273e-05 -1.40169e-05 0)
(3.83426e-05 -1.4718e-05 0)
(4.27447e-05 -1.5367e-05 0)
(4.73201e-05 -1.5964e-05 0)
(5.2055e-05 -1.65097e-05 0)
(5.69354e-05 -1.70051e-05 0)
(6.19478e-05 -1.74508e-05 0)
(6.70793e-05 -1.78478e-05 0)
(7.23163e-05 -1.81976e-05 0)
(7.76458e-05 -1.85013e-05 0)
(8.30557e-05 -1.87602e-05 0)
(8.85334e-05 -1.89758e-05 0)
(9.40668e-05 -1.91496e-05 0)
(9.96446e-05 -1.9283e-05 0)
(0.000105256 -1.93772e-05 0)
(0.000110889 -1.94339e-05 0)
(0.000116534 -1.94544e-05 0)
(0.00012218 -1.94403e-05 0)
(0.000127819 -1.93927e-05 0)
(0.00013344 -1.93134e-05 0)
(0.000139034 -1.92036e-05 0)
(0.000144594 -1.90646e-05 0)
(0.00015011 -1.88976e-05 0)
(0.000155575 -1.8704e-05 0)
(0.000160981 -1.84851e-05 0)
(0.000166322 -1.82422e-05 0)
(0.000171589 -1.79763e-05 0)
(0.000176777 -1.76885e-05 0)
(0.00018188 -1.738e-05 0)
(0.000186891 -1.7052e-05 0)
(0.000191805 -1.67054e-05 0)
(0.000196616 -1.63412e-05 0)
(0.00020132 -1.59604e-05 0)
(0.000205912 -1.55639e-05 0)
(0.000210387 -1.51527e-05 0)
(0.000214741 -1.47276e-05 0)
(0.000218971 -1.42893e-05 0)
(0.000223071 -1.38388e-05 0)
(0.000227039 -1.33767e-05 0)
(0.000230872 -1.29038e-05 0)
(0.000234566 -1.24208e-05 0)
(0.000238118 -1.19284e-05 0)
(0.000241526 -1.14272e-05 0)
(0.000244787 -1.09178e-05 0)
(0.000247898 -1.04009e-05 0)
(0.000250858 -9.87682e-06 0)
(0.000253665 -9.3463e-06 0)
(0.000256316 -8.80985e-06 0)
(0.00025881 -8.26788e-06 0)
(0.000261144 -7.72073e-06 0)
(0.000263319 -7.16883e-06 0)
(0.000265332 -6.61266e-06 0)
(0.000267183 -6.05271e-06 0)
(0.000268869 -5.48938e-06 0)
(0.00027039 -4.92301e-06 0)
(0.000271746 -4.35391e-06 0)