/*--------------------------------*- C++ -*----------------------------------*\
  =========                 |
  \\      /  F ield         | OpenFOAM: The Open Source CFD Toolbox
   \\    /   O peration     | Website:  https://openfoam.org
    \\  /    A nd           | Version:  7
     \\/     M anipulation  |
\*---------------------------------------------------------------------------*/
FoamFile
{
    version     2.0;
    format      ascii;
    class       surfaceScalarField;
    location    "0.3875";
    object      phi;
}
// * * * * * * * * * * * * * * * * * * * * * * * * * * * * * * * * * * * * * //

dimensions      [0 3 -1 0 0 0 0];

internalField   nonuniform List<scalar> 
25360
(
1.13804e-10
-1.14838e-10
3.59284e-10
-2.45481e-10
6.0401e-10
-2.44719e-10
7.64943e-10
-1.6092e-10
7.97959e-10
-3.30154e-11
6.81266e-10
1.16687e-10
4.06243e-10
2.75019e-10
-2.77712e-11
4.34021e-10
-6.16654e-10
5.88884e-10
-1.35338e-09
7.36722e-10
-2.22918e-09
8.75798e-10
-3.23429e-09
1.00511e-09
-4.35839e-09
1.12411e-09
-5.59098e-09
1.23258e-09
-6.92152e-09
1.33054e-09
-8.33965e-09
1.41813e-09
-9.83526e-09
1.49561e-09
-1.13986e-08
1.56332e-09
-1.30202e-08
1.62164e-09
-1.46912e-08
1.671e-09
-1.6403e-08
1.71184e-09
-1.81477e-08
1.74464e-09
-1.99175e-08
1.76986e-09
-2.17055e-08
1.78799e-09
-2.3505e-08
1.79949e-09
-2.53098e-08
1.80483e-09
-2.71143e-08
1.80447e-09
-2.89132e-08
1.79888e-09
-3.07017e-08
1.78847e-09
-3.24753e-08
1.77368e-09
-3.42303e-08
1.75491e-09
-3.59628e-08
1.73256e-09
-3.76698e-08
1.70699e-09
-3.93484e-08
1.67857e-09
-4.0996e-08
1.64763e-09
-4.26105e-08
1.6145e-09
-4.419e-08
1.57947e-09
-4.57328e-08
1.54283e-09
-4.72376e-08
1.50484e-09
-4.87034e-08
1.46575e-09
-5.01292e-08
1.42579e-09
-5.15144e-08
1.38517e-09
-5.28584e-08
1.34409e-09
-5.41612e-08
1.30272e-09
-5.54224e-08
1.26124e-09
-5.66422e-08
1.21978e-09
-5.78207e-08
1.17847e-09
-5.89581e-08
1.13745e-09
-6.00549e-08
1.09681e-09
-6.11116e-08
1.05665e-09
-6.21286e-08
1.01705e-09
-6.31067e-08
9.78075e-10
-6.40465e-08
9.39784e-10
-6.49487e-08
9.02227e-10
-6.58141e-08
8.65443e-10
-6.66436e-08
8.2946e-10
-6.74379e-08
7.94299e-10
-6.81979e-08
7.5997e-10
-6.89244e-08
7.26481e-10
-6.96182e-08
6.93829e-10
-7.02802e-08
6.62007e-10
-7.09112e-08
6.30998e-10
-7.1512e-08
6.00781e-10
-7.20833e-08
5.71331e-10
-7.26259e-08
5.42618e-10
-7.31405e-08
5.14608e-10
-7.36278e-08
4.87259e-10
-7.40883e-08
4.60527e-10
-7.45227e-08
4.34364e-10
-7.49314e-08
4.08721e-10
-7.53149e-08
3.83545e-10
-7.56737e-08
3.5878e-10
-7.60081e-08
3.34366e-10
-7.63183e-08
3.10239e-10
-7.66046e-08
2.86335e-10
-7.68672e-08
2.6259e-10
-7.71062e-08
2.38938e-10
-7.73215e-08
2.1531e-10
-7.75131e-08
1.91634e-10
-7.7681e-08
1.67836e-10
-7.78248e-08
1.43842e-10
-7.79444e-08
1.19581e-10
-7.80394e-08
9.49812e-11
-7.81093e-08
6.99692e-11
-7.81538e-08
4.4469e-11
-7.81722e-08
1.84037e-11
-7.81639e-08
-8.30177e-12
-7.81282e-08
-3.57191e-11
-7.80643e-08
-6.39179e-11
-7.79713e-08
-9.29674e-11
-7.78484e-08
-1.22937e-10
-7.76945e-08
-1.53897e-10
-7.75086e-08
-1.8591e-10
-7.72895e-08
-2.19039e-10
-7.70362e-08
-2.53338e-10
-7.67473e-08
-2.88862e-10
-7.64217e-08
-3.25659e-10
-7.60579e-08
-3.63773e-10
-7.56546e-08
-4.03244e-10
-7.52105e-08
-4.44102e-10
-7.47242e-08
-4.86371e-10
-7.41941e-08
-5.30068e-10
-7.36189e-08
-5.75202e-10
-7.29971e-08
-6.21771e-10
-7.23274e-08
-6.69764e-10
-7.16082e-08
-7.19156e-10
-7.08383e-08
-7.69914e-10
-7.00163e-08
-8.21991e-10
-6.9141e-08
-8.75326e-10
-6.82111e-08
-9.29844e-10
-6.72257e-08
-9.85454e-10
-6.61836e-08
-1.04205e-09
-6.50841e-08
-1.0995e-09
-6.39265e-08
-1.15768e-09
-6.271e-08
-1.21641e-09
-6.14345e-08
-1.27552e-09
-6.00997e-08
-1.33482e-09
-5.87056e-08
-1.39407e-09
-5.72526e-08
-1.45304e-09
-5.57411e-08
-1.51147e-09
-5.41721e-08
-1.56908e-09
-5.25465e-08
-1.62555e-09
-5.08659e-08
-1.68057e-09
-4.91321e-08
-1.73379e-09
-4.73473e-08
-1.78484e-09
-4.5514e-08
-1.83333e-09
-4.36351e-08
-1.87885e-09
-4.17141e-08
-1.92098e-09
-3.97549e-08
-1.95927e-09
-3.77616e-08
-1.99328e-09
-3.57391e-08
-2.02251e-09
-3.36926e-08
-2.04649e-09
-3.16279e-08
-2.06471e-09
-2.95512e-08
-2.07668e-09
-2.74693e-08
-2.08188e-09
-2.53895e-08
-2.07979e-09
-2.33196e-08
-2.0699e-09
-2.12679e-08
-2.0517e-09
-1.92432e-08
-2.02468e-09
-1.72549e-08
-1.98835e-09
-1.53127e-08
-1.94222e-09
-1.34268e-08
-1.88583e-09
-1.16081e-08
-1.81876e-09
-9.86746e-09
-1.74061e-09
-8.21643e-09
-1.65103e-09
-6.66669e-09
-1.54974e-09
-5.23015e-09
-1.43654e-09
-3.91881e-09
-1.31134e-09
-2.74458e-09
-1.17423e-09
-1.71906e-09
-1.02551e-09
-8.53243e-10
-8.65818e-10
-1.56949e-10
-6.9629e-10
3.61904e-10
-5.18852e-10
6.98568e-10
-3.36668e-10
8.53535e-10
-1.54969e-10
8.36036e-10
1.74969e-11
6.69899e-10
1.6614e-10
4.03879e-10
2.66033e-10
1.30765e-10
2.73113e-10
1.30764e-10
2.45234e-10
-3.60072e-10
6.33816e-10
-6.34058e-10
9.49886e-10
-5.60796e-10
1.04671e-09
-2.57732e-10
8.28415e-10
1.85285e-10
2.38514e-10
7.06593e-10
-7.51366e-10
1.26489e-09
-2.15024e-09
1.83289e-09
-3.95399e-09
2.39263e-09
-6.14963e-09
2.93237e-09
-8.71829e-09
3.44446e-09
-1.16373e-08
3.92409e-09
-1.48815e-08
4.36833e-09
-1.84245e-08
4.77559e-09
-2.22393e-08
5.14527e-09
-2.62986e-08
5.47743e-09
-3.05756e-08
5.77261e-09
-3.5044e-08
6.03174e-09
-3.96784e-08
6.25601e-09
-4.44541e-08
6.44678e-09
-4.93479e-08
6.60559e-09
-5.43373e-08
6.73402e-09
-5.94012e-08
6.83375e-09
-6.45197e-08
6.90648e-09
-6.96741e-08
6.95393e-09
-7.48471e-08
6.97781e-09
-8.00224e-08
6.97982e-09
-8.51852e-08
6.96162e-09
-9.03216e-08
6.92485e-09
-9.5419e-08
6.8711e-09
-1.00466e-07
6.80188e-09
-1.05452e-07
6.7187e-09
-1.10368e-07
6.62295e-09
-1.15205e-07
6.516e-09
-1.19957e-07
6.39914e-09
-1.24616e-07
6.27359e-09
-1.29177e-07
6.14051e-09
-1.33635e-07
6.00099e-09
-1.37986e-07
5.85604e-09
-1.42227e-07
5.70662e-09
-1.46355e-07
5.55362e-09
-1.50368e-07
5.39786e-09
-1.54264e-07
5.2401e-09
-1.58042e-07
5.08103e-09
-1.61702e-07
4.92129e-09
-1.65244e-07
4.76146e-09
-1.68667e-07
4.60205e-09
-1.71974e-07
4.44355e-09
-1.75163e-07
4.28636e-09
-1.78237e-07
4.13085e-09
-1.81198e-07
3.97735e-09
-1.84046e-07
3.82612e-09
-1.86783e-07
3.6774e-09
-1.89412e-07
3.53139e-09
-1.91935e-07
3.38824e-09
-1.94354e-07
3.24807e-09
-1.96671e-07
3.11097e-09
-1.98888e-07
2.977e-09
-2.01007e-07
2.84617e-09
-2.03032e-07
2.7185e-09
-2.04964e-07
2.59394e-09
-2.06805e-07
2.47245e-09
-2.08558e-07
2.35397e-09
-2.10226e-07
2.23838e-09
-2.11808e-07
2.12557e-09
-2.13309e-07
2.01542e-09
-2.1473e-07
1.90778e-09
-2.16072e-07
1.80248e-09
-2.17337e-07
1.69934e-09
-2.18526e-07
1.59817e-09
-2.19641e-07
1.49877e-09
-2.20684e-07
1.40091e-09
-2.21654e-07
1.30438e-09
-2.22552e-07
1.20894e-09
-2.2338e-07
1.11434e-09
-2.24138e-07
1.02034e-09
-2.24826e-07
9.26663e-10
-2.25443e-07
8.33057e-10
-2.25991e-07
7.39253e-10
-2.26468e-07
6.44976e-10
-2.26874e-07
5.49946e-10
-2.27209e-07
4.5388e-10
-2.2747e-07
3.56494e-10
-2.27658e-07
2.57506e-10
-2.2777e-07
1.56636e-10
-2.27805e-07
5.36006e-11
-2.27762e-07
-5.18823e-11
-2.27637e-07
-1.60092e-10
-2.2743e-07
-2.71303e-10
-2.27137e-07
-3.85781e-10
-2.26756e-07
-5.03786e-10
-2.26284e-07
-6.25567e-10
-2.25719e-07
-7.51366e-10
-2.25057e-07
-8.81413e-10
-2.24294e-07
-1.01592e-09
-2.23428e-07
-1.1551e-09
-2.22454e-07
-1.29911e-09
-2.2137e-07
-1.44813e-09
-2.20171e-07
-1.60228e-09
-2.18853e-07
-1.76169e-09
-2.17413e-07
-1.92644e-09
-2.15847e-07
-2.09657e-09
-2.1415e-07
-2.27212e-09
-2.12319e-07
-2.45306e-09
-2.10349e-07
-2.63934e-09
-2.08237e-07
-2.83086e-09
-2.0598e-07
-3.02748e-09
-2.03573e-07
-3.229e-09
-2.01013e-07
-3.43517e-09
-1.98297e-07
-3.6457e-09
-1.95422e-07
-3.86023e-09
-1.92386e-07
-4.07833e-09
-1.89186e-07
-4.29952e-09
-1.8582e-07
-4.52324e-09
-1.82288e-07
-4.74887e-09
-1.78588e-07
-4.97571e-09
-1.7472e-07
-5.20298e-09
-1.70684e-07
-5.42983e-09
-1.66481e-07
-5.65535e-09
-1.62114e-07
-5.87851e-09
-1.57585e-07
-6.09823e-09
-1.52898e-07
-6.31334e-09
-1.48056e-07
-6.52259e-09
-1.43065e-07
-6.72465e-09
-1.37931e-07
-6.91813e-09
-1.32663e-07
-7.10154e-09
-1.27269e-07
-7.27334e-09
-1.21758e-07
-7.4319e-09
-1.16141e-07
-7.57554e-09
-1.10432e-07
-7.70254e-09
-1.04644e-07
-7.81111e-09
-9.87907e-08
-7.89941e-09
-9.28898e-08
-7.96558e-09
-8.69587e-08
-8.00774e-09
-8.10166e-08
-8.02399e-09
-7.5084e-08
-8.01241e-09
-6.91828e-08
-7.97111e-09
-6.33363e-08
-7.89822e-09
-5.75691e-08
-7.7919e-09
-5.1907e-08
-7.65039e-09
-4.63772e-08
-7.472e-09
-4.10079e-08
-7.25515e-09
-3.58283e-08
-6.9984e-09
-3.08684e-08
-6.70049e-09
-2.6159e-08
-6.3604e-09
-2.17313e-08
-5.97744e-09
-1.76166e-08
-5.55129e-09
-1.38457e-08
-5.08219e-09
-1.04488e-08
-4.57112e-09
-7.45427e-09
-4.02007e-09
-4.88764e-09
-3.43244e-09
-2.77022e-09
-2.81373e-09
-1.11669e-09
-2.17239e-09
6.80563e-11
-1.52139e-09
7.93618e-10
-8.8052e-10
1.09105e-09
-2.79952e-10
1.02278e-09
2.34413e-10
6.95369e-10
5.93439e-10
2.73137e-10
6.95351e-10
4.03902e-10
2.45743e-10
-6.05807e-10
5.63426e-10
-9.51744e-10
6.97817e-10
-6.95206e-10
4.74917e-10
-3.48238e-11
-2.24992e-10
8.8521e-10
-1.47781e-09
1.95942e-09
-3.32542e-09
3.11251e-09
-5.78437e-09
4.29184e-09
-8.85267e-09
5.46093e-09
-1.2515e-08
6.59467e-09
-1.67465e-08
7.67601e-09
-2.1516e-08
8.69358e-09
-2.67878e-08
9.64008e-09
-3.25234e-08
1.05112e-08
-3.86828e-08
1.13047e-08
-4.52254e-08
1.202e-08
-5.21106e-08
1.26578e-08
-5.92983e-08
1.32194e-08
-6.67493e-08
1.3707e-08
-7.44258e-08
1.41232e-08
-8.22912e-08
1.4471e-08
-9.03107e-08
1.47535e-08
-9.84512e-08
1.49742e-08
-1.06681e-07
1.51366e-08
-1.14971e-07
1.52441e-08
-1.23294e-07
1.53005e-08
-1.31624e-07
1.53093e-08
-1.39936e-07
1.52741e-08
-1.48209e-07
1.51982e-08
-1.56423e-07
1.50851e-08
-1.6456e-07
1.49381e-08
-1.72601e-07
1.47603e-08
-1.80533e-07
1.45549e-08
-1.88342e-07
1.43247e-08
-1.96015e-07
1.40725e-08
-2.03543e-07
1.38011e-08
-2.10915e-07
1.35128e-08
-2.18124e-07
1.32101e-08
-2.25163e-07
1.28953e-08
-2.32027e-07
1.25703e-08
-2.38711e-07
1.22371e-08
-2.4521e-07
1.18976e-08
-2.51524e-07
1.15534e-08
-2.57649e-07
1.1206e-08
-2.63584e-07
1.08568e-08
-2.6933e-07
1.05072e-08
-2.74886e-07
1.01582e-08
-2.80253e-07
9.81085e-09
-2.85433e-07
9.46617e-09
-2.90427e-07
9.12491e-09
-2.95238e-07
8.78781e-09
-2.99867e-07
8.45547e-09
-3.04318e-07
8.12843e-09
-3.08594e-07
7.80711e-09
-3.12697e-07
7.49187e-09
-3.16632e-07
7.18298e-09
-3.20402e-07
6.88065e-09
-3.2401e-07
6.58501e-09
-3.2746e-07
6.29613e-09
-3.30755e-07
6.014e-09
-3.339e-07
5.73859e-09
-3.36897e-07
5.46978e-09
-3.39751e-07
5.20743e-09
-3.42464e-07
4.95134e-09
-3.45039e-07
4.70126e-09
-3.47481e-07
4.4569e-09
-3.49791e-07
4.21795e-09
-3.51973e-07
3.98406e-09
-3.54028e-07
3.75483e-09
-3.5596e-07
3.52986e-09
-3.5777e-07
3.3087e-09
-3.5946e-07
3.09088e-09
-3.61031e-07
2.87592e-09
-3.62486e-07
2.66329e-09
-3.63824e-07
2.45248e-09
-3.65046e-07
2.24293e-09
-3.66154e-07
2.03409e-09
-3.67146e-07
1.82537e-09
-3.68023e-07
1.61619e-09
-3.68784e-07
1.40596e-09
-3.69428e-07
1.19407e-09
-3.69954e-07
9.7991e-10
-3.70361e-07
7.62869e-10
-3.70645e-07
5.42328e-10
-3.70806e-07
3.1767e-10
-3.70841e-07
8.82848e-11
-3.70747e-07
-1.46435e-10
-3.7052e-07
-3.8709e-10
-3.70157e-07
-6.34269e-10
-3.69654e-07
-8.88551e-10
-3.69007e-07
-1.1505e-09
-3.68212e-07
-1.42064e-09
-3.67264e-07
-1.69951e-09
-3.66158e-07
-1.98759e-09
-3.64888e-07
-2.28533e-09
-3.6345e-07
-2.59317e-09
-3.61838e-07
-2.91148e-09
-3.60045e-07
-3.2406e-09
-3.58067e-07
-3.58082e-09
-3.55896e-07
-3.93237e-09
-3.53527e-07
-4.29541e-09
-3.50954e-07
-4.67006e-09
-3.48169e-07
-5.05634e-09
-3.45168e-07
-5.45419e-09
-3.41944e-07
-5.86349e-09
-3.38491e-07
-6.28399e-09
-3.34803e-07
-6.71536e-09
-3.30875e-07
-7.15717e-09
-3.26701e-07
-7.60887e-09
-3.22277e-07
-8.06977e-09
-3.17598e-07
-8.53908e-09
-3.12661e-07
-9.01586e-09
-3.07461e-07
-9.49903e-09
-3.01997e-07
-9.98737e-09
-2.96267e-07
-1.04795e-08
-2.90268e-07
-1.09739e-08
-2.84003e-07
-1.14689e-08
-2.7747e-07
-1.19625e-08
-2.70672e-07
-1.24528e-08
-2.63613e-07
-1.29376e-08
-2.56297e-07
-1.34145e-08
-2.48729e-07
-1.3881e-08
-2.40918e-07
-1.43342e-08
-2.32871e-07
-1.47715e-08
-2.24599e-07
-1.51896e-08
-2.16115e-07
-1.55855e-08
-2.07433e-07
-1.59557e-08
-1.98568e-07
-1.62968e-08
-1.89538e-07
-1.66052e-08
-1.80364e-07
-1.6877e-08
-1.71067e-07
-1.71086e-08
-1.6167e-07
-1.72959e-08
-1.52201e-07
-1.7435e-08
-1.42687e-07
-1.75218e-08
-1.33158e-07
-1.75523e-08
-1.23648e-07
-1.75226e-08
-1.14191e-07
-1.74285e-08
-1.04823e-07
-1.72661e-08
-9.5583e-08
-1.70318e-08
-8.65117e-08
-1.67217e-08
-7.76512e-08
-1.63325e-08
-6.90452e-08
-1.58611e-08
-6.0739e-08
-1.53047e-08
-5.27786e-08
-1.46608e-08
-4.52111e-08
-1.39279e-08
-3.80837e-08
-1.31049e-08
-3.14431e-08
-1.21918e-08
-2.53353e-08
-1.119e-08
-1.98041e-08
-1.01024e-08
-1.48898e-08
-8.93434e-09
-1.06279e-08
-7.69436e-09
-7.04627e-09
-6.39531e-09
-4.16242e-09
-5.05624e-09
-1.97884e-09
-3.70497e-09
-4.77495e-10
-2.38186e-09
3.87833e-10
-1.14527e-09
7.01282e-10
-7.9037e-11
5.96141e-10
6.98575e-10
2.66923e-10
1.02456e-09
6.70831e-10
1.63747e-10
-7.69544e-10
2.64774e-10
-1.05276e-09
4.43233e-11
-4.74748e-10
-6.78013e-10
6.87489e-10
-2.02898e-09
2.23617e-09
-4.09182e-09
4.02226e-09
-6.91466e-09
5.93534e-09
-1.0518e-08
7.89518e-09
-1.49011e-08
9.84406e-09
-2.00473e-08
1.17408e-08
-2.59276e-08
1.35564e-08
-3.25048e-08
1.52708e-08
-3.97354e-08
1.68707e-08
-4.75718e-08
1.83475e-08
-5.59638e-08
1.96967e-08
-6.48599e-08
2.09162e-08
-7.42083e-08
2.20062e-08
-8.39573e-08
2.29685e-08
-9.40563e-08
2.38061e-08
-1.04456e-07
2.45229e-08
-1.15109e-07
2.51235e-08
-1.25968e-07
2.56131e-08
-1.36991e-07
2.59972e-08
-1.48136e-07
2.62814e-08
-1.59364e-07
2.64717e-08
-1.70637e-07
2.65741e-08
-1.81922e-07
2.65945e-08
-1.93187e-07
2.65389e-08
-2.04402e-07
2.64131e-08
-2.1554e-07
2.62228e-08
-2.26575e-07
2.59737e-08
-2.37486e-07
2.56712e-08
-2.48252e-07
2.53205e-08
-2.58854e-07
2.49266e-08
-2.69276e-07
2.44943e-08
-2.79503e-07
2.40282e-08
-2.89522e-07
2.35326e-08
-2.99324e-07
2.30115e-08
-3.08897e-07
2.24689e-08
-3.18235e-07
2.19083e-08
-3.27331e-07
2.13331e-08
-3.3618e-07
2.07464e-08
-3.44778e-07
2.01511e-08
-3.53122e-07
1.95499e-08
-3.6121e-07
1.89452e-08
-3.69042e-07
1.83392e-08
-3.76618e-07
1.77339e-08
-3.83938e-07
1.71313e-08
-3.91005e-07
1.65327e-08
-3.9782e-07
1.59398e-08
-4.04386e-07
1.53538e-08
-4.10706e-07
1.47757e-08
-4.16784e-07
1.42064e-08
-4.22624e-07
1.36468e-08
-4.28229e-07
1.30975e-08
-4.33605e-07
1.25589e-08
-4.38756e-07
1.20315e-08
-4.43686e-07
1.15154e-08
-4.48401e-07
1.10109e-08
-4.52905e-07
1.05178e-08
-4.57203e-07
1.00363e-08
-4.61299e-07
9.56596e-09
-4.65198e-07
9.10671e-09
-4.68905e-07
8.65816e-09
-4.72424e-07
8.21989e-09
-4.75758e-07
7.79143e-09
-4.78912e-07
7.37224e-09
-4.8189e-07
6.9617e-09
-4.84694e-07
6.55916e-09
-4.87328e-07
6.1639e-09
-4.89795e-07
5.77517e-09
-4.92096e-07
5.39217e-09
-4.94234e-07
5.01404e-09
-4.96211e-07
4.63991e-09
-4.98027e-07
4.26886e-09
-4.99684e-07
3.89996e-09
-5.01182e-07
3.53225e-09
-5.02522e-07
3.16472e-09
-5.03702e-07
2.79638e-09
-5.04722e-07
2.42619e-09
-5.05581e-07
2.0531e-09
-5.06277e-07
1.67608e-09
-5.06809e-07
1.29407e-09
-5.07172e-07
9.06007e-10
-5.07365e-07
5.10837e-10
-5.07385e-07
1.07506e-10
-5.07226e-07
-3.05028e-10
-5.06885e-07
-7.27795e-10
-5.06358e-07
-1.16181e-09
-5.05638e-07
-1.60805e-09
-5.04721e-07
-2.06748e-09
-5.03601e-07
-2.54101e-09
-5.02271e-07
-3.02954e-09
-5.00725e-07
-3.53389e-09
-4.98955e-07
-4.05484e-09
-4.96955e-07
-4.5931e-09
-4.94717e-07
-5.14932e-09
-4.92234e-07
-5.72407e-09
-4.89497e-07
-6.31781e-09
-4.86498e-07
-6.93093e-09
-4.8323e-07
-7.5637e-09
-4.79684e-07
-8.21628e-09
-4.75852e-07
-8.88868e-09
-4.71725e-07
-9.58081e-09
-4.67296e-07
-1.02924e-08
-4.62557e-07
-1.1023e-08
-4.575e-07
-1.17721e-08
-4.52119e-07
-1.25388e-08
-4.46405e-07
-1.33221e-08
-4.40354e-07
-1.4121e-08
-4.33959e-07
-1.49339e-08
-4.27216e-07
-1.57593e-08
-4.2012e-07
-1.65952e-08
-4.12668e-07
-1.74395e-08
-4.04857e-07
-1.82899e-08
-3.96688e-07
-1.91436e-08
-3.88159e-07
-1.99978e-08
-3.79272e-07
-2.08492e-08
-3.70031e-07
-2.16942e-08
-3.60439e-07
-2.25292e-08
-3.50504e-07
-2.33499e-08
-3.40232e-07
-2.41521e-08
-3.29636e-07
-2.4931e-08
-3.18725e-07
-2.56817e-08
-3.07516e-07
-2.63989e-08
-2.96024e-07
-2.70773e-08
-2.84269e-07
-2.77109e-08
-2.72272e-07
-2.8294e-08
-2.60057e-07
-2.88202e-08
-2.47651e-07
-2.92832e-08
-2.35083e-07
-2.96764e-08
-2.22385e-07
-2.99933e-08
-2.09593e-07
-3.02271e-08
-1.96744e-07
-3.03709e-08
-1.83879e-07
-3.0418e-08
-1.7104e-07
-3.03615e-08
-1.58273e-07
-3.01948e-08
-1.45628e-07
-2.99113e-08
-1.33155e-07
-2.95048e-08
-1.20907e-07
-2.89694e-08
-1.0894e-07
-2.82994e-08
-9.73115e-08
-2.749e-08
-8.60794e-08
-2.65368e-08
-7.53038e-08
-2.54364e-08
-6.50453e-08
-2.41864e-08
-5.53642e-08
-2.2786e-08
-4.63199e-08
-2.12361e-08
-3.797e-08
-1.95399e-08
-3.03688e-08
-1.77036e-08
-2.35657e-08
-1.57374e-08
-1.7603e-08
-1.3657e-08
-1.25132e-08
-1.14851e-08
-8.31537e-09
-9.25409e-09
-5.01051e-09
-7.00983e-09
-2.57604e-09
-4.81634e-09
-9.58644e-10
-2.76264e-09
-6.59557e-11
-9.71736e-10
2.4301e-10
3.89618e-10
1.69028e-10
1.09855e-09
8.39855e-10
3.77492e-11
-8.07293e-10
-1.74149e-10
-8.40856e-10
-8.70507e-10
2.21629e-10
-2.22144e-09
2.03842e-09
-4.34872e-09
4.36346e-09
-7.33392e-09
7.00746e-09
-1.1225e-08
9.8264e-09
-1.60424e-08
1.27126e-08
-2.17848e-08
1.55864e-08
-2.84333e-08
1.83893e-08
-3.59558e-08
2.10788e-08
-4.43099e-08
2.36249e-08
-5.3446e-08
2.60068e-08
-6.33094e-08
2.82108e-08
-7.38416e-08
3.02289e-08
-8.49824e-08
3.2057e-08
-9.66706e-08
3.36944e-08
-1.08845e-07
3.5143e-08
-1.21445e-07
3.64063e-08
-1.34412e-07
3.74898e-08
-1.47688e-07
3.83997e-08
-1.61219e-07
3.91433e-08
-1.7495e-07
3.97283e-08
-1.88831e-07
4.01631e-08
-2.02816e-07
4.04562e-08
-2.16858e-07
4.06165e-08
-2.30916e-07
4.06526e-08
-2.44951e-07
4.05735e-08
-2.58926e-07
4.03878e-08
-2.72807e-07
4.01041e-08
-2.86564e-07
3.97307e-08
-3.00168e-07
3.92758e-08
-3.13595e-07
3.87471e-08
-3.26821e-07
3.81524e-08
-3.39825e-07
3.74987e-08
-3.5259e-07
3.67931e-08
-3.65099e-07
3.60419e-08
-3.77339e-07
3.52515e-08
-3.89298e-07
3.44277e-08
-4.00966e-07
3.3576e-08
-4.12334e-07
3.27014e-08
-4.23397e-07
3.18087e-08
-4.34148e-07
3.09024e-08
-4.44584e-07
2.99864e-08
-4.54704e-07
2.90646e-08
-4.64505e-07
2.81403e-08
-4.73988e-07
2.72167e-08
-4.83153e-07
2.62964e-08
-4.92002e-07
2.5382e-08
-5.00538e-07
2.44757e-08
-5.08764e-07
2.35794e-08
-5.16683e-07
2.26948e-08
-5.243e-07
2.18234e-08
-5.31619e-07
2.09662e-08
-5.38646e-07
2.01244e-08
-5.45386e-07
1.92987e-08
-5.51844e-07
1.84896e-08
-5.58026e-07
1.76976e-08
-5.63938e-07
1.69228e-08
-5.69586e-07
1.61654e-08
-5.74975e-07
1.54252e-08
-5.80111e-07
1.4702e-08
-5.84999e-07
1.39954e-08
-5.89646e-07
1.33049e-08
-5.94056e-07
1.263e-08
-5.98235e-07
1.19698e-08
-6.02186e-07
1.13236e-08
-6.05915e-07
1.06905e-08
-6.09425e-07
1.00694e-08
-6.1272e-07
9.45932e-09
-6.15804e-07
8.85908e-09
-6.1868e-07
8.26747e-09
-6.21349e-07
7.68322e-09
-6.23814e-07
7.10499e-09
-6.26076e-07
6.5314e-09
-6.28137e-07
5.96103e-09
-6.29998e-07
5.3924e-09
-6.31657e-07
4.82403e-09
-6.33115e-07
4.25437e-09
-6.34371e-07
3.68188e-09
-6.35422e-07
3.10498e-09
-6.36268e-07
2.52208e-09
-6.36906e-07
1.93158e-09
-6.37332e-07
1.33188e-09
-6.37542e-07
7.2138e-10
-6.37533e-07
9.84925e-11
-6.373e-07
-5.38358e-10
-6.36837e-07
-1.19072e-09
-6.36139e-07
-1.86013e-09
-6.35199e-07
-2.54806e-09
-6.3401e-07
-3.25597e-09
-6.32566e-07
-3.98522e-09
-6.30858e-07
-4.73715e-09
-6.28879e-07
-5.513e-09
-6.2662e-07
-6.31393e-09
-6.24072e-07
-7.14101e-09
-6.21226e-07
-7.99519e-09
-6.18073e-07
-8.87731e-09
-6.14603e-07
-9.78806e-09
-6.10806e-07
-1.0728e-08
-6.06672e-07
-1.16975e-08
-6.02192e-07
-1.26968e-08
-5.97354e-07
-1.37259e-08
-5.92151e-07
-1.47845e-08
-5.86571e-07
-1.58724e-08
-5.80605e-07
-1.69887e-08
-5.74244e-07
-1.81325e-08
-5.67481e-07
-1.93027e-08
-5.60305e-07
-2.04977e-08
-5.5271e-07
-2.17156e-08
-5.4469e-07
-2.29544e-08
-5.36238e-07
-2.42114e-08
-5.27349e-07
-2.54839e-08
-5.1802e-07
-2.67685e-08
-5.08248e-07
-2.80615e-08
-4.98033e-07
-2.9359e-08
-4.87374e-07
-3.06565e-08
-4.76275e-07
-3.1949e-08
-4.64738e-07
-3.32312e-08
-4.5277e-07
-3.44973e-08
-4.40378e-07
-3.57412e-08
-4.27574e-07
-3.69561e-08
-4.1437e-07
-3.81351e-08
-4.00781e-07
-3.92706e-08
-3.86825e-07
-4.03547e-08
-3.72523e-07
-4.13792e-08
-3.57899e-07
-4.23354e-08
-3.42979e-07
-4.32143e-08
-3.27792e-07
-4.40066e-08
-3.12373e-07
-4.47027e-08
-2.96756e-07
-4.52929e-08
-2.80982e-07
-4.57672e-08
-2.65094e-07
-4.61155e-08
-2.49137e-07
-4.63277e-08
-2.33162e-07
-4.63935e-08
-2.1722e-07
-4.63031e-08
-2.01368e-07
-4.60466e-08
-1.85665e-07
-4.56144e-08
-1.70173e-07
-4.49973e-08
-1.54955e-07
-4.41868e-08
-1.4008e-07
-4.3175e-08
-1.25615e-07
-4.1955e-08
-1.11631e-07
-4.05208e-08
-9.8199e-08
-3.8868e-08
-8.53913e-08
-3.6994e-08
-7.3279e-08
-3.48984e-08
-6.19315e-08
-3.25836e-08
-5.1416e-08
-3.00554e-08
-4.17951e-08
-2.73245e-08
-3.31253e-08
-2.44073e-08
-2.54544e-08
-2.1328e-08
-1.88186e-08
-1.81208e-08
-1.32394e-08
-1.48333e-08
-8.71838e-09
-1.15309e-08
-5.23283e-09
-8.30188e-09
-2.72951e-09
-5.26597e-09
-1.11793e-09
-2.58331e-09
-2.63072e-10
-4.65236e-10
2.32814e-11
8.12196e-10
8.63137e-10
-1.10605e-10
-6.96692e-10
-6.94006e-10
-2.57451e-10
-1.94606e-09
1.47369e-09
-4.01461e-09
4.10697e-09
-7.00746e-09
7.35631e-09
-1.09974e-08
1.09974e-08
-1.60269e-08
1.48559e-08
-2.21126e-08
1.87984e-08
-2.92499e-08
2.27238e-08
-3.74167e-08
2.65561e-08
-4.6577e-08
3.02391e-08
-5.6684e-08
3.37319e-08
-6.76827e-08
3.70055e-08
-7.95121e-08
4.00403e-08
-9.21072e-08
4.2824e-08
-1.054e-07
4.53501e-08
-1.19323e-07
4.76166e-08
-1.33805e-07
4.9625e-08
-1.48778e-07
5.13794e-08
-1.64174e-07
5.28865e-08
-1.79929e-07
5.41542e-08
-1.95978e-07
5.5192e-08
-2.1226e-07
5.60103e-08
-2.28717e-07
5.66201e-08
-2.45293e-07
5.70329e-08
-2.61937e-07
5.72606e-08
-2.786e-07
5.73152e-08
-2.95235e-07
5.72087e-08
-3.11801e-07
5.69531e-08
-3.28257e-07
5.65602e-08
-3.44567e-07
5.60414e-08
-3.607e-07
5.54081e-08
-3.76624e-07
5.4671e-08
-3.92312e-07
5.38407e-08
-4.0774e-07
5.29273e-08
-4.22888e-07
5.19403e-08
-4.37735e-07
5.08889e-08
-4.52265e-07
4.97818e-08
-4.66464e-07
4.86271e-08
-4.80321e-07
4.74324e-08
-4.93824e-07
4.6205e-08
-5.06967e-07
4.49516e-08
-5.19743e-07
4.36783e-08
-5.32148e-07
4.23909e-08
-5.44178e-07
4.10945e-08
-5.55831e-07
3.97941e-08
-5.67109e-07
3.84939e-08
-5.7801e-07
3.71979e-08
-5.88538e-07
3.59096e-08
-5.98694e-07
3.46321e-08
-6.08483e-07
3.33682e-08
-6.17908e-07
3.21202e-08
-6.26975e-07
3.08901e-08
-6.35689e-07
2.96798e-08
-6.44055e-07
2.84906e-08
-6.5208e-07
2.73236e-08
-6.5977e-07
2.61796e-08
-6.67131e-07
2.50592e-08
-6.74171e-07
2.39628e-08
-6.80896e-07
2.28904e-08
-6.87313e-07
2.1842e-08
-6.93428e-07
2.08171e-08
-6.99248e-07
1.98154e-08
-7.04779e-07
1.88361e-08
-7.10028e-07
1.78784e-08
-7.14999e-07
1.69413e-08
-7.197e-07
1.60237e-08
-7.24133e-07
1.51242e-08
-7.28305e-07
1.42415e-08
-7.3222e-07
1.33742e-08
-7.35882e-07
1.25205e-08
-7.39293e-07
1.16789e-08
-7.42457e-07
1.08475e-08
-7.45377e-07
1.00245e-08
-7.48053e-07
9.20792e-09
-7.50488e-07
8.39579e-09
-7.52682e-07
7.58607e-09
-7.54635e-07
6.77666e-09
-7.56346e-07
5.96541e-09
-7.57814e-07
5.15017e-09
-7.59038e-07
4.32872e-09
-7.60014e-07
3.49885e-09
-7.60741e-07
2.65833e-09
-7.61214e-07
1.80492e-09
-7.61429e-07
9.36395e-10
-7.61381e-07
5.0534e-11
-7.61065e-07
-8.54857e-10
-7.60474e-07
-1.78194e-09
-7.59601e-07
-2.73284e-09
-7.58439e-07
-3.70961e-09
-7.56981e-07
-4.71426e-09
-7.55218e-07
-5.74871e-09
-7.5314e-07
-6.81479e-09
-7.50739e-07
-7.91422e-09
-7.48004e-07
-9.04861e-09
-7.44926e-07
-1.02194e-08
-7.41493e-07
-1.1428e-08
-7.37695e-07
-1.26754e-08
-7.3352e-07
-1.39626e-08
-7.28958e-07
-1.52904e-08
-7.23996e-07
-1.66593e-08
-7.18623e-07
-1.80695e-08
-7.12828e-07
-1.9521e-08
-7.06599e-07
-2.10135e-08
-6.99925e-07
-2.25463e-08
-6.92796e-07
-2.41185e-08
-6.85199e-07
-2.57287e-08
-6.77127e-07
-2.73752e-08
-6.68569e-07
-2.90558e-08
-6.59517e-07
-3.07678e-08
-6.49963e-07
-3.25084e-08
-6.399e-07
-3.42738e-08
-6.29324e-07
-3.606e-08
-6.1823e-07
-3.78625e-08
-6.06616e-07
-3.9676e-08
-5.9448e-07
-4.14949e-08
-5.81823e-07
-4.3313e-08
-5.68649e-07
-4.51232e-08
-5.54962e-07
-4.69182e-08
-5.40769e-07
-4.86899e-08
-5.26081e-07
-5.04296e-08
-5.10909e-07
-5.2128e-08
-4.95269e-07
-5.37753e-08
-4.79178e-07
-5.53611e-08
-4.62659e-07
-5.68742e-08
-4.45735e-07
-5.83033e-08
-4.28434e-07
-5.96363e-08
-4.10788e-07
-6.08606e-08
-3.92831e-07
-6.19635e-08
-3.74602e-07
-6.29316e-08
-3.56143e-07
-6.37514e-08
-3.37501e-07
-6.44092e-08
-3.18726e-07
-6.4891e-08
-2.99871e-07
-6.5183e-08
-2.80993e-07
-6.52711e-08
-2.62154e-07
-6.51419e-08
-2.43419e-07
-6.47817e-08
-2.24856e-07
-6.41777e-08
-2.06535e-07
-6.33176e-08
-1.88532e-07
-6.219e-08
-1.70923e-07
-6.07844e-08
-1.53786e-07
-5.90918e-08
-1.37202e-07
-5.71047e-08
-1.21252e-07
-5.4818e-08
-1.06017e-07
-5.22289e-08
-9.1578e-08
-4.93378e-08
-7.80123e-08
-4.61492e-08
-6.53951e-08
-4.26725e-08
-5.37963e-08
-3.89233e-08
-4.32782e-08
-3.49254e-08
-3.38939e-08
-3.07122e-08
-2.5684e-08
-2.63307e-08
-1.86733e-08
-2.18441e-08
-1.28669e-08
-1.73372e-08
-8.24624e-09
-1.29225e-08
-4.76412e-09
-8.74807e-09
-2.33991e-09
-5.00751e-09
-8.54621e-10
-1.95054e-09
-1.45833e-10
1.03411e-10
7.17307e-10
-2.6886e-10
-4.27837e-10
-1.25601e-09
7.29702e-10
-3.11218e-09
3.32985e-09
-5.95566e-09
6.95045e-09
-9.87389e-09
1.12745e-08
-1.49255e-08
1.6049e-08
-2.1143e-08
2.10734e-08
-2.85359e-08
2.61912e-08
-3.70938e-08
3.12817e-08
-4.67897e-08
3.6252e-08
-5.75829e-08
4.10323e-08
-6.94219e-08
4.55708e-08
-8.22464e-08
4.983e-08
-9.599e-08
5.37838e-08
-1.10582e-07
5.74156e-08
-1.25947e-07
6.07158e-08
-1.42011e-07
6.36806e-08
-1.58697e-07
6.63112e-08
-1.7593e-07
6.8612e-08
-1.93634e-07
7.05907e-08
-2.11737e-07
7.2257e-08
-2.30168e-07
7.36228e-08
-2.48858e-07
7.47009e-08
-2.67744e-07
7.55054e-08
-2.86762e-07
7.60509e-08
-3.05854e-07
7.63528e-08
-3.24965e-07
7.64264e-08
-3.44044e-07
7.62874e-08
-3.63042e-07
7.59511e-08
-3.81915e-07
7.54331e-08
-4.00621e-07
7.47482e-08
-4.19125e-07
7.39113e-08
-4.3739e-07
7.29366e-08
-4.55388e-07
7.18379e-08
-4.73089e-07
7.06284e-08
-4.90469e-07
6.93207e-08
-5.07507e-07
6.7927e-08
-5.24184e-07
6.64586e-08
-5.40483e-07
6.49263e-08
-5.56391e-07
6.33404e-08
-5.71896e-07
6.17103e-08
-5.8699e-07
6.00448e-08
-6.01663e-07
5.83522e-08
-6.15913e-07
5.66402e-08
-6.29734e-07
5.49156e-08
-6.43125e-07
5.31849e-08
-6.56084e-07
5.14538e-08
-6.68614e-07
4.97276e-08
-6.80716e-07
4.8011e-08
-6.92392e-07
4.63082e-08
-7.03646e-07
4.46228e-08
-7.14484e-07
4.29581e-08
-7.24911e-07
4.13166e-08
-7.34932e-07
3.97009e-08
-7.44554e-07
3.81127e-08
-7.53784e-07
3.65536e-08
-7.62629e-07
3.50246e-08
-7.71096e-07
3.35267e-08
-7.79194e-07
3.20601e-08
-7.86929e-07
3.06252e-08
-7.94308e-07
2.92218e-08
-8.01341e-07
2.78494e-08
-8.08033e-07
2.65074e-08
-8.14391e-07
2.5195e-08
-8.20424e-07
2.3911e-08
-8.26137e-07
2.26542e-08
-8.31536e-07
2.1423e-08
-8.36628e-07
2.02158e-08
-8.41417e-07
1.90308e-08
-8.45909e-07
1.78659e-08
-8.50107e-07
1.67191e-08
-8.54017e-07
1.55882e-08
-8.5764e-07
1.44707e-08
-8.6098e-07
1.33642e-08
-8.64038e-07
1.22663e-08
-8.66816e-07
1.11741e-08
-8.69315e-07
1.00851e-08
-8.71535e-07
8.99652e-09
-8.73475e-07
7.90544e-09
-8.75134e-07
6.80904e-09
-8.7651e-07
5.7044e-09
-8.776e-07
4.5886e-09
-8.784e-07
3.45869e-09
-8.78907e-07
2.31173e-09
-8.79115e-07
1.14475e-09
-8.79019e-07
-4.51408e-11
-8.78613e-07
-1.26085e-09
-8.7789e-07
-2.50524e-09
-8.76842e-07
-3.78107e-09
-8.7546e-07
-5.09109e-09
-8.73737e-07
-6.4379e-09
-8.71661e-07
-7.82404e-09
-8.69224e-07
-9.25191e-09
-8.66415e-07
-1.07238e-08
-8.63222e-07
-1.22417e-08
-8.59634e-07
-1.38076e-08
-8.55638e-07
-1.54232e-08
-8.51224e-07
-1.709e-08
-8.46377e-07
-1.88091e-08
-8.41086e-07
-2.05816e-08
-8.35337e-07
-2.24081e-08
-8.29118e-07
-2.42889e-08
-8.22415e-07
-2.62238e-08
-8.15216e-07
-2.82125e-08
-8.07508e-07
-3.0254e-08
-7.9928e-07
-3.23471e-08
-7.90519e-07
-3.44898e-08
-7.81214e-07
-3.66799e-08
-7.71355e-07
-3.89144e-08
-7.60933e-07
-4.11899e-08
-7.49939e-07
-4.35023e-08
-7.38366e-07
-4.58467e-08
-7.26208e-07
-4.82179e-08
-7.13461e-07
-5.06097e-08
-7.00122e-07
-5.30153e-08
-6.86189e-07
-5.54272e-08
-6.71665e-07
-5.78369e-08
-6.56553e-07
-6.02354e-08
-6.40859e-07
-6.26129e-08
-6.2459e-07
-6.49586e-08
-6.07758e-07
-6.72611e-08
-5.90378e-07
-6.95081e-08
-5.72467e-07
-7.16867e-08
-5.54045e-07
-7.3783e-08
-5.35137e-07
-7.57827e-08
-5.1577e-07
-7.76704e-08
-4.95975e-07
-7.94306e-08
-4.75789e-07
-8.10466e-08
-4.55251e-07
-8.25017e-08
-4.34404e-07
-8.37784e-08
-4.13297e-07
-8.48591e-08
-3.9198e-07
-8.57257e-08
-3.70511e-07
-8.63602e-08
-3.4895e-07
-8.67443e-08
-3.27361e-07
-8.68602e-08
-3.05813e-07
-8.66899e-08
-2.84378e-07
-8.62163e-08
-2.63133e-07
-8.54228e-08
-2.42157e-07
-8.42936e-08
-2.21532e-07
-8.28143e-08
-2.01345e-07
-8.09718e-08
-1.81682e-07
-7.8755e-08
-1.62631e-07
-7.6155e-08
-1.44284e-07
-7.31659e-08
-1.26728e-07
-6.97849e-08
-1.10052e-07
-6.60139e-08
-9.43412e-08
-6.18596e-08
-7.96782e-08
-5.73355e-08
-6.61387e-08
-5.24629e-08
-5.37909e-08
-4.72731e-08
-4.26934e-08
-4.18098e-08
-3.28918e-08
-3.61323e-08
-2.44164e-08
-3.03195e-08
-1.72785e-08
-2.44751e-08
-1.14674e-08
-1.87336e-08
-6.94702e-09
-1.32685e-08
-3.65246e-09
-8.30206e-09
-1.48782e-09
-4.11517e-09
-3.24333e-10
-1.06007e-09
3.92972e-10
-4.29752e-10
1.9228e-12
-1.8353e-09
2.13525e-09
-4.32124e-09
5.81579e-09
-7.97268e-09
1.06019e-08
-1.28526e-08
1.61545e-08
-1.90017e-08
2.21981e-08
-2.6439e-08
2.85107e-08
-3.51638e-08
3.4916e-08
-4.51577e-08
4.12756e-08
-5.63871e-08
4.74814e-08
-6.88056e-08
5.34508e-08
-8.2356e-08
5.91212e-08
-9.69729e-08
6.44469e-08
-1.12584e-07
6.93954e-08
-1.29114e-07
7.39451e-08
-1.46482e-07
7.80835e-08
-1.64606e-07
8.18049e-08
-1.83405e-07
8.51097e-08
-2.02795e-07
8.80027e-08
-2.22697e-07
9.04926e-08
-2.43031e-07
9.25909e-08
-2.6372e-07
9.43116e-08
-2.8469e-07
9.56704e-08
-3.05869e-07
9.66844e-08
-3.27189e-07
9.73717e-08
-3.48588e-07
9.7751e-08
-3.70003e-07
9.78416e-08
-3.91378e-07
9.76627e-08
-4.12661e-07
9.72338e-08
-4.33802e-07
9.6574e-08
-4.54756e-07
9.57022e-08
-4.75481e-07
9.46369e-08
-4.95941e-07
9.33961e-08
-5.161e-07
9.19971e-08
-5.35928e-07
9.04566e-08
-5.55398e-07
8.87907e-08
-5.74486e-07
8.70146e-08
-5.9317e-07
8.51428e-08
-6.11433e-07
8.3189e-08
-6.29258e-07
8.11661e-08
-6.46634e-07
7.90861e-08
-6.6355e-07
7.69605e-08
-6.79997e-07
7.47995e-08
-6.9597e-07
7.2613e-08
-7.11464e-07
7.04098e-08
-7.26477e-07
6.8198e-08
-7.41009e-07
6.59851e-08
-7.55059e-07