/*--------------------------------*- C++ -*----------------------------------*\
  =========                 |
  \\      /  F ield         | OpenFOAM: The Open Source CFD Toolbox
   \\    /   O peration     | Website:  https://openfoam.org
    \\  /    A nd           | Version:  7
     \\/     M anipulation  |
\*---------------------------------------------------------------------------*/
FoamFile
{
    version     2.0;
    format      ascii;
    class       surfaceScalarField;
    location    "0.325";
    object      phi;
}
// * * * * * * * * * * * * * * * * * * * * * * * * * * * * * * * * * * * * * //

dimensions      [0 3 -1 0 0 0 0];

internalField   nonuniform List<scalar> 
25360
(
1.14362e-10
-1.14272e-10
3.59586e-10
-2.45225e-10
6.04184e-10
-2.44598e-10
7.65034e-10
-1.60846e-10
7.98004e-10
-3.29631e-11
6.81287e-10
1.16722e-10
4.06249e-10
2.75038e-10
-2.77785e-11
4.34026e-10
-6.16661e-10
5.88884e-10
-1.35337e-09
7.36718e-10
-2.22915e-09
8.75786e-10
-3.23423e-09
1.00508e-09
-4.35831e-09
1.12407e-09
-5.59085e-09
1.23254e-09
-6.92135e-09
1.3305e-09
-8.33942e-09
1.41808e-09
-9.83498e-09
1.49556e-09
-1.13982e-08
1.56326e-09
-1.30198e-08
1.62158e-09
-1.46907e-08
1.67093e-09
-1.64025e-08
1.71178e-09
-1.81471e-08
1.74457e-09
-1.99169e-08
1.76979e-09
-2.17048e-08
1.78791e-09
-2.35042e-08
1.79941e-09
-2.53089e-08
1.80475e-09
-2.71133e-08
1.8044e-09
-2.89121e-08
1.7988e-09
-3.07005e-08
1.78839e-09
-3.24741e-08
1.7736e-09
-3.42289e-08
1.75483e-09
-3.59614e-08
1.73248e-09
-3.76683e-08
1.70691e-09
-3.93468e-08
1.67849e-09
-4.09944e-08
1.64755e-09
-4.26088e-08
1.61442e-09
-4.41882e-08
1.57939e-09
-4.57309e-08
1.54274e-09
-4.72357e-08
1.50476e-09
-4.87013e-08
1.46567e-09
-5.0127e-08
1.42571e-09
-5.15121e-08
1.38509e-09
-5.28561e-08
1.34401e-09
-5.41588e-08
1.30265e-09
-5.54199e-08
1.26116e-09
-5.66396e-08
1.2197e-09
-5.7818e-08
1.1784e-09
-5.89554e-08
1.13738e-09
-6.00522e-08
1.09674e-09
-6.11087e-08
1.05658e-09
-6.21257e-08
1.01698e-09
-6.31037e-08
9.78004e-10
-6.40434e-08
9.39714e-10
-6.49456e-08
9.02159e-10
-6.5811e-08
8.65376e-10
-6.66404e-08
8.29394e-10
-6.74346e-08
7.94233e-10
-6.81945e-08
7.59907e-10
-6.89209e-08
7.2642e-10
-6.96147e-08
6.9377e-10
-7.02766e-08
6.61949e-10
-7.09076e-08
6.30941e-10
-7.15083e-08
6.00727e-10
-7.20796e-08
5.71279e-10
-7.26222e-08
5.42568e-10
-7.31367e-08
5.14558e-10
-7.36239e-08
4.87209e-10
-7.40844e-08
4.60479e-10
-7.45187e-08
4.3432e-10
-7.49274e-08
4.08682e-10
-7.53109e-08
3.83508e-10
-7.56697e-08
3.58744e-10
-7.6004e-08
3.34329e-10
-7.63142e-08
3.10204e-10
-7.66005e-08
2.86304e-10
-7.68631e-08
2.62564e-10
-7.7102e-08
2.38913e-10
-7.73173e-08
2.15285e-10
-7.75089e-08
1.91608e-10
-7.76767e-08
1.67813e-10
-7.78205e-08
1.43825e-10
-7.79401e-08
1.19569e-10
-7.8035e-08
9.4972e-11
-7.8105e-08
6.99592e-11
-7.81495e-08
4.4458e-11
-7.81679e-08
1.83945e-11
-7.81596e-08
-8.30567e-12
-7.81238e-08
-3.5717e-11
-7.80599e-08
-6.39121e-11
-7.7967e-08
-9.29609e-11
-7.7844e-08
-1.22931e-10
-7.76901e-08
-1.53889e-10
-7.75042e-08
-1.85899e-10
-7.72852e-08
-2.19023e-10
-7.70319e-08
-2.53319e-10
-7.67431e-08
-2.8884e-10
-7.64174e-08
-3.25635e-10
-7.60537e-08
-3.63747e-10
-7.56505e-08
-4.03214e-10
-7.52064e-08
-4.44068e-10
-7.47201e-08
-4.86335e-10
-7.419e-08
-5.3003e-10
-7.36149e-08
-5.75161e-10
-7.29931e-08
-6.21727e-10
-7.23234e-08
-6.69716e-10
-7.16043e-08
-7.19105e-10
-7.08345e-08
-7.6986e-10
-7.00125e-08
-8.21934e-10
-6.91373e-08
-8.75267e-10
-6.82075e-08
-9.29782e-10
-6.72221e-08
-9.85388e-10
-6.61801e-08
-1.04198e-09
-6.50807e-08
-1.09943e-09
-6.39231e-08
-1.1576e-09
-6.27068e-08
-1.21633e-09
-6.14313e-08
-1.27544e-09
-6.00966e-08
-1.33473e-09
-5.87026e-08
-1.39398e-09
-5.72497e-08
-1.45295e-09
-5.57383e-08
-1.51138e-09
-5.41693e-08
-1.56898e-09
-5.25439e-08
-1.62546e-09
-5.08634e-08
-1.68047e-09
-4.91297e-08
-1.73369e-09
-4.7345e-08
-1.78474e-09
-4.55117e-08
-1.83322e-09
-4.3633e-08
-1.87874e-09
-4.17121e-08
-1.92087e-09
-3.9753e-08
-1.95917e-09
-3.77598e-08
-1.99317e-09
-3.57374e-08
-2.0224e-09
-3.3691e-08
-2.04638e-09
-3.16264e-08
-2.0646e-09
-2.95499e-08
-2.07657e-09
-2.74681e-08
-2.08177e-09
-2.53884e-08
-2.07968e-09
-2.33186e-08
-2.0698e-09
-2.1267e-08
-2.0516e-09
-1.92424e-08
-2.02458e-09
-1.72542e-08
-1.98825e-09
-1.53121e-08
-1.94212e-09
-1.34263e-08
-1.88574e-09
-1.16076e-08
-1.81868e-09
-9.8671e-09
-1.74053e-09
-8.21615e-09
-1.65096e-09
-6.66648e-09
-1.54967e-09
-5.23001e-09
-1.43647e-09
-3.91872e-09
-1.31129e-09
-2.74454e-09
-1.17419e-09
-1.71906e-09
-1.02547e-09
-8.53276e-10
-8.65789e-10
-1.57005e-10
-6.96271e-10
3.61836e-10
-5.18839e-10
6.985e-10
-3.36661e-10
8.53473e-10
-1.54979e-10
8.35984e-10
1.74737e-11
6.6985e-10
1.66124e-10
4.03833e-10
2.66033e-10
1.30742e-10
2.73132e-10
1.30777e-10
2.45464e-10
-3.59734e-10
6.34023e-10
-6.33776e-10
9.5003e-10
-5.60605e-10
1.04678e-09
-2.57598e-10
8.28434e-10
1.85385e-10
2.38508e-10
7.06657e-10
-7.51372e-10
1.26493e-09
-2.15023e-09
1.83289e-09
-3.95395e-09
2.3926e-09
-6.14954e-09
2.93231e-09
-8.71813e-09
3.44438e-09
-1.1637e-08
3.92398e-09
-1.48811e-08
4.36819e-09
-1.8424e-08
4.77544e-09
-2.22386e-08
5.1451e-09
-2.62978e-08
5.47724e-09
-3.05746e-08
5.7724e-09
-3.50429e-08
6.03152e-09
-3.9677e-08
6.25577e-09
-4.44526e-08
6.44653e-09
-4.93462e-08
6.60532e-09
-5.43354e-08
6.73374e-09
-5.9399e-08
6.83346e-09
-6.45173e-08
6.90619e-09
-6.96715e-08
6.95363e-09
-7.48443e-08
6.97751e-09
-8.00194e-08
6.97951e-09
-8.51819e-08
6.96131e-09
-9.0318e-08
6.92454e-09
-9.54152e-08
6.87077e-09
-1.00462e-07
6.80156e-09
-1.05448e-07
6.71837e-09
-1.10364e-07
6.62262e-09
-1.15201e-07
6.51567e-09
-1.19952e-07
6.39881e-09
-1.24611e-07
6.27326e-09
-1.29172e-07
6.14019e-09
-1.3363e-07
6.00066e-09
-1.3798e-07
5.85572e-09
-1.42221e-07
5.7063e-09
-1.46349e-07
5.5533e-09
-1.50361e-07
5.39755e-09
-1.54257e-07
5.23979e-09
-1.58035e-07
5.08072e-09
-1.61695e-07
4.92098e-09
-1.65236e-07
4.76115e-09
-1.6866e-07
4.60176e-09
-1.71966e-07
4.44325e-09
-1.75155e-07
4.28607e-09
-1.78229e-07
4.13056e-09
-1.81189e-07
3.97706e-09
-1.84037e-07
3.82584e-09
-1.86774e-07
3.67713e-09
-1.89403e-07
3.53112e-09
-1.91926e-07
3.38798e-09
-1.94344e-07
3.24781e-09
-1.96661e-07
3.11072e-09
-1.98877e-07
2.97675e-09
-2.00997e-07
2.84593e-09
-2.03021e-07
2.71826e-09
-2.04953e-07
2.59371e-09
-2.06795e-07
2.47223e-09
-2.08548e-07
2.35375e-09
-2.10214e-07
2.23817e-09
-2.11797e-07
2.12537e-09
-2.13298e-07
2.01523e-09
-2.14718e-07
1.9076e-09
-2.1606e-07
1.8023e-09
-2.17325e-07
1.69917e-09
-2.18514e-07
1.59801e-09
-2.19629e-07
1.49861e-09
-2.20671e-07
1.40077e-09
-2.21641e-07
1.30425e-09
-2.2254e-07
1.20881e-09
-2.23368e-07
1.11422e-09
-2.24126e-07
1.02022e-09
-2.24813e-07
9.26561e-10
-2.25431e-07
8.32966e-10
-2.25978e-07
7.3917e-10
-2.26456e-07
6.449e-10
-2.26862e-07
5.49877e-10
-2.27196e-07
4.53821e-10
-2.27457e-07
3.56448e-10
-2.27645e-07
2.57473e-10
-2.27757e-07
1.56612e-10
-2.27792e-07
5.35845e-11
-2.27749e-07
-5.18903e-11
-2.27624e-07
-1.6009e-10
-2.27417e-07
-2.71289e-10
-2.27124e-07
-3.85756e-10
-2.26743e-07
-5.0375e-10
-2.26272e-07
-6.25521e-10
-2.25706e-07
-7.5131e-10
-2.25044e-07
-8.81346e-10
-2.24281e-07
-1.01585e-09
-2.23415e-07
-1.15501e-09
-2.22442e-07
-1.29901e-09
-2.21358e-07
-1.44801e-09
-2.20159e-07
-1.60216e-09
-2.18841e-07
-1.76156e-09
-2.17401e-07
-1.92629e-09
-2.15835e-07
-2.09641e-09
-2.14138e-07
-2.27195e-09
-2.12307e-07
-2.45288e-09
-2.10337e-07
-2.63915e-09
-2.08226e-07
-2.83066e-09
-2.05968e-07
-3.02726e-09
-2.03562e-07
-3.22877e-09
-2.01002e-07
-3.43493e-09
-1.98286e-07
-3.64545e-09
-1.95412e-07
-3.85997e-09
-1.92376e-07
-4.07806e-09
-1.89176e-07
-4.29924e-09
-1.8581e-07
-4.52295e-09
-1.82278e-07
-4.74856e-09
-1.78578e-07
-4.97539e-09
-1.7471e-07
-5.20265e-09
-1.70675e-07
-5.42949e-09
-1.66473e-07
-5.655e-09
-1.62106e-07
-5.87815e-09
-1.57577e-07
-6.09786e-09
-1.5289e-07
-6.31296e-09
-1.48048e-07
-6.5222e-09
-1.43057e-07
-6.72426e-09
-1.37924e-07
-6.91773e-09
-1.32657e-07
-7.10114e-09
-1.27262e-07
-7.27292e-09
-1.21752e-07
-7.43148e-09
-1.16136e-07
-7.57512e-09
-1.10427e-07
-7.70212e-09
-1.04639e-07
-7.81068e-09
-9.8786e-08
-7.89898e-09
-9.28854e-08
-7.96516e-09
-8.69547e-08
-8.00732e-09
-8.10129e-08
-8.02357e-09
-7.50806e-08
-8.01199e-09
-6.91797e-08
-7.9707e-09
-6.33335e-08
-7.89781e-09
-5.75666e-08
-7.79151e-09
-5.19048e-08
-7.65002e-09
-4.63753e-08
-7.47164e-09
-4.10062e-08
-7.2548e-09
-3.58268e-08
-6.99806e-09
-3.08672e-08
-6.70017e-09
-2.61581e-08
-6.36011e-09
-2.17306e-08
-5.97717e-09
-1.7616e-08
-5.55104e-09
-1.38453e-08
-5.08197e-09
-1.04486e-08
-4.57093e-09
-7.45412e-09
-4.01991e-09
-4.8876e-09
-3.43232e-09
-2.77024e-09
-2.81363e-09
-1.11676e-09
-2.17232e-09
6.79418e-11
-1.52136e-09
7.935e-10
-8.80519e-10
1.09097e-09
-2.79982e-10
1.02271e-09
2.3435e-10
6.95317e-10
5.93371e-10
2.73087e-10
6.95304e-10
4.03898e-10
2.45828e-10
-6.05561e-10
5.63527e-10
-9.51463e-10
6.97901e-10
-6.94972e-10
4.74962e-10
-3.46576e-11
-2.24981e-10
8.85325e-10
-1.47781e-09
1.95948e-09
-3.32539e-09
3.11252e-09
-5.78428e-09
4.29179e-09
-8.8525e-09
5.46082e-09
-1.25147e-08
6.59451e-09
-1.67461e-08
7.6758e-09
-2.15154e-08
8.69331e-09
-2.6787e-08
9.63977e-09
-3.25224e-08
1.05108e-08
-3.86816e-08
1.13043e-08
-4.5224e-08
1.20196e-08
-5.21089e-08
1.26573e-08
-5.92963e-08
1.32189e-08
-6.6747e-08
1.37065e-08
-7.44232e-08
1.41227e-08
-8.22882e-08
1.44704e-08
-9.03074e-08
1.47529e-08
-9.84475e-08
1.49736e-08
-1.06677e-07
1.51359e-08
-1.14967e-07
1.52435e-08
-1.23289e-07
1.52998e-08
-1.31618e-07
1.53086e-08
-1.39931e-07
1.52733e-08
-1.48203e-07
1.51975e-08
-1.56417e-07
1.50844e-08
-1.64553e-07
1.49374e-08
-1.72594e-07
1.47596e-08
-1.80526e-07
1.45542e-08
-1.88334e-07
1.4324e-08
-1.96007e-07
1.40718e-08
-2.03534e-07
1.38003e-08
-2.10906e-07
1.35121e-08
-2.18115e-07
1.32094e-08
-2.25153e-07
1.28945e-08
-2.32017e-07
1.25696e-08
-2.387e-07
1.22364e-08
-2.45199e-07
1.18969e-08
-2.51512e-07
1.15527e-08
-2.57637e-07
1.12053e-08
-2.63572e-07
1.08561e-08
-2.69317e-07
1.05065e-08
-2.74873e-07
1.01575e-08
-2.8024e-07
9.81019e-09
-2.85419e-07
9.46552e-09
-2.90413e-07
9.12427e-09
-2.95223e-07
8.78718e-09
-2.99852e-07
8.45485e-09
-3.04303e-07
8.12782e-09
-3.08578e-07
7.80651e-09
-3.12682e-07
7.49128e-09
-3.16616e-07
7.18241e-09
-3.20385e-07
6.88009e-09
-3.23993e-07
6.58446e-09
-3.27443e-07
6.29559e-09
-3.30738e-07
6.01348e-09
-3.33882e-07
5.73808e-09
-3.3688e-07
5.46929e-09
-3.39733e-07
5.20696e-09
-3.42445e-07
4.95088e-09
-3.45021e-07
4.70081e-09
-3.47462e-07
4.45647e-09
-3.49772e-07
4.21754e-09
-3.51953e-07
3.98367e-09
-3.54009e-07
3.75446e-09
-3.5594e-07
3.5295e-09
-3.5775e-07
3.30836e-09
-3.5944e-07
3.09056e-09
-3.61011e-07
2.87562e-09
-3.62465e-07
2.66301e-09
-3.63803e-07
2.45221e-09
-3.65026e-07
2.24269e-09
-3.66133e-07
2.03386e-09
-3.67125e-07
1.82517e-09
-3.68002e-07
1.61601e-09
-3.68763e-07
1.4058e-09
-3.69407e-07
1.19393e-09
-3.69933e-07
9.7979e-10
-3.70339e-07
7.6277e-10
-3.70624e-07
5.4225e-10
-3.70785e-07
3.17615e-10
-3.7082e-07
8.82525e-11
-3.70725e-07
-1.46445e-10
-3.70498e-07
-3.87077e-10
-3.70135e-07
-6.34233e-10
-3.69633e-07
-8.88491e-10
-3.68986e-07
-1.15041e-09
-3.68191e-07
-1.42054e-09
-3.67243e-07
-1.69938e-09
-3.66137e-07
-1.98743e-09
-3.64867e-07
-2.28515e-09
-3.63429e-07
-2.59297e-09
-3.61817e-07
-2.91125e-09
-3.60025e-07
-3.24035e-09
-3.58047e-07
-3.58054e-09
-3.55876e-07
-3.93207e-09
-3.53507e-07
-4.29509e-09
-3.50934e-07
-4.66971e-09
-3.4815e-07
-5.05596e-09
-3.45149e-07
-5.45379e-09
-3.41925e-07
-5.86306e-09
-3.38472e-07
-6.28353e-09
-3.34785e-07
-6.71488e-09
-3.30857e-07
-7.15667e-09
-3.26683e-07
-7.60833e-09
-3.2226e-07
-8.06921e-09
-3.17581e-07
-8.53849e-09
-3.12644e-07
-9.01525e-09
-3.07445e-07
-9.4984e-09
-3.01981e-07
-9.98671e-09
-2.96251e-07
-1.04788e-08
-2.90253e-07
-1.09732e-08
-2.83987e-07
-1.14681e-08
-2.77455e-07
-1.19618e-08
-2.70658e-07
-1.24521e-08
-2.63599e-07
-1.29368e-08
-2.56284e-07
-1.34137e-08
-2.48716e-07
-1.38801e-08
-2.40905e-07
-1.43334e-08
-2.32859e-07
-1.47706e-08
-2.24588e-07
-1.51887e-08
-2.16104e-07
-1.55846e-08
-2.07423e-07
-1.59548e-08
-1.98558e-07
-1.62959e-08
-1.89529e-07
-1.66042e-08
-1.80355e-07
-1.68761e-08
-1.71058e-07
-1.71076e-08
-1.61662e-07
-1.72949e-08
-1.52193e-07
-1.7434e-08
-1.4268e-07
-1.75208e-08
-1.33152e-07
-1.75514e-08
-1.23642e-07
-1.75216e-08
-1.14186e-07
-1.74276e-08
-1.04818e-07
-1.72652e-08
-9.55788e-08
-1.70309e-08
-8.65079e-08
-1.67209e-08
-7.76479e-08
-1.63317e-08
-6.90423e-08
-1.58603e-08
-6.07365e-08
-1.53039e-08
-5.27765e-08
-1.46601e-08
-4.52094e-08
-1.39273e-08
-3.80822e-08
-1.31043e-08
-3.1442e-08
-1.21913e-08
-2.53345e-08
-1.11895e-08
-1.98034e-08
-1.0102e-08
-1.48894e-08
-8.93399e-09
-1.06276e-08
-7.69407e-09
-7.04616e-09
-6.39509e-09
-4.16241e-09
-5.05608e-09
-1.97891e-09
-3.70487e-09
-4.77595e-10
-2.38182e-09
3.87736e-10
-1.14528e-09
7.01217e-10
-7.9106e-11
5.961e-10
6.98476e-10
2.66885e-10
1.02447e-09
6.70793e-10
1.63785e-10
-7.69349e-10
2.64823e-10
-1.05249e-09
4.43642e-11
-4.74503e-10
-6.77968e-10
6.8768e-10
-2.02893e-09
2.23629e-09
-4.09175e-09
4.0223e-09
-6.91453e-09
5.9353e-09
-1.05178e-08
7.89505e-09
-1.49008e-08
9.84384e-09
-2.00467e-08
1.17405e-08
-2.59269e-08
1.3556e-08
-3.25039e-08
1.52703e-08
-3.97342e-08
1.68701e-08
-4.75703e-08
1.83469e-08
-5.59619e-08
1.9696e-08
-6.48577e-08
2.09154e-08
-7.42057e-08
2.20053e-08
-8.39544e-08
2.29676e-08
-9.4053e-08
2.38051e-08
-1.04452e-07
2.45219e-08
-1.15104e-07
2.51225e-08
-1.25963e-07
2.5612e-08
-1.36986e-07
2.59961e-08
-1.4813e-07
2.62803e-08
-1.59357e-07
2.64706e-08
-1.7063e-07
2.65729e-08
-1.81915e-07
2.65933e-08
-1.93179e-07
2.65376e-08
-2.04394e-07
2.64118e-08
-2.15531e-07
2.62216e-08
-2.26566e-07
2.59725e-08
-2.37476e-07
2.567e-08
-2.48241e-07
2.53192e-08
-2.58843e-07
2.49253e-08
-2.69264e-07
2.4493e-08
-2.7949e-07
2.40269e-08
-2.8951e-07
2.35313e-08
-2.9931e-07
2.30102e-08
-3.08884e-07
2.24676e-08
-3.18221e-07
2.1907e-08
-3.27316e-07
2.13318e-08
-3.36165e-07
2.07451e-08
-3.44762e-07
2.01499e-08
-3.53105e-07
1.95487e-08
-3.61193e-07
1.8944e-08
-3.69025e-07
1.8338e-08
-3.766e-07
1.77328e-08
-3.8392e-07
1.71301e-08
-3.90986e-07
1.65316e-08
-3.978e-07
1.59387e-08
-4.04366e-07
1.53527e-08
-4.10685e-07
1.47746e-08
-4.16763e-07
1.42053e-08
-4.22602e-07
1.36458e-08
-4.28207e-07
1.30965e-08
-4.33583e-07
1.25579e-08
-4.38733e-07
1.20305e-08
-4.43663e-07
1.15145e-08
-4.48378e-07
1.10099e-08
-4.52881e-07
1.05169e-08
-4.57178e-07
1.00354e-08
-4.61274e-07
9.5651e-09
-4.65173e-07
9.10588e-09
-4.6888e-07
8.65735e-09
-4.72398e-07
8.21912e-09
-4.75732e-07
7.79069e-09
-4.78886e-07
7.37152e-09
-4.81863e-07
6.96102e-09
-4.84667e-07
6.55851e-09
-4.87301e-07
6.16328e-09
-4.89767e-07
5.77458e-09
-4.92068e-07
5.39161e-09
-4.94206e-07
5.01351e-09
-4.96183e-07
4.63941e-09
-4.97999e-07
4.2684e-09
-4.99656e-07
3.89954e-09
-5.01154e-07
3.53186e-09
-5.02493e-07
3.16437e-09
-5.03673e-07
2.79606e-09
-5.04693e-07
2.4259e-09
-5.05552e-07
2.05286e-09
-5.06248e-07
1.67587e-09
-5.06779e-07
1.2939e-09
-5.07143e-07
9.0588e-10
-5.07336e-07
5.10749e-10
-5.07355e-07
1.07457e-10
-5.07197e-07
-3.05039e-10
-5.06856e-07
-7.27768e-10
-5.06328e-07
-1.16174e-09
-5.05609e-07
-1.60794e-09
-5.04692e-07
-2.06732e-09
-5.03572e-07
-2.54082e-09
-5.02242e-07
-3.0293e-09
-5.00696e-07
-3.53361e-09
-4.98926e-07
-4.05452e-09
-4.96927e-07
-4.59274e-09
-4.94689e-07
-5.14891e-09
-4.92206e-07
-5.72361e-09
-4.89469e-07
-6.31731e-09
-4.86471e-07
-6.93039e-09
-4.83203e-07
-7.56312e-09
-4.79657e-07
-8.21565e-09
-4.75825e-07
-8.88801e-09
-4.71698e-07
-9.58009e-09
-4.6727e-07
-1.02916e-08
-4.62531e-07
-1.10222e-08
-4.57475e-07
-1.17712e-08
-4.52094e-07
-1.25379e-08
-4.46381e-07
-1.33212e-08
-4.4033e-07
-1.412e-08
-4.33936e-07
-1.49329e-08
-4.27193e-07
-1.57582e-08
-4.20097e-07
-1.65941e-08
-4.12645e-07
-1.74384e-08
-4.04835e-07
-1.82887e-08
-3.96666e-07
-1.91424e-08
-3.88138e-07
-1.99965e-08
-3.79252e-07
-2.08479e-08
-3.70011e-07
-2.16929e-08
-3.6042e-07
-2.25278e-08
-3.50485e-07
-2.33485e-08
-3.40215e-07
-2.41506e-08
-3.29619e-07
-2.49295e-08
-3.18709e-07
-2.56802e-08
-3.075e-07
-2.63974e-08
-2.96009e-07
-2.70757e-08
-2.84255e-07
-2.77093e-08
-2.72258e-07
-2.82923e-08
-2.60044e-07
-2.88185e-08
-2.47639e-07
-2.92815e-08
-2.35071e-07
-2.96748e-08
-2.22375e-07
-2.99917e-08
-2.09583e-07
-3.02255e-08
-1.96735e-07
-3.03693e-08
-1.8387e-07
-3.04163e-08
-1.71032e-07
-3.03599e-08
-1.58266e-07
-3.01932e-08
-1.45621e-07
-2.99098e-08
-1.33149e-07
-2.95033e-08
-1.20902e-07
-2.89679e-08
-1.08936e-07
-2.8298e-08
-9.73073e-08
-2.74887e-08
-8.60757e-08
-2.65355e-08
-7.53007e-08
-2.54352e-08
-6.50427e-08
-2.41853e-08
-5.5362e-08
-2.2785e-08
-4.63181e-08
-2.12352e-08
-3.79686e-08
-1.9539e-08
-3.03677e-08
-1.77028e-08
-2.35649e-08
-1.57368e-08
-1.76025e-08
-1.36565e-08
-1.25129e-08
-1.14847e-08
-8.3152e-09
-9.25378e-09
-5.01046e-09
-7.00963e-09
-2.57606e-09
-4.81623e-09
-9.58713e-10
-2.76263e-09
-6.60044e-11
-9.71784e-10
2.42984e-10
3.8951e-10
1.69004e-10
1.09843e-09
8.39789e-10
3.77717e-11
-8.07122e-10
-1.74113e-10
-8.40607e-10
-8.70469e-10
2.21861e-10
-2.22138e-09
2.0386e-09
-4.34862e-09
4.36354e-09
-7.33375e-09
7.00743e-09
-1.12247e-08
9.82625e-09
-1.6042e-08
1.27124e-08
-2.17842e-08
1.5586e-08
-2.84325e-08
1.83888e-08
-3.59547e-08
2.10782e-08
-4.43085e-08
2.36241e-08
-5.34443e-08
2.60059e-08
-6.33073e-08
2.82098e-08
-7.3839e-08
3.02278e-08
-8.49794e-08
3.20558e-08
-9.66672e-08
3.36931e-08
-1.08841e-07
3.51415e-08
-1.21441e-07
3.64049e-08
-1.34407e-07
3.74883e-08
-1.47683e-07
3.83981e-08
-1.61212e-07
3.91416e-08
-1.74943e-07
3.97265e-08
-1.88824e-07
4.01613e-08
-2.02808e-07
4.04544e-08
-2.16849e-07
4.06146e-08
-2.30907e-07
4.06507e-08
-2.44941e-07
4.05716e-08
-2.58915e-07
4.03859e-08
-2.72795e-07
4.01021e-08
-2.86552e-07
3.97287e-08
-3.00155e-07
3.92738e-08
-3.13581e-07
3.87452e-08
-3.26806e-07
3.81504e-08
-3.3981e-07
3.74967e-08
-3.52574e-07
3.67911e-08
-3.65083e-07
3.604e-08
-3.77322e-07
3.52496e-08
-3.8928e-07
3.44258e-08
-4.00947e-07
3.3574e-08
-4.12315e-07
3.26994e-08
-4.23377e-07
3.18068e-08
-4.34127e-07
3.09005e-08
-4.44563e-07
2.99845e-08
-4.54682e-07
2.90628e-08
-4.64482e-07
2.81385e-08
-4.73965e-07
2.72149e-08
-4.83129e-07
2.62946e-08
-4.91978e-07
2.53802e-08
-5.00513e-07
2.4474e-08
-5.08738e-07
2.35777e-08
-5.16657e-07
2.26932e-08
-5.24273e-07
2.18217e-08
-5.31592e-07
2.09646e-08
-5.38618e-07
2.01228e-08
-5.45358e-07
1.92971e-08
-5.51815e-07
1.84881e-08
-5.57997e-07
1.76961e-08
-5.63908e-07
1.69214e-08
-5.69555e-07
1.6164e-08
-5.74944e-07
1.54238e-08
-5.80079e-07
1.47007e-08
-5.84968e-07
1.39941e-08
-5.89614e-07
1.33037e-08
-5.94024e-07
1.26288e-08
-5.98201e-07
1.19686e-08
-6.02152e-07
1.13225e-08
-6.05881e-07
1.06894e-08
-6.09391e-07
1.00684e-08
-6.12686e-07
9.45835e-09
-6.15769e-07
8.85817e-09
-6.18644e-07
8.26661e-09
-6.21313e-07
7.68241e-09
-6.23778e-07
7.10424e-09
-6.2604e-07
6.5307e-09
-6.28101e-07
5.96038e-09
-6.29961e-07
5.39181e-09
-6.3162e-07
4.82349e-09
-6.33078e-07
4.25389e-09
-6.34334e-07
3.68146e-09
-6.35385e-07
3.10461e-09
-6.36231e-07
2.52177e-09
-6.36869e-07
1.93132e-09
-6.37295e-07
1.33169e-09
-6.37505e-07
7.21249e-10
-6.37496e-07
9.84251e-11
-6.37263e-07
-5.38364e-10
-6.368e-07
-1.19067e-09
-6.36102e-07
-1.86002e-09
-6.35162e-07
-2.54789e-09
-6.33973e-07
-3.25572e-09
-6.32529e-07
-3.98491e-09
-6.30822e-07
-4.73678e-09
-6.28843e-07
-5.51256e-09
-6.26584e-07
-6.31343e-09
-6.24036e-07
-7.14044e-09
-6.2119e-07
-7.99455e-09
-6.18037e-07
-8.8766e-09
-6.14567e-07
-9.78729e-09
-6.10771e-07
-1.07272e-08
-6.06637e-07
-1.16966e-08
-6.02157e-07
-1.26958e-08
-5.9732e-07
-1.37248e-08
-5.92117e-07
-1.47834e-08
-5.86537e-07
-1.58712e-08
-5.80572e-07
-1.69874e-08
-5.74212e-07
-1.81312e-08
-5.67449e-07
-1.93013e-08
-5.60274e-07
-2.04962e-08
-5.52679e-07
-2.17141e-08
-5.4466e-07
-2.29528e-08
-5.36208e-07
-2.42098e-08
-5.2732e-07
-2.54821e-08
-5.17992e-07
-2.67667e-08
-5.08221e-07
-2.80597e-08
-4.98006e-07
-2.93571e-08
-4.87348e-07
-3.06545e-08
-4.76249e-07
-3.19469e-08
-4.64713e-07
-3.32291e-08
-4.52745e-07
-3.44951e-08
-4.40355e-07
-3.5739e-08
-4.27552e-07
-3.69539e-08
-4.14348e-07
-3.81328e-08
-4.0076e-07
-3.92682e-08
-3.86805e-07
-4.03523e-08
-3.72504e-07
-4.13768e-08
-3.57881e-07
-4.23329e-08
-3.42961e-07
-4.32118e-08
-3.27776e-07
-4.40041e-08
-3.12357e-07
-4.47002e-08
-2.96741e-07
-4.52904e-08
-2.80968e-07
-4.57647e-08
-2.65081e-07
-4.6113e-08
-2.49125e-07
-4.63251e-08
-2.3315e-07
-4.6391e-08
-2.1721e-07
-4.63007e-08
-2.01359e-07
-4.60442e-08
-1.85656e-07
-4.5612e-08
-1.70165e-07
-4.4995e-08
-1.54948e-07
-4.41846e-08
-1.40073e-07
-4.31729e-08
-1.25609e-07
-4.19529e-08
-1.11626e-07
-4.05188e-08
-9.81948e-08
-3.88661e-08
-8.53878e-08
-3.69923e-08
-7.3276e-08
-3.48968e-08
-6.19291e-08
-3.25821e-08
-5.14141e-08
-3.0054e-08
-4.17936e-08
-2.73233e-08
-3.31241e-08
-2.44063e-08
-2.54535e-08
-2.13271e-08
-1.88181e-08
-1.81201e-08
-1.3239e-08
-1.48328e-08
-8.71816e-09
-1.15305e-08
-5.23274e-09
-8.30167e-09
-2.7295e-09
-5.26588e-09
-1.11795e-09
-2.58333e-09
-2.63086e-10
-4.65332e-10
2.32765e-11
8.12073e-10
8.63056e-10
-1.10583e-10
-6.96535e-10
-6.93969e-10
-2.57224e-10
-1.946e-09
1.47389e-09
-4.0145e-09
4.10711e-09
-7.00727e-09
7.35633e-09
-1.09971e-08
1.09973e-08
-1.60264e-08
1.48556e-08
-2.21119e-08
1.87979e-08
-2.9249e-08
2.27231e-08
-3.74155e-08
2.65553e-08
-4.65755e-08
3.02381e-08
-5.66821e-08
3.37307e-08
-6.76804e-08
3.70042e-08
-7.95093e-08
4.00388e-08
-9.21039e-08
4.28224e-08
-1.05397e-07
4.53484e-08
-1.19318e-07
4.76147e-08
-1.338e-07
4.96229e-08
-1.48772e-07
5.13773e-08
-1.64168e-07
5.28843e-08
-1.79922e-07
5.41519e-08
-1.9597e-07
5.51896e-08
-2.12251e-07
5.60078e-08
-2.28707e-07
5.66175e-08
-2.45283e-07
5.70303e-08
-2.61927e-07
5.72579e-08
-2.78588e-07
5.73125e-08
-2.95223e-07
5.7206e-08
-3.11787e-07
5.69504e-08
-3.28243e-07
5.65574e-08
-3.44553e-07
5.60386e-08
-3.60684e-07
5.54053e-08
-3.76607e-07
5.46682e-08
-3.92295e-07
5.38379e-08
-4.07722e-07
5.29245e-08
-4.22869e-07
5.19375e-08
-4.37715e-07
5.08861e-08
-4.52244e-07
4.9779e-08
-4.66443e-07
4.86243e-08
-4.80298e-07
4.74297e-08
-4.93801e-07
4.62023e-08
-5.06943e-07
4.49489e-08
-5.19718e-07
4.36756e-08
-5.32122e-07
4.23882e-08
-5.44151e-07
4.10919e-08
-5.55804e-07
3.97915e-08
-5.67081e-07
3.84913e-08
-5.77981e-07
3.71954e-08
-5.88508e-07
3.59071e-08
-5.98664e-07
3.46296e-08
-6.08452e-07
3.33657e-08
-6.17877e-07
3.21178e-08
-6.26943e-07
3.08878e-08
-6.35656e-07
2.96775e-08
-6.44021e-07
2.84884e-08
-6.52045e-07
2.73214e-08
-6.59735e-07
2.61774e-08
-6.67096e-07
2.50571e-08
-6.74135e-07
2.39608e-08
-6.8086e-07
2.28884e-08
-6.87276e-07
2.184e-08
-6.9339e-07
2.08153e-08
-6.9921e-07
1.98136e-08
-7.04741e-07
1.88344e-08
-7.09989e-07
1.78767e-08
-7.1496e-07
1.69397e-08
-7.19659e-07
1.60221e-08
-7.24092e-07
1.51227e-08
-7.28264e-07
1.42401e-08
-7.32179e-07
1.33728e-08
-7.3584e-07
1.25193e-08
-7.39251e-07
1.16777e-08
-7.42415e-07
1.08464e-08
-7.45334e-07
1.00234e-08
-7.4801e-07
9.20693e-09
-7.50445e-07
8.39488e-09
-7.52638e-07
7.58524e-09
-7.54591e-07
6.7759e-09
-7.56301e-07
5.96474e-09
-7.5777e-07
5.14957e-09
-7.58993e-07
4.32821e-09
-7.5997e-07
3.49842e-09
-7.60696e-07
2.65798e-09
-7.61169e-07
1.80466e-09
-7.61384e-07
9.36219e-10
-7.61336e-07
5.04454e-11
-7.6102e-07
-8.54857e-10
-7.60429e-07
-1.78185e-09
-7.59556e-07
-2.73266e-09
-7.58395e-07
-3.70934e-09
-7.56936e-07
-4.7139e-09
-7.55173e-07
-5.74826e-09
-7.53096e-07
-6.81424e-09
-7.50695e-07
-7.91358e-09
-7.4796e-07
-9.04788e-09
-7.44882e-07
-1.02186e-08
-7.4145e-07
-1.1427e-08
-7.37652e-07
-1.26744e-08
-7.33478e-07
-1.39615e-08
-7.28916e-07
-1.52892e-08
-7.23954e-07
-1.6658e-08
-7.18582e-07
-1.80681e-08
-7.12787e-07
-1.95195e-08
-7.06559e-07
-2.10119e-08
-6.99885e-07
-2.25446e-08
-6.92756e-07
-2.41167e-08
-6.8516e-07
-2.57268e-08
-6.77089e-07
-2.73732e-08
-6.68531e-07
-2.90537e-08
-6.5948e-07
-3.07657e-08
-6.49926e-07
-3.25061e-08
-6.39865e-07
-3.42714e-08
-6.29289e-07
-3.60575e-08
-6.18196e-07
-3.78599e-08
-6.06582e-07
-3.96734e-08
-5.94447e-07
-4.14922e-08
-5.81792e-07
-4.33101e-08
-5.68618e-07
-4.51203e-08
-5.54932e-07
-4.69152e-08
-5.4074e-07
-4.86868e-08
-5.26053e-07
-5.04265e-08
-5.10882e-07
-5.21248e-08
-4.95243e-07
-5.37721e-08
-4.79153e-07
-5.53577e-08
-4.62635e-07
-5.68708e-08
-4.45712e-07
-5.82998e-08
-4.28412e-07
-5.96327e-08
-4.10767e-07
-6.08571e-08
-3.92811e-07
-6.19599e-08
-3.74583e-07
-6.2928e-08
-3.56126e-07
-6.37478e-08
-3.37485e-07
-6.44056e-08
-3.1871e-07
-6.48874e-08
-2.99856e-07
-6.51794e-08
-2.80979e-07
-6.52676e-08
-2.62142e-07
-6.51384e-08
-2.43408e-07
-6.47782e-08
-2.24845e-07
-6.41743e-08
-2.06526e-07
-6.33143e-08
-1.88524e-07
-6.21868e-08
-1.70915e-07
-6.07813e-08
-1.53779e-07
-5.90888e-08
-1.37196e-07
-5.71019e-08
-1.21247e-07
-5.48154e-08
-1.06013e-07
-5.22264e-08
-9.15741e-08
-4.93355e-08
-7.8009e-08
-4.61471e-08
-6.53925e-08
-4.26706e-08
-5.37941e-08
-3.89216e-08
-4.32766e-08
-3.49239e-08
-3.38927e-08
-3.0711e-08
-2.56831e-08
-2.63297e-08
-1.86727e-08
-2.18433e-08
-1.28665e-08
-1.73366e-08
-8.246e-09
-1.29222e-08
-4.76402e-09
-8.74789e-09
-2.33989e-09
-5.00747e-09
-8.54616e-10
-1.95059e-09
-1.45831e-10
1.03301e-10
7.17222e-10
-2.68838e-10
-4.2769e-10
-1.25596e-09
7.29902e-10
-3.11208e-09
3.33001e-09
-5.95548e-09
6.95051e-09
-9.87361e-09
1.12745e-08
-1.49251e-08
1.60487e-08
-2.11424e-08
2.10729e-08
-2.8535e-08
2.61905e-08
-3.70926e-08
3.12807e-08
-4.67882e-08
3.62508e-08
-5.7581e-08
4.1031e-08
-6.94195e-08
4.55692e-08
-8.22435e-08
4.98282e-08
-9.59865e-08
5.37818e-08
-1.10578e-07
5.74134e-08
-1.25943e-07
6.07134e-08
-1.42006e-07
6.36781e-08
-1.58691e-07
6.63084e-08
-1.75923e-07
6.86091e-08
-1.93627e-07
7.05877e-08
-2.11729e-07
7.22539e-08
-2.30159e-07
7.36196e-08
-2.48848e-07
7.46976e-08
-2.67733e-07
7.5502e-08
-2.8675e-07
7.60474e-08
-3.05841e-07
7.63492e-08
-3.24951e-07
7.64228e-08
-3.44029e-07
7.62837e-08
-3.63026e-07
7.59474e-08
-3.81898e-07
7.54293e-08
-4.00604e-07
7.47445e-08
-4.19106e-07
7.39076e-08
-4.37371e-07
7.29329e-08
-4.55367e-07
7.18341e-08
-4.73067e-07
7.06246e-08
-4.90447e-07
6.93169e-08
-5.07484e-07
6.79232e-08
-5.2416e-07
6.64548e-08
-5.40458e-07
6.49226e-08
-5.56365e-07
6.33367e-08
-5.71869e-07
6.17066e-08
-5.86961e-07
6.00411e-08
-6.01634e-07
5.83486e-08
-6.15883e-07
5.66366e-08
-6.29703e-07
5.4912e-08
-6.43093e-07
5.31814e-08
-6.56052e-07
5.14503e-08
-6.68581e-07
4.97242e-08
-6.80681e-07
4.80077e-08
-6.92357e-07
4.63049e-08
-7.0361e-07
4.46196e-08
-7.14447e-07
4.29549e-08
-7.24873e-07
4.13135e-08
-7.34893e-07
3.96978e-08
-7.44515e-07
3.81097e-08
-7.53744e-07
3.65506e-08
-7.62588e-07
3.50217e-08
-7.71055e-07
3.35238e-08
-7.79152e-07
3.20574e-08
-7.86886e-07
3.06225e-08
-7.94265e-07
2.92192e-08
-8.01297e-07
2.78469e-08
-8.07988e-07
2.6505e-08
-8.14346e-07
2.51927e-08
-8.20378e-07
2.39088e-08
-8.26091e-07
2.2652e-08
-8.31489e-07
2.14209e-08
-8.36581e-07
2.02138e-08
-8.41369e-07
1.90289e-08
-8.45861e-07
1.78641e-08
-8.50059e-07
1.67174e-08
-8.53968e-07
1.55865e-08
-8.5759e-07
1.44692e-08
-8.6093e-07
1.33628e-08
-8.63988e-07
1.22649e-08
-8.66766e-07
1.11729e-08
-8.69265e-07
1.0084e-08
-8.71484e-07
8.99551e-09
-8.73424e-07
7.90454e-09
-8.75083e-07
6.80825e-09
-8.76458e-07
5.70373e-09
-8.77548e-07
4.58804e-09
-8.78348e-07
3.45824e-09
-8.78855e-07
2.31139e-09
-8.79063e-07
1.14453e-09
-8.78967e-07
-4.52447e-11
-8.78561e-07
-1.26084e-09
-8.77838e-07
-2.5051e-09
-8.7679e-07
-3.78082e-09
-8.75409e-07
-5.09071e-09
-8.73685e-07
-6.43741e-09
-8.7161e-07
-7.82342e-09
-8.69173e-07
-9.25116e-09
-8.66364e-07
-1.07229e-08
-8.63171e-07
-1.22407e-08
-8.59583e-07
-1.38065e-08
-8.55588e-07
-1.54219e-08
-8.51174e-07
-1.70886e-08
-8.46328e-07
-1.88076e-08
-8.41037e-07
-2.058e-08
-8.35289e-07
-2.24063e-08
-8.2907e-07
-2.4287e-08
-8.22367e-07
-2.62218e-08
-8.15169e-07
-2.82103e-08
-8.07462e-07
-3.02517e-08
-7.99234e-07
-3.23447e-08
-7.90473e-07
-3.44873e-08
-7.81169e-07
-3.66772e-08
-7.71311e-07
-3.89116e-08
-7.6089e-07
-4.1187e-08
-7.49897e-07
-4.34992e-08
-7.38325e-07
-4.58436e-08
-7.26168e-07
-4.82146e-08
-7.13421e-07
-5.06063e-08
-7.00083e-07
-5.30118e-08
-6.86152e-07
-5.54235e-08
-6.71629e-07
-5.78331e-08
-6.56518e-07
-6.02315e-08
-6.40824e-07
-6.26088e-08
-6.24556e-07
-6.49544e-08
-6.07726e-07
-6.72568e-08
-5.90347e-07
-6.95038e-08
-5.72437e-07
-7.16822e-08
-5.54016e-07
-7.37785e-08
-5.35109e-07
-7.57781e-08
-5.15743e-07
-7.76658e-08
-4.9595e-07
-7.94259e-08
-4.75765e-07
-8.10419e-08
-4.55228e-07
-8.24969e-08
-4.34382e-07
-8.37736e-08
-4.13276e-07
-8.48543e-08
-3.9196e-07
-8.57209e-08
-3.70493e-07
-8.63554e-08
-3.48932e-07
-8.67396e-08
-3.27345e-07
-8.68554e-08
-3.05798e-07
-8.66852e-08
-2.84364e-07
-8.62117e-08
-2.6312e-07
-8.54183e-08
-2.42145e-07
-8.42892e-08
-2.21522e-07
-8.281e-08
-2.01336e-07
-8.09677e-08
-1.81673e-07
-7.87511e-08
-1.62624e-07
-7.61513e-08
-1.44277e-07
-7.31623e-08
-1.26722e-07
-6.97816e-08
-1.10047e-07
-6.60107e-08
-9.43372e-08
-6.18567e-08
-7.96749e-08
-5.73329e-08
-6.6136e-08
-5.24606e-08
-5.37888e-08
-4.7271e-08
-4.26918e-08
-4.1808e-08
-3.28906e-08
-3.61308e-08
-2.44155e-08
-3.03184e-08
-1.72779e-08
-2.44743e-08
-1.1467e-08
-1.8733e-08
-6.9468e-09
-1.32681e-08
-3.65237e-09
-8.30191e-09
-1.48779e-09
-4.11518e-09
-3.24331e-10
-1.06016e-09
3.92893e-10
-4.29732e-10
2.0489e-12
-1.83523e-09
2.13541e-09
-4.3211e-09
5.81588e-09
-7.97243e-09
1.06018e-08
-1.28522e-08
1.61543e-08
-1.90011e-08
2.21976e-08
-2.64381e-08
2.85099e-08
-3.51626e-08
3.4915e-08
-4.51561e-08
4.12743e-08
-5.63852e-08
4.74799e-08
-6.88031e-08
5.3449e-08
-8.2353e-08
5.91191e-08
-9.69694e-08
6.44445e-08
-1.1258e-07
6.93927e-08
-1.29109e-07
7.39422e-08
-1.46476e-07
7.80804e-08
-1.646e-07
8.18016e-08
-1.83397e-07
8.51062e-08
-2.02787e-07
8.7999e-08
-2.22688e-07
9.04887e-08
-2.43021e-07
9.25869e-08
-2.63709e-07
9.43075e-08
-2.84678e-07
9.56661e-08
-3.05856e-07
9.668e-08
-3.27176e-07
9.73672e-08
-3.48573e-07
9.77464e-08
-3.69987e-07
9.78369e-08
-3.91361e-07
9.7658e-08
-4.12643e-07
9.7229e-08
-4.33783e-07
9.65692e-08
-4.54735e-07
9.56974e-08
-4.7546e-07
9.46321e-08
-4.95918e-07
9.33912e-08
-5.16076e-07
9.19922e-08
-5.35904e-07
9.04517e-08
-5.55373e-07
8.87858e-08
-5.74459e-07
8.70097e-08
-5.93142e-07
8.51379e-08
-6.11404e-07
8.31842e-08
-6.29228e-07
8.11613e-08
-6.46603e-07
7.90814e-08
-6.63518e-07
7.69558e-08
-6.79964e-07
7.47949e-08
-6.95936e-07
7.26084e-08
-7.11429e-07
7.04052e-08
-7.26441e-07
6.81935e-08
-7.40971e-07
6.59807e-08