/*--------------------------------*- C++ -*----------------------------------*\
  =========                 |
  \\      /  F ield         | OpenFOAM: The Open Source CFD Toolbox
   \\    /   O peration     | Website:  https://openfoam.org
    \\  /    A nd           | Version:  7
     \\/     M anipulation  |
\*---------------------------------------------------------------------------*/
FoamFile
{
    version     2.0;
    format      ascii;
    class       volVectorField;
    location    "0.325";
    object      U;
}
// * * * * * * * * * * * * * * * * * * * * * * * * * * * * * * * * * * * * * //

dimensions      [0 1 -1 0 0 0 0];

internalField   nonuniform List<vector> 
12800
(
(8.33013e-06 -8.31873e-06 0)
(3.70971e-05 -1.85336e-05 0)
(7.85458e-05 -1.97118e-05 0)
(0.000113261 -1.53545e-05 0)
(0.000130007 -8.312e-06 0)
(0.000123896 -1.39059e-07 0)
(9.2782e-05 8.34367e-06 0)
(3.60509e-05 1.66963e-05 0)
(-4.59399e-05 2.46859e-05 0)
(-0.000152243 3.21929e-05 0)
(-0.000281558 3.91576e-05 0)
(-0.000432379 4.5555e-05 0)
(-0.000603085 5.13798e-05 0)
(-0.000791997 5.66387e-05 0)
(-0.000997425 6.13456e-05 0)
(-0.00121769 6.55192e-05 0)
(-0.00145115 6.91812e-05 0)
(-0.00169622 7.23552e-05 0)
(-0.00195135 7.50659e-05 0)
(-0.00221509 7.73386e-05 0)
(-0.00248602 7.91989e-05 0)
(-0.00276282 8.06724e-05 0)
(-0.00304425 8.17843e-05 0)
(-0.00332913 8.25595e-05 0)
(-0.00361637 8.30224e-05 0)
(-0.00390493 8.31967e-05 0)
(-0.00419387 8.31056e-05 0)
(-0.00448232 8.27712e-05 0)
(-0.00476948 8.22151e-05 0)
(-0.0050546 8.14577e-05 0)
(-0.00533702 8.05189e-05 0)
(-0.00561614 7.94173e-05 0)
(-0.00589141 7.81708e-05 0)
(-0.00616234 7.67964e-05 0)
(-0.00642852 7.531e-05 0)
(-0.00668956 7.37267e-05 0)
(-0.00694513 7.20605e-05 0)
(-0.00719496 7.03247e-05 0)
(-0.00743881 6.85315e-05 0)
(-0.00767649 6.66925e-05 0)
(-0.00790783 6.4818e-05 0)
(-0.00813271 6.29179e-05 0)
(-0.00835106 6.10011e-05 0)
(-0.0085628 5.90757e-05 0)
(-0.00876791 5.71491e-05 0)
(-0.00896638 5.52279e-05 0)
(-0.00915822 5.33181e-05 0)
(-0.00934347 5.14251e-05 0)
(-0.00952218 4.95536e-05 0)
(-0.00969443 4.77076e-05 0)
(-0.00986029 4.58908e-05 0)
(-0.0100199 4.4106e-05 0)
(-0.0101733 4.23559e-05 0)
(-0.0103206 4.06425e-05 0)
(-0.010462 3.89673e-05 0)
(-0.0105975 3.73315e-05 0)
(-0.0107274 3.5736e-05 0)
(-0.0108517 3.41811e-05 0)
(-0.0109705 3.26669e-05 0)
(-0.0110841 3.11933e-05 0)
(-0.0111925 2.97596e-05 0)
(-0.0112959 2.8365e-05 0)
(-0.0113944 2.70086e-05 0)
(-0.0114882 2.56889e-05 0)
(-0.0115773 2.44044e-05 0)
(-0.0116618 2.31535e-05 0)
(-0.0117419 2.19342e-05 0)
(-0.0118177 2.07445e-05 0)
(-0.0118893 1.9582e-05 0)
(-0.0119567 1.84444e-05 0)
(-0.0120201 1.7329e-05 0)
(-0.0120794 1.62332e-05 0)
(-0.0121349 1.51542e-05 0)
(-0.0121864 1.40892e-05 0)
(-0.0122341 1.30351e-05 0)
(-0.012278 1.19888e-05 0)
(-0.0123181 1.09471e-05 0)
(-0.0123545 9.90669e-06 0)
(-0.012387 8.86442e-06 0)
(-0.0124158 7.81691e-06 0)
(-0.0124407 6.7607e-06 0)
(-0.0124618 5.69225e-06 0)
(-0.012479 4.60805e-06 0)
(-0.0124922 3.50463e-06 0)
(-0.0125014 2.37856e-06 0)
(-0.0125064 1.22635e-06 0)
(-0.0125073 4.44656e-08 0)
(-0.0125038 -1.17064e-06 0)
(-0.0124958 -2.42244e-06 0)
(-0.0124833 -3.71426e-06 0)
(-0.0124661 -5.04935e-06 0)
(-0.012444 -6.43088e-06 0)
(-0.0124168 -7.86199e-06 0)
(-0.0123845 -9.3457e-06 0)
(-0.0123467 -1.08849e-05 0)
(-0.0123034 -1.24821e-05 0)
(-0.0122543 -1.41398e-05 0)
(-0.0121992 -1.58602e-05 0)
(-0.0121379 -1.76452e-05 0)
(-0.0120702 -1.94965e-05 0)
(-0.0119958 -2.14156e-05 0)
(-0.0119145 -2.34033e-05 0)
(-0.0118262 -2.54603e-05 0)
(-0.0117305 -2.75867e-05 0)
(-0.0116272 -2.97822e-05 0)
(-0.0115162 -3.2046e-05 0)
(-0.0113971 -3.43769e-05 0)
(-0.0112698 -3.67727e-05 0)
(-0.0111341 -3.92311e-05 0)
(-0.0109897 -4.17486e-05 0)
(-0.0108365 -4.43213e-05 0)
(-0.0106744 -4.69445e-05 0)
(-0.0105031 -4.96127e-05 0)
(-0.0103226 -5.23194e-05 0)
(-0.0101327 -5.50574e-05 0)
(-0.00993334 -5.78185e-05 0)
(-0.00972452 -6.05937e-05 0)
(-0.00950622 -6.33727e-05 0)
(-0.00927845 -6.61445e-05 0)
(-0.00904127 -6.8897e-05 0)
(-0.0087948 -7.16169e-05 0)
(-0.0085392 -7.42901e-05 0)
(-0.00827466 -7.69013e-05 0)
(-0.00800145 -7.94343e-05 0)
(-0.00771988 -8.18716e-05 0)
(-0.00743033 -8.41949e-05 0)
(-0.00713325 -8.63849e-05 0)
(-0.00682914 -8.84213e-05 0)
(-0.00651858 -9.02829e-05 0)
(-0.00620222 -9.19477e-05 0)
(-0.00588078 -9.33928e-05 0)
(-0.00555506 -9.45948e-05 0)
(-0.00522595 -9.55295e-05 0)
(-0.00489441 -9.6172e-05 0)
(-0.00456147 -9.64972e-05 0)
(-0.00422826 -9.64795e-05 0)
(-0.00389599 -9.60932e-05 0)
(-0.00356595 -9.53121e-05 0)
(-0.00323951 -9.41101e-05 0)
(-0.00291812 -9.24612e-05 0)
(-0.00260331 -9.03397e-05 0)
(-0.00229668 -8.77202e-05 0)
(-0.00199992 -8.45778e-05 0)
(-0.00171476 -8.08884e-05 0)
(-0.001443 -7.66289e-05 0)
(-0.00118652 -7.17776e-05 0)
(-0.000947183 -6.63154e-05 0)
(-0.000726926 -6.02262e-05 0)
(-0.000527665 -5.34983e-05 0)
(-0.000351295 -4.61279e-05 0)
(-0.000199639 -3.81229e-05 0)
(-7.43873e-05 -2.95116e-05 0)
(2.30021e-05 -2.03581e-05 0)
(9.14557e-05 -1.07912e-05 0)
(0.000130544 -1.06121e-06 0)
(0.000140898 8.35325e-06 0)
(0.000124835 1.6549e-05 0)
(8.77171e-05 2.17931e-05 0)
(4.20422e-05 2.08637e-05 0)
(9.63304e-06 9.63332e-06 0)
(1.85575e-05 -3.70821e-05 0)
(7.03686e-05 -7.02959e-05 0)
(0.000132076 -6.77594e-05 0)
(0.000170185 -4.20917e-05 0)
(0.000163414 -3.15517e-06 0)
(0.000100328 4.27158e-05 0)
(-2.53384e-05 9.15526e-05 0)
(-0.000216324 0.000140874 0)
(-0.000472839 0.000189134 0)
(-0.000793379 0.000235372 0)
(-0.0011753 0.000278994 0)
(-0.00161521 0.000319647 0)
(-0.00210924 0.000357134 0)
(-0.00265324 0.000391366 0)
(-0.00324288 0.000422325 0)
(-0.00387383 0.000450047 0)
(-0.00454175 0.000474602 0)
(-0.00524236 0.000496089 0)
(-0.00597154 0.000514622 0)
(-0.00672526 0.000530332 0)
(-0.00749969 0.000543355 0)
(-0.00829116 0.000553836 0)
(-0.00909619 0.000561921 0)
(-0.0099115 0.000567759 0)
(-0.010734 0.000571497 0)
(-0.0115608 0.000573282 0)
(-0.0123893 0.00057326 0)
(-0.0132169 0.000571572 0)
(-0.0140413 0.000568355 0)
(-0.0148604 0.000563742 0)
(-0.0156724 0.000557864 0)
(-0.0164754 0.000550842 0)
(-0.0172678 0.000542796 0)
(-0.0180484 0.000533839 0)
(-0.0188157 0.000524077 0)
(-0.0195688 0.000513612 0)
(-0.0203066 0.00050254 0)
(-0.0210282 0.00049095 0)
(-0.0217331 0.000478927 0)
(-0.0224205 0.00046655 0)
(-0.0230901 0.00045389 0)
(-0.0237414 0.000441017 0)
(-0.0243741 0.000427991 0)
(-0.024988 0.000414869 0)
(-0.0255831 0.000401705 0)
(-0.0261592 0.000388544 0)
(-0.0267163 0.00037543 0)
(-0.0272546 0.000362399 0)
(-0.0277742 0.000349487 0)
(-0.0282752 0.000336723 0)
(-0.0287579 0.000324133 0)
(-0.0292225 0.000311739 0)
(-0.0296692 0.000299559 0)
(-0.0300984 0.000287609 0)
(-0.0305105 0.000275902 0)
(-0.0309057 0.000264447 0)
(-0.0312844 0.000253251 0)
(-0.031647 0.000242317 0)
(-0.0319938 0.000231648 0)
(-0.0323252 0.000221242 0)
(-0.0326416 0.000211099 0)
(-0.0329434 0.000201212 0)
(-0.0332308 0.000191575 0)
(-0.0335043 0.000182181 0)
(-0.0337642 0.000173019 0)
(-0.0340108 0.000164079 0)
(-0.0342445 0.000155348 0)
(-0.0344654 0.000146813 0)
(-0.0346738 0.000138457 0)
(-0.0348701 0.000130266 0)
(-0.0350544 0.000122223 0)
(-0.035227 0.000114308 0)
(-0.0353879 0.000106504 0)
(-0.0355373 9.87915e-05 0)
(-0.0356754 9.11497e-05 0)
(-0.0358023 8.3558e-05 0)
(-0.0359179 7.59948e-05 0)
(-0.0360223 6.84381e-05 0)
(-0.0361155 6.08658e-05 0)
(-0.0361975 5.3255e-05 0)
(-0.0362682 4.55829e-05 0)
(-0.0363275 3.7826e-05 0)
(-0.0363752 2.99607e-05 0)
(-0.0364111 2.19635e-05 0)
(-0.0364352 1.38109e-05 0)
(-0.036447 5.47955e-06 0)
(-0.0364464 -3.05388e-06 0)
(-0.0364331 -1.18126e-05 0)
(-0.0364066 -2.08197e-05 0)
(-0.0363667 -3.00972e-05 0)
(-0.0363129 -3.96669e-05 0)
(-0.0362449 -4.95498e-05 0)
(-0.036162 -5.97659e-05 0)
(-0.0360639 -7.03347e-05 0)
(-0.0359501 -8.12743e-05 0)
(-0.0358199 -9.26016e-05 0)
(-0.0356729 -0.000104332 0)
(-0.0355084 -0.000116479 0)
(-0.0353259 -0.000129054 0)
(-0.0351247 -0.000142068 0)
(-0.0349043 -0.000155528 0)
(-0.034664 -0.000169439 0)
(-0.0344031 -0.000183802 0)
(-0.034121 -0.000198619 0)
(-0.0338171 -0.000213884 0)
(-0.0334908 -0.00022959 0)
(-0.0331414 -0.000245726 0)
(-0.0327684 -0.000262276 0)
(-0.0323712 -0.000279222 0)
(-0.0319493 -0.000296539 0)
(-0.0315022 -0.000314197 0)
(-0.0310294 -0.000332163 0)
(-0.0305306 -0.000350397 0)
(-0.0300055 -0.000368853 0)
(-0.0294537 -0.000387481 0)
(-0.0288751 -0.000406224 0)
(-0.0282697 -0.000425018 0)
(-0.0276374 -0.000443793 0)
(-0.0269783 -0.000462473 0)
(-0.0262928 -0.000480975 0)
(-0.025581 -0.000499208 0)
(-0.0248435 -0.000517076 0)
(-0.024081 -0.000534477 0)
(-0.0232942 -0.000551299 0)
(-0.022484 -0.000567426 0)
(-0.0216516 -0.000582736 0)
(-0.0207983 -0.000597099 0)
(-0.0199255 -0.000610381 0)
(-0.0190349 -0.000622442 0)
(-0.0181284 -0.000633136 0)
(-0.017208 -0.000642314 0)
(-0.0162762 -0.000649822 0)
(-0.0153352 -0.000655504 0)
(-0.014388 -0.000659201 0)
(-0.0134374 -0.00066075 0)
(-0.0124867 -0.000659991 0)
(-0.0115391 -0.000656762 0)
(-0.0105984 -0.000650902 0)
(-0.00966836 -0.000642252 0)
(-0.00875302 -0.000630659 0)
(-0.00785664 -0.000615973 0)
(-0.00698363 -0.000598053 0)
(-0.0061386 -0.000576766 0)
(-0.00532629 -0.000551994 0)
(-0.00455158 -0.000523634 0)
(-0.00381943 -0.000491603 0)
(-0.00313486 -0.000455852 0)
(-0.00250287 -0.000416367 0)
(-0.00192835 -0.000373192 0)
(-0.00141602 -0.000326447 0)
(-0.000970257 -0.000276365 0)
(-0.000594874 -0.000223345 0)
(-0.000292852 -0.000168042 0)
(-6.5911e-05 -0.000111511 0)
(8.61271e-05 -5.54485e-05 0)
(0.000166231 -2.5863e-06 0)
(0.000181287 4.26742e-05 0)
(0.000143961 7.32431e-05 0)
(7.79716e-05 7.79453e-05 0)
(2.08604e-05 4.20336e-05 0)
(1.9808e-05 -7.86286e-05 0)
(6.81192e-05 -0.000132095 0)
(0.000111224 -0.000110677 0)
(0.000110423 -3.9465e-05 0)
(4.04537e-05 6.29596e-05 0)
(-0.000113543 0.000183376 0)
(-0.000360462 0.000312638 0)
(-0.000704705 0.000444537 0)
(-0.00114722 0.000574894 0)
(-0.00168644 0.000700914 0)
(-0.00231902 0.000820749 0)
(-0.00304039 0.000933204 0)
(-0.00384512 0.00103754 0)
(-0.00472722 0.00113333 0)
(-0.00568037 0.00122041 0)
(-0.00669809 0.00129874 0)
(-0.00777387 0.00136844 0)
(-0.00890121 0.0014297 0)
(-0.0100738 0.00148278 0)
(-0.0112854 0.001528 0)
(-0.0125301 0.00156569 0)
(-0.0138022 0.00159623 0)
(-0.0150962 0.00162 0)
(-0.016407 0.00163739 0)
(-0.0177297 0.00164882 0)
(-0.0190597 0.00165467 0)
(-0.0203928 0.00165534 0)
(-0.021725 0.00165123 0)
(-0.0230527 0.00164271 0)
(-0.0243724 0.00163017 0)
(-0.025681 0.00161396 0)
(-0.0269758 0.00159442 0)
(-0.0282542 0.0015719 0)
(-0.0295139 0.00154672 0)
(-0.0307528 0.00151917 0)
(-0.0319692 0.00148956 0)
(-0.0331615 0.00145814 0)
(-0.0343283 0.00142518 0)
(-0.0354683 0.00139093 0)
(-0.0365807 0.0013556 0)
(-0.0376646 0.00131941 0)
(-0.0387193 0.00128255 0)
(-0.0397444 0.0012452 0)
(-0.0407394 0.00120754 0)
(-0.0417042 0.0011697 0)
(-0.0426387 0.00113182 0)
(-0.0435427 0.00109404 0)
(-0.0444165 0.00105646 0)
(-0.0452602 0.00101918 0)
(-0.0460739 0.000982292 0)
(-0.0468581 0.000945867 0)
(-0.0476132 0.000909973 0)
(-0.0483394 0.000874667 0)
(-0.0490374 0.000839994 0)
(-0.0497076 0.000805992 0)
(-0.0503505 0.00077269 0)
(-0.0509666 0.00074011 0)
(-0.0515567 0.000708264 0)
(-0.0521211 0.000677159 0)
(-0.0526606 0.000646796 0)
(-0.0531756 0.000617167 0)
(-0.0536668 0.000588262 0)
(-0.0541346 0.000560063 0)
(-0.0545798 0.000532549 0)
(-0.0550027 0.000505691 0)
(-0.0554039 0.000479459 0)
(-0.0557839 0.000453819 0)
(-0.0561431 0.00042873 0)
(-0.056482 0.000404152 0)
(-0.0568008 0.000380038 0)
(-0.0571 0.000356341 0)
(-0.0573799 0.000333009 0)
(-0.0576408 0.000309989 0)
(-0.0578828 0.000287225 0)
(-0.0581061 0.000264661 0)
(-0.0583109 0.000242235 0)
(-0.0584973 0.000219888 0)
(-0.0586653 0.000197555 0)
(-0.0588148 0.000175175 0)
(-0.0589459 0.000152681 0)
(-0.0590583 0.000130008 0)
(-0.0591519 0.00010709 0)
(-0.0592266 8.386e-05 0)
(-0.059282 6.02503e-05 0)
(-0.0593177 3.61941e-05 0)
(-0.0593335 1.16246e-05 0)
(-0.0593288 -1.35243e-05 0)
(-0.0593032 -3.93182e-05 0)
(-0.0592562 -6.58214e-05 0)
(-0.0591871 -9.30973e-05 0)
(-0.0590953 -0.000121207 0)
(-0.0589801 -0.00015021 0)
(-0.0588409 -0.000180163 0)
(-0.0586768 -0.000211119 0)
(-0.0584869 -0.000243129 0)
(-0.0582706 -0.00027624 0)
(-0.0580268 -0.000310494 0)
(-0.0577547 -0.000345929 0)
(-0.0574532 -0.000382576 0)
(-0.0571216 -0.000420462 0)
(-0.0567587 -0.000459605 0)
(-0.0563635 -0.000500019 0)
(-0.0559352 -0.000541707 0)
(-0.0554727 -0.000584665 0)
(-0.0549749 -0.000628879 0)
(-0.054441 -0.000674325 0)
(-0.05387 -0.000720968 0)
(-0.053261 -0.000768762 0)
(-0.0526131 -0.000817647 0)
(-0.0519255 -0.000867552 0)
(-0.0511974 -0.000918391 0)
(-0.0504283 -0.000970063 0)
(-0.0496175 -0.00102245 0)
(-0.0487646 -0.00107543 0)
(-0.0478691 -0.00112884 0)
(-0.0469309 -0.00118252 0)
(-0.0459498 -0.00123629 0)
(-0.044926 -0.00128995 0)
(-0.0438595 -0.00134327 0)
(-0.0427509 -0.00139602 0)
(-0.0416007 -0.00144793 0)
(-0.0404098 -0.00149874 0)
(-0.0391792 -0.00154815 0)
(-0.0379103 -0.00159584 0)
(-0.0366044 -0.00164148 0)
(-0.0352635 -0.00168473 0)
(-0.0338897 -0.00172521 0)
(-0.0324853 -0.00176255 0)
(-0.0310531 -0.00179634 0)
(-0.029596 -0.00182619 0)
(-0.0281175 -0.00185167 0)
(-0.026621 -0.00187234 0)
(-0.0251108 -0.00188778 0)
(-0.023591 -0.00189754 0)
(-0.0220665 -0.00190116 0)
(-0.0205421 -0.00189821 0)
(-0.0190234 -0.00188825 0)
(-0.017516 -0.00187082 0)
(-0.0160259 -0.00184552 0)
(-0.0145594 -0.00181192 0)
(-0.0131233 -0.00176964 0)
(-0.0117242 -0.00171831 0)
(-0.0103695 -0.00165761 0)
(-0.00906643 -0.00158725 0)
(-0.00782241 -0.00150703 0)
(-0.00664502 -0.00141678 0)
(-0.0055418 -0.00131648 0)
(-0.00452022 -0.0012062 0)
(-0.00358748 -0.00108622 0)
(-0.00275039 -0.000957054 0)
(-0.00201508 -0.000819574 0)
(-0.00138674 -0.000675128 0)
(-0.000869128 -0.000525773 0)
(-0.000464041 -0.0003746 0)
(-0.000170479 -0.000226222 0)
(1.63883e-05 -8.75134e-05 0)
(0.000106403 3.13457e-05 0)
(0.000116086 0.000115533 0)
(7.3542e-05 0.000143998 0)
(2.18454e-05 8.77517e-05 0)
(1.55814e-05 -0.000113669 0)
(4.29289e-05 -0.000170675 0)
(4.09051e-05 -0.000110081 0)
(-2.81075e-05 2.97211e-05 0)
(-0.000189808 0.00022119 0)
(-0.000460387 0.000443888 0)
(-0.000849917 0.000682948 0)
(-0.00136363 0.000927775 0)
(-0.00200289 0.0011709 0)
(-0.00276612 0.00140709 0)
(-0.00364952 0.00163275 0)
(-0.0046477 0.00184544 0)
(-0.00575408 0.00204355 0)
(-0.00696133 0.00222611 0)
(-0.00826156 0.00239262 0)
(-0.0096466 0.00254289 0)
(-0.0111082 0.00267701 0)
(-0.0126379 0.00279524 0)
(-0.0142277 0.002898 0)
(-0.0158694 0.00298581 0)
(-0.0175554 0.00305926 0)
(-0.0192781 0.00311903 0)
(-0.0210303 0.0031658 0)
(-0.0228052 0.0032003 0)
(-0.0245964 0.00322327 0)
(-0.0263979 0.00323546 0)
(-0.0282038 0.0032376 0)
(-0.0300089 0.00323045 0)
(-0.0318084 0.00321473 0)
(-0.0335975 0.00319114 0)
(-0.0353722 0.00316038 0)
(-0.0371287 0.00312311 0)
(-0.0388636 0.00307998 0)
(-0.0405736 0.0030316 0)
(-0.042256 0.00297856 0)
(-0.0439084 0.00292143 0)
(-0.0455285 0.00286072 0)
(-0.0471145 0.00279694 0)
(-0.0486647 0.00273057 0)
(-0.0501779 0.00266203 0)
(-0.0516527 0.00259175 0)
(-0.0530884 0.00252009 0)
(-0.0544842 0.00244742 0)
(-0.0558395 0.00237406 0)
(-0.057154 0.00230031 0)
(-0.0584276 0.00222643 0)
(-0.0596601 0.00215267 0)
(-0.0608517 0.00207924 0)
(-0.0620025 0.00200636 0)
(-0.0631129 0.00193418 0)
(-0.0641831 0.00186286 0)
(-0.0652138 0.00179253 0)
(-0.0662054 0.00172331 0)
(-0.0671586 0.00165528 0)
(-0.068074 0.00158853 0)
(-0.0689523 0.0015231 0)
(-0.0697942 0.00145905 0)
(-0.0706004 0.00139641 0)
(-0.0713718 0.00133518 0)
(-0.072109 0.00127537 0)
(-0.0728129 0.00121697 0)
(-0.0734841 0.00115996 0)
(-0.0741235 0.0011043 0)
(-0.0747318 0.00104997 0)
(-0.0753096 0.00099689 0)
(-0.0758577 0.00094502 0)
(-0.0763766 0.000894287 0)
(-0.0768669 0.000844618 0)
(-0.0773293 0.000795931 0)
(-0.0777642 0.000748138 0)
(-0.0781721 0.000701147 0)
(-0.0785534 0.000654859 0)
(-0.0789085 0.00060917 0)
(-0.0792375 0.000563974 0)
(-0.0795409 0.000519158 0)
(-0.0798187 0.000474607 0)
(-0.0800711 0.000430203 0)
(-0.0802981 0.000385824 0)
(-0.0804996 0.000341347 0)
(-0.0806757 0.000296646 0)
(-0.0808261 0.000251593 0)
(-0.0809506 0.000206061 0)
(-0.0810488 0.00015992 0)
(-0.0811205 0.00011304 0)
(-0.0811652 6.52912e-05 0)
(-0.0811823 1.65447e-05 0)
(-0.0811713 -3.33274e-05 0)
(-0.0811316 -8.44513e-05 0)
(-0.0810623 -0.000136951 0)
(-0.0809628 -0.000190948 0)
(-0.0808321 -0.00024656 0)
(-0.0806693 -0.000303901 0)
(-0.0804736 -0.000363079 0)
(-0.0802438 -0.000424196 0)
(-0.0799788 -0.00048735 0)
(-0.0796776 -0.000552627 0)
(-0.0793389 -0.000620109 0)
(-0.0789615 -0.000689866 0)
(-0.0785442 -0.000761957 0)
(-0.0780857 -0.000836429 0)
(-0.0775848 -0.000913319 0)
(-0.07704 -0.000992646 0)
(-0.07645 -0.00107441 0)
(-0.0758137 -0.00115861 0)
(-0.0751296 -0.00124521 0)
(-0.0743966 -0.00133416 0)
(-0.0736132 -0.00142539 0)
(-0.0727785 -0.0015188 0)
(-0.0718913 -0.00161427 0)
(-0.0709504 -0.00171167 0)
(-0.069955 -0.00181082 0)
(-0.0689042 -0.00191153 0)
(-0.0677973 -0.00201356 0)
(-0.0666336 -0.00211666 0)
(-0.0654127 -0.00222053 0)
(-0.0641344 -0.00232485 0)
(-0.0627986 -0.00242927 0)
(-0.0614053 -0.00253338 0)
(-0.059955 -0.00263676 0)
(-0.0584483 -0.00273894 0)
(-0.0568859 -0.00283943 0)
(-0.0552691 -0.00293769 0)
(-0.0535994 -0.00303314 0)
(-0.0518784 -0.00312518 0)
(-0.0501083 -0.00321317 0)
(-0.0482916 -0.00329643 0)
(-0.0464312 -0.00337426 0)
(-0.0445302 -0.00344593 0)
(-0.0425923 -0.00351067 0)
(-0.0406216 -0.00356769 0)
(-0.0386226 -0.00361621 0)
(-0.0366001 -0.00365538 0)
(-0.0345596 -0.00368438 0)
(-0.0325069 -0.00370237 0)
(-0.0304482 -0.00370849 0)
(-0.0283901 -0.00370191 0)
(-0.02634 -0.0036818 0)
(-0.0243052 -0.00364733 0)
(-0.0222938 -0.00359772 0)
(-0.020314 -0.00353222 0)
(-0.0183747 -0.00345013 0)
(-0.0164849 -0.00335079 0)
(-0.0146537 -0.00323365 0)
(-0.0128908 -0.00309825 0)
(-0.0112058 -0.00294426 0)
(-0.0096083 -0.0027715 0)
(-0.00810801 -0.00258003 0)
(-0.00671433 -0.00237018 0)
(-0.00543624 -0.00214263 0)
(-0.00428213 -0.00189858 0)
(-0.00325943 -0.00163988 0)
(-0.00237424 -0.0013693 0)
(-0.00163084 -0.00109088 0)
(-0.00103105 -0.000810399 0)
(-0.000573377 -0.00053615 0)
(-0.000252039 -0.000279881 0)
(-5.58558e-05 -5.81568e-05 0)
(3.31889e-05 0.000106124 0)
(4.35656e-05 0.000181856 0)
(1.6735e-05 0.000125138 0)
(8.69648e-06 -0.000131047 0)
(4.49502e-06 -0.000164816 0)
(-6.07376e-05 -4.0701e-05 0)
(-0.000218719 0.000191255 0)
(-0.00049295 0.000495205 0)
(-0.000899415 0.000843898 0)
(-0.00144818 0.00121688 0)
(-0.00214449 0.00159907 0)
(-0.00298967 0.00197947 0)
(-0.00398194 0.00235013 0)
(-0.00511707 0.00270538 0)
(-0.00638898 0.00304124 0)
(-0.00779023 0.00335504 0)
(-0.00931238 0.00364503 0)
(-0.0109463 0.00391022 0)
(-0.0126825 0.00415016 0)
(-0.0145112 0.00436483 0)
(-0.0164225 0.00455452 0)
(-0.0184068 0.00471978 0)
(-0.0204544 0.00486134 0)
(-0.022556 0.00498009 0)
(-0.0247026 0.00507699 0)
(-0.0268854 0.00515312 0)
(-0.0290963 0.00520958 0)
(-0.0313273 0.00524751 0)
(-0.0335711 0.00526808 0)
(-0.0358207 0.00527246 0)
(-0.0380695 0.00526181 0)
(-0.0403115 0.00523728 0)
(-0.0425412 0.0052 0)
(-0.0447533 0.00515105 0)
(-0.0469432 0.00509152 0)
(-0.0491065 0.00502243 0)
(-0.0512394 0.00494476 0)
(-0.0533385 0.00485947 0)
(-0.0554006 0.00476745 0)
(-0.057423 0.00466955 0)
(-0.0594034 0.0045666 0)
(-0.0613396 0.00445933 0)
(-0.06323 0.00434848 0)
(-0.0650731 0.0042347 0)
(-0.0668676 0.00411861 0)
(-0.0686128 0.00400079 0)
(-0.0703078 0.00388176 0)
(-0.0719523 0.00376201 0)
(-0.0735458 0.00364198 0)
(-0.0750884 0.00352206 0)
(-0.0765801 0.00340263 0)
(-0.0780211 0.00328399 0)
(-0.0794117 0.00316643 0)
(-0.0807524 0.00305021 0)
(-0.0820437 0.00293554 0)
(-0.0832863 0.00282261 0)
(-0.084481 0.00271156 0)
(-0.0856284 0.00260253 0)
(-0.0867294 0.00249562 0)
(-0.0877849 0.00239089 0)
(-0.0887958 0.0022884 0)
(-0.0897631 0.00218817 0)
(-0.0906875 0.00209021 0)
(-0.0915701 0.00199451 0)
(-0.0924118 0.00190103 0)
(-0.0932135 0.00180972 0)
(-0.0939761 0.00172053 0)
(-0.0947003 0.00163336 0)
(-0.0953872 0.00154813 0)
(-0.0960373 0.00146472 0)
(-0.0966515 0.00138302 0)
(-0.0972304 0.0013029 0)
(-0.0977746 0.00122421 0)
(-0.0982848 0.00114681 0)
(-0.0987614 0.00107054 0)
(-0.0992048 0.000995231 0)
(-0.0996154 0.00092071 0)
(-0.0999935 0.000846797 0)
(-0.100339 0.000773306 0)
(-0.100653 0.000700046 0)
(-0.100935 0.000626821 0)
(-0.101184 0.000553432 0)
(-0.101401 0.000479676 0)
(-0.101586 0.000405348 0)
(-0.101738 0.000330239 0)
(-0.101856 0.000254142 0)
(-0.101942 0.000176849 0)
(-0.101993 9.81487e-05 0)
(-0.102009 1.7835e-05 0)
(-0.10199 -6.42983e-05 0)
(-0.101934 -0.000148454 0)
(-0.101842 -0.000234832 0)
(-0.101711 -0.000323626 0)
(-0.101541 -0.000415024 0)
(-0.101331 -0.000509209 0)
(-0.101079 -0.000606353 0)
(-0.100784 -0.000706621 0)
(-0.100445 -0.000810165 0)
(-0.100061 -0.000917124 0)
(-0.0996302 -0.00102763 0)
(-0.0991507 -0.00114178 0)
(-0.0986212 -0.00125968 0)
(-0.0980403 -0.0013814 0)
(-0.0974063 -0.00150699 0)
(-0.0967176 -0.00163648 0)
(-0.0959726 -0.00176987 0)
(-0.0951698 -0.00190715 0)
(-0.0943075 -0.00204825 0)
(-0.0933843 -0.00219309 0)
(-0.0923986 -0.00234155 0)
(-0.0913491 -0.00249347 0)
(-0.0902343 -0.00264867 0)
(-0.0890531 -0.00280689 0)
(-0.0878042 -0.00296787 0)
(-0.0864867 -0.00313127 0)
(-0.0850997 -0.00329673 0)
(-0.0836425 -0.00346381 0)
(-0.0821146 -0.00363205 0)
(-0.0805158 -0.00380091 0)
(-0.0788459 -0.00396982 0)
(-0.0771053 -0.00413814 0)
(-0.0752942 -0.00430517 0)
(-0.0734137 -0.00447016 0)
(-0.0714647 -0.0046323 0)
(-0.0694487 -0.00479072 0)
(-0.0673676 -0.00494451 0)
(-0.0652237 -0.00509268 0)
(-0.0630195 -0.0052342 0)
(-0.0607581 -0.00536799 0)
(-0.0584431 -0.00549293 0)
(-0.0560786 -0.00560782 0)
(-0.0536689 -0.00571146 0)
(-0.0512192 -0.00580258 0)
(-0.0487349 -0.00587992 0)
(-0.0462222 -0.00594214 0)
(-0.0436876 -0.00598794 0)
(-0.0411382 -0.00601597 0)
(-0.0385818 -0.0060249 0)
(-0.0360263 -0.0060134 0)
(-0.0334807 -0.00598016 0)
(-0.0309541 -0.00592393 0)
(-0.028456 -0.00584347 0)
(-0.0259968 -0.00573764 0)
(-0.0235868 -0.00560536 0)
(-0.0212369 -0.00544569 0)
(-0.0189583 -0.00525782 0)
(-0.0167623 -0.0050411 0)
(-0.0146604 -0.00479514 0)
(-0.0126641 -0.00451982 0)
(-0.0107847 -0.00421536 0)
(-0.00903314 -0.00388247 0)
(-0.00741993 -0.00352246 0)
(-0.00595466 -0.00313743 0)
(-0.00464577 -0.00273049 0)
(-0.00350012 -0.00230616 0)
(-0.00252249 -0.00187081 0)
(-0.00171488 -0.00143328 0)
(-0.00107584 -0.00100578 0)
(-0.000599556 -0.000605053 0)
(-0.000274827 -0.000253873 0)
(-8.38809e-05 1.7289e-05 0)
(-8.4928e-07 0.000168115 0)
(8.73936e-06 0.000141875 0)
(6.683e-07 -0.000125849 0)
(-4.10588e-05 -0.000102891 0)
(-0.000181029 0.000112736 0)
(-0.000441991 0.000461985 0)
(-0.000843347 0.000901891 0)
(-0.00139967 0.00139913 0)
(-0.00212006 0.00192808 0)
(-0.00300904 0.00246936 0)
(-0.0040674 0.00300847 0)
(-0.00529286 0.00353463 0)
(-0.00668064 0.00403994 0)
(-0.008224 0.00451875 0)
(-0.00991471 0.0049671 0)
(-0.0117434 0.00538236 0)
(-0.0136999 0.0057629 0)
(-0.0157736 0.00610792 0)
(-0.0179535 0.0064172 0)
(-0.0202285 0.00669102 0)
(-0.0225875 0.00693002 0)
(-0.0250197 0.00713515 0)
(-0.0275142 0.00730756 0)
(-0.0300608 0.00744858 0)
(-0.0326496 0.00755965 0)
(-0.0352708 0.00764232 0)
(-0.0379155 0.00769819 0)
(-0.0405751 0.00772889 0)
(-0.0432414 0.00773608 0)
(-0.0459068 0.00772141 0)
(-0.0485644 0.00768651 0)
(-0.0512075 0.007633 0)
(-0.0538301 0.00756246 0)
(-0.0564266 0.00747641 0)
(-0.0589921 0.00737635 0)
(-0.061522 0.0072637 0)
(-0.0640121 0.00713982 0)
(-0.0664589 0.00700603 0)
(-0.068859 0.00686356 0)
(-0.0712096 0.0067136 0)
(-0.0735084 0.00655724 0)
(-0.0757532 0.00639553 0)
(-0.0779422 0.00622944 0)
(-0.0800741 0.00605987 0)
(-0.0821477 0.00588766 0)
(-0.0841621 0.00571359 0)
(-0.0861168 0.00553837 0)
(-0.0880115 0.00536263 0)
(-0.0898458 0.00518698 0)
(-0.0916199 0.00501193 0)
(-0.093334 0.00483796 0)
(-0.0949885 0.0046655 0)
(-0.0965839 0.00449491 0)
(-0.0981207 0.00432652 0)
(-0.0995997 0.00416059 0)
(-0.101022 0.00399735 0)
(-0.102388 0.003837 0)
(-0.103699 0.00367969 0)
(-0.104956 0.00352552 0)
(-0.106159 0.00337456 0)
(-0.107311 0.00322687 0)
(-0.108412 0.00308246 0)
(-0.109463 0.0029413 0)
(-0.110465 0.00280336 0)
(-0.11142 0.00266856 0)
(-0.112327 0.00253681 0)
(-0.113189 0.002408 0)
(-0.114007 0.00228198 0)
(-0.11478 0.00215861 0)
(-0.115511 0.00203772 0)
(-0.116199 0.00191911 0)
(-0.116846 0.00180258 0)
(-0.117452 0.00168791 0)
(-0.118017 0.00157487 0)
(-0.118543 0.00146323 0)
(-0.11903 0.00135273 0)
(-0.119477 0.0012431 0)
(-0.119886 0.00113409 0)
(-0.120256 0.0010254 0)
(-0.120588 0.000916751 0)
(-0.120881 0.000807861 0)
(-0.121135 0.000698431 0)
(-0.121351 0.000588163 0)
(-0.121527 0.000476754 0)
(-0.121663 0.000363902 0)
(-0.121759 0.000249304 0)
(-0.121815 0.000132657 0)
(-0.121828 1.36598e-05 0)
(-0.121799 -0.000107987 0)
(-0.121727 -0.000232576 0)
(-0.12161 -0.000360396 0)
(-0.121448 -0.000491729 0)
(-0.121239 -0.000626846 0)
(-0.120981 -0.00076601 0)
(-0.120674 -0.000909469 0)
(-0.120316 -0.00105746 0)
(-0.119906 -0.0012102 0)
(-0.119441 -0.00136789 0)
(-0.118921 -0.00153072 0)
(-0.118343 -0.00169883 0)
(-0.117706 -0.00187235 0)
(-0.117007 -0.0020514 0)
(-0.116246 -0.00223604 0)
(-0.115419 -0.00242631 0)
(-0.114527 -0.00262221 0)
(-0.113565 -0.00282369 0)
(-0.112533 -0.00303068 0)
(-0.11143 -0.00324305 0)
(-0.110252 -0.0034606 0)
(-0.108999 -0.00368312 0)
(-0.107669 -0.00391031 0)
(-0.106261 -0.00414181 0)
(-0.104773 -0.00437722 0)
(-0.103204 -0.00461606 0)
(-0.101553 -0.00485777 0)
(-0.0998195 -0.00510175 0)
(-0.098003 -0.00534728 0)
(-0.0961031 -0.0055936 0)
(-0.0941198 -0.00583986 0)
(-0.0920533 -0.00608513 0)
(-0.0899043 -0.00632839 0)
(-0.0876738 -0.00656855 0)
(-0.085363 -0.00680444 0)
(-0.0829738 -0.00703479 0)
(-0.0805083 -0.00725826 0)
(-0.0779692 -0.00747344 0)
(-0.0753597 -0.00767883 0)
(-0.0726833 -0.00787286 0)
(-0.0699443 -0.00805389 0)
(-0.0671474 -0.00822024 0)
(-0.0642978 -0.00837013 0)
(-0.0614015 -0.00850176 0)
(-0.0584649 -0.00861329 0)
(-0.0554951 -0.00870283 0)
(-0.0524999 -0.00876848 0)
(-0.0494873 -0.00880834 0)
(-0.0464665 -0.0088205 0)
(-0.0434469 -0.00880307 0)
(-0.0404385 -0.00875422 0)
(-0.037452 -0.00867215 0)
(-0.0344986 -0.00855517 0)
(-0.0315898 -0.00840166 0)
(-0.0287379 -0.00821019 0)
(-0.0259552 -0.00797946 0)
(-0.0232544 -0.00770842 0)
(-0.0206486 -0.00739629 0)
(-0.0181507 -0.00704262 0)
(-0.0157737 -0.0066474 0)
(-0.0135304 -0.00621115 0)
(-0.011433 -0.00573509 0)
(-0.00949314 -0.00522128 0)
(-0.00772156 -0.00467291 0)
(-0.00612756 -0.00409457 0)
(-0.00471877 -0.00349271 0)
(-0.00350054 -0.00287622 0)
(-0.00247545 -0.0022571 0)
(-0.00164259 -0.00165149 0)
(-0.000996925 -0.00108089 0)
(-0.000528349 -0.000573809 0)
(-0.000220678 -0.000167391 0)
(-5.27529e-05 9.02657e-05 0)
(-4.34143e-07 0.000132715 0)
(-7.72302e-06 -9.57843e-05 0)
(-8.99864e-05 2.18426e-05 0)
(-0.000311401 0.000359963 0)
(-0.000684123 0.000853186 0)
(-0.00122221 0.00145289 0)
(-0.00193794 0.00212062 0)
(-0.00283863 0.00282621 0)
(-0.00392747 0.00354636 0)
(-0.00520426 0.00426323 0)
(-0.00666587 0.00496329 0)
(-0.0083068 0.00563641 0)
(-0.0101195 0.00627517 0)
(-0.0120951 0.00687426 0)
(-0.0142232 0.00743005 0)
(-0.0164928 0.00794022 0)
(-0.0188923 0.0084035 0)
(-0.0214096 0.00881943 0)
(-0.0240325 0.00918823 0)
(-0.0267489 0.00951061 0)
(-0.0295467 0.0097877 0)
(-0.032414 0.0100209 0)
(-0.0353393 0.010212 0)
(-0.0383115 0.0103627 0)
(-0.04132 0.0104752 0)
(-0.0443545 0.0105514 0)
(-0.0474055 0.0105935 0)
(-0.0504637 0.0106038 0)
(-0.0535207 0.0105844 0)
(-0.0565685 0.0105375 0)
(-0.0595998 0.0104653 0)
(-0.0626076 0.0103698 0)
(-0.0655856 0.0102532 0)
(-0.0685283 0.0101174 0)
(-0.0714303 0.00996437 0)
(-0.0742871 0.00979595 0)
(-0.0770944 0.00961392 0)
(-0.0798485 0.00941995 0)
(-0.0825462 0.00921564 0)
(-0.0851847 0.0090025 0)
(-0.0877617 0.00878193 0)
(-0.090275 0.00855528 0)
(-0.092723 0.00832376 0)
(-0.0951045 0.00808852 0)
(-0.0974184 0.00785062 0)
(-0.099664 0.00761103 0)
(-0.101841 0.00737064 0)
(-0.103949 0.00713025 0)
(-0.105988 0.00689059 0)
(-0.107958 0.00665231 0)
(-0.10986 0.00641599 0)
(-0.111694 0.00618214 0)
(-0.113461 0.00595119 0)
(-0.115162 0.00572353 0)
(-0.116797 0.00549948 0)
(-0.118368 0.00527929 0)
(-0.119876 0.00506317 0)
(-0.121322 0.00485129 0)
(-0.122706 0.00464374 0)
(-0.124031 0.00444059 0)
(-0.125297 0.00424186 0)
(-0.126506 0.00404754 0)
(-0.127659 0.00385755 0)
(-0.128756 0.00367182 0)
(-0.1298 0.00349021 0)
(-0.130791 0.00331258 0)
(-0.13173 0.00313874 0)
(-0.132619 0.00296847 0)
(-0.133458 0.00280156 0)
(-0.134248 0.00263774 0)
(-0.13499 0.00247674 0)
(-0.135685 0.00231827 0)
(-0.136334 0.002162 0)
(-0.136936 0.00200762 0)
(-0.137493 0.00185478 0)
(-0.138005 0.00170312 0)
(-0.138471 0.00155228 0)
(-0.138894 0.00140189 0)
(-0.139271 0.00125154 0)
(-0.139604 0.00110086 0)
(-0.139892 0.000949435 0)
(-0.140135 0.000796865 0)
(-0.140332 0.000642742 0)
(-0.140483 0.000486652 0)
(-0.140588 0.000328185 0)
(-0.140645 0.000166931 0)
(-0.140655 2.47971e-06 0)
(-0.140615 -0.000165572 0)
(-0.140525 -0.000337621 0)
(-0.140383 -0.000514059 0)
(-0.140189 -0.000695265 0)
(-0.139941 -0.000881607 0)
(-0.139638 -0.00107344 0)
(-0.139277 -0.00127109 0)
(-0.138858 -0.00147489 0)
(-0.138378 -0.00168512 0)
(-0.137836 -0.00190206 0)
(-0.13723 -0.00212594 0)
(-0.136558 -0.00235697 0)
(-0.135818 -0.00259533 0)
(-0.135007 -0.00284115 0)
(-0.134125 -0.00309451 0)
(-0.133168 -0.00335547 0)
(-0.132135 -0.00362402 0)
(-0.131023 -0.00390009 0)
(-0.129831 -0.00418357 0)
(-0.128557 -0.00447428 0)
(-0.127198 -0.00477195 0)
(-0.125753 -0.00507627 0)
(-0.124221 -0.00538684 0)
(-0.122599 -0.00570316 0)
(-0.120886 -0.00602469 0)
(-0.119081 -0.00635074 0)
(-0.117183 -0.00668059 0)
(-0.115191 -0.00701337 0)
(-0.113104 -0.00734813 0)
(-0.110922 -0.00768383 0)
(-0.108646 -0.0080193 0)
(-0.106275 -0.00835328 0)
(-0.10381 -0.00868438 0)
(-0.101253 -0.00901113 0)
(-0.0986048 -0.00933192 0)
(-0.0958674 -0.00964503 0)
(-0.0930435 -0.00994867 0)
(-0.0901361 -0.0102409 0)
(-0.0871488 -0.0105197 0)
(-0.0840858 -0.0107829 0)
(-0.0809517 -0.0110284 0)
(-0.077752 -0.0112539 0)
(-0.0744926 -0.0114569 0)
(-0.0711802 -0.011635 0)
(-0.067822 -0.0117858 0)