/*--------------------------------*- C++ -*----------------------------------*\
  =========                 |
  \\      /  F ield         | OpenFOAM: The Open Source CFD Toolbox
   \\    /   O peration     | Website:  https://openfoam.org
    \\  /    A nd           | Version:  7
     \\/     M anipulation  |
\*---------------------------------------------------------------------------*/
FoamFile
{
    version     2.0;
    format      ascii;
    class       volScalarField;
    location    "0.4125";
    object      p;
}
// * * * * * * * * * * * * * * * * * * * * * * * * * * * * * * * * * * * * * //

dimensions      [0 2 -2 0 0 0 0];

internalField   nonuniform List<scalar> 
51200
(
3.14026e-08
-5.24631e-07
5.53144e-07
3.58807e-06
8.34253e-06
1.45158e-05
2.18386e-05
3.00603e-05
3.89218e-05
4.81733e-05
5.7614e-05
6.70947e-05
7.64801e-05
8.56264e-05
9.44034e-05
0.000102718
0.000110505
0.000117701
0.000124231
0.000130018
0.000135008
0.000139171
0.000142487
0.000144934
0.000146484
0.000147106
0.000146783
0.000145509
0.000143281
0.000140093
0.00013594
0.00013082
0.000124742
0.000117713
0.000109741
0.00010083
9.09898e-05
8.0231e-05
6.85688e-05
5.60203e-05
4.26022e-05
2.83299e-05
1.32181e-05
-2.71765e-06
-1.94592e-05
-3.69864e-05
-5.52777e-05
-7.43111e-05
-9.40655e-05
-0.000114521
-0.00013566
-0.000157462
-0.000179905
-0.000202966
-0.00022662
-0.000250845
-0.00027562
-0.000300922
-0.00032673
-0.000353021
-0.000379772
-0.000406959
-0.000434558
-0.000462547
-0.000490904
-0.000519606
-0.000548632
-0.000577958
-0.000607562
-0.000637423
-0.000667516
-0.000697818
-0.000728308
-0.000758962
-0.00078976
-0.00082068
-0.000851701
-0.000882802
-0.000913959
-0.000945151
-0.000976354
-0.00100755
-0.00103871
-0.00106981
-0.00110084
-0.00113176
-0.00116257
-0.00119324
-0.00122374
-0.00125404
-0.00128414
-0.001314
-0.0013436
-0.00137293
-0.00140195
-0.00143066
-0.00145901
-0.001487
-0.00151459
-0.00154177
-0.00156851
-0.00159479
-0.00162059
-0.00164588
-0.00167065
-0.00169486
-0.0017185
-0.00174155
-0.00176397
-0.00178574
-0.00180686
-0.00182729
-0.00184702
-0.00186601
-0.00188426
-0.00190174
-0.00191843
-0.00193431
-0.00194936
-0.00196357
-0.00197693
-0.00198941
-0.002001
-0.00201168
-0.00202145
-0.00203029
-0.00203819
-0.00204514
-0.00205113
-0.00205617
-0.00206024
-0.00206335
-0.0020655
-0.00206669
-0.00206693
-0.00206623
-0.0020646
-0.00206208
-0.00205867
-0.0020544
-0.00204932
-0.00204346
-0.00203687
-0.00202961
-0.00202174
-0.00201334
-0.0020045
-0.0019953
-0.00198587
-0.00197634
-0.00196686
-0.00195759
-0.00194873
-0.0019405
-0.00193317
-0.00192703
-0.00192233
-0.00191928
-0.0019181
-0.00191855
6.65067e-07
1.01958e-07
1.16304e-06
3.87853e-06
8.02241e-06
1.33883e-05
1.97497e-05
2.69e-05
3.46489e-05
4.27936e-05
5.11375e-05
5.95268e-05
6.78491e-05
7.59964e-05
8.38465e-05
9.12847e-05
9.82272e-05
0.000104618
0.000110406
0.000115527
0.000119918
0.000123529
0.000126334
0.000128315
0.000129453
0.000129721
0.000129095
0.000127559
0.000125108
0.000121742
0.000117455
0.000112243
0.000106107
9.9053e-05
9.10882e-05
8.22203e-05
7.24575e-05
6.18085e-05
5.02835e-05
3.78957e-05
2.46609e-05
1.05962e-05
-4.28205e-06
-1.99586e-05
-3.64182e-05
-5.36442e-05
-7.16178e-05
-9.03188e-05
-0.000109726
-0.000129817
-0.000150573
-0.000171976
-0.000194007
-0.000216646
-0.000239867
-0.00026365
-0.000287971
-0.00031281
-0.000338146
-0.000363955
-0.000390217
-0.000416907
-0.000444005
-0.000471487
-0.000499331
-0.000527515
-0.000556016
-0.000584814
-0.000613886
-0.000643211
-0.000672765
-0.000702526
-0.00073247
-0.000762578
-0.000792827
-0.000823198
-0.000853668
-0.000884216
-0.000914819
-0.000945456
-0.000976104
-0.00100674
-0.00103735
-0.0010679
-0.00109837
-0.00112875
-0.00115901
-0.00118913
-0.00121908
-0.00124884
-0.00127839
-0.00130772
-0.00133678
-0.00136558
-0.00139408
-0.00142226
-0.00145009
-0.00147757
-0.00150466
-0.00153134
-0.00155759
-0.00158338
-0.00160871
-0.00163353
-0.00165784
-0.0016816
-0.0017048
-0.00172742
-0.00174943
-0.00177081
-0.00179154
-0.0018116
-0.00183098
-0.00184964
-0.00186756
-0.00188473
-0.00190114
-0.00191677
-0.00193159
-0.00194558
-0.00195875
-0.00197107
-0.00198253
-0.00199311
-0.0020028
-0.00201159
-0.00201948
-0.00202645
-0.00203251
-0.00203764
-0.00204186
-0.00204514
-0.00204751
-0.00204897
-0.00204952
-0.00204918
-0.00204796
-0.00204589
-0.002043
-0.0020393
-0.00203484
-0.00202965
-0.0020238
-0.00201733
-0.0020103
-0.0020028
-0.0019949
-0.00198671
-0.00197833
-0.00196988
-0.0019615
-0.00195336
-0.00194561
-0.00193843
-0.00193205
-0.00192671
-0.00192265
-0.00192002
-0.00191895
-0.00191934
-3.88199e-07
-9.48986e-07
1.24499e-07
2.66623e-06
6.43946e-06
1.13002e-05
1.70466e-05
2.34779e-05
3.04359e-05
3.77735e-05
4.53218e-05
5.29162e-05
6.04369e-05
6.77976e-05
7.49077e-05
8.16611e-05
8.79576e-05
9.37248e-05
9.89136e-05
0.000103479
0.000107368
0.000110532
0.000112928
0.000114533
0.000115328
0.000115294
0.000114409
0.000112653
0.000110016
0.000106495
0.000102086
9.67885e-05
9.05996e-05
8.35209e-05
7.55567e-05
6.67146e-05
5.70045e-05
4.64362e-05
3.50192e-05
2.27631e-05
9.67991e-06
-4.21566e-06
-1.8907e-05
-3.43776e-05
-5.06116e-05
-6.75923e-05
-8.53025e-05
-0.000103725
-0.000122841
-0.000142631
-0.000163074
-0.000184151
-0.000205841
-0.000228127
-0.000250987
-0.000274398
-0.000298342
-0.000322796
-0.000347738
-0.000373147
-0.000398999
-0.000425274
-0.00045195
-0.000479007
-0.00050642
-0.000534168
-0.00056223
-0.000590584
-0.000619209
-0.000648084
-0.000677185
-0.00070649
-0.000735976
-0.000765622
-0.00079541
-0.000825317
-0.000855324
-0.000885407
-0.000915544
-0.000945713
-0.000975894
-0.00100607
-0.00103621
-0.00106629
-0.0010963
-0.00112622
-0.00115601
-0.00118566
-0.00121515
-0.00124446
-0.00127356
-0.00130243
-0.00133105
-0.0013594
-0.00138745
-0.00141519
-0.0014426
-0.00146964
-0.0014963
-0.00152257
-0.00154841
-0.0015738
-0.00159872
-0.00162316
-0.00164708
-0.00167047
-0.00169331
-0.00171557
-0.00173724
-0.0017583
-0.00177871
-0.00179846
-0.00181754
-0.00183592
-0.00185359
-0.00187051
-0.00188669
-0.00190211
-0.00191674
-0.00193056
-0.00194358
-0.00195577
-0.00196712
-0.00197762
-0.00198725
-0.00199602
-0.0020039
-0.0020109
-0.00201702
-0.00202224
-0.00202657
-0.00203002
-0.00203258
-0.00203426
-0.00203507
-0.00203504
-0.00203416
-0.00203246
-0.00202999
-0.00202675
-0.0020228
-0.00201816
-0.00201289
-0.00200704
-0.00200069
-0.00199389
-0.00198673
-0.00197931
-0.00197172
-0.00196408
-0.00195651
-0.00194917
-0.0019422
-0.00193576
-0.00193
-0.00192511
-0.00192132
-0.00191884
-0.00191789
-0.0019184
-3.40848e-06
-3.69593e-06
-2.44978e-06
1.09558e-07
3.7346e-06
8.31299e-06
1.36867e-05
1.96621e-05
2.60822e-05
3.28292e-05
3.97781e-05
4.67832e-05
5.37119e-05
6.04682e-05
6.69772e-05
7.31598e-05
7.8928e-05
8.41988e-05
8.89088e-05
9.30119e-05
9.64693e-05
9.92417e-05
0.00010129
0.000102579
0.000103084
0.000102786
0.000101671
9.97201e-05
9.69193e-05
9.326e-05
8.87395e-05
8.33573e-05
7.7113e-05
7.00063e-05
6.2039e-05
5.3216e-05
4.35452e-05
3.30368e-05
2.17019e-05
9.55119e-06
-3.40499e-06
-1.71551e-05
-3.16854e-05
-4.69807e-05
-6.30249e-05
-7.98004e-05
-9.72887e-05
-0.000115473
-0.000134336
-0.000153863
-0.000174035
-0.000194829
-0.000216228
-0.000238209
-0.000260755
-0.000283844
-0.000307457
-0.000331574
-0.000356173
-0.000381231
-0.000406726
-0.000432638
-0.000458946
-0.000485629
-0.000512664
-0.000540029
-0.000567704
-0.000595669
-0.000623901
-0.00065238
-0.000681082
-0.000709985
-0.000739067
-0.000768307
-0.000797688
-0.000827188
-0.000856785
-0.000886458
-0.000916184
-0.000945941
-0.000975711
-0.00100547
-0.0010352
-0.00106487
-0.00109448
-0.00112398
-0.00115337
-0.00118261
-0.0012117
-0.0012406
-0.0012693
-0.00129777
-0.00132599
-0.00135395
-0.00138162
-0.00140897
-0.001436
-0.00146267
-0.00148896
-0.00151485
-0.00154033
-0.00156537
-0.00158995
-0.00161404
-0.00163763
-0.0016607
-0.00168322
-0.00170518
-0.00172655
-0.00174732
-0.00176746
-0.00178695
-0.00180577
-0.00182391
-0.00184136
-0.00185808
-0.00187406
-0.00188929
-0.00190376
-0.00191745
-0.00193034
-0.00194242
-0.00195368
-0.00196412
-0.00197371
-0.00198246
-0.00199035
-0.00199739
-0.00200356
-0.00200886
-0.00201331
-0.00201689
-0.00201962
-0.0020215
-0.00202254
-0.00202276
-0.00202218
-0.00202081
-0.00201869
-0.00201585
-0.00201231
-0.00200813
-0.00200335
-0.00199802
-0.0019922
-0.00198597
-0.0019794
-0.00197257
-0.00196559
-0.00195856
-0.00195159
-0.00194481
-0.00193836
-0.00193241
-0.00192707
-0.00192247
-0.00191877
-0.00191621
-0.00191509
-0.00191541
-8.13957e-06
-7.86079e-06
-6.26448e-06
-3.52797e-06
1.14253e-07
4.55452e-06
9.68158e-06
1.53426e-05
2.13794e-05
2.76701e-05
3.41189e-05
4.06209e-05
4.70572e-05
5.3318e-05
5.93184e-05
6.49925e-05
7.0275e-05
7.50935e-05
7.93784e-05
8.30742e-05
8.61412e-05
8.85486e-05
9.02656e-05
9.12586e-05
9.14958e-05
9.09544e-05
8.96197e-05
8.74792e-05
8.45193e-05
8.07285e-05
7.61008e-05
7.06345e-05
6.43299e-05
5.7188e-05
4.9211e-05
4.04022e-05
3.07668e-05
2.03126e-05
9.05013e-06
-3.00893e-06
-1.58531e-05
-2.94714e-05
-4.38523e-05
-5.89827e-05
-7.48477e-05
-9.14306e-05
-0.000108713
-0.000126677
-0.000145306
-0.000164586
-0.000184499
-0.000205026
-0.000226147
-0.000247842
-0.000270091
-0.000292876
-0.000316177
-0.000339974
-0.000364245
-0.000388969
-0.000414123
-0.000439689
-0.000465646
-0.000491973
-0.000518646
-0.000545646
-0.000572951
-0.000600543
-0.0006284
-0.000656499
-0.000684819
-0.000713336
-0.000742031
-0.000770883
-0.000799873
-0.000828983
-0.000858188
-0.000887467
-0.000916799
-0.000946161
-0.000975536
-0.0010049
-0.00103424
-0.00106352
-0.00109272
-0.00112184
-0.00115083
-0.00117969
-0.00120839
-0.0012369
-0.00126522
-0.00129331
-0.00132115
-0.00134873
-0.00137603
-0.00140302
-0.00142968
-0.00145599
-0.00148192
-0.00150747
-0.00153261
-0.00155731
-0.00158155
-0.00160532
-0.0016286
-0.00165136
-0.00167359
-0.00169525
-0.00171634
-0.00173683
-0.00175672
-0.00177596
-0.00179455
-0.00181247
-0.0018297
-0.00184623
-0.00186203
-0.0018771
-0.00189142
-0.00190497
-0.00191775
-0.00192974
-0.00194093
-0.00195131
-0.00196087
-0.0019696
-0.0019775
-0.00198457
-0.0019908
-0.00199619
-0.00200074
-0.00200446
-0.00200735
-0.00200942
-0.00201068
-0.00201115
-0.00201084
-0.00200978
-0.00200799
-0.0020055
-0.00200235
-0.00199858
-0.00199424
-0.00198937
-0.00198403
-0.0019783
-0.00197223
-0.00196592
-0.00195945
-0.00195292
-0.00194643
-0.00194009
-0.00193402
-0.00192838
-0.00192329
-0.00191887
-0.00191519
-0.00191243
-0.00191091
-0.00191066
-1.43119e-05
-1.32254e-05
-1.11337e-05
-8.10491e-06
-4.3036e-06
1.40922e-07
5.1407e-06
1.05955e-05
1.63732e-05
2.23439e-05
2.84109e-05
3.44961e-05
4.05124e-05
4.63597e-05
5.19441e-05
5.71927e-05
6.20484e-05
6.64548e-05
7.03524e-05
7.36854e-05
7.6409e-05
7.84902e-05
7.99022e-05
8.06169e-05
8.06044e-05
7.98382e-05
7.83006e-05
7.59799e-05
7.28652e-05
6.89466e-05
6.42163e-05
5.86698e-05
5.23058e-05
4.51254e-05
3.71314e-05
2.83281e-05
1.87203e-05
8.31414e-06
-2.88196e-06
-1.48578e-05
-2.7602e-05
-4.11034e-05
-5.53507e-05
-7.03311e-05
-8.60301e-05
-0.000102432
-0.000119521
-0.000137281
-0.000155694
-0.000174745
-0.000194418
-0.000214694
-0.000235555
-0.000256979
-0.00027895
-0.000301449
-0.000324457
-0.000347952
-0.000371913
-0.000396321
-0.000421154
-0.000446393
-0.000472017
-0.000498005
-0.000524336
-0.000550989
-0.000577944
-0.000605182
-0.000632682
-0.000660421
-0.000688377
-0.000716527
-0.000744853
-0.000773336
-0.000801956
-0.000830693
-0.000859525
-0.000888429
-0.000917386
-0.000946373
-0.000975371
-0.00100436
-0.00103332
-0.00106222
-0.00109106
-0.00111979
-0.00114842
-0.00117691
-0.00120524
-0.00123338
-0.00126133
-0.00128906
-0.00131655
-0.00134377
-0.00137072
-0.00139735
-0.00142367
-0.00144964
-0.00147524
-0.00150046
-0.00152527
-0.00154965
-0.00157359
-0.00159705
-0.00162003
-0.0016425
-0.00166444
-0.00168584
-0.00170666
-0.0017269
-0.00174654
-0.00176556
-0.00178393
-0.00180164
-0.00181867
-0.00183502
-0.00185066
-0.00186558
-0.00187976
-0.00189319
-0.00190587
-0.00191778
-0.0019289
-0.00193923
-0.00194876
-0.00195749
-0.00196541
-0.00197251
-0.0019788
-0.00198427
-0.00198893
-0.00199277
-0.00199582
-0.00199807
-0.00199954
-0.00200023
-0.00200018
-0.00199939
-0.00199791
-0.00199575
-0.00199295
-0.00198955
-0.00198559
-0.00198113
-0.00197621
-0.00197091
-0.00196527
-0.00195939
-0.00195334
-0.00194721
-0.00194109
-0.00193509
-0.0019293
-0.00192383
-0.00191882
-0.0019144
-0.00191064
-0.00190762
-0.00190554
-0.00190446
-2.16568e-05
-1.95844e-05
-1.68766e-05
-1.34714e-05
-9.40945e-06
-4.82764e-06
1.72715e-07
5.52227e-06
1.11341e-05
1.68958e-05
2.27035e-05
2.84783e-05
3.41521e-05
3.96498e-05
4.48883e-05
4.97897e-05
5.42913e-05
5.83417e-05
6.18935e-05
6.49008e-05
6.73204e-05
6.9115e-05
7.02551e-05
7.07153e-05
7.0471e-05
6.94975e-05
6.77744e-05
6.52874e-05
6.20268e-05
5.79843e-05
5.31532e-05
4.75283e-05
4.11069e-05
3.38887e-05
2.58754e-05
1.7071e-05
7.48143e-06
-2.88667e-06
-1.40256e-05
-2.59269e-05
-3.8581e-05
-5.19774e-05
-6.61053e-05
-8.09517e-05
-9.65016e-05
-0.000112739
-0.00012965
-0.00014722
-0.000165434
-0.000184275
-0.000203726
-0.000223771
-0.000244389
-0.000265563
-0.000287275
-0.000309507
-0.000332241
-0.000355455
-0.000379128
-0.00040324
-0.000427772
-0.000452704
-0.000478017
-0.000503688
-0.000529697
-0.000556024
-0.00058265
-0.000609555
-0.000636719
-0.000664119
-0.000691732
-0.000719537
-0.000747516
-0.000775651
-0.000803921
-0.000832307
-0.000860787
-0.000889338
-0.00091794
-0.000946573
-0.000975217
-0.00100385
-0.00103246
-0.00106101
-0.00108949
-0.00111787
-0.00114614
-0.00117428
-0.00120226
-0.00123007
-0.00125767
-0.00128506
-0.00131221
-0.0013391
-0.00136571
-0.00139202
-0.00141801
-0.00144366
-0.00146895
-0.00149386
-0.00151836
-0.00154245
-0.00156609
-0.00158927
-0.00161197
-0.00163417
-0.00165585
-0.001677
-0.00169758
-0.00171759
-0.001737
-0.0017558
-0.00177397
-0.00179149
-0.00180835
-0.00182453
-0.00184002
-0.0018548
-0.00186886
-0.00188219
-0.00189477
-0.00190661
-0.00191767
-0.00192796
-0.00193748
-0.0019462
-0.00195414
-0.00196128
-0.00196762
-0.00197318
-0.00197794
-0.00198191
-0.0019851
-0.00198751
-0.00198917
-0.00199007
-0.00199025
-0.00198972
-0.00198851
-0.00198664
-0.00198415
-0.00198108
-0.00197746
-0.00197335
-0.00196879
-0.00196384
-0.00195857
-0.00195303
-0.00194731
-0.00194148
-0.00193563
-0.00192986
-0.00192424
-0.00191886
-0.00191383
-0.00190926
-0.00190526
-0.00190188
-0.00189916
-0.00189709
-2.99168e-05
-2.67513e-05
-2.33187e-05
-1.94626e-05
-1.50723e-05
-1.02588e-05
-5.1397e-06
2.13036e-07
5.74258e-06
1.13733e-05
1.70137e-05
2.25785e-05
2.79984e-05
3.32138e-05
3.81612e-05
4.27715e-05
4.69799e-05
5.07332e-05
5.39887e-05
5.67089e-05
5.8857e-05
6.0397e-05
6.12964e-05
6.15287e-05
6.10722e-05
5.99061e-05
5.8011e-05
5.53715e-05
5.19763e-05
4.78174e-05
4.28886e-05
3.71854e-05
3.07055e-05
2.34482e-05
1.54143e-05
6.60628e-06
-2.97061e-06
-1.33091e-05
-2.44013e-05
-3.62391e-05
-4.88142e-05
-6.2117e-05
-7.6137e-05
-9.0862e-05
-0.000106277
-0.000122367
-0.000139117
-0.000156514
-0.000174544
-0.000193191
-0.000212439
-0.000232269
-0.000252664
-0.000273606
-0.000295079
-0.000317064
-0.000339542
-0.000362494
-0.000385898
-0.000409734
-0.000433986
-0.000458632
-0.000483653
-0.000509027
-0.000534735
-0.000560757
-0.000587075
-0.000613669
-0.000640517
-0.000667598
-0.000694889
-0.00072237
-0.000750023
-0.00077783
-0.000805772
-0.000833828
-0.000861975
-0.000890194
-0.000918463
-0.000946764
-0.000975074
-0.00100337
-0.00103164
-0.00105986
-0.00108801
-0.00111607
-0.00114401
-0.00117182
-0.00119947
-0.00122695
-0.00125423
-0.0012813
-0.00130813
-0.00133471
-0.00136101
-0.00138701
-0.0014127
-0.00143805
-0.00146304
-0.00148766
-0.00151188
-0.00153569
-0.00155906
-0.00158198
-0.00160442
-0.00162637
-0.00164781
-0.00166872
-0.00168908
-0.00170887
-0.00172807
-0.00174668
-0.00176466
-0.00178201
-0.00179871
-0.00181474
-0.00183009
-0.00184475
-0.0018587
-0.00187193
-0.00188444
-0.00189621
-0.00190722
-0.00191748
-0.00192698
-0.00193571
-0.00194367
-0.00195085
-0.00195725
-0.00196288
-0.00196774
-0.00197183
-0.00197515
-0.00197772
-0.00197955
-0.00198065
-0.00198103
-0.00198073
-0.00197977
-0.00197816
-0.00197594
-0.00197315
-0.00196983
-0.00196601
-0.00196175
-0.0019571
-0.00195212
-0.00194686
-0.0019414
-0.00193579
-0.00193011
-0.00192446
-0.00191891
-0.00191353
-0.00190839
-0.0019036
-0.00189924
-0.0018954
-0.00189196
-0.00188883
-3.88446e-05
-3.45481e-05
-3.0309e-05
-2.59183e-05
-2.11409e-05
-1.60405e-05
-1.07207e-05
-5.26345e-06
2.75759e-07
5.84598e-06
1.13828e-05
1.68107e-05
2.20579e-05
2.70651e-05
3.17795e-05
3.61456e-05
4.01067e-05
4.36123e-05
4.66201e-05
4.90948e-05
5.10042e-05
5.2317e-05
5.30023e-05
5.30326e-05
5.23854e-05
5.10423e-05
4.89869e-05
4.6205e-05
4.26851e-05
3.84181e-05
3.33973e-05
2.76182e-05
2.1079e-05
1.37798e-05
5.72147e-06
-3.0938e-06
-1.26618e-05
-2.29763e-05
-3.40296e-05
-4.58141e-05
-5.83218e-05
-7.15433e-05
-8.54676e-05
-0.000100083
-0.000115376
-0.000131332
-0.000147937
-0.000165177
-0.00018304
-0.00020151
-0.000220571
-0.000240204
-0.000260393
-0.000281121
-0.000302373
-0.00032413
-0.000346372
-0.000369079
-0.000392233
-0.000415815
-0.000439805
-0.000464185
-0.000488934
-0.000514031
-0.000539457
-0.000565195
-0.000591226
-0.000617528
-0.000644081
-0.000670862
-0.000697851
-0.000725029
-0.000752378
-0.000779878
-0.000807511
-0.000835256
-0.000863093
-0.000890999
-0.000918956
-0.000946943
-0.000974941
-0.00100293
-0.00103088
-0.00105879
-0.00108663
-0.00111437
-0.00114201
-0.00116951
-0.00119685
-0.00122403
-0.00125101
-0.00127777
-0.00130431
-0.00133059
-0.0013566
-0.00138232
-0.00140772
-0.00143279
-0.00145751
-0.00148186
-0.00150582
-0.00152937
-0.00155249
-0.00157516
-0.00159737
-0.00161908
-0.0016403
-0.00166099
-0.00168114
-0.00170073
-0.00171975
-0.00173817
-0.00175599
-0.00177318
-0.00178973
-0.00180563
-0.00182085
-0.0018354
-0.00184925
-0.0018624
-0.00187484
-0.00188655
-0.00189753
-0.00190777
-0.00191726
-0.00192599
-0.00193397
-0.00194119
-0.00194766
-0.00195336
-0.00195831
-0.00196251
-0.00196596
-0.00196867
-0.00197065
-0.00197193
-0.00197251
-0.00197241
-0.00197166
-0.00197028
-0.0019683
-0.00196576
-0.00196268
-0.00195912
-0.00195511
-0.0019507
-0.00194594
-0.00194089
-0.00193561
-0.00193015
-0.00192458
-0.00191897
-0.0019134
-0.00190793
-0.00190262
-0.00189753
-0.00189275
-0.00188836
-0.00188414
-0.0018799
-4.82036e-05
-4.27882e-05
-3.77088e-05
-3.27097e-05
-2.74766e-05
-2.20429e-05
-1.64753e-05
-1.08427e-05
-5.20853e-06
3.77469e-07
5.86946e-06
1.12137e-05
1.63482e-05
2.12122e-05
2.57533e-05
2.99245e-05
3.36806e-05
3.69792e-05
3.97809e-05
4.20496e-05
4.37541e-05
4.48665e-05
4.53606e-05
4.52106e-05
4.43936e-05
4.28913e-05
4.0689e-05
3.77744e-05
3.41369e-05
2.97677e-05
2.46598e-05
1.88087e-05
1.22119e-05
4.8694e-06
-3.21707e-06
-1.20447e-05
-2.16092e-05
-3.19053e-05
-4.29266e-05
-5.46661e-05
-6.71163e-05
-8.02676e-05
-9.41086e-05
-0.000108627
-0.00012381
-0.000139645
-0.000156119
-0.00017322
-0.000190932
-0.000209241
-0.00022813
-0.000247584
-0.000267584
-0.000288117
-0.000309166
-0.000330712
-0.000352736
-0.000375218
-0.000398141
-0.000421487
-0.000445235
-0.000469367
-0.000493863
-0.000518703
-0.000543869
-0.000569342
-0.000595105
-0.000621135
-0.000647412
-0.000673914
-0.000700621
-0.000727516
-0.000754581
-0.000781795
-0.00080914
-0.000836595
-0.00086414
-0.000891754
-0.000919419
-0.000947113
-0.000974818
-0.00100251
-0.00103018
-0.00105779
-0.00108534
-0.00111279
-0.00114014
-0.00116735
-0.00119441
-0.0012213
-0.00124799
-0.00127448
-0.00130074
-0.00132675
-0.00135249
-0.00137794
-0.00140308
-0.00142789
-0.00145236
-0.00147646
-0.00150017
-0.00152348
-0.00154637
-0.00156881
-0.00159079
-0.0016123
-0.00163331
-0.0016538
-0.00167376
-0.00169317
-0.00171202
-0.00173028
-0.00174794
-0.00176498
-0.0017814
-0.00179718
-0.00181229
-0.00182674
-0.00184051
-0.00185359
-0.00186597
-0.00187763
-0.00188858
-0.0018988
-0.00190828
-0.00191703
-0.00192504
-0.0019323
-0.00193882
-0.00194459
-0.00194963
-0.00195393
-0.0019575
-0.00196034
-0.00196247
-0.0019639
-0.00196465
-0.00196474
-0.00196418
-0.001963
-0.00196123
-0.00195889
-0.00195602
-0.00195266
-0.00194885
-0.00194463
-0.00194005
-0.00193515
-0.00192999
-0.00192462
-0.0019191
-0.00191347
-0.0019078
-0.00190217
-0.00189661
-0.00189117
-0.00188592
-0.00188093
-0.00187589
-0.00187052
-5.77884e-05
-5.12748e-05
-4.53662e-05
-3.97256e-05
-3.3973e-05
-2.81484e-05
-2.22928e-05
-1.64437e-05
-1.06565e-05
-4.98603e-06
5.24598e-07
5.83638e-06
1.09035e-05
1.56724e-05
2.00911e-05
2.41165e-05
2.77111e-05
3.08407e-05
3.34712e-05
3.5568e-05
3.70996e-05
3.80394e-05
3.83643e-05
3.80524e-05
3.70828e-05
3.54379e-05
3.31032e-05
3.00669e-05
2.63195e-05
2.1853e-05
1.66615e-05
1.07406e-05
4.08767e-06
-3.29791e-06
-1.14145e-05
-2.02585e-05
-2.98254e-05
-4.011e-05
-5.11071e-05
-6.28102e-05
-7.52117e-05
-8.83024e-05
-0.000102071
-0.000116504
-0.000131591
-0.000147319
-0.000163677
-0.000180652
-0.000198228
-0.000216392
-0.000235127
-0.000254417
-0.000274247
-0.000294602
-0.000315465
-0.000336818
-0.000358641
-0.000380917
-0.000403627
-0.000426755
-0.000450281
-0.000474184
-0.000498445
-0.000523047
-0.000547972
-0.000573201
-0.000598715
-0.000624493
-0.000650514
-0.000676756
-0.000703202
-0.000729834
-0.000756634
-0.000783583
-0.000810659
-0.000837844
-0.000865117
-0.00089246
-0.000919853
-0.000947274
-0.000974705
-0.00100213
-0.00102952
-0.00105686
-0.00108414
-0.00111132
-0.0011384
-0.00116534
-0.00119213
-0.00121876
-0.00124519
-0.00127142
-0.00129742
-0.00132318
-0.00134866
-0.00137386
-0.00139876
-0.00142333
-0.00144757
-0.00147143
-0.00149492
-0.00151801
-0.00154068
-0.00156292
-0.0015847
-0.00160601
-0.00162683
-0.00164714
-0.00166693
-0.00168617
-0.00170486
-0.00172298
-0.0017405
-0.00175742
-0.00177372
-0.00178938
-0.0018044
-0.00181877
-0.00183246
-0.00184548
-0.0018578
-0.00186943
-0.00188035
-0.00189056
-0.00190004
-0.00190881
-0.00191684
-0.00192415
-0.00193073
-0.00193657
-0.00194169
-0.00194608
-0.00194976
-0.00195272
-0.00195498
-0.00195656
-0.00195746
-0.00195771
-0.00195731
-0.00195631
-0.00195471
-0.00195255
-0.00194986
-0.00194667
-0.00194301
-0.00193893
-0.00193447
-0.00192968
-0.00192458
-0.00191924
-0.0019137
-0.001908
-0.0019022
-0.00189634
-0.00189047
-0.00188463
-0.00187887
-0.00187326
-0.00186739
-0.00186089
-6.74478e-05
-5.98377e-05
-5.31184e-05
-4.68408e-05
-4.05364e-05
-3.42654e-05
-2.80736e-05
-2.19744e-05
-1.60003e-05
-1.01979e-05
-4.61239e-06
7.19159e-07
5.76171e-06
1.04738e-05
1.48108e-05
1.87332e-05
2.2208e-05
2.52053e-05
2.76957e-05
2.96489e-05
3.10353e-05
3.18287e-05
3.20071e-05
3.15516e-05
3.04449e-05
2.8671e-05
2.62161e-05
2.30686e-05
1.92197e-05
1.46622e-05
9.39067e-06
3.4016e-06
-3.30729e-06
-1.07367e-05
-1.8885e-05
-2.77487e-05
-3.73226e-05
-4.76022e-05
-5.85829e-05
-7.02586e-05
-8.26212e-05
-9.56608e-05
-0.000109367
-0.000123727
-0.00013873
-0.000154365
-0.000170621
-0.000187484
-0.000204939
-0.000222973
-0.000241568
-0.000260712
-0.000280389
-0.000300583
-0.000321277
-0.000342453
-0.000364093
-0.000386181
-0.000408698
-0.000431626
-0.000454946
-0.000478639
-0.000502685
-0.000527069
-0.000551772
-0.000576777
-0.000602061
-0.000627605
-0.000653388
-0.000679391
-0.000705595
-0.000731985
-0.00075854
-0.000785241
-0.000812069
-0.000839004
-0.000866026
-0.000893117
-0.000920257
-0.000947426
-0.000974603
-0.00100177
-0.00102891
-0.001056
-0.00108303
-0.00110996
-0.00113678
-0.00116348
-0.00119003
-0.0012164
-0.0012426
-0.00126859
-0.00129435
-0.00131987
-0.00134513
-0.0013701
-0.00139477
-0.00141912
-0.00144314
-0.0014668
-0.00149008
-0.00151296
-0.00153544
-0.00155748
-0.00157908
-0.00160021
-0.00162086
-0.00164101
-0.00166064
-0.00167974
-0.00169828
-0.00171626
-0.00173366
-0.00175047
-0.00176666
-0.00178223
-0.00179717
-0.00181146
-0.00182509
-0.00183805
-0.00185034
-0.00186193
-0.00187284
-0.00188304
-0.00189253
-0.00190131
-0.00190938
-0.00191673
-0.00192336
-0.00192927
-0.00193447
-0.00193895
-0.00194273
-0.0019458
-0.00194818
-0.00194988
-0.00195092
-0.00195131
-0.00195106
-0.00195021
-0.00194876
-0.00194675
-0.0019442
-0.00194113
-0.00193759
-0.00193362
-0.00192924
-0.00192449
-0.00191942
-0.00191406
-0.00190845
-0.00190263
-0.00189664
-0.00189052
-0.00188431
-0.00187804
-0.00187174
-0.00186549
-0.00185878
-0.00185117
-7.70645e-05
-6.83546e-05
-6.08215e-05
-5.3917e-05
-4.70602e-05
-4.0314e-05
-3.37418e-05
-2.73538e-05
-2.11633e-05
-1.51989e-05
-9.4998e-06
-4.1046e-06
9.54441e-07
5.64627e-06
9.93671e-06
1.37925e-05
1.71836e-05
2.00822e-05
2.24619e-05
2.42967e-05
2.55606e-05
2.62295e-05
2.62824e-05
2.57023e-05
2.4474e-05
2.25837e-05
2.00189e-05
1.6769e-05
1.28259e-05
8.18321e-06
2.83587e-06
-3.21936e-06
-9.98414e-06
-1.74586e-05
-2.56409e-05
-3.45273e-05
-4.41132e-05
-5.4394e-05
-6.53657e-05
-7.70223e-05
-8.93552e-05
-0.000102354
-0.000116008
-0.000130306
-0.000145238
-0.000160793
-0.000176959
-0.000193725
-0.000211073
-0.000228991
-0.000247463
-0.000266476
-0.000286016
-0.000306066
-0.000326607
-0.000347624
-0.0003691
-0.000391017
-0.000413358
-0.000436105
-0.000459238
-0.000482738
-0.000506589
-0.000530773
-0.000555273
-0.000580071
-0.000605145
-0.000630474
-0.000656039
-0.000681821
-0.000707804
-0.00073397
-0.000760299
-0.000786773
-0.000813372
-0.000840076
-0.000866867
-0.000893726
-0.000920632
-0.000947568
-0.000974512
-0.00100145
-0.00102835
-0.00105521
-0.001082
-0.00110871
-0.0011353
-0.00116177
-0.00118809
-0.00121424
-0.00124021
-0.00126598
-0.00129152
-0.00131683
-0.00134187
-0.00136663
-0.0013911
-0.00141525
-0.00143907
-0.00146253
-0.00148562
-0.00150833
-0.00153062
-0.0015525
-0.00157393
-0.0015949
-0.00161539
-0.00163539
-0.00165488
-0.00167385
-0.00169227
-0.00171013
-0.00172742
-0.00174413
-0.00176023
-0.00177572
-0.00179058
-0.00180481
-0.00181839
-0.00183131
-0.00184356
-0.00185514
-0.00186603
-0.00187623
-0.00188573
-0.00189454
-0.00190264
-0.00191003
-0.00191671
-0.00192269
-0.00192796
-0.00193253
-0.00193639
-0.00193957
-0.00194206
-0.00194388
-0.00194503
-0.00194554
-0.00194542
-0.00194469
-0.00194337
-0.00194147
-0.00193903
-0.00193607
-0.00193262
-0.00192871
-0.00192437
-0.00191963
-0.00191454
-0.00190912
-0.0019034
-0.00189743
-0.00189122
-0.00188481
-0.00187822
-0.00187148
-0.00186464
-0.00185774
-0.0018502
-0.00184151
-8.65149e-05
-7.6729e-05
-6.83707e-05
-6.08335e-05
-5.34306e-05
-4.62075e-05
-3.92318e-05
-3.25192e-05
-2.60793e-05
-1.99273e-05
-1.40893e-05
-8.59927e-06
-3.48817e-06
1.21849e-06
5.49522e-06
9.31535e-06
1.26526e-05
1.54815e-05
1.77776e-05
1.95177e-05
2.06795e-05
2.12423e-05
2.11875e-05
2.04996e-05
1.91646e-05
1.71701e-05
1.45051e-05
1.11605e-05
7.12934e-06
2.40605e-06
-3.0139e-06
-9.13346e-06
-1.59538e-05
-2.34742e-05
-3.16924e-05
-4.0605e-05
-5.02079e-05
-6.04965e-05
-7.14663e-05
-8.31115e-05
-9.54232e-05
-0.000108391
-0.000122003
-0.00013625
-0.000151123
-0.000166611
-0.000182702
-0.000199383
-0.000216638
-0.000234455
-0.00025282
-0.000271718
-0.000291136
-0.000311057
-0.000331463
-0.000352338
-0.000373666
-0.000395431
-0.000417614
-0.000440196
-0.00046316
-0.000486486
-0.000510159
-0.000534163
-0.000558479
-0.000583089
-0.00060797
-0.000633103
-0.000658469
-0.00068405
-0.00070983
-0.000735791
-0.000761914
-0.000788179
-0.000814568
-0.000841062
-0.000867641
-0.000894286
-0.000920979
-0.000947701
-0.000974431
-0.00100115
-0.00102785
-0.00105449
-0.00108107
-0.00110756
-0.00113395
-0.0011602
-0.00118631
-0.00121226
-0.00123803
-0.00126359
-0.00128894
-0.00131404
-0.00133889
-0.00136347
-0.00138774
-0.00141171
-0.00143535
-0.00145864
-0.00148156
-0.0015041
-0.00152623
-0.00154795
-0.00156923
-0.00159006
-0.00161041
-0.00163028
-0.00164965
-0.0016685
-0.00168681
-0.00170457
-0.00172177
-0.00173838
-0.00175441
-0.00176982
-0.00178463
-0.0017988
-0.00181234
-0.00182523
-0.00183746
-0.00184902
-0.00185991
-0.00187012
-0.00187964
-0.00188847
-0.0018966
-0.00190404
-0.00191077
-0.00191681
-0.00192216
-0.0019268
-0.00193075
-0.00193402
-0.00193661
-0.00193853
-0.00193979
-0.00194041
-0.00194039
-0.00193977
-0.00193854
-0.00193674
-0.00193439
-0.0019315
-0.00192811
-0.00192423
-0.0019199
-0.00191514
-0.00190999
-0.00190448
-0.00189862
-0.00189245
-0.00188599
-0.00187927
-0.00187229
-0.00186507
-0.00185767
-0.00185013
-0.00184177
-0.00183203
-9.56626e-05
-8.48571e-05
-7.56849e-05
-6.75039e-05
-5.95505e-05
-5.1854e-05
-4.44707e-05
-3.74135e-05
-3.06957e-05
-2.43306e-05
-1.83328e-05
-1.2725e-05
-7.53332e-06
-2.78054e-06
1.51248e-06
5.32412e-06
8.63244e-06
1.14153e-05
1.36507e-05
1.53176e-05
1.63966e-05
1.68703e-05
1.67231e-05
1.59415e-05
1.45125e-05
1.24249e-05
9.66897e-06
6.23719e-06
2.12345e-06
-2.67689e-06
-8.16739e-06
-1.43502e-05
-2.12259e-05
-2.87932e-05
-3.70496e-05
-4.59918e-05
-5.56165e-05
-6.59192e-05
-7.68947e-05
-8.8536e-05
-0.000100834
-0.000113779
-0.000127361
-0.000141569
-0.000156395
-0.000171829
-0.000187857
-0.000204466
-0.000221642
-0.000239373
-0.000257645
-0.000276445
-0.000295757
-0.000315564
-0.000335851
-0.000356601
-0.000377798
-0.000399427
-0.000421469
-0.000443904
-0.000466716
-0.000489887
-0.000513402
-0.000537243
-0.000561394
-0.000585832
-0.000610539
-0.000635494
-0.00066068
-0.00068608
-0.000711676
-0.000737451
-0.000763386
-0.000789462
-0.00081566
-0.000841961
-0.000868347
-0.0008948
-0.000921298
-0.000947825
-0.000974361
-0.00100089
-0.00102739
-0.00105384
-0.00108022
-0.00110652
-0.00113271
-0.00115878
-0.0011847
-0.00121046
-0.00123605
-0.00126143
-0.00128659
-0.00131152
-0.00133619
-0.00136059
-0.0013847
-0.00140851
-0.00143198
-0.00145511
-0.00147788
-0.00150027
-0.00152227
-0.00154384
-0.00156499
-0.00158569
-0.00160593
-0.00162568
-0.00164494
-0.00166368
-0.0016819
-0.00169957
-0.00171669
-0.00173323
-0.00174919
-0.00176455
-0.0017793
-0.00179344
-0.00180695
-0.00181981
-0.00183203
-0.00184358
-0.00185447
-0.00186469
-0.00187423
-0.00188309
-0.00189126
-0.00189875
-0.00190554
-0.00191164
-0.00191705
-0.00192177
-0.0019258
-0.00192915
-0.00193183
-0.00193384
-0.00193519
-0.0019359
-0.00193598
-0.00193544
-0.00193429
-0.00193256
-0.00193027
-0.00192743
-0.00192407
-0.0019202
-0.00191585
-0.00191105
-0.00190581
-0.00190018
-0.00189416
-0.00188777
-0.00188103
-0.00187397
-0.00186658
-0.00185888
-0.00185093
-0.00184275
-0.0018336