/*--------------------------------*- C++ -*----------------------------------*\
  =========                 |
  \\      /  F ield         | OpenFOAM: The Open Source CFD Toolbox
   \\    /   O peration     | Website:  https://openfoam.org
    \\  /    A nd           | Version:  7
     \\/     M anipulation  |
\*---------------------------------------------------------------------------*/
FoamFile
{
    version     2.0;
    format      ascii;
    class       surfaceScalarField;
    location    "0.4125";
    object      phi;
}
// * * * * * * * * * * * * * * * * * * * * * * * * * * * * * * * * * * * * * //

dimensions      [0 3 -1 0 0 0 0];

internalField   nonuniform List<scalar> 
101920
(
-1.48188e-13
1.41172e-13
-5.17847e-13
3.67505e-13
-9.41459e-13
4.21223e-13
-1.29226e-12
3.51514e-13
-1.49558e-12
2.07145e-13
-1.51313e-12
1.84849e-14
-1.32408e-12
-1.9169e-13
-9.16271e-13
-4.09322e-13
-2.85914e-13
-6.28844e-13
5.62453e-13
-8.47023e-13
1.62032e-12
-1.05911e-12
2.87985e-12
-1.26095e-12
4.33375e-12
-1.45221e-12
5.97218e-12
-1.63485e-12
7.78262e-12
-1.80904e-12
9.75263e-12
-1.97233e-12
1.18718e-11
-2.12246e-12
1.41312e-11
-2.25986e-12
1.65209e-11
-2.38689e-12
1.90294e-11
-2.50524e-12
2.16449e-11
-2.61456e-12
2.43566e-11
-2.71345e-12
2.71558e-11
-2.80129e-12
3.00342e-11
-2.87893e-12
3.2983e-11
-2.94781e-12
3.5993e-11
-3.00877e-12
3.9055e-11
-3.06165e-12
4.21609e-11
-3.1061e-12
4.53034e-11
-3.14239e-12
4.84753e-11
-3.17133e-12
5.16693e-11
-3.19357e-12
5.48782e-11
-3.2092e-12
5.80956e-11
-3.21812e-12
6.13155e-11
-3.22044e-12
6.45324e-11
-3.21664e-12
6.77404e-11
-3.20734e-12
7.0934e-11
-3.19299e-12
7.41079e-11
-3.17377e-12
7.7257e-11
-3.14961e-12
8.03768e-11
-3.12049e-12
8.34631e-11
-3.08664e-12
8.65119e-11
-3.04857e-12
8.95193e-11
-3.00678e-12
9.24813e-11
-2.9616e-12
9.53944e-11
-2.91309e-12
9.82551e-11
-2.86121e-12
1.0106e-10
-2.80595e-12
1.03807e-10
-2.74742e-12
1.06493e-10
-2.68587e-12
1.09115e-10
-2.62176e-12
1.11671e-10
-2.55548e-12
1.14158e-10
-2.48711e-12
1.16575e-10
-2.41656e-12
1.18918e-10
-2.3438e-12
1.21186e-10
-2.26897e-12
1.23378e-10
-2.19232e-12
1.25492e-10
-2.11401e-12
1.27525e-10
-2.03416e-12
1.29478e-10
-1.95288e-12
1.31348e-10
-1.87029e-12
1.33134e-10
-1.78645e-12
1.34835e-10
-1.70142e-12
1.36449e-10
-1.61527e-12
1.37977e-10
-1.52809e-12
1.39416e-10
-1.43999e-12
1.40767e-10
-1.35105e-12
1.42028e-10
-1.26134e-12
1.43199e-10
-1.17097e-12
1.44278e-10
-1.08001e-12
1.45266e-10
-9.88457e-13
1.46162e-10
-8.96335e-13
1.46965e-10
-8.03729e-13
1.47675e-10
-7.10736e-13
1.48292e-10
-6.17401e-13
1.48816e-10
-5.23742e-13
1.49245e-10
-4.29801e-13
1.49581e-10
-3.35645e-13
1.49822e-10
-2.41329e-13
1.49969e-10
-1.46887e-13
1.50021e-10
-5.23622e-14
1.49978e-10
4.21975e-14
1.49841e-10
1.36779e-13
1.4961e-10
2.31394e-13
1.49284e-10
3.26002e-13
1.48864e-10
4.20474e-13
1.48349e-10
5.14672e-13
1.47741e-10
6.0857e-13
1.47038e-10
7.02227e-13
1.46243e-10
7.95647e-13
1.45354e-10
8.88701e-13
1.44373e-10
9.81231e-13
1.433e-10
1.07318e-12
1.42135e-10
1.1646e-12
1.4088e-10
1.25551e-12
1.39534e-10
1.34584e-12
1.38099e-10
1.4354e-12
1.36575e-10
1.52403e-12
1.34964e-10
1.61168e-12
1.33266e-10
1.69839e-12
1.31482e-10
1.78417e-12
1.29613e-10
1.86884e-12
1.27661e-10
1.95217e-12
1.25627e-10
2.03411e-12
1.23513e-10
2.11464e-12
1.2132e-10
2.1936e-12
1.19049e-10
2.27073e-12
1.16703e-10
2.34599e-12
1.14283e-10
2.41954e-12
1.11792e-10
2.49128e-12
1.09232e-10
2.56068e-12
1.06605e-10
2.62736e-12
1.03914e-10
2.69143e-12
1.01161e-10
2.75311e-12
9.83484e-11
2.81216e-12
9.54809e-11
2.86794e-12
9.25606e-11
2.92026e-12
8.95909e-11
2.96936e-12
8.65755e-11
3.01524e-12
8.35188e-11
3.05729e-12
8.04245e-11
3.09489e-12
7.72964e-11
3.12805e-12
7.41389e-11
3.15706e-12
7.09568e-11
3.18177e-12
6.77555e-11
3.2016e-12
6.454e-11
3.21605e-12
6.13154e-11
3.22491e-12
5.80875e-11
3.22803e-12
5.48623e-11
3.22517e-12
5.16461e-11
3.21608e-12
4.84453e-11
3.20056e-12
4.52672e-11
3.17824e-12
4.21187e-11
3.14861e-12
3.90072e-11
3.11142e-12
3.59404e-11
3.06658e-12
3.29266e-11
3.0138e-12
2.99745e-11
2.9524e-12
2.70927e-11
2.88187e-12
2.42898e-11
2.80226e-12
2.15753e-11
2.71366e-12
1.89596e-11
2.61555e-12
1.64526e-11
2.50713e-12
1.40644e-11
2.38811e-12
1.18052e-11
2.25866e-12
9.68622e-12
2.11863e-12
7.7186e-12
1.96754e-12
5.91301e-12
1.80522e-12
4.28009e-12
1.63213e-12
2.83076e-12
1.44876e-12
1.57561e-12
1.25519e-12
5.23874e-13
1.05184e-12
-3.1695e-13
8.40321e-13
-9.40897e-13
6.2336e-13
-1.34417e-12
4.03891e-13
-1.52783e-12
1.85297e-13
-1.50243e-12
-2.55989e-14
-1.29333e-12
-2.13991e-13
-9.44956e-13
-3.54494e-13
-5.2823e-13
-4.13495e-13
-1.57919e-13
-3.48282e-13
-1.28633e-13
-3.74818e-13
5.1457e-13
-1.04299e-12
1.04025e-12
-1.71799e-12
1.09584e-12
-2.18216e-12
8.11392e-13
-2.27719e-12
3.00186e-13
-1.90076e-12
-3.5677e-13
-9.93986e-13
-1.09911e-12
4.76008e-13
-1.88272e-12
2.52603e-12
-2.67984e-12
5.15723e-12
-3.47478e-12
8.35695e-12
-4.25572e-12
1.21056e-11
-5.01116e-12
1.63827e-11
-5.73308e-12
2.11666e-11
-6.41901e-12
2.64309e-11
-7.06932e-12
3.21458e-11
-7.68304e-12
3.82805e-11
-8.25722e-12
4.48067e-11
-8.78953e-12
5.16975e-11
-9.28035e-12
5.89252e-11
-9.73214e-12
6.64608e-11
-1.0147e-11
7.4275e-11
-1.05255e-11
8.23405e-11
-1.08672e-11
9.06319e-11
-1.11722e-11
9.91249e-11
-1.1442e-11
1.07795e-10
-1.16786e-11
1.16619e-10
-1.18837e-11
1.25571e-10
-1.20581e-11
1.34631e-10
-1.22024e-11
1.43777e-10
-1.23177e-11
1.52989e-10
-1.24057e-11
1.62248e-10
-1.24678e-11
1.71535e-10
-1.25048e-11
1.80832e-10
-1.25175e-11
1.90121e-10
-1.25068e-11
1.99388e-10
-1.24738e-11
2.08615e-10
-1.24199e-11
2.17789e-10
-1.23463e-11
2.26895e-10
-1.22541e-11
2.35918e-10
-1.21438e-11
2.44847e-10
-1.20162e-11
2.5367e-10
-1.18719e-11
2.62374e-10
-1.17118e-11
2.70949e-10
-1.15371e-11
2.79386e-10
-1.13488e-11
2.87673e-10
-1.11475e-11
2.95801e-10
-1.09341e-11
3.03762e-10
-1.07088e-11
3.11547e-10
-1.04722e-11
3.19149e-10
-1.02249e-11
3.26561e-10
-9.96759e-12
3.33776e-10
-9.70128e-12
3.40786e-10
-9.42657e-12
3.47586e-10
-9.14385e-12
3.54169e-10
-8.8535e-12
3.60532e-10
-8.55594e-12
3.66668e-10
-8.2516e-12
3.72574e-10
-7.9409e-12
3.78245e-10
-7.62432e-12
3.83676e-10
-7.3024e-12
3.88865e-10
-6.9756e-12
3.93807e-10
-6.64422e-12
3.98499e-10
-6.3085e-12
4.02939e-10
-5.96872e-12
4.07123e-10
-5.62526e-12
4.11049e-10
-5.27842e-12
4.14715e-10
-4.92847e-12
4.18119e-10
-4.57568e-12
4.21259e-10
-4.22035e-12
4.24132e-10
-3.86271e-12
4.26737e-10
-3.50294e-12
4.29074e-10
-3.14129e-12
4.3114e-10
-2.778e-12
4.32936e-10
-2.41329e-12
4.34458e-10
-2.04729e-12
4.35708e-10
-1.68013e-12
4.36684e-10
-1.31206e-12
4.37386e-10
-9.43326e-13
4.37813e-10
-5.74121e-13
4.37965e-10
-2.04572e-13
4.37841e-10
1.65189e-13
4.37443e-10
5.34994e-13
4.3677e-10
9.04687e-13
4.35821e-10
1.27412e-12
4.34599e-10
1.64307e-12
4.33103e-10
2.01122e-12
4.31333e-10
2.37831e-12
4.29292e-10
2.74421e-12
4.26978e-10
3.1089e-12
4.24394e-10
3.47221e-12
4.21542e-10
3.83381e-12
4.18423e-10
4.19332e-12
4.15037e-10
4.55052e-12
4.11388e-10
4.90526e-12
4.07477e-10
5.25739e-12
4.03306e-10
5.60662e-12
3.98878e-10
5.95253e-12
3.94196e-10
6.29471e-12
3.89262e-10
6.63285e-12
3.8408e-10
6.9668e-12
3.78652e-10
7.29627e-12
3.72984e-10
7.62076e-12
3.67079e-10
7.93976e-12
3.60941e-10
8.25299e-12
3.54574e-10
8.56009e-12
3.47985e-10
8.86044e-12
3.41179e-10
9.15338e-12
3.3416e-10
9.43858e-12
3.26935e-10
9.7159e-12
3.19511e-10
9.98472e-12
3.11895e-10
1.0244e-11
3.04094e-10
1.04929e-11
2.96116e-10
1.07312e-11
2.87969e-10
1.09587e-11
2.79663e-10
1.11744e-11
2.71207e-10
1.13771e-11
2.6261e-10
1.15663e-11
2.53883e-10
1.17416e-11
2.45037e-10
1.19026e-11
2.36085e-10
1.20477e-11
2.27038e-10
1.21759e-11
2.1791e-10
1.22864e-11
2.08712e-10
1.23789e-11
1.99462e-10
1.24525e-11
1.90172e-10
1.25058e-11
1.80859e-10
1.25379e-11
1.7154e-10
1.25477e-11
1.62232e-10
1.25342e-11
1.52952e-10
1.24962e-11
1.43719e-10
1.24329e-11
1.34554e-10
1.23433e-11
1.25476e-10
1.2226e-11
1.16508e-10
1.20797e-11
1.07671e-10
1.19034e-11
9.8988e-11
1.16962e-11
9.04831e-11
1.1457e-11
8.21814e-11
1.1184e-11
7.4108e-11
1.0876e-11
6.62885e-11
1.05325e-11
5.87503e-11
1.01526e-11
5.15217e-11
9.73523e-12
4.46307e-11
9.27896e-12
3.81054e-11
8.78336e-12
3.19747e-11
8.2484e-12
2.62682e-11
7.67376e-12
2.10145e-11
7.0592e-12
1.62409e-11
6.40558e-12
1.19738e-11
5.71503e-12
8.23793e-12
4.99026e-12
5.05517e-12
4.23467e-12
2.44156e-12
3.45391e-12
4.0568e-13
2.65764e-12
-1.05264e-12
1.86e-12
-1.9454e-12
1.07927e-12
-2.30406e-12
3.39782e-13
-2.19193e-12
-3.20587e-13
-1.72006e-12
-8.39013e-13
-1.04933e-12
-1.12063e-12
-3.9302e-13
-1.04601e-12
-5.05958e-13
-4.27215e-13
9.39955e-13
-1.10148e-12
1.72041e-12
-1.65889e-12
1.6603e-12
-1.84263e-12
9.92975e-13
-1.45495e-12
-9.34188e-14
-3.54346e-13
-1.45822e-12
1.54666e-12
-2.99791e-12
4.2969e-12
-4.63384e-12
7.92189e-12
-6.30843e-12
1.24304e-11
-7.98337e-12
1.78135e-11
-9.63368e-12
2.40466e-11
-1.12402e-11
3.10984e-11
-1.27866e-11
3.89361e-11
-1.42613e-11
4.75242e-11
-1.5659e-11
5.68221e-11
-1.69777e-11
6.67849e-11
-1.82159e-11
7.73674e-11
-1.93711e-11
8.85259e-11
-2.04412e-11
1.00218e-10
-2.14267e-11
1.12401e-10
-2.233e-11
1.25031e-10
-2.31539e-11
1.38065e-10
-2.39e-11
1.51462e-10
-2.45694e-11
1.65183e-10
-2.51636e-11
1.79189e-10
-2.5685e-11
1.93443e-10
-2.61367e-11
2.07907e-10
-2.65216e-11
2.22546e-10
-2.68417e-11
2.37327e-10
-2.7099e-11
2.52216e-10
-2.7296e-11
2.67184e-10
-2.74354e-11
2.82199e-10
-2.75198e-11
2.97234e-10
-2.75514e-11
3.1226e-10
-2.75324e-11
3.27251e-10
-2.74647e-11
3.42181e-10
-2.73506e-11
3.57027e-10
-2.71923e-11
3.71765e-10
-2.69921e-11
3.86375e-10
-2.67523e-11
4.00834e-10
-2.64748e-11
4.15123e-10
-2.61611e-11
4.29224e-10
-2.58129e-11
4.43117e-10
-2.54318e-11
4.56788e-10
-2.50198e-11
4.70218e-10
-2.45787e-11
4.83395e-10
-2.41102e-11
4.96302e-10
-2.36158e-11
5.08927e-10
-2.3097e-11
5.21256e-10
-2.25547e-11
5.33278e-10
-2.19903e-11
5.44982e-10
-2.14052e-11
5.56356e-10
-2.08009e-11
5.6739e-10
-2.01786e-11
5.78075e-10
-1.95394e-11
5.88403e-10
-1.88843e-11
5.98365e-10
-1.82142e-11
6.07954e-10
-1.75301e-11
6.17161e-10
-1.6833e-11
6.25982e-10
-1.61237e-11
6.34409e-10
-1.54032e-11
6.42436e-10
-1.46723e-11
6.50058e-10
-1.39318e-11
6.57271e-10
-1.31823e-11
6.64069e-10
-1.24245e-11
6.70449e-10
-1.16592e-11
6.76406e-10
-1.08869e-11
6.81938e-10
-1.01082e-11
6.8704e-10
-9.32359e-12
6.9171e-10
-8.5338e-12
6.95946e-10
-7.73931e-12
6.99744e-10
-6.9406e-12
7.03103e-10
-6.13813e-12
7.06022e-10
-5.33237e-12
7.08498e-10
-4.52374e-12
7.1053e-10
-3.71261e-12
7.12117e-10
-2.89944e-12
7.13258e-10
-2.08469e-12
7.13952e-10
-1.26881e-12
7.14199e-10
-4.52153e-13
7.14e-10
3.64954e-13
7.13352e-10
1.18211e-12
7.12258e-10
1.99888e-12
7.10718e-10
2.81488e-12
7.08731e-10
3.62975e-12
7.06299e-10
4.44305e-12
7.03423e-10
5.25423e-12
7.00105e-10
6.06277e-12
6.96346e-10
6.86828e-12
6.92148e-10
7.67042e-12
6.87513e-10
8.46876e-12
6.82444e-10
9.26269e-12
6.76943e-10
1.00516e-11
6.71014e-10
1.08348e-11
6.6466e-10
1.16119e-11
6.57884e-10
1.23823e-11
6.50692e-10
1.31454e-11
6.43087e-10
1.39004e-11
6.35074e-10
1.46465e-11
6.26658e-10
1.53829e-11
6.17846e-10
1.6109e-11
6.08643e-10
1.68241e-11
5.99056e-10
1.7527e-11
5.89093e-10
1.82168e-11
5.7876e-10
1.88927e-11
5.68067e-10
1.95539e-11
5.57022e-10
2.01989e-11
5.45635e-10
2.08265e-11
5.33915e-10
2.14357e-11
5.21874e-10
2.20257e-11
5.09523e-10
2.25951e-11
4.96874e-10
2.31422e-11
4.83941e-10
2.36653e-11
4.70736e-10
2.41636e-11
4.57273e-10
2.46359e-11
4.43571e-10
2.50802e-11
4.29643e-10
2.54946e-11
4.15507e-10
2.58775e-11
4.01181e-10
2.62278e-11
3.86685e-10
2.65438e-11
3.72038e-10
2.68232e-11
3.57262e-10
2.70637e-11
3.42378e-10
2.72636e-11
3.2741e-10
2.74213e-11
3.12381e-10
2.75345e-11
2.97318e-10
2.7601e-11
2.82247e-10
2.76187e-11
2.67196e-10
2.75853e-11
2.52194e-10
2.74985e-11
2.37272e-10
2.73558e-11
2.2246e-10
2.71551e-11
2.07791e-10
2.68942e-11
1.93301e-10
2.65703e-11
1.79024e-10
2.61809e-11
1.64996e-10
2.57237e-11
1.51255e-10
2.51968e-11
1.37841e-10
2.45976e-11
1.24794e-10
2.39234e-11
1.12155e-10
2.3172e-11
9.9965e-11
2.23418e-11
8.8268e-11
2.14313e-11
7.71079e-11
2.04387e-11
6.65284e-11
1.93627e-11
5.65728e-11
1.82031e-11
4.7285e-11
1.69605e-11
3.87084e-11
1.56357e-11
3.08836e-11
1.4231e-11
2.38481e-11
1.27506e-11
1.76358e-11
1.12017e-11
1.22761e-11
9.59407e-12
7.79e-12
7.94075e-12
4.1861e-12
6.26138e-12
1.45668e-12
4.58551e-12
-4.24764e-13
2.95476e-12
-1.50799e-12
1.42384e-12
-1.87688e-12
6.46674e-14
-1.67091e-12
-1.02186e-12
-1.09845e-12
-1.68879e-12
-4.35091e-13
-1.73817e-12
-9.40832e-13
-3.54022e-13
1.29101e-12
-8.19077e-13
2.18562e-12
-9.99125e-13
1.84616e-12
-6.17913e-13
6.13063e-13
5.34615e-13
-1.25098e-12
2.61565e-12
-3.54314e-12
5.73198e-12
-6.11205e-12
9.94496e-12
-8.84394e-12
1.52852e-11
-1.16505e-11
2.17643e-11
-1.44659e-11
2.93765e-11
-1.72452e-11
3.80987e-11
-1.99576e-11
4.78943e-11
-2.25789e-11
5.87207e-11
-2.50892e-11
7.05323e-11
-2.74744e-11
8.32801e-11
-2.97272e-11
9.69105e-11
-3.18444e-11
1.11367e-10
-3.3824e-11
1.26591e-10
-3.56638e-11
1.42526e-10
-3.73628e-11
1.59116e-10
-3.89222e-11
1.76306e-10
-4.03448e-11
1.94041e-10
-4.1634e-11
2.12266e-10
-4.2793e-11
2.30927e-10
-4.38244e-11
2.49973e-10
-4.47314e-11
2.69354e-10
-4.55181e-11
2.89022e-10
-4.61889e-11
3.0893e-10
-4.67482e-11
3.2903e-10
-4.71997e-11
3.49281e-10
-4.75471e-11
3.69639e-10
-4.77944e-11
3.90065e-10
-4.79457e-11
4.10519e-10
-4.80052e-11
4.30965e-10
-4.79769e-11
4.51365e-10
-4.78646e-11
4.71686e-10
-4.76718e-11
4.91896e-10
-4.74019e-11
5.11962e-10
-4.70586e-11
5.31855e-10
-4.66456e-11
5.51547e-10
-4.61663e-11
5.71011e-10
-4.56241e-11
5.9022e-10
-4.50219e-11
6.09151e-10
-4.43627e-11
6.27779e-10
-4.36493e-11
6.46084e-10
-4.28846e-11
6.64045e-10
-4.20714e-11
6.81641e-10
-4.12125e-11
6.98855e-10
-4.03105e-11
7.15669e-10
-3.93678e-11
7.32065e-10
-3.83866e-11
7.48028e-10
-3.7369e-11
7.63544e-10
-3.63174e-11
7.78599e-10
-3.52338e-11
7.93179e-10
-3.41203e-11
8.07273e-10
-3.29788e-11
8.20869e-10
-3.18109e-11
8.33957e-10
-3.06184e-11
8.46526e-10
-2.9403e-11
8.58568e-10
-2.81661e-11
8.70073e-10
-2.69093e-11
8.81034e-10
-2.5634e-11
8.91443e-10
-2.43417e-11
9.01293e-10
-2.30335e-11
9.10578e-10
-2.17106e-11
9.19292e-10
-2.03743e-11
9.2743e-10
-1.90256e-11
9.34987e-10
-1.76655e-11
9.41957e-10
-1.62951e-11
9.48338e-10
-1.49154e-11
9.54125e-10
-1.35273e-11
9.59315e-10
-1.21317e-11
9.63905e-10
-1.07294e-11
9.67893e-10
-9.32121e-12
9.71277e-10
-7.9079e-12
9.74054e-10
-6.49024e-12
9.76223e-10
-5.06899e-12
9.77783e-10
-3.64489e-12
9.78733e-10
-2.21869e-12
9.79071e-10
-7.91098e-13
9.78799e-10
6.37231e-13
9.77916e-10
2.06562e-12
9.76421e-10
3.49331e-12
9.74317e-10
4.91956e-12
9.71603e-10
6.34365e-12
9.68281e-10
7.76491e-12
9.64353e-10
9.18257e-12
9.5982e-10
1.05957e-11
9.54685e-10
1.20035e-11
9.4895e-10
1.34051e-11
9.42619e-10
1.47997e-11
9.35696e-10
1.61866e-11
9.28183e-10
1.75646e-11
9.20086e-10
1.89328e-11
9.11408e-10
2.029e-11
9.02156e-10
2.1635e-11
8.92335e-10
2.2967e-11
8.8195e-10
2.42848e-11
8.71011e-10
2.55869e-11
8.59522e-10
2.6872e-11
8.47493e-10
2.81387e-11
8.34931e-10
2.93858e-11
8.21847e-10
3.06115e-11
8.08251e-10
3.18141e-11
7.94152e-10
3.29919e-11
7.79562e-10
3.41435e-11
7.64494e-10
3.5267e-11
7.48961e-10
3.63601e-11
7.32977e-10
3.74206e-11
7.16556e-10
3.84468e-11
6.99714e-10
3.94367e-11
6.82469e-10
4.03878e-11
6.64837e-10
4.12972e-11
6.46838e-10
4.21626e-11
6.28492e-10
4.29818e-11
6.09819e-10
4.37524e-11
5.90843e-10
4.44711e-11
5.71586e-10
4.51346e-11
5.52074e-10
4.57404e-11
5.32332e-10
4.62858e-11
5.12387e-10
4.67675e-11
4.9227e-10
4.71819e-11
4.72009e-10
4.75255e-11
4.51635e-10
4.77949e-11
4.31184e-10
4.79869e-11
4.10687e-10
4.80975e-11
3.90183e-10
4.81231e-11
3.69708e-10
4.806e-11
3.49303e-10
4.79043e-11
3.29007e-10
4.76518e-11
3.08863e-10
4.72987e-11
2.88916e-10
4.68412e-11
2.69211e-10
4.62753e-11
2.49795e-10
4.55966e-11
2.30718e-10
4.48009e-11
2.1203e-10
4.38848e-11
1.93782e-10
4.28448e-11
1.76028e-10
4.16771e-11
1.58822e-10
4.03778e-11
1.4222e-10
3.8944e-11
1.26276e-10
3.73736e-11
1.1105e-10
3.56647e-11
9.65966e-11
3.38158e-11
8.2973e-11
3.18266e-11
7.0234e-11
2.96986e-11
5.84338e-11
2.74352e-11
4.76239e-11
2.50412e-11
3.78504e-11
2.25247e-11
2.91534e-11
1.98982e-11
2.15661e-11
1.71803e-11
1.51119e-11
1.43952e-11
9.79976e-12
1.15758e-11
5.61781e-12
8.76817e-12
2.52813e-12
6.03794e-12
4.64404e-13
3.47475e-12
-6.71799e-13
1.19442e-12
-1.02701e-12
-6.55192e-13
-8.18843e-13
-1.87817e-12
-3.54888e-13
-2.21019e-12
-1.30008e-12
-2.06698e-13
1.4976e-12
-3.08797e-13
2.28136e-12
7.93039e-14
1.45749e-12
1.23573e-12
-5.39893e-13
3.36725e-12
-3.38322e-12
6.63027e-12
-6.81034e-12
1.11376e-11
-1.06206e-11
1.69602e-11
-1.46628e-11
2.41331e-11
-1.882e-11
3.26665e-11
-2.30006e-11
4.2554e-11
-2.71358e-11
5.37736e-11
-3.11774e-11
6.62884e-11
-3.50905e-11
8.00502e-11
-3.88481e-11
9.50043e-11
-4.2429e-11
1.11092e-10
-4.58182e-11
1.28254e-10
-4.90073e-11
1.46423e-10
-5.19921e-11
1.65533e-10
-5.47709e-11
1.85514e-10
-5.73427e-11
2.06299e-10
-5.97078e-11
2.27821e-10
-6.18682e-11
2.50013e-10
-6.38276e-11
2.72812e-10
-6.55906e-11
2.9615e-10
-6.71619e-11
3.19966e-10
-6.85465e-11
3.44197e-10
-6.97493e-11
3.68784e-10
-7.07763e-11
3.9367e-10
-7.16336e-11
4.18798e-10
-7.23273e-11
4.44114e-10
-7.28631e-11
4.69567e-10
-7.32468e-11
4.95105e-10
-7.34842e-11
5.2068e-10
-7.35811e-11
5.46247e-10
-7.35435e-11
5.71761e-10
-7.33774e-11
5.97178e-10
-7.30884e-11
6.22459e-10
-7.26818e-11
6.47563e-10
-7.21628e-11
6.72453e-10
-7.15367e-11
6.97095e-10
-7.08084e-11
7.21454e-10
-6.99831e-11
7.45498e-10
-6.90657e-11
7.69197e-10
-6.80606e-11
7.9252e-10
-6.69726e-11
8.15441e-10
-6.58057e-11
8.37933e-10
-6.45641e-11
8.59971e-10
-6.32517e-11
8.81533e-10
-6.18725e-11
9.02596e-10
-6.04304e-11
9.23139e-10
-5.8929e-11
9.43141e-10
-5.73716e-11
9.62585e-10
-5.57616e-11
9.81452e-10
-5.41021e-11
9.99727e-10
-5.23963e-11
1.01739e-09
-5.06468e-11
1.03444e-09
-4.88565e-11
1.05085e-09
-4.7028e-11
1.06661e-09
-4.5164e-11
1.08171e-09
-4.32668e-11
1.09614e-09
-4.13387e-11
1.10989e-09
-3.93819e-11
1.12294e-09
-3.73984e-11
1.1353e-09
-3.53903e-11
1.14694e-09
-3.33594e-11
1.15788e-09
-3.13074e-11
1.16809e-09
-2.92362e-11
1.17757e-09
-2.71474e-11
1.18631e-09
-2.50425e-11
1.19432e-09
-2.2923e-11
1.20158e-09
-2.07905e-11
1.2081e-09
-1.86462e-11
1.21386e-09
-1.64915e-11
1.21886e-09
-1.43275e-11
1.22311e-09
-1.21556e-11
1.2266e-09
-9.97686e-12
1.22932e-09
-7.79256e-12
1.23128e-09
-5.60381e-12
1.23247e-09
-3.41173e-12
1.2329e-09
-1.21747e-12
1.23256e-09
9.77877e-13
1.23145e-09
3.17326e-12
1.22957e-09
5.36762e-12
1.22693e-09
7.55976e-12
1.22353e-09
9.74847e-12
1.21936e-09
1.19326e-11
1.21443e-09
1.4111e-11
1.20875e-09
1.62825e-11
1.20231e-09
1.84458e-11
1.19511e-09
2.05994e-11
1.18717e-09
2.27421e-11
1.17848e-09
2.48725e-11
1.16906e-09
2.69891e-11
1.1589e-09
2.90904e-11
1.14802e-09
3.11747e-11
1.13641e-09
3.32402e-11
1.1241e-09
3.52852e-11
1.11107e-09
3.73079e-11
1.09735e-09
3.93063e-11
1.08295e-09
4.12784e-11
1.06787e-09
4.32219e-11
1.05212e-09
4.51347e-11
1.03571e-09
4.70144e-11
1.01867e-09
4.88585e-11
1.001e-09
5.06642e-11
9.82713e-10
5.24288e-11
9.6383e-10
5.41498e-11
9.44366e-10
5.58242e-11
9.24339e-10
5.74485e-11
9.03767e-10
5.90193e-11
8.8267e-10
6.05336e-11
8.61069e-10
6.19882e-11
8.38987e-10
6.3379e-11
8.16449e-10
6.47019e-11
7.93477e-10
6.59531e-11
7.701e-10
6.7129e-11
7.46345e-10
6.82255e-11
7.22243e-10
6.92376e-11
6.97823e-10
7.01607e-11
6.73119e-10
7.09904e-11
6.48164e-10
7.17221e-11
6.22995e-10
7.23508e-11
5.9765e-10
7.2871e-11
5.72168e-10
7.32777e-11
5.4659e-10
7.35655e-11
5.20959e-10
7.37289e-11
4.9532e-10
7.37622e-11
4.6972e-10
7.36599e-11
4.44208e-10
7.34164e-11
4.18834e-10
7.30256e-11
3.93652e-10
7.24815e-11
3.68714e-10
7.17782e-11
3.44079e-10
7.09103e-11
3.19803e-10
6.98718e-11
2.95948e-10
6.86565e-11
2.72574e-10
6.72587e-11
2.49745e-10
6.56735e-11
2.27525e-10
6.38962e-11
2.05981e-10
6.19217e-11
1.85179e-10
5.97458e-11
1.65186e-10
5.73655e-11
1.46071e-10
5.47789e-11
1.27902e-10
5.19849e-11
1.10745e-10
4.89839e-11
9.46641e-11
4.57789e-11
7.97229e-11
4.23758e-11
6.598e-11
3.87839e-11
5.3489e-11
3.50163e-11
4.22951e-11
3.10925e-11
3.24335e-11
2.70405e-11
2.39282e-11
2.28986e-11
1.67879e-11
1.87167e-11
1.10006e-11
1.45604e-11
6.52548e-12
1.05178e-11
3.28727e-12
6.70932e-12
1.17602e-12
3.29398e-12
4.28196e-14
4.72407e-13
-3.18799e-13
-1.50522e-12
-2.09444e-13
-2.31564e-12
-1.51191e-12
-1.92735e-14
1.51954e-12
3.46346e-13
1.90915e-12
1.43876e-12
3.59024e-13
3.52068e-12
-2.62059e-12
6.78847e-12
-6.64707e-12
1.13871e-11
-1.14097e-11
1.74237e-11
-1.66607e-11
2.49712e-11
-2.22101e-11
3.4068e-11
-2.79123e-11
4.47234e-11
-3.36527e-11
5.6927e-11
-3.93409e-11
7.06545e-11
-4.49084e-11
8.58682e-11
-5.03053e-11
1.02518e-10
-5.54956e-11
1.20543e-10
-6.04517e-11
1.39878e-10
-6.51525e-11
1.60452e-10
-6.95833e-11
1.82195e-10
-7.37356e-11
2.0503e-10
-7.76054e-11
2.2888e-10
-8.11917e-11
2.53668e-10
-8.44948e-11
2.79315e-10
-8.75166e-11
3.05747e-10
-9.02603e-11
3.32888e-10
-9.27313e-11
3.60663e-10
-9.4936e-11
3.88999e-10
-9.68811e-11
4.17823e-10
-9.85735e-11
4.47067e-10
-1.00021e-10
4.76664e-10
-1.0123e-10
5.06547e-10
-1.0221e-10
5.36653e-10
-1.02969e-10
5.66921e-10
-1.03515e-10
5.97292e-10
-1.03855e-10
6.27709e-10
-1.03998e-10
6.58117e-10
-1.03952e-10
6.88464e-10
-1.03724e-10
7.18698e-10
-1.03322e-10
7.48772e-10
-1.02755e-10
7.78639e-10
-1.0203e-10
8.08255e-10
-1.01153e-10
8.37578e-10
-1.00131e-10
8.66567e-10
-9.89724e-11
8.95184e-10
-9.76829e-11
9.23393e-10
-9.62691e-11
9.51158e-10
-9.47376e-11
9.78446e-10
-9.30943e-11
1.00523e-09
-9.13452e-11
1.03147e-09
-8.94957e-11
1.05715e-09
-8.75511e-11
1.08224e-09
-8.55169e-11
1.10671e-09
-8.33983e-11
1.13053e-09
-8.12e-11
1.1537e-09
-7.89269e-11
1.17618e-09
-7.65833e-11
1.19796e-09
-7.41734e-11
1.21901e-09
-7.17015e-11
1.23932e-09
-6.91712e-11
1.25888e-09
-6.65865e-11
1.27767e-09
-6.39509e-11
1.29567e-09
-6.12679e-11
1.31287e-09
-5.85407e-11
1.32926e-09
-5.57724e-11
1.34483e-09
-5.2966e-11
1.35956e-09
-5.01243e-11
1.37345e-09
-4.725e-11
1.38649e-09
-4.43456e-11
1.39866e-09
-4.14135e-11
1.40997e-09
-3.84561e-11
1.4204e-09
-3.54758e-11
1.42995e-09
-3.24745e-11
1.43862e-09
-2.94545e-11
1.44639e-09
-2.64175e-11
1.45326e-09
-2.33655e-11
1.45923e-09
-2.03003e-11
1.4643e-09
-1.72235e-11
1.46846e-09
-1.41371e-11
1.47171e-09
-1.10427e-11
1.47405e-09
-7.9419e-12
1.47547e-09
-4.83627e-12
1.47598e-09
-1.72747e-12
1.47558e-09
1.38287e-12
1.47426e-09
4.49318e-12
1.47202e-09
7.60197e-12
1.46887e-09
1.07076e-11
1.46481e-09
1.38084e-11
1.45984e-09
1.69025e-11
1.45397e-09
1.99883e-11
1.44719e-09
2.30641e-11
1.4395e-09
2.61281e-11
1.43092e-09
2.91784e-11
1.42145e-09
3.2213e-11
1.4111e-09
3.52299e-11
1.39986e-09
3.82269e-11
1.38775e-09
4.12018e-11
1.37477e-09
4.41525e-11
1.36094e-09
4.70763e-11
1.34625e-09
4.99708e-11
1.33073e-09
5.28332e-11
1.31437e-09
5.56608e-11
1.2972e-09
5.84508e-11
1.27922e-09
6.11999e-11
1.26045e-09
6.3905e-11
1.2409e-09
6.65627e-11
1.22059e-09
6.91697e-11
1.19954e-09
7.17221e-11
1.17775e-09
7.42157e-11
1.15525e-09
7.66468e-11
1.13207e-09
7.90114e-11
1.10821e-09
8.1305e-11
1.08371e-09
8.35227e-11
1.05858e-09
8.56596e-11
1.03286e-09
8.77113e-11
1.00656e-09
8.96726e-11
9.79727e-10
9.15378e-11
9.52379e-10
9.33012e-11
9.24551e-10
9.49571e-11
8.96276e-10
9.65001e-11
8.67589e-10
9.7924e-11
8.38528e-10
9.92221e-11
8.09132e-10
1.00388e-10
7.7944e-10
1.01414e-10
7.49496e-10
1.02295e-10
7.19344e-10
1.03023e-10
6.89032e-10
1.0359e-10
6.58608e-10
1.0399e-10
6.28123e-10
1.04214e-10
5.9763e-10
1.04255e-10
5.67185e-10
1.04105e-10
5.36844e-10
1.03757e-10
5.06668e-10
1.03201e-10
4.76719e-10
1.02431e-10
4.4706e-10
1.01438e-10
4.17757e-10
1.00213e-10
3.88877e-10
9.87503e-11
3.60492e-10
9.70412e-11
3.32673e-10
9.5078e-11
3.05493e-10
9.28537e-11
2.79026e-10
9.03622e-11
2.53349e-10
8.75979e-11
2.28539e-10
8.45556e-11
2.04673e-10
8.12314e-11
1.81828e-10
7.76234e-11
1.6008e-10
7.37315e-11
1.39507e-10
6.95576e-11
1.20179e-10
6.51065e-11
1.02167e-10
6.03875e-11
8.55358e-11
5.54148e-11
7.03437e-11
5.02086e-11
5.66411e-11
4.47962e-11
4.44664e-11
3.92157e-11
3.38437e-11
3.35193e-11
2.47809e-11
2.77758e-11
1.72667e-11
2.20735e-11
1.12637e-11
1.65253e-11
6.69914e-12
1.1279e-11
3.46087e-12
6.52876e-12
1.40015e-12
2.5231e-12
3.27231e-13
-4.3252e-13
-2.63381e-14
-1.95875e-12
-1.53798e-12
1.87546e-13
1.33501e-12
1.08674e-12
1.00936e-12
2.97675e-12
-1.53766e-12
6.08878e-12
-5.73567e-12
1.06018e-11
-1.11565e-11
1.66468e-11
-1.74504e-11
2.43173e-11
-2.43318e-11
3.36784e-11
-3.15739e-11
4.47674e-11
-3.90006e-11
5.75932e-11
-4.6475e-11
7.21423e-11
-5.3888e-11
8.83852e-11
-6.11529e-11
1.06281e-10
-6.82037e-11
1.25775e-10
-7.49917e-11
1.46806e-10
-8.14813e-11
1.69302e-10
-8.7646e-11
1.93186e-10
-9.34658e-11
2.18377e-10
-9.89276e-11
2.44795e-10
-1.04024e-10
2.72354e-10
-1.08751e-10
3.00969e-10
-1.1311e-10
3.30556e-10
-1.17102e-10
3.61027e-10
-1.20732e-10
3.92299e-10
-1.24004e-10
4.24289e-10
-1.26926e-10
4.56915e-10
-1.29506e-10
4.90096e-10
-1.31754e-10
5.23754e-10
-1.33678e-10
5.57812e-10
-1.35288e-10
5.92196e-10
-1.36595e-10
6.26835e-10
-1.37608e-10
6.61659e-10
-1.38338e-10
6.96601e-10
-1.38796e-10
7.31595e-10
-1.38992e-10
7.6658e-10
-1.38936e-10
8.01496e-10
-1.38639e-10
8.36284e-10
-1.3811e-10
8.70889e-10
-1.3736e-10
9.05258e-10
-1.36399e-10
9.3934e-10
-1.35235e-10
9.73088e-10
-1.33878e-10
1.00645e-09
-1.32338e-10
1.03939e-09
-1.30623e-10
1.07187e-09
-1.28742e-10
1.10383e-09
-1.26703e-10
1.13525e-09
-1.24514e-10
1.16609e-09
-1.22182e-10
1.19631e-09
-1.19717e-10
1.22588e-09
-1.17124e-10
1.25477e-09
-1.1441e-10
1.28296e-09
-1.11583e-10
1.31041e-09
-1.08649e-10
1.33709e-09
-1.05614e-10
1.36299e-09
-1.02484e-10
1.38809e-09
-9.9265e-11
1.41235e-09
-9.59622e-11
1.43576e-09
-9.25811e-11
1.45829e-09
-8.91264e-11
1.47995e-09
-8.56032e-11
1.50069e-09
-8.20158e-11
1.52052e-09
-7.83689e-11
1.53941e-09
-7.46665e-11
1.55736e-09
-7.09125e-11
1.57435e-09
-6.71108e-11
1.59036e-09
-6.3265e-11
1.60539e-09
-5.93785e-11
1.61943e-09
-5.54546e-11
1.63247e-09
-5.14965e-11
1.6445e-09
-4.75072e-11
1.65552e-09
-4.34896e-11
1.66551e-09
-3.94465e-11
1.67447e-09
-3.53804e-11
1.6824e-09
-3.12939e-11
1.68929e-09
-2.71895e-11
1.69513e-09
-2.30696e-11
1.69993e-09
-1.89366e-11
1.70368e-09
-1.47926e-11
1.70638e-09
-1.064e-11
1.70802e-09
-6.48092e-12
1.70861e-09
-2.31748e-12
1.70815e-09
1.84811e-12
1.70663e-09
6.01365e-12
1.70405e-09
1.0177e-11
1.70042e-09
1.4336e-11
1.69574e-09
1.84884e-11
1.69001e-09
2.26319e-11
1.68324e-09
2.67641e-11
1.67542e-09
3.08826e-11
1.66656e-09
3.49851e-11
1.65667e-09
3.9069e-11
1.64575e-09
4.31317e-11
1.63381e-09
4.71704e-11
1.62086e-09
5.11822e-11
1.6069e-09
5.5164e-11
1.59194e-09
5.91128e-11
1.57599e-09
6.30254e-11
1.55906e-09
6.68983e-11
1.54117e-09
7.07279e-11
1.52232e-09
7.45104e-11
1.50253e-09
7.82421e-11
1.48181e-09
8.19186e-11
1.46018e-09
8.55356e-11
1.43765e-09
8.90886e-11
1.41425e-09
9.25731e-11
1.38999e-09
9.59841e-11
1.36489e-09
9.93162e-11
1.33897e-09
1.02564e-10
1.31226e-09
1.05722e-10
1.28478e-09
1.08784e-10
1.25656e-09
1.11745e-10
1.22762e-09
1.14597e-10
1.198e-09
1.17334e-10
1.16772e-09
1.1995e-10
1.13682e-09
1.22437e-10
1.10534e-09
1.24787e-10
1.0733e-09
1.26994e-10
1.04075e-09
1.29049e-10
1.00773e-09
1.30944e-10
9.74283e-10
1.32671e-10
9.40451e-10
1.34221e-10
9.06281e-10
1.35585e-10
8.71823e-10
1.36754e-10
8.37128e-10
1.37718e-10
8.0225e-10
1.38469e-10
7.67244e-10
1.38996e-10
7.32169e-10
1.39289e-10
6.97086e-10
1.39339e-10
6.62058e-10
1.39134e-10
6.27149e-10
1.38665e-10
5.92428e-10
1.37922e-10
5.57965e-10
1.36894e-10
5.23833e-10
1.3557e-10
4.90106e-10
1.33941e-10
4.5686e-10
1.31996e-10
4.24174e-10
1.29726e-10
3.9213e-10
1.27122e-10
3.60809e-10
1.24174e-10
3.30295e-10
1.20876e-10
3.00673e-10
1.1722e-10
2.72027e-10
1.132e-10
2.44446e-10
1.08813e-10
2.18012e-10
1.04057e-10
1.92811e-10
9.8932e-11
1.68925e-10
9.34428e-11
1.46434e-10
8.75971e-11
1.25415e-10
8.14076e-11
1.05935e-10
7.4894e-11
8.80588e-11
6.80841e-11
7.18402e-11
6.10151e-11
5.7322e-11
5.37359e-11
4.45311e-11
4.63118e-11
3.34762e-11
3.88288e-11
2.41468e-11
3.13983e-11
1.65104e-11
2.41598e-11
1.05041e-11
1.72891e-11
6.02617e-12
1.101e-11
2.93612e-12
5.60826e-12
1.06289e-12
1.43681e-12
1.79413e-13
-1.07495e-12
-1.35755e-12
4.02686e-13
9.32538e-13
1.87033e-12
-4.53371e-13
4.6172e-12
-4.28581e-12
8.82949e-12
-9.95339e-12
1.46606e-11
-1.69887e-11
2.22251e-11
-2.50103e-11
3.16013e-11
-3.37041e-11
4.28403e-11
-4.28136e-11
5.5971e-11
-5.21338e-11
7.09993e-11
-6.15036e-11
8.79091e-11
-7.07958e-11
1.06667e-10
-7.99089e-11
1.27224e-10
-8.87622e-11
1.49524e-10
-9.72941e-11
1.73501e-10
-1.05458e-10
1.99078e-10
-1.13222e-10
2.26173e-10
-1.2056e-10
2.54701e-10
-1.27454e-10
2.84572e-10
-1.33895e-10
3.15695e-10
-1.39876e-10
3.47979e-10
-1.45395e-10
3.81332e-10
-1.50455e-10
4.15659e-10
-1.55059e-10
4.50869e-10
-1.59214e-10
4.86871e-10
-1.62927e-10
5.23574e-10
-1.66209e-10
5.60892e-10
-1.6907e-10
5.98736e-10
-1.71522e-10
6.37023e-10
-1.73575e-10
6.75672e-10
-1.75244e-10
7.14603e-10
-1.76539e-10
7.53738e-10
-1.77474e-10
7.93004e-10
-1.78062e-10
8.32329e-10
-1.78316e-10
8.71642e-10
-1.78248e-10
9.10876e-10
-1.77873e-10
9.49968e-10
-1.77202e-10
9.88855e-10
-1.76247e-10
1.02748e-09
-1.75022e-10
1.06578e-09
-1.73538e-10
1.10371e-09
-1.71807e-10
1.14121e-09
-1.6984e-10
1.17824e-09
-1.67648e-10
1.21474e-09
-1.65244e-10
1.25067e-09
-1.62636e-10
1.28599e-09
-1.59836e-10
1.32066e-09
-1.56853e-10
1.35464e-09
-1.53696e-10
1.3879e-09
-1.50376e-10
1.42039e-09
-1.46901e-10
1.45208e-09
-1.43279e-10
1.48295e-09
-1.39519e-10
1.51297e-09
-1.3563e-10
1.5421e-09
-1.31617e-10
1.57032e-09
-1.2749e-10
1.59762e-09
-1.23254e-10
1.62395e-09
-1.18918e-10
1.64931e-09
-1.14486e-10
1.67367e-09
-1.09965e-10
1.69702e-09
-1.05362e-10
1.71933e-09
-1.00681e-10
1.74059e-09
-9.59287e-11
1.76079e-09
-9.11095e-11
1.7799e-09
-8.62284e-11
1.79793e-09
-8.12901e-11
1.81485e-09
-7.62991e-11
1.83065e-09
-7.12595e-11
1.84533e-09
-6.61756e-11
1.85887e-09
-6.10512e-11
1.87127e-09
-5.589e-11
1.88252e-09
-5.06957e-11
1.89261e-09
-4.54715e-11
1.90154e-09
-4.02208e-11
1.90929e-09
-3.49469e-11
1.91588e-09
-2.96528e-11
1.92128e-09
-2.43416e-11
1.9255e-09
-1.90162e-11
1.92854e-09
-1.36796e-11
1.9304e-09
-8.33457e-12
1.93106e-09
-2.98394e-12
1.93054e-09
2.36954e-12
1.92883e-09
7.72301e-12
1.92594e-09
1.30736e-11
1.92185e-09
1.84184e-11
1.91659e-09
2.37546e-11
1.91014e-09
2.90793e-11