/*--------------------------------*- C++ -*----------------------------------*\
  =========                 |
  \\      /  F ield         | OpenFOAM: The Open Source CFD Toolbox
   \\    /   O peration     | Website:  https://openfoam.org
    \\  /    A nd           | Version:  7
     \\/     M anipulation  |
\*---------------------------------------------------------------------------*/
FoamFile
{
    version     2.0;
    format      ascii;
    class       volScalarField;
    location    "0.0375";
    object      p;
}
// * * * * * * * * * * * * * * * * * * * * * * * * * * * * * * * * * * * * * //

dimensions      [0 2 -2 0 0 0 0];

internalField   nonuniform List<scalar> 
12800
(
1.28989e-07
-0.00024283
-0.00190925
-0.00444737
-0.00746887
-0.0107967
-0.0143192
-0.0179488
-0.0216087
-0.025219
-0.0287053
-0.0320223
-0.035109
-0.0379362
-0.0404695
-0.04267
-0.0444984
-0.0459169
-0.0468895
-0.0474282
-0.0475105
-0.0471118
-0.0462201
-0.0448134
-0.042862
-0.0403644
-0.0373145
-0.0336931
-0.0295058
-0.0247809
-0.0195304
-0.0137496
-0.00744031
-0.000604341
0.00675439
0.0146139
0.0229418
0.0317192
0.0409455
0.0506122
0.060697
0.0711807
0.0820494
0.0932873
0.104873
0.116785
0.129012
0.141544
0.154362
0.167448
0.180789
0.194371
0.208175
0.222182
0.236386
0.250789
0.265392
0.280188
0.29516
0.3103
0.325606
0.341073
0.356687
0.37243
0.388287
0.404247
0.420296
0.436421
0.452612
0.468867
0.485188
0.501571
0.518001
0.534462
0.550953
0.567479
0.58405
0.600662
0.617304
0.633972
0.650671
0.66742
0.684231
0.701108
0.718047
0.735042
0.752096
0.769213
0.786391
0.803621
0.820887
0.83818
0.855496
0.872831
0.890175
0.907514
0.924835
0.942131
0.959397
0.976628
0.993813
1.01094
1.02798
1.04493
1.06179
1.07856
1.09523
1.1118
1.12823
1.14452
1.16062
1.17655
1.19229
1.2078
1.22304
1.23797
1.25255
1.26677
1.28061
1.29402
1.30698
1.31945
1.33139
1.3428
1.35365
1.36393
1.37363
1.38272
1.39115
1.39892
1.406
1.41239
1.41807
1.42303
1.42723
1.43067
1.4333
1.43514
1.43618
1.43645
1.43596
1.43475
1.43284
1.43023
1.42697
1.42309
1.41865
1.41372
1.40837
1.4027
1.39677
1.39071
1.38463
1.37871
1.37318
1.36827
1.36428
1.36146
1.36011
1.36019
-0.000647289
-1.58107e-05
-0.000786672
-0.00243461
-0.00463285
-0.00723484
-0.0101212
-0.0131979
-0.016364
-0.0195221
-0.0226021
-0.0255262
-0.0282597
-0.0307567
-0.0329822
-0.0349096
-0.0364778
-0.0376391
-0.0383902
-0.038716
-0.0386043
-0.0380515
-0.0370294
-0.0354961
-0.0334494
-0.0308899
-0.0278051
-0.0241765
-0.0199963
-0.015277
-0.0100345
-0.00427937
0.00197632
0.00872652
0.0159702
0.023693
0.0318736
0.0404996
0.049564
0.0590541
0.0689495
0.0792331
0.0898941
0.100918
0.112285
0.123981
0.135996
0.148311
0.16091
0.173775
0.186898
0.200265
0.213851
0.22764
0.241625
0.255812
0.270198
0.284774
0.299527
0.314448
0.329536
0.344782
0.360169
0.375683
0.391317
0.40706
0.422898
0.438815
0.454807
0.470873
0.487015
0.503228
0.519494
0.535799
0.55214
0.568528
0.584968
0.601451
0.617965
0.634507
0.651087
0.667721
0.684418
0.701177
0.717993
0.734864
0.75179
0.768776
0.785815
0.802893
0.819997
0.837119
0.854257
0.871406
0.888555
0.905687
0.922791
0.939863
0.956904
0.973907
0.990857
1.00773
1.02452
1.04121
1.0578
1.07429
1.09068
1.10696
1.12308
1.13903
1.15482
1.17041
1.18582
1.20099
1.21588
1.23046
1.2447
1.25857
1.27208
1.28517
1.29783
1.30999
1.32165
1.33278
1.34338
1.35343
1.36292
1.37181
1.38007
1.38768
1.39463
1.40091
1.40653
1.41145
1.41566
1.41913
1.42184
1.42379
1.42499
1.42547
1.42526
1.42437
1.42283
1.42064
1.41785
1.41449
1.41063
1.40634
1.40169
1.39676
1.39162
1.38638
1.38114
1.37606
1.37134
1.36719
1.36381
1.3614
1.3602
1.36032
-0.000235195
0.00114768
0.0010406
1.57038e-05
-0.00160861
-0.00372224
-0.00617415
-0.00885895
-0.0116828
-0.0145356
-0.0173199
-0.0199761
-0.0224584
-0.0247112
-0.0267139
-0.0284232
-0.0297942
-0.0307827
-0.0313642
-0.0315265
-0.0312853
-0.0306025
-0.0294595
-0.0278373
-0.0257084
-0.0230769
-0.0199483
-0.0163015
-0.0121254
-0.00742432
-0.00220145
0.00353028
0.00974788
0.0164382
0.0235983
0.0312162
0.0392777
0.0477799
0.0567144
0.0660626
0.0758087
0.0859376
0.0964343
0.107283
0.118471
0.129988
0.141825
0.153959
0.166372
0.179055
0.191997
0.205182
0.218588
0.232197
0.246009
0.260025
0.274236
0.28863
0.3032
0.317941
0.332847
0.347904
0.363098
0.378418
0.39386
0.409416
0.42507
0.44081
0.456633
0.472543
0.48854
0.504614
0.520744
0.53692
0.553145
0.569426
0.585761
0.602137
0.61854
0.634974
0.651451
0.667985
0.68458
0.701232
0.717936
0.734693
0.751507
0.768379
0.785296
0.802242
0.819203
0.836178
0.853167
0.870163
0.887149
0.904106
0.921027
0.937913
0.954767
0.971581
0.988332
1.005
1.02157
1.03803
1.0544
1.07068
1.08684
1.10286
1.11872
1.13441
1.14992
1.16525
1.18038
1.19527
1.20988
1.22417
1.23812
1.25173
1.26497
1.27781
1.29022
1.30215
1.31357
1.32449
1.33488
1.34476
1.35408
1.36281
1.37094
1.37842
1.38528
1.39149
1.39707
1.40198
1.4062
1.40971
1.41248
1.41453
1.41587
1.41654
1.41656
1.41594
1.41469
1.41283
1.4104
1.40744
1.40402
1.40022
1.3961
1.39172
1.38715
1.38248
1.37782
1.37331
1.36912
1.36543
1.3624
1.36018
1.359
1.35904
0.00201499
0.00368374
0.00390146
0.00323013
0.00192204
8.65545e-05
-0.00211069
-0.00457462
-0.00718769
-0.00984982
-0.0124569
-0.0149483
-0.0172608
-0.0193623
-0.0212009
-0.0227421
-0.0239635
-0.0248215
-0.0252916
-0.0253608
-0.0250039
-0.0242209
-0.0229886
-0.0212847
-0.0190898
-0.0164018
-0.0132175
-0.00952938
-0.00534043
-0.000649816
0.00454636
0.0102392
0.0164153
0.0230615
0.0301616
0.0377015
0.0456742
0.0540781
0.0629035
0.0721326
0.0817561
0.0917613
0.102124
0.112827
0.123865
0.135231
0.146912
0.158888
0.171142
0.183669
0.196457
0.209483
0.222729
0.236187
0.249856
0.263729
0.277792
0.292032
0.306442
0.321021
0.335761
0.350648
0.365666
0.380814
0.396087
0.411474
0.426959
0.442535
0.45821
0.473987
0.489858
0.505807
0.521817
0.537883
0.554011
0.570202
0.586446
0.602724
0.619028
0.635364
0.65175
0.668194
0.684694
0.701245
0.717844
0.734498
0.751212
0.767981
0.784786
0.801609
0.818442
0.835288
0.852148
0.86901
0.885851
0.902654
0.919415
0.936142
0.952834
0.96948
0.986054
1.00253
1.01891
1.03519
1.05138
1.06747
1.08343
1.09923
1.11486
1.13032
1.1456
1.1607
1.17559
1.19024
1.2046
1.21865
1.23237
1.24576
1.25878
1.27142
1.28362
1.29535
1.30659
1.31733
1.32756
1.33729
1.34648
1.35509
1.3631
1.3705
1.37729
1.38346
1.38902
1.39393
1.39817
1.40171
1.40454
1.40668
1.40816
1.409
1.40922
1.40882
1.40781
1.40621
1.40406
1.40141
1.39834
1.39491
1.39117
1.38719
1.38302
1.37874
1.37446
1.37031
1.36644
1.363
1.36011
1.3579
1.35657
1.35627
0.00602661
0.00749276
0.00770093
0.00711587
0.00591628
0.0041997
0.00211512
-0.000213191
-0.00269829
-0.00523078
-0.00770524
-0.0100582
-0.0122466
-0.0142093
-0.0159089
-0.0173165
-0.0183955
-0.0191371
-0.0195065
-0.0194896
-0.019048
-0.018173
-0.0168556
-0.0150778
-0.0128287
-0.0100982
-0.00687363
-0.00315235
0.00105952
0.0057564
0.0109336
0.0165863
0.0227141
0.0293078
0.0363453
0.0438145
0.051713
0.0600313
0.0687573
0.0778814
0.0873961
0.0972856
0.107524
0.118095
0.128999
0.140228
0.151761
0.163583
0.175688
0.188069
0.200708
0.213584
0.226681
0.239997
0.253531
0.267268
0.281189
0.295282
0.309547
0.323976
0.338556
0.353277
0.368134
0.383123
0.39824
0.413468
0.428795
0.444222
0.459759
0.475409
0.491159
0.506988
0.522883
0.538844
0.554876
0.570977
0.587127
0.603306
0.61951
0.635752
0.652047
0.668398
0.684799
0.701246
0.717743
0.734298
0.750913
0.767574
0.784262
0.800961
0.817669
0.834392
0.851126
0.867854
0.884551
0.901205
0.917817
0.934395
0.950935
0.967417
0.983818
1.00012
1.01633
1.03244
1.04846
1.06436
1.08013
1.09573
1.11115
1.1264
1.14146
1.15635
1.17103
1.18546
1.1996
1.21342
1.22693
1.24011
1.25295
1.2654
1.27741
1.28896
1.30003
1.31061
1.32071
1.3303
1.33937
1.34788
1.35579
1.36311
1.36984
1.37598
1.38153
1.38644
1.3907
1.39427
1.39717
1.39941
1.40102
1.40202
1.40242
1.40221
1.40141
1.40003
1.39813
1.39575
1.39297
1.38984
1.38642
1.38274
1.37887
1.37488
1.37089
1.36699
1.36332
1.36
1.35712
1.35479
1.35314
1.35228
0.0115021
0.0123865
0.012282
0.0115535
0.0102761
0.00851318
0.00642065
0.00411637
0.00168067
-0.000774123
-0.00315918
-0.00540635
-0.00747258
-0.00932594
-0.0109132
-0.0121976
-0.0131687
-0.0137984
-0.0140653
-0.0139516
-0.0134391
-0.012487
-0.0110945
-0.00924937
-0.00694002
-0.00416317
-0.00091203
0.00282305
0.00704687
0.0117482
0.016914
0.0225419
0.0286293
0.0351676
0.0421432
0.0495478
0.0573769
0.0656177
0.0742589
0.0832959
0.0927166
0.102498
0.112621
0.123077
0.13386
0.14496
0.156357
0.168038
0.180003
0.192243
0.204738
0.217469
0.230429
0.243616
0.257019
0.27062
0.284406
0.298367
0.312495
0.326783
0.341219
0.355795
0.370507
0.385355
0.400331
0.415417
0.430603
0.445897
0.461309
0.476838
0.492467
0.508177
0.52396
0.53982
0.555757
0.571761
0.587809
0.603886
0.619995
0.636147
0.652351
0.668605
0.684903
0.701246
0.717644
0.734103
0.750615
0.767163
0.783729
0.800303
0.81689
0.833493
0.850102
0.866694
0.88325
0.899761
0.916235
0.932675
0.94907
0.965397
0.981635
0.997776
1.01382
1.02978
1.04564
1.06138
1.07696
1.09237
1.1076
1.12266
1.13754
1.15223
1.16672
1.18094
1.19488
1.20851
1.22184
1.23485
1.24751
1.25979
1.27163
1.28301
1.29392
1.30437
1.31434
1.32383
1.3328
1.3412
1.34903
1.35628
1.36297
1.36909
1.37462
1.37954
1.38381
1.38742
1.39038
1.39272
1.39446
1.3956
1.39616
1.39612
1.39549
1.39431
1.39261
1.39047
1.38793
1.38505
1.38185
1.3784
1.37476
1.37099
1.36718
1.36344
1.35987
1.35655
1.35357
1.35101
1.34893
1.34734
0.0181063
0.0181523
0.0175255
0.0164772
0.0149566
0.0130164
0.0108093
0.00842638
0.00597194
0.00352042
0.00117391
-0.00100642
-0.00299284
-0.00475049
-0.00624502
-0.00744827
-0.0083344
-0.0088683
-0.00904439
-0.00883579
-0.00823604
-0.00722251
-0.005772
-0.00386626
-0.0014994
0.00132496
0.00460696
0.00835687
0.0125833
0.0172783
0.0224312
0.0280397
0.0340954
0.0405872
0.047511
0.0548607
0.0626261
0.0707981
0.0793689
0.0883312
0.0976687
0.107356
0.117378
0.127731
0.138406
0.149383
0.160653
0.172212
0.184049
0.196152
0.208509
0.221107
0.233941
0.247004
0.260284
0.27376
0.287418
0.301253
0.315257
0.329418
0.343723
0.35817
0.372761
0.387489
0.402339
0.417294
0.432356
0.447534
0.462835
0.478247
0.493754
0.509346
0.525021
0.540782
0.556621
0.572522
0.588465
0.604442
0.620459
0.636525
0.65264
0.668796
0.684992
0.701236
0.717539
0.733903
0.750311
0.766743
0.783185
0.799638
0.816108
0.832593
0.849078
0.865538
0.881958
0.898338
0.914685
0.930997
0.947258
0.963442
0.97953
0.995522
1.01142
1.02724
1.04295
1.05853
1.07395
1.08918
1.10424
1.11913
1.13384
1.14837
1.16268
1.17673
1.19048
1.20395
1.21711
1.22997
1.24248
1.2546
1.26629
1.27752
1.2883
1.29863
1.30851
1.3179
1.32677
1.33509
1.34284
1.35004
1.3567
1.36281
1.36834
1.37326
1.37755
1.3812
1.38423
1.38666
1.38851
1.38978
1.39047
1.39057
1.39009
1.38908
1.38757
1.38562
1.38327
1.38056
1.37753
1.37424
1.37075
1.36712
1.36342
1.35975
1.35616
1.35275
1.34958
1.34671
1.34411
1.34172
0.0255243
0.0245585
0.0232675
0.0217511
0.019883
0.0176667
0.0152415
0.0127283
0.0101713
0.00767509
0.00532192
0.00315724
0.00121164
-0.00048777
-0.00192074
-0.00305702
-0.00386821
-0.00434161
-0.00443862
-0.00415375
-0.00347318
-0.00239186
-0.000882307
0.00107525
0.00348594
0.00634666
0.00965907
0.013432
0.0176655
0.0223539
0.0274947
0.0330835
0.039109
0.0455626
0.0524448
0.0597493
0.06746
0.075572
0.0840836
0.0929789
0.102237
0.111842
0.121779
0.132039
0.142612
0.153481
0.164638
0.176082
0.187803
0.199784
0.212013
0.224489
0.23721
0.25016
0.263321
0.276678
0.290222
0.303945
0.317833
0.331873
0.346061
0.360399
0.374884
0.389502
0.404235
0.419074
0.434027
0.449101
0.464296
0.479597
0.494988
0.510467
0.526037
0.541698
0.557436
0.573233
0.589073
0.604956
0.620888
0.636872
0.652899
0.668961
0.685061
0.701212
0.717425
0.733693
0.749994
0.76631
0.782634
0.798971
0.815326
0.831694
0.848054
0.864386
0.880679
0.896937
0.913168
0.929363
0.9455
0.961551
0.977503
0.993359
1.00913
1.02481
1.04039
1.05582
1.07108
1.08616
1.10106
1.11581
1.13038
1.14476
1.15891
1.17278
1.18639
1.19971
1.21274
1.22547
1.23784
1.24982
1.26136
1.27246
1.28314
1.29338
1.30318
1.31248
1.32127
1.32951
1.33721
1.34437
1.35102
1.35712
1.36265
1.36758
1.37189
1.37558
1.37868
1.38121
1.38316
1.38454
1.38533
1.38555
1.3852
1.38433
1.38298
1.38118
1.37897
1.37639
1.37348
1.37029
1.36689
1.36333
1.35967
1.35598
1.35231
1.34872
1.34528
1.34204
1.33886
1.33563
0.0334764
0.031409
0.0293427
0.0272695
0.0249508
0.0223784
0.0196869
0.0169576
0.0142704
0.0116928
0.00928231
0.00709607
0.00514974
0.00345755
0.00206019
0.000981785
0.000226083
-0.000195329
-0.000237786
0.000102702
0.000841055
0.00198867
0.00355996
0.00556695
0.00801538
0.010904
0.0142404
0.0180345
0.0222795
0.0269693
0.0321036
0.0376742
0.0436727
0.0500972
0.0569446
0.0642076
0.0718738
0.0799359
0.0883921
0.0972269
0.106415
0.115943
0.125804
0.135984
0.146463
0.157234
0.168297
0.179642
0.191254
0.203122
0.215244
0.227618
0.240236
0.253079
0.266133
0.279386
0.292827
0.306445
0.320223
0.334154
0.348238
0.362475
0.376859
0.391372
0.405997
0.420732
0.435585
0.450563
0.465659
0.480853
0.496137
0.511511
0.526982
0.542544
0.558181
0.573876
0.58962
0.605417
0.621271
0.637175
0.653116
0.669088
0.685099
0.701165
0.717289
0.733458
0.74965
0.765851
0.78206
0.798286
0.81453
0.830781
0.847017
0.863222
0.879395
0.895544
0.911671
0.927759
0.943779
0.959704
0.975528
0.991263
1.00692
1.02248
1.03792
1.05322
1.06833
1.08328
1.09806
1.11268
1.12713
1.14137
1.15537
1.1691
1.18257
1.19578
1.2087
1.22131
1.23355
1.24539
1.25681
1.26781
1.27841
1.28858
1.2983
1.30754
1.31625
1.32444
1.3321
1.33925
1.34589
1.35199
1.35752
1.36246
1.3668
1.37055
1.37372
1.37632
1.37836
1.37983
1.38072
1.38104
1.38081
1.38007
1.37884
1.37716
1.37506
1.37256
1.36973
1.36659
1.36322
1.35967
1.35599
1.35221
1.3484
1.34458
1.34081
1.33716
1.33337
1.32929
0.0417337
0.03853
0.0356221
0.0329194
0.0300864
0.0271075
0.0240867
0.0211121
0.0182514
0.015542
0.0130458
0.0107942
0.00880026
0.00708849
0.00569761
0.00464673
0.00392562
0.00355603
0.00354774
0.00393256
0.00471545
0.00591174
0.00753359
0.00958659
0.0120717
0.0149894
0.0183498
0.0221615
0.0264189
0.0311148
0.0362473
0.0418061
0.0477854
0.0541893
0.0610102
0.0682353
0.0758622
0.0838865
0.0922931
0.101067
0.110194
0.119661
0.129452
0.139553
0.149954
0.160647
0.171626
0.182882
0.1944
0.206174
0.218205
0.230492
0.24302
0.255771
0.268731
0.281891
0.29524
0.308761
0.322439
0.33627
0.350258
0.3644
0.378685
0.393092
0.407614
0.422252
0.437016
0.451904
0.466902
0.481995
0.49718
0.512462
0.52784
0.543305
0.558841
0.574438
0.590095
0.605816
0.621596
0.63742
0.653275
0.66916
0.685089
0.701073
0.71711
0.733179
0.749259
0.765345
0.781445
0.797567
0.813705
0.82984
0.845952
0.862036
0.8781
0.894154
0.910189
0.926176
0.942083
0.957889
0.9736
0.989229
1.00478
1.02023
1.03555
1.05071
1.0657
1.08054
1.09522
1.10974
1.12407
1.13818
1.15205
1.16567
1.17903
1.19214
1.20496
1.21746
1.22959
1.24131
1.25263
1.26356
1.27409
1.2842
1.29386
1.30304
1.3117
1.31986
1.3275
1.33465
1.34129
1.3474
1.35294
1.35789
1.36227
1.36607
1.36931
1.37199
1.37411
1.37566
1.37663
1.37705
1.37692
1.37628
1.37515
1.37356
1.37153
1.3691
1.3663
1.36318
1.3598
1.35621
1.35244
1.34853
1.34451
1.34041
1.33629
1.33218
1.32778
1.32284
0.0500984
0.0457476
0.0419884
0.0386107
0.0352251
0.0318009
0.028422
0.02517
0.0220899
0.0192207
0.0165948
0.0142344
0.0121643
0.010408
0.00899169
0.00793073
0.00722244
0.00687951
0.00690302
0.00732152
0.0081427
0.00937638
0.0110341
0.0131221
0.0156402
0.0185916
0.0219795
0.0258083
0.0300806
0.0347876
0.0399204
0.0454761
0.05145
0.0578387
0.0646385
0.0718403
0.0794371
0.0874245
0.0957897
0.104515
0.113589
0.123002
0.132734
0.142769
0.153102
0.163729
0.174641
0.185819
0.197255
0.208949
0.220907
0.23312
0.245569
0.258238
0.271119
0.284202
0.297469
0.310901
0.324486
0.338227
0.352128
0.366179
0.380362
0.394664
0.409086
0.423636
0.438316
0.453116
0.468019
0.483017
0.498112
0.51331
0.528602
0.543973
0.559412
0.574918
0.590497
0.606148
0.621856
0.6376
0.65337
0.669174
0.685026
0.700934
0.716882
0.732848
0.748817
0.764796
0.780797
0.796822
0.812856
0.828876
0.844871
0.860846
0.876818
0.892789
0.908736
0.924624
0.940422
0.956123
0.971737
0.987276
1.00273
1.01808
1.03328
1.04832
1.06321
1.07796
1.09256
1.10699
1.12121
1.1352
1.14896
1.16248
1.17576
1.18878
1.20151
1.21391
1.22593
1.23756
1.24882
1.25969
1.27017
1.28023
1.28985
1.29898
1.30761
1.31576
1.32341
1.33057
1.33723
1.34334
1.34889
1.35387
1.35828
1.36214
1.36545
1.36821
1.3704
1.37202
1.37307
1.37356
1.37352
1.37297
1.37192
1.3704
1.36842
1.36601
1.36322
1.36009
1.35666
1.35298
1.34908
1.34499
1.34072
1.33631
1.33181
1.32723
1.32221
1.31642
0.0583825
0.0529209
0.0483019
0.0442315
0.040274
0.0363883
0.0326413
0.0290813
0.0257581
0.02269
0.019895
0.017406
0.0152408
0.0134104
0.0119396
0.0108406
0.0101225
0.0097735
0.00981681
0.010256
0.0111067
0.0123719
0.0140562
0.0161718
0.0187214
0.0217042
0.0251196
0.0289699
0.033261
0.0379851
0.0431268
0.0486856
0.0546644
0.0610521
0.0678385
0.0750247
0.0826069
0.0905693
0.0988972
0.107585
0.116622
0.125992
0.135672
0.145654
0.155936
0.16651
0.177359
0.188467
0.199834
0.211466
0.223363
0.235508
0.247884
0.260482
0.273298
0.286313
0.299505
0.312854
0.326357
0.34002
0.35384
0.367801
0.381884
0.396087
0.410419
0.424886
0.439484
0.454195
0.469007
0.483918
0.498935
0.514055
0.529264
0.544545
0.559896
0.575324
0.590837
0.606422
0.622057
0.637722
0.653413
0.669145
0.684929
0.70076
0.716615
0.732476
0.748341
0.764225
0.780138
0.79607
0.811999
0.827906
0.843794
0.85968
0.875574
0.891466
0.907323
0.92311
0.938808
0.954419
0.969953
0.985412
1.00078
1.01602
1.03111
1.04606
1.06087
1.07555
1.09007
1.10441
1.11854
1.13243
1.1461
1.15954
1.17275
1.1857
1.19834
1.21065
1.22258
1.23415
1.24536
1.25619
1.26664
1.27667
1.28625
1.29535
1.30398
1.31214
1.31981
1.327
1.33367
1.3398
1.34537
1.35038
1.35484
1.35877
1.36214
1.36496
1.36722
1.3689
1.37001
1.37058
1.37061
1.37013
1.36915
1.36767
1.36572
1.36332
1.36051
1.35732
1.35382
1.35001
1.34595
1.34164
1.3371
1.33235
1.32743
1.32238
1.31673
1.31012
0.0664428
0.059899
0.0544366
0.0496891
0.0451398
0.0407893
0.0366577
0.0327792
0.0291871
0.025887
0.0229047
0.0202703
0.0179865
0.0160592
0.0145132
0.013364
0.0126114
0.0122448
0.0122842
0.0127307
0.0135969
0.014884
0.0165932
0.018736
0.0213162
0.0243254
0.0277658
0.0316468
0.035963
0.0407042
0.0458669
0.0514457
0.0574329
0.0638242
0.0706162
0.0778031
0.085375
0.09332
0.10163
0.110297
0.119307
0.12864
0.138282
0.148228
0.158473
0.169
0.17979
0.190839
0.202152
0.213731
0.225568
0.237646
0.249956
0.262494
0.27525
0.288199
0.301318
0.314595
0.328031
0.341627
0.355372
0.369245
0.383236
0.397354
0.411609
0.426
0.440515
0.455138
0.469865
0.484702
0.49965
0.514697
0.529824
0.545021
0.560299
0.575667
0.591122
0.606642
0.622202
0.63779
0.653413
0.669084
0.684802
0.700551
0.716308
0.732067
0.747841
0.763643
0.779473
0.79531
0.811132
0.826935
0.842734
0.858545
0.874368
0.890178
0.905941
0.92163
0.937239
0.952774
0.968239
0.983622
0.9989
1.01405
1.02906
1.04393
1.05868
1.0733
1.08775
1.102
1.11604
1.12986
1.14346
1.15684
1.16999
1.18287
1.19544
1.20767
1.21955
1.23109
1.24226
1.25307
1.26349
1.2735
1.28306
1.29217
1.30081
1.309
1.31671
1.32392
1.33061
1.33677
1.34237
1.34742
1.35194
1.35592
1.35936
1.36224
1.36456
1.36629
1.36747
1.36809
1.36819
1.36776
1.36683
1.36538
1.36344
1.36102
1.35816
1.35491
1.3513
1.34735
1.34309
1.33853
1.3337
1.32859
1.32325
1.31772
1.31145
1.30404
0.0741373
0.0665644
0.0602982
0.054876
0.0497549
0.0449173
0.0403966
0.0361904
0.0323035
0.0287578
0.0255755
0.0227742
0.0203516
0.0183129
0.0166787
0.0154691
0.0146671
0.0142778
0.0142965
0.0147408
0.015613
0.0169132
0.0186454
0.0208146
0.0234237
0.0264621
0.0299284
0.0338384
0.0381892
0.0429604
0.0481462
0.053748
0.0597577
0.0661669
0.0729715
0.0801649
0.0877376
0.0956817
0.103989
0.112646
0.121637
0.130948
0.140569
0.150493
0.160706
0.171189
0.181931
0.192935
0.204203
0.215731
0.227506
0.239521
0.251772
0.264255
0.27695
0.289832
0.302883
0.316101
0.329485
0.343024
0.356698
0.370493
0.38441
0.398463
0.412655
0.426974
0.441405
0.455945
0.4706
0.485373
0.500256
0.515227
0.530273
0.5454
0.560622
0.575941
0.59134
0.606792
0.622278
0.637799
0.653367
0.668981
0.68463
0.70029
0.715951
0.731621
0.747316
0.763044
0.77879
0.79453
0.810253
0.825968
0.841696
0.857442
0.873193
0.888918
0.904587
0.920188
0.935721
0.95119
0.96659
0.9819
0.997097
1.01216
1.0271
1.04192
1.05662
1.07118
1.08557
1.09976
1.11373
1.12749
1.14104
1.15437
1.16746
1.18028
1.19279
1.20498
1.21683
1.22835
1.23951
1.25031
1.26072
1.27072
1.28029
1.28941
1.29809
1.30631
1.31407
1.32132
1.32804
1.33423
1.33988
1.34499
1.34956
1.3536
1.3571
1.36004
1.36241
1.3642
1.36543
1.36611
1.36626
1.36588
1.36497
1.36354
1.36158
1.35913
1.35622
1.35288
1.34914
1.34503
1.34055
1.33573
1.33057
1.32509
1.31932
1.31331
1.30644
1.29826
0.0813517
0.072804
0.065762
0.0597062
0.0540264
0.0487039
0.0437802
0.0392314
0.0350561
0.0312634
0.027867
0.0248826
0.0223079
0.0201462
0.0184193
0.0171343
0.0162766
0.0158484
0.0158474
0.0162863
0.0171556
0.0184619
0.02022
0.0224211
0.0250504
0.0281124
0.0316188
0.0355682
0.039948
0.0447492
0.0499699
0.0556039
0.0616393
0.0680703
0.0748946
0.0821047
0.0896903
0.0976438
0.105955
0.114611
0.123596
0.132899
0.142512
0.152421
0.162606
0.173055
0.183764
0.194737
0.205967
0.217444
0.229162
0.241122
0.253323
0.265752
0.278384
0.2912
0.304197
0.317371
0.330712
0.344197
0.357808
0.371543
0.385411
0.399418
0.413555
0.427802
0.442157
0.456627
0.471221
0.485933
0.500744
0.515638
0.530614
0.545686
0.560864
0.576136
0.591475
0.606858
0.62228
0.637749
0.653267
0.668823
0.684396
0.69997
0.715547
0.731143
0.746769
0.762423
0.778082
0.793731
0.80937
0.825017
0.840686
0.856371
0.872047
0.887685
0.903267
0.918791
0.93426
0.94967
0.965007
0.980249
0.995374
1.01038
1.02527
1.04004
1.0547
1.06921
1.08354
1.09767
1.11159
1.12531
1.13882
1.15212
1.16517
1.17794
1.19042
1.20258
1.21442
1.22594
1.23711
1.24791
1.25833
1.26833
1.27792
1.28708
1.2958
1.30407
1.31187
1.31917
1.32594
1.33218
1.33789
1.34306
1.34769
1.3518
1.35536
1.35835
1.36078
1.36262
1.36391
1.36464
1.36483
1.36448
1.36359
1.36215
1.36018
1.35769
1.35471
1.35126
1.34738
1.34308
1.33837
1.33326
1.32778
1.32191
1.31571
1.30921
1.30176
1.29285
0.0879881
0.0785092
0.0707386
0.0640829
0.0578572
0.0520686
0.0467294
0.0418356
0.0373821
0.0333483
0.029732
0.0265545
0.0238261
0.0215422
0.0197124
0.0183359
0.0174241
0.0169569
0.0169309
0.0173484
0.0182212
0.0195501
0.0213251
0.0235421
0.0262001
0.0293019
0.0328482
0.0368314
0.041245
0.046086
0.0513462
0.0570118
0.0630737
0.0695317
0.0763827
0.083616
0.0912212
0.0991905
0.107512
0.116172
0.125161
0.134469
0.14408
0.153977
0.164143
0.174574
0.185268
0.196219
0.207415
0.218849
0.230525
0.242445
0.254602
0.266975
0.279547
0.292313
0.305271
0.31841
0.331708
0.345142
0.358707
0.372406
0.386246
0.400217
0.414301
0.428488
0.442783
0.457199
0.471737
0.486383
0.50112
0.515944
0.530865
0.545896
0.561032
0.576251
0.591528
0.606852
0.622224
0.637649
0.653117
0.668609
0.684105
0.699602
0.71511
0.730643
0.746203
0.761778
0.77735
0.792917
0.808489
0.824083
0.839699
0.85532
0.870918
0.886473
0.901978
0.917437
0.93285
0.948205
0.963482
0.978661
0.99373
1.00869
1.02354
1.03828
1.0529
1.06737
1.08165
1.09574
1.10964
1.12333
1.13682
1.15008
1.1631
1.17585
1.18831
1.20047
1.21232
1.22385
1.23503
1.24585
1.25629
1.26632
1.27595
1.28515
1.29393
1.30225
1.3101
1.31746
1.32429
1.33059
1.33636
1.3416
1.34631
1.35049
1.35411
1.35717
1.35965
1.36156
1.3629
1.36368
1.3639
1.36357
1.36268
1.36123
1.35923
1.35669
1.35363
1.35007
1.34603
1.34153
1.33658
1.33118
1.32536
1.31911
1.31248
1.30552
1.2975
1.28788
0.0939657
0.0836231
0.0751538
0.0679121
0.0611769
0.0549228
0.0491791
0.0439506
0.0392118
0.0349343
0.0311109
0.0277543
0.0248681
0.0224514
0.020517
0.0190692
0.0180936
0.0175753
0.0175255
0.0179367
0.0188139
0.020155
0.0219479
0.0241894
0.0268832
0.0300271
0.0336117
0.0376328
0.0420902
0.0469758
0.0522738
0.0579717
0.0640657
0.0705559
0.0774369
0.0846973
0.0923263
0.100314
0.10865
0.117324
0.126325
0.135641
0.145251
0.155142
0.165305
0.175735
0.186425
0.19736
0.208532
0.219942
0.231596
0.243487
0.255602
0.267926
0.280455
0.293189
0.306117
0.31922
0.332474
0.34587
0.359409
0.373094
0.386915
0.400854
0.414895
0.42904
0.443298
0.457673
0.472156
0.486733
0.501402
0.51617
0.531051
0.546043
0.561132
0.576294
0.591513
0.606788
0.622121
0.637503
0.652915
0.668338
0.683763
0.699195
0.714646
0.73012
0.745609
0.761102
0.776593
0.79209
0.807609
0.823155
0.838719
0.854274
0.869797
0.885277
0.900717
0.916119
0.931479
0.94678
0.962003
0.977131
0.992157
1.00708
1.02191
1.03662
1.05121
1.06565
1.07991
1.09398
1.10785
1.12153
1.135
1.14825
1.16125
1.17399
1.18646
1.19863
1.21051
1.22206
1.23328
1.24413
1.2546
1.26468
1.27435
1.28361
1.29244
1.30082
1.30874
1.31616
1.32307
1.32945
1.33529
1.34061
1.3454
1.34965
1.35335
1.35648
1.35903
1.36099
1.36238
1.3632
1.36346
1.36314
1.36225
1.36079
1.35875
1.35615
1.353
1.34932
1.34512
1.34041
1.33522
1.32953
1.32337
1.31674
1.30969
1.30227
1.29371
1.2834
0.0992199
0.0880899
0.0789546
0.0711475
0.0639058
0.0572176
0.0510968
0.0455239
0.0404975
0.0359914
0.0319672
0.0284248
0.0253864
0.0228555
0.0208191
0.019291
0.0182544
0.0177016
0.017625
0.0180303
0.018916
0.0202685
0.0220819
0.0243577
0.0270942
0.0302801
0.0339063
0.0379745
0.0424832
0.0474148
0.0527512
0.0584862
0.0646198
0.0711488
0.0780645
0.0853551
0.0930104
0.101022
0.10938
0.118074
0.127091
0.136415
0.14603
0.155927
0.166102
0.176542
0.187231
0.19816
0.209327
0.220734
0.232377
0.244246
0.25633
0.268625
0.281133
0.293847
0.306747
0.319812
0.333031
0.346404
0.359935
0.373612
0.387417
0.40133
0.415345
0.429469
0.443704
0.458043
0.472473
0.486991
0.501605
0.516331
0.531174
0.546123
0.561158
0.576264
0.591433
0.606668
0.621961
0.637295
0.652648
0.668008
0.683373
0.698752
0.714149
0.729562
0.744979
0.760396
0.775817
0.791257
0.806729
0.822228
0.837737
0.853228
0.868685
0.884104
0.899489
0.91484
0.930149
0.945399
0.960573
0.975661
0.990657
1.00556
1.02037
1.03507
1.04963
1.06405
1.07829
1.09235
1.10622
1.1199
1.13336
1.14661
1.15961
1.17236
1.18485
1.19706
1.20897
1.22057
1.23182
1.24272
1.25324
1.26337
1.27311
1.28243
1.29133
1.29978
1.30777
1.31527
1.32226
1.32873
1.33467
1.34008
1.34496
1.34929
1.35308
1.35629
1.35891
1.36094
1.36238
1.36324
1.36352
1.36321
1.36232
1.36083
1.35875
1.35609
1.35285
1.34904
1.34468
1.33977
1.33433
1.32835
1.32186
1.31485
1.3074
1.29953
1.29044
1.27949
0.103709
0.0918337
0.0820855
0.0737428
0.0660165
0.0589103
0.0524277
0.0465437
0.0412366
0.0364803
0.0322562
0.0285529
0.0253696
0.0227148
0.0205915
0.0189901
0.0178966
0.0173078
0.0172126
0.017617
0.0185092
0.0198752
0.0217171
0.0240367
0.02682
0.0300491
0.0337239
0.0378509
0.0424169
0.0473953
0.052774
0.0585561
0.0647402
0.0713155
0.0782701
0.085596
0.0932865
0.101332
0.109721
0.118438
0.127472
0.136811
0.146443
0.156362
0.166554
0.177005
0.187704
0.198643
0.209821
0.221236
0.232877
0.244736
0.256809
0.269099
0.2816
0.294298
0.307172
0.320207
0.333405
0.346769
0.360294
0.373961
0.387749
0.401648
0.415655
0.42977
0.443987
0.458292
0.472678
0.487151
0.501727
0.516417
0.531218
0.546116
0.561098
0.576155
0.591284
0.606482
0.621732
0.637016
0.652314
0.667621
0.682941
0.698275
0.713621
0.728971
0.74432
0.75967
0.775034
0.790426
0.805852
0.821302
0.836754
0.852186
0.867587
0.882957
0.898296
0.913601
0.928862
0.944064
0.959197
0.974253
0.989228
1.00412
1.01891
1.03359
1.04815
1.06255
1.07679
1.09085
1.10473
1.11841
1.13188
1.14514
1.15816
1.17094
1.18346
1.19572
1.20768
1.21933
1.23064
1.2416
1.25219
1.2624
1.2722
1.2816
1.29058
1.29912
1.3072
1.31479
1.32188
1.32845
1.3345
1.34001
1.345
1.34944
1.35332
1.35661
1.35931
1.36141
1.36291
1.36381
1.36411
1.36381
1.36291
1.3614
1.35927
1.35654
1.3532
1.34927
1.34474
1.33963
1.33395
1.32769
1.32088
1.3135
1.30566
1.29735
1.28775
1.27617
0.107364
0.0948139
0.0845082
0.0756527
0.0674653
0.0599665
0.053145
0.0469566
0.0413781
0.0363895
0.0319675
0.0281003
0.0247845
0.0220187
0.0198106
0.0181374
0.0169951
0.0163739
0.0162697
0.0166717
0.0175679
0.0189593
0.0208443
0.0232101
0.0260372
0.0293172
0.0330563
0.0372504
0.0418732
0.0469025
0.052338
0.0581829
0.0644262
0.0710521
0.0780541
0.0854297
0.0931702
0.10126
0.109683
0.118429
0.127491
0.136858
0.146521
0.156466
0.16668
0.177151
0.187871
0.198834
0.210033
0.221461
0.23311
0.244977
0.257062
0.269362
0.281863
0.294548
0.307403
0.320424
0.333614
0.346972
0.360486
0.374139
0.387916
0.401811
0.415818
0.429928
0.444128
0.458406
0.472762
0.487208
0.501757
0.516413
0.531169
0.546017
0.560951
0.575968
0.591063
0.606224
0.621432
0.636667
0.651919
0.667186
0.682468
0.697762
0.71306
0.728353
0.743641
0.758934
0.774248
0.789595
0.804974
0.820373
0.835771
0.851151
0.866505
0.881831
0.897129
0.912391
0.927608
0.942768
0.957866
0.972896
0.987854
1.00273
1.01751
1.03219
1.04674
1.06114
1.07538
1.08945
1.10334
1.11704
1.13053
1.14382
1.15687
1.1697
1.18228
1.19459
1.20661
1.21833
1.22972
1.24076
1.25143
1.26172
1.27162
1.28111
1.29018
1.29882
1.30701
1.31471
1.32191
1.3286
1.33477
1.34041
1.34552
1.35008
1.35407
1.35746
1.36025
1.36242
1.36397
1.36492
1.36525
1.36496
1.36405
1.36251
1.36033
1.35752
1.35408
1.35002
1.34534
1.34003
1.33411
1.32758
1.32045
1.31273
1.3045
1.29578
1.28568
1.27349
0.110173
0.0970017
0.0861606
0.0768596
0.0682423
0.060347
0.0531972
0.0467246
0.0408853
0.0356713
0.0310639
0.0270437
0.0236025
0.0207359
0.0184379
0.0167029
0.0155229
0.0148774
0.0147607
0.0151607
0.0160776
0.0175101
0.0194399
0.0218482
0.024727
0.0280763
0.0318905
0.0361497
0.0408318
0.0459285
0.0514404
0.0573583
0.0636647
0.0703514
0.0774189
0.0848619
0.0926634
0.100804
0.109271
0.118059
0.127164
0.136575
0.146276
0.156254
0.166499
0.177003
0.187756
0.19875
0.209974
0.221423
0.233094
0.244986
0.257096
0.269412
0.281918
0.294599
0.30745
0.32047
0.333659
0.347012
0.360514
0.374155
0.387926
0.401822
0.415831
0.429937
0.444125
0.458388
0.472729
0.48716
0.501688
0.516311
0.531025
0.545828
0.560721
0.575703
0.590765
0.605889
0.621056
0.63625
0.651465
0.666699
0.681948
0.697205
0.712457
0.7277
0.742938
0.758183
0.773451
0.788752
0.804084
0.819433
0.834782
0.850117