/*--------------------------------*- C++ -*----------------------------------*\
  =========                 |
  \\      /  F ield         | OpenFOAM: The Open Source CFD Toolbox
   \\    /   O peration     | Website:  https://openfoam.org
    \\  /    A nd           | Version:  7
     \\/     M anipulation  |
\*---------------------------------------------------------------------------*/
FoamFile
{
    version     2.0;
    format      ascii;
    class       surfaceScalarField;
    location    "0.0375";
    object      phi;
}
// * * * * * * * * * * * * * * * * * * * * * * * * * * * * * * * * * * * * * //

dimensions      [0 3 -1 0 0 0 0];

internalField   nonuniform List<scalar> 
25360
(
1.10146e-10
-1.10161e-10
2.82747e-10
-1.72595e-10
3.37348e-10
-5.4604e-11
2.48493e-10
8.88433e-11
1.62974e-11
2.322e-10
-3.51427e-10
3.67716e-10
-8.47476e-10
4.96056e-10
-1.46504e-09
6.1757e-10
-2.19619e-09
7.31153e-10
-3.03422e-09
8.38025e-10
-3.9732e-09
9.38978e-10
-5.00742e-09
1.03423e-09
-6.1293e-09
1.12187e-09
-7.33338e-09
1.2041e-09
-8.61307e-09
1.27968e-09
-9.9633e-09
1.35024e-09
-1.13764e-08
1.41312e-09
-1.28463e-08
1.46984e-09
-1.43665e-08
1.52022e-09
-1.59312e-08
1.56467e-09
-1.75329e-08
1.60173e-09
-1.91675e-08
1.63456e-09
-2.08288e-08
1.66129e-09
-2.25112e-08
1.68247e-09
-2.42095e-08
1.69827e-09
-2.59183e-08
1.70883e-09
-2.76331e-08
1.71479e-09
-2.93495e-08
1.71638e-09
-3.10624e-08
1.7129e-09
-3.27678e-08
1.70541e-09
-3.44625e-08
1.6947e-09
-3.61426e-08
1.68013e-09
-3.78045e-08
1.66188e-09
-3.94453e-08
1.64083e-09
-4.10626e-08
1.61732e-09
-4.26537e-08
1.59104e-09
-4.42158e-08
1.56215e-09
-4.5747e-08
1.53114e-09
-4.72448e-08
1.49778e-09
-4.87068e-08
1.46205e-09
-5.01315e-08
1.42465e-09
-5.15178e-08
1.38635e-09
-5.28653e-08
1.34749e-09
-5.41734e-08
1.3081e-09
-5.54421e-08
1.26868e-09
-5.66719e-08
1.22979e-09
-5.78632e-08
1.19129e-09
-5.90161e-08
1.15291e-09
-6.01308e-08
1.11472e-09
-6.12077e-08
1.07683e-09
-6.22468e-08
1.03914e-09
-6.32483e-08
1.00149e-09
-6.42122e-08
9.63952e-10
-6.5139e-08
9.26763e-10
-6.6029e-08
8.90024e-10
-6.68826e-08
8.53604e-10
-6.76999e-08
8.17234e-10
-6.84807e-08
7.80828e-10
-6.92254e-08
7.44723e-10
-6.99346e-08
7.0916e-10
-7.06084e-08
6.73845e-10
-7.1247e-08
6.38547e-10
-7.18505e-08
6.03539e-10
-7.24196e-08
5.69063e-10
-7.29546e-08
5.35045e-10
-7.34561e-08
5.01514e-10
-7.39248e-08
4.68676e-10
-7.43614e-08
4.36619e-10
-7.47668e-08
4.05394e-10
-7.51419e-08
3.75117e-10
-7.54877e-08
3.45702e-10
-7.58045e-08
3.16881e-10
-7.60932e-08
2.8871e-10
-7.63549e-08
2.6163e-10
-7.65907e-08
2.35848e-10
-7.68018e-08
2.11044e-10
-7.69886e-08
1.86861e-10
-7.7152e-08
1.63359e-10
-7.72928e-08
1.40815e-10
-7.74121e-08
1.19271e-10
-7.75105e-08
9.8426e-11
-7.75883e-08
7.78151e-11
-7.76453e-08
5.70006e-11
-7.7681e-08
3.57007e-11
-7.76949e-08
1.38558e-11
-7.76864e-08
-8.48889e-12
-7.7655e-08
-3.14404e-11
-7.75996e-08
-5.53402e-11
-7.75191e-08
-8.0505e-11
-7.74121e-08
-1.06998e-10
-7.72774e-08
-1.34739e-10
-7.71136e-08
-1.63802e-10
-7.69191e-08
-1.94472e-10
-7.66921e-08
-2.26988e-10
-7.64308e-08
-2.61314e-10
-7.61336e-08
-2.97175e-10
-7.57993e-08
-3.34286e-10
-7.54268e-08
-3.72501e-10
-7.5015e-08
-4.1179e-10
-7.45629e-08
-4.52124e-10
-7.40695e-08
-4.93421e-10
-7.35339e-08
-5.35596e-10
-7.29553e-08
-5.78644e-10
-7.23325e-08
-6.22718e-10
-7.16644e-08
-6.68141e-10
-7.09491e-08
-7.15286e-10
-7.01847e-08
-7.64379e-10
-6.93694e-08
-8.15367e-10
-6.85014e-08
-8.67962e-10
-6.75795e-08
-9.21872e-10
-6.66025e-08
-9.77018e-10
-6.5569e-08
-1.03353e-09
-6.44775e-08
-1.09151e-09
-6.33267e-08
-1.15079e-09
-6.21158e-08
-1.21086e-09
-6.08446e-08
-1.27119e-09
-5.95133e-08
-1.33137e-09
-5.81221e-08
-1.39122e-09
-5.66716e-08
-1.45045e-09
-5.5163e-08
-1.50858e-09
-5.35981e-08
-1.56494e-09
-5.19791e-08
-1.61899e-09
-5.03086e-08
-1.6705e-09
-4.8589e-08
-1.7196e-09
-4.68225e-08
-1.76647e-09
-4.50114e-08
-1.8111e-09
-4.31583e-08
-1.85313e-09
-4.12663e-08
-1.892e-09
-3.93391e-08
-1.92717e-09
-3.73808e-08
-1.95833e-09
-3.53955e-08
-1.98531e-09
-3.33876e-08
-2.00786e-09
-3.13621e-08
-2.02557e-09
-2.93243e-08
-2.03773e-09
-2.72809e-08
-2.04344e-09
-2.52391e-08
-2.04178e-09
-2.32071e-08
-2.032e-09
-2.11934e-08
-2.01366e-09
-1.9207e-08
-1.98646e-09
-1.72567e-08
-1.95023e-09
-1.5352e-08
-1.90475e-09
-1.35022e-08
-1.84979e-09
-1.17171e-08
-1.78506e-09
-1.0007e-08
-1.71018e-09
-8.38219e-09
-1.62477e-09
-6.85364e-09
-1.52855e-09
-5.43237e-09
-1.42127e-09
-4.12962e-09
-1.30275e-09
-2.95683e-09
-1.17279e-09
-1.92552e-09
-1.03131e-09
-1.04679e-09
-8.78733e-10
-3.30979e-10
-7.15809e-10
2.12904e-10
-5.43883e-10
5.78661e-10
-3.65756e-10
7.65101e-10
-1.86439e-10
7.79232e-10
-1.41285e-11
6.41793e-10
1.37441e-10
3.97067e-10
2.44727e-10
1.32084e-10
2.64985e-10
1.32083e-10
3.12167e-10
-4.22327e-10
6.99284e-10
-5.59718e-10
8.47135e-10
-2.02444e-10
6.66798e-10
2.69177e-10
1.26815e-10
7.7219e-10
-7.87315e-10
1.28185e-09
-2.07809e-09
1.78683e-09
-3.73712e-09
2.27659e-09
-5.75418e-09
2.74822e-09
-8.11332e-09
3.19716e-09
-1.07965e-08
3.62222e-09
-1.37834e-08
4.02104e-09
-1.70544e-08
4.39294e-09
-2.05866e-08
4.73627e-09
-2.43586e-08
5.05165e-09
-2.83481e-08
5.33976e-09
-3.25333e-08
5.59835e-09
-3.68931e-08
5.82964e-09
-4.14047e-08
6.03184e-09
-4.60474e-08
6.20737e-09
-5.08031e-08
6.35738e-09
-5.56503e-08
6.48182e-09
-6.0571e-08
6.58197e-09
-6.55483e-08
6.65979e-09
-7.05653e-08
6.71525e-09
-7.56057e-08
6.74924e-09
-8.06553e-08
6.76439e-09
-8.57001e-08
6.76118e-09
-9.07271e-08
6.73988e-09
-9.57244e-08
6.70268e-09
-1.0068e-07
6.65077e-09
-1.05585e-07
6.58436e-09
-1.10428e-07
6.50533e-09
-1.15203e-07
6.41538e-09
-1.199e-07
6.315e-09
-1.24514e-07
6.20483e-09
-1.29038e-07
6.0859e-09
-1.33466e-07
5.95907e-09
-1.37793e-07
5.82461e-09
-1.42014e-07
5.68334e-09
-1.46126e-07
5.53709e-09
-1.50127e-07
5.38736e-09
-1.54015e-07
5.23505e-09
-1.57788e-07
5.0811e-09
-1.61446e-07
4.92674e-09
-1.64989e-07
4.77293e-09
-1.68418e-07
4.61986e-09
-1.71732e-07
4.46752e-09
-1.74934e-07
4.31612e-09
-1.78023e-07
4.16591e-09
-1.81001e-07
4.01687e-09
-1.83868e-07
3.86883e-09
-1.86626e-07
3.72196e-09
-1.89276e-07
3.57681e-09
-1.91819e-07
3.43355e-09
-1.94258e-07
3.2919e-09
-1.96592e-07
3.15175e-09
-1.98825e-07
3.01323e-09
-2.00956e-07
2.87653e-09
-2.02989e-07
2.74184e-09
-2.04924e-07
2.60915e-09
-2.06764e-07
2.47826e-09
-2.0851e-07
2.34917e-09
-2.10163e-07
2.22226e-09
-2.11726e-07
2.09774e-09
-2.132e-07
1.97548e-09
-2.14586e-07
1.85549e-09
-2.15888e-07
1.73814e-09
-2.17106e-07
1.62373e-09
-2.18243e-07
1.51213e-09
-2.19301e-07
1.40299e-09
-2.2028e-07
1.29612e-09
-2.21183e-07
1.19173e-09
-2.22011e-07
1.09008e-09
-2.22767e-07
9.91161e-10
-2.2345e-07
8.9464e-10
-2.24063e-07
8.00143e-10
-2.24608e-07
7.07487e-10
-2.25083e-07
6.16639e-10
-2.25492e-07
5.27446e-10
-2.25833e-07
4.39364e-10
-2.26106e-07
3.5147e-10
-2.26312e-07
2.62794e-10
-2.26449e-07
1.72674e-10
-2.26516e-07
8.07921e-11
-2.26511e-07
-1.3127e-11
-2.26433e-07
-1.09585e-10
-2.26279e-07
-2.09257e-10
-2.26047e-07
-3.1271e-10
-2.25734e-07
-4.20255e-10
-2.25336e-07
-5.32134e-10
-2.24851e-07
-6.4876e-10
-2.24275e-07
-7.70678e-10
-2.23604e-07
-8.98272e-10
-2.22834e-07
-1.03154e-09
-2.21961e-07
-1.17018e-09
-2.20981e-07
-1.31378e-09
-2.19892e-07
-1.4621e-09
-2.18688e-07
-1.61502e-09
-2.17368e-07
-1.77245e-09
-2.15927e-07
-1.93426e-09
-2.14362e-07
-2.10035e-09
-2.1267e-07
-2.27083e-09
-2.10847e-07
-2.44607e-09
-2.08888e-07
-2.62665e-09
-2.06791e-07
-2.8131e-09
-2.04549e-07
-3.00561e-09
-2.02161e-07
-3.20397e-09
-1.99621e-07
-3.4077e-09
-1.96927e-07
-3.61629e-09
-1.94074e-07
-3.82944e-09
-1.91061e-07
-4.04698e-09
-1.87884e-07
-4.26861e-09
-1.84541e-07
-4.49364e-09
-1.81031e-07
-4.721e-09
-1.77352e-07
-4.94952e-09
-1.73506e-07
-5.17809e-09
-1.69491e-07
-5.40565e-09
-1.65311e-07
-5.63099e-09
-1.60967e-07
-5.85259e-09
-1.56463e-07
-6.06881e-09
-1.51803e-07
-6.27826e-09
-1.46994e-07
-6.47999e-09
-1.4204e-07
-6.67346e-09
-1.36948e-07
-6.85813e-09
-1.31726e-07
-7.03317e-09
-1.26382e-07
-7.1972e-09
-1.20926e-07
-7.34854e-09
-1.15367e-07
-7.48553e-09
-1.09719e-07
-7.60674e-09
-1.03993e-07
-7.7109e-09
-9.82046e-08
-7.79654e-09
-9.23683e-08
-7.86181e-09
-8.65017e-08
-7.90441e-09
-8.06234e-08
-7.92175e-09
-7.47538e-08
-7.91132e-09
-6.89149e-08
-7.87097e-09
-6.31296e-08
-7.79893e-09
-5.74223e-08
-7.69374e-09
-5.18184e-08
-7.55411e-09
-4.63444e-08
-7.37878e-09
-4.10277e-08
-7.16652e-09
-3.58966e-08
-6.91617e-09
-3.09801e-08
-6.62662e-09
-2.6308e-08
-6.29692e-09
-2.19101e-08
-5.92639e-09
-1.78169e-08
-5.51451e-09
-1.40586e-08
-5.06102e-09
-1.06652e-08
-4.56621e-09
-7.66523e-09
-4.03128e-09
-5.08486e-09
-3.4591e-09
-2.94624e-09
-2.85442e-09
-1.26544e-09
-2.22469e-09
-4.89968e-11
-1.58219e-09
7.10367e-10
-9.45801e-10
1.04042e-09
-3.44178e-10
9.99879e-10
1.77982e-10
6.90707e-10
5.53898e-10
2.74234e-10
6.81456e-10
4.06315e-10
4.37061e-10
-8.59391e-10
9.27058e-10
-1.04971e-09
1.06421e-09
-3.39599e-10
7.22867e-10
6.1053e-10
-1.58479e-10
1.65353e-09
-1.61946e-09
2.74283e-09
-3.67619e-09
3.84356e-09
-6.33113e-09
4.93153e-09
-9.57209e-09
5.98918e-09
-1.33777e-08
7.00281e-09
-1.7723e-08
7.9675e-09
-2.25754e-08
8.87337e-09
-2.79008e-08
9.71844e-09
-3.36635e-08
1.0499e-08
-3.98261e-08
1.12142e-08
-4.63496e-08
1.18632e-08
-5.31981e-08
1.24469e-08
-6.03321e-08
1.29637e-08
-6.77186e-08
1.34182e-08
-7.532e-08
1.38088e-08
-8.31024e-08
1.41397e-08
-9.10332e-08
1.44127e-08
-9.90823e-08
1.4631e-08
-1.07219e-07
1.4796e-08
-1.15414e-07
1.49112e-08
-1.23644e-07
1.4979e-08
-1.31883e-07
1.50028e-08
-1.40106e-07
1.4985e-08
-1.48295e-07
1.49284e-08
-1.56428e-07
1.4836e-08
-1.64488e-07
1.47107e-08
-1.72459e-07
1.45547e-08
-1.80324e-07
1.4371e-08
-1.88071e-07
1.41626e-08
-1.95688e-07
1.39316e-08
-2.03163e-07
1.368e-08
-2.10488e-07
1.34103e-08
-2.17653e-07
1.31241e-08
-2.24651e-07
1.28233e-08
-2.31478e-07
1.251e-08
-2.38128e-07
1.21867e-08
-2.44596e-07
1.1856e-08
-2.50881e-07
1.15198e-08
-2.5698e-07
1.118e-08
-2.62892e-07
1.08387e-08
-2.68616e-07
1.04973e-08
-2.74153e-07
1.01567e-08
-2.79503e-07
9.81762e-09
-2.84668e-07
9.48073e-09
-2.89649e-07
9.1465e-09
-2.94447e-07
8.81527e-09
-2.99065e-07
8.4873e-09
-3.03506e-07
8.16296e-09
-3.07772e-07
7.8428e-09
-3.11866e-07
7.52724e-09
-3.15791e-07
7.21632e-09
-3.19549e-07
6.9099e-09
-3.23144e-07
6.60819e-09
-3.26579e-07
6.31169e-09
-3.29857e-07
6.0205e-09
-3.32983e-07
5.73432e-09
-3.35958e-07
5.45312e-09
-3.38786e-07
5.17723e-09
-3.4147e-07
4.90675e-09
-3.44014e-07
4.64148e-09
-3.4642e-07
4.38142e-09
-3.48691e-07
4.12679e-09
-3.50831e-07
3.87765e-09
-3.52841e-07
3.63389e-09
-3.54724e-07
3.3954e-09
-3.56483e-07
3.16192e-09
-3.5812e-07
2.93304e-09
-3.59637e-07
2.70851e-09
-3.61035e-07
2.48841e-09
-3.62316e-07
2.27261e-09
-3.63482e-07
2.06053e-09
-3.64534e-07
1.85142e-09
-3.65471e-07
1.64479e-09
-3.66295e-07
1.44033e-09
-3.67005e-07
1.23749e-09
-3.67601e-07
1.03525e-09
-3.68081e-07
8.32279e-10
-3.68446e-07
6.2736e-10
-3.68693e-07
4.19502e-10
-3.6882e-07
2.07899e-10
-3.68825e-07
-8.25654e-12
-3.68704e-07
-2.29884e-10
-3.68456e-07
-4.57977e-10
-3.68075e-07
-6.93439e-10
-3.67558e-07
-9.36992e-10
-3.66901e-07
-1.18928e-09
-3.66099e-07
-1.45104e-09
-3.65146e-07
-1.72305e-09
-3.64039e-07
-2.00595e-09
-3.6277e-07
-2.29995e-09
-3.61336e-07
-2.60492e-09
-3.59729e-07
-2.92062e-09
-3.57944e-07
-3.24689e-09
-3.55975e-07
-3.5837e-09
-3.53817e-07
-3.93104e-09
-3.51462e-07
-4.28884e-09
-3.48905e-07
-4.65706e-09
-3.4614e-07
-5.03585e-09
-3.43161e-07
-5.42561e-09
-3.39961e-07
-5.82684e-09
-3.36534e-07
-6.23992e-09
-3.32875e-07
-6.6649e-09
-3.28977e-07
-7.10138e-09
-3.24836e-07
-7.54867e-09
-3.20446e-07
-8.00595e-09
-3.15803e-07
-8.47246e-09
-3.10903e-07
-8.94743e-09
-3.05742e-07
-9.42988e-09
-3.00317e-07
-9.91844e-09
-2.94627e-07
-1.04113e-08
-2.8867e-07
-1.09065e-08
-2.82446e-07
-1.14018e-08
-2.75957e-07
-1.1895e-08
-2.69204e-07
-1.23838e-08
-2.62191e-07
-1.28654e-08
-2.54923e-07
-1.3337e-08
-2.47405e-07
-1.37959e-08
-2.39645e-07
-1.42397e-08
-2.31653e-07
-1.46663e-08
-2.23437e-07
-1.50735e-08
-2.15011e-07
-1.54588e-08
-2.06389e-07
-1.58192e-08
-1.97587e-07
-1.61514e-08
-1.8862e-07
-1.64518e-08
-1.7951e-07
-1.6717e-08
-1.70277e-07
-1.69437e-08
-1.60946e-07
-1.71283e-08
-1.51541e-07
-1.72667e-08
-1.42091e-07
-1.73545e-08
-1.32625e-07
-1.73871e-08
-1.23177e-07
-1.73597e-08
-1.1378e-07
-1.72683e-08
-1.04469e-07
-1.7109e-08
-9.52849e-08
-1.68783e-08
-8.6266e-08
-1.6573e-08
-7.74546e-08
-1.61902e-08
-6.8894e-08
-1.57271e-08
-6.06289e-08
-1.51813e-08
-5.2705e-08
-1.45505e-08
-4.51687e-08
-1.38332e-08
-3.80669e-08
-1.30282e-08
-3.14462e-08
-1.21352e-08
-2.53523e-08
-1.11549e-08
-1.98292e-08
-1.00893e-08
-1.49177e-08
-8.94276e-09
-1.06539e-08
-7.72294e-09
-7.06669e-09
-6.44164e-09
-4.1746e-09
-5.11679e-09
-1.98153e-09
-3.77526e-09
-4.71401e-10
-2.45593e-09
4.00138e-10
-1.21572e-09
7.15832e-10
-1.37711e-10
6.07532e-10
6.62196e-10
2.71374e-10
1.01761e-09
6.77689e-10
4.19875e-10
-1.27928e-09
8.06572e-10
-1.43641e-09
7.09927e-10
-2.4295e-10
-1.14971e-11
1.33195e-09
-1.43343e-09
3.07546e-09
-3.60743e-09
4.91683e-09
-6.5585e-09
6.79464e-09
-1.02941e-08
8.66715e-09
-1.48025e-08
1.04975e-08
-2.00638e-08
1.22642e-08
-2.60424e-08
1.3946e-08
-3.27013e-08
1.55323e-08
-3.99961e-08
1.70132e-08
-4.78788e-08
1.83816e-08
-5.63004e-08
1.96358e-08
-6.52111e-08
2.07739e-08
-7.45596e-08
2.17954e-08
-8.42967e-08
2.27008e-08
-9.43722e-08
2.34938e-08
-1.04739e-07
2.41758e-08
-1.15351e-07
2.47519e-08
-1.26164e-07
2.52256e-08
-1.37134e-07
2.5601e-08
-1.48222e-07
2.58841e-08
-1.5939e-07
2.60788e-08
-1.70601e-07
2.61904e-08
-1.81823e-07
2.62245e-08
-1.93024e-07
2.61855e-08
-2.04174e-07
2.60785e-08
-2.15247e-07
2.59091e-08
-2.26218e-07
2.5682e-08
-2.37065e-07
2.54021e-08
-2.47769e-07
2.50744e-08
-2.5831e-07
2.47037e-08
-2.68672e-07
2.42938e-08
-2.78841e-07
2.38489e-08
-2.88804e-07
2.33731e-08
-2.9855e-07
2.28699e-08
-3.08069e-07
2.23428e-08
-3.17355e-07
2.17957e-08
-3.264e-07
2.12323e-08
-3.352e-07
2.0656e-08
-3.43751e-07
2.00704e-08
-3.52049e-07
1.94784e-08
-3.60094e-07
1.8883e-08
-3.67883e-07
1.82865e-08
-3.75417e-07
1.76906e-08
-3.82696e-07
1.7097e-08
-3.89723e-07
1.65072e-08
-3.96498e-07
1.59221e-08
-4.03026e-07
1.53426e-08
-4.09308e-07
1.47693e-08
-4.15348e-07
1.42032e-08
-4.2115e-07
1.36452e-08
-4.26719e-07
1.30956e-08
-4.32057e-07
1.25547e-08
-4.3717e-07
1.20229e-08
-4.42062e-07
1.15006e-08
-4.46739e-07
1.09879e-08
-4.51203e-07
1.04849e-08
-4.55461e-07
9.99191e-09
-4.59516e-07
9.50868e-09
-4.63374e-07
9.03507e-09
-4.67038e-07
8.5712e-09
-4.70514e-07
8.11705e-09
-4.73805e-07
7.67228e-09
-4.76915e-07
7.23663e-09
-4.79847e-07
6.8101e-09
-4.82606e-07
6.39263e-09
-4.85194e-07
5.98364e-09
-4.87615e-07
5.58235e-09
-4.8987e-07
5.1882e-09
-4.91962e-07
4.80091e-09
-4.93894e-07
4.42009e-09
-4.95666e-07
4.04497e-09
-4.9728e-07
3.67456e-09
-4.98737e-07
3.30791e-09
-5.00036e-07
2.94417e-09
-5.01178e-07
2.58248e-09
-5.02162e-07
2.22169e-09
-5.02988e-07
1.86035e-09
-5.03652e-07
1.49684e-09
-5.04154e-07
1.12955e-09
-5.04492e-07
7.57013e-10
-5.04662e-07
3.77947e-10
-5.04661e-07
-8.96942e-12
-5.04486e-07
-4.05165e-10
-5.04132e-07
-8.121e-10
-5.03594e-07
-1.2311e-09
-5.02868e-07
-1.6633e-09
-5.01947e-07
-2.10977e-09
-5.00827e-07
-2.57166e-09
-4.995e-07
-3.0501e-09
-4.9796e-07
-3.54601e-09
-4.962e-07
-4.05992e-09
-4.94212e-07
-4.59204e-09
-4.91991e-07
-5.14245e-09
-4.89526e-07
-5.71126e-09
-4.86811e-07
-6.29865e-09
-4.83838e-07
-6.90476e-09
-4.80597e-07
-7.52965e-09
-4.7708e-07
-8.17336e-09
-4.7328e-07
-8.83603e-09
-4.69188e-07
-9.51791e-09
-4.64795e-07
-1.02193e-08
-4.60095e-07
-1.09403e-08
-4.55079e-07
-1.16808e-08
-4.49741e-07
-1.244e-08
-4.44073e-07
-1.32168e-08
-4.38069e-07
-1.401e-08
-4.31723e-07
-1.48182e-08
-4.2503e-07
-1.56399e-08
-4.17987e-07
-1.64732e-08
-4.1059e-07
-1.73159e-08
-4.02836e-07
-1.81652e-08
-3.94724e-07
-1.90179e-08
-3.86255e-07
-1.98706e-08
-3.77431e-07
-2.07198e-08
-3.68253e-07
-2.15616e-08
-3.58727e-07
-2.23918e-08
-3.48858e-07
-2.3206e-08
-3.38654e-07
-2.39996e-08
-3.28125e-07
-2.47684e-08
-3.17283e-07
-2.5508e-08
-3.06143e-07
-2.62139e-08
-2.94721e-07
-2.68813e-08
-2.83035e-07
-2.75049e-08
-2.71107e-07
-2.8079e-08
-2.58961e-07
-2.85976e-08
-2.46624e-07
-2.90545e-08
-2.34124e-07
-2.94437e-08
-2.21494e-07
-2.97586e-08
-2.08768e-07
-2.99926e-08
-1.95984e-07
-3.01386e-08
-1.83182e-07
-3.01891e-08
-1.70404e-07
-3.0137e-08
-1.57697e-07
-2.99753e-08
-1.45109e-07
-2.96976e-08
-1.32689e-07
-2.92979e-08
-1.20491e-07
-2.87707e-08
-1.08571e-07
-2.81108e-08
-9.69842e-08
-2.73137e-08
-8.57903e-08
-2.63752e-08
-7.50489e-08
-2.5292e-08
-6.48204e-08
-2.40617e-08
-5.51651e-08
-2.26835e-08
-4.61428e-08
-2.11575e-08
-3.78113e-08
-1.94864e-08
-3.02253e-08
-1.76753e-08
-2.34346e-08
-1.57335e-08
-1.74823e-08
-1.36753e-08
-1.24017e-08
-1.15223e-08
-8.21275e-09
-9.30569e-09
-4.91784e-09
-7.07017e-09
-2.49554e-09
-4.87823e-09
-8.92969e-10
-2.81828e-09
-1.86475e-11
-1.01203e-09
2.70152e-10
3.73396e-10
1.77387e-10
1.11038e-09
8.55077e-10
3.12659e-10
-1.59193e-09
4.33564e-10
-1.55731e-09
-7.68039e-11
2.67409e-10
-1.35739e-09
2.61254e-09
-3.48671e-09
5.2048e-09
-6.51752e-09
7.94763e-09
-1.04802e-08
1.07574e-08
-1.53814e-08
1.35683e-08
-2.12125e-08
1.63286e-08
-2.79469e-08
1.89986e-08
-3.55497e-08
2.15488e-08
-4.39756e-08
2.39582e-08
-5.31727e-08
2.62102e-08
-6.3087e-08
2.82959e-08
-7.36589e-08
3.02078e-08
-8.48282e-08
3.19432e-08
-9.65338e-08
3.3501e-08
-1.08717e-07
3.48835e-08
-1.21315e-07
3.60918e-08
-1.34272e-07
3.71331e-08
-1.4753e-07
3.801e-08
-1.61035e-07
3.8731e-08
-1.74736e-07
3.93013e-08
-1.88581e-07
3.97292e-08
-2.02524e-07
4.00217e-08
-2.1652e-07
4.01869e-08
-2.30529e-07
4.0233e-08
-2.44511e-07
4.01673e-08
-2.5843e-07
3.99981e-08
-2.72254e-07
3.97329e-08
-2.85951e-07
3.93794e-08
-2.99495e-07
3.89455e-08
-3.12859e-07
3.84386e-08
-3.26021e-07
3.78656e-08
-3.3896e-07
3.72334e-08
-3.5166e-07
3.65484e-08
-3.64103e-07
3.58166e-08
-3.76277e-07
3.50438e-08
-3.8817e-07
3.42355e-08
-3.99772e-07
3.33977e-08
-4.11075e-07
3.25356e-08
-4.22073e-07
3.16541e-08
-4.32761e-07
3.07582e-08
-4.43135e-07
2.98524e-08
-4.53193e-07
2.89406e-08
-4.62932e-07
2.80261e-08
-4.72354e-07
2.71121e-08
-4.81458e-07
2.62013e-08
-4.90247e-07
2.52959e-08
-4.98722e-07
2.43975e-08
-5.06888e-07
2.35079e-08
-5.14747e-07
2.26286e-08
-5.22304e-07
2.17606e-08
-5.29564e-07
2.09052e-08
-5.36532e-07
2.00634e-08
-5.43213e-07
1.92358e-08
-5.49613e-07
1.84226e-08
-5.55737e-07
1.76246e-08
-5.61591e-07
1.68423e-08
-5.67182e-07
1.60755e-08
-5.72514e-07
1.53242e-08
-5.77594e-07
1.45885e-08
-5.82427e-07
1.38685e-08
-5.8702e-07
1.31638e-08
-5.91377e-07
1.24738e-08
-5.95502e-07
1.17981e-08
-5.99403e-07
1.11367e-08
-6.03081e-07
1.04891e-08
-6.06543e-07
9.8544e-09
-6.09791e-07
9.23182e-09
-6.1283e-07
8.62048e-09
-6.15661e-07
8.01953e-09
-6.18288e-07
7.42804e-09
-6.20713e-07
6.845e-09
-6.22937e-07
6.26924e-09
-6.24962e-07
5.69938e-09
-6.26788e-07
5.13396e-09
-6.28415e-07
4.57155e-09
-6.29844e-07
4.01072e-09
-6.31072e-07
3.44979e-09
-6.32098e-07
2.88679e-09
-6.32921e-07
2.31958e-09
-6.33538e-07
1.74611e-09
-6.33945e-07
1.16448e-09
-6.3414e-07
5.72818e-10
-6.34118e-07
-3.08182e-11
-6.33875e-07
-6.48449e-10
-6.33405e-07
-1.28203e-09
-6.32703e-07
-1.93333e-09
-6.31762e-07
-2.60399e-09
-6.30576e-07
-3.29563e-09
-6.29138e-07
-4.00985e-09
-6.2744e-07
-4.7482e-09
-6.25474e-07
-5.51197e-09
-6.23232e-07
-6.30209e-09
-6.20704e-07
-7.11918e-09
-6.17883e-07
-7.96373e-09
-6.14758e-07
-8.83624e-09
-6.1132e-07
-9.73716e-09
-6.07558e-07
-1.06669e-08
-6.03462e-07
-1.16255e-08
-5.99022e-07
-1.26132e-08
-5.94228e-07
-1.363e-08
-5.8907e-07
-1.46761e-08
-5.83537e-07
-1.57515e-08
-5.77622e-07
-1.6856e-08
-5.71314e-07
-1.79889e-08
-5.64604e-07
-1.91492e-08
-5.57486e-07
-2.03352e-08
-5.49951e-07
-2.15451e-08
-5.41992e-07
-2.27768e-08
-5.33604e-07
-2.40279e-08
-5.24782e-07
-2.52955e-08
-5.15522e-07
-2.65762e-08
-5.05821e-07
-2.78658e-08
-4.95679e-07
-2.916e-08
-4.85096e-07
-3.04538e-08
-4.74073e-07
-3.17421e-08
-4.62616e-07
-3.30193e-08
-4.50728e-07
-3.42793e-08
-4.38418e-07
-3.55157e-08
-4.25696e-07
-3.67217e-08
-4.12574e-07
-3.78905e-08
-3.99067e-07
-3.90152e-08
-3.85192e-07
-4.00885e-08
-3.70971e-07
-4.11027e-08
-3.56426e-07
-4.20497e-08
-3.41585e-07
-4.29207e-08
-3.26476e-07
-4.37066e-08
-3.11132e-07
-4.4398e-08
-2.9559e-07
-4.49854e-08
-2.7989e-07
-4.54592e-08
-2.64073e-07
-4.58093e-08
-2.48186e-07
-4.60253e-08
-2.32279e-07
-4.60966e-08
-2.16403e-07
-4.60129e-08
-2.00614e-07
-4.57642e-08
-1.84971e-07
-4.53408e-08
-1.69535e-07
-4.4734e-08
-1.5437e-07
-4.39354e-08
-1.39543e-07
-4.29376e-08
-1.25123e-07
-4.17337e-08
-1.1118e-07
-4.03181e-08
-9.77859e-08
-3.86864e-08
-8.5012e-08
-3.68356e-08
-7.29301e-08
-3.47653e-08
-6.16104e-08
-3.24773e-08
-5.11202e-08
-2.99765e-08
-4.15227e-08
-2.72728e-08
-3.28748e-08
-2.43814e-08
-2.52252e-08
-2.13249e-08
-1.86109e-08
-1.81365e-08
-1.3054e-08
-1.48626e-08
-8.55726e-09
-1.15669e-08
-5.09837e-09
-8.33712e-09
-2.62463e-09
-5.29202e-09
-1.04516e-09
-2.59149e-09
-2.22489e-10
-4.49278e-10
3.56373e-11
8.52248e-10
8.90716e-10
1.5256e-10
-1.7445e-09
-9.37015e-11
-1.31104e-09
-1.13386e-09
1.30756e-09
-3.09375e-09
4.57244e-09
-6.04662e-09
8.15765e-09
-1.00399e-08
1.19409e-08
-1.51004e-08
1.58179e-08
-2.1234e-08
1.97019e-08
-2.84282e-08
2.35228e-08
-3.66555e-08
2.72259e-08
-4.58765e-08
3.07698e-08
-5.60405e-08
3.41223e-08
-6.70918e-08
3.72615e-08
-7.89668e-08
4.01709e-08
-9.15999e-08
4.28409e-08
-1.04924e-07
4.5267e-08
-1.18869e-07
4.7446e-08
-1.33365e-07
4.93797e-08
-1.48345e-07
5.10719e-08
-1.6374e-07
5.25284e-08
-1.79487e-07
5.37564e-08
-1.9552e-07
5.47641e-08
-2.1178e-07
5.55617e-08
-2.28209e-07
5.61583e-08
-2.44752e-07
5.65648e-08
-2.61357e-07
5.67921e-08
-2.77976e-07
5.68513e-08
-2.94562e-07
5.67538e-08
-3.11075e-07
5.65104e-08
-3.27474e-07
5.61323e-08
-3.43725e-07
5.56301e-08
-3.59794e-07
5.50147e-08
-3.75652e-07
5.42964e-08
-3.91271e-07
5.34851e-08
-4.06628e-07
5.25907e-08
-4.21702e-07
5.16224e-08
-4.36474e-07
5.05885e-08
-4.50928e-07
4.94976e-08
-4.6505e-07
4.83577e-08
-4.78829e-07
4.71766e-08
-4.92255e-07
4.59614e-08
-5.0532e-07
4.47192e-08
-5.18018e-07
4.34564e-08
-5.30345e-07
4.21792e-08
-5.42297e-07
4.08929e-08
-5.53873e-07
3.96024e-08
-5.65073e-07
3.83118e-08
-5.75897e-07
3.7025e-08
-5.86346e-07
3.57455e-08
-5.96425e-07
3.4476e-08
-6.06136e-07
3.32187e-08
-6.15483e-07
3.19758e-08
-6.24472e-07
3.07497e-08
-6.33109e-07
2.95418e-08
-6.41398e-07
2.83529e-08
-6.49347e-07
2.71843e-08
-6.56961e-07
2.60372e-08
-6.64249e-07
2.49121e-08
-6.71216e-07
2.38091e-08
-6.77868e-07
2.27284e-08
-6.84215e-07
2.16704e-08
-6.90261e-07
2.06349e-08
-6.96014e-07
1.96215e-08
-7.0148e-07
1.86297e-08
-7.06665e-07
1.76591e-08
-7.11576e-07
1.6709e-08
-7.16218e-07
1.57785e-08
-7.20596e-07
1.4867e-08
-7.24715e-07
1.39732e-08
-7.28579e-07
1.30961e-08
-7.32193e-07
1.22341e-08
-7.35559e-07
1.13858e-08
-7.38681e-07
1.055e-08
-7.41561e-07
9.72508e-09
-7.44201e-07
8.90918e-09
-7.46602e-07
8.1003e-09
-7.48764e-07
7.29644e-09
-7.50688e-07
6.49569e-09
-7.52374e-07
5.69595e-09
-7.53819e-07
4.8948e-09
-7.55021e-07
4.08961e-09
-7.5598e-07
3.27777e-09
-7.5669e-07
2.45675e-09
-7.5715e-07
1.62406e-09
-7.57354e-07
7.77123e-10
-7.57298e-07
-8.66866e-11
-7.56977e-07
-9.69994e-10
-7.56383e-07
-1.8753e-09
-7.55512e-07
-2.80492e-09
-7.54355e-07
-3.76108e-09
-7.52904e-07
-4.74597e-09
-7.51153e-07
-5.76176e-09
-7.4909e-07
-6.81051e-09
-7.46708e-07
-7.89394e-09
-7.43997e-07
-9.01341e-09
-7.40946e-07
-1.017e-08
-7.37545e-07
-1.13647e-08
-7.33783e-07
-1.25984e-08
-7.29648e-07
-1.38719e-08
-7.25129e-07
-1.51859e-08
-7.20214e-07
-1.65406e-08
-7.14891e-07
-1.7936e-08
-7.09149e-07
-1.93724e-08
-7.02976e-07
-2.08496e-08
-6.9636e-07
-2.23674e-08
-6.8929e-07
-2.39252e-08
-6.81757e-07
-2.5522e-08
-6.73751e-07
-2.71559e-08
-6.65261e-07
-2.88249e-08
-6.5628e-07
-3.05262e-08
-6.468e-07
-3.22571e-08
-6.36813e-07
-3.4014e-08
-6.26316e-07
-3.57928e-08
-6.15304e-07
-3.75887e-08
-6.03773e-07
-3.93962e-08
-5.91724e-07
-4.12093e-08
-5.79156e-07
-4.30213e-08
-5.66073e-07
-4.48254e-08
-5.52479e-07
-4.66137e-08
-5.3838e-07
-4.8378e-08
-5.23786e-07
-5.01095e-08
-5.08709e-07
-5.17988e-08
-4.93163e-07
-5.34362e-08
-4.77167e-07
-5.50117e-08
-4.6074e-07
-5.6515e-08
-4.43908e-07
-5.79351e-08
-4.26697e-07
-5.92602e-08
-4.0914e-07
-6.04782e-08
-3.9127e-07
-6.15763e-08
-3.73127e-07
-6.25414e-08
-3.54752e-07
-6.33604e-08
-3.36191e-07
-6.40196e-08
-3.17495e-07
-6.45053e-08
-2.98718e-07
-6.48031e-08
-2.79915e-07
-6.48991e-08
-2.61149e-07
-6.47792e-08
-2.42483e-07
-6.44298e-08
-2.23986e-07
-6.3838e-08
-2.05728e-07
-6.29918e-08
-1.87784e-07
-6.18799e-08
-1.70229e-07
-6.04921e-08
-1.53143e-07
-5.88196e-08
-1.36606e-07
-5.6855e-08
-1.207e-07
-5.45928e-08
-1.05506e-07
-5.20301e-08
-9.11037e-08
-4.91671e-08
-7.75733e-08
-4.60077e-08
-6.49895e-08
-4.25603e-08
-5.34227e-08
-3.88396e-08
-4.29359e-08
-3.48682e-08
-3.35828e-08
-3.0678e-08
-2.54045e-08
-2.63148e-08
-1.84267e-08
-2.18404e-08
-1.26553e-08
-1.73384e-08
-8.0718e-09
-1.29206e-08
-4.62961e-09
-8.73421e-09
-2.24663e-09
-4.97447e-09
-8.02791e-10
-1.89312e-09
-1.29399e-10
1.78856e-10
7.61318e-10
-3.38788e-11
-1.71062e-09
-7.06451e-10
-6.3847e-10
-2.35017e-09
2.95127e-09
-5.06877e-09
7.29105e-09
-8.9213e-09
1.20102e-08
-1.39478e-08
1.69674e-08
-2.01673e-08
2.20374e-08
-2.758e-08
2.71146e-08
-3.6169e-08
3.21118e-08
-4.59034e-08
3.69603e-08
-5.67371e-08
4.16035e-08
-6.86172e-08
4.60024e-08
-8.14806e-08
5.01249e-08
-9.52597e-08
5.395e-08
-1.09883e-07
5.74639e-08
-1.25273e-07
6.06575e-08
-1.41357e-07
6.35295e-08
-1.58055e-07
6.60782e-08
-1.75294e-07
6.83109e-08
-1.92997e-07
7.02316e-08
-2.11093e-07
7.18521e-08
-2.2951e-07
7.31807e-08
-2.4818e-07
7.42315e-08
-2.67038e-07
7.50166e-08
-2.86023e-07
7.55498e-08
-3.05076e-07
7.58455e-08
-3.24143e-07
7.59181e-08
-3.43172e-07
7.57826e-08
-3.62115e-07
7.54534e-08
-3.80928e-07
7.49453e-08
-3.9957e-07
7.42728e-08
-4.18006e-07
7.34498e-08
-4.36199e-07
7.249e-08
-4.54121e-07
7.14069e-08
-4.71743e-07
7.02132e-08
-4.89042e-07
6.89212e-08
-5.05996e-07
6.75425e-08
-5.22587e-07
6.60882e-08
-5.38798e-07
6.45693e-08
-5.54618e-07
6.29958e-08
-5.70033e-07
6.1377e-08
-5.85036e-07
5.9722e-08
-5.99619e-07
5.80396e-08
-6.13778e-07
5.63376e-08
-6.27507e-07
5.46226e-08
-6.40806e-07
5.29012e-08
-6.53674e-07
5.11795e-08
-6.66112e-07
4.94625e-08
-6.7812e-07
4.77543e-08
-6.89703e-07
4.60589e-08
-7.00865e-07
4.43802e-08
-7.1161e-07
4.27211e-08
-7.21944e-07
4.10838e-08
-7.31873e-07
3.94706e-08
-7.41404e-07
3.78836e-08
-7.50543e-07
3.63241e-08
-7.59299e-07
3.47931e-08
-7.67679e-07
3.32915e-08
-7.7569e-07
3.182e-08
-7.8334e-07
3.03789e-08
-7.90638e-07
2.89679e-08
-7.9759e-07
2.7587e-08
-8.04204e-07
2.62359e-08
-8.10488e-07
2.49139e-08
-8.16449e-07
2.36199e-08
-8.22093e-07
2.2353e-08
-8.27427e-07
2.11123e-08
-8.32456e-07
1.98965e-08
-8.37187e-07
1.87038e-08
-8.41623e-07
1.75325e-08
-8.4577e-07
1.63808e-08
-8.49631e-07
1.52468e-08
-8.5321e-07
1.41286e-08
-8.56508e-07
1.30238e-08
-8.59529e-07
1.19299e-08
-8.62273e-07
1.08443e-08
-8.64741e-07
9.76445e-09
-8.66933e-07
8.68776e-09
-8.68848e-07
7.61128e-09
-8.70486e-07
6.53186e-09
-8.71842e-07
5.44625e-09
-8.72916e-07
4.35123e-09
-8.73703e-07
3.24365e-09
-8.74199e-07
2.12031e-09
-8.744e-07
9.77906e-10
-8.74299e-07
-1.86927e-10
-8.73892e-07
-1.37748e-09
-8.7317e-07
-2.59687e-09
-8.72127e-07
-3.84803e-09
-8.70754e-07
-5.13382e-09
-8.69043e-07
-6.45711e-09
-8.66984e-07
-7.82071e-09
-8.64568e-07
-9.22723e-09
-8.61783e-07
-1.06788e-08
-8.58619e-07
-1.21774e-08
-8.55064e-07
-1.37245e-08
-8.51107e-07
-1.53217e-08
-8.46735e-07
-1.69705e-08
-8.41935e-07
-1.86718e-08
-8.36695e-07
-2.04265e-08
-8.31e-07
-2.2235e-08
-8.24839e-07
-2.40974e-08
-8.18197e-07
-2.60139e-08
-8.11063e-07
-2.79842e-08
-8.03422e-07
-3.00078e-08
-7.95264e-07
-3.20837e-08
-7.86576e-07
-3.42101e-08
-7.77347e-07
-3.63846e-08
-7.67567e-07
-3.86045e-08
-7.57227e-07
-4.08664e-08
-7.46318e-07
-4.31662e-08
-7.34833e-07
-4.54994e-08
-7.22765e-07
-4.78603e-08
-7.10111e-07
-5.02428e-08
-6.96868e-07
-5.26396e-08
-6.83034e-07
-5.5043e-08
-6.68611e-07
-5.74444e-08
-6.53602e-07
-5.98347e-08
-6.38011e-07
-6.22039e-08
-6.21848e-07
-6.45411e-08
-6.05123e-07
-6.68347e-08
-5.8785e-07
-6.90724e-08
-5.70045e-07
-7.12414e-08
-5.51728e-07
-7.33284e-08
-5.32924e-07
-7.53193e-08
-5.13659e-07
-7.71995e-08
-4.93966e-07
-7.89534e-08
-4.73879e-07
-8.05648e-08
-4.53439e-07
-8.2017e-08
-4.32687e-07
-8.32928e-08
-4.11673e-07
-8.43747e-08
-3.90448e-07
-8.52451e-08
-3.69067e-07
-8.58857e-08
-3.47592e-07
-8.62782e-08
-3.26087e-07
-8.64044e-08
-3.0462e-07
-8.62464e-08
-2.83263e-07
-8.57868e-08
-2.62092e-07
-8.50089e-08
-2.41186e-07
-8.38973e-08
-2.20629e-07
-8.24376e-08
-2.00504e-07
-8.06169e-08
-1.80899e-07
-7.84241e-08
-1.61904e-07
-7.58501e-08
-1.43608e-07
-7.28889e-08
-1.26101e-07
-6.95375e-08
-1.09471e-07
-6.57972e-08
-9.3804e-08
-6.16743e-08
-7.91829e-08
-5.71814e-08
-6.5684e-08
-5.23385e-08
-5.33763e-08
-4.71759e-08
-4.23187e-08
-4.17357e-08
-3.25574e-08
-3.60761e-08
-2.41235e-08
-3.02744e-08
-1.70285e-08
-2.44333e-08
-1.12625e-08
-1.86867e-08
-6.78893e-09
-1.32077e-08
-3.5424e-09
-8.221e-09
-1.42566e-09
-4.00985e-09
-3.03895e-10
-9.42913e-10
4.57425e-10
-2.31784e-10
-1.47882e-09
-1.36316e-09
4.92901e-10
-3.64998e-09
5.2381e-09
-7.17245e-09
1.08135e-08
-1.19736e-08
1.68114e-08
-1.80787e-08
2.30725e-08
-2.54969e-08
2.94556e-08
-3.42197e-08
3.58374e-08
-4.4224e-08
4.21161e-08
-5.54705e-08
4.82068e-08
-6.79115e-08
5.40445e-08
-8.14859e-08
5.95769e-08
-9.61273e-08
6.47663e-08
-1.11762e-07
6.95843e-08
-1.28311e-07
7.4013e-08
-1.45695e-07
7.80415e-08
-1.6383e-07
8.16645e-08
-1.82634e-07
8.4883e-08
-2.02025e-07
8.77014e-08
-2.21922e-07
9.01282e-08
-2.42243e-07
9.21739e-08
-2.62914e-07
9.38517e-08
-2.83859e-07
9.51765e-08
-3.05008e-07
9.61648e-08
-3.26291e-07
9.68335e-08
-3.47646e-07
9.72006e-08
-3.69013e-07
9.72843e-08
-3.90333e-07
9.71034e-08
-4.11556e-07
9.66761e-08
-4.32632e-07
9.60209e-08
-4.53516e-07
9.51566e-08
-4.74166e-07
9.41006e-08
-4.94547e-07
9.28703e-08
-5.14623e-07
9.1483e-08
-5.34364e-07
8.99548e-08
-5.53744e-07
8.83011e-08
-5.72739e-07
8.65371e-08
-5.91328e-07
8.46771e-08
-6.09493e-07
8.27345e-08
-6.27219e-07
8.07221e-08
-6.44494e-07
7.86522e-08
-6.61309e-07
7.65363e-08
-6.77654e-07
7.43847e-08
-6.93523e-07
7.22072e-08
-7.08914e-07
7.0013e-08
-7.23823e-07
6.78103e-08
-7.3825e-07
6.56061e-08
-7.52194e-07
6.34072e-08