/*--------------------------------*- C++ -*----------------------------------*\
  =========                 |
  \\      /  F ield         | OpenFOAM: The Open Source CFD Toolbox
   \\    /   O peration     | Website:  https://openfoam.org
    \\  /    A nd           | Version:  7
     \\/     M anipulation  |
\*---------------------------------------------------------------------------*/
FoamFile
{
    version     2.0;
    format      ascii;
    class       volVectorField;
    location    "0.0375";
    object      U;
}
// * * * * * * * * * * * * * * * * * * * * * * * * * * * * * * * * * * * * * //

dimensions      [0 1 -1 0 0 0 0];

internalField   nonuniform List<vector> 
12800
(
(9.18667e-06 -6.65393e-06 0)
(3.36728e-05 -7.75721e-06 0)
(5.34438e-05 2.60371e-06 0)
(5.20999e-05 1.28165e-05 0)
(2.63008e-05 2.13645e-05 0)
(-2.18042e-05 2.82386e-05 0)
(-9.12232e-05 3.36772e-05 0)
(-0.000180466 3.7967e-05 0)
(-0.00028886 4.15594e-05 0)
(-0.000414399 4.46906e-05 0)
(-0.000556844 4.7479e-05 0)
(-0.000714966 5.0194e-05 0)
(-0.000887597 5.26606e-05 0)
(-0.001074 5.47267e-05 0)
(-0.00127293 5.69558e-05 0)
(-0.0014835 5.90508e-05 0)
(-0.001705 6.08891e-05 0)
(-0.00193568 6.28514e-05 0)
(-0.00217505 6.47395e-05 0)
(-0.00242237 6.62488e-05 0)
(-0.00267575 6.78355e-05 0)
(-0.00293485 6.91734e-05 0)
(-0.00319887 7.0232e-05 0)
(-0.00346651 7.14289e-05 0)
(-0.00373709 7.2315e-05 0)
(-0.00400998 7.27744e-05 0)
(-0.004284 7.31528e-05 0)
(-0.00455856 7.34775e-05 0)
(-0.0048331 7.36329e-05 0)
(-0.00510679 7.38274e-05 0)
(-0.00537893 7.40539e-05 0)
(-0.00564905 7.40104e-05 0)
(-0.00591657 7.35738e-05 0)
(-0.00618084 7.29178e-05 0)
(-0.00644152 7.21666e-05 0)
(-0.00669832 7.12602e-05 0)
(-0.00695074 7.02454e-05 0)
(-0.00719832 6.91734e-05 0)
(-0.00744066 6.7968e-05 0)
(-0.00767752 6.65652e-05 0)
(-0.00790854 6.4965e-05 0)
(-0.00813344 6.32961e-05 0)
(-0.00835216 6.16289e-05 0)
(-0.0085646 5.99119e-05 0)
(-0.00877075 5.82056e-05 0)
(-0.00897065 5.65732e-05 0)
(-0.0091643 5.49664e-05 0)
(-0.00935181 5.33527e-05 0)
(-0.00953323 5.17059e-05 0)
(-0.00970855 5.00344e-05 0)
(-0.00987781 4.83907e-05 0)
(-0.010041 4.67463e-05 0)
(-0.0101983 4.50508e-05 0)
(-0.0103496 4.33299e-05 0)
(-0.0104949 4.16009e-05 0)
(-0.0106344 3.98503e-05 0)
(-0.010768 3.80815e-05 0)
(-0.0108959 3.62901e-05 0)
(-0.0110179 3.44733e-05 0)
(-0.0111342 3.26566e-05 0)
(-0.0112448 3.08325e-05 0)
(-0.0113498 2.89518e-05 0)
(-0.0114491 2.70151e-05 0)
(-0.0115429 2.50836e-05 0)
(-0.0116313 2.3198e-05 0)
(-0.0117141 2.13569e-05 0)
(-0.0117917 1.95536e-05 0)
(-0.0118641 1.77927e-05 0)
(-0.0119315 1.60892e-05 0)
(-0.0119939 1.44626e-05 0)
(-0.0120515 1.29142e-05 0)
(-0.0121045 1.1426e-05 0)
(-0.0121529 9.99553e-06 0)
(-0.0121969 8.64719e-06 0)
(-0.0122367 7.40023e-06 0)
(-0.0122724 6.24694e-06 0)
(-0.0123042 5.17234e-06 0)
(-0.0123321 4.17626e-06 0)
(-0.0123565 3.26909e-06 0)
(-0.0123773 2.45765e-06 0)
(-0.0123947 1.73566e-06 0)
(-0.0124088 1.07449e-06 0)
(-0.0124195 4.23391e-07 0)
(-0.0124269 -2.63332e-07 0)
(-0.012431 -9.92784e-07 0)
(-0.0124314 -1.74288e-06 0)
(-0.0124283 -2.51286e-06 0)
(-0.0124213 -3.34513e-06 0)
(-0.0124105 -4.28398e-06 0)
(-0.0123955 -5.3312e-06 0)
(-0.0123763 -6.46224e-06 0)
(-0.0123525 -7.67267e-06 0)
(-0.0123239 -8.98818e-06 0)
(-0.0122902 -1.04308e-05 0)
(-0.0122512 -1.19908e-05 0)
(-0.0122066 -1.36354e-05 0)
(-0.0121561 -1.53358e-05 0)
(-0.0120996 -1.70774e-05 0)
(-0.0120369 -1.88507e-05 0)
(-0.0119678 -2.06456e-05 0)
(-0.0118922 -2.24603e-05 0)
(-0.0118099 -2.43057e-05 0)
(-0.0117208 -2.61965e-05 0)
(-0.0116248 -2.8142e-05 0)
(-0.0115216 -3.01507e-05 0)
(-0.011411 -3.2242e-05 0)
(-0.0112926 -3.44451e-05 0)
(-0.0111663 -3.67794e-05 0)
(-0.0110317 -3.92356e-05 0)
(-0.0108886 -4.17808e-05 0)
(-0.0107368 -4.43867e-05 0)
(-0.0105759 -4.70536e-05 0)
(-0.0104059 -4.98043e-05 0)
(-0.0102266 -5.26529e-05 0)
(-0.0100377 -5.558e-05 0)
(-0.00983917 -5.85379e-05 0)
(-0.00963098 -6.14795e-05 0)
(-0.00941314 -6.43773e-05 0)
(-0.00918574 -6.72148e-05 0)
(-0.00894894 -6.99639e-05 0)
(-0.00870299 -7.25814e-05 0)
(-0.00844821 -7.50285e-05 0)
(-0.00818499 -7.72953e-05 0)
(-0.00791369 -7.94026e-05 0)
(-0.0076347 -8.13824e-05 0)
(-0.00734837 -8.32535e-05 0)
(-0.0070551 -8.50109e-05 0)
(-0.00675536 -8.6635e-05 0)
(-0.0064497 -8.81087e-05 0)
(-0.00613872 -8.94243e-05 0)
(-0.00582307 -9.05736e-05 0)
(-0.00550342 -9.15404e-05 0)
(-0.00518051 -9.23024e-05 0)
(-0.00485519 -9.28289e-05 0)
(-0.00452843 -9.30746e-05 0)
(-0.00420133 -9.29903e-05 0)
(-0.00387513 -9.25381e-05 0)
(-0.00355118 -9.16936e-05 0)
(-0.00323084 -9.04388e-05 0)
(-0.00291554 -8.87514e-05 0)
(-0.00260676 -8.66128e-05 0)
(-0.002306 -8.40295e-05 0)
(-0.00201483 -8.10174e-05 0)
(-0.00173483 -7.75712e-05 0)
(-0.00146766 -7.36686e-05 0)
(-0.001215 -6.92704e-05 0)
(-0.000978595 -6.43461e-05 0)
(-0.000760244 -5.8892e-05 0)
(-0.000561751 -5.28628e-05 0)
(-0.000384991 -4.62056e-05 0)
(-0.000231808 -3.89299e-05 0)
(-0.000103964 -3.10382e-05 0)
(-3.04017e-06 -2.25491e-05 0)
(6.9784e-05 -1.35248e-05 0)
(0.000113813 -4.16139e-06 0)
(0.000129332 5.07036e-06 0)
(0.000118293 1.34342e-05 0)
(8.53264e-05 1.93677e-05 0)
(4.18822e-05 1.9704e-05 0)
(9.79756e-06 9.6781e-06 0)
(2.88464e-05 -3.85536e-05 0)
(8.57588e-05 -5.34941e-05 0)
(0.000134017 -1.88593e-05 0)
(0.000134539 2.43684e-05 0)
(7.76797e-05 6.87337e-05 0)
(-3.80467e-05 0.000111618 0)
(-0.000214649 0.000152906 0)
(-0.000451145 0.000192159 0)
(-0.000745502 0.000229256 0)
(-0.00109639 0.000264365 0)
(-0.00150049 0.000297347 0)
(-0.00195469 0.000328602 0)
(-0.00245636 0.000357238 0)
(-0.00300134 0.000384266 0)
(-0.00358659 0.000408848 0)
(-0.00420863 0.000431505 0)
(-0.00486313 0.000451935 0)
(-0.00554756 0.000470407 0)
(-0.00625836 0.000486447 0)
(-0.00699125 0.000500889 0)
(-0.00774395 0.000512878 0)
(-0.00851325 0.000523199 0)
(-0.00929517 0.000531589 0)
(-0.0100876 0.00053825 0)
(-0.0108879 0.000543112 0)
(-0.0116931 0.000546334 0)
(-0.0125009 0.000548005 0)
(-0.0133089 0.00054814 0)
(-0.0141151 0.000546795 0)
(-0.0149175 0.000544255 0)
(-0.0157142 0.000540627 0)
(-0.0165034 0.000535813 0)
(-0.0172836 0.000529939 0)
(-0.0180534 0.000523106 0)
(-0.0188114 0.000515359 0)
(-0.0195566 0.000506744 0)
(-0.0202879 0.000497363 0)
(-0.0210042 0.000487345 0)
(-0.0217048 0.000476607 0)
(-0.0223887 0.000465193 0)
(-0.0230556 0.000453326 0)
(-0.0237048 0.000441129 0)
(-0.0243359 0.000428721 0)
(-0.0249488 0.000416177 0)
(-0.0255433 0.000403599 0)
(-0.0261194 0.000391158 0)
(-0.0266771 0.000378834 0)
(-0.0272165 0.000366543 0)
(-0.0277378 0.000354328 0)
(-0.028241 0.000342197 0)
(-0.0287262 0.000330123 0)
(-0.0291938 0.000318113 0)
(-0.0296438 0.000306163 0)
(-0.0300764 0.000294298 0)
(-0.0304919 0.000282575 0)
(-0.0308903 0.000270969 0)
(-0.0312721 0.000259404 0)
(-0.0316374 0.000247889 0)
(-0.0319865 0.000236508 0)
(-0.0323196 0.000225287 0)
(-0.0326369 0.000214171 0)
(-0.0329388 0.000203128 0)
(-0.0332256 0.00019219 0)
(-0.0334975 0.000181397 0)
(-0.0337546 0.000170762 0)
(-0.0339975 0.000160306 0)
(-0.0342263 0.000150063 0)
(-0.0344413 0.000140051 0)
(-0.0346428 0.000130288 0)
(-0.0348312 0.00012079 0)
(-0.0350066 0.000111546 0)
(-0.0351694 0.000102516 0)
(-0.03532 9.37089e-05 0)
(-0.0354585 8.51892e-05 0)
(-0.0355852 7.69971e-05 0)
(-0.0357002 6.909e-05 0)
(-0.0358038 6.13999e-05 0)
(-0.0358964 5.39125e-05 0)
(-0.035978 4.66615e-05 0)
(-0.0360488 3.96552e-05 0)
(-0.0361087 3.28282e-05 0)
(-0.0361578 2.60599e-05 0)
(-0.0361962 1.92327e-05 0)
(-0.0362236 1.2276e-05 0)
(-0.03624 5.16598e-06 0)
(-0.0362451 -2.11226e-06 0)
(-0.0362385 -9.60329e-06 0)
(-0.03622 -1.73816e-05 0)
(-0.0361892 -2.55135e-05 0)
(-0.0361457 -3.40295e-05 0)
(-0.036089 -4.29442e-05 0)
(-0.0360186 -5.22935e-05 0)
(-0.0359338 -6.21342e-05 0)
(-0.0358341 -7.25066e-05 0)
(-0.035719 -8.3404e-05 0)
(-0.0355877 -9.47794e-05 0)
(-0.0354397 -0.000106575 0)
(-0.0352743 -0.000118743 0)
(-0.035091 -0.000131254 0)
(-0.0348892 -0.000144092 0)
(-0.0346684 -0.000157245 0)
(-0.0344281 -0.000170712 0)
(-0.0341678 -0.000184508 0)
(-0.0338867 -0.00019867 0)
(-0.0335843 -0.000213265 0)
(-0.0332599 -0.000228368 0)
(-0.0329129 -0.000244028 0)
(-0.0325427 -0.000260242 0)
(-0.0321486 -0.000276953 0)
(-0.03173 -0.000294095 0)
(-0.0312864 -0.000311634 0)
(-0.0308172 -0.000329572 0)
(-0.030322 -0.000347912 0)
(-0.0298004 -0.000366604 0)
(-0.0292523 -0.000385535 0)
(-0.0286773 -0.00040457 0)
(-0.0280753 -0.000423597 0)
(-0.0274463 -0.000442523 0)
(-0.0267906 -0.000461243 0)
(-0.0261085 -0.000479611 0)
(-0.0254005 -0.000497456 0)
(-0.0246673 -0.000514641 0)
(-0.0239097 -0.000531099 0)
(-0.0231283 -0.000546829 0)
(-0.0223244 -0.000561841 0)
(-0.0214989 -0.000576095 0)
(-0.0206532 -0.000589481 0)
(-0.0197888 -0.000601847 0)
(-0.0189072 -0.000613053 0)
(-0.0180102 -0.000623 0)
(-0.0170998 -0.000631604 0)
(-0.016178 -0.000638757 0)
(-0.0152473 -0.000644298 0)
(-0.0143104 -0.000648015 0)
(-0.01337 -0.000649659 0)
(-0.0124294 -0.000648987 0)
(-0.0114918 -0.000645806 0)
(-0.010561 -0.000639974 0)
(-0.00964065 -0.000631375 0)
(-0.0087347 -0.000619911 0)
(-0.00784736 -0.000605484 0)
(-0.00698297 -0.000587998 0)
(-0.00614602 -0.000567372 0)
(-0.00534111 -0.000543518 0)
(-0.0045729 -0.000516333 0)
(-0.00384613 -0.000485736 0)
(-0.00316566 -0.00045165 0)
(-0.00253634 -0.000414 0)
(-0.00196302 -0.000372753 0)
(-0.00145046 -0.000327941 0)
(-0.00100312 -0.000279745 0)
(-0.000624966 -0.000228502 0)
(-0.00031908 -0.000174698 0)
(-8.73612e-05 -0.000119291 0)
(7.00322e-05 -6.39178e-05 0)
(0.000155678 -1.10561e-05 0)
(0.000175783 3.50967e-05 0)
(0.000142196 6.76296e-05 0)
(7.79919e-05 7.5752e-05 0)
(2.08729e-05 4.21173e-05 0)
(4.23854e-05 -0.000101363 0)
(0.000117472 -0.000128907 0)
(0.000174829 -4.83722e-05 0)
(0.000163252 5.93329e-05 0)
(6.71976e-05 0.000175987 0)
(-0.000119096 0.000295956 0)
(-0.000399965 0.000416084 0)
(-0.000777158 0.00053362 0)
(-0.00124967 0.000647273 0)
(-0.00181417 0.000755562 0)
(-0.00246718 0.00085865 0)
(-0.00320455 0.000954835 0)
(-0.00402 0.00104504 0)
(-0.00490843 0.00112793 0)
(-0.00586424 0.00120405 0)
(-0.00688045 0.00127355 0)
(-0.00795175 0.00133575 0)
(-0.00907182 0.00139096 0)
(-0.0102346 0.00143967 0)
(-0.0114353 0.00148156 0)
(-0.0126674 0.00151717 0)
(-0.0139255 0.00154672 0)
(-0.0152053 0.00157054 0)
(-0.0165012 0.00158855 0)
(-0.0178087 0.00160146 0)
(-0.0191239 0.00160932 0)
(-0.0204424 0.00161247 0)
(-0.0217601 0.00161121 0)
(-0.0230739 0.00160563 0)
(-0.0243804 0.00159611 0)
(-0.0256765 0.0015831 0)
(-0.0269596 0.0015668 0)
(-0.0282271 0.00154753 0)
(-0.0294766 0.00152567 0)
(-0.0307061 0.00150135 0)
(-0.0319139 0.00147475 0)
(-0.0330983 0.00144606 0)
(-0.0342577 0.00141551 0)
(-0.035391 0.00138331 0)
(-0.0364973 0.00134961 0)
(-0.0375756 0.00131478 0)
(-0.0386252 0.00127918 0)
(-0.0396456 0.00124295 0)
(-0.0406363 0.00120632 0)
(-0.0415972 0.00116957 0)
(-0.0425281 0.00113286 0)
(-0.043429 0.00109631 0)
(-0.0442999 0.00105994 0)
(-0.0451411 0.00102378 0)
(-0.0459526 0.000987928 0)
(-0.0467348 0.00095239 0)
(-0.047488 0.000917106 0)
(-0.0482128 0.00088217 0)
(-0.0489093 0.000847692 0)
(-0.0495779 0.000813665 0)
(-0.0502192 0.000780078 0)
(-0.0508337 0.000746933 0)
(-0.0514218 0.000714207 0)
(-0.0519841 0.000681937 0)
(-0.0525211 0.000650207 0)
(-0.0530332 0.00061901 0)
(-0.0535211 0.00058828 0)
(-0.0539852 0.000558031 0)
(-0.0544261 0.000528327 0)
(-0.0548442 0.000499188 0)
(-0.0552401 0.000470597 0)
(-0.0556142 0.000442563 0)
(-0.055967 0.000415132 0)
(-0.0562988 0.000388353 0)
(-0.0566102 0.00036222 0)
(-0.0569014 0.000336663 0)
(-0.057173 0.000311617 0)
(-0.0574253 0.000287098 0)
(-0.0576585 0.000263165 0)
(-0.0578728 0.000239819 0)
(-0.0580685 0.000216969 0)
(-0.0582458 0.000194518 0)
(-0.0584049 0.000172423 0)
(-0.0585458 0.000150663 0)
(-0.0586685 0.000129185 0)
(-0.058773 0.000107867 0)
(-0.0588592 8.6541e-05 0)
(-0.0589268 6.5029e-05 0)
(-0.0589758 4.31849e-05 0)
(-0.0590059 2.0914e-05 0)
(-0.0590165 -1.85156e-06 0)
(-0.0590074 -2.52009e-05 0)
(-0.0589779 -4.92613e-05 0)
(-0.0589277 -7.41644e-05 0)
(-0.0588561 -0.000100006 0)
(-0.0587625 -0.000126852 0)
(-0.0586459 -0.000154778 0)
(-0.0585057 -0.000183877 0)
(-0.058341 -0.000214232 0)
(-0.0581512 -0.000245871 0)
(-0.0579352 -0.000278762 0)
(-0.0576922 -0.000312841 0)
(-0.057421 -0.000348052 0)
(-0.0571209 -0.00038437 0)
(-0.056791 -0.000421783 0)
(-0.0564302 -0.000460284 0)
(-0.0560376 -0.000499871 0)
(-0.0556121 -0.000540559 0)
(-0.0551528 -0.000582402 0)
(-0.0546586 -0.000625488 0)
(-0.0541287 -0.000669903 0)
(-0.053562 -0.000715687 0)
(-0.0529577 -0.000762804 0)
(-0.0523149 -0.000811162 0)
(-0.0516327 -0.000860654 0)
(-0.0509102 -0.000911194 0)
(-0.0501468 -0.000962715 0)
(-0.0493419 -0.00101513 0)
(-0.0484951 -0.00106828 0)
(-0.047606 -0.00112196 0)
(-0.0466743 -0.0011759 0)
(-0.0456999 -0.00122985 0)
(-0.0446827 -0.00128357 0)
(-0.0436232 -0.00133678 0)
(-0.0425217 -0.00138914 0)
(-0.0413791 -0.00144033 0)
(-0.040196 -0.00149002 0)
(-0.0389735 -0.001538 0)
(-0.0377129 -0.00158407 0)
(-0.0364158 -0.00162806 0)
(-0.0350839 -0.00166972 0)
(-0.0337195 -0.00170872 0)
(-0.0323249 -0.00174469 0)
(-0.0309027 -0.00177723 0)
(-0.0294558 -0.00180601 0)
(-0.0279874 -0.00183069 0)
(-0.0265012 -0.00185089 0)
(-0.0250012 -0.00186617 0)
(-0.0234916 -0.00187602 0)
(-0.0219772 -0.00187987 0)
(-0.0204628 -0.00187719 0)
(-0.0189538 -0.00186749 0)
(-0.0174558 -0.00185033 0)
(-0.0159747 -0.00182537 0)
(-0.0145167 -0.00179225 0)
(-0.0130885 -0.00175067 0)
(-0.011697 -0.00170034 0)
(-0.0103492 -0.00164099 0)
(-0.00905232 -0.00157237 0)
(-0.0078137 -0.00149429 0)
(-0.0066408 -0.00140657 0)
(-0.00554115 -0.00130911 0)
(-0.00452216 -0.00120189 0)
(-0.00359108 -0.00108505 0)
(-0.00275479 -0.000958988 0)
(-0.00201954 -0.000824468 0)
(-0.0013906 -0.000682685 0)
(-0.000871871 -0.000535511 0)
(-0.000465316 -0.000385905 0)
(-0.000170177 -0.000238256 0)
(1.8086e-05 -9.91713e-05 0)
(0.000108793 2.12497e-05 0)
(0.000118395 0.00010876 0)
(7.47487e-05 0.000141898 0)
(2.17912e-05 8.8365e-05 0)
(4.45162e-05 -0.000173141 0)
(0.000111155 -0.000206192 0)
(0.000142675 -5.9534e-05 0)
(8.25494e-05 0.000136783 0)
(-8.70874e-05 0.000353496 0)
(-0.000372899 0.000581701 0)
(-0.000782228 0.000813505 0)
(-0.00131741 0.00104344 0)
(-0.00197748 0.00126785 0)
(-0.00276012 0.0014835 0)
(-0.00366079 0.00168854 0)
(-0.00467327 0.00188163 0)
(-0.00579141 0.00206156 0)
(-0.00700775 0.00222782 0)
(-0.00831373 0.00238031 0)
(-0.00970258 0.00251838 0)
(-0.0111653 0.00264263 0)
(-0.0126939 0.00275259 0)
(-0.0142811 0.00284896 0)
(-0.0159182 0.00293156 0)
(-0.0175983 0.00300198 0)
(-0.0193143 0.00305961 0)
(-0.0210585 0.00310544 0)
(-0.0228246 0.00314023 0)
(-0.0246065 0.00316414 0)
(-0.0263983 0.00317799 0)
(-0.0281942 0.00318265 0)
(-0.0299892 0.00317847 0)
(-0.0317784 0.00316598 0)
(-0.0335572 0.00314587 0)
(-0.0353217 0.00311867 0)
(-0.037068 0.00308493 0)
(-0.0387928 0.00304544 0)
(-0.0404931 0.00300082 0)
(-0.042166 0.0029514 0)
(-0.0438091 0.00289767 0)
(-0.0454201 0.00284017 0)
(-0.0469971 0.00277924 0)
(-0.0485387 0.00271526 0)
(-0.0500434 0.00264877 0)
(-0.05151 0.00258026 0)
(-0.0529379 0.00251022 0)
(-0.0543261 0.00243901 0)
(-0.0556741 0.00236701 0)
(-0.0569816 0.00229467 0)
(-0.0582483 0.00222225 0)
(-0.0594741 0.00214992 0)
(-0.0606591 0.00207791 0)
(-0.0618036 0.00200639 0)
(-0.0629076 0.00193542 0)
(-0.0639717 0.00186514 0)
(-0.0649963 0.00179559 0)
(-0.065982 0.00172681 0)
(-0.0669293 0.00165898 0)
(-0.0678387 0.00159222 0)
(-0.0687111 0.00152647 0)
(-0.069547 0.00146171 0)
(-0.0703473 0.00139803 0)
(-0.0711126 0.0013355 0)
(-0.0718437 0.00127411 0)
(-0.0725412 0.00121382 0)
(-0.0732061 0.00115467 0)
(-0.073839 0.00109668 0)
(-0.0744406 0.00103986 0)
(-0.0750116 0.000984201 0)
(-0.0755528 0.000929649 0)
(-0.0760647 0.000876208 0)
(-0.076548 0.000823921 0)
(-0.0770031 0.000772787 0)
(-0.0774307 0.000722737 0)
(-0.0778313 0.00067368 0)
(-0.0782053 0.000625549 0)
(-0.078553 0.000578308 0)
(-0.0788749 0.000531924 0)
(-0.0791711 0.000486339 0)
(-0.079442 0.000441448 0)
(-0.0796876 0.00039711 0)
(-0.0799081 0.000353197 0)
(-0.0801035 0.000309607 0)
(-0.0802736 0.000266235 0)
(-0.0804184 0.00022291 0)
(-0.0805376 0.000179391 0)
(-0.080631 0.000135427 0)
(-0.0806983 9.08188e-05 0)
(-0.0807391 4.54152e-05 0)
(-0.0807527 -9.35473e-07 0)
(-0.0807388 -4.84175e-05 0)
(-0.0806966 -9.72338e-05 0)
(-0.0806254 -0.000147569 0)
(-0.0805246 -0.00019957 0)
(-0.0803931 -0.000253369 0)
(-0.08023 -0.000309103 0)
(-0.0800344 -0.00036692 0)
(-0.0798053 -0.000426945 0)
(-0.0795416 -0.000489249 0)
(-0.0792422 -0.000553834 0)
(-0.0789058 -0.000620675 0)
(-0.0785312 -0.000689755 0)
(-0.0781171 -0.000761085 0)
(-0.0776623 -0.000834684 0)
(-0.0771655 -0.000910554 0)
(-0.0766254 -0.000988688 0)
(-0.0760404 -0.00106909 0)
(-0.0754093 -0.00115182 0)
(-0.0747308 -0.00123695 0)
(-0.0740036 -0.00132455 0)
(-0.0732266 -0.00141459 0)
(-0.0723986 -0.001507 0)
(-0.0715184 -0.00160163 0)
(-0.0705849 -0.00169832 0)
(-0.069597 -0.0017969 0)
(-0.0685541 -0.00189721 0)
(-0.0674553 -0.00199903 0)
(-0.0663002 -0.00210207 0)
(-0.0650882 -0.00220596 0)
(-0.0638191 -0.00231029 0)
(-0.0624926 -0.00241465 0)
(-0.061109 -0.00251859 0)
(-0.0596686 -0.0026216 0)
(-0.058172 -0.00272315 0)
(-0.0566202 -0.00282268 0)
(-0.0550141 -0.00291962 0)
(-0.0533551 -0.00301347 0)
(-0.0516449 -0.00310373 0)
(-0.0498857 -0.00318989 0)
(-0.0480799 -0.00327138 0)
(-0.0462304 -0.00334757 0)
(-0.0443405 -0.00341775 0)
(-0.0424137 -0.00348119 0)
(-0.040454 -0.00353714 0)
(-0.0384657 -0.00358488 0)
(-0.0364539 -0.00362362 0)
(-0.0344239 -0.00365254 0)
(-0.0323815 -0.00367074 0)
(-0.030333 -0.00367728 0)
(-0.028285 -0.00367124 0)
(-0.0262445 -0.00365173 0)
(-0.0242189 -0.00361794 0)
(-0.0222161 -0.00356911 0)
(-0.0202445 -0.00350459 0)
(-0.0183128 -0.00342375 0)
(-0.0164299 -0.00332604 0)
(-0.0146052 -0.00321094 0)
(-0.012848 -0.00307798 0)
(-0.0111681 -0.00292684 0)
(-0.00957496 -0.00275734 0)
(-0.00807838 -0.00256945 0)
(-0.00668779 -0.00236338 0)
(-0.00541226 -0.00213968 0)
(-0.0042603 -0.00189938 0)
(-0.00323941 -0.00164417 0)
(-0.00235576 -0.00137661 0)
(-0.00161379 -0.00110053 0)
(-0.00101545 -0.000821567 0)
(-0.000559402 -0.00054773 0)
(-0.00024018 -0.000290646 0)
(-4.66018e-05 -6.67237e-05 0)
(3.91764e-05 0.00010141 0)
(4.60298e-05 0.000181781 0)
(1.69179e-05 0.000126772 0)
(3.95285e-05 -0.000234377 0)
(7.90062e-05 -0.000251997 0)
(5.62132e-05 -1.69891e-05 0)
(-8.21687e-05 0.000290372 0)
(-0.000352963 0.000631415 0)
(-0.000763937 0.000992497 0)
(-0.00132264 0.00136142 0)
(-0.00203171 0.00173089 0)
(-0.0028912 0.00209216 0)
(-0.00389763 0.00244177 0)
(-0.00504589 0.00277491 0)
(-0.00633036 0.00308948 0)
(-0.00774232 0.00338309 0)
(-0.00927323 0.00365487 0)
(-0.0109148 0.00390373 0)
(-0.0126563 0.00412966 0)
(-0.0144888 0.00433249 0)
(-0.0164023 0.0045122 0)
(-0.0183871 0.00466948 0)
(-0.0204339 0.00480498 0)
(-0.0225332 0.00491878 0)
(-0.0246765 0.0050128 0)
(-0.026855 0.00508714 0)
(-0.0290605 0.00514296 0)
(-0.0312854 0.0051812 0)
(-0.0335223 0.00520293 0)
(-0.0357642 0.00520916 0)
(-0.0380049 0.00520093 0)
(-0.0402384 0.00517937 0)
(-0.0424592 0.00514541 0)
(-0.044662 0.00509993 0)
(-0.0468424 0.00504398 0)
(-0.0489958 0.0049785 0)
(-0.0511188 0.00490443 0)
(-0.0532077 0.00482267 0)
(-0.0552595 0.00473405 0)
(-0.0572715 0.00463937 0)
(-0.0592414 0.00453931 0)
(-0.0611672 0.00443456 0)
(-0.0630471 0.00432595 0)
(-0.0648798 0.00421416 0)
(-0.0666641 0.00409982 0)
(-0.0683992 0.00398363 0)
(-0.0700843 0.00386617 0)
(-0.0717189 0.00374798 0)
(-0.0733027 0.00362956 0)
(-0.0748356 0.00351119 0)
(-0.0763176 0.0033932 0)
(-0.077749 0.00327599 0)
(-0.0791299 0.00315976 0)
(-0.080461 0.00304458 0)
(-0.0817429 0.0029307 0)
(-0.0829761 0.00281832 0)
(-0.0841613 0.00270756 0)
(-0.0852992 0.00259849 0)
(-0.0863909 0.0024912 0)
(-0.0874372 0.00238579 0)
(-0.0884389 0.0022823 0)
(-0.0893969 0.00218078 0)
(-0.0903122 0.00208125 0)
(-0.0911859 0.00198368 0)
(-0.0920186 0.00188809 0)
(-0.0928114 0.00179449 0)
(-0.0935653 0.00170287 0)
(-0.094281 0.00161316 0)
(-0.0949594 0.00152533 0)
(-0.0956014 0.00143933 0)
(-0.0962075 0.00135512 0)
(-0.0967786 0.00127264 0)
(-0.0973152 0.0011918 0)
(-0.0978179 0.00111247 0)
(-0.0982874 0.00103453 0)
(-0.0987241 0.000957856 0)
(-0.0991281 0.000882365 0)
(-0.0995 0.000807927 0)
(-0.0998398 0.00073434 0)
(-0.100148 0.000661391 0)
(-0.100424 0.000588906 0)
(-0.100669 0.000516724 0)
(-0.100881 0.000444632 0)
(-0.101062 0.000372345 0)
(-0.10121 0.000299555 0)
(-0.101325 0.000225977 0)
(-0.101407 0.000151358 0)
(-0.101455 7.54536e-05 0)
(-0.101469 -2.0004e-06 0)
(-0.101448 -8.1285e-05 0)
(-0.101391 -0.000162676 0)
(-0.101298 -0.000246419 0)
(-0.101167 -0.000332726 0)
(-0.100997 -0.000421801 0)
(-0.100787 -0.000513859 0)
(-0.100537 -0.000609122 0)
(-0.100244 -0.000707777 0)
(-0.0999076 -0.000809933 0)
(-0.0995265 -0.00091564 0)
(-0.099099 -0.00102493 0)
(-0.0986236 -0.00113786 0)
(-0.0980989 -0.0012545 0)
(-0.0975232 -0.00137488 0)
(-0.0968951 -0.00149901 0)
(-0.0962127 -0.0016269 0)
(-0.0954744 -0.00175854 0)
(-0.0946785 -0.00189399 0)
(-0.0938236 -0.00203329 0)
(-0.0929082 -0.00217644 0)
(-0.0919306 -0.00232336 0)
(-0.0908896 -0.00247391 0)
(-0.0897838 -0.00262789 0)
(-0.0886118 -0.00278504 0)
(-0.0873724 -0.00294509 0)
(-0.0860648 -0.00310775 0)
(-0.0846882 -0.00327262 0)
(-0.0832417 -0.00343927 0)
(-0.081725 -0.00360717 0)
(-0.0801376 -0.0037757 0)
(-0.0784795 -0.00394423 0)
(-0.0767509 -0.00411204 0)
(-0.0749523 -0.0042784 0)
(-0.0730844 -0.0044425 0)
(-0.0711483 -0.00460351 0)
(-0.0691454 -0.00476054 0)
(-0.0670774 -0.00491271 0)
(-0.0649464 -0.00505912 0)
(-0.062755 -0.00519885 0)
(-0.0605064 -0.00533092 0)
(-0.0582041 -0.00545428 0)
(-0.0558521 -0.0055678 0)
(-0.0534549 -0.00567031 0)
(-0.0510173 -0.00576057 0)
(-0.048545 -0.00583734 0)
(-0.0460438 -0.00589935 0)
(-0.0435206 -0.00594529 0)
(-0.0409825 -0.00597377 0)
(-0.038437 -0.0059834 0)
(-0.0358923 -0.00597278 0)
(-0.0333568 -0.00594057 0)
(-0.0308399 -0.0058855 0)
(-0.028351 -0.00580638 0)
(-0.0259002 -0.00570212 0)
(-0.0234982 -0.00557174 0)
(-0.0211557 -0.00541435 0)
(-0.0188839 -0.00522916 0)
(-0.0166941 -0.00501552 0)
(-0.0145978 -0.00477301 0)
(-0.0126065 -0.00450147 0)
(-0.0107316 -0.00420107 0)
(-0.00898414 -0.00387239 0)
(-0.00737471 -0.0035166 0)
(-0.00591301 -0.00313561 0)
(-0.00460756 -0.00273231 0)
(-0.00346529 -0.00231101 0)
(-0.00249112 -0.0018779 0)
(-0.00168714 -0.00144158 0)
(-0.00105207 -0.00101407 0)
(-0.000580244 -0.00061209 0)
(-0.000260468 -0.000258135 0)
(-7.4932e-05 1.68618e-05 0)
(2.90276e-06 0.000172002 0)
(9.19963e-06 0.000145161 0)
(3.04708e-05 -0.000272964 0)
(3.10965e-05 -0.000244693 0)
(-6.38356e-05 0.000103487 0)
(-0.000299571 0.000546162 0)
(-0.000690928 0.00103448 0)
(-0.0012452 0.00155084 0)
(-0.00196848 0.00208092 0)
(-0.00286429 0.0026109 0)
(-0.00393147 0.00313284 0)
(-0.00516624 0.00363779 0)
(-0.00656406 0.00412077 0)
(-0.00811675 0.00457726 0)
(-0.00981646 0.00500461 0)
(-0.0116533 0.00540012 0)
(-0.0136163 0.00576301 0)
(-0.0156957 0.00609264 0)
(-0.0178801 0.00638822 0)
(-0.0201581 0.00665101 0)
(-0.0225188 0.00688048 0)
(-0.0249517 0.0070783 0)
(-0.0274455 0.00724486 0)
(-0.0299902 0.00738158 0)
(-0.0325762 0.0074898 0)
(-0.0351935 0.00757092 0)
(-0.0378334 0.00762633 0)
(-0.0404873 0.0076575 0)
(-0.0431471 0.00766585 0)
(-0.0458052 0.00765292 0)
(-0.0484546 0.0076203 0)
(-0.0510891 0.0075695 0)
(-0.0537025 0.00750192 0)
(-0.0562893 0.00741909 0)
(-0.0588446 0.00732235 0)
(-0.0613638 0.00721297 0)
(-0.0638429 0.00709237 0)
(-0.0662782 0.00696175 0)
(-0.0686665 0.00682225 0)
(-0.0710052 0.00667501 0)
(-0.0732918 0.00652112 0)
(-0.0755242 0.00636167 0)
(-0.0777009 0.00619762 0)
(-0.0798205 0.00602984 0)
(-0.0818818 0.00585931 0)
(-0.083884 0.00568694 0)
(-0.0858263 0.00551334 0)
(-0.0877086 0.00533914 0)
(-0.0895308 0.00516505 0)
(-0.0912926 0.00499155 0)
(-0.0929943 0.00481899 0)
(-0.0946364 0.00464776 0)
(-0.0962194 0.00447824 0)
(-0.0977439 0.00431067 0)
(-0.0992106 0.00414531 0)
(-0.10062 0.00398241 0)
(-0.101974 0.00382208 0)
(-0.103273 0.00366445 0)
(-0.104518 0.00350966 0)
(-0.10571 0.00335782 0)
(-0.10685 0.00320897 0)
(-0.107939 0.00306312 0)
(-0.108979 0.00292029 0)
(-0.10997 0.00278046 0)
(-0.110914 0.0026436 0)
(-0.111811 0.00250969 0)
(-0.112663 0.00237862 0)
(-0.11347 0.00225029 0)
(-0.114234 0.00212463 0)
(-0.114956 0.00200156 0)
(-0.115635 0.00188095 0)
(-0.116274 0.0017626 0)
(-0.116872 0.00164631 0)
(-0.11743 0.00153193 0)
(-0.117949 0.00141932 0)
(-0.118429 0.00130826 0)
(-0.11887 0.00119849 0)
(-0.119274 0.00108971 0)
(-0.119639 0.00098169 0)
(-0.119966 0.000874173 0)
(-0.120255 0.000766885 0)
(-0.120505 0.000659484 0)
(-0.120717 0.000551596 0)
(-0.12089 0.000442843 0)
(-0.121024 0.00033287 0)
(-0.121117 0.000221338 0)
(-0.121171 0.000107906 0)
(-0.121183 -7.79578e-06 0)
(-0.121153 -0.000126152 0)
(-0.12108 -0.000247528 0)
(-0.120963 -0.00037224 0)
(-0.120801 -0.000500576 0)
(-0.120593 -0.000632829 0)
(-0.120337 -0.00076931 0)
(-0.120032 -0.000910321 0)
(-0.119677 -0.0010561 0)
(-0.11927 -0.00120683 0)
(-0.118809 -0.00136261 0)
(-0.118294 -0.00152358 0)
(-0.117721 -0.00168985 0)
(-0.11709 -0.00186153 0)
(-0.116398 -0.00203869 0)
(-0.115644 -0.00222135 0)
(-0.114825 -0.00240954 0)
(-0.11394 -0.00260327 0)
(-0.112987 -0.00280255 0)
(-0.111965 -0.00300736 0)
(-0.11087 -0.00321765 0)
(-0.109703 -0.00343327 0)
(-0.10846 -0.00365402 0)
(-0.10714 -0.00387959 0)
(-0.105743 -0.00410962 0)
(-0.104266 -0.00434371 0)
(-0.102709 -0.0045814 0)
(-0.101071 -0.00482214 0)
(-0.0993502 -0.00506528 0)
(-0.0975469 -0.00531008 0)
(-0.0956605 -0.00555568 0)
(-0.0936911 -0.00580119 0)
(-0.0916388 -0.00604562 0)
(-0.0895043 -0.00628793 0)
(-0.0872885 -0.006527 0)
(-0.0849928 -0.00676164 0)
(-0.0826187 -0.00699056 0)
(-0.0801682 -0.00721245 0)
(-0.077644 -0.00742596 0)
(-0.0750492 -0.00762968 0)
(-0.0723874 -0.00782216 0)
(-0.0696629 -0.00800181 0)
(-0.0668802 -0.008167 0)
(-0.0640446 -0.008316 0)
(-0.0611619 -0.00844703 0)
(-0.0582386 -0.00855827 0)
(-0.0552818 -0.00864788 0)
(-0.0522992 -0.00871397 0)
(-0.0492991 -0.0087546 0)
(-0.0462904 -0.00876781 0)
(-0.0432825 -0.00875166 0)
(-0.0402853 -0.00870427 0)
(-0.0373095 -0.00862386 0)
(-0.0343661 -0.00850877 0)
(-0.0314669 -0.00835746 0)
(-0.0286239 -0.00816852 0)
(-0.0258495 -0.0079407 0)
(-0.0231566 -0.00767295 0)
(-0.0205579 -0.00736445 0)
(-0.0180666 -0.00701474 0)
(-0.0156956 -0.00662377 0)
(-0.0134579 -0.00619198 0)
(-0.0113659 -0.00572044 0)
(-0.00943116 -0.00521109 0)
(-0.00766457 -0.00466689 0)
(-0.0060755 -0.00409218 0)
(-0.00467167 -0.00349325 0)
(-0.00345855 -0.00287877 0)
(-0.00243877 -0.00226052 0)
(-0.00161162 -0.00165456 0)
(-0.000972053 -0.00108222 0)
(-0.000510056 -0.000572121 0)
(-0.000209242 -0.00016182 0)
(-4.78278e-05 9.92893e-05 0)
(3.82629e-07 0.000138285 0)
(1.92184e-05 -0.00028333 0)
(-2.4979e-05 -0.000173048 0)
(-0.000202965 0.000316206 0)
(-0.000548686 0.000918074 0)
(-0.00107374 0.00157655 0)
(-0.00178225 0.00227059 0)
(-0.00268176 0.00298112 0)
(-0.00377259 0.00369363 0)
(-0.00505359 0.0043945 0)
(-0.00652129 0.00507434 0)
(-0.00816826 0.00572535 0)
(-0.00998783 0.00634175 0)
(-0.01197 0.00691893 0)
(-0.0141041 0.00745461 0)
(-0.0163792 0.00794621 0)
(-0.0187834 0.00839271 0)
(-0.0213043 0.00879429 0)
(-0.0239299 0.00915046 0)
(-0.026648 0.00946247 0)
(-0.0294462 0.00973086 0)
(-0.0323131 0.00995744 0)
(-0.0352369 0.010143 0)
(-0.0382064 0.0102899 0)
(-0.0412111 0.0103997 0)
(-0.044241 0.0104745 0)
(-0.0472864 0.0105161 0)
(-0.0503381 0.0105268 0)
(-0.0533877 0.0105084 0)
(-0.0564272 0.0104631 0)
(-0.0594494 0.0103928 0)
(-0.0624474 0.0102996 0)
(-0.065415 0.0101856 0)
(-0.0683466 0.0100525 0)
(-0.0712371 0.00990228 0)
(-0.0740816 0.00973669 0)
(-0.0768762 0.00955745 0)
(-0.0796172 0.00936608 0)
(-0.0823015 0.00916421 0)
(-0.0849262 0.00895338 0)
(-0.0874891 0.0087349 0)
(-0.0899883 0.00851013 0)
(-0.0924222 0.00828041 0)
(-0.0947893 0.00804685 0)
(-0.0970888 0.00781056 0)
(-0.09932 0.00757258 0)
(-0.101482 0.00733373 0)
(-0.103576 0.00709481 0)
(-0.1056 0.00685662 0)
(-0.107556 0.00661975 0)
(-0.109443 0.00638464 0)
(-0.111262 0.00615179 0)
(-0.113015 0.00592168 0)
(-0.114701 0.00569466 0)
(-0.116321 0.00547099 0)
(-0.117878 0.00525089 0)
(-0.119371 0.00503459 0)
(-0.120803 0.00482226 0)
(-0.122173 0.00461402 0)
(-0.123484 0.00440994 0)
(-0.124737 0.00421002 0)
(-0.125932 0.00401428 0)
(-0.127072 0.00382275 0)
(-0.128157 0.00363537 0)
(-0.129188 0.00345201 0)
(-0.130168 0.0032725 0)
(-0.131096 0.00309676 0)
(-0.131974 0.0029247 0)
(-0.132803 0.00275613 0)
(-0.133583 0.00259079 0)
(-0.134316 0.00242843 0)
(-0.135003 0.00226883 0)
(-0.135643 0.00211175 0)
(-0.136238 0.00195691 0)
(-0.136789 0.00180401 0)
(-0.137294 0.00165268 0)
(-0.137755 0.00150257 0)
(-0.138172 0.00135332 0)
(-0.138545 0.00120457 0)
(-0.138874 0.00105593 0)
(-0.139158 0.000906963 0)
(-0.139397 0.000757187 0)
(-0.139592 0.000606127 0)
(-0.139741 0.000453336 0)
(-0.139844 0.000298377 0)
(-0.1399 0.000140792 0)
(-0.139908 -1.9907e-05 0)
(-0.139868 -0.000184205 0)
(-0.139778 -0.000352549 0)
(-0.139637 -0.000525347 0)
(-0.139444 -0.000702996 0)
(-0.139198 -0.000885899 0)
(-0.138896 -0.00107446 0)
(-0.138539 -0.00126905 0)
(-0.138123 -0.00146997 0)
(-0.137648 -0.00167748 0)
(-0.137111 -0.0018918 0)
(-0.13651 -0.00211314 0)
(-0.135844 -0.00234166 0)
(-0.135111 -0.00257751 0)
(-0.134308 -0.00282081 0)
(-0.133434 -0.00307162 0)
(-0.132486 -0.00332998 0)
(-0.131462 -0.00359588 0)
(-0.130361 -0.0038693 0)
(-0.129179 -0.00415018 0)
(-0.127916 -0.00443839 0)
(-0.126569 -0.00473371 0)
(-0.125136 -0.00503583 0)
(-0.123615 -0.00534434 0)
(-0.122006 -0.00565875 0)
(-0.120306 -0.00597851 0)
(-0.118515 -0.006303 0)
(-0.116631 -0.00663145 0)
(-0.114654 -0.00696299 0)
(-0.112582 -0.0072966 0)
(-0.110416 -0.00763118 0)
(-0.108155 -0.00796552 0)
(-0.1058 -0.00829833 0)
(-0.103352 -0.00862824 0)
(-0.100811 -0.00895373 0)
(-0.0981799 -0.00927318 0)
(-0.0954595 -0.00958485 0)
(-0.0926524 -0.00988694 0)
(-0.0897617 -0.0101776 0)
(-0.086791 -0.0104549 0)
(-0.0837443 -0.0107168 0)
(-0.0806264 -0.0109612 0)
(-0.0774426 -0.0111858 0)
(-0.0741988 -0.0113882 0)
(-0.0709016 -0.011566 0)
(-0.0675583 -0.0117169 0)
(-0.0641769 -0.0118382 0)