/*--------------------------------*- C++ -*----------------------------------*\
  =========                 |
  \\      /  F ield         | OpenFOAM: The Open Source CFD Toolbox
   \\    /   O peration     | Website:  https://openfoam.org
    \\  /    A nd           | Version:  7
     \\/     M anipulation  |
\*---------------------------------------------------------------------------*/
FoamFile
{
    version     2.0;
    format      ascii;
    class       volScalarField;
    location    "0.1125";
    object      p;
}
// * * * * * * * * * * * * * * * * * * * * * * * * * * * * * * * * * * * * * //

dimensions      [0 2 -2 0 0 0 0];

internalField   nonuniform List<scalar> 
51200
(
9.66935e-09
3.36152e-05
8.19111e-05
0.000126234
0.000160238
0.000187793
0.000210759
0.000230296
0.000247174
0.000261957
0.000275047
0.000286749
0.000297288
0.00030682
0.000315517
0.00032353
0.000330945
0.000337822
0.00034422
0.000350184
0.000355777
0.000361066
0.000366081
0.000370839
0.000375373
0.000379722
0.000383915
0.00038796
0.000391875
0.00039568
0.000399379
0.000402975
0.000406478
0.000409911
0.000413285
0.000416604
0.00041987
0.000423098
0.000426291
0.00042944
0.000432549
0.00043564
0.000438727
0.000441804
0.000444853
0.000447867
0.00045086
0.00045385
0.000456841
0.000459826
0.000462803
0.000465767
0.000468712
0.000471635
0.000474548
0.000477471
0.00048042
0.000483385
0.000486339
0.000489264
0.000492164
0.000495052
0.000497939
0.000500819
0.00050368
0.000506517
0.000509336
0.000512142
0.000514935
0.000517706
0.000520452
0.000523179
0.000525891
0.000528588
0.000531261
0.000533904
0.000536517
0.000539106
0.000541676
0.000544223
0.000546743
0.000549232
0.00055169
0.000554121
0.000556525
0.000558897
0.000561231
0.000563522
0.000565772
0.000567985
0.000570159
0.000572287
0.000574363
0.000576385
0.000578352
0.00058027
0.000582141
0.000583966
0.000585739
0.000587457
0.000589115
0.000590715
0.000592261
0.000593754
0.000595194
0.000596573
0.000597882
0.000599114
0.000600271
0.000601359
0.000602383
0.00060334
0.000604223
0.000605025
0.000605744
0.000606386
0.000606956
0.000607458
0.000607888
0.000608242
0.000608512
0.000608694
0.000608786
0.000608792
0.000608719
0.000608572
0.000608351
0.000608052
0.00060767
0.000607208
0.00060667
0.000606063
0.000605387
0.000604644
0.000603835
0.00060296
0.000602017
0.000601008
0.000599939
0.000598823
0.000597673
0.000596502
0.000595314
0.000594111
0.000592896
0.000591672
0.00059045
0.000589242
0.000588066
0.000586946
0.000585905
0.000584961
0.000584128
0.000583415
0.000582832
0.000582395
0.000582117
0.000582006
0.000582054
0.000582189
3.33097e-05
6.48795e-05
0.000103126
0.000138667
0.000168526
0.000193632
0.000215044
0.000233569
0.000249796
0.000264139
0.000276933
0.000288449
0.000298869
0.000308347
0.000317014
0.000324989
0.000332381
0.000339271
0.0003457
0.00035171
0.000357358
0.000362696
0.000367759
0.000372571
0.000377153
0.000381538
0.000385751
0.00038981
0.000393744
0.000397566
0.000401279
0.000404887
0.000408404
0.000411847
0.000415225
0.00041854
0.000421803
0.000425028
0.000428212
0.000431346
0.000434435
0.000437498
0.000440552
0.000443597
0.000446623
0.000449628
0.000452614
0.000455576
0.000458511
0.00046143
0.000464347
0.00046727
0.000470189
0.00047309
0.000475971
0.00047885
0.000481741
0.000484641
0.000487536
0.000490413
0.000493272
0.000496119
0.000498953
0.000501771
0.000504568
0.000507347
0.000510115
0.000512872
0.000515609
0.00051832
0.000521006
0.000523675
0.000526331
0.000528971
0.000531583
0.000534162
0.000536712
0.000539244
0.00054176
0.000544252
0.000546712
0.000549136
0.00055153
0.000553903
0.000556254
0.000558575
0.000560854
0.000563083
0.00056527
0.000567421
0.000569539
0.000571616
0.00057364
0.000575605
0.000577514
0.000579374
0.000581193
0.000582969
0.000584693
0.000586359
0.000587965
0.000589513
0.000591011
0.000592461
0.00059386
0.000595199
0.000596465
0.000597654
0.00059877
0.00059982
0.000600807
0.000601731
0.000602583
0.000603355
0.000604046
0.00060466
0.000605206
0.00060569
0.000606108
0.00060645
0.000606709
0.00060688
0.000606964
0.000606967
0.000606897
0.000606758
0.000606551
0.00060627
0.000605908
0.000605467
0.000604953
0.000604375
0.000603739
0.000603045
0.000602291
0.000601472
0.000600588
0.000599639
0.000598635
0.000597589
0.000596517
0.000595432
0.00059434
0.000593238
0.000592125
0.000591002
0.000589878
0.000588769
0.000587696
0.000586681
0.000585743
0.000584899
0.000584157
0.000583522
0.000582999
0.000582595
0.00058232
0.000582181
0.000582189
0.00058232
8.1443e-05
0.000103105
0.000129049
0.000155777
0.000180403
0.000202275
0.000221578
0.000238693
0.000253934
0.000267584
0.000279884
0.000291018
0.000301172
0.000310477
0.000319015
0.000326891
0.000334203
0.000341028
0.000347419
0.000353419
0.000359065
0.000364403
0.00036947
0.000374289
0.000378887
0.000383286
0.000387504
0.000391568
0.000395504
0.000399325
0.000403034
0.00040664
0.00041016
0.000413606
0.000416977
0.000420282
0.000423538
0.00042675
0.000429915
0.000433031
0.000436106
0.000439154
0.000442182
0.000445187
0.000448179
0.000451166
0.000454141
0.000457084
0.000459985
0.000462857
0.000465724
0.000468598
0.000471476
0.000474344
0.000477201
0.000480055
0.000482907
0.000485753
0.000488589
0.000491417
0.00049424
0.000497053
0.000499845
0.00050261
0.00050535
0.000508081
0.000510805
0.000513515
0.000516199
0.000518857
0.000521492
0.000524114
0.000526725
0.000529315
0.000531872
0.000534396
0.000536894
0.000539377
0.000541845
0.000544288
0.000546695
0.000549066
0.000551408
0.000553731
0.000556035
0.000558307
0.000560536
0.000562715
0.000564852
0.000566954
0.000569023
0.000571052
0.000573027
0.000574942
0.000576801
0.000578615
0.000580391
0.000582125
0.000583806
0.000585428
0.000586988
0.000588495
0.000589955
0.000591369
0.000592732
0.000594032
0.000595259
0.000596412
0.000597495
0.000598515
0.000599475
0.000600369
0.000601192
0.000601936
0.000602599
0.000603191
0.00060372
0.000604191
0.000604597
0.000604929
0.000605177
0.000605338
0.000605417
0.00060542
0.000605354
0.000605222
0.000605023
0.000604753
0.000604407
0.000603986
0.000603495
0.000602944
0.000602341
0.000601685
0.000600972
0.000600198
0.000599359
0.000598459
0.000597509
0.000596522
0.000595514
0.000594497
0.000593477
0.000592454
0.00059142
0.000590376
0.000589328
0.000588296
0.0005873
0.000586363
0.000585502
0.000584729
0.000584051
0.000583469
0.000582986
0.000582605
0.000582336
0.000582191
0.000582198
0.000582365
0.000126009
0.000138901
0.000156046
0.000175466
0.000194927
0.000213268
0.000230145
0.000245524
0.000259515
0.00027227
0.000283885
0.000294497
0.000304251
0.000313242
0.000321561
0.000329279
0.000336459
0.000343166
0.000349465
0.000355397
0.000360996
0.000366295
0.000371323
0.000376112
0.00038069
0.000385073
0.000389283
0.000393343
0.000397274
0.000401081
0.000404771
0.000408363
0.000411876
0.000415308
0.000418665
0.00042196
0.000425204
0.000428394
0.000431529
0.000434618
0.000437678
0.000440717
0.000443724
0.000446698
0.000449655
0.000452607
0.000455548
0.000458461
0.000461338
0.000464189
0.000467029
0.000469862
0.000472684
0.000475503
0.000478327
0.000481159
0.000483985
0.000486791
0.000489578
0.000492358
0.000495139
0.000497913
0.000500663
0.00050338
0.000506077
0.000508766
0.000511448
0.000514113
0.000516748
0.000519356
0.000521946
0.000524527
0.000527094
0.000529635
0.000532141
0.000534616
0.000537071
0.000539511
0.000541932
0.000544325
0.000546683
0.000549009
0.00055131
0.000553592
0.000555849
0.000558071
0.00056025
0.000562384
0.000564479
0.000566541
0.000568567
0.000570549
0.000572476
0.000574346
0.000576163
0.00057794
0.000579677
0.000581371
0.000583011
0.00058459
0.000586111
0.000587583
0.000589012
0.000590396
0.000591727
0.00059299
0.00059418
0.000595299
0.000596354
0.000597349
0.000598284
0.000599153
0.000599948
0.000600664
0.000601305
0.000601878
0.000602393
0.000602851
0.000603247
0.000603569
0.000603806
0.000603959
0.000604033
0.000604037
0.000603978
0.000603854
0.000603663
0.000603399
0.000603063
0.000602657
0.000602188
0.000601664
0.000601091
0.000600468
0.000599789
0.00059905
0.000598246
0.000597385
0.00059648
0.000595545
0.000594594
0.000593637
0.000592676
0.000591711
0.000590738
0.000589755
0.000588769
0.000587798
0.000586863
0.000585986
0.000585182
0.000584461
0.000583826
0.000583279
0.00058282
0.000582455
0.000582193
0.00058205
0.000582062
0.000582254
0.000160656
0.000169354
0.000181237
0.000195462
0.000210626
0.00022571
0.000240144
0.00025369
0.000266307
0.000278001
0.00028882
0.000298823
0.000308076
0.000316667
0.000324677
0.000332158
0.000339152
0.000345706
0.000351874
0.000357698
0.000363214
0.000368445
0.000373415
0.000378153
0.000382683
0.000387026
0.000391208
0.00039525
0.00039916
0.000402941
0.000406607
0.000410182
0.000413672
0.000417078
0.000420414
0.000423693
0.00042692
0.000430085
0.000433187
0.000436247
0.000439283
0.000442296
0.000445278
0.000448232
0.000451169
0.000454089
0.000456984
0.000459847
0.000462686
0.000465514
0.000468333
0.000471133
0.000473913
0.000476686
0.00047947
0.000482265
0.000485053
0.000487822
0.000490571
0.000493313
0.000496051
0.000498777
0.000501477
0.00050415
0.000506807
0.000509456
0.000512094
0.000514709
0.000517295
0.000519857
0.000522407
0.000524947
0.000527468
0.000529957
0.000532412
0.000534841
0.000537255
0.000539653
0.000542028
0.000544369
0.000546676
0.000548957
0.00055122
0.000553463
0.000555676
0.000557847
0.000559975
0.000562063
0.000564119
0.000566142
0.000568127
0.000570061
0.000571939
0.000573764
0.000575544
0.000577285
0.000578986
0.00058064
0.000582237
0.000583774
0.000585258
0.000586696
0.000588095
0.00058945
0.000590747
0.000591975
0.00059313
0.000594218
0.000595245
0.000596217
0.000597128
0.000597971
0.000598738
0.000599427
0.000600046
0.000600604
0.000601106
0.000601552
0.000601935
0.000602245
0.000602474
0.000602619
0.000602689
0.000602695
0.000602641
0.000602526
0.000602342
0.000602086
0.000601758
0.000601366
0.000600917
0.000600418
0.000599873
0.00059928
0.000598634
0.000597926
0.000597156
0.00059633
0.000595463
0.000594574
0.000593675
0.000592773
0.000591868
0.000590956
0.000590034
0.000589102
0.000588169
0.000587251
0.000586369
0.000585542
0.000584785
0.000584106
0.000583505
0.000582982
0.000582539
0.000582182
0.000581923
0.000581777
0.000581784
0.000581973
0.000189182
0.00019536
0.000203965
0.000214615
0.000226485
0.000238782
0.000250985
0.000262782
0.000273995
0.000284574
0.000294522
0.000303835
0.000312539
0.000320685
0.000328325
0.0003355
0.000342251
0.000348611
0.000354616
0.000360301
0.000365697
0.000370827
0.000375718
0.000380387
0.000384854
0.000389143
0.000393281
0.000397283
0.000401152
0.000404896
0.000408536
0.000412082
0.000415539
0.000418914
0.000422224
0.000425478
0.000428673
0.000431804
0.000434881
0.000437919
0.000440925
0.000443897
0.000446841
0.00044977
0.000452688
0.000455581
0.000458437
0.000461257
0.000464056
0.000466847
0.000469628
0.000472389
0.000475137
0.000477881
0.000480631
0.00048338
0.000486119
0.000488843
0.000491558
0.000494267
0.000496965
0.000499641
0.000502289
0.000504918
0.000507538
0.000510148
0.00051274
0.000515305
0.000517842
0.000520362
0.000522873
0.000525371
0.000527844
0.000530282
0.000532688
0.000535074
0.000537447
0.000539803
0.00054213
0.000544422
0.00054668
0.000548918
0.00055114
0.000553343
0.000555511
0.000557634
0.000559714
0.000561758
0.000563775
0.00056576
0.000567703
0.000569591
0.000571423
0.000573205
0.000574948
0.000576655
0.00057832
0.000579933
0.000581488
0.000582986
0.000584434
0.000585842
0.000587212
0.000588535
0.000589797
0.00059099
0.000592114
0.000593173
0.000594177
0.000595125
0.000596013
0.00059683
0.000597569
0.000598233
0.000598831
0.000599374
0.000599866
0.0006003
0.00060067
0.000600966
0.000601184
0.000601325
0.000601394
0.000601402
0.000601352
0.000601242
0.000601065
0.000600816
0.000600497
0.000600117
0.000599686
0.000599211
0.000598693
0.000598128
0.000597508
0.000596828
0.000596088
0.000595296
0.000594466
0.000593617
0.000592762
0.000591909
0.000591054
0.00059019
0.000589312
0.000588423
0.000587534
0.000586661
0.000585823
0.000585037
0.000584317
0.000583669
0.000583092
0.000582586
0.000582151
0.000581795
0.000581531
0.000581373
0.000581362
0.00058152
0.00021344
0.000217945
0.000224376
0.000232558
0.00024194
0.000251968
0.000262236
0.000272418
0.000282303
0.000291792
0.000300836
0.000309412
0.000317528
0.000325194
0.000332427
0.00033926
0.000345726
0.000351851
0.000357662
0.000363182
0.000368432
0.000373435
0.000378217
0.000382793
0.000387181
0.000391407
0.000395489
0.000399432
0.000403244
0.000406943
0.000410544
0.000414048
0.000417464
0.000420808
0.00042409
0.000427308
0.000430458
0.000433548
0.000436597
0.000439611
0.000442585
0.00044552
0.000448429
0.000451326
0.000454209
0.000457063
0.00045988
0.000462668
0.000465438
0.000468191
0.000470924
0.000473638
0.00047635
0.000479068
0.000481787
0.000484495
0.000487186
0.000489864
0.000492541
0.000495215
0.00049787
0.000500497
0.000503098
0.000505686
0.000508268
0.000510837
0.000513382
0.000515897
0.000518389
0.00052087
0.000523342
0.000525796
0.000528219
0.000530608
0.00053297
0.000535316
0.000537647
0.000539958
0.000542236
0.00054448
0.000546697
0.000548895
0.000551077
0.000553234
0.000555355
0.000557433
0.00055947
0.000561475
0.000563453
0.000565399
0.000567299
0.000569143
0.000570932
0.000572677
0.000574385
0.000576057
0.000577684
0.000579256
0.00058077
0.00058223
0.000583646
0.000585026
0.000586366
0.000587656
0.000588884
0.000590044
0.000591138
0.000592173
0.000593154
0.000594081
0.000594945
0.000595736
0.00059645
0.000597091
0.000597671
0.000598199
0.000598678
0.000599102
0.000599459
0.000599742
0.000599947
0.000600082
0.000600153
0.000600165
0.000600119
0.000600012
0.000599838
0.000599595
0.000599285
0.000598917
0.000598503
0.00059805
0.000597558
0.000597017
0.000596421
0.000595763
0.000595048
0.000594285
0.000593491
0.000592681
0.000591866
0.000591053
0.000590238
0.000589414
0.000588574
0.000587722
0.000586869
0.000586032
0.00058523
0.000584477
0.000583785
0.000583157
0.000582595
0.000582096
0.000581662
0.000581301
0.000581023
0.000580845
0.000580799
0.000580907
0.000234584
0.000237906
0.000242821
0.000249213
0.000256724
0.000264959
0.000273575
0.000282316
0.000290989
0.000299446
0.000307609
0.00031545
0.000322952
0.000330104
0.000336908
0.000343379
0.000349533
0.000355393
0.000360979
0.000366308
0.000371394
0.000376254
0.000380905
0.000385367
0.000389662
0.00039381
0.000397817
0.000401688
0.000405438
0.000409084
0.00041263
0.00041608
0.00041945
0.000422756
0.000426002
0.000429177
0.000432281
0.000435332
0.000438343
0.000441318
0.000444254
0.000447156
0.000450038
0.000452904
0.000455745
0.00045855
0.000461323
0.000464077
0.000466816
0.000469533
0.000472222
0.000474894
0.000477569
0.000480252
0.000482934
0.0004856
0.000488248
0.000490887
0.000493527
0.000496158
0.000498765
0.000501345
0.000503904
0.000506455
0.000508998
0.000511522
0.000514018
0.000516486
0.000518938
0.000521383
0.000523815
0.000526222
0.000528595
0.000530938
0.00053326
0.000535568
0.000537859
0.000540121
0.000542349
0.000544547
0.000546724
0.000548886
0.000551028
0.00055314
0.000555212
0.000557244
0.000559243
0.000561213
0.000563155
0.00056506
0.000566916
0.000568717
0.000570468
0.000572178
0.000573853
0.00057549
0.000577079
0.00057861
0.000580083
0.000581508
0.000582894
0.000584246
0.000585557
0.000586814
0.000588008
0.000589136
0.000590203
0.000591216
0.000592178
0.000593083
0.000593923
0.000594688
0.000595378
0.000596
0.000596563
0.000597078
0.000597544
0.000597955
0.0005983
0.00059857
0.000598764
0.000598893
0.000598964
0.000598981
0.00059894
0.000598835
0.000598663
0.000598422
0.000598119
0.000597764
0.000597366
0.000596933
0.000596462
0.000595944
0.000595369
0.000594731
0.000594036
0.000593299
0.000592535
0.00059176
0.000590984
0.000590207
0.000589424
0.000588631
0.000587821
0.000586998
0.000586174
0.000585367
0.000584593
0.000583867
0.000583194
0.000582579
0.00058202
0.000581518
0.000581077
0.000580703
0.000580407
0.000580201
0.00058011
0.00058015
0.000253354
0.000255829
0.000259614
0.000264665
0.000270753
0.000277549
0.000284797
0.000292292
0.000299859
0.000307356
0.000314699
0.000321833
0.000328719
0.000335344
0.000341703
0.000347795
0.000353626
0.000359204
0.000364541
0.000369656
0.000374559
0.000379257
0.000383764
0.000388102
0.000392292
0.000396343
0.000400256
0.000404046
0.000407728
0.000411307
0.000414789
0.000418182
0.000421503
0.000424762
0.000427954
0.000431077
0.000434139
0.000437154
0.000440124
0.000443051
0.00044594
0.000448806
0.000451659
0.00045449
0.000457287
0.000460047
0.00046278
0.000465496
0.000468194
0.000470865
0.000473514
0.000476155
0.000478797
0.000481441
0.000484076
0.000486696
0.000489306
0.000491912
0.000494513
0.000497097
0.000499655
0.00050219
0.000504711
0.000507226
0.000509727
0.000512204
0.000514651
0.000517077
0.000519493
0.000521901
0.00052429
0.00052665
0.000528975
0.000531274
0.000533559
0.00053583
0.000538078
0.000540294
0.000542473
0.000544627
0.000546766
0.000548891
0.000550993
0.000553059
0.000555085
0.000557074
0.000559035
0.000560973
0.00056288
0.000564743
0.000566556
0.000568316
0.000570031
0.00057171
0.000573352
0.000574954
0.000576503
0.000577994
0.00057943
0.000580822
0.00058218
0.000583504
0.000584784
0.000586008
0.000587169
0.000588268
0.000589311
0.000590304
0.000591247
0.000592132
0.000592947
0.000593686
0.000594353
0.000594957
0.000595507
0.00059601
0.000596463
0.000596859
0.000597189
0.000597447
0.000597634
0.000597759
0.000597829
0.000597849
0.000597811
0.000597709
0.000597536
0.000597296
0.000596999
0.000596655
0.000596274
0.000595859
0.000595406
0.000594906
0.000594348
0.000593729
0.000593054
0.000592338
0.0005916
0.000590856
0.000590112
0.000589366
0.000588611
0.000587841
0.000587054
0.000586255
0.000585456
0.000584671
0.000583918
0.000583209
0.000582549
0.000581938
0.000581375
0.000580862
0.000580405
0.000580011
0.000579689
0.000579449
0.000579305
0.000579268
0.000270249
0.000272089
0.000275035
0.000279067
0.000284008
0.000289646
0.000295773
0.000302199
0.00030878
0.000315405
0.000321984
0.000328444
0.00033474
0.000340848
0.000346755
0.000352458
0.000357954
0.000363239
0.000368319
0.000373204
0.000377903
0.000382422
0.000386775
0.000390983
0.000395055
0.000398992
0.000402803
0.000406506
0.000410106
0.000413606
0.000417015
0.00042035
0.00042362
0.000426822
0.000429951
0.000433015
0.000436032
0.000439004
0.000441928
0.000444806
0.000447653
0.000450483
0.000453297
0.000456083
0.000458831
0.00046155
0.000464249
0.000466926
0.000469575
0.000472197
0.000474806
0.000477415
0.000480027
0.00048263
0.000485218
0.000487792
0.000490365
0.000492937
0.000495497
0.000498033
0.000500542
0.000503034
0.00050552
0.000507998
0.000510455
0.000512883
0.000515284
0.000517672
0.000520053
0.000522423
0.000524768
0.00052708
0.000529361
0.000531622
0.00053387
0.000536101
0.000538304
0.000540473
0.000542609
0.000544724
0.000546826
0.000548912
0.000550972
0.000552993
0.000554975
0.000556924
0.000558851
0.000560756
0.000562626
0.000564449
0.00056622
0.000567942
0.000569624
0.000571273
0.000572884
0.000574449
0.000575959
0.000577411
0.000578812
0.000580174
0.000581505
0.0005828
0.00058405
0.000585241
0.00058637
0.000587442
0.000588463
0.000589438
0.000590362
0.000591226
0.000592017
0.000592731
0.000593376
0.000593963
0.000594501
0.000594993
0.000595434
0.000595814
0.000596128
0.000596373
0.000596554
0.000596679
0.000596751
0.000596772
0.000596735
0.000596631
0.000596457
0.000596217
0.000595924
0.00059559
0.000595225
0.000594827
0.000594391
0.000593904
0.000593359
0.000592755
0.000592098
0.000591403
0.000590689
0.00058997
0.000589252
0.000588531
0.000587797
0.000587045
0.000586276
0.000585496
0.000584716
0.00058395
0.000583212
0.000582512
0.000581854
0.00058124
0.000580666
0.000580136
0.000579656
0.000579235
0.000578881
0.000578602
0.0005784
0.000578276
0.000285608
0.00028697
0.000289287
0.000292512
0.000296542
0.000301234
0.000306417
0.000311934
0.000317662
0.000323503
0.000329369
0.000335195
0.000340932
0.000346543
0.00035201
0.000357323
0.000362474
0.00036746
0.000372276
0.000376923
0.000381406
0.000385737
0.00038993
0.000393995
0.000397931
0.000401745
0.000405452
0.000409059
0.000412566
0.000415977
0.000419311
0.000422581
0.000425789
0.000428924
0.000431989
0.000434999
0.000437963
0.00044088
0.00044375
0.000446581
0.000449391
0.000452184
0.000454952
0.000457684
0.000460384
0.000463063
0.000465723
0.000468357
0.000470958
0.000473535
0.000476106
0.000478681
0.000481255
0.000483815
0.000486357
0.000488893
0.00049143
0.000493963
0.000496477
0.000498964
0.000501429
0.000503884
0.000506333
0.000508769
0.000511179
0.00051356
0.000515921
0.000518275
0.000520621
0.000522949
0.000525247
0.000527513
0.000529755
0.000531981
0.000534193
0.000536383
0.000538539
0.000540661
0.000542758
0.000544838
0.000546905
0.000548951
0.000550966
0.000552942
0.000554884
0.000556799
0.000558693
0.000560563
0.000562394
0.000564177
0.000565909
0.000567596
0.000569248
0.000570867
0.000572447
0.000573976
0.000575447
0.000576861
0.000578231
0.000579566
0.000580871
0.000582137
0.000583355
0.000584514
0.000585613
0.00058666
0.000587661
0.000588618
0.000589524
0.000590364
0.000591131
0.000591823
0.000592449
0.00059302
0.000593546
0.000594027
0.000594456
0.000594822
0.000595119
0.000595352
0.000595528
0.000595653
0.000595728
0.00059575
0.000595711
0.000595603
0.000595426
0.000595186
0.000594896
0.000594571
0.00059422
0.000593838
0.000593415
0.000592939
0.000592404
0.00059181
0.000591168
0.000590493
0.000589802
0.000589105
0.000588407
0.000587703
0.000586985
0.000586247
0.000585491
0.000584724
0.000583959
0.000583208
0.000582481
0.000581783
0.000581119
0.000580491
0.000579899
0.000579347
0.00057884
0.000578388
0.000577998
0.000577673
0.000577407
0.000577193
0.000299724
0.0003007
0.000302501
0.000305101
0.000308409
0.00031231
0.000316693
0.000321439
0.000326431
0.000331572
0.000336787
0.000342023
0.000347229
0.000352368
0.000357412
0.000362343
0.000367151
0.000371832
0.000376377
0.000380779
0.000385044
0.000389186
0.000393212
0.000397118
0.000400909
0.000404598
0.000408192
0.00041169
0.000415096
0.00041842
0.000421678
0.000424874
0.000428003
0.000431064
0.000434067
0.000437022
0.000439928
0.000442783
0.000445596
0.000448381
0.000451151
0.000453899
0.000456615
0.000459297
0.000461952
0.000464589
0.000467203
0.000469786
0.000472341
0.000474879
0.000477416
0.000479954
0.000482482
0.000484995
0.000487498
0.000489999
0.0004925
0.000494989
0.000497454
0.000499894
0.00050232
0.000504739
0.00050715
0.00050954
0.000511902
0.000514239
0.000516565
0.000518885
0.000521194
0.000523479
0.000525731
0.000527954
0.000530159
0.000532352
0.000534527
0.000536674
0.000538784
0.000540864
0.000542924
0.000544971
0.000547002
0.000549008
0.000550977
0.00055291
0.000554815
0.000556698
0.00055856
0.000560394
0.000562186
0.000563929
0.000565624
0.00056728
0.000568904
0.000570495
0.000572042
0.000573534
0.000574967
0.000576348
0.00057769
0.000579001
0.00058028
0.000581517
0.000582701
0.000583828
0.0005849
0.000585925
0.000586909
0.000587848
0.000588732
0.000589549
0.000590291
0.000590962
0.000591572
0.00059213
0.000592645
0.000593113
0.000593528
0.000593879
0.000594163
0.000594387
0.000594558
0.000594684
0.000594761
0.000594783
0.000594739
0.000594626
0.000594444
0.000594203
0.000593918
0.000593601
0.00059326
0.00059289
0.000592478
0.000592012
0.000591485
0.0005909
0.000590269
0.000589611
0.000588939
0.000588261
0.000587578
0.000586886
0.000586178
0.00058545
0.000584703
0.000583946
0.00058319
0.000582448
0.000581727
0.000581027
0.000580351
0.000579703
0.000579086
0.000578506
0.000577969
0.000577482
0.000577051
0.000576677
0.000576343
0.000576034
0.00031283
0.000313455
0.000314829
0.000316927
0.000319644
0.000322896
0.000326606
0.000330683
0.000335026
0.00033955
0.000344184
0.000348875
0.000353584
0.000358274
0.000362912
0.000367475
0.00037195
0.000376326
0.000380594
0.000384749
0.000388798
0.000392748
0.000396595
0.000400337
0.000403983
0.000407541
0.000411011
0.00041439
0.000417691
0.000420928
0.000424106
0.000427218
0.000430262
0.000433247
0.000436186
0.000439078
0.000441918
0.00044471
0.00044747
0.00045021
0.000452933
0.000455627
0.000458287
0.000460921
0.000463535
0.000466127
0.000468689
0.000471218
0.000473727
0.00047623
0.000478733
0.000481229
0.000483709
0.000486177
0.000488644
0.000491112
0.000493573
0.000496014
0.00049843
0.000500827
0.000503216
0.0005056
0.000507969
0.000510311
0.000512626
0.000514924
0.000517217
0.000519504
0.000521772
0.000524012
0.000526221
0.000528405
0.000530577
0.000532736
0.000534872
0.000536974
0.000539041
0.000541082
0.000543109
0.000545123
0.000547118
0.000549082
0.000551007
0.0005529
0.00055477
0.000556623
0.000558453
0.000560249
0.000562001
0.000563705
0.000565367
0.000566995
0.000568594
0.000570156
0.00057167
0.000573125
0.000574523
0.000575874
0.000577191
0.000578479
0.000579732
0.000580939
0.00058209
0.000583186
0.000584232
0.000585238
0.000586206
0.000587127
0.000587989
0.000588781
0.000589499
0.000590151
0.000590746
0.000591294
0.000591798
0.000592253
0.000592651
0.000592987
0.00059326
0.000593477
0.000593647
0.000593772
0.00059385
0.00059387
0.000593821
0.000593699
0.000593511
0.00059327
0.00059299
0.000592682
0.000592349
0.000591987
0.000591582
0.000591122
0.000590602
0.000590025
0.000589406
0.00058876
0.000588103
0.000587439
0.000586767
0.000586082
0.000585379
0.000584656
0.000583916
0.000583166
0.000582417
0.000581678
0.000580955
0.000580249
0.000579557
0.000578884
0.000578238
0.000577625
0.000577053
0.000576528
0.000576053
0.000575627
0.00057522
0.000574813
0.000325058
0.000325392
0.000326406
0.000328066
0.000330295
0.000333018
0.000336161
0.000339652
0.000343421
0.000347396
0.000351509
0.000355709
0.000359958
0.000364221
0.00036847
0.000372681
0.000376831
0.000380907
0.000384902
0.000388817
0.000392652
0.000396401
0.000400061
0.000403639
0.000407139
0.000410559
0.000413896
0.000417155
0.000420353
0.000423497
0.000426582
0.000429602
0.000432562
0.000435475
0.000438342
0.000441161
0.00044393
0.000446661
0.000449371
0.000452065
0.000454732
0.000457366
0.000459972
0.00046256
0.000465129
0.000467671
0.000470177
0.000472656
0.000475123
0.000477591
0.000480054
0.000482504
0.000484937
0.000487366
0.000489798
0.000492229
0.000494646
0.000497038
0.000499408
0.000501766
0.00050412
0.000506465
0.000508788
0.000511082
0.000513355
0.000515619
0.00051788
0.000520129
0.000522355
0.00052455
0.000526718
0.000528869
0.000531009
0.000533132
0.000535226
0.000537285
0.000539312
0.00054132
0.000543315
0.000545296
0.000547252
0.000549173
0.000551057
0.000552913
0.000554752
0.000556575
0.000558372
0.00056013
0.000561841
0.000563509
0.000565141
0.000566745
0.000568318
0.000569851
0.00057133
0.00057275
0.000574116
0.000575442
0.000576736
0.000578001
0.000579227
0.000580403
0.000581522
0.000582589
0.000583612
0.000584601
0.000585553
0.000586455
0.000587295
0.000588062
0.000588757
0.000589391
0.000589974
0.000590514
0.000591007
0.000591448
0.000591829
0.000592149
0.000592411
0.000592624
0.000592793
0.000592919
0.000592995
0.000593011
0.000592955
0.000592825
0.000592631
0.000592388
0.000592113
0.000591813
0.000591488
0.000591131
0.000590729
0.000590272
0.000589757
0.000589187
0.000588578
0.000587944
0.000587298
0.000586643
0.000585977
0.000585294
0.000584591
0.000583869
0.000583132
0.000582388
0.000581643
0.000580904
0.000580174
0.000579455
0.000578744
0.000578044
0.000577364
0.000576715
0.000576105
0.000575537
0.000575014
0.000574533
0.000574052
0.000573544
0.000336519
0.000336614
0.000337321
0.000338612
0.000340422
0.000342694
0.000345354
0.000348342
0.000351605
0.000355087
0.000358731
0.000362487
0.000366313
0.000370178
0.000374057
0.000377928
0.000381763
0.000385547
0.000389282
0.000392964
0.000396581
0.000400125
0.000403601
0.000407016
0.000410362
0.000413635
0.000416837
0.000419981
0.000423076
0.000426117
0.000429099
0.000432024
0.000434903
0.000437739
0.000440529
0.000443268
0.000445967
0.000448641
0.0004513
0.000453937
0.000456542
0.000459119
0.000461675
0.000464215
0.000466732
0.000469216
0.000471668
0.000474102
0.000476532
0.00047896
0.000481377
0.000483778
0.00048617
0.000488563
0.00049096
0.000493349
0.000495718
0.000498062
0.00050039
0.000502714
0.000505032
0.000507333
0.000509607
0.000511856
0.000514092
0.000516324
0.000518552
0.000520762
0.000522943
0.000525095
0.000527227
0.000529348
0.000531456
0.000533541
0.000535592
0.000537608
0.0005396
0.000541577
0.000543543
0.000545489
0.000547405
0.000549283
0.000551129
0.000552953
0.000554763
0.000556554
0.000558316
0.000560035
0.000561709
0.000563344
0.00056495
0.000566531
0.000568079
0.00056958
0.000571024
0.000572411
0.00057375
0.000575053
0.000576326
0.000577567
0.000578764
0.000579908
0.000580997
0.000582039
0.000583043
0.000584016
0.000584951
0.000585833
0.000586649
0.000587393
0.000588069
0.000588688
0.00058926
0.00058979
0.000590272
0.000590698
0.000591061
0.000591366
0.000591618
0.000591827
0.000591996
0.000592122
0.000592196
0.000592205
0.000592141
0.000592004
0.000591805
0.000591561
0.000591288
0.000590994
0.000590676
0.000590323
0.000589922
0.000589465
0.000588951
0.000588388
0.000587788
0.000587164
0.000586526
0.000585876
0.000585211
0.000584526
0.000583819
0.000583093
0.000582356
0.000581614
0.000580871
0.00058013
0.00057939
0.000578653
0.000577918
0.000577189
0.000576475
0.000575787
0.000575134
0.00057452
0.000573946
0.000573405
0.000572848
0.00057224
0.000347312
0.00034719
0.000347648
0.000348636
0.00035008
0.00035195
0.000354194
0.00035675
0.00035957
0.000362611
0.00036583
0.000369178
0.000372617
0.000376115
0.000379648
0.000383189
0.00038672
0.00039023
0.000393715
0.000397163
0.000400561
0.000403907
0.000407205
0.000410451
0.000413636
0.000416759
0.000419832
0.000422862
0.000425846
0.000428775
0.000431652
0.000434485
0.000437281
0.000440033
0.000442737
0.000445398
0.000448032
0.00045065
0.00045325
0.000455821
0.000458364
0.000460887
0.000463395
0.000465883
0.00046834
0.000470765
0.000473167
0.00047556
0.000477951
0.000480334
0.0004827
0.000485055
0.00048741
0.00048977
0.000492128
0.00049447
0.000496789
0.000499088
0.000501381
0.00050367
0.000505948
0.000508201
0.000510428
0.000512636
0.00051484
0.000517041