/*--------------------------------*- C++ -*----------------------------------*\
  =========                 |
  \\      /  F ield         | OpenFOAM: The Open Source CFD Toolbox
   \\    /   O peration     | Website:  https://openfoam.org
    \\  /    A nd           | Version:  7
     \\/     M anipulation  |
\*---------------------------------------------------------------------------*/
FoamFile
{
    version     2.0;
    format      ascii;
    class       volVectorField;
    location    "0.1125";
    object      U;
}
// * * * * * * * * * * * * * * * * * * * * * * * * * * * * * * * * * * * * * //

dimensions      [0 1 -1 0 0 0 0];

internalField   nonuniform List<vector> 
51200
(
(1.07295e-06 1.06119e-06 0)
(-2.67732e-07 1.45675e-06 0)
(-4.76424e-07 5.28409e-07 0)
(-1.33721e-06 2.6289e-07 0)
(-1.29493e-06 9.32086e-08 0)
(-1.20565e-06 6.95819e-09 0)
(-1.07548e-06 -2.93555e-08 0)
(-9.45232e-07 -4.31257e-08 0)
(-8.33327e-07 -4.07942e-08 0)
(-7.50218e-07 -3.33646e-08 0)
(-7.04742e-07 -2.48491e-08 0)
(-6.94683e-07 -1.23548e-08 0)
(-7.24388e-07 1.22348e-09 0)
(-7.95047e-07 1.2718e-08 0)
(-8.99589e-07 2.32495e-08 0)
(-1.03963e-06 3.14641e-08 0)
(-1.21542e-06 3.84303e-08 0)
(-1.4206e-06 4.80551e-08 0)
(-1.65712e-06 5.9659e-08 0)
(-1.92394e-06 6.90495e-08 0)
(-2.21491e-06 7.70138e-08 0)
(-2.53022e-06 8.57732e-08 0)
(-2.86982e-06 9.39183e-08 0)
(-3.23067e-06 1.00694e-07 0)
(-3.60984e-06 1.06919e-07 0)
(-4.00636e-06 1.11947e-07 0)
(-4.41918e-06 1.15361e-07 0)
(-4.84589e-06 1.18292e-07 0)
(-5.28452e-06 1.21755e-07 0)
(-5.73411e-06 1.25401e-07 0)
(-6.19343e-06 1.27899e-07 0)
(-6.66026e-06 1.29394e-07 0)
(-7.13284e-06 1.31097e-07 0)
(-7.6107e-06 1.32807e-07 0)
(-8.09317e-06 1.33748e-07 0)
(-8.57864e-06 1.34346e-07 0)
(-9.06559e-06 1.35168e-07 0)
(-9.55283e-06 1.359e-07 0)
(-1.00395e-05 1.35892e-07 0)
(-1.05247e-05 1.34824e-07 0)
(-1.10068e-05 1.33103e-07 0)
(-1.14851e-05 1.31277e-07 0)
(-1.19592e-05 1.29465e-07 0)
(-1.24286e-05 1.28015e-07 0)
(-1.28919e-05 1.27472e-07 0)
(-1.33484e-05 1.27457e-07 0)
(-1.37977e-05 1.26567e-07 0)
(-1.42391e-05 1.23621e-07 0)
(-1.46718e-05 1.18839e-07 0)
(-1.5095e-05 1.13844e-07 0)
(-1.5508e-05 1.10281e-07 0)
(-1.59109e-05 1.08414e-07 0)
(-1.63037e-05 1.07275e-07 0)
(-1.6686e-05 1.05682e-07 0)
(-1.70567e-05 1.0288e-07 0)
(-1.74153e-05 9.87717e-08 0)
(-1.77616e-05 9.39216e-08 0)
(-1.80952e-05 8.91439e-08 0)
(-1.84158e-05 8.51021e-08 0)
(-1.87232e-05 8.19799e-08 0)
(-1.9017e-05 7.92737e-08 0)
(-1.92971e-05 7.60974e-08 0)
(-1.95634e-05 7.19389e-08 0)
(-1.98155e-05 6.71835e-08 0)
(-2.00531e-05 6.26592e-08 0)
(-2.02761e-05 5.8714e-08 0)
(-2.04845e-05 5.50363e-08 0)
(-2.06783e-05 5.11475e-08 0)
(-2.08571e-05 4.68322e-08 0)
(-2.1021e-05 4.22855e-08 0)
(-2.11696e-05 3.7873e-08 0)
(-2.13028e-05 3.36949e-08 0)
(-2.14205e-05 2.95346e-08 0)
(-2.15228e-05 2.51954e-08 0)
(-2.16094e-05 2.07022e-08 0)
(-2.16802e-05 1.62151e-08 0)
(-2.17353e-05 1.18726e-08 0)
(-2.17747e-05 7.7035e-09 0)
(-2.17985e-05 3.58521e-09 0)
(-2.18066e-05 -7.18983e-10 0)
(-2.17991e-05 -5.33582e-09 0)
(-2.17758e-05 -1.00856e-08 0)
(-2.17367e-05 -1.46184e-08 0)
(-2.16818e-05 -1.87887e-08 0)
(-2.16114e-05 -2.27569e-08 0)
(-2.15254e-05 -2.68076e-08 0)
(-2.14239e-05 -3.11647e-08 0)
(-2.13068e-05 -3.58255e-08 0)
(-2.11742e-05 -4.04861e-08 0)
(-2.10262e-05 -4.47772e-08 0)
(-2.08629e-05 -4.86445e-08 0)
(-2.06845e-05 -5.24089e-08 0)
(-2.04912e-05 -5.64247e-08 0)
(-2.0283e-05 -6.07487e-08 0)
(-2.006e-05 -6.5149e-08 0)
(-1.98225e-05 -6.93477e-08 0)
(-1.95707e-05 -7.32251e-08 0)
(-1.93049e-05 -7.68695e-08 0)
(-1.90251e-05 -8.04959e-08 0)
(-1.87316e-05 -8.42674e-08 0)
(-1.84246e-05 -8.81442e-08 0)
(-1.81042e-05 -9.1932e-08 0)
(-1.77708e-05 -9.54844e-08 0)
(-1.74248e-05 -9.88453e-08 0)
(-1.70665e-05 -1.02168e-07 0)
(-1.66962e-05 -1.05505e-07 0)
(-1.63142e-05 -1.08755e-07 0)
(-1.59209e-05 -1.11829e-07 0)
(-1.55168e-05 -1.14762e-07 0)
(-1.51024e-05 -1.17615e-07 0)
(-1.4678e-05 -1.20341e-07 0)
(-1.42442e-05 -1.22858e-07 0)
(-1.38016e-05 -1.25163e-07 0)
(-1.33507e-05 -1.2733e-07 0)
(-1.28923e-05 -1.29427e-07 0)
(-1.24267e-05 -1.31412e-07 0)
(-1.19548e-05 -1.33131e-07 0)
(-1.14772e-05 -1.34512e-07 0)
(-1.09945e-05 -1.35675e-07 0)
(-1.05074e-05 -1.36766e-07 0)
(-1.00167e-05 -1.37788e-07 0)
(-9.52317e-06 -1.38585e-07 0)
(-9.02799e-06 -1.38995e-07 0)
(-8.53203e-06 -1.39036e-07 0)
(-8.03619e-06 -1.38815e-07 0)
(-7.54155e-06 -1.38314e-07 0)
(-7.04925e-06 -1.37434e-07 0)
(-6.56047e-06 -1.36179e-07 0)
(-6.07635e-06 -1.34679e-07 0)
(-5.59809e-06 -1.32997e-07 0)
(-5.12697e-06 -1.30982e-07 0)
(-4.66432e-06 -1.28396e-07 0)
(-4.21155e-06 -1.25167e-07 0)
(-3.77016e-06 -1.21435e-07 0)
(-3.34169e-06 -1.17369e-07 0)
(-2.9277e-06 -1.13007e-07 0)
(-2.52968e-06 -1.08258e-07 0)
(-2.14914e-06 -1.03029e-07 0)
(-1.78759e-06 -9.73212e-08 0)
(-1.44663e-06 -9.1153e-08 0)
(-1.12776e-06 -8.44847e-08 0)
(-8.32457e-07 -7.7248e-08 0)
(-5.62151e-07 -6.94514e-08 0)
(-3.18192e-07 -6.12244e-08 0)
(-1.01799e-07 -5.27522e-08 0)
(8.59333e-08 -4.41314e-08 0)
(2.43962e-07 -3.52573e-08 0)
(3.71249e-07 -2.5964e-08 0)
(4.66975e-07 -1.62736e-08 0)
(5.30812e-07 -6.37885e-09 0)
(5.6296e-07 3.4867e-09 0)
(5.64209e-07 1.30839e-08 0)
(5.36034e-07 2.22007e-08 0)
(4.8079e-07 3.04457e-08 0)
(4.02377e-07 3.70381e-08 0)
(3.06777e-07 4.10248e-08 0)
(2.02535e-07 4.11112e-08 0)
(1.02304e-07 3.48981e-08 0)
(2.70715e-08 1.93265e-08 0)
(-1.25683e-09 -1.04509e-09 0)
(1.51157e-06 -3.5514e-07 0)
(1.8621e-06 1.59344e-06 0)
(1.1506e-06 7.24834e-07 0)
(6.5331e-07 3.80452e-07 0)
(4.448e-07 1.00488e-07 0)
(3.42082e-07 -5.346e-08 0)
(2.94751e-07 -1.23692e-07 0)
(2.63141e-07 -1.31114e-07 0)
(2.15152e-07 -1.02406e-07 0)
(1.18743e-07 -5.49861e-08 0)
(-3.49997e-08 6.97328e-09 0)
(-2.63447e-07 7.27984e-08 0)
(-5.74658e-07 1.40661e-07 0)
(-9.65676e-07 2.11669e-07 0)
(-1.44162e-06 2.79199e-07 0)
(-2.00113e-06 3.42352e-07 0)
(-2.63903e-06 4.02801e-07 0)
(-3.3573e-06 4.61438e-07 0)
(-4.15198e-06 5.1697e-07 0)
(-5.01647e-06 5.70305e-07 0)
(-5.94836e-06 6.19744e-07 0)
(-6.94376e-06 6.65557e-07 0)
(-7.99821e-06 7.07644e-07 0)
(-9.10762e-06 7.46916e-07 0)
(-1.02671e-05 7.83362e-07 0)
(-1.14718e-05 8.15642e-07 0)
(-1.27179e-05 8.4372e-07 0)
(-1.40013e-05 8.68902e-07 0)
(-1.53173e-05 8.91666e-07 0)
(-1.6662e-05 9.11184e-07 0)
(-1.8032e-05 9.27223e-07 0)
(-1.94227e-05 9.40776e-07 0)
(-2.08299e-05 9.52471e-07 0)
(-2.22503e-05 9.6162e-07 0)
(-2.36811e-05 9.67834e-07 0)
(-2.5119e-05 9.71746e-07 0)
(-2.656e-05 9.73863e-07 0)
(-2.8001e-05 9.73773e-07 0)
(-2.94397e-05 9.71087e-07 0)
(-3.08734e-05 9.66475e-07 0)
(-3.22983e-05 9.6053e-07 0)
(-3.37114e-05 9.52663e-07 0)
(-3.51115e-05 9.42327e-07 0)
(-3.64968e-05 9.3025e-07 0)
(-3.78649e-05 9.17652e-07 0)
(-3.92132e-05 9.04856e-07 0)
(-4.05394e-05 8.90908e-07 0)
(-4.18421e-05 8.74606e-07 0)
(-4.31198e-05 8.55873e-07 0)
(-4.43702e-05 8.3576e-07 0)
(-4.55915e-05 8.15207e-07 0)
(-4.67831e-05 7.94332e-07 0)
(-4.79443e-05 7.73095e-07 0)
(-4.90734e-05 7.51555e-07 0)
(-5.01685e-05 7.29346e-07 0)
(-5.12283e-05 7.05779e-07 0)
(-5.22519e-05 6.80539e-07 0)
(-5.32392e-05 6.53931e-07 0)
(-5.41893e-05 6.26894e-07 0)
(-5.51007e-05 6.00298e-07 0)
(-5.59723e-05 5.74044e-07 0)
(-5.68035e-05 5.47255e-07 0)
(-5.75942e-05 5.19269e-07 0)
(-5.83437e-05 4.90328e-07 0)
(-5.90512e-05 4.61187e-07 0)
(-5.97159e-05 4.32231e-07 0)
(-6.03373e-05 4.0328e-07 0)
(-6.09153e-05 3.73915e-07 0)
(-6.14497e-05 3.43839e-07 0)
(-6.19401e-05 3.13265e-07 0)
(-6.23854e-05 2.8268e-07 0)
(-6.27853e-05 2.5214e-07 0)
(-6.31399e-05 2.21311e-07 0)
(-6.34492e-05 1.90102e-07 0)
(-6.3713e-05 1.58733e-07 0)
(-6.39307e-05 1.27404e-07 0)
(-6.41021e-05 9.6212e-08 0)
(-6.4227e-05 6.51478e-08 0)
(-6.43057e-05 3.40431e-08 0)
(-6.43385e-05 2.7073e-09 0)
(-6.43253e-05 -2.88513e-08 0)
(-6.42658e-05 -6.04291e-08 0)
(-6.41597e-05 -9.18339e-08 0)
(-6.40074e-05 -1.23055e-07 0)
(-6.38091e-05 -1.54163e-07 0)
(-6.35652e-05 -1.85185e-07 0)
(-6.32757e-05 -2.16183e-07 0)
(-6.29406e-05 -2.47218e-07 0)
(-6.25599e-05 -2.78154e-07 0)
(-6.21338e-05 -3.08727e-07 0)
(-6.16629e-05 -3.38853e-07 0)
(-6.1148e-05 -3.68685e-07 0)
(-6.05893e-05 -3.98364e-07 0)
(-5.99869e-05 -4.27877e-07 0)
(-5.9341e-05 -4.57126e-07 0)
(-5.86521e-05 -4.86018e-07 0)
(-5.79211e-05 -5.14483e-07 0)
(-5.71485e-05 -5.42494e-07 0)
(-5.63352e-05 -5.70099e-07 0)
(-5.54818e-05 -5.97331e-07 0)
(-5.45888e-05 -6.24086e-07 0)
(-5.36566e-05 -6.50214e-07 0)
(-5.26862e-05 -6.75678e-07 0)
(-5.16786e-05 -7.00542e-07 0)
(-5.06352e-05 -7.24865e-07 0)
(-4.95568e-05 -7.48585e-07 0)
(-4.84445e-05 -7.7152e-07 0)
(-4.72994e-05 -7.93494e-07 0)
(-4.61225e-05 -8.14471e-07 0)
(-4.4915e-05 -8.34527e-07 0)
(-4.36784e-05 -8.53702e-07 0)
(-4.24145e-05 -8.71923e-07 0)
(-4.11251e-05 -8.89038e-07 0)
(-3.98115e-05 -9.04903e-07 0)
(-3.84753e-05 -9.19485e-07 0)
(-3.71182e-05 -9.3286e-07 0)
(-3.5742e-05 -9.45002e-07 0)
(-3.43491e-05 -9.55753e-07 0)
(-3.29416e-05 -9.65036e-07 0)
(-3.15218e-05 -9.72864e-07 0)
(-3.00919e-05 -9.79193e-07 0)
(-2.86545e-05 -9.83834e-07 0)
(-2.72119e-05 -9.86492e-07 0)
(-2.57669e-05 -9.87027e-07 0)
(-2.43223e-05 -9.85526e-07 0)
(-2.28814e-05 -9.8202e-07 0)
(-2.14473e-05 -9.76327e-07 0)
(-2.00236e-05 -9.68242e-07 0)
(-1.86134e-05 -9.57709e-07 0)
(-1.72204e-05 -9.4475e-07 0)
(-1.5848e-05 -9.29255e-07 0)
(-1.45002e-05 -9.10956e-07 0)
(-1.3181e-05 -8.89651e-07 0)
(-1.18945e-05 -8.65353e-07 0)
(-1.0645e-05 -8.38191e-07 0)
(-9.43665e-06 -8.08197e-07 0)
(-8.27362e-06 -7.75227e-07 0)
(-7.16015e-06 -7.39124e-07 0)
(-6.10037e-06 -6.99874e-07 0)
(-5.09837e-06 -6.57584e-07 0)
(-4.15833e-06 -6.12403e-07 0)
(-3.28439e-06 -5.64463e-07 0)
(-2.48062e-06 -5.13859e-07 0)
(-1.75087e-06 -4.60669e-07 0)
(-1.09851e-06 -4.05036e-07 0)
(-5.26409e-07 -3.47221e-07 0)
(-3.69703e-08 -2.87557e-07 0)
(3.67926e-07 -2.26412e-07 0)
(6.87101e-07 -1.64308e-07 0)
(9.20288e-07 -1.02061e-07 0)
(1.06841e-06 -4.07741e-08 0)
(1.13394e-06 1.81699e-08 0)
(1.12137e-06 7.30301e-08 0)
(1.03787e-06 1.21611e-07 0)
(8.94192e-07 1.60743e-07 0)
(7.05479e-07 1.85878e-07 0)
(4.91969e-07 1.91078e-07 0)
(2.79851e-07 1.68294e-07 0)
(1.07231e-07 1.09464e-07 0)
(1.78165e-08 2.66651e-08 0)
(6.0148e-07 -7.34183e-07 0)
(1.08691e-06 5.11775e-07 0)
(1.51261e-06 6.73207e-07 0)
(1.54488e-06 4.75298e-07 0)
(1.51382e-06 2.37872e-07 0)
(1.45238e-06 6.61983e-08 0)
(1.3613e-06 -8.30874e-09 0)
(1.2257e-06 1.0988e-09 0)
(1.0189e-06 7.00421e-08 0)
(7.33862e-07 1.87867e-07 0)
(3.46098e-07 3.30658e-07 0)
(-1.55072e-07 4.88445e-07 0)
(-7.72595e-07 6.58403e-07 0)
(-1.51887e-06 8.30667e-07 0)
(-2.39118e-06 1.0018e-06 0)
(-3.38581e-06 1.17097e-06 0)
(-4.5048e-06 1.33328e-06 0)
(-5.74305e-06 1.48797e-06 0)
(-7.09578e-06 1.63706e-06 0)
(-8.5591e-06 1.77775e-06 0)
(-1.01256e-05 1.90948e-06 0)
(-1.17886e-05 2.03281e-06 0)
(-1.35436e-05 2.14694e-06 0)
(-1.53838e-05 2.25227e-06 0)
(-1.73016e-05 2.34937e-06 0)
(-1.92906e-05 2.43766e-06 0)
(-2.13447e-05 2.51671e-06 0)
(-2.34564e-05 2.58724e-06 0)
(-2.56189e-05 2.64975e-06 0)
(-2.7827e-05 2.70337e-06 0)
(-3.00747e-05 2.74853e-06 0)
(-3.23549e-05 2.78653e-06 0)
(-3.46615e-05 2.81779e-06 0)
(-3.69892e-05 2.84205e-06 0)
(-3.93327e-05 2.85903e-06 0)
(-4.16861e-05 2.86929e-06 0)
(-4.40438e-05 2.87338e-06 0)
(-4.64014e-05 2.87096e-06 0)
(-4.87553e-05 2.86217e-06 0)
(-5.11005e-05 2.84841e-06 0)
(-5.34317e-05 2.83049e-06 0)
(-5.57447e-05 2.80764e-06 0)
(-5.80363e-05 2.77907e-06 0)
(-6.03027e-05 2.74509e-06 0)
(-6.25402e-05 2.70691e-06 0)
(-6.47453e-05 2.66564e-06 0)
(-6.69157e-05 2.62116e-06 0)
(-6.90485e-05 2.57279e-06 0)
(-7.11405e-05 2.52079e-06 0)
(-7.31879e-05 2.46575e-06 0)
(-7.51883e-05 2.40766e-06 0)
(-7.71403e-05 2.34639e-06 0)
(-7.90421e-05 2.28234e-06 0)
(-8.08915e-05 2.21626e-06 0)
(-8.26858e-05 2.14855e-06 0)
(-8.44229e-05 2.07896e-06 0)
(-8.61017e-05 2.00687e-06 0)
(-8.7721e-05 1.93201e-06 0)
(-8.9279e-05 1.85503e-06 0)
(-9.07738e-05 1.77689e-06 0)
(-9.22039e-05 1.69778e-06 0)
(-9.35689e-05 1.61733e-06 0)
(-9.48677e-05 1.5353e-06 0)
(-9.60989e-05 1.45176e-06 0)
(-9.72612e-05 1.36713e-06 0)
(-9.83536e-05 1.28181e-06 0)
(-9.93756e-05 1.19577e-06 0)
(-0.000100327 1.10873e-06 0)
(-0.000101207 1.02056e-06 0)
(-0.000102014 9.31567e-07 0)
(-0.000102748 8.42093e-07 0)
(-0.000103408 7.52072e-07 0)
(-0.000103993 6.6132e-07 0)
(-0.000104505 5.69938e-07 0)
(-0.000104942 4.78173e-07 0)
(-0.000105304 3.86221e-07 0)
(-0.00010559 2.94274e-07 0)
(-0.000105801 2.02375e-07 0)
(-0.000105936 1.10325e-07 0)
(-0.000105995 1.80152e-08 0)
(-0.000105979 -7.43731e-08 0)
(-0.000105887 -1.66657e-07 0)
(-0.000105719 -2.58838e-07 0)
(-0.000105476 -3.5091e-07 0)
(-0.000105157 -4.42755e-07 0)
(-0.000104763 -5.34252e-07 0)
(-0.000104295 -6.25365e-07 0)
(-0.000103752 -7.16094e-07 0)
(-0.000103135 -8.06371e-07 0)
(-0.000102443 -8.96096e-07 0)
(-0.000101678 -9.85184e-07 0)
(-0.000100841 -1.07353e-06 0)
(-9.99319e-05 -1.16101e-06 0)
(-9.89516e-05 -1.24758e-06 0)
(-9.79003e-05 -1.33324e-06 0)
(-9.67788e-05 -1.41788e-06 0)
(-9.55883e-05 -1.5014e-06 0)
(-9.43301e-05 -1.58379e-06 0)
(-9.30051e-05 -1.66506e-06 0)
(-9.16145e-05 -1.74504e-06 0)
(-9.01589e-05 -1.82346e-06 0)
(-8.86397e-05 -1.90011e-06 0)
(-8.70582e-05 -1.97496e-06 0)
(-8.54162e-05 -2.04802e-06 0)
(-8.37155e-05 -2.11918e-06 0)
(-8.19576e-05 -2.18831e-06 0)
(-8.01443e-05 -2.25524e-06 0)
(-7.82772e-05 -2.31969e-06 0)
(-7.63583e-05 -2.38144e-06 0)
(-7.43896e-05 -2.44042e-06 0)
(-7.23735e-05 -2.49666e-06 0)
(-7.03128e-05 -2.55004e-06 0)
(-6.82101e-05 -2.60022e-06 0)
(-6.60679e-05 -2.64689e-06 0)
(-6.38887e-05 -2.68988e-06 0)
(-6.16754e-05 -2.72919e-06 0)
(-5.9431e-05 -2.76472e-06 0)
(-5.71593e-05 -2.7962e-06 0)
(-5.48639e-05 -2.82335e-06 0)
(-5.25486e-05 -2.84599e-06 0)
(-5.02172e-05 -2.86389e-06 0)
(-4.78734e-05 -2.87676e-06 0)
(-4.55213e-05 -2.88421e-06 0)
(-4.31656e-05 -2.88589e-06 0)
(-4.0811e-05 -2.88159e-06 0)
(-3.84624e-05 -2.87112e-06 0)
(-3.61251e-05 -2.85418e-06 0)
(-3.38046e-05 -2.83046e-06 0)
(-3.15062e-05 -2.79974e-06 0)
(-2.92355e-05 -2.76184e-06 0)
(-2.69982e-05 -2.71651e-06 0)
(-2.48004e-05 -2.66339e-06 0)
(-2.26486e-05 -2.60214e-06 0)
(-2.05495e-05 -2.53254e-06 0)
(-1.85094e-05 -2.45456e-06 0)
(-1.65349e-05 -2.36821e-06 0)
(-1.46325e-05 -2.27349e-06 0)
(-1.28088e-05 -2.17028e-06 0)
(-1.10705e-05 -2.05849e-06 0)
(-9.42397e-06 -1.93819e-06 0)
(-7.87566e-06 -1.80965e-06 0)
(-6.43199e-06 -1.67322e-06 0)
(-5.09916e-06 -1.52934e-06 0)
(-3.88285e-06 -1.37848e-06 0)
(-2.78817e-06 -1.22113e-06 0)
(-1.8194e-06 -1.05805e-06 0)
(-9.80024e-07 -8.90293e-07 0)
(-2.72613e-07 -7.1917e-07 0)
(3.01489e-07 -5.4642e-07 0)
(7.42475e-07 -3.74306e-07 0)
(1.05234e-06 -2.057e-07 0)
(1.23543e-06 -4.43104e-08 0)
(1.29912e-06 1.05221e-07 0)
(1.25448e-06 2.37022e-07 0)
(1.11728e-06 3.43399e-07 0)
(9.08769e-07 4.14395e-07 0)
(6.55825e-07 4.37572e-07 0)
(3.91516e-07 3.97695e-07 0)
(1.63243e-07 2.80676e-07 0)
(3.24435e-08 9.93526e-08 0)
(3.43778e-07 -1.80954e-06 0)
(7.7234e-07 -4.17964e-07 0)
(1.36756e-06 1.78742e-07 0)
(1.6664e-06 2.46428e-07 0)
(1.79044e-06 1.7258e-07 0)
(1.79439e-06 1.16059e-07 0)
(1.69098e-06 1.32498e-07 0)
(1.46839e-06 2.27464e-07 0)
(1.13072e-06 4.01895e-07 0)
(6.55617e-07 6.32941e-07 0)
(3.28558e-08 9.03242e-07 0)
(-7.39632e-07 1.20187e-06 0)
(-1.67511e-06 1.51266e-06 0)
(-2.7759e-06 1.82871e-06 0)
(-4.04174e-06 2.14732e-06 0)
(-5.47405e-06 2.46008e-06 0)
(-7.06797e-06 2.76405e-06 0)
(-8.81794e-06 3.05667e-06 0)
(-1.07191e-05 3.33635e-06 0)
(-1.2765e-05 3.60156e-06 0)
(-1.49479e-05 3.85246e-06 0)
(-1.72601e-05 4.0869e-06 0)
(-1.96931e-05 4.30431e-06 0)
(-2.2238e-05 4.50521e-06 0)
(-2.48865e-05 4.68978e-06 0)
(-2.76307e-05 4.85737e-06 0)
(-3.04611e-05 5.0087e-06 0)
(-3.33684e-05 5.14446e-06 0)
(-3.63446e-05 5.26382e-06 0)
(-3.93816e-05 5.3666e-06 0)
(-4.24703e-05 5.45405e-06 0)
(-4.56024e-05 5.52728e-06 0)
(-4.87705e-05 5.58648e-06 0)
(-5.19674e-05 5.63177e-06 0)
(-5.5185e-05 5.66375e-06 0)
(-5.84153e-05 5.68338e-06 0)
(-6.16519e-05 5.69067e-06 0)
(-6.48889e-05 5.68515e-06 0)
(-6.81194e-05 5.66771e-06 0)
(-7.13367e-05 5.64009e-06 0)
(-7.45355e-05 5.60316e-06 0)
(-7.77108e-05 5.55681e-06 0)
(-8.08574e-05 5.50092e-06 0)
(-8.39694e-05 5.43585e-06 0)
(-8.70411e-05 5.36224e-06 0)
(-9.00682e-05 5.28053e-06 0)
(-9.30478e-05 5.19096e-06 0)
(-9.5976e-05 5.09433e-06 0)
(-9.88482e-05 4.99178e-06 0)
(-0.00010166 4.88376e-06 0)
(-0.00010441 4.76987e-06 0)
(-0.000107093 4.64985e-06 0)
(-0.000109706 4.52407e-06 0)
(-0.000112247 4.39345e-06 0)
(-0.000114711 4.25879e-06 0)
(-0.000117099 4.12019e-06 0)
(-0.000119408 3.97731e-06 0)
(-0.000121634 3.83029e-06 0)
(-0.000123777 3.67972e-06 0)
(-0.000125832 3.52607e-06 0)
(-0.000127799 3.36938e-06 0)
(-0.000129677 3.20975e-06 0)
(-0.000131464 3.04747e-06 0)
(-0.000133159 2.88279e-06 0)
(-0.000134758 2.71598e-06 0)
(-0.000136262 2.54724e-06 0)
(-0.00013767 2.37649e-06 0)
(-0.00013898 2.20368e-06 0)
(-0.000140192 2.02918e-06 0)
(-0.000141303 1.8534e-06 0)
(-0.000142315 1.67644e-06 0)
(-0.000143224 1.49822e-06 0)
(-0.000144033 1.31873e-06 0)
(-0.00014474 1.13816e-06 0)
(-0.000145343 9.56864e-07 0)
(-0.000145844 7.75182e-07 0)
(-0.00014624 5.93271e-07 0)
(-0.000146533 4.11006e-07 0)
(-0.000146722 2.28246e-07 0)
(-0.000146807 4.51935e-08 0)
(-0.000146788 -1.3772e-07 0)
(-0.000146665 -3.2029e-07 0)
(-0.000146437 -5.02602e-07 0)
(-0.000146106 -6.8473e-07 0)
(-0.000145671 -8.66616e-07 0)
(-0.000145133 -1.04807e-06 0)
(-0.000144492 -1.22873e-06 0)
(-0.000143749 -1.40824e-06 0)
(-0.000142903 -1.58654e-06 0)
(-0.000141956 -1.7638e-06 0)
(-0.000140909 -1.94009e-06 0)
(-0.000139762 -2.11512e-06 0)
(-0.000138516 -2.28848e-06 0)
(-0.000137171 -2.45995e-06 0)
(-0.00013573 -2.62943e-06 0)
(-0.000134193 -2.79684e-06 0)
(-0.00013256 -2.96209e-06 0)
(-0.000130835 -3.1251e-06 0)
(-0.000129018 -3.28573e-06 0)
(-0.000127111 -3.44364e-06 0)
(-0.000125115 -3.59847e-06 0)
(-0.000123031 -3.74999e-06 0)
(-0.000120863 -3.89809e-06 0)
(-0.000118611 -4.0426e-06 0)
(-0.000116279 -4.18324e-06 0)
(-0.000113868 -4.31974e-06 0)
(-0.000111381 -4.45183e-06 0)
(-0.00010882 -4.57913e-06 0)
(-0.000106189 -4.70124e-06 0)
(-0.000103489 -4.81793e-06 0)
(-0.000100724 -4.9291e-06 0)
(-9.78987e-05 -5.03452e-06 0)
(-9.5015e-05 -5.1337e-06 0)
(-9.20769e-05 -5.2261e-06 0)
(-8.90882e-05 -5.31131e-06 0)
(-8.60529e-05 -5.38906e-06 0)
(-8.29754e-05 -5.45912e-06 0)
(-7.98604e-05 -5.52115e-06 0)
(-7.6713e-05 -5.57467e-06 0)
(-7.35383e-05 -5.61915e-06 0)
(-7.03415e-05 -5.65405e-06 0)
(-6.7128e-05 -5.67884e-06 0)
(-6.39033e-05 -5.69304e-06 0)
(-6.06738e-05 -5.69608e-06 0)
(-5.7446e-05 -5.68742e-06 0)
(-5.42266e-05 -5.6666e-06 0)
(-5.10225e-05 -5.63317e-06 0)
(-4.78409e-05 -5.58663e-06 0)
(-4.46893e-05 -5.5264e-06 0)
(-4.15753e-05 -5.45194e-06 0)
(-3.85066e-05 -5.36281e-06 0)
(-3.54914e-05 -5.25866e-06 0)
(-3.25381e-05 -5.13911e-06 0)
(-2.96555e-05 -5.00377e-06 0)
(-2.68521e-05 -4.85233e-06 0)
(-2.41368e-05 -4.68465e-06 0)
(-2.15181e-05 -4.50072e-06 0)
(-1.90048e-05 -4.30053e-06 0)
(-1.66056e-05 -4.08407e-06 0)
(-1.43291e-05 -3.85144e-06 0)
(-1.21837e-05 -3.60311e-06 0)
(-1.01776e-05 -3.33975e-06 0)
(-8.3188e-06 -3.06222e-06 0)
(-6.6144e-06 -2.77154e-06 0)
(-5.07084e-06 -2.46893e-06 0)
(-3.69367e-06 -2.15596e-06 0)
(-2.48718e-06 -1.83479e-06 0)
(-1.45435e-06 -1.50811e-06 0)
(-5.96525e-07 -1.17929e-06 0)
(8.69252e-08 -8.52645e-07 0)
(5.98975e-07 -5.33551e-07 0)
(9.45566e-07 -2.28733e-07 0)
(1.13634e-06 5.34126e-08 0)
(1.18522e-06 3.02525e-07 0)
(1.11119e-06 5.05675e-07 0)
(9.39197e-07 6.46763e-07 0)
(7.00137e-07 7.06374e-07 0)
(4.31211e-07 6.61564e-07 0)
(1.86034e-07 4.89933e-07 0)
(3.86177e-08 1.96163e-07 0)
(1.74228e-07 -1.98321e-06 0)
(4.75409e-07 -1.05625e-06 0)
(1.06713e-06 -3.48034e-07 0)
(1.44888e-06 -8.6787e-08 0)
(1.63765e-06 2.78684e-08 0)
(1.65647e-06 1.40641e-07 0)
(1.50191e-06 3.09103e-07 0)
(1.1853e-06 5.61689e-07 0)
(6.93338e-07 8.91065e-07 0)
(1.94707e-08 1.28348e-06 0)
(-8.42844e-07 1.72925e-06 0)
(-1.90339e-06 2.20672e-06 0)
(-3.16388e-06 2.70121e-06 0)
(-4.62648e-06 3.20461e-06 0)
(-6.2926e-06 3.70572e-06 0)
(-8.1602e-06 4.19928e-06 0)
(-1.02258e-05 4.68077e-06 0)
(-1.24823e-05 5.14528e-06 0)
(-1.49228e-05 5.58971e-06 0)
(-1.75398e-05 6.01222e-06 0)
(-2.03242e-05 6.41123e-06 0)
(-2.32672e-05 6.78532e-06 0)
(-2.63583e-05 7.13405e-06 0)
(-2.95867e-05 7.45659e-06 0)
(-3.29425e-05 7.752e-06 0)
(-3.6415e-05 8.02073e-06 0)
(-3.99929e-05 8.26381e-06 0)
(-4.36662e-05 8.48119e-06 0)
(-4.7425e-05 8.67248e-06 0)
(-5.12582e-05 8.83861e-06 0)
(-5.5155e-05 8.98055e-06 0)
(-5.91055e-05 9.09864e-06 0)
(-6.31005e-05 9.19326e-06 0)
(-6.71307e-05 9.2654e-06 0)
(-7.11857e-05 9.31646e-06 0)
(-7.52567e-05 9.34723e-06 0)
(-7.93363e-05 9.35776e-06 0)
(-8.34163e-05 9.34873e-06 0)
(-8.74876e-05 9.32144e-06 0)
(-9.15421e-05 9.27666e-06 0)
(-9.5573e-05 9.2149e-06 0)
(-9.95741e-05 9.13702e-06 0)
(-0.000103539 9.04429e-06 0)
(-0.000107461 8.93798e-06 0)
(-0.000111333 8.81855e-06 0)
(-0.00011515 8.68567e-06 0)
(-0.000118907 8.53959e-06 0)
(-0.000122598 8.38158e-06 0)
(-0.000126219 8.21302e-06 0)
(-0.000129764 8.03465e-06 0)
(-0.000133231 7.84692e-06 0)
(-0.000136615 7.65026e-06 0)
(-0.000139911 7.44514e-06 0)
(-0.000143116 7.23201e-06 0)
(-0.000146226 7.01118e-06 0)
(-0.000149239 6.78281e-06 0)
(-0.000152151 6.54742e-06 0)
(-0.000154961 6.30603e-06 0)
(-0.000157664 6.05933e-06 0)
(-0.000160259 5.80741e-06 0)
(-0.000162742 5.55018e-06 0)
(-0.000165113 5.28786e-06 0)
(-0.000167369 5.02107e-06 0)
(-0.000169508 4.75046e-06 0)
(-0.000171528 4.47639e-06 0)
(-0.000173427 4.19894e-06 0)
(-0.000175205 3.91801e-06 0)
(-0.00017686 3.63385e-06 0)
(-0.000178391 3.34707e-06 0)
(-0.000179796 3.05807e-06 0)
(-0.000181073 2.76693e-06 0)
(-0.000182224 2.47371e-06 0)
(-0.000183246 2.17856e-06 0)
(-0.00018414 1.88171e-06 0)
(-0.000184904 1.58365e-06 0)
(-0.000185537 1.28488e-06 0)
(-0.00018604 9.85535e-07 0)
(-0.000186411 6.85491e-07 0)
(-0.000186652 3.84759e-07 0)
(-0.000186762 8.36414e-08 0)
(-0.000186739 -2.17443e-07 0)
(-0.000186586 -5.18171e-07 0)
(-0.0001863 -8.18357e-07 0)
(-0.000185884 -1.11793e-06 0)
(-0.000185338 -1.41689e-06 0)
(-0.000184661 -1.71518e-06 0)
(-0.000183854 -2.01239e-06 0)
(-0.000182917 -2.30797e-06 0)
(-0.000181852 -2.60163e-06 0)
(-0.000180659 -2.89334e-06 0)
(-0.00017934 -3.18309e-06 0)
(-0.000177894 -3.47067e-06 0)
(-0.000176324 -3.7557e-06 0)
(-0.00017463 -4.03779e-06 0)
(-0.000172813 -4.31665e-06 0)
(-0.000170875 -4.59206e-06 0)
(-0.000168818 -4.86388e-06 0)
(-0.000166644 -5.13191e-06 0)
(-0.000164354 -5.39581e-06 0)
(-0.00016195 -5.65513e-06 0)
(-0.000159433 -5.90946e-06 0)
(-0.000156807 -6.15848e-06 0)
(-0.000154074 -6.40186e-06 0)
(-0.000151237 -6.63925e-06 0)
(-0.000148297 -6.87029e-06 0)
(-0.000145259 -7.09449e-06 0)
(-0.000142125 -7.31136e-06 0)
(-0.000138898 -7.52039e-06 0)
(-0.000135582 -7.7211e-06 0)
(-0.00013218 -7.91304e-06 0)
(-0.000128697 -8.09578e-06 0)
(-0.000125136 -8.26879e-06 0)
(-0.000121503 -8.43151e-06 0)
(-0.000117801 -8.58328e-06 0)
(-0.000114035 -8.72343e-06 0)
(-0.000110211 -8.85129e-06 0)
(-0.000106334 -8.96629e-06 0)
(-0.000102409 -9.06791e-06 0)
(-9.84445e-05 -9.1555e-06 0)
(-9.44452e-05 -9.22823e-06 0)
(-9.04181e-05 -9.28518e-06 0)
(-8.63699e-05 -9.32547e-06 0)
(-8.23078e-05 -9.34838e-06 0)
(-7.82396e-05 -9.35316e-06 0)
(-7.41734e-05 -9.33891e-06 0)
(-7.01177e-05 -9.30478e-06 0)
(-6.6081e-05 -9.25005e-06 0)
(-6.20723e-05 -9.17404e-06 0)
(-5.81004e-05 -9.07594e-06 0)
(-5.4175e-05 -8.95485e-06 0)
(-5.03057e-05 -8.80998e-06 0)
(-4.65028e-05 -8.64072e-06 0)
(-4.27765e-05 -8.44663e-06 0)
(-3.91373e-05 -8.22725e-06 0)
(-3.55959e-05 -7.98214e-06 0)
(-3.21628e-05 -7.71103e-06 0)
(-2.88488e-05 -7.41381e-06 0)
(-2.56644e-05 -7.09055e-06 0)
(-2.262e-05 -6.74141e-06 0)
(-1.9726e-05 -6.36672e-06 0)
(-1.69928e-05 -5.96715e-06 0)
(-1.44302e-05 -5.54374e-06 0)
(-1.20475e-05 -5.09786e-06 0)
(-9.85308e-06 -4.63131e-06 0)
(-7.85442e-06 -4.14634e-06 0)
(-6.05792e-06 -3.64568e-06 0)
(-4.46855e-06 -3.13283e-06 0)
(-3.08959e-06 -2.61214e-06 0)
(-1.92243e-06 -2.08904e-06 0)
(-9.66082e-07 -1.57031e-06 0)
(-2.16788e-07 -1.06431e-06 0)
(3.3252e-07 -5.81217e-07 0)
(6.93002e-07 -1.33553e-07 0)
(8.80432e-07 2.63424e-07 0)
(9.15795e-07 5.91198e-07 0)
(8.26144e-07 8.27421e-07 0)
(6.44692e-07 9.45544e-07 0)
(4.11193e-07 9.14271e-07 0)
(1.82666e-07 7.00965e-07 0)
(3.90122e-08 2.97575e-07 0)
(8.08534e-08 -2.08802e-06 0)
(2.6826e-07 -1.5332e-06 0)
(7.43454e-07 -8.10974e-07 0)
(1.09297e-06 -3.98314e-07 0)
(1.25459e-06 -9.38081e-08 0)
(1.21606e-06 2.09957e-07 0)
(9.76613e-07 5.80056e-07 0)
(5.21882e-07 1.03183e-06 0)
(-1.48934e-07 1.56308e-06 0)
(-1.04078e-06 2.16699e-06 0)
(-2.16347e-06 2.82433e-06 0)
(-3.52227e-06 3.51907e-06 0)
(-5.11832e-06 4.23664e-06 0)
(-6.95295e-06 4.96198e-06 0)
(-9.02541e-06 5.6838e-06 0)
(-1.13321e-05 6.39381e-06 0)
(-1.38687e-05 7.0856e-06 0)
(-1.66281e-05 7.75434e-06 0)
(-1.96019e-05 8.39457e-06 0)
(-2.27809e-05 9.00407e-06 0)
(-2.61551e-05 9.57943e-06 0)
(-2.97135e-05 1.01194e-05 0)
(-3.34446e-05 1.06234e-05 0)
(-3.7337e-05 1.10901e-05 0)
(-4.13785e-05 1.15183e-05 0)
(-4.55557e-05 1.1909e-05 0)
(-4.98564e-05 1.22618e-05 0)
(-5.42692e-05 1.25765e-05 0)
(-5.87818e-05 1.28541e-05 0)
(-6.33811e-05 1.30958e-05 0)
(-6.80553e-05 1.33023e-05 0)
(-7.27931e-05 1.3474e-05 0)
(-7.75832e-05 1.36116e-05 0)
(-8.24136e-05 1.37169e-05 0)
(-8.7273e-05 1.37911e-05 0)
(-9.21517e-05 1.38345e-05 0)
(-9.704e-05 1.38482e-05 0)
(-0.000101928 1.38341e-05 0)
(-0.000106805 1.37939e-05 0)
(-0.000111664 1.37283e-05 0)
(-0.000116494 1.36377e-05 0)
(-0.000121288 1.35229e-05 0)
(-0.000126038 1.33857e-05 0)
(-0.000130736 1.32281e-05 0)
(-0.000135375 1.30507e-05 0)
(-0.00013995 1.28541e-05 0)
(-0.000144453 1.26394e-05 0)
(-0.000148877 1.24078e-05 0)
(-0.000153216 1.21601e-05 0)
(-0.000157466 1.18968e-05 0)
(-0.000161622 1.16188e-05 0)
(-0.000165678 1.13275e-05 0)
(-0.000169629 1.10242e-05 0)
(-0.000173472 1.07096e-05 0)
(-0.000177202 1.03836e-05 0)
(-0.000180815 1.00464e-05 0)
(-0.000184308 9.69891e-06 0)
(-0.000187677 9.3423e-06 0)
(-0.000190919 8.97739e-06 0)
(-0.000194031 8.60459e-06 0)
(-0.000197011 8.22415e-06 0)
(-0.000199856 7.83636e-06 0)
(-0.000202562 7.44192e-06 0)
(-0.000205129 7.04166e-06 0)
(-0.000207552 6.63603e-06 0)
(-0.000209832 6.22513e-06 0)
(-0.000211966 5.80918e-06 0)
(-0.000213953 5.38872e-06 0)
(-0.00021579 4.96442e-06 0)
(-0.000217476 4.53664e-06 0)
(-0.00021901 4.10557e-06 0)
(-0.000220392 3.67142e-06 0)
(-0.00022162 3.23449e-06 0)
(-0.000222693 2.79519e-06 0)
(-0.000223611 2.3541e-06 0)
(-0.000224372 1.91168e-06 0)
(-0.000224976 1.46808e-06 0)
(-0.000225424 1.02342e-06 0)
(-0.000225714 5.78055e-07 0)
(-0.000225847 1.32353e-07 0)
(-0.000225822 -3.13378e-07 0)
(-0.000225638 -7.58827e-07 0)
(-0.000225298 -1.20367e-06 0)
(-0.0002248 -1.64766e-06 0)
(-0.000224145 -2.09054e-06 0)
(-0.000223335 -2.53202e-06 0)
(-0.000222368 -2.9717e-06 0)
(-0.000221246 -3.40922e-06 0)
(-0.000219969 -3.84426e-06 0)
(-0.00021854 -4.27652e-06 0)
(-0.000216958 -4.70564e-06 0)
(-0.000215226 -5.13131e-06 0)
(-0.000213344 -5.55313e-06 0)
(-0.000211313 -5.97062e-06 0)
(-0.000209135 -6.38334e-06 0)
(-0.000206812 -6.79103e-06 0)
(-0.000204347 -7.19345e-06 0)
(-0.00020174 -7.59017e-06 0)
(-0.000198995 -7.98058e-06 0)
(-0.000196113 -8.36409e-06 0)
(-0.000193097 -8.74024e-06 0)
(-0.00018995 -9.10857e-06 0)
(-0.000186674 -9.46855e-06 0)
(-0.000183273 -9.81963e-06 0)
(-0.000179751 -1.01613e-05 0)
(-0.000176109 -1.04928e-05 0)
(-0.000172353 -1.08134e-05 0)
(-0.000168486 -1.11224e-05 0)
(-0.000164512 -1.14192e-05 0)
(-0.000160436 -1.17031e-05 0)
(-0.000156262 -1.19733e-05 0)
(-0.000151996 -1.22291e-05 0)
(-0.000147642 -1.24695e-05 0)
(-0.000143207 -1.26938e-05 0)
(-0.000138695 -1.29009e-05 0)
(-0.000134113 -1.309e-05 0)
(-0.000129469 -1.326e-05 0)
(-0.000124768 -1.341e-05 0)
(-0.000120018 -1.35391e-05 0)
(-0.000115227 -1.36463e-05 0)
(-0.000110403 -1.37301e-05 0)
(-0.000105553 -1.37895e-05 0)
(-0.000100687 -1.38231e-05 0)
(-9.58134e-05 -1.38301e-05 0)
(-9.09418e-05 -1.38093e-05 0)
(-8.60821e-05 -1.37594e-05 0)
(-8.12449e-05 -1.36793e-05 0)
(-7.64403e-05 -1.35678e-05 0)
(-7.1679e-05 -1.3424e-05 0)
(-6.69721e-05 -1.32467e-05 0)
(-6.23311e-05 -1.3035e-05 0)
(-5.7768e-05 -1.27878e-05 0)
(-5.32949e-05 -1.25045e-05 0)
(-4.89239e-05 -1.21844e-05 0)
(-4.46673e-05 -1.18272e-05 0)
(-4.05376e-05 -1.14324e-05 0)
(-3.65472e-05 -1.09998e-05 0)
(-3.27082e-05 -1.05296e-05 0)
(-2.90327e-05 -1.00221e-05 0)
(-2.55327e-05 -9.47806e-06 0)
(-2.22199e-05 -8.89858e-06 0)
(-1.91056e-05 -8.2852e-06 0)
(-1.62003e-05 -7.63989e-06 0)
(-1.35137e-05 -6.96526e-06 0)
(-1.10539e-05 -6.26469e-06 0)
(-8.82814e-06 -5.54238e-06 0)
(-6.84182e-06 -4.80347e-06 0)
(-5.09855e-06 -4.05427e-06 0)
(-3.5998e-06 -3.30257e-06 0)
(-2.3444e-06 -2.55793e-06 0)
(-1.32808e-06 -1.83196e-06 0)
(-5.43071e-07 -1.13861e-06 0)
(2.26401e-08 -4.947e-07 0)
(3.85787e-07 7.95224e-08 0)
(5.68363e-07 5.59895e-07 0)
(5.98448e-07 9.17705e-07 0)
(5.10384e-07 1.11911e-06 0)
(3.45192e-07 1.12407e-06 0)
(1.60375e-07 8.88971e-07 0)
(3.58325e-08 3.91714e-07 0)
(3.10948e-08 -2.11592e-06 0)
(1.18233e-07 -1.86013e-06 0)
(4.50581e-07 -1.15687e-06 0)
(6.9229e-07 -6.17376e-07 0)
(7.50331e-07 -1.32243e-07 0)
(6.03473e-07 3.91624e-07 0)
(2.23656e-07 9.86634e-07 0)
(-4.02657e-07 1.67213e-06 0)
(-1.28132e-06 2.44858e-06 0)
(-2.41863e-06 3.29978e-06 0)
(-3.82225e-06 4.20821e-06 0)
(-5.49512e-06 5.15786e-06 0)
(-7.43902e-06 6.13089e-06 0)
(-9.65517e-06 7.111e-06 0)
(-1.21407e-05 8.0856e-06 0)
(-1.48906e-05 9.04379e-06 0)
(-1.78992e-05 9.97697e-06 0)
(-2.11593e-05 1.08785e-05 0)
(-2.46613e-05 1.17431e-05 0)
(-2.83949e-05 1.25663e-05 0)
(-3.2349e-05 1.33445e-05 0)
(-3.65103e-05 1.40755e-05 0)
(-4.08667e-05 1.47572e-05 0)
(-4.54056e-05 1.53885e-05 0)
(-5.01124e-05 1.59694e-05 0)
(-5.4973e-05 1.64997e-05 0)
(-5.99743e-05 1.69784e-05 0)
(-6.51025e-05 1.74059e-05 0)
(-7.03427e-05 1.77833e-05 0)
(-7.56811e-05 1.81119e-05 0)
(-8.11048e-05 1.83921e-05 0)
(-8.66008e-05 1.86249e-05 0)
(-9.21553e-05 1.8812e-05 0)
(-9.77553e-05 1.89554e-05 0)
(-0.000103389 1.90559e-05 0)
(-0.000109044 1.91143e-05 0)
(-0.00011471 1.91323e-05 0)
(-0.000120374 1.91121e-05 0)
(-0.000126025 1.90556e-05 0)
(-0.000131654 1.89641e-05 0)
(-0.000137252 1.88388e-05 0)
(-0.000142808 1.86813e-05 0)
(-0.000148312 1.84934e-05 0)
(-0.000153756 1.82764e-05 0)
(-0.000159132 1.80313e-05 0)
(-0.000164434 1.77596e-05 0)