/*--------------------------------*- C++ -*----------------------------------*\
  =========                 |
  \\      /  F ield         | OpenFOAM: The Open Source CFD Toolbox
   \\    /   O peration     | Website:  https://openfoam.org
    \\  /    A nd           | Version:  7
     \\/     M anipulation  |
\*---------------------------------------------------------------------------*/
FoamFile
{
    version     2.0;
    format      ascii;
    class       volScalarField;
    location    "0.1375";
    object      p;
}
// * * * * * * * * * * * * * * * * * * * * * * * * * * * * * * * * * * * * * //

dimensions      [0 2 -2 0 0 0 0];

internalField   nonuniform List<scalar> 
12800
(
-6.5671e-08
0.000181776
-0.000903149
-0.00334671
-0.00690372
-0.0113274
-0.0163845
-0.0218618
-0.0275725
-0.0333565
-0.0390778
-0.0446208
-0.0498883
-0.0547989
-0.0592846
-0.0632894
-0.0667675
-0.0696823
-0.0720048
-0.0737134
-0.0747922
-0.0752307
-0.0750232
-0.0741681
-0.0726673
-0.0705256
-0.0677509
-0.0643529
-0.0603437
-0.0557369
-0.0505472
-0.0447908
-0.0384845
-0.0316461
-0.0242936
-0.0164455
-0.00812048
0.000662635
0.00988515
0.0195285
0.0295742
0.0400045
0.0508014
0.0619478
0.0734268
0.0852223
0.0973184
0.1097
0.122353
0.135262
0.148415
0.161799
0.175401
0.189211
0.203217
0.217409
0.231778
0.246313
0.261007
0.275852
0.290841
0.305965
0.321219
0.336598
0.352094
0.367703
0.383421
0.399243
0.415164
0.431182
0.447292
0.463492
0.479778
0.496149
0.5126
0.529131
0.545738
0.56242
0.579173
0.595997
0.612889
0.629846
0.646867
0.663949
0.68109
0.698286
0.715535
0.732834
0.750179
0.767566
0.784991
0.802449
0.819936
0.837445
0.854971
0.872507
0.890045
0.907578
0.925096
0.942591
0.960051
0.977467
0.994826
1.01212
1.02932
1.04643
1.06342
1.08029
1.09701
1.11356
1.12992
1.14608
1.16201
1.17769
1.1931
1.20821
1.223
1.23744
1.2515
1.26516
1.27839
1.29116
1.30345
1.31522
1.32644
1.33709
1.34714
1.35656
1.36533
1.37342
1.3808
1.38745
1.39336
1.39849
1.40285
1.40641
1.40916
1.4111
1.41223
1.41255
1.41207
1.4108
1.40876
1.40598
1.40251
1.39838
1.39365
1.38839
1.38267
1.37661
1.3703
1.36388
1.35752
1.35138
1.34569
1.34069
1.33664
1.33384
1.33256
1.33272
-0.000181967
9.38902e-07
-0.0010018
-0.00313353
-0.0061705
-0.00993732
-0.0142602
-0.0189686
-0.0239061
-0.0289333
-0.0339282
-0.0387848
-0.0434119
-0.0477316
-0.051678
-0.0551958
-0.058239
-0.0607702
-0.0627592
-0.0641824
-0.0650223
-0.0652661
-0.0649059
-0.0639377
-0.0623609
-0.0601782
-0.0573946
-0.054018
-0.0500577
-0.045525
-0.0404327
-0.0347947
-0.0286257
-0.0219414
-0.0147581
-0.0070924
0.00103868
0.00961798
0.0186283
0.0280525
0.0378734
0.0480744
0.0586388
0.0695504
0.0807934
0.0923523
0.104212
0.116359
0.128778
0.141456
0.154381
0.16754
0.180921
0.194513
0.208305
0.222287
0.236451
0.250786
0.265284
0.279938
0.294739
0.309681
0.324757
0.339961
0.355288
0.370731
0.386286
0.401949
0.417715
0.433579
0.449539
0.465591
0.481731
0.497957
0.514265
0.530653
0.547118
0.563658
0.580269
0.59695
0.613698
0.630509
0.647383
0.664315
0.681302
0.698342
0.715432
0.732567
0.749744
0.766958
0.784205
0.80148
0.818777
0.83609
0.853414
0.870741
0.888062
0.905371
0.922659
0.939915
0.957129
0.97429
0.991387
1.00841
1.02533
1.04216
1.05886
1.07542
1.09184
1.10807
1.12412
1.13996
1.15556
1.17091
1.18599
1.20076
1.21522
1.22932
1.24305
1.25639
1.2693
1.28175
1.29373
1.3052
1.31615
1.32653
1.33633
1.34553
1.35409
1.36199
1.36922
1.37575
1.38156
1.38664
1.39098
1.39456
1.39738
1.39944
1.40073
1.40126
1.40105
1.4001
1.39844
1.39611
1.39313
1.38956
1.38545
1.38087
1.37589
1.37061
1.36514
1.35959
1.35411
1.34886
1.34401
1.33977
1.33633
1.33389
1.33272
1.33288
0.00090186
0.00100466
1.19167e-06
-0.00198251
-0.00473132
-0.0081031
-0.0119577
-0.0161532
-0.0205566
-0.0250463
-0.0295134
-0.0338616
-0.0380065
-0.041875
-0.0454043
-0.048541
-0.0512402
-0.0534647
-0.0551841
-0.0563742
-0.0570164
-0.0570968
-0.0566059
-0.0555383
-0.0538917
-0.051667
-0.0488677
-0.0454997
-0.0415706
-0.0370901
-0.0320691
-0.0265198
-0.0204555
-0.0138902
-0.00683871
0.000683819
0.00866172
0.0170791
0.0259201
0.0351686
0.0448088
0.0548247
0.0652007
0.0759216
0.0869723
0.098338
0.110005
0.121958
0.134185
0.146673
0.159409
0.172381
0.185578
0.198988
0.212602
0.22641
0.240401
0.254568
0.268901
0.283394
0.298037
0.312825
0.32775
0.342806
0.357988
0.37329
0.388706
0.404233
0.419865
0.435598
0.451429
0.467353
0.483368
0.499468
0.515653
0.531918
0.54826
0.564676
0.581165
0.597721
0.614344
0.63103
0.647775
0.664578
0.681434
0.698339
0.715291
0.732286
0.749318
0.766384
0.783479
0.800597
0.817733
0.83488
0.852032
0.869182
0.886321
0.903442
0.920535
0.93759
0.954598
0.971547
0.988426
1.00522
1.02192
1.03851
1.05497
1.07128
1.08744
1.10343
1.11921
1.13479
1.15013
1.16521
1.18001
1.19452
1.2087
1.22254
1.23601
1.24908
1.26173
1.27394
1.28567
1.29691
1.30764
1.31781
1.32742
1.33644
1.34484
1.35261
1.35972
1.36616
1.37191
1.37696
1.38129
1.3849
1.38778
1.38994
1.39136
1.39207
1.39208
1.39139
1.39004
1.38805
1.38547
1.38233
1.3787
1.37463
1.3702
1.36551
1.36064
1.3557
1.35084
1.34617
1.34187
1.33808
1.33497
1.33272
1.33154
1.3316
0.0033469
0.00313962
0.00198334
-5.53417e-06
-0.00264781
-0.00581986
-0.00940179
-0.013273
-0.0173187
-0.0214329
-0.0255189
-0.0294899
-0.033269
-0.0367886
-0.0399898
-0.0428223
-0.045243
-0.0472159
-0.0487113
-0.0497051
-0.0501783
-0.0501168
-0.0495102
-0.048352
-0.0466391
-0.0443712
-0.0415504
-0.0381813
-0.0342704
-0.0298259
-0.0248574
-0.0193759
-0.0133932
-0.00692209
2.38031e-05
0.00743051
0.0152835
0.0235681
0.0322692
0.0413719
0.0508612
0.0607221
0.0709398
0.0814997
0.0923875
0.103589
0.115091
0.126879
0.138942
0.151266
0.163839
0.176649
0.189687
0.20294
0.216399
0.230053
0.243894
0.257913
0.272102
0.286452
0.300956
0.315606
0.330397
0.345322
0.360375
0.375551
0.390843
0.406248
0.42176
0.437375
0.453089
0.468898
0.484798
0.500786
0.516858
0.53301
0.549241
0.565546
0.581922
0.598366
0.614876
0.631447
0.648077
0.664761
0.681498
0.698282
0.71511
0.731977
0.74888
0.765813
0.782771
0.799749
0.816741
0.83374
0.85074
0.867733
0.884711
0.901666
0.918588
0.935469
0.952296
0.96906
0.985749
1.00235
1.01885
1.03523
1.05148
1.06759
1.08354
1.0993
1.11487
1.13022
1.14533
1.16019
1.17476
1.18904
1.203
1.21662
1.22986
1.24272
1.25516
1.26716
1.2787
1.28975
1.3003
1.31031
1.31976
1.32864
1.33692
1.34458
1.3516
1.35798
1.36368
1.36871
1.37305
1.37669
1.37963
1.38188
1.38343
1.38429
1.38448
1.38401
1.3829
1.3812
1.37893
1.37614
1.37288
1.36921
1.3652
1.36093
1.35649
1.35199
1.34753
1.34324
1.33925
1.33569
1.33272
1.33045
1.32911
1.3288
0.00691609
0.00618851
0.0047356
0.00262474
-2.8124e-05
-0.00311701
-0.00653885
-0.010192
-0.0139786
-0.0178071
-0.0215925
-0.0252577
-0.0287336
-0.0319584
-0.0348781
-0.0374457
-0.0396209
-0.0413693
-0.0426626
-0.0434771
-0.0437943
-0.0435999
-0.0428832
-0.0416373
-0.0398582
-0.0375447
-0.0346982
-0.0313221
-0.0274219
-0.0230046
-0.0180788
-0.0126541
-0.00674148
-0.000352546
0.00650028
0.013804
0.0215452
0.0297101
0.0382847
0.0472549
0.0566064
0.0663252
0.0763973
0.0868087
0.0975457
0.108595
0.119943
0.131578
0.143486
0.155656
0.168076
0.180735
0.193622
0.206726
0.220038
0.233547
0.247245
0.261123
0.275173
0.289387
0.303757
0.318276
0.332938
0.347736
0.362664
0.377717
0.392889
0.408175
0.42357
0.43907
0.45467
0.470366
0.486155
0.502032
0.517994
0.534037
0.550157
0.566353
0.582619
0.598953
0.61535
0.631809
0.648325
0.664895
0.681514
0.698179
0.714886
0.73163
0.748406
0.76521
0.782036
0.798878
0.81573
0.832586
0.849439
0.866282
0.883105
0.899901
0.916661
0.933374
0.95003
0.966619
0.983128
0.999544
1.01586
1.03205
1.04811
1.06402
1.07976
1.09532
1.11068
1.12582
1.14073
1.15538
1.16975
1.18382
1.19757
1.21098
1.22403
1.23669
1.24894
1.26076
1.27212
1.28301
1.29339
1.30325
1.31257
1.32133
1.3295
1.33708
1.34403
1.35035
1.35602
1.36104
1.36539
1.36907
1.37208
1.37441
1.37607
1.37707
1.37743
1.37715
1.37628
1.37482
1.37282
1.37033
1.36739
1.36405
1.36038
1.35646
1.35237
1.34819
1.34403
1.33999
1.33618
1.33273
1.32974
1.32734
1.32566
1.32475
0.0113734
0.00998399
0.00812236
0.00579078
0.00302774
-7.75269e-05
-0.00343646
-0.00696464
-0.0105799
-0.0142036
-0.0177623
-0.0211883
-0.0244201
-0.0274023
-0.0300858
-0.0324276
-0.0343904
-0.035942
-0.0370558
-0.0377093
-0.0378845
-0.0375676
-0.0367479
-0.0354182
-0.0335742
-0.0312142
-0.0283389
-0.0249508
-0.0210547
-0.0166568
-0.0117644
-0.00638661
-0.000533097
0.00578537
0.0125573
0.0197708
0.0274131
0.0354715
0.0439328
0.0527837
0.0620108
0.0716008
0.0815402
0.0918159
0.102415
0.113324
0.124531
0.136023
0.147789
0.159816
0.172094
0.184611
0.197357
0.210321
0.223494
0.236867
0.25043
0.264175
0.278093
0.292178
0.30642
0.320814
0.335353
0.350029
0.364838
0.379773
0.394829
0.410001
0.425283
0.440671
0.456161
0.471748
0.487428
0.503198
0.519052
0.534988
0.551002
0.567091
0.58325
0.599476
0.615765
0.632114
0.64852
0.664977
0.681483
0.698032
0.714621
0.731245
0.747899
0.764578
0.781276
0.797988
0.814707
0.831426
0.848139
0.864837
0.881514
0.898159
0.914764
0.931319
0.947814
0.964237
0.980578
0.996823
1.01296
1.02897
1.04485
1.06058
1.07614
1.09151
1.10668
1.12163
1.13635
1.15081
1.16499
1.17887
1.19244
1.20567
1.21853
1.23102
1.2431
1.25476
1.26596
1.2767
1.28695
1.29669
1.30589
1.31454
1.32263
1.33013
1.33702
1.3433
1.34896
1.35397
1.35834
1.36206
1.36512
1.36754
1.36931
1.37044
1.37095
1.37085
1.37017
1.36893
1.36717
1.36492
1.36224
1.35918
1.35579
1.35214
1.3483
1.34435
1.34039
1.33649
1.33276
1.32929
1.32618
1.32354
1.32139
1.31973
0.0164977
0.0143612
0.0120105
0.00937878
0.0064223
0.00321556
-0.000165187
-0.00365099
-0.00717373
-0.0106669
-0.0140676
-0.0173171
-0.0203614
-0.0231514
-0.0256432
-0.0277979
-0.0295815
-0.0309646
-0.0319223
-0.0324339
-0.0324824
-0.0320543
-0.0311397
-0.0297313
-0.0278248
-0.0254183
-0.0225118
-0.0191077
-0.0152098
-0.0108237
-0.00595629
-0.000615471
0.00518966
0.0114492
0.0181525
0.0252883
0.0328449
0.0408103
0.0491719
0.0579173
0.0670338
0.0765087
0.0863292
0.0964827
0.106957
0.117739
0.128817
0.14018
0.151815
0.163711
0.175858
0.188244
0.20086
0.213694
0.226739
0.239985
0.253422
0.267042
0.280837
0.2948
0.308923
0.323199
0.337621
0.352182
0.366878
0.381701
0.396646
0.411709
0.426883
0.442165
0.457549
0.473031
0.488607
0.504272
0.520024
0.535857
0.551768
0.567753
0.583808
0.59993
0.616115
0.632359
0.648657
0.665007
0.681403
0.697841
0.714317
0.730826
0.747363
0.763923
0.780499
0.797086
0.813678
0.830268
0.846848
0.86341
0.879948
0.896451
0.912912
0.929319
0.945663
0.961933
0.978117
0.994203
1.01018
1.02603
1.04174
1.0573
1.07269
1.08789
1.10289
1.11767
1.13222
1.14651
1.16052
1.17423
1.18764
1.2007
1.21341
1.22574
1.23768
1.24919
1.26026
1.27088
1.28101
1.29064
1.29974
1.30831
1.31633
1.32377
1.33062
1.33687
1.34251
1.34753
1.35193
1.35569
1.35881
1.36131
1.36317
1.36442
1.36506
1.36512
1.36461
1.36355
1.36199
1.35995
1.35748
1.35463
1.35145
1.34799
1.34433
1.34053
1.33667
1.33283
1.32908
1.3255
1.32217
1.31919
1.3165
1.314
0.0220877
0.0191586
0.0162652
0.0132739
0.010059
0.00668248
0.00321053
-0.000301673
-0.00379866
-0.00722498
-0.0105273
-0.0136553
-0.0165623
-0.0192054
-0.0215458
-0.0235489
-0.0251841
-0.026425
-0.0272488
-0.0276366
-0.0275728
-0.0270448
-0.0260434
-0.0245617
-0.0225954
-0.0201427
-0.0172035
-0.0137798
-0.00987506
-0.00549432
-0.000643867
0.00466889
0.0104355
0.0166468
0.0232928
0.030363
0.0378462
0.0457312
0.0540061
0.0626591
0.0716781
0.0810509
0.0907656
0.10081
0.111172
0.12184
0.132802
0.144047
0.155563
0.16734
0.179367
0.191633
0.204129
0.216844
0.22977
0.242898
0.256218
0.269722
0.283402
0.297252
0.311262
0.325427
0.339739
0.354192
0.36878
0.383497
0.398338
0.413297
0.428368
0.443548
0.458831
0.474213
0.489689
0.505255
0.520907
0.536641
0.552453
0.568339
0.584294
0.600316
0.6164
0.632542
0.648738
0.664984
0.681274
0.697606
0.713974
0.730373
0.746798
0.763244
0.779704
0.796173
0.812645
0.829111
0.845566
0.862001
0.878408
0.894779
0.911104
0.927373
0.943577
0.959705
0.975744
0.991683
1.00751
1.02321
1.03877
1.05418
1.06941
1.08446
1.09931
1.11394
1.12833
1.14246
1.15632
1.16989
1.18315
1.19607
1.20865
1.22085
1.23265
1.24404
1.255
1.26551
1.27554
1.28508
1.29411
1.30262
1.31057
1.31797
1.32479
1.33103
1.33667
1.3417
1.34612
1.34993
1.35311
1.35568
1.35764
1.35899
1.35975
1.35994
1.35957
1.35867
1.35727
1.3554
1.35309
1.3504
1.34737
1.34405
1.3405
1.33678
1.33295
1.32907
1.32522
1.32145
1.31784
1.31446
1.31116
1.30778
0.0279683
0.0242278
0.0207594
0.0173663
0.013844
0.0102444
0.00662562
0.00303064
-0.000496244
-0.00390942
-0.00716443
-0.0102188
-0.0130326
-0.0155688
-0.0177938
-0.0196772
-0.0211921
-0.0223148
-0.0230253
-0.0233063
-0.0231438
-0.0225267
-0.0214463
-0.0198964
-0.0178733
-0.0153752
-0.012402
-0.00895569
-0.00503951
-0.000658142
0.0041825
0.00947544
0.0152128
0.0213858
0.0279852
0.0350008
0.0424224
0.0502389
0.0584394
0.0670124
0.0759464
0.0852299
0.0948513
0.104799
0.115061
0.125627
0.136485
0.147624
0.159033
0.170702
0.18262
0.194777
0.207163
0.219769
0.232586
0.245604
0.258816
0.272213
0.285787
0.29953
0.313435
0.327496
0.341705
0.356057
0.370544
0.385161
0.399902
0.414763
0.429737
0.444819
0.460006
0.475292
0.490673
0.506144
0.521701
0.53734
0.553057
0.568847
0.584707
0.600633
0.61662
0.632664
0.648762
0.664908
0.681098
0.697328
0.713592
0.729886
0.746205
0.762542
0.778892
0.795249
0.811606
0.827957
0.844293
0.860608
0.876893
0.89314
0.909339
0.925481
0.941555
0.95755
0.973457
0.989261
1.00495
1.02052
1.03594
1.05121
1.0663
1.08121
1.09592
1.11041
1.12467
1.13867
1.1524
1.16584
1.17897
1.19177
1.20423
1.21631
1.22801
1.2393
1.25017
1.26059
1.27054
1.28001
1.28898
1.29743
1.30535
1.31272
1.31952
1.32575
1.3314
1.33645
1.3409
1.34475
1.348
1.35064
1.35268
1.35413
1.35499
1.35529
1.35505
1.35427
1.353
1.35126
1.34908
1.3465
1.34357
1.34033
1.33683
1.33312
1.32926
1.32529
1.32128
1.31726
1.31331
1.30949
1.30555
1.30127
0.0339885
0.0294363
0.0253766
0.0215535
0.0176882
0.0138248
0.0100151
0.00629164
0.00268891
-0.0007563
-0.0040075
-0.00702935
-0.00978831
-0.012253
-0.0143947
-0.016187
-0.0176068
-0.0186333
-0.0192491
-0.019439
-0.0191906
-0.0184942
-0.0173422
-0.0157293
-0.0136521
-0.0111093
-0.00810119
-0.00462957
-0.000697732
0.00368977
0.00852731
0.0138082
0.0195249
0.0256692
0.032232
0.0392039
0.0465748
0.0543345
0.0624723
0.0709773
0.0798385
0.0890448
0.0985851
0.108448
0.118623
0.129099
0.139864
0.150909
0.162222
0.173793
0.185613
0.197671
0.209958
0.222465
0.235182
0.248101
0.261213
0.274511
0.287986
0.301632
0.31544
0.329404
0.343517
0.357773
0.372165
0.386688
0.401337
0.416104
0.430986
0.445977
0.461072
0.476267
0.491557
0.506938
0.522404
0.537952
0.553578
0.569278
0.585046
0.60088
0.616774
0.632725
0.648728
0.664779
0.680873
0.697006
0.713171
0.729366
0.745583
0.761817
0.778063
0.794314
0.810564
0.826805
0.843031
0.859233
0.875404
0.891535
0.907617
0.92364
0.939595
0.95547
0.971254
0.986936
1.0025
1.01794
1.03324
1.04838
1.06336
1.07814
1.09273
1.1071
1.12124
1.13512
1.14874
1.16207
1.17509
1.18779
1.20014
1.21213
1.22374
1.23495
1.24574
1.25609
1.26599
1.2754
1.28433
1.29274
1.30063
1.30799
1.31479
1.32102
1.32668
1.33176
1.33625
1.34015
1.34345
1.34616
1.34828
1.34981
1.35077
1.35117
1.35102
1.35035
1.34918
1.34753
1.34544
1.34294
1.34007
1.33686
1.33336
1.32962
1.32567
1.32156
1.31733
1.31302
1.3087
1.3044
1.29981
1.29464
0.0400197
0.0346671
0.030011
0.0257408
0.0215077
0.0173503
0.0133156
0.00942723
0.00571118
0.00219648
-0.00108748
-0.00411192
-0.00684913
-0.009273
-0.0113593
-0.0130859
-0.014433
-0.0153831
-0.015921
-0.0160339
-0.0157112
-0.0149447
-0.0137279
-0.0120564
-0.00992776
-0.00734102
-0.00429687
-0.000797375
0.0031541
0.00755304
0.0123939
0.0176702
0.0233745
0.0294991
0.0360351
0.0429734
0.0503045
0.0580185
0.066105
0.0745536
0.0833538
0.0924948
0.101966
0.111756
0.121855
0.132252
0.142937
0.153899
0.165127
0.176612
0.188344
0.200314
0.212512
0.224929
0.237556
0.250384
0.263406
0.276614
0.289999
0.303554
0.317272
0.331147
0.345171
0.359338
0.373642
0.388078
0.402638
0.417319
0.432114
0.447018
0.462027
0.477136
0.49234
0.507634
0.523015
0.538477
0.554016
0.569629
0.58531
0.601056
0.616862
0.632724
0.648637
0.664597
0.6806
0.696639
0.712711
0.728811
0.744932
0.761069
0.777216
0.793368
0.809516
0.825655
0.841777
0.857875
0.87394
0.889964
0.905938
0.921852
0.937696
0.953461
0.969134
0.984704
1.00016
1.01549
1.03067
1.04571
1.06057
1.07525
1.08973
1.104
1.11803
1.13181
1.14533
1.15856
1.1715
1.18411
1.19638
1.2083
1.21984
1.23098
1.24171
1.25201
1.26186
1.27124
1.28014
1.28853
1.29641
1.30376
1.31057
1.31682
1.32251
1.32762
1.33215
1.3361
1.33946
1.34223
1.34442
1.34603
1.34707
1.34756
1.34749
1.34691
1.34581
1.34423
1.3422
1.33974
1.33689
1.33367
1.33013
1.32631
1.32223
1.31794
1.31346
1.30883
1.3041
1.29931
1.29407
1.28802
0.0459514
0.0398168
0.0345674
0.0298413
0.0252245
0.0207514
0.016466
0.0123843
0.00852497
0.0049102
0.00156311
-0.00149334
-0.00423688
-0.00664622
-0.00870147
-0.0103844
-0.0116785
-0.0125694
-0.0130443
-0.0130928
-0.0127061
-0.0118775
-0.0106018
-0.00887582
-0.00669782
-0.00406758
-0.000986248
0.00254374
0.00651882
0.0109343
0.0157847
0.0210635
0.0267636
0.0328772
0.0393958
0.0463106
0.0536123
0.0612913
0.0693376
0.0777412
0.0864919
0.0955792
0.104993
0.114722
0.124757
0.135087
0.145702
0.156592
0.167746
0.179156
0.190811
0.202703
0.214821
0.227158
0.239704
0.252452
0.265392
0.278518
0.291821
0.305294
0.31893
0.332723
0.346665
0.36075
0.374973
0.389326
0.403805
0.418405
0.433119
0.447942
0.46287
0.477898
0.49302
0.508233
0.523532
0.538913
0.55437
0.5699
0.585498
0.601161
0.616883
0.63266
0.648488
0.664362
0.680277
0.696229
0.712212
0.728222
0.744252
0.760298
0.776352
0.79241
0.808464
0.824507
0.840533
0.856533
0.8725
0.888425
0.904299
0.920113
0.935857
0.951521
0.967094
0.982564
0.99792
1.01315
1.02824
1.04317
1.05794
1.07252
1.08691
1.10109
1.11503
1.12873
1.14217
1.15533
1.16819
1.18073
1.19294
1.2048
1.21628
1.22738
1.23807
1.24833
1.25816
1.26752
1.2764
1.28479
1.29267
1.30003
1.30686
1.31313
1.31885
1.324
1.32858
1.33258
1.336
1.33884
1.3411
1.34278
1.3439
1.34445
1.34446
1.34393
1.34289
1.34136
1.33936
1.33691
1.33405
1.33079
1.32718
1.32324
1.319
1.31449
1.30974
1.30476
1.29961
1.29433
1.28844
1.28154
0.0516881
0.0447943
0.0389601
0.0337759
0.0287662
0.0239628
0.019408
0.0151113
0.0110851
0.00734577
0.00391079
0.000797897
-0.00197547
-0.0043925
-0.00643735
-0.00809543
-0.00935357
-0.0102001
-0.0106251
-0.01062
-0.0101781
-0.00929426
-0.00796479
-0.00618756
-0.00396179
-0.00128804
0.00183194
0.00539524
0.00939795
0.0138352
0.0187013
0.0239898
0.0296935
0.0358048
0.0423152
0.0492163
0.0564988
0.0641534
0.0721704
0.0805401
0.0892525
0.0982974
0.107665
0.117345
0.127327
0.137601
0.148157
0.158986
0.170078
0.181423
0.193012
0.204835
0.216885
0.229151
0.241626
0.254301
0.267169
0.280221
0.29345
0.306849
0.320411
0.334129
0.347996
0.362007
0.376154
0.390433
0.404836
0.41936
0.433999
0.448746
0.463598
0.47855
0.493596
0.508733
0.523955
0.539258
0.554638
0.57009
0.58561
0.601193
0.616836
0.632533
0.64828
0.664072
0.679905
0.695774
0.711674
0.727598
0.743543
0.759503
0.77547
0.79144
0.807406
0.82336
0.839296
0.855206
0.871082
0.886917
0.9027
0.918423
0.934076
0.949649
0.965132
0.980512
0.995779
1.01092
1.02592
1.04077
1.05546
1.06996
1.08427
1.09837
1.11224
1.12588
1.13925
1.15234
1.16515
1.17764
1.1898
1.20161
1.21306
1.22413
1.2348
1.24504
1.25485
1.26421
1.2731
1.2815
1.2894
1.29678
1.30363
1.30994
1.31571
1.32091
1.32554
1.3296
1.33308
1.33598
1.33831
1.34005
1.34123
1.34185
1.34191
1.34144
1.34044
1.33893
1.33694
1.33448
1.33158
1.32826
1.32454
1.32046
1.31603
1.31129
1.30624
1.3009
1.29532
1.28953
1.28302
1.2753
0.0571472
0.0495192
0.0431126
0.0374725
0.0320659
0.0269234
0.0220861
0.0175585
0.0133474
0.00946414
0.00592143
0.00273232
-9.01829e-05
-0.00253332
-0.00458505
-0.00623416
-0.00747059
-0.00828549
-0.00867132
-0.00862181
-0.00813211
-0.00719873
-0.00581947
-0.00399338
-0.00172073
0.000997085
0.00415758
0.00775731
0.011792
0.0162563
0.0211444
0.0264497
0.0321649
0.0382824
0.0447939
0.0516908
0.0589642
0.0666049
0.0746034
0.0829501
0.0916352
0.100649
0.109982
0.119623
0.129564
0.139793
0.150302
0.161082
0.172121
0.183412
0.194944
0.20671
0.2187
0.230906
0.243319
0.255931
0.268735
0.281722
0.294886
0.308219
0.321714
0.335364
0.349164
0.363106
0.377185
0.391395
0.40573
0.420184
0.434752
0.44943
0.464212
0.479093
0.494068
0.509133
0.524283
0.539514
0.55482
0.570199
0.585645
0.601154
0.616721
0.632342
0.648013
0.663728
0.679484
0.695274
0.711095
0.72694
0.742805
0.758683
0.77457
0.790458
0.806341
0.822213
0.838066
0.853893
0.869687
0.885438
0.901138
0.916779
0.93235
0.947842
0.963245
0.978546
0.993735
1.0088
1.02373
1.03851
1.05312
1.06756
1.0818
1.09584
1.10966
1.12323
1.13656
1.14961
1.16237
1.17482
1.18695
1.19874
1.21018
1.22123
1.23189
1.24213
1.25195
1.26131
1.27022
1.27864
1.28657
1.29399
1.30088
1.30724
1.31306
1.31831
1.32301
1.32713
1.33067
1.33364
1.33603
1.33784
1.33908
1.33975
1.33986
1.33943
1.33845
1.33696
1.33495
1.33246
1.3295
1.32609
1.32226
1.31801
1.31338
1.30838
1.30302
1.2973
1.29129
1.28502
1.27788
1.26938
0.0622564
0.0539204
0.0469558
0.0408653
0.035062
0.0295759
0.0244478
0.019678
0.0152686
0.0112268
0.00756087
0.00427979
0.00139261
-0.0010916
-0.00316426
-0.00481742
-0.00604389
-0.00683748
-0.00719304
-0.00710648
-0.00657485
-0.00559632
-0.00417013
-0.00229663
2.2816e-05
0.00278589
0.00598935
0.0096291
0.0137003
0.0181973
0.0231138
0.0284432
0.0341779
0.0403102
0.0468319
0.0537343
0.0610087
0.0686458
0.0766364
0.0849709
0.0936399
0.102634
0.111943
0.121557
0.131467
0.141663
0.152136
0.162876
0.173874
0.185121
0.196608
0.208326
0.220267
0.232421
0.244782
0.25734
0.270088
0.28302
0.296126
0.309401
0.322837
0.336428
0.350167
0.364048
0.378065
0.392213
0.406484
0.420875
0.43538
0.449993
0.464709
0.479525
0.494434
0.509432
0.524515
0.539678
0.554916
0.570226
0.585603
0.601041
0.616538
0.632088
0.647687
0.66333
0.679012
0.694729
0.710476
0.726247
0.742036
0.757839
0.77365
0.789462
0.805269
0.821065
0.836842
0.852593
0.868311
0.883987
0.899612
0.915179
0.930677
0.946098
0.961429
0.976661
0.991783
1.00678
1.02165
1.03637
1.05092
1.06531
1.0795
1.09349
1.10726
1.1208
1.13409
1.14711
1.15984
1.17228
1.18439
1.19618
1.2076
1.21866
1.22933
1.23958
1.24942
1.25881
1.26775
1.27621
1.28418
1.29165
1.2986
1.30502
1.31089
1.31622
1.32098
1.32517
1.32878
1.33182
1.33427
1.33615
1.33744
1.33816
1.33832
1.33791
1.33695
1.33545
1.33342
1.33088
1.32785
1.32434
1.32036
1.31594
1.31109
1.30582
1.30013
1.29405
1.28761
1.28084
1.27311
1.26386
0.0669522
0.0579341
0.0504274
0.0438946
0.0376976
0.0318668
0.0264434
0.021424
0.016807
0.0125958
0.00879497
0.00540981
0.00244588
-9.11801e-05
-0.00219596
-0.00386344
-0.00508922
-0.00586965
-0.00620187
-0.0060839
-0.00551463
-0.00449391
-0.00302249
-0.00110202
0.00126503
0.00407535
0.00732485
0.0110087
0.0151215
0.0196571
0.024609
0.0299699
0.0357323
0.0418882
0.0484293
0.055347
0.0626323
0.0702763
0.0782696
0.0866029
0.0952667
0.104252
0.113548
0.123146
0.133037
0.143211
0.153658
0.16437
0.175337
0.186551
0.198002
0.209683
0.221583
0.233696
0.246014
0.258527
0.271229
0.284113
0.297171
0.310395
0.32378
0.337319
0.351004
0.364831
0.378793
0.392885
0.4071
0.421433
0.43588
0.450434
0.465091
0.479846
0.494694
0.50963
0.524651
0.539751
0.554926
0.570171
0.585483
0.600856
0.616287
0.63177
0.647302
0.662877
0.678491
0.694139
0.709816
0.725517
0.741237
0.75697
0.772711
0.788453
0.80419
0.819915
0.835623
0.851305
0.866954
0.882562
0.89812
0.913621
0.929055
0.944412
0.959682
0.974855
0.98992
1.00487
1.01968
1.03435
1.04886
1.0632
1.07736
1.09131
1.10505
1.11857
1.13183
1.14484
1.15756
1.16999
1.18211
1.1939
1.20534
1.21641
1.2271
1.23739
1.24726
1.2567
1.26568
1.2742
1.28223
1.28976
1.29677
1.30326
1.30921
1.3146
1.31944
1.32371
1.3274
1.3305
1.33303
1.33497
1.33632
1.33709
1.33727
1.33689
1.33593
1.33442
1.33236
1.32977
1.32665
1.32302
1.31889
1.31428
1.3092
1.30365
1.29765
1.29118
1.28432
1.27708
1.26877
1.25879
0.0711783
0.0615034
0.0534711
0.0465054
0.03992
0.0337461
0.0280259
0.0227529
0.0179222
0.013534
0.00958993
0.00609181
0.00304206
0.000443302
-0.001702
-0.00339159
-0.00462367
-0.00539696
-0.00571081
-0.00556527
-0.00496109
-0.00389978
-0.00238357
-0.000415424
0.00200102
0.00486141
0.00816075
0.0118935
0.0160535
0.0206342
0.0256285
0.0310288
0.0368273
0.0430158
0.0495858
0.0565285
0.0638351
0.0714964
0.0795031
0.087846
0.0965156
0.105503
0.114797
0.124391
0.134273
0.144436
0.154869
0.165563
0.17651
0.187701
0.199127
0.21078
0.222651
0.234732
0.247015
0.259493
0.272158
0.285002
0.298019
0.311202
0.324543
0.338037
0.351676
0.365456
0.37937
0.393412
0.407577
0.421858
0.436252
0.450753
0.465356
0.480056
0.494848
0.509728
0.524692
0.539733
0.554849
0.570035
0.585286
0.600599
0.615967
0.631388
0.646857
0.662369
0.677919
0.693503
0.709116
0.724753
0.740408
0.756076
0.771751
0.787429
0.803101
0.818763
0.834407
0.850026
0.865613
0.881161
0.89666
0.912103
0.92748
0.942783
0.958001
0.973124
0.988142
1.00304
1.01781
1.03245
1.04692
1.06123
1.07536
1.0893
1.10302
1.11652
1.12978
1.14279
1.15552
1.16796
1.18009
1.1919
1.20337
1.21448
1.22521
1.23554
1.24547
1.25496
1.26401
1.27259
1.28069
1.28829
1.29539
1.30196
1.30799
1.31347
1.31839
1.32274
1.32651
1.3297
1.3323
1.3343
1.33571
1.33652
1.33675
1.33638
1.33543
1.3339
1.3318
1.32914
1.32592
1.32217
1.31788
1.31308
1.30776
1.30193
1.2956
1.28877
1.28148
1.27378
1.26491
1.25424
0.0748843
0.064577
0.0560354
0.0486473
0.0416804
0.0351669
0.0291506
0.0236225
0.0185749
0.0140053
0.00991236
0.00629518
0.00315335
0.000486666
-0.00170509
-0.00342221
-0.00466531
-0.0054354
-0.00573397
-0.00556302
-0.00492509
-0.00382333
-0.00226144
-0.000243758
0.00222488
0.00513909
0.00849295
0.0122801
0.0164936
0.0211264
0.0261707
0.0316187
0.0374622
0.0436925
0.0503011
0.057279
0.0646171
0.0723063
0.0803373
0.0887008
0.0973873
0.106388
0.115692
0.125292
0.135177
0.145339
0.155768
0.166456
0.177394
0.188572
0.199983
0.211618
0.223469
0.235528
0.247787
0.260238
0.272874
0.285687
0.298672
0.31182
0.325126
0.338582
0.352183
0.365923
0.379795
0.393794
0.407915
0.422151
0.436499
0.450952
0.465506
0.480156
0.494898
0.509726
0.524637
0.539625
0.554687
0.569817
0.585013
0.600269
0.61558
0.630943
0.646354
0.661807
0.677298
0.692822
0.708375
0.723952
0.739547
0.755156
0.770772
0.78639
0.802003
0.817607
0.833194
0.848757
0.864289
0.879782
0.89523
0.910622
0.925951
0.941208
0.956383
0.971465
0.986445
1.00131
1.01605
1.03066
1.04511
1.0594
1.07352
1.08745
1.10117
1.11467
1.12794
1.14095
1.1537
1.16617
1.17833
1.19018
1.20169
1.21285
1.22363
1.23403
1.24402
1.25359
1.26271
1.27137
1.27956
1.28726
1.29444
1.30111
1.30723
1.31281
1.31783
1.32227
1.32613
1.3294
1.33208
1.33415
1.33562
1.33649
1.33674
1.33639
1.33544
1.33389
1.33175
1.32901
1.3257
1.32182
1.31737
1.31236
1.3068
1.3007
1.29404
1.28684
1.27914
1.27099
1.26158
1.25025
0.0780247
0.067108
0.0580733
0.0502737
0.042933
0.0360851
0.0297754
0.0239929
0.0187273
0.0139741
0.00972927
0.00598949
0.00275175
1.33101e-05
-0.00222847
-0.0039763
-0.00523307
-0.00600197
-0.0062865
-0.00609056
-0.00541843
-0.00427491
-0.00266517
-0.000594862
0.00192992
0.00490272
0.00831664
0.0121644
0.0164385
0.021131
0.0262336
0.0317381
0.0376357
0.0439176
0.0505748
0.0575982
0.0649786
0.0727066
0.0807728
0.089168
0.0978827
0.106907
0.116233
0.12585
0.13575
0.145922
0.156359
0.167051
0.177989
0.189166
0.200572
0.212199
0.22404
0.236086
0.248329
0.260763
0.273379
0.28617
0.299131
0.312253
0.32553
0.338957
0.352526
0.366233
0.38007
0.394032
0.408115
0.422312
0.436619
0.45103
0.465541
0.480147
0.494843
0.509625
0.524488
0.539427
0.554439
0.569519
0.584663
0.599867
0.615126
0.630436
0.645792
0.661191
0.676627
0.692096
0.707594
0.723116
0.738656
0.754209
0.769771
0.785335
0.800895
0.816447
0.831982
0.847495
0.862978
0.878425
0.893827
0.909177
0.924465
0.939684
0.954823
0.969874
0.984826
0.999667
1.01439
1.02898
1.04342
1.0577
1.07182
1.08575
1.09948
1.11299
1.12628
1.13932
1.15211
1.16461
1.17682
1.18872
1.20029
1.21151
1.22237
1.23284
1.24291
1.25257
1.26178
1.27054
1.27883
1.28663
1.29393
1.3007
1.30694
1.31262
1.31775
1.32229
1.32625
1.32962
1.33238
1.33453
1.33606
1.33698
1.33727
1.33694
1.33599
1.33442
1.33223
1.32943
1.32601
1.322
1.31738
1.31217
1.30637
1.29999
1.29302
1.28545
1.27735
1.26876
1.25883
1.24687
0.0805581
0.0690533
0.0595411
0.0513409
0.043635
0.036459
0.0298599
0.0238252
0.0183428
0.0134057
0.0090082
0.00514445
0.00180919
-0.00100261
-0.00329587
-0.00507553
-0.00634662
-0.00711441
-0.00738432
-0.0071621
-0.00645378
-0.0052657
-0.00360454
-0.00147727
0.00110876
0.00414599
0.00762649
0.0115421
0.0158845
0.0206451
0.025815
0.0313853
0.0373468
0.0436904
0.0504067
0.0574864
0.0649199
0.0726978
0.0808106
0.0892488
0.098003
0.107064
0.116422
0.126068
0.135992
0.146186
0.156642
0.167348
0.178299
0.189484
0.200895
0.212525
0.224365
0.236408
0.248645
0.26107
0.273675
0.286453
0.299397
0.312501
0.325758
0.339162
0.352707
0.366387
0.380196
0.394129
0.40818
0.422344
0.436615
0.45099
0.465464
0.48003
0.494686
0.509426
0.524245
0.539141
0.554108
0.569142
0.584239
0.599395
0.614605
0.629866
0.645173
0.660521
0.675907
0.691326
0.706773
0.722244
0.737734
0.753237
0.768749
0.784264
0.799777
0.815281
0.830771
0.84624
0.86168
0.877087
0.89245
0.907764
0.92302
0.938208
0.953321
0.968348
0.98328
0.998106
1.01282
1.0274
1.04184
1.05613
1.07025
1.08419
1.09795
1.11149
1.12481
1.13789
1.15072
1.16328
1.17555
1.18751
1.19916
1.21046
1.2214
1.23197
1.24214
1.2519
1.26122
1.2701
1.2785
1.28642
1.29384
1.30073
1.30709
1.3129
1.31814
1.3228
1.32687
1.33034
1.3332
1.33543
1.33704
1.33801
1.33835
1.33804
1.33709
1.3355
1.33327
1.33039
1.32688
1.32273
1.31795
1.31254
1.30651
1.29985
1.29256
1.28464
1.27615
1.26713
1.2567
1.24412
0.0824464
0.0703733
0.0603981
0.0518082
0.0437459
0.0362486
0.0293654
0.0230823
0.0173855
0.0122663
0.00771705
0.00372992
0.000297551
-0.00258718
-0.00493137
-0.00674202
-0.00802619
-0.0087911
-0.00904407
-0.00879262
-0.00804449
-0.00680756
-0.00508999
-0.00290011
-0.000246508
0.00286209
0.00641676
0.0104084
0.0148278
0.0196656
0.0249124
0.0305585
0.0365943
0.0430103
0.0497967
0.0569438
0.0644418
0.0722811