/*--------------------------------*- C++ -*----------------------------------*\
  =========                 |
  \\      /  F ield         | OpenFOAM: The Open Source CFD Toolbox
   \\    /   O peration     | Website:  https://openfoam.org
    \\  /    A nd           | Version:  7
     \\/     M anipulation  |
\*---------------------------------------------------------------------------*/
FoamFile
{
    version     2.0;
    format      ascii;
    class       surfaceScalarField;
    location    "0.1375";
    object      phi;
}
// * * * * * * * * * * * * * * * * * * * * * * * * * * * * * * * * * * * * * //

dimensions      [0 3 -1 0 0 0 0];

internalField   nonuniform List<scalar> 
25360
(
1.14293e-10
-1.14285e-10
3.59455e-10
-2.45167e-10
6.0397e-10
-2.44513e-10
7.64739e-10
-1.60769e-10
7.97646e-10
-3.29095e-11
6.80895e-10
1.16748e-10
4.05865e-10
2.75031e-10
-2.81202e-11
4.33981e-10
-6.16924e-10
5.88801e-10
-1.35352e-09
7.36601e-10
-2.22916e-09
8.75637e-10
-3.23406e-09
1.00491e-09
-4.35794e-09
1.12387e-09
-5.59026e-09
1.23232e-09
-6.92051e-09
1.33025e-09
-8.33832e-09
1.41782e-09
-9.8336e-09
1.49528e-09
-1.13966e-08
1.56297e-09
-1.30178e-08
1.62127e-09
-1.46885e-08
1.67062e-09
-1.63999e-08
1.71145e-09
-1.81441e-08
1.74424e-09
-1.99136e-08
1.76946e-09
-2.17012e-08
1.78757e-09
-2.35002e-08
1.79907e-09
-2.53046e-08
1.80441e-09
-2.71087e-08
1.80405e-09
-2.89071e-08
1.79845e-09
-3.06952e-08
1.78805e-09
-3.24684e-08
1.77325e-09
-3.42229e-08
1.75449e-09
-3.59551e-08
1.73213e-09
-3.76616e-08
1.70657e-09
-3.93398e-08
1.67815e-09
-4.0987e-08
1.64721e-09
-4.26011e-08
1.61408e-09
-4.41801e-08
1.57905e-09
-4.57225e-08
1.54242e-09
-4.7227e-08
1.50443e-09
-4.86923e-08
1.46535e-09
-5.01177e-08
1.42539e-09
-5.15025e-08
1.38478e-09
-5.28462e-08
1.3437e-09
-5.41485e-08
1.30234e-09
-5.54094e-08
1.26086e-09
-5.66288e-08
1.2194e-09
-5.78069e-08
1.17811e-09
-5.8944e-08
1.13709e-09
-6.00405e-08
1.09646e-09
-6.10968e-08
1.0563e-09
-6.21135e-08
1.01671e-09
-6.30912e-08
9.77741e-10
-6.40307e-08
9.39459e-10
-6.49326e-08
9.01909e-10
-6.57977e-08
8.65131e-10
-6.66269e-08
8.29155e-10
-6.74209e-08
7.94002e-10
-6.81805e-08
7.59682e-10
-6.89067e-08
7.26201e-10
-6.96003e-08
6.93556e-10
-7.0262e-08
6.61741e-10
-7.08928e-08
6.30738e-10
-7.14933e-08
6.00529e-10
-7.20644e-08
5.7109e-10
-7.26068e-08
5.42386e-10
-7.31212e-08
5.14382e-10
-7.36082e-08
4.87039e-10
-7.40685e-08
4.60316e-10
-7.45027e-08
4.34165e-10
-7.49112e-08
4.08532e-10
-7.52946e-08
3.83365e-10
-7.56532e-08
3.58608e-10
-7.59874e-08
3.34202e-10
-7.62975e-08
3.10085e-10
-7.65837e-08
2.86191e-10
-7.68461e-08
2.62458e-10
-7.70849e-08
2.38817e-10
-7.73001e-08
2.15199e-10
-7.74917e-08
1.91531e-10
-7.76594e-08
1.67742e-10
-7.78032e-08
1.43761e-10
-7.79227e-08
1.19516e-10
-7.80176e-08
9.49304e-11
-7.80876e-08
6.99292e-11
-7.8132e-08
4.44373e-11
-7.81504e-08
1.83811e-11
-7.81421e-08
-8.31178e-12
-7.81063e-08
-3.57143e-11
-7.80424e-08
-6.38996e-11
-7.79495e-08
-9.29377e-11
-7.78266e-08
-1.22898e-10
-7.76728e-08
-1.53848e-10
-7.74869e-08
-1.85849e-10
-7.7268e-08
-2.18964e-10
-7.70147e-08
-2.53249e-10
-7.67259e-08
-2.8876e-10
-7.64004e-08
-3.25545e-10
-7.60367e-08
-3.63647e-10
-7.56336e-08
-4.03105e-10
-7.51897e-08
-4.4395e-10
-7.47035e-08
-4.86206e-10
-7.41736e-08
-5.2989e-10
-7.35986e-08
-5.75011e-10
-7.2977e-08
-6.21568e-10
-7.23075e-08
-6.69547e-10
-7.15886e-08
-7.18925e-10
-7.08189e-08
-7.69668e-10
-6.99972e-08
-8.21731e-10
-6.91221e-08
-8.75052e-10
-6.81926e-08
-9.29556e-10
-6.72074e-08
-9.85152e-10
-6.61657e-08
-1.04173e-09
-6.50665e-08
-1.09917e-09
-6.39092e-08
-1.15733e-09
-6.26931e-08
-1.21605e-09
-6.1418e-08
-1.27515e-09
-6.00836e-08
-1.33442e-09
-5.86899e-08
-1.39366e-09
-5.72373e-08
-1.45262e-09
-5.57262e-08
-1.51104e-09
-5.41576e-08
-1.56863e-09
-5.25325e-08
-1.62509e-09
-5.08524e-08
-1.6801e-09
-4.91191e-08
-1.7333e-09
-4.73348e-08
-1.78434e-09
-4.5502e-08
-1.83281e-09
-4.36237e-08
-1.87833e-09
-4.17032e-08
-1.92045e-09
-3.97445e-08
-1.95873e-09
-3.77518e-08
-1.99273e-09
-3.57298e-08
-2.02195e-09
-3.36839e-08
-2.04592e-09
-3.16197e-08
-2.06414e-09
-2.95436e-08
-2.07611e-09
-2.74623e-08
-2.08131e-09
-2.53831e-08
-2.07922e-09
-2.33138e-08
-2.06933e-09
-2.12626e-08
-2.05114e-09
-1.92385e-08
-2.02413e-09
-1.72507e-08
-1.9878e-09
-1.5309e-08
-1.94168e-09
-1.34237e-08
-1.88532e-09
-1.16054e-08
-1.81826e-09
-9.86531e-09
-1.74013e-09
-8.21473e-09
-1.65058e-09
-6.66541e-09
-1.54932e-09
-5.22926e-09
-1.43615e-09
-3.91826e-09
-1.311e-09
-2.74433e-09
-1.17393e-09
-1.71908e-09
-1.02526e-09
-8.53464e-10
-8.65615e-10
-1.5732e-10
-6.96144e-10
3.61441e-10
-5.18761e-10
6.9807e-10
-3.36629e-10
8.53057e-10
-1.54989e-10
8.35635e-10
1.74219e-11
6.69611e-10
1.66025e-10
4.03717e-10
2.65894e-10
1.30721e-10
2.72995e-10
1.3072e-10
2.45366e-10
-3.59649e-10
6.33765e-10
-6.33566e-10
9.49608e-10
-5.60358e-10
1.04623e-09
-2.57386e-10
8.27806e-10
1.8551e-10
2.37878e-10
7.06672e-10
-7.51915e-10
1.26482e-09
-2.15059e-09
1.83266e-09
-3.95403e-09
2.39224e-09
-6.14925e-09
2.93182e-09
-8.71738e-09
3.44378e-09
-1.16357e-08
3.92327e-09
-1.48793e-08
4.36738e-09
-1.84215e-08
4.77454e-09
-2.22353e-08
5.14413e-09
-2.62937e-08
5.47619e-09
-3.05697e-08
5.77129e-09
-3.50371e-08
6.03036e-09
-3.96704e-08
6.25456e-09
-4.44451e-08
6.44529e-09
-4.93376e-08
6.60404e-09
-5.43258e-08
6.73244e-09
-5.93885e-08
6.83214e-09
-6.45058e-08
6.90485e-09
-6.9659e-08
6.95228e-09
-7.48307e-08
6.97614e-09
-8.00048e-08
6.97814e-09
-8.51663e-08
6.95994e-09
-9.03014e-08
6.92316e-09
-9.53976e-08
6.8694e-09
-1.00443e-07
6.80019e-09
-1.05428e-07
6.717e-09
-1.10343e-07
6.62126e-09
-1.15179e-07
6.51432e-09
-1.19929e-07
6.39747e-09
-1.24587e-07
6.27193e-09
-1.29147e-07
6.13886e-09
-1.33604e-07
5.99935e-09
-1.37954e-07
5.85441e-09
-1.42193e-07
5.70501e-09
-1.4632e-07
5.55203e-09
-1.50332e-07
5.39629e-09
-1.54226e-07
5.23854e-09
-1.58004e-07
5.07949e-09
-1.61663e-07
4.91977e-09
-1.65203e-07
4.75997e-09
-1.68626e-07
4.60059e-09
-1.71931e-07
4.44211e-09
-1.75119e-07
4.28495e-09
-1.78192e-07
4.12946e-09
-1.81152e-07
3.97598e-09
-1.83999e-07
3.82479e-09
-1.86735e-07
3.6761e-09
-1.89363e-07
3.53012e-09
-1.91885e-07
3.387e-09
-1.94303e-07
3.24686e-09
-1.96619e-07
3.10979e-09
-1.98835e-07
2.97584e-09
-2.00954e-07
2.84505e-09
-2.02978e-07
2.7174e-09
-2.04909e-07
2.59288e-09
-2.06749e-07
2.47142e-09
-2.08502e-07
2.35297e-09
-2.10168e-07
2.23741e-09
-2.1175e-07
2.12464e-09
-2.13251e-07
2.01453e-09
-2.1467e-07
1.90692e-09
-2.16012e-07
1.80165e-09
-2.17276e-07
1.69855e-09
-2.18465e-07
1.59741e-09
-2.1958e-07
1.49805e-09
-2.20621e-07
1.40023e-09
-2.21591e-07
1.30374e-09
-2.22489e-07
1.20834e-09
-2.23317e-07
1.11378e-09
-2.24074e-07
1.01982e-09
-2.24761e-07
9.26186e-10
-2.25379e-07
8.32627e-10
-2.25926e-07
7.38868e-10
-2.26403e-07
6.44635e-10
-2.26809e-07
5.49647e-10
-2.27143e-07
4.53624e-10
-2.27404e-07
3.56286e-10
-2.27592e-07
2.5735e-10
-2.27704e-07
1.56529e-10
-2.27739e-07
5.35387e-11
-2.27696e-07
-5.19006e-11
-2.27571e-07
-1.60064e-10
-2.27364e-07
-2.71226e-10
-2.27071e-07
-3.85654e-10
-2.2669e-07
-5.0361e-10
-2.26219e-07
-6.25345e-10
-2.25654e-07
-7.51098e-10
-2.24992e-07
-8.81097e-10
-2.24229e-07
-1.01556e-09
-2.23363e-07
-1.15468e-09
-2.2239e-07
-1.29864e-09
-2.21306e-07
-1.44761e-09
-2.20108e-07
-1.60171e-09
-2.18791e-07
-1.76107e-09
-2.17351e-07
-1.92576e-09
-2.15785e-07
-2.09585e-09
-2.14089e-07
-2.27134e-09
-2.12258e-07
-2.45223e-09
-2.10289e-07
-2.63846e-09
-2.08178e-07
-2.82992e-09
-2.05921e-07
-3.02649e-09
-2.03515e-07
-3.22795e-09
-2.00956e-07
-3.43407e-09
-1.98241e-07
-3.64455e-09
-1.95367e-07
-3.85902e-09
-1.92332e-07
-4.07706e-09
-1.89133e-07
-4.29819e-09
-1.85768e-07
-4.52186e-09
-1.82237e-07
-4.74743e-09
-1.78538e-07
-4.9742e-09
-1.74671e-07
-5.20142e-09
-1.70636e-07
-5.42822e-09
-1.66435e-07
-5.65367e-09
-1.6207e-07
-5.87678e-09
-1.57542e-07
-6.09644e-09
-1.52855e-07
-6.3115e-09
-1.48015e-07
-6.5207e-09
-1.43025e-07
-6.72272e-09
-1.37894e-07
-6.91615e-09
-1.32627e-07
-7.09952e-09
-1.27234e-07
-7.27127e-09
-1.21725e-07
-7.42979e-09
-1.1611e-07
-7.5734e-09
-1.10402e-07
-7.70037e-09
-1.04615e-07
-7.80891e-09
-9.87641e-08
-7.89719e-09
-9.28649e-08
-7.96335e-09
-8.69355e-08
-8.0055e-09
-8.0995e-08
-8.02174e-09
-7.50641e-08
-8.01016e-09
-6.91646e-08
-7.96887e-09
-6.33197e-08
-7.896e-09
-5.75541e-08
-7.78972e-09
-5.18937e-08
-7.64825e-09
-4.63654e-08
-7.46991e-09
-4.09976e-08
-7.25312e-09
-3.58195e-08
-6.99644e-09
-3.0861e-08
-6.69862e-09
-2.61529e-08
-6.35864e-09
-2.17264e-08
-5.97579e-09
-1.76128e-08
-5.54976e-09
-1.3843e-08
-5.08081e-09
-1.0447e-08
-4.5699e-09
-7.45327e-09
-4.01902e-09
-4.88729e-09
-3.43159e-09
-2.77037e-09
-2.81307e-09
-1.11719e-09
-2.17193e-09
6.73386e-11
-1.52115e-09
7.92831e-10
-8.80478e-10
1.09034e-09
-2.80085e-10
1.02223e-09
2.34133e-10
6.95041e-10
5.93081e-10
2.73022e-10
6.95015e-10
4.0374e-10
2.45725e-10
-6.05371e-10
5.63244e-10
-9.51087e-10
6.97451e-10
-6.94568e-10
4.74407e-10
-3.43468e-11
-2.25542e-10
8.85459e-10
-1.47826e-09
1.95939e-09
-3.3256e-09
3.11216e-09
-5.78412e-09
4.29117e-09
-8.85181e-09
5.45993e-09
-1.25134e-08
6.59336e-09
-1.6744e-08
7.6744e-09
-2.15124e-08
8.69168e-09
-2.67829e-08
9.63793e-09
-3.25172e-08
1.05088e-08
-3.86752e-08
1.13021e-08
-4.52162e-08
1.20173e-08
-5.20998e-08
1.26548e-08
-5.92857e-08
1.32163e-08
-6.6735e-08
1.37038e-08
-7.44096e-08
1.41199e-08
-8.22731e-08
1.44675e-08
-9.02906e-08
1.475e-08
-9.84291e-08
1.49706e-08
-1.06657e-07
1.51329e-08
-1.14945e-07
1.52404e-08
-1.23266e-07
1.52968e-08
-1.31593e-07
1.53056e-08
-1.39904e-07
1.52703e-08
-1.48175e-07
1.51944e-08
-1.56387e-07
1.50813e-08
-1.64521e-07
1.49343e-08
-1.7256e-07
1.47565e-08
-1.8049e-07
1.45511e-08
-1.88297e-07
1.43209e-08
-1.95968e-07
1.40688e-08
-2.03494e-07
1.37973e-08
-2.10864e-07
1.35091e-08
-2.18071e-07
1.32065e-08
-2.25108e-07
1.28916e-08
-2.3197e-07
1.25667e-08
-2.38651e-07
1.22335e-08
-2.45149e-07
1.18941e-08
-2.5146e-07
1.15499e-08
-2.57583e-07
1.12025e-08
-2.63517e-07
1.08534e-08
-2.69261e-07
1.05038e-08
-2.74815e-07
1.01549e-08
-2.80181e-07
9.80761e-09
-2.85359e-07
9.46298e-09
-2.90351e-07
9.12179e-09
-2.9516e-07
8.78474e-09
-2.99788e-07
8.45247e-09
-3.04237e-07
8.12549e-09
-3.08511e-07
7.80423e-09
-3.12613e-07
7.48906e-09
-3.16546e-07
7.18024e-09
-3.20315e-07
6.87798e-09
-3.23921e-07
6.5824e-09
-3.2737e-07
6.29359e-09
-3.30664e-07
6.01153e-09
-3.33807e-07
5.7362e-09
-3.36803e-07
5.46746e-09
-3.39655e-07
5.20518e-09
-3.42367e-07
4.94916e-09
-3.44942e-07
4.69916e-09
-3.47382e-07
4.45488e-09
-3.49691e-07
4.21601e-09
-3.51872e-07
3.9822e-09
-3.53926e-07
3.75305e-09
-3.55857e-07
3.52817e-09
-3.57666e-07
3.30709e-09
-3.59355e-07
3.08936e-09
-3.60926e-07
2.87448e-09
-3.6238e-07
2.66195e-09
-3.63717e-07
2.45123e-09
-3.64939e-07
2.24178e-09
-3.66046e-07
2.03303e-09
-3.67038e-07
1.82441e-09
-3.67914e-07
1.61534e-09
-3.68675e-07
1.40521e-09
-3.69318e-07
1.19342e-09
-3.69844e-07
9.79363e-10
-3.7025e-07
7.62423e-10
-3.70535e-07
5.41986e-10
-3.70696e-07
3.17436e-10
-3.7073e-07
8.81589e-11
-3.70636e-07
-1.46453e-10
-3.70409e-07
-3.86999e-10
-3.70046e-07
-6.34072e-10
-3.69544e-07
-8.88246e-10
-3.68897e-07
-1.15008e-09
-3.68102e-07
-1.42012e-09
-3.67155e-07
-1.69888e-09
-3.66049e-07
-1.98684e-09
-3.6478e-07
-2.28448e-09
-3.63342e-07
-2.59221e-09
-3.61731e-07
-2.9104e-09
-3.59939e-07
-3.23941e-09
-3.57961e-07
-3.57952e-09
-3.55791e-07
-3.93095e-09
-3.53423e-07
-4.29389e-09
-3.5085e-07
-4.66842e-09
-3.48067e-07
-5.05458e-09
-3.45067e-07
-5.45231e-09
-3.41844e-07
-5.86148e-09
-3.38392e-07
-6.28186e-09
-3.34705e-07
-6.71312e-09
-3.30779e-07
-7.1548e-09
-3.26606e-07
-7.60637e-09
-3.22184e-07
-8.06715e-09
-3.17506e-07
-8.53633e-09
-3.1257e-07
-9.01299e-09
-3.07373e-07
-9.49603e-09
-3.0191e-07
-9.98425e-09
-2.96181e-07
-1.04763e-08
-2.90185e-07
-1.09705e-08
-2.83921e-07
-1.14653e-08
-2.77391e-07
-1.19589e-08
-2.70595e-07
-1.24491e-08
-2.63538e-07
-1.29338e-08
-2.56224e-07
-1.34105e-08
-2.48659e-07
-1.38769e-08
-2.40849e-07
-1.433e-08
-2.32805e-07
-1.47672e-08
-2.24536e-07
-1.51852e-08
-2.16054e-07
-1.5581e-08
-2.07375e-07
-1.59511e-08
-1.98512e-07
-1.62921e-08
-1.89485e-07
-1.66004e-08
-1.80314e-07
-1.68722e-08
-1.71019e-07
-1.71037e-08
-1.61625e-07
-1.72909e-08
-1.52158e-07
-1.743e-08
-1.42647e-07
-1.75168e-08
-1.33122e-07
-1.75473e-08
-1.23614e-07
-1.75176e-08
-1.1416e-07
-1.74235e-08
-1.04794e-07
-1.72612e-08
-9.55571e-08
-1.70269e-08
-8.64884e-08
-1.67169e-08
-7.76305e-08
-1.63279e-08
-6.9027e-08
-1.58566e-08
-6.07231e-08
-1.53003e-08
-5.27651e-08
-1.46567e-08
-4.51997e-08
-1.3924e-08
-3.80743e-08
-1.31012e-08
-3.14356e-08
-1.21884e-08
-2.53296e-08
-1.11869e-08
-1.97998e-08
-1.00996e-08
-1.48869e-08
-8.93196e-09
-1.06261e-08
-7.69237e-09
-7.04544e-09
-6.39373e-09
-4.16228e-09
-5.05509e-09
-1.97917e-09
-3.70425e-09
-4.78082e-10
-2.38156e-09
3.87179e-10
-1.14534e-09
7.00725e-10
-7.9412e-11
5.95782e-10
6.98022e-10
2.66788e-10
1.02401e-09
6.70528e-10
1.63694e-10
-7.69065e-10
2.6459e-10
-1.05198e-09
4.40238e-11
-4.74004e-10
-6.78316e-10
6.87996e-10
-2.02916e-09
2.2363e-09
-4.09169e-09
4.02192e-09
-6.91401e-09
5.93448e-09
-1.05166e-08
7.89378e-09
-1.48988e-08
9.84212e-09
-2.00438e-08
1.17383e-08
-2.59228e-08
1.35534e-08
-3.24985e-08
1.52674e-08
-3.97273e-08
1.68668e-08
-4.75618e-08
1.83433e-08
-5.59517e-08
1.9692e-08
-6.48457e-08
2.09112e-08
-7.41917e-08
2.20009e-08
-8.39384e-08
2.2963e-08
-9.40349e-08
2.38003e-08
-1.04432e-07
2.45169e-08
-1.15082e-07
2.51174e-08
-1.25939e-07
2.56069e-08
-1.36959e-07
2.59908e-08
-1.48101e-07
2.62749e-08
-1.59326e-07
2.64652e-08
-1.70596e-07
2.65675e-08
-1.81879e-07
2.65878e-08
-1.9314e-07
2.65321e-08
-2.04352e-07
2.64063e-08
-2.15487e-07
2.62161e-08
-2.2652e-07
2.5967e-08
-2.37428e-07
2.56645e-08
-2.48191e-07
2.53138e-08
-2.5879e-07
2.49199e-08
-2.69208e-07
2.44877e-08
-2.79433e-07
2.40216e-08
-2.8945e-07
2.3526e-08
-2.99248e-07
2.3005e-08
-3.08819e-07
2.24624e-08
-3.18154e-07
2.19019e-08
-3.27247e-07
2.13267e-08
-3.36093e-07
2.07401e-08
-3.44688e-07
2.01449e-08
-3.53029e-07
1.95438e-08
-3.61115e-07
1.89391e-08
-3.68945e-07
1.83332e-08
-3.76518e-07
1.77281e-08
-3.83836e-07
1.71255e-08
-3.909e-07
1.65271e-08
-3.97712e-07
1.59343e-08
-4.04276e-07
1.53483e-08
-4.10594e-07
1.47703e-08
-4.16669e-07
1.42012e-08
-4.22507e-07
1.36417e-08
-4.2811e-07
1.30925e-08
-4.33484e-07
1.2554e-08
-4.38633e-07
1.20267e-08
-4.43561e-07
1.15108e-08
-4.48274e-07
1.10063e-08
-4.52776e-07
1.05134e-08
-4.57072e-07
1.0032e-08
-4.61166e-07
9.56184e-09
-4.65064e-07
9.10272e-09
-4.68769e-07
8.6543e-09
-4.72286e-07
8.21617e-09
-4.75619e-07
7.78785e-09
-4.78771e-07
7.3688e-09
-4.81748e-07
6.95841e-09
-4.84551e-07
6.55601e-09
-4.87183e-07
6.16091e-09
-4.89649e-07
5.77233e-09
-4.91949e-07
5.38948e-09
-4.94086e-07
5.01151e-09
-4.96061e-07
4.63754e-09
-4.97877e-07
4.26667e-09
-4.99533e-07
3.89795e-09
-5.0103e-07
3.5304e-09
-5.02369e-07
3.16305e-09
-5.03549e-07
2.79488e-09
-5.04568e-07
2.42487e-09
-5.05427e-07
2.05197e-09
-5.06122e-07
1.67514e-09
-5.06653e-07
1.29331e-09
-5.07017e-07
9.05436e-10
-5.0721e-07
5.10454e-10
-5.07229e-07
1.07314e-10
-5.0707e-07
-3.05029e-10
-5.0673e-07
-7.27606e-10
-5.06202e-07
-1.16143e-09
-5.05483e-07
-1.60747e-09
-5.04567e-07
-2.06671e-09
-5.03447e-07
-2.54005e-09
-5.02117e-07
-3.02838e-09
-5.00571e-07
-3.53254e-09
-4.98803e-07
-4.05329e-09
-4.96804e-07
-4.59135e-09
-4.94567e-07
-5.14738e-09
-4.92084e-07
-5.72192e-09
-4.89348e-07
-6.31546e-09
-4.86351e-07
-6.92838e-09
-4.83084e-07
-7.56095e-09
-4.79539e-07
-8.21332e-09
-4.75708e-07
-8.88552e-09
-4.71583e-07
-9.57743e-09
-4.67155e-07
-1.02888e-08
-4.62418e-07
-1.10192e-08
-4.57363e-07
-1.1768e-08
-4.51983e-07
-1.25345e-08
-4.46272e-07
-1.33177e-08
-4.40223e-07
-1.41163e-08
-4.3383e-07
-1.4929e-08
-4.27089e-07
-1.57541e-08
-4.19995e-07
-1.65898e-08
-4.12546e-07
-1.7434e-08
-4.04738e-07
-1.82841e-08
-3.96571e-07
-1.91376e-08
-3.88044e-07
-1.99916e-08
-3.79161e-07
-2.08427e-08
-3.69922e-07
-2.16876e-08
-3.60333e-07
-2.25223e-08
-3.50401e-07
-2.33429e-08
-3.40133e-07
-2.41448e-08
-3.2954e-07
-2.49235e-08
-3.18633e-07
-2.5674e-08
-3.07427e-07
-2.63911e-08
-2.95939e-07
-2.70693e-08
-2.84187e-07
-2.77028e-08
-2.72193e-07
-2.82857e-08
-2.59982e-07
-2.88117e-08
-2.47579e-07
-2.92746e-08
-2.35015e-07
-2.96678e-08
-2.22322e-07
-2.99846e-08
-2.09533e-07
-3.02183e-08
-1.96688e-07
-3.03621e-08
-1.83826e-07
-3.04092e-08
-1.70991e-07
-3.03527e-08
-1.58228e-07
-3.0186e-08
-1.45587e-07
-2.99027e-08
-1.33118e-07
-2.94963e-08
-1.20873e-07
-2.8961e-08
-1.0891e-07
-2.82913e-08
-9.72846e-08
-2.74821e-08
-8.60557e-08
-2.65291e-08
-7.52833e-08
-2.5429e-08
-6.50278e-08
-2.41795e-08
-5.53495e-08
-2.27795e-08
-4.63079e-08
-2.12301e-08
-3.79604e-08
-1.95344e-08
-3.03613e-08
-1.76986e-08
-2.35602e-08
-1.57331e-08
-1.75992e-08
-1.36534e-08
-1.25108e-08
-1.14821e-08
-8.31403e-09
-9.25184e-09
-5.00998e-09
-7.0083e-09
-2.57604e-09
-4.8155e-09
-9.58945e-10
-2.76244e-09
-6.63168e-11
-9.72037e-10
2.42733e-10
3.88973e-10
1.68907e-10
1.09783e-09
8.39436e-10
3.77083e-11
-8.06774e-10
-1.74243e-10
-8.40032e-10
-8.70591e-10
2.22344e-10
-2.22136e-09
2.03876e-09
-4.34829e-09
4.36323e-09
-7.33291e-09
7.00654e-09
-1.12231e-08
9.82472e-09
-1.60395e-08
1.27102e-08
-2.17806e-08
1.55832e-08
-2.84275e-08
1.83853e-08
-3.59481e-08
2.1074e-08
-4.43002e-08
2.36194e-08
-5.34341e-08
2.60007e-08
-6.32949e-08
2.82041e-08
-7.38245e-08
3.02216e-08
-8.49625e-08
3.20492e-08
-9.66477e-08
3.36862e-08
-1.08819e-07
3.51343e-08
-1.21416e-07
3.63974e-08
-1.3438e-07
3.74805e-08
-1.47653e-07
3.83902e-08
-1.61179e-07
3.91335e-08
-1.74907e-07
3.97183e-08
-1.88785e-07
4.0153e-08
-2.02766e-07
4.0446e-08
-2.16804e-07
4.06061e-08
-2.30859e-07
4.06422e-08
-2.4489e-07
4.0563e-08
-2.58861e-07
4.03773e-08
-2.72738e-07
4.00935e-08
-2.86491e-07
3.97202e-08
-3.00092e-07
3.92652e-08
-3.13515e-07
3.87367e-08
-3.26737e-07
3.81419e-08
-3.39737e-07
3.74883e-08
-3.52499e-07
3.67827e-08
-3.65004e-07
3.60317e-08
-3.77241e-07
3.52414e-08
-3.89196e-07
3.44176e-08
-4.0086e-07
3.3566e-08
-4.12225e-07
3.26915e-08
-4.23284e-07
3.17989e-08
-4.34031e-07
3.08927e-08
-4.44464e-07
2.99769e-08
-4.5458e-07
2.90552e-08
-4.64378e-07
2.8131e-08
-4.73858e-07
2.72075e-08
-4.8302e-07
2.62874e-08
-4.91866e-07
2.53732e-08
-5.00398e-07
2.4467e-08
-5.08621e-07
2.35709e-08
-5.16537e-07
2.26865e-08
-5.24151e-07
2.18152e-08
-5.31468e-07
2.09583e-08
-5.38492e-07
2.01166e-08
-5.45229e-07
1.92911e-08
-5.51684e-07
1.84822e-08
-5.57864e-07
1.76903e-08
-5.63773e-07
1.69158e-08
-5.69419e-07
1.61585e-08
-5.74805e-07
1.54185e-08
-5.79939e-07
1.46955e-08
-5.84825e-07
1.39892e-08
-5.8947e-07
1.32989e-08
-5.93878e-07
1.26241e-08
-5.98054e-07
1.19642e-08
-6.02004e-07
1.13182e-08
-6.05731e-07
1.06853e-08
-6.09239e-07
1.00645e-08
-6.12533e-07
9.45465e-09
-6.15615e-07
8.85466e-09
-6.18489e-07
8.26331e-09
-6.21157e-07
7.67931e-09
-6.23621e-07
7.10133e-09
-6.25882e-07
6.52801e-09
-6.27942e-07
5.9579e-09
-6.29801e-07
5.38955e-09
-6.31459e-07
4.82145e-09
-6.32917e-07
4.25208e-09
-6.34172e-07
3.67987e-09
-6.35223e-07
3.10325e-09
-6.36068e-07
2.52064e-09
-6.36706e-07
1.93043e-09
-6.37131e-07
1.33103e-09
-6.37341e-07
7.20825e-10
-6.37332e-07
9.82366e-11
-6.37099e-07
-5.38315e-10
-6.36636e-07
-1.19038e-09
-6.35938e-07
-1.85949e-09
-6.34999e-07
-2.54712e-09
-6.33811e-07
-3.25472e-09
-6.32367e-07
-3.98367e-09
-6.3066e-07
-4.73529e-09
-6.28682e-07
-5.51083e-09
-6.26424e-07
-6.31146e-09
-6.23877e-07
-7.13823e-09
-6.21032e-07
-7.9921e-09
-6.1788e-07
-8.87391e-09
-6.14411e-07
-9.78435e-09
-6.10616e-07
-1.0724e-08
-6.06483e-07
-1.16932e-08
-6.02005e-07
-1.26921e-08
-5.97169e-07
-1.37209e-08
-5.91967e-07
-1.47792e-08
-5.86389e-07
-1.58667e-08
-5.80426e-07
-1.69827e-08
-5.74068e-07
-1.81262e-08
-5.67306e-07
-1.9296e-08
-5.60133e-07
-2.04907e-08
-5.52541e-07
-2.17083e-08
-5.44524e-07
-2.29467e-08
-5.36074e-07
-2.42034e-08
-5.27189e-07
-2.54755e-08
-5.17863e-07
-2.67598e-08
-5.08095e-07
-2.80525e-08
-4.97882e-07
-2.93497e-08
-4.87227e-07
-3.06468e-08
-4.76131e-07
-3.19389e-08
-4.64598e-07
-3.32208e-08
-4.52634e-07
-3.44866e-08
-4.40246e-07
-3.57302e-08
-4.27446e-07
-3.69448e-08
-4.14246e-07
-3.81235e-08
-4.00662e-07
-3.92587e-08
-3.8671e-07
-4.03426e-08
-3.72413e-07
-4.13668e-08
-3.57793e-07
-4.23228e-08
-3.42877e-07
-4.32014e-08
-3.27695e-07
-4.39935e-08
-3.1228e-07
-4.46895e-08
-2.96668e-07
-4.52796e-08
-2.80899e-07
-4.57537e-08
-2.65016e-07
-4.6102e-08
-2.49064e-07
-4.63141e-08
-2.33093e-07
-4.63799e-08
-2.17156e-07
-4.62896e-08
-2.01309e-07
-4.60331e-08
-1.85611e-07
-4.5601e-08
-1.70123e-07
-4.49841e-08
-1.5491e-07
-4.41739e-08
-1.40039e-07
-4.31624e-08
-1.25578e-07
-4.19427e-08
-1.11599e-07
-4.05089e-08
-9.81709e-08
-3.88567e-08
-8.53671e-08
-3.69833e-08
-7.32584e-08
-3.48883e-08
-6.19144e-08
-3.25741e-08
-5.1402e-08
-3.00467e-08
-4.17839e-08
-2.73167e-08
-3.31167e-08
-2.44004e-08
-2.54479e-08
-2.13221e-08
-1.88141e-08
-1.81159e-08
-1.32364e-08
-1.48295e-08
-8.71663e-09
-1.15281e-08
-5.23197e-09
-8.30016e-09
-2.72923e-09
-5.26517e-09
-1.11796e-09
-2.58331e-09
-2.63189e-10
-4.65791e-10
2.32103e-11
8.11431e-10
8.62647e-10
-1.1061e-10
-6.96165e-10
-6.9396e-10
-2.56681e-10
-1.94583e-09
1.47421e-09
-4.01399e-09
4.10693e-09
-7.00622e-09
7.35546e-09
-1.09953e-08
1.09956e-08
-1.60236e-08
1.4853e-08
-2.21078e-08
1.87944e-08
-2.92434e-08
2.27187e-08
-3.74081e-08
2.655e-08
-4.65661e-08
3.0232e-08
-5.66705e-08
3.37238e-08
-6.76663e-08
3.69965e-08
-7.94927e-08
4.00305e-08
-9.20845e-08
4.28134e-08
-1.05374e-07
4.53389e-08
-1.19293e-07
4.76047e-08
-1.33771e-07
4.96125e-08
-1.4874e-07
5.13665e-08
-1.64133e-07
5.28732e-08
-1.79883e-07
5.41405e-08
-1.95928e-07
5.5178e-08
-2.12205e-07
5.5996e-08
-2.28658e-07
5.66056e-08
-2.4523e-07
5.70182e-08
-2.6187e-07
5.72458e-08
-2.78528e-07
5.73003e-08
-2.95159e-07
5.71937e-08
-3.11719e-07
5.69381e-08
-3.28171e-07
5.65451e-08
-3.44477e-07
5.60263e-08
-3.60605e-07
5.5393e-08
-3.76524e-07
5.4656e-08
-3.92208e-07
5.38257e-08
-4.07632e-07
5.29124e-08
-4.22775e-07
5.19255e-08
-4.37617e-07
5.08742e-08
-4.52143e-07
4.97671e-08
-4.66338e-07
4.86125e-08
-4.8019e-07
4.7418e-08
-4.93689e-07
4.61908e-08
-5.06828e-07
4.49375e-08
-5.196e-07
4.36644e-08
-5.32e-07
4.23771e-08
-5.44026e-07
4.1081e-08
-5.55676e-07
3.97807e-08
-5.66949e-07
3.84808e-08
-5.77846e-07
3.7185e-08
-5.8837e-07
3.58969e-08
-5.98523e-07
3.46196e-08
-6.08308e-07
3.33559e-08
-6.17729e-07
3.21082e-08
-6.26792e-07
3.08784e-08
-6.35503e-07
2.96683e-08
-6.43865e-07
2.84794e-08
-6.51887e-07
2.73126e-08
-6.59574e-07
2.61689e-08
-6.66932e-07
2.50488e-08
-6.73969e-07
2.39527e-08
-6.80691e-07
2.28806e-08
-6.87105e-07
2.18324e-08
-6.93217e-07
2.08079e-08
-6.99035e-07
1.98065e-08
-7.04563e-07
1.88275e-08
-7.09809e-07
1.78701e-08
-7.14778e-07
1.69333e-08
-7.19476e-07
1.6016e-08
-7.23907e-07
1.51168e-08
-7.28077e-07
1.42345e-08
-7.3199e-07
1.33675e-08
-7.3565e-07
1.25142e-08
-7.39059e-07
1.1673e-08
-7.42222e-07
1.08419e-08
-7.4514e-07
1.00193e-08
-7.47815e-07
9.20308e-09
-7.50249e-07
8.39135e-09
-7.52441e-07
7.58202e-09
-7.54393e-07
6.77301e-09
-7.56103e-07
5.96217e-09
-7.5757e-07
5.14733e-09
-7.58793e-07
4.32629e-09
-7.59769e-07
3.49684e-09
-7.60496e-07
2.65674e-09
-7.60968e-07
1.80376e-09
-7.61183e-07
9.35657e-10
-7.61135e-07
5.02231e-11
-7.60819e-07
-8.54738e-10
-7.60228e-07
-1.78139e-09
-7.59355e-07
-2.73185e-09
-7.58194e-07
-3.70818e-09
-7.56737e-07
-4.7124e-09
-7.54974e-07
-5.74641e-09
-7.52897e-07
-6.81205e-09
-7.50497e-07
-7.91104e-09
-7.47764e-07
-9.04498e-09
-7.44686e-07
-1.02154e-08
-7.41255e-07
-1.14235e-08
-7.37459e-07
-1.26704e-08
-7.33286e-07
-1.39572e-08
-7.28725e-07
-1.52846e-08
-7.23765e-07
-1.6653e-08
-7.18395e-07
-1.80627e-08
-7.12602e-07
-1.95137e-08
-7.06375e-07
-2.10057e-08
-6.99704e-07
-2.25381e-08
-6.92577e-07
-2.41098e-08
-6.84983e-07
-2.57196e-08
-6.76914e-07
-2.73656e-08
-6.68359e-07
-2.90457e-08
-6.5931e-07
-3.07573e-08
-6.49759e-07
-3.24973e-08
-6.39701e-07
-3.42622e-08
-6.29128e-07
-3.6048e-08
-6.18038e-07
-3.78499e-08
-6.06427e-07
-3.9663e-08
-5.94296e-07
-4.14814e-08
-5.81643e-07
-4.3299e-08
-5.68474e-07
-4.51088e-08
-5.54791e-07
-4.69033e-08
-5.40603e-07
-4.86746e-08
-5.25919e-07
-5.04138e-08
-5.10752e-07
-5.21118e-08
-4.95117e-07
-5.37587e-08
-4.79032e-07
-5.53441e-08
-4.62518e-07
-5.68569e-08
-4.45599e-07
-5.82856e-08
-4.28303e-07
-5.96182e-08
-4.10663e-07
-6.08422e-08
-3.92711e-07
-6.19448e-08
-3.74488e-07
-6.29127e-08
-3.56035e-07
-6.37323e-08
-3.37399e-07
-6.439e-08
-3.18629e-07
-6.48717e-08
-2.9978e-07
-6.51636e-08
-2.80908e-07
-6.52518e-08
-2.62075e-07
-6.51225e-08
-2.43346e-07
-6.47625e-08
-2.24788e-07
-6.41587e-08
-2.06473e-07
-6.32989e-08
-1.88476e-07
-6.21715e-08
-1.70872e-07
-6.07663e-08
-1.5374e-07
-5.90742e-08
-1.37161e-07
-5.70878e-08
-1.21216e-07
-5.48018e-08
-1.05986e-07
-5.22135e-08
-9.15509e-08
-4.93233e-08
-7.79894e-08
-4.61356e-08
-6.53761e-08
-4.266e-08
-5.37808e-08
-3.8912e-08
-4.32659e-08
-3.49153e-08
-3.38845e-08
-3.07035e-08
-2.5677e-08
-2.63234e-08
-1.86683e-08
-2.18382e-08
-1.28636e-08
-1.73328e-08
-8.24428e-09
-1.29195e-08
-4.7631e-09
-8.74635e-09
-2.3395e-09
-5.00691e-09
-8.54521e-10
-1.95076e-09
-1.45842e-10
1.02756e-10
7.16807e-10
-2.68816e-10
-4.27347e-10
-1.25579e-09
7.30288e-10
-3.11156e-09
3.32999e-09
-5.95439e-09
6.94976e-09
-9.8717e-09
1.12728e-08
-1.49221e-08
1.6046e-08
-2.1138e-08
2.1069e-08
-2.8529e-08
2.61854e-08
-3.70847e-08
3.12744e-08
-4.6778e-08
3.62434e-08
-5.75684e-08
4.10224e-08
-6.94042e-08
4.55596e-08
-8.22253e-08
4.98176e-08
-9.59652e-08
5.37704e-08
-1.10553e-07
5.74012e-08
-1.25914e-07
6.07004e-08
-1.41974e-07
6.36645e-08
-1.58656e-07
6.62943e-08
-1.75884e-07
6.85945e-08
-1.93583e-07
7.05726e-08
-2.11681e-07
7.22385e-08
-2.30107e-07
7.36038e-08
-2.48793e-07
7.46816e-08
-2.67673e-07
7.54857e-08
-2.86686e-07
7.60311e-08
-3.05772e-07
7.63327e-08
-3.24878e-07
7.64062e-08
-3.43952e-07
7.6267e-08
-3.62944e-07
7.59307e-08
-3.81812e-07
7.54126e-08
-4.00513e-07
7.47278e-08
-4.19011e-07
7.38909e-08
-4.37271e-07
7.29162e-08
-4.55263e-07
7.18176e-08
-4.72959e-07
7.06081e-08
-4.90334e-07
6.93006e-08
-5.07367e-07
6.7907e-08
-5.24039e-07
6.64387e-08
-5.40333e-07
6.49066e-08
-5.56235e-07
6.33209e-08
-5.71736e-07
6.16909e-08
-5.86824e-07
6.00257e-08
-6.01493e-07
5.83334e-08
-6.15737e-07
5.66215e-08
-6.29553e-07
5.48972e-08
-6.42939e-07
5.31667e-08
-6.55895e-07
5.14359e-08
-6.6842e-07
4.97101e-08
-6.80517e-07
4.79938e-08
-6.92188e-07
4.62913e-08
-7.03438e-07
4.46062e-08
-7.14272e-07
4.29418e-08
-7.24694e-07
4.13007e-08
-7.34711e-07
3.96853e-08
-7.44329e-07
3.80974e-08
-7.53555e-07
3.65387e-08
-7.62397e-07
3.50101e-08
-7.7086e-07
3.35125e-08
-7.78954e-07
3.20464e-08
-7.86685e-07
3.06118e-08
-7.94062e-07
2.92088e-08
-8.01091e-07
2.78368e-08
-8.07779e-07
2.64953e-08
-8.14135e-07
2.51833e-08
-8.20165e-07
2.38997e-08
-8.25875e-07
2.26433e-08
-8.31271e-07
2.14126e-08
-8.3636e-07
2.02059e-08
-8.41147e-07
1.90213e-08
-8.45637e-07
1.78569e-08
-8.49833e-07
1.67106e-08
-8.5374e-07
1.55801e-08
-8.57361e-07
1.44631e-08
-8.60699e-07
1.33572e-08
-8.63756e-07
1.22597e-08
-8.66533e-07
1.11681e-08
-8.6903e-07
1.00797e-08
-8.71249e-07
8.99162e-09
-8.73188e-07
7.9011e-09
-8.74846e-07
6.80525e-09
-8.76221e-07
5.70118e-09
-8.7731e-07
4.58595e-09
-8.7811e-07
3.45661e-09
-8.78616e-07
2.31022e-09
-8.78824e-07
1.14383e-09
-8.78729e-07
-4.54814e-11
-8.78323e-07
-1.26061e-09
-8.776e-07
-2.5044e-09
-8.76552e-07
-3.77965e-09
-8.75171e-07
-5.08907e-09
-8.73448e-07
-6.43529e-09
-8.71374e-07
-7.82083e-09
-8.68938e-07
-9.24809e-09
-8.66129e-07
-1.07193e-08
-8.62938e-07
-1.22367e-08
-8.59351e-07
-1.3802e-08
-8.55358e-07
-1.5417e-08
-8.50945e-07
-1.70831e-08
-8.461e-07
-1.88017e-08
-8.40811e-07
-2.05736e-08
-8.35065e-07
-2.23994e-08
-8.28848e-07
-2.42795e-08
-8.22148e-07
-2.62139e-08
-8.14952e-07
-2.82019e-08
-8.07247e-07
-3.02428e-08
-7.99022e-07
-3.23352e-08
-7.90264e-07
-3.44773e-08
-7.80963e-07
-3.66668e-08
-7.71108e-07
-3.89007e-08
-7.60689e-07
-4.11755e-08
-7.497e-07
-4.34872e-08
-7.38131e-07
-4.5831e-08
-7.25977e-07
-4.82016e-08
-7.13234e-07
-5.05927e-08
-6.999e-07
-5.29977e-08
-6.85972e-07
-5.54089e-08
-6.71453e-07
-5.7818e-08
-6.56346e-07
-6.02159e-08
-6.40657e-07
-6.25927e-08
-6.24394e-07
-6.49378e-08
-6.07568e-07
-6.72397e-08
-5.90194e-07
-6.94862e-08
-5.72288e-07
-7.16642e-08
-5.53872e-07
-7.376e-08
-5.3497e-07
-7.57592e-08
-5.15609e-07
-7.76465e-08
-4.95821e-07
-7.94062e-08
-4.75641e-07
-8.10218e-08
-4.5511e-07
-8.24765e-08
-4.34269e-07
-8.3753e-08
-4.13168e-07
-8.48334e-08
-3.91858e-07
-8.56998e-08
-3.70396e-07
-8.63341e-08
-3.48841e-07
-8.67182e-08
-3.27259e-07
-8.68341e-08
-3.05718e-07
-8.66639e-08
-2.8429e-07
-8.61904e-08
-2.63051e-07
-8.53972e-08
-2.42082e-07
-8.42683e-08
-2.21464e-07
-8.27895e-08
-2.01283e-07
-8.09475e-08
-1.81626e-07
-7.87314e-08
-1.62581e-07
-7.61322e-08
-1.44239e-07
-7.31439e-08
-1.26689e-07
-6.9764e-08
-1.10018e-07
-6.59941e-08
-9.43123e-08
-6.18411e-08
-7.96539e-08
-5.73184e-08
-6.61186e-08
-5.24473e-08
-5.37747e-08
-4.72592e-08
-4.26806e-08
-4.17976e-08
-3.28821e-08
-3.61219e-08
-2.44093e-08
-3.03111e-08
-1.72735e-08
-2.44685e-08
-1.14642e-08
-1.87288e-08
-6.94514e-09
-1.32654e-08
-3.65153e-09
-8.30051e-09
-1.48748e-09
-4.11482e-09
-3.24274e-10
-1.06044e-09
3.92534e-10
-4.29655e-10
2.3105e-12
-1.83487e-09
2.1355e-09
-4.32019e-09
5.81531e-09
-7.9707e-09
1.06003e-08
-1.28494e-08
1.61515e-08
-1.89968e-08
2.21934e-08
-2.64321e-08
2.85042e-08
-3.51545e-08
3.49078e-08
-4.51457e-08
4.12656e-08
-5.63721e-08
4.74697e-08
-6.87871e-08
5.34375e-08
-8.23339e-08
5.91063e-08
-9.69468e-08
6.44305e-08
-1.12554e-07
6.93776e-08
-1.29079e-07
7.39261e-08
-1.46442e-07
7.80634e-08
-1.64561e-07
8.17838e-08
-1.83355e-07
8.50877e-08
-2.0274e-07
8.79799e-08
-2.22637e-07
9.04691e-08
-2.42965e-07
9.25668e-08
-2.63648e-07
9.42869e-08
-2.84612e-07
9.56453e-08
-3.05785e-07
9.66589e-08
-3.271e-07
9.73458e-08
-3.48492e-07
9.77249e-08
-3.69901e-07
9.78153e-08
-3.9127e-07
9.76362e-08
-4.12547e-07
9.72072e-08
-4.33682e-07
9.65474e-08
-4.54629e-07
9.56756e-08
-4.75349e-07
9.46103e-08
-4.95802e-07
9.33696e-08
-5.15955e-07
9.19707e-08
-5.35777e-07
9.04303e-08
-5.55241e-07
8.87645e-08
-5.74323e-07
8.69886e-08
-5.93001e-07
8.5117e-08
-6.11258e-07
8.31634e-08
-6.29078e-07
8.11407e-08
-6.46448e-07
7.9061e-08
-6.63358e-07
7.69356e-08
-6.79799e-07
7.47749e-08
-6.95767e-07
7.25887e-08
-7.11255e-07
7.03858e-08
-7.26263e-07
6.81744e-08