/*--------------------------------*- C++ -*----------------------------------*\
  =========                 |
  \\      /  F ield         | OpenFOAM: The Open Source CFD Toolbox
   \\    /   O peration     | Website:  https://openfoam.org
    \\  /    A nd           | Version:  7
     \\/     M anipulation  |
\*---------------------------------------------------------------------------*/
FoamFile
{
    version     2.0;
    format      ascii;
    class       volVectorField;
    location    "0.1375";
    object      U;
}
// * * * * * * * * * * * * * * * * * * * * * * * * * * * * * * * * * * * * * //

dimensions      [0 1 -1 0 0 0 0];

internalField   nonuniform List<vector> 
12800
(
(8.32512e-06 -8.32037e-06 0)
(3.70815e-05 -1.85302e-05 0)
(7.85182e-05 -1.9706e-05 0)
(0.00011322 -1.53489e-05 0)
(0.000129954 -8.30754e-06 0)
(0.000123835 -1.36182e-07 0)
(9.27186e-05 8.3449e-06 0)
(3.59915e-05 1.66955e-05 0)
(-4.59896e-05 2.46833e-05 0)
(-0.000152277 3.21884e-05 0)
(-0.000281572 3.91514e-05 0)
(-0.000432367 4.55475e-05 0)
(-0.000603043 5.13712e-05 0)
(-0.000791921 5.66291e-05 0)
(-0.000997311 6.13351e-05 0)
(-0.00121754 6.55078e-05 0)
(-0.00145096 6.9169e-05 0)
(-0.00169598 7.23423e-05 0)
(-0.00195106 7.50524e-05 0)
(-0.00221474 7.73247e-05 0)
(-0.00248563 7.91847e-05 0)
(-0.00276238 8.06579e-05 0)
(-0.00304376 8.17697e-05 0)
(-0.00332858 8.25446e-05 0)
(-0.00361576 8.30075e-05 0)
(-0.00390427 8.31818e-05 0)
(-0.00419316 8.30907e-05 0)
(-0.00448155 8.27563e-05 0)
(-0.00476865 8.22001e-05 0)
(-0.00505372 8.14427e-05 0)
(-0.00533608 8.05039e-05 0)
(-0.00561515 7.94025e-05 0)
(-0.00589036 7.81561e-05 0)
(-0.00616125 7.67818e-05 0)
(-0.00642737 7.52954e-05 0)
(-0.00668835 7.37121e-05 0)
(-0.00694387 7.20461e-05 0)
(-0.00719365 7.03105e-05 0)
(-0.00743745 6.85175e-05 0)
(-0.00767507 6.66786e-05 0)
(-0.00790636 6.48043e-05 0)
(-0.0081312 6.29045e-05 0)
(-0.00834949 6.09878e-05 0)
(-0.00856119 5.90625e-05 0)
(-0.00876625 5.71361e-05 0)
(-0.00896467 5.52152e-05 0)
(-0.00915646 5.33056e-05 0)
(-0.00934166 5.14128e-05 0)
(-0.00952033 4.95414e-05 0)
(-0.00969253 4.76957e-05 0)
(-0.00985835 4.58792e-05 0)
(-0.0100179 4.40948e-05 0)
(-0.0101712 4.2345e-05 0)
(-0.0103185 4.06319e-05 0)
(-0.0104598 3.89568e-05 0)
(-0.0105954 3.73213e-05 0)
(-0.0107252 3.57261e-05 0)
(-0.0108494 3.41716e-05 0)
(-0.0109683 3.26577e-05 0)
(-0.0110818 3.11842e-05 0)
(-0.0111902 2.97507e-05 0)
(-0.0112936 2.83563e-05 0)
(-0.0113921 2.7e-05 0)
(-0.0114858 2.56807e-05 0)
(-0.0115748 2.43966e-05 0)
(-0.0116593 2.31459e-05 0)
(-0.0117394 2.19268e-05 0)
(-0.0118152 2.07374e-05 0)
(-0.0118867 1.95753e-05 0)
(-0.0119541 1.84379e-05 0)
(-0.0120175 1.73228e-05 0)
(-0.0120768 1.62273e-05 0)
(-0.0121322 1.51486e-05 0)
(-0.0121837 1.40839e-05 0)
(-0.0122314 1.303e-05 0)
(-0.0122753 1.19839e-05 0)
(-0.0123154 1.09427e-05 0)
(-0.0123517 9.90281e-06 0)
(-0.0123843 8.86092e-06 0)
(-0.012413 7.81362e-06 0)
(-0.012438 6.75769e-06 0)
(-0.012459 5.68972e-06 0)
(-0.0124762 4.60612e-06 0)
(-0.0124894 3.50328e-06 0)
(-0.0124986 2.37759e-06 0)
(-0.0125036 1.2256e-06 0)
(-0.0125045 4.39845e-08 0)
(-0.012501 -1.17073e-06 0)
(-0.012493 -2.42207e-06 0)
(-0.0124805 -3.71341e-06 0)
(-0.0124633 -5.04811e-06 0)
(-0.0124412 -6.42937e-06 0)
(-0.0124141 -7.86015e-06 0)
(-0.0123817 -9.34339e-06 0)
(-0.012344 -1.0882e-05 0)
(-0.0123007 -1.24789e-05 0)
(-0.0122516 -1.41362e-05 0)
(-0.0121965 -1.58561e-05 0)
(-0.0121352 -1.76407e-05 0)
(-0.0120675 -1.94916e-05 0)
(-0.0119931 -2.14102e-05 0)
(-0.0119119 -2.33974e-05 0)
(-0.0118236 -2.5454e-05 0)
(-0.0117279 -2.758e-05 0)
(-0.0116247 -2.97752e-05 0)
(-0.0115136 -3.20386e-05 0)
(-0.0113946 -3.43689e-05 0)
(-0.0112673 -3.67642e-05 0)
(-0.0111316 -3.9222e-05 0)
(-0.0109873 -4.1739e-05 0)
(-0.0108342 -4.43113e-05 0)
(-0.0106721 -4.6934e-05 0)
(-0.0105008 -4.96015e-05 0)
(-0.0103203 -5.23076e-05 0)
(-0.0101305 -5.5045e-05 0)
(-0.00993118 -5.78056e-05 0)
(-0.00972241 -6.05803e-05 0)
(-0.00950416 -6.33589e-05 0)
(-0.00927644 -6.61301e-05 0)
(-0.00903932 -6.88819e-05 0)
(-0.0087929 -7.16013e-05 0)
(-0.00853735 -7.42741e-05 0)
(-0.00827287 -7.68849e-05 0)
(-0.00799972 -7.94173e-05 0)
(-0.00771822 -8.1854e-05 0)
(-0.00742874 -8.41769e-05 0)
(-0.00713172 -8.63665e-05 0)
(-0.00682768 -8.84025e-05 0)
(-0.00651719 -9.02638e-05 0)
(-0.00620089 -9.19283e-05 0)
(-0.00587953 -9.33732e-05 0)
(-0.00555388 -9.45749e-05 0)
(-0.00522484 -9.55092e-05 0)
(-0.00489337 -9.61516e-05 0)
(-0.00456051 -9.64767e-05 0)
(-0.00422738 -9.64589e-05 0)
(-0.00389518 -9.60725e-05 0)
(-0.00356522 -9.52914e-05 0)
(-0.00323885 -9.40895e-05 0)
(-0.00291753 -9.24408e-05 0)
(-0.00260279 -9.03198e-05 0)
(-0.00229623 -8.77009e-05 0)
(-0.00199953 -8.45592e-05 0)
(-0.00171444 -8.08705e-05 0)
(-0.00144275 -7.66119e-05 0)
(-0.00118632 -7.1762e-05 0)
(-0.000947038 -6.63013e-05 0)
(-0.00072683 -6.02137e-05 0)
(-0.000527614 -5.34875e-05 0)
(-0.000351281 -4.61189e-05 0)
(-0.000199657 -3.81159e-05 0)
(-7.44293e-05 -2.9507e-05 0)
(2.29435e-05 -2.03561e-05 0)
(9.13879e-05 -1.07916e-05 0)
(0.000130474 -1.06388e-06 0)
(0.000140836 8.34825e-06 0)
(0.000124787 1.65414e-05 0)
(8.76888e-05 2.17835e-05 0)
(4.20317e-05 2.08547e-05 0)
(9.63145e-06 9.62985e-06 0)
(1.85503e-05 -3.70776e-05 0)
(7.0341e-05 -7.02762e-05 0)
(0.000132021 -6.77339e-05 0)
(0.000170106 -4.20687e-05 0)
(0.000163317 -3.13952e-06 0)
(0.000100224 4.2722e-05 0)
(-2.54357e-05 9.15485e-05 0)
(-0.0002164 0.000140859 0)
(-0.000472878 0.000189108 0)
(-0.000793366 0.000235335 0)
(-0.00117522 0.000278947 0)
(-0.00161505 0.000319591 0)
(-0.00210899 0.00035707 0)
(-0.00265288 0.000391294 0)
(-0.00324242 0.000422247 0)
(-0.00387325 0.000449963 0)
(-0.00454103 0.000474513 0)
(-0.00524151 0.000495995 0)
(-0.00597054 0.000514525 0)
(-0.00672412 0.000530231 0)
(-0.0074984 0.000543252 0)
(-0.00828971 0.000553731 0)
(-0.00909459 0.000561815 0)
(-0.00990974 0.000567651 0)
(-0.0107321 0.000571388 0)
(-0.0115587 0.000573173 0)
(-0.012387 0.00057315 0)
(-0.0132144 0.000571462 0)
(-0.0140387 0.000568244 0)
(-0.0148577 0.000563632 0)
(-0.0156694 0.000557754 0)
(-0.0164723 0.000550733 0)
(-0.0172646 0.000542687 0)
(-0.018045 0.00053373 0)
(-0.0188122 0.000523969 0)
(-0.0195651 0.000513505 0)
(-0.0203027 0.000502434 0)
(-0.0210242 0.000490845 0)
(-0.0217289 0.000478823 0)
(-0.0224162 0.000466447 0)
(-0.0230856 0.000453788 0)
(-0.0237367 0.000440916 0)
(-0.0243693 0.000427891 0)
(-0.0249831 0.000414771 0)
(-0.025578 0.000401608 0)
(-0.0261539 0.000388449 0)
(-0.026711 0.000375336 0)
(-0.0272491 0.000362308 0)
(-0.0277686 0.000349398 0)
(-0.0282694 0.000336635 0)
(-0.028752 0.000324047 0)
(-0.0292164 0.000311655 0)
(-0.029663 0.000299477 0)
(-0.0300921 0.000287529 0)
(-0.0305041 0.000275824 0)
(-0.0308991 0.000264371 0)
(-0.0312777 0.000253176 0)
(-0.0316402 0.000242245 0)
(-0.0319869 0.000231578 0)
(-0.0323182 0.000221174 0)
(-0.0326345 0.000211032 0)
(-0.0329362 0.000201147 0)
(-0.0332236 0.000191512 0)
(-0.033497 0.00018212 0)
(-0.0337568 0.000172961 0)
(-0.0340033 0.000164023 0)
(-0.0342368 0.000155294 0)
(-0.0344577 0.00014676 0)
(-0.0346661 0.000138407 0)
(-0.0348623 0.000130218 0)
(-0.0350465 0.000122177 0)
(-0.035219 0.000114265 0)
(-0.0353798 0.000106463 0)
(-0.0355292 9.87533e-05 0)
(-0.0356673 9.11139e-05 0)
(-0.0357941 8.35247e-05 0)
(-0.0359096 7.59642e-05 0)
(-0.036014 6.84106e-05 0)
(-0.0361072 6.08411e-05 0)
(-0.0361892 5.32332e-05 0)
(-0.0362598 4.55637e-05 0)
(-0.036319 3.78096e-05 0)
(-0.0363667 2.99473e-05 0)
(-0.0364027 2.19534e-05 0)
(-0.0364267 1.3804e-05 0)
(-0.0364385 5.47544e-06 0)
(-0.036438 -3.05533e-06 0)
(-0.0364246 -1.18113e-05 0)
(-0.0363982 -2.08152e-05 0)
(-0.0363583 -3.00896e-05 0)
(-0.0363045 -3.96563e-05 0)
(-0.0362364 -4.95363e-05 0)
(-0.0361536 -5.97497e-05 0)
(-0.0360555 -7.03155e-05 0)
(-0.0359417 -8.1252e-05 0)
(-0.0358116 -9.25762e-05 0)
(-0.0356646 -0.000104303 0)
(-0.0355002 -0.000116447 0)
(-0.0353177 -0.000129019 0)
(-0.0351166 -0.00014203 0)
(-0.0348963 -0.000155486 0)
(-0.034656 -0.000169394 0)
(-0.0343951 -0.000183754 0)
(-0.0341131 -0.000198568 0)
(-0.0338093 -0.000213829 0)
(-0.0334831 -0.000229532 0)
(-0.0331338 -0.000245664 0)
(-0.0327609 -0.000262212 0)
(-0.0323638 -0.000279154 0)
(-0.031942 -0.000296467 0)
(-0.031495 -0.000314121 0)
(-0.0310224 -0.000332083 0)
(-0.0305237 -0.000350313 0)
(-0.0299987 -0.000368766 0)
(-0.029447 -0.00038739 0)
(-0.0288686 -0.000406129 0)
(-0.0282633 -0.00042492 0)
(-0.0276312 -0.000443691 0)
(-0.0269723 -0.000462367 0)
(-0.0262868 -0.000480865 0)
(-0.0255752 -0.000499094 0)
(-0.0248379 -0.000516959 0)
(-0.0240756 -0.000534356 0)
(-0.0232889 -0.000551175 0)
(-0.022479 -0.000567299 0)
(-0.0216468 -0.000582606 0)
(-0.0207936 -0.000596966 0)
(-0.019921 -0.000610245 0)
(-0.0190307 -0.000622303 0)
(-0.0181244 -0.000632995 0)
(-0.0172042 -0.000642171 0)
(-0.0162725 -0.000649678 0)
(-0.0153318 -0.000655358 0)
(-0.0143848 -0.000659053 0)
(-0.0134345 -0.000660602 0)
(-0.0124839 -0.000659843 0)
(-0.0115366 -0.000656614 0)
(-0.0105961 -0.000650754 0)
(-0.00966626 -0.000642106 0)
(-0.00875114 -0.000630515 0)
(-0.00785496 -0.000615832 0)
(-0.00698216 -0.000597916 0)
(-0.00613732 -0.000576635 0)
(-0.0053252 -0.000551868 0)
(-0.00455067 -0.000523514 0)
(-0.0038187 -0.000491491 0)
(-0.00313429 -0.000455749 0)
(-0.00250243 -0.000416274 0)
(-0.00192805 -0.00037311 0)
(-0.00141584 -0.000326378 0)
(-0.000970169 -0.000276308 0)
(-0.000594864 -0.000223303 0)
(-0.000292901 -0.000168015 0)
(-6.59982e-05 -0.000111499 0)
(8.60206e-05 -5.5451e-05 0)
(0.000166124 -2.60138e-06 0)
(0.000181196 4.26481e-05 0)
(0.000143899 7.32094e-05 0)
(7.79458e-05 7.79124e-05 0)
(2.08552e-05 4.20175e-05 0)
(1.98004e-05 -7.86068e-05 0)
(6.80889e-05 -0.000132048 0)
(0.000111165 -0.000110624 0)
(0.000110339 -3.94208e-05 0)
(4.03603e-05 6.29843e-05 0)
(-0.000113629 0.000183375 0)
(-0.000360521 0.000312609 0)
(-0.000704714 0.000444478 0)
(-0.00114715 0.000574804 0)
(-0.00168628 0.000700796 0)
(-0.00231875 0.000820604 0)
(-0.00303998 0.000933033 0)
(-0.00384455 0.00103734 0)
(-0.00472648 0.00113312 0)
(-0.00567944 0.00122017 0)
(-0.00669696 0.00129849 0)
(-0.00777252 0.00136818 0)
(-0.00889964 0.00142942 0)
(-0.010072 0.0014825 0)
(-0.0112834 0.0015277 0)
(-0.0125278 0.00156538 0)
(-0.0137996 0.00159592 0)
(-0.0150934 0.00161968 0)
(-0.0164039 0.00163707 0)
(-0.0177263 0.00164849 0)
(-0.0190561 0.00165434 0)
(-0.0203889 0.00165501 0)
(-0.0217209 0.0016509 0)
(-0.0230482 0.00164239 0)
(-0.0243676 0.00162984 0)
(-0.025676 0.00161363 0)
(-0.0269705 0.0015941 0)
(-0.0282487 0.00157158 0)
(-0.0295081 0.00154639 0)
(-0.0307468 0.00151885 0)
(-0.0319629 0.00148924 0)
(-0.0331549 0.00145782 0)
(-0.0343214 0.00142487 0)
(-0.0354612 0.00139062 0)
(-0.0365733 0.00135529 0)
(-0.0376569 0.0013191 0)
(-0.0387114 0.00128225 0)
(-0.0397362 0.00124491 0)
(-0.040731 0.00120724 0)
(-0.0416956 0.00116941 0)
(-0.0426298 0.00113154 0)
(-0.0435336 0.00109376 0)
(-0.0444072 0.00105619 0)
(-0.0452506 0.00101891 0)
(-0.0460641 0.000982028 0)
(-0.0468481 0.000945609 0)
(-0.0476029 0.000909721 0)
(-0.048329 0.00087442 0)
(-0.0490267 0.000839753 0)
(-0.0496967 0.000805757 0)
(-0.0503394 0.000772461 0)
(-0.0509554 0.000739886 0)
(-0.0515452 0.000708046 0)
(-0.0521095 0.000676947 0)
(-0.0526488 0.00064659 0)
(-0.0531636 0.000616967 0)
(-0.0536546 0.000588068 0)
(-0.0541224 0.000559875 0)
(-0.0545674 0.000532367 0)
(-0.0549901 0.000505515 0)
(-0.0553912 0.00047929 0)
(-0.055771 0.000453656 0)
(-0.0561301 0.000428574 0)
(-0.0564688 0.000404002 0)
(-0.0567876 0.000379896 0)
(-0.0570867 0.000356206 0)
(-0.0573665 0.000332881 0)
(-0.0576272 0.000309868 0)
(-0.0578691 0.000287112 0)
(-0.0580923 0.000264556 0)
(-0.0582971 0.000242138 0)
(-0.0584834 0.000219798 0)
(-0.0586513 0.000197475 0)
(-0.0588007 0.000175103 0)
(-0.0589317 0.000152618 0)
(-0.0590441 0.000129953 0)
(-0.0591377 0.000107044 0)
(-0.0592124 8.38221e-05 0)
(-0.0592677 6.02213e-05 0)
(-0.0593034 3.61743e-05 0)
(-0.0593192 1.16138e-05 0)
(-0.0593145 -1.35262e-05 0)
(-0.0592889 -3.93112e-05 0)
(-0.0592419 -6.58055e-05 0)
(-0.0591728 -9.30725e-05 0)
(-0.0590811 -0.000121173 0)
(-0.058966 -0.000150167 0)
(-0.0588267 -0.000180111 0)
(-0.0586627 -0.000211058 0)
(-0.0584729 -0.000243059 0)
(-0.0582566 -0.000276161 0)
(-0.0580129 -0.000310406 0)
(-0.0577408 -0.000345831 0)
(-0.0574395 -0.000382469 0)
(-0.0571079 -0.000420345 0)
(-0.0567451 -0.000459479 0)
(-0.0563501 -0.000499883 0)
(-0.0559219 -0.000541562 0)
(-0.0554595 -0.000584509 0)
(-0.0549619 -0.000628713 0)
(-0.0544281 -0.000674149 0)
(-0.0538572 -0.000720782 0)
(-0.0532484 -0.000768565 0)
(-0.0526006 -0.00081744 0)
(-0.0519132 -0.000867334 0)
(-0.0511854 -0.000918162 0)
(-0.0504165 -0.000969823 0)
(-0.0496059 -0.0010222 0)
(-0.0487532 -0.00107517 0)
(-0.0478579 -0.00112857 0)
(-0.0469199 -0.00118224 0)
(-0.0459391 -0.001236 0)
(-0.0449155 -0.00128964 0)
(-0.0438493 -0.00134295 0)
(-0.042741 -0.00139569 0)
(-0.0415911 -0.00144759 0)
(-0.0404004 -0.00149839 0)
(-0.0391702 -0.00154779 0)
(-0.0379015 -0.00159547 0)
(-0.0365959 -0.00164111 0)
(-0.0352554 -0.00168434 0)
(-0.0338819 -0.00172481 0)
(-0.0324778 -0.00176214 0)
(-0.0310459 -0.00179593 0)
(-0.0295892 -0.00182577 0)
(-0.028111 -0.00185124 0)
(-0.0266149 -0.00187192 0)
(-0.025105 -0.00188735 0)
(-0.0235856 -0.0018971 0)
(-0.0220614 -0.00190073 0)
(-0.0205374 -0.00189778 0)
(-0.0190191 -0.00188781 0)
(-0.017512 -0.00187039 0)
(-0.0160222 -0.00184509 0)
(-0.0145561 -0.0018115 0)
(-0.0131203 -0.00176922 0)
(-0.0117216 -0.00171791 0)
(-0.0103672 -0.00165722 0)
(-0.00906445 -0.00158688 0)
(-0.00782073 -0.00150668 0)
(-0.00664361 -0.00141645 0)
(-0.00554066 -0.00131617 0)
(-0.00451932 -0.00120592 0)
(-0.00358681 -0.00108597 0)
(-0.00274991 -0.000956842 0)
(-0.00201477 -0.000819398 0)
(-0.00138657 -0.00067499 0)
(-0.000869066 -0.000525676 0)
(-0.000464058 -0.000374544 0)
(-0.000170546 -0.000226206 0)
(1.62987e-05 -8.75324e-05 0)
(0.000106315 3.12998e-05 0)
(0.000116019 0.000115471 0)
(7.35093e-05 0.000143937 0)
(2.18379e-05 8.77177e-05 0)
(1.55745e-05 -0.00011363 0)
(4.29028e-05 -0.000170602 0)
(4.08568e-05 -0.000110005 0)
(-2.8167e-05 2.97761e-05 0)
(-0.00018986 0.000221208 0)
(-0.000460407 0.000443858 0)
(-0.000849878 0.000682863 0)
(-0.0013635 0.000927635 0)
(-0.00200265 0.0011707 0)
(-0.00276573 0.00140685 0)
(-0.00364896 0.00163245 0)
(-0.00464694 0.00184509 0)
(-0.0057531 0.00204315 0)
(-0.0069601 0.00222568 0)
(-0.00826006 0.00239215 0)
(-0.00964482 0.00254239 0)
(-0.0111061 0.00267648 0)
(-0.0126355 0.00279468 0)
(-0.014225 0.00289742 0)
(-0.0158664 0.00298521 0)
(-0.017552 0.00305865 0)
(-0.0192743 0.00311841 0)
(-0.0210261 0.00316516 0)
(-0.0228007 0.00319966 0)
(-0.0245916 0.00322262 0)
(-0.0263926 0.0032348 0)
(-0.0281982 0.00323695 0)
(-0.0300029 0.0032298 0)
(-0.031802 0.00321407 0)
(-0.0335907 0.00319048 0)
(-0.0353651 0.00315972 0)
(-0.0371212 0.00312246 0)
(-0.0388556 0.00307933 0)
(-0.0405653 0.00303095 0)
(-0.0422473 0.00297792 0)
(-0.0438993 0.00292078 0)
(-0.045519 0.00286008 0)
(-0.0471047 0.00279631 0)
(-0.0486546 0.00272994 0)
(-0.0501673 0.00266141 0)
(-0.0516418 0.00259113 0)
(-0.0530772 0.00251949 0)
(-0.0544726 0.00244683 0)
(-0.0558276 0.00237347 0)
(-0.0571418 0.00229973 0)
(-0.058415 0.00222586 0)
(-0.0596472 0.0021521 0)
(-0.0608384 0.00207869 0)
(-0.0619889 0.00200581 0)
(-0.0630989 0.00193365 0)
(-0.0641689 0.00186234 0)
(-0.0651993 0.00179202 0)
(-0.0661906 0.00172281 0)
(-0.0671435 0.0016548 0)
(-0.0680586 0.00158805 0)
(-0.0689366 0.00152264 0)
(-0.0697782 0.0014586 0)
(-0.0705842 0.00139597 0)
(-0.0713553 0.00133475 0)
(-0.0720923 0.00127495 0)
(-0.0727959 0.00121657 0)
(-0.073467 0.00115957 0)
(-0.0741061 0.00110393 0)
(-0.0747142 0.0010496 0)
(-0.0752918 0.000996537 0)
(-0.0758396 0.00094468 0)
(-0.0763583 0.00089396 0)
(-0.0768485 0.000844305 0)
(-0.0773107 0.000795631 0)
(-0.0777455 0.000747853 0)
(-0.0781532 0.000700876 0)
(-0.0785343 0.000654603 0)
(-0.0788892 0.00060893 0)
(-0.0792182 0.000563749 0)
(-0.0795214 0.000518949 0)
(-0.0797991 0.000474414 0)
(-0.0800514 0.000430027 0)
(-0.0802783 0.000385664 0)
(-0.0804798 0.000341204 0)
(-0.0806557 0.000296521 0)
(-0.0808061 0.000251486 0)
(-0.0809305 0.000205971 0)
(-0.0810287 0.000159847 0)
(-0.0811004 0.000112985 0)
(-0.081145 6.5254e-05 0)
(-0.0811621 1.65258e-05 0)
(-0.0811511 -3.3328e-05 0)
(-0.0811114 -8.44337e-05 0)
(-0.0810421 -0.000136916 0)
(-0.0809426 -0.000190895 0)
(-0.080812 -0.000246488 0)
(-0.0806493 -0.000303811 0)
(-0.0804536 -0.00036297 0)
(-0.0802238 -0.000424069 0)
(-0.079959 -0.000487205 0)
(-0.0796578 -0.000552464 0)
(-0.0793192 -0.000619927 0)
(-0.078942 -0.000689665 0)
(-0.0785248 -0.000761737 0)
(-0.0780665 -0.000836191 0)
(-0.0775656 -0.000913061 0)
(-0.077021 -0.000992368 0)
(-0.0764313 -0.00107412 0)
(-0.0757951 -0.0011583 0)
(-0.0751112 -0.00124487 0)
(-0.0743784 -0.0013338 0)
(-0.0735953 -0.00142501 0)
(-0.0727608 -0.0015184 0)
(-0.0718738 -0.00161385 0)
(-0.0709332 -0.00171123 0)
(-0.069938 -0.00181036 0)
(-0.0688875 -0.00191105 0)
(-0.0677809 -0.00201306 0)
(-0.0666175 -0.00211613 0)
(-0.0653969 -0.00221998 0)
(-0.064119 -0.00232428 0)
(-0.0627835 -0.00242867 0)
(-0.0613906 -0.00253276 0)
(-0.0599406 -0.00263612 0)
(-0.0584342 -0.00273829 0)
(-0.0568723 -0.00283876 0)
(-0.0552559 -0.00293699 0)
(-0.0535865 -0.00303243 0)
(-0.051866 -0.00312445 0)
(-0.0500963 -0.00321242 0)
(-0.0482801 -0.00329566 0)
(-0.0464201 -0.00337348 0)
(-0.0445196 -0.00344512 0)
(-0.0425822 -0.00350985 0)
(-0.0406119 -0.00356686 0)
(-0.0386134 -0.00361536 0)
(-0.0365914 -0.00365453 0)
(-0.0345514 -0.00368352 0)
(-0.0324992 -0.0037015 0)
(-0.0304409 -0.00370763 0)
(-0.0283834 -0.00370105 0)
(-0.0263337 -0.00368093 0)
(-0.0242994 -0.00364647 0)
(-0.0222885 -0.00359688 0)
(-0.0203092 -0.00353139 0)
(-0.0183704 -0.00344931 0)
(-0.016481 -0.00335 0)
(-0.0146503 -0.00323289 0)
(-0.0128878 -0.00309752 0)
(-0.0112032 -0.00294356 0)
(-0.00960612 -0.00277084 0)
(-0.0081062 -0.00257942 0)
(-0.00671286 -0.00236962 0)
(-0.00543508 -0.00214213 0)
(-0.00428125 -0.00189815 0)
(-0.0032588 -0.00163952 0)
(-0.00237382 -0.00136901 0)
(-0.00163059 -0.00109066 0)
(-0.00103093 -0.000810256 0)
(-0.000573346 -0.000536081 0)
(-0.000252064 -0.00027988 0)
(-5.59057e-05 -5.82086e-05 0)
(3.31402e-05 0.00010604 0)
(4.35369e-05 0.000181768 0)
(1.67273e-05 0.000125088 0)
(8.69107e-06 -0.000130996 0)
(4.47766e-06 -0.000164726 0)
(-6.07619e-05 -4.06172e-05 0)
(-0.000218733 0.000191301 0)
(-0.000492929 0.000495189 0)
(-0.000899329 0.000843806 0)
(-0.001448 0.0012167 0)
(-0.00214417 0.0015988 0)
(-0.00298919 0.00197912 0)
(-0.00398126 0.00234969 0)
(-0.00511615 0.00270486 0)
(-0.0063878 0.00304065 0)
(-0.00778875 0.00335437 0)
(-0.00931058 0.0036443 0)
(-0.0109442 0.00390943 0)
(-0.01268 0.00414932 0)
(-0.0145083 0.00436394 0)
(-0.0164192 0.00455359 0)
(-0.0184031 0.00471882 0)
(-0.0204502 0.00486035 0)
(-0.0225514 0.00497907 0)
(-0.0246975 0.00507596 0)
(-0.0268799 0.00515207 0)
(-0.0290903 0.00520851 0)
(-0.0313208 0.00524643 0)
(-0.0335641 0.005267 0)
(-0.0358132 0.00527137 0)
(-0.0380615 0.00526072 0)
(-0.0403031 0.00523618 0)
(-0.0425322 0.0051989 0)
(-0.0447439 0.00514996 0)
(-0.0469332 0.00509043 0)
(-0.0490961 0.00502134 0)
(-0.0512285 0.00494368 0)
(-0.0533271 0.00485839 0)
(-0.0553888 0.00476638 0)
(-0.0574107 0.00466849 0)
(-0.0593906 0.00456554 0)
(-0.0613263 0.00445829 0)
(-0.0632162 0.00434745 0)
(-0.0650589 0.00423368 0)
(-0.066853 0.0041176 0)
(-0.0685977 0.00399979 0)
(-0.0702923 0.00388078 0)
(-0.0719363 0.00376104 0)
(-0.0735294 0.00364102 0)
(-0.0750716 0.00352112 0)
(-0.0765628 0.0034017 0)
(-0.0780034 0.00328308 0)
(-0.0793936 0.00316555 0)
(-0.0807339 0.00304934 0)
(-0.0820248 0.00293469 0)
(-0.083267 0.00282178 0)
(-0.0844613 0.00271075 0)
(-0.0856083 0.00260174 0)
(-0.086709 0.00249484 0)
(-0.0877642 0.00239013 0)
(-0.0887748 0.00228766 0)
(-0.0897417 0.00218745 0)
(-0.0906658 0.00208951 0)
(-0.0915481 0.00199383 0)
(-0.0923895 0.00190037 0)
(-0.0931909 0.00180909 0)
(-0.0939532 0.00171991 0)
(-0.0946772 0.00163277 0)
(-0.0953637 0.00154756 0)
(-0.0960136 0.00146417 0)
(-0.0966275 0.0013825 0)
(-0.0972062 0.0013024 0)
(-0.0977503 0.00122374 0)
(-0.0982602 0.00114636 0)
(-0.0987366 0.00107012 0)
(-0.0991798 0.000994833 0)
(-0.0995903 0.000920338 0)
(-0.0999683 0.000846452 0)
(-0.100314 0.000772988 0)
(-0.100627 0.000699756 0)
(-0.100909 0.000626559 0)
(-0.101158 0.000553198 0)
(-0.101375 0.000479471 0)
(-0.10156 0.000405172 0)
(-0.101712 0.000330093 0)
(-0.10183 0.000254026 0)
(-0.101915 0.000176762 0)
(-0.101966 9.80916e-05 0)
(-0.101983 1.78081e-05 0)
(-0.101964 -6.42948e-05 0)
(-0.101908 -0.00014842 0)
(-0.101815 -0.000234767 0)
(-0.101685 -0.000323531 0)
(-0.101515 -0.000414899 0)
(-0.101305 -0.000509053 0)
(-0.101053 -0.000606166 0)
(-0.100758 -0.000706404 0)
(-0.10042 -0.000809916 0)
(-0.100036 -0.000916845 0)
(-0.0996048 -0.00102732 0)
(-0.0991254 -0.00114144 0)
(-0.0985961 -0.00125931 0)
(-0.0980154 -0.00138099 0)
(-0.0973815 -0.00150655 0)
(-0.096693 -0.00163601 0)
(-0.0959483 -0.00176937 0)
(-0.0951457 -0.00190661 0)
(-0.0942837 -0.00204768 0)
(-0.0933608 -0.00219249 0)
(-0.0923754 -0.00234091 0)
(-0.0913262 -0.0024928 0)
(-0.0902117 -0.00264796 0)
(-0.0890308 -0.00280615 0)
(-0.0877823 -0.00296709 0)
(-0.0864651 -0.00313046 0)
(-0.0850785 -0.00329588 0)
(-0.0836217 -0.00346293 0)
(-0.0820942 -0.00363113 0)
(-0.0804958 -0.00379996 0)
(-0.0788264 -0.00396883 0)
(-0.0770862 -0.00413712 0)
(-0.0752756 -0.00430411 0)
(-0.0733955 -0.00446906 0)
(-0.071447 -0.00463117 0)
(-0.0694316 -0.00478956 0)
(-0.067351 -0.00494332 0)
(-0.0652076 -0.00509146 0)
(-0.0630039 -0.00523295 0)
(-0.0607431 -0.00536671 0)
(-0.0584287 -0.00549162 0)
(-0.0560648 -0.00560649 0)
(-0.0536557 -0.0057101 0)
(-0.0512066 -0.00580121 0)
(-0.048723 -0.00587852 0)
(-0.0462108 -0.00594074 0)
(-0.0436769 -0.00598652 0)
(-0.0411281 -0.00601455 0)
(-0.0385723 -0.00602347 0)
(-0.0360175 -0.00601197 0)
(-0.0334725 -0.00597874 0)
(-0.0309465 -0.00592252 0)
(-0.028449 -0.00584207 0)
(-0.0259904 -0.00573626 0)
(-0.023581 -0.00560401 0)
(-0.0212317 -0.00544438 0)
(-0.0189536 -0.00525655 0)
(-0.0167582 -0.00503989 0)
(-0.0146568 -0.00479399 0)
(-0.012661 -0.00451872 0)
(-0.0107821 -0.00421434 0)
(-0.00903101 -0.00388154 0)
(-0.0074182 -0.00352162 0)
(-0.0059533 -0.00313669 0)
(-0.00464474 -0.00272986 0)
(-0.00349938 -0.00230564 0)
(-0.00252198 -0.00187041 0)
(-0.00171456 -0.001433 0)
(-0.00107567 -0.00100561 0)
(-0.000599482 -0.000604993 0)
(-0.000274813 -0.000253901 0)
(-8.38953e-05 1.72023e-05 0)
(-8.66025e-07 0.000168011 0)
(8.73331e-06 0.000141812 0)
(6.6495e-07 -0.00012579 0)
(-4.1064e-05 -0.000102797 0)
(-0.000181021 0.000112807 0)
(-0.000441944 0.000461992 0)
(-0.000843231 0.000901807 0)
(-0.00139945 0.00139893 0)
(-0.00211969 0.00192776 0)
(-0.00300849 0.00246892 0)
(-0.00406663 0.00300791 0)
(-0.00529182 0.00353394 0)
(-0.0066793 0.00403914 0)
(-0.00822233 0.00451784 0)
(-0.00991266 0.00496609 0)
(-0.011741 0.00538125 0)
(-0.0136971 0.00576172 0)
(-0.0157703 0.00610666 0)
(-0.0179497 0.00641587 0)
(-0.0202242 0.00668963 0)
(-0.0225827 0.00692859 0)
(-0.0250143 0.00713367 0)
(-0.0275083 0.00730604 0)
(-0.0300544 0.00744703 0)
(-0.0326425 0.00755808 0)
(-0.0352632 0.00764073 0)
(-0.0379073 0.00769658 0)
(-0.0405663 0.00772727 0)
(-0.043232 0.00773445 0)
(-0.0458969 0.00771977 0)
(-0.0485538 0.00768487 0)
(-0.0511963 0.00763136 0)
(-0.0538183 0.00756082 0)
(-0.0564143 0.00747478 0)
(-0.0589792 0.00737472 0)
(-0.0615085 0.00726207 0)
(-0.063998 0.00713821 0)
(-0.0664441 0.00700442 0)
(-0.0688437 0.00686197 0)
(-0.0711937 0.00671202 0)
(-0.0734919 0.00655567 0)
(-0.0757361 0.00639398 0)
(-0.0779246 0.00622791 0)
(-0.0800559 0.00605836 0)
(-0.082129 0.00588617 0)
(-0.0841429 0.00571212 0)
(-0.086097 0.00553691 0)
(-0.0879911 0.0053612 0)
(-0.0898249 0.00518557 0)
(-0.0915986 0.00501054 0)
(-0.0933122 0.0048366 0)
(-0.0949661 0.00466417 0)
(-0.096561 0.0044936 0)
(-0.0980974 0.00432524 0)
(-0.0995759 0.00415933 0)
(-0.100998 0.00399613 0)
(-0.102363 0.00383581 0)
(-0.103674 0.00367852 0)
(-0.10493 0.00352438 0)
(-0.106133 0.00337345 0)
(-0.107285 0.0032258 0)
(-0.108385 0.00308141 0)
(-0.109436 0.00294029 0)
(-0.110438 0.00280237 0)
(-0.111392 0.00266761 0)
(-0.112299 0.00253589 0)
(-0.113161 0.00240711 0)
(-0.113978 0.00228113 0)
(-0.114751 0.0021578 0)
(-0.115481 0.00203693 0)
(-0.116169 0.00191836 0)
(-0.116816 0.00180187 0)
(-0.117421 0.00168724 0)
(-0.117987 0.00157424 0)
(-0.118512 0.00146264 0)
(-0.118999 0.00135217 0)
(-0.119446 0.00124259 0)
(-0.119855 0.00113361 0)
(-0.120225 0.00102496 0)
(-0.120556 0.000916363 0)
(-0.120849 0.000807516 0)
(-0.121104 0.000698129 0)
(-0.121319 0.000587904 0)
(-0.121495 0.00047654 0)
(-0.121631 0.000363733 0)
(-0.121727 0.000249181 0)
(-0.121783 0.000132579 0)
(-0.121796 1.36264e-05 0)
(-0.121767 -0.000107975 0)
(-0.121695 -0.000232518 0)
(-0.121578 -0.000360292 0)
(-0.121416 -0.000491579 0)
(-0.121206 -0.00062665 0)
(-0.120949 -0.000765768 0)
(-0.120642 -0.000909181 0)
(-0.120285 -0.00105713 0)
(-0.119874 -0.00120982 0)
(-0.11941 -0.00136747 0)
(-0.11889 -0.00153024 0)
(-0.118312 -0.0016983 0)
(-0.117675 -0.00187179 0)
(-0.116977 -0.00205079 0)
(-0.116215 -0.00223538 0)
(-0.115389 -0.0024256 0)
(-0.114497 -0.00262145 0)
(-0.113536 -0.00282288 0)
(-0.112504 -0.00302982 0)
(-0.111401 -0.00324214 0)
(-0.110224 -0.00345964 0)
(-0.108971 -0.00368211 0)
(-0.107641 -0.00390924 0)
(-0.106233 -0.0041407 0)
(-0.104746 -0.00437605 0)
(-0.103177 -0.00461484 0)
(-0.101527 -0.0048565 0)
(-0.099794 -0.00510042 0)
(-0.097978 -0.0053459 0)
(-0.0960786 -0.00559217 0)
(-0.0940958 -0.00583838 0)
(-0.0920299 -0.00608359 0)
(-0.0898815 -0.0063268 0)
(-0.0876515 -0.00656692 0)
(-0.0853413 -0.00680275 0)
(-0.0829527 -0.00703305 0)
(-0.0804879 -0.00725648 0)
(-0.0779495 -0.00747161 0)
(-0.0753406 -0.00767696 0)
(-0.0726649 -0.00787095 0)
(-0.0699266 -0.00805195 0)
(-0.0671304 -0.00821825 0)
(-0.0642815 -0.00836811 0)
(-0.061386 -0.00849971 0)
(-0.0584501 -0.00861122 0)
(-0.0554811 -0.00870074 0)
(-0.0524865 -0.00876638 0)
(-0.0494748 -0.00880622 0)
(-0.0464547 -0.00881838 0)
(-0.0434358 -0.00880095 0)
(-0.0404282 -0.00875211 0)
(-0.0374425 -0.00867005 0)
(-0.0344898 -0.00855309 0)
(-0.0315818 -0.00839962 0)
(-0.0287306 -0.00820819 0)
(-0.0259486 -0.00797751 0)
(-0.0232485 -0.00770654 0)
(-0.0206434 -0.00739447 0)
(-0.0181461 -0.00704089 0)
(-0.0157697 -0.00664576 0)
(-0.013527 -0.00620963 0)
(-0.0114301 -0.00573369 0)
(-0.00949077 -0.00522001 0)
(-0.00771965 -0.00467178 0)
(-0.00612607 -0.00409359 0)
(-0.00471764 -0.0034919 0)
(-0.00349972 -0.00287557 0)
(-0.00247489 -0.00225662 0)
(-0.00164223 -0.00165117 0)
(-0.000996726 -0.00108073 0)
(-0.000528255 -0.000573773 0)
(-0.000220648 -0.00016745 0)
(-5.27523e-05 9.01651e-05 0)
(-4.37212e-07 0.000132647 0)
(-7.72373e-06 -9.57254e-05 0)
(-8.9977e-05 2.19219e-05 0)
(-0.000311354 0.000359994 0)
(-0.000684003 0.000853122 0)
(-0.00122198 0.0014527 0)
(-0.00193755 0.00212027 0)
(-0.00283805 0.0028257 0)
(-0.00392665 0.00354569 0)
(-0.00520315 0.00426239 0)
(-0.00666444 0.00496228 0)
(-0.00830499 0.00563525 0)
(-0.0101173 0.00627387 0)
(-0.0120924 0.00687283 0)
(-0.01422 0.00742849 0)
(-0.0164891 0.00793855 0)
(-0.0188881 0.00840172 0)
(-0.0214048 0.00881757 0)
(-0.0240271 0.00918629 0)
(-0.0267429 0.0095086 0)
(-0.02954 0.00978563 0)
(-0.0324067 0.0100188 0)
(-0.0353314 0.0102098 0)
(-0.0383029 0.0103605 0)
(-0.0413107 0.0104729 0)
(-0.0443446 0.0105491 0)
(-0.0473948 0.0105913 0)
(-0.0504524 0.0106015 0)
(-0.0535087 0.0105821 0)
(-0.0565558 0.0105352 0)
(-0.0595863 0.010463 0)
(-0.0625934 0.0103675 0)
(-0.0655708 0.0102509 0)
(-0.0685127 0.0101151 0)
(-0.0714141 0.0099621 0)
(-0.0742701 0.0097937 0)
(-0.0770767 0.00961168 0)
(-0.0798301 0.00941772 0)
(-0.0825272 0.00921343 0)
(-0.085165 0.00900031 0)
(-0.0877413 0.00877977 0)
(-0.090254 0.00855313 0)
(-0.0927013 0.00832164 0)
(-0.0950822 0.00808643 0)
(-0.0973954 0.00784856 0)
(-0.0996404 0.007609 0)
(-0.101817 0.00736864 0)
(-0.103924 0.00712828 0)
(-0.105962 0.00688865 0)
(-0.107932 0.00665041 0)
(-0.109833 0.00641412 0)
(-0.111667 0.0061803 0)
(-0.113433 0.00594939 0)
(-0.115134 0.00572177 0)
(-0.116769 0.00549776 0)
(-0.118339 0.00527761 0)
(-0.119846 0.00506153 0)
(-0.121291 0.00484969 0)
(-0.122675 0.00464218 0)
(-0.124 0.00443908 0)
(-0.125265 0.00424039 0)
(-0.126474 0.00404611 0)
(-0.127626 0.00385617 0)
(-0.128723 0.00367048 0)
(-0.129766 0.00348892 0)
(-0.130757 0.00331134 0)
(-0.131696 0.00313754 0)
(-0.132584 0.00296733 0)
(-0.133423 0.00280047 0)
(-0.134213 0.0026367 0)
(-0.134954 0.00247575 0)
(-0.135649 0.00231733 0)
(-0.136297 0.00216112 0)
(-0.136899 0.00200679 0)
(-0.137456 0.00185401 0)
(-0.137968 0.00170241 0)
(-0.138434 0.00155163 0)
(-0.138856 0.00140129 0)
(-0.139234 0.001251 0)
(-0.139566 0.00110038 0)
(-0.139854 0.000949019 0)
(-0.140097 0.000796512 0)
(-0.140294 0.00064245 0)
(-0.140445 0.000486424 0)
(-0.14055 0.00032802 0)
(-0.140607 0.000166829 0)
(-0.140616 2.44213e-06 0)
(-0.140577 -0.000165545 0)
(-0.140487 -0.00033753 0)
(-0.140345 -0.000513904 0)
(-0.140151 -0.000695045 0)
(-0.139903 -0.000881322 0)
(-0.1396 -0.00107309 0)
(-0.13924 -0.00127068 0)
(-0.13882 -0.00147441 0)
(-0.138341 -0.00168458 0)
(-0.137799 -0.00190145 0)
(-0.137193 -0.00212526 0)
(-0.136521 -0.00235623 0)
(-0.135781 -0.00259452 0)
(-0.134971 -0.00284027 0)
(-0.134089 -0.00309357 0)
(-0.133132 -0.00335446 0)
(-0.132099 -0.00362294 0)
(-0.130988 -0.00389895 0)
(-0.129796 -0.00418236 0)
(-0.128523 -0.00447299 0)
(-0.127164 -0.00477059 0)
(-0.12572 -0.00507484 0)
(-0.124188 -0.00538534 0)
(-0.122566 -0.00570159 0)
(-0.120854 -0.00602304 0)
(-0.11905 -0.00634903 0)
(-0.117152 -0.0066788 0)
(-0.11516 -0.0070115 0)
(-0.113074 -0.0073462 0)
(-0.110893 -0.00768182 0)
(-0.108618 -0.00801722 0)
(-0.106247 -0.00835113 0)
(-0.103783 -0.00868217 0)
(-0.101227 -0.00900884 0)
(-0.0985791 -0.00932956 0)
(-0.0958425 -0.00964261 0)
(-0.0930193 -0.00994618 0)
(-0.0901127 -0.0102384 0)
(-0.0871262 -0.0105171 0)
(-0.084064 -0.0107803 0)
(-0.0809307 -0.0110257 0)
(-0.0777318 -0.0112511 0)
(-0.0744733 -0.0114541 0)
(-0.0711617 -0.0116322 0)
(-0.0678044 -0.0117829 0)