/*--------------------------------*- C++ -*----------------------------------*\
  =========                 |
  \\      /  F ield         | OpenFOAM: The Open Source CFD Toolbox
   \\    /   O peration     | Website:  https://openfoam.org
    \\  /    A nd           | Version:  7
     \\/     M anipulation  |
\*---------------------------------------------------------------------------*/
FoamFile
{
    version     2.0;
    format      ascii;
    class       surfaceScalarField;
    location    "0.175";
    object      phi;
}
// * * * * * * * * * * * * * * * * * * * * * * * * * * * * * * * * * * * * * //

dimensions      [0 3 -1 0 0 0 0];

internalField   nonuniform List<scalar> 
101920
(
-4.34598e-13
4.63084e-13
-1.857e-12
1.42408e-12
-2.19303e-12
3.34602e-13
-2.28855e-12
9.36245e-14
-2.14893e-12
-1.43083e-13
-1.81978e-12
-3.29444e-13
-1.3167e-12
-5.01006e-13
-6.47831e-13
-6.65078e-13
1.82578e-13
-8.32847e-13
1.18185e-12
-9.99727e-13
2.35538e-12
-1.17417e-12
3.69946e-12
-1.34293e-12
5.2119e-12
-1.51741e-12
6.8945e-12
-1.68279e-12
8.73585e-12
-1.84258e-12
1.07328e-11
-1.99736e-12
1.28752e-11
-2.14179e-12
1.51511e-11
-2.27991e-12
1.75556e-11
-2.40195e-12
2.0073e-11
-2.51988e-12
2.26974e-11
-2.62348e-12
2.542e-11
-2.72369e-12
2.82287e-11
-2.81037e-12
3.11232e-11
-2.89334e-12
3.40868e-11
-2.96227e-12
3.71082e-11
-3.02243e-12
4.01828e-11
-3.07302e-12
4.32966e-11
-3.11628e-12
4.64458e-11
-3.15068e-12
4.96244e-11
-3.17783e-12
5.28225e-11
-3.19783e-12
5.6032e-11
-3.20861e-12
5.92477e-11
-3.21482e-12
6.24633e-11
-3.21814e-12
6.56741e-11
-3.21171e-12
6.8876e-11
-3.19989e-12
7.20632e-11
-3.18722e-12
7.5231e-11
-3.16514e-12
7.83699e-11
-3.13607e-12
8.14762e-11
-3.10682e-12
8.45509e-11
-3.07528e-12
8.75887e-11
-3.03799e-12
9.05816e-11
-2.99457e-12
9.3528e-11
-2.94801e-12
9.6426e-11
-2.8988e-12
9.92716e-11
-2.84649e-12
1.02059e-10
-2.79175e-12
1.0479e-10
-2.73098e-12
1.07459e-10
-2.67009e-12
1.10062e-10
-2.60719e-12
1.12601e-10
-2.54009e-12
1.15069e-10
-2.47148e-12
1.17468e-10
-2.40081e-12
1.19795e-10
-2.32678e-12
1.22047e-10
-2.24932e-12
1.24222e-10
-2.17227e-12
1.2632e-10
-2.09726e-12
1.2834e-10
-2.02014e-12
1.30279e-10
-1.93889e-12
1.32133e-10
-1.8559e-12
1.33904e-10
-1.77246e-12
1.35593e-10
-1.68934e-12
1.37198e-10
-1.60656e-12
1.38715e-10
-1.52139e-12
1.40145e-10
-1.4315e-12
1.41487e-10
-1.34017e-12
1.42738e-10
-1.25071e-12
1.43901e-10
-1.16245e-12
1.44977e-10
-1.07367e-12
1.45962e-10
-9.84064e-13
1.46855e-10
-8.94383e-13
1.47657e-10
-8.03887e-13
1.48367e-10
-7.12114e-13
1.48984e-10
-6.19674e-13
1.49508e-10
-5.2656e-13
1.49941e-10
-4.32619e-13
1.50283e-10
-3.3884e-13
1.50531e-10
-2.4593e-13
1.50685e-10
-1.53278e-13
1.50744e-10
-6.03559e-14
1.5071e-10
3.26581e-14
1.50584e-10
1.25405e-13
1.50365e-10
2.18336e-13
1.50054e-10
3.12346e-13
1.49648e-10
4.07138e-13
1.49146e-10
5.0131e-13
1.48551e-10
5.93895e-13
1.47864e-10
6.85425e-13
1.47086e-10
7.77068e-13
1.46217e-10
8.69371e-13
1.45256e-10
9.61803e-13
1.44203e-10
1.05377e-12
1.43057e-10
1.14518e-12
1.41822e-10
1.23536e-12
1.40498e-10
1.32422e-12
1.39086e-10
1.41232e-12
1.37588e-10
1.49942e-12
1.36002e-10
1.58557e-12
1.34329e-10
1.67155e-12
1.3257e-10
1.75769e-12
1.30725e-10
1.84383e-12
1.28797e-10
1.929e-12
1.26789e-10
2.01135e-12
1.24701e-10
2.0901e-12
1.22535e-10
2.16632e-12
1.20292e-10
2.24174e-12
1.17973e-10
2.31762e-12
1.15579e-10
2.39352e-12
1.13112e-10
2.46749e-12
1.10576e-10
2.5379e-12
1.07973e-10
2.60427e-12
1.05307e-10
2.66707e-12
1.0258e-10
2.72745e-12
9.97931e-11
2.78624e-12
9.69495e-11
2.84327e-12
9.40517e-11
2.89772e-12
9.11036e-11
2.94856e-12
8.81091e-11
2.99504e-12
8.50724e-11
3.0372e-12
8.19976e-11
3.07522e-12
7.88885e-11
3.10907e-12
7.57495e-11
3.1388e-12
7.25849e-11
3.16435e-12
6.93994e-11
3.18555e-12
6.61973e-11
3.20231e-12
6.29834e-11
3.21425e-12
5.9763e-11
3.22065e-12
5.65423e-11
3.2209e-12
5.3328e-11
3.21455e-12
5.01268e-11
3.20136e-12
4.69455e-11
3.1814e-12
4.37903e-11
3.15497e-12
4.06682e-11
3.12211e-12
3.75859e-11
3.08241e-12
3.45508e-11
3.03518e-12
3.15716e-11
2.97949e-12
2.86571e-11
2.91456e-12
2.58167e-11
2.84018e-12
2.30604e-11
2.75637e-12
2.03976e-11
2.66294e-12
1.7838e-11
2.55946e-12
1.53919e-11
2.4457e-12
1.30701e-11
2.32164e-12
1.08832e-11
2.18702e-12
8.84174e-12
2.04148e-12
6.95692e-12
1.88479e-12
5.23999e-12
1.71676e-12
3.70222e-12
1.53743e-12
2.35487e-12
1.34704e-12
1.20846e-12
1.1461e-12
2.72378e-13
9.35781e-13
-4.46177e-13
7.18342e-13
-9.4306e-13
4.97026e-13
-1.21893e-12
2.76235e-13
-1.28184e-12
6.30292e-14
-1.15078e-12
-1.31121e-13
-8.63485e-13
-2.87532e-13
-4.88577e-13
-3.75181e-13
-1.4488e-13
-3.43677e-13
-1.4453e-13
1.67694e-13
2.93966e-13
-6.70176e-13
2.26227e-12
-1.53604e-12
1.20032e-12
-1.78287e-12
3.44481e-13
-1.54979e-12
-3.75925e-13
-8.20385e-13
-1.05867e-12
4.15964e-13
-1.74278e-12
2.17847e-12
-2.43132e-12
4.47288e-12
-3.12499e-12
7.29527e-12
-3.82574e-12
1.06399e-11
-4.51469e-12
1.44998e-11
-5.20205e-12
1.88598e-11
-5.87306e-12
2.36988e-11
-6.52262e-12
2.90064e-11
-7.14949e-12
3.47535e-11
-7.7432e-12
4.0916e-11
-8.30302e-12
4.74693e-11
-8.82927e-12
5.43816e-11
-9.3146e-12
6.16297e-11
-9.76657e-12
6.91867e-11
-1.01774e-11
7.70195e-11
-1.05573e-11
8.51107e-11
-1.09003e-11
9.34257e-11
-1.12098e-11
1.0194e-10
-1.148e-11
1.10635e-10
-1.17146e-11
1.19478e-10
-1.1915e-11
1.28443e-10
-1.2081e-11
1.37515e-10
-1.22175e-11
1.46661e-10
-1.23287e-11
1.55869e-10
-1.24073e-11
1.6512e-10
-1.24576e-11
1.74392e-10
-1.24884e-11
1.83669e-10
-1.24928e-11
1.92932e-10
-1.24735e-11
2.02164e-10
-1.2438e-11
2.11354e-10
-1.23803e-11
2.20484e-10
-1.22969e-11
2.2954e-10
-1.21942e-11
2.38512e-10
-1.20776e-11
2.47386e-10
-1.19463e-11
2.56147e-10
-1.17976e-11
2.64786e-10
-1.16329e-11
2.73294e-10
-1.14514e-11
2.81659e-10
-1.126e-11
2.89869e-10
-1.10567e-11
2.97922e-10
-1.08386e-11
3.05803e-10
-1.06092e-11
3.13505e-10
-1.03703e-11
3.21024e-10
-1.01206e-11
3.28352e-10
-9.86255e-12
3.35482e-10
-9.59977e-12
3.42407e-10
-9.3278e-12
3.49122e-10
-9.04354e-12
3.5562e-10
-8.75119e-12
3.61899e-10
-8.45498e-12
3.67957e-10
-8.15457e-12
3.73787e-10
-7.8478e-12
3.79381e-10
-7.53336e-12
3.84738e-10
-7.21223e-12
3.89857e-10
-6.88742e-12
3.94733e-10
-6.56223e-12
3.99364e-10
-6.23538e-12
4.03746e-10
-5.90186e-12
4.07876e-10
-5.56087e-12
4.1175e-10
-5.21695e-12
4.15368e-10
-4.87256e-12
4.1873e-10
-4.52642e-12
4.21834e-10
-4.17806e-12
4.24676e-10
-3.82677e-12
4.27255e-10
-3.47136e-12
4.2957e-10
-3.11333e-12
4.31618e-10
-2.75557e-12
4.334e-10
-2.39904e-12
4.34916e-10
-2.04223e-12
4.36163e-10
-1.68276e-12
4.37141e-10
-1.3198e-12
4.37848e-10
-9.545e-13
4.38284e-10
-5.88426e-13
4.38451e-10
-2.23774e-13
4.38348e-10
1.37948e-13
4.37974e-10
4.98343e-13
4.37329e-10
8.6079e-13
4.36414e-10
1.22711e-12
4.35227e-10
1.59521e-12
4.33769e-10
1.96126e-12
4.32042e-10
2.32322e-12
4.30047e-10
2.68155e-12
4.27786e-10
3.03857e-12
4.25257e-10
3.39634e-12
4.22464e-10
3.75531e-12
4.19405e-10
4.11347e-12
4.16082e-10
4.46848e-12
4.12498e-10
4.81893e-12
4.08656e-10
5.16508e-12
4.04559e-10
5.50871e-12
4.00209e-10
5.85031e-12
3.95609e-10
6.18918e-12
3.90758e-10
6.52506e-12
3.8566e-10
6.85733e-12
3.80318e-10
7.18501e-12
3.74736e-10
7.50758e-12
3.68921e-10
7.82426e-12
3.62876e-10
8.13448e-12
3.56606e-10
8.43865e-12
3.50115e-10
8.73715e-12
3.43406e-10
9.02992e-12
3.36483e-10
9.31633e-12
3.29354e-10
9.59484e-12
3.22026e-10
9.86383e-12
3.14508e-10
1.01223e-11
3.06805e-10
1.03699e-11
2.98927e-10
1.06073e-11
2.9088e-10
1.08352e-11
2.82671e-10
1.10532e-11
2.74309e-10
1.12595e-11
2.65804e-10
1.14526e-11
2.57166e-10
1.16313e-11
2.48409e-10
1.17945e-11
2.39542e-10
1.19417e-11
2.30579e-10
1.20728e-11
2.21529e-10
1.21877e-11
2.12407e-10
1.22864e-11
2.03225e-10
1.23677e-11
1.93997e-10
1.24303e-11
1.84738e-10
1.24728e-11
1.75465e-10
1.24937e-11
1.66194e-10
1.24914e-11
1.56944e-10
1.24646e-11
1.47732e-10
1.24127e-11
1.38578e-10
1.23353e-11
1.29501e-10
1.22321e-11
1.20521e-10
1.21024e-11
1.11658e-10
1.19449e-11
1.02936e-10
1.17573e-11
9.43773e-11
1.15374e-11
8.60073e-11
1.12837e-11
7.78518e-11
1.09952e-11
6.9937e-11
1.06707e-11
6.22898e-11
1.03095e-11
5.49378e-11
9.91079e-12
4.79092e-11
9.47381e-12
4.12325e-11
8.99795e-12
3.49363e-11
8.48261e-12
2.90498e-11
7.92717e-12
2.36022e-11
7.33132e-12
1.86228e-11
6.69515e-12
1.414e-11
6.01944e-12
1.01804e-11
5.30596e-12
6.76774e-12
4.55814e-12
3.92141e-12
3.78169e-12
1.65412e-12
2.98528e-12
-3.0777e-14
2.18155e-12
-1.14297e-12
1.38842e-12
-1.71203e-12
6.31854e-13
-1.79425e-12
-4.93737e-14
-1.48448e-12
-5.97776e-13
-9.30098e-13
-9.30061e-13
-3.41127e-13
-9.32895e-13
-4.85404e-13
-5.07461e-13
7.99945e-13
-7.5117e-13
2.50727e-12
-1.00259e-12
1.44931e-12
-7.85348e-13
1.24839e-13
2.75425e-14
-1.19491e-12
1.54923e-12
-2.58065e-12
3.82647e-12
-4.01946e-12
6.90747e-12
-5.50905e-12
1.08052e-11
-7.02638e-12
1.55276e-11
-8.54967e-12
2.10769e-11
-1.00694e-11
2.74363e-11
-1.15611e-11
3.45805e-11
-1.30196e-11
4.24909e-11
-1.44335e-11
5.11308e-11
-1.57875e-11
6.04629e-11
-1.70799e-11
7.04606e-11
-1.83004e-11
8.10704e-11
-1.94422e-11
9.22606e-11
-2.05072e-11
1.03983e-10
-2.14871e-11
1.16198e-10
-2.23946e-11
1.28858e-10
-2.32151e-11
1.41926e-10
-2.39654e-11
1.55351e-10
-2.46346e-11
1.69102e-10
-2.52277e-11
1.83128e-10
-2.57426e-11
1.97395e-10
-2.61852e-11
2.11871e-10
-2.65552e-11
2.26511e-10
-2.68582e-11
2.41279e-10
-2.70978e-11
2.56149e-10
-2.72745e-11
2.71084e-10
-2.73947e-11
2.86053e-10
-2.74587e-11
3.01031e-10
-2.74685e-11
3.1599e-10
-2.74311e-11
3.30902e-10
-2.73488e-11
3.45744e-10
-2.72188e-11
3.60488e-10
-2.70421e-11
3.75116e-10
-2.68253e-11
3.89609e-10
-2.65697e-11
4.03941e-10
-2.62797e-11
4.18093e-10
-2.59537e-11
4.32052e-10
-2.55899e-11
4.45794e-10
-2.51971e-11
4.59306e-10
-2.47758e-11
4.72575e-10
-2.43266e-11
4.85585e-10
-2.38489e-11
4.98317e-10
-2.33471e-11
5.10764e-10
-2.2821e-11
5.22915e-10
-2.22722e-11
5.34756e-10
-2.17058e-11
5.46279e-10
-2.11214e-11
5.57472e-10
-2.05169e-11
5.68325e-10
-1.98941e-11
5.7883e-10
-1.92574e-11
5.88982e-10
-1.86082e-11
5.98774e-10
-1.79458e-11
6.08195e-10
-1.72697e-11
6.17237e-10
-1.65788e-11
6.25899e-10
-1.58749e-11
6.34173e-10
-1.5164e-11
6.42053e-10
-1.44473e-11
6.49538e-10
-1.37208e-11
6.5662e-10
-1.29818e-11
6.63293e-10
-1.2233e-11
6.69555e-10
-1.14787e-11
6.75405e-10
-1.07209e-11
6.80839e-10
-9.95977e-12
6.85853e-10
-9.19367e-12
6.90443e-10
-8.42008e-12
6.94607e-10
-7.63812e-12
6.98342e-10
-6.85094e-12
7.01647e-10
-6.06228e-12
7.04522e-10
-5.27317e-12
7.06967e-10
-4.4829e-12
7.08977e-10
-3.68972e-12
7.10548e-10
-2.8919e-12
7.11681e-10
-2.08965e-12
7.12376e-10
-1.28543e-12
7.12635e-10
-4.82711e-13
7.12456e-10
3.16788e-13
7.1184e-10
1.11523e-12
7.10785e-10
1.91619e-12
7.0929e-10
2.72091e-12
7.07356e-10
3.52708e-12
7.04985e-10
4.33073e-12
7.02179e-10
5.12917e-12
6.9894e-10
5.92205e-12
6.95268e-10
6.71166e-12
6.91163e-10
7.50093e-12
6.86627e-10
8.29065e-12
6.81664e-10
9.07779e-12
6.76275e-10
9.85835e-12
6.70464e-10
1.06302e-11
6.64236e-10
1.13934e-11
6.57594e-10
1.21497e-11
6.50541e-10
1.29009e-11
6.43082e-10
1.36474e-11
6.35219e-10
1.43879e-11
6.26959e-10
1.51198e-11
6.18308e-10
1.58397e-11
6.09271e-10
1.6546e-11
5.99856e-10
1.72389e-11
5.9007e-10
1.79193e-11
5.79918e-10
1.85884e-11
5.6941e-10
1.92461e-11
5.58551e-10
1.989e-11
5.47353e-10
2.05176e-11
5.35823e-10
2.11263e-11
5.23975e-10
2.17137e-11
5.11817e-10
2.2279e-11
4.99364e-10
2.28225e-11
4.86626e-10
2.33447e-11
4.73617e-10
2.38453e-11
4.60349e-10
2.43223e-11
4.46836e-10
2.47728e-11
4.33095e-10
2.5194e-11
4.19144e-10
2.55836e-11
4.04999e-10
2.59398e-11
3.90679e-10
2.62617e-11
3.76203e-10
2.65488e-11
3.6159e-10
2.68005e-11
3.46862e-10
2.70151e-11
3.32039e-10
2.71905e-11
3.17146e-10
2.73239e-11
3.02207e-10
2.74126e-11
2.87248e-10
2.74535e-11
2.72295e-10
2.74441e-11
2.57378e-10
2.73821e-11
2.42525e-10
2.72657e-11
2.27767e-10
2.70938e-11
2.13134e-10
2.6865e-11
1.9866e-10
2.6577e-11
1.84379e-10
2.62268e-11
1.70325e-10
2.58106e-11
1.56538e-10
2.53247e-11
1.43056e-10
2.47663e-11
1.29918e-10
2.41329e-11
1.17167e-10
2.34225e-11
1.04843e-10
2.26333e-11
9.29893e-11
2.17639e-11
8.16502e-11
2.08129e-11
7.08692e-11
1.9779e-11
6.06906e-11
1.86613e-11
5.11585e-11
1.74589e-11
4.23171e-11
1.61722e-11
3.42093e-11
1.48024e-11
2.68759e-11
1.33524e-11
2.03542e-11
1.18273e-11
1.46761e-11
1.02358e-11
9.86645e-12
8.59125e-12
5.9393e-12
6.9126e-12
2.89402e-12
5.2268e-12
7.10781e-13
3.57153e-12
-6.57248e-13
1.99957e-12
-1.29189e-12
5.85084e-13
-1.32109e-12
-5.68498e-13
-9.30697e-13
-1.3202e-12
-3.74264e-13
-1.48937e-12
-8.59704e-13
-2.48996e-13
1.04735e-12
-2.3912e-13
2.49553e-12
8.88145e-14
1.12524e-12
1.02062e-12
-8.04812e-13
2.74464e-12
-2.9168e-12
5.36274e-12
-5.1974e-12
8.96268e-12
-7.62101e-12
1.35888e-11
-1.01358e-11
1.92763e-11
-1.27105e-11
2.60367e-11
-1.53117e-11
3.38648e-11
-1.78968e-11
4.27518e-11
-2.04487e-11
5.26681e-11
-2.29389e-11
6.35857e-11
-2.53487e-11
7.54643e-11
-2.76679e-11
8.82631e-11
-2.98753e-11
1.0193e-10
-3.19659e-11
1.1642e-10
-3.39294e-11
1.31675e-10
-3.57598e-11
1.4764e-10
-3.74543e-11
1.64262e-10
-3.90157e-11
1.8148e-10
-4.04351e-11
1.99237e-10
-4.17254e-11
2.17482e-10
-4.28773e-11
2.36153e-10
-4.38992e-11
2.55201e-10
-4.4793e-11
2.74574e-10
-4.55564e-11
2.94219e-10
-4.62005e-11
3.14089e-10
-4.67288e-11
3.34139e-10
-4.71459e-11
3.54322e-10
-4.74585e-11
3.74596e-10
-4.767e-11
3.94921e-10
-4.77828e-11
4.15253e-10
-4.78028e-11
4.35559e-10
-4.77396e-11
4.55805e-10
-4.7593e-11
4.75953e-10
-4.73656e-11
4.95973e-10
-4.70636e-11
5.1584e-10
-4.66876e-11
5.35518e-10
-4.6248e-11
5.5498e-10
-4.57425e-11
5.74202e-10
-4.5172e-11
5.93158e-10
-4.45443e-11
6.11825e-10
-4.38638e-11
6.30181e-10
-4.31318e-11
6.48207e-10
-4.23491e-11
6.6588e-10
-4.15202e-11
6.83182e-10
-4.06482e-11
7.00098e-10
-3.9735e-11
7.16611e-10
-3.87858e-11
7.32704e-10
-3.78028e-11
7.48365e-10
-3.67836e-11
7.63578e-10
-3.57299e-11
7.78331e-10
-3.46472e-11
7.92615e-10
-3.35403e-11
8.06419e-10
-3.24099e-11
8.19729e-10
-3.12556e-11
8.32535e-10
-3.00761e-11
8.4483e-10
-2.8872e-11
8.56607e-10
-2.76495e-11
8.67858e-10
-2.64144e-11
8.78573e-10
-2.51651e-11
8.88748e-10
-2.38963e-11
8.98374e-10
-2.26085e-11
9.07444e-10
-2.13059e-11
9.15957e-10
-1.99924e-11
9.23909e-10
-1.86713e-11
9.31293e-10
-1.73425e-11
9.38104e-10
-1.60034e-11
9.44339e-10
-1.46522e-11
9.49993e-10
-1.32906e-11
9.55063e-10
-1.19222e-11
9.59549e-10
-1.05502e-11
9.63448e-10
-9.17419e-12
9.66758e-10
-7.79313e-12
9.69476e-10
-6.40619e-12
9.71598e-10
-5.01298e-12
9.73125e-10
-3.61519e-12
9.74056e-10
-2.21633e-12
9.74391e-10
-8.19267e-13
9.7413e-10
5.76057e-13
9.73273e-10
1.97244e-12
9.71819e-10
3.37241e-12
9.69766e-10
4.77515e-12
9.67116e-10
6.17709e-12
9.63872e-10
7.57429e-12
9.60036e-10
8.96465e-12
9.55609e-10
1.03486e-11
9.50593e-10
1.17286e-11
9.44988e-10
1.31065e-11
9.38797e-10
1.44819e-11
9.32023e-10
1.58507e-11
9.24672e-10
1.7209e-11
9.16748e-10
1.85546e-11
9.08256e-10
1.9887e-11
8.99201e-10
2.12071e-11
8.89585e-10
2.25167e-11
8.79416e-10
2.38158e-11
8.68699e-10
2.51028e-11
8.57442e-10
2.63746e-11
8.45656e-10
2.7627e-11
8.33347e-10
2.88569e-11
8.20524e-10
3.00639e-11
8.07196e-10
3.12487e-11
7.93373e-10
3.24123e-11
7.79063e-10
3.35544e-11
7.6428e-10
3.46721e-11
7.49037e-10
3.57613e-11
7.33347e-10
3.68175e-11
7.17224e-10
3.78376e-11
7.00683e-10
3.88201e-11
6.83741e-10
3.97654e-11
6.66413e-10
4.0673e-11
6.48716e-10
4.15414e-11
6.30671e-10
4.23677e-11
6.12296e-10
4.31474e-11
5.93614e-10
4.38761e-11
5.74648e-10
4.45502e-11
5.55421e-10
4.51668e-11
5.35958e-10
4.57245e-11
5.16285e-10
4.62218e-11
4.9643e-10
4.66565e-11
4.76419e-10
4.70257e-11
4.56284e-10
4.73256e-11
4.36057e-10
4.75516e-11
4.1577e-10
4.76994e-11
3.95459e-10
4.77646e-11
3.75161e-10
4.77429e-11
3.54913e-10
4.76306e-11
3.34754e-10
4.74247e-11
3.14725e-10
4.71225e-11
2.94869e-10
4.67212e-11
2.7523e-10
4.62166e-11
2.55853e-10
4.56035e-11
2.36787e-10
4.48761e-11
2.18082e-10
4.40295e-11
1.9979e-10
4.3059e-11
1.81962e-10
4.19608e-11
1.64653e-10
4.07315e-11
1.47918e-10
3.93684e-11
1.31812e-10
3.78691e-11
1.16393e-10
3.62316e-11
1.01718e-10
3.44541e-11
8.78431e-11
3.25355e-11
7.48257e-11
3.04757e-11
6.27214e-11
2.82762e-11
5.15836e-11
2.594e-11
4.14619e-11
2.34736e-11
3.24013e-11
2.08874e-11
2.4439e-11
1.81976e-11
1.76024e-11
1.54273e-11
1.19056e-11
1.26091e-11
7.34441e-12
9.78775e-12
3.89183e-12
7.02414e-12
1.49017e-12
4.40089e-12
4.4063e-14
2.03071e-12
-5.89166e-13
6.48168e-14
-6.10776e-13
-1.29836e-12
-2.91529e-13
-1.8087e-12
-1.15161e-12
1.20712e-15
1.04712e-12
5.05995e-13
1.99159e-12
1.54142e-12
8.71023e-14
3.36373e-12
-2.62835e-12
6.16954e-12
-5.72291e-12
1.00881e-11
-9.12102e-12
1.5199e-11
-1.27323e-11
2.15618e-11
-1.64984e-11
2.91969e-11
-2.03478e-11
3.8118e-11
-2.42315e-11
4.83261e-11
-2.81036e-11
5.97981e-11
-3.19217e-11
7.25123e-11
-3.56513e-11
8.64266e-11
-3.9267e-11
1.01499e-10
-4.27392e-11
1.17679e-10
-4.60561e-11
1.34909e-10
-4.91997e-11
1.53135e-10
-5.21535e-11
1.72284e-10
-5.4912e-11
1.92304e-10
-5.74731e-11
2.13115e-10
-5.98243e-11
2.34657e-10
-6.19801e-11
2.56857e-10
-6.39239e-11
2.7965e-10
-6.56705e-11
3.02968e-10
-6.7218e-11
3.26749e-10
-6.85713e-11
3.50928e-10
-6.97356e-11
3.75442e-10
-7.07164e-11
4.00235e-10
-7.15209e-11
4.25246e-10
-7.21576e-11
4.50422e-10
-7.26354e-11
4.75713e-10
-7.2958e-11
5.01065e-10
-7.31326e-11
5.2643e-10
-7.31704e-11
5.51765e-10
-7.30734e-11
5.77021e-10
-7.28495e-11
6.02156e-10
-7.25041e-11
6.27137e-10
-7.20417e-11
6.51922e-10
-7.14735e-11
6.76475e-10
-7.08021e-11
7.00761e-10
-7.00286e-11
7.24748e-10
-6.91591e-11
7.48406e-10
-6.82029e-11
7.71705e-10
-6.71641e-11
7.94619e-10
-6.60456e-11
8.1712e-10
-6.48506e-11
8.39182e-10
-6.3585e-11
8.60786e-10
-6.22503e-11
8.81909e-10
-6.08556e-11
9.0253e-10
-5.94067e-11
9.2263e-10
-5.79018e-11
9.4219e-10
-5.63425e-11
9.6119e-10
-5.47329e-11
9.79619e-10
-5.30784e-11
9.97465e-10
-5.13846e-11
1.01471e-09
-4.96542e-11
1.03134e-09
-4.78849e-11
1.04734e-09
-4.60764e-11
1.0627e-09
-4.42333e-11
1.07741e-09
-4.23637e-11
1.09147e-09
-4.04711e-11
1.10486e-09
-3.85526e-11
1.11757e-09
-3.66059e-11
1.12959e-09
-3.46333e-11
1.14092e-09
-3.26392e-11
1.15156e-09
-3.06282e-11
1.16149e-09
-2.86037e-11
1.17071e-09
-2.65644e-11
1.17921e-09
-2.45075e-11
1.187e-09
-2.24327e-11
1.19405e-09
-2.03445e-11
1.20038e-09
-1.82476e-11
1.20597e-09
-1.61443e-11
1.21083e-09
-1.40342e-11
1.21495e-09
-1.19151e-11
1.21833e-09
-9.78588e-12
1.22096e-09
-7.64751e-12
1.22285e-09
-5.50398e-12
1.224e-09
-3.36063e-12
1.2244e-09
-1.21956e-12
1.22405e-09
9.21495e-13
1.22296e-09
3.06603e-12
1.22112e-09
5.21493e-12
1.21852e-09
7.36544e-12
1.21519e-09
9.51286e-12
1.21111e-09
1.16528e-11
1.20629e-09
1.37835e-11
1.20073e-09
1.59069e-11
1.19444e-09
1.80255e-11
1.18741e-09
2.01398e-11
1.17964e-09
2.2247e-11
1.17115e-09
2.43422e-11
1.16194e-09
2.64214e-11
1.15201e-09
2.8483e-11
1.14137e-09
3.05269e-11
1.13002e-09
3.25534e-11
1.11798e-09
3.45628e-11
1.10524e-09
3.65538e-11
1.09182e-09
3.85232e-11
1.07773e-09
4.04672e-11
1.06297e-09
4.23818e-11
1.04756e-09
4.42644e-11
1.03151e-09
4.61139e-11
1.01483e-09
4.79302e-11
9.97535e-10
4.97126e-11
9.79631e-10
5.14592e-11
9.61137e-10
5.31664e-11
9.42069e-10
5.48289e-11
9.22445e-10
5.64417e-11
9.02282e-10
5.80006e-11
8.81598e-10
5.95036e-11
8.60414e-10
6.09499e-11
8.3875e-10
6.2338e-11
8.16627e-10
6.36643e-11
7.94071e-10
6.49242e-11
7.71106e-10
6.61121e-11
7.4776e-10
6.72221e-11
7.24062e-10
6.82491e-11
7.00041e-10
6.9189e-11
6.75726e-10
7.00391e-11
6.51152e-10
7.07963e-11
6.26352e-10
7.14569e-11
6.01362e-10
7.2016e-11
5.7622e-10
7.24678e-11
5.50965e-10
7.28062e-11
5.2564e-10
7.30249e-11
5.00288e-10
7.31175e-11
4.74953e-10
7.3078e-11
4.49683e-10
7.29009e-11
4.24526e-10
7.25817e-11
3.99533e-10
7.21159e-11
3.74756e-10
7.14985e-11
3.50251e-10
7.07229e-11
3.26073e-10
6.97816e-11
3.02282e-10
6.86672e-11
2.78939e-10
6.73728e-11
2.56106e-10
6.58921e-11
2.33847e-10
6.42196e-11
2.12228e-10
6.23508e-11
1.91315e-10
6.02819e-11
1.71174e-10
5.80093e-11
1.51875e-10
5.55304e-11
1.33485e-10
5.28435e-11
1.16073e-10
4.99479e-11
9.97036e-11
4.68444e-11
8.4443e-11
4.35364e-11
7.03525e-11
4.00305e-11
5.74884e-11
3.63375e-11
4.59011e-11
3.24743e-11
3.56314e-11
2.84664e-11
2.67086e-11
2.43493e-11
1.91468e-11
2.01707e-11
1.29399e-11
1.59944e-11
8.05746e-12
1.19063e-11
4.438e-12
8.02025e-12
1.98206e-12
4.48637e-12
5.44713e-13
1.50198e-12
-7.3964e-14
-6.79798e-13
-1.39086e-13
-1.7439e-12
-1.29119e-12
2.41299e-13
8.00553e-13
1.27236e-12
9.59042e-13
3.06452e-12
-1.70427e-12
5.86072e-12
-5.42776e-12
9.86969e-12
-9.73071e-12
1.52084e-11
-1.4459e-11
2.19656e-11
-1.94905e-11
3.01801e-11
-2.47134e-11
3.98773e-11
-3.00456e-11
5.10633e-11
-3.54179e-11
6.37211e-11
-4.0764e-11
7.78338e-11
-4.60329e-11
9.33621e-11
-5.11819e-11
1.10265e-10
-5.61703e-11
1.28494e-10
-6.09687e-11
1.47987e-10
-6.55519e-11
1.68688e-10
-6.9897e-11
1.90522e-10
-7.39913e-11
2.13428e-10
-7.7816e-11
2.37323e-10
-8.13677e-11
2.62139e-10
-8.464e-11
2.87794e-10
-8.7633e-11
3.14212e-10
-9.03418e-11
3.41315e-10
-9.27748e-11
3.69029e-10
-9.49333e-11
3.97279e-10
-9.68214e-11
4.25992e-10
-9.84493e-11
4.551e-10
-9.98228e-11
4.84531e-10
-1.00951e-10
5.14217e-10
-1.01847e-10
5.44097e-10
-1.02516e-10
5.74108e-10
-1.02968e-10
6.0419e-10
-1.03217e-10
6.34292e-10
-1.03269e-10
6.64354e-10
-1.03135e-10
6.94323e-10
-1.0282e-10
7.24155e-10
-1.02334e-10
7.53801e-10
-1.01687e-10
7.83215e-10
-1.00888e-10
8.12355e-10
-9.99413e-11
8.41181e-10
-9.88522e-11
8.69652e-10
-9.76317e-11
8.97736e-10
-9.62867e-11
9.25397e-10
-9.48236e-11
9.52602e-10
-9.32486e-11
9.79316e-10
-9.15675e-11
1.00552e-09
-8.97844e-11
1.03117e-09
-8.79067e-11
1.05626e-09
-8.59439e-11
1.08075e-09
-8.39001e-11
1.10463e-09
-8.17758e-11
1.12786e-09
-7.9576e-11
1.15043e-09
-7.73073e-11
1.17233e-09
-7.49757e-11
1.19353e-09
-7.25868e-11
1.21402e-09
-7.01425e-11
1.23378e-09
-6.76419e-11
1.25279e-09
-6.50879e-11
1.27105e-09
-6.24891e-11
1.28853e-09
-5.98516e-11
1.30524e-09
-5.71762e-11
1.32115e-09
-5.44619e-11
1.33625e-09
-5.17091e-11
1.35054e-09
-4.89216e-11
1.364e-09
-4.6105e-11
1.37664e-09
-4.32645e-11
1.38844e-09
-4.04024e-11
1.39939e-09
-3.75171e-11
1.40949e-09
-3.46064e-11
1.41873e-09
-3.16728e-11
1.42711e-09
-2.87213e-11
1.43461e-09
-2.57567e-11
1.44125e-09
-2.27816e-11
1.44702e-09
-1.9796e-11
1.4519e-09
-1.67975e-11
1.4559e-09
-1.37852e-11
1.45901e-09
-1.07617e-11
1.46124e-09
-7.73237e-12
1.46258e-09
-4.70296e-12
1.46304e-09
-1.67453e-12
1.4626e-09
1.3557e-12
1.46128e-09
4.39043e-12
1.45906e-09
7.42928e-12
1.45596e-09
1.04682e-11
1.45197e-09
1.35017e-11
1.4471e-09
1.65251e-11
1.44135e-09
1.95374e-11
1.43471e-09
2.2541e-11
1.4272e-09
2.55381e-11
1.41881e-09
2.85273e-11
1.40955e-09
3.15041e-11
1.39943e-09
3.44631e-11
1.38846e-09
3.73997e-11
1.37663e-09
4.03123e-11
1.36395e-09
4.32011e-11
1.35044e-09
4.60661e-11
1.33609e-09
4.89068e-11
1.32093e-09
5.17204e-11
1.30495e-09
5.45014e-11
1.28818e-09
5.72446e-11
1.27061e-09
5.99458e-11
1.25227e-09
6.26024e-11
1.23317e-09
6.52138e-11
1.21332e-09
6.77792e-11
1.19274e-09
7.0296e-11
1.17144e-09
7.27604e-11
1.14944e-09
7.51672e-11
1.12676e-09
7.75096e-11
1.10342e-09
7.97816e-11
1.07944e-09
8.19789e-11
1.05485e-09
8.40989e-11
1.02966e-09
8.61391e-11
1.0039e-09
8.80958e-11
9.77601e-10
8.99639e-11
9.50788e-10
9.17368e-11
9.23493e-10
9.34072e-11
8.95748e-10
9.49676e-11
8.67586e-10
9.64115e-11
8.39042e-10
9.77334e-11
8.10153e-10
9.89286e-11
7.80957e-10
9.99923e-11
7.51496e-10
1.00918e-10
7.21813e-10
1.017e-10
6.91951e-10
1.0233e-10
6.61958e-10
1.02799e-10
6.31885e-10
1.03099e-10
6.0178e-10
1.03222e-10
5.71699e-10
1.0316e-10
5.41695e-10
1.02905e-10
5.11827e-10
1.0245e-10
4.82153e-10
1.0179e-10
4.52735e-10
1.00916e-10
4.23638e-10
9.98199e-11
3.94929e-10
9.84912e-11
3.66675e-10
9.69207e-11
3.38949e-10
9.50995e-11
3.11822e-10
9.30198e-11
2.85367e-10
9.06746e-11
2.5966e-10
8.80577e-11
2.34777e-10
8.51642e-11
2.10796e-10
8.19902e-11
1.87794e-10
7.85324e-11
1.65848e-10
7.4789e-11
1.45035e-10
7.07603e-11
1.2543e-10
6.64492e-11
1.07105e-10
6.18616e-11
9.01276e-11
5.70079e-11
7.45594e-11
5.19048e-11
6.04553e-11
4.65777e-11
4.78596e-11
4.10618e-11
3.68029e-11
3.54052e-11
2.73006e-11
2.96723e-11
1.93474e-11
2.39473e-11
1.29133e-11
1.83404e-11
7.93815e-12
1.2995e-11
4.32679e-12
8.09742e-12
1.94198e-12
3.88636e-12
5.97553e-13
6.63876e-13
5.19986e-14
-1.19912e-12
-1.23957e-12
4.62781e-13
3.43377e-13
1.97837e-12
-5.59195e-13
4.54156e-12
-4.26999e-12
8.36462e-12
-9.24707e-12
1.36258e-11
-1.49948e-11
2.04558e-11
-2.12892e-11
2.89179e-11
-2.79518e-11
3.90518e-11
-3.48484e-11
5.08721e-11
-4.18646e-11
6.43562e-11
-4.89057e-11
7.94996e-11
-5.5904e-11
9.6258e-11
-6.27933e-11
1.14593e-10
-6.95166e-11
1.34456e-10
-7.60312e-11
1.55784e-10
-8.22986e-11
1.78519e-10
-8.82831e-11
2.02587e-10
-9.39669e-11
2.27918e-10
-9.9321e-11
2.54435e-10
-1.04333e-10
2.82051e-10
-1.08987e-10
3.10694e-10
-1.13283e-10
3.40271e-10
-1.17209e-10
3.707e-10
-1.20774e-10
4.01899e-10
-1.23972e-10
4.33779e-10
-1.26813e-10
4.66259e-10
-1.29304e-10
4.99261e-10
-1.31451e-10
5.32705e-10
-1.33264e-10
5.66512e-10
-1.34761e-10
6.00612e-10
-1.35944e-10
6.34927e-10
-1.3683e-10
6.69388e-10
-1.37432e-10
7.03933e-10
-1.37761e-10
7.38494e-10
-1.37831e-10
7.7301e-10
-1.3765e-10
8.0742e-10
-1.37232e-10
8.41674e-10
-1.36586e-10
8.75714e-10
-1.35728e-10
9.09489e-10
-1.34664e-10
9.42951e-10
-1.33401e-10
9.76052e-10
-1.31953e-10
1.00875e-09
-1.30331e-10
1.041e-09
-1.2854e-10
1.07277e-09
-1.26593e-10
1.10402e-09
-1.24495e-10
1.13471e-09
-1.22255e-10
1.16481e-09
-1.1988e-10
1.19428e-09
-1.17383e-10
1.22311e-09
-1.1477e-10
1.25125e-09
-1.12043e-10
1.27869e-09
-1.09211e-10
1.30539e-09
-1.06278e-10
1.33133e-09
-1.03253e-10
1.3565e-09
-1.00145e-10
1.38087e-09
-9.69578e-11
1.40442e-09
-9.36928e-11
1.42713e-09
-9.03518e-11
1.44899e-09
-8.69431e-11
1.46998e-09
-8.34762e-11
1.49008e-09
-7.99549e-11
1.50928e-09
-7.63795e-11
1.52757e-09
-7.27508e-11
1.54493e-09
-6.90721e-11
1.56136e-09
-6.53484e-11
1.57684e-09
-6.15866e-11
1.59137e-09
-5.77915e-11
1.60493e-09
-5.3964e-11
1.61752e-09
-5.01035e-11
1.62912e-09
-4.62104e-11
1.63974e-09
-4.22892e-11
1.64936e-09
-3.83455e-11
1.65799e-09
-3.43833e-11
1.66561e-09
-3.04048e-11
1.67222e-09
-2.641e-11
1.67782e-09
-2.23977e-11
1.68241e-09
-1.83686e-11
1.68597e-09
-1.43273e-11
1.68852e-09
-1.028e-11
1.69005e-09
-6.23096e-12
1.69055e-09
-2.18006e-12
1.69003e-09
1.8749e-12
1.68849e-09
5.93469e-12
1.68592e-09
9.99729e-12
1.68233e-09
1.40576e-11
1.67772e-09
1.81095e-11
1.6721e-09
2.21493e-11
1.66546e-09
2.61768e-11
1.65781e-09
3.01938e-11
1.64915e-09
3.4201e-11
1.63948e-09
3.81952e-11
1.62881e-09
4.2171e-11
1.61715e-09
4.61229e-11
1.60451e-09
5.0046e-11
1.59088e-09
5.39382e-11
1.57628e-09
5.77989e-11
1.56072e-09
6.16276e-11
1.54421e-09
6.54227e-11
1.52675e-09
6.91798e-11
1.50835e-09
7.28925e-11
1.48905e-09
7.65543e-11
1.46883e-09
8.01603e-11
1.44773e-09
8.37076e-11
1.42575e-09
8.71944e-11
1.40291e-09
9.0619e-11
1.37923e-09
9.39782e-11
1.35472e-09
9.7266e-11
1.32941e-09
1.00475e-10
1.30332e-09
1.03597e-10
1.27648e-09
1.06626e-10
1.2489e-09
1.09556e-10
1.22062e-09
1.12384e-10
1.19165e-09
1.15105e-10
1.16203e-09
1.17713e-10
1.1318e-09
1.20202e-10
1.10097e-09
1.22562e-10
1.0696e-09
1.24784e-10
1.0377e-09
1.2686e-10
1.00534e-09
1.28781e-10
9.72529e-10
1.30539e-10
9.39329e-10
1.32129e-10
9.05779e-10
1.33543e-10
8.71926e-10
1.34772e-10
8.37819e-10
1.35807e-10
8.0351e-10
1.36638e-10
7.69053e-10
1.37256e-10
7.34503e-10
1.37649e-10
6.9992e-10
1.37806e-10
6.65364e-10
1.37717e-10
6.30897e-10
1.37372e-10
5.96584e-10
1.36763e-10
5.62494e-10
1.35881e-10
5.28697e-10
1.34714e-10
4.95265e-10
1.33252e-10
4.62274e-10
1.31482e-10
4.29801e-10
1.29394e-10
3.97926e-10
1.26975e-10
3.66729e-10
1.24217e-10
3.36293e-10
1.2111e-10
3.06702e-10
1.17649e-10
2.7804e-10
1.13826e-10
2.50394e-10
1.09636e-10
2.23849e-10
1.05077e-10
1.9849e-10
1.00148e-10
1.74401e-10
9.48491e-11
1.51664e-10
8.91862e-11
1.30356e-10
8.31685e-11
1.10552e-10
7.68117e-11
9.23175e-11
7.0139e-11
7.57103e-11
6.3184e-11
6.07783e-11
5.59929e-11
4.75553e-11
4.86276e-11
3.60592e-11
4.11682e-11
2.62876e-11
3.37185e-11
1.8215e-11
2.64125e-11
1.17883e-11
1.94215e-11
6.92197e-12
1.29634e-11
3.49469e-12
7.31326e-12
1.34348e-12
2.81418e-12
2.6176e-13
-1.18329e-13
-9.78041e-13
6.39456e-13
-2.97667e-13
2.65628e-12
-2.57517e-12
5.99622e-12
-7.60697e-12
1.086e-11
-1.41137e-11
1.7416e-11
-2.15493e-11
2.57564e-11
-2.96323e-11
3.59513e-11
-3.81464e-11
4.80151e-11
-4.69122e-11
6.19498e-11
-5.57994e-11
7.77382e-11
-6.46941e-11
9.53406e-11
-7.35092e-11
1.14717e-10
-8.21686e-11
1.35817e-10
-9.06155e-11
1.58576e-10
-9.87937e-11
1.82935e-10
-1.06656e-10
2.08818e-10
-1.14169e-10
2.3615e-10
-1.21299e-10
2.64855e-10
-1.28024e-10
2.94843e-10
-1.34322e-10
3.26033e-10
-1.40177e-10
3.58331e-10
-1.45582e-10
3.91652e-10
-1.5053e-10
4.25901e-10
-1.55023e-10
4.6099e-10
-1.59059e-10
4.96824e-10
-1.62649e-10
5.33316e-10
-1.65796e-10
5.70379e-10
-1.68512e-10
6.07923e-10
-1.70812e-10
6.4587e-10
-1.72705e-10
6.84133e-10
-1.74207e-10
7.22634e-10
-1.75331e-10
7.61298e-10
-1.76095e-10
8.00051e-10
-1.76513e-10
8.38819e-10
-1.76599e-10
8.77534e-10
-1.76366e-10
9.16134e-10
-1.75829e-10
9.54554e-10
-1.75007e-10
9.92735e-10
-1.7391e-10
1.03062e-09
-1.72547e-10
1.06815e-09
-1.70934e-10
1.10529e-09
-1.69086e-10
1.14197e-09
-1.67012e-10
1.17815e-09
-1.64725e-10
1.2138e-09
-1.62236e-10
1.24885e-09
-1.59554e-10
1.28329e-09
-1.56689e-10
1.31706e-09
-1.53655e-10
1.35014e-09
-1.50462e-10
1.38249e-09
-1.47118e-10
1.41408e-09
-1.43629e-10
1.44487e-09
-1.40003e-10
1.47484e-09
-1.36249e-10
1.50397e-09
-1.32379e-10
1.53222e-09
-1.284e-10
1.55958e-09
-1.24317e-10
1.58602e-09
-1.20131e-10
1.61152e-09
-1.1585e-10
1.63606e-09
-1.11484e-10
1.65962e-09
-1.07042e-10
1.6822e-09
-1.02527e-10
1.70376e-09
-9.79408e-11
1.72429e-09
-9.3286e-11
1.74379e-09
-8.85679e-11
1.76224e-09
-8.37936e-11
1.77962e-09
-7.8971e-11
1.79593e-09
-7.41034e-11
1.81116e-09
-6.91909e-11
1.82529e-09
-6.42342e-11
1.83832e-09
-5.92375e-11
1.85023e-09
-5.42066e-11
1.86104e-09
-4.91474e-11
1.87072e-09
-4.40642e-11
1.87927e-09
-3.89584e-11
1.88669e-09
-3.38294e-11
1.89297e-09
-2.86773e-11
1.8981e-09
-2.35054e-11
1.9021e-09
-1.83206e-11
1.90495e-09
-1.31294e-11
1.90665e-09
-7.93397e-12
1.9072e-09
-2.73354e-12
1.9066e-09
2.47315e-12
1.90485e-09
7.68492e-12
1.90195e-09
1.28975e-11
1.89791e-09
1.81049e-11
1.89272e-09
2.33008e-11
1.88638e-09
2.84828e-11
1.87891e-09
3.36514e-11