/*--------------------------------*- C++ -*----------------------------------*\
  =========                 |
  \\      /  F ield         | OpenFOAM: The Open Source CFD Toolbox
   \\    /   O peration     | Website:  https://openfoam.org
    \\  /    A nd           | Version:  7
     \\/     M anipulation  |
\*---------------------------------------------------------------------------*/
FoamFile
{
    version     2.0;
    format      ascii;
    class       surfaceScalarField;
    location    "0.075";
    object      phi;
}
// * * * * * * * * * * * * * * * * * * * * * * * * * * * * * * * * * * * * * //

dimensions      [0 3 -1 0 0 0 0];

internalField   nonuniform List<scalar> 
101920
(
2.06809e-12
-2.04123e-12
1.26699e-11
-1.06055e-11
3.24877e-11
-1.98173e-11
5.85876e-11
-2.6099e-11
8.78711e-11
-2.92851e-11
1.18174e-10
-3.02988e-11
1.48128e-10
-2.99571e-11
1.76492e-10
-2.83662e-11
2.02531e-10
-2.60382e-11
2.25326e-10
-2.27981e-11
2.44316e-10
-1.89918e-11
2.58898e-10
-1.45822e-11
2.68969e-10
-1.00707e-11
2.74337e-10
-5.36914e-12
2.75267e-10
-9.28088e-13
2.71951e-10
3.31513e-12
2.64781e-10
7.17097e-12
2.5418e-10
1.05983e-11
2.40898e-10
1.32864e-11
2.25309e-10
1.55842e-11
2.08108e-10
1.7205e-11
1.89854e-10
1.82499e-11
1.71115e-10
1.87391e-11
1.5226e-10
1.88511e-11
1.33764e-10
1.84978e-11
1.1587e-10
1.78944e-11
9.87192e-11
1.71529e-11
8.24836e-11
1.6235e-11
6.7345e-11
1.51389e-11
5.35141e-11
1.38291e-11
4.11041e-11
1.24068e-11
3.00502e-11
1.10533e-11
2.03997e-11
9.64955e-12
1.22013e-11
8.19883e-12
5.55426e-12
6.64894e-12
3.38032e-13
5.2169e-12
-3.42555e-12
3.76419e-12
-5.97855e-12
2.55257e-12
-7.21883e-12
1.24009e-12
-7.43469e-12
2.16805e-13
-6.69085e-12
-7.42299e-13
-5.17839e-12
-1.5114e-12
-3.05541e-12
-2.12389e-12
-3.43301e-13
-2.71333e-12
2.84974e-12
-3.19579e-12
6.51741e-12
-3.66924e-12
1.05205e-11
-4.00301e-12
1.48205e-11
-4.29984e-12
1.9333e-11
-4.51133e-12
2.40187e-11
-4.68556e-12
2.8782e-11
-4.76462e-12
3.35214e-11
-4.74111e-12
3.81205e-11
-4.60046e-12
4.24767e-11
-4.35588e-12
4.65418e-11
-4.06736e-12
5.0238e-11
-3.69436e-12
5.35037e-11
-3.26537e-12
5.63313e-11
-2.82905e-12
5.86351e-11
-2.30112e-12
6.03709e-11
-1.73682e-12
6.16907e-11
-1.3208e-12
6.2732e-11
-1.03926e-12
6.35695e-11
-8.38172e-13
6.4321e-11
-7.50706e-13
6.50915e-11
-7.69452e-13
6.59141e-11
-8.22483e-13
6.68208e-11
-9.06723e-13
6.79028e-11
-1.08319e-12
6.91795e-11
-1.27733e-12
7.05607e-11
-1.3805e-12
7.19692e-11
-1.40852e-12
7.33526e-11
-1.38362e-12
7.46341e-11
-1.27993e-12
7.57182e-11
-1.08348e-12
7.65851e-11
-8.66858e-13
7.72643e-11
-6.76899e-13
7.77032e-11
-4.37458e-13
7.78266e-11
-1.24034e-13
7.76092e-11
2.17726e-13
7.70522e-11
5.56938e-13
7.61664e-11
8.83924e-13
7.50088e-11
1.15611e-12
7.37268e-11
1.28181e-12
7.24528e-11
1.27427e-12
7.12467e-11
1.20493e-12
7.01569e-11
1.09067e-12
6.92243e-11
9.34907e-13
6.84787e-11
7.46253e-13
6.79112e-11
5.67349e-13
6.74978e-11
4.13748e-13
6.72598e-11
2.38114e-13
6.7242e-11
1.77644e-14
6.74828e-11
-2.40234e-13
6.80155e-11
-5.32217e-13
6.88867e-11
-8.71294e-13
7.0134e-11
-1.24882e-12
7.17294e-11
-1.59679e-12
7.36001e-11
-1.87113e-12
7.56747e-11
-2.07469e-12
7.78814e-11
-2.20658e-12
8.01461e-11
-2.26424e-12
8.23861e-11
-2.23909e-12
8.45203e-11
-2.13414e-12
8.64998e-11
-1.97987e-12
8.82937e-11
-1.79314e-12
8.98649e-11
-1.57097e-12
9.11681e-11
-1.30338e-12
9.21473e-11
-9.79391e-13
9.27594e-11
-6.11683e-13
9.29823e-11
-2.20852e-13
9.28012e-11
1.82682e-13
9.22299e-11
5.71865e-13
9.13223e-11
9.08022e-13
9.01565e-11
1.16509e-12
8.88166e-11
1.33907e-12
8.73596e-11
1.45698e-12
8.5816e-11
1.54387e-12
8.42199e-11
1.59719e-12
8.25878e-11
1.63315e-12
8.08944e-11
1.6944e-12
7.90993e-11
1.7963e-12
7.71754e-11
1.92458e-12
7.51147e-11
2.06e-12
7.29292e-11
2.18384e-12
7.06283e-11
2.29937e-12
6.81998e-11
2.42783e-12
6.56284e-11
2.57115e-12
6.28957e-11
2.73283e-12
5.99542e-11
2.9411e-12
5.67593e-11
3.19405e-12
5.3304e-11
3.45533e-12
4.95893e-11
3.71518e-12
4.56254e-11
3.9644e-12
4.14623e-11
4.16357e-12
3.71587e-11
4.30314e-12
3.27547e-11
4.4029e-12
2.8309e-11
4.4443e-12
2.39183e-11
4.38881e-12
1.96694e-11
4.24814e-12
1.56068e-11
4.06352e-12
1.17738e-11
3.834e-12
8.22544e-12
3.54917e-12
4.99204e-12
3.23452e-12
2.0989e-12
2.8935e-12
-4.0566e-13
2.50399e-12
-2.48348e-12
2.07715e-12
-4.12475e-12
1.64039e-12
-5.3126e-12
1.18728e-12
-6.0091e-12
6.96253e-13
-6.20537e-12
1.95776e-13
-5.94697e-12
-2.58725e-13
-5.29404e-12
-6.52352e-13
-4.30186e-12
-9.90742e-13
-3.05788e-12
-1.24308e-12
-1.71212e-12
-1.34664e-12
-4.42885e-13
-1.27151e-12
5.44342e-13
-9.8887e-13
9.47513e-13
-4.03264e-13
5.20821e-13
4.26305e-13
5.19875e-13
-4.00553e-12
1.96801e-12
1.00516e-12
-1.56168e-11
2.18792e-11
-4.06916e-11
5.3695e-11
-5.79101e-11
9.14185e-11
-6.70102e-11
1.32018e-10
-7.08989e-11
1.72837e-10
-7.07774e-11
2.12242e-10
-6.77681e-11
2.48719e-10
-6.25148e-11
2.814e-10
-5.54761e-11
3.0935e-10
-4.69398e-11
3.32178e-10
-3.74103e-11
3.49435e-10
-2.73274e-11
3.61141e-10
-1.70773e-11
3.67201e-10
-6.98637e-12
3.68036e-10
2.47719e-12
3.64053e-10
1.1157e-11
3.55786e-10
1.88632e-11
3.43708e-10
2.53637e-11
3.28736e-10
3.05545e-11
3.11434e-10
3.45052e-11
2.92532e-10
3.71545e-11
2.7271e-10
3.8564e-11
2.52591e-10
3.89744e-11
2.32449e-10
3.86388e-11
2.12692e-10
3.76525e-11
1.93741e-10
3.61018e-11
1.75854e-10
3.41224e-11
1.59291e-10
3.17043e-11
1.44155e-10
2.8965e-11
1.30579e-10
2.59873e-11
1.18705e-10
2.29261e-11
1.08679e-10
1.96734e-11
1.00458e-10
1.64172e-11
9.40299e-11
1.30731e-11
8.94236e-11
9.82226e-12
8.6474e-11
6.71351e-12
8.53049e-11
3.72035e-12
8.55428e-11
1.00179e-12
8.72032e-11
-1.44499e-12
9.0079e-11
-3.61987e-12
9.39732e-11
-5.40468e-12
9.88189e-11
-6.96671e-12
1.0441e-10
-8.30207e-12
1.10672e-10
-9.45424e-12
1.17492e-10
-1.04884e-11
1.24783e-10
-1.12961e-11
1.32455e-10
-1.19724e-11
1.40376e-10
-1.24329e-11
1.48421e-10
-1.27294e-11
1.5653e-10
-1.28712e-11
1.64545e-10
-1.27531e-11
1.72318e-10
-1.23707e-11
1.79789e-10
-1.18285e-11
1.8683e-10
-1.1106e-11
1.93306e-10
-1.01705e-11
1.99199e-10
-9.16143e-12
2.04455e-10
-8.08163e-12
2.09012e-10
-6.85843e-12
2.12914e-10
-5.64169e-12
2.16236e-10
-4.64024e-12
2.19032e-10
-3.83661e-12
2.21442e-10
-3.24977e-12
2.23653e-10
-2.96043e-12
2.25756e-10
-2.87372e-12
2.27816e-10
-2.88111e-12
2.29905e-10
-2.99573e-12
2.32044e-10
-3.22139e-12
2.34211e-10
-3.44238e-12
2.36384e-10
-3.55546e-12
2.38545e-10
-3.56988e-12
2.40621e-10
-3.45891e-12
2.42514e-10
-3.17477e-12
2.44176e-10
-2.74725e-12
2.45554e-10
-2.24515e-12
2.46576e-10
-1.6994e-12
2.47194e-10
-1.05651e-12
2.47382e-10
-3.10939e-13
2.47128e-10
4.7442e-13
2.46421e-10
1.26484e-12
2.453e-10
2.00561e-12
2.43858e-10
2.6018e-12
2.42184e-10
2.95674e-12
2.4038e-10
3.07683e-12
2.38546e-10
3.03819e-12
2.36767e-10
2.86784e-12
2.35098e-10
2.60236e-12
2.33556e-10
2.28683e-12
2.32171e-10
1.95269e-12
2.3097e-10
1.61578e-12
2.29977e-10
1.22872e-12
2.29238e-10
7.54842e-13
2.28792e-10
2.05774e-13
2.28684e-10
-4.22815e-13
2.28944e-10
-1.13066e-12
2.29569e-10
-1.87167e-12
2.30535e-10
-2.56126e-12
2.31785e-10
-3.12137e-12
2.33226e-10
-3.51816e-12
2.3477e-10
-3.75124e-12
2.36324e-10
-3.81854e-12
2.3779e-10
-3.70504e-12
2.39083e-10
-3.42675e-12
2.40134e-10
-3.03129e-12
2.40877e-10
-2.53532e-12
2.41238e-10
-1.93181e-12
2.41155e-10
-1.21936e-12
2.40579e-10
-4.01509e-13
2.39471e-10
4.96476e-13
2.37804e-10
1.44607e-12
2.35563e-10
2.42402e-12
2.32772e-10
3.36305e-12
2.29501e-10
4.18242e-12
2.25815e-10
4.85314e-12
2.21782e-10
5.37341e-12
2.1748e-10
5.7595e-12
2.12967e-10
6.0575e-12
2.08264e-10
6.29985e-12
2.03381e-10
6.51428e-12
1.98313e-10
6.76018e-12
1.93042e-10
7.06499e-12
1.87569e-10
7.3979e-12
1.81887e-10
7.74285e-12
1.75975e-10
8.09707e-12
1.69834e-10
8.44103e-12
1.63472e-10
8.78978e-12
1.56858e-10
9.18376e-12
1.49967e-10
9.62307e-12
1.42801e-10
1.01055e-11
1.35338e-10
1.06559e-11
1.27538e-10
1.12529e-11
1.19426e-10
1.18239e-11
1.11065e-10
1.23229e-11
1.02491e-10
1.27379e-11
9.37502e-11
1.30452e-11
8.49436e-11
1.3211e-11
7.61664e-11
1.3223e-11
6.74835e-11
1.3073e-11
5.89852e-11
1.27461e-11
5.07832e-11
1.22641e-11
4.29512e-11
1.16645e-11
3.55474e-11
1.09515e-11
2.8659e-11
1.01223e-11
2.2365e-11
9.18786e-12
1.67047e-11
8.16432e-12
1.17229e-11
7.05902e-12
7.4936e-12
5.86976e-12
4.06272e-12
4.6183e-12
1.41757e-12
3.34188e-12
-4.54679e-13
2.06753e-12
-1.55147e-12
8.35384e-13
-1.92432e-12
-2.82777e-13
-1.6981e-12
-1.21862e-12
-1.01549e-12
-1.92521e-12
-2.65701e-14
-2.33337e-12
1.03475e-12
-2.33095e-12
1.80601e-12
-1.75981e-12
1.88212e-12
-4.79763e-13
9.52353e-13
1.35622e-12
1.47142e-12
-1.46069e-11
1.65754e-11
-2.67421e-11
-3.48257e-12
-2.24687e-11
-4.49663e-11
-6.12243e-12
-7.42614e-11
1.75172e-11
-9.06481e-11
4.50335e-11
-9.84108e-11
7.39828e-11
-9.9725e-11
1.02956e-10
-9.67402e-11
1.30608e-10
-9.01673e-11
1.56396e-10
-8.12678e-11
1.79699e-10
-7.0245e-11
2.00286e-10
-5.79952e-11
2.17853e-10
-4.48958e-11
2.32348e-10
-3.15694e-11
2.4388e-10
-1.85218e-11
2.52458e-10
-6.09794e-12
2.58247e-10
5.36313e-12
2.61505e-10
1.56087e-11
2.62617e-10
2.42535e-11
2.61729e-10
3.14416e-11
2.59305e-10
3.69344e-11
2.55727e-10
4.07282e-11
2.51131e-10
4.3157e-11
2.45905e-10
4.4198e-11
2.40484e-10
4.4058e-11
2.35071e-10
4.30644e-11
2.29851e-10
4.1321e-11
2.25007e-10
3.89663e-11
2.20686e-10
3.60231e-11
2.17095e-10
3.25562e-11
2.14246e-10
2.8835e-11
2.12375e-10
2.47988e-11
2.11286e-10
2.0765e-11
2.11241e-10
1.64641e-11
2.12062e-10
1.22538e-11
2.13898e-10
7.98864e-12
2.16607e-10
4.00424e-12
2.20197e-10
1.31248e-13
2.24564e-10
-3.36202e-12
2.29764e-10
-6.64482e-12
2.35523e-10
-9.37956e-12
2.41989e-10
-1.1872e-11
2.48975e-10
-1.39556e-11
2.56362e-10
-1.56909e-11
2.6424e-10
-1.7332e-11
2.72285e-10
-1.85313e-11
2.80629e-10
-1.96414e-11
2.89089e-10
-2.04317e-11
2.97614e-10
-2.09596e-11
3.06183e-10
-2.13032e-11
3.14615e-10
-2.13016e-11
3.22868e-10
-2.10085e-11
3.30929e-10
-2.04318e-11
3.38663e-10
-1.9561e-11
3.46015e-10
-1.8458e-11
3.52985e-10
-1.71412e-11
3.5949e-10
-1.56646e-11
3.65473e-10
-1.40654e-11
3.71002e-10
-1.23875e-11
3.76115e-10
-1.07547e-11
3.80779e-10
-9.30248e-12
3.85029e-10
-8.08609e-12
3.88919e-10
-7.13931e-12
3.92459e-10
-6.49945e-12
3.95681e-10
-6.09703e-12
3.98662e-10
-5.86383e-12
4.01463e-10
-5.79751e-12
4.04069e-10
-5.82621e-12
4.06478e-10
-5.85176e-12
4.08723e-10
-5.80027e-12
4.10783e-10
-5.6284e-12
4.12631e-10
-5.30619e-12
4.14247e-10
-4.7902e-12
4.15622e-10
-4.12013e-12
4.16733e-10
-3.35414e-12
4.17523e-10
-2.49007e-12
4.17983e-10
-1.5162e-12
4.1811e-10
-4.3907e-13
4.17905e-10
6.77529e-13
4.17385e-10
1.78335e-12
4.16566e-10
2.82332e-12
4.1549e-10
3.67866e-12
4.14178e-10
4.26904e-12
4.1265e-10
4.60501e-12
4.10948e-10
4.74362e-12
4.09113e-10
4.70376e-12
4.07201e-10
4.51334e-12
4.05237e-10
4.25021e-12
4.03252e-10
3.93907e-12
4.01294e-10
3.57349e-12
3.99386e-10
3.13671e-12
3.97546e-10
2.59436e-12
3.95785e-10
1.96695e-12
3.94101e-10
1.25923e-12
3.92509e-10
4.59193e-13
3.90986e-10
-3.48427e-13
3.89494e-10
-1.06876e-12
3.88025e-10
-1.65239e-12
3.86553e-10
-2.04562e-12
3.85028e-10
-2.22559e-12
3.83393e-10
-2.18351e-12
3.81591e-10
-1.90389e-12
3.79587e-10
-1.42178e-12
3.7733e-10
-7.75097e-13
3.74757e-10
3.83831e-14
3.71821e-10
1.00382e-12
3.68495e-10
2.10602e-12
3.64751e-10
3.34555e-12
3.60563e-10
4.68763e-12
3.55924e-10
6.08459e-12
3.50847e-10
7.50053e-12
3.45342e-10
8.8672e-12
3.39422e-10
1.01022e-11
3.33109e-10
1.11664e-11
3.26424e-10
1.2058e-11
3.19394e-10
1.27916e-11
3.12052e-10
1.34015e-11
3.04422e-10
1.3931e-11
2.96515e-10
1.44221e-11
2.88355e-10
1.49206e-11
2.79958e-10
1.54607e-11
2.7132e-10
1.60336e-11
2.62454e-10
1.66064e-11
2.53378e-10
1.71726e-11
2.44068e-10
1.77512e-11
2.34507e-10
1.83501e-11
2.24723e-10
1.89668e-11
2.14724e-10
1.96214e-11
2.0449e-10
2.03399e-11
1.94046e-10
2.11004e-11
1.83444e-10
2.18542e-11
1.72695e-10
2.25724e-11
1.61806e-10
2.32108e-11
1.50839e-10
2.37038e-11
1.39854e-10
2.40268e-11
1.28887e-10
2.41772e-11
1.17994e-10
2.41158e-11
1.07265e-10
2.3803e-11
9.67568e-11
2.32555e-11
8.65106e-11
2.25118e-11
7.66077e-11
2.15681e-11
6.71391e-11
2.04198e-11
5.81567e-11
1.91039e-11
4.97105e-11
1.76332e-11
4.18836e-11
1.59901e-11
3.47454e-11
1.41966e-11
2.83177e-11
1.22969e-11
2.26316e-11
1.03037e-11
1.77467e-11
8.22668e-12
1.36825e-11
6.13301e-12
1.03986e-11
4.12106e-12
7.86545e-12
2.2498e-12
6.07013e-12
5.74004e-13
4.92289e-12
-7.80249e-13
4.25213e-12
-1.66387e-12
3.85128e-12
-1.9305e-12
3.47386e-12
-1.38267e-12
2.71034e-12
2.8292e-13
1.22034e-12
2.84571e-12
2.69119e-12
-2.19825e-11
3.85586e-11
-4.61818e-11
2.0719e-11
-5.42695e-11
-3.68803e-11
-4.99035e-11
-7.86263e-11
-3.7642e-11
-1.02908e-10
-2.09151e-11
-1.15142e-10
-1.51371e-12
-1.19125e-10
1.88128e-11
-1.17069e-10
3.94737e-11
-1.10825e-10
5.96552e-11
-1.01448e-10
7.9162e-11
-8.97528e-11
9.77617e-11
-7.65971e-11
1.15424e-10
-6.25592e-11
1.32052e-10
-4.81966e-11
1.47517e-10
-3.39892e-11
1.61914e-10
-2.04909e-11
1.75253e-10
-7.97648e-12
1.87576e-10
3.28522e-12
1.98801e-10
1.30305e-11
2.09202e-10
2.10375e-11
2.1866e-10
2.74733e-11
2.27291e-10
3.20999e-11
2.35369e-10
3.50819e-11
2.42862e-10
3.67032e-11
2.49808e-10
3.71144e-11
2.56476e-10
3.63935e-11
2.62957e-10
3.48397e-11
2.69461e-10
3.24651e-11
2.75957e-10
2.95235e-11
2.82523e-10
2.59896e-11
2.89235e-10
2.21218e-11
2.96067e-10
1.7966e-11
3.03244e-10
1.35882e-11
3.10582e-10
9.12387e-12
3.18238e-10
4.59759e-12
3.26045e-10
1.79765e-13
3.34156e-10
-4.10796e-12
3.42453e-10
-8.16611e-12
3.51027e-10
-1.19371e-11
3.59731e-10
-1.53459e-11
3.68717e-10
-1.83643e-11
3.77854e-10
-2.10078e-11
3.87132e-10
-2.32335e-11
3.96621e-10
-2.51813e-11
4.06078e-10
-2.67885e-11
4.15627e-10
-2.80823e-11
4.25148e-10
-2.916e-11
4.34568e-10
-2.98506e-11
4.43907e-10
-3.03e-11
4.53051e-10
-3.04427e-11
4.61994e-10
-3.02473e-11
4.70735e-10
-2.97496e-11
4.79194e-10
-2.88891e-11
4.87358e-10
-2.77263e-11
4.95206e-10
-2.6305e-11
5.02702e-10
-2.46373e-11
5.09836e-10
-2.27973e-11
5.16611e-10
-2.08401e-11
5.23033e-10
-1.8811e-11
5.29107e-10
-1.68271e-11
5.3481e-10
-1.5006e-11
5.40145e-10
-1.34214e-11
5.45125e-10
-1.21169e-11
5.49723e-10
-1.10975e-11
5.53932e-10
-1.03068e-11
5.57757e-10
-9.6871e-12
5.61191e-10
-9.23072e-12
5.64232e-10
-8.86837e-12
5.66908e-10
-8.52738e-12
5.69277e-10
-8.16817e-12
5.71355e-10
-7.7073e-12
5.73134e-10
-7.08695e-12
5.74633e-10
-6.28865e-12
5.75853e-10
-5.33955e-12
5.76773e-10
-4.27409e-12
5.77373e-10
-3.08951e-12
5.7768e-10
-1.82102e-12
5.77734e-10
-4.92361e-13
5.77528e-10
8.8272e-13
5.77068e-10
2.24425e-12
5.76372e-10
3.51995e-12
5.75436e-10
4.61421e-12
5.74232e-10
5.47095e-12
5.72746e-10
6.09069e-12
5.71008e-10
6.48206e-12
5.69036e-10
6.6757e-12
5.66835e-10
6.7146e-12
5.64433e-10
6.65263e-12
5.6186e-10
6.51106e-12
5.5916e-10
6.27208e-12
5.56346e-10
5.95145e-12
5.53399e-10
5.54294e-12
5.50338e-10
5.02942e-12
5.47153e-10
4.44452e-12
5.43806e-10
3.80573e-12
5.40293e-10
3.16459e-12
5.366e-10
2.62302e-12
5.32719e-10
2.22781e-12
5.28654e-10
2.01979e-12
5.24382e-10
2.0464e-12
5.19892e-10
2.30646e-12
5.15176e-10
2.81135e-12
5.10198e-10
3.55679e-12
5.0493e-10
4.49317e-12
4.99353e-10
5.61504e-12
4.93429e-10
6.92685e-12
4.87144e-10
8.39082e-12
4.80506e-10
9.9842e-12
4.73509e-10
1.16869e-11
4.66142e-10
1.34532e-11
4.5841e-10
1.52336e-11
4.50319e-10
1.69591e-11
4.41865e-10
1.8556e-11
4.3304e-10
1.99906e-11
4.23839e-10
2.12586e-11
4.1426e-10
2.23711e-11
4.0431e-10
2.33503e-11
3.94017e-10
2.42242e-11
3.83397e-10
2.50429e-11
3.7246e-10
2.58587e-11
3.61246e-10
2.66754e-11
3.49795e-10
2.74845e-11
3.38095e-10
2.83062e-11
3.26132e-10
2.91344e-11
3.13945e-10
2.99379e-11
3.01555e-10
3.07403e-11
2.88943e-10
3.15775e-11
2.76137e-10
3.24251e-11
2.63201e-10
3.32749e-11
2.50143e-10
3.41563e-11
2.36971e-10
3.50262e-11
2.23751e-10
3.57923e-11
2.10541e-10
3.64216e-11
1.9734e-10
3.69057e-11
1.84174e-10
3.71928e-11
1.71118e-10
3.72314e-11
1.58217e-10
3.70164e-11
1.45479e-10
3.65402e-11
1.32962e-10
3.57717e-11
1.2075e-10
3.47246e-11
1.0888e-10
3.34382e-11
9.73945e-11
3.19058e-11
8.63845e-11
3.01144e-11
7.59236e-11
2.80939e-11
6.60353e-11
2.58781e-11
5.67687e-11
2.34631e-11
4.8217e-11
2.08485e-11
4.04355e-11
1.80847e-11
3.34232e-11
1.52373e-11
2.71984e-11
1.23558e-11
2.18238e-11
9.49627e-12
1.73197e-11
6.75631e-12
1.36208e-11
4.27374e-12
1.06705e-11
2.16897e-12
8.411e-12
5.95284e-13
6.66993e-12
-1.89211e-13
5.17407e-12
1.13057e-13
3.54134e-12
1.91503e-12
1.48196e-12
4.90452e-12
4.17263e-12
-2.56731e-11
6.42305e-11
-5.62734e-11
5.13164e-11
-7.15774e-11
-2.1575e-11
-7.4398e-11
-7.58085e-11
-6.90475e-11
-1.08257e-10
-5.85544e-11
-1.25637e-10
-4.49823e-11
-1.32699e-10
-2.94994e-11
-1.32553e-10
-1.29346e-11
-1.27391e-10
4.27303e-12
-1.18651e-10
2.19689e-11
-1.07449e-10
3.99391e-11
-9.45667e-11
5.80705e-11
-8.06918e-11
7.6387e-11
-6.65109e-11
9.47865e-11
-5.23918e-11
1.13329e-10
-3.90329e-11
1.31633e-10
-2.62851e-11
1.50033e-10
-1.51154e-11
1.68108e-10
-5.05136e-12
1.86024e-10
3.1262e-12
2.03609e-10
9.88775e-12
2.20836e-10
1.48754e-11
2.37454e-10
1.84638e-11
2.53634e-10
2.05253e-11
2.69481e-10
2.1267e-11
2.84868e-10
2.10099e-11
2.99947e-10
1.97594e-11
3.14613e-10
1.77987e-11
3.2907e-10
1.50687e-11
3.43136e-10
1.1924e-11
3.57084e-10
8.17404e-12
3.70764e-10
4.28434e-12
3.84258e-10
9.10358e-14
3.97499e-10
-4.11656e-12
4.10553e-10
-8.45556e-12
4.23385e-10
-1.26525e-11
4.36078e-10
-1.6799e-11
4.4851e-10
-2.06003e-11
4.60826e-10
-2.4254e-11
4.72937e-10
-2.74584e-11
4.8493e-10
-3.03572e-11
4.96803e-10
-3.28809e-11
5.08521e-10
-3.49512e-11
5.20139e-10
-3.67971e-11
5.31535e-10
-3.81878e-11
5.42804e-10
-3.93496e-11
5.53813e-10
-4.01712e-11
5.64605e-10
-4.06449e-11
5.75131e-10
-4.0823e-11
5.85344e-10
-4.06576e-11
5.95254e-10
-4.01561e-11
6.04833e-10
-3.93278e-11
6.14106e-10
-3.81635e-11
6.23065e-10
-3.66831e-11
6.31685e-10
-3.49261e-11
6.39985e-10
-3.29366e-11
6.47958e-10
-3.07681e-11
6.556e-10
-2.84836e-11
6.6294e-10
-2.61494e-11
6.69968e-10
-2.38534e-11
6.76626e-10
-2.16664e-11
6.82886e-10
-1.96785e-11
6.88728e-10
-1.79585e-11
6.94123e-10
-1.6494e-11
6.9907e-10
-1.5254e-11
7.03582e-10
-1.4198e-11
7.07633e-10
-1.32819e-11
7.11207e-10
-1.24414e-11
7.14303e-10
-1.16228e-11
7.16949e-10
-1.08139e-11
7.19182e-10
-9.94047e-12
7.21038e-10
-8.94183e-12
7.22562e-10
-7.81225e-12
7.23767e-10
-6.54484e-12
7.24652e-10
-5.15987e-12
7.25222e-10
-3.65932e-12
7.25482e-10
-2.08065e-12
7.25462e-10
-4.73755e-13
7.25182e-10
1.1617e-12
7.2466e-10
2.76812e-12
7.23904e-10
4.27682e-12
7.22885e-10
5.63353e-12
7.21576e-10
6.78049e-12
7.19951e-10
7.71629e-12
7.17996e-10
8.436e-12
7.15722e-10
8.94931e-12
7.13133e-10
9.30491e-12
7.10248e-10
9.53897e-12
7.07079e-10
9.67888e-12
7.03639e-10
9.71049e-12
6.99954e-10
9.63585e-12
6.96005e-10
9.49271e-12
6.91768e-10
9.26567e-12
6.87253e-10
8.9614e-12
6.82428e-10
8.63181e-12
6.7727e-10
8.32187e-12
6.71784e-10
8.10846e-12
6.65967e-10
8.04429e-12
6.59837e-10
8.14983e-12
6.53401e-10
8.4834e-12
6.46637e-10
9.07023e-12
6.39559e-10
9.88832e-12
6.32182e-10
1.0933e-11
6.24481e-10
1.21953e-11
6.16434e-10
1.36619e-11
6.08042e-10
1.53189e-11
5.99303e-10
1.71304e-11
5.90219e-10
1.90682e-11
5.80794e-10
2.11106e-11
5.71032e-10
2.32159e-11
5.60934e-10
2.53317e-11
5.50502e-10
2.73927e-11
5.39717e-10
2.93406e-11
5.28553e-10
3.11544e-11
5.16996e-10
3.28169e-11
5.05054e-10
3.43138e-11
4.92727e-10
3.56779e-11
4.8e-10
3.69503e-11
4.66899e-10
3.81427e-11
4.53473e-10
3.92853e-11
4.39729e-10
4.04193e-11
4.2568e-10
4.15334e-11
4.11379e-10
4.26069e-11
3.96842e-10
4.36708e-11
3.82038e-10
4.47411e-11
3.66997e-10
4.57811e-11
3.51791e-10
4.67835e-11
3.36433e-10
4.77834e-11
3.20926e-10
4.87819e-11
3.05341e-10
4.97385e-11
2.89748e-10
5.06176e-11
2.74148e-10
5.13918e-11
2.58557e-10
5.20119e-11
2.43044e-10
5.24184e-11
2.27651e-10
5.25865e-11
2.12384e-10
5.24991e-11
1.97288e-10
5.2113e-11
1.82424e-10
5.14043e-11
1.6781e-10
5.03847e-11
1.53473e-10
4.9061e-11
1.39493e-10
4.74179e-11
1.25947e-10
4.5452e-11
1.12866e-10
4.31953e-11
1.00295e-10
4.06648e-11
8.83249e-11
3.78474e-11
7.70266e-11
3.47617e-11
6.6422e-11
3.14546e-11
5.65602e-11
2.79468e-11
4.75301e-11
2.42669e-11
3.9378e-11
2.05065e-11
3.21079e-11
1.67644e-11
2.57403e-11
1.31234e-11
2.03241e-11
9.69122e-12
1.58354e-11
6.65843e-12
1.21653e-11
4.26481e-12
9.18049e-12
2.79542e-12
6.6745e-12
2.61881e-12
4.29636e-12
4.29282e-12
1.71042e-12
7.49011e-12
5.88276e-12
-2.68999e-11
9.11345e-11
-6.04841e-11
8.48999e-11
-7.92543e-11
-2.79917e-12
-8.56442e-11
-6.94234e-11
-8.40633e-11
-1.0984e-10
-7.71106e-11
-1.32583e-10
-6.66368e-11
-1.43174e-10
-5.37809e-11
-1.45406e-10
-3.9212e-11
-1.41967e-10
-2.33116e-11
-1.3455e-10
-6.37355e-12
-1.24387e-10
1.15928e-11
-1.12533e-10
3.05508e-11
-9.96512e-11
5.03783e-11
-8.63409e-11
7.10296e-11
-7.304e-11
9.23193e-11
-6.03225e-11
1.14416e-10
-4.83812e-11
1.36813e-10
-3.75082e-11
1.59745e-10
-2.79794e-11
1.82657e-10
-1.97903e-11
2.05732e-10
-1.31842e-11
2.28633e-10
-8.02493e-12
2.515e-10
-4.40446e-12
2.73976e-10
-1.94819e-12
2.96013e-10
-7.69266e-13
3.17675e-10
-6.55156e-13
3.38917e-10
-1.4805e-12
3.59759e-10
-3.04309e-12
3.80075e-10
-5.24865e-12
4.00039e-10
-8.04037e-12
4.19397e-10
-1.11833e-11
4.38367e-10
-1.4684e-11
4.56809e-10
-1.83497e-11
4.74838e-10
-2.2146e-11
4.92321e-10
-2.59382e-11
5.09402e-10
-2.97347e-11
5.25892e-10
-3.32872e-11
5.4205e-10
-3.67572e-11
5.57682e-10
-3.98849e-11
5.72925e-10
-4.27013e-11
5.87822e-10
-4.52563e-11
6.02254e-10
-4.73106e-11
6.16441e-10
-4.91393e-11
6.30217e-10
-5.05743e-11
6.4365e-10
-5.16183e-11
6.56733e-10
-5.24345e-11
6.69399e-10
-5.28374e-11
6.81728e-10
-5.2973e-11
6.93661e-10
-5.2758e-11
7.05182e-10
-5.21776e-11
7.16318e-10
-5.1292e-11
7.27047e-10
-5.00576e-11
7.37388e-10
-4.85027e-11
7.47351e-10
-4.66482e-11
7.56957e-10
-4.45305e-11
7.6621e-10
-4.21883e-11
7.75099e-10
-3.96582e-11
7.83645e-10
-3.70282e-11
7.91864e-10
-3.43664e-11
7.99734e-10
-3.17263e-11
8.07243e-10
-2.91731e-11
8.14355e-10
-2.67879e-11
8.20997e-10
-2.46035e-11
8.27124e-10
-2.26202e-11
8.32731e-10
-2.08603e-11
8.37828e-10
-1.92963e-11
8.42395e-10
-1.78484e-11
8.46435e-10
-1.64811e-11
8.4997e-10
-1.5157e-11
8.52991e-10
-1.38362e-11
8.55511e-10
-1.246e-11
8.57567e-10
-1.09966e-11
8.59219e-10
-9.46448e-12
8.60499e-10
-7.82403e-12
8.61409e-10
-6.06912e-12
8.61984e-10
-4.23406e-12
8.62242e-10
-2.33902e-12
8.62188e-10
-4.21241e-13
8.61835e-10
1.51479e-12
8.61191e-10
3.41194e-12
8.60279e-10
5.18764e-12
8.59078e-10
6.83448e-12
8.57541e-10
8.31864e-12
8.55651e-10
9.60681e-12
8.53395e-10
1.06905e-11
8.50761e-10
1.15831e-11
8.4773e-10
1.23362e-11
8.44313e-10
1.29563e-11
8.40545e-10
1.34474e-11
8.36412e-10
1.38433e-11
8.319e-10
1.41491e-11
8.27015e-10
1.43769e-11
8.21746e-10
1.45338e-11
8.16079e-10
1.46289e-11
8.09989e-10
1.4723e-11
8.03447e-10
1.48627e-11
7.96479e-10
1.50771e-11
7.89097e-10
1.54264e-11
7.81288e-10
1.59588e-11
7.73072e-10
1.6699e-11
7.64473e-10
1.76684e-11
7.55493e-10
1.88687e-11
7.46139e-10
2.02865e-11
7.36415e-10
2.19172e-11
7.26321e-10
2.3756e-11
7.15864e-10
2.57763e-11
7.05051e-10
2.79444e-11
6.93878e-10
3.02416e-11
6.82348e-10
3.26396e-11
6.70476e-10
3.50878e-11
6.58269e-10
3.75383e-11
6.45712e-10
3.99478e-11
6.32786e-10
4.22667e-11
6.19479e-10
4.44602e-11
6.05775e-10
4.65212e-11
5.91645e-10
4.84446e-11
5.77101e-10
5.02224e-11
5.6217e-10
5.18825e-11
5.46833e-10
5.34797e-11
5.31096e-10
5.50213e-11
5.1503e-10
5.64845e-11
4.98666e-10
5.78966e-11
4.81981e-10
5.92917e-11
4.65009e-10
6.06431e-11
4.47817e-10
6.19311e-11
4.30412e-10
6.31862e-11
4.12782e-10
6.44125e-11
3.94995e-10
6.55705e-11
3.77122e-10
6.6655e-11
3.59181e-10
6.76795e-11
3.41205e-10
6.8593e-11
3.23267e-10
6.93289e-11
3.05402e-10
6.98768e-11
2.87608e-10
7.02108e-11
2.69933e-10
7.02616e-11
2.52441e-10
6.99911e-11
2.35154e-10
6.94006e-11
2.18084e-10
6.84744e-11
2.01289e-10
6.7179e-11
1.84833e-10
6.5517e-11
1.68743e-10
6.35078e-11
1.53064e-10
6.11312e-11
1.37882e-10
5.83765e-11
1.23268e-10
5.52791e-11
1.09253e-10
5.18617e-11
9.58956e-11
4.81179e-11
8.32913e-11
4.40585e-11
7.15055e-11
3.97334e-11
6.05621e-11
3.52112e-11
5.05199e-11
3.05491e-11
4.14632e-11
2.58205e-11
3.34384e-11
2.11467e-11
2.64393e-11
1.66899e-11
2.04588e-11
1.26399e-11
1.54682e-11
9.25601e-12
1.13694e-11
6.89421e-12
7.93806e-12
6.04986e-12
4.85826e-12
7.372e-12
1.85232e-12
1.04958e-11
7.73524e-12
-2.66222e-11
1.17753e-10
-6.03069e-11
1.18581e-10
-7.99225e-11
1.68177e-11
-8.79099e-11
-6.14352e-11
-8.78921e-11
-1.0986e-10
-8.25676e-11
-1.37909e-10
-7.35661e-11
-1.52176e-10
-6.1894e-11
-1.57076e-10
-4.81484e-11
-1.55709e-10
-3.2742e-11
-1.49963e-10
-1.57066e-11
-1.41421e-10
2.72336e-12
-1.30961e-10
2.25233e-11
-1.19449e-10
4.36352e-11
-1.07455e-10
6.61096e-11
-9.55151e-11
8.96255e-11
-8.38338e-11
1.14203e-10
-7.29614e-11
1.39535e-10
-6.28365e-11
1.65675e-10
-5.41223e-11
1.9224e-10
-4.63566e-11
2.19208e-10
-4.01554e-11
2.46285e-10
-3.51038e-11
2.73213e-10
-3.13318e-11
3.0015e-10
-2.88877e-11
3.26766e-10
-2.73843e-11
3.5309e-10
-2.69771e-11
3.78909e-10
-2.72991e-11
4.04341e-10
-2.84754e-11
4.29188e-10
-3.00935e-11
4.53488e-10
-3.23403e-11
4.77184e-10
-3.48789e-11
5.00324e-10
-3.7823e-11
5.22789e-10
-4.08151e-11
5.44648e-10
-4.40048e-11
5.65855e-10
-4.71462e-11
5.86375e-10
-5.02533e-11
6.06323e-10
-5.32382e-11
6.25587e-10
-5.60197e-11
6.44232e-10
-5.85301e-11
6.62358e-10
-6.08292e-11
6.79818e-10
-6.27141e-11
6.96827e-10
-6.4322e-11
7.13298e-10
-6.5611e-11
7.29194e-10
-6.64687e-11
7.4469e-10
-6.71161e-11
7.59605e-10
-6.73487e-11
7.74036e-10
-6.72695e-11
7.87969e-10
-6.69059e-11
8.01381e-10
-6.61697e-11
8.14327e-10
-6.51242e-11
8.26791e-10
-6.37549e-11
8.38773e-10
-6.20401e-11
8.50307e-10
-6.00363e-11
8.61406e-10
-5.7746e-11
8.72081e-10
-5.52035e-11
8.82351e-10
-5.24594e-11
8.9223e-10
-4.95364e-11
9.01715e-10
-4.65116e-11
9.10797e-10
-4.345e-11
9.19473e-10
-4.04011e-11
9.2774e-10
-3.74369e-11
9.35563e-10
-3.4612e-11
9.42897e-10
-3.19368e-11
9.49709e-10
-2.94298e-11
9.55956e-10
-2.71085e-11
9.61612e-10
-2.49513e-11
9.66677e-10
-2.29109e-11
9.71167e-10
-2.09722e-11
9.751e-10
-1.90907e-11
9.7847e-10
-1.72049e-11
9.81306e-10
-1.52961e-11
9.83647e-10
-1.33375e-11
9.85505e-10
-1.13225e-11
9.86914e-10
-9.23335e-12
9.87911e-10
-7.06504e-12
9.8853e-10
-4.85419e-12
9.88791e-10
-2.5996e-12
9.88691e-10
-3.21084e-13
9.88261e-10
1.94561e-12
9.87507e-10
4.16574e-12
9.86414e-10
6.28069e-12
9.84969e-10
8.27926e-12
9.83156e-10
1.01321e-11
9.80963e-10
1.17995e-11
9.78356e-10
1.32976e-11
9.75307e-10
1.46333e-11
9.71823e-10
1.58191e-11
9.679e-10
1.68781e-11
9.63534e-10
1.7814e-11
9.58725e-10
1.86535e-11
9.53459e-10
1.94152e-11
9.4774e-10
2.00971e-11
9.41552e-10
2.07222e-11
9.34865e-10
2.13158e-11
9.2768e-10
2.19079e-11
9.19989e-10
2.25531e-11
9.11781e-10
2.32861e-11
9.03074e-10
2.41338e-11
8.93881e-10
2.51509e-11
8.84212e-10
2.63691e-11
8.74089e-10
2.77907e-11
8.63531e-10
2.94268e-11
8.52542e-10
3.12761e-11
8.41131e-10
3.33263e-11
8.29314e-10
3.55725e-11
8.171e-10
3.79895e-11
8.04499e-10
4.05453e-11
7.91518e-10
4.32231e-11
7.78162e-10
4.59955e-11
7.64431e-10
4.8819e-11
7.50327e-10
5.16418e-11
7.3586e-10
5.44139e-11
7.21008e-10
5.71188e-11
7.0573e-10
5.97381e-11
6.90032e-10
6.22181e-11
6.73928e-10
6.45491e-11
6.57375e-10
6.67747e-11
6.40365e-10
6.88931e-11
6.22957e-10
7.08892e-11
6.05172e-10
7.28065e-11
5.86986e-10
7.46701e-11
5.68434e-10
7.64483e-11
5.49584e-10
7.81412e-11
5.30444e-10
7.97834e-11
5.11011e-10
8.13641e-11
4.91349e-10
8.28474e-11
4.71519e-10
8.4242e-11
4.51522e-10
8.5567e-11
4.31385e-10
8.67914e-11
4.11194e-10
8.78701e-11
3.91005e-10
8.87814e-11
3.70831e-10
8.95038e-11
3.50709e-10
8.99987e-11
3.30701e-10
9.0218e-11
3.10838e-10
9.01243e-11
2.91138e-10
8.96913e-11
2.7165e-10
8.88879e-11
2.52427e-10
8.76972e-11
2.33491e-10
8.6115e-11
2.14884e-10
8.41238e-11
1.96685e-10
8.17069e-11
1.7895e-10
7.88664e-11
1.6171e-10
7.5616e-11
1.4503e-10
7.19587e-11
1.29007e-10
6.78861e-11
1.13709e-10
6.34164e-11
9.91766e-11
5.85892e-11
8.54714e-11
5.34374e-11
7.26882e-11
4.79945e-11
6.09058e-11
4.23327e-11
5.01576e-11
3.65696e-11
4.0502e-11
3.08023e-11
3.19896e-11
2.52019e-11
2.46353e-11
1.99946e-11
1.84028e-11
1.54891e-11
1.32089e-11
1.20883e-11
8.9031e-12
1.03557e-11
5.20891e-12
1.10656e-11
1.8965e-12
1.38078e-11
9.63209e-12
-2.50775e-11
1.42829e-10
-5.70863e-11
1.50592e-10
-7.59506e-11
3.56848e-11
-8.36837e-11
-5.37053e-11
-8.40505e-11
-1.09494e-10
-7.9194e-11
-1.42762e-10
-7.06472e-11
-1.60723e-10
-5.92609e-11
-1.68466e-10
-4.5672e-11
-1.69295e-10
-3.0077e-11
-1.65555e-10
-1.26972e-11
-1.58804e-10
6.33636e-12
-1.49997e-10
2.71412e-11
-1.40253e-10
4.94154e-11
-1.29731e-10
7.32215e-11
-1.1932e-10
9.84101e-11
-1.09027e-10
1.24883e-10
-9.94397e-11
1.52533e-10
-9.04844e-11
1.809e-10
-8.249e-11
2.10149e-10
-7.56021e-11
2.39734e-10
-6.97368e-11
2.6975e-10
-6.51202e-11
2.9995e-10
-6.15341e-11
3.30034e-10
-5.89692e-11
3.60027e-10
-5.73804e-11
3.89669e-10
-5.66191e-11
4.19035e-10
-5.66634e-11
4.47843e-10
-5.72837e-11
4.7624e-10
-5.84911e-11
5.03967e-10
-6.0069e-11
5.31146e-10
-6.20598e-11
5.57531e-10
-6.42072e-11
5.83336e-10
-6.66206e-11
6.08329e-10
-6.89972e-11
6.32638e-10
-7.14532e-11
6.56192e-10
-7.38099e-11
6.78991e-10
-7.60358e-11
7.01046e-10
-7.80755e-11
7.22397e-10
-7.9883e-11
7.43016e-10
-8.14454e-11
7.62957e-10
-8.2658e-11
7.82264e-10
-8.36268e-11
8.00858e-10
-8.42061e-11
8.18883e-10
-8.44948e-11
8.36274e-10
-8.4506e-11
8.53015e-10
-8.40925e-11
8.692e-10
-8.34536e-11
8.84754e-10
-8.24602e-11
8.99714e-10
-8.11296e-11
9.14104e-10
-7.95144e-11
9.27919e-10
-7.75704e-11
9.41201e-10
-7.53229e-11
9.53963e-10
-7.27972e-11
9.66217e-10
-6.99994e-11
9.77981e-10
-6.69668e-11
9.89275e-10
-6.37534e-11
1.00013e-09
-6.03865e-11
1.01053e-09
-5.69155e-11
1.02048e-09
-5.3395e-11
1.02996e-09
-4.98772e-11
1.03895e-09
-4.64328e-11
1.04743e-09
-4.30957e-11
1.05538e-09
-3.98819e-11
1.06277e-09
-3.68234e-11
1.06958e-09
-3.39178e-11
1.07577e-09
-3.11399e-11
1.08134e-09
-2.84722e-11
1.08627e-09
-2.59065e-11
1.09059e-09
-2.34115e-11
1.09431e-09
-2.09248e-11
1.09746e-09
-1.84411e-11
1.10006e-09
-1.59455e-11
1.10215e-09
-1.3406e-11
1.10374e-09
-1.08219e-11
1.10486e-09
-8.1915e-12
1.10555e-09
-5.53983e-12
1.10582e-09
-2.87289e-12
1.10569e-09
-1.92401e-13
1.10518e-09
2.45748e-12
1.10429e-09
5.05078e-12
1.10302e-09
7.55757e-12
1.10134e-09
9.95431e-12
1.09925e-09
1.22242e-11
1.09672e-09
1.43271e-11
1.09375e-09
1.62714e-11
1.0903e-09
1.80859e-11
1.08636e-09
1.97602e-11
1.08193e-09
2.13049e-11
1.077e-09
2.27418e-11