/*--------------------------------*- C++ -*----------------------------------*\
  =========                 |
  \\      /  F ield         | OpenFOAM: The Open Source CFD Toolbox
   \\    /   O peration     | Website:  https://openfoam.org
    \\  /    A nd           | Version:  7
     \\/     M anipulation  |
\*---------------------------------------------------------------------------*/
FoamFile
{
    version     2.0;
    format      ascii;
    class       volScalarField;
    location    "0.1875";
    object      p;
}
// * * * * * * * * * * * * * * * * * * * * * * * * * * * * * * * * * * * * * //

dimensions      [0 2 -2 0 0 0 0];

internalField   nonuniform List<scalar> 
51200
(
-1.64845e-07
-8.29666e-07
-7.20859e-06
-7.13707e-06
9.86927e-07
1.54477e-05
3.31343e-05
5.18812e-05
7.02599e-05
8.74772e-05
0.000103232
0.000117349
0.000129907
0.000140993
0.000150754
0.000159187
0.000166447
0.000172601
0.000177745
0.000181957
0.000185205
0.00018752
0.000188874
0.000189338
0.000189003
0.00018778
0.000185689
0.000182722
0.000178795
0.000174006
0.000168386
0.000161873
0.000154471
0.000146174
0.000136941
0.00012682
0.000115827
0.000103927
9.11378e-05
7.7478e-05
6.29587e-05
4.7567e-05
3.1383e-05
1.43852e-05
-3.44191e-06
-2.20326e-05
-4.13864e-05
-6.1506e-05
-8.23814e-05
-0.000103943
-0.000126182
-0.000149102
-0.000172659
-0.000196808
-0.000221549
-0.000246884
-0.000272771
-0.000299199
-0.000326193
-0.00035371
-0.000381667
-0.000410081
-0.000438975
-0.00046827
-0.000497903
-0.000527887
-0.000558176
-0.000588674
-0.000619397
-0.000650438
-0.000681802
-0.000713381
-0.00074511
-0.000776954
-0.000808858
-0.000840797
-0.000872826
-0.000904994
-0.000937242
-0.000969447
-0.00100158
-0.00103367
-0.00106571
-0.00109764
-0.00112946
-0.00116117
-0.00119274
-0.00122411
-0.00125526
-0.00128617
-0.00131685
-0.00134724
-0.00137729
-0.001407
-0.00143639
-0.00146541
-0.00149402
-0.0015222
-0.00154996
-0.00157728
-0.00160411
-0.00163041
-0.00165619
-0.00168144
-0.00170614
-0.00173024
-0.00175373
-0.00177662
-0.0017989
-0.00182051
-0.00184143
-0.00186162
-0.0018811
-0.00189985
-0.00191783
-0.00193503
-0.00195144
-0.00196707
-0.0019819
-0.0019959
-0.00200903
-0.00202129
-0.00203269
-0.0020432
-0.00205279
-0.00206144
-0.00206916
-0.00207596
-0.00208182
-0.00208673
-0.00209067
-0.00209365
-0.0020957
-0.0020968
-0.00209695
-0.00209613
-0.00209438
-0.00209173
-0.0020882
-0.00208378
-0.00207851
-0.00207245
-0.00206565
-0.00205816
-0.00205003
-0.00204129
-0.00203206
-0.00202243
-0.00201252
-0.00200243
-0.00199232
-0.00198233
-0.0019727
-0.00196365
-0.00195543
-0.00194832
-0.00194268
-0.00193885
-0.00193711
-0.0019369
-2.48398e-06
1.52554e-06
7.83021e-07
3.27939e-06
1.10579e-05
2.30036e-05
3.74098e-05
5.26011e-05
6.7664e-05
8.20155e-05
9.53343e-05
0.000107499
0.000118395
0.00012818
0.000136828
0.000144484
0.000151066
0.000156683
0.000161366
0.000165123
0.000168043
0.000170034
0.000171106
0.000171346
0.000170701
0.000169275
0.000167061
0.000163955
0.000159993
0.000155178
0.00014949
0.00014298
0.000135619
0.00012735
0.000118224
0.000108212
9.73104e-05
8.5561e-05
7.29676e-05
5.95028e-05
4.51866e-05
3.00736e-05
1.4131e-05
-2.59438e-06
-2.00969e-05
-3.83745e-05
-5.73879e-05
-7.71443e-05
-9.76448e-05
-0.00011881
-0.000140639
-0.000163138
-0.000186256
-0.000209985
-0.000234328
-0.000259246
-0.000284703
-0.000310714
-0.000337264
-0.000364289
-0.000391752
-0.000419664
-0.000448005
-0.000476713
-0.000505796
-0.000535276
-0.000565083
-0.000595125
-0.000625404
-0.000655935
-0.000686678
-0.000717602
-0.000748732
-0.000780044
-0.000811436
-0.000842874
-0.000874394
-0.000906006
-0.000937653
-0.000969275
-0.00100087
-0.00103242
-0.00106391
-0.00109528
-0.00112655
-0.00115773
-0.00118875
-0.00121956
-0.00125016
-0.00128054
-0.00131068
-0.00134053
-0.00137004
-0.00139924
-0.0014281
-0.0014566
-0.00148469
-0.00151237
-0.00153965
-0.00156647
-0.0015928
-0.00161862
-0.00164393
-0.00166872
-0.00169296
-0.00171662
-0.00173968
-0.00176216
-0.00178404
-0.00180526
-0.00182579
-0.00184562
-0.00186476
-0.00188318
-0.00190084
-0.00191774
-0.00193387
-0.00194925
-0.00196385
-0.00197762
-0.00199055
-0.00200266
-0.00201393
-0.00202433
-0.00203382
-0.00204241
-0.00205011
-0.00205693
-0.00206284
-0.00206782
-0.00207187
-0.00207502
-0.00207728
-0.00207864
-0.00207907
-0.00207859
-0.00207723
-0.00207503
-0.00207199
-0.00206812
-0.00206345
-0.00205806
-0.00205198
-0.00204527
-0.00203796
-0.00203011
-0.00202182
-0.0020132
-0.00200434
-0.00199534
-0.00198633
-0.00197748
-0.00196898
-0.00196103
-0.00195381
-0.00194755
-0.0019425
-0.00193892
-0.00193703
-0.0019366
3.91344e-06
8.19056e-06
9.6909e-06
1.31028e-05
1.99371e-05
2.99004e-05
4.15617e-05
5.39618e-05
6.63475e-05
7.82951e-05
8.95315e-05
9.98853e-05
0.000109344
0.000117844
0.00012549
0.000132301
0.000138271
0.000143377
0.000147572
0.000150956
0.00015351
0.000155201
0.000156085
0.000156091
0.000155275
0.000153685
0.000151293
0.000148133
0.000144145
0.000139264
0.000133585
0.000127086
0.00011971
0.000111518
0.000102476
9.25453e-05
8.17562e-05
7.0151e-05
5.7674e-05
4.43963e-05
3.02914e-05
1.53739e-05
-3.44125e-07
-1.68285e-05
-3.4086e-05
-5.21104e-05
-7.08377e-05
-9.03017e-05
-0.000110488
-0.000131354
-0.000152865
-0.000175006
-0.000197756
-0.000221124
-0.000245106
-0.000269648
-0.000294733
-0.000320377
-0.000346531
-0.000373143
-0.000400225
-0.000427755
-0.000455662
-0.000483912
-0.000512541
-0.00054155
-0.000570877
-0.000600494
-0.00063039
-0.000660502
-0.000690762
-0.00072119
-0.000751834
-0.000782663
-0.000813589
-0.000844592
-0.000875676
-0.000906811
-0.000937954
-0.000969102
-0.00100025
-0.00103136
-0.00106237
-0.00109326
-0.00112408
-0.00115479
-0.00118534
-0.00121568
-0.00124583
-0.00127577
-0.00130545
-0.00133483
-0.0013639
-0.00139266
-0.00142109
-0.00144914
-0.00147679
-0.00150406
-0.00153092
-0.00155733
-0.00158324
-0.00160866
-0.00163358
-0.00165799
-0.00168185
-0.00170513
-0.00172784
-0.00174998
-0.00177152
-0.00179241
-0.00181262
-0.00183217
-0.00185103
-0.00186918
-0.00188657
-0.00190323
-0.00191916
-0.00193434
-0.00194873
-0.00196232
-0.0019751
-0.00198709
-0.00199826
-0.00200856
-0.00201798
-0.00202653
-0.00203423
-0.00204107
-0.00204703
-0.00205207
-0.00205623
-0.00205954
-0.00206198
-0.00206355
-0.00206422
-0.00206403
-0.00206301
-0.00206118
-0.00205854
-0.00205511
-0.00205093
-0.00204609
-0.00204061
-0.00203452
-0.00202786
-0.0020207
-0.00201316
-0.00200532
-0.00199726
-0.00198907
-0.00198087
-0.00197285
-0.00196515
-0.00195795
-0.00195137
-0.00194562
-0.00194091
-0.00193745
-0.00193547
-0.00193487
1.27276e-05
1.70847e-05
1.97977e-05
2.33276e-05
2.91624e-05
3.70661e-05
4.63491e-05
5.62573e-05
6.6335e-05
7.61601e-05
8.55507e-05
9.42812e-05
0.000102345
0.00010972
0.000116367
0.000122331
0.000127614
0.000132125
0.00013587
0.000138844
0.000140995
0.000142432
0.000143054
0.000142846
0.000141905
0.00014014
0.000137611
0.000134365
0.000130284
0.00012539
0.0001197
0.000113171
0.000105799
9.76563e-05
8.8646e-05
7.88039e-05
6.81391e-05
5.66188e-05
4.42723e-05
3.11317e-05
1.71923e-05
2.44218e-06
-1.30547e-05
-2.93316e-05
-4.63758e-05
-6.41595e-05
-8.26462e-05
-0.000101864
-0.000121764
-0.000142353
-0.00016361
-0.000185456
-0.000207905
-0.00023098
-0.000254641
-0.00027885
-0.000303618
-0.00032893
-0.000354713
-0.000380951
-0.000407677
-0.000434843
-0.000462378
-0.000490286
-0.000518564
-0.000547158
-0.000576039
-0.00060524
-0.000634746
-0.000664461
-0.000694336
-0.000724385
-0.000754613
-0.000784981
-0.000815466
-0.000846078
-0.000876784
-0.000907503
-0.000938214
-0.000968948
-0.000999691
-0.00103038
-0.00106097
-0.00109147
-0.00112189
-0.00115218
-0.00118229
-0.00121223
-0.00124199
-0.00127153
-0.0013008
-0.00132977
-0.00135845
-0.00138684
-0.00141487
-0.00144253
-0.00146981
-0.00149672
-0.00152321
-0.00154924
-0.00157479
-0.00159987
-0.00162446
-0.00164854
-0.00167205
-0.00169501
-0.00171743
-0.00173928
-0.00176052
-0.00178112
-0.00180107
-0.00182037
-0.001839
-0.00185691
-0.00187409
-0.00189055
-0.0019063
-0.00192131
-0.00193554
-0.00194898
-0.00196164
-0.00197354
-0.00198461
-0.00199484
-0.0020042
-0.00201274
-0.00202045
-0.00202731
-0.0020333
-0.00203842
-0.0020427
-0.00204615
-0.00204875
-0.00205049
-0.00205137
-0.00205144
-0.00205072
-0.00204922
-0.00204692
-0.00204387
-0.00204013
-0.00203575
-0.00203076
-0.00202517
-0.00201905
-0.00201247
-0.00200553
-0.00199831
-0.00199085
-0.00198326
-0.00197568
-0.00196826
-0.00196113
-0.0019544
-0.00194821
-0.00194273
-0.00193815
-0.00193467
-0.00193246
-0.00193146
2.072e-05
2.45578e-05
2.79198e-05
3.14366e-05
3.61425e-05
4.23967e-05
4.97398e-05
5.77201e-05
6.59425e-05
7.4128e-05
8.19967e-05
8.93939e-05
9.62976e-05
0.000102686
0.000108445
0.000113682
0.00011826
0.000122194
0.000125437
0.000127949
0.000129748
0.000130803
0.000131127
0.000130761
0.000129573
0.000127653
0.000125024
0.000121603
0.000117433
0.000112495
0.000106737
0.000100174
9.28376e-05
8.46481e-05
7.56697e-05
6.59083e-05
5.53062e-05
4.38779e-05
3.16743e-05
1.86348e-05
4.82015e-06
-9.76164e-06
-2.51e-05
-4.11855e-05
-5.80259e-05
-7.55919e-05
-9.38751e-05
-0.000112837
-0.000132482
-0.000152814
-0.000173789
-0.000195361
-0.000217549
-0.00024034
-0.000263692
-0.000287607
-0.000312082
-0.000337068
-0.000362517
-0.000388436
-0.000414813
-0.000441584
-0.000468742
-0.000496316
-0.000524251
-0.000552471
-0.000580983
-0.000609804
-0.00063889
-0.000668183
-0.000697688
-0.000727393
-0.000757231
-0.00078717
-0.000817241
-0.000847456
-0.000877764
-0.000908087
-0.00093842
-0.000968775
-0.000999111
-0.00102938
-0.00105957
-0.0010897
-0.00111973
-0.00114961
-0.00117932
-0.00120887
-0.00123825
-0.0012674
-0.00129627
-0.00132487
-0.00135319
-0.0013812
-0.00140885
-0.00143614
-0.00146307
-0.00148963
-0.00151577
-0.00154144
-0.00156666
-0.00159142
-0.00161569
-0.00163944
-0.00166264
-0.00168531
-0.00170745
-0.00172902
-0.00174997
-0.00177031
-0.00179002
-0.0018091
-0.0018275
-0.00184519
-0.00186217
-0.00187846
-0.00189405
-0.00190889
-0.00192296
-0.00193627
-0.00194884
-0.00196065
-0.00197164
-0.00198179
-0.00199113
-0.00199966
-0.00200739
-0.00201427
-0.0020203
-0.0020255
-0.0020299
-0.00203348
-0.00203623
-0.00203814
-0.00203924
-0.00203956
-0.00203912
-0.00203791
-0.00203593
-0.00203325
-0.00202991
-0.00202595
-0.0020214
-0.00201626
-0.00201063
-0.00200457
-0.00199817
-0.00199146
-0.00198451
-0.00197743
-0.00197036
-0.00196342
-0.00195671
-0.00195032
-0.00194437
-0.00193902
-0.00193446
-0.00193082
-0.00192822
-0.00192656
2.52166e-05
2.85796e-05
3.21714e-05
3.55041e-05
3.95176e-05
4.45958e-05
5.0605e-05
5.7248e-05
6.41605e-05
7.115e-05
7.79569e-05
8.44243e-05
9.04872e-05
9.60845e-05
0.000101233
0.000105817
0.000109883
0.000113306
0.000116053
0.000118152
0.000119595
0.000120308
0.000120366
0.000119738
0.000118354
0.000116283
0.000113482
0.000109918
0.000105674
0.000100614
9.47946e-05
8.82167e-05
8.08355e-05
7.26338e-05
6.36817e-05
5.39273e-05
4.33709e-05
3.20445e-05
1.9919e-05
7.00169e-06
-6.70103e-06
-2.11417e-05
-3.63574e-05
-5.22671e-05
-6.89098e-05
-8.63008e-05
-0.000104393
-0.000123129
-0.000142556
-0.000162648
-0.000183352
-0.000204679
-0.000226622
-0.000249134
-0.000272205
-0.000295855
-0.000320031
-0.00034469
-0.000369842
-0.000395469
-0.000421515
-0.000447939
-0.000474763
-0.000501981
-0.000529536
-0.000557407
-0.000585602
-0.000614079
-0.000642773
-0.000671677
-0.000700813
-0.000730147
-0.000759603
-0.000789173
-0.000818884
-0.000848711
-0.000878605
-0.000908546
-0.000938528
-0.000968522
-0.000998468
-0.00102834
-0.00105817
-0.00108793
-0.00111757
-0.00114706
-0.0011764
-0.00120559
-0.0012346
-0.00126336
-0.00129186
-0.00132012
-0.00134809
-0.00137573
-0.00140302
-0.00142997
-0.00145658
-0.0014828
-0.00150859
-0.00153394
-0.00155885
-0.00158331
-0.00160728
-0.00163071
-0.00165363
-0.00167604
-0.00169791
-0.0017192
-0.0017399
-0.00176
-0.0017795
-0.00179836
-0.00181654
-0.00183403
-0.00185084
-0.00186698
-0.0018824
-0.00189708
-0.00191102
-0.00192423
-0.00193671
-0.00194843
-0.00195934
-0.00196945
-0.00197877
-0.00198731
-0.00199504
-0.00200195
-0.00200803
-0.00201332
-0.00201784
-0.00202155
-0.00202443
-0.00202651
-0.00202783
-0.00202839
-0.0020282
-0.00202726
-0.00202558
-0.00202324
-0.00202027
-0.0020167
-0.00201253
-0.0020078
-0.0020026
-0.001997
-0.00199105
-0.00198478
-0.00197826
-0.0019716
-0.00196493
-0.00195836
-0.00195195
-0.00194577
-0.00193994
-0.00193462
-0.00192994
-0.00192602
-0.0019229
-0.0019204
2.58653e-05
2.90195e-05
3.28405e-05
3.61817e-05
3.97131e-05
4.40557e-05
4.92183e-05
5.49465e-05
6.1012e-05
6.71699e-05
7.32546e-05
7.90673e-05
8.45566e-05
8.96699e-05
9.42783e-05
9.844e-05
0.000102081
0.000105087
0.000107498
0.000109241
0.000110311
0.000110767
0.000110585
0.000109701
0.000108176
0.00010592
0.000102942
9.93111e-05
9.49156e-05
8.97674e-05
8.38846e-05
7.72391e-05
6.98082e-05
6.16243e-05
5.26561e-05
4.29035e-05
3.23882e-05
2.11156e-05
9.04809e-06
-3.76553e-06
-1.73434e-05
-3.16975e-05
-4.67765e-05
-6.25553e-05
-7.90378e-05
-9.62424e-05
-0.000114139
-0.000132713
-0.000151935
-0.00017179
-0.000192278
-0.000213379
-0.000235069
-0.000257332
-0.000280168
-0.000303555
-0.000327438
-0.000351808
-0.000376677
-0.000401992
-0.000427714
-0.000453851
-0.000480386
-0.000507265
-0.000534461
-0.000562003
-0.000589874
-0.000618004
-0.000646356
-0.000674935
-0.00070372
-0.000732667
-0.000761749
-0.000790984
-0.000820361
-0.000849823
-0.000879336
-0.000908921
-0.000938557
-0.000968184
-0.00099776
-0.00102729
-0.00105677
-0.00108617
-0.00111544
-0.00114457
-0.00117357
-0.00120241
-0.00123106
-0.00125946
-0.00128763
-0.00131556
-0.00134319
-0.00137048
-0.00139744
-0.00142408
-0.00145037
-0.00147627
-0.00150174
-0.00152679
-0.00155142
-0.00157559
-0.00159926
-0.00162243
-0.00164509
-0.00166725
-0.00168887
-0.00170991
-0.00173038
-0.00175028
-0.00176957
-0.00178822
-0.0018062
-0.00182351
-0.00184017
-0.00185616
-0.00187143
-0.00188597
-0.00189979
-0.00191292
-0.00192532
-0.00193697
-0.00194781
-0.00195789
-0.00196721
-0.00197576
-0.0019835
-0.00199044
-0.00199659
-0.00200198
-0.00200659
-0.00201041
-0.00201343
-0.00201569
-0.00201721
-0.002018
-0.00201804
-0.00201734
-0.00201594
-0.00201392
-0.00201129
-0.00200804
-0.0020042
-0.00199985
-0.00199503
-0.00198983
-0.00198425
-0.00197833
-0.00197215
-0.00196583
-0.00195948
-0.00195317
-0.00194693
-0.00194086
-0.00193506
-0.00192966
-0.00192476
-0.00192046
-0.0019167
-0.00191326
2.30601e-05
2.64302e-05
3.05872e-05
3.41473e-05
3.75715e-05
4.14685e-05
4.60563e-05
5.12545e-05
5.67571e-05
6.23425e-05
6.7928e-05
7.3313e-05
7.84413e-05
8.31932e-05
8.74811e-05
9.13164e-05
9.46174e-05
9.7366e-05
9.94729e-05
0.000100946
0.000101789
0.000101975
0.000101543
0.00010053
9.88222e-05
9.64153e-05
9.33397e-05
8.95604e-05
8.50444e-05
7.98471e-05
7.38656e-05
6.71413e-05
5.96897e-05
5.14762e-05
4.24904e-05
3.27671e-05
2.22801e-05
1.10129e-05
-9.78783e-07
-1.37347e-05
-2.72134e-05
-4.14687e-05
-5.64253e-05
-7.20967e-05
-8.84515e-05
-0.000105487
-0.00012321
-0.000141619
-0.000160651
-0.000180303
-0.000200601
-0.000221488
-0.00024294
-0.000264979
-0.000287585
-0.000310711
-0.000334334
-0.000358457
-0.000383051
-0.000408059
-0.000433481
-0.000459341
-0.000485583
-0.000512156
-0.000539059
-0.0005663
-0.000593836
-0.000621618
-0.000649659
-0.00067794
-0.000706396
-0.000734985
-0.000763729
-0.000792638
-0.000821673
-0.000850787
-0.00087997
-0.00090923
-0.000938519
-0.000967783
-0.000997014
-0.00102622
-0.00105538
-0.00108442
-0.00111334
-0.00114215
-0.00117083
-0.00119934
-0.00122764
-0.00125572
-0.00128358
-0.00131119
-0.00133848
-0.00136545
-0.00139212
-0.00141846
-0.00144445
-0.00147004
-0.00149522
-0.00152001
-0.00154437
-0.00156827
-0.00159167
-0.00161458
-0.00163702
-0.00165895
-0.00168033
-0.00170114
-0.00172141
-0.00174112
-0.00176022
-0.00177867
-0.00179647
-0.00181363
-0.00183015
-0.00184598
-0.00186111
-0.00187553
-0.00188928
-0.00190233
-0.00191466
-0.00192623
-0.00193704
-0.00194711
-0.00195644
-0.00196499
-0.00197274
-0.00197972
-0.00198595
-0.00199143
-0.00199615
-0.00200007
-0.00200323
-0.00200565
-0.00200737
-0.00200835
-0.0020086
-0.00200814
-0.00200702
-0.00200528
-0.00200293
-0.00199997
-0.00199644
-0.0019924
-0.00198793
-0.00198304
-0.00197777
-0.00197213
-0.00196623
-0.00196018
-0.00195405
-0.00194789
-0.00194175
-0.0019357
-0.00192985
-0.00192428
-0.00191908
-0.00191433
-0.00190986
-0.0019054
1.76815e-05
2.16142e-05
2.62298e-05
3.01711e-05
3.37476e-05
3.75074e-05
4.17807e-05
4.65718e-05
5.17354e-05
5.70205e-05
6.22343e-05
6.73428e-05
7.22058e-05
7.67306e-05
8.08326e-05
8.43808e-05
8.74495e-05
8.99821e-05
9.1869e-05
9.31642e-05
9.38352e-05
9.38165e-05
9.322e-05
9.20329e-05
9.01812e-05
8.76785e-05
8.44981e-05
8.05905e-05
7.60174e-05
7.0712e-05
6.46595e-05
5.78769e-05
5.03745e-05
4.21144e-05
3.31233e-05
2.34094e-05
1.2934e-05
1.71111e-06
-1.02444e-05
-2.29477e-05
-3.63607e-05
-5.05064e-05
-6.53795e-05
-8.09394e-05
-9.71702e-05
-0.000114071
-0.000131661
-0.000149895
-0.000168753
-0.000188241
-0.000208343
-0.000229025
-0.000250282
-0.000272117
-0.000294483
-0.000317357
-0.000340747
-0.000364631
-0.000388959
-0.000413703
-0.000438873
-0.000464453
-0.000490393
-0.000516684
-0.000543328
-0.000570285
-0.000597506
-0.000624979
-0.000652722
-0.000680694
-0.000708828
-0.00073711
-0.000765559
-0.000794149
-0.000822844
-0.000851632
-0.000880514
-0.000909458
-0.00093841
-0.000967338
-0.000996256
-0.00102515
-0.00105398
-0.0010827
-0.00111131
-0.00113981
-0.00116818
-0.00119636
-0.00122435
-0.00125214
-0.00127971
-0.001307
-0.00133398
-0.00136066
-0.00138706
-0.00141312
-0.00143882
-0.00146413
-0.00148905
-0.00151359
-0.00153769
-0.00156133
-0.00158449
-0.00160719
-0.00162941
-0.00165111
-0.00167227
-0.0016929
-0.00171299
-0.00173251
-0.00175142
-0.00176969
-0.00178734
-0.00180437
-0.00182075
-0.00183645
-0.00185145
-0.00186578
-0.00187946
-0.00189245
-0.00190471
-0.00191623
-0.00192702
-0.00193709
-0.00194642
-0.00195498
-0.00196276
-0.00196979
-0.0019761
-0.00198167
-0.00198647
-0.0019905
-0.0019938
-0.0019964
-0.00199829
-0.00199945
-0.00199989
-0.00199965
-0.00199878
-0.0019973
-0.0019952
-0.00199249
-0.00198922
-0.00198547
-0.00198128
-0.00197666
-0.00197162
-0.00196622
-0.00196054
-0.00195468
-0.00194869
-0.00194261
-0.00193648
-0.00193038
-0.00192441
-0.00191861
-0.00191304
-0.00190777
-0.00190256
-0.00189706
1.04586e-05
1.52087e-05
2.04122e-05
2.4837e-05
2.88313e-05
3.27093e-05
3.68566e-05
4.14458e-05
4.63766e-05
5.14229e-05
5.64751e-05
6.13603e-05
6.60336e-05
7.04037e-05
7.43276e-05
7.77577e-05
8.0627e-05
8.29144e-05
8.46937e-05
8.58285e-05
8.6351e-05
8.62571e-05
8.55146e-05
8.41641e-05
8.22424e-05
7.96272e-05
7.63312e-05
7.23688e-05
6.77123e-05
6.23075e-05
5.62174e-05
4.93798e-05
4.18034e-05
3.35237e-05
2.4513e-05
1.47746e-05
4.3129e-06
-6.85746e-06
-1.88112e-05
-3.14518e-05
-4.48111e-05
-5.88731e-05
-7.36585e-05
-8.91226e-05
-0.00010525
-0.000122032
-0.000139486
-0.000157572
-0.000176283
-0.000195613
-0.00021553
-0.000236027
-0.000257104
-0.000278738
-0.000300883
-0.000323541
-0.000346709
-0.000370342
-0.000394415
-0.000418933
-0.000443875
-0.000469193
-0.000494859
-0.000520894
-0.000547275
-0.000573946
-0.000600886
-0.000628099
-0.00065556
-0.000683222
-0.000711049
-0.000739054
-0.000767225
-0.00079551
-0.000823891
-0.000852385
-0.000880974
-0.000909603
-0.000938234
-0.000966861
-0.000995489
-0.00102408
-0.00105259
-0.00108101
-0.00110934
-0.00113756
-0.00116562
-0.00119351
-0.00122122
-0.00124873
-0.00127601
-0.001303
-0.0013297
-0.00135613
-0.00138226
-0.00140805
-0.00143348
-0.00145854
-0.00148324
-0.00150753
-0.00153139
-0.00155478
-0.00157774
-0.00160024
-0.00162225
-0.00164374
-0.00166471
-0.00168517
-0.00170509
-0.00172444
-0.00174318
-0.0017613
-0.00177881
-0.00179572
-0.00181197
-0.00182755
-0.00184245
-0.00185672
-0.00187033
-0.00188325
-0.00189546
-0.00190695
-0.00191774
-0.00192781
-0.00193714
-0.00194571
-0.00195353
-0.00196064
-0.00196703
-0.00197268
-0.00197756
-0.0019817
-0.00198515
-0.00198791
-0.00198996
-0.00199128
-0.0019919
-0.00199187
-0.00199122
-0.00198996
-0.00198807
-0.00198558
-0.00198256
-0.00197905
-0.0019751
-0.00197068
-0.00196583
-0.00196061
-0.00195511
-0.00194937
-0.00194345
-0.00193737
-0.00193119
-0.001925
-0.00191885
-0.00191276
-0.00190677
-0.00190095
-0.00189498
-0.00188844
2.10231e-06
7.87724e-06
1.37145e-05
1.87327e-05
2.31901e-05
2.74372e-05
3.16698e-05
3.61642e-05
4.0961e-05
4.59014e-05
5.08066e-05
5.55576e-05
6.01256e-05
6.43297e-05
6.8142e-05
7.14652e-05
7.41971e-05
7.63597e-05
7.79578e-05
7.89831e-05
7.94288e-05
7.92506e-05
7.84117e-05
7.69855e-05
7.495e-05
7.22529e-05
6.88846e-05
6.48443e-05
6.00837e-05
5.46383e-05
4.84759e-05
4.15759e-05
3.39678e-05
2.56467e-05
1.661e-05
6.85905e-06
-3.59391e-06
-1.47547e-05
-2.66686e-05
-3.92804e-05
-5.25925e-05
-6.65994e-05
-8.12829e-05
-9.66591e-05
-0.000112699
-0.000129382
-0.000146697
-0.00016466
-0.000183247
-0.000202416
-0.000222169
-0.000242514
-0.000263411
-0.000284839
-0.000306792
-0.000329263
-0.000352218
-0.000375615
-0.000399464
-0.000423768
-0.000448476
-0.000473552
-0.000498994
-0.000524796
-0.00055091
-0.000577304
-0.000603992
-0.000630962
-0.000658151
-0.000685524
-0.000713083
-0.000740826
-0.000768716
-0.000796714
-0.000824821
-0.000853047
-0.000881345
-0.000909664
-0.000938002
-0.000966359
-0.000994708
-0.00102301
-0.00105123
-0.00107938
-0.00110744
-0.00113538
-0.00116316
-0.00119078
-0.00121823
-0.00124548
-0.00127248
-0.0012992
-0.00132566
-0.00135184
-0.00137772
-0.00140326
-0.00142845
-0.00145329
-0.00147777
-0.00150183
-0.00152545
-0.00154864
-0.00157141
-0.00159372
-0.00161553
-0.00163683
-0.00165763
-0.00167794
-0.00169771
-0.0017169
-0.00173548
-0.00175347
-0.00177088
-0.00178767
-0.0018038
-0.00181927
-0.00183411
-0.00184832
-0.00186187
-0.00187473
-0.0018869
-0.00189838
-0.00190917
-0.00191925
-0.00192858
-0.00193717
-0.00194506
-0.00195224
-0.0019587
-0.00196442
-0.00196939
-0.00197366
-0.00197726
-0.00198016
-0.00198234
-0.00198381
-0.0019846
-0.00198477
-0.00198432
-0.00198325
-0.00198154
-0.00197925
-0.00197644
-0.00197314
-0.00196936
-0.0019651
-0.0019604
-0.00195533
-0.00194995
-0.00194428
-0.00193836
-0.00193223
-0.00192596
-0.00191962
-0.00191324
-0.00190681
-0.00190037
-0.00189399
-0.00188727
-0.00187969
-6.85976e-06
-5.40546e-08
6.56999e-06
1.21658e-05
1.71804e-05
2.18305e-05
2.63607e-05
3.09172e-05
3.56761e-05
4.0534e-05
4.53956e-05
5.00997e-05
5.45111e-05
5.86603e-05
6.23667e-05
6.55699e-05
6.82411e-05
7.03165e-05
7.17677e-05
7.27185e-05
7.30737e-05
7.2819e-05
7.19474e-05
7.0442e-05
6.83085e-05
6.55582e-05
6.2119e-05
5.79931e-05
5.31761e-05
4.76647e-05
4.14243e-05
3.44812e-05
2.68304e-05
1.84578e-05
9.39571e-06
-3.74796e-07
-1.08236e-05
-2.19903e-05
-3.38489e-05
-4.64472e-05
-5.97137e-05
-7.36686e-05
-8.82869e-05
-0.000103584
-0.00011953
-0.00013612
-0.000153327
-0.00017117
-0.00018963
-0.000208662
-0.000228275
-0.000248472
-0.0002692
-0.000290445
-0.000312225
-0.000334509
-0.00035726
-0.000380463
-0.000404119
-0.00042821
-0.00045269
-0.000477552
-0.000502793
-0.000528366
-0.000554231
-0.000580384
-0.000606839
-0.000633559
-0.000660485
-0.000687608
-0.000714931
-0.000742417
-0.000770029
-0.000797765
-0.000825627
-0.000853595
-0.000881611
-0.000909649
-0.000937724
-0.000965825
-0.000993904
-0.00102193
-0.00104989
-0.00107779
-0.0011056
-0.00113327
-0.0011608
-0.00118817
-0.00121539
-0.00124238
-0.00126912
-0.0012956
-0.00132184
-0.0013478
-0.00137344
-0.00139875
-0.00142373
-0.00144837
-0.00147263
-0.00149647
-0.00151989
-0.0015429
-0.00156549
-0.00158761
-0.00160924
-0.00163038
-0.00165104
-0.0016712
-0.00169082
-0.00170985
-0.00172831
-0.0017462
-0.00176351
-0.00178019
-0.00179622
-0.00181161
-0.0018264
-0.00184056
-0.00185406
-0.00186687
-0.00187901
-0.0018905
-0.0019013
-0.00191138
-0.00192072
-0.00192935
-0.0019373
-0.00194456
-0.00195108
-0.00195687
-0.00196195
-0.00196635
-0.00197008
-0.0019731
-0.0019754
-0.00197701
-0.00197798
-0.00197832
-0.00197805
-0.00197713
-0.00197559
-0.00197348
-0.00197085
-0.00196771
-0.00196407
-0.00195993
-0.00195535
-0.00195039
-0.00194508
-0.00193943
-0.00193347
-0.00192726
-0.00192086
-0.00191432
-0.00190766
-0.00190085
-0.00189394
-0.001887
-0.00187954
-0.00187097
-1.61632e-05
-8.20291e-06
-8.38526e-07
5.43532e-06
1.10303e-05
1.61171e-05
2.09661e-05
2.57773e-05
3.05772e-05
3.54399e-05
4.02625e-05
4.4921e-05
4.93356e-05
5.33682e-05
5.7e-05
6.01689e-05
6.27678e-05
6.47625e-05
6.61855e-05
6.70273e-05
6.7309e-05
6.70196e-05
6.60972e-05
6.45141e-05
6.23453e-05
5.95126e-05
5.59964e-05
5.18094e-05
4.69273e-05
4.13333e-05
3.50434e-05
2.8057e-05
2.03425e-05
1.19479e-05
2.8561e-06
-6.94899e-06
-1.74154e-05
-2.85694e-05
-4.0418e-05
-5.29824e-05
-6.62163e-05
-8.0109e-05
-9.46774e-05
-0.000109906
-0.000125773
-0.000142266
-0.000159394
-0.000177127
-0.000195455
-0.000214376
-0.000233869
-0.000253913
-0.000274488
-0.000295587
-0.000317206
-0.000339302
-0.000361867
-0.000384903
-0.000408385
-0.000432273
-0.000456552
-0.000481223
-0.000506262
-0.000531607
-0.000557252
-0.000583202
-0.000609434
-0.000635905
-0.00066259
-0.000689491
-0.00071659
-0.000743829
-0.000771191
-0.000798694
-0.000826324
-0.000854033
-0.000881784
-0.000909578
-0.000937417
-0.000965267
-0.000993089
-0.00102086
-0.0010486
-0.00107627
-0.00110383
-0.00113125
-0.00115855
-0.00118571
-0.00121269
-0.00123944
-0.00126595
-0.00129223
-0.00131825
-0.00134399
-0.00136942
-0.00139453
-0.00141932
-0.00144377
-0.00146782
-0.00149147
-0.00151471
-0.00153756
-0.00155998
-0.00158192
-0.00160339
-0.00162439
-0.00164492
-0.00166495
-0.00168443
-0.00170334
-0.0017217
-0.0017395
-0.00175671
-0.00177329
-0.00178924
-0.00180459
-0.00181934
-0.00183345
-0.00184689
-0.00185967
-0.00187182
-0.00188331
-0.00189412
-0.0019042
-0.00191357
-0.00192226
-0.00193028
-0.00193759
-0.00194418
-0.00195005
-0.00195524
-0.00195976
-0.00196361
-0.00196674
-0.00196916
-0.00197091
-0.00197203
-0.00197253
-0.00197239
-0.00197161
-0.00197023
-0.00196828
-0.0019658
-0.00196278
-0.00195923
-0.00195519
-0.00195071
-0.00194583
-0.00194054
-0.00193486
-0.00192883
-0.0019225
-0.00191594
-0.00190918
-0.0019022
-0.00189498
-0.00188759
-0.0018801
-0.00187191
-0.00186238
-2.5389e-05
-1.64117e-05
-8.23999e-06
-1.29921e-06
4.85761e-06
1.04719e-05
1.57045e-05
2.07619e-05
2.57545e-05
3.06984e-05
3.55318e-05
4.01834e-05
4.45859e-05
4.85652e-05
5.21551e-05
5.52353e-05
5.78185e-05
5.98009e-05
6.11711e-05
6.19579e-05
6.22057e-05
6.18495e-05
6.08826e-05
5.92622e-05
5.70191e-05
5.41242e-05
5.05577e-05
4.62956e-05
4.13415e-05
3.56803e-05
2.93216e-05
2.22725e-05
1.45113e-05
6.08834e-06
-3.03696e-06
-1.28542e-05
-2.33546e-05
-3.44999e-05
-4.63574e-05
-5.88843e-05
-7.21005e-05
-8.59595e-05
-0.000100468
-0.000115624
-0.000131425
-0.000147839
-0.00016488
-0.000182518
-0.000200741
-0.000219559
-0.00023893
-0.000258838
-0.000279285
-0.000300255
-0.000321719
-0.000343651
-0.000366059
-0.000388938
-0.000412243
-0.000435954
-0.000460067
-0.000484564
-0.000509397
-0.000534532
-0.000559983
-0.000585743
-0.000611758
-0.000638003
-0.00066448
-0.000691174
-0.000718043
-0.000745049
-0.000772198
-0.000799491
-0.000826892
-0.000854357
-0.000881874
-0.000909453
-0.000937071
-0.000964682
-0.000992267
-0.00101983
-0.00104735
-0.0010748
-0.00110212
-0.00112933
-0.00115642
-0.00118337
-0.00121013
-0.00123666
-0.00126298
-0.00128906
-0.00131489
-0.00134043
-0.00136566
-0.0013906
-0.00141522
-0.00143948
-0.00146334
-0.00148682
-0.00150992
-0.00153262
-0.00155487
-0.00157666
-0.00159799
-0.00161887
-0.00163928
-0.00165917
-0.00167852
-0.00169734
-0.00171562
-0.00173334
-0.00175046
-0.00176697
-0.00178287
-0.00179819
-0.00181289
-0.00182695
-0.00184036
-0.00185314
-0.00186529
-0.0018768
-0.0018876
-0.0018977
-0.00190711
-0.00191587
-0.00192395
-0.00193133
-0.00193798
-0.00194394
-0.00194924
-0.00195388
-0.00195782
-0.00196105
-0.00196359
-0.00196549
-0.00196675
-0.00196738
-0.00196735
-0.0019667
-0.00196546
-0.00196365
-0.00196128
-0.00195835
-0.00195488
-0.00195091
-0.00194649
-0.00194165
-0.00193636
-0.00193062
-0.0019245
-0.00191804
-0.00191128
-0.00190425
-0.00189692
-0.00188929
-0.00188142
-0.00187339
-0.00186449
-0.00185404
-3.44134e-05
-2.44214e-05
-1.55364e-05
-7.94303e-06
-1.13833e-06
4.9451e-06
1.06206e-05
1.60328e-05
2.12453e-05
2.63126e-05
3.1261e-05
3.59465e-05
4.03136e-05
4.43425e-05
4.78551e-05
5.09104e-05
5.34589e-05
5.54353e-05
5.67839e-05
5.75632e-05
5.77569e-05
5.73478e-05
5.63516e-05
5.46798e-05
5.23546e-05
4.94002e-05
4.57718e-05
4.1441e-05
3.64293e-05
3.07094e-05
2.42794e-05
1.71573e-05
9.35255e-06
8.77271e-07
-8.27992e-06
-1.81114e-05
-2.86312e-05
-3.98043e-05
-5.16451e-05
-6.41574e-05
-7.73421e-05
-9.11839e-05
-0.000105651
-0.000120753
-0.000136484
-0.000152837
-0.000169791
-0.000187337
-0.000205482
-0.000224204
-0.000243458
-0.000263254
-0.000283593
-0.000304436
-0.000325759
-0.000347559
-0.000369834
-0.000392557
-0.000415695
-0.000439253
-0.00046322
-0.000487543
-0.000512187
-0.000537147
-0.000562422
-0.000587988
-0.000613797
-0.000639852
-0.000666147
-0.000692639
-0.000719289
-0.00074609
-0.000773048
-0.000800139
-0.000827317
-0.000854563
-0.000881882
-0.000909264
-0.000936667
-0.000964062
-0.000991445
-0.00101881
-0.00104613
-0.00107336
-0.00110047
-0.00112749
-0.0011544
-0.00118115
-0.0012077
-0.00123404
-0.00126019
-0.0012861
-0.00131174
-0.0013371
-0.00136217
-0.00138695
-0.0014114
-0.00143548
-0.00145919
-0.00148253
-0.00150549
-0.00152805
-0.00155015
-0.0015718
-0.00159302
-0.00161379
-0.00163408
-0.00165386
-0.00167311
-0.00169186
-0.00171007
-0.00172772
-0.00174476
-0.00176121
-0.00177709
-0.00179238
-0.00180704
-0.00182106
-0.00183446
-0.00184725
-0.00185942
-0.00187093
-0.00188174
-0.00189187
-0.00190135
-0.00191017
-0.00191831
-0.00192574
-0.00193247
-0.00193852
-0.00194393
-0.00194867
-0.0019527
-0.00195603
-0.00195869
-0.00196072
-0.00196211
-0.00196284
-0.00196292
-0.00196239
-0.00196128
-0.00195959
-0.00195731
-0.00195444
-0.00195102
-0.00194711
-0.00194273
-0.00193788
-0.00193255
-0.00192674
-0.00192052
-0.00191391
-0.00190695
-0.00189963
-0.00189193
-0.00188387
-0.00187553
-0.00186697
-0.00185738
-0.00184604
-4.31625e-05
-3.22283e-05
-2.264e-05
-1.44076e-05
-7.00077e-06
-3.33582e-07
5.7807e-06
1.15527e-05
1.70611e-05
2.23519e-05