/*--------------------------------*- C++ -*----------------------------------*\
  =========                 |
  \\      /  F ield         | OpenFOAM: The Open Source CFD Toolbox
   \\    /   O peration     | Website:  https://openfoam.org
    \\  /    A nd           | Version:  7
     \\/     M anipulation  |
\*---------------------------------------------------------------------------*/
FoamFile
{
    version     2.0;
    format      ascii;
    class       volScalarField;
    location    "0.5";
    object      p;
}
// * * * * * * * * * * * * * * * * * * * * * * * * * * * * * * * * * * * * * //

dimensions      [0 2 -2 0 0 0 0];

internalField   nonuniform List<scalar> 
12800
(
-2.17372e-06
0.000178296
-0.000907261
-0.00335167
-0.00690996
-0.0113353
-0.0163945
-0.021874
-0.0275872
-0.0333739
-0.0390979
-0.0446436
-0.049914
-0.0548273
-0.0593157
-0.0633232
-0.0668038
-0.069721
-0.0720459
-0.0737567
-0.0748376
-0.0752782
-0.0750727
-0.0742194
-0.0727202
-0.0705802
-0.067807
-0.0644105
-0.0604027
-0.0557971
-0.0506086
-0.0448533
-0.0385481
-0.0317106
-0.024359
-0.0165117
-0.00818749
0.000594928
0.00981682
0.0194596
0.0295049
0.0399347
0.0507312
0.0618773
0.0733561
0.0851513
0.0972472
0.109629
0.122281
0.135191
0.148344
0.161728
0.17533
0.18914
0.203147
0.217339
0.231708
0.246245
0.26094
0.275786
0.290775
0.3059
0.321155
0.336534
0.352032
0.367642
0.383361
0.399184
0.415107
0.431126
0.447237
0.463439
0.479727
0.496099
0.512552
0.529084
0.545693
0.562376
0.579132
0.595958
0.612851
0.629811
0.646834
0.663918
0.68106
0.698259
0.71551
0.732811
0.750158
0.767548
0.784975
0.802436
0.819925
0.837437
0.854966
0.872504
0.890045
0.90758
0.925101
0.942598
0.960061
0.977479
0.994841
1.01213
1.02934
1.04645
1.06345
1.08032
1.09703
1.11359
1.12996
1.14612
1.16205
1.17773
1.19314
1.20826
1.22305
1.23749
1.25155
1.26521
1.27844
1.29122
1.3035
1.31527
1.32649
1.33715
1.3472
1.35662
1.36539
1.37347
1.38085
1.38751
1.39341
1.39855
1.4029
1.40646
1.40921
1.41115
1.41228
1.4126
1.41211
1.41084
1.4088
1.40602
1.40254
1.39841
1.39368
1.38841
1.3827
1.37663
1.37031
1.3639
1.35753
1.35139
1.3457
1.34069
1.33664
1.33383
1.33255
1.33272
-0.000185917
-3.05535e-06
-0.00100616
-0.00313868
-0.00617682
-0.00994514
-0.0142699
-0.0189804
-0.02392
-0.0289496
-0.033947
-0.0388062
-0.0434358
-0.0477581
-0.0517071
-0.0552273
-0.0582729
-0.0608064
-0.0627977
-0.0642231
-0.065065
-0.0653108
-0.0649524
-0.063986
-0.0624109
-0.0602297
-0.0574477
-0.0540724
-0.0501135
-0.0455821
-0.040491
-0.0348541
-0.0286861
-0.0220028
-0.0148204
-0.00715557
0.000974724
0.00955331
0.018563
0.0279866
0.037807
0.0480075
0.0585715
0.0694828
0.0807254
0.0922841
0.104144
0.11629
0.128709
0.141388
0.154312
0.167471
0.180852
0.194444
0.208237
0.22222
0.236384
0.25072
0.265219
0.279873
0.294675
0.309618
0.324695
0.3399
0.355227
0.370672
0.386228
0.401892
0.417659
0.433525
0.449486
0.465539
0.481681
0.497908
0.514218
0.530608
0.547074
0.563616
0.580229
0.596911
0.613661
0.630474
0.64735
0.664284
0.681273
0.698316
0.715407
0.732544
0.749723
0.76694
0.784189
0.801466
0.818766
0.836082
0.853408
0.870737
0.888061
0.905372
0.922662
0.939921
0.957137
0.974301
0.9914
1.00842
1.02535
1.04218
1.05888
1.07545
1.09186
1.1081
1.12415
1.13999
1.1556
1.17095
1.18603
1.20081
1.21526
1.22937
1.2431
1.25643
1.26934
1.2818
1.29378
1.30526
1.3162
1.32658
1.33639
1.34558
1.35414
1.36205
1.36927
1.3758
1.38161
1.3867
1.39103
1.39461
1.39743
1.39949
1.40077
1.4013
1.40109
1.40014
1.39848
1.39614
1.39316
1.38959
1.38547
1.38089
1.37591
1.37063
1.36515
1.3596
1.35412
1.34886
1.34401
1.33977
1.33633
1.33389
1.33272
1.33288
0.000897739
0.00100078
-2.97872e-06
-0.00198742
-0.00473735
-0.00811053
-0.0119668
-0.0161643
-0.0205697
-0.0250616
-0.0295311
-0.0338816
-0.0380289
-0.0418998
-0.0454315
-0.0485705
-0.051272
-0.0534988
-0.0552203
-0.0564125
-0.0570567
-0.057139
-0.0566499
-0.055584
-0.0539391
-0.0517159
-0.0489181
-0.0455515
-0.0416238
-0.0371445
-0.0321247
-0.0265766
-0.0205133
-0.013949
-0.00689841
0.000623241
0.00860035
0.0170171
0.0258574
0.0351053
0.0447449
0.0547603
0.0651359
0.0758564
0.0869068
0.0982722
0.109939
0.121892
0.134119
0.146606
0.159342
0.172314
0.185511
0.198922
0.212537
0.226344
0.240337
0.254504
0.268838
0.283331
0.297975
0.312763
0.327689
0.342746
0.357929
0.373232
0.38865
0.404177
0.419811
0.435545
0.451377
0.467303
0.483318
0.499421
0.515606
0.531873
0.548216
0.564635
0.581124
0.597683
0.614308
0.630995
0.647743
0.664547
0.681405
0.698312
0.715266
0.732263
0.749298
0.766366
0.783463
0.800583
0.817721
0.834871
0.852025
0.869177
0.886319
0.903442
0.920537
0.937595
0.954606
0.971557
0.988438
1.00524
1.02194
1.03853
1.05499
1.07131
1.08747
1.10345
1.11924
1.13482
1.15016
1.16524
1.18005
1.19456
1.20874
1.22258
1.23605
1.24912
1.26177
1.27398
1.28572
1.29696
1.30768
1.31786
1.32747
1.33649
1.34489
1.35266
1.35977
1.36621
1.37196
1.377
1.38134
1.38494
1.38783
1.38998
1.39141
1.39211
1.39211
1.39142
1.39007
1.38808
1.38549
1.38235
1.37872
1.37465
1.37022
1.36552
1.36065
1.35571
1.35084
1.34618
1.34187
1.33808
1.33497
1.33271
1.33154
1.3316
0.00334349
0.0031364
0.0019798
-9.84007e-06
-0.00265319
-0.0058266
-0.00941014
-0.0132831
-0.0173308
-0.0214471
-0.0255353
-0.0295087
-0.03329
-0.0368119
-0.0400154
-0.0428501
-0.045273
-0.0472481
-0.0487455
-0.0497413
-0.0502165
-0.0501568
-0.0495519
-0.0483955
-0.0466842
-0.0444178
-0.0415985
-0.0382308
-0.0343212
-0.029878
-0.0249107
-0.0194303
-0.0134486
-0.00697854
-3.35743e-05
0.00737224
0.0152244
0.0235082
0.0322087
0.0413109
0.0507996
0.06066
0.0708772
0.0814367
0.0923241
0.103525
0.115027
0.126815
0.138877
0.151201
0.163774
0.176585
0.189622
0.202876
0.216335
0.22999
0.243831
0.257851
0.27204
0.28639
0.300895
0.315547
0.330338
0.345264
0.360318
0.375494
0.390788
0.406193
0.421706
0.437322
0.453038
0.468848
0.484749
0.500738
0.516812
0.532966
0.549198
0.565505
0.581882
0.598328
0.61484
0.631413
0.648044
0.664731
0.681469
0.698255
0.715085
0.731954
0.748859
0.765794
0.782755
0.799735
0.816729
0.83373
0.850732
0.867727
0.884708
0.901665
0.91859
0.935472
0.952303
0.969069
0.98576
1.00236
1.01886
1.03525
1.0515
1.06761
1.08356
1.09933
1.11489
1.13025
1.14536
1.16022
1.1748
1.18908
1.20304
1.21665
1.2299
1.24276
1.2552
1.2672
1.27874
1.2898
1.30034
1.31035
1.31981
1.32868
1.33696
1.34462
1.35165
1.35802
1.36373
1.36875
1.37309
1.37673
1.37968
1.38192
1.38347
1.38433
1.38451
1.38404
1.38293
1.38123
1.37895
1.37616
1.3729
1.36922
1.36521
1.36094
1.3565
1.352
1.34754
1.34324
1.33925
1.33569
1.33271
1.33045
1.3291
1.3288
0.00691395
0.0061864
0.00473306
0.00262141
-3.25502e-05
-0.00312278
-0.00654621
-0.0102011
-0.0139897
-0.0178201
-0.0216076
-0.0252751
-0.0287531
-0.0319801
-0.034902
-0.0374718
-0.0396491
-0.0413996
-0.0426948
-0.0435113
-0.0438304
-0.0436378
-0.0429228
-0.0416785
-0.039901
-0.037589
-0.034744
-0.0313693
-0.0274704
-0.0230544
-0.0181297
-0.0127062
-0.00679466
-0.000406735
0.00644515
0.013748
0.0214884
0.0296525
0.0382264
0.0471959
0.0565469
0.0662652
0.0763368
0.0867477
0.0974844
0.108533
0.119881
0.131516
0.143424
0.155594
0.168014
0.180673
0.193559
0.206664
0.219975
0.233485
0.247184
0.261062
0.275113
0.289327
0.303698
0.318218
0.33288
0.347679
0.362608
0.377662
0.392835
0.408122
0.423518
0.439019
0.45462
0.470317
0.486107
0.501985
0.517949
0.533993
0.550115
0.566312
0.58258
0.598915
0.615315
0.631775
0.648293
0.664864
0.681485
0.698152
0.714861
0.731607
0.748385
0.76519
0.782018
0.798863
0.815717
0.832576
0.849431
0.866275
0.883101
0.899899
0.916661
0.933377
0.950035
0.966626
0.983137
0.999556
1.01587
1.03206
1.04813
1.06404
1.07978
1.09534
1.11071
1.12585
1.14076
1.15541
1.16978
1.18385
1.19761
1.21102
1.22407
1.23673
1.24898
1.2608
1.27216
1.28305
1.29343
1.3033
1.31262
1.32137
1.32955
1.33712
1.34407
1.35039
1.35607
1.36108
1.36543
1.36911
1.37212
1.37445
1.37611
1.37711
1.37746
1.37719
1.3763
1.37485
1.37285
1.37035
1.3674
1.36406
1.3604
1.35647
1.35238
1.3482
1.34403
1.33999
1.33618
1.33273
1.32974
1.32734
1.32565
1.32475
0.011373
0.00998339
0.00812118
0.00578873
0.00302453
-8.20895e-05
-0.00344259
-0.00697251
-0.0105896
-0.0142153
-0.0177761
-0.0212042
-0.0244381
-0.0274224
-0.0301081
-0.032452
-0.0344167
-0.0359704
-0.0370861
-0.0377415
-0.0379186
-0.0376034
-0.0367854
-0.0354573
-0.0336149
-0.0312564
-0.0283825
-0.0249958
-0.0211011
-0.0167043
-0.0118132
-0.00643652
-0.000584084
0.00573336
0.0125044
0.0197169
0.0273584
0.035416
0.0438766
0.0527269
0.0619534
0.0715429
0.0814818
0.091757
0.102355
0.113264
0.124471
0.135963
0.147728
0.159755
0.172033
0.18455
0.197296
0.21026
0.223434
0.236807
0.25037
0.264115
0.278034
0.292119
0.306363
0.320757
0.335296
0.349974
0.364783
0.379719
0.394776
0.409949
0.425232
0.440621
0.456112
0.4717
0.487381
0.503152
0.519008
0.534945
0.550961
0.56705
0.583211
0.599438
0.615729
0.63208
0.648487
0.664947
0.681454
0.698005
0.714596
0.731222
0.747878
0.764559
0.781259
0.797972
0.814693
0.831415
0.84813
0.86483
0.881509
0.898156
0.914763
0.931321
0.947818
0.964244
0.980586
0.996833
1.01297
1.02899
1.04487
1.0606
1.07616
1.09153
1.10671
1.12166
1.13638
1.15084
1.16502
1.17891
1.19247
1.2057
1.21857
1.23106
1.24314
1.25479
1.266
1.27674
1.28699
1.29673
1.30593
1.31459
1.32267
1.33017
1.33706
1.34334
1.349
1.35401
1.35838
1.3621
1.36516
1.36757
1.36934
1.37047
1.37098
1.37088
1.37019
1.36895
1.36719
1.36494
1.36226
1.35919
1.3558
1.35215
1.34831
1.34436
1.34039
1.33649
1.33276
1.32929
1.32618
1.32353
1.32138
1.31973
0.0164995
0.0143625
0.012011
0.00937828
0.00642058
0.00321242
-0.00016993
-0.00365748
-0.00718206
-0.0106772
-0.0140799
-0.0173315
-0.0203778
-0.0231699
-0.0256638
-0.0278205
-0.0296061
-0.0309912
-0.0319508
-0.0324642
-0.0325144
-0.0320881
-0.0311751
-0.0297684
-0.0278634
-0.0254583
-0.0225533
-0.0191506
-0.015254
-0.0108692
-0.00600293
-0.000663258
0.00514078
0.0113993
0.0181016
0.0252365
0.0327923
0.0407568
0.0491178
0.0578625
0.0669784
0.0764527
0.0862727
0.0964257
0.106899
0.117681
0.128759
0.140121
0.151756
0.163652
0.175799
0.188185
0.2008
0.213636
0.22668
0.239926
0.253363
0.266984
0.28078
0.294743
0.308867
0.323143
0.337566
0.352128
0.366824
0.381648
0.396594
0.411657
0.426833
0.442115
0.4575
0.472984
0.488561
0.504227
0.51998
0.535814
0.551727
0.567713
0.58377
0.599893
0.61608
0.632325
0.648625
0.664976
0.681374
0.697814
0.714292
0.730803
0.747341
0.763903
0.780481
0.79707
0.813664
0.830255
0.846837
0.863402
0.879942
0.896448
0.91291
0.92932
0.945666
0.961938
0.978124
0.994212
1.01019
1.02604
1.04175
1.05731
1.07271
1.08791
1.10291
1.1177
1.13224
1.14653
1.16055
1.17426
1.18767
1.20073
1.21344
1.22578
1.23771
1.24923
1.2603
1.27091
1.28104
1.29067
1.29978
1.30835
1.31637
1.32381
1.33066
1.33691
1.34255
1.34757
1.35196
1.35572
1.35885
1.36134
1.3632
1.36445
1.36509
1.36515
1.36463
1.36357
1.36201
1.35997
1.3575
1.35464
1.35146
1.348
1.34434
1.34054
1.33668
1.33283
1.32907
1.32549
1.32217
1.31919
1.31649
1.31399
0.0220919
0.019162
0.0162677
0.0132752
0.0100589
0.00668092
0.00320733
-0.000306675
-0.00380553
-0.00723378
-0.0105381
-0.0136681
-0.0165772
-0.0192223
-0.0215647
-0.0235698
-0.025207
-0.0264497
-0.0272754
-0.027665
-0.0276029
-0.0270767
-0.0260769
-0.0245967
-0.022632
-0.0201808
-0.017243
-0.0138206
-0.00991722
-0.00553772
-0.000688462
0.00462314
0.0103887
0.0165989
0.0232439
0.0303132
0.0377955
0.0456797
0.0539538
0.0626061
0.0716245
0.0809968
0.0907109
0.100755
0.111116
0.121784
0.132745
0.14399
0.155506
0.167283
0.179309
0.191576
0.204071
0.216787
0.229713
0.242841
0.256161
0.269666
0.283347
0.297196
0.311207
0.325372
0.339685
0.354139
0.368728
0.383445
0.398287
0.413246
0.428319
0.443499
0.458783
0.474166
0.489643
0.50521
0.520864
0.536599
0.552412
0.568299
0.584256
0.60028
0.616365
0.632508
0.648706
0.664953
0.681245
0.697579
0.713948
0.730349
0.746776
0.763223
0.779686
0.796156
0.81263
0.829098
0.845555
0.861992
0.878401
0.894774
0.911101
0.927372
0.943578
0.959708
0.975749
0.991691
1.00752
1.02322
1.03878
1.05419
1.06943
1.08448
1.09933
1.11396
1.12835
1.14249
1.15635
1.16992
1.18318
1.1961
1.20868
1.22088
1.23268
1.24408
1.25504
1.26555
1.27558
1.28512
1.29415
1.30265
1.31061
1.31801
1.32483
1.33107
1.3367
1.34174
1.34616
1.34996
1.35314
1.35571
1.35767
1.35902
1.35978
1.35996
1.35959
1.35869
1.35729
1.35541
1.35311
1.35041
1.34738
1.34406
1.3405
1.33678
1.33295
1.32907
1.32521
1.32144
1.31784
1.31446
1.31115
1.30777
0.0279753
0.0242336
0.020764
0.0173695
0.0138458
0.0102446
0.00662407
0.00302724
-0.00050153
-0.00391666
-0.00717366
-0.01023
-0.0130458
-0.0155841
-0.0178111
-0.0196965
-0.0212132
-0.0223379
-0.0230501
-0.0233329
-0.0231722
-0.0225567
-0.0214779
-0.0199296
-0.017908
-0.0154113
-0.0124396
-0.00899459
-0.0050797
-0.000699586
0.00413985
0.00943165
0.0151679
0.0213399
0.0279382
0.0349529
0.0423736
0.0501893
0.058389
0.0669613
0.0758946
0.0851776
0.0947984
0.104746
0.115007
0.125573
0.13643
0.147569
0.158978
0.170646
0.182564
0.194721
0.207107
0.219713
0.23253
0.245549
0.258761
0.272158
0.285732
0.299476
0.313382
0.327443
0.341653
0.356005
0.370492
0.38511
0.399852
0.414713
0.429688
0.444772
0.459959
0.475246
0.490628
0.5061
0.521658
0.537298
0.553016
0.568808
0.584669
0.600596
0.616585
0.632631
0.64873
0.664877
0.681069
0.6973
0.713566
0.729862
0.746182
0.762521
0.778873
0.795232
0.811591
0.827943
0.844281
0.860598
0.876885
0.893134
0.909335
0.925479
0.941555
0.957552
0.973461
0.989267
1.00496
1.02053
1.03595
1.05122
1.06632
1.08123
1.09594
1.11043
1.12469
1.13869
1.15242
1.16587
1.179
1.1918
1.20426
1.21634
1.22804
1.23933
1.2502
1.26062
1.27057
1.28005
1.28902
1.29747
1.30538
1.31275
1.31956
1.32579
1.33143
1.33648
1.34094
1.34478
1.34803
1.35066
1.3527
1.35415
1.35502
1.35532
1.35507
1.35429
1.35302
1.35127
1.34909
1.34651
1.34358
1.34034
1.33683
1.33312
1.32925
1.32529
1.32127
1.31725
1.3133
1.30948
1.30554
1.30126
0.0339984
0.0294447
0.0253835
0.0215588
0.0176919
0.0138268
0.0100152
0.0062899
0.00268522
-0.000761979
-0.00401517
-0.00703904
-0.00980003
-0.0122668
-0.0144103
-0.0162046
-0.0176263
-0.0186547
-0.0192722
-0.0194638
-0.0192172
-0.0185224
-0.017372
-0.0157606
-0.0136849
-0.0111436
-0.00813686
-0.00466659
-0.000736063
0.0036502
0.00848654
0.0137663
0.0194819
0.0256251
0.0321869
0.0391578
0.0465278
0.0542867
0.0624237
0.0709279
0.0797885
0.0889942
0.0985339
0.108396
0.118571
0.129046
0.139811
0.150855
0.162168
0.173739
0.185559
0.197617
0.209904
0.22241
0.235128
0.248047
0.261159
0.274458
0.287933
0.301579
0.315388
0.329352
0.343466
0.357722
0.372115
0.386639
0.401287
0.416056
0.430938
0.44593
0.461026
0.476222
0.491513
0.506894
0.522362
0.537911
0.553538
0.569239
0.585009
0.600843
0.616739
0.632691
0.648696
0.664748
0.680844
0.696978
0.713145
0.729341
0.745559
0.761795
0.778043
0.794296
0.810547
0.82679
0.843018
0.859222
0.875395
0.891528
0.907612
0.923637
0.939593
0.95547
0.971256
0.98694
1.00251
1.01795
1.03325
1.0484
1.06337
1.07816
1.09275
1.10712
1.12126
1.13514
1.14876
1.16209
1.17511
1.18781
1.20017
1.21216
1.22377
1.23498
1.24577
1.25612
1.26602
1.27543
1.28436
1.29278
1.30067
1.30802
1.31482
1.32105
1.32671
1.33179
1.33628
1.34018
1.34348
1.34618
1.3483
1.34983
1.35079
1.35119
1.35104
1.35037
1.34919
1.34755
1.34545
1.34295
1.34007
1.33686
1.33336
1.32961
1.32566
1.32155
1.31732
1.31301
1.30869
1.30439
1.2998
1.29462
0.0400327
0.0346781
0.0300203
0.0257483
0.0215134
0.0173541
0.0133174
0.00942716
0.0057091
0.00219238
-0.0010936
-0.00412005
-0.00685928
-0.00928515
-0.0113734
-0.0131019
-0.0144509
-0.0154028
-0.0159424
-0.016057
-0.0157361
-0.0149711
-0.0137559
-0.012086
-0.0099588
-0.00737351
-0.00433075
-0.000832604
0.00311757
0.00751526
0.0123549
0.01763
0.0233333
0.0294567
0.0359917
0.0429291
0.0502593
0.0579724
0.0660581
0.074506
0.0833055
0.0924458
0.101916
0.111706
0.121805
0.132201
0.142885
0.153847
0.165075
0.17656
0.188292
0.200261
0.212459
0.224876
0.237503
0.250331
0.263354
0.276561
0.289947
0.303502
0.317221
0.331096
0.345121
0.359288
0.373593
0.388029
0.40259
0.417271
0.432067
0.446972
0.461982
0.477092
0.492296
0.507591
0.522973
0.538436
0.553977
0.56959
0.585273
0.60102
0.616827
0.63269
0.648605
0.664566
0.68057
0.696611
0.712685
0.728785
0.744908
0.761047
0.777196
0.793349
0.809499
0.82564
0.841764
0.857863
0.87393
0.889956
0.905931
0.921847
0.937694
0.95346
0.969135
0.984707
1.00016
1.01549
1.03068
1.04572
1.06058
1.07526
1.08974
1.10401
1.11805
1.13183
1.14535
1.15859
1.17152
1.18413
1.19641
1.20832
1.21986
1.23101
1.24174
1.25204
1.26189
1.27127
1.28017
1.28856
1.29644
1.30379
1.3106
1.31685
1.32254
1.32765
1.33218
1.33612
1.33948
1.34226
1.34444
1.34605
1.34709
1.34757
1.34751
1.34692
1.34582
1.34424
1.34221
1.33975
1.33689
1.33367
1.33013
1.3263
1.32222
1.31793
1.31345
1.30882
1.30408
1.2993
1.29405
1.288
0.0459674
0.0398305
0.034579
0.029851
0.0252322
0.0207571
0.0164696
0.0123859
0.00852449
0.00490767
0.00155854
-0.00149996
-0.00424552
-0.00665685
-0.00871405
-0.0103989
-0.0116948
-0.0125875
-0.0130642
-0.0131144
-0.0127293
-0.0119023
-0.0106282
-0.00890371
-0.00672719
-0.00409838
-0.00101843
0.00251022
0.006484
0.0108983
0.0157474
0.0210251
0.0267241
0.0328366
0.0393542
0.046268
0.0535688
0.0612469
0.0692924
0.0776953
0.0864452
0.0955318
0.104945
0.114674
0.124708
0.135037
0.145652
0.156541
0.167695
0.179105
0.19076
0.202651
0.21477
0.227106
0.239653
0.2524
0.265341
0.278466
0.29177
0.305243
0.31888
0.332673
0.346615
0.360701
0.374924
0.389278
0.403758
0.418358
0.433072
0.447896
0.462825
0.477853
0.492977
0.508191
0.523491
0.538872
0.55433
0.569861
0.585461
0.601124
0.616848
0.632626
0.648455
0.66433
0.680247
0.6962
0.712185
0.728196
0.744228
0.760275
0.776331
0.79239
0.808445
0.824491
0.840518
0.85652
0.872489
0.888415
0.904291
0.920107
0.935853
0.951519
0.967093
0.982565
0.997922
1.01315
1.02824
1.04318
1.05795
1.07254
1.08692
1.1011
1.11505
1.12875
1.14219
1.15535
1.16821
1.18075
1.19296
1.20482
1.21631
1.2274
1.2381
1.24836
1.25818
1.26754
1.27643
1.28482
1.2927
1.30006
1.30688
1.31316
1.31888
1.32403
1.32861
1.33261
1.33603
1.33886
1.34112
1.3428
1.34391
1.34447
1.34447
1.34395
1.34291
1.34137
1.33937
1.33692
1.33405
1.33079
1.32718
1.32324
1.31899
1.31448
1.30973
1.30475
1.29959
1.29431
1.28842
1.28152
0.0517072
0.0448107
0.0389742
0.0337878
0.0287759
0.0239704
0.0194133
0.0151146
0.0110862
0.00734475
0.00390771
0.000792771
-0.00198262
-0.00440163
-0.00644843
-0.0081084
-0.00936838
-0.0102167
-0.0106434
-0.01064
-0.0101997
-0.00931748
-0.00798957
-0.00621384
-0.00398955
-0.00131722
0.00180138
0.00536335
0.00936478
0.0138008
0.0186657
0.023953
0.0296557
0.0357658
0.0422753
0.0491753
0.0564569
0.0641106
0.0721268
0.0804957
0.0892073
0.0982516
0.107618
0.117297
0.127279
0.137553
0.148109
0.158937
0.170029
0.181373
0.192962
0.204785
0.216834
0.229101
0.241576
0.254251
0.267119
0.280171
0.2934
0.3068
0.320362
0.33408
0.347948
0.361958
0.376106
0.390385
0.40479
0.419314
0.433953
0.448701
0.463554
0.478506
0.493553
0.508691
0.523914
0.539218
0.554599
0.570052
0.585573
0.601157
0.616801
0.632499
0.648247
0.664041
0.679875
0.695745
0.711646
0.727572
0.743518
0.759479
0.775448
0.791419
0.807386
0.823342
0.83928
0.855192
0.87107
0.886906
0.902691
0.918416
0.934071
0.949645
0.96513
0.980512
0.99578
1.01092
1.02593
1.04078
1.05547
1.06997
1.08428
1.09838
1.11226
1.12589
1.13926
1.15236
1.16516
1.17766
1.18982
1.20164
1.21309
1.22416
1.23482
1.24507
1.25488
1.26424
1.27312
1.28152
1.28942
1.2968
1.30366
1.30997
1.31573
1.32093
1.32556
1.32962
1.3331
1.336
1.33833
1.34007
1.34125
1.34186
1.34193
1.34145
1.34045
1.33894
1.33694
1.33448
1.33158
1.32826
1.32454
1.32045
1.31603
1.31128
1.30622
1.30088
1.2953
1.28951
1.28299
1.27527
0.0571692
0.0495382
0.043129
0.0374865
0.0320775
0.0269328
0.0220932
0.0175633
0.01335
0.00946462
0.00591983
0.00272864
-9.58967e-05
-0.00254103
-0.00459469
-0.00624569
-0.00748396
-0.00830064
-0.00868816
-0.00864032
-0.00815226
-0.00722046
-0.00584273
-0.00401814
-0.00174695
0.000969444
0.00412857
0.00772699
0.0117603
0.0162235
0.0211104
0.0264145
0.0321286
0.038245
0.0447555
0.0516514
0.0589239
0.0665636
0.0745613
0.0829071
0.0915915
0.100605
0.109936
0.119577
0.129517
0.139746
0.150255
0.161034
0.172073
0.183363
0.194896
0.206661
0.218651
0.230856
0.243269
0.255882
0.268686
0.281673
0.294837
0.30817
0.321666
0.335316
0.349116
0.363059
0.377138
0.391348
0.405683
0.420138
0.434707
0.449385
0.464168
0.479049
0.494025
0.509091
0.524242
0.539473
0.554781
0.570161
0.585608
0.601117
0.616686
0.632308
0.64798
0.663696
0.679453
0.695245
0.711066
0.726913
0.742779
0.758659
0.774547
0.790436
0.806321
0.822194
0.838049
0.853878
0.869673
0.885426
0.901128
0.91677
0.932343
0.947837
0.963241
0.978544
0.993734
1.0088
1.02373
1.03851
1.05313
1.06756
1.08181
1.09585
1.10967
1.12325
1.13657
1.14962
1.16238
1.17484
1.18697
1.19876
1.2102
1.22125
1.23191
1.24215
1.25197
1.26134
1.27024
1.27867
1.28659
1.29401
1.30091
1.30727
1.31308
1.31834
1.32303
1.32715
1.33069
1.33366
1.33605
1.33786
1.3391
1.33977
1.33988
1.33944
1.33846
1.33696
1.33496
1.33246
1.3295
1.32609
1.32225
1.31801
1.31337
1.30837
1.303
1.29729
1.29127
1.28499
1.27785
1.26935
0.0622813
0.0539418
0.0469744
0.0408814
0.0350755
0.029587
0.0244565
0.0196844
0.0152727
0.0112287
0.00756066
0.00427749
0.00138828
-0.00109794
-0.00317255
-0.00482758
-0.00605587
-0.00685123
-0.0072085
-0.0071236
-0.00659358
-0.00561661
-0.00419195
-0.00231994
-1.93228e-06
0.00275973
0.00596183
0.00960026
0.0136702
0.0181659
0.0230813
0.0284095
0.0341432
0.0402744
0.046795
0.0536965
0.0609699
0.068606
0.0765957
0.0849295
0.0935977
0.102591
0.111899
0.121512
0.131422
0.141618
0.15209
0.16283
0.173827
0.185074
0.196561
0.208278
0.220218
0.232373
0.244733
0.257292
0.27004
0.282972
0.296078
0.309353
0.32279
0.336381
0.35012
0.364001
0.378019
0.392167
0.406439
0.42083
0.435335
0.449949
0.464666
0.479482
0.494391
0.50939
0.524474
0.539638
0.554877
0.570188
0.585565
0.601005
0.616503
0.632054
0.647653
0.663298
0.678981
0.694699
0.710447
0.726219
0.74201
0.757814
0.773626
0.78944
0.805248
0.821045
0.836824
0.852577
0.868296
0.883973
0.899601
0.915169
0.930669
0.946091
0.961424
0.976658
0.991781
1.00678
1.02165
1.03637
1.05093
1.06531
1.07951
1.0935
1.10727
1.12081
1.1341
1.14712
1.15986
1.17229
1.18441
1.19619
1.20762
1.21868
1.22934
1.23961
1.24944
1.25884
1.26777
1.27623
1.28421
1.29167
1.29862
1.30504
1.31091
1.31624
1.32099
1.32518
1.3288
1.33183
1.33429
1.33616
1.33746
1.33818
1.33833
1.33792
1.33695
1.33545
1.33342
1.33088
1.32785
1.32433
1.32036
1.31593
1.31108
1.3058
1.30012
1.29403
1.28758
1.28082
1.27308
1.26382
0.0669797
0.0579579
0.0504481
0.0439126
0.0377129
0.0318795
0.0264536
0.0214319
0.0168126
0.0125991
0.00879609
0.00540882
0.00244283
-9.62352e-05
-0.00220295
-0.00387231
-0.00509992
-0.00588211
-0.00621602
-0.00609968
-0.00553202
-0.00451286
-0.00304295
-0.00112394
0.00124168
0.0040506
0.00729874
0.0109813
0.0150928
0.0196272
0.0245779
0.0299377
0.0356989
0.0418538
0.0483938
0.0553105
0.0625949
0.0702379
0.0782303
0.0865627
0.0952257
0.10421
0.113505
0.123103
0.132993
0.143166
0.153613
0.164325
0.175291
0.186505
0.197956
0.209636
0.221536
0.233649
0.245966
0.25848
0.271182
0.284066
0.297124
0.310348
0.323733
0.337272
0.350958
0.364785
0.378748
0.392839
0.407055
0.421389
0.435835
0.45039
0.465047
0.479803
0.494652
0.509589
0.52461
0.539711
0.554887
0.570133
0.585445
0.60082
0.616251
0.631735
0.647268
0.662844
0.678459
0.694108
0.709787
0.725489
0.74121
0.756945
0.772686
0.788429
0.804168
0.819895
0.835604
0.851287
0.866937
0.882547
0.898107
0.91361
0.929045
0.944404
0.959675
0.97485
0.989916
1.00486
1.01968
1.03435
1.04886
1.0632
1.07736
1.09132
1.10506
1.11857
1.13184
1.14485
1.15757
1.17001
1.18212
1.19391
1.20535
1.21643
1.22712
1.23741
1.24728
1.25672
1.2657
1.27422
1.28225
1.28978
1.29679
1.30328
1.30923
1.31462
1.31946
1.32372
1.32741
1.33052
1.33304
1.33498
1.33633
1.3371
1.33728
1.33689
1.33594
1.33443
1.33236
1.32977
1.32665
1.32301
1.31889
1.31427
1.30919
1.30364
1.29763
1.29116
1.28429
1.27705
1.26873
1.25876
0.0712083
0.0615294
0.0534937
0.0465252
0.039937
0.0337603
0.0280375
0.022762
0.017929
0.0135386
0.00959227
0.00609201
0.0030402
0.000439431
-0.00170781
-0.00339927
-0.00463316
-0.00540819
-0.00572373
-0.00557982
-0.00497724
-0.00391747
-0.00240275
-0.000436054
0.00197897
0.00483797
0.00813598
0.0118674
0.0160262
0.0206057
0.0255987
0.0309979
0.0367953
0.0429827
0.0495516
0.0564934
0.0637989
0.0714592
0.0794651
0.0878071
0.0964759
0.105462
0.114756
0.124349
0.134231
0.144392
0.154825
0.165519
0.176465
0.187656
0.199082
0.210734
0.222605
0.234686
0.246969
0.259447
0.272111
0.284956
0.297973
0.311155
0.324497
0.337991
0.351631
0.365411
0.379325
0.393367
0.407532
0.421814
0.436208
0.45071
0.465313
0.480014
0.494806
0.509687
0.524651
0.539693
0.55481
0.569996
0.585248
0.600561
0.615931
0.631353
0.646823
0.662336
0.677887
0.693472
0.709086
0.724724
0.74038
0.756049
0.771726
0.787404
0.803078
0.818741
0.834387
0.850007
0.865596
0.881145
0.896646
0.91209
0.927469
0.942773
0.957993
0.973118
0.988137
1.00304
1.01781
1.03244
1.04692
1.06124
1.07537
1.0893
1.10303
1.11653
1.12979
1.1428
1.15553
1.16797
1.1801
1.19191
1.20338
1.21449
1.22522
1.23556
1.24548
1.25498
1.26402
1.2726
1.28071
1.28831
1.29541
1.30198
1.30801
1.31349
1.31841
1.32276
1.32653
1.32971
1.33231
1.33431
1.33572
1.33653
1.33675
1.33638
1.33543
1.3339
1.3318
1.32913
1.32592
1.32216
1.31788
1.31307
1.30774
1.30191
1.29558
1.28874
1.28145
1.27374
1.26487
1.2542
0.0749164
0.0646049
0.0560598
0.0486686
0.0416987
0.0351825
0.0291635
0.0236329
0.0185829
0.014011
0.00991579
0.00629648
0.00315257
0.00048387
-0.0017098
-0.00342878
-0.00467369
-0.00544552
-0.00574577
-0.00557643
-0.00494007
-0.00383984
-0.00227945
-0.000263208
0.00220403
0.00511687
0.0084694
0.0122552
0.0164675
0.021099
0.0261422
0.0315891
0.0374314
0.0436607
0.0502682
0.057245
0.0645821
0.0722704
0.0803005
0.088663
0.0973487
0.106348
0.115652
0.125251
0.135136
0.145297
0.155726
0.166413
0.17735
0.188528
0.199939
0.211574
0.223424
0.235483
0.247741
0.260192
0.272828
0.285642
0.298627
0.311775
0.325081
0.338537
0.352138
0.365878
0.37975
0.39375
0.40787
0.422107
0.436455
0.450909
0.465463
0.480114
0.494856
0.509685
0.524596
0.539585
0.554647
0.569779
0.584975
0.600231
0.615544
0.630908
0.646319
0.661773
0.677265
0.692791
0.708345
0.723922
0.739519
0.755128
0.770745
0.786364
0.80198
0.817584
0.833172
0.848737
0.86427
0.879765
0.895214
0.910608
0.925938
0.941196
0.956373
0.971457
0.986438
1.00131
1.01605
1.03065
1.04511
1.0594
1.07352
1.08745
1.10117
1.11467
1.12794
1.14096
1.15371
1.16618
1.17834
1.19019
1.2017
1.21286
1.22365
1.23404
1.24403
1.2536
1.26272
1.27139
1.27958
1.28727
1.29446
1.30112
1.30725
1.31283
1.31784
1.32229
1.32615
1.32942
1.33209
1.33416
1.33563
1.33649
1.33675
1.3364
1.33544
1.33389
1.33174
1.32901
1.3257
1.32181
1.31736
1.31235
1.30679
1.30068
1.29402
1.28681
1.27911
1.27096
1.26154
1.25021
0.0780586
0.0671374
0.0580991
0.0502962
0.0429526
0.0361019
0.0297894
0.0240043
0.0187363
0.0139807
0.00973369
0.00599175
0.00275193
1.14963e-05
-0.0022322
-0.00398188
-0.00524045
-0.00601108
-0.00629727
-0.00610292
-0.00543236
-0.00429034
-0.00268208
-0.000613213
0.00191018
0.00488162
0.00829421
0.0121407
0.0164135
0.0211048
0.0262063
0.0317096
0.037606
0.0438869
0.050543
0.0575654
0.0649447
0.0726717
0.0807371
0.0891314
0.0978452
0.106869
0.116194
0.12581
0.135709
0.145881
0.156317
0.167008
0.177947
0.189123
0.200528
0.212155
0.223996
0.236041
0.248285
0.260718
0.273334
0.286126
0.299086
0.312208
0.325486
0.338912
0.352482
0.366188
0.380025
0.393988
0.408071
0.422269
0.436576
0.450987
0.465499
0.480105
0.494801
0.509583
0.524447
0.539387
0.554399
0.56948
0.584625
0.599829
0.615089
0.6304
0.645757
0.661156
0.676594
0.692064
0.707563
0.723085
0.738627
0.754181
0.769744
0.785309
0.800871
0.816423
0.831959
0.847474
0.862958
0.878406
0.89381
0.909161
0.924451
0.939671
0.954812
0.969864
0.984817
0.99966
1.01438
1.02897
1.04341
1.0577
1.07182
1.08575
1.09948
1.113
1.12628
1.13933
1.15211
1.16462
1.17683
1.18873
1.2003
1.21152
1.22238
1.23285
1.24293
1.25258
1.2618
1.27056
1.27885
1.28665
1.29394
1.30071
1.30695
1.31264
1.31776
1.3223
1.32626
1.32963
1.33239
1.33454
1.33607
1.33699
1.33728
1.33695
1.33599
1.33442
1.33223
1.32942
1.32601
1.32199
1.31737
1.31216
1.30636
1.29997
1.29299
1.28543
1.27732
1.26873
1.25879
1.24682
0.0805935
0.0690841
0.059568
0.0513646
0.0436556
0.0364766
0.0298748
0.0238375
0.0183526
0.0134132
0.00901344
0.00514754
0.00181021
-0.00100356
-0.00329873
-0.00508023
-0.00635311
-0.0071226
-0.00739417
-0.00717354
-0.00646675
-0.00528016
-0.00362045
-0.00149461
0.00109004
0.0041259
0.00760509
0.0115195
0.0158606
0.0206199
0.0257886
0.0313577
0.0373182
0.0436607
0.050376
0.0574546
0.0648871
0.072664
0.0807759
0.0892132
0.0979665
0.107026
0.116383
0.126029
0.135952
0.146146
0.156601
0.167307
0.178257
0.189441
0.200852
0.212482
0.224322
0.236364
0.248601
0.261026
0.273631
0.286408
0.299353
0.312457
0.325714
0.339118
0.352663
0.366343
0.380152
0.394085
0.408136
0.4223
0.436572
0.450947
0.465421
0.479988
0.494644
0.509384
0.524204
0.5391
0.554068
0.569103
0.5842
0.599357
0.614568
0.62983
0.645137
0.660487
0.675873
0.691293
0.706741
0.722213
0.737704
0.753208
0.768721
0.784237
0.799751
0.815256
0.830747
0.846217
0.861659
0.877067
0.892432
0.907747
0.923003
0.938193
0.953307
0.968336
0.983269
0.998097
1.01281
1.02739
1.04183
1.05612
1.07025
1.08419
1.09794
1.11149
1.12481
1.1379
1.15073
1.16328
1.17555
1.18752
1.19916
1.21047
1.22141
1.23198
1.24215
1.25191
1.26123
1.27011
1.27851
1.28643
1.29385
1.30074
1.3071
1.31291
1.31815
1.32281
1.32688
1.33035
1.33321
1.33544
1.33705
1.33802
1.33835
1.33804
1.33709
1.3355
1.33327
1.33039
1.32687
1.32272
1.31794
1.31253
1.30649
1.29983
1.29254
1.28462
1.27612
1.2671
1.25666
1.24407
0.0824829
0.0704051
0.0604259
0.0518328
0.0437673
0.036267
0.0293811
0.0230953
0.017396
0.0122745
0.00772299
0.00373372
0.000299312
-0.00258741
-0.00493348
-0.00674595
-0.00803188
-0.00879848
-0.00905309
-0.00880323
-0.00805661
-0.00682115
-0.00510502
-0.00291656
-0.000264329
0.00284292
0.00639627
0.0103866
0.0148048
0.0196414
0.0248869
0.0305319
0.0365667
0.0429815
0.0497669
0.0569129
0.0644099
0.0722482