/*--------------------------------*- C++ -*----------------------------------*\
  =========                 |
  \\      /  F ield         | OpenFOAM: The Open Source CFD Toolbox
   \\    /   O peration     | Website:  https://openfoam.org
    \\  /    A nd           | Version:  7
     \\/     M anipulation  |
\*---------------------------------------------------------------------------*/
FoamFile
{
    version     2.0;
    format      ascii;
    class       surfaceScalarField;
    location    "0.225";
    object      phi;
}
// * * * * * * * * * * * * * * * * * * * * * * * * * * * * * * * * * * * * * //

dimensions      [0 3 -1 0 0 0 0];

internalField   nonuniform List<scalar> 
25360
(
5.41442e-11
-5.41866e-11
1.98491e-10
-1.44342e-10
3.66633e-10
-1.6814e-10
5.10384e-10
-1.43754e-10
6.01341e-10
-9.09541e-11
6.23572e-10
-2.22268e-11
5.69043e-10
5.45288e-11
4.34833e-10
1.34213e-10
2.21295e-10
2.13542e-10
-6.91162e-11
2.90413e-10
-4.32607e-10
3.63497e-10
-8.64583e-10
4.31974e-10
-1.35997e-09
4.95381e-10
-1.91346e-09
5.53497e-10
-2.51974e-09
6.06278e-10
-3.17355e-09
6.53808e-10
-3.86982e-09
6.96265e-10
-4.60371e-09
7.33894e-10
-5.37068e-09
7.66974e-10
-6.1665e-09
7.95819e-10
-6.98726e-09
8.20758e-10
-7.82939e-09
8.42129e-10
-8.68966e-09
8.60268e-10
-9.56517e-09
8.75506e-10
-1.04533e-08
8.88162e-10
-1.13519e-08
8.98542e-10
-1.22588e-08
9.06934e-10
-1.31724e-08
9.1361e-10
-1.40912e-08
9.18824e-10
-1.50141e-08
9.22813e-10
-1.59398e-08
9.25791e-10
-1.68678e-08
9.27956e-10
-1.77973e-08
9.29487e-10
-1.87278e-08
9.30546e-10
-1.96591e-08
9.31279e-10
-2.05909e-08
9.31818e-10
-2.15232e-08
9.32277e-10
-2.2456e-08
9.32761e-10
-2.33893e-08
9.33358e-10
-2.43235e-08
9.34147e-10
-2.52587e-08
9.35201e-10
-2.61953e-08
9.36579e-10
-2.71336e-08
9.38335e-10
-2.80741e-08
9.40511e-10
-2.90172e-08
9.43143e-10
-2.99635e-08
9.46264e-10
-3.09134e-08
9.49903e-10
-3.18675e-08
9.54081e-10
-3.28263e-08
9.58816e-10
-3.37904e-08
9.6412e-10
-3.47604e-08
9.70004e-10
-3.57369e-08
9.76469e-10
-3.67204e-08
9.83519e-10
-3.77116e-08
9.91152e-10
-3.87109e-08
9.99364e-10
-3.97191e-08
1.00815e-09
-4.07366e-08
1.01749e-09
-4.17639e-08
1.02738e-09
-4.28017e-08
1.03778e-09
-4.38504e-08
1.04869e-09
-4.49105e-08
1.06008e-09
-4.59824e-08
1.0719e-09
-4.70665e-08
1.08412e-09
-4.81632e-08
1.09671e-09
-4.92728e-08
1.10961e-09
-5.03956e-08
1.12277e-09
-5.15317e-08
1.13614e-09
-5.26814e-08
1.14965e-09
-5.38446e-08
1.16323e-09
-5.50214e-08
1.17681e-09
-5.62117e-08
1.19029e-09
-5.74153e-08
1.20359e-09
-5.86319e-08
1.21661e-09
-5.98612e-08
1.22924e-09
-6.11025e-08
1.24137e-09
-6.23554e-08
1.25287e-09
-6.3619e-08
1.26361e-09
-6.48924e-08
1.27344e-09
-6.61747e-08
1.28221e-09
-6.74644e-08
1.28977e-09
-6.87604e-08
1.29595e-09
-7.00609e-08
1.30056e-09
-7.13644e-08
1.30342e-09
-7.26687e-08
1.30433e-09
-7.39718e-08
1.30308e-09
-7.52712e-08
1.29946e-09
-7.65645e-08
1.29325e-09
-7.78487e-08
1.28421e-09
-7.91208e-08
1.27211e-09
-8.03775e-08
1.25671e-09
-8.16153e-08
1.23775e-09
-8.28302e-08
1.21498e-09
-8.40184e-08
1.18815e-09
-8.51754e-08
1.157e-09
-8.62967e-08
1.12129e-09
-8.73774e-08
1.08074e-09
-8.84126e-08
1.03513e-09
-8.93968e-08
9.84216e-10
-9.03245e-08
9.27767e-10
-9.11901e-08
8.65573e-10
-9.19875e-08
7.97438e-10
-9.27107e-08
7.2319e-10
-9.33534e-08
6.4268e-10
-9.39092e-08
5.55787e-10
-9.43716e-08
4.62427e-10
-9.47342e-08
3.62549e-10
-9.49903e-08
2.56147e-10
-9.51336e-08
1.43261e-10
-9.51576e-08
2.39856e-11
-9.5056e-08
-1.01535e-10
-9.4823e-08
-2.33086e-10
-9.44526e-08
-3.70394e-10
-9.39394e-08
-5.13117e-10
-9.32786e-08
-6.60837e-10
-9.24655e-08
-8.13064e-10
-9.14963e-08
-9.69225e-10
-9.03676e-08
-1.12867e-09
-8.9077e-08
-1.29067e-09
-8.76226e-08
-1.45441e-09
-8.60036e-08
-1.619e-09
-8.42201e-08
-1.78347e-09
-8.22733e-08
-1.94678e-09
-8.01655e-08
-2.10782e-09
-7.79001e-08
-2.26542e-09
-7.54817e-08
-2.41835e-09
-7.29164e-08
-2.56534e-09
-7.02113e-08
-2.7051e-09
-6.7375e-08
-2.83629e-09
-6.44174e-08
-2.9576e-09
-6.13497e-08
-3.0677e-09
-5.81844e-08
-3.16529e-09
-5.49353e-08
-3.24911e-09
-5.16173e-08
-3.31797e-09
-4.82466e-08
-3.37074e-09
-4.48402e-08
-3.40638e-09
-4.14162e-08
-3.42396e-09
-3.79936e-08
-3.42268e-09
-3.45917e-08
-3.40185e-09
-3.12308e-08
-3.36094e-09
-2.79312e-08
-3.29959e-09
-2.47136e-08
-3.21758e-09
-2.15987e-08
-3.11487e-09
-1.86071e-08
-2.99158e-09
-1.57591e-08
-2.84803e-09
-1.30745e-08
-2.68467e-09
-1.05723e-08
-2.50216e-09
-8.27095e-09
-2.30134e-09
-6.18771e-09
-2.08324e-09
-4.3386e-09
-1.84911e-09
-2.7381e-09
-1.6005e-09
-1.39877e-09
-1.33934e-09
-3.30628e-10
-1.06814e-09
4.59741e-10
-7.9037e-10
9.7078e-10
-5.1104e-10
1.20816e-09
-2.37379e-10
1.19032e-09
1.78344e-11
9.55581e-10
2.3474e-10
5.76566e-10
3.79013e-10
1.87083e-10
3.89481e-10
1.8708e-10
1.44403e-10
-1.98584e-10
4.12346e-10
-4.1229e-10
6.90768e-10
-4.46554e-10
8.95376e-10
-3.48363e-10
9.66849e-10
-1.62424e-10
8.66808e-10
7.78082e-11
5.72908e-10
3.48428e-10
7.44552e-11
6.3266e-10
-6.30901e-10
9.18893e-10
-1.53967e-09
1.19918e-09
-2.64432e-09
1.46814e-09
-3.9346e-09
1.72226e-09
-5.39856e-09
1.95934e-09
-7.02322e-09
2.17816e-09
-8.79516e-09
2.37821e-09
-1.07009e-08
2.55952e-09
-1.27271e-08
2.72249e-09
-1.4861e-08
2.86782e-09
-1.70904e-08
2.99639e-09
-1.94038e-08
3.10925e-09
-2.17906e-08
3.2075e-09
-2.42408e-08
3.29231e-09
-2.67454e-08
3.36487e-09
-2.92962e-08
3.42636e-09
-3.1886e-08
3.47794e-09
-3.45081e-08
3.52071e-09
-3.7157e-08
3.55575e-09
-3.98274e-08
3.58405e-09
-4.25152e-08
3.60659e-09
-4.52166e-08
3.62422e-09
-4.79286e-08
3.63778e-09
-5.06486e-08
3.64801e-09
-5.33747e-08
3.65559e-09
-5.61053e-08
3.66115e-09
-5.88393e-08
3.66526e-09
-6.15759e-08
3.66842e-09
-6.43147e-08
3.67108e-09
-6.70556e-08
3.67366e-09
-6.97988e-08
3.67649e-09
-7.25445e-08
3.67991e-09
-7.52935e-08
3.68419e-09
-7.80465e-08
3.68957e-09
-8.08044e-08
3.69626e-09
-8.35684e-08
3.70444e-09
-8.63395e-08
3.71427e-09
-8.91191e-08
3.72588e-09
-9.19086e-08
3.73938e-09
-9.47093e-08
3.75485e-09
-9.75229e-08
3.77236e-09
-1.00351e-07
3.79198e-09
-1.03194e-07
3.81373e-09
-1.06056e-07
3.83765e-09
-1.08936e-07
3.86374e-09
-1.11837e-07
3.89199e-09
-1.1476e-07
3.92238e-09
-1.17706e-07
3.95489e-09
-1.20678e-07
3.98945e-09
-1.23677e-07
4.02601e-09
-1.26704e-07
4.06449e-09
-1.2976e-07
4.10478e-09
-1.32847e-07
4.14679e-09
-1.35965e-07
4.19038e-09
-1.39116e-07
4.23539e-09
-1.42301e-07
4.28167e-09
-1.45521e-07
4.32902e-09
-1.48775e-07
4.37723e-09
-1.52065e-07
4.42608e-09
-1.55391e-07
4.47531e-09
-1.58752e-07
4.52463e-09
-1.62149e-07
4.57375e-09
-1.65581e-07
4.62233e-09
-1.69048e-07
4.67e-09
-1.72547e-07
4.71638e-09
-1.76079e-07
4.76105e-09
-1.79641e-07
4.80355e-09
-1.83232e-07
4.8434e-09
-1.86848e-07
4.88008e-09
-1.90488e-07
4.91304e-09
-1.94147e-07
4.94169e-09
-1.97823e-07
4.96542e-09
-2.01511e-07
4.98358e-09
-2.05206e-07
4.99547e-09
-2.08903e-07
5.00038e-09
-2.12596e-07
4.99755e-09
-2.16279e-07
4.9862e-09
-2.19945e-07
4.9655e-09
-2.23586e-07
4.93463e-09
-2.27195e-07
4.8927e-09
-2.30762e-07
4.83883e-09
-2.34277e-07
4.77211e-09
-2.37731e-07
4.6916e-09
-2.41112e-07
4.59637e-09
-2.4441e-07
4.48548e-09
-2.4761e-07
4.35799e-09
-2.50702e-07
4.21297e-09
-2.53671e-07
4.0495e-09
-2.56503e-07
3.8667e-09
-2.59182e-07
3.66371e-09
-2.61694e-07
3.43973e-09
-2.64022e-07
3.19401e-09
-2.66151e-07
2.92588e-09
-2.68062e-07
2.63473e-09
-2.6974e-07
2.32009e-09
-2.71166e-07
1.98156e-09
-2.72322e-07
1.6189e-09
-2.73191e-07
1.232e-09
-2.73756e-07
8.20911e-10
-2.73999e-07
3.8587e-10
-2.73902e-07
-7.26964e-11
-2.7345e-07
-5.54151e-10
-2.72625e-07
-1.05763e-09
-2.71413e-07
-1.58201e-09
-2.69801e-07
-2.12596e-09
-2.67774e-07
-2.68782e-09
-2.65321e-07
-3.2657e-09
-2.62433e-07
-3.85741e-09
-2.59101e-07
-4.46045e-09
-2.5532e-07
-5.07206e-09
-2.51085e-07
-5.68918e-09
-2.46395e-07
-6.30844e-09
-2.41253e-07
-6.92624e-09
-2.35661e-07
-7.53867e-09
-2.29627e-07
-8.14162e-09
-2.23162e-07
-8.73075e-09
-2.16278e-07
-9.30152e-09
-2.08995e-07
-9.84927e-09
-2.0133e-07
-1.03692e-08
-1.9331e-07
-1.08565e-08
-1.84962e-07
-1.13062e-08
-1.76316e-07
-1.17136e-08
-1.67407e-07
-1.20739e-08
-1.58274e-07
-1.23825e-08
-1.48956e-07
-1.26351e-08
-1.395e-07
-1.28276e-08
-1.2995e-07
-1.29562e-08
-1.20356e-07
-1.30175e-08
-1.1077e-07
-1.30086e-08
-1.01245e-07
-1.29271e-08
-9.18349e-08
-1.27712e-08
-8.25951e-08
-1.25394e-08
-7.35815e-08
-1.22311e-08
-6.48501e-08
-1.18463e-08
-5.64562e-08
-1.13855e-08
-4.84541e-08
-1.08501e-08
-4.08969e-08
-1.02419e-08
-3.38354e-08
-9.5637e-09
-2.73177e-08
-8.81901e-09
-2.13888e-08
-8.01218e-09
-1.60893e-08
-7.14859e-09
-1.14549e-08
-6.23493e-09
-7.51456e-09
-5.27962e-09
-4.28919e-09
-4.29351e-09
-1.7885e-09
-3.29106e-09
-7.28212e-12
-2.29226e-09
1.08156e-09
-1.32623e-09
1.53378e-09
-4.34382e-10
1.44901e-09
3.19516e-10
9.87366e-10
8.40657e-10
3.87972e-10
9.88882e-10
5.75048e-10
1.69836e-10
-3.68419e-10
4.49824e-10
-6.92273e-10
6.97646e-10
-6.94379e-10
8.11377e-10
-4.62096e-10
7.16798e-10
-6.78377e-11
3.63198e-10
4.31416e-10
-2.80937e-10
9.92568e-10
-1.23217e-09
1.5839e-09
-2.49571e-09
2.18244e-09
-4.06828e-09
2.77174e-09
-5.94044e-09
3.3403e-09
-8.09843e-09
3.88025e-09
-1.05255e-08
4.38644e-09
-1.32032e-08
4.85582e-09
-1.61118e-08
5.28685e-09
-1.92315e-08
5.67919e-09
-2.25424e-08
6.03335e-09
-2.60251e-08
6.35051e-09
-2.9661e-08
6.63232e-09
-3.34325e-08
6.88078e-09
-3.73231e-08
7.09807e-09
-4.13174e-08
7.28656e-09
-4.54012e-08
7.44867e-09
-4.95616e-08
7.58682e-09
-5.37871e-08
7.70342e-09
-5.80672e-08
7.80079e-09
-6.23926e-08
7.88118e-09
-6.67553e-08
7.94673e-09
-7.11482e-08
7.99946e-09
-7.55652e-08
8.04125e-09
-8.00013e-08
8.07387e-09
-8.44522e-08
8.09893e-09
-8.89145e-08
8.11791e-09
-9.33855e-08
8.13217e-09
-9.78632e-08
8.14295e-09
-1.02346e-07
8.15135e-09
-1.06833e-07
8.15838e-09
-1.11325e-07
8.16492e-09
-1.1582e-07
8.17177e-09
-1.2032e-07
8.17964e-09
-1.24825e-07
8.18913e-09
-1.29336e-07
8.2008e-09
-1.33855e-07
8.21512e-09
-1.38383e-07
8.23248e-09
-1.42922e-07
8.25325e-09
-1.47474e-07
8.27773e-09
-1.5204e-07
8.30615e-09
-1.56624e-07
8.33873e-09
-1.61228e-07
8.37562e-09
-1.65853e-07
8.41695e-09
-1.70502e-07
8.46281e-09
-1.75177e-07
8.51324e-09
-1.79882e-07
8.56827e-09
-1.84618e-07
8.62789e-09
-1.89387e-07
8.69204e-09
-1.94193e-07
8.76065e-09
-1.99037e-07
8.83361e-09
-2.03922e-07
8.91077e-09
-2.08849e-07
8.99194e-09
-2.13822e-07
9.07691e-09
-2.1884e-07
9.16544e-09
-2.23907e-07
9.25721e-09
-2.29024e-07
9.3519e-09
-2.34191e-07
9.44912e-09
-2.3941e-07
9.54846e-09
-2.44683e-07
9.64945e-09
-2.50008e-07
9.75156e-09
-2.55387e-07
9.85422e-09
-2.60819e-07
9.95681e-09
-2.66304e-07
1.00586e-08
-2.71841e-07
1.0159e-08
-2.77428e-07
1.0257e-08
-2.83063e-07
1.03519e-08
-2.88745e-07
1.04426e-08
-2.9447e-07
1.05283e-08
-3.00234e-07
1.06078e-08
-3.06034e-07
1.06799e-08
-3.11864e-07
1.07436e-08
-3.1772e-07
1.07975e-08
-3.23595e-07
1.08402e-08
-3.29482e-07
1.08704e-08
-3.35373e-07
1.08864e-08
-3.41259e-07
1.08869e-08
-3.47132e-07
1.08701e-08
-3.5298e-07
1.08343e-08
-3.58792e-07
1.07778e-08
-3.64556e-07
1.06988e-08
-3.70259e-07
1.05953e-08
-3.75886e-07
1.04656e-08
-3.81421e-07
1.03076e-08
-3.86849e-07
1.01193e-08
-3.92151e-07
9.89888e-09
-3.9731e-07
9.64421e-09
-4.02305e-07
9.35336e-09
-4.07117e-07
9.02437e-09
-4.11723e-07
8.65533e-09
-4.161e-07
8.24441e-09
-4.20227e-07
7.78983e-09
-4.24077e-07
7.28996e-09
-4.27626e-07
6.74327e-09
-4.30849e-07
6.14841e-09
-4.33718e-07
5.5042e-09
-4.36208e-07
4.8097e-09
-4.3829e-07
4.06421e-09
-4.39939e-07
3.2673e-09
-4.41125e-07
2.41886e-09
-4.41824e-07
1.51915e-09
-4.42007e-07
5.68781e-10
-4.41648e-07
-4.31193e-10
-4.40723e-07
-1.47928e-09
-4.39207e-07
-2.5735e-09
-4.37078e-07
-3.71137e-09
-4.34314e-07
-4.88987e-09
-4.30896e-07
-6.1054e-09
-4.26808e-07
-7.35378e-09
-4.22035e-07
-8.63026e-09
-4.16566e-07
-9.92946e-09
-4.10393e-07
-1.12454e-08
-4.03511e-07
-1.25715e-08
-3.95919e-07
-1.39006e-08
-3.8762e-07
-1.52249e-08
-3.78622e-07
-1.65362e-08
-3.68938e-07
-1.78257e-08
-3.58585e-07
-1.90842e-08
-3.47584e-07
-2.03022e-08
-3.35964e-07
-2.14698e-08
-3.23756e-07
-2.25768e-08
-3.10999e-07
-2.36132e-08
-2.97737e-07
-2.45686e-08
-2.84018e-07
-2.54329e-08
-2.69895e-07
-2.61962e-08
-2.55429e-07
-2.68489e-08
-2.40682e-07
-2.73819e-08
-2.25723e-07
-2.77866e-08
-2.10624e-07
-2.80552e-08
-1.95461e-07
-2.81806e-08
-1.80313e-07
-2.81567e-08
-1.65261e-07
-2.79786e-08
-1.5039e-07
-2.76423e-08
-1.35784e-07
-2.71453e-08
-1.2153e-07
-2.6486e-08
-1.07711e-07
-2.56647e-08
-9.44139e-08
-2.46827e-08
-8.17209e-08
-2.35431e-08
-6.97125e-08
-2.22503e-08
-5.84656e-08
-2.08105e-08
-4.80528e-08
-1.92319e-08
-3.85407e-08
-1.75243e-08
-2.99891e-08
-1.57002e-08
-2.24489e-08
-1.37751e-08
-1.59604e-08
-1.17681e-08
-1.055e-08
-9.70393e-09
-6.22657e-09
-7.61452e-09
-2.97609e-09
-5.54273e-09
-7.55082e-10
-3.54724e-09
5.20214e-10
-1.70968e-09
9.85326e-10
-1.45599e-10
8.42594e-10
9.83384e-10
3.77342e-10
1.45414e-09
9.5239e-10
1.46873e-10
-5.15293e-10
3.54451e-10
-8.99852e-10
4.68719e-10
-8.08651e-10
3.79825e-10
-3.73197e-10
7.43426e-12
3.04555e-10
-7.04496e-10
1.14334e-09
-1.79195e-09
2.08002e-09
-3.2746e-09
3.06656e-09
-5.15927e-09
4.06711e-09
-7.44278e-09
5.05526e-09
-1.01144e-08
6.01194e-09
-1.31579e-08
6.92375e-09
-1.65531e-08
7.78165e-09
-2.02773e-08
8.57996e-09
-2.4306e-08
9.31562e-09
-2.86144e-08
9.98753e-09
-3.31772e-08
1.05961e-08
-3.79697e-08
1.1143e-08
-4.2968e-08
1.16307e-08
-4.81494e-08
1.20621e-08
-5.34921e-08
1.24408e-08
-5.89762e-08
1.27706e-08
-6.45829e-08
1.30554e-08
-7.02952e-08
1.32992e-08
-7.60977e-08
1.35059e-08
-8.19763e-08
1.36794e-08
-8.79187e-08
1.38235e-08
-9.39138e-08
1.39418e-08
-9.9952e-08
1.40377e-08
-1.06025e-07
1.41143e-08
-1.12126e-07
1.41748e-08
-1.18249e-07
1.42217e-08
-1.24389e-07
1.42577e-08
-1.30542e-07
1.42851e-08
-1.36705e-07
1.43061e-08
-1.42876e-07
1.43225e-08
-1.49054e-07
1.43361e-08
-1.55237e-07
1.43485e-08
-1.61426e-07
1.4361e-08
-1.67621e-07
1.43748e-08
-1.73823e-07
1.43911e-08
-1.80034e-07
1.44108e-08
-1.86253e-07
1.44348e-08
-1.92484e-07
1.44637e-08
-1.98729e-07
1.44983e-08
-2.04991e-07
1.45389e-08
-2.11271e-07
1.45861e-08
-2.17572e-07
1.46403e-08
-2.23898e-07
1.47017e-08
-2.30252e-07
1.47705e-08
-2.36636e-07
1.48469e-08
-2.43054e-07
1.4931e-08
-2.49508e-07
1.50228e-08
-2.56003e-07
1.51224e-08
-2.6254e-07
1.52295e-08
-2.69123e-07
1.53441e-08
-2.75756e-07
1.5466e-08
-2.8244e-07
1.55949e-08
-2.89179e-07
1.57305e-08
-2.95974e-07
1.58724e-08
-3.02829e-07
1.60201e-08
-3.09745e-07
1.61732e-08
-3.16724e-07
1.63309e-08
-3.23767e-07
1.64927e-08
-3.30877e-07
1.66578e-08
-3.38053e-07
1.68253e-08
-3.45295e-07
1.69944e-08
-3.52605e-07
1.7164e-08
-3.59981e-07
1.73331e-08
-3.67423e-07
1.75003e-08
-3.74929e-07
1.76645e-08
-3.82496e-07
1.78241e-08
-3.90122e-07
1.79778e-08
-3.97803e-07
1.81238e-08
-4.05535e-07
1.82604e-08
-4.13313e-07
1.83858e-08
-4.21131e-07
1.84979e-08
-4.28982e-07
1.85948e-08
-4.36859e-07
1.8674e-08
-4.44752e-07
1.87335e-08
-4.52652e-07
1.87705e-08
-4.60548e-07
1.87827e-08
-4.68429e-07
1.87673e-08
-4.7628e-07
1.87214e-08
-4.84088e-07
1.86423e-08
-4.91837e-07
1.85268e-08
-4.9951e-07
1.8372e-08
-5.07089e-07
1.81746e-08
-5.14555e-07
1.79313e-08
-5.21887e-07
1.7639e-08
-5.29061e-07
1.72942e-08
-5.36056e-07
1.68936e-08
-5.42846e-07
1.6434e-08
-5.49404e-07
1.59119e-08
-5.55704e-07
1.53242e-08
-5.61717e-07
1.46677e-08
-5.67412e-07
1.39393e-08
-5.72758e-07
1.31361e-08
-5.77723e-07
1.22556e-08
-5.82275e-07
1.12951e-08
-5.8638e-07
1.02527e-08
-5.90002e-07
9.12633e-09
-5.93107e-07
7.91466e-09
-5.95659e-07
6.61664e-09
-5.97624e-07
5.23175e-09
-5.98965e-07
3.75997e-09
-5.99647e-07
2.20192e-09
-5.99637e-07
5.58852e-10
-5.98901e-07
-1.16728e-09
-5.97407e-07
-2.97374e-09
-5.95123e-07
-4.857e-09
-5.92022e-07
-6.81267e-09
-5.88077e-07
-8.83545e-09
-5.83263e-07
-1.09191e-08
-5.7756e-07
-1.30564e-08
-5.70951e-07
-1.52392e-08
-5.63423e-07
-1.74582e-08
-5.54965e-07
-1.97034e-08
-5.45573e-07
-2.19633e-08
-5.35247e-07
-2.42261e-08
-5.23994e-07
-2.64784e-08
-5.11824e-07
-2.87064e-08
-4.98754e-07
-3.08953e-08
-4.84809e-07
-3.30296e-08
-4.70017e-07
-3.50934e-08
-4.54417e-07
-3.70699e-08
-4.38052e-07
-3.89424e-08
-4.20971e-07
-4.06938e-08
-4.03233e-07
-4.2307e-08
-3.849e-07
-4.3765e-08
-3.66045e-07
-4.50514e-08
-3.46744e-07
-4.61501e-08
-3.2708e-07
-4.70459e-08
-3.07142e-07
-4.77246e-08
-2.87024e-07
-4.81732e-08
-2.66825e-07
-4.83799e-08
-2.46647e-07
-4.83347e-08
-2.26596e-07
-4.80293e-08
-2.06781e-07
-4.74573e-08
-1.87312e-07
-4.66144e-08
-1.683e-07
-4.54985e-08
-1.49854e-07
-4.411e-08
-1.32086e-07
-4.24516e-08
-1.151e-07
-4.05287e-08
-9.90009e-08
-3.83493e-08
-8.38868e-08
-3.59246e-08
-6.98498e-08
-3.32688e-08
-5.69742e-08
-3.03999e-08
-4.53346e-08
-2.73398e-08
-3.49937e-08
-2.4116e-08
-2.59996e-08
-2.07622e-08
-1.83825e-08
-1.73211e-08
-1.21501e-08
-1.38469e-08
-7.28269e-09
-1.04102e-08
-3.72561e-09
-7.10432e-09
-1.38091e-09
-4.05438e-09
-9.69046e-11
-1.4296e-09
3.43757e-10
5.42719e-10
2.38211e-10
1.55968e-09
1.1906e-09
9.48102e-11
-6.10101e-10
1.68114e-10
-9.73154e-10
7.02742e-11
-7.10803e-10
-3.0777e-10
4.84973e-12
-1.04619e-09
1.04297e-09
-2.2015e-09
2.29866e-09
-3.81031e-09
3.68882e-09
-5.89283e-09
5.14909e-09
-8.45595e-09
6.63022e-09
-1.14958e-08
8.09516e-09
-1.50004e-08
9.51653e-09
-1.89513e-08
1.08746e-08
-2.33256e-08
1.21559e-08
-2.80971e-08
1.33515e-08
-3.32377e-08
1.44563e-08
-3.87184e-08
1.54682e-08
-4.45096e-08
1.63873e-08
-5.05821e-08
1.72156e-08
-5.69078e-08
1.79563e-08
-6.34593e-08
1.86136e-08
-7.02108e-08
1.91923e-08
-7.71381e-08
1.96979e-08
-8.42186e-08
2.01359e-08
-9.14317e-08
2.05122e-08
-9.87583e-08
2.08325e-08
-1.06181e-07
2.11026e-08
-1.13686e-07
2.13278e-08
-1.21258e-07
2.15136e-08
-1.28885e-07
2.16651e-08
-1.36557e-07
2.17869e-08
-1.44266e-07
2.18835e-08
-1.52004e-07
2.19592e-08
-1.59764e-07
2.20177e-08
-1.67541e-07
2.20626e-08
-1.75332e-07
2.20971e-08
-1.83134e-07
2.21241e-08
-1.90944e-07
2.21462e-08
-1.98761e-07
2.21659e-08
-2.06586e-07
2.21852e-08
-2.14417e-07
2.22061e-08
-2.22256e-07
2.22302e-08
-2.30104e-07
2.2259e-08
-2.37963e-07
2.22939e-08
-2.45835e-07
2.23358e-08
-2.53723e-07
2.23859e-08
-2.61629e-07
2.24449e-08
-2.69556e-07
2.25135e-08
-2.77508e-07
2.25922e-08
-2.85488e-07
2.26817e-08
-2.935e-07
2.27821e-08
-3.01547e-07
2.28937e-08
-3.09632e-07
2.30167e-08
-3.17761e-07
2.31512e-08
-3.25935e-07
2.3297e-08
-3.3416e-07
2.34541e-08
-3.42438e-07
2.36222e-08
-3.50773e-07
2.3801e-08
-3.59168e-07
2.39901e-08
-3.67627e-07
2.4189e-08
-3.76151e-07
2.43971e-08
-3.84745e-07
2.46136e-08
-3.9341e-07
2.48378e-08
-4.02147e-07
2.50687e-08
-4.1096e-07
2.53052e-08
-4.19848e-07
2.55462e-08
-4.28813e-07
2.57904e-08
-4.37855e-07
2.60364e-08
-4.46974e-07
2.62825e-08
-4.56168e-07
2.65271e-08
-4.65436e-07
2.67683e-08
-4.74776e-07
2.70041e-08
-4.84184e-07
2.72324e-08
-4.93657e-07
2.74507e-08
-5.0319e-07
2.76567e-08
-5.12777e-07
2.78475e-08
-5.22411e-07
2.80205e-08
-5.32086e-07
2.81725e-08
-5.41792e-07
2.83003e-08
-5.51518e-07
2.84007e-08
-5.61255e-07
2.84699e-08
-5.70989e-07
2.85044e-08
-5.80706e-07
2.85002e-08
-5.90392e-07
2.84532e-08
-6.0003e-07
2.83593e-08
-6.09602e-07
2.8214e-08
-6.19088e-07
2.80128e-08
-6.28467e-07
2.77512e-08
-6.37717e-07
2.74243e-08
-6.46813e-07
2.70274e-08
-6.55729e-07
2.65554e-08
-6.64439e-07
2.60036e-08
-6.72912e-07
2.5367e-08
-6.81119e-07
2.46406e-08
-6.89026e-07
2.38196e-08
-6.96601e-07
2.28992e-08
-7.03808e-07
2.18749e-08
-7.10611e-07
2.07422e-08
-7.16972e-07
1.94969e-08
-7.22852e-07
1.81352e-08
-7.2821e-07
1.66537e-08
-7.33007e-07
1.50492e-08
-7.372e-07
1.33193e-08
-7.40747e-07
1.14621e-08
-7.43607e-07
9.47615e-09
-7.45736e-07
7.36099e-09
-7.47093e-07
5.11685e-09
-7.47636e-07
2.74491e-09
-7.47324e-07
2.47283e-10
-7.46119e-07
-2.37284e-09
-7.43981e-07
-5.11114e-09
-7.40876e-07
-7.9621e-09
-7.3677e-07
-1.09189e-08
-7.31632e-07
-1.39735e-08
-7.25435e-07
-1.71163e-08
-7.18155e-07
-2.03365e-08
-7.09772e-07
-2.36216e-08
-7.00273e-07
-2.69578e-08
-6.89646e-07
-3.03299e-08
-6.77888e-07
-3.37211e-08
-6.65001e-07
-3.71132e-08
-6.50993e-07
-4.04868e-08
-6.35878e-07
-4.38211e-08
-6.19679e-07
-4.70943e-08
-6.02425e-07
-5.02835e-08
-5.84154e-07
-5.33648e-08
-5.6491e-07
-5.6314e-08
-5.44746e-07
-5.9106e-08
-5.23724e-07
-6.17157e-08
-5.01913e-07
-6.41179e-08
-4.79391e-07
-6.62877e-08
-4.56241e-07
-6.82009e-08
-4.32558e-07
-6.98338e-08
-4.08439e-07
-7.11641e-08
-3.83993e-07
-7.21709e-08
-3.59331e-07
-7.2835e-08
-3.34572e-07
-7.31394e-08
-3.09837e-07
-7.30692e-08
-2.85254e-07
-7.26124e-08
-2.60952e-07
-7.17596e-08
-2.37061e-07
-7.05047e-08
-2.13715e-07
-6.88449e-08
-1.91044e-07
-6.67809e-08
-1.69179e-07
-6.43171e-08
-1.48245e-07
-6.14619e-08
-1.28367e-07
-5.82281e-08
-1.09658e-07
-5.46327e-08
-9.22294e-08
-5.06978e-08
-7.61782e-08
-4.64512e-08
-6.15913e-08
-4.19267e-08
-4.85411e-08
-3.71662e-08
-3.70823e-08
-3.2221e-08
-2.72487e-08
-2.71546e-08
-1.90489e-08
-2.20467e-08
-1.24607e-08
-1.69983e-08
-7.42602e-09
-1.2139e-08
-3.843e-09
-7.6374e-09
-1.55869e-09
-3.71392e-09
-3.60379e-10
-6.55589e-10
3.45305e-11
1.16476e-09
1.22513e-09
2.52703e-11
-6.35367e-10
-7.86025e-11
-8.69287e-10
-4.46677e-10
-3.42722e-10
-1.18012e-09
7.38293e-10
-2.354e-09
2.21685e-09
-4.02128e-09
3.96594e-09
-6.2162e-09
5.88374e-09
-8.95719e-09
7.89008e-09
-1.22496e-08
9.92259e-09
-1.60879e-08
1.19335e-08
-2.04582e-08
1.38868e-08
-2.53399e-08
1.57564e-08
-3.07075e-08
1.75235e-08
-3.6532e-08
1.91759e-08
-4.2782e-08
2.07063e-08
-4.9425e-08
2.21112e-08
-5.64279e-08
2.33902e-08
-6.37579e-08
2.45456e-08
-7.13829e-08
2.55813e-08
-7.92719e-08
2.65026e-08
-8.73954e-08
2.73159e-08
-9.57258e-08
2.80282e-08
-1.04237e-07
2.86472e-08
-1.12905e-07
2.91804e-08
-1.21708e-07
2.96356e-08
-1.30626e-07
3.00207e-08
-1.39642e-07
3.0343e-08
-1.48738e-07
3.06099e-08
-1.57901e-07
3.08283e-08
-1.67119e-07
3.10048e-08
-1.76381e-07
3.11454e-08
-1.85678e-07
3.12561e-08
-1.95002e-07
3.1342e-08
-2.04347e-07
3.14081e-08
-2.13709e-07
3.14589e-08
-2.23084e-07
3.14985e-08
-2.32468e-07
3.15305e-08
-2.4186e-07
3.15584e-08
-2.5126e-07
3.15851e-08
-2.60668e-07
3.16134e-08
-2.70083e-07
3.16455e-08
-2.79507e-07
3.16836e-08
-2.88943e-07
3.17295e-08
-2.98392e-07
3.17849e-08
-3.07857e-07
3.18511e-08
-3.17342e-07
3.19293e-08
-3.26849e-07
3.20205e-08
-3.36382e-07
3.21255e-08
-3.45945e-07
3.22449e-08
-3.55543e-07
3.23794e-08
-3.65178e-07
3.25291e-08
-3.74856e-07
3.26943e-08
-3.8458e-07
3.28752e-08
-3.94354e-07
3.30715e-08
-4.04183e-07
3.32832e-08
-4.14071e-07
3.35099e-08
-4.24021e-07
3.37512e-08
-4.34038e-07
3.40064e-08
-4.44123e-07
3.42748e-08
-4.54282e-07
3.45555e-08
-4.64515e-07
3.48475e-08
-4.74827e-07
3.51496e-08
-4.85219e-07
3.54605e-08
-4.95692e-07
3.57786e-08
-5.06249e-07
3.61023e-08
-5.16888e-07
3.64297e-08
-5.2761e-07
3.67589e-08
-5.38415e-07
3.70874e-08
-5.49301e-07
3.74129e-08
-5.60266e-07
3.77328e-08
-5.71306e-07
3.80442e-08
-5.82417e-07
3.8344e-08
-5.93595e-07
3.86289e-08
-6.04834e-07
3.88954e-08
-6.16126e-07
3.91397e-08
-6.27464e-07
3.93578e-08
-6.38837e-07
3.95455e-08
-6.50235e-07
3.96982e-08
-6.61645e-07
3.98112e-08
-6.73055e-07
3.98796e-08
-6.84449e-07
3.98982e-08
-6.9581e-07
3.98615e-08
-7.07121e-07
3.97638e-08
-7.18361e-07
3.95993e-08
-7.29509e-07
3.9362e-08
-7.40541e-07
3.90456e-08
-7.51434e-07
3.86437e-08
-7.62159e-07
3.81497e-08
-7.72689e-07
3.75571e-08
-7.82993e-07
3.68592e-08
-7.93038e-07
3.60491e-08
-8.02791e-07
3.51201e-08
-8.12216e-07
3.40656e-08
-8.21276e-07
3.28789e-08
-8.2993e-07
3.15537e-08
-8.38139e-07
3.00838e-08
-8.4586e-07
2.84632e-08
-8.5305e-07
2.66864e-08
-8.59663e-07
2.47484e-08
-8.65654e-07
2.26445e-08
-8.70975e-07
2.03709e-08
-8.7558e-07
1.79243e-08
-8.79421e-07
1.53024e-08
-8.82448e-07
1.25037e-08
-8.84615e-07
9.52761e-09
-8.85873e-07
6.37497e-09
-8.86176e-07
3.04764e-09
-8.85477e-07
-4.51125e-10
-8.83733e-07
-4.11662e-09
-8.80902e-07
-7.94258e-09
-8.76943e-07
-1.19211e-08
-8.71819e-07
-1.60426e-08
-8.65497e-07
-2.02956e-08
-8.57947e-07
-2.46669e-08
-8.49142e-07
-2.91411e-08
-8.39062e-07
-3.37012e-08
-8.27692e-07
-3.83279e-08
-8.15022e-07
-4.30002e-08
-8.01048e-07
-4.76949e-08
-7.85774e-07
-5.23872e-08
-7.69211e-07
-5.70504e-08
-7.51376e-07
-6.1656e-08
-7.32296e-07
-6.61741e-08
-7.12006e-07
-7.05734e-08
-6.90549e-07
-7.48216e-08
-6.67978e-07
-7.88853e-08
-6.44353e-07
-8.27305e-08
-6.19746e-07
-8.6323e-08
-5.94236e-07
-8.96285e-08
-5.6791e-07
-9.26133e-08
-5.40867e-07
-9.52441e-08
-5.13211e-07
-9.74891e-08
-4.85057e-07
-9.93179e-08
-4.56526e-07
-1.00702e-07
-4.27746e-07
-1.01615e-07
-3.98851e-07
-1.02035e-07
-3.6998e-07
-1.0194e-07
-3.41277e-07
-1.01315e-07
-3.12889e-07
-1.00148e-07
-2.84965e-07
-9.84287e-08
-2.57655e-07
-9.6155e-08
-2.31108e-07
-9.33278e-08
-2.05471e-07
-8.99536e-08
-1.80888e-07
-8.60445e-08
-1.57498e-07
-8.16183e-08
-1.35432e-07
-7.66994e-08
-1.14811e-07
-7.13189e-08
-9.5746e-08
-6.55157e-08
-7.83352e-08
-5.93375e-08
-6.26589e-08
-5.28425e-08
-4.87785e-08
-4.61014e-08
-3.67325e-08
-3.92007e-08
-2.65324e-08
-3.22468e-08
-1.81589e-08
-2.53719e-08
-1.15562e-08
-1.87417e-08
-6.62764e-09
-1.25659e-08
-3.23039e-09
-7.11117e-09
-1.17039e-09
-2.71559e-09
-1.97817e-10
1.92192e-10
1.02732e-09
-5.46586e-11
-5.80709e-10
-3.64545e-10
-5.59401e-10
-1.04464e-09
3.37374e-10
-2.18327e-09
1.87693e-09
-3.84639e-09
3.87997e-09
-6.08035e-09
6.19989e-09
-8.9144e-09
8.7178e-09
-1.23632e-08
1.13388e-08
-1.64288e-08
1.39882e-08
-2.11032e-08
1.66079e-08
-2.63698e-08
1.91534e-08
-3.22055e-08
2.1592e-08
-3.8582e-08
2.39001e-08
-4.54677e-08
2.60616e-08
-5.28283e-08
2.80669e-08
-6.06282e-08
2.9911e-08
-6.88311e-08
3.15932e-08
-7.7401e-08
3.31156e-08
-8.63027e-08
3.4483e-08
-9.55019e-08
3.57018e-08
-1.04966e-07
3.67801e-08
-1.14664e-07
3.77266e-08
-1.24568e-07
3.85507e-08
-1.3465e-07
3.92624e-08
-1.44886e-07
3.98716e-08
-1.55253e-07
4.0388e-08
-1.65732e-07
4.08216e-08
-1.76303e-07
4.11815e-08
-1.86952e-07
4.14768e-08
-1.97663e-07
4.17161e-08
-2.08425e-07
4.19074e-08
-2.19227e-07
4.20582e-08
-2.30061e-07
4.21755e-08
-2.40919e-07
4.22657e-08
-2.51794e-07
4.23348e-08
-2.62684e-07
4.23881e-08
-2.73584e-07
4.24307e-08
-2.84493e-07
4.24669e-08
-2.95408e-07
4.25006e-08
-3.06331e-07
4.25356e-08
-3.1726e-07
4.2575e-08
-3.28198e-07
4.26215e-08
-3.39146e-07
4.26777e-08
-3.50107e-07
4.27457e-08
-3.61083e-07
4.28274e-08
-3.72078e-07
4.29243e-08
-3.83095e-07
4.30378e-08
-3.94139e-07
4.31691e-08
-4.05213e-07
4.33189e-08
-4.16322e-07
4.34881e-08
-4.27469e-07
4.36769e-08
-4.38661e-07
4.38858e-08
-4.49901e-07
4.41148e-08
-4.61193e-07
4.43638e-08
-4.72542e-07
4.46325e-08
-4.83953e-07
4.49206e-08
-4.95429e-07
4.52273e-08
-5.06974e-07
4.55519e-08
-5.18593e-07
4.58933e-08
-5.30288e-07
4.62504e-08
-5.42062e-07
4.66217e-08
-5.53918e-07
4.70056e-08
-5.65858e-07
4.74004e-08
-5.77883e-07
4.78039e-08
-5.89995e-07
4.82139e-08
-6.02193e-07
4.86278e-08
-6.14477e-07
4.9043e-08
-6.26846e-07
4.94565e-08
-6.39298e-07
4.98648e-08
-6.5183e-07
5.02646e-08
-6.64437e-07
5.06518e-08
-6.77116e-07
5.10225e-08
-6.89859e-07
5.13723e-08
-7.0266e-07
5.16963e-08
-7.1551e-07
5.19896e-08
-7.28399e-07
5.22468e-08
-7.41316e-07
5.24623e-08
-7.54248e-07
5.26302e-08
-7.67181e-07
5.27441e-08
-7.80099e-07
5.27976e-08
-7.92984e-07
5.27837e-08
-8.05818e-07
5.26953e-08
-8.18579e-07
5.2525e-08
-8.31245e-07
5.2265e-08
-8.4379e-07
5.19075e-08
-8.56189e-07
5.14442e-08
-8.68412e-07
5.08669e-08
-8.8043e-07
5.0167e-08
-8.92208e-07
4.93359e-08
-9.03714e-07
4.83649e-08
-9.1491e-07
4.72453e-08
-9.25759e-07
4.59685e-08
-9.36219e-07
4.45257e-08
-9.46248e-07
4.29086e-08
-9.55804e-07
4.11091e-08
-9.64839e-07
3.91191e-08
-9.73307e-07
3.69313e-08
-9.81159e-07
3.45386e-08
-9.88346e-07
3.19348e-08
-9.94816e-07
2.91142e-08
-1.00052e-06
2.6072e-08
-1.0054e-06
2.28044e-08
-1.0094e-06
1.93085e-08
-1.01248e-06
1.55828e-08
-1.01458e-06
1.16272e-08
-1.01565e-06
7.44276e-09
-1.01563e-06
3.03251e-09
-1.01449e-06
-1.59897e-09
-1.01216e-06
-6.44519e-09
-1.0086e-06
-1.14976e-08
-1.00378e-06
-1.67457e-08
-9.97644e-07
-2.21766e-08
-9.90165e-07
-2.77751e-08
-9.81308e-07
-3.35237e-08
-9.71047e-07
-3.94023e-08
-9.59359e-07
-4.53884e-08
-9.4623e-07
-5.14571e-08
-9.3165e-07
-5.75807e-08
-9.15615e-07
-6.37293e-08
-8.98132e-07
-6.98704e-08
-8.79213e-07
-7.59695e-08
-8.58879e-07
-8.19898e-08
-8.37161e-07
-8.78924e-08
-8.14097e-07
-9.36372e-08
-7.89737e-07
-9.9182e-08
-7.64138e-07
-1.04484e-07
-7.37369e-07
-1.09499e-07
-7.09508e-07
-1.14184e-07
-6.80643e-07
-1.18494e-07
-6.50871e-07
-1.22385e-07
-6.203e-07
-1.25815e-07
-5.89047e-07
-1.28743e-07
-5.57236e-07
-1.31129e-07
-5.25001e-07
-1.32937e-07
-4.92483e-07
-1.34133e-07
-4.5983e-07
-1.34688e-07
-4.27195e-07
-1.34575e-07
-3.94737e-07
-1.33774e-07
-3.62617e-07
-1.32268e-07
-3.30999e-07
-1.30046e-07
-3.00048e-07
-1.27105e-07
-2.69929e-07
-1.23447e-07
-2.40804e-07
-1.19079e-07
-2.12831e-07
-1.14018e-07
-1.86161e-07
-1.08288e-07
-1.60939e-07
-1.01921e-07
-1.37299e-07
-9.49584e-08
-1.15364e-07
-8.74512e-08
-9.52394e-08
-7.94621e-08
-7.70151e-08
-7.10668e-08
-6.07598e-08
-6.23567e-08
-4.65184e-08
-5.3442e-08
-3.43087e-08
-4.44565e-08
-2.41177e-08
-3.55629e-08
-1.58983e-08
-2.69612e-08
-9.56575e-09
-1.88984e-08
-4.99567e-09
-1.16812e-08
-2.02216e-09
-5.68911e-09
-4.38371e-10
-1.3916e-09
5.88948e-10
-1.40567e-10
-4.40139e-10
-6.75385e-10
-2.45861e-11
-1.69685e-09
1.35884e-09
-3.27729e-09
3.45737e-09
-5.4707e-09
6.07338e-09
-8.31427e-09
9.04346e-09
-1.18302e-08
1.22337e-08
-1.60274e-08
1.55361e-08
-2.09037e-08
1.88645e-08
-2.64469e-08
2.21511e-08
-3.26372e-08
2.53437e-08
-3.94483e-08
2.84032e-08
-4.68493e-08
3.13011e-08
-5.48055e-08
3.40178e-08
-6.32797e-08
3.65411e-08
-7.22336e-08
3.88649e-08
-8.16281e-08
4.09876e-08
-9.14242e-08
4.29117e-08
-1.01584e-07
4.46426e-08
-1.1207e-07
4.61881e-08
-1.22848e-07
4.75575e-08
-1.33883e-07
4.87617e-08
-1.45144e-07
4.98121e-08
-1.56603e-07
5.07208e-08
-1.68231e-07
5.15e-08
-1.80005e-07
5.21619e-08
-1.91902e-07
5.27185e-08
-2.03902e-07
5.31815e-08
-2.15987e-07
5.3562e-08
-2.28142e-07
5.38708e-08
-2.40352e-07
5.41178e-08
-2.52607e-07
5.43127e-08
-2.64895e-07
5.44641e-08
-2.7721e-07
5.45801e-08
-2.89543e-07
5.46683e-08
-3.01891e-07
5.47356e-08
-3.14248e-07
5.47881e-08
-3.26613e-07
5.48315e-08
-3.38983e-07
5.4871e-08
-3.51359e-07
5.4911e-08
-3.63739e-07
5.49556e-08
-3.76126e-07
5.50085e-08
-3.88521e-07
5.50728e-08
-4.00927e-07
5.51513e-08
-4.13346e-07
5.52464e-08
-4.25782e-07
5.53602e-08
-4.38239e-07
5.54944e-08
-4.5072e-07
5.56503e-08
-4.6323e-07
5.58293e-08
-4.75774e-07
5.6032e-08
-4.88356e-07
5.62592e-08
-5.00982e-07
5.65112e-08