/*--------------------------------*- C++ -*----------------------------------*\
  =========                 |
  \\      /  F ield         | OpenFOAM: The Open Source CFD Toolbox
   \\    /   O peration     | Website:  https://openfoam.org
    \\  /    A nd           | Version:  7
     \\/     M anipulation  |
\*---------------------------------------------------------------------------*/
FoamFile
{
    version     2.0;
    format      ascii;
    class       volVectorField;
    location    "0.225";
    object      U;
}
// * * * * * * * * * * * * * * * * * * * * * * * * * * * * * * * * * * * * * //

dimensions      [0 1 -1 0 0 0 0];

internalField   nonuniform List<vector> 
12800
(
(3.44114e-06 -3.50851e-06 0)
(1.89604e-05 -1.00618e-05 0)
(4.52381e-05 -1.21902e-05 0)
(7.1556e-05 -1.11165e-05 0)
(9.11254e-05 -8.274e-06 0)
(0.000100618 -4.54661e-06 0)
(9.8256e-05 -4.40862e-07 0)
(8.32315e-05 3.74652e-06 0)
(5.53844e-05 7.84045e-06 0)
(1.49742e-05 1.1742e-05 0)
(-3.74761e-05 1.53957e-05 0)
(-0.000101281 1.8772e-05 0)
(-0.000175653 2.18591e-05 0)
(-0.000259754 2.46547e-05 0)
(-0.000352729 2.71643e-05 0)
(-0.000453725 2.93997e-05 0)
(-0.000561915 3.13754e-05 0)
(-0.000676503 3.31073e-05 0)
(-0.000796738 3.46121e-05 0)
(-0.000921915 3.59076e-05 0)
(-0.00105138 3.70124e-05 0)
(-0.00118454 3.79459e-05 0)
(-0.00132085 3.8726e-05 0)
(-0.00145982 3.93699e-05 0)
(-0.00160101 3.98939e-05 0)
(-0.00174403 4.0313e-05 0)
(-0.00188854 4.06417e-05 0)
(-0.00203425 4.08937e-05 0)
(-0.0021809 4.10817e-05 0)
(-0.00232827 4.12168e-05 0)
(-0.0024762 4.13094e-05 0)
(-0.00262453 4.13685e-05 0)
(-0.00277314 4.14025e-05 0)
(-0.00292196 4.1419e-05 0)
(-0.00307092 4.14247e-05 0)
(-0.00321998 4.14259e-05 0)
(-0.00336911 4.14277e-05 0)
(-0.00351831 4.14346e-05 0)
(-0.00366759 4.14504e-05 0)
(-0.00381698 4.14788e-05 0)
(-0.00396652 4.15228e-05 0)
(-0.00411625 4.15849e-05 0)
(-0.00426623 4.16674e-05 0)
(-0.00441652 4.17719e-05 0)
(-0.0045672 4.19001e-05 0)
(-0.00471833 4.20533e-05 0)
(-0.00487 4.22327e-05 0)
(-0.0050223 4.24393e-05 0)
(-0.00517531 4.26737e-05 0)
(-0.00532913 4.29365e-05 0)
(-0.00548383 4.32278e-05 0)
(-0.00563953 4.35478e-05 0)
(-0.00579631 4.38966e-05 0)
(-0.00595426 4.42741e-05 0)
(-0.00611348 4.46804e-05 0)
(-0.00627406 4.51153e-05 0)
(-0.00643609 4.5578e-05 0)
(-0.00659966 4.60677e-05 0)
(-0.00676485 4.65835e-05 0)
(-0.00693175 4.71248e-05 0)
(-0.00710044 4.76905e-05 0)
(-0.00727098 4.82793e-05 0)
(-0.00744345 4.88894e-05 0)
(-0.0076179 4.95188e-05 0)
(-0.0077944 5.01657e-05 0)
(-0.00797298 5.08277e-05 0)
(-0.00815369 5.15026e-05 0)
(-0.00833655 5.21876e-05 0)
(-0.00852158 5.28796e-05 0)
(-0.00870879 5.35753e-05 0)
(-0.00889816 5.42708e-05 0)
(-0.00908968 5.49623e-05 0)
(-0.00928331 5.56452e-05 0)
(-0.009479 5.6315e-05 0)
(-0.00967667 5.69663e-05 0)
(-0.00987624 5.75933e-05 0)
(-0.0100776 5.81901e-05 0)
(-0.0102806 5.87501e-05 0)
(-0.0104851 5.92664e-05 0)
(-0.0106909 5.97317e-05 0)
(-0.0108978 6.01382e-05 0)
(-0.0111056 6.04775e-05 0)
(-0.011314 6.07408e-05 0)
(-0.0115227 6.09187e-05 0)
(-0.0117314 6.10017e-05 0)
(-0.0119397 6.09793e-05 0)
(-0.0121472 6.08411e-05 0)
(-0.0123535 6.05759e-05 0)
(-0.0125582 6.01724e-05 0)
(-0.0127606 5.96185e-05 0)
(-0.0129603 5.89023e-05 0)
(-0.0131567 5.80113e-05 0)
(-0.0133491 5.69328e-05 0)
(-0.0135369 5.56542e-05 0)
(-0.0137193 5.41624e-05 0)
(-0.0138957 5.24448e-05 0)
(-0.0140651 5.04888e-05 0)
(-0.0142269 4.82821e-05 0)
(-0.0143801 4.58127e-05 0)
(-0.0145237 4.30693e-05 0)
(-0.014657 4.00413e-05 0)
(-0.0147789 3.67189e-05 0)
(-0.0148884 3.30937e-05 0)
(-0.0149845 2.91583e-05 0)
(-0.0150662 2.4907e-05 0)
(-0.0151325 2.03358e-05 0)
(-0.0151822 1.54426e-05 0)
(-0.0152144 1.02278e-05 0)
(-0.015228 4.69386e-06 0)
(-0.0152221 -1.15353e-06 0)
(-0.0151955 -7.3061e-06 0)
(-0.0151474 -1.37522e-05 0)
(-0.0150769 -2.04766e-05 0)
(-0.0149832 -2.74608e-05 0)
(-0.0148654 -3.46823e-05 0)
(-0.014723 -4.21147e-05 0)
(-0.0145553 -4.97273e-05 0)
(-0.0143618 -5.74855e-05 0)
(-0.0141422 -6.53504e-05 0)
(-0.0138964 -7.32789e-05 0)
(-0.0136241 -8.1224e-05 0)
(-0.0133256 -8.91348e-05 0)
(-0.0130011 -9.69567e-05 0)
(-0.0126511 -0.000104632 0)
(-0.0122762 -0.0001121 0)
(-0.0118773 -0.000119297 0)
(-0.0114553 -0.000126159 0)
(-0.0110117 -0.000132618 0)
(-0.0105477 -0.000138609 0)
(-0.0100653 -0.000144064 0)
(-0.00956613 -0.000148917 0)
(-0.00905243 -0.000153106 0)
(-0.00852648 -0.000156568 0)
(-0.00799075 -0.000159247 0)
(-0.00744791 -0.000161089 0)
(-0.00690079 -0.000162046 0)
(-0.00635233 -0.000162078 0)
(-0.00580563 -0.000161148 0)
(-0.00526384 -0.000159229 0)
(-0.00473022 -0.000156301 0)
(-0.00420807 -0.000152351 0)
(-0.0037007 -0.000147375 0)
(-0.00321142 -0.000141377 0)
(-0.0027435 -0.000134367 0)
(-0.00230016 -0.000126365 0)
(-0.00188451 -0.000117396 0)
(-0.00149957 -0.000107493 0)
(-0.0011482 -9.66932e-05 0)
(-0.00083306 -8.50439e-05 0)
(-0.000556615 -7.25993e-05 0)
(-0.000321046 -5.94269e-05 0)
(-0.000128191 -4.56163e-05 0)
(2.05738e-05 -3.12996e-05 0)
(0.000124525 -1.66847e-05 0)
(0.00018387 -2.11321e-06 0)
(0.000200346 1.1709e-05 0)
(0.000178055 2.3565e-05 0)
(0.000125234 3.10545e-05 0)
(5.99594e-05 2.96889e-05 0)
(1.36789e-05 1.36989e-05 0)
(1.00162e-05 -1.89547e-05 0)
(4.26139e-05 -4.26103e-05 0)
(8.93078e-05 -4.8207e-05 0)
(0.000130995 -4.05116e-05 0)
(0.000154968 -2.4416e-05 0)
(0.000153808 -3.38765e-06 0)
(0.000122922 2.0238e-05 0)
(5.97919e-05 4.49034e-05 0)
(-3.6526e-05 6.95765e-05 0)
(-0.000165859 9.35812e-05 0)
(-0.000327268 0.000116477 0)
(-0.000519285 0.00013799 0)
(-0.000740102 0.000157958 0)
(-0.000987699 0.000176299 0)
(-0.00125995 0.00019299 0)
(-0.00155468 0.000208048 0)
(-0.00186974 0.000221525 0)
(-0.00220304 0.000233491 0)
(-0.00255256 0.000244031 0)
(-0.00291643 0.000253239 0)
(-0.00329284 0.000261216 0)
(-0.00368016 0.000268066 0)
(-0.00407688 0.000273895 0)
(-0.00448163 0.000278804 0)
(-0.00489315 0.000282893 0)
(-0.00531035 0.000286258 0)
(-0.00573224 0.00028899 0)
(-0.00615796 0.000291174 0)
(-0.00658678 0.00029289 0)
(-0.00701805 0.000294212 0)
(-0.00745123 0.000295209 0)
(-0.00788589 0.000295943 0)
(-0.00832165 0.000296472 0)
(-0.00875824 0.000296845 0)
(-0.00919545 0.00029711 0)
(-0.00963312 0.000297309 0)
(-0.0100712 0.000297478 0)
(-0.0105095 0.000297651 0)
(-0.0109483 0.000297856 0)
(-0.0113873 0.000298118 0)
(-0.0118269 0.000298461 0)
(-0.012267 0.000298903 0)
(-0.0127079 0.000299461 0)
(-0.0131496 0.00030015 0)
(-0.0135923 0.000300982 0)
(-0.0140363 0.000301967 0)
(-0.0144818 0.000303114 0)
(-0.014929 0.000304429 0)
(-0.0153781 0.000305919 0)
(-0.0158293 0.000307588 0)
(-0.016283 0.000309438 0)
(-0.0167393 0.000311472 0)
(-0.0171986 0.000313689 0)
(-0.017661 0.00031609 0)
(-0.0181268 0.000318673 0)
(-0.0185963 0.000321435 0)
(-0.0190698 0.000324372 0)
(-0.0195474 0.00032748 0)
(-0.0200293 0.000330752 0)
(-0.0205159 0.00033418 0)
(-0.0210073 0.000337756 0)
(-0.0215037 0.00034147 0)
(-0.0220052 0.000345309 0)
(-0.0225121 0.000349259 0)
(-0.0230244 0.000353307 0)
(-0.0235423 0.000357435 0)
(-0.0240658 0.000361624 0)
(-0.0245951 0.000365855 0)
(-0.0251301 0.000370105 0)
(-0.0256707 0.000374349 0)
(-0.0262171 0.00037856 0)
(-0.026769 0.000382709 0)
(-0.0273263 0.000386765 0)
(-0.0278889 0.000390692 0)
(-0.0284565 0.000394455 0)
(-0.0290288 0.000398013 0)
(-0.0296055 0.000401325 0)
(-0.0301861 0.000404344 0)
(-0.0307702 0.000407023 0)
(-0.0313571 0.000409311 0)
(-0.0319464 0.000411155 0)
(-0.0325372 0.000412497 0)
(-0.0331287 0.000413279 0)
(-0.0337202 0.000413436 0)
(-0.0343106 0.000412905 0)
(-0.0348988 0.000411616 0)
(-0.0354837 0.0004095 0)
(-0.036064 0.000406484 0)
(-0.0366384 0.000402493 0)
(-0.0372054 0.000397449 0)
(-0.0377633 0.000391276 0)
(-0.0383106 0.000383893 0)
(-0.0388454 0.00037522 0)
(-0.0393657 0.000365178 0)
(-0.0398697 0.000353686 0)
(-0.0403551 0.000340666 0)
(-0.0408197 0.000326042 0)
(-0.0412611 0.000309739 0)
(-0.0416771 0.000291686 0)
(-0.0420649 0.000271819 0)
(-0.0424221 0.000250077 0)
(-0.042746 0.000226405 0)
(-0.0430338 0.00020076 0)
(-0.0432827 0.000173104 0)
(-0.04349 0.000143413 0)
(-0.0436528 0.000111671 0)
(-0.0437682 7.78801e-05 0)
(-0.0438335 4.20535e-05 0)
(-0.0438458 4.22257e-06 0)
(-0.0438025 -3.55638e-05 0)
(-0.0437009 -7.72379e-05 0)
(-0.0435386 -0.000120711 0)
(-0.0433132 -0.000165874 0)
(-0.0430225 -0.000212593 0)
(-0.0426645 -0.000260713 0)
(-0.0422376 -0.000310051 0)
(-0.0417402 -0.000360402 0)
(-0.0411714 -0.000411534 0)
(-0.0405302 -0.000463192 0)
(-0.0398162 -0.000515094 0)
(-0.0390295 -0.000566934 0)
(-0.0381705 -0.000618385 0)
(-0.0372401 -0.000669099 0)
(-0.0362397 -0.000718705 0)
(-0.0351712 -0.000766822 0)
(-0.0340371 -0.00081305 0)
(-0.0328404 -0.000856981 0)
(-0.0315846 -0.000898201 0)
(-0.030274 -0.000936294 0)
(-0.0289131 -0.000970848 0)
(-0.0275073 -0.00100145 0)
(-0.0260624 -0.00102772 0)
(-0.0245847 -0.00104928 0)
(-0.023081 -0.00106577 0)
(-0.0215586 -0.00107686 0)
(-0.0200252 -0.00108228 0)
(-0.0184888 -0.00108177 0)
(-0.0169578 -0.00107511 0)
(-0.0154408 -0.00106215 0)
(-0.0139466 -0.00104277 0)
(-0.0124842 -0.00101689 0)
(-0.0110624 -0.000984518 0)
(-0.00969025 -0.000945689 0)
(-0.00837648 -0.000900501 0)
(-0.00712973 -0.000849108 0)
(-0.0059583 -0.000791722 0)
(-0.00487016 -0.000728615 0)
(-0.00387278 -0.000660124 0)
(-0.00297303 -0.000586664 0)
(-0.00217708 -0.000508749 0)
(-0.00149016 -0.000427023 0)
(-0.000916345 -0.000342329 0)
(-0.000458202 -0.000255816 0)
(-0.000116227 -0.000169122 0)
(0.000111786 -8.47079e-05 0)
(0.000232094 -6.38226e-06 0)
(0.000256455 5.97883e-05 0)
(0.000204401 0.000104038 0)
(0.000110667 0.000110904 0)
(2.95124e-05 5.98415e-05 0)
(1.23169e-05 -4.53908e-05 0)
(4.86329e-05 -8.93818e-05 0)
(9.47907e-05 -9.42314e-05 0)
(0.000127578 -7.04063e-05 0)
(0.000131585 -2.71234e-05 0)
(9.7291e-05 2.84949e-05 0)
(1.83947e-05 9.11959e-05 0)
(-0.000108815 0.000157207 0)
(-0.000285963 0.000223863 0)
(-0.000513102 0.000289302 0)
(-0.000789135 0.000352247 0)
(-0.00111214 0.000411847 0)
(-0.00147964 0.00046756 0)
(-0.00188877 0.000519078 0)
(-0.00233646 0.000566257 0)
(-0.0028195 0.000609087 0)
(-0.00333472 0.000647647 0)
(-0.00387895 0.000682089 0)
(-0.00444916 0.000712609 0)
(-0.00504243 0.000739443 0)
(-0.00565603 0.000762845 0)
(-0.0062874 0.000783084 0)
(-0.00693418 0.000800433 0)
(-0.0075942 0.000815167 0)
(-0.00826552 0.000827554 0)
(-0.00894635 0.000837855 0)
(-0.00963514 0.000846319 0)
(-0.0103305 0.000853182 0)
(-0.0110312 0.000858668 0)
(-0.0117362 0.000862983 0)
(-0.0124446 0.000866321 0)
(-0.0131558 0.000868859 0)
(-0.0138689 0.000870758 0)
(-0.0145837 0.000872165 0)
(-0.0152997 0.000873216 0)
(-0.0160166 0.00087403 0)
(-0.0167342 0.000874714 0)
(-0.0174525 0.000875366 0)
(-0.0181714 0.00087607 0)
(-0.018891 0.000876902 0)
(-0.0196113 0.000877928 0)
(-0.0203326 0.000879205 0)
(-0.0210549 0.000880785 0)
(-0.0217786 0.000882711 0)
(-0.0225039 0.000885019 0)
(-0.0232311 0.000887742 0)
(-0.0239605 0.000890905 0)
(-0.0246925 0.000894529 0)
(-0.0254273 0.000898633 0)
(-0.0261655 0.000903229 0)
(-0.0269073 0.000908326 0)
(-0.0276532 0.000913929 0)
(-0.0284035 0.000920042 0)
(-0.0291587 0.000926662 0)
(-0.029919 0.000933784 0)
(-0.030685 0.0009414 0)
(-0.0314569 0.000949499 0)
(-0.0322351 0.000958064 0)
(-0.03302 0.000967077 0)
(-0.0338119 0.000976516 0)
(-0.0346111 0.000986352 0)
(-0.0354179 0.000996554 0)
(-0.0362325 0.00100709 0)
(-0.0370551 0.00101791 0)
(-0.0378861 0.00102898 0)
(-0.0387254 0.00104025 0)
(-0.0395732 0.00105166 0)
(-0.0404295 0.00106314 0)
(-0.0412944 0.00107464 0)
(-0.0421678 0.00108608 0)
(-0.0430496 0.00109738 0)
(-0.0439396 0.00110845 0)
(-0.0448374 0.0011192 0)
(-0.0457429 0.00112954 0)
(-0.0466555 0.00113934 0)
(-0.0475748 0.00114851 0)
(-0.0485001 0.00115691 0)
(-0.0494308 0.00116441 0)
(-0.0503659 0.00117088 0)
(-0.0513046 0.00117617 0)
(-0.0522459 0.00118012 0)
(-0.0531884 0.00118257 0)
(-0.054131 0.00118336 0)
(-0.0550721 0.0011823 0)
(-0.0560102 0.0011792 0)
(-0.0569435 0.00117388 0)
(-0.0578701 0.00116614 0)
(-0.058788 0.00115577 0)
(-0.0596949 0.00114256 0)
(-0.0605886 0.0011263 0)
(-0.0614663 0.00110677 0)
(-0.0623254 0.00108374 0)
(-0.0631631 0.00105701 0)
(-0.0639762 0.00102635 0)
(-0.0647616 0.000991538 0)
(-0.0655158 0.000952366 0)
(-0.0662354 0.000908626 0)
(-0.0669167 0.00086012 0)
(-0.0675558 0.000806662 0)
(-0.0681487 0.000748078 0)
(-0.0686915 0.000684213 0)
(-0.0691799 0.000614932 0)
(-0.0696097 0.000540122 0)
(-0.0699766 0.000459698 0)
(-0.0702761 0.000373606 0)
(-0.070504 0.000281825 0)
(-0.0706559 0.000184374 0)
(-0.0707274 8.13106e-05 0)
(-0.0707144 -2.72577e-05 0)
(-0.0706126 -0.000141176 0)
(-0.0704183 -0.000260236 0)
(-0.0701275 -0.000384172 0)
(-0.0697369 -0.00051266 0)
(-0.069243 -0.000645313 0)
(-0.0686432 -0.000781677 0)
(-0.0679348 -0.000921234 0)
(-0.0671158 -0.0010634 0)
(-0.0661847 -0.00120751 0)
(-0.0651404 -0.00135286 0)
(-0.0639823 -0.00149865 0)
(-0.0627109 -0.00164402 0)
(-0.0613268 -0.00178808 0)
(-0.0598317 -0.00192984 0)
(-0.0582279 -0.0020683 0)
(-0.0565185 -0.00220239 0)
(-0.0547077 -0.00233102 0)
(-0.0528 -0.00245306 0)
(-0.0508012 -0.00256739 0)
(-0.0487179 -0.00267286 0)
(-0.0465573 -0.00276836 0)
(-0.0443278 -0.00285276 0)
(-0.0420383 -0.00292502 0)
(-0.0396986 -0.00298409 0)
(-0.0373194 -0.00302904 0)
(-0.0349118 -0.00305899 0)
(-0.0324878 -0.00307315 0)
(-0.0300597 -0.00307083 0)
(-0.0276405 -0.00305149 0)
(-0.0252433 -0.00301467 0)
(-0.0228818 -0.00296008 0)
(-0.0205696 -0.00288756 0)
(-0.0183204 -0.0027971 0)
(-0.0161478 -0.00268885 0)
(-0.0140654 -0.00256312 0)
(-0.0120862 -0.00242038 0)
(-0.0102228 -0.0022613 0)
(-0.00848729 -0.00208671 0)
(-0.00689081 -0.00189767 0)
(-0.00544353 -0.00169549 0)
(-0.0041544 -0.0014818 0)
(-0.00303081 -0.00125864 0)
(-0.0020782 -0.00102865 0)
(-0.00129958 -0.000795302 0)
(-0.000694779 -0.000563365 0)
(-0.000259505 -0.00033956 0)
(1.60315e-05 -0.00013344 0)
(0.000148606 4.09319e-05 0)
(0.000164038 0.000163235 0)
(0.00010394 0.000204547 0)
(3.07649e-05 0.000124729 0)
(1.13825e-05 -7.20617e-05 0)
(4.13211e-05 -0.000131477 0)
(7.14855e-05 -0.000127161 0)
(7.76385e-05 -7.66679e-05 0)
(4.34616e-05 6.04805e-06 0)
(-4.15141e-05 0.000109934 0)
(-0.000184389 0.000226503 0)
(-0.000389485 0.000349407 0)
(-0.000658808 0.000473975 0)
(-0.000992544 0.000596824 0)
(-0.00138949 0.000715549 0)
(-0.00184743 0.000828485 0)
(-0.00236337 0.000934533 0)
(-0.00293385 0.00103302 0)
(-0.00355506 0.00112359 0)
(-0.00422303 0.00120616 0)
(-0.00493371 0.00128079 0)
(-0.00568309 0.00134773 0)
(-0.00646729 0.00140728 0)
(-0.00728254 0.00145987 0)
(-0.0081253 0.00150593 0)
(-0.00899221 0.00154595 0)
(-0.00988018 0.00158043 0)
(-0.0107864 0.00160986 0)
(-0.0117081 0.00163475 0)
(-0.0126431 0.00165558 0)
(-0.0135893 0.00167283 0)
(-0.0145447 0.00168693 0)
(-0.0155077 0.00169831 0)
(-0.0164769 0.00170736 0)
(-0.0174511 0.00171446 0)
(-0.0184292 0.00171994 0)
(-0.0194104 0.00172411 0)
(-0.0203939 0.00172727 0)
(-0.0213793 0.00172967 0)
(-0.0223662 0.00173155 0)
(-0.0233541 0.00173312 0)
(-0.024343 0.00173456 0)
(-0.0253328 0.00173605 0)
(-0.0263236 0.00173773 0)
(-0.0273153 0.00173975 0)
(-0.0283082 0.0017422 0)
(-0.0293025 0.0017452 0)
(-0.0302985 0.00174882 0)
(-0.0312965 0.00175316 0)
(-0.0322969 0.00175826 0)
(-0.0333001 0.00176418 0)
(-0.0343065 0.00177096 0)
(-0.0353166 0.00177865 0)
(-0.0363309 0.00178727 0)
(-0.0373497 0.00179682 0)
(-0.0383738 0.00180734 0)
(-0.0394034 0.00181881 0)
(-0.0404392 0.00183125 0)
(-0.0414816 0.00184463 0)
(-0.0425312 0.00185894 0)
(-0.0435884 0.00187416 0)
(-0.0446536 0.00189025 0)
(-0.0457273 0.00190718 0)
(-0.0468099 0.00192489 0)
(-0.0479018 0.00194335 0)
(-0.0490034 0.00196247 0)
(-0.050115 0.0019822 0)
(-0.0512367 0.00200245 0)
(-0.0523689 0.00202313 0)
(-0.0535117 0.00204413 0)
(-0.0546652 0.00206536 0)
(-0.0558294 0.00208668 0)
(-0.0570043 0.00210796 0)
(-0.0581898 0.00212906 0)
(-0.0593857 0.00214983 0)
(-0.0605916 0.00217008 0)
(-0.0618072 0.00218964 0)
(-0.0630319 0.00220831 0)
(-0.0642651 0.00222587 0)
(-0.0655062 0.0022421 0)
(-0.0667541 0.00225677 0)
(-0.0680079 0.0022696 0)
(-0.0692665 0.00228035 0)
(-0.0705284 0.0022887 0)
(-0.0717923 0.00229438 0)
(-0.0730565 0.00229706 0)
(-0.0743191 0.00229641 0)
(-0.0755782 0.00229208 0)
(-0.0768315 0.00228373 0)
(-0.0780767 0.00227098 0)
(-0.0793112 0.00225345 0)
(-0.0805322 0.00223075 0)
(-0.0817366 0.00220248 0)
(-0.0829212 0.00216822 0)
(-0.0840826 0.00212758 0)
(-0.0852171 0.00208012 0)
(-0.0863209 0.00202545 0)
(-0.0873898 0.00196314 0)
(-0.0884196 0.00189279 0)
(-0.0894058 0.001814 0)
(-0.0903436 0.00172639 0)
(-0.0912281 0.0016296 0)
(-0.0920544 0.00152328 0)
(-0.0928171 0.00140713 0)
(-0.0935109 0.00128086 0)
(-0.0941304 0.00114424 0)
(-0.09467 0.000997078 0)
(-0.095124 0.000839231 0)
(-0.0954867 0.000670621 0)
(-0.0957526 0.000491235 0)
(-0.0959158 0.000301133 0)
(-0.095971 0.000100456 0)
(-0.0959126 -0.000110568 0)
(-0.0957354 -0.000331615 0)
(-0.0954344 -0.000562264 0)
(-0.0950047 -0.000801983 0)
(-0.0944419 -0.00105013 0)
(-0.0937421 -0.00130595 0)
(-0.0929015 -0.00156855 0)
(-0.0919172 -0.00183693 0)
(-0.0907866 -0.00210997 0)
(-0.0895079 -0.0023864 0)
(-0.08808 -0.00266484 0)
(-0.0865025 -0.00294379 0)
(-0.0847759 -0.00322163 0)
(-0.0829014 -0.00349663 0)
(-0.0808814 -0.00376696 0)
(-0.0787191 -0.0040307 0)
(-0.0764189 -0.00428584 0)
(-0.073986 -0.00453033 0)
(-0.0714269 -0.00476206 0)
(-0.068749 -0.00497891 0)
(-0.0659611 -0.00517875 0)
(-0.0630728 -0.00535946 0)
(-0.0600949 -0.00551898 0)
(-0.0570392 -0.00565532 0)
(-0.0539186 -0.00576657 0)
(-0.0507468 -0.00585094 0)
(-0.0475385 -0.00590682 0)
(-0.0443091 -0.00593275 0)
(-0.0410748 -0.00592745 0)
(-0.0378523 -0.00588989 0)
(-0.0346587 -0.00581926 0)
(-0.0315116 -0.00571501 0)
(-0.0284287 -0.00557689 0)
(-0.0254277 -0.0054049 0)
(-0.0225263 -0.00519937 0)
(-0.0197418 -0.00496094 0)
(-0.017091 -0.00469058 0)
(-0.0145902 -0.00438961 0)
(-0.0122546 -0.00405976 0)
(-0.0100985 -0.00370317 0)
(-0.00813453 -0.00332251 0)
(-0.00637388 -0.00292109 0)
(-0.00482552 -0.00250301 0)
(-0.00349585 -0.00207351 0)
(-0.00238811 -0.00163933 0)
(-0.00150156 -0.00120942 0)
(-0.000830554 -0.000795796 0)
(-0.000363237 -0.000414938 0)
(-8.02374e-05 -8.96541e-05 0)
(4.70838e-05 0.000148782 0)
(6.14747e-05 0.000257918 0)
(2.3449e-05 0.000177458 0)
(8.65146e-06 -9.22431e-05 0)
(2.53607e-05 -0.000155973 0)
(2.79372e-05 -0.000131182 0)
(-6.1519e-06 -4.23605e-05 0)
(-9.27429e-05 9.17695e-05 0)
(-0.000242431 0.000256257 0)
(-0.000462453 0.000439376 0)
(-0.000757236 0.000632122 0)
(-0.00112884 0.00082769 0)
(-0.0015774 0.00102102 0)
(-0.00210157 0.00120841 0)
(-0.00269884 0.00138723 0)
(-0.00336583 0.0015557 0)
(-0.00409857 0.00171267 0)
(-0.00489268 0.0018575 0)
(-0.00574355 0.00198996 0)
(-0.00664646 0.00211008 0)
(-0.0075967 0.00221816 0)
(-0.00858967 0.00231465 0)
(-0.00962089 0.00240013 0)
(-0.0106861 0.00247527 0)
(-0.0117814 0.0025408 0)
(-0.0129028 0.00259746 0)
(-0.0140471 0.00264605 0)
(-0.015211 0.00268731 0)
(-0.0163916 0.00272202 0)
(-0.0175864 0.00275091 0)
(-0.018793 0.00277467 0)
(-0.0200094 0.00279397 0)
(-0.0212338 0.00280946 0)
(-0.0224646 0.0028217 0)
(-0.0237006 0.00283124 0)
(-0.0249406 0.0028386 0)
(-0.0261838 0.00284422 0)
(-0.0274294 0.00284853 0)
(-0.0286769 0.00285191 0)
(-0.0299259 0.0028547 0)
(-0.0311761 0.00285722 0)
(-0.0324275 0.00285973 0)
(-0.0336799 0.00286248 0)
(-0.0349335 0.00286569 0)
(-0.0361884 0.00286955 0)
(-0.0374449 0.00287422 0)
(-0.0387033 0.00287985 0)
(-0.039964 0.00288657 0)
(-0.0412274 0.00289448 0)
(-0.0424939 0.00290367 0)
(-0.0437641 0.00291421 0)
(-0.0450385 0.00292617 0)
(-0.0463177 0.00293958 0)
(-0.0476023 0.00295447 0)
(-0.0488927 0.00297087 0)
(-0.0501897 0.00298878 0)
(-0.0514938 0.0030082 0)
(-0.0528056 0.00302911 0)
(-0.0541256 0.00305148 0)
(-0.0554546 0.00307527 0)
(-0.0567929 0.00310042 0)
(-0.058141 0.00312688 0)
(-0.0594996 0.00315457 0)
(-0.0608689 0.00318339 0)
(-0.0622495 0.00321323 0)
(-0.0636416 0.00324399 0)
(-0.0650456 0.00327552 0)
(-0.0664616 0.00330767 0)
(-0.0678899 0.00334028 0)
(-0.0693305 0.00337317 0)
(-0.0707833 0.00340612 0)
(-0.0722484 0.00343893 0)
(-0.0737254 0.00347134 0)
(-0.0752142 0.00350311 0)
(-0.0767141 0.00353395 0)
(-0.0782248 0.00356356 0)
(-0.0797455 0.00359162 0)
(-0.0812753 0.00361777 0)
(-0.0828134 0.00364166 0)
(-0.0843584 0.00366289 0)
(-0.0859092 0.00368103 0)
(-0.0874642 0.00369567 0)
(-0.0890217 0.00370632 0)
(-0.0905799 0.00371251 0)
(-0.0921366 0.00371373 0)
(-0.0936895 0.00370944 0)
(-0.0952361 0.00369909 0)
(-0.0967736 0.00368212 0)
(-0.098299 0.00365792 0)
(-0.0998091 0.0036259 0)
(-0.1013 0.00358542 0)
(-0.102769 0.00353586 0)
(-0.104211 0.00347656 0)
(-0.105622 0.00340687 0)
(-0.106998 0.00332615 0)
(-0.108334 0.00323374 0)
(-0.109624 0.00312898 0)
(-0.110864 0.00301126 0)
(-0.112048 0.00287996 0)
(-0.11317 0.00273448 0)
(-0.114225 0.00257427 0)
(-0.115206 0.0023988 0)
(-0.116107 0.00220762 0)
(-0.116921 0.00200029 0)
(-0.117641 0.00177648 0)
(-0.118262 0.00153591 0)
(-0.118777 0.0012784 0)
(-0.119177 0.00100384 0)
(-0.119458 0.000712264 0)
(-0.119612 0.000403793 0)
(-0.119632 7.86922e-05 0)
(-0.119512 -0.00026264 0)
(-0.119246 -0.000619654 0)
(-0.118828 -0.000991641 0)
(-0.118252 -0.00137773 0)
(-0.117514 -0.00177686 0)
(-0.116608 -0.0021878 0)
(-0.115531 -0.00260912 0)
(-0.114278 -0.00303922 0)
(-0.112848 -0.00347626 0)
(-0.111238 -0.00391825 0)
(-0.109448 -0.00436299 0)
(-0.107476 -0.00480809 0)
(-0.105324 -0.00525098 0)
(-0.102993 -0.00568892 0)
(-0.100487 -0.00611902 0)
(-0.0978095 -0.00653827 0)
(-0.0949659 -0.00694351 0)
(-0.0919627 -0.0073315 0)
(-0.0888078 -0.00769896 0)
(-0.0855103 -0.00804254 0)
(-0.0820808 -0.00835891 0)
(-0.0785309 -0.00864477 0)
(-0.0748736 -0.00889688 0)
(-0.0711231 -0.00911213 0)
(-0.0672949 -0.00928755 0)
(-0.0634054 -0.00942036 0)
(-0.0594722 -0.00950803 0)
(-0.0555137 -0.00954827 0)
(-0.0515492 -0.00953913 0)
(-0.0475987 -0.00947898 0)
(-0.0436827 -0.0093666 0)
(-0.0398221 -0.00920115 0)
(-0.0360379 -0.00898224 0)
(-0.0323513 -0.00870995 0)
(-0.0287833 -0.00838484 0)
(-0.0253545 -0.00800799 0)
(-0.0220848 -0.00758102 0)
(-0.0189934 -0.00710615 0)
(-0.0160983 -0.00658622 0)
(-0.0134162 -0.00602482 0)
(-0.010962 -0.00542635 0)
(-0.00874847 -0.00479625 0)
(-0.00678597 -0.00414124 0)
(-0.00508172 -0.00346972 0)
(-0.00363927 -0.0027923 0)
(-0.00245778 -0.00212266 0)
(-0.00153107 -0.00147862 0)
(-0.000846638 -0.000883723 0)
(-0.000384478 -0.000369313 0)
(-0.00011565 2.31478e-05 0)
(-4.43059e-07 0.000238999 0)
(1.22296e-05 0.000201056 0)
(4.96322e-06 -0.000102363 0)
(3.97184e-06 -0.000154873 0)
(-2.93989e-05 -9.58173e-05 0)
(-0.000113984 4.43096e-05 0)
(-0.000264025 0.000242343 0)
(-0.000489604 0.000479631 0)
(-0.000797551 0.000741328 0)
(-0.00119197 0.00101583 0)
(-0.00167465 0.0012942 0)
(-0.0022455 0.00156963 0)
(-0.00290289 0.00183706 0)
(-0.00364397 0.00209282 0)
(-0.00446501 0.00233434 0)
(-0.00536158 0.00255995 0)
(-0.00632881 0.00276865 0)
(-0.00736157 0.00296001 0)
(-0.00845455 0.00313402 0)
(-0.00960248 0.003291 0)
(-0.0108001 0.00343154 0)
(-0.0120424 0.00355639 0)
(-0.0133246 0.00366646 0)
(-0.014642 0.00376273 0)
(-0.0159903 0.00384624 0)
(-0.0173656 0.00391808 0)
(-0.0187641 0.00397932 0)
(-0.0201825 0.00403103 0)
(-0.0216179 0.00407424 0)
(-0.0230674 0.00410994 0)
(-0.0245287 0.0041391 0)
(-0.0259996 0.00416261 0)
(-0.0274784 0.00418131 0)
(-0.0289635 0.00419598 0)
(-0.0304534 0.00420736 0)
(-0.0319472 0.00421611 0)
(-0.033444 0.00422283 0)
(-0.034943 0.00422809 0)
(-0.0364438 0.00423239 0)
(-0.037946 0.00423617 0)
(-0.0394494 0.00423985 0)
(-0.0409539 0.00424378 0)
(-0.0424597 0.00424829 0)
(-0.0439668 0.00425366 0)
(-0.0454756 0.00426014 0)
(-0.0469862 0.00426793 0)
(-0.0484993 0.00427723 0)
(-0.0500151 0.0042882 0)
(-0.0515343 0.00430096 0)
(-0.0530574 0.00431563 0)
(-0.0545849 0.00433229 0)
(-0.0561176 0.00435101 0)
(-0.0576561 0.00437184 0)
(-0.059201 0.00439481 0)
(-0.0607529 0.00441992 0)
(-0.0623126 0.00444717 0)
(-0.0638808 0.00447653 0)
(-0.065458 0.00450796 0)
(-0.0670449 0.00454139 0)
(-0.068642 0.00457675 0)
(-0.0702501 0.00461394 0)
(-0.0718695 0.00465284 0)
(-0.0735007 0.00469332 0)
(-0.0751443 0.00473521 0)
(-0.0768005 0.00477833 0)
(-0.0784697 0.0048225 0)
(-0.080152 0.00486747 0)
(-0.0818476 0.004913 0)
(-0.0835566 0.00495882 0)
(-0.0852788 0.00500463 0)
(-0.0870141 0.0050501 0)
(-0.0887623 0.00509487 0)
(-0.0905228 0.00513857 0)
(-0.0922951 0.00518077 0)
(-0.0940785 0.00522103 0)
(-0.0958721 0.00525888 0)
(-0.0976749 0.0052938 0)
(-0.0994856 0.00532525 0)
(-0.101303 0.00535267 0)
(-0.103125 0.00537544 0)
(-0.10495 0.00539292 0)
(-0.106776 0.00540443 0)
(-0.108601 0.00540928 0)
(-0.110422 0.00540672 0)
(-0.112237 0.00539598 0)
(-0.114042 0.00537626 0)
(-0.115834 0.00534674 0)
(-0.117609 0.00530657 0)
(-0.119364 0.00525486 0)
(-0.121095 0.00519074 0)
(-0.122796 0.00511328 0)
(-0.124464 0.00502157 0)
(-0.126094 0.00491467 0)
(-0.127679 0.00479167 0)
(-0.129214 0.00465164 0)
(-0.130695 0.00449367 0)
(-0.132113 0.00431688 0)
(-0.133464 0.00412039 0)
(-0.13474 0.0039034 0)
(-0.135935 0.00366512 0)
(-0.137041 0.00340485 0)
(-0.138051 0.00312194 0)
(-0.138958 0.00281584 0)
(-0.139754 0.00248609 0)
(-0.140432 0.00213234 0)
(-0.140983 0.00175436 0)
(-0.1414 0.00135206 0)
(-0.141676 0.000925519 0)
(-0.141803 0.000474969 0)
(-0.141773 8.32254e-07 0)
(-0.141579 -0.000496271 0)
(-0.141215 -0.00101551 0)
(-0.140673 -0.00155582 0)
(-0.139948 -0.00211592 0)
(-0.139034 -0.00269425 0)
(-0.137925 -0.003289 0)
(-0.136617 -0.00389812 0)
(-0.135107 -0.00451926 0)
(-0.133392 -0.0051498 0)
(-0.131469 -0.00578686 0)
(-0.129337 -0.00642728 0)
(-0.126997 -0.00706765 0)
(-0.12445 -0.0077043 0)
(-0.121697 -0.00833334 0)
(-0.118743 -0.00895065 0)
(-0.115591 -0.00955194 0)
(-0.11225 -0.0101327 0)
(-0.108725 -0.0106885 0)
(-0.105027 -0.0112144 0)
(-0.101165 -0.011706 0)
(-0.0971527 -0.0121583 0)
(-0.0930021 -0.0125668 0)
(-0.0887286 -0.0129269 0)
(-0.0843483 -0.0132342 0)
(-0.0798789 -0.0134845 0)
(-0.0753392 -0.0136739 0)
(-0.0707491 -0.0137987 0)
(-0.0661296 -0.0138559 0)
(-0.0615026 -0.0138426 0)
(-0.0568909 -0.0137566 0)
(-0.0523177 -0.0135962 0)
(-0.0478069 -0.0133601 0)
(-0.0433822 -0.0130479 0)
(-0.0390677 -0.0126597 0)
(-0.0348873 -0.0121965 0)
(-0.0308641 -0.0116597 0)
(-0.0270209 -0.0110519 0)
(-0.0233793 -0.0103763 0)
(-0.0199597 -0.00963716 0)
(-0.0167807 -0.0088397 0)
(-0.0138591 -0.00799042 0)
(-0.0112093 -0.00709724 0)
(-0.00884274 -0.00616989 0)
(-0.00676759 -0.00522029 0)
(-0.00498803 -0.00426331 0)
(-0.00350358 -0.0033176 0)
(-0.00230845 -0.00240685 0)
(-0.00139071 -0.00156142 0)
(-0.000731275 -0.000820537 0)
(-0.000302836 -0.00023459 0)
(-7.16056e-05 0.000131655 0)
(-4.013e-07 0.00018874 0)
(7.82777e-07 -0.000100337 0)
(-2.07549e-05 -0.00012269 0)
(-9.59014e-05 -1.33438e-05 0)
(-0.000238525 0.000192388 0)
(-0.000460448 0.000467437 0)
(-0.000770711 0.000789803 0)
(-0.00117529 0.00114175 0)
(-0.0016776 0.00150923 0)
(-0.00227888 0.00188122 0)
(-0.00297859 0.00224924 0)
(-0.00377467 0.00260685 0)
(-0.00466388 0.00294931 0)
(-0.00564206 0.00327325 0)
(-0.00670436 0.0035764 0)
(-0.00784546 0.0038574 0)
(-0.00905972 0.00411559 0)
(-0.0103414 0.00435087 0)
(-0.0116846 0.00456361 0)
(-0.0130838 0.00475448 0)
(-0.0145332 0.00492445 0)
(-0.0160275 0.00507464 0)
(-0.0175617 0.00520633 0)
(-0.019131 0.00532087 0)
(-0.0207308 0.00541966 0)
(-0.0223572 0.00550411 0)
(-0.0240063 0.00557562 0)
(-0.0256748 0.00563557 0)
(-0.0273594 0.00568528 0)
(-0.0290577 0.00572602 0)
(-0.030767 0.00575898 0)
(-0.0324853 0.0057853 0)
(-0.0342108 0.00580603 0)
(-0.035942 0.00582215 0)
(-0.0376775 0.00583456 0)
(-0.0394164 0.0058441 0)
(-0.0411578 0.0058515 0)
(-0.0429011 0.00585747 0)
(-0.0446459 0.00586261 0)
(-0.0463918 0.00586749 0)
(-0.0481388 0.00587259 0)
(-0.0498869 0.00587836 0)
(-0.0516363 0.00588519 0)
(-0.0533871 0.00589342 0)
(-0.0551397 0.00590335 0)
(-0.0568945 0.00591523 0)
(-0.0586521 0.00592929 0)
(-0.0604129 0.00594571 0)
(-0.0621776 0.00596464 0)
(-0.0639469 0.0059862 0)
(-0.0657213 0.00601049 0)
(-0.0675017 0.00603757 0)
(-0.0692886 0.00606748 0)
(-0.0710829 0.00610024 0)
(-0.0728853 0.00613583 0)
(-0.0746964 0.00617421 0)
(-0.0765171 0.00621532 0)
(-0.0783479 0.00625909 0)
(-0.0801894 0.00630538 0)
(-0.0820424 0.00635408 0)
(-0.0839074 0.006405 0)
(-0.0857848 0.00645797 0)
(-0.0876751 0.00651276 0)
(-0.0895787 0.00656911 0)
(-0.0914959 0.00662675 0)
(-0.0934268 0.00668536 0)
(-0.0953716 0.00674461 0)
(-0.0973302 0.0068041 0)
(-0.0993026 0.00686342 0)
(-0.101288 0.00692212 0)
(-0.103287 0.00697971 0)
(-0.105298 0.00703566 0)
(-0.107322 0.0070894 0)
(-0.109356 0.00714031 0)
(-0.111399 0.00718774 0)
(-0.113452 0.00723099 0)
(-0.115511 0.00726933 0)
(-0.117576 0.00730196 0)
(-0.119645 0.00732806 0)
(-0.121715 0.00734675 0)
(-0.123783 0.00735712 0)
(-0.125848 0.00735821 0)
(-0.127907 0.00734903 0)
(-0.129955 0.00732852 0)
(-0.13199 0.00729561 0)
(-0.134008 0.00724919 0)
(-0.136005 0.00718811 0)
(-0.137976 0.00711121 0)
(-0.139916 0.00701727 0)
(-0.141821 0.0069051 0)
(-0.143685 0.00677347 0)
(-0.145503 0.00662113 0)
(-0.147268 0.00644687 0)
(-0.148975 0.00624946 0)
(-0.150615 0.00602772 0)
(-0.152184 0.00578046 0)
(-0.153673 0.00550658 0)
(-0.155075 0.00520499 0)
(-0.156383 0.00487471 0)
(-0.157588 0.00451482 0)
(-0.158683 0.00412451 0)
(-0.159658 0.00370307 0)
(-0.160507 0.00324994 0)
(-0.16122 0.0027647 0)
(-0.161789 0.0022471 0)
(-0.162205 0.00169709 0)
(-0.162461 0.00111481 0)
(-0.162547 0.000500643 0)
(-0.162456 -0.000144794 0)
(-0.16218 -0.000820615 0)
(-0.161711 -0.00152565 0)
(-0.161042 -0.00225843 0)
(-0.160167 -0.00301718 0)
(-0.159079 -0.00379978 0)
(-0.157773 -0.00460378 0)
(-0.156245 -0.00542637 0)
(-0.15449 -0.00626441 0)
(-0.152505 -0.00711437 0)
(-0.150288 -0.00797239 0)
(-0.147839 -0.00883424 0)
(-0.145157 -0.00969537 0)
(-0.142244 -0.0105509 0)
(-0.139103 -0.0113956 0)
(-0.135738 -0.012224 0)
(-0.132153 -0.0130305 0)
(-0.128357 -0.0138091 0)
(-0.124358 -0.0145537 0)
(-0.120166 -0.0152581 0)
(-0.115792 -0.0159162 0)
(-0.11125 -0.0165216 0)
(-0.106555 -0.0170682 0)
(-0.101723 -0.01755 0)
(-0.0967724 -0.0179611 0)
(-0.0917221 -0.018296 0)
(-0.086593 -0.0185495 0)
(-0.081407 -0.018717 0)
(-0.0761874 -0.018794 0)
(-0.0709581 -0.0187771 0)