/*--------------------------------*- C++ -*----------------------------------*\
  =========                 |
  \\      /  F ield         | OpenFOAM: The Open Source CFD Toolbox
   \\    /   O peration     | Website:  https://openfoam.org
    \\  /    A nd           | Version:  7
     \\/     M anipulation  |
\*---------------------------------------------------------------------------*/
FoamFile
{
    version     2.0;
    format      ascii;
    class       surfaceScalarField;
    location    "0.5";
    object      phi;
}
// * * * * * * * * * * * * * * * * * * * * * * * * * * * * * * * * * * * * * //

dimensions      [0 3 -1 0 0 0 0];

internalField   nonuniform List<scalar> 
25360
(
1.14478e-10
-1.1417e-10
3.59672e-10
-2.45193e-10
6.04282e-10
-2.44608e-10
7.65153e-10
-1.6087e-10
7.98141e-10
-3.2987e-11
6.81434e-10
1.16708e-10
4.06399e-10
2.75036e-10
-2.76374e-11
4.34037e-10
-6.16542e-10
5.88906e-10
-1.35329e-09
7.36752e-10
-2.22913e-09
8.75835e-10
-3.23427e-09
1.00514e-09
-4.35842e-09
1.12415e-09
-5.59105e-09
1.23263e-09
-6.92164e-09
1.3306e-09
-8.33983e-09
1.41819e-09
-9.83551e-09
1.49568e-09
-1.13989e-08
1.56339e-09
-1.30206e-08
1.62171e-09
-1.46917e-08
1.67108e-09
-1.64036e-08
1.71192e-09
-1.81483e-08
1.74473e-09
-1.99183e-08
1.76995e-09
-2.17064e-08
1.78808e-09
-2.35059e-08
1.79958e-09
-2.53109e-08
1.80492e-09
-2.71154e-08
1.80457e-09
-2.89144e-08
1.79898e-09
-3.0703e-08
1.78857e-09
-3.24768e-08
1.77378e-09
-3.42318e-08
1.75502e-09
-3.59644e-08
1.73266e-09
-3.76715e-08
1.7071e-09
-3.93502e-08
1.67868e-09
-4.09979e-08
1.64774e-09
-4.26125e-08
1.6146e-09
-4.41921e-08
1.57957e-09
-4.57351e-08
1.54293e-09
-4.724e-08
1.50494e-09
-4.87058e-08
1.46585e-09
-5.01317e-08
1.42589e-09
-5.1517e-08
1.38528e-09
-5.28612e-08
1.34419e-09
-5.4164e-08
1.30283e-09
-5.54254e-08
1.26134e-09
-5.66452e-08
1.21988e-09
-5.78238e-08
1.17857e-09
-5.89614e-08
1.13755e-09
-6.00583e-08
1.09691e-09
-6.1115e-08
1.05675e-09
-6.21322e-08
1.01714e-09
-6.31103e-08
9.78165e-10
-6.40502e-08
9.39874e-10
-6.49525e-08
9.02316e-10
-6.5818e-08
8.6553e-10
-6.66476e-08
8.29544e-10
-6.7442e-08
7.94379e-10
-6.8202e-08
7.60049e-10
-6.89286e-08
7.26559e-10
-6.96225e-08
6.93907e-10
-7.02846e-08
6.62083e-10
-7.09156e-08
6.31071e-10
-7.15165e-08
6.00851e-10
-7.20879e-08
5.71399e-10
-7.26306e-08
5.42684e-10
-7.31452e-08
5.14671e-10
-7.36326e-08
4.8732e-10
-7.40931e-08
4.60585e-10
-7.45276e-08
4.3442e-10
-7.49363e-08
4.08775e-10
-7.53199e-08
3.83596e-10
-7.56788e-08
3.58827e-10
-7.60132e-08
3.3441e-10
-7.63234e-08
3.10281e-10
-7.66098e-08
2.86376e-10
-7.68724e-08
2.62628e-10
-7.71114e-08
2.38972e-10
-7.73268e-08
2.15339e-10
-7.75184e-08
1.91658e-10
-7.76863e-08
1.67857e-10
-7.78301e-08
1.43862e-10
-7.79497e-08
1.19601e-10
-7.80447e-08
9.49977e-11
-7.81147e-08
6.99801e-11
-7.81592e-08
4.44738e-11
-7.81776e-08
1.84043e-11
-7.81693e-08
-8.30274e-12
-7.81336e-08
-3.57208e-11
-7.80696e-08
-6.39219e-11
-7.79767e-08
-9.29762e-11
-7.78537e-08
-1.22952e-10
-7.76998e-08
-1.53916e-10
-7.75139e-08
-1.85933e-10
-7.72948e-08
-2.19064e-10
-7.70414e-08
-2.53366e-10
-7.67526e-08
-2.88893e-10
-7.64269e-08
-3.25695e-10
-7.6063e-08
-3.63813e-10
-7.56598e-08
-4.03288e-10
-7.52156e-08
-4.44149e-10
-7.47292e-08
-4.86422e-10
-7.41991e-08
-5.30124e-10
-7.36238e-08
-5.75262e-10
-7.3002e-08
-6.21834e-10
-7.23321e-08
-6.6983e-10
-7.16129e-08
-7.19227e-10
-7.08429e-08
-7.69989e-10
-7.00209e-08
-8.2207e-10
-6.91455e-08
-8.75409e-10
-6.82155e-08
-9.29931e-10
-6.723e-08
-9.85544e-10
-6.61878e-08
-1.04214e-09
-6.50882e-08
-1.0996e-09
-6.39305e-08
-1.15778e-09
-6.27139e-08
-1.21652e-09
-6.14383e-08
-1.27563e-09
-6.01034e-08
-1.33493e-09
-5.87092e-08
-1.39418e-09
-5.72561e-08
-1.45316e-09
-5.57445e-08
-1.51159e-09
-5.41753e-08
-1.5692e-09
-5.25496e-08
-1.62568e-09
-5.08689e-08
-1.6807e-09
-4.9135e-08
-1.73392e-09
-4.735e-08
-1.78497e-09
-4.55165e-08
-1.83346e-09
-4.36376e-08
-1.87898e-09
-4.17164e-08
-1.92112e-09
-3.9757e-08
-1.95941e-09
-3.77636e-08
-1.99341e-09
-3.5741e-08
-2.02265e-09
-3.36944e-08
-2.04662e-09
-3.16295e-08
-2.06485e-09
-2.95527e-08
-2.07681e-09
-2.74707e-08
-2.08201e-09
-2.53908e-08
-2.07992e-09
-2.33207e-08
-2.07003e-09
-2.12689e-08
-2.05183e-09
-1.92441e-08
-2.0248e-09
-1.72557e-08
-1.98847e-09
-1.53133e-08
-1.94233e-09
-1.34274e-08
-1.88594e-09
-1.16085e-08
-1.81886e-09
-9.86782e-09
-1.7407e-09
-8.2167e-09
-1.65112e-09
-6.66689e-09
-1.54982e-09
-5.23028e-09
-1.43661e-09
-3.91888e-09
-1.3114e-09
-2.7446e-09
-1.17428e-09
-1.71904e-09
-1.02556e-09
-8.53192e-10
-8.65853e-10
-1.56876e-10
-6.96318e-10
3.6199e-10
-5.18867e-10
6.98655e-10
-3.36667e-10
8.53615e-10
-1.54961e-10
8.36106e-10
1.75085e-11
6.69948e-10
1.66156e-10
4.03899e-10
2.66047e-10
1.3077e-10
2.73127e-10
1.30769e-10
2.45548e-10
-3.59717e-10
6.34156e-10
-6.33799e-10
9.50212e-10
-5.60663e-10
1.04701e-09
-2.57664e-10
8.28694e-10
1.8533e-10
2.38772e-10
7.06633e-10
-7.51133e-10
1.26494e-09
-2.15005e-09
1.83296e-09
-3.95386e-09
2.39271e-09
-6.14957e-09
2.93247e-09
-8.71832e-09
3.44459e-09
-1.16374e-08
3.92424e-09
-1.48818e-08
4.3685e-09
-1.84249e-08
4.77579e-09
-2.22398e-08
5.14549e-09
-2.62993e-08
5.47767e-09
-3.05765e-08
5.77287e-09
-3.50451e-08
6.03202e-09
-3.96797e-08
6.2563e-09
-4.44557e-08
6.44709e-09
-4.93497e-08
6.60591e-09
-5.43393e-08
6.73436e-09
-5.94035e-08
6.8341e-09
-6.45222e-08
6.90684e-09
-6.96769e-08
6.9543e-09
-7.48502e-08
6.97819e-09
-8.00258e-08
6.98021e-09
-8.51889e-08
6.96202e-09
-9.03255e-08
6.92525e-09
-9.54233e-08
6.8715e-09
-1.00471e-07
6.80229e-09
-1.05457e-07
6.7191e-09
-1.10373e-07
6.62336e-09
-1.15211e-07
6.51641e-09
-1.19963e-07
6.39955e-09
-1.24622e-07
6.27401e-09
-1.29184e-07
6.14093e-09
-1.33642e-07
6.0014e-09
-1.37993e-07
5.85645e-09
-1.42235e-07
5.70703e-09
-1.46363e-07
5.55403e-09
-1.50376e-07
5.39827e-09
-1.54272e-07
5.2405e-09
-1.58051e-07
5.08143e-09
-1.61711e-07
4.92168e-09
-1.65253e-07
4.76185e-09
-1.68677e-07
4.60244e-09
-1.71983e-07
4.44393e-09
-1.75173e-07
4.28674e-09
-1.78248e-07
4.13122e-09
-1.81208e-07
3.97771e-09
-1.84056e-07
3.82647e-09
-1.86794e-07
3.67775e-09
-1.89424e-07
3.53173e-09
-1.91947e-07
3.38858e-09
-1.94366e-07
3.2484e-09
-1.96683e-07
3.1113e-09
-1.989e-07
2.97731e-09
-2.0102e-07
2.84648e-09
-2.03045e-07
2.7188e-09
-2.04977e-07
2.59423e-09
-2.06818e-07
2.47274e-09
-2.08572e-07
2.35424e-09
-2.10239e-07
2.23864e-09
-2.11822e-07
2.12583e-09
-2.13323e-07
2.01567e-09
-2.14744e-07
1.90802e-09
-2.16086e-07
1.80271e-09
-2.17351e-07
1.69956e-09
-2.18541e-07
1.59838e-09
-2.19656e-07
1.49897e-09
-2.20698e-07
1.4011e-09
-2.21669e-07
1.30456e-09
-2.22567e-07
1.2091e-09
-2.23396e-07
1.1145e-09
-2.24153e-07
1.02048e-09
-2.24841e-07
9.26792e-10
-2.25459e-07
8.33176e-10
-2.26007e-07
7.3936e-10
-2.26484e-07
6.45069e-10
-2.2689e-07
5.50025e-10
-2.27224e-07
4.53946e-10
-2.27486e-07
3.56549e-10
-2.27674e-07
2.5755e-10
-2.27786e-07
1.56667e-10
-2.27821e-07
5.36174e-11
-2.27777e-07
-5.18808e-11
-2.27653e-07
-1.60105e-10
-2.27446e-07
-2.71329e-10
-2.27153e-07
-3.8582e-10
-2.26772e-07
-5.03838e-10
-2.263e-07
-6.25634e-10
-2.25735e-07
-7.51448e-10
-2.25072e-07
-8.8151e-10
-2.2431e-07
-1.01603e-09
-2.23443e-07
-1.15522e-09
-2.2247e-07
-1.29925e-09
-2.21385e-07
-1.44828e-09
-2.20186e-07
-1.60245e-09
-2.18868e-07
-1.76188e-09
-2.17428e-07
-1.92664e-09
-2.15861e-07
-2.09679e-09
-2.14164e-07
-2.27235e-09
-2.12333e-07
-2.45331e-09
-2.10363e-07
-2.6396e-09
-2.08251e-07
-2.83114e-09
-2.05993e-07
-3.02777e-09
-2.03586e-07
-3.2293e-09
-2.01026e-07
-3.4355e-09
-1.9831e-07
-3.64604e-09
-1.95435e-07
-3.86059e-09
-1.92398e-07
-4.0787e-09
-1.89198e-07
-4.2999e-09
-1.85832e-07
-4.52364e-09
-1.82299e-07
-4.74928e-09
-1.78599e-07
-4.97613e-09
-1.7473e-07
-5.20341e-09
-1.70694e-07
-5.43028e-09
-1.66492e-07
-5.65581e-09
-1.62124e-07
-5.87898e-09
-1.57595e-07
-6.09871e-09
-1.52907e-07
-6.31383e-09
-1.48064e-07
-6.52309e-09
-1.43073e-07
-6.72516e-09
-1.37939e-07
-6.91865e-09
-1.32671e-07
-7.10207e-09
-1.27276e-07
-7.27386e-09
-1.21765e-07
-7.43243e-09
-1.16148e-07
-7.57608e-09
-1.10438e-07
-7.70307e-09
-1.04649e-07
-7.81164e-09
-9.8796e-08
-7.89994e-09
-9.28947e-08
-7.96611e-09
-8.69633e-08
-8.00827e-09
-8.10208e-08
-8.0245e-09
-7.50878e-08
-8.01291e-09
-6.91862e-08
-7.9716e-09
-6.33394e-08
-7.8987e-09
-5.75718e-08
-7.79237e-09
-5.19094e-08
-7.65085e-09
-4.63793e-08
-7.47244e-09
-4.10097e-08
-7.25556e-09
-3.58298e-08
-6.99879e-09
-3.08696e-08
-6.70085e-09
-2.616e-08
-6.36074e-09
-2.17321e-08
-5.97775e-09
-1.76171e-08
-5.55156e-09
-1.38461e-08
-5.08243e-09
-1.04491e-08
-4.57133e-09
-7.45439e-09
-4.02024e-09
-4.88766e-09
-3.43258e-09
-2.77015e-09
-2.81383e-09
-1.11657e-09
-2.17246e-09
6.81885e-11
-1.52143e-09
7.93748e-10
-8.80523e-10
1.09118e-09
-2.79921e-10
1.02287e-09
2.3446e-10
6.95424e-10
5.93492e-10
2.73156e-10
6.95393e-10
4.03923e-10
2.45889e-10
-6.05604e-10
5.63658e-10
-9.51566e-10
6.98096e-10
-6.95099e-10
4.75203e-10
-3.47703e-11
-2.24721e-10
8.85256e-10
-1.47757e-09
1.95948e-09
-3.32523e-09
3.1126e-09
-5.78424e-09
4.29197e-09
-8.85263e-09
5.46111e-09
-1.25151e-08
6.5949e-09
-1.67468e-08
7.67629e-09
-2.15164e-08
8.69391e-09
-2.67884e-08
9.64046e-09
-3.25242e-08
1.05116e-08
-3.86839e-08
1.13052e-08
-4.52268e-08
1.20206e-08
-5.21123e-08
1.26584e-08
-5.93003e-08
1.322e-08
-6.67517e-08
1.37077e-08
-7.44285e-08
1.41239e-08
-8.22943e-08
1.44717e-08
-9.03143e-08
1.47543e-08
-9.84551e-08
1.4975e-08
-1.06686e-07
1.51373e-08
-1.14976e-07
1.52449e-08
-1.23299e-07
1.53014e-08
-1.31629e-07
1.53102e-08
-1.39942e-07
1.52749e-08
-1.48216e-07
1.51991e-08
-1.56431e-07
1.5086e-08
-1.64567e-07
1.4939e-08
-1.72609e-07
1.47612e-08
-1.80542e-07
1.45558e-08
-1.88351e-07
1.43256e-08
-1.96025e-07
1.40735e-08
-2.03553e-07
1.3802e-08
-2.10926e-07
1.35137e-08
-2.18135e-07
1.32111e-08
-2.25175e-07
1.28962e-08
-2.32039e-07
1.25712e-08
-2.38723e-07
1.2238e-08
-2.45224e-07
1.18985e-08
-2.51537e-07
1.15543e-08
-2.57663e-07
1.12069e-08
-2.63599e-07
1.08577e-08
-2.69345e-07
1.0508e-08
-2.74901e-07
1.0159e-08
-2.80269e-07
9.8117e-09
-2.8545e-07
9.467e-09
-2.90444e-07
9.12573e-09
-2.95255e-07
8.78862e-09
-2.99885e-07
8.45627e-09
-3.04336e-07
8.12921e-09
-3.08612e-07
7.80787e-09
-3.12716e-07
7.49262e-09
-3.16652e-07
7.18371e-09
-3.20422e-07
6.88137e-09
-3.2403e-07
6.58571e-09
-3.2748e-07
6.29681e-09
-3.30776e-07
6.01467e-09
-3.33921e-07
5.73924e-09
-3.36919e-07
5.47041e-09
-3.39773e-07
5.20805e-09
-3.42486e-07
4.95193e-09
-3.45062e-07
4.70182e-09
-3.47504e-07
4.45745e-09
-3.49814e-07
4.21848e-09
-3.51996e-07
3.98456e-09
-3.54052e-07
3.75532e-09
-3.55984e-07
3.53032e-09
-3.57794e-07
3.30914e-09
-3.59484e-07
3.09129e-09
-3.61056e-07
2.8763e-09
-3.62511e-07
2.66365e-09
-3.63849e-07
2.45282e-09
-3.65072e-07
2.24324e-09
-3.66179e-07
2.03437e-09
-3.67172e-07
1.82563e-09
-3.68049e-07
1.61643e-09
-3.6881e-07
1.40617e-09
-3.69454e-07
1.19425e-09
-3.6998e-07
9.80062e-10
-3.70387e-07
7.6299e-10
-3.70671e-07
5.42419e-10
-3.70833e-07
3.17732e-10
-3.70867e-07
8.83178e-11
-3.70773e-07
-1.46431e-10
-3.70546e-07
-3.87116e-10
-3.70183e-07
-6.34326e-10
-3.6968e-07
-8.88639e-10
-3.69033e-07
-1.15061e-09
-3.68238e-07
-1.42079e-09
-3.6729e-07
-1.69969e-09
-3.66183e-07
-1.9878e-09
-3.64914e-07
-2.28558e-09
-3.63476e-07
-2.59345e-09
-3.61863e-07
-2.91179e-09
-3.6007e-07
-3.24095e-09
-3.58092e-07
-3.5812e-09
-3.55921e-07
-3.93278e-09
-3.53552e-07
-4.29586e-09
-3.50978e-07
-4.67054e-09
-3.48193e-07
-5.05686e-09
-3.45192e-07
-5.45474e-09
-3.41967e-07
-5.86407e-09
-3.38514e-07
-6.2846e-09
-3.34826e-07
-6.71601e-09
-3.30897e-07
-7.15786e-09
-3.26723e-07
-7.60959e-09
-3.22299e-07
-8.07052e-09
-3.17619e-07
-8.53986e-09
-3.12681e-07
-9.01667e-09
-3.07481e-07
-9.49988e-09
-3.02017e-07
-9.98825e-09
-2.96286e-07
-1.04804e-08
-2.90287e-07
-1.09748e-08
-2.8402e-07
-1.14698e-08
-2.77487e-07
-1.19635e-08
-2.70689e-07
-1.24539e-08
-2.6363e-07
-1.29387e-08
-2.56313e-07
-1.34156e-08
-2.48744e-07
-1.3882e-08
-2.40932e-07
-1.43353e-08
-2.32885e-07
-1.47726e-08
-2.24613e-07
-1.51908e-08
-2.16128e-07
-1.55866e-08
-2.07445e-07
-1.59569e-08
-1.9858e-07
-1.6298e-08
-1.89549e-07
-1.66063e-08
-1.80374e-07
-1.68782e-08
-1.71076e-07
-1.71097e-08
-1.61679e-07
-1.7297e-08
-1.52209e-07
-1.74361e-08
-1.42694e-07
-1.75229e-08
-1.33165e-07
-1.75535e-08
-1.23655e-07
-1.75237e-08
-1.14197e-07
-1.74295e-08
-1.04828e-07
-1.72672e-08
-9.55878e-08
-1.70328e-08
-8.65159e-08
-1.67227e-08
-7.76549e-08
-1.63335e-08
-6.90484e-08
-1.5862e-08
-6.07417e-08
-1.53055e-08
-5.27809e-08
-1.46616e-08
-4.5213e-08
-1.39286e-08
-3.80852e-08
-1.31056e-08
-3.14443e-08
-1.21924e-08
-2.53362e-08
-1.11905e-08
-1.98047e-08
-1.01029e-08
-1.48902e-08
-8.93475e-09
-1.06281e-08
-7.69469e-09
-7.04635e-09
-6.39556e-09
-4.16239e-09
-5.05641e-09
-1.97875e-09
-3.70507e-09
-4.77375e-10
-2.3819e-09
3.87948e-10
-1.14525e-09
7.01377e-10
-7.89712e-11
5.962e-10
6.98667e-10
2.66947e-10
1.02465e-09
6.70868e-10
1.63832e-10
-7.69435e-10
2.64934e-10
-1.05267e-09
4.45261e-11
-4.74689e-10
-6.77782e-10
6.8754e-10
-2.02876e-09
2.23624e-09
-4.09166e-09
4.02238e-09
-6.91456e-09
5.93551e-09
-1.0518e-08
7.89543e-09
-1.49013e-08
9.84439e-09
-2.00476e-08
1.17412e-08
-2.59282e-08
1.35569e-08
-3.25057e-08
1.52714e-08
-3.97365e-08
1.68713e-08
-4.75732e-08
1.83483e-08
-5.59656e-08
1.96975e-08
-6.48621e-08
2.09171e-08
-7.42109e-08
2.20072e-08
-8.39604e-08
2.29695e-08
-9.40599e-08
2.38072e-08
-1.0446e-07
2.45241e-08
-1.15113e-07
2.51248e-08
-1.25973e-07
2.56144e-08
-1.36997e-07
2.59985e-08
-1.48142e-07
2.62828e-08
-1.5937e-07
2.64732e-08
-1.70645e-07
2.65756e-08
-1.8193e-07
2.6596e-08
-1.93196e-07
2.65404e-08
-2.04411e-07
2.64146e-08
-2.1555e-07
2.62244e-08
-2.26586e-07
2.59753e-08
-2.37498e-07
2.56728e-08
-2.48264e-07
2.53221e-08
-2.58867e-07
2.49282e-08
-2.69289e-07
2.44959e-08
-2.79517e-07
2.40298e-08
-2.89537e-07
2.35342e-08
-2.99339e-07
2.30131e-08
-3.08914e-07
2.24705e-08
-3.18252e-07
2.19099e-08
-3.27349e-07
2.13347e-08
-3.36199e-07
2.0748e-08
-3.44797e-07
2.01527e-08
-3.53141e-07
1.95514e-08
-3.6123e-07
1.89467e-08
-3.69063e-07
1.83407e-08
-3.7664e-07
1.77354e-08
-3.83961e-07
1.71327e-08
-3.91028e-07
1.65342e-08
-3.97843e-07
1.59413e-08
-4.0441e-07
1.53552e-08
-4.10731e-07
1.4777e-08
-4.16809e-07
1.42078e-08
-4.2265e-07
1.36481e-08
-4.28256e-07
1.30988e-08
-4.33632e-07
1.25602e-08
-4.38784e-07
1.20327e-08
-4.43714e-07
1.15166e-08
-4.4843e-07
1.1012e-08
-4.52934e-07
1.0519e-08
-4.57232e-07
1.00374e-08
-4.61329e-07
9.56706e-09
-4.65229e-07
9.10778e-09
-4.68936e-07
8.65919e-09
-4.72455e-07
8.22089e-09
-4.7579e-07
7.79239e-09
-4.78944e-07
7.37316e-09
-4.81923e-07
6.96258e-09
-4.84727e-07
6.56e-09
-4.87362e-07
6.16471e-09
-4.89828e-07
5.77594e-09
-4.9213e-07
5.39288e-09
-4.94268e-07
5.01471e-09
-4.96245e-07
4.64054e-09
-4.98062e-07
4.26945e-09
-4.99719e-07
3.90051e-09
-5.01218e-07
3.53275e-09
-5.02557e-07
3.16518e-09
-5.03737e-07
2.79678e-09
-5.04758e-07
2.42654e-09
-5.05617e-07
2.05341e-09
-5.06313e-07
1.67634e-09
-5.06845e-07
1.29428e-09
-5.07208e-07
9.06167e-10
-5.07402e-07
5.10945e-10
-5.07421e-07
1.07561e-10
-5.07262e-07
-3.05027e-10
-5.06921e-07
-7.27848e-10
-5.06394e-07
-1.16191e-09
-5.05674e-07
-1.60821e-09
-5.04757e-07
-2.06769e-09
-5.03637e-07
-2.54128e-09
-5.02307e-07
-3.02987e-09
-5.0076e-07
-3.53427e-09
-4.9899e-07
-4.05528e-09
-4.9699e-07
-4.5936e-09
-4.94752e-07
-5.14987e-09
-4.92268e-07
-5.72468e-09
-4.89531e-07
-6.31848e-09
-4.86532e-07
-6.93166e-09
-4.83264e-07
-7.56449e-09
-4.79717e-07
-8.21712e-09
-4.75884e-07
-8.88959e-09
-4.71757e-07
-9.58178e-09
-4.67328e-07
-1.02934e-08
-4.62588e-07
-1.10241e-08
-4.57531e-07
-1.17732e-08
-4.52149e-07
-1.254e-08
-4.46435e-07
-1.33234e-08
-4.40384e-07
-1.41223e-08
-4.33988e-07
-1.49353e-08
-4.27244e-07
-1.57607e-08
-4.20147e-07
-1.65967e-08
-4.12695e-07
-1.74411e-08
-4.04884e-07
-1.82915e-08
-3.96713e-07
-1.91453e-08
-3.88183e-07
-1.99995e-08
-3.79296e-07
-2.08509e-08
-3.70054e-07
-2.1696e-08
-3.60462e-07
-2.2531e-08
-3.50525e-07
-2.33518e-08
-3.40253e-07
-2.4154e-08
-3.29656e-07
-2.49329e-08
-3.18745e-07
-2.56837e-08
-3.07535e-07
-2.64009e-08
-2.96042e-07
-2.70793e-08
-2.84286e-07
-2.7713e-08
-2.72288e-07
-2.8296e-08
-2.60072e-07
-2.88222e-08
-2.47665e-07
-2.92852e-08
-2.35096e-07
-2.96785e-08
-2.22398e-07
-2.99954e-08
-2.09605e-07
-3.02291e-08
-1.96755e-07
-3.03729e-08
-1.83888e-07
-3.04199e-08
-1.71049e-07
-3.03634e-08
-1.58282e-07
-3.01966e-08
-1.45636e-07
-2.99131e-08
-1.33162e-07
-2.95066e-08
-1.20913e-07
-2.89711e-08
-1.08946e-07
-2.83011e-08
-9.73162e-08
-2.74916e-08
-8.60834e-08
-2.65383e-08
-7.53073e-08
-2.54378e-08
-6.50482e-08
-2.41877e-08
-5.53665e-08
-2.27872e-08
-4.63218e-08
-2.12372e-08
-3.79714e-08
-1.95409e-08
-3.03699e-08
-1.77044e-08
-2.35664e-08
-1.57382e-08
-1.76035e-08
-1.36576e-08
-1.25135e-08
-1.14856e-08
-8.31551e-09
-9.25443e-09
-5.01053e-09
-7.01005e-09
-2.57599e-09
-4.81645e-09
-9.58576e-10
-2.76266e-09
-6.58806e-11
-9.71669e-10
2.43059e-10
3.89725e-10
1.69044e-10
1.09866e-09
8.39911e-10
3.78036e-11
-8.07237e-10
-1.74036e-10
-8.40825e-10
-8.70369e-10
2.21646e-10
-2.22129e-09
2.03847e-09
-4.34861e-09
4.36356e-09
-7.33388e-09
7.00764e-09
-1.1225e-08
9.82668e-09
-1.60427e-08
1.2713e-08
-2.17852e-08
1.5587e-08
-2.8434e-08
1.839e-08
-3.59567e-08
2.10796e-08
-4.43112e-08
2.36258e-08
-5.34477e-08
2.60079e-08
-6.33115e-08
2.8212e-08
-7.38441e-08
3.02302e-08
-8.49854e-08
3.20584e-08
-9.66742e-08
3.3696e-08
-1.08849e-07
3.51446e-08
-1.2145e-07
3.64081e-08
-1.34418e-07
3.74917e-08
-1.47695e-07
3.84016e-08
-1.61225e-07
3.91453e-08
-1.74957e-07
3.97303e-08
-1.8884e-07
4.01652e-08
-2.02825e-07
4.04584e-08
-2.16868e-07
4.06187e-08
-2.30927e-07
4.06549e-08
-2.44962e-07
4.05758e-08
-2.58938e-07
4.03902e-08
-2.7282e-07
4.01065e-08
-2.86578e-07
3.97331e-08
-3.00183e-07
3.92782e-08
-3.13611e-07
3.87496e-08
-3.26837e-07
3.81548e-08
-3.39843e-07
3.75012e-08
-3.52608e-07
3.67955e-08
-3.65119e-07
3.60444e-08
-3.77359e-07
3.5254e-08
-3.89319e-07
3.44302e-08
-4.00988e-07
3.35784e-08
-4.12357e-07
3.27038e-08
-4.2342e-07
3.18111e-08
-4.34172e-07
3.09048e-08
-4.44609e-07
2.99888e-08
-4.5473e-07
2.9067e-08
-4.64532e-07
2.81427e-08
-4.74015e-07
2.7219e-08
-4.83181e-07
2.62987e-08
-4.92031e-07
2.53843e-08
-5.00568e-07
2.44779e-08
-5.08794e-07
2.35816e-08
-5.16714e-07
2.2697e-08
-5.24332e-07
2.18255e-08
-5.31652e-07
2.09683e-08
-5.3868e-07
2.01265e-08
-5.4542e-07
1.93007e-08
-5.51879e-07
1.84915e-08
-5.58062e-07
1.76995e-08
-5.63974e-07
1.69247e-08
-5.69623e-07
1.61672e-08
-5.75012e-07
1.54269e-08
-5.80149e-07
1.47037e-08
-5.85038e-07
1.3997e-08
-5.89685e-07
1.33065e-08
-5.94096e-07
1.26315e-08
-5.98275e-07
1.19713e-08
-6.02227e-07
1.1325e-08
-6.05956e-07
1.06918e-08
-6.09467e-07
1.00707e-08
-6.12762e-07
9.46054e-09
-6.15847e-07
8.86025e-09
-6.18722e-07
8.26858e-09
-6.21392e-07
7.68426e-09
-6.23857e-07
7.10596e-09
-6.2612e-07
6.5323e-09
-6.28182e-07
5.96186e-09
-6.30042e-07
5.39316e-09
-6.31702e-07
4.82472e-09
-6.3316e-07
4.25499e-09
-6.34416e-07
3.68242e-09
-6.35468e-07
3.10544e-09
-6.36314e-07
2.52247e-09
-6.36951e-07
1.93189e-09
-6.37377e-07
1.33211e-09
-6.37588e-07
7.21538e-10
-6.37579e-07
9.85714e-11
-6.37346e-07
-5.3836e-10
-6.36883e-07
-1.19081e-09
-6.36184e-07
-1.8603e-09
-6.35244e-07
-2.54832e-09
-6.34056e-07
-3.2563e-09
-6.32611e-07
-3.98564e-09
-6.30903e-07
-4.73766e-09
-6.28924e-07
-5.51359e-09
-6.26665e-07
-6.31461e-09
-6.24117e-07
-7.14178e-09
-6.2127e-07
-7.99605e-09
-6.18117e-07
-8.87825e-09
-6.14646e-07
-9.7891e-09
-6.10849e-07
-1.07291e-08
-6.06714e-07
-1.16987e-08
-6.02233e-07
-1.26981e-08
-5.97396e-07
-1.37273e-08
-5.92192e-07
-1.4786e-08
-5.86611e-07
-1.58739e-08
-5.80645e-07
-1.69903e-08
-5.74284e-07
-1.81343e-08
-5.67519e-07
-1.93045e-08
-5.60343e-07
-2.04996e-08
-5.52747e-07
-2.17177e-08
-5.44726e-07
-2.29565e-08
-5.36273e-07
-2.42136e-08
-5.27384e-07
-2.54861e-08
-5.18054e-07
-2.67708e-08
-5.08282e-07
-2.8064e-08
-4.98065e-07
-2.93616e-08
-4.87406e-07
-3.06591e-08
-4.76305e-07
-3.19516e-08
-4.64767e-07
-3.32339e-08
-4.52798e-07
-3.45001e-08
-4.40406e-07
-3.5744e-08
-4.27601e-07
-3.6959e-08
-4.14396e-07
-3.81381e-08
-4.00806e-07
-3.92736e-08
-3.86849e-07
-4.03578e-08
-3.72546e-07
-4.13823e-08
-3.5792e-07
-4.23385e-08
-3.42999e-07
-4.32174e-08
-3.27811e-07
-4.40097e-08
-3.12391e-07
-4.47059e-08
-2.96773e-07
-4.5296e-08
-2.80998e-07
-4.57703e-08
-2.65109e-07
-4.61186e-08
-2.49151e-07
-4.63307e-08
-2.33174e-07
-4.63966e-08
-2.17232e-07
-4.63061e-08
-2.01379e-07
-4.60495e-08
-1.85675e-07
-4.56172e-08
-1.70181e-07
-4.5e-08
-1.54963e-07
-4.41895e-08
-1.40087e-07
-4.31776e-08
-1.25621e-07
-4.19574e-08
-1.11636e-07
-4.05231e-08
-9.82036e-08
-3.88702e-08
-8.53953e-08
-3.69961e-08
-7.32822e-08
-3.49003e-08
-6.19342e-08
-3.25852e-08
-5.14182e-08
-3.00569e-08
-4.17968e-08
-2.73258e-08
-3.31266e-08
-2.44084e-08
-2.54553e-08
-2.13289e-08
-1.88193e-08
-1.81216e-08
-1.32398e-08
-1.48339e-08
-8.71857e-09
-1.15313e-08
-5.2329e-09
-8.30212e-09
-2.72951e-09
-5.26605e-09
-1.1179e-09
-2.58328e-09
-2.63044e-10
-4.65136e-10
2.32943e-11
8.1232e-10
8.63205e-10
-1.10569e-10
-6.96668e-10
-6.93937e-10
-2.57454e-10
-1.94598e-09
1.47369e-09
-4.01456e-09
4.10704e-09
-7.00747e-09
7.35648e-09
-1.09975e-08
1.09977e-08
-1.60271e-08
1.48563e-08
-2.21131e-08
1.8799e-08
-2.92506e-08
2.27246e-08
-3.74178e-08
2.65571e-08
-4.65784e-08
3.02403e-08
-5.66858e-08
3.37332e-08
-6.7685e-08
3.7007e-08
-7.95149e-08
4.0042e-08
-9.21106e-08
4.28259e-08
-1.05404e-07
4.53522e-08
-1.19327e-07
4.76188e-08
-1.3381e-07
4.96273e-08
-1.48784e-07
5.13819e-08
-1.64181e-07
5.28891e-08
-1.79936e-07
5.4157e-08
-1.95986e-07
5.51949e-08
-2.12269e-07
5.60132e-08
-2.28727e-07
5.66231e-08
-2.45304e-07
5.7036e-08
-2.61949e-07
5.72638e-08
-2.78613e-07
5.73185e-08
-2.95249e-07
5.7212e-08
-3.11816e-07
5.69565e-08
-3.28273e-07
5.65636e-08
-3.44584e-07
5.60448e-08
-3.60718e-07
5.54115e-08
-3.76643e-07
5.46745e-08
-3.92332e-07
5.38442e-08
-4.07762e-07
5.29308e-08
-4.2291e-07
5.19438e-08
-4.37758e-07
5.08924e-08
-4.52289e-07
4.97853e-08
-4.6649e-07
4.86306e-08
-4.80347e-07
4.74359e-08
-4.93852e-07
4.62085e-08
-5.06996e-07
4.4955e-08
-5.19773e-07
4.36817e-08
-5.32178e-07
4.23943e-08
-5.44209e-07
4.10979e-08
-5.55864e-07
3.97974e-08
-5.67142e-07
3.84972e-08
-5.78044e-07
3.72011e-08
-5.88573e-07
3.59128e-08
-5.9873e-07
3.46352e-08
-6.0852e-07
3.33713e-08
-6.17946e-07
3.21232e-08
-6.27014e-07
3.08931e-08
-6.35728e-07
2.96828e-08
-6.44095e-07
2.84935e-08
-6.52121e-07
2.73264e-08
-6.59812e-07
2.61823e-08
-6.67174e-07
2.50619e-08
-6.74215e-07
2.39654e-08
-6.80941e-07
2.2893e-08
-6.87358e-07
2.18445e-08
-6.93474e-07
2.08195e-08
-6.99295e-07
1.98177e-08
-7.04827e-07
1.88384e-08
-7.10076e-07
1.78806e-08
-7.15048e-07
1.69434e-08
-7.19749e-07
1.60257e-08
-7.24183e-07
1.51261e-08
-7.28356e-07
1.42434e-08
-7.32271e-07
1.33759e-08
-7.35933e-07
1.25222e-08
-7.39345e-07
1.16805e-08
-7.4251e-07
1.0849e-08
-7.45429e-07
1.00259e-08
-7.48106e-07
9.20918e-09
-7.50541e-07
8.39696e-09
-7.52735e-07
7.58714e-09
-7.54688e-07
6.77762e-09
-7.564e-07
5.96628e-09
-7.57868e-07
5.15093e-09
-7.59092e-07
4.32937e-09
-7.60069e-07
3.49939e-09
-7.60796e-07
2.65876e-09
-7.61269e-07
1.80524e-09
-7.61484e-07
9.36606e-10
-7.61436e-07
5.06321e-11
-7.6112e-07
-8.54874e-10
-7.60528e-07
-1.78207e-09
-7.59656e-07
-2.73309e-09
-7.58494e-07
-3.70998e-09
-7.57035e-07
-4.71475e-09
-7.55272e-07
-5.74932e-09
-7.53194e-07
-6.81552e-09
-7.50792e-07
-7.91507e-09
-7.48057e-07
-9.04959e-09
-7.44979e-07
-1.02205e-08
-7.41546e-07
-1.14292e-08
-7.37747e-07
-1.26767e-08
-7.33572e-07
-1.39641e-08
-7.29009e-07
-1.5292e-08
-7.24047e-07
-1.6661e-08
-7.18674e-07
-1.80714e-08
-7.12878e-07
-1.9523e-08
-7.06648e-07
-2.10156e-08
-6.99974e-07
-2.25485e-08
-6.92843e-07
-2.41209e-08
-6.85246e-07
-2.57312e-08
-6.77173e-07
-2.73778e-08
-6.68614e-07
-2.90585e-08
-6.59561e-07
-3.07707e-08
-6.50006e-07
-3.25114e-08
-6.39943e-07
-3.42769e-08
-6.29366e-07
-3.60632e-08
-6.18271e-07
-3.78658e-08
-6.06655e-07
-3.96795e-08
-5.94518e-07
-4.14985e-08
-5.81861e-07
-4.33166e-08
-5.68686e-07
-4.5127e-08
-5.54997e-07
-4.69221e-08
-5.40804e-07
-4.86939e-08
-5.26114e-07
-5.04336e-08
-5.10941e-07
-5.21321e-08
-4.95299e-07
-5.37795e-08
-4.79208e-07
-5.53653e-08
-4.62687e-07
-5.68785e-08
-4.45762e-07
-5.83076e-08
-4.2846e-07
-5.96406e-08
-4.10812e-07
-6.0865e-08
-3.92854e-07
-6.19679e-08
-3.74624e-07
-6.2936e-08
-3.56164e-07
-6.37558e-08
-3.37521e-07
-6.44136e-08
-3.18744e-07
-6.48954e-08
-2.99887e-07
-6.51873e-08
-2.81009e-07
-6.52754e-08
-2.62169e-07
-6.5146e-08
-2.43432e-07
-6.47858e-08
-2.24868e-07
-6.41817e-08
-2.06546e-07
-6.33215e-08
-1.88542e-07
-6.21937e-08
-1.70932e-07
-6.0788e-08
-1.53794e-07
-5.90952e-08
-1.37209e-07
-5.7108e-08
-1.21258e-07
-5.48211e-08
-1.06022e-07
-5.22318e-08
-9.15822e-08
-4.93405e-08
-7.80158e-08
-4.61516e-08
-6.5398e-08
-4.26747e-08
-5.37986e-08
-3.89253e-08
-4.328e-08
-3.4927e-08
-3.38953e-08
-3.07136e-08
-2.5685e-08
-2.63318e-08
-1.86739e-08
-2.1845e-08
-1.28673e-08
-1.73379e-08
-8.24645e-09
-1.29229e-08
-4.76422e-09
-8.74829e-09
-2.33994e-09
-5.00756e-09
-8.54617e-10
-1.95046e-09
-1.45827e-10
1.03528e-10
7.17377e-10
-2.68839e-10
-4.27828e-10
-1.25598e-09
7.29692e-10
-3.11217e-09
3.32988e-09
-5.9557e-09
6.95058e-09
-9.87404e-09
1.12748e-08
-1.49258e-08
1.60495e-08
-2.11436e-08
2.1074e-08
-2.85367e-08
2.61921e-08
-3.70949e-08
3.12828e-08
-4.67912e-08
3.62534e-08
-5.75849e-08
4.1034e-08
-6.94243e-08
4.55727e-08
-8.22494e-08
4.98321e-08
-9.59935e-08
5.37862e-08
-1.10586e-07
5.74182e-08
-1.25952e-07
6.07185e-08
-1.42017e-07
6.36836e-08
-1.58704e-07
6.63143e-08
-1.75937e-07
6.86153e-08
-1.93642e-07
7.05942e-08
-2.11746e-07
7.22607e-08
-2.30178e-07
7.36266e-08
-2.4887e-07
7.47049e-08
-2.67756e-07
7.55094e-08
-2.86775e-07
7.60551e-08
-3.05868e-07
7.63571e-08
-3.24981e-07
7.64308e-08
-3.4406e-07
7.62918e-08
-3.6306e-07
7.59556e-08
-3.81934e-07
7.54376e-08
-4.00642e-07
7.47528e-08
-4.19146e-07
7.3916e-08
-4.37413e-07
7.29413e-08
-4.55411e-07
7.18426e-08
-4.73113e-07
7.06331e-08
-4.90495e-07
6.93254e-08
-5.07534e-07
6.79317e-08
-5.24212e-07
6.64633e-08
-5.40513e-07
6.4931e-08
-5.56422e-07
6.33451e-08
-5.71928e-07
6.17149e-08
-5.87023e-07
6.00494e-08
-6.01698e-07
5.83568e-08
-6.15948e-07
5.66447e-08
-6.2977e-07
5.49201e-08
-6.43162e-07
5.31893e-08
-6.56123e-07
5.14582e-08
-6.68654e-07
4.9732e-08
-6.80757e-07
4.80153e-08
-6.92434e-07
4.63124e-08
-7.0369e-07
4.4627e-08
-7.14529e-07
4.29621e-08
-7.24956e-07
4.13207e-08
-7.34978e-07
3.97048e-08
-7.44601e-07
3.81166e-08
-7.53832e-07
3.65573e-08
-7.62678e-07
3.50283e-08
-7.71146e-07
3.35302e-08
-7.79245e-07
3.20636e-08
-7.8698e-07
3.06286e-08
-7.94361e-07
2.92251e-08
-8.01394e-07
2.78526e-08
-8.08087e-07
2.65105e-08
-8.14446e-07
2.5198e-08
-8.2048e-07
2.39139e-08
-8.26193e-07
2.2657e-08
-8.31593e-07
2.14257e-08
-8.36686e-07
2.02184e-08
-8.41475e-07
1.90332e-08
-8.45968e-07
1.78682e-08
-8.50167e-07
1.67213e-08
-8.54077e-07
1.55902e-08
-8.577e-07
1.44726e-08
-8.6104e-07
1.3366e-08
-8.64099e-07
1.22679e-08
-8.66878e-07
1.11757e-08
-8.69377e-07
1.00866e-08
-8.71598e-07
8.9978e-09
-8.73538e-07
7.90658e-09
-8.75197e-07
6.81004e-09
-8.76573e-07
5.70526e-09
-8.77663e-07
4.58932e-09
-8.78463e-07
3.45926e-09
-8.7897e-07
2.31214e-09
-8.79179e-07
1.14502e-09
-8.79083e-07
-4.50242e-11
-8.78677e-07
-1.26089e-09
-8.77954e-07
-2.50543e-09
-8.76905e-07
-3.78143e-09
-8.75524e-07
-5.0916e-09
-8.738e-07
-6.43857e-09
-8.71724e-07
-7.82487e-09
-8.69287e-07
-9.2529e-09
-8.66477e-07
-1.07249e-08
-8.63284e-07
-1.2243e-08
-8.59695e-07
-1.38091e-08
-8.55699e-07
-1.54249e-08
-8.51284e-07
-1.70918e-08
-8.46437e-07
-1.88111e-08
-8.41146e-07
-2.05838e-08
-8.35396e-07
-2.24105e-08
-8.29176e-07
-2.42914e-08
-8.22473e-07
-2.62265e-08
-8.15273e-07
-2.82153e-08
-8.07564e-07
-3.0257e-08
-7.99335e-07
-3.23503e-08
-7.90573e-07
-3.44932e-08
-7.81267e-07
-3.66834e-08
-7.71408e-07
-3.89181e-08
-7.60985e-07
-4.11938e-08
-7.4999e-07
-4.35063e-08
-7.38416e-07
-4.58509e-08
-7.26257e-07
-4.82223e-08
-7.13508e-07
-5.06142e-08
-7.00168e-07
-5.302e-08
-6.86234e-07
-5.54319e-08
-6.71709e-07
-5.78418e-08
-6.56596e-07
-6.02405e-08
-6.409e-07
-6.2618e-08
-6.2463e-07
-6.49638e-08
-6.07797e-07
-6.72664e-08
-5.90416e-07
-6.95136e-08
-5.72503e-07
-7.16922e-08
-5.54079e-07
-7.37887e-08
-5.3517e-07
-7.57884e-08
-5.15801e-07
-7.76762e-08
-4.96005e-07
-7.94364e-08
-4.75818e-07
-8.10525e-08
-4.55278e-07
-8.25075e-08
-4.3443e-07
-8.37843e-08
-4.13321e-07
-8.48649e-08
-3.92003e-07
-8.57315e-08
-3.70532e-07
-8.6366e-08
-3.48969e-07
-8.67501e-08
-3.27379e-07
-8.68658e-08
-3.05829e-07
-8.66955e-08
-2.84393e-07
-8.62218e-08
-2.63147e-07
-8.54281e-08
-2.4217e-07
-8.42988e-08
-2.21544e-07
-8.28193e-08
-2.01355e-07
-8.09766e-08
-1.81691e-07
-7.87596e-08
-1.6264e-07
-7.61594e-08
-1.44291e-07
-7.317e-08
-1.26734e-07
-6.97887e-08
-1.10057e-07
-6.60174e-08
-9.43456e-08
-6.18629e-08
-7.96819e-08
-5.73384e-08
-6.61416e-08
-5.24655e-08
-5.37933e-08
-4.72754e-08
-4.26952e-08
-4.18117e-08
-3.28932e-08
-3.61339e-08
-2.44173e-08
-3.03208e-08
-1.72791e-08
-2.44761e-08
-1.14678e-08
-1.87343e-08
-6.94722e-09
-1.32689e-08
-3.65256e-09
-8.30222e-09
-1.48785e-09
-4.11517e-09
-3.2434e-10
-1.05999e-09
3.93036e-10
-4.29747e-10
1.92012e-12
-1.83531e-09
2.13525e-09
-4.3213e-09
5.81587e-09
-7.97283e-09
1.06021e-08
-1.2853e-08
1.61549e-08
-1.90022e-08
2.21988e-08
-2.64398e-08
2.85116e-08
-3.51649e-08
3.49172e-08
-4.51592e-08
4.12771e-08
-5.6389e-08
4.74833e-08
-6.8808e-08
5.34529e-08
-8.2359e-08
5.91237e-08
-9.69766e-08
6.44497e-08
-1.12589e-07
6.93984e-08
-1.29119e-07
7.39484e-08
-1.46488e-07
7.80871e-08
-1.64613e-07
8.18088e-08
-1.83412e-07
8.51138e-08
-2.02804e-07
8.80071e-08
-2.22707e-07
9.04972e-08
-2.43042e-07
9.25957e-08
-2.63732e-07
9.43166e-08
-2.84703e-07
9.56755e-08
-3.05883e-07
9.66897e-08
-3.27205e-07
9.73771e-08
-3.48604e-07
9.77565e-08
-3.70021e-07
9.78472e-08
-3.91397e-07
9.76684e-08
-4.12681e-07
9.72396e-08
-4.33823e-07
9.65798e-08
-4.54779e-07
9.57081e-08
-4.75506e-07
9.46429e-08
-4.95966e-07
9.34021e-08
-5.16127e-07
9.20031e-08
-5.35956e-07
9.04627e-08
-5.55428e-07
8.87968e-08
-5.74517e-07
8.70207e-08
-5.93202e-07
8.51488e-08
-6.11466e-07
8.3195e-08
-6.29293e-07
8.11721e-08
-6.46671e-07
7.90921e-08
-6.63588e-07
7.69664e-08
-6.80036e-07
7.48054e-08
-6.9601e-07
7.26188e-08
-7.11506e-07
7.04155e-08
-7.2652e-07
6.82037e-08
-7.41053e-07
6.59908e-08
-7.55104e-07