/*--------------------------------*- C++ -*----------------------------------*\
  =========                 |
  \\      /  F ield         | OpenFOAM: The Open Source CFD Toolbox
   \\    /   O peration     | Website:  https://openfoam.org
    \\  /    A nd           | Version:  7
     \\/     M anipulation  |
\*---------------------------------------------------------------------------*/
FoamFile
{
    version     2.0;
    format      ascii;
    class       volVectorField;
    location    "0.5";
    object      U;
}
// * * * * * * * * * * * * * * * * * * * * * * * * * * * * * * * * * * * * * //

dimensions      [0 1 -1 0 0 0 0];

internalField   nonuniform List<vector> 
12800
(
(8.3399e-06 -8.3098e-06 0)
(3.71143e-05 -1.85295e-05 0)
(7.85609e-05 -1.97117e-05 0)
(0.000113278 -1.5356e-05 0)
(0.000130028 -8.31372e-06 0)
(0.000123919 -1.40399e-07 0)
(9.28062e-05 8.34299e-06 0)
(3.60747e-05 1.66962e-05 0)
(-4.59186e-05 2.46865e-05 0)
(-0.000152226 3.2194e-05 0)
(-0.000281549 3.91594e-05 0)
(-0.00043238 4.55575e-05 0)
(-0.000603097 5.1383e-05 0)
(-0.000792022 5.66424e-05 0)
(-0.000997465 6.13499e-05 0)
(-0.00121775 6.5524e-05 0)
(-0.00145123 6.91864e-05 0)
(-0.00169631 7.23608e-05 0)
(-0.00195147 7.50719e-05 0)
(-0.00221522 7.7345e-05 0)
(-0.00248618 7.92056e-05 0)
(-0.00276301 8.06793e-05 0)
(-0.00304447 8.17915e-05 0)
(-0.00332937 8.25669e-05 0)
(-0.00361663 8.303e-05 0)
(-0.00390522 8.32045e-05 0)
(-0.00419419 8.31135e-05 0)
(-0.00448267 8.27793e-05 0)
(-0.00476985 8.22232e-05 0)
(-0.00505501 8.1466e-05 0)
(-0.00533746 8.05272e-05 0)
(-0.0056166 7.94256e-05 0)
(-0.0058919 7.81792e-05 0)
(-0.00616287 7.68048e-05 0)
(-0.00642908 7.53184e-05 0)
(-0.00669015 7.37351e-05 0)
(-0.00694575 7.20689e-05 0)
(-0.00719561 7.03331e-05 0)
(-0.00743949 6.85399e-05 0)
(-0.00767719 6.67008e-05 0)
(-0.00790856 6.48263e-05 0)
(-0.00813348 6.29261e-05 0)
(-0.00835185 6.10092e-05 0)
(-0.00856363 5.90837e-05 0)
(-0.00876876 5.71569e-05 0)
(-0.00896726 5.52357e-05 0)
(-0.00915913 5.33259e-05 0)
(-0.0093444 5.14328e-05 0)
(-0.00952315 4.95612e-05 0)
(-0.00969542 4.77151e-05 0)
(-0.00986131 4.5898e-05 0)
(-0.0100209 4.41132e-05 0)
(-0.0101743 4.2363e-05 0)
(-0.0103217 4.06495e-05 0)
(-0.0104631 3.89742e-05 0)
(-0.0105986 3.73382e-05 0)
(-0.0107285 3.57425e-05 0)
(-0.0108528 3.41874e-05 0)
(-0.0109717 3.26731e-05 0)
(-0.0110854 3.11994e-05 0)
(-0.0111938 2.97656e-05 0)
(-0.0112972 2.83709e-05 0)
(-0.0113957 2.70142e-05 0)
(-0.0114895 2.56942e-05 0)
(-0.0115786 2.44096e-05 0)
(-0.0116632 2.31586e-05 0)
(-0.0117433 2.19393e-05 0)
(-0.0118191 2.07493e-05 0)
(-0.0118907 1.95865e-05 0)
(-0.0119581 1.84486e-05 0)
(-0.0120215 1.73329e-05 0)
(-0.0120809 1.6237e-05 0)
(-0.0121363 1.51579e-05 0)
(-0.0121879 1.40927e-05 0)
(-0.0122356 1.30383e-05 0)
(-0.0122795 1.19917e-05 0)
(-0.0123196 1.09497e-05 0)
(-0.012356 9.90914e-06 0)
(-0.0123886 8.86671e-06 0)
(-0.0124173 7.81898e-06 0)
(-0.0124423 6.76248e-06 0)
(-0.0124634 5.69372e-06 0)
(-0.0124805 4.60924e-06 0)
(-0.0124938 3.5056e-06 0)
(-0.0125029 2.37932e-06 0)
(-0.012508 1.22686e-06 0)
(-0.0125088 4.468e-08 0)
(-0.0125053 -1.17073e-06 0)
(-0.0124974 -2.4228e-06 0)
(-0.0124849 -3.71487e-06 0)
(-0.0124676 -5.05021e-06 0)
(-0.0124455 -6.43203e-06 0)
(-0.0124184 -7.86344e-06 0)
(-0.012386 -9.34745e-06 0)
(-0.0123483 -1.08869e-05 0)
(-0.0123049 -1.24844e-05 0)
(-0.0122558 -1.41424e-05 0)
(-0.0122007 -1.58631e-05 0)
(-0.0121394 -1.76484e-05 0)
(-0.0120717 -1.95001e-05 0)
(-0.0119973 -2.14194e-05 0)
(-0.011916 -2.34074e-05 0)
(-0.0118276 -2.54647e-05 0)
(-0.0117319 -2.75914e-05 0)
(-0.0116286 -2.97873e-05 0)
(-0.0115176 -3.20514e-05 0)
(-0.0113985 -3.43826e-05 0)
(-0.0112712 -3.67787e-05 0)
(-0.0111354 -3.92374e-05 0)
(-0.010991 -4.17552e-05 0)
(-0.0108378 -4.43282e-05 0)
(-0.0106756 -4.69517e-05 0)
(-0.0105043 -4.96202e-05 0)
(-0.0103238 -5.23272e-05 0)
(-0.0101338 -5.50655e-05 0)
(-0.00993447 -5.7827e-05 0)
(-0.00972563 -6.06024e-05 0)
(-0.00950729 -6.33817e-05 0)
(-0.00927949 -6.61538e-05 0)
(-0.00904228 -6.89065e-05 0)
(-0.00879577 -7.16267e-05 0)
(-0.00854013 -7.43001e-05 0)
(-0.00827556 -7.69116e-05 0)
(-0.00800231 -7.94447e-05 0)
(-0.0077207 -8.18822e-05 0)
(-0.00743112 -8.42056e-05 0)
(-0.007134 -8.63958e-05 0)
(-0.00682985 -8.84323e-05 0)
(-0.00651925 -9.0294e-05 0)
(-0.00620285 -9.19588e-05 0)
(-0.00588137 -9.3404e-05 0)
(-0.00555561 -9.4606e-05 0)
(-0.00522646 -9.55406e-05 0)
(-0.00489488 -9.6183e-05 0)
(-0.0045619 -9.65082e-05 0)
(-0.00422866 -9.64904e-05 0)
(-0.00389635 -9.61038e-05 0)
(-0.00356628 -9.53224e-05 0)
(-0.0032398 -9.41201e-05 0)
(-0.00291837 -9.24709e-05 0)
(-0.00260353 -9.0349e-05 0)
(-0.00229687 -8.77291e-05 0)
(-0.00200007 -8.45862e-05 0)
(-0.00171488 -8.08962e-05 0)
(-0.0014431 -7.66361e-05 0)
(-0.00118659 -7.17842e-05 0)
(-0.000947237 -6.63213e-05 0)
(-0.00072696 -6.02313e-05 0)
(-0.000527682 -5.35026e-05 0)
(-0.000351298 -4.61313e-05 0)
(-0.00019963 -3.81254e-05 0)
(-7.43696e-05 -2.95133e-05 0)
(2.30253e-05 -2.03588e-05 0)
(9.1481e-05 -1.07907e-05 0)
(0.000130568 -1.05939e-06 0)
(0.00014092 8.35592e-06 0)
(0.000124853 1.65515e-05 0)
(8.77303e-05 2.17945e-05 0)
(4.20492e-05 2.08639e-05 0)
(9.63469e-06 9.63297e-06 0)
(1.8565e-05 -3.70711e-05 0)
(7.03868e-05 -7.02931e-05 0)
(0.000132101 -6.77636e-05 0)
(0.000170219 -4.20985e-05 0)
(0.000163454 -3.16156e-06 0)
(0.000100371 4.27119e-05 0)
(-2.52969e-05 9.15525e-05 0)
(-0.000216289 0.000140878 0)
(-0.000472815 0.000189142 0)
(-0.000793373 0.000235384 0)
(-0.00117532 0.00027901 0)
(-0.00161526 0.000319667 0)
(-0.00210932 0.000357159 0)
(-0.00265336 0.000391394 0)
(-0.00324305 0.000422357 0)
(-0.00387405 0.000450081 0)
(-0.00454202 0.00047464 0)
(-0.00524269 0.000496129 0)
(-0.00597193 0.000514665 0)
(-0.00672571 0.000530377 0)
(-0.00750021 0.000543403 0)
(-0.00829175 0.000553886 0)
(-0.00909686 0.000561972 0)
(-0.00991225 0.000567811 0)
(-0.0107348 0.000571551 0)
(-0.0115617 0.000573338 0)
(-0.0123903 0.000573317 0)
(-0.0132179 0.000571629 0)
(-0.0140424 0.000568413 0)
(-0.0148617 0.000563801 0)
(-0.0156737 0.000557923 0)
(-0.0164768 0.000550902 0)
(-0.0172693 0.000542856 0)
(-0.01805 0.000533899 0)
(-0.0188174 0.000524137 0)
(-0.0195705 0.000513672 0)
(-0.0203084 0.0005026 0)
(-0.0210302 0.00049101 0)
(-0.0217351 0.000478987 0)
(-0.0224227 0.000466609 0)
(-0.0230923 0.000453949 0)
(-0.0237437 0.000441075 0)
(-0.0243765 0.000428049 0)
(-0.0249905 0.000414927 0)
(-0.0255856 0.000401762 0)
(-0.0261618 0.0003886 0)
(-0.0267191 0.000375485 0)
(-0.0272574 0.000362454 0)
(-0.0277771 0.000349542 0)
(-0.0282782 0.000336777 0)
(-0.0287609 0.000324186 0)
(-0.0292256 0.00031179 0)
(-0.0296724 0.00029961 0)
(-0.0301017 0.000287659 0)
(-0.0305138 0.000275951 0)
(-0.0309091 0.000264495 0)
(-0.0312879 0.000253297 0)
(-0.0316505 0.000242362 0)
(-0.0319974 0.000231692 0)
(-0.0323289 0.000221286 0)
(-0.0326453 0.000211141 0)
(-0.0329472 0.000201253 0)
(-0.0332347 0.000191615 0)
(-0.0335083 0.000182219 0)
(-0.0337682 0.000173056 0)
(-0.0340149 0.000164115 0)
(-0.0342485 0.000155383 0)
(-0.0344695 0.000146846 0)
(-0.034678 0.000138489 0)
(-0.0348743 0.000130296 0)
(-0.0350587 0.000122251 0)
(-0.0352313 0.000114335 0)
(-0.0353922 0.00010653 0)
(-0.0355417 9.88157e-05 0)
(-0.0356798 9.11723e-05 0)
(-0.0358067 8.35788e-05 0)
(-0.0359224 7.60137e-05 0)
(-0.0360268 6.84553e-05 0)
(-0.0361201 6.08814e-05 0)
(-0.0362021 5.3269e-05 0)
(-0.0362728 4.55951e-05 0)
(-0.036332 3.78363e-05 0)
(-0.0363798 2.9969e-05 0)
(-0.0364157 2.197e-05 0)
(-0.0364398 1.38156e-05 0)
(-0.0364516 5.48247e-06 0)
(-0.036451 -3.05291e-06 0)
(-0.0364377 -1.18137e-05 0)
(-0.0364112 -2.08227e-05 0)
(-0.0363713 -3.01022e-05 0)
(-0.0363175 -3.96739e-05 0)
(-0.0362494 -4.95587e-05 0)
(-0.0361666 -5.97769e-05 0)
(-0.0360685 -7.03477e-05 0)
(-0.0359546 -8.12895e-05 0)
(-0.0358244 -9.26188e-05 0)
(-0.0356774 -0.000104351 0)
(-0.0355129 -0.0001165 0)
(-0.0353303 -0.000129078 0)
(-0.0351291 -0.000142094 0)
(-0.0349086 -0.000155556 0)
(-0.0346682 -0.000169469 0)
(-0.0344073 -0.000183835 0)
(-0.0341252 -0.000198653 0)
(-0.0338212 -0.000213921 0)
(-0.0334948 -0.000229629 0)
(-0.0331454 -0.000245767 0)
(-0.0327723 -0.00026232 0)
(-0.0323751 -0.000279268 0)
(-0.0319531 -0.000296586 0)
(-0.0315059 -0.000314247 0)
(-0.0310331 -0.000332215 0)
(-0.0305342 -0.000350451 0)
(-0.030009 -0.000368909 0)
(-0.0294571 -0.00038754 0)
(-0.0288785 -0.000406284 0)
(-0.028273 -0.00042508 0)
(-0.0276406 -0.000443857 0)
(-0.0269814 -0.000462539 0)
(-0.0262957 -0.000481042 0)
(-0.0255839 -0.000499277 0)
(-0.0248463 -0.000517147 0)
(-0.0240836 -0.000534549 0)
(-0.0232967 -0.000551372 0)
(-0.0224865 -0.000567501 0)
(-0.021654 -0.000582812 0)
(-0.0208005 -0.000597176 0)
(-0.0199276 -0.000610459 0)
(-0.0190369 -0.00062252 0)
(-0.0181303 -0.000633214 0)
(-0.0172098 -0.000642392 0)
(-0.0162778 -0.000649901 0)
(-0.0153368 -0.000655582 0)
(-0.0143894 -0.000659278 0)
(-0.0134387 -0.000660827 0)
(-0.0124879 -0.000660067 0)
(-0.0115402 -0.000656836 0)
(-0.0105994 -0.000650974 0)
(-0.00966925 -0.000642322 0)
(-0.00875381 -0.000630727 0)
(-0.00785733 -0.000616038 0)
(-0.00698423 -0.000598115 0)
(-0.00613911 -0.000576825 0)
(-0.00532672 -0.000552049 0)
(-0.00455193 -0.000523685 0)
(-0.00381971 -0.00049165 0)
(-0.00313508 -0.000455894 0)
(-0.00250302 -0.000416404 0)
(-0.00192845 -0.000373224 0)
(-0.00141608 -0.000326474 0)
(-0.000970282 -0.000276386 0)
(-0.00059487 -0.00022336 0)
(-0.000292828 -0.000168051 0)
(-6.58741e-05 -0.000111515 0)
(8.61682e-05 -5.54457e-05 0)
(0.000166269 -2.57786e-06 0)
(0.000181318 4.26856e-05 0)
(0.000143982 7.32536e-05 0)
(7.79853e-05 7.79514e-05 0)
(2.08645e-05 4.20348e-05 0)
(1.98129e-05 -7.86301e-05 0)
(6.81347e-05 -0.000132105 0)
(0.000111251 -0.000110692 0)
(0.000110459 -3.94797e-05 0)
(4.04953e-05 6.29488e-05 0)
(-0.000113501 0.000183372 0)
(-0.000360428 0.000312644 0)
(-0.000704686 0.000444554 0)
(-0.00114722 0.000574922 0)
(-0.00168647 0.000700954 0)
(-0.0023191 0.000820801 0)
(-0.00304052 0.000933266 0)
(-0.00384531 0.00103761 0)
(-0.00472747 0.00113342 0)
(-0.0056807 0.0012205 0)
(-0.0066985 0.00129884 0)
(-0.00777437 0.00136855 0)
(-0.00890181 0.00142982 0)
(-0.0100745 0.00148291 0)
(-0.0112862 0.00152813 0)
(-0.012531 0.00156583 0)
(-0.0138032 0.00159637 0)
(-0.0150974 0.00162015 0)
(-0.0164083 0.00163755 0)
(-0.0177311 0.00164898 0)
(-0.0190613 0.00165483 0)
(-0.0203945 0.00165551 0)
(-0.0217268 0.0016514 0)
(-0.0230546 0.00164288 0)
(-0.0243745 0.00163034 0)
(-0.0256832 0.00161413 0)
(-0.0269782 0.0015946 0)
(-0.0282567 0.00157208 0)
(-0.0295166 0.0015469 0)
(-0.0307557 0.00151935 0)
(-0.0319722 0.00148973 0)
(-0.0331646 0.00145832 0)
(-0.0343315 0.00142536 0)
(-0.0354717 0.0013911 0)
(-0.0365842 0.00135577 0)
(-0.0376682 0.00131958 0)
(-0.0387231 0.00128272 0)
(-0.0397483 0.00124537 0)
(-0.0407435 0.00120771 0)
(-0.0417085 0.00116986 0)
(-0.042643 0.00113199 0)
(-0.0435472 0.0010942 0)
(-0.0444211 0.00105662 0)
(-0.0452649 0.00101934 0)
(-0.0460788 0.000982448 0)
(-0.0468632 0.000946021 0)
(-0.0476183 0.000910125 0)
(-0.0483447 0.000874816 0)
(-0.0490428 0.00084014 0)
(-0.0497131 0.000806135 0)
(-0.0503561 0.000772831 0)
(-0.0509724 0.000740247 0)
(-0.0515625 0.000708398 0)
(-0.0521271 0.00067729 0)
(-0.0526666 0.000646923 0)
(-0.0531817 0.000617291 0)
(-0.053673 0.000588383 0)
(-0.054141 0.00056018 0)
(-0.0545862 0.000532661 0)
(-0.0550093 0.0005058 0)
(-0.0554106 0.000479564 0)
(-0.0557906 0.000453919 0)
(-0.0561499 0.000428827 0)
(-0.0564888 0.000404244 0)
(-0.0568078 0.000380126 0)
(-0.057107 0.000356424 0)
(-0.057387 0.000333088 0)
(-0.0576479 0.000310063 0)
(-0.05789 0.000287295 0)
(-0.0581134 0.000264726 0)
(-0.0583182 0.000242295 0)
(-0.0585047 0.000219943 0)
(-0.0586727 0.000197605 0)
(-0.0588222 0.00017522 0)
(-0.0589533 0.000152721 0)
(-0.0590658 0.000130043 0)
(-0.0591595 0.00010712 0)
(-0.0592341 8.3884e-05 0)
(-0.0592895 6.02688e-05 0)
(-0.0593253 3.6207e-05 0)
(-0.0593411 1.16321e-05 0)
(-0.0593364 -1.35224e-05 0)
(-0.0593108 -3.93219e-05 0)
(-0.0592638 -6.5831e-05 0)
(-0.0591947 -9.31128e-05 0)
(-0.0591029 -0.000121229 0)
(-0.0589877 -0.000150237 0)
(-0.0588484 -0.000180196 0)
(-0.0586842 -0.000211158 0)
(-0.0584944 -0.000243174 0)
(-0.058278 -0.000276292 0)
(-0.0580341 -0.000310552 0)
(-0.057762 -0.000345993 0)
(-0.0574605 -0.000382646 0)
(-0.0571288 -0.000420538 0)
(-0.0567658 -0.000459688 0)
(-0.0563706 -0.000500108 0)
(-0.0559422 -0.000541803 0)
(-0.0554796 -0.000584767 0)
(-0.0549817 -0.000628988 0)
(-0.0544477 -0.00067444 0)
(-0.0538766 -0.000721089 0)
(-0.0532675 -0.000768889 0)
(-0.0526195 -0.000817781 0)
(-0.0519318 -0.000867692 0)
(-0.0512036 -0.000918537 0)
(-0.0504344 -0.000970215 0)
(-0.0496235 -0.00102261 0)
(-0.0487704 -0.00107559 0)
(-0.0478748 -0.00112901 0)
(-0.0469364 -0.0011827 0)
(-0.0459552 -0.00123647 0)
(-0.0449312 -0.00129013 0)
(-0.0438646 -0.00134346 0)
(-0.0427558 -0.00139621 0)
(-0.0416055 -0.00144814 0)
(-0.0404144 -0.00149895 0)
(-0.0391836 -0.00154836 0)
(-0.0379145 -0.00159606 0)
(-0.0366085 -0.0016417 0)
(-0.0352674 -0.00168495 0)
(-0.0338934 -0.00172543 0)
(-0.0324888 -0.00176277 0)
(-0.0310564 -0.00179657 0)
(-0.0295992 -0.00182642 0)
(-0.0281204 -0.0018519 0)
(-0.0266238 -0.00187257 0)
(-0.0251134 -0.00188801 0)
(-0.0235934 -0.00189776 0)
(-0.0220687 -0.00190139 0)
(-0.0205442 -0.00189843 0)
(-0.0190253 -0.00188846 0)
(-0.0175177 -0.00187103 0)
(-0.0160274 -0.00184572 0)
(-0.0145608 -0.00181211 0)
(-0.0131245 -0.00176982 0)
(-0.0117253 -0.00171849 0)
(-0.0103704 -0.00165778 0)
(-0.0090672 -0.00158742 0)
(-0.00782305 -0.00150718 0)
(-0.00664554 -0.00141692 0)
(-0.00554222 -0.0013166 0)
(-0.00452054 -0.00120631 0)
(-0.00358772 -0.00108631 0)
(-0.00275055 -0.000957135 0)
(-0.00201518 -0.000819639 0)
(-0.00138679 -0.000675176 0)
(-0.000869138 -0.000525806 0)
(-0.000464023 -0.000374618 0)
(-0.000170447 -0.000226226 0)
(1.64249e-05 -8.75039e-05 0)
(0.000106435 3.13662e-05 0)
(0.000116108 0.000115558 0)
(7.35546e-05 0.000144019 0)
(2.18495e-05 8.77597e-05 0)
(1.5585e-05 -0.00011368 0)
(4.29415e-05 -0.000170698 0)
(4.09277e-05 -0.000110106 0)
(-2.80782e-05 2.96996e-05 0)
(-0.000189778 0.000221178 0)
(-0.000460364 0.000443892 0)
(-0.000849909 0.000682969 0)
(-0.00136365 0.000927816 0)
(-0.00200295 0.00117096 0)
(-0.00276622 0.00140718 0)
(-0.00364969 0.00163286 0)
(-0.00464794 0.00184556 0)
(-0.00575441 0.0020437 0)
(-0.00696175 0.00222628 0)
(-0.00826208 0.00239281 0)
(-0.00964724 0.0025431 0)
(-0.0111089 0.00267723 0)
(-0.0126388 0.00279548 0)
(-0.0142287 0.00289825 0)
(-0.0158706 0.00298607 0)
(-0.0175567 0.00305954 0)
(-0.0192796 0.00311932 0)
(-0.0210319 0.0031661 0)
(-0.0228071 0.00320061 0)
(-0.0245985 0.00322358 0)
(-0.0264001 0.00323578 0)
(-0.0282062 0.00323793 0)
(-0.0300115 0.00323079 0)
(-0.0318111 0.00321507 0)
(-0.0336005 0.00319148 0)
(-0.0353754 0.00316073 0)
(-0.0371321 0.00312346 0)
(-0.0388671 0.00308033 0)
(-0.0405773 0.00303195 0)
(-0.0422599 0.00297891 0)
(-0.0439125 0.00292178 0)
(-0.0455328 0.00286107 0)
(-0.047119 0.00279729 0)
(-0.0486695 0.00273091 0)
(-0.0501828 0.00266238 0)
(-0.0516579 0.00259209 0)
(-0.0530937 0.00252043 0)
(-0.0544897 0.00244776 0)
(-0.0558452 0.0023744 0)
(-0.0571599 0.00230064 0)
(-0.0584337 0.00222675 0)
(-0.0596664 0.00215299 0)
(-0.0608582 0.00207956 0)
(-0.0620091 0.00200667 0)
(-0.0631197 0.00193449 0)
(-0.0641901 0.00186316 0)
(-0.065221 0.00179283 0)
(-0.0662128 0.0017236 0)
(-0.0671661 0.00165557 0)
(-0.0680817 0.00158881 0)
(-0.0689601 0.00152338 0)
(-0.0698021 0.00145933 0)
(-0.0706085 0.00139667 0)
(-0.07138 0.00133544 0)
(-0.0721174 0.00127562 0)
(-0.0728214 0.00121721 0)
(-0.0734928 0.0011602 0)
(-0.0741324 0.00110453 0)
(-0.0747407 0.00105019 0)
(-0.0753187 0.000997105 0)
(-0.0758668 0.000945227 0)
(-0.0763859 0.000894486 0)
(-0.0768763 0.000844808 0)
(-0.0773388 0.000796113 0)
(-0.0777738 0.000748311 0)
(-0.0781818 0.000701311 0)
(-0.0785632 0.000655014 0)
(-0.0789183 0.000609316 0)
(-0.0792475 0.000564111 0)
(-0.0795509 0.000519285 0)
(-0.0798288 0.000474725 0)
(-0.0800813 0.000430311 0)
(-0.0803083 0.000385922 0)
(-0.0805099 0.000341435 0)
(-0.080686 0.000296723 0)
(-0.0808364 0.000251661 0)
(-0.080961 0.000206118 0)
(-0.0810593 0.000159966 0)
(-0.081131 0.000113075 0)
(-0.0811757 6.53157e-05 0)
(-0.0811928 1.65581e-05 0)
(-0.0811818 -3.3325e-05 0)
(-0.081142 -8.44601e-05 0)
(-0.0810728 -0.000136971 0)
(-0.0809732 -0.00019098 0)
(-0.0808425 -0.000246604 0)
(-0.0806797 -0.000303956 0)
(-0.080484 -0.000363146 0)
(-0.0802541 -0.000424275 0)
(-0.0799891 -0.000487441 0)
(-0.0796878 -0.00055273 0)
(-0.079349 -0.000620225 0)
(-0.0789716 -0.000689994 0)
(-0.0785542 -0.000762097 0)
(-0.0780957 -0.000836582 0)
(-0.0775946 -0.000913484 0)
(-0.0770497 -0.000992823 0)
(-0.0764597 -0.0010746 0)
(-0.0758232 -0.00115882 0)
(-0.075139 -0.00124543 0)
(-0.0744058 -0.00133439 0)
(-0.0736224 -0.00142563 0)
(-0.0727875 -0.00151905 0)
(-0.0719001 -0.00161454 0)
(-0.0709591 -0.00171195 0)
(-0.0699635 -0.00181112 0)
(-0.0689126 -0.00191183 0)
(-0.0678054 -0.00201388 0)
(-0.0666416 -0.00211699 0)
(-0.0654205 -0.00222087 0)
(-0.064142 -0.0023252 0)
(-0.062806 -0.00242963 0)
(-0.0614125 -0.00253375 0)
(-0.059962 -0.00263714 0)
(-0.058455 -0.00273933 0)
(-0.0568925 -0.00283983 0)
(-0.0552754 -0.0029381 0)
(-0.0536054 -0.00303356 0)
(-0.0518842 -0.00312561 0)
(-0.0501139 -0.0032136 0)
(-0.048297 -0.00329687 0)
(-0.0464363 -0.0033747 0)
(-0.044535 -0.00344637 0)
(-0.0425969 -0.00351111 0)
(-0.040626 -0.00356814 0)
(-0.0386267 -0.00361666 0)
(-0.036604 -0.00365583 0)
(-0.0345632 -0.00368483 0)
(-0.0325102 -0.00370281 0)
(-0.0304513 -0.00370893 0)
(-0.028393 -0.00370234 0)
(-0.0263426 -0.00368222 0)
(-0.0243076 -0.00364774 0)
(-0.0222959 -0.00359812 0)
(-0.020316 -0.00353261 0)
(-0.0183765 -0.0034505 0)
(-0.0164864 -0.00335115 0)
(-0.014655 -0.00323399 0)
(-0.0128919 -0.00309857 0)
(-0.0112067 -0.00294455 0)
(-0.0096091 -0.00277177 0)
(-0.00810867 -0.00258028 0)
(-0.00671484 -0.0023704 0)
(-0.00543664 -0.00214282 0)
(-0.00428242 -0.00189874 0)
(-0.00325963 -0.00164002 0)
(-0.00237437 -0.00136941 0)
(-0.00163092 -0.00109095 0)
(-0.00103108 -0.000810444 0)
(-0.000573374 -0.00053617 0)
(-0.000252019 -0.000279878 0)
(-5.58328e-05 -5.81348e-05 0)
(3.32061e-05 0.000106158 0)
(4.3575e-05 0.000181889 0)
(1.67379e-05 0.000125154 0)
(8.69893e-06 -0.000131064 0)
(4.50399e-06 -0.000164848 0)
(-6.07223e-05 -4.07345e-05 0)
(-0.000218702 0.000191232 0)
(-0.00049294 0.0004952 0)
(-0.000899422 0.000843917 0)
(-0.00144821 0.00121692 0)
(-0.00214456 0.00159915 0)
(-0.0029898 0.00197958 0)
(-0.00398214 0.00235028 0)
(-0.00511735 0.00270556 0)
(-0.00638935 0.00304146 0)
(-0.00779071 0.00335529 0)
(-0.00931298 0.00364531 0)
(-0.0109471 0.00391053 0)
(-0.0126834 0.0041505 0)
(-0.0145122 0.00436519 0)
(-0.0164237 0.00455491 0)
(-0.0184082 0.00472019 0)
(-0.020456 0.00486178 0)
(-0.0225578 0.00498055 0)
(-0.0247046 0.00507747 0)
(-0.0268876 0.00515361 0)
(-0.0290987 0.00521008 0)
(-0.03133 0.00524803 0)
(-0.033574 0.00526861 0)
(-0.0358238 0.005273 0)
(-0.0380728 0.00526236 0)
(-0.0403151 0.00523784 0)
(-0.042545 0.00520056 0)
(-0.0447573 0.00515162 0)
(-0.0469475 0.00509209 0)
(-0.0491111 0.005023 0)
(-0.0512443 0.00494534 0)
(-0.0533436 0.00486004 0)
(-0.0554059 0.00476802 0)
(-0.0574286 0.00467013 0)
(-0.0594092 0.00456717 0)
(-0.0613457 0.0044599 0)
(-0.0632363 0.00434905 0)
(-0.0650796 0.00423526 0)
(-0.0668744 0.00411917 0)
(-0.0686198 0.00400135 0)
(-0.0703151 0.00388231 0)
(-0.0719598 0.00376256 0)
(-0.0735536 0.00364252 0)
(-0.0750964 0.0035226 0)
(-0.0765883 0.00340315 0)
(-0.0780295 0.00328451 0)
(-0.0794204 0.00316694 0)
(-0.0807613 0.00305072 0)
(-0.0820528 0.00293604 0)
(-0.0832956 0.00282309 0)
(-0.0844905 0.00271204 0)
(-0.0856381 0.002603 0)
(-0.0867393 0.00249607 0)
(-0.0877951 0.00239133 0)
(-0.0888062 0.00228883 0)
(-0.0897736 0.00218859 0)
(-0.0906982 0.00209062 0)
(-0.091581 0.00199491 0)
(-0.0924229 0.00190142 0)
(-0.0932247 0.0018101 0)
(-0.0939874 0.00172089 0)
(-0.0947119 0.00163371 0)
(-0.0953988 0.00154846 0)
(-0.0960491 0.00146504 0)
(-0.0966634 0.00138333 0)
(-0.0972424 0.00130319 0)
(-0.0977868 0.00122449 0)
(-0.0982971 0.00114708 0)
(-0.0987738 0.00107079 0)
(-0.0992173 0.00099547 0)
(-0.0996281 0.000920934 0)
(-0.100006 0.000847005 0)
(-0.100352 0.000773498 0)
(-0.100666 0.000700222 0)
(-0.100948 0.000626981 0)
(-0.101197 0.000553575 0)
(-0.101414 0.000479802 0)
(-0.101599 0.000405456 0)
(-0.101751 0.000330331 0)
(-0.10187 0.000254217 0)
(-0.101955 0.000176905 0)
(-0.102006 9.81871e-05 0)
(-0.102022 1.78551e-05 0)
(-0.102003 -6.42967e-05 0)
(-0.101948 -0.000148471 0)
(-0.101855 -0.000234867 0)
(-0.101724 -0.00032368 0)
(-0.101554 -0.000415098 0)
(-0.101344 -0.000509302 0)
(-0.101092 -0.000606466 0)
(-0.100797 -0.000706753 0)
(-0.100458 -0.000810316 0)
(-0.100074 -0.000917296 0)
(-0.099643 -0.00102782 0)
(-0.0991634 -0.00114199 0)
(-0.0986339 -0.00125991 0)
(-0.0980528 -0.00138165 0)
(-0.0974187 -0.00150726 0)
(-0.0967299 -0.00163677 0)
(-0.0959848 -0.00177019 0)
(-0.0951818 -0.00190748 0)
(-0.0943194 -0.0020486 0)
(-0.093396 -0.00219347 0)
(-0.0924102 -0.00234195 0)
(-0.0913605 -0.00249389 0)
(-0.0902455 -0.00264911 0)
(-0.0890641 -0.00280735 0)
(-0.087815 -0.00296835 0)
(-0.0864973 -0.00313177 0)
(-0.08511 -0.00329724 0)
(-0.0836526 -0.00346435 0)
(-0.0821245 -0.0036326 0)
(-0.0805254 -0.00380149 0)
(-0.0788553 -0.00397042 0)
(-0.0771144 -0.00413875 0)
(-0.0753031 -0.00430579 0)
(-0.0734222 -0.0044708 0)
(-0.071473 -0.00463295 0)
(-0.0694567 -0.00479139 0)
(-0.0673753 -0.00494519 0)
(-0.0652311 -0.00509337 0)
(-0.0630266 -0.0052349 0)
(-0.0607649 -0.00536871 0)
(-0.0584496 -0.00549365 0)
(-0.0560847 -0.00560855 0)
(-0.0536748 -0.00571219 0)
(-0.0512247 -0.00580332 0)
(-0.0487402 -0.00588065 0)
(-0.0462271 -0.00594287 0)
(-0.0436922 -0.00598867 0)
(-0.0411425 -0.00601669 0)
(-0.0385857 -0.00602561 0)
(-0.03603 -0.0060141 0)
(-0.0334841 -0.00598085 0)
(-0.0309572 -0.0059246 0)
(-0.0284588 -0.00584413 0)
(-0.0259993 -0.00573827 0)
(-0.023589 -0.00560597 0)
(-0.0212389 -0.00544627 0)
(-0.01896 -0.00525837 0)
(-0.0167638 -0.00504162 0)
(-0.0146617 -0.00479563 0)
(-0.0126652 -0.00452026 0)
(-0.0107856 -0.00421576 0)
(-0.00903388 -0.00388284 0)
(-0.00742051 -0.00352279 0)
(-0.0059551 -0.0031377 0)
(-0.0046461 -0.00273072 0)
(-0.00350035 -0.00230634 0)
(-0.00252264 -0.00187094 0)
(-0.00171497 -0.00143337 0)
(-0.00107588 -0.00100583 0)
(-0.000599566 -0.000605066 0)
(-0.00027482 -0.000253857 0)
(-8.38714e-05 1.73241e-05 0)
(-8.4369e-07 0.000168155 0)
(8.7411e-06 0.000141897 0)
(6.69705e-07 -0.000125869 0)
(-4.10543e-05 -0.000102928 0)
(-0.000181024 0.000112701 0)
(-0.000441992 0.000461967 0)
(-0.000843364 0.000901902 0)
(-0.00139972 0.00139918 0)
(-0.00212015 0.00192817 0)
(-0.00300918 0.0024695 0)
(-0.00406762 0.00300865 0)
(-0.00529316 0.00353486 0)
(-0.00668105 0.00404023 0)
(-0.00822453 0.00451909 0)
(-0.00991537 0.00496748 0)
(-0.0117442 0.00538278 0)
(-0.0137009 0.00576337 0)
(-0.0157748 0.00610843 0)
(-0.0179549 0.00641775 0)
(-0.02023 0.0066916 0)
(-0.0225893 0.00693064 0)
(-0.0250216 0.0071358 0)
(-0.0275164 0.00730824 0)
(-0.0300633 0.00744928 0)
(-0.0326523 0.00756038 0)
(-0.0352738 0.00764307 0)
(-0.0379188 0.00769896 0)
(-0.0405786 0.00772968 0)
(-0.0432452 0.00773688 0)
(-0.0459109 0.00772222 0)
(-0.0485688 0.00768733 0)
(-0.0512122 0.00763383 0)
(-0.053835 0.0075633 0)
(-0.0564319 0.00747726 0)
(-0.0589977 0.0073772 0)
(-0.0615279 0.00726455 0)
(-0.0640183 0.00714067 0)
(-0.0664653 0.00700688 0)
(-0.0688657 0.00686441 0)
(-0.0712167 0.00671444 0)
(-0.0735157 0.00655808 0)
(-0.0757608 0.00639637 0)
(-0.0779501 0.00623027 0)
(-0.0800823 0.0060607 0)
(-0.0821562 0.00588849 0)
(-0.0841709 0.00571441 0)
(-0.0861259 0.00553917 0)
(-0.0880208 0.00536343 0)
(-0.0898555 0.00518776 0)
(-0.0916299 0.0050127 0)
(-0.0933443 0.00483873 0)
(-0.094999 0.00466626 0)
(-0.0965946 0.00449565 0)
(-0.0981317 0.00432725 0)
(-0.099611 0.0041613 0)
(-0.101033 0.00399806 0)
(-0.1024 0.00383769 0)
(-0.103711 0.00368036 0)
(-0.104968 0.00352617 0)
(-0.106172 0.00337521 0)
(-0.107324 0.0032275 0)
(-0.108425 0.00308307 0)
(-0.109476 0.00294189 0)
(-0.110478 0.00280393 0)
(-0.111433 0.00266911 0)
(-0.112341 0.00253735 0)
(-0.113203 0.00240851 0)
(-0.114021 0.00228248 0)
(-0.114794 0.00215909 0)
(-0.115525 0.00203818 0)
(-0.116213 0.00191954 0)
(-0.11686 0.00180299 0)
(-0.117466 0.0016883 0)
(-0.118032 0.00157525 0)
(-0.118558 0.00146358 0)
(-0.119045 0.00135306 0)
(-0.119493 0.00124341 0)
(-0.119901 0.00113437 0)
(-0.120272 0.00102565 0)
(-0.120604 0.000916984 0)
(-0.120897 0.00080807 0)
(-0.121151 0.000698615 0)
(-0.121367 0.000588321 0)
(-0.121543 0.000476886 0)
(-0.121679 0.000364009 0)
(-0.121775 0.000249385 0)
(-0.121831 0.000132711 0)
(-0.121844 1.36866e-05 0)
(-0.121815 -0.000107987 0)
(-0.121743 -0.000232604 0)
(-0.121626 -0.000360452 0)
(-0.121464 -0.000491813 0)
(-0.121254 -0.000626958 0)
(-0.120997 -0.00076615 0)
(-0.12069 -0.000909639 0)
(-0.120332 -0.00105766 0)
(-0.119921 -0.00121043 0)
(-0.119457 -0.00136815 0)
(-0.118936 -0.001531 0)
(-0.118358 -0.00169914 0)
(-0.117721 -0.0018727 0)
(-0.117022 -0.00205178 0)
(-0.116261 -0.00223645 0)
(-0.115434 -0.00242675 0)
(-0.114541 -0.00262268 0)
(-0.11358 -0.00282419 0)
(-0.112548 -0.00303121 0)
(-0.111444 -0.00324361 0)
(-0.110266 -0.00346119 0)
(-0.109013 -0.00368374 0)
(-0.107683 -0.00391096 0)
(-0.106274 -0.00414249 0)
(-0.104786 -0.00437793 0)
(-0.103216 -0.0046168 0)
(-0.101565 -0.00485854 0)
(-0.0998316 -0.00510254 0)
(-0.0980149 -0.0053481 0)
(-0.0961147 -0.00559445 0)
(-0.094131 -0.00584073 0)
(-0.0920643 -0.00608603 0)
(-0.0899149 -0.00632931 0)
(-0.087684 -0.0065695 0)
(-0.0853729 -0.00680541 0)
(-0.0829834 -0.00703577 0)
(-0.0805175 -0.00725927 0)
(-0.0779781 -0.00747446 0)
(-0.0753682 -0.00767986 0)
(-0.0726915 -0.00787391 0)
(-0.0699521 -0.00805495 0)
(-0.0671548 -0.00822131 0)
(-0.0643049 -0.0083712 0)
(-0.0614082 -0.00850284 0)
(-0.0584713 -0.00861437 0)
(-0.0555011 -0.00870391 0)
(-0.0525054 -0.00876955 0)
(-0.0494926 -0.0088094 0)
(-0.0464714 -0.00882155 0)
(-0.0434514 -0.00880411 0)
(-0.0404426 -0.00875524 0)
(-0.0374558 -0.00867314 0)
(-0.034502 -0.00855613 0)
(-0.0315929 -0.0084026 0)
(-0.0287407 -0.00821109 0)
(-0.0259577 -0.00798032 0)
(-0.0232566 -0.00770924 0)
(-0.0206505 -0.00739706 0)
(-0.0181524 -0.00704334 0)
(-0.0157751 -0.00664806 0)
(-0.0135316 -0.00621176 0)
(-0.0114339 -0.00573564 0)
(-0.00949393 -0.00522177 0)
(-0.00772218 -0.00467333 0)
(-0.00612804 -0.00409492 0)
(-0.00471912 -0.003493 0)
(-0.00350079 -0.00287644 0)
(-0.0024756 -0.00225725 0)
(-0.00164268 -0.00165158 0)
(-0.000996973 -0.00108094 0)
(-0.000528366 -0.000573809 0)
(-0.00022068 -0.000167362 0)
(-5.27511e-05 9.03053e-05 0)
(-4.3318e-07 0.00013274 0)
(-7.72249e-06 -9.58065e-05 0)
(-8.99867e-05 2.18059e-05 0)
(-0.000311407 0.000359934 0)
(-0.000684144 0.000853184 0)
(-0.00122226 0.00145293 0)
(-0.00193803 0.00212071 0)
(-0.00283878 0.00282636 0)
(-0.00392769 0.00354657 0)
(-0.00520457 0.0042635 0)
(-0.0066663 0.00496362 0)
(-0.00830735 0.00563681 0)
(-0.0101202 0.00627564 0)
(-0.0120959 0.0068748 0)
(-0.0142242 0.00743065 0)
(-0.016494 0.00794088 0)
(-0.0188937 0.00840421 0)
(-0.0214112 0.0088202 0)
(-0.0240344 0.00918904 0)
(-0.026751 0.00951147 0)
(-0.0295491 0.0097886 0)
(-0.0324166 0.0100219 0)
(-0.0353422 0.010213 0)
(-0.0383148 0.0103637 0)
(-0.0413235 0.0104762 0)
(-0.0443584 0.0105524 0)
(-0.0474096 0.0105946 0)
(-0.0504682 0.0106049 0)
(-0.0535256 0.0105855 0)
(-0.0565737 0.0105387 0)
(-0.0596053 0.0104664 0)
(-0.0626134 0.010371 0)
(-0.0655918 0.0102544 0)
(-0.0685348 0.0101186 0)
(-0.0714372 0.00996554 0)
(-0.0742943 0.00979713 0)
(-0.0771019 0.00961509 0)
(-0.0798564 0.00942112 0)
(-0.0825545 0.00921681 0)
(-0.0851934 0.00900366 0)
(-0.0877706 0.00878309 0)
(-0.0902843 0.00855643 0)
(-0.0927327 0.0083249 0)
(-0.0951145 0.00808965 0)
(-0.0974287 0.00785175 0)
(-0.0996746 0.00761215 0)
(-0.101852 0.00737174 0)
(-0.10396 0.00713134 0)
(-0.105999 0.00689167 0)
(-0.10797 0.00665337 0)
(-0.109872 0.00641703 0)
(-0.111707 0.00618316 0)
(-0.113474 0.0059522 0)
(-0.115175 0.00572452 0)
(-0.116811 0.00550044 0)
(-0.118382 0.00528024 0)
(-0.11989 0.0050641 0)
(-0.121336 0.0048522 0)
(-0.122721 0.00464463 0)
(-0.124046 0.00444145 0)
(-0.125312 0.0042427 0)
(-0.126521 0.00404835 0)
(-0.127674 0.00385834 0)
(-0.128772 0.00367258 0)
(-0.129816 0.00349095 0)
(-0.130807 0.00331329 0)
(-0.131746 0.00313942 0)
(-0.132635 0.00296913 0)
(-0.133474 0.00280219 0)
(-0.134265 0.00263835 0)
(-0.135007 0.00247732 0)
(-0.135702 0.00231881 0)
(-0.136351 0.00216251 0)
(-0.136954 0.0020081 0)
(-0.137511 0.00185523 0)
(-0.138022 0.00170354 0)
(-0.138489 0.00155267 0)
(-0.138912 0.00140224 0)
(-0.139289 0.00125186 0)
(-0.139622 0.00110114 0)
(-0.13991 0.000949684 0)
(-0.140153 0.00079708 0)
(-0.14035 0.00064292 0)
(-0.140502 0.000486795 0)
(-0.140606 0.000328292 0)
(-0.140664 0.000167001 0)
(-0.140673 2.51257e-06 0)
(-0.140633 -0.000165576 0)
(-0.140543 -0.000337664 0)
(-0.140402 -0.00051414 0)
(-0.140208 -0.000695385 0)
(-0.13996 -0.000881766 0)
(-0.139656 -0.00107364 0)
(-0.139296 -0.00127133 0)
(-0.138876 -0.00147517 0)
(-0.138396 -0.00168544 0)
(-0.137854 -0.00190242 0)
(-0.137248 -0.00212634 0)
(-0.136576 -0.00235741 0)
(-0.135835 -0.00259581 0)
(-0.135025 -0.00284167 0)
(-0.134142 -0.00309508 0)
(-0.133185 -0.00335608 0)
(-0.132151 -0.00362467 0)
(-0.13104 -0.00390078 0)
(-0.129848 -0.00418431 0)
(-0.128573 -0.00447505 0)
(-0.127214 -0.00477277 0)
(-0.125769 -0.00507713 0)
(-0.124236 -0.00538774 0)
(-0.122614 -0.0057041 0)
(-0.120901 -0.00602567 0)
(-0.119096 -0.00635176 0)
(-0.117197 -0.00668165 0)
(-0.115205 -0.00701446 0)
(-0.113118 -0.00734927 0)
(-0.110936 -0.007685 0)
(-0.108659 -0.00802051 0)
(-0.106288 -0.00835452 0)
(-0.103823 -0.00868566 0)
(-0.101265 -0.00901243 0)
(-0.0986163 -0.00933325 0)
(-0.0958785 -0.00964639 0)
(-0.0930543 -0.00995005 0)
(-0.0901465 -0.0102423 0)
(-0.0871588 -0.0105211 0)
(-0.0840953 -0.0107844 0)
(-0.0809608 -0.0110299 0)
(-0.0777607 -0.0112553 0)
(-0.0745009 -0.0114583 0)
(-0.071188 -0.0116365 0)
(-0.0678294 -0.0117873 0)
(-0.0644331 -0.0119082 0)