/*--------------------------------*- C++ -*----------------------------------*\
  =========                 |
  \\      /  F ield         | OpenFOAM: The Open Source CFD Toolbox
   \\    /   O peration     | Website:  https://openfoam.org
    \\  /    A nd           | Version:  7
     \\/     M anipulation  |
\*---------------------------------------------------------------------------*/
FoamFile
{
    version     2.0;
    format      ascii;
    class       volScalarField;
    location    "0.4875";
    object      p;
}
// * * * * * * * * * * * * * * * * * * * * * * * * * * * * * * * * * * * * * //

dimensions      [0 2 -2 0 0 0 0];

internalField   nonuniform List<scalar> 
51200
(
1.88221e-06
2.68943e-06
4.05284e-06
7.10494e-06
1.18505e-05
1.80126e-05
2.53157e-05
3.34996e-05
4.23153e-05
5.1538e-05
6.09732e-05
7.04504e-05
7.98196e-05
8.89511e-05
9.77317e-05
0.000106062
0.000113857
0.000121043
0.000127554
0.000133334
0.00013834
0.000142533
0.000145874
0.000148332
0.000149887
0.000150521
0.000150218
0.000148965
0.000146756
0.000143586
0.000139452
0.000134356
0.000128302
0.000121297
0.000113345
0.000104456
9.464e-05
8.39088e-05
7.22754e-05
5.97542e-05
4.63607e-05
3.21113e-05
1.70226e-05
1.11232e-06
-1.56005e-05
-3.30968e-05
-5.13575e-05
-7.03636e-05
-9.00946e-05
-0.00011053
-0.000131647
-0.000153425
-0.000175844
-0.00019888
-0.000222512
-0.000246717
-0.000271471
-0.000296752
-0.000322538
-0.000348807
-0.000375536
-0.000402704
-0.000430287
-0.000458263
-0.00048661
-0.000515305
-0.000544326
-0.000573651
-0.000603256
-0.000633119
-0.000663217
-0.000693526
-0.000724025
-0.000754691
-0.000785501
-0.000816433
-0.000847465
-0.000878576
-0.000909743
-0.000940943
-0.000972154
-0.00100335
-0.00103451
-0.00106562
-0.00109665
-0.00112757
-0.00115838
-0.00118904
-0.00121952
-0.00124982
-0.00127991
-0.00130976
-0.00133936
-0.00136867
-0.00139769
-0.00142637
-0.00145471
-0.00148268
-0.00151025
-0.00153741
-0.00156413
-0.00159038
-0.00161615
-0.00164141
-0.00166614
-0.00169032
-0.00171393
-0.00173694
-0.00175933
-0.00178107
-0.00180216
-0.00182256
-0.00184225
-0.00186122
-0.00187944
-0.00189689
-0.00191355
-0.0019294
-0.00194443
-0.00195862
-0.00197194
-0.00198439
-0.00199595
-0.00200661
-0.00201635
-0.00202516
-0.00203303
-0.00203995
-0.00204592
-0.00205093
-0.00205498
-0.00205805
-0.00206016
-0.00206133
-0.00206154
-0.00206082
-0.00205917
-0.00205662
-0.00205319
-0.00204891
-0.00204383
-0.00203796
-0.00203138
-0.00202411
-0.00201625
-0.00200785
-0.00199901
-0.00198981
-0.00198039
-0.00197087
-0.0019614
-0.00195215
-0.0019433
-0.00193508
-0.00192778
-0.00192167
-0.001917
-0.00191393
-0.00191261
-0.0019129
3.88684e-06
3.5077e-06
4.63673e-06
7.38134e-06
1.15322e-05
1.68833e-05
2.32262e-05
3.03558e-05
3.80705e-05
4.61799e-05
5.45108e-05
6.29092e-05
7.12378e-05
7.93734e-05
8.72066e-05
9.46419e-05
0.000101597
0.000107999
0.000113783
0.000118892
0.00012328
0.000126909
0.000129741
0.000131744
0.000132894
0.00013317
0.000132555
0.000131037
0.000128608
0.00012526
0.00012099
0.000115796
0.000109682
0.000102651
9.47088e-05
8.58627e-05
7.61215e-05
6.54952e-05
5.39952e-05
4.16343e-05
2.84271e-05
1.43884e-05
-4.66137e-07
-1.61202e-05
-3.25559e-05
-4.97549e-05
-6.76992e-05
-8.63705e-05
-0.00010575
-0.000125818
-0.000146555
-0.000167938
-0.000189949
-0.000212564
-0.000235762
-0.000259523
-0.000283823
-0.000308642
-0.000333956
-0.000359744
-0.000385984
-0.000412656
-0.000439737
-0.000467205
-0.000495038
-0.000523214
-0.000551711
-0.000580508
-0.000609581
-0.000638909
-0.000668468
-0.000698235
-0.000728189
-0.000758307
-0.000788569
-0.000818951
-0.000849431
-0.000879988
-0.000910601
-0.000941247
-0.000971903
-0.00100255
-0.00103316
-0.00106371
-0.00109418
-0.00112456
-0.00115481
-0.00118492
-0.00121486
-0.00124462
-0.00127416
-0.00130347
-0.00133253
-0.00136132
-0.0013898
-0.00141797
-0.00144579
-0.00147325
-0.00150031
-0.00152697
-0.00155319
-0.00157896
-0.00160426
-0.00162905
-0.00165333
-0.00167706
-0.00170023
-0.00172281
-0.00174479
-0.00176614
-0.00178684
-0.00180687
-0.00182621
-0.00184484
-0.00186274
-0.00187989
-0.00189627
-0.00191187
-0.00192666
-0.00194063
-0.00195377
-0.00196606
-0.00197749
-0.00198804
-0.00199771
-0.00200648
-0.00201434
-0.00202129
-0.00202731
-0.00203243
-0.00203661
-0.00203987
-0.00204221
-0.00204363
-0.00204416
-0.0020438
-0.00204257
-0.00204048
-0.00203756
-0.00203385
-0.00202938
-0.0020242
-0.00201834
-0.00201187
-0.00200484
-0.00199734
-0.00198945
-0.00198126
-0.00197288
-0.00196443
-0.00195606
-0.00194793
-0.0019402
-0.00193303
-0.00192665
-0.00192133
-0.00191734
-0.00191479
-0.00191369
-0.00191387
3.13304e-06
2.52724e-06
3.59472e-06
6.16876e-06
9.9592e-06
1.47981e-05
2.05152e-05
2.69316e-05
3.38765e-05
4.11866e-05
4.87086e-05
5.63022e-05
6.38416e-05
7.12124e-05
7.83104e-05
8.50446e-05
9.13357e-05
9.71126e-05
0.000102312
0.000106879
0.000110768
0.000113937
0.00011635
0.000117976
0.000118789
0.000118767
0.000117891
0.000116148
0.00011353
0.000110028
0.000105637
0.000100356
9.41848e-05
8.7126e-05
7.91843e-05
7.03666e-05
6.06806e-05
5.01348e-05
3.87389e-05
2.6505e-05
1.34466e-05
-4.22348e-07
-1.50875e-05
-3.05333e-05
-4.67428e-05
-6.36985e-05
-8.13832e-05
-9.97797e-05
-0.00011887
-0.000138635
-0.000159056
-0.000180113
-0.000201785
-0.00022405
-0.000246889
-0.00027028
-0.000294202
-0.000318633
-0.000343553
-0.000368939
-0.000394771
-0.000421028
-0.000447688
-0.00047473
-0.000502132
-0.000529873
-0.000557931
-0.000586284
-0.00061491
-0.000643787
-0.000672893
-0.000702204
-0.000731699
-0.000761356
-0.000791155
-0.000821073
-0.000851089
-0.00088118
-0.000911326
-0.000941505
-0.000971694
-0.00100187
-0.00103201
-0.0010621
-0.00109211
-0.00112202
-0.0011518
-0.00118145
-0.00121093
-0.00124023
-0.00126932
-0.00129818
-0.00132679
-0.00135513
-0.00138317
-0.0014109
-0.00143829
-0.00146531
-0.00149196
-0.0015182
-0.00154401
-0.00156937
-0.00159427
-0.00161868
-0.00164257
-0.00166593
-0.00168873
-0.00171096
-0.0017326
-0.00175362
-0.001774
-0.00179372
-0.00181277
-0.00183112
-0.00184876
-0.00186567
-0.00188183
-0.00189721
-0.00191181
-0.00192562
-0.00193861
-0.00195077
-0.00196209
-0.00197256
-0.00198217
-0.00199092
-0.00199878
-0.00200576
-0.00201185
-0.00201704
-0.00202135
-0.00202477
-0.0020273
-0.00202895
-0.00202974
-0.00202968
-0.00202878
-0.00202708
-0.00202458
-0.00202134
-0.00201737
-0.00201273
-0.00200746
-0.00200162
-0.00199526
-0.00198847
-0.00198131
-0.00197389
-0.0019663
-0.00195866
-0.00195109
-0.00194375
-0.00193681
-0.00193039
-0.00192462
-0.00191971
-0.00191594
-0.00191354
-0.00191266
-0.00191307
1.66084e-07
-1.66737e-07
1.0528e-06
3.61994e-06
7.25526e-06
1.18163e-05
1.71533e-05
2.31065e-05
2.95248e-05
3.62663e-05
4.31951e-05
5.01839e-05
5.71172e-05
6.38894e-05
7.04043e-05
7.65766e-05
8.23294e-05
8.75934e-05
9.23088e-05
9.64247e-05
9.98945e-05
0.000102675
0.000104732
0.000106034
0.000106556
0.000106273
0.000105169
0.000103229
0.000100443
9.68008e-05
9.22992e-05
8.69355e-05
8.07086e-05
7.36192e-05
6.56714e-05
5.68712e-05
4.72258e-05
3.67426e-05
2.54305e-05
1.33007e-05
3.65789e-07
-1.33615e-05
-2.78674e-05
-4.31371e-05
-5.91544e-05
-7.59028e-05
-9.33659e-05
-0.000111527
-0.000130369
-0.000149874
-0.000170022
-0.000190796
-0.000212174
-0.000234137
-0.000256663
-0.000279732
-0.000303324
-0.000327419
-0.000351994
-0.000377029
-0.000402503
-0.000428396
-0.000454688
-0.000481356
-0.000508381
-0.00053574
-0.000563412
-0.000591376
-0.000619608
-0.000648089
-0.000676795
-0.000705704
-0.000734795
-0.000764047
-0.000793438
-0.000822947
-0.000852553
-0.000882234
-0.000911968
-0.000941734
-0.000971511
-0.00100128
-0.00103101
-0.00106068
-0.00109028
-0.00111978
-0.00114916
-0.00117839
-0.00120747
-0.00123637
-0.00126506
-0.00129352
-0.00132173
-0.00134968
-0.00137733
-0.00140468
-0.00143168
-0.00145833
-0.00148461
-0.00151048
-0.00153593
-0.00156094
-0.00158549
-0.00160956
-0.00163312
-0.00165616
-0.00167864
-0.00170057
-0.00172191
-0.00174264
-0.00176275
-0.00178221
-0.00180101
-0.00181912
-0.00183654
-0.00185323
-0.0018692
-0.00188441
-0.00189885
-0.00191251
-0.00192537
-0.00193743
-0.00194867
-0.00195908
-0.00196865
-0.00197737
-0.00198525
-0.00199226
-0.00199841
-0.00200368
-0.0020081
-0.00201166
-0.00201436
-0.00201621
-0.00201723
-0.00201743
-0.00201683
-0.00201545
-0.00201332
-0.00201046
-0.00200692
-0.00200273
-0.00199795
-0.00199262
-0.0019868
-0.00198057
-0.001974
-0.00196718
-0.00196021
-0.00195317
-0.00194619
-0.0019394
-0.00193297
-0.00192706
-0.00192175
-0.00191713
-0.0019134
-0.00191085
-0.00190981
-0.00191014
-4.53926e-06
-4.28015e-06
-2.71752e-06
-1.01158e-08
3.6228e-06
8.05405e-06
1.31545e-05
1.8785e-05
2.48124e-05
3.11116e-05
3.75634e-05
4.40542e-05
5.04775e-05
5.6737e-05
6.27458e-05
6.84246e-05
7.36999e-05
7.85058e-05
8.27861e-05
8.64916e-05
8.95769e-05
9.20007e-05
9.37281e-05
9.47291e-05
9.49772e-05
9.44496e-05
9.31287e-05
9.10002e-05
8.80522e-05
8.42755e-05
7.96652e-05
7.42184e-05
6.79332e-05
6.08099e-05
5.28514e-05
4.40629e-05
3.44503e-05
2.40207e-05
1.27825e-05
7.46358e-07
-1.20765e-05
-2.5674e-05
-4.00331e-05
-5.51397e-05
-7.09786e-05
-8.75341e-05
-0.00010479
-0.000122731
-0.00014134
-0.0001606
-0.000180493
-0.000200999
-0.000222101
-0.000243776
-0.000266006
-0.000288771
-0.00031205
-0.000335824
-0.000360071
-0.000384772
-0.000409906
-0.000435453
-0.000461393
-0.000487705
-0.000514369
-0.000541363
-0.000568666
-0.000596257
-0.000624114
-0.000652215
-0.000680538
-0.000709063
-0.000737767
-0.000766629
-0.000795629
-0.000824746
-0.000853958
-0.000883245
-0.000912585
-0.000941955
-0.000971336
-0.00100071
-0.00103004
-0.00105932
-0.00108853
-0.00111763
-0.00114662
-0.00117547
-0.00120415
-0.00123266
-0.00126097
-0.00128905
-0.00131689
-0.00134446
-0.00137174
-0.00139872
-0.00142536
-0.00145165
-0.00147757
-0.0015031
-0.00152821
-0.00155288
-0.0015771
-0.00160084
-0.00162409
-0.00164682
-0.00166901
-0.00169064
-0.0017117
-0.00173216
-0.00175201
-0.00177123
-0.00178979
-0.00180768
-0.00182489
-0.00184139
-0.00185717
-0.00187222
-0.00188651
-0.00190004
-0.00191279
-0.00192476
-0.00193592
-0.00194628
-0.00195582
-0.00196453
-0.00197241
-0.00197946
-0.00198567
-0.00199103
-0.00199556
-0.00199925
-0.00200211
-0.00200416
-0.00200539
-0.00200584
-0.00200551
-0.00200443
-0.00200263
-0.00200014
-0.00199699
-0.00199321
-0.00198886
-0.00198399
-0.00197866
-0.00197292
-0.00196686
-0.00196055
-0.00195409
-0.00194756
-0.00194107
-0.00193472
-0.00192864
-0.00192301
-0.00191797
-0.00191357
-0.00190988
-0.00190709
-0.0019056
-0.00190539
-1.07083e-05
-9.62745e-06
-7.56011e-06
-4.57613e-06
-8.0941e-07
3.62556e-06
8.61772e-06
1.40508e-05
1.98087e-05
2.57809e-05
3.1863e-05
3.79544e-05
4.39596e-05
4.97907e-05
5.53689e-05
6.0621e-05
6.5479e-05
6.98821e-05
7.37767e-05
7.71145e-05
7.98519e-05
8.19508e-05
8.33773e-05
8.41012e-05
8.4096e-05
8.33401e-05
8.18158e-05
7.95086e-05
7.64066e-05
7.25008e-05
6.77854e-05
6.22564e-05
5.59119e-05
4.8752e-05
4.07788e-05
3.19963e-05
2.24096e-05
1.20255e-05
8.52028e-07
-1.11012e-05
-2.38236e-05
-3.73035e-05
-5.15285e-05
-6.64853e-05
-8.21599e-05
-9.85373e-05
-0.000115602
-0.000133339
-0.000151731
-0.000170763
-0.000190416
-0.000210673
-0.000231515
-0.000252921
-0.000274873
-0.000297351
-0.000320335
-0.000343807
-0.000367745
-0.00039213
-0.000416942
-0.000442162
-0.000467769
-0.000493744
-0.000520065
-0.000546713
-0.000573667
-0.000600904
-0.000628404
-0.000656144
-0.000684104
-0.000712262
-0.000740597
-0.000769089
-0.000797717
-0.00082646
-0.000855299
-0.000884211
-0.000913174
-0.000942168
-0.000971172
-0.00100016
-0.00102912
-0.00105803
-0.00108686
-0.00111559
-0.0011442
-0.00117268
-0.001201
-0.00122914
-0.00125708
-0.0012848
-0.00131228
-0.00133949
-0.00136642
-0.00139305
-0.00141935
-0.0014453
-0.00147088
-0.00149608
-0.00152086
-0.00154522
-0.00156913
-0.00159257
-0.00161552
-0.00163796
-0.00165987
-0.00168123
-0.00170202
-0.00172224
-0.00174184
-0.00176083
-0.00177917
-0.00179686
-0.00181387
-0.00183019
-0.00184581
-0.0018607
-0.00187486
-0.00188828
-0.00190093
-0.00191281
-0.00192391
-0.00193422
-0.00194373
-0.00195244
-0.00196033
-0.00196741
-0.00197368
-0.00197913
-0.00198377
-0.00198759
-0.0019906
-0.00199283
-0.00199427
-0.00199494
-0.00199487
-0.00199407
-0.00199258
-0.00199041
-0.00198761
-0.0019842
-0.00198024
-0.00197578
-0.00197086
-0.00196555
-0.00195992
-0.00195403
-0.00194799
-0.00194187
-0.00193576
-0.00192976
-0.00192395
-0.00191846
-0.00191348
-0.0019091
-0.00190536
-0.00190233
-0.00190025
-0.0018992
-1.80602e-05
-1.60047e-05
-1.33047e-05
-9.93218e-06
-5.91603e-06
-1.35896e-06
3.64135e-06
8.98992e-06
1.45885e-05
2.03404e-05
2.61535e-05
3.19397e-05
3.76147e-05
4.30996e-05
4.83219e-05
5.32146e-05
5.77163e-05
6.17718e-05
6.533e-05
6.83443e-05
7.07735e-05
7.25816e-05
7.37362e-05
7.4208e-05
7.39717e-05
7.30063e-05
7.12938e-05
6.88197e-05
6.55729e-05
6.15445e-05
5.6728e-05
5.11191e-05
4.47155e-05
3.75171e-05
2.95254e-05
2.07435e-05
1.11762e-05
8.29822e-07
-1.02882e-05
-2.21691e-05
-3.48027e-05
-4.81778e-05
-6.22821e-05
-7.71034e-05
-9.26285e-05
-0.000108843
-0.000125733
-0.000143282
-0.000161476
-0.000180297
-0.00019973
-0.000219755
-0.000240356
-0.000261513
-0.000283206
-0.000305417
-0.000328127
-0.000351316
-0.000374965
-0.000399055
-0.000423566
-0.000448479
-0.000473775
-0.000499433
-0.000525434
-0.000551756
-0.00057838
-0.000605285
-0.000632449
-0.00065985
-0.000687467
-0.00071528
-0.000743269
-0.000771411
-0.000799688
-0.00082808
-0.000856565
-0.000885123
-0.000913733
-0.000942372
-0.00097102
-0.000999656
-0.00102826
-0.00105681
-0.00108529
-0.00111367
-0.00114193
-0.00117006
-0.00119803
-0.00122582
-0.00125342
-0.0012808
-0.00130794
-0.00133482
-0.00136142
-0.00138771
-0.00141369
-0.00143932
-0.00146459
-0.00148948
-0.00151396
-0.00153802
-0.00156164
-0.00158479
-0.00160746
-0.00162963
-0.00165128
-0.00167239
-0.00169294
-0.00171292
-0.00173231
-0.00175108
-0.00176922
-0.00178672
-0.00180356
-0.00181971
-0.00183518
-0.00184994
-0.00186397
-0.00187728
-0.00188984
-0.00190165
-0.00191269
-0.00192296
-0.00193246
-0.00194117
-0.00194908
-0.0019562
-0.00196252
-0.00196805
-0.00197279
-0.00197674
-0.0019799
-0.00198229
-0.00198392
-0.00198481
-0.00198496
-0.00198442
-0.0019832
-0.00198132
-0.00197883
-0.00197575
-0.00197214
-0.00196802
-0.00196346
-0.0019585
-0.00195323
-0.00194769
-0.00194197
-0.00193615
-0.00193031
-0.00192455
-0.00191893
-0.00191353
-0.00190849
-0.00190394
-0.00189998
-0.00189662
-0.00189391
-0.00189186
-2.63194e-05
-2.31951e-05
-1.97717e-05
-1.59234e-05
-1.1566e-05
-6.78899e-06
-1.6813e-06
3.6796e-06
9.21315e-06
1.48365e-05
2.04692e-05
2.60341e-05
3.14577e-05
3.66694e-05
4.16036e-05
4.61997e-05
5.04027e-05
5.41615e-05
5.74287e-05
6.01609e-05
6.23195e-05
6.38696e-05
6.47804e-05
6.50246e-05
6.45781e-05
6.34208e-05
6.1535e-05
5.89065e-05
5.55243e-05
5.13799e-05
4.64666e-05
4.078e-05
3.4318e-05
2.70797e-05
1.90662e-05
1.02802e-05
7.26203e-07
-9.58987e-06
-2.06611e-05
-3.24795e-05
-4.50351e-05
-5.83172e-05
-7.23139e-05
-8.70135e-05
-0.000102403
-0.00011847
-0.000135201
-0.000152579
-0.00017059
-0.000189218
-0.000208447
-0.00022826
-0.000248638
-0.000269564
-0.000291017
-0.000312981
-0.000335435
-0.000358362
-0.000381742
-0.000405557
-0.000429787
-0.000454414
-0.000479418
-0.00050478
-0.000530481
-0.000556499
-0.000582814
-0.000609406
-0.000636254
-0.000663337
-0.000690633
-0.000718122
-0.000745784
-0.000773598
-0.000801546
-0.000829606
-0.000857759
-0.000885984
-0.00091426
-0.000942565
-0.000970879
-0.00099918
-0.00102745
-0.00105567
-0.00108381
-0.00111186
-0.00113979
-0.00116759
-0.00119523
-0.0012227
-0.00124997
-0.00127703
-0.00130386
-0.00133042
-0.00135671
-0.0013827
-0.00140838
-0.00143371
-0.00145869
-0.00148328
-0.00150748
-0.00153126
-0.00155461
-0.0015775
-0.00159991
-0.00162183
-0.00164324
-0.00166412
-0.00168445
-0.00170421
-0.00172339
-0.00174196
-0.00175992
-0.00177725
-0.00179392
-0.00180993
-0.00182526
-0.0018399
-0.00185382
-0.00186704
-0.00187952
-0.00189126
-0.00190226
-0.0019125
-0.00192198
-0.00193069
-0.00193863
-0.00194579
-0.00195217
-0.00195778
-0.00196261
-0.00196667
-0.00196997
-0.00197252
-0.00197432
-0.0019754
-0.00197577
-0.00197545
-0.00197447
-0.00197286
-0.00197064
-0.00196785
-0.00196452
-0.00196071
-0.00195644
-0.00195179
-0.00194679
-0.00194153
-0.00193607
-0.00193047
-0.0019248
-0.00191916
-0.00191363
-0.00190825
-0.0019031
-0.00189829
-0.00189396
-0.00189014
-0.00188673
-0.00188363
-3.52384e-05
-3.09967e-05
-2.6788e-05
-2.23973e-05
-1.76273e-05
-1.25534e-05
-7.25716e-06
-1.80207e-06
3.74643e-06
9.3198e-06
1.48488e-05
2.02665e-05
2.55081e-05
3.05115e-05
3.52184e-05
3.95753e-05
4.3532e-05
4.70415e-05
5.00603e-05
5.25489e-05
5.44711e-05
5.57938e-05
5.6488e-05
5.6528e-05
5.58913e-05
5.45587e-05
5.25138e-05
4.97429e-05
4.62349e-05
4.19811e-05
3.69754e-05
3.12138e-05
2.46939e-05
1.74145e-05
9.37639e-06
5.82151e-07
-8.964e-06
-1.92568e-05
-3.02896e-05
-4.20547e-05
-5.45425e-05
-6.77426e-05
-8.16439e-05
-9.62348e-05
-0.000111503
-0.000127437
-0.000144022
-0.000161245
-0.00017909
-0.000197542
-0.000216584
-0.000236201
-0.000256375
-0.000277087
-0.000298319
-0.000320054
-0.000342272
-0.000364955
-0.000388085
-0.000411644
-0.000435613
-0.000459974
-0.000484706
-0.000509793
-0.000535213
-0.000560947
-0.000586974
-0.000613273
-0.000639825
-0.00066661
-0.000693605
-0.00072079
-0.000748147
-0.000775654
-0.000803292
-0.000831041
-0.000858882
-0.000886795
-0.000914758
-0.00094275
-0.00097075
-0.000998737
-0.00102669
-0.00105459
-0.00108242
-0.00111016
-0.00113779
-0.00116528
-0.00119261
-0.00121978
-0.00124675
-0.00127351
-0.00130003
-0.00132631
-0.0013523
-0.00137801
-0.0014034
-0.00142845
-0.00145316
-0.00147748
-0.00150142
-0.00152494
-0.00154804
-0.00157068
-0.00159286
-0.00161455
-0.00163573
-0.0016564
-0.00167652
-0.00169608
-0.00171507
-0.00173347
-0.00175126
-0.00176843
-0.00178495
-0.00180083
-0.00181603
-0.00183056
-0.00184439
-0.00185752
-0.00186993
-0.00188162
-0.00189258
-0.0019028
-0.00191227
-0.00192099
-0.00192895
-0.00193615
-0.00194259
-0.00194827
-0.0019532
-0.00195737
-0.00196079
-0.00196348
-0.00196544
-0.0019667
-0.00196726
-0.00196715
-0.00196639
-0.001965
-0.00196302
-0.00196047
-0.0019574
-0.00195383
-0.00194982
-0.0019454
-0.00194063
-0.00193557
-0.00193029
-0.00192484
-0.00191929
-0.00191369
-0.00190813
-0.00190267
-0.00189736
-0.00189226
-0.00188748
-0.00188311
-0.00187893
-0.00187472
-4.45976e-05
-3.9223e-05
-3.41923e-05
-2.92102e-05
-2.39729e-05
-1.85429e-05
-1.29934e-05
-7.3765e-06
-1.74482e-06
3.84551e-06
9.33691e-06
1.46714e-05
1.97923e-05
2.46455e-05
2.91806e-05
3.33495e-05
3.71071e-05
4.0411e-05
4.32215e-05
4.55023e-05
4.72197e-05
4.83433e-05
4.88462e-05
4.87045e-05
4.78967e-05
4.64051e-05
4.42147e-05
4.13126e-05
3.76876e-05
3.33314e-05
2.82381e-05
2.24041e-05
1.58269e-05
8.50526e-06
4.39951e-07
-8.36637e-06
-1.79099e-05
-2.81858e-05
-3.91879e-05
-5.09086e-05
-6.33384e-05
-7.64673e-05
-9.02847e-05
-0.000104779
-0.00011994
-0.000135754
-0.000152209
-0.000169291
-0.000186986
-0.000205277
-0.00022415
-0.000243588
-0.000263574
-0.00028409
-0.00030512
-0.000326643
-0.000348643
-0.000371102
-0.000394001
-0.000417324
-0.000441051
-0.000465164
-0.000489645
-0.000514475
-0.000539634
-0.000565104
-0.000590862
-0.000616889
-0.000643166
-0.000669671
-0.000696385
-0.000723287
-0.000750358
-0.000777578
-0.000804927
-0.000832387
-0.000859936
-0.000887556
-0.000915226
-0.000942924
-0.000970631
-0.000998326
-0.00102599
-0.0010536
-0.00108113
-0.00110858
-0.00113591
-0.00116311
-0.00119017
-0.00121705
-0.00124374
-0.00127021
-0.00129646
-0.00132246
-0.00134819
-0.00137363
-0.00139875
-0.00142355
-0.001448
-0.00147208
-0.00149577
-0.00151906
-0.00154192
-0.00156434
-0.00158629
-0.00160777
-0.00162875
-0.00164921
-0.00166915
-0.00168853
-0.00170734
-0.00172558
-0.00174322
-0.00176024
-0.00177664
-0.00179239
-0.00180749
-0.00182192
-0.00183566
-0.00184872
-0.00186107
-0.00187272
-0.00188364
-0.00189384
-0.00190331
-0.00191204
-0.00192003
-0.00192727
-0.00193377
-0.00193953
-0.00194453
-0.00194881
-0.00195235
-0.00195517
-0.00195728
-0.00195869
-0.00195943
-0.0019595
-0.00195893
-0.00195774
-0.00195596
-0.00195362
-0.00195075
-0.0019474
-0.00194359
-0.00193937
-0.00193477
-0.00192985
-0.00192468
-0.00191931
-0.0019138
-0.00190819
-0.00190254
-0.00189692
-0.00189137
-0.00188593
-0.00188068
-0.0018757
-0.00187069
-0.00186536
-5.42033e-05
-4.77027e-05
-4.18351e-05
-3.62295e-05
-3.04844e-05
-2.46525e-05
-1.87997e-05
-1.29663e-05
-7.19447e-06
-1.52978e-06
3.97993e-06
9.28581e-06
1.43397e-05
1.90953e-05
2.35078e-05
2.75346e-05
3.11356e-05
3.42734e-05
3.69121e-05
3.90179e-05
4.056e-05
4.1511e-05
4.18462e-05
4.15433e-05
4.05825e-05
3.89476e-05
3.66247e-05
3.36017e-05
2.98681e-05
2.54161e-05
2.02402e-05
1.43366e-05
7.70276e-06
3.37905e-07
-7.75705e-06
-1.65794e-05
-2.61255e-05
-3.63908e-05
-4.73693e-05
-5.90537e-05
-7.1435e-05
-8.45033e-05
-9.82481e-05
-0.000112659
-0.000127724
-0.000143432
-0.000159771
-0.000176728
-0.000194287
-0.000212434
-0.000231153
-0.000250429
-0.000270244
-0.000290582
-0.000311425
-0.000332756
-0.000354556
-0.000376809
-0.000399496
-0.000422601
-0.000446105
-0.00046999
-0.000494239
-0.000518831
-0.000543749
-0.000568973
-0.000594482
-0.000620257
-0.000646278
-0.000672523
-0.000698975
-0.000725614
-0.00075242
-0.000779373
-0.000806454
-0.000833643
-0.000860921
-0.000888269
-0.000915665
-0.00094309
-0.000970524
-0.000997945
-0.00102533
-0.00105267
-0.00107993
-0.00110711
-0.00113417
-0.00116111
-0.00118789
-0.00121451
-0.00124093
-0.00126715
-0.00129314
-0.00131889
-0.00134437
-0.00136956
-0.00139444
-0.001419
-0.00144321
-0.00146706
-0.00149053
-0.00151359
-0.00153624
-0.00155845
-0.00158021
-0.00160149
-0.00162228
-0.00164256
-0.00166232
-0.00168154
-0.0017002
-0.00171829
-0.00173579
-0.00175269
-0.00176897
-0.00178461
-0.00179961
-0.00181395
-0.00182763
-0.00184062
-0.00185293
-0.00186453
-0.00187543
-0.00188562
-0.00189509
-0.00190384
-0.00191186
-0.00191914
-0.0019257
-0.00193152
-0.00193661
-0.00194098
-0.00194463
-0.00194757
-0.00194981
-0.00195136
-0.00195225
-0.00195249
-0.00195209
-0.00195107
-0.00194946
-0.00194729
-0.0019446
-0.00194141
-0.00193776
-0.00193369
-0.00192923
-0.00192441
-0.00191929
-0.00191394
-0.00190841
-0.00190273
-0.00189694
-0.00189109
-0.00188524
-0.00187941
-0.00187366
-0.00186806
-0.00186221
-0.00185575
-6.38901e-05
-5.62823e-05
-4.95779e-05
-4.33319e-05
-3.70513e-05
-3.07838e-05
-2.45892e-05
-1.84962e-05
-1.25375e-05
-6.75068e-06
-1.17504e-06
4.14947e-06
9.18322e-06
1.38864e-05
1.82196e-05
2.21452e-05
2.56281e-05
2.86352e-05
3.11342e-05
3.30947e-05
3.44889e-05
3.52919e-05
3.54811e-05
3.50361e-05
3.39394e-05
3.21758e-05
2.97325e-05
2.65983e-05
2.27639e-05
1.82222e-05
1.29679e-05
6.99714e-06
3.07785e-07
-7.10078e-06
-1.52275e-05
-2.40699e-05
-3.3624e-05
-4.38849e-05
-5.48469e-05
-6.65029e-05
-7.88446e-05
-9.18622e-05
-0.000105546
-0.000119884
-0.000134867
-0.000150482
-0.000166719
-0.000183564
-0.000201003
-0.00021902
-0.000237602
-0.000256731
-0.000276393
-0.000296569
-0.000317243
-0.000338398
-0.000360017
-0.000382082
-0.000404576
-0.000427481
-0.00045078
-0.000474457
-0.000498491
-0.000522866
-0.000547561
-0.000572558
-0.000597838
-0.00062338
-0.000649164
-0.00067517
-0.000701379
-0.000727774
-0.000754334
-0.00078104
-0.000807872
-0.000834811
-0.000861838
-0.000888933
-0.000916076
-0.000943247
-0.000970427
-0.000997595
-0.00102473
-0.00105181
-0.00107882
-0.00110575
-0.00113256
-0.00115925
-0.00118578
-0.00121216
-0.00123834
-0.00126432
-0.00129007
-0.00131558
-0.00134083
-0.00136579
-0.00139045
-0.00141479
-0.00143878
-0.00146242
-0.00148568
-0.00150855
-0.001531
-0.00155302
-0.00157459
-0.0015957
-0.00161632
-0.00163644
-0.00165604
-0.00167511
-0.00169363
-0.00171159
-0.00172897
-0.00174575
-0.00176193
-0.00177748
-0.00179239
-0.00180666
-0.00182027
-0.00183321
-0.00184548
-0.00185706
-0.00186794
-0.00187812
-0.0018876
-0.00189636
-0.00190441
-0.00191174
-0.00191835
-0.00192424
-0.00192941
-0.00193387
-0.00193761
-0.00194066
-0.00194302
-0.00194471
-0.00194573
-0.00194611
-0.00194585
-0.00194499
-0.00194353
-0.00194151
-0.00193894
-0.00193588
-0.00193235
-0.00192838
-0.00192401
-0.00191926
-0.00191417
-0.00190878
-0.00190317
-0.00189736
-0.00189139
-0.00188528
-0.00187909
-0.00187282
-0.00186655
-0.00186031
-0.00185362
-0.00184604
-7.35168e-05
-6.48264e-05
-5.72943e-05
-5.04029e-05
-4.35713e-05
-3.68444e-05
-3.02788e-05
-2.38929e-05
-1.77108e-05
-1.17628e-05
-6.08075e-06
-6.96407e-07
4.35731e-06
9.04661e-06
1.33377e-05
1.71983e-05
2.05973e-05
2.35051e-05
2.58934e-05
2.77353e-05
2.90062e-05
2.96833e-05
2.97463e-05
2.91771e-05
2.796e-05
2.60812e-05
2.35287e-05
2.02926e-05
1.63648e-05
1.17388e-05
6.40951e-06
3.73707e-07
-6.37046e-06
-1.38233e-05
-2.19839e-05
-3.08498e-05
-4.04168e-05
-5.06796e-05
-6.16323e-05
-7.32679e-05
-8.55787e-05
-9.85554e-05
-0.000112188
-0.000126465
-0.000141378
-0.000156914
-0.000173062
-0.000189809
-0.000207142
-0.000225045
-0.000243504
-0.000262504
-0.000282027
-0.000302058
-0.00032258
-0.000343577
-0.000365031
-0.000386926
-0.000409244
-0.000431969
-0.000455082
-0.000478568
-0.000502407
-0.000526582
-0.000551074
-0.000575864
-0.000600932
-0.00062626
-0.000651826
-0.000677612
-0.000703599
-0.000729769
-0.000756102
-0.000782581
-0.000809184
-0.000835892
-0.000862688
-0.00088955
-0.00091646
-0.000943396
-0.000970341
-0.000997274
-0.00102418
-0.00105103
-0.00107781
-0.0011045
-0.00113108
-0.00115753
-0.00118385
-0.00120999
-0.00123595
-0.00126171
-0.00128725
-0.00131254
-0.00133758
-0.00136233
-0.00138678
-0.00141092
-0.00143472
-0.00145816
-0.00148124
-0.00150392
-0.00152619
-0.00154804
-0.00156945
-0.00159039
-0.00161086
-0.00163083
-0.0016503
-0.00166923
-0.00168763
-0.00170547
-0.00172274
-0.00173942
-0.00175551
-0.00177098
-0.00178582
-0.00180003
-0.00181359
-0.00182649
-0.00183872
-0.00185028
-0.00186115
-0.00187133
-0.00188082
-0.0018896
-0.00189768
-0.00190506
-0.00191172
-0.00191767
-0.00192292
-0.00192746
-0.0019313
-0.00193445
-0.00193692
-0.00193872
-0.00193986
-0.00194036
-0.00194023
-0.00193949
-0.00193816
-0.00193625
-0.0019338
-0.00193083
-0.00192737
-0.00192347
-0.00191914
-0.00191442
-0.00190932
-0.00190388
-0.00189815
-0.00189217
-0.00188597
-0.00187957
-0.001873
-0.00186628
-0.00185945
-0.00185257
-0.00184505
-0.00183639
-8.29585e-05
-7.32166e-05
-6.4872e-05
-5.73384e-05
-4.99496e-05
-4.27482e-05
-3.57899e-05
-2.90859e-05
-2.26523e-05
-1.65121e-05
-1.06897e-05
-5.21102e-06
-1.03451e-07
4.60495e-06
8.8863e-06
1.27129e-05
1.60575e-05
1.88937e-05
2.11971e-05
2.29444e-05
2.41138e-05
2.46851e-05
2.464e-05
2.39628e-05
2.26394e-05
2.06573e-05
1.80058e-05
1.46765e-05
1.0662e-05
5.95645e-06
5.55448e-07
-5.54373e-06
-1.23424e-05
-1.98407e-05
-2.80375e-05
-3.69303e-05
-4.65149e-05
-5.67855e-05
-6.77359e-05
-7.93593e-05
-9.1648e-05
-0.000104593
-0.000118185
-0.000132413
-0.000147267
-0.000162736
-0.000178809
-0.000195472
-0.000212713
-0.000230516
-0.000248868
-0.000267753
-0.000287154
-0.000307057
-0.000327444
-0.000348299
-0.000369605
-0.000391347
-0.000413508
-0.00043607
-0.000459016
-0.000482328
-0.000505991
-0.000529985
-0.000554291
-0.000578892
-0.000603768
-0.0006289
-0.000654268
-0.000679853
-0.000705637
-0.000731601
-0.000757727
-0.000783997
-0.00081039
-0.000836888
-0.000863471
-0.00089012
-0.000916815
-0.000943537
-0.000970267
-0.000996985
-0.00102367
-0.00105031
-0.00107687
-0.00110335
-0.00112972
-0.00115597
-0.00118207
-0.00120801
-0.00123377
-0.00125933
-0.00128467
-0.00130976
-0.0013346
-0.00135916
-0.00138343
-0.00140738
-0.001431
-0.00145427
-0.00147718
-0.0014997
-0.00152181
-0.00154351
-0.00156476
-0.00158556
-0.00160589
-0.00162574
-0.00164508
-0.0016639
-0.00168219
-0.00169992
-0.0017171
-0.0017337
-0.0017497
-0.0017651
-0.00177989
-0.00179404
-0.00180756
-0.00182043
-0.00183264
-0.00184418
-0.00185505
-0.00186524
-0.00187474
-0.00188355
-0.00189166
-0.00189908
-0.0019058
-0.00191181
-0.00191713
-0.00192175
-0.00192568
-0.00192892
-0.00193149
-0.00193339
-0.00193463
-0.00193523
-0.00193521
-0.00193458
-0.00193336
-0.00193155
-0.00192918
-0.00192627
-0.00192287
-0.00191899
-0.00191467
-0.00190993
-0.00190479
-0.00189927
-0.0018934
-0.00188721
-0.00188076
-0.00187404
-0.00186707
-0.00185987
-0.00185249
-0.00184496
-0.00183663
-0.00182692
-9.2105e-05
-8.13489e-05
-7.22113e-05
-6.40431e-05
-5.6097e-05
-4.84136e-05
-4.10491e-05
-3.40089e-05
-2.7302e-05
-2.09445e-05
-1.4955e-05
-9.3543e-06
-4.16467e-06
5.91312e-07
4.8906e-06
8.70969e-06
1.2025e-05
1.48139e-05
1.70551e-05
1.87288e-05
1.98159e-05
2.0299e-05
2.01624e-05
1.93917e-05
1.79745e-05
1.59e-05
1.31588e-05
9.74366e-06
5.64818e-06
8.6726e-07
-4.60271e-06
-1.07638e-05
-1.7617e-05
-2.51621e-05
-3.33979e-05
-4.23214e-05
-5.19281e-05
-6.22122e-05
-7.31673e-05
-8.47863e-05
-9.70615e-05
-0.000109985
-0.000123546
-0.000137736
-0.000152543
-0.000167958
-0.000183968
-0.000200561
-0.000217724
-0.000235442
-0.000253701
-0.000272486
-0.000291781
-0.000311571
-0.000331839
-0.000352569
-0.000373746
-0.000395351
-0.000417371
-0.000439788
-0.000462584
-0.000485743
-0.000509246
-0.000533077
-0.000557217
-0.000581648
-0.00060635
-0.000631304
-0.000656492
-0.000681895
-0.000707495
-0.000733272
-0.00075921
-0.00078529
-0.000811493
-0.000837798
-0.000864188
-0.000890643
-0.000917143
-0.00094367
-0.000970203
-0.000996725
-0.00102322
-0.00104966
-0.00107603
-0.00110231
-0.00112849
-0.00115455
-0.00118046
-0.00120622
-0.00123179
-0.00125717
-0.00128232
-0.00130724
-0.00133191
-0.0013563
-0.00138039
-0.00140418
-0.00142764
-0.00145076
-0.00147351
-0.00149588
-0.00151785
-0.00153941
-0.00156053
-0.00158121
-0.00160142
-0.00162114
-0.00164038
-0.0016591
-0.00167729
-0.00169494
-0.00171204
-0.00172856
-0.0017445
-0.00175984
-0.00177458
-0.00178869
-0.00180218
-0.00181502
-0.00182722
-0.00183876
-0.00184963
-0.00185983
-0.00186935
-0.00187819
-0.00188634
-0.00189381
-0.00190057
-0.00190665
-0.00191203
-0.00191673
-0.00192074
-0.00192406
-0.00192672
-0.00192871
-0.00193005
-0.00193074
-0.00193081
-0.00193027
-0.00192912
-0.00192739
-0.00192508
-0.00192222
-0.00191884
-0.00191497
-0.00191062
-0.00190583
-0.00190061
-0.00189498
-0.00188895
-0.00188255
-0.00187581
-0.00186875
-0.00186138
-0.00185369
-0.00184575