/*--------------------------------*- C++ -*----------------------------------*\
  =========                 |
  \\      /  F ield         | OpenFOAM: The Open Source CFD Toolbox
   \\    /   O peration     | Website:  https://openfoam.org
    \\  /    A nd           | Version:  7
     \\/     M anipulation  |
\*---------------------------------------------------------------------------*/
FoamFile
{
    version     2.0;
    format      ascii;
    class       volVectorField;
    location    "0.4875";
    object      U;
}
// * * * * * * * * * * * * * * * * * * * * * * * * * * * * * * * * * * * * * //

dimensions      [0 1 -1 0 0 0 0];

internalField   nonuniform List<vector> 
51200
(
(-2.09692e-08 -1.80423e-09 0)
(-6.72507e-08 1.93657e-08 0)
(-1.25191e-07 2.82976e-08 0)
(-1.86105e-07 2.67184e-08 0)
(-2.3103e-07 1.96774e-08 0)
(-2.49398e-07 9.93724e-09 0)
(-2.36163e-07 -9.94433e-10 0)
(-1.88752e-07 -1.23028e-08 0)
(-1.06168e-07 -2.3546e-08 0)
(1.14486e-08 -3.44853e-08 0)
(1.63326e-07 -4.49729e-08 0)
(3.48307e-07 -5.49485e-08 0)
(5.64979e-07 -6.43752e-08 0)
(8.11747e-07 -7.32251e-08 0)
(1.08693e-06 -8.14919e-08 0)
(1.3888e-06 -8.91828e-08 0)
(1.71559e-06 -9.63018e-08 0)
(2.06555e-06 -1.02865e-07 0)
(2.43694e-06 -1.08895e-07 0)
(2.82806e-06 -1.14404e-07 0)
(3.23721e-06 -1.19403e-07 0)
(3.66283e-06 -1.23916e-07 0)
(4.10335e-06 -1.27975e-07 0)
(4.55722e-06 -1.31591e-07 0)
(5.02295e-06 -1.34772e-07 0)
(5.49913e-06 -1.37535e-07 0)
(5.98441e-06 -1.39903e-07 0)
(6.47746e-06 -1.41893e-07 0)
(6.97701e-06 -1.43525e-07 0)
(7.48185e-06 -1.44816e-07 0)
(7.99082e-06 -1.45782e-07 0)
(8.5028e-06 -1.4643e-07 0)
(9.01671e-06 -1.46774e-07 0)
(9.53155e-06 -1.46831e-07 0)
(1.00464e-05 -1.46619e-07 0)
(1.05602e-05 -1.46153e-07 0)
(1.10721e-05 -1.45443e-07 0)
(1.15814e-05 -1.44502e-07 0)
(1.20871e-05 -1.43341e-07 0)
(1.25886e-05 -1.41971e-07 0)
(1.30851e-05 -1.40401e-07 0)
(1.35759e-05 -1.38642e-07 0)
(1.40604e-05 -1.36706e-07 0)
(1.4538e-05 -1.34601e-07 0)
(1.5008e-05 -1.32338e-07 0)
(1.547e-05 -1.29926e-07 0)
(1.59234e-05 -1.27376e-07 0)
(1.63677e-05 -1.24696e-07 0)
(1.68024e-05 -1.21891e-07 0)
(1.72271e-05 -1.18966e-07 0)
(1.76415e-05 -1.15928e-07 0)
(1.80451e-05 -1.12783e-07 0)
(1.84375e-05 -1.09542e-07 0)
(1.88184e-05 -1.06211e-07 0)
(1.91876e-05 -1.02798e-07 0)
(1.95446e-05 -9.93053e-08 0)
(1.98892e-05 -9.5738e-08 0)
(2.02212e-05 -9.2101e-08 0)
(2.05403e-05 -8.84001e-08 0)
(2.08463e-05 -8.46412e-08 0)
(2.1139e-05 -8.08291e-08 0)
(2.14182e-05 -7.69676e-08 0)
(2.16836e-05 -7.30593e-08 0)
(2.19352e-05 -6.91069e-08 0)
(2.21728e-05 -6.51142e-08 0)
(2.23962e-05 -6.10859e-08 0)
(2.26053e-05 -5.70253e-08 0)
(2.28e-05 -5.29331e-08 0)
(2.29802e-05 -4.881e-08 0)
(2.31458e-05 -4.46591e-08 0)
(2.32967e-05 -4.04857e-08 0)
(2.34328e-05 -3.62946e-08 0)
(2.3554e-05 -3.20877e-08 0)
(2.36603e-05 -2.78657e-08 0)
(2.37516e-05 -2.36297e-08 0)
(2.38278e-05 -1.93823e-08 0)
(2.3889e-05 -1.51266e-08 0)
(2.39352e-05 -1.08644e-08 0)
(2.39662e-05 -6.59631e-09 0)
(2.3982e-05 -2.3227e-09 0)
(2.39827e-05 1.95513e-09 0)
(2.39683e-05 6.2348e-09 0)
(2.39387e-05 1.05132e-08 0)
(2.38941e-05 1.47866e-08 0)
(2.38342e-05 1.90517e-08 0)
(2.37593e-05 2.33072e-08 0)
(2.36694e-05 2.75535e-08 0)
(2.35643e-05 3.1791e-08 0)
(2.34443e-05 3.60172e-08 0)
(2.33094e-05 4.02269e-08 0)
(2.31596e-05 4.44146e-08 0)
(2.29951e-05 4.85771e-08 0)
(2.28158e-05 5.27144e-08 0)
(2.26219e-05 5.68267e-08 0)
(2.24136e-05 6.0913e-08 0)
(2.21908e-05 6.49697e-08 0)
(2.19539e-05 6.89929e-08 0)
(2.17028e-05 7.2978e-08 0)
(2.14377e-05 7.69196e-08 0)
(2.11589e-05 8.08125e-08 0)
(2.08664e-05 8.46539e-08 0)
(2.05605e-05 8.84432e-08 0)
(2.02414e-05 9.21771e-08 0)
(1.99093e-05 9.58467e-08 0)
(1.95645e-05 9.94422e-08 0)
(1.92072e-05 1.02959e-07 0)
(1.88376e-05 1.06399e-07 0)
(1.84561e-05 1.09757e-07 0)
(1.80631e-05 1.13026e-07 0)
(1.76588e-05 1.16193e-07 0)
(1.72436e-05 1.19252e-07 0)
(1.6818e-05 1.22201e-07 0)
(1.63823e-05 1.25032e-07 0)
(1.5937e-05 1.27733e-07 0)
(1.54825e-05 1.30301e-07 0)
(1.50194e-05 1.32733e-07 0)
(1.45481e-05 1.35018e-07 0)
(1.40693e-05 1.37138e-07 0)
(1.35835e-05 1.3908e-07 0)
(1.30913e-05 1.40839e-07 0)
(1.25935e-05 1.42411e-07 0)
(1.20906e-05 1.43778e-07 0)
(1.15835e-05 1.44927e-07 0)
(1.10729e-05 1.45857e-07 0)
(1.05596e-05 1.46566e-07 0)
(1.00444e-05 1.47039e-07 0)
(9.52841e-06 1.47238e-07 0)
(9.01241e-06 1.47141e-07 0)
(8.49737e-06 1.46752e-07 0)
(7.9843e-06 1.46082e-07 0)
(7.47428e-06 1.4512e-07 0)
(6.96851e-06 1.43825e-07 0)
(6.46814e-06 1.42161e-07 0)
(5.97437e-06 1.40115e-07 0)
(5.48842e-06 1.37695e-07 0)
(5.01161e-06 1.34902e-07 0)
(4.54538e-06 1.31706e-07 0)
(4.09117e-06 1.28072e-07 0)
(3.65045e-06 1.23976e-07 0)
(3.22472e-06 1.1941e-07 0)
(2.81556e-06 1.1436e-07 0)
(2.42459e-06 1.08813e-07 0)
(2.05348e-06 1.02752e-07 0)
(1.70395e-06 9.61562e-08 0)
(1.37772e-06 8.90059e-08 0)
(1.07653e-06 8.12914e-08 0)
(8.02109e-07 7.3008e-08 0)
(5.56199e-07 6.41473e-08 0)
(3.40498e-07 5.46978e-08 0)
(1.56585e-07 4.46691e-08 0)
(5.81573e-09 3.41284e-08 0)
(-1.10724e-07 2.319e-08 0)
(-1.92212e-07 1.19654e-08 0)
(-2.38296e-07 5.5697e-10 0)
(-2.49797e-07 -1.06764e-08 0)
(-2.29563e-07 -2.07941e-08 0)
(-1.8302e-07 -2.80384e-08 0)
(-1.18692e-07 -3.0227e-08 0)
(-5.24717e-08 -2.42407e-08 0)
(-1.04973e-08 -8.36383e-09 0)
(-3.31116e-08 3.26249e-08 0)
(-1.21615e-07 9.62771e-08 0)
(-2.34242e-07 1.13895e-07 0)
(-3.30561e-07 9.45001e-08 0)
(-3.78635e-07 5.20555e-08 0)
(-3.58675e-07 -4.1105e-09 0)
(-2.58166e-07 -6.78822e-08 0)
(-6.96703e-08 -1.35209e-07 0)
(2.10515e-07 -2.03559e-07 0)
(5.83402e-07 -2.71295e-07 0)
(1.04807e-06 -3.37349e-07 0)
(1.60233e-06 -4.01008e-07 0)
(2.24309e-06 -4.61837e-07 0)
(2.96665e-06 -5.19555e-07 0)
(3.76891e-06 -5.73967e-07 0)
(4.64547e-06 -6.24978e-07 0)
(5.59178e-06 -6.72571e-07 0)
(6.60326e-06 -7.16752e-07 0)
(7.67529e-06 -7.57559e-07 0)
(8.80325e-06 -7.95061e-07 0)
(9.98261e-06 -8.29326e-07 0)
(1.12089e-05 -8.60426e-07 0)
(1.24779e-05 -8.88465e-07 0)
(1.37852e-05 -9.13559e-07 0)
(1.51268e-05 -9.35793e-07 0)
(1.64986e-05 -9.55246e-07 0)
(1.78968e-05 -9.72025e-07 0)
(1.93177e-05 -9.86246e-07 0)
(2.07577e-05 -9.98013e-07 0)
(2.22132e-05 -1.00742e-06 0)
(2.36811e-05 -1.01458e-06 0)
(2.51581e-05 -1.01958e-06 0)
(2.66412e-05 -1.02249e-06 0)
(2.81273e-05 -1.02342e-06 0)
(2.96137e-05 -1.02246e-06 0)
(3.10978e-05 -1.0197e-06 0)
(3.2577e-05 -1.01524e-06 0)
(3.40487e-05 -1.00914e-06 0)
(3.55108e-05 -1.00148e-06 0)
(3.6961e-05 -9.92352e-07 0)
(3.83971e-05 -9.81815e-07 0)
(3.98172e-05 -9.69943e-07 0)
(4.12195e-05 -9.56807e-07 0)
(4.2602e-05 -9.42474e-07 0)
(4.3963e-05 -9.27009e-07 0)
(4.53011e-05 -9.10475e-07 0)
(4.66145e-05 -8.92936e-07 0)
(4.79019e-05 -8.74447e-07 0)
(4.9162e-05 -8.5506e-07 0)
(5.03934e-05 -8.34821e-07 0)
(5.15948e-05 -8.13777e-07 0)
(5.27653e-05 -7.91977e-07 0)
(5.39037e-05 -7.69471e-07 0)
(5.50089e-05 -7.46309e-07 0)
(5.60801e-05 -7.22535e-07 0)
(5.71164e-05 -6.98186e-07 0)
(5.81169e-05 -6.73295e-07 0)
(5.90808e-05 -6.47898e-07 0)
(6.00075e-05 -6.22033e-07 0)
(6.08962e-05 -5.95733e-07 0)
(6.17463e-05 -5.69032e-07 0)
(6.25573e-05 -5.41958e-07 0)
(6.33286e-05 -5.14539e-07 0)
(6.40597e-05 -4.86796e-07 0)
(6.47501e-05 -4.58755e-07 0)
(6.53995e-05 -4.30442e-07 0)
(6.60074e-05 -4.01881e-07 0)
(6.65734e-05 -3.73093e-07 0)
(6.70973e-05 -3.44093e-07 0)
(6.75788e-05 -3.14898e-07 0)
(6.80175e-05 -2.85533e-07 0)
(6.84132e-05 -2.56021e-07 0)
(6.87658e-05 -2.26383e-07 0)
(6.90749e-05 -1.96629e-07 0)
(6.93405e-05 -1.66772e-07 0)
(6.95624e-05 -1.36826e-07 0)
(6.97405e-05 -1.06808e-07 0)
(6.98747e-05 -7.67347e-08 0)
(6.9965e-05 -4.66194e-08 0)
(7.00112e-05 -1.64734e-08 0)
(7.00134e-05 1.36908e-08 0)
(6.99715e-05 4.38589e-08 0)
(6.98856e-05 7.40151e-08 0)
(6.97556e-05 1.04142e-07 0)
(6.95817e-05 1.34222e-07 0)
(6.93639e-05 1.64238e-07 0)
(6.91023e-05 1.94177e-07 0)
(6.8797e-05 2.24032e-07 0)
(6.84481e-05 2.53789e-07 0)
(6.80559e-05 2.83426e-07 0)
(6.76204e-05 3.1292e-07 0)
(6.7142e-05 3.42248e-07 0)
(6.6621e-05 3.71394e-07 0)
(6.60575e-05 4.00344e-07 0)
(6.5452e-05 4.29083e-07 0)
(6.48047e-05 4.57588e-07 0)
(6.41161e-05 4.85831e-07 0)
(6.33866e-05 5.13787e-07 0)
(6.26166e-05 5.41427e-07 0)
(6.18066e-05 5.68717e-07 0)
(6.09572e-05 5.95628e-07 0)
(6.00689e-05 6.22135e-07 0)
(5.91423e-05 6.48217e-07 0)
(5.81782e-05 6.73835e-07 0)
(5.71772e-05 6.98941e-07 0)
(5.61401e-05 7.23489e-07 0)
(5.50678e-05 7.47452e-07 0)
(5.39611e-05 7.70804e-07 0)
(5.2821e-05 7.93496e-07 0)
(5.16485e-05 8.15472e-07 0)
(5.04448e-05 8.36682e-07 0)
(4.92109e-05 8.57088e-07 0)
(4.79482e-05 8.7664e-07 0)
(4.66578e-05 8.95275e-07 0)
(4.53413e-05 9.12937e-07 0)
(4.4e-05 9.29581e-07 0)
(4.26355e-05 9.45155e-07 0)
(4.12494e-05 9.59578e-07 0)
(3.98435e-05 9.7277e-07 0)
(3.84195e-05 9.84672e-07 0)
(3.69795e-05 9.95232e-07 0)
(3.55255e-05 1.00437e-06 0)
(3.40595e-05 1.012e-06 0)
(3.25839e-05 1.01805e-06 0)
(3.11009e-05 1.02246e-06 0)
(2.96131e-05 1.02518e-06 0)
(2.8123e-05 1.02608e-06 0)
(2.66333e-05 1.02503e-06 0)
(2.5147e-05 1.02194e-06 0)
(2.3667e-05 1.01678e-06 0)
(2.21961e-05 1.0095e-06 0)
(2.07378e-05 9.99966e-07 0)
(1.92953e-05 9.88035e-07 0)
(1.78721e-05 9.73576e-07 0)
(1.64719e-05 9.56525e-07 0)
(1.50984e-05 9.3684e-07 0)
(1.37553e-05 9.14425e-07 0)
(1.24469e-05 8.89137e-07 0)
(1.11771e-05 8.60853e-07 0)
(9.95036e-06 8.2949e-07 0)
(8.77092e-06 7.9497e-07 0)
(7.64325e-06 7.57219e-07 0)
(6.57189e-06 7.16172e-07 0)
(5.56143e-06 6.71769e-07 0)
(4.61648e-06 6.23963e-07 0)
(3.74162e-06 5.72743e-07 0)
(2.94135e-06 5.18158e-07 0)
(2.22e-06 4.60308e-07 0)
(1.58166e-06 3.9934e-07 0)
(1.03007e-06 3.35488e-07 0)
(5.6832e-07 2.69214e-07 0)
(1.98434e-07 2.01366e-07 0)
(-7.88978e-08 1.33089e-07 0)
(-2.6451e-07 6.57691e-08 0)
(-3.61459e-07 1.38004e-09 0)
(-3.76874e-07 -5.62738e-08 0)
(-3.24183e-07 -1.00406e-07 0)
(-2.2445e-07 -1.21112e-07 0)
(-1.12158e-07 -1.06188e-07 0)
(-2.80278e-08 -4.70434e-08 0)
(-3.43217e-08 1.08308e-07 0)
(-1.27782e-07 2.14633e-07 0)
(-2.37884e-07 2.22544e-07 0)
(-3.07255e-07 1.5647e-07 0)
(-2.97103e-07 3.95012e-08 0)
(-1.8247e-07 -1.10663e-07 0)
(5.37319e-08 -2.81006e-07 0)
(4.22456e-07 -4.62208e-07 0)
(9.2976e-07 -6.47737e-07 0)
(1.57793e-06 -8.33123e-07 0)
(2.36652e-06 -1.01522e-06 0)
(3.29293e-06 -1.19187e-06 0)
(4.35315e-06 -1.3616e-06 0)
(5.5421e-06 -1.52341e-06 0)
(6.85393e-06 -1.67664e-06 0)
(8.28224e-06 -1.8209e-06 0)
(9.82034e-06 -1.95596e-06 0)
(1.14613e-05 -2.08173e-06 0)
(1.31982e-05 -2.19824e-06 0)
(1.50239e-05 -2.30561e-06 0)
(1.69316e-05 -2.40398e-06 0)
(1.89141e-05 -2.4935e-06 0)
(2.09649e-05 -2.57441e-06 0)
(2.30773e-05 -2.64694e-06 0)
(2.52447e-05 -2.71136e-06 0)
(2.74609e-05 -2.76791e-06 0)
(2.97198e-05 -2.81686e-06 0)
(3.20155e-05 -2.8585e-06 0)
(3.43421e-05 -2.89308e-06 0)
(3.66943e-05 -2.92087e-06 0)
(3.90666e-05 -2.94217e-06 0)
(4.14541e-05 -2.95723e-06 0)
(4.38517e-05 -2.96631e-06 0)
(4.62548e-05 -2.96965e-06 0)
(4.86588e-05 -2.96752e-06 0)
(5.10595e-05 -2.96015e-06 0)
(5.34526e-05 -2.94781e-06 0)
(5.58342e-05 -2.93071e-06 0)
(5.82006e-05 -2.90908e-06 0)
(6.05482e-05 -2.88314e-06 0)
(6.28736e-05 -2.8531e-06 0)
(6.51734e-05 -2.81916e-06 0)
(6.74447e-05 -2.78152e-06 0)
(6.96844e-05 -2.74037e-06 0)
(7.18898e-05 -2.69591e-06 0)
(7.40583e-05 -2.6483e-06 0)
(7.61872e-05 -2.59773e-06 0)
(7.82744e-05 -2.54435e-06 0)
(8.03175e-05 -2.48833e-06 0)
(8.23143e-05 -2.42981e-06 0)
(8.42631e-05 -2.36893e-06 0)
(8.61618e-05 -2.30583e-06 0)
(8.80086e-05 -2.24065e-06 0)
(8.9802e-05 -2.17353e-06 0)
(9.15404e-05 -2.10457e-06 0)
(9.32223e-05 -2.03391e-06 0)
(9.48464e-05 -1.96165e-06 0)
(9.64113e-05 -1.8879e-06 0)
(9.79158e-05 -1.81275e-06 0)
(9.93589e-05 -1.73631e-06 0)
(0.00010074 -1.65866e-06 0)
(0.000102057 -1.5799e-06 0)
(0.000103309 -1.5001e-06 0)
(0.000104497 -1.41935e-06 0)
(0.000105619 -1.33771e-06 0)
(0.000106674 -1.25525e-06 0)
(0.000107661 -1.17205e-06 0)
(0.000108581 -1.08817e-06 0)
(0.000109433 -1.00366e-06 0)
(0.000110215 -9.18592e-07 0)
(0.000110928 -8.33009e-07 0)
(0.000111571 -7.46972e-07 0)
(0.000112144 -6.6054e-07 0)
(0.000112647 -5.73761e-07 0)
(0.000113079 -4.86677e-07 0)
(0.000113439 -3.9933e-07 0)
(0.000113729 -3.11763e-07 0)
(0.000113947 -2.24023e-07 0)
(0.000114094 -1.36155e-07 0)
(0.000114169 -4.82028e-08 0)
(0.000114173 3.97922e-08 0)
(0.000114105 1.27789e-07 0)
(0.000113965 2.15745e-07 0)
(0.000113754 3.03618e-07 0)
(0.000113472 3.91365e-07 0)
(0.000113118 4.78934e-07 0)
(0.000112693 5.66278e-07 0)
(0.000112196 6.5335e-07 0)
(0.00011163 7.40107e-07 0)
(0.000110992 8.26502e-07 0)
(0.000110285 9.1248e-07 0)
(0.000109507 9.97982e-07 0)
(0.000108661 1.08295e-06 0)
(0.000107745 1.16732e-06 0)
(0.000106762 1.25104e-06 0)
(0.00010571 1.33405e-06 0)
(0.000104592 1.41626e-06 0)
(0.000103407 1.49762e-06 0)
(0.000102156 1.57803e-06 0)
(0.000100841 1.65741e-06 0)
(9.94616e-05 1.73568e-06 0)
(9.80193e-05 1.81274e-06 0)
(9.65151e-05 1.8885e-06 0)
(9.495e-05 1.96287e-06 0)
(9.33252e-05 2.03575e-06 0)
(9.16421e-05 2.10702e-06 0)
(8.9902e-05 2.17655e-06 0)
(8.81064e-05 2.24423e-06 0)
(8.62569e-05 2.30996e-06 0)
(8.43551e-05 2.37358e-06 0)
(8.24029e-05 2.43497e-06 0)
(8.04021e-05 2.49396e-06 0)
(7.83547e-05 2.55044e-06 0)
(7.62629e-05 2.60424e-06 0)
(7.4129e-05 2.65518e-06 0)
(7.19554e-05 2.7031e-06 0)
(6.97445e-05 2.74784e-06 0)
(6.7499e-05 2.78923e-06 0)
(6.52219e-05 2.82706e-06 0)
(6.2916e-05 2.86112e-06 0)
(6.05845e-05 2.89123e-06 0)
(5.82306e-05 2.91722e-06 0)
(5.58579e-05 2.93884e-06 0)
(5.34701e-05 2.95585e-06 0)
(5.10708e-05 2.96803e-06 0)
(4.86641e-05 2.97519e-06 0)
(4.62542e-05 2.97711e-06 0)
(4.38454e-05 2.97352e-06 0)
(4.14424e-05 2.96412e-06 0)
(3.90498e-05 2.94864e-06 0)
(3.66726e-05 2.92687e-06 0)
(3.4316e-05 2.8986e-06 0)
(3.19851e-05 2.86355e-06 0)
(2.96857e-05 2.82139e-06 0)
(2.74234e-05 2.77182e-06 0)
(2.52043e-05 2.71462e-06 0)
(2.30345e-05 2.64955e-06 0)
(2.09201e-05 2.57637e-06 0)
(1.88679e-05 2.4948e-06 0)
(1.68844e-05 2.40461e-06 0)
(1.49765e-05 2.30557e-06 0)
(1.3151e-05 2.19751e-06 0)
(1.14149e-05 2.08031e-06 0)
(9.77528e-06 1.95387e-06 0)
(8.23905e-06 1.8182e-06 0)
(6.81312e-06 1.67336e-06 0)
(5.50415e-06 1.51958e-06 0)
(4.31843e-06 1.35729e-06 0)
(3.26174e-06 1.18716e-06 0)
(2.33915e-06 1.01016e-06 0)
(1.55476e-06 8.27682e-07 0)
(9.11078e-07 6.41894e-07 0)
(4.08239e-07 4.56183e-07 0)
(4.35822e-08 2.75198e-07 0)
(-1.88786e-07 1.05008e-07 0)
(-2.98945e-07 -4.61827e-08 0)
(-3.03986e-07 -1.6564e-07 0)
(-2.30429e-07 -2.34171e-07 0)
(-1.21688e-07 -2.26449e-07 0)
(-3.22763e-08 -1.1519e-07 0)
(-2.94591e-08 1.78408e-07 0)
(-1.02401e-07 3.17158e-07 0)
(-1.67674e-07 2.93745e-07 0)
(-1.64038e-07 1.52156e-07 0)
(-4.97693e-08 -7.30298e-08 0)
(2.02731e-07 -3.54823e-07 0)
(6.13137e-07 -6.72634e-07 0)
(1.19454e-06 -1.01104e-06 0)
(1.95452e-06 -1.3588e-06 0)
(2.8964e-06 -1.70768e-06 0)
(4.02014e-06 -2.05185e-06 0)
(5.32313e-06 -2.38704e-06 0)
(6.80078e-06 -2.71027e-06 0)
(8.44709e-06 -3.01942e-06 0)
(1.02549e-05 -3.31308e-06 0)
(1.22165e-05 -3.5903e-06 0)
(1.43233e-05 -3.8505e-06 0)
(1.65666e-05 -4.09337e-06 0)
(1.89376e-05 -4.31886e-06 0)
(2.1427e-05 -4.52703e-06 0)
(2.40259e-05 -4.71809e-06 0)
(2.67254e-05 -4.89231e-06 0)
(2.95163e-05 -5.05005e-06 0)
(3.23901e-05 -5.1917e-06 0)
(3.53382e-05 -5.3177e-06 0)
(3.83522e-05 -5.42854e-06 0)
(4.1424e-05 -5.52468e-06 0)
(4.45456e-05 -5.60664e-06 0)
(4.77095e-05 -5.67491e-06 0)
(5.09082e-05 -5.72998e-06 0)
(5.41346e-05 -5.77238e-06 0)
(5.73818e-05 -5.8026e-06 0)
(6.06432e-05 -5.82113e-06 0)
(6.39125e-05 -5.82846e-06 0)
(6.71834e-05 -5.82507e-06 0)
(7.04502e-05 -5.81143e-06 0)
(7.37072e-05 -5.78799e-06 0)
(7.6949e-05 -5.75521e-06 0)
(8.01707e-05 -5.71353e-06 0)
(8.33672e-05 -5.66335e-06 0)
(8.65339e-05 -5.6051e-06 0)
(8.96663e-05 -5.53917e-06 0)
(9.27603e-05 -5.46594e-06 0)
(9.58118e-05 -5.38579e-06 0)
(9.88169e-05 -5.29908e-06 0)
(0.000101772 -5.20616e-06 0)
(0.000104674 -5.10736e-06 0)
(0.000107519 -5.003e-06 0)
(0.000110305 -4.8934e-06 0)
(0.000113028 -4.77884e-06 0)
(0.000115685 -4.65961e-06 0)
(0.000118275 -4.53599e-06 0)
(0.000120794 -4.40824e-06 0)
(0.000123241 -4.27661e-06 0)
(0.000125613 -4.14135e-06 0)
(0.000127908 -4.00268e-06 0)
(0.000130124 -3.86082e-06 0)
(0.00013226 -3.71599e-06 0)
(0.000134314 -3.56837e-06 0)
(0.000136284 -3.41817e-06 0)
(0.000138169 -3.26556e-06 0)
(0.000139967 -3.11072e-06 0)
(0.000141678 -2.95381e-06 0)
(0.0001433 -2.79498e-06 0)
(0.000144831 -2.63438e-06 0)
(0.000146272 -2.47215e-06 0)
(0.000147621 -2.30842e-06 0)
(0.000148878 -2.14332e-06 0)
(0.000150041 -1.97698e-06 0)
(0.00015111 -1.80951e-06 0)
(0.000152084 -1.64102e-06 0)
(0.000152963 -1.47161e-06 0)
(0.000153746 -1.3014e-06 0)
(0.000154432 -1.13048e-06 0)
(0.000155022 -9.58945e-07 0)
(0.000155516 -7.86888e-07 0)
(0.000155911 -6.14395e-07 0)
(0.00015621 -4.41554e-07 0)
(0.00015641 -2.68457e-07 0)
(0.000156513 -9.519e-08 0)
(0.000156518 7.81619e-08 0)
(0.000156426 2.51515e-07 0)
(0.000156235 4.24784e-07 0)
(0.000155947 5.97883e-07 0)
(0.000155561 7.70725e-07 0)
(0.000155077 9.43217e-07 0)
(0.000154496 1.11526e-06 0)
(0.000153819 1.28676e-06 0)
(0.000153044 1.45762e-06 0)
(0.000152174 1.62774e-06 0)
(0.000151207 1.79703e-06 0)
(0.000150146 1.96536e-06 0)
(0.00014899 2.13262e-06 0)
(0.000147739 2.29869e-06 0)
(0.000146396 2.46345e-06 0)
(0.00014496 2.62676e-06 0)
(0.000143433 2.78848e-06 0)
(0.000141815 2.94847e-06 0)
(0.000140108 3.10657e-06 0)
(0.000138312 3.26262e-06 0)
(0.000136429 3.41645e-06 0)
(0.00013446 3.56788e-06 0)
(0.000132407 3.71671e-06 0)
(0.000130271 3.86275e-06 0)
(0.000128054 4.00582e-06 0)
(0.000125758 4.14568e-06 0)
(0.000123384 4.2821e-06 0)
(0.000120934 4.41484e-06 0)
(0.000118411 4.54368e-06 0)
(0.000115818 4.66835e-06 0)
(0.000113155 4.78857e-06 0)
(0.000110427 4.90407e-06 0)
(0.000107636 5.01454e-06 0)
(0.000104785 5.11972e-06 0)
(0.000101876 5.21926e-06 0)
(9.89141e-05 5.31282e-06 0)
(9.59016e-05 5.40009e-06 0)
(9.28424e-05 5.48071e-06 0)
(8.97405e-05 5.55433e-06 0)
(8.65999e-05 5.62054e-06 0)
(8.34249e-05 5.67896e-06 0)
(8.022e-05 5.7292e-06 0)
(7.69899e-05 5.77088e-06 0)
(7.37395e-05 5.80356e-06 0)
(7.04741e-05 5.82675e-06 0)
(6.71992e-05 5.84002e-06 0)
(6.39202e-05 5.84296e-06 0)
(6.06432e-05 5.83511e-06 0)
(5.73743e-05 5.81599e-06 0)
(5.412e-05 5.78507e-06 0)
(5.08869e-05 5.74183e-06 0)
(4.7682e-05 5.68582e-06 0)
(4.45123e-05 5.61657e-06 0)
(4.13853e-05 5.53359e-06 0)
(3.83088e-05 5.43635e-06 0)
(3.52906e-05 5.32431e-06 0)
(3.2339e-05 5.19705e-06 0)
(2.94624e-05 5.05413e-06 0)
(2.66692e-05 4.89511e-06 0)
(2.39683e-05 4.71959e-06 0)
(2.13686e-05 4.52723e-06 0)
(1.88791e-05 4.31775e-06 0)
(1.65089e-05 4.09096e-06 0)
(1.4267e-05 3.84682e-06 0)
(1.21624e-05 3.58542e-06 0)
(1.02036e-05 3.30708e-06 0)
(8.3991e-06 3.01237e-06 0)
(6.75671e-06 2.70226e-06 0)
(5.28339e-06 2.37823e-06 0)
(3.98503e-06 2.04243e-06 0)
(2.86623e-06 1.69777e-06 0)
(1.92973e-06 1.34832e-06 0)
(1.17547e-06 1e-06 0)
(5.99552e-07 6.61435e-07 0)
(1.93698e-07 3.44152e-07 0)
(-5.50056e-08 6.30329e-08 0)
(-1.65169e-07 -1.62453e-07 0)
(-1.64642e-07 -3.04897e-07 0)
(-9.87085e-08 -3.27426e-07 0)
(-2.83533e-08 -1.82568e-07 0)
(-2.10132e-08 2.27126e-07 0)
(-5.67765e-08 3.69854e-07 0)
(-4.76485e-08 2.86407e-07 0)
(6.30858e-08 3.89315e-08 0)
(3.16172e-07 -3.26359e-07 0)
(7.39986e-07 -7.73095e-07 0)
(1.35512e-06 -1.27301e-06 0)
(2.17548e-06 -1.80457e-06 0)
(3.20946e-06 -2.35142e-06 0)
(4.46088e-06 -2.90135e-06 0)
(5.93001e-06 -3.44528e-06 0)
(7.61415e-06 -3.97655e-06 0)
(9.50837e-06 -4.49024e-06 0)
(1.1606e-05 -4.98284e-06 0)
(1.38989e-05 -5.45188e-06 0)
(1.63781e-05 -5.89565e-06 0)
(1.9034e-05 -6.31305e-06 0)
(2.18563e-05 -6.70343e-06 0)
(2.48343e-05 -7.06653e-06 0)
(2.79574e-05 -7.4023e-06 0)
(3.12148e-05 -7.71094e-06 0)
(3.45957e-05 -7.99282e-06 0)
(3.80893e-05 -8.24842e-06 0)
(4.16851e-05 -8.47829e-06 0)
(4.53727e-05 -8.68308e-06 0)
(4.91418e-05 -8.86349e-06 0)
(5.29826e-05 -9.02025e-06 0)
(5.68854e-05 -9.15411e-06 0)
(6.08408e-05 -9.26586e-06 0)
(6.48396e-05 -9.35626e-06 0)
(6.88731e-05 -9.42611e-06 0)
(7.29328e-05 -9.47619e-06 0)
(7.70104e-05 -9.50729e-06 0)
(8.10981e-05 -9.52016e-06 0)
(8.51883e-05 -9.51559e-06 0)
(8.92738e-05 -9.4943e-06 0)
(9.33474e-05 -9.45704e-06 0)
(9.74026e-05 -9.40451e-06 0)
(0.000101433 -9.33741e-06 0)
(0.000105432 -9.25644e-06 0)
(0.000109395 -9.16223e-06 0)
(0.000113315 -9.05545e-06 0)
(0.000117187 -8.93671e-06 0)
(0.000121007 -8.80662e-06 0)
(0.00012477 -8.66575e-06 0)
(0.00012847 -8.51467e-06 0)
(0.000132104 -8.35393e-06 0)
(0.000135667 -8.18405e-06 0)
(0.000139156 -8.00553e-06 0)
(0.000142567 -7.81885e-06 0)
(0.000145896 -7.62448e-06 0)
(0.000149141 -7.42288e-06 0)
(0.000152298 -7.21445e-06 0)
(0.000155364 -6.99963e-06 0)
(0.000158337 -6.7788e-06 0)
(0.000161214 -6.55234e-06 0)
(0.000163993 -6.32061e-06 0)
(0.00016667 -6.08395e-06 0)
(0.000169245 -5.84269e-06 0)
(0.000171716 -5.59714e-06 0)
(0.000174079 -5.3476e-06 0)
(0.000176335 -5.09435e-06 0)
(0.00017848 -4.83767e-06 0)
(0.000180515 -4.5778e-06 0)
(0.000182436 -4.315e-06 0)
(0.000184244 -4.04948e-06 0)
(0.000185936 -3.78148e-06 0)
(0.000187513 -3.51119e-06 0)
(0.000188972 -3.23884e-06 0)
(0.000190313 -2.9646e-06 0)
(0.000191536 -2.68867e-06 0)
(0.000192638 -2.41122e-06 0)
(0.000193621 -2.13242e-06 0)
(0.000194483 -1.85244e-06 0)
(0.000195224 -1.57144e-06 0)
(0.000195842 -1.28956e-06 0)
(0.000196339 -1.00696e-06 0)
(0.000196714 -7.23782e-07 0)
(0.000196966 -4.40176e-07 0)
(0.000197095 -1.56288e-07 0)
(0.000197102 1.27741e-07 0)
(0.000196986 4.11771e-07 0)
(0.000196747 6.9566e-07 0)
(0.000196385 9.79263e-07 0)
(0.000195901 1.26243e-06 0)
(0.000195294 1.54501e-06 0)
(0.000194565 1.82686e-06 0)
(0.000193715 2.10779e-06 0)
(0.000192744 2.38766e-06 0)
(0.000191651 2.6663e-06 0)
(0.000190439 2.94353e-06 0)
(0.000189108 3.21917e-06 0)
(0.000187657 3.49304e-06 0)
(0.000186089 3.76493e-06 0)
(0.000184404 4.03462e-06 0)
(0.000182603 4.3019e-06 0)
(0.000180688 4.56655e-06 0)
(0.000178659 4.82831e-06 0)
(0.000176517 5.08693e-06 0)
(0.000174266 5.34215e-06 0)
(0.000171905 5.59369e-06 0)
(0.000169436 5.84125e-06 0)
(0.000166862 6.08452e-06 0)
(0.000164185 6.32317e-06 0)
(0.000161405 6.55687e-06 0)
(0.000158527 6.78528e-06 0)
(0.000155552 7.00801e-06 0)
(0.000152482 7.22468e-06 0)
(0.000149321 7.43489e-06 0)
(0.000146072 7.63821e-06 0)
(0.000142736 7.83423e-06 0)
(0.000139319 8.02246e-06 0)
(0.000135823 8.20242e-06 0)
(0.000132252 8.37363e-06 0)
(0.00012861 8.53559e-06 0)
(0.000124902 8.68775e-06 0)
(0.00012113 8.82955e-06 0)
(0.000117301 8.96043e-06 0)
(0.000113419 9.07982e-06 0)
(0.000109488 9.18711e-06 0)
(0.000105515 9.28163e-06 0)
(0.000101506 9.36276e-06 0)
(9.74646e-05 9.42983e-06 0)
(9.33989e-05 9.48221e-06 0)
(8.93147e-05 9.51916e-06 0)
(8.5219e-05 9.53994e-06 0)
(8.11187e-05 9.54382e-06 0)
(7.70212e-05 9.53009e-06 0)
(7.29341e-05 9.49802e-06 0)
(6.88653e-05 9.44684e-06 0)
(6.48233e-05 9.37572e-06 0)
(6.08164e-05 9.28388e-06 0)
(5.68536e-05 9.17055e-06 0)
(5.2944e-05 9.03501e-06 0)
(4.9097e-05 8.87649e-06 0)
(4.53224e-05 8.69421e-06 0)
(4.16301e-05 8.48744e-06 0)
(3.80304e-05 8.25554e-06 0)
(3.45337e-05 7.99788e-06 0)
(3.11507e-05 7.71391e-06 0)
(2.78919e-05 7.40316e-06 0)
(2.47683e-05 7.0653e-06 0)
(2.17907e-05 6.70016e-06 0)
(1.89698e-05 6.30776e-06 0)
(1.6316e-05 5.88843e-06 0)
(1.38397e-05 5.44285e-06 0)
(1.15503e-05 4.97214e-06 0)
(9.45701e-06 4.47801e-06 0)
(7.56764e-06 3.96299e-06 0)
(5.88873e-06 3.43071e-06 0)
(4.42503e-06 2.88613e-06 0)
(3.17928e-06 2.33576e-06 0)
(2.15146e-06 1.78841e-06 0)
(1.33753e-06 1.25637e-06 0)
(7.28172e-07 7.56573e-07 0)
(3.08648e-07 3.111e-07 0)
(5.88052e-08 -5.2198e-08 0)
(-4.84738e-08 -2.97871e-07 0)
(-5.55303e-08 -3.78905e-07 0)
(-2.0425e-08 -2.30679e-07 0)
(-1.07169e-08 2.47893e-07 0)
(9.62228e-10 3.5365e-07 0)
(1.04438e-07 1.74918e-07 0)
(3.4653e-07 -2.1175e-07 0)
(7.6401e-07 -7.49545e-07 0)
(1.3844e-06 -1.39336e-06 0)
(2.2277e-06 -2.10774e-06 0)
(3.30769e-06 -2.86504e-06 0)
(4.6327e-06 -3.64395e-06 0)
(6.20664e-06 -4.42806e-06 0)
(8.02964e-06 -5.20496e-06 0)
(1.00989e-05 -5.96525e-06 0)
(1.24091e-05 -6.70194e-06 0)
(1.49529e-05 -7.40985e-06 0)
(1.77217e-05 -8.08521e-06 0)
(2.07054e-05 -8.72537e-06 0)
(2.38933e-05 -9.32856e-06 0)
(2.72738e-05 -9.89367e-06 0)
(3.08352e-05 -1.04201e-05 0)
(3.45653e-05 -1.09076e-05 0)
(3.84518e-05 -1.13564e-05 0)
(4.24824e-05 -1.17668e-05 0)
(4.66447e-05 -1.21394e-05 0)
(5.09266e-05 -1.2475e-05 0)
(5.5316e-05 -1.27744e-05 0)
(5.98013e-05 -1.30384e-05 0)
(6.43707e-05 -1.32681e-05 0)
(6.90132e-05 -1.34646e-05 0)
(7.37177e-05 -1.36289e-05 0)
(7.84735e-05 -1.37621e-05 0)
(8.32704e-05 -1.38654e-05 0)
(8.80984e-05 -1.39397e-05 0)
(9.29478e-05 -1.39863e-05 0)
(9.78093e-05 -1.40062e-05 0)
(0.000102674 -1.40005e-05 0)
(0.000107533 -1.39703e-05 0)
(0.000112379 -1.39166e-05 0)
(0.000117203 -1.38405e-05 0)
(0.000121998 -1.3743e-05 0)
(0.000126757 -1.36251e-05 0)
(0.000131472 -1.34877e-05 0)
(0.000136137 -1.33317e-05 0)
(0.000140746 -1.31581e-05 0)
(0.000145293 -1.29677e-05 0)
(0.000149771 -1.27615e-05 0)
(0.000154176 -1.25401e-05 0)
(0.000158503 -1.23044e-05 0)
(0.000162746 -1.20553e-05 0)
(0.000166901 -1.17933e-05 0)
(0.000170964 -1.15192e-05 0)
(0.00017493 -1.12338e-05 0)
(0.000178795 -1.09376e-05 0)
(0.000182556 -1.06313e-05 0)
(0.000186209 -1.03155e-05 0)
(0.000189752 -9.9908e-06 0)
(0.00019318 -9.65771e-06 0)
(0.000196491 -9.31679e-06 0)
(0.000199683 -8.96853e-06 0)
(0.000202752 -8.61343e-06 0)
(0.000205697 -8.25193e-06 0)
(0.000208514 -7.8845e-06 0)
(0.000211203 -7.51153e-06 0)
(0.000213762 -7.13343e-06 0)
(0.000216187 -6.75059e-06 0)
(0.000218479 -6.36335e-06 0)
(0.000220634 -5.97207e-06 0)
(0.000222653 -5.57707e-06 0)
(0.000224533 -5.17867e-06 0)
(0.000226273 -4.77717e-06 0)
(0.000227873 -4.37286e-06 0)
(0.000229331 -3.96601e-06 0)
(0.000230647 -3.55688e-06 0)
(0.000231819 -3.14574e-06 0)
(0.000232847 -2.73283e-06 0)
(0.000233731 -2.31838e-06 0)
(0.000234469 -1.90263e-06 0)
(0.000235062 -1.48579e-06 0)
(0.000235509 -1.0681e-06 0)
(0.00023581 -6.49756e-07 0)
(0.000235965 -2.30993e-07 0)
(0.000235973 1.87979e-07 0)
(0.000235834 6.06951e-07 0)
(0.000235549 1.02571e-06 0)
(0.000235118 1.44404e-06 0)
(0.000234541 1.86171e-06 0)
(0.000233817 2.2785e-06 0)
(0.000232949 2.69418e-06 0)
(0.000231935 3.10851e-06 0)
(0.000230776 3.52124e-06 0)
(0.000229474 3.93213e-06 0)
(0.000228028 4.3409e-06 0)
(0.00022644 4.7473e-06 0)
(0.000224711 5.15104e-06 0)
(0.000222841 5.55181e-06 0)
(0.000220832 5.9493e-06 0)
(0.000218685 6.3432e-06 0)
(0.000216401 6.73314e-06 0)
(0.000213982 7.11879e-06 0)
(0.000211429 7.49975e-06 0)
(0.000208745 7.87563e-06 0)
(0.000205931 8.24601e-06 0)
(0.000202989 8.61047e-06 0)
(0.000199921 8.96855e-06 0)
(0.00019673 9.31976e-06 0)
(0.000193418 9.66361e-06 0)
(0.000189988 9.99957e-06 0)
(0.000186443 1.03271e-05 0)
(0.000182786 1.06457e-05 0)
(0.000179021 1.09546e-05 0)
(0.00017515 1.12533e-05 0)
(0.000171178 1.15412e-05 0)
(0.000167108 1.18176e-05 0)
(0.000162945 1.20817e-05 0)
(0.000158693 1.23329e-05 0)
(0.000154357 1.25703e-05 0)
(0.000149941 1.27933e-05 0)
(0.000145452 1.3001e-05 0)
(0.000140894 1.31926e-05 0)
(0.000136274 1.33671e-05 0)
(0.000131596 1.35239e-05 0)
(0.000126869 1.36618e-05 0)
(0.000122098 1.37801e-05 0)
(0.00011729 1.38776e-05 0)
(0.000112454 1.39535e-05 0)
(0.000107596 1.40067e-05 0)
(0.000102724 1.40362e-05 0)
(9.7847e-05 1.4041e-05 0)
(9.29737e-05 1.40199e-05 0)
(8.81129e-05 1.39719e-05 0)
(8.3274e-05 1.3896e-05 0)
(7.84666e-05 1.3791e-05 0)
(7.3701e-05 1.36557e-05 0)
(6.89873e-05 1.34892e-05 0)
(6.43364e-05 1.32903e-05 0)
(5.97593e-05 1.3058e-05 0)
(5.52672e-05 1.27913e-05 0)
(5.08717e-05 1.24891e-05 0)
(4.65848e-05 1.21506e-05 0)
(4.24184e-05 1.1775e-05 0)
(3.83848e-05 1.13616e-05 0)
(3.44962e-05 1.09098e-05 0)
(3.07651e-05 1.04192e-05 0)
(2.72036e-05 9.88986e-06 0)
(2.3824e-05 9.32187e-06 0)
(2.0638e-05 8.71589e-06 0)
(1.76571e-05 8.0731e-06 0)
(1.48919e-05 7.39532e-06 0)
(1.23524e-05 6.68527e-06 0)
(1.00473e-05 5.94668e-06 0)
(7.98364e-06 5.1848e-06 0)
(6.16651e-06 4.40683e-06 0)
(4.59852e-06 3.62225e-06 0)
(3.2796e-06 2.84329e-06 0)
(2.2061e-06 2.08598e-06 0)
(1.36929e-06 1.37176e-06 0)
(7.54347e-07 7.29156e-07 0)
(3.40588e-07 1.94276e-07 0)
(1.01415e-07 -1.88336e-07 0)
(3.18027e-10 -3.62675e-07 0)
(-1.06384e-08 -2.51148e-07 0)
(4.07306e-10 2.36433e-07 0)
(6.5405e-08 2.56318e-07 0)
(2.76006e-07 -5.8346e-08 0)
(6.65856e-07 -6.20268e-07 0)
(1.26577e-06 -1.36383e-06 0)
(2.10095e-06 -2.23643e-06 0)
(3.1898e-06 -3.19595e-06 0)
(4.54489e-06 -4.20917e-06 0)
(6.17392e-06 -5.24994e-06 0)
(8.08023e-06 -6.29787e-06 0)
(1.02636e-05 -7.3371e-06 0)
(1.27208e-05 -8.35547e-06 0)
(1.54461e-05 -9.34372e-06 0)
(1.84316e-05 -1.02949e-05 0)
(2.16678e-05 -1.12038e-05 0)
(2.51442e-05 -1.20666e-05 0)
(2.88489e-05 -1.28809e-05 0)
(3.27694e-05 -1.36448e-05 0)
(3.68929e-05 -1.43574e-05 0)
(4.1206e-05 -1.50182e-05 0)
(4.56951e-05 -1.56273e-05 0)
(5.03465e-05 -1.61849e-05 0)
(5.51466e-05 -1.66918e-05 0)
(6.00818e-05 -1.71488e-05 0)
(6.51388e-05 -1.75569e-05 0)
(7.03042e-05 -1.79173e-05 0)
(7.55652e-05 -1.82312e-05 0)
(8.0909e-05 -1.85e-05 0)
(8.63233e-05 -1.87251e-05 0)
(9.17961e-05 -1.89079e-05 0)
(9.73156e-05 -1.90499e-05 0)
(0.000102871 -1.91524e-05 0)
(0.00010845 -1.92171e-05 0)
(0.000114044 -1.92453e-05 0)
(0.000119641 -1.92385e-05 0)
(0.000125232 -1.91982e-05 0)
(0.000130807 -1.91257e-05 0)
(0.000136358 -1.90225e-05 0)
(0.000141876 -1.88898e-05 0)
(0.000147352 -1.87291e-05 0)
(0.000152779 -1.85416e-05 0)
(0.000158149 -1.83286e-05 0)
(0.000163454 -1.80913e-05 0)
(0.000168688 -1.7831e-05 0)
(0.000173844 -1.75487e-05 0)
(0.000178916 -1.72456e-05 0)
(0.000183898 -1.69228e-05 0)
(0.000188784 -1.65814e-05 0)
(0.000193569 -1.62222e-05 0)
(0.000198248 -1.58464e-05 0)
(0.000202816 -1.54548e-05 0)
(0.000207268 -1.50484e-05 0)
(0.000211601 -1.4628e-05 0)
(0.00021581 -1.41944e-05 0)
(0.000219892 -1.37485e-05 0)
(0.000223842 -1.3291e-05 0)
(0.000227658 -1.28226e-05 0)
(0.000231336 -1.2344e-05 0)
(0.000234873 -1.18559e-05 0)
(0.000238267 -1.13589e-05 0)
(0.000241515 -1.08537e-05 0)
(0.000244615 -1.03408e-05 0)
(0.000247564 -9.82079e-06 0)
(0.00025036 -9.29415e-06 0)
(0.000253002 -8.76139e-06 0)
(0.000255487 -8.223e-06 0)
(0.000257815 -7.67944e-06 0)
(0.000259983 -7.13114e-06 0)
(0.00026199 -6.57851e-06 0)
(0.000263835 -6.02196e-06 0)
(0.000265517 -5.46188e-06 0)
(0.000267034 -4.89862e-06 0)
(0.000268386 -4.33255e-06 0)