/*--------------------------------*- C++ -*----------------------------------*\
  =========                 |
  \\      /  F ield         | OpenFOAM: The Open Source CFD Toolbox
   \\    /   O peration     | Website:  https://openfoam.org
    \\  /    A nd           | Version:  7
     \\/     M anipulation  |
\*---------------------------------------------------------------------------*/
FoamFile
{
    version     2.0;
    format      ascii;
    class       volScalarField;
    location    "0.0875";
    object      p;
}
// * * * * * * * * * * * * * * * * * * * * * * * * * * * * * * * * * * * * * //

dimensions      [0 2 -2 0 0 0 0];

internalField   nonuniform List<scalar> 
12800
(
-4.98618e-08
0.000181576
-0.000903213
-0.00334628
-0.00690255
-0.0113252
-0.0163811
-0.0218569
-0.0275661
-0.0333486
-0.0390682
-0.0446096
-0.0498756
-0.0547846
-0.0592688
-0.0632721
-0.0667488
-0.0696621
-0.0719833
-0.0736905
-0.074768
-0.0752053
-0.0749966
-0.0741403
-0.0726383
-0.0704955
-0.0677196
-0.0643206
-0.0603103
-0.0557023
-0.0505115
-0.0447539
-0.0384466
-0.0316071
-0.0242534
-0.0164041
-0.00807795
0.000706369
0.00993002
0.0195745
0.0296214
0.0400527
0.0508507
0.0619982
0.0734783
0.0852749
0.0973721
0.109755
0.122408
0.135319
0.148473
0.161857
0.175461
0.189271
0.203278
0.21747
0.231839
0.246375
0.26107
0.275916
0.290904
0.306029
0.321283
0.336662
0.352158
0.367768
0.383485
0.399307
0.415228
0.431246
0.447356
0.463556
0.479843
0.496213
0.512665
0.529195
0.545803
0.562484
0.579238
0.596061
0.612953
0.62991
0.646931
0.664013
0.681153
0.698349
0.715598
0.732896
0.75024
0.767627
0.785051
0.802509
0.819995
0.837504
0.855029
0.872564
0.890101
0.907633
0.92515
0.942644
0.960103
0.977518
0.994876
1.01216
1.02937
1.04648
1.06347
1.08033
1.09705
1.1136
1.12996
1.14612
1.16205
1.17773
1.19314
1.20825
1.22303
1.23747
1.25153
1.26519
1.27842
1.29119
1.30348
1.31525
1.32647
1.33712
1.34717
1.35659
1.36536
1.37344
1.38083
1.38748
1.39338
1.39852
1.40288
1.40644
1.40919
1.41113
1.41226
1.41258
1.4121
1.41083
1.4088
1.40602
1.40255
1.39842
1.39369
1.38843
1.38272
1.37666
1.37035
1.36394
1.35757
1.35144
1.34575
1.34075
1.3367
1.3339
1.33262
1.33278
-0.000181457
1.16958e-06
-0.00100143
-0.00313267
-0.00616891
-0.00993477
-0.0142566
-0.0189637
-0.0238997
-0.0289254
-0.0339188
-0.0387739
-0.0433995
-0.0477178
-0.0516627
-0.0551791
-0.058221
-0.0607508
-0.0627385
-0.0641605
-0.064999
-0.0652416
-0.0648802
-0.0639108
-0.0623328
-0.0601489
-0.0573643
-0.0539866
-0.0500252
-0.0454915
-0.040398
-0.0347588
-0.0285887
-0.0219033
-0.0147189
-0.00705199
0.00108029
0.0096608
0.0186723
0.0280976
0.0379197
0.0481218
0.0586873
0.0696
0.0808442
0.0924043
0.104265
0.116413
0.128833
0.141513
0.154438
0.167598
0.18098
0.194572
0.208365
0.222348
0.236512
0.250847
0.265346
0.28
0.294802
0.309744
0.32482
0.340025
0.355351
0.370795
0.38635
0.402013
0.417779
0.433643
0.449603
0.465655
0.481795
0.498021
0.51433
0.530718
0.547183
0.563722
0.580334
0.597014
0.613762
0.630573
0.647447
0.664378
0.681366
0.698406
0.715495
0.732629
0.749805
0.767019
0.784265
0.801539
0.818836
0.836149
0.853472
0.870797
0.888118
0.905427
0.922713
0.939968
0.957181
0.974342
0.991437
1.00846
1.02538
1.0422
1.05891
1.07547
1.09188
1.10812
1.12416
1.14
1.1556
1.17095
1.18603
1.2008
1.21525
1.22936
1.24309
1.25642
1.26933
1.28178
1.29376
1.30524
1.31618
1.32656
1.33636
1.34556
1.35412
1.36202
1.36925
1.37578
1.38159
1.38668
1.39101
1.3946
1.39742
1.39947
1.40076
1.4013
1.40108
1.40013
1.39848
1.39615
1.39317
1.3896
1.38549
1.38091
1.37594
1.37066
1.36519
1.35964
1.35416
1.34891
1.34407
1.33983
1.33638
1.33395
1.33278
1.33294
0.000902646
0.00100508
1.74264e-06
-0.00198149
-0.00472958
-0.00810041
-0.0119539
-0.0161482
-0.0205502
-0.0250385
-0.0295042
-0.033851
-0.0379945
-0.0418616
-0.0453895
-0.0485249
-0.0512228
-0.053446
-0.0551642
-0.0563531
-0.0569939
-0.0570731
-0.056581
-0.0555122
-0.0538644
-0.0516386
-0.0488382
-0.0454691
-0.0415389
-0.0370573
-0.0320353
-0.0264849
-0.0204194
-0.013853
-0.00680035
0.000723323
0.00870245
0.0171211
0.0259633
0.0352131
0.0448544
0.0548714
0.0652486
0.0759707
0.0870225
0.0983895
0.110057
0.122012
0.13424
0.146729
0.159466
0.172439
0.185636
0.199047
0.212662
0.22647
0.240462
0.254629
0.268963
0.283456
0.2981
0.312887
0.327813
0.342869
0.358051
0.373353
0.38877
0.404297
0.419929
0.435662
0.451493
0.467417
0.483432
0.499532
0.515717
0.531982
0.548324
0.56474
0.581229
0.597785
0.614408
0.631094
0.647839
0.664641
0.681497
0.698402
0.715354
0.732348
0.74938
0.766445
0.783539
0.800657
0.817792
0.834938
0.85209
0.869239
0.886377
0.903497
0.920589
0.937644
0.954651
0.971599
0.988476
1.00527
1.02197
1.03855
1.05501
1.07133
1.08749
1.10347
1.11926
1.13483
1.15017
1.16525
1.18005
1.19456
1.20874
1.22257
1.23604
1.24911
1.26176
1.27397
1.2857
1.29695
1.30767
1.31784
1.32745
1.33647
1.34487
1.35264
1.35975
1.36619
1.37194
1.37699
1.38132
1.38493
1.38782
1.38997
1.3914
1.39211
1.39211
1.39143
1.39008
1.38809
1.38551
1.38237
1.37874
1.37468
1.37025
1.36556
1.36069
1.35576
1.35089
1.34623
1.34192
1.33814
1.33503
1.33277
1.3316
1.33166
0.00334753
0.00313995
0.00198384
-4.59074e-06
-0.00264616
-0.00581728
-0.00939811
-0.0132681
-0.0173125
-0.0214254
-0.02551
-0.0294797
-0.0332575
-0.0367757
-0.0399757
-0.0428068
-0.0452263
-0.047198
-0.0486922
-0.0496847
-0.0501568
-0.050094
-0.0494861
-0.0483268
-0.0466127
-0.0443436
-0.0415218
-0.0381516
-0.0342396
-0.029794
-0.0248245
-0.0193418
-0.013358
-0.00688578
6.12807e-05
0.00746916
0.0153234
0.0236092
0.0323116
0.0414156
0.0509061
0.0607682
0.0709871
0.0815483
0.0924373
0.10364
0.115143
0.126933
0.138996
0.151321
0.163895
0.176707
0.189745
0.202999
0.216458
0.230113
0.243955
0.257974
0.272163
0.286513
0.301018
0.315669
0.33046
0.345385
0.360438
0.375614
0.390906
0.406311
0.421823
0.437438
0.453152
0.468961
0.484862
0.500849
0.516921
0.533074
0.549305
0.56561
0.581986
0.59843
0.61494
0.631511
0.64814
0.664825
0.681561
0.698345
0.715172
0.732039
0.748941
0.765874
0.782832
0.799809
0.8168
0.833799
0.850798
0.86779
0.884767
0.901721
0.918643
0.935522
0.952349
0.969112
0.9858
1.0024
1.0189
1.03528
1.05153
1.06764
1.08358
1.09934
1.11491
1.13026
1.14537
1.16023
1.1748
1.18908
1.20304
1.21665
1.2299
1.24275
1.25519
1.26719
1.27873
1.28978
1.30033
1.31034
1.31979
1.32867
1.33695
1.34461
1.35163
1.35801
1.36371
1.36874
1.37308
1.37672
1.37967
1.38191
1.38346
1.38433
1.38451
1.38404
1.38294
1.38124
1.37897
1.37618
1.37292
1.36925
1.36524
1.36098
1.35654
1.35204
1.34759
1.3433
1.33931
1.33575
1.33277
1.33051
1.32916
1.32886
0.00691614
0.00618843
0.00473574
0.0026254
-2.67583e-05
-0.0031147
-0.00653546
-0.0101874
-0.0139728
-0.0177999
-0.0215841
-0.0252481
-0.0287226
-0.0319462
-0.0348647
-0.0374311
-0.039605
-0.0413522
-0.0426442
-0.0434576
-0.0437736
-0.0435779
-0.0428601
-0.0416129
-0.0398326
-0.037518
-0.0346704
-0.0312933
-0.027392
-0.0229736
-0.0180467
-0.0126209
-0.00670722
-0.000317156
0.00653684
0.0138418
0.0215842
0.0297504
0.0383263
0.0472977
0.0566506
0.0663706
0.076444
0.0868567
0.097595
0.108645
0.119995
0.131631
0.14354
0.155712
0.168133
0.180792
0.19368
0.206784
0.220097
0.233607
0.247305
0.261184
0.275234
0.289448
0.303819
0.318338
0.333
0.347799
0.362727
0.37778
0.392952
0.408238
0.423633
0.439133
0.454733
0.47043
0.486218
0.502095
0.518057
0.5341
0.550221
0.566416
0.582682
0.599016
0.615414
0.631873
0.648389
0.664958
0.681577
0.698242
0.714948
0.731692
0.748467
0.765271
0.782096
0.798937
0.815789
0.832645
0.849497
0.866339
0.883161
0.899957
0.916715
0.933428
0.950083
0.966671
0.983179
0.999595
1.01591
1.0321
1.04815
1.06406
1.0798
1.09536
1.11072
1.12587
1.14077
1.15542
1.16979
1.18386
1.19761
1.21102
1.22406
1.23672
1.24897
1.26079
1.27215
1.28304
1.29342
1.30329
1.31261
1.32136
1.32954
1.33711
1.34406
1.35038
1.35606
1.36107
1.36543
1.36911
1.37211
1.37444
1.37611
1.37711
1.37747
1.37719
1.37632
1.37486
1.37287
1.37037
1.36743
1.3641
1.36043
1.35651
1.35242
1.34824
1.34408
1.34004
1.33624
1.33278
1.3298
1.3274
1.32571
1.32481
0.0113725
0.00998315
0.00812185
0.00579089
0.0030286
-7.57062e-05
-0.00343354
-0.00696053
-0.0105745
-0.014197
-0.0177544
-0.0211793
-0.0244098
-0.0273908
-0.0300731
-0.0324138
-0.0343753
-0.0359258
-0.0370384
-0.0376906
-0.0378647
-0.0375465
-0.0367256
-0.0353947
-0.0335496
-0.0311885
-0.028312
-0.0249229
-0.0210257
-0.0166267
-0.0117332
-0.00635431
-0.000499705
0.00581989
0.012593
0.0198077
0.0274513
0.035511
0.0439736
0.0528259
0.0620543
0.0716456
0.0815863
0.0918633
0.102464
0.113374
0.124582
0.136076
0.147843
0.159871
0.172149
0.184667
0.197414
0.210379
0.223553
0.236926
0.25049
0.264235
0.278154
0.292239
0.306482
0.320876
0.335415
0.350092
0.364901
0.379836
0.394892
0.410064
0.425346
0.440734
0.456224
0.471811
0.487492
0.503261
0.519116
0.535052
0.551066
0.567154
0.583313
0.599539
0.615829
0.632178
0.648583
0.66504
0.681546
0.698095
0.714684
0.731307
0.747961
0.764639
0.781337
0.798048
0.814766
0.831485
0.848197
0.864895
0.88157
0.898215
0.914819
0.931373
0.947867
0.96429
0.980629
0.996873
1.01301
1.02902
1.0449
1.06062
1.07618
1.09155
1.10672
1.12168
1.13639
1.15085
1.16503
1.17891
1.19248
1.2057
1.21857
1.23106
1.24314
1.25479
1.266
1.27674
1.28698
1.29672
1.30592
1.31458
1.32266
1.33016
1.33706
1.34334
1.34899
1.354
1.35837
1.36209
1.36516
1.36758
1.36935
1.37048
1.37099
1.37089
1.37021
1.36897
1.36721
1.36497
1.36229
1.35923
1.35584
1.35219
1.34835
1.34441
1.34044
1.33655
1.33282
1.32935
1.32624
1.3236
1.32145
1.31979
0.0164955
0.0143594
0.0120091
0.00937807
0.00642247
0.00321674
-0.00016291
-0.00364754
-0.00716903
-0.010661
-0.0140605
-0.0173088
-0.0203519
-0.0231407
-0.0256314
-0.0277849
-0.0295673
-0.0309493
-0.0319058
-0.0324162
-0.0324634
-0.0320341
-0.0311183
-0.0297087
-0.0278011
-0.0253934
-0.0224858
-0.0190806
-0.0151817
-0.0107945
-0.00592597
-0.000584031
0.00522225
0.0114829
0.0181874
0.0253245
0.0328824
0.0408491
0.0492121
0.0579588
0.0670767
0.0765529
0.0863747
0.0965295
0.107005
0.117788
0.128868
0.140232
0.151868
0.163765
0.175913
0.1883
0.200916
0.213752
0.226798
0.240043
0.253481
0.267102
0.280898
0.294861
0.308984
0.32326
0.337682
0.352244
0.36694
0.381763
0.396709
0.411771
0.426946
0.442227
0.457611
0.473094
0.48867
0.504335
0.520087
0.53592
0.551831
0.567816
0.583872
0.599994
0.616178
0.632422
0.648721
0.66507
0.681466
0.697904
0.71438
0.730888
0.747425
0.763984
0.78056
0.797146
0.813737
0.830326
0.846906
0.863468
0.880004
0.896507
0.912967
0.929373
0.945717
0.961986
0.978169
0.994253
1.01023
1.02608
1.04179
1.05734
1.07273
1.08794
1.10294
1.11772
1.13226
1.14655
1.16056
1.17427
1.18767
1.20074
1.21345
1.22578
1.23771
1.24923
1.2603
1.27091
1.28104
1.29067
1.29978
1.30835
1.31636
1.3238
1.33065
1.33691
1.34255
1.34757
1.35196
1.35572
1.35885
1.36134
1.36321
1.36446
1.3651
1.36516
1.36465
1.36359
1.36203
1.36
1.35753
1.35468
1.3515
1.34804
1.34438
1.34059
1.33673
1.33288
1.32913
1.32555
1.32223
1.31925
1.31656
1.31406
0.0220839
0.0191555
0.0162627
0.0132722
0.0100583
0.00668287
0.00321209
-0.000298958
-0.00379473
-0.00721982
-0.0105209
-0.0136478
-0.0165536
-0.0191955
-0.0215348
-0.0235367
-0.0251708
-0.0264105
-0.0272331
-0.0276197
-0.0275546
-0.0270255
-0.0260228
-0.0245399
-0.0225725
-0.0201186
-0.0171784
-0.0137535
-0.0098477
-0.00546586
-0.000614281
0.00469961
0.0104674
0.0166799
0.0233272
0.0303986
0.0378831
0.0457694
0.0540457
0.0627
0.0717203
0.0810945
0.0908105
0.100856
0.111219
0.121889
0.132852
0.144098
0.155616
0.167394
0.179421
0.191689
0.204185
0.216902
0.229828
0.242956
0.256277
0.269781
0.283462
0.297312
0.311323
0.325488
0.3398
0.354254
0.368842
0.383559
0.3984
0.413359
0.428431
0.44361
0.458893
0.474275
0.489751
0.505317
0.52097
0.536704
0.552516
0.568402
0.584358
0.60038
0.616463
0.632605
0.648801
0.665047
0.681337
0.697669
0.714037
0.730435
0.74686
0.763305
0.779765
0.796233
0.812704
0.82917
0.845624
0.862058
0.878465
0.894835
0.911159
0.927428
0.943631
0.959757
0.975796
0.991734
1.00756
1.02326
1.03882
1.05422
1.06946
1.08451
1.09935
1.11398
1.12837
1.1425
1.15636
1.16993
1.18319
1.19611
1.20868
1.22088
1.23269
1.24408
1.25504
1.26555
1.27558
1.28512
1.29415
1.30265
1.31061
1.31801
1.32483
1.33107
1.3367
1.34174
1.34616
1.34996
1.35315
1.35572
1.35768
1.35903
1.35979
1.35998
1.35961
1.35871
1.35731
1.35544
1.35314
1.35045
1.34742
1.3441
1.34055
1.33683
1.333
1.32913
1.32528
1.32151
1.3179
1.31452
1.31123
1.30784
0.0279628
0.0242232
0.0207558
0.0173636
0.0138423
0.010244
0.00662641
0.00303264
-0.000493016
-0.003905
-0.00715881
-0.010212
-0.0130246
-0.0155597
-0.0177836
-0.0196659
-0.0211796
-0.0223012
-0.0230104
-0.0232902
-0.0231265
-0.0225081
-0.0214264
-0.0198753
-0.0178511
-0.0153518
-0.0123776
-0.00893013
-0.00501282
-0.00063031
0.00421148
0.00950561
0.0152442
0.0214185
0.0280191
0.035036
0.0424588
0.0502767
0.0584785
0.0670529
0.0759882
0.085273
0.0948957
0.104845
0.115108
0.125675
0.136535
0.147675
0.159085
0.170755
0.182674
0.194832
0.207219
0.219826
0.232643
0.245662
0.258875
0.272272
0.285846
0.29959
0.313496
0.327557
0.341767
0.356118
0.370605
0.385222
0.399964
0.414825
0.429799
0.444881
0.460068
0.475354
0.490735
0.506206
0.521763
0.537403
0.55312
0.56891
0.58477
0.600696
0.616683
0.632728
0.648825
0.664971
0.681161
0.69739
0.713655
0.729948
0.746266
0.762603
0.778953
0.795309
0.811666
0.828016
0.844352
0.860666
0.87695
0.893196
0.909394
0.925535
0.941609
0.957603
0.973509
0.989313
1.005
1.02056
1.03599
1.05125
1.06635
1.08126
1.09597
1.11046
1.12471
1.13871
1.15244
1.16588
1.17901
1.19181
1.20426
1.21635
1.22805
1.23934
1.2502
1.26062
1.27058
1.28005
1.28902
1.29747
1.30538
1.31275
1.31956
1.32579
1.33143
1.33649
1.34094
1.34479
1.34803
1.35067
1.35272
1.35417
1.35503
1.35534
1.35509
1.35432
1.35305
1.3513
1.34913
1.34655
1.34362
1.34038
1.33688
1.33318
1.32931
1.32535
1.32133
1.31732
1.31337
1.30955
1.30562
1.30134
0.0339812
0.0294303
0.0253717
0.0215496
0.0176856
0.0138235
0.0100151
0.0062929
0.00269142
-0.000752588
-0.00400259
-0.0070233
-0.00978113
-0.0122447
-0.0143852
-0.0161764
-0.017595
-0.0186204
-0.0192349
-0.0194235
-0.0191739
-0.0184763
-0.017323
-0.0157089
-0.0136305
-0.0110866
-0.00807733
-0.00460459
-0.000671616
0.00371709
0.00855584
0.013838
0.0195559
0.0257014
0.0322655
0.0392387
0.046611
0.054372
0.0625111
0.0710174
0.0798799
0.0890875
0.0986291
0.108494
0.11867
0.129146
0.139913
0.150959
0.162273
0.173846
0.185667
0.197726
0.210013
0.222521
0.235239
0.248158
0.261271
0.27457
0.288046
0.301691
0.3155
0.329464
0.343578
0.357834
0.372227
0.38675
0.401398
0.416166
0.431048
0.446039
0.461134
0.476329
0.491619
0.507
0.522466
0.538015
0.553641
0.569341
0.585109
0.600943
0.616837
0.632788
0.648791
0.664842
0.680936
0.697068
0.713234
0.729427
0.745644
0.761878
0.778123
0.794374
0.810623
0.826864
0.843089
0.859291
0.875461
0.891592
0.907673
0.923695
0.939649
0.955523
0.971306
0.986987
1.00255
1.01799
1.03329
1.04843
1.0634
1.07819
1.09278
1.10715
1.12128
1.13517
1.14878
1.16211
1.17513
1.18783
1.20018
1.21217
1.22378
1.23499
1.24578
1.25613
1.26602
1.27544
1.28436
1.29278
1.30067
1.30802
1.31482
1.32106
1.32672
1.3318
1.33629
1.34019
1.34349
1.3462
1.34832
1.34985
1.35081
1.35121
1.35107
1.3504
1.34923
1.34758
1.34549
1.34299
1.34012
1.33691
1.33342
1.32967
1.32572
1.32161
1.31739
1.31308
1.30876
1.30446
1.29988
1.29471
0.0400106
0.0346595
0.0300047
0.0257358
0.0215041
0.017348
0.0133147
0.0094277
0.00571295
0.00219951
-0.00108323
-0.00410652
-0.00684259
-0.00926531
-0.0113505
-0.013076
-0.0144219
-0.0153708
-0.0159074
-0.0160191
-0.0156951
-0.0149273
-0.0137092
-0.0120365
-0.0099067
-0.0073188
-0.00427351
-0.000772873
0.00317978
0.00757994
0.012422
0.0176996
0.0234052
0.029531
0.0360683
0.043008
0.0503404
0.0580556
0.0661435
0.0745934
0.0833949
0.0925372
0.10201
0.111801
0.121902
0.1323
0.142986
0.153948
0.165178
0.176664
0.188397
0.200368
0.212567
0.224984
0.237612
0.250441
0.263464
0.276672
0.290057
0.303613
0.317332
0.331207
0.345231
0.359399
0.373703
0.388139
0.4027
0.41738
0.432176
0.44708
0.462089
0.477198
0.492402
0.507697
0.523077
0.538539
0.554079
0.569692
0.585373
0.601119
0.616925
0.632787
0.6487
0.66466
0.680662
0.696702
0.712774
0.728873
0.744993
0.76113
0.777277
0.793428
0.809576
0.825714
0.841836
0.857933
0.873997
0.890021
0.905994
0.921907
0.937751
0.953514
0.969186
0.984756
1.00021
1.01554
1.03072
1.04576
1.06062
1.0753
1.08978
1.10404
1.11807
1.13186
1.14537
1.15861
1.17154
1.18415
1.19642
1.20834
1.21988
1.23102
1.24175
1.25205
1.2619
1.27128
1.28017
1.28857
1.29645
1.3038
1.31061
1.31686
1.32254
1.32765
1.33219
1.33613
1.3395
1.34227
1.34446
1.34607
1.34711
1.3476
1.34754
1.34695
1.34586
1.34428
1.34225
1.33979
1.33694
1.33372
1.33019
1.32636
1.32228
1.31799
1.31352
1.30889
1.30416
1.29938
1.29414
1.28809
0.0459405
0.0398076
0.0345598
0.0298351
0.0252199
0.0207483
0.0164642
0.012384
0.00852596
0.00491252
0.00156671
-0.00148858
-0.00423096
-0.00663915
-0.00869326
-0.010375
-0.011668
-0.0125576
-0.0130314
-0.0130786
-0.0126906
-0.0118606
-0.0105837
-0.00885648
-0.00667727
-0.00404585
-0.000963336
0.00256784
0.00654413
0.0109609
0.0158126
0.0210927
0.0267941
0.0329089
0.0394289
0.046345
0.053648
0.0613283
0.069376
0.0777809
0.0865328
0.0956213
0.105036
0.114767
0.124803
0.135134
0.14575
0.156641
0.167797
0.179207
0.190864
0.202756
0.214876
0.227213
0.23976
0.252508
0.265449
0.278575
0.291879
0.305352
0.318989
0.332782
0.346725
0.36081
0.375033
0.389387
0.403867
0.418466
0.43318
0.448004
0.462932
0.47796
0.493082
0.508295
0.523594
0.538975
0.554432
0.569963
0.585561
0.601224
0.616946
0.632723
0.648551
0.664425
0.68034
0.696291
0.712274
0.728284
0.744314
0.760359
0.776413
0.79247
0.808523
0.824566
0.840591
0.856591
0.872557
0.888482
0.904355
0.920168
0.935912
0.951575
0.967147
0.982616
0.997971
1.0132
1.02829
1.04322
1.05799
1.07257
1.08696
1.10113
1.11508
1.12878
1.14221
1.15537
1.16823
1.18077
1.19298
1.20484
1.21632
1.22742
1.23811
1.24837
1.25819
1.26755
1.27644
1.28483
1.29271
1.30007
1.30689
1.31317
1.31889
1.32404
1.32862
1.33262
1.33604
1.33888
1.34114
1.34282
1.34394
1.34449
1.3445
1.34398
1.34294
1.34141
1.33941
1.33696
1.3341
1.33085
1.32723
1.32329
1.31906
1.31455
1.3098
1.30482
1.29968
1.29439
1.28851
1.28161
0.0516754
0.0447837
0.0389513
0.0337686
0.0287605
0.0239588
0.0194054
0.0151102
0.0110853
0.00734737
0.00391374
0.000802088
-0.00197008
-0.00438595
-0.00642964
-0.00808655
-0.0093435
-0.0101888
-0.0106126
-0.0106062
-0.0101631
-0.00927792
-0.00794717
-0.00616867
-0.00394167
-0.00126672
0.00185446
0.00541899
0.00942296
0.0138615
0.0187289
0.0240187
0.0297238
0.0358363
0.0423481
0.0492505
0.0565343
0.0641902
0.0722086
0.0805796
0.0892932
0.0983394
0.107708
0.117389
0.127372
0.137648
0.148205
0.159035
0.170128
0.181474
0.193064
0.204888
0.216938
0.229205
0.241681
0.254357
0.267225
0.280278
0.293508
0.306907
0.32047
0.334188
0.348056
0.362067
0.376214
0.390493
0.404897
0.419421
0.43406
0.448808
0.46366
0.478612
0.493658
0.508795
0.524017
0.539321
0.554701
0.570153
0.585673
0.601256
0.616899
0.632596
0.648343
0.664135
0.679968
0.695836
0.711736
0.72766
0.743605
0.759564
0.775531
0.7915
0.807465
0.823419
0.839355
0.855264
0.87114
0.886973
0.902756
0.918478
0.934131
0.949703
0.965185
0.980565
0.995831
1.01097
1.02597
1.04082
1.05551
1.07001
1.08432
1.09842
1.11229
1.12592
1.13929
1.15239
1.16519
1.17768
1.18984
1.20165
1.2131
1.22417
1.23484
1.24508
1.25489
1.26425
1.27313
1.28153
1.28943
1.29681
1.30367
1.30998
1.31574
1.32094
1.32558
1.32964
1.33312
1.33602
1.33835
1.34009
1.34127
1.34189
1.34196
1.34148
1.34048
1.33898
1.33699
1.33453
1.33163
1.32831
1.3246
1.32052
1.31609
1.31135
1.3063
1.30096
1.29538
1.2896
1.28309
1.27537
0.0571328
0.0495072
0.0431025
0.037464
0.0320592
0.0269184
0.0220827
0.0175566
0.0133469
0.00946505
0.00592377
0.00273596
-8.52917e-05
-0.00252726
-0.00457779
-0.00622569
-0.00746092
-0.00827462
-0.0086592
-0.00860843
-0.00811748
-0.00718283
-0.00580227
-0.0039749
-0.001701
0.00101804
0.00417976
0.00778075
0.0118167
0.0162823
0.0211718
0.0264784
0.032195
0.0383138
0.0448266
0.0517248
0.0589996
0.0666416
0.0746414
0.0829894
0.0916759
0.100691
0.110025
0.119667
0.129609
0.13984
0.15035
0.16113
0.172171
0.183462
0.194996
0.206762
0.218753
0.23096
0.243373
0.255986
0.268791
0.281779
0.294943
0.308276
0.321772
0.335423
0.349223
0.363166
0.377245
0.391455
0.40579
0.420245
0.434814
0.449492
0.464273
0.479154
0.49413
0.509195
0.524345
0.539576
0.554883
0.570262
0.585708
0.601217
0.616784
0.632406
0.648076
0.663791
0.679546
0.695337
0.711157
0.727002
0.742867
0.758745
0.77463
0.790518
0.806401
0.822272
0.838125
0.853951
0.869744
0.885495
0.901195
0.916834
0.932405
0.947896
0.963298
0.978598
0.993787
1.00885
1.02378
1.03855
1.05317
1.06761
1.08185
1.09589
1.1097
1.12328
1.1366
1.14965
1.16241
1.17486
1.187
1.19878
1.21021
1.22127
1.23193
1.24217
1.25198
1.26135
1.27026
1.27868
1.28661
1.29402
1.30092
1.30728
1.31309
1.31835
1.32304
1.32717
1.33071
1.33368
1.33607
1.33788
1.33912
1.3398
1.33991
1.33947
1.3385
1.337
1.335
1.33251
1.32955
1.32615
1.32231
1.31807
1.31344
1.30844
1.30308
1.29737
1.29136
1.28508
1.27795
1.26946
0.0622404
0.0539069
0.0469445
0.0408559
0.0350543
0.0295699
0.0244435
0.0196753
0.0152675
0.0112271
0.00756263
0.0042829
0.00139704
-0.00108593
-0.00315739
-0.00480931
-0.00603456
-0.00682694
-0.00718128
-0.00709348
-0.00656058
-0.00558077
-0.00415331
-0.00227853
4.21825e-05
0.00280651
0.00601121
0.00965223
0.0137247
0.0182231
0.023141
0.0284717
0.0342078
0.0403414
0.0468645
0.0537683
0.061044
0.0686824
0.0766744
0.0850102
0.0936805
0.102675
0.111986
0.121601
0.131512
0.141709
0.152183
0.162924
0.173923
0.185171
0.196659
0.208378
0.220319
0.232474
0.244836
0.257395
0.270144
0.283076
0.296183
0.309458
0.322895
0.336486
0.350226
0.364107
0.378125
0.392273
0.406545
0.420936
0.435441
0.450054
0.464771
0.479586
0.494496
0.509494
0.524577
0.539741
0.554979
0.570289
0.585666
0.601105
0.616602
0.632151
0.64775
0.663393
0.679075
0.694792
0.710538
0.726309
0.742098
0.757901
0.773711
0.789523
0.805329
0.821124
0.836901
0.852651
0.868368
0.884044
0.899669
0.915235
0.930732
0.946152
0.961483
0.976714
0.991835
1.00683
1.0217
1.03641
1.05097
1.06535
1.07955
1.09354
1.10731
1.12084
1.13413
1.14715
1.15989
1.17232
1.18444
1.19622
1.20764
1.2187
1.22936
1.23962
1.24946
1.25885
1.26779
1.27625
1.28422
1.29169
1.29864
1.30506
1.31093
1.31625
1.32101
1.3252
1.32882
1.33186
1.33431
1.33619
1.33748
1.33821
1.33836
1.33795
1.33699
1.33549
1.33347
1.33093
1.3279
1.32439
1.32042
1.316
1.31115
1.30588
1.3002
1.29411
1.28767
1.28091
1.27318
1.26393
0.0669349
0.0579195
0.0504151
0.0438842
0.0376891
0.03186
0.0264383
0.0214207
0.0168053
0.0125956
0.00879625
0.00541251
0.00244991
-8.58489e-05
-0.00218936
-0.00385562
-0.00508019
-0.00585941
-0.0061904
-0.0060712
-0.00550068
-0.00447868
-0.00300599
-0.00108424
0.00128409
0.00409566
0.00734642
0.0110316
0.0151457
0.0196827
0.0246359
0.0299982
0.0357619
0.0419192
0.0484617
0.0553808
0.0626675
0.0703128
0.0783074
0.086642
0.0953071
0.104293
0.113591
0.12319
0.133082
0.143256
0.153705
0.164418
0.175386
0.186601
0.198053
0.209734
0.221636
0.233749
0.246067
0.258581
0.271284
0.284169
0.297227
0.310452
0.323838
0.337377
0.351063
0.36489
0.378853
0.392945
0.40716
0.421494
0.435941
0.450495
0.465152
0.479908
0.494756
0.509693
0.524714
0.539814
0.554989
0.570235
0.585547
0.60092
0.61635
0.631834
0.647365
0.66294
0.678554
0.694202
0.709879
0.72558
0.741299
0.757032
0.772772
0.788513
0.80425
0.819975
0.835682
0.851363
0.867011
0.882619
0.898177
0.913677
0.92911
0.944467
0.959736
0.974908
0.989972
1.00492
1.01973
1.0344
1.04891
1.06325
1.0774
1.09136
1.1051
1.11861
1.13188
1.14488
1.15761
1.17004
1.18215
1.19394
1.20538
1.21645
1.22714
1.23743
1.2473
1.25674
1.26572
1.27423
1.28226
1.28979
1.29681
1.3033
1.30924
1.31464
1.31948
1.32374
1.32743
1.33054
1.33307
1.33501
1.33636
1.33713
1.33732
1.33693
1.33598
1.33447
1.33241
1.32982
1.3267
1.32307
1.31895
1.31434
1.30926
1.30371
1.29771
1.29125
1.28438
1.27715
1.26884
1.25887
0.0711599
0.0614879
0.0534579
0.0464943
0.0399108
0.0337387
0.0280202
0.022749
0.01792
0.0135335
0.00959085
0.00609415
0.00304579
0.000448341
-0.00169567
-0.00338401
-0.00461487
-0.00538695
-0.00569959
-0.00555284
-0.00494742
-0.00388484
-0.00236735
-0.000397921
0.00201978
0.00488142
0.00818206
0.0119161
0.0160775
0.0206596
0.0256552
0.0310569
0.0368568
0.0430467
0.049618
0.0565622
0.0638701
0.0715327
0.0795408
0.087885
0.0965558
0.105544
0.11484
0.124434
0.134318
0.144481
0.154915
0.165611
0.176559
0.187751
0.199177
0.210831
0.222703
0.234784
0.247068
0.259547
0.272212
0.285057
0.298075
0.311258
0.3246
0.338094
0.351735
0.365515
0.379429
0.393471
0.407637
0.421919
0.436313
0.450814
0.465418
0.480118
0.494911
0.509791
0.524754
0.539796
0.554913
0.570099
0.58535
0.600662
0.616031
0.631452
0.646921
0.662432
0.677983
0.693566
0.709179
0.724815
0.74047
0.756138
0.771813
0.787489
0.803162
0.818823
0.834466
0.850085
0.865671
0.881218
0.896717
0.912159
0.927536
0.942838
0.958055
0.973178
0.988195
1.00309
1.01787
1.0325
1.04697
1.06128
1.07541
1.08935
1.10307
1.11657
1.12983
1.14283
1.15556
1.168
1.18013
1.19194
1.20341
1.21452
1.22525
1.23558
1.24551
1.255
1.26404
1.27262
1.28073
1.28833
1.29543
1.302
1.30803
1.31351
1.31843
1.32278
1.32655
1.32974
1.33234
1.33434
1.33575
1.33657
1.33679
1.33642
1.33547
1.33394
1.33184
1.32919
1.32597
1.32222
1.31794
1.31313
1.30781
1.30199
1.29566
1.28883
1.28154
1.27385
1.26498
1.25432
0.0748651
0.0645607
0.0560216
0.0486356
0.0416706
0.0351591
0.0291446
0.0236183
0.0185724
0.0140044
0.00991298
0.00629727
0.00315683
0.000491469
-0.001699
-0.00341485
-0.00465673
-0.00542562
-0.00572301
-0.00555084
-0.00491167
-0.00380865
-0.00224549
-0.000226518
0.0022434
0.00515888
0.00851405
0.0123025
0.0165174
0.0211516
0.0261973
0.0316467
0.0374915
0.0437232
0.0503332
0.0573125
0.064652
0.0723425
0.0803748
0.0887396
0.0974273
0.106429
0.115734
0.125335
0.135222
0.145385
0.155815
0.166504
0.177442
0.188622
0.200033
0.211669
0.223521
0.23558
0.24784
0.260291
0.272928
0.285742
0.298728
0.311877
0.325183
0.33864
0.352241
0.365981
0.379854
0.393853
0.407974
0.422211
0.436559
0.451013
0.465567
0.480218
0.49496
0.509789
0.524699
0.539688
0.55475
0.569881
0.585077
0.600332
0.615644
0.631007
0.646418
0.661871
0.677361
0.692886
0.708439
0.724015
0.73961
0.755218
0.770833
0.786451
0.802064
0.817667
0.833253
0.848815
0.864347
0.87984
0.895287
0.910678
0.926007
0.941263
0.956437
0.971519
0.986498
1.00136
1.0161
1.03071
1.04516
1.05945
1.07357
1.08749
1.10121
1.11472
1.12798
1.141
1.15375
1.16621
1.17837
1.19022
1.20173
1.21289
1.22367
1.23407
1.24406
1.25362
1.26275
1.27141
1.2796
1.28729
1.29448
1.30114
1.30727
1.31285
1.31787
1.32231
1.32617
1.32944
1.33212
1.33419
1.33566
1.33653
1.33678
1.33644
1.33548
1.33394
1.33179
1.32906
1.32575
1.32187
1.31742
1.31242
1.30686
1.30076
1.29411
1.2869
1.27921
1.27106
1.26166
1.25033
0.0780049
0.0670911
0.058059
0.0502615
0.0429229
0.036077
0.0297692
0.0239884
0.0187246
0.013973
0.0097297
0.00599138
0.00275502
1.79288e-05
-0.00222256
-0.00396914
-0.00522471
-0.00599242
-0.00627575
-0.00607858
-0.00540524
-0.00426045
-0.00264943
-0.000577833
0.00194825
0.00492235
0.00833759
0.0121867
0.0164622
0.021156
0.0262601
0.0317659
0.0376649
0.0439482
0.0506068
0.0576316
0.0650133
0.0727426
0.0808102
0.0892066
0.0979225
0.106948
0.116275
0.125893
0.135794
0.145967
0.156405
0.167098
0.178038
0.189215
0.200622
0.21225
0.224091
0.236138
0.248382
0.260816
0.273433
0.286225
0.299186
0.312309
0.325587
0.339014
0.352584
0.366291
0.380129
0.394092
0.408175
0.422372
0.43668
0.451091
0.465603
0.480209
0.494905
0.509687
0.52455
0.53949
0.554502
0.569583
0.584727
0.599931
0.61519
0.6305
0.645856
0.661255
0.676691
0.69216
0.707658
0.723179
0.738718
0.754272
0.769833
0.785396
0.800956
0.816507
0.832042
0.847554
0.863037
0.878483
0.893884
0.909233
0.924521
0.939739
0.954878
0.969928
0.984879
0.99972
1.01444
1.02903
1.04347
1.05775
1.07187
1.08579
1.09952
1.11304
1.12633
1.13937
1.15215
1.16465
1.17686
1.18876
1.20033
1.21155
1.22241
1.23288
1.24295
1.25261
1.26182
1.27058
1.27887
1.28667
1.29396
1.30074
1.30697
1.31266
1.31778
1.32233
1.32629
1.32966
1.33242
1.33457
1.3361
1.33702
1.33731
1.33699
1.33603
1.33446
1.33227
1.32947
1.32606
1.32205
1.31743
1.31223
1.30643
1.30005
1.29308
1.28552
1.27742
1.26883
1.25891
1.24694
0.0805378
0.0690361
0.0595264
0.0513285
0.0436247
0.0364507
0.0298535
0.0238207
0.0183399
0.0134045
0.0090085
0.00514621
0.00181235
-0.00099813
-0.00329009
-0.00506851
-0.00633841
-0.00710503
-0.00737374
-0.0071503
-0.00644074
-0.00525138
-0.00358893
-0.00146037
0.001127
0.00416554
0.00764739
0.0115644
0.0159082
0.0206701
0.0258414
0.031413
0.037376
0.0437209
0.0504386
0.0575196
0.0649545
0.0727337
0.0808478
0.0892873
0.0980427
0.107105
0.116464
0.126111
0.136036
0.146232
0.156688
0.167396
0.178347
0.189533
0.200945
0.212576
0.224416
0.23646
0.248698
0.261123
0.273728
0.286507
0.299452
0.312557
0.325815
0.339219
0.352765
0.366445
0.380255
0.394188
0.408239
0.422404
0.436676
0.451051
0.465525
0.480091
0.494747
0.509488
0.524308
0.539204
0.554171
0.569205
0.584303
0.599459
0.614669
0.62993
0.645237
0.660585
0.675971
0.69139
0.706837
0.722307
0.737797
0.7533
0.768811
0.784326
0.799838
0.815342
0.830831
0.846299
0.861739
0.877145
0.892508
0.907821
0.923076
0.938264
0.953376
0.968403
0.983334
0.998159
1.01287
1.02745
1.04189
1.05618
1.0703
1.08424
1.09799
1.11154
1.12486
1.13794
1.15077
1.16332
1.17559
1.18756
1.1992
1.2105
1.22144
1.23201
1.24218
1.25194
1.26126
1.27013
1.27854
1.28646
1.29387
1.30077
1.30713
1.31294
1.31818
1.32284
1.32691
1.33038
1.33324
1.33547
1.33708
1.33805
1.33839
1.33808
1.33714
1.33555
1.33331
1.33044
1.32693
1.32278
1.31801
1.3126
1.30657
1.29991
1.29262
1.28471
1.27622
1.2672
1.25678
1.2442
0.0824258
0.0703559
0.0603833
0.0517958
0.0437356
0.0362403
0.029359
0.0230777
0.0173826
0.0122651
0.00771732
0.00373164
0.000300669
-0.00258276
-0.00492567
-0.00673509
-0.00801806
-0.0087818
-0.00903359
-0.00878094
-0.00803152
-0.0067933
-0.00507442
-0.00288324
-0.000228289
0.00288166
0.00643768
0.0104307
0.0148515
0.0196906
0.0249387
0.0305862
0.0366234
0.0430408
0.0498285
0.056977
0.0644763
0.0723169