/*--------------------------------*- C++ -*----------------------------------*\
  =========                 |
  \\      /  F ield         | OpenFOAM: The Open Source CFD Toolbox
   \\    /   O peration     | Website:  https://openfoam.org
    \\  /    A nd           | Version:  7
     \\/     M anipulation  |
\*---------------------------------------------------------------------------*/
FoamFile
{
    version     2.0;
    format      ascii;
    class       surfaceScalarField;
    location    "0.0875";
    object      phi;
}
// * * * * * * * * * * * * * * * * * * * * * * * * * * * * * * * * * * * * * //

dimensions      [0 3 -1 0 0 0 0];

internalField   nonuniform List<scalar> 
25360
(
1.14256e-10
-1.14252e-10
3.5932e-10
-2.45067e-10
6.03716e-10
-2.44398e-10
7.64369e-10
-1.60652e-10
7.97171e-10
-3.28044e-11
6.80335e-10
1.16833e-10
4.05243e-10
2.75092e-10
-2.87789e-11
4.34018e-10
-6.1759e-10
5.88814e-10
-1.35418e-09
7.36588e-10
-2.22978e-09
8.75606e-10
-3.23464e-09
1.00486e-09
-4.35844e-09
1.1238e-09
-5.59068e-09
1.23224e-09
-6.92084e-09
1.33015e-09
-8.33855e-09
1.41771e-09
-9.83371e-09
1.49516e-09
-1.13966e-08
1.56284e-09
-1.30177e-08
1.62114e-09
-1.46882e-08
1.67048e-09
-1.63995e-08
1.71131e-09
-1.81436e-08
1.7441e-09
-1.99129e-08
1.76931e-09
-2.17003e-08
1.78743e-09
-2.34993e-08
1.79892e-09
-2.53035e-08
1.80426e-09
-2.71074e-08
1.8039e-09
-2.89057e-08
1.7983e-09
-3.06936e-08
1.7879e-09
-3.24667e-08
1.77311e-09
-3.42211e-08
1.75434e-09
-3.5953e-08
1.73199e-09
-3.76595e-08
1.70642e-09
-3.93375e-08
1.678e-09
-4.09845e-08
1.64707e-09
-4.25985e-08
1.61393e-09
-4.41774e-08
1.5789e-09
-4.57196e-08
1.54227e-09
-4.72239e-08
1.50428e-09
-4.86891e-08
1.4652e-09
-5.01144e-08
1.42524e-09
-5.1499e-08
1.38463e-09
-5.28425e-08
1.34355e-09
-5.41447e-08
1.3022e-09
-5.54055e-08
1.26072e-09
-5.66247e-08
1.21927e-09
-5.78027e-08
1.17797e-09
-5.89397e-08
1.13696e-09
-6.0036e-08
1.09633e-09
-6.10922e-08
1.05617e-09
-6.21088e-08
1.01658e-09
-6.30864e-08
9.77613e-10
-6.40257e-08
9.39333e-10
-6.49275e-08
9.01787e-10
-6.57925e-08
8.65013e-10
-6.66215e-08
8.29038e-10
-6.74154e-08
7.93884e-10
-6.8175e-08
7.59566e-10
-6.89011e-08
7.26087e-10
-6.95945e-08
6.93446e-10
-7.02562e-08
6.61635e-10
-7.08868e-08
6.30638e-10
-7.14872e-08
6.00432e-10
-7.20582e-08
5.70993e-10
-7.26005e-08
5.42291e-10
-7.31148e-08
5.14291e-10
-7.36018e-08
4.86953e-10
-7.4062e-08
4.60233e-10
-7.44961e-08
4.34084e-10
-7.49045e-08
4.08455e-10
-7.52878e-08
3.83293e-10
-7.56464e-08
3.58542e-10
-7.59805e-08
3.34141e-10
-7.62905e-08
3.10029e-10
-7.65767e-08
2.86141e-10
-7.68391e-08
2.62411e-10
-7.70779e-08
2.38773e-10
-7.7293e-08
2.15157e-10
-7.74845e-08
1.91494e-10
-7.76522e-08
1.67711e-10
-7.7796e-08
1.43735e-10
-7.79154e-08
1.19491e-10
-7.80104e-08
9.49065e-11
-7.80803e-08
6.99078e-11
-7.81247e-08
4.44218e-11
-7.81431e-08
1.83723e-11
-7.81347e-08
-8.31618e-12
-7.8099e-08
-3.57162e-11
-7.80351e-08
-6.38983e-11
-7.79422e-08
-9.29317e-11
-7.78193e-08
-1.22886e-10
-7.76655e-08
-1.53829e-10
-7.74797e-08
-1.85828e-10
-7.72607e-08
-2.18943e-10
-7.70075e-08
-2.53228e-10
-7.67187e-08
-2.88736e-10
-7.63932e-08
-3.25517e-10
-7.60296e-08
-3.63615e-10
-7.56266e-08
-4.03068e-10
-7.51826e-08
-4.43909e-10
-7.46965e-08
-4.86162e-10
-7.41666e-08
-5.29844e-10
-7.35917e-08
-5.74963e-10
-7.29702e-08
-6.21515e-10
-7.23007e-08
-6.69488e-10
-7.15818e-08
-7.18862e-10
-7.08122e-08
-7.69602e-10
-6.99905e-08
-8.21661e-10
-6.91156e-08
-8.74976e-10
-6.81861e-08
-9.29472e-10
-6.7201e-08
-9.85059e-10
-6.61594e-08
-1.04163e-09
-6.50603e-08
-1.09907e-09
-6.39031e-08
-1.15722e-09
-6.26872e-08
-1.21593e-09
-6.14121e-08
-1.27502e-09
-6.00779e-08
-1.3343e-09
-5.86843e-08
-1.39353e-09
-5.72319e-08
-1.45248e-09
-5.5721e-08
-1.51088e-09
-5.41525e-08
-1.56847e-09
-5.25276e-08
-1.62492e-09
-5.08477e-08
-1.67992e-09
-4.91145e-08
-1.73312e-09
-4.73304e-08
-1.78415e-09
-4.54978e-08
-1.83262e-09
-4.36197e-08
-1.87812e-09
-4.16994e-08
-1.92023e-09
-3.97409e-08
-1.95851e-09
-3.77484e-08
-1.99249e-09
-3.57267e-08
-2.02171e-09
-3.3681e-08
-2.04568e-09
-3.16171e-08
-2.0639e-09
-2.95413e-08
-2.07586e-09
-2.74602e-08
-2.08105e-09
-2.53813e-08
-2.07896e-09
-2.33122e-08
-2.06907e-09
-2.12613e-08
-2.05087e-09
-1.92375e-08
-2.02387e-09
-1.72499e-08
-1.98755e-09
-1.53085e-08
-1.94144e-09
-1.34234e-08
-1.88508e-09
-1.16054e-08
-1.81803e-09
-9.86546e-09
-1.73992e-09
-8.21508e-09
-1.65038e-09
-6.66594e-09
-1.54914e-09
-5.22995e-09
-1.43599e-09
-3.91908e-09
-1.31086e-09
-2.74526e-09
-1.17383e-09
-1.72007e-09
-1.02519e-09
-8.54489e-10
-8.65585e-10
-1.58335e-10
-6.96154e-10
3.60479e-10
-5.18814e-10
6.97203e-10
-3.36728e-10
8.52328e-10
-1.5513e-10
8.35076e-10
1.72482e-11
6.69241e-10
1.6583e-10
4.03536e-10
2.65703e-10
1.30686e-10
2.72852e-10
1.30687e-10
2.45261e-10
-3.59511e-10
6.33451e-10
-6.3326e-10
9.49059e-10
-5.60005e-10
1.04545e-09
-2.5704e-10
8.26827e-10
1.85818e-10
2.3675e-10
7.06911e-10
-7.53135e-10
1.26497e-09
-2.15184e-09
1.83272e-09
-3.95525e-09
2.39221e-09
-6.15038e-09
2.93171e-09
-8.71836e-09
3.44359e-09
-1.16365e-08
3.92301e-09
-1.48798e-08
4.36707e-09
-1.84217e-08
4.77417e-09
-2.22353e-08
5.1437e-09
-2.62933e-08
5.47573e-09
-3.05689e-08
5.77079e-09
-3.50359e-08
6.02983e-09
-3.96688e-08
6.25401e-09
-4.4443e-08
6.44471e-09
-4.93351e-08
6.60345e-09
-5.43229e-08
6.73184e-09
-5.93851e-08
6.83153e-09
-6.45019e-08
6.90423e-09
-6.96546e-08
6.95166e-09
-7.48259e-08
6.97552e-09
-7.99995e-08
6.97751e-09
-8.51605e-08
6.9593e-09
-9.02951e-08
6.92253e-09
-9.53908e-08
6.86876e-09
-1.00436e-07
6.79955e-09
-1.0542e-07
6.71637e-09
-1.10335e-07
6.62063e-09
-1.1517e-07
6.51369e-09
-1.1992e-07
6.39684e-09
-1.24577e-07
6.2713e-09
-1.29137e-07
6.13822e-09
-1.33593e-07
5.99871e-09
-1.37943e-07
5.85377e-09
-1.42182e-07
5.70437e-09
-1.46308e-07
5.55139e-09
-1.50319e-07
5.39565e-09
-1.54213e-07
5.23791e-09
-1.5799e-07
5.07887e-09
-1.61648e-07
4.91917e-09
-1.65189e-07
4.75937e-09
-1.68611e-07
4.6e-09
-1.71915e-07
4.44153e-09
-1.75103e-07
4.28437e-09
-1.78176e-07
4.1289e-09
-1.81135e-07
3.97542e-09
-1.83981e-07
3.82423e-09
-1.86718e-07
3.67555e-09
-1.89345e-07
3.52957e-09
-1.91867e-07
3.38646e-09
-1.94284e-07
3.24634e-09
-1.966e-07
3.10928e-09
-1.98815e-07
2.97535e-09
-2.00934e-07
2.84456e-09
-2.02957e-07
2.71693e-09
-2.04888e-07
2.59242e-09
-2.06728e-07
2.47098e-09
-2.08481e-07
2.35253e-09
-2.10147e-07
2.23699e-09
-2.11728e-07
2.12423e-09
-2.13228e-07
2.01413e-09
-2.14648e-07
1.90654e-09
-2.15989e-07
1.80129e-09
-2.17253e-07
1.6982e-09
-2.18442e-07
1.59709e-09
-2.19556e-07
1.49774e-09
-2.20598e-07
1.39994e-09
-2.21567e-07
1.30347e-09
-2.22465e-07
1.20808e-09
-2.23292e-07
1.11354e-09
-2.2405e-07
1.01959e-09
-2.24737e-07
9.25984e-10
-2.25354e-07
8.32444e-10
-2.25901e-07
7.38705e-10
-2.26378e-07
6.4449e-10
-2.26784e-07
5.49524e-10
-2.27118e-07
4.53525e-10
-2.27379e-07
3.56207e-10
-2.27566e-07
2.57286e-10
-2.27679e-07
1.56481e-10
-2.27714e-07
5.35108e-11
-2.2767e-07
-5.19075e-11
-2.27546e-07
-1.60053e-10
-2.27338e-07
-2.71199e-10
-2.27046e-07
-3.85613e-10
-2.26665e-07
-5.03552e-10
-2.26194e-07
-6.25269e-10
-2.25628e-07
-7.51005e-10
-2.24966e-07
-8.8099e-10
-2.24204e-07
-1.01544e-09
-2.23338e-07
-1.15454e-09
-2.22365e-07
-1.29849e-09
-2.21282e-07
-1.44744e-09
-2.20083e-07
-1.60153e-09
-2.18766e-07
-1.76087e-09
-2.17327e-07
-1.92555e-09
-2.15761e-07
-2.09562e-09
-2.14065e-07
-2.2711e-09
-2.12234e-07
-2.45197e-09
-2.10266e-07
-2.63818e-09
-2.08155e-07
-2.82963e-09
-2.05898e-07
-3.02617e-09
-2.03492e-07
-3.22761e-09
-2.00934e-07
-3.43371e-09
-1.98219e-07
-3.64416e-09
-1.95346e-07
-3.8586e-09
-1.92311e-07
-4.07662e-09
-1.89112e-07
-4.29772e-09
-1.85748e-07
-4.52136e-09
-1.82217e-07
-4.7469e-09
-1.78518e-07
-4.97365e-09
-1.74652e-07
-5.20084e-09
-1.70618e-07
-5.42761e-09
-1.66417e-07
-5.65304e-09
-1.62052e-07
-5.87611e-09
-1.57524e-07
-6.09575e-09
-1.52839e-07
-6.31078e-09
-1.47999e-07
-6.51995e-09
-1.4301e-07
-6.72194e-09
-1.37879e-07
-6.91534e-09
-1.32612e-07
-7.09867e-09
-1.2722e-07
-7.27039e-09
-1.21712e-07
-7.42888e-09
-1.16098e-07
-7.57247e-09
-1.10391e-07
-7.69941e-09
-1.04604e-07
-7.80793e-09
-9.8754e-08
-7.89619e-09
-9.28555e-08
-7.96233e-09
-8.69269e-08
-8.00446e-09
-8.09873e-08
-8.02069e-09
-7.50571e-08
-8.00911e-09
-6.91584e-08
-7.96781e-09
-6.33143e-08
-7.89494e-09
-5.75495e-08
-7.78867e-09
-5.18898e-08
-7.64722e-09
-4.63624e-08
-7.4689e-09
-4.09953e-08
-7.25215e-09
-3.58178e-08
-6.99551e-09
-3.086e-08
-6.69774e-09
-2.61526e-08
-6.35782e-09
-2.17267e-08
-5.97505e-09
-1.76136e-08
-5.54911e-09
-1.38442e-08
-5.08025e-09
-1.04485e-08
-4.56945e-09
-7.45504e-09
-4.01869e-09
-4.88923e-09
-3.43139e-09
-2.77236e-09
-2.81301e-09
-1.11914e-09
-2.17203e-09
6.55258e-11
-1.52139e-09
7.91263e-10
-8.80859e-10
1.0891e-09
-2.80581e-10
1.02137e-09
2.33562e-10
6.94567e-10
5.92507e-10
2.72871e-10
6.94551e-10
4.03557e-10
2.45591e-10
-6.05096e-10
5.62862e-10
-9.50539e-10
6.96806e-10
-6.93948e-10
4.73513e-10
-3.37548e-11
-2.26631e-10
8.8596e-10
-1.47947e-09
1.95975e-09
-3.32684e-09
3.11236e-09
-5.7853e-09
4.29118e-09
-8.85284e-09
5.45976e-09
-1.25141e-08
6.59301e-09
-1.67444e-08
7.67389e-09
-2.15124e-08
8.69102e-09
-2.67825e-08
9.63713e-09
-3.25162e-08
1.05079e-08
-3.86736e-08
1.13011e-08
-4.5214e-08
1.20161e-08
-5.20969e-08
1.26536e-08
-5.92821e-08
1.32151e-08
-6.67306e-08
1.37025e-08
-7.44044e-08
1.41185e-08
-8.22671e-08
1.44662e-08
-9.02838e-08
1.47486e-08
-9.84214e-08
1.49692e-08
-1.06649e-07
1.51314e-08
-1.14936e-07
1.52389e-08
-1.23256e-07
1.52953e-08
-1.31582e-07
1.53041e-08
-1.39892e-07
1.52688e-08
-1.48162e-07
1.51929e-08
-1.56373e-07
1.50798e-08
-1.64506e-07
1.49328e-08
-1.72545e-07
1.4755e-08
-1.80474e-07
1.45496e-08
-1.8828e-07
1.43194e-08
-1.9595e-07
1.40673e-08
-2.03475e-07
1.37958e-08
-2.10844e-07
1.35076e-08
-2.1805e-07
1.32049e-08
-2.25086e-07
1.28901e-08
-2.31947e-07
1.25651e-08
-2.38628e-07
1.2232e-08
-2.45125e-07
1.18925e-08
-2.51435e-07
1.15484e-08
-2.57557e-07
1.1201e-08
-2.6349e-07
1.08519e-08
-2.69233e-07
1.05023e-08
-2.74787e-07
1.01534e-08
-2.80151e-07
9.80619e-09
-2.85328e-07
9.46157e-09
-2.9032e-07
9.1204e-09
-2.95128e-07
8.78338e-09
-2.99755e-07
8.45113e-09
-3.04203e-07
8.12416e-09
-3.08477e-07
7.80293e-09
-3.12578e-07
7.48778e-09
-3.16511e-07
7.17898e-09
-3.20278e-07
6.87675e-09
-3.23884e-07
6.5812e-09
-3.27332e-07
6.29241e-09
-3.30625e-07
6.01039e-09
-3.33768e-07
5.73508e-09
-3.36763e-07
5.46638e-09
-3.39615e-07
5.20413e-09
-3.42326e-07
4.94814e-09
-3.449e-07
4.69817e-09
-3.4734e-07
4.45392e-09
-3.49648e-07
4.21509e-09
-3.51828e-07
3.98132e-09
-3.53883e-07
3.75221e-09
-3.55813e-07
3.52737e-09
-3.57621e-07
3.30634e-09
-3.5931e-07
3.08865e-09
-3.6088e-07
2.87382e-09
-3.62334e-07
2.66133e-09
-3.63671e-07
2.45066e-09
-3.64892e-07
2.24125e-09
-3.65999e-07
2.03255e-09
-3.66991e-07
1.82398e-09
-3.67867e-07
1.61495e-09
-3.68627e-07
1.40487e-09
-3.69271e-07
1.19313e-09
-3.69796e-07
9.79118e-10
-3.70202e-07
7.62228e-10
-3.70487e-07
5.41838e-10
-3.70648e-07
3.17333e-10
-3.70682e-07
8.81015e-11
-3.70588e-07
-1.46464e-10
-3.70361e-07
-3.86964e-10
-3.69998e-07
-6.3399e-10
-3.69496e-07
-8.8812e-10
-3.68849e-07
-1.14991e-09
-3.68055e-07
-1.41991e-09
-3.67107e-07
-1.69863e-09
-3.66001e-07
-1.98656e-09
-3.64733e-07
-2.28416e-09
-3.63295e-07
-2.59184e-09
-3.61684e-07
-2.91e-09
-3.59892e-07
-3.23896e-09
-3.57915e-07
-3.57903e-09
-3.55745e-07
-3.93042e-09
-3.53378e-07
-4.29331e-09
-3.50805e-07
-4.66781e-09
-3.48023e-07
-5.05392e-09
-3.45023e-07
-5.45162e-09
-3.418e-07
-5.86075e-09
-3.38349e-07
-6.28108e-09
-3.34663e-07
-6.71229e-09
-3.30736e-07
-7.15392e-09
-3.26565e-07
-7.60544e-09
-3.22143e-07
-8.06616e-09
-3.17466e-07
-8.53528e-09
-3.12531e-07
-9.01188e-09
-3.07334e-07
-9.49486e-09
-3.01872e-07
-9.98302e-09
-2.96144e-07
-1.0475e-08
-2.90148e-07
-1.09692e-08
-2.83885e-07
-1.14639e-08
-2.77355e-07
-1.19574e-08
-2.70561e-07
-1.24475e-08
-2.63505e-07
-1.29321e-08
-2.56192e-07
-1.34088e-08
-2.48627e-07
-1.38751e-08
-2.40819e-07
-1.43282e-08
-2.32776e-07
-1.47653e-08
-2.24508e-07
-1.51833e-08
-2.16028e-07
-1.5579e-08
-2.07349e-07
-1.5949e-08
-1.98488e-07
-1.629e-08
-1.89462e-07
-1.65982e-08
-1.80292e-07
-1.68699e-08
-1.70998e-07
-1.71014e-08
-1.61606e-07
-1.72886e-08
-1.5214e-07
-1.74276e-08
-1.4263e-07
-1.75144e-08
-1.33106e-07
-1.75449e-08
-1.236e-07
-1.75151e-08
-1.14147e-07
-1.74211e-08
-1.04783e-07
-1.72588e-08
-9.55473e-08
-1.70245e-08
-8.64799e-08
-1.67146e-08
-7.76233e-08
-1.63256e-08
-6.9021e-08
-1.58544e-08
-6.07184e-08
-1.52982e-08
-5.27615e-08
-1.46546e-08
-4.51972e-08
-1.39221e-08
-3.80728e-08
-1.30995e-08
-3.1435e-08
-1.21869e-08
-2.53297e-08
-1.11855e-08
-1.98007e-08
-1.00985e-08
-1.48883e-08
-8.9311e-09
-1.06279e-08
-7.69178e-09
-7.04744e-09
-6.39344e-09
-4.16436e-09
-5.05511e-09
-1.98119e-09
-3.70457e-09
-4.79891e-10
-2.38216e-09
3.85702e-10
-1.14618e-09
6.9967e-10
-8.04032e-11
5.95179e-10
6.97001e-10
2.66584e-10
1.02315e-09
6.70141e-10
1.63569e-10
-7.68664e-10
2.64234e-10
-1.05121e-09
4.34435e-11
-4.73154e-10
-6.79081e-10
6.88773e-10
-2.03003e-09
2.2369e-09
-4.09258e-09
4.02229e-09
-6.91479e-09
5.93457e-09
-1.05172e-08
7.89357e-09
-1.4899e-08
9.84161e-09
-2.00436e-08
1.17375e-08
-2.5922e-08
1.35523e-08
-3.2497e-08
1.5266e-08
-3.97251e-08
1.68652e-08
-4.75587e-08
1.83415e-08
-5.59477e-08
1.96901e-08
-6.48407e-08
2.09091e-08
-7.41857e-08
2.19987e-08
-8.39313e-08
2.29606e-08
-9.40267e-08
2.37979e-08
-1.04423e-07
2.45144e-08
-1.15071e-07
2.51148e-08
-1.25927e-07
2.56042e-08
-1.36946e-07
2.59881e-08
-1.48087e-07
2.62722e-08
-1.5931e-07
2.64624e-08
-1.70579e-07
2.65647e-08
-1.8186e-07
2.6585e-08
-1.93121e-07
2.65293e-08
-2.04332e-07
2.64035e-08
-2.15465e-07
2.62133e-08
-2.26497e-07
2.59642e-08
-2.37403e-07
2.56617e-08
-2.48165e-07
2.5311e-08
-2.58762e-07
2.49171e-08
-2.6918e-07
2.44848e-08
-2.79403e-07
2.40187e-08
-2.89418e-07
2.35231e-08
-2.99215e-07
2.30021e-08
-3.08785e-07
2.24595e-08
-3.18119e-07
2.1899e-08
-3.2721e-07
2.13239e-08
-3.36055e-07
2.07373e-08
-3.44649e-07
2.01421e-08
-3.52989e-07
1.95409e-08
-3.61073e-07
1.89363e-08
-3.68901e-07
1.83305e-08
-3.76473e-07
1.77253e-08
-3.8379e-07
1.71228e-08
-3.90853e-07
1.65244e-08
-3.97664e-07
1.59316e-08
-4.04226e-07
1.53457e-08
-4.10543e-07
1.47677e-08
-4.16617e-07
1.41987e-08
-4.22454e-07
1.36392e-08
-4.28056e-07
1.309e-08
-4.33428e-07
1.25516e-08
-4.38576e-07
1.20244e-08
-4.43503e-07
1.15085e-08
-4.48215e-07
1.10041e-08
-4.52716e-07
1.05113e-08
-4.57011e-07
1.00299e-08
-4.61104e-07
9.55977e-09
-4.65001e-07
9.10071e-09
-4.68705e-07
8.65235e-09
-4.72221e-07
8.21428e-09
-4.75553e-07
7.78603e-09
-4.78705e-07
7.36705e-09
-4.8168e-07
6.95673e-09
-4.84483e-07
6.55441e-09
-4.87115e-07
6.15938e-09
-4.89579e-07
5.77089e-09
-4.91879e-07
5.38812e-09
-4.94015e-07
5.01024e-09
-4.9599e-07
4.63636e-09
-4.97805e-07
4.26557e-09
-4.99461e-07
3.89694e-09
-5.00958e-07
3.52948e-09
-5.02296e-07
3.16222e-09
-5.03475e-07
2.79415e-09
-5.04495e-07
2.42423e-09
-5.05353e-07
2.05142e-09
-5.06048e-07
1.67468e-09
-5.06579e-07
1.29294e-09
-5.06942e-07
9.05161e-10
-5.07135e-07
5.1027e-10
-5.07154e-07
1.07218e-10
-5.06996e-07
-3.05038e-10
-5.06655e-07
-7.27525e-10
-5.06128e-07
-1.16125e-09
-5.05409e-07
-1.60722e-09
-5.04493e-07
-2.06637e-09
-5.03373e-07
-2.53963e-09
-5.02044e-07
-3.02788e-09
-5.00498e-07
-3.53196e-09
-4.9873e-07
-4.05263e-09
-4.96731e-07
-4.59061e-09
-4.94494e-07
-5.14655e-09
-4.92012e-07
-5.72101e-09
-4.89277e-07
-6.31447e-09
-4.8628e-07
-6.92731e-09
-4.83014e-07
-7.5598e-09
-4.79469e-07
-8.21209e-09
-4.75639e-07
-8.88421e-09
-4.71515e-07
-9.57604e-09
-4.67088e-07
-1.02873e-08
-4.62351e-07
-1.10176e-08
-4.57297e-07
-1.17664e-08
-4.51918e-07
-1.25328e-08
-4.46208e-07
-1.33158e-08
-4.4016e-07
-1.41143e-08
-4.33768e-07
-1.49269e-08
-4.27028e-07
-1.5752e-08
-4.19935e-07
-1.65876e-08
-4.12487e-07
-1.74316e-08
-4.0468e-07
-1.82816e-08
-3.96514e-07
-1.9135e-08
-3.87989e-07
-1.99889e-08
-3.79107e-07
-2.08399e-08
-3.6987e-07
-2.16847e-08
-3.60283e-07
-2.25193e-08
-3.50352e-07
-2.33397e-08
-3.40085e-07
-2.41416e-08
-3.29493e-07
-2.49202e-08
-3.18588e-07
-2.56706e-08
-3.07384e-07
-2.63875e-08
-2.95897e-07
-2.70656e-08
-2.84147e-07
-2.7699e-08
-2.72156e-07
-2.82817e-08
-2.59946e-07
-2.88077e-08
-2.47545e-07
-2.92705e-08
-2.34983e-07
-2.96636e-08
-2.22291e-07
-2.99804e-08
-2.09505e-07
-3.0214e-08
-1.96662e-07
-3.03578e-08
-1.83802e-07
-3.04048e-08
-1.70969e-07
-3.03483e-08
-1.58208e-07
-3.01816e-08
-1.45568e-07
-2.98983e-08
-1.33101e-07
-2.9492e-08
-1.20859e-07
-2.89568e-08
-1.08897e-07
-2.82871e-08
-9.72736e-08
-2.7478e-08
-8.60465e-08
-2.65253e-08
-7.52758e-08
-2.54254e-08
-6.50219e-08
-2.4176e-08
-5.5345e-08
-2.27763e-08
-4.63047e-08
-2.12272e-08
-3.79584e-08
-1.95318e-08
-3.03604e-08
-1.76965e-08
-2.35602e-08
-1.57314e-08
-1.75998e-08
-1.36521e-08
-1.2512e-08
-1.14813e-08
-8.31552e-09
-9.25155e-09
-5.01159e-09
-7.0085e-09
-2.57759e-09
-4.81616e-09
-9.60274e-10
-2.7635e-09
-6.73023e-11
-9.73376e-10
2.42152e-10
3.87543e-10
1.68705e-10
1.09659e-09
8.38846e-10
3.76135e-11
-8.06276e-10
-1.74493e-10
-8.39104e-10
-8.70976e-10
2.23326e-10
-2.2218e-09
2.0396e-09
-4.3487e-09
4.3638e-09
-7.33315e-09
7.00674e-09
-1.12231e-08
9.82451e-09
-1.6039e-08
1.27095e-08
-2.17795e-08
1.55821e-08
-2.84257e-08
1.83837e-08
-3.59455e-08
2.10721e-08
-4.42966e-08
2.36171e-08
-5.34294e-08
2.5998e-08
-6.32891e-08
2.82012e-08
-7.38174e-08
3.02184e-08
-8.4954e-08
3.20458e-08
-9.66379e-08
3.36825e-08
-1.08808e-07
3.51305e-08
-1.21403e-07
3.63934e-08
-1.34365e-07
3.74764e-08
-1.47636e-07
3.8386e-08
-1.61161e-07
3.91292e-08
-1.74887e-07
3.9714e-08
-1.88764e-07
4.01486e-08
-2.02743e-07
4.04415e-08
-2.1678e-07
4.06016e-08
-2.30832e-07
4.06377e-08
-2.44861e-07
4.05585e-08
-2.58831e-07
4.03727e-08
-2.72706e-07
4.00889e-08
-2.86458e-07
3.97155e-08
-3.00057e-07
3.92606e-08
-3.13478e-07
3.8732e-08
-3.26698e-07
3.81373e-08
-3.39697e-07
3.74837e-08
-3.52456e-07
3.6778e-08
-3.6496e-07
3.6027e-08
-3.77194e-07
3.52367e-08
-3.89148e-07
3.44129e-08
-4.0081e-07
3.35613e-08
-4.12173e-07
3.26868e-08
-4.2323e-07
3.17942e-08
-4.33976e-07
3.0888e-08
-4.44407e-07
2.99722e-08
-4.54521e-07
2.90506e-08
-4.64317e-07
2.81265e-08
-4.73795e-07
2.7203e-08
-4.82955e-07
2.62829e-08
-4.918e-07
2.53687e-08
-5.00331e-07
2.44626e-08
-5.08551e-07
2.35666e-08
-5.16466e-07
2.26822e-08
-5.24078e-07
2.1811e-08
-5.31393e-07
2.09541e-08
-5.38416e-07
2.01126e-08
-5.45151e-07
1.92871e-08
-5.51605e-07
1.84783e-08
-5.57783e-07
1.76865e-08
-5.63691e-07
1.69121e-08
-5.69335e-07
1.61549e-08
-5.7472e-07
1.5415e-08
-5.79852e-07
1.46921e-08
-5.84737e-07
1.39858e-08
-5.89381e-07
1.32957e-08
-5.93787e-07
1.2621e-08
-5.97963e-07
1.19612e-08
-6.01911e-07
1.13153e-08
-6.05637e-07
1.06825e-08
-6.09144e-07
1.00618e-08
-6.12437e-07
9.45213e-09
-6.15518e-07
8.85227e-09
-6.18391e-07
8.26106e-09
-6.21058e-07
7.6772e-09
-6.23521e-07
7.09937e-09
-6.25782e-07
6.52619e-09
-6.27841e-07
5.95624e-09
-6.297e-07
5.38803e-09
-6.31357e-07
4.82009e-09
-6.32814e-07
4.25087e-09
-6.34069e-07
3.67881e-09
-6.3512e-07
3.10235e-09
-6.35965e-07
2.51989e-09
-6.36602e-07
1.92984e-09
-6.37027e-07
1.33058e-09
-6.37237e-07
7.20533e-10
-6.37228e-07
9.80964e-11
-6.36995e-07
-5.38303e-10
-6.36532e-07
-1.19022e-09
-6.35834e-07
-1.85918e-09
-6.34895e-07
-2.54667e-09
-6.33707e-07
-3.25412e-09
-6.32264e-07
-3.98293e-09
-6.30557e-07
-4.73441e-09
-6.2858e-07
-5.50982e-09
-6.26322e-07
-6.3103e-09
-6.23776e-07
-7.13693e-09
-6.20931e-07
-7.99067e-09
-6.1778e-07
-8.87233e-09
-6.14312e-07
-9.78263e-09
-6.10517e-07
-1.07221e-08
-6.06386e-07
-1.16912e-08
-6.01908e-07
-1.269e-08
-5.97073e-07
-1.37186e-08
-5.91873e-07
-1.47768e-08
-5.86296e-07
-1.58642e-08
-5.80333e-07
-1.698e-08
-5.73976e-07
-1.81234e-08
-5.67216e-07
-1.9293e-08
-5.60045e-07
-2.04875e-08
-5.52454e-07
-2.1705e-08
-5.44438e-07
-2.29432e-08
-5.3599e-07
-2.41998e-08
-5.27106e-07
-2.54717e-08
-5.17782e-07
-2.67558e-08
-5.08015e-07
-2.80483e-08
-4.97805e-07
-2.93453e-08
-4.87151e-07
-3.06423e-08
-4.76057e-07
-3.19343e-08
-4.64525e-07
-3.3216e-08
-4.52563e-07
-3.44816e-08
-4.40178e-07
-3.5725e-08
-4.2738e-07
-3.69395e-08
-4.14182e-07
-3.8118e-08
-4.006e-07
-3.9253e-08
-3.8665e-07
-4.03367e-08
-3.72355e-07
-4.13608e-08
-3.57738e-07
-4.23166e-08
-3.42824e-07
-4.31951e-08
-3.27645e-07
-4.39871e-08
-3.12232e-07
-4.46829e-08
-2.96623e-07
-4.52729e-08
-2.80857e-07
-4.57469e-08
-2.64976e-07
-4.60951e-08
-2.49026e-07
-4.63071e-08
-2.33058e-07
-4.63729e-08
-2.17124e-07
-4.62826e-08
-2.01279e-07
-4.60261e-08
-1.85584e-07
-4.5594e-08
-1.70098e-07
-4.49772e-08
-1.54888e-07
-4.41671e-08
-1.40019e-07
-4.31558e-08
-1.25561e-07
-4.19363e-08
-1.11584e-07
-4.05027e-08
-9.81584e-08
-3.88508e-08
-8.53567e-08
-3.69777e-08
-7.32499e-08
-3.48831e-08
-6.19077e-08
-3.25694e-08
-5.1397e-08
-3.00425e-08
-4.17804e-08
-2.73131e-08
-3.31144e-08
-2.43974e-08
-2.54468e-08
-2.13197e-08
-1.88138e-08
-1.81143e-08
-1.32367e-08
-1.48286e-08
-8.71733e-09
-1.15279e-08
-5.23286e-09
-8.30064e-09
-2.73011e-09
-5.26625e-09
-1.11867e-09
-2.58482e-09
-2.63635e-10
-4.67494e-10
2.30487e-11
8.09908e-10
8.61893e-10
-1.10655e-10
-6.9562e-10
-6.94056e-10
-2.55705e-10
-1.94592e-09
1.47519e-09
-4.01397e-09
4.10766e-09
-7.00596e-09
7.35579e-09
-1.09946e-08
1.09954e-08
-1.60224e-08
1.48523e-08
-2.21059e-08
1.87931e-08
-2.92406e-08
2.27168e-08
-3.74043e-08
2.65475e-08
-4.65611e-08
3.02289e-08
-5.66643e-08
3.37202e-08
-6.76587e-08
3.69924e-08
-7.94835e-08
4.0026e-08
-9.20737e-08
4.28086e-08
-1.05362e-07
4.53337e-08
-1.19278e-07
4.75993e-08
-1.33755e-07
4.96068e-08
-1.48722e-07
5.13606e-08
-1.64113e-07
5.28671e-08
-1.79861e-07
5.41343e-08
-1.95903e-07
5.51716e-08
-2.12179e-07
5.59895e-08
-2.28629e-07
5.6599e-08
-2.45199e-07
5.70115e-08
-2.61837e-07
5.7239e-08
-2.78493e-07
5.72935e-08
-2.95121e-07
5.71869e-08
-3.11679e-07
5.69312e-08
-3.28129e-07
5.65382e-08
-3.44433e-07
5.60194e-08
-3.60558e-07
5.5386e-08
-3.76475e-07
5.4649e-08
-3.92156e-07
5.38187e-08
-4.07578e-07
5.29053e-08
-4.22718e-07
5.19184e-08
-4.37559e-07
5.08671e-08
-4.52082e-07
4.97601e-08
-4.66275e-07
4.86055e-08
-4.80124e-07
4.7411e-08
-4.93621e-07
4.61838e-08
-5.06758e-07
4.49305e-08
-5.19527e-07
4.36574e-08
-5.31925e-07
4.23701e-08
-5.43948e-07
4.1074e-08
-5.55596e-07
3.97738e-08
-5.66867e-07
3.84739e-08
-5.77762e-07
3.71782e-08
-5.88283e-07
3.58902e-08
-5.98434e-07
3.4613e-08
-6.08217e-07
3.33494e-08
-6.17636e-07
3.21017e-08
-6.26697e-07
3.0872e-08
-6.35405e-07
2.96621e-08
-6.43766e-07
2.84732e-08
-6.51785e-07
2.73066e-08
-6.5947e-07
2.6163e-08
-6.66826e-07
2.5043e-08
-6.73861e-07
2.3947e-08
-6.80581e-07
2.28751e-08
-6.86993e-07
2.18271e-08
-6.93104e-07
2.08027e-08
-6.9892e-07
1.98014e-08
-7.04447e-07
1.88226e-08
-7.09691e-07
1.78653e-08
-7.14658e-07
1.69287e-08
-7.19355e-07
1.60116e-08
-7.23785e-07
1.51126e-08
-7.27953e-07
1.42305e-08
-7.31865e-07
1.33637e-08
-7.35523e-07
1.25106e-08
-7.38932e-07
1.16696e-08
-7.42093e-07
1.08387e-08
-7.4501e-07
1.00163e-08
-7.47684e-07
9.20034e-09
-7.50117e-07
8.38883e-09
-7.52309e-07
7.57973e-09
-7.5426e-07
6.77095e-09
-7.55969e-07
5.96034e-09
-7.57436e-07
5.14574e-09
-7.58659e-07
4.32494e-09
-7.59634e-07
3.49572e-09
-7.6036e-07
2.65586e-09
-7.60833e-07
1.8031e-09
-7.61048e-07
9.35234e-10
-7.61e-07
5.00354e-11
-7.60683e-07
-8.5469e-10
-7.60092e-07
-1.78111e-09
-7.5922e-07
-2.73134e-09
-7.58059e-07
-3.70745e-09
-7.56602e-07
-4.71144e-09
-7.5484e-07
-5.74523e-09
-7.52763e-07
-6.81065e-09
-7.50364e-07
-7.90943e-09
-7.47631e-07
-9.04316e-09
-7.44555e-07
-1.02133e-08
-7.41124e-07
-1.14212e-08
-7.37328e-07
-1.26679e-08
-7.33157e-07
-1.39545e-08
-7.28597e-07
-1.52817e-08
-7.23638e-07
-1.66499e-08
-7.18269e-07
-1.80594e-08
-7.12477e-07
-1.95102e-08
-7.06252e-07
-2.1002e-08
-6.99582e-07
-2.25341e-08
-6.92457e-07
-2.41056e-08
-6.84865e-07
-2.57151e-08
-6.76797e-07
-2.73609e-08
-6.68244e-07
-2.90408e-08
-6.59197e-07
-3.07521e-08
-6.49648e-07
-3.24919e-08
-6.39591e-07
-3.42566e-08
-6.29021e-07
-3.60421e-08
-6.17933e-07
-3.78439e-08
-6.06324e-07
-3.96567e-08
-5.94195e-07
-4.14749e-08
-5.81545e-07
-4.32922e-08
-5.68377e-07
-4.51017e-08
-5.54697e-07
-4.6896e-08
-5.40512e-07
-4.8667e-08
-5.25831e-07
-5.0406e-08
-5.10666e-07
-5.21038e-08
-4.95034e-07
-5.37505e-08
-4.78951e-07
-5.53356e-08
-4.6244e-07
-5.68481e-08
-4.45524e-07
-5.82766e-08
-4.28232e-07
-5.9609e-08
-4.10594e-07
-6.08329e-08
-3.92646e-07
-6.19353e-08
-3.74426e-07
-6.2903e-08
-3.55976e-07
-6.37225e-08
-3.37343e-07
-6.438e-08
-3.18577e-07
-6.48616e-08
-2.9973e-07
-6.51534e-08
-2.80862e-07
-6.52415e-08
-2.62032e-07
-6.51123e-08
-2.43306e-07
-6.47522e-08
-2.24752e-07
-6.41485e-08
-2.0644e-07
-6.32888e-08
-1.88445e-07
-6.21616e-08
-1.70845e-07
-6.07566e-08
-1.53716e-07
-5.90648e-08
-1.3714e-07
-5.70787e-08
-1.21198e-07
-5.47931e-08
-1.0597e-07
-5.22052e-08
-9.15376e-08
-4.93156e-08
-7.79785e-08
-4.61286e-08
-6.53673e-08
-4.26537e-08
-5.3774e-08
-3.89064e-08
-4.32608e-08
-3.49105e-08
-3.38809e-08
-3.06997e-08
-2.56747e-08
-2.63205e-08
-1.8667e-08
-2.18363e-08
-1.28631e-08
-1.73319e-08
-8.2442e-09
-1.29195e-08
-4.76331e-09
-8.74715e-09
-2.33979e-09
-5.00834e-09
-8.54753e-10
-1.95253e-09
-1.45939e-10
1.01097e-10
7.15954e-10
-2.68806e-10
-4.2681e-10
-1.2557e-09
7.3119e-10
-3.1113e-09
3.33079e-09
-5.95382e-09
6.95018e-09
-9.87065e-09
1.12726e-08
-1.49204e-08
1.60451e-08
-2.11355e-08
2.10674e-08
-2.85255e-08
2.6183e-08
-3.708e-08
3.12713e-08
-4.6772e-08
3.62395e-08
-5.75609e-08
4.10178e-08
-6.9395e-08
4.55544e-08
-8.22143e-08
4.98118e-08
-9.59523e-08
5.3764e-08
-1.10538e-07
5.73943e-08
-1.25897e-07
6.06931e-08
-1.41955e-07
6.36568e-08
-1.58634e-07
6.62862e-08
-1.7586e-07
6.85861e-08
-1.93557e-07
7.0564e-08
-2.11652e-07
7.22297e-08
-2.30075e-07
7.35948e-08
-2.48758e-07
7.46724e-08
-2.67636e-07
7.54765e-08
-2.86646e-07
7.60217e-08
-3.0573e-07
7.63233e-08
-3.24833e-07
7.63967e-08
-3.43904e-07
7.62574e-08
-3.62894e-07
7.5921e-08
-3.81759e-07
7.54029e-08
-4.00457e-07
7.4718e-08
-4.18952e-07
7.38811e-08
-4.3721e-07
7.29064e-08
-4.55199e-07
7.18077e-08
-4.72892e-07
7.05982e-08
-4.90264e-07
6.92907e-08
-5.07294e-07
6.7897e-08
-5.23962e-07
6.64288e-08
-5.40254e-07
6.48967e-08
-5.56153e-07
6.33109e-08
-5.71651e-07
6.1681e-08
-5.86736e-07
6.00158e-08
-6.01402e-07
5.83234e-08
-6.15643e-07
5.66117e-08
-6.29457e-07
5.48874e-08
-6.4284e-07
5.3157e-08
-6.55792e-07
5.14262e-08
-6.68315e-07
4.97004e-08
-6.80409e-07
4.79842e-08
-6.92077e-07
4.62818e-08
-7.03325e-07
4.45969e-08
-7.14156e-07
4.29326e-08
-7.24575e-07
4.12916e-08
-7.3459e-07
3.96764e-08
-7.44205e-07
3.80887e-08
-7.53429e-07
3.65301e-08
-7.62267e-07
3.50017e-08
-7.70729e-07
3.35043e-08
-7.7882e-07
3.20383e-08
-7.86549e-07
3.0604e-08
-7.93923e-07
2.92011e-08
-8.0095e-07
2.78294e-08
-8.07636e-07
2.6488e-08
-8.1399e-07
2.51763e-08
-8.20018e-07
2.3893e-08
-8.25726e-07
2.26368e-08
-8.31121e-07
2.14063e-08
-8.36208e-07
2.01999e-08
-8.40993e-07
1.90156e-08
-8.45481e-07
1.78515e-08
-8.49675e-07
1.67054e-08
-8.53581e-07
1.55753e-08
-8.57201e-07
1.44586e-08
-8.60538e-07
1.3353e-08
-8.63593e-07
1.22559e-08
-8.66369e-07
1.11646e-08
-8.68866e-07
1.00765e-08
-8.71083e-07
8.98871e-09
-8.73022e-07
7.89852e-09
-8.74679e-07
6.80301e-09
-8.76053e-07
5.69927e-09
-8.77142e-07
4.58437e-09
-8.77941e-07
3.45537e-09
-8.78448e-07
2.30932e-09
-8.78656e-07
1.14326e-09
-8.7856e-07
-4.57131e-11
-8.78154e-07
-1.26051e-09
-8.77431e-07
-2.50396e-09
-8.76384e-07
-3.77888e-09
-8.75003e-07
-5.08797e-09
-8.73281e-07
-6.43387e-09
-8.71207e-07
-7.81909e-09
-8.68771e-07
-9.24603e-09
-8.65964e-07
-1.0717e-08
-8.62773e-07
-1.2234e-08
-8.59187e-07
-1.3799e-08
-8.55195e-07
-1.54137e-08
-8.50783e-07
-1.70795e-08
-8.4594e-07
-1.87978e-08
-8.40653e-07
-2.05693e-08
-8.34907e-07
-2.23949e-08
-8.28692e-07
-2.42747e-08
-8.21994e-07
-2.62087e-08
-8.14799e-07
-2.81964e-08
-8.07096e-07
-3.0237e-08
-7.98873e-07
-3.23291e-08
-7.90117e-07
-3.44709e-08
-7.80818e-07
-3.666e-08
-7.70965e-07
-3.88936e-08
-7.60549e-07
-4.11681e-08
-7.49562e-07
-4.34795e-08
-7.37995e-07
-4.5823e-08
-7.25844e-07
-4.81932e-08
-7.13104e-07
-5.0584e-08
-6.99772e-07
-5.29886e-08
-6.85847e-07
-5.53995e-08
-6.71331e-07
-5.78083e-08
-6.56227e-07
-6.02058e-08
-6.40541e-07
-6.25824e-08
-6.24281e-07
-6.49271e-08
-6.07458e-07
-6.72287e-08
-5.90087e-07
-6.94749e-08
-5.72185e-07
-7.16526e-08
-5.53773e-07
-7.37481e-08
-5.34874e-07
-7.57469e-08
-5.15516e-07
-7.7634e-08
-4.95732e-07
-7.93934e-08
-4.75556e-07
-8.10088e-08
-4.55028e-07
-8.24632e-08
-4.34192e-07
-8.37394e-08
-4.13094e-07
-8.48197e-08
-3.91788e-07
-8.56859e-08
-3.7033e-07
-8.63201e-08
-3.48779e-07
-8.67041e-08
-3.27201e-07
-8.68199e-08
-3.05663e-07
-8.66497e-08
-2.84239e-07
-8.61763e-08
-2.63005e-07
-8.53831e-08
-2.42039e-07
-8.42544e-08
-2.21425e-07
-8.27758e-08
-2.01247e-07
-8.09341e-08
-1.81594e-07
-7.87184e-08
-1.62553e-07
-7.61196e-08
-1.44214e-07
-7.31318e-08
-1.26667e-07
-6.97525e-08
-1.09999e-07
-6.59833e-08
-9.42965e-08
-6.18312e-08
-7.96408e-08
-5.73094e-08
-6.61079e-08
-5.24393e-08
-5.37662e-08
-4.72522e-08
-4.26741e-08
-4.17918e-08
-3.28773e-08
-3.61173e-08
-2.44059e-08
-3.03077e-08
-1.72714e-08
-2.44664e-08
-1.1463e-08
-1.87279e-08
-6.94451e-09
-1.32656e-08
-3.6513e-09
-8.30155e-09
-1.48744e-09
-4.11639e-09
-3.24293e-10
-1.06205e-09
3.91663e-10
-4.29587e-10
2.77723e-12
-1.83458e-09
2.13619e-09
-4.31954e-09
5.81575e-09
-7.96951e-09
1.06002e-08
-1.28475e-08
1.61506e-08
-1.8994e-08
2.21916e-08
-2.64281e-08
2.85015e-08
-3.51492e-08
3.49041e-08
-4.51389e-08
4.12609e-08
-5.63636e-08
4.74642e-08
-6.87768e-08
5.3431e-08
-8.23215e-08
5.90991e-08
-9.69323e-08
6.44225e-08
-1.12537e-07
6.93689e-08
-1.2906e-07
7.39168e-08
-1.4642e-07
7.80535e-08
-1.64537e-07
8.17735e-08
-1.83328e-07
8.50769e-08
-2.0271e-07
8.79688e-08
-2.22604e-07
9.04576e-08
-2.42929e-07
9.2555e-08
-2.63609e-07
9.42749e-08
-2.8457e-07
9.56331e-08
-3.0574e-07
9.66465e-08
-3.27052e-07
9.73333e-08
-3.4844e-07
9.77123e-08
-3.69846e-07
9.78025e-08
-3.91212e-07
9.76234e-08
-4.12486e-07
9.71943e-08
-4.33617e-07
9.65343e-08
-4.54561e-07
9.56625e-08
-4.75278e-07
9.45972e-08
-4.95727e-07
9.33563e-08
-5.15877e-07
9.19574e-08
-5.35696e-07
9.0417e-08
-5.55156e-07
8.87512e-08
-5.74235e-07
8.69752e-08
-5.92909e-07
8.51036e-08
-6.11163e-07
8.315e-08
-6.28979e-07
8.11273e-08
-6.46346e-07
7.90476e-08
-6.63252e-07
7.69222e-08
-6.7969e-07
7.47616e-08
-6.95654e-07
7.25754e-08
-7.11139e-07
7.03726e-08
-7.26143e-07
6.81612e-08
-7.40666e-07
6.59488e-08
-7.54707e-07