/*--------------------------------*- C++ -*----------------------------------*\
  =========                 |
  \\      /  F ield         | OpenFOAM: The Open Source CFD Toolbox
   \\    /   O peration     | Website:  https://openfoam.org
    \\  /    A nd           | Version:  7
     \\/     M anipulation  |
\*---------------------------------------------------------------------------*/
FoamFile
{
    version     2.0;
    format      ascii;
    class       volVectorField;
    location    "0.0875";
    object      U;
}
// * * * * * * * * * * * * * * * * * * * * * * * * * * * * * * * * * * * * * //

dimensions      [0 1 -1 0 0 0 0];

internalField   nonuniform List<vector> 
12800
(
(8.32267e-06 -8.31806e-06 0)
(3.70686e-05 -1.85236e-05 0)
(7.84878e-05 -1.96991e-05 0)
(0.00011317 -1.53414e-05 0)
(0.000129886 -8.30066e-06 0)
(0.000123751 -1.30165e-07 0)
(9.26232e-05 8.34936e-06 0)
(3.58883e-05 1.66986e-05 0)
(-4.60964e-05 2.46853e-05 0)
(-0.000152383 3.21891e-05 0)
(-0.000281674 3.91514e-05 0)
(-0.000432464 4.55466e-05 0)
(-0.00060313 5.13689e-05 0)
(-0.000791996 5.66257e-05 0)
(-0.000997372 6.13312e-05 0)
(-0.00121758 6.55034e-05 0)
(-0.00145098 6.91643e-05 0)
(-0.00169598 7.23369e-05 0)
(-0.00195105 7.50464e-05 0)
(-0.00221471 7.73186e-05 0)
(-0.00248557 7.91786e-05 0)
(-0.0027623 8.06523e-05 0)
(-0.00304366 8.17641e-05 0)
(-0.00332846 8.25389e-05 0)
(-0.00361561 8.30017e-05 0)
(-0.0039041 8.31758e-05 0)
(-0.00419296 8.30842e-05 0)
(-0.00448133 8.27495e-05 0)
(-0.00476841 8.21933e-05 0)
(-0.00505345 8.1436e-05 0)
(-0.0053358 8.04974e-05 0)
(-0.00561484 7.93963e-05 0)
(-0.00589003 7.81501e-05 0)
(-0.00616089 7.67759e-05 0)
(-0.00642699 7.52895e-05 0)
(-0.00668795 7.37062e-05 0)
(-0.00694345 7.20401e-05 0)
(-0.0071932 7.03046e-05 0)
(-0.00743697 6.85116e-05 0)
(-0.00767457 6.66728e-05 0)
(-0.00790584 6.47984e-05 0)
(-0.00813065 6.28986e-05 0)
(-0.00834892 6.09821e-05 0)
(-0.00856059 5.9057e-05 0)
(-0.00876563 5.71309e-05 0)
(-0.00896402 5.52102e-05 0)
(-0.0091558 5.33009e-05 0)
(-0.00934098 5.14083e-05 0)
(-0.00951963 4.95371e-05 0)
(-0.00969181 4.76912e-05 0)
(-0.00985761 4.58746e-05 0)
(-0.0100171 4.40904e-05 0)
(-0.0101704 4.23407e-05 0)
(-0.0103177 4.06275e-05 0)
(-0.010459 3.89526e-05 0)
(-0.0105945 3.7317e-05 0)
(-0.0107243 3.57215e-05 0)
(-0.0108486 3.41667e-05 0)
(-0.0109674 3.2653e-05 0)
(-0.0110809 3.11799e-05 0)
(-0.0111893 2.97467e-05 0)
(-0.0112926 2.83526e-05 0)
(-0.0113911 2.69963e-05 0)
(-0.0114848 2.56767e-05 0)
(-0.0115738 2.43924e-05 0)
(-0.0116583 2.31419e-05 0)
(-0.0117384 2.19232e-05 0)
(-0.0118141 2.07341e-05 0)
(-0.0118857 1.95722e-05 0)
(-0.0119531 1.84351e-05 0)
(-0.0120164 1.73202e-05 0)
(-0.0120757 1.62248e-05 0)
(-0.0121311 1.51463e-05 0)
(-0.0121826 1.40818e-05 0)
(-0.0122303 1.30281e-05 0)
(-0.0122742 1.19822e-05 0)
(-0.0123143 1.09408e-05 0)
(-0.0123506 9.90086e-06 0)
(-0.0123831 8.85905e-06 0)
(-0.0124119 7.81204e-06 0)
(-0.0124368 6.75636e-06 0)
(-0.0124579 5.68847e-06 0)
(-0.012475 4.60486e-06 0)
(-0.0124883 3.50208e-06 0)
(-0.0124974 2.37673e-06 0)
(-0.0125025 1.22514e-06 0)
(-0.0125033 4.36553e-08 0)
(-0.0124998 -1.17116e-06 0)
(-0.0124919 -2.42257e-06 0)
(-0.0124794 -3.71377e-06 0)
(-0.0124621 -5.04804e-06 0)
(-0.01244 -6.42885e-06 0)
(-0.0124129 -7.85954e-06 0)
(-0.0123806 -9.34304e-06 0)
(-0.0123428 -1.08819e-05 0)
(-0.0122995 -1.24784e-05 0)
(-0.0122504 -1.41352e-05 0)
(-0.0121954 -1.58548e-05 0)
(-0.0121341 -1.76393e-05 0)
(-0.0120664 -1.94903e-05 0)
(-0.011992 -2.14091e-05 0)
(-0.0119108 -2.33965e-05 0)
(-0.0118225 -2.5453e-05 0)
(-0.0117268 -2.75788e-05 0)
(-0.0116236 -2.97736e-05 0)
(-0.0115125 -3.20367e-05 0)
(-0.0113935 -3.43669e-05 0)
(-0.0112663 -3.6762e-05 0)
(-0.0111306 -3.92196e-05 0)
(-0.0109863 -4.17364e-05 0)
(-0.0108331 -4.43082e-05 0)
(-0.010671 -4.69306e-05 0)
(-0.0104998 -4.9598e-05 0)
(-0.0103193 -5.23041e-05 0)
(-0.0101295 -5.50415e-05 0)
(-0.00993024 -5.78019e-05 0)
(-0.00972149 -6.05761e-05 0)
(-0.00950326 -6.33543e-05 0)
(-0.00927556 -6.61254e-05 0)
(-0.00903846 -6.88769e-05 0)
(-0.00879207 -7.15957e-05 0)
(-0.00853655 -7.42679e-05 0)
(-0.0082721 -7.68782e-05 0)
(-0.00799897 -7.94104e-05 0)
(-0.0077175 -8.1847e-05 0)
(-0.00742805 -8.41696e-05 0)
(-0.00713107 -8.63588e-05 0)
(-0.00682706 -8.83943e-05 0)
(-0.0065166 -9.0255e-05 0)
(-0.00620034 -9.19188e-05 0)
(-0.00587901 -9.33631e-05 0)
(-0.00555341 -9.45642e-05 0)
(-0.00522441 -9.54982e-05 0)
(-0.00489298 -9.61404e-05 0)
(-0.00456015 -9.64653e-05 0)
(-0.00422706 -9.64473e-05 0)
(-0.00389491 -9.60607e-05 0)
(-0.00356499 -9.52797e-05 0)
(-0.00323866 -9.4078e-05 0)
(-0.00291738 -9.24295e-05 0)
(-0.00260268 -9.03087e-05 0)
(-0.00229616 -8.769e-05 0)
(-0.0019995 -8.45486e-05 0)
(-0.00171444 -8.08606e-05 0)
(-0.00144279 -7.66029e-05 0)
(-0.00118639 -7.17539e-05 0)
(-0.000947137 -6.62944e-05 0)
(-0.000726952 -6.02082e-05 0)
(-0.000527755 -5.34837e-05 0)
(-0.000351436 -4.61172e-05 0)
(-0.00019982 -3.81165e-05 0)
(-7.45938e-05 -2.95096e-05 0)
(2.27839e-05 -2.03608e-05 0)
(9.12401e-05 -1.0799e-05 0)
(0.000130345 -1.07378e-06 0)
(0.000140732 8.3366e-06 0)
(0.000124712 1.65288e-05 0)
(8.76453e-05 2.17713e-05 0)
(4.20164e-05 2.08458e-05 0)
(9.62934e-06 9.62813e-06 0)
(1.85431e-05 -3.70651e-05 0)
(7.03098e-05 -7.0246e-05 0)
(0.000131953 -6.76993e-05 0)
(0.000169999 -4.2034e-05 0)
(0.000163174 -3.10803e-06 0)
(0.000100054 4.27475e-05 0)
(-2.5626e-05 9.15665e-05 0)
(-0.0002166 0.000140869 0)
(-0.000473077 0.00018911 0)
(-0.000793556 0.00023533 0)
(-0.00117539 0.000278936 0)
(-0.0016152 0.000319574 0)
(-0.0021091 0.000357048 0)
(-0.00265295 0.000391267 0)
(-0.00324244 0.000422215 0)
(-0.00387321 0.000449928 0)
(-0.00454094 0.000474475 0)
(-0.00524135 0.000495955 0)
(-0.00597032 0.000514482 0)
(-0.00672383 0.000530187 0)
(-0.00749803 0.000543207 0)
(-0.00828928 0.000553685 0)
(-0.00909408 0.000561768 0)
(-0.00990916 0.000567604 0)
(-0.0107314 0.000571341 0)
(-0.011558 0.000573125 0)
(-0.0123862 0.000573102 0)
(-0.0132135 0.000571413 0)
(-0.0140377 0.000568196 0)
(-0.0148566 0.000563584 0)
(-0.0156683 0.000557706 0)
(-0.0164711 0.000550685 0)
(-0.0172633 0.00054264 0)
(-0.0180436 0.000533683 0)
(-0.0188107 0.000523922 0)
(-0.0195635 0.000513457 0)
(-0.0203011 0.000502385 0)
(-0.0210225 0.000490797 0)
(-0.0217271 0.000478775 0)
(-0.0224144 0.000466398 0)
(-0.0230837 0.00045374 0)
(-0.0237347 0.000440868 0)
(-0.0243672 0.000427844 0)
(-0.0249809 0.000414725 0)
(-0.0255758 0.000401563 0)
(-0.0261516 0.000388405 0)
(-0.0267086 0.000375293 0)
(-0.0272467 0.000362265 0)
(-0.0277661 0.000349355 0)
(-0.0282669 0.000336594 0)
(-0.0287493 0.000324005 0)
(-0.0292137 0.000311613 0)
(-0.0296603 0.000299436 0)
(-0.0300893 0.000287489 0)
(-0.0305012 0.000275785 0)
(-0.0308962 0.000264332 0)
(-0.0312747 0.000253138 0)
(-0.0316371 0.000242207 0)
(-0.0319837 0.000231541 0)
(-0.032315 0.000221139 0)
(-0.0326313 0.000210998 0)
(-0.0329329 0.000201114 0)
(-0.0332202 0.000191481 0)
(-0.0334935 0.000182089 0)
(-0.0337533 0.000172931 0)
(-0.0339998 0.000163994 0)
(-0.0342333 0.000155266 0)
(-0.034454 0.000146734 0)
(-0.0346624 0.000138382 0)
(-0.0348586 0.000130194 0)
(-0.0350428 0.000122154 0)
(-0.0352152 0.000114243 0)
(-0.035376 0.000106443 0)
(-0.0355254 9.87347e-05 0)
(-0.0356634 9.10968e-05 0)
(-0.0357901 8.35088e-05 0)
(-0.0359057 7.59495e-05 0)
(-0.03601 6.83969e-05 0)
(-0.0361032 6.08288e-05 0)
(-0.0361852 5.32224e-05 0)
(-0.0362558 4.55545e-05 0)
(-0.036315 3.78019e-05 0)
(-0.0363627 2.99407e-05 0)
(-0.0363986 2.19478e-05 0)
(-0.0364226 1.37997e-05 0)
(-0.0364345 5.47279e-06 0)
(-0.0364339 -3.05646e-06 0)
(-0.0364205 -1.18113e-05 0)
(-0.0363941 -2.08143e-05 0)
(-0.0363542 -3.00875e-05 0)
(-0.0363004 -3.96528e-05 0)
(-0.0362324 -4.95313e-05 0)
(-0.0361496 -5.97436e-05 0)
(-0.0360515 -7.03087e-05 0)
(-0.0359377 -8.12445e-05 0)
(-0.0358076 -9.25675e-05 0)
(-0.0356606 -0.000104293 0)
(-0.0354962 -0.000116436 0)
(-0.0353138 -0.000129007 0)
(-0.0351127 -0.000142016 0)
(-0.0348924 -0.000155472 0)
(-0.0346521 -0.000169379 0)
(-0.0343913 -0.000183738 0)
(-0.0341093 -0.000198551 0)
(-0.0338056 -0.000213811 0)
(-0.0334794 -0.000229512 0)
(-0.0331301 -0.000245643 0)
(-0.0327573 -0.000262188 0)
(-0.0323602 -0.000279128 0)
(-0.0319385 -0.000296439 0)
(-0.0314915 -0.000314091 0)
(-0.0310189 -0.000332051 0)
(-0.0305203 -0.000350279 0)
(-0.0299953 -0.00036873 0)
(-0.0294438 -0.000387353 0)
(-0.0288654 -0.00040609 0)
(-0.0282602 -0.000424878 0)
(-0.0276281 -0.000443647 0)
(-0.0269693 -0.00046232 0)
(-0.0262839 -0.000480816 0)
(-0.0255724 -0.000499043 0)
(-0.0248352 -0.000516905 0)
(-0.0240729 -0.0005343 0)
(-0.0232864 -0.000551116 0)
(-0.0224765 -0.000567238 0)
(-0.0216444 -0.000582542 0)
(-0.0207914 -0.0005969 0)
(-0.0199189 -0.000610176 0)
(-0.0190286 -0.000622231 0)
(-0.0181224 -0.000632921 0)
(-0.0172024 -0.000642095 0)
(-0.0162709 -0.000649599 0)
(-0.0153303 -0.000655278 0)
(-0.0143834 -0.000658972 0)
(-0.0134331 -0.00066052 0)
(-0.0124827 -0.00065976 0)
(-0.0115355 -0.00065653 0)
(-0.0105952 -0.000650671 0)
(-0.00966546 -0.000642023 0)
(-0.00875047 -0.000630434 0)
(-0.00785441 -0.000615753 0)
(-0.00698173 -0.00059784 0)
(-0.006137 -0.000576561 0)
(-0.005325 -0.000551799 0)
(-0.00455057 -0.00052345 0)
(-0.00381869 -0.000491434 0)
(-0.00313436 -0.000455698 0)
(-0.00250259 -0.000416232 0)
(-0.00192826 -0.000373077 0)
(-0.0014161 -0.000326355 0)
(-0.000970469 -0.000276298 0)
(-0.000595182 -0.000223304 0)
(-0.000293222 -0.00016803 0)
(-6.63037e-05 -0.000111528 0)
(8.57466e-05 -5.54917e-05 0)
(0.000165896 -2.65203e-06 0)
(0.000181026 4.2591e-05 0)
(0.000143793 7.3153e-05 0)
(7.78994e-05 7.78683e-05 0)
(2.08447e-05 4.20025e-05 0)
(1.97909e-05 -7.85737e-05 0)
(6.80497e-05 -0.00013198 0)
(0.000111083 -0.000110546 0)
(0.000110215 -3.93451e-05 0)
(4.01992e-05 6.30509e-05 0)
(-0.000113816 0.000183426 0)
(-0.00036072 0.00031264 0)
(-0.000704911 0.000444489 0)
(-0.00114733 0.000574795 0)
(-0.00168643 0.000700767 0)
(-0.00231885 0.000820556 0)
(-0.00304003 0.000932969 0)
(-0.00384453 0.00103726 0)
(-0.00472637 0.00113303 0)
(-0.00567924 0.00122007 0)
(-0.00669666 0.00129838 0)
(-0.00777211 0.00136805 0)
(-0.00889912 0.0014293 0)
(-0.0100713 0.00148236 0)
(-0.0112826 0.00152756 0)
(-0.0125269 0.00156524 0)
(-0.0137986 0.00159577 0)
(-0.0150922 0.00161953 0)
(-0.0164026 0.00163692 0)
(-0.0177249 0.00164834 0)
(-0.0190545 0.00165419 0)
(-0.0203872 0.00165486 0)
(-0.021719 0.00165075 0)
(-0.0230463 0.00164223 0)
(-0.0243655 0.00162969 0)
(-0.0256738 0.00161347 0)
(-0.0269681 0.00159394 0)
(-0.0282461 0.00157142 0)
(-0.0295054 0.00154624 0)
(-0.030744 0.0015187 0)
(-0.0319599 0.00148908 0)
(-0.0331518 0.00145767 0)
(-0.0343181 0.00142471 0)
(-0.0354578 0.00139046 0)
(-0.0365698 0.00135514 0)
(-0.0376532 0.00131895 0)
(-0.0387076 0.00128209 0)
(-0.0397322 0.00124475 0)
(-0.0407269 0.00120709 0)
(-0.0416913 0.00116926 0)
(-0.0426254 0.00113139 0)
(-0.0435291 0.00109362 0)
(-0.0444025 0.00105604 0)
(-0.0452458 0.00101877 0)
(-0.0460592 0.000981889 0)
(-0.0468431 0.000945471 0)
(-0.0475978 0.000909585 0)
(-0.0483237 0.000874286 0)
(-0.0490213 0.000839621 0)
(-0.0496912 0.000805627 0)
(-0.0503337 0.000772334 0)
(-0.0509496 0.000739762 0)
(-0.0515393 0.000707924 0)
(-0.0521035 0.000676828 0)
(-0.0526427 0.000646474 0)
(-0.0531574 0.000616855 0)
(-0.0536483 0.000587959 0)
(-0.0541159 0.00055977 0)
(-0.0545608 0.000532264 0)
(-0.0549835 0.000505416 0)
(-0.0553845 0.000479194 0)
(-0.0557642 0.000453564 0)
(-0.0561232 0.000428486 0)
(-0.0564619 0.000403918 0)
(-0.0567805 0.000379816 0)
(-0.0570795 0.00035613 0)
(-0.0573593 0.00033281 0)
(-0.0576199 0.000309802 0)
(-0.0578618 0.00028705 0)
(-0.058085 0.000264497 0)
(-0.0582897 0.000242084 0)
(-0.0584759 0.000219749 0)
(-0.0586438 0.00019743 0)
(-0.0587932 0.000175063 0)
(-0.0589242 0.000152583 0)
(-0.0590365 0.000129924 0)
(-0.0591301 0.000107019 0)
(-0.0592047 8.38023e-05 0)
(-0.05926 6.02058e-05 0)
(-0.0592958 3.6163e-05 0)
(-0.0593115 1.16071e-05 0)
(-0.0593068 -1.35282e-05 0)
(-0.0592812 -3.93085e-05 0)
(-0.0592342 -6.57984e-05 0)
(-0.0591651 -9.30612e-05 0)
(-0.0590734 -0.000121158 0)
(-0.0589583 -0.000150148 0)
(-0.0588191 -0.000180088 0)
(-0.0586551 -0.000211032 0)
(-0.0584653 -0.000243029 0)
(-0.0582491 -0.000276127 0)
(-0.0580054 -0.000310367 0)
(-0.0577334 -0.000345788 0)
(-0.0574321 -0.000382422 0)
(-0.0571006 -0.000420294 0)
(-0.0567378 -0.000459424 0)
(-0.0563429 -0.000499825 0)
(-0.0559147 -0.000541499 0)
(-0.0554524 -0.000584444 0)
(-0.0549548 -0.000628643 0)
(-0.0544211 -0.000674075 0)
(-0.0538504 -0.000720702 0)
(-0.0532416 -0.00076848 0)
(-0.0525939 -0.000817349 0)
(-0.0519066 -0.000867237 0)
(-0.0511789 -0.000918059 0)
(-0.0504101 -0.000969713 0)
(-0.0495996 -0.00102209 0)
(-0.048747 -0.00107504 0)
(-0.0478519 -0.00112844 0)
(-0.046914 -0.0011821 0)
(-0.0459333 -0.00123585 0)
(-0.0449098 -0.00128949 0)
(-0.0438438 -0.00134279 0)
(-0.0427356 -0.00139553 0)
(-0.0415858 -0.00144743 0)
(-0.0403954 -0.00149822 0)
(-0.0391652 -0.00154761 0)
(-0.0378967 -0.00159528 0)
(-0.0365914 -0.00164091 0)
(-0.035251 -0.00168414 0)
(-0.0338777 -0.0017246 0)
(-0.0324738 -0.00176192 0)
(-0.0310421 -0.00179571 0)
(-0.0295856 -0.00182554 0)
(-0.0281076 -0.00185101 0)
(-0.0266117 -0.00187167 0)
(-0.025102 -0.0018871 0)
(-0.0235828 -0.00189685 0)
(-0.0220589 -0.00190048 0)
(-0.0205351 -0.00189752 0)
(-0.019017 -0.00188756 0)
(-0.0175101 -0.00187014 0)
(-0.0160206 -0.00184484 0)
(-0.0145547 -0.00181125 0)
(-0.013119 -0.00176898 0)
(-0.0117206 -0.00171767 0)
(-0.0103664 -0.001657 0)
(-0.00906379 -0.00158667 0)
(-0.00782024 -0.00150648 0)
(-0.0066433 -0.00141627 0)
(-0.0055405 -0.00131601 0)
(-0.00451929 -0.00120578 0)
(-0.00358689 -0.00108586 0)
(-0.00275009 -0.000956759 0)
(-0.00201503 -0.000819346 0)
(-0.00138687 -0.000674971 0)
(-0.000869399 -0.000525692 0)
(-0.000464392 -0.000374595 0)
(-0.000170858 -0.000226288 0)
(1.60316e-05 -8.7641e-05 0)
(0.00010611 3.11743e-05 0)
(0.000115887 0.000115344 0)
(7.34487e-05 0.000143832 0)
(2.18237e-05 8.76729e-05 0)
(1.55656e-05 -0.000113575 0)
(4.28659e-05 -0.000170494 0)
(4.07811e-05 -0.000109884 0)
(-2.82769e-05 2.98897e-05 0)
(-0.000189994 0.000221301 0)
(-0.000460552 0.000443923 0)
(-0.000850015 0.000682893 0)
(-0.00136361 0.000927626 0)
(-0.00200272 0.00117066 0)
(-0.00276573 0.00140676 0)
(-0.00364888 0.00163234 0)
(-0.00464676 0.00184494 0)
(-0.00575281 0.00204298 0)
(-0.00695968 0.00222548 0)
(-0.0082595 0.00239193 0)
(-0.00964411 0.00254215 0)
(-0.0111052 0.00267622 0)
(-0.0126345 0.00279441 0)
(-0.0142237 0.00289714 0)
(-0.015865 0.00298492 0)
(-0.0175504 0.00305835 0)
(-0.0192725 0.0031181 0)
(-0.0210242 0.00316485 0)
(-0.0227985 0.00319934 0)
(-0.0245892 0.0032223 0)
(-0.02639 0.00323448 0)
(-0.0281954 0.00323662 0)
(-0.0299999 0.00322947 0)
(-0.0317987 0.00321374 0)
(-0.0335873 0.00319016 0)
(-0.0353614 0.0031594 0)
(-0.0371173 0.00312213 0)
(-0.0388516 0.003079 0)
(-0.040561 0.00303062 0)
(-0.0422428 0.00297759 0)
(-0.0438946 0.00292045 0)
(-0.0455141 0.00285975 0)
(-0.0470996 0.00279598 0)
(-0.0486492 0.00272961 0)
(-0.0501618 0.00266108 0)
(-0.0516361 0.0025908 0)
(-0.0530712 0.00251916 0)
(-0.0544664 0.0024465 0)
(-0.0558211 0.00237315 0)
(-0.0571351 0.00229941 0)
(-0.0584082 0.00222554 0)
(-0.0596401 0.00215179 0)
(-0.0608312 0.00207838 0)
(-0.0619815 0.00200551 0)
(-0.0630913 0.00193334 0)
(-0.064161 0.00186204 0)
(-0.0651912 0.00179173 0)
(-0.0661824 0.00172252 0)
(-0.0671351 0.00165451 0)
(-0.06805 0.00158777 0)
(-0.0689278 0.00152237 0)
(-0.0697692 0.00145833 0)
(-0.070575 0.0013957 0)
(-0.071346 0.00133449 0)
(-0.0720828 0.0012747 0)
(-0.0727863 0.00121632 0)
(-0.0734571 0.00115933 0)
(-0.0740961 0.00110369 0)
(-0.074704 0.00104938 0)
(-0.0752815 0.00099632 0)
(-0.0758292 0.000944471 0)
(-0.0763478 0.000893759 0)
(-0.0768378 0.000844112 0)
(-0.0772999 0.000795447 0)
(-0.0777345 0.000747678 0)
(-0.0781421 0.000700711 0)
(-0.0785232 0.000654447 0)
(-0.078878 0.000608784 0)
(-0.0792068 0.000563613 0)
(-0.07951 0.000518822 0)
(-0.0797876 0.000474298 0)
(-0.0800398 0.00042992 0)
(-0.0802666 0.000385569 0)
(-0.0804681 0.000341119 0)
(-0.080644 0.000296446 0)
(-0.0807942 0.000251422 0)
(-0.0809186 0.000205918 0)
(-0.0810168 0.000159805 0)
(-0.0810885 0.000112953 0)
(-0.0811331 6.52322e-05 0)
(-0.0811502 1.65139e-05 0)
(-0.0811392 -3.33299e-05 0)
(-0.0810994 -8.44255e-05 0)
(-0.0810302 -0.000136897 0)
(-0.0809307 -0.000190866 0)
(-0.0808001 -0.000246451 0)
(-0.0806375 -0.000303764 0)
(-0.0804418 -0.000362915 0)
(-0.0802121 -0.000424006 0)
(-0.0799473 -0.000487132 0)
(-0.0796462 -0.000552382 0)
(-0.0793077 -0.000619836 0)
(-0.0789305 -0.000689564 0)
(-0.0785134 -0.000761627 0)
(-0.0780551 -0.000836071 0)
(-0.0775544 -0.000912933 0)
(-0.0770098 -0.000992231 0)
(-0.0764202 -0.00107397 0)
(-0.0757842 -0.00115814 0)
(-0.0751004 -0.00124471 0)
(-0.0743676 -0.00133363 0)
(-0.0735847 -0.00142482 0)
(-0.0727503 -0.0015182 0)
(-0.0718634 -0.00161365 0)
(-0.070923 -0.00171101 0)
(-0.069928 -0.00181013 0)
(-0.0688777 -0.0019108 0)
(-0.0677712 -0.0020128 0)
(-0.066608 -0.00211586 0)
(-0.0653876 -0.0022197 0)
(-0.0641098 -0.00232398 0)
(-0.0627745 -0.00242836 0)
(-0.0613819 -0.00253244 0)
(-0.0599321 -0.00263579 0)
(-0.058426 -0.00273794 0)
(-0.0568643 -0.00283839 0)
(-0.0552481 -0.00293661 0)
(-0.053579 -0.00303203 0)
(-0.0518587 -0.00312404 0)
(-0.0500893 -0.003212 0)
(-0.0482733 -0.00329523 0)
(-0.0464136 -0.00337303 0)
(-0.0445134 -0.00344467 0)
(-0.0425762 -0.00350938 0)
(-0.0406063 -0.00356638 0)
(-0.0386081 -0.00361487 0)
(-0.0365864 -0.00365403 0)
(-0.0345467 -0.00368302 0)
(-0.0324948 -0.00370099 0)
(-0.0304369 -0.00370711 0)
(-0.0283796 -0.00370052 0)
(-0.0263303 -0.00368041 0)
(-0.0242963 -0.00364595 0)
(-0.0222857 -0.00359636 0)
(-0.0203067 -0.00353088 0)
(-0.0183682 -0.00344881 0)
(-0.0164791 -0.00334952 0)
(-0.0146487 -0.00323242 0)
(-0.0128865 -0.00309708 0)
(-0.0112021 -0.00294315 0)
(-0.00960529 -0.00277047 0)
(-0.0081056 -0.00257908 0)
(-0.00671246 -0.00236933 0)
(-0.00543486 -0.00214189 0)
(-0.00428119 -0.00189795 0)
(-0.00325885 -0.00163938 0)
(-0.00237397 -0.00136893 0)
(-0.00163081 -0.00109064 0)
(-0.00103118 -0.000810307 0)
(-0.000573606 -0.000536191 0)
(-0.0002523 -0.000280038 0)
(-5.60947e-05 -5.84003e-05 0)
(3.30145e-05 0.00010584 0)
(4.34776e-05 0.000181598 0)
(1.67131e-05 0.000125009 0)
(8.68434e-06 -0.000130922 0)
(4.45048e-06 -0.000164586 0)
(-6.08143e-05 -4.04659e-05 0)
(-0.000218803 0.000191436 0)
(-0.000493002 0.00049529 0)
(-0.000899386 0.000843859 0)
(-0.00144801 0.0012167 0)
(-0.00214413 0.00159874 0)
(-0.00298907 0.001979 0)
(-0.00398103 0.00234952 0)
(-0.0051158 0.00270463 0)
(-0.0063873 0.00304037 0)
(-0.00778809 0.00335405 0)
(-0.00930974 0.00364394 0)
(-0.0109431 0.00390904 0)
(-0.0126787 0.00414889 0)
(-0.0145068 0.00436349 0)
(-0.0164175 0.00455312 0)
(-0.0184011 0.00471832 0)
(-0.0204481 0.00485984 0)
(-0.022549 0.00497855 0)
(-0.0246948 0.00507542 0)
(-0.0268769 0.00515152 0)
(-0.029087 0.00520796 0)
(-0.0313173 0.00524587 0)
(-0.0335603 0.00526643 0)
(-0.0358091 0.0052708 0)
(-0.0380572 0.00526015 0)
(-0.0402984 0.00523561 0)
(-0.0425273 0.00519832 0)
(-0.0447386 0.00514938 0)
(-0.0469277 0.00508985 0)
(-0.0490903 0.00502076 0)
(-0.0512225 0.0049431 0)
(-0.0533208 0.00485781 0)
(-0.0553821 0.0047658 0)
(-0.0574037 0.00466791 0)
(-0.0593833 0.00456496 0)
(-0.0613188 0.0044577 0)
(-0.0632084 0.00434686 0)
(-0.0650507 0.00423309 0)
(-0.0668445 0.00411702 0)
(-0.0685889 0.00399921 0)
(-0.0702832 0.0038802 0)
(-0.071927 0.00376047 0)
(-0.0735198 0.00364046 0)
(-0.0750617 0.00352056 0)
(-0.0765526 0.00340115 0)
(-0.0779929 0.00328253 0)
(-0.0793828 0.003165 0)
(-0.0807229 0.00304881 0)
(-0.0820135 0.00293417 0)
(-0.0832555 0.00282126 0)
(-0.0844495 0.00271024 0)
(-0.0855963 0.00260124 0)
(-0.0866967 0.00249435 0)
(-0.0877516 0.00238965 0)
(-0.0887619 0.00228719 0)
(-0.0897286 0.00218699 0)
(-0.0906525 0.00208906 0)
(-0.0915346 0.00199339 0)
(-0.0923757 0.00189995 0)
(-0.0931769 0.00180868 0)
(-0.093939 0.00171951 0)
(-0.0946628 0.00163238 0)
(-0.0953491 0.00154718 0)
(-0.0959988 0.00146381 0)
(-0.0966126 0.00138215 0)
(-0.0971911 0.00130207 0)
(-0.097735 0.00122342 0)
(-0.0982448 0.00114607 0)
(-0.098721 0.00106984 0)
(-0.0991641 0.000994572 0)
(-0.0995744 0.000920095 0)
(-0.0999523 0.000846227 0)
(-0.100298 0.000772781 0)
(-0.100611 0.000699567 0)
(-0.100893 0.00062639 0)
(-0.101142 0.000553048 0)
(-0.101359 0.00047934 0)
(-0.101543 0.00040506 0)
(-0.101695 0.000329999 0)
(-0.101814 0.000253951 0)
(-0.101899 0.000176706 0)
(-0.10195 9.80546e-05 0)
(-0.101966 1.77896e-05 0)
(-0.101947 -6.42949e-05 0)
(-0.101891 -0.000148402 0)
(-0.101799 -0.000234731 0)
(-0.101668 -0.000323476 0)
(-0.101498 -0.000414827 0)
(-0.101288 -0.000508964 0)
(-0.101036 -0.000606061 0)
(-0.100742 -0.000706282 0)
(-0.100403 -0.000809778 0)
(-0.100019 -0.00091669 0)
(-0.0995886 -0.00102714 0)
(-0.0991094 -0.00114125 0)
(-0.0985802 -0.0012591 0)
(-0.0979996 -0.00138077 0)
(-0.0973659 -0.00150631 0)
(-0.0966775 -0.00163575 0)
(-0.0959329 -0.0017691 0)
(-0.0951305 -0.00190632 0)
(-0.0942687 -0.00204737 0)
(-0.0933459 -0.00219216 0)
(-0.0923607 -0.00234057 0)
(-0.0913117 -0.00249244 0)
(-0.0901974 -0.00264758 0)
(-0.0890167 -0.00280575 0)
(-0.0877684 -0.00296667 0)
(-0.0864515 -0.00313001 0)
(-0.0850651 -0.00329541 0)
(-0.0836086 -0.00346244 0)
(-0.0820814 -0.00363062 0)
(-0.0804832 -0.00379943 0)
(-0.0788141 -0.00396828 0)
(-0.0770741 -0.00413654 0)
(-0.0752639 -0.00430351 0)
(-0.0733841 -0.00446844 0)
(-0.0714359 -0.00463053 0)
(-0.0694208 -0.00478889 0)
(-0.0673406 -0.00494263 0)
(-0.0651975 -0.00509074 0)
(-0.0629942 -0.00523222 0)
(-0.0607338 -0.00536596 0)
(-0.0584197 -0.00549084 0)
(-0.0560561 -0.00560569 0)
(-0.0536475 -0.00570929 0)
(-0.0511988 -0.00580038 0)
(-0.0487155 -0.00587768 0)
(-0.0462038 -0.00593988 0)
(-0.0436702 -0.00598565 0)
(-0.0411219 -0.00601367 0)
(-0.0385665 -0.00602259 0)
(-0.0360121 -0.00601108 0)
(-0.0334675 -0.00597785 0)
(-0.0309419 -0.00592163 0)
(-0.0284449 -0.0058412 0)
(-0.0259867 -0.0057354 0)
(-0.0235777 -0.00560317 0)
(-0.0212287 -0.00544356 0)
(-0.0189511 -0.00525576 0)
(-0.016756 -0.00503914 0)
(-0.014655 -0.00479328 0)
(-0.0126595 -0.00451808 0)
(-0.0107809 -0.00421375 0)
(-0.00903008 -0.00388102 0)
(-0.00741753 -0.00352118 0)
(-0.00595285 -0.00313633 0)
(-0.00464447 -0.00272958 0)
(-0.00349926 -0.00230547 0)
(-0.00252198 -0.00187032 0)
(-0.00171465 -0.00143301 0)
(-0.00107581 -0.00100572 0)
(-0.000599631 -0.000605174 0)
(-0.000274946 -0.000254138 0)
(-8.39901e-05 1.69444e-05 0)
(-9.12941e-07 0.000167785 0)
(8.72168e-06 0.000141703 0)
(6.61552e-07 -0.000125704 0)
(-4.10765e-05 -0.00010264 0)
(-0.000181039 0.00011297 0)
(-0.000441955 0.000462125 0)
(-0.000843215 0.000901887 0)
(-0.00139938 0.00139895 0)
(-0.00211955 0.00192769 0)
(-0.00300825 0.00246877 0)
(-0.00406626 0.00300767 0)
(-0.00529131 0.00353363 0)
(-0.00667861 0.00403875 0)
(-0.00822144 0.00451739 0)
(-0.00991155 0.00496557 0)
(-0.0117396 0.00538068 0)
(-0.0136955 0.00576109 0)
(-0.0157684 0.00610598 0)
(-0.0179476 0.00641515 0)
(-0.0202217 0.00668888 0)
(-0.0225799 0.00692781 0)
(-0.0250112 0.00713287 0)
(-0.0275049 0.00730522 0)
(-0.0300506 0.00744619 0)
(-0.0326385 0.00755723 0)
(-0.0352588 0.00763986 0)
(-0.0379026 0.00769571 0)
(-0.0405612 0.00772639 0)
(-0.0432265 0.00773356 0)
(-0.045891 0.00771888 0)
(-0.0485476 0.00768397 0)
(-0.0511897 0.00763046 0)
(-0.0538114 0.00755991 0)
(-0.056407 0.00747387 0)
(-0.0589715 0.00737381 0)
(-0.0615004 0.00726116 0)
(-0.0639896 0.00713729 0)
(-0.0664353 0.00700351 0)
(-0.0688345 0.00686105 0)
(-0.0711842 0.0067111 0)
(-0.073482 0.00655476 0)
(-0.0757258 0.00639306 0)
(-0.0779139 0.00622699 0)
(-0.0800448 0.00605744 0)
(-0.0821175 0.00588526 0)
(-0.084131 0.00571121 0)
(-0.0860848 0.00553601 0)
(-0.0879786 0.0053603 0)
(-0.089812 0.00518468 0)
(-0.0915852 0.00500966 0)
(-0.0932985 0.00483573 0)
(-0.0949521 0.00466331 0)
(-0.0965466 0.00449276 0)
(-0.0980826 0.0043244 0)
(-0.0995608 0.00415851 0)
(-0.100982 0.00399532 0)
(-0.102347 0.00383501 0)
(-0.103658 0.00367774 0)
(-0.104914 0.00352361 0)
(-0.106117 0.00337271 0)
(-0.107268 0.00322506 0)
(-0.108368 0.0030807 0)
(-0.109418 0.00293959 0)
(-0.11042 0.0028017 0)
(-0.111374 0.00266695 0)
(-0.112281 0.00253525 0)
(-0.113142 0.00240649 0)
(-0.113959 0.00228054 0)
(-0.114732 0.00215722 0)
(-0.115462 0.00203639 0)
(-0.116149 0.00191784 0)
(-0.116796 0.00180137 0)
(-0.117401 0.00168677 0)
(-0.117966 0.0015738 0)
(-0.118492 0.00146222 0)
(-0.118978 0.00135179 0)
(-0.119425 0.00124223 0)
(-0.119834 0.00113328 0)
(-0.120204 0.00102467 0)
(-0.120535 0.000916095 0)
(-0.120828 0.000807278 0)
(-0.121082 0.000697922 0)
(-0.121297 0.000587728 0)
(-0.121473 0.000476394 0)
(-0.12161 0.000363617 0)
(-0.121706 0.000249094 0)
(-0.121761 0.000132522 0)
(-0.121774 1.36002e-05 0)
(-0.121745 -0.00010797 0)
(-0.121673 -0.000232484 0)
(-0.121556 -0.000360229 0)
(-0.121394 -0.000491487 0)
(-0.121185 -0.00062653 0)
(-0.120928 -0.000765619 0)
(-0.120621 -0.000909005 0)
(-0.120263 -0.00105692 0)
(-0.119853 -0.00120959 0)
(-0.119389 -0.00136721 0)
(-0.118869 -0.00152996 0)
(-0.118291 -0.00169799 0)
(-0.117654 -0.00187144 0)
(-0.116956 -0.00205042 0)
(-0.116195 -0.00223498 0)
(-0.115369 -0.00242517 0)
(-0.114477 -0.00262099 0)
(-0.113516 -0.0028224 0)
(-0.112485 -0.00302931 0)
(-0.111381 -0.0032416 0)
(-0.110205 -0.00345908 0)
(-0.108952 -0.00368151 0)
(-0.107623 -0.00390862 0)
(-0.106215 -0.00414004 0)
(-0.104728 -0.00437536 0)
(-0.103159 -0.00461412 0)
(-0.101509 -0.00485575 0)
(-0.0997769 -0.00509963 0)
(-0.0979613 -0.00534508 0)
(-0.0960623 -0.00559132 0)
(-0.0940798 -0.00583749 0)
(-0.0920143 -0.00608268 0)
(-0.0898663 -0.00632586 0)
(-0.0876367 -0.00656594 0)
(-0.0853269 -0.00680174 0)
(-0.0829387 -0.00703201 0)
(-0.0804743 -0.0072554 0)
(-0.0779364 -0.0074705 0)
(-0.0753279 -0.00767582 0)
(-0.0726527 -0.00786978 0)
(-0.0699149 -0.00805074 0)
(-0.0671191 -0.00821702 0)
(-0.0642708 -0.00836685 0)
(-0.0613757 -0.00849844 0)
(-0.0584404 -0.00860992 0)
(-0.0554719 -0.00869942 0)
(-0.0524778 -0.00876504 0)
(-0.0494666 -0.00880488 0)
(-0.0464471 -0.00881702 0)
(-0.0434287 -0.0087996 0)
(-0.0404216 -0.00875075 0)
(-0.0374364 -0.00866871 0)
(-0.0344842 -0.00855176 0)
(-0.0315767 -0.00839831 0)
(-0.028726 -0.0082069 0)
(-0.0259445 -0.00797627 0)
(-0.0232449 -0.00770533 0)
(-0.0206402 -0.00739333 0)
(-0.0181434 -0.00703981 0)
(-0.0157674 -0.00664476 0)
(-0.013525 -0.00620871 0)
(-0.0114285 -0.00573286 0)
(-0.00948953 -0.00521929 0)
(-0.0077187 -0.00467118 0)
(-0.00612538 -0.00409311 0)
(-0.00471717 -0.00349155 0)
(-0.00349944 -0.00287536 0)
(-0.00247474 -0.00225654 0)
(-0.00164219 -0.00165122 0)
(-0.000996745 -0.00108089 0)
(-0.000528302 -0.00057402 0)
(-0.000220694 -0.000167737 0)
(-5.27796e-05 8.99037e-05 0)
(-4.4488e-07 0.000132515 0)
(-7.72405e-06 -9.56366e-05 0)
(-8.99723e-05 2.2077e-05 0)
(-0.000311331 0.000360143 0)
(-0.000683943 0.000853222 0)
(-0.00122186 0.00145272 0)
(-0.00193734 0.0021202 0)
(-0.00283772 0.00282553 0)
(-0.00392617 0.0035454 0)
(-0.0052025 0.00426199 0)
(-0.00666358 0.00496178 0)
(-0.00830391 0.00563465 0)
(-0.010116 0.00627318 0)
(-0.0120908 0.00687205 0)
(-0.0142181 0.00742764 0)
(-0.0164869 0.00793763 0)
(-0.0188855 0.00840074 0)
(-0.0214019 0.00881653 0)
(-0.0240239 0.00918521 0)
(-0.0267393 0.00950748 0)
(-0.029536 0.00978447 0)
(-0.0324023 0.0100176 0)
(-0.0353265 0.0102086 0)
(-0.0382977 0.0103593 0)
(-0.041305 0.0104717 0)
(-0.0443385 0.0105479 0)
(-0.0473883 0.01059 0)
(-0.0504454 0.0106002 0)
(-0.0535013 0.0105808 0)
(-0.056548 0.0105339 0)
(-0.059578 0.0104617 0)
(-0.0625846 0.0103662 0)
(-0.0655616 0.0102496 0)
(-0.0685031 0.0101138 0)
(-0.0714039 0.00996077 0)
(-0.0742595 0.00979236 0)
(-0.0770657 0.00961034 0)
(-0.0798186 0.00941639 0)
(-0.0825152 0.00921209 0)
(-0.0851526 0.00899897 0)
(-0.0877284 0.00877843 0)
(-0.0902406 0.00855179 0)
(-0.0926875 0.0083203 0)
(-0.0950679 0.00808509 0)
(-0.0973807 0.00784723 0)
(-0.0996252 0.00760768 0)
(-0.101801 0.00736732 0)
(-0.103908 0.00712698 0)
(-0.105946 0.00688736 0)
(-0.107915 0.00664913 0)
(-0.109816 0.00641286 0)
(-0.111649 0.00617905 0)
(-0.113415 0.00594816 0)
(-0.115115 0.00572056 0)
(-0.116749 0.00549657 0)
(-0.118319 0.00527644 0)
(-0.119826 0.00506039 0)
(-0.121271 0.00484857 0)
(-0.122655 0.00464108 0)
(-0.123979 0.004438 0)
(-0.125244 0.00423934 0)
(-0.126452 0.00404509 0)
(-0.127604 0.00385518 0)
(-0.1287 0.00366952 0)
(-0.129743 0.00348799 0)
(-0.130734 0.00331043 0)
(-0.131672 0.00313667 0)
(-0.13256 0.00296649 0)
(-0.133398 0.00279967 0)
(-0.134188 0.00263593 0)
(-0.13493 0.00247502 0)
(-0.135624 0.00231664 0)
(-0.136272 0.00216047 0)
(-0.136874 0.00200618 0)
(-0.13743 0.00185344 0)
(-0.137942 0.00170188 0)
(-0.138408 0.00155115 0)
(-0.13883 0.00140085 0)
(-0.139207 0.00125061 0)
(-0.13954 0.00110004 0)
(-0.139827 0.000948717 0)
(-0.14007 0.000796255 0)
(-0.140267 0.000642238 0)
(-0.140418 0.000486256 0)
(-0.140523 0.000327897 0)
(-0.14058 0.000166751 0)
(-0.140589 2.40844e-06 0)
(-0.14055 -0.000165534 0)
(-0.14046 -0.000337475 0)
(-0.140318 -0.000513804 0)
(-0.140124 -0.000694902 0)
(-0.139877 -0.000881137 0)
(-0.139573 -0.00107286 0)
(-0.139213 -0.00127041 0)
(-0.138794 -0.0014741 0)
(-0.138314 -0.00168423 0)
(-0.137773 -0.00190105 0)
(-0.137167 -0.00212483 0)
(-0.136495 -0.00235575 0)
(-0.135755 -0.002594 0)
(-0.134945 -0.00283971 0)
(-0.134063 -0.00309297 0)
(-0.133107 -0.00335382 0)
(-0.132074 -0.00362226 0)
(-0.130963 -0.00389822 0)
(-0.129772 -0.00418159 0)
(-0.128499 -0.00447218 0)
(-0.127141 -0.00476974 0)
(-0.125697 -0.00507395 0)
(-0.124165 -0.0053844 0)
(-0.122544 -0.00570061 0)
(-0.120832 -0.00602201 0)
(-0.119028 -0.00634795 0)
(-0.117131 -0.00667768 0)
(-0.115139 -0.00701034 0)
(-0.113054 -0.00734499 0)
(-0.110873 -0.00768057 0)
(-0.108598 -0.00801593 0)
(-0.106228 -0.00834979 0)
(-0.103765 -0.00868078 0)
(-0.101208 -0.00900741 0)
(-0.0985613 -0.00932808 0)
(-0.0958252 -0.00964109 0)
(-0.0930026 -0.00994462 0)
(-0.0900965 -0.0102367 0)
(-0.0871106 -0.0105154 0)
(-0.0840489 -0.0107786 0)
(-0.0809162 -0.011024 0)
(-0.0777179 -0.0112493 0)
(-0.0744599 -0.0114523 0)
(-0.0711489 -0.0116303 0)
(-0.0677923 -0.0117811 0)