/*--------------------------------*- C++ -*----------------------------------*\
  =========                 |
  \\      /  F ield         | OpenFOAM: The Open Source CFD Toolbox
   \\    /   O peration     | Website:  https://openfoam.org
    \\  /    A nd           | Version:  7
     \\/     M anipulation  |
\*---------------------------------------------------------------------------*/
FoamFile
{
    version     2.0;
    format      ascii;
    class       surfaceScalarField;
    location    "0.4625";
    object      phi;
}
// * * * * * * * * * * * * * * * * * * * * * * * * * * * * * * * * * * * * * //

dimensions      [0 3 -1 0 0 0 0];

internalField   nonuniform List<scalar> 
25360
(
5.11184e-11
-5.20499e-11
1.92189e-10
-1.41064e-10
3.59068e-10
-1.66919e-10
5.04621e-10
-1.45523e-10
6.00687e-10
-9.60547e-11
6.31315e-10
-3.06312e-11
5.88272e-10
4.30363e-11
4.68338e-10
1.19936e-10
2.71517e-10
1.96823e-10
-9.26017e-14
2.71608e-10
-3.42952e-10
3.42861e-10
-7.52886e-10
4.09936e-10
-1.22513e-09
4.72248e-10
-1.75469e-09
5.2956e-10
-2.3365e-09
5.81815e-10
-2.96559e-09
6.29077e-10
-3.6371e-09
6.71505e-10
-4.34643e-09
7.09325e-10
-5.08924e-09
7.42808e-10
-5.86148e-09
7.72248e-10
-6.65943e-09
7.97953e-10
-7.47968e-09
8.20249e-10
-8.31914e-09
8.39462e-10
-9.17505e-09
8.55911e-10
-1.0045e-08
8.69905e-10
-1.09267e-08
8.81741e-10
-1.18184e-08
8.91703e-10
-1.27185e-08
9.00057e-10
-1.36255e-08
9.07053e-10
-1.45384e-08
9.12919e-10
-1.54563e-08
9.17868e-10
-1.63784e-08
9.22092e-10
-1.73042e-08
9.25767e-10
-1.82332e-08
9.29052e-10
-1.91653e-08
9.32091e-10
-2.01003e-08
9.35011e-10
-2.10382e-08
9.37926e-10
-2.19792e-08
9.40934e-10
-2.29233e-08
9.44121e-10
-2.38709e-08
9.47565e-10
-2.48222e-08
9.5133e-10
-2.57777e-08
9.55473e-10
-2.67377e-08
9.60041e-10
-2.77028e-08
9.65076e-10
-2.86734e-08
9.70609e-10
-2.965e-08
9.76667e-10
-3.06333e-08
9.83272e-10
-3.16238e-08
9.9044e-10
-3.26219e-08
9.98182e-10
-3.36284e-08
1.0065e-09
-3.46438e-08
1.01541e-09
-3.56687e-08
1.0249e-09
-3.67037e-08
1.03496e-09
-3.77493e-08
1.0456e-09
-3.88061e-08
1.05679e-09
-3.98746e-08
1.06853e-09
-4.09554e-08
1.08078e-09
-4.20489e-08
1.09354e-09
-4.31557e-08
1.10677e-09
-4.42762e-08
1.12045e-09
-4.54107e-08
1.13453e-09
-4.65597e-08
1.14898e-09
-4.77234e-08
1.16376e-09
-4.89022e-08
1.17881e-09
-5.00963e-08
1.19409e-09
-5.13058e-08
1.20952e-09
-5.25309e-08
1.22505e-09
-5.37715e-08
1.24061e-09
-5.50276e-08
1.25612e-09
-5.62991e-08
1.27148e-09
-5.75857e-08
1.28661e-09
-5.88871e-08
1.30141e-09
-6.02029e-08
1.31578e-09
-6.15325e-08
1.32959e-09
-6.28752e-08
1.34272e-09
-6.42302e-08
1.35504e-09
-6.55967e-08
1.36641e-09
-6.69733e-08
1.37668e-09
-6.8359e-08
1.38569e-09
-6.97523e-08
1.39326e-09
-7.11515e-08
1.39923e-09
-7.25549e-08
1.4034e-09
-7.39605e-08
1.40558e-09
-7.53661e-08
1.40556e-09
-7.67692e-08
1.40313e-09
-7.81673e-08
1.39807e-09
-7.95574e-08
1.39014e-09
-8.09365e-08
1.37911e-09
-8.23012e-08
1.36473e-09
-8.3648e-08
1.34675e-09
-8.49729e-08
1.32493e-09
-8.62719e-08
1.299e-09
-8.75406e-08
1.2687e-09
-8.87744e-08
1.23379e-09
-8.99684e-08
1.19399e-09
-9.11175e-08
1.14907e-09
-9.22163e-08
1.09877e-09
-9.32591e-08
1.04287e-09
-9.42403e-08
9.81132e-10
-9.51536e-08
9.13358e-10
-9.5993e-08
8.3936e-10
-9.67519e-08
7.58972e-10
-9.7424e-08
6.72056e-10
-9.80025e-08
5.78507e-10
-9.84808e-08
4.78251e-10
-9.8852e-08
3.71259e-10
-9.91096e-08
2.57542e-10
-9.92467e-08
1.37164e-10
-9.9257e-08
1.02453e-11
-9.91339e-08
-1.23052e-10
-9.88715e-08
-2.62475e-10
-9.84637e-08
-4.07725e-10
-9.79053e-08
-5.58425e-10
-9.71912e-08
-7.14121e-10
-9.63169e-08
-8.74284e-10
-9.52786e-08
-1.0383e-09
-9.40731e-08
-1.20548e-09
-9.26981e-08
-1.37505e-09
-9.11519e-08
-1.54615e-09
-8.94341e-08
-1.71784e-09
-8.7545e-08
-1.8891e-09
-8.54861e-08
-2.05885e-09
-8.32602e-08
-2.22593e-09
-8.08711e-08
-2.38911e-09
-7.8324e-08
-2.54712e-09
-7.56254e-08
-2.69865e-09
-7.2783e-08
-2.84235e-09
-6.98061e-08
-2.97686e-09
-6.67053e-08
-3.10081e-09
-6.34925e-08
-3.21285e-09
-6.01808e-08
-3.31164e-09
-5.67849e-08
-3.3959e-09
-5.33205e-08
-3.46442e-09
-4.98045e-08
-3.51605e-09
-4.62547e-08
-3.54975e-09
-4.26901e-08
-3.56459e-09
-3.91304e-08
-3.55977e-09
-3.55958e-08
-3.53463e-09
-3.21071e-08
-3.48865e-09
-2.86856e-08
-3.42151e-09
-2.53526e-08
-3.33302e-09
-2.21294e-08
-3.22319e-09
-1.90372e-08
-3.0922e-09
-1.60968e-08
-2.94041e-09
-1.33284e-08
-2.76836e-09
-1.07516e-08
-2.57678e-09
-8.38505e-09
-2.36657e-09
-6.24618e-09
-2.13887e-09
-4.35117e-09
-1.89501e-09
-2.71451e-09
-1.63666e-09
-1.34866e-09
-1.36585e-09
-2.63408e-10
-1.08525e-09
5.35062e-10
-7.98468e-10
1.04576e-09
-5.10693e-10
1.2756e-09
-2.29837e-10
1.24419e-09
3.14138e-11
9.92007e-10
2.52181e-10
5.94888e-10
3.97109e-10
1.91416e-10
4.03448e-10
1.91386e-10
1.40987e-10
-1.92992e-10
4.06606e-10
-4.06748e-10
6.87913e-10
-4.48195e-10
9.02635e-10
-3.60217e-10
9.92176e-10
-1.85611e-10
9.18289e-10
4.3243e-11
6.58279e-10
3.03052e-10
2.00844e-10
5.77379e-10
-4.57118e-10
8.54787e-10
-1.31291e-09
1.12741e-09
-2.35994e-09
1.3899e-09
-3.58875e-09
1.63875e-09
-4.98821e-09
1.87172e-09
-6.54619e-09
2.08753e-09
-8.25e-09
2.28562e-09
-1.00869e-08
2.46594e-09
-1.20442e-08
2.62884e-09
-1.41098e-08
2.77495e-09
-1.62721e-08
2.90511e-09
-1.85201e-08
3.02028e-09
-2.08437e-08
3.12152e-09
-2.32334e-08
3.20996e-09
-2.56807e-08
3.28674e-09
-2.81778e-08
3.353e-09
-3.07177e-08
3.40986e-09
-3.32944e-08
3.45839e-09
-3.59023e-08
3.49964e-09
-3.85369e-08
3.5346e-09
-4.1194e-08
3.56419e-09
-4.38704e-08
3.58927e-09
-4.65631e-08
3.61063e-09
-4.92701e-08
3.62903e-09
-5.19894e-08
3.64512e-09
-5.47199e-08
3.65952e-09
-5.74606e-08
3.67277e-09
-6.02109e-08
3.68538e-09
-6.29708e-08
3.69777e-09
-6.57402e-08
3.71034e-09
-6.85195e-08
3.72344e-09
-7.13093e-08
3.73735e-09
-7.41103e-08
3.75235e-09
-7.69235e-08
3.76866e-09
-7.97499e-08
3.78647e-09
-8.25908e-08
3.80594e-09
-8.54474e-08
3.8272e-09
-8.83211e-08
3.85037e-09
-9.12133e-08
3.87554e-09
-9.41257e-08
3.90276e-09
-9.70596e-08
3.93208e-09
-1.00017e-07
3.96355e-09
-1.02998e-07
3.99715e-09
-1.06006e-07
4.0329e-09
-1.09042e-07
4.07078e-09
-1.12107e-07
4.11075e-09
-1.15203e-07
4.15276e-09
-1.18332e-07
4.19675e-09
-1.21493e-07
4.24264e-09
-1.2469e-07
4.29035e-09
-1.27923e-07
4.33975e-09
-1.31193e-07
4.39073e-09
-1.34502e-07
4.44315e-09
-1.3785e-07
4.49685e-09
-1.41238e-07
4.55165e-09
-1.44666e-07
4.60734e-09
-1.48136e-07
4.66373e-09
-1.51647e-07
4.72056e-09
-1.552e-07
4.77757e-09
-1.58793e-07
4.83447e-09
-1.62428e-07
4.89097e-09
-1.66104e-07
4.94671e-09
-1.69818e-07
5.00134e-09
-1.73571e-07
5.05445e-09
-1.77361e-07
5.10564e-09
-1.81186e-07
5.15444e-09
-1.85044e-07
5.20037e-09
-1.88932e-07
5.24292e-09
-1.92847e-07
5.28154e-09
-1.96786e-07
5.31564e-09
-2.00745e-07
5.34461e-09
-2.04719e-07
5.3678e-09
-2.08704e-07
5.38452e-09
-2.12695e-07
5.39406e-09
-2.16685e-07
5.39567e-09
-2.20668e-07
5.38856e-09
-2.24637e-07
5.37192e-09
-2.28584e-07
5.34492e-09
-2.325e-07
5.30667e-09
-2.36378e-07
5.2563e-09
-2.40206e-07
5.19289e-09
-2.43974e-07
5.1155e-09
-2.47673e-07
5.0232e-09
-2.51289e-07
4.91504e-09
-2.5481e-07
4.79006e-09
-2.58224e-07
4.64733e-09
-2.61516e-07
4.48591e-09
-2.64671e-07
4.3049e-09
-2.67676e-07
4.10341e-09
-2.70514e-07
3.88062e-09
-2.73168e-07
3.63572e-09
-2.75623e-07
3.36801e-09
-2.7786e-07
3.07685e-09
-2.79863e-07
2.76167e-09
-2.81613e-07
2.42203e-09
-2.83092e-07
2.05761e-09
-2.84282e-07
1.66822e-09
-2.85165e-07
1.25382e-09
-2.85722e-07
8.1454e-10
-2.85935e-07
3.50704e-10
-2.85788e-07
-1.37167e-10
-2.85263e-07
-6.48333e-10
-2.84343e-07
-1.18182e-09
-2.83015e-07
-1.73639e-09
-2.81263e-07
-2.31056e-09
-2.79074e-07
-2.90258e-09
-2.76438e-07
-3.51038e-09
-2.73345e-07
-4.13162e-09
-2.69786e-07
-4.76367e-09
-2.65758e-07
-5.40359e-09
-2.61256e-07
-6.04814e-09
-2.5628e-07
-6.69381e-09
-2.50832e-07
-7.33679e-09
-2.44918e-07
-7.97304e-09
-2.38546e-07
-8.59824e-09
-2.31727e-07
-9.20788e-09
-2.24477e-07
-9.79727e-09
-2.16814e-07
-1.03616e-08
-2.0876e-07
-1.08958e-08
-2.00342e-07
-1.13951e-08
-1.91589e-07
-1.18542e-08
-1.82533e-07
-1.22684e-08
-1.73212e-07
-1.26328e-08
-1.63665e-07
-1.29427e-08
-1.53936e-07
-1.31936e-08
-1.44071e-07
-1.33815e-08
-1.34118e-07
-1.35026e-08
-1.24129e-07
-1.35534e-08
-1.14158e-07
-1.35312e-08
-1.04259e-07
-1.34334e-08
-9.44889e-08
-1.32584e-08
-8.49054e-08
-1.3005e-08
-7.55659e-08
-1.26725e-08
-6.65279e-08
-1.22612e-08
-5.78484e-08
-1.17717e-08
-4.95832e-08
-1.12057e-08
-4.17863e-08
-1.05652e-08
-3.45097e-08
-9.85338e-09
-2.78023e-08
-9.07395e-09
-2.17096e-08
-8.23162e-09
-1.62724e-08
-7.33215e-09
-1.15265e-08
-6.38263e-09
-7.50037e-09
-5.39195e-09
-4.21412e-09
-4.37149e-09
-1.67616e-09
-3.33642e-09
1.20732e-10
-2.30759e-09
1.20568e-09
-1.31479e-09
1.63878e-09
-4.0168e-10
1.52458e-09
3.66407e-10
1.02978e-09
8.91959e-10
4.01892e-10
1.03139e-09
5.93268e-10
1.68167e-10
-3.61213e-10
4.50872e-10
-6.89412e-10
7.09763e-10
-7.07071e-10
8.45161e-10
-4.95621e-10
7.83799e-10
-1.24264e-10
4.75127e-10
3.51914e-10
-1.12806e-10
8.90995e-10
-9.97374e-10
1.46194e-09
-2.18479e-09
2.04221e-09
-3.67295e-09
2.61558e-09
-5.45368e-09
3.17063e-09
-7.51444e-09
3.69952e-09
-9.83979e-09
4.19707e-09
-1.24124e-08
4.66012e-09
-1.52138e-08
5.08705e-09
-1.82253e-08
5.47737e-09
-2.14279e-08
5.83151e-09
-2.48035e-08
6.1505e-09
-2.83342e-08
6.43587e-09
-3.20034e-08
6.68949e-09
-3.57954e-08
6.91346e-09
-3.96954e-08
7.11003e-09
-4.36902e-08
7.28152e-09
-4.77675e-08
7.43029e-09
-5.19163e-08
7.55865e-09
-5.61268e-08
7.66886e-09
-6.03903e-08
7.76312e-09
-6.46992e-08
7.84351e-09
-6.9047e-08
7.91199e-09
-7.34281e-08
7.9704e-09
-7.7838e-08
8.02047e-09
-8.22727e-08
8.06378e-09
-8.67293e-08
8.10177e-09
-9.12056e-08
8.13577e-09
-9.56998e-08
8.16698e-09
-1.00211e-07
8.19647e-09
-1.04738e-07
8.22522e-09
-1.09282e-07
8.25408e-09
-1.13842e-07
8.28381e-09
-1.1842e-07
8.31508e-09
-1.23016e-07
8.34847e-09
-1.27632e-07
8.38448e-09
-1.32269e-07
8.42354e-09
-1.36929e-07
8.46601e-09
-1.41614e-07
8.51221e-09
-1.46326e-07
8.56237e-09
-1.51067e-07
8.6167e-09
-1.5584e-07
8.67534e-09
-1.60646e-07
8.73841e-09
-1.65489e-07
8.80596e-09
-1.7037e-07
8.87804e-09
-1.75291e-07
8.95463e-09
-1.80256e-07
9.03569e-09
-1.85267e-07
9.12115e-09
-1.90325e-07
9.21089e-09
-1.95433e-07
9.30477e-09
-2.00593e-07
9.40262e-09
-2.05807e-07
9.50423e-09
-2.11076e-07
9.60935e-09
-2.16403e-07
9.71769e-09
-2.21789e-07
9.82894e-09
-2.27235e-07
9.94274e-09
-2.32742e-07
1.00587e-08
-2.38311e-07
1.01763e-08
-2.43942e-07
1.02952e-08
-2.49637e-07
1.04147e-08
-2.55393e-07
1.05343e-08
-2.61212e-07
1.06534e-08
-2.67092e-07
1.07712e-08
-2.73033e-07
1.0887e-08
-2.79031e-07
1.1e-08
-2.85086e-07
1.11093e-08
-2.91194e-07
1.12139e-08
-2.97353e-07
1.1313e-08
-3.03558e-07
1.14054e-08
-3.09805e-07
1.14899e-08
-3.16089e-07
1.15654e-08
-3.22404e-07
1.16306e-08
-3.28743e-07
1.16842e-08
-3.351e-07
1.17247e-08
-3.41466e-07
1.17506e-08
-3.47833e-07
1.17604e-08
-3.54189e-07
1.17524e-08
-3.60526e-07
1.17251e-08
-3.6683e-07
1.16765e-08
-3.7309e-07
1.16049e-08
-3.79292e-07
1.15085e-08
-3.85421e-07
1.13853e-08
-3.91462e-07
1.12334e-08
-3.97397e-07
1.10508e-08
-4.03209e-07
1.08355e-08
-4.0888e-07
1.05855e-08
-4.14389e-07
1.02988e-08
-4.19715e-07
9.97343e-09
-4.24836e-07
9.60746e-09
-4.2973e-07
9.19898e-09
-4.34373e-07
8.74619e-09
-4.3874e-07
8.24737e-09
-4.42805e-07
7.70092e-09
-4.46542e-07
7.10539e-09
-4.49925e-07
6.45951e-09
-4.52926e-07
5.7622e-09
-4.55516e-07
5.01263e-09
-4.57669e-07
4.21021e-09
-4.59355e-07
3.35467e-09
-4.60547e-07
2.44607e-09
-4.61218e-07
1.48482e-09
-4.61339e-07
4.71736e-10
-4.60884e-07
-5.91922e-10
-4.59828e-07
-1.70444e-09
-4.58146e-07
-2.86359e-09
-4.55816e-07
-4.06663e-09
-4.52816e-07
-5.31025e-09
-4.49128e-07
-6.59059e-09
-4.44735e-07
-7.90316e-09
-4.39624e-07
-9.24287e-09
-4.33784e-07
-1.0604e-08
-4.27207e-07
-1.19803e-08
-4.19891e-07
-1.33647e-08
-4.11834e-07
-1.47499e-08
-4.03044e-07
-1.61275e-08
-3.93528e-07
-1.74891e-08
-3.833e-07
-1.88255e-08
-3.72381e-07
-2.01272e-08
-3.60794e-07
-2.13842e-08
-3.48569e-07
-2.25864e-08
-3.35742e-07
-2.37232e-08
-3.22353e-07
-2.47843e-08
-3.08448e-07
-2.57591e-08
-2.94079e-07
-2.66372e-08
-2.79303e-07
-2.74085e-08
-2.64183e-07
-2.80633e-08
-2.48784e-07
-2.85922e-08
-2.33179e-07
-2.89866e-08
-2.17443e-07
-2.92387e-08
-2.01655e-07
-2.93414e-08
-1.85897e-07
-2.92887e-08
-1.70255e-07
-2.90758e-08
-1.54815e-07
-2.86988e-08
-1.39664e-07
-2.81555e-08
-1.24892e-07
-2.74447e-08
-1.10586e-07
-2.6567e-08
-9.68337e-08
-2.55241e-08
-8.37199e-08
-2.43195e-08
-7.13269e-08
-2.29582e-08
-5.97331e-08
-2.14472e-08
-4.90121e-08
-1.97949e-08
-3.92315e-08
-1.80123e-08
-3.04512e-08
-1.61124e-08
-2.27223e-08
-1.41116e-08
-1.60841e-08
-1.20302e-08
-1.05617e-08
-9.8938e-09
-6.1622e-09
-7.73596e-09
-2.86863e-09
-5.60116e-09
-6.3326e-10
-3.55016e-09
6.3256e-10
-1.66752e-09
1.07124e-09
-7.2301e-11
8.93485e-10
1.06969e-09
3.9521e-10
1.52969e-09
9.88475e-10
1.48294e-10
-5.09487e-10
3.65624e-10
-9.0675e-10
5.01399e-10
-8.42857e-10
4.47722e-10
-4.41956e-10
1.25104e-10
1.9835e-10
-5.22497e-10
9.99511e-10
-1.53159e-09
1.90007e-09
-2.92281e-09
2.85317e-09
-4.70424e-09
3.82364e-09
-6.87412e-09
4.78547e-09
-9.42328e-09
5.71979e-09
-1.2337e-08
6.61327e-09
-1.55968e-08
7.45683e-09
-1.91814e-08
8.2447e-09
-2.3068e-08
8.97364e-09
-2.7233e-08
9.6424e-09
-3.16527e-08
1.02512e-08
-3.63038e-08
1.08015e-08
-4.11635e-08
1.12956e-08
-4.62101e-08
1.17362e-08
-5.14234e-08
1.21267e-08
-5.67841e-08
1.24707e-08
-6.22747e-08
1.27721e-08
-6.7879e-08
1.30346e-08
-7.35823e-08
1.3262e-08
-7.93717e-08
1.34582e-08
-8.52354e-08
1.36268e-08
-9.11631e-08
1.37713e-08
-9.7146e-08
1.38949e-08
-1.03177e-07
1.40009e-08
-1.09248e-07
1.40921e-08
-1.15356e-07
1.41712e-08
-1.21495e-07
1.42408e-08
-1.27662e-07
1.43031e-08
-1.33855e-07
1.43601e-08
-1.40072e-07
1.44137e-08
-1.46313e-07
1.44656e-08
-1.52576e-07
1.45173e-08
-1.58862e-07
1.45701e-08
-1.65172e-07
1.46252e-08
-1.71507e-07
1.46836e-08
-1.77869e-07
1.47461e-08
-1.84259e-07
1.48136e-08
-1.9068e-07
1.48866e-08
-1.97133e-07
1.49658e-08
-2.03622e-07
1.50516e-08
-2.1015e-07
1.51442e-08
-2.16719e-07
1.52441e-08
-2.23332e-07
1.53513e-08
-2.29992e-07
1.5466e-08
-2.36702e-07
1.55883e-08
-2.43465e-07
1.57181e-08
-2.50285e-07
1.58553e-08
-2.57164e-07
1.59999e-08
-2.64104e-07
1.61516e-08
-2.7111e-07
1.63102e-08
-2.78182e-07
1.64753e-08
-2.85325e-07
1.66466e-08
-2.92539e-07
1.68237e-08
-2.99827e-07
1.7006e-08
-3.07191e-07
1.71929e-08
-3.14632e-07
1.73839e-08
-3.22152e-07
1.75782e-08
-3.2975e-07
1.77749e-08
-3.37429e-07
1.79734e-08
-3.45186e-07
1.81725e-08
-3.53023e-07
1.83712e-08
-3.60939e-07
1.85685e-08
-3.6893e-07
1.87631e-08
-3.76997e-07
1.89537e-08
-3.85136e-07
1.91388e-08
-3.93344e-07
1.93169e-08
-4.01616e-07
1.94864e-08
-4.09949e-07
1.96455e-08
-4.18336e-07
1.97924e-08
-4.26771e-07
1.99251e-08
-4.35247e-07
2.00415e-08
-4.43756e-07
2.01394e-08
-4.52288e-07
2.02165e-08
-4.60834e-07
2.02703e-08
-4.69381e-07
2.02982e-08
-4.77919e-07
2.02977e-08
-4.86432e-07
2.02658e-08
-4.94906e-07
2.01997e-08
-5.03326e-07
2.00964e-08
-5.11674e-07
1.99528e-08
-5.19932e-07
1.97658e-08
-5.28078e-07
1.95321e-08
-5.36093e-07
1.92484e-08
-5.43954e-07
1.89115e-08
-5.51637e-07
1.85178e-08
-5.59115e-07
1.80642e-08
-5.66364e-07
1.75472e-08
-5.73354e-07
1.69636e-08
-5.80056e-07
1.63101e-08
-5.86441e-07
1.55836e-08
-5.92476e-07
1.47812e-08
-5.98129e-07
1.39e-08
-6.03365e-07
1.29376e-08
-6.08151e-07
1.18915e-08
-6.12452e-07
1.07597e-08
-6.1623e-07
9.5407e-09
-6.19451e-07
8.23312e-09
-6.22077e-07
6.83621e-09
-6.24072e-07
5.34968e-09
-6.25399e-07
3.77382e-09
-6.26024e-07
2.10954e-09
-6.25911e-07
3.58443e-10
-6.25026e-07
-1.47716e-09
-6.23336e-07
-3.39414e-09
-6.20811e-07
-5.38856e-09
-6.17422e-07
-7.45557e-09
-6.13143e-07
-9.58941e-09
-6.0795e-07
-1.17833e-08
-6.01824e-07
-1.40297e-08
-5.94747e-07
-1.63196e-08
-5.86707e-07
-1.86435e-08
-5.77697e-07
-2.09905e-08
-5.67713e-07
-2.33488e-08
-5.56757e-07
-2.57058e-08
-5.44837e-07
-2.80477e-08
-5.31966e-07
-3.03599e-08
-5.18164e-07
-3.26272e-08
-5.03458e-07
-3.48334e-08
-4.8788e-07
-3.69621e-08
-4.71471e-07
-3.89959e-08
-4.54276e-07
-4.09176e-08
-4.36351e-07
-4.27097e-08
-4.17756e-07
-4.43545e-08
-3.98558e-07
-4.58347e-08
-3.78833e-07
-4.71336e-08
-3.58662e-07
-4.82348e-08
-3.38131e-07
-4.91228e-08
-3.17334e-07
-4.97834e-08
-2.96369e-07
-5.02035e-08
-2.7534e-07
-5.03713e-08
-2.54351e-07
-5.0277e-08
-2.33515e-07
-4.99124e-08
-2.12942e-07
-4.92715e-08
-1.92747e-07
-4.83504e-08
-1.73044e-07
-4.71476e-08
-1.53947e-07
-4.56639e-08
-1.35569e-07
-4.39029e-08
-1.18017e-07
-4.18706e-08
-1.01399e-07
-3.95762e-08
-8.58151e-08
-3.70316e-08
-7.13577e-08
-3.42522e-08
-5.81128e-08
-3.12572e-08
-4.61551e-08
-2.807e-08
-3.55473e-08
-2.47194e-08
-2.63365e-08
-2.1241e-08
-1.85512e-08
-1.76791e-08
-1.21966e-08
-1.40905e-08
-7.24935e-09
-1.05484e-08
-3.64996e-09
-7.14954e-09
-1.29439e-09
-4.02307e-09
-2.33215e-11
-1.34336e-09
3.90403e-10
6.55943e-10
2.55341e-10
1.66477e-09
1.24381e-09
9.96589e-11
-6.09145e-10
1.90818e-10
-9.97915e-10
1.26143e-10
-7.7818e-10
-2.02048e-10
-1.13763e-10
-8.73453e-10
8.69765e-10
-1.94477e-09
2.07082e-09
-3.45337e-09
3.40867e-09
-5.4206e-09
4.82042e-09
-7.85481e-09
6.25785e-09
-1.07538e-08
7.68449e-09
-1.41073e-08
9.07331e-09
-1.78988e-08
1.04047e-08
-2.21071e-08
1.16652e-08
-2.67081e-08
1.28456e-08
-3.16753e-08
1.39409e-08
-3.69815e-08
1.49485e-08
-4.25988e-08
1.58685e-08
-4.84997e-08
1.67025e-08
-5.46574e-08
1.74533e-08
-6.10462e-08
1.8125e-08
-6.76417e-08
1.87221e-08
-7.44208e-08
1.92499e-08
-8.13623e-08
1.97136e-08
-8.84467e-08
2.01189e-08
-9.5656e-08
2.04714e-08
-1.02974e-07
2.07765e-08
-1.10387e-07
2.10397e-08
-1.17882e-07
2.12661e-08
-1.25448e-07
2.14606e-08
-1.33075e-07
2.16279e-08
-1.40755e-07
2.17723e-08
-1.48482e-07
2.1898e-08
-1.56249e-07
2.20085e-08
-1.64054e-07
2.21074e-08
-1.71891e-07
2.21977e-08
-1.7976e-07
2.22823e-08
-1.87658e-07
2.23638e-08
-1.95585e-07
2.24444e-08
-2.03541e-07
2.25262e-08
-2.11527e-07
2.26108e-08
-2.19544e-07
2.27e-08
-2.27592e-07
2.2795e-08
-2.35676e-07
2.28971e-08
-2.43796e-07
2.30072e-08
-2.51957e-07
2.31261e-08
-2.6016e-07
2.32547e-08
-2.68409e-07
2.33933e-08
-2.76707e-07
2.35424e-08
-2.85058e-07
2.37024e-08
-2.93466e-07
2.38733e-08
-3.01933e-07
2.40554e-08
-3.10463e-07
2.42485e-08
-3.19061e-07
2.44526e-08
-3.27728e-07
2.46674e-08
-3.36469e-07
2.48927e-08
-3.45287e-07
2.5128e-08
-3.54184e-07
2.53728e-08
-3.63164e-07
2.56265e-08
-3.72229e-07
2.58885e-08
-3.81381e-07
2.6158e-08
-3.90622e-07
2.6434e-08
-3.99954e-07
2.67155e-08
-4.09377e-07
2.70015e-08
-4.18893e-07
2.72907e-08
-4.28501e-07
2.75818e-08
-4.38202e-07
2.78732e-08
-4.47994e-07
2.81633e-08
-4.57876e-07
2.84505e-08
-4.67846e-07
2.87327e-08
-4.779e-07
2.90081e-08
-4.88036e-07
2.92742e-08
-4.98248e-07
2.95289e-08
-5.08531e-07
2.97696e-08
-5.18879e-07
2.99937e-08
-5.29285e-07
3.01982e-08
-5.3974e-07
3.03801e-08
-5.50235e-07
3.05363e-08
-5.60759e-07
3.06634e-08
-5.713e-07
3.07579e-08
-5.81846e-07
3.0816e-08
-5.92381e-07
3.08339e-08
-6.02891e-07
3.08075e-08
-6.13358e-07
3.07326e-08
-6.23763e-07
3.06049e-08
-6.34087e-07
3.04199e-08
-6.44307e-07
3.01729e-08
-6.544e-07
2.98593e-08
-6.64343e-07
2.94742e-08
-6.74107e-07
2.90127e-08
-6.83665e-07
2.84699e-08
-6.92988e-07
2.78408e-08
-7.02045e-07
2.71205e-08
-7.10801e-07
2.63041e-08
-7.19225e-07
2.53867e-08
-7.27278e-07
2.43637e-08
-7.34925e-07
2.32305e-08
-7.42127e-07
2.1983e-08
-7.48844e-07
2.0617e-08
-7.55035e-07
1.91289e-08
-7.60659e-07
1.75154e-08
-7.65673e-07
1.57738e-08
-7.70034e-07
1.39019e-08
-7.73699e-07
1.18979e-08
-7.76624e-07
9.76107e-09
-7.78766e-07
7.49114e-09
-7.80081e-07
5.08884e-09
-7.80527e-07
2.55581e-09
-7.80063e-07
-1.05311e-10
-7.78649e-07
-2.89078e-09
-7.76248e-07
-5.79568e-09
-7.72823e-07
-8.81387e-09
-7.6834e-07
-1.19379e-08
-7.62771e-07
-1.51589e-08
-7.56087e-07
-1.84667e-08
-7.48267e-07
-2.18496e-08
-7.39293e-07
-2.52945e-08
-7.29149e-07
-2.87866e-08
-7.1783e-07
-3.23099e-08
-7.05332e-07
-3.58468e-08
-6.91659e-07
-3.93784e-08
-6.76823e-07
-4.28841e-08
-6.6084e-07
-4.63426e-08
-6.43736e-07
-4.9731e-08
-6.25544e-07
-5.30257e-08
-6.06304e-07
-5.6202e-08
-5.86066e-07
-5.92347e-08
-5.64885e-07
-6.20982e-08
-5.42828e-07
-6.47667e-08
-5.19968e-07
-6.72143e-08
-4.96387e-07
-6.94157e-08
-4.72175e-07
-7.13459e-08
-4.47428e-07
-7.29812e-08
-4.22253e-07
-7.42988e-08
-3.96758e-07
-7.52776e-08
-3.71063e-07
-7.58985e-08
-3.4529e-07
-7.61443e-08
-3.19567e-07
-7.60006e-08
-2.94023e-07
-7.54555e-08
-2.68795e-07
-7.45002e-08
-2.44016e-07
-7.31291e-08
-2.19824e-07
-7.13401e-08
-1.96352e-07
-6.9135e-08
-1.73736e-07
-6.6519e-08
-1.52105e-07
-6.3502e-08
-1.31583e-07
-6.00978e-08
-1.1229e-07
-5.6325e-08
-9.43347e-08
-5.22074e-08
-7.78175e-08
-4.77744e-08
-6.28255e-08
-4.30621e-08
-4.94305e-08
-3.81144e-08
-3.76864e-08
-3.29851e-08
-2.7625e-08
-2.77406e-08
-1.92517e-08
-2.24638e-08
-1.25407e-08
-1.72595e-08
-7.42831e-09
-1.22619e-08
-3.8062e-09
-7.64517e-09
-1.51317e-09
-3.63637e-09
-3.26688e-10
-5.30548e-10
4.80283e-11
1.29005e-09
1.29184e-09
3.35546e-11
-6.42698e-10
-4.40937e-11
-9.20269e-10
-3.66926e-10
-4.55344e-10
-1.03554e-09
5.54855e-10
-2.12499e-09
1.9592e-09
-3.68879e-09
3.63464e-09
-5.7622e-09
5.48208e-09
-8.36504e-09
7.42326e-09
-1.15042e-08
9.39706e-09
-1.51763e-08
1.13565e-08
-1.93691e-08
1.32662e-08
-2.40643e-08
1.50999e-08
-2.92384e-08
1.68392e-08
-3.48644e-08
1.84717e-08
-4.09132e-08
1.99896e-08
-4.73541e-08
2.13894e-08
-5.4156e-08
2.26704e-08
-6.1288e-08
2.38344e-08
-6.87197e-08
2.4885e-08
-7.64219e-08
2.58272e-08
-8.43668e-08
2.6667e-08
-9.25281e-08
2.74112e-08
-1.00881e-07
2.80669e-08
-1.09404e-07
2.86416e-08
-1.18076e-07
2.91429e-08
-1.26877e-07
2.95781e-08
-1.35792e-07
2.99547e-08
-1.44806e-07
3.02795e-08
-1.53904e-07
3.05595e-08
-1.63077e-07
3.08009e-08
-1.72315e-07
3.10098e-08
-1.81609e-07
3.11918e-08
-1.90952e-07
3.1352e-08
-2.0034e-07
3.14952e-08
-2.09768e-07
3.16257e-08
-2.19233e-07
3.17476e-08
-2.28734e-07
3.18643e-08
-2.38268e-07
3.19791e-08
-2.47837e-07
3.20948e-08
-2.5744e-07
3.22139e-08
-2.67079e-07
3.23387e-08
-2.76755e-07
3.24711e-08
-2.8647e-07
3.26127e-08
-2.96228e-07
3.27649e-08
-3.06031e-07
3.2929e-08
-3.15882e-07
3.3106e-08
-3.25786e-07
3.32966e-08
-3.35744e-07
3.35013e-08
-3.45763e-07
3.37207e-08
-3.55845e-07
3.39551e-08
-3.65994e-07
3.42044e-08
-3.76214e-07
3.44688e-08
-3.86509e-07
3.47479e-08
-3.96883e-07
3.50416e-08
-4.0734e-07
3.53494e-08
-4.17883e-07
3.56706e-08
-4.28515e-07
3.60046e-08
-4.39239e-07
3.63505e-08
-4.50057e-07
3.67073e-08
-4.60973e-07
3.70738e-08
-4.71988e-07
3.74488e-08
-4.83103e-07
3.78309e-08
-4.9432e-07
3.82184e-08
-5.05639e-07
3.86095e-08
-5.1706e-07
3.90023e-08
-5.28581e-07
3.93947e-08
-5.40202e-07
3.97844e-08
-5.51921e-07
4.01689e-08
-5.63734e-07
4.05455e-08
-5.75637e-07
4.09113e-08
-5.87626e-07
4.12631e-08
-5.99694e-07
4.15977e-08
-6.11836e-07
4.19114e-08
-6.24043e-07
4.22006e-08
-6.36306e-07
4.24611e-08
-6.48615e-07
4.26888e-08
-6.60958e-07
4.28792e-08
-6.73322e-07
4.30275e-08
-6.85692e-07
4.31288e-08
-6.98054e-07
4.31779e-08
-7.1039e-07
4.31694e-08
-7.2268e-07
4.30977e-08
-7.34904e-07
4.29569e-08
-7.4704e-07
4.2741e-08
-7.59064e-07
4.24439e-08
-7.70951e-07
4.20591e-08
-7.82671e-07
4.15801e-08
-7.94198e-07
4.10004e-08
-8.05498e-07
4.03131e-08
-8.1654e-07
3.95116e-08
-8.27288e-07
3.85891e-08
-8.37706e-07
3.7539e-08
-8.47757e-07
3.63544e-08
-8.57399e-07
3.5029e-08
-8.66592e-07
3.35565e-08
-8.75292e-07
3.19308e-08
-8.83456e-07
3.01463e-08
-8.91036e-07
2.81976e-08
-8.97987e-07
2.60799e-08
-9.04261e-07
2.37891e-08
-9.09809e-07
2.13215e-08
-9.14581e-07
1.86745e-08
-9.18529e-07
1.5846e-08
-9.21603e-07
1.28352e-08
-9.23755e-07
9.64222e-09
-9.24934e-07
6.26827e-09
-9.25094e-07
2.71599e-09
-9.24189e-07
-1.01062e-09
-9.22174e-07
-4.90609e-09
-9.19006e-07
-8.96334e-09
-9.14646e-07
-1.31736e-08
-9.09058e-07
-1.75263e-08
-9.02208e-07
-2.20091e-08
-8.94067e-07
-2.66077e-08
-8.8461e-07
-3.13058e-08
-8.7382e-07
-3.60851e-08
-8.61681e-07
-4.09255e-08
-8.48186e-07
-4.58047e-08
-8.33335e-07
-5.06984e-08
-8.17132e-07
-5.55808e-08
-7.99593e-07
-6.04238e-08
-7.80737e-07
-6.51979e-08
-7.60596e-07
-6.98722e-08
-7.39208e-07
-7.44141e-08
-7.16619e-07
-7.87903e-08
-6.92888e-07
-8.29664e-08
-6.68078e-07
-8.69075e-08
-6.42266e-07
-9.05785e-08
-6.15537e-07
-9.39442e-08
-5.87982e-07
-9.69702e-08
-5.59705e-07
-9.96226e-08
-5.30817e-07
-1.01869e-07
-5.01437e-07
-1.03679e-07
-4.71691e-07
-1.05023e-07
-4.41713e-07
-1.05876e-07
-4.11643e-07
-1.06215e-07
-3.81624e-07
-1.06019e-07
-3.51807e-07
-1.05273e-07
-3.22343e-07
-1.03964e-07
-2.93386e-07
-1.02086e-07
-2.6509e-07
-9.96359e-08
-2.37609e-07
-9.66157e-08
-2.11095e-07
-9.30337e-08
-1.85693e-07
-8.89035e-08
-1.61546e-07
-8.42447e-08
-1.38787e-07
-7.90838e-08
-1.17541e-07
-7.3454e-08
-9.79186e-08
-6.73967e-08
-8.00184e-08
-6.09623e-08
-6.39207e-08
-5.4212e-08
-4.96859e-08
-4.72199e-08
-3.73503e-08
-4.00761e-08
-2.69225e-08
-3.28915e-08
-1.83788e-08
-2.58032e-08
-1.1658e-08
-1.89827e-08
-6.65671e-09
-1.26465e-08
-3.22376e-09
-7.06931e-09
-1.15527e-09
-2.59904e-09
-1.89636e-10
3.2442e-10
1.10221e-09
-4.31053e-11
-5.99585e-10
-3.18583e-10
-6.44797e-10
-9.41524e-10
1.6759e-10
-2.00052e-09
1.61384e-09
-3.56212e-09
3.5208e-09
-5.67364e-09
5.74616e-09
-8.3657e-09
8.17414e-09
-1.16545e-08
1.07121e-08
-1.55442e-08
1.32867e-08
-2.00286e-08
1.5841e-08
-2.50935e-08
1.8331e-08
-3.07179e-08
2.07243e-08
-3.6876e-08
2.29973e-08
-4.35383e-08
2.51339e-08
-5.06728e-08
2.71242e-08
-5.82462e-08
2.89628e-08
-6.62244e-08
3.06486e-08
-7.45735e-08
3.21835e-08
-8.32602e-08
3.35717e-08
-9.22522e-08
3.48192e-08
-1.01519e-07
3.59336e-08
-1.11031e-07
3.69233e-08
-1.20761e-07
3.77973e-08
-1.30685e-07
3.85652e-08
-1.40778e-07
3.92365e-08
-1.51021e-07
3.98208e-08
-1.61394e-07
4.03275e-08
-1.7188e-07
4.07657e-08
-1.82465e-07
4.11441e-08
-1.93135e-07
4.14711e-08
-2.0388e-07
4.17545e-08
-2.14689e-07
4.20015e-08
-2.25556e-07
4.2219e-08
-2.36475e-07
4.24132e-08
-2.47439e-07
4.25899e-08
-2.58445e-07
4.27542e-08
-2.69492e-07
4.29108e-08
-2.80577e-07
4.3064e-08
-2.917e-07
4.32176e-08
-3.02861e-07
4.3375e-08
-3.14061e-07
4.3539e-08
-3.25302e-07
4.37123e-08
-3.36587e-07
4.3897e-08
-3.47917e-07
4.40952e-08
-3.59296e-07
4.43083e-08
-3.70728e-07
4.45377e-08
-3.82216e-07
4.47845e-08
-3.93764e-07
4.50494e-08
-4.05376e-07
4.5333e-08
-4.17057e-07
4.56358e-08
-4.2881e-07
4.59577e-08
-4.4064e-07
4.62989e-08
-4.52551e-07
4.6659e-08
-4.64547e-07
4.70377e-08
-4.76632e-07
4.74343e-08
-4.88809e-07
4.78479e-08
-5.01083e-07
4.82778e-08
-5.13455e-07
4.87226e-08
-5.25928e-07
4.91809e-08
-5.38506e-07
4.96514e-08
-5.51189e-07
5.01321e-08
-5.63979e-07
5.06212e-08
-5.76877e-07
5.11164e-08
-5.89883e-07
5.16154e-08
-6.02997e-07
5.21155e-08
-6.16216e-07
5.26139e-08
-6.29539e-07
5.31075e-08
-6.42963e-07
5.35928e-08
-6.56483e-07
5.40664e-08
-6.70096e-07
5.45242e-08
-6.83795e-07
5.49622e-08
-6.97574e-07
5.53758e-08
-7.11423e-07
5.57603e-08
-7.25333e-07
5.61108e-08
-7.39293e-07
5.64217e-08
-7.53292e-07
5.66876e-08
-7.67315e-07
5.69024e-08
-7.81348e-07
5.70599e-08
-7.95373e-07
5.71537e-08
-8.09371e-07
5.71767e-08
-8.23324e-07
5.7122e-08
-8.37208e-07
5.69821e-08
-8.51001e-07
5.67494e-08
-8.64676e-07
5.6416e-08
-8.78206e-07
5.59738e-08
-8.91561e-07
5.54144e-08
-9.04711e-07
5.47295e-08
-9.17621e-07
5.39105e-08
-9.30256e-07
5.29486e-08
-9.4258e-07
5.18352e-08
-9.54552e-07
5.05615e-08
-9.66132e-07
4.9119e-08
-9.77277e-07
4.74992e-08
-9.87942e-07
4.56937e-08
-9.9808e-07
4.36946e-08
-1.00764e-06
4.14943e-08
-1.01658e-06
3.90856e-08
-1.02485e-06
3.64618e-08
-1.03238e-06
3.36172e-08
-1.03914e-06
3.05465e-08
-1.04507e-06
2.72454e-08
-1.0501e-06
2.37107e-08
-1.0542e-06
1.99403e-08
-1.05729e-06
1.59334e-08
-1.05934e-06
1.16905e-08
-1.06029e-06
7.21372e-09
-1.06008e-06
2.50688e-09
-1.05866e-06
-2.42445e-09
-1.056e-06
-7.57274e-09
-1.05203e-06
-1.29284e-08
-1.04673e-06
-1.84797e-08
-1.04004e-06
-2.42126e-08
-1.03194e-06
-3.01107e-08
-1.02239e-06
-3.61551e-08
-1.01137e-06
-4.23245e-08
-9.98863e-07
-4.85951e-08
-9.84848e-07
-5.49403e-08
-9.69321e-07
-6.13314e-08
-9.52283e-07
-6.77367e-08
-9.33741e-07
-7.41226e-08
-9.13712e-07
-8.04529e-08
-8.92221e-07
-8.66894e-08
-8.69301e-07
-9.27921e-08
-8.44996e-07
-9.87191e-08
-8.19359e-07
-1.04427e-07
-7.92453e-07
-1.09872e-07
-7.64351e-07
-1.15009e-07
-7.35137e-07
-1.19793e-07
-7.04903e-07
-1.24178e-07
-6.73753e-07
-1.2812e-07
-6.418e-07
-1.31576e-07
-6.09165e-07
-1.34504e-07
-5.75981e-07
-1.36864e-07
-5.42385e-07
-1.38619e-07
-5.08526e-07
-1.39736e-07
-4.74556e-07
-1.40185e-07
-4.40635e-07
-1.3994e-07
-4.06927e-07
-1.38981e-07
-3.73598e-07
-1.37293e-07
-3.40819e-07
-1.34866e-07
-3.08759e-07
-1.31696e-07
-2.77586e-07
-1.27788e-07
-2.47468e-07
-1.23152e-07
-2.18566e-07
-1.17806e-07
-1.91035e-07
-1.11776e-07
-1.65023e-07
-1.05096e-07
-1.40665e-07
-9.78118e-08
-1.18085e-07
-8.99767e-08
-9.739e-08
-8.1657e-08
-7.86698e-08
-7.29322e-08
-6.19917e-08
-6.3898e-08
-4.73986e-08
-5.46692e-08
-3.49052e-08
-4.5385e-08
-2.44942e-08
-3.62142e-08
-1.61131e-08
-2.73638e-08
-9.67062e-09
-1.90889e-08
-5.03431e-09
-1.17056e-08
-2.02884e-09
-5.60451e-09
-4.36399e-10
-1.26802e-09
6.65813e-10
-1.25997e-10
-4.73587e-10
-6.18649e-10
-1.52146e-10
-1.57155e-09
1.12049e-09
-3.05813e-09
3.10043e-09
-5.1336e-09
5.59627e-09
-7.83662e-09
8.44918e-09
-1.11911e-08
1.15286e-08
-1.52079e-08
1.47289e-08
-1.98868e-08
1.79657e-08
-2.52182e-08
2.11723e-08
-3.11845e-08
2.42973e-08
-3.7762e-08
2.73018e-08
-4.4922e-08
3.01574e-08
-5.26325e-08
3.28444e-08
-6.08588e-08
3.53505e-08
-6.95648e-08
3.76689e-08
-7.8714e-08
3.97978e-08
-8.82697e-08
4.17392e-08
-9.81959e-08
4.34979e-08
-1.08458e-07
4.50811e-08
-1.19022e-07
4.64979e-08
-1.29857e-07
4.77584e-08
-1.40934e-07
4.88737e-08
-1.52224e-07
4.98554e-08
-1.63702e-07
5.07152e-08
-1.75347e-07
5.1465e-08
-1.87136e-07
5.21164e-08
-1.99051e-07
5.26807e-08
-2.11075e-07
5.31689e-08
-2.23195e-07
5.35912e-08
-2.35398e-07
5.39575e-08
-2.47674e-07
5.42769e-08
-2.60013e-07
5.45579e-08
-2.72408e-07
5.48085e-08
-2.84854e-07
5.50358e-08
-2.97346e-07
5.52465e-08
-3.09882e-07
5.54464e-08
-3.22459e-07
5.56411e-08
-3.35076e-07
5.58352e-08
-3.47735e-07
5.60332e-08
-3.60434e-07
5.62386e-08
-3.73177e-07
5.64549e-08
-3.85965e-07
5.66849e-08
-3.98801e-07
5.69311e-08
-4.11688e-07
5.71954e-08
-4.2463e-07
5.74795e-08
-4.3763e-07
5.77849e-08
-4.50693e-07
5.81126e-08
-4.63824e-07
5.84632e-08
-4.77025e-07
5.88373e-08
-4.90303e-07
5.92351e-08
-5.0366e-07
5.96564e-08