/*--------------------------------*- C++ -*----------------------------------*\
  =========                 |
  \\      /  F ield         | OpenFOAM: The Open Source CFD Toolbox
   \\    /   O peration     | Website:  https://openfoam.org
    \\  /    A nd           | Version:  7
     \\/     M anipulation  |
\*---------------------------------------------------------------------------*/
FoamFile
{
    version     2.0;
    format      ascii;
    class       volScalarField;
    location    "0.175";
    object      p;
}
// * * * * * * * * * * * * * * * * * * * * * * * * * * * * * * * * * * * * * //

dimensions      [0 2 -2 0 0 0 0];

internalField   nonuniform List<scalar> 
12800
(
-5.83503e-07
2.44078e-05
-1.57567e-05
-0.000132616
-0.00031714
-0.000558077
-0.000843769
-0.00116298
-0.00150564
-0.00186295
-0.00222744
-0.00259277
-0.00295369
-0.00330584
-0.00364571
-0.00397051
-0.00427805
-0.00456663
-0.00483499
-0.00508225
-0.00530785
-0.00551155
-0.00569329
-0.00585319
-0.00599149
-0.00610852
-0.00620469
-0.00628047
-0.00633636
-0.00637288
-0.00639053
-0.0063898
-0.00637115
-0.00633499
-0.00628169
-0.00621158
-0.00612494
-0.00602198
-0.00590291
-0.00576786
-0.00561692
-0.00545015
-0.00526756
-0.00506911
-0.00485471
-0.00462423
-0.00437751
-0.00411434
-0.00383446
-0.00353757
-0.00322333
-0.00289136
-0.00254125
-0.00217257
-0.00178484
-0.00137755
-0.000950115
-0.000501918
-3.22994e-05
0.000459436
0.000974018
0.00151222
0.00207486
0.00266279
0.00327693
0.00391821
0.00458762
0.0052862
0.006015
0.00677516
0.00756784
0.00839425
0.00925565
0.0101533
0.0110886
0.0120629
0.0130776
0.0141342
0.0152341
0.0163787
0.0175697
0.0188085
0.0200966
0.0214355
0.0228267
0.0242718
0.0257721
0.0273292
0.0289444
0.030619
0.0323541
0.034151
0.0360105
0.0379337
0.0399212
0.0419735
0.0440911
0.046274
0.0485221
0.0508351
0.0532122
0.0556524
0.0581545
0.0607168
0.0633372
0.0660131
0.0687417
0.0715195
0.0743426
0.0772067
0.0801069
0.0830378
0.0859934
0.0889673
0.0919526
0.0949418
0.097927
0.1009
0.103851
0.106772
0.109653
0.112485
0.115256
0.117957
0.120578
0.123109
0.125539
0.12786
0.13006
0.132132
0.134067
0.135857
0.137496
0.138977
0.140296
0.141448
0.142431
0.143244
0.143886
0.144359
0.144666
0.144812
0.144802
0.144643
0.144346
0.143921
0.14338
0.142738
0.14201
0.141215
0.140373
0.139505
0.138637
0.137796
0.137013
0.136324
0.135764
0.135374
0.135192
0.135211
-2.50786e-05
3.51365e-07
-4.01596e-05
-0.000146234
-0.000307896
-0.000517375
-0.000766284
-0.00104588
-0.00134792
-0.00166493
-0.00199039
-0.0023186
-0.0026447
-0.0029646
-0.00327489
-0.00357278
-0.00385606
-0.00412298
-0.00437217
-0.00460264
-0.00481367
-0.00500484
-0.00517592
-0.00532686
-0.00545772
-0.0055687
-0.00566005
-0.00573209
-0.0057852
-0.00581974
-0.0058361
-0.00583467
-0.00581581
-0.00577983
-0.00572702
-0.00565763
-0.00557186
-0.00546989
-0.00535184
-0.00521781
-0.00506784
-0.00490195
-0.00472013
-0.0045223
-0.00430837
-0.00407817
-0.0038315
-0.00356815
-0.00328785
-0.00299028
-0.00267509
-0.00234189
-0.00199028
-0.00161982
-0.00123004
-0.000820395
-0.000390327
6.07837e-05
0.000533591
0.00102878
0.00154707
0.00208922
0.00265604
0.00324835
0.00386706
0.00451307
0.00518735
0.00589089
0.00662473
0.00738995
0.00818768
0.00901908
0.00988536
0.0107877
0.0117275
0.012706
0.0137246
0.0147845
0.0158873
0.0170342
0.0182268
0.0194664
0.0207544
0.0220922
0.0234813
0.0249231
0.0264188
0.0279698
0.0295773
0.0312426
0.0329666
0.0347503
0.0365947
0.0385005
0.0404683
0.0424985
0.0445913
0.0467468
0.0489647
0.0512444
0.0535853
0.0559863
0.058446
0.0609626
0.063534
0.0661577
0.0688308
0.0715499
0.0743111
0.0771102
0.0799424
0.0828023
0.0856844
0.0885824
0.0914895
0.0943987
0.0973023
0.100192
0.10306
0.105897
0.108695
0.111443
0.114132
0.116753
0.119297
0.121753
0.124112
0.126366
0.128505
0.130521
0.132406
0.134154
0.135757
0.137211
0.138511
0.139653
0.140636
0.141458
0.14212
0.142623
0.142971
0.143167
0.143218
0.143131
0.142914
0.14258
0.142139
0.141605
0.140993
0.14032
0.139605
0.138869
0.138132
0.137421
0.136762
0.136182
0.13571
0.135375
0.135211
0.13523
1.69571e-05
4.24724e-05
1.50108e-06
-9.91779e-05
-0.000248111
-0.000438738
-0.000664373
-0.000917772
-0.00119196
-0.00148053
-0.00177771
-0.00207842
-0.00237824
-0.00267336
-0.00296058
-0.0032372
-0.00350102
-0.00375031
-0.00398368
-0.00420009
-0.00439875
-0.00457912
-0.00474088
-0.00488384
-0.00500798
-0.00511335
-0.00520012
-0.0052685
-0.00531875
-0.00535116
-0.00536601
-0.0053636
-0.0053442
-0.00530807
-0.0052554
-0.00518639
-0.00510119
-0.00499992
-0.00488266
-0.00474946
-0.00460032
-0.00443524
-0.00425416
-0.004057
-0.00384363
-0.00361387
-0.0033675
-0.00310428
-0.00282393
-0.00252612
-0.0022105
-0.00187667
-0.00152422
-0.00115272
-0.000761684
-0.000350581
8.11609e-05
0.000534154
0.00100904
0.00150651
0.00202725
0.00257202
0.00314161
0.00373684
0.00435859
0.00500774
0.00568523
0.00639203
0.00712913
0.0078976
0.00869853
0.00953303
0.0104023
0.0113074
0.0122498
0.0132305
0.0142509
0.0153124
0.0164161
0.0175635
0.0187559
0.0199947
0.0212811
0.0226165
0.0240022
0.0254395
0.0269297
0.0284739
0.0300734
0.0317292
0.0334423
0.0352135
0.0370437
0.0389334
0.0408833
0.0428936
0.0449646
0.047096
0.0492876
0.0515388
0.0538488
0.0562165
0.0586405
0.061119
0.0636498
0.0662305
0.0688581
0.0715294
0.0742405
0.0769871
0.0797648
0.0825682
0.085392
0.0882299
0.0910757
0.0939222
0.0967622
0.099588
0.102391
0.105164
0.107897
0.110582
0.113209
0.11577
0.118255
0.120655
0.122962
0.125166
0.127259
0.129234
0.131083
0.132799
0.134378
0.135812
0.137099
0.138236
0.13922
0.14005
0.140728
0.141254
0.141633
0.141867
0.141964
0.141931
0.141775
0.141508
0.141141
0.140686
0.140158
0.139574
0.138949
0.138304
0.137658
0.137034
0.136453
0.13594
0.135517
0.135208
0.135046
0.13505
0.000136384
0.000150513
0.000102826
1.19864e-06
-0.000143224
-0.000324538
-0.000536754
-0.000773657
-0.00102925
-0.00129796
-0.00157468
-0.00185486
-0.00213453
-0.00241023
-0.00267898
-0.00293827
-0.00318599
-0.00342046
-0.00364032
-0.00384451
-0.00403225
-0.00420294
-0.0043562
-0.00449179
-0.00460958
-0.00470958
-0.00479185
-0.00485655
-0.00490384
-0.00493394
-0.00494706
-0.00494343
-0.00492325
-0.0048867
-0.00483394
-0.00476509
-0.00468026
-0.00457952
-0.00446291
-0.00433044
-0.00418209
-0.00401782
-0.00383754
-0.00364114
-0.00342846
-0.00319933
-0.0029535
-0.00269072
-0.00241068
-0.00211304
-0.00179745
-0.0014635
-0.00111078
-0.000738863
-0.000347254
6.45774e-05
0.000497207
0.00095124
0.00142731
0.00192609
0.00244827
0.00299459
0.00356583
0.00416281
0.00478636
0.00543736
0.00611673
0.00682539
0.00756434
0.0083346
0.00913721
0.00997327
0.0108439
0.0117502
0.0126935
0.0136748
0.0146955
0.0157567
0.0168599
0.0180061
0.0191968
0.0204331
0.0217164
0.0230479
0.0244289
0.0258606
0.0273441
0.0288807
0.0304713
0.032117
0.0338187
0.0355772
0.0373932
0.0392673
0.0411999
0.0431914
0.0452417
0.0473508
0.0495183
0.0517435
0.0540258
0.0563638
0.0587562
0.0612012
0.0636967
0.0662403
0.068829
0.0714595
0.0741282
0.0768309
0.0795631
0.0823198
0.0850955
0.0878844
0.0906803
0.0934763
0.0962654
0.09904
0.101792
0.104514
0.107197
0.109833
0.112412
0.114926
0.117366
0.119724
0.121991
0.124158
0.126218
0.128162
0.129985
0.131679
0.13324
0.134661
0.13594
0.137073
0.13806
0.138898
0.139589
0.140134
0.140537
0.140802
0.140934
0.140941
0.140832
0.140615
0.140303
0.139906
0.13944
0.138918
0.138358
0.137775
0.137189
0.136619
0.136084
0.135605
0.135203
0.134896
0.13471
0.134664
0.000324737
0.000314998
0.000252827
0.000144352
-1.50278e-06
-0.000179358
-0.000383939
-0.000609893
-0.000852065
-0.00110563
-0.00136614
-0.00162958
-0.0018924
-0.00215147
-0.00240411
-0.00264801
-0.00288123
-0.00310217
-0.00330954
-0.00350231
-0.0036797
-0.00384111
-0.00398613
-0.00411446
-0.00422595
-0.00432053
-0.00439822
-0.0044591
-0.00450327
-0.00453089
-0.0045421
-0.00453708
-0.00451595
-0.00447883
-0.00442584
-0.00435705
-0.00427251
-0.00417225
-0.00405628
-0.00392455
-0.00377703
-0.00361364
-0.00343427
-0.00323878
-0.00302699
-0.0027987
-0.00255365
-0.00229158
-0.00201215
-0.00171503
-0.00139983
-0.00106617
-0.000713621
-0.000341752
4.99307e-05
0.000461964
0.000894921
0.0013494
0.00182602
0.00232545
0.00284837
0.0033955
0.00396763
0.00456554
0.00519005
0.00584203
0.00652234
0.00723192
0.00797172
0.00874273
0.00954596
0.0103825
0.0112534
0.0121597
0.0131026
0.0140833
0.015103
0.0161628
0.017264
0.0184078
0.0195953
0.0208279
0.0221067
0.023433
0.0248079
0.0262326
0.0277082
0.0292358
0.0308164
0.0324509
0.0341401
0.0358849
0.0376858
0.0395435
0.0414582
0.0434303
0.0454597
0.0475463
0.0496897
0.0518894
0.0541443
0.0564535
0.0588154
0.0612284
0.0636903
0.0661987
0.0687508
0.0713433
0.0739728
0.076635
0.0793256
0.0820398
0.0847722
0.0875172
0.0902686
0.0930199
0.0957641
0.098494
0.101202
0.10388
0.10652
0.109114
0.111652
0.114128
0.116531
0.118854
0.121088
0.123225
0.125257
0.127178
0.12898
0.130657
0.132204
0.133617
0.134891
0.136023
0.137013
0.137859
0.138562
0.139125
0.139549
0.13984
0.140003
0.140044
0.139973
0.139798
0.13953
0.139181
0.138763
0.13829
0.137778
0.137242
0.136699
0.136165
0.135657
0.135194
0.134793
0.13447
0.13424
0.134114
0.000572032
0.000528987
0.000445552
0.000324854
0.000172241
-7.44308e-06
-0.000209548
-0.000429507
-0.000662918
-0.000905645
-0.00115387
-0.00140409
-0.00165318
-0.00189837
-0.00213726
-0.00236777
-0.00258816
-0.00279695
-0.00299296
-0.0031752
-0.00334295
-0.00349561
-0.00363277
-0.00375411
-0.00385946
-0.00394871
-0.00402184
-0.00407887
-0.00411987
-0.00414493
-0.00415414
-0.00414762
-0.00412544
-0.00408767
-0.00403438
-0.00396558
-0.0038813
-0.00378152
-0.00366619
-0.00353525
-0.00338862
-0.00322622
-0.00304789
-0.00285347
-0.00264275
-0.00241552
-0.00217151
-0.00191042
-0.00163191
-0.00133564
-0.00102122
-0.000688242
-0.000336304
3.50492e-05
0.000426312
0.000838021
0.00127074
0.00172507
0.00220162
0.00270103
0.00322399
0.00377121
0.00434345
0.00494149
0.00556612
0.00621818
0.00689853
0.00760806
0.00834772
0.00911845
0.00992124
0.0107571
0.0116271
0.0125323
0.0134737
0.0144525
0.0154699
0.016527
0.0176249
0.0187649
0.019948
0.0211755
0.0224485
0.0237682
0.0251357
0.0265521
0.0280185
0.0295359
0.0311052
0.0327273
0.0344031
0.0361332
0.0379182
0.0397587
0.0416549
0.0436071
0.0456153
0.0476794
0.0497988
0.0519731
0.0542013
0.0564824
0.0588149
0.0611972
0.0636272
0.0661024
0.0686203
0.0711776
0.0737708
0.076396
0.0790489
0.0817248
0.0844184
0.0871244
0.0898366
0.0925489
0.0952543
0.0979458
0.100616
0.103257
0.105861
0.10842
0.110925
0.113369
0.115743
0.118038
0.120246
0.12236
0.124372
0.126275
0.128062
0.129728
0.131266
0.132673
0.133945
0.135079
0.136073
0.136928
0.137643
0.138221
0.138665
0.138978
0.139166
0.139237
0.139196
0.139055
0.138822
0.138509
0.138129
0.137693
0.137216
0.136711
0.136195
0.135681
0.135186
0.134722
0.134306
0.133952
0.133663
0.133437
0.000867764
0.000784871
0.000674839
0.000537169
0.000373116
0.000186914
-1.73184e-05
-0.000235745
-0.000464668
-0.000700569
-0.00094018
-0.00118052
-0.00141889
-0.00165287
-0.00188035
-0.00209951
-0.00230881
-0.00250692
-0.00269278
-0.00286552
-0.00302445
-0.00316902
-0.00329882
-0.00341357
-0.00351306
-0.00359718
-0.00366588
-0.00371914
-0.003757
-0.0037795
-0.0037867
-0.00377865
-0.00375539
-0.00371694
-0.00366332
-0.00359451
-0.00351049
-0.00341119
-0.00329654
-0.00316646
-0.00302083
-0.00285953
-0.00268237
-0.00248918
-0.00227974
-0.0020538
-0.00181108
-0.00155126
-0.00127399
-0.000978904
-0.000665625
-0.000333749
1.71471e-05
0.00038752
0.000777868
0.00118873
0.00162066
0.00207424
0.00255008
0.00304881
0.00357111
0.00411768
0.00468927
0.00528662
0.00591053
0.00656179
0.00724124
0.00794977
0.00868828
0.00945769
0.010259
0.0110931
0.011961
0.0128639
0.0138026
0.0147783
0.0157921
0.0168452
0.0179385
0.0190733
0.0202507
0.0214717
0.0227376
0.0240493
0.0254081
0.0268149
0.0282708
0.0297768
0.0313336
0.0329423
0.0346035
0.036318
0.0380862
0.0399087
0.0417859
0.0437178
0.0457045
0.0477458
0.0498414
0.0519906
0.0541927
0.0564465
0.0587507
0.0611036
0.0635033
0.0659474
0.0684334
0.070958
0.0735181
0.0761096
0.0787286
0.0813702
0.0840297
0.0867015
0.0893798
0.0920585
0.094731
0.0973903
0.100029
0.10264
0.105215
0.107746
0.110226
0.112645
0.114996
0.11727
0.11946
0.121558
0.123556
0.125447
0.127225
0.128884
0.130419
0.131824
0.133098
0.134236
0.135237
0.136101
0.136829
0.137421
0.137882
0.138214
0.138424
0.138517
0.138502
0.138386
0.13818
0.137894
0.13754
0.137129
0.136674
0.136189
0.135686
0.135179
0.134681
0.134203
0.13376
0.133363
0.133003
0.132669
0.00120164
0.00107452
0.000933857
0.000775363
0.000595939
0.000399269
0.000189016
-3.16838e-05
-0.000259782
-0.00049234
-0.0007266
-0.000960041
-0.00119038
-0.00141557
-0.00163381
-0.00184353
-0.00204338
-0.00223224
-0.00240917
-0.00257343
-0.00272438
-0.00286154
-0.00298456
-0.00309316
-0.00318715
-0.00326642
-0.00333088
-0.00338053
-0.00341535
-0.00343537
-0.00344061
-0.00343107
-0.00340675
-0.00336765
-0.00331373
-0.00324495
-0.00316122
-0.00306247
-0.00294858
-0.00281945
-0.00267493
-0.00251486
-0.00233904
-0.00214726
-0.0019393
-0.00171488
-0.0014737
-0.00121543
-0.000939704
-0.00064615
-0.000334383
-3.99822e-06
0.000345434
0.000714378
0.00110334
0.00151284
0.00194344
0.0023957
0.00287022
0.00336763
0.0038886
0.00443381
0.005004
0.00559989
0.00622224
0.00687183
0.0075495
0.00825609
0.00899248
0.00975956
0.0105583
0.0113895
0.0122543
0.0131536
0.0140884
0.0150598
0.0160689
0.0171166
0.0182041
0.0193324
0.0205027
0.0217159
0.0229732
0.0242757
0.0256244
0.0270203
0.0284644
0.0299576
0.0315008
0.0330948
0.0347404
0.0364381
0.0381887
0.0399924
0.0418497
0.0437608
0.0457256
0.0477439
0.0498156
0.0519398
0.0541161
0.0563431
0.0586198
0.0609445
0.0633153
0.06573
0.068186
0.0706804
0.0732099
0.0757708
0.0783591
0.0809703
0.0835995
0.0862416
0.0888908
0.091541
0.0941859
0.0968187
0.0994321
0.102019
0.104571
0.107081
0.109541
0.111943
0.114278
0.116539
0.118717
0.120805
0.122795
0.124681
0.126456
0.128113
0.129649
0.131057
0.132335
0.13348
0.134491
0.135365
0.136105
0.136712
0.137188
0.137537
0.137765
0.137877
0.137881
0.137786
0.137599
0.137332
0.136995
0.136599
0.136156
0.135678
0.135178
0.134665
0.134153
0.133651
0.133171
0.132723
0.132286
0.13184
0.00156421
0.00139003
0.00121582
0.00103348
0.000835508
0.000625115
0.000405567
0.000179375
-5.10174e-05
-0.000283212
-0.000514945
-0.00074412
-0.00096885
-0.00118745
-0.00139841
-0.00160044
-0.0017924
-0.00197337
-0.00214256
-0.00229933
-0.00244316
-0.00257365
-0.00269048
-0.00279344
-0.00288235
-0.00295708
-0.00301759
-0.00306384
-0.00309581
-0.00311349
-0.00311687
-0.00310593
-0.00308064
-0.00304096
-0.00298682
-0.00291813
-0.00283479
-0.00273667
-0.00262365
-0.00249559
-0.00235231
-0.00219362
-0.0020193
-0.00182913
-0.00162286
-0.0014002
-0.00116082
-0.000904371
-0.000630485
-0.000338787
-2.88867e-05
0.000299626
0.000647192
0.00101428
0.00140139
0.00180905
0.0022378
0.00268819
0.00316081
0.00365628
0.00417527
0.00471846
0.00528652
0.00588019
0.00650019
0.00714729
0.0078223
0.00852604
0.00925936
0.0100231
0.0108182
0.0116456
0.0125061
0.0134008
0.0143305
0.0152964
0.0162994
0.0173405
0.0184208
0.0195414
0.0207031
0.0219072
0.0231547
0.0244465
0.0257837
0.0271674
0.0285983
0.0300775
0.0316058
0.0331839
0.0348126
0.0364926
0.0382244
0.0400084
0.0418451
0.0437345
0.0456768
0.0476718
0.0497192
0.0518185
0.053969
0.0561698
0.0584195
0.0607168
0.0630598
0.0654464
0.0678742
0.0703402
0.0728414
0.0753743
0.0779348
0.0805188
0.0831214
0.0857376
0.0883618
0.0909882
0.0936104
0.0962217
0.0988152
0.101383
0.103919
0.106414
0.108861
0.111251
0.113577
0.11583
0.118003
0.120087
0.122076
0.123962
0.125739
0.1274
0.128941
0.130357
0.131644
0.132799
0.13382
0.134708
0.135461
0.136082
0.136573
0.136938
0.137181
0.137309
0.137328
0.137247
0.137074
0.136819
0.136492
0.136103
0.135663
0.135183
0.134675
0.134148
0.133613
0.133078
0.132554
0.132048
0.131532
0.130974
0.00194697
0.00172401
0.00151418
0.0013057
0.00108667
0.000859915
0.000628366
0.000393967
0.00015862
-7.57737e-05
-0.000307414
-0.000534631
-0.000755908
-0.00096989
-0.00117538
-0.00137134
-0.00155687
-0.00173124
-0.00189382
-0.0020441
-0.00218168
-0.00230623
-0.00241753
-0.00251538
-0.00259965
-0.00267025
-0.00272713
-0.00277026
-0.0027996
-0.00281514
-0.00281683
-0.00280465
-0.00277852
-0.00273838
-0.00268413
-0.00261564
-0.00253279
-0.00243544
-0.00232342
-0.00219656
-0.00205466
-0.00189751
-0.00172488
-0.00153652
-0.00133215
-0.00111148
-0.000874139
-0.000619779
-0.000348025
-5.84999e-05
0.000249193
0.000575475
0.000920793
0.00128562
0.00167045
0.0020758
0.0025022
0.00295019
0.00342036
0.00391332
0.00442972
0.00497022
0.00553548
0.00612619
0.00674308
0.00738689
0.0080584
0.00875842
0.00948776
0.0102473
0.0110378
0.0118602
0.0127153
0.0136042
0.0145277
0.0154869
0.0164826
0.0175159
0.0185877
0.0196992
0.0208512
0.0220447
0.0232809
0.0245607
0.0258852
0.0272551
0.0286716
0.0301354
0.0316474
0.0332083
0.034819
0.03648
0.0381919
0.0399552
0.0417703
0.0436373
0.0455564
0.0475274
0.0495502
0.0516243
0.053749
0.0559235
0.0581467
0.0604171
0.0627331
0.0650927
0.0674935
0.0699328
0.0724077
0.0749147
0.07745
0.0800095
0.0825887
0.0851825
0.0877855
0.0903921
0.0929959
0.0955905
0.0981689
0.100724
0.103248
0.105734
0.108173
0.110558
0.11288
0.115132
0.117305
0.119392
0.121385
0.123277
0.125061
0.126732
0.128283
0.129711
0.13101
0.132179
0.133215
0.134117
0.134885
0.135521
0.136027
0.136407
0.136664
0.136805
0.136837
0.136766
0.136602
0.136353
0.136029
0.13564
0.135196
0.134707
0.134183
0.133635
0.133069
0.132495
0.131921
0.131355
0.130758
0.13009
0.00234227
0.00206955
0.00182272
0.00158638
0.00134435
0.00109913
0.00085338
0.000608529
0.00036599
0.000127207
-0.000106452
-0.000333718
-0.000553435
-0.000764568
-0.000966214
-0.0011576
-0.00133806
-0.00150705
-0.00166411
-0.00180887
-0.00194105
-0.00206043
-0.00216684
-0.00226015
-0.00234029
-0.00240718
-0.00246081
-0.00250114
-0.00252814
-0.00254177
-0.002542
-0.00252875
-0.00250196
-0.00246152
-0.0024073
-0.00233916
-0.00225695
-0.0021605
-0.00204963
-0.00192413
-0.00178377
-0.00162834
-0.00145758
-0.00127122
-0.00106897
-0.000850496
-0.000615436
-0.000363422
-9.40789e-05
0.000192974
0.000498142
0.000821858
0.00116457
0.00152676
0.00190891
0.00231151
0.00273509
0.00318019
0.00364739
0.00413729
0.00465052
0.00518771
0.0057495
0.00633657
0.00694962
0.00758938
0.00825659
0.00895205
0.00967652
0.0104308
0.0112158
0.0120322
0.0128809
0.0137629
0.0146791
0.0156303
0.0166176
0.0176418
0.0187039
0.0198049
0.0209458
0.0221275
0.0233511
0.0246175
0.0259277
0.0272826
0.0286831
0.0301301
0.0316244
0.0331669
0.0347581
0.0363989
0.0380897
0.0398312
0.0416236
0.0434672
0.0453622
0.0473086
0.0493062
0.0513546
0.0534533
0.0556015
0.0577982
0.0600421
0.0623316
0.0646649
0.0670398
0.0694537
0.0719037
0.0743867
0.076899
0.0794365
0.0819949
0.0845693
0.0871546
0.0897449
0.0923344
0.0949164
0.0974843
0.100031
0.102549
0.10503
0.107467
0.109852
0.112177
0.114433
0.116612
0.118707
0.12071
0.122614
0.124411
0.126096
0.127663
0.129106
0.130423
0.131609
0.132662
0.133582
0.134367
0.13502
0.135542
0.135936
0.136207
0.136359
0.136401
0.136338
0.136178
0.135931
0.135606
0.135211
0.134757
0.134253
0.133708
0.133131
0.13253
0.131911
0.131284
0.130656
0.129979
0.129206
0.00274317
0.00242026
0.00213555
0.00187012
0.0016036
0.00133825
0.00107655
0.000819425
0.000567834
0.000322812
8.53285e-05
-0.000143727
-0.00036354
-0.000573391
-0.000772663
-0.000960837
-0.00113748
-0.00130223
-0.00145479
-0.00159497
-0.0017226
-0.00183755
-0.00193974
-0.00202911
-0.00210563
-0.00216929
-0.00222007
-0.00225797
-0.00228294
-0.00229495
-0.00229396
-0.00227989
-0.00225265
-0.00221209
-0.00215808
-0.00209047
-0.00200906
-0.00191368
-0.00180411
-0.00168013
-0.00154148
-0.00138794
-0.00121924
-0.00103507
-0.000835135
-0.000619071
-0.000386513
-0.000137087
0.000129583
0.000413887
0.000716241
0.00103708
0.00137687
0.00173607
0.00211514
0.00251459
0.00293493
0.00337669
0.00384044
0.00432677
0.00483628
0.00536958
0.00592729
0.00651007
0.00711859
0.00775356
0.00841572
0.0091058
0.00982455
0.0105727
0.0113512
0.0121606
0.013002
0.013876
0.0147837
0.0157259
0.0167035
0.0177173
0.0187685
0.0198578
0.0209862
0.0221547
0.0233643
0.0246159
0.0259104
0.0272488
0.028632
0.0300608
0.031536
0.0330585
0.034629
0.0362482
0.0379167
0.039635
0.0414036
0.0432228
0.0450928
0.0470136
0.0489852
0.0510073
0.0530795
0.055201
0.0573711
0.0595885
0.0618519
0.0641594
0.066509
0.0688984
0.0713249
0.0737853
0.0762763
0.0787939
0.0813338
0.0838915
0.0864618
0.0890392
0.0916177
0.094191
0.0967524
0.0992948
0.101811
0.104293
0.106733
0.109123
0.111455
0.113721
0.115912
0.118021
0.12004
0.12196
0.123776
0.125481
0.127068
0.128533
0.129871
0.131078
0.132153
0.133093
0.133898
0.134569
0.135108
0.135517
0.135802
0.135966
0.136015
0.135958
0.135801
0.135552
0.135221
0.134816
0.134347
0.133823
0.133252
0.132642
0.132001
0.131335
0.130653
0.129962
0.129206
0.128332
0.00314336
0.0027702
0.0024471
0.00215174
0.00185964
0.00157289
0.00129383
0.00102296
0.000760798
0.000507994
0.000265152
3.2815e-05
-0.000188536
-0.000398489
-0.000596703
-0.0007829
-0.000956862
-0.00111843
-0.00126749
-0.00140398
-0.00152786
-0.00163911
-0.00173774
-0.00182377
-0.00189723
-0.00195814
-0.00200651
-0.00204235
-0.00206565
-0.00207636
-0.00207445
-0.00205981
-0.00203233
-0.00199188
-0.00193829
-0.00187138
-0.00179097
-0.00169683
-0.00158873
-0.00146643
-0.00132967
-0.0011782
-0.00101173
-0.000829941
-0.000632496
-0.000419036
-0.00018919
5.74224e-05
0.000321182
0.00060249
0.000901771
0.00121947
0.00155603
0.00191191
0.00228757
0.00268351
0.00310022
0.00353823
0.00399809
0.00448038
0.00498566
0.00551453
0.00606759
0.00664547
0.00724882
0.00787833
0.0085347
0.00921863
0.00993084
0.0106721
0.0114431
0.0122446
0.0130775
0.0139426
0.0148408
0.0157728
0.0167395
0.0177419
0.0187807
0.019857
0.0209717
0.0221256
0.0233198
0.0245552
0.0258327
0.0271531
0.0285175
0.0299266
0.0313813
0.0328824
0.0344306
0.0360268
0.0376716
0.0393655
0.041109
0.0429026
0.0447464
0.0466407
0.0485854
0.0505804
0.0526254
0.0547198
0.0568629
0.0590536
0.0612907
0.0635727
0.0658975
0.0682631
0.0706668
0.0731058
0.0755768
0.0780761
0.0805996
0.0831428
0.0857006
0.0882678
0.0908385
0.0934064
0.095965
0.0985072
0.101026
0.103513
0.10596
0.108361
0.110705
0.112986
0.115195
0.117323
0.119362
0.121306
0.123145
0.124875
0.126488
0.127979
0.129343
0.130576
0.131676
0.13264
0.133468
0.13416
0.134718
0.135145
0.135443
0.135618
0.135676
0.135622
0.135466
0.135213
0.134874
0.134456
0.133968
0.13342
0.132819
0.132174
0.13149
0.130774
0.130035
0.129281
0.128448
0.127478
0.00353708
0.00311384
0.00275211
0.00242627
0.00210782
0.00179871
0.00150121
0.00121542
0.000941452
0.000679596
0.000430115
0.000193221
-3.09211e-05
-0.000242191
-0.000440507
-0.000625826
-0.000798147
-0.00095751
-0.00110398
-0.00123763
-0.00135854
-0.00146681
-0.00156254
-0.00164584
-0.00171678
-0.00177543
-0.00182184
-0.00185604
-0.00187803
-0.00188779
-0.00188525
-0.00187032
-0.00184287
-0.00180275
-0.00174979
-0.00168381
-0.00160457
-0.00151185
-0.00140539
-0.00128495
-0.00115025
-0.00100102
-0.000836941
-0.000657689
-0.000462907
-0.00025223
-2.52828e-05
0.000218317
0.000478963
0.000757062
0.00105305
0.00136735
0.00170043
0.00205272
0.00242467
0.00281676
0.0032295
0.0036634
0.00411898
0.0045968
0.0050974
0.00562135
0.00616924
0.00674165
0.00733924
0.00796265
0.00861254
0.0092896
0.00999451
0.010728
0.0114907
0.0122834
0.013107
0.0139621
0.0148496
0.0157703
0.0167251
0.0177147
0.0187401
0.0198022
0.0209018
0.0220398
0.0232173
0.024435
0.0256939
0.026995
0.028339
0.029727
0.0311596
0.0326378
0.0341624
0.0357341
0.0373537
0.0390218
0.0407389
0.0425055
0.0443219
0.0461884
0.0481052
0.0500722
0.0520891
0.0541557
0.0562712
0.0584348
0.0606455
0.0629017
0.0652019
0.067544
0.0699255
0.0723439
0.074796
0.0772782
0.0797868
0.0823172
0.0848648
0.0874242
0.0899897
0.0925552
0.0951142
0.0976596
0.100184
0.10268
0.10514
0.107555
0.109917
0.112218
0.114449
0.116601
0.118667
0.120639
0.122508
0.124268
0.125912
0.127434
0.128829
0.130093
0.131222
0.132215
0.133069
0.133786
0.134366
0.134811
0.135125
0.135312
0.135378
0.135328
0.135171
0.134913
0.134564
0.13413
0.133622
0.133047
0.132413
0.131729
0.131
0.130233
0.129437
0.12862
0.127712
0.126651
0.00391895
0.00344597
0.00304559
0.00268894
0.00234363
0.00201149
0.00169472
0.00139308
0.00110632
0.000834379
0.000577195
0.000334665
0.000106655
-0.000106983
-0.000306419
-0.000491842
-0.00066347
-0.000821532
-0.00096625
-0.00109784
-0.00121653
-0.00132251
-0.00141599
-0.00149714
-0.00156611
-0.001623
-0.00166791
-0.00170089
-0.00172196
-0.00173111
-0.00172826
-0.00171332
-0.00168616
-0.00164662
-0.00159453
-0.00152966
-0.00145179
-0.00136067
-0.00125603
-0.00113761
-0.00100512
-0.000858278
-0.000696745
-0.000520172
-0.000328199
-0.000120459
0.000103428
0.000343853
0.000601217
0.000875934
0.00116843
0.00147915
0.00180852
0.00215698
0.00252496
0.00291295
0.00332143
0.0037509
0.00420186
0.00467483
0.00517034
0.00568893
0.00623117
0.00679762
0.00738889
0.0080056
0.0086484
0.0093179
0.0100148
0.0107397
0.0114933
0.0122764
0.0130897
0.0139339
0.0148098
0.0157181
0.0166598
0.0176356
0.0186463
0.0196929
0.0207761
0.021897
0.0230563
0.024255
0.0254939
0.0267741
0.0280964
0.0294616
0.0308707
0.0323245
0.0338239
0.0353696
0.0369626
0.0386033
0.0402925
0.0420307
0.0438184
0.045656
0.0475436
0.0494814
0.0514693
0.053507
0.0555942
0.0577301
0.0599138
0.062144
0.0644193
0.0667379
0.0690975
0.0714957
0.0739296
0.0763958
0.0788905
0.0814097
0.0839486
0.0865022
0.0890648
0.0916305
0.0941927
0.0967446
0.0992789
0.101788
0.104264
0.106698
0.109082
0.111407
0.113665
0.115848
0.117945
0.11995
0.121854
0.12365
0.12533
0.126889
0.12832
0.129619
0.130783
0.131808
0.132693
0.133438
0.134043
0.13451
0.134841
0.135042
0.135117
0.135072
0.134914
0.134651
0.13429
0.133839
0.133308
0.132705
0.132037
0.131312
0.130537
0.129717
0.128864
0.127984
0.127004
0.125855
0.00428397
0.00376172
0.0033228
0.0029352
0.0025627
0.00220706
0.00187043
0.00155223
0.0012519
0.000969035
0.000703269
0.000454198
0.000221416
4.50993e-06
-0.000196936
-0.000383341
-0.000555125
-0.000712696
-0.000856435
-0.000986707
-0.00110386
-0.00120821
-0.00130006
-0.00137964
-0.00144716
-0.00150279
-0.00154665
-0.00157884
-0.00159938
-0.00160826
-0.00160542
-0.00159076
-0.00156416
-0.00152546
-0.00147445
-0.00141091
-0.00133459
-0.00124523
-0.00114256
-0.00102632
-0.000896188
-0.000751858
-0.000592985
-0.000419209
-0.000230166
-2.54846e-05
0.00019522
0.000432347
0.000686304
0.000957508
0.00124638
0.00155336
0.00187885
0.00222329
0.00258711
0.00297078
0.00337475
0.00379952
0.00424557
0.00471337
0.00520344
0.00571629
0.00625245
0.00681248
0.00739695
0.00800643
0.00864155
0.00930288
0.00999105
0.0107067
0.0114505
0.0122231
0.0130252
0.0138576
0.0147209
0.015616
0.0165435
0.0175043
0.0184992
0.019529
0.0205947
0.021697
0.0228368
0.0240151
0.0252327
0.0264905
0.0277895
0.0291305
0.0305144
0.0319423
0.0334149
0.0349332
0.0364979
0.0381098
0.0397696
0.041478
0.0432355
0.0450426
0.0468997
0.0488071
0.0507647
0.0527726
0.0548305
0.0569378
0.0590937
0.0612974
0.0635475
0.0658423
0.0681799
0.0705581
0.072974
0.0754247
0.0779065
0.0804155
0.0829471
0.0854965
0.0880581
0.0906261
0.0931941
0.0957552
0.0983022
0.100827
0.103323
0.10578
0.10819
0.110545
0.112835
0.115052
0.117186
0.11923
0.121174
0.123011
0.124734
0.126334
0.127807
0.129147
0.130351
0.131413
0.132333
0.13311
0.133744
0.134235
0.134588
0.134804
0.13489
0.134851
0.134693
0.134424
0.134051
0.133583
0.133029
0.132395
0.131692
0.130926
0.130103
0.129231
0.12832
0.127379
0.126328
0.125094
0.00462739
0.00405644
0.00357923
0.00316066
0.00276079
0.00238136
0.00202444
0.00168917
0.00137465
0.0010802
0.000805143
0.000548791
0.000310476
8.95327e-05
-0.000114697
-0.000302852
-0.000475542
-0.000633346
-0.000776809
-0.000906441
-0.00102272
-0.00112607
-0.00121686
-0.00129541
-0.001362
-0.00141685
-0.00146012
-0.00149192
-0.0015123
-0.00152125
-0.00151873
-0.00150466
-0.00147889
-0.00144125
-0.00139153
-0.00132949
-0.00125489
-0.00116746
-0.00106691
-0.000952965
-0.000825297
-0.000683577
-0.000527454
-0.000356561
-0.000170533
3.10073e-05
0.000248451
0.000482204
0.000732677
0.00100028
0.00128544
0.00158857
0.00191007
0.00225036
0.00260987
0.00298905
0.00338834
0.00380821
0.00424909
0.00471146
0.0051958
0.00570258
0.00623232
0.00678553
0.00736276
0.00796454
0.00859145
0.00924405
0.00992292
0.0106287
0.0113619
0.0121233
0.0129135
0.0137331
0.014583
0.0154637
0.0163761
0.0173209
0.0182988
0.0193108
0.0203576
0.02144
0.0225591
0.0237156
0.0249104
0.0261444
0.0274186
0.0287339
0.0300912
0.0314916
0.0329359
0.034425
0.0359599
0.0375414
0.0391702
0.0408472
0.0425729
0.0443482
0.0461733
0.0480488
0.0499749
0.0519517
0.0539791
0.0560567
0.0581841
0.0603603
0.0625844
0.064855
0.0671703
0.0695282
0.0719263
0.0743617
0.0768311
0.0793305
0.0818558
0.0844022
0.0869643
0.0895365
0.0921123
0.0946851
0.0972475
0.0997919
0.10231
0.104794
0.107235
0.109623
0.11195
0.114206
0.116382
0.11847
0.12046
0.122344
0.124114
0.125762
0.127282
0.128669
0.129917
0.131022
0.131983
0.132796
0.133463
0.133983
0.134359
0.134595
0.134694
0.134662
0.134506
0.134232
0.133848
0.133363
0.132784
0.132121
0.131381
0.130573
0.129703
0.128778
0.127809
0.126808
0.125687
0.124371
0.00494474
0.00432567
0.0038105
0.00336105
0.00293378
0.00253037
0.0021529
0.00180019
0.00147104
0.00116448
0.000879566
0.000615336
0.000370859
0.000145224
-6.24543e-05
-0.000253021
-0.000427272
-0.000585957
-0.000729781
-0.000859398
-0.0009754
-0.00107831
-0.00116859
-0.00124664
-0.00131279
-0.00136731
-0.00141041
-0.00144221
-0.00146278
-0.00147214
-0.00147026
-0.00145703
-0.00143233
-0.00139596
-0.00134772
-0.00128737
-0.00121463
-0.00112925
-0.00103094
-0.00091938
-0.000794247
-0.000655199
-0.000501878
-0.000333917
-0.000150944
4.74206e-05
0.000261576
0.000491931
0.000738894
0.00100287
0.00128427
0.0015835
0.00190095
0.00223702
0.00259214
0.00296673
0.00336121
0.00377602
0.00421157
0.00466831
0.00514668
0.00564714
0.00617016
0.00671623
0.00728584
0.00787951
0.00849777
0.00914113
0.00981015
0.0105054
0.0112274
0.0119769
0.0127544
0.0135606
0.0143961
0.0152616
0.0161579