/*--------------------------------*- C++ -*----------------------------------*\
  =========                 |
  \\      /  F ield         | OpenFOAM: The Open Source CFD Toolbox
   \\    /   O peration     | Website:  https://openfoam.org
    \\  /    A nd           | Version:  7
     \\/     M anipulation  |
\*---------------------------------------------------------------------------*/
FoamFile
{
    version     2.0;
    format      ascii;
    class       surfaceScalarField;
    location    "0.175";
    object      phi;
}
// * * * * * * * * * * * * * * * * * * * * * * * * * * * * * * * * * * * * * //

dimensions      [0 3 -1 0 0 0 0];

internalField   nonuniform List<scalar> 
25360
(
5.73765e-11
-5.66312e-11
2.04327e-10
-1.46956e-10
3.72986e-10
-1.68654e-10
5.13639e-10
-1.40654e-10
5.97557e-10
-8.39352e-11
6.08953e-10
-1.14059e-11
5.40141e-10
6.88145e-11
3.88619e-10
1.51531e-10
1.55176e-10
2.33442e-10
-1.57302e-10
3.12472e-10
-5.44631e-10
3.87322e-10
-1.00183e-09
4.57198e-10
-1.5235e-09
5.21664e-10
-2.10403e-09
5.8053e-10
-2.73781e-09
6.33785e-10
-3.41936e-09
6.81551e-10
-4.14339e-09
7.24032e-10
-4.90487e-09
7.61481e-10
-5.69907e-09
7.94199e-10
-6.52159e-09
8.2252e-10
-7.36839e-09
8.46791e-10
-8.23575e-09
8.67361e-10
-9.12033e-09
8.84577e-10
-1.00191e-08
8.98778e-10
-1.09294e-08
9.1029e-10
-1.18488e-08
9.1942e-10
-1.27753e-08
9.26462e-10
-1.3707e-08
9.31693e-10
-1.46423e-08
9.35365e-10
-1.558e-08
9.37714e-10
-1.6519e-08
9.38958e-10
-1.74583e-08
9.39292e-10
-1.83972e-08
9.38894e-10
-1.93351e-08
9.37926e-10
-2.02716e-08
9.36536e-10
-2.12065e-08
9.34848e-10
-2.21395e-08
9.32975e-10
-2.30705e-08
9.31016e-10
-2.39995e-08
9.29063e-10
-2.49267e-08
9.27195e-10
-2.58522e-08
9.25479e-10
-2.67762e-08
9.23981e-10
-2.76989e-08
9.22753e-10
-2.86208e-08
9.21841e-10
-2.95421e-08
9.21285e-10
-3.04632e-08
9.2112e-10
-3.13846e-08
9.21377e-10
-3.23066e-08
9.22079e-10
-3.32299e-08
9.23249e-10
-3.41548e-08
9.24906e-10
-3.50819e-08
9.27065e-10
-3.60116e-08
9.29737e-10
-3.69445e-08
9.32933e-10
-3.78812e-08
9.3666e-10
-3.88221e-08
9.40922e-10
-3.97678e-08
9.45721e-10
-4.07189e-08
9.51056e-10
-4.16758e-08
9.56918e-10
-4.26391e-08
9.63297e-10
-4.36093e-08
9.70182e-10
-4.45868e-08
9.77554e-10
-4.55722e-08
9.85394e-10
-4.65659e-08
9.93675e-10
-4.75683e-08
1.00237e-09
-4.85797e-08
1.01144e-09
-4.96005e-08
1.02086e-09
-5.06311e-08
1.03056e-09
-5.16716e-08
1.04051e-09
-5.27223e-08
1.05065e-09
-5.37832e-08
1.06092e-09
-5.48544e-08
1.07123e-09
-5.59359e-08
1.08153e-09
-5.70276e-08
1.09171e-09
-5.81293e-08
1.10169e-09
-5.92407e-08
1.11136e-09
-6.03613e-08
1.12061e-09
-6.14906e-08
1.12933e-09
-6.2628e-08
1.13738e-09
-6.37726e-08
1.14463e-09
-6.49236e-08
1.15094e-09
-6.60797e-08
1.15614e-09
-6.72398e-08
1.16009e-09
-6.84024e-08
1.1626e-09
-6.95659e-08
1.16349e-09
-7.07285e-08
1.16257e-09
-7.18881e-08
1.15964e-09
-7.30426e-08
1.15449e-09
-7.41895e-08
1.1469e-09
-7.53261e-08
1.13665e-09
-7.64496e-08
1.1235e-09
-7.75568e-08
1.10721e-09
-7.86444e-08
1.08756e-09
-7.97087e-08
1.06428e-09
-8.07458e-08
1.03715e-09
-8.17517e-08
1.0059e-09
-8.2722e-08
9.70288e-10
-8.36521e-08
9.30084e-10
-8.45371e-08
8.85049e-10
-8.53721e-08
8.34959e-10
-8.61517e-08
7.796e-10
-8.68705e-08
7.18775e-10
-8.75228e-08
6.52302e-10
-8.81028e-08
5.80021e-10
-8.86046e-08
5.01798e-10
-8.90221e-08
4.17532e-10
-8.93493e-08
3.27153e-10
-8.95799e-08
2.30633e-10
-8.97079e-08
1.27987e-10
-8.97272e-08
1.9277e-11
-8.96318e-08
-9.53851e-11
-8.9416e-08
-2.15826e-10
-8.90742e-08
-3.41814e-10
-8.86011e-08
-4.73054e-10
-8.79919e-08
-6.0918e-10
-8.72422e-08
-7.49757e-10
-8.63479e-08
-8.94274e-10
-8.53058e-08
-1.04215e-09
-8.41131e-08
-1.19271e-09
-8.27679e-08
-1.34521e-09
-8.1269e-08
-1.49884e-09
-7.96163e-08
-1.65271e-09
-7.78105e-08
-1.80584e-09
-7.58533e-08
-1.95721e-09
-7.37475e-08
-2.10572e-09
-7.14973e-08
-2.25022e-09
-6.91078e-08
-2.38953e-09
-6.65854e-08
-2.52241e-09
-6.39378e-08
-2.64762e-09
-6.11739e-08
-2.76388e-09
-5.83039e-08
-2.86995e-09
-5.53393e-08
-2.96457e-09
-5.22928e-08
-3.04655e-09
-4.91781e-08
-3.11472e-09
-4.60101e-08
-3.16799e-09
-4.28048e-08
-3.20533e-09
-3.95789e-08
-3.22583e-09
-3.63503e-08
-3.22867e-09
-3.31371e-08
-3.21317e-09
-2.99583e-08
-3.17876e-09
-2.68333e-08
-3.12504e-09
-2.37815e-08
-3.05174e-09
-2.08228e-08
-2.95875e-09
-1.79767e-08
-2.84611e-09
-1.52626e-08
-2.71405e-09
-1.26997e-08
-2.56295e-09
-1.03064e-08
-2.39333e-09
-8.10045e-09
-2.20592e-09
-6.09883e-09
-2.00162e-09
-4.31728e-09
-1.78155e-09
-2.77019e-09
-1.54709e-09
-1.47019e-09
-1.29999e-09
-4.27626e-10
-1.04256e-09
3.50351e-10
-7.77975e-10
8.61195e-10
-5.10845e-10
1.10945e-09
-2.48254e-10
1.11149e-09
-2.03316e-12
9.02099e-10
2.09392e-10
5.49582e-10
3.52518e-10
1.80668e-10
3.68913e-10
1.80668e-10
1.47856e-10
-2.04493e-10
4.16384e-10
-4.15482e-10
6.88855e-10
-4.41135e-10
8.79231e-10
-3.31008e-10
9.27251e-10
-1.31941e-10
7.94625e-10
1.21217e-10
4.59561e-10
4.03867e-10
-8.77603e-11
6.98853e-10
-8.4872e-10
9.9441e-10
-1.81882e-09
1.28258e-09
-2.98954e-09
1.55805e-09
-4.34969e-09
1.81735e-09
-5.88644e-09
2.05841e-09
-7.586e-09
2.28008e-09
-9.43419e-09
2.48197e-09
-1.14168e-08
2.66418e-09
-1.352e-08
2.82722e-09
-1.57304e-08
2.97186e-09
-1.80352e-08
3.09904e-09
-2.04226e-08
3.20986e-09
-2.28813e-08
3.3055e-09
-2.54011e-08
3.38716e-09
-2.79726e-08
3.45609e-09
-3.05873e-08
3.51348e-09
-3.32375e-08
3.56051e-09
-3.59165e-08
3.59833e-09
-3.8618e-08
3.62801e-09
-4.13369e-08
3.65058e-09
-4.40685e-08
3.66697e-09
-4.68089e-08
3.67808e-09
-4.95547e-08
3.68473e-09
-5.2303e-08
3.68766e-09
-5.50517e-08
3.68756e-09
-5.77988e-08
3.68504e-09
-6.05429e-08
3.68066e-09
-6.3283e-08
3.67493e-09
-6.60183e-08
3.66829e-09
-6.87485e-08
3.66114e-09
-7.14732e-08
3.65385e-09
-7.41928e-08
3.64672e-09
-7.69073e-08
3.64003e-09
-7.96174e-08
3.63404e-09
-8.23236e-08
3.62894e-09
-8.50267e-08
3.62494e-09
-8.77276e-08
3.62219e-09
-9.04273e-08
3.62084e-09
-9.31269e-08
3.62102e-09
-9.58277e-08
3.62283e-09
-9.85308e-08
3.62636e-09
-1.01238e-07
3.63168e-09
-1.03949e-07
3.63886e-09
-1.06668e-07
3.64796e-09
-1.09394e-07
3.659e-09
-1.12129e-07
3.67201e-09
-1.14875e-07
3.68702e-09
-1.17633e-07
3.70402e-09
-1.20405e-07
3.723e-09
-1.23192e-07
3.74393e-09
-1.25996e-07
3.76678e-09
-1.28817e-07
3.7915e-09
-1.31658e-07
3.81801e-09
-1.34518e-07
3.84623e-09
-1.37401e-07
3.87606e-09
-1.40306e-07
3.90737e-09
-1.43234e-07
3.94004e-09
-1.46187e-07
3.9739e-09
-1.49166e-07
4.00877e-09
-1.5217e-07
4.04444e-09
-1.552e-07
4.0807e-09
-1.58256e-07
4.11728e-09
-1.61339e-07
4.15392e-09
-1.64447e-07
4.19029e-09
-1.67582e-07
4.22607e-09
-1.70741e-07
4.26088e-09
-1.73924e-07
4.29433e-09
-1.77129e-07
4.32599e-09
-1.80355e-07
4.35539e-09
-1.836e-07
4.38203e-09
-1.86861e-07
4.40541e-09
-1.90135e-07
4.42494e-09
-1.93419e-07
4.44004e-09
-1.96709e-07
4.45007e-09
-2.00001e-07
4.45437e-09
-2.03289e-07
4.45224e-09
-2.0657e-07
4.44295e-09
-2.09836e-07
4.42574e-09
-2.13081e-07
4.39981e-09
-2.16299e-07
4.36434e-09
-2.1948e-07
4.31848e-09
-2.22618e-07
4.26137e-09
-2.25703e-07
4.19211e-09
-2.28725e-07
4.10981e-09
-2.31675e-07
4.01356e-09
-2.3454e-07
3.90244e-09
-2.3731e-07
3.77556e-09
-2.39971e-07
3.63201e-09
-2.42512e-07
3.47092e-09
-2.44919e-07
3.29144e-09
-2.47176e-07
3.09276e-09
-2.49271e-07
2.87412e-09
-2.51187e-07
2.63481e-09
-2.52909e-07
2.37422e-09
-2.54421e-07
2.09181e-09
-2.55706e-07
1.78712e-09
-2.56748e-07
1.45985e-09
-2.57531e-07
1.10981e-09
-2.58037e-07
7.36955e-10
-2.58251e-07
3.41411e-10
-2.58155e-07
-7.65138e-11
-2.57734e-07
-5.1632e-10
-2.56972e-07
-9.77293e-10
-2.55856e-07
-1.45849e-09
-2.5437e-07
-1.95874e-09
-2.52503e-07
-2.4766e-09
-2.50242e-07
-3.01038e-09
-2.47578e-07
-3.55811e-09
-2.44503e-07
-4.11755e-09
-2.41009e-07
-4.68616e-09
-2.37093e-07
-5.26114e-09
-2.32753e-07
-5.83941e-09
-2.27988e-07
-6.41762e-09
-2.22802e-07
-6.99217e-09
-2.172e-07
-7.5592e-09
-2.11191e-07
-8.11467e-09
-2.04787e-07
-8.65433e-09
-1.98002e-07
-9.17378e-09
-1.90856e-07
-9.66849e-09
-1.8337e-07
-1.01339e-08
-1.75569e-07
-1.05653e-08
-1.6748e-07
-1.09581e-08
-1.59137e-07
-1.13078e-08
-1.50574e-07
-1.161e-08
-1.41828e-07
-1.18605e-08
-1.32941e-07
-1.20552e-08
-1.23956e-07
-1.21904e-08
-1.14919e-07
-1.22629e-08
-1.05878e-07
-1.22697e-08
-9.68826e-08
-1.22082e-08
-8.79847e-08
-1.20766e-08
-7.92365e-08
-1.18733e-08
-7.06907e-08
-1.15975e-08
-6.24006e-08
-1.12488e-08
-5.44191e-08
-1.08276e-08
-4.67983e-08
-1.03348e-08
-3.95892e-08
-9.77208e-09
-3.28408e-08
-9.14165e-09
-2.66002e-08
-8.44658e-09
-2.09111e-08
-7.69073e-09
-1.58137e-08
-6.87895e-09
-1.13435e-08
-6.01731e-09
-7.52994e-09
-5.11353e-09
-4.39489e-09
-4.17762e-09
-1.94979e-09
-3.22308e-09
-1.91983e-10
-2.26865e-09
9.01144e-10
-1.34138e-09
1.3804e-09
-4.81295e-10
1.33837e-09
2.51419e-10
9.25141e-10
7.65749e-10
3.6752e-10
9.26533e-10
5.48188e-10
1.70063e-10
-3.7455e-10
4.43884e-10
-6.89307e-10
6.7525e-10
-6.72518e-10
7.60376e-10
-4.16145e-10
6.24086e-10
4.35949e-12
2.15838e-10
5.29471e-10
-4.95279e-10
1.11498e-09
-1.52474e-09
1.7283e-09
-2.87643e-09
2.34609e-09
-4.54568e-09
2.95183e-09
-6.52167e-09
3.53403e-09
-8.78925e-09
4.08493e-09
-1.13304e-08
4.59956e-09
-1.41253e-08
5.07501e-09
-1.71533e-08
5.50995e-09
-2.03933e-08
5.9042e-09
-2.38245e-08
6.25845e-09
-2.74267e-08
6.57403e-09
-3.11804e-08
6.85274e-09
-3.50672e-08
7.09667e-09
-3.90699e-08
7.30816e-09
-4.31724e-08
7.48966e-09
-4.736e-08
7.64366e-09
-5.16192e-08
7.77266e-09
-5.59378e-08
7.87911e-09
-6.03048e-08
7.9654e-09
-6.47106e-08
8.0338e-09
-6.91465e-08
8.08646e-09
-7.36049e-08
8.12543e-09
-7.80795e-08
8.1526e-09
-8.25644e-08
8.16971e-09
-8.70552e-08
8.1784e-09
-9.15478e-08
8.18014e-09
-9.6039e-08
8.17628e-09
-1.00526e-07
8.16804e-09
-1.05008e-07
8.15653e-09
-1.09482e-07
8.14274e-09
-1.13949e-07
8.12755e-09
-1.18407e-07
8.11175e-09
-1.22856e-07
8.09605e-09
-1.27297e-07
8.08108e-09
-1.3173e-07
8.06739e-09
-1.36157e-07
8.05545e-09
-1.40578e-07
8.0457e-09
-1.44994e-07
8.03852e-09
-1.49407e-07
8.03422e-09
-1.5382e-07
8.03309e-09
-1.58232e-07
8.03537e-09
-1.62647e-07
8.04128e-09
-1.67066e-07
8.05098e-09
-1.71492e-07
8.06462e-09
-1.75926e-07
8.08231e-09
-1.80372e-07
8.10415e-09
-1.8483e-07
8.13018e-09
-1.89303e-07
8.16043e-09
-1.93794e-07
8.19492e-09
-1.98305e-07
8.23362e-09
-2.02837e-07
8.27646e-09
-2.07394e-07
8.32335e-09
-2.11976e-07
8.37419e-09
-2.16587e-07
8.42879e-09
-2.21228e-07
8.48699e-09
-2.259e-07
8.54854e-09
-2.30606e-07
8.61317e-09
-2.35347e-07
8.68057e-09
-2.40123e-07
8.75038e-09
-2.44937e-07
8.82219e-09
-2.49788e-07
8.89555e-09
-2.54677e-07
8.96995e-09
-2.59605e-07
9.04482e-09
-2.6457e-07
9.11954e-09
-2.69573e-07
9.19342e-09
-2.74613e-07
9.26572e-09
-2.79688e-07
9.33563e-09
-2.84796e-07
9.40226e-09
-2.89934e-07
9.46467e-09
-2.95101e-07
9.52184e-09
-3.00291e-07
9.5727e-09
-3.05502e-07
9.61607e-09
-3.10728e-07
9.65073e-09
-3.15963e-07
9.67538e-09
-3.21202e-07
9.68864e-09
-3.26436e-07
9.68907e-09
-3.31659e-07
9.67514e-09
-3.36862e-07
9.64528e-09
-3.42034e-07
9.59784e-09
-3.47165e-07
9.5311e-09
-3.52244e-07
9.44329e-09
-3.57258e-07
9.3326e-09
-3.62194e-07
9.19717e-09
-3.67037e-07
9.03511e-09
-3.71772e-07
8.84451e-09
-3.76382e-07
8.62343e-09
-3.80849e-07
8.36994e-09
-3.85156e-07
8.08214e-09
-3.89282e-07
7.75814e-09
-3.93207e-07
7.39611e-09
-3.9691e-07
6.99429e-09
-4.00368e-07
6.551e-09
-4.03559e-07
6.06468e-09
-4.06458e-07
5.53391e-09
-4.09041e-07
4.95742e-09
-4.11283e-07
4.33417e-09
-4.13159e-07
3.66331e-09
-4.14644e-07
2.94425e-09
-4.15711e-07
2.17671e-09
-4.16334e-07
1.36071e-09
-4.1649e-07
4.96633e-10
-4.16151e-07
-4.14747e-10
-4.15296e-07
-1.37224e-09
-4.13899e-07
-2.37421e-09
-4.11939e-07
-3.41854e-09
-4.09395e-07
-4.50258e-09
-4.06248e-07
-5.62317e-09
-4.02482e-07
-6.7766e-09
-3.98081e-07
-7.95858e-09
-3.93035e-07
-9.16423e-09
-3.87333e-07
-1.03881e-08
-3.8097e-07
-1.16242e-08
-3.73943e-07
-1.28658e-08
-3.66255e-07
-1.41059e-08
-3.57911e-07
-1.53366e-08
-3.4892e-07
-1.655e-08
-3.39297e-07
-1.77373e-08
-3.29062e-07
-1.88896e-08
-3.18238e-07
-1.99975e-08
-3.06855e-07
-2.10515e-08
-2.94947e-07
-2.2042e-08
-2.82553e-07
-2.29591e-08
-2.69718e-07
-2.37933e-08
-2.56491e-07
-2.45348e-08
-2.42927e-07
-2.51746e-08
-2.29083e-07
-2.57037e-08
-2.15025e-07
-2.61138e-08
-2.00818e-07
-2.63971e-08
-1.86534e-07
-2.65468e-08
-1.72247e-07
-2.65565e-08
-1.58034e-07
-2.64213e-08
-1.43974e-07
-2.6137e-08
-1.30146e-07
-2.57006e-08
-1.16634e-07
-2.51104e-08
-1.03517e-07
-2.43659e-08
-9.08762e-08
-2.34679e-08
-7.87923e-08
-2.24188e-08
-6.73422e-08
-2.12222e-08
-5.66002e-08
-1.98836e-08
-4.66369e-08
-1.84099e-08
-3.75176e-08
-1.681e-08
-2.93012e-08
-1.50954e-08
-2.20387e-08
-1.32799e-08
-1.57709e-08
-1.13813e-08
-1.0526e-08
-9.4225e-09
-6.31569e-09
-7.43338e-09
-3.13016e-09
-5.45418e-09
-9.31244e-10
-3.54029e-09
3.56879e-10
-1.76941e-09
8.60042e-10
-2.51745e-10
7.68147e-10
8.57646e-10
3.51164e-10
1.34352e-09
8.99354e-10
1.43271e-10
-5.17825e-10
3.35805e-10
-8.8182e-10
4.20867e-10
-7.5759e-10
2.87155e-10
-2.82445e-10
-1.46123e-10
4.37633e-10
-9.34958e-10
1.31832e-09
-2.1144e-09
2.29443e-09
-3.70288e-09
3.31679e-09
-5.7057e-09
4.34891e-09
-8.11804e-09
5.36416e-09
-1.09275e-08
6.34345e-09
-1.4116e-08
7.27349e-09
-1.76619e-08
8.14544e-09
-2.15408e-08
8.95389e-09
-2.57269e-08
9.69603e-09
-3.01937e-08
1.0371e-08
-3.49149e-08
1.09796e-08
-3.98644e-08
1.15236e-08
-4.50174e-08
1.20057e-08
-5.03498e-08
1.24291e-08
-5.58393e-08
1.27976e-08
-6.14646e-08
1.3115e-08
-6.72065e-08
1.33855e-08
-7.30469e-08
1.36131e-08
-7.89697e-08
1.38019e-08
-8.49601e-08
1.39558e-08
-9.10051e-08
1.40787e-08
-9.70928e-08
1.41742e-08
-1.03213e-07
1.42457e-08
-1.09357e-07
1.42964e-08
-1.15517e-07
1.43294e-08
-1.21685e-07
1.43473e-08
-1.27858e-07
1.43528e-08
-1.3403e-07
1.43482e-08
-1.40197e-07
1.43355e-08
-1.46358e-07
1.43167e-08
-1.52508e-07
1.42935e-08
-1.58648e-07
1.42674e-08
-1.64776e-07
1.424e-08
-1.70893e-07
1.42123e-08
-1.76997e-07
1.41855e-08
-1.8309e-07
1.41605e-08
-1.89173e-07
1.41383e-08
-1.95247e-07
1.41196e-08
-2.01313e-07
1.4105e-08
-2.07374e-07
1.40951e-08
-2.13432e-07
1.40905e-08
-2.19488e-07
1.40916e-08
-2.25545e-07
1.40987e-08
-2.31607e-07
1.41122e-08
-2.37674e-07
1.41323e-08
-2.43751e-07
1.41593e-08
-2.4984e-07
1.41932e-08
-2.55944e-07
1.42342e-08
-2.62066e-07
1.42823e-08
-2.68209e-07
1.43375e-08
-2.74375e-07
1.43999e-08
-2.80568e-07
1.44692e-08
-2.8679e-07
1.45453e-08
-2.93044e-07
1.4628e-08
-2.99332e-07
1.47171e-08
-3.05657e-07
1.4812e-08
-3.12021e-07
1.49126e-08
-3.18426e-07
1.50182e-08
-3.24874e-07
1.51283e-08
-3.31366e-07
1.52423e-08
-3.37903e-07
1.53595e-08
-3.44486e-07
1.54789e-08
-3.51116e-07
1.55999e-08
-3.57793e-07
1.57212e-08
-3.64515e-07
1.58419e-08
-3.71282e-07
1.59608e-08
-3.78093e-07
1.60765e-08
-3.84945e-07
1.61876e-08
-3.91835e-07
1.62926e-08
-3.9876e-07
1.63898e-08
-4.05716e-07
1.64775e-08
-4.12697e-07
1.65538e-08
-4.19698e-07
1.66166e-08
-4.26711e-07
1.66639e-08
-4.33729e-07
1.66934e-08
-4.40743e-07
1.67027e-08
-4.47743e-07
1.66894e-08
-4.54719e-07
1.66508e-08
-4.61658e-07
1.65842e-08
-4.68547e-07
1.64867e-08
-4.75371e-07
1.63556e-08
-4.82116e-07
1.61877e-08
-4.88763e-07
1.59799e-08
-4.95295e-07
1.57292e-08
-5.01692e-07
1.54323e-08
-5.07934e-07
1.50859e-08
-5.13997e-07
1.46869e-08
-5.19859e-07
1.4232e-08
-5.25495e-07
1.37179e-08
-5.30878e-07
1.31417e-08
-5.35982e-07
1.25001e-08
-5.40778e-07
1.17904e-08
-5.45237e-07
1.10097e-08
-5.49328e-07
1.01555e-08
-5.53019e-07
9.2255e-09
-5.5628e-07
8.21774e-09
-5.59076e-07
7.13052e-09
-5.61375e-07
5.96256e-09
-5.63144e-07
4.71304e-09
-5.64349e-07
3.38161e-09
-5.64957e-07
1.9685e-09
-5.64935e-07
4.74518e-10
-5.64251e-07
-1.09885e-09
-5.62873e-07
-2.74942e-09
-5.60773e-07
-4.47424e-09
-5.57922e-07
-6.26954e-09
-5.54294e-07
-8.1307e-09
-5.49865e-07
-1.00522e-08
-5.44614e-07
-1.20276e-08
-5.38523e-07
-1.40496e-08
-5.31578e-07
-1.61097e-08
-5.23767e-07
-1.81987e-08
-5.15085e-07
-2.03063e-08
-5.05529e-07
-2.24212e-08
-4.95104e-07
-2.45314e-08
-4.83817e-07
-2.66238e-08
-4.71682e-07
-2.86847e-08
-4.5872e-07
-3.06995e-08
-4.44956e-07
-3.26531e-08
-4.30424e-07
-3.453e-08
-4.15161e-07
-3.63141e-08
-3.99214e-07
-3.79892e-08
-3.82634e-07
-3.95389e-08
-3.6548e-07
-4.09472e-08
-3.47817e-07
-4.2198e-08
-3.29716e-07
-4.32759e-08
-3.11253e-07
-4.41662e-08
-2.92512e-07
-4.48549e-08
-2.7358e-07
-4.53292e-08
-2.5455e-07
-4.55774e-08
-2.35517e-07
-4.55895e-08
-2.16581e-07
-4.53568e-08
-1.97845e-07
-4.48727e-08
-1.79414e-07
-4.41322e-08
-1.61391e-07
-4.31327e-08
-1.43884e-07
-4.18736e-08
-1.26995e-07
-4.03566e-08
-1.10828e-07
-3.85859e-08
-9.54819e-08
-3.65683e-08
-8.10521e-08
-3.43134e-08
-6.76281e-08
-3.18339e-08
-5.52924e-08
-2.91457e-08
-4.41188e-08
-2.6269e-08
-3.41699e-08
-2.32288e-08
-2.54949e-08
-2.00564e-08
-1.8126e-08
-1.67913e-08
-1.20748e-08
-1.34846e-08
-7.32635e-09
-1.02026e-08
-3.83296e-09
-7.03368e-09
-1.5056e-09
-4.09677e-09
-2.03832e-10
-1.55351e-09
2.75724e-10
3.78091e-10
2.13172e-10
1.40607e-09
1.11253e-09
8.72435e-11
-6.05087e-10
1.36116e-10
-9.3068e-10
-4.43398e-12
-6.17029e-10
-4.43986e-10
1.57103e-10
-1.26283e-09
1.25646e-09
-2.51688e-09
2.57236e-09
-4.24168e-09
4.01923e-09
-6.456e-09
5.53111e-09
-9.165e-09
7.05791e-09
-1.2363e-08
8.56217e-09
-1.6036e-08
1.00164e-08
-2.01636e-08
1.14011e-08
-2.4721e-08
1.27029e-08
-2.96803e-08
1.39132e-08
-3.50116e-08
1.50273e-08
-4.0684e-08
1.60435e-08
-4.66666e-08
1.69622e-08
-5.29287e-08
1.77857e-08
-5.94407e-08
1.85176e-08
-6.61739e-08
1.91624e-08
-7.31015e-08
1.97251e-08
-8.01979e-08
2.02115e-08
-8.74397e-08
2.06273e-08
-9.48051e-08
2.09784e-08
-1.02274e-07
2.12709e-08
-1.09829e-07
2.15104e-08
-1.17453e-07
2.17027e-08
-1.25131e-07
2.1853e-08
-1.32852e-07
2.19665e-08
-1.40604e-07
2.2048e-08
-1.48376e-07
2.21019e-08
-1.56162e-07
2.21325e-08
-1.63952e-07
2.21436e-08
-1.71743e-07
2.21386e-08
-1.79528e-07
2.21208e-08
-1.87304e-07
2.20931e-08
-1.95069e-07
2.20581e-08
-2.0282e-07
2.20183e-08
-2.10556e-07
2.19756e-08
-2.18275e-07
2.19322e-08
-2.2598e-07
2.18896e-08
-2.33668e-07
2.18493e-08
-2.41343e-07
2.18128e-08
-2.49004e-07
2.17811e-08
-2.56655e-07
2.17554e-08
-2.64296e-07
2.17365e-08
-2.71931e-07
2.17252e-08
-2.79561e-07
2.17223e-08
-2.87191e-07
2.17283e-08
-2.94822e-07
2.17437e-08
-3.02459e-07
2.17689e-08
-3.10104e-07
2.18042e-08
-3.1776e-07
2.18498e-08
-3.25432e-07
2.1906e-08
-3.33123e-07
2.19727e-08
-3.40835e-07
2.20501e-08
-3.48573e-07
2.21379e-08
-3.5634e-07
2.22361e-08
-3.64139e-07
2.23443e-08
-3.71973e-07
2.24623e-08
-3.79846e-07
2.25896e-08
-3.87759e-07
2.27256e-08
-3.95716e-07
2.28696e-08
-4.03719e-07
2.30211e-08
-4.1177e-07
2.3179e-08
-4.1987e-07
2.33423e-08
-4.2802e-07
2.351e-08
-4.36222e-07
2.36808e-08
-4.44476e-07
2.38532e-08
-4.5278e-07
2.40258e-08
-4.61135e-07
2.41969e-08
-4.69539e-07
2.43645e-08
-4.77989e-07
2.45268e-08
-4.86483e-07
2.46815e-08
-4.95017e-07
2.48262e-08
-5.03585e-07
2.49585e-08
-5.12184e-07
2.50756e-08
-5.20804e-07
2.51746e-08
-5.2944e-07
2.52526e-08
-5.38083e-07
2.53063e-08
-5.46722e-07
2.53321e-08
-5.55345e-07
2.53267e-08
-5.63942e-07
2.52861e-08
-5.72498e-07
2.52064e-08
-5.80997e-07
2.50836e-08
-5.89424e-07
2.49134e-08
-5.9776e-07
2.46914e-08
-6.05985e-07
2.44131e-08
-6.14079e-07
2.40738e-08
-6.22019e-07
2.3669e-08
-6.2978e-07
2.31937e-08
-6.37338e-07
2.26432e-08
-6.44663e-07
2.20127e-08
-6.51729e-07
2.12975e-08
-6.58504e-07
2.04927e-08
-6.64956e-07
1.95938e-08
-6.71052e-07
1.85964e-08
-6.76758e-07
1.74962e-08
-6.82038e-07
1.62892e-08
-6.86854e-07
1.49719e-08
-6.91169e-07
1.35408e-08
-6.94945e-07
1.19932e-08
-6.98141e-07
1.03269e-08
-7.00719e-07
8.54002e-09
-7.02637e-07
6.63162e-09
-7.03857e-07
4.6014e-09
-7.04338e-07
2.44992e-09
-7.04043e-07
1.7862e-10
-7.02931e-07
-2.21005e-09
-7.00968e-07
-4.7126e-09
-6.98118e-07
-7.32439e-09
-6.94348e-07
-1.00396e-08
-6.89628e-07
-1.28511e-08
-6.83929e-07
-1.57505e-08
-6.77229e-07
-1.8728e-08
-6.69506e-07
-2.17725e-08
-6.60745e-07
-2.48713e-08
-6.50933e-07
-2.80106e-08
-6.40064e-07
-3.11748e-08
-6.28138e-07
-3.43473e-08
-6.1516e-07
-3.75099e-08
-6.0114e-07
-4.06433e-08
-5.86098e-07
-4.37271e-08
-5.70058e-07
-4.67397e-08
-5.53052e-07
-4.96588e-08
-5.35121e-07
-5.24613e-08
-5.16311e-07
-5.51235e-08
-4.96679e-07
-5.76214e-08
-4.76287e-07
-5.9931e-08
-4.55206e-07
-6.20285e-08
-4.33513e-07
-6.38904e-08
-4.11295e-07
-6.54939e-08
-3.88644e-07
-6.68173e-08
-3.65659e-07
-6.78401e-08
-3.42444e-07
-6.85435e-08
-3.19111e-07
-6.89104e-08
-2.95775e-07
-6.89259e-08
-2.72554e-07
-6.85775e-08
-2.49572e-07
-6.78554e-08
-2.26951e-07
-6.67526e-08
-2.04819e-07
-6.52653e-08
-1.83299e-07
-6.3393e-08
-1.62517e-07
-6.11386e-08
-1.42594e-07
-5.85087e-08
-1.23649e-07
-5.55142e-08
-1.05792e-07
-5.217e-08
-8.91302e-08
-4.84956e-08
-7.37599e-08
-4.4516e-08
-5.97665e-08
-4.02623e-08
-4.72223e-08
-3.57729e-08
-3.61834e-08
-3.10953e-08
-2.66859e-08
-2.62888e-08
-1.87425e-08
-2.14281e-08
-1.23368e-08
-1.66083e-08
-7.418e-09
-1.19525e-08
-3.89403e-09
-7.62074e-09
-1.62381e-09
-3.82373e-09
-4.09186e-10
-8.36537e-10
1.49028e-11
9.81984e-10
1.12743e-09
1.39436e-11
-6.19041e-10
-1.23587e-10
-7.93153e-10
-5.47654e-10
-1.92958e-10
-1.35916e-09
9.68618e-10
-2.63246e-09
2.52976e-09
-4.41953e-09
4.35943e-09
-6.7532e-09
6.3529e-09
-9.65022e-09
8.42813e-09
-1.3114e-08
1.05217e-08
-1.7137e-08
1.25852e-08
-2.17032e-08
1.45826e-08
-2.67899e-08
1.64878e-08
-3.23694e-08
1.82823e-08
-3.84106e-08
1.99544e-08
-4.48802e-08
2.14969e-08
-5.17438e-08
2.2907e-08
-5.89665e-08
2.41849e-08
-6.65138e-08
2.5333e-08
-7.43519e-08
2.63558e-08
-8.24484e-08
2.72589e-08
-9.07725e-08
2.80492e-08
-9.9295e-08
2.8734e-08
-1.07989e-07
2.93209e-08
-1.16828e-07
2.98181e-08
-1.25791e-07
3.02335e-08
-1.34855e-07
3.05748e-08
-1.44002e-07
3.08499e-08
-1.53215e-07
3.10659e-08
-1.62479e-07
3.123e-08
-1.7178e-07
3.13486e-08
-1.81106e-07
3.14281e-08
-1.90447e-07
3.14741e-08
-1.99796e-07
3.14921e-08
-2.09144e-07
3.14868e-08
-2.18486e-07
3.14628e-08
-2.27817e-07
3.14242e-08
-2.37134e-07
3.13746e-08
-2.46433e-07
3.13175e-08
-2.55713e-07
3.12558e-08
-2.64973e-07
3.11923e-08
-2.74213e-07
3.11293e-08
-2.83433e-07
3.1069e-08
-2.92633e-07
3.10134e-08
-3.01816e-07
3.0964e-08
-3.10983e-07
3.09225e-08
-3.20137e-07
3.08901e-08
-3.2928e-07
3.0868e-08
-3.38415e-07
3.08572e-08
-3.47545e-07
3.08584e-08
-3.56674e-07
3.08725e-08
-3.65805e-07
3.08999e-08
-3.74942e-07
3.09412e-08
-3.84088e-07
3.09966e-08
-3.93249e-07
3.10665e-08
-4.02427e-07
3.11508e-08
-4.11627e-07
3.12497e-08
-4.20852e-07
3.13629e-08
-4.30106e-07
3.14902e-08
-4.39393e-07
3.16313e-08
-4.48716e-07
3.17857e-08
-4.58079e-07
3.19526e-08
-4.67485e-07
3.21314e-08
-4.76936e-07
3.2321e-08
-4.86436e-07
3.25204e-08
-4.95985e-07
3.27283e-08
-5.05586e-07
3.29434e-08
-5.1524e-07
3.31639e-08
-5.24947e-07
3.33881e-08
-5.34708e-07
3.36141e-08
-5.44522e-07
3.38395e-08
-5.54387e-07
3.40621e-08
-5.64302e-07
3.42791e-08
-5.74263e-07
3.44878e-08
-5.84266e-07
3.4685e-08
-5.94308e-07
3.48675e-08
-6.04381e-07
3.50316e-08
-6.14479e-07
3.51736e-08
-6.24594e-07
3.52895e-08
-6.34716e-07
3.53749e-08
-6.44835e-07
3.54253e-08
-6.54939e-07
3.54359e-08
-6.65014e-07
3.54017e-08
-6.75045e-07
3.53175e-08
-6.85016e-07
3.51777e-08
-6.94909e-07
3.49767e-08
-7.04704e-07
3.47085e-08
-7.1438e-07
3.43672e-08
-7.23913e-07
3.39464e-08
-7.33279e-07
3.34398e-08
-7.42451e-07
3.28409e-08
-7.51401e-07
3.21432e-08
-7.60098e-07
3.13401e-08
-7.6851e-07
3.0425e-08
-7.76604e-07
2.93915e-08
-7.84344e-07
2.8233e-08
-7.91694e-07
2.69435e-08
-7.98614e-07
2.55169e-08
-8.05066e-07
2.39475e-08
-8.11006e-07
2.223e-08
-8.16394e-07
2.03596e-08
-8.21185e-07
1.83319e-08
-8.25335e-07
1.61434e-08
-8.288e-07
1.37911e-08
-8.31532e-07
1.12728e-08
-8.33488e-07
8.58756e-09
-8.34622e-07
5.73514e-09
-8.34889e-07
2.71661e-09
-8.34244e-07
-4.65731e-10
-8.32646e-07
-3.80825e-09
-8.30053e-07
-7.30583e-09
-8.26426e-07
-1.09518e-08
-8.21727e-07
-1.4738e-08
-8.15924e-07
-1.86542e-08
-8.08986e-07
-2.26887e-08
-8.00886e-07
-2.68279e-08
-7.91602e-07
-3.10562e-08
-7.81117e-07
-3.53562e-08
-7.6942e-07
-3.97084e-08
-7.56503e-07
-4.40918e-08
-7.42367e-07
-4.84832e-08
-7.27019e-07
-5.28578e-08
-7.10473e-07
-5.7189e-08
-6.92751e-07
-6.14488e-08
-6.73883e-07
-6.56077e-08
-6.53907e-07
-6.96353e-08
-6.32868e-07
-7.34999e-08
-6.10823e-07
-7.71692e-08
-5.87833e-07
-8.06107e-08
-5.63973e-07
-8.37915e-08
-5.39322e-07
-8.66792e-08
-5.13971e-07
-8.92418e-08
-4.88016e-07
-9.14483e-08
-4.61564e-07
-9.32692e-08
-4.34728e-07
-9.46766e-08
-4.07626e-07
-9.56449e-08
-3.80386e-07
-9.61509e-08
-3.53138e-07
-9.61743e-08
-3.26017e-07
-9.56983e-08
-2.99163e-07
-9.47095e-08
-2.72717e-07
-9.31987e-08
-2.46821e-07
-9.11609e-08
-2.21618e-07
-8.85956e-08
-1.9725e-07
-8.55072e-08
-1.73853e-07
-8.19056e-08
-1.51561e-07
-7.7806e-08
-1.30502e-07
-7.32296e-08
-1.10793e-07
-6.82043e-08
-9.25435e-08
-6.27653e-08
-7.58496e-08
-5.69563e-08
-6.07917e-08
-5.08308e-08
-4.74326e-08
-4.44544e-08
-3.58133e-08
-3.79081e-08
-2.59497e-08
-3.12916e-08
-1.78283e-08
-2.47298e-08
-1.14011e-08
-1.83796e-08
-6.58135e-09
-1.24405e-08
-3.23811e-09
-7.16697e-09
-1.19186e-09
-2.88279e-09
-2.09519e-10
-3.5232e-13
9.17904e-10
-6.94476e-11
-5.49593e-10
-4.21694e-10
-4.40916e-10
-1.17046e-09
5.55805e-10
-2.40284e-09
2.201e-09
-4.18341e-09
4.31033e-09
-6.55696e-09
6.73297e-09
-9.55099e-09
9.34693e-09
-1.31781e-08
1.20553e-08
-1.74385e-08
1.4782e-08
-2.23216e-08
1.74683e-08
-2.78086e-08
2.00697e-08
-3.38742e-08
2.25533e-08
-4.04878e-08
2.48959e-08
-4.76153e-08
2.70819e-08
-5.52205e-08
2.91021e-08
-6.32656e-08
3.09521e-08
-7.17123e-08
3.26317e-08
-8.05229e-08
3.41435e-08
-8.96601e-08
3.5493e-08
-9.90881e-08
3.66869e-08
-1.08773e-07
3.77338e-08
-1.18681e-07
3.86427e-08
-1.28784e-07
3.94236e-08
-1.39052e-07
4.00864e-08
-1.4946e-07
4.06415e-08
-1.59984e-07
4.10988e-08
-1.70603e-07
4.14682e-08
-1.81296e-07
4.17593e-08
-1.92047e-07
4.19811e-08
-2.02841e-07
4.21422e-08
-2.13663e-07
4.22507e-08
-2.24503e-07
4.23141e-08
-2.35351e-07
4.23395e-08
-2.46197e-07
4.23332e-08
-2.57036e-07
4.23013e-08
-2.67861e-07
4.2249e-08
-2.78667e-07
4.21814e-08
-2.89453e-07
4.21029e-08
-3.00215e-07
4.20175e-08
-3.10951e-07
4.19289e-08
-3.21662e-07
4.18402e-08
-3.32347e-07
4.17543e-08
-3.43008e-07
4.16739e-08
-3.53645e-07
4.16013e-08
-3.64261e-07
4.15384e-08
-3.74858e-07
4.1487e-08
-3.85439e-07
4.14487e-08
-3.96006e-07
4.14248e-08
-4.06564e-07
4.14165e-08
-4.17116e-07
4.14246e-08
-4.27666e-07
4.145e-08
-4.38219e-07
4.14934e-08
-4.48777e-07
4.15551e-08
-4.59346e-07
4.16355e-08
-4.6993e-07
4.17347e-08
-4.80533e-07
4.18527e-08
-4.9116e-07
4.19893e-08
-5.01813e-07
4.21441e-08
-5.12499e-07
4.23167e-08
-5.23219e-07
4.25063e-08
-5.33979e-07
4.27121e-08
-5.44781e-07
4.2933e-08
-5.55627e-07
4.31678e-08
-5.66522e-07
4.34148e-08
-5.77466e-07
4.36725e-08
-5.88462e-07
4.3939e-08
-5.9951e-07
4.42119e-08
-6.10611e-07
4.4489e-08
-6.21764e-07
4.47675e-08
-6.32969e-07
4.50446e-08
-6.44224e-07
4.53168e-08
-6.55526e-07
4.55809e-08
-6.66871e-07
4.58329e-08
-6.78254e-07
4.60687e-08
-6.89671e-07
4.62839e-08
-7.01113e-07
4.64737e-08
-7.12573e-07
4.66332e-08
-7.2404e-07
4.6757e-08
-7.35504e-07
4.68393e-08
-7.46953e-07
4.68741e-08
-7.58373e-07
4.68552e-08
-7.69747e-07
4.67759e-08
-7.81059e-07
4.66293e-08
-7.92289e-07
4.64081e-08
-8.03417e-07
4.61049e-08
-8.14421e-07
4.57121e-08
-8.25275e-07
4.52215e-08
-8.35954e-07
4.46251e-08
-8.46429e-07
4.39146e-08
-8.5667e-07
4.30816e-08
-8.66644e-07
4.21175e-08
-8.76318e-07
4.10139e-08
-8.85655e-07
3.97623e-08
-8.94618e-07
3.83543e-08
-9.03167e-07
3.67817e-08
-9.1126e-07
3.50365e-08
-9.18854e-07
3.3111e-08
-9.25904e-07
3.09981e-08
-9.32365e-07
2.8691e-08
-9.38189e-07
2.61837e-08
-9.43328e-07
2.34709e-08
-9.47733e-07
2.0548e-08
-9.51353e-07
1.74115e-08
-9.5414e-07
1.40591e-08
-9.56042e-07
1.04895e-08
-9.5701e-07
6.70298e-09
-9.56994e-07
2.70119e-09
-9.55947e-07
-1.51254e-09
-9.53822e-07
-5.93313e-09
-9.50575e-07
-1.05536e-08
-9.46162e-07
-1.5365e-08
-9.40543e-07
-2.03562e-08
-9.33684e-07
-2.55139e-08
-9.2555e-07
-3.08225e-08
-9.16114e-07
-3.6264e-08
-9.05352e-07
-4.1818e-08
-8.93246e-07
-4.74617e-08
-8.79785e-07
-5.31698e-08
-8.64962e-07
-5.89146e-08
-8.48779e-07
-6.46661e-08
-8.31245e-07
-7.03921e-08
-8.12376e-07
-7.6058e-08
-7.92197e-07
-8.16277e-08
-7.70742e-07
-8.70629e-08
-7.48053e-07
-9.23242e-08
-7.24182e-07
-9.73707e-08
-6.9919e-07
-1.02161e-07
-6.73149e-07
-1.06652e-07
-6.46137e-07
-1.10803e-07
-6.18246e-07
-1.14571e-07
-5.89573e-07
-1.17915e-07
-5.60226e-07
-1.20795e-07
-5.30323e-07
-1.23172e-07
-4.99988e-07
-1.25012e-07
-4.69352e-07
-1.26281e-07
-4.38554e-07
-1.26948e-07
-4.0774e-07
-1.26989e-07
-3.77058e-07
-1.2638e-07
-3.46661e-07
-1.25106e-07
-3.16706e-07
-1.23154e-07
-2.87349e-07
-1.20518e-07
-2.58748e-07
-1.17197e-07
-2.31057e-07
-1.13198e-07
-2.04429e-07
-1.08534e-07
-1.7901e-07
-1.03225e-07
-1.54939e-07
-9.73003e-08
-1.32347e-07
-9.07958e-08
-1.11354e-07
-8.37584e-08
-9.20652e-08
-7.62455e-08
-7.45689e-08
-6.8327e-08
-5.89355e-08
-6.00879e-08
-4.52124e-08
-5.16311e-08
-3.34217e-08
-4.30823e-08
-2.35562e-08
-3.45953e-08
-1.55765e-08
-2.63593e-08
-9.4076e-09
-1.86094e-08
-4.93656e-09
-1.1638e-08
-2.01119e-09
-5.80817e-09
-4.41156e-10
-1.57038e-09
4.76749e-10
-1.58456e-10
-3.91129e-10
-7.43592e-10
1.44219e-10
-1.84544e-09
1.65764e-09
-3.53417e-09
3.88974e-09
-5.86169e-09
6.63786e-09
-8.86312e-09
9.7344e-09
-1.25585e-08
1.30423e-08
-1.69544e-08
1.64513e-08
-2.20463e-08
1.98739e-08
-2.78196e-08
2.32416e-08
-3.42521e-08
2.65021e-08
-4.1315e-08
2.96162e-08
-4.89747e-08
3.25557e-08
-5.71944e-08
3.53016e-08
-6.59344e-08
3.78422e-08
-7.51542e-08
4.01719e-08
-8.48126e-08
4.229e-08
-9.48685e-08
4.41995e-08
-1.05282e-07
4.59063e-08
-1.16014e-07
4.74189e-08
-1.27027e-07
4.87472e-08
-1.38287e-07
4.99024e-08
-1.4976e-07
5.08963e-08
-1.61415e-07
5.17415e-08
-1.73224e-07
5.24504e-08
-1.8516e-07
5.30354e-08
-1.97201e-07
5.35088e-08
-2.09324e-07
5.38824e-08
-2.2151e-07
5.41674e-08
-2.33743e-07
5.43747e-08
-2.46007e-07
5.45144e-08
-2.58288e-07
5.4596e-08
-2.70577e-07
5.46282e-08
-2.82863e-07
5.46192e-08
-2.95138e-07
5.45766e-08
-3.07396e-07
5.45071e-08
-3.19632e-07
5.44171e-08
-3.31841e-07
5.43122e-08
-3.44021e-07
5.41976e-08
-3.5617e-07
5.40779e-08
-3.68287e-07
5.39573e-08
-3.80373e-07
5.38394e-08
-3.92426e-07
5.37277e-08
-4.0445e-07
5.36251e-08
-4.16446e-07
5.35341e-08
-4.28416e-07
5.34571e-08
-4.40363e-07
5.33961e-08
-4.52291e-07
5.33528e-08
-4.64204e-07
5.33287e-08
-4.76104e-07
5.3325e-08
-4.87997e-07
5.33428e-08
-4.99886e-07
5.33829e-08
-5.11777e-07