/*--------------------------------*- C++ -*----------------------------------*\
  =========                 |
  \\      /  F ield         | OpenFOAM: The Open Source CFD Toolbox
   \\    /   O peration     | Website:  https://openfoam.org
    \\  /    A nd           | Version:  7
     \\/     M anipulation  |
\*---------------------------------------------------------------------------*/
FoamFile
{
    version     2.0;
    format      ascii;
    class       volVectorField;
    location    "0.175";
    object      U;
}
// * * * * * * * * * * * * * * * * * * * * * * * * * * * * * * * * * * * * * //

dimensions      [0 1 -1 0 0 0 0];

internalField   nonuniform List<vector> 
12800
(
(3.78388e-06 -3.67013e-06 0)
(1.97584e-05 -1.02907e-05 0)
(4.63445e-05 -1.23491e-05 0)
(7.24429e-05 -1.10747e-05 0)
(9.1217e-05 -8.01038e-06 0)
(9.92728e-05 -4.073e-06 0)
(9.48908e-05 2.18864e-07 0)
(7.73244e-05 4.56259e-06 0)
(4.64855e-05 8.78749e-06 0)
(2.70349e-06 1.2798e-05 0)
(-5.34344e-05 1.6539e-05 0)
(-0.000121177 1.99827e-05 0)
(-0.000199681 2.3118e-05 0)
(-0.000288058 2.59468e-05 0)
(-0.000385405 2.84782e-05 0)
(-0.000490831 3.07261e-05 0)
(-0.00060347 3.27053e-05 0)
(-0.000722493 3.44304e-05 0)
(-0.000847119 3.59182e-05 0)
(-0.000976617 3.71886e-05 0)
(-0.00111031 3.82625e-05 0)
(-0.00124758 3.91595e-05 0)
(-0.00138786 3.98983e-05 0)
(-0.00153063 4.04966e-05 0)
(-0.00167546 4.09706e-05 0)
(-0.00182192 4.13355e-05 0)
(-0.00196967 4.16059e-05 0)
(-0.00211839 4.17954e-05 0)
(-0.00226781 4.19164e-05 0)
(-0.0024177 4.19804e-05 0)
(-0.00256788 4.19977e-05 0)
(-0.00271817 4.19775e-05 0)
(-0.00286845 4.19279e-05 0)
(-0.00301862 4.18565e-05 0)
(-0.00316859 4.17705e-05 0)
(-0.00331831 4.16756e-05 0)
(-0.00346775 4.15762e-05 0)
(-0.00361687 4.14765e-05 0)
(-0.00376567 4.13806e-05 0)
(-0.00391417 4.12926e-05 0)
(-0.00406238 4.12154e-05 0)
(-0.00421033 4.11515e-05 0)
(-0.00435806 4.11027e-05 0)
(-0.00450561 4.10707e-05 0)
(-0.00465305 4.10574e-05 0)
(-0.00480043 4.10648e-05 0)
(-0.00494781 4.10943e-05 0)
(-0.00509527 4.11465e-05 0)
(-0.00524288 4.12221e-05 0)
(-0.00539071 4.13216e-05 0)
(-0.00553885 4.14457e-05 0)
(-0.00568737 4.15952e-05 0)
(-0.00583637 4.17705e-05 0)
(-0.00598591 4.1972e-05 0)
(-0.0061361 4.21997e-05 0)
(-0.00628701 4.24537e-05 0)
(-0.00643873 4.27341e-05 0)
(-0.00659135 4.30406e-05 0)
(-0.00674495 4.33728e-05 0)
(-0.00689961 4.37302e-05 0)
(-0.00705541 4.41121e-05 0)
(-0.00721243 4.45174e-05 0)
(-0.00737074 4.49451e-05 0)
(-0.0075304 4.53942e-05 0)
(-0.0076915 4.58631e-05 0)
(-0.00785407 4.63504e-05 0)
(-0.00801817 4.68539e-05 0)
(-0.00818385 4.73715e-05 0)
(-0.00835114 4.79007e-05 0)
(-0.00852006 4.8439e-05 0)
(-0.00869063 4.89831e-05 0)
(-0.00886286 4.95299e-05 0)
(-0.00903672 5.00752e-05 0)
(-0.00921221 5.06146e-05 0)
(-0.00938927 5.11436e-05 0)
(-0.00956784 5.16571e-05 0)
(-0.00974786 5.21499e-05 0)
(-0.00992923 5.26163e-05 0)
(-0.0101118 5.30501e-05 0)
(-0.0102955 5.34444e-05 0)
(-0.0104801 5.37921e-05 0)
(-0.0106655 5.40854e-05 0)
(-0.0108514 5.43166e-05 0)
(-0.0110375 5.44773e-05 0)
(-0.0112237 5.45585e-05 0)
(-0.0114095 5.45506e-05 0)
(-0.0115948 5.44435e-05 0)
(-0.011779 5.42268e-05 0)
(-0.0119618 5.38893e-05 0)
(-0.0121427 5.342e-05 0)
(-0.0123213 5.28073e-05 0)
(-0.012497 5.20397e-05 0)
(-0.0126693 5.11052e-05 0)
(-0.0128375 4.99913e-05 0)
(-0.0130012 4.86858e-05 0)
(-0.0131594 4.71762e-05 0)
(-0.0133116 4.54506e-05 0)
(-0.013457 4.3497e-05 0)
(-0.0135948 4.1304e-05 0)
(-0.0137242 3.88602e-05 0)
(-0.0138443 3.61549e-05 0)
(-0.0139542 3.3178e-05 0)
(-0.014053 2.99209e-05 0)
(-0.0141398 2.63758e-05 0)
(-0.0142135 2.25363e-05 0)
(-0.0142734 1.83977e-05 0)
(-0.0143182 1.3957e-05 0)
(-0.0143471 9.21324e-06 0)
(-0.0143591 4.1679e-06 0)
(-0.0143533 -1.17508e-06 0)
(-0.0143286 -6.80915e-06 0)
(-0.0142842 -1.27245e-05 0)
(-0.0142192 -1.8908e-05 0)
(-0.0141328 -2.53435e-05 0)
(-0.0140242 -3.20112e-05 0)
(-0.0138928 -3.88878e-05 0)
(-0.013738 -4.5946e-05 0)
(-0.0135593 -5.31539e-05 0)
(-0.0133563 -6.04761e-05 0)
(-0.0131288 -6.78731e-05 0)
(-0.0128767 -7.53017e-05 0)
(-0.0125999 -8.2715e-05 0)
(-0.0122988 -9.00623e-05 0)
(-0.0119736 -9.72899e-05 0)
(-0.011625 -0.000104341 0)
(-0.0112536 -0.000111156 0)
(-0.0108603 -0.000117674 0)
(-0.0104464 -0.000123832 0)
(-0.0100131 -0.000129566 0)
(-0.009562 -0.000134814 0)
(-0.00909478 -0.000139513 0)
(-0.00861338 -0.000143601 0)
(-0.00811994 -0.000147021 0)
(-0.00761674 -0.000149715 0)
(-0.00710625 -0.000151631 0)
(-0.00659111 -0.000152724 0)
(-0.00607407 -0.000152952 0)
(-0.00555802 -0.000152278 0)
(-0.00504594 -0.000150673 0)
(-0.0045409 -0.000148116 0)
(-0.00404602 -0.000144591 0)
(-0.00356445 -0.000140091 0)
(-0.00309932 -0.000134614 0)
(-0.00265379 -0.000128169 0)
(-0.00223093 -0.00012077 0)
(-0.00183375 -0.000112436 0)
(-0.00146517 -0.000103195 0)
(-0.00112797 -9.30791e-05 0)
(-0.000824772 -8.21282e-05 0)
(-0.000558003 -7.03896e-05 0)
(-0.000329846 -5.79228e-05 0)
(-0.000142165 -4.48083e-05 0)
(3.5927e-06 -3.11638e-05 0)
(0.000106578 -1.71787e-05 0)
(0.000166844 -3.18529e-06 0)
(0.000185876 1.0192e-05 0)
(0.000167338 2.17502e-05 0)
(0.000118868 2.92359e-05 0)
(5.75367e-05 2.83375e-05 0)
(1.3323e-05 1.33412e-05 0)
(1.04227e-05 -1.9685e-05 0)
(4.34493e-05 -4.32391e-05 0)
(8.9766e-05 -4.81549e-05 0)
(0.000129886 -3.93878e-05 0)
(0.000150859 -2.21078e-05 0)
(0.000145206 8.01935e-08 0)
(0.000108391 2.47717e-05 0)
(3.80238e-05 5.03779e-05 0)
(-6.66869e-05 7.58585e-05 0)
(-0.000205415 0.00010054 0)
(-0.000377052 0.000123991 0)
(-0.00057998 0.000145945 0)
(-0.000812243 0.000166247 0)
(-0.00107169 0.000184826 0)
(-0.00135605 0.000201668 0)
(-0.00166306 0.000216803 0)
(-0.00199046 0.000230288 0)
(-0.00233605 0.000242198 0)
(-0.00269775 0.000252624 0)
(-0.00307358 0.000261667 0)
(-0.00346168 0.000269431 0)
(-0.00386035 0.000276027 0)
(-0.004268 0.00028156 0)
(-0.00468322 0.000286138 0)
(-0.0051047 0.000289862 0)
(-0.00553129 0.000292828 0)
(-0.00596195 0.000295129 0)
(-0.00639579 0.000296851 0)
(-0.006832 0.000298074 0)
(-0.0072699 0.000298873 0)
(-0.00770891 0.000299316 0)
(-0.00814855 0.000299464 0)
(-0.00858839 0.000299375 0)
(-0.00902812 0.0002991 0)
(-0.00946747 0.000298684 0)
(-0.00990624 0.000298169 0)
(-0.0103443 0.000297591 0)
(-0.0107816 0.000296982 0)
(-0.0112179 0.00029637 0)
(-0.0116535 0.000295782 0)
(-0.0120882 0.00029524 0)
(-0.0125221 0.000294764 0)
(-0.0129554 0.00029437 0)
(-0.0133881 0.000294073 0)
(-0.0138204 0.000293887 0)
(-0.0142524 0.000293822 0)
(-0.0146843 0.000293889 0)
(-0.0151163 0.000294095 0)
(-0.0155486 0.000294449 0)
(-0.0159813 0.000294955 0)
(-0.0164147 0.000295619 0)
(-0.0168491 0.000296445 0)
(-0.0172846 0.000297435 0)
(-0.0177214 0.000298592 0)
(-0.0181599 0.000299918 0)
(-0.0186002 0.000301412 0)
(-0.0190426 0.000303075 0)
(-0.0194872 0.000304903 0)
(-0.0199344 0.000306893 0)
(-0.0203843 0.000309043 0)
(-0.0208372 0.000311345 0)
(-0.0212933 0.000313794 0)
(-0.0217527 0.000316381 0)
(-0.0222156 0.000319097 0)
(-0.0226823 0.000321931 0)
(-0.0231528 0.00032487 0)
(-0.0236273 0.0003279 0)
(-0.0241058 0.000331005 0)
(-0.0245885 0.000334166 0)
(-0.0250754 0.000337363 0)
(-0.0255666 0.000340574 0)
(-0.0260619 0.000343774 0)
(-0.0265614 0.000346935 0)
(-0.0270649 0.000350027 0)
(-0.0275723 0.000353018 0)
(-0.0280835 0.000355872 0)
(-0.0285981 0.000358552 0)
(-0.0291158 0.000361017 0)
(-0.0296363 0.000363224 0)
(-0.0301593 0.000365127 0)
(-0.030684 0.000366677 0)
(-0.0312101 0.000367821 0)
(-0.0317368 0.000368506 0)
(-0.0322635 0.000368672 0)
(-0.0327892 0.000368261 0)
(-0.0333132 0.000367207 0)
(-0.0338344 0.000365444 0)
(-0.0343517 0.000362905 0)
(-0.0348639 0.000359517 0)
(-0.0353699 0.000355207 0)
(-0.035868 0.000349902 0)
(-0.036357 0.000343525 0)
(-0.0368352 0.000335999 0)
(-0.0373008 0.000327248 0)
(-0.037752 0.000317192 0)
(-0.038187 0.000305757 0)
(-0.0386038 0.000292866 0)
(-0.0390001 0.000278447 0)
(-0.0393738 0.000262429 0)
(-0.0397226 0.000244746 0)
(-0.040044 0.000225336 0)
(-0.0403357 0.000204144 0)
(-0.040595 0.000181121 0)
(-0.0408194 0.000156225 0)
(-0.0410063 0.000129427 0)
(-0.0411529 0.000100705 0)
(-0.0412567 7.00532e-05 0)
(-0.0413149 3.74771e-05 0)
(-0.041325 2.99791e-06 0)
(-0.0412842 -3.33467e-05 0)
(-0.0411902 -7.15014e-05 0)
(-0.0410405 -0.000111392 0)
(-0.0408328 -0.000152922 0)
(-0.0405651 -0.000195976 0)
(-0.0402352 -0.000240415 0)
(-0.0398416 -0.000286076 0)
(-0.0393828 -0.000332775 0)
(-0.0388575 -0.000380299 0)
(-0.0382648 -0.000428416 0)
(-0.0376043 -0.000476866 0)
(-0.0368758 -0.000525367 0)
(-0.0360796 -0.000573616 0)
(-0.0352162 -0.000621288 0)
(-0.0342869 -0.00066804 0)
(-0.0332933 -0.000713512 0)
(-0.0322376 -0.000757329 0)
(-0.0311224 -0.000799105 0)
(-0.0299509 -0.00083845 0)
(-0.0287268 -0.000874966 0)
(-0.0274545 -0.000908261 0)
(-0.0261387 -0.000937946 0)
(-0.0247847 -0.000963643 0)
(-0.0233984 -0.000984989 0)
(-0.0219862 -0.00100164 0)
(-0.0205546 -0.00101328 0)
(-0.019111 -0.00101963 0)
(-0.0176629 -0.00102042 0)
(-0.016218 -0.00101544 0)
(-0.0147845 -0.00100452 0)
(-0.0133708 -0.000987538 0)
(-0.0119852 -0.000964402 0)
(-0.0106363 -0.000935084 0)
(-0.0093325 -0.000899602 0)
(-0.00808231 -0.000858027 0)
(-0.00689397 -0.000810482 0)
(-0.0057755 -0.000757145 0)
(-0.00473463 -0.000698248 0)
(-0.00377862 -0.000634089 0)
(-0.00291425 -0.000565037 0)
(-0.00214759 -0.000491555 0)
(-0.00148392 -0.00041423 0)
(-0.000927414 -0.000333836 0)
(-0.00048086 -0.000251438 0)
(-0.000145139 -0.000168562 0)
(8.15185e-05 -8.75128e-05 0)
(0.000204632 -1.18998e-05 0)
(0.000234909 5.2484e-05 0)
(0.000190612 9.6325e-05 0)
(0.000104506 0.000104718 0)
(2.81736e-05 5.74253e-05 0)
(1.25001e-05 -4.64323e-05 0)
(4.85372e-05 -8.96925e-05 0)
(9.29784e-05 -9.25065e-05 0)
(0.000122205 -6.59599e-05 0)
(0.000120602 -1.9688e-05 0)
(7.85831e-05 3.88941e-05 0)
(-1.00802e-05 0.000104365 0)
(-0.000148953 0.000172865 0)
(-0.000339463 0.000241687 0)
(-0.000581443 0.000308965 0)
(-0.000873571 0.000373433 0)
(-0.00121371 0.00043425 0)
(-0.00159915 0.0004909 0)
(-0.00202683 0.00054309 0)
(-0.00249348 0.000590702 0)
(-0.00299574 0.000633746 0)
(-0.00353025 0.000672321 0)
(-0.00409371 0.000706596 0)
(-0.00468293 0.000736786 0)
(-0.00529487 0.000763138 0)
(-0.00592669 0.000785919 0)
(-0.00657571 0.000805409 0)
(-0.00723947 0.000821891 0)
(-0.00791572 0.000835647 0)
(-0.0086024 0.000846952 0)
(-0.00929767 0.00085607 0)
(-0.00999986 0.000863255 0)
(-0.0107075 0.000868744 0)
(-0.0114193 0.000872763 0)
(-0.0121342 0.00087552 0)
(-0.0128512 0.000877206 0)
(-0.0135694 0.000877999 0)
(-0.0142882 0.00087806 0)
(-0.015007 0.000877536 0)
(-0.0157254 0.000876559 0)
(-0.016443 0.000875248 0)
(-0.0171595 0.000873711 0)
(-0.0178748 0.000872042 0)
(-0.0185888 0.000870326 0)
(-0.0193014 0.00086864 0)
(-0.0200126 0.000867049 0)
(-0.0207225 0.000865612 0)
(-0.0214313 0.000864381 0)
(-0.022139 0.000863401 0)
(-0.0228459 0.000862712 0)
(-0.0235522 0.000862348 0)
(-0.0242582 0.000862339 0)
(-0.0249641 0.00086271 0)
(-0.0256702 0.000863484 0)
(-0.0263769 0.000864678 0)
(-0.0270844 0.000866309 0)
(-0.0277931 0.000868387 0)
(-0.0285034 0.000870923 0)
(-0.0292156 0.000873922 0)
(-0.02993 0.000877387 0)
(-0.030647 0.00088132 0)
(-0.0313671 0.000885718 0)
(-0.0320904 0.000890575 0)
(-0.0328175 0.000895881 0)
(-0.0335486 0.000901623 0)
(-0.034284 0.000907785 0)
(-0.035024 0.000914346 0)
(-0.035769 0.000921283 0)
(-0.0365192 0.000928565 0)
(-0.0372749 0.000936161 0)
(-0.0380362 0.000944032 0)
(-0.0388033 0.000952135 0)
(-0.0395765 0.000960421 0)
(-0.0403557 0.000968836 0)
(-0.041141 0.000977319 0)
(-0.0419325 0.000985804 0)
(-0.04273 0.000994217 0)
(-0.0435335 0.00100248 0)
(-0.0443427 0.0010105 0)
(-0.0451574 0.00101819 0)
(-0.0459773 0.00102544 0)
(-0.0468018 0.00103215 0)
(-0.0476305 0.00103819 0)
(-0.0484628 0.00104344 0)
(-0.0492979 0.00104777 0)
(-0.0501351 0.00105104 0)
(-0.0509733 0.0010531 0)
(-0.0518114 0.00105379 0)
(-0.0526484 0.00105294 0)
(-0.0534827 0.00105038 0)
(-0.0543131 0.00104594 0)
(-0.0551378 0.00103942 0)
(-0.0559551 0.00103064 0)
(-0.0567631 0.00101938 0)
(-0.0575596 0.00100545 0)
(-0.0583425 0.000988644 0)
(-0.0591094 0.000968743 0)
(-0.0598576 0.000945536 0)
(-0.0605845 0.000918811 0)
(-0.0612872 0.000888354 0)
(-0.0619626 0.000853957 0)
(-0.0626075 0.000815415 0)
(-0.0632187 0.000772529 0)
(-0.0637924 0.000725112 0)
(-0.0643253 0.000672988 0)
(-0.0648134 0.000615995 0)
(-0.065253 0.000553988 0)
(-0.06564 0.000486845 0)
(-0.0659705 0.000414465 0)
(-0.0662403 0.000336778 0)
(-0.0664455 0.000253744 0)
(-0.0665817 0.000165358 0)
(-0.066645 7.16539e-05 0)
(-0.0666314 -2.72919e-05 0)
(-0.0665368 -0.000131357 0)
(-0.0663574 -0.000240369 0)
(-0.0660897 -0.000354102 0)
(-0.0657302 -0.000472274 0)
(-0.0652756 -0.000594545 0)
(-0.0647232 -0.000720511 0)
(-0.0640704 -0.000849707 0)
(-0.0633151 -0.000981602 0)
(-0.0624555 -0.0011156 0)
(-0.0614904 -0.00125104 0)
(-0.0604193 -0.00138719 0)
(-0.0592419 -0.00152327 0)
(-0.057959 -0.00165843 0)
(-0.0565717 -0.00179177 0)
(-0.055082 -0.00192234 0)
(-0.0534925 -0.00204914 0)
(-0.0518067 -0.00217115 0)
(-0.0500289 -0.00228729 0)
(-0.0481641 -0.00239651 0)
(-0.0462183 -0.0024977 0)
(-0.0441981 -0.00258981 0)
(-0.0421111 -0.00267176 0)
(-0.0399656 -0.00274253 0)
(-0.0377705 -0.00280113 0)
(-0.0355358 -0.00284663 0)
(-0.0332719 -0.00287817 0)
(-0.0309897 -0.00289497 0)
(-0.0287011 -0.00289634 0)
(-0.026418 -0.0028817 0)
(-0.024153 -0.00285061 0)
(-0.0219188 -0.00280271 0)
(-0.0197284 -0.0027378 0)
(-0.0175948 -0.00265582 0)
(-0.0155311 -0.00255686 0)
(-0.01355 -0.00244113 0)
(-0.0116643 -0.00230905 0)
(-0.00988609 -0.00216115 0)
(-0.008227 -0.00199818 0)
(-0.00669795 -0.00182108 0)
(-0.00530893 -0.00163103 0)
(-0.00406881 -0.00142951 0)
(-0.00298503 -0.00121839 0)
(-0.00206324 -0.00100012 0)
(-0.00130678 -0.000777938 0)
(-0.000716035 -0.000556317 0)
(-0.000287467 -0.000341569 0)
(-1.23331e-05 -0.000142825 0)
(0.000124753 2.65435e-05 0)
(0.000147908 0.000147043 0)
(9.62994e-05 0.000190756 0)
(2.89778e-05 0.000118408 0)
(1.1334e-05 -7.28989e-05 0)
(4.00678e-05 -0.000130149 0)
(6.67759e-05 -0.000121843 0)
(6.70314e-05 -6.63837e-05 0)
(2.43969e-05 2.16876e-05 0)
(-7.16234e-05 0.000130894 0)
(-0.000228048 0.00025247 0)
(-0.000449027 0.000379906 0)
(-0.000736332 0.000508458 0)
(-0.00108989 0.000634716 0)
(-0.00150824 0.000756276 0)
(-0.00198886 0.000871496 0)
(-0.00252853 0.000979304 0)
(-0.00312351 0.00107906 0)
(-0.00376974 0.00117045 0)
(-0.00446302 0.00125341 0)
(-0.0051991 0.00132806 0)
(-0.00597376 0.00139465 0)
(-0.00678294 0.00145355 0)
(-0.00762269 0.00150517 0)
(-0.0084893 0.00155 0)
(-0.00937929 0.00158853 0)
(-0.0102894 0.00162128 0)
(-0.0112167 0.00164877 0)
(-0.0121583 0.00167151 0)
(-0.013112 0.00168998 0)
(-0.0140753 0.00170467 0)
(-0.0150463 0.00171602 0)
(-0.0160234 0.00172447 0)
(-0.0170048 0.00173041 0)
(-0.0179894 0.0017342 0)
(-0.0189759 0.00173619 0)
(-0.0199634 0.00173669 0)
(-0.0209512 0.00173599 0)
(-0.0219384 0.00173434 0)
(-0.0229247 0.00173198 0)
(-0.0239097 0.00172911 0)
(-0.024893 0.00172593 0)
(-0.0258744 0.0017226 0)
(-0.026854 0.00171927 0)
(-0.0278316 0.00171608 0)
(-0.0288074 0.00171314 0)
(-0.0297814 0.00171055 0)
(-0.0307539 0.00170842 0)
(-0.0317251 0.00170681 0)
(-0.0326952 0.0017058 0)
(-0.0336646 0.00170545 0)
(-0.0346336 0.00170581 0)
(-0.0356026 0.00170692 0)
(-0.036572 0.00170882 0)
(-0.0375422 0.00171155 0)
(-0.0385136 0.00171513 0)
(-0.0394868 0.00171957 0)
(-0.0404621 0.00172488 0)
(-0.0414401 0.00173109 0)
(-0.0424211 0.00173817 0)
(-0.0434057 0.00174614 0)
(-0.0443943 0.00175497 0)
(-0.0453874 0.00176465 0)
(-0.0463854 0.00177516 0)
(-0.0473886 0.00178644 0)
(-0.0483976 0.00179848 0)
(-0.0494127 0.00181121 0)
(-0.0504341 0.00182458 0)
(-0.0514623 0.00183852 0)
(-0.0524974 0.00185296 0)
(-0.0535397 0.0018678 0)
(-0.0545893 0.00188296 0)
(-0.0556464 0.00189832 0)
(-0.0567109 0.00191376 0)
(-0.0577828 0.00192915 0)
(-0.0588621 0.00194434 0)
(-0.0599484 0.00195919 0)
(-0.0610415 0.0019735 0)
(-0.062141 0.0019871 0)
(-0.0632464 0.00199979 0)
(-0.064357 0.00201135 0)
(-0.0654722 0.00202155 0)
(-0.066591 0.00203015 0)
(-0.0677124 0.00203689 0)
(-0.0688352 0.00204149 0)
(-0.0699582 0.00204366 0)
(-0.0710797 0.0020431 0)
(-0.0721983 0.00203949 0)
(-0.0733119 0.00203249 0)
(-0.0744187 0.00202176 0)
(-0.0755164 0.00200693 0)
(-0.0766025 0.00198764 0)
(-0.0776746 0.00196351 0)
(-0.0787297 0.00193414 0)
(-0.0797648 0.00189914 0)
(-0.0807767 0.00185811 0)
(-0.081762 0.00181064 0)
(-0.082717 0.00175634 0)
(-0.0836379 0.0016948 0)
(-0.0845205 0.00162563 0)
(-0.0853606 0.00154846 0)
(-0.0861537 0.0014629 0)
(-0.0868953 0.00136863 0)
(-0.0875805 0.00126531 0)
(-0.0882043 0.00115266 0)
(-0.0887618 0.00103041 0)
(-0.0892476 0.000898349 0)
(-0.0896566 0.00075631 0)
(-0.0899833 0.000604178 0)
(-0.0902225 0.000441898 0)
(-0.0903689 0.000269485 0)
(-0.090417 8.70276e-05 0)
(-0.0903618 -0.000105305 0)
(-0.0901981 -0.000307254 0)
(-0.089921 -0.000518468 0)
(-0.089526 -0.000738494 0)
(-0.0890087 -0.000966771 0)
(-0.088365 -0.00120263 0)
(-0.0875913 -0.00144529 0)
(-0.0866846 -0.00169383 0)
(-0.0856422 -0.00194724 0)
(-0.084462 -0.00220437 0)
(-0.0831428 -0.00246395 0)
(-0.0816837 -0.0027246 0)
(-0.080085 -0.00298481 0)
(-0.0783475 -0.00324297 0)
(-0.0764731 -0.00349738 0)
(-0.0744644 -0.00374624 0)
(-0.0723252 -0.00398767 0)
(-0.0700601 -0.00421973 0)
(-0.0676748 -0.00444042 0)
(-0.0651761 -0.00464772 0)
(-0.0625718 -0.00483961 0)
(-0.0598706 -0.00501406 0)
(-0.0570826 -0.00516908 0)
(-0.0542185 -0.00530276 0)
(-0.0512902 -0.00541324 0)
(-0.0483106 -0.00549879 0)
(-0.0452931 -0.00555781 0)
(-0.0422524 -0.00558883 0)
(-0.0392034 -0.00559059 0)
(-0.0361619 -0.00556203 0)
(-0.0331441 -0.00550228 0)
(-0.0301666 -0.00541073 0)
(-0.0272461 -0.00528704 0)
(-0.0243996 -0.00513111 0)
(-0.0216438 -0.00494314 0)
(-0.0189953 -0.00472362 0)
(-0.0164704 -0.00447336 0)
(-0.0140847 -0.00419351 0)
(-0.011853 -0.00388557 0)
(-0.00978909 -0.00355148 0)
(-0.00790565 -0.00319364 0)
(-0.00621363 -0.00281507 0)
(-0.00472209 -0.00241959 0)
(-0.0034377 -0.00201204 0)
(-0.00236413 -0.00159874 0)
(-0.00150136 -0.00118809 0)
(-0.00084466 -0.000791473 0)
(-0.000383433 -0.000424557 0)
(-9.98989e-05 -0.000109113 0)
(3.26356e-05 0.000124854 0)
(5.42311e-05 0.000236387 0)
(2.16757e-05 0.000166847 0)
(8.37488e-06 -9.21833e-05 0)
(2.29026e-05 -0.000151493 0)
(2.01772e-05 -0.000120122 0)
(-2.22637e-05 -2.35753e-05 0)
(-0.000120232 0.000118731 0)
(-0.000284284 0.000291298 0)
(-0.000521535 0.000482029 0)
(-0.000836204 0.000681702 0)
(-0.00123009 0.000883391 0)
(-0.00170305 0.00108198 0)
(-0.00225342 0.00127377 0)
(-0.00287837 0.00145614 0)
(-0.00357423 0.00162734 0)
(-0.00433672 0.00178629 0)
(-0.00516117 0.00193238 0)
(-0.00604269 0.00206542 0)
(-0.00697631 0.00218553 0)
(-0.00795709 0.00229302 0)
(-0.00898018 0.0023884 0)
(-0.0100409 0.00247228 0)
(-0.0111348 0.00254537 0)
(-0.0122577 0.00260843 0)
(-0.0134057 0.00266224 0)
(-0.0145751 0.0027076 0)
(-0.0157626 0.00274529 0)
(-0.0169651 0.00277608 0)
(-0.01818 0.00280073 0)
(-0.0194048 0.00281993 0)
(-0.0206372 0.00283437 0)
(-0.0218754 0.00284468 0)
(-0.0231177 0.00285144 0)
(-0.0243627 0.00285519 0)
(-0.025609 0.00285645 0)
(-0.0268557 0.00285567 0)
(-0.0281019 0.00285326 0)
(-0.029347 0.00284961 0)
(-0.0305904 0.00284506 0)
(-0.0318317 0.00283992 0)
(-0.0330707 0.00283446 0)
(-0.0343071 0.00282893 0)
(-0.035541 0.00282354 0)
(-0.0367724 0.0028185 0)
(-0.0380014 0.00281398 0)
(-0.0392283 0.00281012 0)
(-0.0404531 0.00280706 0)
(-0.0416764 0.00280492 0)
(-0.0428984 0.0028038 0)
(-0.0441195 0.00280379 0)
(-0.0453402 0.00280496 0)
(-0.046561 0.00280737 0)
(-0.0477823 0.00281107 0)
(-0.0490046 0.00281612 0)
(-0.0502286 0.00282253 0)
(-0.0514548 0.00283033 0)
(-0.0526836 0.00283952 0)
(-0.0539157 0.00285012 0)
(-0.0551516 0.0028621 0)
(-0.0563919 0.00287544 0)
(-0.057637 0.00289012 0)
(-0.0588876 0.00290609 0)
(-0.060144 0.00292329 0)
(-0.0614068 0.00294165 0)
(-0.0626763 0.0029611 0)
(-0.063953 0.00298152 0)
(-0.0652372 0.00300282 0)
(-0.0665292 0.00302486 0)
(-0.0678292 0.0030475 0)
(-0.0691374 0.00307058 0)
(-0.0704538 0.00309391 0)
(-0.0717785 0.0031173 0)
(-0.0731113 0.00314054 0)
(-0.0744521 0.00316338 0)
(-0.0758005 0.00318556 0)
(-0.0771562 0.0032068 0)
(-0.0785185 0.00322679 0)
(-0.0798869 0.00324522 0)
(-0.0812605 0.00326172 0)
(-0.0826383 0.00327593 0)
(-0.0840192 0.00328744 0)
(-0.0854018 0.00329584 0)
(-0.0867847 0.00330068 0)
(-0.0881662 0.00330149 0)
(-0.0895444 0.00329778 0)
(-0.0909172 0.00328903 0)
(-0.0922822 0.00327472 0)
(-0.093637 0.00325427 0)
(-0.0949787 0.00322712 0)
(-0.0963044 0.00319268 0)
(-0.0976109 0.00315033 0)
(-0.0988945 0.00309946 0)
(-0.100152 0.00303944 0)
(-0.101378 0.00296964 0)
(-0.10257 0.00288942 0)
(-0.103722 0.00279814 0)
(-0.104831 0.00269519 0)
(-0.10589 0.00257995 0)
(-0.106896 0.00245183 0)
(-0.107841 0.00231026 0)
(-0.108721 0.00215471 0)
(-0.109531 0.00198469 0)
(-0.110263 0.00179975 0)
(-0.110911 0.00159952 0)
(-0.111471 0.00138366 0)
(-0.111934 0.00115196 0)
(-0.112296 0.000904243 0)
(-0.112548 0.000640468 0)
(-0.112686 0.000360688 0)
(-0.112702 6.50752e-05 0)
(-0.112591 -0.000246066 0)
(-0.112347 -0.000572294 0)
(-0.111963 -0.000913015 0)
(-0.111435 -0.00126748 0)
(-0.110756 -0.00163476 0)
(-0.109924 -0.00201378 0)
(-0.108933 -0.00240325 0)
(-0.10778 -0.00280172 0)
(-0.106462 -0.00320754 0)
(-0.104976 -0.00361888 0)
(-0.103322 -0.00403371 0)
(-0.101498 -0.00444983 0)
(-0.0995054 -0.00486485 0)
(-0.097345 -0.00527624 0)
(-0.0950192 -0.00568129 0)
(-0.0925314 -0.00607716 0)
(-0.0898863 -0.00646088 0)
(-0.0870896 -0.00682941 0)
(-0.0841483 -0.00717962 0)
(-0.0810707 -0.00750832 0)
(-0.077866 -0.00781235 0)
(-0.0745452 -0.00808853 0)
(-0.0711201 -0.00833376 0)
(-0.0676037 -0.00854502 0)
(-0.0640104 -0.00871943 0)
(-0.0603554 -0.00885427 0)
(-0.0566552 -0.00894704 0)
(-0.0529269 -0.00899547 0)
(-0.0491887 -0.00899759 0)
(-0.0454594 -0.00895173 0)
(-0.0417582 -0.00885658 0)
(-0.038105 -0.00871121 0)
(-0.0345198 -0.00851509 0)
(-0.0310227 -0.00826813 0)
(-0.0276337 -0.0079707 0)
(-0.0243725 -0.00762364 0)
(-0.0212584 -0.00722833 0)
(-0.0183099 -0.00678668 0)
(-0.0155444 -0.00630122 0)
(-0.0129782 -0.00577517 0)
(-0.010626 -0.00521255 0)
(-0.00850044 -0.00461834 0)
(-0.00661194 -0.00399877 0)
(-0.00496803 -0.00336165 0)
(-0.0035728 -0.00271694 0)
(-0.00242615 -0.00207753 0)
(-0.00152297 -0.00146029 0)
(-0.000852119 -0.000887621 0)
(-0.000395281 -0.000389456 0)
(-0.000125584 -5.55769e-06 0)
(-6.04887e-06 0.000211424 0)
(1.0741e-05 0.000186752 0)
(4.47741e-06 -0.000100788 0)
(3.59948e-07 -0.00014573 0)
(-4.01518e-05 -7.68458e-05 0)
(-0.000135515 7.42803e-05 0)
(-0.000299794 0.00028372 0)
(-0.000542958 0.000532193 0)
(-0.000871648 0.000804416 0)
(-0.00128972 0.00108851 0)
(-0.00179868 0.00137536 0)
(-0.0023981 0.00165811 0)
(-0.00308602 0.00193167 0)
(-0.00385926 0.00219239 0)
(-0.00471372 0.00243773 0)
(-0.00564466 0.00266608 0)
(-0.00664688 0.0028765 0)
(-0.00771492 0.00306863 0)
(-0.00884321 0.00324253 0)
(-0.0100262 0.00339858 0)
(-0.0112583 0.00353742 0)
(-0.0125344 0.00365987 0)
(-0.0138492 0.00376687 0)
(-0.015198 0.00385945 0)
(-0.0165764 0.0039387 0)
(-0.01798 0.00400573 0)
(-0.0194051 0.00406163 0)
(-0.020848 0.00410749 0)
(-0.0223057 0.00414437 0)
(-0.0237751 0.00417328 0)
(-0.0252538 0.00419517 0)
(-0.0267394 0.00421095 0)
(-0.02823 0.00422146 0)
(-0.0297238 0.0042275 0)
(-0.0312193 0.00422978 0)
(-0.0327153 0.00422897 0)
(-0.0342108 0.00422568 0)
(-0.0357048 0.00422047 0)
(-0.0371967 0.00421383 0)
(-0.0386861 0.00420622 0)
(-0.0401725 0.00419805 0)
(-0.0416557 0.00418967 0)
(-0.0431357 0.00418142 0)
(-0.0446125 0.00417358 0)
(-0.046086 0.00416642 0)
(-0.0475566 0.00416015 0)
(-0.0490246 0.00415497 0)
(-0.0504901 0.00415107 0)
(-0.0519537 0.00414859 0)
(-0.0534158 0.00414767 0)
(-0.0548769 0.00414842 0)
(-0.0563375 0.00415093 0)
(-0.0577981 0.00415527 0)
(-0.0592594 0.00416152 0)
(-0.060722 0.00416972 0)
(-0.0621864 0.00417989 0)
(-0.0636533 0.00419206 0)
(-0.0651234 0.00420621 0)
(-0.0665972 0.00422234 0)
(-0.0680754 0.00424041 0)
(-0.0695585 0.00426037 0)
(-0.0710472 0.00428216 0)
(-0.072542 0.00430568 0)
(-0.0740434 0.00433084 0)
(-0.0755519 0.0043575 0)
(-0.0770678 0.00438553 0)
(-0.0785917 0.00441476 0)
(-0.0801237 0.00444499 0)
(-0.081664 0.00447601 0)
(-0.0832129 0.00450758 0)
(-0.0847704 0.00453943 0)
(-0.0863364 0.00457127 0)
(-0.0879108 0.00460278 0)
(-0.0894932 0.00463359 0)
(-0.0910834 0.00466333 0)
(-0.0926807 0.00469159 0)
(-0.0942845 0.00471791 0)
(-0.095894 0.00474181 0)
(-0.0975079 0.00476278 0)
(-0.0991253 0.00478028 0)
(-0.100745 0.00479372 0)
(-0.102364 0.00480249 0)
(-0.103983 0.00480593 0)
(-0.105598 0.00480337 0)
(-0.107207 0.00479409 0)
(-0.108808 0.00477735 0)
(-0.110398 0.00475237 0)
(-0.111973 0.00471835 0)
(-0.113532 0.00467445 0)
(-0.11507 0.00461984 0)
(-0.116583 0.00455362 0)
(-0.118067 0.00447493 0)
(-0.119518 0.00438287 0)
(-0.120931 0.00427652 0)
(-0.122301 0.00415498 0)
(-0.123623 0.00401737 0)
(-0.124891 0.0038628 0)
(-0.126099 0.0036904 0)
(-0.127243 0.00349935 0)
(-0.128314 0.00328885 0)
(-0.129307 0.00305817 0)
(-0.130215 0.00280663 0)
(-0.131031 0.00253363 0)
(-0.131748 0.00223865 0)
(-0.132359 0.00192126 0)
(-0.132857 0.00158117 0)
(-0.133234 0.0012182 0)
(-0.133483 0.000832305 0)
(-0.133596 0.000423612 0)
(-0.133568 -7.5879e-06 0)
(-0.13339 -0.000460818 0)
(-0.133056 -0.000935402 0)
(-0.13256 -0.00143045 0)
(-0.131896 -0.00194484 0)
(-0.131057 -0.00247724 0)
(-0.130039 -0.00302602 0)
(-0.128836 -0.00358935 0)
(-0.127447 -0.00416511 0)
(-0.125866 -0.00475091 0)
(-0.124091 -0.00534412 0)
(-0.122122 -0.00594184 0)
(-0.119958 -0.0065409 0)
(-0.117599 -0.0071379 0)
(-0.115047 -0.00772921 0)
(-0.112304 -0.00831097 0)
(-0.109376 -0.00887914 0)
(-0.106266 -0.00942952 0)
(-0.102983 -0.00995777 0)
(-0.0995341 -0.0104595 0)
(-0.0959286 -0.0109301 0)
(-0.0921775 -0.0113651 0)
(-0.0882932 -0.0117602 0)
(-0.0842894 -0.0121107 0)
(-0.0801809 -0.0124126 0)
(-0.075984 -0.0126617 0)
(-0.0717163 -0.0128542 0)
(-0.0673964 -0.0129865 0)
(-0.0630439 -0.0130555 0)
(-0.0586795 -0.0130584 0)
(-0.0543245 -0.0129928 0)
(-0.050001 -0.0128569 0)
(-0.0457313 -0.0126494 0)
(-0.0415383 -0.0123696 0)
(-0.0374448 -0.0120175 0)
(-0.0334736 -0.0115935 0)
(-0.029647 -0.0110991 0)
(-0.0259867 -0.0105362 0)
(-0.0225137 -0.00990773 0)
(-0.0192477 -0.00921745 0)
(-0.016207 -0.0084701 0)
(-0.013408 -0.00767162 0)
(-0.010865 -0.00682929 0)
(-0.00858951 -0.00595213 0)
(-0.00659007 -0.00505127 0)
(-0.00487136 -0.00414067 0)
(-0.00343373 -0.00323791 0)
(-0.00227247 -0.00236544 0)
(-0.00137704 -0.00155215 0)
(-0.000730098 -0.000835483 0)
(-0.000306415 -0.000263725 0)
(-7.48161e-05 0.00010086 0)
(-1.4589e-06 0.000171866 0)
(1.10993e-07 -9.66617e-05 0)
(-2.54373e-05 -0.000107444 0)
(-0.000109466 1.56325e-05 0)
(-0.000265179 0.000236142 0)
(-0.000504061 0.00052621 0)
(-0.000834952 0.00086317 0)
(-0.00126357 0.0012288 0)
(-0.00179303 0.00160874 0)
(-0.00242425 0.00199177 0)
(-0.00315632 0.0023693 0)
(-0.00398682 0.00273489 0)
(-0.00491215 0.00308379 0)
(-0.00592777 0.00341268 0)
(-0.00702847 0.00371937 0)
(-0.00820857 0.00400255 0)
(-0.00946211 0.00426164 0)
(-0.010783 0.00449665 0)
(-0.0121651 0.00470799 0)
(-0.0136023 0.00489643 0)
(-0.0150889 0.005063 0)
(-0.0166193 0.00520889 0)
(-0.018188 0.00533543 0)
(-0.0197901 0.00544402 0)
(-0.0214208 0.0055361 0)
(-0.0230759 0.00561311 0)
(-0.0247514 0.00567649 0)
(-0.0264436 0.00572762 0)
(-0.0281493 0.00576786 0)
(-0.0298655 0.00579847 0)
(-0.0315896 0.00582067 0)
(-0.0333194 0.0058356 0)
(-0.0350529 0.0058443 0)
(-0.0367882 0.00584777 0)
(-0.038524 0.00584689 0)
(-0.0402591 0.00584251 0)
(-0.0419924 0.00583536 0)
(-0.043723 0.00582615 0)
(-0.0454505 0.00581548 0)
(-0.0471744 0.00580391 0)
(-0.0488943 0.00579195 0)
(-0.0506101 0.00578005 0)
(-0.0523218 0.0057686 0)
(-0.0540294 0.00575796 0)
(-0.0557332 0.00574845 0)
(-0.0574333 0.00574034 0)
(-0.0591302 0.00573388 0)
(-0.0608243 0.00572928 0)
(-0.062516 0.00572673 0)
(-0.064206 0.00572638 0)
(-0.0658946 0.00572837 0)
(-0.0675826 0.0057328 0)
(-0.0692707 0.00573975 0)
(-0.0709594 0.00574929 0)
(-0.0726494 0.00576147 0)
(-0.0743415 0.0057763 0)
(-0.0760362 0.00579378 0)
(-0.0777344 0.00581388 0)
(-0.0794367 0.00583656 0)
(-0.0811437 0.00586175 0)
(-0.082856 0.00588935 0)
(-0.0845743 0.00591925 0)
(-0.086299 0.00595129 0)
(-0.0880308 0.0059853 0)
(-0.08977 0.00602107 0)
(-0.091517 0.00605838 0)
(-0.0932722 0.00609696 0)
(-0.0950356 0.00613651 0)
(-0.0968075 0.00617669 0)
(-0.0985879 0.00621713 0)
(-0.100377 0.00625744 0)
(-0.102174 0.00629715 0)
(-0.103978 0.00633578 0)
(-0.10579 0.00637282 0)
(-0.107609 0.00640767 0)
(-0.109433 0.00643974 0)
(-0.111262 0.00646836 0)
(-0.113094 0.00649283 0)
(-0.114929 0.00651241 0)
(-0.116764 0.0065263 0)
(-0.118598 0.00653366 0)
(-0.120428 0.00653361 0)
(-0.122252 0.00652524 0)
(-0.124067 0.00650755 0)
(-0.125872 0.00647957 0)
(-0.127661 0.00644022 0)
(-0.129433 0.00638844 0)
(-0.131182 0.0063231 0)
(-0.132906 0.00624306 0)
(-0.134599 0.00614717 0)
(-0.136258 0.00603422 0)
(-0.137876 0.00590303 0)
(-0.13945 0.00575239 0)
(-0.140972 0.00558111 0)
(-0.142438 0.00538799 0)
(-0.14384 0.00517188 0)
(-0.145173 0.00493164 0)
(-0.14643 0.00466618 0)
(-0.147603 0.00437448 0)
(-0.148686 0.00405558 0)
(-0.149671 0.00370859 0)
(-0.15055 0.00333276 0)
(-0.151315 0.00292743 0)
(-0.151959 0.00249209 0)
(-0.152474 0.00202637 0)
(-0.152851 0.00153008 0)
(-0.153082 0.00100322 0)
(-0.15316 0.000446011 0)
(-0.153077 -0.000141111 0)
(-0.152825 -0.000757457 0)
(-0.152397 -0.00140207 0)
(-0.151786 -0.00207371 0)
(-0.150985 -0.00277084 0)
(-0.149988 -0.0034916 0)
(-0.14879 -0.00423383 0)
(-0.147385 -0.004995 0)
(-0.14577 -0.00577226 0)
(-0.143942 -0.0065624 0)
(-0.141897 -0.00736188 0)
(-0.139634 -0.0081668 0)
(-0.137153 -0.00897294 0)
(-0.134455 -0.00977575 0)
(-0.131542 -0.0105704 0)
(-0.128417 -0.0113517 0)
(-0.125085 -0.0121144 0)
(-0.121552 -0.0128528 0)
(-0.117825 -0.0135612 0)
(-0.113913 -0.0142337 0)
(-0.109827 -0.0148643 0)
(-0.10558 -0.0154471 0)
(-0.101184 -0.0159761 0)
(-0.0966544 -0.0164455 0)
(-0.0920084 -0.0168497 0)
(-0.0872637 -0.0171833 0)
(-0.0824395 -0.0174412 0)
(-0.0775564 -0.0176188 0)
(-0.0726361 -0.0177117 0)