/*--------------------------------*- C++ -*----------------------------------*\
  =========                 |
  \\      /  F ield         | OpenFOAM: The Open Source CFD Toolbox
   \\    /   O peration     | Website:  https://openfoam.org
    \\  /    A nd           | Version:  7
     \\/     M anipulation  |
\*---------------------------------------------------------------------------*/
FoamFile
{
    version     2.0;
    format      ascii;
    class       volScalarField;
    location    "0.4375";
    object      p;
}
// * * * * * * * * * * * * * * * * * * * * * * * * * * * * * * * * * * * * * //

dimensions      [0 2 -2 0 0 0 0];

internalField   nonuniform List<scalar> 
12800
(
-1.57237e-06
0.000179338
-0.000906085
-0.00335041
-0.00690863
-0.0113339
-0.0163929
-0.0218723
-0.0275853
-0.0333719
-0.0390956
-0.0446412
-0.0499114
-0.0548245
-0.0593128
-0.06332
-0.0668004
-0.0697174
-0.0720422
-0.0737528
-0.0748335
-0.0752739
-0.0750683
-0.0742148
-0.0727156
-0.0705754
-0.0678021
-0.0644055
-0.0603976
-0.0557918
-0.0506033
-0.0448479
-0.0385426
-0.031705
-0.0243534
-0.0165061
-0.00818178
0.000600681
0.00982261
0.0194654
0.0295107
0.0399405
0.0507371
0.0618831
0.0733619
0.0851571
0.097253
0.109634
0.122287
0.135196
0.148349
0.161733
0.175336
0.189146
0.203152
0.217345
0.231714
0.24625
0.260945
0.275791
0.29078
0.305905
0.32116
0.336539
0.352036
0.367647
0.383365
0.399188
0.41511
0.431129
0.447241
0.463442
0.47973
0.496102
0.512555
0.529087
0.545695
0.562378
0.579134
0.595959
0.612853
0.629812
0.646835
0.663918
0.681061
0.698259
0.71551
0.732811
0.750158
0.767547
0.784974
0.802435
0.819924
0.837435
0.854963
0.872501
0.890042
0.907577
0.925097
0.942594
0.960057
0.977475
0.994837
1.01213
1.02934
1.04645
1.06344
1.08031
1.09703
1.11358
1.12995
1.14611
1.16204
1.17773
1.19314
1.20825
1.22304
1.23748
1.25154
1.2652
1.27844
1.29121
1.30349
1.31526
1.32649
1.33714
1.34719
1.35661
1.36538
1.37346
1.38085
1.3875
1.3934
1.39854
1.40289
1.40645
1.4092
1.41114
1.41227
1.41259
1.4121
1.41083
1.40879
1.40601
1.40254
1.3984
1.39367
1.38841
1.38269
1.37662
1.37031
1.36389
1.35752
1.35138
1.34569
1.34069
1.33664
1.33383
1.33255
1.33271
-0.000184838
-1.92677e-06
-0.00100498
-0.00313742
-0.00617547
-0.0099437
-0.0142683
-0.0189787
-0.0239182
-0.0289477
-0.0339449
-0.0388039
-0.0434333
-0.0477555
-0.0517042
-0.0552243
-0.0582697
-0.0608031
-0.0627941
-0.0642194
-0.0650611
-0.0653068
-0.0649483
-0.0639817
-0.0624065
-0.0602252
-0.057443
-0.0540677
-0.0501086
-0.0455772
-0.040486
-0.034849
-0.0286809
-0.0219976
-0.0148151
-0.0071502
0.000980135
0.00955876
0.0185685
0.0279921
0.0378126
0.0480131
0.0585771
0.0694883
0.080731
0.0922897
0.104149
0.116296
0.128715
0.141393
0.154318
0.167476
0.180857
0.19445
0.208242
0.222225
0.236389
0.250725
0.265223
0.279878
0.29468
0.309622
0.324699
0.339904
0.355232
0.370676
0.386232
0.401896
0.417662
0.433528
0.449489
0.465542
0.481684
0.497911
0.514221
0.53061
0.547076
0.563618
0.58023
0.596913
0.613662
0.630476
0.647351
0.664284
0.681274
0.698316
0.715407
0.732544
0.749723
0.766939
0.784188
0.801465
0.818764
0.83608
0.853406
0.870734
0.888058
0.90537
0.922659
0.939917
0.957134
0.974297
0.991396
1.00842
1.02535
1.04217
1.05888
1.07544
1.09186
1.1081
1.12415
1.13999
1.15559
1.17094
1.18602
1.2008
1.21525
1.22936
1.24309
1.25643
1.26934
1.28179
1.29377
1.30525
1.31619
1.32658
1.33638
1.34557
1.35413
1.36204
1.36926
1.37579
1.38161
1.38669
1.39102
1.39461
1.39742
1.39948
1.40077
1.4013
1.40108
1.40013
1.39847
1.39613
1.39315
1.38958
1.38547
1.38088
1.3759
1.37062
1.36514
1.35959
1.35411
1.34886
1.34401
1.33976
1.33632
1.33388
1.33271
1.33288
0.000898943
0.00100195
-1.79038e-06
-0.00198618
-0.00473601
-0.0081091
-0.0119652
-0.0161626
-0.0205679
-0.0250597
-0.029529
-0.0338794
-0.0380265
-0.0418973
-0.0454288
-0.0485677
-0.051269
-0.0534956
-0.055217
-0.056409
-0.057053
-0.0571352
-0.056646
-0.0555799
-0.0539349
-0.0517116
-0.0489137
-0.045547
-0.0416192
-0.0371398
-0.0321199
-0.0265717
-0.0205084
-0.013944
-0.00689335
0.000628354
0.0086055
0.0170222
0.0258626
0.0351106
0.0447502
0.0547656
0.0651412
0.0758617
0.0869121
0.0982775
0.109944
0.121897
0.134124
0.146612
0.159347
0.172319
0.185516
0.198927
0.212541
0.226349
0.240341
0.254508
0.268842
0.283335
0.297979
0.312768
0.327693
0.342751
0.357933
0.373236
0.388653
0.404181
0.419814
0.435548
0.45138
0.467306
0.483321
0.499423
0.515609
0.531875
0.548218
0.564636
0.581126
0.597685
0.614309
0.630996
0.647744
0.664548
0.681405
0.698313
0.715266
0.732263
0.749297
0.766365
0.783462
0.800582
0.81772
0.834869
0.852023
0.869175
0.886316
0.903439
0.920534
0.937592
0.954602
0.971554
0.988434
1.00523
1.02193
1.03852
1.05498
1.0713
1.08746
1.10345
1.11924
1.13481
1.15015
1.16524
1.18004
1.19455
1.20874
1.22257
1.23604
1.24911
1.26177
1.27397
1.28571
1.29695
1.30768
1.31785
1.32746
1.33648
1.34488
1.35265
1.35976
1.3662
1.37195
1.377
1.38133
1.38494
1.38782
1.38997
1.3914
1.39211
1.39211
1.39142
1.39006
1.38807
1.38549
1.38235
1.37871
1.37464
1.37022
1.36552
1.36064
1.35571
1.35084
1.34617
1.34186
1.33808
1.33497
1.33271
1.33154
1.3316
0.0033447
0.00313758
0.00198098
-8.61762e-06
-0.0026519
-0.00582521
-0.00940864
-0.0132815
-0.0173291
-0.0214453
-0.0255334
-0.0295065
-0.0332878
-0.0368094
-0.0400128
-0.0428474
-0.0452701
-0.047245
-0.0487423
-0.049738
-0.050213
-0.0501532
-0.0495482
-0.0483916
-0.0466802
-0.0444137
-0.0415943
-0.0382265
-0.0343168
-0.0298735
-0.0249061
-0.0194256
-0.0134439
-0.00697377
-2.87504e-05
0.00737711
0.0152294
0.0235132
0.0322137
0.0413159
0.0508046
0.060665
0.0708823
0.0814418
0.0923292
0.10353
0.115032
0.12682
0.138882
0.151206
0.163779
0.17659
0.189627
0.20288
0.216339
0.229994
0.243836
0.257855
0.272044
0.286395
0.300899
0.315551
0.330342
0.345268
0.360322
0.375498
0.390791
0.406197
0.42171
0.437326
0.453041
0.468851
0.484752
0.500741
0.516814
0.532968
0.5492
0.565506
0.581884
0.59833
0.614841
0.631414
0.648045
0.664731
0.681469
0.698255
0.715085
0.731954
0.748859
0.765794
0.782754
0.799734
0.816727
0.833729
0.85073
0.867725
0.884705
0.901662
0.918587
0.935469
0.952299
0.969065
0.985756
1.00236
1.01886
1.03525
1.0515
1.06761
1.08356
1.09932
1.11489
1.13024
1.14536
1.16021
1.17479
1.18907
1.20303
1.21665
1.2299
1.24275
1.25519
1.2672
1.27874
1.28979
1.30033
1.31034
1.3198
1.32868
1.33696
1.34462
1.35164
1.35801
1.36372
1.36875
1.37308
1.37673
1.37967
1.38191
1.38346
1.38432
1.3845
1.38403
1.38293
1.38122
1.37895
1.37615
1.37289
1.36922
1.36521
1.36094
1.3565
1.35199
1.34753
1.34324
1.33925
1.33569
1.33271
1.33045
1.3291
1.32879
0.00691511
0.00618754
0.00473422
0.0026226
-3.13059e-05
-0.00312146
-0.00654478
-0.0101996
-0.013988
-0.0178183
-0.0216057
-0.025273
-0.0287509
-0.0319778
-0.0348995
-0.0374692
-0.0396463
-0.0413967
-0.0426918
-0.0435081
-0.0438271
-0.0436343
-0.0429193
-0.0416749
-0.0398972
-0.0375852
-0.03474
-0.0313652
-0.0274662
-0.0230501
-0.0181254
-0.0127018
-0.00679018
-0.000402197
0.00644974
0.0137526
0.0214931
0.0296572
0.0382312
0.0472007
0.0565517
0.0662701
0.0763416
0.0867526
0.0974892
0.108538
0.119886
0.13152
0.143429
0.155598
0.168018
0.180677
0.193564
0.206668
0.21998
0.23349
0.247188
0.261067
0.275117
0.289331
0.303702
0.318222
0.332884
0.347683
0.362612
0.377666
0.392838
0.408125
0.423521
0.439022
0.454623
0.47032
0.48611
0.501988
0.517951
0.533995
0.550117
0.566314
0.582581
0.598916
0.615316
0.631776
0.648294
0.664865
0.681486
0.698152
0.714861
0.731606
0.748384
0.76519
0.782017
0.798862
0.815716
0.832574
0.849429
0.866273
0.883099
0.899897
0.916658
0.933374
0.950032
0.966623
0.983134
0.999552
1.01587
1.03206
1.04812
1.06403
1.07978
1.09534
1.1107
1.12585
1.14075
1.1554
1.16977
1.18385
1.1976
1.21101
1.22406
1.23672
1.24897
1.26079
1.27216
1.28304
1.29343
1.30329
1.31261
1.32137
1.32954
1.33711
1.34407
1.35039
1.35606
1.36108
1.36543
1.3691
1.37211
1.37444
1.3761
1.3771
1.37745
1.37718
1.3763
1.37484
1.37284
1.37035
1.3674
1.36406
1.36039
1.35647
1.35237
1.34819
1.34403
1.33999
1.33618
1.33272
1.32973
1.32733
1.32565
1.32474
0.0113741
0.00998445
0.00812228
0.00578987
0.00302572
-8.08297e-05
-0.00344124
-0.00697105
-0.010588
-0.0142136
-0.0177742
-0.0212022
-0.024436
-0.0274202
-0.0301057
-0.0324495
-0.0344141
-0.0359677
-0.0370832
-0.0377385
-0.0379155
-0.0376001
-0.036782
-0.0354538
-0.0336113
-0.0312527
-0.0283787
-0.024992
-0.0210971
-0.0167003
-0.0118091
-0.00643232
-0.000579822
0.00573768
0.0125087
0.0197213
0.0273629
0.0354205
0.0438812
0.0527315
0.061958
0.0715475
0.0814864
0.0917617
0.10236
0.113269
0.124475
0.135967
0.147733
0.15976
0.172037
0.184554
0.1973
0.210265
0.223438
0.236811
0.250374
0.26412
0.278039
0.292123
0.306367
0.320761
0.3353
0.349978
0.364787
0.379723
0.394779
0.409952
0.425235
0.440624
0.456115
0.471703
0.487384
0.503154
0.51901
0.534947
0.550963
0.567052
0.583212
0.59944
0.615731
0.632081
0.648488
0.664947
0.681454
0.698005
0.714596
0.731222
0.747877
0.764558
0.781258
0.797971
0.814692
0.831413
0.848128
0.864828
0.881506
0.898154
0.914761
0.931318
0.947815
0.96424
0.980583
0.996829
1.01297
1.02898
1.04486
1.06059
1.07615
1.09153
1.1067
1.12166
1.13637
1.15083
1.16501
1.1789
1.19247
1.2057
1.21856
1.23105
1.24313
1.25479
1.266
1.27673
1.28698
1.29672
1.30592
1.31458
1.32266
1.33016
1.33706
1.34334
1.34899
1.354
1.35837
1.36209
1.36515
1.36757
1.36934
1.37047
1.37097
1.37087
1.37019
1.36895
1.36718
1.36494
1.36226
1.35919
1.35579
1.35214
1.3483
1.34435
1.34039
1.33649
1.33275
1.32928
1.32617
1.32353
1.32138
1.31972
0.0165004
0.0143635
0.012012
0.00937934
0.0064217
0.0032136
-0.00016866
-0.00365612
-0.00718058
-0.0106756
-0.0140782
-0.0173296
-0.0203758
-0.0231678
-0.0256616
-0.0278182
-0.0296036
-0.0309886
-0.0319481
-0.0324614
-0.0325115
-0.032085
-0.0311719
-0.0297651
-0.02786
-0.0254548
-0.0225497
-0.0191469
-0.0152503
-0.0108654
-0.00599902
-0.000659274
0.00514483
0.0114034
0.0181058
0.0252407
0.0327965
0.0407611
0.0491221
0.0578669
0.0669828
0.0764571
0.0862771
0.0964301
0.106904
0.117686
0.128763
0.140126
0.15176
0.163657
0.175803
0.188189
0.200805
0.21364
0.226685
0.23993
0.253367
0.266988
0.280784
0.294747
0.30887
0.323147
0.337569
0.352131
0.366827
0.381651
0.396597
0.411661
0.426836
0.442118
0.457503
0.472986
0.488563
0.50423
0.519982
0.535816
0.551728
0.567715
0.583771
0.599895
0.616081
0.632326
0.648626
0.664977
0.681374
0.697814
0.714292
0.730802
0.747341
0.763902
0.78048
0.797069
0.813663
0.830254
0.846836
0.8634
0.87994
0.896445
0.912907
0.929317
0.945663
0.961935
0.97812
0.994208
1.01018
1.02604
1.04175
1.05731
1.0727
1.08791
1.10291
1.11769
1.13224
1.14653
1.16054
1.17426
1.18766
1.20073
1.21344
1.22577
1.23771
1.24922
1.26029
1.27091
1.28104
1.29067
1.29978
1.30835
1.31636
1.3238
1.33065
1.3369
1.34254
1.34756
1.35195
1.35571
1.35884
1.36133
1.3632
1.36445
1.36509
1.36514
1.36462
1.36357
1.362
1.35996
1.35749
1.35464
1.35145
1.348
1.34433
1.34053
1.33667
1.33282
1.32907
1.32549
1.32216
1.31918
1.31649
1.31399
0.0220928
0.0191629
0.0162686
0.0132761
0.0100599
0.00668203
0.00320851
-0.000305399
-0.00380415
-0.00723229
-0.0105365
-0.0136664
-0.0165753
-0.0192203
-0.0215626
-0.0235676
-0.0252046
-0.0264473
-0.0272729
-0.0276624
-0.0276001
-0.0270738
-0.0260739
-0.0245936
-0.0226288
-0.0201775
-0.0172396
-0.0138172
-0.00991365
-0.00553408
-0.000684756
0.00462691
0.0103925
0.0166028
0.0232479
0.0303171
0.0377996
0.0456837
0.053958
0.0626103
0.0716287
0.081001
0.0907151
0.100759
0.111121
0.121788
0.13275
0.143994
0.15551
0.167287
0.179314
0.19158
0.204075
0.216791
0.229717
0.242845
0.256165
0.269669
0.28335
0.2972
0.311211
0.325376
0.339689
0.354142
0.368731
0.383449
0.39829
0.413249
0.428322
0.443502
0.458786
0.474169
0.489646
0.505213
0.520866
0.536601
0.552414
0.568301
0.584258
0.600281
0.616366
0.632509
0.648706
0.664953
0.681246
0.697579
0.713948
0.730349
0.746776
0.763223
0.779685
0.796155
0.812628
0.829097
0.845553
0.86199
0.878399
0.894771
0.911098
0.92737
0.943576
0.959705
0.975746
0.991687
1.00752
1.02322
1.03878
1.05419
1.06942
1.08447
1.09932
1.11395
1.12834
1.14248
1.15634
1.16992
1.18317
1.1961
1.20867
1.22087
1.23268
1.24407
1.25503
1.26554
1.27557
1.28511
1.29414
1.30265
1.3106
1.318
1.32482
1.33106
1.3367
1.34173
1.34615
1.34995
1.35314
1.3557
1.35766
1.35901
1.35977
1.35996
1.35959
1.35869
1.35728
1.35541
1.3531
1.35041
1.34737
1.34405
1.3405
1.33677
1.33294
1.32907
1.32521
1.32144
1.31783
1.31445
1.31115
1.30777
0.027976
0.0242343
0.0207648
0.0173704
0.0138467
0.0102456
0.00662516
0.00302843
-0.000500253
-0.00391528
-0.00717216
-0.0102284
-0.0130441
-0.0155823
-0.0178092
-0.0196944
-0.021211
-0.0223356
-0.0230477
-0.0233304
-0.0231695
-0.0225539
-0.021475
-0.0199266
-0.017905
-0.0154082
-0.0124363
-0.00899129
-0.00507633
-0.000696141
0.00414336
0.00943522
0.0151715
0.0213436
0.027942
0.0349567
0.0423774
0.0501932
0.0583929
0.0669652
0.0758986
0.0851816
0.0948024
0.10475
0.115011
0.125577
0.136434
0.147573
0.158982
0.17065
0.182568
0.194725
0.207111
0.219717
0.232534
0.245553
0.258765
0.272162
0.285736
0.29948
0.313385
0.327447
0.341656
0.356008
0.370495
0.385113
0.399855
0.414716
0.429691
0.444774
0.459962
0.475249
0.49063
0.506102
0.52166
0.5373
0.553018
0.56881
0.584671
0.600598
0.616586
0.632632
0.64873
0.664878
0.681069
0.6973
0.713566
0.729862
0.746182
0.76252
0.778872
0.795231
0.811589
0.827942
0.84428
0.860597
0.876883
0.893132
0.909333
0.925476
0.941552
0.95755
0.973457
0.989264
1.00496
1.02052
1.03595
1.05121
1.06631
1.08123
1.09594
1.11043
1.12469
1.13869
1.15242
1.16586
1.17899
1.19179
1.20425
1.21634
1.22804
1.23933
1.25019
1.26061
1.27057
1.28004
1.28901
1.29746
1.30538
1.31275
1.31955
1.32578
1.33143
1.33648
1.34093
1.34478
1.34802
1.35066
1.3527
1.35415
1.35501
1.35531
1.35506
1.35429
1.35301
1.35127
1.34908
1.34651
1.34357
1.34033
1.33683
1.33312
1.32925
1.32528
1.32127
1.31725
1.3133
1.30948
1.30554
1.30125
0.0339989
0.0294453
0.0253842
0.0215595
0.0176927
0.0138277
0.0100162
0.00629098
0.00268639
-0.000760705
-0.00401379
-0.00703755
-0.00979843
-0.012265
-0.0144085
-0.0162027
-0.0176242
-0.0186525
-0.0192699
-0.0194614
-0.0192147
-0.0185198
-0.0173693
-0.0157578
-0.0136821
-0.0111407
-0.00813383
-0.00466349
-0.000732878
0.00365346
0.00848986
0.0137697
0.0194853
0.0256286
0.0321904
0.0391614
0.0465315
0.0542903
0.0624274
0.0709317
0.0797923
0.088998
0.0985377
0.1084
0.118575
0.12905
0.139815
0.150859
0.162172
0.173743
0.185563
0.197621
0.209908
0.222414
0.235131
0.24805
0.261163
0.274461
0.287937
0.301582
0.315391
0.329355
0.343469
0.357725
0.372118
0.386642
0.40129
0.416058
0.430941
0.445933
0.461029
0.476224
0.491515
0.506896
0.522364
0.537913
0.55354
0.56924
0.58501
0.600845
0.61674
0.632692
0.648697
0.664749
0.680844
0.696978
0.713145
0.72934
0.745559
0.761795
0.778042
0.794295
0.810546
0.826789
0.843016
0.859221
0.875393
0.891526
0.90761
0.923635
0.939591
0.955467
0.971253
0.986937
1.00251
1.01795
1.03325
1.04839
1.06337
1.07816
1.09274
1.10712
1.12125
1.13514
1.14876
1.16208
1.17511
1.18781
1.20016
1.21216
1.22377
1.23498
1.24577
1.25612
1.26601
1.27543
1.28435
1.29277
1.30066
1.30801
1.31481
1.32105
1.32671
1.33179
1.33628
1.34017
1.34347
1.34618
1.3483
1.34983
1.35079
1.35118
1.35104
1.35036
1.34919
1.34754
1.34545
1.34295
1.34007
1.33686
1.33336
1.32961
1.32566
1.32155
1.31732
1.31301
1.30868
1.30438
1.29979
1.29462
0.040033
0.0346785
0.0300208
0.0257488
0.0215141
0.0173549
0.0133183
0.00942812
0.00571017
0.00219355
-0.00109233
-0.00411868
-0.00685781
-0.00928357
-0.0113717
-0.0131001
-0.014449
-0.0154008
-0.0159403
-0.0160548
-0.0157338
-0.0149687
-0.0137534
-0.0120834
-0.00995611
-0.00737074
-0.0043279
-0.000829679
0.00312057
0.00751833
0.012358
0.0176332
0.0233366
0.02946
0.0359951
0.0429325
0.0502627
0.0579759
0.0660616
0.0745095
0.0833091
0.0924495
0.10192
0.11171
0.121808
0.132205
0.142889
0.15385
0.165078
0.176563
0.188295
0.200265
0.212462
0.224879
0.237506
0.250335
0.263357
0.276565
0.28995
0.303506
0.317224
0.331099
0.345124
0.359291
0.373596
0.388032
0.402593
0.417274
0.432069
0.446975
0.461984
0.477094
0.492298
0.507594
0.522975
0.538438
0.553978
0.569592
0.585274
0.601021
0.616828
0.632691
0.648606
0.664567
0.68057
0.696611
0.712685
0.728785
0.744908
0.761046
0.777195
0.793348
0.809498
0.825638
0.841762
0.857861
0.873928
0.889954
0.905929
0.921845
0.937691
0.953457
0.969132
0.984704
1.00016
1.01549
1.03068
1.04571
1.06058
1.07526
1.08974
1.10401
1.11804
1.13183
1.14535
1.15858
1.17151
1.18413
1.1964
1.20832
1.21986
1.231
1.24174
1.25204
1.26188
1.27127
1.28016
1.28856
1.29644
1.30379
1.31059
1.31684
1.32253
1.32764
1.33217
1.33612
1.33948
1.34225
1.34444
1.34605
1.34709
1.34757
1.34751
1.34691
1.34582
1.34424
1.3422
1.33974
1.33689
1.33367
1.33013
1.3263
1.32222
1.31792
1.31345
1.30881
1.30408
1.29929
1.29405
1.288
0.0459676
0.0398307
0.0345794
0.0298514
0.0252328
0.0207577
0.0164703
0.0123868
0.00852543
0.00490871
0.00155969
-0.00149871
-0.00424417
-0.00665539
-0.00871248
-0.0103972
-0.0116931
-0.0125856
-0.0130622
-0.0131123
-0.0127272
-0.0119
-0.0106258
-0.00890127
-0.00672467
-0.00409578
-0.00101575
0.00251297
0.00648682
0.0109012
0.0157504
0.0210281
0.0267272
0.0328397
0.0393574
0.0462713
0.0535721
0.0612502
0.0692958
0.0776987
0.0864486
0.0955353
0.104948
0.114677
0.124711
0.135041
0.145655
0.156545
0.167699
0.179108
0.190763
0.202655
0.214773
0.22711
0.239656
0.252404
0.265344
0.27847
0.291773
0.305247
0.318883
0.332676
0.346618
0.360704
0.374927
0.389281
0.403761
0.41836
0.433075
0.447899
0.462827
0.477856
0.492979
0.508193
0.523493
0.538874
0.554332
0.569863
0.585462
0.601126
0.616849
0.632627
0.648456
0.664331
0.680248
0.696201
0.712185
0.728196
0.744228
0.760274
0.77633
0.792389
0.808445
0.824489
0.840517
0.856518
0.872487
0.888414
0.904289
0.920105
0.935851
0.951516
0.967091
0.982562
0.997919
1.01315
1.02824
1.04318
1.05795
1.07253
1.08692
1.1011
1.11504
1.12874
1.14218
1.15534
1.1682
1.18075
1.19296
1.20481
1.2163
1.2274
1.23809
1.24835
1.25818
1.26754
1.27642
1.28481
1.29269
1.30005
1.30688
1.31315
1.31887
1.32402
1.3286
1.3326
1.33602
1.33886
1.34112
1.3428
1.34391
1.34446
1.34447
1.34394
1.3429
1.34137
1.33936
1.33691
1.33405
1.33079
1.32717
1.32323
1.31899
1.31448
1.30972
1.30474
1.29959
1.2943
1.28842
1.28152
0.0517072
0.0448108
0.0389744
0.0337881
0.0287763
0.0239709
0.019414
0.0151153
0.011087
0.00734568
0.00390874
0.000793906
-0.00198138
-0.00440029
-0.00644699
-0.00810686
-0.00936674
-0.010215
-0.0106416
-0.0106381
-0.0101977
-0.00931537
-0.00798737
-0.00621156
-0.00398718
-0.00131478
0.00180389
0.00536593
0.00936743
0.0138035
0.0186685
0.0239559
0.0296586
0.0357688
0.0422783
0.0491784
0.05646
0.0641138
0.07213
0.0804989
0.0892106
0.0982548
0.107622
0.117301
0.127282
0.137556
0.148112
0.158941
0.170032
0.181377
0.192965
0.204788
0.216838
0.229104
0.241579
0.254254
0.267122
0.280174
0.293404
0.306803
0.320365
0.334083
0.347951
0.361961
0.376109
0.390388
0.404792
0.419316
0.433955
0.448704
0.463556
0.478509
0.493556
0.508693
0.523916
0.53922
0.5546
0.570053
0.585574
0.601158
0.616802
0.6325
0.648248
0.664041
0.679875
0.695745
0.711646
0.727572
0.743518
0.759479
0.775448
0.791419
0.807386
0.823341
0.839279
0.855191
0.871068
0.886904
0.902689
0.918414
0.934068
0.949643
0.965127
0.980509
0.995777
1.01092
1.02592
1.04078
1.05546
1.06997
1.08428
1.09838
1.11225
1.12589
1.13926
1.15236
1.16516
1.17765
1.18981
1.20163
1.21308
1.22415
1.23482
1.24506
1.25487
1.26423
1.27312
1.28152
1.28942
1.2968
1.30365
1.30996
1.31573
1.32093
1.32556
1.32962
1.3331
1.336
1.33832
1.34007
1.34124
1.34186
1.34192
1.34144
1.34044
1.33894
1.33694
1.33448
1.33157
1.32825
1.32454
1.32045
1.31602
1.31127
1.30622
1.30088
1.29529
1.28951
1.28299
1.27527
0.057169
0.0495382
0.0431291
0.0374866
0.0320778
0.0269332
0.0220937
0.0175639
0.0133507
0.00946543
0.00592074
0.00272965
-9.47804e-05
-0.00253982
-0.00459338
-0.00624428
-0.00748246
-0.00829904
-0.00868647
-0.00863853
-0.00815038
-0.0072185
-0.00584069
-0.00401602
-0.00174474
0.000971724
0.00413093
0.00772942
0.0117628
0.016226
0.021113
0.0264172
0.0321314
0.0382478
0.0447583
0.0516543
0.0589268
0.0665666
0.0745643
0.0829102
0.0915946
0.100608
0.10994
0.11958
0.12952
0.13975
0.150258
0.161037
0.172076
0.183366
0.194899
0.206664
0.218654
0.23086
0.243273
0.255885
0.268689
0.281676
0.29484
0.308173
0.321669
0.335319
0.349119
0.363062
0.377141
0.391351
0.405686
0.420141
0.43471
0.449388
0.46417
0.479051
0.494027
0.509093
0.524244
0.539475
0.554783
0.570162
0.585609
0.601119
0.616687
0.632309
0.647981
0.663697
0.679453
0.695245
0.711067
0.726913
0.742779
0.758659
0.774546
0.790436
0.80632
0.822193
0.838048
0.853877
0.869671
0.885424
0.901126
0.916768
0.932341
0.947835
0.963238
0.978541
0.993732
1.0088
1.02373
1.03851
1.05312
1.06756
1.08181
1.09585
1.10966
1.12324
1.13657
1.14962
1.16238
1.17484
1.18697
1.19876
1.21019
1.22124
1.2319
1.24215
1.25196
1.26133
1.27024
1.27866
1.28659
1.29401
1.3009
1.30726
1.31307
1.31833
1.32302
1.32714
1.33069
1.33366
1.33604
1.33786
1.33909
1.33976
1.33987
1.33943
1.33846
1.33696
1.33495
1.33246
1.3295
1.32609
1.32225
1.318
1.31337
1.30836
1.303
1.29728
1.29127
1.28499
1.27785
1.26935
0.0622809
0.0539416
0.0469743
0.0408814
0.0350757
0.0295872
0.0244569
0.0196849
0.0152733
0.0112294
0.00756146
0.00427838
0.00138927
-0.00109684
-0.00317136
-0.00482629
-0.0060545
-0.00684977
-0.00720694
-0.00712195
-0.00659184
-0.00561479
-0.00419005
-0.00231796
1.14718e-07
0.00276186
0.00596402
0.00960253
0.0136725
0.0181683
0.0230838
0.0284121
0.0341457
0.040277
0.0467977
0.0536992
0.0609726
0.0686089
0.0765986
0.0849324
0.0936006
0.102594
0.111902
0.121516
0.131425
0.141621
0.152093
0.162833
0.17383
0.185077
0.196564
0.208281
0.220222
0.232376
0.244736
0.257295
0.270043
0.282975
0.296081
0.309356
0.322792
0.336383
0.350123
0.364004
0.378022
0.392169
0.406441
0.420832
0.435337
0.449951
0.464668
0.479484
0.494393
0.509392
0.524476
0.539639
0.554879
0.570189
0.585567
0.601006
0.616504
0.632055
0.647654
0.663298
0.678982
0.6947
0.710447
0.726219
0.74201
0.757814
0.773626
0.789439
0.805248
0.821045
0.836823
0.852576
0.868295
0.883972
0.899599
0.915167
0.930667
0.946088
0.961421
0.976655
0.991778
1.00678
1.02165
1.03636
1.05092
1.06531
1.0795
1.09349
1.10727
1.12081
1.13409
1.14712
1.15985
1.17229
1.18441
1.19619
1.20762
1.21867
1.22934
1.2396
1.24944
1.25883
1.26777
1.27623
1.2842
1.29167
1.29862
1.30503
1.31091
1.31623
1.32099
1.32518
1.32879
1.33183
1.33428
1.33616
1.33745
1.33817
1.33832
1.33791
1.33695
1.33545
1.33342
1.33088
1.32785
1.32433
1.32035
1.31593
1.31107
1.3058
1.30011
1.29402
1.28758
1.28081
1.27308
1.26382
0.0669792
0.0579575
0.0504479
0.0439125
0.0377129
0.0318796
0.0264539
0.0214323
0.016813
0.0125996
0.00879676
0.00540959
0.0024437
-9.52631e-05
-0.00220188
-0.00387115
-0.00509867
-0.00588077
-0.0062146
-0.00609818
-0.00553042
-0.00451118
-0.0030412
-0.00112211
0.00124358
0.00405257
0.00730078
0.0109834
0.015095
0.0196295
0.0245802
0.02994
0.0357014
0.0418563
0.0483964
0.0553131
0.0625975
0.0702405
0.078233
0.0865655
0.0952285
0.104213
0.113508
0.123106
0.132996
0.143169
0.153616
0.164328
0.175294
0.186508
0.197959
0.209639
0.221539
0.233652
0.245969
0.258483
0.271185
0.284069
0.297127
0.310351
0.323736
0.337275
0.350961
0.364788
0.37875
0.392842
0.407057
0.421391
0.435838
0.450392
0.46505
0.479805
0.494654
0.509591
0.524612
0.539713
0.554888
0.570134
0.585447
0.600821
0.616252
0.631736
0.647269
0.662845
0.67846
0.694109
0.709787
0.725489
0.74121
0.756944
0.772686
0.788429
0.804167
0.819894
0.835603
0.851286
0.866936
0.882546
0.898106
0.913608
0.929043
0.944402
0.959673
0.974848
0.989914
1.00486
1.01967
1.03434
1.04886
1.0632
1.07736
1.09131
1.10506
1.11857
1.13184
1.14484
1.15757
1.17
1.18212
1.19391
1.20535
1.21642
1.22712
1.23741
1.24728
1.25671
1.2657
1.27421
1.28224
1.28977
1.29679
1.30327
1.30922
1.31462
1.31945
1.32372
1.32741
1.33052
1.33304
1.33498
1.33633
1.33709
1.33728
1.33689
1.33593
1.33442
1.33236
1.32976
1.32664
1.32301
1.31888
1.31427
1.30918
1.30363
1.29762
1.29116
1.28429
1.27705
1.26873
1.25875
0.0712076
0.0615289
0.0534934
0.0465249
0.0399369
0.0337603
0.0280376
0.0227623
0.0179294
0.0135391
0.00959284
0.00609267
0.00304096
0.000440284
-0.00170686
-0.00339823
-0.00463203
-0.00540698
-0.00572244
-0.00557845
-0.00497578
-0.00391593
-0.00240114
-0.000434362
0.00198073
0.0048398
0.00813787
0.0118694
0.0160282
0.0206078
0.0256009
0.0310001
0.0367976
0.0429851
0.049554
0.0564958
0.0638014
0.0714618
0.0794676
0.0878097
0.0964785
0.105465
0.114759
0.124352
0.134233
0.144395
0.154828
0.165522
0.176468
0.187659
0.199085
0.210737
0.222608
0.234689
0.246972
0.25945
0.272114
0.284959
0.297976
0.311158
0.3245
0.337993
0.351633
0.365413
0.379327
0.393369
0.407534
0.421817
0.436211
0.450712
0.465315
0.480016
0.494808
0.509689
0.524653
0.539695
0.554811
0.569998
0.58525
0.600563
0.615932
0.631354
0.646824
0.662336
0.677888
0.693473
0.709086
0.724724
0.74038
0.756049
0.771726
0.787404
0.803078
0.818741
0.834386
0.850006
0.865595
0.881143
0.896644
0.912088
0.927467
0.942771
0.957991
0.973115
0.988134
1.00304
1.01781
1.03244
1.04692
1.06123
1.07536
1.0893
1.10303
1.11653
1.12979
1.14279
1.15552
1.16797
1.1801
1.19191
1.20338
1.21449
1.22522
1.23556
1.24548
1.25497
1.26402
1.2726
1.2807
1.28831
1.2954
1.30197
1.308
1.31348
1.3184
1.32275
1.32652
1.32971
1.33231
1.33431
1.33572
1.33653
1.33675
1.33638
1.33543
1.3339
1.33179
1.32913
1.32592
1.32216
1.31787
1.31306
1.30774
1.30191
1.29558
1.28874
1.28145
1.27374
1.26487
1.2542
0.0749156
0.0646042
0.0560593
0.0486683
0.0416985
0.0351824
0.0291636
0.0236331
0.0185831
0.0140113
0.00991625
0.00629703
0.00315322
0.000484608
-0.00170897
-0.00342786
-0.00467268
-0.00544443
-0.0057446
-0.00557518
-0.00493875
-0.00383844
-0.00227797
-0.000261651
0.00220566
0.00511857
0.00847116
0.012257
0.0164694
0.021101
0.0261442
0.0315911
0.0374335
0.0436628
0.0502704
0.0572473
0.0645845
0.0722728
0.0803029
0.0886655
0.0973512
0.106351
0.115655
0.125253
0.135138
0.145299
0.155728
0.166416
0.177353
0.188531
0.199942
0.211576
0.223427
0.235485
0.247744
0.260195
0.272831
0.285645
0.298629
0.311778
0.325083
0.33854
0.352141
0.36588
0.379753
0.393752
0.407873
0.42211
0.436457
0.450911
0.465465
0.480116
0.494858
0.509687
0.524598
0.539587
0.554649
0.56978
0.584976
0.600232
0.615545
0.630909
0.64632
0.661774
0.677266
0.692791
0.708345
0.723923
0.739519
0.755128
0.770745
0.786364
0.801979
0.817584
0.833172
0.848736
0.864269
0.879764
0.895212
0.910606
0.925937
0.941195
0.956371
0.971455
0.986436
1.0013
1.01605
1.03065
1.04511
1.0594
1.07352
1.08745
1.10117
1.11467
1.12794
1.14096
1.15371
1.16617
1.17834
1.19019
1.2017
1.21285
1.22364
1.23404
1.24403
1.2536
1.26272
1.27138
1.27957
1.28727
1.29445
1.30112
1.30725
1.31282
1.31784
1.32228
1.32614
1.32941
1.33209
1.33416
1.33563
1.33649
1.33674
1.33639
1.33544
1.33389
1.33174
1.32901
1.32569
1.32181
1.31736
1.31235
1.30678
1.30067
1.29402
1.28681
1.27911
1.27095
1.26154
1.25021
0.0780576
0.0671366
0.0580985
0.0502958
0.0429522
0.0361017
0.0297893
0.0240043
0.0187365
0.013981
0.00973403
0.00599219
0.00275247
1.21251e-05
-0.00223149
-0.00398108
-0.00523957
-0.00601011
-0.00629622
-0.00610179
-0.00543116
-0.00428907
-0.00268073
-0.00061179
0.00191168
0.00488318
0.00829584
0.0121424
0.0164153
0.0211066
0.0262081
0.0317115
0.037608
0.0438889
0.0505451
0.0575675
0.0649469
0.072674
0.0807394
0.0891337
0.0978475
0.106872
0.116196
0.125813
0.135711
0.145883
0.15632
0.167011
0.177949
0.189125
0.200531
0.212158
0.223998
0.236044
0.248287
0.260721
0.273337
0.286128
0.299089
0.312211
0.325488
0.338915
0.352484
0.366191
0.380028
0.393991
0.408074
0.422271
0.436578
0.45099
0.465501
0.480107
0.494803
0.509585
0.524449
0.539389
0.554401
0.569482
0.584626
0.599831
0.61509
0.630401
0.645758
0.661157
0.676594
0.692065
0.707563
0.723086
0.738627
0.754181
0.769744
0.785309
0.80087
0.816422
0.831959
0.847473
0.862957
0.878405
0.893808
0.909159
0.924449
0.939669
0.95481
0.969862
0.984815
0.999658
1.01438
1.02897
1.04341
1.0577
1.07181
1.08574
1.09948
1.11299
1.12628
1.13933
1.15211
1.16461
1.17682
1.18872
1.20029
1.21152
1.22237
1.23285
1.24292
1.25258
1.26179
1.27055
1.27884
1.28664
1.29394
1.30071
1.30695
1.31263
1.31775
1.3223
1.32626
1.32962
1.33238
1.33453
1.33607
1.33698
1.33727
1.33694
1.33599
1.33441
1.33222
1.32942
1.326
1.32198
1.31737
1.31216
1.30635
1.29997
1.29299
1.28542
1.27732
1.26872
1.25879
1.24682
0.0805924
0.0690832
0.0595673
0.051364
0.0436551
0.0364763
0.0298746
0.0238375
0.0183526
0.0134134
0.00901368
0.00514787
0.00181065
-0.00100304
-0.00329812
-0.00507954
-0.00635234
-0.00712175
-0.00739323
-0.00717253
-0.00646567
-0.00527901
-0.00361923
-0.00149332
0.0010914
0.00412734
0.00760659
0.011521
0.0158622
0.0206216
0.0257904
0.0313596
0.0373201
0.0436626
0.0503779
0.0574566
0.0648892
0.0726662
0.0807781
0.0892154
0.0979688
0.107029
0.116386
0.126031
0.135955
0.146149
0.156603
0.16731
0.178259
0.189444
0.200855
0.212485
0.224324
0.236367
0.248604
0.261028
0.273633
0.286411
0.299355
0.312459
0.325717
0.339121
0.352666
0.366345
0.380155
0.394087
0.408138
0.422302
0.436575
0.45095
0.465423
0.47999
0.494646
0.509386
0.524206
0.539102
0.55407
0.569104
0.584202
0.599358
0.614569
0.629831
0.645138
0.660487
0.675874
0.691294
0.706742
0.722214
0.737704
0.753208
0.768721
0.784237
0.799751
0.815256
0.830747
0.846216
0.861658
0.877066
0.892431
0.907746
0.923002
0.938192
0.953306
0.968334
0.983267
0.998095
1.01281
1.02739
1.04183
1.05612
1.07024
1.08419
1.09794
1.11149
1.12481
1.13789
1.15072
1.16328
1.17555
1.18752
1.19916
1.21046
1.22141
1.23197
1.24215
1.2519
1.26123
1.2701
1.27851
1.28643
1.29384
1.30074
1.3071
1.31291
1.31815
1.32281
1.32688
1.33035
1.3332
1.33544
1.33704
1.33801
1.33835
1.33804
1.33709
1.3355
1.33326
1.33039
1.32687
1.32272
1.31794
1.31253
1.30649
1.29983
1.29254
1.28461
1.27612
1.26709
1.25666
1.24407
0.0824817
0.070404
0.0604251
0.0518321
0.0437667
0.0362666
0.0293808
0.0230952
0.0173959
0.0122745
0.00772313
0.00373396
0.000299639
-0.00258699
-0.00493298
-0.00674536
-0.00803122
-0.00879775
-0.00905228
-0.00880234
-0.00805564
-0.00682012
-0.00510392
-0.00291539
-0.000263089
0.00284423
0.00639766
0.0103881
0.0148063
0.019643
0.0248886
0.0305336
0.0365684
0.0429834
0.0497687
0.0569148
0.0644119