/*--------------------------------*- C++ -*----------------------------------*\
  =========                 |
  \\      /  F ield         | OpenFOAM: The Open Source CFD Toolbox
   \\    /   O peration     | Website:  https://openfoam.org
    \\  /    A nd           | Version:  7
     \\/     M anipulation  |
\*---------------------------------------------------------------------------*/
FoamFile
{
    version     2.0;
    format      ascii;
    class       volScalarField;
    location    "0.2125";
    object      p;
}
// * * * * * * * * * * * * * * * * * * * * * * * * * * * * * * * * * * * * * //

dimensions      [0 2 -2 0 0 0 0];

internalField   nonuniform List<scalar> 
51200
(
-1.13298e-06
-5.42013e-06
-8.86226e-06
-9.46469e-06
-7.05569e-06
-2.41159e-06
3.62605e-06
1.06979e-05
1.85056e-05
2.67812e-05
3.53346e-05
4.39802e-05
5.25608e-05
6.09622e-05
6.9052e-05
7.67821e-05
8.40016e-05
9.05788e-05
9.65101e-05
0.000101802
0.000106361
0.00011015
0.000113156
0.000115257
0.000116405
0.000116668
0.000116031
0.000114421
0.000111841
0.000108331
0.000103884
9.84688e-05
9.2076e-05
8.47186e-05
7.64286e-05
6.72098e-05
5.70529e-05
4.59654e-05
3.39716e-05
2.109e-05
7.32666e-06
-7.30885e-06
-2.27957e-05
-3.91024e-05
-5.62056e-05
-7.41129e-05
-9.28255e-05
-0.0001123
-0.000132475
-0.000153318
-0.000174845
-0.000197065
-0.000219944
-0.000243429
-0.000267485
-0.000292108
-0.000317299
-0.000343033
-0.000369264
-0.000395955
-0.000423096
-0.000450685
-0.000478706
-0.00050711
-0.000535855
-0.000564923
-0.000594315
-0.000624024
-0.000654023
-0.000684274
-0.000714739
-0.000745394
-0.000776231
-0.000807245
-0.000838424
-0.000869738
-0.000901147
-0.000932619
-0.000964134
-0.000995682
-0.00102725
-0.00105882
-0.00109037
-0.00112185
-0.00115325
-0.00118452
-0.00121567
-0.00124668
-0.00127754
-0.00130822
-0.00133867
-0.00136886
-0.00139877
-0.0014284
-0.00145774
-0.00148676
-0.00151544
-0.00154374
-0.00157162
-0.00159906
-0.00162605
-0.00165259
-0.00167865
-0.00170421
-0.00172923
-0.00175367
-0.00177753
-0.00180077
-0.00182338
-0.00184536
-0.00186668
-0.00188732
-0.00190725
-0.00192644
-0.00194487
-0.00196252
-0.00197938
-0.00199545
-0.0020107
-0.00202512
-0.00203868
-0.00205136
-0.00206314
-0.00207401
-0.00208396
-0.00209298
-0.00210107
-0.00210821
-0.0021144
-0.00211963
-0.00212389
-0.00212718
-0.00212949
-0.00213084
-0.00213123
-0.00213068
-0.0021292
-0.00212681
-0.00212354
-0.00211941
-0.00211444
-0.00210867
-0.00210214
-0.00209491
-0.00208705
-0.00207864
-0.00206975
-0.00206047
-0.00205092
-0.00204121
-0.00203151
-0.00202198
-0.00201282
-0.00200425
-0.00199653
-0.00198995
-0.0019848
-0.0019814
-0.00198003
-0.00198044
-3.75777e-06
-6.81157e-06
-9.02075e-06
-9.14614e-06
-7.11469e-06
-3.31788e-06
1.7117e-06
7.72032e-06
1.43729e-05
2.14848e-05
2.8907e-05
3.64519e-05
4.39752e-05
5.13322e-05
5.8452e-05
6.52537e-05
7.16249e-05
7.74682e-05
8.272e-05
8.72949e-05
9.11507e-05
9.43357e-05
9.67705e-05
9.83446e-05
9.90835e-05
9.89876e-05
9.79965e-05
9.61022e-05
9.33144e-05
8.96233e-05
8.50196e-05
7.94908e-05
7.3036e-05
6.56698e-05
5.73995e-05
4.82176e-05
3.81251e-05
2.71429e-05
1.52986e-05
2.59961e-06
-1.09723e-05
-2.54159e-05
-4.06843e-05
-5.67241e-05
-7.35227e-05
-9.11103e-05
-0.000109492
-0.000128613
-0.000148414
-0.000168884
-0.000190042
-0.000211878
-0.000234337
-0.000257372
-0.000280969
-0.00030514
-0.000329886
-0.000355164
-0.000380911
-0.000407098
-0.000433733
-0.000460823
-0.000488342
-0.000516236
-0.00054446
-0.000573003
-0.000601864
-0.00063104
-0.000660505
-0.000690219
-0.000720142
-0.000750247
-0.00078053
-0.000810993
-0.000841624
-0.000872389
-0.000903243
-0.000934154
-0.000965108
-0.000996099
-0.00102711
-0.00105813
-0.00108912
-0.00112004
-0.00115086
-0.00118158
-0.00121218
-0.00124265
-0.00127296
-0.00130308
-0.00133298
-0.00136262
-0.001392
-0.0014211
-0.0014499
-0.0014784
-0.00150655
-0.00153433
-0.00156169
-0.00158863
-0.00161513
-0.00164117
-0.00166675
-0.00169184
-0.0017164
-0.00174039
-0.0017638
-0.0017866
-0.0018088
-0.00183037
-0.0018513
-0.00187157
-0.00189114
-0.00190999
-0.00192809
-0.00194542
-0.00196199
-0.00197779
-0.0019928
-0.002007
-0.00202037
-0.00203289
-0.00204452
-0.00205527
-0.00206513
-0.00207409
-0.00208215
-0.00208931
-0.00209556
-0.00210087
-0.00210525
-0.0021087
-0.00211121
-0.00211281
-0.00211349
-0.00211329
-0.0021122
-0.00211026
-0.00210748
-0.0021039
-0.00209953
-0.00209443
-0.00208862
-0.00208217
-0.00207514
-0.00206762
-0.00205967
-0.00205139
-0.00204288
-0.00203427
-0.00202569
-0.0020173
-0.00200927
-0.00200179
-0.00199508
-0.00198937
-0.00198488
-0.00198182
-0.00198048
-0.00198087
-7.74002e-06
-1.0009e-05
-1.10801e-05
-1.06635e-05
-8.72289e-06
-5.42292e-06
-9.77413e-07
4.28625e-06
1.01487e-05
1.64598e-05
2.30427e-05
2.97676e-05
3.6501e-05
4.30982e-05
4.94678e-05
5.55017e-05
6.11591e-05
6.63897e-05
7.10722e-05
7.50929e-05
7.84604e-05
8.11535e-05
8.31021e-05
8.4292e-05
8.47119e-05
8.43021e-05
8.30243e-05
8.08914e-05
7.79069e-05
7.40591e-05
6.93247e-05
6.36883e-05
5.71614e-05
4.97709e-05
4.1513e-05
3.23599e-05
2.23103e-05
1.1403e-05
-3.2868e-07
-1.28871e-05
-2.63e-05
-4.05637e-05
-5.56247e-05
-7.14436e-05
-8.80276e-05
-0.000105395
-0.000123514
-0.00014232
-0.000161794
-0.000181955
-0.00020281
-0.000224323
-0.000246431
-0.000269094
-0.000292319
-0.000316124
-0.000340493
-0.000365371
-0.000390705
-0.000416479
-0.000442708
-0.000469385
-0.000496474
-0.000523928
-0.000551714
-0.00057982
-0.000608246
-0.000636977
-0.000665987
-0.000695242
-0.000724705
-0.00075435
-0.000784175
-0.000814181
-0.000844351
-0.000874648
-0.000905029
-0.000935467
-0.00096595
-0.000996474
-0.00102702
-0.00105757
-0.00108809
-0.00111853
-0.00114887
-0.00117911
-0.00120925
-0.00123926
-0.00126911
-0.00129877
-0.00132819
-0.00135737
-0.00138628
-0.00141494
-0.00144331
-0.00147136
-0.00149907
-0.0015264
-0.00155333
-0.00157984
-0.00160592
-0.00163157
-0.00165675
-0.00168144
-0.0017056
-0.00172922
-0.00175225
-0.0017747
-0.00179655
-0.00181779
-0.0018384
-0.00185835
-0.00187763
-0.00189619
-0.00191402
-0.00193111
-0.00194745
-0.00196303
-0.00197784
-0.00199187
-0.00200508
-0.00201747
-0.00202899
-0.00203965
-0.00204944
-0.00205836
-0.00206641
-0.00207359
-0.00207988
-0.00208528
-0.00208977
-0.00209335
-0.00209603
-0.00209784
-0.00209877
-0.00209885
-0.0020981
-0.00209652
-0.00209415
-0.00209102
-0.00208714
-0.00208257
-0.00207735
-0.00207152
-0.00206516
-0.00205833
-0.00205112
-0.0020436
-0.0020359
-0.0020281
-0.00202035
-0.00201278
-0.00200554
-0.0019988
-0.00199275
-0.00198758
-0.00198346
-0.00198057
-0.00197923
-0.00197957
-1.30699e-05
-1.44837e-05
-1.47033e-05
-1.3734e-05
-1.16969e-05
-8.54485e-06
-4.48996e-06
3.34938e-07
5.69426e-06
1.14277e-05
1.74178e-05
2.35221e-05
2.96362e-05
3.56657e-05
4.14635e-05
4.69329e-05
5.20247e-05
5.6698e-05
6.08579e-05
6.44449e-05
6.74186e-05
6.96971e-05
7.1255e-05
7.21064e-05
7.22158e-05
7.1533e-05
7.00228e-05
6.76845e-05
6.45292e-05
6.05411e-05
5.5691e-05
4.99632e-05
4.33793e-05
3.59605e-05
2.76893e-05
1.85452e-05
8.54006e-06
-2.29271e-06
-1.39383e-05
-2.6414e-05
-3.97254e-05
-5.38347e-05
-6.86935e-05
-8.4309e-05
-0.000100716
-0.000117898
-0.000135786
-0.000154328
-0.000173538
-0.000193445
-0.000214031
-0.000235245
-0.000257035
-0.000279379
-0.000302296
-0.000325793
-0.000349829
-0.000374346
-0.000399312
-0.000424733
-0.000450616
-0.000476938
-0.000503649
-0.00053071
-0.000558104
-0.000585826
-0.000613873
-0.000642223
-0.000670839
-0.000699685
-0.000728735
-0.000757974
-0.000787403
-0.000817015
-0.000846782
-0.000876665
-0.000906624
-0.000936641
-0.000966712
-0.000996827
-0.00102697
-0.00105711
-0.0010872
-0.00111721
-0.00114713
-0.00117696
-0.00120668
-0.00123629
-0.00126574
-0.00129498
-0.00132398
-0.00135274
-0.00138126
-0.00140952
-0.00143749
-0.00146516
-0.00149248
-0.00151942
-0.00154596
-0.0015721
-0.00159782
-0.00162311
-0.00164795
-0.00167229
-0.00169612
-0.0017194
-0.00174211
-0.00176425
-0.0017858
-0.00180676
-0.00182709
-0.00184679
-0.0018658
-0.00188412
-0.00190172
-0.0019186
-0.00193475
-0.00195015
-0.0019648
-0.00197868
-0.00199177
-0.00200403
-0.00201547
-0.00202606
-0.0020358
-0.00204469
-0.00205274
-0.00205994
-0.00206628
-0.00207175
-0.00207634
-0.00208004
-0.00208289
-0.00208487
-0.00208602
-0.00208635
-0.00208588
-0.00208462
-0.0020826
-0.00207985
-0.00207639
-0.00207226
-0.00206751
-0.00206219
-0.00205637
-0.00205011
-0.00204348
-0.00203657
-0.00202948
-0.0020223
-0.00201516
-0.00200817
-0.00200148
-0.00199523
-0.00198958
-0.00198469
-0.00198071
-0.00197783
-0.0019763
-0.00197629
-1.94637e-05
-2.01692e-05
-1.96916e-05
-1.82185e-05
-1.58938e-05
-1.27421e-05
-8.84392e-06
-4.31293e-06
7.04302e-07
6.05749e-06
1.16088e-05
1.72254e-05
2.28262e-05
2.83312e-05
3.36389e-05
3.86505e-05
4.32862e-05
4.74677e-05
5.1157e-05
5.43354e-05
5.69235e-05
5.88418e-05
6.00787e-05
6.06221e-05
6.04328e-05
5.94808e-05
5.77454e-05
5.5219e-05
5.18993e-05
4.77612e-05
4.27832e-05
3.69736e-05
3.03478e-05
2.28917e-05
1.45856e-05
5.43578e-06
-4.52348e-06
-1.52764e-05
-2.68467e-05
-3.92525e-05
-5.24674e-05
-6.64359e-05
-8.11293e-05
-9.65837e-05
-0.000112824
-0.000129804
-0.000147459
-0.000165764
-0.000184746
-0.000204421
-0.000224747
-0.00024567
-0.000267155
-0.000289205
-0.000311837
-0.000335038
-0.000358752
-0.000382927
-0.000407551
-0.000432638
-0.000458188
-0.000484164
-0.000510514
-0.000537207
-0.000564232
-0.000591589
-0.00061927
-0.00064725
-0.000675489
-0.000703949
-0.000732607
-0.00076146
-0.000790508
-0.000819741
-0.000849123
-0.000878609
-0.000908166
-0.000937781
-0.000967455
-0.000997181
-0.00102693
-0.00105667
-0.00108635
-0.00111595
-0.00114547
-0.0011749
-0.00120424
-0.00123345
-0.00126249
-0.00129133
-0.00131994
-0.00134831
-0.00137644
-0.00140432
-0.00143192
-0.00145921
-0.00148615
-0.00151272
-0.0015389
-0.00156468
-0.00159006
-0.00161501
-0.00163952
-0.00166353
-0.00168704
-0.00171
-0.00173241
-0.00175426
-0.00177553
-0.00179622
-0.0018163
-0.00183574
-0.00185452
-0.00187262
-0.00189001
-0.00190669
-0.00192265
-0.0019379
-0.0019524
-0.00196615
-0.00197912
-0.00199128
-0.00200263
-0.00201316
-0.00202286
-0.00203174
-0.0020398
-0.00204703
-0.00205341
-0.00205895
-0.00206363
-0.00206746
-0.00207045
-0.00207262
-0.00207397
-0.00207453
-0.00207432
-0.00207336
-0.00207167
-0.00206926
-0.00206618
-0.00206246
-0.00205814
-0.00205328
-0.00204794
-0.00204217
-0.00203605
-0.00202966
-0.00202309
-0.00201643
-0.00200977
-0.00200325
-0.00199697
-0.00199106
-0.00198566
-0.00198089
-0.00197692
-0.00197387
-0.00197196
-0.00197128
-2.72448e-05
-2.70799e-05
-2.59251e-05
-2.39344e-05
-2.12437e-05
-1.79061e-05
-1.39806e-05
-9.56299e-06
-4.74063e-06
3.40725e-07
5.58958e-06
1.08736e-05
1.60985e-05
2.11821e-05
2.60611e-05
3.06717e-05
3.49083e-05
3.87016e-05
4.20177e-05
4.48102e-05
4.70238e-05
4.86203e-05
4.95706e-05
4.98353e-05
4.93793e-05
4.81855e-05
4.62428e-05
4.35439e-05
4.00653e-05
3.57764e-05
3.0679e-05
2.47926e-05
1.81145e-05
1.06136e-05
2.2738e-06
-6.87716e-06
-1.68051e-05
-2.75108e-05
-3.90275e-05
-5.13606e-05
-6.4462e-05
-7.82909e-05
-9.28551e-05
-0.000108187
-0.000124273
-0.00014105
-0.000158483
-0.000176579
-0.000195358
-0.000214813
-0.000234889
-0.000255535
-0.000276743
-0.000298528
-0.000320892
-0.000343803
-0.000367203
-0.000391059
-0.000415376
-0.000440159
-0.00046539
-0.000491027
-0.00051703
-0.000543375
-0.000570057
-0.000597075
-0.000624413
-0.000652039
-0.000679913
-0.000708002
-0.000736293
-0.000764786
-0.000793477
-0.000822347
-0.000851354
-0.000880459
-0.000909635
-0.000938873
-0.000968174
-0.000997528
-0.0010269
-0.00105625
-0.00108554
-0.00111475
-0.00114389
-0.00117295
-0.00120192
-0.00123075
-0.0012594
-0.00128785
-0.00131608
-0.00134408
-0.00137186
-0.00139938
-0.00142662
-0.00145354
-0.00148011
-0.00150633
-0.00153217
-0.00155763
-0.00158268
-0.00160732
-0.0016315
-0.00165521
-0.00167841
-0.00170108
-0.00172321
-0.00174479
-0.0017658
-0.00178624
-0.00180608
-0.00182529
-0.00184385
-0.00186173
-0.00187893
-0.00189543
-0.00191123
-0.00192633
-0.0019407
-0.00195433
-0.0019672
-0.00197927
-0.00199055
-0.00200102
-0.00201069
-0.00201956
-0.00202763
-0.00203489
-0.00204133
-0.00204693
-0.00205171
-0.00205566
-0.00205879
-0.00206112
-0.00206266
-0.00206345
-0.00206348
-0.00206279
-0.00206139
-0.0020593
-0.00205656
-0.00205321
-0.00204927
-0.00204481
-0.00203988
-0.00203454
-0.00202886
-0.00202291
-0.00201677
-0.00201052
-0.00200426
-0.00199807
-0.00199208
-0.00198638
-0.00198109
-0.00197633
-0.00197221
-0.00196887
-0.00196642
-0.00196486
-3.64563e-05
-3.51311e-05
-3.31622e-05
-3.0609e-05
-2.74839e-05
-2.38527e-05
-1.97747e-05
-1.5289e-05
-1.05383e-05
-5.60804e-06
-5.73151e-07
4.48845e-06
9.45252e-06
1.4237e-05
1.87924e-05
2.30462e-05
2.69398e-05
3.04257e-05
3.34376e-05
3.59047e-05
3.78034e-05
3.91136e-05
3.9793e-05
3.98031e-05
3.91108e-05
3.77029e-05
3.55741e-05
3.27073e-05
2.90737e-05
2.46537e-05
1.9454e-05
1.34883e-05
6.74136e-06
-8.14828e-07
-9.17812e-06
-1.8317e-05
-2.82206e-05
-3.89087e-05
-5.03985e-05
-6.26597e-05
-7.56453e-05
-8.93533e-05
-0.000103814
-0.000119033
-0.000134966
-0.000151556
-0.000168795
-0.00018671
-0.000205305
-0.000224547
-0.00024438
-0.000264773
-0.00028574
-0.00030729
-0.000329402
-0.00035203
-0.000375133
-0.000398697
-0.000422731
-0.000447231
-0.000472166
-0.000497488
-0.000523164
-0.000549179
-0.00057554
-0.000602241
-0.00062926
-0.000656554
-0.00068408
-0.00071182
-0.000739769
-0.000767929
-0.000796285
-0.000824808
-0.000853457
-0.0008822
-0.000911017
-0.000939902
-0.000968855
-0.000997858
-0.00102687
-0.00105585
-0.00108477
-0.00111361
-0.0011424
-0.00117111
-0.00119972
-0.00122819
-0.00125648
-0.00128456
-0.00131243
-0.00134009
-0.00136753
-0.00139471
-0.00142161
-0.00144819
-0.00147443
-0.00150031
-0.00152583
-0.00155098
-0.00157573
-0.00160007
-0.00162396
-0.00164737
-0.00167029
-0.00169269
-0.00171456
-0.00173589
-0.00175667
-0.00177688
-0.00179649
-0.00181549
-0.00183385
-0.00185154
-0.00186857
-0.00188491
-0.00190056
-0.00191552
-0.00192977
-0.0019433
-0.00195607
-0.00196807
-0.00197929
-0.00198971
-0.00199936
-0.00200823
-0.00201631
-0.0020236
-0.00203009
-0.00203577
-0.00204064
-0.0020447
-0.00204796
-0.00205045
-0.00205217
-0.00205315
-0.00205341
-0.00205296
-0.00205183
-0.00205003
-0.00204759
-0.00204455
-0.00204095
-0.00203684
-0.00203226
-0.00202729
-0.00202197
-0.00201637
-0.00201057
-0.00200464
-0.00199866
-0.00199272
-0.00198689
-0.00198129
-0.00197599
-0.00197111
-0.00196675
-0.001963
-0.00195988
-0.00195731
-4.66862e-05
-4.40835e-05
-4.11928e-05
-3.79697e-05
-3.43634e-05
-3.03638e-05
-2.60121e-05
-2.139e-05
-1.65871e-05
-1.16876e-05
-6.7607e-06
-1.86601e-06
2.90695e-06
7.49933e-06
1.18144e-05
1.57944e-05
1.94138e-05
2.2627e-05
2.53685e-05
2.75739e-05
2.92199e-05
3.02816e-05
3.07192e-05
3.04998e-05
2.9597e-05
2.80041e-05
2.57057e-05
2.26744e-05
1.88922e-05
1.43543e-05
9.07092e-06
3.02765e-06
-3.80147e-06
-1.14176e-05
-1.97985e-05
-2.89253e-05
-3.88177e-05
-4.95016e-05
-6.09621e-05
-7.31484e-05
-8.60378e-05
-9.96598e-05
-0.000114037
-0.000129139
-0.000144917
-0.00016134
-0.00017842
-0.000196179
-0.0002146
-0.000233634
-0.000253239
-0.000273408
-0.000294161
-0.000315494
-0.000337366
-0.000359731
-0.000382562
-0.000405861
-0.000429633
-0.000453864
-0.000478515
-0.000503542
-0.000528918
-0.000554636
-0.0005807
-0.000607103
-0.000633815
-0.00066079
-0.000687992
-0.000715408
-0.000743042
-0.000770889
-0.000798927
-0.000827121
-0.000855431
-0.000883831
-0.000912311
-0.000940869
-0.000969496
-0.000998165
-0.00102683
-0.00105546
-0.00108403
-0.00111254
-0.00114099
-0.00116937
-0.00119765
-0.00122577
-0.00125372
-0.00128146
-0.001309
-0.00133634
-0.00136345
-0.00139031
-0.00141689
-0.00144315
-0.00146908
-0.00149466
-0.00151988
-0.00154474
-0.00156921
-0.00159327
-0.00161688
-0.00164002
-0.00166268
-0.00168483
-0.00170646
-0.00172756
-0.00174812
-0.00176812
-0.00178754
-0.00180634
-0.00182451
-0.00184204
-0.0018589
-0.0018751
-0.00189062
-0.00190546
-0.00191961
-0.00193303
-0.00194572
-0.00195765
-0.00196882
-0.00197921
-0.00198885
-0.00199772
-0.00200582
-0.00201315
-0.00201969
-0.00202544
-0.00203039
-0.00203456
-0.00203795
-0.00204058
-0.00204247
-0.00204364
-0.0020441
-0.00204387
-0.00204297
-0.00204141
-0.00203924
-0.00203648
-0.00203317
-0.00202935
-0.00202507
-0.0020204
-0.00201537
-0.00201006
-0.00200452
-0.00199882
-0.00199304
-0.00198724
-0.00198149
-0.00197588
-0.00197048
-0.00196538
-0.00196068
-0.00195645
-0.00195258
-0.00194892
-5.76637e-05
-5.36669e-05
-4.97719e-05
-4.58353e-05
-4.16618e-05
-3.72057e-05
-3.25411e-05
-2.77202e-05
-2.27884e-05
-1.78212e-05
-1.29054e-05
-8.10752e-06
-3.45311e-06
9.83263e-07
5.12358e-06
8.91907e-06
1.2333e-05
1.53154e-05
1.78192e-05
1.98023e-05
2.12374e-05
2.20882e-05
2.23125e-05
2.18914e-05
2.08093e-05
1.90507e-05
1.65957e-05
1.34133e-05
9.49598e-06
4.85526e-06
-5.13653e-07
-6.64017e-06
-1.35441e-05
-2.12089e-05
-2.96057e-05
-3.87402e-05
-4.86446e-05
-5.93239e-05
-7.07373e-05
-8.28508e-05
-9.56743e-05
-0.000109237
-0.000123533
-0.000138516
-0.000154151
-0.000170433
-0.000187381
-0.000204999
-0.000223253
-0.000242092
-0.000261492
-0.000281467
-0.000302029
-0.000323154
-0.000344793
-0.000366911
-0.000389502
-0.000412569
-0.000436102
-0.000460076
-0.000484453
-0.0005092
-0.000534299
-0.000559746
-0.000585543
-0.00061167
-0.000638088
-0.000664759
-0.000691655
-0.000718773
-0.000746115
-0.000773669
-0.000801404
-0.000829282
-0.00085727
-0.000885351
-0.000913521
-0.000941775
-0.000970093
-0.000998443
-0.00102678
-0.00105508
-0.00108332
-0.00111152
-0.00113967
-0.00116774
-0.00119569
-0.00122349
-0.00125111
-0.00127854
-0.00130578
-0.00133282
-0.00135963
-0.00138619
-0.00141246
-0.00143842
-0.00146406
-0.00148936
-0.00151431
-0.00153891
-0.00156311
-0.0015869
-0.00161026
-0.00163316
-0.00165557
-0.0016775
-0.00169891
-0.0017198
-0.00174016
-0.00175997
-0.00177919
-0.00179782
-0.00181583
-0.0018332
-0.00184992
-0.00186598
-0.00188139
-0.00189612
-0.00191017
-0.00192352
-0.00193613
-0.00194801
-0.00195913
-0.0019695
-0.00197912
-0.001988
-0.00199613
-0.00200349
-0.00201009
-0.0020159
-0.00202094
-0.00202521
-0.00202872
-0.00203149
-0.00203353
-0.00203487
-0.00203551
-0.00203548
-0.00203478
-0.00203345
-0.00203151
-0.00202898
-0.00202592
-0.00202235
-0.00201832
-0.00201388
-0.00200909
-0.002004
-0.00199865
-0.00199311
-0.00198744
-0.0019817
-0.00197595
-0.00197025
-0.00196467
-0.00195928
-0.00195416
-0.00194938
-0.00194473
-0.00193993
-6.89658e-05
-6.35929e-05
-5.86929e-05
-5.40079e-05
-4.91821e-05
-4.42295e-05
-3.91987e-05
-3.4123e-05
-2.9011e-05
-2.39326e-05
-1.89693e-05
-1.41679e-05
-9.58057e-06
-5.25763e-06
-1.24029e-06
2.42627e-06
5.68527e-06
8.48751e-06
1.08011e-05
1.25991e-05
1.38503e-05
1.45133e-05
1.45569e-05
1.39649e-05
1.27216e-05
1.08124e-05
8.21096e-06
4.89448e-06
8.65914e-07
-3.8698e-06
-9.33249e-06
-1.55466e-05
-2.25126e-05
-3.02078e-05
-3.86251e-05
-4.77889e-05
-5.77153e-05
-6.83804e-05
-7.97435e-05
-9.18025e-05
-0.000104584
-0.000118098
-0.000132312
-0.000147181
-0.000162691
-0.00017886
-0.000195696
-0.000213179
-0.000231269
-0.000249929
-0.000269157
-0.000288967
-0.000309354
-0.000330278
-0.000351696
-0.000373591
-0.000395966
-0.000418821
-0.000442135
-0.000465872
-0.000489996
-0.000514482
-0.000539323
-0.000564521
-0.000590069
-0.000615938
-0.00064208
-0.000668464
-0.000695079
-0.000721924
-0.000748995
-0.00077627
-0.000803714
-0.000831292
-0.000858982
-0.000886768
-0.000914649
-0.000942617
-0.000970643
-0.00099869
-0.00102672
-0.00105471
-0.00108266
-0.00111057
-0.00113842
-0.0011662
-0.00119385
-0.00122135
-0.00124867
-0.00127581
-0.00130276
-0.00132952
-0.00135606
-0.00138234
-0.00140833
-0.00143401
-0.00145938
-0.00148442
-0.00150913
-0.00153347
-0.00155743
-0.00158098
-0.0016041
-0.00162677
-0.00164897
-0.00167068
-0.0016919
-0.0017126
-0.00173277
-0.0017524
-0.00177146
-0.00178993
-0.00180778
-0.00182501
-0.0018416
-0.00185755
-0.00187285
-0.00188749
-0.00190146
-0.00191473
-0.00192729
-0.00193911
-0.0019502
-0.00196055
-0.00197017
-0.00197907
-0.00198722
-0.00199462
-0.00200127
-0.00200715
-0.00201227
-0.00201664
-0.00202026
-0.00202316
-0.00202534
-0.00202683
-0.00202764
-0.00202778
-0.00202727
-0.00202613
-0.00202438
-0.00202206
-0.0020192
-0.00201584
-0.00201201
-0.00200777
-0.00200315
-0.00199821
-0.001993
-0.00198755
-0.00198193
-0.00197617
-0.00197034
-0.00196449
-0.00195867
-0.00195293
-0.00194734
-0.00194198
-0.0019365
-0.00193058
-8.03591e-05
-7.36541e-05
-6.77409e-05
-6.22553e-05
-5.67837e-05
-5.13165e-05
-4.58668e-05
-4.04636e-05
-3.51418e-05
-2.99347e-05
-2.48666e-05
-2.00116e-05
-1.54383e-05
-1.1167e-05
-7.23111e-06
-3.66958e-06
-5.28619e-07
2.13595e-06
4.30631e-06
5.95632e-06
7.04664e-06
7.55053e-06
7.44058e-06
6.7006e-06
5.3194e-06
3.27043e-06
5.33709e-07
-2.89798e-06
-7.02297e-06
-1.18506e-05
-1.74083e-05
-2.37044e-05
-3.0723e-05
-3.84472e-05
-4.68965e-05
-5.60979e-05
-6.60384e-05
-7.66804e-05
-8.80036e-05
-0.000100032
-0.000112788
-0.00012625
-0.000140379
-0.000155148
-0.000170563
-0.000186643
-0.000203377
-0.000220729
-0.000238665
-0.000257169
-0.000276252
-0.000295916
-0.000316137
-0.000336872
-0.000358093
-0.000379791
-0.000401973
-0.00042463
-0.000447736
-0.000471252
-0.000495143
-0.000519394
-0.000544005
-0.000568975
-0.000594289
-0.000619909
-0.000645793
-0.000671914
-0.000698271
-0.000724863
-0.000751679
-0.000778689
-0.000805859
-0.000833158
-0.00086057
-0.000888086
-0.000915701
-0.0009434
-0.000971149
-0.000998909
-0.00102665
-0.00105436
-0.00108203
-0.00110967
-0.00113726
-0.00116475
-0.00119213
-0.00121934
-0.00124639
-0.00127327
-0.00129996
-0.00132646
-0.00135273
-0.00137875
-0.00140448
-0.00142992
-0.00145504
-0.00147985
-0.00150432
-0.00152843
-0.00155217
-0.0015755
-0.0015984
-0.00162087
-0.00164286
-0.00166439
-0.00168542
-0.00170594
-0.00172595
-0.00174542
-0.00176432
-0.00178264
-0.00180036
-0.00181746
-0.00183395
-0.00184979
-0.001865
-0.00187956
-0.00189346
-0.00190666
-0.00191916
-0.00193094
-0.00194201
-0.00195235
-0.00196198
-0.00197089
-0.00197907
-0.00198651
-0.00199321
-0.00199916
-0.00200436
-0.00200882
-0.00201255
-0.00201557
-0.00201788
-0.00201951
-0.00202046
-0.00202076
-0.00202041
-0.00201944
-0.00201787
-0.00201572
-0.00201303
-0.00200983
-0.00200616
-0.00200206
-0.00199757
-0.00199273
-0.00198759
-0.00198219
-0.00197655
-0.00197073
-0.00196476
-0.0019587
-0.00195259
-0.00194645
-0.00194036
-0.00193439
-0.00192809
-0.00192105
-9.16283e-05
-8.36151e-05
-7.6731e-05
-7.04496e-05
-6.43448e-05
-5.8346e-05
-5.24461e-05
-4.66833e-05
-4.1106e-05
-3.57081e-05
-3.05195e-05
-2.55977e-05
-2.09865e-05
-1.67164e-05
-1.28165e-05
-9.32767e-06
-6.28466e-06
-3.72011e-06
-1.65922e-06
-1.33703e-07
8.2542e-07
1.19362e-06
9.50261e-07
8.51107e-08
-1.41849e-06
-3.59271e-06
-6.44828e-06
-9.98037e-06
-1.41936e-05
-1.91138e-05
-2.47609e-05
-3.11229e-05
-3.81845e-05
-4.59512e-05
-5.44493e-05
-6.36836e-05
-7.36226e-05
-8.42438e-05
-9.55517e-05
-0.000107568
-0.000120297
-0.000133703
-0.000147755
-0.000162447
-0.000177789
-0.000193791
-0.000210428
-0.00022766
-0.000245462
-0.000263838
-0.000282794
-0.000302322
-0.000322385
-0.000342948
-0.000363995
-0.000385524
-0.000407535
-0.00043001
-0.000452918
-0.000476224
-0.000499904
-0.000523946
-0.000548352
-0.000573115
-0.000598206
-0.000623591
-0.000649234
-0.000675116
-0.000701239
-0.000727597
-0.000754171
-0.000780931
-0.000807845
-0.000834885
-0.000862042
-0.00088931
-0.000916679
-0.000944127
-0.000971615
-0.000999106
-0.00102658
-0.00105403
-0.00108145
-0.00110884
-0.00113617
-0.00116341
-0.00119052
-0.00121748
-0.00124428
-0.00127091
-0.00129737
-0.00132363
-0.00134966
-0.00137544
-0.00140093
-0.00142614
-0.00145104
-0.00147563
-0.00149988
-0.00152379
-0.00154732
-0.00157045
-0.00159316
-0.00161543
-0.00163725
-0.0016586
-0.00167946
-0.00169983
-0.00171968
-0.001739
-0.00175777
-0.00177596
-0.00179355
-0.00181055
-0.00182693
-0.00184269
-0.00185782
-0.00187231
-0.00188614
-0.00189929
-0.00191174
-0.0019235
-0.00193454
-0.00194489
-0.00195452
-0.00196345
-0.00197166
-0.00197914
-0.00198589
-0.00199191
-0.00199719
-0.00200174
-0.00200557
-0.0020087
-0.00201113
-0.00201289
-0.00201397
-0.00201441
-0.00201421
-0.00201338
-0.00201195
-0.00200995
-0.0020074
-0.00200433
-0.00200078
-0.00199678
-0.00199237
-0.0019876
-0.00198248
-0.00197706
-0.00197136
-0.00196543
-0.00195928
-0.00195297
-0.00194652
-0.00193996
-0.00193335
-0.00192675
-0.00191963
-0.00191151
-0.000102567
-9.33237e-05
-8.55079e-05
-7.85047e-05
-7.17231e-05
-6.51715e-05
-5.88408e-05
-5.2719e-05
-4.6829e-05
-4.1208e-05
-3.58815e-05
-3.08643e-05
-2.61878e-05
-2.188e-05
-1.79841e-05
-1.4541e-05
-1.15585e-05
-9.06528e-06
-7.09201e-06
-5.66621e-06
-4.81805e-06
-4.56208e-06
-4.91362e-06
-5.88737e-06
-7.50641e-06
-9.79256e-06
-1.27446e-05
-1.63648e-05
-2.06704e-05
-2.56825e-05
-3.14045e-05
-3.78187e-05
-4.49248e-05
-5.27457e-05
-6.12933e-05
-7.05491e-05
-8.0484e-05
-9.10984e-05
-0.000102409
-0.00011442
-0.000127121
-0.000140476
-0.000154465
-0.000169099
-0.000184386
-0.000200318
-0.000216861
-0.000233983
-0.000251678
-0.000269952
-0.000288798
-0.000308195
-0.000328111
-0.000348519
-0.000369416
-0.000390799
-0.000412657
-0.000434966
-0.000457692
-0.000480806
-0.000504294
-0.000528151
-0.000552372
-0.000576942
-0.000601826
-0.000626991
-0.000652413
-0.000678081
-0.000703989
-0.00073013
-0.000756479
-0.000783006
-0.000809681
-0.000836484
-0.000863407
-0.000890447
-0.000917588
-0.000944799
-0.000972042
-0.000999283
-0.00102651
-0.00105373
-0.00108092
-0.00110808
-0.00113517
-0.00116217
-0.00118904
-0.00121576
-0.00124234
-0.00126875
-0.00129499
-0.00132102
-0.00134684
-0.00137239
-0.00139767
-0.00142267
-0.00144737
-0.00147176
-0.00149582
-0.00151954
-0.00154288
-0.00156583
-0.00158837
-0.00161046
-0.00163211
-0.0016533
-0.00167402
-0.00169424
-0.00171396
-0.00173314
-0.00175178
-0.00176986
-0.00178735
-0.00180424
-0.00182054
-0.00183622
-0.00185129
-0.00186572
-0.00187949
-0.0018926
-0.00190502
-0.00191675
-0.00192779
-0.00193813
-0.00194778
-0.00195673
-0.00196497
-0.00197249
-0.0019793
-0.00198538
-0.00199073
-0.00199537
-0.0019993
-0.00200253
-0.00200508
-0.00200695
-0.00200816
-0.00200872
-0.00200864
-0.00200794
-0.00200664
-0.00200475
-0.00200231
-0.00199934
-0.00199587
-0.00199195
-0.00198759
-0.00198283
-0.0019777
-0.00197223
-0.00196643
-0.00196034
-0.00195398
-0.00194738
-0.00194057
-0.00193357
-0.00192643
-0.00191921
-0.00191128
-0.00190211
-0.000113033
-0.000102642
-9.39878e-05
-8.62793e-05
-7.88399e-05
-7.17322e-05
-6.49611e-05
-5.84672e-05
-5.22615e-05
-4.63977e-05
-4.08968e-05
-3.57525e-05
-3.09841e-05
-2.66277e-05
-2.27203e-05
-1.92846e-05
-1.63316e-05
-1.38889e-05
-1.19853e-05
-1.06416e-05
-9.88013e-06
-9.71326e-06
-1.01551e-05
-1.12268e-05
-1.29477e-05
-1.53278e-05
-1.83639e-05
-2.20656e-05
-2.64597e-05
-3.15563e-05
-3.73439e-05
-4.38098e-05
-5.09688e-05
-5.88454e-05
-6.74341e-05
-7.6707e-05
-8.66452e-05
-9.72659e-05
-0.000108587
-0.000120596
-0.000133269
-0.000146581
-0.000160527
-0.000175122
-0.000190365
-0.000206231
-0.000222688
-0.000239718
-0.000257327
-0.000275516
-0.000294265
-0.000313545
-0.00033333
-0.000353605
-0.000374371
-0.000395625
-0.000417345
-0.000439503
-0.000462065
-0.000485007
-0.000508324
-0.000532015
-0.000556068
-0.00058046
-0.000605153
-0.000630119
-0.000655342
-0.000680813
-0.000706525
-0.000732465
-0.000758607
-0.000784917
-0.000811373
-0.00083796
-0.000864672
-0.000891505
-0.000918434
-0.000945423
-0.000972437
-0.00099945
-0.00102646
-0.00105346
-0.00108044
-0.00110738
-0.00113426
-0.00116104
-0.00118769
-0.0012142
-0.00124057
-0.00126678
-0.00129282
-0.00131865
-0.00134426
-0.00136962
-0.0013947
-0.00141951
-0.00144403
-0.00146824
-0.00149213
-0.00151568
-0.00153885
-0.00156164
-0.00158401
-0.00160595
-0.00162745
-0.0016485
-0.00166908
-0.00168917
-0.00170877
-0.00172784
-0.00174636
-0.00176433
-0.00178173
-0.00179854
-0.00181476
-0.00183038
-0.00184539
-0.00185977
-0.0018735
-0.00188656
-0.00189896
-0.00191068
-0.00192172
-0.00193207
-0.00194174
-0.00195071
-0.00195898
-0.00196656
-0.00197342
-0.00197956
-0.00198499
-0.00198971
-0.00199373
-0.00199706
-0.00199971
-0.00200169
-0.00200301
-0.00200368
-0.00200371
-0.00200312
-0.00200192
-0.00200013
-0.00199777
-0.00199488
-0.00199147
-0.00198758
-0.00198324
-0.00197847
-0.00197329
-0.00196773
-0.0019618
-0.00195552
-0.00194892
-0.00194202
-0.00193483
-0.00192737
-0.0019197
-0.00191186
-0.00190315
-0.00189297
-0.000122965
-0.000111511
-0.000102023
-9.36632e-05
-8.56188e-05
-7.79546e-05
-7.07155e-05
-6.3852e-05
-5.73516e-05
-5.12389e-05
-4.55272e-05
-4.02201e-05
-3.5349e-05
-3.09317e-05
-2.69841e-05
-2.35323e-05
-2.05888e-05
-1.81773e-05
-1.63236e-05
-1.50443e-05
-1.4353e-05
-1.42562e-05
-1.47736e-05
-1.59345e-05
-1.77472e-05
-2.02055e-05
-2.33146e-05
-2.70978e-05
-3.15768e-05
-3.6744e-05
-4.25853e-05
-4.91058e-05
-5.6329e-05
-6.42606e-05
-7.28795e-05
-8.21684e-05
-9.21239e-05
-0.000102766
-0.000114101
-0.000126106
-0.000138755
-0.000152038
-0.000165959
-0.000180529
-0.000195734
-0.000211541
-0.000227926
-0.000244886
-0.000262426
-0.000280539
-0.000299198
-0.000318377
-0.000338055
-0.000358221
-0.000378874
-0.00040001
-0.000421604
-0.000443627
-0.000466045
-0.000488838
-0.000512006
-0.000535547
-0.000559445
-0.000583672
-0.000608193
-0.000632981
-0.000658025
-0.000683318
-0.000708852
-0.000734609
-0.00076056
-0.000786672
-0.000812927
-0.000839318
-0.000865842
-0.000892484
-0.000919216
-0.000945999
-0.000972802
-0.000999611
-0.00102642
-0.00105323
-0.00108001
-0.00110676
-0.00113344
-0.00116001
-0.00118647
-0.00121279
-0.00123897
-0.001265
-0.00129086
-0.00131651
-0.00134193
-0.00136711
-0.00139203
-0.00141667
-0.00144102
-0.00146507
-0.0014888
-0.00151219
-0.00153522
-0.00155786
-0.00158008
-0.00160189
-0.00162325
-0.00164417
-0.00166463
-0.00168462
-0.0017041
-0.00172306
-0.00174149
-0.00175937
-0.00177668
-0.00179342
-0.00180958
-0.00182515
-0.00184011
-0.00185445
-0.00186814
-0.00188118
-0.00189356
-0.00190528
-0.00191632
-0.00192669
-0.00193638
-0.00194538
-0.0019537
-0.00196131
-0.00196823
-0.00197444
-0.00197994
-0.00198474
-0.00198885
-0.00199227
-0.00199502
-0.0019971
-0.00199852
-0.00199929
-0.00199942
-0.00199892
-0.0019978
-0.00199609
-0.0019938
-0.00199095
-0.00198757
-0.0019837