/*--------------------------------*- C++ -*----------------------------------*\
  =========                 |
  \\      /  F ield         | OpenFOAM: The Open Source CFD Toolbox
   \\    /   O peration     | Website:  https://openfoam.org
    \\  /    A nd           | Version:  7
     \\/     M anipulation  |
\*---------------------------------------------------------------------------*/
FoamFile
{
    version     2.0;
    format      ascii;
    class       surfaceScalarField;
    location    "0.2125";
    object      phi;
}
// * * * * * * * * * * * * * * * * * * * * * * * * * * * * * * * * * * * * * //

dimensions      [0 3 -1 0 0 0 0];

internalField   nonuniform List<scalar> 
101920
(
5.27898e-14
1.0477e-13
-2.18429e-13
2.66219e-13
-6.58111e-13
4.43041e-13
-1.05967e-12
4.01598e-13
-1.31266e-12
2.47988e-13
-1.35441e-12
4.84728e-14
-1.18521e-12
-1.71152e-13
-7.90487e-13
-3.9821e-13
-1.67866e-13
-6.17692e-13
6.65759e-13
-8.38271e-13
1.70968e-12
-1.04782e-12
2.95816e-12
-1.24757e-12
4.39549e-12
-1.44245e-12
6.02195e-12
-1.6236e-12
7.82247e-12
-1.79795e-12
9.78587e-12
-1.96433e-12
1.19074e-11
-2.11907e-12
1.41715e-11
-2.26366e-12
1.65624e-11
-2.39933e-12
1.9081e-11
-2.52197e-12
2.17139e-11
-2.63331e-12
2.44466e-11
-2.7374e-12
2.72757e-11
-2.83053e-12
3.01888e-11
-2.91232e-12
3.31726e-11
-2.98627e-12
3.62225e-11
-3.04927e-12
3.93312e-11
-3.10262e-12
4.24872e-11
-3.15211e-12
4.56813e-11
-3.19438e-12
4.89074e-11
-3.22568e-12
5.21584e-11
-3.24931e-12
5.5426e-11
-3.26753e-12
5.87045e-11
-3.27808e-12
6.1986e-11
-3.28114e-12
6.52636e-11
-3.27815e-12
6.8532e-11
-3.27008e-12
7.17867e-11
-3.25601e-12
7.5022e-11
-3.23509e-12
7.82317e-11
-3.20919e-12
8.14107e-11
-3.18046e-12
8.45548e-11
-3.14731e-12
8.76607e-11
-3.10703e-12
9.07242e-11
-3.061e-12
9.37403e-11
-3.01301e-12
9.67061e-11
-2.96426e-12
9.96192e-11
-2.91283e-12
1.02475e-10
-2.85673e-12
1.05269e-10
-2.79625e-12
1.08e-10
-2.7329e-12
1.10667e-10
-2.66744e-12
1.13267e-10
-2.59947e-12
1.15797e-10
-2.52884e-12
1.18254e-10
-2.45613e-12
1.20636e-10
-2.38207e-12
1.22942e-10
-2.3067e-12
1.25171e-10
-2.22966e-12
1.27321e-10
-2.15016e-12
1.29388e-10
-2.06815e-12
1.31373e-10
-1.98488e-12
1.33274e-10
-1.90116e-12
1.35091e-10
-1.81627e-12
1.36821e-10
-1.72983e-12
1.38462e-10
-1.64212e-12
1.40015e-10
-1.55342e-12
1.41479e-10
-1.46431e-12
1.42856e-10
-1.37501e-12
1.44141e-10
-1.28545e-12
1.45336e-10
-1.19507e-12
1.46437e-10
-1.10287e-12
1.47446e-10
-1.00899e-12
1.48362e-10
-9.14941e-13
1.49185e-10
-8.21921e-13
1.49915e-10
-7.29694e-13
1.50551e-10
-6.36796e-13
1.51092e-10
-5.42192e-13
1.51538e-10
-4.46319e-13
1.5189e-10
-3.50292e-13
1.52146e-10
-2.55072e-13
1.52307e-10
-1.60752e-13
1.52372e-10
-6.64196e-14
1.52343e-10
2.87877e-14
1.52219e-10
1.24769e-13
1.51999e-10
2.20756e-13
1.51684e-10
3.16039e-13
1.51273e-10
4.10602e-13
1.50767e-10
5.05113e-13
1.50167e-10
6.00037e-13
1.49473e-10
6.94946e-13
1.48685e-10
7.89098e-13
1.47803e-10
8.82333e-13
1.46827e-10
9.75057e-13
1.45758e-10
1.06772e-12
1.44598e-10
1.16017e-12
1.43347e-10
1.25177e-12
1.42006e-10
1.34231e-12
1.40574e-10
1.4321e-12
1.39051e-10
1.52143e-12
1.3744e-10
1.61028e-12
1.35742e-10
1.69826e-12
1.33958e-10
1.78493e-12
1.32088e-10
1.87015e-12
1.30134e-10
1.95402e-12
1.28097e-10
2.03673e-12
1.25978e-10
2.11835e-12
1.2378e-10
2.19857e-12
1.21503e-10
2.27711e-12
1.19149e-10
2.35378e-12
1.16722e-10
2.42833e-12
1.14221e-10
2.50064e-12
1.11651e-10
2.57078e-12
1.09012e-10
2.63871e-12
1.06308e-10
2.70431e-12
1.03541e-10
2.76742e-12
1.00713e-10
2.82777e-12
9.78289e-11
2.88499e-12
9.48907e-11
2.93869e-12
9.19021e-11
2.98871e-12
8.88666e-11
3.03523e-12
8.57878e-11
3.0784e-12
8.26695e-11
3.11808e-12
7.95161e-11
3.15372e-12
7.63319e-11
3.18477e-12
7.31215e-11
3.21086e-12
6.98896e-11
3.23193e-12
6.66411e-11
3.24808e-12
6.33816e-11
3.25905e-12
6.01169e-11
3.2645e-12
5.68529e-11
3.26415e-12
5.35957e-11
3.25755e-12
5.03515e-11
3.24434e-12
4.71269e-11
3.22438e-12
4.39292e-11
3.19736e-12
4.07661e-11
3.16299e-12
3.76451e-11
3.12097e-12
3.45744e-11
3.07087e-12
3.15624e-11
3.01218e-12
2.86179e-11
2.94453e-12
2.575e-11
2.8678e-12
2.29679e-11
2.78187e-12
2.02812e-11
2.68649e-12
1.76997e-11
2.58123e-12
1.52343e-11
2.46548e-12
1.2896e-11
2.33867e-12
1.06957e-11
2.20055e-12
8.64434e-12
2.05118e-12
6.75286e-12
1.89079e-12
5.03283e-12
1.71935e-12
3.49562e-12
1.5367e-12
2.1521e-12
1.34313e-12
1.0126e-12
1.13931e-12
8.60374e-14
9.26447e-13
-6.2045e-13
7.06469e-13
-1.10232e-12
4.82067e-13
-1.35988e-12
2.57604e-13
-1.40073e-12
4.05498e-14
-1.24377e-12
-1.57261e-13
-9.2743e-13
-3.16636e-13
-5.22524e-13
-4.05179e-13
-1.53614e-13
-3.68994e-13
-1.53559e-13
-2.32498e-13
3.32896e-13
-7.69967e-13
8.0783e-13
-1.39636e-12
1.07498e-12
-1.86779e-12
8.76456e-13
-1.9972e-12
3.74497e-13
-1.65684e-12
-2.83213e-13
-8.02848e-13
-1.03229e-12
6.16541e-13
-1.80594e-12
2.5993e-12
-2.59979e-12
5.15455e-12
-3.38945e-12
8.27874e-12
-4.16311e-12
1.19481e-11
-4.92023e-12
1.61575e-11
-5.64755e-12
2.08799e-11
-6.34593e-12
2.60867e-11
-7.0123e-12
3.17633e-11
-7.63797e-12
3.78784e-11
-8.22764e-12
4.43979e-11
-8.78161e-12
5.13043e-11
-9.29578e-12
5.85643e-11
-9.7713e-12
6.61425e-11
-1.02124e-11
7.40216e-11
-1.06121e-11
8.21741e-11
-1.09735e-11
9.05641e-11
-1.13036e-11
9.91686e-11
-1.15956e-11
1.07967e-10
-1.18477e-11
1.16928e-10
-1.20681e-11
1.26028e-10
-1.22578e-11
1.35248e-10
-1.24134e-11
1.44562e-10
-1.25384e-11
1.53947e-10
-1.26359e-11
1.63382e-10
-1.27051e-11
1.7285e-10
-1.27446e-11
1.8233e-10
-1.2758e-11
1.91804e-10
-1.27496e-11
2.01252e-10
-1.27193e-11
2.10661e-10
-1.26646e-11
2.20015e-10
-1.25863e-11
2.29298e-10
-1.24889e-11
2.38496e-10
-1.23758e-11
2.47596e-10
-1.22457e-11
2.56585e-10
-1.20968e-11
2.65451e-10
-1.19305e-11
2.74181e-10
-1.17492e-11
2.8277e-10
-1.15537e-11
2.91206e-10
-1.13447e-11
2.99478e-10
-1.11241e-11
3.07576e-10
-1.08929e-11
3.15494e-10
-1.06507e-11
3.23225e-10
-1.03977e-11
3.30761e-10
-1.01346e-11
3.38093e-10
-9.862e-12
3.45216e-10
-9.58037e-12
3.52126e-10
-9.2912e-12
3.58816e-10
-8.99509e-12
3.65281e-10
-8.69223e-12
3.71515e-10
-8.38293e-12
3.77513e-10
-8.06726e-12
3.83273e-10
-7.74533e-12
3.8879e-10
-7.41791e-12
3.94062e-10
-7.08563e-12
3.99082e-10
-6.74918e-12
4.03849e-10
-6.40908e-12
4.08359e-10
-6.06502e-12
4.12613e-10
-5.71743e-12
4.16606e-10
-5.36722e-12
4.20337e-10
-5.01478e-12
4.23802e-10
-4.65983e-12
4.27002e-10
-4.30142e-12
4.29932e-10
-3.93943e-12
4.32592e-10
-3.57531e-12
4.34981e-10
-3.21054e-12
4.37098e-10
-2.84547e-12
4.38941e-10
-2.47916e-12
4.4051e-10
-2.11058e-12
4.41804e-10
-1.73987e-12
4.42822e-10
-1.36796e-12
4.43563e-10
-9.9598e-13
4.44028e-10
-6.24699e-13
4.44216e-10
-2.53808e-13
4.44127e-10
1.17628e-13
4.43762e-10
4.90067e-13
4.4312e-10
8.62981e-13
4.42201e-10
1.23521e-12
4.41006e-10
1.60595e-12
4.39535e-10
1.97543e-12
4.3779e-10
2.34443e-12
4.35771e-10
2.71306e-12
4.33479e-10
3.0804e-12
4.30916e-10
3.44562e-12
4.28082e-10
3.8085e-12
4.2498e-10
4.16931e-12
4.2161e-10
4.52835e-12
4.17975e-10
4.88539e-12
4.14077e-10
5.23996e-12
4.09917e-10
5.5916e-12
4.05499e-10
5.93988e-12
4.00823e-10
6.28453e-12
3.95894e-10
6.62548e-12
3.90715e-10
6.96256e-12
3.85289e-10
7.29534e-12
3.79619e-10
7.6231e-12
3.73709e-10
7.94529e-12
3.67565e-10
8.26184e-12
3.61189e-10
8.57263e-12
3.54588e-10
8.87706e-12
3.47767e-10
9.17429e-12
3.40731e-10
9.46353e-12
3.33486e-10
9.74437e-12
3.26039e-10
1.00167e-11
3.18396e-10
1.028e-11
3.10566e-10
1.05336e-11
3.02557e-10
1.07767e-11
2.94374e-10
1.10086e-11
2.86028e-10
1.1229e-11
2.77528e-10
1.1437e-11
2.68884e-10
1.16316e-11
2.60106e-10
1.18121e-11
2.51206e-10
1.19779e-11
2.42194e-10
1.21284e-11
2.33083e-10
1.22629e-11
2.23885e-10
1.23804e-11
2.14615e-10
1.24799e-11
2.05285e-10
1.25605e-11
1.9591e-10
1.26212e-11
1.86507e-10
1.26611e-11
1.77091e-10
1.2679e-11
1.67679e-10
1.26742e-11
1.5829e-10
1.26456e-11
1.48941e-10
1.25919e-11
1.39652e-10
1.25118e-11
1.30444e-10
1.24042e-11
1.21338e-10
1.22681e-11
1.12355e-10
1.21025e-11
1.03519e-10
1.19058e-11
9.48533e-11
1.16767e-11
8.63825e-11
1.14139e-11
7.81322e-11
1.11167e-11
7.01289e-11
1.07841e-11
6.23994e-11
1.0415e-11
5.49711e-11
1.00081e-11
4.78727e-11
9.56209e-12
4.11336e-11
9.07623e-12
3.47832e-11
8.54993e-12
2.88512e-11
7.9827e-12
2.33667e-11
7.37451e-12
1.83588e-11
6.72596e-12
1.38559e-11
6.0383e-12
9.88419e-12
5.31377e-12
6.4672e-12
4.55578e-12
3.62398e-12
3.76946e-12
1.36699e-12
2.96295e-12
-2.99893e-13
2.14836e-12
-1.3862e-12
1.34346e-12
-1.92118e-12
5.75007e-13
-1.96154e-12
-1.17301e-13
-1.60364e-12
-6.74597e-13
-9.98711e-13
-1.01018e-12
-3.64737e-13
-1.00291e-12
-5.18172e-13
-3.39468e-13
6.80807e-13
-9.74556e-13
1.43728e-12
-1.53035e-12
1.62846e-12
-1.74198e-12
1.08505e-12
-1.39983e-12
3.93384e-14
-3.82963e-13
-1.31175e-12
1.41421e-12
-2.82341e-12
4.03633e-12
-4.43582e-12
7.51889e-12
-6.08818e-12
1.18784e-11
-7.74366e-12
1.71015e-11
-9.39093e-12
2.3183e-11
-1.09998e-11
3.00997e-11
-1.25587e-11
3.78145e-11
-1.40656e-11
4.63066e-11
-1.55014e-11
5.553e-11
-1.68634e-11
6.54413e-11
-1.81498e-11
7.60099e-11
-1.9353e-11
8.71893e-11
-2.04728e-11
9.89286e-11
-2.1516e-11
1.11189e-10
-2.2476e-11
1.2393e-10
-2.33502e-11
1.37102e-10
-2.41463e-11
1.50663e-10
-2.48642e-11
1.64577e-10
-2.55011e-11
1.78798e-10
-2.6063e-11
1.93281e-10
-2.65537e-11
2.07993e-10
-2.69702e-11
2.22898e-10
-2.73151e-11
2.37956e-10
-2.75946e-11
2.53131e-10
-2.78119e-11
2.6839e-10
-2.79654e-11
2.83703e-10
-2.80571e-11
2.99036e-10
-2.80925e-11
3.14361e-10
-2.80757e-11
3.2965e-10
-2.80084e-11
3.44876e-10
-2.78908e-11
3.60013e-10
-2.77253e-11
3.75037e-10
-2.75164e-11
3.89926e-10
-2.72659e-11
4.04661e-10
-2.69754e-11
4.19217e-10
-2.66483e-11
4.33575e-10
-2.62878e-11
4.47718e-10
-2.58943e-11
4.6163e-10
-2.54677e-11
4.75295e-10
-2.50106e-11
4.88695e-10
-2.45263e-11
5.01819e-10
-2.40167e-11
5.14652e-10
-2.34829e-11
5.27181e-10
-2.29259e-11
5.39395e-10
-2.23475e-11
5.51282e-10
-2.17487e-11
5.6283e-10
-2.11304e-11
5.74033e-10
-2.04944e-11
5.84879e-10
-1.98419e-11
5.95361e-10
-1.91738e-11
6.05469e-10
-1.84915e-11
6.15198e-10
-1.77958e-11
6.24539e-10
-1.70872e-11
6.33488e-10
-1.63666e-11
6.42037e-10
-1.5635e-11
6.50181e-10
-1.48934e-11
6.57914e-10
-1.41428e-11
6.65234e-10
-1.33839e-11
6.72135e-10
-1.26177e-11
6.78612e-10
-1.18452e-11
6.84662e-10
-1.10664e-11
6.90283e-10
-1.02812e-11
6.95472e-10
-9.48931e-12
7.00226e-10
-8.69193e-12
7.04541e-10
-7.89036e-12
7.08415e-10
-7.08538e-12
7.11846e-10
-6.27729e-12
7.14833e-10
-5.46599e-12
7.17375e-10
-4.65147e-12
7.19471e-10
-3.83431e-12
7.21118e-10
-3.01523e-12
7.22317e-10
-2.19501e-12
7.23066e-10
-1.37438e-12
7.23366e-10
-5.53571e-13
7.23218e-10
2.67533e-13
7.2262e-10
1.08905e-12
7.21572e-10
1.91058e-12
7.20075e-10
2.73124e-12
7.1813e-10
3.55034e-12
7.1574e-10
4.36739e-12
7.12904e-10
5.18202e-12
7.09623e-10
5.99402e-12
7.05899e-10
6.80312e-12
7.01734e-10
7.60894e-12
6.97132e-10
8.41093e-12
6.92095e-10
9.20828e-12
6.86624e-10
1.00004e-11
6.80722e-10
1.07871e-11
6.74392e-10
1.15683e-11
6.67639e-10
1.23437e-11
6.60467e-10
1.31122e-11
6.5288e-10
1.38724e-11
6.44883e-10
1.46238e-11
6.3648e-10
1.53659e-11
6.27676e-10
1.60982e-11
6.18479e-10
1.68196e-11
6.08895e-10
1.75291e-11
5.98931e-10
1.8226e-11
5.88595e-10
1.89095e-11
5.77894e-10
1.95786e-11
5.66837e-10
2.02315e-11
5.55434e-10
2.08671e-11
5.43694e-10
2.14842e-11
5.31628e-10
2.20823e-11
5.19249e-10
2.26602e-11
5.06567e-10
2.32164e-11
4.93595e-10
2.37493e-11
4.80347e-10
2.42576e-11
4.66836e-10
2.47397e-11
4.53078e-10
2.51943e-11
4.39089e-10
2.56199e-11
4.24886e-10
2.60149e-11
4.10487e-10
2.63775e-11
3.95911e-10
2.67059e-11
3.81176e-10
2.69979e-11
3.66304e-10
2.72521e-11
3.51317e-10
2.74669e-11
3.36237e-10
2.76404e-11
3.21087e-10
2.77703e-11
3.05895e-10
2.78543e-11
2.90684e-10
2.78897e-11
2.75484e-10
2.78747e-11
2.60322e-10
2.78072e-11
2.45228e-10
2.76849e-11
2.30235e-10
2.7505e-11
2.15374e-10
2.72651e-11
2.00679e-10
2.6963e-11
1.86186e-10
2.65962e-11
1.7193e-10
2.61619e-11
1.57949e-10
2.56573e-11
1.44282e-10
2.508e-11
1.3097e-10
2.44284e-11
1.18053e-10
2.37004e-11
1.05575e-10
2.28936e-11
9.35775e-11
2.20055e-11
8.21056e-11
2.1034e-11
7.12033e-11
1.9978e-11
6.09155e-11
1.88369e-11
5.1287e-11
1.76105e-11
4.23619e-11
1.6299e-11
3.41828e-11
1.49043e-11
2.67904e-11
1.343e-11
2.02216e-11
1.18821e-11
1.45082e-11
1.02691e-11
9.67452e-12
8.60335e-12
5.73432e-12
6.90313e-12
2.68722e-12
5.19507e-12
5.13425e-13
3.51687e-12
-8.34131e-13
1.92193e-12
-1.43802e-12
4.8588e-13
-1.42783e-12
-6.85141e-13
-9.93514e-13
-1.44472e-12
-3.964e-13
-1.60018e-12
-9.14414e-13
-3.70752e-13
1.05078e-12
-9.06876e-13
1.97355e-12
-1.18163e-12
1.90416e-12
-9.05545e-13
8.14319e-13
1.17015e-13
-9.90554e-13
2.05404e-12
-3.23938e-12
4.99211e-12
-5.76597e-12
9.01236e-12
-8.45172e-12
1.41478e-11
-1.1218e-11
2.04112e-11
-1.40147e-11
2.78133e-11
-1.67919e-11
3.63339e-11
-1.95169e-11
4.59402e-11
-2.21709e-11
5.66085e-11
-2.47295e-11
6.82943e-11
-2.71797e-11
8.09465e-11
-2.95149e-11
9.45196e-11
-3.17218e-11
1.08961e-10
-3.37911e-11
1.24213e-10
-3.57252e-11
1.40219e-10
-3.75225e-11
1.56925e-10
-3.91775e-11
1.74269e-10
-4.06948e-11
1.92192e-10
-4.20759e-11
2.10644e-10
-4.33172e-11
2.29568e-10
-4.44231e-11
2.48904e-10
-4.54008e-11
2.68602e-10
-4.62514e-11
2.88609e-10
-4.69756e-11
3.08872e-10
-4.75791e-11
3.29344e-10
-4.80681e-11
3.49979e-10
-4.84453e-11
3.7073e-10
-4.87137e-11
3.91553e-10
-4.88788e-11
4.12405e-10
-4.8946e-11
4.33248e-10
-4.89197e-11
4.54045e-10
-4.8803e-11
4.74759e-10
-4.86011e-11
4.95353e-10
-4.83198e-11
5.15796e-10
-4.7962e-11
5.36059e-10
-4.75298e-11
5.5611e-10
-4.70272e-11
5.75921e-10
-4.64599e-11
5.95466e-10
-4.58326e-11
6.14723e-10
-4.51479e-11
6.33666e-10
-4.44082e-11
6.52273e-10
-4.36167e-11
6.70521e-10
-4.27767e-11
6.88394e-10
-4.18907e-11
7.05874e-10
-4.09619e-11
7.22941e-10
-3.99928e-11
7.3958e-10
-3.89854e-11
7.55774e-10
-3.79423e-11
7.71509e-10
-3.68658e-11
7.86774e-10
-3.57582e-11
8.01555e-10
-3.46216e-11
8.15838e-10
-3.34577e-11
8.29614e-10
-3.22681e-11
8.42873e-10
-3.10546e-11
8.55606e-10
-2.98188e-11
8.67804e-10
-2.85629e-11
8.79456e-10
-2.72883e-11
8.90557e-10
-2.59956e-11
9.011e-10
-2.46859e-11
9.11079e-10
-2.3361e-11
9.20486e-10
-2.20234e-11
9.29316e-10
-2.06746e-11
9.37563e-10
-1.93147e-11
9.45225e-10
-1.79434e-11
9.52297e-10
-1.65609e-11
9.58775e-10
-1.5169e-11
9.64655e-10
-1.37696e-11
9.69934e-10
-1.23639e-11
9.74608e-10
-1.09521e-11
9.78676e-10
-9.53448e-12
9.82137e-10
-8.11152e-12
9.84988e-10
-6.68455e-12
9.87229e-10
-5.25484e-12
9.88857e-10
-3.82319e-12
9.89871e-10
-2.39008e-12
9.90274e-10
-9.55808e-13
9.90063e-10
4.79107e-13
9.8924e-10
1.91384e-12
9.87802e-10
3.34757e-12
9.85753e-10
4.77961e-12
9.83092e-10
6.20953e-12
9.79824e-10
7.63658e-12
9.75947e-10
9.05944e-12
9.71465e-10
1.0477e-11
9.66378e-10
1.18888e-11
9.60691e-10
1.32948e-11
9.54406e-10
1.46945e-11
9.47528e-10
1.60867e-11
9.40059e-10
1.74698e-11
9.32003e-10
1.88431e-11
9.23365e-10
2.02059e-11
9.1415e-10
2.15577e-11
9.04363e-10
2.28972e-11
8.94012e-10
2.4223e-11
8.83102e-10
2.55335e-11
8.71641e-10
2.68275e-11
8.59635e-10
2.81033e-11
8.47094e-10
2.93597e-11
8.34027e-10
3.05954e-11
8.20443e-10
3.18091e-11
8.06353e-10
3.2999e-11
7.91768e-10
3.4163e-11
7.767e-10
3.52988e-11
7.61162e-10
3.64043e-11
7.45168e-10
3.74779e-11
7.28732e-10
3.85176e-11
7.1187e-10
3.95216e-11
6.94598e-10
4.04875e-11
6.76934e-10
4.14129e-11
6.58896e-10
4.22953e-11
6.40503e-10
4.3132e-11
6.21777e-10
4.39201e-11
6.02739e-10
4.46572e-11
5.83412e-10
4.53407e-11
5.63821e-10
4.59679e-11
5.43991e-10
4.65353e-11
5.23949e-10
4.70395e-11
5.03723e-10
4.74774e-11
4.83343e-10
4.78463e-11
4.62839e-10
4.81427e-11
4.42245e-10
4.83631e-11
4.21595e-10
4.85035e-11
4.00925e-10
4.85599e-11
3.8027e-10
4.85287e-11
3.59671e-10
4.8406e-11
3.39167e-10
4.81879e-11
3.18801e-10
4.78701e-11
2.98616e-10
4.74487e-11
2.78659e-10
4.69198e-11
2.58975e-10
4.62792e-11
2.39614e-10
4.55223e-11
2.20625e-10
4.46451e-11
2.02061e-10
4.36435e-11
1.83974e-10
4.25143e-11
1.66419e-10
4.12543e-11
1.49452e-10
3.98599e-11
1.33129e-10
3.83276e-11
1.17508e-10
3.66548e-11
1.02646e-10
3.48396e-11
8.86009e-11
3.28817e-11
7.5429e-11
3.07815e-11
6.31862e-11
2.85407e-11
5.19259e-11
2.61635e-11
4.16979e-11
2.36573e-11
3.25463e-11
2.10331e-11
2.45082e-11
1.83068e-11
1.76111e-11
1.55005e-11
1.18682e-11
1.26459e-11
7.27519e-12
9.78751e-12
3.80468e-12
6.98679e-12
1.39879e-12
4.32736e-12
-3.91517e-14
1.92329e-12
-6.53944e-13
-7.06635e-14
-6.5036e-13
-1.44848e-12
-3.05774e-13
-1.94519e-12
-1.22023e-12
-3.03839e-13
1.35502e-12
-5.7764e-13
2.24283e-12
-3.74742e-13
1.70354e-12
5.91346e-13
-1.48736e-13
2.52283e-12
-2.92192e-12
5.57641e-12
-6.29378e-12
9.86205e-12
-1.00511e-11
1.54496e-11
-1.40369e-11
2.23786e-11
-1.81502e-11
3.06717e-11
-2.23062e-11
4.03281e-11
-2.64438e-11
5.1326e-11
-3.05177e-11
6.36404e-11
-3.44872e-11
7.72318e-11
-3.83212e-11
9.2049e-11
-4.20011e-11
1.08043e-10
-4.55093e-11
1.25155e-10
-4.88295e-11
1.43319e-10
-5.19556e-11
1.62471e-10
-5.48807e-11
1.82548e-10
-5.75961e-11
2.03479e-10
-6.0104e-11
2.25191e-10
-6.24074e-11
2.47618e-10
-6.45023e-11
2.70694e-10
-6.63899e-11
2.94346e-10
-6.80767e-11
3.1851e-10
-6.95664e-11
3.43122e-10
-7.08609e-11
3.68115e-10
-7.19669e-11
3.93426e-10
-7.28917e-11
4.18996e-10
-7.36402e-11
4.44768e-10
-7.42172e-11
4.70686e-10
-7.46294e-11
4.96694e-10
-7.4886e-11
5.2274e-10
-7.49938e-11
5.48777e-10
-7.49573e-11
5.74757e-10
-7.47824e-11
6.00633e-10
-7.44776e-11
6.26365e-10
-7.40506e-11
6.51912e-10
-7.35067e-11
6.77234e-10
-7.285e-11
7.02294e-10
-7.20871e-11
7.27055e-10
-7.12246e-11
7.51488e-10
-7.02674e-11
7.75563e-10
-6.9221e-11
7.99247e-10
-6.80907e-11
8.22512e-10
-6.68818e-11
8.45333e-10
-6.55981e-11
8.67687e-10
-6.42438e-11
8.89549e-10
-6.28233e-11
9.10897e-10
-6.13406e-11
9.31709e-10
-5.97987e-11
9.51968e-10
-5.82016e-11
9.71656e-10
-5.6553e-11
9.90755e-10
-5.48562e-11
1.00925e-09
-5.31147e-11
1.02712e-09
-5.13314e-11
1.04436e-09
-4.95085e-11
1.06095e-09
-4.76482e-11
1.07689e-09
-4.57532e-11
1.09216e-09
-4.38272e-11
1.10674e-09
-4.18726e-11
1.12063e-09
-3.98904e-11
1.13383e-09
-3.7882e-11
1.14632e-09
-3.58498e-11
1.15809e-09
-3.37971e-11
1.16914e-09
-3.1726e-11
1.17947e-09
-2.96372e-11
1.18906e-09
-2.75315e-11
1.19791e-09
-2.54098e-11
1.20601e-09
-2.32737e-11
1.21337e-09
-2.11255e-11
1.21997e-09
-1.89666e-11
1.22582e-09
-1.67982e-11
1.2309e-09
-1.46211e-11
1.23523e-09
-1.24364e-11
1.23879e-09
-1.02455e-11
1.24158e-09
-8.05028e-12
1.24361e-09
-5.85193e-12
1.24487e-09
-3.65124e-12
1.24537e-09
-1.44862e-12
1.24509e-09
7.55078e-13
1.24405e-09
2.95836e-12
1.24224e-09
5.15976e-12
1.23966e-09
7.35817e-12
1.23631e-09
9.55296e-12
1.23221e-09
1.17434e-11
1.22734e-09
1.39277e-11
1.22171e-09
1.61043e-11
1.21533e-09
1.8272e-11
1.20819e-09
2.04301e-11
1.20031e-09
2.25779e-11
1.19168e-09
2.4714e-11
1.18231e-09
2.68368e-11
1.17221e-09
2.89445e-11
1.16138e-09
3.10358e-11
1.14983e-09
3.31091e-11
1.13757e-09
3.51629e-11
1.12459e-09
3.71955e-11
1.11092e-09
3.92048e-11
1.09656e-09
4.11883e-11
1.08152e-09
4.31438e-11
1.06581e-09
4.5069e-11
1.04944e-09
4.69622e-11
1.03243e-09
4.88211e-11
1.01479e-09
5.0643e-11
9.96525e-10
5.24245e-11
9.77661e-10
5.41625e-11
9.58211e-10
5.58542e-11
9.38191e-10
5.74969e-11
9.17622e-10
5.90875e-11
8.96521e-10
6.06224e-11
8.7491e-10
6.20984e-11
8.52811e-10
6.3512e-11
8.30246e-10
6.48595e-11
8.07241e-10
6.61369e-11
7.83821e-10
6.73398e-11
7.60014e-10
6.84641e-11
7.35849e-10
6.95058e-11
7.11356e-10
7.04605e-11
6.86568e-10
7.13234e-11
6.61517e-10
7.20897e-11
6.3624e-10
7.27545e-11
6.10774e-10
7.33131e-11
5.85156e-10
7.37603e-11
5.59428e-10
7.40905e-11
5.33633e-10
7.42983e-11
5.07814e-10
7.4378e-11
4.82018e-10
7.4324e-11
4.56294e-10
7.41303e-11
4.3069e-10
7.37908e-11
4.0526e-10
7.32997e-11
3.80058e-10
7.2651e-11
3.55138e-10
7.18389e-11
3.3056e-10
7.08572e-11
3.06382e-10
6.96998e-11
2.82666e-10
6.83605e-11
2.59474e-10
6.68341e-11
2.36873e-10
6.51154e-11
2.14927e-10
6.31995e-11
1.93704e-10
6.10818e-11
1.73273e-10
5.87582e-11
1.53701e-10
5.62257e-11
1.35058e-10
5.34825e-11
1.17411e-10
5.05284e-11
1.00827e-10
4.73649e-11
8.53708e-11
4.39962e-11
7.11035e-11
4.04298e-11
5.8082e-11
3.66781e-11
4.63564e-11
3.27585e-11
3.59671e-11
2.86958e-11
2.69433e-11
2.45241e-11
1.92985e-11
2.02905e-11
1.3026e-11
1.60593e-11
8.09465e-12
1.1917e-11
4.44237e-12
7.97868e-12
1.96833e-12
4.39656e-12
5.2553e-13
1.37176e-12
-8.90365e-14
-8.33932e-13
-1.45609e-13
-1.88901e-12
-1.36611e-12
-1.55726e-13
1.51893e-12
-1.63953e-14
2.1045e-12
8.39809e-13
8.40523e-13
2.68778e-12
-1.99482e-12
5.72206e-12
-5.95261e-12
1.00873e-11
-1.06605e-11
1.58913e-11
-1.58529e-11
2.32025e-11
-2.13512e-11
3.20651e-11
-2.70105e-11
4.24886e-11
-3.27298e-11
5.44739e-11
-3.84285e-11
6.79999e-11
-4.40428e-11
8.30347e-11
-4.95187e-11
9.95307e-11
-5.48179e-11
1.17438e-10
-5.99096e-11
1.36696e-10
-6.47656e-11
1.57239e-10
-6.93715e-11
1.78996e-10
-7.37143e-11
2.01895e-10
-7.77797e-11
2.25861e-10
-8.15612e-11
2.50813e-10
-8.50595e-11
2.76676e-10
-8.82711e-11
3.03372e-10
-9.11947e-11
3.30819e-10
-9.38358e-11
3.58939e-10
-9.61983e-11
3.87656e-10
-9.82839e-11
4.16896e-10
-1.00099e-10
4.46581e-10
-1.01652e-10
4.76641e-10
-1.02952e-10
5.07005e-10
-1.04005e-10
5.37606e-10
-1.04818e-10
5.68378e-10
-1.05401e-10
5.99257e-10
-1.05765e-10
6.30184e-10
-1.0592e-10
6.611e-10
-1.05872e-10
6.91949e-10
-1.05632e-10
7.22677e-10
-1.05208e-10
7.53236e-10
-1.04611e-10
7.83578e-10
-1.03846e-10
8.13656e-10
-1.02925e-10
8.43423e-10
-1.01855e-10
8.72841e-10
-1.00643e-10
9.01872e-10
-9.92975e-11
9.30477e-10
-9.78255e-11
9.5862e-10
-9.62346e-11
9.86269e-10
-9.45313e-11
1.01339e-09
-9.27222e-11
1.03996e-09
-9.08131e-11
1.06595e-09
-8.88099e-11
1.09133e-09
-8.67182e-11
1.11607e-09
-8.45429e-11
1.14016e-09
-8.22891e-11
1.16357e-09
-7.99618e-11
1.18628e-09
-7.7566e-11
1.20827e-09
-7.51066e-11
1.22953e-09
-7.25874e-11
1.25003e-09
-7.00117e-11
1.26977e-09
-6.73833e-11
1.28872e-09
-6.47063e-11
1.30688e-09
-6.19843e-11
1.32422e-09
-5.92203e-11
1.34075e-09
-5.64168e-11
1.35645e-09
-5.35771e-11
1.3713e-09
-5.07045e-11
1.38531e-09
-4.78019e-11
1.39845e-09
-4.48715e-11
1.41073e-09
-4.19151e-11
1.42213e-09
-3.89347e-11
1.43266e-09
-3.59325e-11
1.44229e-09
-3.29104e-11
1.45104e-09
-2.98706e-11
1.45889e-09
-2.68152e-11
1.46584e-09
-2.37459e-11
1.47188e-09
-2.06646e-11
1.47702e-09
-1.75727e-11
1.48124e-09
-1.44724e-11
1.48456e-09
-1.13656e-11
1.48696e-09
-8.25393e-12
1.48845e-09
-5.13869e-12
1.48902e-09
-2.02089e-12
1.48868e-09
1.0981e-12
1.48742e-09
4.2163e-12
1.48525e-09
7.33198e-12
1.48216e-09
1.04437e-11
1.47816e-09
1.355e-11
1.47326e-09
1.66492e-11
1.46745e-09
1.97396e-11
1.46073e-09
2.28194e-11
1.45311e-09
2.58872e-11
1.4446e-09
2.89413e-11
1.4352e-09
3.19801e-11
1.42491e-09
3.50016e-11
1.41375e-09
3.8004e-11
1.40171e-09
4.09853e-11
1.3888e-09
4.39433e-11
1.37503e-09
4.68754e-11
1.36042e-09
4.97792e-11
1.34496e-09
5.26522e-11
1.32867e-09
5.54917e-11
1.31156e-09
5.82946e-11
1.29365e-09
6.10575e-11
1.27494e-09
6.37775e-11
1.25545e-09
6.64518e-11
1.2352e-09
6.90769e-11
1.21419e-09
7.16489e-11
1.19245e-09
7.41632e-11
1.17e-09
7.66158e-11
1.14685e-09
7.9003e-11
1.12302e-09
8.13206e-11
1.09855e-09
8.3564e-11
1.07344e-09
8.57284e-11
1.04773e-09
8.78091e-11
1.02144e-09
8.9801e-11
9.946e-10
9.16989e-11
9.67239e-10
9.34974e-11
9.39388e-10
9.51906e-11
9.11079e-10
9.67727e-11
8.82347e-10
9.82377e-11
8.53229e-10
9.9579e-11
8.23762e-10
1.0079e-10
7.93987e-10
1.01865e-10
7.63945e-10
1.02796e-10
7.3368e-10
1.03577e-10
7.03239e-10
1.04201e-10
6.72669e-10
1.0466e-10
6.42022e-10
1.04945e-10
6.11349e-10
1.05051e-10
5.80706e-10
1.04967e-10
5.50147e-10
1.04688e-10
5.19734e-10
1.04203e-10
4.89527e-10
1.03506e-10
4.59589e-10
1.02589e-10
4.29986e-10
1.01442e-10
4.00784e-10
1.00058e-10
3.72055e-10
9.84288e-11
3.43868e-10
9.65464e-11
3.16297e-10
9.44039e-11
2.89417e-10
9.19944e-11
2.63305e-10
8.93114e-11
2.38037e-10
8.63491e-11
2.13692e-10
8.31028e-11
1.90347e-10
7.95697e-11
1.68081e-10
7.57484e-11
1.4697e-10
7.16393e-11
1.27088e-10
6.72457e-11
1.08509e-10
6.25749e-11
9.12989e-11
5.76387e-11
7.55211e-11
5.24552e-11
6.12298e-11
4.70496e-11
4.84688e-11
4.14565e-11
3.72689e-11
3.57235e-11
2.76448e-11
2.99142e-11
1.95903e-11
2.41132e-11
1.30746e-11
1.84318e-11
8.03704e-12
1.30153e-11
4.38048e-12
8.05192e-12
1.96592e-12
3.78543e-12
6.0504e-13
5.26675e-13
5.24532e-14
-1.33675e-12
-1.31398e-12
5.16855e-14
1.46043e-12
7.31421e-13
1.4277e-12
2.39348e-12
-8.27119e-13
5.28421e-12
-4.88803e-12
9.58256e-12
-1.02471e-11
1.54185e-11
-1.64951e-11
2.28867e-11
-2.33268e-11
3.2058e-11
-3.05201e-11
4.2961e-11
-3.79124e-11
5.56065e-11
-4.53759e-11
6.99847e-11
-5.28101e-11
8.60761e-11
-6.0133e-11
1.03839e-10
-6.72805e-11
1.23225e-10
-7.42045e-11
1.44177e-10
-8.08597e-11
1.66627e-10
-8.7216e-11
1.90504e-10
-9.32508e-11
2.15734e-10
-9.89426e-11
2.42236e-10
-1.04278e-10
2.69925e-10
-1.09251e-10
2.98716e-10
-1.13853e-10
3.28527e-10
-1.18081e-10
3.59269e-10
-1.21935e-10
3.90853e-10
-1.2542e-10
4.23193e-10
-1.28539e-10
4.56206e-10
-1.31295e-10
4.89804e-10
-1.33697e-10
5.23905e-10
-1.35755e-10
5.58431e-10
-1.37477e-10
5.93301e-10
-1.38872e-10
6.28438e-10
-1.39953e-10
6.63767e-10
-1.40732e-10
6.99219e-10
-1.41219e-10
7.34726e-10
-1.41426e-10
7.70221e-10
-1.41365e-10
8.0564e-10
-1.4105e-10
8.40923e-10
-1.40492e-10
8.76013e-10
-1.39701e-10
9.10855e-10
-1.38688e-10
9.45394e-10
-1.37465e-10
9.79583e-10
-1.36043e-10
1.01337e-09
-1.34433e-10
1.04672e-09
-1.32643e-10
1.07958e-09
-1.30685e-10
1.11191e-09
-1.28568e-10
1.14368e-09
-1.263e-10
1.17485e-09
-1.23889e-10
1.20538e-09
-1.21345e-10
1.23525e-09
-1.18674e-10
1.26441e-09
-1.15885e-10
1.29285e-09
-1.12983e-10
1.32054e-09
-1.09976e-10
1.34745e-09
-1.06871e-10
1.37356e-09
-1.03674e-10
1.39884e-09
-1.0039e-10
1.42328e-09
-9.70254e-11
1.44685e-09
-9.35851e-11
1.46955e-09
-9.00745e-11
1.49134e-09
-8.6499e-11
1.51222e-09
-8.28624e-11
1.53216e-09
-7.91687e-11
1.55117e-09
-7.54214e-11
1.56922e-09
-7.16254e-11
1.5863e-09
-6.77854e-11
1.6024e-09
-6.39048e-11
1.61752e-09
-5.99863e-11
1.63164e-09
-5.60324e-11
1.64475e-09
-5.20458e-11
1.65685e-09
-4.80299e-11
1.66792e-09
-4.39878e-11
1.67797e-09
-3.99219e-11
1.68699e-09
-3.58347e-11
1.69498e-09
-3.17284e-11
1.70192e-09
-2.76059e-11
1.70782e-09
-2.34697e-11
1.71267e-09
-1.93225e-11
1.71646e-09
-1.51664e-11
1.71921e-09
-1.1003e-11
1.72091e-09
-6.83441e-12
1.72155e-09
-2.66275e-12
1.72114e-09
1.5098e-12
1.71968e-09
5.68115e-12
1.71716e-09
9.84952e-12
1.71359e-09
1.40129e-11
1.70897e-09
1.81688e-11
1.7033e-09
2.23148e-11
1.6966e-09
2.64484e-11
1.68885e-09
3.05678e-11
1.68006e-09
3.46715e-11
1.67025e-09
3.8757e-11
1.65941e-09
4.28215e-11
1.64755e-09
4.68623e-11
1.63467e-09
5.08771e-11
1.62079e-09
5.48633e-11
1.60592e-09
5.88179e-11
1.59006e-09
6.27376e-11
1.57322e-09
6.66191e-11
1.55541e-09
7.04589e-11
1.53665e-09
7.42531e-11
1.51695e-09
7.79977e-11
1.49631e-09
8.16886e-11
1.47477e-09
8.53219e-11
1.45233e-09
8.88934e-11
1.42901e-09
9.23983e-11
1.40482e-09
9.58315e-11
1.3798e-09
9.91874e-11
1.35395e-09
1.02461e-10
1.32731e-09
1.05646e-10
1.29989e-09
1.08738e-10
1.27173e-09
1.1173e-10
1.24284e-09
1.14616e-10
1.21326e-09
1.1739e-10
1.18301e-09
1.20045e-10
1.15214e-09
1.22573e-10
1.12067e-09
1.24968e-10
1.08864e-09
1.27223e-10
1.05608e-09
1.29328e-10
1.02304e-09
1.31277e-10
9.89559e-10
1.33061e-10
9.5568e-10
1.3467e-10
9.21449e-10
1.36096e-10
8.86913e-10
1.37331e-10
8.52123e-10
1.38366e-10
8.17134e-10
1.3919e-10
7.81999e-10
1.39794e-10
7.46776e-10
1.40168e-10
7.11525e-10
1.40302e-10
6.76307e-10
1.40184e-10
6.41189e-10
1.39806e-10
6.06236e-10
1.39155e-10
5.71518e-10
1.38223e-10
5.37108e-10
1.36998e-10
5.03079e-10
1.35471e-10
4.69507e-10
1.3363e-10
4.3647e-10
1.31465e-10
4.04049e-10
1.28967e-10
3.72326e-10
1.26126e-10
3.41384e-10
1.22935e-10
3.11309e-10
1.19385e-10
2.82187e-10
1.1547e-10
2.54104e-10
1.11185e-10
2.27147e-10
1.06527e-10
2.014e-10
1.01495e-10
1.76948e-10
9.60909e-11
1.53872e-10
9.03206e-11
1.32251e-10
8.4195e-11
1.12158e-10
7.77309e-11
9.36594e-11
7.09528e-11
7.68146e-11
6.38941e-11
6.16705e-11
5.66004e-11
4.82604e-11
4.91329e-11
3.66018e-11
4.1572e-11
2.66918e-11
3.40224e-11
1.85037e-11
2.6619e-11
1.19835e-11
1.95347e-11
7.04417e-12
1.29903e-11
3.56222e-12
7.26621e-12
1.37348e-12
2.71461e-12
2.69137e-13
-2.33039e-13
-1.04519e-12
3.06134e-13
1.15826e-12
1.60657e-12
1.2857e-13
4.18695e-12
-3.41086e-12
8.24699e-12
-8.9459e-12
1.39308e-11
-1.59327e-11
2.13579e-11
-2.39218e-11
3.06079e-11
-3.25766e-11
4.17335e-11
-4.16451e-11
5.47599e-11
-5.09373e-11
6.9689e-11
-6.0305e-11
8.65069e-11
-6.96282e-11
1.05182e-10
-7.88087e-11
1.25672e-10
-8.77725e-11
1.47923e-10
-9.6454e-11
1.71871e-10
-1.04806e-10
1.97442e-10
-1.12789e-10
2.24562e-10
-1.20372e-10
2.5315e-10
-1.27529e-10
2.83118e-10
-1.34245e-10
3.14377e-10
-1.4051e-10
3.46838e-10
-1.46313e-10
3.80407e-10
-1.51649e-10
4.1499e-10
-1.56519e-10
4.50494e-10
-1.60925e-10
4.86826e-10
-1.6487e-10
5.23892e-10
-1.6836e-10
5.61601e-10
-1.71406e-10
5.99861e-10
-1.74017e-10
6.38586e-10
-1.76202e-10
6.7769e-10
-1.77975e-10
7.17088e-10
-1.79351e-10
7.56698e-10
-1.80343e-10
7.96444e-10
-1.80964e-10
8.36248e-10
-1.81229e-10
8.76038e-10
-1.81155e-10
9.15743e-10
-1.80756e-10
9.55299e-10
-1.80046e-10
9.94639e-10
-1.79039e-10
1.0337e-09
-1.7775e-10
1.07243e-09
-1.76192e-10
1.11076e-09
-1.74379e-10
1.14866e-09
-1.72324e-10
1.18605e-09
-1.7004e-10
1.22291e-09
-1.67539e-10
1.25917e-09
-1.64834e-10
1.29481e-09
-1.61934e-10
1.32977e-09
-1.58852e-10
1.36402e-09
-1.55598e-10
1.39753e-09
-1.5218e-10
1.43025e-09
-1.4861e-10
1.46217e-09
-1.44895e-10
1.49324e-09
-1.41045e-10
1.52343e-09
-1.37068e-10
1.55273e-09
-1.32973e-10
1.58111e-09
-1.28766e-10
1.60854e-09
-1.24454e-10
1.635e-09
-1.20045e-10
1.66047e-09
-1.15545e-10
1.68493e-09
-1.10961e-10
1.70837e-09
-1.06298e-10
1.73076e-09
-1.01561e-10
1.75209e-09
-9.67551e-11
1.77235e-09
-9.18865e-11
1.79153e-09
-8.69604e-11
1.8096e-09
-8.19811e-11
1.82657e-09
-7.69523e-11
1.84242e-09
-7.18779e-11
1.85713e-09
-6.67616e-11
1.87071e-09
-6.16074e-11
1.88314e-09
-5.64192e-11
1.89442e-09
-5.12002e-11
1.90454e-09
-4.59535e-11
1.91349e-09
-4.06824e-11
1.92128e-09
-3.53902e-11
1.92789e-09
-3.00806e-11
1.93332e-09
-2.47566e-11
1.93758e-09
-1.94208e-11
1.94065e-09
-1.40755e-11
1.94254e-09
-8.72327e-12
1.94324e-09
-3.36712e-12
1.94276e-09
1.99008e-12
1.9411e-09
7.34561e-12
1.93825e-09
1.26971e-11
1.93422e-09
1.8042e-11
1.92901e-09
2.33773e-11
1.92263e-09