/*--------------------------------*- C++ -*----------------------------------*\
  =========                 |
  \\      /  F ield         | OpenFOAM: The Open Source CFD Toolbox
   \\    /   O peration     | Website:  https://openfoam.org
    \\  /    A nd           | Version:  7
     \\/     M anipulation  |
\*---------------------------------------------------------------------------*/
FoamFile
{
    version     2.0;
    format      ascii;
    class       volVectorField;
    location    "0.2125";
    object      U;
}
// * * * * * * * * * * * * * * * * * * * * * * * * * * * * * * * * * * * * * //

dimensions      [0 1 -1 0 0 0 0];

internalField   nonuniform List<vector> 
51200
(
(-3.19723e-10 -3.02356e-09 0)
(-1.01559e-08 1.44665e-08 0)
(-7.1951e-08 3.60507e-08 0)
(-1.39747e-07 3.70843e-08 0)
(-1.94599e-07 2.78626e-08 0)
(-2.20278e-07 1.51038e-08 0)
(-2.10905e-07 2.74107e-09 0)
(-1.66511e-07 -1.10593e-08 0)
(-8.47647e-08 -2.27104e-08 0)
(3.22329e-08 -3.47378e-08 0)
(1.81978e-07 -4.58642e-08 0)
(3.66103e-07 -5.51082e-08 0)
(5.8123e-07 -6.46927e-08 0)
(8.26148e-07 -7.37159e-08 0)
(1.10119e-06 -8.18372e-08 0)
(1.40294e-06 -8.96488e-08 0)
(1.72936e-06 -9.69046e-08 0)
(2.08103e-06 -1.0323e-07 0)
(2.45383e-06 -1.0917e-07 0)
(2.84674e-06 -1.152e-07 0)
(3.2594e-06 -1.20845e-07 0)
(3.68913e-06 -1.25775e-07 0)
(4.13452e-06 -1.30015e-07 0)
(4.594e-06 -1.33727e-07 0)
(5.066e-06 -1.36931e-07 0)
(5.54932e-06 -1.39383e-07 0)
(6.04232e-06 -1.41563e-07 0)
(6.54364e-06 -1.43971e-07 0)
(7.05201e-06 -1.46038e-07 0)
(7.56604e-06 -1.47322e-07 0)
(8.08454e-06 -1.48256e-07 0)
(8.60622e-06 -1.49145e-07 0)
(9.13003e-06 -1.49671e-07 0)
(9.65519e-06 -1.49677e-07 0)
(1.01803e-05 -1.49374e-07 0)
(1.07041e-05 -1.49014e-07 0)
(1.12261e-05 -1.48453e-07 0)
(1.17455e-05 -1.47455e-07 0)
(1.22614e-05 -1.46123e-07 0)
(1.27727e-05 -1.44737e-07 0)
(1.32786e-05 -1.43282e-07 0)
(1.37787e-05 -1.4147e-07 0)
(1.42725e-05 -1.39254e-07 0)
(1.47591e-05 -1.36916e-07 0)
(1.52378e-05 -1.34662e-07 0)
(1.57081e-05 -1.32385e-07 0)
(1.61697e-05 -1.29851e-07 0)
(1.66219e-05 -1.27012e-07 0)
(1.70641e-05 -1.24025e-07 0)
(1.7496e-05 -1.21015e-07 0)
(1.79174e-05 -1.17972e-07 0)
(1.83279e-05 -1.148e-07 0)
(1.87269e-05 -1.11452e-07 0)
(1.91141e-05 -1.08e-07 0)
(1.94893e-05 -1.04541e-07 0)
(1.98522e-05 -1.01092e-07 0)
(2.02025e-05 -9.75691e-08 0)
(2.05399e-05 -9.38667e-08 0)
(2.08642e-05 -9.00343e-08 0)
(2.11752e-05 -8.61533e-08 0)
(2.14726e-05 -8.22289e-08 0)
(2.17564e-05 -7.82946e-08 0)
(2.20261e-05 -7.43422e-08 0)
(2.22816e-05 -7.03391e-08 0)
(2.2523e-05 -6.63132e-08 0)
(2.27504e-05 -6.22734e-08 0)
(2.29634e-05 -5.82484e-08 0)
(2.31618e-05 -5.42038e-08 0)
(2.33454e-05 -5.00223e-08 0)
(2.35142e-05 -4.57175e-08 0)
(2.36683e-05 -4.1412e-08 0)
(2.38074e-05 -3.72119e-08 0)
(2.39317e-05 -3.3116e-08 0)
(2.40409e-05 -2.89726e-08 0)
(2.41351e-05 -2.46874e-08 0)
(2.42141e-05 -2.03064e-08 0)
(2.4278e-05 -1.59186e-08 0)
(2.43266e-05 -1.1624e-08 0)
(2.436e-05 -7.42878e-09 0)
(2.43781e-05 -3.20757e-09 0)
(2.4381e-05 1.11429e-09 0)
(2.43687e-05 5.51189e-09 0)
(2.43412e-05 9.90287e-09 0)
(2.42984e-05 1.42062e-08 0)
(2.42403e-05 1.84393e-08 0)
(2.41669e-05 2.26927e-08 0)
(2.40784e-05 2.70093e-08 0)
(2.39748e-05 3.13467e-08 0)
(2.38563e-05 3.56339e-08 0)
(2.37226e-05 3.9844e-08 0)
(2.3574e-05 4.40197e-08 0)
(2.34104e-05 4.82142e-08 0)
(2.32321e-05 5.24142e-08 0)
(2.30392e-05 5.65626e-08 0)
(2.28318e-05 6.06424e-08 0)
(2.26098e-05 6.46875e-08 0)
(2.23735e-05 6.87336e-08 0)
(2.21228e-05 7.27858e-08 0)
(2.1858e-05 7.68083e-08 0)
(2.15794e-05 8.07585e-08 0)
(2.1287e-05 8.4626e-08 0)
(2.09811e-05 8.84266e-08 0)
(2.06618e-05 9.21855e-08 0)
(2.03292e-05 9.59065e-08 0)
(1.99837e-05 9.95627e-08 0)
(1.96256e-05 1.03149e-07 0)
(1.92552e-05 1.06665e-07 0)
(1.88726e-05 1.10093e-07 0)
(1.84783e-05 1.13422e-07 0)
(1.80724e-05 1.16652e-07 0)
(1.76556e-05 1.19776e-07 0)
(1.72281e-05 1.22789e-07 0)
(1.67903e-05 1.25688e-07 0)
(1.63426e-05 1.28471e-07 0)
(1.58856e-05 1.31129e-07 0)
(1.54196e-05 1.3363e-07 0)
(1.49453e-05 1.35957e-07 0)
(1.44632e-05 1.38114e-07 0)
(1.39739e-05 1.40118e-07 0)
(1.3478e-05 1.41971e-07 0)
(1.29761e-05 1.43647e-07 0)
(1.24689e-05 1.4512e-07 0)
(1.19572e-05 1.46364e-07 0)
(1.14416e-05 1.47391e-07 0)
(1.0923e-05 1.4822e-07 0)
(1.04021e-05 1.48807e-07 0)
(9.87994e-06 1.49116e-07 0)
(9.3574e-06 1.49144e-07 0)
(8.83547e-06 1.48875e-07 0)
(8.31511e-06 1.4832e-07 0)
(7.79734e-06 1.4749e-07 0)
(7.28328e-06 1.46348e-07 0)
(6.77412e-06 1.44864e-07 0)
(6.27108e-06 1.43009e-07 0)
(5.77543e-06 1.40756e-07 0)
(5.28848e-06 1.38092e-07 0)
(4.81161e-06 1.35009e-07 0)
(4.34626e-06 1.31511e-07 0)
(3.89389e-06 1.27589e-07 0)
(3.45601e-06 1.2321e-07 0)
(3.03417e-06 1.18345e-07 0)
(2.63003e-06 1.12956e-07 0)
(2.24533e-06 1.07007e-07 0)
(1.88182e-06 1.00501e-07 0)
(1.54126e-06 9.34459e-08 0)
(1.22541e-06 8.58402e-08 0)
(9.36082e-07 7.76506e-08 0)
(6.75108e-07 6.8831e-08 0)
(4.44285e-07 5.93741e-08 0)
(2.45325e-07 4.93047e-08 0)
(7.97864e-08 3.86863e-08 0)
(-5.1024e-08 2.76009e-08 0)
(-1.46109e-07 1.61232e-08 0)
(-2.05043e-07 4.42186e-09 0)
(-2.28354e-07 -7.13651e-09 0)
(-2.17972e-07 -1.78773e-08 0)
(-1.78091e-07 -2.65599e-08 0)
(-1.16935e-07 -3.08773e-08 0)
(-5.18372e-08 -2.68373e-08 0)
(-1.05096e-08 -1.06098e-08 0)
(-2.13579e-08 3.14823e-08 0)
(-7.85783e-08 7.60205e-08 0)
(-1.77217e-07 1.19347e-07 0)
(-2.70204e-07 1.07516e-07 0)
(-3.24499e-07 6.30463e-08 0)
(-3.10521e-07 3.94265e-09 0)
(-2.17714e-07 -6.35271e-08 0)
(-3.65945e-08 -1.31469e-07 0)
(2.35331e-07 -2.00084e-07 0)
(5.97612e-07 -2.68712e-07 0)
(1.05331e-06 -3.33976e-07 0)
(1.59702e-06 -3.97709e-07 0)
(2.22751e-06 -4.59168e-07 0)
(2.94344e-06 -5.16839e-07 0)
(3.73876e-06 -5.72286e-07 0)
(4.60987e-06 -6.24772e-07 0)
(5.55516e-06 -6.73389e-07 0)
(6.56642e-06 -7.18872e-07 0)
(7.64158e-06 -7.61462e-07 0)
(8.77612e-06 -8.00423e-07 0)
(9.96408e-06 -8.3645e-07 0)
(1.12021e-05 -8.69488e-07 0)
(1.24856e-05 -8.99275e-07 0)
(1.38099e-05 -9.26133e-07 0)
(1.51706e-05 -9.49846e-07 0)
(1.65638e-05 -9.70145e-07 0)
(1.79856e-05 -9.87774e-07 0)
(1.94314e-05 -1.00334e-06 0)
(2.08977e-05 -1.01619e-06 0)
(2.23816e-05 -1.02624e-06 0)
(2.38785e-05 -1.03406e-06 0)
(2.53845e-05 -1.03975e-06 0)
(2.68975e-05 -1.04291e-06 0)
(2.84144e-05 -1.04382e-06 0)
(2.99314e-05 -1.04299e-06 0)
(3.14458e-05 -1.04047e-06 0)
(3.29548e-05 -1.03596e-06 0)
(3.44564e-05 -1.02936e-06 0)
(3.59482e-05 -1.02119e-06 0)
(3.74272e-05 -1.01191e-06 0)
(3.88914e-05 -1.00131e-06 0)
(4.03389e-05 -9.88936e-07 0)
(4.1768e-05 -9.74968e-07 0)
(4.31762e-05 -9.59922e-07 0)
(4.4562e-05 -9.43978e-07 0)
(4.59243e-05 -9.27033e-07 0)
(4.72613e-05 -9.09016e-07 0)
(4.85713e-05 -8.89983e-07 0)
(4.9853e-05 -8.70016e-07 0)
(5.11053e-05 -8.49251e-07 0)
(5.23267e-05 -8.27723e-07 0)
(5.35163e-05 -8.05403e-07 0)
(5.4673e-05 -7.8233e-07 0)
(5.57961e-05 -7.5866e-07 0)
(5.68843e-05 -7.34468e-07 0)
(5.79368e-05 -7.09775e-07 0)
(5.89527e-05 -6.84526e-07 0)
(5.99315e-05 -6.58687e-07 0)
(6.08724e-05 -6.32306e-07 0)
(6.17749e-05 -6.05531e-07 0)
(6.26381e-05 -5.78374e-07 0)
(6.34615e-05 -5.50857e-07 0)
(6.42445e-05 -5.23047e-07 0)
(6.49868e-05 -4.94927e-07 0)
(6.56881e-05 -4.66553e-07 0)
(6.6348e-05 -4.38023e-07 0)
(6.69659e-05 -4.09341e-07 0)
(6.75416e-05 -3.80445e-07 0)
(6.80749e-05 -3.51164e-07 0)
(6.85653e-05 -3.21481e-07 0)
(6.90127e-05 -2.9167e-07 0)
(6.94167e-05 -2.61954e-07 0)
(6.97772e-05 -2.32324e-07 0)
(7.00939e-05 -2.02572e-07 0)
(7.03669e-05 -1.72493e-07 0)
(7.0596e-05 -1.42131e-07 0)
(7.0781e-05 -1.11681e-07 0)
(7.09218e-05 -8.13213e-08 0)
(7.10183e-05 -5.11208e-08 0)
(7.10705e-05 -2.09698e-08 0)
(7.10784e-05 9.31714e-09 0)
(7.1042e-05 3.97697e-08 0)
(7.09615e-05 7.02736e-08 0)
(7.08366e-05 1.00669e-07 0)
(7.06675e-05 1.30876e-07 0)
(7.04542e-05 1.60982e-07 0)
(7.01969e-05 1.91115e-07 0)
(6.98957e-05 2.21251e-07 0)
(6.95507e-05 2.51252e-07 0)
(6.91623e-05 2.81038e-07 0)
(6.87305e-05 3.10626e-07 0)
(6.82556e-05 3.4008e-07 0)
(6.77378e-05 3.69422e-07 0)
(6.71773e-05 3.98579e-07 0)
(6.65746e-05 4.27496e-07 0)
(6.59298e-05 4.56178e-07 0)
(6.52434e-05 4.84624e-07 0)
(6.45158e-05 5.1282e-07 0)
(6.37474e-05 5.4073e-07 0)
(6.29386e-05 5.68305e-07 0)
(6.209e-05 5.95502e-07 0)
(6.12022e-05 6.22284e-07 0)
(6.02756e-05 6.48628e-07 0)
(5.93111e-05 6.74547e-07 0)
(5.83093e-05 7.0002e-07 0)
(5.72711e-05 7.24977e-07 0)
(5.61971e-05 7.49348e-07 0)
(5.50883e-05 7.73059e-07 0)
(5.39456e-05 7.96075e-07 0)
(5.27698e-05 8.18404e-07 0)
(5.15623e-05 8.40019e-07 0)
(5.03243e-05 8.60859e-07 0)
(4.90568e-05 8.80855e-07 0)
(4.77611e-05 8.9995e-07 0)
(4.64385e-05 9.18091e-07 0)
(4.50904e-05 9.35199e-07 0)
(4.37184e-05 9.51194e-07 0)
(4.23243e-05 9.66042e-07 0)
(4.09096e-05 9.79728e-07 0)
(3.94761e-05 9.9221e-07 0)
(3.80258e-05 1.00339e-06 0)
(3.65606e-05 1.01317e-06 0)
(3.50826e-05 1.02145e-06 0)
(3.3594e-05 1.02817e-06 0)
(3.20971e-05 1.03329e-06 0)
(3.05942e-05 1.03673e-06 0)
(2.90879e-05 1.03837e-06 0)
(2.7581e-05 1.03815e-06 0)
(2.60762e-05 1.03597e-06 0)
(2.45764e-05 1.03171e-06 0)
(2.30846e-05 1.02529e-06 0)
(2.16041e-05 1.01664e-06 0)
(2.01381e-05 1.00564e-06 0)
(1.86901e-05 9.92202e-07 0)
(1.72637e-05 9.76194e-07 0)
(1.58626e-05 9.57467e-07 0)
(1.44907e-05 9.35929e-07 0)
(1.31519e-05 9.11526e-07 0)
(1.18506e-05 8.84203e-07 0)
(1.05909e-05 8.53859e-07 0)
(9.37717e-06 8.20349e-07 0)
(8.21393e-06 7.83531e-07 0)
(7.10579e-06 7.43293e-07 0)
(6.05748e-06 6.99574e-07 0)
(5.07374e-06 6.52353e-07 0)
(4.15927e-06 6.01633e-07 0)
(3.31878e-06 5.47422e-07 0)
(2.55687e-06 4.8975e-07 0)
(1.87796e-06 4.28741e-07 0)
(1.28606e-06 3.64635e-07 0)
(7.84664e-07 2.97817e-07 0)
(3.76363e-07 2.28932e-07 0)
(6.25965e-08 1.58939e-07 0)
(-1.56887e-07 8.92845e-08 0)
(-2.84941e-07 2.23133e-08 0)
(-3.28096e-07 -3.83233e-08 0)
(-2.97875e-07 -8.68982e-08 0)
(-2.13103e-07 -1.14361e-07 0)
(-1.06384e-07 -1.07311e-07 0)
(-2.62599e-08 -5.16189e-08 0)
(-2.70617e-08 7.49523e-08 0)
(-1.05018e-07 1.78401e-07 0)
(-2.08978e-07 2.22056e-07 0)
(-2.80992e-07 1.70785e-07 0)
(-2.75177e-07 5.53949e-08 0)
(-1.71129e-07 -9.59626e-08 0)
(5.11028e-08 -2.66413e-07 0)
(4.03153e-07 -4.45946e-07 0)
(8.89646e-07 -6.30747e-07 0)
(1.51777e-06 -8.13734e-07 0)
(2.28433e-06 -9.95676e-07 0)
(3.1892e-06 -1.17358e-06 0)
(4.23048e-06 -1.34411e-06 0)
(5.40213e-06 -1.50921e-06 0)
(6.69936e-06 -1.66667e-06 0)
(8.11908e-06 -1.81472e-06 0)
(9.65092e-06 -1.9549e-06 0)
(1.12912e-05 -2.08617e-06 0)
(1.30328e-05 -2.20763e-06 0)
(1.48677e-05 -2.3205e-06 0)
(1.67896e-05 -2.42469e-06 0)
(1.87914e-05 -2.51928e-06 0)
(2.08662e-05 -2.60524e-06 0)
(2.30065e-05 -2.68326e-06 0)
(2.52061e-05 -2.75234e-06 0)
(2.74588e-05 -2.81271e-06 0)
(2.97566e-05 -2.8655e-06 0)
(3.20934e-05 -2.91051e-06 0)
(3.44645e-05 -2.94758e-06 0)
(3.68631e-05 -2.97746e-06 0)
(3.92829e-05 -3.00077e-06 0)
(4.17188e-05 -3.01729e-06 0)
(4.41659e-05 -3.02696e-06 0)
(4.6619e-05 -3.03043e-06 0)
(4.90728e-05 -3.02843e-06 0)
(5.15227e-05 -3.02117e-06 0)
(5.39649e-05 -3.00837e-06 0)
(5.63952e-05 -2.99013e-06 0)
(5.88091e-05 -2.96723e-06 0)
(6.12029e-05 -2.94018e-06 0)
(6.35734e-05 -2.90897e-06 0)
(6.59176e-05 -2.87359e-06 0)
(6.82316e-05 -2.83439e-06 0)
(7.05125e-05 -2.79163e-06 0)
(7.27574e-05 -2.74542e-06 0)
(7.4964e-05 -2.69601e-06 0)
(7.71299e-05 -2.64368e-06 0)
(7.92525e-05 -2.58865e-06 0)
(8.13296e-05 -2.53099e-06 0)
(8.3359e-05 -2.47087e-06 0)
(8.53388e-05 -2.40846e-06 0)
(8.72672e-05 -2.34383e-06 0)
(8.91426e-05 -2.27706e-06 0)
(9.09632e-05 -2.20839e-06 0)
(9.27274e-05 -2.13801e-06 0)
(9.44338e-05 -2.066e-06 0)
(9.60812e-05 -1.99247e-06 0)
(9.76686e-05 -1.91745e-06 0)
(9.91946e-05 -1.841e-06 0)
(0.000100658 -1.76327e-06 0)
(0.000102058 -1.68437e-06 0)
(0.000103394 -1.60446e-06 0)
(0.000104664 -1.5236e-06 0)
(0.000105868 -1.4418e-06 0)
(0.000107006 -1.3592e-06 0)
(0.000108077 -1.27597e-06 0)
(0.000109079 -1.19216e-06 0)
(0.000110013 -1.10768e-06 0)
(0.000110878 -1.02242e-06 0)
(0.000111673 -9.36465e-07 0)
(0.000112399 -8.50023e-07 0)
(0.000113054 -7.63308e-07 0)
(0.000113639 -6.76387e-07 0)
(0.000114152 -5.89153e-07 0)
(0.000114594 -5.01497e-07 0)
(0.000114965 -4.13449e-07 0)
(0.000115265 -3.25133e-07 0)
(0.000115493 -2.3673e-07 0)
(0.000115649 -1.48383e-07 0)
(0.000115732 -6.00883e-08 0)
(0.000115745 2.82533e-08 0)
(0.000115685 1.16727e-07 0)
(0.000115553 2.05275e-07 0)
(0.00011535 2.93729e-07 0)
(0.000115074 3.81956e-07 0)
(0.000114727 4.69917e-07 0)
(0.000114309 5.57638e-07 0)
(0.00011382 6.45134e-07 0)
(0.000113259 7.32332e-07 0)
(0.000112628 8.19143e-07 0)
(0.000111927 9.05512e-07 0)
(0.000111156 9.91386e-07 0)
(0.000110315 1.07673e-06 0)
(0.000109405 1.16152e-06 0)
(0.000108426 1.24573e-06 0)
(0.000107379 1.3293e-06 0)
(0.000106265 1.41212e-06 0)
(0.000105084 1.49407e-06 0)
(0.000103837 1.57509e-06 0)
(0.000102525 1.65514e-06 0)
(0.000101148 1.73414e-06 0)
(9.9708e-05 1.81198e-06 0)
(9.82052e-05 1.88851e-06 0)
(9.6641e-05 1.96371e-06 0)
(9.50167e-05 2.0375e-06 0)
(9.33334e-05 2.10977e-06 0)
(9.15925e-05 2.18032e-06 0)
(8.97953e-05 2.24896e-06 0)
(8.79435e-05 2.31561e-06 0)
(8.60385e-05 2.38022e-06 0)
(8.40824e-05 2.44269e-06 0)
(8.2077e-05 2.50285e-06 0)
(8.00242e-05 2.5605e-06 0)
(7.79261e-05 2.61551e-06 0)
(7.57848e-05 2.66771e-06 0)
(7.36027e-05 2.71696e-06 0)
(7.13822e-05 2.76305e-06 0)
(6.91262e-05 2.80584e-06 0)
(6.68373e-05 2.84514e-06 0)
(6.45185e-05 2.88079e-06 0)
(6.21728e-05 2.91257e-06 0)
(5.98035e-05 2.94027e-06 0)
(5.74139e-05 2.9637e-06 0)
(5.50075e-05 2.98268e-06 0)
(5.25882e-05 2.99696e-06 0)
(5.01598e-05 3.00628e-06 0)
(4.77264e-05 3.01038e-06 0)
(4.52925e-05 3.00904e-06 0)
(4.28623e-05 3.00205e-06 0)
(4.04406e-05 2.98911e-06 0)
(3.80324e-05 2.96992e-06 0)
(3.56428e-05 2.94423e-06 0)
(3.3277e-05 2.91179e-06 0)
(3.09405e-05 2.87233e-06 0)
(2.8639e-05 2.82555e-06 0)
(2.63786e-05 2.77109e-06 0)
(2.41652e-05 2.70867e-06 0)
(2.20053e-05 2.63812e-06 0)
(1.99053e-05 2.55924e-06 0)
(1.7872e-05 2.47175e-06 0)
(1.59122e-05 2.37534e-06 0)
(1.4033e-05 2.26975e-06 0)
(1.22413e-05 2.15479e-06 0)
(1.05443e-05 2.03038e-06 0)
(8.94923e-06 1.89643e-06 0)
(7.46323e-06 1.75296e-06 0)
(6.09326e-06 1.60013e-06 0)
(4.84602e-06 1.43828e-06 0)
(3.72778e-06 1.26798e-06 0)
(2.74411e-06 1.0901e-06 0)
(1.89961e-06 9.05901e-07 0)
(1.19743e-06 7.17349e-07 0)
(6.38855e-07 5.27362e-07 0)
(2.22494e-07 3.40184e-07 0)
(-5.67199e-08 1.61988e-07 0)
(-2.08791e-07 1.73651e-09 0)
(-2.49945e-07 -1.27614e-07 0)
(-2.04633e-07 -2.07635e-07 0)
(-1.12141e-07 -2.13447e-07 0)
(-2.99449e-08 -1.15708e-07 0)
(-3.02152e-08 1.41129e-07 0)
(-1.06569e-07 2.80973e-07 0)
(-1.83522e-07 2.97479e-07 0)
(-1.93635e-07 1.75321e-07 0)
(-9.64806e-08 -4.39504e-08 0)
(1.35559e-07 -3.23377e-07 0)
(5.2276e-07 -6.36957e-07 0)
(1.07655e-06 -9.72139e-07 0)
(1.80865e-06 -1.31511e-06 0)
(2.71956e-06 -1.66165e-06 0)
(3.81312e-06 -2.00612e-06 0)
(5.08796e-06 -2.34254e-06 0)
(6.53965e-06 -2.67036e-06 0)
(8.16235e-06 -2.98629e-06 0)
(9.95311e-06 -3.28753e-06 0)
(1.19015e-05 -3.57458e-06 0)
(1.40018e-05 -3.84572e-06 0)
(1.62452e-05 -4.09954e-06 0)
(1.86229e-05 -4.33647e-06 0)
(2.11257e-05 -4.55669e-06 0)
(2.37449e-05 -4.75903e-06 0)
(2.64712e-05 -4.94401e-06 0)
(2.92947e-05 -5.1126e-06 0)
(3.22069e-05 -5.26417e-06 0)
(3.51994e-05 -5.39892e-06 0)
(3.82624e-05 -5.51808e-06 0)
(4.1387e-05 -5.62193e-06 0)
(4.45655e-05 -5.71009e-06 0)
(4.77894e-05 -5.78325e-06 0)
(5.10501e-05 -5.8426e-06 0)
(5.43403e-05 -5.88859e-06 0)
(5.76528e-05 -5.92117e-06 0)
(6.09807e-05 -5.94083e-06 0)
(6.43165e-05 -5.94864e-06 0)
(6.76534e-05 -5.94533e-06 0)
(7.09859e-05 -5.93107e-06 0)
(7.43082e-05 -5.90624e-06 0)
(7.76145e-05 -5.87157e-06 0)
(8.08987e-05 -5.82772e-06 0)
(8.41561e-05 -5.77496e-06 0)
(8.73823e-05 -5.71364e-06 0)
(9.05725e-05 -5.64443e-06 0)
(9.37222e-05 -5.56801e-06 0)
(9.68273e-05 -5.48468e-06 0)
(9.98839e-05 -5.39459e-06 0)
(0.000102889 -5.29812e-06 0)
(0.000105838 -5.19576e-06 0)
(0.000108729 -5.08791e-06 0)
(0.000111558 -4.97495e-06 0)
(0.000114322 -4.85709e-06 0)
(0.000117019 -4.7346e-06 0)
(0.000119646 -4.60774e-06 0)
(0.000122201 -4.47684e-06 0)
(0.000124682 -4.3422e-06 0)
(0.000127086 -4.2041e-06 0)
(0.000129411 -4.06265e-06 0)
(0.000131656 -3.91811e-06 0)
(0.00013382 -3.77067e-06 0)
(0.0001359 -3.62053e-06 0)
(0.000137894 -3.46794e-06 0)
(0.000139803 -3.31309e-06 0)
(0.000141623 -3.15608e-06 0)
(0.000143355 -2.99704e-06 0)
(0.000144997 -2.83617e-06 0)
(0.000146548 -2.67377e-06 0)
(0.000148007 -2.51005e-06 0)
(0.000149374 -2.34501e-06 0)
(0.000150646 -2.17859e-06 0)
(0.000151825 -2.01079e-06 0)
(0.000152909 -1.84183e-06 0)
(0.000153898 -1.67197e-06 0)
(0.000154791 -1.50136e-06 0)
(0.000155587 -1.33004e-06 0)
(0.000156287 -1.15803e-06 0)
(0.000156889 -9.85375e-07 0)
(0.000157394 -8.12208e-07 0)
(0.000157802 -6.38672e-07 0)
(0.000158111 -4.64874e-07 0)
(0.000158323 -2.90927e-07 0)
(0.000158436 -1.16893e-07 0)
(0.000158451 5.71874e-08 0)
(0.000158369 2.31274e-07 0)
(0.000158188 4.05303e-07 0)
(0.000157909 5.79167e-07 0)
(0.000157532 7.52766e-07 0)
(0.000157058 9.2598e-07 0)
(0.000156486 1.09866e-06 0)
(0.000155817 1.27072e-06 0)
(0.000155051 1.44211e-06 0)
(0.000154189 1.61282e-06 0)
(0.000153232 1.78276e-06 0)
(0.000152178 1.95177e-06 0)
(0.00015103 2.11967e-06 0)
(0.000149788 2.28638e-06 0)
(0.000148453 2.45188e-06 0)
(0.000147024 2.61609e-06 0)
(0.000145504 2.77884e-06 0)
(0.000143892 2.93988e-06 0)
(0.000142191 3.09907e-06 0)
(0.000140401 3.25627e-06 0)
(0.000138524 3.41133e-06 0)
(0.000136559 3.56406e-06 0)
(0.00013451 3.71426e-06 0)
(0.000132378 3.86179e-06 0)
(0.000130164 4.00649e-06 0)
(0.000127869 4.14807e-06 0)
(0.000125497 4.28625e-06 0)
(0.000123048 4.42074e-06 0)
(0.000120524 4.55134e-06 0)
(0.000117929 4.67786e-06 0)
(0.000115265 4.80007e-06 0)
(0.000112533 4.91768e-06 0)
(0.000109738 5.03039e-06 0)
(0.000106881 5.13787e-06 0)
(0.000103966 5.23981e-06 0)
(0.000100995 5.33587e-06 0)
(9.79732e-05 5.42575e-06 0)
(9.49031e-05 5.50915e-06 0)
(9.17886e-05 5.5857e-06 0)
(8.86338e-05 5.655e-06 0)
(8.5443e-05 5.71662e-06 0)
(8.22205e-05 5.7702e-06 0)
(7.89708e-05 5.81542e-06 0)
(7.56989e-05 5.85185e-06 0)
(7.24097e-05 5.87906e-06 0)
(6.91088e-05 5.89652e-06 0)
(6.58017e-05 5.90375e-06 0)
(6.24942e-05 5.90032e-06 0)
(5.91923e-05 5.88578e-06 0)
(5.59023e-05 5.85961e-06 0)
(5.2631e-05 5.82127e-06 0)
(4.93853e-05 5.77027e-06 0)
(4.61721e-05 5.70612e-06 0)
(4.29989e-05 5.62831e-06 0)
(3.98733e-05 5.5363e-06 0)
(3.68033e-05 5.4295e-06 0)
(3.3797e-05 5.30742e-06 0)
(3.08628e-05 5.16965e-06 0)
(2.80092e-05 5.0158e-06 0)
(2.52452e-05 4.84541e-06 0)
(2.25797e-05 4.65798e-06 0)
(2.00219e-05 4.45313e-06 0)
(1.7581e-05 4.23061e-06 0)
(1.52662e-05 3.99033e-06 0)
(1.30866e-05 3.73227e-06 0)
(1.10513e-05 3.45656e-06 0)
(9.16898e-06 3.16365e-06 0)
(7.44806e-06 2.85438e-06 0)
(5.89608e-06 2.53004e-06 0)
(4.51963e-06 2.19252e-06 0)
(3.324e-06 1.84448e-06 0)
(2.3126e-06 1.48978e-06 0)
(1.48634e-06 1.13403e-06 0)
(8.42944e-07 7.85048e-07 0)
(3.75842e-07 4.53744e-07 0)
(7.30108e-08 1.55254e-07 0)
(-8.42385e-08 -8.95471e-08 0)
(-1.22903e-07 -2.524e-07 0)
(-8.40024e-08 -2.96514e-07 0)
(-2.55416e-08 -1.75264e-07 0)
(-2.88972e-08 1.97097e-07 0)
(-8.1972e-08 3.50644e-07 0)
(-1.01393e-07 3.10899e-07 0)
(-1.73608e-08 8.38429e-08 0)
(2.06797e-07 -2.73591e-07 0)
(6.01135e-07 -7.14093e-07 0)
(1.1842e-06 -1.20864e-06 0)
(1.9728e-06 -1.73316e-06 0)
(2.97224e-06 -2.27529e-06 0)
(4.18996e-06 -2.82301e-06 0)
(5.62601e-06 -3.36711e-06 0)
(7.27962e-06 -3.90284e-06 0)
(9.14533e-06 -4.42456e-06 0)
(1.12204e-05 -4.92783e-06 0)
(1.34946e-05 -5.41052e-06 0)
(1.59617e-05 -5.87034e-06 0)
(1.86126e-05 -6.30498e-06 0)
(2.14372e-05 -6.71363e-06 0)
(2.44252e-05 -7.09599e-06 0)
(2.75662e-05 -7.45086e-06 0)
(3.08496e-05 -7.77815e-06 0)
(3.42637e-05 -8.07857e-06 0)
(3.77974e-05 -8.35166e-06 0)
(4.14407e-05 -8.59732e-06 0)
(4.51817e-05 -8.81661e-06 0)
(4.90093e-05 -9.01049e-06 0)
(5.29139e-05 -9.17892e-06 0)
(5.6885e-05 -9.32249e-06 0)
(6.09119e-05 -9.44243e-06 0)
(6.49846e-05 -9.53963e-06 0)
(6.90941e-05 -9.6145e-06 0)
(7.32317e-05 -9.66778e-06 0)
(7.7388e-05 -9.70075e-06 0)
(8.15543e-05 -9.71447e-06 0)
(8.57226e-05 -9.70954e-06 0)
(8.98857e-05 -9.68659e-06 0)
(9.40363e-05 -9.64669e-06 0)
(9.81666e-05 -9.59105e-06 0)
(0.00010227 -9.52031e-06 0)
(0.000106341 -9.43491e-06 0)
(0.000110373 -9.33556e-06 0)
(0.00011436 -9.22332e-06 0)
(0.000118297 -9.09903e-06 0)
(0.000122179 -8.96329e-06 0)
(0.000126001 -8.81664e-06 0)
(0.000129758 -8.65973e-06 0)
(0.000133446 -8.49315e-06 0)
(0.000137061 -8.31748e-06 0)
(0.000140599 -8.13333e-06 0)
(0.000144056 -7.94115e-06 0)
(0.00014743 -7.74129e-06 0)
(0.000150717 -7.53426e-06 0)
(0.000153913 -7.3206e-06 0)
(0.000157017 -7.10077e-06 0)
(0.000160025 -6.87522e-06 0)
(0.000162935 -6.64424e-06 0)
(0.000165744 -6.40813e-06 0)
(0.000168451 -6.1672e-06 0)
(0.000171054 -5.92182e-06 0)
(0.000173551 -5.67247e-06 0)
(0.000175939 -5.41943e-06 0)
(0.000178218 -5.1628e-06 0)
(0.000180385 -4.90277e-06 0)
(0.00018244 -4.6397e-06 0)
(0.000184382 -4.37404e-06 0)
(0.000186208 -4.10608e-06 0)
(0.000187918 -3.83588e-06 0)
(0.000189511 -3.56346e-06 0)
(0.000190986 -3.28891e-06 0)
(0.000192343 -3.01249e-06 0)
(0.00019358 -2.73454e-06 0)
(0.000194697 -2.45526e-06 0)
(0.000195693 -2.17476e-06 0)
(0.000196568 -1.89312e-06 0)
(0.000197321 -1.61046e-06 0)
(0.000197952 -1.32701e-06 0)
(0.00019846 -1.04302e-06 0)
(0.000198846 -7.5864e-07 0)
(0.00019911 -4.73952e-07 0)
(0.00019925 -1.89008e-07 0)
(0.000199267 9.60803e-08 0)
(0.000199162 3.81116e-07 0)
(0.000198933 6.65912e-07 0)
(0.000198582 9.50337e-07 0)
(0.000198108 1.23432e-06 0)
(0.000197512 1.51774e-06 0)
(0.000196794 1.80038e-06 0)
(0.000195954 2.08199e-06 0)
(0.000194993 2.36245e-06 0)
(0.000193912 2.6417e-06 0)
(0.00019271 2.91966e-06 0)
(0.000191389 3.19612e-06 0)
(0.000189949 3.47083e-06 0)
(0.000188391 3.74359e-06 0)
(0.000186717 4.01425e-06 0)
(0.000184926 4.28265e-06 0)
(0.00018302 4.54858e-06 0)
(0.000181001 4.81177e-06 0)
(0.000178869 5.07194e-06 0)
(0.000176626 5.3288e-06 0)
(0.000174273 5.58205e-06 0)
(0.000171813 5.83142e-06 0)
(0.000169246 6.07667e-06 0)
(0.000166575 6.31751e-06 0)
(0.000163802 6.5536e-06 0)
(0.000160929 6.78449e-06 0)
(0.000157959 7.00976e-06 0)
(0.000154893 7.22906e-06 0)
(0.000151734 7.44202e-06 0)
(0.000148487 7.64825e-06 0)
(0.000145152 7.84731e-06 0)
(0.000141734 8.03877e-06 0)
(0.000138237 8.22218e-06 0)
(0.000134663 8.39706e-06 0)
(0.000131016 8.56286e-06 0)
(0.000127301 8.71903e-06 0)
(0.000123522 8.86504e-06 0)
(0.000119683 9.00039e-06 0)
(0.000115789 9.12451e-06 0)
(0.000111845 9.23675e-06 0)
(0.000107857 9.33645e-06 0)
(0.000103829 9.42301e-06 0)
(9.9768e-05 9.49585e-06 0)
(9.56796e-05 9.55429e-06 0)
(9.15703e-05 9.5976e-06 0)
(8.74466e-05 9.62504e-06 0)
(8.33157e-05 9.63583e-06 0)
(7.91847e-05 9.62926e-06 0)
(7.50611e-05 9.60456e-06 0)
(7.09529e-05 9.56094e-06 0)
(6.68681e-05 9.4976e-06 0)
(6.28153e-05 9.41375e-06 0)
(5.88033e-05 9.30862e-06 0)
(5.48411e-05 9.18139e-06 0)
(5.09382e-05 9.03121e-06 0)
(4.71041e-05 8.85728e-06 0)
(4.3349e-05 8.65887e-06 0)
(3.9683e-05 8.4353e-06 0)
(3.61165e-05 8.18592e-06 0)
(3.26603e-05 7.91006e-06 0)
(2.93253e-05 7.60711e-06 0)
(2.61224e-05 7.27662e-06 0)
(2.30625e-05 6.9183e-06 0)
(2.01566e-05 6.53207e-06 0)
(1.74155e-05 6.11807e-06 0)
(1.48498e-05 5.67673e-06 0)
(1.24695e-05 5.20894e-06 0)
(1.02843e-05 4.71623e-06 0)
(8.30272e-06 4.20085e-06 0)
(6.53213e-06 3.66599e-06 0)
(4.97823e-06 3.11611e-06 0)
(3.64457e-06 2.55743e-06 0)
(2.5319e-06 1.99861e-06 0)
(1.63743e-06 1.45145e-06 0)
(9.53947e-07 9.31845e-07 0)
(4.68702e-07 4.61194e-07 0)
(1.62336e-07 6.8105e-08 0)
(7.41442e-09 -2.09779e-07 0)
(-3.51274e-08 -3.24329e-07 0)
(-1.68663e-08 -2.13364e-07 0)
(-2.0609e-08 2.36767e-07 0)
(-3.59143e-08 3.66411e-07 0)
(3.18671e-08 2.3238e-07 0)
(2.37963e-07 -1.33542e-07 0)
(6.22557e-07 -6.63448e-07 0)
(1.20897e-06 -1.30134e-06 0)
(2.01971e-06 -2.00867e-06 0)
(3.06619e-06 -2.75963e-06 0)
(4.35974e-06 -3.53358e-06 0)
(5.9018e-06 -4.31587e-06 0)
(7.69558e-06 -5.09544e-06 0)
(9.73679e-06 -5.86302e-06 0)
(1.20238e-05 -6.61135e-06 0)
(1.45478e-05 -7.33512e-06 0)
(1.73025e-05 -8.03033e-06 0)
(2.02783e-05 -8.69302e-06 0)
(2.3465e-05 -9.32085e-06 0)
(2.68518e-05 -9.91239e-06 0)
(3.04272e-05 -1.04658e-05 0)
(3.41796e-05 -1.09802e-05 0)
(3.80962e-05 -1.14558e-05 0)
(4.21644e-05 -1.18924e-05 0)
(4.63724e-05 -1.22896e-05 0)
(5.07071e-05 -1.26479e-05 0)
(5.51553e-05 -1.29684e-05 0)
(5.97052e-05 -1.32512e-05 0)
(6.43448e-05 -1.3497e-05 0)
(6.90619e-05 -1.37073e-05 0)
(7.38442e-05 -1.38833e-05 0)
(7.86808e-05 -1.40258e-05 0)
(8.35608e-05 -1.41356e-05 0)
(8.84733e-05 -1.42142e-05 0)
(9.34079e-05 -1.42632e-05 0)
(9.83545e-05 -1.4284e-05 0)
(0.000103304 -1.42773e-05 0)
(0.000108248 -1.42444e-05 0)
(0.000113176 -1.41868e-05 0)
(0.000118081 -1.41058e-05 0)
(0.000122955 -1.40025e-05 0)
(0.00012779 -1.38777e-05 0)
(0.000132579 -1.37328e-05 0)
(0.000137316 -1.35689e-05 0)
(0.000141993 -1.3387e-05 0)
(0.000146605 -1.31881e-05 0)
(0.000151147 -1.29731e-05 0)
(0.000155611 -1.27431e-05 0)
(0.000159995 -1.24988e-05 0)
(0.000164291 -1.2241e-05 0)
(0.000168497 -1.19707e-05 0)
(0.000172607 -1.16884e-05 0)
(0.000176618 -1.13949e-05 0)
(0.000180525 -1.10908e-05 0)
(0.000184326 -1.07768e-05 0)
(0.000188016 -1.04537e-05 0)
(0.000191593 -1.0122e-05 0)
(0.000195054 -9.78226e-06 0)
(0.000198395 -9.43497e-06 0)
(0.000201615 -9.08058e-06 0)
(0.000204711 -8.71965e-06 0)
(0.00020768 -8.35273e-06 0)
(0.00021052 -7.98024e-06 0)
(0.000213231 -7.60245e-06 0)
(0.000215809 -7.21972e-06 0)
(0.000218254 -6.83252e-06 0)
(0.000220563 -6.44135e-06 0)
(0.000222735 -6.04655e-06 0)
(0.000224769 -5.64834e-06 0)
(0.000226664 -5.2469e-06 0)
(0.000228419 -4.84246e-06 0)
(0.000230032 -4.43531e-06 0)
(0.000231502 -4.0258e-06 0)
(0.00023283 -3.61424e-06 0)
(0.000234014 -3.20086e-06 0)
(0.000235053 -2.78582e-06 0)
(0.000235948 -2.36934e-06 0)
(0.000236697 -1.95168e-06 0)
(0.000237301 -1.53319e-06 0)
(0.000237758 -1.11409e-06 0)
(0.000238069 -6.94548e-07 0)
(0.000238234 -2.74641e-07 0)
(0.000238252 1.45472e-07 0)
(0.000238124 5.65514e-07 0)
(0.00023785 9.85206e-07 0)
(0.000237429 1.40433e-06 0)
(0.000236862 1.82272e-06 0)
(0.00023615 2.24021e-06 0)
(0.000235292 2.65654e-06 0)
(0.00023429 3.07143e-06 0)
(0.000233143 3.48468e-06 0)
(0.000231853 3.89611e-06 0)
(0.00023042 4.30549e-06 0)
(0.000228845 4.7126e-06 0)
(0.000227128 5.11714e-06 0)
(0.000225271 5.51886e-06 0)
(0.000223275 5.91743e-06 0)
(0.00022114 6.31255e-06 0)
(0.000218869 6.70391e-06 0)
(0.000216463 7.09117e-06 0)
(0.000213923 7.47396e-06 0)
(0.000211251 7.85184e-06 0)
(0.000208449 8.22433e-06 0)
(0.000205519 8.59105e-06 0)
(0.000202462 8.95166e-06 0)
(0.000199282 9.30571e-06 0)
(0.00019598 9.65264e-06 0)
(0.00019256 9.99183e-06 0)
(0.000189024 1.03227e-05 0)
(0.000185375 1.06448e-05 0)
(0.000181616 1.09575e-05 0)
(0.000177751 1.12603e-05 0)
(0.000173783 1.15524e-05 0)
(0.000169717 1.18333e-05 0)
(0.000165556 1.21022e-05 0)
(0.000161305 1.23586e-05 0)
(0.000156967 1.26015e-05 0)
(0.000152549 1.28302e-05 0)
(0.000148055 1.3044e-05 0)
(0.00014349 1.32421e-05 0)
(0.000138861 1.34235e-05 0)
(0.000134172 1.35873e-05 0)
(0.000129431 1.37328e-05 0)
(0.000124644 1.3859e-05 0)
(0.000119818 1.39649e-05 0)
(0.00011496 1.40496e-05 0)
(0.000110077 1.4112e-05 0)
(0.000105177 1.4151e-05 0)
(0.00010027 1.41657e-05 0)
(9.53621e-05 1.4155e-05 0)
(9.04636e-05 1.41177e-05 0)
(8.55835e-05 1.40527e-05 0)
(8.07314e-05 1.39588e-05 0)
(7.59173e-05 1.38351e-05 0)
(7.11513e-05 1.36804e-05 0)
(6.64442e-05 1.34935e-05 0)
(6.18069e-05 1.32732e-05 0)
(5.72507e-05 1.30186e-05 0)
(5.27872e-05 1.27285e-05 0)
(4.84281e-05 1.24021e-05 0)
(4.41856e-05 1.20384e-05 0)
(4.00721e-05 1.16366e-05 0)
(3.61e-05 1.1196e-05 0)
(3.22817e-05 1.0716e-05 0)
(2.86298e-05 1.01965e-05 0)
(2.51566e-05 9.6374e-06 0)
(2.18742e-05 9.0391e-06 0)
(1.87946e-05 8.40247e-06 0)
(1.59288e-05 7.72904e-06 0)
(1.32875e-05 7.0212e-06 0)
(1.088e-05 6.28232e-06 0)
(8.71427e-06 5.51711e-06 0)
(6.79649e-06 4.73209e-06 0)
(5.13039e-06 3.9361e-06 0)
(3.7168e-06 3.14106e-06 0)
(2.55297e-06 2.36282e-06 0)
(1.63181e-06 1.62223e-06 0)
(9.40966e-07 9.46689e-07 0)
(4.618e-07 3.71986e-07 0)
(1.68133e-07 -5.57461e-08 0)
(2.56255e-08 -2.78461e-07 0)
(-6.13924e-09 -2.21926e-07 0)
(-1.01042e-08 2.46733e-07 0)
(2.98981e-08 3.05185e-07 0)
(2.04613e-07 3.4976e-08 0)
(5.61423e-07 -5.06898e-07 0)
(1.13005e-06 -1.24332e-06 0)
(1.93684e-06 -2.11171e-06 0)
(2.99738e-06 -3.06591e-06 0)
(4.32747e-06 -4.07355e-06 0)
(5.93175e-06 -5.11057e-06 0)
(7.81636e-06 -6.15847e-06 0)
(9.97832e-06 -7.20259e-06 0)
(1.24177e-05 -8.23116e-06 0)
(1.51273e-05 -9.23477e-06 0)
(1.81015e-05 -1.02066e-05 0)
(2.1331e-05 -1.11406e-05 0)
(2.48059e-05 -1.20321e-05 0)
(2.85152e-05 -1.28783e-05 0)
(3.24467e-05 -1.36761e-05 0)
(3.65886e-05 -1.44233e-05 0)
(4.09273e-05 -1.51191e-05 0)
(4.54489e-05 -1.57629e-05 0)
(5.01406e-05 -1.6354e-05 0)
(5.49884e-05 -1.68925e-05 0)
(5.99778e-05 -1.73793e-05 0)
(6.50951e-05 -1.78149e-05 0)
(7.03268e-05 -1.81994e-05 0)
(7.56592e-05 -1.85342e-05 0)
(8.10783e-05 -1.8821e-05 0)
(8.65716e-05 -1.90611e-05 0)
(9.21262e-05 -1.92555e-05 0)
(9.77299e-05 -1.94057e-05 0)
(0.00010337 -1.95138e-05 0)
(0.000109035 -1.95815e-05 0)
(0.000114715 -1.96102e-05 0)
(0.000120398 -1.96015e-05 0)
(0.000126073 -1.95574e-05 0)
(0.000131732 -1.94795e-05 0)
(0.000137364 -1.93694e-05 0)
(0.00014296 -1.92284e-05 0)
(0.000148513 -1.90582e-05 0)
(0.000154013 -1.88605e-05 0)
(0.000159453 -1.86366e-05 0)
(0.000164826 -1.8388e-05 0)
(0.000170124 -1.81159e-05 0)
(0.000175341 -1.78218e-05 0)
(0.000180471 -1.75068e-05 0)
(0.000185507 -1.71722e-05 0)
(0.000190445 -1.6819e-05 0)
(0.000195278 -1.64484e-05 0)
(0.000200001 -1.60613e-05 0)
(0.000204611 -1.56587e-05 0)
(0.000209102 -1.52416e-05 0)
(0.000213471 -1.48109e-05 0)
(0.000217713 -1.43674e-05 0)
(0.000221825 -1.39121e-05 0)
(0.000225804 -1.34456e-05 0)
(0.000229646 -1.29686e-05 0)
(0.000233348 -1.24819e-05 0)
(0.000236907 -1.19862e-05 0)
(0.000240321 -1.14822e-05 0)
(0.000243588 -1.09703e-05 0)
(0.000246705 -1.0451e-05 0)
(0.00024967 -9.92493e-06 0)
(0.000252481 -9.39281e-06 0)
(0.000255136 -8.8551e-06 0)
(0.000257633 -8.3122e-06 0)
(0.000259972 -7.76445e-06 0)
(0.000262151 -7.21221e-06 0)
(0.000264168 -6.65593e-06 0)
(0.000266022 -6.09598e-06 0)
(0.000267713 -5.53276e-06 0)
(0.000269239 -4.96661e-06 0)