/*--------------------------------*- C++ -*----------------------------------*\
  =========                 |
  \\      /  F ield         | OpenFOAM: The Open Source CFD Toolbox
   \\    /   O peration     | Website:  https://openfoam.org
    \\  /    A nd           | Version:  7
     \\/     M anipulation  |
\*---------------------------------------------------------------------------*/
FoamFile
{
    version     2.0;
    format      ascii;
    class       volScalarField;
    location    "0.15";
    object      p;
}
// * * * * * * * * * * * * * * * * * * * * * * * * * * * * * * * * * * * * * //

dimensions      [0 2 -2 0 0 0 0];

internalField   nonuniform List<scalar> 
51200
(
-3.49826e-07
-6.12223e-07
-9.46081e-07
-1.57222e-06
-2.30946e-06
-3.08858e-06
-3.91486e-06
-4.80173e-06
-5.76087e-06
-6.79772e-06
-7.90076e-06
-9.04993e-06
-1.02346e-05
-1.14498e-05
-1.26913e-05
-1.3967e-05
-1.52696e-05
-1.65805e-05
-1.79002e-05
-1.92276e-05
-2.05447e-05
-2.18384e-05
-2.31028e-05
-2.43319e-05
-2.55315e-05
-2.67131e-05
-2.78761e-05
-2.90108e-05
-3.01081e-05
-3.11612e-05
-3.21653e-05
-3.31225e-05
-3.40406e-05
-3.4922e-05
-3.5758e-05
-3.65368e-05
-3.72585e-05
-3.79337e-05
-3.85671e-05
-3.91562e-05
-3.96985e-05
-4.01888e-05
-4.06196e-05
-4.09916e-05
-4.13134e-05
-4.15897e-05
-4.18175e-05
-4.19939e-05
-4.21226e-05
-4.22101e-05
-4.22569e-05
-4.2255e-05
-4.21974e-05
-4.2087e-05
-4.19336e-05
-4.17438e-05
-4.15181e-05
-4.12522e-05
-4.09398e-05
-4.05775e-05
-4.01688e-05
-3.97224e-05
-3.92452e-05
-3.87376e-05
-3.8197e-05
-3.7622e-05
-3.70152e-05
-3.63813e-05
-3.57221e-05
-3.50339e-05
-3.43127e-05
-3.35615e-05
-3.27896e-05
-3.20052e-05
-3.12092e-05
-3.03971e-05
-2.95659e-05
-2.87175e-05
-2.78565e-05
-2.69867e-05
-2.61102e-05
-2.52292e-05
-2.43469e-05
-2.34663e-05
-2.25874e-05
-2.17077e-05
-2.08264e-05
-1.9948e-05
-1.90822e-05
-1.82365e-05
-1.74113e-05
-1.66008e-05
-1.58002e-05
-1.50118e-05
-1.42436e-05
-1.35027e-05
-1.27897e-05
-1.21018e-05
-1.14376e-05
-1.08007e-05
-1.01968e-05
-9.6303e-06
-9.10229e-06
-8.6135e-06
-8.16701e-06
-7.7671e-06
-7.41598e-06
-7.11249e-06
-6.85422e-06
-6.64053e-06
-6.47382e-06
-6.35826e-06
-6.29767e-06
-6.2938e-06
-6.34571e-06
-6.45116e-06
-6.60953e-06
-6.82277e-06
-7.09338e-06
-7.42247e-06
-7.81014e-06
-8.25612e-06
-8.7594e-06
-9.31816e-06
-9.93112e-06
-1.05988e-05
-1.13226e-05
-1.21023e-05
-1.29348e-05
-1.38153e-05
-1.47419e-05
-1.57152e-05
-1.67364e-05
-1.78037e-05
-1.89116e-05
-2.0054e-05
-2.12252e-05
-2.24216e-05
-2.36401e-05
-2.48781e-05
-2.61302e-05
-2.73877e-05
-2.86395e-05
-2.98751e-05
-3.10869e-05
-3.2269e-05
-3.34145e-05
-3.45126e-05
-3.55495e-05
-3.65114e-05
-3.73877e-05
-3.81692e-05
-3.88447e-05
-3.94002e-05
-3.98224e-05
-4.0103e-05
-4.02427e-05
-4.02507e-05
-4.01514e-05
-4.00099e-05
-9.1646e-07
-1.20217e-06
-1.58937e-06
-2.16832e-06
-2.83044e-06
-3.5226e-06
-4.26483e-06
-5.06457e-06
-5.92523e-06
-6.85719e-06
-7.85326e-06
-8.90487e-06
-1.00064e-05
-1.11391e-05
-1.2299e-05
-1.34875e-05
-1.46961e-05
-1.5916e-05
-1.71432e-05
-1.83749e-05
-1.96083e-05
-2.08367e-05
-2.20485e-05
-2.32349e-05
-2.43922e-05
-2.55207e-05
-2.66232e-05
-2.76999e-05
-2.87475e-05
-2.97608e-05
-3.0732e-05
-3.16572e-05
-3.25418e-05
-3.33922e-05
-3.42066e-05
-3.49776e-05
-3.56999e-05
-3.63724e-05
-3.69964e-05
-3.75753e-05
-3.81123e-05
-3.86047e-05
-3.90456e-05
-3.94327e-05
-3.97715e-05
-4.00663e-05
-4.03154e-05
-4.05152e-05
-4.06665e-05
-4.07742e-05
-4.08416e-05
-4.08674e-05
-4.08486e-05
-4.07837e-05
-4.06728e-05
-4.0517e-05
-4.03202e-05
-4.0087e-05
-3.98171e-05
-3.95047e-05
-3.9147e-05
-3.8749e-05
-3.83192e-05
-3.78599e-05
-3.73674e-05
-3.6839e-05
-3.62779e-05
-3.56912e-05
-3.5083e-05
-3.4451e-05
-3.37901e-05
-3.30997e-05
-3.23846e-05
-3.16511e-05
-3.09026e-05
-3.01388e-05
-2.93604e-05
-2.85704e-05
-2.77716e-05
-2.69638e-05
-2.61462e-05
-2.53198e-05
-2.44888e-05
-2.36585e-05
-2.28319e-05
-2.20086e-05
-2.11869e-05
-2.03684e-05
-1.95585e-05
-1.87638e-05
-1.79872e-05
-1.7227e-05
-1.648e-05
-1.57464e-05
-1.50307e-05
-1.43382e-05
-1.36713e-05
-1.30295e-05
-1.24124e-05
-1.18225e-05
-1.1264e-05
-1.07407e-05
-1.0254e-05
-9.80475e-06
-9.3961e-06
-9.03272e-06
-8.71755e-06
-8.44952e-06
-8.22502e-06
-8.04168e-06
-7.9011e-06
-7.80841e-06
-7.76889e-06
-7.78489e-06
-7.85513e-06
-7.97645e-06
-8.14712e-06
-8.36892e-06
-8.64537e-06
-8.97831e-06
-9.36682e-06
-9.80911e-06
-1.03043e-05
-1.08522e-05
-1.14528e-05
-1.2106e-05
-1.28108e-05
-1.35657e-05
-1.43681e-05
-1.5215e-05
-1.61047e-05
-1.70376e-05
-1.80143e-05
-1.90332e-05
-2.00895e-05
-2.11764e-05
-2.22879e-05
-2.34199e-05
-2.45696e-05
-2.57349e-05
-2.69117e-05
-2.80925e-05
-2.92667e-05
-3.04231e-05
-3.15522e-05
-3.26481e-05
-3.3706e-05
-3.47191e-05
-3.56766e-05
-3.65644e-05
-3.73699e-05
-3.8084e-05
-3.86998e-05
-3.921e-05
-3.96062e-05
-3.98818e-05
-4.00379e-05
-4.00829e-05
-4.00238e-05
-3.98841e-05
-1.47442e-06
-1.72739e-06
-2.08229e-06
-2.58999e-06
-3.16327e-06
-3.77861e-06
-4.45386e-06
-5.18821e-06
-5.98251e-06
-6.83635e-06
-7.75025e-06
-8.72369e-06
-9.74845e-06
-1.08158e-05
-1.1913e-05
-1.3032e-05
-1.41741e-05
-1.53312e-05
-1.64905e-05
-1.76526e-05
-1.88173e-05
-1.99795e-05
-2.1137e-05
-2.22823e-05
-2.34025e-05
-2.44922e-05
-2.55514e-05
-2.65825e-05
-2.75889e-05
-2.85691e-05
-2.95146e-05
-3.04183e-05
-3.12802e-05
-3.21041e-05
-3.28956e-05
-3.36554e-05
-3.43757e-05
-3.5048e-05
-3.56707e-05
-3.62467e-05
-3.67799e-05
-3.72706e-05
-3.77154e-05
-3.81124e-05
-3.8464e-05
-3.87729e-05
-3.90387e-05
-3.92599e-05
-3.94349e-05
-3.95629e-05
-3.9646e-05
-3.96893e-05
-3.96972e-05
-3.96685e-05
-3.95963e-05
-3.94746e-05
-3.93061e-05
-3.90996e-05
-3.886e-05
-3.85832e-05
-3.82645e-05
-3.79065e-05
-3.75167e-05
-3.7098e-05
-3.6647e-05
-3.61611e-05
-3.56426e-05
-3.50966e-05
-3.45273e-05
-3.39352e-05
-3.33193e-05
-3.26792e-05
-3.20156e-05
-3.13296e-05
-3.06232e-05
-2.99001e-05
-2.91649e-05
-2.84221e-05
-2.76731e-05
-2.69156e-05
-2.61474e-05
-2.5369e-05
-2.45847e-05
-2.37994e-05
-2.30162e-05
-2.22367e-05
-2.14624e-05
-2.06951e-05
-1.99364e-05
-1.9188e-05
-1.84522e-05
-1.77313e-05
-1.70272e-05
-1.63408e-05
-1.56726e-05
-1.50239e-05
-1.43964e-05
-1.37923e-05
-1.32141e-05
-1.26647e-05
-1.21465e-05
-1.16614e-05
-1.12109e-05
-1.07968e-05
-1.04223e-05
-1.00918e-05
-9.80772e-06
-9.56892e-06
-9.37181e-06
-9.21409e-06
-9.09735e-06
-9.02653e-06
-9.00671e-06
-9.03996e-06
-9.1248e-06
-9.25831e-06
-9.43903e-06
-9.66888e-06
-9.95168e-06
-1.02895e-05
-1.06805e-05
-1.11216e-05
-1.16114e-05
-1.21511e-05
-1.27423e-05
-1.33847e-05
-1.4076e-05
-1.48125e-05
-1.55919e-05
-1.64124e-05
-1.72737e-05
-1.81758e-05
-1.91183e-05
-2.00987e-05
-2.11125e-05
-2.21539e-05
-2.32177e-05
-2.42998e-05
-2.5397e-05
-2.6506e-05
-2.76231e-05
-2.87419e-05
-2.98536e-05
-3.09477e-05
-3.20144e-05
-3.30463e-05
-3.40386e-05
-3.49866e-05
-3.58825e-05
-3.67147e-05
-3.74699e-05
-3.81381e-05
-3.87134e-05
-3.91918e-05
-3.95685e-05
-3.98376e-05
-3.99983e-05
-4.00548e-05
-3.99966e-05
-3.98194e-05
-2.07072e-06
-2.22053e-06
-2.48946e-06
-2.88213e-06
-3.36092e-06
-3.89937e-06
-4.5056e-06
-5.18478e-06
-5.92639e-06
-6.7285e-06
-7.59026e-06
-8.50028e-06
-9.46009e-06
-1.04697e-05
-1.15079e-05
-1.25701e-05
-1.36584e-05
-1.4762e-05
-1.58745e-05
-1.6992e-05
-1.81059e-05
-1.92132e-05
-2.0316e-05
-2.14115e-05
-2.24918e-05
-2.35494e-05
-2.45788e-05
-2.55793e-05
-2.65533e-05
-2.75004e-05
-2.84196e-05
-2.93075e-05
-3.01575e-05
-3.09662e-05
-3.17394e-05
-3.2483e-05
-3.31917e-05
-3.38584e-05
-3.44823e-05
-3.5063e-05
-3.55985e-05
-3.60888e-05
-3.65356e-05
-3.69403e-05
-3.73022e-05
-3.76203e-05
-3.78963e-05
-3.81336e-05
-3.8331e-05
-3.84826e-05
-3.85854e-05
-3.86451e-05
-3.86702e-05
-3.86625e-05
-3.86171e-05
-3.85273e-05
-3.8392e-05
-3.8215e-05
-3.80006e-05
-3.77497e-05
-3.74624e-05
-3.71402e-05
-3.67853e-05
-3.63985e-05
-3.59794e-05
-3.55297e-05
-3.50524e-05
-3.45481e-05
-3.40157e-05
-3.34564e-05
-3.28737e-05
-3.22718e-05
-3.16511e-05
-3.1009e-05
-3.03446e-05
-2.96617e-05
-2.89666e-05
-2.82642e-05
-2.75551e-05
-2.68375e-05
-2.61106e-05
-2.53763e-05
-2.46379e-05
-2.38969e-05
-2.31541e-05
-2.24117e-05
-2.16751e-05
-2.09497e-05
-2.0237e-05
-1.95342e-05
-1.88393e-05
-1.81546e-05
-1.74862e-05
-1.68385e-05
-1.6212e-05
-1.56045e-05
-1.50153e-05
-1.44471e-05
-1.39046e-05
-1.33914e-05
-1.29089e-05
-1.24579e-05
-1.20402e-05
-1.16591e-05
-1.13183e-05
-1.10207e-05
-1.07666e-05
-1.05537e-05
-1.03792e-05
-1.02431e-05
-1.01483e-05
-1.00995e-05
-1.00999e-05
-1.01499e-05
-1.02477e-05
-1.03917e-05
-1.0582e-05
-1.08207e-05
-1.11107e-05
-1.14535e-05
-1.18474e-05
-1.2289e-05
-1.27767e-05
-1.33119e-05
-1.38968e-05
-1.45314e-05
-1.52124e-05
-1.59352e-05
-1.66965e-05
-1.74958e-05
-1.83342e-05
-1.92123e-05
-2.01287e-05
-2.10793e-05
-2.20584e-05
-2.30608e-05
-2.40832e-05
-2.51236e-05
-2.61793e-05
-2.72456e-05
-2.83162e-05
-2.93843e-05
-3.04427e-05
-3.14838e-05
-3.25002e-05
-3.34842e-05
-3.44291e-05
-3.53288e-05
-3.61768e-05
-3.69643e-05
-3.76811e-05
-3.83175e-05
-3.88669e-05
-3.93255e-05
-3.96892e-05
-3.99526e-05
-4.01126e-05
-4.01688e-05
-4.00991e-05
-3.98849e-05
-2.49644e-06
-2.55493e-06
-2.73807e-06
-3.04412e-06
-3.44613e-06
-3.92112e-06
-4.4723e-06
-5.09609e-06
-5.78614e-06
-6.54361e-06
-7.35958e-06
-8.22335e-06
-9.13384e-06
-1.00863e-05
-1.10738e-05
-1.20876e-05
-1.31216e-05
-1.41734e-05
-1.52394e-05
-1.63129e-05
-1.73875e-05
-1.84561e-05
-1.95144e-05
-2.05625e-05
-2.15996e-05
-2.26205e-05
-2.36212e-05
-2.45987e-05
-2.55477e-05
-2.64657e-05
-2.73567e-05
-2.82228e-05
-2.9059e-05
-2.98596e-05
-3.06249e-05
-3.13568e-05
-3.20525e-05
-3.27094e-05
-3.33297e-05
-3.39122e-05
-3.44506e-05
-3.49431e-05
-3.53938e-05
-3.58063e-05
-3.61786e-05
-3.65072e-05
-3.67936e-05
-3.70421e-05
-3.72534e-05
-3.74232e-05
-3.75492e-05
-3.76341e-05
-3.7681e-05
-3.76902e-05
-3.76613e-05
-3.75951e-05
-3.74905e-05
-3.73448e-05
-3.71568e-05
-3.69303e-05
-3.66717e-05
-3.63835e-05
-3.60628e-05
-3.57067e-05
-3.53166e-05
-3.48983e-05
-3.44566e-05
-3.39906e-05
-3.34963e-05
-3.29733e-05
-3.24256e-05
-3.18583e-05
-3.12733e-05
-3.06683e-05
-3.00431e-05
-2.94016e-05
-2.87491e-05
-2.80881e-05
-2.74178e-05
-2.6737e-05
-2.60475e-05
-2.53536e-05
-2.46579e-05
-2.39604e-05
-2.32597e-05
-2.25574e-05
-2.18593e-05
-2.11724e-05
-2.04995e-05
-1.98384e-05
-1.91853e-05
-1.85408e-05
-1.79104e-05
-1.72998e-05
-1.67107e-05
-1.61414e-05
-1.55903e-05
-1.50597e-05
-1.45541e-05
-1.40775e-05
-1.36304e-05
-1.32129e-05
-1.28272e-05
-1.24783e-05
-1.21708e-05
-1.19064e-05
-1.16832e-05
-1.14972e-05
-1.1346e-05
-1.12313e-05
-1.11581e-05
-1.11312e-05
-1.11521e-05
-1.12192e-05
-1.13303e-05
-1.14855e-05
-1.16864e-05
-1.19355e-05
-1.22344e-05
-1.2583e-05
-1.29795e-05
-1.3422e-05
-1.39096e-05
-1.44432e-05
-1.50246e-05
-1.5653e-05
-1.63252e-05
-1.70363e-05
-1.7783e-05
-1.8565e-05
-1.93836e-05
-2.024e-05
-2.11328e-05
-2.20574e-05
-2.30072e-05
-2.39764e-05
-2.49619e-05
-2.59634e-05
-2.69801e-05
-2.80077e-05
-2.90385e-05
-3.00637e-05
-3.10759e-05
-3.20694e-05
-3.30396e-05
-3.3981e-05
-3.48864e-05
-3.57476e-05
-3.65569e-05
-3.73074e-05
-3.79917e-05
-3.86024e-05
-3.9133e-05
-3.95784e-05
-3.99342e-05
-4.0195e-05
-4.03561e-05
-4.0414e-05
-4.03395e-05
-4.0108e-05
-2.68094e-06
-2.67162e-06
-2.80034e-06
-3.05022e-06
-3.39797e-06
-3.83292e-06
-4.34469e-06
-4.92732e-06
-5.57905e-06
-6.29065e-06
-7.06263e-06
-7.89055e-06
-8.75835e-06
-9.66498e-06
-1.06094e-05
-1.15796e-05
-1.25703e-05
-1.35793e-05
-1.45987e-05
-1.56258e-05
-1.66605e-05
-1.76949e-05
-1.872e-05
-1.97326e-05
-2.07319e-05
-2.17168e-05
-2.2687e-05
-2.36398e-05
-2.4568e-05
-2.5467e-05
-2.63369e-05
-2.71795e-05
-2.79964e-05
-2.87862e-05
-2.9545e-05
-3.02693e-05
-3.09575e-05
-3.16093e-05
-3.22255e-05
-3.28047e-05
-3.33428e-05
-3.38385e-05
-3.4294e-05
-3.4712e-05
-3.50922e-05
-3.54331e-05
-3.57348e-05
-3.59966e-05
-3.62172e-05
-3.63972e-05
-3.65402e-05
-3.6649e-05
-3.6721e-05
-3.67512e-05
-3.67402e-05
-3.6693e-05
-3.66115e-05
-3.64916e-05
-3.63299e-05
-3.61295e-05
-3.58983e-05
-3.5639e-05
-3.53482e-05
-3.50226e-05
-3.46639e-05
-3.42771e-05
-3.38663e-05
-3.3431e-05
-3.29692e-05
-3.2482e-05
-3.19722e-05
-3.14416e-05
-3.08903e-05
-3.03181e-05
-2.97275e-05
-2.9124e-05
-2.85117e-05
-2.7891e-05
-2.72594e-05
-2.66165e-05
-2.5965e-05
-2.53094e-05
-2.46519e-05
-2.39923e-05
-2.33308e-05
-2.267e-05
-2.20142e-05
-2.13675e-05
-2.07318e-05
-2.01066e-05
-1.94913e-05
-1.88873e-05
-1.82978e-05
-1.7726e-05
-1.71732e-05
-1.66393e-05
-1.61245e-05
-1.5631e-05
-1.51626e-05
-1.47218e-05
-1.43093e-05
-1.39254e-05
-1.35727e-05
-1.32566e-05
-1.29816e-05
-1.27487e-05
-1.25547e-05
-1.23953e-05
-1.22687e-05
-1.21773e-05
-1.21268e-05
-1.21215e-05
-1.21622e-05
-1.22463e-05
-1.23715e-05
-1.25387e-05
-1.27512e-05
-1.30118e-05
-1.33208e-05
-1.36764e-05
-1.40765e-05
-1.45205e-05
-1.50089e-05
-1.55431e-05
-1.61235e-05
-1.6748e-05
-1.74127e-05
-1.81135e-05
-1.88481e-05
-1.96167e-05
-2.04202e-05
-2.12588e-05
-2.21301e-05
-2.30303e-05
-2.39538e-05
-2.48951e-05
-2.58507e-05
-2.68194e-05
-2.78008e-05
-2.87918e-05
-2.97858e-05
-3.07738e-05
-3.17478e-05
-3.27021e-05
-3.3633e-05
-3.45369e-05
-3.54077e-05
-3.62368e-05
-3.70157e-05
-3.77376e-05
-3.8397e-05
-3.89889e-05
-3.95071e-05
-3.99454e-05
-4.02982e-05
-4.056e-05
-4.0726e-05
-4.0791e-05
-4.07233e-05
-4.04969e-05
-2.63586e-06
-2.59373e-06
-2.69638e-06
-2.91343e-06
-3.23016e-06
-3.63377e-06
-4.11524e-06
-4.67448e-06
-5.29783e-06
-5.97671e-06
-6.71408e-06
-7.50466e-06
-8.33782e-06
-9.20943e-06
-1.01142e-05
-1.10455e-05
-1.20009e-05
-1.29748e-05
-1.39575e-05
-1.49458e-05
-1.59404e-05
-1.6939e-05
-1.79335e-05
-1.89173e-05
-1.9888e-05
-2.08448e-05
-2.17864e-05
-2.27112e-05
-2.36174e-05
-2.45011e-05
-2.53568e-05
-2.61831e-05
-2.69843e-05
-2.77617e-05
-2.85096e-05
-2.92243e-05
-2.99071e-05
-3.05573e-05
-3.11714e-05
-3.17468e-05
-3.22838e-05
-3.27832e-05
-3.32443e-05
-3.36662e-05
-3.40509e-05
-3.44014e-05
-3.47174e-05
-3.49942e-05
-3.52276e-05
-3.54196e-05
-3.55762e-05
-3.57007e-05
-3.57908e-05
-3.58418e-05
-3.58529e-05
-3.58265e-05
-3.57637e-05
-3.56633e-05
-3.55252e-05
-3.53523e-05
-3.51484e-05
-3.4914e-05
-3.46473e-05
-3.43487e-05
-3.40212e-05
-3.36672e-05
-3.32869e-05
-3.28794e-05
-3.24457e-05
-3.19897e-05
-3.15143e-05
-3.10188e-05
-3.05011e-05
-2.9962e-05
-2.94058e-05
-2.88382e-05
-2.82621e-05
-2.76768e-05
-2.70809e-05
-2.64752e-05
-2.58626e-05
-2.52458e-05
-2.46251e-05
-2.40003e-05
-2.33741e-05
-2.27517e-05
-2.21375e-05
-2.15325e-05
-2.0935e-05
-2.03447e-05
-1.97642e-05
-1.91977e-05
-1.8648e-05
-1.81154e-05
-1.75992e-05
-1.71001e-05
-1.66206e-05
-1.61636e-05
-1.57316e-05
-1.53253e-05
-1.49454e-05
-1.45937e-05
-1.42742e-05
-1.3992e-05
-1.37502e-05
-1.35478e-05
-1.33812e-05
-1.3247e-05
-1.31448e-05
-1.30781e-05
-1.30516e-05
-1.30684e-05
-1.31285e-05
-1.32294e-05
-1.33694e-05
-1.35501e-05
-1.37753e-05
-1.40479e-05
-1.43673e-05
-1.47307e-05
-1.51358e-05
-1.55826e-05
-1.60732e-05
-1.66092e-05
-1.71902e-05
-1.78129e-05
-1.84724e-05
-1.91649e-05
-1.98892e-05
-2.06468e-05
-2.14389e-05
-2.22644e-05
-2.31188e-05
-2.39976e-05
-2.48965e-05
-2.58126e-05
-2.67432e-05
-2.76859e-05
-2.86385e-05
-2.95975e-05
-3.05575e-05
-3.15117e-05
-3.2453e-05
-3.33758e-05
-3.42759e-05
-3.51495e-05
-3.59914e-05
-3.67939e-05
-3.75486e-05
-3.82491e-05
-3.88911e-05
-3.94709e-05
-3.99833e-05
-4.0421e-05
-4.07767e-05
-4.10444e-05
-4.12195e-05
-4.12973e-05
-4.1248e-05
-4.10468e-05
-2.39084e-06
-2.34285e-06
-2.43673e-06
-2.6459e-06
-2.94812e-06
-3.33356e-06
-3.79861e-06
-4.33468e-06
-4.9387e-06
-5.60061e-06
-6.31112e-06
-7.07021e-06
-7.8757e-06
-8.7177e-06
-9.59067e-06
-1.04905e-05
-1.14125e-05
-1.23536e-05
-1.3308e-05
-1.42673e-05
-1.52289e-05
-1.61936e-05
-1.7157e-05
-1.81139e-05
-1.90617e-05
-1.99979e-05
-2.09175e-05
-2.18181e-05
-2.27017e-05
-2.35669e-05
-2.44084e-05
-2.52241e-05
-2.60157e-05
-2.67827e-05
-2.752e-05
-2.82259e-05
-2.8903e-05
-2.95499e-05
-3.01612e-05
-3.07339e-05
-3.12704e-05
-3.1773e-05
-3.22395e-05
-3.26675e-05
-3.30587e-05
-3.34167e-05
-3.3741e-05
-3.40274e-05
-3.42741e-05
-3.44831e-05
-3.46564e-05
-3.47942e-05
-3.48962e-05
-3.49631e-05
-3.4995e-05
-3.49897e-05
-3.49447e-05
-3.48612e-05
-3.47441e-05
-3.4597e-05
-3.44195e-05
-3.42088e-05
-3.39643e-05
-3.36898e-05
-3.339e-05
-3.30654e-05
-3.27139e-05
-3.23347e-05
-3.19299e-05
-3.15037e-05
-3.10584e-05
-3.05928e-05
-3.01056e-05
-2.95991e-05
-2.90781e-05
-2.85465e-05
-2.80049e-05
-2.74522e-05
-2.6889e-05
-2.63181e-05
-2.57425e-05
-2.51629e-05
-2.45782e-05
-2.39884e-05
-2.33974e-05
-2.28116e-05
-2.22357e-05
-2.16695e-05
-2.11099e-05
-2.0556e-05
-2.00112e-05
-1.9481e-05
-1.89685e-05
-1.8473e-05
-1.79928e-05
-1.75288e-05
-1.70844e-05
-1.66633e-05
-1.62667e-05
-1.58941e-05
-1.55459e-05
-1.52255e-05
-1.49383e-05
-1.46895e-05
-1.44805e-05
-1.43085e-05
-1.41688e-05
-1.40591e-05
-1.39814e-05
-1.39397e-05
-1.39378e-05
-1.39771e-05
-1.40563e-05
-1.41739e-05
-1.43295e-05
-1.45253e-05
-1.47649e-05
-1.50501e-05
-1.53799e-05
-1.57513e-05
-1.61624e-05
-1.6614e-05
-1.71085e-05
-1.76476e-05
-1.823e-05
-1.88519e-05
-1.95082e-05
-2.01952e-05
-2.09122e-05
-2.16609e-05
-2.24432e-05
-2.32578e-05
-2.40994e-05
-2.49615e-05
-2.58399e-05
-2.67334e-05
-2.76413e-05
-2.85618e-05
-2.9491e-05
-3.04239e-05
-3.13551e-05
-3.22795e-05
-3.31923e-05
-3.4089e-05
-3.49649e-05
-3.58152e-05
-3.66344e-05
-3.74158e-05
-3.81523e-05
-3.88379e-05
-3.94688e-05
-4.00423e-05
-4.05542e-05
-4.09969e-05
-4.13616e-05
-4.1641e-05
-4.18309e-05
-4.19275e-05
-4.19062e-05
-4.17463e-05
-1.97021e-06
-1.93934e-06
-2.04242e-06
-2.25255e-06
-2.5536e-06
-2.94025e-06
-3.39675e-06
-3.91833e-06
-4.50921e-06
-5.15819e-06
-5.85223e-06
-6.59189e-06
-7.37301e-06
-8.18913e-06
-9.03868e-06
-9.91432e-06
-1.08077e-05
-1.17191e-05
-1.26476e-05
-1.35843e-05
-1.45217e-05
-1.54586e-05
-1.6394e-05
-1.73254e-05
-1.82512e-05
-1.91685e-05
-2.00716e-05
-2.09562e-05
-2.18219e-05
-2.26685e-05
-2.34955e-05
-2.43015e-05
-2.50842e-05
-2.58412e-05
-2.65707e-05
-2.72717e-05
-2.79442e-05
-2.8586e-05
-2.91935e-05
-2.97652e-05
-3.03019e-05
-3.0805e-05
-3.12744e-05
-3.17095e-05
-3.2111e-05
-3.24785e-05
-3.28089e-05
-3.31009e-05
-3.33574e-05
-3.35816e-05
-3.37718e-05
-3.39239e-05
-3.40385e-05
-3.41194e-05
-3.41676e-05
-3.41795e-05
-3.41517e-05
-3.4086e-05
-3.3989e-05
-3.3864e-05
-3.37088e-05
-3.35203e-05
-3.32991e-05
-3.30494e-05
-3.2775e-05
-3.24751e-05
-3.21482e-05
-3.17955e-05
-3.14202e-05
-3.10244e-05
-3.06077e-05
-3.01691e-05
-2.97098e-05
-2.9234e-05
-2.87467e-05
-2.82494e-05
-2.7741e-05
-2.72203e-05
-2.66893e-05
-2.6152e-05
-2.56108e-05
-2.5065e-05
-2.45137e-05
-2.39588e-05
-2.34046e-05
-2.28563e-05
-2.23167e-05
-2.17856e-05
-2.12612e-05
-2.07438e-05
-2.02364e-05
-1.97431e-05
-1.92662e-05
-1.88055e-05
-1.83601e-05
-1.79312e-05
-1.75222e-05
-1.71361e-05
-1.67732e-05
-1.6433e-05
-1.61163e-05
-1.58276e-05
-1.55728e-05
-1.53565e-05
-1.51787e-05
-1.50355e-05
-1.49223e-05
-1.48376e-05
-1.47848e-05
-1.47685e-05
-1.47915e-05
-1.48529e-05
-1.49512e-05
-1.50854e-05
-1.52572e-05
-1.54695e-05
-1.57249e-05
-1.60237e-05
-1.63641e-05
-1.67435e-05
-1.71614e-05
-1.76192e-05
-1.81197e-05
-1.86636e-05
-1.92484e-05
-1.98698e-05
-2.05236e-05
-2.12073e-05
-2.19205e-05
-2.26639e-05
-2.34383e-05
-2.42427e-05
-2.50725e-05
-2.59212e-05
-2.67841e-05
-2.76596e-05
-2.85481e-05
-2.94486e-05
-3.03574e-05
-3.12687e-05
-3.21767e-05
-3.30768e-05
-3.39659e-05
-3.48411e-05
-3.56979e-05
-3.65306e-05
-3.73328e-05
-3.80985e-05
-3.8822e-05
-3.94986e-05
-4.01247e-05
-4.06975e-05
-4.12134e-05
-4.16655e-05
-4.2044e-05
-4.23408e-05
-4.25516e-05
-4.26736e-05
-4.26885e-05
-4.25815e-05
-1.3892e-06
-1.40142e-06
-1.5268e-06
-1.74926e-06
-2.06017e-06
-2.45187e-06
-2.91274e-06
-3.43388e-06
-4.01403e-06
-4.65164e-06
-5.33854e-06
-6.06644e-06
-6.8305e-06
-7.62848e-06
-8.45856e-06
-9.31428e-06
-1.0187e-05
-1.10746e-05
-1.19784e-05
-1.28938e-05
-1.38124e-05
-1.47292e-05
-1.56442e-05
-1.65559e-05
-1.74611e-05
-1.83582e-05
-1.92456e-05
-2.0118e-05
-2.09705e-05
-2.18036e-05
-2.26197e-05
-2.3417e-05
-2.41898e-05
-2.49367e-05
-2.56597e-05
-2.63574e-05
-2.7026e-05
-2.76626e-05
-2.82669e-05
-2.88391e-05
-2.93774e-05
-2.98805e-05
-3.03509e-05
-3.07916e-05
-3.12022e-05
-3.15786e-05
-3.19167e-05
-3.22168e-05
-3.24828e-05
-3.27178e-05
-3.29198e-05
-3.30852e-05
-3.32146e-05
-3.33102e-05
-3.33715e-05
-3.33961e-05
-3.33837e-05
-3.33373e-05
-3.32609e-05
-3.31554e-05
-3.30183e-05
-3.28493e-05
-3.2651e-05
-3.24265e-05
-3.21766e-05
-3.18996e-05
-3.15953e-05
-3.12669e-05
-3.09187e-05
-3.05512e-05
-3.01619e-05
-2.975e-05
-2.93185e-05
-2.88729e-05
-2.8417e-05
-2.7951e-05
-2.74732e-05
-2.69836e-05
-2.64851e-05
-2.59813e-05
-2.54728e-05
-2.49583e-05
-2.44381e-05
-2.39165e-05
-2.33991e-05
-2.28889e-05
-2.23858e-05
-2.18883e-05
-2.13969e-05
-2.09143e-05
-2.04439e-05
-1.99877e-05
-1.9546e-05
-1.91186e-05
-1.87069e-05
-1.8313e-05
-1.79397e-05
-1.7588e-05
-1.72573e-05
-1.69477e-05
-1.66618e-05
-1.64051e-05
-1.61835e-05
-1.59995e-05
-1.58516e-05
-1.57354e-05
-1.56475e-05
-1.5588e-05
-1.55607e-05
-1.55701e-05
-1.56173e-05
-1.57006e-05
-1.58176e-05
-1.59689e-05
-1.61576e-05
-1.63872e-05
-1.66592e-05
-1.69722e-05
-1.73237e-05
-1.77118e-05
-1.81372e-05
-1.86026e-05
-1.91106e-05
-1.96606e-05
-2.02491e-05
-2.08711e-05
-2.15231e-05
-2.22044e-05
-2.29157e-05
-2.36567e-05
-2.44264e-05
-2.52222e-05
-2.60407e-05
-2.68771e-05
-2.77275e-05
-2.85897e-05
-2.94633e-05
-3.03472e-05
-3.12381e-05
-3.21307e-05
-3.30196e-05
-3.39007e-05
-3.47717e-05
-3.56304e-05
-3.64728e-05
-3.72926e-05
-3.80829e-05
-3.88378e-05
-3.9553e-05
-4.02254e-05
-4.08521e-05
-4.14296e-05
-4.19539e-05
-4.2419e-05
-4.28156e-05
-4.31349e-05
-4.33725e-05
-4.35261e-05
-4.35841e-05
-4.35382e-05
-6.6473e-07
-7.33279e-07
-8.9737e-07
-1.14831e-06
-1.47306e-06
-1.87472e-06
-2.35097e-06
-2.88058e-06
-3.45868e-06
-4.09148e-06
-4.77188e-06
-5.49158e-06
-6.24805e-06
-7.03529e-06
-7.84942e-06
-8.68971e-06
-9.54956e-06
-1.04213e-05
-1.13046e-05
-1.21992e-05
-1.30994e-05
-1.40006e-05
-1.49015e-05
-1.57999e-05
-1.66905e-05
-1.75714e-05
-1.84434e-05
-1.93026e-05
-2.01441e-05
-2.09683e-05
-2.17766e-05
-2.25657e-05
-2.33305e-05
-2.40705e-05
-2.47883e-05
-2.54815e-05
-2.61455e-05
-2.67778e-05
-2.73796e-05
-2.79517e-05
-2.84916e-05
-2.89973e-05
-2.94715e-05
-2.99173e-05
-3.03329e-05
-3.07141e-05
-3.10594e-05
-3.13705e-05
-3.16484e-05
-3.18926e-05
-3.21026e-05
-3.22789e-05
-3.24227e-05
-3.25327e-05
-3.26056e-05
-3.2641e-05
-3.26427e-05
-3.26148e-05
-3.25581e-05
-3.24706e-05
-3.23504e-05
-3.22e-05
-3.20231e-05
-3.18214e-05
-3.15936e-05
-3.13386e-05
-3.10575e-05
-3.07538e-05
-3.04306e-05
-3.00876e-05
-2.9723e-05
-2.93373e-05
-2.89345e-05
-2.85193e-05
-2.80934e-05
-2.7656e-05
-2.72067e-05
-2.67473e-05
-2.62808e-05
-2.58091e-05
-2.53319e-05
-2.48477e-05
-2.43584e-05
-2.38698e-05
-2.33875e-05
-2.29136e-05
-2.24458e-05
-2.19821e-05
-2.15239e-05
-2.10754e-05
-2.06404e-05
-2.02198e-05
-1.98123e-05
-1.94179e-05
-1.90394e-05
-1.868e-05
-1.83417e-05
-1.80237e-05
-1.77246e-05
-1.7445e-05
-1.71894e-05
-1.69646e-05
-1.67758e-05
-1.66235e-05
-1.65043e-05
-1.6414e-05
-1.63507e-05
-1.63164e-05
-1.6315e-05
-1.63496e-05
-1.642e-05
-1.65241e-05
-1.66599e-05
-1.68289e-05
-1.70354e-05
-1.72827e-05
-1.75714e-05
-1.78988e-05
-1.82618e-05
-1.86597e-05
-1.90941e-05
-1.95684e-05
-2.00844e-05
-2.06412e-05
-2.12342e-05
-2.18584e-05
-2.25104e-05
-2.31905e-05
-2.39003e-05
-2.46399e-05
-2.54066e-05
-2.61964e-05
-2.70054e-05
-2.78307e-05
-2.867e-05
-2.95217e-05
-3.03844e-05
-3.12558e-05
-3.21323e-05
-3.30093e-05
-3.38822e-05
-3.47483e-05
-3.5606e-05
-3.64532e-05
-3.72859e-05
-3.80975e-05
-3.88804e-05
-3.9629e-05
-4.03402e-05
-4.10124e-05
-4.16439e-05
-4.22308e-05
-4.27678e-05
-4.32491e-05
-4.36671e-05
-4.40134e-05
-4.42831e-05
-4.44743e-05
-4.45813e-05
-4.46023e-05
1.83445e-07
5.04098e-08
-1.64213e-07
-4.50663e-07
-8.01068e-07
-1.22059e-06
-1.70962e-06
-2.25456e-06
-2.84528e-06
-3.48058e-06
-4.15798e-06
-4.87465e-06
-5.62755e-06
-6.40796e-06
-7.21152e-06
-8.04044e-06
-8.89096e-06
-9.75391e-06
-1.06248e-05
-1.15034e-05
-1.2388e-05
-1.3276e-05
-1.41645e-05
-1.50513e-05
-1.59326e-05
-1.6804e-05
-1.7664e-05
-1.85113e-05
-1.93446e-05
-2.01626e-05
-2.0963e-05
-2.17438e-05
-2.25029e-05
-2.324e-05
-2.39539e-05
-2.46421e-05
-2.53018e-05
-2.59319e-05
-2.65319e-05
-2.71018e-05
-2.76413e-05
-2.81509e-05
-2.86321e-05
-2.90842e-05
-2.95034e-05
-2.98876e-05
-3.02389e-05
-3.056e-05
-3.08488e-05
-3.11022e-05
-3.13208e-05
-3.15075e-05
-3.1663e-05
-3.17842e-05
-3.18678e-05
-3.19149e-05
-3.19312e-05
-3.192e-05
-3.18799e-05
-3.18084e-05
-3.17055e-05
-3.15745e-05
-3.14186e-05
-3.1237e-05
-3.10283e-05
-3.07936e-05
-3.05359e-05
-3.02574e-05
-2.99584e-05
-2.96378e-05
-2.92958e-05
-2.89354e-05
-2.85612e-05
-2.81758e-05
-2.77786e-05
-2.73685e-05
-2.69469e-05
-2.65171e-05
-2.60816e-05
-2.56403e-05
-2.5192e-05
-2.47373e-05
-2.42799e-05
-2.38252e-05
-2.33774e-05
-2.2937e-05
-2.25021e-05
-2.20714e-05
-2.16471e-05
-2.12331e-05
-2.08322e-05
-2.04448e-05
-2.00702e-05
-1.97088e-05
-1.93638e-05
-1.90386e-05
-1.87338e-05
-1.84479e-05
-1.81795e-05
-1.79302e-05
-1.77057e-05
-1.75131e-05
-1.73561e-05
-1.72337e-05
-1.71415e-05
-1.70761e-05
-1.70375e-05
-1.70288e-05
-1.70532e-05
-1.71121e-05
-1.72043e-05
-1.73277e-05
-1.74819e-05
-1.76695e-05
-1.78948e-05
-1.81603e-05
-1.84652e-05
-1.88065e-05
-1.91815e-05
-1.95902e-05
-2.00354e-05
-2.05198e-05
-2.10446e-05
-2.16078e-05
-2.22054e-05
-2.28326e-05
-2.34866e-05
-2.41675e-05
-2.48768e-05
-2.56149e-05
-2.63787e-05
-2.71635e-05
-2.79651e-05
-2.87815e-05
-2.96118e-05
-3.04551e-05
-3.13093e-05
-3.21713e-05
-3.30367e-05
-3.39016e-05
-3.47625e-05
-3.56175e-05
-3.64656e-05
-3.73053e-05
-3.81323e-05
-3.89398e-05
-3.97197e-05
-4.04664e-05
-4.11775e-05
-4.18528e-05
-4.24923e-05
-4.30923e-05
-4.36462e-05
-4.41474e-05
-4.45895e-05
-4.49659e-05
-4.52721e-05
-4.55058e-05
-4.56671e-05
-4.57597e-05
1.13533e-06
9.30546e-07
6.67991e-07
3.37308e-07
-5.52714e-08
-4.96498e-07
-9.98995e-07
-1.56189e-06
-2.16889e-06
-2.8141e-06
-3.49852e-06
-4.21837e-06
-4.97028e-06
-5.74922e-06
-6.54936e-06
-7.37028e-06
-8.21195e-06
-9.06838e-06
-9.93244e-06
-1.08021e-05
-1.16781e-05
-1.25576e-05
-1.34361e-05
-1.43128e-05
-1.51862e-05
-1.60506e-05
-1.69022e-05
-1.77422e-05
-1.85712e-05
-1.93846e-05
-2.0178e-05
-2.09517e-05
-2.1707e-05
-2.24419e-05
-2.31524e-05
-2.38359e-05
-2.44927e-05
-2.51224e-05
-2.57219e-05
-2.62899e-05
-2.68291e-05
-2.73423e-05
-2.78293e-05
-2.82863e-05
-2.87096e-05
-2.9099e-05
-2.94574e-05
-2.9786e-05
-3.00823e-05
-3.0344e-05
-3.05729e-05
-3.07707e-05
-3.09356e-05
-3.10646e-05
-3.11577e-05
-3.1218e-05
-3.12499e-05
-3.12538e-05
-3.12276e-05
-3.11705e-05
-3.10848e-05
-3.09736e-05
-3.08377e-05
-3.0675e-05
-3.04845e-05
-3.02692e-05
-3.00337e-05
-2.97789e-05
-2.95029e-05
-2.92041e-05
-2.88846e-05
-2.85496e-05
-2.82032e-05
-2.78458e-05
-2.74758e-05
-2.70924e-05
-2.66985e-05
-2.62982e-05
-2.58927e-05
-2.54799e-05
-2.5059e-05
-2.46329e-05
-2.42074e-05
-2.37873e-05
-2.33738e-05
-2.29656e-05
-2.25615e-05
-2.21627e-05
-2.17721e-05
-2.13923e-05
-2.10245e-05
-2.06687e-05
-2.03253e-05
-1.99966e-05
-1.96856e-05
-1.93944e-05
-1.9122e-05
-1.88663e-05
-1.86272e-05
-1.84082e-05
-1.82157e-05
-1.80555e-05
-1.79296e-05
-1.78352e-05
-1.77683e-05
-1.77269e-05
-1.77129e-05
-1.77297e-05
-1.77795e-05
-1.78618e-05
-1.79742e-05
-1.81159e-05
-1.82882e-05
-1.84947e-05
-1.87392e-05
-1.90229e-05
-1.93438e-05
-1.96986e-05
-2.00855e-05
-2.05059e-05
-2.09629e-05
-2.14587e-05
-2.19928e-05
-2.25626e-05
-2.31643e-05
-2.37945e-05
-2.44514e-05
-2.51348e-05
-2.58451e-05
-2.6582e-05
-2.73426e-05
-2.81225e-05
-2.89179e-05
-2.97273e-05
-3.0551e-05
-3.13884e-05
-3.22366e-05
-3.30913e-05
-3.3948e-05
-3.48034e-05
-3.56557e-05
-3.65039e-05
-3.73469e-05
-3.81826e-05
-3.90067e-05
-3.98129e-05
-4.05934e-05
-4.13424e-05
-4.20577e-05
-4.27397e-05
-4.33893e-05
-4.40048e-05
-4.45789e-05
-4.51036e-05
-4.55728e-05
-4.5982e-05
-4.63275e-05
-4.66074e-05
-4.68271e-05
-4.69955e-05
2.17846e-06
1.90029e-06
1.5853e-06
1.20926e-06
7.72421e-07
2.9402e-07
-2.31944e-07
-8.11288e-07
-1.43449e-06
-2.09564e-06
-2.79236e-06
-3.51899e-06
-4.27461e-06
-5.05808e-06
-5.86164e-06
-6.68101e-06
-7.51721e-06
-8.36779e-06
-9.22732e-06
-1.00933e-05
-1.09651e-05
-1.18401e-05
-1.27144e-05
-1.35856e-05
-1.44524e-05
-1.53106e-05
-1.61574e-05
-1.69939e-05
-1.78196e-05
-1.86292e-05
-1.94189e-05
-2.01898e-05
-2.09428e-05
-2.16746e-05
-2.23817e-05
-2.30624e-05
-2.37171e-05
-2.43454e-05
-2.49444e-05
-2.55132e-05
-2.60553e-05
-2.65727e-05
-2.70629e-05
-2.75221e-05
-2.79493e-05
-2.83462e-05
-2.87128e-05
-2.90476e-05
-2.93494e-05
-2.9619e-05
-2.98582e-05
-3.00661e-05
-3.02387e-05
-3.03747e-05
-3.04774e-05
-3.05513e-05
-3.05979e-05
-3.06155e-05
-3.06023e-05
-3.05599e-05
-3.04914e-05
-3.03986e-05
-3.02806e-05
-3.01356e-05
-2.99639e-05
-2.97691e-05
-2.95549e-05
-2.93212e-05
-2.90659e-05
-2.87888e-05
-2.84932e-05
-2.81841e-05
-2.78642e-05
-2.75328e-05
-2.71885e-05
-2.6832e-05
-2.64666e-05
-2.60952e-05
-2.57177e-05
-2.53322e-05
-2.49386e-05
-2.45417e-05
-2.41478e-05
-2.3761e-05
-2.33804e-05
-2.30035e-05
-2.263e-05
-2.22626e-05
-2.19048e-05
-2.15581e-05
-2.12221e-05
-2.08966e-05
-2.05836e-05
-2.0287e-05
-2.00096e-05
-1.97516e-05
-1.95105e-05
-1.92838e-05
-1.90733e-05
-1.88845e-05
-1.87238e-05
-1.85955e-05
-1.84992e-05
-1.84314e-05
-1.83887e-05
-1.8371e-05
-1.83813e-05
-1.84231e-05
-1.84973e-05
-1.86015e-05
-1.87331e-05
-1.88924e-05
-1.90826e-05
-1.93081e-05
-1.95717e-05
-1.98731e-05
-2.02094e-05
-2.05775e-05
-2.09766e-05
-2.14089e-05
-2.1878e-05
-2.23853e-05
-2.29291e-05
-2.35056e-05
-2.41113e-05
-2.47444e-05
-2.54044e-05
-2.6091e-05
-2.68032e-05
-2.75394e-05
-2.82968e-05
-2.90719e-05
-2.9862e-05
-3.06662e-05
-3.14852e-05
-3.23185e-05
-3.31628e-05
-3.40127e-05
-3.48631e-05
-3.57112e-05
-3.65573e-05
-3.74018e-05
-3.82438e-05
-3.90796e-05
-3.99038e-05
-4.07106e-05
-4.14935e-05
-4.22478e-05
-4.29714e-05
-4.36643e-05
-4.43272e-05
-4.49594e-05
-4.55555e-05
-4.61065e-05
-4.66059e-05
-4.70503e-05
-4.74372e-05
-4.77653e-05
-4.80462e-05
-4.82939e-05
3.31273e-06
2.94659e-06
2.57113e-06
2.15995e-06
1.68058e-06
1.15485e-06
5.95862e-07
-5.59042e-09
-6.50418e-07
-1.33076e-06
-2.04189e-06
-2.77956e-06
-3.5433e-06
-4.33335e-06
-5.14387e-06
-5.96827e-06
-6.80489e-06
-7.65374e-06
-8.51289e-06
-9.37904e-06
-1.02489e-05
-1.11218e-05
-1.19955e-05
-1.28653e-05
-1.37284e-05
-1.4584e-05
-1.54306e-05
-1.6266e-05
-1.70879e-05
-1.78942e-05
-1.86835e-05
-1.94552e-05
-2.02071e-05
-2.0936e-05
-2.16409e-05