/*--------------------------------*- C++ -*----------------------------------*\
  =========                 |
  \\      /  F ield         | OpenFOAM: The Open Source CFD Toolbox
   \\    /   O peration     | Website:  https://openfoam.org
    \\  /    A nd           | Version:  7
     \\/     M anipulation  |
\*---------------------------------------------------------------------------*/
FoamFile
{
    version     2.0;
    format      ascii;
    class       surfaceScalarField;
    location    "0.15";
    object      phi;
}
// * * * * * * * * * * * * * * * * * * * * * * * * * * * * * * * * * * * * * //

dimensions      [0 3 -1 0 0 0 0];

internalField   nonuniform List<scalar> 
101920
(
2.52559e-13
1.95469e-13
6.70946e-13
-4.2241e-13
1.54138e-12
-8.66899e-13
2.46556e-12
-9.25957e-13
3.28729e-12
-8.2172e-13
3.98284e-12
-6.94098e-13
4.54471e-12
-5.62574e-13
4.9731e-12
-4.28828e-13
5.26131e-12
-2.87348e-13
5.39862e-12
-1.37517e-13
5.38255e-12
1.66854e-14
5.21292e-12
1.70855e-13
4.88829e-12
3.26568e-13
4.41008e-12
4.79672e-13
3.77813e-12
6.33105e-13
2.98948e-12
7.90011e-13
2.05e-12
9.40639e-13
9.65268e-13
1.08508e-12
-2.64047e-13
1.2289e-12
-1.63314e-12
1.3675e-12
-3.1347e-12
1.50045e-12
-4.76127e-12
1.62607e-12
-6.50425e-12
1.74143e-12
-8.356e-12
1.85e-12
-1.03115e-11
1.95365e-12
-1.23652e-11
2.05159e-12
-1.45113e-11
2.14514e-12
-1.67428e-11
2.23212e-12
-1.90504e-11
2.30891e-12
-2.14254e-11
2.37638e-12
-2.38614e-11
2.43647e-12
-2.63519e-11
2.48975e-12
-2.88899e-11
2.53731e-12
-3.14699e-11
2.58044e-12
-3.40855e-11
2.61628e-12
-3.67267e-11
2.64148e-12
-3.93859e-11
2.65924e-12
-4.20601e-11
2.67358e-12
-4.47444e-11
2.68323e-12
-4.7432e-11
2.68672e-12
-5.01176e-11
2.68466e-12
-5.27954e-11
2.67666e-12
-5.54585e-11
2.66251e-12
-5.81016e-11
2.64337e-12
-6.07206e-11
2.61974e-12
-6.33116e-11
2.59158e-12
-6.58704e-11
2.55891e-12
-6.83916e-11
2.52107e-12
-7.08702e-11
2.47836e-12
-7.33032e-11
2.43306e-12
-7.56884e-11
2.38596e-12
-7.8022e-11
2.33463e-12
-8.0299e-11
2.27746e-12
-8.25153e-11
2.21618e-12
-8.46686e-11
2.15278e-12
-8.67571e-11
2.08767e-12
-8.87791e-11
2.02058e-12
-9.07313e-11
1.95072e-12
-9.26102e-11
1.87748e-12
-9.44128e-11
1.80153e-12
-9.61375e-11
1.72408e-12
-9.77829e-11
1.64556e-12
-9.93473e-11
1.56564e-12
-1.00828e-10
1.4835e-12
-1.02225e-10
1.39844e-12
-1.03536e-10
1.31092e-12
-1.0476e-10
1.22228e-12
-1.05896e-10
1.1338e-12
-1.06944e-10
1.04572e-12
-1.07901e-10
9.56829e-13
-1.08766e-10
8.6561e-13
-1.09537e-10
7.71993e-13
-1.10214e-10
6.77409e-13
-1.10798e-10
5.83631e-13
-1.11289e-10
4.9111e-13
-1.11687e-10
3.98319e-13
-1.11989e-10
3.03586e-13
-1.12196e-10
2.06959e-13
-1.12306e-10
1.09846e-13
-1.12321e-10
1.3582e-14
-1.1224e-10
-8.15279e-14
-1.12065e-10
-1.75925e-13
-1.11794e-10
-2.70061e-13
-1.11429e-10
-3.64127e-13
-1.10969e-10
-4.58367e-13
-1.10416e-10
-5.52982e-13
-1.09768e-10
-6.47843e-13
-1.09026e-10
-7.42467e-13
-1.08191e-10
-8.35842e-13
-1.07266e-10
-9.26688e-13
-1.06252e-10
-1.01487e-12
-1.0515e-10
-1.10201e-12
-1.03959e-10
-1.18973e-12
-1.0268e-10
-1.27787e-12
-1.01314e-10
-1.36496e-12
-9.98658e-11
-1.44955e-12
-9.83366e-11
-1.53117e-12
-9.67276e-11
-1.61044e-12
-9.50394e-11
-1.6882e-12
-9.32735e-11
-1.76469e-12
-9.14323e-11
-1.83975e-12
-8.95189e-11
-1.91292e-12
-8.75362e-11
-1.98348e-12
-8.54862e-11
-2.051e-12
-8.33713e-11
-2.11541e-12
-8.11944e-11
-2.17682e-12
-7.89585e-11
-2.2354e-12
-7.66668e-11
-2.29114e-12
-7.43225e-11
-2.3437e-12
-7.1929e-11
-2.39293e-12
-6.94895e-11
-2.43896e-12
-6.70079e-11
-2.48152e-12
-6.44881e-11
-2.51983e-12
-6.19346e-11
-2.55346e-12
-5.93522e-11
-2.58248e-12
-5.67454e-11
-2.60692e-12
-5.41187e-11
-2.62659e-12
-5.14769e-11
-2.64137e-12
-4.88254e-11
-2.65118e-12
-4.61692e-11
-2.65584e-12
-4.35137e-11
-2.65503e-12
-4.08653e-11
-2.6484e-12
-3.82302e-11
-2.63568e-12
-3.56145e-11
-2.61684e-12
-3.30237e-11
-2.59187e-12
-3.04634e-11
-2.56052e-12
-2.79403e-11
-2.52246e-12
-2.54618e-11
-2.47772e-12
-2.30347e-11
-2.42654e-12
-2.06657e-11
-2.36895e-12
-1.83612e-11
-2.30464e-12
-1.61283e-11
-2.23306e-12
-1.39747e-11
-2.15378e-12
-1.19078e-11
-2.06674e-12
-9.9344e-12
-1.97236e-12
-8.06146e-12
-1.87133e-12
-6.29584e-12
-1.76417e-12
-4.64439e-12
-1.6508e-12
-3.11373e-12
-1.53059e-12
-1.71049e-12
-1.40306e-12
-4.41153e-13
-1.26855e-12
6.88436e-13
-1.1283e-12
1.67321e-12
-9.83556e-13
2.50907e-12
-8.3498e-13
3.19282e-12
-6.83184e-13
3.72185e-12
-5.28788e-13
4.0945e-12
-3.72661e-13
4.31086e-12
-2.16388e-13
4.37359e-12
-6.23713e-14
4.28787e-12
8.67964e-14
4.06089e-12
2.28309e-13
3.70282e-12
3.58634e-13
3.22893e-12
4.73205e-13
2.66214e-12
5.6554e-13
2.03495e-12
6.26616e-13
1.39089e-12
6.44777e-13
7.8734e-13
6.0494e-13
3.0016e-13
4.88205e-13
2.24897e-14
2.78027e-13
2.25323e-14
1.75766e-13
1.56701e-14
9.71383e-13
-1.21334e-12
2.43963e-12
-2.33717e-12
4.15464e-12
-2.63917e-12
5.86384e-12
-2.53269e-12
7.41219e-12
-2.24152e-12
8.70046e-12
-1.85079e-12
9.66665e-12
-1.39464e-12
1.02692e-11
-8.90265e-13
1.0476e-11
-3.445e-13
1.02661e-11
2.23162e-13
9.62661e-12
8.07976e-13
8.5482e-12
1.40205e-12
7.02931e-12
1.99616e-12
5.07076e-12
2.59005e-12
2.67685e-12
3.1816e-12
-1.46371e-13
3.7628e-12
-3.38819e-12
4.3285e-12
-7.03534e-12
4.87742e-12
-1.10738e-11
5.40794e-12
-1.54871e-11
5.91528e-12
-2.02562e-11
6.39661e-12
-2.53637e-11
6.85237e-12
-3.07918e-11
7.28171e-12
-3.65202e-11
7.6845e-12
-4.25292e-11
8.06244e-12
-4.87996e-11
8.41522e-12
-5.53099e-11
8.73946e-12
-6.20386e-11
9.03526e-12
-6.89661e-11
9.30382e-12
-7.60727e-11
9.54356e-12
-8.33371e-11
9.75459e-12
-9.07387e-11
9.93928e-12
-9.8259e-11
1.00991e-11
-1.05878e-10
1.02332e-11
-1.13575e-10
1.03393e-11
-1.21333e-10
1.04187e-11
-1.29136e-10
1.04766e-11
-1.36964e-10
1.05128e-11
-1.44799e-10
1.0525e-11
-1.52628e-10
1.05143e-11
-1.60432e-10
1.04821e-11
-1.68197e-10
1.04278e-11
-1.75908e-10
1.03528e-11
-1.8355e-10
1.02601e-11
-1.9111e-10
1.01508e-11
-1.98574e-10
1.00237e-11
-2.05932e-10
9.87778e-12
-2.13169e-10
9.7142e-12
-2.20273e-10
9.53626e-12
-2.27235e-10
9.34586e-12
-2.34044e-10
9.14165e-12
-2.40689e-10
8.92242e-12
-2.47163e-10
8.69e-12
-2.53456e-10
8.44627e-12
-2.59558e-10
8.19135e-12
-2.65462e-10
7.92559e-12
-2.7116e-10
7.64985e-12
-2.76645e-10
7.36417e-12
-2.81912e-10
7.06855e-12
-2.86953e-10
6.76404e-12
-2.91763e-10
6.45224e-12
-2.96336e-10
6.13451e-12
-3.00667e-10
5.81135e-12
-3.04752e-10
5.48223e-12
-3.08586e-10
5.14647e-12
-3.12164e-10
4.8042e-12
-3.15484e-10
4.45659e-12
-3.18543e-10
4.10493e-12
-3.21337e-10
3.74953e-12
-3.23863e-10
3.39006e-12
-3.26119e-10
3.0268e-12
-3.28101e-10
2.66074e-12
-3.2981e-10
2.29304e-12
-3.31244e-10
1.92441e-12
-3.32402e-10
1.55445e-12
-3.33281e-10
1.18225e-12
-3.33881e-10
8.07803e-13
-3.34201e-10
4.32125e-13
-3.34242e-10
5.63395e-14
-3.34003e-10
-3.19024e-13
-3.33486e-10
-6.93737e-13
-3.32691e-10
-1.06726e-12
-3.31617e-10
-1.4391e-12
-3.30267e-10
-1.80956e-12
-3.2864e-10
-2.17915e-12
-3.26741e-10
-2.54738e-12
-3.24569e-10
-2.91308e-12
-3.22128e-10
-3.27538e-12
-3.1942e-10
-3.63371e-12
-3.16447e-10
-3.98759e-12
-3.13215e-10
-4.33709e-12
-3.09725e-10
-4.6824e-12
-3.05982e-10
-5.02301e-12
-3.01987e-10
-5.35802e-12
-2.97748e-10
-5.68683e-12
-2.93269e-10
-6.00913e-12
-2.88555e-10
-6.32482e-12
-2.83611e-10
-6.63356e-12
-2.78444e-10
-6.93439e-12
-2.73058e-10
-7.22647e-12
-2.6746e-10
-7.50954e-12
-2.61659e-10
-7.78342e-12
-2.55661e-10
-8.0477e-12
-2.49474e-10
-8.30176e-12
-2.43106e-10
-8.5448e-12
-2.36566e-10
-8.77605e-12
-2.29862e-10
-8.99503e-12
-2.23004e-10
-9.20114e-12
-2.16004e-10
-9.39368e-12
-2.0887e-10
-9.57226e-12
-2.01614e-10
-9.73635e-12
-1.94249e-10
-9.88471e-12
-1.86785e-10
-1.00162e-11
-1.79236e-10
-1.01303e-11
-1.71616e-10
-1.02267e-11
-1.63939e-10
-1.03046e-11
-1.56217e-10
-1.03631e-11
-1.48468e-10
-1.04016e-11
-1.40705e-10
-1.04194e-11
-1.32945e-10
-1.04155e-11
-1.25204e-10
-1.03891e-11
-1.17499e-10
-1.03398e-11
-1.09848e-10
-1.02675e-11
-1.02268e-10
-1.01718e-11
-9.4778e-11
-1.00517e-11
-8.7396e-11
-9.90603e-12
-8.01405e-11
-9.73407e-12
-7.30311e-11
-9.53584e-12
-6.60878e-11
-9.3114e-12
-5.93307e-11
-9.06046e-12
-5.27796e-11
-8.78254e-12
-4.64548e-11
-8.47732e-12
-4.03764e-11
-8.14465e-12
-3.45642e-11
-7.78454e-12
-2.90378e-11
-7.39734e-12
-2.38163e-11
-6.98402e-12
-1.89189e-11
-6.54574e-12
-1.43641e-11
-6.0832e-12
-1.01691e-11
-5.5967e-12
-6.35002e-12
-5.087e-12
-2.92148e-12
-4.55609e-12
1.0312e-13
-4.00707e-12
2.71251e-12
-3.4432e-12
4.89836e-12
-2.86772e-12
6.65572e-12
-2.28465e-12
7.98321e-12
-1.69874e-12
8.88337e-12
-1.1159e-12
9.36381e-12
-5.43549e-13
9.43952e-12
9.60719e-15
9.13419e-12
5.33097e-13
8.48139e-12
1.01278e-12
7.52621e-12
1.43076e-12
6.32856e-12
1.76467e-12
4.9678e-12
1.98693e-12
3.54653e-12
2.0645e-12
2.19171e-12
1.95867e-12
1.05154e-12
1.62829e-12
2.80714e-13
1.04931e-12
3.0338e-13
1.32858e-13
-1.13655e-13
9.82088e-13
-2.06497e-12
2.55177e-12
-3.90646e-12
4.50522e-12
-4.59294e-12
6.53962e-12
-4.56644e-12
8.42142e-12
-4.12289e-12
9.98054e-12
-3.40856e-12
1.10914e-11
-2.5062e-12
1.16674e-11
-1.46389e-12
1.16471e-11
-3.22204e-13
1.09867e-11
8.85989e-13
9.65885e-12
2.138e-12
7.64498e-12
3.41644e-12
4.93737e-12
4.70559e-12
1.53636e-12
5.99256e-12
-2.5524e-12
7.26976e-12
-7.31719e-12
8.52693e-12
-1.27448e-11
9.75419e-12
-1.88158e-11
1.09472e-11
-2.55073e-11
1.20993e-11
-3.27963e-11
1.32021e-11
-4.06558e-11
1.42537e-11
-4.90563e-11
1.5251e-11
-5.79691e-11
1.61922e-11
-6.73628e-11
1.70778e-11
-7.72053e-11
1.79065e-11
-8.74645e-11
1.8676e-11
-9.8108e-11
1.9384e-11
-1.09103e-10
2.00308e-11
-1.20418e-10
2.06172e-11
-1.32019e-10
2.11436e-11
-1.43874e-10
2.16105e-11
-1.55951e-10
2.20181e-11
-1.6822e-10
2.23673e-11
-1.80646e-10
2.26592e-11
-1.93202e-10
2.28936e-11
-2.05856e-10
2.30722e-11
-2.18581e-10
2.31995e-11
-2.31346e-10
2.32769e-11
-2.44125e-10
2.33033e-11
-2.56892e-10
2.32805e-11
-2.69619e-10
2.32105e-11
-2.82284e-10
2.30932e-11
-2.94861e-10
2.29305e-11
-3.07328e-10
2.27265e-11
-3.1966e-10
2.24832e-11
-3.31838e-10
2.2201e-11
-3.4384e-10
2.18803e-11
-3.55648e-10
2.15232e-11
-3.67243e-10
2.11324e-11
-3.78607e-10
2.07097e-11
-3.89721e-10
2.02553e-11
-4.0057e-10
1.97702e-11
-4.11138e-10
1.92571e-11
-4.21412e-10
1.87183e-11
-4.31377e-10
1.81546e-11
-4.4102e-10
1.7567e-11
-4.50328e-10
1.69571e-11
-4.5929e-10
1.6326e-11
-4.67896e-10
1.56746e-11
-4.76134e-10
1.5004e-11
-4.83994e-10
1.43156e-11
-4.91469e-10
1.36106e-11
-4.9855e-10
1.28909e-11
-5.05229e-10
1.2158e-11
-5.11498e-10
1.14128e-11
-5.17351e-10
1.06559e-11
-5.22782e-10
9.88787e-12
-5.27785e-10
9.10933e-12
-5.32355e-10
8.32077e-12
-5.36488e-10
7.52302e-12
-5.4018e-10
6.71786e-12
-5.43427e-10
5.9073e-12
-5.46225e-10
5.09234e-12
-5.48572e-10
4.27309e-12
-5.50467e-10
3.44944e-12
-5.51908e-10
2.62175e-12
-5.52893e-10
1.79124e-12
-5.53421e-10
9.59382e-13
-5.53491e-10
1.27292e-13
-5.53105e-10
-7.04455e-13
-5.52261e-10
-1.53543e-12
-5.50963e-10
-2.36477e-12
-5.4921e-10
-3.1914e-12
-5.47005e-10
-4.01485e-12
-5.4435e-10
-4.83512e-12
-5.41247e-10
-5.65129e-12
-5.377e-10
-6.46121e-12
-5.33713e-10
-7.26318e-12
-5.29289e-10
-8.05672e-12
-5.24433e-10
-8.84195e-12
-5.1915e-10
-9.61873e-12
-5.13447e-10
-1.03862e-11
-5.0733e-10
-1.11423e-11
-5.00805e-10
-1.18852e-11
-4.93879e-10
-1.26139e-11
-4.86559e-10
-1.3328e-11
-4.78855e-10
-1.40275e-11
-4.70775e-10
-1.4712e-11
-4.62329e-10
-1.53798e-11
-4.53529e-10
-1.60287e-11
-4.44382e-10
-1.66573e-11
-4.34901e-10
-1.72645e-11
-4.25099e-10
-1.78498e-11
-4.14988e-10
-1.84122e-11
-4.04581e-10
-1.89506e-11
-3.93894e-10
-1.94632e-11
-3.8294e-10
-1.99486e-11
-3.71735e-10
-2.04054e-11
-3.60297e-10
-2.08322e-11
-3.48642e-10
-2.12274e-11
-3.36789e-10
-2.15897e-11
-3.24756e-10
-2.19172e-11
-3.12565e-10
-2.2208e-11
-3.00234e-10
-2.24606e-11
-2.87787e-10
-2.26739e-11
-2.75245e-10
-2.28462e-11
-2.62632e-10
-2.29761e-11
-2.49971e-10
-2.3062e-11
-2.37288e-10
-2.31024e-11
-2.2461e-10
-2.30955e-11
-2.11961e-10
-2.30394e-11
-1.99369e-10
-2.29327e-11
-1.86862e-10
-2.27747e-11
-1.74468e-10
-2.25646e-11
-1.62218e-10
-2.23011e-11
-1.50142e-10
-2.19825e-11
-1.38269e-10
-2.16073e-11
-1.26631e-10
-2.11745e-11
-1.15259e-10
-2.06839e-11
-1.04185e-10
-2.01346e-11
-9.34411e-11
-1.95262e-11
-8.30586e-11
-1.88586e-11
-7.30696e-11
-1.81321e-11
-6.35056e-11
-1.73474e-11
-5.4398e-11
-1.65049e-11
-4.57767e-11
-1.56056e-11
-3.7671e-11
-1.46512e-11
-3.01093e-11
-1.36439e-11
-2.31182e-11
-1.25864e-11
-1.67224e-11
-1.14817e-11
-1.0944e-11
-1.03339e-11
-5.80222e-12
-9.1485e-12
-1.31338e-12
-7.932e-12
2.51052e-12
-6.6918e-12
5.66275e-12
-5.43689e-12
8.14291e-12
-4.1782e-12
9.95761e-12
-2.92907e-12
1.11211e-11
-1.70568e-12
1.16576e-11
-5.26858e-13
1.16042e-11
5.85088e-13
1.10135e-11
1.60213e-12
9.95513e-12
2.48912e-12
8.51843e-12
3.20285e-12
6.81525e-12
3.69175e-12
4.98383e-12
3.89665e-12
3.19005e-12
3.75244e-12
1.6234e-12
3.19486e-12
4.87508e-13
2.18541e-12
7.91036e-13
2.90376e-13
-4.05587e-13
1.28257e-12
-3.05547e-12
2.87323e-12
-5.49748e-12
4.8089e-12
-6.52794e-12
6.80362e-12
-6.56163e-12
8.61045e-12
-5.92971e-12
1.00213e-11
-4.81982e-12
1.08758e-11
-3.36155e-12
1.10569e-11
-1.64676e-12
1.04771e-11
2.56103e-13
9.07164e-12
2.29108e-12
6.79606e-12
4.41209e-12
3.62472e-12
6.58793e-12
-4.60918e-13
8.79024e-12
-5.46105e-12
1.09934e-11
-1.13699e-11
1.31804e-11
-1.81775e-11
1.53351e-11
-2.58638e-11
1.74408e-11
-3.44038e-11
1.94879e-11
-4.37705e-11
2.14668e-11
-5.39336e-11
2.33669e-11
-6.48595e-11
2.51811e-11
-7.65125e-11
2.6904e-11
-8.88533e-11
2.85321e-11
-1.01839e-10
3.00622e-11
-1.15427e-10
3.14929e-11
-1.29574e-10
3.28223e-11
-1.44236e-10
3.4048e-11
-1.59374e-10
3.51685e-11
-1.74942e-10
3.61845e-11
-1.90895e-10
3.70965e-11
-2.0719e-10
3.79053e-11
-2.23785e-10
3.86122e-11
-2.40635e-10
3.92182e-11
-2.577e-10
3.97253e-11
-2.74942e-10
4.01345e-11
-2.92317e-10
4.04478e-11
-3.09785e-10
4.06685e-11
-3.27307e-10
4.07997e-11
-3.44848e-10
4.0843e-11
-3.6237e-10
4.08017e-11
-3.79838e-10
4.06785e-11
-3.9722e-10
4.04747e-11
-4.14483e-10
4.01931e-11
-4.31594e-10
3.98379e-11
-4.48523e-10
3.94119e-11
-4.6524e-10
3.89172e-11
-4.81718e-10
3.83564e-11
-4.97928e-10
3.77332e-11
-5.13847e-10
3.70507e-11
-5.29448e-10
3.63115e-11
-5.4471e-10
3.55175e-11
-5.5961e-10
3.46709e-11
-5.74126e-10
3.37744e-11
-5.88239e-10
3.2831e-11
-6.01927e-10
3.18432e-11
-6.15174e-10
3.08137e-11
-6.27963e-10
2.97452e-11
-6.40278e-10
2.86397e-11
-6.52105e-10
2.7499e-11
-6.63428e-10
2.63253e-11
-6.74233e-10
2.51209e-11
-6.84509e-10
2.38877e-11
-6.94244e-10
2.26275e-11
-7.03427e-10
2.13422e-11
-7.12047e-10
2.00335e-11
-7.20097e-10
1.8704e-11
-7.27566e-10
1.73559e-11
-7.34448e-10
1.59906e-11
-7.40735e-10
1.46087e-11
-7.46422e-10
1.32107e-11
-7.51503e-10
1.17989e-11
-7.55974e-10
1.03763e-11
-7.59827e-10
8.94525e-12
-7.6306e-10
7.50646e-12
-7.65669e-10
6.06027e-12
-7.67654e-10
4.60771e-12
-7.69013e-10
3.15067e-12
-7.69745e-10
1.69109e-12
-7.69849e-10
2.30477e-13
-7.69325e-10
-1.22988e-12
-7.68172e-10
-2.68868e-12
-7.66391e-10
-4.1445e-12
-7.63986e-10
-5.59568e-12
-7.6096e-10
-7.04082e-12
-7.57315e-10
-8.47925e-12
-7.53055e-10
-9.91014e-12
-7.48186e-10
-1.13313e-11
-7.4271e-10
-1.27398e-11
-7.36635e-10
-1.41337e-11
-7.29965e-10
-1.5512e-11
-7.22709e-10
-1.68741e-11
-7.14874e-10
-1.82192e-11
-7.0647e-10
-1.95453e-11
-6.97506e-10
-2.08497e-11
-6.87992e-10
-2.213e-11
-6.77936e-10
-2.33846e-11
-6.67352e-10
-2.46123e-11
-6.56251e-10
-2.58121e-11
-6.44647e-10
-2.69824e-11
-6.32555e-10
-2.81204e-11
-6.19989e-10
-2.92234e-11
-6.06965e-10
-3.02896e-11
-5.93498e-10
-3.13171e-11
-5.79606e-10
-3.2304e-11
-5.65309e-10
-3.32479e-11
-5.50626e-10
-3.41462e-11
-5.35578e-10
-3.49964e-11
-5.20187e-10
-3.57965e-11
-5.04475e-10
-3.65443e-11
-4.88466e-10
-3.72368e-11
-4.72184e-10
-3.78713e-11
-4.55656e-10
-3.84449e-11
-4.3891e-10
-3.89547e-11
-4.21974e-10
-3.93978e-11
-4.04876e-10
-3.9772e-11
-3.87648e-10
-4.00749e-11
-3.70321e-10
-4.03035e-11
-3.52928e-10
-4.04552e-11
-3.35503e-10
-4.05273e-11
-3.18081e-10
-4.05174e-11
-3.00698e-10
-4.04228e-11
-2.83391e-10
-4.02408e-11
-2.66198e-10
-3.99692e-11
-2.49158e-10
-3.9606e-11
-2.3231e-10
-3.91494e-11
-2.15695e-10
-3.85973e-11
-1.99355e-10
-3.79475e-11
-1.8333e-10
-3.71985e-11
-1.67665e-10
-3.63495e-11
-1.524e-10
-3.53997e-11
-1.37579e-10
-3.43481e-11
-1.23244e-10
-3.31943e-11
-1.09437e-10
-3.19388e-11
-9.62008e-11
-3.05831e-11
-8.35761e-11
-2.9129e-11
-7.16032e-11
-2.75786e-11
-6.03205e-11
-2.59346e-11
-4.97644e-11
-2.42005e-11
-3.99694e-11
-2.23813e-11
-3.09677e-11
-2.0483e-11
-2.2788e-11
-1.85132e-11
-1.54547e-11
-1.64815e-11
-8.9875e-12
-1.43991e-11
-3.40034e-12
-1.22791e-11
1.29926e-12
-1.01371e-11
5.11173e-12
-7.9915e-12
8.04698e-12
-5.86459e-12
1.01256e-11
-3.78359e-12
1.1381e-11
-1.78097e-12
1.18615e-11
1.05263e-13
1.16334e-11
1.82973e-12
1.07836e-11
3.33792e-12
9.42141e-12
4.56451e-12
7.68093e-12
5.43239e-12
5.72364e-12
5.85428e-12
3.74015e-12
5.73607e-12
1.95016e-12
4.98472e-12
6.02835e-13
3.53267e-12
1.39408e-12
4.587e-13
-8.64236e-13
1.54524e-12
-4.14368e-12
3.07743e-12
-7.02892e-12
4.83581e-12
-8.28643e-12
6.56288e-12
-8.28802e-12
8.01384e-12
-7.38055e-12
8.97617e-12
-5.78041e-12
9.27148e-12
-3.65622e-12
8.76272e-12
-1.13769e-12
7.3458e-12
1.67412e-12
4.9398e-12
4.69621e-12
1.49216e-12
7.86076e-12
-3.03629e-12
1.11165e-11
-8.66767e-12
1.44202e-11
-1.54079e-11
1.77332e-11
-2.3254e-11
2.10261e-11
-3.21941e-11
2.42749e-11
-4.22069e-11
2.74541e-11
-5.32666e-11
3.05461e-11
-6.53386e-11
3.35374e-11
-7.83848e-11
3.64134e-11
-9.23658e-11
3.91624e-11
-1.07238e-10
4.17768e-11
-1.22954e-10
4.42498e-11
-1.39466e-10
4.65745e-11
-1.56722e-10
4.87477e-11
-1.74668e-10
5.07672e-11
-1.9325e-10
5.26306e-11
-2.12418e-10
5.43361e-11
-2.32116e-10
5.58833e-11
-2.52291e-10
5.72722e-11
-2.72891e-10
5.8504e-11
-2.9386e-10
5.95805e-11
-3.15145e-10
6.0503e-11
-3.36695e-10
6.12746e-11
-3.5846e-10
6.18987e-11
-3.80391e-10
6.23778e-11
-4.02436e-10
6.27143e-11
-4.2455e-10
6.29128e-11
-4.46684e-10
6.29773e-11
-4.68792e-10
6.29112e-11
-4.90833e-10
6.27185e-11
-5.12763e-10
6.24037e-11
-5.34541e-10
6.19711e-11
-5.56128e-10
6.14252e-11
-5.77485e-10
6.07697e-11
-5.98577e-10
6.00086e-11
-6.19367e-10
5.91466e-11
-6.39823e-10
5.81882e-11
-6.5991e-10
5.71373e-11
-6.79597e-10
5.59983e-11
-6.98856e-10
5.47756e-11
-7.17659e-10
5.34735e-11
-7.3598e-10
5.2095e-11
-7.53793e-10
5.06437e-11
-7.71073e-10
4.91234e-11
-7.87797e-10
4.75383e-11
-8.03944e-10
4.58925e-11
-8.19493e-10
4.41893e-11
-8.34425e-10
4.24314e-11
-8.48722e-10
4.06221e-11
-8.62369e-10
3.87654e-11
-8.75348e-10
3.68649e-11
-8.87644e-10
3.49233e-11
-8.99243e-10
3.29426e-11
-9.10134e-10
3.09253e-11
-9.20304e-10
2.88746e-11
-9.29743e-10
2.67941e-11
-9.38439e-10
2.46865e-11
-9.46385e-10
2.2554e-11
-9.53572e-10
2.03983e-11
-9.59994e-10
1.82217e-11
-9.65645e-10
1.60273e-11
-9.70518e-10
1.38182e-11
-9.74609e-10
1.15964e-11
-9.77913e-10
9.36348e-12
-9.80426e-10
7.12178e-12
-9.82149e-10
4.87376e-12
-9.83078e-10
2.6217e-12
-9.83215e-10
3.67446e-13
-9.82558e-10
-1.88683e-12
-9.81108e-10
-4.13867e-12
-9.78867e-10
-6.38581e-12
-9.75837e-10
-8.62613e-12
-9.72021e-10
-1.08573e-11
-9.67423e-10
-1.3077e-11
-9.62049e-10
-1.52837e-11
-9.55904e-10
-1.74752e-11
-9.48994e-10
-1.96486e-11
-9.41328e-10
-2.18009e-11
-9.32912e-10
-2.39295e-11
-9.23755e-10
-2.60322e-11
-9.13866e-10
-2.81071e-11
-9.03259e-10
-3.01519e-11
-8.91944e-10
-3.21638e-11
-8.79933e-10
-3.41397e-11
-8.67241e-10
-3.6077e-11
-8.53881e-10
-3.79728e-11
-8.3987e-10
-3.98245e-11
-8.25223e-10
-4.16293e-11
-8.09959e-10
-4.3384e-11
-7.94097e-10
-4.50853e-11
-7.77656e-10
-4.67301e-11
-7.60658e-10
-4.83153e-11
-7.43125e-10
-4.98376e-11
-7.25079e-10
-5.12934e-11
-7.06547e-10
-5.26786e-11
-6.87554e-10
-5.39897e-11
-6.68128e-10
-5.52231e-11
-6.48298e-10
-5.63754e-11
-6.28093e-10
-5.74425e-11
-6.07544e-10
-5.84202e-11
-5.86685e-10
-5.93043e-11
-5.65549e-10
-6.00905e-11
-5.44173e-10
-6.07747e-11
-5.22593e-10
-6.1353e-11
-5.00846e-10
-6.18217e-11
-4.78974e-10
-6.21766e-11
-4.57017e-10
-6.24133e-11
-4.35018e-10
-6.25277e-11
-4.13019e-10
-6.25162e-11
-3.91066e-10
-6.23753e-11
-3.69206e-10
-6.21013e-11
-3.47485e-10
-6.16906e-11
-3.25952e-10
-6.11396e-11
-3.04657e-10
-6.04454e-11
-2.83649e-10
-5.96052e-11
-2.62981e-10
-5.86164e-11
-2.42703e-10
-5.74768e-11
-2.22867e-10
-5.61848e-11
-2.03527e-10
-5.47398e-11
-1.84735e-10
-5.31409e-11
-1.66542e-10
-5.13877e-11
-1.49001e-10
-4.94808e-11
-1.32163e-10
-4.74221e-11
-1.16078e-10
-4.52146e-11
-1.00794e-10
-4.28624e-11
-8.6359e-11
-4.037e-11
-7.28168e-11
-3.77435e-11
-6.02085e-11
-3.49903e-11
-4.85721e-11
-3.212e-11
-3.79413e-11
-2.91445e-11
-2.83453e-11
-2.6078e-11
-1.98066e-11
-2.29379e-11
-1.2341e-11
-1.97444e-11
-5.95634e-12
-1.65215e-11
-6.50951e-13
-1.32972e-11
3.58799e-12
-1.01044e-11
6.78619e-12
-6.98248e-12
8.98402e-12
-3.97864e-12
1.02386e-11
-1.1484e-12
1.06263e-11
1.44303e-12
1.02451e-11
3.71933e-12
9.21757e-12
5.59177e-12
7.69221e-12
6.9575e-12
5.84595e-12
7.70053e-12
3.88692e-12
7.69528e-12
2.05797e-12
6.81364e-12
6.43755e-13
4.94657e-12
2.03799e-12
5.34966e-13
-1.39783e-12
1.63079e-12
-5.23876e-12
3.01137e-12
-8.40935e-12
4.46335e-12
-9.73813e-12
5.75329e-12
-9.57709e-12
6.64671e-12
-8.27442e-12
6.93597e-12
-6.07001e-12
6.44e-12
-3.16014e-12
5.01101e-12
2.91387e-13
2.53415e-12
4.15046e-12
-1.07861e-12
8.30925e-12
-5.89288e-12
1.26753e-11
-1.19506e-11
1.7175e-11
-1.92785e-11
2.17489e-11
-2.78894e-11
2.63441e-11
-3.778e-11
3.09165e-11
-4.89366e-11
3.54323e-11
-6.13399e-11
3.98581e-11
-7.49599e-11
4.41664e-11
-8.97593e-11
4.83371e-11
-1.05697e-10
5.23503e-11
-1.22726e-10
5.619e-11
-1.40794e-10
5.98448e-11
-1.59848e-10
6.33037e-11
-1.79832e-10
6.65587e-11
-2.00686e-10
6.96026e-11
-2.2235e-10
7.24311e-11
-2.44762e-10
7.5042e-11
-2.67859e-10
7.74329e-11
-2.91578e-10
7.96026e-11
-3.15857e-10
8.15513e-11
-3.40633e-10
8.32801e-11
-3.65843e-10
8.4791e-11
-3.91426e-10
8.60857e-11
-4.1732e-10
8.71676e-11
-4.43463e-10
8.80421e-11
-4.69798e-10
8.87127e-11
-4.96267e-10
8.91828e-11
-5.22814e-10
8.94587e-11
-5.49383e-10
8.95459e-11
-5.7592e-10
8.94485e-11
-6.02373e-10
8.91716e-11
-6.28692e-10
8.87222e-11
-6.54828e-10
8.81066e-11
-6.80734e-10
8.73303e-11
-7.06363e-10
8.63988e-11
-7.31673e-10
8.53184e-11
-7.56622e-10
8.40956e-11
-7.8117e-10
8.2736e-11
-8.05277e-10
8.12447e-11
-8.28906e-10
7.96276e-11
-8.52022e-10
7.78914e-11
-8.7459e-10
7.60421e-11
-8.9658e-10
7.40846e-11
-9.17961e-10
7.2024e-11
-9.38704e-10
6.98658e-11
-9.58782e-10
6.76153e-11
-9.78168e-10
6.5278e-11
-9.96837e-10
6.28587e-11
-1.01477e-09
6.03617e-11
-1.03193e-09
5.77913e-11
-1.04832e-09
5.51526e-11
-1.06391e-09
5.24508e-11
-1.07868e-09
4.969e-11
-1.09261e-09
4.6874e-11
-1.10569e-09
4.40066e-11
-1.11791e-09
4.1092e-11
-1.12925e-09
3.81338e-11
-1.13969e-09
3.51357e-11
-1.14924e-09
3.21015e-11
-1.15788e-09
2.9035e-11
-1.1656e-09
2.59399e-11
-1.17239e-09
2.28194e-11
-1.17825e-09
1.96767e-11
-1.18317e-09
1.6515e-11
-1.18714e-09
1.33375e-11
-1.19017e-09
1.01478e-11
-1.19224e-09
6.94942e-12
-1.19337e-09
3.74515e-12
-1.19354e-09
5.3775e-13
-1.19275e-09
-2.66969e-12
-1.19102e-09
-5.87357e-12
-1.18833e-09
-9.07064e-12
-1.1847e-09
-1.22582e-11
-1.18012e-09
-1.54334e-11
-1.17461e-09
-1.85924e-11
-1.16816e-09
-2.17319e-11
-1.16079e-09
-2.48486e-11
-1.1525e-09
-2.79395e-11
-1.1433e-09
-3.10011e-11
-1.13319e-09
-3.40301e-11
-1.1222e-09
-3.70226e-11
-1.11034e-09
-3.9975e-11
-1.09761e-09
-4.28838e-11
-1.08402e-09
-4.57451e-11
-1.06961e-09
-4.85555e-11
-1.05437e-09
-5.13114e-11
-1.03834e-09
-5.40087e-11
-1.02152e-09
-5.6643e-11
-1.00394e-09
-5.92101e-11
-9.85616e-10
-6.17056e-11
-9.66576e-10
-6.41252e-11
-9.46842e-10
-6.64643e-11
-9.26439e-10
-6.87185e-11
-9.05394e-10
-7.08829e-11
-8.83735e-10
-7.29524e-11
-8.61492e-10
-7.49217e-11
-8.38697e-10
-7.67857e-11
-8.15381e-10
-7.85394e-11
-7.91579e-10
-8.01776e-11
-7.67328e-10
-8.16945e-11
-7.42665e-10
-8.30844e-11
-7.17628e-10
-8.43414e-11
-6.92259e-10
-8.546e-11
-6.666e-10
-8.64344e-11
-6.40695e-10
-8.72588e-11
-6.14589e-10
-8.79279e-11
-5.8833e-10
-8.84359e-11
-5.61967e-10
-8.87772e-11
-5.35549e-10
-8.89459e-11
-5.0913e-10
-8.89364e-11
-4.82762e-10
-8.8744e-11
-4.56499e-10
-8.83638e-11
-4.30398e-10
-8.77911e-11
-4.04517e-10
-8.70209e-11
-3.78914e-10
-8.6049e-11
-3.53648e-10
-8.48716e-11
-3.28779e-10
-8.34855e-11
-3.04369e-10
-8.1888e-11
-2.80477e-10
-8.00769e-11
-2.57167e-10
-7.80508e-11
-2.34498e-10
-7.58094e-11
-2.12533e-10
-7.3353e-11
-1.91332e-10
-7.06827e-11
-1.70955e-10
-6.7801e-11
-1.51458e-10
-6.47122e-11
-1.32899e-10
-6.1422e-11
-1.15332e-10
-5.79377e-11
-9.8808e-11
-5.42682e-11
-8.33741e-11
-5.04248e-11
-6.90736e-11
-4.64211e-11
-5.59448e-11
-4.22741e-11
-4.40199e-11
-3.80037e-11
-3.33245e-11
-3.36341e-11
-2.38757e-11
-2.91935e-11
-1.56816e-11
-2.47152e-11
-8.73971e-12
-2.02384e-11
-3.03527e-12
-1.58087e-11
1.461e-12
-1.14792e-11
4.79446e-12
-7.31254e-12
7.02842e-12
-3.38225e-12
8.24601e-12
2.26117e-13
8.55259e-12
3.41336e-12
8.07844e-12
6.06604e-12
6.98084e-12
8.05489e-12
5.44655e-12
9.23462e-12
3.69569e-12
9.44633e-12
1.98711e-12
8.52256e-12
6.27934e-13
6.30552e-12
2.66599e-12
5.33413e-13
-1.93183e-12
1.53446e-12
-6.23961e-12
2.66396e-12
-9.53802e-12
3.69958e-12
-1.07749e-11
4.42025e-12
-1.0296e-11
4.60084e-12
-8.45519e-12
4.04307e-12
-5.51243e-12
2.57124e-12
-1.68725e-12
3.50143e-14
2.82685e-12
-3.68298e-12
7.86868e-12
-8.67709e-12
1.3303e-11
-1.50183e-11
1.90154e-11
-2.27518e-11
2.49087e-11
-3.19089e-11
3.09062e-11
-4.25041e-11
3.69389e-11
-5.4535e-11
4.29478e-11
-6.79901e-11
4.88865e-11
-8.28458e-11
5.47133e-11
-9.90692e-11
6.03912e-11
-1.16622e-10
6.58906e-11
-1.35458e-10
7.11869e-11
-1.55527e-10
7.62585e-11
-1.7677e-10
8.10876e-11
-1.99128e-10
8.56609e-11
-2.22536e-10
8.99673e-11
-2.4693e-10
9.39969e-11
-2.72242e-10
9.77427e-11
-2.98401e-10
1.01201e-10
-3.25337e-10
1.04369e-10
-3.52978e-10
1.07244e-10
-3.81253e-10
1.09826e-10
-4.10091e-10
1.12118e-10
-4.39421e-10
1.14121e-10
-4.69173e-10
1.15837e-10
-4.99278e-10
1.17271e-10
-5.29664e-10
1.18429e-10
-5.60266e-10
1.19314e-10
-5.91017e-10
1.19934e-10
-6.21853e-10
1.20294e-10
-6.52709e-10
1.20402e-10
-6.83526e-10
1.20264e-10
-7.14242e-10
1.19888e-10
-7.44801e-10
1.19281e-10
-7.75145e-10
1.18451e-10
-8.05222e-10
1.17406e-10
-8.34977e-10
1.16153e-10
-8.6436e-10
1.14701e-10
-8.93324e-10
1.13059e-10
-9.2182e-10
1.11233e-10
-9.49806e-10
1.0923e-10
-9.77238e-10
1.0706e-10
-1.00408e-09
1.04729e-10
-1.03028e-09
1.02246e-10
-1.05581e-09
9.96167e-11
-1.08064e-09
9.68493e-11
-1.10472e-09
9.3951e-11
-1.12803e-09
9.09286e-11
-1.15055e-09
8.77888e-11
-1.17223e-09
8.45383e-11
-1.19305e-09
8.11835e-11
-1.21299e-09
7.77307e-11
-1.23202e-09
7.4186e-11
-1.25013e-09
7.05553e-11
-1.26728e-09
6.68439e-11
-1.28346e-09
6.30578e-11
-1.29866e-09
5.92029e-11
-1.31285e-09
5.52848e-11
-1.32603e-09
5.13082e-11
-1.33817e-09
4.72773e-11
-1.34926e-09
4.31969e-11
-1.3593e-09
3.90728e-11
-1.36827e-09
3.49103e-11
-1.37617e-09
3.07136e-11
-1.38298e-09
2.64868e-11
-1.3887e-09
2.22341e-11
-1.39332e-09
1.79602e-11
-1.39684e-09
1.36699e-11
-1.39926e-09
9.36736e-12
-1.40057e-09
5.0567e-12
-1.40078e-09
7.41924e-13
-1.39987e-09
-3.57271e-12
-1.39786e-09
-7.88256e-12
-1.39475e-09
-1.21831e-11
-1.39054e-09
-1.64706e-11
-1.38523e-09
-2.07414e-11
-1.37883e-09
-2.49911e-11
-1.37135e-09
-2.92146e-11
-1.36279e-09
-3.3407e-11
-1.35317e-09
-3.7564e-11
-1.34248e-09
-4.16815e-11
-1.33076e-09
-4.57551e-11
-1.318e-09
-4.97802e-11
-1.30422e-09
-5.37517e-11
-1.28944e-09
-5.76643e-11
-1.27368e-09
-6.1513e-11
-1.25694e-09
-6.52928e-11
-1.23925e-09
-6.89989e-11
-1.22063e-09
-7.26263e-11
-1.20111e-09
-7.61689e-11
-1.1807e-09
-7.96208e-11
-1.15942e-09
-8.29763e-11
-1.13732e-09
-8.62297e-11
-1.11441e-09
-8.93751e-11
-1.09072e-09
-9.2406e-11
-1.06629e-09
-9.53158e-11
-1.04115e-09
-9.80976e-11
-1.01532e-09
-1.00745e-10
-9.88858e-10
-1.03251e-10
-9.61789e-10
-1.05609e-10
-9.34157e-10
-1.07811e-10
-9.06001e-10
-1.09851e-10
-8.77366e-10
-1.1172e-10
-8.48298e-10
-1.13411e-10
-8.18842e-10
-1.14916e-10
-7.89048e-10
-1.16229e-10
-7.58967e-10
-1.17341e-10
-7.28651e-10
-1.18245e-10
-6.98153e-10
-1.18933e-10
-6.67531e-10
-1.19399e-10
-6.36843e-10
-1.19634e-10
-6.06148e-10
-1.19632e-10
-5.75508e-10
-1.19385e-10
-5.44984e-10
-1.18888e-10
-5.14641e-10
-1.18134e-10
-4.84545e-10
-1.17117e-10
-4.54763e-10
-1.15831e-10
-4.25362e-10
-1.14273e-10
-3.96411e-10
-1.12437e-10
-3.67979e-10
-1.1032e-10
-3.40135e-10
-1.07921e-10
-3.1295e-10
-1.05237e-10
-2.86492e-10
-1.02267e-10
-2.60832e-10
-9.90135e-11
-2.36037e-10
-9.54777e-11
-2.12175e-10
-9.16637e-11
-1.89311e-10
-8.75774e-11
-1.67508e-10
-8.32264e-11
-1.46826e-10
-7.86206e-11
-1.27322e-10
-7.37725e-11
-1.09049e-10
-6.86975e-11
-9.20563e-11
-6.34144e-11
-7.63848e-11
-5.79458e-11
-6.20703e-11
-5.23185e-11
-4.91406e-11
-4.65643e-11
-3.76145e-11
-4.07201e-11
-2.75006e-11
-3.48292e-11
-1.87959e-11
-2.89425e-11
-1.14843e-11
-2.31195e-11
-5.53476e-12
-1.74282e-11
-8.99026e-13
-1.19481e-11
2.48975e-12
-6.77087e-12
4.71886e-12
-2.00258e-12
5.89797e-12
2.23483e-12
6.16161e-12
5.8028e-12
5.67159e-12
8.54507e-12
4.61964e-12
1.02864e-11
3.23225e-12
1.08337e-11
1.77685e-12
9.97848e-12
5.70448e-13
7.51208e-12
3.23649e-12
4.78643e-13
-2.41098e-12
1.29278e-12
-7.05267e-12
2.07312e-12
-1.03185e-11
2.59159e-12
-1.12944e-11
2.62945e-12
-1.03334e-11
1.97328e-12
-7.79921e-12
4.32466e-13
-3.97149e-12
-2.1623e-12
9.07058e-13
-5.95591e-12
6.62074e-12
-1.10657e-11
1.29794e-11
-1.75873e-11
1.98244e-11
-2.55908e-11
2.70193e-11
-3.51274e-11
3.44456e-11
-4.62271e-11
4.20058e-11
-5.89048e-11
4.96172e-11
-7.3161e-11
5.72045e-11
-8.89826e-11
6.47075e-11
-1.06345e-10
7.2075e-11
-1.25213e-10
7.92593e-11
-1.45546e-10
8.62227e-11
-1.67291e-10
9.29332e-11
-1.90395e-10
9.93631e-11
-2.14796e-10
1.05489e-10
-2.40428e-10
1.11292e-10
-2.6722e-10
1.16759e-10
-2.95101e-10
1.21878e-10
-3.23996e-10
1.26638e-10
-3.53827e-10
1.31033e-10
-3.84519e-10
1.3506e-10
-4.15992e-10
1.38716e-10
-4.48167e-10
1.42e-10
-4.80963e-10
1.44914e-10
-5.14302e-10
1.4746e-10
-5.48106e-10
1.49641e-10
-5.82299e-10
1.51464e-10
-6.16802e-10
1.52932e-10
-6.51541e-10
1.54053e-10
-6.86442e-10
1.54835e-10
-7.21432e-10
1.55284e-10
-7.56441e-10
1.5541e-10
-7.914e-10
1.55222e-10
-8.26241e-10
1.54729e-10
-8.60899e-10
1.5394e-10
-8.95312e-10
1.52864e-10
-9.29419e-10
1.51513e-10
-9.63161e-10
1.49895e-10
-9.96481e-10
1.48021e-10
-1.02932e-09
1.45901e-10
-1.06164e-09
1.43545e-10
-1.09337e-09
1.40963e-10
-1.12447e-09
1.38165e-10
-1.15491e-09
1.3516e-10