/*--------------------------------*- C++ -*----------------------------------*\
  =========                 |
  \\      /  F ield         | OpenFOAM: The Open Source CFD Toolbox
   \\    /   O peration     | Website:  https://openfoam.org
    \\  /    A nd           | Version:  7
     \\/     M anipulation  |
\*---------------------------------------------------------------------------*/
FoamFile
{
    version     2.0;
    format      ascii;
    class       volVectorField;
    location    "0.2875";
    object      U;
}
// * * * * * * * * * * * * * * * * * * * * * * * * * * * * * * * * * * * * * //

dimensions      [0 1 -1 0 0 0 0];

internalField   nonuniform List<vector> 
12800
(
(3.34429e-06 -3.3343e-06 0)
(1.85048e-05 -9.83606e-06 0)
(4.45857e-05 -1.208e-05 0)
(7.09313e-05 -1.11176e-05 0)
(9.08995e-05 -8.38996e-06 0)
(0.000101115 -4.77364e-06 0)
(9.97985e-05 -7.71586e-07 0)
(8.61193e-05 3.32166e-06 0)
(5.98818e-05 7.3335e-06 0)
(2.13129e-05 1.11654e-05 0)
(-2.90982e-05 1.47622e-05 0)
(-9.06992e-05 1.80946e-05 0)
(-0.000162737 2.11475e-05 0)
(-0.000244404 2.39169e-05 0)
(-0.000334872 2.64091e-05 0)
(-0.000433316 2.86353e-05 0)
(-0.000538934 3.0608e-05 0)
(-0.000650953 3.23427e-05 0)
(-0.000768641 3.38563e-05 0)
(-0.000891316 3.51661e-05 0)
(-0.00101834 3.62903e-05 0)
(-0.00114914 3.72472e-05 0)
(-0.00128318 3.80548e-05 0)
(-0.00141998 3.87304e-05 0)
(-0.00155912 3.92896e-05 0)
(-0.00170023 3.97469e-05 0)
(-0.00184298 4.01169e-05 0)
(-0.00198707 4.04134e-05 0)
(-0.00213227 4.06484e-05 0)
(-0.00227838 4.08329e-05 0)
(-0.00242523 4.09779e-05 0)
(-0.00257267 4.10926e-05 0)
(-0.00272061 4.11849e-05 0)
(-0.00286897 4.12621e-05 0)
(-0.00301769 4.1331e-05 0)
(-0.00316675 4.13976e-05 0)
(-0.00331612 4.14674e-05 0)
(-0.00346582 4.1545e-05 0)
(-0.00361586 4.16341e-05 0)
(-0.00376628 4.17379e-05 0)
(-0.00391712 4.18591e-05 0)
(-0.00406844 4.20006e-05 0)
(-0.00422029 4.21646e-05 0)
(-0.00437276 4.23528e-05 0)
(-0.00452591 4.25665e-05 0)
(-0.00467983 4.28068e-05 0)
(-0.0048346 4.30742e-05 0)
(-0.00499032 4.33693e-05 0)
(-0.00514706 4.36932e-05 0)
(-0.00530493 4.40466e-05 0)
(-0.00546402 4.44296e-05 0)
(-0.00562443 4.48415e-05 0)
(-0.00578624 4.5282e-05 0)
(-0.00594955 4.57516e-05 0)
(-0.00611446 4.62501e-05 0)
(-0.00628105 4.67769e-05 0)
(-0.00644942 4.73306e-05 0)
(-0.00661964 4.79102e-05 0)
(-0.0067918 4.85151e-05 0)
(-0.00696598 4.91444e-05 0)
(-0.00714224 4.97969e-05 0)
(-0.00732067 5.04706e-05 0)
(-0.0075013 5.11633e-05 0)
(-0.0076842 5.18733e-05 0)
(-0.00786942 5.25986e-05 0)
(-0.00805699 5.33368e-05 0)
(-0.00824693 5.4085e-05 0)
(-0.00843927 5.48405e-05 0)
(-0.00863401 5.55997e-05 0)
(-0.00883114 5.63589e-05 0)
(-0.00903064 5.71141e-05 0)
(-0.00923247 5.78609e-05 0)
(-0.00943658 5.85948e-05 0)
(-0.00964289 5.93109e-05 0)
(-0.00985133 6.00037e-05 0)
(-0.0100618 6.06671e-05 0)
(-0.0102741 6.12947e-05 0)
(-0.0104882 6.188e-05 0)
(-0.0107038 6.2416e-05 0)
(-0.0109207 6.28948e-05 0)
(-0.0111388 6.33084e-05 0)
(-0.0113577 6.3648e-05 0)
(-0.0115771 6.39047e-05 0)
(-0.0117969 6.40688e-05 0)
(-0.0120165 6.41303e-05 0)
(-0.0122356 6.40786e-05 0)
(-0.0124537 6.39028e-05 0)
(-0.0126705 6.35913e-05 0)
(-0.0128854 6.31325e-05 0)
(-0.0130978 6.25143e-05 0)
(-0.0133073 6.17244e-05 0)
(-0.0135131 6.07502e-05 0)
(-0.0137146 5.95789e-05 0)
(-0.013911 5.81976e-05 0)
(-0.0141018 5.6593e-05 0)
(-0.014286 5.47526e-05 0)
(-0.0144629 5.26636e-05 0)
(-0.0146315 5.03139e-05 0)
(-0.014791 4.76916e-05 0)
(-0.0149405 4.47851e-05 0)
(-0.0150789 4.15841e-05 0)
(-0.0152053 3.8079e-05 0)
(-0.0153187 3.42614e-05 0)
(-0.015418 3.01245e-05 0)
(-0.0155021 2.56629e-05 0)
(-0.01557 2.08732e-05 0)
(-0.0156207 1.57537e-05 0)
(-0.015653 1.03052e-05 0)
(-0.0156659 4.53131e-06 0)
(-0.0156584 -1.5615e-06 0)
(-0.0156295 -7.96416e-06 0)
(-0.0155782 -1.4664e-05 0)
(-0.0155036 -2.1645e-05 0)
(-0.0154048 -2.88873e-05 0)
(-0.0152813 -3.63672e-05 0)
(-0.0151321 -4.4057e-05 0)
(-0.0149568 -5.19246e-05 0)
(-0.014755 -5.9934e-05 0)
(-0.0145262 -6.80447e-05 0)
(-0.0142703 -7.62121e-05 0)
(-0.0139873 -8.43875e-05 0)
(-0.0136773 -9.25182e-05 0)
(-0.0133406 -0.000100548 0)
(-0.0129778 -0.000108416 0)
(-0.0125894 -0.000116062 0)
(-0.0121765 -0.000123419 0)
(-0.0117401 -0.000130422 0)
(-0.0112816 -0.000137002 0)
(-0.0108024 -0.000143091 0)
(-0.0103045 -0.000148621 0)
(-0.00978968 -0.000153525 0)
(-0.00926022 -0.000157738 0)
(-0.00871847 -0.000161199 0)
(-0.00816701 -0.00016385 0)
(-0.0076086 -0.000165636 0)
(-0.00704614 -0.000166511 0)
(-0.00648267 -0.000166432 0)
(-0.00592136 -0.000165366 0)
(-0.00536547 -0.000163285 0)
(-0.00481833 -0.00016017 0)
(-0.00428331 -0.00015601 0)
(-0.00376379 -0.000150801 0)
(-0.00326317 -0.000144548 0)
(-0.00278477 -0.000137266 0)
(-0.00233186 -0.000128975 0)
(-0.00190761 -0.000119703 0)
(-0.00151507 -0.000109486 0)
(-0.00115712 -9.83636e-05 0)
(-0.000836462 -8.63857e-05 0)
(-0.000555559 -7.36102e-05 0)
(-0.000316591 -6.01078e-05 0)
(-0.000121379 -4.59722e-05 0)
(2.87318e-05 -3.13394e-05 0)
(0.000133063 -1.64248e-05 0)
(0.000191928 -1.60158e-06 0)
(0.000207192 1.24393e-05 0)
(0.000183118 2.44284e-05 0)
(0.000128235 3.1914e-05 0)
(6.10979e-05 3.03264e-05 0)
(1.38462e-05 1.38667e-05 0)
(9.86159e-06 -1.85257e-05 0)
(4.21412e-05 -4.20704e-05 0)
(8.88391e-05 -4.81351e-05 0)
(0.000131222 -4.10271e-05 0)
(0.000156692 -2.55667e-05 0)
(0.000157853 -5.16911e-06 0)
(0.000130095 1.78622e-05 0)
(7.08442e-05 4.19809e-05 0)
(-2.09068e-05 6.61675e-05 0)
(-0.000145065 8.97513e-05 0)
(-0.000300774 0.000112293 0)
(-0.000486653 0.000133517 0)
(-0.000700977 0.000153256 0)
(-0.00094181 0.000171427 0)
(-0.00120709 0.000188002 0)
(-0.00149474 0.000202997 0)
(-0.00180266 0.000216456 0)
(-0.00212883 0.000228447 0)
(-0.0024713 0.000239052 0)
(-0.00282823 0.000248363 0)
(-0.00319789 0.000256478 0)
(-0.00357868 0.000263497 0)
(-0.00396914 0.000269523 0)
(-0.00436793 0.000274659 0)
(-0.00477386 0.000279001 0)
(-0.00518586 0.000282642 0)
(-0.00560298 0.000285673 0)
(-0.00602439 0.000288178 0)
(-0.00644938 0.000290237 0)
(-0.00687736 0.000291923 0)
(-0.0073078 0.000293305 0)
(-0.0077403 0.000294443 0)
(-0.00817452 0.000295394 0)
(-0.00861021 0.000296209 0)
(-0.00904719 0.000296935 0)
(-0.00948533 0.000297611 0)
(-0.00992456 0.000298276 0)
(-0.0103649 0.000298961 0)
(-0.0108063 0.000299694 0)
(-0.0112489 0.0003005 0)
(-0.0116927 0.000301401 0)
(-0.012138 0.000302416 0)
(-0.0125848 0.00030356 0)
(-0.0130334 0.000304847 0)
(-0.0134839 0.000306288 0)
(-0.0139366 0.000307891 0)
(-0.0143916 0.000309665 0)
(-0.0148493 0.000311615 0)
(-0.0153098 0.000313745 0)
(-0.0157734 0.000316058 0)
(-0.0162404 0.000318557 0)
(-0.016711 0.000321241 0)
(-0.0171855 0.000324109 0)
(-0.0176641 0.000327158 0)
(-0.018147 0.000330388 0)
(-0.0186346 0.000333793 0)
(-0.019127 0.000337367 0)
(-0.0196245 0.000341104 0)
(-0.0201273 0.000344996 0)
(-0.0206356 0.000349033 0)
(-0.0211495 0.000353205 0)
(-0.0216693 0.000357501 0)
(-0.0221951 0.000361907 0)
(-0.022727 0.000366407 0)
(-0.0232651 0.000370985 0)
(-0.0238095 0.000375623 0)
(-0.0243603 0.0003803 0)
(-0.0249175 0.000384994 0)
(-0.025481 0.000389681 0)
(-0.0260508 0.000394335 0)
(-0.0266268 0.000398926 0)
(-0.0272089 0.000403422 0)
(-0.0277969 0.000407792 0)
(-0.0283905 0.000411998 0)
(-0.0289894 0.000416003 0)
(-0.0295934 0.000419764 0)
(-0.0302019 0.000423238 0)
(-0.0308145 0.000426378 0)
(-0.0314307 0.000429134 0)
(-0.0320499 0.000431454 0)
(-0.0326712 0.000433281 0)
(-0.033294 0.000434558 0)
(-0.0339174 0.000435222 0)
(-0.0345404 0.000435209 0)
(-0.035162 0.000434453 0)
(-0.035781 0.000432883 0)
(-0.0363962 0.000430427 0)
(-0.0370062 0.000427011 0)
(-0.0376096 0.000422559 0)
(-0.0382048 0.000416991 0)
(-0.0387901 0.00041023 0)
(-0.0393638 0.000402195 0)
(-0.0399239 0.000392806 0)
(-0.0404685 0.00038198 0)
(-0.0409954 0.000369639 0)
(-0.0415025 0.000355703 0)
(-0.0419873 0.000340097 0)
(-0.0424475 0.000322747 0)
(-0.0428806 0.000303582 0)
(-0.0432839 0.000282539 0)
(-0.0436548 0.000259558 0)
(-0.0439904 0.000234587 0)
(-0.0442881 0.000207584 0)
(-0.0445449 0.000178516 0)
(-0.0447579 0.000147358 0)
(-0.0449243 0.000114103 0)
(-0.0450411 7.87531e-05 0)
(-0.0451054 4.13281e-05 0)
(-0.0451146 1.86411e-06 0)
(-0.0450657 -3.95842e-05 0)
(-0.0449562 -8.29431e-05 0)
(-0.0447835 -0.000128118 0)
(-0.0445453 -0.000174991 0)
(-0.0442394 -0.000223422 0)
(-0.0438639 -0.000273247 0)
(-0.043417 -0.000324276 0)
(-0.0428973 -0.000376293 0)
(-0.0423038 -0.000429058 0)
(-0.0416358 -0.000482305 0)
(-0.0408928 -0.000535742 0)
(-0.040075 -0.000589054 0)
(-0.0391829 -0.000641903 0)
(-0.0382175 -0.000693929 0)
(-0.0371804 -0.000744753 0)
(-0.0360736 -0.000793981 0)
(-0.0348998 -0.000841204 0)
(-0.0336621 -0.000886005 0)
(-0.0323642 -0.000927961 0)
(-0.0310106 -0.000966648 0)
(-0.0296061 -0.00100164 0)
(-0.0281562 -0.00103254 0)
(-0.0266669 -0.00105893 0)
(-0.0251448 -0.00108044 0)
(-0.0235969 -0.00109671 0)
(-0.0220308 -0.00110742 0)
(-0.0204543 -0.00111228 0)
(-0.0188757 -0.00111104 0)
(-0.0173037 -0.00110349 0)
(-0.0157471 -0.00108947 0)
(-0.0142148 -0.00106887 0)
(-0.0127161 -0.00104163 0)
(-0.0112601 -0.00100776 0)
(-0.00985581 -0.0009673 0)
(-0.00851227 -0.000920368 0)
(-0.00723822 -0.000867132 0)
(-0.0060421 -0.000807818 0)
(-0.00493198 -0.000742716 0)
(-0.00391539 -0.000672182 0)
(-0.00299928 -0.000596651 0)
(-0.0021898 -0.000516659 0)
(-0.00149218 -0.000432879 0)
(-0.00091043 -0.000346183 0)
(-0.000447018 -0.000257757 0)
(-0.000102305 -0.000169289 0)
(0.000126224 -8.33051e-05 0)
(0.000245165 -3.71975e-06 0)
(0.000266671 6.32644e-05 0)
(0.000210924 0.000107689 0)
(0.000113577 0.000113825 0)
(3.01441e-05 6.0977e-05 0)
(1.21763e-05 -4.46728e-05 0)
(4.84493e-05 -8.88671e-05 0)
(9.52758e-05 -9.48609e-05 0)
(0.000129744 -7.25503e-05 0)
(0.000136602 -3.091e-05 0)
(0.000106358 2.3065e-05 0)
(3.26861e-05 8.41928e-05 0)
(-8.81907e-05 0.000148753 0)
(-0.00025799 0.000214108 0)
(-0.000476876 0.00027841 0)
(-0.000743871 0.000340389 0)
(-0.00105718 0.000399193 0)
(-0.00141445 0.000454276 0)
(-0.00181293 0.000505322 0)
(-0.00224967 0.000552183 0)
(-0.00272159 0.000594836 0)
(-0.00322561 0.000633352 0)
(-0.00375867 0.000667874 0)
(-0.00431782 0.00069859 0)
(-0.00490025 0.000725727 0)
(-0.00550331 0.000749533 0)
(-0.0061245 0.000770267 0)
(-0.00676155 0.0007882 0)
(-0.00741236 0.0008036 0)
(-0.00807504 0.00081673 0)
(-0.00874789 0.000827846 0)
(-0.00942939 0.000837195 0)
(-0.0101182 0.00084501 0)
(-0.0108132 0.000851512 0)
(-0.0115134 0.000856905 0)
(-0.0122179 0.000861381 0)
(-0.012926 0.000865114 0)
(-0.0136373 0.000868265 0)
(-0.0143511 0.000870981 0)
(-0.0150673 0.000873393 0)
(-0.0157856 0.00087562 0)
(-0.0165057 0.000877768 0)
(-0.0172278 0.000879932 0)
(-0.0179518 0.000882194 0)
(-0.0186777 0.000884628 0)
(-0.0194057 0.000887299 0)
(-0.020136 0.000890262 0)
(-0.0208688 0.000893563 0)
(-0.0216043 0.000897244 0)
(-0.0223429 0.000901339 0)
(-0.0230849 0.000905875 0)
(-0.0238306 0.000910876 0)
(-0.0245803 0.000916358 0)
(-0.0253345 0.000922335 0)
(-0.0260935 0.000928816 0)
(-0.0268578 0.000935807 0)
(-0.0276276 0.000943308 0)
(-0.0284034 0.000951316 0)
(-0.0291855 0.000959825 0)
(-0.0299744 0.000968827 0)
(-0.0307704 0.000978309 0)
(-0.0315739 0.000988252 0)
(-0.0323851 0.000998639 0)
(-0.0332045 0.00100944 0)
(-0.0340323 0.00102064 0)
(-0.0348688 0.00103219 0)
(-0.0357142 0.00104407 0)
(-0.0365688 0.00105622 0)
(-0.0374327 0.00106862 0)
(-0.0383061 0.0010812 0)
(-0.039189 0.00109391 0)
(-0.0400815 0.00110669 0)
(-0.0409836 0.00111948 0)
(-0.0418953 0.0011322 0)
(-0.0428163 0.00114478 0)
(-0.0437466 0.00115712 0)
(-0.0446857 0.00116914 0)
(-0.0456335 0.00118074 0)
(-0.0465895 0.00119182 0)
(-0.0475531 0.00120226 0)
(-0.0485237 0.00121194 0)
(-0.0495007 0.00122073 0)
(-0.0504832 0.0012285 0)
(-0.0514702 0.0012351 0)
(-0.0524608 0.00124039 0)
(-0.0534538 0.00124419 0)
(-0.0544478 0.00124636 0)
(-0.0554415 0.0012467 0)
(-0.0564332 0.00124504 0)
(-0.0574212 0.00124119 0)
(-0.0584037 0.00123495 0)
(-0.0593785 0.00122611 0)
(-0.0603436 0.00121447 0)
(-0.0612965 0.00119982 0)
(-0.0622348 0.00118193 0)
(-0.0631557 0.00116059 0)
(-0.0640564 0.00113558 0)
(-0.0649338 0.00110667 0)
(-0.0657848 0.00107364 0)
(-0.0666059 0.00103628 0)
(-0.0673937 0.000994371 0)
(-0.0681445 0.000947709 0)
(-0.0688545 0.000896098 0)
(-0.0695197 0.000839355 0)
(-0.0701359 0.000777311 0)
(-0.0706991 0.000709815 0)
(-0.0712049 0.000636738 0)
(-0.0716489 0.000557975 0)
(-0.0720267 0.000473451 0)
(-0.0723339 0.000383119 0)
(-0.0725659 0.00028697 0)
(-0.0727184 0.000185036 0)
(-0.0727869 7.73887e-05 0)
(-0.0727671 -3.585e-05 0)
(-0.072655 -0.000154509 0)
(-0.0724464 -0.000278361 0)
(-0.0721376 -0.000407123 0)
(-0.0717252 -0.00054045 0)
(-0.0712058 -0.000677933 0)
(-0.0705766 -0.000819096 0)
(-0.0698352 -0.000963396 0)
(-0.0689795 -0.00111022 0)
(-0.0680081 -0.0012589 0)
(-0.06692 -0.00140867 0)
(-0.065715 -0.00155872 0)
(-0.0643932 -0.00170817 0)
(-0.0629558 -0.00185608 0)
(-0.0614046 -0.00200146 0)
(-0.059742 -0.00214325 0)
(-0.0579715 -0.00228038 0)
(-0.0560973 -0.00241172 0)
(-0.0541244 -0.00253612 0)
(-0.0520588 -0.00265244 0)
(-0.0499073 -0.0027595 0)
(-0.0476776 -0.00285616 0)
(-0.0453781 -0.0029413 0)
(-0.0430184 -0.00301383 0)
(-0.0406086 -0.00307273 0)
(-0.0381595 -0.00311704 0)
(-0.0356829 -0.00314587 0)
(-0.0331908 -0.00315843 0)
(-0.0306962 -0.00315406 0)
(-0.0282121 -0.0031322 0)
(-0.0257523 -0.00309243 0)
(-0.0233305 -0.00303445 0)
(-0.0209608 -0.00295814 0)
(-0.0186572 -0.00286351 0)
(-0.0164336 -0.00275074 0)
(-0.0143037 -0.00262018 0)
(-0.0122808 -0.00247235 0)
(-0.0103777 -0.00230794 0)
(-0.00860664 -0.00212784 0)
(-0.00697885 -0.00193317 0)
(-0.00550458 -0.00172529 0)
(-0.0041928 -0.0015059 0)
(-0.00305085 -0.00127712 0)
(-0.00208409 -0.00104167 0)
(-0.00129534 -0.000803139 0)
(-0.000684193 -0.00056642 0)
(-0.000245964 -0.000338379 0)
(2.96269e-05 -0.000128859 0)
(0.000159969 4.78088e-05 0)
(0.000171694 0.000170918 0)
(0.000107555 0.000211071 0)
(3.16084e-05 0.000127709 0)
(1.13535e-05 -7.13472e-05 0)
(4.17125e-05 -0.000131578 0)
(7.34201e-05 -0.000129448 0)
(8.24614e-05 -8.17307e-05 0)
(5.26464e-05 -2.00849e-06 0)
(-2.64652e-05 9.88734e-05 0)
(-0.000162007 0.000212564 0)
(-0.000358387 0.0003328 0)
(-0.000617724 0.000454965 0)
(-0.000940339 0.000575707 0)
(-0.00132518 0.000692635 0)
(-0.00177017 0.000804086 0)
(-0.00227251 0.000908957 0)
(-0.00282885 0.00100656 0)
(-0.00343556 0.00109655 0)
(-0.0040888 0.00117879 0)
(-0.00478468 0.00125336 0)
(-0.00551932 0.00132046 0)
(-0.00628895 0.00138042 0)
(-0.00708993 0.00143361 0)
(-0.00791883 0.00148048 0)
(-0.0087724 0.00152148 0)
(-0.00964766 0.00155712 0)
(-0.0105418 0.00158788 0)
(-0.0114524 0.00161424 0)
(-0.0123771 0.0016367 0)
(-0.0133139 0.0016557 0)
(-0.0142611 0.0016717 0)
(-0.0152169 0.0016851 0)
(-0.0161802 0.0016963 0)
(-0.0171497 0.00170566 0)
(-0.0181244 0.00171353 0)
(-0.0191037 0.0017202 0)
(-0.0200868 0.00172596 0)
(-0.0210732 0.00173107 0)
(-0.0220627 0.00173575 0)
(-0.0230549 0.00174023 0)
(-0.0240498 0.00174468 0)
(-0.0250473 0.00174926 0)
(-0.0260475 0.00175413 0)
(-0.0270506 0.0017594 0)
(-0.0280568 0.00176519 0)
(-0.0290662 0.0017716 0)
(-0.0300794 0.0017787 0)
(-0.0310965 0.00178657 0)
(-0.032118 0.00179525 0)
(-0.0331444 0.0018048 0)
(-0.0341761 0.00181526 0)
(-0.0352135 0.00182664 0)
(-0.0362572 0.00183897 0)
(-0.0373076 0.00185226 0)
(-0.0383653 0.00186651 0)
(-0.0394307 0.00188171 0)
(-0.0405043 0.00189786 0)
(-0.0415867 0.00191493 0)
(-0.0426782 0.00193289 0)
(-0.0437793 0.00195172 0)
(-0.0448906 0.00197137 0)
(-0.0460122 0.0019918 0)
(-0.0471447 0.00201294 0)
(-0.0482884 0.00203474 0)
(-0.0494435 0.00205711 0)
(-0.0506103 0.00207999 0)
(-0.0517891 0.00210327 0)
(-0.0529799 0.00212686 0)
(-0.0541828 0.00215064 0)
(-0.0553979 0.0021745 0)
(-0.0566251 0.00219831 0)
(-0.0578643 0.00222191 0)
(-0.0591152 0.00224516 0)
(-0.0603775 0.00226788 0)
(-0.0616508 0.0022899 0)
(-0.0629346 0.00231103 0)
(-0.0642283 0.00233104 0)
(-0.0655311 0.00234973 0)
(-0.0668421 0.00236685 0)
(-0.0681603 0.00238216 0)
(-0.0694845 0.00239538 0)
(-0.0708135 0.00240625 0)
(-0.0721458 0.00241446 0)
(-0.0734796 0.00241971 0)
(-0.0748133 0.00242167 0)
(-0.0761448 0.00241999 0)
(-0.0774719 0.00241434 0)
(-0.0787923 0.00240434 0)
(-0.0801034 0.00238961 0)
(-0.0814024 0.00236977 0)
(-0.0826863 0.00234442 0)
(-0.0839519 0.00231316 0)
(-0.0851958 0.00227556 0)
(-0.0864143 0.00223122 0)
(-0.0876037 0.00217971 0)
(-0.0887598 0.00212063 0)
(-0.0898783 0.00205354 0)
(-0.0909548 0.00197807 0)
(-0.0919846 0.00189379 0)
(-0.0929627 0.00180035 0)
(-0.0938842 0.00169737 0)
(-0.0947437 0.00158454 0)
(-0.0955358 0.00146153 0)
(-0.0962551 0.0013281 0)
(-0.0968959 0.001184 0)
(-0.0974525 0.00102908 0)
(-0.0979191 0.000863197 0)
(-0.09829 0.000686301 0)
(-0.0985592 0.000498399 0)
(-0.0987212 0.000299577 0)
(-0.0987702 9.00035e-05 0)
(-0.0987007 -0.000130065 0)
(-0.0985074 -0.000360273 0)
(-0.0981853 -0.000600163 0)
(-0.0977295 -0.000849167 0)
(-0.0971357 -0.00110661 0)
(-0.0963997 -0.00137168 0)
(-0.0955182 -0.00164345 0)
(-0.094488 -0.00192089 0)
(-0.0933068 -0.0022028 0)
(-0.0919729 -0.00248789 0)
(-0.0904853 -0.00277472 0)
(-0.0888437 -0.00306174 0)
(-0.0870489 -0.00334727 0)
(-0.0851024 -0.00362953 0)
(-0.0830067 -0.00390665 0)
(-0.0807653 -0.00417664 0)
(-0.078383 -0.00443747 0)
(-0.0758652 -0.00468701 0)
(-0.0732188 -0.00492313 0)
(-0.0704517 -0.00514365 0)
(-0.0675728 -0.0053464 0)
(-0.0645923 -0.00552923 0)
(-0.0615214 -0.00569006 0)
(-0.0583724 -0.00582684 0)
(-0.0551584 -0.00593768 0)
(-0.0518939 -0.00602076 0)
(-0.0485938 -0.00607446 0)
(-0.0452741 -0.00609732 0)
(-0.0419513 -0.00608808 0)
(-0.0386426 -0.00604572 0)
(-0.0353656 -0.00596946 0)
(-0.0321384 -0.00585878 0)
(-0.0289788 -0.00571347 0)
(-0.0259052 -0.00553359 0)
(-0.0229355 -0.00531951 0)
(-0.0200873 -0.00507195 0)
(-0.0173777 -0.00479196 0)
(-0.0148232 -0.00448094 0)
(-0.0124393 -0.00414071 0)
(-0.0102403 -0.00377352 0)
(-0.00823906 -0.00338214 0)
(-0.00644667 -0.00297 0)
(-0.00487209 -0.00254138 0)
(-0.00352158 -0.00210165 0)
(-0.00239816 -0.00165777 0)
(-0.00150078 -0.00121891 0)
(-0.000823321 -0.000797392 0)
(-0.000353352 -0.00041009 0)
(-7.0763e-05 -8.02784e-05 0)
(5.39914e-05 0.000160179 0)
(6.49176e-05 0.000268125 0)
(2.42879e-05 0.000182469 0)
(8.75003e-06 -9.18393e-05 0)
(2.64214e-05 -0.000157479 0)
(3.15541e-05 -0.000136254 0)
(1.6966e-06 -5.17647e-05 0)
(-7.89249e-05 7.77417e-05 0)
(-0.000220889 0.000237608 0)
(-0.000431483 0.000416297 0)
(-0.00071524 0.000604931 0)
(-0.00107435 0.000796788 0)
(-0.00150911 0.000986853 0)
(-0.00201834 0.00117145 0)
(-0.0025997 0.00134797 0)
(-0.00325001 0.00151462 0)
(-0.00396548 0.00167023 0)
(-0.0047419 0.00181415 0)
(-0.00557485 0.00194613 0)
(-0.00645977 0.00206618 0)
(-0.00739212 0.00217457 0)
(-0.00836743 0.00227174 0)
(-0.00938141 0.00235824 0)
(-0.0104299 0.00243472 0)
(-0.0115091 0.00250188 0)
(-0.0126153 0.00256047 0)
(-0.0137453 0.00261124 0)
(-0.0148959 0.00265495 0)
(-0.0160643 0.00269234 0)
(-0.0172481 0.00272414 0)
(-0.0184451 0.00275103 0)
(-0.0196533 0.00277369 0)
(-0.0208711 0.00279272 0)
(-0.0220969 0.00280871 0)
(-0.0233295 0.0028222 0)
(-0.024568 0.00283368 0)
(-0.0258115 0.0028436 0)
(-0.0270594 0.00285239 0)
(-0.0283111 0.00286041 0)
(-0.0295665 0.00286801 0)
(-0.0308252 0.00287548 0)
(-0.0320873 0.0028831 0)
(-0.0333527 0.00289109 0)
(-0.0346216 0.00289968 0)
(-0.0358942 0.00290904 0)
(-0.0371708 0.00291933 0)
(-0.0384518 0.00293068 0)
(-0.0397376 0.00294321 0)
(-0.0410286 0.00295701 0)
(-0.0423254 0.00297216 0)
(-0.0436284 0.00298872 0)
(-0.0449383 0.00300673 0)
(-0.0462556 0.00302623 0)
(-0.0475808 0.00304723 0)
(-0.0489146 0.00306974 0)
(-0.0502576 0.00309374 0)
(-0.0516103 0.00311922 0)
(-0.0529732 0.00314615 0)
(-0.054347 0.00317447 0)
(-0.0557322 0.00320414 0)
(-0.0571292 0.00323508 0)
(-0.0585385 0.00326722 0)
(-0.0599605 0.00330045 0)
(-0.0613957 0.00333468 0)
(-0.0628443 0.00336977 0)
(-0.0643066 0.0034056 0)
(-0.0657828 0.00344201 0)
(-0.067273 0.00347883 0)
(-0.0687774 0.00351588 0)
(-0.0702957 0.00355297 0)
(-0.071828 0.00358986 0)
(-0.0733741 0.00362633 0)
(-0.0749334 0.00366212 0)
(-0.0765057 0.00369695 0)
(-0.0780903 0.00373052 0)
(-0.0796866 0.00376252 0)
(-0.0812936 0.00379261 0)
(-0.0829105 0.00382042 0)
(-0.0845359 0.00384556 0)
(-0.0861686 0.00386764 0)
(-0.0878072 0.00388622 0)
(-0.0894498 0.00390085 0)
(-0.0910946 0.00391104 0)
(-0.0927395 0.0039163 0)
(-0.0943822 0.00391611 0)
(-0.0960202 0.00390992 0)
(-0.0976508 0.00389716 0)
(-0.0992708 0.00387725 0)
(-0.100877 0.00384958 0)
(-0.102466 0.00381355 0)
(-0.104035 0.00376851 0)
(-0.105578 0.00371382 0)
(-0.107092 0.00364883 0)
(-0.108573 0.00357289 0)
(-0.110015 0.00348533 0)
(-0.111413 0.00338551 0)
(-0.112763 0.00327278 0)
(-0.114059 0.00314651 0)
(-0.115295 0.00300609 0)
(-0.116465 0.00285094 0)
(-0.117563 0.00268051 0)
(-0.118583 0.0024943 0)
(-0.119517 0.00229186 0)
(-0.12036 0.00207278 0)
(-0.121105 0.00183675 0)
(-0.121744 0.00158351 0)
(-0.122271 0.00131292 0)
(-0.122679 0.0010249 0)
(-0.122961 0.00071952 0)
(-0.123111 0.000396947 0)
(-0.123121 5.74865e-05 0)
(-0.122985 -0.000298413 0)
(-0.122696 -0.00067015 0)
(-0.12225 -0.00105696 0)
(-0.12164 -0.00145791 0)
(-0.120861 -0.00187189 0)
(-0.119908 -0.00229759 0)
(-0.118779 -0.00273351 0)
(-0.117468 -0.00317798 0)
(-0.115974 -0.0036291 0)
(-0.114295 -0.00408479 0)
(-0.112429 -0.00454278 0)
(-0.110378 -0.00500058 0)
(-0.108141 -0.00545557 0)
(-0.105721 -0.00590492 0)
(-0.103121 -0.00634566 0)
(-0.100346 -0.00677469 0)
(-0.0974009 -0.00718879 0)
(-0.0942934 -0.00758465 0)
(-0.0910313 -0.0079589 0)
(-0.0876244 -0.00830814 0)
(-0.0840836 -0.00862897 0)
(-0.0804209 -0.00891805 0)
(-0.07665 -0.00917208 0)
(-0.0727855 -0.00938793 0)
(-0.0688434 -0.00956259 0)
(-0.0648407 -0.00969326 0)
(-0.0607955 -0.00977739 0)
(-0.0567268 -0.00981272 0)
(-0.0526544 -0.00979729 0)
(-0.0485987 -0.00972952 0)
(-0.0445809 -0.00960822 0)
(-0.0406221 -0.00943259 0)
(-0.0367442 -0.00920233 0)
(-0.0329685 -0.00891757 0)
(-0.0293165 -0.00857899 0)
(-0.0258092 -0.00818776 0)
(-0.0224668 -0.00774563 0)
(-0.0193088 -0.00725494 0)
(-0.0163534 -0.00671869 0)
(-0.0136175 -0.00614061 0)
(-0.011116 -0.00552531 0)
(-0.00886178 -0.0048784 0)
(-0.00686511 -0.00420685 0)
(-0.00513305 -0.00351929 0)
(-0.00366891 -0.00282666 0)
(-0.00247146 -0.00214299 0)
(-0.00153405 -0.00148652 0)
(-0.000843517 -0.000881346 0)
(-0.000379072 -0.000359452 0)
(-0.000110815 3.69023e-05 0)
(2.24974e-06 0.000252117 0)
(1.29391e-05 0.000207828 0)
(5.18345e-06 -0.000102643 0)
(5.71039e-06 -0.000158641 0)
(-2.40397e-05 -0.000104891 0)
(-0.000103005 2.90543e-05 0)
(-0.000245434 0.000220588 0)
(-0.000461424 0.000451417 0)
(-0.000757886 0.000706934 0)
(-0.00113905 0.000975703 0)
(-0.00160685 0.00124889 0)
(-0.00216139 0.00151976 0)
(-0.00280121 0.00178329 0)
(-0.00352368 0.00203583 0)
(-0.00432526 0.00227481 0)
(-0.00520173 0.00249854 0)
(-0.00614844 0.00270599 0)
(-0.00716043 0.00289673 0)
(-0.00823262 0.0030707 0)
(-0.00935989 0.0032282 0)
(-0.0105372 0.00336977 0)
(-0.0117597 0.00349616 0)
(-0.0130227 0.00360823 0)
(-0.0143217 0.00370695 0)
(-0.0156527 0.00379334 0)
(-0.0170117 0.00386844 0)
(-0.0183952 0.00393332 0)
(-0.0198 0.00398902 0)
(-0.0212232 0.00403657 0)
(-0.0226622 0.00407694 0)
(-0.0241147 0.00411108 0)
(-0.0255787 0.00413988 0)
(-0.0270524 0.00416416 0)
(-0.0285345 0.00418469 0)
(-0.0300237 0.00420221 0)
(-0.0315189 0.00421735 0)
(-0.0330194 0.00423074 0)
(-0.0345247 0.0042429 0)
(-0.0360341 0.00425434 0)
(-0.0375476 0.00426549 0)
(-0.039065 0.00427675 0)
(-0.0405863 0.00428846 0)
(-0.0421115 0.00430095 0)
(-0.043641 0.00431447 0)
(-0.045175 0.00432926 0)
(-0.0467139 0.00434552 0)
(-0.0482582 0.00436342 0)
(-0.0498083 0.00438309 0)
(-0.0513649 0.00440466 0)
(-0.0529284 0.00442821 0)
(-0.0544995 0.00445382 0)
(-0.056079 0.00448152 0)
(-0.0576672 0.00451135 0)
(-0.0592651 0.0045433 0)
(-0.0608731 0.00457737 0)
(-0.062492 0.00461352 0)
(-0.0641224 0.00465171 0)
(-0.0657648 0.00469187 0)
(-0.0674199 0.00473391 0)
(-0.0690882 0.00477773 0)
(-0.0707702 0.00482321 0)
(-0.0724663 0.0048702 0)
(-0.074177 0.00491854 0)
(-0.0759026 0.00496806 0)
(-0.0776433 0.00501853 0)
(-0.0793994 0.00506975 0)
(-0.0811708 0.00512146 0)
(-0.0829577 0.00517338 0)
(-0.08476 0.00522522 0)
(-0.0865773 0.00527665 0)
(-0.0884094 0.00532732 0)
(-0.0902559 0.00537686 0)
(-0.0921161 0.00542484 0)
(-0.0939893 0.00547084 0)
(-0.0958746 0.00551437 0)
(-0.0977709 0.00555496 0)
(-0.0996769 0.00559205 0)
(-0.101591 0.00562508 0)
(-0.103512 0.00565347 0)
(-0.105438 0.00567658 0)
(-0.107367 0.00569374 0)
(-0.109296 0.00570426 0)
(-0.111223 0.00570742 0)
(-0.113145 0.00570246 0)
(-0.115059 0.00568858 0)
(-0.116962 0.00566497 0)
(-0.11885 0.0056308 0)
(-0.12072 0.00558518 0)
(-0.122567 0.00552724 0)
(-0.124387 0.00545607 0)
(-0.126175 0.00537076 0)
(-0.127926 0.00527036 0)
(-0.129635 0.00515396 0)
(-0.131296 0.00502062 0)
(-0.132904 0.00486943 0)
(-0.134452 0.00469947 0)
(-0.135934 0.00450987 0)
(-0.137343 0.00429977 0)
(-0.138673 0.00406838 0)
(-0.139915 0.00381493 0)
(-0.141064 0.00353874 0)
(-0.142111 0.0032392 0)
(-0.143049 0.00291578 0)
(-0.14387 0.00256805 0)
(-0.144566 0.00219571 0)
(-0.145129 0.00179858 0)
(-0.145552 0.00137662 0)
(-0.145827 0.000929952 0)
(-0.145945 0.000458882 0)
(-0.1459 -3.61055e-05 0)
(-0.145685 -0.00055432 0)
(-0.145291 -0.00109485 0)
(-0.144713 -0.00165657 0)
(-0.143945 -0.00223808 0)
(-0.142981 -0.00283775 0)
(-0.141815 -0.00345369 0)
(-0.140444 -0.00408373 0)
(-0.138864 -0.00472542 0)
(-0.137072 -0.00537606 0)
(-0.135066 -0.00603263 0)
(-0.132846 -0.00669189 0)
(-0.130411 -0.00735031 0)
(-0.127763 -0.00800411 0)
(-0.124905 -0.00864928 0)
(-0.121841 -0.0092816 0)
(-0.118576 -0.00989666 0)
(-0.115116 -0.0104899 0)
(-0.111469 -0.0110567 0)
(-0.107646 -0.0115921 0)
(-0.103657 -0.0120915 0)
(-0.0995148 -0.01255 0)
(-0.0952333 -0.0129629 0)
(-0.0908278 -0.0133256 0)
(-0.0863153 -0.0136336 0)
(-0.0817139 -0.0138826 0)
(-0.077043 -0.0140688 0)
(-0.0723231 -0.0141886 0)
(-0.0675758 -0.0142387 0)
(-0.0628236 -0.0142164 0)
(-0.0580899 -0.0141195 0)
(-0.0533985 -0.0139463 0)
(-0.0487736 -0.0136957 0)
(-0.0442398 -0.0133673 0)
(-0.0398215 -0.0129615 0)
(-0.0355429 -0.0124791 0)
(-0.0314279 -0.0119219 0)
(-0.0274993 -0.0112926 0)
(-0.0237791 -0.0105946 0)
(-0.020288 -0.00983225 0)
(-0.0170448 -0.00901115 0)
(-0.0140663 -0.00813801 0)
(-0.0113671 -0.00722103 0)
(-0.00895846 -0.00627024 0)
(-0.0068484 -0.00529794 0)
(-0.00504083 -0.00431939 0)
(-0.0035349 -0.00335374 0)
(-0.0023243 -0.00242524 0)
(-0.00139642 -0.00156495 0)
(-0.000731394 -0.0008129 0)
(-0.000300934 -0.000220471 0)
(-7.00156e-05 0.000146402 0)
(1.12555e-07 0.000196761 0)
(1.11547e-06 -0.00010165 0)
(-1.83671e-05 -0.000129576 0)
(-8.88526e-05 -2.76527e-05 0)
(-0.000224475 0.000169763 0)
(-0.00043716 0.000436206 0)
(-0.00073601 0.000750079 0)
(-0.00112712 0.00109393 0)
(-0.00161403 0.00145391 0)
(-0.00219819 0.00181913 0)
(-0.00287924 0.00218119 0)
(-0.00365533 0.00253372 0)
(-0.00452344 0.00287198 0)
(-0.00547965 0.00319261 0)
(-0.00651932 0.00349334 0)
(-0.00763736 0.00377276 0)
(-0.00882835 0.0040302 0)
(-0.0100868 0.00426553 0)
(-0.011407 0.00447905 0)
(-0.0127834 0.00467142 0)
(-0.0142108 0.00484356 0)
(-0.0156839 0.00499657 0)
(-0.0171979 0.00513169 0)
(-0.018748 0.00525022 0)
(-0.0203301 0.00535356 0)
(-0.0219401 0.00544307 0)
(-0.0235745 0.00552015 0)
(-0.0252299 0.00558613 0)
(-0.0269035 0.00564232 0)
(-0.0285927 0.00568998 0)
(-0.0302951 0.00573029 0)
(-0.0320087 0.00576436 0)
(-0.033732 0.00579323 0)
(-0.0354634 0.00581787 0)
(-0.0372018 0.00583917 0)
(-0.0389463 0.00585794 0)
(-0.0406961 0.00587492 0)
(-0.0424508 0.00589078 0)
(-0.0442099 0.00590613 0)
(-0.0459732 0.00592151 0)
(-0.0477408 0.00593739 0)
(-0.0495128 0.00595419 0)
(-0.0512893 0.0059723 0)
(-0.0530706 0.00599202 0)
(-0.0548572 0.00601364 0)
(-0.0566494 0.00603739 0)
(-0.058448 0.00606346 0)
(-0.0602533 0.00609202 0)
(-0.0620661 0.00612319 0)
(-0.063887 0.00615706 0)
(-0.0657167 0.0061937 0)
(-0.0675559 0.00623314 0)
(-0.0694053 0.0062754 0)
(-0.0712656 0.00632044 0)
(-0.0731375 0.00636823 0)
(-0.0750217 0.0064187 0)
(-0.0769188 0.00647176 0)
(-0.0788294 0.00652728 0)
(-0.0807541 0.00658512 0)
(-0.0826935 0.0066451 0)
(-0.0846479 0.00670703 0)
(-0.0866178 0.00677068 0)
(-0.0886036 0.00683579 0)
(-0.0906054 0.00690209 0)
(-0.0926234 0.00696925 0)
(-0.0946577 0.00703692 0)
(-0.0967081 0.00710473 0)
(-0.0987746 0.00717226 0)
(-0.100857 0.00723907 0)
(-0.102954 0.00730466 0)
(-0.105067 0.0073685 0)
(-0.107193 0.00743005 0)
(-0.109332 0.00748868 0)
(-0.111483 0.00754376 0)
(-0.113644 0.0075946 0)
(-0.115815 0.00764047 0)
(-0.117993 0.0076806 0)
(-0.120177 0.00771418 0)
(-0.122363 0.00774034 0)
(-0.124551 0.00775818 0)
(-0.126737 0.00776677 0)
(-0.128917 0.00776511 0)
(-0.13109 0.00775218 0)
(-0.133252 0.00772691 0)
(-0.135397 0.00768822 0)
(-0.137524 0.00763495 0)
(-0.139627 0.00756596 0)
(-0.141701 0.00748005 0)
(-0.143741 0.00737601 0)
(-0.145742 0.00725263 0)
(-0.147699 0.00710866 0)
(-0.149605 0.00694288 0)
(-0.151454 0.00675406 0)
(-0.15324 0.00654097 0)
(-0.154955 0.00630245 0)
(-0.156592 0.00603732 0)
(-0.158145 0.0057445 0)
(-0.159604 0.00542294 0)
(-0.160963 0.00507166 0)
(-0.162214 0.0046898 0)
(-0.163347 0.00427656 0)
(-0.164354 0.00383131 0)
(-0.165227 0.00335353 0)
(-0.165958 0.00284285 0)
(-0.166537 0.00229911 0)
(-0.166956 0.0017223 0)
(-0.167206 0.00111266 0)
(-0.16728 0.000470641 0)
(-0.167168 -0.000203038 0)
(-0.166864 -0.000907397 0)
(-0.166359 -0.00164117 0)
(-0.165646 -0.00240277 0)
(-0.164719 -0.0031903 0)
(-0.163573 -0.00400154 0)
(-0.1622 -0.00483391 0)
(-0.160597 -0.00568448 0)
(-0.158761 -0.00654995 0)
(-0.156687 -0.00742668 0)
(-0.154376 -0.00831066 0)
(-0.151824 -0.00919752 0)
(-0.149035 -0.0100826 0)
(-0.146008 -0.0109608 0)
(-0.142747 -0.0118268 0)
(-0.139257 -0.012675 0)
(-0.135543 -0.0134996 0)
(-0.131613 -0.0142945 0)
(-0.127477 -0.0150535 0)
(-0.123144 -0.0157704 0)
(-0.118627 -0.0164387 0)
(-0.11394 -0.0170521 0)
(-0.109098 -0.0176043 0)
(-0.104118 -0.0180893 0)
(-0.0990191 -0.0185011 0)
(-0.0938209 -0.0188342 0)
(-0.0885448 -0.0190834 0)
(-0.0832135 -0.0192439 0)
(-0.0778507 -0.0193114 0)
(-0.0724811 -0.0192824 0)