/*--------------------------------*- C++ -*----------------------------------*\
  =========                 |
  \\      /  F ield         | OpenFOAM: The Open Source CFD Toolbox
   \\    /   O peration     | Website:  https://openfoam.org
    \\  /    A nd           | Version:  7
     \\/     M anipulation  |
\*---------------------------------------------------------------------------*/
FoamFile
{
    version     2.0;
    format      ascii;
    class       volVectorField;
    location    "0.0875";
    object      U;
}
// * * * * * * * * * * * * * * * * * * * * * * * * * * * * * * * * * * * * * //

dimensions      [0 1 -1 0 0 0 0];

internalField   nonuniform List<vector> 
12800
(
(5.03814e-06 -5.02262e-06 0)
(2.25701e-05 -1.08869e-05 0)
(4.7381e-05 -1.13633e-05 0)
(6.81204e-05 -8.93959e-06 0)
(7.82287e-05 -4.93626e-06 0)
(7.49148e-05 -2.04885e-07 0)
(5.68551e-05 4.75654e-06 0)
(2.37247e-05 9.61724e-06 0)
(-2.41571e-05 1.42371e-05 0)
(-8.60595e-05 1.85232e-05 0)
(-0.000161071 2.24373e-05 0)
(-0.000248115 2.59727e-05 0)
(-0.000346098 2.9125e-05 0)
(-0.000453911 3.19058e-05 0)
(-0.000570445 3.43383e-05 0)
(-0.00069466 3.64389e-05 0)
(-0.000825554 3.82316e-05 0)
(-0.000962182 3.975e-05 0)
(-0.00110368 4.10129e-05 0)
(-0.00124924 4.20428e-05 0)
(-0.00139813 4.28709e-05 0)
(-0.00154968 4.35132e-05 0)
(-0.00170329 4.39814e-05 0)
(-0.00185842 4.42983e-05 0)
(-0.00201458 4.44842e-05 0)
(-0.00217136 4.45553e-05 0)
(-0.00232837 4.45301e-05 0)
(-0.00248529 4.44259e-05 0)
(-0.00264183 4.42512e-05 0)
(-0.00279775 4.40127e-05 0)
(-0.00295284 4.37226e-05 0)
(-0.00310693 4.33936e-05 0)
(-0.00325985 4.30324e-05 0)
(-0.0034115 4.26428e-05 0)
(-0.00356177 4.22302e-05 0)
(-0.00371058 4.18005e-05 0)
(-0.00385787 4.13567e-05 0)
(-0.00400358 4.09041e-05 0)
(-0.00414768 4.0449e-05 0)
(-0.00429014 3.99939e-05 0)
(-0.00443096 3.95375e-05 0)
(-0.00457012 3.90793e-05 0)
(-0.00470762 3.86234e-05 0)
(-0.00484347 3.81743e-05 0)
(-0.00497768 3.77326e-05 0)
(-0.00511026 3.72961e-05 0)
(-0.00524123 3.68648e-05 0)
(-0.00537061 3.64417e-05 0)
(-0.00549842 3.60273e-05 0)
(-0.0056247 3.56207e-05 0)
(-0.00574945 3.52219e-05 0)
(-0.00587273 3.48318e-05 0)
(-0.00599454 3.44519e-05 0)
(-0.00611493 3.40819e-05 0)
(-0.00623393 3.37208e-05 0)
(-0.00635158 3.33702e-05 0)
(-0.0064679 3.30315e-05 0)
(-0.00658294 3.27041e-05 0)
(-0.00669673 3.2387e-05 0)
(-0.00680931 3.20801e-05 0)
(-0.00692071 3.17842e-05 0)
(-0.00703097 3.15001e-05 0)
(-0.00714013 3.12273e-05 0)
(-0.00724823 3.09642e-05 0)
(-0.00735529 3.07103e-05 0)
(-0.00746135 3.04666e-05 0)
(-0.00756644 3.02335e-05 0)
(-0.0076706 3.00101e-05 0)
(-0.00777385 2.97946e-05 0)
(-0.00787622 2.95858e-05 0)
(-0.00797773 2.93837e-05 0)
(-0.0080784 2.91882e-05 0)
(-0.00817824 2.89982e-05 0)
(-0.00827726 2.88117e-05 0)
(-0.00837547 2.86264e-05 0)
(-0.00847287 2.84405e-05 0)
(-0.00856944 2.82522e-05 0)
(-0.00866516 2.80589e-05 0)
(-0.00876002 2.78574e-05 0)
(-0.00885397 2.76446e-05 0)
(-0.00894696 2.74175e-05 0)
(-0.00903895 2.71733e-05 0)
(-0.00912985 2.69084e-05 0)
(-0.00921958 2.66185e-05 0)
(-0.00930805 2.62987e-05 0)
(-0.00939514 2.59439e-05 0)
(-0.00948073 2.55499e-05 0)
(-0.00956466 2.51123e-05 0)
(-0.00964677 2.46257e-05 0)
(-0.00972688 2.40837e-05 0)
(-0.00980478 2.34793e-05 0)
(-0.00988025 2.28058e-05 0)
(-0.00995304 2.2057e-05 0)
(-0.0100229 2.12261e-05 0)
(-0.0100895 2.03057e-05 0)
(-0.0101525 1.92882e-05 0)
(-0.0102116 1.81658e-05 0)
(-0.0102665 1.69308e-05 0)
(-0.0103167 1.55757e-05 0)
(-0.0103618 1.40929e-05 0)
(-0.0104015 1.24758e-05 0)
(-0.0104351 1.07176e-05 0)
(-0.0104623 8.81147e-06 0)
(-0.0104826 6.75104e-06 0)
(-0.0104954 4.53068e-06 0)
(-0.0105001 2.14568e-06 0)
(-0.0104964 -4.08181e-07 0)
(-0.0104835 -3.13453e-06 0)
(-0.010461 -6.03583e-06 0)
(-0.0104282 -9.11273e-06 0)
(-0.0103846 -1.23642e-05 0)
(-0.0103297 -1.57877e-05 0)
(-0.0102629 -1.93793e-05 0)
(-0.0101836 -2.31332e-05 0)
(-0.0100915 -2.70415e-05 0)
(-0.00998592 -3.10938e-05 0)
(-0.00986655 -3.52778e-05 0)
(-0.00973298 -3.95785e-05 0)
(-0.00958488 -4.39788e-05 0)
(-0.009422 -4.84588e-05 0)
(-0.00924413 -5.29964e-05 0)
(-0.00905117 -5.75666e-05 0)
(-0.00884309 -6.21412e-05 0)
(-0.00861997 -6.66897e-05 0)
(-0.00838196 -7.11795e-05 0)
(-0.00812936 -7.55762e-05 0)
(-0.00786257 -7.9843e-05 0)
(-0.00758209 -8.39417e-05 0)
(-0.00728859 -8.78321e-05 0)
(-0.00698283 -9.14736e-05 0)
(-0.00666573 -9.48249e-05 0)
(-0.00633832 -9.78453e-05 0)
(-0.00600178 -0.000100494 0)
(-0.00565742 -0.00010273 0)
(-0.00530666 -0.000104513 0)
(-0.00495107 -0.000105805 0)
(-0.00459233 -0.000106569 0)
(-0.00423221 -0.000106772 0)
(-0.0038726 -0.000106383 0)
(-0.0035155 -0.000105375 0)
(-0.00316294 -0.000103726 0)
(-0.00281705 -0.000101413 0)
(-0.00248002 -9.8419e-05 0)
(-0.00215406 -9.473e-05 0)
(-0.00184142 -9.03378e-05 0)
(-0.00154436 -8.52372e-05 0)
(-0.00126513 -7.94245e-05 0)
(-0.00100596 -7.28981e-05 0)
(-0.000769056 -6.56619e-05 0)
(-0.000556545 -5.77244e-05 0)
(-0.00037047 -4.90985e-05 0)
(-0.000212733 -3.98073e-05 0)
(-8.5031e-05 -2.98973e-05 0)
(1.1265e-05 -1.94624e-05 0)
(7.53227e-05 -8.69326e-06 0)
(0.000107213 2.02054e-06 0)
(0.000108495 1.1877e-05 0)
(8.35703e-05 1.92359e-05 0)
(4.38827e-05 2.07806e-05 0)
(1.12187e-05 1.12275e-05 0)
(1.17968e-05 -2.28306e-05 0)
(4.39746e-05 -4.27436e-05 0)
(8.2145e-05 -4.05805e-05 0)
(0.000105704 -2.53422e-05 0)
(0.000102184 -2.37783e-06 0)
(6.51353e-05 2.47209e-05 0)
(-9.0052e-06 5.35026e-05 0)
(-0.000121583 8.2382e-05 0)
(-0.000272358 0.000110365 0)
(-0.000460057 0.00013684 0)
(-0.000682648 0.000161456 0)
(-0.000937747 0.000184025 0)
(-0.00122269 0.000204458 0)
(-0.00153469 0.000222766 0)
(-0.00187099 0.000238986 0)
(-0.00222884 0.000253201 0)
(-0.0026056 0.000265526 0)
(-0.00299876 0.000276074 0)
(-0.00340596 0.000284971 0)
(-0.00382499 0.000292355 0)
(-0.00425382 0.000298357 0)
(-0.00469059 0.000303102 0)
(-0.00513359 0.000306714 0)
(-0.00558129 0.000309313 0)
(-0.0060323 0.000311004 0)
(-0.0064854 0.000311895 0)
(-0.00693949 0.000312087 0)
(-0.00739361 0.00031167 0)
(-0.00784692 0.000310722 0)
(-0.00829867 0.000309318 0)
(-0.00874825 0.000307525 0)
(-0.00919509 0.000305403 0)
(-0.00963875 0.000303007 0)
(-0.0100788 0.000300384 0)
(-0.010515 0.000297577 0)
(-0.010947 0.000294622 0)
(-0.0113747 0.000291547 0)
(-0.0117978 0.000288382 0)
(-0.0122162 0.000285156 0)
(-0.0126299 0.000281888 0)
(-0.0130387 0.000278594 0)
(-0.0134426 0.000275286 0)
(-0.0138416 0.00027198 0)
(-0.0142357 0.000268688 0)
(-0.014625 0.000265419 0)
(-0.0150093 0.000262179 0)
(-0.0153888 0.000258976 0)
(-0.0157636 0.000255816 0)
(-0.0161336 0.000252703 0)
(-0.016499 0.00024964 0)
(-0.0168598 0.000246632 0)
(-0.0172161 0.000243683 0)
(-0.017568 0.000240796 0)
(-0.0179156 0.000237972 0)
(-0.018259 0.000235212 0)
(-0.0185982 0.000232521 0)
(-0.0189333 0.000229902 0)
(-0.0192645 0.000227355 0)
(-0.0195919 0.000224879 0)
(-0.0199155 0.000222475 0)
(-0.0202355 0.000220144 0)
(-0.020552 0.000217887 0)
(-0.020865 0.0002157 0)
(-0.0211747 0.000213581 0)
(-0.0214812 0.000211529 0)
(-0.0217845 0.000209542 0)
(-0.0220848 0.000207617 0)
(-0.0223821 0.000205749 0)
(-0.0226764 0.000203932 0)
(-0.022968 0.000202161 0)
(-0.0232568 0.00020043 0)
(-0.0235428 0.000198732 0)
(-0.0238261 0.000197056 0)
(-0.0241068 0.000195393 0)
(-0.0243848 0.000193729 0)
(-0.02466 0.000192052 0)
(-0.0249326 0.000190346 0)
(-0.0252024 0.000188596 0)
(-0.0254692 0.000186781 0)
(-0.0257331 0.000184881 0)
(-0.0259939 0.000182875 0)
(-0.0262513 0.00018074 0)
(-0.0265052 0.000178451 0)
(-0.0267554 0.000175981 0)
(-0.0270015 0.000173299 0)
(-0.0272432 0.000170375 0)
(-0.0274801 0.000167175 0)
(-0.0277118 0.000163667 0)
(-0.0279379 0.000159812 0)
(-0.0281578 0.000155572 0)
(-0.0283709 0.000150904 0)
(-0.0285766 0.000145767 0)
(-0.0287742 0.000140117 0)
(-0.0289628 0.000133908 0)
(-0.0291417 0.000127095 0)
(-0.0293101 0.000119629 0)
(-0.0294668 0.000111464 0)
(-0.0296109 0.000102552 0)
(-0.0297414 9.28473e-05 0)
(-0.029857 8.23026e-05 0)
(-0.0299565 7.08741e-05 0)
(-0.0300388 5.85193e-05 0)
(-0.0301023 4.51985e-05 0)
(-0.0301459 3.08753e-05 0)
(-0.030168 1.55173e-05 0)
(-0.0301671 -9.03261e-07 0)
(-0.0301419 -1.84089e-05 0)
(-0.0300907 -3.70161e-05 0)
(-0.0300121 -5.67334e-05 0)
(-0.0299045 -7.75598e-05 0)
(-0.0297664 -9.94841e-05 0)
(-0.0295963 -0.000122485 0)
(-0.0293927 -0.000146531 0)
(-0.0291543 -0.000171577 0)
(-0.0288798 -0.000197567 0)
(-0.0285679 -0.000224429 0)
(-0.0282174 -0.000252078 0)
(-0.0278275 -0.000280412 0)
(-0.0273973 -0.000309316 0)
(-0.0269261 -0.000338657 0)
(-0.0264136 -0.000368288 0)
(-0.0258594 -0.000398044 0)
(-0.0252636 -0.000427746 0)
(-0.0246264 -0.000457196 0)
(-0.0239485 -0.000486188 0)
(-0.0232306 -0.000514498 0)
(-0.0224739 -0.000541893 0)
(-0.02168 -0.000568131 0)
(-0.0208506 -0.00059296 0)
(-0.0199879 -0.000616123 0)
(-0.0190945 -0.00063736 0)
(-0.0181734 -0.00065641 0)
(-0.0172276 -0.000673015 0)
(-0.0162609 -0.00068692 0)
(-0.0152773 -0.000697879 0)
(-0.0142809 -0.000705654 0)
(-0.0132764 -0.000710023 0)
(-0.0122686 -0.00071078 0)
(-0.0112628 -0.000707737 0)
(-0.0102642 -0.000700729 0)
(-0.00927861 -0.000689613 0)
(-0.00831164 -0.00067427 0)
(-0.00736923 -0.00065461 0)
(-0.00645737 -0.000630569 0)
(-0.00558211 -0.000602115 0)
(-0.00474948 -0.000569245 0)
(-0.00396546 -0.00053199 0)
(-0.00323593 -0.000490417 0)
(-0.00256657 -0.000444642 0)
(-0.00196279 -0.00039484 0)
(-0.00142963 -0.000341266 0)
(-0.000971548 -0.000284301 0)
(-0.000592212 -0.000224522 0)
(-0.000294144 -0.000162838 0)
(-7.81467e-05 -0.000100714 0)
(5.75186e-05 -4.05861e-05 0)
(0.000118291 1.34426e-05 0)
(0.00011528 5.4419e-05 0)
(7.05034e-05 7.0603e-05 0)
(2.06857e-05 4.38044e-05 0)
(1.29698e-05 -4.94413e-05 0)
(4.38852e-05 -8.17922e-05 0)
(7.1876e-05 -6.77302e-05 0)
(7.28041e-05 -2.47789e-05 0)
(3.17531e-05 3.63401e-05 0)
(-5.96855e-05 0.000107891 0)
(-0.000206376 0.000184234 0)
(-0.000410399 0.000261524 0)
(-0.000671738 0.000337098 0)
(-0.000988805 0.000409279 0)
(-0.00135899 0.000476955 0)
(-0.00177898 0.000539468 0)
(-0.002245 0.00059651 0)
(-0.00275306 0.000647941 0)
(-0.00329907 0.000693811 0)
(-0.00387896 0.000734286 0)
(-0.00448876 0.000769581 0)
(-0.00512465 0.000799983 0)
(-0.00578299 0.00082581 0)
(-0.00646038 0.000847388 0)
(-0.00715366 0.000865058 0)
(-0.00785989 0.000879164 0)
(-0.0085764 0.000890037 0)
(-0.00930075 0.000897995 0)
(-0.0100307 0.000903344 0)
(-0.0107643 0.000906372 0)
(-0.0114998 0.000907346 0)
(-0.0122356 0.000906519 0)
(-0.0129704 0.00090412 0)
(-0.0137028 0.000900358 0)
(-0.0144319 0.000895425 0)
(-0.0151568 0.000889493 0)
(-0.0158766 0.000882716 0)
(-0.0165908 0.000875233 0)
(-0.0172987 0.00086717 0)
(-0.0179999 0.000858634 0)
(-0.018694 0.000849715 0)
(-0.0193808 0.000840499 0)
(-0.0200599 0.000831059 0)
(-0.0207312 0.000821461 0)
(-0.0213945 0.000811754 0)
(-0.0220498 0.000801986 0)
(-0.0226971 0.000792198 0)
(-0.0233362 0.000782426 0)
(-0.0239672 0.000772698 0)
(-0.0245901 0.000763038 0)
(-0.025205 0.00075347 0)
(-0.0258119 0.000744013 0)
(-0.026411 0.000734682 0)
(-0.0270023 0.000725488 0)
(-0.027586 0.000716447 0)
(-0.0281621 0.00070757 0)
(-0.0287307 0.000698866 0)
(-0.0292922 0.00069034 0)
(-0.0298465 0.000681998 0)
(-0.0303938 0.000673851 0)
(-0.0309343 0.000665903 0)
(-0.0314681 0.000658157 0)
(-0.0319954 0.000650615 0)
(-0.0325164 0.000643278 0)
(-0.0330311 0.000636146 0)
(-0.0335399 0.000629219 0)
(-0.0340428 0.000622492 0)
(-0.03454 0.000615959 0)
(-0.0350316 0.000609614 0)
(-0.0355179 0.00060345 0)
(-0.0359988 0.000597456 0)
(-0.0364746 0.000591619 0)
(-0.0369454 0.000585923 0)
(-0.0374112 0.00058035 0)
(-0.0378722 0.000574882 0)
(-0.0383283 0.000569496 0)
(-0.0387798 0.000564162 0)
(-0.0392265 0.000558851 0)
(-0.0396685 0.000553525 0)
(-0.0401057 0.000548148 0)
(-0.0405381 0.000542675 0)
(-0.0409655 0.000537058 0)
(-0.0413879 0.000531242 0)
(-0.0418049 0.000525171 0)
(-0.0422165 0.000518782 0)
(-0.0426222 0.000512009 0)
(-0.0430218 0.000504778 0)
(-0.0434148 0.000497013 0)
(-0.0438008 0.000488629 0)
(-0.0441792 0.000479539 0)
(-0.0445494 0.000469648 0)
(-0.0449108 0.000458858 0)
(-0.0452625 0.000447066 0)
(-0.0456038 0.000434159 0)
(-0.0459336 0.000420023 0)
(-0.046251 0.00040454 0)
(-0.0465548 0.000387586 0)
(-0.0468438 0.000369036 0)
(-0.0471167 0.000348762 0)
(-0.0473721 0.000326633 0)
(-0.0476084 0.000302519 0)
(-0.0478242 0.000276291 0)
(-0.0480175 0.000247819 0)
(-0.0481867 0.00021698 0)
(-0.0483298 0.000183651 0)
(-0.0484448 0.000147718 0)
(-0.0485298 0.000109075 0)
(-0.0485824 6.76239e-05 0)
(-0.0486006 2.32803e-05 0)
(-0.0485819 -2.40269e-05 0)
(-0.0485243 -7.43533e-05 0)
(-0.0484252 -0.000127735 0)
(-0.0482823 -0.000184188 0)
(-0.0480934 -0.000243702 0)
(-0.047856 -0.000306238 0)
(-0.0475678 -0.000371731 0)
(-0.0472268 -0.000440082 0)
(-0.0468307 -0.00051116 0)
(-0.0463775 -0.000584797 0)
(-0.0458655 -0.000660786 0)
(-0.045293 -0.00073888 0)
(-0.0446584 -0.000818792 0)
(-0.0439607 -0.000900191 0)
(-0.0431989 -0.000982702 0)
(-0.0423723 -0.00106591 0)
(-0.0414808 -0.00114935 0)
(-0.0405244 -0.00123252 0)
(-0.0395036 -0.00131488 0)
(-0.0384194 -0.00139584 0)
(-0.0372731 -0.00147479 0)
(-0.0360667 -0.00155108 0)
(-0.0348025 -0.00162404 0)
(-0.0334836 -0.00169298 0)
(-0.0321132 -0.00175719 0)
(-0.0306955 -0.00181594 0)
(-0.029235 -0.00186853 0)
(-0.0277368 -0.00191424 0)
(-0.0262065 -0.00195237 0)
(-0.0246503 -0.00198226 0)
(-0.0230747 -0.00200324 0)
(-0.0214871 -0.00201472 0)
(-0.0198948 -0.00201614 0)
(-0.0183059 -0.00200699 0)
(-0.0167288 -0.00198682 0)
(-0.0151719 -0.00195525 0)
(-0.0136443 -0.00191198 0)
(-0.0121549 -0.00185678 0)
(-0.010713 -0.00178951 0)
(-0.00932767 -0.00171011 0)
(-0.00800821 -0.00161864 0)
(-0.00676364 -0.00151525 0)
(-0.00560275 -0.00140024 0)
(-0.00453399 -0.00127405 0)
(-0.00356526 -0.00113732 0)
(-0.00270377 -0.000990994 0)
(-0.00195569 -0.000836375 0)
(-0.00132586 -0.000675366 0)
(-0.000817219 -0.00051076 0)
(-0.000430107 -0.000346729 0)
(-0.000161254 -0.000189619 0)
(-2.53675e-06 -4.91461e-05 0)
(6.08279e-05 5.9926e-05 0)
(5.46261e-05 0.000115391 0)
(1.91281e-05 8.33225e-05 0)
(1.02733e-05 -7.22683e-05 0)
(2.85621e-05 -0.000107392 0)
(2.95269e-05 -6.92997e-05 0)
(-1.04501e-05 1.54399e-05 0)
(-0.000106713 0.000130303 0)
(-0.00026842 0.000262989 0)
(-0.000500977 0.000404383 0)
(-0.000806782 0.000547861 0)
(-0.00118583 0.000688841 0)
(-0.00163636 0.000824122 0)
(-0.0021553 0.000951595 0)
(-0.00273867 0.00106995 0)
(-0.00338189 0.00117842 0)
(-0.00408005 0.00127667 0)
(-0.00482801 0.00136468 0)
(-0.00562067 0.00144266 0)
(-0.00645296 0.00151094 0)
(-0.00731997 0.00157002 0)
(-0.00821702 0.00162042 0)
(-0.00913967 0.00166272 0)
(-0.0100838 0.00169755 0)
(-0.0110455 0.00172551 0)
(-0.0120212 0.00174722 0)
(-0.0130077 0.00176327 0)
(-0.0140021 0.00177423 0)
(-0.0150016 0.00178065 0)
(-0.0160039 0.00178303 0)
(-0.0170069 0.00178185 0)
(-0.0180085 0.00177754 0)
(-0.0190073 0.00177052 0)
(-0.0200017 0.00176115 0)
(-0.0209904 0.00174976 0)
(-0.0219724 0.00173666 0)
(-0.0229467 0.00172211 0)
(-0.0239126 0.00170636 0)
(-0.0248693 0.00168962 0)
(-0.0258163 0.00167208 0)
(-0.0267533 0.00165391 0)
(-0.0276797 0.00163525 0)
(-0.0285954 0.00161622 0)
(-0.0295 0.00159694 0)
(-0.0303936 0.00157751 0)
(-0.0312759 0.001558 0)
(-0.032147 0.00153849 0)
(-0.0330067 0.00151904 0)
(-0.0338552 0.0014997 0)
(-0.0346925 0.00148051 0)
(-0.0355186 0.00146153 0)
(-0.0363338 0.00144278 0)
(-0.037138 0.00142428 0)
(-0.0379315 0.00140608 0)
(-0.0387143 0.00138818 0)
(-0.0394868 0.00137061 0)
(-0.040249 0.00135339 0)
(-0.0410011 0.00133653 0)
(-0.0417434 0.00132004 0)
(-0.0424761 0.00130393 0)
(-0.0431993 0.00128821 0)
(-0.0439133 0.00127288 0)
(-0.0446182 0.00125795 0)
(-0.0453144 0.00124342 0)
(-0.046002 0.00122928 0)
(-0.0466812 0.00121552 0)
(-0.0473523 0.00120213 0)
(-0.0480154 0.00118911 0)
(-0.0486707 0.00117643 0)
(-0.0493184 0.00116408 0)
(-0.0499587 0.00115202 0)
(-0.0505917 0.00114023 0)
(-0.0512176 0.00112867 0)
(-0.0518364 0.00111729 0)
(-0.0524483 0.00110607 0)
(-0.0530532 0.00109492 0)
(-0.0536512 0.00108381 0)
(-0.0542424 0.00107265 0)
(-0.0548265 0.00106137 0)
(-0.0554036 0.00104989 0)
(-0.0559734 0.0010381 0)
(-0.0565358 0.00102592 0)
(-0.0570904 0.00101322 0)
(-0.0576371 0.000999881 0)
(-0.0581752 0.000985779 0)
(-0.0587045 0.00097077 0)
(-0.0592243 0.000954703 0)
(-0.0597339 0.000937417 0)
(-0.0602327 0.000918742 0)
(-0.0607198 0.000898497 0)
(-0.0611943 0.000876491 0)
(-0.0616552 0.000852522 0)
(-0.0621013 0.000826381 0)
(-0.0625313 0.000797847 0)
(-0.0629439 0.000766694 0)
(-0.0633375 0.000732689 0)
(-0.0637106 0.000695593 0)
(-0.0640614 0.000655162 0)
(-0.064388 0.000611151 0)
(-0.0646884 0.000563314 0)
(-0.0649605 0.000511405 0)
(-0.0652019 0.000455185 0)
(-0.0654103 0.000394419 0)
(-0.0655832 0.00032888 0)
(-0.065718 0.000258356 0)
(-0.0658119 0.000182649 0)
(-0.0658622 0.000101582 0)
(-0.0658659 1.50002e-05 0)
(-0.06582 -7.7223e-05 0)
(-0.0657216 -0.000175183 0)
(-0.0655675 -0.000278939 0)
(-0.0653548 -0.000388507 0)
(-0.0650804 -0.000503857 0)
(-0.0647413 -0.000624909 0)
(-0.0643344 -0.000751524 0)
(-0.0638571 -0.000883505 0)
(-0.0633065 -0.00102059 0)
(-0.0626802 -0.00116245 0)
(-0.0619758 -0.00130868 0)
(-0.0611911 -0.00145879 0)
(-0.0603245 -0.00161224 0)
(-0.0593743 -0.00176839 0)
(-0.0583395 -0.00192651 0)
(-0.0572194 -0.0020858 0)
(-0.0560136 -0.00224539 0)
(-0.0547225 -0.00240431 0)
(-0.0533468 -0.00256153 0)
(-0.0518878 -0.00271594 0)
(-0.0503474 -0.00286638 0)
(-0.0487283 -0.00301162 0)
(-0.0470335 -0.00315038 0)
(-0.0452671 -0.00328135 0)
(-0.0434336 -0.00340321 0)
(-0.0415382 -0.00351459 0)
(-0.0395871 -0.00361414 0)
(-0.0375869 -0.00370052 0)
(-0.035545 -0.00377242 0)
(-0.0334694 -0.00382858 0)
(-0.031369 -0.00386778 0)
(-0.029253 -0.00388889 0)
(-0.0271312 -0.00389085 0)
(-0.0250142 -0.00387274 0)
(-0.0229126 -0.00383372 0)
(-0.0208378 -0.0037731 0)
(-0.0188012 -0.00369033 0)
(-0.0168147 -0.00358501 0)
(-0.0148899 -0.00345693 0)
(-0.013039 -0.00330605 0)
(-0.0112735 -0.00313254 0)
(-0.00960508 -0.00293681 0)
(-0.0080449 -0.00271952 0)
(-0.00660357 -0.00248169 0)
(-0.00529094 -0.00222473 0)
(-0.0041158 -0.00195063 0)
(-0.00308557 -0.00166213 0)
(-0.00220584 -0.00136304 0)
(-0.0014798 -0.00105874 0)
(-0.000907477 -0.000756877 0)
(-0.000484811 -0.000468481 0)
(-0.000202449 -0.000209482 0)
(-4.42612e-05 -2.67468e-06 0)
(1.51141e-05 0.000119574 0)
(1.1977e-05 0.00010843 0)
(5.8604e-06 -8.41724e-05 0)
(4.66649e-06 -0.000105996 0)
(-3.30358e-05 -2.92758e-05 0)
(-0.00012719 0.000111502 0)
(-0.000291916 0.000294296 0)
(-0.000536202 0.00050243 0)
(-0.00086535 0.000723209 0)
(-0.00128158 0.000947305 0)
(-0.00178472 0.00116792 0)
(-0.00237273 0.00138026 0)
(-0.0030421 0.00158103 0)
(-0.00378832 0.00176808 0)
(-0.00460619 0.00194011 0)
(-0.00549002 0.00209648 0)
(-0.00643389 0.00223702 0)
(-0.00743182 0.00236194 0)
(-0.00847784 0.00247171 0)
(-0.00956618 0.00256698 0)
(-0.0106912 0.00264853 0)
(-0.0118477 0.00271724 0)
(-0.0130306 0.00277402 0)
(-0.0142353 0.00281981 0)
(-0.0154574 0.00285555 0)
(-0.0166929 0.00288215 0)
(-0.0179383 0.00290051 0)
(-0.0191903 0.00291148 0)
(-0.0204458 0.00291586 0)
(-0.0217022 0.00291441 0)
(-0.0229572 0.00290782 0)
(-0.0242086 0.00289674 0)
(-0.0254547 0.00288176 0)
(-0.0266938 0.00286342 0)
(-0.0279245 0.00284221 0)
(-0.0291455 0.00281857 0)
(-0.030356 0.00279288 0)
(-0.031555 0.0027655 0)
(-0.0327418 0.00273674 0)
(-0.0339158 0.00270688 0)
(-0.0350765 0.00267615 0)
(-0.0362236 0.00264477 0)
(-0.0373566 0.00261291 0)
(-0.0384755 0.00258075 0)
(-0.0395801 0.00254842 0)
(-0.0406703 0.00251604 0)
(-0.041746 0.00248373 0)
(-0.0428073 0.00245156 0)
(-0.0438543 0.00241962 0)
(-0.0448869 0.00238798 0)
(-0.0459054 0.00235669 0)
(-0.0469098 0.00232581 0)
(-0.0479004 0.00229539 0)
(-0.0488774 0.00226545 0)
(-0.0498408 0.00223605 0)
(-0.0507911 0.00220719 0)
(-0.0517283 0.00217891 0)
(-0.0526528 0.00215123 0)
(-0.0535647 0.00212417 0)
(-0.0544645 0.00209773 0)
(-0.0553522 0.00207192 0)
(-0.0562282 0.00204675 0)
(-0.0570928 0.00202222 0)
(-0.0579462 0.00199832 0)
(-0.0587887 0.00197504 0)
(-0.0596204 0.00195236 0)
(-0.0604418 0.00193026 0)
(-0.0612529 0.0019087 0)
(-0.0620541 0.00188767 0)
(-0.0628455 0.0018671 0)
(-0.0636273 0.00184695 0)
(-0.0643996 0.00182716 0)
(-0.0651626 0.00180766 0)
(-0.0659164 0.00178837 0)
(-0.066661 0.00176921 0)
(-0.0673964 0.00175006 0)
(-0.0681226 0.00173083 0)
(-0.0688395 0.00171138 0)
(-0.069547 0.00169157 0)
(-0.0702449 0.00167125 0)
(-0.0709329 0.00165026 0)
(-0.0716107 0.00162841 0)
(-0.0722777 0.00160551 0)
(-0.0729337 0.00158134 0)
(-0.0735778 0.00155568 0)
(-0.0742095 0.00152829 0)
(-0.074828 0.00149891 0)
(-0.0754323 0.00146725 0)
(-0.0760213 0.00143304 0)
(-0.076594 0.00139596 0)
(-0.0771491 0.0013557 0)
(-0.0776852 0.00131191 0)
(-0.0782006 0.00126424 0)
(-0.0786937 0.00121235 0)
(-0.0791627 0.00115585 0)
(-0.0796056 0.00109437 0)
(-0.0800202 0.00102752 0)
(-0.0804042 0.00095491 0)
(-0.0807552 0.00087616 0)
(-0.0810705 0.00079088 0)
(-0.0813475 0.000698692 0)
(-0.0815831 0.00059923 0)
(-0.0817744 0.000492141 0)
(-0.0819182 0.000377092 0)
(-0.0820111 0.000253781 0)
(-0.0820498 0.000121933 0)
(-0.0820309 -1.86847e-05 0)
(-0.0819506 -0.000168264 0)
(-0.0818054 -0.000326942 0)
(-0.0815917 -0.000494799 0)
(-0.0813057 -0.000671847 0)
(-0.0809438 -0.000858023 0)
(-0.0805025 -0.00105319 0)
(-0.0799782 -0.0012571 0)
(-0.0793676 -0.00146944 0)
(-0.0786674 -0.00168977 0)
(-0.0778747 -0.00191756 0)
(-0.0769866 -0.00215214 0)
(-0.0760008 -0.00239275 0)
(-0.0749152 -0.00263848 0)
(-0.073728 -0.00288832 0)
(-0.0724379 -0.00314111 0)
(-0.0710443 -0.00339557 0)
(-0.0695469 -0.0036503 0)
(-0.0679459 -0.00390378 0)
(-0.0662426 -0.00415435 0)
(-0.0644384 -0.00440027 0)
(-0.062536 -0.00463969 0)
(-0.0605383 -0.00487066 0)
(-0.0584493 -0.00509117 0)
(-0.0562739 -0.00529916 0)
(-0.0540176 -0.00549251 0)
(-0.0516868 -0.00566909 0)
(-0.0492888 -0.00582678 0)
(-0.0468318 -0.00596345 0)
(-0.0443246 -0.00607705 0)
(-0.0417769 -0.00616559 0)
(-0.0391994 -0.00622717 0)
(-0.0366031 -0.00626001 0)
(-0.034 -0.00626248 0)
(-0.0314025 -0.00623311 0)
(-0.0288236 -0.00617062 0)
(-0.0262768 -0.00607395 0)
(-0.0237758 -0.00594228 0)
(-0.0213346 -0.00577504 0)
(-0.0189674 -0.00557194 0)
(-0.0166882 -0.00533301 0)
(-0.0145111 -0.00505862 0)
(-0.0124496 -0.00474955 0)
(-0.0105168 -0.00440702 0)
(-0.00872518 -0.0040328 0)
(-0.00708601 -0.00362937 0)
(-0.00560938 -0.00320007 0)
(-0.0043037 -0.00274943 0)
(-0.00317521 -0.00228358 0)
(-0.00222743 -0.00181087 0)
(-0.00146051 -0.00134275 0)
(-0.000870393 -0.000895039 0)
(-0.000447779 -0.000489647 0)
(-0.000176949 -0.000156647 0)
(-3.59045e-05 6.28709e-05 0)
(2.63734e-06 0.00010844 0)
(7.79102e-07 -8.19269e-05 0)
(-2.3711e-05 -6.99467e-05 0)
(-0.000107577 6.23254e-05 0)
(-0.000265106 0.000274378 0)
(-0.000507853 0.000539317 0)
(-0.000843961 0.000836446 0)
(-0.00127798 0.0011498 0)
(-0.0018116 0.00146732 0)
(-0.00244418 0.00178006 0)
(-0.00317322 0.00208157 0)
(-0.00399477 0.00236729 0)
(-0.00490382 0.00263413 0)
(-0.00589457 0.0028802 0)
(-0.00696071 0.00310446 0)
(-0.00809566 0.00330657 0)
(-0.0092927 0.0034867 0)
(-0.0105451 0.00364539 0)
(-0.0118464 0.00378349 0)
(-0.0131903 0.00390202 0)
(-0.0145706 0.00400216 0)
(-0.0159816 0.00408516 0)
(-0.017418 0.00415232 0)
(-0.0188749 0.00420492 0)
(-0.0203475 0.00424427 0)
(-0.0218316 0.00427161 0)
(-0.0233235 0.00428815 0)
(-0.0248196 0.00429503 0)
(-0.0263167 0.00429332 0)
(-0.0278122 0.00428402 0)
(-0.0293034 0.00426807 0)
(-0.0307883 0.00424632 0)
(-0.0322648 0.00421955 0)
(-0.0337312 0.00418846 0)
(-0.0351862 0.00415372 0)
(-0.0366284 0.00411587 0)
(-0.0380569 0.00407545 0)
(-0.0394706 0.0040329 0)
(-0.0408689 0.00398864 0)
(-0.0422512 0.00394303 0)
(-0.043617 0.00389638 0)
(-0.0449659 0.00384897 0)
(-0.0462975 0.00380104 0)
(-0.0476118 0.0037528 0)
(-0.0489086 0.00370443 0)
(-0.0501878 0.00365611 0)
(-0.0514495 0.00360796 0)
(-0.0526936 0.00356012 0)
(-0.0539203 0.00351267 0)
(-0.0551297 0.00346573 0)
(-0.0563219 0.00341936 0)
(-0.0574972 0.00337364 0)
(-0.0586558 0.00332862 0)
(-0.0597978 0.00328435 0)
(-0.0609237 0.00324089 0)
(-0.0620336 0.00319827 0)
(-0.0631278 0.00315652 0)
(-0.0642066 0.00311566 0)
(-0.0652704 0.0030757 0)
(-0.0663194 0.00303668 0)
(-0.0673539 0.00299858 0)
(-0.0683743 0.0029614 0)
(-0.0693809 0.00292514 0)
(-0.070374 0.00288978 0)
(-0.0713538 0.00285529 0)
(-0.0723207 0.00282164 0)
(-0.0732749 0.00278878 0)
(-0.0742167 0.00275666 0)
(-0.0751464 0.00272521 0)
(-0.076064 0.00269436 0)
(-0.0769699 0.00266402 0)
(-0.0778641 0.00263409 0)
(-0.0787467 0.00260444 0)
(-0.0796178 0.00257495 0)
(-0.0804774 0.00254547 0)
(-0.0813255 0.00251583 0)
(-0.0821619 0.00248584 0)
(-0.0829865 0.00245531 0)
(-0.083799 0.002424 0)
(-0.0845992 0.00239168 0)
(-0.0853865 0.00235809 0)
(-0.0861605 0.00232293 0)
(-0.0869207 0.0022859 0)
(-0.0876661 0.00224666 0)
(-0.0883962 0.00220488 0)
(-0.0891098 0.00216016 0)
(-0.089806 0.00211211 0)
(-0.0904835 0.00206031 0)
(-0.0911409 0.00200433 0)
(-0.0917768 0.00194368 0)
(-0.0923896 0.0018779 0)
(-0.0929773 0.00180647 0)
(-0.093538 0.00172888 0)
(-0.0940696 0.00164461 0)
(-0.0945698 0.0015531 0)
(-0.095036 0.00145381 0)
(-0.0954655 0.00134618 0)
(-0.0958556 0.00122967 0)
(-0.0962032 0.00110372 0)
(-0.0965051 0.000967793 0)
(-0.096758 0.000821377 0)
(-0.0969584 0.000663973 0)
(-0.0971025 0.000495114 0)
(-0.0971867 0.000314376 0)
(-0.097207 0.00012138 0)
(-0.0971593 -8.41993e-05 0)
(-0.0970397 -0.000302618 0)
(-0.0968438 -0.00053406 0)
(-0.0965677 -0.000778621 0)
(-0.096207 -0.0010363 0)
(-0.0957577 -0.001307 0)
(-0.0952156 -0.00159048 0)
(-0.0945768 -0.0018864 0)
(-0.0938374 -0.00219428 0)
(-0.0929939 -0.00251347 0)
(-0.0920428 -0.00284318 0)
(-0.090981 -0.00318247 0)
(-0.0898059 -0.0035302 0)
(-0.0885149 -0.00388507 0)
(-0.0871064 -0.00424562 0)
(-0.0855789 -0.00461017 0)
(-0.0839316 -0.00497689 0)
(-0.0821643 -0.00534377 0)
(-0.0802775 -0.0057086 0)
(-0.0782724 -0.00606905 0)
(-0.0761511 -0.0064226 0)
(-0.0739164 -0.0067666 0)
(-0.0715719 -0.00709829 0)
(-0.0691224 -0.0074148 0)
(-0.0665732 -0.00771317 0)
(-0.0639308 -0.00799039 0)
(-0.0612027 -0.00824344 0)
(-0.0583972 -0.00846928 0)
(-0.0555236 -0.0086649 0)
(-0.0525923 -0.00882738 0)
(-0.0496143 -0.0089539 0)
(-0.0466017 -0.00904176 0)
(-0.0435673 -0.00908844 0)
(-0.0405248 -0.00909164 0)
(-0.0374883 -0.00904929 0)
(-0.0344727 -0.0089596 0)
(-0.0314934 -0.00882111 0)
(-0.028566 -0.00863268 0)
(-0.0257066 -0.00839358 0)
(-0.022931 -0.00810348 0)
(-0.0202554 -0.00776252 0)
(-0.0176955 -0.00737136 0)
(-0.0152667 -0.00693125 0)
(-0.0129837 -0.00644412 0)
(-0.0108603 -0.00591269 0)
(-0.00890913 -0.00534069 0)
(-0.00714148 -0.00473308 0)
(-0.00556659 -0.00409643 0)
(-0.00419143 -0.00343939 0)
(-0.0030201 -0.00277347 0)
(-0.00205335 -0.00211392 0)
(-0.00128788 -0.00148115 0)
(-0.00071551 -0.000902458 0)
(-0.000322241 -0.000414054 0)
(-9.13605e-05 -6.38823e-05 0)
(-7.23225e-06 7.98223e-05 0)
(-4.47719e-06 -6.4143e-05 0)
(-5.42487e-05 5.11553e-06 0)
(-0.000188788 0.000211956 0)
(-0.000415613 0.000511588 0)
(-0.000742981 0.000873162 0)
(-0.00117747 0.00127257 0)
(-0.00172249 0.00169086 0)
(-0.0023788 0.00211349 0)
(-0.00314498 0.00252952 0)
(-0.00401796 0.00293082 0)
(-0.0049932 0.00331159 0)
(-0.00606515 0.00366781 0)
(-0.00722744 0.00399691 0)
(-0.0084732 0.00429746 0)
(-0.00979524 0.00456889 0)
(-0.0111862 0.0048113 0)
(-0.0126388 0.00502532 0)
(-0.0141459 0.00521195 0)
(-0.0157004 0.00537249 0)
(-0.0172957 0.00550841 0)
(-0.0189254 0.00562131 0)
(-0.0205835 0.00571286 0)
(-0.0222645 0.00578476 0)
(-0.0239632 0.0058387 0)
(-0.0256748 0.00587632 0)
(-0.027395 0.00589922 0)
(-0.0291199 0.0059089 0)
(-0.0308458 0.00590681 0)
(-0.0325696 0.0058943 0)
(-0.0342884 0.00587259 0)
(-0.0359998 0.00584286 0)
(-0.0377013 0.00580615 0)
(-0.0393912 0.00576342 0)
(-0.0410676 0.00571556 0)
(-0.0427293 0.00566335 0)
(-0.0443748 0.00560749 0)
(-0.0460031 0.00554861 0)
(-0.0476134 0.00548728 0)
(-0.0492049 0.00542399 0)
(-0.0507771 0.00535919 0)
(-0.0523294 0.00529325 0)
(-0.0538616 0.00522653 0)
(-0.0553734 0.00515931 0)
(-0.0568645 0.00509186 0)
(-0.058335 0.0050244 0)
(-0.0597848 0.00495714 0)
(-0.061214 0.00489024 0)
(-0.0626226 0.00482387 0)
(-0.0640107 0.00475814 0)
(-0.0653787 0.00469317 0)
(-0.0667265 0.00462907 0)
(-0.0680546 0.00456591 0)
(-0.0693632 0.00450378 0)
(-0.0706525 0.00444273 0)
(-0.0719229 0.00438283 0)
(-0.0731748 0.0043241 0)
(-0.0744084 0.00426659 0)
(-0.075624 0.00421032 0)
(-0.0768222 0.0041553 0)
(-0.0780031 0.00410155 0)
(-0.0791672 0.00404906 0)
(-0.0803149 0.00399781 0)
(-0.0814464 0.00394778 0)
(-0.0825621 0.00389894 0)
(-0.0836623 0.00385123 0)
(-0.0847474 0.00380459 0)
(-0.0858176 0.00375896 0)
(-0.0868732 0.00371422 0)
(-0.0879144 0.00367029 0)
(-0.0889414 0.00362704 0)
(-0.0899544 0.00358431 0)
(-0.0909535 0.00354196 0)
(-0.0919388 0.0034998 0)
(-0.0929101 0.00345762 0)
(-0.0938676 0.00341519 0)
(-0.094811 0.00337227 0)
(-0.0957402 0.00332857 0)
(-0.0966549 0.00328379 0)
(-0.0975547 0.00323759 0)
(-0.0984391 0.00318963 0)
(-0.0993075 0.00313951 0)
(-0.100159 0.00308681 0)
(-0.100994 0.00303107 0)
(-0.10181 0.00297184 0)
(-0.102606 0.00290859 0)
(-0.103382 0.00284079 0)
(-0.104135 0.00276786 0)
(-0.104866 0.00268922 0)
(-0.10557 0.00260423 0)
(-0.106248 0.00251225 0)
(-0.106896 0.0024126 0)
(-0.107513 0.00230459 0)
(-0.108096 0.0021875 0)
(-0.108643 0.00206061 0)
(-0.10915 0.00192319 0)
(-0.109615 0.0017745 0)
(-0.110035 0.0016138 0)
(-0.110406 0.00144035 0)
(-0.110724 0.00125346 0)
(-0.110986 0.00105244 0)
(-0.111188 0.000836616 0)
(-0.111326 0.00060539 0)
(-0.111396 0.000358201 0)
(-0.111392 9.45549e-05 0)
(-0.111312 -0.000185967 0)
(-0.11115 -0.000483692 0)
(-0.110902 -0.000798848 0)
(-0.110562 -0.00113155 0)
(-0.110127 -0.00148177 0)
(-0.109592 -0.00184935 0)
(-0.108953 -0.00223397 0)
(-0.108204 -0.00263515 0)
(-0.107342 -0.0030522 0)
(-0.106362 -0.00348425 0)
(-0.105262 -0.00393024 0)
(-0.104037 -0.00438886 0)
(-0.102685 -0.00485859 0)
(-0.101203 -0.00533767 0)
(-0.0995894 -0.00582411 0)
(-0.0978422 -0.00631568 0)
(-0.0959607 -0.00680991 0)
(-0.0939448 -0.00730409 0)
(-0.0917952 -0.00779529 0)
(-0.0895132 -0.00828035 0)
(-0.0871012 -0.00875592 0)
(-0.0845622 -0.00921846 0)