/*--------------------------------*- C++ -*----------------------------------*\
  =========                 |
  \\      /  F ield         | OpenFOAM: The Open Source CFD Toolbox
   \\    /   O peration     | Website:  https://openfoam.org
    \\  /    A nd           | Version:  7
     \\/     M anipulation  |
\*---------------------------------------------------------------------------*/
FoamFile
{
    version     2.0;
    format      ascii;
    class       volScalarField;
    location    "0.05";
    object      p;
}
// * * * * * * * * * * * * * * * * * * * * * * * * * * * * * * * * * * * * * //

dimensions      [0 2 -2 0 0 0 0];

internalField   nonuniform List<scalar> 
12800
(
1.60015e-08
-6.32919e-06
-9.75346e-05
-0.000266688
-0.000497077
-0.000772508
-0.00107626
-0.00139329
-0.0017113
-0.00202036
-0.0023127
-0.0025822
-0.00282396
-0.00303436
-0.00321064
-0.00335084
-0.00345372
-0.00351843
-0.00354456
-0.00353206
-0.00348113
-0.00339206
-0.00326536
-0.00310161
-0.00290142
-0.00266556
-0.00239493
-0.00209031
-0.00175236
-0.00138171
-0.000979007
-0.000544885
-8.00087e-05
0.000414905
0.000939232
0.00149249
0.00207421
0.00268387
0.00332095
0.003985
0.00467565
0.00539258
0.00613543
0.00690392
0.00769778
0.0085167
0.00936034
0.0102284
0.0111207
0.012037
0.012977
0.0139405
0.0149272
0.0159369
0.0169695
0.0180246
0.0191019
0.0202015
0.021323
0.0224664
0.0236313
0.0248175
0.026025
0.0272534
0.0285026
0.0297723
0.0310624
0.0323727
0.0337031
0.0350533
0.0364233
0.0378128
0.0392218
0.0406501
0.0420975
0.043564
0.0450494
0.0465535
0.0480763
0.0496176
0.0511773
0.0527552
0.0543513
0.0559654
0.0575976
0.0592474
0.0609148
0.0625995
0.0643012
0.0660197
0.0677548
0.0695062
0.0712734
0.0730563
0.0748544
0.0766675
0.078495
0.0803363
0.0821909
0.0840581
0.0859371
0.087827
0.089727
0.0916359
0.0935527
0.095476
0.0974046
0.0993371
0.101272
0.103207
0.105142
0.107073
0.108999
0.110917
0.112826
0.114722
0.116602
0.118465
0.120306
0.122123
0.123912
0.125669
0.127391
0.129075
0.130716
0.132311
0.133856
0.135346
0.136779
0.13815
0.139456
0.140692
0.141855
0.142943
0.14395
0.144876
0.145716
0.14647
0.147135
0.147709
0.148192
0.148584
0.148885
0.149096
0.14922
0.149257
0.149213
0.14909
0.148896
0.148637
0.148321
0.147958
0.14756
0.147143
0.146724
0.146325
0.145972
0.145696
0.145534
0.145501
9.81287e-06
1.20317e-05
-6.37458e-05
-0.000205382
-0.000397767
-0.000628831
-0.000885196
-0.00115461
-0.00142646
-0.00169223
-0.00194473
-0.00217813
-0.00238789
-0.00257025
-0.00272234
-0.0028421
-0.00292793
-0.00297874
-0.00299393
-0.00297311
-0.00291618
-0.00282331
-0.00269478
-0.00253095
-0.00233224
-0.00209919
-0.00183242
-0.00153254
-0.00120016
-0.000835855
-0.000440118
-1.34346e-05
0.000443632
0.000930445
0.00144642
0.00199108
0.00256394
0.00316455
0.00379252
0.00444749
0.00512908
0.00583692
0.00657071
0.00733016
0.008115
0.00892493
0.00975963
0.0106189
0.0115024
0.0124101
0.0133415
0.0142965
0.0152749
0.0162764
0.0173007
0.0183477
0.0194171
0.0205088
0.0216227
0.0227584
0.0239158
0.0250946
0.0262947
0.0275159
0.028758
0.0300206
0.0313036
0.032607
0.0339305
0.035274
0.0366372
0.03802
0.0394223
0.0408439
0.0422848
0.0437447
0.0452234
0.0467209
0.048237
0.0497715
0.0513243
0.0528952
0.0544841
0.056091
0.0577157
0.0593579
0.0610173
0.0626939
0.0643872
0.0660971
0.0678231
0.0695651
0.0713226
0.0730952
0.0748827
0.0766845
0.0785003
0.0803293
0.0821709
0.0840244
0.0858891
0.0877641
0.0896483
0.0915408
0.0934402
0.0953454
0.097255
0.0991676
0.101082
0.102995
0.104907
0.106815
0.108716
0.11061
0.112492
0.114361
0.116214
0.118048
0.119861
0.121648
0.123407
0.125134
0.126827
0.12848
0.130091
0.131656
0.133171
0.134634
0.136039
0.137383
0.138664
0.139877
0.14102
0.142088
0.14308
0.143992
0.144823
0.14557
0.146232
0.146808
0.147297
0.1477
0.148016
0.148249
0.148398
0.148468
0.148462
0.148384
0.14824
0.148036
0.147782
0.147487
0.147161
0.146819
0.146477
0.146152
0.145865
0.145639
0.145501
0.145468
0.00011467
0.000108011
3.32589e-05
-9.72405e-05
-0.000270253
-0.000475621
-0.00070252
-0.00094063
-0.00118109
-0.00141637
-0.00164003
-0.0018468
-0.00203231
-0.00219299
-0.00232613
-0.00242951
-0.00250144
-0.0025408
-0.00254675
-0.00251873
-0.00245651
-0.00236004
-0.00222943
-0.00206496
-0.00186692
-0.00163569
-0.00137168
-0.00107535
-0.00074721
-0.000387783
2.48847e-06
0.000423207
0.0008739
0.00135404
0.00186313
0.00240069
0.00296622
0.0035593
0.00417965
0.00482697
0.00550089
0.00620106
0.00692717
0.00767897
0.00845617
0.00925845
0.0100856
0.0109373
0.0118134
0.0127137
0.0136378
0.0145856
0.0155568
0.0165513
0.0175687
0.0186087
0.0196714
0.0207564
0.0218637
0.0229929
0.0241439
0.0253164
0.0265103
0.0277253
0.0289611
0.0302176
0.0314946
0.0327921
0.0341096
0.0354472
0.0368045
0.0381816
0.0395782
0.0409942
0.0424294
0.0438837
0.0453568
0.0468486
0.048359
0.0498877
0.0514345
0.0529994
0.0545823
0.0561829
0.0578012
0.0594368
0.0610895
0.062759
0.0644452
0.0661477
0.0678662
0.0696003
0.0713496
0.0731137
0.0748923
0.0766848
0.0784908
0.0803095
0.0821404
0.0839827
0.0858357
0.0876984
0.0895699
0.0914489
0.0933343
0.0952248
0.0971192
0.099016
0.100914
0.10281
0.104704
0.106593
0.108476
0.110349
0.112211
0.114059
0.115891
0.117703
0.119494
0.121258
0.122995
0.124699
0.126368
0.127999
0.129587
0.13113
0.132623
0.134064
0.135449
0.136774
0.138036
0.139233
0.14036
0.141415
0.142395
0.143298
0.144122
0.144865
0.145526
0.146104
0.146598
0.14701
0.147339
0.147588
0.147758
0.147853
0.147875
0.14783
0.147723
0.14756
0.14735
0.147102
0.146825
0.146533
0.146238
0.145957
0.145705
0.1455
0.145363
0.145307
0.000312787
0.000275809
0.000186528
5.30548e-05
-0.000114905
-0.000308578
-0.000519021
-0.000737868
-0.000957648
-0.00117179
-0.00137477
-0.00156176
-0.00172873
-0.00187253
-0.00199046
-0.00208039
-0.00214078
-0.00217035
-0.00216824
-0.00213387
-0.00206685
-0.00196698
-0.00183423
-0.00166876
-0.00147081
-0.00124067
-0.000978645
-0.000685059
-0.000360309
-4.8178e-06
0.000381015
0.00079678
0.00124204
0.00171641
0.00221947
0.0027508
0.00330993
0.00389646
0.00451016
0.00515074
0.00581784
0.00651117
0.00723046
0.00797546
0.00874585
0.00954131
0.0103616
0.0112067
0.0120762
0.0129698
0.0138874
0.0148287
0.0157936
0.0167817
0.0177928
0.0188267
0.0198833
0.0209624
0.0220637
0.0231871
0.0243323
0.0254992
0.0266875
0.0278968
0.0291271
0.030378
0.0316496
0.0329416
0.0342538
0.035586
0.0369381
0.03831
0.0397015
0.0411124
0.0425425
0.0439917
0.0454597
0.0469465
0.0484517
0.0499752
0.0515167
0.0530762
0.0546535
0.0562486
0.057861
0.0594907
0.0611373
0.0628006
0.0644805
0.0661765
0.0678883
0.0696155
0.0713576
0.0731142
0.074885
0.0766695
0.0784669
0.0802768
0.0820984
0.0839311
0.0857741
0.0876264
0.089487
0.0913547
0.0932284
0.0951068
0.0969886
0.0988723
0.100756
0.102639
0.104518
0.106393
0.10826
0.110117
0.111963
0.113795
0.115609
0.117404
0.119177
0.120924
0.122643
0.124329
0.125981
0.127594
0.129165
0.130691
0.132168
0.133593
0.134962
0.136273
0.137522
0.138706
0.139822
0.140867
0.141839
0.142736
0.143556
0.144296
0.144957
0.145538
0.146037
0.146456
0.146796
0.147058
0.147244
0.147358
0.147402
0.147381
0.147301
0.147168
0.146989
0.146773
0.146528
0.146266
0.145998
0.145738
0.145499
0.145294
0.145137
0.145033
0.00057673
0.000495162
0.00038076
0.00023592
6.50349e-05
-0.000124754
-0.000326171
-0.000532536
-0.000737559
-0.000935858
-0.00112262
-0.00129357
-0.00144526
-0.00157472
-0.00167947
-0.00175764
-0.00180768
-0.00182835
-0.0018188
-0.00177843
-0.00170677
-0.00160356
-0.00146867
-0.0013021
-0.00110401
-0.000874614
-0.000614168
-0.000322948
-1.24497e-06
0.000350655
0.000732404
0.00114359
0.00158384
0.0020528
0.00255015
0.00307548
0.00362845
0.00420875
0.00481611
0.00545021
0.00611077
0.00679753
0.00751025
0.00824865
0.00901241
0.0098013
0.0106151
0.0114537
0.0123167
0.0132039
0.0141151
0.0150502
0.0160089
0.0169909
0.0179959
0.0190238
0.0200745
0.0211478
0.0222433
0.023361
0.0245006
0.025662
0.0268447
0.0280486
0.0292734
0.0305191
0.0317854
0.0330721
0.034379
0.035706
0.037053
0.0384199
0.0398064
0.0412123
0.0426374
0.0440816
0.0455447
0.0470265
0.0485267
0.050045
0.0515813
0.0531356
0.0547076
0.0562971
0.057904
0.0595279
0.0611686
0.062826
0.0644998
0.0661896
0.0678949
0.0696155
0.0713507
0.0731003
0.0748637
0.0766404
0.0784298
0.0802313
0.0820443
0.0838681
0.0857018
0.0875445
0.0893951
0.0912524
0.0931154
0.0949828
0.0968532
0.0987251
0.100597
0.102467
0.104334
0.106195
0.108048
0.109892
0.111724
0.113541
0.115341
0.117121
0.118879
0.120611
0.122315
0.123987
0.125623
0.127222
0.128778
0.13029
0.131754
0.133166
0.134523
0.135822
0.137061
0.138235
0.139342
0.14038
0.141346
0.142239
0.143055
0.143795
0.144457
0.14504
0.145544
0.14597
0.14632
0.146593
0.146793
0.146922
0.146984
0.146983
0.146925
0.146814
0.146659
0.146466
0.146243
0.146001
0.145749
0.145498
0.145258
0.145042
0.14485
0.144684
0.000883694
0.000750191
0.000604226
0.000442131
0.000262193
7.00139e-05
-0.000128514
-0.000328043
-0.000523673
-0.000710828
-0.000885412
-0.00104394
-0.00118333
-0.00130095
-0.00139466
-0.00146273
-0.00150374
-0.00151658
-0.0015004
-0.00145454
-0.00137855
-0.00127213
-0.00113512
-0.000967428
-0.0007691
-0.000540257
-0.000281109
8.09341e-06
0.000327125
0.000675756
0.00105369
0.00146059
0.00189619
0.00236014
0.00285212
0.0033718
0.00391894
0.0044933
0.0050946
0.00572253
0.00637687
0.00705738
0.00776382
0.00849587
0.0092533
0.0100359
0.0108435
0.0116758
0.0125326
0.0134136
0.0143188
0.0152479
0.0162006
0.0171766
0.0181758
0.0191979
0.0202429
0.0213106
0.0224006
0.0235128
0.024647
0.025803
0.0269804
0.028179
0.0293986
0.0306391
0.0319003
0.033182
0.0344839
0.0358059
0.037148
0.03851
0.0398916
0.0412927
0.042713
0.0441524
0.0456107
0.0470876
0.0485828
0.0500962
0.0516275
0.0531767
0.0547436
0.0563279
0.0579293
0.0595477
0.0611828
0.0628345
0.0645025
0.0661863
0.0678855
0.0695997
0.0713284
0.0730713
0.0748277
0.0765971
0.0783791
0.0801728
0.0819779
0.0837935
0.0856187
0.0874526
0.0892941
0.0911421
0.0929955
0.0948531
0.0967134
0.0985749
0.100436
0.102295
0.104151
0.106
0.107842
0.109674
0.111494
0.113299
0.115087
0.116855
0.1186
0.12032
0.122011
0.123671
0.125296
0.126883
0.128428
0.129929
0.131382
0.132784
0.134132
0.135422
0.136652
0.137819
0.13892
0.139953
0.140915
0.141805
0.14262
0.14336
0.144023
0.144609
0.145119
0.145551
0.145909
0.146192
0.146403
0.146545
0.146621
0.146636
0.146594
0.1465
0.146361
0.146184
0.145975
0.145744
0.145498
0.145245
0.144996
0.144758
0.144525
0.144289
0.00121683
0.0010286
0.00084716
0.000663509
0.000469624
0.000269884
6.9234e-05
-0.000128476
-0.000319306
-0.000499504
-0.000665812
-0.000815268
-0.000945231
-0.00105353
-0.0011383
-0.00119799
-0.00123137
-0.00123749
-0.00121554
-0.00116489
-0.00108504
-0.000975693
-0.000836652
-0.000667834
-0.000469205
-0.000240815
1.71907e-05
0.000304634
0.000621323
0.000967016
0.00134145
0.0017444
0.00217566
0.00263493
0.0031219
0.00363634
0.00417805
0.00474682
0.00534239
0.0059645
0.00661297
0.00728758
0.00798804
0.0087141
0.00946555
0.0102422
0.0110439
0.0118702
0.0127211
0.0135964
0.0144958
0.0154191
0.0163661
0.0173364
0.01833
0.0193468
0.0203863
0.0214486
0.0225333
0.0236403
0.0247694
0.0259202
0.0270925
0.0282862
0.0295009
0.0307365
0.0319929
0.0332697
0.0345669
0.0358842
0.0372217
0.038579
0.0399559
0.0413523
0.042768
0.0442027
0.0456564
0.0471285
0.048619
0.0501276
0.0516542
0.0531986
0.0547605
0.0563398
0.0579361
0.0595493
0.0611792
0.0628255
0.0644879
0.0661661
0.0678595
0.0695677
0.0712903
0.0730268
0.0747767
0.0765394
0.0783144
0.0801011
0.081899
0.0837071
0.0855247
0.0873507
0.0891842
0.0910239
0.0928689
0.0947178
0.0965693
0.0984218
0.100274
0.102124
0.10397
0.10581
0.107642
0.109464
0.111274
0.113069
0.114847
0.116605
0.118341
0.120051
0.121733
0.123383
0.124999
0.126577
0.128114
0.129607
0.131053
0.132448
0.133789
0.135073
0.136298
0.13746
0.138558
0.139588
0.140548
0.141436
0.142252
0.142992
0.143658
0.144247
0.144761
0.1452
0.145564
0.145855
0.146075
0.146227
0.146314
0.14634
0.14631
0.146228
0.146099
0.145931
0.145729
0.1455
0.145252
0.144991
0.144724
0.144459
0.14418
0.143871
0.00156253
0.00131919
0.00110046
0.000892257
0.000680829
0.000469693
0.000262762
6.2957e-05
-0.000126804
-0.000303665
-0.000464965
-0.000608254
-0.000731422
-0.000832683
-0.000910463
-0.000963442
-0.000990598
-0.000991086
-0.000964206
-0.000909412
-0.000826229
-0.000714328
-0.000573496
-0.000403617
-0.000204658
2.33438e-05
0.000280315
0.000566155
0.000880688
0.00122368
0.00159494
0.00199428
0.0024215
0.00287638
0.00335869
0.00386826
0.00440492
0.00496845
0.00555863
0.00617529
0.00681824
0.00748727
0.00818209
0.00890249
0.00964832
0.0104194
0.0112154
0.0120361
0.0128815
0.0137512
0.0146452
0.0155631
0.0165046
0.0174697
0.0184581
0.0194696
0.020504
0.0215612
0.0226409
0.023743
0.0248672
0.0260132
0.0271807
0.0283697
0.0295798
0.0308109
0.0320627
0.0333349
0.0346276
0.0359405
0.0372735
0.0386263
0.0399988
0.0413908
0.042802
0.0442323
0.0456814
0.0471491
0.048635
0.0501391
0.0516611
0.0532009
0.0547582
0.0563327
0.0579241
0.0595325
0.0611574
0.0627986
0.0644558
0.0661285
0.0678164
0.069519
0.0712358
0.0729665
0.0747103
0.0764669
0.0782356
0.0800159
0.0818072
0.0836087
0.0854194
0.0872384
0.0890647
0.0908973
0.0927349
0.0945763
0.0964202
0.0982651
0.100109
0.101952
0.10379
0.105622
0.107446
0.109261
0.111063
0.11285
0.11462
0.116371
0.118099
0.119803
0.121478
0.123121
0.124731
0.126303
0.127834
0.129322
0.130763
0.132154
0.133491
0.134772
0.135994
0.137154
0.13825
0.139279
0.140239
0.141128
0.141945
0.142688
0.143356
0.14395
0.144468
0.144912
0.145282
0.14558
0.145807
0.145967
0.146062
0.146096
0.146072
0.145997
0.145874
0.145709
0.145507
0.145275
0.145018
0.144742
0.144453
0.144157
0.143831
0.143452
0.00190932
0.00161217
0.00135547
0.00112094
0.000889662
0.000664199
0.00044792
0.000242883
5.10576e-05
-0.000125405
-0.000284408
-0.000424088
-0.000542771
-0.000638994
-0.000711541
-0.000759376
-0.00078163
-0.000777578
-0.000746645
-0.000688371
-0.000602366
-0.000488297
-0.000345952
-0.00017519
2.40297e-05
0.000251683
0.000507726
0.000792071
0.00110456
0.00144504
0.00181337
0.00220938
0.00263287
0.00308367
0.00356166
0.00406671
0.00459865
0.00515727
0.00574244
0.00635402
0.00699181
0.00765556
0.00834509
0.00906023
0.00980078
0.0105665
0.0113572
0.0121727
0.0130128
0.0138775
0.0147663
0.015679
0.0166155
0.0175756
0.0185591
0.0195658
0.0205954
0.0216478
0.0227229
0.0238204
0.02494
0.0260814
0.0272446
0.0284291
0.0296349
0.0308617
0.0321092
0.0333772
0.0346656
0.0359743
0.0373031
0.0386517
0.04002
0.0414077
0.0428147
0.0442408
0.0456856
0.047149
0.0486306
0.0501303
0.051648
0.0531835
0.0547363
0.0563063
0.0578932
0.0594969
0.0611171
0.0627535
0.0644057
0.0660734
0.0677561
0.0694534
0.0711648
0.07289
0.0746283
0.0763792
0.0781422
0.0799167
0.0817021
0.0834976
0.0853022
0.0871151
0.0889352
0.0907614
0.0925928
0.0944278
0.0962653
0.0981038
0.0999417
0.101777
0.103609
0.105435
0.107254
0.109062
0.110858
0.11264
0.114405
0.11615
0.117874
0.119572
0.121243
0.122883
0.124488
0.126057
0.127586
0.129071
0.13051
0.131899
0.133235
0.134515
0.135737
0.136897
0.137994
0.139024
0.139986
0.140877
0.141697
0.142443
0.143115
0.143713
0.144236
0.144685
0.14506
0.145363
0.145596
0.145761
0.145861
0.1459
0.14588
0.145807
0.145685
0.145519
0.145313
0.145073
0.144803
0.144508
0.144193
0.143863
0.143489
0.143044
0.00224782
0.00189869
0.00160437
0.00134273
0.00109002
0.000848297
0.000620469
0.000407697
0.00021131
3.28641e-05
-0.000126167
-0.000264434
-0.000380622
-0.000473615
-0.00054254
-0.000586618
-0.000605167
-0.000597621
-0.00056351
-0.000502447
-0.000414137
-0.000298296
-0.000154721
1.67083e-05
0.000216052
0.000443325
0.000698484
0.000981409
0.00129198
0.00163012
0.00199571
0.00238861
0.00280863
0.00325569
0.00372972
0.00423058
0.0047581
0.00531219
0.00589274
0.00649958
0.00713253
0.0077914
0.00847602
0.00918625
0.00992187
0.0106826
0.0114684
0.012279
0.0131143
0.0139741
0.0148581
0.0157661
0.0166979
0.0176534
0.0186324
0.0196346
0.0206598
0.0217079
0.0227787
0.0238719
0.0249872
0.0261245
0.0272835
0.028464
0.0296657
0.0308885
0.0321319
0.033396
0.0346805
0.0359852
0.03731
0.0386546
0.0400189
0.0414027
0.0428058
0.0442279
0.0456687
0.047128
0.0486056
0.0501012
0.0516148
0.0531461
0.0546947
0.0562604
0.057843
0.0594423
0.0610581
0.0626899
0.0643374
0.0660003
0.0676781
0.0693705
0.071077
0.072797
0.0745302
0.076276
0.0780338
0.0798031
0.0815832
0.0833734
0.0851726
0.0869801
0.0887948
0.0906157
0.0924417
0.0942714
0.0961036
0.0979369
0.0997697
0.1016
0.103428
0.105249
0.107063
0.108867
0.110659
0.112438
0.114199
0.115941
0.117662
0.119358
0.121027
0.122665
0.124269
0.125837
0.127365
0.128851
0.13029
0.13168
0.133017
0.134299
0.135523
0.136686
0.137786
0.138819
0.139785
0.14068
0.141503
0.142254
0.142931
0.143533
0.144061
0.144515
0.144895
0.145203
0.14544
0.145608
0.145712
0.145752
0.145734
0.14566
0.145535
0.145364
0.14515
0.144898
0.144611
0.144294
0.143951
0.143587
0.143167
0.142659
0.00257004
0.00217132
0.00184031
0.0015513
0.00127632
0.00101713
0.000776073
0.000553742
0.000350896
0.000168488
7.49063e-06
-0.000131152
-0.00024656
-0.00033796
-0.000404712
-0.000446285
-0.000462222
-0.000452132
-0.000415654
-0.000352494
-0.000262407
-0.000145192
-6.92448e-07
0.000171191
0.000370529
0.000597337
0.000851563
0.0011331
0.00144189
0.00177785
0.00214087
0.00253084
0.00294768
0.00339133
0.0038617
0.00435868
0.00488217
0.00543209
0.00600837
0.00661084
0.00723931
0.00789367
0.0085738
0.0092795
0.0100105
0.0107667
0.0115479
0.0123541
0.0131849
0.0140402
0.0149198
0.0158234
0.0167511
0.0177024
0.0186772
0.0196753
0.0206965
0.0217406
0.0228075
0.0238967
0.0250082
0.0261416
0.0272969
0.0284737
0.0296717
0.0308907
0.0321304
0.0333908
0.0346717
0.0359727
0.0372938
0.0386347
0.0399954
0.0413756
0.042775
0.0441934
0.0456304
0.0470859
0.0485597
0.0500516
0.0515613
0.0530885
0.0546331
0.0561947
0.0577733
0.0593685
0.06098
0.0626075
0.0642506
0.065909
0.0675823
0.0692702
0.070972
0.0726875
0.074416
0.076157
0.0779102
0.0796748
0.0814502
0.0832356
0.0850301
0.0868329
0.088643
0.0904594
0.0922809
0.0941063
0.0959343
0.0977635
0.0995924
0.10142
0.103243
0.105062
0.106873
0.108675
0.110465
0.112241
0.114001
0.115742
0.117462
0.119158
0.120827
0.122466
0.124071
0.125641
0.127171
0.128659
0.130101
0.131494
0.132836
0.134122
0.13535
0.136518
0.137623
0.138662
0.139632
0.140533
0.141362
0.142118
0.142801
0.143408
0.143942
0.1444
0.144785
0.145096
0.145336
0.145508
0.145612
0.145653
0.145633
0.145556
0.145425
0.145245
0.14502
0.144753
0.144448
0.144107
0.143735
0.143337
0.142872
0.142306
0.00286934
0.00242368
0.00205715
0.00174107
0.00144358
0.00116606
0.000910654
0.00067746
0.000466649
0.000278689
0.000114181
-2.6347e-05
-0.000142434
-0.000233607
-0.000299453
-0.000339671
-0.000354005
-0.000342228
-0.000304119
-0.00023949
-0.000148157
-2.99852e-05
0.000115124
0.000287254
0.000486455
0.000712697
0.000965924
0.00124611
0.00155319
0.00188709
0.00224772
0.00263499
0.00304892
0.00348944
0.00395644
0.00444988
0.0049697
0.00551585
0.00608822
0.00668667
0.00731109
0.00796137
0.00863739
0.00933894
0.0100658
0.0108178
0.0115949
0.012397
0.0132237
0.014075
0.0149506
0.0158504
0.0167742
0.0177218
0.0186928
0.0196872
0.0207048
0.0217454
0.0228087
0.0238944
0.0250024
0.0261324
0.0272843
0.0284577
0.0296523
0.0308679
0.0321043
0.0333613
0.0346388
0.0359365
0.0372542
0.0385918
0.0399491
0.041326
0.042722
0.044137
0.0455705
0.0470226
0.0484929
0.0499812
0.0514872
0.0530107
0.0545514
0.0561092
0.0576839
0.0592752
0.0608827
0.0625061
0.0641451
0.0657994
0.0674686
0.0691523
0.0708499
0.0725611
0.0742853
0.0760221
0.077771
0.0795314
0.0813026
0.0830838
0.0848742
0.086673
0.0884792
0.0902919
0.0921098
0.0939318
0.0957566
0.0975828
0.0994091
0.101234
0.103056
0.104872
0.106682
0.108483
0.110272
0.112049
0.113809
0.115551
0.117273
0.11897
0.120641
0.122283
0.123892
0.125465
0.127
0.128493
0.12994
0.13134
0.132687
0.13398
0.135216
0.136391
0.137502
0.138548
0.139526
0.140434
0.14127
0.142033
0.142722
0.143336
0.143875
0.144339
0.144727
0.145042
0.145285
0.145457
0.145562
0.145601
0.145577
0.145494
0.145356
0.145166
0.144927
0.144643
0.144317
0.14395
0.14355
0.143117
0.142611
0.141991
0.00314028
0.00265011
0.00224957
0.00190705
0.001587
0.00129078
0.00102036
0.000775333
0.000555429
0.000360731
0.000191444
4.77354e-05
-7.02428e-05
-0.00016232
-0.000228347
-0.00026822
-0.000281853
-0.000269178
-0.000230118
-0.000164573
-7.24805e-05
4.62375e-05
0.000191655
0.000363812
0.000562706
0.000788281
0.00104049
0.00131934
0.00162479
0.00195673
0.00231512
0.00269996
0.00311123
0.00354888
0.00401284
0.00450309
0.00501961
0.00556235
0.00613119
0.00672603
0.00734683
0.00799348
0.0086658
0.0093636
0.0100867
0.0108351
0.0116086
0.0124069
0.0132301
0.0140778
0.0149499
0.0158462
0.0167667
0.0177108
0.0186786
0.0196698
0.0206842
0.0217216
0.0227817
0.0238643
0.0249692
0.0260963
0.0272451
0.0284155
0.0296071
0.0308197
0.0320532
0.0333072
0.0345816
0.0358763
0.0371909
0.0385255
0.0398799
0.0412537
0.0426467
0.0440585
0.0454889
0.0469378
0.0484049
0.0498898
0.0513924
0.0529124
0.0544495
0.0560037
0.0575748
0.0591623
0.0607661
0.0623857
0.0640209
0.0656714
0.0673368
0.0690166
0.0707104
0.0724176
0.0741379
0.0758709
0.0776159
0.0793725
0.0811399
0.0829175
0.0847043
0.0864997
0.0883027
0.0901123
0.0919275
0.0937469
0.0955694
0.0973937
0.0992185
0.101042
0.102863
0.104679
0.106489
0.10829
0.110081
0.111859
0.113621
0.115366
0.117091
0.118792
0.120468
0.122114
0.123729
0.125309
0.12685
0.12835
0.129806
0.131213
0.13257
0.133871
0.135116
0.1363
0.137421
0.138477
0.139464
0.140381
0.141226
0.141997
0.142693
0.143314
0.143859
0.144328
0.144721
0.14504
0.145284
0.145457
0.14556
0.145596
0.145568
0.145478
0.14533
0.145127
0.144873
0.14457
0.144222
0.14383
0.143399
0.142934
0.142388
0.141718
0.00337809
0.00284597
0.0024129
0.0020446
0.00170234
0.00138735
0.00110147
0.000843937
0.000614151
0.000411815
0.000236743
8.88269e-05
-3.20497e-05
-0.000126003
-0.000193124
-0.000233503
-0.000247229
-0.000234367
-0.000194968
-0.000129038
-3.66142e-05
8.23048e-05
0.000227757
0.000399718
0.000598123
0.00082294
0.00107415
0.0013517
0.00165556
0.00198566
0.00234202
0.00272465
0.00313353
0.00356859
0.00402982
0.00451726
0.00503087
0.00557055
0.00613626
0.00672795
0.00734559
0.00798902
0.00865806
0.00935258
0.0100725
0.0108176
0.0115879
0.0123831
0.0132031
0.0140478
0.0149169
0.0158103
0.0167278
0.0176691
0.018634
0.0196224
0.020634
0.0216686
0.022726
0.0238059
0.0249082
0.0260327
0.027179
0.0283468
0.0295358
0.0307458
0.0319767
0.0332281
0.0344999
0.0357919
0.0371039
0.0384359
0.0397875
0.0411586
0.0425487
0.0439577
0.0453854
0.0468313
0.0482954
0.0497773
0.0512767
0.0527934
0.0543273
0.0558782
0.0574458
0.0590299
0.0606301
0.0622463
0.063878
0.0655249
0.0671868
0.068863
0.0705531
0.0722568
0.0739735
0.0757029
0.0774445
0.0791977
0.0809618
0.0827361
0.0845199
0.0863125
0.0881129
0.0899201
0.0917332
0.0935509
0.095372
0.0971954
0.0990196
0.100843
0.102664
0.104481
0.106292
0.108096
0.109889
0.11167
0.113436
0.115185
0.116915
0.118622
0.120304
0.121958
0.123581
0.125169
0.12672
0.128229
0.129695
0.131113
0.13248
0.133793
0.135049
0.136245
0.137378
0.138445
0.139443
0.140371
0.141226
0.142007
0.142712
0.143341
0.143893
0.144368
0.144766
0.145087
0.145334
0.145506
0.145608
0.145639
0.145605
0.145506
0.145347
0.14513
0.144859
0.144537
0.144166
0.143748
0.143288
0.142791
0.142207
0.141491
0.00357882
0.00300713
0.00254296
0.00214975
0.00178575
0.00145207
0.00115052
0.000880075
0.000639819
0.000429131
0.00024752
9.46036e-05
-2.99982e-05
-0.000126635
-0.000195613
-0.000237222
-0.000251709
-0.00023927
-0.000200068
-0.000134247
-4.18782e-05
7.69589e-05
0.000222192
0.000393746
0.000591547
0.000815559
0.00106575
0.00134204
0.0016444
0.00197284
0.0023274
0.00270804
0.00311475
0.00354754
0.00400642
0.0044914
0.00500244
0.00553948
0.0061025
0.0066915
0.00730641
0.00794706
0.0086133
0.00930503
0.0100222
0.0107647
0.0115323
0.0123248
0.0131422
0.0139843
0.014851
0.0157419
0.0166569
0.0175958
0.0185584
0.0195444
0.0205537
0.021586
0.0226411
0.0237188
0.024819
0.0259413
0.0270854
0.0282511
0.029438
0.0306459
0.0318747
0.0331239
0.0343935
0.0356832
0.0369929
0.0383226
0.0396718
0.0410404
0.0424281
0.0438345
0.0452596
0.046703
0.0481645
0.0496436
0.0511401
0.0526539
0.0541847
0.0557325
0.057297
0.0588778
0.0604748
0.0620877
0.0637162
0.0653599
0.0670184
0.0686912
0.070378
0.0720784
0.0737919
0.0755181
0.0772565
0.0790066
0.0807678
0.0825393
0.0843206
0.0861108
0.0879092
0.0897147
0.0915264
0.0933431
0.0951637
0.096987
0.0988116
0.100636
0.102458
0.104277
0.106091
0.107897
0.109694
0.11148
0.113252
0.115007
0.116744
0.118459
0.120149
0.121812
0.123445
0.125044
0.126606
0.128128
0.129606
0.131036
0.132417
0.133744
0.135013
0.136223
0.13737
0.13845
0.139461
0.140401
0.141269
0.142061
0.142777
0.143415
0.143975
0.144457
0.144859
0.145184
0.145432
0.145605
0.145703
0.145731
0.145689
0.145581
0.145409
0.145178
0.144889
0.144546
0.144152
0.143707
0.143218
0.14269
0.14207
0.141311
0.00373902
0.00312989
0.00263612
0.00221889
0.00183361
0.00148148
0.00116429
0.000880703
0.000629552
0.000409991
0.000221278
6.27358e-05
-6.62491e-05
-0.000166233
-0.000237716
-0.00028116
-0.000296962
-0.000285462
-0.000246926
-0.000181589
-8.96088e-05
2.88661e-05
0.000173666
0.000344667
0.000541798
0.00076499
0.00101416
0.00128925
0.00159027
0.00191725
0.0022702
0.0026491
0.00305394
0.0034848
0.00394168
0.00442455
0.0049334
0.00546823
0.00602905
0.00661582
0.00722843
0.00786676
0.0085307
0.00922018
0.00993514
0.0106754
0.0114408
0.0122312
0.0130466
0.0138868
0.0147514
0.0156404
0.0165535
0.0174905
0.0184512
0.0194355
0.0204429
0.0214734
0.0225267
0.0236027
0.0247012
0.0258218
0.0269642
0.0281282
0.0293135
0.0305198
0.0317468
0.0329943
0.0342621
0.03555
0.0368578
0.0381855
0.0395326
0.0408991
0.0422845
0.0436888
0.0451117
0.0465528
0.0480118
0.0494884
0.0509824
0.0524936
0.0540217
0.0555667
0.0571283
0.0587062
0.0603002
0.0619101
0.0635355
0.0651761
0.0668315
0.0685013
0.070185
0.0718822
0.0735927
0.0753161
0.0770517
0.0787991
0.0805577
0.0823269
0.084106
0.0858944
0.0876913
0.0894956
0.0913065
0.0931228
0.0949436
0.0967676
0.0985934
0.10042
0.102244
0.104066
0.105884
0.107694
0.109497
0.111289
0.113067
0.11483
0.116576
0.1183
0.120001
0.121675
0.12332
0.124932
0.126507
0.128043
0.129535
0.130981
0.132377
0.13372
0.135006
0.136232
0.137394
0.13849
0.139517
0.140472
0.141353
0.142158
0.142886
0.143535
0.144104
0.144593
0.145002
0.14533
0.14558
0.145752
0.145848
0.14587
0.145821
0.145702
0.145518
0.145271
0.144964
0.1446
0.144181
0.14371
0.143193
0.142634
0.141979
0.14118
0.00385566
0.00321115
0.00268914
0.00224868
0.00184269
0.00147241
0.00113965
0.000842842
0.000580573
0.0003518
0.000155548
-9.09868e-06
-0.000142972
-0.00024683
-0.000321351
-0.000367136
-0.000384722
-0.000374581
-0.000337095
-0.000272542
-0.000181202
-6.33327e-05
8.08622e-05
0.000251235
0.000447671
0.000670043
0.000918242
0.00119226
0.00149213
0.00181787
0.00216943
0.00254684
0.00295017
0.00337945
0.00383467
0.00431581
0.0048229
0.00535599
0.00591506
0.00650005
0.00711083
0.00774734
0.00840952
0.0090973
0.00981055
0.0105491
0.0113129
0.0121018
0.0129158
0.0137545
0.0146177
0.0155053
0.016417
0.0173528
0.0183122
0.0192951
0.0203012
0.0213304
0.0223825
0.0234574
0.0245546
0.025674
0.0268152
0.027978
0.0291621
0.0303672
0.031593
0.0328392
0.0341056
0.0353921
0.0366984
0.0380245
0.0393699
0.0407345
0.0421181
0.0435205
0.0449414
0.0463805
0.0478375
0.0493119
0.0508037
0.0523126
0.0538384
0.0553808
0.0569398
0.058515
0.0601062
0.0617133
0.0633359
0.0649736
0.0666261
0.0682929
0.0699737
0.0716681
0.0733759
0.0750966
0.0768296
0.0785746
0.080331
0.0820982
0.0838757
0.0856627
0.0874585
0.0892621
0.0910728
0.0928894
0.0947109
0.0965363
0.098364
0.100193
0.102021
0.103847
0.105669
0.107485
0.109294
0.111093
0.11288
0.114653
0.116408
0.118144
0.119857
0.121544
0.123203
0.12483
0.126421
0.127973
0.129482
0.130946
0.13236
0.133721
0.135025
0.136269
0.13745
0.138564
0.139608
0.14058
0.141477
0.142297
0.143038
0.143699
0.144279
0.144776
0.145192
0.145525
0.145777
0.145948
0.146042
0.146058
0.146001
0.145872
0.145674
0.14541
0.145084
0.144699
0.144256
0.143758
0.143213
0.142624
0.141936
0.141097
0.00392617
0.00324806
0.002699
0.00223616
0.00181006
0.00142195
0.00107372
0.000763693
0.000490202
0.000251987
4.78796e-05
-0.000123227
-0.000262379
-0.000370523
-0.00044848
-0.000497001
-0.000516768
-0.000508324
-0.000472143
-0.000408624
-0.000318151
-0.000201047
-5.75354e-05
0.000112184
0.000307907
0.000529482
0.000776849
0.00105
0.00134892
0.00167362
0.00202408
0.00240035
0.00280249
0.00323054
0.00368447
0.0041643
0.0046701
0.00520193
0.00575973
0.00634339
0.00695286
0.00758811
0.00824909
0.00893569
0.00964778
0.0103853
0.0111481
0.0119361
0.0127491
0.013587
0.0144494
0.0153362
0.0162472
0.0171822
0.0181409
0.019123
0.0201284
0.021157
0.0222085
0.0232826
0.0243791
0.0254977
0.0266382
0.0278003
0.0289838
0.0301881
0.0314131
0.0326584
0.033924
0.0352095
0.0365147
0.0378394
0.0391835
0.0405466
0.0419287
0.0433296
0.044749
0.0461864
0.0476415
0.0491141
0.050604
0.0521109
0.0536346
0.0551748
0.0567314
0.0583041
0.0598928
0.0614973
0.0631172
0.0647522
0.0664019
0.0680659
0.069744
0.0714359
0.0731412
0.0748594
0.0765902
0.0783331
0.0800876
0.0818532
0.0836293
0.0854154
0.0872105
0.0890138
0.0908247
0.092642
0.094465
0.0962923
0.0981226
0.0999547
0.101787
0.103618
0.105446
0.107269
0.109086
0.110893
0.11269
0.114473
0.11624
0.117989
0.119716
0.121418
0.123093
0.124736
0.126345
0.127915
0.129444
0.130927
0.132362
0.133743
0.135068
0.136333
0.137534
0.138669
0.139733
0.140724
0.141639
0.142476
0.143232
0.143907
0.144499
0.145006
0.145429
0.145767
0.146022
0.146194
0.146285
0.146296
0.14623
0.14609
0.145878
0.145598
0.145253
0.144845
0.144378
0.143854
0.143279
0.142661
0.14194
0.141064
0.00394829
0.00323804
0.00266301
0.00217856
0.00173288
0.00132731
0.000963824
0.000640614
0.000355849
0.000108061
-0.000104118
-0.000281971
-0.000426699
-0.000539422
-0.000621132
-0.000672701
-0.000694901
-0.000688389
-0.000653725
-0.000591437
-0.000501968
-0.000385686
-0.000242886
-7.38388e-05
0.000121211
0.000342112
0.000588829