/*--------------------------------*- C++ -*----------------------------------*\
  =========                 |
  \\      /  F ield         | OpenFOAM: The Open Source CFD Toolbox
   \\    /   O peration     | Website:  https://openfoam.org
    \\  /    A nd           | Version:  7
     \\/     M anipulation  |
\*---------------------------------------------------------------------------*/
FoamFile
{
    version     2.0;
    format      ascii;
    class       surfaceScalarField;
    location    "0.375";
    object      phi;
}
// * * * * * * * * * * * * * * * * * * * * * * * * * * * * * * * * * * * * * //

dimensions      [0 3 -1 0 0 0 0];

internalField   nonuniform List<scalar> 
25360
(
5.08571e-11
-5.27835e-11
1.92517e-10
-1.4166e-10
3.5976e-10
-1.67242e-10
5.05234e-10
-1.45475e-10
6.00889e-10
-9.56334e-11
6.30779e-10
-2.9899e-11
5.86735e-10
4.40452e-11
4.65575e-10
1.21162e-10
2.67349e-10
1.98221e-10
-5.7897e-12
2.73146e-10
-3.50366e-10
3.44573e-10
-7.62099e-10
4.11722e-10
-1.23619e-09
4.74096e-10
-1.76764e-09
5.3145e-10
-2.35136e-09
5.8372e-10
-2.98235e-09
6.30983e-10
-3.65575e-09
6.73396e-10
-4.36693e-09
7.11182e-10
-5.11154e-09
7.4461e-10
-5.88551e-09
7.7398e-10
-6.68509e-09
7.99598e-10
-7.50689e-09
8.2179e-10
-8.34779e-09
8.40891e-10
-9.20501e-09
8.57225e-10
-1.00761e-08
8.71095e-10
-1.09589e-08
8.82796e-10
-1.18515e-08
8.92616e-10
-1.27523e-08
9.00823e-10
-1.366e-08
9.07664e-10
-1.45734e-08
9.13368e-10
-1.54915e-08
9.18147e-10
-1.64137e-08
9.22196e-10
-1.73394e-08
9.25694e-10
-1.82682e-08
9.28801e-10
-1.91999e-08
9.31659e-10
-2.01342e-08
9.34392e-10
-2.10714e-08
9.37117e-10
-2.20113e-08
9.39935e-10
-2.29542e-08
9.42931e-10
-2.39004e-08
9.46181e-10
-2.48502e-08
9.4975e-10
-2.58039e-08
9.53695e-10
-2.67619e-08
9.58066e-10
-2.77248e-08
9.62902e-10
-2.86931e-08
9.68237e-10
-2.96672e-08
9.74098e-10
-3.06477e-08
9.80507e-10
-3.16352e-08
9.8748e-10
-3.26302e-08
9.95028e-10
-3.36333e-08
1.00316e-09
-3.46452e-08
1.01187e-09
-3.56664e-08
1.02117e-09
-3.66974e-08
1.03105e-09
-3.7739e-08
1.04151e-09
-3.87915e-08
1.05252e-09
-3.98556e-08
1.06408e-09
-4.09317e-08
1.07617e-09
-4.20205e-08
1.08876e-09
-4.31223e-08
1.10183e-09
-4.42377e-08
1.11535e-09
-4.5367e-08
1.12929e-09
-4.65106e-08
1.14359e-09
-4.76688e-08
1.15823e-09
-4.8842e-08
1.17315e-09
-5.00303e-08
1.18831e-09
-5.12339e-08
1.20363e-09
-5.2453e-08
1.21905e-09
-5.36875e-08
1.23451e-09
-5.49374e-08
1.24993e-09
-5.62026e-08
1.26521e-09
-5.74829e-08
1.28027e-09
-5.87779e-08
1.29502e-09
-6.00872e-08
1.30933e-09
-6.14103e-08
1.3231e-09
-6.27465e-08
1.3362e-09
-6.4095e-08
1.34851e-09
-6.54549e-08
1.35988e-09
-6.68251e-08
1.37016e-09
-6.82043e-08
1.37919e-09
-6.95911e-08
1.3868e-09
-7.09839e-08
1.39282e-09
-7.2381e-08
1.39706e-09
-7.37803e-08
1.39932e-09
-7.51797e-08
1.3994e-09
-7.65768e-08
1.39709e-09
-7.79689e-08
1.39216e-09
-7.93533e-08
1.38437e-09
-8.07268e-08
1.37351e-09
-8.20861e-08
1.35931e-09
-8.34277e-08
1.34153e-09
-8.47476e-08
1.31992e-09
-8.60418e-08
1.29423e-09
-8.7306e-08
1.26419e-09
-8.85355e-08
1.22954e-09
-8.97256e-08
1.19003e-09
-9.0871e-08
1.14541e-09
-9.19664e-08
1.09544e-09
-9.30063e-08
1.03987e-09
-9.39848e-08
9.78488e-10
-9.48959e-08
9.11085e-10
-9.57333e-08
8.37473e-10
-9.64908e-08
7.57486e-10
-9.71618e-08
6.70984e-10
-9.77397e-08
5.77861e-10
-9.82177e-08
4.78045e-10
-9.85892e-08
3.71502e-10
-9.88475e-08
2.58244e-10
-9.89858e-08
1.38331e-10
-9.89977e-08
1.18835e-11
-9.88767e-08
-1.20937e-10
-9.86169e-08
-2.59882e-10
-9.82122e-08
-4.04653e-10
-9.76573e-08
-5.54874e-10
-9.69472e-08
-7.10095e-10
-9.60774e-08
-8.69789e-10
-9.50441e-08
-1.03335e-09
-9.3844e-08
-1.20008e-09
-9.24748e-08
-1.36921e-09
-9.09349e-08
-1.53989e-09
-8.92237e-08
-1.71118e-09
-8.73417e-08
-1.88207e-09
-8.52902e-08
-2.05146e-09
-8.3072e-08
-2.21821e-09
-8.06909e-08
-2.38109e-09
-7.8152e-08
-2.53884e-09
-7.54619e-08
-2.69014e-09
-7.26283e-08
-2.83365e-09
-6.96602e-08
-2.96801e-09
-6.65684e-08
-3.09184e-09
-6.33646e-08
-3.20381e-09
-6.0062e-08
-3.30257e-09
-5.66752e-08
-3.38685e-09
-5.32197e-08
-3.45544e-09
-4.97125e-08
-3.50718e-09
-4.61715e-08
-3.54104e-09
-4.26154e-08
-3.55609e-09
-3.90639e-08
-3.55152e-09
-3.55372e-08
-3.52667e-09
-3.20562e-08
-3.48104e-09
-2.86419e-08
-3.41428e-09
-2.53157e-08
-3.32621e-09
-2.20989e-08
-3.21683e-09
-1.90125e-08
-3.08632e-09
-1.60775e-08
-2.93503e-09
-1.3314e-08
-2.76352e-09
-1.07415e-08
-2.57248e-09
-8.37866e-09
-2.36285e-09
-6.24295e-09
-2.13571e-09
-4.35052e-09
-1.89243e-09
-2.71588e-09
-1.63465e-09
-1.35149e-09
-1.3644e-09
-2.67165e-10
-1.08433e-09
5.30892e-10
-7.98055e-10
1.04164e-09
-5.10746e-10
1.27194e-09
-2.30295e-10
1.24131e-09
3.06391e-11
9.90089e-10
2.51219e-10
5.93943e-10
3.96147e-10
1.91194e-10
4.0275e-10
1.91195e-10
1.40966e-10
-1.93752e-10
4.06776e-10
-4.07455e-10
6.8783e-10
-4.4832e-10
9.01669e-10
-3.593e-10
9.89608e-10
-1.83589e-10
9.13422e-10
4.63027e-11
6.50454e-10
3.07015e-10
1.89494e-10
5.82121e-10
-4.72473e-10
8.60199e-10
-1.3327e-09
1.13338e-09
-2.38446e-09
1.39632e-09
-3.61825e-09
1.64553e-09
-5.0229e-09
1.87875e-09
-6.58619e-09
2.09472e-09
-8.29535e-09
2.29289e-09
-1.01376e-08
2.47321e-09
-1.21002e-08
2.63602e-09
-1.4171e-08
2.78198e-09
-1.63383e-08
2.91193e-09
-1.85912e-08
3.02683e-09
-2.09193e-08
3.12775e-09
-2.33134e-08
3.21581e-09
-2.57646e-08
3.29217e-09
-2.82654e-08
3.35796e-09
-3.08086e-08
3.41432e-09
-3.33881e-08
3.46231e-09
-3.59985e-08
3.503e-09
-3.8635e-08
3.53736e-09
-4.12937e-08
3.56633e-09
-4.39711e-08
3.59076e-09
-4.66644e-08
3.61147e-09
-4.93714e-08
3.62918e-09
-5.20903e-08
3.64457e-09
-5.48197e-08
3.65826e-09
-5.75588e-08
3.67078e-09
-6.03071e-08
3.68265e-09
-6.30642e-08
3.69429e-09
-6.58304e-08
3.7061e-09
-6.86059e-08
3.71842e-09
-7.13913e-08
3.73157e-09
-7.41873e-08
3.74579e-09
-7.6995e-08
3.76132e-09
-7.98152e-08
3.77834e-09
-8.26493e-08
3.79702e-09
-8.54986e-08
3.8175e-09
-8.83644e-08
3.83989e-09
-9.12482e-08
3.86428e-09
-9.41514e-08
3.89073e-09
-9.70757e-08
3.91929e-09
-1.00023e-07
3.94999e-09
-1.02993e-07
3.98285e-09
-1.0599e-07
4.01786e-09
-1.09014e-07
4.05501e-09
-1.12067e-07
4.09427e-09
-1.1515e-07
4.13558e-09
-1.18265e-07
4.17889e-09
-1.21413e-07
4.22412e-09
-1.24595e-07
4.27118e-09
-1.27813e-07
4.31996e-09
-1.31068e-07
4.37034e-09
-1.34361e-07
4.42219e-09
-1.37693e-07
4.47534e-09
-1.41064e-07
4.52961e-09
-1.44476e-07
4.58481e-09
-1.47928e-07
4.64073e-09
-1.51422e-07
4.69713e-09
-1.54956e-07
4.75374e-09
-1.58532e-07
4.81029e-09
-1.62149e-07
4.86646e-09
-1.65805e-07
4.92192e-09
-1.69502e-07
4.9763e-09
-1.73236e-07
5.02921e-09
-1.77007e-07
5.08023e-09
-1.80812e-07
5.12892e-09
-1.84651e-07
5.17478e-09
-1.8852e-07
5.21731e-09
-1.92416e-07
5.25596e-09
-1.96336e-07
5.29014e-09
-2.00276e-07
5.31925e-09
-2.04232e-07
5.34263e-09
-2.08199e-07
5.3596e-09
-2.12171e-07
5.36945e-09
-2.16143e-07
5.37143e-09
-2.20108e-07
5.36475e-09
-2.2406e-07
5.34861e-09
-2.2799e-07
5.32216e-09
-2.3189e-07
5.28454e-09
-2.35751e-07
5.23486e-09
-2.39564e-07
5.1722e-09
-2.43318e-07
5.09563e-09
-2.47003e-07
5.00422e-09
-2.50605e-07
4.89701e-09
-2.54114e-07
4.77306e-09
-2.57516e-07
4.63141e-09
-2.60797e-07
4.47115e-09
-2.63943e-07
4.29136e-09
-2.66939e-07
4.09115e-09
-2.69769e-07
3.8697e-09
-2.72417e-07
3.62621e-09
-2.74865e-07
3.35996e-09
-2.77098e-07
3.07031e-09
-2.79097e-07
2.7567e-09
-2.80845e-07
2.41868e-09
-2.82323e-07
2.05592e-09
-2.83513e-07
1.66823e-09
-2.84397e-07
1.25557e-09
-2.84957e-07
8.18054e-10
-2.85175e-07
3.56008e-10
-2.85033e-07
-1.30054e-10
-2.84515e-07
-6.39401e-10
-2.83603e-07
-1.17106e-09
-2.82284e-07
-1.72381e-09
-2.80543e-07
-2.29618e-09
-2.78367e-07
-2.8864e-09
-2.75744e-07
-3.49243e-09
-2.72665e-07
-4.11195e-09
-2.69123e-07
-4.74232e-09
-2.65112e-07
-5.38061e-09
-2.60628e-07
-6.02361e-09
-2.55671e-07
-6.66779e-09
-2.50244e-07
-7.30937e-09
-2.44351e-07
-7.94431e-09
-2.38001e-07
-8.56831e-09
-2.31205e-07
-9.17686e-09
-2.23979e-07
-9.76529e-09
-2.1634e-07
-1.03288e-08
-2.08312e-07
-1.08623e-08
-1.99919e-07
-1.1361e-08
-1.91191e-07
-1.18198e-08
-1.82161e-07
-1.22338e-08
-1.72865e-07
-1.25981e-08
-1.63344e-07
-1.29081e-08
-1.5364e-07
-1.31593e-08
-1.438e-07
-1.33476e-08
-1.33872e-07
-1.34693e-08
-1.23907e-07
-1.35209e-08
-1.13959e-07
-1.34996e-08
-1.04082e-07
-1.3403e-08
-9.43342e-08
-1.32293e-08
-8.47712e-08
-1.29773e-08
-7.54511e-08
-1.26464e-08
-6.64312e-08
-1.22367e-08
-5.77685e-08
-1.1749e-08
-4.95186e-08
-1.11849e-08
-4.17357e-08
-1.05464e-08
-3.44716e-08
-9.83663e-09
-2.77751e-08
-9.0593e-09
-2.16917e-08
-8.21909e-09
-1.62624e-08
-7.32175e-09
-1.15227e-08
-6.37434e-09
-7.50139e-09
-5.38571e-09
-4.21849e-09
-4.36724e-09
-1.68252e-09
-3.33402e-09
1.13603e-10
-2.30688e-09
1.19885e-09
-1.31555e-09
1.63307e-09
-4.03591e-10
1.52053e-09
3.63757e-10
1.02755e-09
8.89137e-10
4.01154e-10
1.02914e-09
5.92351e-10
1.68029e-10
-3.6178e-10
4.50192e-10
-6.89633e-10
7.07905e-10
-7.06003e-10
8.41231e-10
-4.92651e-10
7.76843e-10
-1.19203e-10
4.64184e-10
3.5897e-10
-1.28665e-10
8.99858e-10
-1.01895e-09
1.47241e-09
-2.21282e-09
2.05406e-09
-3.70805e-09
2.62859e-09
-5.49631e-09
3.1846e-09
-7.56501e-09
3.71423e-09
-9.89858e-09
4.21231e-09
-1.24796e-08
4.6757e-09
-1.52895e-08
5.1028e-09
-1.83094e-08
5.49311e-09
-2.15204e-08
5.84706e-09
-2.49041e-08
6.16572e-09
-2.84428e-08
6.45061e-09
-3.21196e-08
6.70363e-09
-3.59188e-08
6.92687e-09
-3.98256e-08
7.12261e-09
-4.38266e-08
7.29317e-09
-4.79095e-08
7.44091e-09
-5.20633e-08
7.56815e-09
-5.62782e-08
7.67718e-09
-6.05454e-08
7.77017e-09
-6.48572e-08
7.84923e-09
-6.92072e-08
7.91633e-09
-7.35898e-08
7.97331e-09
-7.80002e-08
8.02189e-09
-8.24347e-08
8.06367e-09
-8.68902e-08
8.10009e-09
-9.13644e-08
8.13249e-09
-9.58557e-08
8.16207e-09
-1.00363e-07
8.18991e-09
-1.04886e-07
8.21698e-09
-1.09424e-07
8.24414e-09
-1.13977e-07
8.27215e-09
-1.18548e-07
8.30168e-09
-1.23135e-07
8.33333e-09
-1.27741e-07
8.36759e-09
-1.32368e-07
8.4049e-09
-1.37017e-07
8.44563e-09
-1.41689e-07
8.49007e-09
-1.46388e-07
8.53849e-09
-1.51115e-07
8.59108e-09
-1.55872e-07
8.64801e-09
-1.60662e-07
8.70937e-09
-1.65487e-07
8.77524e-09
-1.7035e-07
8.84566e-09
-1.75253e-07
8.92061e-09
-1.80198e-07
9.00006e-09
-1.85187e-07
9.08394e-09
-1.90224e-07
9.17215e-09
-1.9531e-07
9.26453e-09
-2.00446e-07
9.36092e-09
-2.05636e-07
9.46112e-09
-2.10881e-07
9.56487e-09
-2.16183e-07
9.67191e-09
-2.21543e-07
9.7819e-09
-2.26962e-07
9.89451e-09
-2.32441e-07
1.00093e-08
-2.37983e-07
1.01259e-08
-2.43586e-07
1.02438e-08
-2.49251e-07
1.03624e-08
-2.54978e-07
1.04811e-08
-2.60767e-07
1.05994e-08
-2.66618e-07
1.07166e-08
-2.72527e-07
1.08318e-08
-2.78495e-07
1.09443e-08
-2.84519e-07
1.10532e-08
-2.90597e-07
1.11576e-08
-2.96724e-07
1.12564e-08
-3.02898e-07
1.13487e-08
-3.09114e-07
1.14333e-08
-3.15367e-07
1.15089e-08
-3.21651e-07
1.15744e-08
-3.2796e-07
1.16283e-08
-3.34287e-07
1.16693e-08
-3.40623e-07
1.16959e-08
-3.4696e-07
1.17064e-08
-3.53288e-07
1.16994e-08
-3.59597e-07
1.1673e-08
-3.65874e-07
1.16256e-08
-3.72107e-07
1.15554e-08
-3.78283e-07
1.14604e-08
-3.84386e-07
1.13388e-08
-3.90403e-07
1.11886e-08
-3.96315e-07
1.10079e-08
-4.02106e-07
1.07946e-08
-4.07755e-07
1.05468e-08
-4.13245e-07
1.02624e-08
-4.18553e-07
9.93952e-09
-4.23658e-07
9.57615e-09
-4.28537e-07
9.17041e-09
-4.33166e-07
8.72048e-09
-4.37521e-07
8.22466e-09
-4.41576e-07
7.68133e-09
-4.45305e-07
7.08905e-09
-4.48682e-07
6.44653e-09
-4.51678e-07
5.75268e-09
-4.54266e-07
5.00667e-09
-4.56418e-07
4.2079e-09
-4.58105e-07
3.3561e-09
-4.59301e-07
2.45129e-09
-4.59977e-07
1.49389e-09
-4.60106e-07
4.84704e-10
-4.59661e-07
-5.75026e-10
-4.58616e-07
-1.6836e-09
-4.56949e-07
-2.8388e-09
-4.54635e-07
-4.03792e-09
-4.51653e-07
-5.27765e-09
-4.47985e-07
-6.55414e-09
-4.43615e-07
-7.86293e-09
-4.38528e-07
-9.19895e-09
-4.32714e-07
-1.05565e-08
-4.26165e-07
-1.19293e-08
-4.18878e-07
-1.33105e-08
-4.10853e-07
-1.46924e-08
-4.02096e-07
-1.60672e-08
-3.92614e-07
-1.7426e-08
-3.82422e-07
-1.87599e-08
-3.7154e-07
-2.00593e-08
-3.59991e-07
-2.13143e-08
-3.47805e-07
-2.25147e-08
-3.35017e-07
-2.36501e-08
-3.21668e-07
-2.47101e-08
-3.07804e-07
-2.56841e-08
-2.93476e-07
-2.65618e-08
-2.78741e-07
-2.7333e-08
-2.63661e-07
-2.7988e-08
-2.48303e-07
-2.85176e-08
-2.32737e-07
-2.8913e-08
-2.1704e-07
-2.91664e-08
-2.0129e-07
-2.92708e-08
-1.85569e-07
-2.92202e-08
-1.69963e-07
-2.90097e-08
-1.54557e-07
-2.86355e-08
-1.39439e-07
-2.80952e-08
-1.24697e-07
-2.73878e-08
-1.1042e-07
-2.65136e-08
-9.66948e-08
-2.54745e-08
-8.36057e-08
-2.4274e-08
-7.12351e-08
-2.2917e-08
-5.96615e-08
-2.14103e-08
-4.89583e-08
-1.97625e-08
-3.91931e-08
-1.79843e-08
-3.04258e-08
-1.6089e-08
-2.27076e-08
-1.40926e-08
-1.60777e-08
-1.20155e-08
-1.05616e-08
-9.88336e-09
-6.16619e-09
-7.72943e-09
-2.87489e-09
-5.59818e-09
-6.40173e-10
-3.55026e-09
6.263e-10
-1.67006e-09
1.06653e-09
-7.64719e-11
8.90756e-10
1.06491e-09
3.94253e-10
1.52565e-09
9.86605e-10
1.47944e-10
-5.09733e-10
3.64094e-10
-9.05753e-10
4.97626e-10
-8.39548e-10
4.40591e-10
-4.35596e-10
1.13415e-10
2.07975e-10
-5.39919e-10
1.0123e-09
-1.55585e-09
1.91579e-09
-2.95492e-09
2.8715e-09
-4.7451e-09
3.84423e-09
-6.9245e-09
4.80799e-09
-9.48378e-09
5.74389e-09
-1.24082e-08
6.63859e-09
-1.56789e-08
7.48304e-09
-1.92746e-08
8.27146e-09
-2.31725e-08
9.00066e-09
-2.73488e-08
9.66937e-09
-3.17796e-08
1.02779e-08
-3.64415e-08
1.08276e-08
-4.13116e-08
1.13208e-08
-4.63683e-08
1.17603e-08
-5.1591e-08
1.21496e-08
-5.69606e-08
1.24922e-08
-6.24593e-08
1.27919e-08
-6.80709e-08
1.30525e-08
-7.37808e-08
1.3278e-08
-7.95758e-08
1.34721e-08
-8.54441e-08
1.36385e-08
-9.13755e-08
1.37806e-08
-9.7361e-08
1.39018e-08
-1.03393e-07
1.40053e-08
-1.09465e-07
1.40939e-08
-1.15572e-07
1.41703e-08
-1.21709e-07
1.42371e-08
-1.27873e-07
1.42966e-08
-1.34061e-07
1.43507e-08
-1.40273e-07
1.44014e-08
-1.46506e-07
1.44503e-08
-1.52761e-07
1.4499e-08
-1.59038e-07
1.45488e-08
-1.65337e-07
1.46008e-08
-1.7166e-07
1.46561e-08
-1.78008e-07
1.47156e-08
-1.84383e-07
1.478e-08
-1.90787e-07
1.485e-08
-1.97223e-07
1.49261e-08
-2.03694e-07
1.50088e-08
-2.10201e-07
1.50984e-08
-2.16748e-07
1.51952e-08
-2.23338e-07
1.52994e-08
-2.29974e-07
1.54112e-08
-2.36659e-07
1.55305e-08
-2.43396e-07
1.56575e-08
-2.50188e-07
1.57919e-08
-2.57037e-07
1.59337e-08
-2.63948e-07
1.60828e-08
-2.70922e-07
1.62387e-08
-2.77963e-07
1.64014e-08
-2.85072e-07
1.65702e-08
-2.92252e-07
1.67449e-08
-2.99505e-07
1.6925e-08
-3.06833e-07
1.71098e-08
-3.14237e-07
1.72987e-08
-3.21719e-07
1.7491e-08
-3.29279e-07
1.7686e-08
-3.36918e-07
1.78827e-08
-3.44636e-07
1.80803e-08
-3.52432e-07
1.82777e-08
-3.60306e-07
1.84737e-08
-3.68257e-07
1.86672e-08
-3.76282e-07
1.88568e-08
-3.84379e-07
1.90411e-08
-3.92544e-07
1.92186e-08
-4.00775e-07
1.93877e-08
-4.09065e-07
1.95466e-08
-4.17409e-07
1.96935e-08
-4.25802e-07
1.98263e-08
-4.34237e-07
1.99431e-08
-4.42704e-07
2.00415e-08
-4.51195e-07
2.01194e-08
-4.597e-07
2.01742e-08
-4.68207e-07
2.02033e-08
-4.76705e-07
2.02042e-08
-4.8518e-07
2.0174e-08
-4.93616e-07
2.01098e-08
-5.01999e-07
2.00087e-08
-5.10312e-07
1.98675e-08
-5.18534e-07
1.96832e-08
-5.26648e-07
1.94524e-08
-5.34631e-07
1.91718e-08
-5.42462e-07
1.88383e-08
-5.50115e-07
1.84483e-08
-5.57567e-07
1.79985e-08
-5.6479e-07
1.74857e-08
-5.71757e-07
1.69064e-08
-5.78439e-07
1.62575e-08
-5.84804e-07
1.55359e-08
-5.90822e-07
1.47385e-08
-5.9646e-07
1.38627e-08
-6.01685e-07
1.29057e-08
-6.06461e-07
1.18653e-08
-6.10754e-07
1.07394e-08
-6.14527e-07
9.52641e-09
-6.17746e-07
8.22503e-09
-6.20372e-07
6.83444e-09
-6.22371e-07
5.35437e-09
-6.23704e-07
3.78506e-09
-6.24338e-07
2.12743e-09
-6.24236e-07
3.83031e-10
-6.23365e-07
-1.44583e-09
-6.21693e-07
-3.35606e-09
-6.19188e-07
-5.34374e-09
-6.15822e-07
-7.40405e-09
-6.11568e-07
-9.53126e-09
-6.06404e-07
-1.17187e-08
-6.00308e-07
-1.39586e-08
-5.93265e-07
-1.62423e-08
-5.85261e-07
-1.85601e-08
-5.76289e-07
-2.09013e-08
-5.66345e-07
-2.32541e-08
-5.55432e-07
-2.56058e-08
-5.43557e-07
-2.79427e-08
-5.30732e-07
-3.02504e-08
-5.16979e-07
-3.25134e-08
-5.02322e-07
-3.47159e-08
-4.86795e-07
-3.68412e-08
-4.70438e-07
-3.88722e-08
-4.53296e-07
-4.07916e-08
-4.35424e-07
-4.25818e-08
-4.16883e-07
-4.42254e-08
-3.9774e-07
-4.5705e-08
-3.78069e-07
-4.70038e-08
-3.57952e-07
-4.81055e-08
-3.37475e-07
-4.89946e-08
-3.16731e-07
-4.9657e-08
-2.95818e-07
-5.00793e-08
-2.74839e-07
-5.02501e-08
-2.53899e-07
-5.01593e-08
-2.3311e-07
-4.97988e-08
-2.12583e-07
-4.91626e-08
-1.92432e-07
-4.82467e-08
-1.7277e-07
-4.70495e-08
-1.53712e-07
-4.55719e-08
-1.35369e-07
-4.38173e-08
-1.17851e-07
-4.17919e-08
-1.01263e-07
-3.95046e-08
-8.57063e-08
-3.69674e-08
-7.12732e-08
-3.41955e-08
-5.80495e-08
-3.12081e-08
-4.611e-08
-2.80285e-08
-3.55173e-08
-2.46853e-08
-2.63186e-08
-2.12142e-08
-1.85426e-08
-1.76593e-08
-1.21948e-08
-1.40773e-08
-7.25177e-09
-1.05412e-08
-3.65453e-09
-7.1475e-09
-1.29938e-09
-4.02521e-09
-2.74421e-11
-1.34841e-09
3.87857e-10
6.49612e-10
2.54416e-10
1.65909e-09
1.24102e-09
9.91065e-11
-6.08829e-10
1.8841e-10
-9.95084e-10
1.20494e-10
-7.71629e-10
-2.12351e-10
-1.0274e-10
-8.89834e-10
8.85456e-10
-1.96858e-09
2.09105e-09
-3.48589e-09
3.4331e-09
-5.46302e-09
4.84862e-09
-7.90813e-09
6.28934e-09
-1.08189e-08
7.71879e-09
-1.41849e-08
9.1099e-09
-1.79895e-08
1.04431e-08
-2.22112e-08
1.17048e-08
-2.68259e-08
1.28861e-08
-3.18069e-08
1.39817e-08
-3.71267e-08
1.49892e-08
-4.27575e-08
1.59087e-08
-4.86716e-08
1.67417e-08
-5.4842e-08
1.74912e-08
-6.1243e-08
1.81612e-08
-6.78498e-08
1.87564e-08
-7.46395e-08
1.92819e-08
-8.15908e-08
1.97431e-08
-8.86839e-08
2.01457e-08
-9.5901e-08
2.04951e-08
-1.03226e-07
2.0797e-08
-1.10644e-07
2.10568e-08
-1.18143e-07
2.12795e-08
-1.25711e-07
2.14703e-08
-1.3334e-07
2.16337e-08
-1.4102e-07
2.17741e-08
-1.48745e-07
2.18955e-08
-1.5651e-07
2.20018e-08
-1.64309e-07
2.20963e-08
-1.72141e-07
2.21822e-08
-1.80002e-07
2.22623e-08
-1.87891e-07
2.23392e-08
-1.95807e-07
2.24151e-08
-2.0375e-07
2.24922e-08
-2.11721e-07
2.25721e-08
-2.19722e-07
2.26565e-08
-2.27753e-07
2.27468e-08
-2.35817e-07
2.28441e-08
-2.43916e-07
2.29494e-08
-2.52054e-07
2.30636e-08
-2.60233e-07
2.31874e-08
-2.68456e-07
2.33213e-08
-2.76726e-07
2.34658e-08
-2.85048e-07
2.36212e-08
-2.93424e-07
2.37876e-08
-3.01859e-07
2.39652e-08
-3.10355e-07
2.4154e-08
-3.18917e-07
2.43537e-08
-3.27548e-07
2.45643e-08
-3.36251e-07
2.47855e-08
-3.45029e-07
2.50168e-08
-3.53885e-07
2.52578e-08
-3.62823e-07
2.55078e-08
-3.71844e-07
2.57662e-08
-3.80951e-07
2.60323e-08
-3.90147e-07
2.6305e-08
-3.99431e-07
2.65835e-08
-4.08807e-07
2.68666e-08
-4.18274e-07
2.71531e-08
-4.27833e-07
2.74416e-08
-4.37483e-07
2.77308e-08
-4.47225e-07
2.80189e-08
-4.57055e-07
2.83042e-08
-4.66973e-07
2.85849e-08
-4.76975e-07
2.88589e-08
-4.87058e-07
2.9124e-08
-4.97217e-07
2.93779e-08
-5.07447e-07
2.96181e-08
-5.17743e-07
2.98419e-08
-5.28096e-07
3.00465e-08
-5.38498e-07
3.02288e-08
-5.48941e-07
3.03857e-08
-5.59413e-07
3.05139e-08
-5.69904e-07
3.06097e-08
-5.80399e-07
3.06695e-08
-5.90885e-07
3.06894e-08
-6.01346e-07
3.06654e-08
-6.11765e-07
3.05933e-08
-6.22124e-07
3.04687e-08
-6.32403e-07
3.02872e-08
-6.42579e-07
3.00441e-08
-6.52631e-07
2.97347e-08
-6.62533e-07
2.93542e-08
-6.72259e-07
2.88977e-08
-6.81781e-07
2.83602e-08
-6.91069e-07
2.77369e-08
-7.00093e-07
2.70227e-08
-7.0882e-07
2.62127e-08
-7.17216e-07
2.53022e-08
-7.25245e-07
2.42863e-08
-7.3287e-07
2.31607e-08
-7.40052e-07
2.19209e-08
-7.46752e-07
2.05631e-08
-7.5293e-07
1.90834e-08
-7.58544e-07
1.74787e-08
-7.6355e-07
1.57461e-08
-7.67907e-07
1.38834e-08
-7.71571e-07
1.18889e-08
-7.74498e-07
9.76165e-09
-7.76645e-07
7.50153e-09
-7.77969e-07
5.10917e-09
-7.78428e-07
2.58618e-09
-7.7798e-07
-6.48198e-11
-7.76586e-07
-2.84013e-09
-7.74207e-07
-5.73488e-09
-7.70808e-07
-8.74295e-09
-7.66355e-07
-1.18569e-08
-7.60818e-07
-1.5068e-08
-7.54171e-07
-1.83661e-08
-7.4639e-07
-2.17395e-08
-7.37457e-07
-2.51751e-08
-7.27359e-07
-2.86582e-08
-7.16088e-07
-3.21729e-08
-7.0364e-07
-3.57016e-08
-6.9002e-07
-3.92254e-08
-6.75239e-07
-4.27239e-08
-6.59314e-07
-4.61756e-08
-6.4227e-07
-4.95579e-08
-6.24138e-07
-5.2847e-08
-6.04961e-07
-5.60185e-08
-5.84786e-07
-5.90471e-08
-5.63671e-07
-6.19073e-08
-5.41679e-07
-6.45732e-08
-5.18885e-07
-6.70191e-08
-4.95371e-07
-6.92196e-08
-4.71225e-07
-7.11498e-08
-4.46544e-07
-7.27859e-08
-4.21434e-07
-7.41052e-08
-3.96004e-07
-7.50867e-08
-3.70372e-07
-7.57111e-08
-3.44661e-07
-7.59614e-08
-3.18997e-07
-7.5823e-08
-2.93512e-07
-7.5284e-08
-2.68339e-07
-7.43356e-08
-2.43613e-07
-7.29722e-08
-2.19471e-07
-7.11917e-08
-1.96047e-07
-6.89955e-08
-1.73476e-07
-6.63892e-08
-1.51885e-07
-6.33823e-08
-1.31401e-07
-5.99887e-08
-1.12142e-07
-5.62268e-08
-9.42169e-08
-5.21203e-08
-7.77265e-08
-4.76985e-08
-6.27576e-08
-4.29974e-08
-4.93821e-08
-3.80608e-08
-3.7654e-08
-3.29423e-08
-2.76052e-08
-2.77081e-08
-1.92415e-08
-2.2441e-08
-1.25371e-08
-1.72456e-08
-7.42878e-09
-1.22558e-08
-3.8086e-09
-7.64539e-09
-1.51586e-09
-3.64114e-09
-3.28578e-10
-5.37668e-10
4.72932e-11
1.28322e-09
1.28831e-09
3.27723e-11
-6.416e-10
-4.73398e-11
-9.1497e-10
-3.7438e-10
-4.44593e-10
-1.04889e-09
5.71763e-10
-2.14584e-09
1.98242e-09
-3.71871e-09
3.66392e-09
-5.80262e-09
5.517e-09
-8.41724e-09
7.46324e-09
-1.15694e-08
9.44148e-09
-1.52553e-08
1.14047e-08
-1.94628e-08
1.33174e-08
-2.41732e-08
1.51535e-08
-2.9363e-08
1.68946e-08
-3.5005e-08
1.8528e-08
-4.10697e-08
2.00464e-08
-4.75265e-08
2.1446e-08
-5.4344e-08
2.27262e-08
-6.14912e-08
2.38888e-08
-6.89375e-08
2.49375e-08
-7.66536e-08
2.58774e-08
-8.46116e-08
2.67144e-08
-9.2785e-08
2.74553e-08
-1.01149e-07
2.81075e-08
-1.09682e-07
2.86782e-08
-1.18362e-07
2.91752e-08
-1.27171e-07
2.96058e-08
-1.36092e-07
2.99775e-08
-1.45109e-07
3.02972e-08
-1.54211e-07
3.05718e-08
-1.63385e-07
3.08077e-08
-1.72622e-07
3.10108e-08
-1.81913e-07
3.11868e-08
-1.91252e-07
3.13409e-08
-2.00634e-07
3.14779e-08
-2.10054e-07
3.16021e-08
-2.19509e-07
3.17175e-08
-2.28997e-07
3.18277e-08
-2.38518e-07
3.19359e-08
-2.48071e-07
3.20449e-08
-2.57656e-07
3.21573e-08
-2.67275e-07
3.22753e-08
-2.76929e-07
3.24009e-08
-2.86621e-07
3.25358e-08
-2.96353e-07
3.26813e-08
-3.06128e-07
3.28386e-08
-3.15949e-07
3.30089e-08
-3.25821e-07
3.31928e-08
-3.35746e-07
3.3391e-08
-3.45728e-07
3.36039e-08
-3.55773e-07
3.38318e-08
-3.65882e-07
3.40748e-08
-3.76061e-07
3.4333e-08
-3.86313e-07
3.46061e-08
-3.96643e-07
3.48938e-08
-4.07053e-07
3.51958e-08
-4.17548e-07
3.55114e-08
-4.2813e-07
3.584e-08
-4.38803e-07
3.61807e-08
-4.49569e-07
3.65325e-08
-4.60432e-07
3.68943e-08
-4.71391e-07
3.72648e-08
-4.8245e-07
3.76426e-08
-4.9361e-07
3.80261e-08
-5.0487e-07
3.84135e-08
-5.16232e-07
3.8803e-08
-5.27693e-07
3.91923e-08
-5.39254e-07
3.95792e-08
-5.50911e-07
3.99613e-08
-5.62662e-07
4.03358e-08
-5.74503e-07
4.06999e-08
-5.86429e-07
4.10504e-08
-5.98435e-07
4.1384e-08
-6.10514e-07
4.16973e-08
-6.22659e-07
4.19863e-08
-6.34859e-07
4.22472e-08
-6.47106e-07
4.24756e-08
-6.59388e-07
4.26672e-08
-6.71691e-07
4.28172e-08
-6.84002e-07
4.29206e-08
-6.96305e-07
4.29723e-08
-7.08582e-07
4.2967e-08
-7.20816e-07
4.28989e-08
-7.32985e-07
4.27622e-08
-7.45067e-07
4.2551e-08
-7.57039e-07
4.2259e-08
-7.68875e-07
4.18799e-08
-7.80547e-07
4.14071e-08
-7.92027e-07
4.08341e-08
-8.03283e-07
4.01541e-08
-8.14283e-07
3.93604e-08
-8.24993e-07
3.84462e-08
-8.35375e-07
3.74048e-08
-8.45392e-07
3.62296e-08
-8.55004e-07
3.49139e-08
-8.64169e-07
3.34517e-08
-8.72845e-07
3.18367e-08
-8.80987e-07
3.00633e-08
-8.8855e-07
2.81261e-08
-8.95487e-07
2.60204e-08
-9.01751e-07
2.37419e-08
-9.07292e-07
2.12871e-08
-9.12061e-07
1.8653e-08
-9.1601e-07
1.58378e-08
-9.19089e-07
1.28405e-08
-9.21249e-07
9.66121e-09
-9.22441e-07
6.30114e-09
-9.22617e-07
2.76285e-09
-9.21732e-07
-9.49699e-10
-9.19742e-07
-4.83108e-09
-9.16602e-07
-8.87427e-09
-9.12275e-07
-1.30705e-08
-9.06722e-07
-1.74094e-08
-8.99912e-07
-2.18786e-08
-8.91814e-07
-2.64638e-08
-8.82405e-07
-3.11488e-08
-8.71664e-07
-3.59154e-08
-8.59579e-07
-4.07436e-08
-8.46141e-07
-4.5611e-08
-8.31349e-07
-5.04936e-08
-8.15209e-07
-5.53654e-08
-7.97734e-07
-6.01985e-08
-7.78946e-07
-6.49636e-08
-7.58875e-07
-6.96296e-08
-7.37557e-07
-7.41641e-08
-7.15042e-07
-7.85339e-08
-6.91385e-07
-8.27045e-08
-6.66651e-07
-8.66412e-08
-6.40915e-07
-9.03088e-08
-6.14262e-07
-9.36723e-08
-5.86785e-07
-9.66971e-08
-5.58585e-07
-9.93497e-08
-5.29773e-07
-1.01598e-07
-5.00469e-07
-1.0341e-07
-4.70797e-07
-1.04758e-07
-4.40892e-07
-1.05616e-07
-4.10893e-07
-1.05961e-07
-3.80944e-07
-1.05772e-07
-3.51194e-07
-1.05034e-07
-3.21795e-07
-1.03735e-07
-2.92899e-07
-1.01868e-07
-2.64662e-07
-9.94288e-08
-2.37237e-07
-9.6421e-08
-2.10774e-07
-9.28522e-08
-1.8542e-07
-8.87358e-08
-1.61317e-07
-8.40915e-08
-1.38599e-07
-7.89454e-08
-1.17388e-07
-7.33307e-08
-9.77981e-08
-6.72888e-08
-7.99257e-08
-6.08697e-08
-6.38519e-08
-5.41346e-08
-4.9637e-08
-4.71572e-08
-3.73175e-08
-4.00276e-08
-2.69023e-08
-3.28563e-08
-1.83677e-08
-2.57801e-08
-1.16532e-08
-1.89703e-08
-6.65561e-09
-1.26429e-08
-3.22438e-09
-7.07237e-09
-1.15618e-09
-2.60587e-09
-1.90087e-10
3.17129e-10
1.09822e-09
-4.41082e-11
-5.97485e-10
-3.2264e-10
-6.3643e-10
-9.50687e-10
1.83444e-10
-2.01673e-09
1.63781e-09
-3.5872e-09
3.55289e-09
-5.70931e-09
5.78603e-09
-8.41353e-09
8.22121e-09
-1.17159e-08
1.07656e-08
-1.56204e-08
1.33459e-08
-2.01206e-08
1.59049e-08
-2.52021e-08
1.83989e-08
-3.08438e-08
2.07952e-08
-3.70196e-08
2.30704e-08
-4.36998e-08
2.52082e-08
-5.08523e-08
2.71989e-08
-5.84434e-08
2.90372e-08
-6.64391e-08
3.07219e-08
-7.48051e-08
3.22549e-08
-8.35081e-08
3.36405e-08
-9.25155e-08
3.48848e-08
-1.01797e-07
3.59954e-08
-1.11322e-07
3.69808e-08
-1.21065e-07
3.785e-08
-1.30999e-07
3.86125e-08
-1.41102e-07
3.9278e-08
-1.51352e-07
3.98562e-08
-1.61731e-07
4.03563e-08
-1.72221e-07
4.07876e-08
-1.82808e-07
4.11588e-08
-1.93479e-07
4.14783e-08
-2.04222e-07
4.1754e-08
-2.15028e-07
4.1993e-08
-2.2589e-07
4.22023e-08
-2.368e-07
4.23882e-08
-2.47754e-07
4.25563e-08
-2.58748e-07
4.27119e-08
-2.6978e-07
4.28597e-08
-2.80849e-07
4.30041e-08
-2.91952e-07
4.31487e-08
-3.03092e-07
4.3297e-08
-3.14269e-07
4.34519e-08
-3.25484e-07
4.36161e-08
-3.3674e-07
4.37918e-08
-3.48039e-07
4.39808e-08
-3.59386e-07
4.41849e-08
-3.70782e-07
4.44053e-08
-3.82232e-07
4.46432e-08
-3.93741e-07
4.48993e-08
-4.05311e-07
4.51742e-08
-4.16948e-07
4.54684e-08
-4.28655e-07
4.57819e-08
-4.40437e-07
4.61148e-08
-4.52297e-07
4.64669e-08
-4.64241e-07
4.68377e-08
-4.76272e-07
4.72266e-08
-4.88394e-07
4.76329e-08
-5.00609e-07
4.80555e-08
-5.12922e-07
4.84935e-08
-5.25335e-07
4.89453e-08
-5.3785e-07
4.94095e-08
-5.50469e-07
4.98843e-08
-5.63194e-07
5.03678e-08
-5.76026e-07
5.08578e-08
-5.88964e-07
5.1352e-08
-6.02009e-07
5.18478e-08
-6.15159e-07
5.23422e-08
-6.28412e-07
5.28323e-08
-6.41766e-07
5.33146e-08
-6.55215e-07
5.37856e-08
-6.68757e-07
5.42414e-08
-6.82384e-07
5.46778e-08
-6.96091e-07
5.50905e-08
-7.09868e-07
5.54746e-08
-7.23707e-07
5.58251e-08
-7.37596e-07
5.61368e-08
-7.51525e-07
5.64039e-08
-7.65478e-07
5.66206e-08
-7.79442e-07
5.67807e-08
-7.93399e-07
5.68776e-08
-8.07331e-07
5.69045e-08
-8.21218e-07
5.68542e-08
-8.35039e-07
5.67195e-08
-8.48769e-07
5.64926e-08
-8.62384e-07
5.61657e-08
-8.75855e-07
5.57307e-08
-8.89155e-07
5.51792e-08
-9.0225e-07
5.45029e-08
-9.15109e-07
5.36931e-08
-9.27696e-07
5.27411e-08
-9.39974e-07
5.16383e-08
-9.51904e-07
5.0376e-08
-9.63445e-07
4.89454e-08
-9.74553e-07
4.73381e-08
-9.85185e-07
4.55459e-08
-9.95294e-07
4.35606e-08
-1.00483e-06
4.13747e-08
-1.01375e-06
3.89809e-08
-1.022e-06
3.63727e-08
-1.02952e-06
3.3544e-08
-1.03627e-06
3.04897e-08
-1.04219e-06
2.72055e-08
-1.04722e-06
2.36881e-08
-1.05132e-06
1.99353e-08
-1.05442e-06
1.59462e-08
-1.05648e-06
1.17214e-08
-1.05745e-06
7.2629e-09
-1.05726e-06
2.57446e-09
-1.05587e-06
-2.33842e-09
-1.05323e-06
-7.46826e-09
-1.0493e-06
-1.28055e-08
-1.04403e-06
-1.83386e-08
-1.03739e-06
-2.40535e-08
-1.02933e-06
-2.99338e-08
-1.01984e-06
-3.59609e-08
-1.00887e-06
-4.21134e-08
-9.96419e-07
-4.83676e-08
-9.82466e-07
-5.4697e-08
-9.67004e-07
-6.10729e-08
-9.50034e-07
-6.74639e-08
-9.31563e-07
-7.38363e-08
-9.11608e-07
-8.0154e-08
-8.90192e-07
-8.63789e-08
-8.67351e-07
-9.2471e-08
-8.43126e-07
-9.83887e-08
-8.17571e-07
-1.04089e-07
-7.90749e-07
-1.09527e-07
-7.62732e-07
-1.14658e-07
-7.33603e-07
-1.19438e-07
-7.03455e-07
-1.2382e-07
-6.72392e-07
-1.27761e-07
-6.40524e-07
-1.31217e-07
-6.07975e-07
-1.34147e-07
-5.74875e-07
-1.3651e-07
-5.41363e-07
-1.3827e-07
-5.07585e-07
-1.39394e-07
-4.73695e-07
-1.3985e-07
-4.39852e-07
-1.39615e-07
-4.06219e-07
-1.38667e-07
-3.72963e-07
-1.36991e-07
-3.40253e-07
-1.34578e-07
-3.08259e-07
-1.31423e-07
-2.77149e-07
-1.27531e-07
-2.47089e-07
-1.22912e-07
-2.18241e-07
-1.17584e-07
-1.9076e-07
-1.11572e-07
-1.64794e-07
-1.04912e-07
-1.40477e-07
-9.76472e-08
-1.17934e-07
-8.98319e-08
-9.72718e-08
-8.1532e-08
-7.85796e-08
-7.28268e-08
-6.19252e-08
-6.38116e-08
-4.73516e-08
-5.46012e-08
-3.48737e-08
-4.53342e-08
-2.44747e-08
-3.61792e-08
-1.61022e-08
-2.73428e-08
-9.66546e-09
-1.90796e-08
-5.03251e-09
-1.17053e-08
-2.02858e-09
-5.6098e-09
-4.36513e-10
-1.27494e-09
6.61712e-10
-1.27211e-10
-4.70273e-10
-6.23472e-10
-1.40165e-10
-1.58231e-09
1.1423e-09
-3.07701e-09
3.13251e-09
-5.16263e-09
5.6385e-09
-7.87766e-09
8.50105e-09
-1.12458e-08
1.15894e-08
-1.52778e-08
1.47976e-08
-1.99732e-08
1.80413e-08
-2.53222e-08
2.12539e-08
-3.13069e-08
2.43836e-08
-3.79034e-08
2.73917e-08
-4.50829e-08
3.02499e-08
-5.28131e-08
3.29384e-08
-6.10591e-08
3.54449e-08
-6.97846e-08
3.77627e-08
-7.89528e-08
3.98901e-08
-8.85269e-08
4.1829e-08
-9.84708e-08
4.35844e-08
-1.08749e-07
4.51635e-08
-1.19329e-07
4.65754e-08
-1.30179e-07
4.78303e-08
-1.41268e-07
4.89393e-08
-1.5257e-07
4.99141e-08
-1.64058e-07
5.07664e-08
-1.7571e-07
5.15083e-08
-1.87505e-07
5.21512e-08
-1.99424e-07
5.27067e-08
-2.11451e-07
5.31855e-08
-2.23571e-07
5.35982e-08
-2.35771e-07
5.39545e-08
-2.48042e-07
5.42636e-08
-2.60373e-07
5.4534e-08
-2.72759e-07
5.47738e-08
-2.85193e-07
5.49901e-08
-2.97671e-07
5.51896e-08
-3.10189e-07
5.53782e-08
-3.22746e-07
5.55614e-08
-3.35342e-07
5.5744e-08
-3.47975e-07
5.59303e-08
-3.60647e-07
5.6124e-08
-3.7336e-07
5.63286e-08
-3.86115e-07
5.65469e-08
-3.98915e-07
5.67814e-08
-4.11764e-07
5.70341e-08
-4.24666e-07
5.73067e-08
-4.37623e-07
5.76006e-08
-4.50641e-07
5.7917e-08
-4.63723e-07
5.82565e-08
-4.76874e-07
5.86196e-08
-4.90099e-07
5.90065e-08
-5.03402e-07
5.94173e-08