/*--------------------------------*- C++ -*----------------------------------*\
  =========                 |
  \\      /  F ield         | OpenFOAM: The Open Source CFD Toolbox
   \\    /   O peration     | Website:  https://openfoam.org
    \\  /    A nd           | Version:  7
     \\/     M anipulation  |
\*---------------------------------------------------------------------------*/
FoamFile
{
    version     2.0;
    format      ascii;
    class       volVectorField;
    location    "0.375";
    object      U;
}
// * * * * * * * * * * * * * * * * * * * * * * * * * * * * * * * * * * * * * //

dimensions      [0 1 -1 0 0 0 0];

internalField   nonuniform List<vector> 
12800
(
(3.20164e-06 -3.34915e-06 0)
(1.81654e-05 -9.78492e-06 0)
(4.4154e-05 -1.20248e-05 0)
(7.0488e-05 -1.11007e-05 0)
(9.05697e-05 -8.42121e-06 0)
(0.000101054 -4.85714e-06 0)
(0.000100148 -9.01853e-07 0)
(8.70171e-05 3.15003e-06 0)
(6.145e-05 7.12614e-06 0)
(2.36593e-05 1.09275e-05 0)
(-2.58847e-05 1.4497e-05 0)
(-8.65473e-05 1.78083e-05 0)
(-0.000157586 2.08454e-05 0)
(-0.000238211 2.36043e-05 0)
(-0.000327607 2.60902e-05 0)
(-0.000424965 2.83131e-05 0)
(-0.000529491 3.02857e-05 0)
(-0.000640426 3.20232e-05 0)
(-0.000757047 3.35427e-05 0)
(-0.00087868 3.48617e-05 0)
(-0.0010047 3.59973e-05 0)
(-0.00113454 3.69672e-05 0)
(-0.00126766 3.77899e-05 0)
(-0.00140361 3.84825e-05 0)
(-0.00154197 3.90602e-05 0)
(-0.00168236 3.95378e-05 0)
(-0.00182446 3.99294e-05 0)
(-0.001968 4.02489e-05 0)
(-0.00211272 4.05083e-05 0)
(-0.00225845 4.07186e-05 0)
(-0.002405 4.08896e-05 0)
(-0.00255225 4.10308e-05 0)
(-0.00270011 4.11509e-05 0)
(-0.00284848 4.12573e-05 0)
(-0.00299732 4.13564e-05 0)
(-0.00314661 4.1454e-05 0)
(-0.00329633 4.15551e-05 0)
(-0.00344649 4.16642e-05 0)
(-0.00359712 4.17853e-05 0)
(-0.00374823 4.19217e-05 0)
(-0.0038999 4.20763e-05 0)
(-0.00405216 4.22515e-05 0)
(-0.00420508 4.24494e-05 0)
(-0.00435874 4.26716e-05 0)
(-0.00451321 4.29195e-05 0)
(-0.00466858 4.31942e-05 0)
(-0.00482493 4.34967e-05 0)
(-0.00498235 4.38277e-05 0)
(-0.00514093 4.41875e-05 0)
(-0.00530076 4.45764e-05 0)
(-0.00546194 4.49944e-05 0)
(-0.00562456 4.54416e-05 0)
(-0.00578872 4.59177e-05 0)
(-0.0059545 4.64225e-05 0)
(-0.00612201 4.69556e-05 0)
(-0.00629131 4.75161e-05 0)
(-0.00646251 4.81034e-05 0)
(-0.00663569 4.87164e-05 0)
(-0.00681092 4.93541e-05 0)
(-0.00698828 5.00152e-05 0)
(-0.00716784 5.06985e-05 0)
(-0.00734966 5.14021e-05 0)
(-0.00753379 5.21243e-05 0)
(-0.0077203 5.2863e-05 0)
(-0.00790921 5.36157e-05 0)
(-0.00810056 5.43802e-05 0)
(-0.00829437 5.51534e-05 0)
(-0.00849066 5.59324e-05 0)
(-0.00868942 5.67138e-05 0)
(-0.00889064 5.74937e-05 0)
(-0.00909429 5.82682e-05 0)
(-0.00930033 5.90329e-05 0)
(-0.0095087 5.97828e-05 0)
(-0.00971932 6.05129e-05 0)
(-0.00993209 6.12176e-05 0)
(-0.0101469 6.18911e-05 0)
(-0.0103636 6.25269e-05 0)
(-0.0105821 6.31181e-05 0)
(-0.0108021 6.36574e-05 0)
(-0.0110234 6.4137e-05 0)
(-0.0112458 6.45487e-05 0)
(-0.0114691 6.48838e-05 0)
(-0.0116929 6.51331e-05 0)
(-0.0119169 6.52867e-05 0)
(-0.0121407 6.53346e-05 0)
(-0.012364 6.52662e-05 0)
(-0.0125862 6.50705e-05 0)
(-0.012807 6.4736e-05 0)
(-0.0130257 6.42509e-05 0)
(-0.0132419 6.36029e-05 0)
(-0.013455 6.27797e-05 0)
(-0.0136643 6.17685e-05 0)
(-0.0138691 6.05564e-05 0)
(-0.0140688 5.91305e-05 0)
(-0.0142626 5.74778e-05 0)
(-0.0144496 5.55853e-05 0)
(-0.0146291 5.34405e-05 0)
(-0.0148001 5.10309e-05 0)
(-0.0149618 4.83449e-05 0)
(-0.0151132 4.53711e-05 0)
(-0.0152534 4.20993e-05 0)
(-0.0153812 3.85199e-05 0)
(-0.0154957 3.46247e-05 0)
(-0.0155959 3.04068e-05 0)
(-0.0156806 2.58612e-05 0)
(-0.0157488 2.09846e-05 0)
(-0.0157995 1.57756e-05 0)
(-0.0158314 1.02354e-05 0)
(-0.0158437 4.36757e-06 0)
(-0.0158352 -1.82092e-06 0)
(-0.015805 -8.32089e-06 0)
(-0.015752 -1.51192e-05 0)
(-0.0156754 -2.21993e-05 0)
(-0.0155744 -2.95409e-05 0)
(-0.0154482 -3.71199e-05 0)
(-0.015296 -4.49078e-05 0)
(-0.0151175 -5.28723e-05 0)
(-0.014912 -6.09766e-05 0)
(-0.0146793 -6.91795e-05 0)
(-0.0144192 -7.74359e-05 0)
(-0.0141317 -8.56964e-05 0)
(-0.0138169 -9.39079e-05 0)
(-0.0134752 -0.000102013 0)
(-0.0131071 -0.000109953 0)
(-0.0127133 -0.000117662 0)
(-0.0122947 -0.000125077 0)
(-0.0118525 -0.00013213 0)
(-0.0113879 -0.000138752 0)
(-0.0109027 -0.000144874 0)
(-0.0103986 -0.000150428 0)
(-0.00987756 -0.000155347 0)
(-0.00934183 -0.000159566 0)
(-0.00879383 -0.000163022 0)
(-0.00823617 -0.000165657 0)
(-0.00767161 -0.000167418 0)
(-0.00710312 -0.000168257 0)
(-0.00653376 -0.000168133 0)
(-0.00596673 -0.000167011 0)
(-0.00540532 -0.000164864 0)
(-0.0048529 -0.000161674 0)
(-0.00431286 -0.000157429 0)
(-0.00378862 -0.000152128 0)
(-0.00328358 -0.000145776 0)
(-0.0028011 -0.000138388 0)
(-0.00234448 -0.000129985 0)
(-0.00191689 -0.000120597 0)
(-0.00152139 -0.000110258 0)
(-0.00116089 -9.90115e-05 0)
(-0.000838089 -8.69079e-05 0)
(-0.000555449 -7.40058e-05 0)
(-0.000315151 -6.03775e-05 0)
(-0.000119008 -4.61182e-05 0)
(3.16474e-05 -3.13663e-05 0)
(0.000136158 -1.63395e-05 0)
(0.000194871 -1.41663e-06 0)
(0.000209701 1.27056e-05 0)
(0.000184978 2.4745e-05 0)
(0.000129338 3.22305e-05 0)
(6.15168e-05 3.05605e-05 0)
(1.39066e-05 1.3928e-05 0)
(9.72033e-06 -1.84315e-05 0)
(4.17777e-05 -4.187e-05 0)
(8.8416e-05 -4.80397e-05 0)
(0.000130995 -4.11553e-05 0)
(0.000157009 -2.59677e-05 0)
(0.000159077 -5.85723e-06 0)
(0.000132591 1.68995e-05 0)
(7.49567e-05 4.0769e-05 0)
(-1.48636e-05 6.47346e-05 0)
(-0.000136813 8.81276e-05 0)
(-0.000290077 0.000110507 0)
(-0.000473313 0.0001316 0)
(-0.000684837 0.000151241 0)
(-0.000922751 0.00016934 0)
(-0.00118504 0.00018587 0)
(-0.00146964 0.000200845 0)
(-0.00177451 0.000214307 0)
(-0.00209766 0.000226321 0)
(-0.00243715 0.000236971 0)
(-0.00279118 0.000246344 0)
(-0.00315804 0.000254538 0)
(-0.00353617 0.000261651 0)
(-0.00392411 0.000267786 0)
(-0.00432056 0.000273044 0)
(-0.00472434 0.00027752 0)
(-0.00513439 0.000281307 0)
(-0.00554978 0.000284494 0)
(-0.00596971 0.000287167 0)
(-0.00639347 0.000289402 0)
(-0.00682048 0.000291273 0)
(-0.00725024 0.000292846 0)
(-0.00768234 0.000294183 0)
(-0.00811647 0.00029534 0)
(-0.00855239 0.000296368 0)
(-0.0089899 0.000297312 0)
(-0.00942891 0.000298213 0)
(-0.00986934 0.000299106 0)
(-0.0103112 0.000300024 0)
(-0.0107545 0.000300995 0)
(-0.0111994 0.000302043 0)
(-0.0116458 0.000303189 0)
(-0.0120941 0.000304451 0)
(-0.0125443 0.000305845 0)
(-0.0129966 0.000307384 0)
(-0.0134512 0.000309078 0)
(-0.0139084 0.000310936 0)
(-0.0143683 0.000312966 0)
(-0.0148312 0.000315173 0)
(-0.0152973 0.00031756 0)
(-0.0157669 0.00032013 0)
(-0.0162403 0.000322883 0)
(-0.0167177 0.00032582 0)
(-0.0171992 0.000328939 0)
(-0.0176853 0.000332237 0)
(-0.0181761 0.000335712 0)
(-0.0186719 0.000339358 0)
(-0.0191729 0.000343168 0)
(-0.0196793 0.000347137 0)
(-0.0201912 0.000351255 0)
(-0.0207091 0.000355513 0)
(-0.0212329 0.000359899 0)
(-0.0217628 0.000364402 0)
(-0.022299 0.000369006 0)
(-0.0228416 0.000373697 0)
(-0.0233907 0.000378457 0)
(-0.0239464 0.000383267 0)
(-0.0245087 0.000388107 0)
(-0.0250775 0.000392953 0)
(-0.0256529 0.000397781 0)
(-0.0262348 0.000402563 0)
(-0.0268231 0.00040727 0)
(-0.0274175 0.00041187 0)
(-0.028018 0.00041633 0)
(-0.0286242 0.000420612 0)
(-0.0292359 0.000424677 0)
(-0.0298526 0.000428484 0)
(-0.0304739 0.000431987 0)
(-0.0310993 0.000435139 0)
(-0.0317283 0.000437889 0)
(-0.0323601 0.000440183 0)
(-0.0329942 0.000441966 0)
(-0.0336295 0.000443179 0)
(-0.0342653 0.000443758 0)
(-0.0349006 0.00044364 0)
(-0.0355342 0.000442756 0)
(-0.0361651 0.000441036 0)
(-0.0367918 0.000438408 0)
(-0.0374131 0.000434797 0)
(-0.0380274 0.000430126 0)
(-0.0386332 0.000424317 0)
(-0.0392287 0.000417289 0)
(-0.0398122 0.000408963 0)
(-0.0403816 0.000399257 0)
(-0.040935 0.00038809 0)
(-0.0414702 0.000375383 0)
(-0.041985 0.000361057 0)
(-0.0424769 0.000345036 0)
(-0.0429436 0.000327246 0)
(-0.0433824 0.000307618 0)
(-0.0437908 0.000286089 0)
(-0.044166 0.0002626 0)
(-0.0445053 0.0002371 0)
(-0.0448057 0.000209547 0)
(-0.0450645 0.00017991 0)
(-0.0452787 0.000148166 0)
(-0.0454453 0.000114308 0)
(-0.0455615 7.83404e-05 0)
(-0.0456244 4.02854e-05 0)
(-0.0456312 1.80471e-07 0)
(-0.045579 -4.19173e-05 0)
(-0.0454652 -8.59319e-05 0)
(-0.0452874 -0.000131766 0)
(-0.045043 -0.000179299 0)
(-0.0447301 -0.000228387 0)
(-0.0443466 -0.000278863 0)
(-0.0438908 -0.000330535 0)
(-0.0433614 -0.000383182 0)
(-0.0427573 -0.000436562 0)
(-0.0420777 -0.000490404 0)
(-0.0413225 -0.000544413 0)
(-0.0404916 -0.00059827 0)
(-0.0395857 -0.000651632 0)
(-0.0386059 -0.000704137 0)
(-0.0375537 -0.000755401 0)
(-0.0364312 -0.000805028 0)
(-0.0352412 -0.000852604 0)
(-0.0339869 -0.000897708 0)
(-0.0326721 -0.000939915 0)
(-0.0313012 -0.000978797 0)
(-0.0298792 -0.00101393 0)
(-0.0284117 -0.0010449 0)
(-0.0269047 -0.00107131 0)
(-0.025365 -0.00109277 0)
(-0.0237996 -0.00110893 0)
(-0.0222161 -0.00111946 0)
(-0.0206226 -0.00112408 0)
(-0.0190275 -0.00112253 0)
(-0.0174394 -0.0011146 0)
(-0.0158672 -0.00110015 0)
(-0.0143201 -0.00107906 0)
(-0.0128072 -0.00105128 0)
(-0.0113377 -0.00101681 0)
(-0.00992093 -0.000975707 0)
(-0.00856578 -0.000928092 0)
(-0.0072811 -0.000874135 0)
(-0.00607538 -0.000814071 0)
(-0.00495671 -0.000748194 0)
(-0.00393265 -0.000676869 0)
(-0.00301016 -0.000600539 0)
(-0.00219541 -0.000519748 0)
(-0.0014936 -0.000435179 0)
(-0.00090874 -0.000347715 0)
(-0.000443233 -0.000258557 0)
(-9.7384e-05 -0.000169412 0)
(0.000131419 -8.28313e-05 0)
(0.000249903 -2.76548e-06 0)
(0.000270395 6.45308e-05 0)
(0.000213308 0.000109027 0)
(0.000114642 0.000114897 0)
(3.0375e-05 6.13958e-05 0)
(1.20866e-05 -4.43827e-05 0)
(4.82778e-05 -8.85761e-05 0)
(9.53019e-05 -9.49673e-05 0)
(0.000130388 -7.32623e-05 0)
(0.000138356 -3.23347e-05 0)
(0.000109759 2.09e-05 0)
(3.82623e-05 8.13108e-05 0)
(-7.99373e-05 0.000145207 0)
(-0.000246597 0.000209967 0)
(-0.000461932 0.000273751 0)
(-0.000725021 0.000335292 0)
(-0.00103413 0.000393742 0)
(-0.00138696 0.000448551 0)
(-0.00178083 0.000499399 0)
(-0.00221284 0.000546137 0)
(-0.00267996 0.000588737 0)
(-0.00317917 0.000627265 0)
(-0.00370747 0.000661858 0)
(-0.00426194 0.000692705 0)
(-0.00483982 0.000720026 0)
(-0.0054385 0.000744063 0)
(-0.00605553 0.000765076 0)
(-0.00668866 0.00078333 0)
(-0.00733584 0.00079909 0)
(-0.0079952 0.000812616 0)
(-0.00866506 0.000824163 0)
(-0.00934395 0.000833974 0)
(-0.0100305 0.000842282 0)
(-0.0107237 0.000849303 0)
(-0.0114225 0.000855241 0)
(-0.0121262 0.000860285 0)
(-0.0128339 0.000864609 0)
(-0.0135452 0.000868372 0)
(-0.0142597 0.000871718 0)
(-0.0149769 0.000874777 0)
(-0.0156969 0.000877669 0)
(-0.0164193 0.000880496 0)
(-0.0171441 0.000883353 0)
(-0.0178715 0.00088632 0)
(-0.0186013 0.000889471 0)
(-0.0193339 0.000892868 0)
(-0.0200693 0.000896566 0)
(-0.0208079 0.000900609 0)
(-0.0215498 0.000905038 0)
(-0.0222955 0.000909884 0)
(-0.0230451 0.000915175 0)
(-0.023799 0.000920932 0)
(-0.0245577 0.000927171 0)
(-0.0253214 0.000933905 0)
(-0.0260905 0.000941139 0)
(-0.0268654 0.000948878 0)
(-0.0276466 0.00095712 0)
(-0.0284343 0.000965863 0)
(-0.029229 0.000975098 0)
(-0.030031 0.000984815 0)
(-0.0308407 0.000994998 0)
(-0.0316584 0.00100563 0)
(-0.0324845 0.00101669 0)
(-0.0333192 0.00102814 0)
(-0.0341629 0.00103997 0)
(-0.0350157 0.00105214 0)
(-0.035878 0.00106461 0)
(-0.0367499 0.00107733 0)
(-0.0376315 0.00109027 0)
(-0.038523 0.00110336 0)
(-0.0394245 0.00111656 0)
(-0.0403359 0.00112979 0)
(-0.0412572 0.001143 0)
(-0.0421884 0.00115611 0)
(-0.0431293 0.00116903 0)
(-0.0440796 0.00118169 0)
(-0.045039 0.00119398 0)
(-0.0460073 0.00120582 0)
(-0.0469838 0.00121708 0)
(-0.0479681 0.00122766 0)
(-0.0489595 0.00123743 0)
(-0.0499572 0.00124627 0)
(-0.0509604 0.00125403 0)
(-0.0519682 0.00126057 0)
(-0.0529793 0.00126574 0)
(-0.0539927 0.00126938 0)
(-0.0550069 0.00127131 0)
(-0.0560205 0.00127136 0)
(-0.0570319 0.00126935 0)
(-0.0580392 0.00126508 0)
(-0.0590405 0.00125835 0)
(-0.0600338 0.00124897 0)
(-0.0610168 0.00123671 0)
(-0.061987 0.00122138 0)
(-0.062942 0.00120274 0)
(-0.0638789 0.00118058 0)
(-0.0647949 0.00115468 0)
(-0.0656869 0.00112481 0)
(-0.0665515 0.00109075 0)
(-0.0673854 0.00105229 0)
(-0.0681851 0.00100921 0)
(-0.0689467 0.000961314 0)
(-0.0696664 0.0009084 0)
(-0.0703403 0.000850289 0)
(-0.0709641 0.000786814 0)
(-0.0715336 0.000717827 0)
(-0.0720444 0.000643202 0)
(-0.0724922 0.000562838 0)
(-0.0728725 0.00047666 0)
(-0.0731808 0.00038463 0)
(-0.0734126 0.000286741 0)
(-0.0735634 0.000183029 0)
(-0.0736288 7.35744e-05 0)
(-0.0736046 -4.14976e-05 0)
(-0.0734864 -0.000162009 0)
(-0.0732704 -0.000287725 0)
(-0.0729527 -0.000418356 0)
(-0.0725298 -0.000553547 0)
(-0.0719986 -0.000692882 0)
(-0.0713561 -0.000835876 0)
(-0.0706 -0.000981978 0)
(-0.0697282 -0.00113057 0)
(-0.0687394 -0.00128095 0)
(-0.0676326 -0.00143237 0)
(-0.0664076 -0.00158401 0)
(-0.0650647 -0.00173496 0)
(-0.0636051 -0.00188429 0)
(-0.0620306 -0.00203098 0)
(-0.0603438 -0.00217398 0)
(-0.0585482 -0.0023122 0)
(-0.0566481 -0.00244449 0)
(-0.0546487 -0.00256971 0)
(-0.0525561 -0.00268669 0)
(-0.0503771 -0.00279427 0)
(-0.0481195 -0.00289128 0)
(-0.0457922 -0.00297661 0)
(-0.0434044 -0.00304916 0)
(-0.0409666 -0.0031079 0)
(-0.0384898 -0.00315186 0)
(-0.0359858 -0.00318017 0)
(-0.0334669 -0.00319204 0)
(-0.0309459 -0.00318679 0)
(-0.0284364 -0.00316389 0)
(-0.0259519 -0.0031229 0)
(-0.0235065 -0.00306355 0)
(-0.0211143 -0.00298571 0)
(-0.0187894 -0.00288942 0)
(-0.0165458 -0.00277487 0)
(-0.0143973 -0.00264241 0)
(-0.0123574 -0.00249257 0)
(-0.0104389 -0.00232608 0)
(-0.00865394 -0.00214384 0)
(-0.00701396 -0.00194698 0)
(-0.00552918 -0.0017369 0)
(-0.00420857 -0.00151531 0)
(-0.00305945 -0.00128436 0)
(-0.00208714 -0.00104681 0)
(-0.0012944 -0.000806292 0)
(-0.000680699 -0.00056774 0)
(-0.00024123 -0.000338087 0)
(3.44842e-05 -0.000127264 0)
(0.000164077 5.02881e-05 0)
(0.00017448 0.000173721 0)
(0.000108877 0.000213457 0)
(3.19184e-05 0.000128804 0)
(1.13158e-05 -7.09904e-05 0)
(4.18068e-05 -0.000131473 0)
(7.41039e-05 -0.000130164 0)
(8.42971e-05 -8.35934e-05 0)
(5.62677e-05 -5.17076e-06 0)
(-2.03946e-05 9.43676e-05 0)
(-0.00015283 0.000206752 0)
(-0.000345477 0.000325772 0)
(-0.000600507 0.000446841 0)
(-0.000918301 0.000566624 0)
(-0.00129788 0.000682741 0)
(-0.00173723 0.000793533 0)
(-0.00223364 0.000897892 0)
(-0.00278383 0.000995133 0)
(-0.00338424 0.00108489 0)
(-0.00403112 0.00116704 0)
(-0.00472062 0.00124164 0)
(-0.00544895 0.0013089 0)
(-0.0062124 0.00136911 0)
(-0.00700738 0.00142267 0)
(-0.00783052 0.00147 0)
(-0.00867864 0.00151156 0)
(-0.00954877 0.00154783 0)
(-0.0104382 0.00157931 0)
(-0.0113445 0.00160646 0)
(-0.0122654 0.00162977 0)
(-0.0131989 0.0016497 0)
(-0.0141432 0.00166667 0)
(-0.0150969 0.00168111 0)
(-0.0160586 0.00169339 0)
(-0.0170271 0.00170389 0)
(-0.0180016 0.00171293 0)
(-0.0189813 0.00172081 0)
(-0.0199655 0.00172783 0)
(-0.0209538 0.00173423 0)
(-0.0219458 0.00174024 0)
(-0.0229415 0.00174607 0)
(-0.0239405 0.0017519 0)
(-0.024943 0.00175789 0)
(-0.0259491 0.00176419 0)
(-0.0269588 0.00177091 0)
(-0.0279724 0.00177816 0)
(-0.0289901 0.00178605 0)
(-0.0300124 0.00179464 0)
(-0.0310395 0.001804 0)
(-0.0320719 0.00181418 0)
(-0.03311 0.00182524 0)
(-0.0341543 0.00183719 0)
(-0.0352051 0.00185007 0)
(-0.0362631 0.00186389 0)
(-0.0373286 0.00187866 0)
(-0.0384023 0.00189437 0)
(-0.0394844 0.00191102 0)
(-0.0405757 0.00192859 0)
(-0.0416764 0.00194707 0)
(-0.0427871 0.00196641 0)
(-0.0439081 0.00198659 0)
(-0.04504 0.00200755 0)
(-0.0461831 0.00202925 0)
(-0.0473376 0.00205163 0)
(-0.048504 0.00207462 0)
(-0.0496825 0.00209814 0)
(-0.0508734 0.00212211 0)
(-0.0520767 0.00214643 0)
(-0.0532926 0.002171 0)
(-0.0545212 0.00219571 0)
(-0.0557623 0.00222043 0)
(-0.0570161 0.00224503 0)
(-0.0582821 0.00226935 0)
(-0.0595603 0.00229325 0)
(-0.0608501 0.00231654 0)
(-0.0621513 0.00233905 0)
(-0.0634631 0.00236058 0)
(-0.0647849 0.0023809 0)
(-0.0661159 0.00239981 0)
(-0.0674552 0.00241706 0)
(-0.0688017 0.0024324 0)
(-0.0701541 0.00244555 0)
(-0.0715112 0.00245623 0)
(-0.0728713 0.00246415 0)
(-0.0742327 0.00246899 0)
(-0.0755937 0.00247042 0)
(-0.076952 0.0024681 0)
(-0.0783056 0.00246168 0)
(-0.0796518 0.00245079 0)
(-0.0809881 0.00243505 0)
(-0.0823117 0.00241407 0)
(-0.0836194 0.00238744 0)
(-0.084908 0.00235476 0)
(-0.0861741 0.00231563 0)
(-0.0874138 0.00226961 0)
(-0.0886232 0.00221629 0)
(-0.0897983 0.00215526 0)
(-0.0909346 0.0020861 0)
(-0.0920277 0.00200841 0)
(-0.0930727 0.00192179 0)
(-0.0940646 0.00182588 0)
(-0.0949984 0.00172031 0)
(-0.0958688 0.00160476 0)
(-0.0966702 0.00147892 0)
(-0.0973971 0.00134255 0)
(-0.0980439 0.0011954 0)
(-0.0986047 0.00103733 0)
(-0.0990737 0.000868211 0)
(-0.0994452 0.000687994 0)
(-0.0997132 0.000496699 0)
(-0.0998719 0.000294421 0)
(-0.0999158 8.13384e-05 0)
(-0.0998394 -0.000142279 0)
(-0.0996372 -0.000376064 0)
(-0.0993041 -0.000619546 0)
(-0.0988355 -0.000872142 0)
(-0.0982269 -0.00113316 0)
(-0.0974743 -0.00140177 0)
(-0.0965742 -0.00167705 0)
(-0.0955237 -0.00195791 0)
(-0.0943203 -0.00224318 0)
(-0.0929625 -0.00253151 0)
(-0.0914493 -0.00282147 0)
(-0.0897805 -0.00311148 0)
(-0.087957 -0.00339985 0)
(-0.0859804 -0.00368477 0)
(-0.0838532 -0.00396435 0)
(-0.0815792 -0.00423659 0)
(-0.0791631 -0.00449944 0)
(-0.0766106 -0.00475075 0)
(-0.0739287 -0.00498838 0)
(-0.0711254 -0.00521012 0)
(-0.0682098 -0.00541381 0)
(-0.0651922 -0.00559727 0)
(-0.062084 -0.0057584 0)
(-0.0588976 -0.00589518 0)
(-0.0556465 -0.00600566 0)
(-0.0523451 -0.00608807 0)
(-0.0490085 -0.00614075 0)
(-0.045653 -0.00616226 0)
(-0.0422953 -0.00615134 0)
(-0.0389526 -0.00610698 0)
(-0.0356429 -0.0060284 0)
(-0.0323841 -0.00591511 0)
(-0.0291945 -0.00576691 0)
(-0.0260924 -0.00558387 0)
(-0.023096 -0.0053664 0)
(-0.0202228 -0.00511524 0)
(-0.0174903 -0.00483146 0)
(-0.0149149 -0.00451651 0)
(-0.0125122 -0.00417222 0)
(-0.0102965 -0.0038009 0)
(-0.00828066 -0.00340537 0)
(-0.00647591 -0.00298909 0)
(-0.00489108 -0.00255639 0)
(-0.00353242 -0.00211272 0)
(-0.00240284 -0.00166511 0)
(-0.00150116 -0.00122282 0)
(-0.000821097 -0.000798283 0)
(-0.000349983 -0.000408509 0)
(-6.74224e-05 -7.69521e-05 0)
(5.64661e-05 0.000164302 0)
(6.6163e-05 0.00027184 0)
(2.45946e-05 0.000184306 0)
(8.77132e-06 -9.15853e-05 0)
(2.68114e-05 -0.000157907 0)
(3.29816e-05 -0.000138091 0)
(4.88191e-06 -5.54178e-05 0)
(-7.32251e-05 7.2074e-05 0)
(-0.000211898 0.000229879 0)
(-0.000418439 0.000406567 0)
(-0.000697423 0.000593332 0)
(-0.0010511 0.000783501 0)
(-0.00147983 0.000972088 0)
(-0.00198252 0.00115544 0)
(-0.00255693 0.00133093 0)
(-0.00319994 0.00149679 0)
(-0.00390786 0.00165184 0)
(-0.00467658 0.00179542 0)
(-0.00550176 0.00192726 0)
(-0.00637891 0.00204739 0)
(-0.00730359 0.00215604 0)
(-0.0082714 0.00225365 0)
(-0.00927811 0.00234076 0)
(-0.0103197 0.00241801 0)
(-0.0113923 0.00248609 0)
(-0.0124924 0.00254573 0)
(-0.0136167 0.00259768 0)
(-0.0147622 0.00264269 0)
(-0.0159261 0.0026815 0)
(-0.0171061 0.00271482 0)
(-0.0183 0.00274334 0)
(-0.0195058 0.0027677 0)
(-0.0207219 0.00278853 0)
(-0.0219469 0.00280639 0)
(-0.0231795 0.00282182 0)
(-0.0244189 0.00283532 0)
(-0.0256642 0.00284732 0)
(-0.0269148 0.00285825 0)
(-0.0281703 0.00286847 0)
(-0.0294303 0.0028783 0)
(-0.0306947 0.00288806 0)
(-0.0319634 0.002898 0)
(-0.0332366 0.00290836 0)
(-0.0345142 0.00291934 0)
(-0.0357967 0.00293112 0)
(-0.0370842 0.00294384 0)
(-0.0383772 0.00295765 0)
(-0.0396761 0.00297265 0)
(-0.0409812 0.00298892 0)
(-0.0422932 0.00300654 0)
(-0.0436126 0.00302557 0)
(-0.0449398 0.00304605 0)
(-0.0462755 0.00306799 0)
(-0.0476203 0.00309142 0)
(-0.0489746 0.00311633 0)
(-0.0503392 0.0031427 0)
(-0.0517144 0.00317051 0)
(-0.053101 0.00319973 0)
(-0.0544993 0.0032303 0)
(-0.0559099 0.00326216 0)
(-0.0573334 0.00329524 0)
(-0.05877 0.00332944 0)
(-0.0602202 0.00336467 0)
(-0.0616843 0.00340082 0)
(-0.0631627 0.00343776 0)
(-0.0646554 0.00347534 0)
(-0.0661628 0.00351342 0)
(-0.0676849 0.0035518 0)
(-0.0692217 0.00359032 0)
(-0.0707731 0.00362876 0)
(-0.0723389 0.0036669 0)
(-0.0739188 0.00370448 0)
(-0.0755126 0.00374127 0)
(-0.0771195 0.00377696 0)
(-0.0787391 0.00381125 0)
(-0.0803705 0.00384384 0)
(-0.0820128 0.00387435 0)
(-0.083665 0.00390244 0)
(-0.0853258 0.00392771 0)
(-0.0869938 0.00394974 0)
(-0.0886674 0.0039681 0)
(-0.0903449 0.00398232 0)
(-0.0920243 0.00399194 0)
(-0.0937034 0.00399643 0)
(-0.0953799 0.00399528 0)
(-0.097051 0.00398793 0)
(-0.098714 0.00397381 0)
(-0.100366 0.00395234 0)
(-0.102003 0.00392291 0)
(-0.103622 0.0038849 0)
(-0.10522 0.00383767 0)
(-0.106791 0.00378058 0)
(-0.108332 0.00371297 0)
(-0.109838 0.0036342 0)
(-0.111304 0.00354359 0)
(-0.112726 0.00344051 0)
(-0.114097 0.0033243 0)
(-0.115412 0.00319435 0)
(-0.116666 0.00305004 0)
(-0.117852 0.0028908 0)
(-0.118964 0.00271609 0)
(-0.119996 0.0025254 0)
(-0.120941 0.00231831 0)
(-0.121793 0.00209441 0)
(-0.122543 0.00185339 0)
(-0.123187 0.00159502 0)
(-0.123716 0.00131915 0)
(-0.124123 0.00102575 0)
(-0.124403 0.00071487 0)
(-0.124547 0.000386709 0)
(-0.12455 4.15887e-05 0)
(-0.124404 -0.000320023 0)
(-0.124103 -0.000697505 0)
(-0.123643 -0.00109007 0)
(-0.123016 -0.00149677 0)
(-0.122218 -0.00191645 0)
(-0.121244 -0.00234779 0)
(-0.12009 -0.00278928 0)
(-0.118754 -0.00323919 0)
(-0.117232 -0.00369561 0)
(-0.115522 -0.00415643 0)
(-0.113625 -0.00461935 0)
(-0.111539 -0.00508186 0)
(-0.109267 -0.00554129 0)
(-0.106809 -0.0059948 0)
(-0.104171 -0.00643939 0)
(-0.101355 -0.00687192 0)
(-0.0983686 -0.00728915 0)
(-0.0952183 -0.00768775 0)
(-0.0919126 -0.00806432 0)
(-0.0884613 -0.00841544 0)
(-0.0848754 -0.00873768 0)
(-0.0811673 -0.00902769 0)
(-0.0773508 -0.00928216 0)
(-0.0734407 -0.00949793 0)
(-0.0694531 -0.00967199 0)
(-0.0654054 -0.00980154 0)
(-0.0613157 -0.00988402 0)
(-0.0572033 -0.00991718 0)
(-0.0530882 -0.00989907 0)
(-0.048991 -0.00982811 0)
(-0.044933 -0.00970313 0)
(-0.0409357 -0.00952336 0)
(-0.0370209 -0.00928852 0)
(-0.0332103 -0.00899878 0)
(-0.0295255 -0.00865484 0)
(-0.0259874 -0.00825792 0)
(-0.0226167 -0.00780981 0)
(-0.0194326 -0.00731292 0)
(-0.0164537 -0.00677029 0)
(-0.0136968 -0.00618572 0)
(-0.0111769 -0.00556387 0)
(-0.00890682 -0.00491045 0)
(-0.00689681 -0.0042325 0)
(-0.00515388 -0.00353876 0)
(-0.00368123 -0.00284028 0)
(-0.0024775 -0.00215121 0)
(-0.00153582 -0.00148998 0)
(-0.0008428 -0.000880851 0)
(-0.000377333 -0.00035607 0)
(-0.00010916 4.18103e-05 0)
(3.19796e-06 0.000256854 0)
(1.31943e-05 0.000210297 0)
(5.26187e-06 -0.000102648 0)
(6.40173e-06 -0.000159988 0)
(-2.18398e-05 -0.000108397 0)
(-9.84181e-05 2.29269e-05 0)
(-0.00023758 0.000211617 0)
(-0.000449427 0.000439566 0)
(-0.000740897 0.000692296 0)
(-0.00111627 0.000958466 0)
(-0.00157756 0.0012293 0)
(-0.00212492 0.00149811 0)
(-0.00275702 0.0017599 0)
(-0.00347131 0.00201102 0)
(-0.00426434 0.00224891 0)
(-0.005132 0.00247186 0)
(-0.00606974 0.00267886 0)
(-0.0070727 0.00286943 0)
(-0.00813588 0.00304354 0)
(-0.00925429 0.00320145 0)
(-0.010423 0.0033437 0)
(-0.0116371 0.00347101 0)
(-0.0128921 0.00358423 0)
(-0.0141836 0.00368432 0)
(-0.0155076 0.00377228 0)
(-0.0168602 0.00384914 0)
(-0.018238 0.00391596 0)
(-0.0196378 0.00397377 0)
(-0.0210568 0.00402358 0)
(-0.0224925 0.00406636 0)
(-0.0239425 0.00410305 0)
(-0.025405 0.00413451 0)
(-0.0268782 0.00416158 0)
(-0.0283607 0.00418501 0)
(-0.0298514 0.00420553 0)
(-0.0313492 0.00422377 0)
(-0.0328535 0.00424034 0)
(-0.0343636 0.00425576 0)
(-0.0358792 0.00427053 0)
(-0.0374 0.00428508 0)
(-0.0389259 0.0042998 0)
(-0.0404569 0.00431503 0)
(-0.0419931 0.00433107 0)
(-0.0435349 0.00434818 0)
(-0.0450825 0.00436659 0)
(-0.0466362 0.00438649 0)
(-0.0481966 0.00440805 0)
(-0.0497642 0.00443139 0)
(-0.0513395 0.00445662 0)
(-0.0529231 0.00448383 0)
(-0.0545156 0.00451307 0)
(-0.0561176 0.00454439 0)
(-0.0577297 0.00457779 0)
(-0.0593526 0.00461328 0)
(-0.060987 0.00465084 0)
(-0.0626334 0.00469043 0)
(-0.0642924 0.00473198 0)
(-0.0659647 0.00477543 0)
(-0.0676507 0.00482068 0)
(-0.069351 0.00486761 0)
(-0.071066 0.00491611 0)
(-0.0727962 0.00496601 0)
(-0.0745419 0.00501714 0)
(-0.0763034 0.00506932 0)
(-0.0780808 0.00512234 0)
(-0.0798744 0.00517595 0)
(-0.0816842 0.0052299 0)
(-0.0835101 0.0052839 0)
(-0.0853519 0.00533766 0)
(-0.0872094 0.00539084 0)
(-0.0890822 0.00544307 0)
(-0.0909697 0.00549397 0)
(-0.0928713 0.00554312 0)
(-0.0947861 0.00559008 0)
(-0.0967132 0.00563436 0)
(-0.0986515 0.00567546 0)
(-0.100599 0.00571284 0)
(-0.102556 0.00574592 0)
(-0.104518 0.0057741 0)
(-0.106486 0.00579675 0)
(-0.108455 0.00581319 0)
(-0.110425 0.00582271 0)
(-0.112392 0.0058246 0)
(-0.114354 0.00581808 0)
(-0.116307 0.00580235 0)
(-0.118248 0.0057766 0)
(-0.120173 0.00573998 0)
(-0.122079 0.00569162 0)
(-0.123961 0.00563063 0)
(-0.125814 0.0055561 0)
(-0.127634 0.00546711 0)
(-0.129416 0.00536273 0)
(-0.131154 0.00524204 0)
(-0.132843 0.0051041 0)
(-0.134477 0.00494799 0)
(-0.136049 0.00477282 0)
(-0.137553 0.0045777 0)
(-0.138982 0.00436181 0)
(-0.140329 0.00412433 0)
(-0.141587 0.00386452 0)
(-0.142749 0.00358171 0)
(-0.143807 0.0032753 0)
(-0.144753 0.00294477 0)
(-0.14558 0.00258972 0)
(-0.146279 0.00220985 0)
(-0.146844 0.00180501 0)
(-0.147265 0.00137517 0)
(-0.147535 0.000920499 0)
(-0.147646 0.000441307 0)
(-0.147591 -6.18911e-05 0)
(-0.147363 -0.000588375 0)
(-0.146954 -0.00113721 0)
(-0.146358 -0.00170722 0)
(-0.145569 -0.00229699 0)
(-0.144581 -0.00290486 0)
(-0.14339 -0.00352889 0)
(-0.14199 -0.00416688 0)
(-0.140379 -0.00481634 0)
(-0.138553 -0.00547453 0)
(-0.136511 -0.0061384 0)
(-0.134253 -0.00680465 0)
(-0.131778 -0.00746973 0)
(-0.129088 -0.00812981 0)
(-0.126186 -0.00878085 0)
(-0.123076 -0.00941858 0)
(-0.119763 -0.0100386 0)
(-0.116254 -0.0106362 0)
(-0.112558 -0.0112068 0)
(-0.108684 -0.0117454 0)
(-0.104643 -0.0122474 0)
(-0.100449 -0.0127079 0)
(-0.0961145 -0.013122 0)
(-0.0916561 -0.0134852 0)
(-0.0870906 -0.013793 0)
(-0.0824364 -0.0140412 0)
(-0.0777132 -0.0142257 0)
(-0.0729417 -0.0143431 0)
(-0.0681438 -0.01439 0)
(-0.0633421 -0.0143639 0)
(-0.0585602 -0.0142624 0)
(-0.0538222 -0.0140839 0)
(-0.0491524 -0.0138274 0)
(-0.0445757 -0.0134925 0)
(-0.0401167 -0.0130796 0)
(-0.0357997 -0.0125895 0)
(-0.0316486 -0.0120243 0)
(-0.0276866 -0.0113865 0)
(-0.0239358 -0.0106796 0)
(-0.0204168 -0.00990827 0)
(-0.0171485 -0.00907796 0)
(-0.014148 -0.00819553 0)
(-0.0114294 -0.00726932 0)
(-0.00900439 -0.00630945 0)
(-0.0068807 -0.00532838 0)
(-0.00506217 -0.00434153 0)
(-0.00354781 -0.00336821 0)
(-0.00233108 -0.00243289 0)
(-0.00139915 -0.00156688 0)
(-0.000731813 -0.000810522 0)
(-0.000300427 -0.000215555 0)
(-6.95005e-05 0.00015166 0)
(2.9005e-07 0.000199662 0)
(1.24581e-06 -0.000102073 0)
(-1.73853e-05 -0.000132222 0)
(-8.58895e-05 -3.33834e-05 0)
(-0.000218497 0.000160467 0)
(-0.000427171 0.000423131 0)
(-0.000721036 0.000733213 0)
(-0.00110623 0.00107342 0)
(-0.00158637 0.00143 0)
(-0.00216298 0.00179216 0)
(-0.00283578 0.00215154 0)
(-0.00360304 0.00250179 0)
(-0.00446184 0.00283821 0)
(-0.00540835 0.00315743 0)
(-0.00643807 0.00345717 0)
(-0.007546 0.00373603 0)
(-0.00872684 0.00399331 0)
(-0.00997515 0.00422887 0)
(-0.0112854 0.00444299 0)
(-0.0126523 0.00463633 0)
(-0.0140704 0.00480976 0)
(-0.0155346 0.00496438 0)
(-0.0170403 0.00510141 0)
(-0.0185828 0.00522214 0)
(-0.0201579 0.00532792 0)
(-0.0217617 0.00542013 0)
(-0.0233908 0.00550013 0)
(-0.0250418 0.00556926 0)
(-0.026712 0.0056288 0)
(-0.0283988 0.00567999 0)
(-0.0300999 0.005724 0)
(-0.0318134 0.00576194 0)
(-0.0335377 0.00579484 0)
(-0.0352714 0.00582365 0)
(-0.0370133 0.00584924 0)
(-0.0387626 0.00587243 0)
(-0.0405187 0.00589394 0)
(-0.0422808 0.00591443 0)
(-0.0440489 0.0059345 0)
(-0.0458227 0.00595467 0)
(-0.0476021 0.00597542 0)
(-0.0493874 0.00599715 0)
(-0.0511786 0.00602023 0)
(-0.0529762 0.00604496 0)
(-0.0547805 0.00607162 0)
(-0.0565921 0.00610043 0)
(-0.0584114 0.00613157 0)
(-0.0602389 0.00616518 0)
(-0.0620755 0.00620139 0)
(-0.0639216 0.00624028 0)
(-0.065778 0.0062819 0)
(-0.0676453 0.00632626 0)
(-0.0695243 0.00637338 0)
(-0.0714155 0.00642321 0)
(-0.0733197 0.00647571 0)
(-0.0752375 0.00653079 0)
(-0.0771696 0.00658834 0)
(-0.0791164 0.00664824 0)
(-0.0810785 0.00671032 0)
(-0.0830565 0.00677441 0)
(-0.0850506 0.00684028 0)
(-0.0870613 0.00690771 0)
(-0.0890889 0.00697642 0)
(-0.0911334 0.00704613 0)
(-0.093195 0.00711649 0)
(-0.0952737 0.00718716 0)
(-0.0973693 0.00725773 0)
(-0.0994817 0.0073278 0)
(-0.10161 0.00739688 0)
(-0.103755 0.00746449 0)
(-0.105914 0.00753009 0)
(-0.108088 0.0075931 0)
(-0.110275 0.00765291 0)
(-0.112474 0.00770886 0)
(-0.114684 0.00776025 0)
(-0.116903 0.00780635 0)
(-0.119128 0.00784637 0)
(-0.12136 0.00787949 0)
(-0.123594 0.00790483 0)
(-0.125828 0.0079215 0)
(-0.12806 0.00792852 0)
(-0.130286 0.00792492 0)
(-0.132504 0.00790966 0)
(-0.134709 0.00788166 0)
(-0.136897 0.00783983 0)
(-0.139065 0.00778301 0)
(-0.141208 0.00771006 0)
(-0.143321 0.00761977 0)
(-0.145399 0.00751093 0)
(-0.147436 0.00738233 0)
(-0.149427 0.00723272 0)
(-0.151365 0.00706088 0)
(-0.153244 0.00686558 0)
(-0.155058 0.00664562 0)
(-0.156799 0.0063998 0)
(-0.15846 0.006127 0)
(-0.160034 0.00582612 0)
(-0.161512 0.00549612 0)
(-0.162888 0.00513605 0)
(-0.164151 0.00474505 0)
(-0.165295 0.00432236 0)
(-0.166311 0.00386735 0)
(-0.167189 0.00337952 0)
(-0.167922 0.00285856 0)
(-0.1685 0.00230429 0)
(-0.168915 0.00171677 0)
(-0.169159 0.00109625 0)
(-0.169223 0.000443221 0)
(-0.169099 -0.000241565 0)
(-0.168779 -0.00095709 0)
(-0.168255 -0.00170204 0)
(-0.167521 -0.0024748 0)
(-0.166569 -0.00327343 0)
(-0.165395 -0.00409564 0)
(-0.163992 -0.00493883 0)
(-0.162355 -0.0058 0)
(-0.160483 -0.00667582 0)
(-0.158371 -0.00756259 0)
(-0.156018 -0.00845625 0)
(-0.153423 -0.00935237 0)
(-0.150587 -0.0102462 0)
(-0.147512 -0.0111327 0)
(-0.144201 -0.0120064 0)
(-0.140659 -0.0128618 0)
(-0.136892 -0.0136928 0)
(-0.132908 -0.0144935 0)
(-0.128715 -0.0152575 0)
(-0.124324 -0.0159785 0)
(-0.119749 -0.0166501 0)
(-0.115003 -0.0172659 0)
(-0.110102 -0.0178197 0)
(-0.105063 -0.0183053 0)
(-0.0999045 -0.0187169 0)
(-0.0946472 -0.0190487 0)
(-0.0893125 -0.0192955 0)
(-0.0839234 -0.0194528 0)
(-0.0785038 -0.0195161 0)
(-0.0730787 -0.0194819 0)
(-0.0676741 -0.0193474 0)