/*--------------------------------*- C++ -*----------------------------------*\
  =========                 |
  \\      /  F ield         | OpenFOAM: The Open Source CFD Toolbox
   \\    /   O peration     | Website:  https://openfoam.org
    \\  /    A nd           | Version:  7
     \\/     M anipulation  |
\*---------------------------------------------------------------------------*/
FoamFile
{
    version     2.0;
    format      ascii;
    class       volScalarField;
    location    "0.1875";
    object      p;
}
// * * * * * * * * * * * * * * * * * * * * * * * * * * * * * * * * * * * * * //

dimensions      [0 2 -2 0 0 0 0];

internalField   nonuniform List<scalar> 
51200
(
-2.98531e-08
-4.74857e-08
-4.0283e-07
-1.35824e-06
-2.54291e-06
-3.70584e-06
-4.84509e-06
-5.9822e-06
-7.13428e-06
-8.3187e-06
-9.5343e-06
-1.07809e-05
-1.20737e-05
-1.34188e-05
-1.48075e-05
-1.62253e-05
-1.76579e-05
-1.91018e-05
-2.0563e-05
-2.20386e-05
-2.35208e-05
-2.50027e-05
-2.64731e-05
-2.79343e-05
-2.93845e-05
-3.08183e-05
-3.22374e-05
-3.36359e-05
-3.50067e-05
-3.6352e-05
-3.7666e-05
-3.89422e-05
-4.01839e-05
-4.13893e-05
-4.25579e-05
-4.36969e-05
-4.4805e-05
-4.58732e-05
-4.68987e-05
-4.78806e-05
-4.88172e-05
-4.97134e-05
-5.05749e-05
-5.13991e-05
-5.21821e-05
-5.29229e-05
-5.36178e-05
-5.42616e-05
-5.48546e-05
-5.54014e-05
-5.59046e-05
-5.63669e-05
-5.67936e-05
-5.71854e-05
-5.75354e-05
-5.78387e-05
-5.80988e-05
-5.83204e-05
-5.85026e-05
-5.86439e-05
-5.87453e-05
-5.8807e-05
-5.8831e-05
-5.8827e-05
-5.88036e-05
-5.87576e-05
-5.86816e-05
-5.85752e-05
-5.84429e-05
-5.82886e-05
-5.81153e-05
-5.79275e-05
-5.77303e-05
-5.75274e-05
-5.73205e-05
-5.71091e-05
-5.68909e-05
-5.66611e-05
-5.6416e-05
-5.6161e-05
-5.59093e-05
-5.56689e-05
-5.5438e-05
-5.52119e-05
-5.49878e-05
-5.47655e-05
-5.45467e-05
-5.43348e-05
-5.41352e-05
-5.3953e-05
-5.37899e-05
-5.36459e-05
-5.3524e-05
-5.34285e-05
-5.33596e-05
-5.33154e-05
-5.32964e-05
-5.33056e-05
-5.33455e-05
-5.34147e-05
-5.35109e-05
-5.36354e-05
-5.3793e-05
-5.39873e-05
-5.42175e-05
-5.44814e-05
-5.47803e-05
-5.51169e-05
-5.54908e-05
-5.58998e-05
-5.63452e-05
-5.68327e-05
-5.73675e-05
-5.79489e-05
-5.8573e-05
-5.92394e-05
-5.9951e-05
-6.07103e-05
-6.15134e-05
-6.2353e-05
-6.32252e-05
-6.41312e-05
-6.50731e-05
-6.60507e-05
-6.70617e-05
-6.81051e-05
-6.91831e-05
-7.02972e-05
-7.14457e-05
-7.26243e-05
-7.38298e-05
-7.50604e-05
-7.6314e-05
-7.75858e-05
-7.88708e-05
-8.01673e-05
-8.14737e-05
-8.27867e-05
-8.40994e-05
-8.54036e-05
-8.66916e-05
-8.79572e-05
-8.91931e-05
-9.03912e-05
-9.15442e-05
-9.26464e-05
-9.3692e-05
-9.46743e-05
-9.55856e-05
-9.64181e-05
-9.71632e-05
-9.78103e-05
-9.83486e-05
-9.87683e-05
-9.90634e-05
-9.92316e-05
-9.92763e-05
-9.92118e-05
-9.90711e-05
-9.89248e-05
-3.104e-07
-8.54836e-07
-1.4817e-06
-2.40746e-06
-3.41998e-06
-4.3989e-06
-5.37837e-06
-6.37853e-06
-7.41417e-06
-8.49743e-06
-9.62879e-06
-1.08023e-05
-1.20226e-05
-1.32875e-05
-1.45983e-05
-1.59395e-05
-1.72985e-05
-1.86721e-05
-2.00576e-05
-2.14599e-05
-2.28761e-05
-2.42913e-05
-2.57031e-05
-2.71054e-05
-2.84949e-05
-2.98767e-05
-3.12448e-05
-3.25922e-05
-3.39198e-05
-3.52216e-05
-3.64945e-05
-3.77412e-05
-3.89563e-05
-4.01357e-05
-4.12841e-05
-4.24012e-05
-4.34854e-05
-4.45381e-05
-4.55549e-05
-4.65295e-05
-4.74625e-05
-4.83564e-05
-4.92113e-05
-5.00295e-05
-5.08131e-05
-5.15592e-05
-5.22648e-05
-5.2928e-05
-5.35463e-05
-5.41201e-05
-5.46501e-05
-5.5138e-05
-5.55891e-05
-5.60062e-05
-5.63852e-05
-5.67214e-05
-5.70145e-05
-5.72657e-05
-5.74774e-05
-5.76554e-05
-5.78025e-05
-5.79151e-05
-5.79909e-05
-5.80355e-05
-5.8054e-05
-5.80459e-05
-5.80107e-05
-5.79514e-05
-5.78696e-05
-5.7767e-05
-5.76479e-05
-5.7517e-05
-5.73753e-05
-5.72226e-05
-5.70614e-05
-5.68956e-05
-5.67261e-05
-5.65502e-05
-5.63649e-05
-5.61715e-05
-5.59764e-05
-5.57852e-05
-5.56005e-05
-5.54239e-05
-5.52548e-05
-5.50897e-05
-5.49262e-05
-5.47667e-05
-5.4617e-05
-5.44821e-05
-5.43641e-05
-5.42648e-05
-5.41888e-05
-5.41405e-05
-5.41185e-05
-5.41192e-05
-5.41428e-05
-5.4193e-05
-5.42724e-05
-5.43797e-05
-5.45136e-05
-5.46764e-05
-5.48719e-05
-5.51008e-05
-5.53612e-05
-5.56526e-05
-5.59778e-05
-5.63394e-05
-5.67359e-05
-5.71644e-05
-5.76265e-05
-5.81283e-05
-5.86748e-05
-5.92657e-05
-5.98988e-05
-6.05732e-05
-6.12895e-05
-6.20475e-05
-6.28445e-05
-6.36766e-05
-6.45421e-05
-6.54403e-05
-6.63687e-05
-6.73255e-05
-6.83115e-05
-6.93291e-05
-7.03804e-05
-7.14649e-05
-7.25786e-05
-7.37181e-05
-7.48819e-05
-7.60689e-05
-7.7276e-05
-7.84979e-05
-7.97302e-05
-8.09711e-05
-8.22191e-05
-8.34705e-05
-8.47182e-05
-8.59542e-05
-8.7173e-05
-8.83701e-05
-8.95389e-05
-9.06695e-05
-9.1753e-05
-9.27845e-05
-9.3761e-05
-9.46776e-05
-9.55265e-05
-9.62998e-05
-9.69907e-05
-9.75926e-05
-9.8098e-05
-9.84978e-05
-9.87853e-05
-9.89613e-05
-9.90345e-05
-9.9019e-05
-9.8927e-05
-9.87865e-05
-9.31127e-07
-1.62549e-06
-2.3493e-06
-3.1906e-06
-4.05784e-06
-4.90261e-06
-5.7684e-06
-6.66645e-06
-7.60804e-06
-8.60397e-06
-9.65755e-06
-1.07703e-05
-1.19299e-05
-1.31343e-05
-1.43784e-05
-1.56524e-05
-1.69527e-05
-1.82672e-05
-1.95957e-05
-2.09424e-05
-2.2299e-05
-2.36621e-05
-2.50237e-05
-2.63749e-05
-2.77213e-05
-2.90607e-05
-3.03866e-05
-3.16995e-05
-3.29913e-05
-3.42563e-05
-3.54996e-05
-3.67176e-05
-3.7906e-05
-3.90673e-05
-4.01989e-05
-4.12971e-05
-4.23657e-05
-4.34045e-05
-4.44087e-05
-4.53774e-05
-4.63091e-05
-4.72013e-05
-4.80563e-05
-4.88768e-05
-4.96619e-05
-5.04116e-05
-5.11249e-05
-5.17989e-05
-5.24326e-05
-5.30267e-05
-5.35791e-05
-5.40904e-05
-5.45651e-05
-5.50048e-05
-5.54078e-05
-5.57729e-05
-5.60969e-05
-5.6376e-05
-5.66137e-05
-5.68197e-05
-5.69988e-05
-5.71492e-05
-5.72693e-05
-5.73588e-05
-5.74172e-05
-5.74448e-05
-5.74462e-05
-5.74261e-05
-5.73849e-05
-5.73233e-05
-5.72474e-05
-5.71629e-05
-5.70688e-05
-5.69627e-05
-5.68457e-05
-5.67211e-05
-5.65903e-05
-5.64537e-05
-5.63139e-05
-5.61725e-05
-5.603e-05
-5.58866e-05
-5.57451e-05
-5.5611e-05
-5.54861e-05
-5.53663e-05
-5.52479e-05
-5.51334e-05
-5.5028e-05
-5.49348e-05
-5.48556e-05
-5.47943e-05
-5.47571e-05
-5.47476e-05
-5.47636e-05
-5.48013e-05
-5.48616e-05
-5.49471e-05
-5.50589e-05
-5.51969e-05
-5.53624e-05
-5.5559e-05
-5.57881e-05
-5.60472e-05
-5.63345e-05
-5.66515e-05
-5.70009e-05
-5.73831e-05
-5.7796e-05
-5.8239e-05
-5.87152e-05
-5.92294e-05
-5.97842e-05
-6.038e-05
-6.10185e-05
-6.17011e-05
-6.2425e-05
-6.31848e-05
-6.39769e-05
-6.48015e-05
-6.56601e-05
-6.65511e-05
-6.74688e-05
-6.84094e-05
-6.93756e-05
-7.03728e-05
-7.14028e-05
-7.24627e-05
-7.35484e-05
-7.46575e-05
-7.5789e-05
-7.69413e-05
-7.81103e-05
-7.92907e-05
-8.04798e-05
-8.16766e-05
-8.28785e-05
-8.40804e-05
-8.5275e-05
-8.64557e-05
-8.76183e-05
-8.876e-05
-8.9875e-05
-9.09534e-05
-9.19859e-05
-9.29665e-05
-9.38925e-05
-9.47597e-05
-9.55604e-05
-9.62867e-05
-9.6934e-05
-9.74999e-05
-9.79799e-05
-9.83658e-05
-9.86494e-05
-9.88294e-05
-9.89144e-05
-9.89167e-05
-9.88307e-05
-9.86545e-05
-1.97078e-06
-2.55297e-06
-3.15019e-06
-3.82248e-06
-4.52936e-06
-5.25683e-06
-6.02452e-06
-6.84136e-06
-7.71097e-06
-8.63493e-06
-9.62488e-06
-1.06784e-05
-1.1788e-05
-1.29427e-05
-1.41286e-05
-1.53473e-05
-1.65902e-05
-1.78556e-05
-1.91419e-05
-2.04402e-05
-2.1751e-05
-2.3069e-05
-2.43834e-05
-2.56965e-05
-2.70066e-05
-2.83078e-05
-2.96026e-05
-3.08852e-05
-3.21458e-05
-3.33865e-05
-3.46039e-05
-3.57929e-05
-3.69583e-05
-3.81002e-05
-3.92141e-05
-4.03009e-05
-4.13593e-05
-4.2384e-05
-4.33768e-05
-4.43385e-05
-4.5265e-05
-4.61573e-05
-4.70178e-05
-4.78446e-05
-4.86371e-05
-4.93955e-05
-5.01162e-05
-5.07975e-05
-5.1441e-05
-5.20467e-05
-5.26148e-05
-5.31475e-05
-5.36448e-05
-5.41048e-05
-5.45286e-05
-5.49178e-05
-5.52687e-05
-5.55776e-05
-5.5847e-05
-5.60818e-05
-5.62858e-05
-5.64633e-05
-5.66174e-05
-5.67452e-05
-5.68417e-05
-5.69071e-05
-5.69462e-05
-5.6963e-05
-5.69583e-05
-5.69338e-05
-5.68952e-05
-5.68475e-05
-5.6791e-05
-5.67251e-05
-5.66513e-05
-5.65692e-05
-5.64761e-05
-5.63736e-05
-5.62694e-05
-5.61688e-05
-5.6071e-05
-5.59736e-05
-5.58777e-05
-5.57869e-05
-5.57018e-05
-5.56196e-05
-5.55393e-05
-5.54645e-05
-5.53984e-05
-5.53423e-05
-5.5299e-05
-5.52743e-05
-5.52729e-05
-5.52958e-05
-5.53413e-05
-5.54098e-05
-5.55033e-05
-5.56221e-05
-5.57641e-05
-5.59299e-05
-5.61245e-05
-5.63514e-05
-5.66092e-05
-5.68938e-05
-5.72049e-05
-5.75461e-05
-5.79184e-05
-5.83185e-05
-5.87445e-05
-5.91998e-05
-5.96897e-05
-6.02166e-05
-6.07797e-05
-6.13797e-05
-6.20214e-05
-6.27084e-05
-6.34371e-05
-6.41993e-05
-6.49897e-05
-6.58098e-05
-6.66623e-05
-6.75448e-05
-6.84515e-05
-6.93793e-05
-7.03314e-05
-7.13129e-05
-7.23247e-05
-7.33631e-05
-7.44248e-05
-7.55093e-05
-7.66159e-05
-7.7741e-05
-7.88785e-05
-8.00238e-05
-8.11759e-05
-8.23347e-05
-8.34961e-05
-8.4654e-05
-8.5803e-05
-8.69383e-05
-8.80565e-05
-8.91544e-05
-9.02256e-05
-9.1261e-05
-9.2253e-05
-9.31959e-05
-9.40841e-05
-9.49124e-05
-9.56743e-05
-9.63641e-05
-9.69787e-05
-9.75165e-05
-9.79748e-05
-9.83477e-05
-9.86278e-05
-9.88118e-05
-9.89033e-05
-9.89088e-05
-9.88102e-05
-9.85912e-05
-2.98841e-06
-3.3633e-06
-3.79333e-06
-4.30236e-06
-4.88326e-06
-5.50704e-06
-6.18817e-06
-6.9332e-06
-7.73954e-06
-8.61131e-06
-9.54581e-06
-1.05434e-05
-1.16036e-05
-1.2706e-05
-1.3845e-05
-1.50095e-05
-1.61999e-05
-1.74208e-05
-1.86617e-05
-1.99185e-05
-2.11885e-05
-2.24602e-05
-2.37356e-05
-2.50143e-05
-2.62882e-05
-2.75594e-05
-2.88242e-05
-3.00741e-05
-3.131e-05
-3.25284e-05
-3.37211e-05
-3.48896e-05
-3.60349e-05
-3.71544e-05
-3.82518e-05
-3.93275e-05
-4.03744e-05
-4.13903e-05
-4.2376e-05
-4.3329e-05
-4.42499e-05
-4.51415e-05
-4.60034e-05
-4.68343e-05
-4.76349e-05
-4.84023e-05
-4.91327e-05
-4.98259e-05
-5.0481e-05
-5.10971e-05
-5.16794e-05
-5.22308e-05
-5.27485e-05
-5.32303e-05
-5.36764e-05
-5.40858e-05
-5.4457e-05
-5.47926e-05
-5.50949e-05
-5.53627e-05
-5.55971e-05
-5.58044e-05
-5.59891e-05
-5.61482e-05
-5.62789e-05
-5.63822e-05
-5.64597e-05
-5.65129e-05
-5.65449e-05
-5.65598e-05
-5.65606e-05
-5.65491e-05
-5.65266e-05
-5.64963e-05
-5.64606e-05
-5.64178e-05
-5.6364e-05
-5.63007e-05
-5.62346e-05
-5.6171e-05
-5.61107e-05
-5.60545e-05
-5.60037e-05
-5.59571e-05
-5.59122e-05
-5.58678e-05
-5.58261e-05
-5.57903e-05
-5.57614e-05
-5.57403e-05
-5.57328e-05
-5.57456e-05
-5.57805e-05
-5.58353e-05
-5.59095e-05
-5.60069e-05
-5.61305e-05
-5.62789e-05
-5.64495e-05
-5.66441e-05
-5.68682e-05
-5.7124e-05
-5.74078e-05
-5.77162e-05
-5.80512e-05
-5.84162e-05
-5.88099e-05
-5.92275e-05
-5.96681e-05
-6.01368e-05
-6.06393e-05
-6.11775e-05
-6.17501e-05
-6.23583e-05
-6.30066e-05
-6.3697e-05
-6.44254e-05
-6.51858e-05
-6.59749e-05
-6.67929e-05
-6.764e-05
-6.8513e-05
-6.94078e-05
-7.03243e-05
-7.1266e-05
-7.22355e-05
-7.32316e-05
-7.42512e-05
-7.52925e-05
-7.63558e-05
-7.74396e-05
-7.85387e-05
-7.9647e-05
-8.07606e-05
-8.18791e-05
-8.30022e-05
-8.41248e-05
-8.52405e-05
-8.63459e-05
-8.74399e-05
-8.85198e-05
-8.95804e-05
-9.06138e-05
-9.16119e-05
-9.25686e-05
-9.34785e-05
-9.43342e-05
-9.51277e-05
-9.58546e-05
-9.65132e-05
-9.7103e-05
-9.76215e-05
-9.80639e-05
-9.84248e-05
-9.86995e-05
-9.88854e-05
-9.89822e-05
-9.89888e-05
-9.88777e-05
-9.86271e-05
-3.74578e-06
-3.92319e-06
-4.21499e-06
-4.61043e-06
-5.09314e-06
-5.64281e-06
-6.2556e-06
-6.9368e-06
-7.69285e-06
-8.51925e-06
-9.41056e-06
-1.0365e-05
-1.13716e-05
-1.24268e-05
-1.35184e-05
-1.46371e-05
-1.57867e-05
-1.69633e-05
-1.81628e-05
-1.93824e-05
-2.06097e-05
-2.18435e-05
-2.3085e-05
-2.43276e-05
-2.55725e-05
-2.68173e-05
-2.80515e-05
-2.92752e-05
-3.04876e-05
-3.16798e-05
-3.28513e-05
-3.40031e-05
-3.51297e-05
-3.62332e-05
-3.73171e-05
-3.83779e-05
-3.94134e-05
-4.0423e-05
-4.14026e-05
-4.23508e-05
-4.32707e-05
-4.41621e-05
-4.50252e-05
-4.58605e-05
-4.66656e-05
-4.74383e-05
-4.81776e-05
-4.8882e-05
-4.95488e-05
-5.01789e-05
-5.07767e-05
-5.13432e-05
-5.18783e-05
-5.23822e-05
-5.28519e-05
-5.32826e-05
-5.36747e-05
-5.40335e-05
-5.43616e-05
-5.46585e-05
-5.49265e-05
-5.51686e-05
-5.53852e-05
-5.55743e-05
-5.57372e-05
-5.58759e-05
-5.59895e-05
-5.60776e-05
-5.61455e-05
-5.61984e-05
-5.62377e-05
-5.62634e-05
-5.62778e-05
-5.62836e-05
-5.62815e-05
-5.62706e-05
-5.62518e-05
-5.62282e-05
-5.62027e-05
-5.6177e-05
-5.61529e-05
-5.61346e-05
-5.61242e-05
-5.61179e-05
-5.61115e-05
-5.61058e-05
-5.61037e-05
-5.61066e-05
-5.6114e-05
-5.61284e-05
-5.61571e-05
-5.62058e-05
-5.62745e-05
-5.63609e-05
-5.64661e-05
-5.65936e-05
-5.67449e-05
-5.69187e-05
-5.71149e-05
-5.73373e-05
-5.75894e-05
-5.78703e-05
-5.81771e-05
-5.8509e-05
-5.88684e-05
-5.92561e-05
-5.96693e-05
-6.01046e-05
-6.0563e-05
-6.1049e-05
-6.1565e-05
-6.21124e-05
-6.26935e-05
-6.33116e-05
-6.39691e-05
-6.46637e-05
-6.53899e-05
-6.61454e-05
-6.6931e-05
-6.77463e-05
-6.85882e-05
-6.9452e-05
-7.03363e-05
-7.12438e-05
-7.21775e-05
-7.31374e-05
-7.4121e-05
-7.51261e-05
-7.61521e-05
-7.71981e-05
-7.82607e-05
-7.93342e-05
-8.04138e-05
-8.14978e-05
-8.25856e-05
-8.36751e-05
-8.47614e-05
-8.58394e-05
-8.6907e-05
-8.79646e-05
-8.90101e-05
-9.00375e-05
-9.10383e-05
-9.20044e-05
-9.29308e-05
-9.3812e-05
-9.46393e-05
-9.54039e-05
-9.61021e-05
-9.67357e-05
-9.73067e-05
-9.78128e-05
-9.82459e-05
-9.85991e-05
-9.88688e-05
-9.90539e-05
-9.91533e-05
-9.91609e-05
-9.90431e-05
-9.87766e-05
-4.21863e-06
-4.25858e-06
-4.45284e-06
-4.76268e-06
-5.17125e-06
-5.66249e-06
-6.22779e-06
-6.8642e-06
-7.57515e-06
-8.36265e-06
-9.22034e-06
-1.01339e-05
-1.10989e-05
-1.21074e-05
-1.31525e-05
-1.42349e-05
-1.5347e-05
-1.64857e-05
-1.76512e-05
-1.88307e-05
-2.00218e-05
-2.12244e-05
-2.24318e-05
-2.36448e-05
-2.48637e-05
-2.60796e-05
-2.72898e-05
-2.84934e-05
-2.96815e-05
-3.08515e-05
-3.20041e-05
-3.31356e-05
-3.42468e-05
-3.53398e-05
-3.64116e-05
-3.74603e-05
-3.84866e-05
-3.94878e-05
-4.04609e-05
-4.1407e-05
-4.23264e-05
-4.32188e-05
-4.40857e-05
-4.4926e-05
-4.5736e-05
-4.65147e-05
-4.72609e-05
-4.79726e-05
-4.86501e-05
-4.92952e-05
-4.99085e-05
-5.04901e-05
-5.10415e-05
-5.15636e-05
-5.2053e-05
-5.2506e-05
-5.29233e-05
-5.33068e-05
-5.36579e-05
-5.39803e-05
-5.42789e-05
-5.45536e-05
-5.48016e-05
-5.50226e-05
-5.52185e-05
-5.53906e-05
-5.5538e-05
-5.56614e-05
-5.57655e-05
-5.5854e-05
-5.59277e-05
-5.59889e-05
-5.6041e-05
-5.60843e-05
-5.61158e-05
-5.61355e-05
-5.61485e-05
-5.61598e-05
-5.61707e-05
-5.61815e-05
-5.61947e-05
-5.62141e-05
-5.62404e-05
-5.627e-05
-5.63003e-05
-5.6333e-05
-5.63695e-05
-5.64092e-05
-5.6453e-05
-5.65053e-05
-5.6572e-05
-5.66555e-05
-5.6755e-05
-5.68716e-05
-5.70081e-05
-5.71657e-05
-5.73431e-05
-5.75399e-05
-5.776e-05
-5.8008e-05
-5.82843e-05
-5.85864e-05
-5.89134e-05
-5.92681e-05
-5.96517e-05
-6.0061e-05
-6.04924e-05
-6.09457e-05
-6.14239e-05
-6.19296e-05
-6.24618e-05
-6.30205e-05
-6.36105e-05
-6.42376e-05
-6.49024e-05
-6.55995e-05
-6.63234e-05
-6.70745e-05
-6.78554e-05
-6.86658e-05
-6.9501e-05
-7.03568e-05
-7.12335e-05
-7.21351e-05
-7.30635e-05
-7.40162e-05
-7.49901e-05
-7.59843e-05
-7.69987e-05
-7.80303e-05
-7.90732e-05
-8.01221e-05
-8.11747e-05
-8.22308e-05
-8.32898e-05
-8.43481e-05
-8.54013e-05
-8.64465e-05
-8.74836e-05
-8.85119e-05
-8.95277e-05
-9.05249e-05
-9.14963e-05
-9.24349e-05
-9.33353e-05
-9.41913e-05
-9.49941e-05
-9.5736e-05
-9.64147e-05
-9.70325e-05
-9.75911e-05
-9.80881e-05
-9.85154e-05
-9.88646e-05
-9.9132e-05
-9.93163e-05
-9.94167e-05
-9.94262e-05
-9.93098e-05
-9.90443e-05
-4.43985e-06
-4.39481e-06
-4.52364e-06
-4.7762e-06
-5.13075e-06
-5.57453e-06
-6.10663e-06
-6.71443e-06
-7.39478e-06
-8.14974e-06
-8.97093e-06
-9.85093e-06
-1.07788e-05
-1.17458e-05
-1.27554e-05
-1.3802e-05
-1.4881e-05
-1.59907e-05
-1.71203e-05
-1.82655e-05
-1.94271e-05
-2.05984e-05
-2.17783e-05
-2.29678e-05
-2.41584e-05
-2.53489e-05
-2.65391e-05
-2.77201e-05
-2.8888e-05
-3.00416e-05
-3.11753e-05
-3.22893e-05
-3.33877e-05
-3.4469e-05
-3.55306e-05
-3.65723e-05
-3.75914e-05
-3.85852e-05
-3.95544e-05
-4.04985e-05
-4.14172e-05
-4.23113e-05
-4.31808e-05
-4.40244e-05
-4.48403e-05
-4.56263e-05
-4.63791e-05
-4.70978e-05
-4.77854e-05
-4.8443e-05
-4.90705e-05
-4.96687e-05
-5.02378e-05
-5.07757e-05
-5.12808e-05
-5.17539e-05
-5.21955e-05
-5.26039e-05
-5.29803e-05
-5.33303e-05
-5.36573e-05
-5.396e-05
-5.42373e-05
-5.44904e-05
-5.47189e-05
-5.49223e-05
-5.51022e-05
-5.52614e-05
-5.54025e-05
-5.55262e-05
-5.56336e-05
-5.5729e-05
-5.5816e-05
-5.58934e-05
-5.5958e-05
-5.60108e-05
-5.60569e-05
-5.61002e-05
-5.61424e-05
-5.61865e-05
-5.62358e-05
-5.62915e-05
-5.63519e-05
-5.64151e-05
-5.64815e-05
-5.65519e-05
-5.66252e-05
-5.67002e-05
-5.67803e-05
-5.68714e-05
-5.69765e-05
-5.70946e-05
-5.72252e-05
-5.73719e-05
-5.75385e-05
-5.77238e-05
-5.79251e-05
-5.81441e-05
-5.83871e-05
-5.86576e-05
-5.89542e-05
-5.92747e-05
-5.96211e-05
-5.99975e-05
-6.04032e-05
-6.08332e-05
-6.12836e-05
-6.17564e-05
-6.2255e-05
-6.27795e-05
-6.33278e-05
-6.39007e-05
-6.4503e-05
-6.51388e-05
-6.58073e-05
-6.65036e-05
-6.72248e-05
-6.79728e-05
-6.87499e-05
-6.95541e-05
-7.03817e-05
-7.12308e-05
-7.2103e-05
-7.30016e-05
-7.39265e-05
-7.48741e-05
-7.58415e-05
-7.68279e-05
-7.78321e-05
-7.88494e-05
-7.98732e-05
-8.0899e-05
-8.19269e-05
-8.2958e-05
-8.39907e-05
-8.50208e-05
-8.60449e-05
-8.70626e-05
-8.80749e-05
-8.90798e-05
-9.00707e-05
-9.10411e-05
-9.1986e-05
-9.29007e-05
-9.37791e-05
-9.46136e-05
-9.53957e-05
-9.61201e-05
-9.67866e-05
-9.73968e-05
-9.79496e-05
-9.84405e-05
-9.88626e-05
-9.92099e-05
-9.94785e-05
-9.96658e-05
-9.97698e-05
-9.97848e-05
-9.96791e-05
-9.94306e-05
-4.44245e-06
-4.35563e-06
-4.4456e-06
-4.66536e-06
-4.98297e-06
-5.39576e-06
-5.89998e-06
-6.48849e-06
-7.15057e-06
-7.8769e-06
-8.66781e-06
-9.51491e-06
-1.04076e-05
-1.13466e-05
-1.23246e-05
-1.33405e-05
-1.43936e-05
-1.54724e-05
-1.65711e-05
-1.76896e-05
-1.88214e-05
-1.9966e-05
-2.11247e-05
-2.22897e-05
-2.34573e-05
-2.46288e-05
-2.57974e-05
-2.69573e-05
-2.81078e-05
-2.92441e-05
-3.03621e-05
-3.14646e-05
-3.25514e-05
-3.36211e-05
-3.46746e-05
-3.57098e-05
-3.67228e-05
-3.77125e-05
-3.86791e-05
-3.96219e-05
-4.05418e-05
-4.14382e-05
-4.23097e-05
-4.3156e-05
-4.39762e-05
-4.47677e-05
-4.55273e-05
-4.6255e-05
-4.69527e-05
-4.76209e-05
-4.8261e-05
-4.88752e-05
-4.94615e-05
-5.00155e-05
-5.05372e-05
-5.10292e-05
-5.14909e-05
-5.19214e-05
-5.23244e-05
-5.27033e-05
-5.30579e-05
-5.33874e-05
-5.36931e-05
-5.39766e-05
-5.4236e-05
-5.44701e-05
-5.46824e-05
-5.48761e-05
-5.5052e-05
-5.52105e-05
-5.53536e-05
-5.54846e-05
-5.56046e-05
-5.57123e-05
-5.58079e-05
-5.5894e-05
-5.59736e-05
-5.60482e-05
-5.61205e-05
-5.61961e-05
-5.62791e-05
-5.63679e-05
-5.646e-05
-5.65559e-05
-5.66574e-05
-5.67639e-05
-5.68723e-05
-5.69826e-05
-5.70999e-05
-5.72289e-05
-5.737e-05
-5.75215e-05
-5.76846e-05
-5.78628e-05
-5.80578e-05
-5.82678e-05
-5.84916e-05
-5.8733e-05
-5.89977e-05
-5.92874e-05
-5.96011e-05
-5.99391e-05
-6.03054e-05
-6.07021e-05
-6.11269e-05
-6.15755e-05
-6.20464e-05
-6.2541e-05
-6.30599e-05
-6.36014e-05
-6.41641e-05
-6.47514e-05
-6.53673e-05
-6.60119e-05
-6.66825e-05
-6.73767e-05
-6.80955e-05
-6.88417e-05
-6.96158e-05
-7.04143e-05
-7.12353e-05
-7.20798e-05
-7.295e-05
-7.3847e-05
-7.47691e-05
-7.57126e-05
-7.66755e-05
-7.76562e-05
-7.86508e-05
-7.96531e-05
-8.06577e-05
-8.16627e-05
-8.26692e-05
-8.36779e-05
-8.46873e-05
-8.56933e-05
-8.66936e-05
-8.76896e-05
-8.86821e-05
-8.9667e-05
-9.06365e-05
-9.15841e-05
-9.25062e-05
-9.34001e-05
-9.426e-05
-9.50771e-05
-9.5843e-05
-9.65546e-05
-9.72134e-05
-9.78202e-05
-9.83707e-05
-9.88583e-05
-9.92775e-05
-9.96252e-05
-9.98992e-05
-0.000100095
-0.00010021
-0.000100238
-0.000100152
-9.99344e-05
-4.26423e-06
-4.16628e-06
-4.23643e-06
-4.43763e-06
-4.74347e-06
-5.137e-06
-5.62151e-06
-6.19397e-06
-6.8375e-06
-7.54556e-06
-8.31059e-06
-9.12553e-06
-9.99341e-06
-1.09067e-05
-1.18601e-05
-1.28544e-05
-1.38806e-05
-1.49315e-05
-1.60073e-05
-1.70994e-05
-1.82066e-05
-1.93313e-05
-2.04669e-05
-2.16101e-05
-2.2761e-05
-2.39138e-05
-2.50634e-05
-2.62071e-05
-2.73401e-05
-2.84591e-05
-2.95654e-05
-3.06582e-05
-3.17355e-05
-3.27976e-05
-3.38441e-05
-3.48726e-05
-3.5881e-05
-3.68679e-05
-3.78327e-05
-3.87749e-05
-3.96959e-05
-4.05945e-05
-4.14691e-05
-4.23193e-05
-4.31429e-05
-4.3938e-05
-4.47041e-05
-4.54411e-05
-4.61489e-05
-4.68282e-05
-4.74811e-05
-4.81088e-05
-4.8709e-05
-4.92793e-05
-4.982e-05
-5.03307e-05
-5.08106e-05
-5.12625e-05
-5.16907e-05
-5.2096e-05
-5.2477e-05
-5.28338e-05
-5.3168e-05
-5.34799e-05
-5.37682e-05
-5.40335e-05
-5.4279e-05
-5.45059e-05
-5.4714e-05
-5.49057e-05
-5.50846e-05
-5.52513e-05
-5.54038e-05
-5.55415e-05
-5.56675e-05
-5.57854e-05
-5.58963e-05
-5.60014e-05
-5.61047e-05
-5.62118e-05
-5.63256e-05
-5.64445e-05
-5.65672e-05
-5.66956e-05
-5.68306e-05
-5.69699e-05
-5.71116e-05
-5.72579e-05
-5.74129e-05
-5.75782e-05
-5.77524e-05
-5.79358e-05
-5.81316e-05
-5.83413e-05
-5.85632e-05
-5.8796e-05
-5.90421e-05
-5.93065e-05
-5.95919e-05
-5.98986e-05
-6.0228e-05
-6.05841e-05
-6.09705e-05
-6.13864e-05
-6.1828e-05
-6.22935e-05
-6.27842e-05
-6.33003e-05
-6.38385e-05
-6.43955e-05
-6.4972e-05
-6.55727e-05
-6.62006e-05
-6.68528e-05
-6.75256e-05
-6.82196e-05
-6.89382e-05
-6.96842e-05
-7.04563e-05
-7.12507e-05
-7.20674e-05
-7.29099e-05
-7.37798e-05
-7.46755e-05
-7.55943e-05
-7.65337e-05
-7.74924e-05
-7.84672e-05
-7.94521e-05
-8.04398e-05
-8.14268e-05
-8.24141e-05
-8.3403e-05
-8.43927e-05
-8.53814e-05
-8.63671e-05
-8.73494e-05
-8.83293e-05
-8.93061e-05
-9.02739e-05
-9.12246e-05
-9.21534e-05
-9.30578e-05
-9.39347e-05
-9.47783e-05
-9.55808e-05
-9.63351e-05
-9.70383e-05
-9.76919e-05
-9.82958e-05
-9.88445e-05
-9.93311e-05
-9.97517e-05
-0.000100105
-0.000100391
-0.000100603
-0.000100735
-0.000100784
-0.000100729
-0.000100552
-3.92637e-06
-3.8461e-06
-3.91293e-06
-4.11095e-06
-4.41453e-06
-4.8036e-06
-5.2796e-06
-5.8344e-06
-6.46282e-06
-7.15367e-06
-7.89562e-06
-8.69176e-06
-9.53745e-06
-1.04296e-05
-1.13669e-05
-1.23392e-05
-1.3341e-05
-1.43717e-05
-1.54239e-05
-1.6495e-05
-1.75857e-05
-1.86908e-05
-1.98063e-05
-2.09336e-05
-2.20675e-05
-2.32023e-05
-2.43371e-05
-2.54661e-05
-2.65831e-05
-2.76895e-05
-2.87854e-05
-2.98685e-05
-3.09389e-05
-3.19959e-05
-3.30365e-05
-3.40598e-05
-3.50647e-05
-3.60496e-05
-3.70136e-05
-3.79564e-05
-3.88775e-05
-3.97774e-05
-4.06554e-05
-4.15096e-05
-4.23369e-05
-4.31366e-05
-4.39093e-05
-4.46542e-05
-4.53715e-05
-4.60634e-05
-4.67299e-05
-4.73695e-05
-4.79819e-05
-4.85679e-05
-4.91263e-05
-4.96547e-05
-5.01541e-05
-5.06285e-05
-5.10803e-05
-5.15089e-05
-5.19146e-05
-5.22989e-05
-5.26607e-05
-5.29991e-05
-5.33154e-05
-5.36119e-05
-5.38901e-05
-5.41491e-05
-5.4389e-05
-5.46136e-05
-5.48261e-05
-5.50254e-05
-5.52092e-05
-5.53782e-05
-5.55359e-05
-5.56842e-05
-5.58243e-05
-5.59593e-05
-5.60943e-05
-5.62327e-05
-5.63753e-05
-5.65223e-05
-5.66754e-05
-5.68358e-05
-5.7002e-05
-5.71714e-05
-5.7345e-05
-5.75267e-05
-5.7718e-05
-5.79171e-05
-5.81227e-05
-5.83375e-05
-5.85648e-05
-5.88038e-05
-5.90508e-05
-5.93065e-05
-5.95759e-05
-5.98631e-05
-6.01686e-05
-6.04924e-05
-6.08386e-05
-6.12137e-05
-6.16194e-05
-6.20528e-05
-6.25105e-05
-6.29928e-05
-6.35017e-05
-6.40357e-05
-6.45896e-05
-6.51606e-05
-6.57511e-05
-6.63649e-05
-6.70026e-05
-6.76608e-05
-6.83374e-05
-6.90348e-05
-6.97569e-05
-7.05047e-05
-7.12761e-05
-7.20689e-05
-7.28848e-05
-7.3727e-05
-7.45963e-05
-7.54899e-05
-7.64049e-05
-7.734e-05
-7.82938e-05
-7.92617e-05
-8.02358e-05
-8.12102e-05
-8.21831e-05
-8.31568e-05
-8.41322e-05
-8.51066e-05
-8.6078e-05
-8.70472e-05
-8.80158e-05
-8.8984e-05
-8.99482e-05
-9.09012e-05
-9.18364e-05
-9.27508e-05
-9.36424e-05
-9.45067e-05
-9.53369e-05
-9.61265e-05
-9.68712e-05
-9.7569e-05
-9.82193e-05
-9.88201e-05
-9.93666e-05
-9.98544e-05
-0.000100282
-0.000100649
-0.000100953
-0.000101188
-0.000101346
-0.000101424
-0.000101406
-0.000101277
-3.44463e-06
-3.40735e-06
-3.496e-06
-3.69743e-06
-4.00312e-06
-4.39892e-06
-4.86995e-06
-5.4155e-06
-6.0293e-06
-6.7017e-06
-7.43233e-06
-8.21386e-06
-9.04317e-06
-9.92297e-06
-1.08425e-05
-1.17953e-05
-1.27805e-05
-1.37905e-05
-1.48232e-05
-1.58793e-05
-1.69539e-05
-1.80423e-05
-1.91448e-05
-2.02581e-05
-2.13763e-05
-2.2497e-05
-2.36173e-05
-2.47314e-05
-2.58373e-05
-2.69345e-05
-2.80215e-05
-2.90972e-05
-3.01619e-05
-3.12139e-05
-3.225e-05
-3.32694e-05
-3.42714e-05
-3.52545e-05
-3.62186e-05
-3.71626e-05
-3.80848e-05
-3.89864e-05
-3.98669e-05
-4.0724e-05
-4.15557e-05
-4.23615e-05
-4.31412e-05
-4.38939e-05
-4.4621e-05
-4.53252e-05
-4.60044e-05
-4.66563e-05
-4.72822e-05
-4.7883e-05
-4.84561e-05
-4.90007e-05
-4.95203e-05
-5.00175e-05
-5.04915e-05
-5.09424e-05
-5.13725e-05
-5.17826e-05
-5.21702e-05
-5.25348e-05
-5.28794e-05
-5.32057e-05
-5.35138e-05
-5.38033e-05
-5.40755e-05
-5.43333e-05
-5.45772e-05
-5.4806e-05
-5.50194e-05
-5.52201e-05
-5.54094e-05
-5.55876e-05
-5.57565e-05
-5.59219e-05
-5.60883e-05
-5.62569e-05
-5.64275e-05
-5.66026e-05
-5.67856e-05
-5.69761e-05
-5.71709e-05
-5.73693e-05
-5.75746e-05
-5.77896e-05
-5.80133e-05
-5.8243e-05
-5.84793e-05
-5.87251e-05
-5.89818e-05
-5.92471e-05
-5.95184e-05
-5.97984e-05
-6.00922e-05
-6.04017e-05
-6.07268e-05
-6.10696e-05
-6.14357e-05
-6.18305e-05
-6.22538e-05
-6.27026e-05
-6.31761e-05
-6.36757e-05
-6.42012e-05
-6.47488e-05
-6.53143e-05
-6.58976e-05
-6.65017e-05
-6.71282e-05
-6.77749e-05
-6.84392e-05
-6.9122e-05
-6.98269e-05
-7.05556e-05
-7.13073e-05
-7.20801e-05
-7.28741e-05
-7.36919e-05
-7.45353e-05
-7.54028e-05
-7.62923e-05
-7.72028e-05
-7.81334e-05
-7.90819e-05
-8.00418e-05
-8.10057e-05
-8.1969e-05
-8.29319e-05
-8.38963e-05
-8.48616e-05
-8.5824e-05
-8.67823e-05
-8.77389e-05
-8.8697e-05
-8.96558e-05
-9.06098e-05
-9.15512e-05
-9.24746e-05
-9.33789e-05
-9.42619e-05
-9.5117e-05
-9.59365e-05
-9.67154e-05
-9.74519e-05
-9.81453e-05
-9.87933e-05
-9.93923e-05
-9.99389e-05
-0.000100432
-0.000100872
-0.00010126
-0.000101589
-0.000101851
-0.00010204
-0.000102152
-0.000102175
-0.0001021
-2.84409e-06
-2.86518e-06
-2.98847e-06
-3.20771e-06
-3.523e-06
-3.91965e-06
-4.39437e-06
-4.93601e-06
-5.53804e-06
-6.20289e-06
-6.92361e-06
-7.6952e-06
-8.51809e-06
-9.38396e-06
-1.02878e-05
-1.12273e-05
-1.21958e-05
-1.31895e-05
-1.42097e-05
-1.5252e-05
-1.63114e-05
-1.73888e-05
-1.84803e-05
-1.95804e-05
-2.06875e-05
-2.17965e-05
-2.29026e-05
-2.40048e-05
-2.5102e-05
-2.61916e-05
-2.72722e-05
-2.83433e-05
-2.94033e-05
-3.04505e-05
-3.14831e-05
-3.24999e-05
-3.34996e-05
-3.44813e-05
-3.5445e-05
-3.63898e-05
-3.73147e-05
-3.82191e-05
-3.91019e-05
-3.9962e-05
-4.07988e-05
-4.1611e-05
-4.23979e-05
-4.31598e-05
-4.38979e-05
-4.46127e-05
-4.5303e-05
-4.59683e-05
-4.6609e-05
-4.72237e-05
-4.78104e-05
-4.83714e-05
-4.89104e-05
-4.94278e-05
-4.99228e-05
-5.03968e-05
-5.08509e-05
-5.12844e-05
-5.16962e-05
-5.20874e-05
-5.24605e-05
-5.28151e-05
-5.31506e-05
-5.3469e-05
-5.37727e-05
-5.4062e-05
-5.43353e-05
-5.45922e-05
-5.48349e-05
-5.50659e-05
-5.52852e-05
-5.54927e-05
-5.56919e-05
-5.58883e-05
-5.60852e-05
-5.62823e-05
-5.64814e-05
-5.66858e-05
-5.68978e-05
-5.71156e-05
-5.73371e-05
-5.75642e-05
-5.78005e-05
-5.80461e-05
-5.82984e-05
-5.85562e-05
-5.8822e-05
-5.90975e-05
-5.93807e-05
-5.96698e-05
-5.99655e-05
-6.02715e-05
-6.05903e-05
-6.09218e-05
-6.12669e-05
-6.1631e-05
-6.20196e-05
-6.24344e-05
-6.28739e-05
-6.33372e-05
-6.38261e-05
-6.43419e-05
-6.48816e-05
-6.54399e-05
-6.6015e-05
-6.66097e-05
-6.72266e-05
-6.78648e-05
-6.85208e-05
-6.91932e-05
-6.98855e-05
-7.06006e-05
-7.13379e-05
-7.2095e-05
-7.28714e-05
-7.3669e-05
-7.44901e-05
-7.53344e-05
-7.61993e-05
-7.70838e-05
-7.79894e-05
-7.89156e-05
-7.98584e-05
-8.08105e-05
-8.17657e-05
-8.27218e-05
-8.3679e-05
-8.46375e-05
-8.55951e-05
-8.65483e-05
-8.74971e-05
-8.84453e-05
-8.93954e-05
-9.03457e-05
-9.12907e-05
-9.22238e-05
-9.31405e-05
-9.4039e-05
-9.49161e-05
-9.57639e-05
-9.65752e-05
-9.73462e-05
-9.80768e-05
-9.8767e-05
-9.94139e-05
-0.000100014
-0.000100566
-0.00010107
-0.000101529
-0.000101941
-0.000102297
-0.00010259
-0.000102812
-0.000102961
-0.000103029
-0.00010301
-2.14637e-06
-2.22712e-06
-2.39549e-06
-2.64323e-06
-2.96983e-06
-3.37549e-06
-3.85352e-06
-4.39446e-06
-4.99882e-06
-5.65974e-06
-6.37497e-06
-7.145e-06
-7.95965e-06
-8.81408e-06
-9.7073e-06
-1.0633e-05
-1.15874e-05
-1.25716e-05
-1.3581e-05
-1.46109e-05
-1.56616e-05
-1.67303e-05
-1.78111e-05
-1.89014e-05
-1.99991e-05
-2.10972e-05
-2.21929e-05
-2.3287e-05
-2.4377e-05
-2.54605e-05
-2.65371e-05
-2.76049e-05
-2.86608e-05
-2.9704e-05
-3.07338e-05
-3.17484e-05
-3.27473e-05
-3.37287e-05
-3.4692e-05
-3.56377e-05
-3.65651e-05
-3.74726e-05
-3.83584e-05
-3.92228e-05
-4.00654e-05
-4.08839e-05
-4.16788e-05
-4.24515e-05
-4.32009e-05
-4.39257e-05
-4.46268e-05
-4.53053e-05
-4.59594e-05
-4.65867e-05
-4.71885e-05
-4.77672e-05
-4.83241e-05
-4.88596e-05
-4.93752e-05
-4.98722e-05
-5.03489e-05
-5.08042e-05
-5.12395e-05
-5.16569e-05
-5.20571e-05
-5.24383e-05
-5.28006e-05
-5.31475e-05
-5.34805e-05
-5.37979e-05
-5.40985e-05
-5.43835e-05
-5.46554e-05
-5.49151e-05
-5.51624e-05
-5.53993e-05
-5.56299e-05
-5.58576e-05
-5.60836e-05
-5.63089e-05
-5.65373e-05
-5.67715e-05
-5.70109e-05
-5.72537e-05
-5.7501e-05
-5.77567e-05
-5.80222e-05
-5.82952e-05
-5.85735e-05
-5.88583e-05
-5.91522e-05
-5.94545e-05
-5.97617e-05
-6.00738e-05
-6.03945e-05
-6.07266e-05
-6.10697e-05
-6.1423e-05
-6.179e-05
-6.21771e-05
-6.25881e-05
-6.30224e-05
-6.3478e-05
-6.39565e-05
-6.44608e-05
-6.49907e-05
-6.55414e-05
-6.61091e-05
-6.66945e-05
-6.73013e-05
-6.79303e-05
-6.8579e-05
-6.92449e-05
-6.99283e-05
-7.06325e-05
-7.13587e-05
-7.21047e-05
-7.28682e-05
-7.36501e-05
-7.44528e-05
-7.52772e-05
-7.61214e-05
-7.69832e-05
-7.78638e-05
-7.87657e-05
-7.9688e-05
-8.06252e-05
-8.15705e-05
-8.25195e-05
-8.34719e-05
-8.44271e-05
-8.53824e-05
-8.63341e-05
-8.72803e-05
-8.82231e-05
-8.91661e-05
-9.01103e-05
-9.10531e-05
-9.19903e-05
-9.29178e-05
-9.38318e-05
-9.47284e-05
-9.56016e-05
-9.64432e-05
-9.7248e-05
-9.80148e-05
-9.87435e-05
-9.94338e-05
-0.000100083
-0.000100689
-0.000101252
-0.000101774
-0.000102256
-0.000102693
-0.000103076
-0.000103398
-0.000103653
-0.000103841
-0.000103956
-0.000103998
-1.36847e-06
-1.50935e-06
-1.72036e-06
-1.99759e-06
-2.34989e-06
-2.76807e-06
-3.25181e-06
-3.80247e-06
-4.4117e-06
-5.07517e-06
-5.79367e-06
-6.55963e-06
-7.36784e-06
-8.2166e-06
-9.10032e-06
-1.00145e-05
-1.09612e-05
-1.19364e-05
-1.29357e-05
-1.39592e-05
-1.50038e-05
-1.60647e-05
-1.71384e-05
-1.82214e-05
-1.93091e-05
-2.03984e-05
-2.14879e-05
-2.25763e-05
-2.36611e-05
-2.47414e-05
-2.58156e-05
-2.68805e-05
-2.79334e-05
-2.89737e-05
-3.00007e-05