/*--------------------------------*- C++ -*----------------------------------*\
  =========                 |
  \\      /  F ield         | OpenFOAM: The Open Source CFD Toolbox
   \\    /   O peration     | Website:  https://openfoam.org
    \\  /    A nd           | Version:  7
     \\/     M anipulation  |
\*---------------------------------------------------------------------------*/
FoamFile
{
    version     2.0;
    format      ascii;
    class       volScalarField;
    location    "0.1125";
    object      p;
}
// * * * * * * * * * * * * * * * * * * * * * * * * * * * * * * * * * * * * * //

dimensions      [0 2 -2 0 0 0 0];

internalField   nonuniform List<scalar> 
51200
(
-4.48814e-08
0.000100722
0.000244958
0.000378503
0.000484251
0.000574689
0.000655055
0.00072811
0.000795778
0.000858961
0.000918054
0.000973507
0.00102572
0.0010748
0.00112061
0.00116328
0.00120252
0.0012384
0.0012713
0.00130096
0.00132761
0.00135142
0.00137244
0.00139106
0.00140768
0.00142244
0.00143527
0.00144619
0.00145533
0.00146278
0.00146863
0.00147305
0.00147612
0.00147788
0.00147831
0.00147745
0.00147543
0.00147236
0.00146828
0.00146329
0.00145747
0.00145083
0.00144335
0.00143504
0.00142596
0.00141622
0.00140577
0.00139452
0.0013824
0.00136954
0.00135604
0.00134194
0.00132715
0.00131158
0.0012953
0.00127844
0.00126108
0.00124315
0.00122462
0.00120552
0.00118596
0.00116598
0.00114557
0.00112463
0.00110304
0.00108081
0.00105804
0.00103481
0.00101111
0.000986889
0.000962168
0.000937062
0.0009117
0.000886139
0.00086036
0.000834298
0.000807942
0.000781398
0.000754816
0.000728295
0.000701809
0.000675244
0.000648529
0.000621759
0.000595193
0.000569036
0.000543265
0.000517687
0.000492127
0.000466612
0.000441342
0.000416525
0.000392205
0.0003682
0.000344264
0.000320312
0.000296482
0.000272998
0.000249976
0.000227344
0.000204931
0.000182612
0.000160431
0.000138575
0.000117281
9.6685e-05
7.67222e-05
5.72226e-05
3.80525e-05
1.92044e-05
8.09406e-07
-1.6963e-05
-3.40069e-05
-5.03437e-05
-6.61169e-05
-8.14734e-05
-9.64703e-05
-0.000111046
-0.000125033
-0.000138258
-0.000150622
-0.000162115
-0.00017282
-0.000182849
-0.000192246
-0.000200985
-0.000208971
-0.000216067
-0.000222175
-0.000227262
-0.000231365
-0.000234602
-0.0002371
-0.000238913
-0.000239995
-0.000240234
-0.000239522
-0.000237846
-0.000235283
-0.000231932
-0.000227879
-0.000223167
-0.000217781
-0.000211699
-0.000204913
-0.000197442
-0.000189371
-0.000180838
-0.000171984
-0.00016297
-0.000154004
-0.000145328
-0.00013719
-0.000129782
-0.000123253
-0.000117774
-0.000113557
-0.000110852
-0.000109905
-0.000110379
9.79984e-05
0.000194812
0.000311563
0.000421357
0.000516298
0.00059971
0.00067455
0.000743039
0.000806523
0.000865897
0.000921512
0.000973798
0.00102288
0.00106895
0.00111225
0.00115246
0.00118974
0.00122395
0.00125502
0.00128343
0.00130927
0.00133254
0.00135337
0.00137187
0.00138827
0.00140278
0.00141549
0.00142647
0.00143578
0.00144349
0.00144968
0.00145444
0.00145785
0.00145994
0.00146073
0.0014603
0.00145872
0.00145605
0.00145234
0.00144773
0.0014423
0.0014361
0.00142903
0.00142104
0.00141227
0.00140282
0.00139263
0.00138166
0.0013699
0.00135741
0.00134427
0.0013305
0.00131601
0.00130075
0.00128484
0.00126841
0.00125149
0.00123396
0.0012158
0.00119708
0.0011779
0.00115829
0.00113822
0.00111759
0.00109632
0.00107445
0.0010521
0.00102931
0.00100603
0.000982179
0.000957811
0.000933094
0.000908215
0.000883213
0.000857988
0.000832436
0.000806572
0.000780538
0.000754487
0.0007285
0.000702525
0.000676434
0.000650184
0.000623929
0.000597927
0.000572316
0.000547008
0.000521812
0.000496603
0.000471466
0.000446641
0.000422316
0.000398466
0.000374844
0.000351206
0.000327535
0.000304041
0.000280969
0.000258405
0.000236229
0.000214221
0.000192234
0.000170353
0.000148841
0.00012796
0.000107814
8.82814e-05
6.9148e-05
5.02759e-05
3.16816e-05
1.35392e-05
-3.94484e-06
-2.06689e-05
-3.66884e-05
-5.2183e-05
-6.73167e-05
-8.21248e-05
-9.65139e-05
-0.0001103
-0.000123296
-0.000135406
-0.000146643
-0.000157121
-0.000166984
-0.000176287
-0.000184977
-0.000192927
-0.000199985
-0.000206043
-0.000211095
-0.000215225
-0.000218576
-0.000221277
-0.000223358
-0.000224737
-0.00022529
-0.000224925
-0.000223635
-0.000221509
-0.000218661
-0.000215174
-0.000211091
-0.000206399
-0.000201064
-0.000195078
-0.000188462
-0.000181287
-0.000173675
-0.000165782
-0.000157781
-0.000149875
-0.000142284
-0.00013521
-0.000128791
-0.000123109
-0.000118262
-0.000114384
-0.000111681
-0.000110459
-0.000110686
0.000239718
0.000308386
0.000390144
0.000475406
0.000556073
0.000630277
0.000698403
0.000761492
0.00082037
0.000875746
0.000928003
0.000977116
0.00102331
0.00106677
0.00110745
0.00114554
0.00118093
0.00121362
0.00124336
0.00127043
0.00129516
0.00131778
0.00133822
0.00135647
0.00137272
0.00138705
0.00139962
0.00141056
0.00141995
0.00142781
0.00143422
0.00143925
0.00144294
0.00144526
0.00144629
0.00144618
0.00144496
0.00144259
0.00143918
0.00143488
0.00142977
0.00142386
0.00141708
0.00140941
0.00140095
0.00139175
0.00138178
0.00137101
0.0013595
0.00134735
0.00133455
0.00132104
0.00130677
0.00129177
0.00127618
0.00126009
0.00124348
0.00122625
0.00120839
0.00119
0.00117118
0.00115192
0.00113215
0.00111175
0.00109073
0.00106918
0.00104722
0.00102482
0.00100188
0.000978327
0.000954277
0.00092995
0.000905521
0.000880955
0.0008561
0.000830894
0.000805421
0.000779849
0.000754299
0.00072877
0.000703156
0.000677364
0.00065147
0.000625694
0.000600236
0.000575115
0.00055017
0.000525237
0.000500284
0.000475482
0.000451089
0.00042722
0.000403744
0.000380384
0.000356962
0.000333551
0.000310397
0.000287713
0.000265529
0.000243674
0.000221917
0.000200155
0.00017854
0.000157377
0.000136902
0.00011715
9.79456e-05
7.90581e-05
6.03824e-05
4.1994e-05
2.41058e-05
6.92661e-06
-9.48461e-06
-2.52403e-05
-4.05356e-05
-5.55145e-05
-7.01817e-05
-8.44099e-05
-9.80029e-05
-0.000110785
-0.000122679
-0.000133731
-0.000144079
-0.000153864
-0.000163132
-0.000171808
-0.000179744
-0.000186774
-0.000192795
-0.000197824
-0.000201991
-0.000205471
-0.000208374
-0.000210692
-0.000212311
-0.000213096
-0.000212981
-0.000211991
-0.000210222
-0.000207793
-0.000204784
-0.000201214
-0.000197058
-0.000192289
-0.000186905
-0.000180929
-0.000174426
-0.000167505
-0.000160315
-0.000153048
-0.000145906
-0.000139078
-0.000132735
-0.000126976
-0.000121832
-0.000117355
-0.000113651
-0.000110911
-0.000109484
-0.000109479
0.000369745
0.00041405
0.000471106
0.00053616
0.000602437
0.000666385
0.000727017
0.000784086
0.000837963
0.000888996
0.00093741
0.000983419
0.00102675
0.00106761
0.00110582
0.00114169
0.00117517
0.00120625
0.00123485
0.00126083
0.00128455
0.00130625
0.001326
0.00134388
0.00135985
0.00137399
0.00138644
0.00139735
0.00140673
0.0014146
0.00142112
0.00142635
0.00143021
0.00143272
0.00143398
0.00143409
0.00143309
0.00143098
0.00142785
0.00142383
0.00141898
0.00141325
0.00140665
0.00139926
0.00139111
0.00138217
0.00137237
0.00136178
0.00135053
0.00133865
0.0013261
0.00131281
0.00129875
0.00128402
0.00126873
0.00125294
0.00123657
0.00121954
0.00120192
0.00118384
0.00116537
0.00114643
0.00112688
0.00110668
0.00108592
0.00106471
0.00104309
0.00102099
0.000998293
0.000974991
0.000951278
0.000927383
0.000903381
0.000879139
0.000854511
0.000829538
0.000804401
0.00077928
0.000754211
0.000729072
0.000703718
0.000678159
0.000652598
0.000627277
0.000602299
0.000577573
0.00055291
0.000528193
0.000503488
0.000479032
0.000455056
0.000431573
0.000408367
0.000385177
0.000361925
0.000338765
0.000315954
0.000293646
0.000271787
0.000250159
0.000228553
0.000206955
0.000185595
0.000164788
0.000144709
0.000125306
0.000106356
8.76384e-05
6.91006e-05
5.08943e-05
3.32662e-05
1.63903e-05
2.65641e-07
-1.52715e-05
-3.04225e-05
-4.5288e-05
-5.98326e-05
-7.39034e-05
-8.72937e-05
-9.98575e-05
-0.000111564
-0.000122492
-0.000132791
-0.000142576
-0.000151852
-0.000160528
-0.000168446
-0.000175439
-0.000181427
-0.00018646
-0.000190698
-0.000194328
-0.000197431
-0.000199948
-0.000201749
-0.000202711
-0.000202796
-0.000202062
-0.000200612
-0.000198548
-0.000195943
-0.0001928
-0.000189075
-0.000184746
-0.000179825
-0.000174337
-0.000168344
-0.00016195
-0.0001553
-0.000148587
-0.000142015
-0.000135738
-0.000129877
-0.000124515
-0.00011967
-0.000115374
-0.000111717
-0.000108875
-0.000107155
-0.000106681
0.000470379
0.000503975
0.000546587
0.000597129
0.000651031
0.000705278
0.000758187
0.000809185
0.000857961
0.00090458
0.000949095
0.000991567
0.00103212
0.00107051
0.00110657
0.00114019
0.00117176
0.00120114
0.00122835
0.00125337
0.00127622
0.00129707
0.0013161
0.0013334
0.00134893
0.00136276
0.00137502
0.0013858
0.00139507
0.0014029
0.00140944
0.00141471
0.00141864
0.00142127
0.00142273
0.00142301
0.00142212
0.00142017
0.00141729
0.00141354
0.00140888
0.0014033
0.00139689
0.00138971
0.00138179
0.00137306
0.00136346
0.00135308
0.00134208
0.00133048
0.00131813
0.00130498
0.00129113
0.00127669
0.00126173
0.00124621
0.00123003
0.00121319
0.00119583
0.00117808
0.00115994
0.00114125
0.00112189
0.00110191
0.00108145
0.00106059
0.0010393
0.00101744
0.000994937
0.00097189
0.00094856
0.00092511
0.000901477
0.000877482
0.000853048
0.000828317
0.000803534
0.000778834
0.00075415
0.000729299
0.000704182
0.000678917
0.000653757
0.000628883
0.000604298
0.000579865
0.000555425
0.000530935
0.000506532
0.000482457
0.000458868
0.000435694
0.000412692
0.000389659
0.0003666
0.00034371
0.000321232
0.000299265
0.000277681
0.000256235
0.000234769
0.000213356
0.00019228
0.000171829
0.000152115
0.000133011
0.000114267
9.56972e-05
7.73089e-05
5.93079e-05
4.1954e-05
2.537e-05
9.4966e-06
-5.85043e-06
-2.08672e-05
-3.56209e-05
-5.00359e-05
-6.3942e-05
-7.7131e-05
-8.94831e-05
-0.000101023
-0.00011186
-0.000122141
-0.000131955
-0.000141265
-0.000149951
-0.000157849
-0.000164801
-0.000170763
-0.000175832
-0.000180185
-0.000183983
-0.000187273
-0.00018996
-0.000191908
-0.000193025
-0.0001933
-0.000192812
-0.000191669
-0.000189953
-0.000187709
-0.000184938
-0.000181596
-0.000177655
-0.00017313
-0.000168055
-0.000162483
-0.000156521
-0.000150322
-0.000144071
-0.000137962
-0.000132125
-0.000126628
-0.000121521
-0.000116826
-0.000112588
-0.000108901
-0.000105909
-0.000103804
-0.000102644
0.000553586
0.000580924
0.000614638
0.000654748
0.000698936
0.000744486
0.000790303
0.000835337
0.000879186
0.000921608
0.000962356
0.00100142
0.00103902
0.00107485
0.00110893
0.00114083
0.00117056
0.00119833
0.00122411
0.00124802
0.00127001
0.00129008
0.00130844
0.00132516
0.00134019
0.00135361
0.00136558
0.00137609
0.00138518
0.00139294
0.00139942
0.00140458
0.0014085
0.00141121
0.00141274
0.0014131
0.00141229
0.00141045
0.00140772
0.00140412
0.00139959
0.00139414
0.0013879
0.00138093
0.00137318
0.00136458
0.00135514
0.00134499
0.00133428
0.0013229
0.0013107
0.00129771
0.00128407
0.00126992
0.00125523
0.00123992
0.00122391
0.00120729
0.00119022
0.00117281
0.00115494
0.00113643
0.00111724
0.00109751
0.00107739
0.00105686
0.00103582
0.00101414
0.000991836
0.000969119
0.00094621
0.000923139
0.000899757
0.000875932
0.000851705
0.00082729
0.000802904
0.000778578
0.000754159
0.000729496
0.000704602
0.000679683
0.000654957
0.0006305
0.000606233
0.000582014
0.000557755
0.000533504
0.000509441
0.000485759
0.000462507
0.000439558
0.000416705
0.000393824
0.000370987
0.000348397
0.000326247
0.000304569
0.000283189
0.000261882
0.000240563
0.000219378
0.000198622
0.000178528
0.000159132
0.000140263
0.00012167
0.000103225
8.50082e-05
6.72447e-05
5.01702e-05
3.3854e-05
1.81893e-05
2.99452e-06
-1.18994e-05
-2.65357e-05
-4.08093e-05
-5.45402e-05
-6.75384e-05
-7.97111e-05
-9.11198e-05
-0.000101899
-0.000112176
-0.000122019
-0.000131366
-0.000140065
-0.000147941
-0.000154861
-0.00016082
-0.000165957
-0.000170455
-0.000174431
-0.000177884
-0.000180709
-0.000182781
-0.000184036
-0.000184496
-0.000184249
-0.000183393
-0.000181996
-0.000180076
-0.000177623
-0.000174611
-0.000171015
-0.00016684
-0.000162113
-0.000156896
-0.000151294
-0.000145458
-0.000139571
-0.00013382
-0.000128314
-0.000123082
-0.000118134
-0.000113477
-0.000109175
-0.000105355
-0.000102148
-9.96034e-05
-9.76624e-05
0.000624901
0.000647688
0.000675485
0.000708275
0.000744653
0.000783131
0.000822412
0.000862006
0.000901226
0.000939572
0.000976921
0.00101294
0.00104748
0.00108081
0.00111272
0.00114299
0.00117123
0.0011976
0.00122214
0.00124488
0.00126588
0.00128518
0.00130286
0.00131896
0.00133349
0.00134649
0.00135808
0.00136826
0.0013771
0.00138469
0.00139103
0.00139607
0.0013999
0.0014026
0.00140415
0.00140448
0.00140369
0.00140194
0.0013993
0.00139574
0.00139124
0.00138592
0.00137985
0.00137303
0.00136537
0.00135687
0.0013476
0.0013377
0.00132719
0.00131595
0.00130389
0.00129109
0.00127772
0.00126382
0.00124932
0.00123413
0.00121828
0.00120192
0.0011852
0.00116809
0.00115039
0.001132
0.001113
0.00109358
0.00107379
0.00105354
0.00103264
0.00101109
0.000989046
0.000966725
0.00094422
0.000921434
0.000898213
0.000874524
0.000850529
0.000826468
0.000802471
0.000778456
0.000754231
0.000729728
0.000705078
0.000680517
0.000656196
0.000632088
0.000608069
0.000584018
0.000559932
0.000535942
0.000512233
0.000488918
0.000465944
0.000443154
0.000420412
0.000397683
0.000375085
0.000352809
0.000330976
0.000309542
0.000288314
0.000267118
0.000245959
0.000225029
0.000204606
0.000184853
0.000165729
0.000147038
0.000128557
0.000110226
9.21899e-05
7.46791e-05
5.78741e-05
4.17925e-05
2.62994e-05
1.12212e-05
-3.57198e-06
-1.80941e-05
-3.22222e-05
-4.577e-05
-5.85806e-05
-7.06037e-05
-8.19199e-05
-9.26692e-05
-0.000102963
-0.000112834
-0.000122206
-0.000130907
-0.000138755
-0.000145654
-0.000151644
-0.000156884
-0.000161538
-0.000165682
-0.000169272
-0.0001722
-0.000174375
-0.000175762
-0.0001764
-0.000176386
-0.000175802
-0.000174687
-0.00017305
-0.000170879
-0.000168149
-0.000164846
-0.000160972
-0.000156546
-0.000151626
-0.000146327
-0.000140797
-0.000135195
-0.000129693
-0.000124403
-0.000119335
-0.000114462
-0.000109775
-0.000105329
-0.000101277
-9.77672e-05
-9.4723e-05
-9.19591e-05
0.000687302
0.000706594
0.000729804
0.000757219
0.000787702
0.000820323
0.000854231
0.000888802
0.000923632
0.00095829
0.000992391
0.00102566
0.00105764
0.00108859
0.00111825
0.00114663
0.0011735
0.00119857
0.00122192
0.00124366
0.00126371
0.00128218
0.00129914
0.00131457
0.00132855
0.00134113
0.00135226
0.00136207
0.00137067
0.00137802
0.00138412
0.00138901
0.00139277
0.00139541
0.00139683
0.0013971
0.00139633
0.00139463
0.00139198
0.00138837
0.00138389
0.00137868
0.00137274
0.00136598
0.00135835
0.00134995
0.00134089
0.00133123
0.00132085
0.00130966
0.0012977
0.00128513
0.00127205
0.00125837
0.00124397
0.00122887
0.0012132
0.00119715
0.00118075
0.00116384
0.00114624
0.00112798
0.00110923
0.00109012
0.00107061
0.0010505
0.0010297
0.00100833
0.00098661
0.00096468
0.000942494
0.0009199
0.000896809
0.000873296
0.000849588
0.000825882
0.000802203
0.000778404
0.000754329
0.000730013
0.000705657
0.000681458
0.00065748
0.000633633
0.00060979
0.000585887
0.000562001
0.000538304
0.000514936
0.000491921
0.000469151
0.000446483
0.000423851
0.000401291
0.000378944
0.000356968
0.000335411
0.000314173
0.000293073
0.000272
0.000251032
0.000230377
0.000210269
0.000190809
0.000171901
0.000153341
0.000134958
0.000116755
9.89095e-05
8.16392e-05
6.50712e-05
4.91819e-05
3.38306e-05
1.88503e-05
4.14029e-06
-1.02763e-05
-2.42637e-05
-3.76408e-05
-5.0277e-05
-6.21679e-05
-7.34136e-05
-8.41466e-05
-9.44652e-05
-0.000104373
-0.000113759
-0.000122445
-0.000130266
-0.000137157
-0.000143205
-0.000148574
-0.000153383
-0.000157668
-0.000161368
-0.000164377
-0.000166636
-0.000168151
-0.000168969
-0.000169174
-0.000168837
-0.000167979
-0.000166593
-0.000164669
-0.000162195
-0.000159152
-0.000155531
-0.000151349
-0.000146673
-0.000141622
-0.00013635
-0.000130993
-0.000125673
-0.000120492
-0.000115471
-0.000110579
-0.000105804
-0.000101183
-9.68536e-05
-9.29674e-05
-8.93572e-05
-8.57352e-05
0.000742709
0.000759052
0.000778686
0.000801854
0.000827803
0.000855723
0.00088522
0.00091556
0.000946453
0.000977606
0.00100864
0.00103918
0.00106898
0.00109772
0.00112545
0.00115194
0.00117722
0.00120101
0.00122323
0.00124392
0.00126309
0.00128077
0.00129697
0.00131173
0.00132512
0.00133716
0.00134788
0.00135736
0.00136561
0.00137267
0.00137854
0.00138331
0.00138695
0.00138942
0.0013907
0.0013909
0.00139015
0.00138841
0.00138567
0.001382
0.00137757
0.00137246
0.00136656
0.00135977
0.00135215
0.00134386
0.00133502
0.00132552
0.00131521
0.00130406
0.00129225
0.00127992
0.00126704
0.00125347
0.00123913
0.00122416
0.00120876
0.001193
0.0011768
0.00115997
0.00114247
0.00112441
0.00110595
0.00108711
0.00106774
0.00104769
0.001027
0.00100589
0.000984531
0.000962933
0.000940955
0.000918475
0.000895518
0.00087225
0.000848881
0.000825509
0.000802062
0.000778398
0.000754461
0.000730374
0.000706341
0.000682482
0.000658779
0.000635112
0.000611395
0.000587647
0.000564002
0.000540619
0.000517554
0.000494758
0.000472121
0.000449551
0.000427048
0.00040469
0.000382606
0.000360903
0.000339565
0.000318472
0.000297488
0.000276568
0.000255823
0.000235453
0.000215636
0.00019641
0.000177656
0.000159191
0.000140903
0.000122846
0.000105195
8.81354e-05
7.17576e-05
5.60147e-05
4.07721e-05
2.58791e-05
1.12486e-05
-3.06847e-06
-1.69214e-05
-3.01479e-05
-4.2642e-05
-5.44228e-05
-6.56099e-05
-7.63311e-05
-8.66694e-05
-9.66086e-05
-0.000106004
-0.000114662
-0.000122454
-0.000129362
-0.000135487
-0.000140984
-0.000145935
-0.000150328
-0.000154104
-0.000157184
-0.000159528
-0.000161168
-0.000162163
-0.000162578
-0.000162457
-0.000161819
-0.000160659
-0.000158965
-0.000156726
-0.000153924
-0.000150533
-0.000146553
-0.000142066
-0.000137207
-0.000132133
-0.000126974
-0.000121805
-0.00011668
-0.000111614
-0.000106603
-0.000101662
-9.68321e-05
-9.22092e-05
-8.79077e-05
-8.36775e-05
-7.91683e-05
0.000792539
0.000806159
0.000822856
0.000842638
0.000865026
0.000889259
0.000914973
0.000941888
0.00096948
0.000997369
0.00102549
0.00105352
0.00108119
0.00110792
0.00113379
0.00115866
0.00118237
0.00120481
0.00122584
0.00124546
0.00126376
0.00128066
0.00129608
0.00131015
0.00132295
0.00133448
0.00134474
0.00135381
0.00136172
0.0013685
0.00137419
0.00137877
0.00138223
0.00138452
0.00138569
0.00138585
0.00138502
0.00138316
0.00138031
0.00137664
0.00137226
0.00136716
0.00136122
0.00135439
0.00134683
0.0013387
0.00132997
0.00132049
0.0013102
0.00129918
0.00128759
0.00127545
0.00126265
0.00124907
0.0012348
0.00122005
0.00120494
0.00118941
0.00117328
0.00115649
0.00113912
0.0011213
0.00110311
0.00108444
0.00106512
0.00104511
0.00102459
0.00100378
0.000982764
0.000961402
0.000939546
0.00091716
0.000894383
0.000871408
0.000848368
0.000825261
0.000801972
0.00077842
0.000754653
0.000730833
0.000707114
0.000683538
0.000660036
0.000636499
0.0006129
0.000589335
0.000565959
0.000542875
0.000520056
0.000497416
0.000474872
0.000452396
0.000430038
0.000407899
0.000386077
0.000364611
0.000343446
0.000322471
0.000301604
0.000280859
0.000260352
0.000240254
0.000220691
0.000201648
0.000183001
0.000164613
0.000146423
0.000128514
0.000111045
9.41572e-05
7.79207e-05
6.22857e-05
4.71211e-05
3.22955e-05
1.77415e-05
3.52137e-06
-1.02067e-05
-2.32976e-05
-3.56772e-05
-4.73754e-05
-5.85167e-05
-6.92339e-05
-7.95928e-05
-8.95464e-05
-9.89317e-05
-0.000107559
-0.000115329
-0.000122268
-0.000128485
-0.000134095
-0.000139152
-0.000143624
-0.000147452
-0.000150588
-0.000153025
-0.0001548
-0.000155967
-0.000156575
-0.000156651
-0.000156202
-0.00015524
-0.00015376
-0.000151738
-0.00014915
-0.000145968
-0.00014218
-0.000137854
-0.000133138
-0.000128203
-0.000123176
-0.000118106
-0.000112999
-0.000107848
-0.000102662
-9.74903e-05
-9.24004e-05
-8.74567e-05
-8.27109e-05
-7.78199e-05
-7.23992e-05
0.000837394
0.000848811
0.000863075
0.000880028
0.000899484
0.000920737
0.000943543
0.000967527
0.000992328
0.00101752
0.00104307
0.00106875
0.00109417
0.0011191
0.00114315
0.00116648
0.00118876
0.00120978
0.0012296
0.00124827
0.00126565
0.00128163
0.00129627
0.00130971
0.00132193
0.00133288
0.00134266
0.00135133
0.00135892
0.00136543
0.00137088
0.00137525
0.0013785
0.00138065
0.00138175
0.00138181
0.00138082
0.00137881
0.00137593
0.00137229
0.0013679
0.0013627
0.00135665
0.00134984
0.00134243
0.00133443
0.00132568
0.00131614
0.00130589
0.00129505
0.00128366
0.00127162
0.0012588
0.00124522
0.00123109
0.00121658
0.00120169
0.00118625
0.00117015
0.00115344
0.00113625
0.00111868
0.00110066
0.00108203
0.00106271
0.00104281
0.00102253
0.00100203
0.000981246
0.000960013
0.000938238
0.000915989
0.000893451
0.000870778
0.000848005
0.000825067
0.000801885
0.000778466
0.00075492
0.000731382
0.000707934
0.000684568
0.000661205
0.00063778
0.000614328
0.000590982
0.000567872
0.000545035
0.0005224
0.000499877
0.000477422
0.000455057
0.000432863
0.000410939
0.000389346
0.000368071
0.000347045
0.000326186
0.000305455
0.000284898
0.000264625
0.000244765
0.000225404
0.000206502
0.000187939
0.000169625
0.000151538
0.000133761
0.000116435
9.96782e-05
8.35443e-05
6.7988e-05
5.28822e-05
3.81044e-05
2.36123e-05
9.47947e-06
-4.14226e-06
-1.71167e-05
-2.9393e-05
-4.10246e-05
-5.2139e-05
-6.2862e-05
-7.32432e-05
-8.32017e-05
-9.25575e-05
-0.000101148
-0.000108909
-0.000115889
-0.000122192
-0.000127897
-0.000133025
-0.000137544
-0.000141413
-0.000144606
-0.000147137
-0.00014905
-0.000150383
-0.000151164
-0.000151412
-0.000151139
-0.000150361
-0.000149078
-0.000147254
-0.000144847
-0.000141834
-0.000138213
-0.000134045
-0.00012946
-0.000124622
-0.000119661
-0.000114618
-0.000109476
-0.000104208
-9.88269e-05
-9.33974e-05
-8.80067e-05
-8.27045e-05
-7.74842e-05
-7.19022e-05
-6.55527e-05
0.000877862
0.000887718
0.000899843
0.000914559
0.000931511
0.000950314
0.000970778
0.0009924
0.00101479
0.00103777
0.00106113
0.00108468
0.00110802
0.00113114
0.00115363
0.00117532
0.0011961
0.00121586
0.00123458
0.00125219
0.00126853
0.00128364
0.00129759
0.00131035
0.00132188
0.00133226
0.00134159
0.00134989
0.00135714
0.00136335
0.00136854
0.00137268
0.00137574
0.00137778
0.00137877
0.00137866
0.00137748
0.00137539
0.00137251
0.00136887
0.00136439
0.00135904
0.00135292
0.00134618
0.00133888
0.00133088
0.00132206
0.00131251
0.00130237
0.00129169
0.00128037
0.00126829
0.00125545
0.00124197
0.00122805
0.00121373
0.00119892
0.00118347
0.00116741
0.00115086
0.0011339
0.00111648
0.0010985
0.00107985
0.00106058
0.00104086
0.00102086
0.00100058
0.000979923
0.00095875
0.000937061
0.000914997
0.000892723
0.00087031
0.000847719
0.000824883
0.000801802
0.000778555
0.000755253
0.000731976
0.000708741
0.000685522
0.000662267
0.000638965
0.000615699
0.000592592
0.000569721
0.000547072
0.000524569
0.000502145
0.000479791
0.000457562
0.000435549
0.000413824
0.000392417
0.000371289
0.000350378
0.00032964
0.000309061
0.000288693
0.000268633
0.000248974
0.000229766
0.000210968
0.000192483
0.000174246
0.000156255
0.000138581
0.000121347
0.000104675
8.86134e-05
7.3112e-05
5.80497e-05
4.33094e-05
2.88624e-05
1.47981e-05
1.26204e-06
-1.16221e-05
-2.38125e-05
-3.53855e-05
-4.64864e-05
-5.7226e-05
-6.76241e-05
-7.75765e-05
-8.68954e-05
-9.54471e-05
-0.000103209
-0.000110232
-0.0001166
-0.000122367
-0.000127538
-0.000132088
-0.000135995
-0.000139258
-0.000141893
-0.000143935
-0.000145411
-0.000146338
-0.000146732
-0.000146617
-0.000146021
-0.000144933
-0.000143295
-0.000141047
-0.000138165
-0.000134667
-0.000130625
-0.000126162
-0.000121407
-0.00011647
-0.000111394
-0.00010616
-0.000100742
-9.51533e-05
-8.94529e-05
-8.37282e-05
-7.80261e-05
-7.23025e-05
-6.60149e-05
-5.87365e-05
0.000914385
0.000922999
0.000933598
0.000946489
0.000961532
0.000978294
0.000996583
0.0010163
0.00103688
0.00105794
0.00107932
0.00110097
0.00112272
0.00114399
0.00116483
0.00118503
0.00120445
0.00122298
0.00124053
0.00125703
0.00127243
0.00128673
0.00129991
0.00131193
0.0013228
0.00133265
0.00134153
0.00134942
0.0013563
0.00136221
0.00136713
0.00137104
0.00137394
0.00137582
0.00137663
0.00137633
0.00137504
0.0013729
0.00136998
0.00136624
0.00136162
0.0013562
0.00135011
0.00134341
0.00133606
0.00132796
0.00131913
0.00130966
0.00129964
0.00128901
0.00127764
0.00126549
0.00125268
0.00123938
0.00122563
0.0012114
0.00119657
0.00118112
0.00116516
0.00114879
0.00113199
0.00111462
0.00109661
0.00107796
0.00105881
0.0010393
0.00101951
0.000999366
0.00097876
0.000957638
0.000936073
0.000914215
0.00089217
0.000869933
0.000847448
0.000824697
0.000801749
0.000778703
0.000755629
0.000732562
0.000709487
0.000686382
0.000663235
0.000640084
0.000617026
0.000594145
0.000571473
0.000548974
0.000526579
0.000504254
0.000482016
0.000459933
0.000438095
0.000416547
0.000395286
0.000374277
0.000353476
0.000332858
0.00031243
0.000292236
0.000272354
0.000252856
0.000233766
0.00021505
0.00019664
0.00017848
0.000160562
0.000142951
0.000125768
0.000109138
9.31196e-05
7.76499e-05
6.26091e-05
4.78931e-05
3.34794e-05
1.94646e-05
5.99683e-06
-6.81382e-06
-1.89395e-05
-3.04704e-05
-4.15676e-05
-5.23299e-05
-6.27363e-05
-7.26645e-05
-8.19448e-05
-9.04697e-05
-9.82355e-05
-0.000105293
-0.000111701
-0.000117494
-0.00012268
-0.000127253
-0.000131208
-0.000134552
-0.000137301
-0.000139469
-0.000141064
-0.000142105
-0.00014262
-0.000142644
-0.00014221
-0.000141307
-0.000139853
-0.000137755
-0.000134985
-0.000131575
-0.000127618
-0.000123239
-0.000118543
-0.000113597
-0.000108439
-0.000103069
-9.74787e-05
-9.1678e-05
-8.57042e-05
-7.96196e-05
-7.3474e-05
-6.72177e-05
-6.02234e-05
-5.20338e-05
0.00094723
0.000954993
0.00096462
0.000976081
0.000989583
0.00100472
0.00102137
0.00103943
0.00105832
0.00107776
0.0010976
0.00111756
0.00113761
0.00115735
0.00117668
0.00119543
0.00121352
0.00123088
0.00124733
0.00126277
0.00127724
0.00129074
0.00130316
0.00131444
0.0013247
0.00133403
0.00134244
0.0013499
0.00135639
0.00136198
0.00136665
0.00137034
0.00137304
0.00137469
0.00137528
0.00137486
0.00137352
0.0013713
0.00136824
0.00136433
0.00135961
0.00135421
0.00134815
0.00134139
0.0013339
0.00132573
0.00131693
0.00130755
0.00129757
0.00128688
0.00127542
0.00126327
0.00125057
0.0012374
0.00122372
0.00120948
0.00119464
0.00117926
0.00116343
0.00114718
0.00113042
0.00111304
0.001095
0.00107643
0.00105744
0.00103811
0.00101843
0.000998338
0.000977765
0.000956722
0.00093531
0.000913637
0.000891745
0.000869605
0.000847192
0.000824548
0.000801763
0.000778914
0.000756026
0.00073311
0.000710155
0.000687158
0.000664145
0.000641167
0.000618307
0.000595614
0.000573098
0.000550728
0.000528445
0.00050623
0.000484118
0.000462178
0.000440491
0.000419084
0.00039794
0.000377036
0.000356342
0.000335842
0.000315544
0.000295495
0.000275756
0.000256379
0.000237386
0.000218746
0.000200402
0.0001823
0.000164419
0.000146831
0.000129667
0.000113057
9.7058e-05
8.16006e-05
6.65583e-05
5.18424e-05
3.74451e-05
2.34652e-05
1.00534e-05
-2.68898e-06
-1.47613e-05
-2.62722e-05
-3.7378e-05
-4.81567e-05
-5.85605e-05
-6.8456e-05
-7.76968e-05
-8.62062e-05
-9.39823e-05
-0.000101058
-0.000107481
-0.000113281
-0.00011847
-0.000123065
-0.000127078
-0.000130514
-0.000133373
-0.000135653
-0.00013735
-0.000138482
-0.000139098
-0.000139247
-0.000138954
-0.000138198
-0.000136899
-0.000134949
-0.000132287
-0.000128942
-0.00012503
-0.000120689
-0.000116008
-0.00011102
-0.000105745
-0.000100202
-9.44162e-05
-8.84021e-05
-8.21606e-05
-7.57059e-05
-6.90871e-05
-6.22772e-05
-5.4586e-05
-4.55159e-05
0.000976844
0.00098421
0.000992874
0.0010033
0.00101585
0.00102981
0.00104505
0.00106166
0.00107928
0.0010973
0.0011156
0.00113423
0.00115276
0.0011711
0.00118894
0.00120636
0.00122332
0.00123953
0.00125485
0.00126932
0.00128298
0.00129569
0.0013073
0.00131788
0.0013276
0.00133646
0.00134436
0.00135133
0.00135745
0.00136274
0.00136715
0.00137059
0.00137301
0.0013744
0.00137481
0.00137429
0.00137284
0.00137049
0.00136725
0.00136319
0.00135842
0.001353
0.00134688
0.00134001
0.00133244
0.00132425
0.00131548
0.0013061
0.00129605
0.00128526
0.00127378
0.00126169
0.00124907
0.00123594
0.00122225
0.00120799
0.00119319
0.00117791
0.00116217
0.00114595
0.00112915
0.00111173
0.00109374
0.00107528
0.00105643
0.0010372
0.00101757
0.0009975
0.000976974
0.000956035
0.000934764
0.000913215
0.000891407
0.000869323
0.000846989
0.000824475
0.000801854
0.000779168
0.000756418
0.000733615
0.000710765
0.000687888
0.000665026
0.000642221
0.000619529
0.000596985
0.000574596
0.000552345
0.000530183
0.00050809
0.000486105
0.000464294
0.000442725
0.000421425
0.000400382
0.000379574
0.000358979
0.00033858
0.000318386
0.000298444
0.00027881
0.000259528
0.000240622
0.000222057
0.000203764
0.000185684
0.000167798
0.000150194
0.000133026
0.000116423
0.000100428
8.49656e-05
6.99065e-05
5.51674e-05
4.07628e-05
2.68078e-05
1.34492e-05
7.69909e-07
-1.12565e-05
-2.27594e-05
-3.38827e-05
-4.46701e-05
-5.50571e-05
-6.49206e-05
-7.41321e-05
-8.26292e-05
-9.04098e-05
-9.74877e-05
-0.000103903
-0.000109698
-0.000114902
-0.000119538
-0.000123622
-0.000127154
-0.000130111
-0.00013247
-0.000134236
-0.000135446
-0.000136158
-0.00013642
-0.000136251
-0.000135614
-0.000134423
-0.00013258
-0.000130016
-0.000126739
-0.000122845
-0.000118489
-0.000113769
-0.000108703
-0.000103291
-9.75629e-05
-9.15682e-05
-8.53307e-05
-7.88189e-05
-7.19926e-05
-6.48922e-05
-5.7526e-05
-4.91613e-05
-3.92533e-05
0.00100376
0.00101082
0.00101896
0.00102851
0.00104011
0.00105336
0.00106774
0.00108318
0.00109956
0.00111646
0.00113359
0.00115091
0.00116811
0.00118509
0.00120169
0.00121798
0.00123375
0.00124881
0.00126315
0.00127682
0.00128968
0.00130155
0.00131239
0.00132239
0.00133161
0.0013399
0.00134726
0.00135379
0.00135956
0.00136452
0.00136859
0.0013717
0.00137384
0.00137504
0.00137527
0.00137454
0.00137291
0.0013704
0.00136704
0.00136289
0.00135803
0.00135248
0.00134624
0.0013393
0.00133171
0.00132351
0.0013147
0.00130523
0.00129507
0.00128422
0.00127276
0.00126072
0.00124812
0.00123495
0.00122124
0.00120699
0.00119225
0.00117702
0.0011613
0.00114503
0.00112818
0.00111076
0.00109285
0.00107449
0.00105572
0.00103653
0.00101692
0.000996875
0.000976412
0.000955564
0.000934382
0.000912898
0.000891136
0.000869116
0.000846881
0.000824499
0.00080201
0.000779439
0.000756793
0.00073409
0.000711353
0.000688608
0.000665892
0.000643236
0.000620679
0.000598261
0.000575996