/*--------------------------------*- C++ -*----------------------------------*\
  =========                 |
  \\      /  F ield         | OpenFOAM: The Open Source CFD Toolbox
   \\    /   O peration     | Website:  https://openfoam.org
    \\  /    A nd           | Version:  7
     \\/     M anipulation  |
\*---------------------------------------------------------------------------*/
FoamFile
{
    version     2.0;
    format      ascii;
    class       surfaceScalarField;
    location    "0.1125";
    object      phi;
}
// * * * * * * * * * * * * * * * * * * * * * * * * * * * * * * * * * * * * * //

dimensions      [0 3 -1 0 0 0 0];

internalField   nonuniform List<scalar> 
101920
(
1.24455e-13
-1.17077e-13
-1.95783e-12
2.08374e-12
-2.96799e-12
1.01258e-12
-4.23086e-12
1.26225e-12
-5.33336e-12
1.10144e-12
-6.22049e-12
8.86718e-13
-6.82397e-12
6.05743e-13
-7.12141e-12
2.94015e-13
-7.0655e-12
-5.58627e-14
-6.65384e-12
-4.07009e-13
-5.90182e-12
-7.56141e-13
-4.79611e-12
-1.10502e-12
-3.36044e-12
-1.43481e-12
-1.60979e-12
-1.75156e-12
4.25676e-13
-2.03654e-12
2.71296e-12
-2.28375e-12
5.21899e-12
-2.50697e-12
7.89566e-12
-2.67904e-12
1.07101e-11
-2.81237e-12
1.36293e-11
-2.91942e-12
1.66327e-11
-3.00308e-12
1.96819e-11
-3.04829e-12
2.27672e-11
-3.08511e-12
2.58852e-11
-3.11743e-12
2.90221e-11
-3.13685e-12
3.21724e-11
-3.14998e-12
3.53273e-11
-3.15487e-12
3.8472e-11
-3.14554e-12
4.15968e-11
-3.12479e-12
4.46963e-11
-3.09997e-12
4.77658e-11
-3.07181e-12
5.08019e-11
-3.03613e-12
5.38002e-11
-2.99758e-12
5.67604e-11
-2.96013e-12
5.96784e-11
-2.91781e-12
6.25467e-11
-2.86842e-12
6.53606e-11
-2.81637e-12
6.81215e-11
-2.76151e-12
7.08257e-11
-2.70567e-12
7.34726e-11
-2.64759e-12
7.60637e-11
-2.58915e-12
7.85998e-11
-2.53599e-12
8.1085e-11
-2.48475e-12
8.35181e-11
-2.43287e-12
8.59008e-11
-2.3823e-12
8.82358e-11
-2.33414e-12
9.05232e-11
-2.28597e-12
9.27617e-11
-2.23639e-12
9.49467e-11
-2.18551e-12
9.70765e-11
-2.12928e-12
9.91484e-11
-2.07178e-12
1.01163e-10
-2.01504e-12
1.03118e-10
-1.95375e-12
1.05005e-10
-1.8866e-12
1.0682e-10
-1.81455e-12
1.08562e-10
-1.74285e-12
1.10232e-10
-1.67215e-12
1.11832e-10
-1.59922e-12
1.13357e-10
-1.52669e-12
1.14812e-10
-1.45616e-12
1.16201e-10
-1.38766e-12
1.17525e-10
-1.32404e-12
1.18793e-10
-1.26632e-12
1.20007e-10
-1.21144e-12
1.21164e-10
-1.15445e-12
1.22257e-10
-1.09257e-12
1.23283e-10
-1.02681e-12
1.24241e-10
-9.59394e-13
1.2513e-10
-8.90464e-13
1.25948e-10
-8.18872e-13
1.26692e-10
-7.43226e-13
1.27357e-10
-6.6395e-13
1.27941e-10
-5.83299e-13
1.28441e-10
-5.01508e-13
1.28859e-10
-4.17004e-13
1.29191e-10
-3.30655e-13
1.29437e-10
-2.43864e-13
1.29594e-10
-1.56847e-13
1.29664e-10
-6.93844e-14
1.29647e-10
1.6734e-14
1.29545e-10
1.00018e-13
1.2936e-10
1.83198e-13
1.29091e-10
2.68891e-13
1.28735e-10
3.55508e-13
1.28295e-10
4.39324e-13
1.27777e-10
5.18098e-13
1.27186e-10
5.9195e-13
1.26525e-10
6.62249e-13
1.25792e-10
7.32754e-13
1.24985e-10
8.06246e-13
1.24106e-10
8.80065e-13
1.23156e-10
9.49704e-13
1.22142e-10
1.01388e-12
1.21065e-10
1.07598e-12
1.19923e-10
1.14104e-12
1.1871e-10
1.21117e-12
1.17425e-10
1.28468e-12
1.16068e-10
1.35833e-12
1.14642e-10
1.42968e-12
1.13145e-10
1.4985e-12
1.11577e-10
1.5672e-12
1.09935e-10
1.63939e-12
1.08218e-10
1.71531e-12
1.06427e-10
1.79118e-12
1.04563e-10
1.86379e-12
1.02633e-10
1.93124e-12
1.00642e-10
1.99311e-12
9.85913e-11
2.05095e-12
9.64836e-11
2.10685e-12
9.43195e-11
2.16249e-12
9.21014e-11
2.21738e-12
8.98321e-11
2.2691e-12
8.75158e-11
2.31622e-12
8.51574e-11
2.35916e-12
8.27578e-11
2.40015e-12
8.0316e-11
2.44205e-12
7.78304e-11
2.48575e-12
7.52987e-11
2.5309e-12
7.27215e-11
2.57647e-12
7.01021e-11
2.61962e-12
6.74436e-11
2.65807e-12
6.47517e-11
2.69155e-12
6.20315e-11
2.72056e-12
5.92844e-11
2.74664e-12
5.6513e-11
2.771e-12
5.37199e-11
2.79262e-12
5.09087e-11
2.81012e-12
4.8087e-11
2.82189e-12
4.52626e-11
2.82545e-12
4.24428e-11
2.81961e-12
3.96373e-11
2.80487e-12
3.68544e-11
2.78243e-12
3.41001e-11
2.75395e-12
3.13808e-11
2.71974e-12
2.8703e-11
2.67791e-12
2.6075e-11
2.62687e-12
2.35079e-11
2.56631e-12
2.1012e-11
2.4961e-12
1.85943e-11
2.41742e-12
1.62629e-11
2.33156e-12
1.40259e-11
2.23777e-12
1.18904e-11
2.13531e-12
9.86647e-12
2.02357e-12
7.96582e-12
1.90042e-12
6.2006e-12
1.76418e-12
4.58502e-12
1.61511e-12
3.13267e-12
1.45345e-12
1.85462e-12
1.27898e-12
7.61909e-13
1.09257e-12
-1.34487e-13
8.95762e-13
-8.26494e-13
6.90904e-13
-1.30999e-12
4.82817e-13
-1.58573e-12
2.76539e-13
-1.66e-12
7.55154e-14
-1.54827e-12
-1.11899e-13
-1.27768e-12
-2.71238e-13
-8.91738e-13
-3.8582e-13
-4.66712e-13
-4.2544e-13
-1.25051e-13
-3.42963e-13
-1.2627e-13
2.26652e-12
-2.38841e-12
2.26998e-12
2.07983e-12
5.15939e-13
2.76457e-12
-1.21425e-12
2.9949e-12
-2.78032e-12
2.66743e-12
-3.86189e-12
1.96656e-12
-4.3225e-12
1.07004e-12
-4.06919e-12
3.91797e-14
-3.08117e-12
-1.04262e-12
-1.32947e-12
-2.15977e-12
1.17501e-12
-3.25912e-12
4.39363e-12
-4.32153e-12
8.30759e-12
-5.34931e-12
1.28635e-11
-6.30511e-12
1.80144e-11
-7.1916e-12
2.37025e-11
-7.97231e-12
2.98696e-11
-8.67422e-12
3.64549e-11
-9.26273e-12
4.34068e-11
-9.76382e-12
5.06594e-11
-1.01732e-11
5.8158e-11
-1.05005e-11
6.58765e-11
-1.07697e-11
7.37779e-11
-1.09851e-11
8.18186e-11
-1.11585e-11
8.99791e-11
-1.12998e-11
9.82386e-11
-1.1408e-11
1.06562e-10
-1.14801e-11
1.14928e-10
-1.15103e-11
1.23317e-10
-1.15113e-11
1.31707e-10
-1.14905e-11
1.40081e-10
-1.14444e-11
1.48423e-10
-1.13776e-11
1.56719e-10
-1.12967e-11
1.64958e-10
-1.11988e-11
1.73125e-10
-1.10833e-11
1.81208e-10
-1.0951e-11
1.89199e-10
-1.08038e-11
1.97084e-10
-1.06457e-11
2.04854e-10
-1.0477e-11
2.12504e-10
-1.02983e-11
2.20028e-10
-1.01153e-11
2.27422e-10
-9.93182e-12
2.34685e-10
-9.74747e-12
2.41812e-10
-9.55985e-12
2.48797e-10
-9.37029e-12
2.5564e-10
-9.17913e-12
2.62337e-10
-8.98492e-12
2.68882e-10
-8.78369e-12
2.7527e-10
-8.5727e-12
2.81496e-10
-8.355e-12
2.87554e-10
-8.13089e-12
2.93439e-10
-7.89902e-12
2.99141e-10
-7.65685e-12
3.04657e-10
-7.40216e-12
3.09983e-10
-7.13802e-12
3.1511e-10
-6.86906e-12
3.20039e-10
-6.59749e-12
3.24767e-10
-6.32491e-12
3.29293e-10
-6.05205e-12
3.33618e-10
-5.77954e-12
3.37744e-10
-5.51249e-12
3.41673e-10
-5.25518e-12
3.45409e-10
-5.00519e-12
3.48953e-10
-4.75624e-12
3.523e-10
-4.5021e-12
3.55449e-10
-4.24052e-12
3.58398e-10
-3.97185e-12
3.61142e-10
-3.69832e-12
3.63674e-10
-3.42139e-12
3.65993e-10
-3.1385e-12
3.68098e-10
-2.84684e-12
3.69983e-10
-2.54796e-12
3.71642e-10
-2.24391e-12
3.73075e-10
-1.93448e-12
3.74277e-10
-1.61976e-12
3.75246e-10
-1.30223e-12
3.75981e-10
-9.82154e-13
3.76485e-10
-6.59169e-13
3.76754e-10
-3.36439e-13
3.76788e-10
-1.70514e-14
3.76589e-10
2.99496e-13
3.76158e-10
6.15828e-13
3.75496e-10
9.32219e-13
3.74603e-10
1.2463e-12
3.73486e-10
1.55574e-12
3.72146e-10
1.85813e-12
3.70583e-10
2.15296e-12
3.68801e-10
2.44251e-12
3.66803e-10
2.73006e-12
3.64591e-10
3.01744e-12
3.62169e-10
3.30238e-12
3.59536e-10
3.5821e-12
3.56694e-10
3.85705e-12
3.53644e-10
4.12944e-12
3.50385e-10
4.4018e-12
3.46918e-10
4.67667e-12
3.43243e-10
4.9554e-12
3.39362e-10
5.23666e-12
3.35272e-10
5.51782e-12
3.30972e-10
5.79779e-12
3.26466e-10
6.07713e-12
3.21753e-10
6.35594e-12
3.16837e-10
6.63325e-12
3.1172e-10
6.90659e-12
3.06408e-10
7.17391e-12
3.00904e-10
7.43339e-12
2.95214e-10
7.68281e-12
2.89342e-10
7.9222e-12
2.83297e-10
8.15304e-12
2.77086e-10
8.3759e-12
2.70714e-10
8.59043e-12
2.64186e-10
8.79544e-12
2.57509e-10
8.99086e-12
2.50689e-10
9.17835e-12
2.43731e-10
9.35904e-12
2.36638e-10
9.53427e-12
2.29418e-10
9.70579e-12
2.22076e-10
9.87324e-12
2.14618e-10
1.00346e-11
2.07052e-10
1.01865e-11
1.99383e-10
1.0325e-11
1.91623e-10
1.04492e-11
1.83784e-10
1.05595e-11
1.75876e-10
1.06555e-11
1.67909e-10
1.07369e-11
1.59899e-10
1.08024e-11
1.51857e-10
1.08496e-11
1.43802e-10
1.08762e-11
1.35748e-10
1.0879e-11
1.27714e-10
1.08544e-11
1.19716e-10
1.08021e-11
1.11776e-10
1.07229e-11
1.03912e-10
1.06171e-11
9.61456e-11
1.04846e-11
8.84992e-11
1.03235e-11
8.09948e-11
1.01308e-11
7.3655e-11
9.90567e-12
6.6503e-11
9.64822e-12
5.95606e-11
9.35883e-12
5.28513e-11
9.03886e-12
4.64017e-11
8.68774e-12
4.02369e-11
8.30174e-12
3.43834e-11
7.87788e-12
2.887e-11
7.41435e-12
2.37255e-11
6.90873e-12
1.89791e-11
6.36039e-12
1.46602e-11
5.77115e-12
1.07966e-11
5.14221e-12
7.4133e-12
4.47556e-12
4.53326e-12
3.77628e-12
2.17393e-12
3.05118e-12
3.45385e-13
2.31112e-12
-9.52431e-13
1.57289e-12
-1.73306e-12
8.5582e-13
-2.03078e-12
1.86663e-13
-1.90862e-12
-3.92709e-13
-1.4667e-12
-8.25772e-13
-8.58273e-13
-1.03039e-12
-2.93296e-13
-9.04262e-13
-4.2024e-13
9.57897e-13
-3.34381e-12
2.47721e-12
5.63161e-13
2.36305e-12
2.88072e-12
1.84523e-12
3.5134e-12
1.50891e-12
3.00398e-12
1.7001e-12
1.77849e-12
2.64559e-12
1.22886e-13
4.46219e-12
-1.77659e-12
7.20548e-12
-3.7882e-12
1.08843e-11
-5.83528e-12
1.54825e-11
-7.86275e-12
2.09988e-11
-9.83169e-12
2.7367e-11
-1.17208e-11
3.45403e-11
-1.34773e-11
4.2472e-11
-1.51208e-11
5.11091e-11
-1.6609e-11
6.03766e-11
-1.79418e-11
7.02402e-11
-1.9129e-11
8.06195e-11
-2.01458e-11
9.14842e-11
-2.10339e-11
1.02767e-10
-2.17871e-11
1.14418e-10
-2.24181e-11
1.26388e-10
-2.29548e-11
1.38634e-10
-2.34075e-11
1.51119e-10
-2.37792e-11
1.6379e-10
-2.40808e-11
1.76618e-10
-2.43082e-11
1.89571e-10
-2.44636e-11
2.02613e-10
-2.45559e-11
2.15713e-10
-2.45905e-11
2.28844e-10
-2.45734e-11
2.41976e-10
-2.45107e-11
2.55088e-10
-2.44067e-11
2.68151e-10
-2.42631e-11
2.81143e-10
-2.40784e-11
2.94048e-10
-2.38563e-11
3.06844e-10
-2.36013e-11
3.19515e-10
-2.3316e-11
3.32042e-10
-2.30024e-11
3.4441e-10
-2.26654e-11
3.56606e-10
-2.23119e-11
3.68616e-10
-2.19418e-11
3.80428e-10
-2.15572e-11
3.92029e-10
-2.11611e-11
4.03414e-10
-2.07518e-11
4.14568e-10
-2.03316e-11
4.2548e-10
-1.98978e-11
4.36145e-10
-1.94482e-11
4.46554e-10
-1.89813e-11
4.56696e-10
-1.84961e-11
4.66562e-10
-1.79968e-11
4.76147e-10
-1.74833e-11
4.85442e-10
-1.69522e-11
4.94439e-10
-1.64009e-11
5.03132e-10
-1.58334e-11
5.11518e-10
-1.52558e-11
5.19591e-10
-1.46707e-11
5.27344e-10
-1.40792e-11
5.34775e-10
-1.34829e-11
5.41882e-10
-1.28855e-11
5.48664e-10
-1.22923e-11
5.55118e-10
-1.17058e-11
5.61239e-10
-1.11238e-11
5.67026e-10
-1.05421e-11
5.72476e-10
-9.95499e-12
5.77591e-10
-9.35701e-12
5.82366e-10
-8.74785e-12
5.86799e-10
-8.13112e-12
5.90886e-10
-7.50794e-12
5.94625e-10
-6.8753e-12
5.98012e-10
-6.23195e-12
6.01042e-10
-5.5791e-12
6.03716e-10
-4.9174e-12
6.06033e-10
-4.24784e-12
6.07987e-10
-3.57238e-12
6.09576e-10
-2.8923e-12
6.10801e-10
-2.20759e-12
6.11662e-10
-1.51956e-12
6.12156e-10
-8.32381e-13
6.12284e-10
-1.47611e-13
6.12047e-10
5.35985e-13
6.11445e-10
1.2185e-12
6.10477e-10
1.89896e-12
6.09147e-10
2.57589e-12
6.07457e-10
3.24727e-12
6.05408e-10
3.91015e-12
6.02996e-10
4.56363e-12
6.00226e-10
5.21088e-12
5.97103e-10
5.85449e-12
5.93626e-10
6.49443e-12
5.89798e-10
7.12927e-12
5.85619e-10
7.75842e-12
5.81092e-10
8.38307e-12
5.76216e-10
9.0044e-12
5.70994e-10
9.62392e-12
5.65429e-10
1.02436e-11
5.59524e-10
1.0864e-11
5.53278e-10
1.14837e-11
5.46692e-10
1.21014e-11
5.3977e-10
1.27169e-11
5.32516e-10
1.33302e-11
5.24933e-10
1.39389e-11
5.17026e-10
1.45405e-11
5.08801e-10
1.51329e-11
5.00263e-10
1.57136e-11
4.91417e-10
1.62802e-11
4.82269e-10
1.68301e-11
4.72825e-10
1.73632e-11
4.63096e-10
1.78809e-11
4.53091e-10
1.83822e-11
4.42816e-10
1.88655e-11
4.32282e-10
1.93305e-11
4.21496e-10
1.97771e-11
4.10468e-10
2.02061e-11
3.99209e-10
2.06185e-11
3.87728e-10
2.10141e-11
3.76039e-10
2.13937e-11
3.64155e-10
2.17571e-11
3.52089e-10
2.2101e-11
3.39855e-10
2.24212e-11
3.27465e-10
2.27139e-11
3.14938e-10
2.29762e-11
3.02289e-10
2.32074e-11
2.89538e-10
2.34061e-11
2.76705e-10
2.35694e-11
2.63812e-10
2.36953e-11
2.50882e-10
2.37807e-11
2.37936e-10
2.38213e-11
2.25001e-10
2.38136e-11
2.12101e-10
2.37539e-11
1.99264e-10
2.36391e-11
1.86518e-10
2.34686e-11
1.73895e-10
2.3241e-11
1.61424e-10
2.2954e-11
1.4914e-10
2.26059e-11
1.37077e-10
2.21939e-11
1.25268e-10
2.17148e-11
1.13749e-10
2.11675e-11
1.02557e-10
2.05516e-11
9.1729e-11
1.9866e-11
8.13063e-11
1.91098e-11
7.13286e-11
1.82794e-11
6.18364e-11
1.73701e-11
5.28712e-11
1.63793e-11
4.4475e-11
1.53057e-11
3.66888e-11
1.41482e-11
2.95516e-11
1.29085e-11
2.31013e-11
1.15909e-11
1.73741e-11
1.02014e-11
1.24012e-11
8.74936e-12
8.20513e-12
7.24825e-12
4.79988e-12
5.71782e-12
2.18543e-12
4.18736e-12
3.43411e-13
2.69649e-12
-7.69802e-13
1.29937e-12
-1.23372e-12
7.11789e-14
-1.17471e-12
-8.85759e-13
-7.79476e-13
-1.42696e-12
-2.94678e-13
-1.38729e-12
-7.14679e-13
1.14804e-12
-4.49385e-12
2.79602e-12
-1.08805e-12
3.63103e-12
2.04763e-12
4.27095e-12
2.87463e-12
5.24105e-12
2.02748e-12
6.89153e-12
1.31115e-13
9.4224e-12
-2.41107e-12
1.29629e-11
-5.31419e-12
1.75756e-11
-8.40018e-12
2.32755e-11
-1.15359e-11
3.00559e-11
-1.46441e-11
3.7888e-11
-1.76623e-11
4.67111e-11
-2.05431e-11
5.65215e-11
-2.32866e-11
6.72112e-11
-2.58107e-11
7.87575e-11
-2.8155e-11
9.10884e-11
-3.02717e-11
1.04145e-10
-3.21883e-11
1.17884e-10
-3.38822e-11
1.32226e-10
-3.53802e-11
1.47131e-10
-3.66902e-11
1.62543e-10
-3.783e-11
1.78397e-10
-3.88133e-11
1.94639e-10
-3.96466e-11
2.1121e-10
-4.03533e-11
2.28065e-10
-4.09367e-11
2.45156e-10
-4.13967e-11
2.62437e-10
-4.17464e-11
2.7987e-10
-4.19887e-11
2.97412e-10
-4.2132e-11
3.15022e-10
-4.21855e-11
3.32668e-10
-4.21551e-11
3.50309e-10
-4.20474e-11
3.67914e-10
-4.18667e-11
3.85451e-10
-4.16164e-11
4.02895e-10
-4.13003e-11
4.20215e-10
-4.0923e-11
4.37386e-10
-4.0489e-11
4.54387e-10
-4.00026e-11
4.71191e-10
-3.94718e-11
4.8778e-10
-3.88998e-11
5.04131e-10
-3.8293e-11
5.20224e-10
-3.76531e-11
5.36042e-10
-3.69785e-11
5.51564e-10
-3.62757e-11
5.66779e-10
-3.55465e-11
5.81673e-10
-3.47907e-11
5.96227e-10
-3.40034e-11
6.10431e-10
-3.31851e-11
6.24274e-10
-3.23409e-11
6.37747e-10
-3.14692e-11
6.50836e-10
-3.05701e-11
6.6353e-10
-2.9645e-11
6.75822e-10
-2.86932e-11
6.87709e-10
-2.77183e-11
6.99179e-10
-2.67248e-11
7.10225e-10
-2.5716e-11
7.2084e-10
-2.46952e-11
7.31021e-10
-2.36632e-11
7.40759e-10
-2.26245e-11
7.50049e-10
-2.15846e-11
7.58888e-10
-2.05444e-11
7.67271e-10
-1.95038e-11
7.75189e-10
-1.84593e-11
7.82642e-10
-1.74057e-11
7.89627e-10
-1.63404e-11
7.96143e-10
-1.52642e-11
8.02188e-10
-1.41773e-11
8.07759e-10
-1.30782e-11
8.12851e-10
-1.19661e-11
8.17462e-10
-1.08422e-11
8.21588e-10
-9.70719e-12
8.25232e-10
-8.56145e-12
8.28391e-10
-7.40668e-12
8.31062e-10
-6.24442e-12
8.33245e-10
-5.07439e-12
8.34938e-10
-3.89828e-12
8.36138e-10
-2.7194e-12
8.36845e-10
-1.54084e-12
8.37061e-10
-3.63677e-13
8.36786e-10
8.12165e-13
8.36018e-10
1.98602e-12
8.34757e-10
3.15779e-12
8.33007e-10
4.32649e-12
8.30766e-10
5.48874e-12
8.28034e-10
6.64134e-12
8.24813e-10
7.78428e-12
8.21103e-10
8.92063e-12
8.16906e-10
1.00518e-11
8.12224e-10
1.11769e-11
8.07058e-10
1.2295e-11
8.01413e-10
1.34054e-11
7.95288e-10
1.45086e-11
7.88683e-10
1.56062e-11
7.81603e-10
1.67006e-11
7.74052e-10
1.77937e-11
7.66034e-10
1.88843e-11
7.57551e-10
1.9969e-11
7.48606e-10
2.10466e-11
7.39206e-10
2.21173e-11
7.29356e-10
2.31803e-11
7.1906e-10
2.42334e-11
7.08324e-10
2.52742e-11
6.97156e-10
2.63003e-11
6.85564e-10
2.73073e-11
6.73553e-10
2.82915e-11
6.61133e-10
2.92506e-11
6.48312e-10
3.0184e-11
6.351e-10
3.10922e-11
6.21508e-10
3.19741e-11
6.07545e-10
3.2827e-11
5.93225e-10
3.365e-11
5.7856e-10
3.44422e-11
5.63565e-10
3.52025e-11
5.48252e-10
3.59309e-11
5.32639e-10
3.66271e-11
5.16743e-10
3.72899e-11
5.00582e-10
3.79179e-11
4.84175e-10
3.85071e-11
4.67543e-10
3.90522e-11
4.50708e-10
3.9549e-11
4.33691e-10
3.99934e-11
4.16517e-10
4.03821e-11
3.99209e-10
4.07125e-11
3.81796e-10
4.0981e-11
3.64308e-10
4.11834e-11
3.46773e-10
4.13155e-11
3.29224e-10
4.13713e-11
3.11692e-10
4.13452e-11
2.94211e-10
4.12334e-11
2.76819e-10
4.10316e-11
2.59552e-10
4.0736e-11
2.42449e-10
4.03436e-11
2.25552e-10
3.98509e-11
2.08904e-10
3.92538e-11
1.92548e-10
3.8549e-11
1.7653e-10
3.77322e-11
1.60897e-10
3.67996e-11
1.45699e-10
3.57498e-11
1.30986e-10
3.45804e-11
1.16809e-10
3.32879e-11
1.03219e-10
3.18686e-11
9.02702e-11
3.03185e-11
7.80145e-11
2.86347e-11
6.65035e-11
2.68162e-11
5.57889e-11
2.48634e-11
4.592e-11
2.27788e-11
3.69415e-11
2.05689e-11
2.88963e-11
1.82451e-11
2.1822e-11
1.58237e-11
1.57444e-11
1.33261e-11
1.06789e-11
1.07832e-11
6.62586e-12
8.24092e-12
3.56311e-12
5.76007e-12
1.44051e-12
3.42249e-12
1.70883e-13
1.34154e-12
-3.82164e-13
-3.31999e-13
-4.17267e-13
-1.39333e-12
-1.94259e-13
-1.60995e-12
-9.08338e-13
1.07849e-12
-5.56995e-12
3.0325e-12
-3.03718e-12
4.63008e-12
4.49231e-13
6.33657e-12
1.16872e-12
8.5897e-12
-2.25322e-13
1.16914e-11
-2.96855e-12
1.58306e-11
-6.55107e-12
2.11237e-11
-1.06057e-11
2.76201e-11
-1.48975e-11
3.53627e-11
-1.92757e-11
4.43185e-11
-2.35979e-11
5.4471e-11
-2.78191e-11
6.57824e-11
-3.18526e-11
7.81743e-11
-3.56838e-11
9.16282e-11
-3.92641e-11
1.06061e-10
-4.25851e-11
1.21426e-10
-4.56387e-11
1.37647e-10
-4.84052e-11
1.54672e-10
-5.09082e-11
1.72434e-10
-5.31404e-11
1.90871e-10
-5.51264e-11
2.09916e-10
-5.68758e-11
2.29507e-10
-5.84034e-11
2.49585e-10
-5.97245e-11
2.70082e-10
-6.08516e-11
2.90939e-10
-6.17912e-11
3.12096e-10
-6.25556e-11
3.33505e-10
-6.31547e-11
3.55114e-10
-6.35974e-11
3.76871e-10
-6.38904e-11
3.98729e-10
-6.40443e-11
4.20643e-10
-6.40701e-11
4.4257e-10
-6.3975e-11
4.64467e-10
-6.37637e-11
4.86295e-10
-6.34431e-11
5.08018e-10
-6.30235e-11
5.29604e-10
-6.2509e-11
5.51019e-10
-6.19022e-11
5.72227e-10
-6.12127e-11
5.93205e-10
-6.04486e-11
6.13924e-10
-5.96181e-11
6.34353e-10
-5.87226e-11
6.54468e-10
-5.77669e-11
6.74246e-10
-5.67573e-11
6.93666e-10
-5.56959e-11
7.12704e-10
-5.45855e-11
7.3134e-10
-5.34263e-11
7.49559e-10
-5.22201e-11
7.67342e-10
-5.09702e-11
7.84678e-10
-4.96764e-11
8.0155e-10
-4.83408e-11
8.17944e-10
-4.69659e-11
8.3385e-10
-4.55509e-11
8.49256e-10
-4.40994e-11
8.64153e-10
-4.2615e-11
8.78532e-10
-4.11033e-11
8.92383e-10
-3.9568e-11
9.05699e-10
-3.80091e-11
9.18469e-10
-3.64311e-11
9.30685e-10
-3.48414e-11
9.42342e-10
-3.32424e-11
9.53433e-10
-3.16349e-11
9.63947e-10
-3.00196e-11
9.73879e-10
-2.83931e-11
9.83228e-10
-2.67529e-11
9.91989e-10
-2.51e-11
1.00016e-09
-2.34345e-11
1.00774e-09
-2.1754e-11
1.01472e-09
-2.00574e-11
1.0211e-09
-1.83456e-11
1.02688e-09
-1.66196e-11
1.03205e-09
-1.48803e-11
1.03662e-09
-1.31298e-11
1.04058e-09
-1.13692e-11
1.04393e-09
-9.59848e-12
1.04668e-09
-7.81771e-12
1.04881e-09
-6.03044e-12
1.05033e-09
-4.24041e-12
1.05124e-09
-2.4492e-12
1.05153e-09
-6.57942e-13
1.05121e-09
1.13242e-12
1.05028e-09
2.92096e-12
1.04873e-09
4.70713e-12
1.04657e-09
6.48918e-12
1.04379e-09
8.26351e-12
1.0404e-09
1.00284e-11
1.0364e-09
1.17846e-11
1.03179e-09
1.35338e-11
1.02657e-09
1.52755e-11
1.02073e-09
1.70089e-11
1.01429e-09
1.8734e-11
1.00725e-09
2.04496e-11
9.99606e-10
2.21546e-11
9.91361e-10
2.38509e-11
9.8252e-10
2.55407e-11
9.73088e-10
2.72248e-11
9.63069e-10
2.89017e-11
9.52468e-10
3.05683e-11
9.41293e-10
3.22228e-11
9.29548e-10
3.38638e-11
9.1724e-10
3.54895e-11
9.04374e-10
3.70979e-11
8.90961e-10
3.86865e-11
8.77008e-10
4.02524e-11
8.62524e-10
4.17906e-11
8.47518e-10
4.32963e-11
8.32001e-10
4.47676e-11
8.15983e-10
4.62029e-11
7.99477e-10
4.75999e-11
7.82492e-10
4.89573e-11
7.65046e-10
5.02724e-11
7.47154e-10
5.15426e-11
7.28829e-10
5.2766e-11
7.10092e-10
5.39401e-11
6.90959e-10
5.50629e-11
6.71452e-10
5.61336e-11
6.51594e-10
5.71491e-11
6.31407e-10
5.81055e-11
6.10915e-10
5.89984e-11
5.90145e-10
5.98219e-11
5.69123e-10
6.05702e-11
5.47878e-10
6.12383e-11
5.26441e-10
6.182e-11
5.04842e-10
6.23107e-11
4.83116e-10
6.27063e-11
4.61299e-10
6.30007e-11
4.39427e-10
6.31874e-11
4.17539e-10
6.32595e-11
3.95675e-10
6.32093e-11
3.73878e-10
6.30307e-11
3.52191e-10
6.27185e-11
3.30661e-10
6.22665e-11
3.09335e-10
6.16694e-11
2.88263e-10
6.09223e-11
2.67498e-10
6.00192e-11
2.47094e-10
5.89536e-11
2.27104e-10
5.77206e-11
2.07588e-10
5.63154e-11
1.88603e-10
5.47337e-11
1.70211e-10
5.29721e-11
1.52475e-10
5.1026e-11
1.35454e-10
4.88901e-11
1.19212e-10
4.65607e-11
1.0381e-10
4.40364e-11
8.93099e-11
4.13165e-11
7.57696e-11
3.84029e-11
6.32468e-11
3.53014e-11
5.17946e-11
3.2022e-11
4.14601e-11
2.85798e-11
3.22844e-11
2.49992e-11
2.42968e-11
2.13135e-11
1.75136e-11
1.75659e-11
1.19349e-11
1.38188e-11
7.53769e-12
1.01571e-11
4.26992e-12
6.69071e-12
2.04265e-12
3.56912e-12
7.20471e-13
9.91029e-13
1.08689e-13
-7.82099e-13
-4.39418e-14
-1.45729e-12
-9.51667e-13
1.03579e-12
-6.61159e-12
3.18268e-12
-5.18303e-12
5.48832e-12
-1.86017e-12
8.21607e-12
-1.56096e-12
1.17468e-11
-3.75111e-12
1.63026e-11
-7.52899e-12
2.2063e-11
-1.23109e-11
2.91227e-11
-1.76659e-11
3.75417e-11
-2.33177e-11
4.73185e-11
-2.9054e-11
5.84718e-11
-3.4752e-11
7.09389e-11
-4.02837e-11
8.47055e-11
-4.56191e-11
9.96916e-11
-5.06675e-11
1.15863e-10
-5.54379e-11
1.3314e-10
-5.98606e-11
1.51466e-10
-6.39663e-11
1.70782e-10
-6.772e-11
1.91009e-10
-7.11384e-11
2.12085e-10
-7.42159e-11
2.33936e-10
-7.69748e-11
2.5649e-10
-7.9429e-11
2.79677e-10
-8.15894e-11
3.03428e-10
-8.34756e-11
3.27672e-10
-8.50944e-11
3.5234e-10
-8.64599e-11
3.77372e-10
-8.75888e-11
4.02705e-10
-8.84871e-11
4.28275e-10
-8.91668e-11
4.54026e-10
-8.96412e-11
4.79907e-10
-8.99239e-11
5.05861e-10
-9.00251e-11
5.31835e-10
-8.99499e-11
5.57782e-10
-8.97107e-11
5.83659e-10
-8.93215e-11
6.09421e-10
-8.87853e-11
6.35024e-10
-8.81113e-11
6.60429e-10
-8.73089e-11
6.85605e-10
-8.63876e-11
7.10511e-10
-8.5356e-11
7.35112e-10
-8.4219e-11
7.59377e-10
-8.29876e-11
7.83276e-10
-8.16659e-11
8.0678e-10
-8.02603e-11
8.29861e-10
-7.87778e-11
8.52495e-10
-7.722e-11
8.74658e-10
-7.55888e-11
8.96326e-10
-7.38888e-11
9.17481e-10
-7.21249e-11
9.38107e-10
-7.03009e-11
9.58183e-10
-6.84185e-11
9.77695e-10
-6.64781e-11
9.96627e-10
-6.44838e-11
1.01497e-09
-6.24407e-11
1.03271e-09
-6.03534e-11
1.04983e-09
-5.82268e-11
1.06632e-09
-5.60631e-11
1.08218e-09
-5.38655e-11
1.09739e-09
-5.16409e-11
1.11194e-09
-4.93943e-11
1.12583e-09
-4.71285e-11
1.13904e-09
-4.48462e-11
1.15157e-09
-4.25467e-11
1.16341e-09
-4.02288e-11
1.17455e-09
-3.78931e-11
1.18499e-09
-3.55407e-11
1.19472e-09
-3.31708e-11
1.20375e-09
-3.07819e-11
1.21207e-09
-2.83739e-11
1.21967e-09
-2.59479e-11
1.22656e-09
-2.35047e-11
1.23272e-09
-2.1047e-11
1.23817e-09
-1.85769e-11
1.2429e-09
-1.60941e-11
1.2469e-09
-1.35983e-11
1.25017e-09
-1.10916e-11
1.25272e-09
-8.57827e-12
1.25454e-09
-6.06175e-12
1.25563e-09
-3.54274e-12
1.256e-09
-1.02235e-12
1.25563e-09
1.49821e-12
1.25453e-09
4.01818e-12
1.25271e-09
6.53558e-12
1.25015e-09
9.04718e-12
1.24686e-09
1.15502e-11
1.24285e-09
1.40445e-11
1.2381e-09
1.65309e-11
1.23263e-09
1.90088e-11
1.22642e-09
2.14772e-11
1.2195e-09
2.3935e-11
1.21185e-09
2.63818e-11
1.20348e-09
2.88169e-11
1.1944e-09
3.1239e-11
1.1846e-09
3.36494e-11
1.17409e-09
3.60492e-11
1.16288e-09
3.84366e-11
1.15097e-09
4.08098e-11
1.13837e-09
4.31671e-11
1.12509e-09
4.55063e-11
1.11112e-09
4.78251e-11
1.09649e-09
5.01204e-11
1.0812e-09
5.23901e-11
1.06526e-09
5.4631e-11
1.04867e-09
5.68379e-11
1.03145e-09
5.90061e-11
1.01362e-09
6.1131e-11
9.95175e-10
6.32101e-11
9.76138e-10
6.52408e-11
9.56519e-10
6.72191e-11
9.36334e-10
6.91413e-11
9.15601e-10
7.10048e-11
8.9434e-10
7.28055e-11
8.72566e-10
7.45394e-11
8.50303e-10
7.62033e-11
8.27572e-10
7.77933e-11
8.04398e-10
7.93065e-11
7.80809e-10
8.0739e-11
7.56831e-10
8.2084e-11
7.32493e-10
8.33355e-11
7.07827e-10
8.44874e-11
6.82866e-10
8.5532e-11
6.57641e-10
8.64622e-11
6.32191e-10
8.72707e-11
6.06552e-10
8.79501e-11
5.80764e-10
8.84942e-11
5.5487e-10
8.88956e-11
5.28911e-10
8.91453e-11
5.02935e-10
8.92348e-11
4.76989e-10
8.91553e-11
4.51124e-10
8.88976e-11
4.25388e-10
8.84539e-11
3.99838e-10
8.78172e-11
3.74527e-10
8.69794e-11
3.49516e-10
8.5933e-11
3.24865e-10
8.46706e-11
3.00635e-10
8.31834e-11
2.76891e-10
8.14638e-11
2.537e-10
7.95063e-11
2.31129e-10
7.73052e-11
2.09247e-10
7.4854e-11
1.88125e-10
7.21479e-11
1.67833e-10
6.91821e-11
1.48443e-10
6.59521e-11
1.30023e-10
6.24563e-11
1.12642e-10
5.86971e-11
9.63668e-11
5.46785e-11
8.12592e-11
5.04084e-11
6.73781e-11
4.59025e-11
5.47764e-11
4.11823e-11
4.34982e-11
3.62785e-11
3.3575e-11
3.12362e-11
2.50258e-11
2.61148e-11
1.78523e-11
2.09931e-11
1.20317e-11
1.59779e-11
7.51418e-12
1.12079e-11
4.21644e-12
6.86625e-12
2.01288e-12
3.19475e-12
7.25286e-13
5.05461e-13
1.28486e-13
-8.60432e-13
-8.2279e-13
9.84727e-13
-7.59499e-12
3.31389e-12
-7.51065e-12
6.26079e-12
-4.80629e-12
9.99593e-12
-5.29302e-12
1.47864e-11
-8.54416e-12
2.08253e-11
-1.35648e-11
2.82282e-11
-1.97136e-11
3.70788e-11
-2.65153e-11
4.7415e-11
-3.36515e-11
5.92546e-11
-4.08925e-11
7.25753e-11
-4.80705e-11
8.73575e-11
-5.50674e-11
1.03546e-10
-6.18094e-11
1.211e-10
-6.82211e-11
1.39933e-10
-7.42729e-11
1.60006e-10
-7.99352e-11
1.81228e-10
-8.51881e-11
2.03542e-10
-9.00364e-11
2.26868e-10
-9.44632e-11
2.51139e-10
-9.8488e-11
2.76275e-10
-1.02114e-10
3.02197e-10
-1.05351e-10
3.28826e-10
-1.08221e-10
3.56088e-10
-1.10737e-10
3.83907e-10
-1.12912e-10
4.12207e-10
-1.14762e-10
4.40919e-10
-1.16299e-10
4.6997e-10
-1.17538e-10
4.99295e-10
-1.18494e-10
5.28833e-10
-1.19178e-10
5.58515e-10
-1.19607e-10
5.88283e-10
-1.19792e-10
6.18081e-10
-1.19747e-10
6.47854e-10
-1.19485e-10
6.77547e-10
-1.19014e-10
7.07111e-10
-1.1835e-10
7.36501e-10
-1.175e-10
7.65669e-10
-1.16477e-10
7.94573e-10
-1.15292e-10
8.23174e-10
-1.13955e-10
8.51429e-10
-1.12476e-10
8.79304e-10
-1.10862e-10
9.0676e-10
-1.09122e-10
9.33768e-10
-1.07268e-10
9.60296e-10
-1.05305e-10
9.86312e-10
-1.03236e-10
1.01179e-09
-1.01067e-10
1.0367e-09
-9.88047e-11
1.06103e-09
-9.64553e-11
1.08476e-09
-9.40232e-11
1.10785e-09
-9.15118e-11
1.1303e-09
-8.89244e-11
1.15208e-09
-8.62671e-11
1.17319e-09
-8.3546e-11
1.1936e-09
-8.07668e-11
1.21331e-09
-7.79321e-11
1.23229e-09
-7.50466e-11
1.25054e-09
-7.21172e-11
1.26805e-09
-6.91493e-11
1.2848e-09
-6.6147e-11
1.30079e-09
-6.31155e-11
1.316e-09
-6.00565e-11
1.33042e-09
-5.69699e-11
1.34405e-09
-5.38581e-11
1.35688e-09
-5.07236e-11
1.36891e-09
-4.75662e-11
1.38012e-09
-4.43853e-11
1.39052e-09
-4.11812e-11
1.40011e-09
-3.79542e-11
1.40886e-09
-3.47057e-11
1.4168e-09
-3.14381e-11
1.4239e-09
-2.81543e-11
1.43018e-09
-2.48551e-11
1.43563e-09
-2.15398e-11
1.44024e-09
-1.82098e-11
1.44402e-09
-1.48686e-11
1.44696e-09
-1.15198e-11
1.44906e-09
-8.16597e-12
1.45033e-09
-4.80863e-12
1.45076e-09
-1.44902e-12
1.45034e-09
1.91154e-12
1.44909e-09
5.27229e-12
1.447e-09
8.63019e-12
1.44406e-09
1.19813e-11
1.44029e-09
1.53239e-11
1.43567e-09
1.86585e-11
1.43022e-09
2.19847e-11
1.42393e-09
2.53007e-11
1.4168e-09
2.86055e-11
1.40884e-09
3.18977e-11
1.40005e-09
3.5175e-11
1.39043e-09
3.84367e-11
1.37998e-09
4.16829e-11
1.36871e-09
4.49144e-11
1.35663e-09
4.81302e-11
1.34374e-09
5.13272e-11
1.33005e-09
5.45025e-11
1.31556e-09
5.76544e-11
1.30029e-09
6.07802e-11
1.28424e-09
6.38771e-11
1.26741e-09
6.69419e-11
1.24983e-09
6.99718e-11
1.2315e-09
7.29624e-11
1.21243e-09
7.59068e-11
1.19264e-09
7.87994e-11
1.17213e-09
8.16363e-11
1.15093e-09
8.44133e-11
1.12904e-09
8.71264e-11
1.10649e-09
8.9771e-11
1.08329e-09
9.23416e-11
1.05946e-09
9.48339e-11
1.03503e-09
9.72426e-11
1.01e-09
9.95614e-11
9.8442e-10
1.01786e-10
9.58303e-10
1.03911e-10
9.31679e-10
1.05931e-10
9.04578e-10
1.0784e-10
8.77032e-10
1.0963e-10
8.49075e-10
1.11292e-10
8.20744e-10
1.12819e-10
7.92074e-10
1.14202e-10
7.63104e-10
1.15431e-10
7.33876e-10
1.16498e-10
7.04434e-10
1.17393e-10
6.74821e-10
1.18107e-10
6.45087e-10
1.1863e-10
6.1528e-10
1.18952e-10
5.85453e-10
1.19062e-10
5.55661e-10
1.18948e-10
5.25959e-10
1.186e-10
4.96406e-10
1.18008e-10
4.67062e-10
1.17161e-10
4.37991e-10
1.1605e-10
4.0926e-10
1.14665e-10
3.80936e-10
1.12995e-10
3.53088e-10
1.1103e-10
3.25789e-10
1.08762e-10
2.99114e-10
1.06182e-10
2.73137e-10
1.03282e-10
2.47936e-10
1.00056e-10
2.23588e-10
9.64967e-11
2.00169e-10
9.25992e-11
1.7776e-10
8.83613e-11
1.56437e-10
8.37811e-11
1.36273e-10
7.88612e-11
1.17342e-10
7.36098e-11
9.97107e-11
6.80395e-11
8.34433e-11
6.21698e-11
6.85954e-11
5.60297e-11
5.52156e-11
4.96589e-11
4.33393e-11
4.31127e-11
3.29875e-11
3.64656e-11
2.41663e-11
2.98145e-11
1.68578e-11
2.32872e-11
1.10174e-11
1.7048e-11
6.57242e-12
1.13105e-11
3.41381e-12
6.35306e-12
1.38935e-12
2.53011e-12
3.10024e-13
2.18868e-13
-5.12709e-13
9.26502e-13
-8.51969e-12
3.42896e-12
-1.00147e-11
7.00566e-12
-8.38391e-12
1.17501e-11
-1.00382e-11
1.77998e-11
-1.45909e-11
2.53109e-11
-2.10793e-11
3.43589e-11
-2.87594e-11
4.50059e-11
-3.71646e-11
5.72739e-11
-4.59215e-11
7.11677e-11
-5.47839e-11
8.66574e-11
-6.35659e-11
1.03733e-10
-7.2137e-11
1.22303e-10
-8.03809e-11
1.42359e-10
-8.82766e-11
1.63812e-10
-9.57214e-11
1.86598e-10
-1.02723e-10
2.1064e-10
-1.09228e-10
2.3586e-10
-1.15255e-10
2.62182e-10
-1.20789e-10
2.8953e-10
-1.25835e-10
3.17818e-10
-1.30398e-10
3.46962e-10
-1.34496e-10
3.76883e-10
-1.38142e-10
4.07497e-10
-1.4135e-10
4.38718e-10
-1.44134e-10
4.7047e-10
-1.46511e-10
5.02673e-10
-1.48502e-10
5.35253e-10
-1.50119e-10
5.68137e-10
-1.51375e-10
6.01248e-10
-1.52292e-10
6.34525e-10
-1.52883e-10
6.67899e-10
-1.53165e-10
7.01303e-10
-1.53152e-10
7.34681e-10
-1.52861e-10
7.67972e-10
-1.52306e-10
8.01122e-10
-1.51498e-10
8.34074e-10
-1.50454e-10
8.66782e-10
-1.49186e-10
8.99199e-10
-1.47707e-10
9.31274e-10
-1.46031e-10
9.62965e-10
-1.44167e-10
9.94233e-10
-1.42129e-10
1.02504e-09
-1.39927e-10
1.05534e-09
-1.37571e-10
1.0851e-09
-1.35069e-10
1.1143e-09
-1.3243e-10
1.14289e-09
-1.29662e-10
1.17086e-09
-1.26773e-10
1.19818e-09
-1.23769e-10
1.22481e-09
-1.20658e-10
1.25074e-09
-1.17444e-10
1.27595e-09
-1.14133e-10
1.30042e-09
-1.10733e-10
1.32412e-09
-1.07253e-10
1.34705e-09
-1.03696e-10
1.36919e-09
-1.00067e-10
1.39052e-09
-9.63728e-11
1.41102e-09
-9.26215e-11
1.43069e-09
-8.88181e-11
1.44951e-09
-8.49688e-11
1.46747e-09
-8.1078e-11
1.48456e-09
-7.71467e-11
1.50077e-09
-7.31782e-11
1.51609e-09
-6.91773e-11
1.53051e-09
-6.5146e-11
1.54403e-09
-6.10844e-11
1.55664e-09
-5.69931e-11
1.56833e-09
-5.28734e-11
1.5791e-09
-4.87261e-11
1.58895e-09
-4.45542e-11
1.59788e-09
-4.03611e-11
1.60587e-09
-3.61482e-11
1.61293e-09
-3.19159e-11
1.61906e-09
-2.7665e-11
1.62425e-09
-2.33984e-11
1.6285e-09
-1.912e-11
1.63181e-09
-1.48323e-11
1.63418e-09
-1.05373e-11
1.63561e-09
-6.23751e-12
1.6361e-09
-1.93424e-12
1.63564e-09
2.37114e-12
1.63423e-09
6.67639e-12
1.63189e-09
1.09778e-11
1.6286e-09
1.52724e-11
1.62436e-09
1.95595e-11
1.61918e-09
2.38382e-11