/*--------------------------------*- C++ -*----------------------------------*\
  =========                 |
  \\      /  F ield         | OpenFOAM: The Open Source CFD Toolbox
   \\    /   O peration     | Website:  https://openfoam.org
    \\  /    A nd           | Version:  7
     \\/     M anipulation  |
\*---------------------------------------------------------------------------*/
FoamFile
{
    version     2.0;
    format      ascii;
    class       surfaceScalarField;
    location    "0.25";
    object      phi;
}
// * * * * * * * * * * * * * * * * * * * * * * * * * * * * * * * * * * * * * //

dimensions      [0 3 -1 0 0 0 0];

internalField   nonuniform List<scalar> 
101920
(
-5.7865e-13
-4.89372e-13
-8.88734e-14
-4.8662e-13
4.5846e-13
-5.49525e-13
1.13254e-12
-6.70611e-13
1.85034e-12
-7.17763e-13
2.57304e-12
-7.2529e-13
3.28449e-12
-7.11666e-13
3.97239e-12
-6.90101e-13
4.62926e-12
-6.58299e-13
5.24035e-12
-6.10907e-13
5.79354e-12
-5.53728e-13
6.28112e-12
-4.87272e-13
6.6934e-12
-4.13533e-13
7.02397e-12
-3.30593e-13
7.26764e-12
-2.42183e-13
7.42034e-12
-1.49477e-13
7.47847e-12
-5.5401e-14
7.43895e-12
4.04284e-14
7.30062e-12
1.37901e-13
7.06411e-12
2.36882e-13
6.72932e-12
3.35658e-13
6.29837e-12
4.32686e-13
5.77306e-12
5.27246e-13
5.15345e-12
6.19347e-13
4.44256e-12
7.09277e-13
3.64394e-12
7.97303e-13
2.75966e-12
8.82296e-13
1.79455e-12
9.64024e-13
7.52906e-13
1.04282e-12
-3.64499e-13
1.11774e-12
-1.55321e-12
1.18814e-12
-2.80751e-12
1.25431e-12
-4.12417e-12
1.31565e-12
-5.4967e-12
1.37148e-12
-6.91914e-12
1.42248e-12
-8.38864e-12
1.46981e-12
-9.90211e-12
1.51337e-12
-1.14549e-11
1.55285e-12
-1.30421e-11
1.58749e-12
-1.46589e-11
1.61659e-12
-1.63001e-11
1.64068e-12
-1.79598e-11
1.66039e-12
-1.96341e-11
1.67558e-12
-2.13192e-11
1.68616e-12
-2.30107e-11
1.69221e-12
-2.47046e-11
1.69387e-12
-2.63969e-11
1.69115e-12
-2.80825e-11
1.68404e-12
-2.97571e-11
1.67314e-12
-3.14167e-11
1.6586e-12
-3.30573e-11
1.6399e-12
-3.46745e-11
1.61712e-12
-3.62642e-11
1.59036e-12
-3.78233e-11
1.55941e-12
-3.93491e-11
1.52496e-12
-4.08382e-11
1.48806e-12
-4.22874e-11
1.44906e-12
-4.36937e-11
1.40753e-12
-4.50536e-11
1.3622e-12
-4.63638e-11
1.31238e-12
-4.76222e-11
1.25888e-12
-4.88261e-11
1.20288e-12
-4.99731e-11
1.14512e-12
-5.1061e-11
1.08596e-12
-5.20874e-11
1.02523e-12
-5.30506e-11
9.62591e-13
-5.39494e-11
8.98256e-13
-5.47827e-11
8.33012e-13
-5.55497e-11
7.67291e-13
-5.62485e-11
7.00261e-13
-5.68769e-11
6.30736e-13
-5.74337e-11
5.58553e-13
-5.7918e-11
4.84471e-13
-5.83296e-11
4.09736e-13
-5.86678e-11
3.35458e-13
-5.89317e-11
2.61827e-13
-5.91204e-11
1.88226e-13
-5.92331e-11
1.13791e-13
-5.92695e-11
3.8153e-14
-5.92293e-11
-3.82914e-14
-5.9113e-11
-1.15204e-13
-5.89212e-11
-1.92273e-13
-5.86543e-11
-2.68679e-13
-5.83124e-11
-3.43708e-13
-5.78962e-11
-4.17023e-13
-5.74067e-11
-4.88915e-13
-5.68446e-11
-5.60478e-13
-5.62113e-11
-6.32008e-13
-5.55089e-11
-7.02445e-13
-5.47386e-11
-7.7092e-13
-5.39023e-11
-8.37185e-13
-5.30014e-11
-9.01401e-13
-5.20369e-11
-9.64161e-13
-5.10104e-11
-1.02565e-12
-4.99244e-11
-1.08536e-12
-4.87812e-11
-1.14287e-12
-4.75832e-11
-1.19799e-12
-4.63329e-11
-1.25046e-12
-4.5032e-11
-1.30034e-12
-4.36834e-11
-1.34784e-12
-4.229e-11
-1.39288e-12
-4.08545e-11
-1.43516e-12
-3.93798e-11
-1.47449e-12
-3.78685e-11
-1.51085e-12
-3.63238e-11
-1.54421e-12
-3.47488e-11
-1.57436e-12
-3.31473e-11
-1.60093e-12
-3.15234e-11
-1.6235e-12
-2.9881e-11
-1.64198e-12
-2.8224e-11
-1.65654e-12
-2.65561e-11
-1.66736e-12
-2.48809e-11
-1.67462e-12
-2.32022e-11
-1.67822e-12
-2.15246e-11
-1.67763e-12
-1.98523e-11
-1.67247e-12
-1.81896e-11
-1.66282e-12
-1.65404e-11
-1.64892e-12
-1.4909e-11
-1.63099e-12
-1.33e-11
-1.60891e-12
-1.17182e-11
-1.58229e-12
-1.01682e-11
-1.55085e-12
-8.65428e-12
-1.51464e-12
-7.18053e-12
-1.47396e-12
-5.75108e-12
-1.42913e-12
-4.37014e-12
-1.38032e-12
-3.04203e-12
-1.32763e-12
-1.77124e-12
-1.27084e-12
-5.62045e-13
-1.20955e-12
5.81544e-13
-1.14372e-12
1.65576e-12
-1.07385e-12
2.65705e-12
-1.00054e-12
3.58152e-12
-9.2384e-13
4.42518e-12
-8.43287e-13
5.18447e-12
-7.58714e-13
5.85635e-12
-6.70879e-13
6.43839e-12
-5.80944e-13
6.92864e-12
-4.89473e-13
7.32523e-12
-3.96215e-13
7.62661e-12
-3.00987e-13
7.83196e-12
-2.04459e-13
7.94108e-12
-1.07894e-13
7.95436e-12
-1.23074e-14
7.87261e-12
8.21297e-14
7.69757e-12
1.75192e-13
7.43203e-12
2.6597e-13
7.0794e-12
3.53202e-13
6.64385e-12
4.35828e-13
6.13152e-12
5.12288e-13
5.55089e-12
5.80419e-13
4.9128e-12
6.37973e-13
4.23035e-12
6.82385e-13
3.51916e-12
7.10777e-13
2.79848e-12
7.19948e-13
2.09239e-12
7.05528e-13
1.42983e-12
6.62219e-13
8.44923e-13
5.84556e-13
3.77155e-13
4.67259e-13
6.84848e-14
3.07949e-13
-4.76216e-14
1.15452e-13
-4.79647e-14
-2.36802e-13
-2.49177e-13
2.75453e-13
-1.00627e-12
1.38928e-12
-1.66347e-12
2.87265e-12
-2.15335e-12
4.55197e-12
-2.39752e-12
6.31419e-12
-2.48344e-12
8.07812e-12
-2.4728e-12
9.79364e-12
-2.40443e-12
1.14227e-11
-2.28509e-12
1.29308e-11
-2.11961e-12
1.42877e-11
-1.90869e-12
1.54634e-11
-1.66213e-12
1.64354e-11
-1.38402e-12
1.7181e-11
-1.0782e-12
1.7683e-11
-7.49328e-13
1.79318e-11
-4.01551e-13
1.79172e-11
-4.0724e-14
1.76309e-11
3.26371e-13
1.70714e-11
6.98962e-13
1.62344e-11
1.07326e-12
1.51205e-11
1.44603e-12
1.37349e-11
1.81732e-12
1.20795e-11
2.18253e-12
1.01607e-11
2.53926e-12
7.98602e-12
2.88799e-12
5.56114e-12
3.22562e-12
2.89422e-12
3.55012e-12
-4.05765e-15
3.86288e-12
-3.1237e-12
4.16263e-12
-6.45426e-12
4.44763e-12
-9.98231e-12
4.71747e-12
-1.36964e-11
4.97015e-12
-1.75863e-11
5.20466e-12
-2.16372e-11
5.42194e-12
-2.58362e-11
5.62158e-12
-3.01722e-11
5.80415e-12
-3.46303e-11
5.97069e-12
-3.91968e-11
6.12007e-12
-4.38598e-11
6.25047e-12
-4.86056e-11
6.36171e-12
-5.34205e-11
6.45444e-12
-5.82916e-11
6.5294e-12
-6.32062e-11
6.58703e-12
-6.81503e-11
6.6281e-12
-7.311e-11
6.65254e-12
-7.80739e-11
6.65941e-12
-8.30303e-11
6.64877e-12
-8.7966e-11
6.62141e-12
-9.28693e-11
6.57796e-12
-9.77289e-11
6.51853e-12
-1.02533e-10
6.44326e-12
-1.07269e-10
6.35314e-12
-1.11928e-10
6.24889e-12
-1.16497e-10
6.13017e-12
-1.20968e-10
5.99732e-12
-1.25332e-10
5.85153e-12
-1.29579e-10
5.69376e-12
-1.337e-10
5.52476e-12
-1.37687e-10
5.34486e-12
-1.41529e-10
5.15371e-12
-1.4522e-10
4.95115e-12
-1.48753e-10
4.73758e-12
-1.5212e-10
4.51415e-12
-1.55315e-10
4.28235e-12
-1.58332e-10
4.04309e-12
-1.61165e-10
3.79654e-12
-1.63809e-10
3.5431e-12
-1.6626e-10
3.28358e-12
-1.68514e-10
3.01873e-12
-1.70567e-10
2.74882e-12
-1.72413e-10
2.47393e-12
-1.7405e-10
2.19435e-12
-1.75473e-10
1.9103e-12
-1.76681e-10
1.622e-12
-1.77673e-10
1.33018e-12
-1.78446e-10
1.03574e-12
-1.78998e-10
7.39534e-13
-1.7933e-10
4.42313e-13
-1.79439e-10
1.44571e-13
-1.79326e-10
-1.53138e-13
-1.7899e-10
-4.50514e-13
-1.78433e-10
-7.47592e-13
-1.77655e-10
-1.04385e-12
-1.76659e-10
-1.33833e-12
-1.75446e-10
-1.62992e-12
-1.74021e-10
-1.91726e-12
-1.72383e-10
-2.19984e-12
-1.70537e-10
-2.47804e-12
-1.68487e-10
-2.75162e-12
-1.66236e-10
-3.01997e-12
-1.6379e-10
-3.28264e-12
-1.61153e-10
-3.53893e-12
-1.58329e-10
-3.78822e-12
-1.55325e-10
-4.0302e-12
-1.52146e-10
-4.26434e-12
-1.48797e-10
-4.49013e-12
-1.45287e-10
-4.7072e-12
-1.41622e-10
-4.91498e-12
-1.37809e-10
-5.11288e-12
-1.33855e-10
-5.30058e-12
-1.2977e-10
-5.47777e-12
-1.2556e-10
-5.64399e-12
-1.21235e-10
-5.79882e-12
-1.16803e-10
-5.94186e-12
-1.12274e-10
-6.07249e-12
-1.07658e-10
-6.1899e-12
-1.02964e-10
-6.29338e-12
-9.82044e-11
-6.38245e-12
-9.33886e-11
-6.45694e-12
-8.85276e-11
-6.51681e-12
-8.3633e-11
-6.56171e-12
-7.87162e-11
-6.59123e-12
-7.37884e-11
-6.60522e-12
-6.88618e-11
-6.60342e-12
-6.39485e-11
-6.58541e-12
-5.90612e-11
-6.55089e-12
-5.42119e-11
-6.49951e-12
-4.94127e-11
-6.43102e-12
-4.46761e-11
-6.34532e-12
-4.00151e-11
-6.24245e-12
-3.54428e-11
-6.12253e-12
-3.09723e-11
-5.98561e-12
-2.66157e-11
-5.83168e-12
-2.23854e-11
-5.66069e-12
-1.82935e-11
-5.47276e-12
-1.43523e-11
-5.26834e-12
-1.05741e-11
-5.04797e-12
-6.97095e-12
-4.81184e-12
-3.55417e-12
-4.55995e-12
-3.3501e-13
-4.29261e-12
2.67583e-12
-4.01054e-12
5.46795e-12
-3.71461e-12
8.03127e-12
-3.40547e-12
1.03569e-11
-3.08363e-12
1.24371e-11
-2.75011e-12
1.42647e-11
-2.40684e-12
1.58336e-11
-2.05595e-12
1.71384e-11
-1.6989e-12
1.81753e-11
-1.33675e-12
1.89424e-11
-9.71065e-13
1.94397e-11
-6.04346e-13
1.96685e-11
-2.39649e-13
1.96318e-11
1.20264e-13
1.93344e-11
4.73029e-13
1.87848e-11
8.1549e-13
1.79949e-11
1.14327e-12
1.69795e-11
1.45152e-12
1.57574e-11
1.73458e-12
1.43518e-11
1.98564e-12
1.27915e-11
2.19728e-12
1.11122e-11
2.36086e-12
9.35647e-12
2.46606e-12
7.57419e-12
2.50148e-12
5.82445e-12
2.45426e-12
4.17566e-12
2.31001e-12
2.70418e-12
2.05496e-12
1.49088e-12
1.67952e-12
6.12058e-13
1.18576e-12
1.1982e-13
6.06575e-13
7.13909e-14
8.96092e-14
-3.40903e-13
7.58654e-13
-1.67297e-12
2.15767e-12
-3.06659e-12
4.10223e-12
-4.09584e-12
6.38347e-12
-4.6809e-12
8.828e-12
-4.92892e-12
1.13135e-11
-4.96009e-12
1.37498e-11
-4.83889e-12
1.60615e-11
-4.59747e-12
1.819e-11
-4.24785e-12
2.00808e-11
-3.80099e-12
2.169e-11
-3.27093e-12
2.29782e-11
-2.66881e-12
2.39124e-11
-2.00852e-12
2.44651e-11
-1.29979e-12
2.46157e-11
-5.51824e-13
2.43495e-11
2.24708e-13
2.36558e-11
1.02103e-12
2.25277e-11
1.8291e-12
2.09627e-11
2.64039e-12
1.89601e-11
3.45031e-12
1.65228e-11
4.25363e-12
1.36573e-11
5.04529e-12
1.03727e-11
5.8222e-12
6.67836e-12
6.58051e-12
2.58768e-12
7.31561e-12
-1.88518e-12
8.02497e-12
-6.72815e-12
8.7062e-12
-1.1924e-11
9.3575e-12
-1.74545e-11
9.97785e-12
-2.33029e-11
1.05649e-11
-2.94494e-11
1.11155e-11
-3.58735e-11
1.16288e-11
-4.25556e-11
1.21044e-11
-4.94753e-11
1.25412e-11
-5.66118e-11
1.29402e-11
-6.3943e-11
1.33021e-11
-7.14483e-11
1.36254e-11
-7.9107e-11
1.39088e-11
-8.68962e-11
1.41522e-11
-9.4795e-11
1.43553e-11
-1.02783e-10
1.45182e-11
-1.10838e-10
1.46422e-11
-1.18939e-10
1.47287e-11
-1.27066e-10
1.47779e-11
-1.35198e-10
1.47893e-11
-1.43314e-10
1.47637e-11
-1.51396e-10
1.47018e-11
-1.59422e-10
1.46043e-11
-1.67376e-10
1.44718e-11
-1.75237e-10
1.43049e-11
-1.82988e-10
1.41047e-11
-1.90613e-10
1.38727e-11
-1.98094e-10
1.36101e-11
-2.05414e-10
1.33179e-11
-2.12558e-10
1.29969e-11
-2.19509e-10
1.26479e-11
-2.26254e-10
1.22716e-11
-2.32779e-10
1.18697e-11
-2.39071e-10
1.14436e-11
-2.45116e-10
1.09942e-11
-2.50904e-10
1.05227e-11
-2.56421e-10
1.00303e-11
-2.61658e-10
9.51843e-12
-2.66604e-10
8.98871e-12
-2.7125e-10
8.44246e-12
-2.75587e-10
7.88099e-12
-2.79606e-10
7.30538e-12
-2.83301e-10
6.71608e-12
-2.86664e-10
6.11372e-12
-2.89691e-10
5.49952e-12
-2.92375e-10
4.87537e-12
-2.94711e-10
4.24313e-12
-2.96695e-10
3.60388e-12
-2.98322e-10
2.95816e-12
-2.99591e-10
2.30657e-12
-3.005e-10
1.65011e-12
-3.01046e-10
9.90226e-13
-3.01229e-10
3.28391e-13
-3.0105e-10
-3.33826e-13
-3.00508e-10
-9.94735e-13
-2.99605e-10
-1.65309e-12
-2.98341e-10
-2.30786e-12
-2.9672e-10
-2.95815e-12
-2.94744e-10
-3.60314e-12
-2.9242e-10
-4.24132e-12
-2.8975e-10
-4.87072e-12
-2.86739e-10
-5.49005e-12
-2.83393e-10
-6.09835e-12
-2.79718e-10
-6.69463e-12
-2.75722e-10
-7.27822e-12
-2.71412e-10
-7.84821e-12
-2.66797e-10
-8.40325e-12
-2.61885e-10
-8.94208e-12
-2.56686e-10
-9.4634e-12
-2.5121e-10
-9.96593e-12
-2.45468e-10
-1.04488e-11
-2.3947e-10
-1.09114e-11
-2.3323e-10
-1.13525e-11
-2.2676e-10
-1.17709e-11
-2.20072e-10
-1.21656e-11
-2.1318e-10
-1.25354e-11
-2.06099e-10
-1.28795e-11
-1.98842e-10
-1.31971e-11
-1.91427e-10
-1.34871e-11
-1.83869e-10
-1.3748e-11
-1.76183e-10
-1.39787e-11
-1.68387e-10
-1.41782e-11
-1.60497e-10
-1.43458e-11
-1.52532e-10
-1.44812e-11
-1.4451e-10
-1.45836e-11
-1.36449e-10
-1.46522e-11
-1.28369e-10
-1.4686e-11
-1.20288e-10
-1.46845e-11
-1.12225e-10
-1.46474e-11
-1.04201e-10
-1.45742e-11
-9.62369e-11
-1.44645e-11
-8.83514e-11
-1.43175e-11
-8.05652e-11
-1.41327e-11
-7.28985e-11
-1.39099e-11
-6.53718e-11
-1.36494e-11
-5.80057e-11
-1.33514e-11
-5.08206e-11
-1.30164e-11
-4.38368e-11
-1.26445e-11
-3.70743e-11
-1.22358e-11
-3.05527e-11
-1.17905e-11
-2.42913e-11
-1.13095e-11
-1.83092e-11
-1.07937e-11
-1.26246e-11
-1.02439e-11
-7.25559e-12
-9.66124e-12
-2.21899e-12
-9.04679e-12
2.4692e-12
-8.40206e-12
6.79373e-12
-7.72889e-12
1.07406e-11
-7.02942e-12
1.42972e-11
-6.30607e-12
1.74524e-11
-5.56169e-12
2.01969e-11
-4.79971e-12
2.25232e-11
-4.02377e-12
2.44256e-11
-3.23755e-12
2.59006e-11
-2.44511e-12
2.69479e-11
-1.6512e-12
2.75701e-11
-8.61346e-13
2.77734e-11
-8.19556e-14
2.7567e-11
6.80287e-13
2.69645e-11
1.4181e-12
2.59852e-11
2.12262e-12
2.46531e-11
2.78358e-12
2.29987e-11
3.38923e-12
2.10586e-11
3.92581e-12
1.88772e-11
4.37811e-12
1.65077e-11
4.72916e-12
1.40139e-11
4.95921e-12
1.14688e-11
5.04625e-12
8.95559e-12
4.9667e-12
6.56843e-12
4.69622e-12
4.40933e-12
4.21293e-12
2.58366e-12
3.50404e-12
1.19126e-12
2.57722e-12
3.12414e-13
1.48439e-12
3.83178e-13
2.84458e-13
-6.23455e-13
1.22807e-12
-2.61513e-12
2.89621e-12
-4.73255e-12
5.1601e-12
-6.35947e-12
7.8253e-12
-7.34572e-12
1.07098e-11
-7.81348e-12
1.36595e-11
-7.90916e-12
1.6548e-11
-7.72844e-12
1.92786e-11
-7.32681e-12
2.1766e-11
-6.73477e-12
2.39394e-11
-5.97554e-12
2.57361e-11
-5.06946e-12
2.71041e-11
-4.0402e-12
2.80027e-11
-2.90646e-12
2.83953e-11
-1.69036e-12
2.82526e-11
-4.0957e-13
2.7556e-11
9.21714e-13
2.62893e-11
2.28704e-12
2.4443e-11
3.67347e-12
2.20148e-11
5.07006e-12
1.90027e-11
6.46406e-12
1.54103e-11
7.84651e-12
1.12464e-11
9.21098e-12
6.52086e-12
1.05487e-11
1.24594e-12
1.18538e-11
-4.56062e-12
1.31219e-11
-1.08806e-11
1.43461e-11
-1.76957e-11
1.55211e-11
-2.49822e-11
1.6645e-11
-3.2717e-11
1.77141e-11
-4.08784e-11
1.8725e-11
-4.94396e-11
1.96757e-11
-5.83744e-11
2.05639e-11
-6.76574e-11
2.13865e-11
-7.72594e-11
2.21427e-11
-8.71512e-11
2.28325e-11
-9.73039e-11
2.34552e-11
-1.07689e-10
2.40099e-11
-1.18279e-10
2.44969e-11
-1.29043e-10
2.4916e-11
-1.39955e-10
2.52659e-11
-1.50984e-10
2.5547e-11
-1.62101e-10
2.57601e-11
-1.73277e-10
2.59062e-11
-1.84485e-10
2.59863e-11
-1.95696e-10
2.60012e-11
-2.06884e-10
2.59518e-11
-2.18022e-10
2.58392e-11
-2.29083e-10
2.56645e-11
-2.40042e-10
2.54294e-11
-2.50871e-10
2.51351e-11
-2.61547e-10
2.47827e-11
-2.72049e-10
2.43739e-11
-2.82352e-10
2.39114e-11
-2.92433e-10
2.33973e-11
-3.02271e-10
2.28334e-11
-3.11845e-10
2.22211e-11
-3.21134e-10
2.15617e-11
-3.30119e-10
2.08572e-11
-3.38784e-10
2.01095e-11
-3.4711e-10
1.93208e-11
-3.55081e-10
1.84933e-11
-3.62681e-10
1.76298e-11
-3.69895e-10
1.67322e-11
-3.76709e-10
1.58024e-11
-3.8311e-10
1.48428e-11
-3.89087e-10
1.38558e-11
-3.94627e-10
1.28439e-11
-3.99719e-10
1.18086e-11
-4.04355e-10
1.07511e-11
-4.08526e-10
9.67295e-12
-4.12226e-10
8.5765e-12
-4.15447e-10
7.46452e-12
-4.18184e-10
6.33964e-12
-4.20432e-10
5.20389e-12
-4.22186e-10
4.05908e-12
-4.23443e-10
2.90709e-12
-4.24202e-10
1.75e-12
-4.24462e-10
5.89701e-13
-4.24223e-10
-5.71966e-13
-4.23485e-10
-1.73253e-12
-4.2225e-10
-2.8892e-12
-4.2052e-10
-4.0393e-12
-4.18299e-10
-5.18064e-12
-4.1559e-10
-6.31186e-12
-4.12399e-10
-7.4314e-12
-4.08732e-10
-8.53675e-12
-4.04597e-10
-9.62542e-12
-4e-10
-1.06953e-11
-3.94952e-10
-1.17443e-11
-3.8946e-10
-1.27707e-11
-3.83535e-10
-1.3773e-11
-3.77189e-10
-1.4749e-11
-3.70434e-10
-1.56966e-11
-3.63283e-10
-1.66138e-11
-3.55751e-10
-1.74984e-11
-3.47852e-10
-1.83485e-11
-3.396e-10
-1.91626e-11
-3.31013e-10
-1.99391e-11
-3.22108e-10
-2.06759e-11
-3.12902e-10
-2.13709e-11
-3.03415e-10
-2.20223e-11
-2.93666e-10
-2.26284e-11
-2.83676e-10
-2.31876e-11
-2.73464e-10
-2.36982e-11
-2.63054e-10
-2.41582e-11
-2.52467e-10
-2.45657e-11
-2.41726e-10
-2.49193e-11
-2.30854e-10
-2.52175e-11
-2.19876e-10
-2.54592e-11
-2.08816e-10
-2.56431e-11
-1.977e-10
-2.5768e-11
-1.86554e-10
-2.58325e-11
-1.75404e-10
-2.58354e-11
-1.64276e-10
-2.57759e-11
-1.53197e-10
-2.56533e-11
-1.42195e-10
-2.5467e-11
-1.31296e-10
-2.52162e-11
-1.20529e-10
-2.49001e-11
-1.09921e-10
-2.45185e-11
-9.95006e-11
-2.40712e-11
-8.92943e-11
-2.35585e-11
-7.93298e-11
-2.29809e-11
-6.96347e-11
-2.23392e-11
-6.02367e-11
-2.16337e-11
-5.11622e-11
-2.08654e-11
-4.24374e-11
-2.00351e-11
-3.40872e-11
-1.91442e-11
-2.61362e-11
-1.81947e-11
-1.86086e-11
-1.71886e-11
-1.15274e-11
-1.6128e-11
-4.91394e-12
-1.50156e-11
1.21218e-12
-1.38547e-11
6.83287e-12
-1.26492e-11
1.19313e-11
-1.14035e-11
1.64921e-11
-1.01222e-11
2.05031e-11
-8.81072e-12
2.39549e-11
-7.47523e-12
2.68406e-11
-6.12256e-12
2.91568e-11
-4.76019e-12
3.09027e-11
-3.39641e-12
3.20819e-11
-2.04044e-12
3.27032e-11
-7.02973e-13
3.27802e-11
6.03871e-13
3.23317e-11
1.86695e-12
3.13831e-11
3.07144e-12
2.99665e-11
4.20032e-12
2.81213e-11
5.23433e-12
2.58958e-11
6.15133e-12
2.33473e-11
6.92653e-12
2.0543e-11
7.53277e-12
1.75617e-11
7.93978e-12
1.44932e-11
8.11425e-12
1.14382e-11
8.02116e-12
8.50773e-12
7.62568e-12
5.82183e-12
6.89764e-12
3.50484e-12
5.81972e-12
1.68098e-12
4.39998e-12
4.70074e-13
2.69439e-12
8.52622e-13
4.57897e-13
-1.08182e-12
1.6789e-12
-3.83681e-12
3.61e-12
-6.6654e-12
6.12998e-12
-8.87985e-12
9.05153e-12
-1.02666e-11
1.21946e-11
-1.0956e-11
1.53949e-11
-1.11098e-11
1.85116e-11
-1.08458e-11
2.14245e-11
-1.02398e-11
2.40344e-11
-9.34353e-12
2.62552e-11
-8.19295e-12
2.80113e-11
-6.82572e-12
2.9241e-11
-5.27086e-12
2.98934e-11
-3.55929e-12
2.99258e-11
-1.72283e-12
2.93041e-11
2.13074e-13
2.80036e-11
2.22401e-12
2.60043e-11
4.28615e-12
2.32952e-11
6.38213e-12
1.98708e-11
8.49379e-12
1.573e-11
1.06032e-11
1.08781e-11
1.26983e-11
5.32348e-12
1.4766e-11
-9.21293e-13
1.67937e-11
-7.83977e-12
1.8773e-11
-1.54138e-11
2.06958e-11
-2.36214e-11
2.2553e-11
-3.24385e-11
2.43378e-11
-4.1838e-11
2.6045e-11
-5.17911e-11
2.76678e-11
-6.22687e-11
2.92021e-11
-7.32383e-11
3.06453e-11
-8.46678e-11
3.19934e-11
-9.65256e-11
3.32433e-11
-1.08777e-10
3.43935e-11
-1.21386e-10
3.54421e-11
-1.34317e-10
3.63874e-11
-1.47534e-10
3.72283e-11
-1.61002e-10
3.7965e-11
-1.74683e-10
3.85972e-11
-1.88543e-10
3.91246e-11
-2.02545e-10
3.9548e-11
-2.16653e-10
3.98681e-11
-2.30832e-10
4.00851e-11
-2.45046e-10
4.02004e-11
-2.59261e-10
4.02159e-11
-2.73442e-10
4.01328e-11
-2.87556e-10
3.99527e-11
-3.01569e-10
3.96776e-11
-3.15451e-10
3.93099e-11
-3.29168e-10
3.8852e-11
-3.4269e-10
3.83056e-11
-3.55987e-10
3.76729e-11
-3.69032e-10
3.69569e-11
-3.81795e-10
3.61606e-11
-3.94249e-10
3.52872e-11
-4.06369e-10
3.43393e-11
-4.18128e-10
3.332e-11
-4.29503e-10
3.22319e-11
-4.40471e-10
3.10778e-11
-4.51011e-10
2.98604e-11
-4.61101e-10
2.85833e-11
-4.70722e-10
2.72505e-11
-4.79854e-10
2.58648e-11
-4.8848e-10
2.44295e-11
-4.96584e-10
2.29477e-11
-5.04151e-10
2.14226e-11
-5.11166e-10
1.98579e-11
-5.17615e-10
1.82568e-11
-5.23488e-10
1.66223e-11
-5.28773e-10
1.49573e-11
-5.3346e-10
1.32648e-11
-5.37542e-10
1.15481e-11
-5.41012e-10
9.81046e-12
-5.43864e-10
8.05535e-12
-5.46091e-10
6.28609e-12
-5.47691e-10
4.5061e-12
-5.48661e-10
2.71887e-12
-5.49e-10
9.2755e-13
-5.48707e-10
-8.65093e-13
-5.47782e-10
-2.65594e-12
-5.46229e-10
-4.4414e-12
-5.44051e-10
-6.21777e-12
-5.41251e-10
-7.98131e-12
-5.37835e-10
-9.72892e-12
-5.33809e-10
-1.14579e-11
-5.2918e-10
-1.31651e-11
-5.23958e-10
-1.4847e-11
-5.18153e-10
-1.65005e-11
-5.11775e-10
-1.81225e-11
-5.04837e-10
-1.97098e-11
-4.97351e-10
-2.12596e-11
-4.89331e-10
-2.27687e-11
-4.80794e-10
-2.4234e-11
-4.71755e-10
-2.56525e-11
-4.62232e-10
-2.70212e-11
-4.52244e-10
-2.83369e-11
-4.4181e-10
-2.9597e-11
-4.3095e-10
-3.07989e-11
-4.19687e-10
-3.19394e-11
-4.08042e-10
-3.30154e-11
-3.9604e-10
-3.40243e-11
-3.83705e-10
-3.49636e-11
-3.71062e-10
-3.58306e-11
-3.58138e-10
-3.66225e-11
-3.4496e-10
-3.73365e-11
-3.31556e-10
-3.79701e-11
-3.17954e-10
-3.85212e-11
-3.04185e-10
-3.89875e-11
-2.90278e-10
-3.93668e-11
-2.76264e-10
-3.96573e-11
-2.62175e-10
-3.98569e-11
-2.48043e-10
-3.9964e-11
-2.33902e-10
-3.9977e-11
-2.19784e-10
-3.98944e-11
-2.05724e-10
-3.97148e-11
-1.91754e-10
-3.94372e-11
-1.77909e-10
-3.90608e-11
-1.64224e-10
-3.85849e-11
-1.50734e-10
-3.80089e-11
-1.37473e-10
-3.7333e-11
-1.24475e-10
-3.65572e-11
-1.11775e-10
-3.56819e-11
-9.94058e-11
-3.47082e-11
-8.74026e-11
-3.36371e-11
-7.57981e-11
-3.24701e-11
-6.46247e-11
-3.1209e-11
-5.39138e-11
-2.98559e-11
-4.36953e-11
-2.84134e-11
-3.39986e-11
-2.6885e-11
-2.48523e-11
-2.52744e-11
-1.62826e-11
-2.35857e-11
-8.31418e-12
-2.18238e-11
-9.68891e-13
-1.99946e-11
5.73339e-12
-1.81051e-11
1.17744e-11
-1.61627e-11
1.71388e-11
-1.41752e-11
2.18153e-11
-1.21519e-11
2.57959e-11
-1.0103e-11
2.90767e-11
-8.0404e-12
3.16581e-11
-5.97688e-12
3.35445e-11
-3.92662e-12
3.47469e-11
-1.90542e-12
3.52823e-11
6.87182e-14
3.5174e-11
1.97575e-12
3.44525e-11
3.79338e-12
3.31566e-11
5.49656e-12
3.13335e-11
7.0574e-12
2.90402e-11
8.44445e-12
2.63443e-11
9.62252e-12
2.33235e-11
1.05533e-11
2.00678e-11
1.11949e-11
1.66791e-11
1.15025e-11
1.32703e-11
1.14294e-11
9.96552e-12
1.09296e-11
6.89859e-12
9.96337e-12
4.21145e-12
8.50536e-12
2.05359e-12
6.55639e-12
5.85548e-13
4.16142e-12
1.43765e-12
5.78049e-13
-1.66229e-12
2.02965e-12
-5.28502e-12
4.18848e-12
-8.82432e-12
6.8938e-12
-1.15856e-11
9.9653e-12
-1.33388e-11
1.32259e-11
-1.42161e-11
1.65102e-11
-1.43923e-11
1.96669e-11
-1.4003e-11
2.2566e-11
-1.3141e-11
2.50963e-11
-1.18737e-11
2.71607e-11
-1.02582e-11
2.86778e-11
-8.34089e-12
2.95756e-11
-6.16792e-12
2.97956e-11
-3.78063e-12
2.92907e-11
-1.21794e-12
2.80216e-11
1.48223e-12
2.5959e-11
4.28644e-12
2.30822e-11
7.16478e-12
1.93761e-11
1.00892e-11
1.48335e-11
1.30354e-11
9.45487e-12
1.59818e-11
3.24438e-12
1.89085e-11
-3.78883e-12
2.17975e-11
-1.16288e-11
2.46338e-11
-2.02569e-11
2.74024e-11
-2.96525e-11
3.00912e-11
-3.97891e-11
3.26898e-11
-5.06388e-11
3.51882e-11
-6.21725e-11
3.75777e-11
-7.43556e-11
3.98506e-11
-8.71535e-11
4.20002e-11
-1.00529e-10
4.40211e-11
-1.14444e-10
4.59081e-11
-1.28859e-10
4.76581e-11
-1.43734e-10
4.92683e-11
-1.59027e-10
5.07354e-11
-1.74699e-10
5.20577e-11
-1.90704e-10
5.32341e-11
-2.07001e-10
5.42631e-11
-2.23547e-10
5.51438e-11
-2.403e-10
5.5877e-11
-2.57215e-10
5.64636e-11
-2.74251e-10
5.69044e-11
-2.91366e-10
5.72001e-11
-3.08518e-10
5.73523e-11
-3.25666e-10
5.73634e-11
-3.42768e-10
5.72351e-11
-3.59786e-10
5.69698e-11
-3.76678e-10
5.65702e-11
-3.93407e-10
5.60394e-11
-4.09937e-10
5.53807e-11
-4.26229e-10
5.45973e-11
-4.4225e-10
5.36926e-11
-4.57963e-10
5.26701e-11
-4.73335e-10
5.15337e-11
-4.88334e-10
5.02873e-11
-5.0293e-10
4.8935e-11
-5.17091e-10
4.74811e-11
-5.30788e-10
4.59297e-11
-5.43996e-10
4.42849e-11
-5.56687e-10
4.2551e-11
-5.68837e-10
4.07326e-11
-5.80421e-10
3.88344e-11
-5.91418e-10
3.68609e-11
-6.01806e-10
3.48169e-11
-6.11565e-10
3.27069e-11
-6.20676e-10
3.05354e-11
-6.29124e-10
2.83067e-11
-6.36892e-10
2.60254e-11
-6.43967e-10
2.36963e-11
-6.50335e-10
2.13241e-11
-6.55984e-10
1.89135e-11
-6.60905e-10
1.64689e-11
-6.65089e-10
1.39948e-11
-6.68529e-10
1.14957e-11
-6.71219e-10
8.97646e-12
-6.73154e-10
6.44167e-12
-6.74332e-10
3.89615e-12
-6.7475e-10
1.3447e-12
-6.74408e-10
-1.20806e-12
-6.73307e-10
-3.75747e-12
-6.7145e-10
-6.29882e-12
-6.68839e-10
-8.82767e-12
-6.65481e-10
-1.13393e-11
-6.61381e-10
-1.38289e-11
-6.56547e-10
-1.62919e-11
-6.50989e-10
-1.87238e-11
-6.44717e-10
-2.11198e-11
-6.37742e-10
-2.34757e-11
-6.30077e-10
-2.57871e-11
-6.21738e-10
-2.80495e-11
-6.12739e-10
-3.02586e-11
-6.03099e-10
-3.24099e-11
-5.92834e-10
-3.44989e-11
-5.81965e-10
-3.65213e-11
-5.70513e-10
-3.84732e-11
-5.585e-10
-4.03503e-11
-5.45949e-10
-4.21484e-11
-5.32885e-10
-4.38634e-11
-5.19333e-10
-4.54911e-11
-5.05322e-10
-4.70273e-11
-4.90878e-10
-4.84683e-11
-4.76032e-10
-4.98104e-11
-4.60813e-10
-5.10499e-11
-4.45253e-10
-5.21829e-11
-4.29384e-10
-5.32056e-11
-4.1324e-10
-5.41144e-11
-3.96856e-10
-5.49062e-11
-3.80265e-10
-5.55782e-11
-3.63506e-10
-5.61271e-11
-3.46614e-10
-5.65501e-11
-3.29626e-10
-5.68443e-11
-3.12583e-10
-5.70077e-11
-2.95522e-10
-5.7038e-11
-2.78483e-10
-5.69332e-11
-2.61507e-10
-5.66915e-11
-2.44634e-10
-5.63113e-11
-2.27903e-10
-5.57914e-11
-2.11358e-10
-5.5131e-11
-1.95037e-10
-5.43295e-11
-1.78983e-10
-5.33872e-11
-1.63236e-10
-5.23043e-11
-1.47837e-10
-5.10814e-11
-1.32826e-10
-4.97196e-11
-1.18243e-10
-4.82206e-11
-1.04127e-10
-4.65865e-11
-9.05157e-11
-4.48203e-11
-7.74472e-11
-4.2925e-11
-6.49567e-11
-4.09045e-11
-5.30784e-11
-3.87635e-11
-4.18453e-11
-3.65076e-11
-3.12882e-11
-3.41429e-11
-2.14359e-11
-3.16765e-11
-1.23148e-11
-2.91164e-11
-3.94786e-12
-2.64722e-11
3.64452e-12
-2.37548e-11
1.04449e-11
-2.09755e-11
1.644e-11
-1.81471e-11
2.16206e-11
-1.52838e-11
2.59824e-11
-1.2402e-11
2.95262e-11
-9.52001e-12
3.2258e-11
-6.65793e-12
3.41903e-11
-3.83766e-12
3.53428e-11
-1.08375e-12
3.57427e-11
1.57635e-12
3.54246e-11
4.11205e-12
3.44327e-11
6.48921e-12
3.28199e-11
8.67034e-12
3.06502e-11
1.0614e-11
2.79987e-11
1.2274e-11
2.49515e-11
1.36005e-11
2.16064e-11
1.45397e-11
1.80742e-11
1.50344e-11
1.44772e-11
1.50257e-11
1.09496e-11
1.44563e-11
7.63788e-12
1.32741e-11
4.70023e-12
1.14418e-11
2.30983e-12
8.94532e-12
6.62608e-13
5.80747e-12
2.09977e-12
6.53565e-13
-2.31566e-12
2.25488e-12
-6.8846e-12
4.55575e-12
-1.1126e-11
7.35902e-12
-1.43871e-11
1.04777e-11
-1.64588e-11
1.37334e-11
-1.74717e-11
1.69586e-11
-1.76165e-11
1.99999e-11
-1.70434e-11
2.27214e-11
-1.58605e-11
2.50011e-11
-1.41556e-11
2.67381e-11
-1.19961e-11
2.78438e-11
-9.44558e-12
2.82408e-11
-6.56474e-12
2.78656e-11
-3.40522e-12
2.66665e-11
-1.83334e-14
2.46001e-11
3.54745e-12
2.1635e-11
7.25123e-12
1.77479e-11
1.10526e-11
1.29221e-11
1.49147e-11
7.15061e-12
1.88071e-11
4.32265e-13
2.27006e-11
-7.22769e-12
2.65681e-11
-1.58187e-11
3.03878e-11
-2.53244e-11
3.4139e-11
-3.57237e-11
3.78017e-11
-4.69926e-11
4.13598e-11
-5.91014e-11
4.47993e-11
-7.20181e-11
4.8106e-11
-8.57097e-11
5.12685e-11
-1.00137e-10
5.42779e-11
-1.15262e-10
5.71247e-11
-1.31042e-10
5.98007e-11
-1.47434e-10
6.22998e-11
-1.64392e-10
6.46171e-11
-1.81871e-10
6.67478e-11
-1.99823e-10
6.86879e-11
-2.18201e-10
7.04357e-11
-2.36957e-10
7.19896e-11
-2.56041e-10
7.33471e-11
-2.75405e-10
7.45076e-11
-2.94999e-10
7.54715e-11
-3.14775e-10
7.62394e-11
-3.34683e-10
7.68124e-11
-3.54674e-10
7.71919e-11
-3.74702e-10
7.73802e-11
-3.94719e-10
7.73796e-11
-4.14678e-10
7.71929e-11
-4.34532e-10
7.68234e-11
-4.54236e-10
7.62748e-11
-4.73745e-10
7.55504e-11
-4.93018e-10
7.46544e-11
-5.12013e-10
7.35913e-11
-5.30687e-10
7.2366e-11
-5.49001e-10
7.09833e-11
-5.66916e-10
6.94482e-11
-5.84394e-10
6.77658e-11
-6.01401e-10
6.59416e-11
-6.179e-10
6.39809e-11
-6.33859e-10
6.18891e-11
-6.49247e-10
5.9672e-11
-6.64032e-10
5.73358e-11
-6.78185e-10
5.48864e-11
-6.9168e-10
5.23295e-11
-7.0449e-10
4.96711e-11
-7.16592e-10
4.69177e-11
-7.27961e-10
4.40757e-11
-7.38577e-10
4.11511e-11
-7.4842e-10
3.81497e-11
-7.57471e-10
3.50776e-11
-7.65715e-10
3.19409e-11
-7.73137e-10
2.87459e-11
-7.79723e-10
2.54992e-11
-7.85462e-10
2.22069e-11
-7.90342e-10
1.8875e-11
-7.94357e-10
1.55099e-11
-7.97498e-10
1.21179e-11
-7.99762e-10
8.70538e-12
-8.01143e-10
5.2781e-12
-8.01641e-10
1.84237e-12
-8.01254e-10
-1.59529e-12
-7.99984e-10
-5.02829e-12
-7.97833e-10
-8.45017e-12
-7.94806e-10
-1.1855e-11
-7.90908e-10
-1.52371e-11
-7.86147e-10
-1.859e-11
-7.80531e-10
-2.19073e-11
-7.74072e-10
-2.5183e-11
-7.66781e-10
-2.84108e-11
-7.58673e-10
-3.15847e-11
-7.49761e-10
-3.46989e-11
-7.40063e-10
-3.77476e-11
-7.29597e-10
-4.07247e-11
-7.18383e-10
-4.36243e-11
-7.06442e-10
-4.64403e-11
-6.93797e-10
-4.91668e-11
-6.80471e-10
-5.17986e-11
-6.66491e-10
-5.43302e-11
-6.51884e-10
-5.67558e-11
-6.36678e-10
-5.90697e-11
-6.20903e-10
-6.12664e-11
-6.0459e-10
-6.33404e-11
-5.87772e-10
-6.52867e-11
-5.70483e-10
-6.71004e-11
-5.52757e-10
-6.87762e-11
-5.34631e-10
-7.03091e-11
-5.16143e-10
-7.16943e-11
-4.97331e-10
-7.29272e-11
-4.78234e-10
-7.40035e-11
-4.58894e-10
-7.4919e-11
-4.39351e-10
-7.56699e-11
-4.19649e-10
-7.62522e-11
-3.99832e-10
-7.66623e-11
-3.79943e-10
-7.68971e-11
-3.60027e-10
-7.69539e-11
-3.4013e-10
-7.68302e-11
-3.20298e-10
-7.65235e-11
-3.00577e-10
-7.60319e-11
-2.81015e-10
-7.53537e-11
-2.61658e-10
-7.4488e-11
-2.42554e-10
-7.34343e-11
-2.23748e-10
-7.21925e-11
-2.05289e-10
-7.07632e-11
-1.87223e-10
-6.91475e-11
-1.69596e-10
-6.73469e-11
-1.52453e-10
-6.53635e-11
-1.3584e-10
-6.32005e-11
-1.19799e-10
-6.08615e-11
-1.04373e-10
-5.83513e-11
-8.96025e-11
-5.56751e-11
-7.55273e-11
-5.28392e-11
-6.21843e-11
-4.9851e-11
-4.96082e-11
-4.67191e-11
-3.78314e-11
-4.34532e-11
-2.68842e-11
-4.0064e-11
-1.67928e-11
-3.65641e-11
-7.58022e-12
-3.29676e-11
7.34532e-13
-2.92901e-11
8.13659e-12
-2.55488e-11
1.46156e-11
-2.17627e-11
2.01667e-11
-1.7953e-11
2.47908e-11
-1.41438e-11
2.84951e-11
-1.03616e-11
3.12933e-11
-6.63553e-12
3.32074e-11
-2.99746e-12
3.42669e-11
5.17163e-13
3.45104e-11
3.86912e-12
3.39858e-11
7.01464e-12
3.27508e-11
9.9058e-12
3.08741e-11
1.24905e-11
2.84364e-11
1.47116e-11
2.55299e-11
1.65071e-11
2.22586e-11
1.78109e-11
1.87396e-11
1.85531e-11
1.51026e-11
1.86621e-11
1.14904e-11
1.80673e-11
8.06047e-12
1.6703e-11
4.986e-12
1.45154e-11
2.46035e-12
1.14699e-11
7.06902e-13
7.55991e-12
2.80623e-12
6.89297e-13
-3.00654e-12
2.35575e-12
-8.55121e-12
4.70478e-12
-1.34737e-11
7.50682e-12
-1.71884e-11
1.05676e-11
-1.95188e-11
1.37033e-11
-2.0609e-11
1.67438e-11
-2.06583e-11
1.95348e-11
-1.98323e-11
2.19338e-11
-1.82593e-11
2.38179e-11
-1.6039e-11
2.50788e-11
-1.32572e-11
2.56236e-11
-9.99133e-12
2.53731e-11
-6.31331e-12
2.4259e-11
-2.29079e-12
2.22264e-11
2.01437e-12
1.92305e-11
6.54401e-12
1.52364e-11
1.12452e-11
1.02193e-11
1.60689e-11
4.16303e-12
2.09706e-11
-2.94076e-12
2.59108e-11
-1.10935e-11
3.08526e-11
-2.02882e-11
3.5763e-11
-3.0513e-11
4.06131e-11
-4.17511e-11
4.53766e-11
-5.39788e-11
5.00294e-11
-6.71692e-11
5.45504e-11
-8.1291e-11
5.8921e-11
-9.63081e-11
6.31235e-11
-1.12183e-10
6.71432e-11
-1.28873e-10
7.09679e-11
-1.46334e-10
7.45857e-11
-1.64521e-10
7.79867e-11
-1.83384e-10
8.11631e-11
-2.02875e-10
8.41076e-11
-2.22941e-10
8.6814e-11
-2.4353e-10
8.92776e-11
-2.64588e-10
9.1495e-11
-2.86062e-10
9.34637e-11
-3.07897e-10
9.51815e-11
-3.30038e-10
9.66481e-11
-3.52429e-10
9.78633e-11
-3.75017e-10
9.88272e-11
-3.97746e-10
9.95413e-11
-4.20561e-10
1.00008e-10
-4.43409e-10
1.00229e-10
-4.66238e-10
1.00207e-10
-4.88993e-10
9.99473e-11
-5.11623e-10
9.94529e-11
-5.34078e-10
9.87287e-11
-5.56306e-10
9.77792e-11
-5.78261e-10
9.66093e-11
-5.99894e-10
9.52247e-11
-6.21159e-10
9.36315e-11
-6.42012e-10
9.18357e-11
-6.62408e-10
8.98439e-11
-6.82305e-10
8.76628e-11
-7.01663e-10
8.52994e-11
-7.20442e-10
8.27603e-11