/*--------------------------------*- C++ -*----------------------------------*\
  =========                 |
  \\      /  F ield         | OpenFOAM: The Open Source CFD Toolbox
   \\    /   O peration     | Website:  https://openfoam.org
    \\  /    A nd           | Version:  7
     \\/     M anipulation  |
\*---------------------------------------------------------------------------*/
FoamFile
{
    version     2.0;
    format      ascii;
    class       volScalarField;
    location    "0.4";
    object      p;
}
// * * * * * * * * * * * * * * * * * * * * * * * * * * * * * * * * * * * * * //

dimensions      [0 2 -2 0 0 0 0];

internalField   nonuniform List<scalar> 
51200
(
-6.87766e-08
2.57376e-06
6.51467e-06
1.02524e-05
1.32342e-05
1.5718e-05
1.782e-05
1.96126e-05
2.11442e-05
2.24443e-05
2.3535e-05
2.44357e-05
2.51613e-05
2.57252e-05
2.61405e-05
2.64121e-05
2.65512e-05
2.65642e-05
2.64574e-05
2.62418e-05
2.59228e-05
2.55065e-05
2.50005e-05
2.44125e-05
2.37455e-05
2.30022e-05
2.21889e-05
2.13107e-05
2.03697e-05
1.9371e-05
1.83174e-05
1.72073e-05
1.60436e-05
1.48316e-05
1.35763e-05
1.22819e-05
1.09508e-05
9.58503e-06
8.18781e-06
6.76052e-06
5.30527e-06
3.82689e-06
2.32881e-06
8.11657e-07
-7.22842e-07
-2.27218e-06
-3.83647e-06
-5.41721e-06
-7.0141e-06
-8.6267e-06
-1.02528e-05
-1.18909e-05
-1.35417e-05
-1.52044e-05
-1.68761e-05
-1.85538e-05
-2.02369e-05
-2.19263e-05
-2.36215e-05
-2.5322e-05
-2.70283e-05
-2.87407e-05
-3.04588e-05
-3.21827e-05
-3.39117e-05
-3.56451e-05
-3.73829e-05
-3.91259e-05
-4.08743e-05
-4.26275e-05
-4.43854e-05
-4.61485e-05
-4.79159e-05
-4.96871e-05
-5.14636e-05
-5.3248e-05
-5.5041e-05
-5.6841e-05
-5.86465e-05
-6.04571e-05
-6.22733e-05
-6.40968e-05
-6.59286e-05
-6.77684e-05
-6.96151e-05
-7.14685e-05
-7.33288e-05
-7.51964e-05
-7.70704e-05
-7.89501e-05
-8.08365e-05
-8.27304e-05
-8.46325e-05
-8.65428e-05
-8.84596e-05
-9.03819e-05
-9.23083e-05
-9.42379e-05
-9.61706e-05
-9.81053e-05
-0.000100041
-0.000101979
-0.000103918
-0.000105859
-0.000107803
-0.000109744
-0.000111682
-0.000113616
-0.000115544
-0.000117469
-0.000119389
-0.000121303
-0.000123207
-0.000125099
-0.000126978
-0.000128843
-0.000130694
-0.000132528
-0.000134346
-0.000136143
-0.000137915
-0.000139663
-0.000141384
-0.000143077
-0.000144739
-0.000146366
-0.000147952
-0.000149498
-0.000151001
-0.000152462
-0.000153879
-0.000155247
-0.000156559
-0.000157814
-0.00015901
-0.000160147
-0.000161221
-0.000162228
-0.000163165
-0.000164028
-0.000164816
-0.000165528
-0.000166159
-0.000166708
-0.000167175
-0.000167557
-0.000167856
-0.00016807
-0.000168198
-0.000168244
-0.000168212
-0.000168108
-0.000167935
-0.000167704
-0.000167425
-0.000167118
-0.00016681
-0.000166543
-0.000166365
-0.000166309
2.38052e-06
4.91505e-06
8.05774e-06
1.10566e-05
1.36449e-05
1.58655e-05
1.77779e-05
1.94316e-05
2.08578e-05
2.20778e-05
2.31084e-05
2.39627e-05
2.46544e-05
2.51973e-05
2.55982e-05
2.58661e-05
2.6005e-05
2.60211e-05
2.59259e-05
2.57252e-05
2.54249e-05
2.50314e-05
2.45497e-05
2.39855e-05
2.33423e-05
2.26257e-05
2.18404e-05
2.09891e-05
2.00776e-05
1.91096e-05
1.80856e-05
1.70068e-05
1.58749e-05
1.46927e-05
1.34652e-05
1.21966e-05
1.08903e-05
9.55019e-06
8.17782e-06
6.77348e-06
5.34111e-06
3.88497e-06
2.40648e-06
9.07351e-07
-6.09599e-07
-2.1428e-06
-3.69262e-06
-5.25986e-06
-6.84551e-06
-8.44896e-06
-1.00675e-05
-1.17e-05
-1.33463e-05
-1.50045e-05
-1.66718e-05
-1.83478e-05
-2.00321e-05
-2.17234e-05
-2.34205e-05
-2.51243e-05
-2.68366e-05
-2.85569e-05
-3.02837e-05
-3.20164e-05
-3.37547e-05
-3.54988e-05
-3.72491e-05
-3.90047e-05
-4.07638e-05
-4.25273e-05
-4.42981e-05
-4.60769e-05
-4.78614e-05
-4.96496e-05
-5.14425e-05
-5.32419e-05
-5.50491e-05
-5.68645e-05
-5.86868e-05
-6.05143e-05
-6.2347e-05
-6.41866e-05
-6.60337e-05
-6.78874e-05
-6.9747e-05
-7.1614e-05
-7.34893e-05
-7.53719e-05
-7.72594e-05
-7.91502e-05
-8.1046e-05
-8.29488e-05
-8.48595e-05
-8.6778e-05
-8.87026e-05
-9.06313e-05
-9.25627e-05
-9.44958e-05
-9.64307e-05
-9.83663e-05
-0.000100301
-0.000102236
-0.000104172
-0.00010611
-0.000108047
-0.000109982
-0.000111911
-0.000113834
-0.000115751
-0.000117662
-0.000119568
-0.000121465
-0.000123352
-0.000125226
-0.000127084
-0.000128928
-0.000130757
-0.000132567
-0.000134359
-0.000136129
-0.000137874
-0.000139595
-0.000141288
-0.000142951
-0.000144581
-0.000146176
-0.000147731
-0.000149245
-0.000150716
-0.000152145
-0.000153529
-0.000154865
-0.000156148
-0.000157373
-0.00015854
-0.000159647
-0.000160694
-0.000161678
-0.000162593
-0.000163435
-0.000164205
-0.000164901
-0.000165521
-0.000166064
-0.00016653
-0.000166916
-0.000167221
-0.000167448
-0.000167597
-0.000167671
-0.000167675
-0.000167613
-0.000167492
-0.00016732
-0.000167109
-0.000166874
-0.000166633
-0.000166418
-0.000166268
-0.000166208
5.92322e-06
7.72724e-06
9.92239e-06
1.22117e-05
1.43543e-05
1.62812e-05
1.79882e-05
1.94915e-05
2.0803e-05
2.19363e-05
2.28998e-05
2.37027e-05
2.43567e-05
2.48696e-05
2.5252e-05
2.55078e-05
2.56382e-05
2.56538e-05
2.55609e-05
2.53662e-05
2.50775e-05
2.4698e-05
2.42326e-05
2.36842e-05
2.30588e-05
2.23622e-05
2.15975e-05
2.07687e-05
1.98802e-05
1.89335e-05
1.79313e-05
1.68754e-05
1.57667e-05
1.46088e-05
1.34043e-05
1.21563e-05
1.08705e-05
9.55054e-06
8.19622e-06
6.80953e-06
5.3952e-06
3.95568e-06
2.49247e-06
1.00839e-06
-4.95017e-07
-2.01636e-06
-3.55539e-06
-5.1132e-06
-6.69042e-06
-8.28556e-06
-9.89808e-06
-1.15277e-05
-1.31722e-05
-1.48277e-05
-1.64924e-05
-1.81679e-05
-1.98537e-05
-2.15475e-05
-2.32477e-05
-2.4955e-05
-2.66714e-05
-2.83977e-05
-3.01321e-05
-3.18724e-05
-3.36185e-05
-3.53721e-05
-3.7134e-05
-3.89018e-05
-4.06727e-05
-4.24479e-05
-4.423e-05
-4.60197e-05
-4.78158e-05
-4.96179e-05
-5.14262e-05
-5.32411e-05
-5.50628e-05
-5.68915e-05
-5.87263e-05
-6.05666e-05
-6.24132e-05
-6.42677e-05
-6.61296e-05
-6.7997e-05
-6.98691e-05
-7.17477e-05
-7.36342e-05
-7.55276e-05
-7.74258e-05
-7.93273e-05
-8.12328e-05
-8.31446e-05
-8.50637e-05
-8.69899e-05
-8.8921e-05
-9.08548e-05
-9.27902e-05
-9.47266e-05
-9.66636e-05
-9.86e-05
-0.000100535
-0.000102469
-0.000104404
-0.00010634
-0.000108273
-0.000110202
-0.000112123
-0.000114037
-0.000115945
-0.000117847
-0.000119742
-0.000121627
-0.000123499
-0.000125356
-0.000127198
-0.000129026
-0.000130838
-0.00013263
-0.0001344
-0.000136148
-0.000137871
-0.000139569
-0.00014124
-0.000142879
-0.000144484
-0.000146052
-0.000147581
-0.00014907
-0.000150517
-0.000151922
-0.00015328
-0.00015459
-0.000155847
-0.000157048
-0.000158192
-0.000159278
-0.000160304
-0.000161267
-0.000162164
-0.000162992
-0.000163748
-0.000164432
-0.000165044
-0.000165583
-0.000166047
-0.000166436
-0.000166748
-0.000166985
-0.000167149
-0.000167244
-0.000167273
-0.000167241
-0.000167154
-0.00016702
-0.000166851
-0.00016666
-0.000166458
-0.000166263
-0.000166104
-0.000165998
9.11849e-06
1.03035e-05
1.18367e-05
1.35552e-05
1.52817e-05
1.69126e-05
1.84073e-05
1.97511e-05
2.09413e-05
2.19782e-05
2.28664e-05
2.36141e-05
2.42233e-05
2.47034e-05
2.50603e-05
2.52946e-05
2.5414e-05
2.54227e-05
2.5326e-05
2.51326e-05
2.48478e-05
2.44764e-05
2.40206e-05
2.34839e-05
2.2872e-05
2.21891e-05
2.14403e-05
2.063e-05
1.97596e-05
1.88305e-05
1.78448e-05
1.68043e-05
1.57125e-05
1.45726e-05
1.33858e-05
1.21559e-05
1.08879e-05
9.58319e-06
8.24302e-06
6.87101e-06
5.47048e-06
4.0434e-06
2.59253e-06
1.12033e-06
-3.7166e-07
-1.88301e-06
-3.41448e-06
-4.96679e-06
-6.53831e-06
-8.12728e-06
-9.73543e-06
-1.13626e-05
-1.3005e-05
-1.46589e-05
-1.63233e-05
-1.79991e-05
-1.96856e-05
-2.13814e-05
-2.30858e-05
-2.47987e-05
-2.65212e-05
-2.82539e-05
-2.99951e-05
-3.17429e-05
-3.34976e-05
-3.52601e-05
-3.70304e-05
-3.88067e-05
-4.05884e-05
-4.23767e-05
-4.41719e-05
-4.59728e-05
-4.77795e-05
-4.95929e-05
-5.14142e-05
-5.32433e-05
-5.50796e-05
-5.69218e-05
-5.87688e-05
-6.0621e-05
-6.24803e-05
-6.43471e-05
-6.62205e-05
-6.80996e-05
-6.99849e-05
-7.1877e-05
-7.37749e-05
-7.56775e-05
-7.75842e-05
-7.94949e-05
-8.141e-05
-8.33308e-05
-8.52583e-05
-8.71917e-05
-8.91288e-05
-9.10676e-05
-9.30073e-05
-9.49474e-05
-9.68868e-05
-9.88239e-05
-0.000100759
-0.000102693
-0.000104629
-0.000106564
-0.000108494
-0.000110418
-0.000112334
-0.000114241
-0.000116141
-0.000118035
-0.000119921
-0.000121796
-0.000123656
-0.0001255
-0.000127329
-0.000129143
-0.00013094
-0.000132717
-0.000134471
-0.0001362
-0.000137904
-0.000139583
-0.000141235
-0.000142855
-0.000144439
-0.000145985
-0.000147492
-0.000148959
-0.000150386
-0.00015177
-0.000153108
-0.000154396
-0.000155631
-0.000156812
-0.000157938
-0.000159006
-0.000160015
-0.000160963
-0.000161844
-0.000162658
-0.000163404
-0.00016408
-0.000164686
-0.000165221
-0.000165685
-0.000166075
-0.000166391
-0.000166637
-0.000166813
-0.000166923
-0.000166971
-0.000166959
-0.000166893
-0.000166781
-0.000166632
-0.000166461
-0.000166276
-0.000166087
-0.0001659
-0.000165725
1.15119e-05
1.2438e-05
1.3593e-05
1.49176e-05
1.63087e-05
1.7676e-05
1.89648e-05
2.01497e-05
2.12139e-05
2.21495e-05
2.2959e-05
2.36422e-05
2.42041e-05
2.4647e-05
2.49701e-05
2.5181e-05
2.52833e-05
2.52803e-05
2.51783e-05
2.49825e-05
2.46983e-05
2.43296e-05
2.3879e-05
2.33514e-05
2.27492e-05
2.20773e-05
2.13415e-05
2.05447e-05
1.96892e-05
1.87758e-05
1.78046e-05
1.67784e-05
1.57011e-05
1.45749e-05
1.34029e-05
1.21895e-05
1.09364e-05
9.64454e-06
8.31763e-06
6.95858e-06
5.56976e-06
4.15367e-06
2.713e-06
1.25058e-06
-2.3177e-07
-1.7348e-06
-3.26002e-06
-4.80727e-06
-6.37411e-06
-7.96016e-06
-9.56654e-06
-1.11912e-05
-1.28309e-05
-1.44842e-05
-1.61502e-05
-1.78278e-05
-1.95156e-05
-2.1213e-05
-2.29211e-05
-2.46401e-05
-2.63699e-05
-2.81094e-05
-2.98571e-05
-3.16129e-05
-3.33782e-05
-3.51515e-05
-3.69305e-05
-3.87149e-05
-4.05066e-05
-4.23067e-05
-4.41143e-05
-4.59279e-05
-4.7747e-05
-4.95726e-05
-5.14064e-05
-5.32489e-05
-5.50987e-05
-5.69536e-05
-5.88131e-05
-6.0679e-05
-6.25523e-05
-6.44318e-05
-6.6316e-05
-6.8206e-05
-7.01035e-05
-7.20085e-05
-7.39187e-05
-7.58316e-05
-7.77472e-05
-7.96667e-05
-8.15913e-05
-8.35217e-05
-8.54579e-05
-8.73986e-05
-8.93415e-05
-9.12856e-05
-9.32303e-05
-9.51745e-05
-9.71165e-05
-9.9055e-05
-0.000100991
-0.000102928
-0.000104864
-0.000106798
-0.000108726
-0.000110645
-0.000112556
-0.000114459
-0.000116353
-0.00011824
-0.000120117
-0.000121982
-0.000123831
-0.000125665
-0.000127483
-0.000129284
-0.000131068
-0.00013283
-0.000134568
-0.000136281
-0.000137969
-0.000139631
-0.000141264
-0.000142865
-0.000144431
-0.000145958
-0.000147445
-0.000148893
-0.000150301
-0.000151666
-0.000152985
-0.000154253
-0.000155469
-0.000156631
-0.00015774
-0.000158793
-0.000159787
-0.00016072
-0.000161588
-0.00016239
-0.000163125
-0.000163794
-0.000164396
-0.000164929
-0.000165391
-0.000165782
-0.000166102
-0.000166353
-0.000166539
-0.000166661
-0.000166723
-0.000166727
-0.000166677
-0.000166579
-0.00016644
-0.000166273
-0.000166089
-0.000165894
-0.000165674
-0.000165426
1.34227e-05
1.42205e-05
1.51578e-05
1.62216e-05
1.73646e-05
1.85141e-05
1.96216e-05
2.0656e-05
2.15971e-05
2.24351e-05
2.31622e-05
2.37807e-05
2.42912e-05
2.46897e-05
2.49794e-05
2.51629e-05
2.52432e-05
2.52256e-05
2.51144e-05
2.49141e-05
2.46277e-05
2.42583e-05
2.38104e-05
2.32871e-05
2.26916e-05
2.20294e-05
2.13035e-05
2.05169e-05
1.96721e-05
1.87695e-05
1.78104e-05
1.67973e-05
1.57319e-05
1.46172e-05
1.34585e-05
1.22581e-05
1.10164e-05
9.73611e-06
8.4206e-06
7.07224e-06
5.69334e-06
4.28696e-06
2.85532e-06
1.40115e-06
-7.4225e-08
-1.5721e-06
-3.0926e-06
-4.63447e-06
-6.19765e-06
-7.78297e-06
-9.38888e-06
-1.10119e-05
-1.26501e-05
-1.43034e-05
-1.59711e-05
-1.76513e-05
-1.9342e-05
-2.10427e-05
-2.27552e-05
-2.44807e-05
-2.62179e-05
-2.79645e-05
-2.97191e-05
-3.14834e-05
-3.32584e-05
-3.50418e-05
-3.68307e-05
-3.86256e-05
-4.04282e-05
-4.22393e-05
-4.40581e-05
-4.58837e-05
-4.77158e-05
-4.95549e-05
-5.14025e-05
-5.32583e-05
-5.51205e-05
-5.69874e-05
-5.88596e-05
-6.07389e-05
-6.26257e-05
-6.45181e-05
-6.64147e-05
-6.83168e-05
-7.02261e-05
-7.21427e-05
-7.4064e-05
-7.59876e-05
-7.7913e-05
-7.98417e-05
-8.17759e-05
-8.37159e-05
-8.56608e-05
-8.76089e-05
-8.95582e-05
-9.15084e-05
-9.34587e-05
-9.54068e-05
-9.73514e-05
-9.92924e-05
-0.000101231
-0.00010317
-0.000105108
-0.000107041
-0.000108967
-0.000110883
-0.00011279
-0.000114688
-0.000116579
-0.00011846
-0.000120331
-0.000122186
-0.000124026
-0.00012585
-0.000127659
-0.00012945
-0.000131221
-0.000132969
-0.000134692
-0.000136392
-0.000138065
-0.000139712
-0.000141329
-0.000142913
-0.000144461
-0.000145971
-0.000147442
-0.000148873
-0.000150263
-0.00015161
-0.000152911
-0.000154162
-0.000155361
-0.000156507
-0.000157601
-0.000158639
-0.00015962
-0.000160539
-0.000161396
-0.000162188
-0.000162915
-0.000163577
-0.000164174
-0.000164705
-0.000165166
-0.000165557
-0.00016588
-0.000166136
-0.000166329
-0.00016646
-0.000166532
-0.000166546
-0.000166506
-0.000166417
-0.000166284
-0.000166113
-0.000165918
-0.000165704
-0.000165447
-0.00016513
1.50161e-05
1.57498e-05
1.65582e-05
1.74508e-05
1.84123e-05
1.93921e-05
2.03458e-05
2.12458e-05
2.20751e-05
2.28178e-05
2.34683e-05
2.40229e-05
2.44769e-05
2.48306e-05
2.50841e-05
2.52377e-05
2.52947e-05
2.52591e-05
2.51354e-05
2.49268e-05
2.46346e-05
2.4263e-05
2.38145e-05
2.32919e-05
2.27011e-05
2.20451e-05
2.13267e-05
2.05485e-05
1.9711e-05
1.88159e-05
1.78657e-05
1.68618e-05
1.58057e-05
1.47018e-05
1.35539e-05
1.2363e-05
1.11307e-05
9.86013e-06
8.55373e-06
7.21361e-06
5.84256e-06
4.44387e-06
3.02022e-06
1.57327e-06
1.02453e-07
-1.39255e-06
-2.90976e-06
-4.44824e-06
-6.01005e-06
-7.59517e-06
-9.2007e-06
-1.08236e-05
-1.24625e-05
-1.41171e-05
-1.57864e-05
-1.74687e-05
-1.9163e-05
-2.08687e-05
-2.25871e-05
-2.43194e-05
-2.60636e-05
-2.78176e-05
-2.95813e-05
-3.13554e-05
-3.31394e-05
-3.4931e-05
-3.67297e-05
-3.85364e-05
-4.03514e-05
-4.21738e-05
-4.40036e-05
-4.58407e-05
-4.76853e-05
-4.95382e-05
-5.13999e-05
-5.32689e-05
-5.51434e-05
-5.70229e-05
-5.89087e-05
-6.08012e-05
-6.27001e-05
-6.46043e-05
-6.65138e-05
-6.84294e-05
-7.03515e-05
-7.22791e-05
-7.42105e-05
-7.61441e-05
-7.80797e-05
-8.00185e-05
-8.19625e-05
-8.3912e-05
-8.58654e-05
-8.78211e-05
-8.97778e-05
-9.17349e-05
-9.36909e-05
-9.56432e-05
-9.75909e-05
-9.95351e-05
-0.000101478
-0.000103419
-0.000105359
-0.000107292
-0.000109216
-0.00011113
-0.000113034
-0.00011493
-0.000116818
-0.000118695
-0.000120559
-0.000122407
-0.000124239
-0.000126056
-0.000127856
-0.000129638
-0.000131398
-0.000133134
-0.000134845
-0.000136531
-0.000138193
-0.000139827
-0.00014143
-0.000142999
-0.000144531
-0.000146025
-0.000147481
-0.000148898
-0.000150273
-0.000151604
-0.000152889
-0.000154124
-0.000155308
-0.000156441
-0.000157521
-0.000158547
-0.000159515
-0.000160423
-0.000161269
-0.000162052
-0.000162773
-0.000163431
-0.000164024
-0.000164551
-0.00016501
-0.000165401
-0.000165725
-0.000165986
-0.000166185
-0.000166323
-0.000166401
-0.00016642
-0.000166384
-0.000166297
-0.000166165
-0.000165989
-0.000165779
-0.000165539
-0.000165241
-0.000164858
1.63999e-05
1.71061e-05
1.78369e-05
1.86125e-05
1.94421e-05
2.02882e-05
2.11157e-05
2.19024e-05
2.26293e-05
2.32861e-05
2.38644e-05
2.43548e-05
2.47542e-05
2.5062e-05
2.52768e-05
2.53995e-05
2.54322e-05
2.53778e-05
2.52393e-05
2.50184e-05
2.47185e-05
2.43416e-05
2.38896e-05
2.33667e-05
2.27772e-05
2.21241e-05
2.14105e-05
2.06374e-05
1.98049e-05
1.89157e-05
1.79712e-05
1.69729e-05
1.59243e-05
1.48292e-05
1.36889e-05
1.2505e-05
1.12805e-05
1.00175e-05
8.71807e-06
7.38462e-06
6.0196e-06
4.62674e-06
3.20924e-06
1.76704e-06
2.99034e-07
-1.19338e-06
-2.70841e-06
-4.24671e-06
-5.8094e-06
-7.39458e-06
-8.99993e-06
-1.0624e-05
-1.22654e-05
-1.39229e-05
-1.55949e-05
-1.72796e-05
-1.89775e-05
-2.06893e-05
-2.24153e-05
-2.41545e-05
-2.59051e-05
-2.76669e-05
-2.94408e-05
-3.12257e-05
-3.30189e-05
-3.48193e-05
-3.6628e-05
-3.84461e-05
-4.02731e-05
-4.21077e-05
-4.39493e-05
-4.57982e-05
-4.76556e-05
-4.95224e-05
-5.13976e-05
-5.32791e-05
-5.51656e-05
-5.70583e-05
-5.89585e-05
-6.08648e-05
-6.27757e-05
-6.46914e-05
-6.66136e-05
-6.85428e-05
-7.04779e-05
-7.2417e-05
-7.43583e-05
-7.63014e-05
-7.82471e-05
-8.01965e-05
-8.2151e-05
-8.411e-05
-8.60718e-05
-8.80355e-05
-9.00003e-05
-9.19648e-05
-9.39267e-05
-9.58834e-05
-9.7835e-05
-9.97835e-05
-0.00010173
-0.000103675
-0.000105616
-0.00010755
-0.000109474
-0.000111387
-0.00011329
-0.000115185
-0.00011707
-0.000118944
-0.000120803
-0.000122646
-0.000124472
-0.000126282
-0.000128075
-0.000129849
-0.000131599
-0.000133324
-0.000135025
-0.000136701
-0.000138351
-0.000139975
-0.000141566
-0.000143122
-0.00014464
-0.00014612
-0.000147563
-0.000148967
-0.00015033
-0.000151647
-0.000152917
-0.000154139
-0.00015531
-0.000156431
-0.0001575
-0.000158515
-0.000159472
-0.00016037
-0.000161207
-0.000161983
-0.000162699
-0.000163352
-0.000163942
-0.000164466
-0.000164922
-0.000165312
-0.000165638
-0.000165902
-0.000166105
-0.000166247
-0.00016633
-0.000166352
-0.000166316
-0.000166227
-0.000166089
-0.000165905
-0.000165678
-0.000165413
-0.000165075
-0.000164631
1.76478e-05
1.83429e-05
1.90251e-05
1.97216e-05
2.04527e-05
2.11932e-05
2.19199e-05
2.26098e-05
2.32497e-05
2.38298e-05
2.4338e-05
2.4768e-05
2.51154e-05
2.53773e-05
2.55532e-05
2.5644e-05
2.56515e-05
2.55769e-05
2.54212e-05
2.51873e-05
2.48769e-05
2.44914e-05
2.40344e-05
2.35095e-05
2.29194e-05
2.22672e-05
2.15549e-05
2.07832e-05
1.99539e-05
1.9068e-05
1.81263e-05
1.71319e-05
1.60893e-05
1.49997e-05
1.38645e-05
1.26862e-05
1.14673e-05
1.02094e-05
8.91494e-06
7.5863e-06
6.22621e-06
4.83835e-06
3.42434e-06
1.98366e-06
5.17358e-07
-9.7299e-07
-2.48774e-06
-4.02809e-06
-5.59286e-06
-7.17934e-06
-8.78587e-06
-1.04119e-05
-1.20565e-05
-1.37178e-05
-1.53933e-05
-1.70818e-05
-1.87846e-05
-2.05033e-05
-2.22371e-05
-2.39839e-05
-2.5742e-05
-2.75125e-05
-2.92963e-05
-3.10912e-05
-3.28942e-05
-3.47049e-05
-3.65245e-05
-3.83539e-05
-4.01926e-05
-4.20391e-05
-4.38927e-05
-4.57543e-05
-4.76254e-05
-4.95062e-05
-5.13946e-05
-5.32884e-05
-5.51876e-05
-5.70938e-05
-5.90077e-05
-6.09272e-05
-6.28509e-05
-6.47794e-05
-6.67145e-05
-6.86567e-05
-7.06045e-05
-7.25551e-05
-7.45068e-05
-7.64597e-05
-7.84156e-05
-8.0376e-05
-8.2341e-05
-8.43094e-05
-8.62801e-05
-8.82527e-05
-9.02263e-05
-9.21982e-05
-9.41657e-05
-9.61273e-05
-9.80839e-05
-0.000100037
-0.000101989
-0.000103938
-0.000105882
-0.000107816
-0.00010974
-0.000111653
-0.000113558
-0.000115453
-0.000117337
-0.000119208
-0.000121063
-0.000122901
-0.000124724
-0.000126529
-0.000128316
-0.000130082
-0.000131824
-0.000133541
-0.000135233
-0.000136901
-0.000138542
-0.000140155
-0.000141736
-0.00014328
-0.000144787
-0.000146256
-0.000147687
-0.00014908
-0.000150431
-0.000151737
-0.000152995
-0.000154205
-0.000155365
-0.000156476
-0.000157536
-0.00015854
-0.000159489
-0.000160379
-0.000161208
-0.000161978
-0.000162689
-0.000163339
-0.000163925
-0.000164446
-0.0001649
-0.000165289
-0.000165616
-0.000165882
-0.000166088
-0.000166233
-0.000166318
-0.000166341
-0.000166304
-0.000166211
-0.000166064
-0.000165868
-0.000165624
-0.000165335
-0.000164959
-0.000164461
1.88089e-05
1.95001e-05
2.01509e-05
2.07906e-05
2.14481e-05
2.21085e-05
2.27507e-05
2.33618e-05
2.39285e-05
2.44371e-05
2.48814e-05
2.52551e-05
2.55522e-05
2.57702e-05
2.59088e-05
2.59683e-05
2.59496e-05
2.58526e-05
2.5679e-05
2.54305e-05
2.51072e-05
2.47121e-05
2.42484e-05
2.37189e-05
2.31267e-05
2.24734e-05
2.17596e-05
2.09874e-05
2.01583e-05
1.92724e-05
1.83317e-05
1.73404e-05
1.63007e-05
1.52139e-05
1.4082e-05
1.29074e-05
1.1692e-05
1.04374e-05
9.14572e-06
7.82e-06
6.46402e-06
5.07963e-06
3.66656e-06
2.22584e-06
7.60145e-07
-7.30289e-07
-2.24717e-06
-3.79037e-06
-5.35761e-06
-6.9469e-06
-8.55678e-06
-1.01864e-05
-1.18347e-05
-1.34997e-05
-1.51795e-05
-1.68734e-05
-1.85828e-05
-2.0309e-05
-2.20503e-05
-2.38047e-05
-2.55723e-05
-2.73533e-05
-2.91469e-05
-3.09507e-05
-3.27636e-05
-3.45857e-05
-3.64175e-05
-3.82588e-05
-4.01089e-05
-4.1967e-05
-4.38331e-05
-4.57083e-05
-4.75935e-05
-4.94878e-05
-5.13889e-05
-5.32958e-05
-5.5209e-05
-5.71292e-05
-5.9056e-05
-6.0988e-05
-6.29248e-05
-6.48671e-05
-6.68161e-05
-6.87712e-05
-7.07309e-05
-7.26928e-05
-7.46552e-05
-7.66188e-05
-7.85856e-05
-8.05569e-05
-8.25323e-05
-8.45103e-05
-8.64906e-05
-8.8473e-05
-9.04554e-05
-9.24347e-05
-9.44082e-05
-9.63752e-05
-9.83378e-05
-0.000100297
-0.000102254
-0.000104208
-0.000106154
-0.00010809
-0.000110016
-0.000111931
-0.000113837
-0.000115734
-0.000117618
-0.000119487
-0.000121339
-0.000123174
-0.000124994
-0.000126796
-0.000128579
-0.000130338
-0.000132073
-0.000133783
-0.000135469
-0.00013713
-0.000138764
-0.000140369
-0.000141939
-0.000143474
-0.000144971
-0.000146431
-0.000147853
-0.000149236
-0.000150577
-0.000151872
-0.000153121
-0.000154321
-0.000155473
-0.000156576
-0.000157627
-0.000158623
-0.000159564
-0.000160446
-0.00016127
-0.000162035
-0.000162742
-0.000163388
-0.000163972
-0.00016449
-0.000164943
-0.000165331
-0.000165659
-0.000165927
-0.000166134
-0.000166281
-0.000166365
-0.000166388
-0.000166348
-0.00016625
-0.000166095
-0.000165885
-0.000165624
-0.000165312
-0.000164902
-0.000164357
1.99184e-05
2.0609e-05
2.12361e-05
2.18336e-05
2.24386e-05
2.30342e-05
2.36099e-05
2.41552e-05
2.4656e-05
2.51028e-05
2.54893e-05
2.58096e-05
2.60593e-05
2.62361e-05
2.63394e-05
2.63686e-05
2.63228e-05
2.62034e-05
2.60108e-05
2.57451e-05
2.54083e-05
2.50026e-05
2.45307e-05
2.3995e-05
2.33984e-05
2.27411e-05
2.20242e-05
2.12496e-05
2.04175e-05
1.95293e-05
1.85887e-05
1.75981e-05
1.65587e-05
1.54729e-05
1.43425e-05
1.31693e-05
1.19554e-05
1.07023e-05
9.41178e-06
8.08814e-06
6.73445e-06
5.35055e-06
3.93704e-06
2.49621e-06
1.02936e-06
-4.64122e-07
-1.98497e-06
-3.53161e-06
-5.10223e-06
-6.6954e-06
-8.30997e-06
-9.94496e-06
-1.15981e-05
-1.3267e-05
-1.49516e-05
-1.66527e-05
-1.83708e-05
-2.01049e-05
-2.18534e-05
-2.36163e-05
-2.53945e-05
-2.71867e-05
-2.89902e-05
-3.08037e-05
-3.2627e-05
-3.44608e-05
-3.63049e-05
-3.81585e-05
-4.00206e-05
-4.18906e-05
-4.37698e-05
-4.56596e-05
-4.75592e-05
-4.94667e-05
-5.13803e-05
-5.33007e-05
-5.52286e-05
-5.71632e-05
-5.91027e-05
-6.10471e-05
-6.29971e-05
-6.49539e-05
-6.69173e-05
-6.88857e-05
-7.08573e-05
-7.28301e-05
-7.48034e-05
-7.67786e-05
-7.8757e-05
-8.07393e-05
-8.27249e-05
-8.47129e-05
-8.67036e-05
-8.86963e-05
-9.06876e-05
-9.2674e-05
-9.46538e-05
-9.66273e-05
-9.85968e-05
-0.000100563
-0.000102526
-0.000104485
-0.000106435
-0.000108374
-0.000110302
-0.00011222
-0.000114129
-0.000116028
-0.000117912
-0.00011978
-0.000121631
-0.000123465
-0.000125284
-0.000127084
-0.000128863
-0.000130618
-0.000132347
-0.000134052
-0.000135732
-0.000137388
-0.000139017
-0.000140614
-0.000142177
-0.000143702
-0.000145192
-0.000146645
-0.00014806
-0.000149435
-0.000150767
-0.000152053
-0.000153294
-0.000154487
-0.000155632
-0.000156728
-0.000157772
-0.000158762
-0.000159695
-0.000160571
-0.00016139
-0.000162152
-0.000162856
-0.0001635
-0.000164081
-0.000164597
-0.000165049
-0.000165437
-0.000165765
-0.000166033
-0.000166242
-0.000166389
-0.000166473
-0.000166493
-0.00016645
-0.000166347
-0.000166184
-0.000165962
-0.000165684
-0.00016535
-0.000164911
-0.000164326
2.10014e-05
2.16926e-05
2.23017e-05
2.28687e-05
2.34304e-05
2.39777e-05
2.44996e-05
2.4986e-05
2.54296e-05
2.58221e-05
2.61562e-05
2.64279e-05
2.66338e-05
2.67723e-05
2.68417e-05
2.68406e-05
2.6769e-05
2.66271e-05
2.64135e-05
2.61299e-05
2.57788e-05
2.53614e-05
2.48803e-05
2.43373e-05
2.37335e-05
2.30699e-05
2.23483e-05
2.15684e-05
2.0731e-05
1.98398e-05
1.88974e-05
1.79047e-05
1.68639e-05
1.57774e-05
1.46466e-05
1.34731e-05
1.22585e-05
1.10049e-05
9.7151e-06
8.3925e-06
7.0382e-06
5.65244e-06
4.2377e-06
2.79564e-06
1.32555e-06
-1.73e-07
-1.69901e-06
-3.25025e-06
-4.82545e-06
-6.42383e-06
-8.04431e-06
-9.68527e-06
-1.1344e-05
-1.30182e-05
-1.47091e-05
-1.64186e-05
-1.81456e-05
-1.98882e-05
-2.16456e-05
-2.34186e-05
-2.52077e-05
-2.70106e-05
-2.88246e-05
-3.06488e-05
-3.24836e-05
-3.43293e-05
-3.61858e-05
-3.80518e-05
-3.9926e-05
-4.18088e-05
-4.37022e-05
-4.5607e-05
-4.75209e-05
-4.94417e-05
-5.13689e-05
-5.33035e-05
-5.52458e-05
-5.71943e-05
-5.91471e-05
-6.11045e-05
-6.30684e-05
-6.50395e-05
-6.70173e-05
-6.89993e-05
-7.09829e-05
-7.2967e-05
-7.49518e-05
-7.6939e-05
-7.89296e-05
-8.0923e-05
-8.29191e-05
-8.4918e-05
-8.69197e-05
-8.89225e-05
-9.09224e-05
-9.29161e-05
-9.49028e-05
-9.68838e-05
-9.88611e-05
-0.000100836
-0.000102806
-0.000104769
-0.000106723
-0.000108666
-0.000110598
-0.000112521
-0.000114435
-0.000116335
-0.00011822
-0.000120087
-0.000121939
-0.000123774
-0.000125593
-0.000127392
-0.000129168
-0.00013092
-0.000132646
-0.000134347
-0.000136024
-0.000137676
-0.000139299
-0.000140891
-0.000142446
-0.000143966
-0.00014545
-0.000146897
-0.000148307
-0.000149675
-0.000151
-0.000152279
-0.000153513
-0.000154701
-0.000155841
-0.000156932
-0.000157971
-0.000158954
-0.000159882
-0.000160753
-0.000161568
-0.000162328
-0.00016303
-0.000163672
-0.000164251
-0.000164766
-0.000165217
-0.000165606
-0.000165934
-0.000166202
-0.000166411
-0.000166558
-0.000166641
-0.000166659
-0.000166613
-0.000166504
-0.000166334
-0.000166101
-0.000165808
-0.000165455
-0.00016499
-0.000164372
2.20749e-05
2.27686e-05
2.33663e-05
2.39062e-05
2.44352e-05
2.49432e-05
2.54178e-05
2.58544e-05
2.62482e-05
2.65915e-05
2.68787e-05
2.71067e-05
2.72733e-05
2.73759e-05
2.74125e-05
2.73823e-05
2.72852e-05
2.71196e-05
2.68853e-05
2.65841e-05
2.62175e-05
2.57876e-05
2.52964e-05
2.47439e-05
2.41313e-05
2.34602e-05
2.27306e-05
2.19427e-05
2.10995e-05
2.02039e-05
1.92571e-05
1.82607e-05
1.7217e-05
1.61276e-05
1.49947e-05
1.38189e-05
1.26015e-05
1.13463e-05
1.00565e-05
8.73282e-06
7.3756e-06
5.98729e-06
4.57036e-06
3.12448e-06
1.64895e-06
1.44505e-07
-1.38727e-06
-2.94469e-06
-4.52623e-06
-6.13124e-06
-7.75855e-06
-9.40573e-06
-1.10705e-05
-1.2752e-05
-1.44515e-05
-1.61701e-05
-1.79059e-05
-1.96576e-05
-2.14257e-05
-2.32103e-05
-2.50106e-05
-2.6824e-05
-2.86489e-05
-3.04848e-05
-3.2332e-05
-3.41905e-05
-3.60595e-05
-3.79376e-05
-3.98245e-05
-4.17215e-05
-4.36301e-05
-4.55497e-05
-4.74775e-05
-4.94122e-05
-5.13542e-05
-5.33038e-05
-5.526e-05
-5.72218e-05
-5.91882e-05
-6.11597e-05
-6.31383e-05
-6.51241e-05
-6.71162e-05
-6.91115e-05
-7.11074e-05
-7.31035e-05
-7.51008e-05
-7.71004e-05
-7.9103e-05
-8.11076e-05
-8.31149e-05
-8.51256e-05
-8.71388e-05
-8.91515e-05
-9.11599e-05
-9.31613e-05
-9.51558e-05
-9.71451e-05
-9.91314e-05
-0.000101114
-0.000103092
-0.000105062
-0.00010702
-0.000108968
-0.000110906
-0.000112835
-0.000114752
-0.000116655
-0.000118541
-0.00012041
-0.000122264
-0.000124101
-0.000125921
-0.00012772
-0.000129495
-0.000131245
-0.000132969
-0.000134668
-0.000136343
-0.000137992
-0.000139611
-0.000141198
-0.000142749
-0.000144264
-0.000145744
-0.000147188
-0.000148592
-0.000149955
-0.000151275
-0.000152549
-0.000153778
-0.000154962
-0.000156099
-0.000157186
-0.00015822
-0.000159199
-0.000160122
-0.00016099
-0.000161803
-0.000162561
-0.000163262
-0.000163903
-0.000164481
-0.000164995
-0.000165446
-0.000165835
-0.000166164
-0.000166433
-0.000166641
-0.000166788
-0.00016687
-0.000166886
-0.000166837
-0.000166723
-0.000166547
-0.000166304
-0.000165999
-0.000165629
-0.000165143
-0.000164499
2.31548e-05
2.38521e-05
2.44393e-05
2.49596e-05
2.54606e-05
2.59316e-05
2.63671e-05
2.67615e-05
2.71106e-05
2.74101e-05
2.76557e-05
2.7845e-05
2.79753e-05
2.8044e-05
2.80501e-05
2.79922e-05
2.78685e-05
2.7679e-05
2.74247e-05
2.71056e-05
2.67237e-05
2.62807e-05
2.57771e-05
2.52134e-05
2.4591e-05
2.39097e-05
2.31696e-05
2.23732e-05
2.15229e-05
2.06204e-05
1.96674e-05
1.86659e-05
1.76175e-05
1.65239e-05
1.53867e-05
1.42065e-05
1.29857e-05
1.17284e-05
1.04361e-05
9.10875e-06
7.74802e-06
6.35646e-06
4.93507e-06
3.48313e-06
2.00064e-06
4.89273e-07
-1.0493e-06
-2.61387e-06
-4.20329e-06
-5.81667e-06
-7.45156e-06
-9.10509e-06
-1.07768e-05
-1.24675e-05
-1.41773e-05
-1.59055e-05
-1.76506e-05
-1.94128e-05
-2.1193e-05
-2.299e-05
-2.48016e-05
-2.66261e-05
-2.84625e-05
-3.03108e-05
-3.21712e-05
-3.40428e-05
-3.59244e-05
-3.7815e-05
-3.97158e-05
-4.16282e-05
-4.35525e-05
-4.54867e-05
-4.74287e-05
-4.93781e-05
-5.13356e-05
-5.33004e-05
-5.52706e-05
-5.72456e-05
-5.92257e-05
-6.12121e-05
-6.3206e-05
-6.52072e-05
-6.72134e-05
-6.92217e-05
-7.12303e-05
-7.32394e-05
-7.52501e-05
-7.72626e-05
-7.92769e-05
-8.12933e-05
-8.33128e-05
-8.53359e-05
-8.73606e-05
-8.93833e-05
-9.13999e-05
-9.34097e-05
-9.54131e-05
-9.74119e-05
-9.94081e-05
-0.0001014
-0.000103385
-0.000105361
-0.000107326
-0.00010928
-0.000111225
-0.00011316
-0.000115082
-0.000116987
-0.000118876
-0.000120748
-0.000122605
-0.000124446
-0.000126268
-0.000128068
-0.000129843
-0.000131592
-0.000133316
-0.000135015
-0.00013669
-0.000138336
-0.000139952
-0.000141535
-0.000143083
-0.000144597
-0.000146075
-0.000147516
-0.000148917
-0.000150275
-0.00015159
-0.000152861
-0.000154088
-0.000155269
-0.000156404
-0.000157488
-0.000158519
-0.000159494
-0.000160415
-0.00016128
-0.000162092
-0.00016285
-0.000163551
-0.000164192
-0.00016477
-0.000165284
-0.000165735
-0.000166125
-0.000166455
-0.000166725
-0.000166933
-0.000167079
-0.00016716
-0.000167175
-0.000167124
-0.000167007
-0.000166825
-0.000166575
-0.000166259
-0.000165876
-0.000165374
-0.000164709
2.42578e-05
2.49527e-05
2.55325e-05
2.60359e-05
2.65086e-05
2.69491e-05
2.73504e-05
2.77073e-05
2.80175e-05
2.82785e-05
2.84874e-05
2.86413e-05
2.87376e-05
2.87751e-05
2.87524e-05
2.86668e-05
2.8517e-05
2.83048e-05
2.80298e-05
2.7693e-05
2.7296e-05
2.68384e-05
2.6321e-05
2.57453e-05
2.51106e-05
2.44165e-05
2.36651e-05
2.28592e-05
2.19998e-05
2.10889e-05
2.01283e-05
1.91199e-05
1.80654e-05
1.69659e-05
1.58221e-05
1.46362e-05
1.34118e-05
1.21509e-05
1.08535e-05
9.52101e-06
8.15615e-06
6.7599e-06
5.33186e-06
3.87204e-06
2.38132e-06
8.61997e-07
-6.8461e-07
-2.25774e-06
-3.85647e-06
-5.47899e-06
-7.12184e-06
-8.7829e-06
-1.04635e-05
-1.21647e-05
-1.38852e-05
-1.56234e-05
-1.73792e-05
-1.91535e-05
-2.09465e-05
-2.2756e-05
-2.45796e-05
-2.64161e-05
-2.82651e-05
-3.01267e-05
-3.20005e-05
-3.38853e-05
-3.57795e-05
-3.76836e-05
-3.95996e-05
-4.15283e-05
-4.34682e-05
-4.54171e-05
-4.7374e-05
-4.93391e-05
-5.13123e-05
-5.32921e-05
-5.52765e-05
-5.72652e-05
-5.92598e-05
-6.12617e-05
-6.32715e-05
-6.5288e-05
-6.73083e-05
-6.93297e-05
-7.13516e-05
-7.33747e-05
-7.53992e-05