/*--------------------------------*- C++ -*----------------------------------*\
  =========                 |
  \\      /  F ield         | OpenFOAM: The Open Source CFD Toolbox
   \\    /   O peration     | Website:  https://openfoam.org
    \\  /    A nd           | Version:  7
     \\/     M anipulation  |
\*---------------------------------------------------------------------------*/
FoamFile
{
    version     2.0;
    format      ascii;
    class       surfaceScalarField;
    location    "0.4";
    object      phi;
}
// * * * * * * * * * * * * * * * * * * * * * * * * * * * * * * * * * * * * * //

dimensions      [0 3 -1 0 0 0 0];

internalField   nonuniform List<scalar> 
101920
(
-6.74743e-14
1.51861e-13
-6.11708e-13
5.43737e-13
-6.64049e-13
5.55588e-14
-5.09321e-13
-1.58893e-13
-1.02732e-13
-4.07239e-13
5.01683e-13
-6.04174e-13
1.25643e-12
-7.55283e-13
2.12751e-12
-8.70175e-13
3.08813e-12
-9.61155e-13
4.11617e-12
-1.02881e-12
5.1938e-12
-1.07885e-12
6.30582e-12
-1.11295e-12
7.44036e-12
-1.13259e-12
8.58342e-12
-1.14317e-12
9.72733e-12
-1.14294e-12
1.0861e-11
-1.13431e-12
1.19784e-11
-1.11707e-12
1.30718e-11
-1.09217e-12
1.41337e-11
-1.06276e-12
1.51615e-11
-1.02662e-12
1.61484e-11
-9.85857e-13
1.70921e-11
-9.42179e-13
1.79885e-11
-8.95512e-13
1.88352e-11
-8.47295e-13
1.96313e-11
-7.9627e-13
2.03737e-11
-7.43266e-13
2.10604e-11
-6.88457e-13
2.16929e-11
-6.32068e-13
2.22694e-11
-5.7674e-13
2.27898e-11
-5.21616e-13
2.32559e-11
-4.65985e-13
2.36665e-11
-4.11645e-13
2.40226e-11
-3.57225e-13
2.43256e-11
-3.02687e-13
2.45759e-11
-2.5072e-13
2.4776e-11
-2.00658e-13
2.49276e-11
-1.51184e-13
2.50313e-11
-1.03777e-13
2.50902e-11
-5.89258e-14
2.51068e-11
-1.5928e-14
2.50822e-11
2.47146e-14
2.50185e-11
6.31565e-14
2.49193e-11
9.96698e-14
2.47865e-11
1.33179e-13
2.46223e-11
1.63866e-13
2.44304e-11
1.92343e-13
2.4213e-11
2.17834e-13
2.39718e-11
2.40076e-13
2.37104e-11
2.61068e-13
2.34309e-11
2.80377e-13
2.31356e-11
2.96301e-13
2.2828e-11
3.08634e-13
2.25104e-11
3.1854e-13
2.21844e-11
3.26449e-13
2.18522e-11
3.31847e-13
2.15171e-11
3.34693e-13
2.11823e-11
3.34881e-13
2.08492e-11
3.32392e-13
2.05198e-11
3.27845e-13
2.01966e-11
3.21707e-13
1.98814e-11
3.1391e-13
1.95765e-11
3.04242e-13
1.92844e-11
2.92851e-13
1.90061e-11
2.79778e-13
1.87426e-11
2.6452e-13
1.8496e-11
2.4714e-13
1.82687e-11
2.2857e-13
1.80619e-11
2.08704e-13
1.78757e-11
1.86623e-13
1.77113e-11
1.62839e-13
1.75699e-11
1.38895e-13
1.74524e-11
1.15233e-13
1.73595e-11
9.14439e-14
1.72927e-11
6.72807e-14
1.72527e-11
4.21094e-14
1.72389e-11
1.51561e-14
1.7251e-11
-1.28617e-14
1.72895e-11
-4.00826e-14
1.73548e-11
-6.60076e-14
1.74468e-11
-9.16511e-14
1.75653e-11
-1.17576e-13
1.77105e-11
-1.4342e-13
1.78814e-11
-1.69143e-13
1.80769e-11
-1.95185e-13
1.82962e-11
-2.21037e-13
1.85386e-11
-2.45109e-13
1.8804e-11
-2.66811e-13
1.90912e-11
-2.86954e-13
1.93989e-11
-3.06432e-13
1.97261e-11
-3.25608e-13
2.00707e-11
-3.43834e-13
2.04312e-11
-3.60293e-13
2.08065e-11
-3.75049e-13
2.11947e-11
-3.88097e-13
2.15941e-11
-3.99241e-13
2.20019e-11
-4.08405e-13
2.24164e-11
-4.15328e-13
2.28363e-11
-4.20108e-13
2.32591e-11
-4.22747e-13
2.36826e-11
-4.23239e-13
2.41048e-11
-4.21998e-13
2.45227e-11
-4.18545e-13
2.49352e-11
-4.12498e-13
2.53395e-11
-4.04228e-13
2.57319e-11
-3.93425e-13
2.61109e-11
-3.79881e-13
2.64738e-11
-3.63562e-13
2.68182e-11
-3.44265e-13
2.71424e-11
-3.22729e-13
2.74431e-11
-2.99609e-13
2.77176e-11
-2.74367e-13
2.79637e-11
-2.46512e-13
2.81781e-11
-2.15745e-13
2.83591e-11
-1.81999e-13
2.85055e-11
-1.4615e-13
2.86142e-11
-1.08376e-13
2.86833e-11
-6.81547e-14
2.87105e-11
-2.60026e-14
2.86922e-11
1.81211e-14
2.86274e-11
6.458e-14
2.8515e-11
1.1287e-13
2.83524e-11
1.62951e-13
2.81385e-11
2.14887e-13
2.7872e-11
2.67708e-13
2.75502e-11
3.21391e-13
2.71728e-11
3.7663e-13
2.67402e-11
4.32818e-13
2.62508e-11
4.89306e-13
2.57048e-11
5.4625e-13
2.51028e-11
6.03081e-13
2.44431e-11
6.59408e-13
2.37261e-11
7.15746e-13
2.29543e-11
7.71456e-13
2.21286e-11
8.25573e-13
2.12503e-11
8.78334e-13
2.0322e-11
9.29198e-13
1.93452e-11
9.76942e-13
1.83221e-11
1.02179e-12
1.7258e-11
1.06393e-12
1.6157e-11
1.10185e-12
1.50228e-11
1.13429e-12
1.38611e-11
1.16107e-12
1.26789e-11
1.18162e-12
1.14823e-11
1.19543e-12
1.02796e-11
1.20234e-12
9.08067e-12
1.20058e-12
7.89432e-12
1.1876e-12
6.73104e-12
1.16269e-12
5.60456e-12
1.12583e-12
4.52879e-12
1.07572e-12
3.51794e-12
1.01064e-12
2.58903e-12
9.29112e-13
1.761e-12
8.28938e-13
1.05273e-12
7.08381e-13
4.8431e-13
5.67565e-13
7.7032e-14
4.07428e-13
-1.53727e-13
2.31663e-13
-2.10018e-13
5.62397e-14
-1.21611e-13
-8.87176e-14
-1.21373e-13
4.38797e-13
-2.87889e-13
5.89354e-13
3.94428e-13
8.09807e-13
-1.63561e-13
1.51193e-12
-8.62331e-13
2.65811e-12
-1.55576e-12
4.2235e-12
-2.17022e-12
6.15208e-12
-2.68271e-12
8.38413e-12
-3.10294e-12
1.08632e-11
-3.43897e-12
1.35386e-11
-3.70277e-12
1.63625e-11
-3.90353e-12
1.92953e-11
-4.04484e-12
2.22985e-11
-4.13762e-12
2.5341e-11
-4.18562e-12
2.83925e-11
-4.19519e-12
3.14284e-11
-4.17011e-12
3.44246e-11
-4.11274e-12
3.73597e-11
-4.03002e-12
4.02185e-11
-3.92243e-12
4.29835e-11
-3.7937e-12
4.56423e-11
-3.6471e-12
4.81839e-11
-3.4843e-12
5.05963e-11
-3.30953e-12
5.28749e-11
-3.12386e-12
5.50108e-11
-2.93031e-12
5.69982e-11
-2.73015e-12
5.88357e-11
-2.52344e-12
6.05181e-11
-2.31422e-12
6.20446e-11
-2.10315e-12
6.3416e-11
-1.89048e-12
6.46316e-11
-1.67997e-12
6.56925e-11
-1.47187e-12
6.66019e-11
-1.26484e-12
6.73616e-11
-1.06183e-12
6.79756e-11
-8.645e-13
6.84482e-11
-6.72233e-13
6.87829e-11
-4.86219e-13
6.89856e-11
-3.07364e-13
6.90629e-11
-1.35816e-13
6.90188e-11
2.73925e-14
6.88601e-11
1.82189e-13
6.85945e-11
3.28861e-13
6.82277e-11
4.66016e-13
6.77663e-11
5.92965e-13
6.72185e-11
7.1132e-13
6.65917e-11
8.20208e-13
6.58922e-11
9.17656e-13
6.51279e-11
1.00471e-12
6.43067e-11
1.08283e-12
6.3435e-11
1.15087e-12
6.25209e-11
1.20869e-12
6.15729e-11
1.25667e-12
6.05973e-11
1.29476e-12
5.9601e-11
1.32307e-12
5.8592e-11
1.34168e-12
5.75767e-11
1.35083e-12
5.65616e-11
1.35063e-12
5.55536e-11
1.34159e-12
5.456e-11
1.32424e-12
5.35866e-11
1.29787e-12
5.26378e-11
1.26258e-12
5.17199e-11
1.22031e-12
5.08397e-11
1.17204e-12
5.00016e-11
1.11672e-12
4.92099e-11
1.05392e-12
4.84697e-11
9.8498e-13
4.77849e-11
9.11387e-13
4.71592e-11
8.33205e-13
4.65968e-11
7.49971e-13
4.61017e-11
6.61733e-13
4.56756e-11
5.68684e-13
4.53201e-11
4.71521e-13
4.50375e-11
3.72021e-13
4.48307e-11
2.7156e-13
4.4701e-11
1.69816e-13
4.46498e-11
6.60563e-14
4.46783e-11
-3.93353e-14
4.47867e-11
-1.45574e-13
4.49737e-11
-2.52326e-13
4.52387e-11
-3.58869e-13
4.55822e-11
-4.63834e-13
4.60037e-11
-5.66359e-13
4.65011e-11
-6.66583e-13
4.70727e-11
-7.65086e-13
4.77173e-11
-8.62072e-13
4.84317e-11
-9.56711e-13
4.92126e-11
-1.04755e-12
5.00568e-11
-1.13341e-12
5.09614e-11
-1.21362e-12
5.19241e-11
-1.28852e-12
5.29398e-11
-1.35869e-12
5.4003e-11
-1.42339e-12
5.51101e-11
-1.48157e-12
5.62564e-11
-1.53295e-12
5.74365e-11
-1.57756e-12
5.86442e-11
-1.61543e-12
5.98735e-11
-1.64566e-12
6.11201e-11
-1.66732e-12
6.23772e-11
-1.68055e-12
6.36377e-11
-1.68534e-12
6.4896e-11
-1.68158e-12
6.6145e-11
-1.66883e-12
6.73786e-11
-1.64633e-12
6.85902e-11
-1.61455e-12
6.97714e-11
-1.57387e-12
7.09163e-11
-1.52373e-12
7.20176e-11
-1.46414e-12
7.30668e-11
-1.39488e-12
7.40574e-11
-1.31531e-12
7.49827e-11
-1.2257e-12
7.58354e-11
-1.12651e-12
7.6609e-11
-1.01807e-12
7.72952e-11
-9.00962e-13
7.78866e-11
-7.74651e-13
7.83785e-11
-6.38556e-13
7.87636e-11
-4.93349e-13
7.90348e-11
-3.39203e-13
7.91873e-11
-1.76493e-13
7.92141e-11
-6.47413e-15
7.91093e-11
1.70697e-13
7.88685e-11
3.54987e-13
7.84855e-11
5.45702e-13
7.79559e-11
7.42958e-13
7.72778e-11
9.46282e-13
7.6447e-11
1.15384e-12
7.54595e-11
1.36476e-12
7.43138e-11
1.57888e-12
7.30077e-11
1.79509e-12
7.15401e-11
2.01264e-12
6.99129e-11
2.23102e-12
6.81262e-11
2.44803e-12
6.61799e-11
2.6619e-12
6.40775e-11
2.87252e-12
6.18234e-11
3.07884e-12
5.94216e-11
3.27906e-12
5.6879e-11
3.4717e-12
5.4203e-11
3.65424e-12
5.14008e-11
3.82392e-12
4.84828e-11
3.97989e-12
4.54623e-11
4.12107e-12
4.23527e-11
4.24395e-12
3.91692e-11
4.34495e-12
3.59298e-11
4.42193e-12
3.26541e-11
4.47211e-12
2.93631e-11
4.49227e-12
2.60826e-11
4.47967e-12
2.28406e-11
4.4301e-12
1.96664e-11
4.33808e-12
1.65931e-11
4.19958e-12
1.36571e-11
4.01165e-12
1.08972e-11
3.76993e-12
8.35547e-12
3.46945e-12
6.07673e-12
3.10679e-12
4.10611e-12
2.68003e-12
2.48515e-12
2.18991e-12
1.24929e-12
1.64377e-12
4.20905e-13
1.06057e-12
-5.16423e-15
4.83185e-13
-9.20423e-14
-1.37612e-15
-2.13428e-13
2.45014e-13
-5.2978e-13
1.01976e-12
-3.79735e-13
2.02826e-12
-1.1731e-12
3.52563e-12
-2.35818e-12
5.56245e-12
-3.59394e-12
8.13004e-12
-4.73449e-12
1.11788e-11
-5.73263e-12
1.46501e-11
-6.57435e-12
1.8475e-11
-7.26413e-12
2.25871e-11
-7.81583e-12
2.69248e-11
-8.23742e-12
3.14261e-11
-8.54522e-12
3.60377e-11
-8.7481e-12
4.07095e-11
-8.85764e-12
4.53979e-11
-8.88341e-12
5.00636e-11
-8.83339e-12
5.46673e-11
-8.718e-12
5.91806e-11
-8.54217e-12
6.35744e-11
-8.3147e-12
6.78236e-11
-8.04191e-12
7.19073e-11
-7.72906e-12
7.58045e-11
-7.38372e-12
7.95034e-11
-7.00868e-12
8.29885e-11
-6.60962e-12
8.62485e-11
-6.19239e-12
8.92778e-11
-5.75848e-12
9.2068e-11
-5.31358e-12
9.46137e-11
-4.86185e-12
9.69149e-11
-4.40434e-12
9.89689e-11
-3.94547e-12
1.00776e-10
-3.48855e-12
1.0234e-10
-3.03483e-12
1.03662e-10
-2.58722e-12
1.04748e-10
-2.14807e-12
1.05603e-10
-1.71882e-12
1.06233e-10
-1.3019e-12
1.06645e-10
-8.98826e-13
1.06849e-10
-5.10385e-13
1.06852e-10
-1.38596e-13
1.06664e-10
2.15321e-13
1.06295e-10
5.51667e-13
1.05756e-10
8.68907e-13
1.05056e-10
1.16506e-12
1.04208e-10
1.44096e-12
1.03224e-10
1.69615e-12
1.02113e-10
1.92967e-12
1.00889e-10
2.14116e-12
9.95646e-11
2.33111e-12
9.81501e-11
2.49889e-12
9.66582e-11
2.64376e-12
9.51011e-11
2.76645e-12
9.34908e-11
2.86747e-12
9.18386e-11
2.94669e-12
9.01565e-11
3.00468e-12
8.84568e-11
3.04169e-12
8.67496e-11
3.05742e-12
8.50454e-11
3.05275e-12
8.33557e-11
3.02942e-12
8.16911e-11
2.98804e-12
8.00615e-11
2.92772e-12
7.84761e-11
2.84888e-12
7.69443e-11
2.75365e-12
7.54747e-11
2.64304e-12
7.40753e-11
2.51689e-12
7.27547e-11
2.37588e-12
7.15208e-11
2.22113e-12
7.03787e-11
2.05357e-12
6.93342e-11
1.87471e-12
6.83945e-11
1.68632e-12
6.75653e-11
1.48913e-12
6.68505e-11
1.28303e-12
6.62546e-11
1.06866e-12
6.57813e-11
8.47628e-13
6.54328e-11
6.21146e-13
6.52105e-11
3.90205e-13
6.51176e-11
1.56503e-13
6.51565e-11
-7.84688e-14
6.5327e-11
-3.14586e-13
6.56283e-11
-5.51929e-13
6.60604e-11
-7.89209e-13
6.66223e-11
-1.02447e-12
6.73122e-11
-1.2564e-12
6.81269e-11
-1.48396e-12
6.90643e-11
-1.70577e-12
7.01222e-11
-1.92089e-12
7.12962e-11
-2.12924e-12
7.25811e-11
-2.33035e-12
7.39717e-11
-2.52268e-12
7.54624e-11
-2.70423e-12
7.7048e-11
-2.87391e-12
7.87217e-11
-3.03192e-12
8.0476e-11
-3.17767e-12
8.23036e-11
-3.30938e-12
8.41963e-11
-3.42602e-12
8.61458e-11
-3.52734e-12
8.81433e-11
-3.61295e-12
9.01794e-11
-3.68188e-12
9.22454e-11
-3.73283e-12
9.43308e-11
-3.76559e-12
9.64247e-11
-3.78001e-12
9.8518e-11
-3.7752e-12
1.00599e-10
-3.75068e-12
1.02658e-10
-3.70585e-12
1.04682e-10
-3.6402e-12
1.06661e-10
-3.55375e-12
1.08584e-10
-3.44614e-12
1.1044e-10
-3.31748e-12
1.12215e-10
-3.1685e-12
1.13897e-10
-2.99853e-12
1.15477e-10
-2.80643e-12
1.16942e-10
-2.5925e-12
1.18281e-10
-2.35735e-12
1.19482e-10
-2.10176e-12
1.20535e-10
-1.82646e-12
1.21428e-10
-1.53101e-12
1.22152e-10
-1.21566e-12
1.22694e-10
-8.81494e-13
1.23046e-10
-5.28755e-13
1.23199e-10
-1.5835e-13
1.23143e-10
2.28071e-13
1.2287e-10
6.29558e-13
1.22372e-10
1.04509e-12
1.21641e-10
1.47363e-12
1.20672e-10
1.91465e-12
1.1946e-10
2.36649e-12
1.17999e-10
2.82618e-12
1.16287e-10
3.2918e-12
1.1432e-10
3.76214e-12
1.12097e-10
4.23499e-12
1.09619e-10
4.70832e-12
1.06887e-10
5.17991e-12
1.03903e-10
5.64605e-12
1.00672e-10
6.10363e-12
9.72004e-11
6.55071e-12
9.34951e-11
6.98404e-12
8.95665e-11
7.39945e-12
8.54267e-11
7.79324e-12
8.109e-11
8.16103e-12
7.65726e-11
8.49775e-12
7.18929e-11
8.79942e-12
6.70728e-11
9.06192e-12
6.21382e-11
9.27897e-12
5.7117e-11
9.44386e-12
5.20393e-11
9.55075e-12
4.69396e-11
9.59291e-12
4.18561e-11
9.56284e-12
3.68307e-11
9.45358e-12
3.191e-11
9.25759e-12
2.71448e-11
8.96579e-12
2.25878e-11
8.56954e-12
1.82954e-11
8.06187e-12
1.43286e-11
7.43597e-12
1.07495e-11
6.68589e-12
7.61856e-12
5.81046e-12
4.99225e-12
4.81626e-12
2.91578e-12
3.72133e-12
1.41309e-12
2.56366e-12
4.77868e-13
1.41774e-12
5.47125e-14
4.22046e-13
-1.58638e-13
3.77375e-13
-9.10642e-13
1.45315e-12
-1.45788e-12
3.08888e-12
-2.80802e-12
5.34703e-12
-4.6199e-12
8.25342e-12
-6.49879e-12
1.17824e-11
-8.26294e-12
1.58827e-11
-9.83212e-12
2.04864e-11
-1.11776e-11
2.55172e-11
-1.22984e-11
3.09016e-11
-1.31997e-11
3.65615e-11
-1.38985e-11
4.24269e-11
-1.44095e-11
4.84277e-11
-1.475e-11
5.45031e-11
-1.49343e-11
6.05976e-11
-1.4977e-11
6.66564e-11
-1.48944e-11
7.26352e-11
-1.46975e-11
7.84916e-11
-1.44e-11
8.41887e-11
-1.4013e-11
8.96951e-11
-1.35469e-11
9.49798e-11
-1.30146e-11
1.00021e-10
-1.24231e-11
1.04795e-10
-1.17819e-11
1.09285e-10
-1.11003e-11
1.13477e-10
-1.03839e-11
1.1736e-10
-9.64045e-12
1.20923e-10
-8.87786e-12
1.24164e-10
-8.1008e-12
1.27076e-10
-7.31565e-12
1.29658e-10
-6.52838e-12
1.31912e-10
-5.74231e-12
1.33841e-10
-4.96244e-12
1.35446e-10
-4.19345e-12
1.36736e-10
-3.43793e-12
1.37717e-10
-2.69982e-12
1.38397e-10
-1.98278e-12
1.38788e-10
-1.28888e-12
1.38899e-10
-6.21022e-13
1.38742e-10
1.79573e-14
1.38329e-10
6.27448e-13
1.37676e-10
1.20545e-12
1.36794e-10
1.74942e-12
1.357e-10
2.25892e-12
1.34409e-10
2.73318e-12
1.32935e-10
3.17018e-12
1.31295e-10
3.56923e-12
1.29504e-10
3.93098e-12
1.2758e-10
4.25521e-12
1.25538e-10
4.54052e-12
1.23395e-10
4.78726e-12
1.21167e-10
4.99539e-12
1.1887e-10
5.16492e-12
1.1652e-10
5.2968e-12
1.14134e-10
5.39184e-12
1.11726e-10
5.45009e-12
1.09312e-10
5.4719e-12
1.06907e-10
5.45868e-12
1.04526e-10
5.41161e-12
1.02181e-10
5.33156e-12
9.98873e-11
5.21971e-12
9.76584e-11
5.07748e-12
9.55061e-11
4.90611e-12
9.34416e-11
4.7065e-12
9.14766e-11
4.48032e-12
8.96226e-11
4.22979e-12
8.78895e-11
3.95586e-12
8.62859e-11
3.65918e-12
8.48204e-11
3.34185e-12
8.35012e-11
3.00631e-12
8.23349e-11
2.65424e-12
8.13276e-11
2.28768e-12
8.04863e-11
1.90893e-12
7.98158e-11
1.51908e-12
7.93194e-11
1.11869e-12
7.90002e-11
7.09822e-13
7.88613e-11
2.95564e-13
7.89041e-11
-1.21874e-13
7.9129e-11
-5.41278e-13
7.95366e-11
-9.61069e-13
8.01268e-11
-1.37907e-12
8.08978e-11
-1.79361e-12
8.18468e-11
-2.20348e-12
8.29706e-11
-2.60676e-12
8.42653e-11
-3.00083e-12
8.57266e-11
-3.38343e-12
8.73491e-11
-3.75314e-12
8.91268e-11
-4.1086e-12
9.1053e-11
-4.4481e-12
9.31195e-11
-4.76992e-12
9.53179e-11
-5.07234e-12
9.76399e-11
-5.35381e-12
1.00076e-10
-5.61298e-12
1.02616e-10
-5.84806e-12
1.05248e-10
-6.05768e-12
1.0796e-10
-6.2407e-12
1.10742e-10
-6.39548e-12
1.13581e-10
-6.52077e-12
1.16464e-10
-6.61547e-12
1.19376e-10
-6.67853e-12
1.22305e-10
-6.70916e-12
1.25236e-10
-6.70617e-12
1.28155e-10
-6.6689e-12
1.31047e-10
-6.59712e-12
1.33895e-10
-6.48971e-12
1.36686e-10
-6.34565e-12
1.39404e-10
-6.16464e-12
1.42032e-10
-5.94655e-12
1.44556e-10
-5.69182e-12
1.46959e-10
-5.40072e-12
1.49226e-10
-5.07234e-12
1.5134e-10
-4.70647e-12
1.53286e-10
-4.30396e-12
1.55049e-10
-3.8651e-12
1.56613e-10
-3.39069e-12
1.57965e-10
-2.88171e-12
1.5909e-10
-2.33871e-12
1.59973e-10
-1.76308e-12
1.60601e-10
-1.15619e-12
1.60961e-10
-5.18725e-13
1.61041e-10
1.47615e-13
1.60832e-10
8.4033e-13
1.6032e-10
1.55747e-12
1.59497e-10
2.29714e-12
1.58356e-10
3.05702e-12
1.56887e-10
3.83485e-12
1.55086e-10
4.62746e-12
1.52947e-10
5.43072e-12
1.50468e-10
6.24145e-12
1.47648e-10
7.0565e-12
1.44485e-10
7.87147e-12
1.40981e-10
8.68229e-12
1.37141e-10
9.48488e-12
1.32972e-10
1.02736e-11
1.28481e-10
1.10425e-11
1.23678e-10
1.17864e-11
1.18577e-10
1.24994e-11
1.13195e-10
1.31745e-11
1.07549e-10
1.3805e-11
1.01664e-10
1.43832e-11
9.55645e-11
1.49002e-11
8.92779e-11
1.53476e-11
8.28379e-11
1.57174e-11
7.62825e-11
1.59993e-11
6.96512e-11
1.61821e-11
6.29889e-11
1.62547e-11
5.63463e-11
1.62057e-11
4.9777e-11
1.60229e-11
4.33389e-11
1.56939e-11
3.70968e-11
1.52068e-11
3.11184e-11
1.45487e-11
2.5473e-11
1.37075e-11
2.02338e-11
1.26745e-11
1.54755e-11
1.14446e-11
1.12693e-11
1.00176e-11
7.68015e-12
8.40507e-12
4.76288e-12
6.63802e-12
2.55156e-12
4.77512e-12
1.05093e-12
2.91748e-12
2.30512e-13
1.24257e-12
7.21621e-14
4.65123e-13
-1.37559e-12
1.88452e-12
-2.87965e-12
4.08706e-12
-5.01208e-12
7.05616e-12
-7.58698e-12
1.077e-11
-1.02137e-11
1.51879e-11
-1.2681e-11
2.02461e-11
-1.489e-11
2.5868e-11
-1.68013e-11
3.19732e-11
-1.84017e-11
3.84732e-11
-1.97e-11
4.52851e-11
-2.07096e-11
5.23262e-11
-2.14511e-11
5.95199e-11
-2.19436e-11
6.67954e-11
-2.22076e-11
7.40828e-11
-2.22655e-11
8.13236e-11
-2.21348e-11
8.84619e-11
-2.18358e-11
9.54476e-11
-2.13862e-11
1.02236e-10
-2.08017e-11
1.08788e-10
-2.01007e-11
1.15069e-10
-1.92967e-11
1.2105e-10
-1.84036e-11
1.26704e-10
-1.74364e-11
1.3201e-10
-1.64059e-11
1.3695e-10
-1.53235e-11
1.4151e-10
-1.42012e-11
1.4568e-10
-1.30475e-11
1.49451e-10
-1.18721e-11
1.5282e-10
-1.06846e-11
1.55784e-10
-9.49229e-12
1.58344e-10
-8.30222e-12
1.60503e-10
-7.12176e-12
1.62267e-10
-5.95678e-12
1.63642e-10
-4.81286e-12
1.64638e-10
-3.69561e-12
1.65264e-10
-2.60919e-12
1.65535e-10
-1.55821e-12
1.6546e-10
-5.47423e-13
1.65058e-10
4.2089e-13
1.64342e-10
1.34374e-12
1.6333e-10
2.21751e-12
1.62038e-10
3.03995e-12
1.60487e-10
3.81056e-12
1.58693e-10
4.52687e-12
1.56677e-10
5.18633e-12
1.54458e-10
5.78853e-12
1.52057e-10
6.33319e-12
1.49493e-10
6.81914e-12
1.46786e-10
7.24632e-12
1.43959e-10
7.61488e-12
1.4103e-10
7.9243e-12
1.3802e-10
8.17508e-12
1.34949e-10
8.36828e-12
1.31836e-10
8.50435e-12
1.28702e-10
8.58394e-12
1.25564e-10
8.60886e-12
1.22443e-10
8.58075e-12
1.19356e-10
8.49997e-12
1.1632e-10
8.36773e-12
1.13353e-10
8.18711e-12
1.10471e-10
7.9603e-12
1.07689e-10
7.68835e-12
1.05023e-10
7.37289e-12
1.02486e-10
7.01658e-12
1.00093e-10
6.62231e-12
9.78545e-11
6.19254e-12
9.57834e-11
5.72946e-12
9.38911e-11
5.23534e-12
9.21868e-11
4.71227e-12
9.06787e-11
4.1629e-12
8.93753e-11
3.59092e-12
8.8284e-11
2.99971e-12
8.74106e-11
2.39142e-12
8.67601e-11
1.76819e-12
8.63375e-11
1.13305e-12
8.61458e-11
4.89033e-13
8.61863e-11
-1.61331e-13
8.64597e-11
-8.15222e-13
8.6967e-11
-1.4694e-12
8.77077e-11
-2.12062e-12
8.8679e-11
-2.76602e-12
8.98782e-11
-3.40318e-12
9.1302e-11
-4.02961e-12
9.29455e-11
-4.64266e-12
9.48023e-11
-5.23938e-12
9.68651e-11
-5.81652e-12
9.9127e-11
-6.37109e-12
1.0158e-10
-6.90063e-12
1.04214e-10
-7.40322e-12
1.07018e-10
-7.87654e-12
1.09981e-10
-8.31746e-12
1.13092e-10
-8.72345e-12
1.16337e-10
-9.0927e-12
1.19703e-10
-9.42323e-12
1.23175e-10
-9.7129e-12
1.26739e-10
-9.95922e-12
1.30379e-10
-1.01602e-11
1.34078e-10
-1.03147e-11
1.3782e-10
-1.04208e-11
1.41587e-10
-1.04768e-11
1.45362e-10
-1.04813e-11
1.49125e-10
-1.04333e-11
1.5286e-10
-1.03318e-11
1.56547e-10
-1.01759e-11
1.60165e-10
-9.96438e-12
1.63697e-10
-9.69671e-12
1.67122e-10
-9.37264e-12
1.7042e-10
-8.99139e-12
1.73573e-10
-8.55315e-12
1.76561e-10
-8.05838e-12
1.79361e-10
-7.50695e-12
1.81958e-10
-6.8995e-12
1.84329e-10
-6.23683e-12
1.86458e-10
-5.51937e-12
1.88326e-10
-4.74862e-12
1.89914e-10
-3.92622e-12
1.91205e-10
-3.05358e-12
1.92183e-10
-2.1329e-12
1.92831e-10
-1.16655e-12
1.93135e-10
-1.56467e-13
1.93081e-10
8.94647e-13
1.92656e-10
1.98325e-12
1.91847e-10
3.1062e-12
1.90646e-10
4.25985e-12
1.89042e-10
5.43955e-12
1.87027e-10
6.64119e-12
1.84597e-10
7.86022e-12
1.81748e-10
9.09076e-12
1.78478e-10
1.03271e-11
1.74787e-10
1.15634e-11
1.70677e-10
1.27927e-11
1.66152e-10
1.40083e-11
1.61222e-10
1.52031e-11
1.55897e-10
1.63685e-11
1.50188e-10
1.74947e-11
1.44114e-10
1.8573e-11
1.37693e-10
1.95943e-11
1.3095e-10
2.05475e-11
1.23911e-10
2.14211e-11
1.16608e-10
2.22032e-11
1.09076e-10
2.28802e-11
1.01355e-10
2.34385e-11
9.34892e-11
2.38646e-11
8.55272e-11
2.41433e-11
7.75231e-11
2.42578e-11
6.95367e-11
2.41914e-11
6.16321e-11
2.39276e-11
5.38777e-11
2.34486e-11
4.63471e-11
2.27371e-11
3.91183e-11
2.17769e-11
3.22721e-11
2.05534e-11
2.58922e-11
1.90549e-11
2.00613e-11
1.72758e-11
1.48592e-11
1.522e-11
1.03596e-11
1.29048e-11
6.6269e-12
1.03707e-11
3.70879e-12
7.6934e-12
1.63161e-12
4.99399e-12
4.02575e-13
2.47167e-12
4.75077e-13
5.72181e-13
-1.94745e-12
2.30996e-12
-4.61825e-12
5.03029e-12
-7.72987e-12
8.64566e-12
-1.12018e-11
1.30995e-11
-1.4667e-11
1.83255e-11
-1.79072e-11
2.42454e-11
-2.08123e-11
3.07764e-11
-2.33309e-11
3.78247e-11
-2.54501e-11
4.52989e-11
-2.71727e-11
5.31048e-11
-2.85164e-11
6.11542e-11
-2.95016e-11
6.93636e-11
-3.01522e-11
7.76505e-11
-3.0496e-11
8.59417e-11
-3.05575e-11
9.41688e-11
-3.03631e-11
1.0227e-10
-2.99373e-11
1.10188e-10
-2.93035e-11
1.17872e-10
-2.84861e-11
1.25278e-10
-2.75061e-11
1.32365e-10
-2.63829e-11
1.39098e-10
-2.51379e-11
1.45449e-10
-2.37875e-11
1.51393e-10
-2.23488e-11
1.56908e-10
-2.08391e-11
1.61979e-10
-1.92719e-11
1.66593e-10
-1.76612e-11
1.70741e-10
-1.60208e-11
1.74418e-10
-1.43621e-11
1.77623e-10
-1.26963e-11
1.80354e-10
-1.10342e-11
1.82616e-10
-9.38451e-12
1.84416e-10
-7.75628e-12
1.85761e-10
-6.15829e-12
1.86662e-10
-4.59682e-12
1.87132e-10
-3.07879e-12
1.87185e-10
-1.6111e-12
1.86836e-10
-1.98645e-13
1.86103e-10
1.15425e-12
1.85004e-10
2.44251e-12
1.83559e-10
3.66183e-12
1.8179e-10
4.80992e-12
1.79717e-10
5.88387e-12
1.77362e-10
6.88054e-12
1.7475e-10
7.79848e-12
1.71903e-10
8.63627e-12
1.68844e-10
9.39217e-12
1.65598e-10
1.00651e-11
1.6219e-10
1.06554e-11
1.58643e-10
1.11624e-11
1.5498e-10
1.15861e-11
1.51228e-10
1.1928e-11
1.4741e-10
1.21881e-11
1.43548e-10
1.23668e-11
1.39665e-10
1.24661e-11
1.35786e-10
1.24884e-11
1.31931e-10
1.24354e-11
1.28122e-10
1.23081e-11
1.24381e-10
1.21086e-11
1.20728e-10
1.18406e-11
1.17181e-10
1.15066e-11
1.1376e-10
1.11089e-11
1.10483e-10
1.06505e-11
1.07367e-10
1.01344e-11
1.04427e-10
9.56347e-12
1.01677e-10
8.94156e-12
9.91329e-11
8.27291e-12
9.6807e-11
7.56081e-12
9.47105e-11
6.80818e-12
9.28548e-11
6.01891e-12
9.12497e-11
5.19742e-12
8.9903e-11
4.34736e-12
8.88214e-11
3.47221e-12
8.80118e-11
2.5764e-12
8.74797e-11
1.6646e-12
8.72283e-11
7.40535e-13
8.72596e-11
-1.92605e-13
8.75754e-11
-1.13074e-12
8.81763e-11
-2.06934e-12
8.9061e-11
-3.0044e-12
9.02261e-11
-3.93178e-12
9.16688e-11
-4.84718e-12
9.33853e-11
-5.74656e-12
9.53697e-11
-6.62642e-12
9.76145e-11
-7.4833e-12
1.00111e-10
-8.31292e-12
1.02851e-10
-9.11082e-12
1.05824e-10
-9.87337e-12
1.09018e-10
-1.05975e-11
1.12422e-10
-1.12801e-11
1.16022e-10
-1.19171e-11
1.19803e-10
-1.25046e-11
1.23751e-10
-1.304e-11
1.27847e-10
-1.35205e-11
1.32078e-10
-1.39429e-11
1.36423e-10
-1.43042e-11
1.40864e-10
-1.46016e-11
1.45383e-10
-1.48329e-11
1.49958e-10
-1.4996e-11
1.5457e-10
-1.50883e-11
1.59197e-10
-1.51082e-11
1.63816e-10
-1.5054e-11
1.68407e-10
-1.49235e-11
1.72946e-10
-1.47155e-11
1.77411e-10
-1.44292e-11
1.81778e-10
-1.40637e-11
1.86024e-10
-1.36189e-11
1.90125e-10
-1.30936e-11
1.94059e-10
-1.24871e-11
1.97801e-10
-1.18003e-11
2.01328e-10
-1.10339e-11
2.04617e-10
-1.01883e-11
2.07646e-10
-9.26466e-12
2.10392e-10
-8.26439e-12
2.12833e-10
-7.18882e-12
2.14947e-10
-6.04024e-12
2.16713e-10
-4.82096e-12
2.18114e-10
-3.53328e-12
2.1913e-10
-2.18096e-12
2.19742e-10
-7.68046e-13
2.19934e-10
7.02419e-13
2.19691e-10
2.22634e-12
2.19e-10
3.79828e-12
2.17847e-10
5.4131e-12
2.16223e-10
7.06479e-12
2.14117e-10
8.74651e-12
2.11525e-10
1.04521e-11
2.08441e-10
1.21746e-11
2.04863e-10
1.39051e-11
2.00792e-10
1.5635e-11
1.96229e-10
1.73552e-11
1.91182e-10
1.90559e-11
1.8566e-10
2.07259e-11
1.79673e-10
2.23546e-11
1.73237e-10
2.39295e-11
1.66373e-10
2.54369e-11
1.59104e-10
2.68635e-11
1.51455e-10
2.81953e-11
1.4346e-10
2.9416e-11
1.35154e-10
3.05086e-11
1.26578e-10
3.1456e-11
1.17778e-10
3.22393e-11
1.08804e-10
3.28387e-11
9.97121e-11
3.32341e-11
9.05635e-11
3.34048e-11
8.14263e-11
3.33284e-11
7.23718e-11
3.2982e-11
6.34767e-11
3.23436e-11
5.48233e-11
3.13912e-11
4.64971e-11
3.01039e-11
3.85862e-11
2.84637e-11
3.11823e-11
2.64582e-11
2.43774e-11
2.40818e-11
1.82583e-11
2.13396e-11
1.2908e-11
1.82545e-11
8.4038e-12
1.4875e-11
4.81063e-12
1.12871e-11
2.18104e-12
7.62345e-12
5.62715e-13
4.09024e-12
1.03805e-12
6.83741e-13
-2.63195e-12
2.71732e-12
-6.65051e-12
5.89659e-12
-1.09114e-11
1.00933e-11
-1.53986e-11
1.52125e-11
-1.97854e-11
2.11619e-11
-2.38583e-11
2.78504e-11
-2.75012e-11
3.51804e-11
-3.06616e-11
4.30533e-11
-3.3322e-11
5.13675e-11
-3.54873e-11
6.00247e-11
-3.7174e-11
6.89305e-11
-3.84062e-11
7.79918e-11
-3.92143e-11
8.71233e-11
-3.96279e-11
9.62448e-11
-3.96796e-11
1.05281e-10
-3.94008e-11
1.14166e-10
-3.88217e-11
1.22835e-10
-3.79739e-11
1.31234e-10
-3.68862e-11
1.39314e-10
-3.5585e-11
1.47029e-10
-3.40987e-11
1.54341e-10
-3.24511e-11
1.61219e-10
-3.0665e-11
1.67634e-10
-2.87638e-11
1.73562e-10
-2.67678e-11
1.78987e-10
-2.46961e-11
1.83894e-10
-2.25679e-11
1.88272e-10
-2.03997e-11
1.92117e-10
-1.8207e-11
1.95426e-10
-1.60053e-11
1.98199e-10
-1.38079e-11
2.00442e-10
-1.1627e-11
2.0216e-10
-9.47488e-12
2.03363e-10
-7.36188e-12
2.04064e-10
-5.29769e-12
2.04277e-10
-3.2916e-12
2.04018e-10
-1.35201e-12
2.03305e-10
5.14849e-13
2.02158e-10
2.30166e-12
2.00597e-10
4.00199e-12
1.98647e-10
5.61202e-12
1.96331e-10
7.12726e-12
1.93672e-10
8.54244e-12
1.90697e-10
9.85492e-12
1.87433e-10
1.10628e-11
1.83906e-10
1.21633e-11
1.80143e-10
1.31547e-11
1.76172e-10
1.40362e-11
1.72021e-10
1.48066e-11
1.67718e-10
1.54657e-11
1.63289e-10
1.60143e-11
1.58764e-10
1.64533e-11
1.5417e-10
1.67829e-11
1.49533e-10
1.70043e-11
1.44879e-10
1.712e-11
1.40237e-10
1.71321e-11
1.35629e-10
1.70426e-11
1.31082e-10
1.68544e-11
1.26621e-10
1.65707e-11
1.22268e-10
1.61947e-11
1.18044e-10
1.57296e-11
1.13972e-10
1.51794e-11
1.10074e-10
1.45487e-11
1.06367e-10
1.38409e-11
1.02871e-10
1.30601e-11
9.96023e-11
1.2211e-11
9.65777e-11
1.12985e-11
9.38111e-11
1.03269e-11
9.13165e-11
9.30167e-12
8.91068e-11
8.22851e-12
8.7193e-11
7.11204e-12
8.55842e-11
5.95654e-12
8.4289e-11
4.76742e-12
8.3315e-11
3.55083e-12
8.26677e-11
2.31224e-12
8.23506e-11
1.0567e-12
8.23672e-11
-2.1047e-13
8.27195e-11
-1.48353e-12
8.34076e-11
-2.75695e-12
8.44299e-11
-4.02585e-12
8.57834e-11
-5.28491e-12
8.74645e-11
-6.5282e-12
8.94681e-11
-7.75019e-12
9.17872e-11
-8.94582e-12
9.44142e-11
-1.01101e-11
9.73396e-11
-1.12376e-11
1.00552e-10
-1.23231e-11
1.04041e-10
-1.33618e-11
1.07792e-10
-1.4349e-11
1.11792e-10
-1.52798e-11
1.16025e-10
-1.61495e-11
1.20475e-10
-1.69537e-11
1.25123e-10
-1.76881e-11
1.29951e-10
-1.83488e-11
1.3494e-10
-1.89315e-11
1.40069e-10
-1.94325e-11
1.45315e-10
-1.98484e-11
1.50658e-10
-2.01757e-11
1.56073e-10
-2.04113e-11
1.61538e-10
-2.05526e-11
1.67027e-10
-2.05971e-11
1.72515e-10
-2.05425e-11
1.77977e-10
-2.03863e-11
1.83386e-10
-2.01259e-11
1.88717e-10
-1.97607e-11
1.93942e-10
-1.92897e-11
1.99035e-10
-1.87121e-11
2.03969e-10
-1.80273e-11
2.08717e-10
-1.72347e-11
2.13251e-10
-1.63343e-11
2.17544e-10
-1.53275e-11
2.21571e-10
-1.42151e-11
2.25305e-10
-1.2998e-11
2.2872e-10
-1.16787e-11
2.31791e-10
-1.02594e-11
2.34493e-10
-8.74244e-12
2.36803e-10
-7.13108e-12
2.38699e-10
-5.42897e-12
2.40157e-10
-3.64004e-12
2.4116e-10
-1.7699e-12
2.41688e-10
1.7598e-13
2.41721e-10
2.19293e-12
2.41246e-10
4.27422e-12
2.40247e-10
6.41193e-12
2.38713e-10
8.59868e-12
2.36633e-10
1.08261e-11
2.34002e-10
1.30846e-11
2.30812e-10
1.53646e-11
2.2706e-10
1.76559e-11
2.22749e-10
1.99464e-11
2.17881e-10
2.22236e-11
2.12462e-10
2.44746e-11
2.06504e-10
2.66853e-11
2.00018e-10
2.88399e-11
1.93022e-10
3.09234e-11
1.8554e-10
3.2919e-11
1.77597e-10
3.48077e-11
1.69222e-10
3.65701e-11
1.60451e-10
3.81862e-11
1.51326e-10
3.96343e-11
1.41889e-10
4.08914e-11
1.32194e-10
4.19339e-11
1.22296e-10
4.2737e-11
1.12256e-10
4.32742e-11
1.02141e-10
4.35186e-11
9.20252e-11
4.34433e-11
8.19873e-11
4.30204e-11
7.21098e-11
4.22215e-11
6.24811e-11
4.10198e-11
5.31941e-11
3.93912e-11
4.43435e-11
3.73149e-11
3.60271e-11
3.47751e-11
2.83433e-11
3.17658e-11
2.13886e-11
2.82945e-11
1.52561e-11
2.43864e-11
1.00374e-11
2.0094e-11
5.81758e-12
1.55075e-11
2.67783e-12
1.07632e-11
7.05037e-13
6.06317e-12
1.74317e-12
7.90132e-13
-3.42185e-12
3.08597e-12
-8.94624e-12
6.6718e-12
-1.44973e-11
1.1381e-11
-2.01088e-11
1.70856e-11
-2.54924e-11
2.36747e-11
-3.0446e-11
3.10363e-11
-3.48626e-11
3.90624e-11
-3.86876e-11
4.76448e-11
-4.19046e-11
5.66762e-11
-4.45196e-11
6.6053e-11
-4.65502e-11
7.56729e-11
-4.80265e-11
8.54394e-11
-4.89814e-11
9.5262e-11
-4.94511e-11
1.05055e-10
-4.94734e-11
1.1474e-10
-4.90854e-11
1.24243e-10
-4.83255e-11
1.33498e-10
-4.72305e-11
1.42447e-10
-4.58344e-11
1.51035e-10
-4.41731e-11
1.59214e-10
-4.22786e-11
1.66944e-10
-4.01805e-11
1.74189e-10
-3.791e-11
1.80918e-10
-3.54938e-11
1.87109e-10
-3.29574e-11
1.92739e-10
-3.03264e-11
1.97794e-10
-2.76235e-11
2.02265e-10
-2.48699e-11
2.06143e-10
-2.20859e-11
2.09427e-10
-1.929e-11
2.12119e-10
-1.64995e-11
2.14222e-10
-1.37308e-11
2.15745e-10
-1.09985e-11
2.16699e-10
-8.31569e-12
2.17097e-10
-5.69573e-12
2.16955e-10
-3.15025e-12
2.16292e-10
-6.88417e-13
2.15127e-10
1.67991e-12
2.13483e-10
3.94522e-12
2.11384e-10
6.10089e-12
2.08855e-10
8.14115e-12
2.05923e-10
1.00593e-11
2.02615e-10
1.185e-11
1.98961e-10
1.35097e-11
1.94989e-10
1.50348e-11
1.9073e-10
1.64221e-11
1.86215e-10
1.767e-11
1.81474e-10
1.8777e-11
1.76539e-10
1.97415e-11
1.71441e-10
2.05639e-11
1.66212e-10
2.12446e-11
1.60882e-10
2.17836e-11
1.55482e-10
2.21826e-11
1.50042e-10
2.24437e-11
1.44593e-10
2.25694e-11
1.39165e-10
2.25615e-11
1.33784e-10
2.24228e-11
1.2848e-10
2.21578e-11
1.23281e-10
2.17706e-11
1.18211e-10
2.12648e-11
1.13296e-10
2.06444e-11
1.08562e-10
1.99145e-11
1.0403e-10
1.90805e-11
9.97217e-11
1.81477e-11
9.56594e-11
1.71219e-11
9.18624e-11
1.60086e-11
8.83483e-11
1.48132e-11
8.51334e-11
1.35418e-11
8.22337e-11
1.22016e-11
7.96632e-11
1.07993e-11
7.74338e-11
9.34098e-12
7.55566e-11
7.83287e-12
7.40417e-11
6.28224e-12
7.2897e-11
4.69621e-12
7.21286e-11
3.0813e-12
7.17408e-11
1.44429e-12
7.17378e-11
-2.07523e-13
7.21215e-11
-1.86698e-12
7.28912e-11
-3.52708e-12
7.40458e-11
-5.18087e-12
7.55827e-11
-6.82154e-12
7.74974e-11
-8.44219e-12
7.97837e-11
-1.00361e-11
8.24335e-11
-1.15962e-11
8.54387e-11
-1.31153e-11
8.87888e-11
-1.4587e-11
9.24714e-11
-1.6005e-11
9.64727e-11
-1.73632e-11
1.00778e-10
-1.86552e-11