/*--------------------------------*- C++ -*----------------------------------*\
  =========                 |
  \\      /  F ield         | OpenFOAM: The Open Source CFD Toolbox
   \\    /   O peration     | Website:  https://openfoam.org
    \\  /    A nd           | Version:  7
     \\/     M anipulation  |
\*---------------------------------------------------------------------------*/
FoamFile
{
    version     2.0;
    format      ascii;
    class       surfaceScalarField;
    location    "0.325";
    object      phi;
}
// * * * * * * * * * * * * * * * * * * * * * * * * * * * * * * * * * * * * * //

dimensions      [0 3 -1 0 0 0 0];

internalField   nonuniform List<scalar> 
25360
(
5.11402e-11
-5.31092e-11
1.93208e-10
-1.42064e-10
3.60618e-10
-1.67403e-10
5.05926e-10
-1.45298e-10
6.01009e-10
-9.50827e-11
6.29958e-10
-2.89529e-11
5.84617e-10
4.53482e-11
4.61831e-10
1.22789e-10
2.61698e-10
2.00127e-10
-1.35962e-11
2.75295e-10
-3.60538e-10
3.46939e-10
-7.74794e-10
4.14251e-10
-1.25154e-09
4.76748e-10
-1.78572e-09
5.34181e-10
-2.37222e-09
5.86503e-10
-3.00601e-09
6.3379e-10
-3.68221e-09
6.76193e-10
-4.39615e-09
7.13937e-10
-5.14345e-09
7.473e-10
-5.92003e-09
7.76583e-10
-6.72212e-09
8.02095e-10
-7.54628e-09
8.24164e-10
-8.3894e-09
8.43121e-10
-9.24868e-09
8.59286e-10
-1.01217e-08
8.72969e-10
-1.10061e-08
8.84475e-10
-1.19002e-08
8.94089e-10
-1.28023e-08
9.02077e-10
-1.3711e-08
9.08684e-10
-1.46251e-08
9.14142e-10
-1.55438e-08
9.18669e-10
-1.64663e-08
9.22461e-10
-1.7392e-08
9.25693e-10
-1.83205e-08
9.28525e-10
-1.92516e-08
9.311e-10
-2.01851e-08
9.33546e-10
-2.11211e-08
9.35976e-10
-2.20596e-08
9.38492e-10
-2.30008e-08
9.41182e-10
-2.39449e-08
9.44122e-10
-2.48923e-08
9.47379e-10
-2.58433e-08
9.51008e-10
-2.67983e-08
9.55061e-10
-2.77579e-08
9.59578e-10
-2.87225e-08
9.64594e-10
-2.96926e-08
9.70135e-10
-3.06689e-08
9.76223e-10
-3.16517e-08
9.82874e-10
-3.26418e-08
9.90102e-10
-3.36398e-08
9.97915e-10
-3.46461e-08
1.00632e-09
-3.56614e-08
1.0153e-09
-3.66863e-08
1.02488e-09
-3.77213e-08
1.03502e-09
-3.8767e-08
1.04574e-09
-3.9824e-08
1.05701e-09
-4.08928e-08
1.0688e-09
-4.1974e-08
1.08111e-09
-4.30679e-08
1.09391e-09
-4.4175e-08
1.10716e-09
-4.52959e-08
1.12084e-09
-4.64308e-08
1.13489e-09
-4.75801e-08
1.14929e-09
-4.8744e-08
1.16398e-09
-4.9923e-08
1.17891e-09
-5.1117e-08
1.19403e-09
-5.23262e-08
1.20926e-09
-5.35508e-08
1.22454e-09
-5.47906e-08
1.23979e-09
-5.60455e-08
1.25492e-09
-5.73153e-08
1.26985e-09
-5.85998e-08
1.28447e-09
-5.98985e-08
1.29868e-09
-6.12108e-08
1.31237e-09
-6.25362e-08
1.32541e-09
-6.38739e-08
1.33767e-09
-6.52229e-08
1.34901e-09
-6.65822e-08
1.35929e-09
-6.79506e-08
1.36834e-09
-6.93265e-08
1.37599e-09
-7.07086e-08
1.38208e-09
-7.2095e-08
1.38641e-09
-7.34838e-08
1.38879e-09
-7.48728e-08
1.38901e-09
-7.62597e-08
1.38686e-09
-7.76418e-08
1.38212e-09
-7.90164e-08
1.37456e-09
-8.03803e-08
1.36395e-09
-8.17304e-08
1.35003e-09
-8.30629e-08
1.33256e-09
-8.43742e-08
1.3113e-09
-8.56602e-08
1.28597e-09
-8.69165e-08
1.25633e-09
-8.81386e-08
1.22211e-09
-8.93217e-08
1.18307e-09
-9.04606e-08
1.13894e-09
-9.15501e-08
1.08949e-09
-9.25846e-08
1.03447e-09
-9.35583e-08
9.7367e-10
-9.44651e-08
9.06874e-10
-9.5299e-08
8.33895e-10
-9.60536e-08
7.54568e-10
-9.67223e-08
6.68751e-10
-9.72987e-08
5.76337e-10
-9.77759e-08
4.7725e-10
-9.81474e-08
3.71457e-10
-9.84064e-08
2.58966e-10
-9.85462e-08
1.39836e-10
-9.85604e-08
1.41826e-11
-9.84425e-08
-1.17832e-10
-9.81866e-08
-2.55966e-10
-9.77867e-08
-3.99923e-10
-9.72373e-08
-5.4933e-10
-9.65336e-08
-7.03742e-10
-9.5671e-08
-8.62634e-10
-9.46456e-08
-1.0254e-09
-9.34542e-08
-1.19136e-09
-9.20945e-08
-1.35973e-09
-9.05648e-08
-1.52968e-09
-8.88645e-08
-1.70027e-09
-8.6994e-08
-1.87049e-09
-8.49548e-08
-2.03926e-09
-8.27493e-08
-2.20542e-09
-8.03816e-08
-2.36777e-09
-7.78565e-08
-2.52503e-09
-7.51806e-08
-2.67591e-09
-7.23616e-08
-2.81905e-09
-6.94085e-08
-2.95311e-09
-6.63318e-08
-3.07671e-09
-6.31432e-08
-3.18852e-09
-5.9856e-08
-3.2872e-09
-5.64846e-08
-3.37148e-09
-5.30444e-08
-3.44014e-09
-4.95524e-08
-3.49203e-09
-4.60263e-08
-3.52613e-09
-4.24848e-08
-3.54149e-09
-3.89475e-08
-3.53731e-09
-3.54345e-08
-3.51294e-09
-3.19667e-08
-3.46786e-09
-2.8565e-08
-3.40171e-09
-2.52506e-08
-3.31433e-09
-2.20449e-08
-3.2057e-09
-1.89689e-08
-3.076e-09
-1.60434e-08
-2.92558e-09
-1.32884e-08
-2.75496e-09
-1.07235e-08
-2.56487e-09
-8.36734e-09
-2.3562e-09
-6.23728e-09
-2.13006e-09
-4.34951e-09
-1.88778e-09
-2.71852e-09
-1.63099e-09
-1.35679e-09
-1.36173e-09
-2.74164e-10
-1.08262e-09
5.23106e-10
-7.9727e-10
1.03392e-09
-5.10814e-10
1.26503e-09
-2.31111e-10
1.2358e-09
2.92226e-11
9.86384e-10
2.49419e-10
5.92091e-10
3.9429e-10
1.90765e-10
4.01327e-10
1.90765e-10
1.41315e-10
-1.94431e-10
4.07366e-10
-4.08119e-10
6.88113e-10
-4.48167e-10
9.00834e-10
-3.58015e-10
9.86759e-10
-1.8101e-10
9.07618e-10
5.01836e-11
6.40806e-10
3.12157e-10
1.75175e-10
5.88409e-10
-4.92194e-10
8.67511e-10
-1.35847e-09
1.14158e-09
-2.41681e-09
1.40527e-09
-3.65763e-09
1.65507e-09
-5.06963e-09
1.88875e-09
-6.6405e-09
2.10504e-09
-8.35739e-09
2.3034e-09
-1.02074e-08
2.4838e-09
-1.21778e-08
2.64658e-09
-1.42562e-08
2.79239e-09
-1.6431e-08
2.92208e-09
-1.8691e-08
3.03663e-09
-2.10261e-08
3.13712e-09
-2.34266e-08
3.22468e-09
-2.58839e-08
3.30046e-09
-2.83902e-08
3.36561e-09
-3.09385e-08
3.42124e-09
-3.35225e-08
3.46848e-09
-3.61368e-08
3.50835e-09
-3.87765e-08
3.54184e-09
-4.14378e-08
3.5699e-09
-4.4117e-08
3.59338e-09
-4.68114e-08
3.61309e-09
-4.95187e-08
3.62977e-09
-5.22371e-08
3.6441e-09
-5.49653e-08
3.65669e-09
-5.77023e-08
3.6681e-09
-6.04475e-08
3.67882e-09
-6.32009e-08
3.68929e-09
-6.59623e-08
3.69992e-09
-6.87322e-08
3.71104e-09
-7.1511e-08
3.72297e-09
-7.42996e-08
3.73595e-09
-7.70988e-08
3.75023e-09
-7.99097e-08
3.766e-09
-8.27336e-08
3.78343e-09
-8.55716e-08
3.80265e-09
-8.84253e-08
3.82377e-09
-9.1296e-08
3.84689e-09
-9.41852e-08
3.87208e-09
-9.70945e-08
3.89939e-09
-1.00025e-07
3.92884e-09
-1.0298e-07
3.96047e-09
-1.05958e-07
3.99426e-09
-1.08964e-07
4.0302e-09
-1.11997e-07
4.06826e-09
-1.1506e-07
4.10841e-09
-1.18153e-07
4.15057e-09
-1.21279e-07
4.19468e-09
-1.24439e-07
4.24065e-09
-1.27633e-07
4.28837e-09
-1.30864e-07
4.33772e-09
-1.34131e-07
4.38857e-09
-1.37437e-07
4.44077e-09
-1.40782e-07
4.49413e-09
-1.44167e-07
4.54846e-09
-1.47591e-07
4.60355e-09
-1.51056e-07
4.65917e-09
-1.54562e-07
4.71506e-09
-1.58109e-07
4.77094e-09
-1.61695e-07
4.8265e-09
-1.65322e-07
4.88141e-09
-1.68987e-07
4.93531e-09
-1.72691e-07
4.98781e-09
-1.7643e-07
5.03849e-09
-1.80205e-07
5.0869e-09
-1.84012e-07
5.13257e-09
-1.87849e-07
5.17498e-09
-1.91714e-07
5.2136e-09
-1.95603e-07
5.24783e-09
-1.99511e-07
5.27708e-09
-2.03436e-07
5.30069e-09
-2.07372e-07
5.31799e-09
-2.11314e-07
5.32826e-09
-2.15256e-07
5.33076e-09
-2.19191e-07
5.32471e-09
-2.23114e-07
5.30929e-09
-2.27015e-07
5.28368e-09
-2.30888e-07
5.247e-09
-2.34722e-07
5.19837e-09
-2.38509e-07
5.13687e-09
-2.42238e-07
5.06158e-09
-2.45898e-07
4.97156e-09
-2.49478e-07
4.86585e-09
-2.52965e-07
4.74352e-09
-2.56347e-07
4.60361e-09
-2.59609e-07
4.4452e-09
-2.62738e-07
4.26737e-09
-2.65717e-07
4.06924e-09
-2.68533e-07
3.84996e-09
-2.71168e-07
3.60876e-09
-2.73606e-07
3.3449e-09
-2.7583e-07
3.05774e-09
-2.77822e-07
2.74671e-09
-2.79565e-07
2.41136e-09
-2.8104e-07
2.05135e-09
-2.82229e-07
1.66648e-09
-2.83114e-07
1.2567e-09
-2.83677e-07
8.22135e-10
-2.839e-07
3.63087e-10
-2.83766e-07
-1.19937e-10
-2.83258e-07
-6.26217e-10
-2.82359e-07
-1.15479e-09
-2.81055e-07
-1.70446e-09
-2.7933e-07
-2.27375e-09
-2.77173e-07
-2.86091e-09
-2.74572e-07
-3.46393e-09
-2.71517e-07
-4.08048e-09
-2.68e-07
-4.70795e-09
-2.64016e-07
-5.34343e-09
-2.59562e-07
-5.98371e-09
-2.54637e-07
-6.6253e-09
-2.49243e-07
-7.26442e-09
-2.43386e-07
-7.89704e-09
-2.37072e-07
-8.51889e-09
-2.30314e-07
-9.12549e-09
-2.23127e-07
-9.71215e-09
-2.15529e-07
-1.02741e-08
-2.07542e-07
-1.08063e-08
-1.99191e-07
-1.13039e-08
-1.90506e-07
-1.17619e-08
-1.81519e-07
-1.21753e-08
-1.72267e-07
-1.25394e-08
-1.62789e-07
-1.28494e-08
-1.53128e-07
-1.31009e-08
-1.4333e-07
-1.32899e-08
-1.33444e-07
-1.34124e-08
-1.2352e-07
-1.34653e-08
-1.13612e-07
-1.34455e-08
-1.03774e-07
-1.33506e-08
-9.40632e-08
-1.3179e-08
-8.45356e-08
-1.29293e-08
-7.5249e-08
-1.2601e-08
-6.62606e-08
-1.21941e-08
-5.76272e-08
-1.17094e-08
-4.94043e-08
-1.11485e-08
-4.16459e-08
-1.05134e-08
-3.44037e-08
-9.80707e-09
-2.77266e-08
-9.03333e-09
-2.16599e-08
-8.19678e-09
-1.62445e-08
-7.30313e-09
-1.15161e-08
-6.3594e-09
-7.50342e-09
-5.3744e-09
-4.22661e-09
-4.35943e-09
-1.69434e-09
-3.32955e-09
1.00314e-10
-2.30547e-09
1.18603e-09
-1.31682e-09
1.62227e-09
-4.07023e-10
1.51279e-09
3.58904e-10
1.02322e-09
8.83862e-10
3.99744e-10
1.0248e-09
5.90507e-10
1.68174e-10
-3.62599e-10
4.49997e-10
-6.89938e-10
7.06426e-10
-7.04599e-10
8.37313e-10
-4.88912e-10
7.69177e-10
-1.12868e-10
4.51429e-10
3.67946e-10
-1.47803e-10
9.11374e-10
-1.04568e-09
1.48629e-09
-2.24822e-09
2.07004e-09
-3.75306e-09
2.64641e-09
-5.55175e-09
3.20397e-09
-7.63153e-09
3.73485e-09
-9.97667e-09
4.23388e-09
-1.25696e-08
4.69795e-09
-1.53916e-08
5.12544e-09
-1.84237e-08
5.51589e-09
-2.16469e-08
5.86973e-09
-2.50425e-08
6.18805e-09
-2.85928e-08
6.47239e-09
-3.22808e-08
6.72464e-09
-3.60907e-08
6.94694e-09
-4.00075e-08
7.14155e-09
-4.40179e-08
7.31082e-09
-4.81094e-08
7.45712e-09
-5.2271e-08
7.58279e-09
-5.64926e-08
7.69011e-09
-6.07655e-08
7.78129e-09
-6.50821e-08
7.85841e-09
-6.94357e-08
7.92348e-09
-7.38207e-08
7.97833e-09
-7.82323e-08
8.02471e-09
-8.26667e-08
8.06419e-09
-8.71209e-08
8.09825e-09
-9.15924e-08
8.12822e-09
-9.60796e-08
8.15531e-09
-1.00581e-07
8.18059e-09
-1.05097e-07
8.20506e-09
-1.09627e-07
8.22957e-09
-1.14171e-07
8.25491e-09
-1.18729e-07
8.28173e-09
-1.23304e-07
8.31063e-09
-1.27896e-07
8.34212e-09
-1.32507e-07
8.37664e-09
-1.37138e-07
8.41457e-09
-1.41791e-07
8.45621e-09
-1.46469e-07
8.50182e-09
-1.51174e-07
8.5516e-09
-1.55908e-07
8.60573e-09
-1.60673e-07
8.66431e-09
-1.65471e-07
8.72743e-09
-1.70306e-07
8.79511e-09
-1.75179e-07
8.86736e-09
-1.80093e-07
8.94415e-09
-1.8505e-07
9.0254e-09
-1.90053e-07
9.11103e-09
-1.95103e-07
9.2009e-09
-2.00203e-07
9.29484e-09
-2.05355e-07
9.39264e-09
-2.10561e-07
9.49407e-09
-2.15822e-07
9.59887e-09
-2.2114e-07
9.7067e-09
-2.26517e-07
9.81724e-09
-2.31953e-07
9.93008e-09
-2.37449e-07
1.00448e-08
-2.43006e-07
1.01609e-08
-2.48625e-07
1.02778e-08
-2.54305e-07
1.03951e-08
-2.60046e-07
1.0512e-08
-2.65847e-07
1.06278e-08
-2.71708e-07
1.07419e-08
-2.77626e-07
1.08534e-08
-2.836e-07
1.09615e-08
-2.89626e-07
1.10652e-08
-2.95703e-07
1.11636e-08
-3.01826e-07
1.12555e-08
-3.07991e-07
1.134e-08
-3.14193e-07
1.14156e-08
-3.20427e-07
1.14813e-08
-3.26685e-07
1.15357e-08
-3.32962e-07
1.15773e-08
-3.39248e-07
1.16047e-08
-3.45536e-07
1.16163e-08
-3.51816e-07
1.16105e-08
-3.58077e-07
1.15856e-08
-3.64308e-07
1.154e-08
-3.70496e-07
1.14717e-08
-3.76628e-07
1.13789e-08
-3.82689e-07
1.12597e-08
-3.88664e-07
1.11122e-08
-3.94537e-07
1.09345e-08
-4.0029e-07
1.07244e-08
-4.05904e-07
1.048e-08
-4.1136e-07
1.01993e-08
-4.16637e-07
9.88028e-09
-4.21712e-07
9.52106e-09
-4.26565e-07
9.11972e-09
-4.3117e-07
8.67443e-09
-4.35504e-07
8.18346e-09
-4.3954e-07
7.64521e-09
-4.43253e-07
7.05822e-09
-4.46617e-07
6.42119e-09
-4.49603e-07
5.73304e-09
-4.52185e-07
4.99289e-09
-4.54333e-07
4.20015e-09
-4.56021e-07
3.35452e-09
-4.57221e-07
2.45602e-09
-4.57904e-07
1.50505e-09
-4.58043e-07
5.02378e-10
-4.57612e-07
-5.50768e-10
-4.56586e-07
-1.65271e-09
-4.54939e-07
-2.80126e-09
-4.5265e-07
-3.99372e-09
-4.49697e-07
-5.22684e-09
-4.46061e-07
-6.49678e-09
-4.41726e-07
-7.79911e-09
-4.36677e-07
-9.1288e-09
-4.30905e-07
-1.04802e-08
-4.24402e-07
-1.1847e-08
-4.17163e-07
-1.32224e-08
-4.09189e-07
-1.45989e-08
-4.00485e-07
-1.59684e-08
-3.9106e-07
-1.73224e-08
-3.80927e-07
-1.86518e-08
-3.70106e-07
-1.9947e-08
-3.58619e-07
-2.11984e-08
-3.46498e-07
-2.23956e-08
-3.33776e-07
-2.35283e-08
-3.20494e-07
-2.4586e-08
-3.06697e-07
-2.55584e-08
-2.92438e-07
-2.6435e-08
-2.77771e-07
-2.72058e-08
-2.6276e-07
-2.78609e-08
-2.4747e-07
-2.83912e-08
-2.31972e-07
-2.87879e-08
-2.16341e-07
-2.90434e-08
-2.00655e-07
-2.91504e-08
-1.84998e-07
-2.9103e-08
-1.69452e-07
-2.88962e-08
-1.54105e-07
-2.85264e-08
-1.39043e-07
-2.79911e-08
-1.24355e-07
-2.72892e-08
-1.10128e-07
-2.64209e-08
-9.64492e-08
-2.53883e-08
-8.34032e-08
-2.41945e-08
-7.10719e-08
-2.28446e-08
-5.95337e-08
-2.13453e-08
-4.88619e-08
-1.97051e-08
-3.9124e-08
-1.79347e-08
-3.038e-08
-1.60471e-08
-2.26808e-08
-1.40586e-08
-1.60661e-08
-1.19891e-08
-1.05612e-08
-9.86431e-09
-6.1734e-09
-7.71737e-09
-2.88634e-09
-5.59253e-09
-6.52934e-10
-3.55023e-09
6.14632e-10
-1.67459e-09
1.05765e-09
-8.41139e-11
8.85522e-10
1.05599e-09
3.92425e-10
1.5179e-09
9.82933e-10
1.47751e-10
-5.10349e-10
3.62745e-10
-9.04922e-10
4.93825e-10
-8.35687e-10
4.32789e-10
-4.27865e-10
9.99643e-11
2.19956e-10
-5.60681e-10
1.02859e-09
-1.58552e-09
1.93622e-09
-2.99502e-09
2.89579e-09
-4.79696e-09
3.87198e-09
-6.98931e-09
4.83876e-09
-9.56255e-09
5.77721e-09
-1.25017e-08
6.67397e-09
-1.57878e-08
7.52e-09
-1.93994e-08
8.30953e-09
-2.33133e-08
9.03936e-09
-2.75057e-08
9.70826e-09
-3.19525e-08
1.03165e-08
-3.66301e-08
1.08656e-08
-4.15155e-08
1.13578e-08
-4.65869e-08
1.1796e-08
-5.18236e-08
1.21836e-08
-5.72062e-08
1.25242e-08
-6.27171e-08
1.28217e-08
-6.83398e-08
1.30798e-08
-7.40595e-08
1.33025e-08
-7.98631e-08
1.34936e-08
-8.57386e-08
1.36568e-08
-9.16757e-08
1.37955e-08
-9.76654e-08
1.39132e-08
-1.037e-07
1.40129e-08
-1.09773e-07
1.40976e-08
-1.15879e-07
1.417e-08
-1.22013e-07
1.42326e-08
-1.28173e-07
1.42878e-08
-1.34355e-07
1.43375e-08
-1.40558e-07
1.43837e-08
-1.46781e-07
1.44281e-08
-1.53023e-07
1.44721e-08
-1.59286e-07
1.45172e-08
-1.65568e-07
1.45644e-08
-1.71873e-07
1.46149e-08
-1.782e-07
1.46695e-08
-1.84552e-07
1.4729e-08
-1.90932e-07
1.47941e-08
-1.97341e-07
1.48652e-08
-2.03782e-07
1.4943e-08
-2.10258e-07
1.50277e-08
-2.16772e-07
1.51196e-08
-2.23327e-07
1.5219e-08
-2.29925e-07
1.53259e-08
-2.36571e-07
1.54405e-08
-2.43266e-07
1.55627e-08
-2.50014e-07
1.56925e-08
-2.56819e-07
1.58297e-08
-2.63682e-07
1.59743e-08
-2.70607e-07
1.61259e-08
-2.77596e-07
1.62842e-08
-2.84653e-07
1.6449e-08
-2.91778e-07
1.66197e-08
-2.98975e-07
1.67958e-08
-3.06245e-07
1.69769e-08
-3.1359e-07
1.71623e-08
-3.21012e-07
1.73513e-08
-3.2851e-07
1.75431e-08
-3.36086e-07
1.77368e-08
-3.4374e-07
1.79316e-08
-3.51471e-07
1.81264e-08
-3.59279e-07
1.83201e-08
-3.67163e-07
1.85115e-08
-3.7512e-07
1.86993e-08
-3.83149e-07
1.8882e-08
-3.91245e-07
1.90582e-08
-3.99406e-07
1.92263e-08
-4.07627e-07
1.93845e-08
-4.15903e-07
1.95309e-08
-4.24226e-07
1.96637e-08
-4.32591e-07
1.97807e-08
-4.4099e-07
1.98797e-08
-4.49412e-07
1.99585e-08
-4.5785e-07
2.00145e-08
-4.6629e-07
2.00453e-08
-4.74722e-07
2.00482e-08
-4.83132e-07
2.00205e-08
-4.91506e-07
1.99591e-08
-4.99827e-07
1.98612e-08
-5.08079e-07
1.97236e-08
-5.16243e-07
1.95433e-08
-5.243e-07
1.93169e-08
-5.32229e-07
1.90413e-08
-5.40008e-07
1.8713e-08
-5.47612e-07
1.83287e-08
-5.55018e-07
1.78851e-08
-5.62197e-07
1.73788e-08
-5.69123e-07
1.68065e-08
-5.75767e-07
1.6165e-08
-5.82099e-07
1.54511e-08
-5.88086e-07
1.46619e-08
-5.93697e-07
1.37946e-08
-5.98899e-07
1.28465e-08
-6.03656e-07
1.18154e-08
-6.07934e-07
1.06991e-08
-6.11697e-07
9.49602e-09
-6.14909e-07
8.20483e-09
-6.17533e-07
6.82471e-09
-6.19534e-07
5.35532e-09
-6.20875e-07
3.79691e-09
-6.2152e-07
2.15034e-09
-6.21435e-07
4.17146e-10
-6.20585e-07
-1.40042e-09
-6.18939e-07
-3.2993e-09
-6.16464e-07
-5.27561e-09
-6.13133e-07
-7.32459e-09
-6.0892e-07
-9.44055e-09
-6.038e-07
-1.16168e-08
-5.97753e-07
-1.38458e-08
-5.90763e-07
-1.61188e-08
-5.82817e-07
-1.84262e-08
-5.73907e-07
-2.07573e-08
-5.64029e-07
-2.31004e-08
-5.53185e-07
-2.54429e-08
-5.41382e-07
-2.77711e-08
-5.28634e-07
-3.00706e-08
-5.14959e-07
-3.23262e-08
-5.00384e-07
-3.45219e-08
-4.84942e-07
-3.66411e-08
-4.6867e-07
-3.86668e-08
-4.51617e-07
-4.05817e-08
-4.33835e-07
-4.23684e-08
-4.15384e-07
-4.40093e-08
-3.96332e-07
-4.54872e-08
-3.76752e-07
-4.67852e-08
-3.56726e-07
-4.78872e-08
-3.36339e-07
-4.87778e-08
-3.15685e-07
-4.94425e-08
-2.9486e-07
-4.98683e-08
-2.73967e-07
-5.00435e-08
-2.53111e-07
-4.99582e-08
-2.32403e-07
-4.96042e-08
-2.11955e-07
-4.89754e-08
-1.91878e-07
-4.80678e-08
-1.72287e-07
-4.68799e-08
-1.53296e-07
-4.54123e-08
-1.35015e-07
-4.36686e-08
-1.17555e-07
-4.16545e-08
-1.01021e-07
-3.93792e-08
-8.55117e-08
-3.68544e-08
-7.11215e-08
-3.40953e-08
-5.79353e-08
-3.11209e-08
-4.60281e-08
-2.79544e-08
-3.54624e-08
-2.46243e-08
-2.62856e-08
-2.11659e-08
-1.85266e-08
-1.76234e-08
-1.2191e-08
-1.4053e-08
-7.25587e-09
-1.05276e-08
-3.66275e-09
-7.14336e-09
-1.30853e-09
-4.02881e-09
-3.51187e-11
-1.35753e-09
3.83019e-10
6.37852e-10
2.52649e-10
1.64826e-09
1.23558e-09
9.85313e-11
-6.08885e-10
1.85794e-10
-9.92189e-10
1.14099e-10
-7.63985e-10
-2.24421e-10
-8.93433e-11
-9.09537e-10
9.05053e-10
-1.99785e-09
2.1169e-09
-3.52658e-09
3.46496e-09
-5.51685e-09
4.88606e-09
-7.97667e-09
6.3318e-09
-1.09035e-08
7.76563e-09
-1.42868e-08
9.16043e-09
-1.81094e-08
1.04966e-08
-2.235e-08
1.17606e-08
-2.6984e-08
1.29434e-08
-3.19845e-08
1.40399e-08
-3.73239e-08
1.50477e-08
-4.29741e-08
1.59668e-08
-4.89073e-08
1.67988e-08
-5.50962e-08
1.75467e-08
-6.15148e-08
1.82147e-08
-6.81384e-08
1.88072e-08
-7.49438e-08
1.93297e-08
-8.19095e-08
1.97874e-08
-8.90157e-08
2.0186e-08
-9.62443e-08
2.05312e-08
-1.03579e-07
2.08284e-08
-1.11006e-07
2.10832e-08
-1.18511e-07
2.13007e-08
-1.26084e-07
2.1486e-08
-1.33714e-07
2.16436e-08
-1.41395e-07
2.17779e-08
-1.49118e-07
2.18931e-08
-1.56878e-07
2.19929e-08
-1.64671e-07
2.20808e-08
-1.72493e-07
2.21599e-08
-1.80343e-07
2.22331e-08
-1.88217e-07
2.23029e-08
-1.96117e-07
2.23716e-08
-2.04041e-07
2.24414e-08
-2.11991e-07
2.25139e-08
-2.19967e-07
2.25909e-08
-2.27971e-07
2.26736e-08
-2.36005e-07
2.27634e-08
-2.44072e-07
2.28611e-08
-2.52175e-07
2.29677e-08
-2.60315e-07
2.30839e-08
-2.68498e-07
2.32102e-08
-2.76726e-07
2.33472e-08
-2.85002e-07
2.34951e-08
-2.9333e-07
2.36541e-08
-3.01714e-07
2.38243e-08
-3.10157e-07
2.40058e-08
-3.18663e-07
2.41985e-08
-3.27235e-07
2.44021e-08
-3.35877e-07
2.46164e-08
-3.44593e-07
2.48411e-08
-3.53384e-07
2.50755e-08
-3.62254e-07
2.53193e-08
-3.71206e-07
2.55716e-08
-3.80242e-07
2.58318e-08
-3.89364e-07
2.6099e-08
-3.98574e-07
2.63721e-08
-4.07873e-07
2.66502e-08
-4.17262e-07
2.69319e-08
-4.26741e-07
2.7216e-08
-4.3631e-07
2.7501e-08
-4.45969e-07
2.77854e-08
-4.55716e-07
2.80673e-08
-4.6555e-07
2.83449e-08
-4.75467e-07
2.86163e-08
-4.85464e-07
2.88792e-08
-4.95537e-07
2.91314e-08
-5.05681e-07
2.93702e-08
-5.1589e-07
2.95931e-08
-5.26156e-07
2.97973e-08
-5.36472e-07
2.99798e-08
-5.46829e-07
3.01373e-08
-5.57216e-07
3.02666e-08
-5.67622e-07
3.03641e-08
-5.78033e-07
3.04262e-08
-5.88437e-07
3.04489e-08
-5.98817e-07
3.04283e-08
-6.09157e-07
3.03602e-08
-6.19438e-07
3.02402e-08
-6.29641e-07
3.00639e-08
-6.39744e-07
2.98266e-08
-6.49724e-07
2.95237e-08
-6.59557e-07
2.91503e-08
-6.69218e-07
2.87015e-08
-6.78677e-07
2.81724e-08
-6.87906e-07
2.75581e-08
-6.96875e-07
2.68535e-08
-7.0555e-07
2.60538e-08
-7.13897e-07
2.51541e-08
-7.21882e-07
2.41497e-08
-7.29467e-07
2.30362e-08
-7.36614e-07
2.1809e-08
-7.43284e-07
2.04644e-08
-7.49436e-07
1.89985e-08
-7.55028e-07
1.7408e-08
-7.60019e-07
1.56901e-08
-7.64366e-07
1.38425e-08
-7.68025e-07
1.18636e-08
-7.70952e-07
9.75228e-09
-7.73105e-07
7.50841e-09
-7.74441e-07
5.13257e-09
-7.74917e-07
2.62633e-09
-7.74492e-07
-7.7344e-12
-7.73127e-07
-2.76604e-09
-7.70782e-07
-5.64371e-09
-7.67423e-07
-8.63471e-09
-7.63016e-07
-1.17317e-08
-7.5753e-07
-1.4926e-08
-7.5094e-07
-1.82075e-08
-7.43221e-07
-2.15645e-08
-7.34356e-07
-2.49842e-08
-7.2433e-07
-2.84519e-08
-7.13136e-07
-3.19517e-08
-7.0077e-07
-3.54661e-08
-6.87237e-07
-3.89762e-08
-6.72546e-07
-4.24619e-08
-6.56715e-07
-4.59017e-08
-6.39768e-07
-4.9273e-08
-6.21738e-07
-5.25522e-08
-6.02664e-07
-5.57148e-08
-5.82595e-07
-5.87357e-08
-5.61587e-07
-6.15895e-08
-5.39706e-07
-6.42502e-08
-5.17022e-07
-6.66924e-08
-4.93619e-07
-6.88905e-08
-4.69585e-07
-7.08198e-08
-4.45015e-07
-7.24565e-08
-4.20015e-07
-7.3778e-08
-3.94694e-07
-7.47631e-08
-3.6917e-07
-7.53927e-08
-3.43564e-07
-7.56497e-08
-3.18002e-07
-7.55195e-08
-2.92616e-07
-7.49902e-08
-2.67539e-07
-7.40529e-08
-2.42905e-07
-7.27019e-08
-2.18849e-07
-7.09351e-08
-1.95508e-07
-6.87538e-08
-1.73013e-07
-6.61635e-08
-1.51494e-07
-6.31735e-08
-1.31076e-07
-5.97976e-08
-1.11876e-07
-5.60541e-08
-9.40048e-08
-5.19665e-08
-7.75617e-08
-4.7564e-08
-6.26339e-08
-4.28822e-08
-4.92934e-08
-3.79648e-08
-3.75942e-08
-3.28651e-08
-2.75683e-08
-2.76492e-08
-1.9222e-08
-2.23993e-08
-1.25299e-08
-1.72197e-08
-7.42922e-09
-1.2244e-08
-3.8128e-09
-7.64523e-09
-1.52077e-09
-3.64956e-09
-3.32137e-10
-5.50783e-10
4.58833e-11
1.27024e-09
1.28147e-09
3.18287e-11
-6.40711e-10
-5.12779e-11
-9.09086e-10
-3.83453e-10
-4.31789e-10
-1.06536e-09
5.92548e-10
-2.17194e-09
2.01164e-09
-3.75662e-09
3.70158e-09
-5.8544e-09
5.56273e-09
-8.4848e-09
7.51646e-09
-1.16544e-08
9.50142e-09
-1.53593e-08
1.14705e-08
-1.95871e-08
1.33882e-08
-2.43187e-08
1.52283e-08
-2.95304e-08
1.69723e-08
-3.51949e-08
1.86079e-08
-4.12823e-08
2.01273e-08
-4.77617e-08
2.15271e-08
-5.46017e-08
2.28067e-08
-6.17707e-08
2.39678e-08
-6.92382e-08
2.50142e-08
-7.69746e-08
2.5951e-08
-8.49517e-08
2.67843e-08
-9.3143e-08
2.75209e-08
-1.01524e-07
2.8168e-08
-1.10071e-07
2.87332e-08
-1.18764e-07
2.92241e-08
-1.27583e-07
2.96481e-08
-1.36513e-07
3.00127e-08
-1.45537e-07
3.03249e-08
-1.54643e-07
3.05916e-08
-1.63818e-07
3.08192e-08
-1.73054e-07
3.10138e-08
-1.82342e-07
3.11809e-08
-1.91675e-07
3.13258e-08
-2.01047e-07
3.14533e-08
-2.10455e-07
3.15678e-08
-2.19896e-07
3.16733e-08
-2.29366e-07
3.17734e-08
-2.38866e-07
3.18713e-08
-2.48394e-07
3.197e-08
-2.57952e-07
3.20718e-08
-2.67541e-07
3.21792e-08
-2.77161e-07
3.22941e-08
-2.86816e-07
3.24182e-08
-2.96508e-07
3.25529e-08
-3.0624e-07
3.26995e-08
-3.16015e-07
3.28589e-08
-3.25837e-07
3.30321e-08
-3.35709e-07
3.32196e-08
-3.45636e-07
3.34219e-08
-3.55621e-07
3.36393e-08
-3.65669e-07
3.38719e-08
-3.75783e-07
3.41199e-08
-3.85967e-07
3.43829e-08
-3.96226e-07
3.46609e-08
-4.06563e-07
3.49532e-08
-4.16981e-07
3.52595e-08
-4.27485e-07
3.5579e-08
-4.38076e-07
3.59109e-08
-4.48759e-07
3.62542e-08
-4.59535e-07
3.66078e-08
-4.70406e-07
3.69706e-08
-4.81375e-07
3.7341e-08
-4.92443e-07
3.77175e-08
-5.03609e-07
3.80983e-08
-5.14875e-07
3.84817e-08
-5.26239e-07
3.88654e-08
-5.37701e-07
3.92473e-08
-5.49258e-07
3.96248e-08
-5.60909e-07
3.99953e-08
-5.72648e-07
4.03559e-08
-5.84473e-07
4.07036e-08
-5.96376e-07
4.1035e-08
-6.08353e-07
4.13467e-08
-6.20394e-07
4.16348e-08
-6.32493e-07
4.18955e-08
-6.44637e-07
4.21245e-08
-6.56817e-07
4.23173e-08
-6.6902e-07
4.24693e-08
-6.81231e-07
4.25755e-08
-6.93436e-07
4.26308e-08
-7.05617e-07
4.26298e-08
-7.17755e-07
4.25669e-08
-7.29832e-07
4.24363e-08
-7.41823e-07
4.2232e-08
-7.53707e-07
4.19478e-08
-7.65458e-07
4.15773e-08
-7.77048e-07
4.11141e-08
-7.88449e-07
4.05514e-08
-7.99631e-07
3.98827e-08
-8.10559e-07
3.91011e-08
-8.21201e-07
3.82e-08
-8.3152e-07
3.71725e-08
-8.41478e-07
3.6012e-08
-8.51036e-07
3.4712e-08
-8.60153e-07
3.32662e-08
-8.68785e-07
3.16684e-08
-8.76889e-07
2.9913e-08
-8.84419e-07
2.79946e-08
-8.91329e-07
2.59084e-08
-8.97571e-07
2.365e-08
-9.03097e-07
2.12159e-08
-9.07858e-07
1.86032e-08
-9.11804e-07
1.58099e-08
-9.14887e-07
1.28349e-08
-9.17056e-07
9.67833e-09
-9.18265e-07
6.34133e-09
-9.18465e-07
2.82639e-09
-9.1761e-07
-8.62628e-10
-9.15656e-07
-4.72038e-09
-9.1256e-07
-8.73991e-09
-9.08282e-07
-1.29126e-08
-9.02786e-07
-1.7228e-08
-8.96038e-07
-2.1674e-08
-8.88009e-07
-2.62364e-08
-8.78674e-07
-3.0899e-08
-8.68015e-07
-3.56439e-08
-8.56016e-07
-4.04509e-08
-8.42669e-07
-4.52979e-08
-8.27974e-07
-5.0161e-08
-8.11936e-07
-5.50143e-08
-7.94568e-07
-5.98301e-08
-7.75891e-07
-6.4579e-08
-7.55934e-07
-6.92302e-08
-7.34734e-07
-7.37513e-08
-7.1234e-07
-7.81091e-08
-6.88806e-07
-8.22695e-08
-6.64198e-07
-8.61976e-08
-6.3859e-07
-8.98584e-08
-6.12065e-07
-9.3217e-08
-5.84717e-07
-9.62389e-08
-5.56646e-07
-9.88904e-08
-5.27964e-07
-1.01139e-07
-4.98787e-07
-1.02955e-07
-4.69242e-07
-1.04308e-07
-4.39462e-07
-1.05173e-07
-4.09584e-07
-1.05527e-07
-3.79754e-07
-1.0535e-07
-3.50119e-07
-1.04625e-07
-3.2083e-07
-1.03342e-07
-2.92041e-07
-1.01491e-07
-2.63906e-07
-9.90709e-08
-2.36576e-07
-9.60835e-08
-2.10203e-07
-9.25365e-08
-1.84933e-07
-8.84432e-08
-1.60908e-07
-8.38231e-08
-1.3826e-07
-7.87021e-08
-1.17113e-07
-7.31132e-08
-9.75794e-08
-6.70975e-08
-7.97568e-08
-6.07048e-08
-6.37256e-08
-5.39959e-08
-4.95466e-08
-4.70442e-08
-3.72563e-08
-3.99395e-08
-2.68639e-08
-3.27917e-08
-1.83464e-08
-2.57373e-08
-1.16436e-08
-1.89468e-08
-6.65321e-09
-1.26356e-08
-3.2254e-09
-7.07737e-09
-1.15788e-09
-2.6183e-09
-1.90964e-10
3.03322e-10
1.0905e-09
-4.54156e-11
-5.95288e-10
-3.27862e-10
-6.26645e-10
-9.62417e-10
2.02753e-10
-2.03754e-09
1.66768e-09
-3.61961e-09
3.59372e-09
-5.75572e-09
5.83768e-09
-8.47618e-09
8.28319e-09
-1.17969e-08
1.08371e-08
-1.57214e-08
1.3426e-08
-2.02434e-08
1.59925e-08
-2.53479e-08
1.84927e-08
-3.10136e-08
2.0894e-08
-3.72142e-08
2.31729e-08
-4.39197e-08
2.53133e-08
-5.10977e-08
2.73053e-08
-5.87142e-08
2.91437e-08
-6.67349e-08
3.08274e-08
-7.51253e-08
3.23583e-08
-8.38518e-08
3.37407e-08
-9.28817e-08
3.49809e-08
-1.02184e-07
3.60865e-08
-1.11729e-07
3.70659e-08
-1.21489e-07
3.79283e-08
-1.31439e-07
3.86833e-08
-1.41556e-07
3.93406e-08
-1.51818e-07
3.99098e-08
-1.62205e-07
4.04004e-08
-1.72702e-07
4.08216e-08
-1.83293e-07
4.11822e-08
-1.93964e-07
4.14906e-08
-2.04705e-07
4.17546e-08
-2.15506e-07
4.19817e-08
-2.26359e-07
4.21786e-08
-2.37257e-07
4.23517e-08
-2.48196e-07
4.25068e-08
-2.59172e-07
4.2649e-08
-2.70181e-07
4.27833e-08
-2.81224e-07
4.29138e-08
-2.92298e-07
4.30444e-08
-3.03405e-07
4.31786e-08
-3.14545e-07
4.33192e-08
-3.2572e-07
4.3469e-08
-3.36932e-07
4.36302e-08
-3.48184e-07
4.38048e-08
-3.59479e-07
4.39944e-08
-3.7082e-07
4.42004e-08
-3.82212e-07
4.44238e-08
-3.93658e-07
4.46656e-08
-4.05162e-07
4.49263e-08
-4.1673e-07
4.52064e-08
-4.28364e-07
4.55061e-08
-4.40069e-07
4.58254e-08
-4.51851e-07
4.61641e-08
-4.63711e-07
4.65218e-08
-4.75656e-07
4.68979e-08
-4.87688e-07
4.72918e-08
-4.99812e-07
4.77024e-08
-5.1203e-07
4.81287e-08
-5.24345e-07
4.85693e-08
-5.3676e-07
4.90228e-08
-5.49277e-07
4.94874e-08
-5.61897e-07
4.99612e-08
-5.74622e-07
5.04422e-08
-5.87451e-07
5.09279e-08
-6.00385e-07
5.14158e-08
-6.13423e-07
5.1903e-08
-6.26562e-07
5.23866e-08
-6.398e-07
5.28631e-08
-6.53134e-07
5.33291e-08
-6.66559e-07
5.37807e-08
-6.80069e-07
5.42138e-08
-6.93658e-07
5.46239e-08
-7.07318e-07
5.50063e-08
-7.21039e-07
5.53561e-08
-7.34812e-07
5.5668e-08
-7.48623e-07
5.59363e-08
-7.62461e-07
5.61552e-08
-7.76311e-07
5.63184e-08
-7.90155e-07
5.64196e-08
-8.03976e-07
5.64517e-08
-8.17754e-07
5.64078e-08
-8.31467e-07
5.62806e-08
-8.45093e-07
5.60623e-08
-8.58606e-07
5.57451e-08
-8.71979e-07
5.5321e-08
-8.85184e-07
5.47816e-08
-8.98188e-07
5.41184e-08
-9.1096e-07
5.3323e-08
-9.23463e-07
5.23866e-08
-9.35663e-07
5.13004e-08
-9.47519e-07
5.00559e-08
-9.5899e-07
4.86442e-08
-9.70035e-07
4.7057e-08
-9.80609e-07
4.52859e-08
-9.90666e-07
4.33228e-08
-1.00016e-06
4.11601e-08
-1.00904e-06
3.87906e-08
-1.01725e-06
3.62075e-08
-1.02474e-06
3.34049e-08
-1.03147e-06
3.03775e-08
-1.03738e-06
2.71209e-08
-1.04241e-06
2.36319e-08
-1.0465e-06
1.99081e-08
-1.04962e-06
1.59486e-08
-1.05169e-06
1.17538e-08
-1.05268e-06
7.32575e-09
-1.05252e-06
2.66802e-09
-1.05117e-06
-2.21395e-09
-1.04858e-06
-7.31281e-09
-1.0447e-06
-1.26191e-08
-1.03949e-06
-1.81214e-08
-1.03291e-06
-2.38057e-08
-1.02493e-06
-2.96559e-08
-1.01551e-06
-3.56533e-08
-1.00463e-06
-4.17768e-08
-9.92274e-07
-4.80028e-08
-9.7842e-07
-5.4305e-08
-9.63063e-07
-6.06546e-08
-9.46204e-07
-6.70205e-08
-9.27849e-07
-7.33692e-08
-9.08014e-07
-7.96646e-08
-8.86725e-07
-8.58689e-08
-8.64013e-07
-9.19421e-08
-8.39921e-07
-9.78426e-08
-8.14503e-07
-1.03527e-07
-7.8782e-07
-1.08953e-07
-7.59944e-07
-1.14073e-07
-7.30958e-07
-1.18844e-07
-7.00955e-07
-1.23221e-07
-6.70036e-07
-1.27158e-07
-6.38313e-07
-1.30613e-07
-6.05908e-07
-1.33544e-07
-5.72952e-07
-1.35911e-07
-5.39581e-07
-1.37678e-07
-5.05943e-07
-1.38811e-07
-4.72189e-07
-1.3928e-07
-4.38479e-07
-1.3906e-07
-4.04975e-07
-1.38129e-07
-3.71844e-07
-1.36473e-07
-3.39253e-07
-1.34082e-07
-3.07373e-07
-1.30951e-07
-2.76371e-07
-1.27086e-07
-2.46412e-07
-1.22495e-07
-2.1766e-07
-1.17196e-07
-1.90267e-07
-1.11216e-07
-1.64381e-07
-1.04588e-07
-1.40138e-07
-9.73566e-08
-1.1766e-07
-8.95751e-08
-9.70555e-08
-8.13092e-08
-7.84136e-08
-7.26378e-08
-6.1802e-08
-6.36559e-08
-4.72639e-08
-5.44775e-08
-3.48146e-08
-4.5241e-08
-2.44376e-08
-3.61143e-08
-1.60812e-08
-2.73031e-08
-9.65544e-09
-1.90614e-08
-5.02898e-09
-1.17038e-08
-2.02809e-09
-5.61918e-09
-4.36765e-10
-1.28801e-09
6.53734e-10
-1.28856e-10
-4.66425e-10
-6.29919e-10
-1.25595e-10
-1.59658e-09
1.16942e-09
-3.10201e-09
3.17311e-09
-5.20111e-09
5.69283e-09
-7.93223e-09
8.56881e-09
-1.13189e-08
1.16698e-08
-1.53716e-08
1.48898e-08
-2.00896e-08
1.8144e-08
-2.54627e-08
2.13656e-08
-3.1473e-08
2.4503e-08
-3.80962e-08
2.75172e-08
-4.53031e-08
3.03798e-08
-5.30611e-08
3.30713e-08
-6.1335e-08
3.55792e-08
-7.00883e-08
3.7897e-08
-7.92838e-08
4.00229e-08
-8.88845e-08
4.19589e-08
-9.88539e-08
4.37101e-08
-1.09157e-07
4.52838e-08
-1.19759e-07
4.66891e-08
-1.3063e-07
4.79362e-08
-1.41738e-07
4.90365e-08
-1.53056e-07
5.00015e-08
-1.64559e-07
5.08432e-08
-1.76222e-07
5.15735e-08
-1.88026e-07
5.22042e-08
-1.99951e-07
5.27465e-08
-2.1198e-07
5.32116e-08
-2.241e-07
5.36099e-08
-2.36296e-07
5.39512e-08
-2.48559e-07
5.42448e-08
-2.6088e-07
5.44993e-08
-2.73251e-07
5.47226e-08
-2.85666e-07
5.4922e-08
-2.98121e-07
5.51043e-08
-3.10614e-07
5.52753e-08
-3.2314e-07
5.54407e-08
-3.35701e-07
5.56052e-08
-3.48296e-07
5.57732e-08
-3.60925e-07
5.59486e-08
-3.73591e-07
5.61347e-08
-3.86295e-07
5.63343e-08
-3.9904e-07
5.65501e-08
-4.1183e-07
5.67842e-08
-4.24668e-07
5.70382e-08
-4.37558e-07
5.73136e-08
-4.50504e-07
5.76116e-08
-4.6351e-07
5.79329e-08
-4.76582e-07
5.8278e-08
-4.89723e-07
5.86472e-08
-5.02938e-07
5.90405e-08
-5.16231e-07
5.94577e-08