/*--------------------------------*- C++ -*----------------------------------*\
  =========                 |
  \\      /  F ield         | OpenFOAM: The Open Source CFD Toolbox
   \\    /   O peration     | Website:  https://openfoam.org
    \\  /    A nd           | Version:  7
     \\/     M anipulation  |
\*---------------------------------------------------------------------------*/
FoamFile
{
    version     2.0;
    format      ascii;
    class       volVectorField;
    location    "0.325";
    object      U;
}
// * * * * * * * * * * * * * * * * * * * * * * * * * * * * * * * * * * * * * //

dimensions      [0 1 -1 0 0 0 0];

internalField   nonuniform List<vector> 
12800
(
(3.22164e-06 -3.38082e-06 0)
(1.82475e-05 -9.82482e-06 0)
(4.42849e-05 -1.20505e-05 0)
(7.06259e-05 -1.11035e-05 0)
(9.06481e-05 -8.40498e-06 0)
(0.00010101 -4.81807e-06 0)
(9.9927e-05 -8.44559e-07 0)
(8.65588e-05 3.2231e-06 0)
(6.07085e-05 7.21403e-06 0)
(2.25901e-05 1.10293e-05 0)
(-2.73181e-05 1.46107e-05 0)
(-8.83716e-05 1.79299e-05 0)
(-0.000159825 2.09727e-05 0)
(-0.000240882 2.3735e-05 0)
(-0.000330721 2.62231e-05 0)
(-0.000428527 2.84474e-05 0)
(-0.000533502 3.04199e-05 0)
(-0.000644882 3.21555e-05 0)
(-0.000761941 3.36719e-05 0)
(-0.000883999 3.49872e-05 0)
(-0.00101043 3.61184e-05 0)
(-0.00114066 3.7083e-05 0)
(-0.00127415 3.78992e-05 0)
(-0.00141044 3.85838e-05 0)
(-0.00154911 3.91527e-05 0)
(-0.00168979 3.96213e-05 0)
(-0.00183214 4.00041e-05 0)
(-0.0019759 4.03141e-05 0)
(-0.00212081 4.05632e-05 0)
(-0.00226667 4.07624e-05 0)
(-0.00241333 4.09224e-05 0)
(-0.00256065 4.10525e-05 0)
(-0.00270852 4.11609e-05 0)
(-0.00285688 4.12552e-05 0)
(-0.00300566 4.13418e-05 0)
(-0.00315483 4.14265e-05 0)
(-0.00330439 4.15145e-05 0)
(-0.00345435 4.16104e-05 0)
(-0.00360471 4.17182e-05 0)
(-0.00375553 4.18412e-05 0)
(-0.00390684 4.1982e-05 0)
(-0.00405869 4.21431e-05 0)
(-0.00421116 4.23268e-05 0)
(-0.00436432 4.25349e-05 0)
(-0.00451823 4.27687e-05 0)
(-0.00467299 4.30293e-05 0)
(-0.00482868 4.33176e-05 0)
(-0.00498538 4.36341e-05 0)
(-0.0051432 4.39797e-05 0)
(-0.00530222 4.43545e-05 0)
(-0.00546254 4.47585e-05 0)
(-0.00562424 4.51918e-05 0)
(-0.00578744 4.56541e-05 0)
(-0.00595221 4.61452e-05 0)
(-0.00611865 4.66646e-05 0)
(-0.00628685 4.72118e-05 0)
(-0.00645689 4.77859e-05 0)
(-0.00662887 4.83861e-05 0)
(-0.00680285 4.90112e-05 0)
(-0.00697892 4.966e-05 0)
(-0.00715715 5.03312e-05 0)
(-0.00733759 5.1023e-05 0)
(-0.00752032 5.17337e-05 0)
(-0.00770537 5.24613e-05 0)
(-0.0078928 5.32035e-05 0)
(-0.00808263 5.39579e-05 0)
(-0.00827489 5.47216e-05 0)
(-0.00846959 5.54915e-05 0)
(-0.00866674 5.62644e-05 0)
(-0.00886633 5.70366e-05 0)
(-0.00906832 5.7804e-05 0)
(-0.00927268 5.85622e-05 0)
(-0.00947935 5.93064e-05 0)
(-0.00968826 6.00317e-05 0)
(-0.00989931 6.07324e-05 0)
(-0.0101124 6.14026e-05 0)
(-0.0103274 6.2036e-05 0)
(-0.0105441 6.26256e-05 0)
(-0.0107623 6.31644e-05 0)
(-0.0109819 6.36445e-05 0)
(-0.0112027 6.40578e-05 0)
(-0.0114242 6.43954e-05 0)
(-0.0116463 6.46483e-05 0)
(-0.0118686 6.48067e-05 0)
(-0.0120908 6.48607e-05 0)
(-0.0123124 6.47996e-05 0)
(-0.0125331 6.46125e-05 0)
(-0.0127523 6.42879e-05 0)
(-0.0129695 6.38139e-05 0)
(-0.0131843 6.31784e-05 0)
(-0.0133959 6.23689e-05 0)
(-0.0136039 6.1373e-05 0)
(-0.0138074 6.01778e-05 0)
(-0.0140059 5.87702e-05 0)
(-0.0141985 5.71372e-05 0)
(-0.0143845 5.52661e-05 0)
(-0.0145629 5.3144e-05 0)
(-0.0147331 5.07587e-05 0)
(-0.014894 4.80983e-05 0)
(-0.0150446 4.51516e-05 0)
(-0.0151841 4.1908e-05 0)
(-0.0153115 3.83583e-05 0)
(-0.0154256 3.44941e-05 0)
(-0.0155254 3.03086e-05 0)
(-0.01561 2.57965e-05 0)
(-0.0156781 2.09544e-05 0)
(-0.0157288 1.57809e-05 0)
(-0.015761 1.0277e-05 0)
(-0.0157735 4.4464e-06 0)
(-0.0157655 -1.70426e-06 0)
(-0.0157358 -8.16582e-06 0)
(-0.0156835 -1.49255e-05 0)
(-0.0156078 -2.19668e-05 0)
(-0.0155077 -2.92696e-05 0)
(-0.0153825 -3.681e-05 0)
(-0.0152316 -4.45596e-05 0)
(-0.0150544 -5.24864e-05 0)
(-0.0148504 -6.05539e-05 0)
(-0.0146192 -6.87211e-05 0)
(-0.0143608 -7.69431e-05 0)
(-0.0140751 -8.51707e-05 0)
(-0.0137623 -9.3351e-05 0)
(-0.0134226 -0.000101427 0)
(-0.0130565 -0.000109339 0)
(-0.0126649 -0.000117024 0)
(-0.0122485 -0.000124417 0)
(-0.0118086 -0.000131451 0)
(-0.0113465 -0.000138058 0)
(-0.0108636 -0.000144168 0)
(-0.010362 -0.000149713 0)
(-0.00984337 -0.000154628 0)
(-0.00931011 -0.000158845 0)
(-0.00876457 -0.000162304 0)
(-0.00820934 -0.000164945 0)
(-0.00764719 -0.000166717 0)
(-0.00708106 -0.000167571 0)
(-0.00651401 -0.000167465 0)
(-0.00594922 -0.000166366 0)
(-0.00538997 -0.000164246 0)
(-0.00483961 -0.000161085 0)
(-0.00430152 -0.000156874 0)
(-0.00377913 -0.00015161 0)
(-0.00327581 -0.000145297 0)
(-0.00279492 -0.000137951 0)
(-0.00233973 -0.000129593 0)
(-0.00191344 -0.00012025 0)
(-0.00151909 -0.000109959 0)
(-0.00115957 -9.87622e-05 0)
(-0.000837592 -8.67081e-05 0)
(-0.000555616 -7.38556e-05 0)
(-0.000315822 -6.02766e-05 0)
(-0.000120027 -4.6066e-05 0)
(3.04318e-05 -3.13611e-05 0)
(0.000134888 -1.63784e-05 0)
(0.000193676 -1.49462e-06 0)
(0.000208689 1.2596e-05 0)
(0.000184233 2.46167e-05 0)
(0.000128899 3.21035e-05 0)
(6.13521e-05 3.04675e-05 0)
(1.38835e-05 1.39047e-05 0)
(9.75049e-06 -1.8518e-05 0)
(4.18649e-05 -4.1976e-05 0)
(8.85127e-05 -4.80705e-05 0)
(0.000130984 -4.10858e-05 0)
(0.000156749 -2.57817e-05 0)
(0.000158421 -5.55264e-06 0)
(0.000131387 1.73139e-05 0)
(7.30702e-05 4.12834e-05 0)
(-1.75595e-05 6.53379e-05 0)
(-0.00014043 8.88067e-05 0)
(-0.000294707 0.000111252 0)
(-0.000479036 0.000132397 0)
(-0.000691714 0.000152076 0)
(-0.000930827 0.000170202 0)
(-0.00119434 0.000186749 0)
(-0.00148019 0.00020173 0)
(-0.00178631 0.000215189 0)
(-0.00211068 0.000227192 0)
(-0.00245138 0.000237821 0)
(-0.00280659 0.000247166 0)
(-0.00317458 0.000255325 0)
(-0.00355378 0.000262398 0)
(-0.00394273 0.000268487 0)
(-0.00434012 0.000273691 0)
(-0.00474475 0.000278109 0)
(-0.00515556 0.000281833 0)
(-0.00557162 0.000284955 0)
(-0.00599212 0.000287557 0)
(-0.00641635 0.000289719 0)
(-0.00684371 0.000291512 0)
(-0.0072737 0.000293004 0)
(-0.00770592 0.000294258 0)
(-0.00814004 0.00029533 0)
(-0.00857581 0.00029627 0)
(-0.00901306 0.000297124 0)
(-0.00945166 0.000297932 0)
(-0.00989155 0.000298731 0)
(-0.0103327 0.000299553 0)
(-0.0107752 0.000300427 0)
(-0.0112191 0.000301376 0)
(-0.0116644 0.000302422 0)
(-0.0121114 0.000303584 0)
(-0.0125602 0.000304876 0)
(-0.0130109 0.000306313 0)
(-0.0134638 0.000307905 0)
(-0.0139191 0.000309661 0)
(-0.014377 0.000311589 0)
(-0.0148377 0.000313693 0)
(-0.0153016 0.000315978 0)
(-0.0157687 0.000318446 0)
(-0.0162395 0.000321099 0)
(-0.016714 0.000323937 0)
(-0.0171927 0.000326957 0)
(-0.0176757 0.000330159 0)
(-0.0181634 0.000333538 0)
(-0.0186558 0.00033709 0)
(-0.0191533 0.000340809 0)
(-0.0196561 0.000344688 0)
(-0.0201644 0.000348719 0)
(-0.0206783 0.000352891 0)
(-0.0211981 0.000357196 0)
(-0.021724 0.000361619 0)
(-0.022256 0.000366147 0)
(-0.0227944 0.000370765 0)
(-0.0233391 0.000375456 0)
(-0.0238902 0.000380201 0)
(-0.0244479 0.000384979 0)
(-0.0250121 0.000389768 0)
(-0.0255828 0.000394544 0)
(-0.0261599 0.000399278 0)
(-0.0267432 0.000403943 0)
(-0.0273328 0.000408507 0)
(-0.0279283 0.000412935 0)
(-0.0285295 0.000417192 0)
(-0.0291362 0.000421237 0)
(-0.0297478 0.000425031 0)
(-0.0303641 0.000428527 0)
(-0.0309845 0.000431679 0)
(-0.0316084 0.000434436 0)
(-0.0322353 0.000436745 0)
(-0.0328644 0.000438551 0)
(-0.0334948 0.000439793 0)
(-0.0341257 0.000440411 0)
(-0.0347562 0.000440339 0)
(-0.0353852 0.00043951 0)
(-0.0360114 0.000437854 0)
(-0.0366337 0.000435299 0)
(-0.0372506 0.000431769 0)
(-0.0378607 0.000427189 0)
(-0.0384624 0.000421479 0)
(-0.0390539 0.000414561 0)
(-0.0396336 0.000406353 0)
(-0.0401995 0.000396776 0)
(-0.0407495 0.000385748 0)
(-0.0412816 0.000373189 0)
(-0.0417934 0.00035902 0)
(-0.0422826 0.000343166 0)
(-0.0427469 0.000325552 0)
(-0.0431836 0.00030611 0)
(-0.0435901 0.000284774 0)
(-0.0439637 0.000261487 0)
(-0.0443017 0.000236197 0)
(-0.0446012 0.000208863 0)
(-0.0448593 0.00017945 0)
(-0.0450731 0.000147939 0)
(-0.0452398 0.000114318 0)
(-0.0453564 7.85943e-05 0)
(-0.04542 4.07872e-05 0)
(-0.0454278 9.34095e-07 0)
(-0.045377 -4.09089e-05 0)
(-0.045265 -8.46668e-05 0)
(-0.0450893 -0.000130243 0)
(-0.0448476 -0.000177519 0)
(-0.0445375 -0.000226352 0)
(-0.0441572 -0.000276575 0)
(-0.043705 -0.000327997 0)
(-0.0431796 -0.0003804 0)
(-0.0425797 -0.000433542 0)
(-0.0419047 -0.000487154 0)
(-0.0411544 -0.000540943 0)
(-0.0403287 -0.00059459 0)
(-0.0394283 -0.000647756 0)
(-0.0384542 -0.000700078 0)
(-0.037408 -0.000751174 0)
(-0.0362918 -0.000800649 0)
(-0.0351081 -0.000848092 0)
(-0.0338604 -0.000893082 0)
(-0.0325523 -0.000935196 0)
(-0.0311882 -0.000974006 0)
(-0.029773 -0.00100909 0)
(-0.0283124 -0.00104004 0)
(-0.0268124 -0.00106644 0)
(-0.0252796 -0.00108792 0)
(-0.0237211 -0.00110413 0)
(-0.0221444 -0.00111474 0)
(-0.0205575 -0.00111946 0)
(-0.0189689 -0.00111803 0)
(-0.017387 -0.00111026 0)
(-0.0158209 -0.00109598 0)
(-0.0142796 -0.00107508 0)
(-0.0127722 -0.00104752 0)
(-0.011308 -0.00101328 0)
(-0.00989607 -0.000972437 0)
(-0.00854543 -0.000925091 0)
(-0.00726487 -0.000871419 0)
(-0.00606287 -0.00081165 0)
(-0.0049475 -0.000746079 0)
(-0.00392632 -0.000675065 0)
(-0.00300628 -0.000599049 0)
(-0.00219355 -0.000518571 0)
(-0.00149334 -0.00043431 0)
(-0.000909649 -0.000347147 0)
(-0.000444919 -0.000258275 0)
(-9.94726e-05 -0.000169394 0)
(0.000129263 -8.30455e-05 0)
(0.000247962 -3.16513e-06 0)
(0.000268883 6.40128e-05 0)
(0.000212347 0.000108486 0)
(0.000114215 0.000114468 0)
(3.02834e-05 6.12315e-05 0)
(1.21065e-05 -4.4514e-05 0)
(4.83038e-05 -8.86791e-05 0)
(9.52087e-05 -9.48862e-05 0)
(0.000130005 -7.29199e-05 0)
(0.000137483 -3.16949e-05 0)
(0.000108175 2.18373e-05 0)
(3.576e-05 8.25388e-05 0)
(-8.35617e-05 0.000146701 0)
(-0.000251528 0.000211698 0)
(-0.000468331 0.000275688 0)
(-0.000733029 0.000337403 0)
(-0.00104386 0.000395992 0)
(-0.00139851 0.000450908 0)
(-0.00179427 0.000501833 0)
(-0.0022282 0.000548615 0)
(-0.00269728 0.000591231 0)
(-0.00319844 0.000629749 0)
(-0.00372866 0.000664308 0)
(-0.00428503 0.000695095 0)
(-0.00486474 0.000722333 0)
(-0.00546517 0.000746268 0)
(-0.00608387 0.000767161 0)
(-0.00671856 0.000785277 0)
(-0.00736717 0.000800883 0)
(-0.00802784 0.00081424 0)
(-0.00869886 0.000825604 0)
(-0.00937875 0.00083522 0)
(-0.0100662 0.000843321 0)
(-0.0107601 0.000850124 0)
(-0.0114593 0.000855835 0)
(-0.0121632 0.000860642 0)
(-0.0128711 0.000864721 0)
(-0.0135823 0.00086823 0)
(-0.0142964 0.000871316 0)
(-0.0150132 0.000874109 0)
(-0.0157323 0.000876728 0)
(-0.0164537 0.000879277 0)
(-0.0171774 0.00088185 0)
(-0.0179032 0.000884531 0)
(-0.0186314 0.000887392 0)
(-0.019362 0.000890495 0)
(-0.0200953 0.000893895 0)
(-0.0208314 0.000897639 0)
(-0.0215707 0.000901768 0)
(-0.0223134 0.000906314 0)
(-0.0230598 0.000911304 0)
(-0.0238104 0.000916759 0)
(-0.0245654 0.000922698 0)
(-0.0253251 0.000929133 0)
(-0.0260901 0.00093607 0)
(-0.0268607 0.000943515 0)
(-0.0276372 0.000951467 0)
(-0.0284201 0.000959922 0)
(-0.0292097 0.000968875 0)
(-0.0300064 0.000978314 0)
(-0.0308105 0.000988225 0)
(-0.0316225 0.00099859 0)
(-0.0324426 0.00100939 0)
(-0.0332711 0.00102059 0)
(-0.0341084 0.00103218 0)
(-0.0349547 0.00104411 0)
(-0.0358102 0.00105635 0)
(-0.0366752 0.00106886 0)
(-0.0375497 0.00108159 0)
(-0.038434 0.00109449 0)
(-0.0393281 0.00110751 0)
(-0.040232 0.00112057 0)
(-0.0411457 0.00113363 0)
(-0.0420691 0.00114659 0)
(-0.0430021 0.00115939 0)
(-0.0439445 0.00117193 0)
(-0.0448959 0.00118413 0)
(-0.0458561 0.00119588 0)
(-0.0468245 0.00120708 0)
(-0.0478006 0.00121762 0)
(-0.0487838 0.00122737 0)
(-0.0497734 0.0012362 0)
(-0.0507685 0.00124398 0)
(-0.0517681 0.00125056 0)
(-0.0527712 0.00125579 0)
(-0.0537766 0.0012595 0)
(-0.054783 0.00126154 0)
(-0.0557888 0.00126172 0)
(-0.0567925 0.00125986 0)
(-0.0577923 0.00125577 0)
(-0.0587863 0.00124924 0)
(-0.0597725 0.00124009 0)
(-0.0607485 0.00122809 0)
(-0.0617121 0.00121303 0)
(-0.0626606 0.00119471 0)
(-0.0635914 0.00117288 0)
(-0.0645015 0.00114734 0)
(-0.0653879 0.00111786 0)
(-0.0662473 0.00108422 0)
(-0.0670764 0.0010462 0)
(-0.0678716 0.00100359 0)
(-0.0686291 0.000956184 0)
(-0.0693452 0.000903791 0)
(-0.0700158 0.000846224 0)
(-0.0706369 0.000783318 0)
(-0.0712041 0.000714923 0)
(-0.0717131 0.000640911 0)
(-0.0721597 0.00056118 0)
(-0.0725392 0.000475655 0)
(-0.0728473 0.000384293 0)
(-0.0730793 0.000287089 0)
(-0.073231 0.000184075 0)
(-0.0732978 7.53297e-05 0)
(-0.0732755 -3.90246e-05 0)
(-0.0731599 -0.000158811 0)
(-0.072947 -0.0002838 0)
(-0.072633 -0.000413703 0)
(-0.0722144 -0.000548169 0)
(-0.071688 -0.000686785 0)
(-0.0710509 -0.000829069 0)
(-0.0703007 -0.000974474 0)
(-0.0694354 -0.00112238 0)
(-0.0684536 -0.00127211 0)
(-0.0673542 -0.00142289 0)
(-0.0661371 -0.00157392 0)
(-0.0648027 -0.0017243 0)
(-0.0633519 -0.00187308 0)
(-0.0617866 -0.00201927 0)
(-0.0601094 -0.00216181 0)
(-0.0583237 -0.00229962 0)
(-0.0564338 -0.00243155 0)
(-0.0544448 -0.00255646 0)
(-0.0523628 -0.0026732 0)
(-0.0501946 -0.00278059 0)
(-0.047948 -0.00287748 0)
(-0.0456316 -0.00296274 0)
(-0.0432548 -0.0030353 0)
(-0.0408279 -0.00309411 0)
(-0.038362 -0.00313822 0)
(-0.0358687 -0.00316675 0)
(-0.0333602 -0.0031789 0)
(-0.0308495 -0.00317401 0)
(-0.0283499 -0.00315152 0)
(-0.025875 -0.00311101 0)
(-0.0234388 -0.00305221 0)
(-0.0210554 -0.00297498 0)
(-0.0187387 -0.00287934 0)
(-0.0165029 -0.00276549 0)
(-0.0143616 -0.00263378 0)
(-0.0123283 -0.00248474 0)
(-0.0104157 -0.00231906 0)
(-0.00863617 -0.00213766 0)
(-0.00700089 -0.00194166 0)
(-0.00552015 -0.00173245 0)
(-0.00420292 -0.00151172 0)
(-0.00305653 -0.00128162 0)
(-0.00208632 -0.00104489 0)
(-0.00129508 -0.000805144 0)
(-0.000682317 -0.000567306 0)
(-0.000243273 -0.000338277 0)
(3.24478e-05 -0.000127957 0)
(0.000162382 4.92592e-05 0)
(0.000173342 0.000172578 0)
(0.000108343 0.000212493 0)
(3.17945e-05 0.000128369 0)
(1.13203e-05 -7.1116e-05 0)
(4.17289e-05 -0.000131463 0)
(7.37487e-05 -0.000129792 0)
(8.34336e-05 -8.27386e-05 0)
(5.4632e-05 -3.78527e-06 0)
(-2.30657e-05 9.62992e-05 0)
(-0.000156803 0.000209208 0)
(-0.000351003 0.000328714 0)
(-0.000607814 0.00045022 0)
(-0.000927591 0.000570384 0)
(-0.00130933 0.00068682 0)
(-0.00175099 0.000797871 0)
(-0.00224981 0.00090243 0)
(-0.00280251 0.000999811 0)
(-0.00340548 0.00108965 0)
(-0.00405493 0.00117182 0)
(-0.00474701 0.0012464 0)
(-0.00547789 0.00131358 0)
(-0.00624382 0.00137368 0)
(-0.00704121 0.00142708 0)
(-0.00786664 0.00147421 0)
(-0.00871693 0.00151553 0)
(-0.00958909 0.00155153 0)
(-0.0104804 0.00158269 0)
(-0.0113883 0.00160952 0)
(-0.0123107 0.00163247 0)
(-0.0132455 0.001652 0)
(-0.0141909 0.00166857 0)
(-0.0151453 0.00168257 0)
(-0.0161076 0.0016944 0)
(-0.0170764 0.00170443 0)
(-0.0180509 0.00171298 0)
(-0.0190303 0.00172036 0)
(-0.0200139 0.00172687 0)
(-0.0210013 0.00173274 0)
(-0.0219922 0.00173821 0)
(-0.0229863 0.00174348 0)
(-0.0239836 0.00174875 0)
(-0.0249839 0.00175417 0)
(-0.0259875 0.00175989 0)
(-0.0269944 0.00176602 0)
(-0.0280049 0.00177269 0)
(-0.0290192 0.00177998 0)
(-0.0300376 0.00178798 0)
(-0.0310606 0.00179674 0)
(-0.0320885 0.00180633 0)
(-0.0331218 0.00181679 0)
(-0.0341609 0.00182815 0)
(-0.0352062 0.00184044 0)
(-0.0362584 0.00185367 0)
(-0.0373178 0.00186786 0)
(-0.0383849 0.001883 0)
(-0.0394603 0.00189909 0)
(-0.0405444 0.0019161 0)
(-0.0416376 0.00193403 0)
(-0.0427406 0.00195284 0)
(-0.0438536 0.0019725 0)
(-0.0449772 0.00199296 0)
(-0.0461117 0.00201417 0)
(-0.0472574 0.00203608 0)
(-0.0484147 0.00205861 0)
(-0.0495839 0.00208169 0)
(-0.0507651 0.00210525 0)
(-0.0519587 0.00212918 0)
(-0.0531646 0.00215338 0)
(-0.054383 0.00217774 0)
(-0.0556138 0.00220214 0)
(-0.056857 0.00222645 0)
(-0.0581124 0.00225051 0)
(-0.0593798 0.00227417 0)
(-0.0606587 0.00229726 0)
(-0.0619489 0.0023196 0)
(-0.0632497 0.00234099 0)
(-0.0645604 0.00236122 0)
(-0.0658804 0.00238007 0)
(-0.0672086 0.00239729 0)
(-0.068544 0.00241264 0)
(-0.0698854 0.00242585 0)
(-0.0712314 0.00243663 0)
(-0.0725807 0.00244469 0)
(-0.0739314 0.00244971 0)
(-0.0752817 0.00245138 0)
(-0.0766296 0.00244934 0)
(-0.0779729 0.00244325 0)
(-0.0793091 0.00243273 0)
(-0.0806356 0.00241741 0)
(-0.0819497 0.0023969 0)
(-0.0832482 0.0023708 0)
(-0.084528 0.0023387 0)
(-0.0857855 0.00230019 0)
(-0.0870171 0.00225485 0)
(-0.0882189 0.00220227 0)
(-0.0893868 0.00214202 0)
(-0.0905163 0.0020737 0)
(-0.0916031 0.00199689 0)
(-0.0926424 0.00191122 0)
(-0.0936292 0.00181629 0)
(-0.0945584 0.00171175 0)
(-0.0954247 0.00159728 0)
(-0.0962228 0.00147257 0)
(-0.096947 0.00133735 0)
(-0.0975917 0.00119141 0)
(-0.0981511 0.00103458 0)
(-0.0986195 0.000866738 0)
(-0.0989909 0.000687826 0)
(-0.0992597 0.000497863 0)
(-0.09942 0.00029694 0)
(-0.0994661 8.52304e-05 0)
(-0.0993927 -0.000137001 0)
(-0.0991942 -0.000369391 0)
(-0.0988657 -0.000611473 0)
(-0.0984024 -0.000862673 0)
(-0.0977998 -0.0011223 0)
(-0.097054 -0.00138954 0)
(-0.0961613 -0.00166346 0)
(-0.095119 -0.001943 0)
(-0.0939245 -0.00222697 0)
(-0.0925762 -0.00251406 0)
(-0.0910732 -0.00280281 0)
(-0.0894152 -0.00309167 0)
(-0.0876031 -0.00337895 0)
(-0.0856384 -0.00366286 0)
(-0.0835236 -0.0039415 0)
(-0.0812625 -0.00421289 0)
(-0.0788597 -0.00447497 0)
(-0.0763209 -0.00472562 0)
(-0.0736529 -0.00496268 0)
(-0.0708638 -0.00518398 0)
(-0.0679626 -0.00538732 0)
(-0.0649596 -0.00557056 0)
(-0.061866 -0.0057316 0)
(-0.0586942 -0.0058684 0)
(-0.0554576 -0.00597905 0)
(-0.0521706 -0.00606174 0)
(-0.0488483 -0.00611485 0)
(-0.0455067 -0.0061369 0)
(-0.0421626 -0.00612666 0)
(-0.0388332 -0.00608309 0)
(-0.0355362 -0.00600544 0)
(-0.0322896 -0.00589319 0)
(-0.0291117 -0.00574613 0)
(-0.0260207 -0.00556433 0)
(-0.0230346 -0.0053482 0)
(-0.0201711 -0.00509846 0)
(-0.0174475 -0.00481617 0)
(-0.0148801 -0.00450276 0)
(-0.0124847 -0.00416007 0)
(-0.0102754 -0.00379036 0)
(-0.00826518 -0.00339645 0)
(-0.00646517 -0.0029818 0)
(-0.00488425 -0.00255069 0)
(-0.00352869 -0.00210856 0)
(-0.00240143 -0.0016624 0)
(-0.00150135 -0.00122144 0)
(-0.000822223 -0.000798078 0)
(-0.000351484 -0.000409257 0)
(-6.88494e-05 -7.83645e-05 0)
(5.54317e-05 0.000162601 0)
(6.56512e-05 0.000270328 0)
(2.44705e-05 0.000183569 0)
(8.75272e-06 -9.16523e-05 0)
(2.66209e-05 -0.000157645 0)
(3.23365e-05 -0.000137222 0)
(3.47914e-06 -5.37956e-05 0)
(-7.56892e-05 7.45218e-05 0)
(-0.00021574 0.000233161 0)
(-0.000423966 0.000410651 0)
(-0.00070492 0.000598163 0)
(-0.00106083 0.000789004 0)
(-0.00149204 0.000978177 0)
(-0.0019974 0.00116202 0)
(-0.00257464 0.00133792 0)
(-0.00322062 0.00150408 0)
(-0.0039316 0.00165934 0)
(-0.00470344 0.00180304 0)
(-0.00553175 0.00193492 0)
(-0.00641203 0.002055 0)
(-0.00733979 0.00216353 0)
(-0.00831061 0.00226094 0)
(-0.00932022 0.00234778 0)
(-0.0103646 0.00242469 0)
(-0.0114398 0.00249238 0)
(-0.0125423 0.00255157 0)
(-0.0136688 0.00260302 0)
(-0.0148162 0.00264748 0)
(-0.0159819 0.00268569 0)
(-0.0171634 0.00271837 0)
(-0.0183584 0.00274621 0)
(-0.019565 0.00276986 0)
(-0.0207817 0.00278994 0)
(-0.0220069 0.00280703 0)
(-0.0232394 0.00282166 0)
(-0.0244783 0.00283432 0)
(-0.0257227 0.00284548 0)
(-0.026972 0.00285553 0)
(-0.0282258 0.00286485 0)
(-0.0294838 0.00287377 0)
(-0.0307458 0.0028826 0)
(-0.0320117 0.0028916 0)
(-0.0332815 0.00290101 0)
(-0.0345555 0.00291103 0)
(-0.0358338 0.00292183 0)
(-0.0371168 0.00293358 0)
(-0.0384048 0.00294641 0)
(-0.0396983 0.00296043 0)
(-0.0409976 0.00297572 0)
(-0.0423034 0.00299237 0)
(-0.043616 0.00301042 0)
(-0.0449362 0.00302993 0)
(-0.0462644 0.00305091 0)
(-0.0476012 0.00307339 0)
(-0.0489472 0.00309736 0)
(-0.050303 0.00312281 0)
(-0.0516691 0.00314972 0)
(-0.0530462 0.00317805 0)
(-0.0544346 0.00320775 0)
(-0.055835 0.00323877 0)
(-0.0572479 0.00327102 0)
(-0.0586735 0.00330444 0)
(-0.0601125 0.00333891 0)
(-0.061565 0.00337432 0)
(-0.0630315 0.00341056 0)
(-0.0645122 0.00344748 0)
(-0.0660072 0.00348493 0)
(-0.0675166 0.00352273 0)
(-0.0690405 0.0035607 0)
(-0.0705788 0.00359864 0)
(-0.0721314 0.00363632 0)
(-0.0736979 0.0036735 0)
(-0.0752781 0.00370993 0)
(-0.0768714 0.00374532 0)
(-0.0784772 0.00377937 0)
(-0.0800948 0.00381176 0)
(-0.0817233 0.00384215 0)
(-0.0833616 0.00387016 0)
(-0.0850085 0.00389542 0)
(-0.0866627 0.00391752 0)
(-0.0883227 0.003936 0)
(-0.0899865 0.00395043 0)
(-0.0916525 0.00396031 0)
(-0.0933183 0.00396515 0)
(-0.0949816 0.00396441 0)
(-0.0966399 0.00395756 0)
(-0.0982903 0.00394401 0)
(-0.0999299 0.0039232 0)
(-0.101555 0.0038945 0)
(-0.103163 0.0038573 0)
(-0.104749 0.00381097 0)
(-0.106309 0.00375486 0)
(-0.10784 0.00368832 0)
(-0.109337 0.00361069 0)
(-0.110794 0.00352131 0)
(-0.112206 0.00341954 0)
(-0.11357 0.00330472 0)
(-0.114878 0.00317624 0)
(-0.116125 0.00303348 0)
(-0.117305 0.00287587 0)
(-0.118412 0.00270286 0)
(-0.119439 0.00251395 0)
(-0.12038 0.0023087 0)
(-0.121229 0.0020867 0)
(-0.121977 0.00184765 0)
(-0.12262 0.0015913 0)
(-0.123148 0.00131751 0)
(-0.123556 0.00102622 0)
(-0.123837 0.000717492 0)
(-0.123984 0.000391516 0)
(-0.123989 4.86064e-05 0)
(-0.123848 -0.000310776 0)
(-0.123552 -0.000686021 0)
(-0.123097 -0.00107635 0)
(-0.122477 -0.00148081 0)
(-0.121687 -0.00189828 0)
(-0.120722 -0.00232744 0)
(-0.119578 -0.00276678 0)
(-0.118252 -0.00321459 0)
(-0.116741 -0.00366897 0)
(-0.115044 -0.00412782 0)
(-0.113159 -0.00458884 0)
(-0.111087 -0.00504955 0)
(-0.108828 -0.00550728 0)
(-0.106386 -0.0059592 0)
(-0.103762 -0.00640233 0)
(-0.100963 -0.00683353 0)
(-0.0979926 -0.00724958 0)
(-0.0948591 -0.00764715 0)
(-0.0915706 -0.00802286 0)
(-0.0881367 -0.00837328 0)
(-0.0845684 -0.00869502 0)
(-0.0808782 -0.0089847 0)
(-0.0770794 -0.00923904 0)
(-0.0731872 -0.00945488 0)
(-0.0692173 -0.0096292 0)
(-0.0651872 -0.00975923 0)
(-0.0611148 -0.00984239 0)
(-0.0570194 -0.00987643 0)
(-0.0529209 -0.00985939 0)
(-0.0488399 -0.00978971 0)
(-0.0447975 -0.00966619 0)
(-0.0408152 -0.00948806 0)
(-0.0369147 -0.00925502 0)
(-0.0331176 -0.00896725 0)
(-0.0294455 -0.00862542 0)
(-0.0259194 -0.00823074 0)
(-0.0225596 -0.00778498 0)
(-0.0193856 -0.00729052 0)
(-0.0164157 -0.00675039 0)
(-0.0136669 -0.00616836 0)
(-0.0111541 -0.00554907 0)
(-0.00889007 -0.0048982 0)
(-0.00688516 -0.00422274 0)
(-0.00514636 -0.00353142 0)
(-0.00367693 -0.00283521 0)
(-0.00247555 -0.00214824 0)
(-0.00153545 -0.00148885 0)
(-0.000843311 -0.000881251 0)
(-0.000378165 -0.000357571 0)
(-0.000109891 3.97489e-05 0)
(2.79483e-06 0.000254905 0)
(1.30887e-05 0.000209298 0)
(5.22439e-06 -0.000102596 0)
(6.09624e-06 -0.00015932 0)
(-2.27907e-05 -0.000106816 0)
(-0.000100371 2.55941e-05 0)
(-0.000240898 0.000215445 0)
(-0.000454463 0.000444558 0)
(-0.000747993 0.000698408 0)
(-0.00112574 0.000965616 0)
(-0.0015897 0.00123739 0)
(-0.00214 0.00150701 0)
(-0.00277524 0.00176949 0)
(-0.00349285 0.00202116 0)
(-0.00428935 0.00225947 0)
(-0.00516058 0.00248271 0)
(-0.00610194 0.00268987 0)
(-0.00710853 0.00288049 0)
(-0.00817533 0.00305451 0)
(-0.00929729 0.00321223 0)
(-0.0104694 0.00335418 0)
(-0.0116869 0.00348108 0)
(-0.012945 0.00359381 0)
(-0.0142395 0.00369331 0)
(-0.0155662 0.00378059 0)
(-0.0169213 0.00385671 0)
(-0.0183013 0.00392271 0)
(-0.0197031 0.00397964 0)
(-0.0211236 0.0040285 0)
(-0.0225605 0.00407028 0)
(-0.0240114 0.0041059 0)
(-0.0254743 0.00413626 0)
(-0.0269476 0.00416217 0)
(-0.0284298 0.00418442 0)
(-0.0299197 0.0042037 0)
(-0.0314163 0.00422067 0)
(-0.0329189 0.00423593 0)
(-0.0344268 0.00425003 0)
(-0.0359398 0.00426345 0)
(-0.0374574 0.00427662 0)
(-0.0389797 0.00428994 0)
(-0.0405066 0.00430376 0)
(-0.0420382 0.00431837 0)
(-0.0435748 0.00433405 0)
(-0.0451168 0.00435101 0)
(-0.0466644 0.00436946 0)
(-0.0482182 0.00438957 0)
(-0.0497786 0.00441146 0)
(-0.0513462 0.00443524 0)
(-0.0529216 0.00446101 0)
(-0.0545054 0.00448883 0)
(-0.0560982 0.00451873 0)
(-0.0577006 0.00455073 0)
(-0.0593134 0.00458484 0)
(-0.0609371 0.00462105 0)
(-0.0625724 0.0046593 0)
(-0.0642199 0.00469956 0)
(-0.0658802 0.00474174 0)
(-0.0675538 0.00478575 0)
(-0.0692413 0.0048315 0)
(-0.0709431 0.00487884 0)
(-0.0726597 0.00492763 0)
(-0.0743915 0.0049777 0)
(-0.0761386 0.00502888 0)
(-0.0779015 0.00508093 0)
(-0.0796802 0.00513365 0)
(-0.0814748 0.00518676 0)
(-0.0832852 0.00524 0)
(-0.0851114 0.00529305 0)
(-0.086953 0.00534559 0)
(-0.0888098 0.00539726 0)
(-0.0906811 0.00544767 0)
(-0.0925664 0.00549642 0)
(-0.0944649 0.00554305 0)
(-0.0963756 0.0055871 0)
(-0.0982974 0.00562806 0)
(-0.100229 0.00566538 0)
(-0.102169 0.00569851 0)
(-0.104115 0.00572683 0)
(-0.106066 0.00574972 0)
(-0.10802 0.0057665 0)
(-0.109974 0.00577648 0)
(-0.111926 0.00577892 0)
(-0.113872 0.00577307 0)
(-0.11581 0.00575813 0)
(-0.117736 0.00573328 0)
(-0.119647 0.00569768 0)
(-0.121539 0.00565045 0)
(-0.123408 0.00559071 0)
(-0.125248 0.00551755 0)
(-0.127056 0.00543005 0)
(-0.128826 0.00532729 0)
(-0.130553 0.00520833 0)
(-0.132231 0.00507224 0)
(-0.133855 0.0049181 0)
(-0.135418 0.00474501 0)
(-0.136914 0.0045521 0)
(-0.138335 0.00433851 0)
(-0.139676 0.00410345 0)
(-0.140928 0.00384616 0)
(-0.142086 0.00356598 0)
(-0.14314 0.00326228 0)
(-0.144083 0.00293455 0)
(-0.144908 0.00258238 0)
(-0.145606 0.00220547 0)
(-0.146171 0.00180365 0)
(-0.146593 0.0013769 0)
(-0.146865 0.000925361 0)
(-0.14698 0.000449341 0)
(-0.146929 -5.06552e-05 0)
(-0.146706 -0.000573918 0)
(-0.146304 -0.00111952 0)
(-0.145715 -0.00168631 0)
(-0.144935 -0.00227288 0)
(-0.143956 -0.00287758 0)
(-0.142775 -0.00349848 0)
(-0.141387 -0.0041334 0)
(-0.139788 -0.00477987 0)
(-0.137976 -0.00543514 0)
(-0.135948 -0.00609621 0)
(-0.133705 -0.00675979 0)
(-0.131246 -0.00742232 0)
(-0.128573 -0.00808 0)
(-0.125688 -0.0087288 0)
(-0.122596 -0.00936448 0)
(-0.119302 -0.0099826 0)
(-0.115812 -0.0105786 0)
(-0.112136 -0.0111477 0)
(-0.108282 -0.0116852 0)
(-0.104261 -0.0121862 0)
(-0.100087 -0.012646 0)
(-0.0957733 -0.0130597 0)
(-0.0913356 -0.0134228 0)
(-0.0867908 -0.0137307 0)
(-0.0821572 -0.0139792 0)
(-0.0774544 -0.0141645 0)
(-0.0727029 -0.0142828 0)
(-0.0679247 -0.014331 0)
(-0.0631423 -0.0143064 0)
(-0.0583791 -0.0142068 0)
(-0.0536592 -0.0140304 0)
(-0.0490069 -0.0137762 0)
(-0.0444468 -0.0134439 0)
(-0.0400035 -0.0130338 0)
(-0.0357014 -0.0125467 0)
(-0.0315642 -0.0119847 0)
(-0.0276152 -0.0113502 0)
(-0.0238762 -0.0106468 0)
(-0.0203679 -0.00987896 0)
(-0.0171093 -0.00905225 0)
(-0.0141172 -0.00817345 0)
(-0.0114061 -0.00725085 0)
(-0.00898732 -0.00629452 0)
(-0.00686882 -0.00531687 0)
(-0.00505445 -0.00433325 0)
(-0.00354326 -0.00336291 0)
(-0.00232881 -0.00243023 0)
(-0.00139836 -0.00156642 0)
(-0.000731832 -0.000811711 0)
(-0.000300727 -0.000217686 0)
(-6.97414e-05 0.00014946 0)
(2.13415e-07 0.000198476 0)
(1.18851e-06 -0.000101838 0)
(-1.78041e-05 -0.000131005 0)
(-8.71377e-05 -3.08665e-05 0)
(-0.000220998 0.000164454 0)
(-0.000431331 0.000428658 0)
(-0.000727248 0.000740273 0)
(-0.00111487 0.00108194 0)
(-0.00159779 0.00143988 0)
(-0.00217748 0.00180326 0)
(-0.00285363 0.0021637 0)
(-0.00362448 0.00251485 0)
(-0.00448705 0.00285198 0)
(-0.00543749 0.00317175 0)
(-0.00647122 0.00347185 0)
(-0.00758322 0.00375091 0)
(-0.00876815 0.00400822 0)
(-0.0100205 0.00424365 0)
(-0.0113348 0.00445749 0)
(-0.0127054 0.0046504 0)
(-0.0141272 0.00482327 0)
(-0.015595 0.00497719 0)
(-0.0171039 0.0051134 0)
(-0.0186494 0.00523319 0)
(-0.0202272 0.00533794 0)
(-0.0218334 0.00542902 0)
(-0.0234645 0.00550779 0)
(-0.0251171 0.0055756 0)
(-0.0267885 0.00563375 0)
(-0.0284761 0.00568347 0)
(-0.0301775 0.00572595 0)
(-0.0318909 0.0057623 0)
(-0.0336146 0.00579354 0)
(-0.0353472 0.00582063 0)
(-0.0370875 0.00584447 0)
(-0.0388347 0.00586586 0)
(-0.040588 0.00588553 0)
(-0.0423469 0.00590414 0)
(-0.0441112 0.0059223 0)
(-0.0458805 0.00594054 0)
(-0.047655 0.00595933 0)
(-0.0494347 0.00597909 0)
(-0.0512198 0.00600018 0)
(-0.0530107 0.00602292 0)
(-0.0548076 0.00604758 0)
(-0.0566113 0.00607438 0)
(-0.058422 0.00610352 0)
(-0.0602405 0.00613514 0)
(-0.0620674 0.00616937 0)
(-0.0639032 0.00620629 0)
(-0.0657488 0.00624596 0)
(-0.0676047 0.0062884 0)
(-0.0694717 0.00633363 0)
(-0.0713505 0.0063816 0)
(-0.0732417 0.00643228 0)
(-0.075146 0.00648558 0)
(-0.077064 0.0065414 0)
(-0.0789963 0.00659962 0)
(-0.0809435 0.00666008 0)
(-0.082906 0.0067226 0)
(-0.0848844 0.00678698 0)
(-0.0868788 0.00685298 0)
(-0.0888897 0.00692033 0)
(-0.0909173 0.00698876 0)
(-0.0929616 0.00705792 0)
(-0.0950228 0.00712748 0)
(-0.0971006 0.00719703 0)
(-0.0991948 0.00726617 0)
(-0.101305 0.00733443 0)
(-0.103431 0.00740132 0)
(-0.105572 0.0074663 0)
(-0.107727 0.00752881 0)
(-0.109895 0.00758823 0)
(-0.112075 0.00764392 0)
(-0.114266 0.00769518 0)
(-0.116466 0.00774127 0)
(-0.118674 0.00778141 0)
(-0.120886 0.00781479 0)
(-0.123102 0.00784054 0)
(-0.125318 0.00785775 0)
(-0.127532 0.00786547 0)
(-0.129741 0.00786271 0)
(-0.131941 0.00784844 0)
(-0.134129 0.0078216 0)
(-0.136301 0.00778107 0)
(-0.138453 0.00772573 0)
(-0.14058 0.0076544 0)
(-0.142678 0.0075659 0)
(-0.144742 0.00745902 0)
(-0.146765 0.00733253 0)
(-0.148743 0.0071852 0)
(-0.150669 0.0070158 0)
(-0.152537 0.0068231 0)
(-0.15434 0.00660589 0)
(-0.156071 0.00636298 0)
(-0.157724 0.00609324 0)
(-0.159289 0.00579556 0)
(-0.160761 0.0054689 0)
(-0.16213 0.00511231 0)
(-0.163389 0.00472492 0)
(-0.164529 0.00430596 0)
(-0.165542 0.00385479 0)
(-0.166419 0.00337092 0)
(-0.167151 0.00285399 0)
(-0.16773 0.00230385 0)
(-0.168147 0.00172052 0)
(-0.168394 0.00110424 0)
(-0.168462 0.000455512 0)
(-0.168343 -0.000224947 0)
(-0.16803 -0.000936129 0)
(-0.167514 -0.00167674 0)
(-0.166788 -0.00244517 0)
(-0.165847 -0.0032395 0)
(-0.164684 -0.00405747 0)
(-0.163293 -0.00489648 0)
(-0.16167 -0.00575356 0)
(-0.159812 -0.0066254 0)
(-0.157715 -0.00750831 0)
(-0.155379 -0.00839825 0)
(-0.152801 -0.00929083 0)
(-0.149983 -0.0101813 0)
(-0.146928 -0.0110646 0)
(-0.143636 -0.0119354 0)
(-0.140115 -0.0127881 0)
(-0.136369 -0.0136167 0)
(-0.132406 -0.0144152 0)
(-0.128235 -0.0151773 0)
(-0.123867 -0.0158968 0)
(-0.119315 -0.0165672 0)
(-0.114592 -0.0171822 0)
(-0.109713 -0.0177354 0)
(-0.104697 -0.0182209 0)
(-0.0995623 -0.0186326 0)
(-0.094328 -0.0189649 0)
(-0.0890162 -0.0192128 0)
(-0.0836495 -0.0193713 0)
(-0.078252 -0.0194364 0)
(-0.0728485 -0.0194043 0)
(-0.0674649 -0.0192721 0)