/*--------------------------------*- C++ -*----------------------------------*\
  =========                 |
  \\      /  F ield         | OpenFOAM: The Open Source CFD Toolbox
   \\    /   O peration     | Website:  https://openfoam.org
    \\  /    A nd           | Version:  7
     \\/     M anipulation  |
\*---------------------------------------------------------------------------*/
FoamFile
{
    version     2.0;
    format      ascii;
    class       volScalarField;
    location    "0.2625";
    object      p;
}
// * * * * * * * * * * * * * * * * * * * * * * * * * * * * * * * * * * * * * //

dimensions      [0 2 -2 0 0 0 0];

internalField   nonuniform List<scalar> 
51200
(
-1.14172e-08
7.97419e-06
1.95384e-05
3.02868e-05
3.86141e-05
4.53754e-05
5.09798e-05
5.56945e-05
5.97046e-05
6.31424e-05
6.60908e-05
6.86197e-05
7.07921e-05
7.26506e-05
7.42331e-05
7.55772e-05
7.67092e-05
7.76616e-05
7.84526e-05
7.90921e-05
7.95958e-05
7.99749e-05
8.02405e-05
8.04034e-05
8.04774e-05
8.04693e-05
8.03859e-05
8.02405e-05
8.00394e-05
7.97875e-05
7.94947e-05
7.91674e-05
7.88092e-05
7.84259e-05
7.80225e-05
7.76022e-05
7.71671e-05
7.6719e-05
7.6262e-05
7.57989e-05
7.53291e-05
7.48553e-05
7.43849e-05
7.39208e-05
7.34624e-05
7.30122e-05
7.2575e-05
7.21537e-05
7.17479e-05
7.13567e-05
7.09796e-05
7.06156e-05
7.02644e-05
6.99267e-05
6.9606e-05
6.93059e-05
6.90257e-05
6.87624e-05
6.85143e-05
6.8282e-05
6.80651e-05
6.78593e-05
6.76629e-05
6.74801e-05
6.73138e-05
6.71618e-05
6.70184e-05
6.68773e-05
6.67365e-05
6.65982e-05
6.64651e-05
6.6337e-05
6.62111e-05
6.60838e-05
6.59512e-05
6.58097e-05
6.56576e-05
6.54987e-05
6.53377e-05
6.51731e-05
6.49971e-05
6.4803e-05
6.45907e-05
6.43643e-05
6.41266e-05
6.38754e-05
6.36055e-05
6.33133e-05
6.3e-05
6.26678e-05
6.23153e-05
6.19367e-05
6.15275e-05
6.10892e-05
6.06265e-05
6.01427e-05
5.9636e-05
5.91009e-05
5.85327e-05
5.79301e-05
5.72953e-05
5.66313e-05
5.59387e-05
5.5215e-05
5.44588e-05
5.36706e-05
5.28528e-05
5.20064e-05
5.11297e-05
5.02213e-05
4.9282e-05
4.83136e-05
4.73178e-05
4.62947e-05
4.52437e-05
4.41653e-05
4.30604e-05
4.19307e-05
4.07783e-05
3.96047e-05
3.84105e-05
3.71967e-05
3.59647e-05
3.47169e-05
3.34559e-05
3.21835e-05
3.09006e-05
2.96093e-05
2.83118e-05
2.70108e-05
2.5711e-05
2.44171e-05
2.31326e-05
2.18595e-05
2.05989e-05
1.93527e-05
1.81266e-05
1.69268e-05
1.57581e-05
1.46238e-05
1.35276e-05
1.24732e-05
1.14661e-05
1.05131e-05
9.62024e-06
8.79151e-06
8.03089e-06
7.34312e-06
6.73428e-06
6.21158e-06
5.78099e-06
5.44519e-06
5.20488e-06
5.05973e-06
5.00728e-06
5.04116e-06
5.14937e-06
5.31002e-06
5.48359e-06
5.60557e-06
7.71276e-06
1.53216e-05
2.45348e-05
3.31698e-05
4.04607e-05
4.65785e-05
5.17579e-05
5.61843e-05
6.00016e-05
6.33081e-05
6.61771e-05
6.86634e-05
7.08116e-05
7.26677e-05
7.42642e-05
7.56273e-05
7.67915e-05
7.77782e-05
7.86031e-05
7.92838e-05
7.98275e-05
8.02459e-05
8.05527e-05
8.07599e-05
8.08777e-05
8.09142e-05
8.08789e-05
8.07785e-05
8.06186e-05
8.04087e-05
8.01561e-05
7.98642e-05
7.95395e-05
7.91877e-05
7.8812e-05
7.84166e-05
7.80036e-05
7.7576e-05
7.71392e-05
7.66947e-05
7.62412e-05
7.57827e-05
7.53241e-05
7.48659e-05
7.44107e-05
7.39631e-05
7.35259e-05
7.31001e-05
7.26866e-05
7.22865e-05
7.19007e-05
7.15277e-05
7.11645e-05
7.08112e-05
7.04723e-05
7.01514e-05
6.98471e-05
6.95572e-05
6.92832e-05
6.9026e-05
6.87827e-05
6.8549e-05
6.83235e-05
6.81085e-05
6.7905e-05
6.77121e-05
6.75288e-05
6.73525e-05
6.71802e-05
6.70093e-05
6.68367e-05
6.66614e-05
6.64864e-05
6.63144e-05
6.61425e-05
6.59638e-05
6.57737e-05
6.55737e-05
6.53678e-05
6.51563e-05
6.49351e-05
6.46992e-05
6.44467e-05
6.4179e-05
6.38985e-05
6.36046e-05
6.32937e-05
6.29628e-05
6.26121e-05
6.22421e-05
6.18499e-05
6.14318e-05
6.09866e-05
6.05168e-05
6.00244e-05
5.95092e-05
5.89691e-05
5.84013e-05
5.78044e-05
5.71779e-05
5.65216e-05
5.5836e-05
5.51207e-05
5.4375e-05
5.35997e-05
5.2797e-05
5.19677e-05
5.11109e-05
5.02243e-05
4.93075e-05
4.83633e-05
4.73934e-05
4.63984e-05
4.53771e-05
4.43291e-05
4.32557e-05
4.21594e-05
4.10423e-05
3.99054e-05
3.87489e-05
3.75725e-05
3.63776e-05
3.51681e-05
3.39473e-05
3.27171e-05
3.14768e-05
3.02254e-05
2.89655e-05
2.77023e-05
2.64409e-05
2.51849e-05
2.39364e-05
2.26966e-05
2.14674e-05
2.02515e-05
1.90525e-05
1.7876e-05
1.6728e-05
1.56121e-05
1.45299e-05
1.34839e-05
1.24782e-05
1.15187e-05
1.0612e-05
9.76421e-06
8.9787e-06
8.25816e-06
7.6062e-06
7.02782e-06
6.52882e-06
6.11435e-06
5.78685e-06
5.54565e-06
5.38823e-06
5.31076e-06
5.30662e-06
5.36444e-06
5.46741e-06
5.59553e-06
5.71649e-06
1.89167e-05
2.42798e-05
3.06278e-05
3.71591e-05
4.31733e-05
4.84891e-05
5.31388e-05
5.72035e-05
6.07621e-05
6.38841e-05
6.66265e-05
6.90218e-05
7.11099e-05
7.29278e-05
7.45005e-05
7.58612e-05
7.70319e-05
7.80284e-05
7.88727e-05
7.95748e-05
8.01421e-05
8.0588e-05
8.09226e-05
8.11574e-05
8.13039e-05
8.13724e-05
8.13693e-05
8.12995e-05
8.11709e-05
8.09913e-05
8.07677e-05
8.05053e-05
8.02084e-05
7.98817e-05
7.95294e-05
7.91539e-05
7.87577e-05
7.83465e-05
7.79242e-05
7.74908e-05
7.7048e-05
7.66003e-05
7.61489e-05
7.56943e-05
7.52416e-05
7.47964e-05
7.43603e-05
7.39324e-05
7.35132e-05
7.31052e-05
7.27106e-05
7.23272e-05
7.19518e-05
7.15857e-05
7.12333e-05
7.08955e-05
7.05697e-05
7.02568e-05
6.99609e-05
6.96809e-05
6.94123e-05
6.9153e-05
6.89028e-05
6.86623e-05
6.843e-05
6.82034e-05
6.79833e-05
6.77722e-05
6.75697e-05
6.73707e-05
6.71677e-05
6.69578e-05
6.67452e-05
6.65338e-05
6.63216e-05
6.61047e-05
6.58808e-05
6.56489e-05
6.54084e-05
6.51583e-05
6.48971e-05
6.46236e-05
6.43364e-05
6.40351e-05
6.37193e-05
6.33879e-05
6.30399e-05
6.26755e-05
6.22941e-05
6.18923e-05
6.14654e-05
6.10118e-05
6.05346e-05
6.00378e-05
5.95213e-05
5.89811e-05
5.84136e-05
5.78176e-05
5.71944e-05
5.65457e-05
5.58702e-05
5.51657e-05
5.44307e-05
5.36662e-05
5.28754e-05
5.20608e-05
5.12216e-05
5.03549e-05
4.94586e-05
4.8534e-05
4.75849e-05
4.66132e-05
4.56181e-05
4.45977e-05
4.35512e-05
4.2481e-05
4.13907e-05
4.02831e-05
3.91584e-05
3.80152e-05
3.68525e-05
3.56725e-05
3.448e-05
3.32798e-05
3.20733e-05
3.08584e-05
2.96328e-05
2.83988e-05
2.71629e-05
2.5932e-05
2.47098e-05
2.34965e-05
2.22919e-05
2.10979e-05
1.99179e-05
1.87568e-05
1.762e-05
1.65123e-05
1.54367e-05
1.43945e-05
1.33878e-05
1.24207e-05
1.14991e-05
1.0629e-05
9.81476e-06
9.06035e-06
8.3692e-06
7.74438e-06
7.18956e-06
6.70943e-06
6.30803e-06
5.98692e-06
5.74523e-06
5.58025e-06
5.48826e-06
5.46457e-06
5.50099e-06
5.5851e-06
5.71263e-06
5.87572e-06
2.93517e-05
3.26948e-05
3.69844e-05
4.17713e-05
4.65357e-05
5.09888e-05
5.504e-05
5.86838e-05
6.19341e-05
6.48315e-05
6.74012e-05
6.96712e-05
7.16699e-05
7.34173e-05
7.49446e-05
7.6277e-05
7.74294e-05
7.84217e-05
7.92663e-05
7.99707e-05
8.05489e-05
8.10093e-05
8.13614e-05
8.16154e-05
8.17819e-05
8.18711e-05
8.18886e-05
8.1841e-05
8.17346e-05
8.15758e-05
8.13734e-05
8.11324e-05
8.08558e-05
8.055e-05
8.02173e-05
7.98579e-05
7.94775e-05
7.90814e-05
7.86698e-05
7.82447e-05
7.78107e-05
7.73701e-05
7.69231e-05
7.64713e-05
7.60201e-05
7.55755e-05
7.51386e-05
7.47084e-05
7.42855e-05
7.38719e-05
7.34681e-05
7.30714e-05
7.2682e-05
7.23043e-05
7.19399e-05
7.15868e-05
7.12437e-05
7.09133e-05
7.05982e-05
7.02953e-05
7.00007e-05
6.97152e-05
6.94404e-05
6.91766e-05
6.89206e-05
6.86677e-05
6.84179e-05
6.8175e-05
6.79397e-05
6.77072e-05
6.74724e-05
6.72342e-05
6.69943e-05
6.67517e-05
6.65031e-05
6.62486e-05
6.59905e-05
6.57286e-05
6.54585e-05
6.51757e-05
6.48788e-05
6.45694e-05
6.42493e-05
6.39178e-05
6.35709e-05
6.3206e-05
6.28245e-05
6.24294e-05
6.20197e-05
6.15892e-05
6.11319e-05
6.06475e-05
6.01412e-05
5.96182e-05
5.90778e-05
5.85148e-05
5.79239e-05
5.7304e-05
5.66578e-05
5.5988e-05
5.52937e-05
5.45711e-05
5.38183e-05
5.30375e-05
5.22331e-05
5.14072e-05
5.05578e-05
4.96814e-05
4.87766e-05
4.78458e-05
4.68921e-05
4.59171e-05
4.49199e-05
4.38986e-05
4.28529e-05
4.17856e-05
4.07003e-05
3.95996e-05
3.84835e-05
3.73499e-05
3.61982e-05
3.50315e-05
3.38544e-05
3.26706e-05
3.14815e-05
3.02851e-05
2.90801e-05
2.7869e-05
2.66574e-05
2.54519e-05
2.42564e-05
2.30709e-05
2.18942e-05
2.07283e-05
1.95779e-05
1.84485e-05
1.73452e-05
1.62714e-05
1.52281e-05
1.42166e-05
1.32401e-05
1.23035e-05
1.14126e-05
1.05726e-05
9.78639e-06
9.05633e-06
8.38652e-06
7.78151e-06
7.24498e-06
6.78033e-06
6.39031e-06
6.0755e-06
5.83453e-06
5.66537e-06
5.56621e-06
5.53514e-06
5.56746e-06
5.65517e-06
5.80535e-06
6.02402e-06
3.74862e-05
3.98727e-05
4.29261e-05
4.64734e-05
5.02033e-05
5.38626e-05
5.73165e-05
6.05124e-05
6.34339e-05
6.60725e-05
6.84435e-05
7.05646e-05
7.24444e-05
7.41072e-05
7.55731e-05
7.68564e-05
7.79789e-05
7.89518e-05
7.97813e-05
8.04795e-05
8.10555e-05
8.1519e-05
8.18798e-05
8.21467e-05
8.23282e-05
8.24318e-05
8.24653e-05
8.24354e-05
8.2347e-05
8.22071e-05
8.20231e-05
8.17987e-05
8.15392e-05
8.12497e-05
8.09307e-05
8.05853e-05
8.02196e-05
7.98353e-05
7.94325e-05
7.90158e-05
7.8589e-05
7.81526e-05
7.77083e-05
7.72596e-05
7.68111e-05
7.63662e-05
7.59261e-05
7.54918e-05
7.50654e-05
7.46471e-05
7.42339e-05
7.38242e-05
7.34221e-05
7.30318e-05
7.26519e-05
7.22809e-05
7.19212e-05
7.1575e-05
7.12414e-05
7.09165e-05
7.05977e-05
7.02869e-05
6.99862e-05
6.96951e-05
6.94112e-05
6.9132e-05
6.88575e-05
6.85886e-05
6.83224e-05
6.80546e-05
6.77847e-05
6.75156e-05
6.72469e-05
6.69741e-05
6.6693e-05
6.64046e-05
6.61126e-05
6.5818e-05
6.55165e-05
6.52023e-05
6.48727e-05
6.45298e-05
6.41768e-05
6.38131e-05
6.34343e-05
6.30377e-05
6.26256e-05
6.22007e-05
6.17607e-05
6.12992e-05
6.08122e-05
6.03005e-05
5.97687e-05
5.92201e-05
5.86538e-05
5.80652e-05
5.74506e-05
5.68089e-05
5.6142e-05
5.54518e-05
5.47373e-05
5.39956e-05
5.32257e-05
5.24304e-05
5.16137e-05
5.0776e-05
4.99147e-05
4.90273e-05
4.81139e-05
4.71775e-05
4.62199e-05
4.5241e-05
4.42399e-05
4.3216e-05
4.21703e-05
4.11059e-05
4.00261e-05
3.89316e-05
3.78216e-05
3.66947e-05
3.55516e-05
3.4397e-05
3.32351e-05
3.20673e-05
3.08931e-05
2.97117e-05
2.85239e-05
2.73332e-05
2.61449e-05
2.49632e-05
2.37912e-05
2.26296e-05
2.14777e-05
2.03373e-05
1.92137e-05
1.81129e-05
1.70394e-05
1.59953e-05
1.49807e-05
1.39967e-05
1.30467e-05
1.21366e-05
1.12723e-05
1.04583e-05
9.69677e-06
8.98906e-06
8.33838e-06
7.74974e-06
7.22815e-06
6.77697e-06
6.39733e-06
6.08853e-06
5.84934e-06
5.67875e-06
5.57661e-06
5.54371e-06
5.5784e-06
5.67617e-06
5.85292e-06
6.12288e-06
4.42031e-05
4.60117e-05
4.82964e-05
5.09921e-05
5.39335e-05
5.69252e-05
5.98367e-05
6.26047e-05
6.51863e-05
6.75579e-05
6.9719e-05
7.16676e-05
7.34161e-05
7.49798e-05
7.63664e-05
7.75923e-05
7.8671e-05
7.96092e-05
8.04157e-05
8.10976e-05
8.16626e-05
8.21199e-05
8.248e-05
8.27521e-05
8.29409e-05
8.3053e-05
8.30972e-05
8.30786e-05
8.30038e-05
8.28792e-05
8.27094e-05
8.25004e-05
8.22561e-05
8.19782e-05
8.16701e-05
8.13372e-05
8.0982e-05
8.06056e-05
8.02108e-05
7.98018e-05
7.93802e-05
7.89457e-05
7.85026e-05
7.80564e-05
7.76099e-05
7.71644e-05
7.67207e-05
7.62817e-05
7.58503e-05
7.54243e-05
7.50002e-05
7.45796e-05
7.41673e-05
7.37641e-05
7.33677e-05
7.29792e-05
7.26027e-05
7.22387e-05
7.18843e-05
7.15369e-05
7.11959e-05
7.08632e-05
7.05389e-05
7.02201e-05
6.99056e-05
6.95972e-05
6.92966e-05
6.90019e-05
6.87069e-05
6.84079e-05
6.81067e-05
6.78062e-05
6.75047e-05
6.71989e-05
6.68866e-05
6.65685e-05
6.62459e-05
6.59183e-05
6.55828e-05
6.52355e-05
6.48749e-05
6.45021e-05
6.41181e-05
6.37211e-05
6.33088e-05
6.28818e-05
6.24422e-05
6.19895e-05
6.15188e-05
6.10249e-05
6.05073e-05
5.99694e-05
5.94142e-05
5.8842e-05
5.82501e-05
5.76349e-05
5.69956e-05
5.63325e-05
5.56467e-05
5.49377e-05
5.4203e-05
5.34415e-05
5.26546e-05
5.18458e-05
5.10174e-05
5.0168e-05
4.92942e-05
4.83954e-05
4.74731e-05
4.65303e-05
4.55684e-05
4.45855e-05
4.35801e-05
4.25528e-05
4.15059e-05
4.04436e-05
3.93685e-05
3.82795e-05
3.71744e-05
3.60527e-05
3.49167e-05
3.3772e-05
3.2623e-05
3.14696e-05
3.03093e-05
2.91414e-05
2.79683e-05
2.67952e-05
2.56273e-05
2.44673e-05
2.33165e-05
2.21755e-05
2.10451e-05
1.9928e-05
1.88291e-05
1.7754e-05
1.67064e-05
1.56872e-05
1.46965e-05
1.37363e-05
1.28108e-05
1.19251e-05
1.10842e-05
1.02921e-05
9.55082e-06
8.86174e-06
8.22794e-06
7.65415e-06
7.14532e-06
6.70522e-06
6.33458e-06
6.03124e-06
5.79364e-06
5.62267e-06
5.52051e-06
5.48951e-06
5.52971e-06
5.63875e-06
5.83906e-06
6.14999e-06
4.99423e-05
5.13687e-05
5.31457e-05
5.52486e-05
5.75963e-05
6.00496e-05
6.25001e-05
6.48739e-05
6.71301e-05
6.92414e-05
7.11842e-05
7.29585e-05
7.45673e-05
7.60157e-05
7.73154e-05
7.84734e-05
7.94953e-05
8.03888e-05
8.11612e-05
8.18178e-05
8.23647e-05
8.28094e-05
8.31621e-05
8.34307e-05
8.36195e-05
8.37354e-05
8.37844e-05
8.37723e-05
8.37066e-05
8.35912e-05
8.34317e-05
8.32346e-05
8.30009e-05
8.27318e-05
8.24338e-05
8.21102e-05
8.17616e-05
8.13908e-05
8.10023e-05
8.05985e-05
8.01795e-05
7.97465e-05
7.93046e-05
7.88591e-05
7.84122e-05
7.79645e-05
7.7518e-05
7.70757e-05
7.6638e-05
7.62011e-05
7.57652e-05
7.53346e-05
7.49108e-05
7.4493e-05
7.40811e-05
7.36775e-05
7.32852e-05
7.29025e-05
7.2526e-05
7.21552e-05
7.17914e-05
7.14364e-05
7.10888e-05
7.07442e-05
7.04023e-05
7.00666e-05
6.97383e-05
6.94136e-05
6.90879e-05
6.87599e-05
6.84315e-05
6.81018e-05
6.77676e-05
6.74275e-05
6.70831e-05
6.67361e-05
6.63851e-05
6.60267e-05
6.56576e-05
6.52765e-05
6.48849e-05
6.44835e-05
6.40697e-05
6.36403e-05
6.31956e-05
6.2739e-05
6.22726e-05
6.17926e-05
6.12925e-05
6.07678e-05
6.02207e-05
5.96564e-05
5.90773e-05
5.84818e-05
5.78654e-05
5.72249e-05
5.65614e-05
5.58774e-05
5.5173e-05
5.44456e-05
5.36917e-05
5.29114e-05
5.21085e-05
5.12864e-05
5.04456e-05
4.95835e-05
4.86975e-05
4.77879e-05
4.68571e-05
4.59075e-05
4.49398e-05
4.39519e-05
4.29421e-05
4.19115e-05
4.08637e-05
3.98029e-05
3.87304e-05
3.76445e-05
3.65428e-05
3.54257e-05
3.42967e-05
3.31612e-05
3.20225e-05
3.08801e-05
2.97317e-05
2.85762e-05
2.74166e-05
2.62591e-05
2.51086e-05
2.39673e-05
2.28353e-05
2.17126e-05
2.06007e-05
1.95039e-05
1.84275e-05
1.73752e-05
1.63495e-05
1.5351e-05
1.438e-05
1.34397e-05
1.25355e-05
1.16722e-05
1.08528e-05
1.00795e-05
9.35438e-06
8.67973e-06
8.05928e-06
7.49814e-06
7.00091e-06
6.57048e-06
6.20702e-06
5.9081e-06
5.67202e-06
5.50079e-06
5.3991e-06
5.37118e-06
5.41762e-06
5.53671e-06
5.75493e-06
6.09487e-06
5.49854e-05
5.61433e-05
5.7569e-05
5.92496e-05
6.1144e-05
6.31687e-05
6.52275e-05
6.72561e-05
6.92163e-05
7.10711e-05
7.2804e-05
7.44065e-05
7.5871e-05
7.72019e-05
7.84069e-05
7.94868e-05
8.04445e-05
8.12853e-05
8.20138e-05
8.26357e-05
8.31568e-05
8.35838e-05
8.39224e-05
8.41802e-05
8.43635e-05
8.44768e-05
8.45256e-05
8.45168e-05
8.44554e-05
8.43457e-05
8.41937e-05
8.40029e-05
8.37747e-05
8.3513e-05
8.32223e-05
8.29041e-05
8.25597e-05
8.21936e-05
8.1809e-05
8.14063e-05
8.09875e-05
8.05556e-05
8.01148e-05
7.9669e-05
7.92193e-05
7.87678e-05
7.83185e-05
7.78723e-05
7.7426e-05
7.6978e-05
7.65319e-05
7.60908e-05
7.56534e-05
7.52196e-05
7.47924e-05
7.43744e-05
7.3966e-05
7.35643e-05
7.31665e-05
7.27736e-05
7.23877e-05
7.20085e-05
7.16345e-05
7.12634e-05
7.08967e-05
7.05369e-05
7.01817e-05
6.98263e-05
6.94691e-05
6.91121e-05
6.87561e-05
6.83976e-05
6.80323e-05
6.76601e-05
6.72843e-05
6.69073e-05
6.6527e-05
6.61384e-05
6.57377e-05
6.53251e-05
6.49032e-05
6.44721e-05
6.40278e-05
6.35676e-05
6.30934e-05
6.26093e-05
6.21156e-05
6.16068e-05
6.1077e-05
6.05237e-05
5.995e-05
5.93607e-05
5.87571e-05
5.81368e-05
5.74958e-05
5.68318e-05
5.61465e-05
5.54426e-05
5.47191e-05
5.39725e-05
5.31998e-05
5.24027e-05
5.15852e-05
5.075e-05
4.98959e-05
4.90199e-05
4.81214e-05
4.72018e-05
4.62632e-05
4.5307e-05
4.43327e-05
4.33381e-05
4.23231e-05
4.12894e-05
4.02411e-05
3.91816e-05
3.81106e-05
3.70253e-05
3.5925e-05
3.48115e-05
3.36894e-05
3.2563e-05
3.14335e-05
3.02994e-05
2.91598e-05
2.80151e-05
2.68682e-05
2.57248e-05
2.45896e-05
2.34641e-05
2.23481e-05
2.12415e-05
2.01465e-05
1.90676e-05
1.80104e-05
1.69778e-05
1.59708e-05
1.49894e-05
1.40353e-05
1.31125e-05
1.22266e-05
1.13824e-05
1.05817e-05
9.82492e-06
9.11298e-06
8.44923e-06
7.83918e-06
7.28843e-06
6.80099e-06
6.37873e-06
6.02093e-06
5.72492e-06
5.48959e-06
5.31809e-06
5.21646e-06
5.19048e-06
5.24123e-06
5.36709e-06
5.59651e-06
5.95378e-06
5.95216e-05
6.04832e-05
6.16489e-05
6.30159e-05
6.45693e-05
6.62434e-05
6.79737e-05
6.9707e-05
7.13966e-05
7.3017e-05
7.45499e-05
7.5982e-05
7.73054e-05
7.85192e-05
7.96235e-05
8.06191e-05
8.15075e-05
8.22898e-05
8.29686e-05
8.35483e-05
8.40374e-05
8.44399e-05
8.47584e-05
8.50005e-05
8.51722e-05
8.5277e-05
8.53214e-05
8.53106e-05
8.52493e-05
8.51431e-05
8.49947e-05
8.48057e-05
8.45804e-05
8.43233e-05
8.40357e-05
8.37191e-05
8.33776e-05
8.30146e-05
8.26309e-05
8.2227e-05
8.18066e-05
8.13743e-05
8.09334e-05
8.04855e-05
8.00321e-05
7.95771e-05
7.91241e-05
7.86706e-05
7.82138e-05
7.77557e-05
7.72999e-05
7.68468e-05
7.63949e-05
7.59458e-05
7.55039e-05
7.50706e-05
7.46444e-05
7.42225e-05
7.3804e-05
7.33909e-05
7.29839e-05
7.25804e-05
7.21786e-05
7.17805e-05
7.13891e-05
7.10045e-05
7.0622e-05
7.02375e-05
6.98517e-05
6.94665e-05
6.9081e-05
6.86916e-05
6.82958e-05
6.78943e-05
6.74894e-05
6.70826e-05
6.66714e-05
6.62512e-05
6.58201e-05
6.53789e-05
6.49285e-05
6.44668e-05
6.39908e-05
6.35005e-05
6.29996e-05
6.24902e-05
6.19693e-05
6.14308e-05
6.08709e-05
6.02901e-05
5.96919e-05
5.90791e-05
5.84513e-05
5.78055e-05
5.71394e-05
5.6453e-05
5.57482e-05
5.50255e-05
5.42828e-05
5.35163e-05
5.27251e-05
5.19124e-05
5.10814e-05
5.02329e-05
4.93649e-05
4.84751e-05
4.7564e-05
4.66345e-05
4.56884e-05
4.47256e-05
4.37443e-05
4.27426e-05
4.17214e-05
4.06846e-05
3.96357e-05
3.85766e-05
3.75059e-05
3.64204e-05
3.53202e-05
3.42096e-05
3.30936e-05
3.19751e-05
3.08537e-05
2.97268e-05
2.8594e-05
2.74579e-05
2.63224e-05
2.51921e-05
2.40705e-05
2.29585e-05
2.18559e-05
2.0763e-05
1.96829e-05
1.86205e-05
1.75803e-05
1.6564e-05
1.5572e-05
1.46051e-05
1.36658e-05
1.27588e-05
1.18895e-05
1.10614e-05
1.02754e-05
9.53166e-06
8.83058e-06
8.17558e-06
7.57352e-06
7.0312e-06
6.55197e-06
6.13598e-06
5.78148e-06
5.48641e-06
5.25062e-06
5.0783e-06
4.97603e-06
4.94997e-06
5.00149e-06
5.12933e-06
5.3627e-06
5.72642e-06
6.36863e-05
6.44889e-05
6.54531e-05
6.65855e-05
6.78666e-05
6.92565e-05
7.07134e-05
7.21852e-05
7.36399e-05
7.50511e-05
7.63957e-05
7.76658e-05
7.88533e-05
7.99498e-05
8.09516e-05
8.18594e-05
8.26729e-05
8.33917e-05
8.40162e-05
8.45511e-05
8.50018e-05
8.53723e-05
8.56664e-05
8.58881e-05
8.6043e-05
8.61358e-05
8.61714e-05
8.6154e-05
8.60894e-05
8.59822e-05
8.58327e-05
8.5643e-05
8.54191e-05
8.51627e-05
8.48741e-05
8.45572e-05
8.42163e-05
8.38526e-05
8.34669e-05
8.30606e-05
8.2638e-05
8.2204e-05
8.17602e-05
8.1308e-05
8.08511e-05
8.03932e-05
7.99341e-05
7.94706e-05
7.90032e-05
7.85355e-05
7.80684e-05
7.76012e-05
7.71346e-05
7.66714e-05
7.62155e-05
7.57663e-05
7.53209e-05
7.48782e-05
7.44392e-05
7.40057e-05
7.35766e-05
7.31483e-05
7.27207e-05
7.22978e-05
7.18815e-05
7.14696e-05
7.10581e-05
7.06457e-05
7.02337e-05
6.98215e-05
6.9406e-05
6.89846e-05
6.85578e-05
6.81278e-05
6.76957e-05
6.72602e-05
6.68177e-05
6.63657e-05
6.59048e-05
6.54363e-05
6.4958e-05
6.44657e-05
6.39584e-05
6.34394e-05
6.29128e-05
6.23784e-05
6.18304e-05
6.12626e-05
6.06736e-05
6.00662e-05
5.94444e-05
5.8809e-05
5.81573e-05
5.74864e-05
5.67958e-05
5.60879e-05
5.53643e-05
5.46233e-05
5.38611e-05
5.30749e-05
5.22661e-05
5.14384e-05
5.0594e-05
4.97316e-05
4.88495e-05
4.79464e-05
4.70238e-05
4.60849e-05
4.51309e-05
4.41605e-05
4.31716e-05
4.21626e-05
4.11357e-05
4.00957e-05
3.90457e-05
3.79858e-05
3.69137e-05
3.58272e-05
3.47276e-05
3.36198e-05
3.25088e-05
3.13965e-05
3.02813e-05
2.91605e-05
2.80339e-05
2.69052e-05
2.57794e-05
2.46609e-05
2.35513e-05
2.24505e-05
2.13588e-05
2.02776e-05
1.92108e-05
1.81633e-05
1.71383e-05
1.61359e-05
1.51561e-05
1.4201e-05
1.32744e-05
1.23816e-05
1.1527e-05
1.07125e-05
9.93811e-06
9.20371e-06
8.51058e-06
7.86271e-06
7.26735e-06
6.73147e-06
6.25816e-06
5.84638e-06
5.49316e-06
5.1967e-06
4.95864e-06
4.78421e-06
4.68003e-06
4.65158e-06
4.69996e-06
4.82433e-06
5.05416e-06
5.41417e-06
6.75623e-05
6.82381e-05
6.90407e-05
6.99793e-05
7.10459e-05
7.22074e-05
7.34269e-05
7.4675e-05
7.59234e-05
7.71448e-05
7.83206e-05
7.94409e-05
8.04966e-05
8.14774e-05
8.23784e-05
8.31973e-05
8.3932e-05
8.45824e-05
8.51504e-05
8.56373e-05
8.60447e-05
8.6379e-05
8.6643e-05
8.68392e-05
8.69735e-05
8.70504e-05
8.70734e-05
8.70469e-05
8.69758e-05
8.6862e-05
8.67071e-05
8.65155e-05
8.62893e-05
8.60293e-05
8.57382e-05
8.54198e-05
8.50762e-05
8.4708e-05
8.43174e-05
8.39073e-05
8.3482e-05
8.30444e-05
8.25952e-05
8.21378e-05
8.16776e-05
8.12149e-05
8.07468e-05
8.02726e-05
7.97954e-05
7.93173e-05
7.88368e-05
7.83545e-05
7.78733e-05
7.73966e-05
7.69261e-05
7.64598e-05
7.59949e-05
7.55325e-05
7.5074e-05
7.4619e-05
7.41653e-05
7.37113e-05
7.32595e-05
7.28137e-05
7.23727e-05
7.19326e-05
7.1492e-05
7.10523e-05
7.06141e-05
7.01746e-05
6.97294e-05
6.92771e-05
6.882e-05
6.83615e-05
6.79017e-05
6.74372e-05
6.69642e-05
6.64822e-05
6.59931e-05
6.54969e-05
6.49895e-05
6.44669e-05
6.39305e-05
6.3385e-05
6.28332e-05
6.22724e-05
6.16963e-05
6.11e-05
6.04839e-05
5.98519e-05
5.92069e-05
5.85483e-05
5.78726e-05
5.71775e-05
5.64643e-05
5.57361e-05
5.49937e-05
5.42335e-05
5.34513e-05
5.26464e-05
5.18212e-05
5.0979e-05
5.01206e-05
4.92438e-05
4.83473e-05
4.74316e-05
4.64988e-05
4.55511e-05
4.4589e-05
4.36102e-05
4.26124e-05
4.15958e-05
4.05638e-05
3.95209e-05
3.84693e-05
3.74074e-05
3.63326e-05
3.52441e-05
3.41453e-05
3.3041e-05
3.19344e-05
3.08264e-05
2.97152e-05
2.85987e-05
2.74778e-05
2.63565e-05
2.52396e-05
2.41309e-05
2.30313e-05
2.19397e-05
2.08567e-05
1.97856e-05
1.87308e-05
1.76967e-05
1.66848e-05
1.56943e-05
1.47251e-05
1.37799e-05
1.28638e-05
1.19827e-05
1.11405e-05
1.03373e-05
9.57175e-06
8.84409e-06
8.15663e-06
7.51415e-06
6.924e-06
6.39276e-06
5.92277e-06
5.51226e-06
5.158e-06
4.85843e-06
4.61638e-06
4.43798e-06
4.32978e-06
4.29623e-06
4.33759e-06
4.45326e-06
4.67239e-06
5.01938e-06
7.12084e-05
7.1784e-05
7.24489e-05
7.32269e-05
7.41194e-05
7.50882e-05
7.61124e-05
7.71692e-05
7.82333e-05
7.92859e-05
8.03097e-05
8.12904e-05
8.22192e-05
8.30881e-05
8.38905e-05
8.46204e-05
8.52752e-05
8.5856e-05
8.63642e-05
8.67986e-05
8.71607e-05
8.74553e-05
8.76847e-05
8.7852e-05
8.79618e-05
8.80181e-05
8.80253e-05
8.79877e-05
8.79059e-05
8.77818e-05
8.762e-05
8.74226e-05
8.71895e-05
8.69232e-05
8.66276e-05
8.63049e-05
8.59559e-05
8.55809e-05
8.51835e-05
8.47684e-05
8.43383e-05
8.38944e-05
8.34389e-05
8.29772e-05
8.25122e-05
8.2041e-05
8.15622e-05
8.10781e-05
8.05908e-05
8.01e-05
7.96049e-05
7.91075e-05
7.86123e-05
7.81218e-05
7.76353e-05
7.71503e-05
7.66662e-05
7.61852e-05
7.57077e-05
7.52303e-05
7.4751e-05
7.42718e-05
7.37966e-05
7.33272e-05
7.28602e-05
7.23925e-05
7.19249e-05
7.14589e-05
7.09936e-05
7.0525e-05
7.00499e-05
6.95683e-05
6.9083e-05
6.85966e-05
6.81079e-05
6.76132e-05
6.71107e-05
6.66011e-05
6.60853e-05
6.55606e-05
6.50226e-05
6.447e-05
6.39066e-05
6.33366e-05
6.27598e-05
6.21716e-05
6.15666e-05
6.09424e-05
6.03013e-05
5.96465e-05
5.8979e-05
5.82966e-05
5.75963e-05
5.68779e-05
5.61439e-05
5.53967e-05
5.46349e-05
5.38543e-05
5.30521e-05
5.22292e-05
5.13886e-05
5.05322e-05
4.96594e-05
4.87679e-05
4.78573e-05
4.69294e-05
4.5987e-05
4.50311e-05
4.40605e-05
4.30723e-05
4.20652e-05
4.10408e-05
4.00038e-05
3.89584e-05
3.79044e-05
3.68395e-05
3.57612e-05
3.46705e-05
3.35721e-05
3.24709e-05
3.13681e-05
3.0263e-05
2.91539e-05
2.80403e-05
2.69245e-05
2.58103e-05
2.47018e-05
2.36015e-05
2.25092e-05
2.14243e-05
2.03487e-05
1.92866e-05
1.82428e-05
1.72205e-05
1.62198e-05
1.5239e-05
1.42785e-05
1.33421e-05
1.24352e-05
1.15635e-05
1.07305e-05
9.93585e-06
9.17708e-06
8.45417e-06
7.77054e-06
7.132e-06
6.5456e-06
6.01676e-06
5.54699e-06
5.13459e-06
4.77671e-06
4.47244e-06
4.22511e-06
4.04088e-06
3.92591e-06
3.88384e-06
3.91422e-06
4.01644e-06
4.21868e-06
4.54469e-06
7.46708e-05
7.51605e-05
7.5715e-05
7.63588e-05
7.70953e-05
7.79053e-05
7.87672e-05
7.96579e-05
8.05617e-05
8.14649e-05
8.23498e-05
8.32009e-05
8.40105e-05
8.47716e-05
8.54756e-05
8.61173e-05
8.66942e-05
8.72052e-05
8.76497e-05
8.80288e-05
8.83434e-05
8.85948e-05
8.8787e-05
8.89229e-05
8.90049e-05
8.90378e-05
8.90267e-05
8.89727e-05
8.88763e-05
8.8741e-05
8.85697e-05
8.83624e-05
8.81198e-05
8.78456e-05
8.75426e-05
8.72118e-05
8.68539e-05
8.64702e-05
8.60656e-05
8.56441e-05
8.5206e-05
8.47538e-05
8.42929e-05
8.38265e-05
8.33534e-05
8.28714e-05
8.2382e-05
8.18877e-05
8.13884e-05
8.08833e-05
8.03732e-05
7.98614e-05
7.93527e-05
7.88473e-05
7.83431e-05
7.78391e-05
7.73365e-05
7.68369e-05
7.63386e-05
7.58376e-05
7.53339e-05
7.48317e-05
7.43337e-05
7.38388e-05
7.33445e-05
7.285e-05
7.23571e-05
7.18657e-05
7.13726e-05
7.08739e-05
7.03686e-05
6.98586e-05
6.93465e-05
6.88327e-05
6.83145e-05
6.77894e-05
6.72584e-05
6.67228e-05
6.61806e-05
6.56267e-05
6.50583e-05
6.4477e-05
6.38879e-05
6.32938e-05
6.26915e-05
6.20753e-05
6.14417e-05
6.07909e-05
6.0126e-05
5.94494e-05
5.87595e-05
5.8053e-05
5.73284e-05
5.65877e-05
5.58341e-05
5.5068e-05
5.42862e-05
5.34847e-05
5.26628e-05
5.18229e-05
5.09672e-05
5.00964e-05
4.92087e-05
4.83026e-05
4.73787e-05
4.64394e-05
4.54875e-05
4.45231e-05
4.35431e-05
4.25447e-05
4.15279e-05
4.04963e-05
3.94548e-05
3.84062e-05
3.73489e-05
3.62799e-05
3.51979e-05
3.41054e-05
3.30073e-05
3.19077e-05
3.08071e-05
2.97036e-05
2.85955e-05
2.74839e-05
2.63724e-05
2.5265e-05
2.4164e-05
2.30702e-05
2.19831e-05
2.09028e-05
1.98331e-05
1.87794e-05
1.77459e-05
1.6734e-05
1.57422e-05
1.4769e-05
1.38153e-05
1.28859e-05
1.19868e-05
1.11229e-05
1.02969e-05
9.50787e-06
8.75357e-06
8.03394e-06
7.35278e-06
6.71644e-06
6.13185e-06
5.60322e-06
5.13084e-06
4.7133e-06
4.34903e-06
4.03828e-06
3.78445e-06
3.59275e-06
3.46824e-06
3.41388e-06
3.42908e-06
3.51346e-06
3.69366e-06
3.99234e-06
7.79812e-05
7.84005e-05
7.88644e-05
7.93907e-05
7.99978e-05
8.06717e-05
8.13901e-05
8.21398e-05
8.29048e-05
8.36721e-05
8.44285e-05
8.51605e-05
8.58591e-05
8.65158e-05
8.71241e-05
8.76797e-05
8.81799e-05
8.86205e-05
8.90009e-05
8.93234e-05
8.95868e-05
8.97926e-05
8.99456e-05
9.00468e-05
9.00995e-05
9.01082e-05
9.00749e-05
9.00002e-05
8.98872e-05
8.97381e-05
8.9553e-05
8.93326e-05
8.90793e-05
8.87954e-05
8.84822e-05
8.81398e-05
8.77702e-05
8.73768e-05
8.69639e-05
8.65329e-05
8.60846e-05
8.56246e-05
8.51581e-05
8.46841e-05
8.42003e-05
8.37074e-05
8.32076e-05
8.27016e-05
8.2188e-05
8.16672e-05
8.11423e-05
8.06171e-05
8.00941e-05
7.95723e-05
7.90496e-05
7.85277e-05
7.80078e-05
7.74887e-05
7.69674e-05
7.6442e-05
7.59154e-05
7.53914e-05
7.48699e-05
7.43487e-05
7.38273e-05
7.33072e-05
7.27896e-05
7.22722e-05
7.17508e-05
7.12223e-05
7.06876e-05
7.015e-05
6.96113e-05
6.90694e-05
6.85216e-05
6.79676e-05
6.74097e-05
6.6848e-05
6.6278e-05
6.56945e-05
6.50969e-05
6.44893e-05
6.38759e-05
6.32569e-05
6.26278e-05
6.19833e-05
6.13222e-05
6.06465e-05
5.99592e-05
5.92606e-05
5.85476e-05
5.78169e-05
5.7069e-05
5.63074e-05
5.55345e-05
5.47488e-05
5.39464e-05
5.31243e-05
5.22837e-05
5.14276e-05
5.0557e-05
4.9671e-05
4.87679e-05
4.7847e-05
4.69103e-05
4.59607e-05
4.49995e-05
4.40255e-05
4.3035e-05
4.20257e-05
4.09996e-05
3.99614e-05
3.89157e-05
3.7863e-05
3.68008e-05
3.57267e-05
3.4641e-05
3.35469e-05
3.2449e-05
3.13499e-05
3.02492e-05
2.91454e-05
2.80378e-05
2.69279e-05
2.58202e-05
2.47186e-05
2.36236e-05
2.25344e-05
2.14503e-05
2.03733e-05
1.93088e-05
1.82627e-05
1.72381e-05
1.62347e-05
1.52499e-05
1.42821e-05
1.33334e-05
1.24094e-05
1.15164e-05
1.06587e-05
9.83775e-06
9.05227e-06
8.30025e-06
7.58211e-06
6.90199e-06
6.2663e-06
5.68142e-06
5.15044e-06
4.67283e-06
4.24745e-06
3.87423e-06
3.55484e-06
3.29276e-06
3.09182e-06
2.95533e-06
2.88531e-06
2.88137e-06
2.94387e-06
3.09777e-06
3.36411e-06
8.11756e-05
8.15293e-05
8.19105e-05
8.23436e-05
8.28426e-05
8.33936e-05
8.39892e-05
8.46162e-05
8.52569e-05
8.59007e-05
8.6539e-05
8.71603e-05
8.77533e-05
8.83107e-05
8.88276e-05
8.93e-05
8.97228e-05
9.00933e-05
9.04109e-05
9.06748e-05
9.08858e-05
9.10455e-05
9.11559e-05
9.12205e-05
9.1243e-05
9.12244e-05
9.11656e-05
9.10694e-05
9.09381e-05
9.07714e-05
9.05692e-05
9.03336e-05
9.0067e-05
8.97706e-05
8.94439e-05
8.90873e-05
8.8705e-05
8.83011e-05
8.78768e-05
8.74336e-05
8.69757e-05
8.65086e-05
8.60338e-05
8.55487e-05
8.50535e-05
8.45501e-05
8.4039e-05
8.35193e-05
8.299e-05
8.24534e-05
8.19142e-05
8.13753e-05
8.08366e-05
8.02966e-05
7.97558e-05
7.9217e-05
7.86798e-05
7.81399e-05
7.75948e-05
7.70462e-05
7.64978e-05
7.59514e-05
7.54051e-05
7.48575e-05
7.43103e-05
7.37658e-05
7.32232e-05
7.26788e-05
7.21284e-05
7.15709e-05
7.10086e-05
7.04444e-05
6.98781e-05
6.93069e-05
6.87301e-05
6.81493e-05
6.75659e-05
6.69774e-05
6.63781e-05
6.57648e-05
6.51398e-05
6.45077e-05
6.38706e-05
6.32261e-05
6.25692e-05
6.18966e-05
6.12093e-05
6.05104e-05
5.98014e-05
5.90802e-05
5.8343e-05
5.75883e-05
5.68184e-05
5.60371e-05
5.52449e-05
5.44385e-05
5.36148e-05
5.27729e-05
5.19149e-05
5.10432e-05
5.01575e-05
4.92558e-05
4.83368e-05
4.74012e-05
4.64522e-05
4.54924e-05
4.45217e-05
4.3537e-05
4.25347e-05
4.15143e-05
4.04796e-05
3.94354e-05
3.83851e-05
3.73274e-05
3.6259e-05
3.51789e-05
3.40892e-05
3.29935e-05
3.18952e-05
3.07953e-05
2.96927e-05
2.85869e-05
2.74786e-05
2.63704e-05
2.52664e-05
2.41691e-05
2.30779e-05
2.19911e-05
2.09087e-05
1.98343e-05
1.87744e-05
1.77348e-05
1.67172e-05
1.57198e-05
1.47396e-05
1.37755e-05
1.28305e-05
1.19105e-05
1.1022e-05
1.01686e-05
9.35092e-06
8.5668e-06
7.81484e-06
7.09648e-06
6.41602e-06
5.77935e-06
5.19192e-06
4.65598e-06
4.17067e-06
3.73528e-06
3.35105e-06
3.02081e-06
2.74815e-06
2.53567e-06
2.38483e-06
2.29638e-06
2.27009e-06
2.30734e-06
2.43141e-06
2.66143e-06
8.42883e-05
8.45701e-05
8.48802e-05
8.52327e-05
8.56352e-05
8.60831e-05
8.65693e-05
8.70837e-05
8.76129e-05
8.81457e-05
8.86749e-05
8.91911e-05
8.96846e-05
9.01488e-05
9.0579e-05
9.09692e-05
9.13161e-05
9.16182e-05
9.18716e-05
9.20768e-05
9.22358e-05
9.23478e-05
9.2415e-05
9.24428e-05
9.2432e-05
9.23827e-05
9.22972e-05
9.2178e-05
9.20251e-05
9.18378e-05
9.1617e-05
9.13649e-05
9.10826e-05
9.07697e-05
9.04262e-05
9.00543e-05
8.96588e-05
8.92416e-05
8.88028e-05
8.83472e-05
8.78807e-05
8.74049e-05
8.69188e-05
8.64215e-05
8.59147e-05
8.53997e-05
8.48752e-05
8.43399e-05
8.37946e-05
8.3243e-05
8.26898e-05
8.2136e-05
8.158e-05
8.10221e-05
8.04645e-05
7.99088e-05
7.93521e-05
7.87899e-05
7.8222e-05
7.76519e-05
7.7082e-05
7.65118e-05