/*--------------------------------*- C++ -*----------------------------------*\
  =========                 |
  \\      /  F ield         | OpenFOAM: The Open Source CFD Toolbox
   \\    /   O peration     | Website:  https://openfoam.org
    \\  /    A nd           | Version:  7
     \\/     M anipulation  |
\*---------------------------------------------------------------------------*/
FoamFile
{
    version     2.0;
    format      ascii;
    class       surfaceScalarField;
    location    "0.225";
    object      phi;
}
// * * * * * * * * * * * * * * * * * * * * * * * * * * * * * * * * * * * * * //

dimensions      [0 3 -1 0 0 0 0];

internalField   nonuniform List<scalar> 
101920
(
-1.94094e-14
-3.4318e-15
-6.06159e-13
5.85596e-13
-1.52157e-12
9.15377e-13
-2.27205e-12
7.55515e-13
-2.69373e-12
4.24957e-13
-2.77196e-12
7.54524e-14
-2.53301e-12
-2.35981e-13
-2.02003e-12
-5.15415e-13
-1.25409e-12
-7.65958e-13
-2.58905e-13
-9.99075e-13
9.5538e-13
-1.21302e-12
2.36762e-12
-1.4122e-12
3.96951e-12
-1.59906e-12
5.7426e-12
-1.77852e-12
7.68418e-12
-1.94012e-12
9.77591e-12
-2.09558e-12
1.20137e-11
-2.23492e-12
1.43808e-11
-2.36782e-12
1.6872e-11
-2.48876e-12
1.94738e-11
-2.60071e-12
2.21764e-11
-2.70451e-12
2.49751e-11
-2.79633e-12
2.78549e-11
-2.87944e-12
3.08107e-11
-2.95522e-12
3.38332e-11
-3.01871e-12
3.69101e-11
-3.0786e-12
4.00389e-11
-3.12824e-12
4.32096e-11
-3.16896e-12
4.64135e-11
-3.20538e-12
4.96468e-11
-3.23029e-12
5.28981e-11
-3.24955e-12
5.6162e-11
-3.26448e-12
5.94351e-11
-3.27018e-12
6.2707e-11
-3.27128e-12
6.59748e-11
-3.26766e-12
6.9234e-11
-3.25564e-12
7.24759e-11
-3.24095e-12
7.56962e-11
-3.22139e-12
7.8893e-11
-3.19524e-12
8.20584e-11
-3.1645e-12
8.51885e-11
-3.13173e-12
8.82818e-11
-3.09184e-12
9.13317e-11
-3.04967e-12
9.43333e-11
-3.005e-12
9.72869e-11
-2.95464e-12
1.00187e-10
-2.90028e-12
1.03029e-10
-2.84394e-12
1.05813e-10
-2.78525e-12
1.08536e-10
-2.72176e-12
1.11193e-10
-2.65695e-12
1.13781e-10
-2.5901e-12
1.16301e-10
-2.51762e-12
1.18748e-10
-2.44408e-12
1.21121e-10
-2.37164e-12
1.23419e-10
-2.29658e-12
1.25639e-10
-2.21902e-12
1.27778e-10
-2.14141e-12
1.29837e-10
-2.06149e-12
1.31814e-10
-1.97759e-12
1.33708e-10
-1.89328e-12
1.35515e-10
-1.80982e-12
1.37238e-10
-1.72352e-12
1.38873e-10
-1.63447e-12
1.40419e-10
-1.54544e-12
1.41877e-10
-1.45621e-12
1.43246e-10
-1.36584e-12
1.44524e-10
-1.27593e-12
1.45709e-10
-1.18707e-12
1.46803e-10
-1.09657e-12
1.47805e-10
-1.00295e-12
1.48712e-10
-9.07913e-13
1.49525e-10
-8.13144e-13
1.50244e-10
-7.18449e-13
1.5087e-10
-6.23659e-13
1.51401e-10
-5.29617e-13
1.51837e-10
-4.36337e-13
1.52178e-10
-3.42136e-13
1.52424e-10
-2.46243e-13
1.52574e-10
-1.50214e-13
1.52628e-10
-5.51443e-14
1.52588e-10
3.99527e-14
1.52453e-10
1.35513e-13
1.52223e-10
2.30773e-13
1.51896e-10
3.25435e-13
1.51475e-10
4.20172e-13
1.5096e-10
5.15519e-13
1.5035e-10
6.10449e-13
1.49645e-10
7.04257e-13
1.48847e-10
7.97632e-13
1.47956e-10
8.91406e-13
1.46971e-10
9.85034e-13
1.45893e-10
1.07776e-12
1.44723e-10
1.16965e-12
1.43462e-10
1.26121e-12
1.4211e-10
1.35225e-12
1.40667e-10
1.44221e-12
1.39134e-10
1.53106e-12
1.37515e-10
1.61943e-12
1.35807e-10
1.70725e-12
1.34014e-10
1.79362e-12
1.32135e-10
1.87839e-12
1.30172e-10
1.96226e-12
1.28126e-10
2.04554e-12
1.25998e-10
2.12783e-12
1.23791e-10
2.20819e-12
1.21505e-10
2.28608e-12
1.19143e-10
2.3619e-12
1.16707e-10
2.43599e-12
1.14198e-10
2.50811e-12
1.11619e-10
2.57806e-12
1.08973e-10
2.64579e-12
1.06261e-10
2.71107e-12
1.03487e-10
2.77367e-12
1.00653e-10
2.8335e-12
9.77612e-11
2.89071e-12
9.48162e-11
2.94528e-12
9.18211e-11
2.99647e-12
8.87786e-11
3.04343e-12
8.56927e-11
3.08596e-12
8.25678e-11
3.1243e-12
7.9408e-11
3.15891e-12
7.62174e-11
3.1898e-12
7.30008e-11
3.21621e-12
6.97628e-11
3.23747e-12
6.65089e-11
3.25359e-12
6.32446e-11
3.26444e-12
5.99754e-11
3.26955e-12
5.6707e-11
3.26855e-12
5.34463e-11
3.26112e-12
5.02001e-11
3.24678e-12
4.69743e-11
3.22551e-12
4.37755e-11
3.19755e-12
4.06112e-11
3.1627e-12
3.74896e-11
3.12061e-12
3.44191e-11
3.07091e-12
3.14082e-11
3.01259e-12
2.84652e-11
2.94443e-12
2.55988e-11
2.86644e-12
2.28184e-11
2.77918e-12
2.01344e-11
2.68277e-12
1.75564e-11
2.57703e-12
1.50949e-11
2.46145e-12
1.27607e-11
2.33497e-12
1.0565e-11
2.19669e-12
8.51884e-12
2.04661e-12
6.63337e-12
1.88529e-12
4.91991e-12
1.71282e-12
3.38974e-12
1.52924e-12
2.0541e-12
1.33511e-12
9.23507e-13
1.13103e-12
6.82609e-15
9.17489e-13
-6.88955e-13
6.96048e-13
-1.15946e-12
4.7018e-13
-1.40466e-12
2.44942e-13
-1.43245e-12
2.76028e-14
-1.26311e-12
-1.69642e-13
-9.35904e-13
-3.27115e-13
-5.23224e-13
-4.12463e-13
-1.51747e-13
-3.71609e-13
-1.51823e-13
-2.82502e-13
2.79533e-13
-1.18587e-12
1.49082e-12
-2.41825e-12
2.14423e-12
-3.39668e-12
1.72638e-12
-3.77773e-12
8.03692e-13
-3.47858e-12
-2.27159e-13
-2.47317e-12
-1.23792e-12
-7.9231e-13
-2.19533e-12
1.53614e-12
-3.09304e-12
4.47539e-12
-3.93678e-12
8.00219e-12
-4.737e-12
1.20765e-11
-5.48957e-12
1.66745e-11
-6.20047e-12
2.17681e-11
-6.86641e-12
2.73199e-11
-7.49659e-12
3.33121e-11
-8.08214e-12
3.97054e-11
-8.63216e-12
4.64773e-11
-9.14234e-12
5.36012e-11
-9.61104e-12
6.1045e-11
-1.00481e-11
6.87871e-11
-1.04449e-11
7.67964e-11
-1.08084e-11
8.50478e-11
-1.11366e-11
9.35201e-11
-1.14261e-11
1.02182e-10
-1.16865e-11
1.11016e-10
-1.19133e-11
1.19998e-10
-1.21091e-11
1.291e-10
-1.22791e-11
1.3831e-10
-1.24154e-11
1.47601e-10
-1.25233e-11
1.56952e-10
-1.2607e-11
1.66349e-10
-1.26607e-11
1.75769e-10
-1.26923e-11
1.85194e-10
-1.27027e-11
1.94612e-10
-1.26864e-11
2.04002e-10
-1.26489e-11
2.1335e-10
-1.25928e-11
2.22644e-10
-1.25137e-11
2.31866e-10
-1.24175e-11
2.41001e-10
-1.23047e-11
2.50042e-10
-1.2172e-11
2.58974e-10
-1.20222e-11
2.67784e-10
-1.18597e-11
2.76463e-10
-1.16819e-11
2.85001e-10
-1.14887e-11
2.93385e-10
-1.12848e-11
3.01607e-10
-1.10688e-11
3.09663e-10
-1.08376e-11
3.17539e-10
-1.05973e-11
3.25227e-10
-1.03487e-11
3.32723e-10
-1.00871e-11
3.40018e-10
-9.81534e-12
3.47103e-10
-9.53684e-12
3.53977e-10
-9.2487e-12
3.60634e-10
-8.9515e-12
3.67065e-10
-8.65001e-12
3.73267e-10
-8.34324e-12
3.79237e-10
-8.02786e-12
3.84968e-10
-7.70649e-12
3.90455e-10
-7.38165e-12
3.95698e-10
-7.05181e-12
4.00693e-10
-6.7161e-12
4.05433e-10
-6.37716e-12
4.09918e-10
-6.03518e-12
4.14146e-10
-5.68746e-12
4.18114e-10
-5.33509e-12
4.21818e-10
-4.98089e-12
4.25258e-10
-4.62495e-12
4.28432e-10
-4.26595e-12
4.31336e-10
-3.90435e-12
4.33968e-10
-3.54153e-12
4.36328e-10
-3.17667e-12
4.38416e-10
-2.80872e-12
4.4023e-10
-2.43928e-12
4.41769e-10
-2.07e-12
4.43033e-10
-1.70024e-12
4.44022e-10
-1.32888e-12
4.44734e-10
-9.56833e-13
4.45167e-10
-5.85405e-13
4.45325e-10
-2.13873e-13
4.45206e-10
1.58575e-13
4.4481e-10
5.31225e-13
4.44137e-10
9.03113e-13
4.43188e-10
1.27435e-12
4.41964e-10
1.64525e-12
4.40463e-10
2.01545e-12
4.38688e-10
2.38437e-12
4.36639e-10
2.75189e-12
4.34318e-10
3.11844e-12
4.31725e-10
3.48415e-12
4.28862e-10
3.84779e-12
4.25729e-10
4.20914e-12
4.22328e-10
4.56888e-12
4.18663e-10
4.92678e-12
4.14734e-10
5.28156e-12
4.10543e-10
5.63267e-12
4.06093e-10
5.9804e-12
4.01388e-10
6.32495e-12
3.96428e-10
6.66591e-12
3.91219e-10
7.00255e-12
3.85763e-10
7.33444e-12
3.80065e-10
7.66162e-12
3.74127e-10
7.98374e-12
3.67953e-10
8.30018e-12
3.61548e-10
8.61065e-12
3.54918e-10
8.91474e-12
3.48069e-10
9.21167e-12
3.41005e-10
9.50055e-12
3.33732e-10
9.78073e-12
3.26257e-10
1.00522e-11
3.18588e-10
1.03151e-11
3.10732e-10
1.05683e-11
3.02695e-10
1.08105e-11
2.94487e-10
1.10414e-11
2.86117e-10
1.12609e-11
2.77592e-10
1.14686e-11
2.68923e-10
1.16636e-11
2.6012e-10
1.18447e-11
2.51195e-10
1.20107e-11
2.42161e-10
1.21608e-11
2.33027e-10
1.22943e-11
2.23807e-10
1.24106e-11
2.14513e-10
1.2509e-11
2.05162e-10
1.25886e-11
1.95768e-10
1.26481e-11
1.86346e-10
1.26864e-11
1.76912e-10
1.27024e-11
1.67483e-10
1.26954e-11
1.58078e-10
1.26648e-11
1.48716e-10
1.26096e-11
1.39416e-10
1.25279e-11
1.30198e-10
1.2418e-11
1.21082e-10
1.22792e-11
1.12091e-10
1.21109e-11
1.03248e-10
1.19122e-11
9.45756e-11
1.16821e-11
8.61003e-11
1.14188e-11
7.78474e-11
1.11204e-11
6.98431e-11
1.07856e-11
6.21141e-11
1.04138e-11
5.46873e-11
1.00042e-11
4.75912e-11
9.55592e-12
4.08556e-11
9.06841e-12
3.45106e-11
8.54084e-12
2.8586e-11
7.97203e-12
2.31109e-11
7.36149e-12
1.81142e-11
6.7101e-12
1.36241e-11
6.01945e-12
9.66715e-12
5.2918e-12
6.26693e-12
4.53067e-12
3.44257e-12
3.74129e-12
1.20698e-12
2.93138e-12
-4.36292e-13
2.11325e-12
-1.49689e-12
1.30569e-12
-2.00462e-12
5.35961e-13
-2.01861e-12
-1.55575e-13
-1.63715e-12
-7.09008e-13
-1.01325e-12
-1.03667e-12
-3.6769e-13
-1.01708e-12
-5.19525e-13
-3.21946e-13
6.01586e-13
-1.07621e-12
2.2432e-12
-1.94184e-12
3.01061e-12
-2.42147e-12
2.21208e-12
-2.19618e-12
5.85045e-13
-1.09671e-12
-1.32979e-12
9.56523e-13
-3.29358e-12
3.97673e-12
-5.21401e-12
7.94746e-12
-7.06559e-12
1.28453e-11
-8.83957e-12
1.86383e-11
-1.05284e-11
2.52875e-11
-1.2138e-11
3.27534e-11
-1.36636e-11
4.09906e-11
-1.51083e-11
4.99641e-11
-1.64673e-11
5.96226e-11
-1.77445e-11
6.99284e-11
-1.8939e-11
8.08371e-11
-2.00503e-11
9.23017e-11
-2.10833e-11
1.04289e-10
-2.20325e-11
1.16749e-10
-2.2906e-11
1.29642e-10
-2.37016e-11
1.42931e-10
-2.44205e-11
1.56568e-10
-2.50663e-11
1.70522e-10
-2.56396e-11
1.84752e-10
-2.61411e-11
1.99221e-10
-2.6579e-11
2.13897e-10
-2.69511e-11
2.28742e-10
-2.72581e-11
2.43722e-10
-2.75058e-11
2.58809e-10
-2.76907e-11
2.73969e-10
-2.78193e-11
2.89171e-10
-2.78956e-11
3.04391e-10
-2.79183e-11
3.19597e-10
-2.78908e-11
3.34763e-10
-2.78177e-11
3.49867e-10
-2.76953e-11
3.64884e-10
-2.75299e-11
3.79788e-10
-2.73233e-11
3.94561e-10
-2.70775e-11
4.0918e-10
-2.67911e-11
4.23625e-10
-2.64705e-11
4.37876e-10
-2.61151e-11
4.51921e-10
-2.57242e-11
4.65736e-10
-2.53056e-11
4.79307e-10
-2.48582e-11
4.92621e-10
-2.43814e-11
5.05662e-10
-2.38785e-11
5.18414e-10
-2.33516e-11
5.30868e-10
-2.27999e-11
5.43011e-10
-2.22255e-11
5.54829e-10
-2.16327e-11
5.66312e-10
-2.10209e-11
5.77454e-10
-2.03891e-11
5.88241e-10
-1.97408e-11
5.98664e-10
-1.90778e-11
6.08719e-10
-1.83985e-11
6.18397e-10
-1.77046e-11
6.27687e-10
-1.69996e-11
6.36586e-10
-1.62825e-11
6.45088e-10
-1.55526e-11
6.53187e-10
-1.48127e-11
6.60876e-10
-1.40648e-11
6.68152e-10
-1.33085e-11
6.7501e-10
-1.25438e-11
6.81445e-10
-1.17718e-11
6.87452e-10
-1.09928e-11
6.93031e-10
-1.02057e-11
6.98177e-10
-9.41182e-12
7.02887e-10
-8.61319e-12
7.07158e-10
-7.81106e-12
7.10988e-10
-7.00501e-12
7.14376e-10
-6.19523e-12
7.17319e-10
-5.38321e-12
7.19815e-10
-4.56893e-12
7.21866e-10
-3.75133e-12
7.23469e-10
-2.93127e-12
7.24621e-10
-2.11035e-12
7.25325e-10
-1.28924e-12
7.2558e-10
-4.67721e-13
7.25384e-10
3.54094e-13
7.24738e-10
1.17558e-12
7.23643e-10
1.99672e-12
7.221e-10
2.81731e-12
7.2011e-10
3.63672e-12
7.17671e-10
4.45374e-12
7.14786e-10
5.26814e-12
7.11457e-10
6.0803e-12
7.07686e-10
6.89015e-12
7.03473e-10
7.69677e-12
6.98821e-10
8.49912e-12
6.93733e-10
9.29705e-12
6.88212e-10
1.00906e-11
6.82259e-10
1.08789e-11
6.75878e-10
1.16608e-11
6.69074e-10
1.24359e-11
6.61851e-10
1.32038e-11
6.54212e-10
1.39636e-11
6.46162e-10
1.47145e-11
6.37707e-10
1.54563e-11
6.28853e-10
1.61884e-11
6.19606e-10
1.69098e-11
6.09971e-10
1.76192e-11
5.99956e-10
1.83155e-11
5.89568e-10
1.89977e-11
5.78817e-10
1.96655e-11
5.6771e-10
2.03178e-11
5.56256e-10
2.09528e-11
5.44467e-10
2.15692e-11
5.32353e-10
2.21662e-11
5.19924e-10
2.2743e-11
5.07193e-10
2.32982e-11
4.94173e-10
2.38303e-11
4.80877e-10
2.4338e-11
4.6732e-10
2.48197e-11
4.53516e-10
2.52736e-11
4.39481e-10
2.56981e-11
4.25232e-10
2.60917e-11
4.10788e-10
2.64531e-11
3.96168e-10
2.67803e-11
3.81391e-10
2.70713e-11
3.66477e-10
2.73241e-11
3.51449e-10
2.7537e-11
3.36329e-10
2.77082e-11
3.21143e-10
2.78355e-11
3.05914e-10
2.79161e-11
2.90669e-10
2.79476e-11
2.75435e-10
2.79285e-11
2.60242e-10
2.78569e-11
2.4512e-10
2.77307e-11
2.30098e-10
2.75475e-11
2.15211e-10
2.73044e-11
2.00493e-10
2.69987e-11
1.85978e-10
2.66278e-11
1.71702e-10
2.61893e-11
1.57703e-10
2.56806e-11
1.4402e-10
2.50997e-11
1.30693e-10
2.44448e-11
1.17765e-10
2.37132e-11
1.05278e-10
2.29023e-11
9.3273e-11
2.20098e-11
8.17955e-11
2.10341e-11
7.08902e-11
1.99738e-11
6.06021e-11
1.88282e-11
5.09762e-11
1.7597e-11
4.20565e-11
1.62805e-11
3.38859e-11
1.48804e-11
2.6505e-11
1.34005e-11
1.9951e-11
1.18464e-11
1.42555e-11
1.02266e-11
9.44258e-12
8.55368e-12
5.52672e-12
6.84633e-12
2.50764e-12
5.1318e-12
3.64763e-13
3.44866e-12
-9.49742e-13
1.8509e-12
-1.52069e-12
4.15125e-13
-1.47986e-12
-7.50432e-13
-1.01914e-12
-1.49771e-12
-4.03466e-13
-1.63299e-12
-9.23018e-13
-2.31533e-13
8.32185e-13
-5.94012e-13
2.61142e-12
-7.97981e-13
3.2159e-12
-4.90047e-13
1.8929e-12
6.48342e-13
-5.53854e-13
2.8194e-12
-3.49667e-12
6.13421e-12
-6.60746e-12
1.06492e-11
-9.72757e-12
1.63621e-11
-1.27844e-11
2.3272e-11
-1.57437e-11
3.13364e-11
-1.85951e-11
4.05247e-11
-2.13234e-11
5.07819e-11
-2.39245e-11
6.2067e-11
-2.639e-11
7.4319e-11
-2.87204e-11
8.74898e-11
-3.09123e-11
1.01522e-10
-3.29669e-11
1.16358e-10
-3.48871e-11
1.31946e-10
-3.66685e-11
1.48228e-10
-3.83148e-11
1.65148e-10
-3.98287e-11
1.82655e-10
-4.12067e-11
2.0069e-10
-4.24572e-11
2.19203e-10
-4.35803e-11
2.38145e-10
-4.45788e-11
2.57458e-10
-4.54604e-11
2.77102e-10
-4.62236e-11
2.97026e-10
-4.68736e-11
3.1718e-10
-4.74159e-11
3.37525e-10
-4.78501e-11
3.58015e-10
-4.81807e-11
3.78606e-10
-4.84142e-11
3.99262e-10
-4.85512e-11
4.19943e-10
-4.85979e-11
4.40608e-10
-4.85585e-11
4.61226e-10
-4.84347e-11
4.81762e-10
-4.82298e-11
5.02179e-10
-4.79491e-11
5.2245e-10
-4.75953e-11
5.42547e-10
-4.71698e-11
5.62435e-10
-4.6679e-11
5.82089e-10
-4.61266e-11
6.01488e-10
-4.55102e-11
6.206e-10
-4.48388e-11
6.39407e-10
-4.41136e-11
6.57886e-10
-4.33362e-11
6.76016e-10
-4.25102e-11
6.93774e-10
-4.16394e-11
7.11144e-10
-4.07237e-11
7.28109e-10
-3.97651e-11
7.4465e-10
-3.87686e-11
7.60752e-10
-3.77363e-11
7.76403e-10
-3.66691e-11
7.91586e-10
-3.55707e-11
8.06288e-10
-3.44439e-11
8.20498e-10
-3.32881e-11
8.34206e-10
-3.21042e-11
8.47398e-10
-3.08971e-11
8.60066e-10
-2.96684e-11
8.72201e-10
-2.84177e-11
8.83794e-10
-2.71469e-11
8.94837e-10
-2.58586e-11
9.05323e-10
-2.45531e-11
9.15248e-10
-2.32312e-11
9.24602e-10
-2.18956e-11
9.33379e-10
-2.05481e-11
9.41575e-10
-1.91878e-11
9.49184e-10
-1.78151e-11
9.56203e-10
-1.64319e-11
9.62626e-10
-1.50396e-11
9.68453e-10
-1.36386e-11
9.7368e-10
-1.22301e-11
9.78301e-10
-1.08163e-11
9.82316e-10
-9.39834e-12
9.85724e-10
-7.97574e-12
9.88521e-10
-6.54841e-12
9.90707e-10
-5.11763e-12
9.92279e-10
-3.68457e-12
9.9324e-10
-2.24941e-12
9.93587e-10
-8.13403e-13
9.93319e-10
6.22168e-13
9.92436e-10
2.05713e-12
9.90941e-10
3.49141e-12
9.88834e-10
4.92475e-12
9.86115e-10
6.35562e-12
9.82785e-10
7.78256e-12
9.78847e-10
9.20562e-12
9.74303e-10
1.06246e-11
9.69154e-10
1.20387e-11
9.63403e-10
1.34468e-11
9.57053e-10
1.4848e-11
9.50109e-10
1.62419e-11
9.42573e-10
1.76272e-11
9.34449e-10
1.90023e-11
9.25742e-10
2.03667e-11
9.16458e-10
2.17196e-11
9.06602e-10
2.30597e-11
8.9618e-10
2.43854e-11
8.85199e-10
2.56954e-11
8.73666e-10
2.69888e-11
8.61589e-10
2.82648e-11
8.48976e-10
2.95217e-11
8.35836e-10
3.07577e-11
8.2218e-10
3.19709e-11
8.08019e-10
3.31598e-11
7.93362e-10
3.43225e-11
7.78222e-10
3.54573e-11
7.62612e-10
3.6562e-11
7.46546e-10
3.76349e-11
7.30039e-10
3.86739e-11
7.13106e-10
3.96764e-11
6.95763e-10
4.06403e-11
6.78028e-10
4.15641e-11
6.59919e-10
4.24455e-11
6.41457e-10
4.32815e-11
6.22662e-10
4.40689e-11
6.03556e-10
4.48046e-11
5.84162e-10
4.54859e-11
5.64505e-10
4.61102e-11
5.44611e-10
4.66748e-11
5.24506e-10
4.71763e-11
5.04218e-10
4.76114e-11
4.83778e-10
4.79769e-11
4.63217e-10
4.82693e-11
4.42567e-10
4.84849e-11
4.21862e-10
4.86201e-11
4.01138e-10
4.86711e-11
3.80433e-10
4.86343e-11
3.59786e-10
4.85057e-11
3.39236e-10
4.82812e-11
3.18825e-10
4.79569e-11
2.98598e-10
4.75295e-11
2.78601e-10
4.6995e-11
2.5888e-10
4.63486e-11
2.39485e-10
4.55857e-11
2.20464e-10
4.47022e-11
2.0187e-10
4.36942e-11
1.83756e-10
4.25581e-11
1.66177e-10
4.12911e-11
1.49189e-10
3.98897e-11
1.32848e-10
3.83505e-11
1.17211e-10
3.66705e-11
1.02338e-10
3.4848e-11
8.82851e-11
3.28819e-11
7.5109e-11
3.07728e-11
6.28659e-11
2.85226e-11
5.16093e-11
2.6136e-11
4.1389e-11
2.36203e-11
3.22497e-11
2.09858e-11
2.42283e-11
1.82479e-11
1.73517e-11
1.54298e-11
1.1634e-11
1.25638e-11
7.07076e-12
9.69501e-12
3.63347e-12
6.88568e-12
1.26341e-12
4.221e-12
-1.37882e-13
1.81641e-12
-7.1776e-13
-1.71159e-13
-6.83022e-13
-1.53271e-12
-3.15166e-13
-2.00108e-12
-1.23824e-12
-8.27524e-14
9.12418e-13
3.74866e-14
2.48832e-12
6.07247e-13
2.64309e-12
1.89597e-12
6.13964e-13
4.15356e-12
-2.81316e-12
7.58995e-12
-6.93769e-12
1.23426e-11
-1.13634e-11
1.84886e-11
-1.58693e-11
2.60507e-11
-2.03453e-11
3.50224e-11
-2.4722e-11
4.53854e-11
-2.89569e-11
5.70933e-11
-3.30357e-11
7.01025e-11
-3.69327e-11
8.43514e-11
-4.06411e-11
9.97836e-11
-4.41543e-11
1.16337e-10
-4.74645e-11
1.33939e-10
-5.05752e-11
1.52535e-10
-5.34803e-11
1.72049e-10
-5.61841e-11
1.92417e-10
-5.86866e-11
2.13576e-10
-6.09837e-11
2.35453e-10
-6.30856e-11
2.57985e-10
-6.49909e-11
2.81112e-10
-6.67043e-11
3.04764e-10
-6.8234e-11
3.28886e-10
-6.95812e-11
3.53416e-10
-7.07518e-11
3.7829e-10
-7.17517e-11
4.03459e-10
-7.2584e-11
4.28865e-10
-7.3253e-11
4.54451e-10
-7.37688e-11
4.8017e-10
-7.41325e-11
5.0597e-10
-7.43511e-11
5.31801e-10
-7.44306e-11
5.57619e-10
-7.4378e-11
5.83381e-10
-7.41942e-11
6.09041e-10
-7.38906e-11
6.34557e-10
-7.34691e-11
6.59896e-10
-7.29326e-11
6.85014e-10
-7.229e-11
7.09878e-10
-7.1546e-11
7.34456e-10
-7.07022e-11
7.58713e-10
-6.97666e-11
7.82616e-10
-6.8745e-11
8.06141e-10
-6.76375e-11
8.29258e-10
-6.64513e-11
8.51938e-10
-6.5191e-11
8.74158e-10
-6.38593e-11
8.95896e-10
-6.24593e-11
9.17126e-10
-6.09958e-11
9.37828e-10
-5.94733e-11
9.57985e-10
-5.78938e-11
9.77577e-10
-5.6261e-11
9.96585e-10
-5.45804e-11
1.01499e-09
-5.28537e-11
1.03279e-09
-5.1082e-11
1.04995e-09
-4.92695e-11
1.06648e-09
-4.742e-11
1.08234e-09
-4.55348e-11
1.09754e-09
-4.36165e-11
1.11207e-09
-4.1669e-11
1.1259e-09
-3.96938e-11
1.13904e-09
-3.76915e-11
1.15147e-09
-3.56644e-11
1.16319e-09
-3.36155e-11
1.17419e-09
-3.15458e-11
1.18446e-09
-2.94562e-11
1.19399e-09
-2.7349e-11
1.20279e-09
-2.52269e-11
1.21084e-09
-2.30906e-11
1.21814e-09
-2.09405e-11
1.22469e-09
-1.87794e-11
1.23048e-09
-1.66095e-11
1.23551e-09
-1.44315e-11
1.23978e-09
-1.22459e-11
1.24329e-09
-1.00541e-11
1.24603e-09
-7.85762e-12
1.248e-09
-5.65707e-12
1.2492e-09
-3.45314e-12
1.24964e-09
-1.24767e-12
1.2493e-09
9.57621e-13
1.2482e-09
3.1624e-12
1.24632e-09
5.36596e-12
1.24368e-09
7.56718e-12
1.24027e-09
9.7644e-12
1.2361e-09
1.19563e-11
1.23116e-09
1.41425e-11
1.22546e-09
1.6322e-11
1.21901e-09
1.84931e-11
1.2118e-09
2.06547e-11
1.20384e-09
2.28063e-11
1.19514e-09
2.49462e-11
1.18569e-09
2.70725e-11
1.17551e-09
2.91834e-11
1.1646e-09
3.12775e-11
1.15296e-09
3.33536e-11
1.14061e-09
3.54096e-11
1.12755e-09
3.74436e-11
1.1138e-09
3.94537e-11
1.09935e-09
4.14379e-11
1.08422e-09
4.33942e-11
1.06842e-09
4.53203e-11
1.05196e-09
4.72138e-11
1.03486e-09
4.90726e-11
1.01713e-09
5.08941e-11
9.98773e-10
5.26749e-11
9.79817e-10
5.4412e-11
9.60275e-10
5.61032e-11
9.40165e-10
5.77454e-11
9.19504e-10
5.93353e-11
8.98311e-10
6.08692e-11
8.76608e-10
6.23435e-11
8.54417e-10
6.37553e-11
8.31762e-10
6.51011e-11
8.08666e-10
6.63767e-11
7.85156e-10
6.75777e-11
7.6126e-10
6.86997e-11
7.37008e-10
6.97382e-11
7.1243e-10
7.06889e-11
6.87557e-10
7.15475e-11
6.62424e-10
7.23093e-11
6.37066e-10
7.29693e-11
6.1152e-10
7.35225e-11
5.85827e-10
7.39636e-11
5.60025e-10
7.42866e-11
5.34157e-10
7.44865e-11
5.08269e-10
7.45587e-11
4.82405e-10
7.44972e-11
4.56616e-10
7.42957e-11
4.3095e-10
7.39481e-11
4.05459e-10
7.34481e-11
3.80199e-10
7.27902e-11
3.55224e-10
7.19689e-11
3.30593e-10
7.09783e-11
3.06366e-10
6.98121e-11
2.82604e-10
6.8464e-11
2.5937e-10
6.69283e-11
2.36729e-10
6.51996e-11
2.14748e-10
6.32732e-11
1.93492e-10
6.11445e-11
1.73032e-10
5.881e-11
1.53435e-10
5.62665e-11
1.34772e-10
5.35117e-11
1.17109e-10
5.05449e-11
1.00514e-10
4.73679e-11
8.50509e-11
4.39852e-11
7.07823e-11
4.04044e-11
5.77646e-11
3.66375e-11
4.60479e-11
3.27021e-11
3.56731e-11
2.86225e-11
2.66689e-11
2.44336e-11
1.90489e-11
2.01834e-11
1.28068e-11
1.59374e-11
7.91017e-12
1.17827e-11
4.29516e-12
7.83572e-12
1.85956e-12
4.25125e-12
4.54322e-13
1.23344e-12
-1.26267e-13
-9.52198e-13
-1.56659e-13
-1.97071e-12
-1.39496e-12
8.14997e-14
8.32885e-13
7.22081e-13
1.85796e-12
2.12678e-12
1.23374e-12
4.48247e-12
-1.74692e-12
7.99303e-12
-6.32096e-12
1.28458e-11
-1.17852e-11
1.91776e-11
-1.76897e-11
2.7068e-11
-2.37623e-11
3.65626e-11
-2.98372e-11
4.76632e-11
-3.58173e-11
6.03425e-11
-4.16426e-11
7.45732e-11
-4.72611e-11
9.02957e-11
-5.26548e-11
1.0745e-10
-5.77998e-11
1.25978e-10
-6.26771e-11
1.45799e-10
-6.72898e-11
1.6685e-10
-7.16233e-11
1.89049e-10
-7.56797e-11
2.12321e-10
-7.94581e-11
2.36594e-10
-8.29552e-11
2.61785e-10
-8.61762e-11
2.87819e-10
-8.91216e-11
3.14623e-10
-9.17937e-11
3.4212e-10
-9.4203e-11
3.70239e-10
-9.6353e-11
3.9891e-10
-9.82497e-11
4.28057e-10
-9.99012e-11
4.57616e-10
-1.01312e-10
4.87521e-10
-1.02488e-10
5.17703e-10
-1.03437e-10
5.48103e-10
-1.04169e-10
5.78661e-10
-1.04688e-10
6.09313e-10
-1.05004e-10
6.40006e-10
-1.05126e-10
6.70687e-10
-1.05056e-10
7.01299e-10
-1.04808e-10
7.31793e-10
-1.04386e-10
7.62124e-10
-1.03797e-10
7.92241e-10
-1.0305e-10
8.22099e-10
-1.02151e-10
8.51661e-10
-1.01106e-10
8.80882e-10
-9.99227e-11
9.09723e-10
-9.86104e-11
9.38152e-10
-9.71721e-11
9.66129e-10
-9.56152e-11
9.93623e-10
-9.39466e-11
1.0206e-09
-9.21709e-11
1.04704e-09
-9.02928e-11
1.0729e-09
-8.83192e-11
1.09816e-09
-8.62566e-11
1.12279e-09
-8.41087e-11
1.14678e-09
-8.18801e-11
1.1701e-09
-7.95776e-11
1.19272e-09
-7.72056e-11
1.21463e-09
-7.4766e-11
1.23582e-09
-7.2264e-11
1.25625e-09
-6.97052e-11
1.27592e-09
-6.70919e-11
1.29481e-09
-6.44272e-11
1.31291e-09
-6.17161e-11
1.33021e-09
-5.89625e-11
1.34668e-09
-5.61682e-11
1.36233e-09
-5.33365e-11
1.37713e-09
-5.04708e-11
1.39109e-09
-4.75733e-11
1.40419e-09
-4.46449e-11
1.41642e-09
-4.16883e-11
1.42778e-09
-3.87071e-11
1.43826e-09
-3.5704e-11
1.44785e-09
-3.26802e-11
1.45654e-09
-2.96382e-11
1.46435e-09
-2.65812e-11
1.47125e-09
-2.35109e-11
1.47724e-09
-2.04279e-11
1.48233e-09
-1.73342e-11
1.48651e-09
-1.42318e-11
1.48977e-09
-1.11221e-11
1.49212e-09
-8.0066e-12
1.49356e-09
-4.88697e-12
1.49407e-09
-1.7653e-12
1.49367e-09
1.35716e-12
1.49236e-09
4.47931e-12
1.49012e-09
7.59954e-12
1.48698e-09
1.07156e-11
1.48291e-09
1.3826e-11
1.47794e-09
1.69296e-11
1.47206e-09
2.0025e-11
1.46527e-09
2.31104e-11
1.45758e-09
2.61836e-11
1.44899e-09
2.92435e-11
1.43951e-09
3.22886e-11
1.42914e-09
3.53165e-11
1.41788e-09
3.8325e-11
1.40575e-09
4.1312e-11
1.39276e-09
4.42753e-11
1.3789e-09
4.72121e-11
1.36419e-09
5.012e-11
1.34863e-09
5.29964e-11
1.33225e-09
5.58389e-11
1.31504e-09
5.86447e-11
1.29702e-09
6.14102e-11
1.27821e-09
6.41322e-11
1.25862e-09
6.68078e-11
1.23826e-09
6.94336e-11
1.21714e-09
7.20059e-11
1.1953e-09
7.45206e-11
1.17274e-09
7.69735e-11
1.14948e-09
7.93607e-11
1.12555e-09
8.16781e-11
1.10096e-09
8.39209e-11
1.07574e-09
8.60844e-11
1.04992e-09
8.8164e-11
1.02352e-09
9.01546e-11
9.96576e-10
9.20508e-11
9.69106e-10
9.38468e-11
9.41146e-10
9.55368e-11
9.1273e-10
9.71149e-11
8.83893e-10
9.85752e-11
8.54671e-10
9.99112e-11
8.25102e-10
1.01116e-10
7.95226e-10
1.02185e-10
7.65086e-10
1.03109e-10
7.34726e-10
1.03883e-10
7.04192e-10
1.04498e-10
6.73532e-10
1.04947e-10
6.42797e-10
1.05222e-10
6.12038e-10
1.05317e-10
5.81311e-10
1.05224e-10
5.50671e-10
1.04934e-10
5.2018e-10
1.04439e-10
4.89897e-10
1.03731e-10
4.59887e-10
1.02801e-10
4.30215e-10
1.01642e-10
4.00948e-10
1.00245e-10
3.72156e-10
9.86036e-11
3.4391e-10
9.67088e-11
3.16284e-10
9.45535e-11
2.89354e-10
9.21305e-11
2.63194e-10
8.94331e-11
2.37883e-10
8.64559e-11
2.13498e-10
8.31942e-11
1.9012e-10
7.9645e-11
1.67825e-10
7.58068e-11
1.4669e-10
7.16798e-11
1.2679e-10
6.72672e-11
1.08198e-10
6.25768e-11
9.09818e-11
5.76205e-11
7.52039e-11
5.24156e-11
6.0918e-11
4.69874e-11
4.81688e-11
4.13711e-11
3.69872e-11
3.5615e-11
2.73874e-11
2.97835e-11
1.93631e-11
2.39621e-11
1.28823e-11
1.82635e-11
7.88282e-12
1.2835e-11
4.26584e-12
7.86753e-12
1.89035e-12
3.60841e-12
5.65084e-13
3.73158e-13
4.02845e-14
-1.44585e-12
-1.35483e-12
2.64245e-13
5.61412e-13
1.43533e-12
6.85752e-13
3.69803e-12
-1.02816e-12
7.17716e-12
-5.22331e-12
1.20206e-11
-1.11701e-11
1.8382e-11
-1.81558e-11
2.63896e-11
-2.56984e-11
3.61183e-11
-3.3493e-11
4.76173e-11
-4.13353e-11
6.08867e-11
-4.90893e-11
7.59148e-11
-5.66684e-11
9.26583e-11
-6.40078e-11
1.11068e-10
-7.10653e-11
1.31081e-10
-7.7809e-11
1.52625e-10
-8.42236e-11
1.75627e-10
-9.02894e-11
2.00004e-10
-9.60015e-11
2.25674e-10
-1.01353e-10
2.52556e-10
-1.06339e-10
2.8056e-10
-1.10961e-10
3.09602e-10
-1.15219e-10
3.396e-10
-1.19116e-10
3.70464e-10
-1.2266e-10
4.02115e-10
-1.25855e-10
4.34472e-10
-1.28708e-10
4.67449e-10
-1.31229e-10
5.00971e-10
-1.33424e-10
5.34962e-10
-1.35301e-10
5.69342e-10
-1.36868e-10
6.04039e-10
-1.38138e-10
6.38986e-10
-1.39113e-10
6.74109e-10
-1.39812e-10
7.09342e-10
-1.4024e-10
7.44624e-10
-1.40405e-10
7.79888e-10
-1.40321e-10
8.15075e-10
-1.39998e-10
8.50131e-10
-1.39441e-10
8.84998e-10
-1.38663e-10
9.1962e-10
-1.37674e-10
9.53951e-10
-1.36481e-10
9.8794e-10
-1.35094e-10
1.02154e-09
-1.33524e-10
1.05471e-09
-1.31778e-10
1.0874e-09
-1.29863e-10
1.11958e-09
-1.27792e-10
1.1512e-09
-1.2557e-10
1.18223e-09
-1.23204e-10
1.21264e-09
-1.20701e-10
1.24239e-09
-1.18071e-10
1.27145e-09
-1.1532e-10
1.2998e-09
-1.12454e-10
1.3274e-09
-1.09482e-10
1.35423e-09
-1.0641e-10
1.38027e-09
-1.03243e-10
1.40549e-09
-9.9985e-11
1.42987e-09
-9.66446e-11
1.45339e-09
-9.32268e-11
1.47603e-09
-8.97351e-11
1.49778e-09
-8.61756e-11
1.51862e-09
-8.2554e-11
1.53853e-09
-7.88733e-11
1.5575e-09
-7.51374e-11
1.57551e-09
-7.13515e-11
1.59256e-09
-6.75197e-11
1.60863e-09
-6.36441e-11
1.62372e-09
-5.97275e-11
1.6378e-09
-5.57743e-11
1.65088e-09
-5.17878e-11
1.66295e-09
-4.77705e-11
1.67399e-09
-4.37254e-11
1.68401e-09
-3.96566e-11
1.693e-09
-3.55674e-11
1.70095e-09
-3.14593e-11
1.70785e-09
-2.73344e-11
1.71371e-09
-2.31954e-11
1.71852e-09
-1.90444e-11
1.72229e-09
-1.48828e-11
1.72499e-09
-1.07133e-11
1.72664e-09
-6.53872e-12
1.72724e-09
-2.36124e-12
1.72678e-09
1.81783e-12
1.72526e-09
5.99666e-12
1.72269e-09
1.01726e-11
1.71906e-09
1.43429e-11
1.71438e-09
1.85055e-11
1.70865e-09
2.26593e-11
1.70188e-09
2.68016e-11
1.69406e-09
3.09299e-11
1.6852e-09
3.50425e-11
1.6753e-09
3.91371e-11
1.66438e-09
4.32112e-11
1.65244e-09
4.72617e-11
1.63947e-09
5.12859e-11
1.6255e-09
5.52814e-11
1.61053e-09
5.9245e-11
1.59457e-09
6.31727e-11
1.57763e-09
6.70612e-11
1.55972e-09
7.09072e-11
1.54085e-09
7.47071e-11
1.52104e-09
7.84572e-11
1.5003e-09
8.21531e-11
1.47864e-09
8.57903e-11
1.45608e-09
8.93649e-11
1.43264e-09
9.28723e-11
1.40834e-09
9.63072e-11
1.3832e-09
9.96648e-11
1.35723e-09
1.0294e-10
1.33046e-09
1.06127e-10
1.30292e-09
1.09219e-10
1.27463e-09
1.12211e-10
1.24562e-09
1.15097e-10
1.21591e-09
1.1787e-10
1.18555e-09
1.20524e-10
1.15455e-09
1.23051e-10
1.12295e-09
1.25443e-10
1.09079e-09
1.27693e-10
1.05811e-09
1.29794e-10
1.02495e-09
1.31736e-10
9.91352e-10
1.33512e-10
9.57354e-10
1.35114e-10
9.23006e-10
1.36533e-10
8.88357e-10
1.37759e-10
8.53457e-10
1.38783e-10
8.18359e-10
1.39596e-10
7.83118e-10
1.40187e-10
7.47791e-10
1.40549e-10
7.1244e-10
1.4067e-10
6.77125e-10
1.4054e-10
6.41911e-10
1.40148e-10
6.06866e-10
1.39483e-10
5.72059e-10
1.38537e-10
5.37564e-10
1.37297e-10
5.03453e-10
1.35753e-10
4.69802e-10
1.33896e-10
4.36691e-10
1.31715e-10
4.04199e-10
1.292e-10
3.7241e-10
1.26343e-10
3.41406e-10
1.23134e-10
3.11273e-10
1.19566e-10
2.82098e-10
1.15631e-10
2.53967e-10
1.11326e-10
2.26966e-10
1.06646e-10
2.01182e-10
1.01591e-10
1.76698e-10
9.6163e-11
1.53597e-10
9.03677e-11
1.31958e-10
8.42162e-11
1.11853e-10
7.77251e-11
9.33504e-11
7.09183e-11
7.65076e-11
6.383e-11
6.13724e-11
5.65062e-11
4.79785e-11
4.90086e-11
3.63428e-11
4.1419e-11
2.64621e-11
3.38431e-11
1.83087e-11
2.64172e-11
1.18263e-11
1.9317e-11
6.92681e-12
1.27666e-11
3.48472e-12
7.05043e-12
1.33242e-12
2.52577e-12
2.56539e-13
-3.69955e-13
-1.09859e-12
4.61616e-13
1.02757e-13
2.17411e-12
-1.03346e-12
5.31179e-12
-4.15753e-12
9.9322e-12
-9.84693e-12
1.61526e-11
-1.73866e-11
2.4086e-11
-2.60846e-11
3.38314e-11
-3.54459e-11
4.54588e-11
-4.51236e-11
5.90131e-11
-5.48838e-11
7.44873e-11
-6.45672e-11
9.18751e-11
-7.40521e-11
1.11129e-10
-8.32623e-11
1.32201e-10
-9.21357e-11
1.5502e-10
-1.00632e-10
1.79517e-10
-1.0872e-10
2.05609e-10
-1.16381e-10
2.33208e-10
-1.23603e-10
2.62229e-10
-1.30373e-10
2.92577e-10
-1.36687e-10
3.24161e-10
-1.42545e-10
3.56888e-10
-1.47945e-10
3.90664e-10
-1.52893e-10
4.25398e-10
-1.57395e-10
4.61e-10
-1.61456e-10
4.97379e-10
-1.65087e-10
5.34444e-10
-1.68297e-10
5.72112e-10
-1.7109e-10
6.10294e-10
-1.73482e-10
6.48907e-10
-1.75484e-10
6.87875e-10
-1.77102e-10
7.27113e-10
-1.78353e-10
7.66547e-10
-1.79247e-10
8.06105e-10
-1.79795e-10
8.45712e-10
-1.80012e-10
8.85299e-10
-1.79911e-10
9.24803e-10
-1.795e-10
9.64156e-10
-1.78793e-10
1.0033e-09
-1.77805e-10
1.04217e-09
-1.76544e-10
1.08071e-09
-1.75023e-10
1.11887e-09
-1.73254e-10
1.15659e-09
-1.71249e-10
1.19383e-09
-1.69018e-10
1.23054e-09
-1.66573e-10
1.26667e-09
-1.63924e-10
1.30219e-09
-1.61081e-10
1.33704e-09
-1.58054e-10
1.37119e-09
-1.54853e-10
1.4046e-09
-1.51487e-10
1.43725e-09
-1.47964e-10
1.46909e-09
-1.44295e-10
1.5001e-09
-1.40489e-10
1.53024e-09
-1.36554e-10
1.55949e-09
-1.32494e-10
1.58783e-09
-1.28321e-10
1.61522e-09
-1.2404e-10
1.64165e-09
-1.19657e-10
1.6671e-09
-1.1518e-10
1.69154e-09
-1.10616e-10
1.71496e-09
-1.05971e-10
1.73733e-09
-1.0125e-10
1.75865e-09
-9.64577e-11
1.7789e-09
-9.16009e-11
1.79806e-09
-8.66834e-11
1.81613e-09
-8.17087e-11
1.83309e-09
-7.66821e-11
1.84892e-09
-7.16088e-11
1.86362e-09
-6.6492e-11
1.87719e-09
-6.1335e-11
1.88961e-09
-5.61432e-11
1.90087e-09
-5.09208e-11
1.91097e-09
-4.56707e-11
1.91991e-09
-4.03958e-11
1.92768e-09
-3.50996e-11
1.93427e-09
-2.97852e-11
1.93968e-09
-2.44547e-11
1.94391e-09
-1.91107e-11
1.94695e-09
-1.37567e-11
1.94881e-09
-8.39603e-12
1.94948e-09
-3.03085e-12
1.94896e-09
2.33652e-12
1.94725e-09
7.70319e-12
1.94436e-09
1.30658e-11
1.94028e-09
1.84216e-11
1.93502e-09
2.37682e-11
1.92857e-09
2.91028e-11