/*--------------------------------*- C++ -*----------------------------------*\
  =========                 |
  \\      /  F ield         | OpenFOAM: The Open Source CFD Toolbox
   \\    /   O peration     | Website:  https://openfoam.org
    \\  /    A nd           | Version:  7
     \\/     M anipulation  |
\*---------------------------------------------------------------------------*/
FoamFile
{
    version     2.0;
    format      ascii;
    class       volVectorField;
    location    "0.125";
    object      U;
}
// * * * * * * * * * * * * * * * * * * * * * * * * * * * * * * * * * * * * * //

dimensions      [0 1 -1 0 0 0 0];

internalField   nonuniform List<vector> 
12800
(
(4.24871e-06 -4.24685e-06 0)
(2.10058e-05 -1.066e-05 0)
(4.72686e-05 -1.21326e-05 0)
(7.17365e-05 -1.04248e-05 0)
(8.75671e-05 -6.98675e-06 0)
(9.15748e-05 -2.716e-06 0)
(8.21499e-05 1.87195e-06 0)
(5.86845e-05 6.45934e-06 0)
(2.12376e-05 1.08851e-05 0)
(-2.97137e-05 1.50473e-05 0)
(-9.34607e-05 1.89002e-05 0)
(-0.000169122 2.24257e-05 0)
(-0.000255753 2.5612e-05 0)
(-0.000352374 2.84633e-05 0)
(-0.000457994 3.09938e-05 0)
(-0.000571654 3.32157e-05 0)
(-0.000692426 3.51498e-05 0)
(-0.000819427 3.68211e-05 0)
(-0.000951834 3.82461e-05 0)
(-0.00108888 3.94457e-05 0)
(-0.00122985 4.04451e-05 0)
(-0.00137409 4.12614e-05 0)
(-0.00152103 4.19094e-05 0)
(-0.00167013 4.24092e-05 0)
(-0.00182091 4.27787e-05 0)
(-0.00197295 4.30337e-05 0)
(-0.00212587 4.31916e-05 0)
(-0.00227936 4.32672e-05 0)
(-0.00243312 4.32711e-05 0)
(-0.00258691 4.32127e-05 0)
(-0.00274051 4.3103e-05 0)
(-0.00289376 4.29522e-05 0)
(-0.00304651 4.27681e-05 0)
(-0.00319863 4.25567e-05 0)
(-0.00335003 4.23244e-05 0)
(-0.00350062 4.20769e-05 0)
(-0.00365035 4.18184e-05 0)
(-0.00379918 4.15537e-05 0)
(-0.00394708 4.12875e-05 0)
(-0.00409403 4.10227e-05 0)
(-0.00424002 4.076e-05 0)
(-0.00438507 4.05008e-05 0)
(-0.00452917 4.02483e-05 0)
(-0.00467236 4.0006e-05 0)
(-0.00481464 3.97751e-05 0)
(-0.00495607 3.95551e-05 0)
(-0.00509666 3.93464e-05 0)
(-0.00523645 3.9151e-05 0)
(-0.0053755 3.89701e-05 0)
(-0.00551384 3.88038e-05 0)
(-0.00565153 3.86526e-05 0)
(-0.00578861 3.85177e-05 0)
(-0.00592513 3.84001e-05 0)
(-0.00606116 3.82998e-05 0)
(-0.00619675 3.82163e-05 0)
(-0.00633195 3.81505e-05 0)
(-0.00646683 3.81035e-05 0)
(-0.00660145 3.80753e-05 0)
(-0.00673587 3.80658e-05 0)
(-0.00687015 3.80749e-05 0)
(-0.00700435 3.81026e-05 0)
(-0.00713853 3.81493e-05 0)
(-0.00727275 3.82142e-05 0)
(-0.00740707 3.82964e-05 0)
(-0.00754155 3.83952e-05 0)
(-0.00767623 3.85108e-05 0)
(-0.00781117 3.86427e-05 0)
(-0.00794642 3.87894e-05 0)
(-0.00808202 3.89489e-05 0)
(-0.008218 3.91193e-05 0)
(-0.00835439 3.92993e-05 0)
(-0.00849123 3.94876e-05 0)
(-0.00862851 3.96821e-05 0)
(-0.00876626 3.98797e-05 0)
(-0.00890446 4.00768e-05 0)
(-0.0090431 4.02698e-05 0)
(-0.00918215 4.04551e-05 0)
(-0.00932157 4.06288e-05 0)
(-0.0094613 4.07865e-05 0)
(-0.00960127 4.0923e-05 0)
(-0.00974138 4.10328e-05 0)
(-0.00988153 4.11103e-05 0)
(-0.0100216 4.11494e-05 0)
(-0.0101614 4.11436e-05 0)
(-0.0103008 4.10857e-05 0)
(-0.0104395 4.09684e-05 0)
(-0.0105774 4.0784e-05 0)
(-0.0107142 4.05244e-05 0)
(-0.0108496 4.01809e-05 0)
(-0.0109833 3.9744e-05 0)
(-0.011115 3.9204e-05 0)
(-0.0112443 3.85515e-05 0)
(-0.0113707 3.77768e-05 0)
(-0.0114939 3.68695e-05 0)
(-0.0116133 3.58191e-05 0)
(-0.0117285 3.46147e-05 0)
(-0.0118389 3.32457e-05 0)
(-0.011944 3.17014e-05 0)
(-0.012043 2.99716e-05 0)
(-0.0121355 2.80462e-05 0)
(-0.0122207 2.59156e-05 0)
(-0.0122979 2.35708e-05 0)
(-0.0123664 2.10032e-05 0)
(-0.0124254 1.82051e-05 0)
(-0.0124742 1.51697e-05 0)
(-0.0125119 1.18918e-05 0)
(-0.0125378 8.36704e-06 0)
(-0.0125511 4.59273e-06 0)
(-0.012551 5.67998e-07 0)
(-0.0125365 -3.70592e-06 0)
(-0.0125071 -8.22537e-06 0)
(-0.0124618 -1.29844e-05 0)
(-0.0123999 -1.79747e-05 0)
(-0.0123207 -2.31852e-05 0)
(-0.0122236 -2.86018e-05 0)
(-0.0121079 -3.42071e-05 0)
(-0.0119731 -3.99804e-05 0)
(-0.0118188 -4.58977e-05 0)
(-0.0116444 -5.19316e-05 0)
(-0.0114498 -5.80516e-05 0)
(-0.0112348 -6.42234e-05 0)
(-0.0109992 -7.04097e-05 0)
(-0.0107433 -7.65698e-05 0)
(-0.0104671 -8.26598e-05 0)
(-0.0101711 -8.8633e-05 0)
(-0.00985573 -9.44402e-05 0)
(-0.0095217 -0.00010003 0)
(-0.00916983 -0.000105351 0)
(-0.00880114 -0.000110348 0)
(-0.00841681 -0.000114966 0)
(-0.00801821 -0.000119152 0)
(-0.00760686 -0.000122853 0)
(-0.00718446 -0.000126015 0)
(-0.00675288 -0.00012859 0)
(-0.00631413 -0.000130529 0)
(-0.00587038 -0.000131789 0)
(-0.00542393 -0.000132328 0)
(-0.00497718 -0.000132111 0)
(-0.00453265 -0.000131106 0)
(-0.00409296 -0.000129289 0)
(-0.00366077 -0.000126641 0)
(-0.00323881 -0.000123147 0)
(-0.00282982 -0.000118799 0)
(-0.00243657 -0.000113593 0)
(-0.0020618 -0.000107535 0)
(-0.00170821 -0.000100633 0)
(-0.00137846 -9.29016e-05 0)
(-0.00107511 -8.43577e-05 0)
(-0.000800621 -7.5026e-05 0)
(-0.000557317 -6.49385e-05 0)
(-0.000347335 -5.41347e-05 0)
(-0.000172572 -4.26702e-05 0)
(-3.45929e-05 -3.06335e-05 0)
(6.55149e-05 -1.81761e-05 0)
(0.000127417 -5.57029e-06 0)
(0.000151986 6.65697e-06 0)
(0.00014198 1.74915e-05 0)
(0.000103652 2.49247e-05 0)
(5.16472e-05 2.50784e-05 0)
(1.24139e-05 1.24273e-05 0)
(1.10375e-05 -2.1112e-05 0)
(4.41838e-05 -4.36453e-05 0)
(8.81477e-05 -4.59753e-05 0)
(0.000122734 -3.4736e-05 0)
(0.000135026 -1.51761e-05 0)
(0.000117841 9.07195e-06 0)
(6.69386e-05 3.5562e-05 0)
(-1.97268e-05 6.26899e-05 0)
(-0.000142588 8.94163e-05 0)
(-0.000300971 0.000115075 0)
(-0.00049342 0.00013926 0)
(-0.00071802 0.000161731 0)
(-0.00097253 0.000182352 0)
(-0.00125453 0.000201082 0)
(-0.00156156 0.000217922 0)
(-0.00189112 0.000232919 0)
(-0.00224079 0.000246153 0)
(-0.00260824 0.000257716 0)
(-0.00299123 0.000267711 0)
(-0.00338766 0.000276253 0)
(-0.00379561 0.000283459 0)
(-0.00421325 0.000289442 0)
(-0.00463895 0.000294317 0)
(-0.00507119 0.000298194 0)
(-0.00550864 0.000301176 0)
(-0.00595006 0.000303364 0)
(-0.00639438 0.000304854 0)
(-0.00684064 0.000305735 0)
(-0.007288 0.000306086 0)
(-0.00773573 0.00030598 0)
(-0.00818319 0.000305485 0)
(-0.00862985 0.000304663 0)
(-0.00907524 0.000303568 0)
(-0.00951899 0.000302251 0)
(-0.00996078 0.000300756 0)
(-0.0104003 0.00029912 0)
(-0.0108375 0.000297378 0)
(-0.0112721 0.00029556 0)
(-0.011704 0.000293693 0)
(-0.0121331 0.000291803 0)
(-0.0125594 0.000289906 0)
(-0.012983 0.000288019 0)
(-0.0134037 0.000286159 0)
(-0.0138216 0.00028434 0)
(-0.0142369 0.000282573 0)
(-0.0146494 0.000280868 0)
(-0.0150595 0.000279234 0)
(-0.015467 0.00027768 0)
(-0.0158722 0.000276211 0)
(-0.0162752 0.000274832 0)
(-0.0166761 0.000273551 0)
(-0.017075 0.000272372 0)
(-0.0174721 0.000271301 0)
(-0.0178675 0.000270339 0)
(-0.0182614 0.000269489 0)
(-0.018654 0.000268756 0)
(-0.0190453 0.000268141 0)
(-0.0194356 0.000267647 0)
(-0.0198251 0.000267272 0)
(-0.0202138 0.000267017 0)
(-0.020602 0.000266883 0)
(-0.0209899 0.000266867 0)
(-0.0213776 0.000266966 0)
(-0.0217652 0.000267176 0)
(-0.0221529 0.000267493 0)
(-0.0225409 0.000267913 0)
(-0.0229292 0.000268427 0)
(-0.0233181 0.000269027 0)
(-0.0237075 0.000269702 0)
(-0.0240977 0.000270442 0)
(-0.0244886 0.000271232 0)
(-0.0248803 0.000272059 0)
(-0.0252729 0.000272905 0)
(-0.0256663 0.00027375 0)
(-0.0260605 0.000274572 0)
(-0.0264555 0.000275348 0)
(-0.0268511 0.000276051 0)
(-0.0272473 0.000276653 0)
(-0.0276437 0.000277122 0)
(-0.0280402 0.000277424 0)
(-0.0284366 0.000277522 0)
(-0.0288324 0.000277379 0)
(-0.0292273 0.000276951 0)
(-0.0296208 0.000276194 0)
(-0.0300125 0.000275061 0)
(-0.0304016 0.000273501 0)
(-0.0307876 0.000271464 0)
(-0.0311697 0.000268895 0)
(-0.0315471 0.000265735 0)
(-0.0319189 0.000261925 0)
(-0.0322841 0.000257403 0)
(-0.0326417 0.000252105 0)
(-0.0329904 0.000245968 0)
(-0.0333291 0.000238924 0)
(-0.0336563 0.000230909 0)
(-0.0339706 0.000221854 0)
(-0.0342706 0.000211692 0)
(-0.0345546 0.000200359 0)
(-0.0348208 0.000187791 0)
(-0.0350676 0.000173927 0)
(-0.035293 0.000158707 0)
(-0.035495 0.000142079 0)
(-0.0356718 0.000123992 0)
(-0.0358211 0.000104405 0)
(-0.0359409 8.32793e-05 0)
(-0.036029 6.05887e-05 0)
(-0.0360832 3.63139e-05 0)
(-0.0361014 1.04466e-05 0)
(-0.0360812 -1.70094e-05 0)
(-0.0360207 -4.60368e-05 0)
(-0.0359175 -7.66037e-05 0)
(-0.0357696 -0.000108663 0)
(-0.0355751 -0.00014215 0)
(-0.0353321 -0.000176985 0)
(-0.0350387 -0.000213066 0)
(-0.0346935 -0.000250273 0)
(-0.034295 -0.000288467 0)
(-0.0338421 -0.000327485 0)
(-0.0333337 -0.000367147 0)
(-0.0327693 -0.000407249 0)
(-0.0321484 -0.000447567 0)
(-0.031471 -0.000487858 0)
(-0.0307374 -0.000527859 0)
(-0.0299483 -0.000567288 0)
(-0.0291048 -0.000605848 0)
(-0.0282084 -0.000643229 0)
(-0.027261 -0.000679106 0)
(-0.0262651 -0.000713147 0)
(-0.0252234 -0.000745016 0)
(-0.0241393 -0.000774372 0)
(-0.0230166 -0.000800875 0)
(-0.0218596 -0.000824193 0)
(-0.0206728 -0.000844002 0)
(-0.0194615 -0.000859991 0)
(-0.0182312 -0.000871866 0)
(-0.0169878 -0.000879357 0)
(-0.0157375 -0.000882215 0)
(-0.014487 -0.000880225 0)
(-0.0132431 -0.000873199 0)
(-0.0120129 -0.000860989 0)
(-0.0108036 -0.000843482 0)
(-0.00962263 -0.000820604 0)
(-0.00847737 -0.000792323 0)
(-0.00737525 -0.000758648 0)
(-0.00632364 -0.000719634 0)
(-0.00532978 -0.000675378 0)
(-0.00440067 -0.000626028 0)
(-0.00354305 -0.000571782 0)
(-0.00276327 -0.000512902 0)
(-0.00206719 -0.000449728 0)
(-0.00146001 -0.000382711 0)
(-0.000946072 -0.000312458 0)
(-0.00052858 -0.000239828 0)
(-0.000209149 -0.000166093 0)
(1.28616e-05 -9.31996e-05 0)
(0.000141345 -2.42601e-05 0)
(0.000184724 3.56732e-05 0)
(0.000158178 7.82737e-05 0)
(8.98585e-05 9.00175e-05 0)
(2.49459e-05 5.15477e-05 0)
(1.28552e-05 -4.81847e-05 0)
(4.75444e-05 -8.80192e-05 0)
(8.66155e-05 -8.46413e-05 0)
(0.000105934 -5.17481e-05 0)
(8.9936e-05 5.2074e-07 0)
(2.93549e-05 6.45674e-05 0)
(-8.16126e-05 0.000134835 0)
(-0.000246041 0.000207424 0)
(-0.000464854 0.000279606 0)
(-0.000737363 0.000349557 0)
(-0.00106177 0.000416045 0)
(-0.00143546 0.000478285 0)
(-0.00185532 0.000535827 0)
(-0.0023179 0.000588429 0)
(-0.00281959 0.00063603 0)
(-0.00335671 0.000678694 0)
(-0.00392563 0.000716562 0)
(-0.00452281 0.000749846 0)
(-0.00514483 0.0007788 0)
(-0.0057885 0.000803701 0)
(-0.00645078 0.000824844 0)
(-0.00712886 0.000842536 0)
(-0.00782014 0.000857076 0)
(-0.00852226 0.000868761 0)
(-0.00923305 0.000877877 0)
(-0.00995057 0.000884698 0)
(-0.0106731 0.000889481 0)
(-0.011399 0.000892471 0)
(-0.012127 0.000893894 0)
(-0.0128559 0.000893957 0)
(-0.0135845 0.000892853 0)
(-0.0143121 0.000890755 0)
(-0.0150378 0.000887821 0)
(-0.0157609 0.000884194 0)
(-0.016481 0.000880002 0)
(-0.0171976 0.000875359 0)
(-0.0179104 0.000870364 0)
(-0.0186189 0.000865107 0)
(-0.0193231 0.000859669 0)
(-0.0200228 0.000854118 0)
(-0.0207179 0.000848515 0)
(-0.0214083 0.000842912 0)
(-0.022094 0.000837358 0)
(-0.0227751 0.000831893 0)
(-0.0234517 0.000826554 0)
(-0.0241237 0.000821371 0)
(-0.0247914 0.000816373 0)
(-0.0254549 0.000811586 0)
(-0.0261143 0.000807029 0)
(-0.0267699 0.000802723 0)
(-0.0274218 0.000798682 0)
(-0.0280702 0.000794925 0)
(-0.0287154 0.000791462 0)
(-0.0293575 0.000788305 0)
(-0.0299969 0.000785463 0)
(-0.0306337 0.000782944 0)
(-0.0312683 0.000780756 0)
(-0.0319008 0.000778901 0)
(-0.0325316 0.000777381 0)
(-0.0331609 0.000776197 0)
(-0.033789 0.000775344 0)
(-0.034416 0.00077482 0)
(-0.0350423 0.000774614 0)
(-0.0356681 0.000774715 0)
(-0.0362937 0.000775109 0)
(-0.0369191 0.00077578 0)
(-0.0375447 0.000776704 0)
(-0.0381707 0.000777857 0)
(-0.0387971 0.000779208 0)
(-0.0394241 0.000780721 0)
(-0.0400518 0.000782359 0)
(-0.0406802 0.000784076 0)
(-0.0413094 0.000785821 0)
(-0.0419394 0.000787537 0)
(-0.0425701 0.00078916 0)
(-0.0432013 0.000790623 0)
(-0.043833 0.000791847 0)
(-0.0444647 0.00079275 0)
(-0.0450963 0.000793241 0)
(-0.0457272 0.000793222 0)
(-0.0463572 0.000792589 0)
(-0.0469855 0.000791229 0)
(-0.0476115 0.000789022 0)
(-0.0482345 0.000785842 0)
(-0.0488537 0.000781553 0)
(-0.049468 0.000776014 0)
(-0.0500763 0.000769078 0)
(-0.0506776 0.000760587 0)
(-0.0512704 0.000750381 0)
(-0.0518534 0.000738292 0)
(-0.0524248 0.000724147 0)
(-0.0529831 0.000707767 0)
(-0.0535263 0.000688973 0)
(-0.0540525 0.000667582 0)
(-0.0545595 0.000643409 0)
(-0.0550449 0.00061627 0)
(-0.0555065 0.000585983 0)
(-0.0559417 0.000552368 0)
(-0.0563477 0.000515254 0)
(-0.0567217 0.000474473 0)
(-0.0570609 0.00042987 0)
(-0.0573621 0.000381302 0)
(-0.0576222 0.000328638 0)
(-0.057838 0.000271768 0)
(-0.0580062 0.000210601 0)
(-0.0581234 0.000145071 0)
(-0.0581863 7.51354e-05 0)
(-0.0581914 7.85889e-07 0)
(-0.0581354 -7.79544e-05 0)
(-0.0580149 -0.000161024 0)
(-0.0578268 -0.000248322 0)
(-0.0575677 -0.000339703 0)
(-0.0572347 -0.000434975 0)
(-0.056825 -0.000533898 0)
(-0.056336 -0.000636179 0)
(-0.0557652 -0.000741473 0)
(-0.0551107 -0.000849377 0)
(-0.0543707 -0.000959433 0)
(-0.0535438 -0.00107113 0)
(-0.0526291 -0.00118388 0)
(-0.0516263 -0.00129708 0)
(-0.0505353 -0.00141003 0)
(-0.0493567 -0.001522 0)
(-0.0480918 -0.00163221 0)
(-0.0467424 -0.00173984 0)
(-0.0453109 -0.00184403 0)
(-0.0438004 -0.00194387 0)
(-0.0422147 -0.00203848 0)
(-0.0405584 -0.0021269 0)
(-0.0388367 -0.00220821 0)
(-0.0370556 -0.00228149 0)
(-0.0352215 -0.00234581 0)
(-0.033342 -0.0024003 0)
(-0.0314248 -0.0024441 0)
(-0.0294787 -0.00247642 0)
(-0.0275128 -0.00249652 0)
(-0.0255367 -0.00250373 0)
(-0.0235607 -0.00249746 0)
(-0.0215953 -0.00247721 0)
(-0.0196514 -0.0024426 0)
(-0.0177402 -0.00239331 0)
(-0.015873 -0.00232918 0)
(-0.0140611 -0.00225015 0)
(-0.012316 -0.00215627 0)
(-0.0106488 -0.00204774 0)
(-0.00907055 -0.0019249 0)
(-0.00759184 -0.00178823 0)
(-0.00622274 -0.0016384 0)
(-0.00497268 -0.00147628 0)
(-0.00385018 -0.00130299 0)
(-0.00286264 -0.00112002 0)
(-0.00201601 -0.000929323 0)
(-0.00131432 -0.000733591 0)
(-0.000759109 -0.000536583 0)
(-0.000348527 -0.000343705 0)
(-7.61983e-05 -0.000162903 0)
(7.01062e-05 -5.99546e-06 0)
(0.000110493 0.000109558 0)
(7.83857e-05 0.000158313 0)
(2.47409e-05 0.000103289 0)
(1.11187e-05 -7.37051e-05 0)
(3.64833e-05 -0.000123659 0)
(5.4241e-05 -0.000104294 0)
(3.99015e-05 -3.73971e-05 0)
(-2.27989e-05 6.15862e-05 0)
(-0.000143991 0.000180758 0)
(-0.000330191 0.000311127 0)
(-0.000584964 0.000446066 0)
(-0.000909459 0.000580834 0)
(-0.00130299 0.000712042 0)
(-0.00176347 0.00083736 0)
(-0.00228783 0.000955245 0)
(-0.00287231 0.00106471 0)
(-0.00351267 0.00116522 0)
(-0.00420441 0.00125656 0)
(-0.00494294 0.00133876 0)
(-0.00572363 0.00141202 0)
(-0.00654196 0.00147668 0)
(-0.00739356 0.00153315 0)
(-0.00827423 0.00158192 0)
(-0.00918004 0.00162352 0)
(-0.0101073 0.0016585 0)
(-0.0110526 0.0016874 0)
(-0.0120127 0.00171078 0)
(-0.0129849 0.00172916 0)
(-0.0139664 0.00174306 0)
(-0.0149549 0.00175297 0)
(-0.0159483 0.00175934 0)
(-0.0169448 0.0017626 0)
(-0.0179427 0.00176316 0)
(-0.0189405 0.00176137 0)
(-0.019937 0.00175759 0)
(-0.020931 0.00175211 0)
(-0.0219218 0.00174521 0)
(-0.0229085 0.00173713 0)
(-0.0238904 0.00172812 0)
(-0.0248671 0.00171835 0)
(-0.025838 0.00170802 0)
(-0.026803 0.00169727 0)
(-0.0277617 0.00168625 0)
(-0.028714 0.00167507 0)
(-0.0296597 0.00166386 0)
(-0.0305989 0.0016527 0)
(-0.0315316 0.00164167 0)
(-0.0324578 0.00163086 0)
(-0.0333776 0.00162032 0)
(-0.0342912 0.00161011 0)
(-0.0351988 0.00160029 0)
(-0.0361005 0.00159089 0)
(-0.0369966 0.00158196 0)
(-0.0378873 0.00157354 0)
(-0.0387729 0.00156564 0)
(-0.0396536 0.00155831 0)
(-0.0405299 0.00155155 0)
(-0.041402 0.0015454 0)
(-0.0422701 0.00153986 0)
(-0.0431348 0.00153495 0)
(-0.0439962 0.00153067 0)
(-0.0448547 0.00152703 0)
(-0.0457107 0.00152403 0)
(-0.0465645 0.00152166 0)
(-0.0474164 0.00151991 0)
(-0.0482668 0.00151876 0)
(-0.0491159 0.00151819 0)
(-0.0499641 0.00151817 0)
(-0.0508116 0.00151866 0)
(-0.0516587 0.00151963 0)
(-0.0525056 0.00152101 0)
(-0.0533525 0.00152275 0)
(-0.0541995 0.00152478 0)
(-0.0550468 0.00152702 0)
(-0.0558944 0.00152938 0)
(-0.0567423 0.00153176 0)
(-0.0575905 0.00153404 0)
(-0.0584388 0.00153611 0)
(-0.0592871 0.00153782 0)
(-0.060135 0.00153903 0)
(-0.0609823 0.00153957 0)
(-0.0618284 0.00153927 0)
(-0.0626729 0.00153793 0)
(-0.063515 0.00153535 0)
(-0.0643539 0.00153132 0)
(-0.0651888 0.0015256 0)
(-0.0660186 0.00151795 0)
(-0.0668421 0.0015081 0)
(-0.0676581 0.00149578 0)
(-0.068465 0.00148071 0)
(-0.0692613 0.00146258 0)
(-0.070045 0.00144109 0)
(-0.0708144 0.00141592 0)
(-0.0715671 0.00138673 0)
(-0.072301 0.00135319 0)
(-0.0730134 0.00131495 0)
(-0.0737018 0.00127167 0)
(-0.0743632 0.00122299 0)
(-0.0749947 0.00116858 0)
(-0.075593 0.00110808 0)
(-0.0761546 0.00104117 0)
(-0.0766761 0.000967519 0)
(-0.0771537 0.000886822 0)
(-0.0775836 0.000798791 0)
(-0.0779616 0.000703162 0)
(-0.0782837 0.000599701 0)
(-0.0785457 0.00048821 0)
(-0.0787432 0.00036853 0)
(-0.0788718 0.00024055 0)
(-0.0789271 0.000104209 0)
(-0.0789048 -4.04946e-05 0)
(-0.0788003 -0.000193497 0)
(-0.0786095 -0.000354663 0)
(-0.0783282 -0.000523783 0)
(-0.0779522 -0.000700561 0)
(-0.0774777 -0.000884616 0)
(-0.0769011 -0.00107547 0)
(-0.0762191 -0.00127256 0)
(-0.0754287 -0.00147519 0)
(-0.0745273 -0.00168261 0)
(-0.0735129 -0.00189391 0)
(-0.0723837 -0.00210811 0)
(-0.0711387 -0.00232412 0)
(-0.0697776 -0.00254074 0)
(-0.0683005 -0.00275666 0)
(-0.0667083 -0.00297049 0)
(-0.0650027 -0.00318075 0)
(-0.0631864 -0.00338589 0)
(-0.0612624 -0.00358426 0)
(-0.0592352 -0.0037742 0)
(-0.0571097 -0.00395398 0)
(-0.054892 -0.00412184 0)
(-0.052589 -0.00427605 0)
(-0.0502085 -0.00441484 0)
(-0.0477592 -0.00453652 0)
(-0.0452506 -0.00463942 0)
(-0.0426933 -0.00472195 0)
(-0.0400985 -0.00478262 0)
(-0.037478 -0.00482004 0)
(-0.0348446 -0.00483298 0)
(-0.0322115 -0.00482034 0)
(-0.0295925 -0.0047812 0)
(-0.0270016 -0.00471484 0)
(-0.0244534 -0.00462072 0)
(-0.0219626 -0.00449853 0)
(-0.0195438 -0.00434821 0)
(-0.0172118 -0.00416992 0)
(-0.0149809 -0.00396411 0)
(-0.0128653 -0.00373149 0)
(-0.0108785 -0.00347309 0)
(-0.00903331 -0.00319031 0)
(-0.00734155 -0.00288497 0)
(-0.00581383 -0.00255941 0)
(-0.00445918 -0.00221667 0)
(-0.00328467 -0.00186071 0)
(-0.00229488 -0.00149681 0)
(-0.00149121 -0.00113208 0)
(-0.000871027 -0.000776329 0)
(-0.00042657 -0.000443256 0)
(-0.000143705 -0.000152148 0)
(-2.66471e-07 7.00991e-05 0)
(3.74826e-05 0.000186183 0)
(1.75185e-05 0.000141712 0)
(7.5839e-06 -9.06036e-05 0)
(1.66304e-05 -0.000137082 0)
(1.20422e-06 -8.86778e-05 0)
(-6.05562e-05 2.53122e-05 0)
(-0.00018407 0.000184251 0)
(-0.000379467 0.000372034 0)
(-0.000653285 0.000576203 0)
(-0.00100907 0.000787389 0)
(-0.00144791 0.000998621 0)
(-0.00196898 0.00120483 0)
(-0.00256991 0.00140242 0)
(-0.00324723 0.0015889 0)
(-0.00399664 0.00176264 0)
(-0.00481329 0.00192271 0)
(-0.00569198 0.00206865 0)
(-0.00662736 0.00220041 0)
(-0.00761399 0.00231821 0)
(-0.00864656 0.00242251 0)
(-0.00971986 0.00251391 0)
(-0.0108289 0.00259312 0)
(-0.0119689 0.00266092 0)
(-0.0131355 0.00271813 0)
(-0.0143245 0.00276561 0)
(-0.0155321 0.00280418 0)
(-0.0167546 0.00283469 0)
(-0.017989 0.00285792 0)
(-0.0192323 0.00287465 0)
(-0.0204819 0.0028856 0)
(-0.0217355 0.00289145 0)
(-0.0229909 0.00289284 0)
(-0.0242464 0.00289035 0)
(-0.0255003 0.00288453 0)
(-0.0267513 0.00287586 0)
(-0.0279983 0.0028648 0)
(-0.02924 0.00285175 0)
(-0.0304759 0.00283708 0)
(-0.0317051 0.0028211 0)
(-0.032927 0.00280412 0)
(-0.0341413 0.00278639 0)
(-0.0353476 0.00276815 0)
(-0.0365456 0.00274959 0)
(-0.0377353 0.0027309 0)
(-0.0389165 0.00271224 0)
(-0.0400892 0.00269375 0)
(-0.0412535 0.00267555 0)
(-0.0424094 0.00265775 0)
(-0.0435572 0.00264046 0)
(-0.044697 0.00262375 0)
(-0.0458291 0.0026077 0)
(-0.0469536 0.00259238 0)
(-0.048071 0.00257785 0)
(-0.0491815 0.00256416 0)
(-0.0502855 0.00255135 0)
(-0.0513833 0.00253946 0)
(-0.0524754 0.00252853 0)
(-0.053562 0.00251857 0)
(-0.0546436 0.00250961 0)
(-0.0557207 0.00250166 0)
(-0.0567935 0.00249472 0)
(-0.0578625 0.00248879 0)
(-0.0589282 0.00248387 0)
(-0.0599909 0.00247992 0)
(-0.061051 0.00247692 0)
(-0.0621088 0.00247483 0)
(-0.0631648 0.00247361 0)
(-0.0642192 0.00247319 0)
(-0.0652723 0.0024735 0)
(-0.0663244 0.00247445 0)
(-0.0673758 0.00247594 0)
(-0.0684264 0.00247786 0)
(-0.0694766 0.00248007 0)
(-0.0705263 0.00248243 0)
(-0.0715755 0.00248477 0)
(-0.0726242 0.00248691 0)
(-0.073672 0.00248864 0)
(-0.0747189 0.00248974 0)
(-0.0757644 0.00248997 0)
(-0.076808 0.00248906 0)
(-0.0778492 0.00248673 0)
(-0.0788871 0.00248266 0)
(-0.0799211 0.00247653 0)
(-0.08095 0.00246798 0)
(-0.0819728 0.00245664 0)
(-0.0829881 0.00244211 0)
(-0.0839944 0.00242398 0)
(-0.0849901 0.0024018 0)
(-0.0859734 0.00237511 0)
(-0.0869422 0.00234344 0)
(-0.0878943 0.00230629 0)
(-0.0888272 0.00226314 0)
(-0.0897384 0.00221348 0)
(-0.0906248 0.00215676 0)
(-0.0914836 0.00209244 0)
(-0.0923113 0.00201997 0)
(-0.0931045 0.0019388 0)
(-0.0938594 0.00184839 0)
(-0.0945721 0.0017482 0)
(-0.0952384 0.0016377 0)
(-0.095854 0.00151639 0)
(-0.0964144 0.0013838 0)
(-0.0969148 0.00123949 0)
(-0.0973505 0.00108304 0)
(-0.0977163 0.000914101 0)
(-0.0980072 0.000732382 0)
(-0.098218 0.000537649 0)
(-0.0983434 0.000329744 0)
(-0.0983782 0.000108596 0)
(-0.098317 -0.000125775 0)
(-0.0981547 -0.000373243 0)
(-0.0978861 -0.000633569 0)
(-0.0975061 -0.000906394 0)
(-0.0970102 -0.00119122 0)
(-0.0963936 -0.00148743 0)
(-0.0956521 -0.00179424 0)
(-0.0947819 -0.00211071 0)
(-0.0937795 -0.00243575 0)
(-0.092642 -0.00276812 0)
(-0.0913668 -0.00310639 0)
(-0.0899523 -0.00344898 0)
(-0.0883973 -0.00379414 0)
(-0.0867014 -0.00413996 0)
(-0.084865 -0.00448438 0)
(-0.0828894 -0.00482518 0)
(-0.0807768 -0.00516002 0)
(-0.0785302 -0.00548644 0)
(-0.0761539 -0.00580187 0)
(-0.073653 -0.00610366 0)
(-0.0710337 -0.00638909 0)
(-0.0683034 -0.00665542 0)
(-0.0654703 -0.00689988 0)
(-0.062544 -0.00711975 0)
(-0.0595349 -0.00731233 0)
(-0.0564547 -0.00747502 0)
(-0.0533159 -0.00760533 0)
(-0.0501319 -0.00770093 0)
(-0.0469172 -0.00775965 0)
(-0.0436868 -0.00777955 0)
(-0.0404567 -0.00775894 0)
(-0.0372433 -0.00769639 0)
(-0.0340635 -0.00759078 0)
(-0.0309347 -0.00744131 0)
(-0.0278743 -0.00724754 0)
(-0.0248999 -0.00700941 0)
(-0.0220289 -0.00672727 0)
(-0.0192785 -0.00640189 0)
(-0.0166654 -0.00603452 0)
(-0.0142055 -0.00562693 0)
(-0.0119139 -0.00518149 0)
(-0.00980429 -0.00470128 0)
(-0.00788902 -0.00419021 0)
(-0.00617844 -0.0036533 0)
(-0.00468052 -0.00309699 0)
(-0.00340038 -0.00252962 0)
(-0.00233953 -0.00196218 0)
(-0.00149517 -0.00140924 0)
(-0.000859245 -0.000890416 0)
(-0.000417326 -0.000432226 0)
(-0.000147355 -7.02844e-05 0)
(-1.87629e-05 0.000147685 0)
(7.27885e-06 0.000153108 0)
(3.19571e-06 -9.53981e-05 0)
(-8.35815e-06 -0.000120278 0)
(-6.51284e-05 -2.73127e-05 0)
(-0.000184317 0.000148071 0)
(-0.000379272 0.000380509 0)
(-0.000659441 0.000649975 0)
(-0.00103078 0.000940757 0)
(-0.0014964 0.00124076 0)
(-0.00205706 0.00154081 0)
(-0.00271154 0.00183412 0)
(-0.00345714 0.0021157 0)
(-0.00428995 0.00238205 0)
(-0.0052052 0.00263085 0)
(-0.00619751 0.00286065 0)
(-0.00726107 0.00307071 0)
(-0.0083899 0.00326086 0)
(-0.00957791 0.00343131 0)
(-0.0108191 0.00358261 0)
(-0.0121075 0.00371555 0)
(-0.0134375 0.00383106 0)
(-0.0148038 0.00393022 0)
(-0.016201 0.00401414 0)
(-0.0176246 0.004084 0)
(-0.01907 0.00414096 0)
(-0.0205331 0.00418619 0)
(-0.0220102 0.00422081 0)
(-0.0234978 0.00424591 0)
(-0.024993 0.00426252 0)
(-0.0264929 0.00427162 0)
(-0.027995 0.00427411 0)
(-0.0294972 0.00427084 0)
(-0.0309976 0.00426259 0)
(-0.0324945 0.00425007 0)
(-0.0339865 0.00423395 0)
(-0.0354723 0.0042148 0)
(-0.0369508 0.00419316 0)
(-0.0384214 0.00416952 0)
(-0.0398831 0.0041443 0)
(-0.0413355 0.00411789 0)
(-0.0427781 0.00409063 0)
(-0.0442106 0.00406282 0)
(-0.0456328 0.00403474 0)
(-0.0470446 0.00400663 0)
(-0.0484459 0.00397869 0)
(-0.0498367 0.00395112 0)
(-0.0512171 0.00392408 0)
(-0.0525874 0.00389772 0)
(-0.0539477 0.00387217 0)
(-0.0552982 0.00384755 0)
(-0.0566393 0.00382395 0)
(-0.0579713 0.00380147 0)
(-0.0592945 0.00378018 0)
(-0.0606093 0.00376015 0)
(-0.0619162 0.00374144 0)
(-0.0632156 0.00372409 0)
(-0.0645079 0.00370815 0)
(-0.0657936 0.00369363 0)
(-0.0670731 0.00368056 0)
(-0.0683469 0.00366895 0)
(-0.0696155 0.00365878 0)
(-0.0708793 0.00365004 0)
(-0.0721388 0.0036427 0)
(-0.0733945 0.00363672 0)
(-0.0746467 0.00363203 0)
(-0.0758958 0.00362856 0)
(-0.0771423 0.00362622 0)
(-0.0783863 0.00362491 0)
(-0.0796283 0.00362448 0)
(-0.0808684 0.00362479 0)
(-0.0821069 0.00362567 0)
(-0.0833437 0.00362692 0)
(-0.084579 0.00362833 0)
(-0.0858128 0.00362964 0)
(-0.0870448 0.0036306 0)
(-0.0882748 0.00363089 0)
(-0.0895026 0.00363019 0)
(-0.0907276 0.00362815 0)
(-0.0919492 0.00362437 0)
(-0.0931668 0.00361844 0)
(-0.0943794 0.0036099 0)
(-0.095586 0.00359828 0)
(-0.0967855 0.00358306 0)
(-0.0979764 0.0035637 0)
(-0.0991572 0.00353962 0)
(-0.100326 0.0035102 0)
(-0.101481 0.00347483 0)
(-0.10262 0.00343283 0)
(-0.103741 0.00338351 0)
(-0.10484 0.00332616 0)
(-0.105916 0.00326004 0)
(-0.106965 0.0031844 0)
(-0.107983 0.00309847 0)
(-0.108967 0.00300146 0)
(-0.109913 0.00289261 0)
(-0.110818 0.00277112 0)
(-0.111676 0.00263622 0)
(-0.112484 0.00248715 0)
(-0.113235 0.00232318 0)
(-0.113926 0.00214359 0)
(-0.114552 0.00194772 0)
(-0.115105 0.00173494 0)
(-0.115582 0.00150471 0)
(-0.115976 0.00125654 0)
(-0.116282 0.000990014 0)
(-0.116493 0.00070484 0)
(-0.116604 0.000400819 0)
(-0.116608 7.78738e-05 0)
(-0.1165 -0.000263933 0)
(-0.116273 -0.000624393 0)
(-0.115921 -0.00100313 0)
(-0.11544 -0.0013996 0)
(-0.114824 -0.00181307 0)
(-0.114067 -0.00224261 0)
(-0.113165 -0.00268706 0)
(-0.112113 -0.00314508 0)
(-0.110908 -0.00361508 0)
(-0.109546 -0.00409524 0)
(-0.108025 -0.00458351 0)
(-0.106343 -0.00507761 0)
(-0.104498 -0.00557503 0)
(-0.102491 -0.00607303 0)
(-0.100322 -0.00656865 0)
(-0.097992 -0.00705874 0)
(-0.0955044 -0.00753995 0)
(-0.0928625 -0.00800876 0)
(-0.0900714 -0.00846152 0)
(-0.0871369 -0.00889445 0)
(-0.0840663 -0.0093037 0)
(-0.0808681 -0.00968537 0)
(-0.0775517 -0.0100355 0)
(-0.0741282 -0.0103503 0)
(-0.0706096 -0.0106259 0)
(-0.067009 -0.0108586 0)
(-0.063341 -0.0110449 0)
(-0.0596208 -0.0111815 0)
(-0.055865 -0.0112653 0)
(-0.0520907 -0.0112937 0)
(-0.0483162 -0.0112641 0)
(-0.0445601 -0.0111746 0)
(-0.0408419 -0.0110236 0)
(-0.037181 -0.0108102 0)
(-0.0335976 -0.0105336 0)
(-0.0301115 -0.0101938 0)
(-0.0267426 -0.00979149 0)
(-0.0235103 -0.00932781 0)
(-0.0204334 -0.0088047 0)
(-0.0175299 -0.00822482 0)
(-0.0148169 -0.00759173 0)
(-0.0123096 -0.00691 0)
(-0.0100219 -0.00618542 0)
(-0.00796529 -0.00542531 0)
(-0.00614867 -0.00463888 0)
(-0.00457782 -0.00383787 0)
(-0.00325479 -0.00303729 0)
(-0.00217727 -0.00225657 0)
(-0.00133785 -0.00152101 0)
(-0.000723163 -0.000863756 0)
(-0.000312791 -0.000327938 0)
(-8.17404e-05 3.03103e-05 0)
(-3.90216e-06 0.000132393 0)
(-1.55883e-06 -8.6259e-05 0)
(-3.62462e-05 -6.8138e-05 0)
(-0.000139732 8.71376e-05 0)
(-0.000323337 0.000339441 0)
(-0.000597536 0.000659407 0)
(-0.00097046 0.00102356 0)
(-0.00144708 0.00141318 0)
(-0.00202966 0.00181366 0)
(-0.00271829 0.00221374 0)
(-0.00351125 0.0026049 0)
(-0.00440531 0.00298079 0)
(-0.0053961 0.0033369 0)
(-0.00647834 0.00367012 0)
(-0.00764614 0.00397849 0)
(-0.00889317 0.00426094 0)
(-0.0102129 0.00451713 0)
(-0.0115986 0.00474726 0)
(-0.0130437 0.00495198 0)
(-0.0145417 0.00513223 0)
(-0.0160864 0.0052892 0)
(-0.0176718 0.00542423 0)
(-0.0192921 0.00553877 0)
(-0.020942 0.00563435 0)
(-0.0226165 0.00571248 0)
(-0.0243111 0.00577469 0)
(-0.0260215 0.00582247 0)
(-0.0277438 0.00585725 0)
(-0.0294746 0.00588041 0)
(-0.0312107 0.00589325 0)
(-0.0329492 0.00589698 0)
(-0.0346877 0.00589275 0)
(-0.036424 0.00588159 0)
(-0.0381561 0.0058645 0)
(-0.0398823 0.00584233 0)
(-0.0416013 0.00581591 0)
(-0.0433117 0.00578596 0)
(-0.0450126 0.00575314 0)
(-0.0467031 0.00571804 0)
(-0.0483826 0.00568119 0)
(-0.0500504 0.00564307 0)
(-0.0517061 0.0056041 0)
(-0.0533496 0.00556465 0)
(-0.0549807 0.00552507 0)
(-0.0565991 0.00548564 0)
(-0.058205 0.00544663 0)
(-0.0597984 0.00540828 0)
(-0.0613796 0.00537079 0)
(-0.0629486 0.00533435 0)
(-0.0645058 0.00529912 0)
(-0.0660515 0.00526524 0)
(-0.067586 0.00523284 0)
(-0.0691098 0.00520203 0)
(-0.0706232 0.0051729 0)
(-0.0721268 0.00514553 0)
(-0.0736209 0.00512 0)
(-0.0751062 0.00509634 0)
(-0.0765831 0.0050746 0)
(-0.0780521 0.00505479 0)
(-0.0795137 0.00503694 0)
(-0.0809685 0.00502103 0)
(-0.082417 0.00500703 0)
(-0.0838596 0.0049949 0)
(-0.0852969 0.00498457 0)
(-0.0867293 0.00497597 0)
(-0.0881573 0.00496899 0)
(-0.0895813 0.0049635 0)
(-0.0910015 0.00495935 0)
(-0.0924183 0.00495635 0)
(-0.093832 0.0049543 0)
(-0.0952427 0.00495295 0)
(-0.0966506 0.00495205 0)
(-0.0980555 0.00495128 0)
(-0.0994575 0.00495031 0)
(-0.100856 0.00494877 0)
(-0.102252 0.00494624 0)
(-0.103644 0.00494228 0)
(-0.105031 0.0049364 0)
(-0.106413 0.00492807 0)
(-0.107789 0.0049167 0)
(-0.109159 0.00490171 0)
(-0.11052 0.00488242 0)
(-0.111871 0.00485814 0)
(-0.113212 0.00482813 0)
(-0.114539 0.00479161 0)
(-0.115852 0.00474775 0)
(-0.117147 0.00469571 0)
(-0.118423 0.00463458 0)
(-0.119676 0.00456343 0)
(-0.120904 0.0044813 0)
(-0.122104 0.00438721 0)
(-0.123271 0.00428013 0)
(-0.124402 0.00415905 0)
(-0.125493 0.00402292 0)
(-0.126539 0.00387071 0)
(-0.127537 0.00370136 0)
(-0.128481 0.00351386 0)
(-0.129365 0.00330719 0)
(-0.130186 0.00308038 0)
(-0.130936 0.0028325 0)
(-0.131611 0.00256268 0)
(-0.132203 0.0022701 0)
(-0.132708 0.00195406 0)
(-0.133118 0.00161392 0)
(-0.133427 0.00124917 0)
(-0.133628 0.000859441 0)
(-0.133715 0.000444499 0)
(-0.133681 4.27775e-06 0)
(-0.13352 -0.000461106 0)
(-0.133224 -0.000951333 0)
(-0.132788 -0.00146587 0)
(-0.132205 -0.00200395 0)
(-0.13147 -0.00256455 0)
(-0.130577 -0.00314639 0)
(-0.12952 -0.00374791 0)
(-0.128295 -0.00436727 0)
(-0.126898 -0.0050023 0)
(-0.125326 -0.00565056 0)
(-0.123575 -0.0063093 0)
(-0.121643 -0.00697543 0)
(-0.11953 -0.0076456 0)
(-0.117235 -0.00831613 0)
(-0.114758 -0.00898307 0)
(-0.112103 -0.0096422 0)
(-0.109271 -0.0102891 0)
(-0.106267 -0.0109189 0)
(-0.103096 -0.011527 0)
(-0.0997657 -0.0121082 0)
(-0.0962832 -0.0126574 0)
(-0.0926582 -0.0131695 0)
(-0.0889013 -0.0136392 0)
(-0.0850247 -0.0140614 0)
(-0.0810417 -0.0144309 0)