/*--------------------------------*- C++ -*----------------------------------*\
  =========                 |
  \\      /  F ield         | OpenFOAM: The Open Source CFD Toolbox
   \\    /   O peration     | Website:  https://openfoam.org
    \\  /    A nd           | Version:  7
     \\/     M anipulation  |
\*---------------------------------------------------------------------------*/
FoamFile
{
    version     2.0;
    format      ascii;
    class       volScalarField;
    location    "0.4625";
    object      p;
}
// * * * * * * * * * * * * * * * * * * * * * * * * * * * * * * * * * * * * * //

dimensions      [0 2 -2 0 0 0 0];

internalField   nonuniform List<scalar> 
12800
(
7.14955e-07
2.82186e-05
-4.9684e-06
-0.000110489
-0.000280892
-0.000506378
-0.000776415
-0.00108068
-0.00140977
-0.00175542
-0.00211067
-0.00246925
-0.00282623
-0.00317739
-0.00351929
-0.00384915
-0.00416478
-0.0044645
-0.00474708
-0.00501165
-0.00525763
-0.0054847
-0.00569276
-0.00588188
-0.00605227
-0.00620422
-0.00633813
-0.00645442
-0.00655356
-0.00663601
-0.00670225
-0.00675272
-0.00678787
-0.00680809
-0.00681375
-0.00680515
-0.00678257
-0.00674622
-0.00669625
-0.00663279
-0.00655587
-0.00646551
-0.00636164
-0.00624416
-0.0061129
-0.00596765
-0.00580815
-0.00563407
-0.00544505
-0.00524067
-0.00502046
-0.00478391
-0.00453045
-0.00425947
-0.00397032
-0.00366227
-0.00333457
-0.00298641
-0.00261694
-0.00222524
-0.00181035
-0.00137127
-0.000906929
-0.000416212
0.000102051
0.000649082
0.00122616
0.00183461
0.00247582
0.00315121
0.00386229
0.00461057
0.00539766
0.00622519
0.00709483
0.00800831
0.0089674
0.00997389
0.0110296
0.0121364
0.0132961
0.0145107
0.015782
0.0171118
0.0185021
0.0199547
0.0214713
0.0230537
0.0247036
0.0264226
0.028212
0.0300733
0.0320077
0.0340162
0.0360996
0.0382587
0.0404938
0.0428051
0.0451923
0.0476551
0.0501927
0.0528038
0.0554868
0.0582398
0.0610602
0.0639451
0.066891
0.069894
0.0729494
0.0760522
0.0791966
0.0823765
0.0855848
0.0888142
0.0920567
0.0953037
0.098546
0.101774
0.104978
0.108147
0.111271
0.114338
0.117338
0.120258
0.123087
0.125815
0.12843
0.130921
0.133278
0.135492
0.137553
0.139452
0.141184
0.142741
0.144118
0.145312
0.14632
0.147142
0.147777
0.148229
0.1485
0.148597
0.148526
0.148297
0.14792
0.147408
0.146774
0.146035
0.145209
0.144315
0.143376
0.142416
0.141461
0.140542
0.139693
0.138949
0.138351
0.137939
0.137752
0.13778
-2.57306e-05
1.39065e-06
-3.33425e-05
-0.00013031
-0.000280689
-0.000477749
-0.000713979
-0.000981407
-0.00127239
-0.00157997
-0.00189798
-0.00222097
-0.00254431
-0.00286406
-0.00317691
-0.00348014
-0.00377156
-0.00404944
-0.00431245
-0.00455959
-0.00479016
-0.00500367
-0.00519988
-0.00537871
-0.00554019
-0.00568448
-0.00581182
-0.00592249
-0.00601684
-0.00609519
-0.00615791
-0.00620533
-0.0062378
-0.00625563
-0.00625908
-0.00624841
-0.00622381
-0.00618543
-0.0061334
-0.00606776
-0.00598854
-0.00589569
-0.00578913
-0.00566873
-0.00553431
-0.00538563
-0.00522242
-0.00504434
-0.00485101
-0.00464203
-0.0044169
-0.00417514
-0.00391616
-0.00363937
-0.00334411
-0.00302967
-0.00269532
-0.00234026
-0.00196364
-0.00156458
-0.00114214
-0.000695327
-0.000223116
0.000275585
0.000801912
0.00135705
0.00194224
0.00255876
0.00320795
0.00389118
0.0046099
0.00536558
0.00615974
0.00699395
0.00786982
0.008789
0.00975316
0.010764
0.0118233
0.0129328
0.0140942
0.0153093
0.0165799
0.0179078
0.0192947
0.0207423
0.0222523
0.0238262
0.0254657
0.027172
0.0289467
0.0307909
0.0327057
0.0346919
0.0367503
0.0388815
0.0410857
0.0433629
0.0457129
0.0481351
0.0506286
0.0531922
0.0558242
0.0585225
0.0612847
0.0641078
0.0669884
0.0699225
0.0729057
0.0759329
0.0789987
0.0820968
0.0852208
0.0883635
0.091517
0.0946732
0.0978234
0.100958
0.104069
0.107144
0.110175
0.11315
0.116059
0.118892
0.121636
0.124283
0.126822
0.129241
0.131533
0.133688
0.135697
0.137553
0.139249
0.14078
0.142141
0.143328
0.14434
0.145177
0.145838
0.146327
0.146646
0.146803
0.146803
0.146656
0.146371
0.145961
0.145439
0.144821
0.144123
0.143364
0.142564
0.141747
0.140935
0.140157
0.139439
0.138812
0.138305
0.137949
0.137779
0.137807
7.693e-06
3.62831e-05
1.27174e-06
-9.11087e-05
-0.00023013
-0.000410056
-0.000624838
-0.000867867
-0.0011327
-0.00141336
-0.00170442
-0.00200104
-0.00229898
-0.00259459
-0.00288476
-0.00316689
-0.00343885
-0.00369893
-0.00394577
-0.00417832
-0.00439579
-0.00459764
-0.0047835
-0.0049532
-0.00510667
-0.00524396
-0.0053652
-0.00547058
-0.00556032
-0.00563468
-0.00569391
-0.00573829
-0.00576806
-0.00578347
-0.00578472
-0.005772
-0.00574545
-0.00570517
-0.00565124
-0.00558367
-0.00550244
-0.00540749
-0.0052987
-0.00517592
-0.00503895
-0.00488755
-0.00472141
-0.00454019
-0.00434352
-0.00413098
-0.00390207
-0.00365631
-0.00339311
-0.00311189
-0.002812
-0.00249273
-0.00215337
-0.00179311
-0.00141115
-0.00100661
-0.000578562
-0.000126054
0.00035193
0.000856448
0.00138861
0.00194956
0.00254052
0.00316271
0.00381744
0.00450604
0.0052299
0.00599044
0.00678914
0.00762751
0.00850708
0.00942945
0.0103962
0.011409
0.0124695
0.0135794
0.0147404
0.0159541
0.0172222
0.0185465
0.0199285
0.0213698
0.0228721
0.0244369
0.0260655
0.0277593
0.0295196
0.0313474
0.0332438
0.0352095
0.0372453
0.0393514
0.0415282
0.0437756
0.0460932
0.0484804
0.0509363
0.0534596
0.0560486
0.0587013
0.0614152
0.0641874
0.0670144
0.0698924
0.072817
0.0757833
0.078786
0.0818191
0.0848762
0.0879503
0.091034
0.0941193
0.0971978
0.100261
0.103299
0.106303
0.109262
0.112167
0.115008
0.117774
0.120456
0.123042
0.125523
0.127891
0.130134
0.132246
0.134217
0.136042
0.137713
0.139225
0.140575
0.141759
0.142776
0.143625
0.144307
0.144824
0.145181
0.145383
0.145437
0.14535
0.145135
0.144801
0.144361
0.143831
0.143227
0.142565
0.141865
0.141147
0.140434
0.139749
0.139115
0.138559
0.138105
0.137776
0.137608
0.137622
0.000113978
0.000133698
9.31449e-05
5.98292e-09
-0.000134925
-0.000306251
-0.000508603
-0.000736229
-0.00098356
-0.00124538
-0.0015169
-0.00179381
-0.00207226
-0.00234893
-0.00262093
-0.00288585
-0.00314166
-0.00338672
-0.00361969
-0.00383953
-0.00404543
-0.0042368
-0.00441324
-0.00457449
-0.00472044
-0.00485106
-0.0049664
-0.00506658
-0.00515174
-0.00522207
-0.00527775
-0.00531899
-0.00534597
-0.00535888
-0.00535787
-0.00534306
-0.00531456
-0.00527243
-0.00521669
-0.00514733
-0.00506429
-0.00496749
-0.0048568
-0.00473202
-0.00459295
-0.00443932
-0.00427082
-0.00408712
-0.00388781
-0.00367246
-0.00344061
-0.00319175
-0.0029253
-0.00264068
-0.00233725
-0.00201431
-0.00167115
-0.001307
-0.000921048
-0.000512437
-8.02696e-05
0.000376397
0.000858551
0.00136723
0.0019035
0.0024685
0.00306339
0.00368938
0.00434773
0.00503973
0.00576672
0.00653009
0.00733126
0.00817169
0.00905286
0.00997631
0.0109436
0.0119563
0.0130159
0.0141242
0.0152827
0.0164931
0.0177569
0.0190758
0.0204512
0.0218849
0.0233782
0.0249326
0.0265494
0.0282299
0.0299753
0.0317866
0.0336647
0.0356104
0.0376242
0.0397065
0.0418576
0.0440771
0.046365
0.0487203
0.0511423
0.0536297
0.0561806
0.0587932
0.061465
0.064193
0.066974
0.0698042
0.0726793
0.0755945
0.0785446
0.0815238
0.0845259
0.0875441
0.0905711
0.0935992
0.0966203
0.0996259
0.102607
0.105554
0.108458
0.111309
0.114098
0.116813
0.119446
0.121987
0.124426
0.126754
0.128962
0.131042
0.132987
0.134789
0.136443
0.137943
0.139287
0.14047
0.141492
0.142352
0.143051
0.143592
0.143978
0.144215
0.14431
0.144271
0.144107
0.14383
0.143452
0.142987
0.142451
0.141859
0.141229
0.14058
0.139932
0.139305
0.138722
0.138203
0.13777
0.137443
0.137252
0.137215
0.000286682
0.000285606
0.000232227
0.000132953
-3.26363e-06
-0.000171413
-0.000366676
-0.000584064
-0.000818753
-0.0010662
-0.00132222
-0.00158298
-0.00184507
-0.00210548
-0.00236161
-0.00261122
-0.00285245
-0.00308376
-0.00330386
-0.00351175
-0.00370664
-0.00388792
-0.00405518
-0.00420813
-0.00434659
-0.0044705
-0.00457984
-0.00467468
-0.00475509
-0.00482121
-0.00487315
-0.00491108
-0.00493511
-0.00494537
-0.00494197
-0.00492498
-0.00489447
-0.00485044
-0.0047929
-0.00472179
-0.00463703
-0.0045385
-0.00442605
-0.00429948
-0.00415854
-0.00400296
-0.00383243
-0.00364658
-0.00344503
-0.00322733
-0.00299301
-0.00274155
-0.00247241
-0.002185
-0.00187866
-0.00155274
-0.00120651
-0.000839234
-0.000450101
-3.82796e-05
0.000397109
0.000856987
0.00134232
0.00185411
0.00239341
0.00296132
0.00355896
0.00418751
0.00484819
0.00554226
0.00627102
0.00703579
0.00783797
0.00867894
0.00956017
0.0104831
0.0114493
0.0124601
0.0135173
0.0146223
0.0157766
0.0169819
0.0182396
0.0195514
0.0209186
0.0223429
0.0238255
0.0253679
0.0269714
0.0286371
0.0303663
0.0321598
0.0340185
0.0359431
0.0379342
0.0399921
0.0421169
0.0443085
0.0465665
0.0488903
0.051279
0.0537312
0.0562453
0.0588194
0.0614509
0.0641372
0.066875
0.0696605
0.0724897
0.0753578
0.0782598
0.08119
0.0841424
0.0871104
0.0900869
0.0930645
0.0960352
0.0989908
0.101922
0.104821
0.107678
0.110483
0.113227
0.115901
0.118494
0.120997
0.123401
0.125698
0.127878
0.129933
0.131857
0.133643
0.135284
0.136777
0.138117
0.139302
0.14033
0.141201
0.141916
0.142477
0.14289
0.143157
0.143287
0.143288
0.143168
0.142938
0.14261
0.142198
0.141715
0.141178
0.140601
0.140003
0.139402
0.138815
0.138262
0.13776
0.137329
0.136985
0.136748
0.136627
0.000517204
0.000486081
0.000413392
0.000302859
0.000160381
-9.49731e-06
-0.000202473
-0.000414247
-0.000640675
-0.000877833
-0.00112207
-0.00137005
-0.00161876
-0.00186554
-0.00210804
-0.00234429
-0.00257258
-0.00279148
-0.00299982
-0.00319664
-0.00338121
-0.00355293
-0.00371139
-0.00385629
-0.00398743
-0.00410471
-0.00420809
-0.00429756
-0.00437317
-0.004435
-0.00448312
-0.00451764
-0.00453863
-0.00454617
-0.00454032
-0.00452112
-0.00448859
-0.00444269
-0.0043834
-0.00431063
-0.00422426
-0.00412416
-0.00401015
-0.003882
-0.00373947
-0.00358225
-0.00341002
-0.00322242
-0.00301904
-0.00279944
-0.00256315
-0.00230965
-0.0020384
-0.0017488
-0.00144023
-0.00111203
-0.000763485
-0.000393866
-2.3904e-06
0.000411759
0.000849443
0.00131156
0.00179905
0.00231289
0.0028541
0.00342375
0.00402293
0.00465279
0.0053145
0.00600929
0.0067384
0.00750313
0.00830482
0.00914482
0.0100245
0.0109453
0.0119087
0.0129162
0.0139691
0.015069
0.0162175
0.0174159
0.0186659
0.0199688
0.0213261
0.0227392
0.0242096
0.0257384
0.027327
0.0289766
0.0306881
0.0324625
0.0343007
0.0362033
0.0381708
0.0402036
0.0423017
0.0444651
0.0466934
0.048986
0.0513419
0.0537598
0.0562383
0.0587754
0.0613687
0.0640155
0.0667127
0.0694566
0.0722433
0.0750683
0.0779265
0.0808125
0.0837205
0.0866439
0.0895761
0.0925095
0.0954366
0.0983492
0.101239
0.104097
0.106914
0.109682
0.11239
0.115029
0.11759
0.120064
0.122442
0.124714
0.126873
0.128911
0.130821
0.132595
0.134229
0.135718
0.137058
0.138246
0.139282
0.140164
0.140895
0.141476
0.141911
0.142205
0.142365
0.142398
0.142314
0.142122
0.141834
0.141463
0.141022
0.140525
0.139987
0.139425
0.138853
0.138289
0.137749
0.137248
0.136801
0.136425
0.136124
0.135899
0.00079611
0.000728351
0.000631114
0.000504802
0.000351607
0.000175561
-1.94713e-05
-0.000229844
-0.000452032
-0.000682677
-0.00091864
-0.00115703
-0.00139524
-0.00163094
-0.0018621
-0.00208694
-0.00230397
-0.0025119
-0.00270967
-0.00289642
-0.00307148
-0.00323429
-0.00338447
-0.00352171
-0.00364582
-0.00375667
-0.00385421
-0.0039384
-0.00400926
-0.00406683
-0.00411113
-0.00414223
-0.00416018
-0.004165
-0.00415672
-0.00413534
-0.00410083
-0.00405314
-0.00399219
-0.00391788
-0.00383008
-0.0037286
-0.00361325
-0.0034838
-0.00333996
-0.00318144
-0.00300789
-0.00281894
-0.00261418
-0.00239317
-0.00215543
-0.00190046
-0.0016277
-0.00133658
-0.00102647
-0.000696713
-0.000346631
2.45051e-05
0.000417456
0.000833022
0.00127204
0.00173539
0.00222398
0.00273877
0.00328075
0.00385094
0.00445042
0.00508029
0.00574168
0.00643579
0.00716382
0.00792703
0.0087267
0.00956415
0.0104407
0.0113578
0.0123167
0.013319
0.014366
0.0154591
0.0165999
0.0177898
0.0190302
0.0203225
0.0216681
0.0230685
0.0245248
0.0260385
0.0276107
0.0292426
0.0309351
0.0326892
0.0345057
0.0363853
0.0383285
0.0403356
0.0424066
0.0445416
0.0467402
0.0490017
0.0513254
0.05371
0.0561541
0.0586556
0.0612125
0.0638221
0.0664814
0.0691868
0.0719346
0.0747202
0.077539
0.0803855
0.0832542
0.0861386
0.0890322
0.0919279
0.094818
0.0976947
0.10055
0.103374
0.10616
0.108897
0.111577
0.114191
0.116728
0.119181
0.121539
0.123796
0.125941
0.127968
0.129869
0.131639
0.13327
0.13476
0.136103
0.137298
0.138343
0.139238
0.139984
0.140582
0.141038
0.141355
0.14154
0.1416
0.141544
0.141382
0.141125
0.140785
0.140373
0.139905
0.139393
0.138851
0.138295
0.137739
0.137196
0.136681
0.136206
0.135784
0.135409
0.135067
0.00111397
0.00100501
0.000879176
0.000733325
0.000565625
0.000379633
0.000178819
-3.378e-05
-0.000255215
-0.00048265
-0.00071342
-0.000945071
-0.00117538
-0.00140235
-0.00162423
-0.00183951
-0.00204688
-0.00224521
-0.0024336
-0.00261129
-0.00277766
-0.00293225
-0.0030747
-0.00320473
-0.00332217
-0.00342688
-0.00351879
-0.00359787
-0.0036641
-0.00371749
-0.00375805
-0.0037858
-0.00380075
-0.00380292
-0.00379227
-0.00376878
-0.00373239
-0.00368302
-0.00362056
-0.00354488
-0.00345582
-0.00335318
-0.00323674
-0.00310626
-0.00296143
-0.00280194
-0.00262745
-0.00243757
-0.00223189
-0.00200996
-0.0017713
-0.00151542
-0.00124176
-0.000949744
-0.000638771
-0.000308196
4.26576e-05
0.000414498
0.00080807
0.00122415
0.00166356
0.00212715
0.0026158
0.00313045
0.00367206
0.00424161
0.00484015
0.00546874
0.00612849
0.00682053
0.00754606
0.00830627
0.0091024
0.00993574
0.0108076
0.0117192
0.0126721
0.0136674
0.0147067
0.0157914
0.0169227
0.0181022
0.0193312
0.0206112
0.0219434
0.0233292
0.0247699
0.0262668
0.0278209
0.0294336
0.0311057
0.0328381
0.0346318
0.0364872
0.0384051
0.0403856
0.042429
0.0445351
0.0467038
0.0489345
0.0512263
0.0535781
0.0559886
0.0584559
0.060978
0.0635523
0.0661759
0.0688454
0.0715572
0.0743069
0.07709
0.0799013
0.0827351
0.0855856
0.088446
0.0913096
0.0941688
0.097016
0.099843
0.102641
0.105402
0.108117
0.110777
0.113371
0.115893
0.118331
0.120679
0.122925
0.125064
0.127087
0.128986
0.130756
0.132391
0.133885
0.135236
0.136441
0.137498
0.138406
0.139168
0.139784
0.140258
0.140595
0.140802
0.140884
0.140851
0.140712
0.140478
0.140159
0.139768
0.139316
0.138818
0.138286
0.137733
0.137172
0.136615
0.136074
0.13556
0.135084
0.134626
0.134165
0.00146199
0.00130877
0.0011513
0.000982883
0.000797565
0.000598471
0.000388733
0.000170821
-5.28517e-05
-0.000279934
-0.000508208
-0.000735632
-0.000960352
-0.00118071
-0.00139524
-0.00160265
-0.00180186
-0.00199192
-0.00217207
-0.00234167
-0.00250021
-0.00264729
-0.0027826
-0.00290593
-0.00301711
-0.00311601
-0.00320258
-0.00327677
-0.00333855
-0.00338793
-0.00342488
-0.0034494
-0.00346149
-0.0034611
-0.0034482
-0.00342273
-0.0033846
-0.00333369
-0.00326989
-0.00319303
-0.00310293
-0.00299937
-0.00288211
-0.00275089
-0.00260539
-0.0024453
-0.00227024
-0.00207985
-0.00187369
-0.00165132
-0.00141227
-0.00115603
-0.000882061
-0.000589795
-0.000278635
5.20507e-05
0.000402921
0.000774669
0.00116802
0.00158373
0.0020226
0.00248545
0.00297314
0.00348658
0.00402669
0.00459443
0.0051908
0.00581685
0.00647363
0.00716225
0.00788384
0.00863959
0.00943067
0.0102583
0.0111238
0.0120284
0.0129735
0.0139603
0.0149901
0.0160644
0.0171846
0.0183519
0.0195677
0.0208335
0.0221504
0.0235199
0.0249432
0.0264215
0.027956
0.0295478
0.0311979
0.0329073
0.0346767
0.0365068
0.0383982
0.0403513
0.0423662
0.044443
0.0465814
0.0487809
0.0510409
0.0533604
0.0557379
0.0581719
0.0606603
0.0632008
0.0657905
0.0684264
0.0711047
0.0738215
0.0765722
0.0793518
0.082155
0.0849758
0.0878079
0.0906444
0.0934782
0.0963016
0.0991067
0.101885
0.104628
0.107327
0.109973
0.112556
0.115068
0.1175
0.119843
0.122088
0.124226
0.126251
0.128155
0.129931
0.131574
0.133078
0.134441
0.135659
0.13673
0.137654
0.138432
0.139066
0.139559
0.139915
0.14014
0.140241
0.140227
0.140105
0.139887
0.139582
0.139203
0.13876
0.138266
0.137733
0.137173
0.136597
0.136017
0.13544
0.134879
0.134343
0.1338
0.133218
0.00183218
0.00163269
0.00144137
0.00124804
0.00104259
0.000827798
0.000606506
0.000380667
0.000152199
-7.69991e-05
-0.000305134
-0.000530555
-0.000751762
-0.000967412
-0.00117632
-0.00137744
-0.0015699
-0.00175294
-0.00192596
-0.00208845
-0.00224
-0.0023803
-0.00250912
-0.00262628
-0.00273165
-0.00282515
-0.00290671
-0.0029763
-0.00303389
-0.00307946
-0.003113
-0.00313448
-0.00314386
-0.00314109
-0.0031261
-0.00309881
-0.00305911
-0.00300687
-0.00294192
-0.0028641
-0.00277319
-0.00266897
-0.00255117
-0.00241951
-0.00227368
-0.00211334
-0.00193811
-0.00174762
-0.00154143
-0.00131911
-0.00108018
-0.000824128
-0.000550435
-0.000258537
5.21512e-05
0.000382247
0.000732394
0.00110327
0.00149557
0.00191004
0.00234746
0.00280861
0.00329433
0.0038055
0.004343
0.00490777
0.00550078
0.00612302
0.00677552
0.00745935
0.00817561
0.00892543
0.00970995
0.0105304
0.0113879
0.0122839
0.0132194
0.0141959
0.0152146
0.0162768
0.0173839
0.0185372
0.019738
0.0209877
0.0222876
0.0236389
0.0250429
0.0265009
0.028014
0.0295833
0.0312098
0.0328945
0.0346382
0.0364416
0.0383054
0.0402299
0.0422154
0.044262
0.0463695
0.0485377
0.0507657
0.0530528
0.0553977
0.0577989
0.0602545
0.0627624
0.0653198
0.0679238
0.0705708
0.0732571
0.0759783
0.0787295
0.0815055
0.0843006
0.0871085
0.0899227
0.0927359
0.0955408
0.0983295
0.101094
0.103825
0.106514
0.109153
0.111731
0.114241
0.116673
0.119017
0.121267
0.123412
0.125445
0.127359
0.129147
0.130804
0.132324
0.133702
0.134937
0.136026
0.136969
0.137765
0.138418
0.138929
0.139303
0.139545
0.139663
0.139663
0.139555
0.139347
0.139051
0.138677
0.138235
0.137738
0.137196
0.136621
0.136022
0.13541
0.134791
0.134178
0.133577
0.132948
0.132249
0.00221729
0.00197027
0.00174355
0.0015235
0.00129593
0.00106332
0.000828309
0.000592358
0.000356925
0.000123491
-0.000106551
-0.00033192
-0.000551449
-0.0007641
-0.000968958
-0.00116523
-0.00135226
-0.00152948
-0.00169643
-0.00185275
-0.00199815
-0.00213241
-0.00225539
-0.00236695
-0.00246702
-0.00255554
-0.00263248
-0.0026978
-0.0027515
-0.00279355
-0.00282392
-0.00284258
-0.00284947
-0.00284453
-0.00282766
-0.00279876
-0.00275771
-0.00270433
-0.00263847
-0.00255993
-0.00246847
-0.00236386
-0.00224581
-0.00211403
-0.0019682
-0.00180797
-0.00163296
-0.00144278
-0.00123701
-0.00101521
-0.000776895
-0.000521578
-0.000248732
4.21896e-05
0.000351762
0.000680585
0.00102929
0.00139852
0.00178897
0.00220136
0.00263642
0.00309493
0.00357769
0.00408555
0.00461936
0.00518003
0.00576848
0.00638567
0.00703261
0.00771031
0.00841983
0.00916227
0.00993875
0.0107504
0.0115984
0.012484
0.0134084
0.0143728
0.0153785
0.0164269
0.0175191
0.0186566
0.0198405
0.0210723
0.0223532
0.0236845
0.0250675
0.0265033
0.0279931
0.0295381
0.0311393
0.0327977
0.0345142
0.0362894
0.0381242
0.0400189
0.0419739
0.0439894
0.0460653
0.0482013
0.050397
0.0526516
0.0549639
0.0573327
0.0597561
0.0622322
0.0647584
0.0673319
0.0699494
0.0726073
0.0753013
0.0780268
0.0807787
0.0835514
0.086339
0.0891348
0.0919319
0.094723
0.0975003
0.100256
0.10298
0.105666
0.108303
0.110883
0.113397
0.115835
0.118188
0.120448
0.122606
0.124654
0.126585
0.128391
0.130067
0.131607
0.133006
0.134263
0.135373
0.136337
0.137155
0.137828
0.138358
0.13875
0.139009
0.139141
0.139154
0.139056
0.138856
0.138563
0.138188
0.137742
0.137236
0.136678
0.136081
0.135453
0.134803
0.134138
0.133468
0.132801
0.132086
0.131274
0.00261071
0.00231544
0.00205225
0.00180414
0.00155289
0.00130079
0.00105028
0.000802409
0.000558191
0.000318713
8.50005e-05
-0.000142011
-0.000361476
-0.000572649
-0.000774883
-0.00096763
-0.00115044
-0.00132293
-0.00148482
-0.00163589
-0.00177597
-0.00190494
-0.00202273
-0.00212929
-0.00222458
-0.0023086
-0.00238134
-0.00244279
-0.00249294
-0.00253178
-0.00255928
-0.00257538
-0.00258004
-0.00257317
-0.00255466
-0.00252439
-0.00248221
-0.00242796
-0.00236144
-0.00228243
-0.00219069
-0.00208597
-0.00196798
-0.0018364
-0.0016909
-0.00153114
-0.00135673
-0.00116727
-0.000962351
-0.000741523
-0.000504319
-0.000250252
2.11928e-05
0.000310552
0.000618385
0.000945275
0.00129183
0.00165869
0.00204651
0.00245598
0.00288782
0.00334277
0.00382162
0.00432515
0.00485421
0.00540966
0.00599239
0.00660332
0.00724342
0.00791366
0.00861508
0.00934872
0.0101157
0.010917
0.0117539
0.0126275
0.0135391
0.0144897
0.0154807
0.0165134
0.017589
0.0187087
0.0198739
0.0210859
0.0223459
0.0236553
0.0250152
0.026427
0.0278917
0.0294106
0.0309848
0.0326151
0.0343027
0.0360482
0.0378525
0.0397161
0.0416393
0.0436226
0.0456659
0.047769
0.0499318
0.0521533
0.0544329
0.0567692
0.0591607
0.0616055
0.0641012
0.0666454
0.0692347
0.0718658
0.0745346
0.0772366
0.079967
0.0827204
0.0854908
0.0882719
0.0910568
0.0938384
0.0966088
0.0993599
0.102083
0.104771
0.107412
0.11
0.112523
0.114973
0.117342
0.119619
0.121796
0.123865
0.125818
0.127649
0.129349
0.130915
0.13234
0.133622
0.134759
0.135748
0.13659
0.137285
0.137836
0.138248
0.138524
0.13867
0.138694
0.138604
0.138408
0.138116
0.137737
0.137282
0.13676
0.136183
0.135559
0.134897
0.134205
0.133489
0.13276
0.132026
0.131226
0.130306
0.0030064
0.00266252
0.00236214
0.00208499
0.0018089
0.00153598
0.00126856
0.00100728
0.000752754
0.000505709
0.000266824
3.67072e-05
-0.000184102
-0.000395142
-0.000596028
-0.000786444
-0.000966147
-0.00113495
-0.00129274
-0.00143944
-0.00157499
-0.0016994
-0.00181267
-0.00191483
-0.00200589
-0.00208591
-0.0021549
-0.00221289
-0.00225987
-0.00229585
-0.00232079
-0.00233466
-0.00233737
-0.00232885
-0.00230896
-0.00227758
-0.00223455
-0.00217967
-0.00211275
-0.00203354
-0.00194181
-0.00183727
-0.00171963
-0.00158856
-0.00144374
-0.00128479
-0.00111135
-0.000923009
-0.000719355
-0.000499946
-0.000264323
-1.20038e-05
0.000257512
0.000544746
0.000850243
0.00117457
0.00151831
0.00188208
0.00226652
0.00267228
0.00310006
0.00355058
0.00402457
0.0045228
0.00504608
0.00559523
0.0061711
0.00677459
0.0074066
0.0080681
0.00876005
0.00948348
0.0102394
0.011029
0.0118532
0.0127132
0.0136103
0.0145454
0.01552
0.0165352
0.0175923
0.0186924
0.019837
0.0210273
0.0222645
0.02355
0.0248851
0.0262708
0.0277086
0.0291995
0.0307447
0.0323453
0.0340022
0.0357163
0.0374885
0.0393194
0.0412095
0.0431593
0.0451688
0.0472382
0.0493671
0.0515551
0.0538014
0.056105
0.0584645
0.0608782
0.063344
0.0658594
0.0684216
0.0710271
0.0736722
0.0763527
0.0790638
0.0818002
0.0845563
0.0873257
0.0901019
0.0928776
0.0956452
0.0983967
0.101124
0.103817
0.106469
0.109068
0.111607
0.114076
0.116465
0.118766
0.120968
0.123065
0.125046
0.126906
0.128638
0.130234
0.131691
0.133005
0.134171
0.13519
0.136059
0.13678
0.137355
0.137788
0.138082
0.138243
0.138278
0.138194
0.138001
0.137707
0.137321
0.136853
0.136314
0.135712
0.135057
0.134357
0.13362
0.132852
0.132063
0.131261
0.13038
0.129357
0.00339878
0.00300618
0.00266819
0.00236131
0.0020595
0.00176474
0.00147928
0.00120338
0.000937296
0.000681415
0.000436088
0.000201613
-2.17647e-05
-0.000233855
-0.000434523
-0.000623685
-0.000801303
-0.000967382
-0.00112196
-0.00126511
-0.00139692
-0.00151748
-0.00162689
-0.00172525
-0.00181265
-0.00188917
-0.00195489
-0.00200985
-0.00205407
-0.00208756
-0.00211031
-0.00212226
-0.00212335
-0.00211347
-0.0020925
-0.00206029
-0.00201667
-0.00196144
-0.00189439
-0.00181527
-0.00172381
-0.00161974
-0.00150275
-0.0013725
-0.00122867
-0.00107088
-0.000898759
-0.000711909
-0.000509915
-0.000292343
-5.87424e-05
0.000191358
0.000458444
0.000743024
0.00104562
0.00136679
0.00170708
0.00206709
0.00244743
0.00284873
0.00327165
0.00371688
0.00418513
0.00467712
0.00519362
0.00573542
0.00630334
0.00689823
0.00752096
0.00817245
0.00885363
0.00956549
0.010309
0.0110852
0.0118953
0.0127401
0.013621
0.0145391
0.0154955
0.0164914
0.0175281
0.0186069
0.019729
0.0208956
0.0221082
0.0233679
0.024676
0.0260339
0.0274427
0.0289038
0.0304182
0.0319871
0.0336115
0.0352925
0.0370309
0.0388276
0.040683
0.0425979
0.0445724
0.0466067
0.0487008
0.0508544
0.0530668
0.0553371
0.0576644
0.0600469
0.0624828
0.0649699
0.0675054
0.0700863
0.072709
0.0753693
0.0780627
0.0807843
0.0835283
0.0862888
0.0890592
0.0918324
0.0946008
0.0973565
0.100091
0.102796
0.105462
0.108079
0.110639
0.113131
0.115547
0.117877
0.120111
0.12224
0.124257
0.126153
0.127921
0.129555
0.131049
0.132398
0.1336
0.134652
0.135554
0.136305
0.136906
0.137362
0.137676
0.137853
0.1379
0.137823
0.137632
0.137334
0.136939
0.136457
0.135897
0.135268
0.134579
0.133839
0.133055
0.132233
0.131383
0.130514
0.129553
0.128432
0.00378265
0.00334141
0.00296559
0.00262851
0.00230034
0.00198297
0.00167859
0.00138711
0.00110845
0.000842683
0.00058985
0.000349949
0.000122949
-9.1224e-05
-0.000292676
-0.000481547
-0.000658004
-0.000822235
-0.000974444
-0.00111484
-0.00124363
-0.00136103
-0.00146722
-0.00156238
-0.00164668
-0.00172023
-0.00178316
-0.00183554
-0.00187743
-0.00190883
-0.00192975
-0.00194014
-0.00193992
-0.001929
-0.00190724
-0.00187449
-0.00183057
-0.00177527
-0.00170836
-0.0016296
-0.0015387
-0.00143537
-0.00131931
-0.00119018
-0.00104764
-0.000891323
-0.000720854
-0.00053584
-0.000335873
-0.000120525
0.000110643
0.000358089
0.000622284
0.000903717
0.00120289
0.00152034
0.00185659
0.00221221
0.00258778
0.00298391
0.00340122
0.00384036
0.00430201
0.00478687
0.00529565
0.00582911
0.00638802
0.00697321
0.00758549
0.00822576
0.0088949
0.00959385
0.0103236
0.0110851
0.0118794
0.0127075
0.0135707
0.0144699
0.0154064
0.0163814
0.017396
0.0184516
0.0195493
0.0206904
0.0218764
0.0231083
0.0243877
0.0257157
0.0270936
0.0285228
0.0300045
0.0315398
0.03313
0.034776
0.0364789
0.0382396
0.0400588
0.0419372
0.0438752
0.0458733
0.0479314
0.0500494
0.0522269
0.0544634
0.0567577
0.0591087
0.0615146
0.0639734
0.0664826
0.0690394
0.0716403
0.0742815
0.0769587
0.0796669
0.0824009
0.0851547
0.0879218
0.0906952
0.0934677
0.0962311
0.0989771
0.101697
0.104382
0.107022
0.109607
0.112129
0.114577
0.116941
0.119212
0.121381
0.123438
0.125377
0.127187
0.128864
0.130401
0.131793
0.133036
0.134127
0.135065
0.135849
0.136482
0.136964
0.137301
0.137496
0.137555
0.137486
0.137297
0.136996
0.136591
0.136093
0.13551
0.134852
0.134129
0.133347
0.132514
0.131637
0.130727
0.129792
0.128753
0.127538
0.00415312
0.00366343
0.00324971
0.00288215
0.00252718
0.00218664
0.00186266
0.00155485
0.0012628
0.000986294
0.00072507
0.000478847
0.000247321
3.01715e-05
-0.000172944
-0.000362383
-0.000538512
-0.0007017
-0.000852306
-0.00099068
-0.00111716
-0.00123205
-0.00133565
-0.00142821
-0.00150995
-0.00158105
-0.00164168
-0.00169194
-0.00173191
-0.00176163
-0.00178109
-0.00179027
-0.00178909
-0.00177744
-0.0017552
-0.0017222
-0.00167826
-0.00162316
-0.00155667
-0.00147851
-0.00138843
-0.00128611
-0.00117125
-0.0010435
-0.000902533
-0.000747977
-0.000579461
-0.000396598
-0.000198987
1.37869e-05
0.000242152
0.000486549
0.000747433
0.00102527
0.00132055
0.00163376
0.00196542
0.00231607
0.00268626
0.00307656
0.00348755
0.00391986
0.00437413
0.004851
0.00535116
0.00587534
0.00642425
0.00699868
0.00759941
0.00822729
0.00888317
0.00956793
0.0102825
0.0110279
0.0118051
0.012615
0.0134589
0.0143377
0.0152527
0.0162049
0.0171957
0.0182262
0.0192977
0.0204116
0.021569
0.0227713
0.0240199
0.0253161
0.0266612
0.0280566
0.0295036
0.0310035
0.0325574
0.0341666
0.0358322
0.0375551
0.0393364
0.0411767
0.0430768
0.045037
0.0470577
0.049139
0.0512806
0.0534822
0.0557429
0.0580617
0.0604371
0.0628674
0.0653503
0.0678831
0.0704627
0.0730854
0.0757472
0.0784434
0.0811688
0.0839176
0.0866835
0.0894597
0.0922389
0.0950131
0.097774
0.100513
0.10322
0.105887
0.108503
0.111059
0.113544
0.115949
0.118263
0.120477
0.122581
0.124568
0.126427
0.128154
0.129739
0.131179
0.132468
0.133604
0.134584
0.135407
0.136074
0.136588
0.13695
0.137165
0.13724
0.137181
0.136995
0.13669
0.136276
0.135761
0.135155
0.134468
0.133708
0.132883
0.132001
0.131069
0.130098
0.129098
0.127985
0.12668
0.00450554
0.00396769
0.00351611
0.00311794
0.00273588
0.00237176
0.00202768
0.00170297
0.0013969
0.00110896
0.000838625
0.000585331
0.000348521
0.000127625
-7.79223e-05
-0.000268691
-0.000445239
-0.000608109
-0.000757816
-0.000894851
-0.00101967
-0.00113269
-0.00123429
-0.00132481
-0.00140453
-0.00147369
-0.00153249
-0.00158109
-0.00161957
-0.001648
-0.00166638
-0.0016747
-0.00167288
-0.00166083
-0.0016384
-0.00160543
-0.00156174
-0.00150709
-0.00144126
-0.00136397
-0.00127494
-0.00117386
-0.00106043
-0.000934315
-0.000795161
-0.000642617
-0.000476316
-0.000295878
-0.000100912
0.000108984
0.000334223
0.000575226
0.00083243
0.00110628
0.00139723
0.00170576
0.00203235
0.0023775
0.00274174
0.0031256
0.00352964
0.00395443
0.00440057
0.00486868
0.0053594
0.0058734
0.00641137
0.00697405
0.0075622
0.00817658
0.00881804
0.00948741
0.0101856
0.0109135
0.0116721
0.0124625
0.0132855
0.0141424
0.0150342
0.0159622
0.0169274
0.0179311
0.0189747
0.0200593
0.0211863
0.0223572
0.0235731
0.0248356
0.026146
0.0275057
0.028916
0.0303785
0.0318943
0.0334648
0.0350911
0.0367745
0.038516
0.0403166
0.042177
0.0440979
0.0460798
0.048123
0.0502274
0.0523929
0.0546189
0.0569047
0.059249
0.0616502
0.0641063
0.0666151
0.0691734
0.0717781
0.0744251
0.07711
0.0798278
0.082573
0.0853394
0.0881204
0.0909086
0.0936962
0.096475
0.0992361
0.10197
0.104668
0.107319
0.109913
0.112441
0.114891
0.117253
0.119518
0.121676
0.123716
0.125632
0.127413
0.129054
0.130548
0.13189
0.133076
0.134104
0.134971
0.135678
0.136226
0.136618
0.136858
0.136951
0.136903
0.136722
0.136416
0.135992
0.135462
0.134833
0.134116
0.133319
0.132451
0.13152
0.130533
0.129502
0.128438
0.127251
0.125859
0.00483549
0.00424981
0.00376052
0.00333167
0.00292238
0.00253442
0.0021699
0.00182785
0.00150727
0.00120736
0.000927321
0.000666344
0.000423611
0.000198317
-1.03269e-05
-0.000203091
-0.000380721
-0.000543925
-0.000693374
-0.000829692
-0.000953454
-0.00106519
-0.00116535
-0.00125437
-0.00133258
-0.00140029
-0.00145774
-0.0015051
-0.0015425
-0.00157002
-0.00158769
-0.00159549
-0.00159336
-0.00158119
-0.00155885
-0.00152618
-0.00148298
-0.00142903
-0.00136408
-0.00128786
-0.00120009
-0.00110046
-0.000988668
-0.000864373
-0.00072724
-0.000576917
-0.000413046
-0.000235257
-4.31726e-05
0.000163593
0.000385436
0.000622756
0.000875967
0.00114549
0.00143175
0.0017352
0.00205629
0.00239549
0.00275329
0.00313018
0.00352668
0.00394332
0.00438067
0.0048393
0.00531981