/*--------------------------------*- C++ -*----------------------------------*\
  =========                 |
  \\      /  F ield         | OpenFOAM: The Open Source CFD Toolbox
   \\    /   O peration     | Website:  https://openfoam.org
    \\  /    A nd           | Version:  7
     \\/     M anipulation  |
\*---------------------------------------------------------------------------*/
FoamFile
{
    version     2.0;
    format      ascii;
    class       volVectorField;
    location    "0.4625";
    object      U;
}
// * * * * * * * * * * * * * * * * * * * * * * * * * * * * * * * * * * * * * //

dimensions      [0 1 -1 0 0 0 0];

internalField   nonuniform List<vector> 
12800
(
(3.21802e-06 -3.2904e-06 0)
(1.81665e-05 -9.72536e-06 0)
(4.40619e-05 -1.19815e-05 0)
(7.03738e-05 -1.10825e-05 0)
(9.04928e-05 -8.42905e-06 0)
(0.000101069 -4.88445e-06 0)
(0.000100307 -9.45617e-07 0)
(8.73532e-05 3.09379e-06 0)
(6.19984e-05 7.06157e-06 0)
(2.44526e-05 1.08572e-05 0)
(-2.48313e-05 1.4417e-05 0)
(-8.52204e-05 1.77245e-05 0)
(-0.000155967 2.07586e-05 0)
(-0.000236291 2.35158e-05 0)
(-0.000325383 2.60009e-05 0)
(-0.000422435 2.82234e-05 0)
(-0.000526657 3.01964e-05 0)
(-0.000637292 3.19354e-05 0)
(-0.00075362 3.34574e-05 0)
(-0.000874971 3.47796e-05 0)
(-0.00100072 3.59193e-05 0)
(-0.0011303 3.68943e-05 0)
(-0.00126319 3.77222e-05 0)
(-0.00139892 3.84196e-05 0)
(-0.00153708 3.90025e-05 0)
(-0.00167729 3.94858e-05 0)
(-0.00181923 3.98839e-05 0)
(-0.00196263 4.02099e-05 0)
(-0.00210725 4.0476e-05 0)
(-0.00225289 4.06932e-05 0)
(-0.00239938 4.08717e-05 0)
(-0.00254661 4.10207e-05 0)
(-0.00269446 4.11485e-05 0)
(-0.00284285 4.12625e-05 0)
(-0.00299175 4.13693e-05 0)
(-0.00314113 4.14748e-05 0)
(-0.00329096 4.15841e-05 0)
(-0.00344127 4.17015e-05 0)
(-0.00359206 4.1831e-05 0)
(-0.00374339 4.19758e-05 0)
(-0.00389529 4.21389e-05 0)
(-0.00404782 4.23226e-05 0)
(-0.00420104 4.2529e-05 0)
(-0.00435503 4.27598e-05 0)
(-0.00450987 4.30163e-05 0)
(-0.00466563 4.32997e-05 0)
(-0.0048224 4.36108e-05 0)
(-0.00498028 4.39503e-05 0)
(-0.00513935 4.43186e-05 0)
(-0.0052997 4.47158e-05 0)
(-0.00546143 4.51422e-05 0)
(-0.00562463 4.55978e-05 0)
(-0.0057894 4.60823e-05 0)
(-0.00595582 4.65952e-05 0)
(-0.006124 4.71361e-05 0)
(-0.006294 4.77045e-05 0)
(-0.00646593 4.82994e-05 0)
(-0.00663985 4.892e-05 0)
(-0.00681586 4.95651e-05 0)
(-0.00699402 5.02334e-05 0)
(-0.00717441 5.09236e-05 0)
(-0.00735708 5.16339e-05 0)
(-0.00754209 5.23625e-05 0)
(-0.00772948 5.31073e-05 0)
(-0.00791931 5.3866e-05 0)
(-0.00811159 5.4636e-05 0)
(-0.00830636 5.54145e-05 0)
(-0.00850361 5.61984e-05 0)
(-0.00870336 5.69842e-05 0)
(-0.00890557 5.77682e-05 0)
(-0.00911023 5.85465e-05 0)
(-0.00931729 5.93144e-05 0)
(-0.00952669 6.00673e-05 0)
(-0.00973834 6.08e-05 0)
(-0.00995216 6.15068e-05 0)
(-0.010168 6.21819e-05 0)
(-0.0103858 6.28186e-05 0)
(-0.0106053 6.34103e-05 0)
(-0.0108263 6.39494e-05 0)
(-0.0110487 6.44283e-05 0)
(-0.0112722 6.48387e-05 0)
(-0.0114964 6.51718e-05 0)
(-0.0117212 6.54183e-05 0)
(-0.0119462 6.55685e-05 0)
(-0.012171 6.56124e-05 0)
(-0.0123952 6.55392e-05 0)
(-0.0126184 6.53379e-05 0)
(-0.0128401 6.4997e-05 0)
(-0.0130597 6.45047e-05 0)
(-0.0132768 6.38488e-05 0)
(-0.0134907 6.30167e-05 0)
(-0.0137007 6.19959e-05 0)
(-0.0139063 6.07733e-05 0)
(-0.0141067 5.93361e-05 0)
(-0.0143011 5.76711e-05 0)
(-0.0144888 5.57657e-05 0)
(-0.0146688 5.3607e-05 0)
(-0.0148404 5.11828e-05 0)
(-0.0150025 4.84812e-05 0)
(-0.0151543 4.54911e-05 0)
(-0.0152948 4.22021e-05 0)
(-0.0154229 3.86048e-05 0)
(-0.0155376 3.4691e-05 0)
(-0.0156379 3.04539e-05 0)
(-0.0157227 2.58885e-05 0)
(-0.0157909 2.09913e-05 0)
(-0.0158415 1.57612e-05 0)
(-0.0158733 1.01995e-05 0)
(-0.0158853 4.30968e-06 0)
(-0.0158765 -1.90096e-06 0)
(-0.0158459 -8.42328e-06 0)
(-0.0157925 -1.52442e-05 0)
(-0.0157154 -2.23469e-05 0)
(-0.0156138 -2.97112e-05 0)
(-0.0154869 -3.73125e-05 0)
(-0.015334 -4.51226e-05 0)
(-0.0151546 -5.31088e-05 0)
(-0.0149482 -6.12341e-05 0)
(-0.0147145 -6.94575e-05 0)
(-0.0144534 -7.77335e-05 0)
(-0.0141648 -8.60128e-05 0)
(-0.0138489 -9.42419e-05 0)
(-0.013506 -0.000102364 0)
(-0.0131366 -0.000110318 0)
(-0.0127415 -0.000118041 0)
(-0.0123215 -0.000125468 0)
(-0.0118779 -0.00013253 0)
(-0.011412 -0.00013916 0)
(-0.0109254 -0.000145289 0)
(-0.0104198 -0.000150847 0)
(-0.0098973 -0.000155768 0)
(-0.00936012 -0.000159986 0)
(-0.00881067 -0.00016344 0)
(-0.00825158 -0.00016607 0)
(-0.00768562 -0.000167824 0)
(-0.00711575 -0.000168653 0)
(-0.00654504 -0.000168517 0)
(-0.00597672 -0.000167381 0)
(-0.00541406 -0.000165218 0)
(-0.00486045 -0.000162009 0)
(-0.00431928 -0.000157745 0)
(-0.00379399 -0.000152422 0)
(-0.00328797 -0.000146047 0)
(-0.00280459 -0.000138634 0)
(-0.00234715 -0.000130205 0)
(-0.00191883 -0.00012079 0)
(-0.00152269 -0.000110423 0)
(-0.00116164 -9.91491e-05 0)
(-0.000838378 -8.70171e-05 0)
(-0.00055537 -7.40867e-05 0)
(-0.000314794 -6.04307e-05 0)
(-0.000118461 -4.61448e-05 0)
(3.22996e-05 -3.13675e-05 0)
(0.000136837 -1.63172e-05 0)
(0.000195506 -1.37364e-06 0)
(0.000210233 1.27648e-05 0)
(0.000185366 2.4813e-05 0)
(0.000129563 3.22954e-05 0)
(6.16004e-05 3.06047e-05 0)
(1.39177e-05 1.39368e-05 0)
(9.72051e-06 -1.8296e-05 0)
(4.17547e-05 -4.17459e-05 0)
(8.83887e-05 -4.79715e-05 0)
(0.000131054 -4.11904e-05 0)
(0.000157263 -2.61099e-05 0)
(0.000159647 -6.09362e-06 0)
(0.000133582 1.658e-05 0)
(7.64705e-05 4.03808e-05 0)
(-1.27439e-05 6.42904e-05 0)
(-0.000134015 8.76367e-05 0)
(-0.000286543 0.000109972 0)
(-0.000469 0.000131038 0)
(-0.000679707 0.000150657 0)
(-0.000916779 0.000168744 0)
(-0.00117821 0.000185267 0)
(-0.00146196 0.000200241 0)
(-0.00176598 0.000213709 0)
(-0.00208827 0.000225737 0)
(-0.00242695 0.000236403 0)
(-0.00278018 0.000245798 0)
(-0.0031463 0.000254018 0)
(-0.00352371 0.000261163 0)
(-0.00391099 0.000267333 0)
(-0.00430683 0.000272628 0)
(-0.00471005 0.000277144 0)
(-0.00511961 0.000280975 0)
(-0.00553458 0.000284208 0)
(-0.00595415 0.000286928 0)
(-0.00637763 0.000289213 0)
(-0.00680443 0.000291136 0)
(-0.00723406 0.000292762 0)
(-0.00766611 0.000294155 0)
(-0.00810028 0.000295368 0)
(-0.00853631 0.000296453 0)
(-0.00897403 0.000297456 0)
(-0.00941333 0.000298416 0)
(-0.00985415 0.00029937 0)
(-0.0102965 0.000300349 0)
(-0.0107404 0.000301381 0)
(-0.0111859 0.000302491 0)
(-0.0116331 0.0003037 0)
(-0.0120822 0.000305025 0)
(-0.0125333 0.000306482 0)
(-0.0129867 0.000308084 0)
(-0.0134424 0.000309842 0)
(-0.0139008 0.000311763 0)
(-0.014362 0.000313856 0)
(-0.0148263 0.000316125 0)
(-0.0152939 0.000318574 0)
(-0.0157652 0.000321205 0)
(-0.0162402 0.000324019 0)
(-0.0167193 0.000327015 0)
(-0.0172028 0.000330194 0)
(-0.0176908 0.00033355 0)
(-0.0181836 0.000337081 0)
(-0.0186815 0.000340783 0)
(-0.0191847 0.000344648 0)
(-0.0196933 0.000348669 0)
(-0.0202076 0.000352838 0)
(-0.0207279 0.000357145 0)
(-0.0212541 0.000361579 0)
(-0.0217866 0.000366127 0)
(-0.0223255 0.000370775 0)
(-0.0228707 0.000375507 0)
(-0.0234226 0.000380306 0)
(-0.023981 0.000385153 0)
(-0.0245461 0.000390026 0)
(-0.0251178 0.000394903 0)
(-0.0256962 0.000399759 0)
(-0.026281 0.000404566 0)
(-0.0268722 0.000409295 0)
(-0.0274697 0.000413914 0)
(-0.0280732 0.000418389 0)
(-0.0286825 0.000422682 0)
(-0.0292972 0.000426756 0)
(-0.0299169 0.000430566 0)
(-0.0305413 0.000434069 0)
(-0.0311698 0.000437217 0)
(-0.0318018 0.000439958 0)
(-0.0324366 0.00044224 0)
(-0.0330736 0.000444005 0)
(-0.0337119 0.000445195 0)
(-0.0343506 0.000445748 0)
(-0.0349887 0.000445597 0)
(-0.0356252 0.000444676 0)
(-0.0362588 0.000442913 0)
(-0.0368882 0.000440238 0)
(-0.037512 0.000436573 0)
(-0.0381289 0.000431843 0)
(-0.038737 0.00042597 0)
(-0.0393349 0.000418872 0)
(-0.0399205 0.000410471 0)
(-0.040492 0.000400684 0)
(-0.0410473 0.000389431 0)
(-0.0415843 0.000376632 0)
(-0.0421007 0.000362208 0)
(-0.0425941 0.000346084 0)
(-0.0430622 0.000328186 0)
(-0.0435022 0.000308445 0)
(-0.0439116 0.000286797 0)
(-0.0442877 0.000263185 0)
(-0.0446276 0.000237557 0)
(-0.0449285 0.000209873 0)
(-0.0451875 0.000180099 0)
(-0.0454018 0.000148216 0)
(-0.0455683 0.000114215 0)
(-0.0456841 7.81028e-05 0)
(-0.0457465 3.98999e-05 0)
(-0.0457524 -3.54544e-07 0)
(-0.0456993 -4.2603e-05 0)
(-0.0455843 -8.67691e-05 0)
(-0.045405 -0.000132754 0)
(-0.0451591 -0.000180438 0)
(-0.0448443 -0.000229677 0)
(-0.0444587 -0.000280301 0)
(-0.0440007 -0.000332117 0)
(-0.0434688 -0.000384906 0)
(-0.0428621 -0.000438423 0)
(-0.0421797 -0.000492397 0)
(-0.0414214 -0.000546531 0)
(-0.0405874 -0.000600507 0)
(-0.0396781 -0.000653981 0)
(-0.0386948 -0.000706588 0)
(-0.037639 -0.000757946 0)
(-0.0365128 -0.000807656 0)
(-0.035319 -0.000855304 0)
(-0.0340607 -0.000900469 0)
(-0.0327419 -0.000942724 0)
(-0.0313669 -0.00098164 0)
(-0.0299408 -0.00101679 0)
(-0.0284692 -0.00104777 0)
(-0.0269581 -0.00107417 0)
(-0.0254143 -0.00109561 0)
(-0.0238449 -0.00111173 0)
(-0.0222574 -0.00112222 0)
(-0.0206601 -0.00112677 0)
(-0.0190611 -0.00112514 0)
(-0.0174693 -0.00111712 0)
(-0.0158936 -0.00110256 0)
(-0.0143431 -0.00108135 0)
(-0.012827 -0.00105344 0)
(-0.0113546 -0.00101883 0)
(-0.00993501 -0.000977574 0)
(-0.00857729 -0.000929798 0)
(-0.00729026 -0.000875674 0)
(-0.00608242 -0.000815437 0)
(-0.00496188 -0.000749384 0)
(-0.0039362 -0.000677879 0)
(-0.00301233 -0.000601369 0)
(-0.00219645 -0.000520399 0)
(-0.00149376 -0.000435655 0)
(-0.000908255 -0.000348022 0)
(-0.000442325 -0.000258706 0)
(-9.62606e-05 -0.000169416 0)
(0.000132573 -8.27097e-05 0)
(0.000250934 -2.54522e-06 0)
(0.00027119 6.4811e-05 0)
(0.000213807 0.000109313 0)
(0.000114861 0.000115114 0)
(3.0422e-05 6.1475e-05 0)
(1.20915e-05 -4.42707e-05 0)
(4.83202e-05 -8.84767e-05 0)
(9.54728e-05 -9.50035e-05 0)
(0.000130813 -7.35245e-05 0)
(0.000139191 -3.28399e-05 0)
(0.000111152 2.01608e-05 0)
(4.0372e-05 8.03657e-05 0)
(-7.69722e-05 0.000144081 0)
(-0.000242654 0.000208685 0)
(-0.000456903 0.00027234 0)
(-0.00071882 0.000333773 0)
(-0.00102669 0.00039214 0)
(-0.00137822 0.00044689 0)
(-0.00177076 0.000497702 0)
(-0.00220141 0.000544421 0)
(-0.00266718 0.00058702 0)
(-0.00316504 0.000625567 0)
(-0.00369201 0.000660197 0)
(-0.00424519 0.000691095 0)
(-0.00482183 0.00071848 0)
(-0.00541932 0.000742595 0)
(-0.00603523 0.000763697 0)
(-0.00666733 0.000782051 0)
(-0.00731355 0.000797921 0)
(-0.00797205 0.000811567 0)
(-0.00864116 0.000823242 0)
(-0.0093194 0.000833189 0)
(-0.0100055 0.000841638 0)
(-0.0106982 0.000848807 0)
(-0.0113968 0.000854899 0)
(-0.0121002 0.000860102 0)
(-0.0128079 0.000864589 0)
(-0.0135193 0.000868519 0)
(-0.014234 0.000872035 0)
(-0.0149517 0.000875269 0)
(-0.0156722 0.000878338 0)
(-0.0163953 0.000881345 0)
(-0.017121 0.000884383 0)
(-0.0178493 0.000887534 0)
(-0.0185803 0.000890871 0)
(-0.0193142 0.000894454 0)
(-0.0200511 0.000898338 0)
(-0.0207912 0.000902568 0)
(-0.0215349 0.000907184 0)
(-0.0222825 0.000912218 0)
(-0.0230341 0.000917695 0)
(-0.0237903 0.000923638 0)
(-0.0245513 0.000930062 0)
(-0.0253175 0.000936977 0)
(-0.0260893 0.000944392 0)
(-0.0268671 0.00095231 0)
(-0.0276512 0.000960728 0)
(-0.0284421 0.000969644 0)
(-0.02924 0.000979049 0)
(-0.0300454 0.000988931 0)
(-0.0308586 0.000999276 0)
(-0.03168 0.00101007 0)
(-0.0325098 0.00102128 0)
(-0.0333484 0.00103288 0)
(-0.0341961 0.00104485 0)
(-0.035053 0.00105716 0)
(-0.0359195 0.00106975 0)
(-0.0367957 0.0010826 0)
(-0.0376818 0.00109565 0)
(-0.0385778 0.00110886 0)
(-0.0394839 0.00112215 0)
(-0.0403999 0.00113548 0)
(-0.041326 0.00114878 0)
(-0.042262 0.00116196 0)
(-0.0432077 0.00117495 0)
(-0.0441629 0.00118766 0)
(-0.0451273 0.0012 0)
(-0.0461004 0.00121187 0)
(-0.0470819 0.00122316 0)
(-0.0480712 0.00123375 0)
(-0.0490675 0.00124352 0)
(-0.0500702 0.00125235 0)
(-0.0510784 0.00126009 0)
(-0.052091 0.0012666 0)
(-0.053107 0.00127172 0)
(-0.0541252 0.00127529 0)
(-0.0551442 0.00127715 0)
(-0.0561624 0.00127711 0)
(-0.0571783 0.00127499 0)
(-0.0581901 0.0012706 0)
(-0.0591958 0.00126374 0)
(-0.0601933 0.0012542 0)
(-0.0611804 0.00124179 0)
(-0.0621546 0.00122627 0)
(-0.0631133 0.00120743 0)
(-0.0640538 0.00118506 0)
(-0.0649732 0.00115893 0)
(-0.0658684 0.00112881 0)
(-0.066736 0.00109449 0)
(-0.0675727 0.00105576 0)
(-0.0683749 0.00101239 0)
(-0.0691388 0.000964182 0)
(-0.0698606 0.000910947 0)
(-0.0705361 0.000852501 0)
(-0.0711614 0.000788678 0)
(-0.0717321 0.00071933 0)
(-0.0722438 0.000644332 0)
(-0.0726922 0.000563583 0)
(-0.0730728 0.000477011 0)
(-0.073381 0.000384577 0)
(-0.0736124 0.000286277 0)
(-0.0737625 0.000182147 0)
(-0.0738268 7.22681e-05 0)
(-0.0738012 -4.32316e-05 0)
(-0.0736813 -0.000164173 0)
(-0.0734632 -0.00029032 0)
(-0.0731431 -0.00042138 0)
(-0.0727175 -0.000556998 0)
(-0.0721831 -0.000696755 0)
(-0.0715373 -0.000840165 0)
(-0.0707774 -0.000986673 0)
(-0.0699016 -0.00113566 0)
(-0.0689085 -0.00128642 0)
(-0.0677971 -0.00143821 0)
(-0.0665671 -0.0015902 0)
(-0.0652191 -0.00174148 0)
(-0.0637541 -0.00189111 0)
(-0.062174 -0.00203808 0)
(-0.0604814 -0.00218134 0)
(-0.0586798 -0.00231978 0)
(-0.0567736 -0.00245226 0)
(-0.0547679 -0.00257765 0)
(-0.0526688 -0.00269475 0)
(-0.0504834 -0.00280242 0)
(-0.0482193 -0.00289949 0)
(-0.0458854 -0.00298483 0)
(-0.0434912 -0.00305735 0)
(-0.0410469 -0.00311602 0)
(-0.0385637 -0.00315988 0)
(-0.0360533 -0.00318804 0)
(-0.0335282 -0.00319972 0)
(-0.0310013 -0.00319426 0)
(-0.0284859 -0.00317108 0)
(-0.0259959 -0.00312979 0)
(-0.0235451 -0.00307011 0)
(-0.0211478 -0.00299191 0)
(-0.0188181 -0.00289522 0)
(-0.0165701 -0.00278024 0)
(-0.0144175 -0.00264733 0)
(-0.0123738 -0.00249703 0)
(-0.0104518 -0.00233006 0)
(-0.00866389 -0.00214732 0)
(-0.00702125 -0.00194997 0)
(-0.0055342 -0.00173939 0)
(-0.00421169 -0.00151731 0)
(-0.00306104 -0.00128588 0)
(-0.00208757 -0.00104787 0)
(-0.00129401 -0.000806911 0)
(-0.00067981 -0.000567965 0)
(-0.000240118 -0.00033797 0)
(3.55822e-05 -0.000126878 0)
(0.000164981 5.08483e-05 0)
(0.000175078 0.000174332 0)
(0.000109154 0.000213956 0)
(3.19822e-05 0.000129024 0)
(1.13301e-05 -7.09155e-05 0)
(4.19185e-05 -0.000131508 0)
(7.44811e-05 -0.000130474 0)
(8.51241e-05 -8.42866e-05 0)
(5.77252e-05 -6.28659e-06 0)
(-1.81108e-05 9.28483e-05 0)
(-0.000149537 0.000204862 0)
(-0.000341006 0.000323552 0)
(-0.000594701 0.000444335 0)
(-0.000911029 0.000563877 0)
(-0.00128903 0.000679794 0)
(-0.00172672 0.000790432 0)
(-0.00222139 0.000894681 0)
(-0.00276981 0.000991851 0)
(-0.00336842 0.00108157 0)
(-0.00401349 0.00116372 0)
(-0.0047012 0.00123836 0)
(-0.00542778 0.00130569 0)
(-0.00618951 0.00136601 0)
(-0.00698286 0.0014197 0)
(-0.00780443 0.00146718 0)
(-0.00865108 0.00150892 0)
(-0.00951985 0.00154539 0)
(-0.0104081 0.00157708 0)
(-0.0113132 0.00160447 0)
(-0.0122331 0.00162804 0)
(-0.0131658 0.00164823 0)
(-0.0141095 0.00166549 0)
(-0.0150627 0.00168022 0)
(-0.016024 0.00169281 0)
(-0.0169924 0.00170362 0)
(-0.017967 0.00171298 0)
(-0.0189468 0.0017212 0)
(-0.0199314 0.00172856 0)
(-0.0209204 0.00173531 0)
(-0.0219132 0.00174167 0)
(-0.0229099 0.00174786 0)
(-0.0239102 0.00175405 0)
(-0.0249141 0.00176041 0)
(-0.0259218 0.00176707 0)
(-0.0269333 0.00177416 0)
(-0.027949 0.00178179 0)
(-0.0289691 0.00179004 0)
(-0.0299938 0.00179901 0)
(-0.0310237 0.00180874 0)
(-0.032059 0.0018193 0)
(-0.0331002 0.00183072 0)
(-0.0341478 0.00184304 0)
(-0.0352022 0.00185628 0)
(-0.0362639 0.00187046 0)
(-0.0373334 0.00188558 0)
(-0.0384112 0.00190164 0)
(-0.0394977 0.00191863 0)
(-0.0405935 0.00193654 0)
(-0.0416989 0.00195534 0)
(-0.0428145 0.001975 0)
(-0.0439406 0.00199548 0)
(-0.0450778 0.00201674 0)
(-0.0462262 0.00203873 0)
(-0.0473864 0.00206139 0)
(-0.0485585 0.00208464 0)
(-0.0497428 0.00210841 0)
(-0.0509396 0.00213262 0)
(-0.0521491 0.00215716 0)
(-0.0533712 0.00218194 0)
(-0.0546061 0.00220684 0)
(-0.0558537 0.00223174 0)
(-0.0571139 0.00225649 0)
(-0.0583865 0.00228096 0)
(-0.0596713 0.00230497 0)
(-0.0609679 0.00232837 0)
(-0.0622757 0.00235096 0)
(-0.0635943 0.00237254 0)
(-0.0649229 0.00239291 0)
(-0.0662607 0.00241183 0)
(-0.0676068 0.00242907 0)
(-0.06896 0.00244437 0)
(-0.0703191 0.00245746 0)
(-0.0716828 0.00246806 0)
(-0.0730495 0.00247586 0)
(-0.0744174 0.00248056 0)
(-0.0757847 0.00248183 0)
(-0.0771493 0.00247932 0)
(-0.078509 0.00247268 0)
(-0.0798612 0.00246153 0)
(-0.0812034 0.0024455 0)
(-0.0825325 0.00242421 0)
(-0.0838457 0.00239724 0)
(-0.0851395 0.00236419 0)
(-0.0864105 0.00232464 0)
(-0.0876549 0.00227819 0)
(-0.0888688 0.00222441 0)
(-0.0900481 0.00216288 0)
(-0.0911883 0.0020932 0)
(-0.0922849 0.00201495 0)
(-0.0933331 0.00192775 0)
(-0.094328 0.00183123 0)
(-0.0952643 0.00172502 0)
(-0.0961368 0.00160881 0)
(-0.09694 0.00148228 0)
(-0.0976683 0.00134519 0)
(-0.0983161 0.00119732 0)
(-0.0988774 0.00103849 0)
(-0.0993466 0.000868598 0)
(-0.0997177 0.000687593 0)
(-0.0999849 0.000495497 0)
(-0.100143 0.000292405 0)
(-0.100185 7.85011e-05 0)
(-0.100106 -0.000145944 0)
(-0.0999015 -0.000380559 0)
(-0.0995655 -0.00062487 0)
(-0.0990935 -0.000878292 0)
(-0.098481 -0.00114012 0)
(-0.0977241 -0.00140955 0)
(-0.0968193 -0.00168561 0)
(-0.0957636 -0.00196725 0)
(-0.0945547 -0.00225327 0)
(-0.0931909 -0.00254233 0)
(-0.0916714 -0.00283298 0)
(-0.089996 -0.00312364 0)
(-0.0881655 -0.00341262 0)
(-0.0861815 -0.00369812 0)
(-0.0840468 -0.00397823 0)
(-0.081765 -0.00425094 0)
(-0.0793409 -0.0045142 0)
(-0.0767801 -0.00476588 0)
(-0.0740898 -0.0050038 0)
(-0.071278 -0.00522577 0)
(-0.0683537 -0.00542962 0)
(-0.0653275 -0.00561317 0)
(-0.0622106 -0.00577432 0)
(-0.0590155 -0.00591103 0)
(-0.0557558 -0.00602139 0)
(-0.0524458 -0.00610358 0)
(-0.0491009 -0.00615598 0)
(-0.0457372 -0.00617712 0)
(-0.0423715 -0.00616577 0)
(-0.0390211 -0.0061209 0)
(-0.0357038 -0.00604175 0)
(-0.0324379 -0.00592782 0)
(-0.0292416 -0.00577892 0)
(-0.0261331 -0.00559512 0)
(-0.0231307 -0.00537685 0)
(-0.020252 -0.00512485 0)
(-0.0175144 -0.00484018 0)
(-0.0149344 -0.00452432 0)
(-0.0125275 -0.0041791 0)
(-0.0103082 -0.00380684 0)
(-0.00828922 -0.00341036 0)
(-0.0064818 -0.00299316 0)
(-0.0048948 -0.00255955 0)
(-0.00353443 -0.00211501 0)
(-0.00240357 -0.00166659 0)
(-0.00150103 -0.00122355 0)
(-0.000820462 -0.00079837 0)
(-0.000349157 -0.000408082 0)
(-6.66494e-05 -7.6177e-05 0)
(5.70164e-05 0.000165214 0)
(6.64298e-05 0.00027263 0)
(2.46581e-05 0.000184683 0)
(8.79249e-06 -9.15827e-05 0)
(2.69935e-05 -0.00015819 0)
(3.35686e-05 -0.00013884 0)
(6.09948e-06 -5.67593e-05 0)
(-7.1146e-05 7.01077e-05 0)
(-0.000208735 0.000227304 0)
(-0.000413982 0.000403428 0)
(-0.000691472 0.000589688 0)
(-0.00104348 0.000779417 0)
(-0.00147039 0.000967629 0)
(-0.00197113 0.00115067 0)
(-0.00254348 0.00132593 0)
(-0.00318437 0.00149161 0)
(-0.00389012 0.00164655 0)
(-0.00465664 0.00179009 0)
(-0.00547961 0.00192194 0)
(-0.00635458 0.00204213 0)
(-0.00727712 0.00215091 0)
(-0.00824286 0.00224869 0)
(-0.00924758 0.00233601 0)
(-0.0102873 0.0024135 0)
(-0.0113581 0.00248187 0)
(-0.0124566 0.00254184 0)
(-0.0135794 0.00259415 0)
(-0.0147236 0.00263956 0)
(-0.0158864 0.00267878 0)
(-0.0170654 0.00271254 0)
(-0.0182585 0.00274152 0)
(-0.0194638 0.00276637 0)
(-0.0206795 0.0027877 0)
(-0.0219044 0.00280609 0)
(-0.0231372 0.00282206 0)
(-0.024377 0.0028361 0)
(-0.0256229 0.00284867 0)
(-0.0268743 0.00286017 0)
(-0.0281309 0.00287097 0)
(-0.0293923 0.0028814 0)
(-0.0306583 0.00289175 0)
(-0.031929 0.0029023 0)
(-0.0332043 0.00291327 0)
(-0.0344844 0.00292486 0)
(-0.0357695 0.00293725 0)
(-0.0370601 0.00295059 0)
(-0.0383563 0.00296501 0)
(-0.0396586 0.00298062 0)
(-0.0409676 0.0029975 0)
(-0.0422836 0.00301573 0)
(-0.0436073 0.00303536 0)
(-0.0449391 0.00305643 0)
(-0.0462796 0.00307897 0)
(-0.0476294 0.00310297 0)
(-0.0489891 0.00312845 0)
(-0.0503592 0.00315538 0)
(-0.0517402 0.00318374 0)
(-0.0531328 0.00321348 0)
(-0.0545374 0.00324457 0)
(-0.0559545 0.00327693 0)
(-0.0573846 0.00331049 0)
(-0.0588281 0.00334516 0)
(-0.0602853 0.00338084 0)
(-0.0617567 0.00341742 0)
(-0.0632425 0.00345476 0)
(-0.0647428 0.00349272 0)
(-0.066258 0.00353115 0)
(-0.0677879 0.00356986 0)
(-0.0693326 0.00360868 0)
(-0.0708921 0.00364739 0)
(-0.0724661 0.00368577 0)
(-0.0740543 0.00372358 0)
(-0.0756564 0.00376054 0)
(-0.0772717 0.00379638 0)
(-0.0788998 0.00383079 0)
(-0.0805396 0.00386345 0)
(-0.0821904 0.003894 0)
(-0.083851 0.00392209 0)
(-0.0855202 0.00394732 0)
(-0.0871966 0.00396927 0)
(-0.0888786 0.00398751 0)
(-0.0905643 0.00400158 0)
(-0.0922518 0.00401099 0)
(-0.0939389 0.00401523 0)
(-0.0956232 0.00401378 0)
(-0.0973021 0.00400608 0)
(-0.0989726 0.00399158 0)
(-0.100632 0.00396967 0)
(-0.102276 0.00393975 0)
(-0.103902 0.0039012 0)
(-0.105506 0.00385339 0)
(-0.107084 0.00379567 0)
(-0.108631 0.00372738 0)
(-0.110142 0.00364787 0)
(-0.111614 0.00355649 0)
(-0.11304 0.00345257 0)
(-0.114416 0.00333549 0)
(-0.115736 0.00320462 0)
(-0.116993 0.00305934 0)
(-0.118183 0.00289909 0)
(-0.119298 0.00272333 0)
(-0.120332 0.00253156 0)
(-0.121279 0.00232333 0)
(-0.122132 0.00209826 0)
(-0.122884 0.00185605 0)
(-0.123527 0.00159645 0)
(-0.124056 0.00131933 0)
(-0.124463 0.00102465 0)
(-0.124741 0.000712477 0)
(-0.124884 0.000383004 0)
(-0.124884 3.65611e-05 0)
(-0.124736 -0.00032638 0)
(-0.124432 -0.000705192 0)
(-0.123967 -0.00109909 0)
(-0.123336 -0.0015071 0)
(-0.122533 -0.00192808 0)
(-0.121553 -0.00236071 0)
(-0.120394 -0.00280345 0)
(-0.119051 -0.00325459 0)
(-0.117522 -0.00371219 0)
(-0.115805 -0.00417416 0)
(-0.1139 -0.00463816 0)
(-0.111806 -0.0051017 0)
(-0.109524 -0.0055621 0)
(-0.107058 -0.0060165 0)
(-0.10441 -0.00646191 0)
(-0.101585 -0.00689518 0)
(-0.0985885 -0.00731306 0)
(-0.0954281 -0.00771221 0)
(-0.0921122 -0.00808922 0)
(-0.0886504 -0.00844069 0)
(-0.0850539 -0.00876317 0)
(-0.0813353 -0.0090533 0)
(-0.0775081 -0.00930779 0)
(-0.0735874 -0.00952345 0)
(-0.0695893 -0.00969728 0)
(-0.0655312 -0.00982649 0)
(-0.0614313 -0.00990851 0)
(-0.0573089 -0.00994109 0)
(-0.053184 -0.00992229 0)
(-0.0490774 -0.00985052 0)
(-0.0450103 -0.00972462 0)
(-0.0410043 -0.00954384 0)
(-0.0370812 -0.00930789 0)
(-0.0332628 -0.00901696 0)
(-0.0295706 -0.00867175 0)
(-0.0260257 -0.00827349 0)
(-0.0226487 -0.00782399 0)
(-0.0194589 -0.00732566 0)
(-0.0164749 -0.00678156 0)
(-0.0137134 -0.00619551 0)
(-0.0111895 -0.00557217 0)
(-0.00891598 -0.00491729 0)
(-0.00690313 -0.00423791 0)
(-0.00515792 -0.00354281 0)
(-0.00368351 -0.00284304 0)
(-0.0024785 -0.0021528 0)
(-0.00153598 -0.00149055 0)
(-0.000842494 -0.000880595 0)
(-0.000376871 -0.000355233 0)
(-0.000108767 4.29238e-05 0)
(3.40867e-06 0.000257878 0)
(1.32479e-05 0.000210811 0)
(5.29307e-06 -0.000102754 0)
(6.65616e-06 -0.000160614 0)
(-2.10559e-05 -0.000109746 0)
(-9.68208e-05 2.0739e-05 0)
(-0.000234908 0.000208561 0)
(-0.000445425 0.000435667 0)
(-0.000735324 0.000687617 0)
(-0.00110891 0.000953085 0)
(-0.00156821 0.00122331 0)
(-0.00211343 0.0014916 0)
(-0.00274323 0.00175296 0)
(-0.00345512 0.00200374 0)
(-0.00424567 0.00224139 0)
(-0.0051108 0.00246419 0)
(-0.00604598 0.00267113 0)
(-0.00704638 0.00286174 0)
(-0.00810704 0.00303595 0)
(-0.00922297 0.00319404 0)
(-0.0103893 0.00333654 0)
(-0.0116011 0.00346416 0)
(-0.0128539 0.00357776 0)
(-0.0141434 0.00367828 0)
(-0.0154656 0.00376672 0)
(-0.0168165 0.00384412 0)
(-0.0181928 0.00391151 0)
(-0.0195914 0.00396994 0)
(-0.0210093 0.0040204 0)
(-0.0224441 0.00406388 0)
(-0.0238936 0.00410128 0)
(-0.0253558 0.00413349 0)
(-0.026829 0.00416133 0)
(-0.0283118 0.00418556 0)
(-0.029803 0.0042069 0)
(-0.0313017 0.00422597 0)
(-0.0328071 0.00424339 0)
(-0.0343186 0.00425968 0)
(-0.035836 0.00427533 0)
(-0.0373588 0.00429077 0)
(-0.0388871 0.00430638 0)
(-0.0404208 0.00432251 0)
(-0.04196 0.00433946 0)
(-0.0435051 0.00435748 0)
(-0.0450564 0.0043768 0)
(-0.0466141 0.00439761 0)
(-0.0481789 0.00442008 0)
(-0.0497511 0.00444432 0)
(-0.0513313 0.00447045 0)
(-0.0529201 0.00449854 0)
(-0.0545182 0.00452866 0)
(-0.056126 0.00456084 0)
(-0.0577443 0.0045951 0)
(-0.0593737 0.00463143 0)
(-0.0610148 0.0046698 0)
(-0.0626682 0.00471019 0)
(-0.0643345 0.00475252 0)
(-0.0660144 0.00479673 0)
(-0.0677082 0.00484271 0)
(-0.0694165 0.00489035 0)
(-0.0711399 0.00493952 0)
(-0.0728785 0.00499007 0)
(-0.0746329 0.00504182 0)
(-0.0764033 0.00509458 0)
(-0.0781899 0.00514814 0)
(-0.0799927 0.00520226 0)
(-0.0818119 0.00525667 0)
(-0.0836473 0.00531111 0)
(-0.0854988 0.00536525 0)
(-0.087366 0.00541876 0)
(-0.0892487 0.00547129 0)
(-0.0911461 0.00552243 0)
(-0.0930577 0.00557177 0)
(-0.0949826 0.00561887 0)
(-0.0969197 0.00566324 0)
(-0.0988679 0.00570437 0)
(-0.100826 0.00574172 0)
(-0.102792 0.00577472 0)
(-0.104765 0.00580276 0)
(-0.106742 0.0058252 0)
(-0.108721 0.00584136 0)
(-0.1107 0.00585056 0)
(-0.112677 0.00585204 0)
(-0.114648 0.00584504 0)
(-0.11661 0.00582878 0)
(-0.11856 0.00580242 0)
(-0.120493 0.00576513 0)
(-0.122407 0.00571602 0)
(-0.124297 0.00565421 0)
(-0.126158 0.00557878 0)
(-0.127985 0.00548883 0)
(-0.129774 0.00538342 0)
(-0.131519 0.00526162 0)
(-0.133214 0.00512251 0)
(-0.134853 0.00496516 0)
(-0.13643 0.00478868 0)
(-0.137938 0.0045922 0)
(-0.139371 0.00437486 0)
(-0.140722 0.00413589 0)
(-0.141984 0.00387453 0)
(-0.143148 0.00359011 0)
(-0.144208 0.00328203 0)
(-0.145156 0.00294979 0)
(-0.145983 0.00259298 0)
(-0.146683 0.00221132 0)
(-0.147246 0.00180464 0)
(-0.147666 0.00137295 0)
(-0.147935 0.000916391 0)
(-0.148044 0.000435295 0)
(-0.147986 -6.98176e-05 0)
(-0.147754 -0.000598222 0)
(-0.147341 -0.00114897 0)
(-0.14674 -0.00172089 0)
(-0.145946 -0.00231256 0)
(-0.144952 -0.0029223 0)
(-0.143754 -0.00354816 0)
(-0.142347 -0.00418794 0)
(-0.140728 -0.00483915 0)
(-0.138894 -0.00549902 0)
(-0.136843 -0.00616451 0)
(-0.134576 -0.00683231 0)
(-0.132091 -0.00749884 0)
(-0.129391 -0.00816028 0)
(-0.126478 -0.00881258 0)
(-0.123357 -0.00945146 0)
(-0.120033 -0.0100725 0)
(-0.116513 -0.010671 0)
(-0.112805 -0.0112423 0)
(-0.108919 -0.0117816 0)
(-0.104866 -0.0122841 0)
(-0.100659 -0.0127448 0)
(-0.0963123 -0.0131591 0)
(-0.0918415 -0.0135224 0)
(-0.0872638 -0.01383 0)
(-0.0825974 -0.0140778 0)
(-0.0778622 -0.0142618 0)
(-0.0730789 -0.0143785 0)
(-0.0682693 -0.0144246 0)
(-0.0634564 -0.0143975 0)
(-0.0586635 -0.0142948 0)
(-0.0539149 -0.0141151 0)
(-0.0492351 -0.0138571 0)
(-0.0446488 -0.0135207 0)
(-0.0401806 -0.013106 0)
(-0.035855 -0.0126142 0)
(-0.031696 -0.012047 0)
(-0.0277266 -0.0114072 0)
(-0.023969 -0.0106983 0)
(-0.0204439 -0.00992488 0)
(-0.0171702 -0.00909246 0)
(-0.0141649 -0.00820792 0)
(-0.0114422 -0.00727963 0)
(-0.00901365 -0.00631774 0)
(-0.00688709 -0.00533472 0)
(-0.00506628 -0.00434604 0)
(-0.00355019 -0.00337106 0)
(-0.00233225 -0.00243428 0)
(-0.00139953 -0.00156707 0)
(-0.000731783 -0.000809834 0)
(-0.000300262 -0.000214393 0)
(-6.93756e-05 0.00015282 0)
(3.28152e-07 0.000200275 0)
(1.28746e-06 -0.00010232 0)
(-1.70627e-05 -0.000133294 0)
(-8.49155e-05 -3.54783e-05 0)
(-0.000216543 0.000157241 0)
(-0.000423939 0.000418758 0)
(-0.000716241 0.000727739 0)
(-0.00109961 0.00106692 0)
(-0.00157769 0.00142259 0)
(-0.00215202 0.00178394 0)
(-0.00282237 0.00214264 0)
(-0.00358702 0.00249233 0)
(-0.0044431 0.00282832 0)
(-0.00538681 0.00314723 0)
(-0.00641367 0.00344679 0)
(-0.00751872 0.00372558 0)
(-0.0086967 0.00398291 0)
(-0.00994219 0.00421862 0)
(-0.0112497 0.004433 0)
(-0.0126139 0.00462668 0)
(-0.0140294 0.00480055 0)
(-0.0154913 0.0049557 0)
(-0.0169947 0.00509332 0)
(-0.0185352 0.00521471 0)
(-0.0201085 0.00532124 0)
(-0.0217107 0.00541425 0)
(-0.0233384 0.0054951 0)
(-0.0249884 0.00556513 0)
(-0.0266577 0.00562562 0)
(-0.0283439 0.00567781 0)
(-0.0300448 0.00572286 0)
(-0.0317584 0.00576187 0)
(-0.0334831 0.00579587 0)
(-0.0352175 0.00582581 0)
(-0.0369606 0.00585256 0)
(-0.0387113 0.00587692 0)
(-0.0404691 0.00589963 0)
(-0.0422334 0.00592134 0)
(-0.044004 0.00594263 0)
(-0.0457806 0.00596405 0)
(-0.0475633 0.00598604 0)
(-0.0493522 0.00600903 0)
(-0.0511474 0.00603336 0)
(-0.0529493 0.00605936 0)
(-0.0547584 0.00608727 0)
(-0.056575 0.00611733 0)
(-0.0583997 0.00614971 0)
(-0.0602332 0.00618456 0)
(-0.0620759 0.006222 0)
(-0.0639285 0.00626209 0)
(-0.0657918 0.00630489 0)
(-0.0676664 0.00635043 0)
(-0.0695529 0.00639869 0)
(-0.071452 0.00644965 0)
(-0.0733644 0.00650324 0)
(-0.0752907 0.00655939 0)
(-0.0772316 0.00661797 0)
(-0.0791875 0.00667887 0)
(-0.081159 0.00674191 0)
(-0.0831466 0.00680691 0)
(-0.0851506 0.00687366 0)
(-0.0871714 0.00694192 0)
(-0.0892092 0.00701141 0)
(-0.0912643 0.00708184 0)
(-0.0933366 0.00715288 0)
(-0.0954262 0.00722417 0)
(-0.0975328 0.00729531 0)
(-0.0996563 0.00736587 0)
(-0.101796 0.00743539 0)
(-0.103952 0.00750337 0)
(-0.106123 0.00756927 0)
(-0.108308 0.00763251 0)
(-0.110507 0.00769248 0)
(-0.112717 0.00774851 0)
(-0.114938 0.00779991 0)
(-0.117168 0.00784593 0)
(-0.119406 0.0078858 0)
(-0.121648 0.00791867 0)
(-0.123893 0.00794369 0)
(-0.126138 0.00795994 0)
(-0.128381 0.00796646 0)
(-0.130618 0.00796227 0)
(-0.132846 0.00794631 0)
(-0.135061 0.00791753 0)
(-0.137259 0.00787482 0)
(-0.139437 0.00781703 0)
(-0.141589 0.007743 0)
(-0.143711 0.00765155 0)
(-0.145797 0.00754145 0)
(-0.147842 0.00741149 0)
(-0.14984 0.00726043 0)
(-0.151785 0.00708704 0)
(-0.153671 0.0068901 0)
(-0.155491 0.0066684 0)
(-0.157238 0.00642077 0)
(-0.158904 0.00614606 0)
(-0.160482 0.00584319 0)
(-0.161964 0.00551112 0)
(-0.163342 0.0051489 0)
(-0.164609 0.00475569 0)
(-0.165754 0.00433071 0)
(-0.166771 0.00387336 0)
(-0.16765 0.00338314 0)
(-0.168382 0.00285973 0)
(-0.16896 0.00230297 0)
(-0.169374 0.00171292 0)
(-0.169615 0.00108984 0)
(-0.169676 0.00043424 0)
(-0.169548 -0.000253131 0)
(-0.169224 -0.000971243 0)
(-0.168695 -0.00171877 0)
(-0.167955 -0.0024941 0)
(-0.166997 -0.00329526 0)
(-0.165815 -0.00411997 0)
(-0.164405 -0.00496561 0)
(-0.16276 -0.00582917 0)
(-0.160879 -0.00670731 0)
(-0.158757 -0.00759631 0)
(-0.156394 -0.00849211 0)
(-0.153788 -0.00939027 0)
(-0.150941 -0.010286 0)
(-0.147855 -0.0111743 0)
(-0.144532 -0.0120497 0)
(-0.140978 -0.0129065 0)
(-0.137198 -0.0137389 0)
(-0.1332 -0.0145407 0)
(-0.128994 -0.0153057 0)
(-0.12459 -0.0160275 0)
(-0.120001 -0.0166997 0)
(-0.115242 -0.017316 0)
(-0.110327 -0.01787 0)
(-0.105274 -0.0183556 0)
(-0.100102 -0.0187668 0)
(-0.0948308 -0.0190981 0)
(-0.0894827 -0.0193443 0)
(-0.0840803 -0.0195007 0)
(-0.0786478 -0.0195629 0)
(-0.0732101 -0.0195274 0)
(-0.0677932 -0.0193913 0)