/*--------------------------------*- C++ -*----------------------------------*\
  =========                 |
  \\      /  F ield         | OpenFOAM: The Open Source CFD Toolbox
   \\    /   O peration     | Website:  https://openfoam.org
    \\  /    A nd           | Version:  7
     \\/     M anipulation  |
\*---------------------------------------------------------------------------*/
FoamFile
{
    version     2.0;
    format      ascii;
    class       surfaceScalarField;
    location    "0.325";
    object      phi;
}
// * * * * * * * * * * * * * * * * * * * * * * * * * * * * * * * * * * * * * //

dimensions      [0 3 -1 0 0 0 0];

internalField   nonuniform List<scalar> 
101920
(
5.416e-14
3.46426e-13
-4.09501e-13
4.86864e-13
-8.90566e-13
4.78792e-13
-1.26393e-12
3.74512e-13
-1.46595e-12
2.15529e-13
-1.49022e-12
1.36981e-14
-1.30303e-12
-1.99979e-13
-8.85703e-13
-4.13288e-13
-2.44408e-13
-6.32608e-13
6.12469e-13
-8.55799e-13
1.68083e-12
-1.07174e-12
2.95392e-12
-1.27479e-12
4.42097e-12
-1.46692e-12
6.0714e-12
-1.65023e-12
7.895e-12
-1.8239e-12
9.88068e-12
-1.98638e-12
1.20172e-11
-2.13717e-12
1.42932e-11
-2.27678e-12
1.66983e-11
-2.40556e-12
1.92221e-11
-2.52347e-12
2.1854e-11
-2.63066e-12
2.45827e-11
-2.7278e-12
2.73986e-11
-2.8155e-12
3.02925e-11
-2.89401e-12
3.32557e-11
-2.96349e-12
3.62796e-11
-3.02409e-12
3.93556e-11
-3.07603e-12
4.24755e-11
-3.11985e-12
4.56315e-11
-3.15609e-12
4.88162e-11
-3.185e-12
5.20226e-11
-3.20669e-12
5.52439e-11
-3.22139e-12
5.84733e-11
-3.22947e-12
6.17046e-11
-3.23137e-12
6.49319e-11
-3.22746e-12
6.81497e-11
-3.21803e-12
7.13528e-11
-3.20332e-12
7.45361e-11
-3.18349e-12
7.76948e-11
-3.15872e-12
8.0824e-11
-3.12924e-12
8.39194e-11
-3.09534e-12
8.69767e-11
-3.05728e-12
8.9992e-11
-3.01532e-12
9.29617e-11
-2.96963e-12
9.58823e-11
-2.92036e-12
9.87503e-11
-2.86769e-12
1.01563e-10
-2.81188e-12
1.04316e-10
-2.75317e-12
1.07008e-10
-2.69171e-12
1.09635e-10
-2.62765e-12
1.12196e-10
-2.56112e-12
1.14689e-10
-2.49227e-12
1.1711e-10
-2.42124e-12
1.19458e-10
-2.34818e-12
1.21731e-10
-2.27322e-12
1.23928e-10
-2.19646e-12
1.26046e-10
-2.11796e-12
1.28084e-10
-2.03785e-12
1.3004e-10
-1.95629e-12
1.31914e-10
-1.87341e-12
1.33703e-10
-1.78933e-12
1.35407e-10
-1.70413e-12
1.37025e-10
-1.61789e-12
1.38555e-10
-1.53067e-12
1.39997e-10
-1.44251e-12
1.41351e-10
-1.35346e-12
1.42615e-10
-1.2636e-12
1.43788e-10
-1.17301e-12
1.4487e-10
-1.08178e-12
1.4586e-10
-9.89977e-13
1.46758e-10
-8.97647e-13
1.47563e-10
-8.04866e-13
1.48275e-10
-7.11708e-13
1.48893e-10
-6.18222e-13
1.49418e-10
-5.24434e-13
1.49848e-10
-4.30371e-13
1.50184e-10
-3.36087e-13
1.50425e-10
-2.41644e-13
1.50572e-10
-1.4709e-13
1.50625e-10
-5.24532e-14
1.50582e-10
4.22424e-14
1.50446e-10
1.36964e-13
1.50214e-10
2.31667e-13
1.49888e-10
3.26295e-13
1.49468e-10
4.20784e-13
1.48953e-10
5.15075e-13
1.48344e-10
6.09129e-13
1.47641e-10
7.02922e-13
1.46845e-10
7.96417e-13
1.45956e-10
8.89553e-13
1.44973e-10
9.82253e-13
1.43899e-10
1.07445e-12
1.42733e-10
1.16609e-12
1.41476e-10
1.25714e-12
1.40129e-10
1.34755e-12
1.38691e-10
1.43721e-12
1.37166e-10
1.52604e-12
1.35552e-10
1.61394e-12
1.33851e-10
1.70087e-12
1.32064e-10
1.78677e-12
1.30193e-10
1.87155e-12
1.28237e-10
1.95506e-12
1.262e-10
2.03716e-12
1.24082e-10
2.11776e-12
1.21885e-10
2.1968e-12
1.19611e-10
2.2742e-12
1.17261e-10
2.34986e-12
1.14838e-10
2.42362e-12
1.12343e-10
2.49533e-12
1.09778e-10
2.5648e-12
1.07147e-10
2.63192e-12
1.0445e-10
2.69655e-12
1.01692e-10
2.75856e-12
9.88747e-11
2.81775e-12
9.60011e-11
2.87389e-12
9.30744e-11
2.92677e-12
9.00982e-11
2.97626e-12
8.7076e-11
3.0222e-12
8.40115e-11
3.06439e-12
8.09089e-11
3.10261e-12
7.77724e-11
3.13665e-12
7.46065e-11
3.16629e-12
7.14156e-11
3.19123e-12
6.82044e-11
3.21117e-12
6.49783e-11
3.22589e-12
6.17429e-11
3.23529e-12
5.85038e-11
3.23912e-12
5.52669e-11
3.23693e-12
5.20383e-11
3.2283e-12
4.88249e-11
3.21307e-12
4.56336e-11
3.19122e-12
4.24715e-11
3.16235e-12
3.93456e-11
3.12572e-12
3.62639e-11
3.08094e-12
3.32351e-11
3.02822e-12
3.02676e-11
2.96773e-12
2.73696e-11
2.89873e-12
2.45501e-11
2.82e-12
2.18193e-11
2.7311e-12
1.91869e-11
2.63259e-12
1.66616e-11
2.52474e-12
1.42541e-11
2.40662e-12
1.19768e-11
2.27726e-12
9.84016e-12
2.13691e-12
7.85283e-12
1.9864e-12
6.02678e-12
1.8253e-12
4.37706e-12
1.65186e-12
2.91396e-12
1.46529e-12
1.64229e-12
1.26827e-12
5.71231e-13
1.06532e-12
-2.84649e-13
8.56756e-13
-9.17252e-13
6.3885e-13
-1.32844e-12
4.13916e-13
-1.52331e-12
1.91973e-13
-1.50913e-12
-1.88911e-14
-1.30152e-12
-2.07689e-13
-9.42202e-13
-3.52932e-13
-5.15097e-13
-4.26388e-13
-1.45148e-13
-3.76279e-13
-1.47887e-13
-2.59052e-13
6.30677e-13
-9.29877e-13
1.14764e-12
-1.65293e-12
1.15151e-12
-2.12696e-12
8.50545e-13
-2.2191e-12
3.18184e-13
-1.83435e-12
-3.615e-13
-9.12051e-13
-1.11605e-12
5.77322e-13
-1.90682e-12
2.64861e-12
-2.71249e-12
5.30669e-12
-3.51451e-12
8.54052e-12
-4.29885e-12
1.23275e-11
-5.05762e-12
1.66435e-11
-5.78541e-12
2.1466e-11
-6.47731e-12
2.67702e-11
-7.13029e-12
3.25273e-11
-7.74341e-12
3.87072e-11
-8.31666e-12
4.52802e-11
-8.84997e-12
5.22179e-11
-9.34289e-12
5.9492e-11
-9.79563e-12
6.70731e-11
-1.02095e-11
7.49324e-11
-1.05859e-11
8.30428e-11
-1.0926e-11
9.13786e-11
-1.12305e-11
9.99148e-11
-1.15002e-11
1.08627e-10
-1.1736e-11
1.17491e-10
-1.19395e-11
1.26483e-10
-1.2112e-11
1.35581e-10
-1.22548e-11
1.44765e-10
-1.2369e-11
1.54014e-10
-1.24555e-11
1.63308e-10
-1.25156e-11
1.72629e-10
-1.25504e-11
1.81959e-10
-1.25612e-11
1.9128e-10
-1.25491e-11
2.00576e-10
-1.2515e-11
2.09833e-10
-1.24601e-11
2.19034e-10
-1.23851e-11
2.28167e-10
-1.2291e-11
2.37217e-10
-1.21789e-11
2.46171e-10
-1.20495e-11
2.55018e-10
-1.19039e-11
2.63746e-10
-1.17429e-11
2.72344e-10
-1.15672e-11
2.80801e-10
-1.13775e-11
2.89109e-10
-1.11746e-11
2.97257e-10
-1.09594e-11
3.05237e-10
-1.07326e-11
3.1304e-10
-1.04948e-11
3.20659e-10
-1.02466e-11
3.28087e-10
-9.98864e-12
3.35316e-10
-9.72149e-12
3.4234e-10
-9.44575e-12
3.49154e-10
-9.16193e-12
3.55752e-10
-8.87048e-12
3.62128e-10
-8.57188e-12
3.68277e-10
-8.26661e-12
3.74195e-10
-7.95513e-12
3.79877e-10
-7.63788e-12
3.85318e-10
-7.31526e-12
3.90517e-10
-6.98768e-12
3.95468e-10
-6.65552e-12
4.00169e-10
-6.31909e-12
4.04617e-10
-5.97868e-12
4.08809e-10
-5.63457e-12
4.12743e-10
-5.28705e-12
4.16417e-10
-4.93644e-12
4.19827e-10
-4.583e-12
4.22973e-10
-4.22698e-12
4.25853e-10
-3.86865e-12
4.28464e-10
-3.50827e-12
4.30805e-10
-3.14608e-12
4.32876e-10
-2.78227e-12
4.34674e-10
-2.41701e-12
4.362e-10
-2.05047e-12
4.37453e-10
-1.68285e-12
4.38431e-10
-1.31433e-12
4.39134e-10
-9.45116e-13
4.39562e-10
-5.75376e-13
4.39715e-10
-2.05279e-13
4.39593e-10
1.65017e-13
4.39195e-10
5.35342e-13
4.38522e-10
9.05493e-13
4.37573e-10
1.27525e-12
4.3635e-10
1.64443e-12
4.34853e-10
2.01288e-12
4.33082e-10
2.38045e-12
4.31038e-10
2.74698e-12
4.28722e-10
3.11224e-12
4.26136e-10
3.47597e-12
4.23281e-10
3.83794e-12
4.20157e-10
4.19795e-12
4.16768e-10
4.55578e-12
4.13114e-10
4.91118e-12
4.09198e-10
5.26388e-12
4.05022e-10
5.61358e-12
4.00588e-10
5.95998e-12
3.95899e-10
6.30277e-12
3.90958e-10
6.64166e-12
3.85768e-10
6.97633e-12
3.80333e-10
7.30647e-12
3.74656e-10
7.63163e-12
3.68742e-10
7.95137e-12
3.62594e-10
8.26527e-12
3.56217e-10
8.57295e-12
3.49618e-10
8.87404e-12
3.428e-10
9.16806e-12
3.35769e-10
9.45444e-12
3.28532e-10
9.73261e-12
3.21095e-10
1.00021e-11
3.13465e-10
1.02623e-11
3.0565e-10
1.05126e-11
2.97656e-10
1.07523e-11
2.89493e-10
1.09808e-11
2.8117e-10
1.11974e-11
2.72695e-10
1.14016e-11
2.64078e-10
1.15926e-11
2.55331e-10
1.17694e-11
2.46464e-10
1.19314e-11
2.37489e-10
1.20777e-11
2.28418e-10
1.22077e-11
2.19264e-10
1.23204e-11
2.1004e-10
1.24148e-11
2.00761e-10
1.24897e-11
1.91442e-10
1.25445e-11
1.82099e-10
1.25783e-11
1.72748e-10
1.25901e-11
1.63405e-10
1.25784e-11
1.5409e-10
1.25424e-11
1.44821e-10
1.24813e-11
1.35619e-10
1.23941e-11
1.26502e-10
1.2279e-11
1.17492e-10
1.21344e-11
1.08613e-10
1.19598e-11
9.98868e-11
1.17546e-11
9.13379e-11
1.15174e-11
8.29891e-11
1.12462e-11
7.48664e-11
1.09405e-11
6.69985e-11
1.05996e-11
5.94124e-11
1.02217e-11
5.21331e-11
9.80445e-12
4.51888e-11
9.34839e-12
3.86116e-11
8.85411e-12
3.24311e-11
8.3193e-12
2.66723e-11
7.74225e-12
2.13631e-11
7.12634e-12
1.65376e-11
6.47496e-12
1.22261e-11
5.78504e-12
8.44906e-12
5.05429e-12
5.22215e-12
4.29019e-12
2.56407e-12
3.50437e-12
4.92757e-13
2.70551e-12
-9.90072e-13
1.90268e-12
-1.90763e-12
1.1111e-12
-2.29318e-12
3.61726e-13
-2.19716e-12
-2.98034e-13
-1.72646e-12
-8.15269e-13
-1.04658e-12
-1.109e-12
-3.73662e-13
-1.05569e-12
-5.26639e-13
-3.83936e-13
1.01212e-12
-1.03299e-12
1.7996e-12
-1.58582e-12
1.71317e-12
-1.77577e-12
1.01659e-12
-1.37897e-12
-9.40114e-14
-2.50735e-13
-1.47716e-12
1.6832e-12
-3.03485e-12
4.46621e-12
-4.6912e-12
8.12967e-12
-6.38501e-12
1.26857e-11
-8.07366e-12
1.81224e-11
-9.73248e-12
2.44132e-11
-1.13459e-11
3.15269e-11
-1.29e-11
3.94302e-11
-1.4383e-11
4.80857e-11
-1.57873e-11
5.74516e-11
-1.711e-11
6.74839e-11
-1.83496e-11
7.81388e-11
-1.95049e-11
8.9372e-11
-2.05753e-11
1.01139e-10
-2.15612e-11
1.13395e-10
-2.24645e-11
1.26097e-10
-2.32874e-11
1.39202e-10
-2.40315e-11
1.52669e-10
-2.46985e-11
1.66459e-10
-2.52904e-11
1.80533e-10
-2.58094e-11
1.94852e-10
-2.62585e-11
2.0938e-10
-2.66402e-11
2.24081e-10
-2.69569e-11
2.38923e-10
-2.72109e-11
2.53872e-10
-2.74045e-11
2.68896e-10
-2.75404e-11
2.83967e-10
-2.76211e-11
2.99054e-10
-2.76489e-11
3.1413e-10
-2.76263e-11
3.2917e-10
-2.75553e-11
3.44148e-10
-2.74382e-11
3.59039e-10
-2.72769e-11
3.73822e-10
-2.70736e-11
3.88474e-10
-2.68304e-11
4.02974e-10
-2.65493e-11
4.17302e-10
-2.62323e-11
4.3144e-10
-2.58809e-11
4.4537e-10
-2.54971e-11
4.59075e-10
-2.50823e-11
4.7254e-10
-2.46385e-11
4.85748e-10
-2.41672e-11
4.98685e-10
-2.36699e-11
5.11339e-10
-2.31481e-11
5.23695e-10
-2.26033e-11
5.35743e-10
-2.20367e-11
5.47471e-10
-2.14497e-11
5.58868e-10
-2.08434e-11
5.69926e-10
-2.02191e-11
5.80633e-10
-1.95777e-11
5.90982e-10
-1.89205e-11
6.00964e-10
-1.82484e-11
6.10571e-10
-1.75624e-11
6.19797e-10
-1.68634e-11
6.28634e-10
-1.61525e-11
6.37076e-10
-1.54304e-11
6.45119e-10
-1.4698e-11
6.52755e-10
-1.39559e-11
6.59981e-10
-1.32049e-11
6.66792e-10
-1.24456e-11
6.73184e-10
-1.16788e-11
6.79153e-10
-1.0905e-11
6.84696e-10
-1.01249e-11
6.89808e-10
-9.33896e-12
6.94487e-10
-8.54783e-12
6.98731e-10
-7.75201e-12
7.02537e-10
-6.95202e-12
7.05903e-10
-6.14832e-12
7.08828e-10
-5.34135e-12
7.11308e-10
-4.53153e-12
7.13345e-10
-3.71927e-12
7.14935e-10
-2.90501e-12
7.16079e-10
-2.08919e-12
7.16776e-10
-1.2722e-12
7.17025e-10
-4.5441e-13
7.16826e-10
3.63813e-13
7.1618e-10
1.18207e-12
7.15086e-10
1.99992e-12
7.13545e-10
2.81694e-12
7.11557e-10
3.63271e-12
7.09123e-10
4.44684e-12
7.06245e-10
5.25896e-12
7.02924e-10
6.06863e-12
6.99161e-10
6.87536e-12
6.94958e-10
7.67867e-12
6.90318e-10
8.47805e-12
6.85243e-10
9.273e-12
6.79736e-10
1.0063e-11
6.738e-10
1.08476e-11
6.67438e-10
1.1626e-11
6.60654e-10
1.23977e-11
6.53452e-10
1.3162e-11
6.45837e-10
1.39182e-11
6.37813e-10
1.46657e-11
6.29385e-10
1.54037e-11
6.2056e-10
1.61314e-11
6.11344e-10
1.6848e-11
6.01742e-10
1.75524e-11
5.91763e-10
1.8244e-11
5.81414e-10
1.89216e-11
5.70704e-10
1.95845e-11
5.59641e-10
2.02314e-11
5.48235e-10
2.08612e-11
5.36495e-10
2.14727e-11
5.24433e-10
2.20647e-11
5.12059e-10
2.26362e-11
4.99387e-10
2.31856e-11
4.86428e-10
2.37116e-11
4.73196e-10
2.42127e-11
4.59706e-10
2.46874e-11
4.45974e-10
2.51344e-11
4.32014e-10
2.5552e-11
4.17845e-10
2.59384e-11
4.03485e-10
2.6292e-11
3.88952e-10
2.66109e-11
3.74266e-10
2.68935e-11
3.59449e-10
2.71378e-11
3.44522e-10
2.73415e-11
3.29508e-10
2.75028e-11
3.14433e-10
2.76198e-11
2.99321e-10
2.76905e-11
2.84199e-10
2.77124e-11
2.69094e-10
2.76829e-11
2.54036e-10
2.76001e-11
2.39055e-10
2.74621e-11
2.24183e-10
2.72663e-11
2.09451e-10
2.70097e-11
1.94894e-10
2.66898e-11
1.80549e-10
2.63052e-11
1.66452e-10
2.58535e-11
1.52641e-10
2.53309e-11
1.39152e-10
2.47344e-11
1.26028e-10
2.40632e-11
1.1331e-10
2.33165e-11
1.01041e-10
2.24907e-11
8.9264e-11
2.1582e-11
7.80218e-11
2.05904e-11
6.73591e-11
1.95169e-11
5.73211e-11
1.83589e-11
4.79525e-11
1.71132e-11
3.9295e-11
1.57828e-11
3.13884e-11
1.4375e-11
2.42745e-11
1.2894e-11
1.79924e-11
1.13412e-11
1.25679e-11
9.72213e-12
8.01732e-12
8.05444e-12
4.35483e-12
6.36516e-12
1.57727e-12
4.67942e-12
-3.43657e-13
3.02955e-12
-1.45723e-12
1.47528e-12
-1.85331e-12
9.76015e-14
-1.6719e-12
-9.99936e-13
-1.10687e-12
-1.67468e-12
-4.28763e-13
-1.73968e-12
-9.53773e-13
-3.45753e-13
1.3283e-12
-7.71853e-13
2.25196e-12
-9.3103e-13
1.88477e-12
-5.38993e-13
6.13573e-13
6.39013e-13
-1.27829e-12
2.75951e-12
-3.59466e-12
5.91929e-12
-6.19162e-12
1.01804e-11
-8.95238e-12
1.55795e-11
-1.17838e-11
2.21273e-11
-1.46201e-11
2.98127e-11
-1.74177e-11
3.86108e-11
-2.01453e-11
4.84879e-11
-2.27782e-11
5.94024e-11
-2.52976e-11
7.13061e-11
-2.76914e-11
8.41471e-11
-2.9952e-11
9.78713e-11
-3.20746e-11
1.12423e-10
-3.40563e-11
1.27745e-10
-3.58959e-11
1.4378e-10
-3.75941e-11
1.60469e-10
-3.91529e-11
1.77755e-10
-4.05745e-11
1.95584e-10
-4.18615e-11
2.13903e-10
-4.30167e-11
2.32656e-10
-4.40436e-11
2.51793e-10
-4.4946e-11
2.71263e-10
-4.57282e-11
2.91016e-10
-4.63942e-11
3.11007e-10
-4.69479e-11
3.3119e-10
-4.73933e-11
3.5152e-10
-4.77345e-11
3.71955e-10
-4.79757e-11
3.92455e-10
-4.81212e-11
4.1298e-10
-4.81748e-11
4.33494e-10
-4.81406e-11
4.5396e-10
-4.80223e-11
4.74345e-10
-4.78235e-11
4.94617e-10
-4.75479e-11
5.14743e-10
-4.71992e-11
5.34693e-10
-4.67808e-11
5.5444e-10
-4.62961e-11
5.73956e-10
-4.57485e-11
5.93215e-10
-4.51408e-11
6.12195e-10
-4.44762e-11
6.30871e-10
-4.37576e-11
6.49221e-10
-4.2988e-11
6.67224e-10
-4.21702e-11
6.84861e-10
-4.13067e-11
7.02113e-10
-4.04003e-11
7.18963e-10
-3.94533e-11
7.35394e-10
-3.8468e-11
7.51391e-10
-3.74467e-11
7.66939e-10
-3.63914e-11
7.82024e-10
-3.53042e-11
7.96634e-10
-3.41872e-11
8.10756e-10
-3.30421e-11
8.24379e-10
-3.18708e-11
8.37492e-10
-3.06751e-11
8.50085e-10
-2.94564e-11
8.62149e-10
-2.82166e-11
8.73675e-10
-2.6957e-11
8.84656e-10
-2.5679e-11
8.95084e-10
-2.4384e-11
9.04952e-10
-2.30731e-11
9.14254e-10
-2.17476e-11
9.22985e-10
-2.04087e-11
9.31138e-10
-1.90575e-11
9.38708e-10
-1.7695e-11
9.45692e-10
-1.63223e-11
9.52085e-10
-1.49403e-11
9.57883e-10
-1.355e-11
9.63083e-10
-1.21521e-11
9.67683e-10
-1.07477e-11
9.71679e-10
-9.3374e-12
9.75069e-10
-7.92205e-12
9.77852e-10
-6.50241e-12
9.80026e-10
-5.07924e-12
9.8159e-10
-3.65326e-12
9.82543e-10
-2.22517e-12
9.82884e-10
-7.95642e-13
9.82613e-10
6.34616e-13
9.81731e-10
2.06488e-12
9.80237e-10
3.49441e-12
9.78131e-10
4.92249e-12
9.75416e-10
6.34839e-12
9.72092e-10
7.77139e-12
9.6816e-10
9.19075e-12
9.63623e-10
1.06057e-11
9.58484e-10
1.20154e-11
9.52743e-10
1.3419e-11
9.46406e-10
1.48157e-11
9.39475e-10
1.62044e-11
9.31953e-10
1.75844e-11
9.23846e-10
1.89546e-11
9.15158e-10
2.03139e-11
9.05895e-10
2.16613e-11
8.96061e-10
2.29956e-11
8.85663e-10
2.43156e-11
8.74709e-10
2.56202e-11
8.63205e-10
2.69079e-11
8.51158e-10
2.81774e-11
8.38579e-10
2.9427e-11
8.25475e-10
3.06554e-11
8.11858e-10
3.18609e-11
7.97737e-10
3.3042e-11
7.83125e-10
3.41968e-11
7.68033e-10
3.53235e-11
7.52475e-10
3.642e-11
7.36463e-10
3.74844e-11
7.20013e-10
3.85145e-11
7.03141e-10
3.95082e-11
6.85864e-10
4.04632e-11
6.68198e-10
4.13771e-11
6.50163e-10
4.22474e-11
6.31779e-10
4.30715e-11
6.13067e-10
4.38468e-11
5.94048e-10
4.45704e-11
5.74746e-10
4.52395e-11
5.55187e-10
4.58511e-11
5.35395e-10
4.64023e-11
5.15399e-10
4.68898e-11
4.95227e-10
4.73102e-11
4.74908e-10
4.766e-11
4.54474e-10
4.7936e-11
4.33959e-10
4.81347e-11
4.13397e-10
4.82525e-11
3.92823e-10
4.82853e-11
3.72276e-10
4.82292e-11
3.51796e-10
4.80809e-11
3.31422e-10
4.78364e-11
3.11197e-10
4.74913e-11
2.91164e-10
4.70411e-11
2.71371e-10
4.64822e-11
2.51866e-10
4.58114e-11
2.32695e-10
4.50243e-11
2.13909e-10
4.41159e-11
1.95562e-10
4.30822e-11
1.77707e-10
4.19203e-11
1.60397e-10
4.06271e-11
1.43687e-10
3.91989e-11
1.27636e-10
3.76325e-11
1.12302e-10
3.5926e-11
9.77384e-11
3.40787e-11
8.40014e-11
3.2091e-11
7.11529e-11
2.99627e-11
5.9249e-11
2.7694e-11
4.83351e-11
2.52909e-11
3.84563e-11
2.27662e-11
2.96595e-11
2.01322e-11
2.19829e-11
1.74004e-11
1.54487e-11
1.45948e-11
1.00597e-11
1.17547e-11
5.80353e-12
8.92721e-12
2.65525e-12
6.17585e-12
5.52617e-13
3.58534e-12
-6.16361e-13
1.26923e-12
-1.00469e-12
-6.1398e-13
-8.23214e-13
-1.85751e-12
-3.55475e-13
-2.20282e-12
-1.30378e-12
-1.95792e-13
1.52126e-12
-2.77261e-13
2.31927e-12
1.41387e-13
1.47129e-12
1.33275e-12
-5.62996e-13
3.50503e-12
-3.44368e-12
6.81537e-12
-6.91046e-12
1.1378e-11
-1.07612e-11
1.72659e-11
-1.48396e-11
2.45153e-11
-1.90272e-11
3.31345e-11
-2.32355e-11
4.31137e-11
-2.73979e-11
5.44295e-11
-3.14635e-11
6.70455e-11
-3.5395e-11
8.09138e-11
-3.9166e-11
9.59794e-11
-4.27576e-11
1.12183e-10
-4.61566e-11
1.29461e-10
-4.93536e-11
1.47748e-10
-5.23431e-11
1.66977e-10
-5.51231e-11
1.87078e-10
-5.7694e-11
2.07982e-10
-6.00573e-11
2.29622e-10
-6.22154e-11
2.51932e-10
-6.41713e-11
2.74845e-10
-6.59294e-11
2.98296e-10
-6.74944e-11
3.22222e-10
-6.8872e-11
3.46561e-10
-7.00677e-11
3.71254e-10
-7.10872e-11
3.96242e-10
-7.19364e-11
4.21471e-10
-7.26211e-11
4.46884e-10
-7.31476e-11
4.7243e-10
-7.3522e-11
4.98059e-10
-7.37503e-11
5.23722e-10
-7.38385e-11
5.49373e-10
-7.37923e-11
5.74968e-10
-7.36175e-11
6.00463e-10
-7.33195e-11
6.2582e-10
-7.29039e-11
6.50997e-10
-7.23762e-11
6.75958e-10
-7.17417e-11
7.00667e-10
-7.10053e-11
7.2509e-10
-7.01721e-11
7.49196e-10
-6.92466e-11
7.72954e-10
-6.82337e-11
7.96335e-10
-6.71377e-11
8.1931e-10
-6.59631e-11
8.41855e-10
-6.47142e-11
8.63943e-10
-6.3395e-11
8.85552e-10
-6.20094e-11
9.06659e-10
-6.0561e-11
9.27244e-10
-5.90534e-11
9.47288e-10
-5.74901e-11
9.66771e-10
-5.58743e-11
9.85676e-10
-5.42093e-11
1.00399e-09
-5.2498e-11
1.02169e-09
-5.07432e-11
1.03877e-09
-4.89478e-11
1.05521e-09
-4.71145e-11
1.071e-09
-4.52457e-11
1.08612e-09
-4.3344e-11
1.10058e-09
-4.14116e-11
1.11435e-09
-3.94505e-11
1.12743e-09
-3.74629e-11
1.1398e-09
-3.54507e-11
1.15147e-09
-3.34159e-11
1.16242e-09
-3.13601e-11
1.17265e-09
-2.92852e-11
1.18215e-09
-2.71927e-11
1.19091e-09
-2.50843e-11
1.19893e-09
-2.29613e-11
1.20621e-09
-2.08254e-11
1.21274e-09
-1.86778e-11
1.21851e-09
-1.65198e-11
1.22352e-09
-1.43527e-11
1.22778e-09
-1.21777e-11
1.23127e-09
-9.99597e-12
1.234e-09
-7.80875e-12
1.23596e-09
-5.61712e-12
1.23716e-09
-3.42218e-12
1.23759e-09
-1.225e-12
1.23725e-09
9.733e-13
1.23615e-09
3.17157e-12
1.23427e-09
5.36868e-12
1.23163e-09
7.56351e-12
1.22822e-09
9.75495e-12
1.22405e-09
1.19419e-11
1.21912e-09
1.41231e-11
1.21343e-09
1.62974e-11
1.20698e-09
1.84635e-11
1.19978e-09
2.06201e-11
1.19183e-09
2.27657e-11
1.18314e-09
2.48991e-11
1.1737e-09
2.70188e-11
1.16353e-09
2.91232e-11
1.15264e-09
3.12107e-11
1.14102e-09
3.32796e-11
1.12869e-09
3.53281e-11
1.11565e-09
3.73544e-11
1.10191e-09
3.93566e-11
1.08749e-09
4.13326e-11
1.07238e-09
4.32801e-11
1.05661e-09
4.5197e-11
1.04019e-09
4.70809e-11
1.02312e-09
4.89293e-11
1.00542e-09
5.07398e-11
9.87108e-10
5.25096e-11
9.68196e-10
5.42357e-11
9.48701e-10
5.59151e-11
9.2864e-10
5.75448e-11
9.08033e-10
5.91216e-11
8.86899e-10
6.06421e-11
8.65259e-10
6.21029e-11
8.43136e-10
6.35001e-11
8.20553e-10
6.48301e-11
7.97535e-10
6.60889e-11
7.74109e-10
6.72725e-11
7.50303e-10
6.83765e-11
7.26145e-10
6.93965e-11
7.01668e-10
7.03282e-11
6.76903e-10
7.11669e-11
6.51885e-10
7.19078e-11
6.26649e-10
7.25456e-11
6.01233e-10
7.30753e-11
5.75677e-10
7.34919e-11
5.50021e-10
7.37902e-11
5.24309e-10
7.39643e-11
4.98585e-10
7.40083e-11
4.72897e-10
7.3917e-11
4.47293e-10
7.36849e-11
4.21824e-10
7.33059e-11
3.96541e-10
7.27735e-11
3.71499e-10
7.20819e-11
3.46756e-10
7.12256e-11
3.22371e-10
7.01986e-11
2.984e-10
6.89944e-11
2.74907e-10
6.76074e-11
2.51956e-10
6.60331e-11
2.29613e-10
6.42658e-11
2.07942e-10
6.22995e-11
1.87007e-10
6.01306e-11
1.66883e-10
5.77571e-11
1.47637e-10
5.51753e-11
1.29334e-10
5.23822e-11
1.1204e-10
4.93801e-11
9.58227e-11
4.61741e-11
8.07521e-11
4.27672e-11
6.68854e-11
3.91651e-11
5.42697e-11
3.53831e-11
4.29506e-11
3.14431e-11
3.29751e-11
2.73721e-11
2.43727e-11
2.32057e-11
1.71406e-11
1.89915e-11
1.12626e-11
1.48004e-11
6.70805e-12
1.07256e-11
3.4093e-12
6.88244e-12
1.25444e-12
3.42402e-12
8.80175e-14
5.55628e-13
-3.07302e-13
-1.45981e-12
-2.07102e-13
-2.29555e-12
-1.51068e-12
-6.25731e-15
1.53194e-12
3.74315e-13
1.91682e-12
1.50566e-12
3.42466e-13
3.63643e-12
-2.67921e-12
6.95501e-12
-6.75654e-12
1.16118e-11
-1.15718e-11
1.77194e-11
-1.68729e-11
2.53497e-11
-2.24679e-11
3.45378e-11
-2.82108e-11
4.52922e-11
-3.3988e-11
5.76035e-11
-3.97098e-11
7.14463e-11
-4.53075e-11
8.67805e-11
-5.07301e-11
1.03554e-10
-5.59407e-11
1.21708e-10
-6.09122e-11
1.41175e-10
-6.56248e-11
1.61886e-10
-7.00643e-11
1.83766e-10
-7.42223e-11
2.0674e-10
-7.8095e-11
2.30727e-10
-8.16815e-11
2.55652e-10
-8.49825e-11
2.81436e-10
-8.80002e-11
3.08003e-10
-9.07386e-11
3.35277e-10
-9.32029e-11
3.63182e-10
-9.53993e-11
3.91645e-10
-9.7335e-11
4.20594e-10
-9.90173e-11
4.4996e-10
-1.00454e-10
4.79676e-10
-1.01652e-10
5.09675e-10
-1.0262e-10
5.39893e-10
-1.03366e-10
5.7027e-10
-1.03899e-10
6.00746e-10
-1.04226e-10
6.31263e-10
-1.04357e-10
6.61769e-10
-1.04298e-10
6.92209e-10
-1.04058e-10
7.22535e-10
-1.03645e-10
7.52696e-10
-1.03065e-10
7.82647e-10
-1.02328e-10
8.12344e-10
-1.01439e-10
8.41745e-10
-1.00406e-10
8.70808e-10
-9.92356e-11
8.99497e-10
-9.7935e-11
9.27774e-10
-9.65105e-11
9.55605e-10
-9.49682e-11
9.82957e-10
-9.33144e-11
1.0098e-09
-9.15551e-11
1.0361e-09
-8.96958e-11
1.06183e-09
-8.77421e-11
1.08697e-09
-8.56991e-11
1.11149e-09
-8.3572e-11
1.13536e-09
-8.13654e-11
1.15857e-09
-7.90842e-11
1.1811e-09
-7.67328e-11
1.20291e-09
-7.43153e-11
1.22401e-09
-7.18359e-11
1.24436e-09
-6.92986e-11
1.26395e-09
-6.6707e-11
1.28277e-09
-6.40649e-11
1.3008e-09
-6.13757e-11
1.31803e-09
-5.86424e-11
1.33445e-09
-5.58682e-11
1.35004e-09
-5.30561e-11
1.3648e-09
-5.02087e-11
1.37871e-09
-4.73289e-11
1.39177e-09
-4.44192e-11
1.40397e-09
-4.1482e-11
1.4153e-09
-3.85196e-11
1.42575e-09
-3.55343e-11
1.43532e-09
-3.25282e-11
1.44399e-09
-2.95034e-11
1.45178e-09
-2.64619e-11
1.45866e-09
-2.34054e-11
1.46465e-09
-2.03358e-11
1.46972e-09
-1.72549e-11
1.47389e-09
-1.41643e-11
1.47715e-09
-1.10658e-11
1.47949e-09
-7.96095e-12
1.48092e-09
-4.85135e-12
1.48143e-09
-1.73858e-12
1.48103e-09
1.37577e-12
1.47971e-09
4.49007e-12
1.47748e-09
7.6027e-12
1.47433e-09
1.07121e-11
1.47027e-09
1.38166e-11
1.4653e-09
1.69146e-11
1.45942e-09
2.00044e-11
1.45263e-09
2.30842e-11
1.44494e-09
2.61522e-11
1.43635e-09
2.92065e-11
1.42687e-09
3.22451e-11
1.41651e-09
3.52661e-11
1.40526e-09
3.82675e-11
1.39314e-09
4.12469e-11
1.38014e-09
4.4202e-11
1.36629e-09
4.71305e-11
1.35159e-09
5.00297e-11
1.33605e-09
5.28972e-11
1.31968e-09
5.57301e-11
1.30248e-09
5.85254e-11
1.28448e-09
6.12802e-11
1.26569e-09
6.3991e-11
1.24611e-09
6.66547e-11
1.22577e-09
6.92678e-11
1.20469e-09
7.18267e-11
1.18287e-09
7.43274e-11
1.16034e-09
7.67658e-11
1.13712e-09
7.91377e-11
1.11322e-09
8.14388e-11
1.08868e-09
8.36646e-11
1.06351e-09
8.58103e-11
1.03774e-09
8.78708e-11
1.0114e-09
8.98411e-11
9.84514e-10
9.17159e-11
9.57113e-10
9.34896e-11
9.29228e-10
9.51565e-11
9.00893e-10
9.67104e-11
8.72144e-10
9.81454e-11
8.43016e-10
9.94553e-11
8.1355e-10
1.00633e-10
7.83784e-10
1.01673e-10
7.53763e-10
1.02567e-10
7.23529e-10
1.03308e-10
6.93132e-10
1.03889e-10
6.62618e-10
1.04304e-10
6.32039e-10
1.04543e-10
6.01448e-10
1.04599e-10
5.70901e-10
1.04465e-10
5.40454e-10
1.04132e-10
5.10167e-10
1.03593e-10
4.80101e-10
1.02838e-10
4.50321e-10
1.01861e-10
4.20894e-10
1.00654e-10
3.91887e-10
9.92073e-11
3.63369e-10
9.7513e-11
3.35412e-10
9.5564e-11
3.08091e-10
9.33545e-11
2.81481e-10
9.08771e-11
2.55657e-10
8.81238e-11
2.30695e-10
8.50904e-11
2.06676e-10
8.17753e-11
1.83677e-10
7.8175e-11
1.61776e-10
7.42859e-11
1.41047e-10
7.01097e-11
1.21562e-10
6.5654e-11
1.03397e-10
6.0929e-11
8.66204e-11
5.5946e-11
7.12859e-11
5.07212e-11
5.744e-11
4.52839e-11
4.51309e-11
3.96777e-11
3.43894e-11
3.39513e-11
2.52192e-11
2.81667e-11
1.76046e-11
2.24149e-11
1.15069e-11
1.68166e-11
6.86084e-12
1.15219e-11
3.56251e-12
6.72134e-12
1.46317e-12
2.66061e-12
3.53859e-13
-3.50914e-13
-2.00091e-14
-1.92262e-12
-1.53322e-12
1.99512e-13
1.34111e-12
1.12358e-12
9.95569e-13
3.05464e-12
-1.5913e-12
6.22018e-12
-5.84608e-12
1.0794e-11
-1.13305e-11
1.69105e-11
-1.76863e-11
2.46669e-11
-2.4626e-11
3.41256e-11
-3.19242e-11
4.53197e-11
-3.94042e-11
5.8258e-11
-4.69264e-11
7.29285e-11
-5.43804e-11
8.93019e-11
-6.16807e-11
1.07334e-10
-6.87627e-11
1.26969e-10
-7.55776e-11
1.48144e-10
-8.20884e-11
1.70787e-10
-8.82682e-11
1.94822e-10
-9.40981e-11
2.20168e-10
-9.95663e-11
2.46739e-10
-1.04666e-10
2.74452e-10
-1.09395e-10
3.0322e-10
-1.13751e-10
3.32957e-10
-1.17738e-10
3.63578e-10
-1.2136e-10
3.94998e-10
-1.24623e-10
4.27133e-10
-1.27534e-10
4.59901e-10
-1.30102e-10
4.9322e-10
-1.32337e-10
5.27013e-10
-1.34246e-10
5.61203e-10
-1.35841e-10
5.95716e-10
-1.37132e-10
6.30479e-10
-1.38129e-10
6.65423e-10
-1.38843e-10
7.00481e-10
-1.39285e-10
7.35587e-10
-1.39464e-10
7.7068e-10
-1.39392e-10
8.057e-10
-1.39078e-10
8.40588e-10
-1.38533e-10
8.7529e-10
-1.37767e-10
9.09752e-10
-1.3679e-10
9.43924e-10
-1.35611e-10
9.77757e-10
-1.34239e-10
1.01121e-09
-1.32684e-10
1.04423e-09
-1.30954e-10
1.07677e-09
-1.29058e-10
1.10881e-09
-1.27005e-10
1.1403e-09
-1.24802e-10
1.1712e-09
-1.22458e-10
1.20149e-09
-1.1998e-10
1.23112e-09
-1.17374e-10
1.26007e-09
-1.14649e-10
1.28831e-09
-1.11811e-10
1.31581e-09
-1.08865e-10
1.34254e-09
-1.0582e-10
1.36849e-09
-1.0268e-10
1.39362e-09
-9.94507e-11
1.41793e-09
-9.61383e-11
1.44138e-09
-9.27478e-11
1.46395e-09
-8.92842e-11
1.48564e-09
-8.57524e-11
1.50642e-09
-8.21569e-11
1.52628e-09
-7.8502e-11
1.54521e-09
-7.47918e-11
1.56318e-09
-7.10303e-11
1.58019e-09
-6.72213e-11
1.59623e-09
-6.33683e-11
1.61129e-09
-5.94749e-11
1.62535e-09
-5.55443e-11
1.63841e-09
-5.15796e-11
1.65046e-09
-4.75839e-11
1.66149e-09
-4.356e-11
1.6715e-09
-3.95108e-11
1.68048e-09
-3.54388e-11
1.68842e-09
-3.13465e-11
1.69532e-09
-2.72365e-11
1.70117e-09
-2.31111e-11
1.70598e-09
-1.89727e-11
1.70974e-09
-1.48234e-11
1.71244e-09
-1.06655e-11
1.71409e-09
-6.50123e-12
1.71469e-09
-2.33267e-12
1.71423e-09
1.83801e-12
1.71271e-09
6.00862e-12
1.71013e-09
1.0177e-11
1.7065e-09
1.43409e-11
1.70182e-09
1.84983e-11
1.69609e-09
2.26468e-11
1.68931e-09
2.67841e-11
1.68149e-09
3.09079e-11
1.67263e-09
3.50156e-11
1.66273e-09
3.91047e-11
1.6518e-09
4.31726e-11
1.63985e-09
4.72167e-11
1.62688e-09
5.12341e-11
1.61291e-09
5.52217e-11
1.59793e-09
5.91765e-11
1.58197e-09
6.30951e-11
1.56502e-09
6.69743e-11
1.54711e-09
7.08105e-11
1.52824e-09
7.45999e-11
1.50843e-09
7.83385e-11
1.48768e-09
8.20223e-11
1.46603e-09
8.56469e-11
1.44347e-09
8.92079e-11
1.42004e-09
9.27006e-11
1.39575e-09
9.61202e-11
1.37061e-09
9.94613e-11
1.34466e-09
1.02718e-10
1.31791e-09
1.05886e-10
1.29039e-09
1.08959e-10
1.26213e-09
1.1193e-10
1.23314e-09
1.14793e-10
1.20347e-09
1.17542e-10
1.17314e-09
1.2017e-10
1.14219e-09
1.2267e-10
1.11064e-09
1.25034e-10
1.07854e-09
1.27255e-10
1.04593e-09
1.29324e-10
1.01284e-09
1.31234e-10
9.79317e-10
1.32977e-10
9.45407e-10
1.34543e-10
9.11155e-10
1.35924e-10
8.76611e-10
1.3711e-10
8.41826e-10
1.38092e-10
8.06853e-10
1.38862e-10
7.71748e-10
1.39408e-10
7.36569e-10
1.39721e-10
7.01377e-10
1.3979e-10
6.66236e-10
1.39607e-10
6.31209e-10
1.39159e-10
5.96365e-10
1.38437e-10
5.61773e-10
1.37429e-10
5.27507e-10
1.36127e-10
4.93642e-10
1.3452e-10
4.60252e-10
1.32596e-10
4.27418e-10
1.30347e-10
3.95222e-10
1.27761e-10
3.63745e-10
1.24833e-10
3.33069e-10
1.21552e-10
3.03282e-10
1.17911e-10
2.74471e-10
1.13903e-10
2.4672e-10
1.09526e-10
2.20113e-10
1.04779e-10
1.94739e-10
9.96599e-11
1.70681e-10
9.41702e-11
1.48018e-10
8.83169e-11
1.26827e-10
8.21172e-11
1.07182e-10
7.55909e-11
8.91451e-11
6.87597e-11
7.2771e-11
6.16597e-11
5.81034e-11
5.43449e-11
4.5172e-11
4.68811e-11
3.39914e-11
3.93509e-11
2.45505e-11
3.18614e-11
1.68109e-11
2.45563e-11
1.07102e-11
1.7618e-11
6.15614e-12
1.12729e-11
3.01254e-12
5.80212e-12
1.09736e-12
1.55853e-12
1.8838e-13
-1.01575e-12
-1.34529e-12
4.15787e-13
9.32081e-13
1.91496e-12
-4.92289e-13
4.70392e-12
-4.38588e-12
8.97475e-12
-1.01253e-11
1.48786e-11
-1.72358e-11
2.25278e-11
-2.53304e-11
3.20006e-11
-3.40936e-11
4.3348e-11
-4.32699e-11
5.65967e-11
-5.2654e-11
7.17516e-11
-6.20819e-11
8.8796e-11
-7.14242e-11
1.07695e-10
-8.05799e-11
1.28402e-10
-8.94701e-11
1.50856e-10
-9.80335e-11
1.7499e-10
-1.06223e-10
2.00728e-10
-1.14006e-10
2.27988e-10
-1.21356e-10
2.56681e-10
-1.28259e-10
2.86718e-10
-1.34704e-10
3.18007e-10
-1.40685e-10
3.50456e-10
-1.46201e-10
3.83972e-10
-1.51254e-10
4.1846e-10
-1.55848e-10
4.53829e-10
-1.59991e-10
4.89987e-10
-1.63691e-10
5.26843e-10
-1.66958e-10
5.64309e-10
-1.69803e-10
6.02299e-10
-1.72236e-10
6.40729e-10
-1.7427e-10
6.79515e-10
-1.75918e-10
7.1858e-10
-1.77193e-10
7.57844e-10
-1.78108e-10
7.97234e-10
-1.78675e-10
8.36677e-10
-1.78909e-10
8.76106e-10
-1.78821e-10
9.15452e-10
-1.78425e-10
9.54651e-10
-1.77733e-10
9.93642e-10
-1.76758e-10
1.03237e-09
-1.75513e-10
1.07076e-09
-1.74009e-10
1.10878e-09
-1.72259e-10
1.14637e-09
-1.70273e-10
1.18348e-09
-1.68063e-10
1.22006e-09
-1.6564e-10
1.25607e-09
-1.63015e-10
1.29147e-09
-1.60197e-10
1.32621e-09
-1.57197e-10
1.36025e-09
-1.54025e-10
1.39357e-09
-1.5069e-10
1.42612e-09
-1.47199e-10
1.45787e-09
-1.43564e-10
1.4888e-09
-1.3979e-10
1.51886e-09
-1.35887e-10
1.54805e-09
-1.31862e-10
1.57632e-09
-1.27722e-10
1.60365e-09
-1.23474e-10
1.63003e-09
-1.19125e-10
1.65543e-09
-1.14682e-10
1.67983e-09
-1.10151e-10
1.70321e-09
-1.05537e-10
1.72555e-09
-1.00847e-10
1.74685e-09
-9.60847e-11
1.76707e-09
-9.12561e-11
1.78622e-09
-8.63659e-11
1.80427e-09
-8.14188e-11
1.82121e-09
-7.64191e-11
1.83704e-09
-7.13712e-11
1.85174e-09
-6.62791e-11
1.8653e-09
-6.11467e-11
1.87772e-09
-5.59778e-11
1.88899e-09
-5.07759e-11
1.89909e-09
-4.55444e-11
1.90803e-09
-4.02867e-11
1.9158e-09
-3.50058e-11
1.9224e-09
-2.97049e-11
1.92781e-09
-2.43871e-11
1.93204e-09
-1.90552e-11
1.93509e-09
-1.37121e-11
1.93695e-09
-8.36062e-12
1.93762e-09
-3.00362e-12
1.9371e-09
2.3561e-12
1.93539e-09
7.71571e-12
1.9325e-09
1.30724e-11
1.92842e-09
1.84233e-11
1.92315e-09
2.37657e-11
1.9167e-09
2.90965e-11