/*--------------------------------*- C++ -*----------------------------------*\
  =========                 |
  \\      /  F ield         | OpenFOAM: The Open Source CFD Toolbox
   \\    /   O peration     | Website:  https://openfoam.org
    \\  /    A nd           | Version:  7
     \\/     M anipulation  |
\*---------------------------------------------------------------------------*/
FoamFile
{
    version     2.0;
    format      ascii;
    class       volVectorField;
    location    "0.325";
    object      U;
}
// * * * * * * * * * * * * * * * * * * * * * * * * * * * * * * * * * * * * * //

dimensions      [0 1 -1 0 0 0 0];

internalField   nonuniform List<vector> 
51200
(
(7.31476e-09 2.67686e-08 0)
(-2.34979e-08 3.73126e-08 0)
(-1.03666e-07 3.63529e-08 0)
(-1.76738e-07 3.00049e-08 0)
(-2.24648e-07 2.11087e-08 0)
(-2.43921e-07 1.00039e-08 0)
(-2.31413e-07 -1.42511e-09 0)
(-1.83229e-07 -1.24834e-08 0)
(-9.85663e-08 -2.37372e-08 0)
(2.13483e-08 -3.51299e-08 0)
(1.75565e-07 -4.59558e-08 0)
(3.63213e-07 -5.59127e-08 0)
(5.82813e-07 -6.52339e-08 0)
(8.32601e-07 -7.41083e-08 0)
(1.11091e-06 -8.24762e-08 0)
(1.41605e-06 -9.02331e-08 0)
(1.74624e-06 -9.73652e-08 0)
(2.09966e-06 -1.03936e-07 0)
(2.47455e-06 -1.09977e-07 0)
(2.86926e-06 -1.15473e-07 0)
(3.2821e-06 -1.20428e-07 0)
(3.71133e-06 -1.24897e-07 0)
(4.15527e-06 -1.28924e-07 0)
(4.6124e-06 -1.32524e-07 0)
(5.08131e-06 -1.35701e-07 0)
(5.56062e-06 -1.38451e-07 0)
(6.04894e-06 -1.40783e-07 0)
(6.54492e-06 -1.42733e-07 0)
(7.04728e-06 -1.44337e-07 0)
(7.55481e-06 -1.45609e-07 0)
(8.06637e-06 -1.46547e-07 0)
(8.58084e-06 -1.47159e-07 0)
(9.09715e-06 -1.47462e-07 0)
(9.61425e-06 -1.47481e-07 0)
(1.01312e-05 -1.47237e-07 0)
(1.0647e-05 -1.46746e-07 0)
(1.11609e-05 -1.46018e-07 0)
(1.1672e-05 -1.4506e-07 0)
(1.21795e-05 -1.43877e-07 0)
(1.26827e-05 -1.42478e-07 0)
(1.31809e-05 -1.40879e-07 0)
(1.36732e-05 -1.39094e-07 0)
(1.41592e-05 -1.37135e-07 0)
(1.46381e-05 -1.3501e-07 0)
(1.51095e-05 -1.32723e-07 0)
(1.55727e-05 -1.30281e-07 0)
(1.60273e-05 -1.27699e-07 0)
(1.64726e-05 -1.2499e-07 0)
(1.69084e-05 -1.22163e-07 0)
(1.7334e-05 -1.19222e-07 0)
(1.77492e-05 -1.16171e-07 0)
(1.81535e-05 -1.13016e-07 0)
(1.85467e-05 -1.09765e-07 0)
(1.89283e-05 -1.06425e-07 0)
(1.92981e-05 -1.03003e-07 0)
(1.96558e-05 -9.95008e-08 0)
(2.0001e-05 -9.59222e-08 0)
(2.03336e-05 -9.22723e-08 0)
(2.06532e-05 -8.85587e-08 0)
(2.09596e-05 -8.47884e-08 0)
(2.12527e-05 -8.09662e-08 0)
(2.15322e-05 -7.70958e-08 0)
(2.17979e-05 -7.31812e-08 0)
(2.20498e-05 -6.92253e-08 0)
(2.22877e-05 -6.52291e-08 0)
(2.25114e-05 -6.11936e-08 0)
(2.27208e-05 -5.71219e-08 0)
(2.29158e-05 -5.30188e-08 0)
(2.30962e-05 -4.88881e-08 0)
(2.3262e-05 -4.47319e-08 0)
(2.34131e-05 -4.0553e-08 0)
(2.35494e-05 -3.63554e-08 0)
(2.36707e-05 -3.21434e-08 0)
(2.37771e-05 -2.79193e-08 0)
(2.38686e-05 -2.36828e-08 0)
(2.39449e-05 -1.9434e-08 0)
(2.40062e-05 -1.51749e-08 0)
(2.40524e-05 -1.09084e-08 0)
(2.40835e-05 -6.63702e-09 0)
(2.40995e-05 -2.36207e-09 0)
(2.41003e-05 1.91553e-09 0)
(2.4086e-05 6.19453e-09 0)
(2.40565e-05 1.04731e-08 0)
(2.40119e-05 1.47484e-08 0)
(2.39522e-05 1.90172e-08 0)
(2.38773e-05 2.32767e-08 0)
(2.37874e-05 2.75261e-08 0)
(2.36825e-05 3.17655e-08 0)
(2.35625e-05 3.59938e-08 0)
(2.34277e-05 4.02073e-08 0)
(2.3278e-05 4.44012e-08 0)
(2.31134e-05 4.85722e-08 0)
(2.29342e-05 5.27194e-08 0)
(2.27403e-05 5.68429e-08 0)
(2.25319e-05 6.09404e-08 0)
(2.23091e-05 6.50068e-08 0)
(2.2072e-05 6.9036e-08 0)
(2.18208e-05 7.30238e-08 0)
(2.15556e-05 7.69689e-08 0)
(2.12765e-05 8.08702e-08 0)
(2.09838e-05 8.47237e-08 0)
(2.06776e-05 8.85226e-08 0)
(2.03582e-05 9.22593e-08 0)
(2.00257e-05 9.59293e-08 0)
(1.96804e-05 9.9531e-08 0)
(1.93227e-05 1.03062e-07 0)
(1.89527e-05 1.06518e-07 0)
(1.85708e-05 1.09891e-07 0)
(1.81772e-05 1.13172e-07 0)
(1.77724e-05 1.16355e-07 0)
(1.73566e-05 1.19434e-07 0)
(1.69302e-05 1.22405e-07 0)
(1.64938e-05 1.25262e-07 0)
(1.60476e-05 1.27993e-07 0)
(1.55922e-05 1.30585e-07 0)
(1.5128e-05 1.33029e-07 0)
(1.46557e-05 1.35323e-07 0)
(1.41756e-05 1.37459e-07 0)
(1.36886e-05 1.39428e-07 0)
(1.3195e-05 1.4122e-07 0)
(1.26957e-05 1.42826e-07 0)
(1.21914e-05 1.44235e-07 0)
(1.16826e-05 1.4543e-07 0)
(1.11703e-05 1.46392e-07 0)
(1.06551e-05 1.47115e-07 0)
(1.01379e-05 1.47601e-07 0)
(9.61974e-06 1.47843e-07 0)
(9.10143e-06 1.4781e-07 0)
(8.58394e-06 1.47471e-07 0)
(8.06831e-06 1.46828e-07 0)
(7.55566e-06 1.4589e-07 0)
(7.04711e-06 1.44634e-07 0)
(6.54377e-06 1.43006e-07 0)
(6.04685e-06 1.40982e-07 0)
(5.5577e-06 1.38598e-07 0)
(5.07768e-06 1.35877e-07 0)
(4.60809e-06 1.32758e-07 0)
(4.15032e-06 1.29148e-07 0)
(3.70592e-06 1.25038e-07 0)
(3.27648e-06 1.20488e-07 0)
(2.86347e-06 1.15503e-07 0)
(2.46846e-06 1.09999e-07 0)
(2.09329e-06 1.03926e-07 0)
(1.73977e-06 9.73212e-08 0)
(1.40943e-06 9.02111e-08 0)
(1.10394e-06 8.2534e-08 0)
(8.25489e-07 7.41918e-08 0)
(5.76083e-07 6.51473e-08 0)
(3.56922e-07 5.55276e-08 0)
(1.69195e-07 4.55526e-08 0)
(1.48499e-08 3.51878e-08 0)
(-1.04314e-07 2.41666e-08 0)
(-1.87772e-07 1.26041e-08 0)
(-2.36013e-07 1.01386e-09 0)
(-2.49876e-07 -1.02623e-08 0)
(-2.30944e-07 -2.0484e-08 0)
(-1.8343e-07 -2.81934e-08 0)
(-1.17057e-07 -3.15116e-08 0)
(-5.00097e-08 -2.66087e-08 0)
(-9.67147e-09 -9.8526e-09 0)
(-1.56134e-08 7.75298e-08 0)
(-8.86601e-08 1.29425e-07 0)
(-2.10004e-07 1.30766e-07 0)
(-3.14269e-07 1.03541e-07 0)
(-3.64533e-07 5.62104e-08 0)
(-3.44063e-07 -4.18531e-09 0)
(-2.41314e-07 -7.00599e-08 0)
(-4.92132e-08 -1.37858e-07 0)
(2.3539e-07 -2.06902e-07 0)
(6.13864e-07 -2.75839e-07 0)
(1.08569e-06 -3.42804e-07 0)
(1.64814e-06 -4.06879e-07 0)
(2.29733e-06 -4.6797e-07 0)
(3.02941e-06 -5.25993e-07 0)
(3.8406e-06 -5.80696e-07 0)
(4.72661e-06 -6.31904e-07 0)
(5.68271e-06 -6.79605e-07 0)
(6.70408e-06 -7.23867e-07 0)
(7.78606e-06 -7.64698e-07 0)
(8.92412e-06 -8.0211e-07 0)
(1.01136e-05 -8.3621e-07 0)
(1.135e-05 -8.67167e-07 0)
(1.26286e-05 -8.95106e-07 0)
(1.39453e-05 -9.20101e-07 0)
(1.5296e-05 -9.42207e-07 0)
(1.66769e-05 -9.61497e-07 0)
(1.80839e-05 -9.78078e-07 0)
(1.95132e-05 -9.92091e-07 0)
(2.09613e-05 -1.00367e-06 0)
(2.24247e-05 -1.0129e-06 0)
(2.39001e-05 -1.01985e-06 0)
(2.53843e-05 -1.02461e-06 0)
(2.68743e-05 -1.02729e-06 0)
(2.8367e-05 -1.028e-06 0)
(2.98597e-05 -1.02684e-06 0)
(3.13497e-05 -1.0239e-06 0)
(3.28346e-05 -1.01925e-06 0)
(3.43118e-05 -1.01298e-06 0)
(3.57791e-05 -1.00514e-06 0)
(3.72342e-05 -9.95813e-07 0)
(3.86751e-05 -9.85088e-07 0)
(4.00997e-05 -9.73042e-07 0)
(4.15061e-05 -9.59742e-07 0)
(4.28925e-05 -9.45248e-07 0)
(4.42574e-05 -9.29616e-07 0)
(4.5599e-05 -9.12911e-07 0)
(4.69158e-05 -8.95204e-07 0)
(4.82064e-05 -8.76561e-07 0)
(4.94693e-05 -8.57036e-07 0)
(5.07034e-05 -8.36673e-07 0)
(5.19074e-05 -8.15519e-07 0)
(5.30802e-05 -7.93623e-07 0)
(5.42207e-05 -7.71033e-07 0)
(5.53281e-05 -7.47792e-07 0)
(5.64012e-05 -7.23938e-07 0)
(5.74393e-05 -6.99505e-07 0)
(5.84415e-05 -6.7453e-07 0)
(5.9407e-05 -6.49051e-07 0)
(6.03351e-05 -6.23107e-07 0)
(6.12252e-05 -5.96735e-07 0)
(6.20765e-05 -5.69969e-07 0)
(6.28886e-05 -5.42837e-07 0)
(6.36609e-05 -5.15366e-07 0)
(6.43929e-05 -4.87578e-07 0)
(6.50843e-05 -4.5949e-07 0)
(6.57345e-05 -4.31127e-07 0)
(6.63432e-05 -4.02511e-07 0)
(6.691e-05 -3.73667e-07 0)
(6.74346e-05 -3.44618e-07 0)
(6.79167e-05 -3.15383e-07 0)
(6.8356e-05 -2.85984e-07 0)
(6.87522e-05 -2.56442e-07 0)
(6.91052e-05 -2.26774e-07 0)
(6.94148e-05 -1.96994e-07 0)
(6.96808e-05 -1.67114e-07 0)
(6.99031e-05 -1.37145e-07 0)
(7.00815e-05 -1.07105e-07 0)
(7.02161e-05 -7.70095e-08 0)
(7.03066e-05 -4.68736e-08 0)
(7.03531e-05 -1.67095e-08 0)
(7.03556e-05 1.34717e-08 0)
(7.03139e-05 4.36573e-08 0)
(7.02282e-05 7.38311e-08 0)
(7.00985e-05 1.03975e-07 0)
(6.99248e-05 1.34071e-07 0)
(6.97071e-05 1.64107e-07 0)
(6.94456e-05 1.94073e-07 0)
(6.91403e-05 2.23957e-07 0)
(6.87916e-05 2.53743e-07 0)
(6.83994e-05 2.83408e-07 0)
(6.7964e-05 3.12932e-07 0)
(6.74856e-05 3.42298e-07 0)
(6.69645e-05 3.71488e-07 0)
(6.6401e-05 4.00488e-07 0)
(6.57953e-05 4.29274e-07 0)
(6.51478e-05 4.57822e-07 0)
(6.44589e-05 4.86103e-07 0)
(6.3729e-05 5.14092e-07 0)
(6.29585e-05 5.41767e-07 0)
(6.21479e-05 5.69109e-07 0)
(6.12978e-05 5.96088e-07 0)
(6.04087e-05 6.22666e-07 0)
(5.94812e-05 6.48804e-07 0)
(5.8516e-05 6.74467e-07 0)
(5.75138e-05 6.9963e-07 0)
(5.64755e-05 7.24267e-07 0)
(5.54019e-05 7.48337e-07 0)
(5.42938e-05 7.71794e-07 0)
(5.31522e-05 7.94589e-07 0)
(5.1978e-05 8.16677e-07 0)
(5.07723e-05 8.38017e-07 0)
(4.95364e-05 8.5856e-07 0)
(4.82714e-05 8.78252e-07 0)
(4.69785e-05 8.97031e-07 0)
(4.56592e-05 9.14845e-07 0)
(4.43149e-05 9.31641e-07 0)
(4.29472e-05 9.47365e-07 0)
(4.15577e-05 9.61947e-07 0)
(4.01481e-05 9.75318e-07 0)
(3.87202e-05 9.8742e-07 0)
(3.7276e-05 9.98194e-07 0)
(3.58175e-05 1.00757e-06 0)
(3.43468e-05 1.01544e-06 0)
(3.2866e-05 1.02171e-06 0)
(3.13775e-05 1.02634e-06 0)
(2.98839e-05 1.02926e-06 0)
(2.83877e-05 1.03039e-06 0)
(2.68915e-05 1.0296e-06 0)
(2.53982e-05 1.0268e-06 0)
(2.39107e-05 1.02193e-06 0)
(2.24322e-05 1.01493e-06 0)
(2.09658e-05 1.00565e-06 0)
(1.95148e-05 9.93917e-07 0)
(1.80828e-05 9.7967e-07 0)
(1.66734e-05 9.62916e-07 0)
(1.52905e-05 9.43567e-07 0)
(1.39377e-05 9.21426e-07 0)
(1.26189e-05 8.96344e-07 0)
(1.13386e-05 8.68266e-07 0)
(1.01012e-05 8.37102e-07 0)
(8.91089e-06 8.02716e-07 0)
(7.77189e-06 7.65062e-07 0)
(6.68907e-06 7.2411e-07 0)
(5.66734e-06 6.797e-07 0)
(4.71104e-06 6.31752e-07 0)
(3.82446e-06 5.80475e-07 0)
(3.01263e-06 5.25952e-07 0)
(2.28069e-06 4.67831e-07 0)
(1.6327e-06 4.06107e-07 0)
(1.07161e-06 3.41643e-07 0)
(6.00323e-07 2.7522e-07 0)
(2.21885e-07 2.07033e-07 0)
(-6.21288e-08 1.37774e-07 0)
(-2.53326e-07 6.91384e-08 0)
(-3.55825e-07 3.87611e-09 0)
(-3.7586e-07 -5.37958e-08 0)
(-3.25524e-07 -9.84315e-08 0)
(-2.25468e-07 -1.21779e-07 0)
(-1.09643e-07 -1.1055e-07 0)
(-2.65343e-08 -5.11694e-08 0)
(-2.73795e-08 1.32772e-07 0)
(-1.11346e-07 2.39977e-07 0)
(-2.18416e-07 2.38889e-07 0)
(-2.88268e-07 1.6603e-07 0)
(-2.78161e-07 4.31319e-08 0)
(-1.60529e-07 -1.12243e-07 0)
(8.16951e-08 -2.86571e-07 0)
(4.57569e-07 -4.71017e-07 0)
(9.72699e-07 -6.59262e-07 0)
(1.63032e-06 -8.46633e-07 0)
(2.43039e-06 -1.03016e-06 0)
(3.36964e-06 -1.20813e-06 0)
(4.44328e-06 -1.37915e-06 0)
(5.64608e-06 -1.54199e-06 0)
(6.97236e-06 -1.69588e-06 0)
(8.41576e-06 -1.84053e-06 0)
(9.96934e-06 -1.97589e-06 0)
(1.16261e-05 -2.10188e-06 0)
(1.33788e-05 -2.21845e-06 0)
(1.52206e-05 -2.32564e-06 0)
(1.71442e-05 -2.42371e-06 0)
(1.91425e-05 -2.51295e-06 0)
(2.12086e-05 -2.5936e-06 0)
(2.3336e-05 -2.66582e-06 0)
(2.55182e-05 -2.72982e-06 0)
(2.77489e-05 -2.78587e-06 0)
(3.00218e-05 -2.83427e-06 0)
(3.23309e-05 -2.87535e-06 0)
(3.46706e-05 -2.90939e-06 0)
(3.70354e-05 -2.93662e-06 0)
(3.94199e-05 -2.95731e-06 0)
(4.1819e-05 -2.97174e-06 0)
(4.42278e-05 -2.98019e-06 0)
(4.66415e-05 -2.98293e-06 0)
(4.90557e-05 -2.98022e-06 0)
(5.1466e-05 -2.9723e-06 0)
(5.38683e-05 -2.9594e-06 0)
(5.62588e-05 -2.94175e-06 0)
(5.86337e-05 -2.91956e-06 0)
(6.09893e-05 -2.89307e-06 0)
(6.33223e-05 -2.8625e-06 0)
(6.56293e-05 -2.82807e-06 0)
(6.79073e-05 -2.78995e-06 0)
(7.01534e-05 -2.74833e-06 0)
(7.23649e-05 -2.7034e-06 0)
(7.45391e-05 -2.65533e-06 0)
(7.66735e-05 -2.60432e-06 0)
(7.87657e-05 -2.55053e-06 0)
(8.08134e-05 -2.49412e-06 0)
(8.28147e-05 -2.43524e-06 0)
(8.47675e-05 -2.37403e-06 0)
(8.667e-05 -2.31063e-06 0)
(8.85205e-05 -2.24517e-06 0)
(9.03173e-05 -2.17778e-06 0)
(9.20588e-05 -2.10857e-06 0)
(9.37436e-05 -2.03766e-06 0)
(9.53704e-05 -1.96516e-06 0)
(9.69379e-05 -1.89118e-06 0)
(9.84448e-05 -1.81582e-06 0)
(9.98901e-05 -1.73917e-06 0)
(0.000101273 -1.66134e-06 0)
(0.000102592 -1.58241e-06 0)
(0.000103846 -1.50245e-06 0)
(0.000105035 -1.42154e-06 0)
(0.000106158 -1.33975e-06 0)
(0.000107215 -1.25715e-06 0)
(0.000108204 -1.17381e-06 0)
(0.000109125 -1.08979e-06 0)
(0.000109977 -1.00516e-06 0)
(0.000110761 -9.19977e-07 0)
(0.000111475 -8.34296e-07 0)
(0.000112119 -7.48176e-07 0)
(0.000112693 -6.61665e-07 0)
(0.000113196 -5.74807e-07 0)
(0.000113629 -4.87645e-07 0)
(0.00011399 -4.00223e-07 0)
(0.00011428 -3.12587e-07 0)
(0.000114499 -2.24785e-07 0)
(0.000114646 -1.36859e-07 0)
(0.000114722 -4.88471e-08 0)
(0.000114726 3.92112e-08 0)
(0.000114658 1.27274e-07 0)
(0.000114519 2.15295e-07 0)
(0.000114308 3.03225e-07 0)
(0.000114026 3.9102e-07 0)
(0.000113672 4.78641e-07 0)
(0.000113247 5.66051e-07 0)
(0.000112751 6.53205e-07 0)
(0.000112184 7.4005e-07 0)
(0.000111547 8.2653e-07 0)
(0.00011084 9.12591e-07 0)
(0.000110062 9.98182e-07 0)
(0.000109216 1.08325e-06 0)
(0.0001083 1.16774e-06 0)
(0.000107316 1.25158e-06 0)
(0.000106264 1.3347e-06 0)
(0.000105145 1.41703e-06 0)
(0.000103959 1.4985e-06 0)
(0.000102708 1.57904e-06 0)
(0.000101392 1.65857e-06 0)
(0.000100011 1.73701e-06 0)
(9.85677e-05 1.81426e-06 0)
(9.7062e-05 1.89022e-06 0)
(9.54953e-05 1.96479e-06 0)
(9.38687e-05 2.03787e-06 0)
(9.21837e-05 2.10938e-06 0)
(9.04415e-05 2.17919e-06 0)
(8.86436e-05 2.24718e-06 0)
(8.67915e-05 2.3132e-06 0)
(8.48869e-05 2.37715e-06 0)
(8.29315e-05 2.43889e-06 0)
(8.09273e-05 2.49827e-06 0)
(7.88763e-05 2.55513e-06 0)
(7.67805e-05 2.60932e-06 0)
(7.46422e-05 2.66069e-06 0)
(7.24637e-05 2.70908e-06 0)
(7.02477e-05 2.75432e-06 0)
(6.79967e-05 2.79621e-06 0)
(6.57136e-05 2.83455e-06 0)
(6.34013e-05 2.86918e-06 0)
(6.10631e-05 2.89991e-06 0)
(5.8702e-05 2.92652e-06 0)
(5.63216e-05 2.94875e-06 0)
(5.39254e-05 2.9664e-06 0)
(5.15172e-05 2.97927e-06 0)
(4.91012e-05 2.98715e-06 0)
(4.66814e-05 2.98978e-06 0)
(4.42621e-05 2.98685e-06 0)
(4.18479e-05 2.97815e-06 0)
(3.94436e-05 2.96348e-06 0)
(3.70541e-05 2.94258e-06 0)
(3.46844e-05 2.91507e-06 0)
(3.23399e-05 2.88066e-06 0)
(3.00264e-05 2.83919e-06 0)
(2.77496e-05 2.79047e-06 0)
(2.55154e-05 2.73407e-06 0)
(2.33298e-05 2.6696e-06 0)
(2.11991e-05 2.59698e-06 0)
(1.91301e-05 2.51609e-06 0)
(1.71295e-05 2.42651e-06 0)
(1.5204e-05 2.32778e-06 0)
(1.33607e-05 2.2199e-06 0)
(1.16066e-05 2.10302e-06 0)
(9.94887e-06 1.97673e-06 0)
(8.39458e-06 1.84062e-06 0)
(6.95078e-06 1.69515e-06 0)
(5.62409e-06 1.54113e-06 0)
(4.42105e-06 1.37863e-06 0)
(3.3481e-06 1.20751e-06 0)
(2.4105e-06 1.02868e-06 0)
(1.61189e-06 8.44367e-07 0)
(9.54851e-07 6.57264e-07 0)
(4.40279e-07 4.69902e-07 0)
(6.58224e-08 2.85909e-07 0)
(-1.7428e-07 1.1231e-07 0)
(-2.9076e-07 -4.09459e-08 0)
(-3.01169e-07 -1.61558e-07 0)
(-2.31452e-07 -2.31823e-07 0)
(-1.21883e-07 -2.27328e-07 0)
(-3.17701e-08 -1.18875e-07 0)
(-2.7241e-08 1.90707e-07 0)
(-9.41593e-08 3.35445e-07 0)
(-1.5255e-07 3.07057e-07 0)
(-1.44628e-07 1.57743e-07 0)
(-2.63414e-08 -7.43619e-08 0)
(2.32616e-07 -3.61836e-07 0)
(6.51735e-07 -6.85282e-07 0)
(1.24344e-06 -1.02938e-06 0)
(2.01536e-06 -1.38191e-06 0)
(2.97114e-06 -1.73426e-06 0)
(4.11052e-06 -2.08107e-06 0)
(5.43039e-06 -2.41873e-06 0)
(6.9259e-06 -2.74423e-06 0)
(8.59099e-06 -3.05519e-06 0)
(1.04184e-05 -3.35012e-06 0)
(1.24001e-05 -3.62822e-06 0)
(1.45275e-05 -3.88904e-06 0)
(1.67919e-05 -4.13229e-06 0)
(1.9184e-05 -4.35782e-06 0)
(2.16949e-05 -4.56576e-06 0)
(2.4315e-05 -4.75643e-06 0)
(2.70352e-05 -4.93019e-06 0)
(2.98466e-05 -5.08737e-06 0)
(3.27406e-05 -5.22834e-06 0)
(3.57084e-05 -5.35351e-06 0)
(3.87417e-05 -5.46339e-06 0)
(4.18322e-05 -5.55852e-06 0)
(4.4972e-05 -5.63944e-06 0)
(4.81534e-05 -5.70664e-06 0)
(5.1369e-05 -5.76059e-06 0)
(5.46117e-05 -5.80181e-06 0)
(5.78746e-05 -5.83084e-06 0)
(6.1151e-05 -5.84818e-06 0)
(6.44345e-05 -5.85435e-06 0)
(6.7719e-05 -5.84983e-06 0)
(7.09989e-05 -5.83508e-06 0)
(7.42683e-05 -5.81054e-06 0)
(7.75221e-05 -5.77667e-06 0)
(8.07551e-05 -5.7339e-06 0)
(8.39624e-05 -5.68267e-06 0)
(8.71393e-05 -5.62341e-06 0)
(9.02813e-05 -5.55651e-06 0)
(9.33844e-05 -5.48233e-06 0)
(9.64445e-05 -5.40126e-06 0)
(9.94578e-05 -5.31364e-06 0)
(0.000102421 -5.21984e-06 0)
(0.00010533 -5.12021e-06 0)
(0.000108182 -5.01506e-06 0)
(0.000110974 -4.90471e-06 0)
(0.000113702 -4.78946e-06 0)
(0.000116366 -4.66958e-06 0)
(0.00011896 -4.54535e-06 0)
(0.000121485 -4.41703e-06 0)
(0.000123936 -4.28486e-06 0)
(0.000126312 -4.14907e-06 0)
(0.000128611 -4.00991e-06 0)
(0.000130831 -3.86758e-06 0)
(0.00013297 -3.7223e-06 0)
(0.000135027 -3.57427e-06 0)
(0.000137 -3.42368e-06 0)
(0.000138888 -3.27072e-06 0)
(0.000140688 -3.11554e-06 0)
(0.000142401 -2.95831e-06 0)
(0.000144025 -2.79918e-06 0)
(0.000145559 -2.63828e-06 0)
(0.000147002 -2.47577e-06 0)
(0.000148353 -2.31179e-06 0)
(0.000149611 -2.14645e-06 0)
(0.000150775 -1.97988e-06 0)
(0.000151846 -1.81219e-06 0)
(0.000152821 -1.6435e-06 0)
(0.000153701 -1.47392e-06 0)
(0.000154485 -1.30354e-06 0)
(0.000155173 -1.13247e-06 0)
(0.000155764 -9.60784e-07 0)
(0.000156258 -7.88583e-07 0)
(0.000156655 -6.15958e-07 0)
(0.000156954 -4.42998e-07 0)
(0.000157155 -2.69786e-07 0)
(0.000157259 -9.64012e-08 0)
(0.000157264 7.70729e-08 0)
(0.000157172 2.5055e-07 0)
(0.000156982 4.23941e-07 0)
(0.000156694 5.97155e-07 0)
(0.000156308 7.70107e-07 0)
(0.000155825 9.42712e-07 0)
(0.000155244 1.11488e-06 0)
(0.000154567 1.28652e-06 0)
(0.000153793 1.45754e-06 0)
(0.000152922 1.62783e-06 0)
(0.000151956 1.79727e-06 0)
(0.000150894 1.96577e-06 0)
(0.000149738 2.13322e-06 0)
(0.000148487 2.29949e-06 0)
(0.000147143 2.46447e-06 0)
(0.000145707 2.628e-06 0)
(0.000144179 2.78996e-06 0)
(0.00014256 2.9502e-06 0)
(0.000140852 3.10858e-06 0)
(0.000139055 3.26494e-06 0)
(0.00013717 3.4191e-06 0)
(0.0001352 3.57088e-06 0)
(0.000133145 3.72009e-06 0)
(0.000131007 3.86654e-06 0)
(0.000128787 4.01005e-06 0)
(0.000126488 4.1504e-06 0)
(0.000124112 4.28735e-06 0)
(0.000121659 4.42067e-06 0)
(0.000119133 4.55009e-06 0)
(0.000116535 4.67538e-06 0)
(0.000113869 4.79628e-06 0)
(0.000111136 4.91251e-06 0)
(0.00010834 5.02376e-06 0)
(0.000105483 5.12973e-06 0)
(0.000102569 5.2301e-06 0)
(9.96003e-05 5.32458e-06 0)
(9.65809e-05 5.41281e-06 0)
(9.35143e-05 5.49442e-06 0)
(9.04044e-05 5.56906e-06 0)
(8.72553e-05 5.63637e-06 0)
(8.40712e-05 5.69597e-06 0)
(8.08565e-05 5.74743e-06 0)
(7.76159e-05 5.79031e-06 0)
(7.43544e-05 5.82421e-06 0)
(7.10772e-05 5.84872e-06 0)
(6.77896e-05 5.86341e-06 0)
(6.44973e-05 5.86776e-06 0)
(6.12061e-05 5.86128e-06 0)
(5.79223e-05 5.84353e-06 0)
(5.46523e-05 5.8141e-06 0)
(5.14027e-05 5.7724e-06 0)
(4.81803e-05 5.71786e-06 0)
(4.49923e-05 5.65002e-06 0)
(4.18465e-05 5.5685e-06 0)
(3.87505e-05 5.47277e-06 0)
(3.5712e-05 5.36216e-06 0)
(3.27392e-05 5.23609e-06 0)
(2.98409e-05 5.09428e-06 0)
(2.70255e-05 4.93642e-06 0)
(2.43016e-05 4.76194e-06 0)
(2.16785e-05 4.57026e-06 0)
(1.91654e-05 4.36122e-06 0)
(1.67714e-05 4.13485e-06 0)
(1.45052e-05 3.89093e-06 0)
(1.23761e-05 3.6292e-06 0)
(1.03938e-05 3.34989e-06 0)
(8.56637e-06 3.05397e-06 0)
(6.90123e-06 2.74276e-06 0)
(5.40567e-06 2.41728e-06 0)
(4.0866e-06 2.07885e-06 0)
(2.94909e-06 1.73073e-06 0)
(1.9953e-06 1.37806e-06 0)
(1.22457e-06 1.02653e-06 0)
(6.34095e-07 6.8373e-07 0)
(2.17215e-07 3.61086e-07 0)
(-3.95157e-08 7.41758e-08 0)
(-1.56767e-07 -1.56091e-07 0)
(-1.62555e-07 -3.01807e-07 0)
(-9.92604e-08 -3.26936e-07 0)
(-2.84301e-08 -1.84562e-07 0)
(-1.94472e-08 2.33736e-07 0)
(-5.11819e-08 3.81927e-07 0)
(-3.57575e-08 2.94229e-07 0)
(8.2687e-08 3.84721e-08 0)
(3.44412e-07 -3.34985e-07 0)
(7.77892e-07 -7.89484e-07 0)
(1.40424e-06 -1.29717e-06 0)
(2.23809e-06 -1.83612e-06 0)
(3.28808e-06 -2.38933e-06 0)
(4.55756e-06 -2.9445e-06 0)
(6.04616e-06 -3.49292e-06 0)
(7.75102e-06 -4.0281e-06 0)
(9.66724e-06 -4.54509e-06 0)
(1.1788e-05 -5.04032e-06 0)
(1.4105e-05 -5.51139e-06 0)
(1.6609e-05 -5.95668e-06 0)
(1.929e-05 -6.3751e-06 0)
(2.21379e-05 -6.766e-06 0)
(2.51419e-05 -7.12913e-06 0)
(2.82911e-05 -7.46462e-06 0)
(3.15742e-05 -7.77277e-06 0)
(3.49804e-05 -8.05395e-06 0)
(3.8499e-05 -8.30862e-06 0)
(4.21194e-05 -8.53734e-06 0)
(4.58311e-05 -8.74078e-06 0)
(4.96238e-05 -8.91969e-06 0)
(5.34874e-05 -9.07486e-06 0)
(5.74123e-05 -9.20706e-06 0)
(6.13891e-05 -9.31706e-06 0)
(6.54086e-05 -9.40563e-06 0)
(6.9462e-05 -9.4736e-06 0)
(7.35409e-05 -9.52179e-06 0)
(7.76368e-05 -9.551e-06 0)
(8.1742e-05 -9.56202e-06 0)
(8.5849e-05 -9.5556e-06 0)
(8.99503e-05 -9.5325e-06 0)
(9.40393e-05 -9.49343e-06 0)
(9.8109e-05 -9.43912e-06 0)
(0.000102153 -9.37029e-06 0)
(0.000106166 -9.28763e-06 0)
(0.000110141 -9.1918e-06 0)
(0.000114073 -9.08344e-06 0)
(0.000117956 -8.96315e-06 0)
(0.000121786 -8.83155e-06 0)
(0.000125559 -8.68923e-06 0)
(0.000129268 -8.53675e-06 0)
(0.000132911 -8.37467e-06 0)
(0.000136482 -8.20352e-06 0)
(0.000139979 -8.02381e-06 0)
(0.000143397 -7.83601e-06 0)
(0.000146734 -7.64058e-06 0)
(0.000149985 -7.43796e-06 0)
(0.000153147 -7.22859e-06 0)
(0.000156219 -7.01287e-06 0)
(0.000159197 -6.79119e-06 0)
(0.000162079 -6.56392e-06 0)
(0.000164862 -6.33143e-06 0)
(0.000167543 -6.09404e-06 0)
(0.000170122 -5.85211e-06 0)
(0.000172596 -5.60594e-06 0)
(0.000174963 -5.35582e-06 0)
(0.000177221 -5.10203e-06 0)
(0.00017937 -4.84483e-06 0)
(0.000181407 -4.58447e-06 0)
(0.000183331 -4.3212e-06 0)
(0.000185141 -4.05524e-06 0)
(0.000186835 -3.78683e-06 0)
(0.000188414 -3.51616e-06 0)
(0.000189875 -3.24345e-06 0)
(0.000191218 -2.96888e-06 0)
(0.000192441 -2.69264e-06 0)
(0.000193546 -2.41491e-06 0)
(0.00019453 -2.13584e-06 0)
(0.000195393 -1.85561e-06 0)
(0.000196135 -1.57437e-06 0)
(0.000196755 -1.29227e-06 0)
(0.000197252 -1.00946e-06 0)
(0.000197628 -7.26094e-07 0)
(0.000197881 -4.423e-07 0)
(0.000198011 -1.58219e-07 0)
(0.000198018 1.26006e-07 0)
(0.000197903 4.10231e-07 0)
(0.000197664 6.94307e-07 0)
(0.000197303 9.78092e-07 0)
(0.000196819 1.26144e-06 0)
(0.000196213 1.54421e-06 0)
(0.000195485 1.82626e-06 0)
(0.000194635 2.10742e-06 0)
(0.000193663 2.38753e-06 0)
(0.000192571 2.66641e-06 0)
(0.000191359 2.9439e-06 0)
(0.000190027 3.21982e-06 0)
(0.000188577 3.49398e-06 0)
(0.000187008 3.76618e-06 0)
(0.000185323 4.03621e-06 0)
(0.000183521 4.30386e-06 0)
(0.000181605 4.56889e-06 0)
(0.000179575 4.83107e-06 0)
(0.000177433 5.09016e-06 0)
(0.000175179 5.34588e-06 0)
(0.000172817 5.59796e-06 0)
(0.000170346 5.84608e-06 0)
(0.00016777 6.08996e-06 0)
(0.00016509 6.32929e-06 0)
(0.000162308 6.56373e-06 0)
(0.000159427 6.79294e-06 0)
(0.000156448 7.01652e-06 0)
(0.000153375 7.2341e-06 0)
(0.000150209 7.44527e-06 0)
(0.000146955 7.64962e-06 0)
(0.000143615 7.84672e-06 0)
(0.000140192 8.03611e-06 0)
(0.00013669 8.21732e-06 0)
(0.000133113 8.38984e-06 0)
(0.000129464 8.55318e-06 0)
(0.000125747 8.70681e-06 0)
(0.000121968 8.85015e-06 0)
(0.000118129 8.98265e-06 0)
(0.000114237 9.10372e-06 0)
(0.000110296 9.21279e-06 0)
(0.000106312 9.30919e-06 0)
(0.000102291 9.39226e-06 0)
(9.82369e-05 9.46133e-06 0)
(9.41575e-05 9.51574e-06 0)
(9.00589e-05 9.55482e-06 0)
(8.59478e-05 9.57782e-06 0)
(8.18311e-05 9.58395e-06 0)
(7.77162e-05 9.57249e-06 0)
(7.36109e-05 9.54275e-06 0)
(6.9523e-05 9.49394e-06 0)
(6.54606e-05 9.42519e-06 0)
(6.14324e-05 9.33569e-06 0)
(5.74474e-05 9.22473e-06 0)
(5.35148e-05 9.09156e-06 0)
(4.96439e-05 8.93534e-06 0)
(4.58443e-05 8.7552e-06 0)
(4.21262e-05 8.55049e-06 0)
(3.85001e-05 8.32052e-06 0)
(3.49763e-05 8.06456e-06 0)
(3.15651e-05 7.78202e-06 0)
(2.82777e-05 7.47247e-06 0)
(2.51254e-05 7.13547e-06 0)
(2.21188e-05 6.7707e-06 0)
(1.92684e-05 6.37834e-06 0)
(1.65848e-05 5.95876e-06 0)
(1.40794e-05 5.51222e-06 0)
(1.17622e-05 5.03962e-06 0)
(9.64154e-06 4.54312e-06 0)
(7.72504e-06 4.02538e-06 0)
(6.0202e-06 3.48945e-06 0)
(4.53332e-06 2.94008e-06 0)
(3.26666e-06 2.38413e-06 0)
(2.21887e-06 1.831e-06 0)
(1.38632e-06 1.29317e-06 0)
(7.6151e-07 7.86697e-07 0)
(3.30433e-07 3.32896e-07 0)
(7.21264e-08 -3.89501e-08 0)
(-4.24899e-08 -2.91056e-07 0)
(-5.44163e-08 -3.76377e-07 0)
(-2.03695e-08 -2.31134e-07 0)
(-9.44573e-09 2.51359e-07 0)
(5.81562e-09 3.58457e-07 0)
(1.15654e-07 1.75152e-07 0)
(3.67569e-07 -2.19996e-07 0)
(7.96546e-07 -7.6805e-07 0)
(1.42955e-06 -1.42252e-06 0)
(2.28722e-06 -2.14696e-06 0)
(3.38415e-06 -2.91324e-06 0)
(4.72868e-06 -3.70012e-06 0)
(6.32408e-06 -4.49147e-06 0)
(8.17008e-06 -5.27481e-06 0)
(1.02638e-05 -6.04057e-06 0)
(1.25998e-05 -6.78172e-06 0)
(1.51706e-05 -7.49323e-06 0)
(1.79673e-05 -8.17146e-06 0)
(2.09797e-05 -8.8138e-06 0)
(2.41968e-05 -9.4184e-06 0)
(2.76071e-05 -9.98417e-06 0)
(3.11985e-05 -1.05107e-05 0)
(3.49585e-05 -1.09979e-05 0)
(3.88745e-05 -1.1446e-05 0)
(4.29343e-05 -1.18554e-05 0)
(4.71254e-05 -1.22267e-05 0)
(5.14357e-05 -1.25605e-05 0)
(5.5853e-05 -1.28579e-05 0)
(6.03654e-05 -1.31198e-05 0)
(6.49612e-05 -1.33473e-05 0)
(6.96291e-05 -1.35414e-05 0)
(7.43583e-05 -1.37031e-05 0)
(7.9138e-05 -1.38337e-05 0)
(8.39579e-05 -1.39342e-05 0)
(8.88079e-05 -1.40058e-05 0)
(9.36784e-05 -1.40496e-05 0)
(9.85601e-05 -1.40669e-05 0)
(0.000103444 -1.40585e-05 0)
(0.000108322 -1.40257e-05 0)
(0.000113185 -1.39694e-05 0)
(0.000118026 -1.38907e-05 0)
(0.000122837 -1.37907e-05 0)
(0.00012761 -1.36703e-05 0)
(0.00013234 -1.35305e-05 0)
(0.000137018 -1.33722e-05 0)
(0.00014164 -1.31963e-05 0)
(0.000146199 -1.30038e-05 0)
(0.000150689 -1.27954e-05 0)
(0.000155105 -1.2572e-05 0)
(0.000159441 -1.23344e-05 0)
(0.000163694 -1.20834e-05 0)
(0.000167858 -1.18197e-05 0)
(0.000171928 -1.1544e-05 0)
(0.000175902 -1.1257e-05 0)
(0.000179774 -1.09594e-05 0)
(0.000183542 -1.06517e-05 0)
(0.000187201 -1.03346e-05 0)
(0.000190749 -1.00086e-05 0)
(0.000194183 -9.67434e-06 0)
(0.000197499 -9.3323e-06 0)
(0.000200695 -8.98299e-06 0)
(0.000203769 -8.62692e-06 0)
(0.000206717 -8.26452e-06 0)
(0.000209539 -7.89624e-06 0)
(0.000212231 -7.52248e-06 0)
(0.000214793 -7.14363e-06 0)
(0.000217221 -6.76008e-06 0)
(0.000219515 -6.37218e-06 0)
(0.000221673 -5.98028e-06 0)
(0.000223694 -5.5847e-06 0)
(0.000225576 -5.18575e-06 0)
(0.000227319 -4.78375e-06 0)
(0.000228921 -4.37896e-06 0)
(0.00023038 -3.97168e-06 0)
(0.000231697 -3.56216e-06 0)
(0.000232871 -3.15065e-06 0)
(0.000233901 -2.73738e-06 0)
(0.000234786 -2.3226e-06 0)
(0.000235525 -1.90654e-06 0)
(0.000236119 -1.48941e-06 0)
(0.000236568 -1.07143e-06 0)
(0.000236869 -6.52827e-07 0)
(0.000237025 -2.33793e-07 0)
(0.000237034 1.85452e-07 0)
(0.000236896 6.04693e-07 0)
(0.000236612 1.02371e-06 0)
(0.000236181 1.44229e-06 0)
(0.000235604 1.86022e-06 0)
(0.000234882 2.27729e-06 0)
(0.000234013 2.69326e-06 0)
(0.000233 3.1079e-06 0)
(0.000231842 3.52096e-06 0)
(0.000230539 3.93219e-06 0)
(0.000229094 4.34132e-06 0)
(0.000227506 4.74811e-06 0)
(0.000225776 5.15227e-06 0)
(0.000223906 5.55349e-06 0)
(0.000221897 5.95148e-06 0)
(0.000219749 6.34589e-06 0)
(0.000217465 6.7364e-06 0)
(0.000215045 7.12265e-06 0)
(0.000212491 7.50428e-06 0)
(0.000209805 7.88089e-06 0)
(0.000206989 8.25206e-06 0)
(0.000204045 8.61735e-06 0)
(0.000200975 8.97632e-06 0)
(0.000197781 9.32851e-06 0)
(0.000194466 9.67344e-06 0)
(0.000191033 1.00106e-05 0)
(0.000187485 1.03393e-05 0)
(0.000183824 1.06592e-05 0)
(0.000180053 1.09695e-05 0)
(0.000176177 1.12698e-05 0)
(0.0001722 1.15592e-05 0)
(0.000168124 1.18373e-05 0)
(0.000163954 1.21032e-05 0)
(0.000159694 1.23563e-05 0)
(0.00015535 1.25958e-05 0)
(0.000150926 1.28209e-05 0)
(0.000146427 1.30309e-05 0)
(0.000141859 1.32248e-05 0)
(0.000137227 1.34019e-05 0)
(0.000132538 1.35612e-05 0)
(0.000127798 1.37019e-05 0)
(0.000123013 1.38229e-05 0)
(0.000118191 1.39233e-05 0)
(0.000113338 1.40022e-05 0)
(0.000108464 1.40586e-05 0)
(0.000103574 1.40913e-05 0)
(9.86784e-05 1.40993e-05 0)
(9.3785e-05 1.40815e-05 0)
(8.89032e-05 1.4037e-05 0)
(8.40422e-05 1.39645e-05 0)
(7.92114e-05 1.38629e-05 0)
(7.44211e-05 1.3731e-05 0)
(6.96819e-05 1.3568e-05 0)
(6.50044e-05 1.33725e-05 0)
(6.03996e-05 1.31434e-05 0)
(5.58786e-05 1.28797e-05 0)
(5.14534e-05 1.25806e-05 0)
(4.71359e-05 1.22449e-05 0)
(4.29381e-05 1.18717e-05 0)
(3.88721e-05 1.14602e-05 0)
(3.49506e-05 1.10101e-05 0)
(3.11861e-05 1.0521e-05 0)
(2.75911e-05 9.99214e-06 0)
(2.41776e-05 9.42395e-06 0)
(2.09575e-05 8.81736e-06 0)
(1.79429e-05 8.17339e-06 0)
(1.51451e-05 7.49343e-06 0)
(1.2574e-05 6.77996e-06 0)
(1.02377e-05 6.03699e-06 0)
(8.14391e-06 5.27013e-06 0)
(6.29918e-06 4.48611e-06 0)
(4.70633e-06 3.69372e-06 0)
(3.3645e-06 2.90586e-06 0)
(2.26963e-06 2.13965e-06 0)
(1.41352e-06 1.41644e-06 0)
(7.83009e-07 7.63814e-07 0)
(3.58204e-07 2.18012e-07 0)
(1.10632e-07 -1.74874e-07 0)
(3.22312e-09 -3.5699e-07 0)
(-1.02897e-08 -2.50672e-07 0)
(1.3291e-09 2.37717e-07 0)
(7.05173e-08 2.54505e-07 0)
(2.88747e-07 -6.69518e-08 0)
(6.89181e-07 -6.3923e-07 0)
(1.30215e-06 -1.39538e-06 0)
(2.1527e-06 -2.28107e-06 0)
(3.25938e-06 -3.25281e-06 0)
(4.63473e-06 -4.27705e-06 0)
(6.28617e-06 -5.32793e-06 0)
(8.21684e-06 -6.38513e-06 0)
(1.04264e-05 -7.43259e-06 0)
(1.29114e-05 -8.45796e-06 0)
(1.56658e-05 -9.45199e-06 0)
(1.86816e-05 -1.04079e-05 0)
(2.19491e-05 -1.13205e-05 0)
(2.54575e-05 -1.21861e-05 0)
(2.91949e-05 -1.30021e-05 0)
(3.31486e-05 -1.37669e-05 0)
(3.73054e-05 -1.44796e-05 0)
(4.16515e-05 -1.51401e-05 0)
(4.61733e-05 -1.57482e-05 0)
(5.08572e-05 -1.63045e-05 0)
(5.56893e-05 -1.68095e-05 0)
(6.0656e-05 -1.72642e-05 0)
(6.57437e-05 -1.76697e-05 0)
(7.09391e-05 -1.80272e-05 0)
(7.62292e-05 -1.8338e-05 0)
(8.16013e-05 -1.86035e-05 0)
(8.70429e-05 -1.88252e-05 0)
(9.25421e-05 -1.90044e-05 0)
(9.8087e-05 -1.91427e-05 0)
(0.000103666 -1.92416e-05 0)
(0.000109269 -1.93026e-05 0)
(0.000114885 -1.93272e-05 0)
(0.000120503 -1.93168e-05 0)
(0.000126114 -1.92729e-05 0)
(0.000131709 -1.91968e-05 0)
(0.000137279 -1.909e-05 0)
(0.000142814 -1.8954e-05 0)
(0.000148307 -1.87899e-05 0)
(0.000153749 -1.85992e-05 0)
(0.000159133 -1.83831e-05 0)
(0.000164452 -1.81427e-05 0)
(0.000169699 -1.78794e-05 0)
(0.000174868 -1.75943e-05 0)
(0.000179951 -1.72885e-05 0)
(0.000184944 -1.69631e-05 0)
(0.00018984 -1.66191e-05 0)
(0.000194635 -1.62576e-05 0)
(0.000199323 -1.58796e-05 0)
(0.000203899 -1.54859e-05 0)
(0.000208359 -1.50775e-05 0)
(0.000212699 -1.46552e-05 0)
(0.000216914 -1.42198e-05 0)
(0.000221002 -1.37722e-05 0)
(0.000224958 -1.33131e-05 0)
(0.000228779 -1.28432e-05 0)
(0.000232462 -1.23632e-05 0)
(0.000236004 -1.18738e-05 0)
(0.000239402 -1.13756e-05 0)
(0.000242653 -1.08693e-05 0)
(0.000245757 -1.03553e-05 0)
(0.000248709 -9.83424e-06 0)
(0.000251508 -9.30666e-06 0)
(0.000254153 -8.77302e-06 0)
(0.000256641 -8.23381e-06 0)
(0.000258971 -7.68949e-06 0)
(0.000261141 -7.14047e-06 0)
(0.00026315 -6.58719e-06 0)
(0.000264997 -6.03003e-06 0)
(0.000266681 -5.46939e-06 0)
(0.000268199 -4.90561e-06 0)