/*--------------------------------*- C++ -*----------------------------------*\
  =========                 |
  \\      /  F ield         | OpenFOAM: The Open Source CFD Toolbox
   \\    /   O peration     | Website:  https://openfoam.org
    \\  /    A nd           | Version:  7
     \\/     M anipulation  |
\*---------------------------------------------------------------------------*/
FoamFile
{
    version     2.0;
    format      ascii;
    class       surfaceScalarField;
    location    "0.2875";
    object      phi;
}
// * * * * * * * * * * * * * * * * * * * * * * * * * * * * * * * * * * * * * //

dimensions      [0 3 -1 0 0 0 0];

internalField   nonuniform List<scalar> 
25360
(
1.14223e-10
-1.14402e-10
3.59464e-10
-2.45288e-10
6.04079e-10
-2.4461e-10
7.64945e-10
-1.60845e-10
7.9791e-10
-3.29684e-11
6.8121e-10
1.16723e-10
4.06168e-10
2.75033e-10
-2.78486e-11
4.34021e-10
-6.16716e-10
5.88869e-10
-1.35341e-09
7.36696e-10
-2.22917e-09
8.7576e-10
-3.23422e-09
1.00506e-09
-4.35826e-09
1.12404e-09
-5.59078e-09
1.23251e-09
-6.92123e-09
1.33045e-09
-8.33927e-09
1.41803e-09
-9.83478e-09
1.49551e-09
-1.1398e-08
1.56321e-09
-1.30195e-08
1.62153e-09
-1.46904e-08
1.67088e-09
-1.64021e-08
1.71172e-09
-1.81466e-08
1.74451e-09
-1.99163e-08
1.76973e-09
-2.17042e-08
1.78785e-09
-2.35035e-08
1.79935e-09
-2.53082e-08
1.80469e-09
-2.71126e-08
1.80433e-09
-2.89113e-08
1.79873e-09
-3.06996e-08
1.78833e-09
-3.24732e-08
1.77353e-09
-3.42279e-08
1.75477e-09
-3.59603e-08
1.73241e-09
-3.76672e-08
1.70685e-09
-3.93456e-08
1.67842e-09
-4.09931e-08
1.64749e-09
-4.26074e-08
1.61435e-09
-4.41868e-08
1.57932e-09
-4.57295e-08
1.54268e-09
-4.72341e-08
1.50469e-09
-4.86998e-08
1.46561e-09
-5.01254e-08
1.42565e-09
-5.15104e-08
1.38503e-09
-5.28544e-08
1.34395e-09
-5.4157e-08
1.30259e-09
-5.54181e-08
1.2611e-09
-5.66377e-08
1.21964e-09
-5.78161e-08
1.17834e-09
-5.89534e-08
1.13732e-09
-6.00501e-08
1.09669e-09
-6.11066e-08
1.05653e-09
-6.21235e-08
1.01693e-09
-6.31015e-08
9.77952e-10
-6.40411e-08
9.39663e-10
-6.49433e-08
9.02109e-10
-6.58086e-08
8.65327e-10
-6.66379e-08
8.29346e-10
-6.74321e-08
7.94187e-10
-6.8192e-08
7.59862e-10
-6.89183e-08
7.26376e-10
-6.96121e-08
6.93728e-10
-7.0274e-08
6.61907e-10
-7.09049e-08
6.30901e-10
-7.15056e-08
6.00688e-10
-7.20768e-08
5.71243e-10
-7.26193e-08
5.42534e-10
-7.31339e-08
5.14524e-10
-7.3621e-08
4.87176e-10
-7.40815e-08
4.60446e-10
-7.45158e-08
4.34289e-10
-7.49244e-08
4.08652e-10
-7.53079e-08
3.83481e-10
-7.56666e-08
3.58719e-10
-7.60009e-08
3.34306e-10
-7.63111e-08
3.10182e-10
-7.65974e-08
2.86283e-10
-7.68599e-08
2.62543e-10
-7.70988e-08
2.38895e-10
-7.73141e-08
2.15268e-10
-7.75057e-08
1.91594e-10
-7.76735e-08
1.67799e-10
-7.78173e-08
1.43811e-10
-7.79369e-08
1.19558e-10
-7.80318e-08
9.4963e-11
-7.81018e-08
6.99533e-11
-7.81462e-08
4.44544e-11
-7.81646e-08
1.83923e-11
-7.81563e-08
-8.30705e-12
-7.81206e-08
-3.57172e-11
-7.80567e-08
-6.39103e-11
-7.79637e-08
-9.29566e-11
-7.78408e-08
-1.22924e-10
-7.76869e-08
-1.5388e-10
-7.7501e-08
-1.85888e-10
-7.7282e-08
-2.1901e-10
-7.70287e-08
-2.53304e-10
-7.67399e-08
-2.88823e-10
-7.64143e-08
-3.25616e-10
-7.60506e-08
-3.63726e-10
-7.56474e-08
-4.03191e-10
-7.52033e-08
-4.44043e-10
-7.4717e-08
-4.86307e-10
-7.4187e-08
-5.3e-10
-7.36119e-08
-5.7513e-10
-7.29902e-08
-6.21694e-10
-7.23205e-08
-6.69681e-10
-7.16014e-08
-7.19068e-10
-7.08316e-08
-7.69821e-10
-7.00097e-08
-8.21892e-10
-6.91345e-08
-8.75222e-10
-6.82048e-08
-9.29734e-10
-6.72194e-08
-9.85339e-10
-6.61775e-08
-1.04193e-09
-6.50781e-08
-1.09938e-09
-6.39206e-08
-1.15755e-09
-6.27043e-08
-1.21627e-09
-6.14289e-08
-1.27538e-09
-6.00943e-08
-1.33467e-09
-5.87003e-08
-1.39392e-09
-5.72474e-08
-1.45289e-09
-5.57361e-08
-1.51131e-09
-5.41672e-08
-1.56891e-09
-5.25418e-08
-1.62538e-09
-5.08614e-08
-1.6804e-09
-4.91278e-08
-1.73361e-09
-4.73432e-08
-1.78466e-09
-4.551e-08
-1.83314e-09
-4.36314e-08
-1.87866e-09
-4.17106e-08
-1.92079e-09
-3.97515e-08
-1.95908e-09
-3.77584e-08
-1.99308e-09
-3.57361e-08
-2.02231e-09
-3.36898e-08
-2.04629e-09
-3.16253e-08
-2.06452e-09
-2.95488e-08
-2.07649e-09
-2.74671e-08
-2.08168e-09
-2.53875e-08
-2.0796e-09
-2.33178e-08
-2.06971e-09
-2.12663e-08
-2.05152e-09
-1.92418e-08
-2.0245e-09
-1.72536e-08
-1.98817e-09
-1.53116e-08
-1.94205e-09
-1.34259e-08
-1.88567e-09
-1.16073e-08
-1.81861e-09
-9.86681e-09
-1.74047e-09
-8.21591e-09
-1.65089e-09
-6.66629e-09
-1.54961e-09
-5.22987e-09
-1.43642e-09
-3.91863e-09
-1.31124e-09
-2.74449e-09
-1.17415e-09
-1.71904e-09
-1.02544e-09
-8.53281e-10
-8.65761e-10
-1.57028e-10
-6.96252e-10
3.61798e-10
-5.18828e-10
6.98449e-10
-3.36653e-10
8.5342e-10
-1.54971e-10
8.35943e-10
1.74768e-11
6.69833e-10
1.66105e-10
4.0384e-10
2.65983e-10
1.30759e-10
2.73066e-10
1.30746e-10
2.45377e-10
-3.59829e-10
6.33938e-10
-6.33796e-10
9.49926e-10
-5.60599e-10
1.04666e-09
-2.57597e-10
8.28312e-10
1.85377e-10
2.384e-10
7.06642e-10
-7.51472e-10
1.26491e-09
-2.15031e-09
1.83285e-09
-3.95399e-09
2.39254e-09
-6.14952e-09
2.93223e-09
-8.71803e-09
3.44429e-09
-1.16369e-08
3.92387e-09
-1.48809e-08
4.36807e-09
-1.84237e-08
4.7753e-09
-2.22382e-08
5.14495e-09
-2.62972e-08
5.47707e-09
-3.05739e-08
5.77222e-09
-3.5042e-08
6.03133e-09
-3.9676e-08
6.25557e-09
-4.44515e-08
6.44632e-09
-4.93449e-08
6.6051e-09
-5.43339e-08
6.73352e-09
-5.93974e-08
6.83324e-09
-6.45155e-08
6.90596e-09
-6.96695e-08
6.95339e-09
-7.48421e-08
6.97727e-09
-8.0017e-08
6.97927e-09
-8.51794e-08
6.96106e-09
-9.03153e-08
6.92429e-09
-9.54123e-08
6.87052e-09
-1.00459e-07
6.80131e-09
-1.05445e-07
6.71812e-09
-1.1036e-07
6.62237e-09
-1.15197e-07
6.51542e-09
-1.19948e-07
6.39857e-09
-1.24607e-07
6.27302e-09
-1.29167e-07
6.13994e-09
-1.33625e-07
6.00042e-09
-1.37976e-07
5.85548e-09
-1.42216e-07
5.70606e-09
-1.46344e-07
5.55307e-09
-1.50356e-07
5.39731e-09
-1.54252e-07
5.23955e-09
-1.5803e-07
5.08049e-09
-1.61689e-07
4.92075e-09
-1.65231e-07
4.76093e-09
-1.68654e-07
4.60153e-09
-1.71959e-07
4.44304e-09
-1.75149e-07
4.28585e-09
-1.78222e-07
4.13035e-09
-1.81182e-07
3.97685e-09
-1.8403e-07
3.82563e-09
-1.86767e-07
3.67693e-09
-1.89396e-07
3.53092e-09
-1.91919e-07
3.38778e-09
-1.94337e-07
3.24763e-09
-1.96653e-07
3.11054e-09
-1.9887e-07
2.97657e-09
-2.00989e-07
2.84576e-09
-2.03014e-07
2.71809e-09
-2.04945e-07
2.59355e-09
-2.06787e-07
2.47207e-09
-2.08539e-07
2.3536e-09
-2.10206e-07
2.23802e-09
-2.11789e-07
2.12523e-09
-2.13289e-07
2.01509e-09
-2.1471e-07
1.90747e-09
-2.16051e-07
1.80218e-09
-2.17316e-07
1.69905e-09
-2.18505e-07
1.5979e-09
-2.19621e-07
1.49851e-09
-2.20662e-07
1.40067e-09
-2.21632e-07
1.30415e-09
-2.22531e-07
1.20872e-09
-2.23359e-07
1.11414e-09
-2.24116e-07
1.02015e-09
-2.24804e-07
9.2649e-10
-2.25422e-07
8.32901e-10
-2.25969e-07
7.39112e-10
-2.26446e-07
6.44848e-10
-2.26852e-07
5.49832e-10
-2.27186e-07
4.53783e-10
-2.27448e-07
3.56417e-10
-2.27635e-07
2.57449e-10
-2.27747e-07
1.56596e-10
-2.27783e-07
5.35741e-11
-2.27739e-07
-5.18952e-11
-2.27615e-07
-1.60089e-10
-2.27407e-07
-2.71281e-10
-2.27114e-07
-3.85738e-10
-2.26734e-07
-5.03722e-10
-2.26262e-07
-6.25484e-10
-2.25697e-07
-7.51267e-10
-2.25034e-07
-8.81297e-10
-2.24272e-07
-1.01579e-09
-2.23406e-07
-1.15494e-09
-2.22432e-07
-1.29893e-09
-2.21348e-07
-1.44793e-09
-2.20149e-07
-1.60207e-09
-2.18832e-07
-1.76146e-09
-2.17392e-07
-1.92618e-09
-2.15826e-07
-2.0963e-09
-2.14129e-07
-2.27183e-09
-2.12298e-07
-2.45275e-09
-2.10329e-07
-2.63901e-09
-2.08217e-07
-2.83051e-09
-2.0596e-07
-3.0271e-09
-2.03553e-07
-3.2286e-09
-2.00994e-07
-3.43476e-09
-1.98278e-07
-3.64527e-09
-1.95404e-07
-3.85978e-09
-1.92368e-07
-4.07786e-09
-1.89168e-07
-4.29902e-09
-1.85803e-07
-4.52273e-09
-1.82271e-07
-4.74833e-09
-1.78571e-07
-4.97515e-09
-1.74703e-07
-5.2024e-09
-1.70668e-07
-5.42924e-09
-1.66466e-07
-5.65473e-09
-1.621e-07
-5.87788e-09
-1.57571e-07
-6.09758e-09
-1.52884e-07
-6.31267e-09
-1.48042e-07
-6.52191e-09
-1.43052e-07
-6.72396e-09
-1.37919e-07
-6.91743e-09
-1.32651e-07
-7.10082e-09
-1.27258e-07
-7.27261e-09
-1.21747e-07
-7.43116e-09
-1.16131e-07
-7.5748e-09
-1.10423e-07
-7.70179e-09
-1.04635e-07
-7.81035e-09
-9.87823e-08
-7.89865e-09
-9.2882e-08
-7.96483e-09
-8.69515e-08
-8.00699e-09
-8.101e-08
-8.02324e-09
-7.50779e-08
-8.01167e-09
-6.91772e-08
-7.97038e-09
-6.33312e-08
-7.8975e-09
-5.75645e-08
-7.7912e-09
-5.1903e-08
-7.64971e-09
-4.63737e-08
-7.47135e-09
-4.10049e-08
-7.25452e-09
-3.58257e-08
-6.9978e-09
-3.08662e-08
-6.69992e-09
-2.61572e-08
-6.35988e-09
-2.17299e-08
-5.97695e-09
-1.76155e-08
-5.55085e-09
-1.38449e-08
-5.0818e-09
-1.04483e-08
-4.57077e-09
-7.45397e-09
-4.01977e-09
-4.88752e-09
-3.43221e-09
-2.77023e-09
-2.81355e-09
-1.11679e-09
-2.17227e-09
6.78841e-11
-1.52133e-09
7.93421e-10
-8.80512e-10
1.09088e-09
-2.79979e-10
1.02264e-09
2.34351e-10
6.9529e-10
5.9336e-10
2.73122e-10
6.95268e-10
4.0386e-10
2.45792e-10
-6.05616e-10
5.63458e-10
-9.51462e-10
6.97806e-10
-6.94955e-10
4.74848e-10
-3.46467e-11
-2.25087e-10
8.85327e-10
-1.47788e-09
1.95946e-09
-3.32545e-09
3.11246e-09
-5.7843e-09
4.29169e-09
-8.85244e-09
5.46069e-09
-1.25145e-08
6.59435e-09
-1.67458e-08
7.6756e-09
-2.1515e-08
8.69307e-09
-2.67865e-08
9.63949e-09
-3.25217e-08
1.05105e-08
-3.86807e-08
1.1304e-08
-4.52229e-08
1.20192e-08
-5.21076e-08
1.26569e-08
-5.92947e-08
1.32185e-08
-6.67452e-08
1.37061e-08
-7.44211e-08
1.41222e-08
-8.22859e-08
1.44699e-08
-9.03048e-08
1.47524e-08
-9.84447e-08
1.49731e-08
-1.06674e-07
1.51354e-08
-1.14964e-07
1.52429e-08
-1.23286e-07
1.52993e-08
-1.31615e-07
1.53081e-08
-1.39926e-07
1.52728e-08
-1.48199e-07
1.51969e-08
-1.56412e-07
1.50838e-08
-1.64548e-07
1.49368e-08
-1.72589e-07
1.47591e-08
-1.8052e-07
1.45536e-08
-1.88328e-07
1.43234e-08
-1.96001e-07
1.40713e-08
-2.03527e-07
1.37998e-08
-2.10899e-07
1.35115e-08
-2.18107e-07
1.32089e-08
-2.25146e-07
1.2894e-08
-2.32009e-07
1.2569e-08
-2.38692e-07
1.22359e-08
-2.45191e-07
1.18964e-08
-2.51503e-07
1.15522e-08
-2.57628e-07
1.12048e-08
-2.63563e-07
1.08556e-08
-2.69308e-07
1.0506e-08
-2.74863e-07
1.0157e-08
-2.8023e-07
9.80971e-09
-2.85409e-07
9.46504e-09
-2.90402e-07
9.1238e-09
-2.95212e-07
8.78672e-09
-2.99841e-07
8.4544e-09
-3.04292e-07
8.12737e-09
-3.08567e-07
7.80607e-09
-3.1267e-07
7.49085e-09
-3.16604e-07
7.18199e-09
-3.20373e-07
6.87969e-09
-3.23981e-07
6.58407e-09
-3.2743e-07
6.29521e-09
-3.30725e-07
6.01311e-09
-3.33869e-07
5.73772e-09
-3.36866e-07
5.46894e-09
-3.39719e-07
5.20662e-09
-3.42432e-07
4.95055e-09
-3.45007e-07
4.7005e-09
-3.47448e-07
4.45617e-09
-3.49758e-07
4.21725e-09
-3.51939e-07
3.98338e-09
-3.53994e-07
3.75419e-09
-3.55926e-07
3.52925e-09
-3.57735e-07
3.30812e-09
-3.59425e-07
3.09033e-09
-3.60996e-07
2.8754e-09
-3.6245e-07
2.66281e-09
-3.63788e-07
2.45203e-09
-3.6501e-07
2.24252e-09
-3.66118e-07
2.03371e-09
-3.6711e-07
1.82502e-09
-3.67987e-07
1.61588e-09
-3.68747e-07
1.40569e-09
-3.69391e-07
1.19383e-09
-3.69917e-07
9.79707e-10
-3.70324e-07
7.62699e-10
-3.70608e-07
5.42193e-10
-3.70769e-07
3.17575e-10
-3.70804e-07
8.82306e-11
-3.70709e-07
-1.46449e-10
-3.70482e-07
-3.87065e-10
-3.7012e-07
-6.34205e-10
-3.69617e-07
-8.88447e-10
-3.6897e-07
-1.15035e-09
-3.68175e-07
-1.42046e-09
-3.67227e-07
-1.69928e-09
-3.66121e-07
-1.98732e-09
-3.64852e-07
-2.28502e-09
-3.63414e-07
-2.59282e-09
-3.61802e-07
-2.91108e-09
-3.6001e-07
-3.24016e-09
-3.58031e-07
-3.58034e-09
-3.55861e-07
-3.93184e-09
-3.53492e-07
-4.29485e-09
-3.50919e-07
-4.66945e-09
-3.48135e-07
-5.05569e-09
-3.45135e-07
-5.4535e-09
-3.41911e-07
-5.86274e-09
-3.38458e-07
-6.2832e-09
-3.34771e-07
-6.71453e-09
-3.30843e-07
-7.15629e-09
-3.2667e-07
-7.60794e-09
-3.22246e-07
-8.0688e-09
-3.17568e-07
-8.53806e-09
-3.12631e-07
-9.0148e-09
-3.07432e-07
-9.49793e-09
-3.01969e-07
-9.98623e-09
-2.96239e-07
-1.04783e-08
-2.90241e-07
-1.09727e-08
-2.83976e-07
-1.14676e-08
-2.77444e-07
-1.19612e-08
-2.70647e-07
-1.24515e-08
-2.63589e-07
-1.29362e-08
-2.56274e-07
-1.34131e-08
-2.48707e-07
-1.38795e-08
-2.40896e-07
-1.43327e-08
-2.3285e-07
-1.477e-08
-2.24579e-07
-1.51881e-08
-2.16096e-07
-1.55839e-08
-2.07415e-07
-1.59541e-08
-1.98551e-07
-1.62952e-08
-1.89522e-07
-1.66035e-08
-1.80348e-07
-1.68754e-08
-1.71052e-07
-1.71069e-08
-1.61656e-07
-1.72942e-08
-1.52188e-07
-1.74333e-08
-1.42675e-07
-1.75201e-08
-1.33147e-07
-1.75507e-08
-1.23638e-07
-1.75209e-08
-1.14181e-07
-1.74269e-08
-1.04814e-07
-1.72645e-08
-9.55754e-08
-1.70302e-08
-8.65049e-08
-1.67202e-08
-7.76452e-08
-1.63311e-08
-6.904e-08
-1.58597e-08
-6.07344e-08
-1.53033e-08
-5.27748e-08
-1.46596e-08
-4.52079e-08
-1.39267e-08
-3.8081e-08
-1.31038e-08
-3.1441e-08
-1.21908e-08
-2.53337e-08
-1.11891e-08
-1.98029e-08
-1.01016e-08
-1.4889e-08
-8.93369e-09
-1.06274e-08
-7.69382e-09
-7.04604e-09
-6.39489e-09
-4.16237e-09
-5.05594e-09
-1.97891e-09
-3.70479e-09
-4.77634e-10
-2.38179e-09
3.8767e-10
-1.1453e-09
7.01141e-10
-7.91386e-11
5.96044e-10
6.98441e-10
2.66897e-10
1.02443e-09
6.70755e-10
1.63768e-10
-7.69364e-10
2.64759e-10
-1.05248e-09
4.42855e-11
-4.74466e-10
-6.78047e-10
6.87701e-10
-2.029e-09
2.23627e-09
-4.09178e-09
4.02224e-09
-6.9145e-09
5.93517e-09
-1.05177e-08
7.89486e-09
-1.49006e-08
9.84359e-09
-2.00464e-08
1.17402e-08
-2.59264e-08
1.35556e-08
-3.25032e-08
1.52699e-08
-3.97333e-08
1.68696e-08
-4.75691e-08
1.83463e-08
-5.59605e-08
1.96954e-08
-6.4856e-08
2.09147e-08
-7.42037e-08
2.20046e-08
-8.39521e-08
2.29668e-08
-9.40503e-08
2.38043e-08
-1.04449e-07
2.45211e-08
-1.15101e-07
2.51216e-08
-1.2596e-07
2.56112e-08
-1.36982e-07
2.59952e-08
-1.48126e-07
2.62794e-08
-1.59352e-07
2.64696e-08
-1.70625e-07
2.6572e-08
-1.81909e-07
2.65923e-08
-1.93173e-07
2.65367e-08
-2.04387e-07
2.64108e-08
-2.15524e-07
2.62206e-08
-2.26559e-07
2.59715e-08
-2.37469e-07
2.5669e-08
-2.48233e-07
2.53183e-08
-2.58834e-07
2.49244e-08
-2.69255e-07
2.44921e-08
-2.79481e-07
2.4026e-08
-2.895e-07
2.35303e-08
-2.993e-07
2.30093e-08
-3.08873e-07
2.24667e-08
-3.1821e-07
2.19061e-08
-3.27305e-07
2.13309e-08
-3.36153e-07
2.07442e-08
-3.4475e-07
2.0149e-08
-3.53093e-07
1.95478e-08
-3.6118e-07
1.89431e-08
-3.69011e-07
1.83371e-08
-3.76586e-07
1.77319e-08
-3.83906e-07
1.71293e-08
-3.90971e-07
1.65308e-08
-3.97786e-07
1.59379e-08
-4.04351e-07
1.53519e-08
-4.1067e-07
1.47738e-08
-4.16747e-07
1.42046e-08
-4.22586e-07
1.3645e-08
-4.28191e-07
1.30957e-08
-4.33566e-07
1.25572e-08
-4.38716e-07
1.20298e-08
-4.43646e-07
1.15138e-08
-4.4836e-07
1.10092e-08
-4.52863e-07
1.05163e-08
-4.5716e-07
1.00347e-08
-4.61256e-07
9.56449e-09
-4.65154e-07
9.10528e-09
-4.68861e-07
8.65677e-09
-4.72379e-07
8.21856e-09
-4.75713e-07
7.79015e-09
-4.78866e-07
7.37101e-09
-4.81844e-07
6.96052e-09
-4.84647e-07
6.55804e-09
-4.87281e-07
6.16283e-09
-4.89747e-07
5.77416e-09
-4.92048e-07
5.3912e-09
-4.94186e-07
5.01313e-09
-4.96162e-07
4.63906e-09
-4.97978e-07
4.26808e-09
-4.99635e-07
3.89924e-09
-5.01133e-07
3.53159e-09
-5.02472e-07
3.16412e-09
-5.03652e-07
2.79584e-09
-5.04672e-07
2.4257e-09
-5.0553e-07
2.05268e-09
-5.06226e-07
1.67573e-09
-5.06758e-07
1.29379e-09
-5.07121e-07
9.05791e-10
-5.07314e-07
5.10686e-10
-5.07333e-07
1.07422e-10
-5.07175e-07
-3.05045e-10
-5.06834e-07
-7.27742e-10
-5.06307e-07
-1.16168e-09
-5.05587e-07
-1.60785e-09
-5.0467e-07
-2.06721e-09
-5.0355e-07
-2.54068e-09
-5.0222e-07
-3.02913e-09
-5.00674e-07
-3.53341e-09
-4.98905e-07
-4.05428e-09
-4.96905e-07
-4.59247e-09
-4.94668e-07
-5.14862e-09
-4.92185e-07
-5.72329e-09
-4.89448e-07
-6.31696e-09
-4.8645e-07
-6.93e-09
-4.83182e-07
-7.5627e-09
-4.79636e-07
-8.2152e-09
-4.75805e-07
-8.88753e-09
-4.71678e-07
-9.57957e-09
-4.6725e-07
-1.02911e-08
-4.62512e-07
-1.10216e-08
-4.57456e-07
-1.17706e-08
-4.52075e-07
-1.25372e-08
-4.46362e-07
-1.33205e-08
-4.40312e-07
-1.41193e-08
-4.33918e-07
-1.49321e-08
-4.27175e-07
-1.57574e-08
-4.2008e-07
-1.65932e-08
-4.12628e-07
-1.74375e-08
-4.04819e-07
-1.82878e-08
-3.9665e-07
-1.91415e-08
-3.88122e-07
-1.99956e-08
-3.79236e-07
-2.08469e-08
-3.69996e-07
-2.16919e-08
-3.60406e-07
-2.25268e-08
-3.50471e-07
-2.33474e-08
-3.40201e-07
-2.41495e-08
-3.29606e-07
-2.49284e-08
-3.18696e-07
-2.5679e-08
-3.07488e-07
-2.63962e-08
-2.95998e-07
-2.70745e-08
-2.84244e-07
-2.77081e-08
-2.72248e-07
-2.82911e-08
-2.60034e-07
-2.88173e-08
-2.47629e-07
-2.92803e-08
-2.35062e-07
-2.96735e-08
-2.22366e-07
-2.99904e-08
-2.09575e-07
-3.02242e-08
-1.96727e-07
-3.0368e-08
-1.83863e-07
-3.04151e-08
-1.71025e-07
-3.03586e-08
-1.5826e-07
-3.0192e-08
-1.45616e-07
-2.99086e-08
-1.33144e-07
-2.95021e-08
-1.20898e-07
-2.89668e-08
-1.08932e-07
-2.82969e-08
-9.73039e-08
-2.74876e-08
-8.60727e-08
-2.65345e-08
-7.52981e-08
-2.54342e-08
-6.50405e-08
-2.41844e-08
-5.53602e-08
-2.27841e-08
-4.63166e-08
-2.12344e-08
-3.79674e-08
-1.95383e-08
-3.03668e-08
-1.77022e-08
-2.35642e-08
-1.57363e-08
-1.7602e-08
-1.3656e-08
-1.25126e-08
-1.14843e-08
-8.31504e-09
-9.2535e-09
-5.01038e-09
-7.00944e-09
-2.57604e-09
-4.81613e-09
-9.58725e-10
-2.76261e-09
-6.60429e-11
-9.7182e-10
2.42935e-10
3.89449e-10
1.68996e-10
1.09837e-09
8.39751e-10
3.77532e-11
-8.07121e-10
-1.74155e-10
-8.40569e-10
-8.70514e-10
2.21903e-10
-2.22141e-09
2.03861e-09
-4.34863e-09
4.36349e-09
-7.33369e-09
7.0073e-09
-1.12246e-08
9.82603e-09
-1.60417e-08
1.27121e-08
-2.17838e-08
1.55856e-08
-2.84319e-08
1.83883e-08
-3.59539e-08
2.10776e-08
-4.43075e-08
2.36234e-08
-5.3443e-08
2.60051e-08
-6.33056e-08
2.8209e-08
-7.38371e-08
3.02268e-08
-8.49771e-08
3.20548e-08
-9.66645e-08
3.3692e-08
-1.08838e-07
3.51404e-08
-1.21437e-07
3.64037e-08
-1.34403e-07
3.7487e-08
-1.47678e-07
3.83968e-08
-1.61208e-07
3.91402e-08
-1.74938e-07
3.97252e-08
-1.88818e-07
4.01599e-08
-2.02801e-07
4.0453e-08
-2.16843e-07
4.06132e-08
-2.309e-07
4.06493e-08
-2.44933e-07
4.05701e-08
-2.58907e-07
4.03844e-08
-2.72787e-07
4.01006e-08
-2.86542e-07
3.97272e-08
-3.00146e-07
3.92723e-08
-3.13571e-07
3.87437e-08
-3.26796e-07
3.81489e-08
-3.39799e-07
3.74953e-08
-3.52562e-07
3.67896e-08
-3.65071e-07
3.60385e-08
-3.77309e-07
3.52481e-08
-3.89267e-07
3.44243e-08
-4.00933e-07
3.35726e-08
-4.12301e-07
3.2698e-08
-4.23362e-07
3.18054e-08
-4.34112e-07
3.08991e-08
-4.44547e-07
2.99832e-08
-4.54666e-07
2.90614e-08
-4.64466e-07
2.81371e-08
-4.73947e-07
2.72135e-08
-4.83111e-07
2.62933e-08
-4.91959e-07
2.5379e-08
-5.00494e-07
2.44727e-08
-5.08719e-07
2.35765e-08
-5.16637e-07
2.26919e-08
-5.24253e-07
2.18205e-08
-5.31571e-07
2.09635e-08
-5.38597e-07
2.01217e-08
-5.45336e-07
1.9296e-08
-5.51793e-07
1.8487e-08
-5.57975e-07
1.7695e-08
-5.63886e-07
1.69203e-08
-5.69533e-07
1.6163e-08
-5.74921e-07
1.54228e-08
-5.80056e-07
1.46997e-08
-5.84944e-07
1.39932e-08
-5.8959e-07
1.33028e-08
-5.93999e-07
1.26279e-08
-5.98177e-07
1.19678e-08
-6.02128e-07
1.13217e-08
-6.05856e-07
1.06886e-08
-6.09365e-07
1.00677e-08
-6.1266e-07
9.45767e-09
-6.15743e-07
8.85752e-09
-6.18618e-07
8.266e-09
-6.21287e-07
7.68184e-09
-6.23752e-07
7.10369e-09
-6.26014e-07
6.5302e-09
-6.28074e-07
5.95992e-09
-6.29934e-07
5.39139e-09
-6.31593e-07
4.82311e-09
-6.33051e-07
4.25355e-09
-6.34306e-07
3.68115e-09
-6.35358e-07
3.10435e-09
-6.36204e-07
2.52155e-09
-6.36841e-07
1.93115e-09
-6.37267e-07
1.33155e-09
-6.37477e-07
7.2116e-10
-6.37468e-07
9.83786e-11
-6.37235e-07
-5.38366e-10
-6.36772e-07
-1.19063e-09
-6.36074e-07
-1.85993e-09
-6.35134e-07
-2.54775e-09
-6.33946e-07
-3.25554e-09
-6.32502e-07
-3.98469e-09
-6.30794e-07
-4.7365e-09
-6.28815e-07
-5.51224e-09
-6.26557e-07
-6.31306e-09
-6.24009e-07
-7.14002e-09
-6.21164e-07
-7.99409e-09
-6.18011e-07
-8.87609e-09
-6.14541e-07
-9.78673e-09
-6.10745e-07
-1.07266e-08
-6.06611e-07
-1.16959e-08
-6.02131e-07
-1.26951e-08
-5.97295e-07
-1.37241e-08
-5.92092e-07
-1.47826e-08
-5.86513e-07
-1.58703e-08
-5.80548e-07
-1.69865e-08
-5.74188e-07
-1.81302e-08
-5.67425e-07
-1.93003e-08
-5.6025e-07
-2.04952e-08
-5.52656e-07
-2.1713e-08
-5.44637e-07
-2.29516e-08
-5.36186e-07
-2.42085e-08
-5.27298e-07
-2.54809e-08
-5.1797e-07
-2.67653e-08
-5.082e-07
-2.80583e-08
-4.97986e-07
-2.93557e-08
-4.87328e-07
-3.0653e-08
-4.7623e-07
-3.19454e-08
-4.64694e-07
-3.32275e-08
-4.52727e-07
-3.44936e-08
-4.40337e-07
-3.57373e-08
-4.27535e-07
-3.69522e-08
-4.14332e-07
-3.81311e-08
-4.00744e-07
-3.92665e-08
-3.8679e-07
-4.03506e-08
-3.7249e-07
-4.1375e-08
-3.57867e-07
-4.23311e-08
-3.42948e-07
-4.32099e-08
-3.27763e-07
-4.40022e-08
-3.12345e-07
-4.46983e-08
-2.9673e-07
-4.52885e-08
-2.80958e-07
-4.57628e-08
-2.65071e-07
-4.61111e-08
-2.49116e-07
-4.63232e-08
-2.33142e-07
-4.63891e-08
-2.17201e-07
-4.62988e-08
-2.01351e-07
-4.60423e-08
-1.8565e-07
-4.56101e-08
-1.70158e-07
-4.49932e-08
-1.54942e-07
-4.41828e-08
-1.40068e-07
-4.31712e-08
-1.25605e-07
-4.19513e-08
-1.11622e-07
-4.05172e-08
-9.81913e-08
-3.88647e-08
-8.53848e-08
-3.69909e-08
-7.32735e-08
-3.48955e-08
-6.1927e-08
-3.25809e-08
-5.14124e-08
-3.0053e-08
-4.17923e-08
-2.73223e-08
-3.31231e-08
-2.44054e-08
-2.54528e-08
-2.13264e-08
-1.88175e-08
-1.81195e-08
-1.32387e-08
-1.48324e-08
-8.71797e-09
-1.15302e-08
-5.23264e-09
-8.30146e-09
-2.72945e-09
-5.26578e-09
-1.11794e-09
-2.58333e-09
-2.63106e-10
-4.65393e-10
2.32616e-11
8.11999e-10
8.63012e-10
-1.10598e-10
-6.96513e-10
-6.93989e-10
-2.57169e-10
-1.946e-09
1.47393e-09
-4.01448e-09
4.10707e-09
-7.0072e-09
7.3562e-09
-1.09969e-08
1.0997e-08
-1.60261e-08
1.48552e-08
-2.21115e-08
1.87974e-08
-2.92484e-08
2.27225e-08
-3.74146e-08
2.65546e-08
-4.65744e-08
3.02373e-08
-5.66807e-08
3.37297e-08
-6.76786e-08
3.7003e-08
-7.95072e-08
4.00376e-08
-9.21014e-08
4.2821e-08
-1.05394e-07
4.53469e-08
-1.19315e-07
4.76132e-08
-1.33796e-07
4.96213e-08
-1.48768e-07
5.13756e-08
-1.64163e-07
5.28825e-08
-1.79916e-07
5.41501e-08
-1.95964e-07
5.51878e-08
-2.12245e-07
5.60059e-08
-2.287e-07
5.66156e-08
-2.45275e-07
5.70283e-08
-2.61918e-07
5.72559e-08
-2.78579e-07
5.73105e-08
-2.95213e-07
5.72039e-08
-3.11777e-07
5.69483e-08
-3.28232e-07
5.65553e-08
-3.44541e-07
5.60365e-08
-3.60672e-07
5.54031e-08
-3.76594e-07
5.46661e-08
-3.92281e-07
5.38358e-08
-4.07708e-07
5.29224e-08
-4.22854e-07
5.19354e-08
-4.377e-07
5.0884e-08
-4.52228e-07
4.97769e-08
-4.66426e-07
4.86222e-08
-4.80281e-07
4.74276e-08
-4.93784e-07
4.62003e-08
-5.06925e-07
4.49469e-08
-5.197e-07
4.36736e-08
-5.32103e-07
4.23862e-08
-5.44131e-07
4.109e-08
-5.55784e-07
3.97896e-08
-5.6706e-07
3.84894e-08
-5.7796e-07
3.71935e-08
-5.88486e-07
3.59053e-08
-5.98641e-07
3.46278e-08
-6.08429e-07
3.3364e-08
-6.17853e-07
3.2116e-08
-6.26918e-07
3.08861e-08
-6.35631e-07
2.96759e-08
-6.43996e-07
2.84867e-08
-6.5202e-07
2.73198e-08
-6.59709e-07
2.61759e-08
-6.67069e-07
2.50556e-08
-6.74108e-07
2.39593e-08
-6.80832e-07
2.2887e-08
-6.87248e-07
2.18387e-08
-6.93362e-07
2.08139e-08
-6.99181e-07
1.98123e-08
-7.04712e-07
1.88331e-08
-7.09959e-07
1.78755e-08
-7.1493e-07
1.69385e-08
-7.19629e-07
1.6021e-08
-7.24062e-07
1.51216e-08
-7.28234e-07
1.42391e-08
-7.32148e-07
1.33719e-08
-7.35809e-07
1.25183e-08
-7.39219e-07
1.16768e-08
-7.42383e-07
1.08456e-08
-7.45302e-07
1.00227e-08
-7.47978e-07
9.20622e-09
-7.50412e-07
8.39423e-09
-7.52606e-07
7.58464e-09
-7.54558e-07
6.77536e-09
-7.56269e-07
5.96426e-09
-7.57737e-07
5.14915e-09
-7.5896e-07
4.32784e-09
-7.59937e-07
3.49812e-09
-7.60663e-07
2.65774e-09
-7.61136e-07
1.80448e-09
-7.61351e-07
9.36104e-10
-7.61303e-07
5.03919e-11
-7.60987e-07
-8.54849e-10
-7.60396e-07
-1.78178e-09
-7.59523e-07
-2.73252e-09
-7.58362e-07
-3.70914e-09
-7.56903e-07
-4.71363e-09
-7.5514e-07
-5.74793e-09
-7.53063e-07
-6.81385e-09
-7.50662e-07
-7.91312e-09
-7.47928e-07
-9.04735e-09
-7.4485e-07
-1.0218e-08
-7.41417e-07
-1.14264e-08
-7.3762e-07
-1.26736e-08
-7.33446e-07
-1.39607e-08
-7.28884e-07
-1.52883e-08
-7.23923e-07
-1.66571e-08
-7.18551e-07
-1.80671e-08
-7.12757e-07
-1.95184e-08
-7.06529e-07
-2.10107e-08
-6.99856e-07
-2.25434e-08
-6.92727e-07
-2.41154e-08
-6.85132e-07
-2.57254e-08
-6.7706e-07
-2.73718e-08
-6.68503e-07
-2.90522e-08
-6.59452e-07
-3.07641e-08
-6.49899e-07
-3.25044e-08
-6.39838e-07
-3.42697e-08
-6.29263e-07
-3.60558e-08
-6.1817e-07
-3.78581e-08
-6.06557e-07
-3.96714e-08
-5.94423e-07
-4.14902e-08
-5.81768e-07
-4.33081e-08
-5.68595e-07
-4.51182e-08
-5.54909e-07
-4.6913e-08
-5.40718e-07
-4.86846e-08
-5.26032e-07
-5.04241e-08
-5.10861e-07
-5.21225e-08
-4.95223e-07
-5.37696e-08
-4.79134e-07
-5.53553e-08
-4.62616e-07
-5.68683e-08
-4.45694e-07
-5.82973e-08
-4.28395e-07
-5.96302e-08
-4.1075e-07
-6.08544e-08
-3.92795e-07
-6.19572e-08
-3.74568e-07
-6.29253e-08
-3.56112e-07
-6.37451e-08
-3.37472e-07
-6.44029e-08
-3.18698e-07
-6.48847e-08
-2.99844e-07
-6.51767e-08
-2.80969e-07
-6.52649e-08
-2.62132e-07
-6.51357e-08
-2.43398e-07
-6.47756e-08
-2.24837e-07
-6.41718e-08
-2.06518e-07
-6.33118e-08
-1.88517e-07
-6.21843e-08
-1.70909e-07
-6.07789e-08
-1.53774e-07
-5.90865e-08
-1.37191e-07
-5.70997e-08
-1.21243e-07
-5.48133e-08
-1.06009e-07
-5.22244e-08
-9.15709e-08
-4.93337e-08
-7.80064e-08
-4.61454e-08
-6.53903e-08
-4.2669e-08
-5.37924e-08
-3.89202e-08
-4.32752e-08
-3.49226e-08
-3.38916e-08
-3.07099e-08
-2.56823e-08
-2.63288e-08
-1.86721e-08
-2.18426e-08
-1.28661e-08
-1.73361e-08
-8.2458e-09
-1.29218e-08
-4.7639e-09
-8.74768e-09
-2.33983e-09
-5.0074e-09
-8.54602e-10
-1.95062e-09
-1.45837e-10
1.03231e-10
7.17173e-10
-2.68848e-10
-4.27675e-10
-1.25597e-09
7.29942e-10
-3.11205e-09
3.33001e-09
-5.9554e-09
6.95041e-09
-9.87343e-09
1.12742e-08
-1.49248e-08
1.60484e-08
-2.11419e-08
2.10724e-08
-2.85344e-08
2.61899e-08
-3.70917e-08
3.12799e-08
-4.6787e-08
3.62498e-08
-5.75795e-08
4.10298e-08
-6.94176e-08
4.55679e-08
-8.22412e-08
4.98266e-08
-9.59838e-08
5.37802e-08
-1.10574e-07
5.74116e-08
-1.25939e-07
6.07114e-08
-1.42002e-07
6.3676e-08
-1.58687e-07
6.63063e-08
-1.75918e-07
6.86068e-08
-1.93621e-07
7.05853e-08
-2.11722e-07
7.22515e-08
-2.30151e-07
7.3617e-08
-2.4884e-07
7.4695e-08
-2.67724e-07
7.54993e-08
-2.86741e-07
7.60448e-08
-3.05831e-07
7.63465e-08
-3.24941e-07
7.642e-08
-3.44018e-07
7.62809e-08
-3.63014e-07
7.59446e-08
-3.81885e-07
7.54265e-08
-4.0059e-07
7.47416e-08
-4.19092e-07
7.39047e-08
-4.37356e-07
7.293e-08
-4.55351e-07
7.18313e-08
-4.73051e-07
7.06218e-08
-4.9043e-07
6.93141e-08
-5.07466e-07
6.79204e-08
-5.24141e-07
6.6452e-08
-5.40439e-07
6.49198e-08
-5.56345e-07
6.33339e-08
-5.71849e-07
6.17039e-08
-5.8694e-07
6.00385e-08
-6.01612e-07
5.8346e-08
-6.1586e-07
5.6634e-08
-6.2968e-07
5.49094e-08
-6.43069e-07
5.31788e-08
-6.56027e-07
5.14478e-08
-6.68555e-07
4.97217e-08
-6.80655e-07
4.80052e-08
-6.9233e-07
4.63025e-08
-7.03583e-07
4.46172e-08
-7.1442e-07
4.29525e-08
-7.24845e-07
4.13112e-08
-7.34865e-07
3.96956e-08
-7.44485e-07
3.81075e-08
-7.53714e-07
3.65485e-08
-7.62558e-07
3.50197e-08
-7.71024e-07
3.35218e-08
-7.7912e-07
3.20554e-08
-7.86854e-07
3.06206e-08
-7.94233e-07
2.92173e-08
-8.01264e-07
2.78451e-08
-8.07955e-07
2.65032e-08
-8.14312e-07
2.5191e-08
-8.20344e-07
2.39071e-08
-8.26056e-07
2.26505e-08
-8.31454e-07
2.14194e-08
-8.36545e-07
2.02124e-08
-8.41334e-07
1.90275e-08
-8.45825e-07
1.78628e-08
-8.50022e-07
1.67162e-08
-8.53931e-07
1.55854e-08
-8.57553e-07
1.44681e-08
-8.60893e-07
1.33618e-08
-8.6395e-07
1.2264e-08
-8.66728e-07
1.1172e-08
-8.69227e-07
1.00832e-08
-8.71446e-07
8.9948e-09
-8.73386e-07
7.90391e-09
-8.75044e-07
6.80769e-09
-8.7642e-07
5.70325e-09
-8.77509e-07
4.58765e-09
-8.78309e-07
3.45793e-09
-8.78816e-07
2.31116e-09
-8.79024e-07
1.14439e-09
-8.78929e-07
-4.53089e-11
-8.78523e-07
-1.26082e-09
-8.778e-07
-2.505e-09
-8.76751e-07
-3.78063e-09
-8.7537e-07
-5.09043e-09
-8.73647e-07
-6.43704e-09
-8.71572e-07
-7.82297e-09
-8.69135e-07
-9.25062e-09
-8.66326e-07
-1.07223e-08
-8.63133e-07
-1.224e-08
-8.59546e-07
-1.38057e-08
-8.55551e-07
-1.5421e-08
-8.51137e-07
-1.70876e-08
-8.46291e-07
-1.88065e-08
-8.41001e-07
-2.05788e-08
-8.35253e-07
-2.24051e-08
-8.29034e-07
-2.42856e-08
-8.22332e-07
-2.62203e-08
-8.15134e-07
-2.82088e-08
-8.07427e-07
-3.02501e-08
-7.992e-07
-3.23429e-08
-7.9044e-07
-3.44854e-08
-7.81136e-07
-3.66753e-08
-7.71279e-07
-3.89096e-08
-7.60858e-07
-4.11849e-08
-7.49866e-07
-4.3497e-08
-7.38294e-07
-4.58412e-08
-7.26138e-07
-4.82122e-08
-7.13392e-07
-5.06038e-08
-7.00054e-07
-5.30092e-08
-6.86123e-07
-5.54208e-08
-6.71601e-07
-5.78303e-08
-6.56491e-07
-6.02287e-08
-6.40798e-07
-6.26059e-08
-6.24531e-07
-6.49514e-08
-6.07701e-07
-6.72537e-08
-5.90323e-07
-6.95006e-08
-5.72414e-07
-7.1679e-08
-5.53994e-07
-7.37752e-08
-5.35087e-07
-7.57747e-08
-5.15722e-07
-7.76624e-08
-4.9593e-07
-7.94224e-08
-4.75746e-07
-8.10384e-08
-4.5521e-07
-8.24934e-08
-4.34365e-07
-8.377e-08
-4.1326e-07
-8.48507e-08
-3.91945e-07
-8.57173e-08
-3.70478e-07
-8.63518e-08
-3.48919e-07
-8.6736e-08
-3.27332e-07
-8.68519e-08
-3.05786e-07
-8.66817e-08
-2.84353e-07
-8.62082e-08
-2.6311e-07
-8.54148e-08
-2.42136e-07
-8.42858e-08
-2.21514e-07
-8.28067e-08
-2.01328e-07
-8.09645e-08
-1.81667e-07
-7.8748e-08
-1.62618e-07
-7.61483e-08
-1.44272e-07
-7.31595e-08
-1.26718e-07
-6.97789e-08
-1.10043e-07
-6.60082e-08
-9.43339e-08
-6.18544e-08
-7.96722e-08
-5.73308e-08
-6.61337e-08
-5.24587e-08
-5.3787e-08
-4.72694e-08
-4.26904e-08
-4.18066e-08
-3.28895e-08
-3.61296e-08
-2.44147e-08
-3.03174e-08
-1.72774e-08
-2.44735e-08
-1.14667e-08
-1.87325e-08
-6.94661e-09
-1.32678e-08
-3.65227e-09
-8.30174e-09
-1.48775e-09
-4.11514e-09
-3.24325e-10
-1.0602e-09
3.92847e-10
-4.29728e-10
2.06486e-12
-1.83521e-09
2.13542e-09
-4.32103e-09
5.81581e-09
-7.97228e-09
1.06017e-08
-1.2852e-08
1.61539e-08
-1.90007e-08
2.21971e-08
-2.64375e-08
2.85092e-08
-3.51617e-08
3.49141e-08
-4.5155e-08
4.12731e-08
-5.63836e-08
4.74785e-08
-6.88012e-08
5.34474e-08
-8.23507e-08
5.91173e-08
-9.69666e-08
6.44425e-08
-1.12577e-07
6.93906e-08
-1.29105e-07
7.39399e-08
-1.46472e-07
7.80779e-08
-1.64595e-07
8.17989e-08
-1.83392e-07
8.51034e-08
-2.02781e-07
8.79961e-08
-2.22681e-07
9.04857e-08
-2.43014e-07
9.25837e-08
-2.63701e-07
9.43042e-08
-2.84669e-07
9.56628e-08
-3.05846e-07
9.66766e-08
-3.27165e-07
9.73637e-08
-3.48561e-07
9.77429e-08
-3.69975e-07
9.78333e-08
-3.91348e-07
9.76544e-08
-4.12629e-07
9.72254e-08
-4.33768e-07
9.65655e-08
-4.5472e-07
9.56937e-08
-4.75444e-07
9.46284e-08
-4.95901e-07
9.33876e-08
-5.16059e-07
9.19886e-08
-5.35885e-07
9.04481e-08
-5.55353e-07
8.87822e-08
-5.74439e-07
8.70061e-08
-5.93121e-07
8.51344e-08
-6.11382e-07
8.31806e-08
-6.29206e-07
8.11578e-08
-6.4658e-07
7.90779e-08
-6.63494e-07
7.69523e-08
-6.79939e-07
7.47914e-08
-6.9591e-07
7.2605e-08
-7.11402e-07
7.04018e-08
-7.26414e-07
6.81902e-08
-7.40943e-07
6.59774e-08