/*--------------------------------*- C++ -*----------------------------------*\
  =========                 |
  \\      /  F ield         | OpenFOAM: The Open Source CFD Toolbox
   \\    /   O peration     | Website:  https://openfoam.org
    \\  /    A nd           | Version:  7
     \\/     M anipulation  |
\*---------------------------------------------------------------------------*/
FoamFile
{
    version     2.0;
    format      ascii;
    class       volVectorField;
    location    "0.2875";
    object      U;
}
// * * * * * * * * * * * * * * * * * * * * * * * * * * * * * * * * * * * * * //

dimensions      [0 1 -1 0 0 0 0];

internalField   nonuniform List<vector> 
12800
(
(8.32108e-06 -8.32723e-06 0)
(3.70764e-05 -1.85359e-05 0)
(7.85275e-05 -1.97119e-05 0)
(0.000113245 -1.53543e-05 0)
(0.000129993 -8.31235e-06 0)
(0.000123882 -1.38881e-07 0)
(9.27691e-05 8.34356e-06 0)
(3.60388e-05 1.66964e-05 0)
(-4.59501e-05 2.46854e-05 0)
(-0.00015225 3.21919e-05 0)
(-0.000281562 3.91564e-05 0)
(-0.000432379 4.55538e-05 0)
(-0.000603081 5.13785e-05 0)
(-0.000791988 5.66368e-05 0)
(-0.00099741 6.13435e-05 0)
(-0.00121767 6.55169e-05 0)
(-0.00145113 6.91789e-05 0)
(-0.00169618 7.2353e-05 0)
(-0.00195131 7.50637e-05 0)
(-0.00221503 7.73363e-05 0)
(-0.00248596 7.91964e-05 0)
(-0.00276275 8.06696e-05 0)
(-0.00304417 8.17815e-05 0)
(-0.00332904 8.25567e-05 0)
(-0.00361627 8.30196e-05 0)
(-0.00390482 8.3194e-05 0)
(-0.00419375 8.31028e-05 0)
(-0.00448219 8.27684e-05 0)
(-0.00476934 8.22122e-05 0)
(-0.00505445 8.14548e-05 0)
(-0.00533686 8.05159e-05 0)
(-0.00561597 7.94143e-05 0)
(-0.00589123 7.81679e-05 0)
(-0.00616216 7.67935e-05 0)
(-0.00642832 7.53072e-05 0)
(-0.00668935 7.37238e-05 0)
(-0.00694492 7.20577e-05 0)
(-0.00719473 7.03219e-05 0)
(-0.00743857 6.85288e-05 0)
(-0.00767624 6.66898e-05 0)
(-0.00790757 6.48154e-05 0)
(-0.00813245 6.29153e-05 0)
(-0.00835078 6.09985e-05 0)
(-0.00856252 5.90731e-05 0)
(-0.00876762 5.71464e-05 0)
(-0.00896607 5.52253e-05 0)
(-0.0091579 5.33156e-05 0)
(-0.00934315 5.14227e-05 0)
(-0.00952185 4.95512e-05 0)
(-0.00969409 4.77052e-05 0)
(-0.00985994 4.58884e-05 0)
(-0.0100195 4.41037e-05 0)
(-0.0101729 4.23536e-05 0)
(-0.0103202 4.06402e-05 0)
(-0.0104616 3.89651e-05 0)
(-0.0105971 3.73294e-05 0)
(-0.010727 3.57339e-05 0)
(-0.0108513 3.41791e-05 0)
(-0.0109701 3.2665e-05 0)
(-0.0110837 3.11914e-05 0)
(-0.0111921 2.97578e-05 0)
(-0.0112955 2.83632e-05 0)
(-0.011394 2.70069e-05 0)
(-0.0114877 2.56873e-05 0)
(-0.0115768 2.4403e-05 0)
(-0.0116613 2.3152e-05 0)
(-0.0117415 2.19327e-05 0)
(-0.0118172 2.07429e-05 0)
(-0.0118888 1.95806e-05 0)
(-0.0119562 1.84431e-05 0)
(-0.0120196 1.73279e-05 0)
(-0.0120789 1.62322e-05 0)
(-0.0121344 1.51532e-05 0)
(-0.0121859 1.40882e-05 0)
(-0.0122336 1.30341e-05 0)
(-0.0122775 1.19879e-05 0)
(-0.0123176 1.09463e-05 0)
(-0.012354 9.90597e-06 0)
(-0.0123865 8.86373e-06 0)
(-0.0124153 7.81622e-06 0)
(-0.0124402 6.76003e-06 0)
(-0.0124613 5.69166e-06 0)
(-0.0124785 4.60758e-06 0)
(-0.0124917 3.5043e-06 0)
(-0.0125009 2.37835e-06 0)
(-0.0125059 1.22623e-06 0)
(-0.0125067 4.44111e-08 0)
(-0.0125033 -1.17065e-06 0)
(-0.0124953 -2.42239e-06 0)
(-0.0124828 -3.71415e-06 0)
(-0.0124656 -5.04915e-06 0)
(-0.0124435 -6.43057e-06 0)
(-0.0124163 -7.86156e-06 0)
(-0.012384 -9.34516e-06 0)
(-0.0123462 -1.08842e-05 0)
(-0.0123029 -1.24814e-05 0)
(-0.0122538 -1.4139e-05 0)
(-0.0121987 -1.58593e-05 0)
(-0.0121374 -1.76442e-05 0)
(-0.0120697 -1.94954e-05 0)
(-0.0119953 -2.14143e-05 0)
(-0.0119141 -2.3402e-05 0)
(-0.0118257 -2.54589e-05 0)
(-0.01173 -2.75852e-05 0)
(-0.0116268 -2.97807e-05 0)
(-0.0115157 -3.20444e-05 0)
(-0.0113966 -3.43751e-05 0)
(-0.0112694 -3.67709e-05 0)
(-0.0111336 -3.92291e-05 0)
(-0.0109893 -4.17465e-05 0)
(-0.0108361 -4.43191e-05 0)
(-0.010674 -4.69422e-05 0)
(-0.0105027 -4.96102e-05 0)
(-0.0103222 -5.23168e-05 0)
(-0.0101323 -5.50548e-05 0)
(-0.00993295 -5.78158e-05 0)
(-0.00972415 -6.05908e-05 0)
(-0.00950585 -6.33697e-05 0)
(-0.00927809 -6.61415e-05 0)
(-0.00904092 -6.88939e-05 0)
(-0.00879446 -7.16137e-05 0)
(-0.00853887 -7.42868e-05 0)
(-0.00827434 -7.68979e-05 0)
(-0.00800114 -7.94308e-05 0)
(-0.00771959 -8.1868e-05 0)
(-0.00743005 -8.41912e-05 0)
(-0.00713298 -8.63811e-05 0)
(-0.00682889 -8.84175e-05 0)
(-0.00651834 -9.02791e-05 0)
(-0.00620199 -9.19438e-05 0)
(-0.00588056 -9.33889e-05 0)
(-0.00555486 -9.45909e-05 0)
(-0.00522576 -9.55255e-05 0)
(-0.00489423 -9.61681e-05 0)
(-0.0045613 -9.64934e-05 0)
(-0.00422811 -9.64757e-05 0)
(-0.00389586 -9.60893e-05 0)
(-0.00356583 -9.53082e-05 0)
(-0.0032394 -9.41063e-05 0)
(-0.00291802 -9.24576e-05 0)
(-0.00260322 -9.03362e-05 0)
(-0.00229661 -8.77169e-05 0)
(-0.00199985 -8.45747e-05 0)
(-0.0017147 -8.08854e-05 0)
(-0.00144296 -7.6626e-05 0)
(-0.00118648 -7.1775e-05 0)
(-0.000947157 -6.63131e-05 0)
(-0.000726908 -6.02242e-05 0)
(-0.000527654 -5.34967e-05 0)
(-0.00035129 -4.61264e-05 0)
(-0.000199638 -3.81217e-05 0)
(-7.43898e-05 -2.95108e-05 0)
(2.29969e-05 -2.03578e-05 0)
(9.14483e-05 -1.0791e-05 0)
(0.000130535 -1.06108e-06 0)
(0.000140891 8.35311e-06 0)
(0.00012483 1.65477e-05 0)
(8.77164e-05 2.179e-05 0)
(4.20439e-05 2.08597e-05 0)
(9.63401e-06 9.6314e-06 0)
(1.85536e-05 -3.71002e-05 0)
(7.03549e-05 -7.03028e-05 0)
(0.000132061 -6.77597e-05 0)
(0.000170167 -4.20914e-05 0)
(0.000163394 -3.1563e-06 0)
(0.000100309 4.27149e-05 0)
(-2.53556e-05 9.15512e-05 0)
(-0.000216338 0.000140872 0)
(-0.000472849 0.00018913 0)
(-0.000793381 0.000235365 0)
(-0.00117529 0.000278987 0)
(-0.00161519 0.000319638 0)
(-0.00210921 0.000357124 0)
(-0.00265319 0.000391354 0)
(-0.00324282 0.000422312 0)
(-0.00387375 0.000450033 0)
(-0.00454164 0.000474587 0)
(-0.00524224 0.000496073 0)
(-0.00597139 0.000514606 0)
(-0.00672508 0.000530315 0)
(-0.00749949 0.000543337 0)
(-0.00829093 0.000553818 0)
(-0.00909594 0.000561902 0)
(-0.00991123 0.000567739 0)
(-0.0107337 0.000571477 0)
(-0.0115605 0.000573263 0)
(-0.0123889 0.000573241 0)
(-0.0132165 0.000571552 0)
(-0.0140408 0.000568334 0)
(-0.01486 0.000563722 0)
(-0.0156719 0.000557843 0)
(-0.0164748 0.000550822 0)
(-0.0172673 0.000542776 0)
(-0.0180478 0.000533819 0)
(-0.0188151 0.000524057 0)
(-0.0195681 0.000513592 0)
(-0.0203059 0.00050252 0)
(-0.0210275 0.00049093 0)
(-0.0217324 0.000478908 0)
(-0.0224198 0.000466531 0)
(-0.0230893 0.000453871 0)
(-0.0237406 0.000440998 0)
(-0.0243733 0.000427972 0)
(-0.0249872 0.000414851 0)
(-0.0255822 0.000401686 0)
(-0.0261583 0.000388526 0)
(-0.0267154 0.000375412 0)
(-0.0272537 0.000362382 0)
(-0.0277732 0.00034947 0)
(-0.0282742 0.000336706 0)
(-0.0287569 0.000324116 0)
(-0.0292214 0.000311722 0)
(-0.0296681 0.000299543 0)
(-0.0300973 0.000287593 0)
(-0.0305094 0.000275887 0)
(-0.0309045 0.000264432 0)
(-0.0312832 0.000253236 0)
(-0.0316458 0.000242303 0)
(-0.0319926 0.000231634 0)
(-0.032324 0.000221229 0)
(-0.0326404 0.000211086 0)
(-0.0329421 0.000201199 0)
(-0.0332295 0.000191563 0)
(-0.033503 0.000182169 0)
(-0.0337629 0.000173008 0)
(-0.0340095 0.000164068 0)
(-0.0342431 0.000155338 0)
(-0.034464 0.000146802 0)
(-0.0346724 0.000138448 0)
(-0.0348687 0.000130257 0)
(-0.035053 0.000122214 0)
(-0.0352255 0.0001143 0)
(-0.0353864 0.000106497 0)
(-0.0355359 9.87843e-05 0)
(-0.035674 9.11429e-05 0)
(-0.0358008 8.35517e-05 0)
(-0.0359164 7.5989e-05 0)
(-0.0360208 6.84329e-05 0)
(-0.036114 6.0861e-05 0)
(-0.036196 5.32507e-05 0)
(-0.0362667 4.55791e-05 0)
(-0.036326 3.78227e-05 0)
(-0.0363736 2.99581e-05 0)
(-0.0364096 2.19615e-05 0)
(-0.0364336 1.38096e-05 0)
(-0.0364455 5.47869e-06 0)
(-0.0364449 -3.05437e-06 0)
(-0.0364315 -1.18127e-05 0)
(-0.0364051 -2.08191e-05 0)
(-0.0363652 -3.00959e-05 0)
(-0.0363114 -3.96648e-05 0)
(-0.0362433 -4.95469e-05 0)
(-0.0361605 -5.97624e-05 0)
(-0.0360624 -7.03307e-05 0)
(-0.0359486 -8.12698e-05 0)
(-0.0358184 -9.25965e-05 0)
(-0.0356714 -0.000104326 0)
(-0.0355069 -0.000116472 0)
(-0.0353244 -0.000129047 0)
(-0.0351233 -0.00014206 0)
(-0.0349029 -0.000155519 0)
(-0.0346625 -0.000169429 0)
(-0.0344016 -0.000183793 0)
(-0.0341196 -0.000198608 0)
(-0.0338157 -0.000213873 0)
(-0.0334894 -0.000229578 0)
(-0.03314 -0.000245713 0)
(-0.032767 -0.000262263 0)
(-0.0323699 -0.000279208 0)
(-0.031948 -0.000296524 0)
(-0.0315009 -0.000314181 0)
(-0.0310282 -0.000332146 0)
(-0.0305294 -0.000350379 0)
(-0.0300043 -0.000368835 0)
(-0.0294525 -0.000387463 0)
(-0.028874 -0.000406205 0)
(-0.0282686 -0.000424998 0)
(-0.0276363 -0.000443773 0)
(-0.0269773 -0.000462452 0)
(-0.0262917 -0.000480953 0)
(-0.02558 -0.000499185 0)
(-0.0248425 -0.000517053 0)
(-0.02408 -0.000534453 0)
(-0.0232933 -0.000551274 0)
(-0.0224831 -0.000567401 0)
(-0.0216508 -0.000582711 0)
(-0.0207975 -0.000597073 0)
(-0.0199247 -0.000610355 0)
(-0.0190342 -0.000622416 0)
(-0.0181277 -0.000633109 0)
(-0.0172074 -0.000642287 0)
(-0.0162756 -0.000649795 0)
(-0.0153347 -0.000655477 0)
(-0.0143875 -0.000659174 0)
(-0.0134369 -0.000660723 0)
(-0.0124862 -0.000659965 0)
(-0.0115387 -0.000656735 0)
(-0.010598 -0.000650876 0)
(-0.00966802 -0.000642227 0)
(-0.00875272 -0.000630634 0)
(-0.00785637 -0.000615949 0)
(-0.0069834 -0.00059803 0)
(-0.00613839 -0.000576745 0)
(-0.00532612 -0.000551974 0)
(-0.00455144 -0.000523614 0)
(-0.00381932 -0.000491585 0)
(-0.00313477 -0.000455836 0)
(-0.0025028 -0.000416353 0)
(-0.0019283 -0.00037318 0)
(-0.00141599 -0.000326437 0)
(-0.000970239 -0.000276356 0)
(-0.000594867 -0.000223339 0)
(-0.000292854 -0.000168038 0)
(-6.59187e-05 -0.00011151 0)
(8.61154e-05 -5.5448e-05 0)
(0.000166217 -2.58622e-06 0)
(0.000181274 4.26725e-05 0)
(0.000143953 7.32382e-05 0)
(7.79728e-05 7.7937e-05 0)
(2.08622e-05 4.20283e-05 0)
(1.98064e-05 -7.86407e-05 0)
(6.81112e-05 -0.000132097 0)
(0.000111211 -0.000110675 0)
(0.000110406 -3.94638e-05 0)
(4.04357e-05 6.29597e-05 0)
(-0.000113558 0.000183373 0)
(-0.000360473 0.000312632 0)
(-0.000704711 0.000444527 0)
(-0.00114721 0.00057488 0)
(-0.00168642 0.000700896 0)
(-0.00231899 0.000820728 0)
(-0.00304034 0.000933178 0)
(-0.00384504 0.00103751 0)
(-0.00472712 0.0011333 0)
(-0.00568024 0.00122037 0)
(-0.00669793 0.0012987 0)
(-0.00777367 0.0013684 0)
(-0.00890098 0.00142966 0)
(-0.0100735 0.00148274 0)
(-0.0112851 0.00152795 0)
(-0.0125298 0.00156564 0)
(-0.0138018 0.00159617 0)
(-0.0150958 0.00161994 0)
(-0.0164065 0.00163734 0)
(-0.0177292 0.00164876 0)
(-0.0190592 0.00165461 0)
(-0.0203922 0.00165528 0)
(-0.0217244 0.00165117 0)
(-0.023052 0.00164266 0)
(-0.0243716 0.00163011 0)
(-0.0256802 0.0016139 0)
(-0.026975 0.00159436 0)
(-0.0282533 0.00157184 0)
(-0.0295129 0.00154666 0)
(-0.0307519 0.00151911 0)
(-0.0319682 0.0014895 0)
(-0.0331604 0.00145808 0)
(-0.0343271 0.00142513 0)
(-0.0354671 0.00139087 0)
(-0.0365795 0.00135554 0)
(-0.0376633 0.00131935 0)
(-0.038718 0.00128249 0)
(-0.039743 0.00124515 0)
(-0.040738 0.00120748 0)
(-0.0417028 0.00116964 0)
(-0.0426372 0.00113177 0)
(-0.0435412 0.00109399 0)
(-0.0444149 0.00105641 0)
(-0.0452585 0.00101913 0)
(-0.0460723 0.000982241 0)
(-0.0468564 0.000945817 0)
(-0.0476114 0.000909925 0)
(-0.0483376 0.000874619 0)
(-0.0490356 0.000839947 0)
(-0.0497057 0.000805946 0)
(-0.0503486 0.000772646 0)
(-0.0509647 0.000740066 0)
(-0.0515547 0.000708221 0)
(-0.0521191 0.000677118 0)
(-0.0526585 0.000646755 0)
(-0.0531735 0.000617128 0)
(-0.0536646 0.000588225 0)
(-0.0541325 0.000560027 0)
(-0.0545776 0.000532513 0)
(-0.0550005 0.000505657 0)
(-0.0554017 0.000479427 0)
(-0.0557817 0.000453787 0)
(-0.0561408 0.0004287 0)
(-0.0564796 0.000404123 0)
(-0.0567985 0.000380011 0)
(-0.0570977 0.000356315 0)
(-0.0573776 0.000332984 0)
(-0.0576384 0.000309966 0)
(-0.0578804 0.000287204 0)
(-0.0581037 0.000264641 0)
(-0.0583085 0.000242217 0)
(-0.0584948 0.000219871 0)
(-0.0586628 0.00019754 0)
(-0.0588123 0.000175161 0)
(-0.0589434 0.000152669 0)
(-0.0590558 0.000129998 0)
(-0.0591494 0.000107081 0)
(-0.0592241 8.38524e-05 0)
(-0.0592795 6.02443e-05 0)
(-0.0593152 3.61898e-05 0)
(-0.059331 1.16221e-05 0)
(-0.0593263 -1.35251e-05 0)
(-0.0593007 -3.93173e-05 0)
(-0.0592537 -6.58189e-05 0)
(-0.0591846 -9.30929e-05 0)
(-0.0590928 -0.000121201 0)
(-0.0589776 -0.000150202 0)
(-0.0588384 -0.000180153 0)
(-0.0586743 -0.000211107 0)
(-0.0584845 -0.000243115 0)
(-0.0582681 -0.000276224 0)
(-0.0580243 -0.000310476 0)
(-0.0577522 -0.000345909 0)
(-0.0574508 -0.000382554 0)
(-0.0571192 -0.000420438 0)
(-0.0567563 -0.00045958 0)
(-0.0563612 -0.000499992 0)
(-0.0559329 -0.000541678 0)
(-0.0554703 -0.000584634 0)
(-0.0549726 -0.000628846 0)
(-0.0544387 -0.000674289 0)
(-0.0538678 -0.00072093 0)
(-0.0532588 -0.000768722 0)
(-0.0526109 -0.000817605 0)
(-0.0519233 -0.000867508 0)
(-0.0511954 -0.000918344 0)
(-0.0504263 -0.000970014 0)
(-0.0496155 -0.0010224 0)
(-0.0487626 -0.00107537 0)
(-0.0478672 -0.00112878 0)
(-0.046929 -0.00118246 0)
(-0.045948 -0.00123623 0)
(-0.0449242 -0.00128989 0)
(-0.0438578 -0.00134321 0)
(-0.0427492 -0.00139595 0)
(-0.0415991 -0.00144787 0)
(-0.0404082 -0.00149868 0)
(-0.0391777 -0.00154808 0)
(-0.0379088 -0.00159577 0)
(-0.036603 -0.00164141 0)
(-0.0352622 -0.00168465 0)
(-0.0338884 -0.00172514 0)
(-0.0324841 -0.00176247 0)
(-0.0310519 -0.00179627 0)
(-0.0295949 -0.00182611 0)
(-0.0281164 -0.00185159 0)
(-0.02662 -0.00187227 0)
(-0.0251098 -0.0018877 0)
(-0.0235902 -0.00189746 0)
(-0.0220657 -0.00190109 0)
(-0.0205414 -0.00189814 0)
(-0.0190227 -0.00188817 0)
(-0.0175154 -0.00187075 0)
(-0.0160253 -0.00184544 0)
(-0.0145589 -0.00181185 0)
(-0.0131228 -0.00176957 0)
(-0.0117238 -0.00171824 0)
(-0.0103692 -0.00165754 0)
(-0.00906613 -0.0015872 0)
(-0.00782215 -0.00150697 0)
(-0.0066448 -0.00141673 0)
(-0.00554163 -0.00131643 0)
(-0.00452009 -0.00120615 0)
(-0.00358738 -0.00108618 0)
(-0.00275032 -0.000957023 0)
(-0.00201503 -0.000819548 0)
(-0.00138671 -0.000675107 0)
(-0.000869115 -0.000525759 0)
(-0.000464039 -0.000374593 0)
(-0.000170484 -0.00022622 0)
(1.6379e-05 -8.75154e-05 0)
(0.000106392 3.13425e-05 0)
(0.000116075 0.000115529 0)
(7.35385e-05 0.000143992 0)
(2.18459e-05 8.77456e-05 0)
(1.55806e-05 -0.000113675 0)
(4.29227e-05 -0.000170673 0)
(4.08933e-05 -0.000110076 0)
(-2.81208e-05 2.97243e-05 0)
(-0.000189821 0.000221189 0)
(-0.000460396 0.000443882 0)
(-0.000849918 0.000682934 0)
(-0.00136362 0.000927753 0)
(-0.00200286 0.00117087 0)
(-0.00276607 0.00140706 0)
(-0.00364945 0.00163271 0)
(-0.0046476 0.00184538 0)
(-0.00575396 0.00204349 0)
(-0.00696116 0.00222605 0)
(-0.00826135 0.00239255 0)
(-0.00964635 0.00254281 0)
(-0.0111079 0.00267692 0)
(-0.0126376 0.00279515 0)
(-0.0142273 0.0028979 0)
(-0.015869 0.00298571 0)
(-0.0175549 0.00305916 0)
(-0.0192775 0.00311892 0)
(-0.0210297 0.00316569 0)
(-0.0228045 0.00320019 0)
(-0.0245957 0.00322316 0)
(-0.0263971 0.00323534 0)
(-0.0282029 0.00323749 0)
(-0.030008 0.00323034 0)
(-0.0318074 0.00321461 0)
(-0.0335965 0.00319103 0)
(-0.0353711 0.00316026 0)
(-0.0371275 0.003123 0)
(-0.0388623 0.00307986 0)
(-0.0405722 0.00303149 0)
(-0.0422546 0.00297845 0)
(-0.0439069 0.00292131 0)
(-0.045527 0.0028606 0)
(-0.0471129 0.00279683 0)
(-0.0486631 0.00273045 0)
(-0.0501762 0.00266192 0)
(-0.0516509 0.00259163 0)
(-0.0530866 0.00251998 0)
(-0.0544823 0.00244732 0)
(-0.0558375 0.00237396 0)
(-0.057152 0.0023002 0)
(-0.0584255 0.00222632 0)
(-0.059658 0.00215256 0)
(-0.0608495 0.00207914 0)
(-0.0620002 0.00200625 0)
(-0.0631105 0.00193408 0)
(-0.0641808 0.00186276 0)
(-0.0652114 0.00179244 0)
(-0.066203 0.00172322 0)
(-0.0671561 0.00165519 0)
(-0.0680714 0.00158844 0)
(-0.0689496 0.00152302 0)
(-0.0697915 0.00145897 0)
(-0.0705977 0.00139632 0)
(-0.071369 0.0013351 0)
(-0.0721062 0.00127529 0)
(-0.07281 0.00121689 0)
(-0.0734812 0.00115988 0)
(-0.0741206 0.00110423 0)
(-0.0747288 0.0010499 0)
(-0.0753066 0.000996823 0)
(-0.0758546 0.000944955 0)
(-0.0763734 0.000894225 0)
(-0.0768638 0.000844558 0)
(-0.0773261 0.000795874 0)
(-0.077761 0.000748084 0)
(-0.0781689 0.000701095 0)
(-0.0785501 0.00065481 0)
(-0.0789052 0.000609125 0)
(-0.0792342 0.000563931 0)
(-0.0795376 0.000519118 0)
(-0.0798154 0.000474571 0)
(-0.0800677 0.000430169 0)
(-0.0802947 0.000385794 0)
(-0.0804962 0.00034132 0)
(-0.0806723 0.000296622 0)
(-0.0808226 0.000251573 0)
(-0.0809471 0.000206044 0)
(-0.0810454 0.000159906 0)
(-0.081117 0.000113029 0)
(-0.0811617 6.52831e-05 0)
(-0.0811788 1.65401e-05 0)
(-0.0811678 -3.33283e-05 0)
(-0.0811281 -8.44486e-05 0)
(-0.0810588 -0.000136945 0)
(-0.0809593 -0.000190938 0)
(-0.0808286 -0.000246547 0)
(-0.0806659 -0.000303884 0)
(-0.0804701 -0.000363058 0)
(-0.0802403 -0.000424172 0)
(-0.0799754 -0.000487321 0)
(-0.0796742 -0.000552595 0)
(-0.0793355 -0.000620074 0)
(-0.0789581 -0.000689826 0)
(-0.0785409 -0.000761913 0)
(-0.0780824 -0.000836382 0)
(-0.0775815 -0.000913268 0)
(-0.0770367 -0.000992591 0)
(-0.0764468 -0.00107436 0)
(-0.0758105 -0.00115855 0)
(-0.0751265 -0.00124514 0)
(-0.0743934 -0.00133409 0)
(-0.0736102 -0.00142531 0)
(-0.0727755 -0.00151872 0)
(-0.0718883 -0.00161419 0)
(-0.0709475 -0.00171159 0)
(-0.0699521 -0.00181073 0)
(-0.0689014 -0.00191144 0)
(-0.0677945 -0.00201346 0)
(-0.0666309 -0.00211656 0)
(-0.0654101 -0.00222042 0)
(-0.0641318 -0.00232474 0)
(-0.062796 -0.00242915 0)
(-0.0614029 -0.00253326 0)
(-0.0599526 -0.00263664 0)
(-0.0584459 -0.00273882 0)
(-0.0568837 -0.0028393 0)
(-0.0552669 -0.00293756 0)
(-0.0535972 -0.00303301 0)
(-0.0518763 -0.00312505 0)
(-0.0501063 -0.00321303 0)
(-0.0482897 -0.00329629 0)
(-0.0464294 -0.00337412 0)
(-0.0445285 -0.00344578 0)
(-0.0425907 -0.00351052 0)
(-0.0406201 -0.00356754 0)
(-0.0386211 -0.00361605 0)
(-0.0365987 -0.00365523 0)
(-0.0345583 -0.00368423 0)
(-0.0325057 -0.00370221 0)
(-0.030447 -0.00370834 0)
(-0.0283891 -0.00370176 0)
(-0.026339 -0.00368165 0)
(-0.0243043 -0.00364718 0)
(-0.0222929 -0.00359758 0)
(-0.0203133 -0.00353208 0)
(-0.0183741 -0.00344999 0)
(-0.0164843 -0.00335066 0)
(-0.0146532 -0.00323353 0)
(-0.0128904 -0.00309813 0)
(-0.0112054 -0.00294415 0)
(-0.00960798 -0.0027714 0)
(-0.00810775 -0.00257994 0)
(-0.00671411 -0.00237009 0)
(-0.00543608 -0.00214256 0)
(-0.004282 -0.00189852 0)
(-0.00325934 -0.00163983 0)
(-0.00237418 -0.00136926 0)
(-0.00163081 -0.00109084 0)
(-0.00103103 -0.000810378 0)
(-0.00057337 -0.000536141 0)
(-0.000252039 -0.000279882 0)
(-5.58606e-05 -5.81632e-05 0)
(3.31816e-05 0.000106116 0)
(4.35611e-05 0.000181848 0)
(1.67342e-05 0.000125132 0)
(8.69522e-06 -0.000131049 0)
(4.48981e-06 -0.000164811 0)
(-6.0745e-05 -4.06944e-05 0)
(-0.000218726 0.000191259 0)
(-0.000492954 0.0004952 0)
(-0.000899412 0.000843884 0)
(-0.00144816 0.00121685 0)
(-0.00214446 0.00159903 0)
(-0.00298962 0.00197942 0)
(-0.00398186 0.00235007 0)
(-0.00511695 0.0027053 0)
(-0.00638883 0.00304116 0)
(-0.00779004 0.00335494 0)
(-0.00931214 0.00364492 0)
(-0.010946 0.0039101 0)
(-0.0126822 0.00415003 0)
(-0.0145108 0.00436469 0)
(-0.0164221 0.00455437 0)
(-0.0184063 0.00471962 0)
(-0.0204538 0.00486118 0)
(-0.0225554 0.00497992 0)
(-0.0247018 0.00507682 0)
(-0.0268846 0.00515294 0)
(-0.0290954 0.0052094 0)
(-0.0313264 0.00524733 0)
(-0.0335701 0.0052679 0)
(-0.0358195 0.00527227 0)
(-0.0380683 0.00526162 0)
(-0.0403102 0.00523709 0)
(-0.0425398 0.0051998 0)
(-0.0447518 0.00515086 0)
(-0.0469416 0.00509133 0)
(-0.0491049 0.00502224 0)
(-0.0512377 0.00494457 0)
(-0.0533367 0.00485928 0)
(-0.0553988 0.00476726 0)
(-0.0574211 0.00466936 0)
(-0.0594014 0.00456641 0)
(-0.0613375 0.00445915 0)
(-0.0632278 0.00434829 0)
(-0.0650708 0.00423452 0)
(-0.0668653 0.00411843 0)
(-0.0686104 0.00400061 0)
(-0.0703053 0.00388158 0)
(-0.0719497 0.00376184 0)
(-0.0735432 0.0036418 0)
(-0.0750857 0.00352189 0)
(-0.0765773 0.00340246 0)
(-0.0780182 0.00328382 0)
(-0.0794087 0.00316627 0)
(-0.0807493 0.00305005 0)
(-0.0820406 0.00293539 0)
(-0.0832832 0.00282245 0)
(-0.0844777 0.00271141 0)
(-0.0856251 0.00260238 0)
(-0.086726 0.00249547 0)
(-0.0877815 0.00239075 0)
(-0.0887924 0.00228826 0)
(-0.0897595 0.00218803 0)
(-0.0906839 0.00209008 0)
(-0.0915665 0.00199438 0)
(-0.0924081 0.0019009 0)
(-0.0932097 0.0018096 0)
(-0.0939722 0.00172041 0)
(-0.0946965 0.00163325 0)
(-0.0953832 0.00154802 0)
(-0.0960333 0.00146462 0)
(-0.0966475 0.00138292 0)
(-0.0972263 0.0013028 0)
(-0.0977705 0.00122412 0)
(-0.0982807 0.00114673 0)
(-0.0987572 0.00107046 0)
(-0.0992006 0.000995157 0)
(-0.0996112 0.00092064 0)
(-0.0999893 0.000846732 0)
(-0.100335 0.000773247 0)
(-0.100649 0.000699992 0)
(-0.10093 0.000626772 0)
(-0.10118 0.000553388 0)
(-0.101397 0.000479637 0)
(-0.101581 0.000405314 0)
(-0.101733 0.000330211 0)
(-0.101852 0.00025412 0)
(-0.101937 0.000176831 0)
(-0.101988 9.81366e-05 0)
(-0.102005 1.78285e-05 0)
(-0.101985 -6.42991e-05 0)
(-0.10193 -0.000148449 0)
(-0.101837 -0.000234821 0)
(-0.101706 -0.000323609 0)
(-0.101536 -0.000415001 0)
(-0.101326 -0.00050918 0)
(-0.101074 -0.000606319 0)
(-0.10078 -0.00070658 0)
(-0.100441 -0.000810118 0)
(-0.100057 -0.000917071 0)
(-0.0996259 -0.00102757 0)
(-0.0991464 -0.00114172 0)
(-0.098617 -0.00125961 0)
(-0.0980361 -0.00138132 0)
(-0.0974021 -0.00150691 0)
(-0.0967134 -0.00163639 0)
(-0.0959685 -0.00176978 0)
(-0.0951657 -0.00190704 0)
(-0.0943035 -0.00204814 0)
(-0.0933804 -0.00219297 0)
(-0.0923948 -0.00234143 0)
(-0.0913453 -0.00249334 0)
(-0.0902306 -0.00264853 0)
(-0.0890494 -0.00280675 0)
(-0.0878006 -0.00296772 0)
(-0.0864831 -0.00313111 0)
(-0.0850962 -0.00329656 0)
(-0.0836391 -0.00346364 0)
(-0.0821113 -0.00363187 0)
(-0.0805125 -0.00380073 0)
(-0.0788427 -0.00396964 0)
(-0.0771021 -0.00413795 0)
(-0.0752912 -0.00430497 0)
(-0.0734107 -0.00446995 0)
(-0.0714618 -0.00463208 0)
(-0.0694459 -0.0047905 0)
(-0.067365 -0.00494428 0)
(-0.0652211 -0.00509245 0)
(-0.063017 -0.00523397 0)
(-0.0607557 -0.00536776 0)
(-0.0584408 -0.00549269 0)
(-0.0560764 -0.00560758 0)
(-0.0536668 -0.00571121 0)
(-0.0512172 -0.00580234 0)
(-0.0487331 -0.00587967 0)
(-0.0462204 -0.00594189 0)
(-0.0436859 -0.00598769 0)
(-0.0411367 -0.00601572 0)
(-0.0385803 -0.00602465 0)
(-0.036025 -0.00601315 0)
(-0.0334795 -0.00597992 0)
(-0.0309529 -0.00592369 0)
(-0.028455 -0.00584324 0)
(-0.0259958 -0.00573741 0)
(-0.0235859 -0.00560514 0)
(-0.0212361 -0.00544548 0)
(-0.0189576 -0.00525761 0)
(-0.0167617 -0.00504091 0)
(-0.0146599 -0.00479496 0)
(-0.0126636 -0.00451965 0)
(-0.0107843 -0.0042152 0)
(-0.00903284 -0.00388233 0)
(-0.00741969 -0.00352234 0)
(-0.00595447 -0.00313732 0)
(-0.00464563 -0.0027304 0)
(-0.00350002 -0.00230609 0)
(-0.00252242 -0.00187075 0)
(-0.00171484 -0.00143324 0)
(-0.00107582 -0.00100576 0)
(-0.000599546 -0.000605045 0)
(-0.000274823 -0.000253877 0)
(-8.38822e-05 1.72786e-05 0)
(-8.52393e-07 0.000168104 0)
(8.73825e-06 0.000141868 0)
(6.66833e-07 -0.000125847 0)
(-4.1062e-05 -0.000102883 0)
(-0.000181031 0.000112743 0)
(-0.00044199 0.000461984 0)
(-0.00084334 0.000901878 0)
(-0.00139965 0.0013991 0)
(-0.00212002 0.00192803 0)
(-0.00300898 0.0024693 0)
(-0.00406731 0.00300839 0)
(-0.00529274 0.00353453 0)
(-0.00668048 0.00403983 0)
(-0.00822379 0.00451862 0)
(-0.00991445 0.00496696 0)
(-0.0117431 0.00538219 0)
(-0.0136995 0.00576272 0)
(-0.0157732 0.00610772 0)
(-0.017953 0.00641699 0)
(-0.0202279 0.0066908 0)
(-0.0225869 0.00692979 0)
(-0.0250189 0.00713491 0)
(-0.0275134 0.00730732 0)
(-0.0300599 0.00744832 0)
(-0.0326486 0.00755939 0)
(-0.0352697 0.00764206 0)
(-0.0379143 0.00769792 0)
(-0.0405738 0.00772862 0)
(-0.04324 0.0077358 0)
(-0.0459054 0.00772113 0)
(-0.0485628 0.00768623 0)
(-0.0512058 0.00763272 0)
(-0.0538283 0.00756218 0)
(-0.0564248 0.00747613 0)
(-0.0589902 0.00737607 0)
(-0.0615199 0.00726341 0)
(-0.06401 0.00713954 0)
(-0.0664566 0.00700575 0)
(-0.0688566 0.00686328 0)
(-0.0712072 0.00671332 0)
(-0.0735058 0.00655696 0)
(-0.0757505 0.00639526 0)
(-0.0779394 0.00622917 0)
(-0.0800712 0.0060596 0)
(-0.0821447 0.0058874 0)
(-0.0841591 0.00571333 0)
(-0.0861137 0.00553811 0)
(-0.0880082 0.00536237 0)
(-0.0898425 0.00518672 0)
(-0.0916165 0.00501168 0)
(-0.0933306 0.00483772 0)
(-0.0949849 0.00466526 0)
(-0.0965802 0.00449467 0)
(-0.0981169 0.00432628 0)
(-0.0995959 0.00416036 0)
(-0.101018 0.00399713 0)
(-0.102384 0.00383678 0)
(-0.103695 0.00367947 0)
(-0.104951 0.00352531 0)
(-0.106155 0.00337436 0)
(-0.107307 0.00322667 0)
(-0.108408 0.00308226 0)
(-0.109459 0.00294111 0)
(-0.110461 0.00280318 0)
(-0.111415 0.00266838 0)
(-0.112323 0.00253664 0)
(-0.113185 0.00240783 0)
(-0.114002 0.00228182 0)
(-0.114775 0.00215846 0)
(-0.115506 0.00203757 0)
(-0.116194 0.00191897 0)
(-0.116841 0.00180244 0)
(-0.117447 0.00168778 0)
(-0.118012 0.00157476 0)
(-0.118538 0.00146312 0)
(-0.119025 0.00135263 0)
(-0.119472 0.00124301 0)
(-0.119881 0.001134 0)
(-0.120251 0.00102532 0)
(-0.120583 0.000916678 0)
(-0.120876 0.000807796 0)
(-0.12113 0.000698374 0)
(-0.121346 0.000588113 0)
(-0.121522 0.000476713 0)
(-0.121658 0.000363869 0)
(-0.121754 0.00024928 0)
(-0.121809 0.000132641 0)
(-0.121823 1.36518e-05 0)
(-0.121794 -0.000107986 0)
(-0.121722 -0.000232567 0)
(-0.121605 -0.000360379 0)
(-0.121442 -0.000491703 0)
(-0.121233 -0.000626811 0)
(-0.120976 -0.000765966 0)
(-0.120669 -0.000909417 0)
(-0.120311 -0.0010574 0)
(-0.119901 -0.00121013 0)
(-0.119436 -0.00136781 0)
(-0.118916 -0.00153063 0)
(-0.118338 -0.00169873 0)
(-0.117701 -0.00187225 0)
(-0.117002 -0.00205129 0)
(-0.116241 -0.00223592 0)
(-0.115415 -0.00242618 0)
(-0.114522 -0.00262206 0)
(-0.11356 -0.00282354 0)
(-0.112529 -0.00303052 0)
(-0.111425 -0.00324287 0)
(-0.110247 -0.00346042 0)
(-0.108995 -0.00368293 0)
(-0.107665 -0.0039101 0)
(-0.106256 -0.0041416 0)
(-0.104768 -0.004377 0)
(-0.103199 -0.00461583 0)
(-0.101549 -0.00485753 0)
(-0.0998154 -0.0051015 0)
(-0.097999 -0.00534702 0)
(-0.0960992 -0.00559333 0)
(-0.0941159 -0.00583958 0)
(-0.0920496 -0.00608484 0)
(-0.0899007 -0.0063281 0)
(-0.0876702 -0.00656825 0)
(-0.0853595 -0.00680413 0)
(-0.0829704 -0.00703447 0)
(-0.080505 -0.00725793 0)
(-0.0779661 -0.00747311 0)
(-0.0753567 -0.00767849 0)
(-0.0726804 -0.00787251 0)
(-0.0699415 -0.00805354 0)
(-0.0671447 -0.00821988 0)
(-0.0642953 -0.00836977 0)
(-0.0613991 -0.0085014 0)
(-0.0584627 -0.00861292 0)
(-0.055493 -0.00870246 0)
(-0.0524978 -0.00876812 0)
(-0.0494854 -0.00880798 0)
(-0.0464647 -0.00882014 0)
(-0.0434452 -0.00880272 0)
(-0.040437 -0.00875387 0)
(-0.0374506 -0.0086718 0)
(-0.0344973 -0.00855482 0)
(-0.0315887 -0.00840133 0)
(-0.0287368 -0.00820987 0)
(-0.0259542 -0.00797915 0)
(-0.0232536 -0.00770813 0)
(-0.0206479 -0.00739601 0)
(-0.0181501 -0.00704235 0)
(-0.0157732 -0.00664715 0)
(-0.0135299 -0.00621092 0)
(-0.0114326 -0.00573488 0)
(-0.00949283 -0.0052211 0)
(-0.00772131 -0.00467275 0)
(-0.00612737 -0.00409443 0)
(-0.00471862 -0.0034926 0)
(-0.00350044 -0.00287613 0)
(-0.00247538 -0.00225703 0)
(-0.00164255 -0.00165144 0)
(-0.000996902 -0.00108087 0)
(-0.000528337 -0.000573804 0)
(-0.000220674 -0.000167398 0)
(-5.27529e-05 9.02536e-05 0)
(-4.34721e-07 0.000132707 0)
(-7.72417e-06 -9.5781e-05 0)
(-8.99884e-05 2.18508e-05 0)
(-0.0003114 0.000359966 0)
(-0.000684114 0.000853177 0)
(-0.00122219 0.00145286 0)
(-0.0019379 0.00212057 0)
(-0.00283857 0.00282614 0)
(-0.00392738 0.00354627 0)
(-0.00520413 0.00426312 0)
(-0.00666571 0.00496315 0)
(-0.00830658 0.00563625 0)
(-0.0101193 0.00627498 0)
(-0.0120947 0.00687406 0)
(-0.0142228 0.00742982 0)
(-0.0164923 0.00793997 0)
(-0.0188917 0.00840323 0)
(-0.0214089 0.00881915 0)
(-0.0240318 0.00918793 0)
(-0.0267481 0.0095103 0)
(-0.0295458 0.00978737 0)
(-0.032413 0.0100206 0)
(-0.0353382 0.0102116 0)
(-0.0383103 0.0103624 0)
(-0.0413187 0.0104748 0)
(-0.0443531 0.010551 0)
(-0.0474039 0.0105932 0)
(-0.0504621 0.0106034 0)
(-0.053519 0.010584 0)
(-0.0565667 0.0105371 0)
(-0.0595978 0.0104649 0)
(-0.0626055 0.0103694 0)
(-0.0655834 0.0102528 0)
(-0.068526 0.010117 0)
(-0.0714279 0.00996398 0)
(-0.0742845 0.00979556 0)
(-0.0770917 0.00961353 0)
(-0.0798457 0.00941956 0)
(-0.0825433 0.00921526 0)
(-0.0851817 0.00900212 0)
(-0.0877585 0.00878156 0)
(-0.0902718 0.0085549 0)
(-0.0927197 0.00832339 0)
(-0.0951011 0.00808815 0)
(-0.0974148 0.00785026 0)
(-0.0996603 0.00761068 0)
(-0.101837 0.00737029 0)
(-0.103945 0.0071299 0)
(-0.105984 0.00689025 0)
(-0.107954 0.00665197 0)
(-0.109856 0.00641566 0)
(-0.11169 0.00618181 0)
(-0.113457 0.00595087 0)
(-0.115157 0.00572321 0)
(-0.116793 0.00549917 0)
(-0.118364 0.00527898 0)
(-0.119871 0.00506288 0)
(-0.121317 0.004851 0)
(-0.122701 0.00464346 0)
(-0.124026 0.00444032 0)
(-0.125292 0.0042416 0)
(-0.126501 0.00404728 0)
(-0.127653 0.0038573 0)
(-0.128751 0.00367157 0)
(-0.129795 0.00348998 0)
(-0.130785 0.00331235 0)
(-0.131725 0.00313852 0)
(-0.132613 0.00296827 0)
(-0.133452 0.00280136 0)
(-0.134242 0.00263755 0)
(-0.134984 0.00247656 0)
(-0.135679 0.0023181 0)
(-0.136328 0.00216184 0)
(-0.13693 0.00200747 0)
(-0.137487 0.00185464 0)
(-0.137999 0.00170299 0)
(-0.138465 0.00155216 0)
(-0.138888 0.00140178 0)
(-0.139265 0.00125144 0)
(-0.139598 0.00110077 0)
(-0.139886 0.000949357 0)
(-0.140128 0.000796799 0)
(-0.140326 0.000642686 0)
(-0.140477 0.000486608 0)
(-0.140582 0.000328153 0)
(-0.140639 0.00016691 0)
(-0.140649 2.4702e-06 0)
(-0.140609 -0.000165569 0)
(-0.140519 -0.000337607 0)
(-0.140377 -0.000514033 0)
(-0.140183 -0.000695227 0)
(-0.139935 -0.000881557 0)
(-0.139632 -0.00107338 0)
(-0.139271 -0.00127102 0)
(-0.138852 -0.0014748 0)
(-0.138372 -0.00168503 0)
(-0.13783 -0.00190195 0)
(-0.137224 -0.00212582 0)
(-0.136552 -0.00235684 0)
(-0.135812 -0.00259518 0)
(-0.135001 -0.00284098 0)
(-0.134119 -0.00309434 0)
(-0.133162 -0.00335528 0)
(-0.132129 -0.00362382 0)
(-0.131017 -0.00389988 0)
(-0.129825 -0.00418335 0)
(-0.128551 -0.00447404 0)
(-0.127193 -0.0047717 0)
(-0.125748 -0.00507601 0)
(-0.124216 -0.00538656 0)
(-0.122594 -0.00570287 0)
(-0.120881 -0.00602438 0)
(-0.119076 -0.00635043 0)
(-0.117178 -0.00668026 0)
(-0.115186 -0.00701302 0)
(-0.113099 -0.00734777 0)
(-0.110918 -0.00768346 0)
(-0.108642 -0.00801892 0)
(-0.106271 -0.00835289 0)
(-0.103806 -0.00868398 0)
(-0.101249 -0.00901071 0)
(-0.0986008 -0.00933149 0)
(-0.0958635 -0.0096446 0)
(-0.0930397 -0.00994822 0)
(-0.0901325 -0.0102404 0)
(-0.0871454 -0.0105192 0)
(-0.0840825 -0.0107825 0)
(-0.0809485 -0.0110279 0)
(-0.0777489 -0.0112534 0)
(-0.0744897 -0.0114564 0)
(-0.0711774 -0.0116345 0)