/*--------------------------------*- C++ -*----------------------------------*\
  =========                 |
  \\      /  F ield         | OpenFOAM: The Open Source CFD Toolbox
   \\    /   O peration     | Website:  https://openfoam.org
    \\  /    A nd           | Version:  7
     \\/     M anipulation  |
\*---------------------------------------------------------------------------*/
FoamFile
{
    version     2.0;
    format      ascii;
    class       volScalarField;
    location    "0.4125";
    object      p;
}
// * * * * * * * * * * * * * * * * * * * * * * * * * * * * * * * * * * * * * //

dimensions      [0 2 -2 0 0 0 0];

internalField   nonuniform List<scalar> 
12800
(
-1.68368e-08
2.68552e-05
-6.52487e-06
-0.000112129
-0.000282586
-0.000508187
-0.000778398
-0.00108286
-0.00141214
-0.00175797
-0.00211339
-0.00247209
-0.00282917
-0.00318037
-0.00352228
-0.00385211
-0.00416769
-0.00446733
-0.00474978
-0.00501418
-0.00525995
-0.00548678
-0.00569457
-0.00588338
-0.00605343
-0.00620501
-0.00633853
-0.0064544
-0.00655307
-0.00663503
-0.00670075
-0.00675068
-0.00678526
-0.0068049
-0.00680994
-0.0068007
-0.00677744
-0.00674038
-0.00668968
-0.00662545
-0.00654775
-0.00645658
-0.00635188
-0.00623354
-0.0061014
-0.00595525
-0.00579483
-0.00561981
-0.00542983
-0.00522447
-0.00500326
-0.00476569
-0.00451119
-0.00423916
-0.00394893
-0.00363981
-0.00331102
-0.00296177
-0.0025912
-0.0021984
-0.00178241
-0.00134222
-0.000876775
-0.000384961
0.000134386
0.000682485
0.00126061
0.00187008
0.00251228
0.00318865
0.00390065
0.00464983
0.00543777
0.00626611
0.00713653
0.00805074
0.0090105
0.0100176
0.0110739
0.0121812
0.0133413
0.0145562
0.0158277
0.0171577
0.0185481
0.0200006
0.021517
0.0230992
0.0247487
0.0264671
0.0282559
0.0301164
0.03205
0.0340575
0.0361398
0.0382977
0.0405315
0.0428412
0.0452269
0.047688
0.0502237
0.0528329
0.0555138
0.0582646
0.0610827
0.0639653
0.0669087
0.0699091
0.0729618
0.0760619
0.0792035
0.0823806
0.0855861
0.0888126
0.0920522
0.0952963
0.0985358
0.101761
0.104962
0.108129
0.11125
0.114315
0.117311
0.120229
0.123057
0.125782
0.128395
0.130885
0.13324
0.135452
0.137512
0.13941
0.141141
0.142697
0.144074
0.145267
0.146275
0.147097
0.147732
0.148184
0.148456
0.148553
0.148483
0.148255
0.147878
0.147367
0.146734
0.145997
0.145171
0.144279
0.143341
0.142381
0.141427
0.140509
0.139661
0.138918
0.13832
0.137908
0.137722
0.137749
-2.69797e-05
5.5294e-08
-3.48059e-05
-0.00013185
-0.000282283
-0.000479446
-0.00071583
-0.000983413
-0.00127456
-0.00158229
-0.00190043
-0.00222353
-0.00254693
-0.00286671
-0.00317956
-0.00348276
-0.00377414
-0.00405195
-0.00431484
-0.00456182
-0.00479218
-0.00500547
-0.00520143
-0.00537998
-0.00554114
-0.0056851
-0.00581207
-0.00592235
-0.00601627
-0.00609418
-0.00615642
-0.00620333
-0.00623527
-0.00625254
-0.00625542
-0.00624414
-0.0062189
-0.00617987
-0.00612714
-0.00606078
-0.00598081
-0.0058872
-0.00577986
-0.00565865
-0.00552338
-0.00537384
-0.00520975
-0.00503077
-0.00483652
-0.00462659
-0.00440052
-0.00415777
-0.0038978
-0.00361999
-0.0033237
-0.00300823
-0.00267283
-0.00231671
-0.00193903
-0.0015389
-0.00111539
-0.000667518
-0.000194237
0.00030553
0.000832913
0.00138909
0.0019753
0.00259283
0.00324299
0.00392718
0.00464681
0.00540337
0.00619838
0.0070334
0.00791004
0.00882993
0.00979476
0.0108062
0.0118661
0.012976
0.0141379
0.0153534
0.0166243
0.0179523
0.0193393
0.0207869
0.0222967
0.0238704
0.0255094
0.0272154
0.0289895
0.030833
0.0327469
0.0347322
0.0367896
0.0389197
0.0411226
0.0433984
0.0457469
0.0481675
0.0506592
0.053221
0.055851
0.0585472
0.0613073
0.0641281
0.0670063
0.0699379
0.0729185
0.0759431
0.0790062
0.0821017
0.085223
0.0883628
0.0915136
0.094667
0.0978145
0.100947
0.104054
0.107127
0.110155
0.113128
0.116035
0.118865
0.121608
0.124252
0.126789
0.129207
0.131497
0.13365
0.135658
0.137513
0.139208
0.140738
0.142098
0.143285
0.144297
0.145134
0.145795
0.146284
0.146604
0.146761
0.146761
0.146614
0.14633
0.145921
0.1454
0.144783
0.144086
0.143328
0.142529
0.141712
0.140902
0.140124
0.139407
0.13878
0.138274
0.137918
0.137748
0.137776
6.4889e-06
3.50561e-05
-1.96064e-08
-9.24775e-05
-0.000231583
-0.000411625
-0.00062655
-0.000869721
-0.00113469
-0.00141548
-0.00170665
-0.00200335
-0.00230135
-0.00259698
-0.00288714
-0.00316925
-0.00344118
-0.00370119
-0.00394792
-0.00418032
-0.00439761
-0.00459924
-0.00478487
-0.0049543
-0.00510749
-0.00524446
-0.00536536
-0.00547036
-0.00555971
-0.00563365
-0.00569245
-0.00573635
-0.00576563
-0.00578052
-0.00578122
-0.00576792
-0.00574077
-0.00569988
-0.00564529
-0.00557703
-0.00549509
-0.00539941
-0.00528987
-0.00516631
-0.00502855
-0.00487632
-0.00470933
-0.00452725
-0.00432969
-0.00411624
-0.00388642
-0.0036397
-0.00337555
-0.00309335
-0.00279246
-0.00247219
-0.00213181
-0.00177054
-0.00138755
-0.00098197
-0.00055289
-9.93426e-05
0.000379681
0.000885237
0.00141843
0.00198041
0.00257236
0.00319555
0.00385125
0.00454079
0.00526556
0.00602699
0.00682653
0.0076657
0.00854605
0.00946913
0.0104366
0.01145
0.0125111
0.0136215
0.0147829
0.0159969
0.0172654
0.0185898
0.0199719
0.0214133
0.0229155
0.02448
0.0261083
0.0278017
0.0295615
0.0313887
0.0332843
0.0352492
0.0372839
0.039389
0.0415646
0.0438106
0.0461268
0.0485124
0.0509667
0.0534882
0.0560754
0.0587261
0.0614379
0.0642078
0.0670325
0.0699081
0.0728303
0.0757941
0.0787942
0.0818247
0.0848791
0.0879505
0.0910315
0.0941141
0.09719
0.10025
0.103286
0.106287
0.109244
0.112147
0.114985
0.117749
0.120429
0.123013
0.125492
0.127858
0.1301
0.13221
0.13418
0.136003
0.137674
0.139185
0.140535
0.141718
0.142734
0.143583
0.144265
0.144783
0.14514
0.145342
0.145396
0.14531
0.145095
0.144762
0.144323
0.143794
0.14319
0.142529
0.14183
0.141113
0.140401
0.139716
0.139083
0.138528
0.138074
0.137746
0.137577
0.137591
0.000112923
0.00013267
9.20493e-05
-1.18775e-06
-0.000136236
-0.00030768
-0.000510169
-0.000737941
-0.000985407
-0.00124735
-0.00151896
-0.00179593
-0.00207443
-0.00235111
-0.00262311
-0.00288802
-0.00314378
-0.00338877
-0.00362164
-0.00384134
-0.00404707
-0.00423824
-0.00441446
-0.00457547
-0.00472116
-0.00485149
-0.00496651
-0.00506633
-0.00515113
-0.00522106
-0.00527633
-0.00531713
-0.00534365
-0.00535607
-0.00535454
-0.00533919
-0.00531012
-0.00526739
-0.00521103
-0.00514102
-0.00505732
-0.00495983
-0.0048484
-0.00472288
-0.00458304
-0.00442863
-0.00425932
-0.00407477
-0.00387461
-0.00365839
-0.00342565
-0.00317587
-0.00290849
-0.00262292
-0.00231853
-0.00199462
-0.00165048
-0.00128534
-0.000898393
-0.00048878
-5.56034e-05
0.000402078
0.00088525
0.00139494
0.00193223
0.00249823
0.00309412
0.0037211
0.00438041
0.00507335
0.00580126
0.00656552
0.00736754
0.00820878
0.00909073
0.0100149
0.0109828
0.0119962
0.0130564
0.0141652
0.0153241
0.0165349
0.017799
0.0191181
0.0204937
0.0219274
0.0234206
0.0249749
0.0265914
0.0282716
0.0300165
0.0318272
0.0337046
0.0356495
0.0376624
0.0397437
0.0418936
0.0441119
0.0463984
0.0487523
0.0511727
0.0536583
0.0562074
0.0588181
0.0614878
0.0642138
0.0669926
0.0698204
0.0726931
0.0756059
0.0785535
0.0815302
0.0845297
0.0875452
0.0905696
0.0935951
0.0966136
0.0996166
0.102595
0.10554
0.108442
0.11129
0.114076
0.11679
0.119421
0.121959
0.124396
0.126723
0.128929
0.131008
0.132951
0.134752
0.136405
0.137905
0.139247
0.14043
0.141452
0.142311
0.14301
0.143551
0.143938
0.144175
0.14427
0.144232
0.144069
0.143792
0.143415
0.142951
0.142415
0.141824
0.141194
0.140546
0.139899
0.139273
0.13869
0.138172
0.137739
0.137413
0.137222
0.137184
0.000285883
0.000284781
0.000231323
0.000131923
-4.42258e-06
-0.000172701
-0.000368105
-0.000585632
-0.000820453
-0.00106802
-0.00132411
-0.00158493
-0.00184705
-0.00210748
-0.00236361
-0.00261321
-0.0028544
-0.00308564
-0.00330564
-0.0035134
-0.00370813
-0.00388924
-0.00405629
-0.00420901
-0.00434723
-0.00447087
-0.00457991
-0.00467443
-0.0047545
-0.00482024
-0.0048718
-0.00490931
-0.00493291
-0.00494271
-0.00493882
-0.00492133
-0.00489028
-0.00484569
-0.00478755
-0.00471584
-0.00463044
-0.00453125
-0.00441811
-0.00429083
-0.00414915
-0.00399282
-0.00382151
-0.00363486
-0.00343248
-0.00321394
-0.00297876
-0.00272642
-0.00245638
-0.00216805
-0.00186079
-0.00153392
-0.00118674
-0.000818501
-0.0004284
-1.56028e-05
0.000420772
0.000881643
0.00136797
0.00188076
0.00242106
0.00298997
0.0035886
0.00421813
0.00487978
0.00557479
0.00630446
0.00707013
0.00787316
0.00871496
0.00959696
0.0105206
0.0114875
0.012499
0.0135567
0.0146622
0.0158171
0.0170227
0.0182808
0.0195928
0.0209602
0.0223846
0.0238672
0.0254095
0.0270128
0.0286782
0.0304069
0.0321999
0.034058
0.0359819
0.0379721
0.040029
0.0421527
0.0443431
0.0465998
0.0489222
0.0513094
0.0537599
0.0562723
0.0588445
0.0614741
0.0641584
0.066894
0.0696773
0.0725041
0.0753699
0.0782694
0.0811972
0.084147
0.0871125
0.0900864
0.0930614
0.0960296
0.0989826
0.101912
0.104808
0.107662
0.110465
0.113207
0.115878
0.118469
0.120971
0.123373
0.125668
0.127846
0.1299
0.131823
0.133607
0.135248
0.13674
0.138079
0.139263
0.140291
0.141161
0.141876
0.142438
0.14285
0.143118
0.143249
0.143249
0.14313
0.142901
0.142574
0.142162
0.14168
0.141143
0.140567
0.13997
0.139369
0.138783
0.13823
0.13773
0.137299
0.136955
0.136718
0.136597
0.00051666
0.000485462
0.000412663
0.000301989
0.00015937
-1.06593e-05
-0.000203774
-0.000415688
-0.000642245
-0.0008795
-0.00112381
-0.00137184
-0.00162059
-0.00186738
-0.0021099
-0.00234613
-0.00257438
-0.00279321
-0.00300145
-0.00319816
-0.00338258
-0.00355414
-0.00371242
-0.00385711
-0.00398803
-0.00410505
-0.00420814
-0.00429732
-0.00437261
-0.00443409
-0.00448186
-0.00451599
-0.00453657
-0.00454368
-0.00453738
-0.00451771
-0.00448466
-0.00443824
-0.00437839
-0.00430504
-0.00421807
-0.00411735
-0.00400268
-0.00387386
-0.00373062
-0.00357268
-0.00339971
-0.00321134
-0.00300717
-0.00278676
-0.00254964
-0.00229529
-0.00202317
-0.00173269
-0.00142322
-0.0010941
-0.000744628
-0.000374072
1.83516e-05
0.00043346
0.000872113
0.00133521
0.00182368
0.00233851
0.00288071
0.00345135
0.00405152
0.00468235
0.00534502
0.00604075
0.00677079
0.00753643
0.00833898
0.00917981
0.0100603
0.0109819
0.011946
0.0129541
0.0140076
0.0151081
0.016257
0.0174559
0.0187062
0.0200094
0.021367
0.0227802
0.0242506
0.0257794
0.0273679
0.0290172
0.0307283
0.0325023
0.0343399
0.0362418
0.0382086
0.0402404
0.0423376
0.0444998
0.0467269
0.049018
0.0513725
0.0537889
0.0562657
0.0588009
0.0613924
0.0640372
0.0667323
0.0694741
0.0722586
0.0750812
0.077937
0.0808206
0.0837261
0.086647
0.0895766
0.0925075
0.0954321
0.0983422
0.101229
0.104085
0.1069
0.109665
0.112371
0.115008
0.117567
0.120039
0.122415
0.124686
0.126843
0.128879
0.130787
0.132561
0.134194
0.135682
0.137021
0.138209
0.139244
0.140126
0.140856
0.141437
0.141872
0.142167
0.142327
0.14236
0.142277
0.142085
0.141798
0.141428
0.140987
0.140491
0.139954
0.139392
0.138822
0.138258
0.137718
0.137217
0.136772
0.136396
0.136095
0.13587
0.00079584
0.000727938
0.00063056
0.000504088
0.000350726
0.000174523
-2.06574e-05
-0.000231164
-0.000453475
-0.000684216
-0.000920247
-0.00115869
-0.00139693
-0.00163266
-0.00186383
-0.00208866
-0.00230565
-0.0025135
-0.00271119
-0.00289784
-0.00307276
-0.00323542
-0.00338543
-0.00352248
-0.00364638
-0.003757
-0.00385428
-0.0039382
-0.00400876
-0.00406601
-0.00410998
-0.00414073
-0.00415829
-0.00416271
-0.00415401
-0.00413217
-0.00409718
-0.004049
-0.00398753
-0.00391268
-0.00382431
-0.00372223
-0.00360627
-0.00347617
-0.00333167
-0.00317245
-0.00299819
-0.00280851
-0.002603
-0.00238122
-0.00214268
-0.00188689
-0.00161329
-0.00132131
-0.00101032
-0.000679674
-0.000328686
4.33677e-05
0.000437252
0.000853767
0.00129375
0.00175807
0.00224763
0.0027634
0.00330636
0.00387754
0.004478
0.00510884
0.0057712
0.00646625
0.00719521
0.00795933
0.00875988
0.00959818
0.0104756
0.0113934
0.0123531
0.013356
0.0144037
0.0154974
0.0166387
0.0178291
0.0190699
0.0203625
0.0217084
0.023109
0.0245655
0.0260791
0.0276513
0.0292829
0.0309751
0.0327289
0.0345449
0.0364238
0.0383663
0.0403725
0.0424426
0.0445765
0.0467739
0.0490341
0.0513564
0.0537395
0.0561819
0.0586818
0.0612369
0.0638446
0.0665018
0.0692051
0.0719507
0.0747341
0.0775505
0.0803947
0.0832608
0.0861428
0.0890339
0.0919271
0.0948147
0.0976889
0.100541
0.103364
0.106147
0.108882
0.11156
0.114171
0.116707
0.119157
0.121514
0.123768
0.125912
0.127937
0.129837
0.131605
0.133236
0.134725
0.136068
0.137262
0.138306
0.139201
0.139946
0.140545
0.141
0.141318
0.141503
0.141563
0.141508
0.141347
0.14109
0.14075
0.140339
0.139871
0.13936
0.138819
0.138264
0.137708
0.137166
0.136651
0.136177
0.135755
0.13538
0.135039
0.00111399
0.00100482
0.000878791
0.000732751
0.000564864
0.000378704
0.00017774
-3.49914e-05
-0.000256539
-0.000484068
-0.000714908
-0.000946615
-0.00117696
-0.00140397
-0.00162586
-0.00184113
-0.00204846
-0.00224673
-0.00243504
-0.00261263
-0.00277888
-0.00293334
-0.00307563
-0.00320549
-0.00332273
-0.00342723
-0.00351891
-0.00359773
-0.00366368
-0.00371678
-0.00375703
-0.00378445
-0.00379906
-0.00380085
-0.0037898
-0.00376589
-0.00372905
-0.00367922
-0.00361628
-0.00354009
-0.00345049
-0.00334729
-0.00323027
-0.00309917
-0.00295371
-0.00279357
-0.0026184
-0.00242782
-0.00222142
-0.00199874
-0.00175932
-0.00150265
-0.00122817
-0.000935323
-0.000623495
-0.000292047
5.96955e-05
0.000432441
0.000826937
0.00124396
0.00168433
0.00214888
0.00263851
0.00315414
0.00369672
0.00426726
0.00486677
0.00549634
0.00615705
0.00685005
0.00757651
0.00833763
0.00913466
0.00996887
0.0108415
0.011754
0.0127076
0.0137037
0.0147437
0.015829
0.0169609
0.0181409
0.0193704
0.0206508
0.0219833
0.0233693
0.0248102
0.0263071
0.0278613
0.0294738
0.0311456
0.0328777
0.0346709
0.0365258
0.038443
0.0404228
0.0424653
0.0445704
0.046738
0.0489674
0.0512579
0.0536083
0.0560172
0.0584829
0.0610032
0.0635756
0.0661972
0.0688647
0.0715743
0.0743219
0.0771026
0.0799116
0.082743
0.085591
0.088449
0.0913101
0.0941668
0.0970115
0.0998361
0.102632
0.105391
0.108103
0.11076
0.113353
0.115872
0.118309
0.120654
0.122899
0.125036
0.127057
0.128956
0.130724
0.132358
0.133851
0.135202
0.136406
0.137462
0.13837
0.139131
0.139747
0.140221
0.140559
0.140766
0.140848
0.140816
0.140677
0.140443
0.140125
0.139734
0.139284
0.138786
0.138255
0.137702
0.137142
0.136586
0.136045
0.135531
0.135056
0.134599
0.134138
0.0014623
0.0013088
0.00115109
0.000982457
0.000796932
0.000597648
0.00038775
0.000169709
-5.40779e-05
-0.000281253
-0.000509606
-0.000737096
-0.000961865
-0.00118226
-0.00139679
-0.0016042
-0.00180337
-0.00199338
-0.00217346
-0.00234297
-0.00250141
-0.00264837
-0.00278354
-0.00290671
-0.00301771
-0.00311642
-0.00320278
-0.00327673
-0.00333827
-0.00338737
-0.00342404
-0.00344826
-0.00346002
-0.00345929
-0.00344602
-0.00342015
-0.00338161
-0.00333028
-0.00326602
-0.00318868
-0.00309807
-0.00299398
-0.00287617
-0.00274437
-0.00259827
-0.00243755
-0.00226186
-0.0020708
-0.00186394
-0.00164086
-0.00140107
-0.00114406
-0.000869303
-0.000576222
-0.000264225
6.73159e-05
0.000419062
0.000791707
0.00118598
0.00160263
0.00204245
0.00250626
0.00299493
0.00350935
0.00405044
0.00461917
0.00521652
0.00584354
0.00650129
0.00719087
0.00791342
0.0086701
0.0094621
0.0102907
0.011157
0.0120625
0.0130083
0.0139959
0.0150265
0.0161015
0.0172223
0.0183902
0.0196066
0.0208728
0.0221901
0.0235599
0.0249833
0.0264618
0.0279963
0.029588
0.031238
0.0329471
0.0347161
0.0365457
0.0384365
0.0403889
0.042403
0.0444788
0.0466162
0.0488146
0.0510733
0.0533914
0.0557674
0.0581998
0.0606865
0.0632251
0.065813
0.0684468
0.0711231
0.0738377
0.0765861
0.0793635
0.0821643
0.0849826
0.0878123
0.0906464
0.0934777
0.0962987
0.0991013
0.101877
0.104618
0.107314
0.109958
0.112539
0.115049
0.117479
0.11982
0.122063
0.1242
0.126223
0.128125
0.1299
0.131542
0.133046
0.134407
0.135625
0.136695
0.137619
0.138397
0.13903
0.139523
0.139879
0.140105
0.140206
0.140192
0.140071
0.139853
0.139549
0.13917
0.138728
0.138235
0.137703
0.137143
0.136568
0.135988
0.135412
0.134851
0.134315
0.133773
0.133192
0.00183275
0.00163292
0.00144133
0.00124776
0.00104208
0.000827077
0.000605613
0.000379639
0.000151051
-7.82484e-05
-0.000306476
-0.000531968
-0.000753232
-0.000968916
-0.00117783
-0.00137895
-0.00157138
-0.00175438
-0.00192734
-0.00208975
-0.00224121
-0.00238141
-0.0025101
-0.00262712
-0.00273233
-0.00282565
-0.00290701
-0.00297639
-0.00303376
-0.00307909
-0.00311237
-0.00313356
-0.00314265
-0.00313956
-0.00312423
-0.00309658
-0.0030565
-0.00300386
-0.00293848
-0.00286021
-0.00276883
-0.00266411
-0.00254579
-0.00241358
-0.00226718
-0.00210624
-0.0019304
-0.00173926
-0.00153241
-0.00130939
-0.00106974
-0.00081295
-0.000538487
-0.000245795
6.57124e-05
0.000396648
0.00074766
0.00111942
0.00151264
0.00192805
0.00236641
0.00282853
0.00331523
0.00382739
0.00436588
0.00493165
0.00552565
0.00614888
0.00680236
0.00748718
0.00820441
0.00895518
0.00974066
0.010562
0.0114205
0.0123173
0.0132537
0.014231
0.0152505
0.0163135
0.0174213
0.0185753
0.0197767
0.0210269
0.0223272
0.0236788
0.0250831
0.0265413
0.0280545
0.0296237
0.0312502
0.0329346
0.034678
0.0364811
0.0383443
0.0402682
0.042253
0.0442987
0.0464053
0.0485723
0.0507991
0.0530849
0.0554283
0.057828
0.060282
0.062788
0.0653436
0.0679456
0.0705906
0.0732748
0.0759937
0.0787426
0.0815163
0.084309
0.0871145
0.0899262
0.092737
0.0955394
0.0983256
0.101087
0.103816
0.106503
0.109139
0.111716
0.114223
0.116653
0.118996
0.121243
0.123387
0.125418
0.127331
0.129118
0.130773
0.132292
0.13367
0.134904
0.135993
0.136935
0.137731
0.138383
0.138894
0.139268
0.139511
0.139628
0.139629
0.139521
0.139314
0.139018
0.138645
0.138204
0.137707
0.137166
0.136592
0.135994
0.135382
0.134764
0.134151
0.133551
0.132922
0.132224
0.00221808
0.00197068
0.00174365
0.00152334
0.00129552
0.0010627
0.000827493
0.000591388
0.000355825
0.000122273
-0.000107869
-0.000333316
-0.000552903
-0.000765591
-0.000970466
-0.00116674
-0.00135375
-0.00153093
-0.00169783
-0.00185408
-0.00199941
-0.00213358
-0.00225644
-0.00236788
-0.00246781
-0.00255617
-0.00263293
-0.00269808
-0.00275157
-0.0027934
-0.00282354
-0.00284194
-0.00284856
-0.00284332
-0.00282614
-0.00279691
-0.0027555
-0.00270176
-0.0026355
-0.00255654
-0.00246464
-0.00235955
-0.002241
-0.0021087
-0.00196233
-0.00180153
-0.00162592
-0.00143513
-0.00122871
-0.00100623
-0.000767222
-0.000511178
-0.000237579
5.41213e-05
0.000364496
0.000694147
0.0010437
0.00141382
0.00180518
0.0022185
0.00265451
0.00311399
0.00359775
0.0041066
0.00464142
0.0052031
0.00579256
0.00641077
0.00705872
0.00773743
0.00844795
0.00919139
0.00996885
0.0107815
0.0116305
0.012517
0.0134423
0.0144076
0.0154142
0.0164634
0.0175564
0.0186945
0.0198792
0.0211115
0.0223929
0.0237246
0.0251079
0.0265439
0.0280339
0.029579
0.0311802
0.0328385
0.0345547
0.0363296
0.0381639
0.0400581
0.0420125
0.0440272
0.0461021
0.0482372
0.0504317
0.052685
0.0549959
0.0573632
0.059785
0.0622593
0.0647837
0.0673553
0.0699708
0.0726265
0.0753183
0.0780416
0.0807912
0.0835616
0.0863467
0.0891401
0.0919348
0.0947234
0.0974982
0.100251
0.102973
0.105657
0.108292
0.110869
0.113381
0.115817
0.118168
0.120426
0.122583
0.124629
0.126558
0.128363
0.130038
0.131576
0.132975
0.134231
0.135341
0.136304
0.137121
0.137794
0.138324
0.138716
0.138975
0.139108
0.139121
0.139023
0.138823
0.138531
0.138157
0.137712
0.137206
0.136649
0.136053
0.135425
0.134776
0.134112
0.133442
0.132776
0.132061
0.13125
0.00261171
0.002316
0.00205246
0.00180407
0.00155257
0.00130023
0.00104953
0.000801477
0.000557106
0.0003175
8.36814e-05
-0.000143415
-0.000362941
-0.000574156
-0.000776414
-0.000969164
-0.00115196
-0.00132443
-0.00148628
-0.0016373
-0.00177731
-0.0019062
-0.0020239
-0.00213035
-0.00222552
-0.0023094
-0.00238198
-0.00244327
-0.00249323
-0.00253188
-0.00255916
-0.00257504
-0.00257945
-0.00257231
-0.00255351
-0.00252294
-0.00248044
-0.00242584
-0.00235895
-0.00227955
-0.00218739
-0.00208223
-0.00196375
-0.00183168
-0.00168566
-0.00152535
-0.00135037
-0.00116031
-0.000954762
-0.000733279
-0.000495394
-0.000240615
3.15697e-05
0.000321693
0.000630316
0.000958024
0.00130543
0.00167316
0.00206189
0.00247229
0.00290509
0.00336103
0.00384087
0.00434542
0.00487551
0.00543199
0.00601576
0.00662775
0.00726889
0.00794019
0.00864265
0.00937732
0.0101453
0.0109477
0.0117856
0.0126602
0.0135727
0.0145243
0.0155163
0.0165498
0.0176262
0.0187467
0.0199127
0.0211253
0.0223859
0.0236957
0.0250561
0.0264682
0.0279332
0.0294522
0.0310264
0.0326567
0.0343441
0.0360894
0.0378933
0.0397564
0.0416791
0.0436616
0.045704
0.0478063
0.0499679
0.0521883
0.0544665
0.0568013
0.0591912
0.0616343
0.0641283
0.0666705
0.0692579
0.0718869
0.0745535
0.0772534
0.0799815
0.0827325
0.0855005
0.0882792
0.0910616
0.0938407
0.0966086
0.0993573
0.102078
0.104763
0.107403
0.109987
0.112509
0.114957
0.117323
0.119599
0.121774
0.123842
0.125793
0.127622
0.129321
0.130886
0.13231
0.133592
0.134727
0.135716
0.136557
0.137252
0.137804
0.138215
0.138491
0.138638
0.138662
0.138572
0.138376
0.138085
0.137706
0.137252
0.136731
0.136154
0.135531
0.134869
0.134178
0.133464
0.132735
0.132001
0.131203
0.130283
0.00300758
0.00266321
0.00236245
0.002085
0.00180864
0.00153547
0.00126783
0.00100636
0.000751661
0.000504479
0.000265479
3.52742e-05
-0.000185602
-0.000396691
-0.000597605
-0.000788032
-0.000967731
-0.00113653
-0.00129429
-0.00144094
-0.00157645
-0.00170079
-0.00181398
-0.00191604
-0.002007
-0.00208689
-0.00215575
-0.00221359
-0.00226041
-0.00229622
-0.00232098
-0.00233463
-0.00233712
-0.00232836
-0.00230822
-0.00227656
-0.00223323
-0.00217803
-0.00211076
-0.00203119
-0.00193906
-0.0018341
-0.00171601
-0.00158447
-0.00143914
-0.00127967
-0.00110567
-0.000916747
-0.00071248
-0.000492431
-0.000256137
-3.11789e-06
0.000267126
0.000555114
0.000861394
0.00118653
0.00153112
0.00189577
0.00228111
0.00268782
0.00311656
0.00356807
0.00404308
0.00454235
0.00506669
0.0056169
0.00619386
0.00679843
0.00743155
0.00809414
0.00878719
0.00951171
0.0102687
0.0110594
0.0118846
0.0127457
0.0136438
0.01458
0.0155556
0.0165717
0.0176297
0.0187307
0.0198761
0.0210671
0.022305
0.0235911
0.0249266
0.0263128
0.0277508
0.029242
0.0307873
0.0323879
0.0340448
0.0357587
0.0375306
0.0393611
0.0412507
0.0431998
0.0452086
0.0472771
0.0494049
0.0515918
0.0538368
0.056139
0.058497
0.060909
0.0633731
0.0658866
0.0684468
0.0710503
0.0736933
0.0763716
0.0790804
0.0818144
0.0845681
0.0873351
0.0901089
0.0928821
0.0956472
0.0983962
0.101121
0.103812
0.106461
0.109058
0.111595
0.114062
0.116449
0.118747
0.120948
0.123042
0.125023
0.126881
0.128611
0.130207
0.131663
0.132975
0.134141
0.135159
0.136028
0.136749
0.137323
0.137756
0.13805
0.138211
0.138246
0.138163
0.13797
0.137676
0.137291
0.136824
0.136285
0.135684
0.13503
0.134331
0.133595
0.132827
0.132039
0.131238
0.130357
0.129335
0.00340011
0.00300699
0.00266858
0.00236137
0.00205926
0.00176424
0.00147854
0.00120244
0.000936178
0.000680148
0.000434697
0.000200127
-2.33251e-05
-0.00023547
-0.000436174
-0.000625356
-0.000802983
-0.000969062
-0.00112363
-0.00126675
-0.00139852
-0.00151902
-0.00162836
-0.00172664
-0.00181395
-0.00189038
-0.00195598
-0.00201081
-0.00205489
-0.00208823
-0.00211081
-0.00212258
-0.00212346
-0.00211337
-0.00209216
-0.0020597
-0.00201581
-0.00196029
-0.00189292
-0.00181345
-0.00172162
-0.00161715
-0.00149973
-0.00136904
-0.00122472
-0.00106642
-0.000893765
-0.000706348
-0.000503757
-0.000285556
-5.12945e-05
0.000199497
0.000467304
0.000752633
0.00105601
0.00137799
0.00171913
0.00208003
0.00246128
0.00286354
0.00328744
0.00373369
0.00420297
0.00469603
0.00521363
0.00575654
0.00632558
0.00692161
0.00754549
0.00819813
0.00888047
0.00959347
0.0103381
0.0111155
0.0119267
0.0127727
0.0136546
0.0145738
0.0155312
0.0165282
0.0175659
0.0186456
0.0197685
0.020936
0.0221493
0.0234097
0.0247184
0.0260768
0.027486
0.0289474
0.030462
0.032031
0.0336555
0.0353364
0.0370746
0.0388709
0.0407259
0.0426402
0.044614
0.0466475
0.0487406
0.050893
0.0531042
0.0553732
0.057699
0.0600799
0.0625141
0.0649994
0.067533
0.0701119
0.0727324
0.0753905
0.0780817
0.0808009
0.0835426
0.0863006
0.0890685
0.0918392
0.0946051
0.0973583
0.10009
0.102793
0.105456
0.108071
0.110629
0.113119
0.115532
0.11786
0.120092
0.12222
0.124235
0.126129
0.127896
0.129528
0.131021
0.13237
0.133571
0.134623
0.135523
0.136274
0.136876
0.137331
0.137645
0.137822
0.137869
0.137793
0.137602
0.137305
0.13691
0.136429
0.135869
0.135241
0.134553
0.133814
0.13303
0.132209
0.13136
0.130492
0.129531
0.128411
0.00378408
0.00334228
0.00296602
0.0026286
0.00230011
0.00198245
0.00167782
0.00138612
0.00110728
0.000841355
0.000588392
0.000348387
0.000121304
-9.29292e-05
-0.000294429
-0.000483334
-0.000659812
-0.00082405
-0.000976255
-0.00111664
-0.0012454
-0.00136275
-0.00146889
-0.00156399
-0.00164821
-0.00172168
-0.00178451
-0.00183678
-0.00187855
-0.00190982
-0.00193059
-0.00194081
-0.00194042
-0.0019293
-0.00190733
-0.00187435
-0.00183018
-0.00177461
-0.00170741
-0.00162832
-0.00153707
-0.00143337
-0.0013169
-0.00118734
-0.00104434
-0.000887534
-0.000716545
-0.000530979
-0.000330427
-0.00011446
0.000117361
0.000365492
0.000630403
0.000912586
0.00121255
0.00153082
0.00186793
0.00222445
0.00260096
0.00299806
0.00341638
0.00385656
0.00431929
0.00480524
0.00531515
0.00584976
0.00640986
0.00699623
0.00760972
0.00825119
0.00892154
0.0096217
0.0103526
0.0111153
0.0119108
0.0127402
0.0136045
0.0145049
0.0154426
0.0164186
0.0174343
0.0184909
0.0195895
0.0207316
0.0219184
0.0231511
0.0244311
0.0257597
0.0271382
0.0285678
0.0300498
0.0315853
0.0331756
0.0348216
0.0365243
0.0382847
0.0401036
0.0419815
0.0439189
0.0459161
0.0479733
0.0500903
0.0522667
0.0545018
0.0567948
0.0591442
0.0615484
0.0640054
0.0665128
0.0690675
0.0716663
0.0743053
0.0769803
0.0796862
0.0824177
0.085169
0.0879336
0.0907046
0.0934745
0.0962354
0.0989789
0.101696
0.104378
0.107016
0.109599
0.112119
0.114564
0.116926
0.119195
0.121362
0.123418
0.125355
0.127164
0.12884
0.130375
0.131766
0.133008
0.134098
0.135036
0.13582
0.136452
0.136934
0.137271
0.137466
0.137525
0.137457
0.137268
0.136967
0.136563
0.136065
0.135483
0.134826
0.134103
0.133322
0.13249
0.131614
0.130704
0.12977
0.128733
0.127519
0.00415459
0.00366432
0.00325014
0.00288222
0.00252691
0.00218607
0.00186182
0.00155379
0.00126155
0.000984878
0.000723517
0.000477181
0.000245567
2.83468e-05
-0.000174829
-0.000364315
-0.000540478
-0.000703681
-0.000854294
-0.000992665
-0.00111912
-0.00123399
-0.00133755
-0.00143005
-0.00151173
-0.00158277
-0.00164331
-0.00169349
-0.00173335
-0.00176295
-0.00178229
-0.00179132
-0.00178998
-0.00177817
-0.00175573
-0.00172253
-0.00167836
-0.00162301
-0.00155624
-0.00147778
-0.00138737
-0.0012847
-0.00116946
-0.0010413
-0.000899884
-0.000744855
-0.000575835
-0.000392434
-0.000194248
1.91385e-05
0.000248151
0.00049323
0.000754832
0.00103343
0.0013295
0.00164356
0.0019761
0.00232767
0.00269882
0.00309012
0.00350216
0.00393555
0.00439092
0.00486893
0.00537027
0.00589564
0.00644578
0.00702145
0.00762345
0.00825259
0.00890974
0.00959579
0.0103117
0.0110583
0.0118367
0.012648
0.0134931
0.0143731
0.0152893
0.0162428
0.0172347
0.0182663
0.0193389
0.0204537
0.0216121
0.0228153
0.0240647
0.0253616
0.0267073
0.0281032
0.0295506
0.0310508
0.0326049
0.0342141
0.0358796
0.0376024
0.0393833
0.0412232
0.0431227
0.0450823
0.0471022
0.0491825
0.051323
0.0535233
0.0557826
0.0580999
0.0604737
0.0629022
0.0653832
0.067914
0.0704915
0.0731121
0.0757717
0.0784655
0.0811884
0.0839348
0.0866982
0.0894718
0.0922484
0.09502
0.0977784
0.100515
0.10322
0.105884
0.108498
0.111051
0.113534
0.115936
0.118248
0.12046
0.122563
0.124548
0.126406
0.128131
0.129715
0.131154
0.132442
0.133577
0.134556
0.135379
0.136046
0.136559
0.136921
0.137136
0.137211
0.137152
0.136966
0.136662
0.136249
0.135735
0.135129
0.134443
0.133683
0.132859
0.131978
0.131047
0.130077
0.129078
0.127965
0.126661
0.00450701
0.00396856
0.0035165
0.00311794
0.00273554
0.00237111
0.00202676
0.00170181
0.00139554
0.00110743
0.000836945
0.000583531
0.000346622
0.000125643
-7.99748e-05
-0.000270799
-0.00044739
-0.000610288
-0.000760014
-0.000897052
-0.00102186
-0.00113486
-0.00123644
-0.00132692
-0.00140659
-0.0014757
-0.00153445
-0.00158297
-0.00162136
-0.00164969
-0.00166797
-0.00167616
-0.00167421
-0.001662
-0.0016394
-0.00160625
-0.00156234
-0.00150747
-0.00144137
-0.0013638
-0.00127446
-0.00117306
-0.00105926
-0.000932746
-0.000793164
-0.000640161
-0.000473368
-0.0002924
-9.68661e-05
0.000113637
0.00033952
0.000581206
0.000839135
0.00111375
0.00140552
0.00171492
0.00204241
0.00238852
0.00275375
0.00313865
0.00354377
0.00396968
0.00441697
0.00488626
0.0053782
0.00589345
0.0064327
0.00699668
0.00758614
0.00820186
0.00884465
0.00951538
0.0102149
0.0109442
0.0117042
0.0124958
0.0133202
0.0141785
0.0150716
0.0160008
0.0169673
0.0179722
0.0190169
0.0201027
0.0212308
0.0224025
0.0236194
0.0248827
0.0261938
0.0275541
0.0289649
0.0304277
0.0319438
0.0335144
0.0351408
0.0368241
0.0385654
0.0403656
0.0422255
0.0441458
0.0461269
0.0481692
0.0502725
0.0524369
0.0546616
0.0569459
0.0592885
0.061688
0.0641423
0.0666491
0.0692054
0.0718078
0.0744525
0.0771351
0.0798505
0.0825932
0.0853571
0.0881355
0.0909211
0.0937061
0.0964822
0.0992407
0.101972
0.104667
0.107316
0.109908
0.112433
0.114881
0.117241
0.119504
0.12166
0.123699
0.125612
0.127392
0.129032
0.130525
0.131866
0.133051
0.134077
0.134944
0.135651
0.136198
0.13659
0.13683
0.136923
0.136876
0.136695
0.136389
0.135966
0.135436
0.134808
0.134091
0.133295
0.132428
0.131498
0.130511
0.129481
0.128418
0.127232
0.125842
0.00483689
0.0042506
0.00376081
0.00333157
0.00292192
0.00253364
0.00216884
0.00182655
0.00150576
0.00120567
0.000925482
0.000664375
0.000421529
0.00019614
-1.25825e-05
-0.000205411
-0.000383093
-0.000546337
-0.00069581
-0.000832142
-0.000955909
-0.00106764
-0.00116779
-0.00125678
-0.00133496
-0.00140264
-0.00146003
-0.00150734
-0.00154467
-0.00157212
-0.0015897
-0.00159739
-0.00159513
-0.00158283
-0.00156034
-0.0015275
-0.00148411
-0.00142994
-0.00136475
-0.00128827
-0.00120021
-0.00110026
-0.000988117
-0.00086344
-0.000725892
-0.00057512
-0.000410763
-0.000232449
-3.9799e-05
0.000167572
0.00039006
0.00062807
0.000882018
0.00115233
0.00143943
0.00174377
0.0020658
0.00240599
0.00276482
0.00314279
0.00354041
0.00395822
0.00439677
0.00485664