/*--------------------------------*- C++ -*----------------------------------*\
  =========                 |
  \\      /  F ield         | OpenFOAM: The Open Source CFD Toolbox
   \\    /   O peration     | Website:  https://openfoam.org
    \\  /    A nd           | Version:  7
     \\/     M anipulation  |
\*---------------------------------------------------------------------------*/
FoamFile
{
    version     2.0;
    format      ascii;
    class       volVectorField;
    location    "0.4125";
    object      U;
}
// * * * * * * * * * * * * * * * * * * * * * * * * * * * * * * * * * * * * * //

dimensions      [0 1 -1 0 0 0 0];

internalField   nonuniform List<vector> 
12800
(
(3.25901e-06 -3.26582e-06 0)
(1.82704e-05 -9.71511e-06 0)
(4.4166e-05 -1.19728e-05 0)
(7.04985e-05 -1.10849e-05 0)
(9.06294e-05 -8.43381e-06 0)
(0.000101208 -4.88588e-06 0)
(0.000100431 -9.39113e-07 0)
(8.74401e-05 3.10287e-06 0)
(6.20344e-05 7.07572e-06 0)
(2.44226e-05 1.08746e-05 0)
(-2.494e-05 1.44375e-05 0)
(-8.54142e-05 1.77486e-05 0)
(-0.000156256 2.07832e-05 0)
(-0.000236679 2.35425e-05 0)
(-0.000325874 2.60292e-05 0)
(-0.00042303 2.82513e-05 0)
(-0.000527356 3.02245e-05 0)
(-0.000638093 3.19631e-05 0)
(-0.000754523 3.34831e-05 0)
(-0.000875972 3.4804e-05 0)
(-0.00100182 3.59434e-05 0)
(-0.00113148 3.69167e-05 0)
(-0.00126445 3.77431e-05 0)
(-0.00140026 3.84391e-05 0)
(-0.00153848 3.90201e-05 0)
(-0.00167875 3.95019e-05 0)
(-0.00182074 3.98985e-05 0)
(-0.00196419 4.02222e-05 0)
(-0.00210884 4.04852e-05 0)
(-0.0022545 4.06988e-05 0)
(-0.00240101 4.08741e-05 0)
(-0.00254823 4.10208e-05 0)
(-0.00269607 4.11466e-05 0)
(-0.00284445 4.12587e-05 0)
(-0.00299332 4.13633e-05 0)
(-0.00314266 4.14661e-05 0)
(-0.00329244 4.15719e-05 0)
(-0.00344268 4.16861e-05 0)
(-0.00359341 4.18127e-05 0)
(-0.00374465 4.1955e-05 0)
(-0.00389645 4.21156e-05 0)
(-0.00404887 4.22968e-05 0)
(-0.00420198 4.25003e-05 0)
(-0.00435584 4.27281e-05 0)
(-0.00451053 4.29817e-05 0)
(-0.00466614 4.32619e-05 0)
(-0.00482275 4.35701e-05 0)
(-0.00498045 4.39068e-05 0)
(-0.00513933 4.4272e-05 0)
(-0.00529948 4.46662e-05 0)
(-0.005461 4.50896e-05 0)
(-0.00562398 4.55423e-05 0)
(-0.00578851 4.6024e-05 0)
(-0.00595469 4.65344e-05 0)
(-0.00612261 4.70726e-05 0)
(-0.00629235 4.7638e-05 0)
(-0.00646399 4.82299e-05 0)
(-0.00663763 4.88475e-05 0)
(-0.00681334 4.94898e-05 0)
(-0.0069912 5.01555e-05 0)
(-0.00717127 5.0843e-05 0)
(-0.00735361 5.15509e-05 0)
(-0.00753828 5.22771e-05 0)
(-0.00772533 5.30192e-05 0)
(-0.0079148 5.37753e-05 0)
(-0.00810673 5.45428e-05 0)
(-0.00830112 5.53191e-05 0)
(-0.008498 5.6101e-05 0)
(-0.00869736 5.68849e-05 0)
(-0.00889919 5.7667e-05 0)
(-0.00910346 5.84433e-05 0)
(-0.00931012 5.92096e-05 0)
(-0.00951911 5.99611e-05 0)
(-0.00973036 6.06926e-05 0)
(-0.00994376 6.13983e-05 0)
(-0.0101592 6.20723e-05 0)
(-0.0103765 6.27081e-05 0)
(-0.0105956 6.3299e-05 0)
(-0.0108163 6.38377e-05 0)
(-0.0110382 6.43162e-05 0)
(-0.0112613 6.47265e-05 0)
(-0.0114851 6.50596e-05 0)
(-0.0117095 6.53066e-05 0)
(-0.0119341 6.54576e-05 0)
(-0.0121585 6.55025e-05 0)
(-0.0123823 6.54307e-05 0)
(-0.0126051 6.5231e-05 0)
(-0.0128264 6.48921e-05 0)
(-0.0130457 6.4402e-05 0)
(-0.0132624 6.37487e-05 0)
(-0.0134759 6.29197e-05 0)
(-0.0136857 6.19021e-05 0)
(-0.013891 6.06832e-05 0)
(-0.0140911 5.92499e-05 0)
(-0.0142852 5.75894e-05 0)
(-0.0144726 5.56888e-05 0)
(-0.0146524 5.35352e-05 0)
(-0.0148237 5.11165e-05 0)
(-0.0149856 4.84208e-05 0)
(-0.0151373 4.54369e-05 0)
(-0.0152776 4.21544e-05 0)
(-0.0154056 3.8564e-05 0)
(-0.0155202 3.46575e-05 0)
(-0.0156204 3.0428e-05 0)
(-0.0157052 2.58704e-05 0)
(-0.0157734 2.09814e-05 0)
(-0.0158239 1.57599e-05 0)
(-0.0158558 1.02068e-05 0)
(-0.0158679 4.32602e-06 0)
(-0.0158592 -1.87548e-06 0)
(-0.0158287 -8.38854e-06 0)
(-0.0157755 -1.52001e-05 0)
(-0.0156986 -2.22934e-05 0)
(-0.0155972 -2.96483e-05 0)
(-0.0154706 -3.72403e-05 0)
(-0.015318 -4.50412e-05 0)
(-0.0151389 -5.30183e-05 0)
(-0.0149329 -6.11348e-05 0)
(-0.0146996 -6.93497e-05 0)
(-0.0144389 -7.76175e-05 0)
(-0.0141508 -8.58889e-05 0)
(-0.0138353 -9.41105e-05 0)
(-0.0134929 -0.000102225 0)
(-0.013124 -0.000110173 0)
(-0.0127294 -0.000117891 0)
(-0.0123101 -0.000125312 0)
(-0.011867 -0.00013237 0)
(-0.0114017 -0.000138997 0)
(-0.0109156 -0.000145123 0)
(-0.0104106 -0.000150679 0)
(-0.00988876 -0.000155599 0)
(-0.00935218 -0.000159817 0)
(-0.00880334 -0.000163271 0)
(-0.00824483 -0.000165903 0)
(-0.00767946 -0.00016766 0)
(-0.00711016 -0.000168493 0)
(-0.00654002 -0.000168361 0)
(-0.00597223 -0.00016723 0)
(-0.0054101 -0.000165073 0)
(-0.00485699 -0.000161871 0)
(-0.0043163 -0.000157614 0)
(-0.00379145 -0.000152299 0)
(-0.00328585 -0.000145933 0)
(-0.00280286 -0.00013853 0)
(-0.00234577 -0.000130111 0)
(-0.00191777 -0.000120706 0)
(-0.00152192 -0.00011035 0)
(-0.00116111 -9.90867e-05 0)
(-0.000838064 -8.69656e-05 0)
(-0.000555233 -7.40461e-05 0)
(-0.000314798 -6.0401e-05 0)
(-0.000118571 -4.61259e-05 0)
(3.21199e-05 -3.13593e-05 0)
(0.00013662 -1.63194e-05 0)
(0.000195285 -1.38552e-06 0)
(0.000210034 1.27448e-05 0)
(0.000185212 2.4788e-05 0)
(0.000129465 3.22705e-05 0)
(6.15574e-05 3.05874e-05 0)
(1.39092e-05 1.3932e-05 0)
(9.75371e-06 -1.82745e-05 0)
(4.1866e-05 -4.17795e-05 0)
(8.85757e-05 -4.80046e-05 0)
(0.000131285 -4.1229e-05 0)
(0.000157502 -2.61285e-05 0)
(0.000159858 -6.07386e-06 0)
(0.000133709 1.66353e-05 0)
(7.64678e-05 4.0471e-05 0)
(-1.29189e-05 6.44095e-05 0)
(-0.0001344 8.77789e-05 0)
(-0.000287165 0.000110136 0)
(-0.000469888 0.000131218 0)
(-0.000680878 0.000150849 0)
(-0.000918247 0.000168946 0)
(-0.00117999 0.000185473 0)
(-0.00146404 0.000200451 0)
(-0.00176837 0.000213918 0)
(-0.00209098 0.000225941 0)
(-0.00242995 0.000236601 0)
(-0.00278348 0.000245988 0)
(-0.00314986 0.000254198 0)
(-0.00352754 0.000261331 0)
(-0.00391506 0.000267488 0)
(-0.00431111 0.000272769 0)
(-0.00471453 0.000277268 0)
(-0.00512426 0.000281083 0)
(-0.00553937 0.000284299 0)
(-0.00595905 0.000287001 0)
(-0.00638262 0.000289267 0)
(-0.00680948 0.00029117 0)
(-0.00723914 0.000292776 0)
(-0.00767119 0.000294147 0)
(-0.00810532 0.000295339 0)
(-0.00854127 0.000296404 0)
(-0.00897889 0.000297385 0)
(-0.00941805 0.000298323 0)
(-0.0098587 0.000299254 0)
(-0.0103008 0.000300211 0)
(-0.0107445 0.00030122 0)
(-0.0111897 0.000302307 0)
(-0.0116366 0.000303492 0)
(-0.0120854 0.000304794 0)
(-0.0125361 0.000306229 0)
(-0.012989 0.000307807 0)
(-0.0134443 0.000309541 0)
(-0.0139022 0.000311439 0)
(-0.0143628 0.000313509 0)
(-0.0148266 0.000315754 0)
(-0.0152936 0.00031818 0)
(-0.0157642 0.000320788 0)
(-0.0162386 0.000323579 0)
(-0.016717 0.000326553 0)
(-0.0171997 0.000329709 0)
(-0.0176869 0.000333044 0)
(-0.0181789 0.000336554 0)
(-0.018676 0.000340233 0)
(-0.0191783 0.000344077 0)
(-0.019686 0.000348078 0)
(-0.0201994 0.000352227 0)
(-0.0207187 0.000356514 0)
(-0.0212439 0.000360929 0)
(-0.0217754 0.000365459 0)
(-0.0223132 0.00037009 0)
(-0.0228574 0.000374805 0)
(-0.0234082 0.000379587 0)
(-0.0239655 0.000384418 0)
(-0.0245294 0.000389277 0)
(-0.0251 0.00039414 0)
(-0.0256772 0.000398984 0)
(-0.0262608 0.000403779 0)
(-0.0268508 0.000408498 0)
(-0.0274471 0.000413108 0)
(-0.0280494 0.000417575 0)
(-0.0286574 0.000421863 0)
(-0.0292708 0.000425931 0)
(-0.0298894 0.000429737 0)
(-0.0305125 0.000433238 0)
(-0.0311397 0.000436385 0)
(-0.0317705 0.000439127 0)
(-0.0324041 0.000441411 0)
(-0.0330398 0.000443181 0)
(-0.0336769 0.000444378 0)
(-0.0343144 0.000444938 0)
(-0.0349514 0.000444798 0)
(-0.0355866 0.000443889 0)
(-0.0362191 0.000442142 0)
(-0.0368474 0.000439483 0)
(-0.0374702 0.000435837 0)
(-0.0380859 0.000431129 0)
(-0.0386931 0.000425279 0)
(-0.0392899 0.000418208 0)
(-0.0398746 0.000409835 0)
(-0.0404453 0.000400079 0)
(-0.0409997 0.000388859 0)
(-0.041536 0.000376096 0)
(-0.0420516 0.000361711 0)
(-0.0425444 0.000345627 0)
(-0.0430119 0.000327772 0)
(-0.0434514 0.000308077 0)
(-0.0438603 0.000286477 0)
(-0.044236 0.000262914 0)
(-0.0445756 0.000237338 0)
(-0.0448763 0.000209708 0)
(-0.0451352 0.00017999 0)
(-0.0453494 0.000148165 0)
(-0.0455159 0.000114223 0)
(-0.0456319 7.81706e-05 0)
(-0.0456944 4.00295e-05 0)
(-0.0457007 -1.62195e-07 0)
(-0.0456479 -4.23472e-05 0)
(-0.0455334 -8.64494e-05 0)
(-0.0453547 -0.000132371 0)
(-0.0451094 -0.000179991 0)
(-0.0447954 -0.000229165 0)
(-0.0444107 -0.000279727 0)
(-0.0439536 -0.000331481 0)
(-0.0434227 -0.00038421 0)
(-0.042817 -0.000437669 0)
(-0.0421358 -0.000491586 0)
(-0.0413788 -0.000545667 0)
(-0.0405461 -0.000599592 0)
(-0.0396382 -0.000653018 0)
(-0.0386564 -0.000705582 0)
(-0.0376021 -0.0007569 0)
(-0.0364775 -0.000806573 0)
(-0.0352852 -0.00085419 0)
(-0.0340286 -0.000899329 0)
(-0.0327115 -0.000941563 0)
(-0.0313382 -0.000980464 0)
(-0.0299139 -0.00101561 0)
(-0.028444 -0.00104658 0)
(-0.0269346 -0.00107298 0)
(-0.0253925 -0.00109443 0)
(-0.0238248 -0.00111056 0)
(-0.0222391 -0.00112107 0)
(-0.0206433 -0.00112564 0)
(-0.019046 -0.00112405 0)
(-0.0174558 -0.00111607 0)
(-0.0158815 -0.00110155 0)
(-0.0143325 -0.00108039 0)
(-0.0128178 -0.00105252 0)
(-0.0113466 -0.00101797 0)
(-0.00992822 -0.000976775 0)
(-0.00857162 -0.000929062 0)
(-0.00728562 -0.000875004 0)
(-0.00607872 -0.000814834 0)
(-0.00495901 -0.000748851 0)
(-0.00393407 -0.000677417 0)
(-0.00301084 -0.000600978 0)
(-0.0021955 -0.00052008 0)
(-0.00149325 -0.000435406 0)
(-0.000908087 -0.000347843 0)
(-0.000442407 -0.000258594 0)
(-9.65019e-05 -0.000169367 0)
(0.000132254 -8.27179e-05 0)
(0.00025061 -2.60251e-06 0)
(0.000270919 6.47187e-05 0)
(0.000213625 0.000109208 0)
(0.000114772 0.000115029 0)
(3.03997e-05 6.14389e-05 0)
(1.21235e-05 -4.43391e-05 0)
(4.84314e-05 -8.8592e-05 0)
(9.56486e-05 -9.50992e-05 0)
(0.000131011 -7.35839e-05 0)
(0.000139355 -3.28248e-05 0)
(0.000111206 2.02716e-05 0)
(4.02489e-05 8.05745e-05 0)
(-7.734e-05 0.00014438 0)
(-0.000243332 0.000209061 0)
(-0.000457941 0.000272786 0)
(-0.000720266 0.000334273 0)
(-0.00102858 0.000392684 0)
(-0.00138058 0.000447471 0)
(-0.00177362 0.000498303 0)
(-0.00220478 0.000545037 0)
(-0.00267106 0.000587642 0)
(-0.00316944 0.000626185 0)
(-0.00369691 0.000660804 0)
(-0.00425059 0.000691683 0)
(-0.0048277 0.000719042 0)
(-0.00542564 0.000743126 0)
(-0.00604198 0.000764195 0)
(-0.00667447 0.000782508 0)
(-0.00732105 0.000798334 0)
(-0.00797986 0.000811932 0)
(-0.00864924 0.000823555 0)
(-0.00932771 0.000833448 0)
(-0.010014 0.000841841 0)
(-0.0107069 0.000848952 0)
(-0.0114055 0.000854984 0)
(-0.0121089 0.000860124 0)
(-0.0128166 0.000864547 0)
(-0.013528 0.000868411 0)
(-0.0142425 0.000871861 0)
(-0.01496 0.000875028 0)
(-0.0156802 0.000878028 0)
(-0.016403 0.000880966 0)
(-0.0171283 0.000883934 0)
(-0.0178562 0.000887015 0)
(-0.0185867 0.000890279 0)
(-0.01932 0.000893791 0)
(-0.0200563 0.000897603 0)
(-0.0207958 0.000901762 0)
(-0.0215387 0.000906306 0)
(-0.0222854 0.000911268 0)
(-0.0230362 0.000916673 0)
(-0.0237915 0.000922544 0)
(-0.0245515 0.000928896 0)
(-0.0253167 0.000935742 0)
(-0.0260874 0.000943087 0)
(-0.026864 0.000950935 0)
(-0.0276468 0.000959285 0)
(-0.0284364 0.000968133 0)
(-0.029233 0.000977471 0)
(-0.030037 0.000987288 0)
(-0.0308487 0.000997568 0)
(-0.0316686 0.00100829 0)
(-0.0324969 0.00101944 0)
(-0.0333339 0.00103099 0)
(-0.0341799 0.0010429 0)
(-0.0350351 0.00105515 0)
(-0.0358999 0.0010677 0)
(-0.0367743 0.00108049 0)
(-0.0376585 0.0010935 0)
(-0.0385527 0.00110665 0)
(-0.0394568 0.00111991 0)
(-0.040371 0.0011332 0)
(-0.0412951 0.00114645 0)
(-0.0422291 0.0011596 0)
(-0.0431728 0.00117256 0)
(-0.0441259 0.00118525 0)
(-0.0450882 0.00119757 0)
(-0.0460594 0.00120942 0)
(-0.0470388 0.00122069 0)
(-0.048026 0.00123127 0)
(-0.0490202 0.00124104 0)
(-0.0500208 0.00124987 0)
(-0.0510269 0.00125761 0)
(-0.0520375 0.00126413 0)
(-0.0530515 0.00126926 0)
(-0.0540676 0.00127285 0)
(-0.0550846 0.00127474 0)
(-0.0561009 0.00127473 0)
(-0.0571149 0.00127265 0)
(-0.0581247 0.0012683 0)
(-0.0591286 0.00126149 0)
(-0.0601243 0.00125201 0)
(-0.0611096 0.00123965 0)
(-0.0620821 0.00122421 0)
(-0.0630393 0.00120545 0)
(-0.0639782 0.00118316 0)
(-0.0648962 0.00115712 0)
(-0.0657899 0.0011271 0)
(-0.0666563 0.00109288 0)
(-0.0674917 0.00105426 0)
(-0.0682928 0.00101101 0)
(-0.0690557 0.000962926 0)
(-0.0697766 0.000909822 0)
(-0.0704514 0.000851514 0)
(-0.071076 0.000787834 0)
(-0.0716461 0.000718636 0)
(-0.0721575 0.000643793 0)
(-0.0726056 0.000563204 0)
(-0.072986 0.000476798 0)
(-0.0732942 0.000384533 0)
(-0.0735257 0.000286406 0)
(-0.0736761 0.000182453 0)
(-0.0737409 7.27542e-05 0)
(-0.0737158 -4.25636e-05 0)
(-0.0735966 -0.000163321 0)
(-0.0733794 -0.000289285 0)
(-0.0730603 -0.000420161 0)
(-0.0726358 -0.000555597 0)
(-0.0721028 -0.000695173 0)
(-0.0714583 -0.000838405 0)
(-0.0707001 -0.000984739 0)
(-0.069826 -0.00113355 0)
(-0.0688347 -0.00128416 0)
(-0.0677252 -0.00143579 0)
(-0.0664974 -0.00158762 0)
(-0.0651516 -0.00173876 0)
(-0.0636888 -0.00188826 0)
(-0.0621111 -0.00203511 0)
(-0.060421 -0.00217826 0)
(-0.058622 -0.0023166 0)
(-0.0567184 -0.002449 0)
(-0.0547154 -0.00257432 0)
(-0.0526191 -0.00269137 0)
(-0.0504364 -0.00279899 0)
(-0.0481751 -0.00289604 0)
(-0.045844 -0.00298137 0)
(-0.0434525 -0.0030539 0)
(-0.041011 -0.0031126 0)
(-0.0385306 -0.0031565 0)
(-0.0360229 -0.00318472 0)
(-0.0335005 -0.00319647 0)
(-0.0309761 -0.00319109 0)
(-0.0284632 -0.00316803 0)
(-0.0259756 -0.00312686 0)
(-0.0235272 -0.00306731 0)
(-0.0211321 -0.00298925 0)
(-0.0188045 -0.00289273 0)
(-0.0165584 -0.00277792 0)
(-0.0144076 -0.00264519 0)
(-0.0123655 -0.00249507 0)
(-0.0104451 -0.00232829 0)
(-0.00865854 -0.00214575 0)
(-0.00701712 -0.0019486 0)
(-0.00553113 -0.00173822 0)
(-0.00420953 -0.00151634 0)
(-0.00305964 -0.0012851 0)
(-0.00208677 -0.00104728 0)
(-0.00129366 -0.000806511 0)
(-0.000679786 -0.000567736 0)
(-0.000240291 -0.000337896 0)
(3.53232e-05 -0.000126935 0)
(0.000164727 5.0694e-05 0)
(0.000174892 0.000174128 0)
(0.000109059 0.000213772 0)
(3.19574e-05 0.000128933 0)
(1.13508e-05 -7.10377e-05 0)
(4.1988e-05 -0.000131687 0)
(7.45745e-05 -0.000130594 0)
(8.51794e-05 -8.4307e-05 0)
(5.76562e-05 -6.15653e-06 0)
(-1.83824e-05 9.31512e-05 0)
(-0.000150099 0.000205342 0)
(-0.000341943 0.000324192 0)
(-0.000596086 0.000445122 0)
(-0.00091293 0.000564788 0)
(-0.00129151 0.000680809 0)
(-0.00172982 0.000791531 0)
(-0.00222515 0.000895843 0)
(-0.00277425 0.000993056 0)
(-0.00337356 0.00108281 0)
(-0.00401934 0.00116496 0)
(-0.00470776 0.00123959 0)
(-0.00543502 0.0013069 0)
(-0.00619744 0.00136718 0)
(-0.00699143 0.00142081 0)
(-0.00781362 0.00146823 0)
(-0.00866084 0.0015099 0)
(-0.00953015 0.00154629 0)
(-0.0104188 0.00157789 0)
(-0.0113244 0.00160519 0)
(-0.0122447 0.00162865 0)
(-0.0131777 0.00164873 0)
(-0.0141216 0.00166587 0)
(-0.0150749 0.00168048 0)
(-0.0160364 0.00169295 0)
(-0.0170048 0.00170363 0)
(-0.0179793 0.00171286 0)
(-0.018959 0.00172095 0)
(-0.0199434 0.00172817 0)
(-0.020932 0.00173478 0)
(-0.0219245 0.00174101 0)
(-0.0229206 0.00174705 0)
(-0.0239204 0.0017531 0)
(-0.0249237 0.00175931 0)
(-0.0259306 0.00176583 0)
(-0.0269413 0.00177277 0)
(-0.0279561 0.00178025 0)
(-0.0289751 0.00178836 0)
(-0.0299988 0.00179717 0)
(-0.0310275 0.00180676 0)
(-0.0320615 0.00181717 0)
(-0.0331014 0.00182845 0)
(-0.0341476 0.00184062 0)
(-0.0352005 0.00185372 0)
(-0.0362606 0.00186775 0)
(-0.0373284 0.00188273 0)
(-0.0384044 0.00189866 0)
(-0.039489 0.00191551 0)
(-0.0405829 0.00193328 0)
(-0.0416863 0.00195195 0)
(-0.0427998 0.00197148 0)
(-0.0439238 0.00199184 0)
(-0.0450587 0.00201299 0)
(-0.0462048 0.00203486 0)
(-0.0473626 0.0020574 0)
(-0.0485323 0.00208054 0)
(-0.0497142 0.00210421 0)
(-0.0509085 0.00212832 0)
(-0.0521153 0.00215277 0)
(-0.0533348 0.00217746 0)
(-0.054567 0.00220228 0)
(-0.0558119 0.0022271 0)
(-0.0570693 0.00225178 0)
(-0.0583392 0.00227619 0)
(-0.0596211 0.00230015 0)
(-0.0609148 0.00232349 0)
(-0.0622198 0.00234604 0)
(-0.0635355 0.0023676 0)
(-0.0648613 0.00238794 0)
(-0.0661962 0.00240685 0)
(-0.0675393 0.00242409 0)
(-0.0688897 0.00243939 0)
(-0.070246 0.0024525 0)
(-0.0716068 0.00246313 0)
(-0.0729706 0.00247097 0)
(-0.0743358 0.00247572 0)
(-0.0757004 0.00247705 0)
(-0.0770623 0.00247461 0)
(-0.0784193 0.00246805 0)
(-0.079769 0.002457 0)
(-0.0811086 0.00244108 0)
(-0.0824353 0.00241991 0)
(-0.0837461 0.00239307 0)
(-0.0850377 0.00236017 0)
(-0.0863065 0.00232079 0)
(-0.0875489 0.00227451 0)
(-0.0887609 0.00222092 0)
(-0.0899383 0.00215959 0)
(-0.0910768 0.00209012 0)
(-0.0921719 0.00201211 0)
(-0.0932187 0.00192515 0)
(-0.0942123 0.00182888 0)
(-0.0951475 0.00172294 0)
(-0.096019 0.001607 0)
(-0.0968214 0.00148076 0)
(-0.0975491 0.00134397 0)
(-0.0981964 0.00119641 0)
(-0.0987575 0.0010379 0)
(-0.0992266 0.000868336 0)
(-0.0995978 0.000687667 0)
(-0.0998653 0.000495913 0)
(-0.100023 0.000293169 0)
(-0.100066 7.96175e-05 0)
(-0.0999887 -0.000144472 0)
(-0.099785 -0.00037873 0)
(-0.0994503 -0.000622684 0)
(-0.0989797 -0.000875749 0)
(-0.0983689 -0.00113723 0)
(-0.0976139 -0.0014063 0)
(-0.0967111 -0.00168203 0)
(-0.0956576 -0.00196333 0)
(-0.0944511 -0.00224902 0)
(-0.0930899 -0.00253777 0)
(-0.0915731 -0.00282812 0)
(-0.0899006 -0.0031185 0)
(-0.0880731 -0.00340721 0)
(-0.0860924 -0.00369246 0)
(-0.0839609 -0.00397234 0)
(-0.0816825 -0.00424485 0)
(-0.0792618 -0.00450793 0)
(-0.0767047 -0.00475945 0)
(-0.074018 -0.00499724 0)
(-0.0712099 -0.00521912 0)
(-0.0682894 -0.00542289 0)
(-0.0652669 -0.0056064 0)
(-0.0621538 -0.00576754 0)
(-0.0589625 -0.00590428 0)
(-0.0557065 -0.00601468 0)
(-0.0524002 -0.00609696 0)
(-0.049059 -0.00614948 0)
(-0.0456988 -0.00617077 0)
(-0.0423365 -0.00615959 0)
(-0.0389895 -0.00611493 0)
(-0.0356756 -0.00603601 0)
(-0.0324128 -0.00592235 0)
(-0.0292194 -0.00577373 0)
(-0.0261137 -0.00559024 0)
(-0.0231139 -0.00537229 0)
(-0.0202377 -0.00512063 0)
(-0.0175024 -0.00483632 0)
(-0.0149244 -0.00452082 0)
(-0.0125194 -0.00417599 0)
(-0.0103017 -0.0038041 0)
(-0.00828429 -0.00340801 0)
(-0.00647814 -0.00299118 0)
(-0.00489221 -0.00255795 0)
(-0.00353272 -0.00211377 0)
(-0.00240255 -0.0016657 0)
(-0.00150052 -0.00122298 0)
(-0.000820302 -0.000798095 0)
(-0.000349205 -0.000408053 0)
(-6.67846e-05 -7.63344e-05 0)
(5.68871e-05 0.00016495 0)
(6.63549e-05 0.000272365 0)
(2.46373e-05 0.000184539 0)
(8.80311e-06 -9.17386e-05 0)
(2.70116e-05 -0.000158387 0)
(3.35439e-05 -0.000138918 0)
(5.94976e-06 -5.66557e-05 0)
(-7.15153e-05 7.04499e-05 0)
(-0.000209424 0.000227914 0)
(-0.000415085 0.0004043 0)
(-0.000693081 0.00059081 0)
(-0.00104568 0.000780761 0)
(-0.00147327 0.000969165 0)
(-0.00197475 0.00115237 0)
(-0.00254789 0.00132776 0)
(-0.00318961 0.00149353 0)
(-0.00389622 0.00164854 0)
(-0.00466362 0.00179212 0)
(-0.00548748 0.00192398 0)
(-0.00636333 0.00204416 0)
(-0.00728674 0.00215289 0)
(-0.00825332 0.0022506 0)
(-0.00925885 0.00233783 0)
(-0.0102993 0.00241523 0)
(-0.0113708 0.00248348 0)
(-0.01247 0.00254331 0)
(-0.0135934 0.00259547 0)
(-0.014738 0.00264071 0)
(-0.0159013 0.00267976 0)
(-0.0170807 0.00271334 0)
(-0.0182741 0.00274212 0)
(-0.0194795 0.00276677 0)
(-0.0206954 0.00278789 0)
(-0.0219202 0.00280606 0)
(-0.0231529 0.00282181 0)
(-0.0243924 0.00283563 0)
(-0.025638 0.00284797 0)
(-0.0268891 0.00285923 0)
(-0.0281451 0.00286979 0)
(-0.0294059 0.00287998 0)
(-0.0306711 0.00289009 0)
(-0.0319409 0.00290039 0)
(-0.0332152 0.00291111 0)
(-0.0344942 0.00292246 0)
(-0.0357782 0.0029346 0)
(-0.0370673 0.00294769 0)
(-0.0383621 0.00296187 0)
(-0.0396629 0.00297723 0)
(-0.0409702 0.00299386 0)
(-0.0422845 0.00301185 0)
(-0.0436062 0.00303124 0)
(-0.0449361 0.00305206 0)
(-0.0462745 0.00307436 0)
(-0.0476221 0.00309813 0)
(-0.0489794 0.00312337 0)
(-0.0503471 0.00315008 0)
(-0.0517256 0.00317821 0)
(-0.0531156 0.00320774 0)
(-0.0545175 0.00323862 0)
(-0.0559318 0.00327077 0)
(-0.0573589 0.00330413 0)
(-0.0587995 0.00333861 0)
(-0.0602537 0.00337411 0)
(-0.0617219 0.0034105 0)
(-0.0632045 0.00344767 0)
(-0.0647015 0.00348548 0)
(-0.0662133 0.00352375 0)
(-0.0677399 0.00356233 0)
(-0.0692812 0.00360102 0)
(-0.0708371 0.00363961 0)
(-0.0724076 0.00367788 0)
(-0.0739922 0.00371559 0)
(-0.0755907 0.00375247 0)
(-0.0772024 0.00378824 0)
(-0.0788267 0.0038226 0)
(-0.0804629 0.00385522 0)
(-0.0821101 0.00388575 0)
(-0.083767 0.00391383 0)
(-0.0854326 0.00393906 0)
(-0.0871053 0.00396104 0)
(-0.0887837 0.00397932 0)
(-0.0904658 0.00399344 0)
(-0.0921498 0.00400293 0)
(-0.0938334 0.00400726 0)
(-0.0955143 0.00400593 0)
(-0.0971898 0.00399837 0)
(-0.0988571 0.00398401 0)
(-0.100513 0.00396228 0)
(-0.102154 0.00393256 0)
(-0.103777 0.00389422 0)
(-0.105378 0.00384665 0)
(-0.106953 0.00378918 0)
(-0.108498 0.00372117 0)
(-0.110007 0.00364196 0)
(-0.111476 0.0035509 0)
(-0.1129 0.00344733 0)
(-0.114274 0.00333062 0)
(-0.115592 0.00320013 0)
(-0.116848 0.00305526 0)
(-0.118036 0.00289544 0)
(-0.119149 0.00272012 0)
(-0.120183 0.00252881 0)
(-0.121129 0.00232106 0)
(-0.121981 0.00209649 0)
(-0.122732 0.00185479 0)
(-0.123376 0.00159572 0)
(-0.123905 0.00131914 0)
(-0.124312 0.00102501 0)
(-0.124591 0.000713393 0)
(-0.124734 0.000384486 0)
(-0.124735 3.8616e-05 0)
(-0.124588 -0.000323749 0)
(-0.124285 -0.000701984 0)
(-0.123822 -0.0010953 0)
(-0.123193 -0.00150274 0)
(-0.122392 -0.00192316 0)
(-0.121415 -0.00235523 0)
(-0.120258 -0.00279742 0)
(-0.118918 -0.00324802 0)
(-0.117392 -0.00370512 0)
(-0.115679 -0.00416658 0)
(-0.113777 -0.00463011 0)
(-0.111687 -0.0050932 0)
(-0.109409 -0.00555318 0)
(-0.106947 -0.0060072 0)
(-0.104303 -0.00645225 0)
(-0.101482 -0.0068852 0)
(-0.0984898 -0.0073028 0)
(-0.0953339 -0.00770171 0)
(-0.0920224 -0.00807853 0)
(-0.0885652 -0.00842984 0)
(-0.0849734 -0.00875222 0)
(-0.0812594 -0.0090423 0)
(-0.0774369 -0.00929677 0)
(-0.0735208 -0.00951248 0)
(-0.0695274 -0.0096864 0)
(-0.0654738 -0.00981575 0)
(-0.0613784 -0.00989797 0)
(-0.0572604 -0.00993079 0)
(-0.0531398 -0.00991227 0)
(-0.0490373 -0.00984084 0)
(-0.0449742 -0.00971532 0)
(-0.0409721 -0.00953495 0)
(-0.0370527 -0.00929946 0)
(-0.0332377 -0.00900901 0)
(-0.0295488 -0.00866432 0)
(-0.026007 -0.00826661 0)
(-0.0226327 -0.00781768 0)
(-0.0194456 -0.00731993 0)
(-0.0164639 -0.00677643 0)
(-0.0137045 -0.00619098 0)
(-0.0111825 -0.00556825 0)
(-0.00891062 -0.00491397 0)
(-0.00689917 -0.00423519 0)
(-0.00515511 -0.00354065 0)
(-0.00368163 -0.00284144 0)
(-0.00247734 -0.00215171 0)
(-0.00153535 -0.00148992 0)
(-0.000842225 -0.000880361 0)
(-0.000376809 -0.000355303 0)
(-0.000108792 4.26652e-05 0)
(3.37288e-06 0.000257576 0)
(1.32348e-05 0.000210632 0)
(5.29267e-06 -0.000102908 0)
(6.62283e-06 -0.000160766 0)
(-2.12082e-05 -0.000109699 0)
(-9.7192e-05 2.10656e-05 0)
(-0.000235607 0.000209229 0)
(-0.000446563 0.000436702 0)
(-0.000737006 0.000689019 0)
(-0.00111123 0.000954827 0)
(-0.00157128 0.00122536 0)
(-0.00211732 0.00149392 0)
(-0.00274802 0.0017555 0)
(-0.00346086 0.00200647 0)
(-0.00425241 0.00224425 0)
(-0.00511857 0.00246714 0)
(-0.00605479 0.00267413 0)
(-0.00705625 0.00286475 0)
(-0.00811795 0.00303892 0)
(-0.00923491 0.00319695 0)
(-0.0104022 0.00333935 0)
(-0.011615 0.00346685 0)
(-0.0128687 0.00358029 0)
(-0.014159 0.00368062 0)
(-0.0154819 0.00376886 0)
(-0.0168335 0.00384603 0)
(-0.0182104 0.00391318 0)
(-0.0196095 0.00397134 0)
(-0.0210278 0.00402153 0)
(-0.022463 0.00406471 0)
(-0.0239126 0.00410181 0)
(-0.0253748 0.00413371 0)
(-0.026848 0.00416122 0)
(-0.0283306 0.00418512 0)
(-0.0298215 0.00420611 0)
(-0.0313198 0.00422484 0)
(-0.0328246 0.0042419 0)
(-0.0343355 0.00425783 0)
(-0.035852 0.00427311 0)
(-0.0373738 0.00428818 0)
(-0.038901 0.00430343 0)
(-0.0404335 0.00431919 0)
(-0.0419714 0.00433576 0)
(-0.0435149 0.00435341 0)
(-0.0450645 0.00437235 0)
(-0.0466205 0.00439279 0)
(-0.0481833 0.00441488 0)
(-0.0497534 0.00443875 0)
(-0.0513314 0.00446451 0)
(-0.0529179 0.00449224 0)
(-0.0545135 0.00452199 0)
(-0.0561187 0.00455382 0)
(-0.0577343 0.00458772 0)
(-0.0593608 0.00462371 0)
(-0.0609989 0.00466174 0)
(-0.0626492 0.0047018 0)
(-0.0643123 0.00474381 0)
(-0.0659888 0.0047877 0)
(-0.0676792 0.00483338 0)
(-0.069384 0.00488072 0)
(-0.0711037 0.00492961 0)
(-0.0728386 0.00497989 0)
(-0.0745892 0.00503138 0)
(-0.0763556 0.00508389 0)
(-0.0781382 0.00513722 0)
(-0.079937 0.00519112 0)
(-0.081752 0.00524534 0)
(-0.0835832 0.00529959 0)
(-0.0854304 0.00535356 0)
(-0.0872934 0.00540693 0)
(-0.0891717 0.00545932 0)
(-0.0910648 0.00551036 0)
(-0.092972 0.00555961 0)
(-0.0948925 0.00560664 0)
(-0.0968252 0.00565096 0)
(-0.098769 0.00569207 0)
(-0.100723 0.00572943 0)
(-0.102684 0.00576245 0)
(-0.104653 0.00579054 0)
(-0.106625 0.00581305 0)
(-0.108601 0.00582932 0)
(-0.110576 0.00583865 0)
(-0.112548 0.00584029 0)
(-0.114515 0.00583348 0)
(-0.116473 0.00581743 0)
(-0.118419 0.00579132 0)
(-0.120349 0.0057543 0)
(-0.122259 0.0057055 0)
(-0.124145 0.00564403 0)
(-0.126003 0.00556898 0)
(-0.127827 0.00547942 0)
(-0.129613 0.00537445 0)
(-0.131355 0.00525311 0)
(-0.133047 0.00511449 0)
(-0.134683 0.00495767 0)
(-0.136258 0.00478174 0)
(-0.137765 0.00458584 0)
(-0.139196 0.00436912 0)
(-0.140545 0.00413078 0)
(-0.141805 0.00387009 0)
(-0.142969 0.00358636 0)
(-0.144028 0.003279 0)
(-0.144975 0.0029475 0)
(-0.145802 0.00259145 0)
(-0.146501 0.00221056 0)
(-0.147065 0.00180468 0)
(-0.147486 0.0013738 0)
(-0.147755 0.000918059 0)
(-0.147865 0.000437792 0)
(-0.147808 -6.64859e-05 0)
(-0.147578 -0.000594052 0)
(-0.147167 -0.00114396 0)
(-0.146568 -0.00171505 0)
(-0.145776 -0.00230589 0)
(-0.144785 -0.00291481 0)
(-0.14359 -0.00353987 0)
(-0.142186 -0.00417887 0)
(-0.140571 -0.00482931 0)
(-0.13874 -0.00548844 0)
(-0.136694 -0.00615322 0)
(-0.13443 -0.00682035 0)
(-0.13195 -0.00748625 0)
(-0.129254 -0.00814709 0)
(-0.126346 -0.00879884 0)
(-0.12323 -0.00943722 0)
(-0.119911 -0.0100578 0)
(-0.116396 -0.0106559 0)
(-0.112693 -0.0112269 0)
(-0.108812 -0.011766 0)
(-0.104765 -0.0122682 0)
(-0.100563 -0.0127288 0)
(-0.0962223 -0.0131431 0)
(-0.091757 -0.0135063 0)
(-0.0871847 -0.013814 0)
(-0.0825237 -0.0140619 0)
(-0.0777938 -0.0142462 0)
(-0.0730157 -0.0143631 0)
(-0.0682113 -0.0144096 0)
(-0.0634034 -0.0143829 0)
(-0.0586154 -0.0142807 0)
(-0.0538715 -0.0141015 0)
(-0.0491961 -0.0138442 0)
(-0.0446141 -0.0135084 0)
(-0.04015 -0.0130944 0)
(-0.0358282 -0.0126033 0)
(-0.0316728 -0.0120369 0)
(-0.0277068 -0.011398 0)
(-0.0239523 -0.0106899 0)
(-0.0204299 -0.00991729 0)
(-0.0171588 -0.00908573 0)
(-0.0141557 -0.00820207 0)
(-0.011435 -0.00727463 0)
(-0.00900817 -0.00631358 0)
(-0.00688305 -0.00533139 0)
(-0.00506343 -0.0043435 0)
(-0.00354829 -0.00336924 0)
(-0.00233107 -0.00243312 0)
(-0.00139888 -0.00156648 0)
(-0.000731474 -0.000809699 0)
(-0.000300155 -0.000214558 0)
(-6.93602e-05 0.000152539 0)
(3.2482e-07 0.000200085 0)
(1.28009e-06 -0.000102447 0)
(-1.71464e-05 -0.000133336 0)
(-8.51901e-05 -3.52187e-05 0)
(-0.000217133 0.000157895 0)
(-0.000424968 0.000419867 0)
(-0.000717829 0.000729329 0)
(-0.00110187 0.00106899 0)
(-0.00158074 0.00142509 0)
(-0.00215596 0.00178685 0)
(-0.00282728 0.00214589 0)
(-0.00359298 0.00249588 0)
(-0.00445016 0.0028321 0)
(-0.00539503 0.00315119 0)
(-0.00642307 0.00345086 0)
(-0.00752932 0.00372971 0)
(-0.00870851 0.00398704 0)
(-0.00995518 0.0042227 0)
(-0.0112639 0.00443699 0)
(-0.0126292 0.00463053 0)
(-0.0140458 0.00480422 0)
(-0.0155087 0.00495914 0)
(-0.017013 0.00509651 0)
(-0.0185543 0.00521762 0)
(-0.0201283 0.00532382 0)
(-0.0217312 0.00541649 0)
(-0.0233595 0.00549697 0)
(-0.0250099 0.00556661 0)
(-0.0266795 0.0056267 0)
(-0.0283659 0.00567846 0)
(-0.0300668 0.00572306 0)
(-0.0317803 0.00576162 0)
(-0.0335047 0.00579515 0)
(-0.0352388 0.0058246 0)
(-0.0369813 0.00585086 0)
(-0.0387313 0.00587473 0)
(-0.0404882 0.00589693 0)
(-0.0422515 0.00591813 0)
(-0.0440209 0.0059389 0)
(-0.0457962 0.00595979 0)
(-0.0475774 0.00598126 0)
(-0.0493646 0.00600372 0)
(-0.051158 0.00602753 0)
(-0.0529579 0.006053 0)
(-0.0547648 0.00608039 0)
(-0.0565791 0.00610993 0)
(-0.0584014 0.00614179 0)
(-0.0602322 0.00617612 0)
(-0.0620721 0.00621304 0)
(-0.0639218 0.00625263 0)
(-0.065782 0.00629494 0)
(-0.0676533 0.00633999 0)
(-0.0695364 0.00638777 0)
(-0.071432 0.00643826 0)
(-0.0733407 0.00649139 0)
(-0.0752632 0.00654709 0)
(-0.0772001 0.00660524 0)
(-0.079152 0.00666572 0)
(-0.0811193 0.00672835 0)
(-0.0831026 0.00679297 0)
(-0.0851022 0.00685935 0)
(-0.0871185 0.00692725 0)
(-0.0891517 0.00699642 0)
(-0.0912021 0.00706654 0)
(-0.0932696 0.00713728 0)
(-0.0953544 0.0072083 0)
(-0.0974561 0.0072792 0)
(-0.0995746 0.00734954 0)
(-0.10171 0.00741888 0)
(-0.10386 0.00748669 0)
(-0.106026 0.00755246 0)
(-0.108206 0.00761559 0)
(-0.1104 0.00767548 0)
(-0.112605 0.00773147 0)
(-0.114821 0.00778286 0)
(-0.117046 0.00782891 0)
(-0.119278 0.00786883 0)
(-0.121516 0.0079018 0)
(-0.123756 0.00792694 0)
(-0.125996 0.00794336 0)
(-0.128234 0.00795008 0)
(-0.130466 0.00794613 0)
(-0.13269 0.00793046 0)
(-0.1349 0.00790201 0)
(-0.137094 0.00785966 0)
(-0.139268 0.00780228 0)
(-0.141416 0.0077287 0)
(-0.143533 0.00763773 0)
(-0.145616 0.00752817 0)
(-0.147657 0.00739878 0)
(-0.149652 0.00724833 0)
(-0.151594 0.00707561 0)
(-0.153477 0.00687937 0)
(-0.155294 0.00665841 0)
(-0.157039 0.00641156 0)
(-0.158702 0.00613767 0)
(-0.160279 0.00583566 0)
(-0.161759 0.00550448 0)
(-0.163136 0.0051432 0)
(-0.164401 0.00475094 0)
(-0.165546 0.00432697 0)
(-0.166562 0.00387063 0)
(-0.167441 0.00338146 0)
(-0.168174 0.00285911 0)
(-0.168751 0.00230344 0)
(-0.169166 0.0017145 0)
(-0.169409 0.00109254 0)
(-0.169471 0.000438071 0)
(-0.169345 -0.000248165 0)
(-0.169022 -0.00096514 0)
(-0.168496 -0.00171154 0)
(-0.167758 -0.00248573 0)
(-0.166803 -0.00328578 0)
(-0.165625 -0.00410939 0)
(-0.164217 -0.00495395 0)
(-0.162577 -0.00581646 0)
(-0.160699 -0.00669358 0)
(-0.158582 -0.0075816 0)
(-0.156223 -0.00847646 0)
(-0.153622 -0.00937373 0)
(-0.150781 -0.0102686 0)
(-0.147699 -0.0111561 0)
(-0.144382 -0.0120308 0)
(-0.140833 -0.012887 0)
(-0.137059 -0.0137188 0)
(-0.133067 -0.0145201 0)
(-0.128867 -0.0152846 0)
(-0.124469 -0.0160061 0)
(-0.119886 -0.0166781 0)
(-0.115133 -0.0172942 0)
(-0.110224 -0.0178481 0)
(-0.105177 -0.0183337 0)
(-0.100011 -0.018745 0)
(-0.0947463 -0.0190766 0)
(-0.0894042 -0.019323 0)
(-0.0840077 -0.0194797 0)
(-0.078581 -0.0195424 0)
(-0.0731489 -0.0195075 0)
(-0.0677375 -0.019372 0)