/*--------------------------------*- C++ -*----------------------------------*\
  =========                 |
  \\      /  F ield         | OpenFOAM: The Open Source CFD Toolbox
   \\    /   O peration     | Website:  https://openfoam.org
    \\  /    A nd           | Version:  7
     \\/     M anipulation  |
\*---------------------------------------------------------------------------*/
FoamFile
{
    version     2.0;
    format      ascii;
    class       volScalarField;
    location    "0.0125";
    object      p;
}
// * * * * * * * * * * * * * * * * * * * * * * * * * * * * * * * * * * * * * //

dimensions      [0 2 -2 0 0 0 0];

internalField   nonuniform List<scalar> 
51200
(
-4.79013e-09
-2.91341e-05
-7.21696e-05
-0.000114189
-0.000148509
-0.000177282
-0.000201698
-0.000222791
-0.000241369
-0.00025795
-0.000272729
-0.000285766
-0.000297293
-0.000307665
-0.000317114
-0.000325664
-0.000333269
-0.000339974
-0.000345957
-0.000351391
-0.000356317
-0.000360688
-0.000364483
-0.000367747
-0.000370564
-0.000373004
-0.000375085
-0.000376781
-0.000378071
-0.000378969
-0.00037953
-0.000379803
-0.000379802
-0.000379506
-0.000378889
-0.000377946
-0.000376704
-0.000375209
-0.000373498
-0.000371567
-0.000369374
-0.000366892
-0.000364146
-0.000361196
-0.000358085
-0.000354797
-0.000351286
-0.000347526
-0.000343536
-0.000339363
-0.000335039
-0.000330559
-0.000325899
-0.000321044
-0.00031601
-0.000310831
-0.000305531
-0.00030011
-0.000294549
-0.000288839
-0.000282993
-0.000277035
-0.00027098
-0.000264819
-0.000258538
-0.00025213
-0.00024561
-0.000238998
-0.000232307
-0.000225529
-0.000218656
-0.000211685
-0.000204632
-0.000197515
-0.000190344
-0.000183117
-0.00017583
-0.000168482
-0.000161084
-0.000153651
-0.000146194
-0.000138715
-0.000131212
-0.000123683
-0.000116137
-0.000108588
-0.000101048
-9.35197e-05
-8.59994e-05
-7.84832e-05
-7.0977e-05
-6.34954e-05
-5.60523e-05
-4.86523e-05
-4.12914e-05
-3.39665e-05
-2.66839e-05
-1.94588e-05
-1.23061e-05
-5.23174e-06
1.76837e-06
8.69983e-06
1.55611e-05
2.23418e-05
2.90298e-05
3.56191e-05
4.2112e-05
4.85138e-05
5.48255e-05
6.10397e-05
6.71433e-05
7.31234e-05
7.89723e-05
8.46887e-05
9.02732e-05
9.57237e-05
0.000101034
0.000106194
0.000111201
0.000116052
0.000120752
0.000125304
0.000129707
0.000133956
0.000138043
0.000141962
0.000145708
0.000149278
0.000152667
0.000155876
0.000158905
0.000161756
0.000164428
0.000166918
0.000169218
0.000171325
0.000173238
0.000174956
0.00017648
0.000177804
0.000178918
0.000179811
0.000180476
0.000180913
0.000181124
0.000181111
0.000180874
0.000180409
0.000179708
0.000178769
0.000177594
0.000176192
0.000174589
0.000172826
0.000170969
0.000169106
0.00016735
0.00016585
0.000164802
0.000164336
-2.81699e-05
-5.74112e-05
-9.29111e-05
-0.000127187
-0.000157087
-0.000182776
-0.000205073
-0.00022458
-0.000241861
-0.000257404
-0.000271461
-0.0002841
-0.000295373
-0.000305465
-0.000314625
-0.000322989
-0.000330545
-0.000337285
-0.000343278
-0.000348647
-0.000353496
-0.000357852
-0.000361696
-0.000365024
-0.000367872
-0.000370304
-0.000372371
-0.000374084
-0.000375429
-0.000376401
-0.000377013
-0.000377296
-0.000377283
-0.000376995
-0.000376427
-0.00037556
-0.000374382
-0.000372916
-0.000371206
-0.000369277
-0.000367124
-0.000364719
-0.000362054
-0.000359149
-0.000356042
-0.000352753
-0.000349281
-0.000345601
-0.000341699
-0.000337583
-0.000333283
-0.000328828
-0.000324221
-0.000319445
-0.000314488
-0.000309364
-0.000304104
-0.000298728
-0.000293231
-0.000287595
-0.000281815
-0.000275909
-0.000269898
-0.00026379
-0.000257572
-0.000251232
-0.000244775
-0.000238218
-0.000231577
-0.000224853
-0.00021804
-0.000211134
-0.000204145
-0.000197087
-0.000189973
-0.000182801
-0.000175572
-0.000168286
-0.000160954
-0.000153586
-0.000146189
-0.000138768
-0.000131323
-0.00012386
-0.000116384
-0.000108905
-0.000101431
-9.3964e-05
-8.65045e-05
-7.90537e-05
-7.16173e-05
-6.42043e-05
-5.68238e-05
-4.9481e-05
-4.2177e-05
-3.49128e-05
-2.76942e-05
-2.0532e-05
-1.34375e-05
-6.41747e-06
5.28166e-07
7.40197e-06
1.4203e-05
2.09244e-05
2.75563e-05
3.40921e-05
4.05317e-05
4.68792e-05
5.31361e-05
5.9297e-05
6.53498e-05
7.12806e-05
7.70798e-05
8.27448e-05
8.82776e-05
9.36785e-05
9.89426e-05
0.000104061
0.000109025
0.000113833
0.000118488
0.000122997
0.000127361
0.000131576
0.000135632
0.000139516
0.000143223
0.000146752
0.000150103
0.000153278
0.000156277
0.000159099
0.000161741
0.000164198
0.000166468
0.000168548
0.000170436
0.000172134
0.000173638
0.000174945
0.000176044
0.000176927
0.000177588
0.000178027
0.00017825
0.000178264
0.00017807
0.000177667
0.000177051
0.000176222
0.000175185
0.000173955
0.00017256
0.000171046
0.000169473
0.000167917
0.000166469
0.000165236
0.000164344
0.000163877
-6.91581e-05
-9.11341e-05
-0.000116717
-0.000143318
-0.000168128
-0.00019042
-0.000210361
-0.000228194
-0.000244168
-0.000258589
-0.000271772
-0.000283842
-0.000294759
-0.000304557
-0.000313401
-0.000321471
-0.000328858
-0.000335547
-0.00034152
-0.000346832
-0.00035159
-0.000355872
-0.000359701
-0.000363057
-0.000365932
-0.000368362
-0.000370399
-0.000372083
-0.000373432
-0.000374444
-0.000375107
-0.000375415
-0.000375398
-0.000375097
-0.000374535
-0.000373704
-0.00037258
-0.00037116
-0.000369465
-0.000367528
-0.000365372
-0.000363004
-0.000360407
-0.000357562
-0.000354477
-0.000351184
-0.000347718
-0.000344082
-0.000340247
-0.00033619
-0.000331924
-0.000327488
-0.00032291
-0.000318184
-0.000313287
-0.000308217
-0.000302997
-0.000297655
-0.000292197
-0.000286612
-0.000280887
-0.00027503
-0.000269059
-0.000262985
-0.000256806
-0.000250515
-0.000244111
-0.000237605
-0.000231006
-0.00022432
-0.000217547
-0.00021069
-0.000203755
-0.00019675
-0.000189682
-0.000182552
-0.000175363
-0.000168124
-0.000160845
-0.000153531
-0.000146185
-0.000138809
-0.000131408
-0.000123994
-0.000116576
-0.000109159
-0.000101741
-9.43237e-05
-8.69107e-05
-7.95103e-05
-7.21307e-05
-6.47768e-05
-5.74504e-05
-5.01533e-05
-4.28903e-05
-3.56692e-05
-2.84995e-05
-2.13892e-05
-1.43438e-05
-7.3667e-06
-4.59966e-07
6.37361e-06
1.31296e-05
1.98022e-05
2.63856e-05
3.28768e-05
3.92756e-05
4.55832e-05
5.17984e-05
5.79147e-05
6.39213e-05
6.98065e-05
7.55622e-05
8.11859e-05
8.66783e-05
9.20393e-05
9.72641e-05
0.000102345
0.000107273
0.000112046
0.000116668
0.000121145
0.00012548
0.000129669
0.0001337
0.000137558
0.000141236
0.000144732
0.000148053
0.000151201
0.000154177
0.000156977
0.000159595
0.000162027
0.000164271
0.000166328
0.000168199
0.000169882
0.000171374
0.00017267
0.00017376
0.000174637
0.000175297
0.000175742
0.00017598
0.000176018
0.000175863
0.000175514
0.000174967
0.000174222
0.000173285
0.000172174
0.000170921
0.000169567
0.000168169
0.000166788
0.000165497
0.000164372
0.000163482
0.000162859
-0.000108162
-0.000122987
-0.000141109
-0.000161098
-0.000181021
-0.000199762
-0.000217132
-0.000233165
-0.000247833
-0.000261191
-0.000273438
-0.000284743
-0.000295153
-0.000304629
-0.000313187
-0.000320953
-0.000328062
-0.000334565
-0.00034045
-0.000345716
-0.000350406
-0.000354594
-0.000358338
-0.000361649
-0.000364523
-0.000366965
-0.000368993
-0.00037064
-0.000371949
-0.000372944
-0.000373619
-0.000373959
-0.000373968
-0.00037367
-0.000373089
-0.000372242
-0.000371134
-0.00036976
-0.00036811
-0.000366186
-0.000364017
-0.00036164
-0.000359064
-0.000356268
-0.000353231
-0.000349964
-0.000346502
-0.000342868
-0.000339056
-0.000335046
-0.000330832
-0.000326433
-0.000321874
-0.000317164
-0.000312302
-0.000307283
-0.000302112
-0.000296804
-0.000291367
-0.000285806
-0.00028012
-0.000274312
-0.000268383
-0.000262337
-0.000256179
-0.000249916
-0.000243553
-0.000237093
-0.000230536
-0.000223883
-0.00021714
-0.000210317
-0.000203425
-0.000196467
-0.00018944
-0.000182345
-0.000175188
-0.000167984
-0.000160745
-0.000153476
-0.000146173
-0.000138835
-0.000131472
-0.000124098
-0.000116726
-0.000109358
-0.00010199
-9.4617e-05
-8.72443e-05
-7.98844e-05
-7.25495e-05
-6.52444e-05
-5.79656e-05
-5.07094e-05
-4.348e-05
-3.62904e-05
-2.91559e-05
-2.20859e-05
-1.50817e-05
-8.14099e-06
-1.26458e-06
5.54057e-06
1.22641e-05
1.8898e-05
2.54397e-05
3.18914e-05
3.82561e-05
4.45329e-05
5.07156e-05
5.67939e-05
6.27573e-05
6.85978e-05
7.43125e-05
7.99007e-05
8.53616e-05
9.06912e-05
9.58824e-05
0.000100928
0.000105823
0.000110568
0.000115166
0.000119621
0.000123935
0.000128101
0.000132109
0.000135945
0.0001396
0.000143074
0.000146371
0.000149496
0.000152452
0.000155232
0.000157831
0.000160243
0.000162468
0.000164507
0.000166363
0.000168035
0.000169519
0.000170807
0.000171892
0.000172766
0.000173428
0.000173882
0.000174135
0.000174198
0.000174075
0.000173769
0.000173277
0.000172595
0.000171731
0.000170701
0.000169537
0.00016828
0.000166977
0.000165678
0.000164439
0.000163316
0.000162317
0.000161426
-0.000138939
-0.000150025
-0.000163434
-0.000178653
-0.000194575
-0.000210148
-0.000225018
-0.000239118
-0.000252393
-0.000264731
-0.000276094
-0.000286593
-0.000296347
-0.000305367
-0.000313622
-0.000321126
-0.000327953
-0.000334194
-0.000339893
-0.000345052
-0.000349674
-0.000353785
-0.000357429
-0.000360645
-0.000363459
-0.000365876
-0.000367896
-0.000369535
-0.000370817
-0.000371769
-0.000372409
-0.000372744
-0.000372776
-0.000372502
-0.000371921
-0.000371054
-0.000369928
-0.000368559
-0.000366937
-0.000365049
-0.0003629
-0.000360519
-0.000357929
-0.000355136
-0.000352133
-0.000348913
-0.000345482
-0.000341851
-0.000338034
-0.000334039
-0.000329869
-0.000325519
-0.000320989
-0.000316291
-0.000311443
-0.000306456
-0.000301331
-0.000296063
-0.000290649
-0.000285104
-0.000279442
-0.000273669
-0.00026778
-0.000261766
-0.00025563
-0.000249388
-0.000243054
-0.00023663
-0.00023011
-0.00022349
-0.000216778
-0.000209987
-0.00020313
-0.000196208
-0.000189216
-0.000182154
-0.00017503
-0.000167859
-0.000160655
-0.000153419
-0.000146151
-0.00013885
-0.000131526
-0.000124192
-0.000116859
-0.00010953
-0.000102201
-9.4869e-05
-8.75371e-05
-8.02171e-05
-7.29212e-05
-6.56542e-05
-5.84129e-05
-5.11929e-05
-4.3997e-05
-3.68385e-05
-2.97343e-05
-2.26957e-05
-1.57239e-05
-8.81491e-06
-1.96797e-06
4.80906e-06
1.15033e-05
1.81047e-05
2.46116e-05
3.10289e-05
3.73616e-05
4.36086e-05
4.97607e-05
5.58048e-05
6.17296e-05
6.75301e-05
7.3207e-05
7.87625e-05
8.41952e-05
8.9498e-05
9.46607e-05
9.96752e-05
0.000104539
0.000109257
0.000113833
0.000118271
0.000122567
0.000126714
0.000130699
0.000134511
0.000138144
0.000141598
0.000144876
0.000147983
0.000150918
0.000153679
0.000156259
0.000158655
0.000160864
0.000162889
0.000164732
0.000166394
0.000167871
0.000169155
0.000170236
0.000171109
0.000171773
0.000172235
0.000172504
0.000172588
0.000172495
0.000172226
0.000171776
0.000171144
0.000170335
0.000169366
0.000168265
0.000167069
0.00016582
0.000164555
0.000163316
0.000162141
0.000160985
0.000159783
-0.000164089
-0.000172715
-0.000183062
-0.000194916
-0.000207765
-0.00022082
-0.000233571
-0.000245868
-0.000257693
-0.000268942
-0.000279478
-0.000289258
-0.000298337
-0.00030679
-0.000314636
-0.000321849
-0.000328428
-0.00033442
-0.000339886
-0.000344862
-0.00034936
-0.000353384
-0.000356944
-0.00036007
-0.000362794
-0.000365134
-0.000367107
-0.000368727
-0.000369999
-0.000370925
-0.000371526
-0.000371827
-0.000371841
-0.000371567
-0.000370998
-0.000370139
-0.000369007
-0.000367616
-0.000365979
-0.000364101
-0.000361985
-0.000359628
-0.000357036
-0.000354226
-0.00035122
-0.000348023
-0.000344627
-0.000341019
-0.000337206
-0.000333213
-0.000329058
-0.000324737
-0.000320239
-0.000315564
-0.00031073
-0.00030576
-0.000300659
-0.000295419
-0.000290035
-0.000284513
-0.000278871
-0.000273119
-0.000267252
-0.000261263
-0.000255155
-0.00024894
-0.00024263
-0.00023623
-0.000229734
-0.000223142
-0.000216461
-0.000209704
-0.000202877
-0.000195982
-0.000189014
-0.000181978
-0.000174886
-0.00016775
-0.000160577
-0.00015337
-0.000146128
-0.000138856
-0.000131568
-0.000124274
-0.000116979
-0.000109681
-0.00010238
-9.50777e-05
-8.77813e-05
-8.05e-05
-7.32403e-05
-6.60038e-05
-5.87885e-05
-5.15946e-05
-4.44282e-05
-3.73017e-05
-3.02288e-05
-2.3218e-05
-1.62709e-05
-9.38609e-06
-2.56577e-06
4.1817e-06
1.08449e-05
1.7416e-05
2.38946e-05
3.02854e-05
3.65919e-05
4.28114e-05
4.89337e-05
5.49461e-05
6.08387e-05
6.66083e-05
7.22564e-05
7.77855e-05
8.31931e-05
8.84712e-05
9.36089e-05
9.85976e-05
0.000103436
0.000108129
0.000112683
0.000117103
0.000121383
0.000125511
0.000129475
0.000133264
0.000136876
0.000140311
0.000143573
0.000146664
0.000149583
0.000152326
0.000154889
0.000157269
0.000159465
0.00016148
0.000163314
0.000164969
0.00016644
0.00016772
0.000168799
0.000169671
0.000170337
0.000170804
0.000171085
0.000171189
0.000171121
0.000170881
0.000170464
0.000169869
0.0001691
0.000168173
0.000167113
0.000165952
0.000164724
0.000163458
0.000162185
0.000160927
0.000159593
0.00015808
-0.000185081
-0.000192061
-0.000200371
-0.000209849
-0.000220326
-0.000231318
-0.000242373
-0.000253184
-0.000263659
-0.000273773
-0.000283443
-0.000292542
-0.000301019
-0.000308912
-0.000316272
-0.00032311
-0.000329408
-0.000335167
-0.000340411
-0.000345179
-0.000349499
-0.000353386
-0.000356846
-0.00035989
-0.000362531
-0.000364785
-0.000366683
-0.000368247
-0.000369481
-0.000370383
-0.000370965
-0.000371238
-0.000371216
-0.000370907
-0.000370324
-0.000369473
-0.000368348
-0.000366948
-0.000365288
-0.000363393
-0.000361278
-0.000358937
-0.00035636
-0.000353553
-0.00035054
-0.000347339
-0.000343948
-0.000340356
-0.000336562
-0.000332582
-0.00032843
-0.000324113
-0.000319627
-0.000314975
-0.000310165
-0.000305211
-0.000300119
-0.000294889
-0.000289524
-0.00028403
-0.000278413
-0.000272677
-0.00026682
-0.000260844
-0.000254758
-0.00024857
-0.000242285
-0.000235902
-0.000229421
-0.000222847
-0.000216192
-0.000209464
-0.000202664
-0.000195789
-0.00018884
-0.000181825
-0.000174759
-0.000167653
-0.00016051
-0.000153327
-0.000146108
-0.000138861
-0.000131602
-0.00012434
-0.000117077
-0.000109806
-0.000102526
-9.52449e-05
-8.79745e-05
-8.0724e-05
-7.34952e-05
-6.62845e-05
-5.90894e-05
-5.19143e-05
-4.4771e-05
-3.76732e-05
-3.0631e-05
-2.36478e-05
-1.67233e-05
-9.85885e-06
-3.06128e-06
3.65859e-06
1.02912e-05
1.68328e-05
2.32861e-05
2.96559e-05
3.59428e-05
4.21404e-05
4.82373e-05
5.42223e-05
6.00886e-05
6.58354e-05
7.14646e-05
7.69758e-05
8.23642e-05
8.76205e-05
9.27347e-05
9.77003e-05
0.000102517
0.00010719
0.000111726
0.000116127
0.000120388
0.000124498
0.000128442
0.000132212
0.000135805
0.000139223
0.00014247
0.000145548
0.000148454
0.000151183
0.000153731
0.000156097
0.000158281
0.000160287
0.000162116
0.000163767
0.000165235
0.000166511
0.000167587
0.000168457
0.000169123
0.000169595
0.000169886
0.000170005
0.000169958
0.000169741
0.000169349
0.00016878
0.000168037
0.000167135
0.000166098
0.000164952
0.000163722
0.000162431
0.0001611
0.000159741
0.000158228
0.000156426
-0.000202983
-0.000208814
-0.000215745
-0.000223608
-0.000232289
-0.000241559
-0.000251156
-0.00026074
-0.000270093
-0.000279166
-0.000287933
-0.000296314
-0.00030422
-0.00031161
-0.000318498
-0.000324918
-0.000330878
-0.000336371
-0.000341395
-0.000345963
-0.000350094
-0.000353813
-0.000357137
-0.000360072
-0.000362623
-0.000364804
-0.000366631
-0.00036812
-0.000369285
-0.00037014
-0.000370694
-0.000370945
-0.000370892
-0.000370547
-0.00036993
-0.000369056
-0.00036792
-0.000366517
-0.000364852
-0.000362944
-0.000360809
-0.000358454
-0.000355878
-0.000353085
-0.000350081
-0.000346872
-0.000343466
-0.000339869
-0.000336087
-0.000332125
-0.000327981
-0.000323658
-0.000319169
-0.000314526
-0.000309737
-0.0003048
-0.000299715
-0.000294487
-0.00028913
-0.000283654
-0.000278058
-0.000272337
-0.000266488
-0.00026052
-0.000254447
-0.000248278
-0.000242011
-0.000235641
-0.000229171
-0.000222611
-0.000215974
-0.000209266
-0.000202485
-0.000195625
-0.000188691
-0.000181696
-0.000174652
-0.00016757
-0.000160449
-0.000153287
-0.000146088
-0.000138863
-0.000131629
-0.000124391
-0.000117149
-0.000109896
-0.000102634
-9.53712e-05
-8.81209e-05
-8.08919e-05
-7.36842e-05
-6.64926e-05
-5.93149e-05
-5.21577e-05
-4.50351e-05
-3.79616e-05
-3.09455e-05
-2.39873e-05
-1.7085e-05
-1.02411e-05
-3.46523e-06
3.23005e-06
9.83596e-06
1.63518e-05
2.2783e-05
2.91348e-05
3.54058e-05
4.15868e-05
4.76646e-05
5.36287e-05
5.94752e-05
6.52057e-05
7.08222e-05
7.63222e-05
8.16974e-05
8.69362e-05
9.20294e-05
9.69734e-05
0.000101771
0.000106427
0.000110948
0.000115333
0.000119577
0.000123668
0.000127593
0.000131346
0.000134923
0.000138329
0.000141565
0.000144632
0.000147527
0.000150244
0.000152779
0.000155132
0.000157306
0.000159305
0.000161132
0.000162782
0.000164249
0.000165522
0.000166592
0.000167458
0.000168124
0.0001686
0.0001689
0.000169032
0.000169
0.000168801
0.000168427
0.000167875
0.000167149
0.000166261
0.000165232
0.000164084
0.000162837
0.000161504
0.000160103
0.000158638
0.000156956
0.0001549
-0.000218635
-0.000223591
-0.000229499
-0.000236234
-0.000243655
-0.000251566
-0.000259863
-0.000268345
-0.000276762
-0.000284959
-0.000292891
-0.00030054
-0.00030785
-0.00031475
-0.000321206
-0.000327227
-0.000332831
-0.000338022
-0.000342798
-0.000347157
-0.000351106
-0.000354658
-0.000357828
-0.000360625
-0.000363065
-0.00036516
-0.000366915
-0.000368332
-0.000369427
-0.000370218
-0.000370717
-0.000370924
-0.000370838
-0.000370467
-0.000369821
-0.000368907
-0.000367733
-0.000366309
-0.00036464
-0.000362729
-0.000360578
-0.000358198
-0.000355605
-0.000352811
-0.000349813
-0.000346604
-0.000343185
-0.000339576
-0.000335791
-0.000331832
-0.000327692
-0.000323368
-0.000318875
-0.000314232
-0.000309447
-0.000304517
-0.000299438
-0.000294215
-0.000288864
-0.000283396
-0.000277807
-0.000272092
-0.00026625
-0.000260291
-0.000254228
-0.000248068
-0.000241807
-0.000235442
-0.00022898
-0.000222432
-0.000215809
-0.000209113
-0.00020234
-0.000195489
-0.000188568
-0.000181591
-0.000174568
-0.000167503
-0.000160396
-0.000153246
-0.000146063
-0.00013886
-0.000131646
-0.000124425
-0.000117194
-0.000109951
-0.000102701
-9.54546e-05
-8.82222e-05
-8.10092e-05
-7.38142e-05
-6.6634e-05
-5.94697e-05
-5.23301e-05
-4.52287e-05
-3.81775e-05
-3.11825e-05
-2.42434e-05
-1.73595e-05
-1.05348e-05
-3.78001e-06
2.89286e-06
9.47669e-06
1.59727e-05
2.23872e-05
2.87248e-05
3.49826e-05
4.11496e-05
4.72125e-05
5.31618e-05
5.89952e-05
6.47154e-05
7.03236e-05
7.58155e-05
8.11803e-05
8.64051e-05
9.14811e-05
9.64068e-05
0.000101187
0.000105831
0.00011034
0.000114714
0.000118944
0.000123017
0.000126925
0.000130663
0.00013423
0.000137628
0.000140858
0.000143917
0.0001468
0.000149504
0.000152026
0.000154368
0.000156535
0.000158532
0.000160358
0.00016201
0.000163475
0.000164745
0.00016581
0.000166671
0.000167336
0.000167817
0.000168125
0.000168269
0.00016825
0.000168062
0.0001677
0.000167159
0.000166441
0.000165558
0.000164528
0.000163368
0.000162092
0.00016071
0.000159233
0.000157664
0.00015583
0.000153557
-0.000232625
-0.000236924
-0.000241979
-0.000247825
-0.000254353
-0.00026127
-0.000268496
-0.000275969
-0.000283524
-0.000290967
-0.000298194
-0.000305172
-0.000311881
-0.000318275
-0.000324309
-0.000329957
-0.000335221
-0.000340105
-0.000344611
-0.000348741
-0.000352497
-0.000355882
-0.000358897
-0.000361554
-0.000363869
-0.000365856
-0.000367517
-0.000368857
-0.000369887
-0.000370615
-0.000371046
-0.000371187
-0.00037105
-0.000370645
-0.000369969
-0.000369017
-0.000367801
-0.000366341
-0.000364649
-0.000362724
-0.00036056
-0.000358163
-0.000355553
-0.000352743
-0.000349732
-0.000346514
-0.000343091
-0.000339476
-0.000335681
-0.000331709
-0.000327559
-0.000323232
-0.000318741
-0.000314097
-0.000309306
-0.000304369
-0.000299287
-0.000294069
-0.000288725
-0.000283258
-0.000277666
-0.000271946
-0.000266105
-0.000260152
-0.000254097
-0.000247938
-0.000241674
-0.000235307
-0.000228848
-0.000222309
-0.000215695
-0.000209004
-0.000202233
-0.000195386
-0.000188474
-0.000181512
-0.000174505
-0.000167452
-0.000160351
-0.000153209
-0.000146036
-0.000138847
-0.000131648
-0.000124438
-0.000117213
-0.000109974
-0.000102731
-9.54971e-05
-8.82798e-05
-8.10797e-05
-7.38932e-05
-6.67192e-05
-5.95639e-05
-5.24389e-05
-4.53569e-05
-3.83256e-05
-3.13471e-05
-2.44208e-05
-1.75485e-05
-1.07378e-05
-4.00034e-06
2.65346e-06
9.21966e-06
1.57017e-05
2.21058e-05
2.84344e-05
3.46819e-05
4.08366e-05
4.68861e-05
5.28237e-05
5.86488e-05
6.43637e-05
6.99675e-05
7.54531e-05
8.08081e-05
8.60202e-05
9.10823e-05
9.5995e-05
0.000100765
0.0001054
0.000109902
0.000114268
0.000118486
0.000122547
0.000126442
0.000130169
0.000133729
0.000137124
0.00014035
0.000143402
0.000146276
0.000148967
0.000151476
0.000153809
0.000155972
0.000157968
0.000159797
0.000161449
0.000162914
0.000164179
0.00016524
0.000166098
0.000166764
0.00016725
0.000167566
0.000167721
0.000167711
0.000167532
0.000167176
0.000166639
0.000165924
0.00016504
0.000164
0.000162821
0.00016151
0.000160074
0.000158522
0.000156857
0.000154889
0.000152434
-0.000245238
-0.000249128
-0.000253544
-0.000258619
-0.000264382
-0.000270565
-0.000276993
-0.000283608
-0.000290351
-0.000297096
-0.000303707
-0.000310105
-0.000316262
-0.000322161
-0.000327767
-0.000333048
-0.000337987
-0.000342576
-0.000346816
-0.000350708
-0.000354256
-0.000357456
-0.000360313
-0.000362835
-0.000365026
-0.000366893
-0.000368443
-0.000369691
-0.000370646
-0.000371305
-0.000371666
-0.000371741
-0.000371543
-0.000371083
-0.000370357
-0.000369366
-0.000368116
-0.000366621
-0.000364892
-0.000362931
-0.000360743
-0.000358335
-0.000355715
-0.000352884
-0.000349847
-0.000346607
-0.000343175
-0.000339556
-0.000335751
-0.00033176
-0.00032759
-0.000323253
-0.00031876
-0.000314114
-0.000309313
-0.00030436
-0.000299268
-0.000294048
-0.000288704
-0.000283233
-0.000277631
-0.000271901
-0.000266055
-0.000260102
-0.000254047
-0.000247883
-0.000241611
-0.000235238
-0.000228779
-0.000222244
-0.000215632
-0.00020894
-0.000202168
-0.000195322
-0.000188417
-0.000181463
-0.000174463
-0.000167414
-0.000160315
-0.000153175
-0.000146008
-0.000138827
-0.000131635
-0.000124428
-0.000117204
-0.000109968
-0.00010273
-9.55054e-05
-8.82984e-05
-8.11066e-05
-7.39253e-05
-6.67553e-05
-5.96062e-05
-5.24919e-05
-4.54238e-05
-3.84061e-05
-3.14374e-05
-2.45169e-05
-1.76494e-05
-1.08458e-05
-4.11926e-06
2.52173e-06
9.07645e-06
1.55504e-05
2.19494e-05
2.82729e-05
3.45128e-05
4.06565e-05
4.6694e-05
5.26216e-05
5.8441e-05
6.41535e-05
6.97553e-05
7.5236e-05
8.05822e-05
8.57829e-05
9.08341e-05
9.5739e-05
0.000100505
0.000105137
0.000109637
0.000113997
0.000118207
0.000122258
0.000126146
0.000129868
0.000133426
0.00013682
0.000140044
0.000143091
0.000145956
0.000148635
0.000151133
0.000153459
0.00015562
0.000157619
0.000159451
0.000161105
0.000162567
0.000163829
0.000164887
0.000165745
0.000166413
0.000166904
0.000167228
0.000167391
0.000167388
0.000167214
0.000166859
0.000166322
0.000165604
0.000164713
0.00016366
0.000162456
0.000161108
0.000159617
0.000157995
0.000156242
0.000154159
0.000151553
-0.000256612
-0.000260334
-0.000264366
-0.000268819
-0.000273889
-0.000279438
-0.000285251
-0.000291198
-0.000297242
-0.000303331
-0.000309364
-0.000315244
-0.000320917
-0.000326361
-0.000331553
-0.000336469
-0.000341085
-0.000345388
-0.000349372
-0.000353033
-0.000356366
-0.000359374
-0.000362064
-0.000364442
-0.000366503
-0.000368249
-0.000369691
-0.00037084
-0.0003717
-0.000372272
-0.000372561
-0.000372573
-0.000372314
-0.000371786
-0.000370996
-0.000369952
-0.000368666
-0.000367138
-0.000365368
-0.000363365
-0.000361143
-0.000358713
-0.000356075
-0.000353223
-0.000350158
-0.000346893
-0.000343443
-0.00033981
-0.000335989
-0.000331978
-0.000327789
-0.000323437
-0.000318933
-0.000314274
-0.000309458
-0.00030449
-0.000299386
-0.000294156
-0.000288801
-0.000283316
-0.000277698
-0.000271956
-0.000266101
-0.000260142
-0.000254076
-0.0002479
-0.000241617
-0.000235238
-0.000228777
-0.00022224
-0.000215623
-0.000208924
-0.000202145
-0.000195299
-0.000188397
-0.000181446
-0.000174444
-0.000167389
-0.000160285
-0.000153144
-0.000145979
-0.0001388
-0.000131607
-0.000124396
-0.000117169
-0.000109934
-0.000102703
-9.54851e-05
-8.82834e-05
-8.10936e-05
-7.39125e-05
-6.67439e-05
-5.95992e-05
-5.24919e-05
-4.54307e-05
-3.84169e-05
-3.14483e-05
-2.45255e-05
-1.76562e-05
-1.08537e-05
-4.13125e-06
2.50469e-06
9.05581e-06
1.55284e-05
2.19265e-05
2.82473e-05
3.44806e-05
4.06147e-05
4.66423e-05
5.25625e-05
5.83781e-05
6.40896e-05
6.96903e-05
7.51673e-05
8.05065e-05
8.56987e-05
9.07428e-05
9.56444e-05
0.000100411
0.000105046
0.000109546
0.000113903
0.000118108
0.000122154
0.000126038
0.00012976
0.000133321
0.000136717
0.000139941
0.000142983
0.00014584
0.00014851
0.000151001
0.000153323
0.000155485
0.000157488
0.000159323
0.000160978
0.000162439
0.000163699
0.000164755
0.000165614
0.000166285
0.000166782
0.000167113
0.00016728
0.000167281
0.000167106
0.00016675
0.000166207
0.000165482
0.00016458
0.00016351
0.000162281
0.000160895
0.000159354
0.000157667
0.000155836
0.000153654
0.000150924
-0.000267006
-0.000270635
-0.000274445
-0.000278507
-0.00028302
-0.000287972
-0.00029324
-0.000298662
-0.000304148
-0.00030966
-0.000315151
-0.000320547
-0.000325781
-0.000330815
-0.000335627
-0.000340192
-0.000344491
-0.000348512
-0.000352243
-0.000355675
-0.0003588
-0.000361621
-0.000364142
-0.000366362
-0.000368282
-0.000369905
-0.000371241
-0.000372288
-0.000373046
-0.000373522
-0.000373728
-0.00037367
-0.000373345
-0.000372749
-0.000371892
-0.00037079
-0.000369453
-0.00036788
-0.000366068
-0.000364026
-0.000361769
-0.000359305
-0.000356634
-0.000353751
-0.00035066
-0.000347373
-0.0003439
-0.00034024
-0.000336392
-0.000332359
-0.000328153
-0.000323785
-0.000319261
-0.000314578
-0.00030974
-0.000304756
-0.000299638
-0.000294392
-0.000289016
-0.000283506
-0.000277867
-0.00027211
-0.000266245
-0.000260272
-0.000254188
-0.000247993
-0.000241695
-0.000235309
-0.000228843
-0.000222298
-0.000215669
-0.000208956
-0.000202168
-0.000195317
-0.000188414
-0.000181458
-0.000174445
-0.000167377
-0.000160262
-0.000153115
-0.000145949
-0.000138766
-0.000131566
-0.000124346
-0.000117112
-0.000109876
-0.000102649
-9.54366e-05
-8.82356e-05
-8.10419e-05
-7.38555e-05
-6.66842e-05
-5.95406e-05
-5.24356e-05
-4.53739e-05
-3.83545e-05
-3.1376e-05
-2.44425e-05
-1.75652e-05
-1.07586e-05
-4.03441e-06
2.60353e-06
9.15856e-06
1.56362e-05
2.20377e-05
2.83575e-05
3.45852e-05
4.07112e-05
4.67316e-05
5.2648e-05
5.84632e-05
6.41756e-05
6.9776e-05
7.52503e-05
8.05847e-05
8.5772e-05
9.08135e-05
9.57161e-05
0.000100486
0.000105126
0.000109628
0.000113985
0.000118188
0.000122231
0.000126116
0.000129842
0.000133408
0.000136809
0.000140035
0.000143076
0.000145927
0.000148592
0.00015108
0.000153403
0.000155568
0.000157574
0.000159412
0.000161068
0.00016253
0.00016379
0.000164845
0.000165705
0.00016638
0.000166882
0.000167217
0.000167387
0.000167385
0.000167206
0.000166842
0.000166292
0.000165557
0.000164642
0.000163553
0.000162298
0.000160878
0.00015929
0.000157545
0.000155646
0.00015338
0.000150551
-0.000276752
-0.000280222
-0.00028384
-0.000287669
-0.000291808
-0.000296263
-0.000301023
-0.000305978
-0.000311005
-0.000316041
-0.000321053
-0.000326001
-0.000330825
-0.000335482
-0.000339942
-0.000344181
-0.000348182
-0.000351929
-0.000355408
-0.00035861
-0.000361531
-0.000364171
-0.000366523
-0.000368584
-0.000370358
-0.000371854
-0.000373074
-0.000374013
-0.00037467
-0.000375053
-0.000375173
-0.000375031
-0.000374627
-0.000373961
-0.000373043
-0.000371883
-0.000370486
-0.000368853
-0.000366991
-0.000364911
-0.000362618
-0.000360114
-0.000357398
-0.000354474
-0.000351354
-0.000348043
-0.000344541
-0.000340847
-0.000336964
-0.000332904
-0.000328679
-0.000324291
-0.00031974
-0.000315027
-0.000310162
-0.000305157
-0.000300021
-0.000294752
-0.000289346
-0.000283807
-0.000278144
-0.000272368
-0.000266485
-0.00026049
-0.000254382
-0.000248165
-0.000241851
-0.000235454
-0.000228976
-0.000222415
-0.000215768
-0.000209037
-0.000202236
-0.000195377
-0.000188463
-0.000181492
-0.000174462
-0.000167376
-0.000160247
-0.000153091
-0.000145916
-0.000138724
-0.000131511
-0.000124279
-0.000117036
-0.000109797
-0.000102571
-9.53572e-05
-8.81511e-05
-8.09484e-05
-7.37525e-05
-6.65744e-05
-5.94269e-05
-5.23178e-05
-4.52478e-05
-3.82146e-05
-3.1219e-05
-2.42691e-05
-1.73791e-05
-1.05639e-05
-3.83289e-06
2.8129e-06
9.37778e-06
1.58655e-05
2.22741e-05
2.85956e-05
3.482e-05
4.09408e-05
4.6958e-05
5.28751e-05
5.86943e-05
6.44111e-05
7.00137e-05
7.5487e-05
8.08188e-05
8.60047e-05
9.10476e-05
9.59547e-05
0.000100731
0.000105375
0.000109881
0.000114238
0.00011844
0.000122485
0.000126373
0.000130106
0.000133681
0.00013709
0.00014032
0.000143363
0.000146215
0.00014888
0.000151369
0.000153696
0.000155864
0.000157874
0.000159716
0.000161374
0.000162837
0.000164097
0.000165154
0.000166015
0.000166693
0.000167198
0.000167535
0.000167703
0.000167696
0.000167508
0.000167134
0.000166573
0.000165826
0.000164897
0.000163792
0.000162514
0.000161062
0.000159433
0.000157636
0.000155676
0.000153341
0.000150433
-0.00028605
-0.000289335
-0.000292719
-0.00029633
-0.000300231
-0.000304336
-0.000308662
-0.000313181
-0.000317801
-0.000322436
-0.00032704
-0.000331587
-0.000336035
-0.00034034
-0.000344471
-0.000348407
-0.000352128
-0.000355613
-0.000358847
-0.000361826
-0.000364546
-0.000367001
-0.000369182
-0.000371087
-0.000372722
-0.000374089
-0.000375183
-0.000376004
-0.000376559
-0.000376853
-0.000376886
-0.000376653
-0.000376161
-0.000375422
-0.000374441
-0.000373221
-0.000371758
-0.000370062
-0.000368146
-0.00036602
-0.000363684
-0.000361133
-0.000358369
-0.000355402
-0.000352246
-0.000348901
-0.000345363
-0.000341629
-0.00033771
-0.000333621
-0.000329368
-0.000324952
-0.000320367
-0.000315622
-0.000310728
-0.000305698
-0.000300534
-0.000295233
-0.000289794
-0.000284223
-0.000278533
-0.000272734
-0.000266824
-0.0002608
-0.000254662
-0.00024842
-0.000242088
-0.000235673
-0.000229175
-0.000222589
-0.000215916
-0.000209164
-0.000202347
-0.000195472
-0.00018854
-0.000181546
-0.000174491
-0.000167384
-0.00016024
-0.000153072
-0.000145883
-0.000138674
-0.000131443
-0.000124195
-0.000116943
-0.000109698
-0.000102466
-9.52442e-05
-8.80253e-05
-8.0808e-05
-7.35991e-05
-6.64109e-05
-5.92545e-05
-5.21344e-05
-4.50487e-05
-3.79955e-05
-3.09787e-05
-2.40099e-05