/*--------------------------------*- C++ -*----------------------------------*\
  =========                 |
  \\      /  F ield         | OpenFOAM: The Open Source CFD Toolbox
   \\    /   O peration     | Website:  https://openfoam.org
    \\  /    A nd           | Version:  7
     \\/     M anipulation  |
\*---------------------------------------------------------------------------*/
FoamFile
{
    version     2.0;
    format      ascii;
    class       surfaceScalarField;
    location    "0.0125";
    object      phi;
}
// * * * * * * * * * * * * * * * * * * * * * * * * * * * * * * * * * * * * * //

dimensions      [0 3 -1 0 0 0 0];

internalField   nonuniform List<scalar> 
101920
(
5.78454e-13
-5.72326e-13
7.82603e-12
-7.24772e-12
1.30525e-11
-5.22732e-12
1.69363e-11
-3.88401e-12
1.81829e-11
-1.24723e-12
1.714e-11
1.04291e-12
1.44844e-11
2.65564e-12
1.06941e-11
3.7909e-12
6.07737e-12
4.61731e-12
8.32462e-13
5.24536e-12
-4.83981e-12
5.67232e-12
-1.0745e-11
5.90473e-12
-1.67646e-11
6.0195e-12
-2.28522e-11
6.08769e-12
-2.89818e-11
6.12976e-12
-3.5103e-11
6.12104e-12
-4.11546e-11
6.05134e-12
-4.71058e-11
5.95128e-12
-5.2957e-11
5.85167e-12
-5.87194e-11
5.76304e-12
-6.43977e-11
5.67866e-12
-6.99823e-11
5.58467e-12
-7.54583e-11
5.47604e-12
-8.08264e-11
5.36824e-12
-8.60981e-11
5.27199e-12
-9.12807e-11
5.18292e-12
-9.63777e-11
5.09727e-12
-1.01393e-10
5.01527e-12
-1.06326e-10
4.93363e-12
-1.11175e-10
4.84931e-12
-1.15942e-10
4.76716e-12
-1.20634e-10
4.69246e-12
-1.25255e-10
4.62101e-12
-1.29801e-10
4.54586e-12
-1.34268e-10
4.46633e-12
-1.38654e-10
4.38582e-12
-1.42962e-10
4.30703e-12
-1.47194e-10
4.23178e-12
-1.51356e-10
4.16145e-12
-1.55451e-10
4.09406e-12
-1.59474e-10
4.02269e-12
-1.63416e-10
3.94193e-12
-1.67272e-10
3.85609e-12
-1.71048e-10
3.77556e-12
-1.74752e-10
3.70399e-12
-1.78386e-10
3.63325e-12
-1.81938e-10
3.55236e-12
-1.85397e-10
3.45902e-12
-1.88758e-10
3.36101e-12
-1.92025e-10
3.26674e-12
-1.95201e-10
3.1765e-12
-1.98284e-10
3.08389e-12
-2.01268e-10
2.98374e-12
-2.04144e-10
2.87691e-12
-2.06912e-10
2.76861e-12
-2.09576e-10
2.66339e-12
-2.12137e-10
2.56145e-12
-2.14597e-10
2.45968e-12
-2.16953e-10
2.35546e-12
-2.19203e-10
2.24905e-12
-2.21346e-10
2.14269e-12
-2.23385e-10
2.03836e-12
-2.25321e-10
1.93616e-12
-2.27154e-10
1.8342e-12
-2.28884e-10
1.73028e-12
-2.30508e-10
1.62401e-12
-2.32026e-10
1.51734e-12
-2.33439e-10
1.41254e-12
-2.3475e-10
1.31006e-12
-2.35959e-10
1.2084e-12
-2.37065e-10
1.10587e-12
-2.38067e-10
1.00194e-12
-2.38964e-10
8.97329e-13
-2.39757e-10
7.93195e-13
-2.40447e-10
6.89957e-13
-2.41033e-10
5.86642e-13
-2.41514e-10
4.81546e-13
-2.41887e-10
3.73739e-13
-2.42151e-10
2.63816e-13
-2.42304e-10
1.53193e-13
-2.42347e-10
4.27013e-14
-2.42279e-10
-6.83563e-14
-2.42098e-10
-1.80613e-13
-2.41804e-10
-2.94848e-13
-2.41394e-10
-4.1056e-13
-2.40867e-10
-5.261e-13
-2.40227e-10
-6.40091e-13
-2.39473e-10
-7.52497e-13
-2.38609e-10
-8.64465e-13
-2.37632e-10
-9.76877e-13
-2.36544e-10
-1.08911e-12
-2.35345e-10
-1.19955e-12
-2.34037e-10
-1.30744e-12
-2.32622e-10
-1.41395e-12
-2.31101e-10
-1.52124e-12
-2.2947e-10
-1.63039e-12
-2.2773e-10
-1.74055e-12
-2.25881e-10
-1.84994e-12
-2.23923e-10
-1.95758e-12
-2.21859e-10
-2.06383e-12
-2.19688e-10
-2.16979e-12
-2.17412e-10
-2.27594e-12
-2.15031e-10
-2.38166e-12
-2.12545e-10
-2.48565e-12
-2.09957e-10
-2.58696e-12
-2.07271e-10
-2.68558e-12
-2.04489e-10
-2.78218e-12
-2.01612e-10
-2.87729e-12
-1.98641e-10
-2.97087e-12
-1.95579e-10
-3.0624e-12
-1.92428e-10
-3.15135e-12
-1.8919e-10
-3.23747e-12
-1.8587e-10
-3.32093e-12
-1.82468e-10
-3.40224e-12
-1.78986e-10
-3.48213e-12
-1.75425e-10
-3.56109e-12
-1.71785e-10
-3.63905e-12
-1.6807e-10
-3.71543e-12
-1.6428e-10
-3.7898e-12
-1.60418e-10
-3.8624e-12
-1.56484e-10
-3.93417e-12
-1.52477e-10
-4.00613e-12
-1.48398e-10
-4.07871e-12
-1.44246e-10
-4.15156e-12
-1.40022e-10
-4.22396e-12
-1.35727e-10
-4.29506e-12
-1.31364e-10
-4.36406e-12
-1.26933e-10
-4.43021e-12
-1.2244e-10
-4.49309e-12
-1.17887e-10
-4.5529e-12
-1.13277e-10
-4.61034e-12
-1.08611e-10
-4.66598e-12
-1.03892e-10
-4.7198e-12
-9.91207e-11
-4.77132e-12
-9.43002e-11
-4.82025e-12
-8.9433e-11
-4.86689e-12
-8.45209e-11
-4.91187e-12
-7.95658e-11
-4.95546e-12
-7.45694e-11
-4.99704e-12
-6.9535e-11
-5.03498e-12
-6.44678e-11
-5.06717e-12
-5.93758e-11
-5.09154e-12
-5.42695e-11
-5.10601e-12
-4.91613e-11
-5.10821e-12
-4.40668e-11
-5.09502e-12
-3.90052e-11
-5.062e-12
-3.4002e-11
-5.00338e-12
-2.90899e-11
-4.91203e-12
-2.43108e-11
-4.77925e-12
-1.97167e-11
-4.59459e-12
-1.53712e-11
-4.34612e-12
-1.13502e-11
-4.02128e-12
-7.7415e-12
-3.60851e-12
-4.64228e-12
-3.09895e-12
-2.15394e-12
-2.48839e-12
-3.72089e-13
-1.78222e-12
6.35122e-13
-1.00758e-12
8.71613e-13
-2.36575e-13
5.02798e-13
3.6907e-13
5.03087e-13
-6.40516e-12
5.83266e-12
-6.78695e-12
-6.86599e-12
-2.21743e-12
-9.79733e-12
1.23991e-12
-7.34161e-12
2.25655e-12
-2.26442e-12
1.87502e-13
3.11132e-12
-5.00289e-12
7.84536e-12
-1.28911e-11
1.16786e-11
-2.29817e-11
1.47076e-11
-3.47987e-11
1.70628e-11
-4.79376e-11
1.8812e-11
-6.20564e-11
2.00239e-11
-7.68444e-11
2.08073e-11
-9.20565e-11
2.12995e-11
-1.07511e-10
2.15843e-11
-1.23074e-10
2.16843e-11
-1.38649e-10
2.16266e-11
-1.54155e-10
2.14568e-11
-1.69528e-10
2.1224e-11
-1.84733e-10
2.09681e-11
-1.99752e-10
2.06984e-11
-2.14574e-10
2.0407e-11
-2.29194e-10
2.0097e-11
-2.43608e-10
1.97826e-11
-2.57808e-10
1.94731e-11
-2.71796e-10
1.91712e-11
-2.85576e-10
1.88785e-11
-2.99155e-10
1.85948e-11
-3.12537e-10
1.83153e-11
-3.25723e-10
1.80356e-11
-3.38714e-10
1.77574e-11
-3.51505e-10
1.74833e-11
-3.64094e-10
1.72103e-11
-3.76483e-10
1.69352e-11
-3.88676e-10
1.66591e-11
-4.00673e-10
1.63831e-11
-4.12473e-10
1.61068e-11
-4.24072e-10
1.58307e-11
-4.35468e-10
1.55575e-11
-4.46662e-10
1.52867e-11
-4.57652e-10
1.50119e-11
-4.68437e-10
1.47263e-11
-4.79013e-10
1.4432e-11
-4.89375e-10
1.41369e-11
-4.99516e-10
1.38443e-11
-5.0943e-10
1.35473e-11
-5.19113e-10
1.32361e-11
-5.2856e-10
1.29069e-11
-5.37764e-10
1.25648e-11
-5.46714e-10
1.22171e-11
-5.55403e-10
1.18662e-11
-5.63828e-10
1.15089e-11
-5.71986e-10
1.1141e-11
-5.79871e-10
1.07619e-11
-5.87478e-10
1.03753e-11
-5.94802e-10
9.9871e-12
-6.01841e-10
9.60059e-12
-6.08596e-10
9.21437e-12
-6.15064e-10
8.82496e-12
-6.21245e-10
8.43081e-12
-6.27136e-10
8.03353e-12
-6.32734e-10
7.63622e-12
-6.3804e-10
7.24085e-12
-6.43053e-10
6.84654e-12
-6.47775e-10
6.45057e-12
-6.52203e-10
6.05144e-12
-6.56337e-10
5.6509e-12
-6.60177e-10
5.25215e-12
-6.63724e-10
4.85666e-12
-6.66979e-10
4.46324e-12
-6.69942e-10
4.06958e-12
-6.72614e-10
3.6742e-12
-6.74993e-10
3.27721e-12
-6.77079e-10
2.8796e-12
-6.78871e-10
2.48173e-12
-6.80367e-10
2.08246e-12
-6.81565e-10
1.67971e-12
-6.82463e-10
1.27201e-12
-6.83058e-10
8.59378e-13
-6.83347e-10
4.42938e-13
-6.83328e-10
2.38186e-14
-6.82999e-10
-3.97828e-13
-6.82357e-10
-8.22253e-13
-6.81401e-10
-1.24984e-12
-6.80132e-10
-1.67986e-12
-6.78549e-10
-2.11025e-12
-6.76651e-10
-2.5385e-12
-6.74441e-10
-2.96325e-12
-6.7192e-10
-3.38486e-12
-6.69092e-10
-3.80426e-12
-6.65959e-10
-4.22136e-12
-6.62523e-10
-4.63506e-12
-6.58787e-10
-5.04464e-12
-6.5475e-10
-5.45108e-12
-6.50415e-10
-5.85658e-12
-6.45781e-10
-6.26287e-12
-6.40852e-10
-6.66988e-12
-6.35626e-10
-7.07597e-12
-6.30104e-10
-7.47943e-12
-6.24288e-10
-7.87974e-12
-6.1818e-10
-8.27743e-12
-6.11781e-10
-8.67281e-12
-6.05098e-10
-9.06493e-12
-5.98131e-10
-9.45179e-12
-5.90887e-10
-9.83166e-12
-5.83368e-10
-1.0204e-11
-5.75581e-10
-1.05693e-11
-5.6753e-10
-1.09278e-11
-5.59222e-10
-1.12792e-11
-5.50663e-10
-1.16224e-11
-5.41859e-10
-1.19565e-11
-5.32815e-10
-1.22819e-11
-5.23536e-10
-1.25995e-11
-5.14026e-10
-1.29108e-11
-5.04291e-10
-1.32171e-11
-4.94334e-10
-1.35188e-11
-4.84158e-10
-1.38157e-11
-4.73767e-10
-1.4107e-11
-4.63164e-10
-1.43926e-11
-4.52352e-10
-1.46736e-11
-4.41334e-10
-1.49514e-11
-4.30113e-10
-1.52275e-11
-4.18689e-10
-1.55022e-11
-4.07066e-10
-1.57747e-11
-3.95247e-10
-1.60434e-11
-3.83235e-10
-1.63065e-11
-3.71036e-10
-1.65625e-11
-3.58656e-10
-1.68103e-11
-3.46101e-10
-1.70489e-11
-3.33376e-10
-1.72778e-11
-3.2049e-10
-1.74974e-11
-3.07448e-10
-1.77081e-11
-2.94257e-10
-1.79105e-11
-2.80923e-10
-1.81048e-11
-2.67452e-10
-1.8291e-11
-2.53851e-10
-1.84687e-11
-2.40126e-10
-1.86378e-11
-2.26285e-10
-1.87972e-11
-2.12338e-10
-1.89444e-11
-1.98297e-10
-1.90756e-11
-1.84178e-10
-1.91855e-11
-1.70002e-10
-1.92672e-11
-1.55796e-10
-1.93122e-11
-1.41595e-10
-1.93096e-11
-1.27445e-10
-1.92456e-11
-1.13404e-10
-1.9103e-11
-9.95476e-11
-1.88603e-11
-8.59678e-11
-1.84921e-11
-7.27792e-11
-1.79685e-11
-6.01188e-11
-1.72557e-11
-4.81481e-11
-1.63172e-11
-3.70526e-11
-1.51167e-11
-2.7039e-11
-1.3622e-11
-1.8327e-11
-1.18111e-11
-1.11339e-11
-9.68221e-12
-5.64661e-12
-7.27011e-12
-1.97556e-12
-4.67874e-12
-7.61026e-14
-2.13567e-12
3.57248e-13
-6.38779e-14
8.60139e-13
-5.69824e-12
1.15301e-11
-1.40448e-11
1.47897e-12
-1.81829e-11
-5.65981e-12
-2.126e-11
-4.26496e-12
-2.51921e-11
1.6679e-12
-3.13965e-11
9.31604e-12
-4.05324e-11
1.69818e-11
-5.26989e-11
2.38453e-11
-6.76272e-11
2.96355e-11
-8.48876e-11
3.43228e-11
-1.04038e-10
3.7962e-11
-1.24671e-10
4.06583e-11
-1.46421e-10
4.25571e-11
-1.68949e-10
4.38264e-11
-1.91965e-10
4.46006e-11
-2.15255e-10
4.49747e-11
-2.38658e-10
4.50303e-11
-2.62054e-10
4.48533e-11
-2.85353e-10
4.45229e-11
-3.08479e-10
4.40932e-11
-3.3138e-10
4.35999e-11
-3.54031e-10
4.30583e-11
-3.76419e-10
4.24851e-11
-3.98535e-10
4.18986e-11
-4.20372e-10
4.13103e-11
-4.41927e-10
4.07263e-11
-4.63196e-10
4.01478e-11
-4.84174e-10
3.95737e-11
-5.04861e-10
3.90024e-11
-5.25258e-10
3.84333e-11
-5.45367e-10
3.78666e-11
-5.65185e-10
3.7301e-11
-5.84708e-10
3.67327e-11
-6.03933e-10
3.61594e-11
-6.22856e-10
3.55821e-11
-6.41476e-10
3.50022e-11
-6.5979e-10
3.44205e-11
-6.77797e-10
3.38376e-11
-6.95493e-10
3.32531e-11
-7.1287e-10
3.26634e-11
-7.29922e-10
3.20633e-11
-7.46646e-10
3.14499e-11
-7.63039e-10
3.08256e-11
-7.79097e-10
3.01943e-11
-7.94808e-10
2.95549e-11
-8.10162e-10
2.89006e-11
-8.2515e-10
2.82245e-11
-8.39769e-10
2.75255e-11
-8.54011e-10
2.68072e-11
-8.67867e-10
2.6074e-11
-8.81327e-10
2.53268e-11
-8.94382e-10
2.45641e-11
-9.07025e-10
2.37845e-11
-9.19251e-10
2.29888e-11
-9.31056e-10
2.21804e-11
-9.42433e-10
2.13636e-11
-9.53375e-10
2.05416e-11
-9.63877e-10
1.97145e-11
-9.73934e-10
1.8881e-11
-9.83544e-10
1.80405e-11
-9.92704e-10
1.71939e-11
-1.00141e-09
1.63435e-11
-1.00966e-09
1.54912e-11
-1.01745e-09
1.4637e-11
-1.02478e-09
1.37795e-11
-1.03165e-09
1.29185e-11
-1.03805e-09
1.20556e-11
-1.044e-09
1.11934e-11
-1.04947e-09
1.03332e-11
-1.05448e-09
9.4743e-12
-1.05903e-09
8.61515e-12
-1.06311e-09
7.7544e-12
-1.06672e-09
6.8916e-12
-1.06987e-09
6.02676e-12
-1.07255e-09
5.15951e-12
-1.07475e-09
4.28859e-12
-1.07648e-09
3.41224e-12
-1.07774e-09
2.52915e-12
-1.07852e-09
1.63917e-12
-1.07882e-09
7.43124e-13
-1.07864e-09
-1.57977e-13
-1.07797e-09
-1.06355e-12
-1.07682e-09
-1.97323e-12
-1.07519e-09
-2.88653e-12
-1.07306e-09
-3.80218e-12
-1.07045e-09
-4.71786e-12
-1.06736e-09
-5.63086e-12
-1.06379e-09
-6.53916e-12
-1.05973e-09
-7.44202e-12
-1.0552e-09
-8.33939e-12
-1.05019e-09
-9.2311e-12
-1.0447e-09
-1.01168e-11
-1.03875e-09
-1.09967e-11
-1.03233e-09
-1.18716e-11
-1.02545e-09
-1.27431e-11
-1.0181e-09
-1.36124e-11
-1.01029e-09
-1.44794e-11
-1.00202e-09
-1.53431e-11
-9.93295e-10
-1.6202e-11
-9.8412e-10
-1.70549e-11
-9.74496e-10
-1.79014e-11
-9.64427e-10
-1.87408e-11
-9.5392e-10
-1.9572e-11
-9.42978e-10
-2.03929e-11
-9.31608e-10
-2.12017e-11
-9.19815e-10
-2.19971e-11
-9.07606e-10
-2.27789e-11
-8.94986e-10
-2.35467e-11
-8.81965e-10
-2.43e-11
-8.6855e-10
-2.50378e-11
-8.54748e-10
-2.57592e-11
-8.40566e-10
-2.64646e-11
-8.2601e-10
-2.7155e-11
-8.11088e-10
-2.78324e-11
-7.95807e-10
-2.84982e-11
-7.80172e-10
-2.91532e-11
-7.64192e-10
-2.97971e-11
-7.4787e-10
-3.04297e-11
-7.31212e-10
-3.10511e-11
-7.14223e-10
-3.16626e-11
-6.96908e-10
-3.22658e-11
-6.79273e-10
-3.28618e-11
-6.61324e-10
-3.34508e-11
-6.43068e-10
-3.40317e-11
-6.24509e-10
-3.46026e-11
-6.05653e-10
-3.51615e-11
-5.8651e-10
-3.57061e-11
-5.67085e-10
-3.62344e-11
-5.47389e-10
-3.67449e-11
-5.27431e-10
-3.72367e-11
-5.07219e-10
-3.77096e-11
-4.86763e-10
-3.81642e-11
-4.66072e-10
-3.8601e-11
-4.45157e-10
-3.90202e-11
-4.24026e-10
-3.94215e-11
-4.02691e-10
-3.98038e-11
-3.81165e-10
-4.01648e-11
-3.59462e-10
-4.05012e-11
-3.37598e-10
-4.08082e-11
-3.15595e-10
-4.10782e-11
-2.93478e-10
-4.13009e-11
-2.71283e-10
-4.14621e-11
-2.49052e-10
-4.1543e-11
-2.26843e-10
-4.15196e-11
-2.04726e-10
-4.13616e-11
-1.82797e-10
-4.1032e-11
-1.61171e-10
-4.04864e-11
-1.39991e-10
-3.9673e-11
-1.19428e-10
-3.85324e-11
-9.96846e-11
-3.69997e-11
-8.09949e-11
-3.50071e-11
-6.36223e-11
-3.24893e-11
-4.78531e-11
-2.93916e-11
-3.39835e-11
-2.56817e-11
-2.2298e-11
-2.13686e-11
-1.30357e-11
-1.65329e-11
-6.33797e-12
-1.13765e-11
-2.17443e-12
-6.29927e-12
-2.60278e-13
-1.97837e-12
5.99507e-13
-5.92999e-12
1.74605e-11
-1.67606e-11
1.23091e-11
-2.71225e-11
4.70144e-12
-3.69686e-11
5.5808e-12
-4.74077e-11
1.21068e-11
-5.9512e-11
2.142e-11
-7.40618e-11
3.15316e-11
-9.14057e-11
4.11898e-11
-1.11512e-10
4.97419e-11
-1.34116e-10
5.69262e-11
-1.58862e-10
6.27084e-11
-1.8536e-10
6.71563e-11
-2.13217e-10
7.04143e-11
-2.42064e-10
7.26732e-11
-2.71585e-10
7.41215e-11
-3.01526e-10
7.4915e-11
-3.31687e-10
7.51911e-11
-3.61905e-10
7.50716e-11
-3.92047e-10
7.46655e-11
-4.22022e-10
7.40678e-11
-4.51764e-10
7.33422e-11
-4.81234e-10
7.25281e-11
-5.10404e-10
7.16551e-11
-5.39251e-10
7.07457e-11
-5.67759e-10
6.98184e-11
-5.95921e-10
6.88886e-11
-6.23735e-10
6.7962e-11
-6.51197e-10
6.70354e-11
-6.783e-10
6.61057e-11
-7.05038e-10
6.51716e-11
-7.31404e-10
6.42329e-11
-7.57392e-10
6.32893e-11
-7.83e-10
6.23413e-11
-8.08228e-10
6.13876e-11
-8.33072e-10
6.04252e-11
-8.57521e-10
5.94512e-11
-8.81566e-10
5.84656e-11
-9.052e-10
5.74716e-11
-9.28418e-10
5.64711e-11
-9.51216e-10
5.54611e-11
-9.73588e-10
5.44351e-11
-9.95527e-10
5.33884e-11
-1.01702e-09
5.23214e-11
-1.03806e-09
5.12362e-11
-1.05864e-09
5.01328e-11
-1.07875e-09
4.90072e-11
-1.09838e-09
4.78543e-11
-1.11752e-09
4.66708e-11
-1.13617e-09
4.54572e-11
-1.15432e-09
4.42163e-11
-1.17194e-09
4.2951e-11
-1.18904e-09
4.16628e-11
-1.20561e-09
4.03513e-11
-1.22163e-09
3.9016e-11
-1.23711e-09
3.76585e-11
-1.25203e-09
3.62834e-11
-1.26638e-09
3.48953e-11
-1.28017e-09
3.3496e-11
-1.29337e-09
3.20845e-11
-1.30599e-09
3.06597e-11
-1.31802e-09
2.92228e-11
-1.32945e-09
2.77771e-11
-1.34029e-09
2.63255e-11
-1.35052e-09
2.48683e-11
-1.36015e-09
2.34046e-11
-1.36916e-09
2.1934e-11
-1.37756e-09
2.04584e-11
-1.38535e-09
1.89809e-11
-1.39252e-09
1.75036e-11
-1.39907e-09
1.60263e-11
-1.40501e-09
1.4547e-11
-1.41032e-09
1.30644e-11
-1.415e-09
1.15782e-11
-1.41906e-09
1.00888e-11
-1.4225e-09
8.59577e-12
-1.42531e-09
7.09744e-12
-1.42749e-09
5.59178e-12
-1.42904e-09
4.07766e-12
-1.42995e-09
2.55522e-12
-1.43023e-09
1.02547e-12
-1.42988e-09
-5.10514e-13
-1.42889e-09
-2.05191e-12
-1.42727e-09
-3.59797e-12
-1.42501e-09
-5.14753e-12
-1.42211e-09
-6.69865e-12
-1.41858e-09
-8.24866e-12
-1.41442e-09
-9.79478e-12
-1.40962e-09
-1.13349e-11
-1.4042e-09
-1.28677e-11
-1.39814e-09
-1.43927e-11
-1.39147e-09
-1.59092e-11
-1.38416e-09
-1.7417e-11
-1.37624e-09
-1.8916e-11
-1.36771e-09
-2.04069e-11
-1.35856e-09
-2.18906e-11
-1.34881e-09
-2.33678e-11
-1.33845e-09
-2.48386e-11
-1.32749e-09
-2.63018e-11
-1.31593e-09
-2.77556e-11
-1.30379e-09
-2.91983e-11
-1.29106e-09
-3.06288e-11
-1.27776e-09
-3.20462e-11
-1.26388e-09
-3.34494e-11
-1.24943e-09
-3.48363e-11
-1.23443e-09
-3.62048e-11
-1.21888e-09
-3.75531e-11
-1.20277e-09
-3.88801e-11
-1.18614e-09
-4.01851e-11
-1.16897e-09
-4.14678e-11
-1.15128e-09
-4.27272e-11
-1.13307e-09
-4.39625e-11
-1.11437e-09
-4.51736e-11
-1.09516e-09
-4.63609e-11
-1.07547e-09
-4.75259e-11
-1.0553e-09
-4.86704e-11
-1.03465e-09
-4.97954e-11
-1.01355e-09
-5.0901e-11
-9.91993e-10
-5.19872e-11
-9.6999e-10
-5.30543e-11
-9.4755e-10
-5.41034e-11
-9.2468e-10
-5.51358e-11
-9.01389e-10
-5.61526e-11
-8.77686e-10
-5.71537e-11
-8.53579e-10
-5.81381e-11
-8.29077e-10
-5.91036e-11
-8.04191e-10
-6.00478e-11
-7.78929e-10
-6.09683e-11
-7.53301e-10
-6.18626e-11
-7.27317e-10
-6.27286e-11
-7.00988e-10
-6.3565e-11
-6.74327e-10
-6.43712e-11
-6.47344e-10
-6.51472e-11
-6.20052e-10
-6.58933e-11
-5.92463e-10
-6.6609e-11
-5.64592e-10
-6.72931e-11
-5.36454e-10
-6.79426e-11
-5.08065e-10
-6.85535e-11
-4.79446e-10
-6.91195e-11
-4.50622e-10
-6.96322e-11
-4.21621e-10
-7.00787e-11
-3.9248e-10
-7.04415e-11
-3.63246e-10
-7.06961e-11
-3.33978e-10
-7.08109e-11
-3.04752e-10
-7.07454e-11
-2.75664e-10
-7.04491e-11
-2.46835e-10
-6.98609e-11
-2.18414e-10
-6.89081e-11
-1.90581e-10
-6.75067e-11
-1.63551e-10
-6.55632e-11
-1.37574e-10
-6.29767e-11
-1.12936e-10
-5.96449e-11
-8.99545e-11
-5.54716e-11
-6.89674e-11
-5.03796e-11
-5.0321e-11
-4.43291e-11
-3.43458e-11
-3.73446e-11
-2.13234e-11
-2.95557e-11
-1.14416e-11
-2.12586e-11
-4.73683e-12
-1.30046e-11
-1.0408e-12
-5.67497e-12
-4.4143e-13
-4.85774e-12
2.23181e-11
-1.68969e-11
2.43479e-11
-3.14743e-11
1.92791e-11
-4.70318e-11
2.11383e-11
-6.36245e-11
2.86993e-11
-8.18028e-11
3.9598e-11
-1.02135e-10
5.18633e-11
-1.24971e-10
6.40261e-11
-1.50386e-10
7.51568e-11
-1.78235e-10
8.47754e-11
-2.08245e-10
9.27184e-11
-2.40085e-10
9.89958e-11
-2.73399e-10
1.03729e-10
-3.07828e-10
1.07103e-10
-3.4304e-10
1.09333e-10
-3.7876e-10
1.10635e-10
-4.14769e-10
1.11199e-10
-4.50886e-10
1.11189e-10
-4.86965e-10
1.10745e-10
-5.22891e-10
1.09993e-10
-5.58577e-10
1.09029e-10
-5.93972e-10
1.07922e-10
-6.29039e-10
1.06722e-10
-6.63751e-10
1.05457e-10
-6.98084e-10
1.04152e-10
-7.32021e-10
1.02826e-10
-7.6555e-10
1.01491e-10
-7.98664e-10
1.00149e-10
-8.31358e-10
9.88005e-11
-8.63628e-10
9.74416e-11
-8.95464e-10
9.60684e-11
-9.26854e-10
9.46791e-11
-9.57789e-10
9.32763e-11
-9.88263e-10
9.18616e-11
-1.01827e-09
9.04328e-11
-1.04781e-09
8.89855e-11
-1.07686e-09
8.75174e-11
-1.10541e-09
8.60293e-11
-1.13347e-09
8.45226e-11
-1.161e-09
8.29962e-11
-1.18801e-09
8.14472e-11
-1.2145e-09
7.98724e-11
-1.24044e-09
7.82688e-11
-1.26584e-09
7.6634e-11
-1.29068e-09
7.49666e-11
-1.31494e-09
7.32661e-11
-1.33861e-09
7.15313e-11
-1.3617e-09
6.97596e-11
-1.38419e-09
6.79482e-11
-1.40607e-09
6.60968e-11
-1.42733e-09
6.42084e-11
-1.44795e-09
6.22867e-11
-1.46794e-09
6.03333e-11
-1.48727e-09
5.83481e-11
-1.50594e-09
5.63316e-11
-1.52395e-09
5.42872e-11
-1.54127e-09
5.22195e-11
-1.55791e-09
5.01319e-11
-1.57385e-09
4.80249e-11
-1.58909e-09
4.58978e-11
-1.60361e-09
4.37513e-11
-1.61743e-09
4.15887e-11
-1.63052e-09
3.94135e-11
-1.64287e-09
3.72274e-11
-1.6545e-09
3.50303e-11
-1.66539e-09
3.28223e-11
-1.67554e-09
3.06054e-11
-1.68494e-09
2.83824e-11
-1.69359e-09
2.61556e-11
-1.70149e-09
2.39253e-11
-1.70863e-09
2.16907e-11
-1.71502e-09
1.94508e-11
-1.72064e-09
1.72056e-11
-1.72551e-09
1.49553e-11
-1.72961e-09
1.26993e-11
-1.73295e-09
1.04363e-11
-1.73553e-09
8.16485e-12
-1.73733e-09
5.88429e-12
-1.73837e-09
3.59485e-12
-1.73864e-09
1.29741e-12
-1.73815e-09
-1.00696e-12
-1.73688e-09
-3.31717e-12
-1.73485e-09
-5.63199e-12
-1.73204e-09
-7.94955e-12
-1.72848e-09
-1.02672e-11
-1.72414e-09
-1.25821e-11
-1.71905e-09
-1.48916e-11
-1.71319e-09
-1.71937e-11
-1.70657e-09
-1.94868e-11
-1.69919e-09
-2.17696e-11
-1.69106e-09
-2.4041e-11
-1.68218e-09
-2.63006e-11
-1.67255e-09
-2.85479e-11
-1.66217e-09
-3.07834e-11
-1.65105e-09
-3.30071e-11
-1.6392e-09
-3.5219e-11
-1.62662e-09
-3.74185e-11
-1.61332e-09
-3.96042e-11
-1.5993e-09
-4.17745e-11
-1.58457e-09
-4.39274e-11
-1.56914e-09
-4.60614e-11
-1.55301e-09
-4.81751e-11
-1.53619e-09
-5.02669e-11
-1.51869e-09
-5.2335e-11
-1.50052e-09
-5.43775e-11
-1.48168e-09
-5.63923e-11
-1.46218e-09
-5.83779e-11
-1.44203e-09
-6.0333e-11
-1.42124e-09
-6.22567e-11
-1.39982e-09
-6.41484e-11
-1.37778e-09
-6.60072e-11
-1.35512e-09
-6.78326e-11
-1.33186e-09
-6.96244e-11
-1.308e-09
-7.13835e-11
-1.28356e-09
-7.3111e-11
-1.25855e-09
-7.48079e-11
-1.23297e-09
-7.6475e-11
-1.20685e-09
-7.81125e-11
-1.18018e-09
-7.97208e-11
-1.15298e-09
-8.13006e-11
-1.12527e-09
-8.28528e-11
-1.09704e-09
-8.43781e-11
-1.06832e-09
-8.58765e-11
-1.03911e-09
-8.73471e-11
-1.00942e-09
-8.87877e-11
-9.79276e-10
-9.01957e-11
-9.48676e-10
-9.15682e-11
-9.17636e-10
-9.29024e-11
-8.86169e-10
-9.4196e-11
-8.54286e-10
-9.54474e-11
-8.22002e-10
-9.66556e-11
-7.89329e-10
-9.78198e-11
-7.56284e-10
-9.89392e-11
-7.22882e-10
-1.00012e-10
-6.89139e-10
-1.01036e-10
-6.55076e-10
-1.02006e-10
-6.20713e-10
-1.02916e-10
-5.86078e-10
-1.03755e-10
-5.51199e-10
-1.04511e-10
-5.16114e-10
-1.05164e-10
-4.80869e-10
-1.05686e-10
-4.45522e-10
-1.06042e-10
-4.10147e-10
-1.06186e-10
-3.74836e-10
-1.06057e-10
-3.39703e-10
-1.05582e-10
-3.0489e-10
-1.04674e-10
-2.70571e-10
-1.03227e-10
-2.36954e-10
-1.01124e-10
-2.04286e-10
-9.82319e-11
-1.7285e-10
-9.4413e-11
-1.42967e-10
-8.95278e-11
-1.14992e-10
-8.34482e-11
-8.92978e-11
-7.60746e-11
-6.62676e-11
-6.73598e-11
-4.62705e-11
-5.7342e-11
-2.9634e-11
-4.61924e-11
-1.66105e-11
-3.42825e-11
-7.33891e-12
-2.22767e-11
-1.82096e-12
-1.11932e-11
-2.26226e-12
-4.027e-12
2.63453e-11
-1.63585e-11
3.66789e-11
-3.34815e-11
3.6402e-11
-5.32367e-11
4.08932e-11
-7.49273e-11
5.03901e-11
-9.85389e-11
6.32095e-11
-1.24289e-10
7.7613e-11
-1.52383e-10
9.21191e-11
-1.82881e-10
1.05655e-10
-2.15692e-10
1.17587e-10
-2.50589e-10
1.27615e-10
-2.87289e-10
1.35696e-10
-3.25475e-10
1.41915e-10
-3.64821e-10
1.46448e-10
-4.05013e-10
1.49525e-10
-4.45766e-10
1.51389e-10
-4.86847e-10
1.5228e-10
-5.28066e-10
1.52407e-10
-5.69272e-10
1.5195e-10
-6.10338e-10
1.51059e-10
-6.51169e-10
1.4986e-10
-6.91694e-10
1.48448e-10
-7.31865e-10
1.46893e-10
-7.7165e-10
1.45242e-10
-8.11025e-10
1.43528e-10
-8.49968e-10
1.4177e-10
-8.88458e-10
1.39982e-10
-9.26483e-10
1.38174e-10
-9.64032e-10
1.3635e-10
-1.0011e-09
1.34507e-10
-1.03767e-09
1.32642e-10
-1.07374e-09
1.30751e-10
-1.1093e-09
1.28835e-10
-1.14433e-09
1.26893e-10
-1.17882e-09
1.24925e-10
-1.21277e-09
1.22931e-10
-1.24616e-09
1.20907e-10
-1.27898e-09
1.18854e-10
-1.31123e-09
1.16767e-10
-1.34288e-09
1.14647e-10
-1.37392e-09
1.12492e-10
-1.40435e-09
1.10302e-10
-1.43416e-09
1.08075e-10
-1.46333e-09
1.05806e-10
-1.49186e-09
1.03491e-10
-1.51972e-09
1.0113e-10
-1.54691e-09
9.87235e-11
-1.57342e-09
9.62697e-11
-1.59924e-09
9.37669e-11
-1.62436e-09
9.12139e-11
-1.64876e-09
8.86123e-11
-1.67244e-09
8.59648e-11
-1.69538e-09
8.3274e-11
-1.71757e-09
8.05412e-11
-1.73901e-09
7.77679e-11
-1.75968e-09
7.49569e-11
-1.77957e-09
7.21121e-11
-1.79868e-09
6.92364e-11
-1.81699e-09
6.63314e-11
-1.83449e-09
6.33982e-11
-1.85117e-09
6.04387e-11
-1.86704e-09
5.74558e-11
-1.88208e-09
5.44518e-11
-1.89628e-09
5.14289e-11
-1.90964e-09
4.83884e-11
-1.92215e-09
4.53325e-11
-1.93381e-09
4.22632e-11
-1.94461e-09
3.91829e-11
-1.95455e-09
3.60934e-11
-1.96362e-09
3.29955e-11
-1.97182e-09
2.98897e-11
-1.97914e-09
2.67764e-11
-1.98559e-09
2.36557e-11
-1.99116e-09
2.05277e-11
-1.99586e-09
1.73916e-11
-1.99967e-09
1.42464e-11
-2.00259e-09
1.10917e-11
-2.00464e-09
7.92733e-12
-2.00579e-09
4.75411e-12
-2.00607e-09
1.57287e-12
-2.00546e-09
-1.61546e-12
-2.00397e-09
-4.80969e-12
-2.00159e-09
-8.00807e-12
-1.99833e-09
-1.1208e-11
-1.99419e-09
-1.44062e-11
-1.98918e-09
-1.75997e-11
-1.98328e-09
-2.07862e-11
-1.97651e-09
-2.39635e-11
-1.96887e-09
-2.71298e-11
-1.96036e-09
-3.02831e-11
-1.95098e-09
-3.34219e-11
-1.94073e-09
-3.6545e-11
-1.92963e-09
-3.96518e-11
-1.91767e-09
-4.27421e-11
-1.90486e-09
-4.58156e-11
-1.89121e-09
-4.88713e-11
-1.87672e-09
-5.19078e-11
-1.8614e-09
-5.4923e-11
-1.84526e-09
-5.79153e-11
-1.8283e-09
-6.0883e-11
-1.81054e-09
-6.38243e-11
-1.79198e-09
-6.67374e-11
-1.77262e-09
-6.96203e-11
-1.75249e-09
-7.24708e-11
-1.73158e-09
-7.5287e-11
-1.7099e-09
-7.80671e-11
-1.68747e-09
-8.08093e-11
-1.66429e-09
-8.35121e-11
-1.64037e-09
-8.6174e-11
-1.61573e-09
-8.87938e-11
-1.59037e-09
-9.13705e-11
-1.5643e-09
-9.3903e-11
-1.53753e-09
-9.63912e-11
-1.51008e-09
-9.88351e-11
-1.48195e-09
-1.01235e-10
-1.45317e-09
-1.03592e-10
-1.42374e-09
-1.05907e-10
-1.39367e-09
-1.0818e-10
-1.36298e-09
-1.10412e-10
-1.33168e-09
-1.12602e-10
-1.29978e-09
-1.14752e-10
-1.26729e-09
-1.16863e-10
-1.23424e-09
-1.18932e-10
-1.20062e-09
-1.20961e-10
-1.16646e-09
-1.22946e-10
-1.13177e-09
-1.24885e-10
-1.09657e-09
-1.26776e-10
-1.06086e-09
-1.28613e-10
-1.02466e-09
-1.30396e-10
-9.8798e-10
-1.32123e-10
-9.50845e-10
-1.33791e-10
-9.13266e-10
-1.35399e-10
-8.75261e-10
-1.36946e-10
-8.36847e-10
-1.38427e-10
-7.98045e-10
-1.39838e-10
-7.58878e-10
-1.41173e-10
-7.19372e-10
-1.42421e-10
-6.79558e-10
-1.4357e-10
-6.39471e-10
-1.44598e-10
-5.99155e-10
-1.4548e-10
-5.58665e-10
-1.46177e-10
-5.18067e-10
-1.4664e-10
-4.77447e-10
-1.46806e-10
-4.36909e-10
-1.46595e-10
-3.96582e-10
-1.45909e-10
-3.56625e-10
-1.44632e-10
-3.17228e-10
-1.42624e-10
-2.7862e-10
-1.39732e-10
-2.41068e-10
-1.35784e-10
-2.04879e-10
-1.30602e-10
-1.704e-10
-1.24008e-10
-1.38009e-10
-1.15841e-10
-1.08107e-10
-1.05977e-10
-8.11079e-11
-9.43584e-11
-5.742e-11
-8.10299e-11
-3.74231e-11
-6.61897e-11
-2.14475e-11
-5.02584e-11
-9.75304e-12
-3.39712e-11
-2.52819e-12
-1.84179e-11
-4.79037e-12
-3.58932e-12
2.99346e-11
-1.58179e-11
4.8907e-11
-3.43703e-11
5.49542e-11
-5.7011e-11
6.35332e-11
-8.25962e-11
7.59748e-11
-1.10673e-10
9.12866e-11
-1.41112e-10
1.08052e-10
-1.73896e-10
1.24902e-10
-2.08999e-10
1.40757e-10
-2.46306e-10
1.54894e-10
-2.85621e-10
1.66931e-10
-3.26675e-10
1.7675e-10
-3.69177e-10
1.84416e-10
-4.1283e-10
1.90101e-10
-4.57345e-10
1.9404e-10
-5.02451e-10
1.96496e-10
-5.4791e-10
1.97738e-10
-5.93523e-10
1.9802e-10
-6.39133e-10
1.9756e-10
-6.84613e-10
1.96539e-10
-7.29862e-10
1.95109e-10
-7.74799e-10
1.93385e-10
-8.19365e-10
1.91459e-10
-8.63518e-10
1.89396e-10
-9.07229e-10
1.87239e-10
-9.50474e-10
1.85015e-10
-9.93234e-10
1.82742e-10
-1.03549e-09
1.80431e-10
-1.07723e-09
1.78085e-10
-1.11843e-09
1.75708e-10
-1.15908e-09
1.73297e-10
-1.19918e-09
1.70853e-10
-1.23872e-09
1.68371e-10
-1.27768e-09
1.65848e-10
-1.31604e-09
1.63285e-10
-1.35379e-09
1.60681e-10
-1.39092e-09
1.58037e-10
-1.42741e-09
1.55351e-10
-1.46327e-09
1.5262e-10
-1.49846e-09
1.49841e-10
-1.53298e-09
1.47014e-10
-1.56682e-09
1.44137e-10
-1.59995e-09
1.4121e-10
-1.63238e-09
1.3823e-10
-1.66408e-09
1.35194e-10
-1.69505e-09
1.32099e-10
-1.72527e-09
1.28945e-10
-1.75473e-09
1.2573e-10
-1.78342e-09
1.22454e-10
-1.81132e-09
1.19118e-10
-1.83843e-09
1.15723e-10
-1.86474e-09
1.1227e-10
-1.89022e-09
1.0876e-10
-1.91488e-09
1.05196e-10
-1.93869e-09
1.01581e-10
-1.96165e-09
9.79183e-11
-1.98375e-09
9.42114e-11
-2.00498e-09
9.04618e-11
-2.02532e-09
8.66717e-11
-2.04477e-09
8.28439e-11
-2.06331e-09
7.89817e-11
-2.08094e-09
7.5088e-11
-2.09766e-09
7.11648e-11
-2.11344e-09
6.7214e-11
-2.12829e-09
6.32379e-11
-2.1422e-09
5.92396e-11
-2.15516e-09
5.52225e-11
-2.16716e-09
5.11892e-11
-2.17821e-09
4.71409e-11
-2.18829e-09
4.30786e-11
-2.19741e-09
3.90038e-11
-2.20555e-09
3.49182e-11
-2.21272e-09
3.08226e-11
-2.21891e-09
2.67172e-11
-2.22412e-09
2.26013e-11
-2.22834e-09
1.84742e-11
-2.23159e-09
1.43362e-11
-2.23385e-09
1.01882e-11
-2.23512e-09
6.0312e-12
-2.23542e-09
1.86621e-12
-2.23473e-09
-2.30578e-12
-2.23305e-09
-6.48326e-12
-2.2304e-09
-1.06639e-11
-2.22676e-09
-1.48444e-11
-2.22215e-09
-1.90214e-11
-2.21655e-09
-2.31918e-11
-2.20999e-09
-2.73532e-11
-2.20245e-09
-3.15033e-11
-2.19394e-09
-3.56398e-11
-2.18446e-09
-3.97602e-11
-2.17402e-09
-4.38626e-11
-2.16262e-09
-4.7945e-11
-2.15027e-09
-5.20064e-11
-2.13696e-09
-5.6046e-11
-2.12271e-09
-6.00628e-11
-2.10753e-09
-6.40553e-11
-2.09142e-09
-6.80213e-11
-2.07438e-09
-7.19581e-11
-2.05643e-09
-7.58637e-11
-2.03758e-09
-7.97364e-11
-2.01783e-09
-8.35743e-11
-1.99719e-09
-8.73756e-11
-1.97567e-09
-9.11378e-11
-1.95328e-09
-9.48584e-11
-1.93004e-09
-9.8535e-11
-1.90594e-09
-1.02166e-10
-1.881e-09
-1.05749e-10
-1.85523e-09
-1.09283e-10
-1.82864e-09
-1.12766e-10
-1.80123e-09
-1.16196e-10
-1.77303e-09
-1.19571e-10
-1.74405e-09
-1.2289e-10
-1.71429e-09
-1.26152e-10
-1.68376e-09
-1.29358e-10
-1.65249e-09
-1.32507e-10
-1.62048e-09
-1.356e-10
-1.58776e-09
-1.38636e-10
-1.55432e-09
-1.41617e-10
-1.52019e-09
-1.44542e-10
-1.48538e-09
-1.47411e-10
-1.44991e-09
-1.50226e-10
-1.41378e-09
-1.52986e-10
-1.37702e-09
-1.55691e-10
-1.33964e-09
-1.5834e-10
-1.30166e-09
-1.60929e-10
-1.26309e-09
-1.63457e-10
-1.22394e-09
-1.6592e-10
-1.18424e-09
-1.68316e-10
-1.144e-09
-1.7064e-10
-1.10323e-09
-1.72892e-10
-1.06195e-09
-1.75069e-10
-1.02018e-09
-1.77168e-10
-9.77943e-10
-1.79185e-10
-9.35254e-10
-1.81116e-10
-8.92137e-10
-1.82954e-10
-8.4862e-10
-1.8469e-10
-8.04731e-10
-1.8631e-10
-7.60506e-10
-1.87795e-10
-7.15985e-10
-1.8912e-10
-6.71217e-10
-1.90248e-10
-6.26263e-10
-1.9113e-10
-5.81198e-10
-1.91704e-10
-5.36116e-10
-1.91888e-10
-4.9113e-10
-1.91582e-10
-4.46379e-10
-1.90661e-10
-4.02033e-10
-1.88978e-10
-3.58296e-10
-1.86361e-10
-3.15409e-10
-1.82618e-10
-2.73655e-10
-1.77538e-10
-2.33356e-10
-1.70901e-10
-1.94875e-10
-1.62489e-10
-1.58611e-10
-1.52106e-10
-1.24987e-10
-1.396e-10
-9.44485e-11
-1.24897e-10
-6.74426e-11
-1.08036e-10
-4.44072e-11
-8.92253e-11
-2.57578e-11
-6.89078e-11
-1.1879e-11
-4.78499e-11
-3.13657e-12
-2.71602e-11
-7.92718e-12
-3.40338e-12
3.33382e-11
-1.55153e-11
6.10184e-11
-3.48411e-11
7.42798e-11
-5.93851e-11
8.80766e-11
-8.78042e-11
1.04393e-10
-1.19349e-10
1.22831e-10
-1.5362e-10
1.42323e-10
-1.90381e-10
1.61663e-10
-2.29464e-10
1.7984e-10
-2.707e-10
1.9613e-10
-3.13878e-10
2.10109e-10
-3.58741e-10
2.21613e-10
-4.05008e-10
2.30682e-10
-4.52394e-10
2.37487e-10
-5.00628e-10
2.42275e-10
-5.4946e-10
2.45327e-10
-5.98657e-10
2.46936e-10
-6.48023e-10
2.47385e-10
-6.97391e-10
2.46928e-10
-7.46631e-10
2.4578e-10
-7.95641e-10
2.44119e-10
-8.44336e-10
2.42081e-10
-8.92653e-10
2.39776e-10
-9.40539e-10
2.37283e-10
-9.87957e-10
2.34658e-10
-1.03488e-09
2.31938e-10
-1.08128e-09
2.29147e-10
-1.12715e-09
2.26299e-10
-1.17246e-09
2.23398e-10
-1.2172e-09
2.20448e-10
-1.26136e-09
2.17449e-10
-1.30491e-09
2.14403e-10
-1.34784e-09
2.11307e-10
-1.39015e-09
2.08157e-10
-1.43182e-09
2.04951e-10
-1.47283e-09
2.01689e-10
-1.51316e-09
1.98371e-10
-1.5528e-09
1.94995e-10
-1.59174e-09
1.9156e-10
-1.62997e-09
1.88065e-10
-1.66746e-09
1.84508e-10
-1.70421e-09
1.80886e-10
-1.7402e-09
1.77197e-10
-1.77541e-09