/*--------------------------------*- C++ -*----------------------------------*\
  =========                 |
  \\      /  F ield         | OpenFOAM: The Open Source CFD Toolbox
   \\    /   O peration     | Website:  https://openfoam.org
    \\  /    A nd           | Version:  7
     \\/     M anipulation  |
\*---------------------------------------------------------------------------*/
FoamFile
{
    version     2.0;
    format      ascii;
    class       volVectorField;
    location    "0.0125";
    object      U;
}
// * * * * * * * * * * * * * * * * * * * * * * * * * * * * * * * * * * * * * //

dimensions      [0 1 -1 0 0 0 0];

internalField   nonuniform List<vector> 
51200
(
(-8.68207e-07 -9.72079e-07 0)
(4.51853e-07 -1.57681e-06 0)
(1.22711e-06 -9.53437e-07 0)
(2.57842e-06 -5.95157e-07 0)
(2.94787e-06 -2.66865e-07 0)
(2.9254e-06 -3.78348e-08 0)
(2.60488e-06 9.69258e-08 0)
(2.06927e-06 1.80501e-07 0)
(1.38071e-06 2.44269e-07 0)
(5.74759e-07 2.90196e-07 0)
(-3.06496e-07 3.10765e-07 0)
(-1.23179e-06 3.11015e-07 0)
(-2.18829e-06 3.07424e-07 0)
(-3.16396e-06 3.13236e-07 0)
(-4.14708e-06 3.2152e-07 0)
(-5.1294e-06 3.18255e-07 0)
(-6.10127e-06 3.0513e-07 0)
(-7.05895e-06 2.92568e-07 0)
(-8.00574e-06 2.86955e-07 0)
(-8.93845e-06 2.86917e-07 0)
(-9.85407e-06 2.86485e-07 0)
(-1.07541e-05 2.80717e-07 0)
(-1.16377e-05 2.70876e-07 0)
(-1.25046e-05 2.63162e-07 0)
(-1.33566e-05 2.60122e-07 0)
(-1.41942e-05 2.58276e-07 0)
(-1.50169e-05 2.54132e-07 0)
(-1.58248e-05 2.47503e-07 0)
(-1.66195e-05 2.3988e-07 0)
(-1.74018e-05 2.33354e-07 0)
(-1.81717e-05 2.30068e-07 0)
(-1.89295e-05 2.2984e-07 0)
(-1.9675e-05 2.29383e-07 0)
(-2.0408e-05 2.25484e-07 0)
(-2.11283e-05 2.18307e-07 0)
(-2.18358e-05 2.11e-07 0)
(-2.25311e-05 2.06524e-07 0)
(-2.32149e-05 2.05166e-07 0)
(-2.38875e-05 2.04749e-07 0)
(-2.45485e-05 2.02531e-07 0)
(-2.51971e-05 1.97142e-07 0)
(-2.58332e-05 1.89818e-07 0)
(-2.64567e-05 1.83846e-07 0)
(-2.70682e-05 1.81626e-07 0)
(-2.76679e-05 1.81934e-07 0)
(-2.82552e-05 1.80903e-07 0)
(-2.88295e-05 1.75869e-07 0)
(-2.93896e-05 1.67983e-07 0)
(-2.99351e-05 1.60986e-07 0)
(-3.04659e-05 1.57299e-07 0)
(-3.09821e-05 1.55584e-07 0)
(-3.14833e-05 1.52527e-07 0)
(-3.19683e-05 1.46541e-07 0)
(-3.24365e-05 1.39107e-07 0)
(-3.28879e-05 1.32777e-07 0)
(-3.33228e-05 1.28491e-07 0)
(-3.37414e-05 1.24946e-07 0)
(-3.41433e-05 1.20318e-07 0)
(-3.45282e-05 1.14265e-07 0)
(-3.48962e-05 1.08076e-07 0)
(-3.52475e-05 1.03053e-07 0)
(-3.55825e-05 9.91444e-08 0)
(-3.59009e-05 9.52028e-08 0)
(-3.62024e-05 9.02859e-08 0)
(-3.64871e-05 8.45141e-08 0)
(-3.67551e-05 7.87789e-08 0)
(-3.70064e-05 7.38078e-08 0)
(-3.72413e-05 6.95309e-08 0)
(-3.74594e-05 6.52659e-08 0)
(-3.76609e-05 6.04495e-08 0)
(-3.78458e-05 5.51353e-08 0)
(-3.80142e-05 4.98069e-08 0)
(-3.81662e-05 4.48361e-08 0)
(-3.83018e-05 4.01993e-08 0)
(-3.84206e-05 3.56108e-08 0)
(-3.85226e-05 3.07952e-08 0)
(-3.86078e-05 2.56517e-08 0)
(-3.8676e-05 2.02793e-08 0)
(-3.87271e-05 1.48944e-08 0)
(-3.87607e-05 9.67587e-09 0)
(-3.87765e-05 4.61711e-09 0)
(-3.87746e-05 -4.84586e-10 0)
(-3.87546e-05 -5.88099e-09 0)
(-3.87165e-05 -1.16062e-08 0)
(-3.866e-05 -1.74261e-08 0)
(-3.85852e-05 -2.30412e-08 0)
(-3.84921e-05 -2.83579e-08 0)
(-3.83806e-05 -3.35878e-08 0)
(-3.8251e-05 -3.9046e-08 0)
(-3.81034e-05 -4.48009e-08 0)
(-3.79381e-05 -5.05449e-08 0)
(-3.77552e-05 -5.58836e-08 0)
(-3.75549e-05 -6.0774e-08 0)
(-3.73372e-05 -6.56149e-08 0)
(-3.71021e-05 -7.08511e-08 0)
(-3.68497e-05 -7.65078e-08 0)
(-3.658e-05 -8.21694e-08 0)
(-3.62929e-05 -8.74259e-08 0)
(-3.59886e-05 -9.22882e-08 0)
(-3.56669e-05 -9.71413e-08 0)
(-3.53281e-05 -1.02323e-07 0)
(-3.49721e-05 -1.07783e-07 0)
(-3.45993e-05 -1.1316e-07 0)
(-3.42098e-05 -1.18139e-07 0)
(-3.38041e-05 -1.22737e-07 0)
(-3.33823e-05 -1.27242e-07 0)
(-3.29447e-05 -1.3191e-07 0)
(-3.24917e-05 -1.36727e-07 0)
(-3.20237e-05 -1.4145e-07 0)
(-3.15409e-05 -1.45848e-07 0)
(-3.10437e-05 -1.49908e-07 0)
(-3.05327e-05 -1.53815e-07 0)
(-3.00081e-05 -1.57771e-07 0)
(-2.94703e-05 -1.61827e-07 0)
(-2.89194e-05 -1.65862e-07 0)
(-2.83558e-05 -1.69704e-07 0)
(-2.77796e-05 -1.7328e-07 0)
(-2.71913e-05 -1.76665e-07 0)
(-2.65909e-05 -1.80029e-07 0)
(-2.59788e-05 -1.83494e-07 0)
(-2.53551e-05 -1.87039e-07 0)
(-2.47197e-05 -1.90533e-07 0)
(-2.40728e-05 -1.93869e-07 0)
(-2.34142e-05 -1.97091e-07 0)
(-2.27441e-05 -2.00374e-07 0)
(-2.20626e-05 -2.03843e-07 0)
(-2.13698e-05 -2.07413e-07 0)
(-2.06663e-05 -2.10819e-07 0)
(-1.99524e-05 -2.13842e-07 0)
(-1.92286e-05 -2.16515e-07 0)
(-1.84954e-05 -2.19081e-07 0)
(-1.77531e-05 -2.21738e-07 0)
(-1.70022e-05 -2.24459e-07 0)
(-1.62428e-05 -2.27052e-07 0)
(-1.54755e-05 -2.29384e-07 0)
(-1.47005e-05 -2.31512e-07 0)
(-1.39181e-05 -2.33625e-07 0)
(-1.31286e-05 -2.3585e-07 0)
(-1.23322e-05 -2.38124e-07 0)
(-1.15295e-05 -2.40236e-07 0)
(-1.07211e-05 -2.4199e-07 0)
(-9.90816e-06 -2.4331e-07 0)
(-9.09196e-06 -2.44187e-07 0)
(-8.27429e-06 -2.4457e-07 0)
(-7.45735e-06 -2.4429e-07 0)
(-6.64389e-06 -2.43064e-07 0)
(-5.83752e-06 -2.4059e-07 0)
(-5.04284e-06 -2.36568e-07 0)
(-4.26578e-06 -2.30601e-07 0)
(-3.51381e-06 -2.22081e-07 0)
(-2.79618e-06 -2.10189e-07 0)
(-2.12407e-06 -1.94042e-07 0)
(-1.5106e-06 -1.7287e-07 0)
(-9.70636e-07 -1.46064e-07 0)
(-5.20319e-07 -1.13146e-07 0)
(-1.76011e-07 -7.40031e-08 0)
(4.77532e-08 -2.98187e-08 0)
(1.43146e-07 1.49421e-08 0)
(1.27357e-07 4.80557e-08 0)
(4.52084e-08 4.53594e-08 0)
(-1.4658e-06 1.72783e-07 0)
(-1.75032e-06 -1.92891e-06 0)
(-8.84813e-07 -1.65313e-06 0)
(-1.92853e-08 -1.14346e-06 0)
(4.23061e-07 -4.30379e-07 0)
(3.47066e-07 2.11689e-07 0)
(-2.55748e-07 7.08089e-07 0)
(-1.31704e-06 1.07663e-06 0)
(-2.77943e-06 1.35048e-06 0)
(-4.5584e-06 1.55939e-06 0)
(-6.57338e-06 1.70772e-06 0)
(-8.76476e-06 1.79457e-06 0)
(-1.1083e-05 1.8425e-06 0)
(-1.34916e-05 1.87264e-06 0)
(-1.59578e-05 1.89104e-06 0)
(-1.84462e-05 1.89414e-06 0)
(-2.0938e-05 1.87931e-06 0)
(-2.34252e-05 1.8521e-06 0)
(-2.58967e-05 1.8227e-06 0)
(-2.83459e-05 1.79767e-06 0)
(-3.07671e-05 1.77356e-06 0)
(-3.31547e-05 1.74596e-06 0)
(-3.55088e-05 1.7144e-06 0)
(-3.78305e-05 1.68235e-06 0)
(-4.01197e-05 1.65297e-06 0)
(-4.2376e-05 1.62656e-06 0)
(-4.45984e-05 1.6017e-06 0)
(-4.6787e-05 1.57675e-06 0)
(-4.89429e-05 1.55065e-06 0)
(-5.10675e-05 1.5237e-06 0)
(-5.31616e-05 1.49789e-06 0)
(-5.52247e-05 1.47478e-06 0)
(-5.72558e-05 1.45316e-06 0)
(-5.92547e-05 1.43058e-06 0)
(-6.12212e-05 1.40615e-06 0)
(-6.31555e-05 1.38067e-06 0)
(-6.50583e-05 1.35553e-06 0)
(-6.69303e-05 1.33197e-06 0)
(-6.87711e-05 1.31041e-06 0)
(-7.05793e-05 1.28958e-06 0)
(-7.23539e-05 1.26704e-06 0)
(-7.4095e-05 1.24153e-06 0)
(-7.58033e-05 1.21456e-06 0)
(-7.74787e-05 1.18912e-06 0)
(-7.912e-05 1.16638e-06 0)
(-8.07253e-05 1.14405e-06 0)
(-8.22934e-05 1.11882e-06 0)
(-8.38236e-05 1.0897e-06 0)
(-8.53152e-05 1.05874e-06 0)
(-8.67674e-05 1.02862e-06 0)
(-8.81792e-05 9.99939e-07 0)
(-8.95495e-05 9.71023e-07 0)
(-9.08766e-05 9.39979e-07 0)
(-9.21596e-05 9.0663e-07 0)
(-9.33983e-05 8.72528e-07 0)
(-9.45928e-05 8.39328e-07 0)
(-9.57426e-05 8.07281e-07 0)
(-9.68468e-05 7.75323e-07 0)
(-9.79047e-05 7.42429e-07 0)
(-9.89161e-05 7.0864e-07 0)
(-9.98813e-05 6.74829e-07 0)
(-0.000100801 6.41754e-07 0)
(-0.000101674 6.09387e-07 0)
(-0.0001025 5.77017e-07 0)
(-0.000103278 5.43957e-07 0)
(-0.00010401 5.10219e-07 0)
(-0.000104694 4.76502e-07 0)
(-0.000105333 4.43467e-07 0)
(-0.000105924 4.11117e-07 0)
(-0.000106468 3.78918e-07 0)
(-0.000106965 3.4639e-07 0)
(-0.000107416 3.1347e-07 0)
(-0.00010782 2.80431e-07 0)
(-0.000108177 2.47555e-07 0)
(-0.000108488 2.14873e-07 0)
(-0.000108751 1.82093e-07 0)
(-0.000108966 1.48805e-07 0)
(-0.000109134 1.14791e-07 0)
(-0.000109253 8.0174e-08 0)
(-0.000109325 4.52707e-08 0)
(-0.000109346 1.03026e-08 0)
(-0.000109319 -2.47735e-08 0)
(-0.000109241 -6.02438e-08 0)
(-0.000109113 -9.628e-08 0)
(-0.000108935 -1.32746e-07 0)
(-0.000108707 -1.69215e-07 0)
(-0.000108429 -2.05264e-07 0)
(-0.0001081 -2.40805e-07 0)
(-0.000107721 -2.76113e-07 0)
(-0.000107293 -3.11469e-07 0)
(-0.000106816 -3.46779e-07 0)
(-0.00010629 -3.81649e-07 0)
(-0.000105717 -4.15837e-07 0)
(-0.000105095 -4.49585e-07 0)
(-0.000104425 -4.83438e-07 0)
(-0.000103707 -5.17746e-07 0)
(-0.000102942 -5.52364e-07 0)
(-0.00010213 -5.86835e-07 0)
(-0.00010127 -6.20837e-07 0)
(-0.000100363 -6.54427e-07 0)
(-9.94092e-05 -6.87902e-07 0)
(-9.84082e-05 -7.2143e-07 0)
(-9.73613e-05 -7.54825e-07 0)
(-9.62692e-05 -7.87678e-07 0)
(-9.51323e-05 -8.19687e-07 0)
(-9.39513e-05 -8.50862e-07 0)
(-9.27267e-05 -8.81428e-07 0)
(-9.14592e-05 -9.11539e-07 0)
(-9.015e-05 -9.4111e-07 0)
(-8.88003e-05 -9.69907e-07 0)
(-8.7411e-05 -9.97763e-07 0)
(-8.59832e-05 -1.02471e-06 0)
(-8.45173e-05 -1.05096e-06 0)
(-8.30142e-05 -1.07673e-06 0)
(-8.14743e-05 -1.10217e-06 0)
(-7.98985e-05 -1.12727e-06 0)
(-7.82877e-05 -1.15191e-06 0)
(-7.66423e-05 -1.17598e-06 0)
(-7.49629e-05 -1.19949e-06 0)
(-7.32497e-05 -1.22264e-06 0)
(-7.15032e-05 -1.24566e-06 0)
(-6.97238e-05 -1.26871e-06 0)
(-6.79119e-05 -1.29175e-06 0)
(-6.6068e-05 -1.31463e-06 0)
(-6.41925e-05 -1.33721e-06 0)
(-6.2286e-05 -1.35941e-06 0)
(-6.03491e-05 -1.38112e-06 0)
(-5.83826e-05 -1.40212e-06 0)
(-5.63875e-05 -1.42219e-06 0)
(-5.43648e-05 -1.44126e-06 0)
(-5.23156e-05 -1.45944e-06 0)
(-5.0241e-05 -1.47693e-06 0)
(-4.81421e-05 -1.49385e-06 0)
(-4.60198e-05 -1.51014e-06 0)
(-4.38753e-05 -1.52571e-06 0)
(-4.17093e-05 -1.54055e-06 0)
(-3.95229e-05 -1.55473e-06 0)
(-3.73172e-05 -1.56828e-06 0)
(-3.50936e-05 -1.58102e-06 0)
(-3.28539e-05 -1.59257e-06 0)
(-3.06005e-05 -1.60235e-06 0)
(-2.83361e-05 -1.60975e-06 0)
(-2.60645e-05 -1.61408e-06 0)
(-2.37905e-05 -1.61454e-06 0)
(-2.15203e-05 -1.61002e-06 0)
(-1.92623e-05 -1.59907e-06 0)
(-1.7027e-05 -1.57982e-06 0)
(-1.4828e-05 -1.55006e-06 0)
(-1.26817e-05 -1.50714e-06 0)
(-1.06081e-05 -1.44797e-06 0)
(-8.63111e-06 -1.36904e-06 0)
(-6.77845e-06 -1.26669e-06 0)
(-5.08171e-06 -1.13758e-06 0)
(-3.57537e-06 -9.79245e-07 0)
(-2.29514e-06 -7.90872e-07 0)
(-1.27481e-06 -5.74871e-07 0)
(-5.4055e-07 -3.40332e-07 0)
(-1.01689e-07 -1.09417e-07 0)
(7.08078e-08 7.2704e-08 0)
(4.7032e-08 1.2651e-07 0)
(-9.16242e-07 9.13684e-07 0)
(-1.86137e-06 -7.21982e-07 0)
(-2.7809e-06 -1.63493e-06 0)
(-3.20742e-06 -1.28647e-06 0)
(-3.63935e-06 -3.26318e-07 0)
(-4.40836e-06 7.60317e-07 0)
(-5.62613e-06 1.77797e-06 0)
(-7.33515e-06 2.63179e-06 0)
(-9.51331e-06 3.3255e-06 0)
(-1.21079e-05 3.87775e-06 0)
(-1.50476e-05 4.29474e-06 0)
(-1.82475e-05 4.59406e-06 0)
(-2.16462e-05 4.79409e-06 0)
(-2.51988e-05 4.9205e-06 0)
(-2.88536e-05 4.99675e-06 0)
(-3.25695e-05 5.03184e-06 0)
(-3.63131e-05 5.02916e-06 0)
(-4.00588e-05 4.99891e-06 0)
(-4.37949e-05 4.95173e-06 0)
(-4.75114e-05 4.89501e-06 0)
(-5.11969e-05 4.83487e-06 0)
(-5.48437e-05 4.77092e-06 0)
(-5.84477e-05 4.70246e-06 0)
(-6.20067e-05 4.63166e-06 0)
(-6.55218e-05 4.56103e-06 0)
(-6.89937e-05 4.49232e-06 0)
(-7.24207e-05 4.4264e-06 0)
(-7.58012e-05 4.36289e-06 0)
(-7.91348e-05 4.29972e-06 0)
(-8.24214e-05 4.23508e-06 0)
(-8.56611e-05 4.16951e-06 0)
(-8.88544e-05 4.10457e-06 0)
(-9.20021e-05 4.04077e-06 0)
(-9.51032e-05 3.97773e-06 0)
(-9.81561e-05 3.91481e-06 0)
(-0.000101159 3.85106e-06 0)
(-0.000104113 3.786e-06 0)
(-0.000107018 3.72033e-06 0)
(-0.000109875 3.65544e-06 0)
(-0.000112682 3.59187e-06 0)
(-0.000115437 3.52816e-06 0)
(-0.000118139 3.46197e-06 0)
(-0.000120788 3.39273e-06 0)
(-0.000123384 3.32211e-06 0)
(-0.000125925 3.2517e-06 0)
(-0.000128411 3.18112e-06 0)
(-0.00013084 3.10845e-06 0)
(-0.00013321 3.03212e-06 0)
(-0.000135518 2.9523e-06 0)
(-0.000137765 2.87036e-06 0)
(-0.00013995 2.78742e-06 0)
(-0.000142073 2.70344e-06 0)
(-0.00014413 2.61768e-06 0)
(-0.000146119 2.52958e-06 0)
(-0.000148041 2.43947e-06 0)
(-0.000149895 2.34846e-06 0)
(-0.000151682 2.25752e-06 0)
(-0.000153398 2.16668e-06 0)
(-0.000155043 2.07528e-06 0)
(-0.000156616 1.98277e-06 0)
(-0.000158117 1.88928e-06 0)
(-0.000159547 1.79549e-06 0)
(-0.000160904 1.70205e-06 0)
(-0.000162188 1.60896e-06 0)
(-0.000163397 1.51564e-06 0)
(-0.000164533 1.42159e-06 0)
(-0.000165594 1.32702e-06 0)
(-0.000166582 1.23262e-06 0)
(-0.000167496 1.13889e-06 0)
(-0.000168335 1.04574e-06 0)
(-0.0001691 9.52689e-07 0)
(-0.000169789 8.59244e-07 0)
(-0.000170405 7.65296e-07 0)
(-0.000170946 6.71056e-07 0)
(-0.000171412 5.76731e-07 0)
(-0.000171803 4.822e-07 0)
(-0.000172118 3.87039e-07 0)
(-0.000172357 2.90833e-07 0)
(-0.00017252 1.93484e-07 0)
(-0.000172607 9.52192e-08 0)
(-0.000172616 -3.63927e-09 0)
(-0.000172548 -1.02933e-07 0)
(-0.000172403 -2.027e-07 0)
(-0.00017218 -3.03088e-07 0)
(-0.000171879 -4.04061e-07 0)
(-0.000171501 -5.05239e-07 0)
(-0.000171045 -6.06024e-07 0)
(-0.000170511 -7.05976e-07 0)
(-0.000169901 -8.05078e-07 0)
(-0.000169213 -9.03582e-07 0)
(-0.00016845 -1.00163e-06 0)
(-0.00016761 -1.09911e-06 0)
(-0.000166695 -1.19577e-06 0)
(-0.000165705 -1.29165e-06 0)
(-0.000164641 -1.38706e-06 0)
(-0.000163502 -1.48242e-06 0)
(-0.000162289 -1.57788e-06 0)
(-0.000161002 -1.67326e-06 0)
(-0.000159643 -1.76813e-06 0)
(-0.000158211 -1.8622e-06 0)
(-0.000156707 -1.95544e-06 0)
(-0.000155131 -2.04798e-06 0)
(-0.000153485 -2.13978e-06 0)
(-0.000151769 -2.23056e-06 0)
(-0.000149984 -2.31989e-06 0)
(-0.000148131 -2.40751e-06 0)
(-0.00014621 -2.4934e-06 0)
(-0.000144223 -2.57764e-06 0)
(-0.000142172 -2.66025e-06 0)
(-0.000140056 -2.7411e-06 0)
(-0.000137879 -2.82005e-06 0)
(-0.00013564 -2.89704e-06 0)
(-0.000133341 -2.97223e-06 0)
(-0.000130982 -3.04591e-06 0)
(-0.000128566 -3.11837e-06 0)
(-0.000126092 -3.18975e-06 0)
(-0.000123563 -3.26e-06 0)
(-0.000120978 -3.32898e-06 0)
(-0.00011834 -3.39663e-06 0)
(-0.000115648 -3.46314e-06 0)
(-0.000112904 -3.52886e-06 0)
(-0.000110107 -3.59407e-06 0)
(-0.00010726 -3.65879e-06 0)
(-0.000104363 -3.72279e-06 0)
(-0.000101418 -3.78574e-06 0)
(-9.84245e-05 -3.84732e-06 0)
(-9.53845e-05 -3.90732e-06 0)
(-9.22988e-05 -3.96553e-06 0)
(-8.91687e-05 -4.02173e-06 0)
(-8.59958e-05 -4.07574e-06 0)
(-8.27817e-05 -4.12751e-06 0)
(-7.9528e-05 -4.17717e-06 0)
(-7.62359e-05 -4.22487e-06 0)
(-7.29071e-05 -4.27072e-06 0)
(-6.95429e-05 -4.31471e-06 0)
(-6.61453e-05 -4.35668e-06 0)
(-6.27159e-05 -4.39644e-06 0)
(-5.92568e-05 -4.43365e-06 0)
(-5.57706e-05 -4.46782e-06 0)
(-5.22602e-05 -4.49814e-06 0)
(-4.87295e-05 -4.52342e-06 0)
(-4.51833e-05 -4.54206e-06 0)
(-4.16274e-05 -4.55198e-06 0)
(-3.80697e-05 -4.55058e-06 0)
(-3.45203e-05 -4.53456e-06 0)
(-3.09924e-05 -4.49985e-06 0)
(-2.75028e-05 -4.44143e-06 0)
(-2.4072e-05 -4.35337e-06 0)
(-2.07253e-05 -4.22885e-06 0)
(-1.74923e-05 -4.06027e-06 0)
(-1.44081e-05 -3.83956e-06 0)
(-1.15125e-05 -3.55875e-06 0)
(-8.84983e-06 -3.21089e-06 0)
(-6.46725e-06 -2.79153e-06 0)
(-4.41232e-06 -2.30101e-06 0)
(-2.72869e-06 -1.74823e-06 0)
(-1.44888e-06 -1.15731e-06 0)
(-5.84679e-07 -5.78452e-07 0)
(-1.14262e-07 -1.00799e-07 0)
(1.30247e-08 1.39588e-07 0)
(-6.51971e-07 2.44807e-06 0)
(-1.82799e-06 1.02019e-06 0)
(-3.60832e-06 -3.30569e-07 0)
(-5.18459e-06 -2.05103e-07 0)
(-6.71709e-06 7.94098e-07 0)
(-8.46294e-06 2.18167e-06 0)
(-1.05769e-05 3.63252e-06 0)
(-1.31274e-05 4.97455e-06 0)
(-1.61226e-05 6.12775e-06 0)
(-1.95499e-05 7.07308e-06 0)
(-2.33565e-05 7.82596e-06 0)
(-2.74763e-05 8.39891e-06 0)
(-3.18418e-05 8.80691e-06 0)
(-3.63873e-05 9.08019e-06 0)
(-4.10655e-05 9.249e-06 0)
(-4.58334e-05 9.33705e-06 0)
(-5.06517e-05 9.36414e-06 0)
(-5.54889e-05 9.34161e-06 0)
(-6.03208e-05 9.28127e-06 0)
(-6.51315e-05 9.19657e-06 0)
(-6.99106e-05 9.09794e-06 0)
(-7.46505e-05 8.99102e-06 0)
(-7.9344e-05 8.87884e-06 0)
(-8.39859e-05 8.76217e-06 0)
(-8.8574e-05 8.64188e-06 0)
(-9.31073e-05 8.52068e-06 0)
(-9.75852e-05 8.40123e-06 0)
(-0.000102007 8.28427e-06 0)
(-0.000106374 8.16876e-06 0)
(-0.000110682 8.05309e-06 0)
(-0.000114931 7.93598e-06 0)
(-0.000119118 7.81688e-06 0)
(-0.000123246 7.69668e-06 0)
(-0.000127313 7.57694e-06 0)
(-0.000131319 7.45824e-06 0)
(-0.000135263 7.33938e-06 0)
(-0.000139144 7.21859e-06 0)
(-0.000142958 7.09522e-06 0)
(-0.000146706 6.97029e-06 0)
(-0.000150386 6.84512e-06 0)
(-0.000154 6.71975e-06 0)
(-0.000157547 6.59288e-06 0)
(-0.000161023 6.46304e-06 0)
(-0.000164426 6.32964e-06 0)
(-0.000167754 6.19289e-06 0)
(-0.000171009 6.05347e-06 0)
(-0.000174189 5.91167e-06 0)
(-0.000177293 5.76686e-06 0)
(-0.000180317 5.6179e-06 0)
(-0.00018326 5.46426e-06 0)
(-0.000186121 5.30658e-06 0)
(-0.000188899 5.14617e-06 0)
(-0.000191593 4.98372e-06 0)
(-0.000194201 4.81883e-06 0)
(-0.000196722 4.65078e-06 0)
(-0.000199153 4.47978e-06 0)
(-0.000201495 4.30704e-06 0)
(-0.000203747 4.13361e-06 0)
(-0.000205906 3.95955e-06 0)
(-0.000207972 3.78412e-06 0)
(-0.000209944 3.60673e-06 0)
(-0.000211822 3.42776e-06 0)
(-0.000213603 3.24819e-06 0)
(-0.000215289 3.06864e-06 0)
(-0.000216877 2.88888e-06 0)
(-0.000218369 2.70835e-06 0)
(-0.000219763 2.52688e-06 0)
(-0.000221058 2.34498e-06 0)
(-0.000222254 2.16333e-06 0)
(-0.000223352 1.98217e-06 0)
(-0.000224351 1.80116e-06 0)
(-0.00022525 1.61978e-06 0)
(-0.00022605 1.43773e-06 0)
(-0.00022675 1.25507e-06 0)
(-0.00022735 1.07194e-06 0)
(-0.000227849 8.88247e-07 0)
(-0.000228248 7.03679e-07 0)
(-0.000228547 5.17914e-07 0)
(-0.000228744 3.30812e-07 0)
(-0.00022884 1.42451e-07 0)
(-0.000228834 -4.6947e-08 0)
(-0.000228727 -2.37122e-07 0)
(-0.000228518 -4.27885e-07 0)
(-0.000228207 -6.19137e-07 0)
(-0.000227795 -8.10779e-07 0)
(-0.000227281 -1.00253e-06 0)
(-0.000226665 -1.19392e-06 0)
(-0.000225948 -1.38442e-06 0)
(-0.00022513 -1.57371e-06 0)
(-0.000224212 -1.76176e-06 0)
(-0.000223194 -1.9487e-06 0)
(-0.000222075 -2.13466e-06 0)
(-0.000220858 -2.31965e-06 0)
(-0.000219541 -2.5036e-06 0)
(-0.000218126 -2.68651e-06 0)
(-0.000216613 -2.86855e-06 0)
(-0.000215004 -3.04997e-06 0)
(-0.000213299 -3.2308e-06 0)
(-0.000211497 -3.41078e-06 0)
(-0.000209601 -3.58944e-06 0)
(-0.000207611 -3.76645e-06 0)
(-0.000205528 -3.94172e-06 0)
(-0.000203353 -4.11526e-06 0)
(-0.000201088 -4.28693e-06 0)
(-0.000198732 -4.45636e-06 0)
(-0.000196287 -4.62317e-06 0)
(-0.000193754 -4.78707e-06 0)
(-0.000191134 -4.94798e-06 0)
(-0.000188429 -5.10594e-06 0)
(-0.00018564 -5.26095e-06 0)
(-0.000182768 -5.41294e-06 0)
(-0.000179815 -5.5618e-06 0)
(-0.000176782 -5.70755e-06 0)
(-0.000173669 -5.85039e-06 0)
(-0.00017048 -5.99064e-06 0)
(-0.000167214 -6.12857e-06 0)
(-0.000163874 -6.26429e-06 0)
(-0.000160461 -6.39773e-06 0)
(-0.000156976 -6.52883e-06 0)
(-0.000153421 -6.65765e-06 0)
(-0.000149795 -6.78446e-06 0)
(-0.000146102 -6.90955e-06 0)
(-0.000142342 -7.03304e-06 0)
(-0.000138517 -7.15477e-06 0)
(-0.000134628 -7.27433e-06 0)
(-0.000130676 -7.39123e-06 0)
(-0.000126664 -7.50507e-06 0)
(-0.000122593 -7.61557e-06 0)
(-0.000118464 -7.72254e-06 0)
(-0.000114278 -7.82583e-06 0)
(-0.000110038 -7.92528e-06 0)
(-0.000105746 -8.02086e-06 0)
(-0.000101404 -8.11264e-06 0)
(-9.70128e-05 -8.20071e-06 0)
(-9.25755e-05 -8.28502e-06 0)
(-8.80941e-05 -8.36527e-06 0)
(-8.3571e-05 -8.44093e-06 0)
(-7.90095e-05 -8.51121e-06 0)
(-7.4413e-05 -8.57507e-06 0)
(-6.97856e-05 -8.63101e-06 0)
(-6.51327e-05 -8.6769e-06 0)
(-6.04608e-05 -8.70973e-06 0)
(-5.57781e-05 -8.72553e-06 0)
(-5.10953e-05 -8.7192e-06 0)
(-4.64259e-05 -8.68448e-06 0)
(-4.17871e-05 -8.61371e-06 0)
(-3.72004e-05 -8.49769e-06 0)
(-3.26921e-05 -8.32568e-06 0)
(-2.82938e-05 -8.08554e-06 0)
(-2.40429e-05 -7.76418e-06 0)
(-1.99821e-05 -7.34814e-06 0)
(-1.61598e-05 -6.82463e-06 0)
(-1.26287e-05 -6.18306e-06 0)
(-9.4444e-06 -5.41758e-06 0)
(-6.66221e-06 -4.5308e-06 0)
(-4.33286e-06 -3.53969e-06 0)
(-2.49505e-06 -2.48469e-06 0)
(-1.1672e-06 -1.44322e-06 0)
(-3.47569e-07 -5.42828e-07 0)
(-3.2602e-08 3.95424e-08 0)
(-4.19964e-07 3.26712e-06 0)
(-1.5889e-06 2.93675e-06 0)
(-3.83535e-06 1.79638e-06 0)
(-6.29645e-06 1.9313e-06 0)
(-8.82298e-06 3.0218e-06 0)
(-1.15601e-05 4.62728e-06 0)
(-1.46189e-05 6.42859e-06 0)
(-1.80672e-05 8.19405e-06 0)
(-2.19319e-05 9.7809e-06 0)
(-2.61959e-05 1.11274e-05 0)
(-3.08328e-05 1.22249e-05 0)
(-3.57983e-05 1.30827e-05 0)
(-4.10283e-05 1.37252e-05 0)
(-4.64617e-05 1.41764e-05 0)
(-5.20427e-05 1.44656e-05 0)
(-5.77252e-05 1.46271e-05 0)
(-6.34723e-05 1.46906e-05 0)
(-6.92509e-05 1.46804e-05 0)
(-7.50326e-05 1.46138e-05 0)
(-8.07962e-05 1.45061e-05 0)
(-8.65269e-05 1.43694e-05 0)
(-9.2215e-05 1.42148e-05 0)
(-9.78535e-05 1.40502e-05 0)
(-0.000103438 1.38793e-05 0)
(-0.000108962 1.3704e-05 0)
(-0.000114424 1.35258e-05 0)
(-0.000119821 1.33456e-05 0)
(-0.000125153 1.31642e-05 0)
(-0.000130418 1.2983e-05 0)
(-0.000135616 1.28029e-05 0)
(-0.000140745 1.26224e-05 0)
(-0.000145804 1.24396e-05 0)
(-0.00015079 1.22537e-05 0)
(-0.000155702 1.20655e-05 0)
(-0.000160541 1.18759e-05 0)
(-0.000165304 1.16852e-05 0)
(-0.000169992 1.14933e-05 0)
(-0.000174602 1.12993e-05 0)
(-0.000179131 1.11023e-05 0)
(-0.000183577 1.09016e-05 0)
(-0.000187941 1.06973e-05 0)
(-0.000192221 1.04907e-05 0)
(-0.000196417 1.02819e-05 0)
(-0.000200525 1.00696e-05 0)
(-0.000204544 9.8522e-06 0)
(-0.000208472 9.6288e-06 0)
(-0.000212307 9.40014e-06 0)
(-0.000216048 9.16724e-06 0)
(-0.000219695 8.93007e-06 0)
(-0.000223246 8.68766e-06 0)
(-0.000226697 8.43938e-06 0)
(-0.000230048 8.18574e-06 0)
(-0.000233296 7.92787e-06 0)
(-0.000236442 7.66638e-06 0)
(-0.000239483 7.40124e-06 0)
(-0.000242418 7.13228e-06 0)
(-0.000245245 6.8598e-06 0)
(-0.000247962 6.58454e-06 0)
(-0.000250568 6.3071e-06 0)
(-0.000253062 6.0276e-06 0)
(-0.000255444 5.74589e-06 0)
(-0.000257712 5.46196e-06 0)
(-0.000259865 5.17616e-06 0)
(-0.0002619 4.8889e-06 0)
(-0.000263819 4.60051e-06 0)
(-0.00026562 4.31112e-06 0)
(-0.000267304 4.02083e-06 0)
(-0.000268868 3.72977e-06 0)
(-0.000270312 3.43817e-06 0)
(-0.000271636 3.14623e-06 0)
(-0.000272839 2.85395e-06 0)
(-0.000273922 2.56119e-06 0)
(-0.000274883 2.26785e-06 0)
(-0.000275723 1.97381e-06 0)
(-0.000276441 1.67892e-06 0)
(-0.000277036 1.38295e-06 0)
(-0.000277508 1.08571e-06 0)
(-0.000277859 7.87138e-07 0)
(-0.000278087 4.87287e-07 0)
(-0.000278192 1.86222e-07 0)
(-0.000278174 -1.15998e-07 0)
(-0.000278032 -4.19282e-07 0)
(-0.000277768 -7.23408e-07 0)
(-0.000277382 -1.028e-06 0)
(-0.000276872 -1.33259e-06 0)
(-0.00027624 -1.63679e-06 0)
(-0.000275486 -1.94032e-06 0)
(-0.000274609 -2.24296e-06 0)
(-0.000273611 -2.54443e-06 0)
(-0.000272491 -2.84437e-06 0)
(-0.000271251 -3.14254e-06 0)
(-0.000269889 -3.43894e-06 0)
(-0.000268408 -3.73378e-06 0)
(-0.000266807 -4.02724e-06 0)
(-0.000265087 -4.31931e-06 0)
(-0.000263249 -4.60985e-06 0)
(-0.000261294 -4.89872e-06 0)
(-0.000259224 -5.18583e-06 0)
(-0.000257038 -5.47109e-06 0)
(-0.000254738 -5.75429e-06 0)
(-0.000252324 -6.03515e-06 0)
(-0.000249799 -6.31331e-06 0)
(-0.000247163 -6.58847e-06 0)
(-0.000244418 -6.86041e-06 0)
(-0.000241564 -7.12892e-06 0)
(-0.000238602 -7.39378e-06 0)
(-0.000235535 -7.65472e-06 0)
(-0.000232363 -7.91146e-06 0)
(-0.000229087 -8.16385e-06 0)
(-0.00022571 -8.41179e-06 0)
(-0.000222233 -8.65526e-06 0)
(-0.000218656 -8.89424e-06 0)
(-0.000214982 -9.12875e-06 0)
(-0.000211212 -9.3589e-06 0)
(-0.000207347 -9.58484e-06 0)
(-0.000203391 -9.80675e-06 0)
(-0.000199344 -1.00248e-05 0)
(-0.000195207 -1.0239e-05 0)
(-0.000190984 -1.04496e-05 0)
(-0.000186674 -1.06565e-05 0)
(-0.000182281 -1.086e-05 0)
(-0.000177805 -1.106e-05 0)
(-0.000173248 -1.12567e-05 0)
(-0.000168613 -1.14499e-05 0)
(-0.000163901 -1.16395e-05 0)
(-0.000159114 -1.18249e-05 0)
(-0.000154254 -1.20055e-05 0)
(-0.000149323 -1.2181e-05 0)
(-0.000144321 -1.23511e-05 0)
(-0.000139253 -1.25155e-05 0)
(-0.000134119 -1.26741e-05 0)
(-0.000128921 -1.2827e-05 0)
(-0.000123663 -1.2974e-05 0)
(-0.000118347 -1.31148e-05 0)
(-0.000112975 -1.32493e-05 0)
(-0.00010755 -1.33769e-05 0)
(-0.000102075 -1.34968e-05 0)
(-9.65535e-05 -1.36077e-05 0)
(-9.09909e-05 -1.37079e-05 0)
(-8.53922e-05 -1.37947e-05 0)
(-7.97639e-05 -1.38648e-05 0)
(-7.41142e-05 -1.39134e-05 0)
(-6.84533e-05 -1.39343e-05 0)
(-6.27943e-05 -1.39195e-05 0)
(-5.71536e-05 -1.38593e-05 0)
(-5.15516e-05 -1.37418e-05 0)
(-4.60134e-05 -1.35528e-05 0)
(-4.05694e-05 -1.32765e-05 0)
(-3.5256e-05 -1.28947e-05 0)
(-3.01158e-05 -1.23884e-05 0)
(-2.51973e-05 -1.17383e-05 0)
(-2.05544e-05 -1.09266e-05 0)
(-1.62457e-05 -9.93914e-06 0)
(-1.23325e-05 -8.7691e-06 0)
(-8.8761e-06 -7.42169e-06 0)
(-5.93378e-06 -5.9214e-06 0)
(-3.55205e-06 -4.32263e-06 0)
(-1.76003e-06 -2.72438e-06 0)
(-5.83577e-07 -1.2816e-06 0)
(-7.74284e-08 -1.90043e-07 0)
(-2.74862e-07 3.94828e-06 0)
(-1.38254e-06 4.91235e-06 0)
(-3.85451e-06 4.39144e-06 0)
(-6.88153e-06 4.82881e-06 0)
(-1.02039e-05 6.14842e-06 0)
(-1.38078e-05 8.01865e-06 0)
(-1.7734e-05 1.01427e-05 0)
(-2.20383e-05 1.22795e-05 0)
(-2.67302e-05 1.42642e-05 0)
(-3.1801e-05 1.59982e-05 0)
(-3.72239e-05 1.74366e-05 0)
(-4.29615e-05 1.85843e-05 0)
(-4.89665e-05 1.94619e-05 0)
(-5.51845e-05 2.00975e-05 0)
(-6.156e-05 2.0524e-05 0)
(-6.80443e-05 2.07757e-05 0)
(-7.4598e-05 2.08886e-05 0)
(-8.11892e-05 2.08957e-05 0)
(-8.77898e-05 2.08239e-05 0)
(-9.43765e-05 2.06939e-05 0)
(-0.000100932 2.05215e-05 0)
(-0.000107442 2.03197e-05 0)
(-0.000113898 2.00985e-05 0)
(-0.000120296 1.98656e-05 0)
(-0.00012663 1.9626e-05 0)
(-0.000132897 1.93826e-05 0)
(-0.000139092 1.91357e-05 0)
(-0.000145214 1.88851e-05 0)
(-0.00015126 1.86318e-05 0)
(-0.000157229 1.83766e-05 0)
(-0.00016312 1.81196e-05 0)
(-0.000168933 1.78603e-05 0)
(-0.000174665 1.75983e-05 0)
(-0.000180312 1.73328e-05 0)
(-0.000185874 1.7063e-05 0)
(-0.000191349 1.67888e-05 0)
(-0.000196736 1.65113e-05 0)
(-0.000202034 1.62315e-05 0)
(-0.00020724 1.59484e-05 0)
(-0.000212353 1.56604e-05 0)
(-0.000217369 1.53665e-05 0)
(-0.000222286 1.50669e-05 0)
(-0.000227105 1.47629e-05 0)
(-0.000231824 1.44543e-05 0)
(-0.000236441 1.41401e-05 0)
(-0.000240953 1.38191e-05 0)
(-0.000245358 1.34907e-05 0)
(-0.000249654 1.31552e-05 0)
(-0.00025384 1.2813e-05 0)
(-0.000257916 1.24644e-05 0)
(-0.000261879 1.21093e-05 0)
(-0.000265726 1.17476e-05 0)
(-0.000269455 1.13793e-05 0)
(-0.000273066 1.10049e-05 0)
(-0.000276557 1.06252e-05 0)
(-0.000279926 1.02407e-05 0)
(-0.000283172 9.85185e-06 0)
(-0.000286292 9.45859e-06 0)
(-0.000289285 9.06105e-06 0)
(-0.00029215 8.65962e-06 0)
(-0.000294885 8.25494e-06 0)
(-0.000297491 7.84751e-06 0)
(-0.000299963 7.43745e-06 0)
(-0.000302302 7.02472e-06 0)
(-0.000304507 6.60945e-06 0)
(-0.000306577 6.19212e-06 0)
(-0.000308511 5.77328e-06 0)
(-0.000310308 5.35335e-06 0)
(-0.000311967 4.93242e-06 0)
(-0.000313487 4.51042e-06 0)
(-0.000314869 4.08726e-06 0)
(-0.000316111 3.66306e-06 0)
(-0.000317214 3.23802e-06 0)
(-0.000318176 2.81218e-06 0)
(-0.000318997 2.38532e-06 0)
(-0.000319677 1.95708e-06 0)
(-0.000320216 1.52723e-06 0)
(-0.000320613 1.09582e-06 0)
(-0.00032087 6.63018e-07 0)
(-0.000320984 2.29067e-07 0)
(-0.000320957 -2.0591e-07 0)
(-0.000320789 -6.41875e-07 0)
(-0.00032048 -1.07872e-06 0)
(-0.000320029 -1.51605e-06 0)
(-0.000319437 -1.95325e-06 0)
(-0.000318705 -2.38968e-06 0)
(-0.000317832 -2.82496e-06 0)
(-0.000316819 -3.25894e-06 0)
(-0.000315665 -3.69153e-06 0)
(-0.000314373 -4.12242e-06 0)
(-0.000312941 -4.55125e-06 0)
(-0.000311371 -4.9777e-06 0)
(-0.000309663 -5.40173e-06 0)
(-0.000307818 -5.8235e-06 0)
(-0.000305836 -6.24319e-06 0)
(-0.000303718 -6.66072e-06 0)
(-0.000301467 -7.07575e-06 0)
(-0.000299082 -7.48785e-06 0)
(-0.000296565 -7.89674e-06 0)
(-0.000293917 -8.30231e-06 0)
(-0.000291139 -8.70445e-06 0)
(-0.000288233 -9.10289e-06 0)
(-0.000285199 -9.4972e-06 0)
(-0.00028204 -9.88694e-06 0)
(-0.000278756 -1.02718e-05 0)
(-0.000275349 -1.06516e-05 0)
(-0.00027182 -1.10262e-05 0)
(-0.00026817 -1.13953e-05 0)
(-0.000264402 -1.17587e-05 0)
(-0.000260517 -1.21161e-05 0)
(-0.000256516 -1.24674e-05 0)
(-0.000252401 -1.28126e-05 0)
(-0.000248174 -1.31515e-05 0)
(-0.000243836 -1.34844e-05 0)
(-0.000239389 -1.38114e-05 0)
(-0.000234836 -1.41326e-05 0)
(-0.000230178 -1.44479e-05 0)
(-0.000225418 -1.47575e-05 0)
(-0.000220557 -1.50616e-05 0)
(-0.000215597 -1.53603e-05 0)
(-0.00021054 -1.56537e-05 0)
(-0.000205389 -1.59418e-05 0)
(-0.000200144 -1.62245e-05 0)
(-0.00019481 -1.65017e-05 0)
(-0.000189388 -1.67731e-05 0)
(-0.00018388 -1.70384e-05 0)
(-0.000178288 -1.72971e-05 0)
(-0.000172614 -1.75486e-05 0)
(-0.00016686 -1.77924e-05 0)
(-0.000161029 -1.80284e-05 0)
(-0.000155124 -1.82563e-05 0)
(-0.000149146 -1.84761e-05 0)
(-0.000143099 -1.86874e-05 0)
(-0.000136984 -1.889e-05 0)
(-0.000130806 -1.9083e-05 0)
(-0.000124568 -1.92658e-05 0)
(-0.000118273 -1.9437e-05 0)
(-0.000111926 -1.95947e-05 0)
(-0.000105532 -1.97365e-05 0)
(-9.9098e-05 -1.98584e-05 0)
(-9.26312e-05 -1.99554e-05 0)
(-8.61414e-05 -2.00207e-05 0)
(-7.96405e-05 -2.00457e-05 0)
(-7.31432e-05 -2.00192e-05 0)
(-6.66683e-05 -1.99276e-05 0)
(-6.02384e-05 -1.97544e-05 0)
(-5.38816e-05 -1.94803e-05 0)
(-4.76312e-05 -1.90836e-05 0)
(-4.15271e-05 -1.85401e-05 0)
(-3.5615e-05 -1.78245e-05 0)
(-2.99475e-05 -1.69115e-05 0)
(-2.45825e-05 -1.57779e-05 0)
(-1.95827e-05 -1.44061e-05 0)
(-1.50139e-05 -1.27879e-05 0)
(-1.09429e-05 -1.09302e-05 0)
(-7.434e-06 -8.86345e-06 0)
(-4.54316e-06 -6.65197e-06 0)
(-2.31309e-06 -4.40944e-06 0)
(-7.99948e-07 -2.30692e-06 0)
(-1.16894e-07 -5.40661e-07 0)
(-2.00857e-07 4.53924e-06 0)
(-1.25635e-06 6.87215e-06 0)
(-3.80949e-06 7.27867e-06 0)
(-7.19157e-06 8.26368e-06 0)
(-1.108e-05 9.97732e-06 0)
(-1.53805e-05 1.22049e-05 0)
(-2.00552e-05 1.46788e-05 0)
(-2.51064e-05 1.71789e-05 0)
(-3.05411e-05 1.95329e-05 0)
(-3.63436e-05 2.16258e-05 0)
(-4.24827e-05 2.33969e-05 0)
(-4.89197e-05 2.48302e-05 0)
(-5.5614e-05 2.59401e-05 0)
(-6.25192e-05 2.67582e-05 0)
(-6.95857e-05 2.73219e-05 0)
(-7.67658e-05 2.76694e-05 0)
(-8.40186e-05 2.78398e-05 0)
(-9.13107e-05 2.78705e-05 0)
(-9.86142e-05 2.77959e-05 0)
(-0.000105906 2.76431e-05 0)
(-0.000113169 2.74342e-05 0)
(-0.000120386 2.71848e-05 0)
(-0.000127549 2.69066e-05 0)
(-0.000134647 2.66092e-05 0)
(-0.000141677 2.62997e-05 0)
(-0.000148634 2.59823e-05 0)
(-0.000155516 2.56596e-05 0)
(-0.000162319 2.53327e-05 0)
(-0.000169038 2.50014e-05 0)
(-0.000175673 2.4665e-05 0)
(-0.000182222 2.43236e-05 0)
(-0.000188683 2.39779e-05 0)
(-0.000195055 2.36284e-05 0)
(-0.000201335 2.32745e-05 0)
(-0.000207521 2.2915e-05 0)
(-0.000213611 2.2549e-05 0)
(-0.000219601 2.21769e-05 0)
(-0.000225491 2.17993e-05 0)
(-0.00023128 2.14164e-05 0)
(-0.000236965 2.10278e-05 0)
(-0.000242543 2.06327e-05 0)
(-0.000248012 2.02302e-05 0)