/*--------------------------------*- C++ -*----------------------------------*\
  =========                 |
  \\      /  F ield         | OpenFOAM: The Open Source CFD Toolbox
   \\    /   O peration     | Website:  https://openfoam.org
    \\  /    A nd           | Version:  7
     \\/     M anipulation  |
\*---------------------------------------------------------------------------*/
FoamFile
{
    version     2.0;
    format      ascii;
    class       surfaceScalarField;
    location    "0.2625";
    object      phi;
}
// * * * * * * * * * * * * * * * * * * * * * * * * * * * * * * * * * * * * * //

dimensions      [0 3 -1 0 0 0 0];

internalField   nonuniform List<scalar> 
25360
(
1.14197e-10
-1.14423e-10
3.59482e-10
-2.45284e-10
6.04097e-10
-2.44609e-10
7.64949e-10
-1.60846e-10
7.97913e-10
-3.29642e-11
6.81189e-10
1.1672e-10
4.06154e-10
2.75034e-10
-2.78581e-11
4.34016e-10
-6.16715e-10
5.88863e-10
-1.3534e-09
7.36686e-10
-2.22914e-09
8.75745e-10
-3.23418e-09
1.00503e-09
-4.3582e-09
1.12402e-09
-5.59068e-09
1.23248e-09
-6.9211e-09
1.33043e-09
-8.33911e-09
1.41801e-09
-9.83459e-09
1.49548e-09
-1.13978e-08
1.56318e-09
-1.30192e-08
1.62149e-09
-1.46901e-08
1.67084e-09
-1.64018e-08
1.71168e-09
-1.81462e-08
1.74447e-09
-1.99159e-08
1.76969e-09
-2.17037e-08
1.78781e-09
-2.3503e-08
1.7993e-09
-2.53077e-08
1.80464e-09
-2.7112e-08
1.80429e-09
-2.89106e-08
1.79869e-09
-3.06989e-08
1.78828e-09
-3.24724e-08
1.77349e-09
-3.42271e-08
1.75472e-09
-3.59595e-08
1.73237e-09
-3.76663e-08
1.7068e-09
-3.93447e-08
1.67838e-09
-4.09921e-08
1.64744e-09
-4.26064e-08
1.61431e-09
-4.41857e-08
1.57928e-09
-4.57283e-08
1.54264e-09
-4.7233e-08
1.50465e-09
-4.86985e-08
1.46556e-09
-5.01242e-08
1.42561e-09
-5.15091e-08
1.38499e-09
-5.28531e-08
1.34391e-09
-5.41556e-08
1.30255e-09
-5.54167e-08
1.26106e-09
-5.66363e-08
1.2196e-09
-5.78146e-08
1.1783e-09
-5.89518e-08
1.13728e-09
-6.00485e-08
1.09665e-09
-6.1105e-08
1.05649e-09
-6.21219e-08
1.01689e-09
-6.30998e-08
9.77914e-10
-6.40394e-08
9.39627e-10
-6.49415e-08
9.02073e-10
-6.58068e-08
8.65292e-10
-6.66361e-08
8.29311e-10
-6.74302e-08
7.94152e-10
-6.81901e-08
7.59828e-10
-6.89164e-08
7.26344e-10
-6.96101e-08
6.93696e-10
-7.0272e-08
6.61876e-10
-7.09028e-08
6.30871e-10
-7.15035e-08
6.00658e-10
-7.20747e-08
5.71213e-10
-7.26172e-08
5.42505e-10
-7.31317e-08
5.14498e-10
-7.36189e-08
4.87152e-10
-7.40793e-08
4.60424e-10
-7.45136e-08
4.34267e-10
-7.49222e-08
4.08629e-10
-7.53056e-08
3.83458e-10
-7.56643e-08
3.58696e-10
-7.59986e-08
3.34285e-10
-7.63088e-08
3.10163e-10
-7.65951e-08
2.86266e-10
-7.68576e-08
2.62528e-10
-7.70965e-08
2.38881e-10
-7.73117e-08
2.15256e-10
-7.75033e-08
1.91582e-10
-7.76711e-08
1.67789e-10
-7.78149e-08
1.43802e-10
-7.79344e-08
1.1955e-10
-7.80294e-08
9.49568e-11
-7.80993e-08
6.99488e-11
-7.81438e-08
4.44513e-11
-7.81622e-08
1.839e-11
-7.81539e-08
-8.30858e-12
-7.81182e-08
-3.57174e-11
-7.80543e-08
-6.39086e-11
-7.79613e-08
-9.29527e-11
-7.78384e-08
-1.22919e-10
-7.76845e-08
-1.53874e-10
-7.74986e-08
-1.85881e-10
-7.72796e-08
-2.19003e-10
-7.70263e-08
-2.53295e-10
-7.67375e-08
-2.88812e-10
-7.64119e-08
-3.25603e-10
-7.60482e-08
-3.63712e-10
-7.5645e-08
-4.03176e-10
-7.5201e-08
-4.44028e-10
-7.47147e-08
-4.86291e-10
-7.41847e-08
-5.29982e-10
-7.36096e-08
-5.75109e-10
-7.2988e-08
-6.21671e-10
-7.23183e-08
-6.69656e-10
-7.15993e-08
-7.19042e-10
-7.08295e-08
-7.69794e-10
-7.00076e-08
-8.21864e-10
-6.91324e-08
-8.75192e-10
-6.82027e-08
-9.29703e-10
-6.72174e-08
-9.85305e-10
-6.61755e-08
-1.04189e-09
-6.50762e-08
-1.09934e-09
-6.39187e-08
-1.15751e-09
-6.27025e-08
-1.21624e-09
-6.14271e-08
-1.27534e-09
-6.00925e-08
-1.33463e-09
-5.86986e-08
-1.39387e-09
-5.72458e-08
-1.45284e-09
-5.57345e-08
-1.51126e-09
-5.41657e-08
-1.56886e-09
-5.25403e-08
-1.62533e-09
-5.086e-08
-1.68035e-09
-4.91264e-08
-1.73356e-09
-4.73418e-08
-1.7846e-09
-4.55087e-08
-1.83309e-09
-4.36301e-08
-1.87861e-09
-4.17094e-08
-1.92073e-09
-3.97504e-08
-1.95903e-09
-3.77574e-08
-1.99302e-09
-3.57351e-08
-2.02226e-09
-3.36889e-08
-2.04623e-09
-3.16244e-08
-2.06446e-09
-2.9548e-08
-2.07642e-09
-2.74664e-08
-2.08162e-09
-2.53868e-08
-2.07954e-09
-2.33172e-08
-2.06966e-09
-2.12657e-08
-2.05146e-09
-1.92413e-08
-2.02445e-09
-1.72532e-08
-1.98812e-09
-1.53112e-08
-1.942e-09
-1.34256e-08
-1.88562e-09
-1.1607e-08
-1.81856e-09
-9.86658e-09
-1.74042e-09
-8.21574e-09
-1.65085e-09
-6.66616e-09
-1.54957e-09
-5.22978e-09
-1.43639e-09
-3.91858e-09
-1.31121e-09
-2.74446e-09
-1.17411e-09
-1.71905e-09
-1.02541e-09
-8.53301e-10
-8.65742e-10
-1.57063e-10
-6.96242e-10
3.61752e-10
-5.18822e-10
6.98397e-10
-3.36647e-10
8.53368e-10
-1.54964e-10
8.35902e-10
1.74791e-11
6.69815e-10
1.66095e-10
4.03845e-10
2.65955e-10
1.3077e-10
2.73029e-10
1.30725e-10
2.45368e-10
-3.5979e-10
6.33885e-10
-6.33803e-10
9.49871e-10
-5.60594e-10
1.04661e-09
-2.57576e-10
8.28264e-10
1.85396e-10
2.38345e-10
7.06647e-10
-7.51511e-10
1.26489e-09
-2.15032e-09
1.83283e-09
-3.95396e-09
2.39251e-09
-6.14945e-09
2.93218e-09
-8.71792e-09
3.44422e-09
-1.16367e-08
3.92379e-09
-1.48806e-08
4.36797e-09
-1.84233e-08
4.7752e-09
-2.22377e-08
5.14483e-09
-2.62967e-08
5.47694e-09
-3.05733e-08
5.77209e-09
-3.50413e-08
6.03118e-09
-3.96752e-08
6.25542e-09
-4.44505e-08
6.44617e-09
-4.93438e-08
6.60494e-09
-5.43327e-08
6.73335e-09
-5.9396e-08
6.83307e-09
-6.4514e-08
6.90578e-09
-6.96679e-08
6.95322e-09
-7.48404e-08
6.97709e-09
-8.00152e-08
6.97909e-09
-8.51773e-08
6.96088e-09
-9.03132e-08
6.92411e-09
-9.541e-08
6.87035e-09
-1.00456e-07
6.80113e-09
-1.05442e-07
6.71794e-09
-1.10357e-07
6.62219e-09
-1.15194e-07
6.51525e-09
-1.19945e-07
6.39839e-09
-1.24604e-07
6.27284e-09
-1.29164e-07
6.13976e-09
-1.33622e-07
6.00024e-09
-1.37972e-07
5.8553e-09
-1.42213e-07
5.70589e-09
-1.4634e-07
5.5529e-09
-1.50352e-07
5.39714e-09
-1.54248e-07
5.23938e-09
-1.58025e-07
5.08032e-09
-1.61685e-07
4.92059e-09
-1.65226e-07
4.76077e-09
-1.68649e-07
4.60137e-09
-1.71955e-07
4.44288e-09
-1.75144e-07
4.2857e-09
-1.78218e-07
4.1302e-09
-1.81177e-07
3.9767e-09
-1.84025e-07
3.82549e-09
-1.86762e-07
3.67678e-09
-1.89391e-07
3.53078e-09
-1.91913e-07
3.38764e-09
-1.94331e-07
3.24749e-09
-1.96648e-07
3.1104e-09
-1.98864e-07
2.97644e-09
-2.00984e-07
2.84563e-09
-2.03008e-07
2.71797e-09
-2.04939e-07
2.59343e-09
-2.0678e-07
2.47196e-09
-2.08533e-07
2.35348e-09
-2.102e-07
2.23791e-09
-2.11783e-07
2.12512e-09
-2.13283e-07
2.01499e-09
-2.14703e-07
1.90737e-09
-2.16045e-07
1.80208e-09
-2.1731e-07
1.69896e-09
-2.18499e-07
1.59781e-09
-2.19614e-07
1.49842e-09
-2.20656e-07
1.40059e-09
-2.21625e-07
1.30407e-09
-2.22524e-07
1.20865e-09
-2.23352e-07
1.11407e-09
-2.24109e-07
1.02009e-09
-2.24797e-07
9.26433e-10
-2.25414e-07
8.32851e-10
-2.25962e-07
7.39067e-10
-2.26439e-07
6.44809e-10
-2.26845e-07
5.49798e-10
-2.27179e-07
4.53753e-10
-2.27441e-07
3.56391e-10
-2.27628e-07
2.57429e-10
-2.2774e-07
1.56582e-10
-2.27775e-07
5.35676e-11
-2.27732e-07
-5.18951e-11
-2.27607e-07
-1.60084e-10
-2.274e-07
-2.71271e-10
-2.27107e-07
-3.85724e-10
-2.26726e-07
-5.03704e-10
-2.26255e-07
-6.25462e-10
-2.2569e-07
-7.51238e-10
-2.25027e-07
-8.81262e-10
-2.24265e-07
-1.01575e-09
-2.23399e-07
-1.1549e-09
-2.22425e-07
-1.29888e-09
-2.21341e-07
-1.44788e-09
-2.20142e-07
-1.60201e-09
-2.18825e-07
-1.76139e-09
-2.17385e-07
-1.92611e-09
-2.15819e-07
-2.09622e-09
-2.14122e-07
-2.27174e-09
-2.12291e-07
-2.45266e-09
-2.10322e-07
-2.63891e-09
-2.08211e-07
-2.8304e-09
-2.05954e-07
-3.02699e-09
-2.03547e-07
-3.22849e-09
-2.00988e-07
-3.43464e-09
-1.98272e-07
-3.64514e-09
-1.95398e-07
-3.85964e-09
-1.92362e-07
-4.07772e-09
-1.89162e-07
-4.29888e-09
-1.85797e-07
-4.52258e-09
-1.82265e-07
-4.74818e-09
-1.78566e-07
-4.97499e-09
-1.74698e-07
-5.20223e-09
-1.70663e-07
-5.42907e-09
-1.66461e-07
-5.65455e-09
-1.62095e-07
-5.87769e-09
-1.57566e-07
-6.09739e-09
-1.52879e-07
-6.31248e-09
-1.48038e-07
-6.52171e-09
-1.43048e-07
-6.72376e-09
-1.37915e-07
-6.91722e-09
-1.32648e-07
-7.10061e-09
-1.27254e-07
-7.27239e-09
-1.21744e-07
-7.43093e-09
-1.16128e-07
-7.57457e-09
-1.1042e-07
-7.70156e-09
-1.04632e-07
-7.81012e-09
-9.87795e-08
-7.89842e-09
-9.28794e-08
-7.96459e-09
-8.69491e-08
-8.00675e-09
-8.10077e-08
-8.023e-09
-7.50758e-08
-8.01143e-09
-6.91753e-08
-7.97014e-09
-6.33295e-08
-7.89727e-09
-5.7563e-08
-7.79098e-09
-5.19016e-08
-7.64949e-09
-4.63725e-08
-7.47113e-09
-4.10038e-08
-7.25431e-09
-3.58248e-08
-6.9976e-09
-3.08655e-08
-6.69973e-09
-2.61566e-08
-6.3597e-09
-2.17294e-08
-5.97678e-09
-1.76151e-08
-5.55069e-09
-1.38447e-08
-5.08166e-09
-1.04481e-08
-4.57065e-09
-7.45387e-09
-4.01967e-09
-4.88749e-09
-3.43212e-09
-2.77024e-09
-2.81348e-09
-1.11683e-09
-2.17223e-09
6.78211e-11
-1.52131e-09
7.93346e-10
-8.80505e-10
1.0908e-09
-2.79982e-10
1.02258e-09
2.34341e-10
6.95264e-10
5.93339e-10
2.73139e-10
6.95237e-10
4.03827e-10
2.45776e-10
-6.05559e-10
5.63412e-10
-9.51438e-10
6.97742e-10
-6.94928e-10
4.74783e-10
-3.46164e-11
-2.2515e-10
8.85337e-10
-1.47794e-09
1.95945e-09
-3.32546e-09
3.11242e-09
-5.78426e-09
4.29163e-09
-8.85235e-09
5.46059e-09
-1.25144e-08
6.59422e-09
-1.67456e-08
7.67544e-09
-2.15147e-08
8.69288e-09
-2.6786e-08
9.63928e-09
-3.25211e-08
1.05103e-08
-3.86799e-08
1.13037e-08
-4.52219e-08
1.2019e-08
-5.21065e-08
1.26566e-08
-5.92935e-08
1.32182e-08
-6.67438e-08
1.37057e-08
-7.44195e-08
1.41219e-08
-8.22841e-08
1.44696e-08
-9.03028e-08
1.4752e-08
-9.84424e-08
1.49727e-08
-1.06672e-07
1.5135e-08
-1.14961e-07
1.52425e-08
-1.23283e-07
1.52989e-08
-1.31611e-07
1.53077e-08
-1.39923e-07
1.52724e-08
-1.48195e-07
1.51965e-08
-1.56408e-07
1.50834e-08
-1.64544e-07
1.49364e-08
-1.72584e-07
1.47587e-08
-1.80515e-07
1.45532e-08
-1.88323e-07
1.4323e-08
-1.95996e-07
1.40709e-08
-2.03522e-07
1.37994e-08
-2.10894e-07
1.35112e-08
-2.18102e-07
1.32085e-08
-2.2514e-07
1.28936e-08
-2.32003e-07
1.25686e-08
-2.38685e-07
1.22355e-08
-2.45184e-07
1.1896e-08
-2.51497e-07
1.15518e-08
-2.57621e-07
1.12044e-08
-2.63556e-07
1.08553e-08
-2.693e-07
1.05056e-08
-2.74856e-07
1.01566e-08
-2.80222e-07
9.80936e-09
-2.85401e-07
9.46469e-09
-2.90394e-07
9.12346e-09
-2.95204e-07
8.78638e-09
-2.99833e-07
8.45407e-09
-3.04283e-07
8.12705e-09
-3.08558e-07
7.80576e-09
-3.12661e-07
7.49054e-09
-3.16595e-07
7.18169e-09
-3.20364e-07
6.87939e-09
-3.23971e-07
6.58378e-09
-3.27421e-07
6.29492e-09
-3.30715e-07
6.01283e-09
-3.33859e-07
5.73745e-09
-3.36856e-07
5.46868e-09
-3.39709e-07
5.20637e-09
-3.42421e-07
4.9503e-09
-3.44997e-07
4.70026e-09
-3.47438e-07
4.45594e-09
-3.49747e-07
4.21703e-09
-3.51928e-07
3.98317e-09
-3.53983e-07
3.75399e-09
-3.55915e-07
3.52906e-09
-3.57724e-07
3.30794e-09
-3.59414e-07
3.09016e-09
-3.60985e-07
2.87524e-09
-3.62439e-07
2.66266e-09
-3.63777e-07
2.45189e-09
-3.64999e-07
2.24238e-09
-3.66106e-07
2.03358e-09
-3.67098e-07
1.82491e-09
-3.67975e-07
1.61578e-09
-3.68736e-07
1.4056e-09
-3.6938e-07
1.19376e-09
-3.69906e-07
9.79645e-10
-3.70312e-07
7.6265e-10
-3.70597e-07
5.42157e-10
-3.70757e-07
3.1755e-10
-3.70792e-07
8.82166e-11
-3.70698e-07
-1.46452e-10
-3.70471e-07
-3.87056e-10
-3.70108e-07
-6.34184e-10
-3.69605e-07
-8.88415e-10
-3.68958e-07
-1.15031e-09
-3.68163e-07
-1.4204e-09
-3.67215e-07
-1.69921e-09
-3.6611e-07
-1.98724e-09
-3.6484e-07
-2.28493e-09
-3.63403e-07
-2.59271e-09
-3.6179e-07
-2.91097e-09
-3.59998e-07
-3.24003e-09
-3.5802e-07
-3.5802e-09
-3.5585e-07
-3.93169e-09
-3.53481e-07
-4.29468e-09
-3.50908e-07
-4.66927e-09
-3.48124e-07
-5.05549e-09
-3.45124e-07
-5.45329e-09
-3.419e-07
-5.86252e-09
-3.38448e-07
-6.28297e-09
-3.3476e-07
-6.71428e-09
-3.30833e-07
-7.15604e-09
-3.2666e-07
-7.60767e-09
-3.22236e-07
-8.06852e-09
-3.17558e-07
-8.53777e-09
-3.12622e-07
-9.01449e-09
-3.07423e-07
-9.4976e-09
-3.0196e-07
-9.98589e-09
-2.9623e-07
-1.0478e-08
-2.90232e-07
-1.09723e-08
-2.83967e-07
-1.14672e-08
-2.77436e-07
-1.19608e-08
-2.70639e-07
-1.24511e-08
-2.63581e-07
-1.29358e-08
-2.56266e-07
-1.34127e-08
-2.48699e-07
-1.38791e-08
-2.40889e-07
-1.43323e-08
-2.32843e-07
-1.47695e-08
-2.24573e-07
-1.51876e-08
-2.1609e-07
-1.55834e-08
-2.07409e-07
-1.59536e-08
-1.98545e-07
-1.62947e-08
-1.89516e-07
-1.6603e-08
-1.80343e-07
-1.68748e-08
-1.71047e-07
-1.71064e-08
-1.61652e-07
-1.72937e-08
-1.52183e-07
-1.74328e-08
-1.42671e-07
-1.75196e-08
-1.33143e-07
-1.75502e-08
-1.23634e-07
-1.75204e-08
-1.14178e-07
-1.74263e-08
-1.04811e-07
-1.7264e-08
-9.55728e-08
-1.70297e-08
-8.65025e-08
-1.67197e-08
-7.76431e-08
-1.63306e-08
-6.90381e-08
-1.58593e-08
-6.07328e-08
-1.53029e-08
-5.27734e-08
-1.46592e-08
-4.52068e-08
-1.39263e-08
-3.80801e-08
-1.31034e-08
-3.14403e-08
-1.21905e-08
-2.53332e-08
-1.11888e-08
-1.98025e-08
-1.01013e-08
-1.48887e-08
-8.93345e-09
-1.06272e-08
-7.69362e-09
-7.04596e-09
-6.39473e-09
-4.16235e-09
-5.05582e-09
-1.97894e-09
-3.70472e-09
-4.77683e-10
-2.38177e-09
3.87608e-10
-1.1453e-09
7.01076e-10
-7.91613e-11
5.96004e-10
6.98409e-10
2.66902e-10
1.0244e-09
6.70723e-10
1.63749e-10
-7.69303e-10
2.6474e-10
-1.05242e-09
4.42425e-11
-4.74429e-10
-6.781e-10
6.87723e-10
-2.02904e-09
2.23627e-09
-4.09178e-09
4.0222e-09
-6.91445e-09
5.93509e-09
-1.05175e-08
7.89473e-09
-1.49004e-08
9.84341e-09
-2.00461e-08
1.17399e-08
-2.59259e-08
1.35553e-08
-3.25026e-08
1.52695e-08
-3.97325e-08
1.68692e-08
-4.75682e-08
1.83459e-08
-5.59594e-08
1.96949e-08
-6.48546e-08
2.09142e-08
-7.42021e-08
2.20041e-08
-8.39502e-08
2.29663e-08
-9.40482e-08
2.38037e-08
-1.04447e-07
2.45205e-08
-1.15098e-07
2.5121e-08
-1.25957e-07
2.56105e-08
-1.36979e-07
2.59945e-08
-1.48122e-07
2.62787e-08
-1.59349e-07
2.6469e-08
-1.70621e-07
2.65713e-08
-1.81905e-07
2.65916e-08
-1.93168e-07
2.6536e-08
-2.04382e-07
2.64101e-08
-2.15519e-07
2.62199e-08
-2.26553e-07
2.59708e-08
-2.37463e-07
2.56683e-08
-2.48227e-07
2.53176e-08
-2.58828e-07
2.49237e-08
-2.69248e-07
2.44914e-08
-2.79474e-07
2.40253e-08
-2.89492e-07
2.35296e-08
-2.99293e-07
2.30086e-08
-3.08865e-07
2.2466e-08
-3.18202e-07
2.19054e-08
-3.27296e-07
2.13302e-08
-3.36144e-07
2.07436e-08
-3.4474e-07
2.01483e-08
-3.53083e-07
1.95471e-08
-3.6117e-07
1.89424e-08
-3.69001e-07
1.83365e-08
-3.76576e-07
1.77313e-08
-3.83895e-07
1.71286e-08
-3.90961e-07
1.65302e-08
-3.97774e-07
1.59373e-08
-4.04339e-07
1.53513e-08
-4.10658e-07
1.47732e-08
-4.16735e-07
1.4204e-08
-4.22574e-07
1.36444e-08
-4.28179e-07
1.30952e-08
-4.33554e-07
1.25566e-08
-4.38703e-07
1.20293e-08
-4.43633e-07
1.15132e-08
-4.48347e-07
1.10087e-08
-4.5285e-07
1.05158e-08
-4.57146e-07
1.00343e-08
-4.61242e-07
9.56403e-09
-4.6514e-07
9.10484e-09
-4.68846e-07
8.65635e-09
-4.72364e-07
8.21814e-09
-4.75698e-07
7.78975e-09
-4.78852e-07
7.37062e-09
-4.81829e-07
6.96016e-09
-4.84632e-07
6.55769e-09
-4.87266e-07
6.1625e-09
-4.89732e-07
5.77384e-09
-4.92032e-07
5.39091e-09
-4.9417e-07
5.01285e-09
-4.96146e-07
4.6388e-09
-4.97962e-07
4.26783e-09
-4.99619e-07
3.89902e-09
-5.01117e-07
3.53138e-09
-5.02456e-07
3.16393e-09
-5.03635e-07
2.79567e-09
-5.04655e-07
2.42556e-09
-5.05514e-07
2.05256e-09
-5.0621e-07
1.67563e-09
-5.06741e-07
1.2937e-09
-5.07105e-07
9.05725e-10
-5.07298e-07
5.10642e-10
-5.07317e-07
1.07399e-10
-5.07158e-07
-3.05046e-10
-5.06818e-07
-7.27724e-10
-5.0629e-07
-1.16164e-09
-5.05571e-07
-1.60779e-09
-5.04654e-07
-2.06713e-09
-5.03534e-07
-2.54057e-09
-5.02204e-07
-3.02901e-09
-5.00658e-07
-3.53326e-09
-4.98889e-07
-4.05412e-09
-4.96889e-07
-4.59228e-09
-4.94652e-07
-5.14841e-09
-4.92169e-07
-5.72305e-09
-4.89432e-07
-6.3167e-09
-4.86434e-07
-6.92972e-09
-4.83167e-07
-7.5624e-09
-4.79621e-07
-8.21487e-09
-4.75789e-07
-8.88718e-09
-4.71663e-07
-9.57921e-09
-4.67235e-07
-1.02907e-08
-4.62497e-07
-1.10212e-08
-4.57441e-07
-1.17701e-08
-4.52061e-07
-1.25367e-08
-4.46348e-07
-1.332e-08
-4.40298e-07
-1.41188e-08
-4.33904e-07
-1.49316e-08
-4.27162e-07
-1.57569e-08
-4.20067e-07
-1.65927e-08
-4.12616e-07
-1.74369e-08
-4.04806e-07
-1.82872e-08
-3.96638e-07
-1.91408e-08
-3.8811e-07
-1.99949e-08
-3.79225e-07
-2.08462e-08
-3.69985e-07
-2.16912e-08
-3.60395e-07
-2.2526e-08
-3.50461e-07
-2.33467e-08
-3.40191e-07
-2.41488e-08
-3.29596e-07
-2.49276e-08
-3.18687e-07
-2.56782e-08
-3.07479e-07
-2.63954e-08
-2.95989e-07
-2.70737e-08
-2.84235e-07
-2.77073e-08
-2.7224e-07
-2.82902e-08
-2.60026e-07
-2.88164e-08
-2.47622e-07
-2.92794e-08
-2.35056e-07
-2.96726e-08
-2.2236e-07
-2.99895e-08
-2.09569e-07
-3.02233e-08
-1.96722e-07
-3.03671e-08
-1.83858e-07
-3.04142e-08
-1.7102e-07
-3.03577e-08
-1.58256e-07
-3.0191e-08
-1.45612e-07
-2.99077e-08
-1.3314e-07
-2.95013e-08
-1.20894e-07
-2.89659e-08
-1.08929e-07
-2.82961e-08
-9.73013e-08
-2.74868e-08
-8.60704e-08
-2.65337e-08
-7.52961e-08
-2.54334e-08
-6.50388e-08
-2.41837e-08
-5.53588e-08
-2.27835e-08
-4.63155e-08
-2.12338e-08
-3.79665e-08
-1.95378e-08
-3.03661e-08
-1.77017e-08
-2.35637e-08
-1.57358e-08
-1.76017e-08
-1.36557e-08
-1.25124e-08
-1.1484e-08
-8.31492e-09
-9.25328e-09
-5.01034e-09
-7.00929e-09
-2.57604e-09
-4.81605e-09
-9.58749e-10
-2.76259e-09
-6.60847e-11
-9.71849e-10
2.42897e-10
3.89397e-10
1.68989e-10
1.09832e-09
8.39717e-10
3.77444e-11
-8.07048e-10
-1.74165e-10
-8.40495e-10
-8.70532e-10
2.21948e-10
-2.22142e-09
2.03861e-09
-4.34861e-09
4.36346e-09
-7.33362e-09
7.00721e-09
-1.12244e-08
9.82589e-09
-1.60415e-08
1.27118e-08
-2.17834e-08
1.55853e-08
-2.84314e-08
1.83879e-08
-3.59532e-08
2.10771e-08
-4.43066e-08
2.36229e-08
-5.34419e-08
2.60045e-08
-6.33043e-08
2.82083e-08
-7.38355e-08
3.02261e-08
-8.49752e-08
3.2054e-08
-9.66623e-08
3.36912e-08
-1.08836e-07
3.51395e-08
-1.21435e-07
3.64028e-08
-1.344e-07
3.74861e-08
-1.47675e-07
3.83958e-08
-1.61204e-07
3.91392e-08
-1.74933e-07
3.97242e-08
-1.88813e-07
4.01589e-08
-2.02796e-07
4.04519e-08
-2.16837e-07
4.06121e-08
-2.30894e-07
4.06482e-08
-2.44927e-07
4.0569e-08
-2.589e-07
4.03833e-08
-2.7278e-07
4.00995e-08
-2.86535e-07
3.97261e-08
-3.00138e-07
3.92712e-08
-3.13563e-07
3.87426e-08
-3.26787e-07
3.81478e-08
-3.3979e-07
3.74942e-08
-3.52553e-07
3.67885e-08
-3.65061e-07
3.60374e-08
-3.77299e-07
3.5247e-08
-3.89257e-07
3.44233e-08
-4.00923e-07
3.35715e-08
-4.12289e-07
3.2697e-08
-4.2335e-07
3.18043e-08
-4.341e-07
3.0898e-08
-4.44535e-07
2.99821e-08
-4.54653e-07
2.90604e-08
-4.64453e-07
2.81362e-08
-4.73934e-07
2.72126e-08
-4.83098e-07
2.62923e-08
-4.91945e-07
2.5378e-08
-5.0048e-07
2.44718e-08
-5.08704e-07
2.35756e-08
-5.16622e-07
2.2691e-08
-5.24238e-07
2.18197e-08
-5.31556e-07
2.09626e-08
-5.38582e-07
2.01208e-08
-5.4532e-07
1.92952e-08
-5.51777e-07
1.84862e-08
-5.57958e-07
1.76942e-08
-5.63869e-07
1.69196e-08
-5.69515e-07
1.61622e-08
-5.74903e-07
1.54221e-08
-5.80038e-07
1.4699e-08
-5.84926e-07
1.39925e-08
-5.89572e-07
1.33021e-08
-5.93981e-07
1.26273e-08
-5.98158e-07
1.19672e-08
-6.02109e-07
1.13211e-08
-6.05837e-07
1.06881e-08
-6.09346e-07
1.00671e-08
-6.12641e-07
9.45715e-09
-6.15724e-07
8.85703e-09
-6.18599e-07
8.26554e-09
-6.21267e-07
7.68141e-09
-6.23732e-07
7.10329e-09
-6.25994e-07
6.52982e-09
-6.28054e-07
5.95957e-09
-6.29914e-07
5.39107e-09
-6.31573e-07
4.82282e-09
-6.3303e-07
4.25329e-09
-6.34286e-07
3.68093e-09
-6.35337e-07
3.10416e-09
-6.36183e-07
2.52139e-09
-6.3682e-07
1.93102e-09
-6.37246e-07
1.33146e-09
-6.37457e-07
7.21096e-10
-6.37448e-07
9.83465e-11
-6.37214e-07
-5.38365e-10
-6.36751e-07
-1.19059e-09
-6.36053e-07
-1.85986e-09
-6.35113e-07
-2.54765e-09
-6.33925e-07
-3.25541e-09
-6.32481e-07
-3.98452e-09
-6.30774e-07
-4.73631e-09
-6.28795e-07
-5.51201e-09
-6.26536e-07
-6.31279e-09
-6.23989e-07
-7.13972e-09
-6.21144e-07
-7.99376e-09
-6.17991e-07
-8.87573e-09
-6.14521e-07
-9.78633e-09
-6.10725e-07
-1.07261e-08
-6.06592e-07
-1.16955e-08
-6.02112e-07
-1.26946e-08
-5.97276e-07
-1.37235e-08
-5.92073e-07
-1.4782e-08
-5.86494e-07
-1.58697e-08
-5.80529e-07
-1.69859e-08
-5.7417e-07
-1.81296e-08
-5.67407e-07
-1.92996e-08
-5.60233e-07
-2.04944e-08
-5.52639e-07
-2.17122e-08
-5.4462e-07
-2.29508e-08
-5.36169e-07
-2.42077e-08
-5.27282e-07
-2.548e-08
-5.17954e-07
-2.67644e-08
-5.08184e-07
-2.80573e-08
-4.9797e-07
-2.93547e-08
-4.87313e-07
-3.0652e-08
-4.76215e-07
-3.19444e-08
-4.6468e-07
-3.32264e-08
-4.52713e-07
-3.44924e-08
-4.40324e-07
-3.57362e-08
-4.27522e-07
-3.6951e-08
-4.14319e-07
-3.81298e-08
-4.00732e-07
-3.92652e-08
-3.86778e-07
-4.03493e-08
-3.72478e-07
-4.13737e-08
-3.57856e-07
-4.23298e-08
-3.42938e-07
-4.32086e-08
-3.27753e-07
-4.40008e-08
-3.12336e-07
-4.46969e-08
-2.96721e-07
-4.52871e-08
-2.80949e-07
-4.57613e-08
-2.65063e-07
-4.61096e-08
-2.49108e-07
-4.63218e-08
-2.33135e-07
-4.63877e-08
-2.17195e-07
-4.62974e-08
-2.01345e-07
-4.60409e-08
-1.85644e-07
-4.56088e-08
-1.70154e-07
-4.49918e-08
-1.54938e-07
-4.41815e-08
-1.40064e-07
-4.31699e-08
-1.25601e-07
-4.195e-08
-1.11619e-07
-4.0516e-08
-9.81887e-08
-3.88635e-08
-8.53825e-08
-3.69898e-08
-7.32715e-08
-3.48945e-08
-6.19254e-08
-3.25799e-08
-5.14111e-08
-3.00521e-08
-4.17912e-08
-2.73216e-08
-3.31223e-08
-2.44048e-08
-2.54522e-08
-2.13258e-08
-1.88171e-08
-1.81191e-08
-1.32384e-08
-1.4832e-08
-8.71782e-09
-1.15299e-08
-5.23257e-09
-8.30129e-09
-2.72943e-09
-5.26571e-09
-1.11795e-09
-2.58333e-09
-2.63126e-10
-4.65444e-10
2.32517e-11
8.11932e-10
8.62971e-10
-1.10602e-10
-6.96451e-10
-6.9399e-10
-2.571e-10
-1.946e-09
1.47397e-09
-4.01444e-09
4.10706e-09
-7.00711e-09
7.35613e-09
-1.09968e-08
1.09969e-08
-1.60259e-08
1.4855e-08
-2.21111e-08
1.87971e-08
-2.92478e-08
2.27221e-08
-3.74139e-08
2.6554e-08
-4.65734e-08
3.02366e-08
-5.66794e-08
3.3729e-08
-6.76771e-08
3.70022e-08
-7.95054e-08
4.00366e-08
-9.20993e-08
4.282e-08
-1.05391e-07
4.53458e-08
-1.19312e-07
4.7612e-08
-1.33792e-07
4.96201e-08
-1.48764e-07
5.13743e-08
-1.64159e-07
5.28811e-08
-1.79912e-07
5.41487e-08
-1.95959e-07
5.51863e-08
-2.12239e-07
5.60044e-08
-2.28695e-07
5.66141e-08
-2.45269e-07
5.70268e-08
-2.61912e-07
5.72544e-08
-2.78572e-07
5.73089e-08
-2.95206e-07
5.72024e-08
-3.11769e-07
5.69467e-08
-3.28223e-07
5.65537e-08
-3.44532e-07
5.60349e-08
-3.60663e-07
5.54016e-08
-3.76584e-07
5.46645e-08
-3.92271e-07
5.38342e-08
-4.07698e-07
5.29208e-08
-4.22843e-07
5.19338e-08
-4.37688e-07
5.08825e-08
-4.52216e-07
4.97754e-08
-4.66414e-07
4.86207e-08
-4.80268e-07
4.74261e-08
-4.9377e-07
4.61988e-08
-5.06911e-07
4.49454e-08
-5.19685e-07
4.36722e-08
-5.32088e-07
4.23848e-08
-5.44116e-07
4.10885e-08
-5.55768e-07
3.97882e-08
-5.67044e-07
3.84881e-08
-5.77943e-07
3.71921e-08
-5.88469e-07
3.59039e-08
-5.98624e-07
3.46265e-08
-6.08411e-07
3.33627e-08
-6.17835e-07
3.21148e-08
-6.269e-07
3.08849e-08
-6.35612e-07
2.96746e-08
-6.43977e-07
2.84855e-08
-6.52e-07
2.73186e-08
-6.59689e-07
2.61747e-08
-6.67049e-07
2.50545e-08
-6.74088e-07
2.39582e-08
-6.80811e-07
2.28859e-08
-6.87227e-07
2.18376e-08
-6.93341e-07
2.08129e-08
-6.9916e-07
1.98113e-08
-7.0469e-07
1.88322e-08
-7.09937e-07
1.78746e-08
-7.14907e-07
1.69376e-08
-7.19606e-07
1.60201e-08
-7.24039e-07
1.51208e-08
-7.2821e-07
1.42383e-08
-7.32124e-07
1.33711e-08
-7.35785e-07
1.25177e-08
-7.39196e-07
1.16762e-08
-7.42359e-07
1.0845e-08
-7.45278e-07
1.00221e-08
-7.47954e-07
9.2057e-09
-7.50388e-07
8.39374e-09
-7.52581e-07
7.5842e-09
-7.54533e-07
6.77496e-09
-7.56244e-07
5.9639e-09
-7.57712e-07
5.14884e-09
-7.58935e-07
4.32758e-09
-7.59912e-07
3.4979e-09
-7.60638e-07
2.65756e-09
-7.61111e-07
1.80435e-09
-7.61326e-07
9.36014e-10
-7.61278e-07
5.03482e-11
-7.60962e-07
-8.54846e-10
-7.60371e-07
-1.78173e-09
-7.59498e-07
-2.73243e-09
-7.58337e-07
-3.709e-09
-7.56879e-07
-4.71344e-09
-7.55115e-07
-5.74769e-09
-7.53038e-07
-6.81356e-09
-7.50637e-07
-7.91279e-09
-7.47903e-07
-9.04697e-09
-7.44825e-07
-1.02176e-08
-7.41393e-07
-1.14259e-08
-7.37596e-07
-1.26731e-08
-7.33422e-07
-1.39601e-08
-7.2886e-07
-1.52877e-08
-7.239e-07
-1.66564e-08
-7.18528e-07
-1.80664e-08
-7.12734e-07
-1.95176e-08
-7.06506e-07
-2.10099e-08
-6.99833e-07
-2.25425e-08
-6.92704e-07
-2.41145e-08
-6.8511e-07
-2.57245e-08
-6.77038e-07
-2.73707e-08
-6.68482e-07
-2.90511e-08
-6.59431e-07
-3.0763e-08
-6.49879e-07
-3.25033e-08
-6.39818e-07
-3.42685e-08
-6.29243e-07
-3.60545e-08
-6.18151e-07
-3.78567e-08
-6.06538e-07
-3.96701e-08
-5.94404e-07
-4.14888e-08
-5.8175e-07
-4.33066e-08
-5.68577e-07
-4.51166e-08
-5.54892e-07
-4.69115e-08
-5.40702e-07
-4.8683e-08
-5.26015e-07
-5.04225e-08
-5.10846e-07
-5.21207e-08
-4.95208e-07
-5.37679e-08
-4.79119e-07
-5.53535e-08
-4.62602e-07
-5.68665e-08
-4.4568e-07
-5.82954e-08
-4.28382e-07
-5.96283e-08
-4.10738e-07
-6.08525e-08
-3.92784e-07
-6.19553e-08
-3.74557e-07
-6.29233e-08
-3.56101e-07
-6.37431e-08
-3.37462e-07
-6.44009e-08
-3.18688e-07
-6.48827e-08
-2.99836e-07
-6.51747e-08
-2.8096e-07
-6.52629e-08
-2.62124e-07
-6.51337e-08
-2.43391e-07
-6.47736e-08
-2.2483e-07
-6.41698e-08
-2.06512e-07
-6.33099e-08
-1.88511e-07
-6.21824e-08
-1.70904e-07
-6.07771e-08
-1.53769e-07
-5.90847e-08
-1.37187e-07
-5.7098e-08
-1.21239e-07
-5.48117e-08
-1.06006e-07
-5.22229e-08
-9.15684e-08
-4.93322e-08
-7.80043e-08
-4.61441e-08
-6.53886e-08
-4.26678e-08
-5.3791e-08
-3.89192e-08
-4.32741e-08
-3.49217e-08
-3.38908e-08
-3.07091e-08
-2.56817e-08
-2.63281e-08
-1.86717e-08
-2.18421e-08
-1.28659e-08
-1.73357e-08
-8.24565e-09
-1.29215e-08
-4.76383e-09
-8.74752e-09
-2.3398e-09
-5.00734e-09
-8.546e-10
-1.95064e-09
-1.45842e-10
1.0317e-10
7.17129e-10
-2.68844e-10
-4.27608e-10
-1.25595e-09
7.30006e-10
-3.11201e-09
3.33003e-09
-5.9553e-09
6.95037e-09
-9.87326e-09
1.12741e-08
-1.49245e-08
1.60481e-08
-2.11415e-08
2.1072e-08
-2.85338e-08
2.61893e-08
-3.70909e-08
3.12792e-08
-4.6786e-08
3.6249e-08
-5.75782e-08
4.10288e-08
-6.9416e-08
4.55668e-08
-8.22393e-08
4.98255e-08
-9.59816e-08
5.37789e-08
-1.10572e-07
5.74102e-08
-1.25936e-07
6.07099e-08
-1.41998e-07
6.36744e-08
-1.58683e-07
6.63046e-08
-1.75914e-07
6.86051e-08
-1.93616e-07
7.05835e-08
-2.11717e-07
7.22496e-08
-2.30146e-07
7.36151e-08
-2.48834e-07
7.4693e-08
-2.67717e-07
7.54973e-08
-2.86733e-07
7.60427e-08
-3.05823e-07
7.63444e-08
-3.24932e-07
7.6418e-08
-3.44009e-07
7.62788e-08
-3.63005e-07
7.59425e-08
-3.81875e-07
7.54244e-08
-4.0058e-07
7.47395e-08
-4.19081e-07
7.39026e-08
-4.37344e-07
7.29279e-08
-4.55339e-07
7.18292e-08
-4.73038e-07
7.06197e-08
-4.90416e-07
6.9312e-08
-5.07452e-07
6.79183e-08
-5.24127e-07
6.645e-08
-5.40424e-07
6.49178e-08
-5.5633e-07
6.33319e-08
-5.71833e-07
6.17019e-08
-5.86924e-07
6.00365e-08
-6.01596e-07
5.8344e-08
-6.15843e-07
5.6632e-08
-6.29662e-07
5.49075e-08
-6.43051e-07
5.31769e-08
-6.56008e-07
5.14459e-08
-6.68536e-07
4.97199e-08
-6.80636e-07
4.80034e-08
-6.9231e-07
4.63007e-08
-7.03563e-07
4.46155e-08
-7.14399e-07
4.29508e-08
-7.24823e-07
4.13095e-08
-7.34843e-07
3.96939e-08
-7.44463e-07
3.81059e-08
-7.53691e-07
3.65469e-08
-7.62535e-07
3.50181e-08
-7.71001e-07
3.35203e-08
-7.79096e-07
3.20539e-08
-7.8683e-07
3.06192e-08
-7.94208e-07
2.92159e-08
-8.01239e-07
2.78437e-08
-8.07929e-07
2.65019e-08
-8.14287e-07
2.51897e-08
-8.20318e-07
2.39059e-08
-8.2603e-07
2.26493e-08
-8.31428e-07
2.14183e-08
-8.36518e-07
2.02113e-08
-8.41307e-07
1.90265e-08
-8.45797e-07
1.78618e-08
-8.49995e-07
1.67153e-08
-8.53903e-07
1.55845e-08
-8.57526e-07
1.44673e-08
-8.60865e-07
1.3361e-08
-8.63922e-07
1.22633e-08
-8.667e-07
1.11714e-08
-8.69198e-07
1.00826e-08
-8.71418e-07
8.99427e-09
-8.73357e-07
7.90344e-09
-8.75015e-07
6.80728e-09
-8.76391e-07
5.7029e-09
-8.7748e-07
4.58735e-09
-8.7828e-07
3.4577e-09
-8.78787e-07
2.31099e-09
-8.78995e-07
1.14428e-09
-8.789e-07
-4.53574e-11
-8.78494e-07
-1.26081e-09
-8.7777e-07
-2.50492e-09
-8.76722e-07
-3.78049e-09
-8.75341e-07
-5.09023e-09
-8.73618e-07
-6.43677e-09
-8.71543e-07
-7.82264e-09
-8.69106e-07
-9.25023e-09
-8.66297e-07
-1.07218e-08
-8.63105e-07
-1.22394e-08
-8.59517e-07
-1.38051e-08
-8.55523e-07
-1.54204e-08
-8.51109e-07
-1.70869e-08
-8.46263e-07
-1.88058e-08
-8.40973e-07
-2.0578e-08
-8.35225e-07
-2.24042e-08
-8.29007e-07
-2.42846e-08
-8.22305e-07
-2.62193e-08
-8.15108e-07
-2.82077e-08
-8.07401e-07
-3.02489e-08
-7.99174e-07
-3.23417e-08
-7.90414e-07
-3.44841e-08
-7.81111e-07
-3.66739e-08
-7.71254e-07
-3.89081e-08
-7.60834e-07
-4.11833e-08
-7.49842e-07
-4.34954e-08
-7.38271e-07
-4.58396e-08
-7.26115e-07
-4.82105e-08
-7.13369e-07
-5.0602e-08
-7.00032e-07
-5.30073e-08
-6.86102e-07
-5.54189e-08
-6.7158e-07
-5.78283e-08
-6.5647e-07
-6.02266e-08
-6.40778e-07
-6.26038e-08
-6.24511e-07
-6.49493e-08
-6.07682e-07
-6.72515e-08
-5.90305e-07
-6.94983e-08
-5.72396e-07
-7.16767e-08
-5.53977e-07
-7.37728e-08
-5.35071e-07
-7.57723e-08
-5.15706e-07
-7.76599e-08
-4.95915e-07
-7.94199e-08
-4.75732e-07
-8.10358e-08
-4.55196e-07
-8.24907e-08
-4.34352e-07
-8.37674e-08
-4.13247e-07
-8.4848e-08
-3.91933e-07
-8.57146e-08
-3.70467e-07
-8.63491e-08
-3.48909e-07
-8.67333e-08
-3.27322e-07
-8.68492e-08
-3.05777e-07
-8.6679e-08
-2.84345e-07
-8.62056e-08
-2.63103e-07
-8.54122e-08
-2.42129e-07
-8.42833e-08
-2.21507e-07
-8.28042e-08
-2.01322e-07
-8.09621e-08
-1.81662e-07
-7.87456e-08
-1.62614e-07
-7.6146e-08
-1.44268e-07
-7.31573e-08
-1.26714e-07
-6.97768e-08
-1.1004e-07
-6.60063e-08
-9.43313e-08
-6.18526e-08
-7.967e-08
-5.73291e-08
-6.6132e-08
-5.24572e-08
-5.37856e-08
-4.7268e-08
-4.26893e-08
-4.18054e-08
-3.28887e-08
-3.61287e-08
-2.44142e-08
-3.03166e-08
-1.7277e-08
-2.44729e-08
-1.14665e-08
-1.8732e-08
-6.94647e-09
-1.32675e-08
-3.65221e-09
-8.3016e-09
-1.48773e-09
-4.11511e-09
-3.24323e-10
-1.06024e-09
3.92806e-10
-4.29723e-10
2.11919e-12
-1.83518e-09
2.13547e-09
-4.32095e-09
5.8158e-09
-7.97213e-09
1.06015e-08
-1.28517e-08
1.61537e-08
-1.90003e-08
2.21967e-08
-2.64369e-08
2.85086e-08
-3.5161e-08
3.49133e-08
-4.5154e-08
4.12722e-08
-5.63824e-08
4.74774e-08
-6.87997e-08
5.34462e-08
-8.23488e-08
5.9116e-08
-9.69643e-08
6.4441e-08
-1.12574e-07
6.93889e-08
-1.29102e-07
7.39381e-08
-1.46468e-07
7.80759e-08
-1.64591e-07
8.17969e-08
-1.83387e-07
8.51012e-08
-2.02776e-07
8.79938e-08
-2.22676e-07
9.04833e-08
-2.43008e-07
9.25813e-08
-2.63694e-07
9.43017e-08
-2.84661e-07
9.56603e-08
-3.05838e-07
9.6674e-08
-3.27157e-07
9.73611e-08
-3.48552e-07
9.77403e-08
-3.69965e-07
9.78307e-08
-3.91338e-07
9.76517e-08
-4.12618e-07
9.72227e-08
-4.33757e-07
9.65628e-08
-4.54708e-07
9.5691e-08
-4.75431e-07
9.46257e-08
-4.95888e-07
9.33849e-08
-5.16045e-07
9.19859e-08
-5.3587e-07
9.04454e-08
-5.55338e-07
8.87795e-08
-5.74423e-07
8.70035e-08
-5.93105e-07
8.51317e-08
-6.11365e-07
8.3178e-08
-6.29188e-07
8.11552e-08
-6.46562e-07
7.90753e-08
-6.63475e-07
7.69497e-08
-6.7992e-07
7.47889e-08
-6.9589e-07
7.26025e-08
-7.11382e-07
7.03994e-08
-7.26393e-07
6.81877e-08
-7.40922e-07