/*--------------------------------*- C++ -*----------------------------------*\
  =========                 |
  \\      /  F ield         | OpenFOAM: The Open Source CFD Toolbox
   \\    /   O peration     | Website:  https://openfoam.org
    \\  /    A nd           | Version:  7
     \\/     M anipulation  |
\*---------------------------------------------------------------------------*/
FoamFile
{
    version     2.0;
    format      ascii;
    class       volVectorField;
    location    "0.2625";
    object      U;
}
// * * * * * * * * * * * * * * * * * * * * * * * * * * * * * * * * * * * * * //

dimensions      [0 1 -1 0 0 0 0];

internalField   nonuniform List<vector> 
12800
(
(8.31629e-06 -8.33174e-06 0)
(3.70741e-05 -1.85402e-05 0)
(7.85298e-05 -1.97136e-05 0)
(0.000113248 -1.53548e-05 0)
(0.000129993 -8.3119e-06 0)
(0.000123881 -1.38836e-07 0)
(9.27663e-05 8.34387e-06 0)
(3.60367e-05 1.66962e-05 0)
(-4.59509e-05 2.46853e-05 0)
(-0.000152249 3.21916e-05 0)
(-0.000281559 3.91559e-05 0)
(-0.000432374 4.5553e-05 0)
(-0.000603072 5.13775e-05 0)
(-0.000791975 5.6636e-05 0)
(-0.000997392 6.13425e-05 0)
(-0.00121765 6.55158e-05 0)
(-0.0014511 6.91776e-05 0)
(-0.00169615 7.23513e-05 0)
(-0.00195127 7.50618e-05 0)
(-0.00221499 7.73344e-05 0)
(-0.0024859 7.91945e-05 0)
(-0.0027627 8.06679e-05 0)
(-0.00304411 8.17796e-05 0)
(-0.00332897 8.25548e-05 0)
(-0.00361619 8.30176e-05 0)
(-0.00390473 8.3192e-05 0)
(-0.00419366 8.31008e-05 0)
(-0.00448209 8.27664e-05 0)
(-0.00476923 8.22102e-05 0)
(-0.00505433 8.14528e-05 0)
(-0.00533674 8.0514e-05 0)
(-0.00561584 7.94124e-05 0)
(-0.00589109 7.8166e-05 0)
(-0.00616201 7.67916e-05 0)
(-0.00642817 7.53052e-05 0)
(-0.00668919 7.37219e-05 0)
(-0.00694475 7.20558e-05 0)
(-0.00719456 7.032e-05 0)
(-0.00743839 6.85269e-05 0)
(-0.00767605 6.66878e-05 0)
(-0.00790737 6.48134e-05 0)
(-0.00813224 6.29134e-05 0)
(-0.00835057 6.09966e-05 0)
(-0.0085623 5.90712e-05 0)
(-0.00876739 5.71446e-05 0)
(-0.00896584 5.52235e-05 0)
(-0.00915767 5.33138e-05 0)
(-0.0093429 5.14209e-05 0)
(-0.0095216 4.95494e-05 0)
(-0.00969383 4.77035e-05 0)
(-0.00985968 4.58867e-05 0)
(-0.0100192 4.4102e-05 0)
(-0.0101726 4.2352e-05 0)
(-0.0103199 4.06386e-05 0)
(-0.0104613 3.89635e-05 0)
(-0.0105968 3.73278e-05 0)
(-0.0107267 3.57324e-05 0)
(-0.010851 3.41776e-05 0)
(-0.0109698 3.26635e-05 0)
(-0.0110834 3.119e-05 0)
(-0.0111918 2.97563e-05 0)
(-0.0112952 2.83619e-05 0)
(-0.0113937 2.70055e-05 0)
(-0.0114874 2.56859e-05 0)
(-0.0115765 2.44016e-05 0)
(-0.011661 2.31508e-05 0)
(-0.0117411 2.19317e-05 0)
(-0.0118169 2.0742e-05 0)
(-0.0118885 1.95796e-05 0)
(-0.0119559 1.8442e-05 0)
(-0.0120192 1.73267e-05 0)
(-0.0120786 1.62311e-05 0)
(-0.012134 1.51522e-05 0)
(-0.0121855 1.40873e-05 0)
(-0.0122333 1.30333e-05 0)
(-0.0122772 1.19871e-05 0)
(-0.0123173 1.09456e-05 0)
(-0.0123536 9.90536e-06 0)
(-0.0123861 8.86322e-06 0)
(-0.0124149 7.81579e-06 0)
(-0.0124398 6.75964e-06 0)
(-0.0124609 5.69131e-06 0)
(-0.0124781 4.60731e-06 0)
(-0.0124913 3.50411e-06 0)
(-0.0125005 2.37821e-06 0)
(-0.0125055 1.22609e-06 0)
(-0.0125064 4.42682e-08 0)
(-0.0125029 -1.17073e-06 0)
(-0.0124949 -2.42235e-06 0)
(-0.0124824 -3.71395e-06 0)
(-0.0124652 -5.04886e-06 0)
(-0.0124431 -6.43027e-06 0)
(-0.0124159 -7.8613e-06 0)
(-0.0123836 -9.34489e-06 0)
(-0.0123459 -1.08839e-05 0)
(-0.0123025 -1.24809e-05 0)
(-0.0122534 -1.41384e-05 0)
(-0.0121983 -1.58587e-05 0)
(-0.012137 -1.76436e-05 0)
(-0.0120693 -1.94948e-05 0)
(-0.0119949 -2.14137e-05 0)
(-0.0119137 -2.34012e-05 0)
(-0.0118253 -2.5458e-05 0)
(-0.0117297 -2.75843e-05 0)
(-0.0116264 -2.97796e-05 0)
(-0.0115154 -3.20433e-05 0)
(-0.0113963 -3.4374e-05 0)
(-0.011269 -3.67697e-05 0)
(-0.0111333 -3.92278e-05 0)
(-0.010989 -4.17451e-05 0)
(-0.0108358 -4.43177e-05 0)
(-0.0106736 -4.69407e-05 0)
(-0.0105024 -4.96087e-05 0)
(-0.0103219 -5.23152e-05 0)
(-0.010132 -5.50531e-05 0)
(-0.00993266 -5.7814e-05 0)
(-0.00972386 -6.0589e-05 0)
(-0.00950557 -6.33678e-05 0)
(-0.00927782 -6.61395e-05 0)
(-0.00904066 -6.88918e-05 0)
(-0.00879421 -7.16115e-05 0)
(-0.00853862 -7.42846e-05 0)
(-0.0082741 -7.68957e-05 0)
(-0.00800091 -7.94285e-05 0)
(-0.00771937 -8.18656e-05 0)
(-0.00742984 -8.41888e-05 0)
(-0.00713278 -8.63787e-05 0)
(-0.00682869 -8.84149e-05 0)
(-0.00651815 -9.02765e-05 0)
(-0.00620181 -9.19412e-05 0)
(-0.0058804 -9.33863e-05 0)
(-0.0055547 -9.45882e-05 0)
(-0.00522562 -9.55228e-05 0)
(-0.0048941 -9.61654e-05 0)
(-0.00456118 -9.64906e-05 0)
(-0.004228 -9.6473e-05 0)
(-0.00389575 -9.60867e-05 0)
(-0.00356574 -9.53056e-05 0)
(-0.00323932 -9.41037e-05 0)
(-0.00291795 -9.2455e-05 0)
(-0.00260316 -9.03338e-05 0)
(-0.00229655 -8.77145e-05 0)
(-0.0019998 -8.45723e-05 0)
(-0.00171466 -8.08831e-05 0)
(-0.00144293 -7.66239e-05 0)
(-0.00118646 -7.17732e-05 0)
(-0.00094714 -6.63115e-05 0)
(-0.000726897 -6.02226e-05 0)
(-0.000527648 -5.34951e-05 0)
(-0.000351288 -4.61252e-05 0)
(-0.00019964 -3.8121e-05 0)
(-7.43944e-05 -2.95106e-05 0)
(2.29901e-05 -2.03577e-05 0)
(9.14401e-05 -1.0791e-05 0)
(0.000130527 -1.061e-06 0)
(0.000140883 8.35295e-06 0)
(0.000124825 1.6547e-05 0)
(8.77153e-05 2.17889e-05 0)
(4.20451e-05 2.08584e-05 0)
(9.63399e-06 9.63089e-06 0)
(1.85484e-05 -3.71006e-05 0)
(7.03482e-05 -7.03052e-05 0)
(0.000132052 -6.77606e-05 0)
(0.000170159 -4.20904e-05 0)
(0.000163386 -3.15419e-06 0)
(0.000100301 4.27155e-05 0)
(-2.53633e-05 9.15508e-05 0)
(-0.000216343 0.00014087 0)
(-0.000472848 0.000189128 0)
(-0.000793375 0.000235362 0)
(-0.00117528 0.000278982 0)
(-0.00161517 0.000319632 0)
(-0.00210918 0.000357117 0)
(-0.00265314 0.000391346 0)
(-0.00324276 0.000422303 0)
(-0.00387368 0.000450023 0)
(-0.00454155 0.000474576 0)
(-0.00524213 0.000496061 0)
(-0.00597126 0.000514594 0)
(-0.00672494 0.000530302 0)
(-0.00749933 0.000543324 0)
(-0.00829075 0.000553804 0)
(-0.00909574 0.000561889 0)
(-0.009911 0.000567725 0)
(-0.0107335 0.000571463 0)
(-0.0115602 0.000573248 0)
(-0.0123886 0.000573226 0)
(-0.0132162 0.000571537 0)
(-0.0140405 0.00056832 0)
(-0.0148596 0.000563708 0)
(-0.0156715 0.000557829 0)
(-0.0164744 0.000550808 0)
(-0.0172669 0.000542762 0)
(-0.0180474 0.000533804 0)
(-0.0188147 0.000524042 0)
(-0.0195677 0.000513578 0)
(-0.0203054 0.000502506 0)
(-0.021027 0.000490916 0)
(-0.0217318 0.000478894 0)
(-0.0224192 0.000466516 0)
(-0.0230887 0.000453857 0)
(-0.02374 0.000440984 0)
(-0.0243726 0.000427958 0)
(-0.0249865 0.000414837 0)
(-0.0255815 0.000401673 0)
(-0.0261576 0.000388513 0)
(-0.0267147 0.000375399 0)
(-0.027253 0.000362369 0)
(-0.0277725 0.000349458 0)
(-0.0282735 0.000336694 0)
(-0.0287561 0.000324104 0)
(-0.0292206 0.00031171 0)
(-0.0296673 0.000299531 0)
(-0.0300965 0.000287582 0)
(-0.0305085 0.000275876 0)
(-0.0309037 0.000264421 0)
(-0.0312823 0.000253225 0)
(-0.0316449 0.000242292 0)
(-0.0319916 0.000231623 0)
(-0.032323 0.000221219 0)
(-0.0326394 0.000211076 0)
(-0.0329411 0.000201189 0)
(-0.0332286 0.000191553 0)
(-0.033502 0.00018216 0)
(-0.0337619 0.000172999 0)
(-0.0340085 0.00016406 0)
(-0.0342421 0.00015533 0)
(-0.0344629 0.000146795 0)
(-0.0346714 0.00013844 0)
(-0.0348677 0.00013025 0)
(-0.0350519 0.000122207 0)
(-0.0352244 0.000114293 0)
(-0.0353853 0.00010649 0)
(-0.0355348 9.87784e-05 0)
(-0.0356729 9.11375e-05 0)
(-0.0357997 8.35467e-05 0)
(-0.0359153 7.59844e-05 0)
(-0.0360197 6.84287e-05 0)
(-0.0361129 6.08573e-05 0)
(-0.0361949 5.32475e-05 0)
(-0.0362656 4.55762e-05 0)
(-0.0363248 3.78202e-05 0)
(-0.0363725 2.99559e-05 0)
(-0.0364085 2.19599e-05 0)
(-0.0364325 1.38084e-05 0)
(-0.0364443 5.47807e-06 0)
(-0.0364437 -3.05451e-06 0)
(-0.0364304 -1.18124e-05 0)
(-0.0364039 -2.08184e-05 0)
(-0.036364 -3.00948e-05 0)
(-0.0363103 -3.96633e-05 0)
(-0.0362422 -4.95451e-05 0)
(-0.0361593 -5.97602e-05 0)
(-0.0360613 -7.03281e-05 0)
(-0.0359474 -8.12667e-05 0)
(-0.0358173 -9.25928e-05 0)
(-0.0356703 -0.000104322 0)
(-0.0355058 -0.000116468 0)
(-0.0353233 -0.000129042 0)
(-0.0351222 -0.000142055 0)
(-0.0349018 -0.000155514 0)
(-0.0346614 -0.000169423 0)
(-0.0344006 -0.000183786 0)
(-0.0341185 -0.000198601 0)
(-0.0338146 -0.000213865 0)
(-0.0334883 -0.00022957 0)
(-0.033139 -0.000245705 0)
(-0.032766 -0.000262254 0)
(-0.0323689 -0.000279198 0)
(-0.031947 -0.000296514 0)
(-0.0314999 -0.000314171 0)
(-0.0310272 -0.000332135 0)
(-0.0305285 -0.000350368 0)
(-0.0300034 -0.000368823 0)
(-0.0294516 -0.00038745 0)
(-0.0288731 -0.000406192 0)
(-0.0282677 -0.000424985 0)
(-0.0276355 -0.000443759 0)
(-0.0269765 -0.000462437 0)
(-0.0262909 -0.000480938 0)
(-0.0255792 -0.00049917 0)
(-0.0248418 -0.000517037 0)
(-0.0240793 -0.000534436 0)
(-0.0232926 -0.000551258 0)
(-0.0224825 -0.000567384 0)
(-0.0216502 -0.000582693 0)
(-0.0207969 -0.000597056 0)
(-0.0199242 -0.000610337 0)
(-0.0190336 -0.000622397 0)
(-0.0181272 -0.000633091 0)
(-0.0172069 -0.000642268 0)
(-0.0162751 -0.000649776 0)
(-0.0153342 -0.000655458 0)
(-0.0143871 -0.000659154 0)
(-0.0134366 -0.000660704 0)
(-0.0124859 -0.000659945 0)
(-0.0115384 -0.000656717 0)
(-0.0105977 -0.000650857 0)
(-0.00966776 -0.000642208 0)
(-0.00875249 -0.000630616 0)
(-0.00785616 -0.000615932 0)
(-0.00698322 -0.000598013 0)
(-0.00613824 -0.000576728 0)
(-0.00532598 -0.000551958 0)
(-0.00455133 -0.000523599 0)
(-0.00381923 -0.000491572 0)
(-0.0031347 -0.000455823 0)
(-0.00250274 -0.000416342 0)
(-0.00192826 -0.00037317 0)
(-0.00141597 -0.000326428 0)
(-0.000970229 -0.00027635 0)
(-0.000594866 -0.000223334 0)
(-0.000292859 -0.000168036 0)
(-6.59277e-05 -0.000111508 0)
(8.61039e-05 -5.54475e-05 0)
(0.000166205 -2.58673e-06 0)
(0.000181263 4.26708e-05 0)
(0.000143946 7.32344e-05 0)
(7.79717e-05 7.79321e-05 0)
(2.08622e-05 4.20244e-05 0)
(1.98032e-05 -7.86336e-05 0)
(6.81051e-05 -0.000132096 0)
(0.000111202 -0.000110673 0)
(0.000110395 -3.94598e-05 0)
(4.04249e-05 6.2962e-05 0)
(-0.000113568 0.000183373 0)
(-0.00036048 0.000312629 0)
(-0.00070471 0.000444521 0)
(-0.0011472 0.000574871 0)
(-0.0016864 0.000700884 0)
(-0.00231896 0.000820711 0)
(-0.00304029 0.000933158 0)
(-0.00384498 0.00103749 0)
(-0.00472703 0.00113328 0)
(-0.00568013 0.00122034 0)
(-0.0066978 0.00129867 0)
(-0.00777351 0.00136837 0)
(-0.0089008 0.00142962 0)
(-0.0100733 0.0014827 0)
(-0.0112849 0.00152791 0)
(-0.0125295 0.0015656 0)
(-0.0138015 0.00159614 0)
(-0.0150954 0.0016199 0)
(-0.0164061 0.0016373 0)
(-0.0177288 0.00164872 0)
(-0.0190587 0.00165457 0)
(-0.0203917 0.00165524 0)
(-0.0217238 0.00165113 0)
(-0.0230514 0.00164261 0)
(-0.024371 0.00163007 0)
(-0.0256796 0.00161385 0)
(-0.0269743 0.00159432 0)
(-0.0282526 0.0015718 0)
(-0.0295122 0.00154662 0)
(-0.0307511 0.00151907 0)
(-0.0319674 0.00148945 0)
(-0.0331596 0.00145804 0)
(-0.0343262 0.00142508 0)
(-0.0354662 0.00139083 0)
(-0.0365785 0.0013555 0)
(-0.0376623 0.00131931 0)
(-0.0387169 0.00128245 0)
(-0.0397419 0.00124511 0)
(-0.0407369 0.00120744 0)
(-0.0417016 0.0011696 0)
(-0.042636 0.00113173 0)
(-0.04354 0.00109395 0)
(-0.0444137 0.00105637 0)
(-0.0452573 0.00101909 0)
(-0.046071 0.000982205 0)
(-0.0468551 0.000945781 0)
(-0.0476101 0.000909889 0)
(-0.0483363 0.000874584 0)
(-0.0490342 0.000839913 0)
(-0.0497043 0.000805913 0)
(-0.0503471 0.000772613 0)
(-0.0509632 0.000740034 0)
(-0.0515532 0.00070819 0)
(-0.0521176 0.000677087 0)
(-0.052657 0.000646726 0)
(-0.0531719 0.000617099 0)
(-0.0536631 0.000588196 0)
(-0.0541309 0.00056 0)
(-0.054576 0.000532487 0)
(-0.0549989 0.000505631 0)
(-0.0554 0.000479402 0)
(-0.05578 0.000453764 0)
(-0.0561391 0.000428677 0)
(-0.0564779 0.000404101 0)
(-0.0567967 0.00037999 0)
(-0.0570959 0.000356295 0)
(-0.0573758 0.000332966 0)
(-0.0576366 0.000309948 0)
(-0.0578785 0.000287187 0)
(-0.0581019 0.000264625 0)
(-0.0583066 0.000242202 0)
(-0.058493 0.000219857 0)
(-0.0586609 0.000197528 0)
(-0.0588105 0.00017515 0)
(-0.0589415 0.000152659 0)
(-0.0590539 0.00012999 0)
(-0.0591476 0.000107074 0)
(-0.0592222 8.38468e-05 0)
(-0.0592776 6.024e-05 0)
(-0.0593133 3.61869e-05 0)
(-0.0593291 1.16205e-05 0)
(-0.0593244 -1.35254e-05 0)
(-0.0592988 -3.93163e-05 0)
(-0.0592518 -6.58167e-05 0)
(-0.0591827 -9.30895e-05 0)
(-0.0590909 -0.000121196 0)
(-0.0589758 -0.000150196 0)
(-0.0588365 -0.000180145 0)
(-0.0586724 -0.000211099 0)
(-0.0584826 -0.000243106 0)
(-0.0582663 -0.000276213 0)
(-0.0580225 -0.000310464 0)
(-0.0577504 -0.000345895 0)
(-0.057449 -0.000382539 0)
(-0.0571174 -0.000420422 0)
(-0.0567545 -0.000459562 0)
(-0.0563594 -0.000499973 0)
(-0.0559311 -0.000541657 0)
(-0.0554686 -0.000584612 0)
(-0.0549709 -0.000628822 0)
(-0.054437 -0.000674265 0)
(-0.0538661 -0.000720904 0)
(-0.0532571 -0.000768694 0)
(-0.0526093 -0.000817576 0)
(-0.0519217 -0.000867478 0)
(-0.0511938 -0.000918313 0)
(-0.0504247 -0.000969981 0)
(-0.049614 -0.00102237 0)
(-0.0487611 -0.00107534 0)
(-0.0478657 -0.00112875 0)
(-0.0469276 -0.00118242 0)
(-0.0459466 -0.00123619 0)
(-0.0449228 -0.00128984 0)
(-0.0438564 -0.00134316 0)
(-0.0427479 -0.00139591 0)
(-0.0415978 -0.00144782 0)
(-0.040407 -0.00149863 0)
(-0.0391765 -0.00154803 0)
(-0.0379076 -0.00159572 0)
(-0.0366019 -0.00164136 0)
(-0.0352611 -0.0016846 0)
(-0.0338874 -0.00172508 0)
(-0.0324831 -0.00176242 0)
(-0.031051 -0.00179621 0)
(-0.0295941 -0.00182606 0)
(-0.0281156 -0.00185153 0)
(-0.0266193 -0.00187221 0)
(-0.0251091 -0.00188765 0)
(-0.0235895 -0.0018974 0)
(-0.022065 -0.00190103 0)
(-0.0205408 -0.00189808 0)
(-0.0190222 -0.00188811 0)
(-0.0175149 -0.00187069 0)
(-0.0160249 -0.00184539 0)
(-0.0145585 -0.00181179 0)
(-0.0131224 -0.00176951 0)
(-0.0117235 -0.00171819 0)
(-0.0103689 -0.0016575 0)
(-0.0090659 -0.00158715 0)
(-0.00782196 -0.00150693 0)
(-0.00664464 -0.00141669 0)
(-0.0055415 -0.00131639 0)
(-0.00451998 -0.00120612 0)
(-0.0035873 -0.00108615 0)
(-0.00275026 -0.000956998 0)
(-0.002015 -0.000819527 0)
(-0.00138669 -0.000675091 0)
(-0.000869108 -0.000525748 0)
(-0.00046404 -0.000374586 0)
(-0.000170491 -0.000226218 0)
(1.63694e-05 -8.75166e-05 0)
(0.000106381 3.13391e-05 0)
(0.000116067 0.000115524 0)
(7.35356e-05 0.000143986 0)
(2.18454e-05 8.77404e-05 0)
(1.55784e-05 -0.000113665 0)
(4.2919e-05 -0.000170666 0)
(4.08879e-05 -0.00011007 0)
(-2.8129e-05 2.97286e-05 0)
(-0.000189828 0.000221191 0)
(-0.000460399 0.000443879 0)
(-0.000849914 0.000682925 0)
(-0.0013636 0.000927739 0)
(-0.00200284 0.00117085 0)
(-0.00276603 0.00140703 0)
(-0.00364939 0.00163268 0)
(-0.00464751 0.00184534 0)
(-0.00575384 0.00204344 0)
(-0.00696103 0.002226 0)
(-0.00826118 0.00239249 0)
(-0.00964615 0.00254275 0)
(-0.0111076 0.00267686 0)
(-0.0126373 0.00279508 0)
(-0.014227 0.00289783 0)
(-0.0158686 0.00298563 0)
(-0.0175545 0.00305909 0)
(-0.019277 0.00311884 0)
(-0.0210292 0.00316561 0)
(-0.022804 0.00320011 0)
(-0.0245951 0.00322307 0)
(-0.0263964 0.00323526 0)
(-0.0282023 0.00323741 0)
(-0.0300073 0.00323025 0)
(-0.0318066 0.00321453 0)
(-0.0335956 0.00319094 0)
(-0.0353702 0.00316018 0)
(-0.0371266 0.00312291 0)
(-0.0388613 0.00307978 0)
(-0.0405712 0.0030314 0)
(-0.0422535 0.00297836 0)
(-0.0439058 0.00292123 0)
(-0.0455258 0.00286052 0)
(-0.0471117 0.00279674 0)
(-0.0486618 0.00273037 0)
(-0.0501748 0.00266184 0)
(-0.0516496 0.00259155 0)
(-0.0530851 0.0025199 0)
(-0.0544808 0.00244724 0)
(-0.055836 0.00237388 0)
(-0.0571505 0.00230012 0)
(-0.0584239 0.00222624 0)
(-0.0596563 0.00215249 0)
(-0.0608478 0.00207907 0)
(-0.0619985 0.00200618 0)
(-0.0631088 0.00193401 0)
(-0.0641789 0.00186269 0)
(-0.0652095 0.00179237 0)
(-0.0662011 0.00172315 0)
(-0.0671542 0.00165512 0)
(-0.0680694 0.00158837 0)
(-0.0689476 0.00152295 0)
(-0.0697894 0.00145891 0)
(-0.0705956 0.00139626 0)
(-0.0713669 0.00133504 0)
(-0.072104 0.00127523 0)
(-0.0728078 0.00121684 0)
(-0.073479 0.00115983 0)
(-0.0741183 0.00110418 0)
(-0.0747265 0.00104984 0)
(-0.0753043 0.000996773 0)
(-0.0758522 0.000944907 0)
(-0.0763711 0.000894179 0)
(-0.0768614 0.000844514 0)
(-0.0773237 0.000795831 0)
(-0.0777586 0.000748043 0)
(-0.0781664 0.000701057 0)
(-0.0785477 0.000654774 0)
(-0.0789027 0.00060909 0)
(-0.0792317 0.000563899 0)
(-0.079535 0.000519088 0)
(-0.0798128 0.000474543 0)
(-0.0800652 0.000430144 0)
(-0.0802921 0.000385771 0)
(-0.0804936 0.000341299 0)
(-0.0806697 0.000296604 0)
(-0.08082 0.000251557 0)
(-0.0809445 0.000206031 0)
(-0.0810427 0.000159895 0)
(-0.0811144 0.000113021 0)
(-0.0811591 6.52777e-05 0)
(-0.0811762 1.65373e-05 0)
(-0.0811652 -3.33287e-05 0)
(-0.0811255 -8.44465e-05 0)
(-0.0810562 -0.00013694 0)
(-0.0809567 -0.000190931 0)
(-0.080826 -0.000246537 0)
(-0.0806633 -0.000303872 0)
(-0.0804675 -0.000363043 0)
(-0.0802377 -0.000424154 0)
(-0.0799728 -0.000487302 0)
(-0.0796716 -0.000552573 0)
(-0.0793329 -0.000620049 0)
(-0.0789556 -0.000689799 0)
(-0.0785384 -0.000761883 0)
(-0.0780799 -0.000836349 0)
(-0.077579 -0.000913232 0)
(-0.0770343 -0.000992552 0)
(-0.0764444 -0.00107431 0)
(-0.0758081 -0.00115851 0)
(-0.0751241 -0.0012451 0)
(-0.0743911 -0.00133404 0)
(-0.0736079 -0.00142526 0)
(-0.0727732 -0.00151866 0)
(-0.071886 -0.00161413 0)
(-0.0709453 -0.00171152 0)
(-0.0699499 -0.00181067 0)
(-0.0688992 -0.00191137 0)
(-0.0677924 -0.00201339 0)
(-0.0666288 -0.00211648 0)
(-0.0654081 -0.00222035 0)
(-0.0641298 -0.00232466 0)
(-0.0627941 -0.00242907 0)
(-0.061401 -0.00253318 0)
(-0.0599508 -0.00263655 0)
(-0.0584442 -0.00273873 0)
(-0.0568819 -0.00283921 0)
(-0.0552653 -0.00293746 0)
(-0.0535956 -0.00303291 0)
(-0.0518748 -0.00312495 0)
(-0.0501048 -0.00321293 0)
(-0.0482883 -0.00329619 0)
(-0.046428 -0.00337401 0)
(-0.0445271 -0.00344567 0)
(-0.0425894 -0.00351041 0)
(-0.0406189 -0.00356743 0)
(-0.03862 -0.00361594 0)
(-0.0365977 -0.00365512 0)
(-0.0345573 -0.00368412 0)
(-0.0325047 -0.0037021 0)
(-0.0304461 -0.00370823 0)
(-0.0283883 -0.00370165 0)
(-0.0263382 -0.00368154 0)
(-0.0243036 -0.00364707 0)
(-0.0222923 -0.00359747 0)
(-0.0203127 -0.00353198 0)
(-0.0183736 -0.00344989 0)
(-0.0164838 -0.00335056 0)
(-0.0146528 -0.00323343 0)
(-0.01289 -0.00309805 0)
(-0.0112051 -0.00294406 0)
(-0.00960773 -0.00277132 0)
(-0.00810755 -0.00257987 0)
(-0.00671395 -0.00237003 0)
(-0.00543595 -0.0021425 0)
(-0.00428191 -0.00189847 0)
(-0.00325927 -0.00163979 0)
(-0.00237414 -0.00136923 0)
(-0.00163078 -0.00109082 0)
(-0.00103102 -0.000810362 0)
(-0.000573368 -0.000536133 0)
(-0.000252042 -0.000279881 0)
(-5.58665e-05 -5.81679e-05 0)
(3.31752e-05 0.000106108 0)
(4.35573e-05 0.00018184 0)
(1.67335e-05 0.000125126 0)
(8.69436e-06 -0.000131037 0)
(4.4883e-06 -0.0001648 0)
(-6.07479e-05 -4.06871e-05 0)
(-0.000218729 0.000191262 0)
(-0.000492954 0.000495198 0)
(-0.000899405 0.000843874 0)
(-0.00144815 0.00121683 0)
(-0.00214443 0.001599 0)
(-0.00298957 0.00197938 0)
(-0.00398179 0.00235002 0)
(-0.00511686 0.00270525 0)
(-0.0063887 0.00304109 0)
(-0.00778988 0.00335486 0)
(-0.00931194 0.00364484 0)
(-0.0109458 0.00391001 0)
(-0.0126819 0.00414993 0)
(-0.0145105 0.00436458 0)
(-0.0164217 0.00455426 0)
(-0.0184059 0.00471951 0)
(-0.0204533 0.00486106 0)
(-0.0225548 0.0049798 0)
(-0.0247013 0.00507669 0)
(-0.026884 0.00515281 0)
(-0.0290947 0.00520926 0)
(-0.0313256 0.00524719 0)
(-0.0335692 0.00526776 0)
(-0.0358187 0.00527213 0)
(-0.0380673 0.00526148 0)
(-0.0403092 0.00523695 0)
(-0.0425387 0.00519966 0)
(-0.0447507 0.00515072 0)
(-0.0469404 0.00509119 0)
(-0.0491036 0.0050221 0)
(-0.0512364 0.00494443 0)
(-0.0533353 0.00485914 0)
(-0.0553973 0.00476712 0)
(-0.0574196 0.00466923 0)
(-0.0593998 0.00456627 0)
(-0.0613359 0.00445901 0)
(-0.0632261 0.00434816 0)
(-0.065069 0.00423438 0)
(-0.0668635 0.0041183 0)
(-0.0686085 0.00400048 0)
(-0.0703034 0.00388145 0)
(-0.0719477 0.00376171 0)
(-0.0735411 0.00364168 0)
(-0.0750836 0.00352177 0)
(-0.0765751 0.00340233 0)
(-0.078016 0.0032837 0)
(-0.0794065 0.00316615 0)
(-0.080747 0.00304994 0)
(-0.0820382 0.00293527 0)
(-0.0832807 0.00282234 0)
(-0.0844753 0.0027113 0)
(-0.0856226 0.00260228 0)
(-0.0867235 0.00249537 0)
(-0.0877789 0.00239064 0)
(-0.0887897 0.00228816 0)
(-0.0897568 0.00218793 0)
(-0.0906812 0.00208998 0)
(-0.0915637 0.00199428 0)
(-0.0924053 0.00190081 0)
(-0.0932069 0.00180951 0)
(-0.0939693 0.00172033 0)
(-0.0946935 0.00163317 0)
(-0.0953803 0.00154794 0)
(-0.0960303 0.00146454 0)
(-0.0966444 0.00138285 0)
(-0.0972233 0.00130273 0)
(-0.0977674 0.00122406 0)
(-0.0982776 0.00114666 0)
(-0.0987541 0.0010704 0)
(-0.0991974 0.000995101 0)
(-0.099608 0.000920588 0)
(-0.0999861 0.000846684 0)
(-0.100332 0.000773202 0)
(-0.100645 0.00069995 0)
(-0.100927 0.000626735 0)
(-0.101176 0.000553355 0)
(-0.101393 0.000479608 0)
(-0.101578 0.000405289 0)
(-0.10173 0.00033019 0)
(-0.101849 0.000254103 0)
(-0.101934 0.000176818 0)
(-0.101985 9.8128e-05 0)
(-0.102001 1.78241e-05 0)
(-0.101982 -6.42993e-05 0)
(-0.101927 -0.000148445 0)
(-0.101834 -0.000234813 0)
(-0.101703 -0.000323596 0)
(-0.101533 -0.000414985 0)
(-0.101323 -0.000509159 0)
(-0.101071 -0.000606294 0)
(-0.100776 -0.000706551 0)
(-0.100438 -0.000810084 0)
(-0.100054 -0.000917033 0)
(-0.0996227 -0.00102752 0)
(-0.0991432 -0.00114167 0)
(-0.0986138 -0.00125956 0)
(-0.0980329 -0.00138127 0)
(-0.097399 -0.00150685 0)
(-0.0967103 -0.00163632 0)
(-0.0959654 -0.00176971 0)
(-0.0951627 -0.00190697 0)
(-0.0943005 -0.00204806 0)
(-0.0933774 -0.00219289 0)
(-0.0923918 -0.00234134 0)
(-0.0913424 -0.00249325 0)
(-0.0902277 -0.00264843 0)
(-0.0890466 -0.00280665 0)
(-0.0877978 -0.00296761 0)
(-0.0864804 -0.003131 0)
(-0.0850935 -0.00329645 0)
(-0.0836365 -0.00346352 0)
(-0.0821087 -0.00363175 0)
(-0.08051 -0.0038006 0)
(-0.0788403 -0.0039695 0)
(-0.0770997 -0.00413781 0)
(-0.0752889 -0.00430483 0)
(-0.0734085 -0.0044698 0)
(-0.0714596 -0.00463193 0)
(-0.0694438 -0.00479035 0)
(-0.0673629 -0.00494413 0)
(-0.0652191 -0.00509229 0)
(-0.0630151 -0.0052338 0)
(-0.0607539 -0.00536759 0)
(-0.0584391 -0.00549252 0)
(-0.0560747 -0.0056074 0)
(-0.0536652 -0.00571103 0)
(-0.0512157 -0.00580216 0)
(-0.0487316 -0.00587949 0)
(-0.0462191 -0.00594171 0)
(-0.0436846 -0.00598751 0)
(-0.0411355 -0.00601554 0)
(-0.0385792 -0.00602447 0)
(-0.036024 -0.00601297 0)
(-0.0334785 -0.00597974 0)
(-0.030952 -0.00592351 0)
(-0.0284542 -0.00584306 0)
(-0.0259951 -0.00573724 0)
(-0.0235852 -0.00560497 0)
(-0.0212355 -0.00544532 0)
(-0.0189571 -0.00525746 0)
(-0.0167612 -0.00504076 0)
(-0.0146595 -0.00479483 0)
(-0.0126633 -0.00451952 0)
(-0.010784 -0.00421508 0)
(-0.00903261 -0.00388222 0)
(-0.00741951 -0.00352224 0)
(-0.00595433 -0.00313723 0)
(-0.00464552 -0.00273033 0)
(-0.00349995 -0.00230603 0)
(-0.00252237 -0.00187071 0)
(-0.00171481 -0.00143321 0)
(-0.00107581 -0.00100574 0)
(-0.000599539 -0.000605038 0)
(-0.000274823 -0.00025388 0)
(-8.38849e-05 1.72698e-05 0)
(-8.55089e-07 0.000168094 0)
(8.73743e-06 0.000141862 0)
(6.66838e-07 -0.000125836 0)
(-4.10626e-05 -0.000102871 0)
(-0.000181032 0.00011275 0)
(-0.000441988 0.000461985 0)
(-0.000843331 0.00090187 0)
(-0.00139963 0.00139908 0)
(-0.00211999 0.001928 0)
(-0.00300893 0.00246926 0)
(-0.00406724 0.00300833 0)
(-0.00529263 0.00353446 0)
(-0.00668034 0.00403974 0)
(-0.00822362 0.00451852 0)
(-0.00991423 0.00496684 0)
(-0.0117428 0.00538207 0)
(-0.0136992 0.00576259 0)
(-0.0157728 0.00610758 0)
(-0.0179526 0.00641683 0)
(-0.0202274 0.00669063 0)
(-0.0225863 0.00692962 0)
(-0.0250183 0.00713473 0)
(-0.0275127 0.00730713 0)
(-0.0300592 0.00744813 0)
(-0.0326478 0.0075592 0)
(-0.0352689 0.00764186 0)
(-0.0379134 0.00769772 0)
(-0.0405728 0.00772841 0)
(-0.0432389 0.0077356 0)
(-0.0459042 0.00772092 0)
(-0.0485616 0.00768602 0)
(-0.0512045 0.00763251 0)
(-0.0538269 0.00756197 0)
(-0.0564233 0.00747592 0)
(-0.0589886 0.00737586 0)
(-0.0615183 0.0072632 0)
(-0.0640083 0.00713933 0)
(-0.0664548 0.00700554 0)
(-0.0688548 0.00686308 0)
(-0.0712053 0.00671311 0)
(-0.0735038 0.00655676 0)
(-0.0757484 0.00639505 0)
(-0.0779373 0.00622897 0)
(-0.080069 0.0060594 0)
(-0.0821425 0.0058872 0)
(-0.0841567 0.00571314 0)
(-0.0861113 0.00553792 0)
(-0.0880058 0.00536219 0)
(-0.0898399 0.00518654 0)
(-0.0916139 0.00501149 0)
(-0.0933279 0.00483754 0)
(-0.0949822 0.00466508 0)
(-0.0965774 0.0044945 0)
(-0.0981141 0.00432611 0)
(-0.099593 0.00416019 0)
(-0.101015 0.00399696 0)
(-0.102381 0.00383662 0)
(-0.103692 0.00367932 0)
(-0.104948 0.00352515 0)
(-0.106152 0.00337421 0)
(-0.107304 0.00322653 0)
(-0.108404 0.00308212 0)
(-0.109455 0.00294097 0)
(-0.110457 0.00280304 0)
(-0.111412 0.00266825 0)
(-0.112319 0.00253651 0)
(-0.113181 0.00240771 0)
(-0.113998 0.00228171 0)
(-0.114772 0.00215835 0)
(-0.115502 0.00203747 0)
(-0.11619 0.00191887 0)
(-0.116837 0.00180235 0)
(-0.117443 0.00168769 0)
(-0.118008 0.00157467 0)
(-0.118534 0.00146304 0)
(-0.119021 0.00135255 0)
(-0.119468 0.00124294 0)
(-0.119877 0.00113393 0)
(-0.120247 0.00102526 0)
(-0.120579 0.000916624 0)
(-0.120872 0.000807748 0)
(-0.121126 0.000698332 0)
(-0.121342 0.000588077 0)
(-0.121518 0.000476682 0)
(-0.121654 0.000363845 0)
(-0.12175 0.000249261 0)
(-0.121805 0.000132629 0)
(-0.121819 1.36457e-05 0)
(-0.12179 -0.000107986 0)
(-0.121718 -0.000232561 0)
(-0.121601 -0.000360366 0)
(-0.121438 -0.000491684 0)
(-0.121229 -0.000626786 0)
(-0.120972 -0.000765934 0)
(-0.120665 -0.000909379 0)
(-0.120307 -0.00105735 0)
(-0.119897 -0.00121008 0)
(-0.119432 -0.00136776 0)
(-0.118912 -0.00153056 0)
(-0.118334 -0.00169866 0)
(-0.117697 -0.00187217 0)
(-0.116998 -0.0020512 0)
(-0.116237 -0.00223583 0)
(-0.115411 -0.00242608 0)
(-0.114518 -0.00262196 0)
(-0.113557 -0.00282343 0)
(-0.112525 -0.0030304 0)
(-0.111421 -0.00324275 0)
(-0.110244 -0.00346029 0)
(-0.108991 -0.00368279 0)
(-0.107661 -0.00390996 0)
(-0.106253 -0.00414145 0)
(-0.104765 -0.00437684 0)
(-0.103196 -0.00461566 0)
(-0.101545 -0.00485736 0)
(-0.0998122 -0.00510132 0)
(-0.0979959 -0.00534683 0)
(-0.0960962 -0.00559314 0)
(-0.094113 -0.00583938 0)
(-0.0920467 -0.00608464 0)
(-0.0898979 -0.00632788 0)
(-0.0876675 -0.00656803 0)
(-0.0853569 -0.0068039 0)
(-0.0829679 -0.00703424 0)
(-0.0805026 -0.0072577 0)
(-0.0779637 -0.00747287 0)
(-0.0753544 -0.00767824 0)
(-0.0726782 -0.00787226 0)
(-0.0699394 -0.00805329 0)
(-0.0671427 -0.00821962 0)
(-0.0642933 -0.00836951 0)
(-0.0613973 -0.00850113 0)
(-0.0584609 -0.00861266 0)
(-0.0554913 -0.0087022 0)
(-0.0524963 -0.00876785 0)
(-0.049484 -0.00880771 0)
(-0.0464634 -0.00881987 0)
(-0.0434439 -0.00880245 0)
(-0.0404358 -0.0087536 0)
(-0.0374495 -0.00867154 0)
(-0.0344963 -0.00855457 0)
(-0.0315877 -0.00840108 0)
(-0.028736 -0.00820962 0)
(-0.0259535 -0.00797891 0)
(-0.0232529 -0.0077079 0)
(-0.0206473 -0.00739579 0)
(-0.0181496 -0.00704214 0)
(-0.0157728 -0.00664695 0)
(-0.0135296 -0.00621074 0)
(-0.0114323 -0.00573472 0)
(-0.00949258 -0.00522095 0)
(-0.00772111 -0.00467262 0)
(-0.00612722 -0.00409432 0)
(-0.00471851 -0.00349251 0)
(-0.00350036 -0.00287606 0)
(-0.00247532 -0.00225698 0)
(-0.00164251 -0.00165141 0)
(-0.000996884 -0.00108085 0)
(-0.00052833 -0.000573801 0)
(-0.000220672 -0.000167405 0)
(-5.27537e-05 9.02432e-05 0)
(-4.35289e-07 0.0001327 0)
(-7.72375e-06 -9.57706e-05 0)
(-8.99869e-05 2.18618e-05 0)
(-0.000311396 0.000359971 0)
(-0.000684104 0.000853173 0)
(-0.00122217 0.00145285 0)
(-0.00193787 0.00212054 0)
(-0.00283852 0.00282609 0)
(-0.00392731 0.0035462 0)
(-0.00520403 0.00426303 0)
(-0.00666557 0.00496304 0)
(-0.0083064 0.00563612 0)
(-0.010119 0.00627484 0)
(-0.0120945 0.00687389 0)
(-0.0142225 0.00742965 0)
(-0.0164919 0.00793978 0)
(-0.0188913 0.00840302 0)
(-0.0214084 0.00881893 0)
(-0.0240312 0.0091877 0)
(-0.0267474 0.00951006 0)
(-0.029545 0.00978712 0)
(-0.0324122 0.0100203 0)
(-0.0353373 0.0102114 0)
(-0.0383093 0.0103621 0)
(-0.0413176 0.0104745 0)
(-0.044352 0.0105507 0)
(-0.0474027 0.0105929 0)
(-0.0504608 0.0106031 0)
(-0.0535176 0.0105837 0)
(-0.0565652 0.0105368 0)
(-0.0595962 0.0104646 0)
(-0.0626038 0.0103691 0)
(-0.0655817 0.0102525 0)
(-0.0685241 0.0101167 0)
(-0.071426 0.00996369 0)
(-0.0742825 0.00979528 0)
(-0.0770896 0.00961324 0)
(-0.0798435 0.00941928 0)
(-0.0825411 0.00921497 0)
(-0.0851794 0.00900183 0)
(-0.0877561 0.00878128 0)
(-0.0902693 0.00855463 0)
(-0.0927171 0.00832311 0)
(-0.0950984 0.00808788 0)
(-0.0974121 0.00784999 0)
(-0.0996575 0.00761041 0)
(-0.101834 0.00737003 0)
(-0.103942 0.00712965 0)
(-0.105981 0.00689 0)
(-0.107951 0.00665172 0)
(-0.109853 0.00641541 0)
(-0.111687 0.00618157 0)
(-0.113453 0.00595063 0)
(-0.115154 0.00572298 0)
(-0.116789 0.00549894 0)
(-0.11836 0.00527876 0)
(-0.119868 0.00506266 0)
(-0.121313 0.00485079 0)
(-0.122698 0.00464325 0)
(-0.124022 0.00444011 0)
(-0.125288 0.0042414 0)
(-0.126497 0.00404708 0)
(-0.127649 0.00385711 0)
(-0.128747 0.00367139 0)
(-0.12979 0.0034898 0)
(-0.130781 0.00331218 0)
(-0.13172 0.00313836 0)
(-0.132609 0.00296811 0)
(-0.133448 0.00280122 0)
(-0.134238 0.00263741 0)
(-0.13498 0.00247643 0)
(-0.135675 0.00231797 0)
(-0.136323 0.00216172 0)
(-0.136926 0.00200736 0)
(-0.137482 0.00185453 0)
(-0.137994 0.00170289 0)
(-0.138461 0.00155207 0)
(-0.138883 0.00140169 0)
(-0.13926 0.00125137 0)
(-0.139593 0.0011007 0)
(-0.139881 0.0009493 0)
(-0.140124 0.00079675 0)
(-0.140321 0.000642645 0)
(-0.140472 0.000486575 0)
(-0.140577 0.000328128 0)
(-0.140635 0.000166894 0)
(-0.140644 2.46275e-06 0)
(-0.140604 -0.000165568 0)
(-0.140514 -0.000337597 0)
(-0.140373 -0.000514015 0)
(-0.140179 -0.0006952 0)
(-0.139931 -0.000881521 0)
(-0.139627 -0.00107333 0)
(-0.139267 -0.00127097 0)
(-0.138847 -0.00147474 0)
(-0.138368 -0.00168495 0)
(-0.137826 -0.00190187 0)
(-0.13722 -0.00212573 0)
(-0.136548 -0.00235674 0)
(-0.135807 -0.00259507 0)
(-0.134997 -0.00284087 0)
(-0.134114 -0.00309421 0)
(-0.133158 -0.00335515 0)
(-0.132125 -0.00362367 0)
(-0.131013 -0.00389973 0)
(-0.129821 -0.00418318 0)
(-0.128547 -0.00447387 0)
(-0.127189 -0.00477152 0)
(-0.125744 -0.00507581 0)
(-0.124212 -0.00538636 0)
(-0.12259 -0.00570266 0)
(-0.120877 -0.00602416 0)
(-0.119072 -0.0063502 0)
(-0.117174 -0.00668002 0)
(-0.115182 -0.00701277 0)
(-0.113096 -0.00734752 0)
(-0.110914 -0.00768319 0)
(-0.108638 -0.00801864 0)
(-0.106267 -0.0083526 0)
(-0.103803 -0.00868369 0)
(-0.101246 -0.00901041 0)
(-0.0985977 -0.00933118 0)
(-0.0958605 -0.00964428 0)
(-0.0930369 -0.00994789 0)
(-0.0901297 -0.0102401 0)
(-0.0871427 -0.0105189 0)
(-0.0840799 -0.0107821 0)
(-0.0809461 -0.0110276 0)
(-0.0777466 -0.011253 0)
(-0.0744874 -0.011456 0)
(-0.0711752 -0.0116341 0)
(-0.0678173 -0.0117849 0)