/*--------------------------------*- C++ -*----------------------------------*\
  =========                 |
  \\      /  F ield         | OpenFOAM: The Open Source CFD Toolbox
   \\    /   O peration     | Website:  https://openfoam.org
    \\  /    A nd           | Version:  7
     \\/     M anipulation  |
\*---------------------------------------------------------------------------*/
FoamFile
{
    version     2.0;
    format      ascii;
    class       volScalarField;
    location    "0.4375";
    object      p;
}
// * * * * * * * * * * * * * * * * * * * * * * * * * * * * * * * * * * * * * //

dimensions      [0 2 -2 0 0 0 0];

internalField   nonuniform List<scalar> 
51200
(
-7.3688e-07
-1.899e-06
-9.88087e-07
2.09635e-06
6.88842e-06
1.30025e-05
2.02296e-05
2.84088e-05
3.72898e-05
4.65719e-05
5.60152e-05
6.54714e-05
7.48307e-05
8.39732e-05
9.27708e-05
0.00010111
0.000108902
0.000116079
0.000122581
0.000128353
0.000133347
0.000137522
0.000140847
0.000143296
0.000144845
0.000145472
0.000145159
0.000143892
0.000141661
0.000138465
0.000134306
0.000129188
0.000123116
0.000116095
0.000108129
9.92248e-05
8.93896e-05
7.86344e-05
6.69729e-05
5.44213e-05
4.09975e-05
2.67199e-05
1.1606e-05
-4.32725e-06
-2.1063e-05
-3.85837e-05
-5.687e-05
-7.59008e-05
-9.56545e-05
-0.000116109
-0.000137244
-0.000159038
-0.000181471
-0.000204521
-0.000228166
-0.000252383
-0.000277148
-0.00030244
-0.000328236
-0.000354514
-0.000381253
-0.000408429
-0.00043602
-0.000464003
-0.000492356
-0.000521055
-0.000550078
-0.000579401
-0.000609003
-0.000638861
-0.000668952
-0.000699255
-0.000729748
-0.000760408
-0.000791214
-0.000822142
-0.000853171
-0.000884278
-0.000915439
-0.000946633
-0.000977837
-0.00100903
-0.00104019
-0.00107129
-0.00110231
-0.00113323
-0.00116404
-0.00119469
-0.00122519
-0.00125549
-0.00128558
-0.00131544
-0.00134504
-0.00137436
-0.00140338
-0.00143208
-0.00146043
-0.00148841
-0.001516
-0.00154317
-0.00156991
-0.00159618
-0.00162197
-0.00164725
-0.001672
-0.0016962
-0.00171983
-0.00174286
-0.00176526
-0.00178703
-0.00180813
-0.00182855
-0.00184826
-0.00186725
-0.00188549
-0.00190296
-0.00191964
-0.00193552
-0.00195056
-0.00196477
-0.00197811
-0.00199057
-0.00200215
-0.00201282
-0.00202258
-0.0020314
-0.00203929
-0.00204622
-0.0020522
-0.00205722
-0.00206128
-0.00206438
-0.00206651
-0.00206769
-0.00206791
-0.0020672
-0.00206557
-0.00206303
-0.00205961
-0.00205534
-0.00205026
-0.0020444
-0.0020378
-0.00203053
-0.00202266
-0.00201427
-0.00200545
-0.00199626
-0.00198681
-0.00197726
-0.00196776
-0.00195852
-0.00194969
-0.00194146
-0.0019341
-0.0019279
-0.00192318
-0.00192024
-0.00191931
-0.00192004
-6.79021e-07
-1.35605e-06
-4.35967e-07
2.26903e-06
6.50338e-06
1.19195e-05
1.82353e-05
2.53072e-05
3.3013e-05
4.11612e-05
4.95272e-05
5.79292e-05
6.62443e-05
7.43741e-05
8.22163e-05
8.96651e-05
9.66253e-05
0.00010302
0.00010879
0.000113885
0.000118261
0.000121877
0.000124698
0.000126694
0.000127838
0.000128107
0.000127483
0.00012595
0.0001235
0.000120126
0.000115831
0.000110617
0.000104487
9.74432e-05
8.94881e-05
8.06261e-05
7.08644e-05
6.02132e-05
4.86855e-05
3.6296e-05
2.30604e-05
8.9949e-06
-5.88445e-06
-2.15616e-05
-3.80202e-05
-5.52432e-05
-7.32125e-05
-9.19087e-05
-0.000111311
-0.000131399
-0.000152153
-0.00017355
-0.000195574
-0.000218202
-0.000241413
-0.000265187
-0.000289499
-0.000314328
-0.000339652
-0.000365449
-0.000391698
-0.000418378
-0.000445467
-0.000472943
-0.000500782
-0.000528962
-0.000557461
-0.000586257
-0.000615327
-0.000644649
-0.000674202
-0.000703963
-0.000733912
-0.000764025
-0.000794282
-0.00082466
-0.000855137
-0.000885691
-0.000916299
-0.000946939
-0.000977588
-0.00100823
-0.00103883
-0.00106938
-0.00109985
-0.00113022
-0.00116047
-0.00119058
-0.00122053
-0.00125029
-0.00127984
-0.00130915
-0.00133822
-0.00136701
-0.0013955
-0.00142368
-0.00145151
-0.00147898
-0.00150606
-0.00153274
-0.00155898
-0.00158477
-0.00161008
-0.0016349
-0.00165919
-0.00168294
-0.00170613
-0.00172873
-0.00175073
-0.0017721
-0.00179281
-0.00181286
-0.00183222
-0.00185087
-0.00186879
-0.00188596
-0.00190236
-0.00191798
-0.00193279
-0.00194678
-0.00195993
-0.00197224
-0.00198368
-0.00199425
-0.00200393
-0.00201271
-0.00202059
-0.00202755
-0.00203359
-0.00203871
-0.00204291
-0.00204618
-0.00204854
-0.00204998
-0.00205052
-0.00205017
-0.00204894
-0.00204687
-0.00204396
-0.00204025
-0.00203579
-0.00203061
-0.00202476
-0.00201828
-0.00201124
-0.00200373
-0.00199585
-0.00198768
-0.00197931
-0.00197083
-0.00196242
-0.00195426
-0.00194653
-0.00193941
-0.00193306
-0.00192768
-0.00192349
-0.00192072
-0.0019197
-0.00192048
-1.87826e-06
-2.37065e-06
-1.38596e-06
1.05985e-06
4.84254e-06
9.76987e-06
1.55442e-05
2.1942e-05
2.88447e-05
3.61454e-05
4.36894e-05
5.13044e-05
5.88473e-05
6.62121e-05
7.33097e-05
8.00512e-05
8.63484e-05
9.21226e-05
9.73099e-05
0.00010186
0.000105733
0.000108889
0.000111296
0.000112918
0.000113727
0.000113698
0.00011281
0.000111051
0.000108411
0.000104884
0.00010047
9.51696e-05
8.8984e-05
8.19142e-05
7.39615e-05
6.51284e-05
5.54211e-05
4.48492e-05
3.34253e-05
2.11635e-05
8.07851e-06
-5.81542e-06
-2.0504e-05
-3.59727e-05
-5.22055e-05
-6.91856e-05
-8.68951e-05
-0.000105316
-0.000124428
-0.000144213
-0.000164651
-0.000185722
-0.000207407
-0.000229685
-0.000252536
-0.000275939
-0.000299873
-0.000324315
-0.000349244
-0.00037464
-0.00040048
-0.000426745
-0.000453414
-0.000480463
-0.000507872
-0.000535617
-0.000563676
-0.000592028
-0.000620651
-0.000649522
-0.000678622
-0.000707927
-0.000737418
-0.000767071
-0.000796866
-0.000826781
-0.000856793
-0.000886881
-0.000917023
-0.000947196
-0.000977378
-0.00100755
-0.00103768
-0.00106777
-0.00109777
-0.00112768
-0.00115747
-0.00118712
-0.0012166
-0.0012459
-0.001275
-0.00130386
-0.00133248
-0.00136082
-0.00138888
-0.00141661
-0.00144401
-0.00147105
-0.00149771
-0.00152396
-0.0015498
-0.00157518
-0.0016001
-0.00162452
-0.00164843
-0.00167181
-0.00169464
-0.00171689
-0.00173854
-0.00175958
-0.00177998
-0.00179972
-0.00181879
-0.00183716
-0.00185482
-0.00187174
-0.00188791
-0.00190332
-0.00191794
-0.00193176
-0.00194476
-0.00195694
-0.00196828
-0.00197877
-0.00198839
-0.00199714
-0.00200502
-0.00201201
-0.00201811
-0.00202332
-0.00202763
-0.00203106
-0.00203361
-0.00203528
-0.00203608
-0.00203603
-0.00203515
-0.00203345
-0.00203097
-0.00202772
-0.00202376
-0.00201911
-0.00201385
-0.00200801
-0.00200165
-0.00199484
-0.00198767
-0.00198026
-0.00197269
-0.00196507
-0.00195748
-0.0019501
-0.00194309
-0.00193666
-0.00193098
-0.00192619
-0.00192241
-0.00191977
-0.00191864
-0.00191933
-5.00223e-06
-5.172e-06
-3.89021e-06
-1.40082e-06
2.15783e-06
6.73311e-06
1.2134e-05
1.81199e-05
2.45214e-05
3.12353e-05
3.81587e-05
4.51619e-05
5.21103e-05
5.88891e-05
6.54054e-05
7.15783e-05
7.73307e-05
8.25911e-05
8.7297e-05
9.13976e-05
9.48506e-05
9.76197e-05
9.96707e-05
0.000100971
0.00010149
0.000101201
0.000100084
9.8124e-05
9.53138e-05
9.16486e-05
8.71259e-05
8.17448e-05
7.55047e-05
6.84053e-05
6.04467e-05
5.16312e-05
4.19642e-05
3.14547e-05
2.01144e-05
7.95697e-06
-5.00388e-06
-1.87547e-05
-3.32824e-05
-4.85738e-05
-6.46143e-05
-8.13875e-05
-9.88759e-05
-0.000117061
-0.000135924
-0.000155447
-0.000175612
-0.000196401
-0.000217793
-0.000239768
-0.000262307
-0.000285389
-0.000308992
-0.000333096
-0.00035768
-0.000382724
-0.000408208
-0.00043411
-0.00046041
-0.000487086
-0.000514116
-0.000541478
-0.000569152
-0.000597113
-0.000625343
-0.000653818
-0.000682518
-0.000711423
-0.000740509
-0.000769757
-0.000799145
-0.000828651
-0.000858254
-0.000887931
-0.000917661
-0.000947422
-0.000977192
-0.00100695
-0.00103667
-0.00106635
-0.00109594
-0.00112544
-0.00115482
-0.00118406
-0.00121314
-0.00124204
-0.00127074
-0.0012992
-0.00132742
-0.00135538
-0.00138304
-0.00141039
-0.00143741
-0.00146407
-0.00149036
-0.00151625
-0.00154172
-0.00156675
-0.00159132
-0.0016154
-0.00163898
-0.00166204
-0.00168455
-0.00170649
-0.00172785
-0.0017486
-0.00176872
-0.0017882
-0.00180702
-0.00182515
-0.00184259
-0.0018593
-0.00187528
-0.00189051
-0.00190496
-0.00191864
-0.00193152
-0.0019436
-0.00195485
-0.00196527
-0.00197486
-0.00198359
-0.00199147
-0.00199849
-0.00200465
-0.00200994
-0.00201437
-0.00201794
-0.00202065
-0.00202252
-0.00202355
-0.00202377
-0.00202317
-0.0020218
-0.00201968
-0.00201683
-0.00201329
-0.00200909
-0.0020043
-0.00199898
-0.00199318
-0.00198695
-0.00198036
-0.00197352
-0.00196653
-0.00195953
-0.00195259
-0.0019458
-0.00193931
-0.00193329
-0.00192793
-0.00192341
-0.00191983
-0.00191727
-0.00191598
-0.00191631
-9.74249e-06
-9.42545e-06
-7.741e-06
-4.99175e-06
-1.40279e-06
2.98548e-06
8.09625e-06
1.37624e-05
1.98047e-05
2.60919e-05
3.25287e-05
3.90192e-05
4.54559e-05
5.17312e-05
5.77492e-05
6.34283e-05
6.86979e-05
7.3495e-05
7.77636e-05
8.1455e-05
8.45269e-05
8.69417e-05
8.86648e-05
8.96638e-05
8.99091e-05
8.93743e-05
8.80387e-05
8.58882e-05
8.29151e-05
7.91153e-05
7.44861e-05
6.90249e-05
6.2729e-05
5.55964e-05
4.76266e-05
3.88216e-05
2.91869e-05
1.87311e-05
7.46549e-06
-4.59768e-06
-1.74457e-05
-3.1066e-05
-4.54463e-05
-6.0574e-05
-7.64354e-05
-9.30152e-05
-0.000110297
-0.000128262
-0.000146892
-0.00016617
-0.000186079
-0.0002066
-0.000227715
-0.000249404
-0.000271647
-0.000294424
-0.000317714
-0.000341497
-0.000365753
-0.000390462
-0.000415605
-0.000441162
-0.00046711
-0.00049343
-0.000520099
-0.000547096
-0.000574399
-0.000601988
-0.000629841
-0.000657937
-0.000686256
-0.000714775
-0.000743475
-0.000772335
-0.000801332
-0.000830447
-0.000859656
-0.000888939
-0.000918274
-0.00094764
-0.000977015
-0.00100638
-0.00103571
-0.00106498
-0.00109419
-0.00112329
-0.00115228
-0.00118113
-0.00120983
-0.00123834
-0.00126665
-0.00129473
-0.00132258
-0.00135015
-0.00137744
-0.00140443
-0.00143108
-0.00145738
-0.00148332
-0.00150886
-0.00153399
-0.00155868
-0.00158292
-0.00160668
-0.00162995
-0.00165269
-0.00167491
-0.00169656
-0.00171764
-0.00173812
-0.00175798
-0.00177722
-0.0017958
-0.00181371
-0.00183093
-0.00184745
-0.00186325
-0.00187831
-0.00189262
-0.00190617
-0.00191893
-0.00193091
-0.00194209
-0.00195246
-0.00196201
-0.00197074
-0.00197863
-0.00198568
-0.0019919
-0.00199727
-0.00200181
-0.00200551
-0.00200839
-0.00201045
-0.0020117
-0.00201216
-0.00201184
-0.00201077
-0.00200898
-0.00200649
-0.00200334
-0.00199956
-0.0019952
-0.00199033
-0.001985
-0.00197928
-0.00197322
-0.00196689
-0.00196039
-0.00195386
-0.0019474
-0.0019411
-0.00193504
-0.00192935
-0.00192418
-0.00191972
-0.00191612
-0.00191347
-0.00191188
-0.0019116
-1.58226e-05
-1.47984e-05
-1.26777e-05
-9.60599e-06
-5.80826e-06
-1.40128e-06
3.56313e-06
8.99909e-06
1.47739e-05
2.07536e-05
2.68318e-05
3.29209e-05
3.89342e-05
4.47807e-05
5.03713e-05
5.56261e-05
6.04772e-05
6.48671e-05
6.8746e-05
7.20694e-05
7.47969e-05
7.68905e-05
7.83147e-05
7.90367e-05
7.90274e-05
7.82618e-05
7.67207e-05
7.43906e-05
7.12635e-05
6.73352e-05
6.26026e-05
5.70619e-05
5.0709e-05
4.35405e-05
3.5555e-05
2.67546e-05
1.71448e-05
6.73426e-06
-4.46614e-06
-1.6445e-05
-2.91908e-05
-4.26926e-05
-5.69387e-05
-7.19171e-05
-8.76142e-05
-0.000104015
-0.000121105
-0.000138865
-0.000157279
-0.000176329
-0.000195998
-0.000216269
-0.000237125
-0.000258544
-0.000280509
-0.000303
-0.000325995
-0.000349475
-0.000373421
-0.000397815
-0.000422636
-0.000447865
-0.000473481
-0.000499463
-0.00052579
-0.00055244
-0.000579393
-0.000606628
-0.000634123
-0.000661859
-0.000689814
-0.000717968
-0.0007463
-0.00077479
-0.000803416
-0.000832157
-0.000860992
-0.0008899
-0.000918859
-0.000947848
-0.000976846
-0.00100583
-0.00103479
-0.00106369
-0.00109251
-0.00112125
-0.00114987
-0.00117835
-0.00120667
-0.00123482
-0.00126276
-0.00129048
-0.00131797
-0.00134519
-0.00137212
-0.00139876
-0.00142507
-0.00145103
-0.00147663
-0.00150184
-0.00152664
-0.00155102
-0.00157495
-0.0015984
-0.00162137
-0.00164383
-0.00166576
-0.00168714
-0.00170796
-0.00172819
-0.00174781
-0.00176681
-0.00178518
-0.00180288
-0.00181991
-0.00183625
-0.00185188
-0.00186679
-0.00188096
-0.00189439
-0.00190705
-0.00191895
-0.00193006
-0.00194039
-0.00194991
-0.00195863
-0.00196654
-0.00197363
-0.0019799
-0.00198536
-0.00199
-0.00199383
-0.00199687
-0.0019991
-0.00200056
-0.00200124
-0.00200118
-0.00200039
-0.0019989
-0.00199673
-0.00199394
-0.00199054
-0.00198657
-0.0019821
-0.00197717
-0.00197187
-0.00196625
-0.00196038
-0.00195431
-0.00194816
-0.00194203
-0.00193605
-0.0019303
-0.00192484
-0.0019198
-0.0019153
-0.00191152
-0.00190857
-0.00190652
-0.00190543
-2.30975e-05
-2.1101e-05
-1.84339e-05
-1.50208e-05
-1.09481e-05
-6.3756e-06
-1.39508e-06
3.93526e-06
9.53433e-06
1.52971e-05
2.11199e-05
2.69131e-05
3.25968e-05
3.80928e-05
4.33241e-05
4.82185e-05
5.27128e-05
5.67535e-05
6.02946e-05
6.32949e-05
6.5716e-05
6.75214e-05
6.86758e-05
6.91463e-05
6.8904e-05
6.79257e-05
6.61937e-05
6.36962e-05
6.04255e-05
5.63766e-05
5.15452e-05
4.59265e-05
3.95156e-05
3.23082e-05
2.4303e-05
1.55019e-05
5.91048e-06
-4.46268e-06
-1.56072e-05
-2.75123e-05
-4.01676e-05
-5.3563e-05
-6.76882e-05
-8.25315e-05
-9.80799e-05
-0.000114319
-0.000131232
-0.000148804
-0.000167018
-0.000185858
-0.000205306
-0.000225347
-0.000245961
-0.000267131
-0.000288838
-0.00031106
-0.00033378
-0.000356978
-0.000380636
-0.000404734
-0.000429254
-0.000454176
-0.000479481
-0.000505146
-0.000531152
-0.000557477
-0.0005841
-0.000611002
-0.00063816
-0.000665557
-0.00069317
-0.00072098
-0.000748965
-0.000777106
-0.000805382
-0.000833771
-0.000862253
-0.000890807
-0.000919411
-0.000948044
-0.000976687
-0.00100532
-0.00103392
-0.00106246
-0.00109094
-0.00111932
-0.00114759
-0.00117572
-0.0012037
-0.00123149
-0.00125909
-0.00128648
-0.00131362
-0.00134051
-0.00136711
-0.00139342
-0.0014194
-0.00144505
-0.00147033
-0.00149523
-0.00151973
-0.00154381
-0.00156745
-0.00159062
-0.00161331
-0.0016355
-0.00165717
-0.0016783
-0.00169887
-0.00171887
-0.00173827
-0.00175706
-0.00177522
-0.00179273
-0.00180958
-0.00182576
-0.00184124
-0.00185601
-0.00187006
-0.00188338
-0.00189596
-0.00190778
-0.00191884
-0.00192912
-0.00193863
-0.00194734
-0.00195527
-0.0019624
-0.00196873
-0.00197427
-0.00197901
-0.00198297
-0.00198614
-0.00198855
-0.00199019
-0.00199109
-0.00199126
-0.00199073
-0.00198951
-0.00198763
-0.00198513
-0.00198206
-0.00197844
-0.00197433
-0.00196976
-0.0019648
-0.00195952
-0.001954
-0.00194829
-0.00194246
-0.00193659
-0.00193081
-0.0019252
-0.00191985
-0.00191483
-0.00191023
-0.00190617
-0.0019028
-0.00190011
-0.00189807
-3.13774e-05
-2.82347e-05
-2.48506e-05
-2.10194e-05
-1.66368e-05
-1.18294e-05
-6.71613e-06
-1.36706e-06
4.15852e-06
9.78734e-06
1.54343e-05
2.10148e-05
2.64509e-05
3.16712e-05
3.6609e-05
4.12021e-05
4.53949e-05
4.91387e-05
5.23905e-05
5.5111e-05
5.72634e-05
5.88122e-05
5.97235e-05
5.99658e-05
5.95113e-05
5.83382e-05
5.64308e-05
5.37784e-05
5.03742e-05
4.62123e-05
4.12872e-05
3.55926e-05
2.9123e-05
2.18742e-05
1.38452e-05
5.03842e-06
-4.54031e-06
-1.48829e-05
-2.59797e-05
-3.7821e-05
-5.0397e-05
-6.36984e-05
-7.77154e-05
-9.24371e-05
-0.000107851
-0.000123942
-0.000140695
-0.000158096
-0.000176127
-0.000194773
-0.000214018
-0.000233846
-0.000254238
-0.000275177
-0.000296643
-0.000318618
-0.000341082
-0.000364017
-0.000387406
-0.000411229
-0.000435468
-0.000460105
-0.000485118
-0.000510487
-0.000536192
-0.000562212
-0.000588526
-0.000615115
-0.000641958
-0.000669036
-0.000696328
-0.000723814
-0.000751473
-0.000779286
-0.000807233
-0.000835291
-0.000863441
-0.000891661
-0.000919931
-0.00094823
-0.000976539
-0.00100484
-0.0010331
-0.00106132
-0.00108946
-0.00111751
-0.00114545
-0.00117325
-0.0012009
-0.00122837
-0.00125565
-0.00128271
-0.00130954
-0.00133611
-0.00136241
-0.0013884
-0.00141409
-0.00143943
-0.00146442
-0.00148903
-0.00151325
-0.00153705
-0.00156041
-0.00158332
-0.00160576
-0.0016277
-0.00164912
-0.00167002
-0.00169037
-0.00171015
-0.00172934
-0.00174794
-0.00176591
-0.00178325
-0.00179994
-0.00181596
-0.00183131
-0.00184595
-0.0018599
-0.00187312
-0.00188562
-0.00189738
-0.00190839
-0.00191864
-0.00192813
-0.00193685
-0.0019448
-0.00195197
-0.00195836
-0.00196397
-0.00196881
-0.00197289
-0.0019762
-0.00197876
-0.00198057
-0.00198166
-0.00198204
-0.00198174
-0.00198077
-0.00197916
-0.00197693
-0.00197413
-0.0019708
-0.00196699
-0.00196274
-0.00195808
-0.00195307
-0.0019478
-0.00194235
-0.00193675
-0.00193109
-0.00192543
-0.00191986
-0.00191449
-0.00190938
-0.00190459
-0.0019002
-0.00189633
-0.00189291
-0.0018898
-4.03632e-05
-3.60514e-05
-3.18309e-05
-2.74643e-05
-2.27048e-05
-1.76177e-05
-1.23055e-05
-6.84548e-06
-1.29759e-06
4.2803e-06
9.82233e-06
1.52566e-05
2.05118e-05
2.5522e-05
3.02281e-05
3.45767e-05
3.85198e-05
4.20143e-05
4.50205e-05
4.7501e-05
4.94199e-05
5.07425e-05
5.14364e-05
5.14722e-05
5.08249e-05
4.94745e-05
4.74069e-05
4.46125e-05
4.10845e-05
3.68166e-05
3.18021e-05
2.6034e-05
1.95058e-05
1.22137e-05
4.1575e-06
-4.65957e-06
-1.42313e-05
-2.45498e-05
-3.56065e-05
-4.73927e-05
-5.98998e-05
-7.3119e-05
-8.70406e-05
-0.000101654
-0.000116946
-0.000132904
-0.000149513
-0.000166757
-0.000184621
-0.00020309
-0.000222149
-0.00024178
-0.000261968
-0.000282693
-0.000303938
-0.000325683
-0.000347911
-0.000370603
-0.000393742
-0.00041731
-0.000441288
-0.000465658
-0.000490399
-0.000515492
-0.000540916
-0.000566651
-0.000592677
-0.000618973
-0.000645521
-0.0006723
-0.000699291
-0.000726474
-0.000753828
-0.000781333
-0.00080897
-0.000836718
-0.000864556
-0.000892464
-0.00092042
-0.000948406
-0.000976401
-0.00100438
-0.00103234
-0.00106024
-0.00108807
-0.00111581
-0.00114344
-0.00117093
-0.00119827
-0.00122544
-0.00125242
-0.00127918
-0.00130571
-0.00133199
-0.00135799
-0.00138371
-0.0014091
-0.00143417
-0.00145889
-0.00148323
-0.00150718
-0.00153073
-0.00155384
-0.0015765
-0.0015987
-0.0016204
-0.00164161
-0.00166229
-0.00168243
-0.00170201
-0.00172101
-0.00173943
-0.00175723
-0.00177442
-0.00179096
-0.00180685
-0.00182207
-0.0018366
-0.00185045
-0.00186359
-0.00187602
-0.00188773
-0.0018987
-0.00190893
-0.00191841
-0.00192713
-0.0019351
-0.00194231
-0.00194876
-0.00195445
-0.00195938
-0.00196357
-0.001967
-0.0019697
-0.00197168
-0.00197294
-0.00197351
-0.00197341
-0.00197266
-0.00197128
-0.0019693
-0.00196674
-0.00196365
-0.00196008
-0.00195608
-0.00195168
-0.00194691
-0.00194184
-0.00193654
-0.00193109
-0.00192554
-0.00191995
-0.00191437
-0.00190888
-0.00190358
-0.00189851
-0.00189372
-0.00188931
-0.0018851
-0.00188087
-4.97512e-05
-4.43225e-05
-3.92443e-05
-3.42567e-05
-2.9034e-05
-2.36092e-05
-1.80505e-05
-1.24198e-05
-6.77642e-06
-1.1754e-06
4.32821e-06
9.67558e-06
1.48063e-05
1.96625e-05
2.41922e-05
2.83492e-05
3.20918e-05
3.53817e-05
3.81824e-05
4.04587e-05
4.21759e-05
4.33006e-05
4.38017e-05
4.36524e-05
4.28308e-05
4.13197e-05
3.91066e-05
3.61825e-05
3.25402e-05
2.81728e-05
2.30728e-05
1.72328e-05
1.06463e-05
3.31005e-06
-4.77571e-06
-1.36069e-05
-2.31769e-05
-3.3478e-05
-4.45022e-05
-5.62421e-05
-6.86901e-05
-8.1838e-05
-9.56763e-05
-0.000110194
-0.000125379
-0.000141217
-0.000157695
-0.000174797
-0.00019251
-0.000210819
-0.000229707
-0.00024916
-0.00026916
-0.000289689
-0.00031073
-0.000332264
-0.000354273
-0.000376741
-0.000399649
-0.000422981
-0.000446718
-0.000470841
-0.00049533
-0.000520166
-0.000545329
-0.000570798
-0.000596555
-0.000622579
-0.000648851
-0.000675352
-0.000702062
-0.000728961
-0.00075603
-0.000783249
-0.000810597
-0.000838054
-0.000865601
-0.000893216
-0.00092088
-0.000948572
-0.000976273
-0.00100396
-0.00103162
-0.00105923
-0.00108677
-0.00111422
-0.00114156
-0.00116876
-0.00119582
-0.00122271
-0.0012494
-0.00127588
-0.00130214
-0.00132814
-0.00135387
-0.00137932
-0.00140446
-0.00142926
-0.00145373
-0.00147782
-0.00150153
-0.00152483
-0.00154771
-0.00157014
-0.00159212
-0.00161361
-0.00163461
-0.00165509
-0.00167504
-0.00169444
-0.00171328
-0.00173153
-0.00174918
-0.00176622
-0.00178263
-0.0017984
-0.00181351
-0.00182795
-0.00184171
-0.00185478
-0.00186715
-0.00187881
-0.00188974
-0.00189996
-0.00190943
-0.00191817
-0.00192617
-0.00193342
-0.00193992
-0.00194568
-0.0019507
-0.00195499
-0.00195854
-0.00196137
-0.00196349
-0.00196492
-0.00196566
-0.00196573
-0.00196517
-0.00196399
-0.00196222
-0.00195988
-0.001957
-0.00195363
-0.00194982
-0.00194561
-0.00194103
-0.00193612
-0.00193094
-0.00192555
-0.00192002
-0.00191442
-0.00190877
-0.00190313
-0.00189756
-0.00189212
-0.00188688
-0.00188189
-0.00187686
-0.0018715
-5.93317e-05
-5.28185e-05
-4.69114e-05
-4.12782e-05
-3.55299e-05
-2.97038e-05
-2.38487e-05
-1.80019e-05
-1.22121e-05
-6.53071e-06
-1.00783e-06
4.30705e-06
9.36446e-06
1.41165e-05
1.85189e-05
2.25318e-05
2.61188e-05
2.92452e-05
3.18774e-05
3.3982e-05
3.5526e-05
3.6478e-05
3.68091e-05
3.64953e-05
3.55175e-05
3.38617e-05
3.15169e-05
2.84746e-05
2.47269e-05
2.0266e-05
1.50841e-05
9.17371e-06
2.52914e-06
-4.8522e-06
-1.29692e-05
-2.18175e-05
-3.13903e-05
-4.16802e-05
-5.26799e-05
-6.43824e-05
-7.67811e-05
-8.98682e-05
-0.000103634
-0.000118069
-0.000133159
-0.000148891
-0.000165252
-0.000182227
-0.000199804
-0.000217967
-0.000236702
-0.000255993
-0.000275822
-0.000296172
-0.000317026
-0.000338366
-0.000360176
-0.000382438
-0.000405135
-0.000428249
-0.000451763
-0.000475658
-0.000499914
-0.000524512
-0.000549433
-0.000574657
-0.000600164
-0.000625935
-0.000651952
-0.000678194
-0.000704643
-0.000731279
-0.000758082
-0.000785033
-0.000812113
-0.0008393
-0.000866576
-0.000893919
-0.00092131
-0.000948729
-0.000976156
-0.00100357
-0.00103096
-0.0010583
-0.00108556
-0.00111274
-0.00113981
-0.00116675
-0.00119354
-0.00122016
-0.00124659
-0.00127281
-0.00129881
-0.00132456
-0.00135004
-0.00137524
-0.00140013
-0.0014247
-0.00144893
-0.00147279
-0.00149628
-0.00151936
-0.00154202
-0.00156425
-0.00158602
-0.00160732
-0.00162813
-0.00164843
-0.00166821
-0.00168744
-0.00170612
-0.00172422
-0.00174174
-0.00175865
-0.00177494
-0.0017906
-0.00180561
-0.00181997
-0.00183366
-0.00184666
-0.00185898
-0.0018706
-0.00188152
-0.00189172
-0.00190119
-0.00190995
-0.00191797
-0.00192526
-0.00193182
-0.00193766
-0.00194276
-0.00194714
-0.0019508
-0.00195375
-0.001956
-0.00195757
-0.00195846
-0.0019587
-0.0019583
-0.00195729
-0.00195569
-0.00195353
-0.00195084
-0.00194764
-0.00194397
-0.00193989
-0.00193544
-0.00193065
-0.00192555
-0.00192018
-0.00191462
-0.00190893
-0.00190314
-0.00189729
-0.00189142
-0.00188557
-0.00187982
-0.00187422
-0.00186836
-0.00186187
-6.89799e-05
-6.13762e-05
-5.46577e-05
-4.83869e-05
-4.20892e-05
-3.58154e-05
-2.96159e-05
-2.35118e-05
-1.75363e-05
-1.17324e-05
-6.1441e-06
-8.14055e-07
4.2171e-06
8.91064e-06
1.323e-05
1.71413e-05
2.06125e-05
2.36122e-05
2.61088e-05
2.80708e-05
2.94672e-05
3.02692e-05
3.04511e-05
2.99919e-05
2.88757e-05
2.70905e-05
2.46271e-05
2.1477e-05
1.76318e-05
1.30829e-05
7.82223e-06
1.84293e-06
-4.85958e-06
-1.22867e-05
-2.04367e-05
-2.93047e-05
-3.88844e-05
-4.9169e-05
-6.01515e-05
-7.18257e-05
-8.41849e-05
-9.72216e-05
-0.000110926
-0.000125289
-0.000140296
-0.000155935
-0.000172193
-0.000189056
-0.000206512
-0.000224545
-0.000243142
-0.000262285
-0.00028196
-0.000302149
-0.000322833
-0.000343998
-0.000365626
-0.0003877
-0.000410203
-0.000433119
-0.000456429
-0.000480114
-0.000504156
-0.000528536
-0.000553233
-0.00057823
-0.000603507
-0.000629045
-0.000654825
-0.000680828
-0.000707035
-0.000733427
-0.000759985
-0.000786689
-0.00081352
-0.000840457
-0.000867481
-0.000894572
-0.00092171
-0.000948876
-0.00097605
-0.00100321
-0.00103035
-0.00105743
-0.00108445
-0.00111137
-0.00113819
-0.00116488
-0.00119142
-0.0012178
-0.00124399
-0.00126997
-0.00129573
-0.00132125
-0.0013465
-0.00137147
-0.00139614
-0.00142049
-0.0014445
-0.00146815
-0.00149142
-0.00151431
-0.00153677
-0.00155881
-0.0015804
-0.00160152
-0.00162216
-0.00164229
-0.00166191
-0.001681
-0.00169954
-0.00171751
-0.0017349
-0.0017517
-0.00176789
-0.00178345
-0.00179838
-0.00181266
-0.00182628
-0.00183924
-0.00185152
-0.00186311
-0.001874
-0.0018842
-0.00189368
-0.00190245
-0.0019105
-0.00191784
-0.00192446
-0.00193035
-0.00193554
-0.00194001
-0.00194377
-0.00194683
-0.0019492
-0.00195089
-0.00195192
-0.0019523
-0.00195205
-0.00195119
-0.00194973
-0.00194771
-0.00194516
-0.0019421
-0.00193856
-0.00193457
-0.00193019
-0.00192545
-0.00192038
-0.00191501
-0.00190938
-0.00190355
-0.00189757
-0.00189146
-0.00188525
-0.00187897
-0.00187268
-0.00186644
-0.00185975
-0.00185215
-7.85861e-05
-6.98873e-05
-6.23525e-05
-5.54489e-05
-4.85992e-05
-4.1856e-05
-3.52779e-05
-2.88805e-05
-2.26858e-05
-1.67256e-05
-1.10352e-05
-5.64985e-06
-6.03226e-07
4.07325e-06
8.34969e-06
1.21973e-05
1.55878e-05
1.84925e-05
2.08821e-05
2.27269e-05
2.39985e-05
2.46712e-05
2.47231e-05
2.41366e-05
2.28984e-05
2.09985e-05
1.84286e-05
1.51801e-05
1.12442e-05
6.61193e-06
1.27532e-06
-4.77151e-06
-1.15317e-05
-1.90054e-05
-2.71899e-05
-3.60805e-05
-4.56713e-05
-5.59561e-05
-6.69287e-05
-7.85831e-05
-9.09124e-05
-0.000103909
-0.000117563
-0.000131865
-0.000146801
-0.00016236
-0.000178528
-0.000195293
-0.000212641
-0.00023056
-0.000249033
-0.000268047
-0.000287583
-0.000307626
-0.000328159
-0.000349165
-0.000370629
-0.000392533
-0.000414861
-0.000437596
-0.00046072
-0.000484214
-0.000508061
-0.00053224
-0.000556733
-0.000581522
-0.000606587
-0.000631911
-0.000657473
-0.000683257
-0.000709242
-0.00073541
-0.000761742
-0.000788218
-0.000814819
-0.000841526
-0.000868318
-0.000895177
-0.000922081
-0.000949014
-0.000975954
-0.00100288
-0.00102978
-0.00105663
-0.00108342
-0.00111011
-0.0011367
-0.00116316
-0.00118948
-0.00121563
-0.00124159
-0.00126735
-0.0012929
-0.0013182
-0.00134324
-0.001368
-0.00139246
-0.00141661
-0.00144042
-0.00146388
-0.00148697
-0.00150967
-0.00153195
-0.00155382
-0.00157524
-0.0015962
-0.00161668
-0.00163667
-0.00165615
-0.00167511
-0.00169352
-0.00171137
-0.00172866
-0.00174535
-0.00176145
-0.00177693
-0.00179179
-0.00180601
-0.00181958
-0.00183249
-0.00184474
-0.00185631
-0.00186719
-0.00187738
-0.00188688
-0.00189567
-0.00190376
-0.00191114
-0.00191781
-0.00192377
-0.00192902
-0.00193358
-0.00193743
-0.0019406
-0.00194308
-0.00194488
-0.00194602
-0.00194653
-0.00194641
-0.00194567
-0.00194434
-0.00194244
-0.00193999
-0.00193703
-0.00193358
-0.00192966
-0.00192531
-0.00192058
-0.00191549
-0.00191007
-0.00190434
-0.00189835
-0.00189213
-0.00188573
-0.00187915
-0.00187241
-0.00186557
-0.00185868
-0.00185116
-0.00184248
-8.80211e-05
-7.82539e-05
-6.98991e-05
-6.23577e-05
-5.49552e-05
-4.77363e-05
-4.07619e-05
-3.40455e-05
-2.7603e-05
-2.1457e-05
-1.56333e-05
-1.01589e-05
-5.06083e-06
-3.6506e-07
3.90366e-06
7.72071e-06
1.10608e-05
1.38978e-05
1.62044e-05
1.79538e-05
1.91208e-05
1.96833e-05
1.96232e-05
1.89262e-05
1.75815e-05
1.55804e-05
1.29147e-05
9.57595e-06
5.55509e-06
8.43267e-07
-4.56684e-06
-1.06799e-05
-1.74974e-05
-2.50183e-05
-3.32392e-05
-4.21555e-05
-5.17617e-05
-6.20526e-05
-7.30224e-05
-8.46651e-05
-9.69737e-05
-0.00010994
-0.000123554
-0.000137806
-0.000152683
-0.000168174
-0.000184265
-0.000200946
-0.000218202
-0.00023602
-0.000254386
-0.000273284
-0.000292698
-0.000312612
-0.000333009
-0.000353874
-0.000375191
-0.000396942
-0.000419113
-0.000441685
-0.000464641
-0.000487962
-0.000511631
-0.000535629
-0.000559936
-0.000584536
-0.000609408
-0.000634536
-0.000659901
-0.000685483
-0.000711266
-0.000737229
-0.000763354
-0.000789622
-0.000816013
-0.000842508
-0.000869088
-0.000895733
-0.000922424
-0.000949142
-0.000975868
-0.00100258
-0.00102927
-0.00105591
-0.00108247
-0.00110896
-0.00113533
-0.00116158
-0.00118769
-0.00121364
-0.0012394
-0.00126496
-0.0012903
-0.00131541
-0.00134025
-0.00136482
-0.0013891
-0.00141307
-0.0014367
-0.00145998
-0.0014829
-0.00150543
-0.00152756
-0.00154927
-0.00157054
-0.00159136
-0.0016117
-0.00163156
-0.00165092
-0.00166975
-0.00168806
-0.00170581
-0.001723
-0.00173961
-0.00175563
-0.00177104
-0.00178584
-0.0018
-0.00181353
-0.00182641
-0.00183863
-0.00185019
-0.00186107
-0.00187127
-0.00188078
-0.00188959
-0.00189771
-0.00190514
-0.00191186
-0.00191789
-0.00192322
-0.00192785
-0.00193179
-0.00193505
-0.00193762
-0.00193953
-0.00194078
-0.00194138
-0.00194137
-0.00194074
-0.00193951
-0.00193771
-0.00193534
-0.00193244
-0.00192905
-0.00192517
-0.00192084
-0.00191608
-0.00191093
-0.00190541
-0.00189956
-0.00189338
-0.00188691
-0.00188018
-0.00187321
-0.00186599
-0.0018586
-0.00185106
-0.00184272
-0.00183299
-9.71536e-05
-8.63685e-05
-7.72099e-05
-6.90288e-05
-6.10707e-05
-5.33737e-05
-4.59955e-05
-3.89448e-05
-3.22323e-05
-2.58747e-05
-1.989e-05
-1.42974e-05
-9.11759e-06
-4.37182e-06
-8.11175e-08
3.73305e-06
7.04803e-06
9.83981e-06
1.20839e-05
1.37569e-05
1.48372e-05
1.5307e-05
1.51518e-05
1.43602e-05
1.29231e-05
1.08325e-05
8.08024e-06
4.65787e-06
5.56627e-07
-4.23161e-06
-9.71304e-06
-1.5891e-05
-2.27655e-05
-3.03344e-05
-3.85936e-05
-4.75389e-05
-5.71654e-05
-6.74683e-05
-7.84424e-05
-9.00816e-05
-0.000102378
-0.000115324
-0.000128909
-0.000143121
-0.000157951
-0.000173385
-0.000189413
-0.000206023
-0.0002232
-0.000240933
-0.000259206
-0.000278004
-0.000297311
-0.000317112
-0.000337391
-0.000358131
-0.000379317
-0.000400934
-0.000422964
-0.00044539
-0.000468196
-0.000491362
-0.000514872
-0.000538706
-0.000562846
-0.000587275
-0.000611974
-0.000636925
-0.00066211
-0.00068751
-0.000713108
-0.000738886
-0.000764823
-0.000790901
-0.000817102
-0.000843405
-0.000869791
-0.000896242
-0.000922738
-0.000949261
-0.000975791
-0.00100231
-0.0010288
-0.00105524
-0.00108162
-0.00110791
-0.00113409
-0.00116015
-0.00118607
-0.00121183
-0.00123741
-0.00126279
-0.00128795
-0.00131287
-0.00133755
-0.00136195
-0.00138605
-0.00140985
-0.00143333
-0.00145645
-0.00147922
-0.0015016
-0.00152359
-0.00154516
-0.0015663
-0.00158699
-0.00160721
-0.00162695
-0.0016462
-0.00166494
-0.00168314
-0.00170081
-0.00171792
-0.00173445
-0.00175041
-0.00176576
-0.00178051
-0.00179464
-0.00180813
-0.00182099
-0.0018332
-0.00184475
-0.00185563
-0.00186584
-0.00187537
-0.00188421
-0.00189237
-0.00189984
-0.00190662
-0.0019127
-0.0019181
-0.00192281
-0.00192683
-0.00193017
-0.00193283
-0.00193483
-0.00193617
-0.00193687
-0.00193694
-0.0019364
-0.00193525
-0.00193352
-0.00193122
-0.00192837
-0.001925
-0.00192113
-0.00191678
-0.00191198
-0.00190674
-0.0019011
-0.00189508
-0.00188869
-0.00188195
-0.00187488
-0.00186749
-0.0018598
-0.00185184
-0.00184367
-0.00183453
-0.00182378