/*--------------------------------*- C++ -*----------------------------------*\
  =========                 |
  \\      /  F ield         | OpenFOAM: The Open Source CFD Toolbox
   \\    /   O peration     | Website:  https://openfoam.org
    \\  /    A nd           | Version:  7
     \\/     M anipulation  |
\*---------------------------------------------------------------------------*/
FoamFile
{
    version     2.0;
    format      ascii;
    class       surfaceScalarField;
    location    "0.4375";
    object      phi;
}
// * * * * * * * * * * * * * * * * * * * * * * * * * * * * * * * * * * * * * //

dimensions      [0 3 -1 0 0 0 0];

internalField   nonuniform List<scalar> 
101920
(
-9.10085e-14
1.95589e-13
-4.87743e-13
3.94092e-13
-9.324e-13
4.38342e-13
-1.28813e-12
3.70027e-13
-1.48646e-12
2.19203e-13
-1.50226e-12
1.89256e-14
-1.31904e-12
-1.97386e-13
-9.1845e-13
-4.12313e-13
-2.91326e-13
-6.25629e-13
5.57305e-13
-8.40473e-13
1.61552e-12
-1.05387e-12
2.87312e-12
-1.25926e-12
4.32271e-12
-1.4527e-12
5.95633e-12
-1.6344e-12
7.76355e-12
-1.80592e-12
9.73244e-12
-1.96769e-12
1.18512e-11
-2.11882e-12
1.41091e-11
-2.25847e-12
1.64954e-11
-2.38664e-12
1.9e-11
-2.50405e-12
2.16123e-11
-2.61149e-12
2.43221e-11
-2.7094e-12
2.71197e-11
-2.7979e-12
2.99959e-11
-2.87697e-12
3.29418e-11
-2.94675e-12
3.59491e-11
-3.00757e-12
3.90092e-11
-3.05991e-12
4.21139e-11
-3.10421e-12
4.5255e-11
-3.14084e-12
4.84251e-11
-3.17005e-12
5.16171e-11
-3.19215e-12
5.48242e-11
-3.20747e-12
5.80403e-11
-3.21634e-12
6.12591e-11
-3.21899e-12
6.44748e-11
-3.21565e-12
6.76817e-11
-3.20655e-12
7.08742e-11
-3.19202e-12
7.40471e-11
-3.17241e-12
7.71955e-11
-3.14803e-12
8.03146e-11
-3.11911e-12
8.34002e-11
-3.0858e-12
8.64482e-11
-3.04825e-12
8.94547e-11
-3.00663e-12
9.24162e-11
-2.96122e-12
9.53289e-11
-2.91227e-12
9.81894e-11
-2.86005e-12
1.00994e-10
-2.80475e-12
1.03741e-10
-2.74649e-12
1.06426e-10
-2.68539e-12
1.09048e-10
-2.62163e-12
1.11603e-10
-2.55539e-12
1.1409e-10
-2.48686e-12
1.16506e-10
-2.41616e-12
1.18849e-10
-2.34339e-12
1.21118e-10
-2.26864e-12
1.2331e-10
-2.19201e-12
1.25424e-10
-2.11368e-12
1.27458e-10
-2.0338e-12
1.2941e-10
-1.95253e-12
1.31281e-10
-1.86995e-12
1.33067e-10
-1.78614e-12
1.34768e-10
-1.70114e-12
1.36383e-10
-1.61502e-12
1.37911e-10
-1.52787e-12
1.39351e-10
-1.43981e-12
1.40702e-10
-1.35092e-12
1.41963e-10
-1.26129e-12
1.43134e-10
-1.17095e-12
1.44214e-10
-1.07996e-12
1.45202e-10
-9.8838e-13
1.46098e-10
-8.9627e-13
1.46902e-10
-8.03707e-13
1.47613e-10
-7.10747e-13
1.4823e-10
-6.17431e-13
1.48753e-10
-5.23792e-13
1.49183e-10
-4.29866e-13
1.49518e-10
-3.35696e-13
1.49759e-10
-2.41332e-13
1.49906e-10
-1.46831e-13
1.49958e-10
-5.22507e-14
1.49915e-10
4.23563e-14
1.49777e-10
1.36949e-13
1.49545e-10
2.31493e-13
1.49219e-10
3.25953e-13
1.48798e-10
4.2028e-13
1.48283e-10
5.14428e-13
1.47674e-10
6.08355e-13
1.46972e-10
7.02023e-13
1.46176e-10
7.95385e-13
1.45287e-10
8.88379e-13
1.44306e-10
9.80938e-13
1.43232e-10
1.07301e-12
1.42068e-10
1.16454e-12
1.40812e-10
1.25546e-12
1.39466e-10
1.3457e-12
1.3803e-10
1.43517e-12
1.36506e-10
1.52381e-12
1.34894e-10
1.61157e-12
1.33195e-10
1.69836e-12
1.31411e-10
1.78408e-12
1.29542e-10
1.86862e-12
1.2759e-10
1.9519e-12
1.25555e-10
2.03384e-12
1.2344e-10
2.11435e-12
1.21247e-10
2.19329e-12
1.18976e-10
2.27052e-12
1.1663e-10
2.34589e-12
1.1421e-10
2.4193e-12
1.11719e-10
2.49065e-12
1.09159e-10
2.55981e-12
1.06532e-10
2.62663e-12
1.0384e-10
2.69094e-12
1.01087e-10
2.75258e-12
9.82757e-11
2.81137e-12
9.54083e-11
2.86712e-12
9.24883e-11
2.91967e-12
8.95191e-11
2.96881e-12
8.65044e-11
3.01438e-12
8.34479e-11
3.05615e-12
8.03538e-11
3.0939e-12
7.72262e-11
3.12738e-12
7.40696e-11
3.15641e-12
7.08886e-11
3.18076e-12
6.76881e-11
3.20021e-12
6.44733e-11
3.21448e-12
6.12498e-11
3.22329e-12
5.80231e-11
3.22638e-12
5.47993e-11
3.22352e-12
5.15848e-11
3.21442e-12
4.83859e-11
3.19873e-12
4.52096e-11
3.17609e-12
4.20629e-11
3.14627e-12
3.89533e-11
3.10905e-12
3.58888e-11
3.06412e-12
3.28774e-11
3.01106e-12
2.99277e-11
2.94952e-12
2.70482e-11
2.87924e-12
2.4248e-11
2.79989e-12
2.15368e-11
2.71099e-12
1.89242e-11
2.61212e-12
1.64196e-11
2.50333e-12
1.40336e-11
2.3849e-12
1.17771e-11
2.25648e-12
9.66174e-12
2.11684e-12
7.69809e-12
1.96488e-12
5.89572e-12
1.8011e-12
4.26446e-12
1.62748e-12
2.81572e-12
1.44554e-12
1.56188e-12
1.25447e-12
5.13591e-13
1.0521e-12
-3.22513e-13
8.38345e-13
-9.43257e-13
6.17661e-13
-1.34669e-12
3.97171e-13
-1.53278e-12
1.8294e-13
-1.50883e-12
-2.03755e-14
-1.2961e-12
-2.05163e-13
-9.36366e-13
-3.55046e-13
-5.04984e-13
-4.37461e-13
-1.3307e-13
-3.92927e-13
-1.57675e-13
-3.43975e-13
5.42155e-13
-1.00371e-12
1.06101e-12
-1.69658e-12
1.10495e-12
-2.17752e-12
8.24538e-13
-2.27374e-12
3.19451e-13
-1.89192e-12
-3.40715e-13
-9.86106e-13
-1.09172e-12
4.75428e-13
-1.88027e-12
2.51526e-12
-2.67558e-12
5.13871e-12
-3.4655e-12
8.33326e-12
-4.24312e-12
1.20774e-11
-4.99925e-12
1.63485e-11
-5.72441e-12
2.11239e-11
-6.4128e-12
2.63787e-11
-7.06263e-12
3.20852e-11
-7.67381e-12
3.82141e-11
-8.24607e-12
4.47355e-11
-8.77872e-12
5.16204e-11
-9.27139e-12
5.88403e-11
-9.72447e-12
6.63671e-11
-1.0139e-11
7.41734e-11
-1.05163e-11
8.22324e-11
-1.08574e-11
9.05179e-11
-1.11631e-11
9.90047e-11
-1.14342e-11
1.07668e-10
-1.16717e-11
1.16485e-10
-1.18767e-11
1.25433e-10
-1.20508e-11
1.34487e-10
-1.21951e-11
1.43629e-10
-1.2311e-11
1.52836e-10
-1.23996e-11
1.6209e-10
-1.24618e-11
1.71373e-10
-1.24988e-11
1.80666e-10
-1.25117e-11
1.89953e-10
-1.25016e-11
1.99216e-10
-1.24694e-11
2.0844e-10
-1.24161e-11
2.17611e-10
-1.23428e-11
2.26714e-10
-1.22505e-11
2.35735e-10
-1.21401e-11
2.44661e-10
-1.20126e-11
2.53482e-10
-1.18688e-11
2.62185e-10
-1.17094e-11
2.70759e-10
-1.15351e-11
2.79194e-10
-1.13469e-11
2.8748e-10
-1.11456e-11
2.95607e-10
-1.09319e-11
3.03567e-10
-1.07066e-11
3.11351e-10
-1.04703e-11
3.18953e-10
-1.02234e-11
3.26363e-10
-9.96663e-12
3.33577e-10
-9.70054e-12
3.40586e-10
-9.42578e-12
3.47386e-10
-9.14292e-12
3.5397e-10
-8.85247e-12
3.60333e-10
-8.55488e-12
3.6647e-10
-8.25057e-12
3.72376e-10
-7.93999e-12
3.78048e-10
-7.6236e-12
3.8348e-10
-7.30183e-12
3.88669e-10
-6.97508e-12
3.93612e-10
-6.64369e-12
3.98305e-10
-6.308e-12
4.02745e-10
-5.96829e-12
4.0693e-10
-5.62488e-12
4.10857e-10
-5.27808e-12
4.14524e-10
-4.9282e-12
4.17928e-10
-4.57552e-12
4.21068e-10
-4.22027e-12
4.23942e-10
-3.86269e-12
4.26549e-10
-3.503e-12
4.28886e-10
-3.14141e-12
4.30953e-10
-2.77814e-12
4.32748e-10
-2.41338e-12
4.34271e-10
-2.04734e-12
4.35521e-10
-1.6802e-12
4.36497e-10
-1.31215e-12
4.37198e-10
-9.43381e-13
4.37624e-10
-5.74079e-13
4.37776e-10
-2.04427e-13
4.37652e-10
1.65392e-13
4.37253e-10
5.35198e-13
4.36579e-10
9.04823e-13
4.3563e-10
1.2741e-12
4.34406e-10
1.64286e-12
4.32909e-10
2.01089e-12
4.31139e-10
2.37801e-12
4.29096e-10
2.74403e-12
4.26782e-10
3.10876e-12
4.24197e-10
3.47199e-12
4.21344e-10
3.83348e-12
4.18224e-10
4.193e-12
4.14837e-10
4.5503e-12
4.11187e-10
4.90516e-12
4.07275e-10
5.2573e-12
4.03103e-10
5.60642e-12
3.98674e-10
5.95223e-12
3.93991e-10
6.29444e-12
3.89056e-10
6.63274e-12
3.83872e-10
6.96679e-12
3.78444e-10
7.29621e-12
3.72775e-10
7.62058e-12
3.66869e-10
7.93952e-12
3.6073e-10
8.25266e-12
3.54363e-10
8.55958e-12
3.47773e-10
8.85979e-12
3.40966e-10
9.15277e-12
3.33946e-10
9.43801e-12
3.26721e-10
9.71501e-12
3.19297e-10
9.98326e-12
3.11681e-10
1.02422e-11
3.0388e-10
1.04912e-11
2.95903e-10
1.07296e-11
2.87757e-10
1.09569e-11
2.79452e-10
1.11722e-11
2.70996e-10
1.13748e-11
2.624e-10
1.15641e-11
2.53675e-10
1.17392e-11
2.44831e-10
1.18995e-11
2.3588e-10
1.20441e-11
2.26835e-10
1.21721e-11
2.17709e-10
1.22827e-11
2.08514e-10
1.2375e-11
1.99266e-10
1.2448e-11
1.8998e-10
1.25007e-11
1.8067e-10
1.25323e-11
1.71355e-10
1.25415e-11
1.6205e-10
1.25276e-11
1.52775e-10
1.24894e-11
1.43548e-10
1.24258e-11
1.34388e-10
1.23356e-11
1.25316e-10
1.22177e-11
1.16353e-10
1.20709e-11
1.07522e-10
1.18943e-11
9.88461e-11
1.16867e-11
9.03483e-11
1.14468e-11
8.20535e-11
1.11734e-11
7.39871e-11
1.08656e-11
6.61755e-11
1.05223e-11
5.86461e-11
1.0142e-11
5.1426e-11
9.72345e-12
4.45427e-11
9.26646e-12
3.80246e-11
8.77138e-12
3.19017e-11
8.23783e-12
2.6204e-11
7.66418e-12
2.09598e-11
7.04895e-12
1.61946e-11
6.3933e-12
1.19332e-11
5.70157e-12
8.20107e-12
4.97874e-12
5.02283e-12
4.22764e-12
2.41717e-12
3.44996e-12
3.91586e-13
2.65177e-12
-1.05844e-12
1.84842e-12
-1.94907e-12
1.06436e-12
-2.3129e-12
3.30768e-13
-2.20932e-12
-3.13427e-13
-1.7351e-12
-8.1532e-13
-1.04272e-12
-1.09847e-12
-3.54186e-13
-1.04858e-12
-5.25767e-13
-4.20522e-13
9.61113e-13
-1.07435e-12
1.74653e-12
-1.63209e-12
1.6728e-12
-1.83085e-12
1.00079e-12
-1.45494e-12
-7.86275e-14
-3.56476e-13
-1.43639e-12
1.54451e-12
-2.97589e-12
4.28983e-12
-4.61594e-12
7.90464e-12
-6.29352e-12
1.24005e-11
-7.96788e-12
1.77709e-11
-9.61516e-12
2.39933e-11
-1.12189e-11
3.1036e-11
-1.27648e-11
3.8864e-11
-1.42413e-11
4.74403e-11
-1.56409e-11
5.6725e-11
-1.69596e-11
6.66756e-11
-1.81959e-11
7.72476e-11
-1.93492e-11
8.83964e-11
-2.04191e-11
1.00078e-10
-2.1406e-11
1.12249e-10
-2.23109e-11
1.24866e-10
-2.31353e-11
1.37889e-10
-2.38811e-11
1.51276e-10
-2.45504e-11
1.64987e-10
-2.51454e-11
1.78984e-10
-2.5668e-11
1.93228e-10
-2.61206e-11
2.07683e-10
-2.65056e-11
2.22314e-10
-2.68259e-11
2.37087e-10
-2.70838e-11
2.51969e-10
-2.72819e-11
2.66929e-10
-2.74224e-11
2.81938e-10
-2.75076e-11
2.96966e-10
-2.75397e-11
3.11986e-10
-2.75212e-11
3.26972e-10
-2.74542e-11
3.41898e-10
-2.7341e-11
3.56739e-10
-2.71838e-11
3.71473e-10
-2.69845e-11
3.86078e-10
-2.67452e-11
4.00533e-10
-2.64679e-11
4.14819e-10
-2.61545e-11
4.28917e-10
-2.58068e-11
4.42809e-10
-2.54264e-11
4.56477e-10
-2.50151e-11
4.69906e-10
-2.45746e-11
4.83081e-10
-2.41064e-11
4.95986e-10
-2.36123e-11
5.0861e-10
-2.30936e-11
5.20938e-10
-2.25516e-11
5.32958e-10
-2.19878e-11
5.44661e-10
-2.14032e-11
5.56034e-10
-2.07992e-11
5.67068e-10
-2.0177e-11
5.77754e-10
-1.95379e-11
5.88082e-10
-1.88828e-11
5.98045e-10
-1.82128e-11
6.07634e-10
-1.75289e-11
6.16842e-10
-1.68319e-11
6.25663e-10
-1.61228e-11
6.34091e-10
-1.54025e-11
6.42119e-10
-1.46717e-11
6.49742e-10
-1.39312e-11
6.56956e-10
-1.31818e-11
6.63755e-10
-1.24242e-11
6.70136e-10
-1.16589e-11
6.76094e-10
-1.08867e-11
6.81627e-10
-1.01081e-11
6.8673e-10
-9.32367e-12
6.91401e-10
-8.53399e-12
6.95637e-10
-7.73956e-12
6.99436e-10
-6.94087e-12
7.02796e-10
-6.1384e-12
7.05714e-10
-5.33258e-12
7.0819e-10
-4.52387e-12
7.10222e-10
-3.7127e-12
7.11809e-10
-2.8995e-12
7.1295e-10
-2.0847e-12
7.13644e-10
-1.2687e-12
7.1389e-10
-4.51913e-13
7.1369e-10
3.65268e-13
7.13041e-10
1.18245e-12
7.11946e-10
1.99922e-12
7.10404e-10
2.81521e-12
7.08416e-10
3.63e-12
7.05983e-10
4.44317e-12
7.03106e-10
5.25429e-12
6.99786e-10
6.06289e-12
6.96026e-10
6.86852e-12
6.91826e-10
7.67074e-12
6.8719e-10
8.46904e-12
6.8212e-10
9.2629e-12
6.76618e-10
1.00518e-11
6.70687e-10
1.08351e-11
6.64332e-10
1.16123e-11
6.57555e-10
1.23828e-11
6.50361e-10
1.31458e-11
6.42754e-10
1.39007e-11
6.34739e-10
1.46467e-11
6.26322e-10
1.53832e-11
6.17508e-10
1.61093e-11
6.08304e-10
1.68242e-11
5.98716e-10
1.7527e-11
5.88751e-10
1.82167e-11
5.78418e-10
1.88924e-11
5.67724e-10
1.95531e-11
5.56678e-10
2.01978e-11
5.4529e-10
2.08252e-11
5.3357e-10
2.14343e-11
5.21529e-10
2.20238e-11
5.09178e-10
2.25926e-11
4.9653e-10
2.31392e-11
4.83597e-10
2.36622e-11
4.70393e-10
2.41604e-11
4.56933e-10
2.4632e-11
4.43231e-10
2.50757e-11
4.29305e-10
2.54897e-11
4.15172e-10
2.58724e-11
4.00849e-10
2.6222e-11
3.86355e-10
2.6537e-11
3.71712e-10
2.68153e-11
3.56939e-10
2.70552e-11
3.42059e-10
2.72546e-11
3.27095e-10
2.74114e-11
3.12072e-10
2.75237e-11
2.97015e-10
2.75893e-11
2.8195e-10
2.76059e-11
2.66906e-10
2.75714e-11
2.51911e-10
2.74836e-11
2.36997e-10
2.73401e-11
2.22193e-10
2.71386e-11
2.07534e-10
2.68766e-11
1.93053e-10
2.65516e-11
1.78785e-10
2.61613e-11
1.64768e-10
2.57035e-11
1.51038e-10
2.51756e-11
1.37636e-10
2.45752e-11
1.24601e-10
2.39002e-11
1.11973e-10
2.31487e-11
9.97957e-11
2.23187e-11
8.81123e-11
2.14078e-11
7.69658e-11
2.04139e-11
6.6399e-11
1.93368e-11
5.64553e-11
1.81774e-11
4.71793e-11
1.69365e-11
3.86153e-11
1.56137e-11
3.08042e-11
1.42092e-11
2.37818e-11
1.2727e-11
1.75797e-11
1.11765e-11
1.22266e-11
9.57095e-12
7.74691e-12
7.92383e-12
4.15283e-12
6.25056e-12
1.43728e-12
4.57529e-12
-4.30086e-13
2.93831e-12
-1.50631e-12
1.3997e-12
-1.88253e-12
4.14955e-14
-1.69142e-12
-1.02934e-12
-1.11805e-12
-1.67615e-12
-4.18271e-13
-1.72498e-12
-9.44193e-13
-3.5888e-13
1.30042e-12
-8.12572e-13
2.21192e-12
-9.81084e-13
1.87076e-12
-6.02926e-13
6.30029e-13
5.37158e-13
-1.23415e-12
2.60743e-12
-3.5194e-12
5.71703e-12
-6.08186e-12
9.92368e-12
-8.81148e-12
1.52548e-11
-1.1619e-11
2.17208e-11
-1.44361e-11
2.93172e-11
-1.72156e-11
3.8023e-11
-1.9926e-11
4.78036e-11
-2.25445e-11
5.86167e-11
-2.50533e-11
7.0415e-11
-2.74392e-11
8.3148e-11
-2.96933e-11
9.67625e-11
-3.18106e-11
1.11203e-10
-3.37888e-11
1.26412e-10
-3.56273e-11
1.42333e-10
-3.73264e-11
1.58908e-10
-3.88872e-11
1.76083e-10
-4.03115e-11
1.93803e-10
-4.16018e-11
2.12013e-10
-4.27612e-11
2.30661e-10
-4.37931e-11
2.49695e-10
-4.47012e-11
2.69064e-10
-4.54893e-11
2.8872e-10
-4.61614e-11
3.08616e-10
-4.67215e-11
3.28706e-10
-4.71739e-11
3.48946e-10
-4.75226e-11
3.69295e-10
-4.77715e-11
3.89712e-10
-4.79246e-11
4.10158e-10
-4.79856e-11
4.30596e-10
-4.79584e-11
4.50989e-10
-4.7847e-11
4.71304e-10
-4.76552e-11
4.91507e-10
-4.73866e-11
5.11567e-10
-4.70448e-11
5.31455e-10
-4.66332e-11
5.51142e-10
-4.61551e-11
5.70601e-10
-4.56137e-11
5.89807e-10
-4.50121e-11
6.08734e-10
-4.43536e-11
6.27361e-10
-4.3641e-11
6.45663e-10
-4.28772e-11
6.63622e-10
-4.2065e-11
6.81216e-10
-4.12068e-11
6.98427e-10
-4.03055e-11
7.15239e-10
-3.93633e-11
7.31633e-10
-3.83826e-11
7.47596e-10
-3.73657e-11
7.63111e-10
-3.63146e-11
7.78165e-10
-3.52314e-11
7.92746e-10
-3.41182e-11
8.0684e-10
-3.29769e-11
8.20437e-10
-3.18092e-11
8.33525e-10
-3.0617e-11
8.46095e-10
-2.94018e-11
8.58138e-10
-2.81652e-11
8.69644e-10
-2.69086e-11
8.80606e-10
-2.56334e-11
8.91016e-10
-2.43412e-11
9.00867e-10
-2.30331e-11
9.10153e-10
-2.17103e-11
9.18868e-10
-2.03742e-11
9.27007e-10
-1.90256e-11
9.34564e-10
-1.76656e-11
9.41536e-10
-1.62954e-11
9.47917e-10
-1.49158e-11
9.53705e-10
-1.35277e-11
9.58896e-10
-1.2132e-11
9.63487e-10
-1.07297e-11
9.67475e-10
-9.32139e-12
9.70859e-10
-7.90799e-12
9.73636e-10
-6.49024e-12
9.75805e-10
-5.06888e-12
9.77364e-10
-3.64467e-12
9.78313e-10
-2.21833e-12
9.78651e-10
-7.90593e-13
9.78378e-10
6.37856e-13
9.77493e-10
2.06631e-12
9.75997e-10
3.49406e-12
9.73891e-10
4.92038e-12
9.71176e-10
6.34454e-12
9.67852e-10
7.76582e-12
9.63922e-10
9.18342e-12
9.59388e-10
1.05966e-11
9.54251e-10
1.20044e-11
9.48515e-10
1.34062e-11
9.42183e-10
1.48009e-11
9.35257e-10
1.61878e-11
9.27743e-10
1.75658e-11
9.19643e-10
1.89339e-11
9.10964e-10
2.02912e-11
9.0171e-10
2.16364e-11
8.91887e-10
2.29685e-11
8.81501e-10
2.42862e-11
8.70559e-10
2.55882e-11
8.59068e-10
2.68732e-11
8.47037e-10
2.81398e-11
8.34474e-10
2.93866e-11
8.21388e-10
3.0612e-11
8.0779e-10
3.18143e-11
7.9369e-10
3.2992e-11
7.791e-10
3.41431e-11
7.64031e-10
3.52659e-11
7.48497e-10
3.63583e-11
7.32512e-10
3.74185e-11
7.16091e-10
3.84442e-11
6.9925e-10
3.94333e-11
6.82005e-10
4.03835e-11
6.64374e-10
4.12924e-11
6.46377e-10
4.21573e-11
6.28033e-10
4.29759e-11
6.09362e-10
4.37453e-11
5.90389e-10
4.44629e-11
5.71135e-10
4.51256e-11
5.51626e-10
4.57305e-11
5.31888e-10
4.62746e-11
5.11948e-10
4.67547e-11
4.91835e-10
4.71676e-11
4.7158e-10
4.75098e-11
4.51213e-10
4.77779e-11
4.30768e-10
4.79683e-11
4.1028e-10
4.80774e-11
3.89784e-10
4.81015e-11
3.69318e-10
4.80367e-11
3.48923e-10
4.78791e-11
3.28637e-10
4.7625e-11
3.08505e-10
4.72704e-11
2.8857e-10
4.68113e-11
2.68877e-10
4.62435e-11
2.49475e-10
4.55631e-11
2.30412e-10
4.47662e-11
2.11738e-10
4.3849e-11
1.93506e-10
4.28075e-11
1.75768e-10
4.1638e-11
1.58578e-10
4.03374e-11
1.41991e-10
3.89033e-11
1.26065e-10
3.73331e-11
1.10856e-10
3.56239e-11
9.64208e-11
3.37739e-11
8.28147e-11
3.17833e-11
7.00916e-11
2.96554e-11
5.83061e-11
2.7394e-11
4.75114e-11
2.50032e-11
3.7755e-11
2.24885e-11
2.90754e-11
1.98612e-11
2.15022e-11
1.71419e-11
1.50571e-11
1.43591e-11
9.75166e-12
1.15474e-11
5.57906e-12
8.74969e-12
2.5046e-12
6.02505e-12
4.59299e-13
3.45867e-12
-6.6731e-13
1.17021e-12
-1.03176e-12
-6.79698e-13
-8.3994e-13
-1.88716e-12
-3.56237e-13
-2.20303e-12
-1.29685e-12
-2.08098e-13
1.49639e-12
-3.13441e-13
2.29828e-12
8.23369e-14
1.48723e-12
1.24277e-12
-5.09142e-13
3.36841e-12
-3.35414e-12
6.61933e-12
-6.77898e-12
1.11142e-11
-1.05834e-11
1.6925e-11
-1.46197e-11
2.40856e-11
-1.87733e-11
3.26052e-11
-2.29529e-11
4.24766e-11
-2.70887e-11
5.36779e-11
-3.11302e-11
6.61735e-11
-3.50415e-11
7.99169e-11
-3.87964e-11
9.4854e-11
-4.23752e-11
1.10926e-10
-4.57641e-11
1.28069e-10
-4.89538e-11
1.4622e-10
-5.19391e-11
1.6531e-10
-5.47176e-11
1.85272e-10
-5.72892e-11
2.06039e-10
-5.96548e-11
2.27544e-10
-6.18168e-11
2.49719e-10
-6.3778e-11
2.725e-10
-6.55426e-11
2.95822e-10
-6.71151e-11
3.19622e-10
-6.85009e-11
3.43839e-10
-6.97054e-11
3.68412e-10
-7.07343e-11
3.93284e-10
-7.15936e-11
4.18398e-10
-7.22891e-11
4.43702e-10
-7.28267e-11
4.69143e-10
-7.32123e-11
4.9467e-10
-7.34518e-11
5.20236e-10
-7.35509e-11
5.45794e-10
-7.35155e-11
5.71298e-10
-7.33513e-11
5.96708e-10
-7.30639e-11
6.2198e-10
-7.2659e-11
6.47077e-10
-7.21418e-11
6.71961e-10
-7.15175e-11
6.96597e-10
-7.07911e-11
7.20951e-10
-6.99676e-11
7.4499e-10
-6.90515e-11
7.68685e-10
-6.80477e-11
7.92005e-10
-6.69607e-11
8.14923e-10
-6.57949e-11
8.37412e-10
-6.45545e-11
8.59448e-10
-6.32433e-11
8.81007e-10
-6.18653e-11
9.02068e-10
-6.04242e-11
9.22609e-10
-5.89237e-11
9.4261e-10
-5.73671e-11
9.62053e-10
-5.57577e-11
9.80921e-10
-5.40988e-11
9.99196e-10
-5.23934e-11
1.01686e-09
-5.06444e-11
1.03391e-09
-4.88545e-11
1.05032e-09
-4.70265e-11
1.06608e-09
-4.51629e-11
1.08118e-09
-4.3266e-11
1.09561e-09
-4.13381e-11
1.10936e-09
-3.93815e-11
1.12242e-09
-3.73982e-11
1.13477e-09
-3.53902e-11
1.14642e-09
-3.33594e-11
1.15735e-09
-3.13076e-11
1.16757e-09
-2.92366e-11
1.17705e-09
-2.71479e-11
1.1858e-09
-2.50431e-11
1.1938e-09
-2.29237e-11
1.20107e-09
-2.0791e-11
1.20758e-09
-1.86466e-11
1.21334e-09
-1.64917e-11
1.21835e-09
-1.43276e-11
1.2226e-09
-1.21555e-11
1.22608e-09
-9.97666e-12
1.2288e-09
-7.79219e-12
1.23076e-09
-5.60326e-12
1.23195e-09
-3.411e-12
1.23238e-09
-1.21654e-12
1.23204e-09
9.79016e-13
1.23093e-09
3.17458e-12
1.22905e-09
5.36905e-12
1.22641e-09
7.56127e-12
1.223e-09
9.75012e-12
1.21883e-09
1.19344e-11
1.2139e-09
1.41129e-11
1.20822e-09
1.62845e-11
1.20177e-09
1.84478e-11
1.19458e-09
2.06016e-11
1.18663e-09
2.27445e-11
1.17794e-09
2.4875e-11
1.16852e-09
2.69917e-11
1.15836e-09
2.9093e-11
1.14747e-09
3.11773e-11
1.13586e-09
3.32428e-11
1.12354e-09
3.52879e-11
1.11052e-09
3.73106e-11
1.0968e-09
3.93089e-11
1.08239e-09
4.12808e-11
1.06731e-09
4.32241e-11
1.05155e-09
4.51366e-11
1.03515e-09
4.70158e-11
1.0181e-09
4.88594e-11
1.00043e-09
5.06646e-11
9.82145e-10
5.24288e-11
9.63261e-10
5.4149e-11
9.43796e-10
5.58224e-11
9.23768e-10
5.74458e-11
9.03196e-10
5.90159e-11
8.82099e-10
6.05294e-11
8.605e-10
6.19827e-11
8.38419e-10
6.33723e-11
8.15882e-10
6.46942e-11
7.92913e-10
6.59444e-11
7.69539e-10
6.7119e-11
7.45787e-10
6.82137e-11
7.21688e-10
6.9224e-11
6.97273e-10
7.01456e-11
6.72573e-10
7.09736e-11
6.47624e-10
7.17032e-11
6.22462e-10
7.23297e-11
5.97124e-10
7.28477e-11
5.71649e-10
7.32522e-11
5.4608e-10
7.35376e-11
5.20458e-10
7.36986e-11
4.9483e-10
7.37297e-11
4.69241e-10
7.3625e-11
4.43741e-10
7.33789e-11
4.18381e-10
7.29855e-11
3.93212e-10
7.24389e-11
3.68289e-10
7.17334e-11
3.43669e-10
7.0863e-11
3.1941e-10
6.98218e-11
2.95571e-10
6.8604e-11
2.72215e-10
6.72045e-11
2.49404e-10
6.56177e-11
2.27204e-10
6.38385e-11
2.0568e-10
6.18619e-11
1.84898e-10
5.96843e-11
1.64925e-10
5.73032e-11
1.4583e-10
5.47168e-11
1.27682e-10
5.19232e-11
1.10547e-10
4.89217e-11
9.44875e-11
4.57155e-11
7.95653e-11
4.23122e-11
6.58394e-11
3.87226e-11
5.33657e-11
3.49598e-11
4.21915e-11
3.10401e-11
3.23506e-11
2.69894e-11
2.38625e-11
2.2847e-11
1.67334e-11
1.86673e-11
1.09531e-11
1.4519e-11
6.48624e-12
1.04887e-11
3.26352e-12
6.68987e-12
1.17168e-12
3.27499e-12
4.6576e-14
4.48406e-13
-3.2795e-13
-1.52554e-12
-2.14724e-13
-2.3212e-12
-1.51072e-12
-1.28108e-14
1.51901e-12
3.44231e-13
1.91956e-12
1.43342e-12
3.85632e-13
3.51602e-12
-2.58284e-12
6.78087e-12
-6.60447e-12
1.13701e-11
-1.1364e-11
1.73933e-11
-1.66111e-11
2.49253e-11
-2.21554e-11
3.40053e-11
-2.78523e-11
4.46434e-11
-3.35884e-11
5.68294e-11
-3.92741e-11
7.05382e-11
-4.48406e-11
8.57316e-11
-5.02368e-11
1.0236e-10
-5.54253e-11
1.20364e-10
-6.03787e-11
1.39679e-10
-6.50773e-11
1.60233e-10
-6.95074e-11
1.81955e-10
-7.36603e-11
2.04768e-10
-7.75312e-11
2.28596e-10
-8.11183e-11
2.53362e-10
-8.44221e-11
2.7899e-10
-8.7445e-11
3.05402e-10
-9.01908e-11
3.32523e-10
-9.26641e-11
3.60279e-10
-9.4871e-11
3.88597e-10
-9.6818e-11
4.17405e-10
-9.85125e-11
4.46633e-10
-9.9962e-11
4.76213e-10
-1.01174e-10
5.06081e-10
-1.02157e-10
5.36173e-10
-1.02919e-10
5.66427e-10
-1.03467e-10
5.96786e-10
-1.0381e-10
6.27192e-10
-1.03956e-10
6.5759e-10
-1.03912e-10
6.87926e-10
-1.03687e-10
7.18151e-10
-1.03289e-10
7.48216e-10
-1.02724e-10
7.78075e-10
-1.02001e-10
8.07683e-10
-1.01126e-10
8.36999e-10
-1.00107e-10
8.65983e-10
-9.89508e-11
8.94595e-10
-9.76634e-11
9.22799e-10
-9.62516e-11
9.50561e-10
-9.47218e-11
9.77846e-10
-9.30802e-11
1.00462e-09
-9.13325e-11
1.03086e-09
-8.94845e-11
1.05654e-09
-8.75416e-11
1.08162e-09
-8.55089e-11
1.10609e-09
-8.33915e-11
1.12992e-09
-8.11943e-11
1.15308e-09
-7.89221e-11
1.17556e-09
-7.65792e-11
1.19734e-09
-7.41701e-11
1.2184e-09
-7.16987e-11
1.23871e-09
-6.91691e-11
1.25827e-09
-6.6585e-11
1.27706e-09
-6.39499e-11
1.29506e-09
-6.12673e-11
1.31226e-09
-5.85405e-11
1.32865e-09
-5.57725e-11
1.34422e-09
-5.29663e-11
1.35895e-09
-5.01248e-11
1.37284e-09
-4.72506e-11
1.38588e-09
-4.43463e-11
1.39806e-09
-4.14144e-11
1.40937e-09
-3.84571e-11
1.4198e-09
-3.54767e-11
1.42935e-09
-3.24754e-11
1.43802e-09
-2.94552e-11
1.44579e-09
-2.6418e-11
1.45266e-09
-2.33658e-11
1.45864e-09
-2.03003e-11
1.4637e-09
-1.72234e-11
1.46786e-09
-1.41367e-11
1.47111e-09
-1.1042e-11
1.47345e-09
-7.94093e-12
1.47487e-09
-4.83506e-12
1.47538e-09
-1.72601e-12
1.47497e-09
1.38463e-12
1.47365e-09
4.49526e-12
1.47142e-09
7.60429e-12
1.46827e-09
1.07101e-11
1.46421e-09
1.3811e-11
1.45923e-09
1.69054e-11
1.45335e-09
1.99915e-11
1.44657e-09
2.30675e-11
1.43889e-09
2.61317e-11
1.4303e-09
2.91822e-11
1.42083e-09
3.2217e-11
1.41047e-09
3.5234e-11
1.39923e-09
3.82312e-11
1.38712e-09
4.12063e-11
1.37414e-09
4.4157e-11
1.3603e-09
4.70808e-11
1.34561e-09
4.99752e-11
1.33008e-09
5.28376e-11
1.31373e-09
5.56651e-11
1.29655e-09
5.84548e-11
1.27857e-09
6.12036e-11
1.2598e-09
6.39082e-11
1.24025e-09
6.65655e-11
1.21994e-09
6.91717e-11
1.19888e-09
7.17232e-11
1.17709e-09
7.42162e-11
1.15459e-09
7.66465e-11
1.1314e-09
7.901e-11
1.10755e-09
8.13022e-11
1.08304e-09
8.35186e-11
1.05792e-09
8.56544e-11
1.0322e-09
8.77046e-11
1.0059e-09
8.96642e-11
9.7907e-10
9.15275e-11
9.51724e-10
9.32893e-11
9.23899e-10
9.49435e-11
8.95628e-10
9.64844e-11
8.66946e-10
9.79058e-11
8.3789e-10
9.92013e-11
8.08498e-10
1.00364e-10
7.78813e-10
1.01388e-10
7.48876e-10
1.02266e-10
7.18733e-10
1.02991e-10
6.8843e-10
1.03555e-10
6.58015e-10
1.03952e-10
6.27541e-10
1.04172e-10
5.9706e-10
1.0421e-10
5.66628e-10
1.04057e-10
5.36301e-10
1.03705e-10
5.06141e-10
1.03146e-10
4.76207e-10
1.02372e-10
4.46564e-10
1.01376e-10
4.17279e-10
1.00148e-10
3.88419e-10
9.86817e-11
3.60053e-10
9.6969e-11
3.32254e-10
9.50025e-11
3.05095e-10
9.27758e-11
2.7865e-10
9.02825e-11
2.52996e-10
8.75161e-11
2.2821e-10
8.44715e-11
2.04367e-10
8.11452e-11
1.81545e-10
7.75362e-11
1.59821e-10
7.36447e-11
1.39271e-10
6.9472e-11
1.19969e-10
6.50214e-11
1.01981e-10
6.03019e-11
8.53713e-11
5.53293e-11
7.01984e-11
5.0126e-11
5.65149e-11
4.472e-11
4.43612e-11
3.91464e-11
3.37605e-11
3.34542e-11
2.4717e-11
2.77126e-11
1.7216e-11
2.20137e-11
1.12204e-11
1.64745e-11
6.66392e-12
1.12422e-11
3.44136e-12
6.50382e-12
1.39865e-12
2.50139e-12
3.25686e-13
-4.53491e-13
-2.85132e-14
-1.97098e-12
-1.54068e-12
1.94747e-13
1.34224e-12
1.08958e-12
1.02378e-12
2.97103e-12
-1.51135e-12
6.07703e-12
-5.69549e-12
1.05842e-11
-1.1105e-11
1.66199e-11
-1.73908e-11
2.42772e-11
-2.42662e-11
3.36222e-11
-3.15032e-11
4.46923e-11
-3.89251e-11
5.74976e-11
-4.63942e-11
7.20259e-11
-5.3802e-11
8.82483e-11
-6.10631e-11
1.06123e-10
-6.81117e-11
1.25595e-10
-7.48982e-11
1.46603e-10
-8.13859e-11
1.69075e-10
-8.75484e-11
1.92935e-10
-9.33667e-11
2.18104e-10
-9.88284e-11
2.44498e-10
-1.03926e-10
2.72033e-10
-1.08655e-10
3.00625e-10
-1.13015e-10
3.30188e-10
-1.17009e-10
3.60637e-10
-1.20641e-10
3.91889e-10
-1.23915e-10
4.23859e-10
-1.2684e-10
4.56465e-10
-1.29423e-10
4.89627e-10
-1.31674e-10
5.23266e-10
-1.33601e-10
5.57307e-10
-1.35215e-10
5.91674e-10
-1.36526e-10
6.26297e-10
-1.37543e-10
6.61107e-10
-1.38277e-10
6.96035e-10
-1.38738e-10
7.31017e-10
-1.38937e-10
7.65991e-10
-1.38885e-10
8.00895e-10
-1.38591e-10
8.35673e-10
-1.38066e-10
8.70268e-10
-1.3732e-10
9.04628e-10
-1.36361e-10
9.38703e-10
-1.35201e-10
9.72443e-10
-1.33848e-10
1.0058e-09
-1.3231e-10
1.03874e-09
-1.30598e-10
1.07121e-09
-1.28719e-10
1.10317e-09
-1.26683e-10
1.13458e-09
-1.24496e-10
1.16542e-09
-1.22167e-10
1.19563e-09
-1.19703e-10
1.2252e-09
-1.17112e-10
1.2541e-09
-1.144e-10
1.28228e-09
-1.11575e-10
1.30973e-09
-1.08642e-10
1.33641e-09
-1.05608e-10
1.36231e-09
-1.02479e-10
1.3874e-09
-9.92614e-11
1.41166e-09
-9.59595e-11
1.43507e-09
-9.25792e-11
1.45762e-09
-8.91253e-11
1.47927e-09
-8.56027e-11
1.50002e-09
-8.20159e-11
1.51985e-09
-7.83694e-11
1.53874e-09
-7.46673e-11
1.55669e-09
-7.09136e-11
1.57368e-09
-6.71121e-11
1.58969e-09
-6.32665e-11
1.60472e-09
-5.93801e-11
1.61877e-09
-5.54563e-11
1.63181e-09
-5.14981e-11
1.64384e-09
-4.75087e-11
1.65485e-09
-4.34909e-11
1.66485e-09
-3.94475e-11
1.67381e-09
-3.53812e-11
1.68174e-09
-3.12944e-11
1.68863e-09
-2.71897e-11
1.69447e-09
-2.30694e-11
1.69927e-09
-1.8936e-11
1.70302e-09
-1.47917e-11
1.70572e-09
-1.06386e-11
1.70736e-09
-6.47915e-12
1.70795e-09
-2.31533e-12
1.70748e-09
1.85063e-12
1.70596e-09
6.01657e-12
1.70338e-09
1.01803e-11
1.69975e-09
1.43397e-11
1.69507e-09
1.84924e-11
1.68934e-09
2.26362e-11
1.68256e-09
2.67688e-11
1.67474e-09
3.08877e-11
1.66588e-09
3.49906e-11
1.65599e-09
3.90748e-11
1.64507e-09
4.31378e-11
1.63312e-09
4.71767e-11
1.62016e-09
5.11886e-11
1.6062e-09
5.51706e-11
1.59124e-09
5.91196e-11
1.57528e-09
6.30322e-11
1.55835e-09
6.69051e-11
1.54046e-09
7.07345e-11
1.5216e-09
7.45169e-11
1.50181e-09
7.82481e-11
1.48109e-09
8.19242e-11
1.45946e-09
8.55407e-11
1.43693e-09
8.90931e-11
1.41352e-09
9.25768e-11
1.38926e-09
9.59866e-11
1.36416e-09
9.93176e-11
1.33824e-09
1.02564e-10
1.31153e-09
1.05721e-10
1.28405e-09
1.08782e-10
1.25582e-09
1.1174e-10
1.22689e-09
1.14591e-10
1.19727e-09
1.17326e-10
1.16699e-09
1.1994e-10
1.13609e-09
1.22424e-10
1.10461e-09
1.24772e-10
1.07257e-09
1.26977e-10
1.04003e-09
1.29029e-10
1.00701e-09
1.30921e-10
9.73571e-10
1.32644e-10
9.39744e-10
1.34191e-10
9.05581e-10
1.35551e-10
8.71131e-10
1.36716e-10
8.36445e-10
1.37677e-10
8.01576e-10
1.38423e-10
7.66581e-10
1.38946e-10
7.31519e-10
1.39235e-10
6.96449e-10
1.3928e-10
6.61435e-10
1.39071e-10
6.26541e-10
1.38598e-10
5.91837e-10
1.3785e-10
5.57392e-10
1.36817e-10
5.23278e-10
1.35489e-10
4.8957e-10
1.33856e-10
4.56345e-10
1.31907e-10
4.23681e-10
1.29632e-10
3.9166e-10
1.27024e-10
3.60362e-10
1.24072e-10
3.29872e-10
1.20771e-10
3.00275e-10
1.17112e-10
2.71655e-10
1.13091e-10
2.441e-10
1.08702e-10
2.17693e-10
1.03943e-10
1.92518e-10
9.88175e-11
1.68657e-10
9.33291e-11
1.46193e-10
8.74855e-11
1.252e-10
8.1298e-11
1.05747e-10
7.47853e-11
8.78948e-11
6.79764e-11
7.16976e-11
6.09112e-11
5.71993e-11
5.36397e-11
4.44295e-11
4.62251e-11
3.3397e-11
3.87501e-11
2.40881e-11
3.13249e-11
1.64657e-11
2.40924e-11
1.04671e-11
1.72327e-11
5.9981e-12
1.0969e-11
2.92495e-12
5.57974e-12
1.06084e-12
1.41449e-12
1.79405e-13
-1.08982e-12
-1.36254e-12
4.04159e-13
9.44476e-13
1.87202e-12
-4.303e-13
4.61167e-12
-4.25251e-12
8.81498e-12
-9.9073e-12
1.46363e-11
-1.69294e-11
2.21887e-11
-2.49393e-11
3.15502e-11
-3.36233e-11
4.27723e-11
-4.27249e-11
5.58838e-11
-5.2039e-11
7.08906e-11
-6.14034e-11
8.77774e-11
-7.06898e-11
1.06512e-10
-7.97972e-11
1.27046e-10
-8.8646e-11
1.49324e-10
-9.71748e-11
1.73276e-10
-1.05337e-10
1.98827e-10
-1.13099e-10
2.25897e-10
-1.20436e-10
2.54399e-10
-1.2733e-10
2.84244e-10
-1.33772e-10
3.15343e-10
-1.39754e-10
3.47602e-10
-1.45276e-10
3.8093e-10
-1.50338e-10
4.15233e-10
-1.54945e-10
4.50421e-10
-1.59102e-10
4.86401e-10
-1.6282e-10
5.23084e-10
-1.66105e-10
5.6038e-10
-1.6897e-10
5.98205e-10
-1.71426e-10
6.36474e-10
-1.73484e-10
6.75105e-10
-1.75157e-10
7.14019e-10
-1.76457e-10
7.5314e-10
-1.77397e-10
7.92391e-10
-1.77989e-10
8.31702e-10
-1.78248e-10
8.71003e-10
-1.78185e-10
9.10226e-10
-1.77814e-10
9.49307e-10
-1.77147e-10
9.88184e-10
-1.76197e-10
1.0268e-09
-1.74976e-10
1.06509e-09
-1.73496e-10
1.10301e-09
-1.71769e-10
1.14051e-09
-1.69806e-10
1.17753e-09
-1.67618e-10
1.21403e-09
-1.65216e-10
1.24996e-09
-1.62612e-10
1.28527e-09
-1.59814e-10
1.31994e-09
-1.56834e-10
1.35392e-09
-1.5368e-10
1.38717e-09
-1.50362e-10
1.41966e-09
-1.46889e-10
1.45135e-09
-1.4327e-10
1.48222e-09
-1.39512e-10
1.51224e-09
-1.35623e-10
1.54137e-09
-1.31613e-10
1.56959e-09
-1.27487e-10
1.59689e-09
-1.23252e-10
1.62322e-09
-1.18916e-10
1.64858e-09
-1.14486e-10
1.67295e-09
-1.09966e-10
1.6963e-09
-1.05363e-10
1.71861e-09
-1.00683e-10
1.73987e-09
-9.59307e-11
1.76007e-09
-9.11118e-11
1.77919e-09
-8.6231e-11
1.79721e-09
-8.12928e-11
1.81414e-09
-7.63018e-11
1.82994e-09
-7.12623e-11
1.84462e-09
-6.61782e-11
1.85817e-09
-6.10536e-11
1.87057e-09
-5.58921e-11
1.88182e-09
-5.06973e-11
1.89191e-09
-4.54727e-11
1.90084e-09
-4.02216e-11
1.90859e-09
-3.49472e-11
1.91518e-09
-2.96526e-11
1.92058e-09
-2.43409e-11
1.9248e-09
-1.9015e-11
1.92784e-09
-1.36778e-11
1.92969e-09
-8.33222e-12
1.93036e-09
-2.98101e-12
1.92983e-09
2.37299e-12
1.92812e-09
7.72697e-12
1.92523e-09
1.30781e-11
1.92114e-09
1.84234e-11
1.91587e-09
2.37602e-11
1.90942e-09
2.90853e-11
1.90179e-09
3.43958e-11