/*--------------------------------*- C++ -*----------------------------------*\
  =========                 |
  \\      /  F ield         | OpenFOAM: The Open Source CFD Toolbox
   \\    /   O peration     | Website:  https://openfoam.org
    \\  /    A nd           | Version:  7
     \\/     M anipulation  |
\*---------------------------------------------------------------------------*/
FoamFile
{
    version     2.0;
    format      ascii;
    class       volScalarField;
    location    "0.2";
    object      p;
}
// * * * * * * * * * * * * * * * * * * * * * * * * * * * * * * * * * * * * * //

dimensions      [0 2 -2 0 0 0 0];

internalField   nonuniform List<scalar> 
12800
(
1.28582e-06
2.79342e-05
-1.02535e-05
-0.000124088
-0.000304786
-0.000541601
-0.000823211
-0.00113867
-0.00147811
-0.00183289
-0.00219563
-0.00256009
-0.00292106
-0.00327422
-0.00361605
-0.00394376
-0.00425512
-0.00454846
-0.00482256
-0.00507653
-0.00530983
-0.00552217
-0.00571349
-0.00588388
-0.00603358
-0.00616294
-0.00627235
-0.00636227
-0.00643319
-0.00648562
-0.00652004
-0.00653694
-0.00653674
-0.00651988
-0.00648674
-0.00643764
-0.00637286
-0.00629264
-0.00619715
-0.00608655
-0.00596092
-0.00582032
-0.00566471
-0.00549405
-0.00530823
-0.0051071
-0.00489047
-0.0046581
-0.00440966
-0.00414484
-0.00386325
-0.00356448
-0.00324807
-0.00291351
-0.00256026
-0.00218773
-0.00179527
-0.00138221
-0.00094782
-0.000491332
-1.19407e-05
0.000491207
0.00101901
0.00157243
0.00215244
0.00276011
0.00339652
0.00406281
0.00476015
0.00548978
0.00625296
0.00705103
0.00788535
0.00875735
0.00966848
0.0106202
0.0116141
0.0126517
0.0137345
0.0148643
0.0160426
0.017271
0.0185513
0.019885
0.0212738
0.0227193
0.024223
0.0257865
0.0274114
0.0290989
0.0308503
0.032667
0.03455
0.0365002
0.0385183
0.040605
0.0427607
0.0449855
0.0472792
0.0496416
0.0520719
0.054569
0.0571316
0.0597579
0.0624456
0.0651921
0.0679943
0.0708486
0.0737509
0.0766965
0.0796804
0.0826969
0.0857396
0.0888017
0.0918761
0.0949548
0.0980296
0.101091
0.104131
0.107139
0.110106
0.11302
0.115872
0.118651
0.121346
0.123947
0.126443
0.128824
0.131081
0.133204
0.135184
0.137014
0.138686
0.140195
0.141536
0.142703
0.143696
0.144513
0.145153
0.145619
0.145914
0.146042
0.146011
0.145827
0.145502
0.145046
0.144472
0.143795
0.143032
0.142201
0.141324
0.140422
0.139523
0.138654
0.137847
0.137137
0.136564
0.136165
0.135982
0.136004
-2.32125e-05
2.71653e-06
-3.63147e-05
-0.000140023
-0.000298715
-0.00050498
-0.00075069
-0.00102733
-0.00132688
-0.00164199
-0.00196622
-0.00229396
-0.00262039
-0.00294147
-0.00325383
-0.0035547
-0.00384184
-0.0041135
-0.00436832
-0.00460532
-0.00482381
-0.00502334
-0.00520366
-0.00536474
-0.00550663
-0.00562952
-0.00573366
-0.00581936
-0.00588697
-0.00593686
-0.00596942
-0.00598499
-0.00598393
-0.00596655
-0.00593317
-0.00588403
-0.00581934
-0.00573926
-0.00564394
-0.00553345
-0.00540785
-0.00526716
-0.00511132
-0.00494024
-0.00475381
-0.00455184
-0.00433411
-0.00410037
-0.00385031
-0.00358356
-0.00329976
-0.00299848
-0.00267926
-0.00234159
-0.00198492
-0.00160867
-0.00121221
-0.000794843
-0.000355872
0.000105461
0.000589946
0.00109842
0.00163176
0.00219089
0.0027768
0.0033905
0.00403305
0.00470554
0.0054091
0.00614493
0.00691426
0.00771835
0.00855853
0.00943615
0.0103526
0.0113093
0.0123077
0.0133493
0.0144355
0.015568
0.0167482
0.0179776
0.0192579
0.0205906
0.0219771
0.0234189
0.0249176
0.0264745
0.028091
0.0297683
0.0315077
0.0333102
0.0351767
0.0371081
0.0391049
0.0411677
0.0432967
0.0454919
0.0477532
0.05008
0.0524715
0.0549266
0.0574439
0.0600214
0.062657
0.065348
0.0680913
0.0708834
0.0737202
0.0765971
0.0795092
0.0824509
0.0854162
0.0883985
0.0913908
0.0943856
0.0973748
0.10035
0.103303
0.106223
0.109102
0.11193
0.114697
0.117392
0.120007
0.122531
0.124954
0.127266
0.12946
0.131526
0.133455
0.135242
0.136879
0.138361
0.139683
0.140842
0.141836
0.142663
0.143326
0.143824
0.144162
0.144344
0.144377
0.144268
0.144028
0.143666
0.143196
0.142632
0.141989
0.141285
0.14054
0.139774
0.139011
0.138275
0.137594
0.136997
0.136513
0.13617
0.136003
0.136026
1.58087e-05
4.22042e-05
2.84518e-06
-9.56472e-05
-0.000241975
-0.000429899
-0.000652864
-0.000903828
-0.00117601
-0.00146311
-0.00175945
-0.00206001
-0.00236039
-0.00265685
-0.00294621
-0.00322582
-0.00349351
-0.00374751
-0.00398643
-0.00420923
-0.00441514
-0.00460363
-0.00477436
-0.00492715
-0.00506197
-0.00517889
-0.00527805
-0.00535966
-0.00542396
-0.00547123
-0.00550174
-0.00551578
-0.00551361
-0.00549547
-0.00546159
-0.00541216
-0.00534734
-0.00526725
-0.00517196
-0.00506153
-0.00493596
-0.00479522
-0.00463926
-0.00446796
-0.00428117
-0.00407868
-0.00386027
-0.00362565
-0.00337451
-0.00310648
-0.00282119
-0.00251819
-0.00219703
-0.0018572
-0.00149815
-0.0011193
-0.000720011
-0.000299621
0.000142578
0.000607326
0.0010954
0.00160762
0.00214485
0.00270799
0.00329801
0.00391589
0.00456266
0.00523938
0.00594715
0.00668713
0.00746049
0.00826848
0.00911237
0.00999345
0.0109131
0.0118725
0.0128733
0.0139168
0.0150043
0.0161375
0.0173177
0.0185464
0.019825
0.021155
0.0225379
0.0239749
0.0254676
0.0270172
0.0286249
0.0302919
0.0320194
0.0338083
0.0356593
0.0375733
0.0395508
0.0415921
0.0436974
0.0458668
0.0480998
0.050396
0.0527544
0.0551739
0.0576531
0.0601899
0.0627823
0.0654275
0.0681226
0.0708639
0.0736475
0.0764691
0.0793236
0.0822057
0.0851096
0.0880288
0.0909566
0.0938856
0.0968083
0.0997164
0.102601
0.105455
0.108267
0.111029
0.113731
0.116364
0.118918
0.121384
0.123753
0.126015
0.128161
0.130185
0.132078
0.133833
0.135444
0.136907
0.138217
0.139371
0.140367
0.141204
0.141884
0.142407
0.142778
0.143001
0.143083
0.143031
0.142854
0.142562
0.142169
0.141687
0.141132
0.14052
0.139868
0.139197
0.138527
0.13788
0.13728
0.136751
0.136317
0.136001
0.135836
0.135844
0.000130766
0.000146674
0.000101047
1.73836e-06
-0.000140193
-0.000318951
-0.00052877
-0.000763562
-0.00101745
-0.00128496
-0.0015611
-0.00184137
-0.0021218
-0.00239897
-0.00266995
-0.00293224
-0.0031838
-0.00342291
-0.00364822
-0.00385868
-0.00405349
-0.00423209
-0.00439407
-0.0045392
-0.00466737
-0.00477857
-0.00487286
-0.00495038
-0.00501129
-0.00505579
-0.00508408
-0.00509638
-0.00509288
-0.00507377
-0.0050392
-0.00498931
-0.00492422
-0.00484398
-0.00474866
-0.00463825
-0.00451273
-0.00437203
-0.00421607
-0.00404472
-0.00385781
-0.0036551
-0.00343636
-0.00320127
-0.00294951
-0.00268072
-0.00239451
-0.00209044
-0.00176805
-0.00142682
-0.00106621
-0.000685628
-0.00028446
0.000137962
0.000582331
0.00104938
0.00153986
0.00205459
0.00259442
0.00316023
0.00375295
0.00437355
0.00502303
0.00570242
0.00641279
0.00715526
0.00793098
0.00874114
0.00958697
0.0104697
0.0113907
0.0123512
0.0133525
0.014396
0.0154831
0.0166152
0.0177936
0.0190198
0.0202952
0.021621
0.0229988
0.0244297
0.0259151
0.0274563
0.0290544
0.0307105
0.0324255
0.0342005
0.0360362
0.0379332
0.039892
0.0419128
0.043996
0.0461412
0.0483483
0.0506166
0.0529452
0.0553329
0.0577783
0.0602795
0.0628342
0.0654399
0.0680935
0.0707916
0.0735303
0.0763053
0.0791119
0.0819446
0.0847979
0.0876656
0.090541
0.093417
0.0962863
0.0991409
0.101973
0.104773
0.107533
0.110244
0.112896
0.115481
0.117989
0.120411
0.122739
0.124963
0.127075
0.129068
0.130934
0.132666
0.13426
0.13571
0.137012
0.138164
0.139163
0.140009
0.140703
0.141247
0.141644
0.141899
0.142018
0.142009
0.14188
0.141642
0.141306
0.140885
0.140393
0.139846
0.13926
0.138654
0.138045
0.137454
0.136902
0.136409
0.135995
0.135681
0.135493
0.13545
0.000314118
0.000307172
0.000247627
0.000141745
-1.5258e-06
-0.000176886
-0.000379225
-0.000603275
-0.000843967
-0.00109656
-0.00135666
-0.00162034
-0.00188406
-0.00214473
-0.00239967
-0.00264661
-0.00288363
-0.00310914
-0.00332186
-0.00352075
-0.00370503
-0.00387412
-0.0040276
-0.0041652
-0.00428675
-0.00439218
-0.00448151
-0.00455481
-0.00461217
-0.00465372
-0.00467961
-0.00468998
-0.00468498
-0.00466473
-0.00462935
-0.0045789
-0.00451345
-0.00443304
-0.00433766
-0.00422729
-0.00410188
-0.00396132
-0.0038055
-0.00363426
-0.00344741
-0.00324472
-0.0030259
-0.00279064
-0.00253862
-0.00226944
-0.00198272
-0.00167802
-0.00135487
-0.00101275
-0.000651118
-0.000269398
0.000133034
0.000556833
0.00100268
0.00147129
0.00196342
0.00247986
0.00302143
0.00358902
0.00418352
0.00480588
0.00545706
0.00613808
0.00684996
0.00759379
0.0083707
0.00918182
0.0100284
0.0109115
0.0118325
0.0127926
0.0137931
0.0148352
0.0159204
0.01705
0.0182252
0.0194474
0.020718
0.0220382
0.0234094
0.0248328
0.0263095
0.0278409
0.029428
0.0310719
0.0327734
0.0345335
0.0363528
0.0382319
0.0401712
0.0421711
0.0442317
0.0463527
0.0485338
0.0507745
0.0530738
0.0554306
0.0578433
0.0603102
0.062829
0.0653972
0.0680119
0.0706697
0.0733668
0.076099
0.0788616
0.0816494
0.0844571
0.0872785
0.0901072
0.0929364
0.0957587
0.0985666
0.101352
0.104107
0.106822
0.109489
0.1121
0.114644
0.117114
0.1195
0.121794
0.123987
0.126072
0.12804
0.129886
0.131601
0.133182
0.134623
0.13592
0.137072
0.138075
0.13893
0.139638
0.1402
0.14062
0.140903
0.141054
0.141081
0.140992
0.140797
0.140508
0.140136
0.139695
0.139199
0.138663
0.138105
0.13754
0.136987
0.136463
0.135986
0.135574
0.135243
0.135011
0.134886
0.000556285
0.000517075
0.000436911
0.000319117
0.000169262
-7.88583e-06
-0.000207782
-0.000425937
-0.000658021
-0.00089994
-0.00114791
-0.00139848
-0.00164856
-0.00189541
-0.00213665
-0.00237022
-0.00259437
-0.00280766
-0.0030089
-0.00319712
-0.00337157
-0.00353169
-0.00367706
-0.00380738
-0.00392247
-0.00402222
-0.00410661
-0.00417565
-0.00422939
-0.00426791
-0.0042913
-0.00429965
-0.00429306
-0.00427159
-0.00423531
-0.00418425
-0.00411843
-0.00403783
-0.00394243
-0.00383215
-0.00370692
-0.00356661
-0.00341108
-0.00324014
-0.00305358
-0.00285114
-0.00263252
-0.00239742
-0.00214546
-0.00187629
-0.00158947
-0.00128459
-0.000961158
-0.000618665
-0.00025657
0.000125706
0.000528778
0.000953291
0.00139992
0.00186936
0.00236236
0.00287969
0.00342216
0.00399063
0.00458598
0.00520912
0.00586099
0.00654257
0.00725487
0.00799893
0.00877584
0.00958672
0.0104327
0.0113149
0.0122346
0.013193
0.0141912
0.0152306
0.0163125
0.017438
0.0186086
0.0198254
0.0210897
0.0224028
0.0237659
0.0251803
0.026647
0.0281673
0.0297421
0.0313725
0.0330593
0.0348033
0.0366053
0.0384657
0.0403849
0.0423633
0.0444009
0.0464975
0.0486528
0.0508662
0.0531367
0.0554633
0.0578445
0.0602785
0.0627632
0.065296
0.0678743
0.0704945
0.0731532
0.0758461
0.0785687
0.0813162
0.084083
0.0868633
0.0896509
0.092439
0.0952207
0.0979884
0.100734
0.103451
0.106129
0.10876
0.111336
0.113848
0.116287
0.118645
0.120912
0.123082
0.125146
0.127096
0.128927
0.130631
0.132203
0.133639
0.134935
0.136088
0.137098
0.137962
0.138683
0.139262
0.139702
0.140009
0.140187
0.140244
0.140188
0.140028
0.139776
0.139442
0.139039
0.138581
0.138082
0.137557
0.13702
0.136488
0.135976
0.135499
0.135072
0.13471
0.134416
0.134191
0.000847107
0.000769034
0.000662919
0.000528527
0.000367444
0.000183883
-1.81082e-05
-0.000234762
-0.000462422
-0.000697605
-0.000937071
-0.00117785
-0.00141727
-0.00165295
-0.0018828
-0.00210501
-0.00231802
-0.00252055
-0.00271153
-0.00289009
-0.00305553
-0.00320733
-0.0033451
-0.00346853
-0.00357744
-0.00367171
-0.00375129
-0.00381615
-0.0038663
-0.0039018
-0.00392267
-0.00392898
-0.00392077
-0.00389806
-0.00386086
-0.00380918
-0.003743
-0.00366225
-0.00356688
-0.00345679
-0.00333185
-0.00319193
-0.00303685
-0.00286641
-0.00268037
-0.00247844
-0.00226032
-0.00202568
-0.00177416
-0.00150537
-0.00121889
-0.000914283
-0.000591063
-0.000248723
0.000113279
0.000495516
0.000898596
0.00132315
0.00176985
0.00223938
0.00273246
0.00324986
0.00379236
0.00436081
0.00495606
0.00557899
0.00623052
0.00691159
0.00762319
0.00836633
0.00914206
0.00995146
0.0107956
0.0116756
0.0125927
0.0135479
0.0145426
0.0155778
0.0166548
0.0177749
0.0189393
0.0201491
0.0214057
0.0227102
0.0240638
0.0254677
0.026923
0.0284308
0.029992
0.0316076
0.0332786
0.0350055
0.0367892
0.03863
0.0405285
0.0424848
0.0444991
0.0465711
0.0487006
0.050887
0.0531293
0.0554265
0.0577773
0.0601798
0.0626321
0.0651317
0.0676758
0.0702613
0.0728847
0.0755419
0.0782286
0.0809398
0.0836705
0.0864148
0.0891668
0.0919198
0.0946669
0.097401
0.100114
0.102799
0.105447
0.10805
0.110599
0.113085
0.115501
0.117838
0.120087
0.12224
0.12429
0.126229
0.12805
0.129748
0.131317
0.132752
0.13405
0.135208
0.136225
0.1371
0.137834
0.138429
0.138887
0.139214
0.139415
0.139496
0.139466
0.139334
0.13911
0.138804
0.138429
0.137997
0.137522
0.137016
0.136494
0.135969
0.135454
0.134963
0.134508
0.134102
0.133737
0.1334
0.00117656
0.00105514
0.000918999
0.00076417
0.000587975
0.00039409
0.000186132
-3.27851e-05
-0.000259635
-0.000491502
-0.000725661
-0.000959599
-0.00119104
-0.00141796
-0.00163855
-0.00185128
-0.0020548
-0.00224799
-0.00242991
-0.00259981
-0.00275709
-0.00290127
-0.00303199
-0.00314898
-0.00325207
-0.00334114
-0.0034161
-0.00347693
-0.00352361
-0.00355615
-0.00357457
-0.00357888
-0.00356907
-0.00354515
-0.00350708
-0.00345483
-0.00338834
-0.00330752
-0.00321227
-0.00310247
-0.00297797
-0.00283859
-0.00268415
-0.00251442
-0.00232913
-0.00212798
-0.00191066
-0.00167682
-0.00142608
-0.00115806
-0.000872329
-0.00056844
-0.000245912
9.57636e-05
0.000457126
0.000838745
0.00124122
0.00166517
0.00211125
0.00258014
0.00307253
0.00358919
0.00413089
0.00469844
0.00529266
0.00591442
0.00656459
0.00724411
0.00795393
0.00869501
0.00946839
0.0102751
0.0111162
0.0119927
0.0129058
0.0138565
0.0148461
0.0158757
0.0169465
0.0180597
0.0192164
0.0204178
0.0216651
0.0229596
0.0243022
0.0256941
0.0271365
0.0286303
0.0301766
0.0317762
0.0334301
0.0351388
0.0369031
0.0387235
0.0406003
0.042534
0.0445244
0.0465716
0.0486751
0.0508345
0.053049
0.0553174
0.0576386
0.0600107
0.062432
0.0649
0.0674122
0.0699654
0.0725563
0.0751809
0.077835
0.080514
0.0832127
0.0859257
0.0886469
0.09137
0.0940883
0.0967946
0.0994814
0.102141
0.104765
0.107346
0.109875
0.112344
0.114744
0.117066
0.119303
0.121447
0.123489
0.125423
0.127241
0.128938
0.130509
0.131947
0.133251
0.134417
0.135444
0.136331
0.137078
0.137688
0.138163
0.138508
0.138728
0.138829
0.13882
0.138709
0.138505
0.138219
0.137862
0.137446
0.136983
0.136486
0.135966
0.135436
0.134907
0.134391
0.133898
0.13344
0.132996
0.132544
0.00153537
0.00136768
0.00119851
0.00102021
0.000825738
0.000618301
0.000401143
0.000176772
-5.23651e-05
-0.000283876
-0.000515513
-0.000745204
-0.000971058
-0.00119138
-0.00140468
-0.00160967
-0.00180524
-0.00199043
-0.00216447
-0.00232672
-0.00247669
-0.00261396
-0.00273824
-0.0028493
-0.00294697
-0.00303116
-0.00310178
-0.0031588
-0.00320218
-0.00323192
-0.003248
-0.0032504
-0.00323909
-0.00321404
-0.00317519
-0.00312246
-0.00305575
-0.00297497
-0.00287996
-0.00277059
-0.00264668
-0.00250803
-0.00235443
-0.00218563
-0.00200133
-0.00180123
-0.00158499
-0.00135227
-0.00110267
-0.000835798
-0.000551218
-0.000248482
7.28901e-05
0.000413407
0.000773605
0.00115405
0.00155532
0.00197804
0.00242284
0.00289038
0.00338135
0.0038965
0.00443657
0.00500236
0.00559466
0.0062143
0.00686214
0.00753908
0.00824605
0.00898397
0.00975384
0.0105566
0.0113934
0.0122651
0.0131729
0.0141179
0.0151011
0.0161236
0.0171867
0.0182915
0.019439
0.0206305
0.0218671
0.0231499
0.02448
0.0258585
0.0272865
0.028765
0.0302949
0.0318771
0.0335125
0.0352017
0.0369455
0.0387444
0.0405988
0.0425089
0.0444748
0.0464966
0.0485739
0.0507062
0.0528929
0.0551329
0.057425
0.0597677
0.0621591
0.064597
0.0670788
0.0696018
0.0721624
0.0747572
0.0773818
0.0800319
0.0827024
0.085388
0.0880829
0.0907809
0.0934753
0.0961592
0.0988252
0.101466
0.104073
0.106638
0.109153
0.111611
0.114001
0.116316
0.118548
0.120688
0.122729
0.124664
0.126485
0.128186
0.129763
0.13121
0.132523
0.133701
0.13474
0.13564
0.136402
0.137027
0.137518
0.13788
0.138116
0.138235
0.138242
0.138146
0.137956
0.137683
0.137337
0.136928
0.136469
0.13597
0.135443
0.134898
0.134346
0.133796
0.133258
0.132741
0.132215
0.131648
0.00191515
0.00169936
0.00149505
0.00129094
0.00107566
0.000852039
0.000623003
0.000390497
0.000156437
-7.7266e-05
-0.000308812
-0.000536535
-0.000758922
-0.000974612
-0.00118241
-0.00138128
-0.00157032
-0.00174879
-0.00191608
-0.00207168
-0.00221519
-0.0023463
-0.00246477
-0.00257043
-0.00266316
-0.00274285
-0.00280946
-0.00286294
-0.00290326
-0.00293039
-0.00294431
-0.00294496
-0.00293229
-0.00290624
-0.00286673
-0.00281364
-0.00274686
-0.00266625
-0.00257163
-0.00246285
-0.00233971
-0.00220198
-0.00204943
-0.00188178
-0.00169872
-0.00149994
-0.00128509
-0.0010538
-0.000805674
-0.000540308
-0.00025727
4.38943e-05
0.000363665
0.00070255
0.00106108
0.00143981
0.00183931
0.00226019
0.00270307
0.00316859
0.00365743
0.00417032
0.00470798
0.00527117
0.00586068
0.00647729
0.00712184
0.0077952
0.00849827
0.00923195
0.00999718
0.0107949
0.0116261
0.0124918
0.013393
0.0143308
0.0153062
0.0163203
0.0173743
0.0184692
0.0196061
0.0207861
0.0220104
0.02328
0.0245961
0.0259596
0.0273717
0.0288332
0.0303453
0.0319087
0.0335242
0.0351927
0.0369148
0.038691
0.0405218
0.0424074
0.0443482
0.0463439
0.0483944
0.0504994
0.0526581
0.0548698
0.0571332
0.0594469
0.0618092
0.064218
0.066671
0.0691653
0.0716978
0.0742649
0.0768627
0.0794868
0.0821324
0.0847943
0.0874668
0.0901439
0.092819
0.0954853
0.0981356
0.100762
0.103358
0.105913
0.108421
0.110873
0.11326
0.115574
0.117807
0.11995
0.121996
0.123937
0.125767
0.127478
0.129066
0.130526
0.131853
0.133045
0.1341
0.135016
0.135794
0.136435
0.136943
0.13732
0.137572
0.137704
0.137724
0.13764
0.13746
0.137194
0.136851
0.136443
0.13598
0.135471
0.134929
0.134362
0.133779
0.133189
0.1326
0.132022
0.131413
0.130734
0.00230833
0.00204339
0.0018025
0.00157082
0.00133277
0.00109084
0.00084773
0.000604862
0.000363658
0.000125589
-0.000107963
-0.000335716
-0.000556514
-0.000769323
-0.000973232
-0.00116745
-0.00135132
-0.00152429
-0.00168591
-0.00183582
-0.00197372
-0.00209941
-0.00221273
-0.00231357
-0.00240183
-0.00247747
-0.00254044
-0.00259071
-0.00262825
-0.00265303
-0.002665
-0.0026641
-0.00265026
-0.00262339
-0.00258337
-0.00253009
-0.00246339
-0.00238311
-0.00228906
-0.00218105
-0.00205886
-0.00192226
-0.00177097
-0.0016047
-0.00142313
-0.00122594
-0.00101275
-0.000783197
-0.000536874
-0.000273366
7.75762e-06
0.000306951
0.000624696
0.000961498
0.00131788
0.00169439
0.00209158
0.00251004
0.00295039
0.00341325
0.00389929
0.00440919
0.00494368
0.00550348
0.00608934
0.00670204
0.00734237
0.00801119
0.00870934
0.00943771
0.0101972
0.0109887
0.0118132
0.0126716
0.0135649
0.0144942
0.0154604
0.0164647
0.0175081
0.0185916
0.0197164
0.0208835
0.0220939
0.0233488
0.0246492
0.0259962
0.0273908
0.0288339
0.0303266
0.0318696
0.0334639
0.0351102
0.0368092
0.0385615
0.0403675
0.0422277
0.0441422
0.0461111
0.0481342
0.0502113
0.0523418
0.0545249
0.0567596
0.0590447
0.0613784
0.063759
0.0661841
0.0686511
0.071157
0.0736984
0.0762715
0.0788722
0.0814957
0.084137
0.0867906
0.0894505
0.0921105
0.0947637
0.0974029
0.100021
0.102609
0.105161
0.107667
0.110119
0.112509
0.114828
0.117067
0.119219
0.121276
0.12323
0.125074
0.126801
0.128406
0.129883
0.131228
0.132439
0.133512
0.134447
0.135244
0.135903
0.136427
0.13682
0.137087
0.137232
0.137262
0.137186
0.137012
0.136748
0.136405
0.135991
0.135518
0.134994
0.13443
0.133835
0.133216
0.13258
0.131937
0.131295
0.130604
0.129816
0.0027081
0.00239347
0.00211505
0.00185453
0.00159219
0.00133029
0.00107132
0.000816258
0.000566063
0.00032179
8.44401e-05
-0.000145075
-0.000365936
-0.000577418
-0.000778889
-0.000969814
-0.00114976
-0.00131836
-0.00147533
-0.00162047
-0.0017536
-0.00187462
-0.00198345
-0.00208005
-0.00216438
-0.00223642
-0.00229617
-0.0023436
-0.00237868
-0.0024014
-0.00241168
-0.00240947
-0.00239467
-0.00236719
-0.00232687
-0.00227358
-0.00220715
-0.00212738
-0.00203409
-0.00192704
-0.00180601
-0.00167073
-0.00152092
-0.00135626
-0.00117643
-0.000981069
-0.000769821
-0.000542292
-0.000298077
-3.67563e-05
0.000242101
0.000538952
0.000854275
0.00118857
0.00154236
0.00191616
0.00231053
0.00272603
0.00316328
0.00362287
0.00410545
0.0046117
0.00514229
0.00569793
0.00627934
0.00688727
0.00752249
0.00818582
0.00887807
0.00960009
0.0103527
0.0111369
0.0119534
0.0128033
0.0136875
0.014607
0.0155628
0.0165558
0.0175872
0.0186579
0.019769
0.0209216
0.0221166
0.0233552
0.0246384
0.0259673
0.0273427
0.0287659
0.0302375
0.0317587
0.0333302
0.0349529
0.0366274
0.0383543
0.0401343
0.0419678
0.043855
0.045796
0.0477909
0.0498394
0.0519411
0.0540953
0.0563012
0.0585576
0.0608631
0.0632158
0.0656137
0.0680544
0.0705349
0.0730522
0.0756025
0.0781818
0.0807856
0.083409
0.0860468
0.0886929
0.0913413
0.0939853
0.0966177
0.0992313
0.101818
0.10437
0.10688
0.109337
0.111735
0.114065
0.116317
0.118484
0.120558
0.12253
0.124393
0.126142
0.127768
0.129268
0.130636
0.13187
0.132966
0.133923
0.134741
0.13542
0.135963
0.136372
0.136653
0.13681
0.136851
0.136781
0.136609
0.136345
0.135996
0.135573
0.135085
0.134541
0.13395
0.133321
0.132662
0.131977
0.131278
0.130571
0.129799
0.128908
0.0031082
0.00274373
0.0024272
0.00213695
0.0018492
0.00156603
0.00128978
0.00102103
0.000760318
0.000508309
0.000265637
3.28692e-05
-0.000189492
-0.000401016
-0.000601347
-0.000790199
-0.000967351
-0.00113264
-0.00128593
-0.00142718
-0.00155635
-0.00167344
-0.00177845
-0.00187141
-0.00195235
-0.00202128
-0.00207824
-0.00212322
-0.00215622
-0.00217719
-0.00218608
-0.00218283
-0.00216733
-0.00213945
-0.00209905
-0.00204596
-0.00198
-0.00190095
-0.00180861
-0.00170273
-0.00158306
-0.0014493
-0.00130118
-0.00113835
-0.000960481
-0.000767206
-0.000558148
-0.000332913
-9.10916e-05
0.000167737
0.000444006
0.000738171
0.00105071
0.00138211
0.00173289
0.00210354
0.00249461
0.00290666
0.00334026
0.00379601
0.00427454
0.00477648
0.00530249
0.00585324
0.00642943
0.00703178
0.00766103
0.00831797
0.00900338
0.00971805
0.0104628
0.0112385
0.012046
0.0128862
0.0137601
0.0146685
0.0156124
0.0165928
0.0176108
0.0186672
0.0197632
0.0208997
0.0220778
0.0232985
0.0245629
0.025872
0.0272267
0.0286282
0.0300773
0.0315749
0.0331221
0.0347195
0.036368
0.0380682
0.0398208
0.0416262
0.0434849
0.0453969
0.0473625
0.0493816
0.0514537
0.0535785
0.0557551
0.0579827
0.0602598
0.0625849
0.0649561
0.067371
0.0698271
0.0723213
0.0748502
0.0774098
0.079996
0.0826038
0.0852282
0.0878635
0.0905035
0.0931418
0.0957712
0.0983845
0.100974
0.103532
0.106049
0.108518
0.110929
0.113274
0.115545
0.117733
0.119829
0.121825
0.123714
0.125489
0.127143
0.12867
0.130066
0.131327
0.13245
0.133433
0.134275
0.134977
0.135541
0.135969
0.136265
0.136435
0.136484
0.136419
0.136249
0.135981
0.135624
0.135188
0.134681
0.134113
0.133493
0.132827
0.132124
0.131389
0.130631
0.12986
0.129009
0.128019
0.00350291
0.00308867
0.00273374
0.00241315
0.00209917
0.00179375
0.00149914
0.00121551
0.000943028
0.000682007
0.000432732
0.000195444
-2.9658e-05
-0.000242429
-0.000442776
-0.000630653
-0.000806047
-0.000968981
-0.00111951
-0.00125772
-0.00138371
-0.00149757
-0.00159942
-0.00168934
-0.00176743
-0.00183376
-0.00188839
-0.00193134
-0.00196261
-0.00198219
-0.00199002
-0.00198601
-0.00197007
-0.00194206
-0.00190181
-0.00184915
-0.00178386
-0.00170574
-0.00161456
-0.00151004
-0.00139192
-0.0012599
-0.00111366
-0.000952876
-0.000777182
-0.000586209
-0.000379573
-0.000156876
8.22926e-05
0.000338356
0.000611748
0.000902921
0.00121235
0.00154051
0.00188789
0.00225499
0.00264233
0.00305045
0.00347993
0.00393132
0.00440523
0.00490226
0.00542304
0.00596822
0.00653847
0.00713447
0.00775695
0.00840664
0.00908429
0.00979066
0.0105265
0.0112927
0.0120901
0.0129194
0.0137817
0.0146778
0.0156086
0.016575
0.0175782
0.0186189
0.0196983
0.0208172
0.0219768
0.0231781
0.024422
0.0257097
0.0270421
0.0284202
0.029845
0.0313176
0.0328387
0.0344093
0.0360302
0.0377021
0.0394258
0.0412018
0.0430305
0.0449124
0.0468475
0.048836
0.0508777
0.0529722
0.055119
0.0573172
0.0595657
0.061863
0.0642075
0.0665971
0.0690293
0.0715013
0.0740097
0.0765511
0.0791211
0.0817153
0.0843286
0.0869554
0.0895898
0.0922254
0.0948552
0.0974719
0.100068
0.102635
0.105165
0.107649
0.110079
0.112446
0.11474
0.116954
0.119078
0.121104
0.123024
0.124831
0.126518
0.128078
0.129508
0.130801
0.131956
0.132969
0.133839
0.134567
0.135154
0.135603
0.135916
0.136099
0.136157
0.136098
0.135927
0.135655
0.135288
0.134837
0.134309
0.133715
0.133061
0.132356
0.131607
0.130819
0.130003
0.129167
0.12824
0.127157
0.0038869
0.00342314
0.00302971
0.00267841
0.00233763
0.00200925
0.00169543
0.00139599
0.00111074
0.000839664
0.00058272
0.000339842
0.000110934
-0.000104133
-0.000305517
-0.000493394
-0.000667962
-0.000829435
-0.00097804
-0.00111401
-0.00123755
-0.00134888
-0.00144819
-0.00153567
-0.00161147
-0.0016757
-0.00172847
-0.00176981
-0.00179976
-0.0018183
-0.00182539
-0.00182094
-0.00180485
-0.00177695
-0.0017371
-0.00168508
-0.0016207
-0.00154372
-0.00145388
-0.00135092
-0.00123454
-0.00110444
-0.000960278
-0.000801719
-0.000628391
-0.000439915
-0.000235905
-1.59596e-05
0.000220332
0.000473394
0.000743659
0.00103157
0.0013376
0.0016622
0.00200586
0.00236905
0.00275228
0.00315607
0.00358097
0.00402752
0.0044963
0.00498787
0.00550284
0.00604182
0.00660545
0.00719439
0.00780933
0.00845096
0.00912
0.00981716
0.0105432
0.0112989
0.012085
0.0129024
0.0137519
0.0146344
0.0155508
0.016502
0.017489
0.0185126
0.0195739
0.0206738
0.0218133
0.0229935
0.0242154
0.0254801
0.0267884
0.0281416
0.0295405
0.0309862
0.0324796
0.0340217
0.0356134
0.0372554
0.0389486
0.0406936
0.042491
0.0443412
0.0462446
0.0482014
0.0502115
0.0522748
0.0543908
0.0565589
0.0587783
0.0610475
0.0633652
0.0657294
0.0681379
0.0705881
0.0730769
0.0756008
0.078156
0.080738
0.0833419
0.0859624
0.0885935
0.0912291
0.0938622
0.0964856
0.0990916
0.101672
0.104219
0.106723
0.109176
0.111569
0.113892
0.116137
0.118295
0.120356
0.122313
0.124158
0.125883
0.127483
0.128951
0.130282
0.131473
0.132521
0.133424
0.134182
0.134796
0.135267
0.1356
0.135798
0.135867
0.135813
0.135643
0.135365
0.134988
0.13452
0.13397
0.133346
0.132657
0.131912
0.131115
0.130275
0.1294
0.1285
0.127499
0.126325
0.00425518
0.00374225
0.00331039
0.00292819
0.00256026
0.0022084
0.00187475
0.00155878
0.00125997
0.000977993
0.000712503
0.000463137
0.000229516
1.12509e-05
-0.000192055
-0.000380799
-0.000555384
-0.000716209
-0.000863664
-0.000998116
-0.00111991
-0.00122936
-0.00132677
-0.00141239
-0.00148643
-0.00154906
-0.00160042
-0.00164058
-0.0016696
-0.00168748
-0.00169417
-0.00168958
-0.00167361
-0.00164611
-0.00160689
-0.00155575
-0.00149249
-0.00141683
-0.00132854
-0.00122731
-0.00111284
-0.000984817
-0.000842897
-0.000686724
-0.000515922
-0.000330109
-0.000128894
8.81234e-05
0.000321355
0.000571222
0.000838154
0.00112259
0.00142497
0.00174576
0.0020854
0.00244437
0.00282316
0.00322226
0.0036422
0.0040835
0.00454668
0.00503229
0.00554091
0.00607311
0.00662951
0.00721074
0.00781743
0.00845025
0.00910986
0.00979695
0.0105122
0.0112564
0.0120303
0.0128347
0.0136704
0.0145382
0.0154389
0.0163736
0.017343
0.0183481
0.0193899
0.0204693
0.0215872
0.0227449
0.0239431
0.0251831
0.0264658
0.0277923
0.0291636
0.0305807
0.0320448
0.0335567
0.0351174
0.0367279
0.0383889
0.0401013
0.0418658
0.0436829
0.0455531
0.0474768
0.0494541
0.051485
0.0535692
0.0557064
0.0578957
0.0601363
0.0624266
0.0647652
0.06715
0.0695785
0.072048
0.0745552
0.0770963
0.0796672
0.0822631
0.0848788
0.0875087
0.0901465
0.0927855
0.0954184
0.0980377
0.100635
0.103203
0.105731
0.108212
0.110635
0.112992
0.115274
0.11747
0.119572
0.121572
0.12346
0.12523
0.126874
0.128386
0.12976
0.130993
0.132081
0.133021
0.133814
0.134459
0.134957
0.135312
0.135528
0.135609
0.135561
0.135393
0.13511
0.134722
0.134237
0.133663
0.13301
0.132285
0.131497
0.130653
0.129759
0.128825
0.127863
0.126789
0.125529
0.00460302
0.00404138
0.00357125
0.00315811
0.00276282
0.00238715
0.00203322
0.00170018
0.00138721
0.00109366
0.000818905
0.000562304
0.000323206
0.000100975
-0.000105017
-0.00029539
-0.000470745
-0.000631656
-0.000778665
-0.000912279
-0.00103297
-0.00114117
-0.00123726
-0.00132157
-0.00139437
-0.00145589
-0.00150629
-0.00154571
-0.00157419
-0.00159176
-0.00159837
-0.00159395
-0.00157839
-0.00155152
-0.00151317
-0.00146314
-0.00140118
-0.00132704
-0.00124044
-0.0011411
-0.00102869
-0.00090289
-0.00076334
-0.000609679
-0.000441529
-0.000258503
-6.02125e-05
0.000153744
0.000383777
0.000630304
0.000893747
0.00117453
0.00147308
0.00178984
0.00212525
0.00247975
0.00285382
0.00324794
0.00366258
0.00409825
0.00455544
0.00503466
0.00553645
0.00606137
0.00660999
0.00718289
0.00778069
0.008404
0.00905344
0.00972967
0.0104334
0.0111652
0.0119259
0.0127162
0.0135369
0.0143889
0.0152729
0.0161897
0.0171403
0.0181256
0.0191465
0.0202039
0.0212988
0.0224323
0.0236054
0.0248191
0.0260745
0.0273726
0.0287146
0.0301015
0.0315345
0.0330144
0.0345425
0.0361197
0.0377469
0.039425
0.0411549
0.0429373
0.0447728
0.0466619
0.048605
0.0506022
0.0526534
0.0547585
0.0569169
0.0591278
0.0613902
0.0637026
0.0660633
0.06847
0.0709202
0.0734108
0.0759384
0.0784988
0.0810878
0.0837001
0.0863302
0.0889721
0.0916191
0.0942641
0.0968994
0.0995171
0.102109
0.104665
0.107177
0.109636
0.112032
0.114354
0.116595
0.118743
0.120791
0.122729
0.124549
0.126243
0.127805
0.129229
0.130509
0.131642
0.132625
0.133457
0.134137
0.134666
0.135047
0.135283
0.135379
0.135341
0.135175
0.134889
0.13449
0.133988
0.133391
0.132707
0.131946
0.131116
0.130223
0.129275
0.128283
0.127259
0.126114
0.12477
0.00492595
0.00431609
0.00380793
0.0033639
0.00294118
0.00254152
0.002167
0.00181651
0.0014889
0.00118326
0.000898682
0.000634238
0.000389033
0.000162188
-4.71531e-05
-0.000239821
-0.000416606
-0.000578251
-0.000725449
-0.000858847
-0.00097904
-0.00108656
-0.00118188
-0.0012654
-0.00133746
-0.00139833
-0.00144822
-0.00148728
-0.0015156
-0.0015332
-0.00154005
-0.00153609
-0.00152119
-0.0014952
-0.00145794
-0.0014092
-0.00134872
-0.00127625
-0.0011915
-0.00109417
-0.000983929
-0.000860444
-0.000723355
-0.000572293
-0.000406877
-0.000226721
-3.14346e-05
0.00017938
0.00040613
0.000649226
0.000909076
0.00118609
0.00148068
0.00179326
0.00212427
0.00247411
0.00284326
0.00323214
0.00364123
0.00407097
0.00452183
0.00499429
0.00548885
0.00600604
0.00654639
0.00711045
0.00769877
0.00831193
0.00895053
0.00961516
0.0103065
0.0110251
0.0117717
0.012547