/*--------------------------------*- C++ -*----------------------------------*\
  =========                 |
  \\      /  F ield         | OpenFOAM: The Open Source CFD Toolbox
   \\    /   O peration     | Website:  https://openfoam.org
    \\  /    A nd           | Version:  7
     \\/     M anipulation  |
\*---------------------------------------------------------------------------*/
FoamFile
{
    version     2.0;
    format      ascii;
    class       surfaceScalarField;
    location    "0.2";
    object      phi;
}
// * * * * * * * * * * * * * * * * * * * * * * * * * * * * * * * * * * * * * //

dimensions      [0 3 -1 0 0 0 0];

internalField   nonuniform List<scalar> 
25360
(
5.45116e-11
-5.61758e-11
2.00441e-10
-1.4594e-10
3.69231e-10
-1.68777e-10
5.12092e-10
-1.42869e-10
6.00482e-10
-8.83888e-11
6.18509e-10
-1.80286e-11
5.58289e-10
6.02261e-11
4.17077e-10
1.4122e-10
1.95388e-10
2.21692e-10
-1.0412e-10
2.99509e-10
-4.775e-10
3.73374e-10
-9.19992e-10
4.42487e-10
-1.42638e-09
5.06385e-10
-1.99124e-09
5.64858e-10
-2.60911e-09
6.17877e-10
-3.27465e-09
6.65535e-10
-3.98267e-09
7.08021e-10
-4.72826e-09
7.45592e-10
-5.5068e-09
7.78535e-10
-6.31398e-09
8.0717e-10
-7.14582e-09
8.31833e-10
-7.99869e-09
8.52867e-10
-8.8693e-09
8.70612e-10
-9.75471e-09
8.85403e-10
-1.06523e-08
8.97561e-10
-1.15597e-08
9.07394e-10
-1.24749e-08
9.15193e-10
-1.33961e-08
9.21231e-10
-1.43218e-08
9.25764e-10
-1.52509e-08
9.29027e-10
-1.61821e-08
9.31235e-10
-1.71147e-08
9.32586e-10
-1.80479e-08
9.33259e-10
-1.89814e-08
9.33418e-10
-1.99146e-08
9.3321e-10
-2.08474e-08
9.32765e-10
-2.17795e-08
9.32196e-10
-2.27111e-08
9.31605e-10
-2.36422e-08
9.31081e-10
-2.45729e-08
9.30706e-10
-2.55035e-08
9.30551e-10
-2.64342e-08
9.30678e-10
-2.73653e-08
9.3114e-10
-2.82973e-08
9.31979e-10
-2.92305e-08
9.33235e-10
-3.01654e-08
9.34945e-10
-3.11026e-08
9.37137e-10
-3.20424e-08
9.39836e-10
-3.29855e-08
9.4306e-10
-3.39323e-08
9.46824e-10
-3.48834e-08
9.51141e-10
-3.58395e-08
9.56019e-10
-3.68009e-08
9.61465e-10
-3.77684e-08
9.67483e-10
-3.87425e-08
9.74071e-10
-3.97237e-08
9.81225e-10
-4.07126e-08
9.88935e-10
-4.17098e-08
9.97189e-10
-4.27158e-08
1.00597e-09
-4.37311e-08
1.01526e-09
-4.47561e-08
1.02504e-09
-4.57914e-08
1.03527e-09
-4.68373e-08
1.04594e-09
-4.78943e-08
1.057e-09
-4.89627e-08
1.06841e-09
-5.00428e-08
1.08012e-09
-5.11349e-08
1.09207e-09
-5.22391e-08
1.10422e-09
-5.33556e-08
1.1165e-09
-5.44845e-08
1.12882e-09
-5.56256e-08
1.14113e-09
-5.67789e-08
1.15332e-09
-5.79442e-08
1.16531e-09
-5.91212e-08
1.17699e-09
-6.03094e-08
1.18824e-09
-6.15084e-08
1.19896e-09
-6.27174e-08
1.20901e-09
-6.39357e-08
1.21826e-09
-6.51622e-08
1.22656e-09
-6.6396e-08
1.23376e-09
-6.76357e-08
1.23969e-09
-6.88799e-08
1.24419e-09
-7.01269e-08
1.24706e-09
-7.1375e-08
1.24811e-09
-7.26222e-08
1.24715e-09
-7.38661e-08
1.24396e-09
-7.51045e-08
1.23833e-09
-7.63345e-08
1.23002e-09
-7.75533e-08
1.21882e-09
-7.87578e-08
1.20446e-09
-7.99445e-08
1.18672e-09
-8.11098e-08
1.16534e-09
-8.22499e-08
1.14008e-09
-8.33606e-08
1.11067e-09
-8.44375e-08
1.07687e-09
-8.54759e-08
1.03844e-09
-8.6471e-08
9.95111e-10
-8.74177e-08
9.46662e-10
-8.83105e-08
8.92862e-10
-8.9144e-08
8.33497e-10
-8.99124e-08
7.6837e-10
-9.06097e-08
6.97305e-10
-9.12298e-08
6.20148e-10
-9.17666e-08
5.36776e-10
-9.22137e-08
4.47093e-10
-9.25647e-08
3.51041e-10
-9.28133e-08
2.48604e-10
-9.29532e-08
1.39811e-10
-9.29779e-08
2.47454e-11
-9.28814e-08
-9.64606e-11
-9.26578e-08
-2.2361e-10
-9.23014e-08
-3.56448e-10
-9.18067e-08
-4.9465e-10
-9.11689e-08
-6.3782e-10
-9.03834e-08
-7.85487e-10
-8.94463e-08
-9.37105e-10
-8.83543e-08
-1.09205e-09
-8.71047e-08
-1.24961e-09
-8.56956e-08
-1.40901e-09
-8.41263e-08
-1.56938e-09
-8.23965e-08
-1.72978e-09
-8.05073e-08
-1.8892e-09
-7.84607e-08
-2.04656e-09
-7.626e-08
-2.20071e-09
-7.39096e-08
-2.35046e-09
-7.1415e-08
-2.49457e-09
-6.87832e-08
-2.63177e-09
-6.60225e-08
-2.76075e-09
-6.31422e-08
-2.88022e-09
-6.01534e-08
-2.98888e-09
-5.70679e-08
-3.08545e-09
-5.38992e-08
-3.16869e-09
-5.06618e-08
-3.23742e-09
-4.73713e-08
-3.29051e-09
-4.40443e-08
-3.32695e-09
-4.06985e-08
-3.3458e-09
-3.73523e-08
-3.34625e-09
-3.40247e-08
-3.32762e-09
-3.07353e-08
-3.28936e-09
-2.75042e-08
-3.2311e-09
-2.43516e-08
-3.15258e-09
-2.12979e-08
-3.05375e-09
-1.83632e-08
-2.93471e-09
-1.55675e-08
-2.79571e-09
-1.29303e-08
-2.6372e-09
-1.04705e-08
-2.45977e-09
-8.20627e-09
-2.26423e-09
-6.15472e-09
-2.05154e-09
-4.3318e-09
-1.82293e-09
-2.75194e-09
-1.57985e-09
-1.42775e-09
-1.32419e-09
-3.69382e-10
-1.05837e-09
4.16344e-10
-7.85728e-10
9.27446e-10
-5.111e-10
1.16932e-09
-2.41869e-10
1.15934e-09
9.98228e-12
9.34623e-10
2.24718e-10
5.66024e-10
3.68597e-10
1.84594e-10
3.81428e-10
1.84595e-10
1.45497e-10
-2.01682e-10
4.13946e-10
-4.14381e-10
6.9045e-10
-4.45282e-10
8.89816e-10
-3.42235e-10
9.52232e-10
-1.5081e-10
8.3927e-10
9.49239e-11
5.28774e-10
3.70708e-10
1.03868e-11
6.59597e-10
-7.17802e-10
9.49879e-10
-1.65193e-09
1.23364e-09
-2.78404e-09
1.50549e-09
-4.10349e-09
1.76194e-09
-5.59795e-09
2.00084e-09
-7.2541e-09
2.221e-09
-9.05819e-09
2.42196e-09
-1.09964e-08
2.60375e-09
-1.30552e-08
2.76684e-09
-1.52216e-08
2.91195e-09
-1.7483e-08
3.04e-09
-1.98279e-08
3.15204e-09
-2.22453e-08
3.24921e-09
-2.47251e-08
3.3327e-09
-2.72582e-08
3.40371e-09
-2.98362e-08
3.46343e-09
-3.24517e-08
3.51303e-09
-3.50979e-08
3.55364e-09
-3.77691e-08
3.58633e-09
-4.04599e-08
3.61211e-09
-4.31661e-08
3.63193e-09
-4.58838e-08
3.64669e-09
-4.86097e-08
3.65719e-09
-5.13413e-08
3.66419e-09
-5.40764e-08
3.66837e-09
-5.68134e-08
3.67036e-09
-5.95509e-08
3.67072e-09
-6.22881e-08
3.66995e-09
-6.50244e-08
3.66851e-09
-6.77596e-08
3.66681e-09
-7.04937e-08
3.66521e-09
-7.3227e-08
3.66401e-09
-7.596e-08
3.66351e-09
-7.86932e-08
3.66394e-09
-8.14276e-08
3.66552e-09
-8.41641e-08
3.66843e-09
-8.69037e-08
3.67285e-09
-8.96476e-08
3.6789e-09
-9.23972e-08
3.6867e-09
-9.51537e-08
3.69636e-09
-9.79186e-08
3.70794e-09
-1.00693e-07
3.72153e-09
-1.03479e-07
3.73717e-09
-1.06278e-07
3.75489e-09
-1.09091e-07
3.77472e-09
-1.11921e-07
3.79667e-09
-1.14767e-07
3.82073e-09
-1.17633e-07
3.84688e-09
-1.20519e-07
3.87509e-09
-1.23427e-07
3.90532e-09
-1.26359e-07
3.93749e-09
-1.29315e-07
3.97153e-09
-1.32297e-07
4.00735e-09
-1.35307e-07
4.04483e-09
-1.38345e-07
4.08384e-09
-1.41412e-07
4.12425e-09
-1.44509e-07
4.16588e-09
-1.47638e-07
4.20853e-09
-1.50798e-07
4.25201e-09
-1.5399e-07
4.29607e-09
-1.57214e-07
4.34045e-09
-1.6047e-07
4.38487e-09
-1.63758e-07
4.42902e-09
-1.67077e-07
4.47255e-09
-1.70427e-07
4.51509e-09
-1.73806e-07
4.55624e-09
-1.77213e-07
4.59558e-09
-1.80647e-07
4.63263e-09
-1.84105e-07
4.66689e-09
-1.87584e-07
4.69785e-09
-1.91083e-07
4.72493e-09
-1.94596e-07
4.74753e-09
-1.98122e-07
4.76503e-09
-2.01654e-07
4.77677e-09
-2.05189e-07
4.78202e-09
-2.08721e-07
4.78007e-09
-2.12244e-07
4.77015e-09
-2.15752e-07
4.75146e-09
-2.19237e-07
4.72316e-09
-2.22691e-07
4.68442e-09
-2.26107e-07
4.63436e-09
-2.29474e-07
4.57207e-09
-2.32784e-07
4.49664e-09
-2.36026e-07
4.40715e-09
-2.39188e-07
4.30267e-09
-2.4226e-07
4.18227e-09
-2.45228e-07
4.04501e-09
-2.4808e-07
3.89e-09
-2.50801e-07
3.71635e-09
-2.53378e-07
3.52319e-09
-2.55794e-07
3.30973e-09
-2.58036e-07
3.0752e-09
-2.60087e-07
2.81891e-09
-2.6193e-07
2.54026e-09
-2.63548e-07
2.23873e-09
-2.64925e-07
1.91392e-09
-2.66044e-07
1.56555e-09
-2.66886e-07
1.19347e-09
-2.67435e-07
7.97709e-10
-2.67674e-07
3.78442e-10
-2.67585e-07
-6.39499e-11
-2.67153e-07
-5.28883e-10
-2.66361e-07
-1.01555e-09
-2.65194e-07
-1.52291e-09
-2.63639e-07
-2.04968e-09
-2.61683e-07
-2.5943e-09
-2.59313e-07
-3.15494e-09
-2.56521e-07
-3.72952e-09
-2.53297e-07
-4.31563e-09
-2.49636e-07
-4.9106e-09
-2.45534e-07
-5.51146e-09
-2.40988e-07
-6.11496e-09
-2.36001e-07
-6.71758e-09
-2.30574e-07
-7.31555e-09
-2.24716e-07
-7.90485e-09
-2.18435e-07
-8.48123e-09
-2.11746e-07
-9.0403e-09
-2.04663e-07
-9.57745e-09
-1.97207e-07
-1.0088e-08
-1.894e-07
-1.05672e-08
-1.8127e-07
-1.10103e-08
-1.72846e-07
-1.14126e-08
-1.64162e-07
-1.17693e-08
-1.55255e-07
-1.20759e-08
-1.46164e-07
-1.23282e-08
-1.36933e-07
-1.2522e-08
-1.27606e-07
-1.26537e-08
-1.18232e-07
-1.27199e-08
-1.08861e-07
-1.27176e-08
-9.95441e-08
-1.26443e-08
-9.03351e-08
-1.24983e-08
-8.12882e-08
-1.2278e-08
-7.2458e-08
-1.19828e-08
-6.38993e-08
-1.16124e-08
-5.56666e-08
-1.11674e-08
-4.78135e-08
-1.06488e-08
-4.0392e-08
-1.00586e-08
-3.34525e-08
-9.39928e-09
-2.70426e-08
-8.67411e-09
-2.12069e-08
-7.8873e-09
-1.59858e-08
-7.04402e-09
-1.14149e-08
-6.15073e-09
-7.52356e-09
-5.21556e-09
-4.33289e-09
-4.24905e-09
-1.85333e-09
-3.26529e-09
-8.06292e-11
-2.28381e-09
1.01018e-09
-1.33267e-09
1.47332e-09
-4.53168e-10
1.4055e-09
2.92542e-10
9.6295e-10
8.11148e-10
3.79965e-10
9.64415e-10
5.64562e-10
1.69842e-10
-3.71512e-10
4.47516e-10
-6.92061e-10
6.89082e-10
-6.86837e-10
7.91682e-10
-4.44838e-10
6.80598e-10
-3.97152e-11
3.05043e-10
4.70486e-10
-3.66289e-10
1.04204e-09
-1.34955e-09
1.64285e-09
-2.64943e-09
2.24975e-09
-4.26207e-09
2.84627e-09
-6.17745e-09
3.42087e-09
-8.38125e-09
3.96574e-09
-1.08562e-08
4.47578e-09
-1.35832e-08
4.948e-09
-1.65422e-08
5.38094e-09
-1.97127e-08
5.77431e-09
-2.30746e-08
6.12871e-09
-2.6608e-08
6.44537e-09
-3.0294e-08
6.72599e-09
-3.41146e-08
6.97263e-09
-3.80529e-08
7.18752e-09
-4.20933e-08
7.37307e-09
-4.62213e-08
7.53172e-09
-5.04238e-08
7.66593e-09
-5.46889e-08
7.77813e-09
-5.90059e-08
7.87067e-09
-6.33654e-08
7.94582e-09
-6.7759e-08
8.00571e-09
-7.21795e-08
8.05238e-09
-7.66205e-08
8.08772e-09
-8.10768e-08
8.1135e-09
-8.5544e-08
8.13133e-09
-9.00183e-08
8.14269e-09
-9.44969e-08
8.14895e-09
-9.89775e-08
8.15134e-09
-1.03459e-07
8.15097e-09
-1.07939e-07
8.14883e-09
-1.12418e-07
8.14583e-09
-1.16895e-07
8.14275e-09
-1.21372e-07
8.14032e-09
-1.25847e-07
8.13915e-09
-1.30323e-07
8.13979e-09
-1.348e-07
8.14273e-09
-1.3928e-07
8.14839e-09
-1.43765e-07
8.15713e-09
-1.48255e-07
8.16927e-09
-1.52753e-07
8.18507e-09
-1.57262e-07
8.20477e-09
-1.61782e-07
8.22853e-09
-1.66317e-07
8.25652e-09
-1.70869e-07
8.28886e-09
-1.7544e-07
8.32561e-09
-1.80032e-07
8.36684e-09
-1.84648e-07
8.41256e-09
-1.8929e-07
8.46276e-09
-1.9396e-07
8.51739e-09
-1.98662e-07
8.57638e-09
-2.03396e-07
8.63962e-09
-2.08165e-07
8.70696e-09
-2.12972e-07
8.77824e-09
-2.17818e-07
8.85323e-09
-2.22705e-07
8.93168e-09
-2.27634e-07
9.0133e-09
-2.32608e-07
9.09775e-09
-2.37627e-07
9.18466e-09
-2.42692e-07
9.27359e-09
-2.47804e-07
9.36408e-09
-2.52963e-07
9.45559e-09
-2.5817e-07
9.54754e-09
-2.63425e-07
9.6393e-09
-2.68726e-07
9.73017e-09
-2.74073e-07
9.81938e-09
-2.79464e-07
9.90613e-09
-2.84897e-07
9.98951e-09
-2.9037e-07
1.00686e-08
-2.9588e-07
1.01423e-08
-3.01422e-07
1.02096e-08
-3.06994e-07
1.02693e-08
-3.12589e-07
1.03202e-08
-3.18203e-07
1.03609e-08
-3.23828e-07
1.03902e-08
-3.29457e-07
1.04064e-08
-3.35084e-07
1.04082e-08
-3.40697e-07
1.03939e-08
-3.46289e-07
1.03618e-08
-3.51848e-07
1.03103e-08
-3.57362e-07
1.02375e-08
-3.62819e-07
1.01416e-08
-3.68206e-07
1.00208e-08
-3.73507e-07
9.87317e-09
-3.78707e-07
9.69668e-09
-3.83789e-07
9.48942e-09
-3.88736e-07
9.2494e-09
-3.93528e-07
8.97466e-09
-3.98147e-07
8.66327e-09
-4.0257e-07
8.31331e-09
-4.06776e-07
7.92294e-09
-4.10744e-07
7.49039e-09
-4.14448e-07
7.014e-09
-4.17865e-07
6.49222e-09
-4.2097e-07
5.92366e-09
-4.23737e-07
5.30712e-09
-4.26139e-07
4.6416e-09
-4.28152e-07
3.92632e-09
-4.29747e-07
3.16081e-09
-4.30898e-07
2.34487e-09
-4.31579e-07
1.47867e-09
-4.31764e-07
5.6273e-10
-4.31426e-07
-4.02021e-10
-4.3054e-07
-1.41421e-09
-4.29084e-07
-2.472e-09
-4.27034e-07
-3.57303e-09
-4.24369e-07
-4.71444e-09
-4.2107e-07
-5.89282e-09
-4.17121e-07
-7.10415e-09
-4.12507e-07
-8.34387e-09
-4.07216e-07
-9.60679e-09
-4.01239e-07
-1.08871e-08
-3.94572e-07
-1.21785e-08
-3.87213e-07
-1.3474e-08
-3.79164e-07
-1.47661e-08
-3.70433e-07
-1.60467e-08
-3.61031e-07
-1.73073e-08
-3.50973e-07
-1.85389e-08
-3.40281e-07
-1.97322e-08
-3.28981e-07
-2.08775e-08
-3.17104e-07
-2.19649e-08
-3.04687e-07
-2.29845e-08
-2.91771e-07
-2.39261e-08
-2.78404e-07
-2.47797e-08
-2.64638e-07
-2.55357e-08
-2.50529e-07
-2.61845e-08
-2.3614e-07
-2.67171e-08
-2.21537e-07
-2.7125e-08
-2.06791e-07
-2.74004e-08
-1.91974e-07
-2.75363e-08
-1.77165e-07
-2.75266e-08
-1.62443e-07
-2.73661e-08
-1.47891e-07
-2.70511e-08
-1.3359e-07
-2.65785e-08
-1.19626e-07
-2.5947e-08
-1.06082e-07
-2.51563e-08
-9.30416e-08
-2.42078e-08
-8.05865e-08
-2.3104e-08
-6.87958e-08
-2.18493e-08
-5.77457e-08
-2.04494e-08
-4.75078e-08
-1.8912e-08
-3.81484e-08
-1.72467e-08
-2.97269e-08
-1.54655e-08
-2.22943e-08
-1.35833e-08
-1.58911e-08
-1.16187e-08
-1.05445e-08
-9.59568e-09
-6.26438e-09
-7.54537e-09
-3.03857e-09
-5.50962e-09
-8.2546e-10
-3.54578e-09
4.55427e-10
-1.73406e-09
9.35835e-10
-1.8787e-10
8.13275e-10
9.33711e-10
3.67057e-10
1.41063e-09
9.3162e-10
1.45405e-10
-5.16922e-10
3.47035e-10
-8.93692e-10
4.49743e-10
-7.89547e-10
3.42984e-10
-3.38087e-10
-5.39158e-11
3.57176e-10
-7.9705e-10
1.21362e-09
-1.9221e-09
2.1671e-09
-3.4483e-09
3.16905e-09
-5.38185e-09
4.1833e-09
-7.71891e-09
5.18332e-09
-1.04481e-08
6.15002e-09
-1.35523e-08
7.07e-09
-1.70108e-08
7.93431e-09
-2.08002e-08
8.73736e-09
-2.48954e-08
9.47618e-09
-2.92709e-08
1.01498e-08
-3.39009e-08
1.07587e-08
-3.87602e-08
1.13047e-08
-4.38244e-08
1.17902e-08
-4.90701e-08
1.22184e-08
-5.44754e-08
1.25928e-08
-6.00198e-08
1.29174e-08
-6.56842e-08
1.31961e-08
-7.14512e-08
1.34329e-08
-7.73049e-08
1.36319e-08
-8.32312e-08
1.37969e-08
-8.92171e-08
1.39317e-08
-9.52514e-08
1.404e-08
-1.01324e-07
1.41252e-08
-1.07427e-07
1.41904e-08
-1.13552e-07
1.42387e-08
-1.19694e-07
1.42729e-08
-1.25846e-07
1.42954e-08
-1.32006e-07
1.43087e-08
-1.3817e-07
1.43148e-08
-1.44334e-07
1.43157e-08
-1.50499e-07
1.43132e-08
-1.56662e-07
1.43087e-08
-1.62823e-07
1.43037e-08
-1.68982e-07
1.42994e-08
-1.75139e-07
1.42969e-08
-1.81297e-07
1.42972e-08
-1.87455e-07
1.43012e-08
-1.93616e-07
1.43095e-08
-1.99782e-07
1.43229e-08
-2.05955e-07
1.4342e-08
-2.12137e-07
1.43671e-08
-2.18331e-07
1.43986e-08
-2.24539e-07
1.4437e-08
-2.30765e-07
1.44825e-08
-2.37012e-07
1.45353e-08
-2.43282e-07
1.45955e-08
-2.49578e-07
1.46633e-08
-2.55904e-07
1.47386e-08
-2.62263e-07
1.48214e-08
-2.68657e-07
1.49117e-08
-2.7509e-07
1.50094e-08
-2.81565e-07
1.51141e-08
-2.88083e-07
1.52257e-08
-2.94649e-07
1.53439e-08
-3.01264e-07
1.54682e-08
-3.0793e-07
1.55982e-08
-3.1465e-07
1.57334e-08
-3.21426e-07
1.58732e-08
-3.28258e-07
1.60169e-08
-3.35148e-07
1.61638e-08
-3.42097e-07
1.6313e-08
-3.49105e-07
1.64636e-08
-3.56172e-07
1.66145e-08
-3.63298e-07
1.67647e-08
-3.7048e-07
1.69128e-08
-3.77719e-07
1.70577e-08
-3.8501e-07
1.71977e-08
-3.92352e-07
1.73315e-08
-3.99741e-07
1.74573e-08
-4.07172e-07
1.75733e-08
-4.1464e-07
1.76777e-08
-4.22139e-07
1.77683e-08
-4.29662e-07
1.78432e-08
-4.37201e-07
1.79e-08
-4.44747e-07
1.79362e-08
-4.5229e-07
1.79496e-08
-4.59819e-07
1.79373e-08
-4.67322e-07
1.78967e-08
-4.74785e-07
1.78249e-08
-4.82194e-07
1.77191e-08
-4.89533e-07
1.7576e-08
-4.96784e-07
1.73928e-08
-5.03929e-07
1.7166e-08
-5.10948e-07
1.68926e-08
-5.17821e-07
1.65692e-08
-5.24524e-07
1.61925e-08
-5.31034e-07
1.57592e-08
-5.37325e-07
1.52661e-08
-5.43372e-07
1.47098e-08
-5.49146e-07
1.40872e-08
-5.54618e-07
1.33952e-08
-5.59759e-07
1.2631e-08
-5.64536e-07
1.17918e-08
-5.68919e-07
1.08752e-08
-5.72875e-07
9.87885e-09
-5.76368e-07
8.80089e-09
-5.79366e-07
7.63978e-09
-5.81835e-07
6.39438e-09
-5.83738e-07
5.06403e-09
-5.85041e-07
3.64859e-09
-5.85711e-07
2.14851e-09
-5.85713e-07
5.64852e-10
-5.85015e-07
-1.10061e-09
-5.83584e-07
-2.84536e-09
-5.8139e-07
-4.6661e-09
-5.78404e-07
-6.55869e-09
-5.746e-07
-8.51809e-09
-5.69955e-07
-1.05384e-08
-5.64446e-07
-1.26126e-08
-5.58057e-07
-1.47329e-08
-5.50774e-07
-1.68904e-08
-5.42586e-07
-1.90752e-08
-5.33488e-07
-2.12766e-08
-5.23479e-07
-2.34826e-08
-5.12565e-07
-2.56806e-08
-5.00754e-07
-2.7857e-08
-4.88064e-07
-2.99974e-08
-4.74517e-07
-3.20866e-08
-4.6014e-07
-3.41091e-08
-4.44969e-07
-3.60485e-08
-4.29045e-07
-3.78883e-08
-4.12418e-07
-3.96118e-08
-3.95142e-07
-4.12022e-08
-3.77279e-07
-4.26427e-08
-3.58897e-07
-4.39172e-08
-3.40072e-07
-4.50097e-08
-3.20884e-07
-4.59053e-08
-3.01419e-07
-4.65898e-08
-2.81769e-07
-4.70502e-08
-2.62031e-07
-4.72749e-08
-2.42303e-07
-4.72538e-08
-2.22691e-07
-4.69784e-08
-2.033e-07
-4.64422e-08
-1.84238e-07
-4.56407e-08
-1.65613e-07
-4.45716e-08
-1.47535e-07
-4.32347e-08
-1.3011e-07
-4.16326e-08
-1.13444e-07
-3.977e-08
-9.76386e-08
-3.76546e-08
-8.27912e-08
-3.52968e-08
-6.89928e-08
-3.27104e-08
-5.63271e-08
-2.99124e-08
-4.48684e-08
-2.69242e-08
-3.46794e-08
-2.37723e-08
-2.58088e-08
-2.04894e-08
-1.82875e-08
-1.7117e-08
-1.21248e-08
-1.3708e-08
-7.30283e-09
-1.03316e-08
-3.76973e-09
-7.07888e-09
-1.43104e-09
-4.07274e-09
-1.39492e-10
-1.47942e-09
3.16806e-10
4.7742e-10
2.28331e-10
1.49911e-09
1.15995e-09
9.17831e-11
-6.08704e-10
1.55284e-10
-9.57199e-10
4.02675e-11
-6.7452e-10
-3.6266e-10
6.48332e-11
-1.1338e-09
1.12831e-09
-2.32951e-09
2.40932e-09
-3.98604e-09
3.82362e-09
-6.12306e-09
5.30607e-09
-8.74677e-09
6.80701e-09
-1.18526e-08
8.28918e-09
-1.54277e-08
9.72511e-09
-1.94529e-08
1.10951e-08
-2.39043e-08
1.23857e-08
-2.87551e-08
1.35882e-08
-3.39765e-08
1.46976e-08
-3.95386e-08
1.57118e-08
-4.54112e-08
1.66313e-08
-5.15645e-08
1.7458e-08
-5.79696e-08
1.81953e-08
-6.45988e-08
1.88475e-08
-7.14255e-08
1.94196e-08
-7.84252e-08
1.99171e-08
-8.55747e-08
2.03456e-08
-9.28529e-08
2.07111e-08
-1.0024e-07
2.10194e-08
-1.0772e-07
2.12761e-08
-1.15275e-07
2.1487e-08
-1.22892e-07
2.16573e-08
-1.30559e-07
2.1792e-08
-1.38265e-07
2.18961e-08
-1.46e-07
2.1974e-08
-1.53757e-07
2.20298e-08
-1.61529e-07
2.20674e-08
-1.6931e-07
2.20903e-08
-1.77097e-07
2.21017e-08
-1.84886e-07
2.21047e-08
-1.92675e-07
2.21017e-08
-2.00461e-07
2.20953e-08
-2.08245e-07
2.20875e-08
-2.16026e-07
2.20803e-08
-2.23805e-07
2.20754e-08
-2.31582e-07
2.20742e-08
-2.39359e-07
2.20781e-08
-2.47137e-07
2.20883e-08
-2.5492e-07
2.21058e-08
-2.6271e-07
2.21314e-08
-2.70509e-07
2.2166e-08
-2.7832e-07
2.221e-08
-2.86147e-07
2.22641e-08
-2.93993e-07
2.23287e-08
-3.01862e-07
2.2404e-08
-3.09757e-07
2.24904e-08
-3.17682e-07
2.25879e-08
-3.2564e-07
2.26967e-08
-3.33635e-07
2.28166e-08
-3.4167e-07
2.29475e-08
-3.4975e-07
2.30892e-08
-3.57878e-07
2.32415e-08
-3.66056e-07
2.34038e-08
-3.74288e-07
2.35758e-08
-3.82576e-07
2.37567e-08
-3.90924e-07
2.3946e-08
-3.99333e-07
2.41427e-08
-4.07806e-07
2.43459e-08
-4.16344e-07
2.45547e-08
-4.24948e-07
2.47677e-08
-4.33618e-07
2.49837e-08
-4.42356e-07
2.52013e-08
-4.5116e-07
2.54188e-08
-4.6003e-07
2.56346e-08
-4.68964e-07
2.58467e-08
-4.7796e-07
2.6053e-08
-4.87013e-07
2.62515e-08
-4.96121e-07
2.64396e-08
-5.05279e-07
2.66148e-08
-5.1448e-07
2.67744e-08
-5.23718e-07
2.69156e-08
-5.32985e-07
2.70351e-08
-5.42271e-07
2.71298e-08
-5.51568e-07
2.71963e-08
-5.60862e-07
2.72308e-08
-5.70142e-07
2.72296e-08
-5.79394e-07
2.71888e-08
-5.88601e-07
2.71042e-08
-5.97748e-07
2.69716e-08
-6.06816e-07
2.67865e-08
-6.15784e-07
2.65443e-08
-6.24632e-07
2.62405e-08
-6.33336e-07
2.58702e-08
-6.41872e-07
2.54286e-08
-6.50213e-07
2.49108e-08
-6.58333e-07
2.4312e-08
-6.66201e-07
2.36272e-08
-6.73786e-07
2.28516e-08
-6.81057e-07
2.19804e-08
-6.87979e-07
2.1009e-08
-6.94516e-07
1.9933e-08
-7.00634e-07
1.87481e-08
-7.06292e-07
1.74505e-08
-7.11454e-07
1.60365e-08
-7.16078e-07
1.45031e-08
-7.20125e-07
1.28476e-08
-7.23553e-07
1.10678e-08
-7.26321e-07
9.16232e-09
-7.28387e-07
7.13039e-09
-7.2971e-07
4.97204e-09
-7.3025e-07
2.68818e-09
-7.29966e-07
2.80669e-10
-7.28819e-07
-2.24762e-09
-7.26771e-07
-4.89269e-09
-7.23788e-07
-7.64937e-09
-7.19836e-07
-1.05113e-08
-7.14883e-07
-1.34706e-08
-7.08903e-07
-1.65184e-08
-7.01872e-07
-1.96441e-08
-6.93769e-07
-2.28358e-08
-6.84579e-07
-2.60803e-08
-6.74291e-07
-2.93625e-08
-6.62901e-07
-3.26665e-08
-6.5041e-07
-3.59745e-08
-6.36823e-07
-3.92676e-08
-6.22154e-07
-4.25256e-08
-6.06424e-07
-4.57271e-08
-5.89661e-07
-4.88498e-08
-5.719e-07
-5.18704e-08
-5.53183e-07
-5.4765e-08
-5.33562e-07
-5.75092e-08
-5.13096e-07
-6.00781e-08
-4.91851e-07
-6.24472e-08
-4.69902e-07
-6.45917e-08
-4.47331e-07
-6.64878e-08
-4.24229e-07
-6.81122e-08
-4.00692e-07
-6.94428e-08
-3.76823e-07
-7.04587e-08
-3.52732e-07
-7.11409e-08
-3.28535e-07
-7.14723e-08
-3.0435e-07
-7.14382e-08
-2.80303e-07
-7.10261e-08
-2.56518e-07
-7.02266e-08
-2.33126e-07
-6.90331e-08
-2.10255e-07
-6.74426e-08
-1.88035e-07
-6.54551e-08
-1.66593e-07
-6.30746e-08
-1.46054e-07
-6.03088e-08
-1.26539e-07
-5.71695e-08
-1.08163e-07
-5.36731e-08
-9.10322e-08
-4.98408e-08
-7.52456e-08
-4.5699e-08
-6.08892e-08
-4.12806e-08
-4.80352e-08
-3.66262e-08
-3.6739e-08
-3.17856e-08
-2.70354e-08
-2.68207e-08
-1.89343e-08
-2.18091e-08
-1.24162e-08
-1.68497e-08
-7.42569e-09
-1.20694e-08
-3.86479e-09
-7.63364e-09
-1.58521e-09
-3.75899e-09
-3.79945e-10
-7.27844e-10
2.67153e-11
1.09245e-09
1.18667e-09
2.07224e-11
-6.29427e-10
-9.67604e-11
-8.39725e-10
-4.87578e-10
-2.83696e-10
-1.25289e-09
8.30152e-10
-2.46755e-09
2.34297e-09
-4.18418e-09
4.12596e-09
-6.43653e-09
6.07597e-09
-9.24238e-09
8.11191e-09
-1.26063e-08
1.01709e-08
-1.65219e-08
1.22049e-08
-2.09746e-08
1.41777e-08
-2.59427e-08
1.60632e-08
-3.13998e-08
1.78429e-08
-3.73161e-08
1.95045e-08
-4.36595e-08
2.10409e-08
-5.03964e-08
2.24487e-08
-5.7493e-08
2.37279e-08
-6.49158e-08
2.48808e-08
-7.2632e-08
2.59115e-08
-8.06099e-08
2.68254e-08
-8.88194e-08
2.76291e-08
-9.72322e-08
2.83298e-08
-1.05822e-07
2.89351e-08
-1.14563e-07
2.94529e-08
-1.23435e-07
2.98909e-08
-1.32416e-07
3.0257e-08
-1.41487e-07
3.05587e-08
-1.50633e-07
3.08033e-08
-1.59839e-07
3.09979e-08
-1.69092e-07
3.11489e-08
-1.78381e-07
3.12627e-08
-1.87696e-07
3.13448e-08
-1.97029e-07
3.14008e-08
-2.06374e-07
3.14355e-08
-2.15726e-07
3.14534e-08
-2.2508e-07
3.14586e-08
-2.34433e-07
3.14548e-08
-2.43783e-07
3.14454e-08
-2.53129e-07
3.14335e-08
-2.62471e-07
3.14217e-08
-2.71808e-07
3.14124e-08
-2.81141e-07
3.14078e-08
-2.90473e-07
3.14098e-08
-2.99805e-07
3.142e-08
-3.09139e-07
3.14399e-08
-3.18478e-07
3.14708e-08
-3.27826e-07
3.15136e-08
-3.37185e-07
3.15694e-08
-3.4656e-07
3.16388e-08
-3.55954e-07
3.17225e-08
-3.6537e-07
3.18209e-08
-3.74814e-07
3.19344e-08
-3.8429e-07
3.20631e-08
-3.938e-07
3.22071e-08
-4.0335e-07
3.23664e-08
-4.12943e-07
3.25407e-08
-4.22584e-07
3.27298e-08
-4.32275e-07
3.29332e-08
-4.42022e-07
3.31502e-08
-4.51826e-07
3.33803e-08
-4.61692e-07
3.36225e-08
-4.71622e-07
3.38757e-08
-4.81618e-07
3.41389e-08
-4.91683e-07
3.44107e-08
-5.01818e-07
3.46895e-08
-5.12023e-07
3.49737e-08
-5.22301e-07
3.52614e-08
-5.3265e-07
3.55505e-08
-5.4307e-07
3.58388e-08
-5.53559e-07
3.61237e-08
-5.64115e-07
3.64027e-08
-5.74735e-07
3.66728e-08
-5.85414e-07
3.69308e-08
-5.96148e-07
3.71734e-08
-6.06931e-07
3.73971e-08
-6.17754e-07
3.75978e-08
-6.2861e-07
3.77717e-08
-6.39489e-07
3.79142e-08
-6.5038e-07
3.8021e-08
-6.61271e-07
3.8087e-08
-6.72148e-07
3.81074e-08
-6.82995e-07
3.80768e-08
-6.93796e-07
3.79896e-08
-7.04531e-07
3.78402e-08
-7.15183e-07
3.76226e-08
-7.25727e-07
3.73307e-08
-7.36141e-07
3.69582e-08
-7.46399e-07
3.64987e-08
-7.56474e-07
3.59455e-08
-7.66338e-07
3.52922e-08
-7.75959e-07
3.45319e-08
-7.85305e-07
3.3658e-08
-7.94341e-07
3.26638e-08
-8.03032e-07
3.15427e-08
-8.1134e-07
3.02883e-08
-8.19226e-07
2.88944e-08
-8.26648e-07
2.7355e-08
-8.33564e-07
2.56645e-08
-8.39931e-07
2.38176e-08
-8.45705e-07
2.18098e-08
-8.50838e-07
1.96368e-08
-8.55286e-07
1.72954e-08
-8.59001e-07
1.47828e-08
-8.61936e-07
1.20973e-08
-8.64044e-07
9.23821e-09
-8.65278e-07
6.20585e-09
-8.65591e-07
3.0018e-09
-8.6494e-07
-3.71105e-10
-8.63279e-07
-3.90857e-09
-8.60566e-07
-7.6048e-09
-8.56763e-07
-1.14524e-08
-8.51832e-07
-1.54423e-08
-8.4574e-07
-1.95635e-08
-8.38455e-07
-2.38034e-08
-8.29951e-07
-2.81474e-08
-8.20208e-07
-3.25789e-08
-8.09209e-07
-3.70793e-08
-7.96943e-07
-4.16284e-08
-7.83406e-07
-4.62036e-08
-7.686e-07
-5.07809e-08
-7.52533e-07
-5.53341e-08
-7.35223e-07
-5.98356e-08
-7.16694e-07
-6.42561e-08
-6.96979e-07
-6.85651e-08
-6.76119e-07
-7.27308e-08
-6.54163e-07
-7.67206e-08
-6.31171e-07
-8.05012e-08
-6.0721e-07
-8.40388e-08
-5.82357e-07
-8.72999e-08
-5.56698e-07
-9.02509e-08
-5.30327e-07
-9.28593e-08
-5.03346e-07
-9.50934e-08
-4.75865e-07
-9.69231e-08
-4.48004e-07
-9.83203e-08
-4.19886e-07
-9.92589e-08
-3.91642e-07
-9.97159e-08
-3.63409e-07
-9.96709e-08
-3.35328e-07
-9.91074e-08
-3.07542e-07
-9.80126e-08
-2.80197e-07
-9.63778e-08
-2.53441e-07
-9.41988e-08
-2.2742e-07
-9.14762e-08
-2.02279e-07
-8.82157e-08
-1.78159e-07
-8.44285e-08
-1.55197e-07
-8.01314e-08
-1.33523e-07
-7.53475e-08
-1.13257e-07
-7.01067e-08
-9.45094e-08
-6.44465e-08
-7.7377e-08
-5.8413e-08
-6.19406e-08
-5.20626e-08
-4.82621e-08
-4.54641e-08
-3.63811e-08
-3.87017e-08
-2.6311e-08
-3.18793e-08
-1.80344e-08
-2.51262e-08
-1.1499e-08
-1.86048e-08
-6.61182e-09
-1.25208e-08
-3.23474e-09
-7.13607e-09
-1.17937e-09
-2.78322e-09
-2.02606e-10
1.15694e-10
9.84062e-10
-6.06317e-11
-5.68791e-10
-3.87767e-10
-5.12601e-10
-1.09596e-09
4.24499e-10
-2.27315e-09
2.00733e-09
-3.98477e-09
4.05459e-09
-6.27659e-09
6.41778e-09
-9.17723e-09
8.9766e-09
-1.27005e-08
1.16352e-08
-1.68478e-08
1.43182e-08
-2.16099e-08
1.6967e-08
-2.69695e-08
1.95373e-08
-3.29024e-08
2.19962e-08
-3.93795e-08
2.432e-08
-4.63681e-08
2.64931e-08
-5.38329e-08
2.85057e-08
-6.17375e-08
3.03533e-08
-7.00447e-08
3.20352e-08
-7.87178e-08
3.35539e-08
-8.77206e-08
3.49142e-08
-9.70181e-08
3.6123e-08
-1.06577e-07
3.71881e-08
-1.16366e-07
3.81188e-08
-1.26355e-07
3.89245e-08
-1.36518e-07
3.96152e-08
-1.46828e-07
4.02009e-08
-1.57263e-07
4.06917e-08
-1.67801e-07
4.10973e-08
-1.78425e-07
4.14271e-08
-1.89117e-07
4.16902e-08
-1.99864e-07
4.18952e-08
-2.10651e-07
4.205e-08
-2.21468e-07
4.21624e-08
-2.32307e-07
4.22392e-08
-2.43158e-07
4.2287e-08
-2.54017e-07
4.23116e-08
-2.64877e-07
4.23186e-08
-2.75735e-07
4.23128e-08
-2.86588e-07
4.22987e-08
-2.97435e-07
4.22804e-08
-3.08275e-07
4.22615e-08
-3.19107e-07
4.22451e-08
-3.29934e-07
4.22342e-08
-3.40755e-07
4.22313e-08
-3.51574e-07
4.22387e-08
-3.62392e-07
4.22582e-08
-3.73213e-07
4.22916e-08
-3.8404e-07
4.23404e-08
-3.94876e-07
4.24057e-08
-4.05726e-07
4.24886e-08
-4.16593e-07
4.25899e-08
-4.27483e-07
4.27102e-08
-4.38398e-07
4.285e-08
-4.49345e-07
4.30094e-08
-4.60326e-07
4.31887e-08
-4.71347e-07
4.33876e-08
-4.82413e-07
4.3606e-08
-4.93526e-07
4.38434e-08
-5.04692e-07
4.40992e-08
-5.15915e-07
4.43726e-08
-5.27197e-07
4.46626e-08
-5.38543e-07
4.4968e-08
-5.49954e-07
4.52874e-08
-5.61435e-07
4.56193e-08
-5.72986e-07
4.59617e-08
-5.84609e-07
4.63127e-08
-5.96305e-07
4.667e-08
-6.08075e-07
4.70311e-08
-6.19918e-07
4.73931e-08
-6.31832e-07
4.77531e-08
-6.43816e-07
4.81076e-08
-6.55866e-07
4.84531e-08
-6.67979e-07
4.87857e-08
-6.8015e-07
4.91013e-08
-6.92371e-07
4.93952e-08
-7.04637e-07
4.96627e-08
-7.16938e-07
4.98988e-08
-7.29264e-07
5.00979e-08
-7.41605e-07
5.02544e-08
-7.53946e-07
5.03621e-08
-7.66273e-07
5.04147e-08
-7.78571e-07
5.04055e-08
-7.90822e-07
5.03276e-08
-8.03006e-07
5.01737e-08
-8.15102e-07
4.99362e-08
-8.27087e-07
4.96075e-08
-8.38936e-07
4.91793e-08
-8.50621e-07
4.86437e-08
-8.62115e-07
4.79921e-08
-8.73385e-07
4.7216e-08
-8.844e-07
4.63069e-08
-8.95124e-07
4.5256e-08
-9.05521e-07
4.40547e-08
-9.15551e-07
4.26944e-08
-9.25175e-07
4.11667e-08
-9.3435e-07
3.94634e-08
-9.43032e-07
3.75764e-08
-9.51176e-07
3.54983e-08
-9.58733e-07
3.32219e-08
-9.65656e-07
3.07406e-08
-9.71895e-07
2.80488e-08
-9.77399e-07
2.51412e-08
-9.82118e-07
2.20139e-08
-9.85999e-07
1.86636e-08
-9.8899e-07
1.50885e-08
-9.9104e-07
1.1288e-08
-9.92097e-07
7.26288e-09
-9.92111e-07
3.01554e-09
-9.91032e-07
-1.44993e-09
-9.88813e-07
-6.12759e-09
-9.85408e-07
-1.10096e-08
-9.80774e-07
-1.60859e-08
-9.74872e-07
-2.13443e-08
-9.67665e-07
-2.67706e-08
-9.59121e-07
-3.23477e-08
-9.49212e-07
-3.80566e-08
-9.37915e-07
-4.38755e-08
-9.25214e-07
-4.97801e-08
-9.11099e-07
-5.5744e-08
-8.95565e-07
-6.17378e-08
-8.78615e-07
-6.77302e-08
-8.60262e-07
-7.36873e-08
-8.40524e-07
-7.95734e-08
-8.1943e-07
-8.53505e-08
-7.97016e-07
-9.09791e-08
-7.73328e-07
-9.64182e-08
-7.48423e-07
-1.01626e-07
-7.22366e-07
-1.06558e-07
-6.95232e-07
-1.11173e-07
-6.67105e-07
-1.15426e-07
-6.38081e-07
-1.19275e-07
-6.08264e-07
-1.22677e-07
-5.77766e-07
-1.25591e-07
-5.4671e-07
-1.2798e-07
-5.15225e-07
-1.29805e-07
-4.83449e-07
-1.31035e-07
-4.51527e-07
-1.31638e-07
-4.19608e-07
-1.3159e-07
-3.87847e-07
-1.30868e-07
-3.56403e-07
-1.29457e-07
-3.25437e-07
-1.27344e-07
-2.9511e-07
-1.24525e-07
-2.65584e-07
-1.21002e-07
-2.3702e-07
-1.16781e-07
-2.09571e-07
-1.11877e-07
-1.83389e-07
-1.06314e-07
-1.58615e-07
-1.00121e-07
-1.35383e-07
-9.33384e-08
-1.13814e-07
-8.60157e-08
-9.40142e-08
-7.82132e-08
-7.60724e-08
-7.00045e-08
-6.0058e-08
-6.14784e-08
-4.60172e-08
-5.27425e-08
-3.39694e-08
-4.39271e-08
-2.39039e-08
-3.51917e-08
-1.57765e-08
-2.67322e-08
-9.50664e-09
-1.87907e-08
-4.9742e-09
-1.16685e-08
-2.0187e-09
-5.73872e-09
-4.39632e-10
-1.46337e-09
5.4443e-10
-1.47851e-10
-4.20934e-10
-7.03289e-10
4.28307e-11
-1.75786e-09
1.47907e-09
-3.38311e-09
3.63258e-09
-5.63224e-09
6.30371e-09
-8.54163e-09
9.32717e-09
-1.21326e-08
1.25676e-08
-1.64133e-08
1.59159e-08
-2.13803e-08
1.92852e-08
-2.70207e-08
2.26074e-08
-3.33136e-08
2.58302e-08
-4.02317e-08
2.89142e-08
-4.77429e-08
3.18312e-08
-5.58115e-08
3.45617e-08
-6.43995e-08
3.70937e-08
-7.34673e-08
3.94212e-08
-8.29751e-08
4.1543e-08
-9.2883e-08
4.34618e-08
-1.03152e-07
4.51832e-08
-1.13744e-07
4.67152e-08
-1.24624e-07
4.80675e-08
-1.35756e-07
4.9251e-08
-1.47109e-07
5.02773e-08
-1.58652e-07
5.11587e-08
-1.70359e-07
5.19075e-08
-1.82203e-07
5.2536e-08
-1.94162e-07
5.30564e-08
-2.06215e-07
5.34802e-08
-2.18344e-07
5.38189e-08
-2.30532e-07
5.40832e-08
-2.42765e-07
5.4283e-08
-2.55031e-07
5.4428e-08
-2.67319e-07
5.4527e-08
-2.7962e-07
5.45881e-08
-2.91927e-07
5.46188e-08
-3.04234e-07
5.4626e-08
-3.16537e-07
5.4616e-08
-3.28833e-07
5.45945e-08
-3.41119e-07
5.45666e-08
-3.53395e-07
5.4537e-08
-3.65659e-07
5.45097e-08
-3.77914e-07
5.44885e-08
-3.90159e-07
5.44767e-08
-4.02398e-07
5.44771e-08
-4.14632e-07
5.44923e-08
-4.26864e-07
5.45244e-08
-4.39099e-07
5.45753e-08
-4.5134e-07
5.46466e-08
-4.63591e-07
5.47396e-08
-4.75857e-07
5.48554e-08
-4.88141e-07
5.49947e-08
-5.00449e-07
5.51582e-08
-5.12786e-07
5.53461e-08
-5.25156e-07