/*--------------------------------*- C++ -*----------------------------------*\
  =========                 |
  \\      /  F ield         | OpenFOAM: The Open Source CFD Toolbox
   \\    /   O peration     | Website:  https://openfoam.org
    \\  /    A nd           | Version:  7
     \\/     M anipulation  |
\*---------------------------------------------------------------------------*/
FoamFile
{
    version     2.0;
    format      ascii;
    class       volVectorField;
    location    "0.2";
    object      U;
}
// * * * * * * * * * * * * * * * * * * * * * * * * * * * * * * * * * * * * * //

dimensions      [0 1 -1 0 0 0 0];

internalField   nonuniform List<vector> 
12800
(
(3.51309e-06 -3.64265e-06 0)
(1.91653e-05 -1.01913e-05 0)
(4.56554e-05 -1.22848e-05 0)
(7.19488e-05 -1.11262e-05 0)
(9.1248e-05 -8.18685e-06 0)
(0.000100199 -4.36819e-06 0)
(9.70406e-05 -1.82114e-07 0)
(8.09952e-05 4.07341e-06 0)
(5.193e-05 8.22543e-06 0)
(1.01333e-05 1.21739e-05 0)
(-4.38417e-05 1.58668e-05 0)
(-0.000109284 1.92759e-05 0)
(-0.000185383 2.23886e-05 0)
(-0.000271278 2.52025e-05 0)
(-0.000366093 2.77239e-05 0)
(-0.00046896 2.99641e-05 0)
(-0.000579032 3.19392e-05 0)
(-0.0006955 3.3667e-05 0)
(-0.000817599 3.51649e-05 0)
(-0.000944613 3.64511e-05 0)
(-0.00107588 3.75439e-05 0)
(-0.00121079 3.84625e-05 0)
(-0.00134879 3.92252e-05 0)
(-0.00148938 3.98494e-05 0)
(-0.00163211 4.03512e-05 0)
(-0.00177659 4.07463e-05 0)
(-0.00192247 4.10492e-05 0)
(-0.00206945 4.12735e-05 0)
(-0.00221726 4.14318e-05 0)
(-0.00236569 4.15351e-05 0)
(-0.00251455 4.15938e-05 0)
(-0.00266369 4.16171e-05 0)
(-0.00281298 4.16138e-05 0)
(-0.00296234 4.15916e-05 0)
(-0.00311168 4.15569e-05 0)
(-0.00326097 4.15153e-05 0)
(-0.00341017 4.14719e-05 0)
(-0.00355927 4.14313e-05 0)
(-0.00370828 4.1398e-05 0)
(-0.00385722 4.13757e-05 0)
(-0.00400611 4.13671e-05 0)
(-0.004155 4.13744e-05 0)
(-0.00430393 4.13996e-05 0)
(-0.00445297 4.14447e-05 0)
(-0.00460217 4.15115e-05 0)
(-0.00475161 4.1602e-05 0)
(-0.00490135 4.17174e-05 0)
(-0.00505149 4.18584e-05 0)
(-0.0052021 4.20254e-05 0)
(-0.00535327 4.2219e-05 0)
(-0.00550509 4.24397e-05 0)
(-0.00565764 4.26882e-05 0)
(-0.00581102 4.29648e-05 0)
(-0.00596531 4.32696e-05 0)
(-0.00612062 4.36026e-05 0)
(-0.00627702 4.39636e-05 0)
(-0.00643461 4.43522e-05 0)
(-0.00659348 4.47677e-05 0)
(-0.00675371 4.52095e-05 0)
(-0.00691539 4.56767e-05 0)
(-0.0070786 4.61685e-05 0)
(-0.00724341 4.66839e-05 0)
(-0.00740989 4.72215e-05 0)
(-0.00757811 4.77798e-05 0)
(-0.00774813 4.83571e-05 0)
(-0.00792001 4.89513e-05 0)
(-0.00809377 4.95601e-05 0)
(-0.00826947 5.01807e-05 0)
(-0.00844713 5.08105e-05 0)
(-0.00862675 5.14464e-05 0)
(-0.00880836 5.20851e-05 0)
(-0.00899192 5.27229e-05 0)
(-0.00917742 5.33553e-05 0)
(-0.00936482 5.39774e-05 0)
(-0.00955406 5.45844e-05 0)
(-0.00974506 5.51709e-05 0)
(-0.00993773 5.57314e-05 0)
(-0.0101319 5.62596e-05 0)
(-0.0103276 5.67487e-05 0)
(-0.0105244 5.71917e-05 0)
(-0.0107224 5.7581e-05 0)
(-0.0109211 5.79086e-05 0)
(-0.0111205 5.81659e-05 0)
(-0.0113202 5.83438e-05 0)
(-0.0115199 5.84327e-05 0)
(-0.0117193 5.84228e-05 0)
(-0.011918 5.83038e-05 0)
(-0.0121156 5.80649e-05 0)
(-0.0123116 5.76948e-05 0)
(-0.0125056 5.71817e-05 0)
(-0.012697 5.65137e-05 0)
(-0.0128853 5.56784e-05 0)
(-0.0130699 5.46637e-05 0)
(-0.0132501 5.34571e-05 0)
(-0.0134253 5.20462e-05 0)
(-0.0135947 5.04181e-05 0)
(-0.0137576 4.85604e-05 0)
(-0.0139131 4.64605e-05 0)
(-0.0140605 4.41065e-05 0)
(-0.0141988 4.14874e-05 0)
(-0.0143272 3.85924e-05 0)
(-0.0144447 3.54119e-05 0)
(-0.0145503 3.19372e-05 0)
(-0.0146431 2.81607e-05 0)
(-0.0147221 2.40763e-05 0)
(-0.0147861 1.96797e-05 0)
(-0.0148344 1.49684e-05 0)
(-0.0148657 9.9423e-06 0)
(-0.0148791 4.60357e-06 0)
(-0.0148735 -1.04289e-06 0)
(-0.0148482 -6.98951e-06 0)
(-0.014802 -1.32253e-05 0)
(-0.0147341 -1.97361e-05 0)
(-0.0146436 -2.65042e-05 0)
(-0.0145299 -3.35084e-05 0)
(-0.0143922 -4.07235e-05 0)
(-0.01423 -4.81199e-05 0)
(-0.0140428 -5.56641e-05 0)
(-0.0138301 -6.33184e-05 0)
(-0.0135919 -7.10414e-05 0)
(-0.0133279 -7.87877e-05 0)
(-0.0130383 -8.65079e-05 0)
(-0.0127234 -9.41489e-05 0)
(-0.0123834 -0.000101654 0)
(-0.0120191 -0.000108965 0)
(-0.0116313 -0.000116018 0)
(-0.0112209 -0.000122751 0)
(-0.0107891 -0.000129098 0)
(-0.0103375 -0.000134995 0)
(-0.00986751 -0.000140376 0)
(-0.00938107 -0.000145175 0)
(-0.00888021 -0.000149331 0)
(-0.00836715 -0.000152783 0)
(-0.00784431 -0.000155473 0)
(-0.00731426 -0.000157351 0)
(-0.00677976 -0.000158367 0)
(-0.00624369 -0.000158481 0)
(-0.00570906 -0.000157657 0)
(-0.00517895 -0.000155867 0)
(-0.00465655 -0.000153089 0)
(-0.0041451 -0.000149309 0)
(-0.00364783 -0.000144524 0)
(-0.003168 -0.000138733 0)
(-0.00270882 -0.000131948 0)
(-0.00227347 -0.000124184 0)
(-0.00186503 -0.000115466 0)
(-0.00148646 -0.000105823 0)
(-0.00114059 -9.52923e-05 0)
(-0.000830084 -8.39167e-05 0)
(-0.000557384 -7.17483e-05 0)
(-0.000324674 -5.88516e-05 0)
(-0.000133805 -4.53127e-05 0)
(1.38192e-05 -3.1257e-05 0)
(0.000117419 -1.68854e-05 0)
(0.000177154 -2.54791e-06 0)
(0.000194658 1.11009e-05 0)
(0.00017385 2.28475e-05 0)
(0.000122743 3.03397e-05 0)
(5.90155e-05 2.91598e-05 0)
(1.35414e-05 1.35606e-05 0)
(1.01578e-05 -1.93929e-05 0)
(4.29177e-05 -4.29716e-05 0)
(8.95252e-05 -4.82926e-05 0)
(0.000130661 -4.01573e-05 0)
(0.000153501 -2.35598e-05 0)
(0.000150579 -2.03547e-06 0)
(0.000117323 2.20503e-05 0)
(5.12602e-05 4.71237e-05 0)
(-4.84954e-05 7.21492e-05 0)
(-0.000181703 9.64515e-05 0)
(-0.000347353 0.000119594 0)
(-0.000543915 0.000141306 0)
(-0.000769519 0.000161428 0)
(-0.00102209 0.000179883 0)
(-0.00129944 0.00019665 0)
(-0.00159935 0.00021175 0)
(-0.00191963 0.000225237 0)
(-0.00225814 0.000237185 0)
(-0.00261284 0.000247681 0)
(-0.00298179 0.000256822 0)
(-0.00336318 0.000264712 0)
(-0.00375533 0.000271455 0)
(-0.00415671 0.000277157 0)
(-0.00456591 0.000281924 0)
(-0.00498166 0.000285854 0)
(-0.00540285 0.000289044 0)
(-0.00582846 0.000291586 0)
(-0.00625761 0.000293566 0)
(-0.00668954 0.000295065 0)
(-0.00712359 0.000296156 0)
(-0.00755919 0.000296907 0)
(-0.00799589 0.000297381 0)
(-0.00843331 0.000297635 0)
(-0.00887113 0.000297721 0)
(-0.00930913 0.000297685 0)
(-0.00974714 0.000297568 0)
(-0.010185 0.000297408 0)
(-0.0106228 0.000297236 0)
(-0.0110603 0.000297083 0)
(-0.0114977 0.000296973 0)
(-0.011935 0.000296929 0)
(-0.0123722 0.000296972 0)
(-0.0128096 0.000297117 0)
(-0.0132472 0.00029738 0)
(-0.0136853 0.000297773 0)
(-0.0141239 0.000298307 0)
(-0.0145633 0.000298992 0)
(-0.0150038 0.000299835 0)
(-0.0154454 0.000300843 0)
(-0.0158885 0.000302021 0)
(-0.0163333 0.000303373 0)
(-0.0167801 0.000304901 0)
(-0.017229 0.000306608 0)
(-0.0176803 0.000308495 0)
(-0.0181343 0.00031056 0)
(-0.0185912 0.000312803 0)
(-0.0190513 0.000315221 0)
(-0.0195148 0.00031781 0)
(-0.0199819 0.000320565 0)
(-0.0204529 0.000323479 0)
(-0.0209279 0.000326546 0)
(-0.0214072 0.000329756 0)
(-0.021891 0.0003331 0)
(-0.0223794 0.000336566 0)
(-0.0228725 0.00034014 0)
(-0.0233706 0.000343807 0)
(-0.0238736 0.00034755 0)
(-0.0243818 0.000351351 0)
(-0.024895 0.000355188 0)
(-0.0254134 0.000359038 0)
(-0.025937 0.000362877 0)
(-0.0264656 0.000366676 0)
(-0.0269991 0.000370406 0)
(-0.0275375 0.000374034 0)
(-0.0280805 0.000377524 0)
(-0.0286278 0.000380839 0)
(-0.0291793 0.000383937 0)
(-0.0297344 0.000386777 0)
(-0.0302927 0.00038931 0)
(-0.0308538 0.000391489 0)
(-0.0314171 0.000393262 0)
(-0.0319819 0.000394572 0)
(-0.0325476 0.000395362 0)
(-0.0331131 0.000395572 0)
(-0.0336778 0.000395137 0)
(-0.0342405 0.000393992 0)
(-0.0348002 0.000392066 0)
(-0.0353556 0.00038929 0)
(-0.0359056 0.000385589 0)
(-0.0364486 0.000380887 0)
(-0.0369832 0.000375108 0)
(-0.0375078 0.000368174 0)
(-0.0380206 0.000360005 0)
(-0.0385198 0.000350523 0)
(-0.0390035 0.000339648 0)
(-0.0394696 0.000327303 0)
(-0.0399159 0.000313411 0)
(-0.0403403 0.000297897 0)
(-0.0407404 0.000280692 0)
(-0.0411137 0.000261728 0)
(-0.0414577 0.000240946 0)
(-0.0417699 0.000218289 0)
(-0.0420475 0.000193712 0)
(-0.0422878 0.000167176 0)
(-0.0424881 0.000138654 0)
(-0.0426457 0.000108128 0)
(-0.0427577 7.55966e-05 0)
(-0.0428213 4.10693e-05 0)
(-0.042834 4.57373e-06 0)
(-0.0427929 -3.38458e-05 0)
(-0.0426956 -7.41264e-05 0)
(-0.0425395 -0.000116185 0)
(-0.0423223 -0.000159918 0)
(-0.0420418 -0.0002052 0)
(-0.0416961 -0.000251879 0)
(-0.0412835 -0.000299783 0)
(-0.0408025 -0.000348714 0)
(-0.040252 -0.000398449 0)
(-0.039631 -0.000448738 0)
(-0.0389392 -0.000499311 0)
(-0.0381764 -0.00054987 0)
(-0.037343 -0.000600097 0)
(-0.0364399 -0.000649653 0)
(-0.0354684 -0.000698178 0)
(-0.0344302 -0.000745297 0)
(-0.0333277 -0.000790621 0)
(-0.0321637 -0.00083375 0)
(-0.0309417 -0.000874279 0)
(-0.0296656 -0.000911799 0)
(-0.0283401 -0.000945904 0)
(-0.0269701 -0.000976194 0)
(-0.0255613 -0.00100228 0)
(-0.0241199 -0.0010238 0)
(-0.0226524 -0.00104039 0)
(-0.0211659 -0.00105175 0)
(-0.0196679 -0.00105757 0)
(-0.0181663 -0.0010576 0)
(-0.0166692 -0.00105164 0)
(-0.015185 -0.00103951 0)
(-0.0137225 -0.00102109 0)
(-0.0122901 -0.00099632 0)
(-0.0108969 -0.000965167 0)
(-0.00955149 -0.00092767 0)
(-0.00826256 -0.000883914 0)
(-0.0070386 -0.000834043 0)
(-0.00588783 -0.000778253 0)
(-0.00481809 -0.000716803 0)
(-0.00383679 -0.000650013 0)
(-0.00295078 -0.000578281 0)
(-0.00216618 -0.000502101 0)
(-0.00148825 -0.000422096 0)
(-0.000921099 -0.000339081 0)
(-0.000467391 -0.000254172 0)
(-0.000127794 -0.000168965 0)
(9.97643e-05 -8.5857e-05 0)
(0.000221253 -8.585e-06 0)
(0.000247976 5.69008e-05 0)
(0.000198986 0.000101004 0)
(0.000108253 0.00010848 0)
(2.89891e-05 5.89007e-05 0)
(1.23828e-05 -4.59156e-05 0)
(4.85882e-05 -8.96493e-05 0)
(9.4101e-05 -9.3714e-05 0)
(0.000125523 -6.87873e-05 0)
(0.000127327 -2.42607e-05 0)
(8.99525e-05 3.26131e-05 0)
(7.11168e-06 9.65006e-05 0)
(-0.000124854 0.000163586 0)
(-0.000307492 0.000231184 0)
(-0.000540768 0.000297432 0)
(-0.000823487 0.000361051 0)
(-0.00115364 0.000421198 0)
(-0.00152865 0.000477337 0)
(-0.00194558 0.000529169 0)
(-0.00240125 0.000576561 0)
(-0.00289242 0.000619507 0)
(-0.0034158 0.000658097 0)
(-0.00396819 0.000692486 0)
(-0.00454647 0.000722881 0)
(-0.00514768 0.000749521 0)
(-0.00576904 0.000772666 0)
(-0.00640793 0.000792589 0)
(-0.00706194 0.000809569 0)
(-0.00772888 0.000823882 0)
(-0.00840674 0.000835799 0)
(-0.00909371 0.000845584 0)
(-0.00978818 0.000853487 0)
(-0.0104887 0.000859746 0)
(-0.0111941 0.000864585 0)
(-0.0119033 0.000868213 0)
(-0.0126153 0.000870821 0)
(-0.0133293 0.000872587 0)
(-0.0140448 0.000873673 0)
(-0.0147611 0.000874227 0)
(-0.0154779 0.000874382 0)
(-0.0161949 0.000874259 0)
(-0.0169118 0.000873965 0)
(-0.0176286 0.000873597 0)
(-0.0183451 0.00087324 0)
(-0.0190614 0.00087297 0)
(-0.0197775 0.000872854 0)
(-0.0204936 0.000872952 0)
(-0.0212098 0.000873313 0)
(-0.0219263 0.000873984 0)
(-0.0226434 0.000875001 0)
(-0.0233613 0.0008764 0)
(-0.0240803 0.000878208 0)
(-0.0248008 0.000880448 0)
(-0.025523 0.000883141 0)
(-0.0262474 0.000886302 0)
(-0.0269742 0.000889943 0)
(-0.0277039 0.000894074 0)
(-0.0284369 0.000898699 0)
(-0.0291734 0.000903821 0)
(-0.0299139 0.000909438 0)
(-0.0306589 0.000915545 0)
(-0.0314085 0.000922135 0)
(-0.0321633 0.000929196 0)
(-0.0329235 0.000936714 0)
(-0.0336895 0.000944668 0)
(-0.0344616 0.000953038 0)
(-0.0352402 0.000961795 0)
(-0.0360254 0.000970909 0)
(-0.0368176 0.000980344 0)
(-0.037617 0.000990061 0)
(-0.0384236 0.00100001 0)
(-0.0392378 0.00101015 0)
(-0.0400595 0.00102042 0)
(-0.0408888 0.00103075 0)
(-0.0417258 0.00104108 0)
(-0.0425702 0.00105134 0)
(-0.0434221 0.00106144 0)
(-0.0442812 0.00107129 0)
(-0.0451473 0.0010808 0)
(-0.0460199 0.00108987 0)
(-0.0468986 0.00109838 0)
(-0.047783 0.00110622 0)
(-0.0486723 0.00111327 0)
(-0.0495659 0.00111938 0)
(-0.0504628 0.00112442 0)
(-0.0513621 0.00112823 0)
(-0.0522628 0.00113067 0)
(-0.0531636 0.00113155 0)
(-0.0540632 0.00113072 0)
(-0.05496 0.00112799 0)
(-0.0558525 0.00112316 0)
(-0.0567389 0.00111605 0)
(-0.0576171 0.00110646 0)
(-0.0584852 0.00109417 0)
(-0.0593408 0.00107899 0)
(-0.0601815 0.00106068 0)
(-0.0610048 0.00103904 0)
(-0.0618078 0.00101385 0)
(-0.0625877 0.00098489 0)
(-0.0633414 0.000951943 0)
(-0.0640655 0.000914796 0)
(-0.0647568 0.000873244 0)
(-0.0654116 0.000827088 0)
(-0.0660263 0.000776139 0)
(-0.066597 0.000720223 0)
(-0.0671197 0.000659181 0)
(-0.0675905 0.000592874 0)
(-0.0680051 0.000521183 0)
(-0.0683593 0.000444019 0)
(-0.068649 0.000361319 0)
(-0.0688698 0.000273055 0)
(-0.0690174 0.000179235 0)
(-0.0690877 7.99084e-05 0)
(-0.0690764 -2.48315e-05 0)
(-0.0689794 -0.000134842 0)
(-0.068793 -0.00024993 0)
(-0.0685133 -0.000369846 0)
(-0.0681369 -0.000494281 0)
(-0.0676606 -0.000622866 0)
(-0.0670814 -0.00075517 0)
(-0.0663968 -0.000890693 0)
(-0.0656048 -0.00102887 0)
(-0.0647036 -0.00116907 0)
(-0.0636922 -0.0013106 0)
(-0.0625701 -0.00145268 0)
(-0.0613373 -0.0015945 0)
(-0.0599946 -0.00173516 0)
(-0.0585433 -0.00187372 0)
(-0.0569858 -0.00200919 0)
(-0.0553249 -0.00214054 0)
(-0.0535644 -0.00226669 0)
(-0.0517089 -0.00238655 0)
(-0.0497638 -0.002499 0)
(-0.0477354 -0.00260292 0)
(-0.0456308 -0.00269722 0)
(-0.043458 -0.00278079 0)
(-0.0412256 -0.00285259 0)
(-0.0389433 -0.0029116 0)
(-0.0366212 -0.00295689 0)
(-0.0342704 -0.00298757 0)
(-0.0319024 -0.00300287 0)
(-0.0295293 -0.00300211 0)
(-0.0271636 -0.00298471 0)
(-0.0248184 -0.00295022 0)
(-0.0225068 -0.00289833 0)
(-0.0202424 -0.00282887 0)
(-0.0180384 -0.0027418 0)
(-0.0159084 -0.00263724 0)
(-0.0138656 -0.00251548 0)
(-0.0119229 -0.00237695 0)
(-0.0100927 -0.00222228 0)
(-0.00838697 -0.00205226 0)
(-0.00681671 -0.00186791 0)
(-0.00539206 -0.00167049 0)
(-0.00412194 -0.00146156 0)
(-0.00301375 -0.00124311 0)
(-0.00207303 -0.00101769 0)
(-0.00130293 -0.0007887 0)
(-0.000703503 -0.000560781 0)
(-0.000270733 -0.000340478 0)
(4.75313e-06 -0.000137218 0)
(0.000139171 3.52233e-05 0)
(0.000157679 0.00015685 0)
(0.000100936 0.00019913 0)
(3.00643e-05 0.000122257 0)
(1.13604e-05 -7.2498e-05 0)
(4.08181e-05 -0.000131112 0)
(6.96209e-05 -0.000125242 0)
(7.34332e-05 -7.27502e-05 0)
(3.58686e-05 1.21843e-05 0)
(-5.357e-05 0.000118314 0)
(-0.000201962 0.000237017 0)
(-0.00041357 0.000361872 0)
(-0.000690312 0.00048817 0)
(-0.00103227 0.000612514 0)
(-0.00143813 0.000732496 0)
(-0.00190555 0.000846457 0)
(-0.00243146 0.000953307 0)
(-0.00301224 0.00105239 0)
(-0.00364402 0.00114336 0)
(-0.00432269 0.00122614 0)
(-0.00504414 0.00130082 0)
(-0.00580426 0.00136764 0)
(-0.00659909 0.00142695 0)
(-0.00742478 0.00147915 0)
(-0.00827771 0.0015247 0)
(-0.00915446 0.00156409 0)
(-0.0100519 0.00159783 0)
(-0.0109671 0.00162643 0)
(-0.0118973 0.00165039 0)
(-0.0128403 0.00167019 0)
(-0.0137937 0.00168632 0)
(-0.0147557 0.00169921 0)
(-0.0157247 0.0017093 0)
(-0.016699 0.00171698 0)
(-0.0176775 0.00172262 0)
(-0.0186591 0.00172656 0)
(-0.0196428 0.00172912 0)
(-0.020628 0.00173057 0)
(-0.021614 0.00173119 0)
(-0.0226003 0.00173119 0)
(-0.0235867 0.00173081 0)
(-0.0245729 0.00173022 0)
(-0.0255588 0.0017296 0)
(-0.0265444 0.00172909 0)
(-0.0275297 0.00172884 0)
(-0.0285149 0.00172895 0)
(-0.0295001 0.00172953 0)
(-0.0304856 0.00173067 0)
(-0.0314717 0.00173244 0)
(-0.0324586 0.00173492 0)
(-0.0334469 0.00173817 0)
(-0.0344369 0.00174222 0)
(-0.035429 0.00174712 0)
(-0.0364236 0.00175291 0)
(-0.0374213 0.0017596 0)
(-0.0384225 0.00176721 0)
(-0.0394277 0.00177577 0)
(-0.0404373 0.00178525 0)
(-0.041452 0.00179568 0)
(-0.0424721 0.00180703 0)
(-0.0434982 0.00181929 0)
(-0.0445307 0.00183244 0)
(-0.04557 0.00184645 0)
(-0.0466167 0.00186127 0)
(-0.047671 0.00187686 0)
(-0.0487335 0.00189318 0)
(-0.0498043 0.00191015 0)
(-0.0508839 0.0019277 0)
(-0.0519725 0.00194576 0)
(-0.0530702 0.00196422 0)
(-0.0541773 0.001983 0)
(-0.0552939 0.00200198 0)
(-0.0564199 0.00202103 0)
(-0.0575553 0.00204002 0)
(-0.0587 0.0020588 0)
(-0.0598538 0.00207721 0)
(-0.0610163 0.00209508 0)
(-0.0621871 0.00211221 0)
(-0.0633657 0.00212841 0)
(-0.0645515 0.00214345 0)
(-0.0657436 0.00215711 0)
(-0.0669413 0.00216914 0)
(-0.0681433 0.00217928 0)
(-0.0693486 0.00218726 0)
(-0.0705558 0.00219277 0)
(-0.0717634 0.00219553 0)
(-0.0729696 0.00219519 0)
(-0.0741727 0.00219144 0)
(-0.0753705 0.00218391 0)
(-0.0765609 0.00217226 0)
(-0.0777413 0.00215609 0)
(-0.0789092 0.00213504 0)
(-0.0800617 0.0021087 0)
(-0.0811957 0.00207668 0)
(-0.0823079 0.00203857 0)
(-0.0833949 0.00199395 0)
(-0.0844529 0.00194241 0)
(-0.085478 0.00188355 0)
(-0.0864661 0.00181696 0)
(-0.0874129 0.00174225 0)
(-0.0883137 0.00165902 0)
(-0.089164 0.00156692 0)
(-0.0899587 0.0014656 0)
(-0.0906929 0.00135474 0)
(-0.0913612 0.00123406 0)
(-0.0919585 0.0011033 0)
(-0.0924792 0.00096228 0)
(-0.0929179 0.000810832 0)
(-0.093269 0.000648865 0)
(-0.0935269 0.000476349 0)
(-0.0936861 0.000293326 0)
(-0.0937412 9.99142e-05 0)
(-0.0936868 -0.000103681 0)
(-0.0935176 -0.000317164 0)
(-0.0932288 -0.000540139 0)
(-0.0928155 -0.000772107 0)
(-0.0922733 -0.00101246 0)
(-0.0915983 -0.00126047 0)
(-0.0907867 -0.00151529 0)
(-0.0898355 -0.00177596 0)
(-0.0887422 -0.00204139 0)
(-0.0875048 -0.00231036 0)
(-0.086122 -0.00258154 0)
(-0.0845934 -0.00285346 0)
(-0.0829192 -0.00312456 0)
(-0.0811007 -0.00339315 0)
(-0.0791399 -0.00365744 0)
(-0.0770399 -0.00391555 0)
(-0.0748047 -0.00416555 0)
(-0.0724393 -0.00440539 0)
(-0.06995 -0.00463304 0)
(-0.0673439 -0.0048464 0)
(-0.0646293 -0.00504337 0)
(-0.0618156 -0.00522187 0)
(-0.0589132 -0.00537988 0)
(-0.0559336 -0.00551542 0)
(-0.0528892 -0.0056266 0)
(-0.0497934 -0.00571167 0)
(-0.0466605 -0.005769 0)
(-0.0435055 -0.00579713 0)
(-0.0403442 -0.0057948 0)
(-0.0371929 -0.00576095 0)
(-0.0340684 -0.00569476 0)
(-0.0309878 -0.00559565 0)
(-0.0279686 -0.00546332 0)
(-0.0250281 -0.00529774 0)
(-0.0221836 -0.0050992 0)
(-0.0194523 -0.00486826 0)
(-0.0168506 -0.00460585 0)
(-0.0143947 -0.0043132 0)
(-0.0120995 -0.00399197 0)
(-0.00997927 -0.00364422 0)
(-0.0080466 -0.00327251 0)
(-0.00631258 -0.00288003 0)
(-0.00478623 -0.00247078 0)
(-0.00347405 -0.00204985 0)
(-0.00237948 -0.00162381 0)
(-0.00150205 -0.00120139 0)
(-0.000836482 -0.000794371 0)
(-0.000371409 -0.000418915 0)
(-8.80917e-05 -9.74266e-05 0)
(4.13506e-05 0.000139317 0)
(5.86137e-05 0.000249444 0)
(2.27513e-05 0.000173299 0)
(8.54223e-06 -9.23198e-05 0)
(2.4378e-05 -0.000154352 0)
(2.48242e-05 -0.000126971 0)
(-1.26314e-05 -3.50273e-05 0)
(-0.000103834 0.000102484 0)
(-0.000259382 0.000270372 0)
(-0.000486472 0.000456732 0)
(-0.000789456 0.000652455 0)
(-0.00117029 0.000850678 0)
(-0.00162901 0.00104631 0)
(-0.00216413 0.00123565 0)
(-0.00277301 0.00141606 0)
(-0.00345215 0.00158578 0)
(-0.00419744 0.00174367 0)
(-0.00500439 0.00188912 0)
(-0.00586825 0.0020219 0)
(-0.00678422 0.00214208 0)
(-0.00774746 0.00224996 0)
(-0.00875327 0.00234602 0)
(-0.00979708 0.00243086 0)
(-0.0108746 0.00250515 0)
(-0.0119816 0.00256964 0)
(-0.0131144 0.00262509 0)
(-0.0142695 0.00267228 0)
(-0.0154435 0.002712 0)
(-0.0166335 0.00274501 0)
(-0.0178368 0.00277204 0)
(-0.0190511 0.00279381 0)
(-0.0202743 0.00281098 0)
(-0.0215045 0.00282418 0)
(-0.0227402 0.00283401 0)
(-0.0239798 0.002841 0)
(-0.0252224 0.00284567 0)
(-0.0264669 0.00284846 0)
(-0.0277125 0.00284982 0)
(-0.0289587 0.0028501 0)
(-0.0302049 0.00284967 0)
(-0.031451 0.00284882 0)
(-0.0326967 0.00284784 0)
(-0.0339418 0.00284698 0)
(-0.0351866 0.00284644 0)
(-0.036431 0.00284643 0)
(-0.0376752 0.00284713 0)
(-0.0389196 0.00284866 0)
(-0.0401644 0.00285118 0)
(-0.0414101 0.00285478 0)
(-0.0426571 0.00285957 0)
(-0.0439058 0.00286563 0)
(-0.0451567 0.00287301 0)
(-0.0464104 0.00288179 0)
(-0.0476675 0.00289199 0)
(-0.0489284 0.00290364 0)
(-0.0501938 0.00291677 0)
(-0.0514643 0.00293138 0)
(-0.0527404 0.00294747 0)
(-0.0540227 0.00296502 0)
(-0.0553119 0.00298399 0)
(-0.0566083 0.00300436 0)
(-0.0579126 0.00302607 0)
(-0.0592253 0.00304906 0)
(-0.0605468 0.00307324 0)
(-0.0618777 0.00309854 0)
(-0.0632181 0.00312484 0)
(-0.0645686 0.00315202 0)
(-0.0659294 0.00317995 0)
(-0.0673007 0.00320849 0)
(-0.0686826 0.00323745 0)
(-0.0700753 0.00326666 0)
(-0.0714787 0.0032959 0)
(-0.0728927 0.00332497 0)
(-0.0743171 0.0033536 0)
(-0.0757516 0.00338154 0)
(-0.0771956 0.0034085 0)
(-0.0786487 0.00343417 0)
(-0.0801102 0.00345823 0)
(-0.0815792 0.00348031 0)
(-0.0830546 0.00350004 0)
(-0.0845353 0.00351703 0)
(-0.0860199 0.00353084 0)
(-0.087507 0.00354103 0)
(-0.0889948 0.00354712 0)
(-0.0904813 0.00354863 0)
(-0.0919644 0.00354504 0)
(-0.0934418 0.0035358 0)
(-0.0949108 0.00352036 0)
(-0.0963687 0.00349814 0)
(-0.0978124 0.00346854 0)
(-0.0992385 0.00343094 0)
(-0.100644 0.00338472 0)
(-0.102024 0.00332925 0)
(-0.103375 0.00326388 0)
(-0.104693 0.00318795 0)
(-0.105973 0.00310083 0)
(-0.107211 0.00300187 0)
(-0.108401 0.00289044 0)
(-0.109537 0.00276593 0)
(-0.110616 0.00262773 0)
(-0.11163 0.00247528 0)
(-0.112573 0.00230807 0)
(-0.11344 0.0021256 0)
(-0.114225 0.00192745 0)
(-0.11492 0.00171326 0)
(-0.11552 0.00148273 0)
(-0.116017 0.00123565 0)
(-0.116405 0.000971907 0)
(-0.116678 0.000691485 0)
(-0.116829 0.000394484 0)
(-0.116851 8.11299e-05 0)
(-0.116738 -0.000248216 0)
(-0.116484 -0.000593048 0)
(-0.116083 -0.000952703 0)
(-0.115529 -0.00132636 0)
(-0.114818 -0.001713 0)
(-0.113944 -0.00211147 0)
(-0.112904 -0.00252039 0)
(-0.111694 -0.0029382 0)
(-0.110311 -0.00336316 0)
(-0.108753 -0.00379332 0)
(-0.107019 -0.00422656 0)
(-0.105109 -0.00466055 0)
(-0.103022 -0.00509279 0)
(-0.100761 -0.00552063 0)
(-0.0983279 -0.00594125 0)
(-0.0957272 -0.00635168 0)
(-0.0929637 -0.00674886 0)
(-0.0900436 -0.0071296 0)
(-0.0869744 -0.00749069 0)
(-0.0837649 -0.00782884 0)
(-0.0804252 -0.00814078 0)
(-0.0769666 -0.00842325 0)
(-0.0734016 -0.00867306 0)
(-0.069744 -0.00888714 0)
(-0.0660089 -0.00906255 0)
(-0.0622121 -0.00919653 0)
(-0.0583709 -0.00928654 0)
(-0.0545032 -0.00933033 0)
(-0.0506278 -0.00932592 0)
(-0.0467643 -0.00927167 0)
(-0.0429327 -0.00916631 0)
(-0.0391534 -0.00900897 0)
(-0.0354472 -0.00879921 0)
(-0.0318348 -0.00853704 0)
(-0.0283368 -0.00822294 0)
(-0.0249735 -0.0078579 0)
(-0.0217645 -0.00744344 0)
(-0.0187288 -0.00698167 0)
(-0.0158842 -0.00647531 0)
(-0.0132472 -0.00592779 0)
(-0.0108326 -0.00534337 0)
(-0.00865319 -0.00472732 0)
(-0.00671936 -0.00408616 0)
(-0.00503845 -0.00342806 0)
(-0.00361423 -0.00276339 0)
(-0.00244614 -0.00210552 0)
(-0.00152844 -0.00147189 0)
(-0.000849145 -0.000885602 0)
(-0.000388926 -0.000377461 0)
(-0.000119648 1.17366e-05 0)
(-2.67604e-06 0.000228114 0)
(1.16398e-05 0.000195435 0)
(4.77108e-06 -0.000101831 0)
(2.51996e-06 -0.000151377 0)
(-3.37429e-05 -8.84079e-05 0)
(-0.000122717 5.61891e-05 0)
(-0.000278582 0.000258946 0)
(-0.000511388 0.000500938 0)
(-0.000827901 0.000767114 0)
(-0.00123213 0.00104574 0)
(-0.00172575 0.00132779 0)
(-0.00230855 0.00160642 0)
(-0.00297874 0.00187656 0)
(-0.00373336 0.00213455 0)
(-0.00456851 0.00237781 0)
(-0.00547962 0.0026047 0)
(-0.0064617 0.00281425 0)
(-0.00750946 0.00300604 0)
(-0.00861749 0.0031801 0)
(-0.00978037 0.00333676 0)
(-0.0109928 0.00347664 0)
(-0.0122495 0.00360052 0)
(-0.0135457 0.00370931 0)
(-0.0148766 0.00380403 0)
(-0.0162378 0.00388572 0)
(-0.0176252 0.0039555 0)
(-0.0190351 0.00401443 0)
(-0.0204641 0.0040636 0)
(-0.021909 0.00410404 0)
(-0.023367 0.00413677 0)
(-0.0248357 0.00416274 0)
(-0.0263129 0.00418285 0)
(-0.0277966 0.00419794 0)
(-0.0292852 0.00420881 0)
(-0.0307774 0.00421618 0)
(-0.0322719 0.00422072 0)
(-0.0337679 0.00422304 0)
(-0.0352645 0.00422369 0)
(-0.0367611 0.00422319 0)
(-0.0382574 0.00422198 0)
(-0.0397532 0.00422047 0)
(-0.0412482 0.00421903 0)
(-0.0427424 0.00421799 0)
(-0.044236 0.00421762 0)
(-0.0457292 0.00421819 0)
(-0.0472222 0.00421992 0)
(-0.0487153 0.004223 0)
(-0.0502091 0.00422759 0)
(-0.0517039 0.00423385 0)
(-0.0532003 0.0042419 0)
(-0.0546989 0.00425182 0)
(-0.0562002 0.00426371 0)
(-0.0577049 0.00427763 0)
(-0.0592136 0.00429361 0)
(-0.060727 0.00431169 0)
(-0.0622457 0.00433187 0)
(-0.0637703 0.00435416 0)
(-0.0653016 0.00437851 0)
(-0.0668402 0.00440489 0)
(-0.0683866 0.00443324 0)
(-0.0699415 0.00446348 0)
(-0.0715055 0.00449552 0)
(-0.073079 0.00452924 0)
(-0.0746625 0.0045645 0)
(-0.0762565 0.00460115 0)
(-0.0778613 0.00463901 0)
(-0.0794772 0.00467787 0)
(-0.0811045 0.00471751 0)
(-0.0827431 0.00475768 0)
(-0.0843933 0.0047981 0)
(-0.0860549 0.00483846 0)
(-0.0877277 0.00487844 0)
(-0.0894114 0.00491768 0)
(-0.0911056 0.00495578 0)
(-0.0928097 0.00499231 0)
(-0.094523 0.00502683 0)
(-0.0962446 0.00505886 0)
(-0.0979733 0.00508786 0)
(-0.099708 0.00511329 0)
(-0.101447 0.00513457 0)
(-0.103189 0.00515107 0)
(-0.104932 0.00516213 0)
(-0.106674 0.00516709 0)
(-0.108413 0.0051652 0)
(-0.110145 0.00515574 0)
(-0.111869 0.00513791 0)
(-0.113581 0.0051109 0)
(-0.115278 0.00507389 0)
(-0.116955 0.00502601 0)
(-0.11861 0.00496637 0)
(-0.120238 0.0048941 0)
(-0.121834 0.00480826 0)
(-0.123394 0.00470795 0)
(-0.124913 0.00459225 0)
(-0.126385 0.00446023 0)
(-0.127804 0.00431099 0)
(-0.129166 0.00414364 0)
(-0.130463 0.00395732 0)
(-0.131689 0.00375119 0)
(-0.132838 0.00352447 0)
(-0.133902 0.00327645 0)
(-0.134875 0.00300645 0)
(-0.13575 0.0027139 0)
(-0.136518 0.00239832 0)
(-0.137173 0.00205932 0)
(-0.137707 0.00169665 0)
(-0.138112 0.00131018 0)
(-0.138382 0.000899931 0)
(-0.138507 0.000466099 0)
(-0.138482 9.05037e-06 0)
(-0.138299 -0.000470652 0)
(-0.13795 -0.000972239 0)
(-0.137431 -0.00149472 0)
(-0.136733 -0.00203686 0)
(-0.135853 -0.00259721 0)
(-0.134784 -0.00317402 0)
(-0.133521 -0.00376532 0)
(-0.132062 -0.00436886 0)
(-0.130404 -0.00498211 0)
(-0.128543 -0.00560227 0)
(-0.126479 -0.00622629 0)
(-0.124211 -0.00685085 0)
(-0.12174 -0.00747238 0)
(-0.11907 -0.00808709 0)
(-0.116201 -0.00869095 0)
(-0.11314 -0.00927978 0)
(-0.109892 -0.0098492 0)
(-0.106465 -0.0103947 0)
(-0.102867 -0.0109118 0)
(-0.0991075 -0.0113957 0)
(-0.0951992 -0.0118418 0)
(-0.0911547 -0.0122456 0)
(-0.0869883 -0.0126026 0)
(-0.0827159 -0.0129083 0)
(-0.0783544 -0.0131587 0)
(-0.0739222 -0.0133498 0)
(-0.0694388 -0.0134781 0)
(-0.0649245 -0.0135404 0)
(-0.0604009 -0.0135339 0)
(-0.0558901 -0.0134563 0)
(-0.051415 -0.0133059 0)
(-0.0469987 -0.0130814 0)
(-0.0426648 -0.0127822 0)
(-0.0384368 -0.0124084 0)
(-0.0343381 -0.0119608 0)
(-0.0303917 -0.0114408 0)
(-0.0266199 -0.0108508 0)
(-0.023044 -0.0101937 0)
(-0.0196842 -0.00947381 0)
(-0.016559 -0.00869603 0)
(-0.0136851 -0.00786666 0)
(-0.0110767 -0.00699339 0)
(-0.00874546 -0.00608564 0)
(-0.00669961 -0.00515507 0)
(-0.00494356 -0.00421617 0)
(-0.00347716 -0.00328717 0)
(-0.00229504 -0.00239129 0)
(-0.00138581 -0.00155832 0)
(-0.000731095 -0.000826791 0)
(-0.000304379 -0.000246277 0)
(-7.29148e-05 0.000119431 0)
(-8.27107e-07 0.000182084 0)
(5.13374e-07 -9.89593e-05 0)
(-2.26489e-05 -0.000116718 0)
(-0.000101419 -1.85545e-06 0)
(-0.000249413 0.000209913 0)
(-0.000478323 0.000491199 0)
(-0.000797118 0.000819707 0)
(-0.00121169 0.00117748 0)
(-0.00172531 0.00155031 0)
(-0.00233912 0.00192709 0)
(-0.00305241 0.00229928 0)
(-0.00386299 0.00266043 0)
(-0.00476746 0.00300578 0)
(-0.0057615 0.00333198 0)
(-0.00684011 0.00363679 0)
(-0.00799782 0.00391886 0)
(-0.00922884 0.00417758 0)
(-0.0105273 0.00441286 0)
(-0.0118871 0.00462511 0)
(-0.0133026 0.00481504 0)
(-0.014768 0.00498362 0)
(-0.0162778 0.00513202 0)
(-0.0178269 0.00526154 0)
(-0.0194103 0.00537354 0)
(-0.0210235 0.00546945 0)
(-0.0226622 0.00555069 0)
(-0.0243227 0.00561867 0)
(-0.0260013 0.00567477 0)
(-0.027695 0.00572033 0)
(-0.029401 0.00575663 0)
(-0.0311166 0.00578486 0)
(-0.0328398 0.00580617 0)
(-0.0345686 0.00582161 0)
(-0.0363014 0.00583216 0)
(-0.0380368 0.00583872 0)
(-0.0397738 0.00584213 0)
(-0.0415115 0.00584314 0)
(-0.043249 0.00584245 0)
(-0.044986 0.00584066 0)
(-0.0467221 0.00583835 0)
(-0.048457 0.00583601 0)
(-0.0501908 0.00583409 0)
(-0.0519235 0.00583298 0)
(-0.0536553 0.00583305 0)
(-0.0553864 0.00583459 0)
(-0.0571172 0.00583789 0)
(-0.0588482 0.00584316 0)
(-0.0605799 0.00585061 0)
(-0.0623128 0.00586041 0)
(-0.0640476 0.0058727 0)
(-0.0657848 0.00588759 0)
(-0.0675251 0.00590517 0)
(-0.0692694 0.00592549 0)
(-0.0710181 0.0059486 0)
(-0.0727722 0.0059745 0)
(-0.0745322 0.00600319 0)
(-0.076299 0.00603462 0)
(-0.0780731 0.00606874 0)
(-0.0798554 0.00610547 0)
(-0.0816463 0.00614469 0)
(-0.0834465 0.00618627 0)
(-0.0852566 0.00623004 0)
(-0.0870771 0.00627582 0)
(-0.0889084 0.00632339 0)
(-0.0907508 0.00637249 0)
(-0.0926047 0.00642285 0)
(-0.0944702 0.00647415 0)
(-0.0963475 0.00652604 0)
(-0.0982366 0.00657814 0)
(-0.100137 0.00663002 0)
(-0.102049 0.00668123 0)
(-0.103972 0.00673126 0)
(-0.105905 0.00677959 0)
(-0.107848 0.00682562 0)
(-0.1098 0.00686874 0)
(-0.111759 0.00690827 0)
(-0.113725 0.00694351 0)
(-0.115695 0.00697371 0)
(-0.117669 0.00699805 0)
(-0.119644 0.00701571 0)
(-0.121618 0.00702579 0)
(-0.123589 0.00702735 0)
(-0.125554 0.00701943 0)
(-0.127509 0.00700101 0)
(-0.129453 0.00697103 0)
(-0.13138 0.00692841 0)
(-0.133288 0.00687201 0)
(-0.135172 0.0068007 0)
(-0.137027 0.00671328 0)
(-0.13885 0.00660856 0)
(-0.140634 0.00648532 0)
(-0.142374 0.00634234 0)
(-0.144065 0.0061784 0)
(-0.145701 0.00599228 0)
(-0.147275 0.00578279 0)
(-0.148781 0.00554875 0)
(-0.150211 0.00528904 0)
(-0.151559 0.00500256 0)
(-0.152817 0.00468832 0)
(-0.153977 0.00434537 0)
(-0.155032 0.00397287 0)
(-0.155974 0.00357009 0)
(-0.156794 0.00313642 0)
(-0.157484 0.00267141 0)
(-0.158036 0.00217475 0)
(-0.158441 0.00164634 0)
(-0.158692 0.00108626 0)
(-0.158779 0.000494818 0)
(-0.158696 -0.000127433 0)
(-0.158434 -0.000779687 0)
(-0.157986 -0.00146086 0)
(-0.157344 -0.00216958 0)
(-0.156503 -0.00290415 0)
(-0.155456 -0.00366257 0)
(-0.154197 -0.00444248 0)
(-0.152721 -0.00524121 0)
(-0.151026 -0.0060557 0)
(-0.149107 -0.00688257 0)
(-0.146961 -0.00771806 0)
(-0.14459 -0.00855807 0)
(-0.141991 -0.00939819 0)
(-0.139166 -0.0102336 0)
(-0.136117 -0.0110594 0)
(-0.13285 -0.01187 0)
(-0.129367 -0.01266 0)
(-0.125677 -0.0134236 0)
(-0.121787 -0.0141548 0)
(-0.117708 -0.0148475 0)
(-0.113449 -0.0154956 0)
(-0.109025 -0.016093 0)
(-0.104449 -0.0166335 0)
(-0.099737 -0.0171112 0)
(-0.0949071 -0.0175204 0)
(-0.0899777 -0.0178555 0)
(-0.0849691 -0.0181115 0)
(-0.0799026 -0.0182836 0)
(-0.0748009 -0.0183675 0)