/*--------------------------------*- C++ -*----------------------------------*\
  =========                 |
  \\      /  F ield         | OpenFOAM: The Open Source CFD Toolbox
   \\    /   O peration     | Website:  https://openfoam.org
    \\  /    A nd           | Version:  7
     \\/     M anipulation  |
\*---------------------------------------------------------------------------*/
FoamFile
{
    version     2.0;
    format      ascii;
    class       volVectorField;
    location    "0.1125";
    object      U;
}
// * * * * * * * * * * * * * * * * * * * * * * * * * * * * * * * * * * * * * //

dimensions      [0 1 -1 0 0 0 0];

internalField   nonuniform List<vector> 
51200
(
(3.75857e-07 3.44266e-07 0)
(-8.5224e-08 4.98741e-07 0)
(-2.06898e-07 2.25644e-07 0)
(-6.37255e-07 1.85164e-07 0)
(-7.93627e-07 1.52947e-07 0)
(-9.45374e-07 1.2963e-07 0)
(-1.06221e-06 1.07169e-07 0)
(-1.13334e-06 8.2467e-08 0)
(-1.1511e-06 5.33978e-08 0)
(-1.11229e-06 2.74091e-08 0)
(-1.01973e-06 -2.7642e-09 0)
(-8.71346e-07 -2.82866e-08 0)
(-6.64042e-07 -5.59901e-08 0)
(-4.10546e-07 -8.44304e-08 0)
(-1.05394e-07 -1.05324e-07 0)
(2.43464e-07 -1.27043e-07 0)
(6.24145e-07 -1.44749e-07 0)
(1.04366e-06 -1.60752e-07 0)
(1.48451e-06 -1.71303e-07 0)
(1.94131e-06 -1.78624e-07 0)
(2.41909e-06 -1.82063e-07 0)
(2.90313e-06 -1.80181e-07 0)
(3.39269e-06 -1.78966e-07 0)
(3.89028e-06 -1.7885e-07 0)
(4.39212e-06 -1.78746e-07 0)
(4.89541e-06 -1.79209e-07 0)
(5.3997e-06 -1.78667e-07 0)
(5.90421e-06 -1.75896e-07 0)
(6.40628e-06 -1.71521e-07 0)
(6.90409e-06 -1.67231e-07 0)
(7.39779e-06 -1.63242e-07 0)
(7.88668e-06 -1.58591e-07 0)
(8.3697e-06 -1.54055e-07 0)
(8.84647e-06 -1.50208e-07 0)
(9.31663e-06 -1.46003e-07 0)
(9.77964e-06 -1.41145e-07 0)
(1.02346e-05 -1.36219e-07 0)
(1.06806e-05 -1.31469e-07 0)
(1.11177e-05 -1.27261e-07 0)
(1.1546e-05 -1.23063e-07 0)
(1.19652e-05 -1.18314e-07 0)
(1.23752e-05 -1.14133e-07 0)
(1.27768e-05 -1.10912e-07 0)
(1.31699e-05 -1.08181e-07 0)
(1.35553e-05 -1.05868e-07 0)
(1.39332e-05 -1.03972e-07 0)
(1.4303e-05 -1.01951e-07 0)
(1.46647e-05 -9.9494e-08 0)
(1.50184e-05 -9.6975e-08 0)
(1.53638e-05 -9.44052e-08 0)
(1.57004e-05 -9.1944e-08 0)
(1.60276e-05 -8.96653e-08 0)
(1.63451e-05 -8.72012e-08 0)
(1.66523e-05 -8.43492e-08 0)
(1.69485e-05 -8.08927e-08 0)
(1.72335e-05 -7.71581e-08 0)
(1.75067e-05 -7.34434e-08 0)
(1.7768e-05 -6.98373e-08 0)
(1.80177e-05 -6.65598e-08 0)
(1.82561e-05 -6.34592e-08 0)
(1.84836e-05 -6.04257e-08 0)
(1.87007e-05 -5.78597e-08 0)
(1.8908e-05 -5.60274e-08 0)
(1.91063e-05 -5.46499e-08 0)
(1.92958e-05 -5.31324e-08 0)
(1.9476e-05 -5.10281e-08 0)
(1.96459e-05 -4.83392e-08 0)
(1.98048e-05 -4.54054e-08 0)
(1.99525e-05 -4.24484e-08 0)
(2.0089e-05 -3.94851e-08 0)
(2.02138e-05 -3.64459e-08 0)
(2.03268e-05 -3.31551e-08 0)
(2.04271e-05 -2.93271e-08 0)
(2.05141e-05 -2.47574e-08 0)
(2.05875e-05 -1.96531e-08 0)
(2.06473e-05 -1.46669e-08 0)
(2.06933e-05 -1.02353e-08 0)
(2.07255e-05 -6.18257e-09 0)
(2.0744e-05 -2.00133e-09 0)
(2.07486e-05 2.48045e-09 0)
(2.07391e-05 7.04144e-09 0)
(2.07157e-05 1.15856e-08 0)
(2.06788e-05 1.61614e-08 0)
(2.06287e-05 2.07196e-08 0)
(2.05653e-05 2.50835e-08 0)
(2.04892e-05 2.90457e-08 0)
(2.04006e-05 3.24475e-08 0)
(2.03001e-05 3.53059e-08 0)
(2.01879e-05 3.80468e-08 0)
(2.00643e-05 4.11336e-08 0)
(1.99297e-05 4.44836e-08 0)
(1.9784e-05 4.76333e-08 0)
(1.96272e-05 5.02314e-08 0)
(1.94597e-05 5.23638e-08 0)
(1.92816e-05 5.44738e-08 0)
(1.90928e-05 5.69618e-08 0)
(1.88931e-05 5.9919e-08 0)
(1.86822e-05 6.31736e-08 0)
(1.84601e-05 6.64643e-08 0)
(1.82263e-05 6.95939e-08 0)
(1.79808e-05 7.25667e-08 0)
(1.77235e-05 7.56082e-08 0)
(1.74545e-05 7.88646e-08 0)
(1.71739e-05 8.22796e-08 0)
(1.68818e-05 8.57593e-08 0)
(1.65786e-05 8.91068e-08 0)
(1.62649e-05 9.20949e-08 0)
(1.59412e-05 9.46515e-08 0)
(1.5608e-05 9.68562e-08 0)
(1.52659e-05 9.89058e-08 0)
(1.49153e-05 1.00932e-07 0)
(1.45565e-05 1.02901e-07 0)
(1.41899e-05 1.04738e-07 0)
(1.3816e-05 1.0639e-07 0)
(1.34352e-05 1.07905e-07 0)
(1.30476e-05 1.0945e-07 0)
(1.26531e-05 1.11143e-07 0)
(1.22516e-05 1.13069e-07 0)
(1.18429e-05 1.15252e-07 0)
(1.14273e-05 1.1755e-07 0)
(1.10052e-05 1.19814e-07 0)
(1.05772e-05 1.21949e-07 0)
(1.0144e-05 1.23828e-07 0)
(9.70633e-06 1.25431e-07 0)
(9.26451e-06 1.26861e-07 0)
(8.81905e-06 1.2818e-07 0)
(8.37048e-06 1.29427e-07 0)
(7.91971e-06 1.30525e-07 0)
(7.46794e-06 1.31226e-07 0)
(7.01632e-06 1.31343e-07 0)
(6.5661e-06 1.30831e-07 0)
(6.11863e-06 1.29767e-07 0)
(5.6751e-06 1.28319e-07 0)
(5.23665e-06 1.26567e-07 0)
(4.80449e-06 1.24399e-07 0)
(4.37982e-06 1.2172e-07 0)
(3.96409e-06 1.18534e-07 0)
(3.5589e-06 1.14882e-07 0)
(3.16553e-06 1.10874e-07 0)
(2.78518e-06 1.06551e-07 0)
(2.41922e-06 1.01787e-07 0)
(2.06898e-06 9.65344e-08 0)
(1.7358e-06 9.0797e-08 0)
(1.42142e-06 8.44105e-08 0)
(1.12777e-06 7.72437e-08 0)
(8.56953e-07 6.93877e-08 0)
(6.11096e-07 6.09169e-08 0)
(3.9224e-07 5.17514e-08 0)
(2.02243e-07 4.18403e-08 0)
(4.2853e-08 3.11867e-08 0)
(-8.43785e-08 1.99609e-08 0)
(-1.78561e-07 8.7098e-09 0)
(-2.39442e-07 -2.27211e-09 0)
(-2.67067e-07 -1.30388e-08 0)
(-2.63046e-07 -2.27711e-08 0)
(-2.31086e-07 -3.03733e-08 0)
(-1.76195e-07 -3.50824e-08 0)
(-1.07602e-07 -3.47731e-08 0)
(-4.38178e-08 -2.62087e-08 0)
(-7.53606e-09 -8.87077e-09 0)
(5.27522e-07 -1.45746e-07 0)
(6.41121e-07 5.98849e-07 0)
(2.92303e-07 4.16923e-07 0)
(-6.63848e-08 3.96357e-07 0)
(-3.477e-07 3.3683e-07 0)
(-5.64679e-07 2.6474e-07 0)
(-6.88207e-07 1.72225e-07 0)
(-7.05317e-07 7.54114e-08 0)
(-6.03705e-07 -3.00236e-08 0)
(-3.84987e-07 -1.38428e-07 0)
(-4.3752e-08 -2.42282e-07 0)
(4.18742e-07 -3.47814e-07 0)
(9.8581e-07 -4.46697e-07 0)
(1.67069e-06 -5.41137e-07 0)
(2.44805e-06 -6.26054e-07 0)
(3.31526e-06 -7.01272e-07 0)
(4.27076e-06 -7.67366e-07 0)
(5.28791e-06 -8.18045e-07 0)
(6.37396e-06 -8.65315e-07 0)
(7.51561e-06 -8.9927e-07 0)
(8.69542e-06 -9.25397e-07 0)
(9.91412e-06 -9.44293e-07 0)
(1.11656e-05 -9.56905e-07 0)
(1.24416e-05 -9.67078e-07 0)
(1.37387e-05 -9.75289e-07 0)
(1.50539e-05 -9.81221e-07 0)
(1.63818e-05 -9.84115e-07 0)
(1.77176e-05 -9.82843e-07 0)
(1.90588e-05 -9.78803e-07 0)
(2.0402e-05 -9.72776e-07 0)
(2.17437e-05 -9.64836e-07 0)
(2.30817e-05 -9.55408e-07 0)
(2.44135e-05 -9.45004e-07 0)
(2.57366e-05 -9.3403e-07 0)
(2.70494e-05 -9.21674e-07 0)
(2.835e-05 -9.07357e-07 0)
(2.96364e-05 -8.92081e-07 0)
(3.09068e-05 -8.76272e-07 0)
(3.21593e-05 -8.59715e-07 0)
(3.33932e-05 -8.42521e-07 0)
(3.4608e-05 -8.25457e-07 0)
(3.58017e-05 -8.0871e-07 0)
(3.69736e-05 -7.92288e-07 0)
(3.81247e-05 -7.76284e-07 0)
(3.92543e-05 -7.60574e-07 0)
(4.0361e-05 -7.45021e-07 0)
(4.14442e-05 -7.29537e-07 0)
(4.25036e-05 -7.13722e-07 0)
(4.35382e-05 -6.96932e-07 0)
(4.45475e-05 -6.78959e-07 0)
(4.5531e-05 -6.60573e-07 0)
(4.64871e-05 -6.42018e-07 0)
(4.74136e-05 -6.22466e-07 0)
(4.83106e-05 -6.01395e-07 0)
(4.91786e-05 -5.79123e-07 0)
(5.00158e-05 -5.56511e-07 0)
(5.08204e-05 -5.33834e-07 0)
(5.15923e-05 -5.10921e-07 0)
(5.23324e-05 -4.88159e-07 0)
(5.30407e-05 -4.65843e-07 0)
(5.37169e-05 -4.44316e-07 0)
(5.43614e-05 -4.24058e-07 0)
(5.49747e-05 -4.04925e-07 0)
(5.55569e-05 -3.86201e-07 0)
(5.61077e-05 -3.66996e-07 0)
(5.66274e-05 -3.46817e-07 0)
(5.7116e-05 -3.25622e-07 0)
(5.75719e-05 -3.03716e-07 0)
(5.79939e-05 -2.81408e-07 0)
(5.83814e-05 -2.586e-07 0)
(5.87351e-05 -2.34937e-07 0)
(5.90548e-05 -2.10406e-07 0)
(5.93393e-05 -1.8517e-07 0)
(5.95871e-05 -1.59152e-07 0)
(5.97976e-05 -1.32349e-07 0)
(5.99708e-05 -1.05245e-07 0)
(6.01068e-05 -7.80598e-08 0)
(6.02061e-05 -5.07104e-08 0)
(6.02685e-05 -2.33536e-08 0)
(6.02933e-05 3.60918e-09 0)
(6.028e-05 3.00459e-08 0)
(6.02288e-05 5.64022e-08 0)
(6.01405e-05 8.30132e-08 0)
(6.00161e-05 1.09652e-07 0)
(5.9856e-05 1.35786e-07 0)
(5.96602e-05 1.60875e-07 0)
(5.94281e-05 1.84754e-07 0)
(5.91596e-05 2.07718e-07 0)
(5.8856e-05 2.30481e-07 0)
(5.85189e-05 2.53602e-07 0)
(5.81489e-05 2.76753e-07 0)
(5.77455e-05 2.99247e-07 0)
(5.73079e-05 3.20855e-07 0)
(5.6836e-05 3.41942e-07 0)
(5.63302e-05 3.63174e-07 0)
(5.57915e-05 3.85075e-07 0)
(5.52204e-05 4.07737e-07 0)
(5.46168e-05 4.30812e-07 0)
(5.39799e-05 4.53834e-07 0)
(5.33088e-05 4.76623e-07 0)
(5.26035e-05 4.99361e-07 0)
(5.1865e-05 5.22342e-07 0)
(5.10941e-05 5.45546e-07 0)
(5.02917e-05 5.68525e-07 0)
(4.94581e-05 5.909e-07 0)
(4.85933e-05 6.12375e-07 0)
(4.76977e-05 6.32666e-07 0)
(4.67719e-05 6.5184e-07 0)
(4.58175e-05 6.70178e-07 0)
(4.48363e-05 6.87906e-07 0)
(4.38296e-05 7.05022e-07 0)
(4.2798e-05 7.21286e-07 0)
(4.1742e-05 7.36588e-07 0)
(4.06622e-05 7.51085e-07 0)
(3.95595e-05 7.65047e-07 0)
(3.84347e-05 7.78838e-07 0)
(3.72889e-05 7.9269e-07 0)
(3.61235e-05 8.06576e-07 0)
(3.49394e-05 8.20289e-07 0)
(3.37376e-05 8.33352e-07 0)
(3.2519e-05 8.45286e-07 0)
(3.12845e-05 8.55999e-07 0)
(3.0036e-05 8.65558e-07 0)
(2.87754e-05 8.74007e-07 0)
(2.75045e-05 8.814e-07 0)
(2.62255e-05 8.87585e-07 0)
(2.49408e-05 8.92298e-07 0)
(2.36527e-05 8.95296e-07 0)
(2.23637e-05 8.96144e-07 0)
(2.10764e-05 8.94439e-07 0)
(1.97931e-05 8.90144e-07 0)
(1.8517e-05 8.83432e-07 0)
(1.72514e-05 8.7449e-07 0)
(1.59998e-05 8.63388e-07 0)
(1.47658e-05 8.49879e-07 0)
(1.35532e-05 8.33619e-07 0)
(1.23651e-05 8.14528e-07 0)
(1.12051e-05 7.92642e-07 0)
(1.00767e-05 7.68112e-07 0)
(8.98336e-06 7.41176e-07 0)
(7.92939e-06 7.11717e-07 0)
(6.91906e-06 6.79353e-07 0)
(5.9565e-06 6.43793e-07 0)
(5.0461e-06 6.04712e-07 0)
(4.19247e-06 5.6176e-07 0)
(3.40024e-06 5.14909e-07 0)
(2.67402e-06 4.64347e-07 0)
(2.01845e-06 4.10139e-07 0)
(1.43781e-06 3.52412e-07 0)
(9.36014e-07 2.91604e-07 0)
(5.16331e-07 2.2836e-07 0)
(1.80903e-07 1.63761e-07 0)
(-6.93187e-08 9.94861e-08 0)
(-2.34802e-07 3.71931e-08 0)
(-3.19013e-07 -2.07715e-08 0)
(-3.29766e-07 -7.01481e-08 0)
(-2.79377e-07 -1.05563e-07 0)
(-1.87558e-07 -1.18935e-07 0)
(-8.73036e-08 -9.89126e-08 0)
(-1.93175e-08 -4.25991e-08 0)
(2.29187e-07 -2.76703e-07 0)
(3.99336e-07 2.77551e-07 0)
(4.67325e-07 5.41721e-07 0)
(3.51207e-07 5.96752e-07 0)
(2.53673e-07 5.25739e-07 0)
(2.26259e-07 3.64788e-07 0)
(3.09834e-07 1.67305e-07 0)
(5.304e-07 -6.74619e-08 0)
(8.92083e-07 -3.08417e-07 0)
(1.41072e-06 -5.56328e-07 0)
(2.07245e-06 -7.99653e-07 0)
(2.88018e-06 -1.03468e-06 0)
(3.83807e-06 -1.26304e-06 0)
(4.91968e-06 -1.47154e-06 0)
(6.13167e-06 -1.67234e-06 0)
(7.46029e-06 -1.84346e-06 0)
(8.89459e-06 -2.0015e-06 0)
(1.04279e-05 -2.13705e-06 0)
(1.20467e-05 -2.24778e-06 0)
(1.37491e-05 -2.34734e-06 0)
(1.55241e-05 -2.42899e-06 0)
(1.73617e-05 -2.49512e-06 0)
(1.92522e-05 -2.55069e-06 0)
(2.11906e-05 -2.59599e-06 0)
(2.31716e-05 -2.63166e-06 0)
(2.51854e-05 -2.65968e-06 0)
(2.72264e-05 -2.68011e-06 0)
(2.92907e-05 -2.69175e-06 0)
(3.13716e-05 -2.69625e-06 0)
(3.3464e-05 -2.69528e-06 0)
(3.55637e-05 -2.68855e-06 0)
(3.7666e-05 -2.67664e-06 0)
(3.97665e-05 -2.66085e-06 0)
(4.18609e-05 -2.64096e-06 0)
(4.39463e-05 -2.61706e-06 0)
(4.60194e-05 -2.58907e-06 0)
(4.8076e-05 -2.55712e-06 0)
(5.01135e-05 -2.52246e-06 0)
(5.21301e-05 -2.48544e-06 0)
(5.41226e-05 -2.44572e-06 0)
(5.60885e-05 -2.40448e-06 0)
(5.80258e-05 -2.36282e-06 0)
(5.99316e-05 -2.32015e-06 0)
(6.18045e-05 -2.27602e-06 0)
(6.36444e-05 -2.23099e-06 0)
(6.54485e-05 -2.18553e-06 0)
(6.72135e-05 -2.13907e-06 0)
(6.89396e-05 -2.09103e-06 0)
(7.06262e-05 -2.04105e-06 0)
(7.22711e-05 -1.98903e-06 0)
(7.3872e-05 -1.93528e-06 0)
(7.54282e-05 -1.87989e-06 0)
(7.69386e-05 -1.82245e-06 0)
(7.84019e-05 -1.76249e-06 0)
(7.98177e-05 -1.70055e-06 0)
(8.11849e-05 -1.63747e-06 0)
(8.25018e-05 -1.5736e-06 0)
(8.37675e-05 -1.50925e-06 0)
(8.49819e-05 -1.4447e-06 0)
(8.61453e-05 -1.38023e-06 0)
(8.7257e-05 -1.31656e-06 0)
(8.83162e-05 -1.25426e-06 0)
(8.93221e-05 -1.19316e-06 0)
(9.02744e-05 -1.13246e-06 0)
(9.11731e-05 -1.07097e-06 0)
(9.20186e-05 -1.00779e-06 0)
(9.28105e-05 -9.42942e-07 0)
(9.35475e-05 -8.77143e-07 0)
(9.42287e-05 -8.10702e-07 0)
(9.48542e-05 -7.43084e-07 0)
(9.54241e-05 -6.7382e-07 0)
(9.59382e-05 -6.03045e-07 0)
(9.63954e-05 -5.31057e-07 0)
(9.67948e-05 -4.58132e-07 0)
(9.7136e-05 -3.84543e-07 0)
(9.7419e-05 -3.10443e-07 0)
(9.76441e-05 -2.35568e-07 0)
(9.78114e-05 -1.59848e-07 0)
(9.79204e-05 -8.40156e-08 0)
(9.79703e-05 -8.80849e-09 0)
(9.79612e-05 6.56586e-08 0)
(9.78933e-05 1.39713e-07 0)
(9.77673e-05 2.13656e-07 0)
(9.75838e-05 2.87437e-07 0)
(9.73431e-05 3.60661e-07 0)
(9.70445e-05 4.3263e-07 0)
(9.66872e-05 5.02966e-07 0)
(9.62717e-05 5.72081e-07 0)
(9.57994e-05 6.40657e-07 0)
(9.52715e-05 7.09086e-07 0)
(9.4688e-05 7.77139e-07 0)
(9.40483e-05 8.44417e-07 0)
(9.33519e-05 9.10869e-07 0)
(9.25988e-05 9.76698e-07 0)
(9.17899e-05 1.04233e-06 0)
(9.09265e-05 1.10829e-06 0)
(9.00093e-05 1.17482e-06 0)
(8.90381e-05 1.24167e-06 0)
(8.80122e-05 1.30843e-06 0)
(8.69311e-05 1.37491e-06 0)
(8.57959e-05 1.44114e-06 0)
(8.46079e-05 1.50702e-06 0)
(8.33684e-05 1.57236e-06 0)
(8.20782e-05 1.63684e-06 0)
(8.0738e-05 1.70005e-06 0)
(7.93476e-05 1.76152e-06 0)
(7.79076e-05 1.82081e-06 0)
(7.64192e-05 1.8779e-06 0)
(7.48842e-05 1.9331e-06 0)
(7.33049e-05 1.98649e-06 0)
(7.16826e-05 2.038e-06 0)
(7.00182e-05 2.08747e-06 0)
(6.83128e-05 2.13484e-06 0)
(6.65674e-05 2.18028e-06 0)
(6.47836e-05 2.22394e-06 0)
(6.29633e-05 2.26602e-06 0)
(6.11088e-05 2.30683e-06 0)
(5.92223e-05 2.34636e-06 0)
(5.7306e-05 2.38414e-06 0)
(5.53619e-05 2.41953e-06 0)
(5.33919e-05 2.45185e-06 0)
(5.13981e-05 2.4808e-06 0)
(4.9383e-05 2.50643e-06 0)
(4.73498e-05 2.52862e-06 0)
(4.53018e-05 2.54715e-06 0)
(4.32426e-05 2.56176e-06 0)
(4.1176e-05 2.57198e-06 0)
(3.91054e-05 2.57732e-06 0)
(3.70344e-05 2.57728e-06 0)
(3.49668e-05 2.57128e-06 0)
(3.29067e-05 2.55899e-06 0)
(3.08585e-05 2.54041e-06 0)
(2.88273e-05 2.5155e-06 0)
(2.68182e-05 2.48411e-06 0)
(2.48366e-05 2.44607e-06 0)
(2.28878e-05 2.40092e-06 0)
(2.0977e-05 2.34829e-06 0)
(1.91096e-05 2.28812e-06 0)
(1.72911e-05 2.22039e-06 0)
(1.55277e-05 2.14518e-06 0)
(1.38258e-05 2.06238e-06 0)
(1.21921e-05 1.97146e-06 0)
(1.06329e-05 1.87179e-06 0)
(9.15473e-06 1.76296e-06 0)
(7.76427e-06 1.64457e-06 0)
(6.46825e-06 1.51646e-06 0)
(5.273e-06 1.37892e-06 0)
(4.18467e-06 1.2324e-06 0)
(3.20922e-06 1.07752e-06 0)
(2.35207e-06 9.1533e-07 0)
(1.61775e-06 7.47331e-07 0)
(1.00921e-06 5.75949e-07 0)
(5.27537e-07 4.04672e-07 0)
(1.72052e-07 2.38011e-07 0)
(-6.17421e-08 8.24048e-08 0)
(-1.83756e-07 -5.30678e-08 0)
(-2.09533e-07 -1.55925e-07 0)
(-1.63641e-07 -2.08225e-07 0)
(-8.49106e-08 -1.89091e-07 0)
(-2.05094e-08 -9.23523e-08 0)
(1.74961e-07 -6.84122e-07 0)
(3.66525e-07 -3.7184e-08 0)
(5.65005e-07 4.40556e-07 0)
(6.49065e-07 5.77433e-07 0)
(7.44982e-07 4.69043e-07 0)
(9.39806e-07 2.25521e-07 0)
(1.26745e-06 -1.11028e-07 0)
(1.74491e-06 -4.88433e-07 0)
(2.40052e-06 -8.93481e-07 0)
(3.22199e-06 -1.30269e-06 0)
(4.22452e-06 -1.71144e-06 0)
(5.39543e-06 -2.10265e-06 0)
(6.72713e-06 -2.47928e-06 0)
(8.22182e-06 -2.83373e-06 0)
(9.86271e-06 -3.16e-06 0)
(1.16452e-05 -3.46579e-06 0)
(1.35573e-05 -3.73427e-06 0)
(1.55915e-05 -3.97874e-06 0)
(1.77362e-05 -4.18985e-06 0)
(1.99839e-05 -4.37375e-06 0)
(2.23268e-05 -4.53339e-06 0)
(2.47545e-05 -4.67162e-06 0)
(2.72586e-05 -4.78998e-06 0)
(2.98288e-05 -4.889e-06 0)
(3.24553e-05 -4.97177e-06 0)
(3.51307e-05 -5.03944e-06 0)
(3.78488e-05 -5.09102e-06 0)
(4.06008e-05 -5.12843e-06 0)
(4.33789e-05 -5.15326e-06 0)
(4.61784e-05 -5.16608e-06 0)
(4.89929e-05 -5.16749e-06 0)
(5.18148e-05 -5.15868e-06 0)
(5.46387e-05 -5.14122e-06 0)
(5.74595e-05 -5.11504e-06 0)
(6.02721e-05 -5.07974e-06 0)
(6.30722e-05 -5.03693e-06 0)
(6.58542e-05 -4.98734e-06 0)
(6.86138e-05 -4.93057e-06 0)
(7.13487e-05 -4.86722e-06 0)
(7.40547e-05 -4.79917e-06 0)
(7.6727e-05 -4.72699e-06 0)
(7.93625e-05 -4.65093e-06 0)
(8.19587e-05 -4.57152e-06 0)
(8.45127e-05 -4.48851e-06 0)
(8.70208e-05 -4.40201e-06 0)
(8.94801e-05 -4.31276e-06 0)
(9.18889e-05 -4.22075e-06 0)
(9.42453e-05 -4.12525e-06 0)
(9.65469e-05 -4.02593e-06 0)
(9.87914e-05 -3.92327e-06 0)
(0.000100977 -3.81745e-06 0)
(0.000103102 -3.70834e-06 0)
(0.000105165 -3.59577e-06 0)
(0.000107164 -3.47953e-06 0)
(0.000109099 -3.3601e-06 0)
(0.000110968 -3.23846e-06 0)
(0.000112769 -3.11536e-06 0)
(0.000114502 -2.99107e-06 0)
(0.000116166 -2.86544e-06 0)
(0.00011776 -2.73895e-06 0)
(0.000119283 -2.61266e-06 0)
(0.000120734 -2.48718e-06 0)
(0.000122111 -2.36238e-06 0)
(0.000123415 -2.23737e-06 0)
(0.000124645 -2.11113e-06 0)
(0.0001258 -1.98298e-06 0)
(0.000126881 -1.85302e-06 0)
(0.000127886 -1.72172e-06 0)
(0.000128814 -1.58913e-06 0)
(0.000129667 -1.4548e-06 0)
(0.000130444 -1.31843e-06 0)
(0.000131144 -1.18006e-06 0)
(0.000131766 -1.04004e-06 0)
(0.00013231 -8.98965e-07 0)
(0.000132775 -7.5725e-07 0)
(0.000133163 -6.14689e-07 0)
(0.000133474 -4.70996e-07 0)
(0.000133706 -3.26408e-07 0)
(0.000133859 -1.8176e-07 0)
(0.000133933 -3.75986e-08 0)
(0.000133927 1.06096e-07 0)
(0.000133843 2.49446e-07 0)
(0.000133681 3.92561e-07 0)
(0.000133441 5.35278e-07 0)
(0.000133122 6.77041e-07 0)
(0.000132724 8.17251e-07 0)
(0.000132247 9.55846e-07 0)
(0.000131692 1.09341e-06 0)
(0.000131059 1.23031e-06 0)
(0.000130349 1.36648e-06 0)
(0.000129562 1.50169e-06 0)
(0.000128698 1.63578e-06 0)
(0.000127756 1.7689e-06 0)
(0.000126737 1.90132e-06 0)
(0.000125641 2.03339e-06 0)
(0.00012447 2.16552e-06 0)
(0.000123225 2.29761e-06 0)
(0.000121906 2.42922e-06 0)
(0.000120512 2.56008e-06 0)
(0.000119044 2.69019e-06 0)
(0.000117502 2.81952e-06 0)
(0.00011589 2.94779e-06 0)
(0.000114207 3.07466e-06 0)
(0.000112455 3.1998e-06 0)
(0.000110635 3.32259e-06 0)
(0.000108747 3.44244e-06 0)
(0.000106792 3.55893e-06 0)
(0.000104771 3.67202e-06 0)
(0.000102688 3.78193e-06 0)
(0.000100543 3.88859e-06 0)
(9.83384e-05 3.99168e-06 0)
(9.60761e-05 4.09109e-06 0)
(9.37572e-05 4.18668e-06 0)
(9.13837e-05 4.2784e-06 0)
(8.89579e-05 4.36635e-06 0)
(8.64825e-05 4.45053e-06 0)
(8.39607e-05 4.53101e-06 0)
(8.13954e-05 4.60771e-06 0)
(7.87896e-05 4.68005e-06 0)
(7.61462e-05 4.7472e-06 0)
(7.34683e-05 4.80846e-06 0)
(7.07593e-05 4.86323e-06 0)
(6.80227e-05 4.91122e-06 0)
(6.52626e-05 4.95223e-06 0)
(6.24834e-05 4.98583e-06 0)
(5.969e-05 5.01149e-06 0)
(5.68871e-05 5.0286e-06 0)
(5.40797e-05 5.0363e-06 0)
(5.12724e-05 5.0339e-06 0)
(4.84703e-05 5.02082e-06 0)
(4.56788e-05 4.99646e-06 0)
(4.2904e-05 4.96044e-06 0)
(4.01523e-05 4.91246e-06 0)
(3.74304e-05 4.85209e-06 0)
(3.47453e-05 4.77892e-06 0)
(3.21036e-05 4.69247e-06 0)
(2.95121e-05 4.5921e-06 0)
(2.69783e-05 4.47741e-06 0)
(2.45097e-05 4.34822e-06 0)
(2.21145e-05 4.20433e-06 0)
(1.9801e-05 4.04539e-06 0)
(1.75775e-05 3.87082e-06 0)
(1.54525e-05 3.67995e-06 0)
(1.34341e-05 3.47234e-06 0)
(1.15307e-05 3.24774e-06 0)
(9.75083e-06 3.00602e-06 0)
(8.10245e-06 2.74744e-06 0)
(6.59306e-06 2.47285e-06 0)
(5.2297e-06 2.18367e-06 0)
(4.01872e-06 1.88189e-06 0)
(2.96552e-06 1.57022e-06 0)
(2.07364e-06 1.25265e-06 0)
(1.34425e-06 9.35186e-07 0)
(7.76184e-07 6.25724e-07 0)
(3.64268e-07 3.34953e-07 0)
(9.74175e-08 7.79357e-08 0)
(-4.13634e-08 -1.2504e-07 0)
(-7.85098e-08 -2.45787e-07 0)
(-5.4045e-08 -2.52277e-07 0)
(-1.49378e-08 -1.34156e-07 0)
(1.42102e-07 -8.27831e-07 0)
(3.39823e-07 -3.32335e-07 0)
(6.39137e-07 2.29594e-07 0)
(8.77649e-07 3.69764e-07 0)
(1.17326e-06 2.02126e-07 0)
(1.58848e-06 -1.6462e-07 0)
(2.15721e-06 -6.48209e-07 0)
(2.91104e-06 -1.201e-06 0)
(3.84805e-06 -1.78555e-06 0)
(4.99e-06 -2.382e-06 0)
(6.32561e-06 -2.9693e-06 0)
(7.85542e-06 -3.54819e-06 0)
(9.57703e-06 -4.09156e-06 0)
(1.14748e-05 -4.61318e-06 0)
(1.35417e-05 -5.09365e-06 0)
(1.57764e-05 -5.54217e-06 0)
(1.81641e-05 -5.95163e-06 0)
(2.0692e-05 -6.32182e-06 0)
(2.33552e-05 -6.65448e-06 0)
(2.61398e-05 -6.94771e-06 0)
(2.9038e-05 -7.2062e-06 0)
(3.20393e-05 -7.43281e-06 0)
(3.51332e-05 -7.62967e-06 0)
(3.83093e-05 -7.79892e-06 0)
(4.15573e-05 -7.94313e-06 0)
(4.4868e-05 -8.06228e-06 0)
(4.82317e-05 -8.15767e-06 0)
(5.16391e-05 -8.23183e-06 0)
(5.5082e-05 -8.28484e-06 0)
(5.85533e-05 -8.31795e-06 0)
(6.20452e-05 -8.33363e-06 0)
(6.55486e-05 -8.33291e-06 0)
(6.90568e-05 -8.31606e-06 0)
(7.25647e-05 -8.28447e-06 0)
(7.60647e-05 -8.23903e-06 0)
(7.95497e-05 -8.18045e-06 0)
(8.30154e-05 -8.10992e-06 0)
(8.64571e-05 -8.02796e-06 0)
(8.98685e-05 -7.93506e-06 0)
(9.32444e-05 -7.83258e-06 0)
(9.65811e-05 -7.72205e-06 0)
(9.98741e-05 -7.60391e-06 0)
(0.000103118 -7.47838e-06 0)
(0.000106311 -7.3461e-06 0)
(0.000109448 -7.20771e-06 0)
(0.000112525 -7.06332e-06 0)
(0.000115539 -6.91299e-06 0)
(0.000118488 -6.75658e-06 0)
(0.00012137 -6.5942e-06 0)
(0.00012418 -6.42626e-06 0)
(0.000126917 -6.25318e-06 0)
(0.000129578 -6.07521e-06 0)
(0.000132163 -5.89195e-06 0)
(0.000134669 -5.70332e-06 0)
(0.000137094 -5.51012e-06 0)
(0.000139436 -5.31356e-06 0)
(0.000141694 -5.11422e-06 0)
(0.000143867 -4.91213e-06 0)
(0.000145955 -4.70763e-06 0)
(0.000147955 -4.50165e-06 0)
(0.000149865 -4.29479e-06 0)
(0.000151685 -4.08728e-06 0)
(0.000153413 -3.87929e-06 0)
(0.000155049 -3.67025e-06 0)
(0.000156592 -3.45934e-06 0)
(0.000158041 -3.24635e-06 0)
(0.000159396 -3.0315e-06 0)
(0.000160656 -2.81484e-06 0)
(0.000161819 -2.5961e-06 0)
(0.000162888 -2.37508e-06 0)
(0.000163862 -2.15173e-06 0)
(0.000164739 -1.92631e-06 0)
(0.000165518 -1.69922e-06 0)
(0.0001662 -1.47077e-06 0)
(0.000166784 -1.24093e-06 0)
(0.000167272 -1.00955e-06 0)
(0.000167663 -7.77098e-07 0)
(0.000167956 -5.44317e-07 0)
(0.00016815 -3.11638e-07 0)
(0.000168246 -7.91148e-08 0)
(0.000168243 1.53373e-07 0)
(0.000168143 3.85758e-07 0)
(0.000167944 6.17862e-07 0)
(0.000167648 8.49281e-07 0)
(0.000167254 1.07937e-06 0)
(0.000166761 1.30782e-06 0)
(0.000166169 1.53483e-06 0)
(0.000165479 1.76089e-06 0)
(0.000164692 1.98606e-06 0)
(0.000163808 2.21009e-06 0)
(0.000162827 2.43284e-06 0)
(0.000161749 2.65414e-06 0)
(0.000160573 2.87398e-06 0)
(0.000159301 3.09272e-06 0)
(0.000157933 3.31078e-06 0)
(0.000156471 3.52837e-06 0)
(0.000154916 3.74525e-06 0)
(0.000153267 3.96089e-06 0)
(0.000151525 4.17501e-06 0)
(0.00014969 4.38751e-06 0)
(0.000147765 4.5982e-06 0)
(0.00014575 4.80677e-06 0)
(0.000143648 5.01288e-06 0)
(0.000141459 5.21609e-06 0)
(0.000139185 5.41565e-06 0)
(0.000136825 5.61084e-06 0)
(0.000134382 5.80134e-06 0)
(0.000131858 5.98695e-06 0)
(0.000129255 6.16758e-06 0)
(0.000126575 6.34306e-06 0)
(0.000123821 6.51295e-06 0)
(0.000120994 6.67699e-06 0)
(0.000118096 6.83499e-06 0)
(0.000115131 6.98663e-06 0)
(0.0001121 7.13178e-06 0)
(0.000109007 7.27032e-06 0)
(0.000105856 7.40191e-06 0)
(0.000102652 7.52614e-06 0)
(9.93972e-05 7.64241e-06 0)
(9.60957e-05 7.74987e-06 0)
(9.27515e-05 7.84772e-06 0)
(8.93689e-05 7.93517e-06 0)
(8.59528e-05 8.01142e-06 0)
(8.25082e-05 8.0759e-06 0)
(7.90404e-05 8.12806e-06 0)
(7.55555e-05 8.16714e-06 0)
(7.20591e-05 8.19231e-06 0)
(6.85572e-05 8.20253e-06 0)
(6.5056e-05 8.19669e-06 0)
(6.15615e-05 8.174e-06 0)
(5.80807e-05 8.1337e-06 0)
(5.46209e-05 8.07503e-06 0)
(5.119e-05 7.99736e-06 0)
(4.7796e-05 7.90003e-06 0)
(4.44474e-05 7.78223e-06 0)
(4.1152e-05 7.6432e-06 0)
(3.79185e-05 7.4822e-06 0)
(3.47556e-05 7.29853e-06 0)
(3.1673e-05 7.09171e-06 0)
(2.86803e-05 6.86132e-06 0)
(2.57874e-05 6.6067e-06 0)
(2.30043e-05 6.3271e-06 0)
(2.03408e-05 6.0219e-06 0)
(1.7807e-05 5.69076e-06 0)
(1.54125e-05 5.33358e-06 0)
(1.31671e-05 4.95052e-06 0)
(1.108e-05 4.54219e-06 0)
(9.16015e-06 4.10978e-06 0)
(7.41555e-06 3.65538e-06 0)
(5.85318e-06 3.18225e-06 0)
(4.47883e-06 2.69469e-06 0)
(3.29668e-06 2.19857e-06 0)
(2.30805e-06 1.70264e-06 0)
(1.51132e-06 1.21857e-06 0)
(9.0111e-07 7.61617e-07 0)
(4.66013e-07 3.52744e-07 0)
(1.88756e-07 1.99874e-08 0)
(4.33204e-08 -1.99015e-07 0)
(-8.0791e-09 -2.61546e-07 0)
(-6.19509e-09 -1.54675e-07 0)
(1.21307e-07 -9.88789e-07 0)
(3.28826e-07 -6.61092e-07 0)
(6.89637e-07 -8.76097e-08 0)
(1.08446e-06 9.92989e-09 0)
(1.56556e-06 -2.62708e-07 0)
(2.20194e-06 -7.78547e-07 0)
(3.02304e-06 -1.44075e-06 0)
(4.04023e-06 -2.18868e-06 0)
(5.28087e-06 -2.97849e-06 0)
(6.73441e-06 -3.78229e-06 0)
(8.40759e-06 -4.57993e-06 0)
(1.03017e-05 -5.35366e-06 0)
(1.24012e-05 -6.10133e-06 0)
(1.47042e-05 -6.80714e-06 0)
(1.72006e-05 -7.46943e-06 0)
(1.98755e-05 -8.08035e-06 0)
(2.27277e-05 -8.65012e-06 0)
(2.57416e-05 -9.16616e-06 0)
(2.89077e-05 -9.63616e-06 0)
(3.22156e-05 -1.00579e-05 0)
(3.56517e-05 -1.0434e-05 0)
(3.92065e-05 -1.07667e-05 0)
(4.28696e-05 -1.10582e-05 0)
(4.66274e-05 -1.13113e-05 0)
(5.04689e-05 -1.15282e-05 0)
(5.4385e-05 -1.17105e-05 0)
(5.83638e-05 -1.18599e-05 0)
(6.23951e-05 -1.19779e-05 0)
(6.64698e-05 -1.20666e-05 0)
(7.05779e-05 -1.21267e-05 0)
(7.47106e-05 -1.21605e-05 0)
(7.88594e-05 -1.21703e-05 0)
(8.30157e-05 -1.21568e-05 0)
(8.71713e-05 -1.21204e-05 0)
(9.1319e-05 -1.20637e-05 0)
(9.54517e-05 -1.1988e-05 0)
(9.95621e-05 -1.18937e-05 0)
(0.000103644 -1.17819e-05 0)
(0.000107693 -1.16544e-05 0)
(0.000111701 -1.15123e-05 0)
(0.000115662 -1.13565e-05 0)
(0.000119573 -1.11883e-05 0)
(0.000123427 -1.10082e-05 0)
(0.000127221 -1.08169e-05 0)
(0.000130949 -1.06157e-05 0)
(0.000134606 -1.04051e-05 0)
(0.000138191 -1.01849e-05 0)
(0.000141699 -9.95519e-06 0)
(0.000145126 -9.71687e-06 0)
(0.000148469 -9.47054e-06 0)
(0.000151725 -9.21644e-06 0)
(0.000154892 -8.95462e-06 0)
(0.000157969 -8.68537e-06 0)
(0.000160952 -8.4094e-06 0)
(0.000163839 -8.12737e-06 0)
(0.000166628 -7.84006e-06 0)
(0.000169317 -7.54801e-06 0)
(0.000171905 -7.25142e-06 0)
(0.000174392 -6.95109e-06 0)
(0.000176774 -6.64805e-06 0)
(0.000179049 -6.34298e-06 0)
(0.000181217 -6.03621e-06 0)
(0.000183276 -5.72748e-06 0)
(0.000185225 -5.41609e-06 0)
(0.000187064 -5.10197e-06 0)
(0.000188791 -4.78565e-06 0)
(0.000190405 -4.46732e-06 0)
(0.000191906 -4.1465e-06 0)
(0.000193293 -3.8227e-06 0)
(0.000194567 -3.49588e-06 0)
(0.000195727 -3.16647e-06 0)
(0.000196772 -2.83513e-06 0)
(0.000197701 -2.50226e-06 0)
(0.000198514 -2.16766e-06 0)
(0.000199211 -1.83094e-06 0)
(0.000199794 -1.49221e-06 0)
(0.000200261 -1.15232e-06 0)
(0.000200611 -8.12178e-07 0)
(0.000200843 -4.72046e-07 0)
(0.000200959 -1.3193e-07 0)
(0.000200959 2.08249e-07 0)
(0.000200842 5.48471e-07 0)
(0.000200608 8.8844e-07 0)
(0.000200258 1.22757e-06 0)
(0.000199791 1.56523e-06 0)
(0.000199206 1.90128e-06 0)
(0.000198504 2.236e-06 0)
(0.000197686 2.56958e-06 0)
(0.000196752 2.90197e-06 0)
(0.000195703 3.23292e-06 0)
(0.000194537 3.56228e-06 0)
(0.000193256 3.88982e-06 0)
(0.000191859 4.21543e-06 0)
(0.000190347 4.53947e-06 0)
(0.000188722 4.86225e-06 0)
(0.000186985 5.1837e-06 0)
(0.000185136 5.50345e-06 0)
(0.000183176 5.82109e-06 0)
(0.000181104 6.13628e-06 0)
(0.000178924 6.44877e-06 0)
(0.000176635 6.75827e-06 0)
(0.00017424 7.06449e-06 0)
(0.000171742 7.36695e-06 0)
(0.00016914 7.66492e-06 0)
(0.000166436 7.95757e-06 0)
(0.000163631 8.24415e-06 0)
(0.000160728 8.52437e-06 0)
(0.000157728 8.79796e-06 0)
(0.000154634 9.06447e-06 0)
(0.00015145 9.3235e-06 0)
(0.000148176 9.57455e-06 0)
(0.000144817 9.81702e-06 0)
(0.000141373 1.00505e-05 0)
(0.000137849 1.02745e-05 0)
(0.000134248 1.04888e-05 0)
(0.000130574 1.06929e-05 0)
(0.000126832 1.08863e-05 0)
(0.000123026 1.10682e-05 0)
(0.00011916 1.12376e-05 0)
(0.000115239 1.13936e-05 0)
(0.000111267 1.15352e-05 0)
(0.000107251 1.16616e-05 0)
(0.000103195 1.17715e-05 0)
(9.91057e-05 1.1864e-05 0)
(9.49896e-05 1.19383e-05 0)
(9.08534e-05 1.19934e-05 0)
(8.67038e-05 1.20279e-05 0)
(8.25478e-05 1.20408e-05 0)
(7.83925e-05 1.20306e-05 0)
(7.42455e-05 1.19962e-05 0)
(7.01149e-05 1.19364e-05 0)
(6.60093e-05 1.18503e-05 0)
(6.19379e-05 1.17369e-05 0)
(5.79099e-05 1.15952e-05 0)
(5.39348e-05 1.1424e-05 0)
(5.00221e-05 1.12221e-05 0)
(4.61818e-05 1.09885e-05 0)
(4.24242e-05 1.07225e-05 0)
(3.87603e-05 1.04232e-05 0)
(3.52012e-05 1.00898e-05 0)
(3.17579e-05 9.72169e-06 0)
(2.84419e-05 9.3179e-06 0)
(2.52646e-05 8.87776e-06 0)
(2.22371e-05 8.40103e-06 0)
(1.93705e-05 7.88784e-06 0)
(1.66755e-05 7.33866e-06 0)
(1.41627e-05 6.75461e-06 0)
(1.18414e-05 6.13771e-06 0)
(9.72096e-06 5.49082e-06 0)
(7.80893e-06 4.81834e-06 0)
(6.11134e-06 4.12646e-06 0)
(4.63287e-06 3.42328e-06 0)
(3.37545e-06 2.72013e-06 0)
(2.33738e-06 2.03256e-06 0)
(1.51326e-06 1.38059e-06 0)
(8.92274e-07 7.90869e-07 0)
(4.58024e-07 2.98682e-07 0)
(1.86496e-07 -4.99003e-08 0)
(4.51719e-08 -2.0345e-07 0)
(3.25062e-09 -1.48458e-07 0)
(1.02083e-07 -1.14538e-06 0)
(3.14416e-07 -1.01543e-06 0)
(7.46277e-07 -5.12861e-07 0)
(1.26796e-06 -5.05666e-07 0)
(1.94217e-06 -9.33932e-07 0)
(2.79953e-06 -1.62386e-06 0)
(3.86843e-06 -2.49654e-06 0)
(5.16995e-06 -3.46135e-06 0)
(6.6991e-06 -4.47968e-06 0)
(8.47461e-06 -5.51359e-06 0)
(1.04894e-05 -6.53764e-06 0)
(1.27359e-05 -7.53346e-06 0)
(1.52165e-05 -8.49787e-06 0)
(1.79198e-05 -9.40796e-06 0)
(2.08338e-05 -1.02731e-05 0)
(2.39478e-05 -1.10747e-05 0)
(2.72529e-05 -1.18172e-05 0)
(3.07398e-05 -1.25013e-05 0)
(3.43932e-05 -1.31243e-05 0)
(3.82043e-05 -1.3689e-05 0)
(4.21598e-05 -1.41972e-05 0)
(4.62477e-05 -1.46492e-05 0)
(5.04551e-05 -1.50488e-05 0)
(5.47693e-05 -1.53991e-05 0)
(5.91785e-05 -1.57e-05 0)
(6.36711e-05 -1.59546e-05 0)
(6.82352e-05 -1.61665e-05 0)
(7.28585e-05 -1.63363e-05 0)
(7.75311e-05 -1.64657e-05 0)
(8.22434e-05 -1.65575e-05 0)
(8.69834e-05 -1.66139e-05 0)
(9.1741e-05 -1.66365e-05 0)
(9.65088e-05 -1.66268e-05 0)
(0.000101277 -1.65867e-05 0)
(0.000106036 -1.65182e-05 0)
(0.000110778 -1.64229e-05 0)
(0.000115496 -1.6302e-05 0)
(0.000120183 -1.61567e-05 0)
(0.000124831 -1.59891e-05 0)
(0.000129432 -1.58014e-05 0)
(0.000133982 -1.55942e-05 0)
(0.000138475 -1.53682e-05 0)
(0.000142903 -1.5125e-05 0)
(0.000147261 -1.48664e-05 0)
(0.000151545 -1.45931e-05 0)
(0.000155749 -1.43054e-05 0)
(0.00015987 -1.40038e-05 0)
(0.000163903 -1.36895e-05 0)
(0.000167844 -1.33633e-05 0)
(0.000171688 -1.30259e-05 0)
(0.000175433 -1.26776e-05 0)
(0.000179077 -1.23185e-05 0)
(0.000182617 -1.19494e-05 0)
(0.000186049 -1.15713e-05 0)
(0.000189371 -1.11855e-05 0)
(0.000192581 -1.07926e-05 0)
(0.000195676 -1.03926e-05 0)
(0.000198656 -9.98601e-06 0)
(0.000201518 -9.57389e-06 0)
(0.000204259 -9.1575e-06 0)
(0.000206878 -8.73774e-06 0)
(0.000209374 -8.31474e-06 0)
(0.000211745 -7.88796e-06 0)
(0.00021399 -7.4573e-06 0)
(0.000216108 -7.02336e-06 0)
(0.000218096 -6.5866e-06 0)
(0.000219955 -6.14693e-06 0)
(0.000221684 -5.70392e-06 0)
(0.000223283 -5.2573e-06 0)
(0.00022475 -4.80724e-06 0)
(0.000226087 -4.35431e-06 0)
(0.00022729 -3.89916e-06 0)
(0.00022836 -3.44207e-06 0)