/*--------------------------------*- C++ -*----------------------------------*\
  =========                 |
  \\      /  F ield         | OpenFOAM: The Open Source CFD Toolbox
   \\    /   O peration     | Website:  https://openfoam.org
    \\  /    A nd           | Version:  7
     \\/     M anipulation  |
\*---------------------------------------------------------------------------*/
FoamFile
{
    version     2.0;
    format      ascii;
    class       volVectorField;
    location    "0.0625";
    object      U;
}
// * * * * * * * * * * * * * * * * * * * * * * * * * * * * * * * * * * * * * //

dimensions      [0 1 -1 0 0 0 0];

internalField   nonuniform List<vector> 
12800
(
(8.47848e-06 -8.44639e-06 0)
(3.74274e-05 -1.85867e-05 0)
(7.89252e-05 -1.96215e-05 0)
(0.000113514 -1.52102e-05 0)
(0.000130097 -8.16503e-06 0)
(0.00012385 -2.29387e-08 0)
(9.26528e-05 8.42751e-06 0)
(3.58933e-05 1.6743e-05 0)
(-4.60793e-05 2.47026e-05 0)
(-0.000152326 3.2189e-05 0)
(-0.000281561 3.91367e-05 0)
(-0.000432281 4.55255e-05 0)
(-0.000602876 5.13457e-05 0)
(-0.000791674 5.65997e-05 0)
(-0.00099698 6.13055e-05 0)
(-0.00121712 6.54794e-05 0)
(-0.00145047 6.91393e-05 0)
(-0.00169541 7.23143e-05 0)
(-0.00195042 7.50262e-05 0)
(-0.00221403 7.72973e-05 0)
(-0.00248483 7.91571e-05 0)
(-0.00276151 8.06328e-05 0)
(-0.00304282 8.17445e-05 0)
(-0.00332757 8.25194e-05 0)
(-0.00361468 8.29835e-05 0)
(-0.00390312 8.31575e-05 0)
(-0.00419193 8.30648e-05 0)
(-0.00448026 8.27331e-05 0)
(-0.00476729 8.21818e-05 0)
(-0.00505229 8.14269e-05 0)
(-0.00533459 8.04885e-05 0)
(-0.00561358 7.93871e-05 0)
(-0.00588873 7.81392e-05 0)
(-0.00615955 7.67626e-05 0)
(-0.0064256 7.5276e-05 0)
(-0.00668652 7.3695e-05 0)
(-0.00694197 7.20306e-05 0)
(-0.00719168 7.02951e-05 0)
(-0.00743541 6.85023e-05 0)
(-0.00767297 6.66642e-05 0)
(-0.00790419 6.47903e-05 0)
(-0.00812896 6.28897e-05 0)
(-0.00834719 6.09723e-05 0)
(-0.00855881 5.90474e-05 0)
(-0.0087638 5.71215e-05 0)
(-0.00896215 5.52004e-05 0)
(-0.00915388 5.32903e-05 0)
(-0.00933901 5.13974e-05 0)
(-0.00951761 4.95263e-05 0)
(-0.00968974 4.76806e-05 0)
(-0.00985549 4.58636e-05 0)
(-0.010015 4.4079e-05 0)
(-0.0101682 4.23296e-05 0)
(-0.0103154 4.06172e-05 0)
(-0.0104567 3.89429e-05 0)
(-0.0105922 3.73074e-05 0)
(-0.0107219 3.57122e-05 0)
(-0.0108461 3.41582e-05 0)
(-0.0109649 3.26452e-05 0)
(-0.0110784 3.11724e-05 0)
(-0.0111867 2.9739e-05 0)
(-0.01129 2.83449e-05 0)
(-0.0113884 2.69891e-05 0)
(-0.0114821 2.56703e-05 0)
(-0.0115711 2.43865e-05 0)
(-0.0116555 2.31357e-05 0)
(-0.0117356 2.19164e-05 0)
(-0.0118113 2.07269e-05 0)
(-0.0118828 1.95649e-05 0)
(-0.0119501 1.84277e-05 0)
(-0.0120134 1.73126e-05 0)
(-0.0120727 1.62174e-05 0)
(-0.0121281 1.51396e-05 0)
(-0.0121796 1.40763e-05 0)
(-0.0122273 1.30239e-05 0)
(-0.0122711 1.19791e-05 0)
(-0.0123112 1.09388e-05 0)
(-0.0123475 9.89998e-06 0)
(-0.01238 8.85923e-06 0)
(-0.0124088 7.81299e-06 0)
(-0.0124337 6.75746e-06 0)
(-0.0124547 5.68909e-06 0)
(-0.0124719 4.60468e-06 0)
(-0.0124851 3.50118e-06 0)
(-0.0124943 2.37523e-06 0)
(-0.0124993 1.22309e-06 0)
(-0.0125001 4.1072e-08 0)
(-0.0124966 -1.17414e-06 0)
(-0.0124887 -2.42566e-06 0)
(-0.0124762 -3.71668e-06 0)
(-0.012459 -5.0506e-06 0)
(-0.0124369 -6.43086e-06 0)
(-0.0124097 -7.86074e-06 0)
(-0.0123774 -9.34319e-06 0)
(-0.0123397 -1.0881e-05 0)
(-0.0122964 -1.24768e-05 0)
(-0.0122473 -1.41332e-05 0)
(-0.0121923 -1.58523e-05 0)
(-0.012131 -1.76363e-05 0)
(-0.0120633 -1.94868e-05 0)
(-0.011989 -2.14051e-05 0)
(-0.0119078 -2.33921e-05 0)
(-0.0118195 -2.54481e-05 0)
(-0.0117239 -2.75734e-05 0)
(-0.0116207 -2.97675e-05 0)
(-0.0115097 -3.20298e-05 0)
(-0.0113907 -3.43589e-05 0)
(-0.0112635 -3.67528e-05 0)
(-0.0111279 -3.92087e-05 0)
(-0.0109836 -4.17236e-05 0)
(-0.0108305 -4.42936e-05 0)
(-0.0106685 -4.69145e-05 0)
(-0.0104973 -4.95808e-05 0)
(-0.0103169 -5.22862e-05 0)
(-0.0101271 -5.50233e-05 0)
(-0.00992794 -5.77837e-05 0)
(-0.00971926 -6.05584e-05 0)
(-0.0095011 -6.33373e-05 0)
(-0.00927347 -6.61093e-05 0)
(-0.00903643 -6.88622e-05 0)
(-0.0087901 -7.15827e-05 0)
(-0.00853464 -7.42561e-05 0)
(-0.00827025 -7.6867e-05 0)
(-0.00799718 -7.93991e-05 0)
(-0.00771577 -8.18352e-05 0)
(-0.00742638 -8.41569e-05 0)
(-0.00712946 -8.63451e-05 0)
(-0.00682551 -8.83796e-05 0)
(-0.00651512 -9.02392e-05 0)
(-0.00619893 -9.19021e-05 0)
(-0.00587767 -9.33455e-05 0)
(-0.00555214 -9.45461e-05 0)
(-0.00522321 -9.54799e-05 0)
(-0.00489185 -9.61222e-05 0)
(-0.0045591 -9.64479e-05 0)
(-0.00422608 -9.64313e-05 0)
(-0.00389399 -9.60463e-05 0)
(-0.00356413 -9.52667e-05 0)
(-0.00323787 -9.40663e-05 0)
(-0.00291664 -9.2419e-05 0)
(-0.002602 -9.02989e-05 0)
(-0.00229553 -8.76804e-05 0)
(-0.00199892 -8.45387e-05 0)
(-0.00171392 -8.08498e-05 0)
(-0.00144231 -7.65909e-05 0)
(-0.00118596 -7.17403e-05 0)
(-0.000946768 -6.62791e-05 0)
(-0.000726639 -6.01911e-05 0)
(-0.000527498 -5.34652e-05 0)
(-0.000351235 -4.60978e-05 0)
(-0.000199673 -3.80971e-05 0)
(-7.44977e-05 -2.94913e-05 0)
(2.28335e-05 -2.03445e-05 0)
(9.12498e-05 -1.0785e-05 0)
(0.000130323 -1.06289e-06 0)
(0.000140687 8.34308e-06 0)
(0.000124657 1.65297e-05 0)
(8.75931e-05 2.17655e-05 0)
(4.19819e-05 2.08326e-05 0)
(9.61761e-06 9.61617e-06 0)
(1.87003e-05 -3.74447e-05 0)
(7.07613e-05 -7.05572e-05 0)
(0.000132555 -6.76736e-05 0)
(0.000170571 -4.18613e-05 0)
(0.000163699 -2.9286e-06 0)
(0.000100552 4.28751e-05 0)
(-2.51114e-05 9.16226e-05 0)
(-0.00021603 0.00014086 0)
(-0.000472412 0.00018905 0)
(-0.000792774 0.00023523 0)
(-0.00117447 0.000278815 0)
(-0.00161413 0.000319445 0)
(-0.00210789 0.000356913 0)
(-0.00265159 0.000391138 0)
(-0.00324093 0.000422091 0)
(-0.00387157 0.000449807 0)
(-0.00453916 0.000474361 0)
(-0.00523945 0.000495846 0)
(-0.00596829 0.000514378 0)
(-0.00672167 0.000530086 0)
(-0.00749576 0.00054311 0)
(-0.00828688 0.000553588 0)
(-0.00909156 0.000561672 0)
(-0.00990652 0.000567511 0)
(-0.0107287 0.000571249 0)
(-0.0115551 0.000573033 0)
(-0.0123832 0.000573009 0)
(-0.0132104 0.000571321 0)
(-0.0140344 0.000568106 0)
(-0.0148532 0.000563496 0)
(-0.0156648 0.00055762 0)
(-0.0164674 0.000550601 0)
(-0.0172595 0.000542553 0)
(-0.0180397 0.000533593 0)
(-0.0188067 0.00052383 0)
(-0.0195593 0.000513367 0)
(-0.0202967 0.000502295 0)
(-0.021018 0.000490707 0)
(-0.0217225 0.000478686 0)
(-0.0224096 0.00046631 0)
(-0.0230787 0.000453651 0)
(-0.0237296 0.000440777 0)
(-0.0243619 0.000427751 0)
(-0.0249755 0.000414631 0)
(-0.0255702 0.000401467 0)
(-0.0261459 0.000388307 0)
(-0.0267027 0.000375194 0)
(-0.0272406 0.000362165 0)
(-0.0277598 0.000349255 0)
(-0.0282604 0.000336492 0)
(-0.0287427 0.000323904 0)
(-0.0292069 0.000311512 0)
(-0.0296533 0.000299336 0)
(-0.0300822 0.00028739 0)
(-0.0304939 0.000275687 0)
(-0.0308887 0.000264235 0)
(-0.0312671 0.000253043 0)
(-0.0316293 0.000242114 0)
(-0.0319758 0.000231451 0)
(-0.0323069 0.000221051 0)
(-0.032623 0.000210912 0)
(-0.0329245 0.00020103 0)
(-0.0332117 0.0001914 0)
(-0.0334849 0.000182011 0)
(-0.0337445 0.000172855 0)
(-0.0339909 0.00016392 0)
(-0.0342242 0.000155193 0)
(-0.0344449 0.000146663 0)
(-0.0346531 0.000138313 0)
(-0.0348492 0.000130128 0)
(-0.0350333 0.00012209 0)
(-0.0352056 0.000114182 0)
(-0.0353663 0.000106387 0)
(-0.0355156 9.86835e-05 0)
(-0.0356535 9.10514e-05 0)
(-0.0357802 8.34692e-05 0)
(-0.0358957 7.59157e-05 0)
(-0.036 6.83691e-05 0)
(-0.0360931 6.08065e-05 0)
(-0.036175 5.32045e-05 0)
(-0.0362456 4.55395e-05 0)
(-0.0363048 3.77885e-05 0)
(-0.0363524 2.99287e-05 0)
(-0.0363883 2.19371e-05 0)
(-0.0364123 1.37902e-05 0)
(-0.0364242 5.4644e-06 0)
(-0.0364235 -3.06376e-06 0)
(-0.0364102 -1.18168e-05 0)
(-0.0363837 -2.0817e-05 0)
(-0.0363438 -3.00866e-05 0)
(-0.0362901 -3.96475e-05 0)
(-0.0362221 -4.95213e-05 0)
(-0.0361393 -5.97285e-05 0)
(-0.0360413 -7.02881e-05 0)
(-0.0359275 -8.12185e-05 0)
(-0.0357975 -9.25363e-05 0)
(-0.0356506 -0.000104257 0)
(-0.0354862 -0.000116395 0)
(-0.0353039 -0.000128962 0)
(-0.0351029 -0.000141967 0)
(-0.0348826 -0.000155418 0)
(-0.0346425 -0.00016932 0)
(-0.0343818 -0.000183675 0)
(-0.0340999 -0.000198481 0)
(-0.0337963 -0.000213736 0)
(-0.0334702 -0.000229431 0)
(-0.0331211 -0.000245555 0)
(-0.0327484 -0.000262094 0)
(-0.0323515 -0.000279026 0)
(-0.0319299 -0.000296329 0)
(-0.0314831 -0.000313974 0)
(-0.0310107 -0.000331927 0)
(-0.0305123 -0.00035015 0)
(-0.0299876 -0.000368597 0)
(-0.0294362 -0.000387217 0)
(-0.0288581 -0.000405954 0)
(-0.0282531 -0.000424742 0)
(-0.0276212 -0.000443513 0)
(-0.0269626 -0.00046219 0)
(-0.0262774 -0.000480689 0)
(-0.0255661 -0.000498919 0)
(-0.0248291 -0.000516784 0)
(-0.024067 -0.00053418 0)
(-0.0232807 -0.000550996 0)
(-0.022471 -0.000567116 0)
(-0.0216391 -0.000582418 0)
(-0.0207863 -0.000596772 0)
(-0.019914 -0.000610045 0)
(-0.019024 -0.000622096 0)
(-0.018118 -0.000632782 0)
(-0.0171982 -0.000641952 0)
(-0.0162669 -0.000649454 0)
(-0.0153265 -0.000655132 0)
(-0.0143798 -0.000658827 0)
(-0.0134298 -0.000660378 0)
(-0.0124796 -0.000659623 0)
(-0.0115326 -0.000656399 0)
(-0.0105925 -0.000650546 0)
(-0.00966296 -0.000641904 0)
(-0.00874816 -0.00063032 0)
(-0.00785229 -0.000615643 0)
(-0.00697978 -0.000597732 0)
(-0.00613523 -0.000576455 0)
(-0.00532339 -0.000551693 0)
(-0.00454914 -0.000523343 0)
(-0.00381742 -0.000491325 0)
(-0.00313326 -0.000455588 0)
(-0.00250164 -0.000416121 0)
(-0.00192748 -0.000372967 0)
(-0.00141547 -0.000326248 0)
(-0.000969975 -0.000276196 0)
(-0.000594821 -0.000223211 0)
(-0.00029298 -0.000167947 0)
(-6.61638e-05 -0.000111459 0)
(8.58037e-05 -5.54393e-05 0)
(0.000165892 -2.61934e-06 0)
(0.000180984 4.26013e-05 0)
(0.000143738 7.31377e-05 0)
(7.78571e-05 7.78278e-05 0)
(2.08299e-05 4.19674e-05 0)
(1.98747e-05 -7.91956e-05 0)
(6.83294e-05 -0.000132525 0)
(0.000111491 -0.000110598 0)
(0.000110696 -3.91947e-05 0)
(4.07717e-05 6.31883e-05 0)
(-0.000113132 0.000183481 0)
(-0.000359896 0.000312589 0)
(-0.000703913 0.00044435 0)
(-0.00114616 0.00057458 0)
(-0.00168505 0.000700504 0)
(-0.00231727 0.000820267 0)
(-0.00303825 0.000932661 0)
(-0.00384255 0.00103696 0)
(-0.00472419 0.00113273 0)
(-0.00567688 0.00121978 0)
(-0.00669411 0.0012981 0)
(-0.00776937 0.00136778 0)
(-0.0088962 0.00142903 0)
(-0.0100682 0.0014821 0)
(-0.0112793 0.00152731 0)
(-0.0125234 0.00156499 0)
(-0.013795 0.00159552 0)
(-0.0150884 0.00161928 0)
(-0.0163986 0.00163667 0)
(-0.0177207 0.00164809 0)
(-0.0190501 0.00165394 0)
(-0.0203826 0.0016546 0)
(-0.0217142 0.00165049 0)
(-0.0230412 0.00164197 0)
(-0.0243602 0.00162942 0)
(-0.0256682 0.00161321 0)
(-0.0269624 0.00159367 0)
(-0.0282401 0.00157115 0)
(-0.0294992 0.00154596 0)
(-0.0307375 0.00151841 0)
(-0.0319532 0.00148879 0)
(-0.0331448 0.00145738 0)
(-0.0343109 0.00142442 0)
(-0.0354503 0.00139017 0)
(-0.036562 0.00135484 0)
(-0.0376452 0.00131865 0)
(-0.0386992 0.00128179 0)
(-0.0397236 0.00124444 0)
(-0.040718 0.00120678 0)
(-0.0416821 0.00116894 0)
(-0.0426159 0.00113107 0)
(-0.0435193 0.00109329 0)
(-0.0443924 0.00105571 0)
(-0.0452354 0.00101844 0)
(-0.0460485 0.000981553 0)
(-0.046832 0.000945134 0)
(-0.0475864 0.000909248 0)
(-0.048312 0.000873951 0)
(-0.0490094 0.000839289 0)
(-0.0496789 0.000805298 0)
(-0.0503212 0.000772008 0)
(-0.0509368 0.00073944 0)
(-0.0515262 0.000707609 0)
(-0.05209 0.000676519 0)
(-0.0526289 0.00064617 0)
(-0.0531434 0.000616558 0)
(-0.053634 0.000587671 0)
(-0.0541014 0.00055949 0)
(-0.054546 0.000531994 0)
(-0.0549684 0.000505154 0)
(-0.0553692 0.00047894 0)
(-0.0557487 0.000453317 0)
(-0.0561075 0.000428248 0)
(-0.0564459 0.00040369 0)
(-0.0567643 0.000379596 0)
(-0.0570632 0.000355919 0)
(-0.0573427 0.00033261 0)
(-0.0576032 0.000309616 0)
(-0.0578449 0.000286879 0)
(-0.0580679 0.000264342 0)
(-0.0582725 0.000241944 0)
(-0.0584586 0.000219625 0)
(-0.0586263 0.000197322 0)
(-0.0587756 0.00017497 0)
(-0.0589065 0.000152503 0)
(-0.0590188 0.000129855 0)
(-0.0591123 0.00010696 0)
(-0.0591869 8.37517e-05 0)
(-0.0592421 6.01641e-05 0)
(-0.0592778 3.61301e-05 0)
(-0.0592935 1.15829e-05 0)
(-0.0592889 -1.35436e-05 0)
(-0.0592633 -3.93144e-05 0)
(-0.0592162 -6.57933e-05 0)
(-0.0591472 -9.30432e-05 0)
(-0.0590555 -0.000121126 0)
(-0.0589404 -0.0001501 0)
(-0.0588013 -0.000180025 0)
(-0.0586373 -0.000210952 0)
(-0.0584477 -0.000242934 0)
(-0.0582315 -0.000276015 0)
(-0.0579879 -0.00031024 0)
(-0.0577161 -0.000345645 0)
(-0.0574149 -0.000382263 0)
(-0.0570836 -0.00042012 0)
(-0.056721 -0.000459235 0)
(-0.0563262 -0.000499619 0)
(-0.0558983 -0.000541277 0)
(-0.0554361 -0.000584204 0)
(-0.0549388 -0.000628385 0)
(-0.0544054 -0.000673798 0)
(-0.0538349 -0.000720407 0)
(-0.0532263 -0.000768166 0)
(-0.052579 -0.000817015 0)
(-0.051892 -0.000866884 0)
(-0.0511646 -0.000917688 0)
(-0.0503961 -0.000969326 0)
(-0.0495859 -0.00102169 0)
(-0.0487337 -0.00107463 0)
(-0.0478389 -0.00112802 0)
(-0.0469014 -0.00118168 0)
(-0.045921 -0.00123543 0)
(-0.0448979 -0.00128907 0)
(-0.0438322 -0.00134238 0)
(-0.0427244 -0.00139511 0)
(-0.041575 -0.00144702 0)
(-0.0403849 -0.00149782 0)
(-0.0391552 -0.00154721 0)
(-0.037887 -0.00159488 0)
(-0.036582 -0.00164051 0)
(-0.035242 -0.00168373 0)
(-0.0338691 -0.00172419 0)
(-0.0324656 -0.00176151 0)
(-0.0310343 -0.00179528 0)
(-0.0295781 -0.00182511 0)
(-0.0281004 -0.00185057 0)
(-0.026605 -0.00187123 0)
(-0.0250956 -0.00188666 0)
(-0.0235768 -0.00189641 0)
(-0.0220532 -0.00190004 0)
(-0.0205298 -0.0018971 0)
(-0.019012 -0.00188715 0)
(-0.0175055 -0.00186974 0)
(-0.0160163 -0.00184446 0)
(-0.0145508 -0.00181088 0)
(-0.0131155 -0.00176862 0)
(-0.0117173 -0.00171733 0)
(-0.0103634 -0.00165666 0)
(-0.00906113 -0.00158634 0)
(-0.00781787 -0.00150615 0)
(-0.0066412 -0.00141595 0)
(-0.00553867 -0.00131569 0)
(-0.00451772 -0.00120546 0)
(-0.00358557 -0.00108555 0)
(-0.002749 -0.000956464 0)
(-0.00201416 -0.000819069 0)
(-0.0013862 -0.000674719 0)
(-0.00086891 -0.00052547 0)
(-0.00046406 -0.000374408 0)
(-0.000170656 -0.000226142 0)
(1.61318e-05 -8.75407e-05 0)
(0.000106139 3.12245e-05 0)
(0.000115875 0.000115339 0)
(7.34258e-05 0.000143776 0)
(2.18138e-05 8.76161e-05 0)
(1.56025e-05 -0.000114319 0)
(4.30202e-05 -0.000171185 0)
(4.10492e-05 -0.00011003 0)
(-2.79089e-05 2.99367e-05 0)
(-0.000189493 0.000221309 0)
(-0.000459877 0.000443804 0)
(-0.000849139 0.000682653 0)
(-0.00136252 0.000927273 0)
(-0.00200138 0.00117022 0)
(-0.00276415 0.00140628 0)
(-0.00364706 0.00163182 0)
(-0.00464468 0.00184441 0)
(-0.00575049 0.00204245 0)
(-0.00695711 0.00222496 0)
(-0.00825669 0.00239142 0)
(-0.00964105 0.00254165 0)
(-0.0111019 0.00267573 0)
(-0.0126309 0.00279393 0)
(-0.0142199 0.00289666 0)
(-0.0158609 0.00298445 0)
(-0.0175461 0.00305788 0)
(-0.019268 0.00311762 0)
(-0.0210193 0.00316437 0)
(-0.0227935 0.00319885 0)
(-0.0245838 0.00322181 0)
(-0.0263844 0.00323398 0)
(-0.0281894 0.00323612 0)
(-0.0299937 0.00322895 0)
(-0.0317922 0.00321322 0)
(-0.0335805 0.00318962 0)
(-0.0353543 0.00315885 0)
(-0.0371098 0.00312157 0)
(-0.0388437 0.00307843 0)
(-0.0405528 0.00303004 0)
(-0.0422342 0.002977 0)
(-0.0438856 0.00291985 0)
(-0.0455048 0.00285914 0)
(-0.0470899 0.00279536 0)
(-0.0486391 0.00272898 0)
(-0.0501513 0.00266044 0)
(-0.0516252 0.00259016 0)
(-0.0530598 0.0025185 0)
(-0.0544546 0.00244583 0)
(-0.055809 0.00237248 0)
(-0.0571225 0.00229872 0)
(-0.0583951 0.00222485 0)
(-0.0596267 0.00215109 0)
(-0.0608173 0.00207767 0)
(-0.0619671 0.0020048 0)
(-0.0630765 0.00193263 0)
(-0.0641458 0.00186132 0)
(-0.0651755 0.00179101 0)
(-0.0661662 0.00172181 0)
(-0.0671185 0.0016538 0)
(-0.0680329 0.00158707 0)
(-0.0689103 0.00152167 0)
(-0.0697513 0.00145764 0)
(-0.0705567 0.00139503 0)
(-0.0713272 0.00133383 0)
(-0.0720636 0.00127405 0)
(-0.0727666 0.00121568 0)
(-0.0734371 0.00115871 0)
(-0.0740757 0.00110309 0)
(-0.0746832 0.00104879 0)
(-0.0752603 0.000995752 0)
(-0.0758077 0.000943921 0)
(-0.0763259 0.000893229 0)
(-0.0768156 0.000843602 0)
(-0.0772774 0.000794958 0)
(-0.0777117 0.000747209 0)
(-0.078119 0.000700264 0)
(-0.0784998 0.000654024 0)
(-0.0788543 0.000608387 0)
(-0.079183 0.000563244 0)
(-0.0794859 0.000518483 0)
(-0.0797633 0.000473988 0)
(-0.0800153 0.00042964 0)
(-0.0802419 0.000385319 0)
(-0.0804432 0.0003409 0)
(-0.080619 0.000296255 0)
(-0.0807691 0.000251257 0)
(-0.0808934 0.000205777 0)
(-0.0809915 0.000159688 0)
(-0.0810631 0.000112859 0)
(-0.0811076 6.51613e-05 0)
(-0.0811247 1.64658e-05 0)
(-0.0811137 -3.3355e-05 0)
(-0.0810739 -8.44267e-05 0)
(-0.0810047 -0.000136873 0)
(-0.0809053 -0.000190814 0)
(-0.0807747 -0.000246369 0)
(-0.0806121 -0.000303652 0)
(-0.0804165 -0.000362771 0)
(-0.0801869 -0.000423829 0)
(-0.0799222 -0.000486922 0)
(-0.0796213 -0.000552139 0)
(-0.079283 -0.000619559 0)
(-0.078906 -0.000689254 0)
(-0.0784891 -0.000761283 0)
(-0.0780311 -0.000835694 0)
(-0.0775306 -0.000912521 0)
(-0.0769863 -0.000991785 0)
(-0.076397 -0.00107349 0)
(-0.0757612 -0.00115762 0)
(-0.0750778 -0.00124416 0)
(-0.0743454 -0.00133304 0)
(-0.0735628 -0.0014242 0)
(-0.0727289 -0.00151754 0)
(-0.0718424 -0.00161295 0)
(-0.0709024 -0.00171028 0)
(-0.0699079 -0.00180937 0)
(-0.068858 -0.00191001 0)
(-0.067752 -0.00201198 0)
(-0.0665893 -0.00211503 0)
(-0.0653694 -0.00221885 0)
(-0.0640921 -0.00232313 0)
(-0.0627573 -0.0024275 0)
(-0.0613652 -0.00253158 0)
(-0.059916 -0.00263492 0)
(-0.0584103 -0.00273708 0)
(-0.0568491 -0.00283754 0)
(-0.0552335 -0.00293577 0)
(-0.0535649 -0.00303119 0)
(-0.0518451 -0.0031232 0)
(-0.0500763 -0.00321115 0)
(-0.0482608 -0.00329438 0)
(-0.0464016 -0.00337217 0)
(-0.0445019 -0.0034438 0)
(-0.0425653 -0.0035085 0)
(-0.0405959 -0.0035655 0)
(-0.0385982 -0.00361398 0)
(-0.036577 -0.00365313 0)
(-0.0345379 -0.00368212 0)
(-0.0324864 -0.0037001 0)
(-0.030429 -0.00370623 0)
(-0.0283723 -0.00369967 0)
(-0.0263235 -0.00367958 0)
(-0.02429 -0.00364514 0)
(-0.0222798 -0.00359557 0)
(-0.0203014 -0.00353012 0)
(-0.0183633 -0.00344808 0)
(-0.0164746 -0.0033488 0)
(-0.0146446 -0.00323173 0)
(-0.0128828 -0.0030964 0)
(-0.0111988 -0.00294248 0)
(-0.00960238 -0.00276982 0)
(-0.00810306 -0.00257845 0)
(-0.00671026 -0.00236871 0)
(-0.005433 -0.00214129 0)
(-0.00427964 -0.00189739 0)
(-0.0032576 -0.00163886 0)
(-0.00237298 -0.00136846 0)
(-0.00163006 -0.00109022 0)
(-0.00103064 -0.000809949 0)
(-0.00057324 -0.000535905 0)
(-0.000252079 -0.00027983 0)
(-5.59826e-05 -5.8276e-05 0)
(3.30526e-05 0.000105875 0)
(4.34779e-05 0.00018155 0)
(1.67086e-05 0.000124943 0)
(8.70396e-06 -0.000131736 0)
(4.54448e-06 -0.000165391 0)
(-6.06222e-05 -4.07256e-05 0)
(-0.000218488 0.000191346 0)
(-0.000492532 0.000495125 0)
(-0.000898731 0.000843543 0)
(-0.00144714 0.00121622 0)
(-0.00214302 0.00159814 0)
(-0.00298769 0.0019783 0)
(-0.00397938 0.00234876 0)
(-0.00511387 0.00270385 0)
(-0.00638509 0.00303958 0)
(-0.00778559 0.00335325 0)
(-0.00930695 0.00364315 0)
(-0.0109401 0.00390826 0)
(-0.0126754 0.00414813 0)
(-0.0145031 0.00436273 0)
(-0.0164136 0.00455237 0)
(-0.0183969 0.00471757 0)
(-0.0204435 0.00485909 0)
(-0.0225441 0.00497779 0)
(-0.0246896 0.00507465 0)
(-0.0268714 0.00515074 0)
(-0.0290812 0.00520716 0)
(-0.0313111 0.00524506 0)
(-0.0335537 0.0052656 0)
(-0.0358021 0.00526995 0)
(-0.0380498 0.00525928 0)
(-0.0402906 0.00523472 0)
(-0.0425191 0.00519742 0)
(-0.04473 0.00514845 0)
(-0.0469187 0.0050889 0)
(-0.0490808 0.00501979 0)
(-0.0512125 0.00494211 0)
(-0.0533103 0.0048568 0)
(-0.0553712 0.00476476 0)
(-0.0573923 0.00466686 0)
(-0.0593714 0.00456389 0)
(-0.0613063 0.00445662 0)
(-0.0631954 0.00434576 0)
(-0.0650372 0.00423197 0)
(-0.0668305 0.00411588 0)
(-0.0685743 0.00399806 0)
(-0.0702681 0.00387903 0)
(-0.0719112 0.00375929 0)
(-0.0735035 0.00363926 0)
(-0.0750448 0.00351936 0)
(-0.0765352 0.00339993 0)
(-0.0779749 0.00328131 0)
(-0.0793642 0.00316377 0)
(-0.0807036 0.00304757 0)
(-0.0819937 0.00293293 0)
(-0.0832351 0.00282003 0)
(-0.0844285 0.00270901 0)
(-0.0855747 0.00260002 0)
(-0.0866745 0.00249314 0)
(-0.0877289 0.00238846 0)
(-0.0887387 0.00228601 0)
(-0.0897047 0.00218583 0)
(-0.0906281 0.00208793 0)
(-0.0915096 0.00199228 0)
(-0.0923503 0.00189886 0)
(-0.0931509 0.00180762 0)
(-0.0939125 0.00171849 0)
(-0.0946358 0.00163139 0)
(-0.0953217 0.00154623 0)
(-0.0959709 0.00146289 0)
(-0.0965842 0.00138127 0)
(-0.0971623 0.00130122 0)
(-0.0977058 0.00122261 0)
(-0.0982152 0.00114529 0)
(-0.0986911 0.00106911 0)
(-0.0991339 0.000993884 0)
(-0.0995439 0.000919452 0)
(-0.0999214 0.00084563 0)
(-0.100267 0.000772232 0)
(-0.10058 0.000699068 0)
(-0.100861 0.00062594 0)
(-0.10111 0.000552648 0)
(-0.101327 0.000478989 0)
(-0.101511 0.000404755 0)
(-0.101663 0.000329742 0)
(-0.101781 0.000253739 0)
(-0.101866 0.000176539 0)
(-0.101917 9.79318e-05 0)
(-0.101933 1.77105e-05 0)
(-0.101914 -6.43304e-05 0)
(-0.101859 -0.000148393 0)
(-0.101766 -0.000234676 0)
(-0.101635 -0.000323373 0)
(-0.101466 -0.000414673 0)
(-0.101256 -0.000508759 0)
(-0.101004 -0.000605802 0)
(-0.10071 -0.000705968 0)
(-0.100371 -0.000809408 0)
(-0.0999876 -0.000916263 0)
(-0.099557 -0.00102666 0)
(-0.099078 -0.00114071 0)
(-0.0985491 -0.0012585 0)
(-0.0979687 -0.00138011 0)
(-0.0973354 -0.00150559 0)
(-0.0966474 -0.00163498 0)
(-0.0959032 -0.00176826 0)
(-0.0951012 -0.00190542 0)
(-0.0942398 -0.00204641 0)
(-0.0933175 -0.00219114 0)
(-0.0923328 -0.0023395 0)
(-0.0912843 -0.00249131 0)
(-0.0901706 -0.00264639 0)
(-0.0889904 -0.00280451 0)
(-0.0877427 -0.00296538 0)
(-0.0864264 -0.00312869 0)
(-0.0850406 -0.00329405 0)
(-0.0835847 -0.00346104 0)
(-0.0820581 -0.0036292 0)
(-0.0804606 -0.00379799 0)
(-0.0787921 -0.00396683 0)
(-0.0770528 -0.00413508 0)
(-0.0752433 -0.00430205 0)
(-0.0733642 -0.00446699 0)
(-0.0714167 -0.00462907 0)
(-0.0694022 -0.00478745 0)
(-0.0673227 -0.00494118 0)
(-0.0651803 -0.0050893 0)
(-0.0629777 -0.00523077 0)
(-0.0607179 -0.00536451 0)
(-0.0584046 -0.00548938 0)
(-0.0560416 -0.00560422 0)
(-0.0536336 -0.00570781 0)
(-0.0511856 -0.00579889 0)
(-0.048703 -0.00587619 0)
(-0.046192 -0.00593839 0)
(-0.0436591 -0.00598417 0)
(-0.0411114 -0.00601219 0)
(-0.0385566 -0.00602113 0)
(-0.0360029 -0.00600966 0)
(-0.0334589 -0.00597646 0)
(-0.0309339 -0.00592027 0)
(-0.0284375 -0.00583988 0)
(-0.0259799 -0.00573412 0)
(-0.0235714 -0.00560193 0)
(-0.0212231 -0.00544236 0)
(-0.0189459 -0.00525459 0)
(-0.0167514 -0.005038 0)
(-0.0146509 -0.00479218 0)
(-0.0126559 -0.004517 0)
(-0.0107777 -0.00421271 0)
(-0.0090273 -0.00388002 0)
(-0.00741516 -0.00352023 0)
(-0.00595086 -0.00313543 0)
(-0.00464284 -0.00272875 0)
(-0.00349796 -0.00230471 0)
(-0.00252097 -0.00186965 0)
(-0.0017139 -0.00143243 0)
(-0.00107528 -0.00100525 0)
(-0.000599289 -0.000604819 0)
(-0.000274751 -0.000253904 0)
(-8.39021e-05 1.70515e-05 0)
(-8.90577e-07 0.00016777 0)
(8.72228e-06 0.000141641 0)
(6.63066e-07 -0.000126551 0)
(-4.10243e-05 -0.000103538 0)
(-0.00018089 0.000112589 0)
(-0.000441671 0.000461894 0)
(-0.000842765 0.000901546 0)
(-0.00139875 0.00139842 0)
(-0.00211869 0.00192698 0)
(-0.00300713 0.00246791 0)
(-0.00406487 0.0030067 0)
(-0.00528963 0.00353258 0)
(-0.00667663 0.00403767 0)
(-0.00821915 0.00451629 0)
(-0.00990895 0.00496447 0)
(-0.0117367 0.00537958 0)
(-0.0136922 0.00576 0)
(-0.0157648 0.0061049 0)
(-0.0179436 0.00641408 0)
(-0.0202175 0.0066878 0)
(-0.0225753 0.00692672 0)
(-0.0250062 0.00713177 0)
(-0.0274995 0.00730411 0)
(-0.0300449 0.00744506 0)
(-0.0326323 0.00755607 0)
(-0.0352522 0.00763868 0)
(-0.0378956 0.00769449 0)
(-0.0405537 0.00772514 0)
(-0.0432186 0.00773228 0)
(-0.0458826 0.00771757 0)
(-0.0485387 0.00768263 0)
(-0.0511804 0.00762908 0)
(-0.0538015 0.00755851 0)
(-0.0563965 0.00747243 0)
(-0.0589605 0.00737233 0)
(-0.0614888 0.00725965 0)
(-0.0639774 0.00713574 0)
(-0.0664226 0.00700193 0)
(-0.0688211 0.00685944 0)
(-0.0711702 0.00670946 0)
(-0.0734674 0.00655308 0)
(-0.0757106 0.00639136 0)
(-0.077898 0.00622526 0)
(-0.0800283 0.00605569 0)
(-0.0821002 0.00588348 0)
(-0.0841131 0.00570941 0)
(-0.0860662 0.00553419 0)
(-0.0879592 0.00535846 0)
(-0.0897919 0.00518282 0)
(-0.0915645 0.00500779 0)
(-0.093277 0.00483385 0)
(-0.0949299 0.00466142 0)
(-0.0965237 0.00449086 0)
(-0.0980589 0.00432251 0)
(-0.0995364 0.00415662 0)
(-0.100957 0.00399344 0)
(-0.102322 0.00383314 0)
(-0.103631 0.00367589 0)
(-0.104886 0.00352178 0)
(-0.106089 0.0033709 0)
(-0.107239 0.00322328 0)
(-0.108339 0.00307895 0)
(-0.109388 0.00293788 0)
(-0.110389 0.00280003 0)
(-0.111342 0.00266532 0)
(-0.112249 0.00253367 0)
(-0.11311 0.00240496 0)
(-0.113926 0.00227906 0)
(-0.114698 0.0021558 0)
(-0.115427 0.00203502 0)
(-0.116115 0.00191653 0)
(-0.11676 0.00180012 0)
(-0.117365 0.00168558 0)
(-0.11793 0.00157267 0)
(-0.118455 0.00146116 0)
(-0.118941 0.0013508 0)
(-0.119388 0.00124131 0)
(-0.119796 0.00113243 0)
(-0.120166 0.00102389 0)
(-0.120497 0.000915388 0)
(-0.120789 0.000806646 0)
(-0.121043 0.000697365 0)
(-0.121258 0.000587245 0)
(-0.121434 0.000475985 0)
(-0.12157 0.000363283 0)
(-0.121666 0.000248833 0)
(-0.121721 0.000132334 0)
(-0.121735 1.34827e-05 0)
(-0.121706 -0.000108017 0)
(-0.121633 -0.00023246 0)
(-0.121517 -0.000360132 0)
(-0.121354 -0.000491314 0)
(-0.121145 -0.00062628 0)
(-0.120888 -0.000765291 0)
(-0.120582 -0.000908596 0)
(-0.120224 -0.00105643 0)
(-0.119814 -0.00120901 0)
(-0.11935 -0.00136654 0)
(-0.11883 -0.0015292 0)
(-0.118253 -0.00169715 0)
(-0.117616 -0.00187051 0)
(-0.116919 -0.0020494 0)
(-0.116158 -0.00223387 0)
(-0.115333 -0.00242397 0)
(-0.114441 -0.0026197 0)
(-0.113481 -0.00282102 0)
(-0.11245 -0.00302784 0)
(-0.111347 -0.00324004 0)
(-0.110171 -0.00345744 0)
(-0.108919 -0.00367979 0)
(-0.10759 -0.00390682 0)
(-0.106183 -0.00413817 0)
(-0.104697 -0.00437343 0)
(-0.103129 -0.00461212 0)
(-0.10148 -0.0048537 0)
(-0.0997482 -0.00509754 0)
(-0.0979334 -0.00534295 0)
(-0.0960351 -0.00558916 0)
(-0.0940535 -0.00583531 0)
(-0.0919888 -0.00608048 0)
(-0.0898415 -0.00632365 0)
(-0.0876128 -0.00656373 0)
(-0.0853038 -0.00679953 0)
(-0.0829165 -0.0070298 0)
(-0.0804529 -0.0072532 0)
(-0.0779158 -0.0074683 0)
(-0.0753082 -0.00767361 0)
(-0.0726338 -0.00786757 0)
(-0.0698967 -0.00804853 0)
(-0.0671018 -0.00821481 0)
(-0.0642543 -0.00836463 0)
(-0.06136 -0.00849621 0)
(-0.0584255 -0.00860769 0)
(-0.0554578 -0.0086972 0)
(-0.0524645 -0.00876283 0)
(-0.0494541 -0.00880269 0)
(-0.0464353 -0.00881486 0)
(-0.0434177 -0.00879747 0)
(-0.0404113 -0.00874867 0)
(-0.0374269 -0.00866668 0)
(-0.0344754 -0.00854978 0)
(-0.0315686 -0.00839639 0)
(-0.0287186 -0.00820504 0)
(-0.0259377 -0.00797446 0)
(-0.0232388 -0.00770359 0)
(-0.0206347 -0.00739164 0)
(-0.0181385 -0.00703817 0)
(-0.0157631 -0.00664318 0)
(-0.0135212 -0.00620719 0)
(-0.0114252 -0.00573141 0)
(-0.00948669 -0.00521791 0)
(-0.00771631 -0.00466988 0)
(-0.0061234 -0.00409191 0)
(-0.00471557 -0.00349046 0)
(-0.00349818 -0.00287438 0)
(-0.00247379 -0.0022557 0)
(-0.00164151 -0.00165052 0)
(-0.000996289 -0.00108035 0)
(-0.000528029 -0.000573641 0)
(-0.00022056 -0.000167529 0)
(-5.27368e-05 8.99447e-05 0)
(-4.396e-07 0.00013247 0)
(-7.72963e-06 -9.64974e-05 0)
(-8.99576e-05 2.11136e-05 0)
(-0.00031122 0.000359639 0)
(-0.000683692 0.000852833 0)
(-0.00122144 0.0014522 0)
(-0.00193672 0.00211946 0)
(-0.00283687 0.00282458 0)
(-0.00392508 0.00354427 0)
(-0.00520112 0.00426074 0)
(-0.00666191 0.00496044 0)
(-0.00830192 0.00563325 0)
(-0.0101137 0.00627175 0)
(-0.0120881 0.00687062 0)
(-0.0142151 0.0074262 0)
(-0.0164835 0.00793619 0)
(-0.0188818 0.0083993 0)
(-0.0213978 0.00881509 0)
(-0.0240193 0.00918375 0)
(-0.0267343 0.009506 0)
(-0.0295307 0.00978297 0)
(-0.0323965 0.0100161 0)
(-0.0353203 0.010207 0)
(-0.038291 0.0103577 0)
(-0.0412979 0.01047 0)
(-0.0443308 0.0105462 0)
(-0.0473801 0.0105883 0)
(-0.0504367 0.0105985 0)
(-0.053492 0.010579 0)
(-0.0565381 0.010532 0)
(-0.0595676 0.0104597 0)
(-0.0625736 0.0103642 0)
(-0.0655499 0.0102475 0)
(-0.0684907 0.0101117 0)
(-0.071391 0.00995863 0)
(-0.0742459 0.00979018 0)
(-0.0770513 0.0096081 0)
(-0.0798036 0.0094141 0)
(-0.0824994 0.00920976 0)
(-0.085136 0.00899659 0)
(-0.0877111 0.00877601 0)
(-0.0902225 0.00854934 0)
(-0.0926686 0.00831781 0)
(-0.0950482 0.00808257 0)
(-0.0973601 0.00784467 0)
(-0.0996038 0.00760509 0)
(-0.101779 0.00736471 0)
(-0.103885 0.00712434 0)
(-0.105922 0.00688471 0)
(-0.10789 0.00664646 0)
(-0.10979 0.00641018 0)
(-0.111623 0.00617637 0)
(-0.113388 0.00594548 0)
(-0.115087 0.00571789 0)
(-0.11672 0.0054939 0)
(-0.11829 0.00527379 0)
(-0.119796 0.00505776 0)
(-0.121239 0.00484597 0)
(-0.122622 0.00463852 0)
(-0.123945 0.00443548 0)
(-0.12521 0.00423686 0)
(-0.126417 0.00404266 0)
(-0.127568 0.0038528 0)
(-0.128664 0.0036672 0)
(-0.129706 0.00348574 0)
(-0.130696 0.00330825 0)
(-0.131634 0.00313457 0)
(-0.132521 0.00296447 0)
(-0.133359 0.00279772 0)
(-0.134148 0.00263407 0)
(-0.134889 0.00247325 0)
(-0.135583 0.00231495 0)
(-0.13623 0.00215887 0)
(-0.136832 0.00200467 0)
(-0.137388 0.00185202 0)
(-0.137898 0.00170056 0)
(-0.138364 0.00154993 0)
(-0.138786 0.00139973 0)
(-0.139163 0.0012496 0)
(-0.139495 0.00109912 0)
(-0.139782 0.000947912 0)
(-0.140025 0.000795557 0)
(-0.140222 0.000641648 0)
(-0.140373 0.000485774 0)
(-0.140477 0.000327523 0)
(-0.140534 0.000166482 0)
(-0.140543 2.24452e-06 0)
(-0.140504 -0.000165594 0)
(-0.140414 -0.00033743 0)
(-0.140272 -0.000513653 0)
(-0.140078 -0.000694644 0)
(-0.139831 -0.000880768 0)
(-0.139528 -0.00107238 0)
(-0.139167 -0.00126981 0)
(-0.138749 -0.00147339 0)
(-0.13827 -0.00168339 0)
(-0.137728 -0.0019001 0)
(-0.137123 -0.00212375 0)
(-0.136451 -0.00235455 0)
(-0.135712 -0.00259267 0)
(-0.134902 -0.00283825 0)
(-0.134021 -0.00309138 0)
(-0.133065 -0.00335211 0)
(-0.132033 -0.00362042 0)
(-0.130923 -0.00389626 0)
(-0.129732 -0.00417951 0)
(-0.128459 -0.00446998 0)
(-0.127102 -0.00476743 0)
(-0.125659 -0.00507153 0)
(-0.124128 -0.00538188 0)
(-0.122507 -0.00569799 0)
(-0.120796 -0.00601931 0)
(-0.118993 -0.00634517 0)
(-0.117097 -0.00667482 0)
(-0.115106 -0.00700742 0)
(-0.113021 -0.00734202 0)
(-0.110842 -0.00767756 0)
(-0.108567 -0.00801288 0)
(-0.106199 -0.00834671 0)
(-0.103736 -0.00867769 0)
(-0.101181 -0.00900431 0)
(-0.0985347 -0.00932498 0)
(-0.0957995 -0.00963798 0)
(-0.0929779 -0.00994151 0)
(-0.0900728 -0.0102336 0)
(-0.0870878 -0.0105123 0)
(-0.0840271 -0.0107755 0)
(-0.0808954 -0.0110209 0)
(-0.077698 -0.0112462 0)
(-0.074441 -0.0114492 0)
(-0.071131 -0.0116272 0)
(-0.0677752 -0.011778 0)