/*--------------------------------*- C++ -*----------------------------------*\
  =========                 |
  \\      /  F ield         | OpenFOAM: The Open Source CFD Toolbox
   \\    /   O peration     | Website:  https://openfoam.org
    \\  /    A nd           | Version:  7
     \\/     M anipulation  |
\*---------------------------------------------------------------------------*/
FoamFile
{
    version     2.0;
    format      ascii;
    class       volScalarField;
    location    "0.5";
    object      p;
}
// * * * * * * * * * * * * * * * * * * * * * * * * * * * * * * * * * * * * * //

dimensions      [0 2 -2 0 0 0 0];

internalField   nonuniform List<scalar> 
51200
(
7.5857e-07
7.2414e-07
1.91841e-06
4.92681e-06
9.63524e-06
1.57862e-05
2.31011e-05
3.12964e-05
4.01226e-05
4.93611e-05
5.8807e-05
6.82824e-05
7.76413e-05
8.67646e-05
9.55496e-05
0.000103895
0.000111701
0.000118881
0.000125379
0.000131155
0.000136159
0.000140344
0.000143676
0.000146126
0.000147677
0.000148317
0.000148024
0.000146784
0.000144586
0.000141425
0.000137301
0.000132221
0.00012619
0.000119211
0.000111284
0.000102413
9.26146e-05
8.19077e-05
7.03061e-05
5.78187e-05
4.44563e-05
3.02336e-05
1.51668e-05
-7.24653e-07
-1.74167e-05
-3.48859e-05
-5.31154e-05
-7.20916e-05
-9.17969e-05
-0.000112209
-0.000133306
-0.000155065
-0.000177462
-0.000200475
-0.000224082
-0.000248265
-0.000273001
-0.000298265
-0.000324032
-0.000350281
-0.00037699
-0.000404137
-0.0004317
-0.000459654
-0.000487975
-0.000516641
-0.000545633
-0.000574928
-0.000604504
-0.000634335
-0.000664401
-0.000694681
-0.000725151
-0.000755787
-0.000786568
-0.000817475
-0.000848486
-0.000879572
-0.000910712
-0.000941886
-0.000973076
-0.00100425
-0.0010354
-0.00106648
-0.00109749
-0.0011284
-0.00115919
-0.00118982
-0.00122029
-0.00125057
-0.00128064
-0.00131047
-0.00134005
-0.00136935
-0.00139835
-0.00142701
-0.00145533
-0.00148329
-0.00151084
-0.00153798
-0.00156468
-0.00159092
-0.00161668
-0.00164192
-0.00166664
-0.0016908
-0.0017144
-0.00173739
-0.00175976
-0.0017815
-0.00180258
-0.00182297
-0.00184264
-0.00186159
-0.0018798
-0.00189724
-0.0019139
-0.00192975
-0.00194477
-0.00195895
-0.00197227
-0.00198471
-0.00199627
-0.00200691
-0.00201662
-0.00202542
-0.0020333
-0.00204023
-0.00204617
-0.00205114
-0.00205516
-0.00205824
-0.00206036
-0.0020615
-0.0020617
-0.00206099
-0.00205934
-0.00205676
-0.0020533
-0.00204901
-0.00204393
-0.00203807
-0.00203147
-0.00202419
-0.00201631
-0.0020079
-0.00199906
-0.00198987
-0.00198046
-0.00197093
-0.00196145
-0.0019522
-0.00194337
-0.00193516
-0.00192784
-0.00192172
-0.00191709
-0.00191405
-0.00191272
-0.00191294
1.92123e-06
1.39179e-06
2.49109e-06
5.22e-06
9.34281e-06
1.46753e-05
2.10207e-05
2.81577e-05
3.58753e-05
4.39933e-05
5.23399e-05
6.07523e-05
6.90842e-05
7.7211e-05
8.50347e-05
9.24711e-05
9.94367e-05
0.000105841
0.000111614
0.000116712
0.000121095
0.00012472
0.00012755
0.000129548
0.000130691
0.000130965
0.000130356
0.00012885
0.000126437
0.000123105
0.000118849
0.000113668
0.000107568
0.000100559
9.26459e-05
8.38272e-05
7.41066e-05
6.34995e-05
5.20228e-05
3.96896e-05
2.65122e-05
1.25047e-05
-2.31958e-06
-1.79482e-05
-3.43642e-05
-5.15438e-05
-6.94641e-05
-8.81084e-05
-0.000107461
-0.000127503
-0.000148214
-0.000169576
-0.000191566
-0.00021416
-0.000237336
-0.000261074
-0.000285355
-0.000310155
-0.000335453
-0.000361222
-0.000387442
-0.000414092
-0.00044115
-0.000468596
-0.000496406
-0.000524555
-0.000553022
-0.000581788
-0.00061083
-0.000640126
-0.000669652
-0.00069939
-0.000729317
-0.000759408
-0.00078964
-0.000819993
-0.00085045
-0.000880986
-0.000911574
-0.000942193
-0.000972826
-0.00100345
-0.00103404
-0.00106457
-0.00109502
-0.00112538
-0.00115562
-0.00118571
-0.00121563
-0.00124537
-0.00127489
-0.00130419
-0.00133323
-0.00136199
-0.00139046
-0.00141861
-0.00144641
-0.00147385
-0.0015009
-0.00152754
-0.00155374
-0.0015795
-0.00160478
-0.00162956
-0.00165382
-0.00167754
-0.00170069
-0.00172327
-0.00174523
-0.00176656
-0.00178725
-0.00180727
-0.0018266
-0.00184522
-0.0018631
-0.00188024
-0.00189662
-0.00191221
-0.001927
-0.00194097
-0.0019541
-0.00196638
-0.00197781
-0.00198836
-0.001998
-0.00200673
-0.00201458
-0.00202154
-0.00202758
-0.00203266
-0.00203681
-0.00204006
-0.0020424
-0.00204382
-0.00204432
-0.00204395
-0.00204273
-0.00204064
-0.0020377
-0.00203396
-0.00202947
-0.00202429
-0.00201843
-0.00201195
-0.00200491
-0.00199741
-0.00198951
-0.00198132
-0.00197294
-0.00196451
-0.00195613
-0.00194799
-0.00194026
-0.00193312
-0.00192674
-0.00192139
-0.00191739
-0.00191488
-0.00191381
-0.00191397
9.97553e-07
3.5542e-07
1.41744e-06
3.9893e-06
7.77366e-06
1.26048e-05
1.83247e-05
2.47505e-05
3.1697e-05
3.90048e-05
4.65298e-05
5.41354e-05
6.16896e-05
6.9066e-05
7.61581e-05
8.28831e-05
8.9175e-05
9.49565e-05
0.000100151
0.000104707
0.000108584
0.000111744
0.000114156
0.000115784
0.000116595
0.000116571
0.000115696
0.000113961
0.000111356
0.000107873
0.000103502
9.82385e-05
9.20798e-05
8.5035e-05
7.7117e-05
6.83296e-05
5.86716e-05
4.81491e-05
3.67755e-05
2.45645e-05
1.15293e-05
-2.31412e-06
-1.69489e-05
-3.23628e-05
-4.85456e-05
-6.54805e-05
-8.31452e-05
-0.000101519
-0.000120586
-0.000140326
-0.000160721
-0.000181751
-0.0002034
-0.000225646
-0.000248464
-0.000271834
-0.000295734
-0.000320147
-0.00034505
-0.000370419
-0.000396232
-0.000422467
-0.000449103
-0.00047612
-0.000503499
-0.000531214
-0.000559243
-0.000587564
-0.000616158
-0.000645003
-0.000674076
-0.000703356
-0.000732823
-0.000762456
-0.000792229
-0.000822118
-0.000852106
-0.000882175
-0.000912299
-0.000942453
-0.000972617
-0.00100277
-0.0010329
-0.00106296
-0.00109295
-0.00112284
-0.00115261
-0.00118224
-0.0012117
-0.00124098
-0.00127005
-0.0012989
-0.00132748
-0.0013558
-0.00138383
-0.00141154
-0.00143891
-0.00146591
-0.00149254
-0.00151877
-0.00154456
-0.0015699
-0.00159479
-0.00161918
-0.00164306
-0.0016664
-0.00168919
-0.00171142
-0.00173304
-0.00175404
-0.0017744
-0.00179412
-0.00181316
-0.00183151
-0.00184913
-0.00186603
-0.00188218
-0.00189755
-0.00191215
-0.00192595
-0.00193894
-0.00195108
-0.0019624
-0.00197288
-0.00198249
-0.0019912
-0.00199902
-0.00200599
-0.00201209
-0.00201728
-0.00202156
-0.00202496
-0.00202749
-0.00202914
-0.00202991
-0.00202982
-0.00202892
-0.00202723
-0.00202474
-0.00202146
-0.00201747
-0.00201281
-0.00200754
-0.0020017
-0.00199533
-0.00198853
-0.00198137
-0.00197394
-0.00196636
-0.00195873
-0.00195118
-0.00194383
-0.00193686
-0.00193045
-0.00192471
-0.00191979
-0.00191599
-0.0019136
-0.00191276
-0.00191319
-1.98386e-06
-2.34601e-06
-1.14231e-06
1.42211e-06
5.063e-06
9.62677e-06
1.49683e-05
2.09345e-05
2.73623e-05
3.41033e-05
4.10273e-05
4.80152e-05
5.49581e-05
6.17439e-05
6.8265e-05
7.44291e-05
8.01731e-05
8.54372e-05
9.01524e-05
9.42602e-05
9.7718e-05
0.000100486
0.000102535
0.000103838
0.000104362
0.000104083
0.000102984
0.00010105
9.82727e-05
9.46458e-05
9.01638e-05
8.48225e-05
7.86144e-05
7.1539e-05
6.36076e-05
5.48317e-05
4.52145e-05
3.47588e-05
2.34729e-05
1.13684e-05
-1.54392e-06
-1.52505e-05
-2.97328e-05
-4.49733e-05
-6.09604e-05
-7.76833e-05
-9.51245e-05
-0.000113264
-0.000132083
-0.000151566
-0.000171691
-0.000192438
-0.00021379
-0.000235731
-0.000258238
-0.000281288
-0.00030486
-0.000328934
-0.000353491
-0.000378509
-0.000403966
-0.000429839
-0.000456107
-0.000482749
-0.000509748
-0.00053708
-0.000564724
-0.000592655
-0.000620855
-0.000649304
-0.000677979
-0.000706857
-0.000735918
-0.000765144
-0.000794511
-0.000823994
-0.000853571
-0.000883226
-0.000912939
-0.000942684
-0.000972435
-0.00100218
-0.00103189
-0.00106155
-0.00109112
-0.0011206
-0.00114996
-0.00117919
-0.00120824
-0.00123712
-0.00126579
-0.00129423
-0.00132243
-0.00135035
-0.00137799
-0.00140532
-0.0014323
-0.00145893
-0.00148519
-0.00151105
-0.00153649
-0.00156148
-0.00158601
-0.00161006
-0.00163361
-0.00165663
-0.0016791
-0.00170101
-0.00172235
-0.00174307
-0.00176316
-0.0017826
-0.00180139
-0.0018195
-0.0018369
-0.00185359
-0.00186955
-0.00188475
-0.00189918
-0.00191284
-0.00192571
-0.00193775
-0.00194897
-0.00195937
-0.00196896
-0.00197768
-0.00198551
-0.00199249
-0.00199863
-0.00200392
-0.00200832
-0.00201185
-0.00201454
-0.00201641
-0.00201742
-0.00201759
-0.00201696
-0.00201558
-0.00201346
-0.0020106
-0.00200703
-0.00200282
-0.00199803
-0.00199269
-0.00198687
-0.00198064
-0.00197407
-0.00196724
-0.00196025
-0.00195323
-0.00194628
-0.0019395
-0.00193305
-0.00192711
-0.00192181
-0.00191722
-0.00191348
-0.00191091
-0.00190988
-0.00191024
-6.70911e-06
-6.46357e-06
-4.91141e-06
-2.20582e-06
1.43399e-06
5.87081e-06
1.0974e-05
1.66133e-05
2.26522e-05
2.89591e-05
3.54116e-05
4.18977e-05
4.83209e-05
5.45895e-05
6.06107e-05
6.62892e-05
7.15536e-05
7.63521e-05
8.06288e-05
8.43277e-05
8.74055e-05
8.98192e-05
9.1536e-05
9.25327e-05
9.27815e-05
9.22598e-05
9.09485e-05
8.88296e-05
8.58919e-05
8.2127e-05
7.75302e-05
7.21027e-05
6.58412e-05
5.87388e-05
5.07977e-05
4.20285e-05
3.24399e-05
2.20365e-05
1.0825e-05
-1.18413e-06
-1.39807e-05
-2.75553e-05
-4.18938e-05
-5.6977e-05
-7.27885e-05
-8.9317e-05
-0.000106549
-0.000124467
-0.000143053
-0.00016229
-0.000182161
-0.000202643
-0.000223719
-0.00024537
-0.00026758
-0.000290326
-0.000313587
-0.000337342
-0.000361571
-0.000386253
-0.000411368
-0.000436896
-0.000462814
-0.000489101
-0.000515737
-0.000542703
-0.000569977
-0.000597536
-0.000625359
-0.000653428
-0.000681721
-0.000710216
-0.00073889
-0.000767724
-0.0007967
-0.000825793
-0.000854979
-0.000884238
-0.000913555
-0.000942905
-0.000972264
-0.00100161
-0.00103092
-0.00106019
-0.00108937
-0.00111846
-0.00114743
-0.00117626
-0.00120493
-0.00123341
-0.0012617
-0.00128977
-0.00131758
-0.00134513
-0.0013724
-0.00139935
-0.00142598
-0.00145225
-0.00147815
-0.00150366
-0.00152875
-0.00155341
-0.00157761
-0.00160134
-0.00162457
-0.00164729
-0.00166946
-0.00169108
-0.00171213
-0.00173258
-0.00175242
-0.00177162
-0.00179017
-0.00180806
-0.00182525
-0.00184174
-0.00185752
-0.00187256
-0.00188685
-0.00190037
-0.00191313
-0.00192509
-0.00193624
-0.00194657
-0.0019561
-0.00196482
-0.00197269
-0.00197971
-0.00198589
-0.00199125
-0.00199578
-0.00199945
-0.00200229
-0.00200433
-0.00200558
-0.00200602
-0.00200566
-0.00200456
-0.00200276
-0.00200026
-0.0019971
-0.00199331
-0.00198895
-0.00198407
-0.00197872
-0.00197299
-0.00196693
-0.00196062
-0.00195414
-0.0019476
-0.00194113
-0.00193481
-0.00192875
-0.00192308
-0.00191802
-0.00191364
-0.00190997
-0.00190717
-0.00190567
-0.00190548
-1.28928e-05
-1.18145e-05
-9.74693e-06
-6.75957e-06
-2.98684e-06
1.45432e-06
6.4481e-06
1.18832e-05
1.76464e-05
2.36264e-05
2.9717e-05
3.58112e-05
4.18156e-05
4.76478e-05
5.32343e-05
5.84917e-05
6.33436e-05
6.77359e-05
7.1621e-05
7.49487e-05
7.76795e-05
7.97729e-05
8.1191e-05
8.19093e-05
8.19026e-05
8.115e-05
7.96352e-05
7.73408e-05
7.42536e-05
7.03627e-05
6.5659e-05
6.01431e-05
5.38186e-05
4.66825e-05
3.87311e-05
2.99691e-05
2.0405e-05
1.00455e-05
-1.10357e-06
-1.30321e-05
-2.57277e-05
-3.91811e-05
-5.33828e-05
-6.83183e-05
-8.39694e-05
-0.000100322
-0.000117362
-0.000135076
-0.000153445
-0.000172452
-0.000192082
-0.000212316
-0.000233134
-0.000254517
-0.000276447
-0.000298906
-0.000321873
-0.000345327
-0.000369248
-0.000393614
-0.000418406
-0.000443605
-0.000469191
-0.000495142
-0.000521436
-0.000548054
-0.000574977
-0.000602182
-0.000629648
-0.000657354
-0.000685284
-0.000713414
-0.000741722
-0.000770185
-0.000798786
-0.000827506
-0.00085632
-0.000885205
-0.000914144
-0.000943117
-0.000972101
-0.00100107
-0.00103001
-0.00105889
-0.0010877
-0.00111642
-0.00114501
-0.00117347
-0.00120177
-0.00122989
-0.00125781
-0.00128551
-0.00131297
-0.00134017
-0.00136708
-0.00139368
-0.00141997
-0.0014459
-0.00147146
-0.00149664
-0.00152141
-0.00154575
-0.00156964
-0.00159306
-0.001616
-0.00163843
-0.00166033
-0.00168167
-0.00170245
-0.00172265
-0.00174225
-0.00176122
-0.00177955
-0.00179723
-0.00181423
-0.00183055
-0.00184616
-0.00186105
-0.0018752
-0.0018886
-0.00190125
-0.00191314
-0.00192423
-0.00193452
-0.001944
-0.0019527
-0.00196061
-0.00196767
-0.00197391
-0.00197934
-0.00198398
-0.0019878
-0.00199079
-0.00199299
-0.00199443
-0.00199512
-0.00199504
-0.00199422
-0.0019927
-0.00199052
-0.00198771
-0.0019843
-0.00198033
-0.00197585
-0.00197093
-0.00196561
-0.00195998
-0.00195411
-0.00194806
-0.00194191
-0.0019358
-0.00192982
-0.00192405
-0.00191858
-0.00191356
-0.00190916
-0.00190544
-0.00190242
-0.00190034
-0.00189928
-2.02441e-05
-1.81897e-05
-1.54874e-05
-1.21077e-05
-8.08371e-06
-3.51916e-06
1.4842e-06
6.83383e-06
1.24328e-05
1.81867e-05
2.40074e-05
2.98029e-05
3.54831e-05
4.09666e-05
4.61894e-05
5.10861e-05
5.55856e-05
5.96313e-05
6.31785e-05
6.61799e-05
6.8599e-05
7.04021e-05
7.15518e-05
7.2021e-05
7.1785e-05
7.08216e-05
6.91159e-05
6.66528e-05
6.34207e-05
5.94105e-05
5.46105e-05
4.90144e-05
4.26262e-05
3.54487e-05
2.748e-05
1.87207e-05
9.1766e-06
-1.1451e-06
-1.2239e-05
-2.40971e-05
-3.67069e-05
-5.00554e-05
-6.41339e-05
-7.89323e-05
-9.44352e-05
-0.000110626
-0.000127493
-0.00014502
-0.00016319
-0.000181987
-0.000201394
-0.000221396
-0.000241975
-0.000263109
-0.000284781
-0.000306972
-0.000329664
-0.000352836
-0.000376469
-0.000400541
-0.000425032
-0.000449924
-0.000475197
-0.000500832
-0.000526805
-0.000553098
-0.000579689
-0.000606562
-0.000633692
-0.00066106
-0.000688645
-0.00071643
-0.000744393
-0.000772509
-0.000800758
-0.000829124
-0.000857586
-0.00088612
-0.000914703
-0.000943319
-0.000971947
-0.00100056
-0.00102915
-0.00105767
-0.00108613
-0.00111449
-0.00114274
-0.00117084
-0.0011988
-0.00122658
-0.00125415
-0.00128151
-0.00130863
-0.00133549
-0.00136207
-0.00138835
-0.0014143
-0.00143992
-0.00146517
-0.00149004
-0.0015145
-0.00153855
-0.00156215
-0.00158529
-0.00160794
-0.0016301
-0.00165174
-0.00167284
-0.00169337
-0.00171334
-0.00173271
-0.00175147
-0.0017696
-0.00178709
-0.00180392
-0.00182006
-0.00183552
-0.00185028
-0.00186432
-0.00187761
-0.00189016
-0.00190196
-0.00191301
-0.00192328
-0.00193274
-0.00194143
-0.00194934
-0.00195646
-0.00196276
-0.00196826
-0.00197299
-0.00197694
-0.0019801
-0.00198246
-0.00198408
-0.00198496
-0.00198513
-0.00198457
-0.00198333
-0.00198143
-0.00197893
-0.00197584
-0.00197222
-0.00196809
-0.00196353
-0.00195856
-0.00195328
-0.00194775
-0.00194205
-0.00193622
-0.00193036
-0.00192458
-0.00191899
-0.00191364
-0.0019086
-0.00190403
-0.00190005
-0.0018967
-0.00189399
-0.00189195
-2.84904e-05
-2.53659e-05
-2.19444e-05
-1.80923e-05
-1.37282e-05
-8.94463e-06
-3.83291e-06
1.53102e-06
7.06751e-06
1.26913e-05
1.83276e-05
2.39006e-05
2.93337e-05
3.45472e-05
3.94779e-05
4.40728e-05
4.82723e-05
5.20218e-05
5.52794e-05
5.79997e-05
6.01454e-05
6.16877e-05
6.25939e-05
6.28373e-05
6.23949e-05
6.12431e-05
5.93652e-05
5.67466e-05
5.33754e-05
4.92465e-05
4.43521e-05
3.86824e-05
3.22354e-05
2.50152e-05
1.70236e-05
8.26073e-06
-1.26996e-06
-1.15615e-05
-2.26074e-05
-3.4402e-05
-4.69354e-05
-6.01937e-05
-7.4165e-05
-8.88403e-05
-0.000104208
-0.000120252
-0.000136959
-0.000154314
-0.000172303
-0.000190908
-0.000210112
-0.0002299
-0.000250255
-0.000271159
-0.000292593
-0.000314537
-0.000336973
-0.000359882
-0.000383245
-0.000407043
-0.000431255
-0.00045586
-0.000480841
-0.000506178
-0.000531852
-0.00055784
-0.000584122
-0.00061068
-0.000637496
-0.000664546
-0.00069181
-0.000719269
-0.000746905
-0.000774696
-0.000802617
-0.00083065
-0.000858778
-0.000886981
-0.000915232
-0.000943513
-0.000971805
-0.00100009
-0.00102834
-0.00105653
-0.00108465
-0.00111268
-0.0011406
-0.00116838
-0.001196
-0.00122346
-0.00125071
-0.00127775
-0.00130455
-0.0013311
-0.00135737
-0.00138334
-0.00140899
-0.00143431
-0.00145926
-0.00148384
-0.00150802
-0.00153179
-0.00155512
-0.001578
-0.00160039
-0.0016223
-0.00164369
-0.00166456
-0.00168488
-0.00170462
-0.00172379
-0.00174235
-0.0017603
-0.00177761
-0.00179428
-0.00181028
-0.0018256
-0.00184023
-0.00185416
-0.00186737
-0.00187985
-0.00189157
-0.00190256
-0.00191281
-0.00192227
-0.00193096
-0.00193887
-0.00194603
-0.00195241
-0.00195799
-0.0019628
-0.00196686
-0.00197017
-0.0019727
-0.00197449
-0.00197555
-0.00197592
-0.0019756
-0.00197461
-0.00197298
-0.00197074
-0.00196793
-0.0019646
-0.00196077
-0.00195651
-0.00195185
-0.00194685
-0.00194158
-0.00193613
-0.00193055
-0.00192487
-0.0019192
-0.00191366
-0.00190831
-0.0019032
-0.0018984
-0.00189405
-0.00189022
-0.00188681
-0.00188371
-3.73985e-05
-3.31501e-05
-2.8943e-05
-2.45535e-05
-1.97817e-05
-1.47033e-05
-9.40467e-06
-3.94664e-06
1.60795e-06
7.18556e-06
1.27169e-05
1.81379e-05
2.3387e-05
2.83953e-05
3.30992e-05
3.74509e-05
4.14013e-05
4.48999e-05
4.79094e-05
5.03892e-05
5.22999e-05
5.36141e-05
5.43025e-05
5.43403e-05
5.37077e-05
5.23831e-05
5.03491e-05
4.75909e-05
4.40938e-05
3.98522e-05
3.48635e-05
2.91206e-05
2.26177e-05
1.53558e-05
7.33825e-06
-1.43331e-06
-1.09569e-05
-2.12265e-05
-3.22339e-05
-4.39728e-05
-5.64369e-05
-6.96146e-05
-8.34924e-05
-9.80594e-05
-0.000113306
-0.000129218
-0.00014578
-0.000162979
-0.000180801
-0.00019923
-0.000218249
-0.000237841
-0.000257991
-0.000278681
-0.000299894
-0.00032161
-0.000343811
-0.000366477
-0.000389589
-0.00041313
-0.000437081
-0.000461421
-0.000486131
-0.000511191
-0.000536583
-0.000562286
-0.00058828
-0.000614545
-0.000641064
-0.000667817
-0.000694782
-0.000721937
-0.000749265
-0.000776748
-0.000804362
-0.000832085
-0.0008599
-0.00088779
-0.00091573
-0.000943699
-0.000971675
-0.000999643
-0.00102758
-0.00105546
-0.00108327
-0.00111099
-0.00113859
-0.00116607
-0.00119338
-0.00122053
-0.00124748
-0.00127422
-0.00130073
-0.00132698
-0.00135296
-0.00137865
-0.00140401
-0.00142905
-0.00145373
-0.00147804
-0.00150196
-0.00152547
-0.00154854
-0.00157118
-0.00159334
-0.00161501
-0.00163618
-0.00165683
-0.00167694
-0.00169649
-0.00171547
-0.00173385
-0.00175163
-0.00176879
-0.00178531
-0.00180118
-0.00181638
-0.00183089
-0.00184472
-0.00185785
-0.00187027
-0.00188194
-0.00189288
-0.00190309
-0.00191256
-0.00192126
-0.0019292
-0.00193638
-0.00194282
-0.0019485
-0.0019534
-0.00195755
-0.00196097
-0.00196367
-0.00196562
-0.00196686
-0.0019674
-0.00196728
-0.00196652
-0.00196512
-0.00196312
-0.00196056
-0.00195747
-0.00195389
-0.00194987
-0.00194547
-0.0019407
-0.00193563
-0.00193034
-0.00192491
-0.00191937
-0.00191376
-0.00190817
-0.00190271
-0.00189742
-0.00189235
-0.00188758
-0.0018832
-0.00187901
-0.0018748
-4.67531e-05
-4.13683e-05
-3.63341e-05
-3.13549e-05
-2.61199e-05
-2.06872e-05
-1.51347e-05
-9.51617e-06
-3.87821e-06
1.71982e-06
7.21614e-06
1.25513e-05
1.76749e-05
2.25321e-05
2.70645e-05
3.12263e-05
3.4976e-05
3.82671e-05
4.10654e-05
4.33379e-05
4.50471e-05
4.61653e-05
4.66652e-05
4.65218e-05
4.57174e-05
4.42329e-05
4.20525e-05
3.91641e-05
3.55529e-05
3.12088e-05
2.613e-05
2.0314e-05
1.37558e-05
6.45307e-06
-1.59181e-06
-1.03759e-05
-1.98974e-05
-3.01519e-05
-4.11307e-05
-5.28252e-05
-6.52291e-05
-7.83346e-05
-9.21294e-05
-0.000106601
-0.000121739
-0.000137533
-0.000153966
-0.000171025
-0.000188695
-0.000206963
-0.000225813
-0.000245227
-0.000265189
-0.000285684
-0.000306693
-0.000328199
-0.000350182
-0.000372624
-0.000395506
-0.00041881
-0.000442518
-0.000466612
-0.00049107
-0.000515873
-0.000541002
-0.000566441
-0.000592166
-0.000618159
-0.000644401
-0.000670876
-0.000697561
-0.000724434
-0.000751476
-0.00077867
-0.000805996
-0.000833431
-0.000860954
-0.00088855
-0.000916197
-0.000943874
-0.000971558
-0.00099923
-0.00102687
-0.00105446
-0.00108198
-0.00110941
-0.00113672
-0.00116391
-0.00119094
-0.0012178
-0.00124447
-0.00127093
-0.00129716
-0.00132314
-0.00134884
-0.00137426
-0.00139937
-0.00142415
-0.00144857
-0.00147264
-0.00149631
-0.00151958
-0.00154242
-0.00156483
-0.00158677
-0.00160823
-0.0016292
-0.00164964
-0.00166957
-0.00168894
-0.00170774
-0.00172596
-0.00174359
-0.0017606
-0.00177699
-0.00179274
-0.00180783
-0.00182225
-0.00183599
-0.00184904
-0.0018614
-0.00187304
-0.00188395
-0.00189413
-0.00190359
-0.00191231
-0.00192028
-0.0019275
-0.00193399
-0.00193974
-0.00194474
-0.00194899
-0.00195252
-0.00195534
-0.00195745
-0.00195886
-0.00195957
-0.00195962
-0.00195905
-0.00195785
-0.00195606
-0.00195371
-0.00195083
-0.00194745
-0.00194363
-0.00193941
-0.00193484
-0.00192993
-0.00192474
-0.00191936
-0.00191387
-0.00190827
-0.0019026
-0.00189696
-0.00189141
-0.00188599
-0.00188076
-0.00187579
-0.00187078
-0.00186545
-5.6352e-05
-4.98455e-05
-4.39701e-05
-3.83641e-05
-3.26239e-05
-2.67917e-05
-2.09344e-05
-1.50982e-05
-9.32214e-06
-3.65053e-06
1.86608e-06
7.1738e-06
1.22266e-05
1.69825e-05
2.13914e-05
2.54102e-05
2.9004e-05
3.213e-05
3.47539e-05
3.6849e-05
3.83828e-05
3.93294e-05
3.96649e-05
3.93644e-05
3.84096e-05
3.6783e-05
3.44685e-05
3.14573e-05
2.77386e-05
2.33002e-05
1.81372e-05
1.22494e-05
5.63452e-06
-1.70999e-06
-9.78384e-06
-1.85838e-05
-2.81069e-05
-3.83503e-05
-4.93074e-05
-6.09679e-05
-7.33233e-05
-8.6367e-05
-0.000100089
-0.000114478
-0.000129521
-0.000145208
-0.000161526
-0.000178459
-0.000195994
-0.000214117
-0.000232813
-0.000252066
-0.000271858
-0.000292175
-0.000312998
-0.00033431
-0.000356094
-0.00037833
-0.000401001
-0.000424087
-0.000447572
-0.000471436
-0.000495662
-0.000520228
-0.000545115
-0.000570307
-0.000595783
-0.000621525
-0.000647511
-0.000673725
-0.000700149
-0.000726761
-0.000753538
-0.000780463
-0.000807519
-0.000834685
-0.000861939
-0.000889262
-0.000916635
-0.000944039
-0.000971451
-0.000998849
-0.00102622
-0.00105353
-0.00108078
-0.00110794
-0.00113498
-0.0011619
-0.00118866
-0.00121526
-0.00124167
-0.00126787
-0.00129384
-0.00131956
-0.00134502
-0.00137019
-0.00139506
-0.00141959
-0.00144378
-0.00146761
-0.00149106
-0.00151412
-0.00153675
-0.00155894
-0.00158068
-0.00160195
-0.00162273
-0.00164299
-0.00166274
-0.00168195
-0.0017006
-0.00171867
-0.00173616
-0.00175305
-0.00176931
-0.00178495
-0.00179995
-0.00181429
-0.00182796
-0.00184094
-0.00185324
-0.00186485
-0.00187574
-0.00188591
-0.00189536
-0.0019041
-0.00191211
-0.00191937
-0.0019259
-0.00193172
-0.00193681
-0.00194117
-0.0019448
-0.00194773
-0.00194997
-0.00195153
-0.0019524
-0.00195261
-0.00195219
-0.00195117
-0.00194956
-0.00194739
-0.00194468
-0.00194147
-0.0019378
-0.00193371
-0.00192926
-0.00192447
-0.00191937
-0.001914
-0.00190846
-0.00190279
-0.00189701
-0.00189115
-0.00188529
-0.00187946
-0.00187372
-0.00186814
-0.00186229
-0.00185583
-6.60274e-05
-5.84235e-05
-5.17118e-05
-4.54598e-05
-3.91817e-05
-3.29165e-05
-2.67171e-05
-2.06191e-05
-1.46568e-05
-8.86602e-06
-3.28436e-06
2.04304e-06
7.07331e-06
1.17723e-05
1.60996e-05
2.00152e-05
2.34904e-05
2.64891e-05
2.89758e-05
3.09262e-05
3.23123e-05
3.31097e-05
3.32992e-05
3.28583e-05
3.17694e-05
3.00167e-05
2.7583e-05
2.44591e-05
2.0639e-05
1.61126e-05
1.08722e-05
4.91611e-06
-1.75572e-06
-9.14443e-06
-1.72505e-05
-2.60713e-05
-3.56019e-05
-4.58391e-05
-5.67787e-05
-6.84123e-05
-8.07295e-05
-9.37223e-05
-0.000107383
-0.0001217
-0.000136661
-0.000152255
-0.00016847
-0.000185293
-0.000202708
-0.000220701
-0.000239258
-0.000258365
-0.000278005
-0.000298161
-0.000318816
-0.000339952
-0.000361553
-0.000383601
-0.000406079
-0.000428966
-0.000452246
-0.000475901
-0.000499912
-0.00052426
-0.000548925
-0.000573889
-0.000599134
-0.000624644
-0.000650395
-0.00067637
-0.00070255
-0.000728918
-0.000755452
-0.00078213
-0.000808935
-0.00083585
-0.000862855
-0.000889926
-0.000917045
-0.000944195
-0.000971353
-0.000998499
-0.00102561
-0.00105268
-0.00107967
-0.00110658
-0.00113337
-0.00116004
-0.00118656
-0.00121291
-0.00123907
-0.00126503
-0.00129077
-0.00131626
-0.00134148
-0.00136642
-0.00139106
-0.00141538
-0.00143936
-0.00146298
-0.00148622
-0.00150907
-0.00153151
-0.00155351
-0.00157506
-0.00159615
-0.00161676
-0.00163687
-0.00165646
-0.00167551
-0.00169402
-0.00171197
-0.00172933
-0.00174611
-0.00176227
-0.00177781
-0.00179272
-0.00180699
-0.0018206
-0.00183354
-0.00184578
-0.00185736
-0.00186824
-0.00187841
-0.00188787
-0.00189661
-0.00190466
-0.00191197
-0.00191856
-0.00192443
-0.0019296
-0.00193405
-0.00193779
-0.00194083
-0.00194318
-0.00194486
-0.00194588
-0.00194624
-0.00194596
-0.00194508
-0.00194361
-0.00194159
-0.00193902
-0.00193595
-0.0019324
-0.0019284
-0.00192402
-0.00191929
-0.00191423
-0.00190885
-0.00190322
-0.00189741
-0.00189145
-0.00188535
-0.00187915
-0.00187287
-0.0018666
-0.00186037
-0.00185369
-0.00184613
-7.56392e-05
-6.69608e-05
-5.94285e-05
-5.25284e-05
-4.5693e-05
-3.8968e-05
-3.24001e-05
-2.60091e-05
-1.98231e-05
-1.38731e-05
-8.18784e-06
-2.80101e-06
2.24866e-06
6.93177e-06
1.12161e-05
1.50643e-05
1.84515e-05
2.1351e-05
2.37295e-05
2.55642e-05
2.68304e-05
2.75043e-05
2.75687e-05
2.70043e-05
2.57944e-05
2.39268e-05
2.13858e-05
1.81595e-05
1.42434e-05
9.63227e-06
4.31886e-06
-1.70092e-06
-8.42755e-06
-1.58608e-05
-2.4001e-05
-3.28464e-05
-4.23915e-05
-5.26304e-05
-6.35592e-05
-7.51722e-05
-8.74596e-05
-0.000100412
-0.000114021
-0.000128278
-0.00014317
-0.000158684
-0.000174809
-0.000191534
-0.000208843
-0.000226723
-0.000245158
-0.000264134
-0.000283636
-0.000303648
-0.000324152
-0.000345131
-0.000366567
-0.000388444
-0.000410745
-0.000433452
-0.000456547
-0.00048001
-0.000503824
-0.000527972
-0.000552434
-0.000577191
-0.000602224
-0.000627519
-0.000653055
-0.000678811
-0.000704768
-0.00073091
-0.000757218
-0.00078367
-0.000810245
-0.000836929
-0.000863701
-0.000890542
-0.000917428
-0.000944342
-0.000971266
-0.000998178
-0.00102506
-0.00105189
-0.00107865
-0.00110532
-0.00113189
-0.00115832
-0.00118462
-0.00121075
-0.00123669
-0.00126242
-0.00128794
-0.00131322
-0.00133823
-0.00136296
-0.00138739
-0.00141151
-0.00143529
-0.00145872
-0.00148177
-0.00150443
-0.0015267
-0.00154853
-0.00156991
-0.00159084
-0.0016113
-0.00163126
-0.00165071
-0.00166963
-0.00168802
-0.00170584
-0.0017231
-0.00173977
-0.00175585
-0.00177132
-0.00178615
-0.00180035
-0.00181391
-0.00182681
-0.00183903
-0.00185057
-0.00186144
-0.00187162
-0.00188109
-0.00188985
-0.00189792
-0.00190529
-0.00191193
-0.00191787
-0.0019231
-0.00192764
-0.00193148
-0.00193462
-0.00193707
-0.00193886
-0.00194
-0.00194048
-0.00194034
-0.00193958
-0.00193823
-0.00193632
-0.00193387
-0.0019309
-0.00192745
-0.00192352
-0.00191915
-0.00191442
-0.00190934
-0.00190393
-0.00189821
-0.00189222
-0.00188602
-0.00187963
-0.00187306
-0.00186634
-0.00185951
-0.00185263
-0.00184512
-0.00183647
-8.507e-05
-7.53394e-05
-6.70018e-05
-5.94628e-05
-5.20648e-05
-4.48614e-05
-3.79029e-05
-3.11962e-05
-2.47592e-05
-1.86184e-05
-1.27971e-05
-7.31907e-06
-2.21636e-06
2.48518e-06
6.76148e-06
1.05779e-05
1.39092e-05
1.67356e-05
1.90293e-05
2.07693e-05
2.19362e-05
2.25071e-05
2.2466e-05
2.17956e-05
2.04796e-05
1.85082e-05
1.58701e-05
1.2552e-05
8.54764e-06
3.85453e-06
-1.53124e-06
-7.61384e-06
-1.43949e-05
-2.18735e-05
-3.00489e-05
-3.89204e-05
-4.84838e-05
-5.87318e-05
-6.96581e-05
-8.12581e-05
-9.35241e-05
-0.000106446
-0.000120014
-0.000134221
-0.000149055
-0.000164503
-0.000180552
-0.000197192
-0.00021441
-0.00023219
-0.000250518
-0.00026938
-0.000288761
-0.000308643
-0.000329012
-0.00034985
-0.00037114
-0.000392864
-0.000415007
-0.00043755
-0.000460477
-0.000483768
-0.000507404
-0.000531369
-0.000555646
-0.000580215
-0.000605057
-0.000630155
-0.000655492
-0.000681049
-0.000706804
-0.00073274
-0.000758839
-0.000785084
-0.000811451
-0.000837922
-0.000864481
-0.000891109
-0.000917782
-0.000944481
-0.000971189
-0.000997887
-0.00102455
-0.00105117
-0.00107772
-0.00110418
-0.00113053
-0.00115676
-0.00118284
-0.00120877
-0.0012345
-0.00126004
-0.00128536
-0.00131043
-0.00133526
-0.0013598
-0.00138404
-0.00140797
-0.00143158
-0.00145483
-0.00147771
-0.00150021
-0.00152231
-0.00154399
-0.00156523
-0.00158601
-0.00160633
-0.00162616
-0.00164549
-0.00166429
-0.00168257
-0.0017003
-0.00171746
-0.00173404
-0.00175004
-0.00176544
-0.00178022
-0.00179436
-0.00180787
-0.00182074
-0.00183295
-0.00184447
-0.00185533
-0.00186551
-0.00187501
-0.0018838
-0.00189189
-0.0018993
-0.00190601
-0.00191201
-0.00191731
-0.00192192
-0.00192584
-0.00192908
-0.00193164
-0.00193353
-0.00193476
-0.00193536
-0.00193532
-0.00193467
-0.00193342
-0.0019316
-0.00192923
-0.00192633
-0.00192294
-0.00191905
-0.00191471
-0.00190993
-0.00190479
-0.00189929
-0.00189344
-0.00188726
-0.0018808
-0.00187408
-0.00186712
-0.00185993
-0.00185254
-0.00184502
-0.00183669
-0.00182699
-9.42143e-05
-8.346e-05
-7.43303e-05
-6.61638e-05
-5.82101e-05
-5.05214e-05
-4.31564e-05
-3.61153e-05
-2.94059e-05
-2.30481e-05
-1.70625e-05
-1.14654e-05
-6.28255e-06
-1.53677e-06
2.75603e-06
6.56807e-06
9.87276e-06
1.26536e-05
1.48876e-05
1.65549e-05
1.76404e-05
1.81246e-05
1.79923e-05
1.72299e-05
1.58206e-05
1.37552e-05
1.1027e-05
7.62535e-06
3.54179e-06
-1.22688e-06
-6.68245e-06
-1.28275e-05
-1.9664e-05
-2.71908e-05
-3.54054e-05
-4.43062e-05
-5.38907e-05
-6.41527e-05
-7.50843e-05
-8.66794e-05
-9.8932e-05
-0.000111833
-0.000125372
-0.00013954
-0.000154326
-0.00016972
-0.000185707
-0.000202277
-0.000219415
-0.00023711
-0.000255347
-0.00027411
-0.000293385
-0.000313155
-0.000333405
-0.000354118
-0.000375278
-0.000396867
-0.000418868
-0.000441265
-0.000464041
-0.000487177
-0.000510655
-0.000534456
-0.000558565
-0.000582964
-0.000607633
-0.000632555
-0.000657712
-0.000683087
-0.000708659
-0.000734409
-0.000760319
-0.000786373
-0.000812551
-0.000838831
-0.000865196
-0.000891628
-0.000918108
-0.000944612
-0.000971124
-0.000997626
-0.0010241
-0.00105052
-0.00107687
-0.00110314
-0.0011293
-0.00115534
-0.00118123
-0.00120697
-0.00123252
-0.00125788
-0.00128301
-0.00130791
-0.00133256
-0.00135693
-0.00138101
-0.00140477
-0.00142821
-0.00145131
-0.00147404
-0.00149639
-0.00151835
-0.00153989
-0.001561
-0.00158165
-0.00160185
-0.00162156
-0.00164078
-0.00165949
-0.00167767
-0.00169531
-0.00171239
-0.0017289
-0.00174483
-0.00176018
-0.00177491
-0.00178901
-0.00180249
-0.00181533
-0.00182752
-0.00183905
-0.00184991
-0.0018601
-0.00186961
-0.00187844
-0.00188657
-0.00189402
-0.00190078
-0.00190685
-0.00191222
-0.00191689
-0.0019209
-0.00192422
-0.00192687
-0.00192885
-0.00193017
-0.00193086
-0.00193092
-0.00193036
-0.00192919
-0.00192744
-0.00192512
-0.00192226
-0.00191889
-0.00191503
-0.00191068
-0.00190586
-0.00190061
-0.00189498
-0.00188897
-0.00188259
-0.00187585
-0.00186879
-0.00186142
-0.00185374
-0.0018458
-0.00183764
-0.00182852
-0.0018178
-0.000102973