/*--------------------------------*- C++ -*----------------------------------*\
  =========                 |
  \\      /  F ield         | OpenFOAM: The Open Source CFD Toolbox
   \\    /   O peration     | Website:  https://openfoam.org
    \\  /    A nd           | Version:  7
     \\/     M anipulation  |
\*---------------------------------------------------------------------------*/
FoamFile
{
    version     2.0;
    format      ascii;
    class       volVectorField;
    location    "0.5";
    object      U;
}
// * * * * * * * * * * * * * * * * * * * * * * * * * * * * * * * * * * * * * //

dimensions      [0 1 -1 0 0 0 0];

internalField   nonuniform List<vector> 
51200
(
(-1.42139e-08 4.9507e-09 0)
(-5.70231e-08 2.3468e-08 0)
(-1.20055e-07 3.00943e-08 0)
(-1.83398e-07 2.74681e-08 0)
(-2.29346e-07 1.99982e-08 0)
(-2.484e-07 1.01062e-08 0)
(-2.35523e-07 -8.68421e-10 0)
(-1.88318e-07 -1.22066e-08 0)
(-1.0596e-07 -2.34388e-08 0)
(1.14678e-08 -3.43753e-08 0)
(1.63262e-07 -4.4908e-08 0)
(3.48162e-07 -5.4957e-08 0)
(5.64676e-07 -6.44366e-08 0)
(8.11187e-07 -7.32827e-08 0)
(1.0861e-06 -8.14964e-08 0)
(1.3878e-06 -8.91421e-08 0)
(1.71455e-06 -9.62746e-08 0)
(2.06447e-06 -1.02875e-07 0)
(2.43572e-06 -1.08908e-07 0)
(2.82667e-06 -1.14392e-07 0)
(3.23574e-06 -1.19381e-07 0)
(3.6613e-06 -1.23908e-07 0)
(4.10174e-06 -1.27987e-07 0)
(4.55549e-06 -1.31608e-07 0)
(5.02105e-06 -1.34769e-07 0)
(5.49708e-06 -1.37504e-07 0)
(5.98223e-06 -1.39855e-07 0)
(6.47519e-06 -1.41852e-07 0)
(6.97465e-06 -1.43511e-07 0)
(7.47938e-06 -1.4483e-07 0)
(7.98819e-06 -1.45805e-07 0)
(8.49998e-06 -1.46442e-07 0)
(9.01372e-06 -1.46763e-07 0)
(9.52844e-06 -1.46814e-07 0)
(1.00432e-05 -1.46631e-07 0)
(1.05569e-05 -1.46204e-07 0)
(1.10688e-05 -1.45507e-07 0)
(1.15779e-05 -1.44547e-07 0)
(1.20836e-05 -1.43356e-07 0)
(1.2585e-05 -1.41967e-07 0)
(1.30816e-05 -1.40398e-07 0)
(1.35724e-05 -1.38661e-07 0)
(1.4057e-05 -1.36757e-07 0)
(1.45346e-05 -1.34672e-07 0)
(1.50046e-05 -1.32398e-07 0)
(1.54666e-05 -1.29954e-07 0)
(1.592e-05 -1.27377e-07 0)
(1.63644e-05 -1.24687e-07 0)
(1.67993e-05 -1.21886e-07 0)
(1.72241e-05 -1.18973e-07 0)
(1.76385e-05 -1.15948e-07 0)
(1.80422e-05 -1.12812e-07 0)
(1.84346e-05 -1.09564e-07 0)
(1.88156e-05 -1.06219e-07 0)
(1.91848e-05 -1.02799e-07 0)
(1.95419e-05 -9.93101e-08 0)
(1.98866e-05 -9.57482e-08 0)
(2.02186e-05 -9.21104e-08 0)
(2.05378e-05 -8.84031e-08 0)
(2.08438e-05 -8.46386e-08 0)
(2.11365e-05 -8.08266e-08 0)
(2.14157e-05 -7.69699e-08 0)
(2.16812e-05 -7.30648e-08 0)
(2.19328e-05 -6.9108e-08 0)
(2.21704e-05 -6.51049e-08 0)
(2.23938e-05 -6.10693e-08 0)
(2.26029e-05 -5.701e-08 0)
(2.27977e-05 -5.29237e-08 0)
(2.29778e-05 -4.88055e-08 0)
(2.31434e-05 -4.46602e-08 0)
(2.32943e-05 -4.0495e-08 0)
(2.34304e-05 -3.63075e-08 0)
(2.35516e-05 -3.20931e-08 0)
(2.36579e-05 -2.78611e-08 0)
(2.37492e-05 -2.36278e-08 0)
(2.38255e-05 -1.93927e-08 0)
(2.38868e-05 -1.51394e-08 0)
(2.39329e-05 -1.08642e-08 0)
(2.39639e-05 -6.58474e-09 0)
(2.39798e-05 -2.31393e-09 0)
(2.39805e-05 1.95797e-09 0)
(2.3966e-05 6.24092e-09 0)
(2.39365e-05 1.05237e-08 0)
(2.38918e-05 1.47913e-08 0)
(2.38319e-05 1.90491e-08 0)
(2.3757e-05 2.33098e-08 0)
(2.36669e-05 2.75682e-08 0)
(2.35619e-05 3.18091e-08 0)
(2.34419e-05 3.60304e-08 0)
(2.3307e-05 4.02387e-08 0)
(2.31573e-05 4.44288e-08 0)
(2.29927e-05 4.85899e-08 0)
(2.28135e-05 5.27265e-08 0)
(2.26197e-05 5.685e-08 0)
(2.24113e-05 6.09521e-08 0)
(2.21886e-05 6.50108e-08 0)
(2.19516e-05 6.90228e-08 0)
(2.17005e-05 7.30047e-08 0)
(2.14354e-05 7.69571e-08 0)
(2.11565e-05 8.08539e-08 0)
(2.08641e-05 8.46794e-08 0)
(2.05582e-05 8.84503e-08 0)
(2.0239e-05 9.21849e-08 0)
(1.99068e-05 9.58676e-08 0)
(1.95619e-05 9.94673e-08 0)
(1.92046e-05 1.02979e-07 0)
(1.88349e-05 1.06419e-07 0)
(1.84534e-05 1.09786e-07 0)
(1.80603e-05 1.13048e-07 0)
(1.7656e-05 1.16193e-07 0)
(1.72408e-05 1.1924e-07 0)
(1.68151e-05 1.22206e-07 0)
(1.63793e-05 1.25065e-07 0)
(1.5934e-05 1.27779e-07 0)
(1.54795e-05 1.3034e-07 0)
(1.50164e-05 1.32754e-07 0)
(1.45451e-05 1.35015e-07 0)
(1.40663e-05 1.37118e-07 0)
(1.35804e-05 1.39068e-07 0)
(1.30883e-05 1.40847e-07 0)
(1.25905e-05 1.42418e-07 0)
(1.20877e-05 1.43779e-07 0)
(1.15806e-05 1.44965e-07 0)
(1.10699e-05 1.45957e-07 0)
(1.05568e-05 1.46652e-07 0)
(1.00419e-05 1.47005e-07 0)
(9.52597e-06 1.47115e-07 0)
(9.00976e-06 1.47081e-07 0)
(8.49455e-06 1.46829e-07 0)
(7.98163e-06 1.46196e-07 0)
(7.47194e-06 1.45151e-07 0)
(6.96626e-06 1.43789e-07 0)
(6.46581e-06 1.42137e-07 0)
(5.97208e-06 1.40103e-07 0)
(5.48634e-06 1.37634e-07 0)
(5.00969e-06 1.34803e-07 0)
(4.5434e-06 1.31664e-07 0)
(4.08916e-06 1.28124e-07 0)
(3.64866e-06 1.24039e-07 0)
(3.22325e-06 1.19386e-07 0)
(2.81424e-06 1.14259e-07 0)
(2.42324e-06 1.08714e-07 0)
(2.05212e-06 1.02699e-07 0)
(1.70269e-06 9.61331e-08 0)
(1.37661e-06 8.89821e-08 0)
(1.07554e-06 8.12493e-08 0)
(8.01255e-07 7.29338e-08 0)
(5.55475e-07 6.40426e-08 0)
(3.39827e-07 5.46067e-08 0)
(1.55925e-07 4.46333e-08 0)
(5.29481e-09 3.41079e-08 0)
(-1.10969e-07 2.31155e-08 0)
(-1.92313e-07 1.18618e-08 0)
(-2.38486e-07 5.40398e-10 0)
(-2.49986e-07 -1.06085e-08 0)
(-2.29431e-07 -2.07985e-08 0)
(-1.82603e-07 -2.81996e-08 0)
(-1.18547e-07 -3.03906e-08 0)
(-5.27746e-08 -2.42805e-08 0)
(-1.06254e-08 -8.2487e-09 0)
(-2.90031e-08 4.28327e-08 0)
(-1.14115e-07 1.03941e-07 0)
(-2.28463e-07 1.18138e-07 0)
(-3.26176e-07 9.68097e-08 0)
(-3.75328e-07 5.32468e-08 0)
(-3.56234e-07 -3.3898e-09 0)
(-2.56481e-07 -6.73718e-08 0)
(-6.84884e-08 -1.34825e-07 0)
(2.11165e-07 -2.03217e-07 0)
(5.83483e-07 -2.70911e-07 0)
(1.04762e-06 -3.3698e-07 0)
(1.60147e-06 -4.00764e-07 0)
(2.24189e-06 -4.61766e-07 0)
(2.96507e-06 -5.19565e-07 0)
(3.76682e-06 -5.73924e-07 0)
(4.64282e-06 -6.2482e-07 0)
(5.5887e-06 -6.72391e-07 0)
(6.59991e-06 -7.1666e-07 0)
(7.67164e-06 -7.57515e-07 0)
(8.79924e-06 -7.94977e-07 0)
(9.97825e-06 -8.29189e-07 0)
(1.12043e-05 -8.60277e-07 0)
(1.2473e-05 -8.88364e-07 0)
(1.37801e-05 -9.13515e-07 0)
(1.51214e-05 -9.35743e-07 0)
(1.64929e-05 -9.55157e-07 0)
(1.78908e-05 -9.71903e-07 0)
(1.93114e-05 -9.86112e-07 0)
(2.0751e-05 -9.97917e-07 0)
(2.22064e-05 -1.0074e-06 0)
(2.3674e-05 -1.01462e-06 0)
(2.51507e-05 -1.01964e-06 0)
(2.66334e-05 -1.02252e-06 0)
(2.81192e-05 -1.0234e-06 0)
(2.96054e-05 -1.02247e-06 0)
(3.10893e-05 -1.0198e-06 0)
(3.25683e-05 -1.01541e-06 0)
(3.40399e-05 -1.00932e-06 0)
(3.55019e-05 -1.00162e-06 0)
(3.6952e-05 -9.92442e-07 0)
(3.83881e-05 -9.81873e-07 0)
(3.98082e-05 -9.70004e-07 0)
(4.12105e-05 -9.56921e-07 0)
(4.25932e-05 -9.42658e-07 0)
(4.39544e-05 -9.27217e-07 0)
(4.52925e-05 -9.10641e-07 0)
(4.66061e-05 -8.93038e-07 0)
(4.78937e-05 -8.74512e-07 0)
(4.91539e-05 -8.55112e-07 0)
(5.03854e-05 -8.34878e-07 0)
(5.15871e-05 -8.1386e-07 0)
(5.27578e-05 -7.92092e-07 0)
(5.38963e-05 -7.69592e-07 0)
(5.50017e-05 -7.46403e-07 0)
(5.6073e-05 -7.22602e-07 0)
(5.71094e-05 -6.9825e-07 0)
(5.81101e-05 -6.73373e-07 0)
(5.90742e-05 -6.47982e-07 0)
(6.00009e-05 -6.22105e-07 0)
(6.08898e-05 -5.95786e-07 0)
(6.174e-05 -5.69072e-07 0)
(6.25511e-05 -5.42001e-07 0)
(6.33225e-05 -5.14593e-07 0)
(6.40537e-05 -4.86852e-07 0)
(6.47442e-05 -4.58792e-07 0)
(6.53936e-05 -4.30456e-07 0)
(6.60015e-05 -4.01891e-07 0)
(6.65677e-05 -3.73114e-07 0)
(6.70916e-05 -3.44123e-07 0)
(6.7573e-05 -3.14933e-07 0)
(6.80118e-05 -2.85582e-07 0)
(6.84075e-05 -2.56089e-07 0)
(6.87601e-05 -2.26441e-07 0)
(6.90692e-05 -1.9665e-07 0)
(6.93348e-05 -1.66773e-07 0)
(6.95568e-05 -1.36849e-07 0)
(6.9735e-05 -1.06852e-07 0)
(6.98692e-05 -7.67579e-08 0)
(6.99594e-05 -4.6603e-08 0)
(7.00056e-05 -1.64492e-08 0)
(7.00078e-05 1.36993e-08 0)
(6.99659e-05 4.38739e-08 0)
(6.98799e-05 7.40571e-08 0)
(6.97499e-05 1.04188e-07 0)
(6.95759e-05 1.34248e-07 0)
(6.93581e-05 1.64266e-07 0)
(6.90964e-05 1.9424e-07 0)
(6.8791e-05 2.24119e-07 0)
(6.84421e-05 2.53873e-07 0)
(6.80499e-05 2.83512e-07 0)
(6.76145e-05 3.13027e-07 0)
(6.71361e-05 3.42365e-07 0)
(6.66151e-05 3.71502e-07 0)
(6.60517e-05 4.00462e-07 0)
(6.54462e-05 4.29241e-07 0)
(6.47989e-05 4.57767e-07 0)
(6.41102e-05 4.85983e-07 0)
(6.33807e-05 5.1391e-07 0)
(6.26106e-05 5.41568e-07 0)
(6.18004e-05 5.6889e-07 0)
(6.09509e-05 5.95785e-07 0)
(6.00625e-05 6.22239e-07 0)
(5.91358e-05 6.48298e-07 0)
(5.81715e-05 6.73941e-07 0)
(5.71703e-05 6.99064e-07 0)
(5.61331e-05 7.23595e-07 0)
(5.50606e-05 7.47547e-07 0)
(5.39538e-05 7.70924e-07 0)
(5.28135e-05 7.93635e-07 0)
(5.16409e-05 8.1557e-07 0)
(5.04371e-05 8.36719e-07 0)
(4.92032e-05 8.5712e-07 0)
(4.79402e-05 8.76722e-07 0)
(4.66497e-05 8.95396e-07 0)
(4.53331e-05 9.13059e-07 0)
(4.39917e-05 9.29689e-07 0)
(4.26271e-05 9.45228e-07 0)
(4.1241e-05 9.59598e-07 0)
(3.98351e-05 9.72778e-07 0)
(3.84112e-05 9.84731e-07 0)
(3.69713e-05 9.95304e-07 0)
(3.55174e-05 1.00437e-06 0)
(3.40516e-05 1.01199e-06 0)
(3.2576e-05 1.0182e-06 0)
(3.1093e-05 1.02275e-06 0)
(2.96054e-05 1.0253e-06 0)
(2.81158e-05 1.02586e-06 0)
(2.66264e-05 1.02473e-06 0)
(2.514e-05 1.02192e-06 0)
(2.36598e-05 1.01697e-06 0)
(2.21892e-05 1.00956e-06 0)
(2.07312e-05 9.99825e-07 0)
(1.92889e-05 9.87898e-07 0)
(1.78658e-05 9.73531e-07 0)
(1.64659e-05 9.56393e-07 0)
(1.50929e-05 9.36505e-07 0)
(1.37502e-05 9.14073e-07 0)
(1.24418e-05 8.89002e-07 0)
(1.11722e-05 8.60869e-07 0)
(9.9458e-06 8.2939e-07 0)
(8.76686e-06 7.94651e-07 0)
(7.63955e-06 7.56816e-07 0)
(6.56838e-06 7.15829e-07 0)
(5.5581e-06 6.71494e-07 0)
(4.61339e-06 6.23699e-07 0)
(3.73879e-06 5.72467e-07 0)
(2.9388e-06 5.17842e-07 0)
(2.2178e-06 4.59903e-07 0)
(1.57983e-06 3.98904e-07 0)
(1.02844e-06 3.35194e-07 0)
(5.66832e-07 2.69081e-07 0)
(1.97323e-07 2.01142e-07 0)
(-7.94389e-08 1.32656e-07 0)
(-2.6477e-07 6.53896e-08 0)
(-3.6187e-07 1.33909e-09 0)
(-3.77267e-07 -5.62402e-08 0)
(-3.24133e-07 -1.00688e-07 0)
(-2.23881e-07 -1.21624e-07 0)
(-1.12013e-07 -1.06336e-07 0)
(-2.8012e-08 -4.67438e-08 0)
(-3.24139e-08 1.13248e-07 0)
(-1.23555e-07 2.20515e-07 0)
(-2.33471e-07 2.27312e-07 0)
(-3.03304e-07 1.59855e-07 0)
(-2.93699e-07 4.17952e-08 0)
(-1.79817e-07 -1.09119e-07 0)
(5.56375e-08 -2.79803e-07 0)
(4.23659e-07 -4.6127e-07 0)
(9.30375e-07 -6.4698e-07 0)
(1.57783e-06 -8.32423e-07 0)
(2.36565e-06 -1.01448e-06 0)
(3.29129e-06 -1.19111e-06 0)
(4.35086e-06 -1.36092e-06 0)
(5.53923e-06 -1.5229e-06 0)
(6.85048e-06 -1.67626e-06 0)
(8.2781e-06 -1.82051e-06 0)
(9.81548e-06 -1.95549e-06 0)
(1.14559e-05 -2.08128e-06 0)
(1.31923e-05 -2.19788e-06 0)
(1.50175e-05 -2.30529e-06 0)
(1.69247e-05 -2.40364e-06 0)
(1.89068e-05 -2.49312e-06 0)
(2.09571e-05 -2.574e-06 0)
(2.3069e-05 -2.64657e-06 0)
(2.52361e-05 -2.71106e-06 0)
(2.7452e-05 -2.76767e-06 0)
(2.97104e-05 -2.81665e-06 0)
(3.20056e-05 -2.85828e-06 0)
(3.43319e-05 -2.89286e-06 0)
(3.66836e-05 -2.92069e-06 0)
(3.90556e-05 -2.94205e-06 0)
(4.14427e-05 -2.95721e-06 0)
(4.384e-05 -2.96637e-06 0)
(4.62427e-05 -2.96972e-06 0)
(4.86464e-05 -2.96756e-06 0)
(5.10467e-05 -2.96022e-06 0)
(5.34397e-05 -2.94796e-06 0)
(5.58212e-05 -2.93094e-06 0)
(5.81875e-05 -2.90936e-06 0)
(6.05351e-05 -2.88343e-06 0)
(6.28604e-05 -2.85338e-06 0)
(6.51603e-05 -2.81939e-06 0)
(6.74316e-05 -2.78172e-06 0)
(6.96715e-05 -2.74061e-06 0)
(7.18771e-05 -2.69621e-06 0)
(7.40457e-05 -2.64864e-06 0)
(7.61749e-05 -2.59806e-06 0)
(7.82622e-05 -2.54465e-06 0)
(8.03056e-05 -2.4886e-06 0)
(8.23027e-05 -2.43005e-06 0)
(8.42517e-05 -2.36915e-06 0)
(8.61506e-05 -2.30607e-06 0)
(8.79978e-05 -2.24093e-06 0)
(8.97914e-05 -2.17381e-06 0)
(9.153e-05 -2.10483e-06 0)
(9.32121e-05 -2.03414e-06 0)
(9.48363e-05 -1.96188e-06 0)
(9.64015e-05 -1.88813e-06 0)
(9.79062e-05 -1.81299e-06 0)
(9.93495e-05 -1.73653e-06 0)
(0.00010073 -1.65886e-06 0)
(0.000102048 -1.58007e-06 0)
(0.000103301 -1.50026e-06 0)
(0.000104488 -1.41951e-06 0)
(0.00010561 -1.33787e-06 0)
(0.000106665 -1.2554e-06 0)
(0.000107653 -1.17218e-06 0)
(0.000108573 -1.08829e-06 0)
(0.000109424 -1.00378e-06 0)
(0.000110207 -9.18706e-07 0)
(0.00011092 -8.33114e-07 0)
(0.000111563 -7.47088e-07 0)
(0.000112136 -6.60668e-07 0)
(0.000112639 -5.73868e-07 0)
(0.000113071 -4.86732e-07 0)
(0.000113432 -3.99354e-07 0)
(0.000113721 -3.11798e-07 0)
(0.00011394 -2.24066e-07 0)
(0.000114086 -1.36165e-07 0)
(0.000114161 -4.81696e-08 0)
(0.000114165 3.98363e-08 0)
(0.000114097 1.27832e-07 0)
(0.000113957 2.15819e-07 0)
(0.000113746 3.03737e-07 0)
(0.000113463 3.91498e-07 0)
(0.000113109 4.79061e-07 0)
(0.000112684 5.66422e-07 0)
(0.000112188 6.53535e-07 0)
(0.000111621 7.40318e-07 0)
(0.000110984 8.26723e-07 0)
(0.000110276 9.12732e-07 0)
(0.000109499 9.98279e-07 0)
(0.000108652 1.08326e-06 0)
(0.000107737 1.16763e-06 0)
(0.000106753 1.25137e-06 0)
(0.000105702 1.33441e-06 0)
(0.000104583 1.41664e-06 0)
(0.000103398 1.49796e-06 0)
(0.000102147 1.57834e-06 0)
(0.000100832 1.65775e-06 0)
(9.94521e-05 1.73605e-06 0)
(9.80096e-05 1.8131e-06 0)
(9.65051e-05 1.88881e-06 0)
(9.49398e-05 1.96317e-06 0)
(9.33148e-05 2.03606e-06 0)
(9.16314e-05 2.10733e-06 0)
(8.98911e-05 2.17682e-06 0)
(8.80953e-05 2.24449e-06 0)
(8.62455e-05 2.31025e-06 0)
(8.43435e-05 2.3739e-06 0)
(8.2391e-05 2.43524e-06 0)
(8.03901e-05 2.49417e-06 0)
(7.83425e-05 2.55062e-06 0)
(7.62505e-05 2.60442e-06 0)
(7.41164e-05 2.65537e-06 0)
(7.19426e-05 2.7033e-06 0)
(6.97316e-05 2.74805e-06 0)
(6.74862e-05 2.78941e-06 0)
(6.5209e-05 2.82717e-06 0)
(6.29032e-05 2.86124e-06 0)
(6.05716e-05 2.89141e-06 0)
(5.82179e-05 2.91734e-06 0)
(5.58456e-05 2.93878e-06 0)
(5.3458e-05 2.95573e-06 0)
(5.10587e-05 2.96812e-06 0)
(4.8652e-05 2.97546e-06 0)
(4.62424e-05 2.97722e-06 0)
(4.38342e-05 2.97327e-06 0)
(4.14314e-05 2.96374e-06 0)
(3.90389e-05 2.94844e-06 0)
(3.66618e-05 2.92676e-06 0)
(3.43055e-05 2.89833e-06 0)
(3.19751e-05 2.86313e-06 0)
(2.96759e-05 2.82104e-06 0)
(2.74139e-05 2.77157e-06 0)
(2.51953e-05 2.71421e-06 0)
(2.30261e-05 2.64887e-06 0)
(2.09123e-05 2.5756e-06 0)
(1.88604e-05 2.4942e-06 0)
(1.68772e-05 2.40413e-06 0)
(1.49698e-05 2.30501e-06 0)
(1.31449e-05 2.19678e-06 0)
(1.14093e-05 2.07948e-06 0)
(9.77003e-06 1.95305e-06 0)
(8.2342e-06 1.81738e-06 0)
(6.80868e-06 1.67256e-06 0)
(5.50009e-06 1.51881e-06 0)
(4.31484e-06 1.35649e-06 0)
(3.25875e-06 1.18624e-06 0)
(2.33669e-06 1.00925e-06 0)
(1.55256e-06 8.27003e-07 0)
(9.09126e-07 6.41438e-07 0)
(4.06872e-07 4.55599e-07 0)
(4.29447e-08 2.74356e-07 0)
(-1.89136e-07 1.04258e-07 0)
(-2.99439e-07 -4.64658e-08 0)
(-3.04333e-07 -1.65762e-07 0)
(-2.30346e-07 -2.34484e-07 0)
(-1.21291e-07 -2.27008e-07 0)
(-3.21816e-08 -1.1522e-07 0)
(-2.8542e-08 1.80867e-07 0)
(-9.99126e-08 3.21418e-07 0)
(-1.64652e-07 2.98024e-07 0)
(-1.60974e-07 1.55869e-07 0)
(-4.70934e-08 -7.01158e-08 0)
(2.04927e-07 -3.52501e-07 0)
(6.1458e-07 -6.707e-07 0)
(1.19526e-06 -1.00932e-06 0)
(1.95451e-06 -1.3573e-06 0)
(2.89569e-06 -1.70636e-06 0)
(4.01861e-06 -2.05062e-06 0)
(5.32071e-06 -2.3858e-06 0)
(6.79744e-06 -2.70901e-06 0)
(8.44292e-06 -3.01824e-06 0)
(1.02501e-05 -3.31205e-06 0)
(1.22109e-05 -3.58937e-06 0)
(1.43168e-05 -3.84956e-06 0)
(1.65594e-05 -4.09242e-06 0)
(1.89297e-05 -4.31796e-06 0)
(2.14185e-05 -4.5262e-06 0)
(2.40168e-05 -4.71733e-06 0)
(2.67157e-05 -4.89158e-06 0)
(2.9506e-05 -5.04929e-06 0)
(3.23793e-05 -5.19094e-06 0)
(3.53268e-05 -5.31701e-06 0)
(3.83404e-05 -5.42793e-06 0)
(4.14117e-05 -5.52418e-06 0)
(4.45328e-05 -5.60622e-06 0)
(4.76962e-05 -5.67453e-06 0)
(5.08944e-05 -5.72964e-06 0)
(5.41204e-05 -5.77207e-06 0)
(5.73671e-05 -5.80238e-06 0)
(6.06282e-05 -5.82106e-06 0)
(6.38971e-05 -5.82851e-06 0)
(6.71676e-05 -5.82517e-06 0)
(7.04341e-05 -5.81154e-06 0)
(7.36909e-05 -5.78815e-06 0)
(7.69326e-05 -5.75544e-06 0)
(8.01542e-05 -5.71383e-06 0)
(8.33507e-05 -5.66373e-06 0)
(8.65174e-05 -5.60555e-06 0)
(8.96499e-05 -5.53964e-06 0)
(9.2744e-05 -5.46639e-06 0)
(9.57956e-05 -5.38622e-06 0)
(9.88009e-05 -5.29953e-06 0)
(0.000101756 -5.20665e-06 0)
(0.000104659 -5.10788e-06 0)
(0.000107504 -5.00353e-06 0)
(0.00011029 -4.89393e-06 0)
(0.000113013 -4.77936e-06 0)
(0.000115671 -4.66011e-06 0)
(0.000118261 -4.53647e-06 0)
(0.000120781 -4.40873e-06 0)
(0.000123228 -4.27712e-06 0)
(0.0001256 -4.14186e-06 0)
(0.000127895 -4.00316e-06 0)
(0.000130112 -3.86128e-06 0)
(0.000132248 -3.71644e-06 0)
(0.000134302 -3.56882e-06 0)
(0.000136272 -3.41862e-06 0)
(0.000138157 -3.266e-06 0)
(0.000139956 -3.11112e-06 0)
(0.000141667 -2.95417e-06 0)
(0.000143289 -2.79531e-06 0)
(0.000144821 -2.63471e-06 0)
(0.000146262 -2.47246e-06 0)
(0.000147611 -2.3087e-06 0)
(0.000148868 -2.14358e-06 0)
(0.000150031 -1.97723e-06 0)
(0.0001511 -1.80974e-06 0)
(0.000152074 -1.64121e-06 0)
(0.000152953 -1.47178e-06 0)
(0.000153736 -1.30156e-06 0)
(0.000154423 -1.13064e-06 0)
(0.000155013 -9.59065e-07 0)
(0.000155506 -7.86945e-07 0)
(0.000155902 -6.14417e-07 0)
(0.0001562 -4.41574e-07 0)
(0.000156401 -2.68456e-07 0)
(0.000156504 -9.5131e-08 0)
(0.000156509 7.82714e-08 0)
(0.000156416 2.51641e-07 0)
(0.000156226 4.24929e-07 0)
(0.000155937 5.98079e-07 0)
(0.000155551 7.70973e-07 0)
(0.000155067 9.43487e-07 0)
(0.000154486 1.11555e-06 0)
(0.000153809 1.28709e-06 0)
(0.000153034 1.45801e-06 0)
(0.000152164 1.62816e-06 0)
(0.000151197 1.79747e-06 0)
(0.000150135 1.96585e-06 0)
(0.000148979 2.13317e-06 0)
(0.000147729 2.29926e-06 0)
(0.000146386 2.46401e-06 0)
(0.00014495 2.62735e-06 0)
(0.000143422 2.78913e-06 0)
(0.000141804 2.94912e-06 0)
(0.000140096 3.10718e-06 0)
(0.0001383 3.26322e-06 0)
(0.000136417 3.41708e-06 0)
(0.000134448 3.56853e-06 0)
(0.000132395 3.71734e-06 0)
(0.000130258 3.86335e-06 0)
(0.000128041 4.00641e-06 0)
(0.000125744 4.14629e-06 0)
(0.00012337 4.28268e-06 0)
(0.00012092 4.41537e-06 0)
(0.000118397 4.54419e-06 0)
(0.000115803 4.66888e-06 0)
(0.00011314 4.78912e-06 0)
(0.000110412 4.90456e-06 0)
(0.00010762 5.01498e-06 0)
(0.000104769 5.12011e-06 0)
(0.00010186 5.21962e-06 0)
(9.88977e-05 5.31315e-06 0)
(9.5885e-05 5.40041e-06 0)
(9.28258e-05 5.48102e-06 0)
(8.97239e-05 5.55456e-06 0)
(8.65833e-05 5.62069e-06 0)
(8.34083e-05 5.67914e-06 0)
(8.02034e-05 5.72945e-06 0)
(7.69735e-05 5.771e-06 0)
(7.37236e-05 5.80339e-06 0)
(7.04585e-05 5.82649e-06 0)
(6.71835e-05 5.83995e-06 0)
(6.39046e-05 5.84302e-06 0)
(6.06281e-05 5.83498e-06 0)
(5.73597e-05 5.81553e-06 0)
(5.41056e-05 5.78451e-06 0)
(5.08727e-05 5.74136e-06 0)
(4.76681e-05 5.68528e-06 0)
(4.4499e-05 5.6158e-06 0)
(4.13725e-05 5.5327e-06 0)
(3.82963e-05 5.43556e-06 0)
(3.52785e-05 5.3236e-06 0)
(3.23276e-05 5.19613e-06 0)
(2.94518e-05 5.05291e-06 0)
(2.66592e-05 4.89379e-06 0)
(2.39588e-05 4.71836e-06 0)
(2.13596e-05 4.52605e-06 0)
(1.88708e-05 4.31649e-06 0)
(1.65013e-05 4.08958e-06 0)
(1.42599e-05 3.84536e-06 0)
(1.21558e-05 3.58393e-06 0)
(1.01977e-05 3.30557e-06 0)
(8.39371e-06 3.01092e-06 0)
(6.75183e-06 2.70088e-06 0)
(5.27921e-06 2.37678e-06 0)
(3.98169e-06 2.04082e-06 0)
(2.86352e-06 1.69624e-06 0)
(1.92728e-06 1.34718e-06 0)
(1.17337e-06 9.99158e-07 0)
(5.98187e-07 6.60449e-07 0)
(1.93094e-07 3.42952e-07 0)
(-5.53833e-08 6.20538e-08 0)
(-1.65634e-07 -1.62905e-07 0)
(-1.64867e-07 -3.05192e-07 0)
(-9.85234e-08 -3.27782e-07 0)
(-2.82293e-08 -1.82854e-07 0)
(-2.05743e-08 2.28801e-07 0)
(-5.54554e-08 3.73168e-07 0)
(-4.57246e-08 2.90271e-07 0)
(6.51226e-08 4.25644e-08 0)
(3.18029e-07 -3.23082e-07 0)
(7.41395e-07 -7.70267e-07 0)
(1.35593e-06 -1.27043e-06 0)
(2.17548e-06 -1.80216e-06 0)
(3.20869e-06 -2.3491e-06 0)
(4.45929e-06 -2.89918e-06 0)
(5.92761e-06 -3.44328e-06 0)
(7.61084e-06 -3.97465e-06 0)
(9.50406e-06 -4.48836e-06 0)
(1.16006e-05 -4.98097e-06 0)
(1.38926e-05 -5.45009e-06 0)
(1.63711e-05 -5.89401e-06 0)
(1.90261e-05 -6.31149e-06 0)
(2.18475e-05 -6.70189e-06 0)
(2.48247e-05 -7.065e-06 0)
(2.79471e-05 -7.40082e-06 0)
(3.12038e-05 -7.70956e-06 0)
(3.4584e-05 -7.99155e-06 0)
(3.8077e-05 -8.24721e-06 0)
(4.16721e-05 -8.47712e-06 0)
(4.5359e-05 -8.68197e-06 0)
(4.91276e-05 -8.86245e-06 0)
(5.29678e-05 -9.01933e-06 0)
(5.68701e-05 -9.15333e-06 0)
(6.08249e-05 -9.26521e-06 0)
(6.48232e-05 -9.35573e-06 0)
(6.88562e-05 -9.42566e-06 0)
(7.29154e-05 -9.47581e-06 0)
(7.69926e-05 -9.50703e-06 0)
(8.108e-05 -9.52009e-06 0)
(8.51699e-05 -9.51566e-06 0)
(8.9255e-05 -9.49447e-06 0)
(9.33284e-05 -9.45727e-06 0)
(9.73834e-05 -9.40482e-06 0)
(0.000101414 -9.3378e-06 0)
(0.000105413 -9.2569e-06 0)
(0.000109376 -9.16279e-06 0)
(0.000113296 -9.0561e-06 0)
(0.000117169 -8.93742e-06 0)
(0.000120989 -8.80732e-06 0)
(0.000124751 -8.66646e-06 0)
(0.000128452 -8.51541e-06 0)
(0.000132086 -8.3547e-06 0)
(0.000135649 -8.18484e-06 0)
(0.000139139 -8.00634e-06 0)
(0.00014255 -7.81968e-06 0)
(0.00014588 -7.62531e-06 0)
(0.000149125 -7.42369e-06 0)
(0.000152283 -7.21525e-06 0)
(0.000155349 -7.00044e-06 0)
(0.000158322 -6.77962e-06 0)
(0.0001612 -6.55315e-06 0)
(0.000163978 -6.3214e-06 0)
(0.000166657 -6.08471e-06 0)
(0.000169232 -5.84343e-06 0)
(0.000171703 -5.59787e-06 0)
(0.000174067 -5.34832e-06 0)
(0.000176322 -5.09504e-06 0)
(0.000178468 -4.83831e-06 0)
(0.000180503 -4.57839e-06 0)
(0.000182425 -4.31555e-06 0)
(0.000184233 -4.05001e-06 0)
(0.000185925 -3.78197e-06 0)
(0.000187502 -3.51164e-06 0)
(0.000188961 -3.23925e-06 0)
(0.000190303 -2.96499e-06 0)
(0.000191525 -2.68902e-06 0)
(0.000192628 -2.41151e-06 0)
(0.000193611 -2.13266e-06 0)
(0.000194473 -1.85265e-06 0)
(0.000195213 -1.57162e-06 0)
(0.000195832 -1.28968e-06 0)
(0.000196329 -1.007e-06 0)
(0.000196704 -7.23781e-07 0)
(0.000196956 -4.4015e-07 0)
(0.000197085 -1.56205e-07 0)
(0.000197092 1.27909e-07 0)
(0.000196975 4.12e-07 0)
(0.000196736 6.95919e-07 0)
(0.000196374 9.79566e-07 0)
(0.00019589 1.26281e-06 0)
(0.000195283 1.54545e-06 0)
(0.000194555 1.82733e-06 0)
(0.000193704 2.10832e-06 0)
(0.000192733 2.38826e-06 0)
(0.00019164 2.66696e-06 0)
(0.000190428 2.94423e-06 0)
(0.000189096 3.21992e-06 0)
(0.000187646 3.49387e-06 0)
(0.000186077 3.76581e-06 0)
(0.000184392 4.03552e-06 0)
(0.000182591 4.30281e-06 0)
(0.000180675 4.5675e-06 0)
(0.000178646 4.82932e-06 0)
(0.000176504 5.08794e-06 0)
(0.000174252 5.34313e-06 0)
(0.000171891 5.59466e-06 0)
(0.000169422 5.84225e-06 0)
(0.000166848 6.08553e-06 0)
(0.00016417 6.32415e-06 0)
(0.00016139 6.55782e-06 0)
(0.000158511 6.78624e-06 0)
(0.000155535 7.00899e-06 0)
(0.000152466 7.22562e-06 0)
(0.000149304 7.43575e-06 0)
(0.000146054 7.63904e-06 0)
(0.000142719 7.83506e-06 0)
(0.000139301 8.02326e-06 0)
(0.000135805 8.20316e-06 0)
(0.000132233 8.37431e-06 0)
(0.000128591 8.53622e-06 0)
(0.000124882 8.6883e-06 0)
(0.000121111 8.83003e-06 0)
(0.000117281 8.9609e-06 0)
(0.000113399 9.08023e-06 0)
(0.000109469 9.18735e-06 0)
(0.000105496 9.28176e-06 0)
(0.000101486 9.36293e-06 0)
(9.7445e-05 9.43007e-06 0)
(9.33795e-05 9.48225e-06 0)
(8.92958e-05 9.51885e-06 0)
(8.52003e-05 9.5395e-06 0)
(8.11001e-05 9.54351e-06 0)
(7.70027e-05 9.52981e-06 0)
(7.29161e-05 9.49747e-06 0)
(6.88479e-05 9.44599e-06 0)
(6.48061e-05 9.37482e-06 0)
(6.07995e-05 9.28299e-06 0)
(5.68373e-05 9.16947e-06 0)
(5.29284e-05 9.03362e-06 0)
(4.9082e-05 8.87497e-06 0)
(4.53078e-05 8.69278e-06 0)
(4.16161e-05 8.48603e-06 0)
(3.80172e-05 8.2539e-06 0)
(3.45214e-05 7.99596e-06 0)
(3.1139e-05 7.71186e-06 0)
(2.78809e-05 7.40113e-06 0)
(2.4758e-05 7.06326e-06 0)
(2.17811e-05 6.69804e-06 0)
(1.89609e-05 6.30556e-06 0)
(1.63079e-05 5.88617e-06 0)
(1.38323e-05 5.44053e-06 0)
(1.15437e-05 4.96982e-06 0)
(9.45105e-06 4.47582e-06 0)
(7.56231e-06 3.96092e-06 0)
(5.88432e-06 3.42853e-06 0)
(4.42164e-06 2.88377e-06 0)
(3.17657e-06 2.33359e-06 0)
(2.14901e-06 1.78679e-06 0)
(1.33548e-06 1.25511e-06 0)
(7.26936e-07 7.55216e-07 0)
(3.08148e-07 3.09666e-07 0)
(5.85108e-08 -5.32646e-08 0)
(-4.87956e-08 -2.98424e-07 0)
(-5.5596e-08 -3.79253e-07 0)
(-2.03845e-08 -2.3095e-07 0)
(-1.05195e-08 2.49071e-07 0)
(1.63063e-09 3.56465e-07 0)
(1.05495e-07 1.7846e-07 0)
(3.47754e-07 -2.08066e-07 0)
(7.65037e-07 -7.46042e-07 0)
(1.38507e-06 -1.39003e-06 0)
(2.22777e-06 -2.10462e-06 0)
(3.30704e-06 -2.86198e-06 0)
(4.63117e-06 -3.64093e-06 0)
(6.20421e-06 -4.42507e-06 0)
(8.02628e-06 -5.20207e-06 0)
(1.00946e-05 -5.96251e-06 0)
(1.24038e-05 -6.69932e-06 0)
(1.49466e-05 -7.40724e-06 0)
(1.77143e-05 -8.08262e-06 0)
(2.06971e-05 -8.72289e-06 0)
(2.3884e-05 -9.32622e-06 0)
(2.72637e-05 -9.89141e-06 0)
(3.08242e-05 -1.04179e-05 0)
(3.45534e-05 -1.09055e-05 0)
(3.84391e-05 -1.13543e-05 0)
(4.24689e-05 -1.17649e-05 0)
(4.66305e-05 -1.21376e-05 0)
(5.09117e-05 -1.24733e-05 0)
(5.53005e-05 -1.27728e-05 0)
(5.97851e-05 -1.30369e-05 0)
(6.43539e-05 -1.32668e-05 0)
(6.89958e-05 -1.34634e-05 0)
(7.36997e-05 -1.36279e-05 0)
(7.8455e-05 -1.37613e-05 0)
(8.32514e-05 -1.38647e-05 0)
(8.80789e-05 -1.39392e-05 0)
(9.29278e-05 -1.39859e-05 0)
(9.77889e-05 -1.4006e-05 0)
(0.000102653 -1.40005e-05 0)
(0.000107512 -1.39705e-05 0)
(0.000112358 -1.39169e-05 0)
(0.000117182 -1.3841e-05 0)
(0.000121977 -1.37436e-05 0)
(0.000126735 -1.36257e-05 0)
(0.000131451 -1.34884e-05 0)
(0.000136116 -1.33325e-05 0)
(0.000140725 -1.3159e-05 0)
(0.000145272 -1.29687e-05 0)
(0.000149751 -1.27625e-05 0)
(0.000154157 -1.25412e-05 0)
(0.000158484 -1.23055e-05 0)
(0.000162727 -1.20564e-05 0)
(0.000166883 -1.17944e-05 0)
(0.000170946 -1.15204e-05 0)
(0.000174912 -1.1235e-05 0)
(0.000178778 -1.09388e-05 0)
(0.000182539 -1.06325e-05 0)
(0.000186193 -1.03167e-05 0)
(0.000189736 -9.99199e-06 0)
(0.000193164 -9.6589e-06 0)
(0.000196476 -9.31797e-06 0)
(0.000199668 -8.96969e-06 0)
(0.000202738 -8.61455e-06 0)
(0.000205683 -8.25302e-06 0)
(0.000208501 -7.88555e-06 0)
(0.00021119 -7.51255e-06 0)
(0.000213749 -7.13441e-06 0)
(0.000216175 -6.7515e-06 0)
(0.000218467 -6.3642e-06 0)
(0.000220623 -5.97286e-06 0)
(0.000222641 -5.57782e-06 0)
(0.000224522 -5.17936e-06 0)
(0.000226262 -4.77779e-06 0)
(0.000227862 -4.37343e-06 0)
(0.000229321 -3.96653e-06 0)
(0.000230636 -3.55734e-06 0)
(0.000231809 -3.14611e-06 0)
(0.000232837 -2.73312e-06 0)
(0.000233721 -2.31862e-06 0)
(0.000234459 -1.90281e-06 0)
(0.000235052 -1.48588e-06 0)
(0.000235499 -1.06809e-06 0)
(0.0002358 -6.49688e-07 0)
(0.000235955 -2.30866e-07 0)
(0.000235963 1.88201e-07 0)
(0.000235824 6.07279e-07 0)
(0.000235539 1.02611e-06 0)
(0.000235108 1.4445e-06 0)
(0.00023453 1.86225e-06 0)
(0.000233807 2.27913e-06 0)
(0.000232938 2.69489e-06 0)
(0.000231924 3.10928e-06 0)
(0.000230765 3.5221e-06 0)
(0.000229462 3.93309e-06 0)
(0.000228016 4.34194e-06 0)
(0.000226428 4.74839e-06 0)
(0.000224699 5.1522e-06 0)
(0.000222829 5.55306e-06 0)
(0.000220819 5.95062e-06 0)
(0.000218672 6.34452e-06 0)
(0.000216388 6.73449e-06 0)
(0.000213968 7.12019e-06 0)
(0.000211415 7.50121e-06 0)
(0.000208731 7.87708e-06 0)
(0.000205916 8.24744e-06 0)
(0.000202973 8.61191e-06 0)
(0.000199905 8.97002e-06 0)
(0.000196714 9.32122e-06 0)
(0.000193401 9.66502e-06 0)
(0.000189971 1.0001e-05 0)
(0.000186426 1.03285e-05 0)
(0.000182768 1.0647e-05 0)
(0.000179002 1.09559e-05 0)
(0.000175131 1.12546e-05 0)
(0.000171158 1.15424e-05 0)
(0.000167088 1.18187e-05 0)
(0.000162924 1.20828e-05 0)
(0.000158672 1.23339e-05 0)
(0.000154335 1.25713e-05 0)
(0.00014992 1.27941e-05 0)
(0.00014543 1.30017e-05 0)
(0.000140872 1.31932e-05 0)
(0.000136251 1.33678e-05 0)
(0.000131574 1.35244e-05 0)
(0.000126847 1.36621e-05 0)
(0.000122076 1.37801e-05 0)
(0.000117268 1.38777e-05 0)
(0.000112432 1.39536e-05 0)
(0.000107574 1.40066e-05 0)
(0.000102703 1.40357e-05 0)
(9.7826e-05 1.40403e-05 0)
(9.29527e-05 1.40193e-05 0)
(8.80922e-05 1.39712e-05 0)
(8.32539e-05 1.38949e-05 0)
(7.8447e-05 1.37896e-05 0)
(7.36817e-05 1.36543e-05 0)
(6.89684e-05 1.34877e-05 0)
(6.43182e-05 1.32885e-05 0)
(5.97419e-05 1.30559e-05 0)
(5.52505e-05 1.2789e-05 0)
(5.08556e-05 1.24869e-05 0)
(4.65694e-05 1.21483e-05 0)
(4.24039e-05 1.17725e-05 0)
(3.83712e-05 1.13588e-05 0)
(3.44835e-05 1.09068e-05 0)
(3.07531e-05 1.04162e-05 0)
(2.71924e-05 9.8868e-06 0)
(2.38136e-05 9.31875e-06 0)
(2.06285e-05 8.71274e-06 0)
(1.76484e-05 8.06989e-06 0)
(1.48842e-05 7.39204e-06 0)
(1.23456e-05 6.68204e-06 0)
(1.00411e-05 5.9437e-06 0)
(7.97817e-06 5.18199e-06 0)
(6.16216e-06 4.40389e-06 0)
(4.59532e-06 3.61917e-06 0)
(3.27708e-06 2.84053e-06 0)
(2.20383e-06 2.08388e-06 0)
(1.36747e-06 1.37012e-06 0)
(7.53339e-07 7.2755e-07 0)
(3.40203e-07 1.92772e-07 0)
(1.01222e-07 -1.89405e-07 0)
(1.64417e-10 -3.63228e-07 0)
(-1.06648e-08 -2.51385e-07 0)
(5.15024e-10 2.373e-07 0)
(6.57453e-08 2.58726e-07 0)
(2.76539e-07 -5.49577e-08 0)
(6.66402e-07 -6.16543e-07 0)
(1.26614e-06 -1.36e-06 0)
(2.10089e-06 -2.23265e-06 0)
(3.1892e-06 -3.19217e-06 0)
(4.54354e-06 -4.20545e-06 0)
(6.17173e-06 -5.24622e-06 0)
(8.07706e-06 -6.29414e-06 0)
(1.02594e-05 -7.33336e-06 0)
(1.27156e-05 -8.35182e-06 0)
(1.54398e-05 -9.3402e-06 0)
(1.84243e-05 -1.02914e-05 0)
(2.16594e-05 -1.12004e-05 0)
(2.51347e-05 -1.20633e-05 0)
(2.88385e-05 -1.28776e-05 0)
(3.27581e-05 -1.36417e-05 0)
(3.68807e-05 -1.43544e-05 0)
(4.11928e-05 -1.50153e-05 0)
(4.5681e-05 -1.56245e-05 0)
(5.03316e-05 -1.61823e-05 0)
(5.51309e-05 -1.66893e-05 0)
(6.00654e-05 -1.71465e-05 0)
(6.51217e-05 -1.75548e-05 0)
(7.02864e-05 -1.79154e-05 0)
(7.55467e-05 -1.82295e-05 0)
(8.08899e-05 -1.84985e-05 0)
(8.63036e-05 -1.87237e-05 0)
(9.17758e-05 -1.89068e-05 0)
(9.72949e-05 -1.9049e-05 0)
(0.000102849 -1.91518e-05 0)
(0.000108428 -1.92167e-05 0)
(0.000114021 -1.92451e-05 0)
(0.000119618 -1.92385e-05 0)
(0.000125209 -1.91984e-05 0)
(0.000130785 -1.91261e-05 0)
(0.000136336 -1.9023e-05 0)
(0.000141853 -1.88905e-05 0)
(0.00014733 -1.873e-05 0)
(0.000152757 -1.85426e-05 0)
(0.000158126 -1.83297e-05 0)
(0.000163432 -1.80925e-05 0)
(0.000168666 -1.78323e-05 0)
(0.000173823 -1.75501e-05 0)
(0.000178895 -1.72471e-05 0)
(0.000183877 -1.69243e-05 0)
(0.000188764 -1.65829e-05 0)
(0.000193549 -1.62238e-05 0)
(0.000198229 -1.5848e-05 0)
(0.000202798 -1.54565e-05 0)
(0.000207251 -1.50501e-05 0)
(0.000211584 -1.46297e-05 0)
(0.000215793 -1.41961e-05 0)
(0.000219875 -1.37502e-05 0)
(0.000223826 -1.32926e-05 0)
(0.000227642 -1.28242e-05 0)
(0.000231321 -1.23456e-05 0)
(0.000234859 -1.18575e-05 0)
(0.000238253 -1.13605e-05 0)
(0.000241502 -1.08552e-05 0)
(0.000244602 -1.03422e-05 0)
(0.000247551 -9.82215e-06 0)
(0.000250348 -9.29544e-06 0)
(0.00025299 -8.7626e-06 0)
(0.000255476 -8.22413e-06 0)
(0.000257804 -7.6805e-06 0)
(0.000259972 -7.13212e-06 0)
(0.00026198 -6.5794e-06 0)
(0.000263825 -6.02276e-06 0)
(0.000265507 -5.4626e-06 0)
(0.000267024 -4.89927e-06 0)