/*--------------------------------*- C++ -*----------------------------------*\
  =========                 |
  \\      /  F ield         | OpenFOAM: The Open Source CFD Toolbox
   \\    /   O peration     | Website:  https://openfoam.org
    \\  /    A nd           | Version:  7
     \\/     M anipulation  |
\*---------------------------------------------------------------------------*/
FoamFile
{
    version     2.0;
    format      ascii;
    class       surfaceScalarField;
    location    "0.4625";
    object      phi;
}
// * * * * * * * * * * * * * * * * * * * * * * * * * * * * * * * * * * * * * //

dimensions      [0 3 -1 0 0 0 0];

internalField   nonuniform List<scalar> 
101920
(
-1.57783e-13
1.34581e-13
-5.1744e-13
3.62764e-13
-9.31446e-13
4.09318e-13
-1.28963e-12
3.37273e-13
-1.50503e-12
2.04025e-13
-1.52245e-12
2.84094e-14
-1.32447e-12
-1.8041e-13
-9.13625e-13
-4.06197e-13
-2.90666e-13
-6.30425e-13
5.47804e-13
-8.44941e-13
1.601e-12
-1.05136e-12
2.85989e-12
-1.25275e-12
4.31093e-12
-1.44789e-12
5.94262e-12
-1.63263e-12
7.7463e-12
-1.80476e-12
9.71243e-12
-1.96513e-12
1.18297e-11
-2.11536e-12
1.40862e-11
-2.25573e-12
1.64705e-11
-2.38532e-12
1.8972e-11
-2.50345e-12
2.15816e-11
-2.61073e-12
2.42898e-11
-2.7083e-12
2.70864e-11
-2.79668e-12
2.99611e-11
-2.87558e-12
3.29053e-11
-2.94494e-12
3.59109e-11
-3.00532e-12
3.89695e-11
-3.05757e-12
4.20728e-11
-3.1022e-12
4.52125e-11
-3.13928e-12
4.83812e-11
-3.16877e-12
5.15721e-11
-3.19095e-12
5.47785e-11
-3.20637e-12
5.79939e-11
-3.2154e-12
6.12119e-11
-3.21821e-12
6.44267e-11
-3.215e-12
6.76323e-11
-3.206e-12
7.08235e-11
-3.19147e-12
7.39952e-11
-3.1718e-12
7.71427e-11
-3.14736e-12
8.02612e-11
-3.11836e-12
8.33463e-11
-3.08495e-12
8.63939e-11
-3.04744e-12
8.93999e-11
-3.00617e-12
9.23608e-11
-2.96124e-12
9.52729e-11
-2.91266e-12
9.8133e-11
-2.86055e-12
1.00938e-10
-2.80513e-12
1.03684e-10
-2.74673e-12
1.06369e-10
-2.68568e-12
1.08991e-10
-2.62212e-12
1.11546e-10
-2.55592e-12
1.14033e-10
-2.48709e-12
1.16449e-10
-2.41599e-12
1.18793e-10
-2.34308e-12
1.21061e-10
-2.26852e-12
1.23253e-10
-2.19222e-12
1.25366e-10
-2.11407e-12
1.274e-10
-2.03418e-12
1.29353e-10
-1.95285e-12
1.31223e-10
-1.87032e-12
1.33009e-10
-1.78663e-12
1.3471e-10
-1.7017e-12
1.36325e-10
-1.61553e-12
1.37853e-10
-1.52825e-12
1.39293e-10
-1.44007e-12
1.40643e-10
-1.35112e-12
1.41905e-10
-1.26149e-12
1.43075e-10
-1.17122e-12
1.44155e-10
-1.0803e-12
1.45143e-10
-9.88721e-13
1.4604e-10
-8.96536e-13
1.46843e-10
-8.03895e-13
1.47554e-10
-7.10918e-13
1.48171e-10
-6.17615e-13
1.48694e-10
-5.23949e-13
1.49124e-10
-4.29937e-13
1.49459e-10
-3.35672e-13
1.497e-10
-2.41256e-13
1.49847e-10
-1.46726e-13
1.49899e-10
-5.20755e-14
1.49856e-10
4.26488e-14
1.49719e-10
1.37335e-13
1.49487e-10
2.319e-13
1.49161e-10
3.26349e-13
1.4874e-10
4.20704e-13
1.48225e-10
5.14911e-13
1.47616e-10
6.08869e-13
1.46914e-10
7.02528e-13
1.46118e-10
7.95907e-13
1.45229e-10
8.88989e-13
1.44247e-10
9.81658e-13
1.43174e-10
1.07378e-12
1.42008e-10
1.16531e-12
1.40752e-10
1.25622e-12
1.39405e-10
1.34646e-12
1.37969e-10
1.43592e-12
1.36445e-10
1.52452e-12
1.34832e-10
1.61223e-12
1.33133e-10
1.69899e-12
1.31349e-10
1.78469e-12
1.29479e-10
1.86923e-12
1.27527e-10
1.95256e-12
1.25492e-10
2.03458e-12
1.23377e-10
2.11516e-12
1.21183e-10
2.19408e-12
1.18912e-10
2.27124e-12
1.16565e-10
2.34662e-12
1.14145e-10
2.42014e-12
1.11654e-10
2.49155e-12
1.09093e-10
2.56063e-12
1.06466e-10
2.62726e-12
1.03775e-10
2.69142e-12
1.01022e-10
2.75298e-12
9.82104e-11
2.81172e-12
9.53434e-11
2.86743e-12
9.2424e-11
2.91989e-12
8.94555e-11
2.96895e-12
8.64415e-11
3.01443e-12
8.33856e-11
3.05616e-12
8.0292e-11
3.09392e-12
7.71649e-11
3.12746e-12
7.40088e-11
3.1565e-12
7.08285e-11
3.18082e-12
6.76288e-11
3.20019e-12
6.4415e-11
3.21433e-12
6.11925e-11
3.22301e-12
5.7967e-11
3.22605e-12
5.47444e-11
3.22318e-12
5.15313e-11
3.21393e-12
4.83341e-11
3.19788e-12
4.51593e-11
3.17489e-12
4.20142e-11
3.14491e-12
3.89064e-11
3.10773e-12
3.58437e-11
3.06298e-12
3.28344e-11
3.01008e-12
2.9887e-11
2.94843e-12
2.70098e-11
2.87777e-12
2.42117e-11
2.7982e-12
2.15025e-11
2.70952e-12
1.88923e-11
2.61105e-12
1.63908e-11
2.50221e-12
1.4008e-11
2.38299e-12
1.17542e-11
2.25349e-12
9.64068e-12
2.11352e-12
7.67823e-12
1.96276e-12
5.87779e-12
1.80094e-12
4.25018e-12
1.62803e-12
2.80586e-12
1.44444e-12
1.555e-12
1.25088e-12
5.07152e-13
1.04814e-12
-3.29449e-13
8.37235e-13
-9.48878e-13
6.19986e-13
-1.34878e-12
3.99873e-13
-1.53169e-12
1.82576e-13
-1.50701e-12
-2.40404e-14
-1.29575e-12
-2.09093e-13
-9.38918e-13
-3.55137e-13
-5.11353e-13
-4.3037e-13
-1.40113e-13
-3.79981e-13
-1.4837e-13
-3.81736e-13
5.14628e-13
-1.05596e-12
1.05075e-12
-1.71549e-12
1.10589e-12
-2.17161e-12
8.10181e-13
-2.27839e-12
2.93697e-13
-1.91846e-12
-3.53125e-13
-1.01652e-12
-1.08249e-12
4.5637e-13
-1.86311e-12
2.5028e-12
-2.66583e-12
5.11933e-12
-3.46421e-12
8.30168e-12
-4.24181e-12
1.20383e-11
-4.99267e-12
1.63073e-11
-5.71462e-12
2.10808e-11
-6.40385e-12
2.63308e-11
-7.05555e-12
3.20301e-11
-7.66704e-12
3.81517e-11
-8.23826e-12
4.46673e-11
-8.77007e-12
5.15468e-11
-9.26294e-12
5.87608e-11
-9.71684e-12
6.62817e-11
-1.0132e-11
7.40829e-11
-1.05093e-11
8.21376e-11
-1.08503e-11
9.0419e-11
-1.11562e-11
9.89016e-11
-1.14277e-11
1.07561e-10
-1.16656e-11
1.16373e-10
-1.1871e-11
1.25316e-10
-1.20452e-11
1.34367e-10
-1.219e-11
1.43505e-10
-1.23065e-11
1.52709e-10
-1.23954e-11
1.6196e-10
-1.24577e-11
1.7124e-10
-1.24948e-11
1.80531e-10
-1.25078e-11
1.89815e-10
-1.2498e-11
1.99076e-10
-1.24663e-11
2.08297e-10
-1.24138e-11
2.17465e-10
-1.23411e-11
2.26566e-10
-1.22492e-11
2.35585e-10
-1.2139e-11
2.4451e-10
-1.20115e-11
2.53329e-10
-1.18677e-11
2.62031e-10
-1.17086e-11
2.70604e-10
-1.15347e-11
2.79038e-10
-1.13467e-11
2.87323e-10
-1.11456e-11
2.9545e-10
-1.0932e-11
3.0341e-10
-1.07067e-11
3.11194e-10
-1.04704e-11
3.18795e-10
-1.02238e-11
3.26206e-10
-9.96728e-12
3.3342e-10
-9.70142e-12
3.40429e-10
-9.42679e-12
3.47229e-10
-9.14402e-12
3.53812e-10
-8.85364e-12
3.60175e-10
-8.55607e-12
3.66312e-10
-8.25174e-12
3.72219e-10
-7.94113e-12
3.7789e-10
-7.62472e-12
3.83322e-10
-7.30299e-12
3.88511e-10
-6.97633e-12
3.93453e-10
-6.64502e-12
3.98146e-10
-6.30931e-12
4.02587e-10
-5.96953e-12
4.06772e-10
-5.62611e-12
4.10698e-10
-5.27934e-12
4.14365e-10
-4.92944e-12
4.17769e-10
-4.57661e-12
4.20909e-10
-4.22118e-12
4.23783e-10
-3.86346e-12
4.26389e-10
-3.50364e-12
4.28727e-10
-3.14189e-12
4.30793e-10
-2.77843e-12
4.32589e-10
-2.41355e-12
4.34112e-10
-2.04743e-12
4.35362e-10
-1.68023e-12
4.36338e-10
-1.31212e-12
4.37039e-10
-9.43319e-13
4.37466e-10
-5.74014e-13
4.37617e-10
-2.04307e-13
4.37494e-10
1.6569e-13
4.37095e-10
5.35743e-13
4.36421e-10
9.05552e-13
4.35472e-10
1.27491e-12
4.34248e-10
1.64372e-12
4.32751e-10
2.01189e-12
4.3098e-10
2.37919e-12
4.28937e-10
2.74534e-12
4.26623e-10
3.11016e-12
4.24038e-10
3.47349e-12
4.21184e-10
3.83515e-12
4.18063e-10
4.19483e-12
4.14675e-10
4.55222e-12
4.11024e-10
4.90708e-12
4.0711e-10
5.25921e-12
4.02937e-10
5.60834e-12
3.98507e-10
5.95416e-12
3.93823e-10
6.29639e-12
3.88887e-10
6.63472e-12
3.83703e-10
6.96882e-12
3.78274e-10
7.29829e-12
3.72604e-10
7.6227e-12
3.66697e-10
7.94172e-12
3.60557e-10
8.25492e-12
3.5419e-10
8.5618e-12
3.47599e-10
8.86181e-12
3.40791e-10
9.15455e-12
3.33771e-10
9.43967e-12
3.26545e-10
9.71669e-12
3.1912e-10
9.98496e-12
3.11504e-10
1.02438e-11
3.03703e-10
1.04926e-11
2.95725e-10
1.07308e-11
2.8758e-10
1.09579e-11
2.79275e-10
1.11731e-11
2.70821e-10
1.13757e-11
2.62226e-10
1.15648e-11
2.53502e-10
1.17397e-11
2.4466e-10
1.18997e-11
2.3571e-10
1.20439e-11
2.26667e-10
1.21716e-11
2.17542e-10
1.22819e-11
2.08349e-10
1.23738e-11
1.99103e-10
1.24465e-11
1.89819e-10
1.2499e-11
1.80513e-10
1.25302e-11
1.71201e-10
1.25392e-11
1.619e-10
1.2525e-11
1.52628e-10
1.24866e-11
1.43405e-10
1.24228e-11
1.3425e-10
1.23321e-11
1.25183e-10
1.22135e-11
1.16225e-10
1.20662e-11
1.07399e-10
1.1889e-11
9.87279e-11
1.16812e-11
9.02355e-11
1.14412e-11
8.19469e-11
1.11675e-11
7.38869e-11
1.08591e-11
6.60814e-11
1.05153e-11
5.85579e-11
1.01352e-11
5.13443e-11
9.71742e-12
4.44684e-11
9.26092e-12
3.79583e-11
8.76515e-12
3.18428e-11
8.22992e-12
2.61509e-11
7.65523e-12
2.0911e-11
7.04129e-12
1.61514e-11
6.38867e-12
1.18981e-11
5.69875e-12
8.17535e-12
4.97426e-12
5.00403e-12
4.21951e-12
2.40081e-12
3.44063e-12
3.7575e-13
2.64613e-12
-1.07134e-12
1.84851e-12
-1.95582e-12
1.06707e-12
-2.31319e-12
3.3089e-13
-2.20577e-12
-3.18478e-13
-1.73274e-12
-8.23543e-13
-1.04584e-12
-1.10333e-12
-3.63752e-13
-1.04462e-12
-5.1854e-13
-4.21268e-13
9.2962e-13
-1.11549e-12
1.71789e-12
-1.67509e-12
1.67374e-12
-1.84674e-12
1.01034e-12
-1.4565e-12
-8.20957e-14
-3.71626e-13
-1.44825e-12
1.51027e-12
-2.97779e-12
4.25003e-12
-4.60217e-12
7.86866e-12
-6.27385e-12
1.23641e-11
-7.95227e-12
1.77253e-11
-9.60402e-12
2.39353e-11
-1.12069e-11
3.09692e-11
-1.27489e-11
3.87918e-11
-1.4223e-11
4.73619e-11
-1.5623e-11
5.66376e-11
-1.69433e-11
6.65776e-11
-1.81803e-11
7.71392e-11
-1.93331e-11
8.82787e-11
-2.04028e-11
9.99516e-11
-2.139e-11
1.12114e-10
-2.22954e-11
1.24724e-10
-2.31201e-11
1.37739e-10
-2.38658e-11
1.51119e-10
-2.45352e-11
1.64823e-10
-2.51307e-11
1.78813e-10
-2.56544e-11
1.9305e-10
-2.6108e-11
2.07498e-10
-2.64939e-11
2.22123e-10
-2.68148e-11
2.3689e-10
-2.70736e-11
2.51767e-10
-2.72725e-11
2.66723e-10
-2.74138e-11
2.81727e-10
-2.74995e-11
2.96751e-10
-2.7532e-11
3.11767e-10
-2.75139e-11
3.26749e-10
-2.74476e-11
3.41671e-10
-2.73354e-11
3.56509e-10
-2.71791e-11
3.7124e-10
-2.69806e-11
3.85842e-10
-2.67419e-11
4.00295e-10
-2.64652e-11
4.14579e-10
-2.61524e-11
4.28675e-10
-2.58052e-11
4.42565e-10
-2.54254e-11
4.56232e-10
-2.50145e-11
4.6966e-10
-2.45742e-11
4.82834e-10
-2.41064e-11
4.9574e-10
-2.36126e-11
5.08362e-10
-2.30942e-11
5.2069e-10
-2.25524e-11
5.32712e-10
-2.19885e-11
5.44414e-10
-2.14042e-11
5.55788e-10
-2.08006e-11
5.66822e-10
-2.01789e-11
5.77507e-10
-1.954e-11
5.87836e-10
-1.88851e-11
5.97799e-10
-1.82151e-11
6.07388e-10
-1.75311e-11
6.16597e-10
-1.68342e-11
6.25418e-10
-1.61252e-11
6.33845e-10
-1.54049e-11
6.41874e-10
-1.46741e-11
6.49497e-10
-1.39335e-11
6.56711e-10
-1.3184e-11
6.6351e-10
-1.24262e-11
6.69891e-10
-1.1661e-11
6.75849e-10
-1.08888e-11
6.81382e-10
-1.011e-11
6.86485e-10
-9.32531e-12
6.91156e-10
-8.53534e-12
6.95393e-10
-7.74071e-12
6.99192e-10
-6.94184e-12
7.02552e-10
-6.13913e-12
7.0547e-10
-5.33305e-12
7.07947e-10
-4.52408e-12
7.09979e-10
-3.71271e-12
7.11566e-10
-2.89934e-12
7.12706e-10
-2.08436e-12
7.134e-10
-1.2682e-12
7.13647e-10
-4.51265e-13
7.13447e-10
3.66129e-13
7.12799e-10
1.18362e-12
7.11703e-10
2.00073e-12
7.10161e-10
2.81697e-12
7.08173e-10
3.63192e-12
7.05739e-10
4.44525e-12
7.02862e-10
5.2566e-12
6.99541e-10
6.0655e-12
6.9578e-10
6.8714e-12
6.9158e-10
7.67383e-12
6.86943e-10
8.47238e-12
6.81871e-10
9.26649e-12
6.76367e-10
1.00556e-11
6.70435e-10
1.0839e-11
6.64078e-10
1.16162e-11
6.57299e-10
1.23867e-11
6.50103e-10
1.31497e-11
6.42495e-10
1.39046e-11
6.34479e-10
1.46507e-11
6.2606e-10
1.53873e-11
6.17245e-10
1.61135e-11
6.0804e-10
1.68285e-11
5.98451e-10
1.75312e-11
5.88485e-10
1.82209e-11
5.7815e-10
1.88966e-11
5.67454e-10
1.95572e-11
5.56408e-10
2.02016e-11
5.45019e-10
2.08288e-11
5.33297e-10
2.14376e-11
5.21255e-10
2.20269e-11
5.08903e-10
2.25954e-11
4.96255e-10
2.31416e-11
4.83322e-10
2.36642e-11
4.70118e-10
2.41619e-11
4.56659e-10
2.46332e-11
4.42959e-10
2.50765e-11
4.29034e-10
2.54901e-11
4.14903e-10
2.58724e-11
4.00581e-10
2.62216e-11
3.8609e-10
2.6536e-11
3.71449e-10
2.68137e-11
3.56678e-10
2.70529e-11
3.41802e-10
2.72515e-11
3.26841e-10
2.74076e-11
3.11822e-10
2.75192e-11
2.96769e-10
2.7584e-11
2.8171e-10
2.75999e-11
2.66671e-10
2.75645e-11
2.51682e-10
2.74759e-11
2.36773e-10
2.73317e-11
2.21977e-10
2.71296e-11
2.07325e-10
2.68668e-11
1.92851e-10
2.6541e-11
1.78592e-10
2.61497e-11
1.64583e-10
2.56909e-11
1.50861e-10
2.51624e-11
1.37468e-10
2.45618e-11
1.24442e-10
2.38861e-11
1.11825e-10
2.31336e-11
9.96576e-11
2.23026e-11
8.79838e-11
2.13914e-11
7.68471e-11
2.03985e-11
6.62909e-11
1.93225e-11
5.6359e-11
1.81629e-11
4.70946e-11
1.69203e-11
3.85402e-11
1.55959e-11
3.07367e-11
1.41924e-11
2.37222e-11
1.27138e-11
1.75307e-11
1.11667e-11
1.21902e-11
9.56065e-12
7.72062e-12
7.91021e-12
4.13146e-12
6.23545e-12
1.41765e-12
4.56392e-12
-4.47002e-13
2.93418e-12
-1.51744e-12
1.40147e-12
-1.88549e-12
4.43217e-14
-1.68739e-12
-1.02988e-12
-1.11373e-12
-1.68012e-12
-4.21861e-13
-1.72606e-12
-9.41746e-13
-3.40228e-13
1.28656e-12
-8.19839e-13
2.17417e-12
-1.01852e-12
1.85046e-12
-6.38627e-13
6.37255e-13
5.19117e-13
-1.21872e-12
2.59315e-12
-3.51228e-12
5.68826e-12
-6.07881e-12
9.8783e-12
-8.80051e-12
1.52016e-11
-1.15971e-11
2.16648e-11
-1.44098e-11
2.92549e-11
-1.71911e-11
3.79491e-11
-1.9903e-11
4.77171e-11
-2.25196e-11
5.85194e-11
-2.50251e-11
7.03078e-11
-2.74092e-11
8.30301e-11
-2.96637e-11
9.66322e-11
-3.17821e-11
1.11059e-10
-3.3761e-11
1.26256e-10
-3.55998e-11
1.42165e-10
-3.72992e-11
1.5873e-10
-3.88606e-11
1.75895e-10
-4.02856e-11
1.93604e-10
-4.15764e-11
2.11804e-10
-4.27362e-11
2.30443e-10
-4.37687e-11
2.49467e-10
-4.4678e-11
2.68828e-10
-4.54677e-11
2.88475e-10
-4.61413e-11
3.08362e-10
-4.67026e-11
3.28445e-10
-4.7156e-11
3.48679e-10
-4.75059e-11
3.69021e-10
-4.7756e-11
3.89432e-10
-4.79102e-11
4.09873e-10
-4.79724e-11
4.30305e-10
-4.79464e-11
4.50693e-10
-4.78363e-11
4.71003e-10
-4.76458e-11
4.91202e-10
-4.73785e-11
5.11258e-10
-4.70377e-11
5.31143e-10
-4.6627e-11
5.50827e-10
-4.61498e-11
5.70283e-10
-4.56095e-11
5.89486e-10
-4.5009e-11
6.08412e-10
-4.43514e-11
6.27037e-10
-4.36395e-11
6.45339e-10
-4.28762e-11
6.63296e-10
-4.20644e-11
6.8089e-10
-4.12071e-11
6.98102e-10
-4.03065e-11
7.14913e-10
-3.93648e-11
7.31308e-10
-3.83842e-11
7.47271e-10
-3.73674e-11
7.62787e-10
-3.63168e-11
7.77841e-10
-3.52342e-11
7.92422e-10
-3.41215e-11
8.06517e-10
-3.29804e-11
8.20114e-10
-3.18128e-11
8.33203e-10
-3.06205e-11
8.45774e-10
-2.94055e-11
8.57817e-10
-2.8169e-11
8.69323e-10
-2.69125e-11
8.80286e-10
-2.56374e-11
8.90696e-10
-2.4345e-11
9.00548e-10
-2.30366e-11
9.09835e-10
-2.17137e-11
9.1855e-10
-2.03774e-11
9.26689e-10
-1.90288e-11
9.34247e-10
-1.76687e-11
9.41218e-10
-1.6298e-11
9.47601e-10
-1.4918e-11
9.53389e-10
-1.35295e-11
9.5858e-10
-1.21336e-11
9.63171e-10
-1.0731e-11
9.6716e-10
-9.3224e-12
9.70544e-10
-7.90861e-12
9.73321e-10
-6.49052e-12
9.7549e-10
-5.06886e-12
9.7705e-10
-3.64433e-12
9.77999e-10
-2.21761e-12
9.78337e-10
-7.89484e-13
9.78064e-10
6.39337e-13
9.77179e-10
2.06819e-12
9.75683e-10
3.49639e-12
9.73576e-10
4.92317e-12
9.7086e-10
6.34772e-12
9.67536e-10
7.7693e-12
9.63605e-10
9.18724e-12
9.5907e-10
1.06008e-11
9.53932e-10
1.20091e-11
9.48195e-10
1.34112e-11
9.41861e-10
1.48063e-11
9.34933e-10
1.61935e-11
9.27417e-10
1.75718e-11
9.19315e-10
1.89401e-11
9.10634e-10
2.02975e-11
9.01377e-10
2.16428e-11
8.91552e-10
2.2975e-11
8.81164e-10
2.42928e-11
8.7022e-10
2.55948e-11
8.58727e-10
2.68799e-11
8.46694e-10
2.81466e-11
8.34129e-10
2.93935e-11
8.21042e-10
3.06188e-11
8.07442e-10
3.1821e-11
7.9334e-10
3.29985e-11
7.78747e-10
3.41494e-11
7.63677e-10
3.5272e-11
7.48141e-10
3.63641e-11
7.32155e-10
3.74239e-11
7.15732e-10
3.84491e-11
6.9889e-10
3.94377e-11
6.81644e-10
4.03873e-11
6.64014e-10
4.12955e-11
6.46017e-10
4.21598e-11
6.27673e-10
4.29776e-11
6.09005e-10
4.37463e-11
5.90032e-10
4.4463e-11
5.70781e-10
4.51249e-11
5.51274e-10
4.5729e-11
5.31538e-10
4.62721e-11
5.11601e-10
4.67512e-11
4.91492e-10
4.71629e-11
4.7124e-10
4.75039e-11
4.50878e-10
4.77707e-11
4.30438e-10
4.79598e-11
4.09955e-10
4.80677e-11
3.89466e-10
4.80906e-11
3.69008e-10
4.80243e-11
3.48619e-10
4.78653e-11
3.28342e-10
4.76097e-11
3.08218e-10
4.72537e-11
2.88292e-10
4.67932e-11
2.6861e-10
4.62243e-11
2.49218e-10
4.55425e-11
2.30166e-10
4.47441e-11
2.11503e-10
4.38255e-11
1.93282e-10
4.27831e-11
1.75556e-10
4.16131e-11
1.58379e-10
4.03118e-11
1.41807e-10
3.88765e-11
1.25894e-10
3.73048e-11
1.10698e-10
3.55949e-11
9.62755e-11
3.37457e-11
8.26825e-11
3.17568e-11
6.99742e-11
2.96295e-11
5.8204e-11
2.73668e-11
4.74225e-11
2.49743e-11
3.76763e-11
2.24603e-11
2.90063e-11
1.98373e-11
2.14451e-11
1.71226e-11
1.50146e-11
1.43412e-11
9.72191e-12
1.15276e-11
5.55674e-12
8.72892e-12
2.4852e-12
6.00799e-12
4.41913e-13
3.44955e-12
-6.79661e-13
1.16922e-12
-1.03518e-12
-6.76945e-13
-8.35665e-13
-1.88619e-12
-3.55453e-13
-2.20378e-12
-1.2961e-12
-2.01505e-13
1.50636e-12
-3.00645e-13
2.28091e-12
7.0013e-14
1.46077e-12
1.20896e-12
-5.16387e-13
3.33464e-12
-3.33781e-12
6.59303e-12
-6.75489e-12
1.10843e-11
-1.05629e-11
1.68798e-11
-1.46e-11
2.40244e-11
-1.87472e-11
3.25333e-11
-2.29189e-11
4.23967e-11
-2.70508e-11
5.35879e-11
-3.10918e-11
6.60703e-11
-3.50026e-11
7.97991e-11
-3.87556e-11
9.47221e-11
-4.23323e-11
1.1078e-10
-4.57203e-11
1.27909e-10
-4.89105e-11
1.46045e-10
-5.18969e-11
1.6512e-10
-5.46763e-11
1.85068e-10
-5.72482e-11
2.05823e-10
-5.96144e-11
2.27315e-10
-6.17772e-11
2.49478e-10
-6.37396e-11
2.72246e-10
-6.55053e-11
2.95556e-10
-6.70791e-11
3.19345e-10
-6.84664e-11
3.43551e-10
-6.96728e-11
3.68113e-10
-7.07038e-11
3.92976e-10
-7.1565e-11
4.18081e-10
-7.22622e-11
4.43377e-10
-7.28015e-11
4.6881e-10
-7.31887e-11
4.9433e-10
-7.34298e-11
5.19889e-10
-7.35308e-11
5.4544e-10
-7.34974e-11
5.70939e-10
-7.33352e-11
5.96342e-10
-7.30498e-11
6.2161e-10
-7.26466e-11
6.46703e-10
-7.21309e-11
6.71583e-10
-7.1508e-11
6.96216e-10
-7.07832e-11
7.20566e-10
-6.99612e-11
7.44603e-10
-6.90466e-11
7.68296e-10
-6.80441e-11
7.91614e-10
-6.69581e-11
8.14531e-10
-6.57933e-11
8.3702e-10
-6.45537e-11
8.59055e-10
-6.32435e-11
8.80615e-10
-6.18665e-11
9.01676e-10
-6.04261e-11
9.22217e-10
-5.8926e-11
9.42219e-10
-5.73699e-11
9.61663e-10
-5.57612e-11
9.80531e-10
-5.4103e-11
9.98807e-10
-5.23982e-11
1.01648e-09
-5.06495e-11
1.03352e-09
-4.88597e-11
1.04993e-09
-4.70318e-11
1.06569e-09
-4.51684e-11
1.0808e-09
-4.32717e-11
1.09523e-09
-4.13439e-11
1.10898e-09
-3.93872e-11
1.12203e-09
-3.74037e-11
1.13439e-09
-3.53955e-11
1.14604e-09
-3.33645e-11
1.15698e-09
-3.13126e-11
1.16719e-09
-2.92413e-11
1.17667e-09
-2.71523e-11
1.18542e-09
-2.50471e-11
1.19343e-09
-2.29271e-11
1.20069e-09
-2.0794e-11
1.20721e-09
-1.86491e-11
1.21297e-09
-1.64938e-11
1.21797e-09
-1.43292e-11
1.22222e-09
-1.21566e-11
1.22571e-09
-9.9772e-12
1.22843e-09
-7.79224e-12
1.23039e-09
-5.60282e-12
1.23158e-09
-3.41e-12
1.23201e-09
-1.21489e-12
1.23166e-09
9.81303e-13
1.23055e-09
3.17744e-12
1.22868e-09
5.37247e-12
1.22604e-09
7.56531e-12
1.22263e-09
9.75479e-12
1.21846e-09
1.19396e-11
1.21353e-09
1.41187e-11
1.20784e-09
1.62908e-11
1.20139e-09
1.84547e-11
1.19419e-09
2.06091e-11
1.18625e-09
2.27525e-11
1.17756e-09
2.48834e-11
1.16813e-09
2.70004e-11
1.15797e-09
2.9102e-11
1.14708e-09
3.11866e-11
1.13547e-09
3.32523e-11
1.12314e-09
3.52976e-11
1.11012e-09
3.73204e-11
1.09639e-09
3.93189e-11
1.08198e-09
4.12908e-11
1.06689e-09
4.32342e-11
1.05114e-09
4.51467e-11
1.03473e-09
4.7026e-11
1.01769e-09
4.88694e-11
1.00001e-09
5.06743e-11
9.81721e-10
5.24381e-11
9.62835e-10
5.4158e-11
9.43368e-10
5.58309e-11
9.23338e-10
5.74537e-11
9.02764e-10
5.9023e-11
8.81666e-10
6.05356e-11
8.60065e-10
6.19881e-11
8.37984e-10
6.33767e-11
8.15447e-10
6.46976e-11
7.92479e-10
6.59468e-11
7.69106e-10
6.71203e-11
7.45356e-10
6.82137e-11
7.21259e-10
6.92228e-11
6.96846e-10
7.01429e-11
6.7215e-10
7.09694e-11
6.47204e-10
7.16974e-11
6.22045e-10
7.2322e-11
5.96712e-10
7.28382e-11
5.71242e-10
7.32407e-11
5.45679e-10
7.35241e-11
5.20064e-10
7.36832e-11
4.94443e-10
7.37124e-11
4.68863e-10
7.36058e-11
4.43372e-10
7.33576e-11
4.18021e-10
7.29619e-11
3.92862e-10
7.24131e-11
3.67951e-10
7.17054e-11
3.43342e-10
7.0833e-11
3.19095e-10
6.97901e-11
2.9527e-10
6.85705e-11
2.71928e-10
6.71688e-11
2.49131e-10
6.558e-11
2.26945e-10
6.37993e-11
2.05436e-10
6.18219e-11
1.8467e-10
5.96437e-11
1.64714e-10
5.72616e-11
1.45636e-10
5.46736e-11
1.27504e-10
5.18787e-11
1.10384e-10
4.88778e-11
9.43397e-11
4.56738e-11
7.94349e-11
4.22724e-11
6.57272e-11
3.86827e-11
5.32695e-11
3.49185e-11
4.21075e-11
3.09997e-11
3.22774e-11
2.69536e-11
2.38025e-11
2.28173e-11
1.6689e-11
1.86412e-11
1.09228e-11
1.44935e-11
6.46506e-12
1.04639e-11
3.24618e-12
6.66948e-12
1.15649e-12
3.26316e-12
3.67151e-14
4.45761e-13
-3.28931e-13
-1.52385e-12
-2.1419e-13
-2.31984e-12
-1.50937e-12
-2.83318e-14
1.53278e-12
3.49065e-13
1.92885e-12
1.43668e-12
3.77745e-13
3.4982e-12
-2.59036e-12
6.74589e-12
-6.59379e-12
1.13311e-11
-1.1335e-11
1.73529e-11
-1.6575e-11
2.48757e-11
-2.21195e-11
3.39395e-11
-2.78147e-11
4.45614e-11
-3.35447e-11
5.67346e-11
-3.92236e-11
7.0432e-11
-4.47859e-11
8.56118e-11
-5.01805e-11
1.02224e-10
-5.53681e-11
1.20211e-10
-6.03202e-11
1.39509e-10
-6.50178e-11
1.60047e-10
-6.9448e-11
1.81752e-10
-7.36019e-11
2.04548e-10
-7.74738e-11
2.28361e-10
-8.10617e-11
2.53112e-10
-8.43663e-11
2.78725e-10
-8.73901e-11
3.05123e-10
-9.01372e-11
3.32231e-10
-9.26125e-11
3.59973e-10
-9.48216e-11
3.88277e-10
-9.67708e-11
4.17072e-10
-9.84676e-11
4.46289e-10
-9.99196e-11
4.75858e-10
-1.01135e-10
5.05716e-10
-1.0212e-10
5.35799e-10
-1.02884e-10
5.66045e-10
-1.03435e-10
5.96395e-10
-1.0378e-10
6.26793e-10
-1.03928e-10
6.57183e-10
-1.03887e-10
6.87513e-10
-1.03665e-10
7.17732e-10
-1.03269e-10
7.47792e-10
-1.02707e-10
7.77646e-10
-1.01986e-10
8.0725e-10
-1.01113e-10
8.36563e-10
-1.00096e-10
8.65543e-10
-9.8942e-11
8.94152e-10
-9.76566e-11
9.22354e-10
-9.62464e-11
9.50114e-10
-9.47182e-11
9.77398e-10
-9.30781e-11
1.00418e-09
-9.13319e-11
1.03042e-09
-8.94851e-11
1.05609e-09
-8.75432e-11
1.08118e-09
-8.55113e-11
1.10565e-09
-8.33948e-11
1.12947e-09
-8.11985e-11
1.15264e-09
-7.89272e-11
1.17512e-09
-7.65852e-11
1.1969e-09
-7.41767e-11
1.21795e-09
-7.17058e-11
1.23827e-09
-6.91764e-11
1.25783e-09
-6.65925e-11
1.27662e-09
-6.39577e-11
1.29462e-09
-6.12753e-11
1.31183e-09
-5.85485e-11
1.32822e-09
-5.57804e-11
1.34379e-09
-5.29739e-11
1.35852e-09
-5.01322e-11
1.37242e-09
-4.72579e-11
1.38546e-09
-4.43533e-11
1.39763e-09
-4.1421e-11
1.40894e-09
-3.84632e-11
1.41938e-09
-3.54823e-11
1.42893e-09
-3.24804e-11
1.4376e-09
-2.94596e-11
1.44537e-09
-2.64218e-11
1.45224e-09
-2.33688e-11
1.45822e-09
-2.03027e-11
1.46328e-09
-1.7225e-11
1.46744e-09
-1.41376e-11
1.47069e-09
-1.10422e-11
1.47303e-09
-7.94033e-12
1.47445e-09
-4.83367e-12
1.47496e-09
-1.72374e-12
1.47456e-09
1.38781e-12
1.47323e-09
4.4993e-12
1.471e-09
7.60911e-12
1.46785e-09
1.07157e-11
1.46378e-09
1.38175e-11
1.45881e-09
1.69127e-11
1.45293e-09
1.99996e-11
1.44614e-09
2.30764e-11
1.43846e-09
2.61413e-11
1.42987e-09
2.91926e-11
1.4204e-09
3.2228e-11
1.41004e-09
3.52457e-11
1.39879e-09
3.82433e-11
1.38668e-09
4.12188e-11
1.37369e-09
4.41699e-11
1.35985e-09
4.7094e-11
1.34516e-09
4.99887e-11
1.32963e-09
5.28513e-11
1.31327e-09
5.5679e-11
1.29609e-09
5.84688e-11
1.27811e-09
6.12177e-11
1.25933e-09
6.39224e-11
1.23978e-09
6.65796e-11
1.21946e-09
6.91856e-11
1.1984e-09
7.17368e-11
1.17661e-09
7.42292e-11
1.15411e-09
7.66589e-11
1.13092e-09
7.90217e-11
1.10706e-09
8.13132e-11
1.08255e-09
8.35285e-11
1.05742e-09
8.56632e-11
1.0317e-09
8.77121e-11
1.00541e-09
8.96702e-11
9.78572e-10
9.15322e-11
9.51228e-10
9.32925e-11
9.23404e-10
9.49452e-11
8.95134e-10
9.64843e-11
8.66454e-10
9.79038e-11
8.374e-10
9.91973e-11
8.08012e-10
1.00358e-10
7.7833e-10
1.0138e-10
7.48397e-10
1.02255e-10
7.18258e-10
1.02977e-10
6.87961e-10
1.03539e-10
6.57553e-10
1.03933e-10
6.27087e-10
1.04151e-10
5.96614e-10
1.04186e-10
5.66191e-10
1.0403e-10
5.35874e-10
1.03675e-10
5.05725e-10
1.03113e-10
4.75803e-10
1.02336e-10
4.46173e-10
1.01336e-10
4.16901e-10
1.00106e-10
3.88054e-10
9.86369e-11
3.59703e-10
9.69218e-11
3.3192e-10
9.4953e-11
3.04778e-10
9.27236e-11
2.7835e-10
9.02276e-11
2.52713e-10
8.74592e-11
2.27944e-10
8.44135e-11
2.0412e-10
8.10868e-11
1.81317e-10
7.74771e-11
1.59613e-10
7.35841e-11
1.39081e-10
6.94099e-11
1.19796e-10
6.49598e-11
1.01826e-10
6.02431e-11
8.52349e-11
5.52737e-11
7.0082e-11
5.00718e-11
5.64164e-11
4.46657e-11
4.42767e-11
3.90937e-11
3.36883e-11
3.3407e-11
2.46587e-11
2.76727e-11
1.71734e-11
2.19796e-11
1.11921e-11
1.64438e-11
6.6452e-12
1.12144e-11
3.42705e-12
6.48195e-12
1.38711e-12
2.48908e-12
3.20679e-13
-4.56886e-13
-2.96702e-14
-1.97031e-12
-1.53881e-12
1.74938e-13
1.34229e-12
1.076e-12
1.04029e-12
2.969e-12
-1.49646e-12
6.06839e-12
-5.6858e-12
1.05569e-11
-1.10897e-11
1.65767e-11
-1.73599e-11
2.42255e-11
-2.42211e-11
3.35625e-11
-3.14514e-11
4.46197e-11
-3.88706e-11
5.74084e-11
-4.63356e-11
7.19203e-11
-5.37371e-11
8.81276e-11
-6.09923e-11
1.05987e-10
-6.80374e-11
1.25442e-10
-7.48224e-11
1.46431e-10
-8.13095e-11
1.68884e-10
-8.74715e-11
1.92726e-10
-9.32898e-11
2.17876e-10
-9.8752e-11
2.44253e-10
-1.0385e-10
2.71771e-10
-1.08581e-10
3.00346e-10
-1.12942e-10
3.29893e-10
-1.16938e-10
3.60327e-10
-1.20571e-10
3.91563e-10
-1.23848e-10
4.23518e-10
-1.26776e-10
4.56109e-10
-1.29362e-10
4.89257e-10
-1.31616e-10
5.22884e-10
-1.33546e-10
5.56913e-10
-1.35163e-10
5.9127e-10
-1.36477e-10
6.25883e-10
-1.37497e-10
6.60683e-10
-1.38235e-10
6.95602e-10
-1.38699e-10
7.30575e-10
-1.38902e-10
7.65541e-10
-1.38853e-10
8.00438e-10
-1.38563e-10
8.3521e-10
-1.38041e-10
8.698e-10
-1.37297e-10
9.04155e-10
-1.36342e-10
9.38225e-10
-1.35184e-10
9.71962e-10
-1.33834e-10
1.00532e-09
-1.32299e-10
1.03825e-09
-1.3059e-10
1.07072e-09
-1.28713e-10
1.10268e-09
-1.26678e-10
1.13409e-09
-1.24493e-10
1.16493e-09
-1.22166e-10
1.19514e-09
-1.19704e-10
1.22472e-09
-1.17114e-10
1.25361e-09
-1.14404e-10
1.28179e-09
-1.11579e-10
1.30924e-09
-1.08648e-10
1.33593e-09
-1.05615e-10
1.36183e-09
-1.02488e-10
1.38692e-09
-9.92703e-11
1.41119e-09
-9.5969e-11
1.4346e-09
-9.2589e-11
1.45714e-09
-8.91356e-11
1.47879e-09
-8.56134e-11
1.49955e-09
-8.20268e-11
1.51938e-09
-7.83802e-11
1.53827e-09
-7.46779e-11
1.55622e-09
-7.09239e-11
1.57321e-09
-6.71222e-11
1.58923e-09
-6.32764e-11
1.60426e-09
-5.93896e-11
1.61831e-09
-5.54652e-11
1.63135e-09
-5.15064e-11
1.64338e-09
-4.75162e-11
1.6544e-09
-4.34977e-11
1.66439e-09
-3.94536e-11
1.67336e-09
-3.53864e-11
1.68129e-09
-3.12987e-11
1.68818e-09
-2.7193e-11
1.69402e-09
-2.30718e-11
1.69882e-09
-1.89373e-11
1.70257e-09
-1.47919e-11
1.70527e-09
-1.06378e-11
1.70691e-09
-6.47725e-12
1.7075e-09
-2.31232e-12
1.70703e-09
1.85481e-12
1.70551e-09
6.02192e-12
1.70293e-09
1.01868e-11
1.6993e-09
1.43472e-11
1.69462e-09
1.8501e-11
1.68888e-09
2.26459e-11
1.6821e-09
2.67796e-11
1.67428e-09
3.08995e-11
1.66542e-09
3.50034e-11
1.65552e-09
3.90886e-11
1.6446e-09
4.31524e-11
1.63265e-09
4.71921e-11
1.61969e-09
5.12047e-11
1.60572e-09
5.51873e-11
1.59075e-09
5.91368e-11
1.5748e-09
6.30499e-11
1.55786e-09
6.69232e-11
1.53996e-09
7.07529e-11
1.52111e-09
7.45355e-11
1.50131e-09
7.8267e-11
1.48058e-09
8.19431e-11
1.45895e-09
8.55596e-11
1.43641e-09
8.91119e-11
1.413e-09
9.25953e-11
1.38874e-09
9.60048e-11
1.36363e-09
9.93352e-11
1.33771e-09
1.02581e-10
1.31099e-09
1.05737e-10
1.28351e-09
1.08796e-10
1.25528e-09
1.11754e-10
1.22634e-09
1.14603e-10
1.19672e-09
1.17336e-10
1.16644e-09
1.19948e-10
1.13554e-09
1.22431e-10
1.10406e-09
1.24777e-10
1.07203e-09
1.26979e-10
1.03948e-09
1.29029e-10
1.00647e-09
1.30918e-10
9.73029e-10
1.32639e-10
9.39206e-10
1.34183e-10
9.05046e-10
1.3554e-10
8.706e-10
1.36702e-10
8.35919e-10
1.37659e-10
8.01056e-10
1.38402e-10
7.66069e-10
1.38921e-10
7.31014e-10
1.39207e-10
6.95953e-10
1.39248e-10
6.60949e-10
1.39035e-10
6.26066e-10
1.38558e-10
5.91374e-10
1.37806e-10
5.56941e-10
1.3677e-10
5.22841e-10
1.35438e-10
4.89148e-10
1.338e-10
4.55938e-10
1.31847e-10
4.2329e-10
1.2957e-10
3.91285e-10
1.26958e-10
3.60006e-10
1.24004e-10
3.29535e-10
1.207e-10
2.99957e-10
1.17038e-10
2.71357e-10
1.13014e-10
2.43822e-10
1.08623e-10
2.17435e-10
1.03865e-10
1.92281e-10
9.87387e-11
1.68442e-10
9.32492e-11
1.45999e-10
8.74045e-11
1.25025e-10
8.12178e-11
1.0559e-10
7.47085e-11
8.77583e-11
6.79043e-11
7.1582e-11
6.08423e-11
5.71029e-11
5.35728e-11
4.43487e-11
4.61614e-11
3.33298e-11
3.86929e-11
2.40351e-11
3.12764e-11
1.64279e-11
2.4052e-11
1.0443e-11
1.71982e-11
5.98324e-12
1.09401e-11
2.91422e-12
5.55905e-12
1.05465e-12
1.40399e-12
1.77381e-13
-1.09253e-12
-1.36139e-12
3.9861e-13
9.35303e-13
1.85332e-12
-4.22438e-13
4.59646e-12
-4.22897e-12
8.80135e-12
-9.87886e-12
1.46125e-11
-1.68987e-11
2.21471e-11
-2.49001e-11
3.14925e-11
-3.35707e-11
4.27025e-11
-4.26604e-11
5.58021e-11
-5.19669e-11
7.0794e-11
-6.13261e-11
8.76633e-11
-7.06073e-11
1.06379e-10
-7.97091e-11
1.26896e-10
-8.85534e-11
1.49155e-10
-9.70798e-11
1.73088e-10
-1.05242e-10
1.98619e-10
-1.13003e-10
2.25668e-10
-1.2034e-10
2.54151e-10
-1.27235e-10
2.83978e-10
-1.33677e-10
3.15058e-10
-1.39661e-10
3.473e-10
-1.45184e-10
3.80611e-10
-1.50249e-10
4.14897e-10
-1.54858e-10
4.50068e-10
-1.59019e-10
4.86032e-10
-1.62739e-10
5.22699e-10
-1.66029e-10
5.59982e-10
-1.68898e-10
5.97793e-10
-1.71358e-10
6.3605e-10
-1.7342e-10
6.74669e-10
-1.75097e-10
7.13573e-10
-1.764e-10
7.52684e-10
-1.77344e-10
7.91926e-10
-1.77941e-10
8.31228e-10
-1.78204e-10
8.7052e-10
-1.78146e-10
9.09736e-10
-1.77779e-10
9.48811e-10
-1.77116e-10
9.87683e-10
-1.7617e-10
1.02629e-09
-1.74952e-10
1.06458e-09
-1.73476e-10
1.1025e-09
-1.71752e-10
1.13999e-09
-1.69792e-10
1.17701e-09
-1.67608e-10
1.21351e-09
-1.65209e-10
1.24944e-09
-1.62607e-10
1.28475e-09
-1.59812e-10
1.31942e-09
-1.56834e-10
1.3534e-09
-1.53682e-10
1.38665e-09
-1.50366e-10
1.41914e-09
-1.46895e-10
1.45084e-09
-1.43277e-10
1.48171e-09
-1.3952e-10
1.51173e-09
-1.35634e-10
1.54086e-09
-1.31624e-10
1.56909e-09
-1.27498e-10
1.59638e-09
-1.23265e-10
1.62272e-09
-1.18929e-10
1.64809e-09
-1.14499e-10
1.67245e-09
-1.0998e-10
1.6958e-09
-1.05377e-10
1.71812e-09
-1.00697e-10
1.73939e-09
-9.59446e-11
1.75959e-09
-9.11254e-11
1.77871e-09
-8.62443e-11
1.79673e-09
-8.13058e-11
1.81366e-09
-7.63143e-11
1.82947e-09
-7.1274e-11
1.84415e-09
-6.61891e-11
1.8577e-09
-6.10635e-11
1.8701e-09
-5.59011e-11
1.88135e-09
-5.07053e-11
1.89144e-09
-4.54796e-11
1.90037e-09
-4.02273e-11
1.90813e-09
-3.49517e-11
1.91471e-09
-2.96558e-11
1.92012e-09
-2.43428e-11
1.92434e-09
-1.90155e-11
1.92738e-09
-1.36769e-11
1.92923e-09
-8.32978e-12
1.9299e-09
-2.97711e-12
1.92937e-09
2.37835e-12
1.92766e-09
7.73379e-12
1.92476e-09
1.30864e-11
1.92067e-09
1.84332e-11
1.9154e-09
2.37713e-11
1.90895e-09
2.90978e-11
1.90132e-09
3.44097e-11