/*--------------------------------*- C++ -*----------------------------------*\
  =========                 |
  \\      /  F ield         | OpenFOAM: The Open Source CFD Toolbox
   \\    /   O peration     | Website:  https://openfoam.org
    \\  /    A nd           | Version:  7
     \\/     M anipulation  |
\*---------------------------------------------------------------------------*/
FoamFile
{
    version     2.0;
    format      ascii;
    class       volScalarField;
    location    "0.2625";
    object      p;
}
// * * * * * * * * * * * * * * * * * * * * * * * * * * * * * * * * * * * * * //

dimensions      [0 2 -2 0 0 0 0];

internalField   nonuniform List<scalar> 
12800
(
-2.23539e-06
2.3744e-05
-1.02662e-05
-0.000117635
-0.000290932
-0.000519949
-0.000793799
-0.00110191
-0.00143464
-0.00178359
-0.00214154
-0.00250236
-0.00286092
-0.00321295
-0.00355499
-0.00388424
-0.00419852
-0.00449616
-0.0047759
-0.00503686
-0.00527849
-0.00550049
-0.00570276
-0.00588538
-0.00604858
-0.00619267
-0.00631805
-0.00642515
-0.00651446
-0.00658645
-0.00664162
-0.00668041
-0.00670329
-0.00671066
-0.00670288
-0.00668027
-0.00664312
-0.00659166
-0.00652604
-0.0064464
-0.00635279
-0.00624524
-0.0061237
-0.00598809
-0.00583826
-0.00567402
-0.00549512
-0.00530128
-0.00509214
-0.00486734
-0.00462643
-0.00436892
-0.00409428
-0.00380193
-0.00349124
-0.00316154
-0.00281212
-0.00244222
-0.00205103
-0.00163769
-0.00120128
-0.000740846
-0.000255378
0.000256173
0.000794909
0.00136199
0.00195863
0.00258611
0.00324575
0.00393893
0.00466706
0.00543161
0.00623409
0.00707604
0.00795906
0.0088848
0.00985493
0.0108712
0.0119353
0.013049
0.0142141
0.0154324
0.0167057
0.0180358
0.0194244
0.0208734
0.0223845
0.0239592
0.0255993
0.0273063
0.0290814
0.0309262
0.0328417
0.034829
0.0368889
0.039022
0.0412288
0.0435093
0.0458635
0.048291
0.0507909
0.0533622
0.0560032
0.0587121
0.0614866
0.0643237
0.0672201
0.0701719
0.0731748
0.0762239
0.0793135
0.0824377
0.0855898
0.0887625
0.0919481
0.0951383
0.0983242
0.101496
0.104645
0.107761
0.110832
0.113848
0.116798
0.119671
0.122456
0.125142
0.127718
0.130173
0.132497
0.134681
0.136715
0.138592
0.140304
0.141846
0.143211
0.144397
0.1454
0.14622
0.146857
0.147313
0.147592
0.1477
0.147642
0.147428
0.147068
0.146573
0.145959
0.145241
0.144435
0.143562
0.142643
0.141701
0.140765
0.139862
0.139026
0.138294
0.137703
0.137296
0.13711
0.137136
-2.92956e-05
-1.94712e-06
-3.72214e-05
-0.00013569
-0.000288355
-0.000488207
-0.000727517
-0.000998075
-0.00129206
-0.00160236
-0.00192265
-0.00224744
-0.00257202
-0.0028924
-0.00320524
-0.00350781
-0.00379791
-0.00407379
-0.0043341
-0.00457785
-0.00480435
-0.00501312
-0.00520392
-0.00537668
-0.00553146
-0.00566841
-0.00578777
-0.00588985
-0.00597499
-0.00604354
-0.00609587
-0.00613234
-0.00615328
-0.006159
-0.00614981
-0.00612594
-0.0060876
-0.00603497
-0.00596814
-0.0058872
-0.00579217
-0.00568304
-0.00555973
-0.00542213
-0.00527007
-0.00510332
-0.00492164
-0.00472473
-0.00451222
-0.00428375
-0.00403886
-0.00377705
-0.0034978
-0.00320053
-0.00288461
-0.00254939
-0.00219418
-0.00181821
-0.00142069
-0.00100077
-0.000557567
-9.01317e-05
0.000402508
0.000921372
0.00146753
0.00204212
0.00264631
0.00328134
0.00394848
0.00464908
0.00538448
0.00615609
0.00696537
0.00781379
0.00870288
0.00963421
0.0106094
0.01163
0.0126977
0.0138143
0.0149813
0.0162005
0.0174735
0.0188021
0.0201879
0.0216325
0.0231376
0.0247046
0.0263351
0.0280304
0.0297919
0.0316206
0.0335177
0.035484
0.0375202
0.0396269
0.0418042
0.0440524
0.046371
0.0487596
0.0512173
0.0537429
0.0563349
0.0589912
0.0617095
0.064487
0.0673202
0.0702054
0.0731382
0.076114
0.0791272
0.082172
0.0852419
0.0883301
0.091429
0.0945306
0.0976264
0.100708
0.103765
0.106788
0.109768
0.112694
0.115556
0.118342
0.121044
0.12365
0.12615
0.128534
0.130794
0.132919
0.134902
0.136735
0.138412
0.139927
0.141275
0.142453
0.143459
0.144293
0.144955
0.145446
0.145772
0.145937
0.145948
0.145813
0.145543
0.145148
0.144644
0.144043
0.143363
0.142622
0.14184
0.141039
0.140243
0.139479
0.138773
0.138156
0.137656
0.137304
0.137135
0.137161
7.24089e-06
3.57127e-05
-1.36933e-07
-9.40424e-05
-0.000235135
-0.000417521
-0.000634957
-0.000880667
-0.00114808
-0.00143108
-0.0017241
-0.00202223
-0.00232118
-0.00261725
-0.00290731
-0.00318876
-0.00345943
-0.00371759
-0.00396187
-0.00419122
-0.00440485
-0.00460223
-0.00478301
-0.00494702
-0.00509419
-0.00522459
-0.00533833
-0.00543563
-0.0055167
-0.00558183
-0.00563128
-0.00566532
-0.0056842
-0.00568818
-0.00567746
-0.00565224
-0.00561268
-0.00555888
-0.0054909
-0.00540879
-0.00531252
-0.00520206
-0.00507732
-0.00493813
-0.00478432
-0.00461564
-0.00443183
-0.00423258
-0.00401754
-0.00378629
-0.00353841
-0.00327338
-0.00299068
-0.00268973
-0.00236992
-0.0020306
-0.00167107
-0.00129061
-0.000888417
-0.000463661
-1.54653e-05
0.000457083
0.000954935
0.00147909
0.00203058
0.00261052
0.00322005
0.00386036
0.00453271
0.00523837
0.00597866
0.00675494
0.00756859
0.00842106
0.00931379
0.0102483
0.0112261
0.0122488
0.013318
0.0144352
0.015602
0.0168201
0.0180911
0.0194165
0.0207979
0.022237
0.023735
0.0252936
0.0269141
0.0285977
0.0303457
0.0321592
0.034039
0.0359859
0.0380006
0.0400836
0.0422349
0.0444545
0.0467422
0.0490974
0.051519
0.054006
0.0565567
0.059169
0.0618407
0.0645689
0.0673503
0.0701811
0.0730572
0.0759739
0.0789258
0.0819073
0.0849121
0.0879335
0.0909643
0.0939966
0.0970224
0.100033
0.103019
0.105973
0.108883
0.11174
0.114534
0.117256
0.119895
0.122441
0.124885
0.127217
0.129429
0.131511
0.133456
0.135258
0.13691
0.138406
0.139742
0.140917
0.141927
0.142772
0.143453
0.143972
0.144334
0.144542
0.144605
0.14453
0.144327
0.144007
0.143582
0.143068
0.14248
0.141834
0.14115
0.140447
0.139748
0.139075
0.138452
0.137905
0.137457
0.137133
0.136966
0.136977
0.000118086
0.000136868
9.49542e-05
6.25748e-08
-0.000136993
-0.000310691
-0.000515512
-0.000745599
-0.000995256
-0.00125916
-0.00153242
-0.00181065
-0.00208996
-0.00236698
-0.00263882
-0.00290304
-0.00315759
-0.00340081
-0.00363135
-0.00384817
-0.00405045
-0.00423761
-0.00440926
-0.00456517
-0.0047052
-0.00482933
-0.00493761
-0.00503016
-0.00510716
-0.00516878
-0.00521522
-0.00524669
-0.00526338
-0.00526546
-0.00525311
-0.00522645
-0.0051856
-0.00513061
-0.00506151
-0.00497829
-0.00488093
-0.00476934
-0.0046434
-0.00450294
-0.00434774
-0.00417757
-0.00399212
-0.0037911
-0.00357413
-0.00334081
-0.00309067
-0.00282323
-0.00253796
-0.00223427
-0.00191157
-0.00156922
-0.00120652
-0.000822757
-0.000417143
1.11359e-05
0.000462938
0.000939155
0.00144072
0.00196859
0.00252381
0.00310743
0.00372057
0.0043644
0.00504013
0.00574899
0.00649227
0.00727127
0.00808734
0.00894186
0.00983624
0.0107719
0.0117504
0.0127732
0.0138417
0.0149576
0.0161224
0.0173376
0.0186047
0.0199252
0.0213008
0.0227327
0.0242225
0.0257715
0.027381
0.0290523
0.0307863
0.0325842
0.0344468
0.0363748
0.0383688
0.0404291
0.0425559
0.0447491
0.0470083
0.049333
0.0517222
0.0541746
0.0566886
0.0592624
0.0618934
0.064579
0.0673159
0.0701005
0.0729286
0.0757956
0.0786964
0.0816255
0.0845767
0.0875435
0.0905189
0.0934954
0.096465
0.0994195
0.10235
0.105248
0.108103
0.110907
0.11365
0.116322
0.118913
0.121414
0.123816
0.126109
0.128285
0.130337
0.132255
0.134034
0.135668
0.137152
0.138482
0.139655
0.140669
0.141524
0.142222
0.142763
0.143153
0.143396
0.143499
0.143469
0.143317
0.143053
0.142688
0.142238
0.141716
0.141138
0.140523
0.139887
0.139252
0.138637
0.138064
0.137553
0.137127
0.136804
0.136614
0.136575
0.000295895
0.000292975
0.000237678
0.000136329
-2.16412e-06
-0.000172707
-0.000370396
-0.000590128
-0.00082698
-0.00107634
-0.00133394
-0.00159588
-0.00185872
-0.00211943
-0.00237537
-0.00262429
-0.0028643
-0.00309386
-0.00331166
-0.00351671
-0.00370819
-0.00388553
-0.00404831
-0.00419624
-0.00432915
-0.00444697
-0.00454968
-0.00463737
-0.00471011
-0.00476804
-0.0048113
-0.00484002
-0.00485433
-0.00485437
-0.00484025
-0.00481206
-0.00476985
-0.00471363
-0.00464339
-0.00455912
-0.00446073
-0.00434812
-0.00422114
-0.00407958
-0.00392322
-0.0037518
-0.00356503
-0.00336258
-0.00314406
-0.00290907
-0.00265714
-0.00238778
-0.00210045
-0.0017946
-0.00146963
-0.00112489
-0.000759709
-0.000373368
3.48967e-05
0.000465887
0.00092044
0.00139943
0.00190375
0.00243437
0.00299227
0.0035785
0.00419414
0.00484032
0.00551822
0.00622903
0.006974
0.00775437
0.00857147
0.00942661
0.0103212
0.0112565
0.0122341
0.0132554
0.0143217
0.0154347
0.0165958
0.0178064
0.019068
0.0203821
0.0217501
0.0231733
0.0246533
0.0261912
0.0277883
0.0294457
0.0311645
0.0329456
0.0347899
0.036698
0.0386705
0.0407076
0.0428094
0.0449759
0.0472068
0.0495012
0.0518584
0.0542771
0.0567557
0.0592924
0.0618846
0.0645299
0.067225
0.0699663
0.0727498
0.0755711
0.0784251
0.0813065
0.0842094
0.0871273
0.0900534
0.0929804
0.0959007
0.0988062
0.101688
0.104538
0.107347
0.110106
0.112805
0.115435
0.117987
0.120451
0.122819
0.125081
0.127229
0.129255
0.131153
0.132915
0.134537
0.136012
0.137338
0.138512
0.139531
0.140397
0.14111
0.141671
0.142086
0.142359
0.142495
0.142504
0.142394
0.142176
0.141861
0.141462
0.140992
0.140468
0.139905
0.13932
0.13873
0.138155
0.137611
0.137117
0.136692
0.136353
0.136117
0.135995
0.000531762
0.000497912
0.000422699
0.000309721
0.000164741
-7.6552e-06
-0.000203082
-0.000417164
-0.000645683
-0.000884652
-0.00113036
-0.00137943
-0.00162884
-0.00187587
-0.00211819
-0.00235377
-0.00258091
-0.00279816
-0.00300434
-0.00319849
-0.00337988
-0.00354792
-0.00370221
-0.00384243
-0.00396838
-0.00407996
-0.00417714
-0.00425992
-0.00432836
-0.00438252
-0.00442249
-0.00444836
-0.00446021
-0.00445813
-0.00444219
-0.00441241
-0.00436882
-0.00431138
-0.00424006
-0.0041548
-0.0040555
-0.00394201
-0.00381415
-0.00367171
-0.00351444
-0.00334207
-0.00315429
-0.00295076
-0.0027311
-0.00249486
-0.00224161
-0.00197083
-0.00168201
-0.00137458
-0.00104796
-0.000701496
-0.000334536
5.36351e-05
0.000463764
0.000896636
0.00135307
0.00183391
0.00234004
0.00287239
0.00343193
0.00401967
0.00463666
0.00528402
0.00596285
0.00667434
0.00741967
0.00820006
0.00901678
0.0098711
0.0107643
0.0116979
0.012673
0.0136912
0.0147538
0.0158622
0.0170179
0.0182223
0.0194767
0.0207827
0.0221415
0.0235545
0.025023
0.0265483
0.0281315
0.0297737
0.031476
0.0332392
0.0350641
0.0369514
0.0389015
0.0409148
0.0429913
0.0451309
0.0473333
0.0495979
0.0519236
0.0543095
0.0567538
0.0592548
0.0618102
0.0644173
0.0670731
0.0697742
0.0725165
0.0752959
0.0781074
0.0809458
0.0838053
0.0866797
0.0895624
0.0924463
0.0953239
0.0981872
0.101028
0.103838
0.106608
0.10933
0.111993
0.11459
0.11711
0.119545
0.121885
0.124124
0.126251
0.128259
0.130142
0.131893
0.133507
0.134978
0.136303
0.13748
0.138507
0.139383
0.140111
0.140691
0.141127
0.141425
0.141591
0.141632
0.141557
0.141375
0.141099
0.14074
0.140311
0.139827
0.139302
0.138751
0.138191
0.137638
0.137106
0.136613
0.136173
0.135801
0.135503
0.135277
0.000816048
0.000744679
0.000644324
0.000515167
0.000359173
0.000180433
-1.71345e-05
-0.000229842
-0.000454107
-0.000686522
-0.000923908
-0.00116336
-0.00140224
-0.0016382
-0.00186918
-0.00209341
-0.00230936
-0.00251575
-0.00271151
-0.00289578
-0.00306788
-0.00322728
-0.00337357
-0.00350646
-0.00362575
-0.0037313
-0.00382307
-0.00390103
-0.0039652
-0.0040156
-0.00405228
-0.00407528
-0.00408466
-0.00408045
-0.00406268
-0.00403134
-0.0039864
-0.0039278
-0.00385548
-0.00376935
-0.00366927
-0.00355507
-0.00342655
-0.00328346
-0.00312555
-0.00295254
-0.0027641
-0.00255988
-0.00233948
-0.00210246
-0.00184837
-0.00157671
-0.00128696
-0.000978558
-0.000650922
-0.000303426
6.45897e-05
0.000453824
0.000865008
0.00129891
0.00175632
0.00223807
0.00274502
0.00327808
0.00383818
0.00442631
0.00504349
0.0056908
0.00636931
0.00708017
0.00782451
0.00860352
0.00941842
0.0102704
0.0111609
0.012091
0.0130621
0.0140756
0.0151327
0.016235
0.0173837
0.0185801
0.0198258
0.021122
0.02247
0.0238711
0.0253266
0.0268377
0.0284056
0.0300312
0.0317156
0.0334597
0.0352641
0.0371297
0.0390567
0.0410455
0.0430962
0.0452088
0.0473828
0.0496177
0.0519126
0.0542664
0.0566777
0.0591445
0.0616648
0.0642359
0.0668551
0.0695188
0.0722234
0.0749646
0.0777377
0.0805376
0.0833588
0.0861952
0.0890402
0.0918871
0.0947284
0.0975565
0.100363
0.10314
0.105879
0.108571
0.111207
0.113777
0.116274
0.118688
0.121009
0.123231
0.125344
0.127342
0.129216
0.130962
0.132572
0.134044
0.135372
0.136555
0.13759
0.138478
0.13922
0.139817
0.140274
0.140594
0.140784
0.140851
0.140803
0.140651
0.140404
0.140075
0.139675
0.139219
0.138718
0.138188
0.137643
0.137097
0.136564
0.136056
0.135588
0.135171
0.134799
0.134459
0.00113912
0.00102571
0.000896162
0.000747052
0.000576245
0.000387346
0.000183865
-3.11378e-05
-0.000254677
-0.000483885
-0.000716082
-0.000948794
-0.00117978
-0.00140703
-0.00162878
-0.00184352
-0.0020499
-0.00224682
-0.00243335
-0.00260874
-0.0027724
-0.00292384
-0.0030627
-0.0031887
-0.00330167
-0.00340147
-0.00348804
-0.00356134
-0.00362135
-0.00366807
-0.00370152
-0.00372171
-0.00372867
-0.00372238
-0.00370283
-0.00366998
-0.00362377
-0.00356411
-0.00349092
-0.00340406
-0.00330338
-0.00318866
-0.00305969
-0.00291621
-0.00275796
-0.00258462
-0.00239588
-0.00219134
-0.00197062
-0.00173326
-0.00147882
-0.00120679
-0.00091667
-0.000607896
-0.000279887
6.7973e-05
0.000436333
0.000825878
0.00123732
0.00167141
0.00212892
0.00261066
0.00311746
0.00365021
0.00420981
0.00479723
0.00541345
0.00605951
0.00673646
0.00744538
0.00818739
0.00896364
0.00977529
0.0106235
0.0115096
0.0124348
0.0134003
0.0144075
0.0154576
0.016552
0.017692
0.0188789
0.020114
0.0213987
0.0227342
0.0241218
0.0255627
0.0270581
0.028609
0.0302166
0.0318818
0.0336054
0.0353883
0.037231
0.039134
0.0410976
0.043122
0.0452071
0.0473526
0.0495579
0.0518223
0.0541447
0.0565236
0.0589575
0.0614441
0.0639812
0.0665658
0.0691948
0.0718645
0.0745708
0.0773093
0.0800748
0.0828621
0.0856652
0.0884778
0.0912932
0.0941042
0.0969032
0.0996824
0.102434
0.105148
0.107818
0.110433
0.112985
0.115465
0.117865
0.120175
0.122387
0.124493
0.126486
0.128358
0.130104
0.131717
0.133193
0.134528
0.13572
0.136766
0.137667
0.138424
0.139038
0.139512
0.139852
0.140062
0.140151
0.140126
0.139996
0.139771
0.139463
0.139082
0.138643
0.138156
0.137635
0.137093
0.136542
0.135994
0.13546
0.134953
0.134483
0.13403
0.133572
0.00149205
0.00133356
0.0011718
0.000999735
0.000811005
0.000608766
0.000396197
0.000175783
-5.00577e-05
-0.00027896
-0.000508698
-0.000737216
-0.000962647
-0.00118333
-0.00139779
-0.00160474
-0.00180307
-0.00199185
-0.00217031
-0.00233782
-0.00249387
-0.00263807
-0.00277009
-0.00288971
-0.00299677
-0.00309116
-0.0031728
-0.00324165
-0.00329768
-0.00334088
-0.00337123
-0.00338873
-0.00339336
-0.00338509
-0.00336387
-0.00332962
-0.00328226
-0.00322168
-0.00314777
-0.00306035
-0.00295925
-0.00284423
-0.00271505
-0.00257145
-0.00241315
-0.00223981
-0.00205111
-0.00184664
-0.001626
-0.00138876
-0.00113444
-0.000862563
-0.000572614
-0.000264047
6.37167e-05
0.000411284
0.000779293
0.00116841
0.00157934
0.0020128
0.00246955
0.00295037
0.00345607
0.00398751
0.00454558
0.0051312
0.00574532
0.00638895
0.0070631
0.00776881
0.00850718
0.00927929
0.0100863
0.0109293
0.0118095
0.0127282
0.0136865
0.0146858
0.0157272
0.0168121
0.0179417
0.0191173
0.0203402
0.0216117
0.022933
0.0243054
0.02573
0.027208
0.0287405
0.0303285
0.031973
0.0336748
0.0354347
0.0372534
0.0391314
0.0410689
0.0430662
0.0451233
0.0472398
0.0494154
0.0516493
0.0539406
0.0562879
0.0586896
0.0611438
0.0636483
0.0662002
0.0687966
0.0714338
0.0741081
0.076815
0.0795498
0.0823071
0.0850812
0.0878661
0.090655
0.093441
0.0962166
0.0989741
0.101705
0.104402
0.107056
0.109657
0.112198
0.114669
0.117061
0.119366
0.121576
0.123682
0.125676
0.127552
0.129303
0.130924
0.132409
0.133755
0.134959
0.13602
0.136936
0.137708
0.138339
0.138831
0.139188
0.139417
0.139524
0.139516
0.139403
0.139194
0.138899
0.13853
0.138099
0.137616
0.137094
0.136545
0.135979
0.135407
0.134839
0.134286
0.133756
0.133219
0.132642
0.00186671
0.00166119
0.00146505
0.00126769
0.00105852
0.000840339
0.000616044
0.000387579
0.000156846
-7.42504e-05
-0.000303908
-0.000530474
-0.00075245
-0.000968491
-0.00117741
-0.00137815
-0.00156985
-0.00175176
-0.00192327
-0.00208388
-0.00223318
-0.00237086
-0.00249667
-0.00261045
-0.00271207
-0.00280143
-0.00287847
-0.00294316
-0.00299546
-0.00303533
-0.00306277
-0.00307774
-0.00308021
-0.00307011
-0.00304735
-0.00301186
-0.00296351
-0.00290219
-0.00282773
-0.00273995
-0.00263864
-0.00252355
-0.00239442
-0.00225098
-0.00209292
-0.00191991
-0.00173159
-0.00152757
-0.00130743
-0.00107073
-0.000817007
-0.000545781
-0.000256541
5.12504e-05
0.000378165
0.0007248
0.00109178
0.00147976
0.00188941
0.00232145
0.00277659
0.0032556
0.00375928
0.00428844
0.00484395
0.0054267
0.00603761
0.00667764
0.00734777
0.00804902
0.00878242
0.00954904
0.01035
0.0111863
0.0120592
0.0129699
0.0139194
0.0149091
0.0159402
0.0170139
0.0181314
0.019294
0.020503
0.0217595
0.0230649
0.0244203
0.0258269
0.0272858
0.0287981
0.030365
0.0319872
0.0336658
0.0354014
0.0371948
0.0390465
0.0409569
0.0429262
0.0449545
0.0470416
0.0491871
0.0513903
0.0536505
0.0559665
0.0583367
0.0607593
0.0632322
0.0657529
0.0683184
0.0709253
0.07357
0.0762482
0.0789552
0.081686
0.084435
0.0871961
0.0899631
0.0927288
0.0954862
0.0982274
0.100945
0.103629
0.106273
0.108867
0.111403
0.113871
0.116263
0.11857
0.120783
0.122895
0.124897
0.126782
0.128545
0.130178
0.131678
0.133039
0.13426
0.135337
0.136271
0.137061
0.137709
0.138219
0.138594
0.138839
0.138961
0.138968
0.138867
0.138668
0.138382
0.138018
0.137587
0.137101
0.13657
0.136005
0.135417
0.134814
0.134204
0.133599
0.133005
0.132383
0.13169
0.00225573
0.00200202
0.00176997
0.00154552
0.00131393
0.00107772
0.000839515
0.00060079
0.000362977
0.000127553
-0.000104089
-0.000330675
-0.000551049
-0.000764172
-0.000969127
-0.00116513
-0.00135152
-0.00152776
-0.00169339
-0.00184804
-0.00199143
-0.00212333
-0.0022436
-0.0023521
-0.00244877
-0.00253354
-0.00260637
-0.00266722
-0.00271607
-0.00275289
-0.00277765
-0.00279032
-0.00279082
-0.00277907
-0.00275497
-0.00271842
-0.00266928
-0.0026074
-0.00253261
-0.00244468
-0.00234338
-0.00222847
-0.00209966
-0.00195665
-0.00179915
-0.00162679
-0.0014392
-0.001236
-0.00101675
-0.000781019
-0.000528348
-0.000258258
2.97538e-05
0.00033622
0.000661702
0.00100679
0.00137208
0.00175823
0.00216587
0.0025957
0.00304842
0.00352476
0.0040255
0.00455144
0.00510339
0.00568222
0.00628883
0.00692412
0.00758904
0.00828458
0.00901172
0.0097715
0.010565
0.0113932
0.0122573
0.0131583
0.0140976
0.0150761
0.0160952
0.017156
0.0182597
0.0194076
0.0206008
0.0218407
0.0231283
0.024465
0.0258518
0.0272899
0.0287804
0.0303243
0.0319227
0.0335764
0.0352863
0.037053
0.0388772
0.0407592
0.0426995
0.0446981
0.0467549
0.0488697
0.051042
0.053271
0.0555556
0.0578945
0.0602861
0.0627283
0.0652188
0.0677548
0.0703331
0.0729502
0.0756019
0.0782839
0.0809911
0.0837183
0.0864594
0.0892083
0.0919582
0.0947018
0.0974317
0.10014
0.102818
0.105458
0.10805
0.110587
0.113058
0.115456
0.117771
0.119994
0.122118
0.124134
0.126036
0.127815
0.129467
0.130986
0.132367
0.133608
0.134706
0.13566
0.13647
0.137138
0.137666
0.138058
0.13832
0.138456
0.138474
0.138383
0.138191
0.137908
0.137543
0.137107
0.136611
0.136065
0.135479
0.134861
0.134221
0.133566
0.132904
0.132245
0.131538
0.130734
0.00265243
0.00234987
0.0020809
0.00182803
0.0015725
0.00131656
0.00106269
0.000811882
0.00056516
0.000323594
8.81912e-05
-0.000140126
-0.00036052
-0.000572251
-0.000774679
-0.000967272
-0.00114959
-0.00132127
-0.00148203
-0.00163165
-0.00176995
-0.00189682
-0.00201219
-0.00211602
-0.00220826
-0.0022889
-0.00235792
-0.00241531
-0.00246105
-0.00249512
-0.00251749
-0.0025281
-0.00252687
-0.0025137
-0.00248849
-0.0024511
-0.00240139
-0.00233918
-0.00226426
-0.00217641
-0.00207538
-0.00196089
-0.00183267
-0.00169039
-0.00153373
-0.00136234
-0.00117582
-0.000973795
-0.000755825
-0.000521477
-0.000270295
-1.80908e-06
0.000284479
0.000589094
0.000912585
0.00125553
0.00161851
0.00200215
0.00240708
0.00283395
0.00328346
0.00375631
0.00425324
0.00477502
0.00532244
0.00589634
0.00649757
0.007127
0.00778555
0.00847416
0.00919378
0.0099454
0.01073
0.0115487
0.0124025
0.0132925
0.0142198
0.0151856
0.016191
0.0172372
0.0183254
0.0194568
0.0206326
0.0218539
0.023122
0.0244381
0.0258034
0.0272189
0.0286858
0.0302051
0.0317779
0.0334052
0.0350876
0.0368262
0.0386214
0.0404738
0.0423838
0.0443516
0.0463773
0.0484606
0.0506013
0.0527986
0.0550517
0.0573594
0.0597202
0.0621322
0.0645932
0.0671007
0.0696517
0.0722427
0.07487
0.0775291
0.0802153
0.0829235
0.0856478
0.0883822
0.0911199
0.093854
0.0965769
0.0992808
0.101957
0.104598
0.107195
0.109738
0.112219
0.114628
0.116957
0.119197
0.121339
0.123375
0.125298
0.127101
0.128776
0.130319
0.131726
0.132991
0.134114
0.135092
0.135926
0.136615
0.137164
0.137574
0.137851
0.138001
0.13803
0.137946
0.137758
0.137475
0.137106
0.136661
0.13615
0.135583
0.13497
0.134319
0.133637
0.132932
0.132212
0.131487
0.130696
0.129786
0.00305069
0.002699
0.00239245
0.00211023
0.00182959
0.00155261
0.00128164
0.00101727
0.000760122
0.000510881
0.000270205
3.86908e-05
-0.000183136
-0.000394826
-0.000596014
-0.000786406
-0.000965773
-0.00113394
-0.00129078
-0.00143623
-0.00157025
-0.00169283
-0.00180398
-0.00190372
-0.00199208
-0.00206908
-0.00213474
-0.00218907
-0.00223207
-0.00226374
-0.00228402
-0.00229286
-0.00229016
-0.00227584
-0.00224975
-0.00221177
-0.00216173
-0.00209942
-0.00202462
-0.00193709
-0.00183657
-0.00172277
-0.00159539
-0.00145411
-0.0012986
-0.00112848
-0.000943364
-0.000742855
-0.000526529
-0.000293953
-4.46767e-05
0.000221765
0.000505861
0.000808126
0.0011291
0.00146934
0.00182941
0.00220991
0.00261144
0.00303465
0.00348019
0.00394875
0.00444102
0.00495777
0.00549973
0.00606772
0.00666253
0.00728502
0.00793606
0.00861655
0.0093274
0.0100696
0.010844
0.0116517
0.0124938
0.0133712
0.0142851
0.0152365
0.0162267
0.0172566
0.0183276
0.0194407
0.0205972
0.0217983
0.023045
0.0243388
0.0256806
0.0270717
0.0285132
0.0300061
0.0315516
0.0331506
0.034804
0.0365127
0.0382774
0.0400988
0.0419772
0.043913
0.0459064
0.0479573
0.0500655
0.0522306
0.0544517
0.0567279
0.0590578
0.0614398
0.0638718
0.0663516
0.0688761
0.0714423
0.0740465
0.0766846
0.0793519
0.0820435
0.0847537
0.0874766
0.0902056
0.0929337
0.0956537
0.0983576
0.101037
0.103684
0.10629
0.108845
0.11134
0.113767
0.116116
0.118378
0.120544
0.122607
0.124557
0.126388
0.128093
0.129667
0.131103
0.132399
0.13355
0.134557
0.135417
0.136131
0.136702
0.137133
0.137427
0.137591
0.13763
0.137553
0.137366
0.137081
0.136704
0.136247
0.135718
0.135127
0.134483
0.133794
0.133068
0.13231
0.131532
0.130739
0.129868
0.128856
0.00344488
0.00304401
0.0026995
0.00238728
0.00208067
0.00178165
0.00149246
0.00121334
0.000944509
0.000686319
0.000439102
0.000203139
-2.13466e-05
-0.00023419
-0.000435282
-0.000624558
-0.000801993
-0.000967599
-0.00112143
-0.00126355
-0.00139405
-0.00151305
-0.00162063
-0.00171689
-0.00180191
-0.00187578
-0.00193854
-0.00199025
-0.00203091
-0.00206052
-0.00207905
-0.00208643
-0.00208257
-0.00206737
-0.00204069
-0.00200238
-0.00195224
-0.00189008
-0.00181564
-0.00172868
-0.00162891
-0.00151605
-0.00138978
-0.00124978
-0.00109568
-0.000927122
-0.000743713
-0.000545048
-0.000330709
-0.000100269
0.000146715
0.000410701
0.000692169
0.000991623
0.00130958
0.00164659
0.00200319
0.00237996
0.00277747
0.00319634
0.0036372
0.0041007
0.00458753
0.00509839
0.005634
0.00619513
0.00678254
0.00739704
0.00803947
0.00871068
0.00941156
0.010143
0.010906
0.0117014
0.0125303
0.0133936
0.0142925
0.0152281
0.0162013
0.0172133
0.0182654
0.0193585
0.020494
0.0216729
0.0228966
0.0241661
0.0254826
0.0268474
0.0282616
0.0297264
0.0312427
0.0328117
0.0344344
0.0361116
0.0378441
0.0396328
0.0414781
0.0433806
0.0453404
0.0473578
0.0494326
0.0515645
0.053753
0.0559972
0.058296
0.0606478
0.063051
0.0655032
0.068002
0.0705442
0.0731265
0.0757449
0.078395
0.081072
0.0837703
0.0864843
0.0892074
0.0919329
0.0946534
0.0973611
0.100048
0.102705
0.105325
0.107897
0.110412
0.112862
0.115236
0.117526
0.119723
0.121817
0.123801
0.125667
0.127407
0.129016
0.130488
0.131819
0.133005
0.134044
0.134934
0.135677
0.136274
0.136727
0.13704
0.137219
0.137269
0.137198
0.137013
0.136723
0.136337
0.135865
0.135315
0.134697
0.13402
0.133291
0.132518
0.131707
0.130869
0.13001
0.12906
0.127951
0.00382976
0.00337985
0.0029972
0.00265453
0.00232134
0.00199953
0.00169127
0.00139644
0.00111492
0.000846737
0.000591921
0.000350444
0.000122238
-9.27995e-05
-0.000294802
-0.000483927
-0.000660353
-0.000824281
-0.000975926
-0.00111551
-0.00124324
-0.00135934
-0.00146399
-0.00155736
-0.0016396
-0.00171085
-0.00177119
-0.00182071
-0.00185944
-0.00188738
-0.00190451
-0.00191076
-0.00190605
-0.00189026
-0.00186326
-0.00182488
-0.00177491
-0.00171314
-0.0016393
-0.00155315
-0.00145438
-0.0013427
-0.00121779
-0.0010793
-0.000926884
-0.000760157
-0.000578731
-0.000382205
-0.000170167
5.78054e-05
0.000302146
0.000563304
0.000841749
0.00113797
0.00145247
0.00178576
0.00213837
0.00251085
0.00290376
0.00331767
0.00375318
0.00421093
0.00469155
0.00519573
0.00572414
0.0062775
0.00685656
0.00746208
0.00809485
0.00875569
0.00944543
0.0101649
0.0109151
0.0116969
0.0125113
0.0133591
0.0142416
0.0151596
0.0161144
0.0171069
0.0181383
0.0192097
0.0203224
0.0214775
0.0226762
0.0239196
0.0252091
0.0265457
0.0279308
0.0293654
0.0308508
0.032388
0.033978
0.035622
0.0373207
0.0390751
0.0408857
0.0427533
0.0446782
0.0466608
0.048701
0.0507987
0.0529537
0.0551651
0.0574321
0.0597535
0.0621275
0.0645524
0.0670256
0.0695443
0.0721055
0.0747052
0.0773394
0.0800032
0.0826916
0.0853988
0.0881185
0.0908441
0.0935682
0.0962832
0.098981
0.101653
0.10429
0.106884
0.109424
0.111902
0.114307
0.11663
0.118863
0.120995
0.123019
0.124925
0.126707
0.128358
0.129871
0.131242
0.132467
0.133544
0.13447
0.135245
0.135871
0.13635
0.136684
0.13688
0.136942
0.136878
0.136695
0.136401
0.136005
0.135516
0.134944
0.134297
0.133585
0.132815
0.131994
0.131128
0.130229
0.129306
0.128279
0.127078
0.0042004
0.00370169
0.00328087
0.00290751
0.00254734
0.00220219
0.0018742
0.00156292
0.0012679
0.000988893
0.000725602
0.00047771
0.000244877
2.67474e-05
-0.000177045
-0.000366875
-0.000543125
-0.000706178
-0.000856414
-0.000994192
-0.00111985
-0.0012337
-0.00133604
-0.0014271
-0.00150711
-0.00157625
-0.00163465
-0.00168243
-0.00171963
-0.00174629
-0.00176237
-0.00176783
-0.00176258
-0.00174651
-0.00171947
-0.00168128
-0.00163173
-0.00157058
-0.00149759
-0.00141246
-0.00131492
-0.00120465
-0.00108132
-0.000944576
-0.000794066
-0.000629408
-0.000450214
-0.000256088
-4.66255e-05
0.000178587
0.000419975
0.000677977
0.000953048
0.00124566
0.00155629
0.00188544
0.0022336
0.0026013
0.00298906
0.00339743
0.00382699
0.00427832
0.00475205
0.00524879
0.00576921
0.00631398
0.00688379
0.00747938
0.00810149
0.00875089
0.00942839
0.0101348
0.010871
0.0116379
0.0124364
0.0132674
0.0141319
0.015031
0.0159657
0.0169371
0.0179462
0.0189943
0.0200824
0.0212119
0.0223838
0.0235994
0.0248599
0.0261665
0.0275206
0.0289232
0.0303757
0.0318792
0.0334349
0.0350437
0.0367069
0.0384252
0.0401995
0.0420307
0.0439191
0.0458654
0.0478696
0.049932
0.0520523
0.05423
0.0564645
0.0587547
0.0610993
0.0634964
0.065944
0.0684394
0.0709798
0.0735615
0.0761806
0.0788326
0.0815124
0.0842146
0.086933
0.0896609
0.0923914
0.0951166
0.0978286
0.100519
0.103178
0.105797
0.108367
0.110878
0.113319
0.115681
0.117955
0.120131
0.1222
0.124153
0.125983
0.127681
0.129242
0.130659
0.131929
0.133049
0.134015
0.134828
0.135487
0.135995
0.136354
0.13657
0.136646
0.13659
0.136409
0.136112
0.135706
0.135201
0.134605
0.133929
0.13318
0.132367
0.131497
0.130577
0.129618
0.128631
0.12753
0.126239
0.00455211
0.00400495
0.00354604
0.00314189
0.00275449
0.00238562
0.00203741
0.00170913
0.0014
0.00110948
0.000836995
0.000581938
0.000343716
0.00012173
-8.46142e-05
-0.000275907
-0.000452728
-0.000615637
-0.000765169
-0.00090182
-0.00102605
-0.00113828
-0.00123889
-0.00132821
-0.00140651
-0.00147404
-0.00153097
-0.00157744
-0.00161353
-0.00163927
-0.00165466
-0.00165966
-0.00165419
-0.00163812
-0.00161131
-0.00157357
-0.00152467
-0.00146439
-0.00139244
-0.00130856
-0.00121245
-0.00110378
-0.000982219
-0.000847418
-0.000699012
-0.000536624
-0.000359871
-0.000168364
3.82911e-05
0.000260499
0.000498674
0.000753241
0.00102464
0.00131332
0.00161973
0.00194435
0.00228766
0.00265013
0.00303227
0.0034346
0.00385765
0.00430198
0.00476817
0.0052568
0.0057685
0.00630388
0.00686362
0.00744839
0.0080589
0.00869587
0.00936008
0.0100523
0.0107734
0.0115241
0.0123054
0.0131182
0.0139635
0.0148422
0.0157553
0.016704
0.0176893
0.0187123
0.0197743
0.0208764
0.0220197
0.0232057
0.0244354
0.0257102
0.0270314
0.0284002
0.0298179
0.0312859
0.0328052
0.0343772
0.0360029
0.0376834
0.0394197
0.0412127
0.043063
0.0449715
0.0469383
0.048964
0.0510483
0.0531913
0.0553922
0.0576504
0.0599647
0.0623336
0.0647551
0.0672271
0.0697467
0.0723107
0.0749152
0.0775561
0.0802284
0.0829269
0.0856456
0.0883779
0.0911169
0.093855
0.0965842
0.0992957
0.101981
0.10463
0.107233
0.109781
0.112264
0.11467
0.116991
0.119216
0.121336
0.123342
0.125225
0.126977
0.128591
0.130062
0.131383
0.132551
0.133563
0.134418
0.135115
0.135657
0.136045
0.136283
0.136377
0.136332
0.136155
0.135855
0.135439
0.134918
0.134299
0.133593
0.132807
0.131951
0.131033
0.130058
0.12904
0.127988
0.126815
0.125439
0.00488044
0.00428522
0.00378841
0.00335346
0.00293868
0.00254587
0.00217712
0.00183143
0.00150772
0.00120515
0.000922878
0.000660046
0.000415804
0.000189315
-2.02398e-05
-0.000213659
-0.000391713
-0.000555131
-0.000704595
-0.000840739
-0.000964143
-0.00107533
-0.00117477
-0.00126287
-0.00133998
-0.00140637
-0.00146227
-0.00150786
-0.00154322
-0.00156842
-0.00158347
-0.00158833
-0.00158293
-0.00156714
-0.00154081
-0.00150374
-0.00145572
-0.00139649
-0.00132579
-0.00124333
-0.00114881
-0.00104191
-0.000922274
-0.000789566
-0.000643416
-0.000483454
-0.000309303
-0.000120586
8.30822e-05
0.000302094
0.000536851
0.000787762
0.00105525
0.00133973
0.00164164
0.00196142
0.00229952
0.0026564
0.0030325
0.00342834
0.0038444
0.0042812
0.00473928
0.00521919
0.00572149
0.00624678
0.00679568