/*--------------------------------*- C++ -*----------------------------------*\
  =========                 |
  \\      /  F ield         | OpenFOAM: The Open Source CFD Toolbox
   \\    /   O peration     | Website:  https://openfoam.org
    \\  /    A nd           | Version:  7
     \\/     M anipulation  |
\*---------------------------------------------------------------------------*/
FoamFile
{
    version     2.0;
    format      ascii;
    class       surfaceScalarField;
    location    "0.2625";
    object      phi;
}
// * * * * * * * * * * * * * * * * * * * * * * * * * * * * * * * * * * * * * //

dimensions      [0 3 -1 0 0 0 0];

internalField   nonuniform List<scalar> 
25360
(
5.44652e-11
-5.15938e-11
1.96343e-10
-1.41875e-10
3.638e-10
-1.67442e-10
5.0839e-10
-1.446e-10
6.01775e-10
-9.33606e-11
6.27906e-10
-2.61371e-11
5.78661e-10
4.92439e-11
4.50958e-10
1.27691e-10
2.45027e-10
2.05935e-10
-3.68358e-11
2.81871e-10
-3.91e-10
3.54163e-10
-8.13001e-10
4.22002e-10
-1.2979e-09
4.84908e-10
-1.84055e-09
5.42647e-10
-2.43572e-09
5.95165e-10
-3.07827e-09
6.42549e-10
-3.76323e-09
6.84967e-10
-4.48588e-09
7.22643e-10
-5.24174e-09
7.55855e-10
-6.02665e-09
7.84915e-10
-6.8368e-09
8.10146e-10
-7.66869e-09
8.31876e-10
-8.51913e-09
8.50438e-10
-9.38528e-09
8.66159e-10
-1.02646e-08
8.79352e-10
-1.11549e-08
8.90317e-10
-1.20543e-08
8.99346e-10
-1.2961e-08
9.06709e-10
-1.38736e-08
9.12658e-10
-1.47911e-08
9.17422e-10
-1.57123e-08
9.2122e-10
-1.66365e-08
9.24252e-10
-1.75632e-08
9.26695e-10
-1.84919e-08
9.28708e-10
-1.94224e-08
9.30433e-10
-2.03544e-08
9.32004e-10
-2.12879e-08
9.33536e-10
-2.22231e-08
9.35133e-10
-2.31599e-08
9.36882e-10
-2.40988e-08
9.38861e-10
-2.50399e-08
9.41136e-10
-2.59837e-08
9.43768e-10
-2.69305e-08
9.46808e-10
-2.78808e-08
9.50299e-10
-2.88351e-08
9.54275e-10
-2.97939e-08
9.58767e-10
-3.07577e-08
9.63798e-10
-3.1727e-08
9.69387e-10
-3.27026e-08
9.75551e-10
-3.36849e-08
9.82298e-10
-3.46745e-08
9.89635e-10
-3.56721e-08
9.97563e-10
-3.66782e-08
1.00608e-09
-3.76934e-08
1.01518e-09
-3.87182e-08
1.02486e-09
-3.97533e-08
1.0351e-09
-4.07992e-08
1.04589e-09
-4.18564e-08
1.0572e-09
-4.29254e-08
1.06903e-09
-4.40068e-08
1.08133e-09
-4.51009e-08
1.09408e-09
-4.62081e-08
1.10724e-09
-4.73289e-08
1.12077e-09
-4.84635e-08
1.13462e-09
-4.96123e-08
1.14876e-09
-5.07754e-08
1.16311e-09
-5.1953e-08
1.17762e-09
-5.31452e-08
1.19221e-09
-5.4352e-08
1.20682e-09
-5.55734e-08
1.22137e-09
-5.68091e-08
1.23575e-09
-5.8059e-08
1.24988e-09
-5.93227e-08
1.26366e-09
-6.05997e-08
1.27697e-09
-6.18894e-08
1.2897e-09
-6.31911e-08
1.30171e-09
-6.4504e-08
1.31287e-09
-6.5827e-08
1.32304e-09
-6.7159e-08
1.33205e-09
-6.84988e-08
1.33974e-09
-6.98447e-08
1.34594e-09
-7.11952e-08
1.35046e-09
-7.25483e-08
1.35312e-09
-7.3902e-08
1.35371e-09
-7.5254e-08
1.35201e-09
-7.66018e-08
1.34782e-09
-7.79427e-08
1.34091e-09
-7.92738e-08
1.33103e-09
-8.05917e-08
1.31795e-09
-8.18932e-08
1.30143e-09
-8.31744e-08
1.2812e-09
-8.44314e-08
1.25703e-09
-8.566e-08
1.22864e-09
-8.68558e-08
1.19578e-09
-8.8014e-08
1.1582e-09
-8.91296e-08
1.11564e-09
-9.01975e-08
1.06785e-09
-9.12121e-08
1.01461e-09
-9.21678e-08
9.55688e-10
-9.30587e-08
8.90869e-10
-9.38786e-08
8.19964e-10
-9.46214e-08
7.42804e-10
-9.52807e-08
6.59245e-10
-9.58498e-08
5.69173e-10
-9.63224e-08
4.72509e-10
-9.66916e-08
3.69211e-10
-9.69508e-08
2.59283e-10
-9.70936e-08
1.42775e-10
-9.71134e-08
1.97927e-11
-9.70039e-08
-1.09507e-10
-9.6759e-08
-2.44896e-10
-9.63729e-08
-3.86086e-10
-9.58402e-08
-5.32718e-10
-9.51558e-08
-6.84358e-10
-9.43154e-08
-8.40494e-10
-9.33148e-08
-1.00054e-09
-9.2151e-08
-1.16382e-09
-9.08214e-08
-1.32958e-09
-8.93244e-08
-1.49699e-09
-8.76593e-08
-1.66513e-09
-8.58263e-08
-1.83301e-09
-8.38267e-08
-1.99956e-09
-8.16631e-08
-2.16365e-09
-7.9339e-08
-2.32408e-09
-7.68594e-08
-2.47961e-09
-7.42305e-08
-2.62894e-09
-7.14597e-08
-2.77074e-09
-6.8556e-08
-2.90368e-09
-6.55296e-08
-3.0264e-09
-6.23921e-08
-3.13756e-09
-5.91562e-08
-3.23586e-09
-5.58362e-08
-3.32001e-09
-5.24474e-08
-3.38882e-09
-4.90063e-08
-3.44114e-09
-4.55303e-08
-3.47593e-09
-4.20381e-08
-3.49227e-09
-3.85487e-08
-3.48935e-09
-3.50822e-08
-3.46649e-09
-3.1659e-08
-3.42318e-09
-2.83e-08
-3.35906e-09
-2.5026e-08
-3.27394e-09
-2.18582e-08
-3.1678e-09
-1.88174e-08
-3.04079e-09
-1.59242e-08
-2.89324e-09
-1.31985e-08
-2.72565e-09
-1.06598e-08
-2.53872e-09
-8.3265e-09
-2.33332e-09
-6.21598e-09
-2.11052e-09
-4.34434e-09
-1.87163e-09
-2.7261e-09
-1.61824e-09
-1.37376e-09
-1.35235e-09
-2.97232e-10
-1.07653e-09
4.97085e-10
-7.9432e-10
1.00788e-09
-5.10796e-10
1.24155e-09
-2.33671e-10
1.21699e-09
2.45592e-11
9.73616e-10
2.43381e-10
5.85639e-10
3.87983e-10
1.89222e-10
3.96417e-10
1.89222e-10
1.43974e-10
-1.95576e-10
4.11014e-10
-4.08916e-10
6.90711e-10
-4.4716e-10
9.00037e-10
-3.53928e-10
9.79857e-10
-1.73202e-10
8.91817e-10
6.19238e-11
6.13355e-10
3.27714e-10
1.33513e-10
6.07531e-10
-5.50386e-10
8.89832e-10
-1.43521e-09
1.16669e-09
-2.51381e-09
1.43275e-09
-3.7763e-09
1.68449e-09
-5.21107e-09
1.91969e-09
-6.80553e-09
2.13709e-09
-8.54655e-09
2.33618e-09
-1.04209e-08
2.51694e-09
-1.24157e-08
2.67976e-09
-1.45184e-08
2.82529e-09
-1.67169e-08
2.95441e-09
-1.90001e-08
3.06811e-09
-2.13574e-08
3.16749e-09
-2.37793e-08
3.25371e-09
-2.62568e-08
3.32793e-09
-2.87819e-08
3.39132e-09
-3.13476e-08
3.44501e-09
-3.39474e-08
3.49011e-09
-3.65757e-08
3.52767e-09
-3.92277e-08
3.55871e-09
-4.18992e-08
3.58415e-09
-4.45866e-08
3.60488e-09
-4.72871e-08
3.6217e-09
-4.99982e-08
3.63537e-09
-5.27181e-08
3.64657e-09
-5.54453e-08
3.65591e-09
-5.81789e-08
3.66396e-09
-6.09181e-08
3.67122e-09
-6.36627e-08
3.67814e-09
-6.64126e-08
3.68511e-09
-6.91683e-08
3.6925e-09
-7.193e-08
3.70061e-09
-7.46986e-08
3.70972e-09
-7.74749e-08
3.72005e-09
-8.02599e-08
3.73182e-09
-8.30548e-08
3.74519e-09
-8.58608e-08
3.76031e-09
-8.86794e-08
3.7773e-09
-9.15118e-08
3.79627e-09
-9.43597e-08
3.81728e-09
-9.72246e-08
3.8404e-09
-1.00108e-07
3.86568e-09
-1.03011e-07
3.89313e-09
-1.05937e-07
3.92276e-09
-1.08885e-07
3.95458e-09
-1.11859e-07
3.98856e-09
-1.14858e-07
4.02466e-09
-1.17886e-07
4.06283e-09
-1.20943e-07
4.10302e-09
-1.24031e-07
4.14514e-09
-1.27151e-07
4.1891e-09
-1.30305e-07
4.23479e-09
-1.33493e-07
4.28207e-09
-1.36716e-07
4.33082e-09
-1.39976e-07
4.38085e-09
-1.43274e-07
4.432e-09
-1.46609e-07
4.48405e-09
-1.49983e-07
4.53678e-09
-1.53395e-07
4.58995e-09
-1.56846e-07
4.64328e-09
-1.60336e-07
4.69647e-09
-1.63864e-07
4.7492e-09
-1.67429e-07
4.80113e-09
-1.71031e-07
4.85187e-09
-1.74668e-07
4.90102e-09
-1.78339e-07
4.94815e-09
-1.82043e-07
4.99277e-09
-1.85775e-07
5.0344e-09
-1.89535e-07
5.0725e-09
-1.93318e-07
5.1065e-09
-1.97122e-07
5.13581e-09
-2.00942e-07
5.15978e-09
-2.04774e-07
5.17775e-09
-2.08612e-07
5.18901e-09
-2.12452e-07
5.19284e-09
-2.16287e-07
5.18845e-09
-2.2011e-07
5.17505e-09
-2.23914e-07
5.15181e-09
-2.27691e-07
5.11788e-09
-2.31432e-07
5.07237e-09
-2.35129e-07
5.01437e-09
-2.3877e-07
4.94298e-09
-2.42346e-07
4.85724e-09
-2.45845e-07
4.75622e-09
-2.49256e-07
4.63897e-09
-2.52565e-07
4.50454e-09
-2.55758e-07
4.35201e-09
-2.58823e-07
4.18044e-09
-2.61744e-07
3.98897e-09
-2.64506e-07
3.77674e-09
-2.67094e-07
3.54296e-09
-2.6949e-07
3.28689e-09
-2.71678e-07
3.00786e-09
-2.7364e-07
2.70531e-09
-2.7536e-07
2.37876e-09
-2.76818e-07
2.02786e-09
-2.77998e-07
1.65238e-09
-2.78881e-07
1.25225e-09
-2.7945e-07
8.27557e-10
-2.79685e-07
3.78581e-10
-2.79571e-07
-9.42064e-11
-2.79091e-07
-5.9012e-10
-2.78227e-07
-1.10824e-09
-2.76966e-07
-1.6474e-09
-2.75293e-07
-2.20618e-09
-2.73194e-07
-2.78287e-09
-2.70659e-07
-3.37552e-09
-2.67678e-07
-3.98184e-09
-2.64242e-07
-4.59928e-09
-2.60347e-07
-5.22498e-09
-2.55988e-07
-5.85579e-09
-2.51165e-07
-6.48828e-09
-2.45879e-07
-7.11873e-09
-2.40136e-07
-7.74318e-09
-2.33942e-07
-8.3574e-09
-2.27309e-07
-8.95697e-09
-2.20251e-07
-9.53728e-09
-2.12787e-07
-1.00936e-08
-2.04936e-07
-1.0621e-08
-1.96726e-07
-1.11145e-08
-1.88183e-07
-1.15694e-08
-1.7934e-07
-1.19806e-08
-1.70232e-07
-1.23433e-08
-1.60899e-07
-1.2653e-08
-1.51383e-07
-1.29052e-08
-1.41728e-07
-1.30958e-08
-1.31983e-07
-1.32211e-08
-1.22197e-07
-1.32777e-08
-1.12424e-07
-1.32626e-08
-1.02717e-07
-1.31735e-08
-9.31318e-08
-1.30085e-08
-8.37244e-08
-1.27664e-08
-7.45518e-08
-1.24466e-08
-6.56707e-08
-1.2049e-08
-5.71372e-08
-1.15743e-08
-4.90064e-08
-1.1024e-08
-4.13319e-08
-1.04002e-08
-3.4165e-08
-9.70558e-09
-2.75544e-08
-8.94394e-09
-2.15452e-08
-8.11976e-09
-1.61782e-08
-7.23861e-09
-1.14891e-08
-6.30738e-09
-7.50669e-09
-5.33471e-09
-4.25148e-09
-4.33174e-09
-1.73253e-09
-3.31327e-09
5.64e-11
-2.29972e-09
1.14314e-09
-1.3204e-09
1.58582e-09
-4.18123e-10
1.48644e-09
3.42749e-10
1.00837e-09
8.66054e-10
3.94854e-10
1.00994e-09
5.84075e-10
1.69372e-10
-3.64934e-10
4.5086e-10
-6.90398e-10
7.0384e-10
-7.00103e-10
8.27552e-10
-4.77654e-10
7.4819e-10
-9.3847e-11
4.15075e-10
3.9503e-10
-2.03531e-10
9.46326e-10
-1.12456e-09
1.52857e-09
-2.35368e-09
2.11895e-09
-3.88811e-09
2.70112e-09
-5.71895e-09
3.2636e-09
-7.833e-09
3.79854e-09
-1.02141e-08
4.30076e-09
-1.28442e-08
4.76716e-09
-1.57041e-08
5.19617e-09
-1.87746e-08
5.58738e-09
-2.20361e-08
5.94124e-09
-2.54697e-08
6.2589e-09
-2.90572e-08
6.54194e-09
-3.27814e-08
6.7923e-09
-3.66261e-08
7.01213e-09
-4.05761e-08
7.20377e-09
-4.46177e-08
7.36957e-09
-4.87384e-08
7.51195e-09
-5.29266e-08
7.63326e-09
-5.71723e-08
7.73583e-09
-6.14665e-08
7.82188e-09
-6.58013e-08
7.89352e-09
-7.01699e-08
7.95276e-09
-7.45665e-08
8.00147e-09
-7.89862e-08
8.04139e-09
-8.3425e-08
8.07415e-09
-8.78796e-08
8.10121e-09
-9.23476e-08
8.12392e-09
-9.68272e-08
8.1435e-09
-1.01317e-07
8.16106e-09
-1.05816e-07
8.17759e-09
-1.10325e-07
8.19396e-09
-1.14844e-07
8.21096e-09
-1.19372e-07
8.22928e-09
-1.23912e-07
8.24953e-09
-1.28464e-07
8.27222e-09
-1.3303e-07
8.29783e-09
-1.37612e-07
8.32673e-09
-1.42211e-07
8.35925e-09
-1.46829e-07
8.39569e-09
-1.51469e-07
8.43624e-09
-1.56133e-07
8.48111e-09
-1.60823e-07
8.53042e-09
-1.65542e-07
8.58426e-09
-1.70291e-07
8.64271e-09
-1.75074e-07
8.70578e-09
-1.79893e-07
8.77345e-09
-1.8475e-07
8.84569e-09
-1.89648e-07
8.92241e-09
-1.94589e-07
9.0035e-09
-1.99575e-07
9.08882e-09
-2.04608e-07
9.17819e-09
-2.0969e-07
9.27138e-09
-2.14823e-07
9.36816e-09
-2.20009e-07
9.46823e-09
-2.2525e-07
9.57127e-09
-2.30546e-07
9.67689e-09
-2.35899e-07
9.7847e-09
-2.41309e-07
9.89423e-09
-2.46777e-07
1.0005e-08
-2.52303e-07
1.01164e-08
-2.57888e-07
1.02279e-08
-2.6353e-07
1.03387e-08
-2.69229e-07
1.04482e-08
-2.74984e-07
1.05557e-08
-2.80792e-07
1.06601e-08
-2.86652e-07
1.07608e-08
-2.9256e-07
1.08566e-08
-2.98514e-07
1.09465e-08
-3.04509e-07
1.10296e-08
-3.10541e-07
1.11045e-08
-3.16605e-07
1.117e-08
-3.22694e-07
1.12248e-08
-3.28801e-07
1.12676e-08
-3.34921e-07
1.12969e-08
-3.41043e-07
1.13111e-08
-3.47158e-07
1.13086e-08
-3.53258e-07
1.12878e-08
-3.5933e-07
1.1247e-08
-3.65362e-07
1.11844e-08
-3.71343e-07
1.10981e-08
-3.77256e-07
1.09862e-08
-3.83089e-07
1.08468e-08
-3.88824e-07
1.0678e-08
-3.94444e-07
1.04777e-08
-3.99932e-07
1.0244e-08
-4.05268e-07
9.97485e-09
-4.10432e-07
9.66825e-09
-4.15402e-07
9.32228e-09
-4.20157e-07
8.93502e-09
-4.24672e-07
8.50464e-09
-4.28925e-07
8.02941e-09
-4.3289e-07
7.50768e-09
-4.36541e-07
6.93798e-09
-4.39852e-07
6.31898e-09
-4.42796e-07
5.64955e-09
-4.45346e-07
4.9288e-09
-4.47474e-07
4.15608e-09
-4.49153e-07
3.33103e-09
-4.50354e-07
2.45363e-09
-4.51051e-07
1.5242e-09
-4.51216e-07
5.43459e-10
-4.50823e-07
-4.87449e-10
-4.49846e-07
-1.56692e-09
-4.48261e-07
-2.69286e-09
-4.46046e-07
-3.86265e-09
-4.43179e-07
-5.07314e-09
-4.39641e-07
-6.3206e-09
-4.35416e-07
-7.60069e-09
-4.30489e-07
-8.90849e-09
-4.2485e-07
-1.02385e-08
-4.18491e-07
-1.15845e-08
-4.11407e-07
-1.29397e-08
-4.03598e-07
-1.42969e-08
-3.95069e-07
-1.56481e-08
-3.85827e-07
-1.69848e-08
-3.75886e-07
-1.82981e-08
-3.65265e-07
-1.95787e-08
-3.53985e-07
-2.08167e-08
-3.42077e-07
-2.20021e-08
-3.29573e-07
-2.31248e-08
-3.16513e-07
-2.41742e-08
-3.02943e-07
-2.51401e-08
-2.88911e-07
-2.60122e-08
-2.74474e-07
-2.67804e-08
-2.59692e-07
-2.74351e-08
-2.4463e-07
-2.7967e-08
-2.29358e-07
-2.83676e-08
-2.1395e-07
-2.8629e-08
-1.98484e-07
-2.87441e-08
-1.8304e-07
-2.87069e-08
-1.67701e-07
-2.85124e-08
-1.52552e-07
-2.81569e-08
-1.37681e-07
-2.76377e-08
-1.23174e-07
-2.69538e-08
-1.09117e-07
-2.61053e-08
-9.55979e-08
-2.50939e-08
-8.26991e-08
-2.39228e-08
-7.05025e-08
-2.25967e-08
-5.90858e-08
-2.11223e-08
-4.85221e-08
-1.95077e-08
-3.88784e-08
-1.77635e-08
-3.02147e-08
-1.59023e-08
-2.25819e-08
-1.39401e-08
-1.602e-08
-1.18966e-08
-1.05548e-08
-9.79701e-09
-6.19404e-09
-7.67399e-09
-2.92256e-09
-5.57121e-09
-6.94576e-10
-3.54837e-09
5.75931e-10
-1.68862e-09
1.02789e-09
-1.09206e-10
8.67808e-10
1.02614e-09
3.86183e-10
1.49157e-09
9.70257e-10
1.4761e-10
-5.12568e-10
3.59717e-10
-9.02493e-10
4.83776e-10
-8.24164e-10
4.10916e-10
-4.04782e-10
6.11556e-11
2.55913e-10
-6.21605e-10
1.07778e-09
-1.67357e-09
1.9983e-09
-3.11489e-09
2.96989e-09
-4.95294e-09
3.95699e-09
-7.18516e-09
4.93334e-09
-9.8015e-09
5.87995e-09
-1.27864e-08
6.78343e-09
-1.61204e-08
7.63473e-09
-1.97813e-08
8.42811e-09
-2.37456e-08
9.16043e-09
-2.79887e-08
9.83053e-09
-3.24862e-08
1.04387e-08
-3.72139e-08
1.09866e-08
-4.21484e-08
1.14765e-08
-4.72674e-08
1.19113e-08
-5.25498e-08
1.22945e-08
-5.79759e-08
1.26299e-08
-6.35275e-08
1.29212e-08
-6.9188e-08
1.31724e-08
-7.49422e-08
1.33875e-08
-8.07766e-08
1.35702e-08
-8.6679e-08
1.37243e-08
-9.26388e-08
1.38533e-08
-9.86468e-08
1.39607e-08
-1.04695e-07
1.40496e-08
-1.10776e-07
1.41229e-08
-1.16886e-07
1.41835e-08
-1.23018e-07
1.42337e-08
-1.2917e-07
1.42761e-08
-1.35339e-07
1.43126e-08
-1.41524e-07
1.43451e-08
-1.47721e-07
1.43755e-08
-1.53933e-07
1.44052e-08
-1.60157e-07
1.44356e-08
-1.66396e-07
1.44678e-08
-1.72649e-07
1.45031e-08
-1.78919e-07
1.45422e-08
-1.85208e-07
1.4586e-08
-1.91516e-07
1.46352e-08
-1.97847e-07
1.46904e-08
-2.04203e-07
1.4752e-08
-2.10588e-07
1.48205e-08
-2.17003e-07
1.48962e-08
-2.23452e-07
1.49793e-08
-2.29937e-07
1.507e-08
-2.36463e-07
1.51684e-08
-2.43032e-07
1.52746e-08
-2.49647e-07
1.53885e-08
-2.56311e-07
1.551e-08
-2.63028e-07
1.5639e-08
-2.698e-07
1.57754e-08
-2.7663e-07
1.59188e-08
-2.8352e-07
1.60689e-08
-2.90474e-07
1.62253e-08
-2.97494e-07
1.63876e-08
-3.04581e-07
1.65553e-08
-3.11737e-07
1.67278e-08
-3.18965e-07
1.69044e-08
-3.26264e-07
1.70844e-08
-3.33637e-07
1.72669e-08
-3.41083e-07
1.74512e-08
-3.48603e-07
1.76361e-08
-3.56196e-07
1.78207e-08
-3.63861e-07
1.80037e-08
-3.71596e-07
1.81839e-08
-3.79401e-07
1.83599e-08
-3.87271e-07
1.85303e-08
-3.95203e-07
1.86934e-08
-4.03194e-07
1.88476e-08
-4.11239e-07
1.89911e-08
-4.19331e-07
1.9122e-08
-4.27465e-07
1.92382e-08
-4.35633e-07
1.93375e-08
-4.43826e-07
1.94178e-08
-4.52035e-07
1.94765e-08
-4.60249e-07
1.95112e-08
-4.68457e-07
1.95193e-08
-4.76647e-07
1.94979e-08
-4.84803e-07
1.94444e-08
-4.92912e-07
1.93556e-08
-5.00956e-07
1.92285e-08
-5.08918e-07
1.90601e-08
-5.16779e-07
1.88471e-08
-5.24518e-07
1.85863e-08
-5.32114e-07
1.82743e-08
-5.39544e-07
1.79077e-08
-5.46784e-07
1.74833e-08
-5.53806e-07
1.69976e-08
-5.60586e-07
1.64474e-08
-5.67093e-07
1.58294e-08
-5.73298e-07
1.51405e-08
-5.79171e-07
1.43777e-08
-5.8468e-07
1.35381e-08
-5.89791e-07
1.26191e-08
-5.94472e-07
1.16182e-08
-5.98686e-07
1.05335e-08
-6.024e-07
9.3631e-09
-6.05577e-07
8.10568e-09
-6.08181e-07
6.76032e-09
-6.10176e-07
5.32661e-09
-6.11528e-07
3.80468e-09
-6.12199e-07
2.19529e-09
-6.12155e-07
4.9985e-10
-6.11363e-07
-1.2795e-09
-6.0979e-07
-3.13986e-09
-6.07405e-07
-5.07747e-09
-6.0418e-07
-7.08774e-09
-6.00088e-07
-9.16514e-09
-5.95106e-07
-1.13032e-08
-5.89212e-07
-1.34944e-08
-5.8239e-07
-1.57303e-08
-5.74627e-07
-1.80015e-08
-5.65914e-07
-2.02975e-08
-5.56247e-07
-2.26067e-08
-5.45627e-07
-2.49167e-08
-5.34061e-07
-2.72142e-08
-5.21561e-07
-2.94849e-08
-5.08146e-07
-3.17136e-08
-4.9384e-07
-3.38847e-08
-4.78674e-07
-3.59818e-08
-4.62689e-07
-3.79881e-08
-4.45927e-07
-3.98864e-08
-4.28442e-07
-4.16594e-08
-4.10292e-07
-4.32898e-08
-3.91544e-07
-4.47605e-08
-3.72269e-07
-4.60546e-08
-3.52548e-07
-4.71562e-08
-3.32466e-07
-4.80499e-08
-3.12112e-07
-4.87212e-08
-2.91584e-07
-4.91573e-08
-2.70981e-07
-4.93464e-08
-2.5041e-07
-4.92785e-08
-2.29977e-07
-4.89453e-08
-2.09793e-07
-4.83407e-08
-1.8997e-07
-4.74606e-08
-1.70621e-07
-4.63031e-08
-1.51857e-07
-4.48687e-08
-1.3379e-07
-4.31608e-08
-1.16528e-07
-4.11849e-08
-1.00175e-07
-3.89496e-08
-8.48311e-08
-3.64666e-08
-7.05882e-08
-3.37506e-08
-5.75316e-08
-3.08201e-08
-4.57361e-08
-2.76978e-08
-3.52643e-08
-2.44119e-08
-2.61639e-08
-2.0997e-08
-1.84643e-08
-1.74966e-08
-1.2172e-08
-1.39662e-08
-7.26551e-09
-1.04777e-08
-3.68777e-09
-7.12612e-09
-1.33786e-09
-4.03853e-09
-6.0344e-11
-1.38672e-09
3.66903e-10
5.98891e-10
2.46701e-10
1.61178e-09
1.21696e-09
9.70546e-11
-6.09608e-10
1.78488e-10
-9.8396e-10
9.5664e-11
-7.41337e-10
-2.59824e-10
-4.92872e-11
-9.67949e-10
9.64039e-10
-2.0853e-09
2.19515e-09
-3.64888e-09
3.56187e-09
-5.67941e-09
5.00042e-09
-8.18441e-09
6.46199e-09
-1.11608e-08
7.90974e-09
-1.45973e-08
9.31642e-09
-1.84762e-08
1.06624e-08
-2.27755e-08
1.1934e-08
-2.74699e-08
1.31224e-08
-3.25319e-08
1.42224e-08
-3.79332e-08
1.52318e-08
-4.3645e-08
1.61506e-08
-4.96389e-08
1.69805e-08
-5.58873e-08
1.77248e-08
-6.23634e-08
1.83874e-08
-6.90421e-08
1.89732e-08
-7.58997e-08
1.94874e-08
-8.29141e-08
1.99357e-08
-9.00652e-08
2.03235e-08
-9.73346e-08
2.06568e-08
-1.04705e-07
2.09411e-08
-1.12163e-07
2.11818e-08
-1.19694e-07
2.13844e-08
-1.27287e-07
2.15536e-08
-1.34932e-07
2.16944e-08
-1.4262e-07
2.18111e-08
-1.50344e-07
2.19079e-08
-1.58099e-07
2.19886e-08
-1.6588e-07
2.20566e-08
-1.73683e-07
2.21152e-08
-1.81505e-07
2.21672e-08
-1.89344e-07
2.22153e-08
-1.97201e-07
2.22619e-08
-2.05074e-07
2.23089e-08
-2.12965e-07
2.23583e-08
-2.20873e-07
2.24116e-08
-2.28802e-07
2.24705e-08
-2.36752e-07
2.25359e-08
-2.44726e-07
2.26092e-08
-2.52726e-07
2.26911e-08
-2.60757e-07
2.27824e-08
-2.6882e-07
2.28838e-08
-2.76919e-07
2.29957e-08
-2.85059e-07
2.31186e-08
-2.93241e-07
2.32526e-08
-3.01471e-07
2.33981e-08
-3.09751e-07
2.35549e-08
-3.18086e-07
2.37232e-08
-3.26479e-07
2.39027e-08
-3.34933e-07
2.40933e-08
-3.43452e-07
2.42946e-08
-3.5204e-07
2.45063e-08
-3.60699e-07
2.47277e-08
-3.69432e-07
2.49584e-08
-3.78242e-07
2.51975e-08
-3.87131e-07
2.54444e-08
-3.96101e-07
2.5698e-08
-4.05154e-07
2.59574e-08
-4.14291e-07
2.62214e-08
-4.23513e-07
2.64887e-08
-4.3282e-07
2.6758e-08
-4.42211e-07
2.70277e-08
-4.51687e-07
2.72961e-08
-4.61245e-07
2.75615e-08
-4.70883e-07
2.78218e-08
-4.80598e-07
2.80751e-08
-4.90386e-07
2.83189e-08
-5.00244e-07
2.8551e-08
-5.10165e-07
2.87686e-08
-5.20143e-07
2.89691e-08
-5.3017e-07
2.91494e-08
-5.40239e-07
2.93066e-08
-5.50338e-07
2.94372e-08
-5.60459e-07
2.95379e-08
-5.70587e-07
2.96049e-08
-5.8071e-07
2.96346e-08
-5.90814e-07
2.96229e-08
-6.00882e-07
2.95656e-08
-6.10896e-07
2.94585e-08
-6.20837e-07
2.92972e-08
-6.30686e-07
2.9077e-08
-6.40419e-07
2.87933e-08
-6.50013e-07
2.84413e-08
-6.59443e-07
2.80162e-08
-6.68682e-07
2.75129e-08
-6.77701e-07
2.69265e-08
-6.8647e-07
2.62522e-08
-6.94957e-07
2.54849e-08
-7.03129e-07
2.46197e-08
-7.10952e-07
2.36521e-08
-7.18389e-07
2.25774e-08
-7.25402e-07
2.13911e-08
-7.31953e-07
2.00894e-08
-7.38003e-07
1.86683e-08
-7.43509e-07
1.71245e-08
-7.4843e-07
1.5455e-08
-7.52725e-07
1.36575e-08
-7.56349e-07
1.17302e-08
-7.59261e-07
9.67198e-09
-7.61417e-07
7.48242e-09
-7.62774e-07
5.162e-09
-7.63291e-07
2.71212e-09
-7.62926e-07
1.35161e-10
-7.6164e-07
-2.56543e-09
-7.59395e-07
-5.38505e-09
-7.56155e-07
-8.31787e-09
-7.51886e-07
-1.13568e-08
-7.46557e-07
-1.44933e-08
-7.40143e-07
-1.77176e-08
-7.32619e-07
-2.10183e-08
-7.23967e-07
-2.43828e-08
-7.14172e-07
-2.77966e-08
-7.03225e-07
-3.12443e-08
-6.91123e-07
-3.47085e-08
-6.77869e-07
-3.81707e-08
-6.63472e-07
-4.16111e-08
-6.47949e-07
-4.50083e-08
-6.31322e-07
-4.83402e-08
-6.13623e-07
-5.15834e-08
-5.94891e-07
-5.47138e-08
-5.75173e-07
-5.77064e-08
-5.54524e-07
-6.0536e-08
-5.33006e-07
-6.31771e-08
-5.10692e-07
-6.56042e-08
-4.8766e-07
-6.7792e-08
-4.63998e-07
-6.97161e-08
-4.39802e-07
-7.13527e-08
-4.15173e-07
-7.26792e-08
-3.90219e-07
-7.36747e-08
-3.65057e-07
-7.43199e-08
-3.39805e-07
-7.45978e-08
-3.1459e-07
-7.44936e-08
-2.8954e-07
-7.39954e-08
-2.64787e-07
-7.30941e-08
-2.40463e-07
-7.17839e-08
-2.16704e-07
-7.00622e-08
-1.93643e-07
-6.79303e-08
-1.7141e-07
-6.5393e-08
-1.50136e-07
-6.24595e-08
-1.29942e-07
-5.91429e-08
-1.10948e-07
-5.54612e-08
-9.32611e-08
-5.14373e-08
-7.69815e-08
-4.70997e-08
-6.2196e-08
-4.24833e-08
-4.89767e-08
-3.76312e-08
-3.7378e-08
-3.25958e-08
-2.74326e-08
-2.7442e-08
-1.91476e-08
-2.22512e-08
-1.24993e-08
-1.71261e-08
-7.42651e-09
-1.21989e-08
-3.82441e-09
-7.64063e-09
-1.53597e-09
-3.67516e-09
-3.43613e-10
-5.93469e-10
4.12369e-11
1.22693e-09
1.2582e-09
2.90622e-11
-6.38671e-10
-6.287e-11
-8.92019e-10
-4.10495e-10
-3.93723e-10
-1.1147e-09
6.54911e-10
-2.25051e-09
2.09986e-09
-3.87118e-09
3.81581e-09
-6.0114e-09
5.70208e-09
-8.69022e-09
7.67925e-09
-1.19137e-08
9.68545e-09
-1.56772e-08
1.16732e-08
-1.99676e-08
1.36068e-08
-2.47652e-08
1.546e-08
-3.00455e-08
1.72143e-08
-3.57803e-08
1.88572e-08
-4.19391e-08
2.03813e-08
-4.84902e-08
2.1783e-08
-5.54015e-08
2.30618e-08
-6.26407e-08
2.42198e-08
-7.01767e-08
2.52608e-08
-7.79791e-08
2.61899e-08
-8.60193e-08
2.70134e-08
-9.427e-08
2.77382e-08
-1.02706e-07
2.83717e-08
-1.11304e-07
2.89215e-08
-1.20043e-07
2.93953e-08
-1.28902e-07
2.98008e-08
-1.37866e-07
3.01453e-08
-1.46917e-07
3.04361e-08
-1.56044e-07
3.068e-08
-1.65233e-07
3.08836e-08
-1.74475e-07
3.1053e-08
-1.83761e-07
3.11938e-08
-1.93083e-07
3.13113e-08
-2.02437e-07
3.14105e-08
-2.11818e-07
3.14957e-08
-2.21222e-07
3.15711e-08
-2.30647e-07
3.16402e-08
-2.40091e-07
3.17064e-08
-2.49555e-07
3.17726e-08
-2.59038e-07
3.18415e-08
-2.68542e-07
3.19153e-08
-2.78067e-07
3.19961e-08
-2.87617e-07
3.20857e-08
-2.97193e-07
3.21855e-08
-3.06799e-07
3.2297e-08
-3.16438e-07
3.24211e-08
-3.26113e-07
3.25588e-08
-3.35828e-07
3.27108e-08
-3.45587e-07
3.28776e-08
-3.55394e-07
3.30597e-08
-3.65253e-07
3.32572e-08
-3.75169e-07
3.34703e-08
-3.85145e-07
3.36989e-08
-3.95185e-07
3.39428e-08
-4.05293e-07
3.42018e-08
-4.15474e-07
3.44752e-08
-4.2573e-07
3.47626e-08
-4.36066e-07
3.50632e-08
-4.46483e-07
3.53762e-08
-4.56986e-07
3.57004e-08
-4.67577e-07
3.60348e-08
-4.78257e-07
3.63781e-08
-4.89028e-07
3.67287e-08
-4.99892e-07
3.7085e-08
-5.10848e-07
3.74452e-08
-5.21898e-07
3.78073e-08
-5.33039e-07
3.81692e-08
-5.44271e-07
3.85283e-08
-5.55592e-07
3.88823e-08
-5.66998e-07
3.92282e-08
-5.78486e-07
3.95631e-08
-5.90051e-07
3.98838e-08
-6.01687e-07
4.01868e-08
-6.13387e-07
4.04685e-08
-6.25143e-07
4.0725e-08
-6.36946e-07
4.09522e-08
-6.48785e-07
4.11456e-08
-6.60648e-07
4.13007e-08
-6.72523e-07
4.14127e-08
-6.84394e-07
4.14763e-08
-6.96246e-07
4.14864e-08
-7.08061e-07
4.14374e-08
-7.19819e-07
4.13235e-08
-7.31499e-07
4.11387e-08
-7.43079e-07
4.0877e-08
-7.54534e-07
4.0532e-08
-7.65838e-07
4.00973e-08
-7.76962e-07
3.95662e-08
-7.87878e-07
3.8932e-08
-7.98554e-07
3.81881e-08
-8.08955e-07
3.73276e-08
-8.19046e-07
3.63439e-08
-8.28792e-07
3.52302e-08
-8.38152e-07
3.398e-08
-8.47087e-07
3.25868e-08
-8.55554e-07
3.10446e-08
-8.6351e-07
2.93476e-08
-8.70911e-07
2.74903e-08
-8.77711e-07
2.54677e-08
-8.83862e-07
2.32755e-08
-8.89317e-07
2.09099e-08
-8.94027e-07
1.83678e-08
-8.97944e-07
1.56472e-08
-9.01018e-07
1.27467e-08
-9.03202e-07
9.66627e-09
-9.04447e-07
6.40679e-09
-9.04706e-07
2.97052e-09
-9.03931e-07
-6.38922e-10
-9.0208e-07
-4.41646e-09
-8.9911e-07
-8.35544e-09
-8.9498e-07
-1.24475e-08
-8.89654e-07
-1.66827e-08
-8.83099e-07
-2.10489e-08
-8.75284e-07
-2.55325e-08
-8.66184e-07
-3.01178e-08
-8.5578e-07
-3.47868e-08
-8.44057e-07
-3.95201e-08
-8.31005e-07
-4.42959e-08
-8.16623e-07
-4.90906e-08
-8.00915e-07
-5.38786e-08
-7.83894e-07
-5.86327e-08
-7.65578e-07
-6.3324e-08
-7.45996e-07
-6.79218e-08
-7.25186e-07
-7.23943e-08
-7.03191e-07
-7.67087e-08
-6.80066e-07
-8.0831e-08
-6.55875e-07
-8.47268e-08
-6.30691e-07
-8.83614e-08
-6.04595e-07
-9.17001e-08
-5.77679e-07
-9.47086e-08
-5.50041e-07
-9.73537e-08
-5.21791e-07
-9.96029e-08
-4.93044e-07
-1.01426e-07
-4.63925e-07
-1.02794e-07
-4.34564e-07
-1.03681e-07
-4.05099e-07
-1.04064e-07
-3.7567e-07
-1.03922e-07
-3.46425e-07
-1.0324e-07
-3.17513e-07
-1.02006e-07
-2.89085e-07
-1.00211e-07
-2.61294e-07
-9.78531e-08
-2.34292e-07
-9.49332e-08
-2.08226e-07
-9.14587e-08
-1.83243e-07
-8.74425e-08
-1.59482e-07
-8.29035e-08
-1.37077e-07
-7.78668e-08
-1.16149e-07
-7.23648e-08
-9.68115e-08
-6.64375e-08
-7.91607e-08
-6.01341e-08
-6.32777e-08
-5.35142e-08
-4.92233e-08
-4.66501e-08
-3.70352e-08
-3.96301e-08
-2.67234e-08
-3.2563e-08
-1.82663e-08
-2.55832e-08
-1.16056e-08
-1.88595e-08
-6.64147e-09
-1.26048e-08
-3.2268e-09
-7.08983e-09
-1.16276e-09
-2.65751e-09
-1.93724e-10
2.57902e-10
1.06447e-09
-4.93788e-11
-5.89284e-10
-3.43616e-10
-5.97779e-10
-9.97886e-10
2.60544e-10
-2.10064e-09
1.75768e-09
-3.7181e-09
3.71732e-09
-5.89703e-09
5.99474e-09
-8.6673e-09
8.47235e-09
-1.20442e-08
1.10562e-08
-1.60309e-08
1.36721e-08
-2.06199e-08
1.62623e-08
-2.57958e-08
1.87827e-08
-3.15364e-08
2.12006e-08
-3.78145e-08
2.34924e-08
-4.45993e-08
2.5642e-08
-5.18576e-08
2.76395e-08
-5.95546e-08
2.94799e-08
-6.7655e-08
3.11623e-08
-7.61239e-08
3.26886e-08
-8.49265e-08
3.40634e-08
-9.40297e-08
3.52931e-08
-1.03402e-07
3.63853e-08
-1.13012e-07
3.73487e-08
-1.22833e-07
3.81927e-08
-1.32839e-07
3.89269e-08
-1.43004e-07
3.95611e-08
-1.53309e-07
4.01052e-08
-1.63732e-07
4.05688e-08
-1.74257e-07
4.0961e-08
-1.84868e-07
4.12908e-08
-1.95551e-07
4.15668e-08
-2.06295e-07
4.17968e-08
-2.1709e-07
4.19884e-08
-2.27927e-07
4.21484e-08
-2.38799e-07
4.22832e-08
-2.49702e-07
4.23988e-08
-2.60632e-07
4.25004e-08
-2.71584e-07
4.25929e-08
-2.82559e-07
4.26807e-08
-2.93554e-07
4.27677e-08
-3.0457e-07
4.28573e-08
-3.15607e-07
4.29528e-08
-3.26668e-07
4.30567e-08
-3.37754e-07
4.31716e-08
-3.48868e-07
4.32993e-08
-3.60012e-07
4.34417e-08
-3.71191e-07
4.36003e-08
-3.82409e-07
4.37762e-08
-3.93668e-07
4.39704e-08
-4.04974e-07
4.41837e-08
-4.16331e-07
4.44165e-08
-4.27743e-07
4.46693e-08
-4.39215e-07
4.4942e-08
-4.50751e-07
4.52347e-08
-4.62355e-07
4.55471e-08
-4.74032e-07
4.58787e-08
-4.85786e-07
4.6229e-08
-4.9762e-07
4.6597e-08
-5.09539e-07
4.69818e-08
-5.21545e-07
4.73823e-08
-5.33641e-07
4.7797e-08
-5.45831e-07
4.82243e-08
-5.58115e-07
4.86624e-08
-5.70496e-07
4.91095e-08
-5.82974e-07
4.95631e-08
-5.9555e-07
5.00209e-08
-6.08222e-07
5.04801e-08
-6.20991e-07
5.09379e-08
-6.33854e-07
5.1391e-08
-6.46808e-07
5.18359e-08
-6.59848e-07
5.2269e-08
-6.72972e-07
5.26862e-08
-6.86171e-07
5.30833e-08
-6.9944e-07
5.34555e-08
-7.12769e-07
5.37981e-08
-7.2615e-07
5.41059e-08
-7.39571e-07
5.43733e-08
-7.5302e-07
5.45946e-08
-7.66483e-07
5.47637e-08
-7.79945e-07
5.48741e-08
-7.93387e-07
5.49191e-08
-8.06793e-07
5.48917e-08
-8.2014e-07
5.47846e-08
-8.33407e-07
5.45904e-08
-8.46569e-07
5.43011e-08
-8.59601e-07
5.39087e-08
-8.72474e-07
5.3405e-08
-8.85158e-07
5.27816e-08
-8.97622e-07
5.20299e-08
-9.09831e-07
5.11412e-08
-9.2175e-07
5.01069e-08
-9.3334e-07
4.89181e-08
-9.44563e-07
4.75662e-08
-9.55375e-07
4.60427e-08
-9.65735e-07
4.43392e-08
-9.75595e-07
4.24474e-08
-9.8491e-07
4.03598e-08
-9.93632e-07
3.80688e-08
-1.00171e-06
3.55678e-08
-1.00909e-06
3.28506e-08
-1.01573e-06
2.99117e-08
-1.02156e-06
2.67465e-08
-1.02655e-06
2.33515e-08
-1.03063e-06
1.97243e-08
-1.03374e-06
1.58636e-08
-1.03585e-06
1.17696e-08
-1.03688e-06
7.44392e-09
-1.0368e-06
2.8899e-09
-1.03555e-06
-1.88738e-09
-1.03309e-06
-6.88093e-09
-1.02936e-06
-1.20817e-08
-1.02433e-06
-1.74785e-08
-1.01796e-06
-2.3058e-08
-1.0102e-06
-2.88044e-08
-1.00103e-06
-3.46993e-08
-9.9043e-07
-4.07223e-08
-9.78367e-07
-4.68501e-08
-9.6483e-07
-5.30569e-08
-9.49812e-07
-5.93144e-08
-9.3331e-07
-6.55921e-08
-9.15332e-07
-7.18568e-08
-8.95892e-07
-7.8073e-08
-8.75012e-07
-8.42033e-08
-8.52726e-07
-9.02083e-08
-8.29073e-07
-9.60468e-08
-8.04106e-07
-1.01676e-07
-7.77884e-07
-1.07053e-07
-7.50477e-07
-1.12133e-07
-7.21968e-07
-1.16871e-07
-6.92446e-07
-1.21222e-07
-6.62011e-07
-1.25143e-07
-6.30774e-07
-1.28591e-07
-5.98854e-07
-1.31523e-07
-5.66379e-07
-1.33901e-07
-5.33485e-07
-1.35687e-07
-5.00317e-07
-1.36849e-07
-4.67025e-07
-1.37356e-07
-4.33765e-07
-1.37182e-07
-4.00698e-07
-1.36307e-07
-3.6799e-07
-1.34715e-07
-3.35806e-07
-1.32395e-07
-3.04314e-07
-1.29345e-07
-2.73681e-07
-1.25566e-07
-2.4407e-07
-1.21069e-07
-2.15642e-07
-1.1587e-07
-1.88551e-07
-1.09995e-07
-1.62942e-07
-1.03476e-07
-1.38951e-07
-9.63563e-08
-1.16699e-07
-8.86891e-08
-9.62949e-08
-8.05383e-08
-7.78272e-08
-7.19818e-08
-6.13644e-08
-6.31129e-08
-4.69503e-08
-5.40442e-08
-3.46013e-08
-4.4912e-08
-2.43022e-08
-3.58823e-08
-1.60034e-08
-2.71584e-08
-9.61691e-09
-1.89913e-08
-5.01437e-09
-1.16924e-08
-2.02525e-09
-5.64662e-09
-4.37327e-10
-1.33002e-09
6.27147e-10
-1.33922e-10
-4.55371e-10
-6.49586e-10
-8.21078e-11
-1.6401e-09
1.25107e-09
-3.17833e-09
3.2959e-09
-5.31878e-09
5.85776e-09
-8.09929e-09
8.77526e-09
-1.15428e-08
1.19159e-08
-1.56592e-08
1.51726e-08
-2.0447e-08
1.84599e-08
-2.58952e-08
2.17105e-08
-3.1985e-08
2.48725e-08
-3.86911e-08
2.79068e-08
-4.59837e-08
3.07849e-08
-5.3829e-08
3.34873e-08
-6.21912e-08
3.60016e-08
-7.10326e-08
3.83214e-08
-8.03153e-08
4.0445e-08
-9.00014e-08
4.23747e-08
-1.00054e-07
4.41157e-08
-1.10436e-07
4.56754e-08
-1.21114e-07
4.70631e-08
-1.32055e-07
4.82895e-08
-1.43228e-07
4.93657e-08
-1.54604e-07
5.03037e-08
-1.66159e-07
5.11155e-08
-1.77867e-07
5.18132e-08
-1.89707e-07
5.24088e-08
-2.01659e-07
5.29136e-08
-2.13708e-07
5.33389e-08
-2.25836e-07
5.36952e-08
-2.38032e-07
5.39925e-08
-2.50283e-07
5.42401e-08
-2.62582e-07
5.44468e-08
-2.74919e-07
5.46206e-08
-2.87289e-07
5.4769e-08
-2.99687e-07
5.48986e-08
-3.1211e-07
5.50157e-08
-3.24555e-07
5.51259e-08
-3.37022e-07
5.5234e-08
-3.49509e-07
5.53446e-08
-3.62018e-07
5.54616e-08
-3.7455e-07
5.55886e-08
-3.87107e-07
5.57284e-08
-3.99691e-07
5.58839e-08
-4.12307e-07
5.60572e-08
-4.24957e-07
5.62502e-08
-4.37645e-07
5.64645e-08
-4.50376e-07
5.67014e-08
-4.63154e-07
5.69617e-08
-4.75984e-07
5.72462e-08
-4.8887e-07
5.75552e-08
-5.01817e-07
5.7889e-08
-5.14829e-07
5.82474e-08