/*--------------------------------*- C++ -*----------------------------------*\
  =========                 |
  \\      /  F ield         | OpenFOAM: The Open Source CFD Toolbox
   \\    /   O peration     | Website:  https://openfoam.org
    \\  /    A nd           | Version:  7
     \\/     M anipulation  |
\*---------------------------------------------------------------------------*/
FoamFile
{
    version     2.0;
    format      ascii;
    class       volVectorField;
    location    "0.2625";
    object      U;
}
// * * * * * * * * * * * * * * * * * * * * * * * * * * * * * * * * * * * * * //

dimensions      [0 1 -1 0 0 0 0];

internalField   nonuniform List<vector> 
12800
(
(3.54069e-06 -3.21445e-06 0)
(1.8811e-05 -9.769e-06 0)
(4.48432e-05 -1.20596e-05 0)
(7.11043e-05 -1.10924e-05 0)
(9.09425e-05 -8.34434e-06 0)
(0.000100946 -4.70193e-06 0)
(9.93237e-05 -6.71693e-07 0)
(8.52464e-05 3.44813e-06 0)
(5.8535e-05 7.48445e-06 0)
(1.94231e-05 1.13373e-05 0)
(-3.15926e-05 1.49511e-05 0)
(-9.38478e-05 1.82972e-05 0)
(-0.000166578 2.1361e-05 0)
(-0.000248968 2.41391e-05 0)
(-0.000340182 2.66367e-05 0)
(-0.000439385 2.88651e-05 0)
(-0.000545766 3.0838e-05 0)
(-0.000658547 3.25708e-05 0)
(-0.000776989 3.40806e-05 0)
(-0.000900402 3.53853e-05 0)
(-0.00102815 3.65038e-05 0)
(-0.00115964 3.74537e-05 0)
(-0.00129434 3.82525e-05 0)
(-0.00143177 3.89174e-05 0)
(-0.0015715 3.94646e-05 0)
(-0.00171316 3.99093e-05 0)
(-0.0018564 4.02664e-05 0)
(-0.00200094 4.0549e-05 0)
(-0.00214654 4.07691e-05 0)
(-0.00229299 4.09376e-05 0)
(-0.00244012 4.10654e-05 0)
(-0.00258779 4.11623e-05 0)
(-0.00273588 4.12366e-05 0)
(-0.00288433 4.12951e-05 0)
(-0.00303307 4.13445e-05 0)
(-0.00318207 4.13907e-05 0)
(-0.00333132 4.14392e-05 0)
(-0.00348081 4.14948e-05 0)
(-0.00363056 4.15613e-05 0)
(-0.00378061 4.16422e-05 0)
(-0.003931 4.17401e-05 0)
(-0.00408178 4.18575e-05 0)
(-0.00423301 4.19965e-05 0)
(-0.00438476 4.2159e-05 0)
(-0.00453711 4.23467e-05 0)
(-0.00469013 4.25609e-05 0)
(-0.00484392 4.28025e-05 0)
(-0.00499855 4.30721e-05 0)
(-0.00515413 4.33703e-05 0)
(-0.00531073 4.36974e-05 0)
(-0.00546846 4.40537e-05 0)
(-0.00562742 4.44394e-05 0)
(-0.00578769 4.48546e-05 0)
(-0.00594937 4.52989e-05 0)
(-0.00611255 4.57717e-05 0)
(-0.00627733 4.62723e-05 0)
(-0.00644378 4.68002e-05 0)
(-0.00661201 4.73548e-05 0)
(-0.00678209 4.79353e-05 0)
(-0.00695411 4.85405e-05 0)
(-0.00712812 4.91691e-05 0)
(-0.00730421 4.98193e-05 0)
(-0.00748244 5.04896e-05 0)
(-0.00766286 5.11779e-05 0)
(-0.00784553 5.18822e-05 0)
(-0.00803047 5.26002e-05 0)
(-0.00821772 5.33291e-05 0)
(-0.00840731 5.4066e-05 0)
(-0.00859924 5.48078e-05 0)
(-0.0087935 5.55506e-05 0)
(-0.00899008 5.62905e-05 0)
(-0.00918894 5.70233e-05 0)
(-0.00939004 5.77445e-05 0)
(-0.00959332 5.84492e-05 0)
(-0.00979868 5.91319e-05 0)
(-0.010006 5.97869e-05 0)
(-0.0102152 6.04078e-05 0)
(-0.0104261 6.09881e-05 0)
(-0.0106386 6.15205e-05 0)
(-0.0108524 6.19975e-05 0)
(-0.0110673 6.2411e-05 0)
(-0.0112831 6.27524e-05 0)
(-0.0114995 6.30128e-05 0)
(-0.0117161 6.31827e-05 0)
(-0.0119327 6.32521e-05 0)
(-0.0121487 6.32106e-05 0)
(-0.012364 6.30473e-05 0)
(-0.0125778 6.27509e-05 0)
(-0.0127899 6.23098e-05 0)
(-0.0129996 6.17121e-05 0)
(-0.0132063 6.09454e-05 0)
(-0.0134095 5.99971e-05 0)
(-0.0136086 5.88542e-05 0)
(-0.0138027 5.75038e-05 0)
(-0.0139912 5.59332e-05 0)
(-0.0141733 5.41294e-05 0)
(-0.0143482 5.20798e-05 0)
(-0.014515 4.9772e-05 0)
(-0.0146728 4.71941e-05 0)
(-0.0148208 4.43347e-05 0)
(-0.0149579 4.11835e-05 0)
(-0.0150832 3.77308e-05 0)
(-0.0151956 3.39684e-05 0)
(-0.0152941 2.98892e-05 0)
(-0.0153777 2.54876e-05 0)
(-0.0154453 2.076e-05 0)
(-0.0154958 1.57047e-05 0)
(-0.0155282 1.03224e-05 0)
(-0.0155414 4.61625e-06 0)
(-0.0155345 -1.4074e-06 0)
(-0.0155064 -7.73981e-06 0)
(-0.0154561 -1.43687e-05 0)
(-0.0153828 -2.12782e-05 0)
(-0.0152856 -2.84488e-05 0)
(-0.0151638 -3.5857e-05 0)
(-0.0150166 -4.34755e-05 0)
(-0.0148436 -5.12727e-05 0)
(-0.0146442 -5.9213e-05 0)
(-0.0144181 -6.72562e-05 0)
(-0.0141651 -7.53581e-05 0)
(-0.0138852 -8.34704e-05 0)
(-0.0135785 -9.1541e-05 0)
(-0.0132453 -9.9514e-05 0)
(-0.0128862 -0.00010733 0)
(-0.0125016 -0.000114928 0)
(-0.0120927 -0.000122243 0)
(-0.0116604 -0.000129208 0)
(-0.0112061 -0.000135756 0)
(-0.0107313 -0.00014182 0)
(-0.0102377 -0.000147331 0)
(-0.00972729 -0.000152223 0)
(-0.00920226 -0.000156432 0)
(-0.00866495 -0.000159895 0)
(-0.00811791 -0.000162555 0)
(-0.00756386 -0.000164359 0)
(-0.00700569 -0.000165258 0)
(-0.00644642 -0.000165212 0)
(-0.00588919 -0.000164185 0)
(-0.00533724 -0.00016215 0)
(-0.00479388 -0.000159087 0)
(-0.00426244 -0.000154986 0)
(-0.00374632 -0.000149843 0)
(-0.00324885 -0.000143662 0)
(-0.00277337 -0.000136457 0)
(-0.00232313 -0.000128247 0)
(-0.00190127 -0.00011906 0)
(-0.00151085 -0.00010893 0)
(-0.00115473 -9.78987e-05 0)
(-0.000835602 -8.60127e-05 0)
(-0.000555936 -7.33297e-05 0)
(-0.000317911 -5.99197e-05 0)
(-0.00012335 -4.58754e-05 0)
(2.63923e-05 -3.13309e-05 0)
(0.000130622 -1.64993e-05 0)
(0.000189629 -1.74968e-06 0)
(0.000205242 1.22305e-05 0)
(0.000181675 2.41827e-05 0)
(0.000127378 3.16693e-05 0)
(6.07715e-05 3.01439e-05 0)
(1.37971e-05 1.38178e-05 0)
(1.00328e-05 -1.84692e-05 0)
(4.24676e-05 -4.20177e-05 0)
(8.90983e-05 -4.8058e-05 0)
(0.000131224 -4.08307e-05 0)
(0.000156239 -2.52091e-05 0)
(0.000156712 -4.63733e-06 0)
(0.000128029 1.85629e-05 0)
(6.76346e-05 4.28436e-05 0)
(-2.54647e-05 6.71767e-05 0)
(-0.000151152 9.08857e-05 0)
(-0.000308546 0.000113533 0)
(-0.000496241 0.000134844 0)
(-0.000712486 0.000154653 0)
(-0.000955319 0.000172875 0)
(-0.00122266 0.000189483 0)
(-0.0015124 0.000204496 0)
(-0.00182243 0.00021796 0)
(-0.00215071 0.000229941 0)
(-0.00249525 0.000240522 0)
(-0.00285422 0.000249799 0)
(-0.00322585 0.000257868 0)
(-0.00360855 0.000264832 0)
(-0.00400083 0.000270795 0)
(-0.00440134 0.000275857 0)
(-0.00480887 0.000280117 0)
(-0.00522234 0.00028367 0)
(-0.0056408 0.000286605 0)
(-0.0060634 0.000289009 0)
(-0.00648943 0.00029096 0)
(-0.00691828 0.000292531 0)
(-0.00734942 0.00029379 0)
(-0.00778243 0.000294802 0)
(-0.00821698 0.000295621 0)
(-0.0086528 0.000296299 0)
(-0.00908969 0.000296882 0)
(-0.00952753 0.000297411 0)
(-0.00996624 0.000297923 0)
(-0.0104058 0.000298451 0)
(-0.0108462 0.000299023 0)
(-0.0112876 0.000299665 0)
(-0.01173 0.000300398 0)
(-0.0121736 0.00030124 0)
(-0.0126184 0.000302209 0)
(-0.0130648 0.000303318 0)
(-0.0135128 0.000304578 0)
(-0.0139627 0.000306 0)
(-0.0144147 0.00030759 0)
(-0.0148691 0.000309356 0)
(-0.0153261 0.000311302 0)
(-0.0157858 0.00031343 0)
(-0.0162487 0.000315744 0)
(-0.016715 0.000318243 0)
(-0.0171848 0.000320928 0)
(-0.0176585 0.000323796 0)
(-0.0181363 0.000326846 0)
(-0.0186184 0.000330071 0)
(-0.0191052 0.000333469 0)
(-0.0195967 0.000337032 0)
(-0.0200933 0.000340753 0)
(-0.0205951 0.000344624 0)
(-0.0211024 0.000348635 0)
(-0.0216153 0.000352773 0)
(-0.022134 0.000357026 0)
(-0.0226585 0.000361379 0)
(-0.0231891 0.000365817 0)
(-0.0237258 0.00037032 0)
(-0.0242687 0.00037487 0)
(-0.0248178 0.000379445 0)
(-0.0253731 0.000384019 0)
(-0.0259345 0.000388569 0)
(-0.026502 0.000393064 0)
(-0.0270754 0.000397474 0)
(-0.0276546 0.000401768 0)
(-0.0282394 0.000405908 0)
(-0.0288294 0.000409857 0)
(-0.0294243 0.000413575 0)
(-0.0300238 0.000417017 0)
(-0.0306274 0.000420137 0)
(-0.0312346 0.000422886 0)
(-0.0318446 0.000425211 0)
(-0.032457 0.000427057 0)
(-0.0330708 0.000428366 0)
(-0.0336853 0.000429077 0)
(-0.0342995 0.000429126 0)
(-0.0349124 0.000428447 0)
(-0.0355229 0.00042697 0)
(-0.0361297 0.000424623 0)
(-0.0367315 0.000421334 0)
(-0.0373269 0.000417025 0)
(-0.0379144 0.00041162 0)
(-0.0384922 0.000405038 0)
(-0.0390587 0.0003972 0)
(-0.0396119 0.000388025 0)
(-0.04015 0.000377433 0)
(-0.0406707 0.000365343 0)
(-0.041172 0.000351676 0)
(-0.0416514 0.000336357 0)
(-0.0421067 0.00031931 0)
(-0.0425353 0.000300467 0)
(-0.0429346 0.000279762 0)
(-0.043302 0.000257136 0)
(-0.0436347 0.000232537 0)
(-0.04393 0.000205921 0)
(-0.0441849 0.000177253 0)
(-0.0443967 0.000146511 0)
(-0.0445625 0.000113684 0)
(-0.0446793 7.87734e-05 0)
(-0.0447443 4.17977e-05 0)
(-0.0447547 2.79164e-06 0)
(-0.0447077 -3.81919e-05 0)
(-0.0446008 -8.1081e-05 0)
(-0.0444314 -0.000125782 0)
(-0.0441972 -0.000172181 0)
(-0.0438959 -0.000220139 0)
(-0.0435256 -0.000269493 0)
(-0.0430846 -0.000320056 0)
(-0.0425716 -0.000371615 0)
(-0.0419853 -0.000423933 0)
(-0.041325 -0.000476746 0)
(-0.0405904 -0.000529764 0)
(-0.0397816 -0.000582677 0)
(-0.038899 -0.000635147 0)
(-0.0379436 -0.000686818 0)
(-0.036917 -0.000737315 0)
(-0.0358211 -0.000786246 0)
(-0.0346585 -0.000833204 0)
(-0.0334324 -0.000877776 0)
(-0.0321465 -0.00091954 0)
(-0.030805 -0.000958075 0)
(-0.0294128 -0.00099296 0)
(-0.0279753 -0.00102379 0)
(-0.0264985 -0.00105015 0)
(-0.0249888 -0.00107169 0)
(-0.0234533 -0.00108803 0)
(-0.0218994 -0.00109886 0)
(-0.020335 -0.00110389 0)
(-0.0187682 -0.00110286 0)
(-0.0172076 -0.00109556 0)
(-0.015662 -0.00108184 0)
(-0.0141404 -0.00106159 0)
(-0.0126518 -0.00103473 0)
(-0.0112053 -0.00100128 0)
(-0.00980997 -0.00096128 0)
(-0.00847471 -0.000914836 0)
(-0.00720825 -0.000862116 0)
(-0.00601899 -0.000803341 0)
(-0.00491498 -0.000738795 0)
(-0.00390373 -0.000668831 0)
(-0.00299216 -0.000593878 0)
(-0.00218643 -0.000514465 0)
(-0.00149178 -0.000431258 0)
(-0.000912231 -0.000345121 0)
(-0.000450273 -0.000257229 0)
(-0.000106315 -0.000169257 0)
(0.000122086 -8.37115e-05 0)
(0.000241433 -4.47956e-06 0)
(0.000263756 6.22758e-05 0)
(0.00020906 0.00010665 0)
(0.000112743 0.000112991 0)
(2.99623e-05 6.06514e-05 0)
(1.22607e-05 -4.47938e-05 0)
(4.85785e-05 -8.88501e-05 0)
(9.52073e-05 -9.45628e-05 0)
(0.000129172 -7.18612e-05 0)
(0.000135184 -2.97693e-05 0)
(0.000103749 2.46712e-05 0)
(2.85464e-05 8.62582e-05 0)
(-9.4189e-05 0.000151247 0)
(-0.000266148 0.000216987 0)
(-0.000487461 0.000281628 0)
(-0.000757116 0.000343894 0)
(-0.00107328 0.000402936 0)
(-0.00143356 0.000458207 0)
(-0.00183519 0.000509392 0)
(-0.00227515 0.000556345 0)
(-0.00275035 0.000599048 0)
(-0.00325765 0.000637572 0)
(-0.00379399 0.000672063 0)
(-0.00435639 0.000702713 0)
(-0.00494199 0.000729749 0)
(-0.00554811 0.000753422 0)
(-0.00617226 0.000773996 0)
(-0.00681211 0.00079174 0)
(-0.00746557 0.000806926 0)
(-0.00813071 0.000819818 0)
(-0.0088058 0.000830674 0)
(-0.00948933 0.000839741 0)
(-0.0101799 0.000847255 0)
(-0.0108765 0.000853436 0)
(-0.0115779 0.00085849 0)
(-0.0122834 0.000862608 0)
(-0.0129922 0.000865967 0)
(-0.0137038 0.000868729 0)
(-0.0144177 0.000871039 0)
(-0.0151335 0.00087303 0)
(-0.0158511 0.000874823 0)
(-0.0165703 0.000876523 0)
(-0.017291 0.000878226 0)
(-0.0180131 0.000880015 0)
(-0.0187369 0.000881966 0)
(-0.0194623 0.000884143 0)
(-0.0201896 0.000886602 0)
(-0.020919 0.000889392 0)
(-0.0216507 0.000892553 0)
(-0.0223851 0.000896122 0)
(-0.0231224 0.000900127 0)
(-0.023863 0.000904593 0)
(-0.0246072 0.000909538 0)
(-0.0253554 0.000914976 0)
(-0.026108 0.000920918 0)
(-0.0268654 0.000927369 0)
(-0.0276279 0.000934333 0)
(-0.0283959 0.000941808 0)
(-0.0291699 0.000949788 0)
(-0.0299502 0.000958266 0)
(-0.0307372 0.00096723 0)
(-0.0315312 0.000976664 0)
(-0.0323327 0.000986549 0)
(-0.0331418 0.000996863 0)
(-0.033959 0.00100758 0)
(-0.0347845 0.00101867 0)
(-0.0356186 0.00103009 0)
(-0.0364615 0.00104182 0)
(-0.0373133 0.00105379 0)
(-0.0381743 0.00106597 0)
(-0.0390446 0.00107831 0)
(-0.0399242 0.00109073 0)
(-0.0408131 0.00110319 0)
(-0.0417112 0.00111559 0)
(-0.0426186 0.00112788 0)
(-0.0435349 0.00113997 0)
(-0.04446 0.00115176 0)
(-0.0453936 0.00116316 0)
(-0.0463351 0.00117406 0)
(-0.0472843 0.00118436 0)
(-0.0482404 0.00119393 0)
(-0.0492027 0.00120266 0)
(-0.0501706 0.00121039 0)
(-0.051143 0.001217 0)
(-0.0521191 0.00122233 0)
(-0.0530975 0.00122622 0)
(-0.0540772 0.0012285 0)
(-0.0550566 0.00122901 0)
(-0.0560342 0.00122756 0)
(-0.0570084 0.00122396 0)
(-0.0579773 0.00121802 0)
(-0.0589388 0.00120953 0)
(-0.0598909 0.00119829 0)
(-0.0608312 0.00118408 0)
(-0.0617573 0.00116669 0)
(-0.0626664 0.0011459 0)
(-0.0635558 0.00112148 0)
(-0.0644225 0.00109322 0)
(-0.0652633 0.00106089 0)
(-0.0660749 0.00102428 0)
(-0.0668538 0.000983171 0)
(-0.0675963 0.000937359 0)
(-0.0682988 0.000886646 0)
(-0.0689572 0.000830849 0)
(-0.0695674 0.000769798 0)
(-0.0701255 0.00070334 0)
(-0.070627 0.000631345 0)
(-0.0710676 0.000553706 0)
(-0.071443 0.000470343 0)
(-0.0717486 0.000381209 0)
(-0.0719801 0.000286291 0)
(-0.072133 0.000185616 0)
(-0.072203 7.92544e-05 0)
(-0.0721857 -3.26787e-05 0)
(-0.0720771 -0.000150016 0)
(-0.0718731 -0.000272535 0)
(-0.07157 -0.000399959 0)
(-0.0711642 -0.000531947 0)
(-0.0706525 -0.000668096 0)
(-0.0700321 -0.000807938 0)
(-0.0693004 -0.000950936 0)
(-0.0684555 -0.00109649 0)
(-0.0674959 -0.00124391 0)
(-0.0664205 -0.00139248 0)
(-0.065229 -0.00154137 0)
(-0.0639217 -0.00168972 0)
(-0.0624996 -0.00183659 0)
(-0.0609643 -0.00198099 0)
(-0.0593185 -0.00212189 0)
(-0.0575654 -0.00225821 0)
(-0.0557091 -0.00238883 0)
(-0.0537547 -0.00251261 0)
(-0.0517079 -0.00262841 0)
(-0.0495756 -0.00273507 0)
(-0.0473654 -0.00283144 0)
(-0.0450856 -0.00291641 0)
(-0.0427456 -0.0029889 0)
(-0.0403554 -0.00304788 0)
(-0.0379259 -0.0030924 0)
(-0.0354685 -0.00312156 0)
(-0.0329954 -0.0031346 0)
(-0.0305194 -0.00313082 0)
(-0.0280534 -0.00310968 0)
(-0.025611 -0.00307075 0)
(-0.023206 -0.00301373 0)
(-0.0208523 -0.00293848 0)
(-0.0185638 -0.00284502 0)
(-0.0163544 -0.00273352 0)
(-0.0142377 -0.00260431 0)
(-0.0122269 -0.0024579 0)
(-0.0103349 -0.00229497 0)
(-0.00857369 -0.00211641 0)
(-0.00695459 -0.00192331 0)
(-0.00548782 -0.00171702 0)
(-0.00418233 -0.00149921 0)
(-0.00304547 -0.001272 0)
(-0.00208263 -0.00103807 0)
(-0.00129669 -0.000800985 0)
(-0.000687294 -0.000565602 0)
(-0.000249869 -0.00033874 0)
(2.57322e-05 -0.000130174 0)
(0.000156722 4.58489e-05 0)
(0.000169506 0.00016873 0)
(0.000106523 0.000209208 0)
(3.13674e-05 0.000126856 0)
(1.13765e-05 -7.15301e-05 0)
(4.16226e-05 -0.000131412 0)
(7.28845e-05 -0.000128661 0)
(8.10786e-05 -8.01852e-05 0)
(4.99832e-05 3.79154e-07 0)
(-3.08431e-05 0.000102128 0)
(-0.000168528 0.000216661 0)
(-0.000367459 0.000337683 0)
(-0.000629722 0.00046056 0)
(-0.0009556 0.000581928 0)
(-0.00134399 0.00069939 0)
(-0.00179279 0.000811283 0)
(-0.00229912 0.000916504 0)
(-0.00285962 0.00101437 0)
(-0.00347059 0.00110452 0)
(-0.00412815 0.00118685 0)
(-0.00482837 0.00126143 0)
(-0.00556733 0.00132847 0)
(-0.00634121 0.00138829 0)
(-0.00714635 0.00144129 0)
(-0.00797927 0.00148789 0)
(-0.0088367 0.00152858 0)
(-0.00971561 0.00156384 0)
(-0.0106132 0.00159417 0)
(-0.011527 0.00162007 0)
(-0.0124546 0.00164201 0)
(-0.0133939 0.00166045 0)
(-0.0143433 0.00167585 0)
(-0.0153011 0.00168861 0)
(-0.0162659 0.00169914 0)
(-0.0172365 0.00170779 0)
(-0.0182119 0.00171491 0)
(-0.0191915 0.00172081 0)
(-0.0201744 0.00172576 0)
(-0.0211601 0.00173004 0)
(-0.0221485 0.00173387 0)
(-0.0231391 0.00173745 0)
(-0.0241318 0.00174099 0)
(-0.0251267 0.00174464 0)
(-0.0261237 0.00174854 0)
(-0.027123 0.00175284 0)
(-0.0281248 0.00175764 0)
(-0.0291294 0.00176303 0)
(-0.030137 0.00176911 0)
(-0.0311481 0.00177594 0)
(-0.032163 0.00178358 0)
(-0.0331821 0.00179208 0)
(-0.034206 0.00180147 0)
(-0.035235 0.00181179 0)
(-0.0362696 0.00182306 0)
(-0.0373104 0.00183529 0)
(-0.0383578 0.00184848 0)
(-0.0394124 0.00186264 0)
(-0.0404746 0.00187774 0)
(-0.041545 0.00189379 0)
(-0.042624 0.00191074 0)
(-0.043712 0.00192857 0)
(-0.0448096 0.00194725 0)
(-0.045917 0.00196672 0)
(-0.0470348 0.00198693 0)
(-0.0481633 0.00200782 0)
(-0.0493027 0.00202933 0)
(-0.0504533 0.00205136 0)
(-0.0516155 0.00207384 0)
(-0.0527892 0.00209666 0)
(-0.0539747 0.00211972 0)
(-0.055172 0.0021429 0)
(-0.056381 0.00216607 0)
(-0.0576017 0.00218909 0)
(-0.0588338 0.0022118 0)
(-0.0600771 0.00223404 0)
(-0.0613312 0.00225564 0)
(-0.0625956 0.00227639 0)
(-0.0638696 0.0022961 0)
(-0.0651527 0.00231455 0)
(-0.0664439 0.0023315 0)
(-0.0677423 0.00234671 0)
(-0.0690467 0.00235991 0)
(-0.0703559 0.00237083 0)
(-0.0716685 0.00237916 0)
(-0.0729828 0.00238461 0)
(-0.074297 0.00238685 0)
(-0.0756094 0.00238555 0)
(-0.0769176 0.00238035 0)
(-0.0782195 0.00237089 0)
(-0.0795124 0.0023568 0)
(-0.0807936 0.00233769 0)
(-0.0820602 0.00231316 0)
(-0.0833091 0.00228281 0)
(-0.0845368 0.00224623 0)
(-0.0857399 0.002203 0)
(-0.0869144 0.0021527 0)
(-0.0880564 0.00209492 0)
(-0.0891617 0.00202925 0)
(-0.0902257 0.00195527 0)
(-0.091244 0.0018726 0)
(-0.0922115 0.00178084 0)
(-0.0931233 0.00167965 0)
(-0.0939742 0.00156869 0)
(-0.0947589 0.00144765 0)
(-0.0954719 0.00131626 0)
(-0.0961076 0.00117429 0)
(-0.0966602 0.00102157 0)
(-0.0971241 0.000857957 0)
(-0.0974935 0.000683397 0)
(-0.0977627 0.00049789 0)
(-0.0979258 0.000301514 0)
(-0.0979774 9.44282e-05 0)
(-0.0979119 -0.000123117 0)
(-0.0977239 -0.000350776 0)
(-0.0974085 -0.000588101 0)
(-0.0969608 -0.000834535 0)
(-0.0963764 -0.00108941 0)
(-0.0956513 -0.00135193 0)
(-0.0947819 -0.00162119 0)
(-0.0937653 -0.00189614 0)
(-0.0925989 -0.00217563 0)
(-0.0912811 -0.00245835 0)
(-0.0898107 -0.0027429 0)
(-0.0881876 -0.00302773 0)
(-0.0864124 -0.00331118 0)
(-0.0844865 -0.00359149 0)
(-0.0824124 -0.00386678 0)
(-0.0801935 -0.0041351 0)
(-0.0778344 -0.00439442 0)
(-0.0753407 -0.00464262 0)
(-0.0727189 -0.00487759 0)
(-0.069977 -0.00509716 0)
(-0.0671237 -0.00529917 0)
(-0.0641691 -0.00548149 0)
(-0.0611243 -0.00564201 0)
(-0.0580014 -0.00577874 0)
(-0.0548136 -0.00588975 0)
(-0.051575 -0.00597325 0)
(-0.0483006 -0.00602761 0)
(-0.045006 -0.00605136 0)
(-0.0417079 -0.00604326 0)
(-0.0384232 -0.00600227 0)
(-0.0351695 -0.00592761 0)
(-0.0319645 -0.00581875 0)
(-0.0288263 -0.00567546 0)
(-0.0257729 -0.00549779 0)
(-0.0228221 -0.00528611 0)
(-0.0199916 -0.0050411 0)
(-0.0172983 -0.00476379 0)
(-0.0147587 -0.00445557 0)
(-0.0123883 -0.00411823 0)
(-0.0102011 -0.00375398 0)
(-0.00821024 -0.00336559 0)
(-0.00642666 -0.00295643 0)
(-0.00485935 -0.00253074 0)
(-0.00351462 -0.00209385 0)
(-0.00239555 -0.00165268 0)
(-0.00150116 -0.00121631 0)
(-0.000825478 -0.000797003 0)
(-0.000356222 -0.000411504 0)
(-7.34909e-05 -8.29621e-05 0)
(5.20087e-05 0.000156927 0)
(6.3932e-05 0.000265208 0)
(2.40484e-05 0.000181036 0)
(8.72556e-06 -9.19358e-05 0)
(2.61155e-05 -0.000156908 0)
(3.0507e-05 -0.000134655 0)
(-5.88314e-07 -4.89521e-05 0)
(-8.29534e-05 8.18725e-05 0)
(-0.000227173 0.00024308 0)
(-0.000440523 0.000423065 0)
(-0.000727503 0.00061291 0)
(-0.00109027 0.000805865 0)
(-0.00152908 0.000996899 0)
(-0.00204269 0.00118233 0)
(-0.00262871 0.00135953 0)
(-0.00328392 0.00152672 0)
(-0.00400446 0.00168273 0)
(-0.00478607 0.00182691 0)
(-0.00562427 0.00195902 0)
(-0.00651446 0.00207907 0)
(-0.00745204 0.00218735 0)
(-0.0084325 0.00228429 0)
(-0.00945149 0.00237046 0)
(-0.0105048 0.0024465 0)
(-0.0115887 0.00251313 0)
(-0.0126993 0.0025711 0)
(-0.0138333 0.00262117 0)
(-0.0149876 0.0026641 0)
(-0.0161595 0.00270065 0)
(-0.0173463 0.00273152 0)
(-0.0185459 0.00275743 0)
(-0.0197562 0.00277903 0)
(-0.0209756 0.00279695 0)
(-0.0222026 0.00281177 0)
(-0.0234358 0.00282403 0)
(-0.0246744 0.00283423 0)
(-0.0259174 0.00284283 0)
(-0.0271642 0.00285024 0)
(-0.0284142 0.00285684 0)
(-0.0296672 0.00286298 0)
(-0.030923 0.00286894 0)
(-0.0321814 0.00287502 0)
(-0.0334424 0.00288144 0)
(-0.0347063 0.00288842 0)
(-0.0359732 0.00289614 0)
(-0.0372434 0.00290477 0)
(-0.0385172 0.00291444 0)
(-0.039795 0.00292527 0)
(-0.0410774 0.00293735 0)
(-0.0423648 0.00295078 0)
(-0.0436577 0.0029656 0)
(-0.0449566 0.00298187 0)
(-0.0462622 0.00299963 0)
(-0.0475751 0.0030189 0)
(-0.0488957 0.00303968 0)
(-0.0502248 0.00306197 0)
(-0.0515628 0.00308576 0)
(-0.0529105 0.00311101 0)
(-0.0542682 0.00313769 0)
(-0.0556366 0.00316574 0)
(-0.0570162 0.00319509 0)
(-0.0584074 0.00322568 0)
(-0.0598108 0.00325741 0)
(-0.0612266 0.00329018 0)
(-0.0626553 0.00332387 0)
(-0.0640971 0.00335835 0)
(-0.0655523 0.00339347 0)
(-0.067021 0.00342907 0)
(-0.0685033 0.00346497 0)
(-0.0699992 0.00350097 0)
(-0.0715086 0.00353686 0)
(-0.0730313 0.00357241 0)
(-0.0745671 0.00360736 0)
(-0.0761155 0.00364145 0)
(-0.0776759 0.00367437 0)
(-0.0792478 0.00370583 0)
(-0.0808304 0.00373547 0)
(-0.0824226 0.00376294 0)
(-0.0840233 0.00378787 0)
(-0.0856313 0.00380984 0)
(-0.0872452 0.00382843 0)
(-0.0888632 0.0038432 0)
(-0.0904836 0.00385366 0)
(-0.0921043 0.00385931 0)
(-0.0937231 0.00385965 0)
(-0.0953375 0.00385413 0)
(-0.0969447 0.00384218 0)
(-0.098542 0.00382323 0)
(-0.100126 0.00379667 0)
(-0.101694 0.00376189 0)
(-0.103241 0.00371826 0)
(-0.104764 0.00366513 0)
(-0.106258 0.00360186 0)
(-0.10772 0.00352779 0)
(-0.109144 0.00344227 0)
(-0.110526 0.00334464 0)
(-0.11186 0.00323425 0)
(-0.113141 0.00311047 0)
(-0.114363 0.0029727 0)
(-0.115521 0.00282035 0)
(-0.116608 0.00265286 0)
(-0.117617 0.00246974 0)
(-0.118543 0.00227051 0)
(-0.119379 0.00205478 0)
(-0.120118 0.00182222 0)
(-0.120753 0.00157257 0)
(-0.121278 0.00130567 0)
(-0.121685 0.00102144 0)
(-0.121968 0.000719937 0)
(-0.122119 0.000401312 0)
(-0.122133 6.58607e-05 0)
(-0.122003 -0.000285982 0)
(-0.121722 -0.000653629 0)
(-0.121284 -0.00103633 0)
(-0.120685 -0.00143318 0)
(-0.119918 -0.00184306 0)
(-0.11898 -0.0022647 0)
(-0.117865 -0.00269662 0)
(-0.116572 -0.00313715 0)
(-0.115097 -0.00358443 0)
(-0.113438 -0.00403639 0)
(-0.111594 -0.00449078 0)
(-0.109565 -0.00494515 0)
(-0.107352 -0.00539687 0)
(-0.104958 -0.00584315 0)
(-0.102385 -0.00628104 0)
(-0.0996375 -0.00670746 0)
(-0.0967213 -0.00711921 0)
(-0.0936432 -0.00751299 0)
(-0.0904115 -0.00788547 0)
(-0.0870354 -0.00823325 0)
(-0.0835259 -0.00855295 0)
(-0.0798949 -0.00884124 0)
(-0.0761558 -0.00909485 0)
(-0.0723233 -0.00931063 0)
(-0.068413 -0.0094856 0)
(-0.0644419 -0.00961695 0)
(-0.060428 -0.00970215 0)
(-0.05639 -0.00973892 0)
(-0.0523476 -0.00972531 0)
(-0.0483213 -0.00965972 0)
(-0.0443317 -0.00954094 0)
(-0.0404003 -0.00936819 0)
(-0.0365484 -0.00914111 0)
(-0.0327975 -0.00885985 0)
(-0.0291688 -0.00852504 0)
(-0.0256832 -0.00813782 0)
(-0.022361 -0.00769991 0)
(-0.0192215 -0.00721362 0)
(-0.0162828 -0.00668191 0)
(-0.0135618 -0.00610847 0)
(-0.0110734 -0.00549784 0)
(-0.00883053 -0.00485561 0)
(-0.00684333 -0.00418865 0)
(-0.00511898 -0.00350556 0)
(-0.00366086 -0.00281717 0)
(-0.00246783 -0.0021374 0)
(-0.00153337 -0.0014844 0)
(-0.00084451 -0.0008821 0)
(-0.000380671 -0.000362301 0)
(-0.000112223 3.2963e-05 0)
(1.47155e-06 0.000248362 0)
(1.27352e-05 0.000205889 0)
(5.12143e-06 -0.000102536 0)
(5.20327e-06 -0.000157413 0)
(-2.56023e-05 -0.000102128 0)
(-0.000106206 3.35749e-05 0)
(-0.000250856 0.000226975 0)
(-0.000469649 0.000459681 0)
(-0.00076947 0.00071701 0)
(-0.00115451 0.000987469 0)
(-0.00162667 0.00126219 0)
(-0.00218599 0.00153441 0)
(-0.00283096 0.0017991 0)
(-0.0035589 0.00205259 0)
(-0.00436619 0.00229232 0)
(-0.00524856 0.0025166 0)
(-0.00620128 0.00272441 0)
(-0.00721936 0.00291531 0)
(-0.00829763 0.00308927 0)
(-0.00943093 0.00324658 0)
(-0.0106142 0.00338781 0)
(-0.0118424 0.00351369 0)
(-0.0131109 0.00362512 0)
(-0.0144153 0.00372305 0)
(-0.0157512 0.00380851 0)
(-0.0171148 0.00388257 0)
(-0.0185025 0.0039463 0)
(-0.0199111 0.00400073 0)
(-0.0213376 0.00404691 0)
(-0.0227794 0.00408581 0)
(-0.0242342 0.00411839 0)
(-0.0256999 0.00414553 0)
(-0.0271747 0.00416807 0)
(-0.0286572 0.00418679 0)
(-0.0301462 0.0042024 0)
(-0.0316405 0.00421558 0)
(-0.0331394 0.00422692 0)
(-0.0346423 0.00423697 0)
(-0.0361487 0.00424623 0)
(-0.0376583 0.00425515 0)
(-0.0391709 0.00426413 0)
(-0.0406867 0.00427351 0)
(-0.0422056 0.00428362 0)
(-0.0437278 0.00429472 0)
(-0.0452538 0.00430705 0)
(-0.0467837 0.00432082 0)
(-0.0483182 0.0043362 0)
(-0.0498576 0.00435335 0)
(-0.0514026 0.00437237 0)
(-0.0529536 0.00439336 0)
(-0.0545114 0.0044164 0)
(-0.0560765 0.00444154 0)
(-0.0576497 0.00446882 0)
(-0.0592315 0.00449823 0)
(-0.0608226 0.00452979 0)
(-0.0624237 0.00456345 0)
(-0.0640354 0.00459919 0)
(-0.0656584 0.00463693 0)
(-0.0672932 0.00467661 0)
(-0.0689404 0.00471812 0)
(-0.0706006 0.00476134 0)
(-0.0722741 0.00480614 0)
(-0.0739615 0.00485237 0)
(-0.0756631 0.00489985 0)
(-0.0773792 0.00494838 0)
(-0.0791099 0.00499774 0)
(-0.0808555 0.00504768 0)
(-0.082616 0.00509795 0)
(-0.0843913 0.00514825 0)
(-0.0861813 0.00519826 0)
(-0.0879856 0.00524763 0)
(-0.0898039 0.005296 0)
(-0.0916356 0.00534295 0)
(-0.0934801 0.00538806 0)
(-0.0953364 0.00543087 0)
(-0.0972035 0.00547087 0)
(-0.0990804 0.00550754 0)
(-0.100965 0.00554033 0)
(-0.102857 0.00556865 0)
(-0.104754 0.00559186 0)
(-0.106654 0.00560931 0)
(-0.108554 0.00562032 0)
(-0.110452 0.00562415 0)
(-0.112346 0.00562006 0)
(-0.114233 0.00560727 0)
(-0.116109 0.00558495 0)
(-0.117971 0.00555228 0)
(-0.119815 0.00550838 0)
(-0.121636 0.00545239 0)
(-0.123432 0.00538338 0)
(-0.125196 0.00530045 0)
(-0.126925 0.00520267 0)
(-0.128612 0.00508911 0)
(-0.130253 0.00495883 0)
(-0.131842 0.00481093 0)
(-0.133372 0.00464448 0)
(-0.134837 0.00445861 0)
(-0.136231 0.00425246 0)
(-0.137546 0.00402523 0)
(-0.138777 0.00377614 0)
(-0.139915 0.00350451 0)
(-0.140953 0.00320972 0)
(-0.141883 0.00289123 0)
(-0.142698 0.0025486 0)
(-0.14339 0.00218151 0)
(-0.143952 0.00178977 0)
(-0.144374 0.00137334 0)
(-0.14465 0.000932316 0)
(-0.144772 0.000466983 0)
(-0.144733 -2.21916e-05 0)
(-0.144525 -0.000534536 0)
(-0.144141 -0.00106916 0)
(-0.143574 -0.00162496 0)
(-0.142819 -0.00220056 0)
(-0.14187 -0.00279435 0)
(-0.140721 -0.00340448 0)
(-0.139369 -0.00402878 0)
(-0.137809 -0.00466486 0)
(-0.13604 -0.00531002 0)
(-0.134058 -0.00596129 0)
(-0.131863 -0.00661544 0)
(-0.129456 -0.00726898 0)
(-0.126837 -0.00791816 0)
(-0.124009 -0.008559 0)
(-0.120976 -0.00918731 0)
(-0.117743 -0.00979871 0)
(-0.114316 -0.0103887 0)
(-0.110704 -0.0109525 0)
(-0.106916 -0.0114855 0)
(-0.102963 -0.0119829 0)
(-0.0988573 -0.0124398 0)
(-0.0946126 -0.0128517 0)
(-0.0902441 -0.0132138 0)
(-0.0857686 -0.0135217 0)
(-0.0812041 -0.0137712 0)
(-0.0765698 -0.0139585 0)
(-0.0718861 -0.0140798 0)
(-0.0671744 -0.0141319 0)
(-0.0624571 -0.0141122 0)
(-0.0577573 -0.0140184 0)
(-0.0530988 -0.0138488 0)
(-0.0485056 -0.0136024 0)
(-0.0440021 -0.0132785 0)
(-0.0396126 -0.0128776 0)
(-0.0353613 -0.0124006 0)
(-0.0312717 -0.0118491 0)
(-0.0273668 -0.0112258 0)
(-0.0236684 -0.010534 0)
(-0.0201971 -0.0097781 0)
(-0.0169717 -0.00896357 0)
(-0.0140091 -0.00809705 0)
(-0.0113235 -0.00718669 0)
(-0.00892654 -0.00624241 0)
(-0.00682616 -0.00527642 0)
(-0.00502635 -0.00430388 0)
(-0.00352638 -0.00334378 0)
(-0.00232005 -0.00242023 0)
(-0.00139496 -0.00156409 0)
(-0.000731461 -0.000815163 0)
(-0.000301529 -0.000224546 0)
(-7.04884e-05 0.000142163 0)
(-3.75069e-08 0.000194459 0)
(1.01976e-06 -0.000101237 0)
(-1.90656e-05 -0.000127442 0)
(-9.09061e-05 -2.33643e-05 0)
(-0.000228571 0.000176435 0)
(-0.000443955 0.000445362 0)
(-0.000746143 0.000761708 0)
(-0.00114119 0.00110794 0)
(-0.00163262 0.00147012 0)
(-0.0022218 0.00183735 0)
(-0.00290832 0.00220117 0)
(-0.00369028 0.0025552 0)
(-0.00456459 0.00289471 0)
(-0.00552725 0.00321632 0)
(-0.00657356 0.00351775 0)
(-0.00769836 0.00379763 0)
(-0.00889618 0.00405526 0)
(-0.0101614 0.00429053 0)
(-0.0114883 0.00450377 0)
(-0.0128714 0.00469565 0)
(-0.0143052 0.00486708 0)
(-0.0157844 0.00501917 0)
(-0.0173042 0.00515319 0)
(-0.0188598 0.00527045 0)
(-0.0204469 0.00537233 0)
(-0.0220615 0.00546024 0)
(-0.0236999 0.00553556 0)
(-0.0253589 0.00559964 0)
(-0.0270354 0.00565379 0)
(-0.0287269 0.00569928 0)
(-0.0304309 0.00573729 0)
(-0.0321455 0.00576895 0)
(-0.0338689 0.00579529 0)
(-0.0355997 0.0058173 0)
(-0.0373368 0.00583587 0)
(-0.039079 0.00585181 0)
(-0.0408258 0.00586587 0)
(-0.0425764 0.00587873 0)
(-0.0443306 0.00589099 0)
(-0.0460882 0.00590321 0)
(-0.047849 0.00591586 0)
(-0.0496133 0.00592938 0)
(-0.051381 0.00594414 0)
(-0.0531527 0.00596047 0)
(-0.0549285 0.00597865 0)
(-0.0567091 0.00599893 0)
(-0.0584949 0.00602151 0)
(-0.0602864 0.00604656 0)
(-0.0620844 0.0060742 0)
(-0.0638895 0.00610455 0)
(-0.0657024 0.00613767 0)
(-0.0675237 0.00617361 0)
(-0.0693542 0.00621238 0)
(-0.0711946 0.00625398 0)
(-0.0730457 0.00629837 0)
(-0.074908 0.00634548 0)
(-0.0767823 0.00639524 0)
(-0.0786692 0.00644753 0)
(-0.0805693 0.00650221 0)
(-0.0824832 0.00655913 0)
(-0.0844113 0.00661809 0)
(-0.086354 0.00667888 0)
(-0.0883119 0.00674124 0)
(-0.090285 0.0068049 0)
(-0.0922737 0.00686956 0)
(-0.094278 0.00693488 0)
(-0.0962979 0.00700049 0)
(-0.0983333 0.00706597 0)
(-0.100384 0.00713089 0)
(-0.102449 0.00719478 0)
(-0.104529 0.0072571 0)
(-0.106622 0.00731732 0)
(-0.108729 0.00737483 0)
(-0.110846 0.007429 0)
(-0.112975 0.00747915 0)
(-0.115112 0.00752455 0)
(-0.117256 0.00756445 0)
(-0.119407 0.00759804 0)
(-0.12156 0.00762446 0)
(-0.123715 0.00764283 0)
(-0.125868 0.0076522 0)
(-0.128016 0.00765159 0)
(-0.130157 0.00763999 0)
(-0.132287 0.00761634 0)
(-0.134403 0.00757954 0)
(-0.136499 0.00752847 0)
(-0.138573 0.00746196 0)
(-0.140619 0.00737884 0)
(-0.142632 0.00727789 0)
(-0.144607 0.0071579 0)
(-0.146539 0.00701764 0)
(-0.148421 0.00685586 0)
(-0.150248 0.00667134 0)
(-0.152012 0.00646287 0)
(-0.153708 0.00622925 0)
(-0.155327 0.00596932 0)
(-0.156863 0.00568199 0)
(-0.158308 0.00536618 0)
(-0.159654 0.00502094 0)
(-0.160893 0.00464536 0)
(-0.162016 0.00423866 0)
(-0.163016 0.00380017 0)
(-0.163884 0.00332937 0)
(-0.164611 0.00282587 0)
(-0.165189 0.00228949 0)
(-0.165609 0.0017202 0)
(-0.165862 0.00111822 0)
(-0.16594 0.000483975 0)
(-0.165836 -0.000181841 0)
(-0.165541 -0.000878275 0)
(-0.165047 -0.00160408 0)
(-0.164348 -0.00235772 0)
(-0.163437 -0.00313733 0)
(-0.162308 -0.00394069 0)
(-0.160956 -0.00476528 0)
(-0.159375 -0.0056082 0)
(-0.157562 -0.00646619 0)
(-0.155515 -0.00733563 0)
(-0.15323 -0.00821256 0)
(-0.150709 -0.00909265 0)
(-0.14795 -0.00997124 0)
(-0.144956 -0.0108433 0)
(-0.141729 -0.0117036 0)
(-0.138274 -0.0125466 0)
(-0.134597 -0.0133664 0)
(-0.130705 -0.014157 0)
(-0.126608 -0.0149122 0)
(-0.122314 -0.0156258 0)
(-0.117838 -0.0162915 0)
(-0.113191 -0.0169029 0)
(-0.108391 -0.0174538 0)
(-0.103452 -0.0179381 0)
(-0.0983948 -0.0183499 0)
(-0.093238 -0.0186837 0)
(-0.0880029 -0.0189343 0)
(-0.0827121 -0.0190968 0)
(-0.0773892 -0.0191672 0)
(-0.0720587 -0.0191417 0)