/*--------------------------------*- C++ -*----------------------------------*\
  =========                 |
  \\      /  F ield         | OpenFOAM: The Open Source CFD Toolbox
   \\    /   O peration     | Website:  https://openfoam.org
    \\  /    A nd           | Version:  7
     \\/     M anipulation  |
\*---------------------------------------------------------------------------*/
FoamFile
{
    version     2.0;
    format      ascii;
    class       surfaceScalarField;
    location    "0.2625";
    object      phi;
}
// * * * * * * * * * * * * * * * * * * * * * * * * * * * * * * * * * * * * * //

dimensions      [0 3 -1 0 0 0 0];

internalField   nonuniform List<scalar> 
101920
(
-4.00782e-14
5.77669e-14
-1.43596e-12
1.39725e-12
-1.74462e-12
3.05109e-13
-1.78464e-12
4.47151e-14
-1.43233e-12
-3.52897e-13
-8.1473e-13
-6.18104e-13
-5.33136e-14
-7.60015e-13
7.71485e-13
-8.2578e-13
1.60755e-12
-8.36356e-13
2.42164e-12
-8.14869e-13
3.18662e-12
-7.64347e-13
3.88645e-12
-6.99743e-13
4.51055e-12
-6.24468e-13
5.05146e-12
-5.40369e-13
5.50029e-12
-4.50811e-13
5.85551e-12
-3.54998e-13
6.11136e-12
-2.57667e-13
6.27026e-12
-1.59662e-13
6.33013e-12
-6.10494e-14
6.28967e-12
3.75629e-14
6.15221e-12
1.37679e-13
5.91474e-12
2.36026e-13
5.5824e-12
3.33125e-13
5.15542e-12
4.27996e-13
4.63473e-12
5.19509e-13
4.0258e-12
6.08683e-13
3.32982e-12
6.94933e-13
2.54999e-12
7.78638e-13
1.69181e-12
8.58542e-13
7.57976e-13
9.33064e-13
-2.47837e-13
1.00521e-12
-1.32087e-12
1.07413e-12
-2.45652e-12
1.13674e-12
-3.65063e-12
1.19578e-12
-4.89979e-12
1.25187e-12
-6.19998e-12
1.30129e-12
-7.54551e-12
1.34593e-12
-8.93218e-12
1.38828e-12
-1.03563e-11
1.42537e-12
-1.18119e-11
1.45673e-12
-1.32946e-11
1.48433e-12
-1.48018e-11
1.50749e-12
-1.63289e-11
1.52591e-12
-1.78697e-11
1.53999e-12
-1.94203e-11
1.54951e-12
-2.0977e-11
1.55543e-12
-2.25354e-11
1.5578e-12
-2.40901e-11
1.5548e-12
-2.56372e-11
1.54647e-12
-2.71724e-11
1.53533e-12
-2.86924e-11
1.52111e-12
-3.01941e-11
1.50232e-12
-3.16729e-11
1.47944e-12
-3.31255e-11
1.45385e-12
-3.45492e-11
1.4255e-12
-3.59403e-11
1.39256e-12
-3.72948e-11
1.35503e-12
-3.86095e-11
1.3147e-12
-3.98827e-11
1.27201e-12
-4.11116e-11
1.22703e-12
-4.22915e-11
1.17986e-12
-4.34198e-11
1.12985e-12
-4.44959e-11
1.07689e-12
-4.55171e-11
1.02155e-12
-4.64806e-11
9.63748e-13
-4.73843e-11
9.03271e-13
-4.82258e-11
8.40971e-13
-4.90043e-11
7.78331e-13
-4.97199e-11
7.15123e-13
-5.03713e-11
6.49709e-13
-5.09557e-11
5.82394e-13
-5.14708e-11
5.14984e-13
-5.19154e-11
4.47386e-13
-5.22896e-11
3.77803e-13
-5.25927e-11
3.05778e-13
-5.28244e-11
2.32673e-13
-5.29855e-11
1.59801e-13
-5.3076e-11
8.76277e-14
-5.30939e-11
1.59311e-14
-5.3038e-11
-5.58822e-14
-5.29095e-11
-1.27936e-13
-5.271e-11
-1.9958e-13
-5.24398e-11
-2.70253e-13
-5.2099e-11
-3.40458e-13
-5.16876e-11
-4.11066e-13
-5.12062e-11
-4.81661e-13
-5.06557e-11
-5.50591e-13
-5.00383e-11
-6.17136e-13
-4.93555e-11
-6.82505e-13
-4.86083e-11
-7.47675e-13
-4.7797e-11
-8.11723e-13
-4.69236e-11
-8.73327e-13
-4.59912e-11
-9.32196e-13
-4.50024e-11
-9.8885e-13
-4.39585e-11
-1.04394e-12
-4.28603e-11
-1.09785e-12
-4.17095e-11
-1.1503e-12
-4.05093e-11
-1.20015e-12
-3.92626e-11
-1.24634e-12
-3.79726e-11
-1.28909e-12
-3.66426e-11
-1.32946e-12
-3.52747e-11
-1.3682e-12
-3.38713e-11
-1.40457e-12
-3.24357e-11
-1.43683e-12
-3.09713e-11
-1.46454e-12
-2.94822e-11
-1.48873e-12
-2.79716e-11
-1.51012e-12
-2.64421e-11
-1.52876e-12
-2.48976e-11
-1.54409e-12
-2.33422e-11
-1.55556e-12
-2.17797e-11
-1.56321e-12
-2.0214e-11
-1.56688e-12
-1.86485e-11
-1.56622e-12
-1.70869e-11
-1.56167e-12
-1.55339e-11
-1.55341e-12
-1.39938e-11
-1.54079e-12
-1.24706e-11
-1.52344e-12
-1.09689e-11
-1.50158e-12
-9.49288e-12
-1.47571e-12
-8.04618e-12
-1.44633e-12
-6.63319e-12
-1.41303e-12
-5.25786e-12
-1.37509e-12
-3.92444e-12
-1.33282e-12
-2.63767e-12
-1.28665e-12
-1.40125e-12
-1.23654e-12
-2.18811e-13
-1.18246e-12
9.05497e-13
-1.12431e-12
1.96797e-12
-1.06199e-12
2.96452e-12
-9.95735e-13
3.89084e-12
-9.25733e-13
4.74389e-12
-8.52488e-13
5.521e-12
-7.76955e-13
6.21907e-12
-6.99161e-13
6.83536e-12
-6.17941e-13
7.36734e-12
-5.32689e-13
7.81217e-12
-4.44177e-13
8.16795e-12
-3.5393e-13
8.43373e-12
-2.63603e-13
8.60822e-12
-1.73842e-13
8.6907e-12
-8.38134e-14
8.68184e-12
7.19847e-15
8.58232e-12
9.84446e-14
8.39304e-12
1.88842e-13
8.11684e-12
2.76783e-13
7.75736e-12
3.60519e-13
7.31832e-12
4.39227e-13
6.80487e-12
5.12884e-13
6.22414e-12
5.80336e-13
5.58477e-12
6.39077e-13
4.89761e-12
6.86821e-13
4.17636e-12
7.21326e-13
3.43686e-12
7.39606e-13
2.69802e-12
7.3845e-13
1.9837e-12
7.14066e-13
1.32271e-12
6.61257e-13
7.48226e-13
5.74476e-13
2.98643e-13
4.49123e-13
1.62079e-14
2.82317e-13
-6.77151e-14
8.38875e-14
-6.8076e-14
1.61885e-12
-1.5593e-12
2.09704e-12
9.1889e-13
1.95776e-12
4.41394e-13
2.33047e-12
-3.29131e-13
3.11019e-12
-1.13332e-12
4.25651e-12
-1.76526e-12
5.67977e-12
-2.18455e-12
7.26545e-12
-2.40957e-12
8.91478e-12
-2.48699e-12
1.05464e-11
-2.44649e-12
1.20994e-11
-2.31829e-12
1.35216e-11
-2.1229e-12
1.47754e-11
-1.87852e-12
1.5833e-11
-1.5978e-12
1.66722e-11
-1.28713e-12
1.72742e-11
-9.56688e-13
1.76292e-11
-6.11084e-13
1.77271e-11
-2.54425e-13
1.75622e-11
1.0533e-13
1.71343e-11
4.69604e-13
1.64373e-11
8.34095e-13
1.5476e-11
1.19618e-12
1.42534e-11
1.55583e-12
1.27709e-11
1.90893e-12
1.10383e-11
2.25384e-12
9.06005e-12
2.58829e-12
6.842e-12
2.91215e-12
4.3964e-12
3.22562e-12
1.73061e-12
3.52407e-12
-1.14561e-12
3.80829e-12
-4.21884e-12
4.07932e-12
-7.48079e-12
4.33323e-12
-1.09195e-11
4.57134e-12
-1.45216e-11
4.79621e-12
-1.82768e-11
5.00426e-12
-2.21718e-11
5.19401e-12
-2.61936e-11
5.36743e-12
-3.03317e-11
5.52389e-12
-3.45718e-11
5.66238e-12
-3.88997e-11
5.78388e-12
-4.33048e-11
5.88884e-12
-4.77736e-11
5.97689e-12
-5.22918e-11
6.04735e-12
-5.68485e-11
6.0995e-12
-6.14314e-11
6.13407e-12
-6.60263e-11
6.15295e-12
-7.06214e-11
6.1552e-12
-7.52056e-11
6.13947e-12
-7.97669e-11
6.10789e-12
-8.42935e-11
6.06236e-12
-8.87742e-11
6.00165e-12
-9.31983e-11
5.92531e-12
-9.75545e-11
5.8349e-12
-1.01833e-10
5.73147e-12
-1.06025e-10
5.61487e-12
-1.10119e-10
5.48501e-12
-1.14105e-10
5.34253e-12
-1.17977e-10
5.18785e-12
-1.21724e-10
5.02094e-12
-1.25339e-10
4.84268e-12
-1.28814e-10
4.65396e-12
-1.32141e-10
4.45517e-12
-1.35313e-10
4.2476e-12
-1.38322e-10
4.0317e-12
-1.41163e-10
3.80612e-12
-1.43832e-10
3.57173e-12
-1.46322e-10
3.33155e-12
-1.48628e-10
3.08661e-12
-1.50746e-10
2.83541e-12
-1.52671e-10
2.57664e-12
-1.54399e-10
2.31131e-12
-1.55928e-10
2.04175e-12
-1.57256e-10
1.76956e-12
-1.58378e-10
1.49524e-12
-1.59291e-10
1.21861e-12
-1.59995e-10
9.39115e-13
-1.60488e-10
6.56697e-13
-1.60771e-10
3.72734e-13
-1.60842e-10
8.86335e-14
-1.60702e-10
-1.9562e-13
-1.60352e-10
-4.79793e-13
-1.5979e-10
-7.62246e-13
-1.59019e-10
-1.04214e-12
-1.58039e-10
-1.32041e-12
-1.56855e-10
-1.5974e-12
-1.55466e-10
-1.87143e-12
-1.53876e-10
-2.14066e-12
-1.52089e-10
-2.4046e-12
-1.50108e-10
-2.66369e-12
-1.47937e-10
-2.91805e-12
-1.45581e-10
-3.16682e-12
-1.43044e-10
-3.40892e-12
-1.40332e-10
-3.64374e-12
-1.37451e-10
-3.87084e-12
-1.34404e-10
-4.09016e-12
-1.31199e-10
-4.30201e-12
-1.27844e-10
-4.50597e-12
-1.24345e-10
-4.70035e-12
-1.20709e-10
-4.88337e-12
-1.16943e-10
-5.05471e-12
-1.13057e-10
-5.2154e-12
-1.09058e-10
-5.36601e-12
-1.04956e-10
-5.50579e-12
-1.00759e-10
-5.63323e-12
-9.64761e-11
-5.74732e-12
-9.21181e-11
-5.8481e-12
-8.76945e-11
-5.93547e-12
-8.32149e-11
-6.00902e-12
-7.86902e-11
-6.06876e-12
-7.41321e-11
-6.11441e-12
-6.95503e-11
-6.14546e-12
-6.49561e-11
-6.16154e-12
-6.03609e-11
-6.16203e-12
-5.57764e-11
-6.14669e-12
-5.12149e-11
-6.11563e-12
-4.66881e-11
-6.06823e-12
-4.22075e-11
-6.00402e-12
-3.77856e-11
-5.92355e-12
-3.34349e-11
-5.82717e-12
-2.91668e-11
-5.71476e-12
-2.49937e-11
-5.58617e-12
-2.09278e-11
-5.44093e-12
-1.6981e-11
-5.27914e-12
-1.31652e-11
-5.10171e-12
-9.49171e-12
-4.90893e-12
-5.97177e-12
-4.70073e-12
-2.61755e-12
-4.47753e-12
5.59465e-13
-4.23959e-12
3.54908e-12
-3.98688e-12
6.34147e-12
-3.71975e-12
8.92746e-12
-3.43902e-12
1.12981e-11
-3.1462e-12
1.34443e-11
-2.84303e-12
1.53578e-11
-2.53002e-12
1.7032e-11
-2.2067e-12
1.8461e-11
-1.87385e-12
1.96392e-11
-1.53379e-12
2.05637e-11
-1.18894e-12
2.12325e-11
-8.41692e-13
2.16442e-11
-4.941e-13
2.17996e-11
-1.47556e-13
2.17014e-11
1.9618e-13
2.1354e-11
5.34365e-13
2.07652e-11
8.63698e-13
1.99453e-11
1.18023e-12
1.8907e-11
1.47895e-12
1.76656e-11
1.75503e-12
1.62416e-11
2.00406e-12
1.46601e-11
2.22007e-12
1.29511e-11
2.3953e-12
1.11503e-11
2.52137e-12
9.30046e-12
2.58886e-12
7.45152e-12
2.58678e-12
5.66181e-12
2.50296e-12
3.99866e-12
2.32431e-12
2.53618e-12
2.03784e-12
1.35134e-12
1.63452e-12
5.16924e-13
1.11653e-12
8.06475e-14
5.19978e-13
1.21694e-14
9.18303e-13
-2.48113e-12
2.78706e-12
-9.52419e-13
4.15235e-12
-9.24488e-13
5.5889e-12
-1.76664e-12
7.23216e-12
-2.77631e-12
9.1117e-12
-3.64703e-12
1.11915e-11
-4.26544e-12
1.33954e-11
-4.61475e-12
1.56307e-11
-4.7233e-12
1.7809e-11
-4.62616e-12
1.98552e-11
-4.36428e-12
2.17e-11
-3.96858e-12
2.3289e-11
-3.47029e-12
2.4581e-11
-2.88978e-12
2.55381e-11
-2.24603e-12
2.61347e-11
-1.55438e-12
2.63501e-11
-8.27311e-13
2.61675e-11
-7.54516e-14
2.55795e-11
6.93663e-13
2.45778e-11
1.47094e-12
2.31609e-11
2.2507e-12
2.13304e-11
3.02819e-12
1.90869e-11
3.79711e-12
1.64404e-11
4.55468e-12
1.33968e-11
5.29656e-12
9.96585e-12
6.01774e-12
6.16146e-12
6.71708e-12
1.9947e-12
7.39162e-12
-2.51993e-12
8.03775e-12
-7.36502e-12
8.65554e-12
-1.25252e-11
9.2413e-12
-1.79836e-11
9.79312e-12
-2.37212e-11
1.0312e-11
-2.97199e-11
1.07961e-11
-3.59601e-11
1.12443e-11
-4.24207e-11
1.16569e-11
-4.90831e-11
1.20319e-11
-5.59269e-11
1.23688e-11
-6.29307e-11
1.26678e-11
-7.00754e-11
1.29286e-11
-7.73405e-11
1.31518e-11
-8.47032e-11
1.33384e-11
-9.21434e-11
1.34869e-11
-9.96426e-11
1.35969e-11
-1.07179e-10
1.36705e-11
-1.14733e-10
1.37076e-11
-1.22286e-10
1.37077e-11
-1.29818e-10
1.36713e-11
-1.37309e-10
1.36007e-11
-1.44742e-10
1.34967e-11
-1.52099e-10
1.33589e-11
-1.5936e-10
1.31887e-11
-1.6651e-10
1.29875e-11
-1.73532e-10
1.27552e-11
-1.8041e-10
1.24927e-11
-1.87127e-10
1.22017e-11
-1.9367e-10
1.18832e-11
-2.00022e-10
1.15387e-11
-2.0617e-10
1.11692e-11
-2.121e-10
1.07747e-11
-2.17801e-10
1.03559e-11
-2.23261e-10
9.91491e-12
-2.28467e-10
9.45404e-12
-2.33409e-10
8.97363e-12
-2.38077e-10
8.47318e-12
-2.4246e-10
7.95479e-12
-2.46552e-10
7.42192e-12
-2.50342e-10
6.87581e-12
-2.53826e-10
6.31653e-12
-2.56993e-10
5.74461e-12
-2.59837e-10
5.16029e-12
-2.62355e-10
4.56424e-12
-2.64542e-10
3.95862e-12
-2.66393e-10
3.34624e-12
-2.67906e-10
2.72878e-12
-2.69077e-10
2.10685e-12
-2.69903e-10
1.48118e-12
-2.70382e-10
8.52842e-13
-2.70515e-10
2.22753e-13
-2.70303e-10
-4.08232e-13
-2.69745e-10
-1.03824e-12
-2.68842e-10
-1.66503e-12
-2.67595e-10
-2.28796e-12
-2.66009e-10
-2.90713e-12
-2.64085e-10
-3.52131e-12
-2.61829e-10
-4.12815e-12
-2.59243e-10
-4.72591e-12
-2.56334e-10
-5.31382e-12
-2.53108e-10
-5.89098e-12
-2.4957e-10
-6.45634e-12
-2.45727e-10
-7.00885e-12
-2.41589e-10
-7.54711e-12
-2.37163e-10
-8.06972e-12
-2.32458e-10
-8.57561e-12
-2.27484e-10
-9.06418e-12
-2.2225e-10
-9.53501e-12
-2.16768e-10
-9.98685e-12
-2.1105e-10
-1.04176e-11
-2.05107e-10
-1.08257e-11
-1.98952e-10
-1.121e-11
-1.92598e-10
-1.15705e-11
-1.86059e-10
-1.19064e-11
-1.79348e-10
-1.22165e-11
-1.72481e-10
-1.24996e-11
-1.65472e-10
-1.2755e-11
-1.58339e-10
-1.29817e-11
-1.51095e-10
-1.31789e-11
-1.43759e-10
-1.33457e-11
-1.36347e-10
-1.34816e-11
-1.28877e-10
-1.35858e-11
-1.21366e-10
-1.36571e-11
-1.13832e-10
-1.36951e-11
-1.06295e-10
-1.36994e-11
-9.8773e-11
-1.36695e-11
-9.12848e-11
-1.36044e-11
-8.38492e-11
-1.35037e-11
-7.64858e-11
-1.3367e-11
-6.92145e-11
-1.31946e-11
-6.20549e-11
-1.29869e-11
-5.50262e-11
-1.27435e-11
-4.81476e-11
-1.24642e-11
-4.14391e-11
-1.21491e-11
-3.49202e-11
-1.17983e-11
-2.861e-11
-1.14122e-11
-2.2527e-11
-1.09916e-11
-1.66894e-11
-1.05373e-11
-1.11158e-11
-1.00499e-11
-5.8236e-12
-9.53068e-12
-8.29816e-13
-8.98029e-12
3.8494e-12
-8.39947e-12
8.19891e-12
-7.78974e-12
1.22042e-11
-7.153e-12
1.58519e-11
-6.49128e-12
1.91304e-11
-5.8071e-12
2.2029e-11
-5.1029e-12
2.4538e-11
-4.3812e-12
2.66496e-11
-3.6455e-12
2.83581e-11
-2.89955e-12
2.96608e-11
-2.14677e-12
3.05572e-11
-1.39142e-12
3.10491e-11
-6.38918e-13
3.1141e-11
1.05119e-13
3.08409e-11
8.34809e-13
3.01611e-11
1.54325e-12
2.91177e-11
2.22274e-12
2.77312e-11
2.86445e-12
2.60281e-11
3.45794e-12
2.40402e-11
3.99176e-12
2.18062e-11
4.45355e-12
1.93722e-11
4.8289e-12
1.67927e-11
5.10089e-12
1.41307e-11
5.25066e-12
1.1459e-11
5.25804e-12
8.86039e-12
5.10129e-12
6.42652e-12
4.75797e-12
4.25538e-12
4.20853e-12
2.44692e-12
3.44252e-12
1.09478e-12
2.46843e-12
2.71256e-13
1.34337e-12
2.83087e-13
9.57942e-13
-3.43472e-12
2.9763e-12
-2.97169e-12
5.13313e-12
-3.08224e-12
7.41651e-12
-4.04951e-12
9.85036e-12
-5.20908e-12
1.2431e-11
-6.22603e-12
1.51182e-11
-6.95389e-12
1.78514e-11
-7.34635e-12
2.05407e-11
-7.41295e-12
2.3105e-11
-7.19033e-12
2.54604e-11
-6.71866e-12
2.75332e-11
-6.04196e-12
2.92613e-11
-5.19666e-12
3.05887e-11
-4.21758e-12
3.1474e-11
-3.13058e-12
3.18832e-11
-1.96177e-12
3.17864e-11
-7.31204e-13
3.11656e-11
5.46401e-13
3.0006e-11
1.85298e-12
2.82975e-11
3.1774e-12
2.60396e-11
4.51026e-12
2.32296e-11
5.83768e-12
1.98736e-11
7.15375e-12
1.59786e-11
8.4509e-12
1.15531e-11
9.7203e-12
6.61362e-12
1.09579e-11
1.17313e-12
1.21578e-11
-4.75143e-12
1.3314e-11
-1.11386e-11
1.4425e-11
-1.79701e-11
1.54855e-11
-2.52233e-11
1.6492e-11
-3.28733e-11
1.74436e-11
-4.08983e-11
1.83369e-11
-4.92726e-11
1.91692e-11
-5.79688e-11
1.99404e-11
-6.69617e-11
2.06489e-11
-7.62241e-11
2.1293e-11
-8.57269e-11
2.18724e-11
-9.54436e-11
2.23859e-11
-1.05347e-10
2.28331e-11
-1.15409e-10
2.32151e-11
-1.25601e-10
2.35315e-11
-1.35895e-10
2.37816e-11
-1.46265e-10
2.39668e-11
-1.56681e-10
2.40882e-11
-1.67119e-10
2.41454e-11
-1.77551e-10
2.4139e-11
-1.87951e-10
2.40712e-11
-1.98293e-10
2.39434e-11
-2.08552e-10
2.37555e-11
-2.18703e-10
2.35093e-11
-2.28722e-10
2.32072e-11
-2.38586e-10
2.28508e-11
-2.48271e-10
2.24408e-11
-2.57755e-10
2.19787e-11
-2.67018e-10
2.14661e-11
-2.7604e-10
2.09047e-11
-2.848e-10
2.02975e-11
-2.93278e-10
1.96467e-11
-3.01455e-10
1.89524e-11
-3.09316e-10
1.82169e-11
-3.16844e-10
1.74433e-11
-3.24022e-10
1.66338e-11
-3.30839e-10
1.57895e-11
-3.37277e-10
1.49121e-11
-3.43325e-10
1.40042e-11
-3.4897e-10
1.30684e-11
-3.542e-10
1.21063e-11
-3.59006e-10
1.11204e-11
-3.63378e-10
1.01139e-11
-3.67308e-10
9.08836e-12
-3.70788e-10
8.04459e-12
-3.73812e-10
6.98441e-12
-3.76373e-10
5.91026e-12
-3.78467e-10
4.8245e-12
-3.80091e-10
3.73023e-12
-3.81241e-10
2.63058e-12
-3.81915e-10
1.52692e-12
-3.82113e-10
4.19933e-13
-3.81834e-10
-6.88307e-13
-3.81078e-10
-1.79449e-12
-3.79847e-10
-2.89586e-12
-3.78144e-10
-3.99109e-12
-3.75973e-10
-5.07888e-12
-3.73338e-10
-6.15679e-12
-3.70244e-10
-7.22206e-12
-3.66697e-10
-8.27245e-12
-3.62705e-10
-9.30606e-12
-3.58275e-10
-1.03208e-11
-3.53416e-10
-1.13149e-11
-3.48138e-10
-1.22866e-11
-3.42452e-10
-1.32336e-11
-3.36369e-10
-1.41532e-11
-3.299e-10
-1.50437e-11
-3.23061e-10
-1.59039e-11
-3.15864e-10
-1.67321e-11
-3.08325e-10
-1.75259e-11
-3.00459e-10
-1.82828e-11
-2.92282e-10
-1.9001e-11
-2.83812e-10
-1.96792e-11
-2.75066e-10
-2.03158e-11
-2.66064e-10
-2.09088e-11
-2.56825e-10
-2.14562e-11
-2.47369e-10
-2.19565e-11
-2.37717e-10
-2.24082e-11
-2.27889e-10
-2.28097e-11
-2.17908e-10
-2.31596e-11
-2.07796e-10
-2.34568e-11
-1.97579e-10
-2.36999e-11
-1.87278e-10
-2.38872e-11
-1.76918e-10
-2.40173e-11
-1.66524e-10
-2.40892e-11
-1.56121e-10
-2.41025e-11
-1.45734e-10
-2.40561e-11
-1.35391e-10
-2.39486e-11
-1.25115e-10
-2.37792e-11
-1.14934e-10
-2.35479e-11
-1.04875e-10
-2.32546e-11
-9.49634e-11
-2.2899e-11
-8.52259e-11
-2.24809e-11
-7.56895e-11
-2.20003e-11
-6.63804e-11
-2.14576e-11
-5.73247e-11
-2.08535e-11
-4.85484e-11
-2.01884e-11
-4.00766e-11
-1.94632e-11
-3.19345e-11
-1.86793e-11
-2.41473e-11
-1.78379e-11
-1.67376e-11
-1.69406e-11
-9.72749e-12
-1.59893e-11
-3.13903e-12
-1.49865e-11
3.00716e-12
-1.39347e-11
8.69146e-12
-1.28372e-11
1.38956e-11
-1.16969e-11
1.86046e-11
-1.05173e-11
2.28051e-11
-9.30311e-12
2.64845e-11
-8.05989e-12
2.96329e-11
-6.79341e-12
3.22436e-11
-5.50994e-12
3.43123e-11
-4.21608e-12
3.58382e-11
-2.91879e-12
3.68248e-11
-1.62641e-12
3.7279e-11
-3.49079e-13
3.72119e-11
9.02195e-13
3.664e-11
2.11561e-12
3.5585e-11
3.2779e-12
3.40744e-11
4.37418e-12
3.2143e-11
5.388e-12
2.98335e-11
6.30081e-12
2.71956e-11
7.0914e-12
2.42878e-11
7.73617e-12
2.11789e-11
8.20922e-12
1.7948e-11
8.48157e-12
1.46842e-11
8.52194e-12
1.14867e-11
8.29865e-12
8.46387e-12
7.78079e-12
5.73044e-12
6.94181e-12
3.40412e-12
5.76812e-12
1.60202e-12
4.27024e-12
4.34157e-13
2.51145e-12
7.17134e-13
7.92589e-13
-4.228e-12
2.90729e-12
-5.08701e-12
5.51706e-12
-5.69184e-12
8.37926e-12
-6.9111e-12
1.14014e-11
-8.23325e-12
1.45241e-11
-9.34876e-12
1.76815e-11
-1.01117e-11
2.08013e-11
-1.04663e-11
2.37994e-11
-1.04107e-11
2.65867e-11
-9.97826e-12
2.9081e-11
-9.21506e-12
3.12071e-11
-8.16612e-12
3.28928e-11
-6.88331e-12
3.40807e-11
-5.40612e-12
3.47219e-11
-3.77194e-12
3.47748e-11
-2.01602e-12
3.42101e-11
-1.65207e-13
3.30025e-11
1.75489e-12
3.1134e-11
3.72041e-12
2.85954e-11
5.71669e-12
2.53805e-11
7.72361e-12
2.14904e-11
9.72709e-12
1.69298e-11
1.1715e-11
1.17063e-11
1.36732e-11
5.83361e-12
1.55932e-11
-6.73348e-13
1.74655e-11
-7.79681e-12
1.92805e-11
-1.55139e-11
2.10326e-11
-2.38025e-11
2.2715e-11
-3.26383e-11
2.43205e-11
-4.19921e-11
2.58463e-11
-5.18359e-11
2.72881e-11
-6.21408e-11
2.86412e-11
-7.28738e-11
2.99032e-11
-8.40035e-11
3.10714e-11
-9.54986e-11
3.21434e-11
-1.07324e-10
3.3118e-11
-1.19445e-10
3.39936e-11
-1.3183e-10
3.47691e-11
-1.44442e-10
3.54448e-11
-1.57246e-10
3.602e-11
-1.70209e-10
3.64943e-11
-1.83296e-10
3.68681e-11
-1.96471e-10
3.71432e-11
-2.09702e-10
3.73198e-11
-2.22954e-10
3.73977e-11
-2.36194e-10
3.73795e-11
-2.49389e-10
3.72679e-11
-2.62509e-10
3.70631e-11
-2.7552e-10
3.67667e-11
-2.8839e-10
3.63816e-11
-3.01092e-10
3.59097e-11
-3.13596e-10
3.53535e-11
-3.25871e-10
3.47157e-11
-3.37891e-10
3.39984e-11
-3.49629e-10
3.3204e-11
-3.61059e-10
3.23354e-11
-3.72156e-10
3.13957e-11
-3.82896e-10
3.03875e-11
-3.93258e-10
2.9313e-11
-4.03218e-10
2.81765e-11
-4.12755e-10
2.69813e-11
-4.2185e-10
2.57292e-11
-4.30485e-10
2.44234e-11
-4.38642e-10
2.30683e-11
-4.46305e-10
2.16674e-11
-4.53458e-10
2.02229e-11
-4.60088e-10
1.87373e-11
-4.66179e-10
1.7214e-11
-4.71721e-10
1.56571e-11
-4.76705e-10
1.40704e-11
-4.8112e-10
1.24573e-11
-4.84956e-10
1.08207e-11
-4.88209e-10
9.1628e-12
-4.90871e-10
7.48672e-12
-4.92937e-10
5.79692e-12
-4.94404e-10
4.09777e-12
-4.95269e-10
2.39173e-12
-4.9553e-10
6.81087e-13
-4.95189e-10
-1.03029e-12
-4.94244e-10
-2.73851e-12
-4.92699e-10
-4.44064e-12
-4.90557e-10
-6.13383e-12
-4.87822e-10
-7.81466e-12
-4.84498e-10
-9.4796e-12
-4.80595e-10
-1.11254e-11
-4.76119e-10
-1.27488e-11
-4.71079e-10
-1.43465e-11
-4.65484e-10
-1.59154e-11
-4.59346e-10
-1.74525e-11
-4.52679e-10
-1.89548e-11
-4.45494e-10
-2.04188e-11
-4.37806e-10
-2.18409e-11
-4.2963e-10
-2.32189e-11
-4.20983e-10
-2.45503e-11
-4.11884e-10
-2.58318e-11
-4.02349e-10
-2.706e-11
-3.924e-10
-2.82314e-11
-3.82057e-10
-2.93436e-11
-3.71342e-10
-3.03947e-11
-3.60275e-10
-3.13815e-11
-3.48882e-10
-3.23011e-11
-3.37187e-10
-3.3151e-11
-3.25216e-10
-3.39285e-11
-3.12994e-10
-3.46312e-11
-3.00547e-10
-3.52567e-11
-2.87904e-10
-3.5803e-11
-2.75093e-10
-3.62679e-11
-2.62144e-10
-3.66494e-11
-2.49086e-10
-3.69452e-11
-2.35949e-10
-3.71535e-11
-2.22766e-10
-3.7273e-11
-2.09566e-10
-3.73023e-11
-1.96382e-10
-3.72397e-11
-1.83247e-10
-3.70837e-11
-1.70193e-10
-3.68332e-11
-1.57253e-10
-3.64881e-11
-1.4446e-10
-3.60481e-11
-1.31847e-10
-3.55126e-11
-1.19447e-10
-3.48812e-11
-1.07293e-10
-3.41542e-11
-9.54184e-11
-3.33321e-11
-8.38554e-11
-3.24159e-11
-7.26363e-11
-3.14068e-11
-6.17924e-11
-3.03064e-11
-5.13547e-11
-2.91163e-11
-4.13541e-11
-2.78389e-11
-3.18195e-11
-2.64761e-11
-2.2778e-11
-2.50308e-11
-1.42565e-11
-2.35071e-11
-6.28051e-12
-2.19096e-11
1.12674e-12
-2.0243e-11
7.94299e-12
-1.85125e-11
1.41485e-11
-1.67235e-11
1.97269e-11
-1.48827e-11
2.46637e-11
-1.29978e-11
2.89476e-11
-1.1078e-11
3.25708e-11
-9.13283e-12
3.55286e-11
-7.1727e-12
3.78197e-11
-5.20939e-12
3.94481e-11
-3.25545e-12
4.04232e-11
-1.3249e-12
4.07592e-11
5.65868e-13
4.04763e-11
2.39846e-12
3.96011e-11
4.15309e-12
3.81668e-11
5.80799e-12
3.62154e-11
7.33869e-12
3.37975e-11
8.71824e-12
3.09722e-11
9.9167e-12
2.78083e-11
1.09003e-11
2.43849e-11
1.16323e-11
2.07922e-11
1.20736e-11
1.71315e-11
1.21825e-11
1.35144e-11
1.19161e-11
1.00612e-11
1.1234e-11
6.90037e-12
1.01022e-11
4.16709e-12
8.50067e-12
2.00312e-12
6.43389e-12
5.58607e-13
3.95639e-12
1.27583e-12
6.81611e-13
-4.91016e-12
2.77867e-12
-7.18459e-12
5.60287e-12
-8.51777e-12
8.80587e-12
-1.01127e-11
1.22047e-11
-1.16323e-11
1.56816e-11
-1.28258e-11
1.91386e-11
-1.35693e-11
2.2484e-11
-1.38123e-11
2.56288e-11
-1.35541e-11
2.84781e-11
-1.28298e-11
3.09497e-11
-1.16856e-11
3.29615e-11
-1.01786e-11
3.4441e-11
-8.36246e-12
3.53275e-11
-6.29093e-12
3.5565e-11
-4.01089e-12
3.51113e-11
-1.56259e-12
3.39318e-11
1.01441e-12
3.19986e-11
3.68679e-12
2.92943e-11
6.42679e-12
2.58047e-11
9.20581e-12
2.15251e-11
1.20027e-11
1.64558e-11
1.47971e-11
1.0601e-11
1.75682e-11
3.97241e-12
2.03019e-11
-3.41668e-12
2.29826e-11
-1.15497e-11
2.55965e-11
-2.04023e-11
2.81332e-11
-2.99518e-11
3.05822e-11
-4.01712e-11
3.29336e-11
-5.10297e-11
3.51797e-11
-6.24967e-11
3.73138e-11
-7.45389e-11
3.93292e-11
-8.71197e-11
4.12216e-11
-1.00203e-10
4.29865e-11
-1.13751e-10
4.46194e-11
-1.27724e-10
4.61178e-11
-1.42083e-10
4.74787e-11
-1.5679e-10
4.87001e-11
-1.71802e-10
4.97812e-11
-1.87078e-10
5.07216e-11
-2.02578e-10
5.152e-11
-2.1826e-10
5.21762e-11
-2.34084e-10
5.2692e-11
-2.50008e-10
5.30681e-11
-2.65993e-10
5.33042e-11
-2.81998e-10
5.34023e-11
-2.97982e-10
5.33653e-11
-3.13909e-10
5.31948e-11
-3.29739e-10
5.28925e-11
-3.45434e-10
5.24621e-11
-3.60958e-10
5.19062e-11
-3.76275e-10
5.12272e-11
-3.9135e-10
5.04289e-11
-4.06148e-10
4.95144e-11
-4.20637e-10
4.84869e-11
-4.34785e-10
4.7351e-11
-4.4856e-10
4.61109e-11
-4.61932e-10
4.47692e-11
-4.74874e-10
4.33298e-11
-4.87359e-10
4.17975e-11
-4.9936e-10
4.01775e-11
-5.10852e-10
3.84736e-11
-5.21811e-10
3.66888e-11
-5.32215e-10
3.48279e-11
-5.42043e-10
3.28968e-11
-5.51276e-10
3.08999e-11
-5.59897e-10
2.88414e-11
-5.67886e-10
2.6726e-11
-5.75228e-10
2.45576e-11
-5.8191e-10
2.23405e-11
-5.87918e-10
2.008e-11
-5.93242e-10
1.77813e-11
-5.9787e-10
1.5449e-11
-6.01796e-10
1.30872e-11
-6.05011e-10
1.07009e-11
-6.07509e-10
8.29531e-12
-6.09286e-10
5.87486e-12
-6.10338e-10
3.44372e-12
-6.10665e-10
1.00679e-12
-6.10265e-10
-1.43037e-12
-6.09139e-10
-3.86332e-12
-6.07292e-10
-6.28829e-12
-6.04725e-10
-8.70059e-12
-6.01444e-10
-1.10951e-11
-5.97456e-10
-1.3467e-11
-5.9277e-10
-1.58118e-11
-5.87394e-10
-1.8125e-11
-5.81339e-10
-2.04019e-11
-5.74616e-10
-2.26382e-11
-5.67239e-10
-2.48296e-11
-5.59223e-10
-2.69711e-11
-5.50584e-10
-2.9058e-11
-5.41339e-10
-3.10858e-11
-5.31507e-10
-3.30512e-11
-5.21107e-10
-3.49503e-11
-5.1016e-10
-3.67782e-11
-4.98688e-10
-3.85303e-11
-4.86716e-10
-4.02026e-11
-4.74268e-10
-4.17914e-11
-4.6137e-10
-4.3293e-11
-4.48048e-10
-4.47033e-11
-4.34331e-10
-4.60182e-11
-4.20248e-10
-4.72343e-11
-4.05829e-10
-4.83478e-11
-3.91105e-10
-4.93553e-11
-3.76108e-10
-5.02535e-11
-3.60872e-10
-5.10396e-11
-3.4543e-10
-5.17102e-11
-3.29818e-10
-5.22623e-11
-3.1407e-10
-5.2693e-11
-2.98222e-10
-5.30003e-11
-2.82313e-10
-5.31821e-11
-2.6638e-10
-5.32362e-11
-2.50459e-10
-5.31601e-11
-2.34591e-10
-5.29522e-11
-2.18813e-10
-5.26112e-11
-2.03165e-10
-5.21363e-11
-1.87686e-10
-5.15272e-11
-1.72416e-10
-5.07833e-11
-1.57392e-10
-4.99042e-11
-1.42656e-10
-4.88904e-11
-1.28246e-10
-4.77427e-11
-1.14199e-10
-4.6462e-11
-1.00556e-10
-4.50503e-11
-8.73516e-11
-4.35101e-11
-7.46238e-11
-4.18437e-11
-6.24077e-11
-4.00543e-11
-5.07375e-11
-3.81456e-11
-3.96461e-11
-3.61216e-11
-2.91652e-11
-3.39876e-11
-1.93243e-11
-3.17503e-11
-1.01506e-11
-2.94163e-11
-1.66929e-12
-2.69929e-11
6.09669e-12
-2.44887e-11
1.31273e-11
-2.19133e-11
1.94057e-11
-1.92774e-11
2.49195e-11
-1.65928e-11
2.96599e-11
-1.38732e-11
3.36213e-11
-1.11335e-11
3.6803e-11
-8.39021e-12
3.92099e-11
-5.66163e-12
4.08523e-11
-2.96752e-12
4.17469e-11
-3.29563e-13
4.19177e-11
2.22741e-12
4.13951e-11
4.67565e-12
4.0217e-11
6.98544e-12
3.84311e-11
9.12414e-12
3.60943e-11
1.10553e-11
3.32723e-11
1.27387e-11
3.00419e-11
1.41306e-11
2.64909e-11
1.51836e-11
2.27174e-11
1.5847e-11
1.8831e-11
1.60683e-11
1.49527e-11
1.57942e-11
1.12135e-11
1.49735e-11
7.7538e-12
1.35618e-11
4.72567e-12
1.15286e-11
2.29459e-12
8.86484e-12
6.46419e-13
5.60483e-12
1.92226e-12
6.25225e-13
-5.53409e-12
2.64703e-12
-9.20787e-12
5.52978e-12
-1.1401e-11
8.88103e-12
-1.34651e-11
1.24628e-11
-1.52144e-11
1.61104e-11
-1.64734e-11
1.96942e-11
-1.71534e-11
2.31032e-11
-1.72207e-11
2.62336e-11
-1.66861e-11
2.89908e-11
-1.5585e-11
3.1281e-11
-1.39768e-11
3.30236e-11
-1.19215e-11
3.41442e-11
-9.48208e-12
3.45763e-11
-6.72371e-12
3.4265e-11
-3.6987e-12
3.31636e-11
-4.60876e-13
3.12341e-11
2.94261e-12
2.84487e-11
6.47223e-12
2.4787e-11
1.00887e-11
2.02351e-11
1.37571e-11
1.47879e-11
1.74507e-11
8.44447e-12
2.11397e-11
1.21166e-12
2.48009e-11
-6.89811e-12
2.84132e-11
-1.58714e-11
3.19552e-11
-2.56862e-11
3.54114e-11
-3.63179e-11
3.87659e-11
-4.77408e-11
4.20039e-11
-5.99219e-11
4.51144e-11
-7.28276e-11
4.80866e-11
-8.6424e-11
5.09098e-11
-1.00671e-10
5.35765e-11
-1.15529e-10
5.60798e-11
-1.30957e-10
5.84134e-11
-1.46911e-10
6.05725e-11
-1.63346e-10
6.25528e-11
-1.80217e-10
6.43504e-11
-1.9748e-10
6.59628e-11
-2.15087e-10
6.73886e-11
-2.32991e-10
6.86262e-11
-2.51145e-10
6.96743e-11
-2.69503e-10
7.0534e-11
-2.88016e-10
7.12063e-11
-3.06638e-10
7.16907e-11
-3.25324e-10
7.19891e-11
-3.44025e-10
7.21046e-11
-3.62698e-10
7.20389e-11
-3.81298e-10
7.17941e-11
-3.99778e-10
7.13739e-11
-4.18098e-10
7.0782e-11
-4.36214e-10
7.0022e-11
-4.54085e-10
6.90982e-11
-4.71669e-10
6.80146e-11
-4.88929e-10
6.67749e-11
-5.05826e-10
6.53841e-11
-5.22324e-10
6.38484e-11
-5.38386e-10
6.21725e-11
-5.53977e-10
6.03604e-11
-5.69065e-10
5.84178e-11
-5.83618e-10
5.63514e-11
-5.97606e-10
5.41665e-11
-6.11002e-10
5.18685e-11
-6.23777e-10
4.9463e-11
-6.35904e-10
4.69564e-11
-6.47361e-10
4.43546e-11
-6.58123e-10
4.16634e-11
-6.68171e-10
3.88889e-11
-6.77484e-10
3.60382e-11
-6.86044e-10
3.31172e-11
-6.93836e-10
3.01315e-11
-7.00844e-10
2.70877e-11
-7.07053e-10
2.39918e-11
-7.12453e-10
2.08497e-11
-7.17035e-10
1.76682e-11
-7.20789e-10
1.44547e-11
-7.23709e-10
1.12153e-11
-7.25789e-10
7.95512e-12
-7.27026e-10
4.68037e-12
-7.27417e-10
1.3982e-12
-7.26963e-10
-1.88452e-12
-7.25665e-10
-5.16191e-12
-7.23525e-10
-8.42848e-12
-7.20548e-10
-1.16779e-11
-7.16739e-10
-1.49034e-11
-7.12107e-10
-1.80988e-11
-7.06662e-10
-2.12578e-11
-7.00412e-10
-2.43743e-11
-6.93371e-10
-2.74423e-11
-6.85553e-10
-3.04562e-11
-6.76974e-10
-3.34096e-11
-6.6765e-10
-3.62958e-11
-6.57598e-10
-3.91088e-11
-6.4684e-10
-4.18435e-11
-6.35398e-10
-4.44942e-11
-6.23293e-10
-4.70554e-11
-6.1055e-10
-4.95208e-11
-5.97195e-10
-5.18845e-11
-5.83255e-10
-5.41418e-11
-5.68759e-10
-5.62873e-11
-5.53736e-10
-5.83155e-11
-5.38218e-10
-6.02212e-11
-5.22237e-10
-6.19993e-11
-5.05827e-10
-6.36445e-11
-4.89023e-10
-6.51523e-11
-4.7186e-10
-6.65181e-11
-4.54376e-10
-6.77375e-11
-4.36609e-10
-6.88067e-11
-4.18599e-10
-6.97213e-11
-4.00385e-10
-7.04768e-11
-3.82007e-10
-7.10702e-11
-3.63509e-10
-7.14985e-11
-3.44932e-10
-7.17588e-11
-3.26321e-10
-7.1848e-11
-3.07718e-10
-7.17633e-11
-2.89167e-10
-7.15023e-11
-2.70715e-10
-7.1064e-11
-2.52405e-10
-7.04469e-11
-2.34282e-10
-6.96499e-11
-2.16392e-10
-6.86729e-11
-1.9878e-10
-6.75159e-11
-1.81492e-10
-6.61791e-11
-1.6457e-10
-6.46638e-11
-1.4806e-10
-6.29717e-11
-1.32006e-10
-6.11049e-11
-1.16449e-10
-5.90666e-11
-1.01432e-10
-5.68606e-11
-8.6996e-11
-5.44906e-11
-7.31783e-11
-5.19619e-11
-6.00171e-11
-4.92811e-11
-4.75488e-11
-4.64552e-11
-3.5807e-11
-4.34921e-11
-2.48223e-11
-4.0401e-11
-1.46236e-11
-3.71917e-11
-5.2365e-12
-3.38756e-11
3.31698e-12
-3.0466e-11
1.10176e-11
-2.69776e-11
1.78508e-11
-2.3426e-11
2.38067e-11
-1.98288e-11
2.88794e-11
-1.62059e-11
3.3068e-11
-1.25791e-11
3.63786e-11
-8.9721e-12
3.88229e-11
-5.41128e-12
4.0419e-11
-1.92569e-12
4.11928e-11
1.45302e-12
4.11786e-11
4.6897e-12
4.04184e-11
7.7456e-12
3.89638e-11
1.05786e-11
3.68762e-11
1.31429e-11
3.42269e-11
1.53881e-11
3.10981e-11
1.72592e-11
2.75839e-11
1.86977e-11
2.37892e-11
1.96419e-11
1.98298e-11
2.00277e-11
1.58338e-11
1.97899e-11
1.19413e-11
1.88659e-11
8.3042e-12
1.71988e-11
5.08985e-12
1.47431e-11
2.48453e-12
1.14704e-11
7.0244e-13
7.3869e-12
2.6245e-12
5.90463e-13
-6.12525e-12
2.52377e-12
-1.11398e-11
5.35918e-12
-1.42373e-11
8.7119e-12
-1.68161e-11
1.23122e-11
-1.88152e-11
1.59653e-11
-2.0127e-11
1.9515e-11
-2.07022e-11
2.28289e-11
-2.05365e-11
2.57953e-11
-1.96519e-11
2.8308e-11
-1.80981e-11
3.02726e-11
-1.59409e-11
3.1603e-11
-1.32509e-11
3.22207e-11
-1.01014e-11
3.20597e-11
-6.56242e-12
3.10635e-11
-2.70167e-12
2.91823e-11
1.42035e-12
2.63783e-11
5.74745e-12
2.26211e-11
1.02294e-11
1.78894e-11
1.48194e-11
1.21706e-11
1.94768e-11
5.45705e-12
2.41631e-11
-2.24892e-12
2.88451e-11
-1.09412e-11
3.34931e-11
-2.06071e-11
3.80779e-11
-3.1228e-11
4.25761e-11
-4.27817e-11
4.69658e-11
-5.52421e-11
5.12259e-11
-6.85779e-11
5.53392e-11
-8.27543e-11
5.92909e-11
-9.77346e-11
6.30664e-11
-1.13479e-10
6.66535e-11
-1.29943e-10
7.00415e-11
-1.47083e-10
7.32212e-11
-1.64855e-10
7.61845e-11
-1.83207e-10
7.89252e-11
-2.02091e-10
8.14374e-11
-2.21458e-10
8.37163e-11
-2.41255e-10
8.57595e-11
-2.61429e-10
8.75638e-11
-2.8193e-10
8.91265e-11
-3.02704e-10
9.04481e-11
-3.23698e-10
9.1529e-11
-3.4486e-10
9.23683e-11
-3.66137e-10
9.29672e-11
-3.87476e-10
9.33287e-11
-4.08826e-10
9.34554e-11
-4.30136e-10
9.3349e-11
-4.51355e-10
9.30137e-11
-4.72434e-10
9.24535e-11
-4.93323e-10
9.16722e-11
-5.13977e-10
9.06752e-11
-5.34346e-10
8.94679e-11
-5.54386e-10
8.80548e-11
-5.74053e-10
8.64416e-11
-5.93303e-10
8.46351e-11
-6.12095e-10
8.26415e-11
-6.3039e-10
8.04667e-11
-6.48147e-10
7.81171e-11
-6.6533e-10
7.56007e-11