/*--------------------------------*- C++ -*----------------------------------*\
  =========                 |
  \\      /  F ield         | OpenFOAM: The Open Source CFD Toolbox
   \\    /   O peration     | Website:  https://openfoam.org
    \\  /    A nd           | Version:  7
     \\/     M anipulation  |
\*---------------------------------------------------------------------------*/
FoamFile
{
    version     2.0;
    format      ascii;
    class       volVectorField;
    location    "0.2625";
    object      U;
}
// * * * * * * * * * * * * * * * * * * * * * * * * * * * * * * * * * * * * * //

dimensions      [0 1 -1 0 0 0 0];

internalField   nonuniform List<vector> 
51200
(
(2.45079e-07 2.58779e-07 0)
(-8.00348e-08 3.59398e-07 0)
(-1.40125e-07 1.40933e-07 0)
(-3.31954e-07 6.48504e-08 0)
(-2.83848e-07 1.1104e-08 0)
(-1.95837e-07 -2.03498e-08 0)
(-7.89125e-08 -3.56957e-08 0)
(5.20869e-08 -4.37837e-08 0)
(1.87788e-07 -4.66533e-08 0)
(3.22227e-07 -4.65282e-08 0)
(4.48975e-07 -4.42468e-08 0)
(5.67323e-07 -4.06527e-08 0)
(6.74016e-07 -3.69051e-08 0)
(7.67276e-07 -3.26814e-08 0)
(8.47097e-07 -2.76498e-08 0)
(9.11567e-07 -2.28395e-08 0)
(9.60411e-07 -1.80922e-08 0)
(9.942e-07 -1.32349e-08 0)
(1.01172e-06 -8.74229e-09 0)
(1.01301e-06 -4.31605e-09 0)
(9.99058e-07 5.86014e-10 0)
(9.69039e-07 5.10721e-09 0)
(9.23068e-07 9.37723e-09 0)
(8.62549e-07 1.40412e-08 0)
(7.86765e-07 1.859e-08 0)
(6.95924e-07 2.28038e-08 0)
(5.9162e-07 2.72459e-08 0)
(4.73578e-07 3.17763e-08 0)
(3.4214e-07 3.57455e-08 0)
(1.9866e-07 3.93489e-08 0)
(4.34914e-08 4.30901e-08 0)
(-1.23044e-07 4.64535e-08 0)
(-2.9996e-07 4.90682e-08 0)
(-4.86394e-07 5.1581e-08 0)
(-6.81943e-07 5.41822e-08 0)
(-8.86102e-07 5.63244e-08 0)
(-1.09803e-06 5.82379e-08 0)
(-1.31679e-06 6.03262e-08 0)
(-1.5417e-06 6.22835e-08 0)
(-1.77228e-06 6.39056e-08 0)
(-2.00767e-06 6.52668e-08 0)
(-2.24697e-06 6.64232e-08 0)
(-2.48977e-06 6.74166e-08 0)
(-2.73544e-06 6.80917e-08 0)
(-2.98301e-06 6.84501e-08 0)
(-3.23176e-06 6.87794e-08 0)
(-3.48106e-06 6.89969e-08 0)
(-3.73023e-06 6.87459e-08 0)
(-3.97856e-06 6.81227e-08 0)
(-4.2253e-06 6.76086e-08 0)
(-4.46981e-06 6.72883e-08 0)
(-4.71173e-06 6.68142e-08 0)
(-4.95043e-06 6.5932e-08 0)
(-5.1851e-06 6.4756e-08 0)
(-5.41524e-06 6.3432e-08 0)
(-5.64046e-06 6.18176e-08 0)
(-5.86025e-06 5.98578e-08 0)
(-6.07398e-06 5.78069e-08 0)
(-6.28112e-06 5.59111e-08 0)
(-6.48132e-06 5.42024e-08 0)
(-6.67414e-06 5.24846e-08 0)
(-6.85902e-06 5.04809e-08 0)
(-7.03555e-06 4.80935e-08 0)
(-7.20333e-06 4.53864e-08 0)
(-7.36203e-06 4.24263e-08 0)
(-7.51143e-06 3.93491e-08 0)
(-7.65118e-06 3.64637e-08 0)
(-7.78093e-06 3.40093e-08 0)
(-7.90056e-06 3.17499e-08 0)
(-8.00995e-06 2.91329e-08 0)
(-8.10884e-06 2.59388e-08 0)
(-8.19683e-06 2.24769e-08 0)
(-8.2736e-06 1.9147e-08 0)
(-8.3391e-06 1.60623e-08 0)
(-8.39334e-06 1.31079e-08 0)
(-8.43624e-06 1.0116e-08 0)
(-8.46777e-06 6.94721e-09 0)
(-8.48786e-06 3.58367e-09 0)
(-8.49637e-06 1.48296e-10 0)
(-8.49322e-06 -3.19359e-09 0)
(-8.47854e-06 -6.33864e-09 0)
(-8.45247e-06 -9.32417e-09 0)
(-8.41495e-06 -1.23206e-08 0)
(-8.36594e-06 -1.54754e-08 0)
(-8.30559e-06 -1.87661e-08 0)
(-8.23413e-06 -2.20075e-08 0)
(-8.15165e-06 -2.50207e-08 0)
(-8.05824e-06 -2.78462e-08 0)
(-7.95413e-06 -3.07208e-08 0)
(-7.83955e-06 -3.37574e-08 0)
(-7.71477e-06 -3.67749e-08 0)
(-7.58001e-06 -3.95288e-08 0)
(-7.4356e-06 -4.19563e-08 0)
(-7.28187e-06 -4.42104e-08 0)
(-7.1191e-06 -4.65413e-08 0)
(-6.94752e-06 -4.90795e-08 0)
(-6.76745e-06 -5.16845e-08 0)
(-6.57932e-06 -5.40456e-08 0)
(-6.38357e-06 -5.59762e-08 0)
(-6.18058e-06 -5.75992e-08 0)
(-5.97084e-06 -5.92223e-08 0)
(-5.75482e-06 -6.10212e-08 0)
(-5.53296e-06 -6.28433e-08 0)
(-5.30577e-06 -6.43835e-08 0)
(-5.07369e-06 -6.55352e-08 0)
(-4.83726e-06 -6.64282e-08 0)
(-4.59709e-06 -6.72244e-08 0)
(-4.35372e-06 -6.80088e-08 0)
(-4.10768e-06 -6.87375e-08 0)
(-3.85958e-06 -6.92945e-08 0)
(-3.61002e-06 -6.96166e-08 0)
(-3.3596e-06 -6.96807e-08 0)
(-3.10892e-06 -6.95279e-08 0)
(-2.85858e-06 -6.92834e-08 0)
(-2.60925e-06 -6.89612e-08 0)
(-2.36165e-06 -6.84088e-08 0)
(-2.11643e-06 -6.75221e-08 0)
(-1.87428e-06 -6.63443e-08 0)
(-1.63588e-06 -6.50081e-08 0)
(-1.40189e-06 -6.36308e-08 0)
(-1.17296e-06 -6.21726e-08 0)
(-9.49748e-07 -6.04902e-08 0)
(-7.32892e-07 -5.85162e-08 0)
(-5.23097e-07 -5.62597e-08 0)
(-3.21073e-07 -5.37871e-08 0)
(-1.27419e-07 -5.12287e-08 0)
(5.72672e-08 -4.86377e-08 0)
(2.32366e-07 -4.59013e-08 0)
(3.97225e-07 -4.28507e-08 0)
(5.51158e-07 -3.94394e-08 0)
(6.93618e-07 -3.58466e-08 0)
(8.24191e-07 -3.23213e-08 0)
(9.42383e-07 -2.88701e-08 0)
(1.04765e-06 -2.52427e-08 0)
(1.13954e-06 -2.12572e-08 0)
(1.2177e-06 -1.69824e-08 0)
(1.28181e-06 -1.26169e-08 0)
(1.33164e-06 -8.31881e-09 0)
(1.36692e-06 -4.11386e-09 0)
(1.38747e-06 8.91408e-11 0)
(1.3933e-06 4.36705e-09 0)
(1.38456e-06 8.70808e-09 0)
(1.36137e-06 1.30319e-08 0)
(1.32404e-06 1.72369e-08 0)
(1.27308e-06 2.1236e-08 0)
(1.20902e-06 2.50441e-08 0)
(1.13254e-06 2.87128e-08 0)
(1.04464e-06 3.2118e-08 0)
(9.46648e-07 3.50233e-08 0)
(8.40121e-07 3.73234e-08 0)
(7.26945e-07 3.89891e-08 0)
(6.09439e-07 3.99112e-08 0)
(4.90364e-07 3.98944e-08 0)
(3.73146e-07 3.86268e-08 0)
(2.62034e-07 3.56792e-08 0)
(1.62001e-07 3.06188e-08 0)
(7.88329e-08 2.30254e-08 0)
(1.92013e-08 1.25168e-08 0)
(-1.01518e-08 -2.77727e-10 0)
(-8.39257e-09 -8.54905e-09 0)
(3.64055e-07 -6.92681e-08 0)
(4.6687e-07 3.81613e-07 0)
(3.51646e-07 1.60183e-07 0)
(3.24431e-07 3.21823e-08 0)
(4.11157e-07 -8.33167e-08 0)
(5.69322e-07 -1.61932e-07 0)
(7.81114e-07 -2.08681e-07 0)
(1.02737e-06 -2.32676e-07 0)
(1.29134e-06 -2.3937e-07 0)
(1.55671e-06 -2.36155e-07 0)
(1.81461e-06 -2.23249e-07 0)
(2.05429e-06 -2.04957e-07 0)
(2.26963e-06 -1.83181e-07 0)
(2.45633e-06 -1.57846e-07 0)
(2.60845e-06 -1.30513e-07 0)
(2.72433e-06 -1.01771e-07 0)
(2.80199e-06 -7.14223e-08 0)
(2.83829e-06 -4.09116e-08 0)
(2.83321e-06 -1.05691e-08 0)
(2.78618e-06 2.06381e-08 0)
(2.69595e-06 5.14994e-08 0)
(2.56304e-06 8.18363e-08 0)
(2.38849e-06 1.12291e-07 0)
(2.17187e-06 1.41974e-07 0)
(1.91424e-06 1.70589e-07 0)
(1.61735e-06 1.9867e-07 0)
(1.28135e-06 2.25923e-07 0)
(9.07723e-07 2.52069e-07 0)
(4.98504e-07 2.7709e-07 0)
(5.47956e-08 3.00883e-07 0)
(-4.21634e-07 3.23589e-07 0)
(-9.28897e-07 3.44915e-07 0)
(-1.4654e-06 3.64768e-07 0)
(-2.0291e-06 3.83507e-07 0)
(-2.61809e-06 4.00869e-07 0)
(-3.23063e-06 4.16493e-07 0)
(-3.86454e-06 4.30748e-07 0)
(-4.51779e-06 4.43876e-07 0)
(-5.18846e-06 4.55495e-07 0)
(-5.87446e-06 4.65574e-07 0)
(-6.57373e-06 4.74421e-07 0)
(-7.28411e-06 4.8191e-07 0)
(-8.00349e-06 4.87843e-07 0)
(-8.73005e-06 4.92248e-07 0)
(-9.4618e-06 4.9522e-07 0)
(-1.01964e-05 4.97002e-07 0)
(-1.0932e-05 4.9749e-07 0)
(-1.16669e-05 4.96319e-07 0)
(-1.2399e-05 4.93657e-07 0)
(-1.31264e-05 4.89986e-07 0)
(-1.38473e-05 4.85232e-07 0)
(-1.45602e-05 4.79198e-07 0)
(-1.52632e-05 4.72001e-07 0)
(-1.59545e-05 4.63806e-07 0)
(-1.66324e-05 4.54571e-07 0)
(-1.72955e-05 4.4408e-07 0)
(-1.79424e-05 4.32345e-07 0)
(-1.85714e-05 4.19592e-07 0)
(-1.91811e-05 4.05946e-07 0)
(-1.97703e-05 3.91526e-07 0)
(-2.03378e-05 3.76381e-07 0)
(-2.08824e-05 3.60425e-07 0)
(-2.14028e-05 3.43702e-07 0)
(-2.18974e-05 3.26212e-07 0)
(-2.23655e-05 3.07772e-07 0)
(-2.28065e-05 2.88452e-07 0)
(-2.32195e-05 2.68684e-07 0)
(-2.36034e-05 2.48818e-07 0)
(-2.39574e-05 2.28728e-07 0)
(-2.4281e-05 2.08e-07 0)
(-2.45735e-05 1.86542e-07 0)
(-2.48343e-05 1.64636e-07 0)
(-2.50628e-05 1.42501e-07 0)
(-2.52588e-05 1.20161e-07 0)
(-2.54217e-05 9.76187e-08 0)
(-2.55512e-05 7.49027e-08 0)
(-2.56472e-05 5.20235e-08 0)
(-2.57093e-05 2.90314e-08 0)
(-2.57374e-05 5.97885e-09 0)
(-2.57318e-05 -1.71424e-08 0)
(-2.56926e-05 -4.02506e-08 0)
(-2.56198e-05 -6.31151e-08 0)
(-2.55132e-05 -8.56636e-08 0)
(-2.53729e-05 -1.0812e-07 0)
(-2.51996e-05 -1.30646e-07 0)
(-2.49936e-05 -1.53041e-07 0)
(-2.47554e-05 -1.74937e-07 0)
(-2.44851e-05 -1.96214e-07 0)
(-2.41834e-05 -2.1708e-07 0)
(-2.3851e-05 -2.37731e-07 0)
(-2.34886e-05 -2.58047e-07 0)
(-2.30971e-05 -2.77759e-07 0)
(-2.26771e-05 -2.96709e-07 0)
(-2.22294e-05 -3.14902e-07 0)
(-2.17548e-05 -3.32483e-07 0)
(-2.12543e-05 -3.49625e-07 0)
(-2.07292e-05 -3.66313e-07 0)
(-2.01806e-05 -3.82236e-07 0)
(-1.96096e-05 -3.97061e-07 0)
(-1.90172e-05 -4.10761e-07 0)
(-1.84047e-05 -4.23586e-07 0)
(-1.77735e-05 -4.3576e-07 0)
(-1.71251e-05 -4.47202e-07 0)
(-1.64608e-05 -4.57586e-07 0)
(-1.57821e-05 -4.6672e-07 0)
(-1.50904e-05 -4.74682e-07 0)
(-1.43874e-05 -4.81572e-07 0)
(-1.36747e-05 -4.87427e-07 0)
(-1.2954e-05 -4.92234e-07 0)
(-1.2227e-05 -4.95906e-07 0)
(-1.14954e-05 -4.98367e-07 0)
(-1.07608e-05 -4.99552e-07 0)
(-1.00251e-05 -4.99407e-07 0)
(-9.29032e-06 -4.97994e-07 0)
(-8.55822e-06 -4.95373e-07 0)
(-7.83071e-06 -4.91421e-07 0)
(-7.10961e-06 -4.86015e-07 0)
(-6.39688e-06 -4.79193e-07 0)
(-5.69456e-06 -4.71056e-07 0)
(-5.0046e-06 -4.61689e-07 0)
(-4.32889e-06 -4.51076e-07 0)
(-3.66934e-06 -4.39102e-07 0)
(-3.02781e-06 -4.25744e-07 0)
(-2.40625e-06 -4.11067e-07 0)
(-1.8066e-06 -3.95089e-07 0)
(-1.23072e-06 -3.77849e-07 0)
(-6.80435e-07 -3.59424e-07 0)
(-1.57545e-07 -3.39823e-07 0)
(3.36223e-07 -3.18985e-07 0)
(7.99215e-07 -2.96867e-07 0)
(1.22988e-06 -2.73567e-07 0)
(1.62677e-06 -2.49351e-07 0)
(1.98846e-06 -2.24411e-07 0)
(2.31351e-06 -1.98652e-07 0)
(2.60072e-06 -1.71889e-07 0)
(2.84915e-06 -1.44178e-07 0)
(3.05792e-06 -1.15818e-07 0)
(3.22633e-06 -8.71596e-08 0)
(3.35389e-06 -5.84321e-08 0)
(3.44029e-06 -2.96797e-08 0)
(3.48553e-06 -8.98641e-10 0)
(3.48992e-06 2.77824e-08 0)
(3.45403e-06 5.6088e-08 0)
(3.37883e-06 8.36675e-08 0)
(3.26573e-06 1.10123e-07 0)
(3.11653e-06 1.35086e-07 0)
(2.9334e-06 1.58279e-07 0)
(2.71921e-06 1.79347e-07 0)
(2.47767e-06 1.97666e-07 0)
(2.21319e-06 2.125e-07 0)
(1.93096e-06 2.23131e-07 0)
(1.63717e-06 2.28724e-07 0)
(1.33916e-06 2.28276e-07 0)
(1.04561e-06 2.20607e-07 0)
(7.66676e-07 2.04299e-07 0)
(5.13784e-07 1.7785e-07 0)
(2.99141e-07 1.40086e-07 0)
(1.34918e-07 9.07967e-08 0)
(3.30635e-08 3.37352e-08 0)
(-4.87771e-10 -1.03452e-08 0)
(1.67687e-07 -1.96133e-07 0)
(3.53219e-07 5.01261e-08 0)
(5.89288e-07 3.36651e-08 0)
(7.83964e-07 -1.07138e-07 0)
(1.01631e-06 -2.6589e-07 0)
(1.29604e-06 -3.95372e-07 0)
(1.61467e-06 -4.84852e-07 0)
(1.96171e-06 -5.33678e-07 0)
(2.32041e-06 -5.52774e-07 0)
(2.67779e-06 -5.43863e-07 0)
(3.01896e-06 -5.15877e-07 0)
(3.33211e-06 -4.72585e-07 0)
(3.60949e-06 -4.16604e-07 0)
(3.84133e-06 -3.52342e-07 0)
(4.02237e-06 -2.81345e-07 0)
(4.14831e-06 -2.04101e-07 0)
(4.21374e-06 -1.2397e-07 0)
(4.21681e-06 -4.10824e-08 0)
(4.1561e-06 4.39887e-08 0)
(4.02882e-06 1.29254e-07 0)
(3.83514e-06 2.14769e-07 0)
(3.57564e-06 3.00335e-07 0)
(3.2493e-06 3.84673e-07 0)
(2.85775e-06 4.67425e-07 0)
(2.40248e-06 5.4872e-07 0)
(1.88403e-06 6.27484e-07 0)
(1.30465e-06 7.03541e-07 0)
(6.66469e-07 7.77224e-07 0)
(-2.87214e-08 8.47555e-07 0)
(-7.78089e-07 9.14589e-07 0)
(-1.57905e-06 9.78428e-07 0)
(-2.42933e-06 1.03856e-06 0)
(-3.32579e-06 1.09504e-06 0)
(-4.26534e-06 1.14805e-06 0)
(-5.24523e-06 1.19716e-06 0)
(-6.26217e-06 1.24211e-06 0)
(-7.31282e-06 1.28301e-06 0)
(-8.39401e-06 1.31978e-06 0)
(-9.50258e-06 1.35237e-06 0)
(-1.06354e-05 1.38087e-06 0)
(-1.1789e-05 1.40536e-06 0)
(-1.296e-05 1.42594e-06 0)
(-1.41451e-05 1.44241e-06 0)
(-1.53412e-05 1.45456e-06 0)
(-1.65448e-05 1.46267e-06 0)
(-1.77527e-05 1.46704e-06 0)
(-1.8962e-05 1.46747e-06 0)
(-2.01696e-05 1.46382e-06 0)
(-2.13723e-05 1.45637e-06 0)
(-2.25668e-05 1.44538e-06 0)
(-2.37505e-05 1.43072e-06 0)
(-2.49208e-05 1.41244e-06 0)
(-2.60746e-05 1.39083e-06 0)
(-2.7209e-05 1.36607e-06 0)
(-2.83214e-05 1.33823e-06 0)
(-2.94097e-05 1.30731e-06 0)
(-3.04712e-05 1.27335e-06 0)
(-3.15033e-05 1.23648e-06 0)
(-3.25038e-05 1.1968e-06 0)
(-3.34703e-05 1.15435e-06 0)
(-3.44014e-05 1.10925e-06 0)
(-3.52949e-05 1.06181e-06 0)
(-3.61486e-05 1.01242e-06 0)
(-3.69608e-05 9.6116e-07 0)
(-3.773e-05 9.07674e-07 0)
(-3.84546e-05 8.52006e-07 0)
(-3.91329e-05 7.9467e-07 0)
(-3.97636e-05 7.35992e-07 0)
(-4.03456e-05 6.75982e-07 0)
(-4.0878e-05 6.14596e-07 0)
(-4.13594e-05 5.51874e-07 0)
(-4.17887e-05 4.8797e-07 0)
(-4.21651e-05 4.23102e-07 0)
(-4.24882e-05 3.57474e-07 0)
(-4.27574e-05 2.91213e-07 0)
(-4.29723e-05 2.24423e-07 0)
(-4.31322e-05 1.57265e-07 0)
(-4.32367e-05 8.99309e-08 0)
(-4.32856e-05 2.24635e-08 0)
(-4.32792e-05 -4.52147e-08 0)
(-4.32176e-05 -1.12935e-07 0)
(-4.31007e-05 -1.8027e-07 0)
(-4.29287e-05 -2.47012e-07 0)
(-4.27019e-05 -3.13289e-07 0)
(-4.24209e-05 -3.79156e-07 0)
(-4.20864e-05 -4.44365e-07 0)
(-4.16988e-05 -5.08567e-07 0)
(-4.12589e-05 -5.71556e-07 0)
(-4.07678e-05 -6.33277e-07 0)
(-4.02264e-05 -6.93761e-07 0)
(-3.96358e-05 -7.5298e-07 0)
(-3.89971e-05 -8.10774e-07 0)
(-3.83116e-05 -8.66892e-07 0)
(-3.75806e-05 -9.21091e-07 0)
(-3.68058e-05 -9.73305e-07 0)
(-3.59887e-05 -1.02363e-06 0)
(-3.51312e-05 -1.07207e-06 0)
(-3.42348e-05 -1.11835e-06 0)
(-3.33013e-05 -1.16212e-06 0)
(-3.23329e-05 -1.20319e-06 0)
(-3.13316e-05 -1.24162e-06 0)
(-3.02997e-05 -1.27748e-06 0)
(-2.92392e-05 -1.31068e-06 0)
(-2.81524e-05 -1.341e-06 0)
(-2.70416e-05 -1.36829e-06 0)
(-2.59095e-05 -1.39244e-06 0)
(-2.47586e-05 -1.41337e-06 0)
(-2.35916e-05 -1.43102e-06 0)
(-2.24112e-05 -1.44537e-06 0)
(-2.122e-05 -1.45637e-06 0)
(-2.00207e-05 -1.46386e-06 0)
(-1.88163e-05 -1.46775e-06 0)
(-1.76099e-05 -1.46795e-06 0)
(-1.64045e-05 -1.46442e-06 0)
(-1.5203e-05 -1.45714e-06 0)
(-1.40084e-05 -1.44604e-06 0)
(-1.28236e-05 -1.43102e-06 0)
(-1.16519e-05 -1.41213e-06 0)
(-1.04966e-05 -1.3894e-06 0)
(-9.36088e-06 -1.36282e-06 0)
(-8.24762e-06 -1.33238e-06 0)
(-7.15993e-06 -1.29808e-06 0)
(-6.10091e-06 -1.25993e-06 0)
(-5.07368e-06 -1.21801e-06 0)
(-4.0814e-06 -1.17235e-06 0)
(-3.12711e-06 -1.12298e-06 0)
(-2.21367e-06 -1.07004e-06 0)
(-1.34382e-06 -1.01368e-06 0)
(-5.20217e-07 -9.53959e-07 0)
(2.54395e-07 -8.90888e-07 0)
(9.77361e-07 -8.24585e-07 0)
(1.64626e-06 -7.55314e-07 0)
(2.25892e-06 -6.83415e-07 0)
(2.81341e-06 -6.09145e-07 0)
(3.30796e-06 -5.32633e-07 0)
(3.74092e-06 -4.54085e-07 0)
(4.11089e-06 -3.73916e-07 0)
(4.41673e-06 -2.92591e-07 0)
(4.65771e-06 -2.10563e-07 0)
(4.83356e-06 -1.2832e-07 0)
(4.94443e-06 -4.63581e-08 0)
(4.99087e-06 3.48027e-08 0)
(4.97384e-06 1.14535e-07 0)
(4.89491e-06 1.9206e-07 0)
(4.75633e-06 2.66464e-07 0)
(4.56103e-06 3.36695e-07 0)
(4.31272e-06 4.01637e-07 0)
(4.016e-06 4.60137e-07 0)
(3.67654e-06 5.10807e-07 0)
(3.30115e-06 5.51928e-07 0)
(2.89783e-06 5.8152e-07 0)
(2.4759e-06 5.9739e-07 0)
(2.04614e-06 5.97128e-07 0)
(1.62103e-06 5.78082e-07 0)
(1.21467e-06 5.37445e-07 0)
(8.42459e-07 4.72642e-07 0)
(5.2021e-07 3.82137e-07 0)
(2.63136e-07 2.66877e-07 0)
(8.79475e-08 1.3482e-07 0)
(1.15462e-08 1.77953e-08 0)
(1.10882e-07 -5.1274e-07 0)
(3.16504e-07 -3.10625e-07 0)
(6.63767e-07 -2.86529e-07 0)
(1.0114e-06 -4.24478e-07 0)
(1.38043e-06 -6.00624e-07 0)
(1.77756e-06 -7.57845e-07 0)
(2.20075e-06 -8.70602e-07 0)
(2.6363e-06 -9.35485e-07 0)
(3.07358e-06 -9.52901e-07 0)
(3.49784e-06 -9.31082e-07 0)
(3.89395e-06 -8.76548e-07 0)
(4.25151e-06 -7.93982e-07 0)
(4.55778e-06 -6.90569e-07 0)
(4.8038e-06 -5.70286e-07 0)
(4.98288e-06 -4.35698e-07 0)
(5.08778e-06 -2.91967e-07 0)
(5.1135e-06 -1.40354e-07 0)
(5.05727e-06 1.73535e-08 0)
(4.9152e-06 1.78091e-07 0)
(4.68579e-06 3.40861e-07 0)
(4.36883e-06 5.04879e-07 0)
(3.96318e-06 6.67994e-07 0)
(3.46957e-06 8.29557e-07 0)
(2.88927e-06 9.8903e-07 0)
(2.22319e-06 1.14486e-06 0)
(1.47342e-06 1.29656e-06 0)
(6.42461e-07 1.4438e-06 0)
(-2.67525e-07 1.58561e-06 0)
(-1.25338e-06 1.72162e-06 0)
(-2.31158e-06 1.8516e-06 0)
(-3.43918e-06 1.9748e-06 0)
(-4.63249e-06 2.09104e-06 0)
(-5.88741e-06 2.20038e-06 0)
(-7.20025e-06 2.30238e-06 0)
(-8.56706e-06 2.39686e-06 0)
(-9.98336e-06 2.48374e-06 0)
(-1.14447e-05 2.5628e-06 0)
(-1.2947e-05 2.63386e-06 0)
(-1.44857e-05 2.69678e-06 0)
(-1.60565e-05 2.75158e-06 0)
(-1.76548e-05 2.79854e-06 0)
(-1.92761e-05 2.83762e-06 0)
(-2.09163e-05 2.86859e-06 0)
(-2.25706e-05 2.89155e-06 0)
(-2.42345e-05 2.9068e-06 0)
(-2.59037e-05 2.91425e-06 0)
(-2.75743e-05 2.91387e-06 0)
(-2.9242e-05 2.90602e-06 0)
(-3.09024e-05 2.89103e-06 0)
(-3.25514e-05 2.86883e-06 0)
(-3.41852e-05 2.83936e-06 0)
(-3.57999e-05 2.80295e-06 0)
(-3.73914e-05 2.75998e-06 0)
(-3.89561e-05 2.71055e-06 0)
(-4.04904e-05 2.65477e-06 0)
(-4.19912e-05 2.59288e-06 0)
(-4.34548e-05 2.52518e-06 0)
(-4.4878e-05 2.45207e-06 0)
(-4.62577e-05 2.37368e-06 0)
(-4.75909e-05 2.28986e-06 0)
(-4.88748e-05 2.20078e-06 0)
(-5.01066e-05 2.10702e-06 0)
(-5.12834e-05 2.00904e-06 0)
(-5.24035e-05 1.907e-06 0)
(-5.34646e-05 1.80098e-06 0)
(-5.44642e-05 1.6913e-06 0)
(-5.54e-05 1.57829e-06 0)
(-5.62703e-05 1.46206e-06 0)
(-5.70735e-05 1.34282e-06 0)
(-5.78081e-05 1.22099e-06 0)
(-5.84727e-05 1.0969e-06 0)
(-5.90658e-05 9.70705e-07 0)
(-5.95863e-05 8.42598e-07 0)
(-6.00333e-05 7.1278e-07 0)
(-6.04059e-05 5.81466e-07 0)
(-6.07036e-05 4.49034e-07 0)
(-6.09256e-05 3.15974e-07 0)
(-6.10714e-05 1.82585e-07 0)
(-6.11412e-05 4.89223e-08 0)
(-6.11348e-05 -8.49608e-08 0)
(-6.10521e-05 -2.18759e-07 0)
(-6.0893e-05 -3.52014e-07 0)
(-6.0658e-05 -4.84437e-07 0)
(-6.03479e-05 -6.15891e-07 0)
(-5.99634e-05 -7.46164e-07 0)
(-5.95049e-05 -8.74961e-07 0)
(-5.89733e-05 -1.002e-06 0)
(-5.83697e-05 -1.127e-06 0)
(-5.76954e-05 -1.24965e-06 0)
(-5.6952e-05 -1.36969e-06 0)
(-5.61409e-05 -1.48698e-06 0)
(-5.52636e-05 -1.60133e-06 0)
(-5.43215e-05 -1.71248e-06 0)
(-5.33165e-05 -1.82014e-06 0)
(-5.22512e-05 -1.92407e-06 0)
(-5.11278e-05 -2.02405e-06 0)
(-4.99486e-05 -2.11987e-06 0)
(-4.87157e-05 -2.21125e-06 0)
(-4.74314e-05 -2.29799e-06 0)
(-4.60988e-05 -2.37989e-06 0)
(-4.47208e-05 -2.45669e-06 0)
(-4.33003e-05 -2.52817e-06 0)
(-4.18404e-05 -2.59409e-06 0)
(-4.03439e-05 -2.65431e-06 0)
(-3.88143e-05 -2.70867e-06 0)
(-3.72549e-05 -2.75698e-06 0)
(-3.56692e-05 -2.79905e-06 0)
(-3.4061e-05 -2.83469e-06 0)
(-3.24339e-05 -2.86373e-06 0)
(-3.07915e-05 -2.886e-06 0)
(-2.91376e-05 -2.90134e-06 0)
(-2.74761e-05 -2.90967e-06 0)
(-2.58113e-05 -2.91089e-06 0)
(-2.41472e-05 -2.90482e-06 0)
(-2.24879e-05 -2.89127e-06 0)
(-2.08374e-05 -2.87018e-06 0)
(-1.91997e-05 -2.84155e-06 0)
(-1.75793e-05 -2.80543e-06 0)
(-1.59806e-05 -2.76179e-06 0)
(-1.44077e-05 -2.71054e-06 0)
(-1.28648e-05 -2.65163e-06 0)
(-1.13561e-05 -2.58514e-06 0)
(-9.88586e-06 -2.51115e-06 0)
(-8.45817e-06 -2.42979e-06 0)
(-7.07724e-06 -2.34118e-06 0)
(-5.74718e-06 -2.2454e-06 0)
(-4.47204e-06 -2.14252e-06 0)
(-3.25549e-06 -2.03278e-06 0)
(-2.101e-06 -1.91652e-06 0)
(-1.01211e-06 -1.79401e-06 0)
(7.58632e-09 -1.66549e-06 0)
(9.54742e-07 -1.53128e-06 0)
(1.82636e-06 -1.39175e-06 0)
(2.6199e-06 -1.24741e-06 0)
(3.33318e-06 -1.09886e-06 0)
(3.96407e-06 -9.46712e-07 0)
(4.51071e-06 -7.9167e-07 0)
(4.9717e-06 -6.34492e-07 0)
(5.34612e-06 -4.75954e-07 0)
(5.63356e-06 -3.16934e-07 0)
(5.83431e-06 -1.58511e-07 0)
(5.94922e-06 -1.90144e-09 0)
(5.9797e-06 1.51614e-07 0)
(5.92786e-06 3.00613e-07 0)
(5.79671e-06 4.43442e-07 0)
(5.59017e-06 5.7819e-07 0)
(5.31328e-06 7.02729e-07 0)
(4.9722e-06 8.14759e-07 0)
(4.57428e-06 9.11705e-07 0)
(4.12812e-06 9.90584e-07 0)
(3.6439e-06 1.04797e-06 0)
(3.13341e-06 1.08002e-06 0)
(2.61009e-06 1.08266e-06 0)
(2.089e-06 1.05163e-06 0)
(1.58692e-06 9.82717e-07 0)
(1.12193e-06 8.72263e-07 0)
(7.12417e-07 7.18485e-07 0)
(3.76255e-07 5.23193e-07 0)
(1.3601e-07 2.96646e-07 0)
(2.16454e-08 7.51746e-08 0)
(7.17663e-08 -6.33022e-07 0)
(2.70515e-07 -6.52715e-07 0)
(6.70026e-07 -6.89922e-07 0)
(1.11462e-06 -8.54069e-07 0)
(1.58299e-06 -1.05085e-06 0)
(2.07413e-06 -1.22265e-06 0)
(2.57695e-06 -1.34621e-06 0)
(3.08222e-06 -1.40993e-06 0)
(3.57475e-06 -1.41445e-06 0)
(4.04008e-06 -1.36666e-06 0)
(4.46653e-06 -1.2712e-06 0)
(4.83878e-06 -1.1372e-06 0)
(5.14585e-06 -9.71234e-07 0)
(5.37849e-06 -7.78226e-07 0)
(5.52639e-06 -5.64811e-07 0)
(5.58317e-06 -3.35325e-07 0)
(5.54397e-06 -9.30095e-08 0)
(5.4028e-06 1.58132e-07 0)
(5.15715e-06 4.14985e-07 0)
(4.80511e-06 6.76092e-07 0)
(4.34477e-06 9.38321e-07 0)
(3.77628e-06 1.19984e-06 0)
(3.10005e-06 1.4595e-06 0)
(2.31687e-06 1.71519e-06 0)
(1.42862e-06 1.96572e-06 0)
(4.37615e-07 2.21002e-06 0)
(-6.53558e-07 2.44683e-06 0)
(-1.84175e-06 2.67524e-06 0)
(-3.1232e-06 2.89476e-06 0)
(-4.49413e-06 3.10425e-06 0)
(-5.95042e-06 3.30312e-06 0)
(-7.48741e-06 3.4911e-06 0)
(-9.10042e-06 3.66751e-06 0)
(-1.07847e-05 3.83186e-06 0)
(-1.25351e-05 3.98406e-06 0)
(-1.43464e-05 4.12393e-06 0)
(-1.62133e-05 4.25117e-06 0)
(-1.81304e-05 4.3655e-06 0)
(-2.00924e-05 4.46681e-06 0)
(-2.20935e-05 4.55514e-06 0)
(-2.4128e-05 4.63046e-06 0)
(-2.61908e-05 4.69261e-06 0)
(-2.82763e-05 4.74169e-06 0)
(-3.03786e-05 4.77808e-06 0)
(-3.24923e-05 4.80179e-06 0)
(-3.46123e-05 4.81259e-06 0)
(-3.67331e-05 4.81075e-06 0)
(-3.88492e-05 4.79684e-06 0)
(-4.09554e-05 4.77104e-06 0)
(-4.30471e-05 4.73339e-06 0)
(-4.51191e-05 4.68419e-06 0)
(-4.71662e-05 4.62381e-06 0)
(-4.91837e-05 4.55262e-06 0)
(-5.1167e-05 4.4708e-06 0)
(-5.31117e-05 4.37856e-06 0)
(-5.50135e-05 4.27622e-06 0)
(-5.68679e-05 4.16431e-06 0)
(-5.86708e-05 4.04337e-06 0)
(-6.04187e-05 3.91369e-06 0)
(-6.2108e-05 3.77545e-06 0)
(-6.37347e-05 3.62913e-06 0)
(-6.52953e-05 3.47522e-06 0)
(-6.67864e-05 3.31392e-06 0)
(-6.82055e-05 3.14551e-06 0)
(-6.95496e-05 2.97065e-06 0)
(-7.08159e-05 2.79002e-06 0)
(-7.20017e-05 2.604e-06 0)
(-7.31048e-05 2.41273e-06 0)
(-7.4123e-05 2.21648e-06 0)
(-7.50542e-05 2.0158e-06 0)
(-7.58967e-05 1.81125e-06 0)
(-7.66488e-05 1.60328e-06 0)
(-7.73091e-05 1.39231e-06 0)
(-7.78766e-05 1.17868e-06 0)
(-7.83502e-05 9.62719e-07 0)
(-7.87287e-05 7.44939e-07 0)
(-7.90113e-05 5.259e-07 0)
(-7.91977e-05 3.05955e-07 0)
(-7.92879e-05 8.54436e-08 0)
(-7.92817e-05 -1.35109e-07 0)
(-7.91789e-05 -3.55194e-07 0)
(-7.89795e-05 -5.74478e-07 0)
(-7.86842e-05 -7.9268e-07 0)
(-7.82938e-05 -1.00937e-06 0)
(-7.7809e-05 -1.22399e-06 0)
(-7.72307e-05 -1.43601e-06 0)
(-7.65599e-05 -1.6451e-06 0)
(-7.57981e-05 -1.85094e-06 0)
(-7.49468e-05 -2.05315e-06 0)
(-7.40078e-05 -2.25127e-06 0)
(-7.29831e-05 -2.44482e-06 0)
(-7.18744e-05 -2.6333e-06 0)
(-7.06839e-05 -2.81634e-06 0)
(-6.9414e-05 -2.99376e-06 0)
(-6.80674e-05 -3.16528e-06 0)
(-6.6647e-05 -3.33041e-06 0)
(-6.51557e-05 -3.48857e-06 0)
(-6.35963e-05 -3.63928e-06 0)
(-6.1972e-05 -3.78232e-06 0)
(-6.02863e-05 -3.91752e-06 0)
(-5.85428e-05 -4.04451e-06 0)
(-5.67452e-05 -4.16282e-06 0)
(-5.48972e-05 -4.27206e-06 0)
(-5.30029e-05 -4.37187e-06 0)
(-5.10662e-05 -4.46201e-06 0)
(-4.90916e-05 -4.5422e-06 0)
(-4.70833e-05 -4.61219e-06 0)
(-4.50459e-05 -4.6717e-06 0)
(-4.2984e-05 -4.72042e-06 0)
(-4.09022e-05 -4.75801e-06 0)
(-3.88053e-05 -4.78423e-06 0)
(-3.66984e-05 -4.79896e-06 0)
(-3.45865e-05 -4.80208e-06 0)
(-3.24747e-05 -4.79336e-06 0)
(-3.03679e-05 -4.7725e-06 0)
(-2.82715e-05 -4.73932e-06 0)
(-2.61905e-05 -4.69385e-06 0)
(-2.41305e-05 -4.63609e-06 0)
(-2.20967e-05 -4.56602e-06 0)
(-2.00944e-05 -4.48359e-06 0)
(-1.81288e-05 -4.38875e-06 0)
(-1.62052e-05 -4.28153e-06 0)
(-1.43288e-05 -4.16205e-06 0)
(-1.25049e-05 -4.0305e-06 0)
(-1.07387e-05 -3.88713e-06 0)
(-9.03496e-06 -3.73223e-06 0)
(-7.39879e-06 -3.56595e-06 0)
(-5.83488e-06 -3.38848e-06 0)
(-4.34769e-06 -3.20023e-06 0)
(-2.94152e-06 -3.0018e-06 0)
(-1.62066e-06 -2.79381e-06 0)
(-3.89096e-07 -2.57685e-06 0)
(7.49504e-07 -2.35149e-06 0)
(1.79188e-06 -2.11838e-06 0)
(2.73523e-06 -1.87844e-06 0)
(3.57703e-06 -1.63275e-06 0)
(4.31516e-06 -1.38251e-06 0)
(4.948e-06 -1.12893e-06 0)
(5.47455e-06 -8.73342e-07 0)
(5.89432e-06 -6.17206e-07 0)
(6.20758e-06 -3.6217e-07 0)
(6.41541e-06 -1.10161e-07 0)
(6.51968e-06 1.36658e-07 0)
(6.52308e-06 3.75942e-07 0)
(6.42922e-06 6.05127e-07 0)
(6.24287e-06 8.21309e-07 0)
(5.97013e-06 1.02119e-06 0)
(5.61843e-06 1.20112e-06 0)
(5.19651e-06 1.35708e-06 0)
(4.7145e-06 1.48456e-06 0)
(4.18417e-06 1.57858e-06 0)
(3.61905e-06 1.6337e-06 0)
(3.03451e-06 1.64406e-06 0)
(2.44761e-06 1.60372e-06 0)
(1.87699e-06 1.50701e-06 0)
(1.34279e-06 1.34917e-06 0)
(8.65697e-07 1.12768e-06 0)
(4.6641e-07 8.44075e-07 0)
(1.7348e-07 5.08311e-07 0)
(2.91008e-08 1.55701e-07 0)
(4.96271e-08 -7.43163e-07 0)
(2.38772e-07 -9.91617e-07 0)
(6.53884e-07 -1.13483e-06 0)
(1.14895e-06 -1.35255e-06 0)
(1.68145e-06 -1.57555e-06 0)
(2.23245e-06 -1.76086e-06 0)
(2.78971e-06 -1.88311e-06 0)
(3.33736e-06 -1.93374e-06 0)
(3.85905e-06 -1.91305e-06 0)
(4.34215e-06 -1.82345e-06 0)
(4.77098e-06 -1.67484e-06 0)
(5.1321e-06 -1.47456e-06 0)
(5.41451e-06 -1.2303e-06 0)
(5.60609e-06 -9.50486e-07 0)
(5.6976e-06 -6.41673e-07 0)
(5.68227e-06 -3.0912e-07 0)
(5.5529e-06 4.0844e-08 0)
(5.30464e-06 4.03763e-07 0)
(4.9344e-06 7.76091e-07 0)
(4.43925e-06 1.15372e-06 0)
(3.81762e-06 1.53356e-06 0)
(3.06969e-06 1.913e-06 0)
(2.19556e-06 2.28927e-06 0)
(1.19639e-06 2.66029e-06 0)
(7.43119e-08 3.02412e-06 0)
(-1.16827e-06 3.37884e-06 0)
(-2.52801e-06 3.72286e-06 0)
(-4.00118e-06 4.055e-06 0)
(-5.58381e-06 4.37393e-06 0)
(-7.27132e-06 4.67843e-06 0)
(-9.05861e-06 4.96784e-06 0)
(-1.09406e-05 5.24135e-06 0)
(-1.2912e-05 5.49805e-06 0)
(-1.49666e-05 5.73735e-06 0)
(-1.70986e-05 5.95884e-06 0)
(-1.93018e-05 6.16214e-06 0)
(-2.157e-05 6.34682e-06 0)
(-2.38969e-05 6.51262e-06 0)
(-2.6276e-05 6.65952e-06 0)
(-2.87006e-05 6.78751e-06 0)
(-3.11644e-05 6.89629e-06 0)
(-3.36608e-05 6.98575e-06 0)
(-3.61829e-05 7.05622e-06 0)
(-3.87242e-05 7.10795e-06 0)
(-4.12785e-05 7.14087e-06 0)
(-4.38394e-05 7.15508e-06 0)
(-4.64001e-05 7.15103e-06 0)
(-4.89544e-05 7.12907e-06 0)
(-5.14964e-05 7.08931e-06 0)
(-5.402e-05 7.03213e-06 0)
(-5.65191e-05 6.95806e-06 0)
(-5.89877e-05 6.86753e-06 0)
(-6.14203e-05 6.76098e-06 0)
(-6.38115e-05 6.63881e-06 0)
(-6.61559e-05 6.5014e-06 0)
(-6.84482e-05 6.34936e-06 0)
(-7.06831e-05 6.18324e-06 0)
(-7.28559e-05 6.00343e-06 0)
(-7.49622e-05 5.8104e-06 0)
(-7.69976e-05 5.60486e-06 0)
(-7.89574e-05 5.38764e-06 0)
(-8.08377e-05 5.15933e-06 0)
(-8.26347e-05 4.92012e-06 0)
(-8.43448e-05 4.6705e-06 0)
(-8.59642e-05 4.41134e-06 0)
(-8.74898e-05 4.14336e-06 0)
(-8.89186e-05 3.86716e-06 0)
(-9.0248e-05 3.58333e-06 0)
(-9.14752e-05 3.29241e-06 0)
(-9.25978e-05 2.99499e-06 0)
(-9.36135e-05 2.69175e-06 0)
(-9.45203e-05 2.38334e-06 0)
(-9.53168e-05 2.07033e-06 0)
(-9.60015e-05 1.75333e-06 0)
(-9.65731e-05 1.4331e-06 0)
(-9.70304e-05 1.11038e-06 0)
(-9.73724e-05 7.85744e-07 0)
(-9.75988e-05 4.59582e-07 0)
(-9.77092e-05 1.32481e-07 0)
(-9.77034e-05 -1.94663e-07 0)
(-9.75813e-05 -5.21085e-07 0)
(-9.73433e-05 -8.46313e-07 0)
(-9.699e-05 -1.1699e-06 0)
(-9.6522e-05 -1.49123e-06 0)
(-9.59403e-05 -1.80957e-06 0)
(-9.52459e-05 -2.12418e-06 0)
(-9.44404e-05 -2.43441e-06 0)
(-9.35254e-05 -2.73972e-06 0)
(-9.25027e-05 -3.03965e-06 0)
(-9.13743e-05 -3.33364e-06 0)
(-9.01424e-05 -3.62098e-06 0)
(-8.88093e-05 -3.9009e-06 0)
(-8.73777e-05 -4.17275e-06 0)
(-8.58507e-05 -4.43614e-06 0)
(-8.42313e-05 -4.69072e-06 0)
(-8.25228e-05 -4.93586e-06 0)
(-8.07284e-05 -5.17083e-06 0)
(-7.88519e-05 -5.39495e-06 0)
(-7.68972e-05 -5.60774e-06 0)
(-7.48685e-05 -5.80881e-06 0)
(-7.27699e-05 -5.99767e-06 0)
(-7.06057e-05 -6.17375e-06 0)
(-6.83805e-05 -6.33652e-06 0)
(-6.6099e-05 -6.48546e-06 0)
(-6.37662e-05 -6.6201e-06 0)
(-6.13872e-05 -6.74003e-06 0)
(-5.89673e-05 -6.84487e-06 0)
(-5.65118e-05 -6.93421e-06 0)
(-5.40261e-05 -7.00763e-06 0)
(-5.15157e-05 -7.0647e-06 0)
(-4.89865e-05 -7.10508e-06 0)
(-4.64445e-05 -7.12852e-06 0)
(-4.38957e-05 -7.13479e-06 0)
(-4.1346e-05 -7.12356e-06 0)
(-3.88013e-05 -7.09458e-06 0)
(-3.62679e-05 -7.04762e-06 0)
(-3.37522e-05 -6.98259e-06 0)
(-3.12605e-05 -6.89943e-06 0)
(-2.87991e-05 -6.7981e-06 0)
(-2.63741e-05 -6.67856e-06 0)
(-2.39918e-05 -6.54087e-06 0)
(-2.16584e-05 -6.3851e-06 0)
(-1.93802e-05 -6.21137e-06 0)
(-1.71635e-05 -6.01991e-06 0)
(-1.50143e-05 -5.81103e-06 0)
(-1.29384e-05 -5.58517e-06 0)
(-1.09416e-05 -5.34276e-06 0)
(-9.02926e-06 -5.08419e-06 0)
(-7.20697e-06 -4.80992e-06 0)
(-5.47991e-06 -4.52069e-06 0)
(-3.85303e-06 -4.21747e-06 0)
(-2.33085e-06 -3.90119e-06 0)
(-9.17554e-07 -3.57282e-06 0)
(3.83037e-07 -3.23342e-06 0)
(1.56752e-06 -2.88426e-06 0)
(2.63291e-06 -2.5268e-06 0)
(3.57679e-06 -2.16272e-06 0)
(4.3974e-06 -1.79387e-06 0)
(5.0936e-06 -1.42226e-06 0)
(5.66491e-06 -1.0501e-06 0)
(6.11168e-06 -6.79801e-07 0)
(6.4351e-06 -3.14053e-07 0)
(6.63731e-06 4.40882e-08 0)
(6.72152e-06 3.91166e-07 0)
(6.692e-06 7.23438e-07 0)
(6.55417e-06 1.03686e-06 0)
(6.31492e-06 1.3269e-06 0)
(5.98267e-06 1.58846e-06 0)
(5.56722e-06 1.81594e-06 0)
(5.07987e-06 2.00315e-06 0)
(4.53368e-06 2.1434e-06 0)
(3.94349e-06 2.22955e-06 0)
(3.32602e-06 2.25404e-06 0)
(2.69977e-06 2.20922e-06 0)
(2.08495e-06 2.08781e-06 0)
(1.50341e-06 1.88365e-06 0)
(9.78016e-07 1.59283e-06 0)
(5.32343e-07 1.21528e-06 0)
(2.00361e-07 7.58456e-07 0)
(3.41849e-08 2.5323e-07 0)
(3.93844e-08 -8.43005e-07 0)
(2.18671e-07 -1.3202e-06 0)
(6.29435e-07 -1.59694e-06 0)
(1.14467e-06 -1.88398e-06 0)
(1.70616e-06 -2.14378e-06 0)
(2.28891e-06 -2.33916e-06 0)
(2.87111e-06 -2.45404e-06 0)
(3.43367e-06 -2.48208e-06 0)
(3.96104e-06 -2.42115e-06 0)
(4.43518e-06 -2.27873e-06 0)
(4.84187e-06 -2.06228e-06 0)
(5.16783e-06 -1.78063e-06 0)
(5.39935e-06 -1.44391e-06 0)
(5.52597e-06 -1.06175e-06 0)
(5.53792e-06 -6.40964e-07 0)
(5.42649e-06 -1.90096e-07 0)
(5.18531e-06 2.84169e-07 0)
(4.80913e-06 7.76318e-07 0)
(4.29408e-06 1.28074e-06 0)
(3.63732e-06 1.79241e-06 0)
(2.83738e-06 2.30761e-06 0)
(1.89402e-06 2.82226e-06 0)
(8.07676e-07 3.33276e-06 0)
(-4.20243e-07 3.83647e-06 0)
(-1.78764e-06 4.33037e-06 0)
(-3.29162e-06 4.81221e-06 0)
(-4.92838e-06 5.27983e-06 0)
(-6.69385e-06 5.73125e-06 0)
(-8.5835e-06 6.16471e-06 0)
(-1.05919e-05 6.57881e-06 0)
(-1.27134e-05 6.97228e-06 0)
(-1.49424e-05 7.34391e-06 0)
(-1.72725e-05 7.6928e-06 0)
(-1.96971e-05 8.01816e-06 0)
(-2.22093e-05 8.31928e-06 0)
(-2.48022e-05 8.59549e-06 0)
(-2.74686e-05 8.84622e-06 0)
(-3.02013e-05 9.07119e-06 0)
(-3.29925e-05 9.27032e-06 0)
(-3.58352e-05 9.44335e-06 0)
(-3.87219e-05 9.59005e-06 0)
(-4.16449e-05 9.71057e-06 0)
(-4.45963e-05 9.80515e-06 0)
(-4.75689e-05 9.8737e-06 0)
(-5.05554e-05 9.91632e-06 0)
(-5.35483e-05 9.93354e-06 0)
(-5.654e-05 9.92583e-06 0)
(-5.95234e-05 9.89336e-06 0)
(-6.24916e-05 9.83645e-06 0)
(-6.54375e-05 9.75569e-06 0)
(-6.8354e-05 9.65171e-06 0)
(-7.12345e-05 9.52504e-06 0)
(-7.40725e-05 9.3762e-06 0)
(-7.68617e-05 9.20572e-06 0)