/*--------------------------------*- C++ -*----------------------------------*\
  =========                 |
  \\      /  F ield         | OpenFOAM: The Open Source CFD Toolbox
   \\    /   O peration     | Website:  https://openfoam.org
    \\  /    A nd           | Version:  7
     \\/     M anipulation  |
\*---------------------------------------------------------------------------*/
FoamFile
{
    version     2.0;
    format      ascii;
    class       volScalarField;
    location    "0.3875";
    object      p;
}
// * * * * * * * * * * * * * * * * * * * * * * * * * * * * * * * * * * * * * //

dimensions      [0 2 -2 0 0 0 0];

internalField   nonuniform List<scalar> 
51200
(
6.11606e-07
4.63397e-07
1.62237e-06
4.67098e-06
9.43725e-06
1.56245e-05
2.29502e-05
3.11619e-05
4.00206e-05
4.92937e-05
5.87693e-05
6.82704e-05
7.76532e-05
8.67946e-05
9.55829e-05
0.000103917
0.00011171
0.000118888
0.000125386
0.000131151
0.000136136
0.000140299
0.000143607
0.000146032
0.00014755
0.000148144
0.000147797
0.000146501
0.000144248
0.000141033
0.000136855
0.000131715
0.000125616
0.000118564
0.000110566
0.000101631
9.17683e-05
8.09902e-05
6.93102e-05
5.67426e-05
4.33028e-05
2.90067e-05
1.38711e-05
-2.08626e-06
-1.88468e-05
-3.63913e-05
-5.47003e-05
-7.37534e-05
-9.35303e-05
-0.00011401
-0.000135172
-0.000156994
-0.000179454
-0.000202531
-0.000226202
-0.000250444
-0.000275236
-0.000300554
-0.000326377
-0.000352682
-0.000379445
-0.000406644
-0.000434257
-0.000462261
-0.000490632
-0.000519349
-0.000548389
-0.00057773
-0.00060735
-0.000637226
-0.000667336
-0.000697659
-0.000728171
-0.000758851
-0.000789676
-0.000820625
-0.000851676
-0.000882805
-0.000913991
-0.00094521
-0.000976441
-0.00100766
-0.00103885
-0.00106998
-0.00110103
-0.00113199
-0.00116282
-0.00119351
-0.00122403
-0.00125436
-0.00128448
-0.00131436
-0.00134399
-0.00137334
-0.00140239
-0.00143111
-0.00145948
-0.00148749
-0.0015151
-0.0015423
-0.00156906
-0.00159536
-0.00162118
-0.00164649
-0.00167127
-0.0016955
-0.00171916
-0.00174221
-0.00176465
-0.00178645
-0.00180759
-0.00182804
-0.00184778
-0.0018668
-0.00188507
-0.00190257
-0.00191928
-0.00193519
-0.00195027
-0.0019645
-0.00197788
-0.00199038
-0.00200198
-0.00201268
-0.00202246
-0.00203131
-0.00203922
-0.00204618
-0.00205218
-0.00205722
-0.0020613
-0.00206441
-0.00206657
-0.00206776
-0.00206801
-0.00206731
-0.00206569
-0.00206317
-0.00205976
-0.00205551
-0.00205043
-0.00204457
-0.00203799
-0.00203073
-0.00202286
-0.00201446
-0.0020056
-0.00199639
-0.00198695
-0.0019774
-0.00196789
-0.00195859
-0.0019497
-0.00194144
-0.0019341
-0.00192797
-0.00192327
-0.00192017
-0.00191891
-0.0019193
1.66176e-06
1.13466e-06
2.2022e-06
4.93651e-06
9.1037e-06
1.44878e-05
2.08608e-05
2.80105e-05
3.57482e-05
4.38912e-05
5.2259e-05
6.06855e-05
6.90292e-05
7.71715e-05
8.50085e-05
9.24455e-05
9.93979e-05
0.000105792
0.000111563
0.000116657
0.000121026
0.000124628
0.000127428
0.000129397
0.000130511
0.000130748
0.000130093
0.000128534
0.000126062
0.000122671
0.000118358
0.000113122
0.000106965
9.98899e-05
9.19035e-05
8.30129e-05
7.32268e-05
6.25554e-05
5.10104e-05
3.86047e-05
2.53525e-05
1.12687e-05
-3.63107e-06
-1.93304e-05
-3.58121e-05
-5.30581e-05
-7.10498e-05
-8.97683e-05
-0.000109194
-0.000129306
-0.000150085
-0.000171511
-0.000193561
-0.000216216
-0.000239454
-0.000263252
-0.000287589
-0.000312444
-0.000337794
-0.000363618
-0.000389892
-0.000416596
-0.000443707
-0.000471202
-0.00049906
-0.000527258
-0.000555774
-0.000584587
-0.000613675
-0.000643015
-0.000672586
-0.000702367
-0.000732335
-0.000762468
-0.000792745
-0.000823144
-0.000853643
-0.000884219
-0.000914851
-0.000945517
-0.000976194
-0.00100686
-0.00103749
-0.00106807
-0.00109857
-0.00112898
-0.00115926
-0.0011894
-0.00121937
-0.00124916
-0.00127873
-0.00130808
-0.00133717
-0.00136599
-0.00139451
-0.00142271
-0.00145057
-0.00147806
-0.00150517
-0.00153187
-0.00155814
-0.00158395
-0.00160929
-0.00163413
-0.00165846
-0.00168224
-0.00170546
-0.00172809
-0.00175012
-0.00177152
-0.00179227
-0.00181235
-0.00183174
-0.00185042
-0.00186836
-0.00188556
-0.001902
-0.00191764
-0.00193248
-0.00194651
-0.00195969
-0.00197203
-0.0019835
-0.00199409
-0.0020038
-0.0020126
-0.0020205
-0.00202748
-0.00203355
-0.00203869
-0.0020429
-0.00204619
-0.00204856
-0.00205002
-0.00205058
-0.00205024
-0.00204903
-0.00204697
-0.00204408
-0.00204038
-0.00203593
-0.00203075
-0.00202489
-0.00201842
-0.0020114
-0.00200389
-0.00199599
-0.00198778
-0.00197938
-0.00197092
-0.00196252
-0.00195436
-0.00194658
-0.00193936
-0.00193294
-0.00192759
-0.00192356
-0.00192093
-0.00191981
-0.00192013
6.81273e-07
9.77138e-08
1.14981e-06
3.7056e-06
7.50104e-06
1.23739e-05
1.81322e-05
2.45789e-05
3.15431e-05
3.88735e-05
4.6422e-05
5.40418e-05
6.15984e-05
6.89763e-05
7.60761e-05
8.28096e-05
8.90966e-05
9.48655e-05
0.000100053
0.000104605
0.000108474
0.000111618
0.000114
0.000115593
0.000116369
0.000116309
0.000115394
0.000113612
0.000110953
0.00010741
0.000102978
9.76554e-05
9.14426e-05
8.4342e-05
7.63581e-05
6.74975e-05
5.77679e-05
4.71783e-05
3.57391e-05
2.3462e-05
1.03601e-05
-3.55283e-06
-1.82619e-05
-3.37517e-05
-5.00059e-05
-6.70075e-05
-8.47388e-05
-0.000103182
-0.000122318
-0.000142127
-0.00016259
-0.000183687
-0.000205398
-0.000227702
-0.00025058
-0.000274008
-0.000297967
-0.000322435
-0.00034739
-0.000372812
-0.000398678
-0.000424967
-0.000451656
-0.000478725
-0.000506152
-0.000533914
-0.000561991
-0.00059036
-0.000619
-0.00064789
-0.000677008
-0.000706332
-0.000735842
-0.000765515
-0.000795331
-0.000825267
-0.000855301
-0.000885412
-0.000915577
-0.000945776
-0.000975987
-0.00100619
-0.00103635
-0.00106646
-0.0010965
-0.00112644
-0.00115626
-0.00118593
-0.00121545
-0.00124478
-0.0012739
-0.00130279
-0.00133144
-0.00135981
-0.00138788
-0.00141565
-0.00144307
-0.00147013
-0.00149682
-0.0015231
-0.00154895
-0.00157436
-0.00159931
-0.00162376
-0.0016477
-0.00167111
-0.00169396
-0.00171624
-0.00173793
-0.00175899
-0.00177943
-0.0017992
-0.0018183
-0.0018367
-0.00185438
-0.00187134
-0.00188754
-0.00190297
-0.00191762
-0.00193147
-0.00194451
-0.00195672
-0.00196808
-0.00197859
-0.00198824
-0.00199702
-0.00200491
-0.00201192
-0.00201804
-0.00202327
-0.00202761
-0.00203105
-0.00203361
-0.00203529
-0.00203611
-0.00203608
-0.00203521
-0.00203352
-0.00203105
-0.00202782
-0.00202387
-0.00201923
-0.00201397
-0.00200812
-0.00200177
-0.00199496
-0.0019878
-0.00198037
-0.00197276
-0.0019651
-0.00195751
-0.00195015
-0.00194317
-0.0019367
-0.00193089
-0.00192596
-0.00192219
-0.00191976
-0.00191879
-0.00191926
-2.35516e-06
-2.6374e-06
-1.40743e-06
1.15143e-06
4.78509e-06
9.36613e-06
1.47423e-05
2.07357e-05
2.71818e-05
3.39407e-05
4.08862e-05
4.78941e-05
5.48437e-05
6.16248e-05
6.8142e-05
7.43117e-05
8.00586e-05
8.5315e-05
9.00199e-05
9.41198e-05
9.7568e-05
0.000100323
0.000102351
0.00010362
0.000104105
0.000103786
0.000102644
0.000100665
9.78389e-05
9.41576e-05
8.96162e-05
8.42121e-05
7.79444e-05
7.08146e-05
6.28263e-05
5.39848e-05
4.42971e-05
3.37715e-05
2.24175e-05
1.02458e-05
-2.73152e-06
-1.65015e-05
-3.10503e-05
-4.63631e-05
-6.24244e-05
-7.92179e-05
-9.67266e-05
-0.000114933
-0.00013382
-0.000153368
-0.000173559
-0.000194372
-0.000215789
-0.000237789
-0.000260353
-0.00028346
-0.000307089
-0.00033122
-0.000355831
-0.000380901
-0.00040641
-0.000432335
-0.000458656
-0.000485352
-0.0005124
-0.000539779
-0.000567469
-0.000595448
-0.000623694
-0.000652188
-0.000680906
-0.00070983
-0.000738936
-0.000768204
-0.000797612
-0.00082714
-0.000856764
-0.000886465
-0.000916219
-0.000946007
-0.000975805
-0.00100559
-0.00103535
-0.00106505
-0.00109467
-0.0011242
-0.00115361
-0.00118288
-0.00121199
-0.00124092
-0.00126964
-0.00129813
-0.00132638
-0.00135436
-0.00138205
-0.00140942
-0.00143647
-0.00146316
-0.00148947
-0.00151538
-0.00154088
-0.00156593
-0.00159053
-0.00161464
-0.00163825
-0.00166133
-0.00168387
-0.00170584
-0.00172723
-0.00174801
-0.00176817
-0.00178768
-0.00180652
-0.00182469
-0.00184215
-0.00185889
-0.0018749
-0.00189016
-0.00190464
-0.00191835
-0.00193126
-0.00194336
-0.00195464
-0.00196509
-0.00197469
-0.00198345
-0.00199135
-0.00199839
-0.00200456
-0.00200987
-0.00201432
-0.00201791
-0.00202063
-0.00202252
-0.00202356
-0.00202379
-0.00202321
-0.00202185
-0.00201974
-0.0020169
-0.00201337
-0.00200919
-0.00200441
-0.00199908
-0.00199326
-0.00198703
-0.00198045
-0.00197362
-0.00196662
-0.00195957
-0.00195257
-0.00194577
-0.00193932
-0.00193336
-0.00192798
-0.00192332
-0.00191959
-0.00191705
-0.00191597
-0.0019163
-7.11484e-06
-6.80464e-06
-5.20755e-06
-2.48169e-06
1.15798e-06
5.59795e-06
1.07227e-05
1.63905e-05
2.24525e-05
2.87743e-05
3.52396e-05
4.17419e-05
4.81773e-05
5.44464e-05
6.04587e-05
6.61346e-05
7.14033e-05
7.6201e-05
8.047e-05
8.41589e-05
8.72222e-05
8.96203e-05
9.13182e-05
9.22861e-05
9.24985e-05
9.19344e-05
9.05764e-05
8.84098e-05
8.54231e-05
8.16081e-05
7.69591e-05
7.14728e-05
6.5148e-05
5.79853e-05
4.99875e-05
4.1159e-05
3.15058e-05
2.10355e-05
9.7569e-06
-2.32005e-06
-1.51842e-05
-2.88234e-05
-4.32245e-05
-5.83735e-05
-7.42558e-05
-9.08556e-05
-0.000108157
-0.000126142
-0.000144795
-0.000164098
-0.000184032
-0.000204578
-0.000225717
-0.00024743
-0.000269697
-0.000292499
-0.000315815
-0.000339625
-0.000363909
-0.000388645
-0.000413813
-0.000439392
-0.000465361
-0.0004917
-0.000518386
-0.0005454
-0.00057272
-0.000600326
-0.000628196
-0.000656309
-0.000684646
-0.000713184
-0.000741904
-0.000770783
-0.000799801
-0.000828937
-0.000858169
-0.000887476
-0.000916837
-0.000946229
-0.000975632
-0.00100502
-0.00103438
-0.00106369
-0.00109292
-0.00112206
-0.00115108
-0.00117996
-0.00120868
-0.00123722
-0.00126555
-0.00129367
-0.00132154
-0.00134914
-0.00137646
-0.00140347
-0.00143015
-0.00145647
-0.00148243
-0.001508
-0.00153315
-0.00155787
-0.00158213
-0.00160592
-0.00162921
-0.00165199
-0.00167423
-0.00169591
-0.00171702
-0.00173753
-0.00175742
-0.00177669
-0.0017953
-0.00181324
-0.00183049
-0.00184703
-0.00186286
-0.00187795
-0.00189229
-0.00190587
-0.00191866
-0.00193067
-0.00194187
-0.00195226
-0.00196183
-0.00197058
-0.00197849
-0.00198556
-0.00199179
-0.00199718
-0.00200174
-0.00200546
-0.00200835
-0.00201042
-0.00201168
-0.00201215
-0.00201185
-0.0020108
-0.00200901
-0.00200653
-0.00200339
-0.00199962
-0.00199528
-0.00199041
-0.00198508
-0.00197934
-0.00197327
-0.00196695
-0.00196047
-0.00195392
-0.0019474
-0.00194103
-0.00193495
-0.00192931
-0.00192422
-0.00191975
-0.00191601
-0.00191324
-0.00191173
-0.00191152
-1.3305e-05
-1.21917e-05
-1.00862e-05
-7.06597e-06
-3.27307e-06
1.17572e-06
6.18209e-06
1.16398e-05
1.74287e-05
2.34271e-05
2.95252e-05
3.56257e-05
4.16387e-05
4.74771e-05
5.30589e-05
5.83093e-05
6.31613e-05
6.7555e-05
7.14363e-05
7.47564e-05
7.7472e-05
7.95447e-05
8.09409e-05
8.16314e-05
8.15911e-05
8.07991e-05
7.9238e-05
7.68936e-05
7.37542e-05
6.98108e-05
6.50573e-05
5.94899e-05
5.31069e-05
4.59085e-05
3.78967e-05
2.90753e-05
1.94497e-05
9.02658e-06
-2.18596e-06
-1.41787e-05
-2.69411e-05
-4.04618e-05
-5.47282e-05
-6.97271e-05
-8.54444e-05
-0.000101865
-0.000118974
-0.000136755
-0.000155191
-0.000174264
-0.000193958
-0.000214253
-0.000235133
-0.000256576
-0.000278565
-0.00030108
-0.000324101
-0.000347609
-0.000371583
-0.000396003
-0.00042085
-0.000446101
-0.000471737
-0.000497738
-0.000524082
-0.000550748
-0.000577718
-0.000604969
-0.000632481
-0.000660234
-0.000688206
-0.000716379
-0.000744731
-0.000773241
-0.000801887
-0.00083065
-0.000859509
-0.000888441
-0.000917425
-0.000946442
-0.000975468
-0.00100448
-0.00103347
-0.0010624
-0.00109126
-0.00112002
-0.00114866
-0.00117717
-0.00120552
-0.0012337
-0.00126167
-0.00128942
-0.00131693
-0.00134418
-0.00137114
-0.0013978
-0.00142413
-0.00145012
-0.00147575
-0.00150098
-0.00152581
-0.00155021
-0.00157416
-0.00159764
-0.00162064
-0.00164312
-0.00166508
-0.00168649
-0.00170733
-0.00172759
-0.00174725
-0.00176628
-0.00178467
-0.0018024
-0.00181946
-0.00183582
-0.00185148
-0.00186642
-0.00188063
-0.00189408
-0.00190677
-0.00191869
-0.00192983
-0.00194017
-0.00194972
-0.00195845
-0.00196638
-0.00197348
-0.00197978
-0.00198525
-0.00198991
-0.00199376
-0.0019968
-0.00199905
-0.00200052
-0.00200122
-0.00200117
-0.00200039
-0.00199891
-0.00199676
-0.00199396
-0.00199057
-0.00198662
-0.00198216
-0.00197724
-0.00197193
-0.00196629
-0.0019604
-0.00195434
-0.0019482
-0.00194206
-0.00193603
-0.0019302
-0.00192472
-0.00191973
-0.0019153
-0.00191149
-0.00190843
-0.00190633
-0.00190527
-2.06544e-05
-1.85792e-05
-1.58534e-05
-1.2446e-05
-8.392e-06
-3.80717e-06
1.21026e-06
6.57478e-06
1.21947e-05
1.79698e-05
2.38009e-05
2.95976e-05
3.52785e-05
4.07676e-05
4.59921e-05
5.08839e-05
5.53805e-05
5.94258e-05
6.29689e-05
6.59642e-05
6.83706e-05
7.01518e-05
7.12757e-05
7.17142e-05
7.14431e-05
7.04416e-05
6.86926e-05
6.61821e-05
6.28987e-05
5.88334e-05
5.39797e-05
4.83332e-05
4.18921e-05
3.46559e-05
2.66264e-05
1.78067e-05
8.20166e-06
-2.18248e-06
-1.33383e-05
-2.52572e-05
-3.79295e-05
-5.13443e-05
-6.54896e-05
-8.03528e-05
-9.59204e-05
-0.000112178
-0.000129111
-0.000146704
-0.000164939
-0.000183802
-0.000203274
-0.000223338
-0.000243975
-0.000265169
-0.000286899
-0.000309146
-0.000331893
-0.000355119
-0.000378804
-0.000402929
-0.000427474
-0.000452418
-0.000477742
-0.000503426
-0.000529448
-0.000555788
-0.000582428
-0.000609345
-0.000636521
-0.000663934
-0.000691565
-0.000719393
-0.000747398
-0.000775559
-0.000803856
-0.000832268
-0.000860773
-0.000889352
-0.000917982
-0.000946644
-0.000975316
-0.00100398
-0.00103261
-0.00106118
-0.00108969
-0.0011181
-0.00114639
-0.00117455
-0.00120255
-0.00123038
-0.00125801
-0.00128542
-0.00131259
-0.0013395
-0.00136613
-0.00139247
-0.00141848
-0.00144414
-0.00146945
-0.00149438
-0.0015189
-0.001543
-0.00156666
-0.00158986
-0.00161258
-0.00163479
-0.00165649
-0.00167765
-0.00169825
-0.00171827
-0.0017377
-0.00175652
-0.0017747
-0.00179225
-0.00180913
-0.00182533
-0.00184084
-0.00185564
-0.00186972
-0.00188307
-0.00189567
-0.00190751
-0.00191859
-0.00192889
-0.00193842
-0.00194715
-0.00195509
-0.00196224
-0.00196859
-0.00197414
-0.0019789
-0.00198287
-0.00198606
-0.00198848
-0.00199013
-0.00199104
-0.00199122
-0.0019907
-0.00198949
-0.00198763
-0.00198515
-0.00198208
-0.00197847
-0.00197435
-0.0019698
-0.00196485
-0.00195957
-0.00195402
-0.00194829
-0.00194245
-0.00193659
-0.0019308
-0.00192514
-0.00191973
-0.00191469
-0.00191013
-0.00190612
-0.00190271
-0.00189996
-0.00189788
-2.89138e-05
-2.57646e-05
-2.2321e-05
-1.84477e-05
-1.40558e-05
-9.24442e-06
-4.11136e-06
1.26617e-06
6.81441e-06
1.24545e-05
1.81033e-05
2.36799e-05
2.91095e-05
3.43238e-05
3.92586e-05
4.38533e-05
4.80507e-05
5.17987e-05
5.505e-05
5.7762e-05
5.98961e-05
6.14182e-05
6.2298e-05
6.25089e-05
6.20278e-05
6.08347e-05
5.89128e-05
5.62482e-05
5.283e-05
4.86493e-05
4.36995e-05
3.79763e-05
3.14774e-05
2.42021e-05
1.61517e-05
7.32899e-06
-2.26169e-06
-1.26145e-05
-2.37226e-05
-3.55777e-05
-4.81707e-05
-6.14914e-05
-7.55284e-05
-9.02696e-05
-0.000105702
-0.000121811
-0.000138584
-0.000156005
-0.000174057
-0.000192726
-0.000211994
-0.000231844
-0.000252259
-0.00027322
-0.00029471
-0.00031671
-0.000339201
-0.000362165
-0.000385581
-0.000409431
-0.000433694
-0.000458352
-0.000483384
-0.000508771
-0.000534491
-0.000560527
-0.000586857
-0.000613461
-0.000640321
-0.000667416
-0.000694726
-0.00072223
-0.000749909
-0.000777742
-0.00080571
-0.000833791
-0.000861965
-0.000890211
-0.000918508
-0.000946836
-0.000975173
-0.0010035
-0.0010318
-0.00106004
-0.00108821
-0.00111629
-0.00114425
-0.00117208
-0.00119976
-0.00122726
-0.00125457
-0.00128166
-0.00130851
-0.00133511
-0.00136143
-0.00138745
-0.00141316
-0.00143853
-0.00146354
-0.00148818
-0.00151242
-0.00153624
-0.00155963
-0.00158256
-0.00160502
-0.00162699
-0.00164844
-0.00166937
-0.00168974
-0.00170955
-0.00172877
-0.00174739
-0.00176539
-0.00178276
-0.00179948
-0.00181553
-0.0018309
-0.00184558
-0.00185955
-0.0018728
-0.00188532
-0.0018971
-0.00190813
-0.0019184
-0.00192791
-0.00193665
-0.00194461
-0.00195179
-0.0019582
-0.00196383
-0.00196869
-0.00197277
-0.00197609
-0.00197867
-0.0019805
-0.0019816
-0.00198199
-0.00198169
-0.00198073
-0.00197913
-0.00197692
-0.00197414
-0.00197081
-0.001967
-0.00196274
-0.00195809
-0.0019531
-0.00194783
-0.00194235
-0.00193673
-0.00193105
-0.00192539
-0.00191982
-0.0019144
-0.00190924
-0.00190443
-0.00190007
-0.00189622
-0.00189276
-0.00188961
-3.7844e-05
-3.35632e-05
-2.93277e-05
-2.49158e-05
-2.01204e-05
-1.50166e-05
-9.6918e-06
-4.21561e-06
1.34744e-06
6.93298e-06
1.2474e-05
1.79019e-05
2.315e-05
2.81561e-05
3.28631e-05
3.72167e-05
4.11662e-05
4.46637e-05
4.76659e-05
5.01331e-05
5.20296e-05
5.33233e-05
5.39859e-05
5.39925e-05
5.33214e-05
5.19536e-05
4.9873e-05
4.70661e-05
4.35223e-05
3.92328e-05
3.41915e-05
2.83939e-05
2.18378e-05
1.45222e-05
6.44824e-06
-2.38172e-06
-1.19637e-05
-2.22923e-05
-3.33609e-05
-4.51617e-05
-5.76859e-05
-7.09238e-05
-8.48646e-05
-9.94967e-05
-0.000114807
-0.000130783
-0.000147411
-0.000164675
-0.00018256
-0.000201052
-0.000220133
-0.000239787
-0.000259996
-0.000280744
-0.000302012
-0.000323783
-0.000346038
-0.000368758
-0.000391924
-0.000415518
-0.00043952
-0.00046391
-0.00048867
-0.00051378
-0.000539219
-0.000564969
-0.00059101
-0.000617322
-0.000643886
-0.000670683
-0.000697692
-0.000724893
-0.000752266
-0.000779793
-0.000807451
-0.000835222
-0.000863085
-0.000891019
-0.000919003
-0.000947017
-0.000975042
-0.00100306
-0.00103104
-0.00105897
-0.00108683
-0.00111459
-0.00114225
-0.00116977
-0.00119714
-0.00122434
-0.00125134
-0.00127813
-0.00130469
-0.00133099
-0.00135702
-0.00138276
-0.00140818
-0.00143327
-0.00145801
-0.00148238
-0.00150635
-0.00152992
-0.00155305
-0.00157574
-0.00159796
-0.0016197
-0.00164093
-0.00166163
-0.0016818
-0.00170141
-0.00172044
-0.00173888
-0.00175671
-0.00177392
-0.00179049
-0.00180641
-0.00182166
-0.00183622
-0.0018501
-0.00186326
-0.00187571
-0.00188744
-0.00189843
-0.00190868
-0.00191817
-0.00192692
-0.0019349
-0.00194212
-0.00194859
-0.00195429
-0.00195924
-0.00196343
-0.00196688
-0.0019696
-0.00197158
-0.00197286
-0.00197344
-0.00197335
-0.00197261
-0.00197123
-0.00196926
-0.00196673
-0.00196365
-0.00196009
-0.00195608
-0.00195167
-0.00194691
-0.00194185
-0.00193655
-0.00193108
-0.0019255
-0.00191988
-0.0019143
-0.00190881
-0.00190346
-0.00189835
-0.00189356
-0.00188915
-0.00188493
-0.00188067
-4.72147e-05
-4.17924e-05
-3.67256e-05
-3.17179e-05
-2.6459e-05
-2.10064e-05
-1.54323e-05
-9.79273e-06
-4.14408e-06
1.45793e-06
6.95818e-06
1.23002e-05
1.74271e-05
2.22836e-05
2.6818e-05
3.09821e-05
3.47306e-05
3.80207e-05
4.08128e-05
4.30708e-05
4.47616e-05
4.58558e-05
4.63269e-05
4.61515e-05
4.53095e-05
4.37832e-05
4.15575e-05
3.86195e-05
3.49589e-05
3.05675e-05
2.54392e-05
1.95698e-05
1.2957e-05
5.60017e-06
-2.49997e-06
-1.13411e-05
-2.09197e-05
-3.12306e-05
-4.22675e-05
-5.40229e-05
-6.64884e-05
-7.96545e-05
-9.35109e-05
-0.000108046
-0.000123249
-0.000139105
-0.000155602
-0.000172724
-0.000190459
-0.000208789
-0.000227699
-0.000247174
-0.000267195
-0.000287747
-0.000308812
-0.000330372
-0.000352408
-0.000374903
-0.000397839
-0.000421196
-0.000444955
-0.000469098
-0.000493605
-0.000518458
-0.000543636
-0.00056912
-0.000594892
-0.000620931
-0.00064722
-0.000673738
-0.000700466
-0.000727384
-0.000754472
-0.000781712
-0.000809082
-0.000836563
-0.000864134
-0.000891776
-0.000919468
-0.000947189
-0.00097492
-0.00100264
-0.00103033
-0.00105797
-0.00108554
-0.00111301
-0.00114038
-0.00116761
-0.00119469
-0.00122161
-0.00124833
-0.00127484
-0.00130112
-0.00132715
-0.00135291
-0.00137837
-0.00140354
-0.00142837
-0.00145285
-0.00147697
-0.0015007
-0.00152402
-0.00154693
-0.00156939
-0.00159139
-0.00161291
-0.00163393
-0.00165444
-0.00167441
-0.00169384
-0.0017127
-0.00173098
-0.00174866
-0.00176572
-0.00178216
-0.00179795
-0.00181309
-0.00182756
-0.00184135
-0.00185444
-0.00186683
-0.00187851
-0.00188947
-0.00189969
-0.00190919
-0.00191794
-0.00192595
-0.00193322
-0.00193974
-0.00194551
-0.00195055
-0.00195484
-0.00195841
-0.00196125
-0.00196338
-0.00196482
-0.00196557
-0.00196566
-0.00196511
-0.00196394
-0.00196217
-0.00195984
-0.00195698
-0.00195363
-0.00194982
-0.00194559
-0.001941
-0.0019361
-0.00193092
-0.00192554
-0.00192
-0.00191436
-0.00190869
-0.00190304
-0.00189745
-0.00189198
-0.00188671
-0.00188171
-0.00187667
-0.00187128
-5.68229e-05
-5.02737e-05
-4.43661e-05
-3.87296e-05
-3.29605e-05
-2.71091e-05
-2.12371e-05
-1.53837e-05
-9.59417e-06
-3.91684e-06
1.60121e-06
6.91321e-06
1.19717e-05
1.67291e-05
2.11398e-05
2.51605e-05
2.87509e-05
3.18728e-05
3.44909e-05
3.65722e-05
3.8087e-05
3.90082e-05
3.93114e-05
3.89752e-05
3.79805e-05
3.63111e-05
3.39532e-05
3.08946e-05
2.71257e-05
2.26389e-05
1.74281e-05
1.14895e-05
4.82091e-06
-2.57822e-06
-1.0707e-05
-1.95632e-05
-2.91435e-05
-3.94429e-05
-5.04556e-05
-6.21743e-05
-7.45907e-05
-8.76956e-05
-0.000101479
-0.00011593
-0.000131037
-0.000146787
-0.000163167
-0.000180163
-0.000197761
-0.000215946
-0.000234702
-0.000254014
-0.000273864
-0.000294238
-0.000315116
-0.000336482
-0.000358319
-0.000380608
-0.000403331
-0.00042647
-0.000450006
-0.00047392
-0.000498193
-0.000522807
-0.000547743
-0.000572982
-0.000598504
-0.000624291
-0.000650324
-0.000676583
-0.00070305
-0.000729705
-0.000756529
-0.000783501
-0.000810602
-0.000837813
-0.000865114
-0.000892484
-0.000919903
-0.000947351
-0.000974809
-0.00100226
-0.00102967
-0.00105704
-0.00108433
-0.00111154
-0.00113864
-0.0011656
-0.00119242
-0.00121907
-0.00124552
-0.00127177
-0.0012978
-0.00132357
-0.00134908
-0.0013743
-0.00139922
-0.00142381
-0.00144806
-0.00147194
-0.00149545
-0.00151856
-0.00154124
-0.00156349
-0.00158529
-0.00160662
-0.00162745
-0.00164778
-0.00166758
-0.00168684
-0.00170555
-0.00172368
-0.00174122
-0.00175815
-0.00177447
-0.00179016
-0.0018052
-0.00181958
-0.00183329
-0.00184632
-0.00185866
-0.0018703
-0.00188123
-0.00189145
-0.00190094
-0.00190971
-0.00191775
-0.00192506
-0.00193163
-0.00193747
-0.00194259
-0.00194698
-0.00195065
-0.00195362
-0.00195588
-0.00195746
-0.00195837
-0.00195862
-0.00195823
-0.00195723
-0.00195564
-0.00195349
-0.0019508
-0.00194762
-0.00194396
-0.00193988
-0.00193542
-0.00193061
-0.0019255
-0.00192015
-0.00191459
-0.00190888
-0.00190306
-0.00189719
-0.00189131
-0.00188544
-0.00187966
-0.00187403
-0.00186815
-0.00186164
-6.65024e-05
-5.88472e-05
-5.21042e-05
-4.58265e-05
-3.9519e-05
-3.32305e-05
-2.70187e-05
-2.09095e-05
-1.49353e-05
-9.13563e-06
-3.55071e-06
1.7798e-06
6.81635e-06
1.1519e-05
1.58483e-05
1.97661e-05
2.32366e-05
2.6226e-05
2.87027e-05
3.06374e-05
3.20031e-05
3.27756e-05
3.29329e-05
3.2455e-05
3.13247e-05
2.95269e-05
2.70488e-05
2.38796e-05
2.00103e-05
1.54338e-05
1.01448e-05
4.13945e-06
-2.58409e-06
-1.00263e-05
-1.8186e-05
-2.70612e-05
-3.66481e-05
-4.69423e-05
-5.7938e-05
-6.96281e-05
-8.20047e-05
-9.50586e-05
-0.00010878
-0.000123158
-0.000138182
-0.000153839
-0.000170116
-0.000187
-0.000204477
-0.000222532
-0.000241149
-0.000260315
-0.000280011
-0.000300222
-0.000320932
-0.000342122
-0.000363777
-0.000385877
-0.000408406
-0.000431345
-0.000454676
-0.00047838
-0.000502439
-0.000526834
-0.000551547
-0.000576559
-0.000601851
-0.000627405
-0.000653201
-0.000679221
-0.000705446
-0.000731858
-0.000758436
-0.000785162
-0.000812014
-0.000838975
-0.000866024
-0.000893142
-0.000920308
-0.000947503
-0.000974708
-0.0010019
-0.00102906
-0.00105618
-0.00108322
-0.00111018
-0.00113702
-0.00116374
-0.00119031
-0.00121671
-0.00124293
-0.00126894
-0.00129472
-0.00132026
-0.00134554
-0.00137053
-0.00139522
-0.0014196
-0.00144363
-0.0014673
-0.0014906
-0.0015135
-0.001536
-0.00155806
-0.00157967
-0.00160082
-0.00162148
-0.00164164
-0.00166129
-0.0016804
-0.00169896
-0.00171696
-0.00173438
-0.0017512
-0.00176741
-0.001783
-0.00179796
-0.00181227
-0.00182592
-0.00183889
-0.00185119
-0.0018628
-0.00187372
-0.00188392
-0.00189342
-0.00190221
-0.00191028
-0.00191763
-0.00192426
-0.00193017
-0.00193536
-0.00193984
-0.00194361
-0.00194669
-0.00194907
-0.00195078
-0.00195182
-0.00195221
-0.00195197
-0.00195111
-0.00194967
-0.00194767
-0.00194512
-0.00194207
-0.00193853
-0.00193456
-0.00193017
-0.00192542
-0.00192033
-0.00191496
-0.00190933
-0.0019035
-0.0018975
-0.00189137
-0.00188514
-0.00187884
-0.00187253
-0.00186626
-0.00185954
-0.00185191
-7.6116e-05
-6.73788e-05
-5.98098e-05
-5.28889e-05
-4.60301e-05
-3.92802e-05
-3.26966e-05
-2.62965e-05
-2.01016e-05
-1.4142e-05
-8.45047e-06
-3.06055e-06
1.9944e-06
6.68098e-06
1.09658e-05
1.4816e-05
1.82002e-05
2.10887e-05
2.34534e-05
2.52686e-05
2.65101e-05
2.71562e-05
2.71872e-05
2.65854e-05
2.5335e-05
2.34222e-05
2.08354e-05
1.75647e-05
1.36022e-05
8.94145e-06
3.57779e-06
-2.49209e-06
-9.26994e-06
-1.6756e-05
-2.49491e-05
-3.38468e-05
-4.34455e-05
-5.37405e-05
-6.47263e-05
-7.63959e-05
-8.87416e-05
-0.000101755
-0.000115425
-0.000129742
-0.000144695
-0.000160272
-0.000176459
-0.000193245
-0.000210615
-0.000228555
-0.000247049
-0.000266084
-0.000285642
-0.000305708
-0.000326265
-0.000347297
-0.000368787
-0.000390717
-0.000413069
-0.000435826
-0.00045897
-0.000482483
-0.000506346
-0.000530541
-0.00055505
-0.000579854
-0.000604935
-0.000630275
-0.000655854
-0.000681655
-0.000707658
-0.000733845
-0.000760197
-0.000786695
-0.000813319
-0.000840049
-0.000866866
-0.000893751
-0.000920684
-0.000947646
-0.000974616
-0.00100158
-0.00102851
-0.00105539
-0.0010822
-0.00110892
-0.00113554
-0.00116203
-0.00118837
-0.00121455
-0.00124054
-0.00126633
-0.00129189
-0.00131722
-0.00134228
-0.00136707
-0.00139155
-0.00141572
-0.00143956
-0.00146304
-0.00148615
-0.00150887
-0.00153118
-0.00155307
-0.00157451
-0.0015955
-0.00161601
-0.00163602
-0.00165553
-0.00167451
-0.00169294
-0.00171082
-0.00172813
-0.00174485
-0.00176098
-0.00177649
-0.00179137
-0.00180561
-0.00181921
-0.00183214
-0.00184441
-0.001856
-0.0018669
-0.00187711
-0.00188662
-0.00189543
-0.00190353
-0.00191092
-0.0019176
-0.00192358
-0.00192884
-0.00193341
-0.00193727
-0.00194044
-0.00194294
-0.00194476
-0.00194592
-0.00194643
-0.00194632
-0.00194559
-0.00194427
-0.00194238
-0.00193995
-0.001937
-0.00193355
-0.00192964
-0.00192529
-0.00192056
-0.00191545
-0.00191002
-0.00190428
-0.00189829
-0.00189207
-0.00188564
-0.00187904
-0.00187228
-0.00186542
-0.0018585
-0.00185095
-0.00184224
-8.55421e-05
-7.57532e-05
-6.73712e-05
-5.98089e-05
-5.23943e-05
-4.51701e-05
-3.81935e-05
-3.14755e-05
-2.50306e-05
-1.88804e-05
-1.30504e-05
-7.56769e-06
-2.4604e-06
2.2435e-06
6.51601e-06
1.03294e-05
1.36566e-05
1.64719e-05
1.87508e-05
2.04706e-05
2.16101e-05
2.215e-05
2.20728e-05
2.1363e-05
2.00064e-05
1.79907e-05
1.53054e-05
1.19418e-05
7.89267e-06
3.15257e-06
-2.28251e-06
-8.4153e-06
-1.52472e-05
-2.27781e-05
-3.10068e-05
-3.99308e-05
-4.95462e-05
-5.98483e-05
-7.08312e-05
-8.24884e-05
-9.4812e-05
-0.000107793
-0.000121423
-0.000135691
-0.000150585
-0.000166094
-0.000182205
-0.000198906
-0.000216184
-0.000234023
-0.00025241
-0.000271329
-0.000290765
-0.000310702
-0.000331124
-0.000352014
-0.000373356
-0.000395132
-0.000417326
-0.000439919
-0.000462895
-0.000486234
-0.000509919
-0.000533932
-0.000558255
-0.000582871
-0.00060776
-0.000632904
-0.000658286
-0.000683886
-0.000709687
-0.000735669
-0.000761814
-0.000788103
-0.000814517
-0.000841036
-0.000867641
-0.000894313
-0.000921032
-0.000947779
-0.000974535
-0.00100128
-0.001028
-0.00105466
-0.00108126
-0.00110777
-0.00113418
-0.00116046
-0.00118659
-0.00121256
-0.00123835
-0.00126394
-0.0012893
-0.00131443
-0.0013393
-0.0013639
-0.00138819
-0.00141218
-0.00143584
-0.00145914
-0.00148208
-0.00150464
-0.00152679
-0.00154852
-0.00156982
-0.00159066
-0.00161103
-0.00163091
-0.0016503
-0.00166916
-0.00168748
-0.00170526
-0.00172247
-0.00173911
-0.00175515
-0.00177059
-0.00178542
-0.00179961
-0.00181316
-0.00182606
-0.00183831
-0.00184988
-0.00186078
-0.00187099
-0.00188052
-0.00188935
-0.00189748
-0.00190492
-0.00191166
-0.00191769
-0.00192303
-0.00192767
-0.00193162
-0.00193489
-0.00193748
-0.0019394
-0.00194067
-0.00194129
-0.00194128
-0.00194066
-0.00193944
-0.00193764
-0.00193529
-0.00193241
-0.00192902
-0.00192515
-0.00192082
-0.00191606
-0.0019109
-0.00190537
-0.0018995
-0.00189331
-0.00188684
-0.0018801
-0.0018731
-0.00186586
-0.00185844
-0.00185088
-0.00184252
-0.00183276
-9.46683e-05
-8.3866e-05
-7.46899e-05
-6.64922e-05
-5.85214e-05
-5.08171e-05
-4.34351e-05
-3.63808e-05
-2.96631e-05
-2.32976e-05
-1.73032e-05
-1.1701e-05
-6.51359e-06
-1.76429e-06
2.52356e-06
6.32673e-06
9.62242e-06
1.23887e-05
1.46045e-05
1.62502e-05
1.73074e-05
1.77591e-05
1.75899e-05
1.67863e-05
1.5336e-05
1.32282e-05
1.04536e-05
7.00455e-06
2.87477e-06
-1.94041e-06
-7.44425e-06
-1.36388e-05
-2.05248e-05
-2.81021e-05
-3.6369e-05
-4.53229e-05
-5.49599e-05
-6.5275e-05
-7.62624e-05
-8.79151e-05
-0.000100225
-0.000113185
-0.000126784
-0.000141013
-0.00015586
-0.000171314
-0.000187362
-0.000203992
-0.000221191
-0.000238944
-0.000257238
-0.000276057
-0.000295386
-0.00031521
-0.000335513
-0.000356278
-0.000377489
-0.000399129
-0.000421181
-0.000443628
-0.000466453
-0.000489636
-0.000513162
-0.000537012
-0.000561168
-0.000585613
-0.000610328
-0.000635296
-0.000660499
-0.000685918
-0.000711535
-0.000737331
-0.000763288
-0.000789388
-0.000815611
-0.000841938
-0.00086835
-0.000894827
-0.000921351
-0.000947903
-0.000974464
-0.00100101
-0.00102754
-0.00105401
-0.00108041
-0.00110673
-0.00113294
-0.00115903
-0.00118498
-0.00121076
-0.00123636
-0.00126177
-0.00128695
-0.0013119
-0.0013366
-0.00136102
-0.00138515
-0.00140897
-0.00143247
-0.00145562
-0.0014784
-0.00150081
-0.00152282
-0.00154441
-0.00156558
-0.00158629
-0.00160654
-0.00162631
-0.00164558
-0.00166434
-0.00168257
-0.00170026
-0.00171739
-0.00173396
-0.00174993
-0.00176532
-0.00178009
-0.00179424
-0.00180776
-0.00182064
-0.00183287
-0.00184444
-0.00185534
-0.00186557
-0.00187511
-0.00188397
-0.00189214
-0.00189962
-0.00190641
-0.00191251
-0.00191791
-0.00192263
-0.00192666
-0.00193001
-0.00193269
-0.0019347
-0.00193606
-0.00193677
-0.00193686
-0.00193633
-0.00193519
-0.00193346
-0.00193117
-0.00192834
-0.00192498
-0.00192112
-0.00191677
-0.00191196
-0.00190672
-0.00190107
-0.00189503
-0.00188863
-0.00188188
-0.0018748
-0.0018674
-0.00185968
-0.0018517
-0.0018435
-0.00183434
-0.00182357