/*--------------------------------*- C++ -*----------------------------------*\
  =========                 |
  \\      /  F ield         | OpenFOAM: The Open Source CFD Toolbox
   \\    /   O peration     | Website:  https://openfoam.org
    \\  /    A nd           | Version:  7
     \\/     M anipulation  |
\*---------------------------------------------------------------------------*/
FoamFile
{
    version     2.0;
    format      ascii;
    class       surfaceScalarField;
    location    "0.3875";
    object      phi;
}
// * * * * * * * * * * * * * * * * * * * * * * * * * * * * * * * * * * * * * //

dimensions      [0 3 -1 0 0 0 0];

internalField   nonuniform List<scalar> 
101920
(
-1.88226e-13
1.01454e-13
-5.37286e-13
3.48666e-13
-9.51944e-13
4.147e-13
-1.297e-12
3.48091e-13
-1.49705e-12
2.04258e-13
-1.51151e-12
1.65046e-14
-1.31907e-12
-1.93322e-13
-9.08912e-13
-4.11489e-13
-2.77577e-13
-6.30776e-13
5.72208e-13
-8.47483e-13
1.63348e-12
-1.0589e-12
2.89728e-12
-1.26249e-12
4.35412e-12
-1.45635e-12
5.99405e-12
-1.63954e-12
7.80654e-12
-1.81181e-12
9.78053e-12
-1.97316e-12
1.19048e-11
-2.12357e-12
1.41685e-11
-2.26304e-12
1.65607e-11
-2.39169e-12
1.90708e-11
-2.50974e-12
2.16886e-11
-2.61745e-12
2.44041e-11
-2.71511e-12
2.72074e-11
-2.80304e-12
3.00893e-11
-2.88157e-12
3.30407e-11
-2.95104e-12
3.60527e-11
-3.01178e-12
3.91171e-11
-3.0641e-12
4.22256e-11
-3.10833e-12
4.53707e-11
-3.14481e-12
4.85449e-11
-3.17386e-12
5.17409e-11
-3.1958e-12
5.49521e-11
-3.21093e-12
5.81718e-11
-3.21953e-12
6.1394e-11
-3.22191e-12
6.46126e-11
-3.21836e-12
6.7822e-11
-3.2092e-12
7.10168e-11
-3.19467e-12
7.41918e-11
-3.17503e-12
7.73422e-11
-3.15051e-12
8.04635e-11
-3.12134e-12
8.35512e-11
-3.08778e-12
8.66011e-11
-3.05006e-12
8.96093e-11
-3.00842e-12
9.25721e-11
-2.96303e-12
9.54859e-11
-2.9141e-12
9.83474e-11
-2.86182e-12
1.01153e-10
-2.80638e-12
1.03901e-10
-2.74794e-12
1.06588e-10
-2.68669e-12
1.0921e-10
-2.62281e-12
1.11766e-10
-2.55647e-12
1.14254e-10
-2.48782e-12
1.16671e-10
-2.41697e-12
1.19014e-10
-2.34405e-12
1.21283e-10
-2.26919e-12
1.23476e-10
-2.19254e-12
1.2559e-10
-2.11422e-12
1.27624e-10
-2.03435e-12
1.29577e-10
-1.95304e-12
1.31447e-10
-1.87036e-12
1.33234e-10
-1.78644e-12
1.34935e-10
-1.70136e-12
1.3655e-10
-1.61521e-12
1.38078e-10
-1.52807e-12
1.39518e-10
-1.44e-12
1.40869e-10
-1.3511e-12
1.4213e-10
-1.26142e-12
1.43301e-10
-1.17106e-12
1.44381e-10
-1.08007e-12
1.4537e-10
-9.885e-13
1.46266e-10
-8.96411e-13
1.4707e-10
-8.03848e-13
1.4778e-10
-7.10864e-13
1.48398e-10
-6.17513e-13
1.48922e-10
-5.2385e-13
1.49351e-10
-4.29924e-13
1.49687e-10
-3.35779e-13
1.49928e-10
-2.41445e-13
1.50075e-10
-1.46953e-13
1.50127e-10
-5.23469e-14
1.50085e-10
4.23122e-14
1.49948e-10
1.36956e-13
1.49716e-10
2.31527e-13
1.4939e-10
3.2599e-13
1.4897e-10
4.20322e-13
1.48455e-10
5.14494e-13
1.47847e-10
6.08459e-13
1.47145e-10
7.02156e-13
1.46349e-10
7.95519e-13
1.4546e-10
8.88489e-13
1.44479e-10
9.81022e-13
1.43406e-10
1.07307e-12
1.42241e-10
1.16458e-12
1.40986e-10
1.25549e-12
1.3964e-10
1.34571e-12
1.38205e-10
1.43519e-12
1.36681e-10
1.52386e-12
1.35069e-10
1.61162e-12
1.3337e-10
1.69839e-12
1.31586e-10
1.78409e-12
1.29717e-10
1.86863e-12
1.27765e-10
1.95195e-12
1.2573e-10
2.03393e-12
1.23615e-10
2.11447e-12
1.21422e-10
2.19342e-12
1.19151e-10
2.27068e-12
1.16804e-10
2.34612e-12
1.14384e-10
2.41963e-12
1.11892e-10
2.4911e-12
1.09332e-10
2.56039e-12
1.06704e-10
2.62732e-12
1.04012e-10
2.69173e-12
1.01258e-10
2.75343e-12
9.84457e-11
2.81231e-12
9.55772e-11
2.8682e-12
9.2656e-11
2.92092e-12
8.96856e-11
2.97023e-12
8.66695e-11
3.01591e-12
8.36113e-11
3.0578e-12
8.05152e-11
3.09572e-12
7.73854e-11
3.12944e-12
7.42263e-11
3.15874e-12
7.10426e-11
3.18333e-12
6.78393e-11
3.20298e-12
6.46214e-11
3.21742e-12
6.13945e-11
3.22641e-12
5.81643e-11
3.2297e-12
5.49367e-11
3.22704e-12
5.1718e-11
3.21815e-12
4.85148e-11
3.20273e-12
4.53339e-11
3.18043e-12
4.21827e-11
3.15091e-12
3.90684e-11
3.11387e-12
3.59987e-11
3.06907e-12
3.2982e-11
3.01626e-12
3.00266e-11
2.95506e-12
2.71415e-11
2.88503e-12
2.43356e-11
2.80582e-12
2.16182e-11
2.71717e-12
1.89992e-11
2.61884e-12
1.64886e-11
2.51053e-12
1.40969e-11
2.39184e-12
1.18345e-11
2.26251e-12
9.71214e-12
2.12239e-12
7.7408e-12
1.97142e-12
5.9316e-12
1.80946e-12
4.29551e-12
1.63646e-12
2.84321e-12
1.4526e-12
1.58496e-12
1.25837e-12
5.30091e-13
1.05475e-12
-3.13529e-13
8.43433e-13
-9.39656e-13
6.26639e-13
-1.34427e-12
4.06577e-13
-1.52834e-12
1.86263e-13
-1.50323e-12
-2.66152e-14
-1.29547e-12
-2.15447e-13
-9.48972e-13
-3.54132e-13
-5.30037e-13
-4.13064e-13
-1.55856e-13
-3.50317e-13
-1.32236e-13
-3.94343e-13
4.96895e-13
-1.06322e-12
1.02108e-12
-1.73368e-12
1.08434e-12
-2.19066e-12
8.03855e-13
-2.27816e-12
2.94155e-13
-1.89471e-12
-3.613e-13
-9.80238e-13
-1.10272e-12
4.9803e-13
-1.88762e-12
2.55471e-12
-2.68718e-12
5.19076e-12
-3.48284e-12
8.39632e-12
-4.26251e-12
1.21539e-11
-5.01762e-12
1.64414e-11
-5.74188e-12
2.12342e-11
-6.43094e-12
2.65056e-11
-7.08222e-12
3.22279e-11
-7.69436e-12
3.83721e-11
-8.26672e-12
4.49092e-11
-8.79912e-12
5.18101e-11
-9.29172e-12
5.90462e-11
-9.74503e-12
6.65892e-11
-1.01598e-11
7.44115e-11
-1.05368e-11
8.24862e-11
-1.08772e-11
9.0787e-11
-1.11819e-11
9.92886e-11
-1.14521e-11
1.07966e-10
-1.16889e-11
1.16796e-10
-1.18936e-11
1.25756e-10
-1.20673e-11
1.34823e-10
-1.22112e-11
1.43976e-10
-1.23265e-11
1.53195e-10
-1.24143e-11
1.6246e-10
-1.24757e-11
1.71753e-10
-1.2512e-11
1.81056e-10
-1.25241e-11
1.90351e-10
-1.25132e-11
1.99622e-10
-1.24803e-11
2.08854e-10
-1.24265e-11
2.18032e-10
-1.23527e-11
2.27141e-10
-1.22598e-11
2.36168e-10
-1.21489e-11
2.45101e-10
-1.20208e-11
2.53927e-10
-1.18763e-11
2.62634e-10
-1.17164e-11
2.71213e-10
-1.15417e-11
2.79651e-10
-1.13532e-11
2.8794e-10
-1.11515e-11
2.96071e-10
-1.09375e-11
3.04034e-10
-1.07116e-11
3.11822e-10
-1.04747e-11
3.19426e-10
-1.02274e-11
3.26839e-10
-9.97019e-12
3.34054e-10
-9.70381e-12
3.41066e-10
-9.42878e-12
3.47867e-10
-9.14562e-12
3.54452e-10
-8.85483e-12
3.60817e-10
-8.55692e-12
3.66954e-10
-8.25234e-12
3.72862e-10
-7.94156e-12
3.78533e-10
-7.62501e-12
3.83966e-10
-7.30307e-12
3.89156e-10
-6.97614e-12
3.94099e-10
-6.64458e-12
3.98792e-10
-6.30872e-12
4.03233e-10
-5.96891e-12
4.07418e-10
-5.62544e-12
4.11346e-10
-5.27861e-12
4.15013e-10
-4.92869e-12
4.18418e-10
-4.57595e-12
4.21558e-10
-4.22064e-12
4.24432e-10
-3.86301e-12
4.27039e-10
-3.50328e-12
4.29376e-10
-3.14167e-12
4.31443e-10
-2.77838e-12
4.33239e-10
-2.41362e-12
4.34763e-10
-2.04757e-12
4.36013e-10
-1.68044e-12
4.3699e-10
-1.31241e-12
4.37692e-10
-9.4367e-13
4.38119e-10
-5.744e-13
4.38271e-10
-2.04763e-13
4.38148e-10
1.65074e-13
4.3775e-10
5.34927e-13
4.37077e-10
9.04602e-13
4.36129e-10
1.27391e-12
4.34906e-10
1.64266e-12
4.3341e-10
2.01068e-12
4.3164e-10
2.3778e-12
4.29599e-10
2.74383e-12
4.27285e-10
3.10856e-12
4.24702e-10
3.47176e-12
4.21849e-10
3.83321e-12
4.1873e-10
4.1927e-12
4.15344e-10
4.54998e-12
4.11694e-10
4.9048e-12
4.07783e-10
5.25691e-12
4.03611e-10
5.60603e-12
3.99183e-10
5.95187e-12
3.945e-10
6.29413e-12
3.89565e-10
6.63247e-12
3.84382e-10
6.96655e-12
3.78954e-10
7.296e-12
3.73285e-10
7.62048e-12
3.67378e-10
7.93958e-12
3.61239e-10
8.25291e-12
3.54872e-10
8.56001e-12
3.48281e-10
8.86042e-12
3.41473e-10
9.15365e-12
3.34452e-10
9.4392e-12
3.27226e-10
9.71654e-12
3.198e-10
9.98517e-12
3.12182e-10
1.02445e-11
3.0438e-10
1.04939e-11
2.964e-10
1.07328e-11
2.88251e-10
1.09604e-11
2.79942e-10
1.11762e-11
2.71483e-10
1.13794e-11
2.62884e-10
1.15693e-11
2.54154e-10
1.17452e-11
2.45305e-10
1.19061e-11
2.36349e-10
1.20513e-11
2.27297e-10
1.21801e-11
2.18164e-10
1.22914e-11
2.08962e-10
1.23844e-11
1.99705e-10
1.24582e-11
1.9041e-10
1.25118e-11
1.81091e-10
1.25442e-11
1.71766e-10
1.25544e-11
1.6245e-10
1.25414e-11
1.53163e-10
1.2504e-11
1.43923e-10
1.24413e-11
1.34751e-10
1.23521e-11
1.25665e-10
1.22353e-11
1.16689e-10
1.20896e-11
1.07843e-10
1.19139e-11
9.91519e-11
1.17071e-11
9.06381e-11
1.14681e-11
8.23269e-11
1.11956e-11
7.42439e-11
1.08885e-11
6.64152e-11
1.05457e-11
5.88679e-11
1.0166e-11
5.16295e-11
9.74877e-12
4.47285e-11
9.29294e-12
3.81936e-11
8.79774e-12
3.20536e-11
8.2627e-12
2.63375e-11
7.68776e-12
2.10738e-11
7.07321e-12
1.62907e-11
6.4198e-12
1.20149e-11
5.72895e-12
8.27107e-12
5.00309e-12
5.08068e-12
4.24605e-12
2.45995e-12
3.46409e-12
4.17587e-13
2.66702e-12
-1.04657e-12
1.86868e-12
-1.94379e-12
1.08668e-12
-2.30448e-12
3.44999e-13
-2.19299e-12
-3.17406e-13
-1.72161e-12
-8.3637e-13
-1.0515e-12
-1.11802e-12
-3.93541e-13
-1.0465e-12
-5.06325e-13
-4.34836e-13
9.32443e-13
-1.11275e-12
1.70568e-12
-1.67112e-12
1.64572e-12
-1.84901e-12
9.80845e-13
-1.45153e-12
-1.04456e-13
-3.41643e-13
-1.46904e-12
1.56865e-12
-3.00836e-12
4.33027e-12
-4.64517e-12
7.968e-12
-6.32301e-12
1.24876e-11
-8.00179e-12
1.78799e-11
-9.65382e-12
2.41239e-11
-1.12599e-11
3.11902e-11
-1.28062e-11
3.9044e-11
-1.42831e-11
4.76466e-11
-1.56837e-11
5.69571e-11
-1.70039e-11
6.69327e-11
-1.82414e-11
7.75297e-11
-1.93951e-11
8.87037e-11
-2.0465e-11
1.00411e-10
-2.14515e-11
1.12608e-10
-2.23558e-11
1.25251e-10
-2.31795e-11
1.38299e-10
-2.39243e-11
1.51709e-10
-2.45923e-11
1.65444e-10
-2.51858e-11
1.79462e-10
-2.57071e-11
1.93728e-10
-2.61585e-11
2.08203e-10
-2.65425e-11
2.22854e-10
-2.68615e-11
2.37646e-10
-2.7118e-11
2.52547e-10
-2.73144e-11
2.67525e-10
-2.74532e-11
2.8255e-10
-2.75367e-11
2.97593e-10
-2.75673e-11
3.12628e-10
-2.75473e-11
3.27626e-10
-2.74789e-11
3.42564e-10
-2.73643e-11
3.57417e-10
-2.72056e-11
3.72162e-10
-2.7005e-11
3.86778e-10
-2.67645e-11
4.01242e-10
-2.64859e-11
4.15537e-10
-2.61712e-11
4.29642e-10
-2.58223e-11
4.43541e-10
-2.54408e-11
4.57216e-10
-2.50285e-11
4.70651e-10
-2.4587e-11
4.83831e-10
-2.41179e-11
4.96741e-10
-2.36228e-11
5.09369e-10
-2.31031e-11
5.21702e-10
-2.25602e-11
5.33727e-10
-2.19954e-11
5.45432e-10
-2.14101e-11
5.56809e-10
-2.08055e-11
5.67846e-10
-2.01827e-11
5.78533e-10
-1.9543e-11
5.88863e-10
-1.88873e-11
5.98828e-10
-1.82167e-11
6.08418e-10
-1.75323e-11
6.17628e-10
-1.68349e-11
6.2645e-10
-1.61254e-11
6.34878e-10
-1.54048e-11
6.42907e-10
-1.46737e-11
6.50532e-10
-1.3933e-11
6.57746e-10
-1.31833e-11
6.64546e-10
-1.24255e-11
6.70927e-10
-1.16601e-11
6.76886e-10
-1.08877e-11
6.82419e-10
-1.0109e-11
6.87522e-10
-9.32447e-12
6.92194e-10
-8.53471e-12
6.96431e-10
-7.74022e-12
7.0023e-10
-6.94149e-12
7.03591e-10
-6.13899e-12
7.0651e-10
-5.33319e-12
7.08987e-10
-4.52452e-12
7.11019e-10
-3.7134e-12
7.12607e-10
-2.90024e-12
7.13749e-10
-2.08548e-12
7.14444e-10
-1.26952e-12
7.14692e-10
-4.52767e-13
7.14492e-10
3.64389e-13
7.13845e-10
1.18156e-12
7.12751e-10
1.99835e-12
7.11211e-10
2.81434e-12
7.09224e-10
3.62911e-12
7.06793e-10
4.44224e-12
7.03917e-10
5.2533e-12
7.00599e-10
6.06187e-12
6.9684e-10
6.86749e-12
6.92641e-10
7.6697e-12
6.88006e-10
8.46798e-12
6.82937e-10
9.26183e-12
6.77436e-10
1.00507e-11
6.71507e-10
1.0834e-11
6.65152e-10
1.16112e-11
6.58376e-10
1.23817e-11
6.51183e-10
1.31448e-11
6.43577e-10
1.38998e-11
6.35562e-10
1.4646e-11
6.27146e-10
1.53827e-11
6.18332e-10
1.6109e-11
6.09128e-10
1.68242e-11
5.99539e-10
1.75273e-11
5.89574e-10
1.82174e-11
5.7924e-10
1.88936e-11
5.68544e-10
1.95548e-11
5.57497e-10
2.02001e-11
5.46108e-10
2.08281e-11
5.34386e-10
2.14379e-11
5.22342e-10
2.20282e-11
5.09988e-10
2.25978e-11
4.97336e-10
2.31453e-11
4.84399e-10
2.36693e-11
4.7119e-10
2.41684e-11
4.57725e-10
2.46412e-11
4.44018e-10
2.5086e-11
4.30085e-10
2.55013e-11
4.15944e-10
2.58855e-11
4.01613e-10
2.62366e-11
3.87111e-10
2.65531e-11
3.72457e-10
2.6833e-11
3.57673e-10
2.70745e-11
3.42781e-10
2.72755e-11
3.27805e-10
2.74341e-11
3.12767e-10
2.75483e-11
2.97695e-10
2.76158e-11
2.82614e-10
2.76344e-11
2.67552e-10
2.76019e-11
2.52539e-10
2.75161e-11
2.37605e-10
2.73746e-11
2.22781e-10
2.71751e-11
2.081e-10
2.69152e-11
1.93597e-10
2.65924e-11
1.79306e-10
2.62042e-11
1.65264e-10
2.57483e-11
1.5151e-10
2.52222e-11
1.38081e-10
2.46237e-11
1.25019e-10
2.39505e-11
1.12364e-10
2.32002e-11
1.00159e-10
2.23709e-11
8.84469e-11
2.14609e-11
7.7271e-11
2.04688e-11
6.66757e-11
1.93933e-11
5.6705e-11
1.82339e-11
4.74024e-11
1.69908e-11
3.88105e-11
1.56653e-11
3.09705e-11
1.42599e-11
2.39206e-11
1.27789e-11
1.76953e-11
1.12288e-11
1.23236e-11
9.61897e-12
7.82654e-12
7.96292e-12
4.2127e-12
6.2809e-12
1.47424e-12
4.60281e-12
-4.14913e-13
2.96988e-12
-1.50306e-12
1.4356e-12
-1.87421e-12
7.12045e-14
-1.67073e-12
-1.02008e-12
-1.10153e-12
-1.68861e-12
-4.37479e-13
-1.73979e-12
-9.40147e-13
-3.58321e-13
1.28917e-12
-8.23523e-13
2.17651e-12
-1.00386e-12
1.83204e-12
-6.18158e-13
5.9781e-13
5.44205e-13
-1.2675e-12
2.63684e-12
-3.56222e-12
5.76408e-12
-6.13353e-12
9.98952e-12
-8.86682e-12
1.53455e-11
-1.16758e-11
2.18415e-11
-1.44961e-11
2.9469e-11
-1.72805e-11
3.82058e-11
-1.99955e-11
4.8018e-11
-2.26169e-11
5.88639e-11
-2.51274e-11
7.06961e-11
-2.75146e-11
8.34634e-11
-2.97702e-11
9.71119e-11
-3.1889e-11
1.11586e-10
-3.38684e-11
1.26829e-10
-3.57072e-11
1.42784e-10
-3.74057e-11
1.59394e-10
-3.89653e-11
1.76603e-10
-4.0388e-11
1.94356e-10
-4.16766e-11
2.12598e-10
-4.28341e-11
2.31276e-10
-4.38639e-11
2.5034e-10
-4.47699e-11
2.69738e-10
-4.55558e-11
2.89421e-10
-4.62256e-11
3.09344e-10
-4.67834e-11
3.29459e-10
-4.72332e-11
3.49724e-10
-4.7579e-11
3.70097e-10
-4.7825e-11
3.90536e-10
-4.79752e-11
4.11002e-10
-4.80335e-11
4.31459e-10
-4.80038e-11
4.5187e-10
-4.789e-11
4.72202e-10
-4.76957e-11
4.92421e-10
-4.74246e-11
5.12496e-10
-4.70804e-11
5.32397e-10
-4.66663e-11
5.52097e-10
-4.61859e-11
5.71568e-10
-4.56424e-11
5.90784e-10
-4.50388e-11
6.09721e-10
-4.43784e-11
6.28356e-10
-4.36639e-11
6.46667e-10
-4.28983e-11
6.64633e-10
-4.20843e-11
6.82234e-10
-4.12245e-11
6.99452e-10
-4.03216e-11
7.16269e-10
-3.93779e-11
7.32669e-10
-3.83958e-11
7.48636e-10
-3.73775e-11
7.64156e-10
-3.63252e-11
7.79213e-10
-3.52409e-11
7.93797e-10
-3.41268e-11
8.07894e-10
-3.29845e-11
8.21493e-10
-3.1816e-11
8.34583e-10
-3.06229e-11
8.47155e-10
-2.94069e-11
8.59199e-10
-2.81696e-11
8.70707e-10
-2.69125e-11
8.8167e-10
-2.56369e-11
8.92081e-10
-2.43442e-11
9.01933e-10
-2.30357e-11
9.1122e-10
-2.17127e-11
9.19936e-10
-2.03762e-11
9.28076e-10
-1.90273e-11
9.35634e-10
-1.76672e-11
9.42606e-10
-1.62968e-11
9.48988e-10
-1.49171e-11
9.54776e-10
-1.3529e-11
9.59968e-10
-1.21333e-11
9.6456e-10
-1.07309e-11
9.68549e-10
-9.32267e-12
9.71933e-10
-7.90933e-12
9.74712e-10
-6.49166e-12
9.76881e-10
-5.07039e-12
9.78442e-10
-3.64625e-12
9.79392e-10
-2.21997e-12
9.79732e-10
-7.92284e-13
9.7946e-10
6.36103e-13
9.78577e-10
2.06449e-12
9.77083e-10
3.49217e-12
9.74979e-10
4.91843e-12
9.72265e-10
6.34254e-12
9.68944e-10
7.76374e-12
9.65015e-10
9.18127e-12
9.60483e-10
1.05943e-11
9.55348e-10
1.20021e-11
9.49614e-10
1.34039e-11
9.43283e-10
1.47986e-11
9.36359e-10
1.61855e-11
9.28846e-10
1.75635e-11
9.20748e-10
1.89317e-11
9.1207e-10
2.0289e-11
9.02817e-10
2.16343e-11
8.92995e-10
2.29665e-11
8.8261e-10
2.42844e-11
8.71669e-10
2.55868e-11
8.60178e-10
2.68722e-11
8.48148e-10
2.81393e-11
8.35585e-10
2.93866e-11
8.22499e-10
3.06126e-11
8.089e-10
3.18156e-11
7.94798e-10
3.29941e-11
7.80206e-10
3.41461e-11
7.65136e-10
3.52699e-11
7.49599e-10
3.63636e-11
7.33612e-10
3.7425e-11
7.17187e-10
3.8452e-11
7.00342e-10
3.94426e-11
6.83092e-10
4.03943e-11
6.65456e-10
4.13048e-11
6.47453e-10
4.21716e-11
6.29101e-10
4.29921e-11
6.10423e-10
4.37636e-11
5.91441e-10
4.44833e-11
5.72177e-10
4.51484e-11
5.52657e-10
4.57559e-11
5.32907e-10
4.63027e-11
5.12954e-10
4.67855e-11
4.92827e-10
4.72012e-11
4.72555e-10
4.75464e-11
4.52171e-10
4.78175e-11
4.31707e-10
4.80111e-11
4.11198e-10
4.81235e-11
3.90681e-10
4.81509e-11
3.70192e-10
4.80896e-11
3.49772e-10
4.79356e-11
3.29461e-10
4.7685e-11
3.09301e-10
4.73339e-11
2.89337e-10
4.68782e-11
2.69615e-10
4.6314e-11
2.50181e-10
4.56371e-11
2.31086e-10
4.48434e-11
2.12378e-10
4.39292e-11
1.94111e-10
4.28907e-11
1.76337e-10
4.17242e-11
1.5911e-10
4.04263e-11
1.42487e-10
3.89939e-11
1.26524e-10
3.74245e-11
1.11276e-10
3.57161e-11
9.6802e-11
3.38676e-11
8.31575e-11
3.18787e-11
7.03984e-11
2.97504e-11
5.85784e-11
2.74858e-11
4.77485e-11
2.50902e-11
3.79556e-11
2.2572e-11
2.92405e-11
1.99436e-11
2.16367e-11
1.72229e-11
1.51677e-11
1.44339e-11
9.84244e-12
1.16097e-11
5.64833e-12
8.79752e-12
2.54732e-12
6.0637e-12
4.74905e-13
3.49711e-12
-6.65224e-13
1.2113e-12
-1.02229e-12
-6.46159e-13
-8.18465e-13
-1.87523e-12
-3.55696e-13
-2.21099e-12
-1.30172e-12
-2.1014e-13
1.49769e-12
-3.09251e-13
2.27711e-12
8.2323e-14
1.44546e-12
1.2435e-12
-5.58014e-13
3.38429e-12
-3.40577e-12
6.66038e-12
-6.8384e-12
1.11817e-11
-1.06548e-11
1.70184e-11
-1.47016e-11
2.42077e-11
-1.88621e-11
3.27609e-11
-2.30466e-11
4.26695e-11
-2.71876e-11
5.39097e-11
-3.12347e-11
6.64447e-11
-3.51508e-11
8.0228e-11
-3.89094e-11
9.52056e-11
-4.24909e-11
1.11318e-10
-4.58818e-11
1.28503e-10
-4.90732e-11
1.46695e-10
-5.20597e-11
1.65828e-10
-5.48386e-11
1.85832e-10
-5.74095e-11
2.06641e-10
-5.97735e-11
2.28186e-10
-6.19331e-11
2.50402e-10
-6.38916e-11
2.73222e-10
-6.56534e-11
2.96581e-10
-6.7223e-11
3.20417e-10
-6.86056e-11
3.44669e-10
-6.98067e-11
3.69276e-10
-7.08321e-11
3.9418e-10
-7.16875e-11
4.19326e-10
-7.2379e-11
4.4466e-10
-7.29124e-11
4.70129e-10
-7.32937e-11
4.95683e-10
-7.3529e-11
5.21274e-10
-7.3624e-11
5.46855e-10
-7.35846e-11
5.72382e-10
-7.34166e-11
5.97812e-10
-7.31254e-11
6.23104e-10
-7.27167e-11
6.48219e-10
-7.21957e-11
6.7312e-10
-7.15678e-11
6.97772e-10
-7.08378e-11
7.2214e-10
-7.00109e-11
7.46193e-10
-6.90917e-11
7.69899e-10
-6.8085e-11
7.9323e-10
-6.69952e-11
8.16158e-10
-6.58266e-11
8.38656e-10
-6.45834e-11
8.60701e-10
-6.32697e-11
8.82268e-10
-6.18893e-11
9.03336e-10
-6.0446e-11
9.23883e-10
-5.89433e-11
9.4389e-10
-5.73847e-11
9.63338e-10
-5.57736e-11
9.82209e-10
-5.4113e-11
1.00049e-09
-5.24061e-11
1.01816e-09
-5.06556e-11
1.03521e-09
-4.88645e-11
1.05162e-09
-4.70353e-11
1.06738e-09
-4.51706e-11
1.08249e-09
-4.32727e-11
1.09692e-09
-4.1344e-11
1.11067e-09
-3.93866e-11
1.12372e-09
-3.74026e-11
1.13608e-09
-3.53941e-11
1.14773e-09
-3.33629e-11
1.15867e-09
-3.13107e-11
1.16888e-09
-2.92393e-11
1.17836e-09
-2.71503e-11
1.18711e-09
-2.50453e-11
1.19512e-09
-2.29257e-11
1.20238e-09
-2.07931e-11
1.2089e-09
-1.86487e-11
1.21466e-09
-1.64938e-11
1.21967e-09
-1.43297e-11
1.22392e-09
-1.21577e-11
1.2274e-09
-9.97898e-12
1.23013e-09
-7.79464e-12
1.23209e-09
-5.60584e-12
1.23328e-09
-3.41371e-12
1.23371e-09
-1.21936e-12
1.23337e-09
9.76081e-13
1.23226e-09
3.17151e-12
1.23039e-09
5.36581e-12
1.22775e-09
7.55788e-12
1.22434e-09
9.74657e-12
1.22017e-09
1.19307e-11
1.21525e-09
1.41092e-11
1.20956e-09
1.62806e-11
1.20312e-09
1.84439e-11
1.19592e-09
2.05976e-11
1.18798e-09
2.27404e-11
1.1793e-09
2.48709e-11
1.16987e-09
2.69876e-11
1.15971e-09
2.9089e-11
1.14883e-09
3.11735e-11
1.13722e-09
3.32393e-11
1.12491e-09
3.52846e-11
1.11188e-09
3.73077e-11
1.09816e-09
3.93065e-11
1.08375e-09
4.1279e-11
1.06867e-09
4.32231e-11
1.05292e-09
4.51365e-11
1.03652e-09
4.70167e-11
1.01947e-09
4.88613e-11
1.00179e-09
5.06678e-11
9.83506e-10
5.24334e-11
9.6462e-10
5.41552e-11
9.45153e-10
5.58303e-11
9.25122e-10
5.74556e-11
9.04546e-10
5.90277e-11
8.83444e-10
6.05434e-11
8.61839e-10
6.19991e-11
8.39752e-10
6.33912e-11
8.17207e-10
6.47159e-11
7.9423e-10
6.59692e-11
7.70846e-10
6.71469e-11
7.47084e-10
6.8245e-11
7.22972e-10
6.92589e-11
6.98544e-10
7.01842e-11
6.73829e-10
7.10162e-11
6.48864e-10
7.17501e-11
6.23684e-10
7.23808e-11
5.98326e-10
7.29033e-11
5.7283e-10
7.33124e-11
5.47238e-10
7.36026e-11
5.21592e-10
7.37686e-11
4.95937e-10
7.38048e-11
4.7032e-10
7.37053e-11
4.44791e-10
7.34645e-11
4.19398e-10
7.30764e-11
3.94196e-10
7.25352e-11
3.69239e-10
7.18349e-11
3.44582e-10
7.09697e-11
3.20285e-10
6.99337e-11
2.96406e-10
6.8721e-11
2.73009e-10
6.7326e-11
2.50156e-10
6.57433e-11
2.27912e-10
6.39679e-11
2.06343e-10
6.19953e-11
1.85516e-10
5.98212e-11
1.65498e-10
5.74423e-11
1.46358e-10
5.48564e-11
1.28163e-10
5.20627e-11
1.10979e-10
4.90618e-11
9.48738e-11
4.58564e-11
7.99081e-11
4.24519e-11
6.61413e-11
3.88576e-11
5.36267e-11
3.5087e-11
4.24102e-11
3.11601e-11
3.25277e-11
2.71044e-11
2.40035e-11
2.29577e-11
1.6847e-11
1.87693e-11
1.10454e-11
1.4605e-11
6.55647e-12
1.05548e-11
3.30512e-12
6.74029e-12
1.1851e-12
3.31934e-12
4.89574e-14
4.90239e-13
-3.15887e-13
-1.4957e-12
-2.06971e-13
-2.31278e-12
-1.51382e-12
-2.09345e-14
1.51975e-12
3.48286e-13
1.90674e-12
1.4477e-12
3.47395e-13
3.53679e-12
-2.64295e-12
6.81358e-12
-6.67806e-12
1.14258e-11
-1.14482e-11
1.74794e-11
-1.67079e-11
2.50445e-11
-2.22661e-11
3.41593e-11
-2.7975e-11
4.48353e-11
-3.37202e-11
5.7063e-11
-3.94133e-11
7.08162e-11
-4.49865e-11
8.60554e-11
-5.0389e-11
1.0273e-10
-5.55829e-11
1.20781e-10
-6.05407e-11
1.40142e-10
-6.52425e-11
1.60745e-10
-6.96748e-11
1.82515e-10
-7.38288e-11
2.05376e-10
-7.76997e-11
2.29253e-10
-8.12857e-11
2.54068e-10
-8.45874e-11
2.79742e-10
-8.76074e-11
3.06201e-10
-9.03495e-11
3.33367e-10
-9.2819e-11
3.61166e-10
-9.50218e-11
3.89525e-10
-9.69644e-11
4.18373e-10
-9.86542e-11
4.4764e-10
-1.00099e-10
4.77258e-10
-1.01305e-10
5.07162e-10
-1.02283e-10
5.37289e-10
-1.03038e-10
5.67576e-10
-1.03581e-10
5.97966e-10
-1.03918e-10
6.284e-10
-1.04058e-10
6.58825e-10
-1.04009e-10
6.89187e-10
-1.03778e-10
7.19436e-10
-1.03374e-10
7.49523e-10
-1.02804e-10
7.79403e-10
-1.02076e-10
8.09031e-10
-1.01196e-10
8.38365e-10
-1.00172e-10
8.67365e-10
-9.90109e-11
8.95992e-10
-9.77191e-11
9.2421e-10
-9.63031e-11
9.51983e-10
-9.47693e-11
9.7928e-10
-9.31238e-11
1.00607e-09
-9.13724e-11
1.03232e-09
-8.95208e-11
1.058e-09
-8.75744e-11
1.0831e-09
-8.55385e-11
1.10757e-09
-8.34183e-11
1.1314e-09
-8.12185e-11
1.15457e-09
-7.89437e-11
1.17706e-09
-7.65986e-11
1.19884e-09
-7.41873e-11
1.2199e-09
-7.1714e-11
1.24022e-09
-6.91826e-11
1.25978e-09
-6.65968e-11
1.27857e-09
-6.39602e-11
1.29657e-09
-6.12763e-11
1.31377e-09
-5.85483e-11
1.33017e-09
-5.57793e-11
1.34574e-09
-5.29722e-11
1.36047e-09
-5.013e-11
1.37436e-09
-4.72551e-11
1.3874e-09
-4.43503e-11
1.39958e-09
-4.14179e-11
1.41089e-09
-3.84603e-11
1.42133e-09
-3.54797e-11
1.43088e-09
-3.24783e-11
1.43954e-09
-2.9458e-11
1.44731e-09
-2.64208e-11
1.45419e-09
-2.33686e-11
1.46016e-09
-2.03033e-11
1.46523e-09
-1.72265e-11
1.46939e-09
-1.414e-11
1.47264e-09
-1.10455e-11
1.47498e-09
-7.94465e-12
1.47641e-09
-4.83901e-12
1.47692e-09
-1.73018e-12
1.47651e-09
1.38023e-12
1.47519e-09
4.49062e-12
1.47296e-09
7.59938e-12
1.46981e-09
1.07049e-11
1.46575e-09
1.38056e-11
1.46078e-09
1.68997e-11
1.45491e-09
1.99856e-11
1.44813e-09
2.30614e-11
1.44044e-09
2.61255e-11
1.43187e-09
2.91759e-11
1.4224e-09
3.22106e-11
1.41204e-09
3.52276e-11
1.4008e-09
3.82248e-11
1.38869e-09
4.12e-11
1.37571e-09
4.4151e-11
1.36188e-09
4.70751e-11
1.34719e-09
4.997e-11
1.33166e-09
5.2833e-11
1.31531e-09
5.56612e-11
1.29814e-09
5.84518e-11
1.28016e-09
6.12016e-11
1.26139e-09
6.39076e-11
1.24184e-09
6.65662e-11
1.22152e-09
6.9174e-11
1.20046e-09
7.17273e-11
1.17867e-09
7.42222e-11
1.15617e-09
7.66547e-11
1.13298e-09
7.90206e-11
1.10912e-09
8.13155e-11
1.08461e-09
8.35348e-11
1.05948e-09
8.56737e-11
1.03375e-09
8.77273e-11
1.00745e-09
8.96904e-11
9.80611e-10
9.15577e-11
9.53256e-10
9.33236e-11
9.25421e-10
9.49823e-11
8.97137e-10
9.65279e-11
8.68441e-10
9.79543e-11
8.3937e-10
9.92551e-11
8.09962e-10
1.00424e-10
7.80258e-10
1.01453e-10
7.503e-10
1.02337e-10
7.20135e-10
1.03068e-10
6.89807e-10
1.03639e-10
6.59367e-10
1.04042e-10
6.28864e-10
1.0427e-10
5.98353e-10
1.04315e-10
5.67888e-10
1.04169e-10
5.37528e-10
1.03824e-10
5.0733e-10
1.03273e-10
4.77358e-10
1.02506e-10
4.47676e-10
1.01517e-10
4.18348e-10
1.00296e-10
3.89444e-10
9.88373e-11
3.61033e-10
9.71315e-11
3.33187e-10
9.51717e-11
3.05979e-10
9.29508e-11
2.79484e-10
9.04623e-11
2.53778e-10
8.77005e-11
2.28939e-10
8.46604e-11
2.05043e-10
8.13381e-11
1.82169e-10
7.77313e-11
1.60392e-10
7.38396e-11
1.39788e-10
6.96653e-11
1.20431e-10
6.52134e-11
1.02391e-10
6.04928e-11
8.57313e-11
5.55172e-11
7.05122e-11
5.03068e-11
5.67835e-11
4.48895e-11
4.45839e-11
3.93038e-11
3.3938e-11
3.36015e-11
2.48551e-11
2.78508e-11
1.73243e-11
2.21391e-11
1.13065e-11
1.65798e-11
6.72697e-12
1.13226e-11
3.47555e-12
6.56314e-12
1.40787e-12
2.54864e-12
3.30743e-13
-4.16392e-13
-2.33547e-14
-1.95113e-12
-1.53806e-12
1.88794e-13
1.33455e-12
1.0907e-12
1.00501e-12
2.98933e-12
-1.55182e-12
6.11195e-12
-5.7643e-12
1.06359e-11
-1.11986e-11
1.66944e-11
-1.75031e-11
2.4383e-11
-2.43945e-11
3.37653e-11
-3.16475e-11
4.48759e-11
-3.90847e-11
5.77243e-11
-4.6567e-11
7.22986e-11
-5.39857e-11
8.85697e-11
-6.12559e-11
1.06494e-10
-6.83125e-11
1.26018e-10
-7.51059e-11
1.47078e-10
-8.15994e-11
1.69603e-10
-8.77663e-11
1.93516e-10
-9.35874e-11
2.18738e-10
-9.90502e-11
2.45186e-10
-1.04147e-10
2.72776e-10
-1.08875e-10
3.01421e-10
-1.13232e-10
3.31037e-10
-1.17223e-10
3.61537e-10
-1.2085e-10
3.92838e-10
-1.24119e-10
4.24855e-10
-1.27039e-10
4.57507e-10
-1.29616e-10
4.90714e-10
-1.3186e-10
5.24396e-10
-1.33781e-10
5.58479e-10
-1.35387e-10
5.92887e-10
-1.3669e-10
6.27548e-10
-1.37699e-10
6.62393e-10
-1.38426e-10
6.97355e-10
-1.3888e-10
7.32369e-10
-1.39072e-10
7.67372e-10
-1.39012e-10
8.02305e-10
-1.38711e-10
8.37108e-10
-1.38178e-10
8.71729e-10
-1.37425e-10
9.06112e-10
-1.36459e-10
9.40208e-10
-1.35292e-10
9.73968e-10
-1.33932e-10
1.00735e-09
-1.32389e-10
1.0403e-09
-1.30671e-10
1.07278e-09
-1.28786e-10
1.10475e-09
-1.26744e-10
1.13618e-09
-1.24552e-10
1.16703e-09
-1.22218e-10
1.19726e-09
-1.1975e-10
1.22683e-09
-1.17154e-10
1.25573e-09
-1.14438e-10
1.28392e-09
-1.11609e-10
1.31138e-09
-1.08673e-10
1.33807e-09
-1.05636e-10
1.36398e-09
-1.02504e-10
1.38907e-09
-9.92831e-11
1.41333e-09
-9.59787e-11
1.43675e-09
-9.2596e-11
1.45929e-09
-8.914e-11
1.48095e-09
-8.56155e-11
1.5017e-09
-8.2027e-11
1.52153e-09
-7.8379e-11
1.54042e-09
-7.46756e-11
1.55837e-09
-7.09208e-11
1.57536e-09
-6.71183e-11
1.59138e-09
-6.32719e-11
1.60641e-09
-5.93848e-11
1.62045e-09
-5.54605e-11
1.63349e-09
-5.1502e-11
1.64553e-09
-4.75123e-11
1.65654e-09
-4.34944e-11
1.66653e-09
-3.94509e-11
1.6755e-09
-3.53846e-11
1.68343e-09
-3.1298e-11
1.69032e-09
-2.71935e-11
1.69616e-09
-2.30735e-11
1.70096e-09
-1.89403e-11
1.70471e-09
-1.47963e-11
1.70741e-09
-1.06436e-11
1.70906e-09
-6.48448e-12
1.70965e-09
-2.32105e-12
1.70919e-09
1.8445e-12
1.70767e-09
6.01003e-12
1.70509e-09
1.01734e-11
1.70146e-09
1.43323e-11
1.69679e-09
1.84846e-11
1.69106e-09
2.2628e-11
1.68428e-09
2.67602e-11
1.67646e-09
3.08789e-11
1.66761e-09
3.49815e-11
1.65772e-09
3.90655e-11
1.6468e-09
4.31283e-11
1.63486e-09
4.71672e-11
1.62191e-09
5.11792e-11
1.60794e-09
5.51614e-11
1.59298e-09
5.91107e-11
1.57704e-09
6.30237e-11
1.56011e-09
6.68972e-11
1.54221e-09
7.07275e-11
1.52336e-09
7.45108e-11
1.50357e-09
7.82432e-11
1.48285e-09
8.19207e-11
1.46122e-09
8.55388e-11
1.43869e-09
8.90931e-11
1.41529e-09
9.25789e-11
1.39102e-09
9.59911e-11
1.36592e-09
9.93247e-11
1.34e-09
1.02574e-10
1.31328e-09
1.05734e-10
1.2858e-09
1.08798e-10
1.25757e-09
1.11761e-10
1.22863e-09
1.14615e-10
1.199e-09
1.17355e-10
1.16872e-09
1.19974e-10
1.13781e-09
1.22463e-10
1.10632e-09
1.24817e-10
1.07427e-09
1.27027e-10
1.04172e-09
1.29085e-10
1.00869e-09
1.30984e-10
9.75227e-10
1.32714e-10
9.41382e-10
1.34268e-10
9.07199e-10
1.35636e-10
8.72726e-10
1.36809e-10
8.38015e-10
1.37778e-10
8.0312e-10
1.38533e-10
7.68097e-10
1.39065e-10
7.33003e-10
1.39363e-10
6.979e-10
1.39417e-10
6.6285e-10
1.39218e-10
6.27919e-10
1.38754e-10
5.93175e-10
1.38016e-10
5.58687e-10
1.36993e-10
5.24529e-10
1.35674e-10
4.90774e-10
1.3405e-10
4.575e-10
1.3211e-10
4.24786e-10
1.29845e-10
3.92712e-10
1.27245e-10
3.6136e-10
1.24302e-10
3.30815e-10
1.21007e-10
3.01161e-10
1.17354e-10
2.72483e-10
1.13338e-10
2.44868e-10
1.08953e-10
2.18402e-10
1.04198e-10
1.93168e-10
9.9074e-11
1.69249e-10
9.35843e-11
1.46725e-10
8.77371e-11
1.25673e-10
8.15453e-11
1.06162e-10
7.50283e-11
8.82554e-11
6.82135e-11
7.2008e-11
6.11379e-11
5.74619e-11
5.38511e-11
4.46444e-11
4.64189e-11
3.35652e-11
3.89273e-11
2.42154e-11
3.14867e-11
1.65624e-11
2.42359e-11
1.05408e-11
1.7351e-11
6.04797e-12
1.10579e-11
2.94747e-12
5.64343e-12
1.06731e-12
1.45967e-12
1.81496e-13
-1.06306e-12
-1.35531e-12
4.06749e-13
9.30993e-13
1.87713e-12
-4.62483e-13
4.63192e-12
-4.30602e-12
8.85732e-12
-9.98968e-12
1.47029e-11
-1.70428e-11
2.22824e-11
-2.50798e-11
3.16768e-11
-3.37861e-11
4.29385e-11
-4.29073e-11
5.60944e-11
-5.22395e-11
7.11489e-11
-6.16204e-11
8.80858e-11
-7.09212e-11
1.06872e-10
-8.00409e-11
1.27461e-10
-8.89e-11
1.49794e-10
-9.74375e-11
1.73802e-10
-1.05607e-10
1.9941e-10
-1.13374e-10
2.26538e-10
-1.20714e-10
2.55098e-10
-1.2761e-10
2.85002e-10
-1.34051e-10
3.16158e-10
-1.40031e-10
3.48475e-10
-1.45549e-10
3.81859e-10
-1.50606e-10
4.16217e-10
-1.55207e-10
4.51458e-10
-1.59359e-10
4.87489e-10
-1.63069e-10
5.24221e-10
-1.66348e-10
5.61565e-10
-1.69205e-10
5.99437e-10
-1.71652e-10
6.3775e-10
-1.737e-10
6.76424e-10
-1.75364e-10
7.15379e-10
-1.76654e-10
7.54537e-10
-1.77584e-10
7.93825e-10
-1.78167e-10
8.3317e-10
-1.78416e-10
8.72502e-10
-1.78344e-10
9.11754e-10
-1.77963e-10
9.50863e-10
-1.77287e-10
9.89767e-10
-1.76328e-10
1.02841e-09
-1.75098e-10
1.06672e-09
-1.7361e-10
1.10466e-09
-1.71874e-10
1.14218e-09
-1.69903e-10
1.17921e-09
-1.67708e-10
1.21573e-09
-1.65299e-10
1.25167e-09
-1.62688e-10
1.287e-09
-1.59884e-10
1.32168e-09
-1.56897e-10
1.35567e-09
-1.53737e-10
1.38893e-09
-1.50414e-10
1.42142e-09
-1.46936e-10
1.45312e-09
-1.43311e-10
1.484e-09
-1.39549e-10
1.51402e-09
-1.35657e-10
1.54316e-09
-1.31642e-10
1.57139e-09
-1.27512e-10
1.59868e-09
-1.23275e-10
1.62502e-09
-1.18936e-10
1.65039e-09
-1.14503e-10
1.67475e-09
-1.0998e-10
1.6981e-09
-1.05376e-10
1.72041e-09
-1.00694e-10
1.74168e-09
-9.594e-11
1.76188e-09
-9.11197e-11
1.78099e-09
-8.62377e-11
1.79902e-09
-8.12986e-11
1.81594e-09
-7.63068e-11
1.83175e-09
-7.12667e-11
1.84643e-09
-6.61823e-11
1.85997e-09
-6.10574e-11
1.87237e-09
-5.58958e-11
1.88362e-09
-5.07011e-11
1.89372e-09
-4.54766e-11
1.90264e-09
-4.02258e-11
1.9104e-09
-3.49517e-11
1.91699e-09
-2.96575e-11
1.92239e-09
-2.43463e-11
1.92662e-09
-1.90208e-11
1.92966e-09
-1.36842e-11
1.93151e-09
-8.3391e-12
1.93218e-09
-2.98848e-12
1.93166e-09
2.36488e-12
1.92995e-09
7.7182e-12
1.92705e-09
1.30687e-11
1.92297e-09
1.84134e-11
1.91771e-09
2.37495e-11
1.91126e-09
2.90741e-11
1.90364e-09
3.4384e-11