/*--------------------------------*- C++ -*----------------------------------*\
  =========                 |
  \\      /  F ield         | OpenFOAM: The Open Source CFD Toolbox
   \\    /   O peration     | Website:  https://openfoam.org
    \\  /    A nd           | Version:  7
     \\/     M anipulation  |
\*---------------------------------------------------------------------------*/
FoamFile
{
    version     2.0;
    format      ascii;
    class       surfaceScalarField;
    location    "0.0125";
    object      phi;
}
// * * * * * * * * * * * * * * * * * * * * * * * * * * * * * * * * * * * * * //

dimensions      [0 3 -1 0 0 0 0];

internalField   nonuniform List<scalar> 
101920
(
3.73979e-10
-3.74105e-10
2.45683e-09
-2.08284e-09
6.85281e-09
-4.396e-09
1.26506e-08
-5.7978e-09
1.90391e-08
-6.38844e-09
2.55851e-08
-6.546e-09
3.1951e-08
-6.36596e-09
3.79086e-08
-5.95754e-09
4.32421e-08
-5.33357e-09
4.78326e-08
-4.5905e-09
5.15825e-08
-3.74989e-09
5.44238e-08
-2.84131e-09
5.62866e-08
-1.86277e-09
5.7211e-08
-9.24436e-10
5.72116e-08
-5.51219e-13
5.63568e-08
8.54797e-10
5.47312e-08
1.62564e-09
5.24404e-08
2.29077e-09
4.95459e-08
2.89449e-09
4.61567e-08
3.38915e-09
4.23933e-08
3.76345e-09
3.838e-08
4.01334e-09
3.42593e-08
4.12067e-09
3.00958e-08
4.16351e-09
2.59822e-08
4.11352e-09
2.19715e-08
4.01079e-09
1.81484e-08
3.8231e-09
1.45386e-08
3.6098e-09
1.11695e-08
3.36902e-09
8.06116e-09
3.10838e-09
5.22236e-09
2.8388e-09
2.66238e-09
2.55998e-09
3.83209e-10
2.27917e-09
-1.59535e-09
1.97856e-09
-3.32201e-09
1.72666e-09
-4.7678e-09
1.44579e-09
-5.98196e-09
1.21416e-09
-6.93943e-09
9.57475e-10
-7.669e-09
7.29569e-10
-8.17917e-09
5.1018e-10
-8.47992e-09
3.00759e-10
-8.59527e-09
1.1535e-10
-8.52511e-09
-7.01607e-11
-8.2895e-09
-2.35613e-10
-7.88388e-09
-4.0562e-10
-7.33676e-09
-5.47119e-10
-6.67168e-09
-6.65073e-10
-5.92044e-09
-7.51245e-10
-5.11489e-09
-8.05543e-10
-4.28995e-09
-8.24948e-10
-3.47918e-09
-8.10775e-10
-2.71438e-09
-7.64802e-10
-2.0367e-09
-6.7768e-10
-1.46735e-09
-5.69357e-10
-1.00546e-09
-4.61894e-10
-6.64576e-10
-3.40885e-10
-4.57066e-10
-2.07515e-10
-3.74973e-10
-8.21e-11
-4.16258e-10
4.12784e-11
-5.81671e-10
1.65409e-10
-8.39284e-10
2.57612e-10
-1.14157e-09
3.02279e-10
-1.45639e-09
3.1482e-10
-1.75531e-09
2.98913e-10
-2.00839e-09
2.53082e-10
-2.20122e-09
1.9284e-10
-2.33507e-09
1.33848e-10
-2.40821e-09
7.31416e-11
-2.41153e-09
3.33138e-12
-2.3426e-09
-6.89269e-11
-2.20852e-09
-1.3409e-10
-2.01927e-09
-1.89243e-10
-1.78808e-09
-2.31197e-10
-1.5387e-09
-2.49378e-10
-1.29763e-09
-2.4107e-10
-1.07499e-09
-2.22649e-10
-8.71977e-10
-2.03016e-10
-6.93966e-10
-1.78012e-10
-5.44453e-10
-1.49513e-10
-4.17524e-10
-1.26924e-10
-3.0262e-10
-1.14898e-10
-1.92741e-10
-1.09881e-10
-8.145e-11
-1.1129e-10
3.54538e-11
-1.16902e-10
1.56149e-10
-1.20699e-10
2.7169e-10
-1.1554e-10
3.62248e-10
-9.05528e-11
4.10845e-10
-4.85945e-11
4.13674e-10
-2.82632e-12
3.69932e-10
4.37465e-11
2.81171e-10
8.87655e-11
1.56739e-10
1.24429e-10
1.30724e-11
1.43667e-10
-1.29757e-10
1.42836e-10
-2.54243e-10
1.24491e-10
-3.47593e-10
9.33481e-11
-4.01402e-10
5.38076e-11
-4.12101e-10
1.06954e-11
-3.79358e-10
-3.2749e-11
-3.06086e-10
-7.32741e-11
-1.9514e-10
-1.10944e-10
-4.50508e-11
-1.50087e-10
1.42624e-10
-1.87672e-10
3.59272e-10
-2.16647e-10
5.96005e-10
-2.36731e-10
8.43145e-10
-2.4714e-10
1.08979e-09
-2.46641e-10
1.32898e-09
-2.3919e-10
1.55247e-09
-2.23487e-10
1.74993e-09
-1.97456e-10
1.92151e-09
-1.7158e-10
2.07466e-09
-1.53152e-10
2.21325e-09
-1.38597e-10
2.3438e-09
-1.30552e-10
2.47593e-09
-1.32127e-10
2.61299e-09
-1.37059e-10
2.75873e-09
-1.45736e-10
2.92155e-09
-1.62822e-10
3.10393e-09
-1.82383e-10
3.30703e-09
-2.03091e-10
3.54207e-09
-2.35037e-10
3.81795e-09
-2.75884e-10
4.13286e-09
-3.14908e-10
4.48916e-09
-3.56302e-10
4.89563e-09
-4.0647e-10
5.35367e-09
-4.58038e-10
5.85744e-09
-5.03776e-10
6.39891e-09
-5.41475e-10
6.95843e-09
-5.59525e-10
7.50275e-09
-5.44314e-10
8.00542e-09
-5.02673e-10
8.45252e-09
-4.47088e-10
8.8239e-09
-3.71375e-10
9.10054e-09
-2.76638e-10
9.28361e-09
-1.83083e-10
9.37684e-09
-9.32325e-11
9.37605e-09
7.96031e-13
9.28728e-09
8.87637e-11
9.12299e-09
1.64286e-10
8.88603e-09
2.36954e-10
8.57381e-09
3.12223e-10
8.19033e-09
3.8348e-10
7.74339e-09
4.46948e-10
7.23202e-09
5.1137e-10
6.65658e-09
5.75451e-10
6.03425e-09
6.22328e-10
5.39317e-09
6.41074e-10
4.75752e-09
6.35636e-10
4.14228e-09
6.15233e-10
3.56882e-09
5.73461e-10
3.0554e-09
5.13427e-10
2.59483e-09
4.60568e-10
2.17546e-09
4.19376e-10
1.7949e-09
3.80561e-10
1.44369e-09
3.51221e-10
1.10434e-09
3.39344e-10
7.72866e-10
3.31466e-10
4.70862e-10
3.01996e-10
2.03538e-10
2.67324e-10
2.0354e-10
-4.30653e-10
5.65568e-11
8.98695e-10
-3.41219e-09
5.43446e-09
-8.93177e-09
1.22185e-08
-1.25819e-08
2.02368e-08
-1.44067e-08
2.87066e-08
-1.50158e-08
3.71162e-08
-1.47756e-08
4.51003e-08
-1.39416e-08
5.23775e-08
-1.26107e-08
5.87307e-08
-1.09437e-08
6.40058e-08
-9.02503e-09
6.81299e-08
-6.96544e-09
7.10722e-08
-4.80503e-09
7.27855e-08
-2.63771e-09
7.33551e-08
-5.70223e-10
7.28097e-08
1.40022e-09
7.12419e-08
3.19344e-09
6.87386e-08
4.79407e-09
6.54712e-08
6.16192e-09
6.15255e-08
7.3349e-09
5.70718e-08
8.21708e-09
5.22326e-08
8.85252e-09
4.71422e-08
9.2111e-09
4.19388e-08
9.36692e-09
3.6729e-08
9.32337e-09
3.16087e-08
9.13109e-09
2.66426e-08
8.78914e-09
2.19103e-08
8.34211e-09
1.74381e-08
7.84122e-09
1.32727e-08
7.2738e-09
9.42305e-09
6.68843e-09
5.92241e-09
6.06064e-09
2.77446e-09
5.42712e-09
-4.34501e-11
4.79646e-09
-2.48333e-09
4.16654e-09
-4.59709e-09
3.55955e-09
-6.36092e-09
2.97798e-09
-7.81192e-09
2.40848e-09
-8.95334e-09
1.87098e-09
-9.79404e-09
1.35087e-09
-1.03603e-08
8.6701e-10
-1.06604e-08
4.15471e-10
-1.07207e-08
-9.8607e-12
-1.05544e-08
-4.01877e-10
-1.01811e-08
-7.78939e-10
-9.62713e-09
-1.10112e-09
-8.91866e-09
-1.37355e-09
-8.08455e-09
-1.58536e-09
-7.17954e-09
-1.71055e-09
-6.25063e-09
-1.75385e-09
-5.32689e-09
-1.73451e-09
-4.4539e-09
-1.63779e-09
-3.66841e-09
-1.46316e-09
-2.99007e-09
-1.2477e-09
-2.44625e-09
-1.00571e-09
-2.05802e-09
-7.29097e-10
-1.82219e-09
-4.4334e-10
-1.73607e-09
-1.68206e-10
-1.79714e-09
1.02356e-10
-1.98283e-09
3.51109e-10
-2.26232e-09
5.37103e-10
-2.60847e-09
6.48445e-10
-2.98715e-09
6.93502e-10
-3.35622e-09
6.67979e-10
-3.68497e-09
5.81843e-10
-3.95949e-09
4.67354e-10
-4.16668e-09
3.4102e-10
-4.29459e-09
2.01055e-10
-4.34241e-09
5.11517e-11
-4.31488e-09
-9.6468e-11
-4.21532e-09
-2.33649e-10
-4.05188e-09
-3.52687e-10
-3.84257e-09
-4.40514e-10
-3.60792e-09
-4.8403e-10
-3.36587e-09
-4.83109e-10
-3.13133e-09
-4.57185e-10
-2.91556e-09
-4.18785e-10
-2.72715e-09
-3.66435e-10
-2.56667e-09
-3.09999e-10
-2.42833e-09
-2.65266e-10
-2.30495e-09
-2.38288e-10
-2.18886e-09
-2.25966e-10
-2.07459e-09
-2.25554e-10
-1.95813e-09
-2.33358e-10
-1.84331e-09
-2.35516e-10
-1.74233e-09
-2.16519e-10
-1.66611e-09
-1.66774e-10
-1.62708e-09
-8.76373e-11
-1.63683e-09
6.92663e-12
-1.69821e-09
1.05138e-10
-1.80747e-09
1.98021e-10
-1.95246e-09
2.69417e-10
-2.11318e-09
3.04395e-10
-2.27091e-09
3.00556e-10
-2.40966e-09
2.63236e-10
-2.5139e-09
1.97594e-10
-2.57213e-09
1.12044e-10
-2.57928e-09
1.78522e-11
-2.53377e-09
-7.82577e-11
-2.43569e-09
-1.71351e-10
-2.28785e-09
-2.58789e-10
-2.09383e-09
-3.44108e-10
-1.85752e-09
-4.23982e-10
-1.58675e-09
-4.8741e-10
-1.28999e-09
-5.33492e-10
-9.72904e-10
-5.64221e-10
-6.45965e-10
-5.73581e-10
-3.23593e-10
-5.61562e-10
-1.40082e-11
-5.33074e-10
2.77245e-10
-4.88707e-10
5.44671e-10
-4.38996e-10
7.92475e-10
-4.00945e-10
1.02976e-09
-3.75875e-10
1.26056e-09
-3.61356e-10
1.49335e-09
-3.6492e-10
1.7417e-09
-3.85408e-10
2.00977e-09
-4.13801e-10
2.30012e-09
-4.53174e-10
2.62559e-09
-5.07857e-10
2.9943e-09
-5.71802e-10
3.40434e-09
-6.45085e-10
3.86195e-09
-7.3349e-10
4.37787e-09
-8.30824e-10
4.95005e-09
-9.28473e-10
5.57498e-09
-1.0314e-09
6.25856e-09
-1.14162e-09
6.9956e-09
-1.24081e-09
7.76303e-09
-1.3089e-09
8.54141e-09
-1.3379e-09
9.31126e-09
-1.31417e-09
1.00345e-08
-1.22593e-09
1.06747e-08
-1.08728e-09
1.12185e-08
-9.15207e-10
1.16548e-08
-7.12926e-10
1.19647e-08
-4.92972e-10
1.21442e-08
-2.72718e-10
1.22044e-08
-5.94395e-11
1.21483e-08
1.44868e-10
1.19712e-08
3.41396e-10
1.16814e-08
5.26711e-10
1.12958e-08
6.97878e-10
1.08163e-08
8.62957e-10
1.02383e-08
1.0249e-09
9.57392e-09
1.17577e-09
8.84296e-09
1.30642e-09
8.05475e-09
1.41055e-09
7.22065e-09
1.47519e-09
6.373e-09
1.48329e-09
5.5449e-09
1.44333e-09
4.74632e-09
1.37203e-09
3.98264e-09
1.27711e-09
3.26635e-09
1.17685e-09
2.60144e-09
1.08427e-09
1.98013e-09
1.00187e-09
1.40091e-09
9.30444e-10
8.81814e-10
8.5846e-10
4.57767e-10
7.55523e-10
1.66775e-10
5.92987e-10
4.20908e-11
3.92007e-10
2.45629e-10
-2.73872e-09
2.79527e-09
-4.8551e-09
-1.29579e-09
-3.8712e-09
-9.91568e-09
-5.66847e-10
-1.58862e-08
4.09639e-09
-1.90699e-08
9.43447e-09
-2.03539e-08
1.49839e-08
-2.0325e-08
2.03878e-08
-1.93455e-08
2.54386e-08
-1.76615e-08
2.99809e-08
-1.54859e-08
3.39058e-08
-1.295e-08
3.71351e-08
-1.01948e-08
3.96581e-08
-7.32794e-09
4.14703e-08
-4.45e-09
4.25584e-08
-1.65825e-09
4.29531e-08
1.00555e-09
4.27242e-08
3.42227e-09
4.18964e-08
5.62188e-09
4.05357e-08
7.52262e-09
3.87382e-08
9.13239e-09
3.65663e-08
1.0389e-08
3.41044e-08
1.13144e-08
3.13951e-08
1.19204e-08
2.85482e-08
1.22138e-08
2.55865e-08
1.2285e-08
2.26188e-08
1.20988e-08
1.96624e-08
1.17456e-08
1.67544e-08
1.125e-08
1.39645e-08
1.06312e-08
1.12944e-08
9.94387e-09
8.80092e-09
9.18192e-09
6.45957e-09
8.40198e-09
4.32031e-09
7.56638e-09
2.37029e-09
6.74649e-09
6.30199e-10
5.90664e-09
-9.21998e-10
5.11176e-09
-2.24257e-09
4.29856e-09
-3.38739e-09
3.5533e-09
-4.31381e-09
2.7974e-09
-5.06569e-09
2.10276e-09
-5.64371e-09
1.44502e-09
-6.02972e-09
8.01485e-10
-6.27898e-09
2.394e-10
-6.36265e-09
-3.18207e-10
-6.33271e-09
-8.08875e-10
-6.19108e-09
-1.24275e-09
-5.95308e-09
-1.61156e-09
-5.65494e-09
-1.8835e-09
-5.30231e-09
-2.06319e-09
-4.91531e-09
-2.14086e-09
-4.53351e-09
-2.11631e-09
-4.17112e-09
-2.00018e-09
-3.83309e-09
-1.8012e-09
-3.54221e-09
-1.53859e-09
-3.31467e-09
-1.23325e-09
-3.15005e-09
-8.93725e-10
-3.05565e-09
-5.37745e-10
-3.0391e-09
-1.84759e-10
-3.09142e-09
1.54672e-10
-3.19641e-09
4.56085e-10
-3.34642e-09
6.87117e-10
-3.53278e-09
8.34799e-10
-3.73791e-09
8.98637e-10
-3.94964e-09
8.79717e-10
-4.16007e-09
7.92279e-10
-4.35711e-09
6.64393e-10
-4.52798e-09
5.11901e-10
-4.6654e-09
3.38472e-10
-4.7688e-09
1.54553e-10
-4.83831e-09
-2.69551e-11
-4.874e-09
-1.97964e-10
-4.88009e-09
-3.46597e-10
-4.86505e-09
-4.5556e-10
-4.83306e-09
-5.16026e-10
-4.78539e-09
-5.30786e-10
-4.73039e-09
-5.12179e-10
-4.67568e-09
-4.73497e-10
-4.62387e-09
-4.18239e-10
-4.57497e-09
-3.58893e-10
-4.52953e-09
-3.10704e-10
-4.49179e-09
-2.76036e-10
-4.45982e-09
-2.57934e-10
-4.4314e-09
-2.53977e-10
-4.40958e-09
-2.55176e-10
-4.39571e-09
-2.49379e-10
-4.3938e-09
-2.1842e-10
-4.40427e-09
-1.56304e-10
-4.42387e-09
-6.8034e-11
-4.45692e-09
3.99803e-11
-4.50431e-09
1.52525e-10
-4.56112e-09
2.54826e-10
-4.62473e-09
3.3304e-10
-4.68995e-09
3.69622e-10
-4.75094e-09
3.61543e-10
-4.80323e-09
3.15521e-10
-4.83938e-09
2.33741e-10
-4.85356e-09
1.26218e-10
-4.84297e-09
7.25777e-12
-4.80413e-09
-1.17089e-10
-4.73473e-09
-2.40746e-10
-4.63474e-09
-3.58781e-10
-4.50702e-09
-4.71832e-10
-4.35613e-09
-5.74869e-10
-4.18425e-09
-6.59293e-10
-3.9942e-09
-7.23535e-10
-3.79102e-09
-7.674e-10
-3.57689e-09
-7.87707e-10
-3.35516e-09
-7.83283e-10
-3.13187e-09
-7.56367e-10
-2.90696e-09
-7.13624e-10
-2.6794e-09
-6.66559e-10
-2.45376e-09
-6.2659e-10
-2.2278e-09
-6.01831e-10
-1.99314e-09
-5.96009e-10
-1.7499e-09
-6.08163e-10
-1.49727e-09
-6.38046e-10
-1.22403e-09
-6.87037e-10
-9.25447e-10
-7.51755e-10
-6.0405e-10
-8.29246e-10
-2.51433e-10
-9.24417e-10
1.40783e-10
-1.0373e-09
5.65433e-10
-1.15814e-09
1.01921e-09
-1.2846e-09
1.51059e-09
-1.41985e-09
2.03551e-09
-1.55631e-09
2.57844e-09
-1.68455e-09
3.13594e-09
-1.79832e-09
3.70595e-09
-1.87891e-09
4.26928e-09
-1.90122e-09
4.80918e-09
-1.85407e-09
5.32365e-09
-1.74038e-09
5.80162e-09
-1.56526e-09
6.2192e-09
-1.33278e-09
6.56652e-09
-1.06026e-09
6.84668e-09
-7.73127e-10
7.05147e-09
-4.77513e-10
7.16701e-09
-1.74985e-10
7.19516e-09
1.1671e-10
7.14693e-09
3.89631e-10
7.02042e-09
6.53218e-10
6.80953e-09
9.08777e-10
6.52646e-09
1.14604e-09
6.18661e-09
1.36475e-09
5.78995e-09
1.57243e-09
5.33755e-09
1.75881e-09
4.84509e-09
1.90299e-09
4.32709e-09
1.99318e-09
3.78236e-09
2.02802e-09
3.21256e-09
2.01315e-09
2.63265e-09
1.95193e-09
2.05512e-09
1.85464e-09
1.48415e-09
1.74782e-09
9.24385e-10
1.64404e-09
3.96718e-10
1.52953e-09
-6.64361e-11
1.39359e-09
-4.32811e-10
1.22483e-09
-6.51145e-10
9.73859e-10
-6.34394e-10
5.76244e-10
-3.17787e-10
7.5408e-11
-7.21633e-11
-4.26888e-09
7.06414e-09
-8.94296e-09
3.37829e-09
-1.06892e-08
-8.16947e-09
-1.01421e-08
-1.64332e-08
-8.17552e-09
-2.10365e-08
-5.42002e-09
-2.31094e-08
-2.28016e-09
-2.34648e-08
9.47018e-10
-2.25727e-08
4.10616e-09
-2.08207e-08
7.04333e-09
-1.84231e-08
9.72736e-09
-1.5634e-08
1.21016e-08
-1.2569e-08
1.41301e-08
-9.35648e-09
1.58272e-08
-6.14704e-09
1.71633e-08
-2.99436e-09
1.81803e-08
-1.14647e-11
1.88216e-08
2.78096e-09
1.91854e-08
5.25811e-09
1.92515e-08
7.45653e-09
1.90653e-08
9.31854e-09
1.86185e-08
1.08358e-08
1.79726e-08
1.19604e-08
1.71354e-08
1.27576e-08
1.61333e-08
1.32159e-08
1.50181e-08
1.34003e-08
1.3778e-08
1.33389e-08
1.24809e-08
1.30427e-08
1.1146e-08
1.2585e-08
9.78718e-09
1.199e-08
8.43427e-09
1.12968e-08
7.09901e-09
1.05172e-08
5.82877e-09
9.67221e-09
4.59635e-09
8.79881e-09
3.44684e-09
7.896e-09
2.36178e-09
6.99169e-09
1.38617e-09
6.08736e-09
4.82127e-10
5.2026e-09
-3.11894e-10
4.34732e-09
-1.02231e-09
3.50782e-09
-1.63447e-09
2.71492e-09
-2.14302e-09
1.95357e-09
-2.58335e-09
1.24181e-09
-2.92628e-09
5.82324e-10
-3.20378e-09
-4.07003e-11
-3.41974e-09
-5.9292e-10
-3.57378e-09
-1.0887e-09
-3.69075e-09
-1.49458e-09
-3.77092e-09
-1.80333e-09
-3.82333e-09
-2.01078e-09
-3.85768e-09
-2.10651e-09
-3.87411e-09
-2.09988e-09
-3.87924e-09
-1.99506e-09
-3.88149e-09
-1.79895e-09
-3.88646e-09
-1.5336e-09
-3.90255e-09
-1.21716e-09
-3.9286e-09
-8.67687e-10
-3.96199e-09
-5.04342e-10
-4.00369e-09
-1.43066e-10
-4.05107e-09
2.02052e-10
-4.1038e-09
5.08824e-10
-4.1693e-09
7.52613e-10
-4.25338e-09
9.18881e-10
-4.35314e-09
9.984e-10
-4.4657e-09
9.92274e-10
-4.5906e-09
9.17179e-10
-4.7213e-09
7.95086e-10
-4.85057e-09
6.41173e-10
-4.97801e-09
4.6592e-10
-5.10602e-09
2.82557e-10
-5.23297e-09
9.99926e-11
-5.35597e-09
-7.49557e-11
-5.47389e-09
-2.28682e-10
-5.58461e-09
-3.44836e-10
-5.6838e-09
-4.16832e-10
-5.76711e-09
-4.47489e-10
-5.83733e-09
-4.41958e-10
-5.89922e-09
-4.11606e-10
-5.95071e-09
-3.66754e-10
-5.99293e-09
-3.16675e-10
-6.02864e-09
-2.74993e-10
-6.06128e-09
-2.43397e-10
-6.09743e-09
-2.21782e-10
-6.13825e-09
-2.13158e-10
-6.18621e-09
-2.07209e-10
-6.24342e-09
-1.92176e-10
-6.30406e-09
-1.57788e-10
-6.36408e-09
-9.62832e-11
-6.41878e-09
-1.33249e-11
-6.46368e-09
8.4887e-11
-6.50021e-09
1.89048e-10
-6.52509e-09
2.79703e-10
-6.53571e-09
3.43663e-10
-6.53842e-09
3.72339e-10
-6.53583e-09
3.5896e-10
-6.52731e-09
3.07001e-10
-6.51503e-09
2.2146e-10
-6.49641e-09
1.07601e-10
-6.46738e-09
-2.17776e-11
-6.42835e-09
-1.56114e-10
-6.37755e-09
-2.91553e-10
-6.31197e-09
-4.24354e-10
-6.23348e-09
-5.50326e-10
-6.14397e-09
-6.64372e-10
-6.04241e-09
-7.60853e-10
-5.92898e-09
-8.36977e-10
-5.80547e-09
-8.90904e-10
-5.67226e-09
-9.20908e-10
-5.5278e-09
-9.2774e-10
-5.37076e-09
-9.13403e-10
-5.20026e-09
-8.84118e-10
-5.01433e-09
-8.52495e-10
-4.81368e-09
-8.27241e-10
-4.60408e-09
-8.11432e-10
-4.38659e-09
-8.13494e-10
-4.15452e-09
-8.40234e-10
-3.90647e-09
-8.86104e-10
-3.64592e-09
-9.47583e-10
-3.36802e-09
-1.02966e-09
-3.06746e-09
-1.1298e-09
-2.74984e-09
-1.24204e-09
-2.41672e-09
-1.37042e-09
-2.06053e-09
-1.51433e-09
-1.68409e-09
-1.66104e-09
-1.29853e-09
-1.80541e-09
-9.04901e-10
-1.94994e-09
-5.04533e-10
-2.08492e-09
-1.1249e-10
-2.19037e-09
2.61118e-10
-2.25252e-09
6.2368e-10
-2.26379e-09
9.78295e-10
-2.20868e-09
1.31235e-09
-2.07443e-09
1.62101e-09
-1.87392e-09
1.91226e-09
-1.62404e-09
2.17899e-09
-1.32699e-09
2.40277e-09
-9.96904e-10
2.58333e-09
-6.58072e-10
2.72755e-09
-3.19206e-10
2.82436e-09
1.9894e-11
2.86114e-09
3.52847e-10
2.84601e-09
6.68343e-10
2.79004e-09
9.64744e-10
2.68811e-09
1.24797e-09
2.53668e-09
1.51618e-09
2.349e-09
1.76012e-09
2.13819e-09
1.96963e-09
1.89956e-09
2.14162e-09
1.62359e-09
2.26915e-09
1.31583e-09
2.33577e-09
9.83929e-10
2.34505e-09
6.20113e-10
2.31575e-09
2.21178e-10
2.25357e-09
-1.92695e-10
2.1617e-09
-5.96143e-10
2.0475e-09
-9.71631e-10
1.90502e-09
-1.29164e-09
1.71359e-09
-1.49533e-09
1.42851e-09
-1.50796e-09
9.86485e-10
-1.2226e-09
2.90884e-10
-5.67539e-10
-5.7964e-10
-6.39706e-10
-5.01847e-09
1.20826e-08
-1.11673e-08
9.52708e-09
-1.45234e-08
-4.81331e-09
-1.56539e-08
-1.53028e-08
-1.53851e-08
-2.13053e-08
-1.42662e-08
-2.42284e-08
-1.26901e-08
-2.50409e-08
-1.08868e-08
-2.4376e-08
-8.98806e-09
-2.27194e-08
-7.09711e-09
-2.03141e-08
-5.2703e-09
-1.74608e-08
-3.54107e-09
-1.42982e-08
-1.89139e-09
-1.10061e-08
-3.72542e-10
-7.66591e-09
1.02603e-09
-4.39292e-09
2.28914e-09
-1.27456e-09
3.43931e-09
1.63078e-09
4.42548e-09
4.27196e-09
5.26766e-09
6.61435e-09
5.99215e-09
8.59404e-09
6.57628e-09
1.02517e-08
6.99438e-09
1.15423e-08
7.27675e-09
1.24752e-08
7.40079e-09
1.30919e-08
7.39735e-09
1.34037e-08
7.28624e-09
1.345e-08
7.03797e-09
1.32909e-08
6.70029e-09
1.29227e-08
6.26983e-09
1.24205e-08
5.7948e-09
1.17718e-08
5.26177e-09
1.10502e-08
4.6916e-09
1.02424e-08
4.0927e-09
9.39771e-09
3.4988e-09
8.48989e-09
2.89016e-09
7.60034e-09
2.30765e-09
6.66987e-09
1.72797e-09
5.78228e-09
1.18722e-09
4.88807e-09
6.6659e-10
4.02845e-09
1.73302e-10
3.2082e-09
-2.77623e-10
2.40451e-09
-7.07978e-10
1.67217e-09
-1.09414e-09
9.68488e-10
-1.46754e-09
3.32706e-10
-1.81706e-09
-2.43408e-10
-2.15104e-09
-7.54724e-10
-2.47045e-09
-1.17516e-09
-2.77191e-09
-1.50187e-09
-3.05872e-09
-1.72397e-09
-3.32757e-09
-1.83766e-09
-3.5777e-09
-1.84976e-09
-3.80525e-09
-1.76752e-09
-4.00391e-09
-1.60028e-09
-4.17712e-09
-1.3604e-09
-4.33064e-09
-1.06364e-09
-4.46417e-09
-7.34152e-10
-4.57898e-09
-3.89536e-10
-4.67558e-09
-4.64656e-11
-4.74787e-09
2.7434e-10
-4.79545e-09
5.56406e-10
-4.82919e-09
7.8636e-10
-4.86042e-09
9.5011e-10
-4.89964e-09
1.03763e-09
-4.95671e-09
1.04935e-09
-5.03579e-09
9.96253e-10
-5.13257e-09
8.91872e-10
-5.24224e-09
7.5084e-10
-5.36378e-09
5.87457e-10
-5.49718e-09
4.15961e-10
-5.64244e-09
2.45256e-10
-5.79874e-09
8.1334e-11
-5.9646e-09
-6.28177e-11
-6.1347e-09
-1.74728e-10
-6.30008e-09
-2.51453e-10
-6.45292e-09
-2.94652e-10
-6.59072e-09
-3.04148e-10
-6.71616e-09
-2.8617e-10
-6.8272e-09
-2.55714e-10
-6.92387e-09
-2.20014e-10
-7.01236e-09
-1.86502e-10
-7.0947e-09
-1.61055e-10
-7.17498e-09
-1.41498e-10
-7.25737e-09
-1.30765e-10
-7.34268e-09
-1.21905e-10
-7.4336e-09
-1.01249e-10
-7.52422e-09
-6.7175e-11
-7.60448e-09
-1.60263e-11
-7.67159e-09
5.37916e-11
-7.72056e-09
1.33855e-10
-7.74793e-09
2.16425e-10
-7.75611e-09
2.87887e-10
-7.74502e-09
3.32565e-10
-7.71882e-09
3.46137e-10
-7.68605e-09
3.2619e-10
-7.6486e-09
2.69558e-10
-7.60815e-09
1.81015e-10
-7.56899e-09
6.84362e-11
-7.52979e-09
-6.09667e-11
-7.48768e-09
-1.98229e-10
-7.44235e-09
-3.36887e-10
-7.39273e-09
-4.73975e-10
-7.3385e-09
-6.04546e-10
-7.28044e-09
-7.22438e-10
-7.21709e-09
-8.242e-10
-7.14563e-09
-9.08437e-10
-7.0638e-09
-9.72739e-10
-6.97127e-09
-1.01343e-09
-6.86775e-09
-1.03127e-09
-6.74806e-09
-1.0331e-09
-6.60755e-09
-1.02462e-09
-6.44922e-09
-1.01083e-09
-6.27471e-09
-1.00175e-09
-6.0813e-09
-1.00485e-09
-5.87351e-09
-1.02128e-09
-5.65765e-09
-1.05609e-09
-5.4287e-09
-1.11505e-09
-5.18326e-09
-1.19303e-09
-4.92828e-09
-1.28464e-09
-4.66381e-09
-1.39427e-09
-4.38338e-09
-1.52248e-09
-4.09324e-09
-1.66055e-09
-3.8035e-09
-1.80407e-09
-3.50981e-09
-1.95472e-09
-3.20883e-09
-2.10639e-09
-2.91387e-09
-2.2449e-09
-2.63526e-09
-2.36353e-09
-2.36781e-09
-2.45781e-09
-2.11271e-09
-2.50761e-09
-1.88096e-09
-2.49554e-09
-1.66613e-09
-2.42352e-09
-1.45182e-09
-2.28874e-09
-1.24198e-09
-2.08375e-09
-1.04726e-09
-1.81877e-09
-8.61699e-10
-1.51255e-09
-6.79621e-10
-1.17898e-09
-5.12695e-10
-8.24999e-10
-3.73729e-10
-4.58174e-10
-2.59218e-10
-9.4616e-11
-1.64085e-10
2.57717e-10
-9.79743e-11
6.02235e-10
-6.83444e-11
9.35111e-10
-6.58556e-11
1.24547e-09
-8.09718e-11
1.53129e-09
-1.19918e-10
1.79907e-09
-1.88897e-10
2.03862e-09
-2.78825e-10
2.23155e-09
-3.8698e-10
2.3773e-09
-5.28819e-10
2.47761e-09
-7.13977e-10
2.5302e-09
-9.35069e-10
2.53684e-09
-1.18225e-09
2.50074e-09
-1.45009e-09
2.42953e-09
-1.72629e-09
2.3237e-09
-1.9799e-09
2.15864e-09
-2.16371e-09
1.8974e-09
-2.22238e-09
1.48719e-09
-2.07914e-09
8.4324e-10
-1.60694e-09
-1.81325e-10
-7.20176e-10
-1.4664e-09
-1.35988e-09
-5.32782e-09
1.74104e-08
-1.21171e-08
1.63163e-08
-1.63122e-08
-6.18186e-10
-1.83936e-08
-1.32214e-08
-1.91462e-08
-2.05527e-08
-1.90621e-08
-2.43125e-08
-1.8486e-08
-2.56169e-08
-1.75812e-08
-2.52808e-08
-1.65412e-08
-2.37595e-08
-1.53668e-08
-2.14885e-08
-1.41345e-08
-1.86932e-08
-1.28528e-08
-1.55799e-08
-1.15527e-08
-1.23062e-08
-1.02255e-08
-8.9931e-09
-8.87607e-09
-5.74239e-09
-7.55118e-09
-2.59945e-09
-6.23743e-09
3.17033e-10
-4.93645e-09
2.97098e-09
-3.67123e-09
5.34914e-09
-2.49038e-09
7.41318e-09
-1.37778e-09
9.13903e-09
-3.55392e-10
1.05199e-08
5.53455e-10
1.15664e-08
1.34805e-09
1.22973e-08
2.0086e-09
1.27432e-08
2.5282e-09
1.29304e-08
2.9401e-09
1.2879e-08
3.22508e-09
1.26377e-08
3.40736e-09
1.22382e-08
3.47081e-09
1.17084e-08
3.45748e-09
1.10635e-08
3.35729e-09
1.03426e-08
3.20998e-09
9.54502e-09
2.97156e-09
8.72831e-09
2.7161e-09
7.8558e-09
2.39775e-09
6.98821e-09
2.06563e-09
6.11441e-09
1.71322e-09
5.24047e-09
1.32811e-09
4.41356e-09
9.51639e-10
3.58468e-09
5.50373e-10
2.80577e-09
1.51525e-10
2.07102e-09
-2.48199e-10
1.36822e-09
-6.57204e-10
7.41713e-10
-1.06516e-09
1.64543e-10
-1.48309e-09
-3.36787e-10
-1.90408e-09
-7.5417e-10
-2.32203e-09
-1.08394e-09
-2.73112e-09
-1.31487e-09
-3.12403e-09
-1.44474e-09
-3.4977e-09
-1.47608e-09
-3.84552e-09
-1.4197e-09
-4.16005e-09
-1.28575e-09
-4.43731e-09
-1.08314e-09
-4.67189e-09
-8.29065e-10
-4.86457e-09
-5.4147e-10
-5.02205e-09
-2.32062e-10
-5.14632e-09
7.78062e-11
-5.23678e-09
3.6479e-10
-5.2979e-09
6.1753e-10
-5.33745e-09
8.25904e-10
-5.36125e-09
9.73911e-10
-5.38014e-09
1.05652e-09
-5.41018e-09
1.07938e-09
-5.46048e-09
1.04656e-09
-5.53139e-09
9.62783e-10
-5.6237e-09
8.43145e-10
-5.73941e-09
7.03164e-10
-5.87427e-09
5.50835e-10
-6.02388e-09
3.94856e-10
-6.18891e-09
2.46365e-10
-6.36879e-09
1.17066e-10
-6.5563e-09
1.27779e-11
-6.74319e-09
-6.45645e-11
-6.92485e-09
-1.12991e-10
-7.09587e-09
-1.3312e-10
-7.25264e-09
-1.29398e-10
-7.39401e-09
-1.14352e-10
-7.52019e-09
-9.38319e-11
-7.63788e-09
-6.88107e-11
-7.74948e-09
-4.94553e-11
-7.85419e-09
-3.67904e-11
-7.95819e-09
-2.67584e-11
-8.06272e-09
-1.7378e-11
-8.16512e-09
1.14555e-12
-8.26354e-09
3.12463e-11
-8.34937e-09
6.98039e-11
-8.41714e-09
1.21554e-10
-8.46564e-09
1.82352e-10
-8.48881e-09
2.39601e-10
-8.48671e-09
2.85798e-10
-8.46599e-09
3.11841e-10
-8.42999e-09
3.1013e-10
-8.38386e-09
2.80066e-10
-8.33355e-09
2.19248e-10
-8.28122e-09
1.2868e-10
-8.2307e-09
1.79161e-11
-8.185e-09
-1.06666e-10
-8.14162e-09
-2.41604e-10
-8.09814e-09
-3.80366e-10
-8.05478e-09
-5.17341e-10
-8.01204e-09
-6.4729e-10
-7.96896e-09
-7.65522e-10
-7.92229e-09
-8.7087e-10
-7.8701e-09
-9.60625e-10
-7.81177e-09
-1.03107e-09
-7.74243e-09
-1.08277e-09
-7.65747e-09
-1.11623e-09
-7.55749e-09
-1.13308e-09
-7.4399e-09
-1.1422e-09
-7.30004e-09
-1.15069e-09
-7.14209e-09
-1.1597e-09
-6.97074e-09
-1.17619e-09
-6.78189e-09
-1.21014e-09
-6.57703e-09
-1.26096e-09
-6.36642e-09
-1.32565e-09
-6.15033e-09
-1.40912e-09
-5.92203e-09
-1.51294e-09
-5.68644e-09
-1.62986e-09
-5.45143e-09
-1.75749e-09
-5.21337e-09
-1.8986e-09
-4.97205e-09
-2.04539e-09
-4.73996e-09
-2.18682e-09
-4.52138e-09
-2.32497e-09
-4.30905e-09
-2.45723e-09
-4.10861e-09
-2.56397e-09
-3.93314e-09
-2.63328e-09
-3.77728e-09
-2.66347e-09
-3.62911e-09
-2.6437e-09
-3.49089e-09
-2.56174e-09
-3.36459e-09
-2.41504e-09
-3.2385e-09
-2.20984e-09
-3.10275e-09
-1.95452e-09
-2.96338e-09
-1.65192e-09
-2.82842e-09
-1.31395e-09
-2.69265e-09
-9.6078e-10
-2.55346e-09
-5.97358e-10
-2.42356e-09
-2.24515e-10
-2.31117e-09
1.45332e-10
-2.20872e-09
4.99786e-10
-2.11269e-09
8.39089e-10
-2.03397e-09
1.16675e-09
-1.97658e-09
1.47391e-09
-1.93061e-09
1.75309e-09
-1.89393e-09
2.00194e-09
-1.87715e-09
2.21478e-09
-1.88908e-09
2.38924e-09
-1.93081e-09
2.51934e-09
-2.0012e-09
2.60059e-09
-2.10516e-09
2.6408e-09
-2.24616e-09
2.64175e-09
-2.40932e-09
2.59268e-09
-2.56913e-09
2.4835e-09
-2.7057e-09
2.29521e-09
-2.78191e-09
1.97361e-09
-2.73369e-09
1.43898e-09
-2.46754e-09
5.77095e-10
-1.85901e-09
-7.89866e-10
-8.19089e-10
-2.50632e-09
-2.17897e-09
-5.26263e-09
2.26731e-08
-1.2153e-08
2.32067e-08
-1.6679e-08
3.90781e-09
-1.92509e-08
-1.06495e-08
-2.05669e-08
-1.92367e-08
-2.10942e-08
-2.37852e-08
-2.11355e-08
-2.55756e-08
-2.08729e-08
-2.55434e-08
-2.03573e-08
-2.42751e-08
-1.96933e-08
-2.21525e-08
-1.88991e-08
-1.94873e-08
-1.79844e-08
-1.64946e-08
-1.69649e-08
-1.33258e-08
-1.58444e-08
-1.01136e-08
-1.46453e-08
-6.94147e-09
-1.33354e-08
-3.90936e-09
-1.19874e-08
-1.03095e-09
-1.06268e-08
1.61032e-09
-9.2342e-09
3.95655e-09
-7.83722e-09
6.01621e-09
-6.46633e-09
7.76815e-09
-5.16173e-09
9.21531e-09
-3.93145e-09
1.03361e-08
-2.80576e-09
1.11716e-08
-1.77902e-09
1.17164e-08
-8.75636e-10
1.2027e-08
-8.91943e-11
1.20926e-08
5.56531e-10
1.1992e-08
1.09433e-09
1.17004e-08
1.51137e-09
1.12913e-08
1.82528e-09
1.07496e-08
2.03393e-09
1.01339e-08
2.14581e-09
9.43314e-09
2.18691e-09
8.68722e-09
2.14443e-09
7.89827e-09
2.03068e-09
7.10197e-09
1.87182e-09
6.27328e-09
1.64286e-09
5.46943e-09
1.39125e-09
4.66517e-09
1.09277e-09
3.88316e-09
7.51126e-10
3.14742e-09
3.98095e-10
2.42405e-09
1.50181e-12
1.76481e-09
-4.07387e-10
1.1506e-09
-8.36603e-10
5.93764e-10
-1.28786e-09
1.14473e-10
-1.747e-09
-2.95035e-10
-2.2129e-09
-6.18028e-10
-2.67732e-09
-8.50456e-10
-3.12663e-09
-9.95446e-10
-3.55352e-09
-1.04918e-09
-3.95359e-09
-1.01963e-09
-4.32112e-09
-9.18226e-10
-4.64928e-09
-7.54979e-10
-4.93242e-09
-5.45929e-10
-5.16856e-09
-3.05327e-10
-5.35615e-09
-4.44718e-11
-5.49706e-09
2.18711e-10
-5.59925e-09
4.66985e-10
-5.6711e-09
6.89376e-10
-5.7177e-09
8.725e-10
-5.74739e-09
1.00361e-09
-5.77196e-09
1.08108e-09
-5.80055e-09
1.10798e-09
-5.83935e-09
1.08537e-09
-5.89575e-09
1.01917e-09
-5.97554e-09
9.22931e-10
-6.07925e-09
8.06889e-10
-6.2044e-09
6.7598e-10
-6.34973e-09
5.40184e-10
-6.51355e-09
4.10199e-10
-6.69096e-09
2.94475e-10
-6.87578e-09
1.9759e-10
-7.06274e-09
1.22401e-10
-7.24856e-09
7.28292e-11
-7.4276e-09
4.59225e-11
-7.59323e-09
3.62361e-11
-7.74602e-09
3.84377e-11
-7.88664e-09
4.67869e-11
-8.01605e-09
6.06067e-11
-8.13847e-09
7.29652e-11
-8.25402e-09
7.87551e-11
-8.36568e-09
8.49011e-11
-8.47634e-09
9.3284e-11
-8.57981e-09
1.04611e-10
-8.67311e-09
1.24546e-10
-8.75526e-09
1.51959e-10
-8.8195e-09
1.85791e-10
-8.86237e-09
2.25223e-10
-8.88209e-09
2.59319e-10
-8.87685e-09
2.80559e-10
-8.85217e-09
2.8716e-10
-8.81414e-09
2.72108e-10
-8.76509e-09
2.31021e-10
-8.70995e-09
1.64104e-10
-8.65419e-09
7.29161e-11
-8.60071e-09
-3.55596e-11
-8.55122e-09
-1.56152e-10
-8.50542e-09
-2.87407e-10
-8.46292e-09
-4.22861e-10
-8.42398e-09
-5.5628e-10
-8.38649e-09
-6.84783e-10
-8.34882e-09
-8.03196e-10
-8.31049e-09
-9.09204e-10
-8.26761e-09
-1.0035e-09
-8.21738e-09
-1.0813e-09
-8.16019e-09
-1.13996e-09
-8.09058e-09
-1.18585e-09
-8.00123e-09
-1.22242e-09
-7.89481e-09
-1.24863e-09
-7.77442e-09
-1.27109e-09
-7.63504e-09
-1.29907e-09
-7.47714e-09
-1.3341e-09
-7.30877e-09
-1.37851e-09
-7.13021e-09
-1.43953e-09
-6.93902e-09
-1.51685e-09
-6.74331e-09
-1.60482e-09
-6.54906e-09
-1.70719e-09
-6.35062e-09
-1.82829e-09
-6.14912e-09
-1.95899e-09
-5.95617e-09
-2.09156e-09
-5.77266e-09
-2.2289e-09
-5.59283e-09
-2.36665e-09
-5.42482e-09
-2.49297e-09
-5.27914e-09
-2.60291e-09
-5.15141e-09
-2.6917e-09
-5.03603e-09
-2.74866e-09
-4.93725e-09
-2.76226e-09
-4.85617e-09
-2.72478e-09
-4.78159e-09
-2.63631e-09
-4.70305e-09
-2.49359e-09
-4.6228e-09
-2.29009e-09
-4.54086e-09
-2.03646e-09
-4.44522e-09
-1.74756e-09
-4.33289e-09
-1.42629e-09
-4.21511e-09
-1.07856e-09
-4.09586e-09
-7.16608e-10
-3.96907e-09
-3.51313e-10
-3.83585e-09
1.2115e-11
-3.70651e-09
3.7044e-10
-3.5848e-09
7.17382e-10
-3.46598e-09
1.04794e-09
-3.34948e-09
1.3574e-09
-3.2418e-09
1.64541e-09
-3.14925e-09
1.90939e-09
-3.07073e-09
2.13626e-09
-3.00621e-09
2.32472e-09
-2.96766e-09
2.4808e-09
-2.96436e-09
2.59728e-09
-2.99131e-09
2.66775e-09
-3.04096e-09
2.6914e-09
-3.1091e-09
2.66082e-09
-3.18143e-09
2.55583e-09
-3.22971e-09
2.34349e-09
-3.21293e-09
1.95682e-09
-3.07177e-09
1.29782e-09
-2.71723e-09
2.2256e-10
-2.01508e-09
-1.49202e-09
-8.7823e-10
-3.64317e-09
-3.0572e-09
-4.94713e-09
2.76202e-08
-1.15247e-08
2.97842e-08
-1.6e-08
8.38312e-09
-1.87385e-08
-7.91096e-09
-2.03612e-08
-1.7614e-08
-2.12864e-08
-2.286e-08
-2.1709e-08
-2.5153e-08
-2.18342e-08
-2.54183e-08
-2.17308e-08
-2.43785e-08
-2.14373e-08
-2.2446e-08
-2.09593e-08
-1.99653e-08
-2.03367e-08
-1.71172e-08
-1.95516e-08
-1.41109e-08
-1.86388e-08
-1.10263e-08
-1.75867e-08
-7.99356e-09
-1.6454e-08
-5.04202e-09
-1.51809e-08
-2.30411e-09
-1.38228e-08
2.52245e-10
-1.24223e-08
2.55599e-09
-1.10099e-08
4.60385e-09
-9.59147e-09
6.34971e-09
-8.18427e-09
7.8081e-09
-6.83679e-09
8.98859e-09
-5.54779e-09
9.88259e-09
-4.36594e-09
1.05346e-08
-3.27548e-09
1.09365e-08
-2.31448e-09
1.11316e-08
-1.44875e-09
1.11262e-08
-7.18562e-10
1.09702e-08
-9.00166e-11
1.06628e-08
4.01515e-10
1.02581e-08
8.04238e-10
9.7312e-09
1.09257e-09
9.14481e-09
1.29299e-09
8.48679e-09
1.39902e-09
7.79225e-09
1.43021e-09
7.07077e-09
1.37903e-09
6.32446e-09
1.26381e-09
5.58465e-09
1.09405e-09
4.83493e-09
8.59178e-10
4.11803e-09
5.87996e-10
3.4186e-09
2.66166e-10
2.74588e-09
-9.69374e-11
2.12791e-09
-4.86434e-10
1.5401e-09
-9.13132e-10
1.02046e-09
-1.36045e-09
5.61793e-10
-1.82401e-09
1.68531e-10
-2.29963e-09
-1.42415e-10
-2.77553e-09
-3.74548e-10
-3.24207e-09
-5.28911e-10
-3.68809e-09
-6.03156e-10
-4.10518e-09
-6.02538e-10
-4.48799e-09
-5.3542e-10
-4.83063e-09
-4.12343e-10
-5.13035e-09
-2.46203e-10
-5.38646e-09
-4.92223e-11
-5.59425e-09
1.63318e-10
-5.75419e-09