/*--------------------------------*- C++ -*----------------------------------*\
  =========                 |
  \\      /  F ield         | OpenFOAM: The Open Source CFD Toolbox
   \\    /   O peration     | Website:  https://openfoam.org
    \\  /    A nd           | Version:  7
     \\/     M anipulation  |
\*---------------------------------------------------------------------------*/
FoamFile
{
    version     2.0;
    format      ascii;
    class       volVectorField;
    location    "0.0125";
    object      U;
}
// * * * * * * * * * * * * * * * * * * * * * * * * * * * * * * * * * * * * * //

dimensions      [0 1 -1 0 0 0 0];

internalField   nonuniform List<vector> 
51200
(
(7.64638e-06 -6.53719e-05 0)
(0.000161233 -0.000272972 0)
(0.000689237 -0.000504341 0)
(0.00152231 -0.000641063 0)
(0.00252102 -0.000703931 0)
(0.00356828 -0.000720282 0)
(0.00461279 -0.000703373 0)
(0.0056077 -0.000662848 0)
(0.00651587 -0.000596978 0)
(0.00731355 -0.000516138 0)
(0.00798589 -0.000424135 0)
(0.00851556 -0.000320889 0)
(0.00888955 -0.000207276 0)
(0.00911047 -9.74675e-05 0)
(0.0091845 4.57928e-06 0)
(0.00911775 9.71145e-05 0)
(0.00891263 0.000190774 0)
(0.00859942 0.00026879 0)
(0.0081801 0.000341696 0)
(0.00767033 0.000404643 0)
(0.00709409 0.000448376 0)
(0.00647262 0.000473965 0)
(0.00581583 0.000490559 0)
(0.00514855 0.000493758 0)
(0.00448475 0.000492758 0)
(0.00382863 0.000481911 0)
(0.00320381 0.000460236 0)
(0.00260846 0.000436628 0)
(0.00204695 0.000410273 0)
(0.00152816 0.000382173 0)
(0.00105295 0.000350918 0)
(0.000620467 0.000316832 0)
(0.000233743 0.000278852 0)
(-0.00010691 0.000247057 0)
(-0.000402044 0.000212038 0)
(-0.000659814 0.000181393 0)
(-0.000867781 0.000152376 0)
(-0.00104306 0.000118844 0)
(-0.00117899 9.01171e-05 0)
(-0.00127132 6.44483e-05 0)
(-0.00134346 4.19465e-05 0)
(-0.00137244 1.88666e-05 0)
(-0.00137573 -3.51517e-07 0)
(-0.0013518 -2.033e-05 0)
(-0.00129774 -3.97707e-05 0)
(-0.00122386 -5.24104e-05 0)
(-0.00112363 -6.21645e-05 0)
(-0.0010109 -7.27489e-05 0)
(-0.000886418 -8.10476e-05 0)
(-0.000751016 -8.57769e-05 0)
(-0.000619537 -8.93236e-05 0)
(-0.000494534 -8.79233e-05 0)
(-0.000376835 -7.8698e-05 0)
(-0.00027639 -6.96243e-05 0)
(-0.000194646 -6.33627e-05 0)
(-0.000128441 -5.26226e-05 0)
(-8.32471e-05 -3.62205e-05 0)
(-6.21145e-05 -1.95526e-05 0)
(-6.04624e-05 -2.66778e-06 0)
(-7.69625e-05 1.30888e-05 0)
(-0.000111197 2.04948e-05 0)
(-0.000157327 1.87866e-05 0)
(-0.000207254 1.47456e-05 0)
(-0.000256353 1.21027e-05 0)
(-0.000302235 9.85749e-06 0)
(-0.000339984 7.38585e-06 0)
(-0.000365906 5.09712e-06 0)
(-0.000381645 1.22775e-06 0)
(-0.000388124 -6.81982e-06 0)
(-0.000382856 -1.76145e-05 0)
(-0.000365548 -2.67778e-05 0)
(-0.00033907 -3.2782e-05 0)
(-0.000305669 -3.63552e-05 0)
(-0.000267291 -3.66105e-05 0)
(-0.000227289 -3.38148e-05 0)
(-0.000189089 -3.10114e-05 0)
(-0.000154585 -2.96376e-05 0)
(-0.00012421 -2.81012e-05 0)
(-9.79493e-05 -2.51325e-05 0)
(-7.55117e-05 -2.16766e-05 0)
(-5.69093e-05 -1.86226e-05 0)
(-4.02995e-05 -1.68144e-05 0)
(-2.23761e-05 -1.65124e-05 0)
(-3.66613e-06 -1.64109e-05 0)
(1.53252e-05 -1.66878e-05 0)
(3.47077e-05 -1.61088e-05 0)
(5.12819e-05 -1.23541e-05 0)
(6.30995e-05 -7.33019e-06 0)
(6.81332e-05 -2.69721e-06 0)
(6.44693e-05 1.43837e-06 0)
(5.37271e-05 4.8185e-06 0)
(3.62975e-05 8.56478e-06 0)
(1.37322e-05 1.11789e-05 0)
(-9.6976e-06 1.0451e-05 0)
(-3.19554e-05 7.92574e-06 0)
(-4.98372e-05 4.01288e-06 0)
(-6.0754e-05 -1.07926e-06 0)
(-6.63915e-05 -5.30947e-06 0)
(-6.55191e-05 -9.70422e-06 0)
(-5.62934e-05 -1.49026e-05 0)
(-4.12766e-05 -1.88283e-05 0)
(-2.03766e-05 -2.26337e-05 0)
(7.44605e-06 -2.71941e-05 0)
(3.93347e-05 -2.99434e-05 0)
(7.49676e-05 -3.14586e-05 0)
(0.000114726 -3.33689e-05 0)
(0.000154572 -3.39579e-05 0)
(0.000193091 -3.34181e-05 0)
(0.000231216 -3.28392e-05 0)
(0.000265596 -3.00566e-05 0)
(0.000294511 -2.55533e-05 0)
(0.00032051 -2.29656e-05 0)
(0.00034366 -2.18641e-05 0)
(0.000364101 -2.04904e-05 0)
(0.000385235 -1.99603e-05 0)
(0.000407459 -1.97619e-05 0)
(0.000429258 -1.82912e-05 0)
(0.000453097 -1.74176e-05 0)
(0.000481016 -1.86455e-05 0)
(0.000511828 -2.02407e-05 0)
(0.000546617 -2.1807e-05 0)
(0.00058793 -2.4347e-05 0)
(0.000635223 -2.64783e-05 0)
(0.000688068 -2.73352e-05 0)
(0.000748842 -2.96122e-05 0)
(0.000818543 -3.4583e-05 0)
(0.000895448 -3.94627e-05 0)
(0.00097887 -4.25381e-05 0)
(0.00106808 -4.38294e-05 0)
(0.00115782 -4.15475e-05 0)
(0.00124217 -3.55478e-05 0)
(0.00131921 -2.87114e-05 0)
(0.00138579 -2.13819e-05 0)
(0.00143737 -1.2579e-05 0)
(0.00147399 -3.2167e-06 0)
(0.00149651 6.07794e-06 0)
(0.00150371 1.48676e-05 0)
(0.0014962 2.30536e-05 0)
(0.00147561 3.10116e-05 0)
(0.0014433 3.81516e-05 0)
(0.00139942 4.48679e-05 0)
(0.00134345 5.18529e-05 0)
(0.00127666 5.87151e-05 0)
(0.00119989 6.51809e-05 0)
(0.00111293 7.10593e-05 0)
(0.00101671 7.61626e-05 0)
(0.000914888 7.85695e-05 0)
(0.000812338 7.75567e-05 0)
(0.000711083 7.48157e-05 0)
(0.000615007 6.98413e-05 0)
(0.000528726 6.34055e-05 0)
(0.000451197 5.77653e-05 0)
(0.000380863 5.25284e-05 0)
(0.000317272 4.72106e-05 0)
(0.000258383 4.31472e-05 0)
(0.000202175 4.01279e-05 0)
(0.000147758 3.6355e-05 0)
(9.66801e-05 3.22241e-05 0)
(5.07158e-05 2.96211e-05 0)
(1.29797e-05 2.25259e-05 0)
(-0.000128656 -8.44932e-05 0)
(-6.24832e-05 -0.000540848 0)
(0.000409498 -0.00116732 0)
(0.00134294 -0.00157156 0)
(0.00256564 -0.00175307 0)
(0.00391026 -0.0018107 0)
(0.00527763 -0.00176444 0)
(0.00659836 -0.00165495 0)
(0.00782749 -0.00148875 0)
(0.00892604 -0.00128474 0)
(0.00986162 -0.00105014 0)
(0.0106144 -0.000799934 0)
(0.0111792 -0.000531867 0)
(0.0115535 -0.000272637 0)
(0.0117283 -1.44141e-05 0)
(0.01173 0.000218536 0)
(0.0115658 0.000431675 0)
(0.0112321 0.000624236 0)
(0.0107656 0.000793513 0)
(0.0101821 0.000929176 0)
(0.00950222 0.00103574 0)
(0.00875632 0.00110596 0)
(0.00796233 0.00113597 0)
(0.00712964 0.00115563 0)
(0.00629025 0.00113976 0)
(0.00546294 0.00111356 0)
(0.00465396 0.00106652 0)
(0.00387471 0.00100785 0)
(0.00313829 0.000940614 0)
(0.00244617 0.000871253 0)
(0.00180256 0.000796211 0)
(0.00121351 0.000717045 0)
(0.000684586 0.000641933 0)
(0.000205956 0.00055466 0)
(-0.00021786 0.000485913 0)
(-0.00057583 0.000405853 0)
(-0.00089212 0.000342464 0)
(-0.00114703 0.000267778 0)
(-0.00135023 0.000206069 0)
(-0.00151247 0.000143337 0)
(-0.00162026 8.23491e-05 0)
(-0.00169212 3.45246e-05 0)
(-0.00171958 -1.99669e-05 0)
(-0.00170994 -6.56067e-05 0)
(-0.00166682 -0.00011221 0)
(-0.00158814 -0.000150148 0)
(-0.00148959 -0.000181793 0)
(-0.00136574 -0.000205852 0)
(-0.0012223 -0.000218697 0)
(-0.00107608 -0.000224491 0)
(-0.000926027 -0.000222734 0)
(-0.000778515 -0.000209274 0)
(-0.000646488 -0.000186345 0)
(-0.000529831 -0.000159249 0)
(-0.000430048 -0.000129263 0)
(-0.000354538 -9.59507e-05 0)
(-0.000303989 -6.15979e-05 0)
(-0.000277776 -2.63226e-05 0)
(-0.00027719 1.07152e-05 0)
(-0.000299161 4.55865e-05 0)
(-0.000337747 7.04367e-05 0)
(-0.000388826 8.28636e-05 0)
(-0.000447509 8.54633e-05 0)
(-0.000507215 7.89533e-05 0)
(-0.00056361 6.58788e-05 0)
(-0.000613561 5.14959e-05 0)
(-0.000652893 3.74148e-05 0)
(-0.00067958 2.15011e-05 0)
(-0.000694219 3.05968e-06 0)
(-0.000696141 -1.61928e-05 0)
(-0.000684634 -3.49398e-05 0)
(-0.000662478 -5.12682e-05 0)
(-0.000632786 -6.27995e-05 0)
(-0.000597159 -6.74502e-05 0)
(-0.000558328 -6.53616e-05 0)
(-0.000519299 -6.05306e-05 0)
(-0.000482982 -5.51108e-05 0)
(-0.000450696 -4.86128e-05 0)
(-0.000421996 -4.13348e-05 0)
(-0.000397827 -3.53062e-05 0)
(-0.000377796 -3.19931e-05 0)
(-0.000359754 -2.99746e-05 0)
(-0.000341706 -2.98611e-05 0)
(-0.000322601 -3.16148e-05 0)
(-0.000304052 -3.22372e-05 0)
(-0.000286757 -3.05519e-05 0)
(-0.000271527 -2.39915e-05 0)
(-0.000261811 -1.24034e-05 0)
(-0.0002592 -1.22924e-07 0)
(-0.00026478 1.25023e-05 0)
(-0.000279133 2.47499e-05 0)
(-0.000299446 3.36357e-05 0)
(-0.000324299 3.89609e-05 0)
(-0.000351768 3.92533e-05 0)
(-0.000376171 3.39224e-05 0)
(-0.000395215 2.58824e-05 0)
(-0.000408632 1.53138e-05 0)
(-0.000413818 2.72432e-06 0)
(-0.000410894 -8.67771e-06 0)
(-0.000400204 -1.94319e-05 0)
(-0.000379516 -3.073e-05 0)
(-0.000350948 -4.09218e-05 0)
(-0.000317381 -5.03566e-05 0)
(-0.000276962 -5.90342e-05 0)
(-0.000230821 -6.43575e-05 0)
(-0.000182323 -6.68208e-05 0)
(-0.000130665 -6.81243e-05 0)
(-7.74224e-05 -6.66056e-05 0)
(-2.68875e-05 -6.18675e-05 0)
(2.16257e-05 -5.60382e-05 0)
(6.79023e-05 -4.95971e-05 0)
(0.000108198 -4.3299e-05 0)
(0.000144985 -3.95934e-05 0)
(0.000182904 -3.85158e-05 0)
(0.000220372 -3.84118e-05 0)
(0.000257813 -3.98148e-05 0)
(0.000299452 -4.33388e-05 0)
(0.000344252 -4.75846e-05 0)
(0.000391568 -5.24313e-05 0)
(0.000446925 -5.97083e-05 0)
(0.000511141 -6.93928e-05 0)
(0.000580168 -7.9764e-05 0)
(0.000656835 -9.07324e-05 0)
(0.000745012 -0.000102903 0)
(0.000841084 -0.000115594 0)
(0.000943971 -0.00012866 0)
(0.00105772 -0.000142116 0)
(0.00117986 -0.000152967 0)
(0.00130385 -0.000157228 0)
(0.00142833 -0.000153667 0)
(0.00155054 -0.000143083 0)
(0.00166126 -0.000126658 0)
(0.00175489 -0.000105205 0)
(0.00183337 -8.02364e-05 0)
(0.00189523 -5.46817e-05 0)
(0.00193426 -2.90955e-05 0)
(0.00195153 -2.92599e-06 0)
(0.00195261 2.12982e-05 0)
(0.00193507 4.29743e-05 0)
(0.00189589 6.42261e-05 0)
(0.0018406 8.495e-05 0)
(0.00177263 0.000104286 0)
(0.00168819 0.000122415 0)
(0.00158674 0.000140437 0)
(0.00147462 0.000157263 0)
(0.00135482 0.000169622 0)
(0.00122467 0.000176036 0)
(0.00108749 0.000175753 0)
(0.000952117 0.000170093 0)
(0.00082284 0.00015987 0)
(0.00069851 0.000145647 0)
(0.000578914 0.000132166 0)
(0.00046826 0.000121202 0)
(0.000366708 0.000111341 0)
(0.000269291 0.000103148 0)
(0.000177768 9.74361e-05 0)
(9.90873e-05 9.15483e-05 0)
(4.29135e-05 7.93449e-05 0)
(9.60782e-06 6.52582e-05 0)
(-1.12638e-05 4.36845e-05 0)
(-0.000352769 0.000168754 0)
(-0.000696326 -0.00048806 0)
(-0.0008017 -0.00163143 0)
(-0.000429585 -0.00239767 0)
(0.000250098 -0.00280052 0)
(0.00106556 -0.0029425 0)
(0.00195685 -0.00291903 0)
(0.0028426 -0.00276213 0)
(0.00368164 -0.00250537 0)
(0.0044523 -0.00218374 0)
(0.00513453 -0.00181384 0)
(0.00571085 -0.00140937 0)
(0.00616801 -0.000990683 0)
(0.00651487 -0.000563809 0)
(0.00674884 -0.000164637 0)
(0.00686009 0.000231071 0)
(0.00687326 0.000577909 0)
(0.00679793 0.000891916 0)
(0.00661584 0.00116323 0)
(0.00635529 0.00140052 0)
(0.0060381 0.00157439 0)
(0.00565984 0.00170595 0)
(0.00525048 0.00178323 0)
(0.00480396 0.00181398 0)
(0.0043307 0.00181666 0)
(0.00385778 0.00178282 0)
(0.00338181 0.00172138 0)
(0.00291071 0.00163735 0)
(0.00245358 0.00154683 0)
(0.00201661 0.00143395 0)
(0.0016003 0.00132409 0)
(0.00121767 0.00120559 0)
(0.000852126 0.00107941 0)
(0.000527879 0.000960753 0)
(0.00023542 0.000833219 0)
(-3.35521e-05 0.000720009 0)
(-0.000258739 0.000598069 0)
(-0.00046035 0.000494596 0)
(-0.000622633 0.000383634 0)
(-0.000757165 0.000280781 0)
(-0.000862119 0.000188321 0)
(-0.000938857 9.4241e-05 0)
(-0.00099214 1.27221e-05 0)
(-0.0010158 -6.6961e-05 0)
(-0.00102003 -0.00013972 0)
(-0.00100554 -0.000206325 0)
(-0.000972988 -0.000261001 0)
(-0.000929998 -0.000299181 0)
(-0.000879969 -0.000325482 0)
(-0.000819343 -0.000334884 0)
(-0.000755435 -0.00032849 0)
(-0.000695843 -0.000310763 0)
(-0.000638909 -0.000279009 0)
(-0.000588024 -0.000235789 0)
(-0.000547628 -0.000188597 0)
(-0.000515818 -0.000137441 0)
(-0.000493289 -8.41332e-05 0)
(-0.000483905 -3.31414e-05 0)
(-0.00048734 1.60406e-05 0)
(-0.000500591 6.27249e-05 0)
(-0.000522632 0.000100597 0)
(-0.000551259 0.000124814 0)
(-0.000582183 0.000135054 0)
(-0.000614191 0.000131326 0)
(-0.000648109 0.000115191 0)
(-0.000681421 9.22007e-05 0)
(-0.000710763 6.70835e-05 0)
(-0.000735967 4.0884e-05 0)
(-0.000756573 1.36047e-05 0)
(-0.000770616 -1.32358e-05 0)
(-0.000777942 -3.82179e-05 0)
(-0.000780817 -6.05739e-05 0)
(-0.000780659 -7.79814e-05 0)
(-0.000776576 -8.76213e-05 0)
(-0.000769548 -8.88458e-05 0)
(-0.000761526 -8.45509e-05 0)
(-0.000752901 -7.745e-05 0)
(-0.000744224 -6.76657e-05 0)
(-0.000735188 -5.75909e-05 0)
(-0.000727168 -4.96565e-05 0)
(-0.000721478 -4.46479e-05 0)
(-0.000716022 -4.27291e-05 0)
(-0.000711108 -4.20735e-05 0)
(-0.000707318 -4.25726e-05 0)
(-0.000704459 -4.27217e-05 0)
(-0.000703557 -3.84912e-05 0)
(-0.000703233 -2.92979e-05 0)
(-0.000704982 -1.49382e-05 0)
(-0.000710602 3.05919e-06 0)
(-0.000716902 2.06885e-05 0)
(-0.000724788 3.74058e-05 0)
(-0.000734854 5.05788e-05 0)
(-0.000744384 5.60813e-05 0)
(-0.000755496 5.55164e-05 0)
(-0.000766189 4.90894e-05 0)
(-0.000771697 3.59894e-05 0)
(-0.00077564 2.0224e-05 0)
(-0.000777517 2.78292e-06 0)
(-0.000772517 -1.67492e-05 0)
(-0.000763773 -3.43396e-05 0)
(-0.000751158 -5.04267e-05 0)
(-0.000731315 -6.79223e-05 0)
(-0.000709185 -8.33796e-05 0)
(-0.000685223 -9.52664e-05 0)
(-0.000654674 -0.000105619 0)
(-0.000622507 -0.000111705 0)
(-0.000591396 -0.000112439 0)
(-0.000555785 -0.000111275 0)
(-0.000518444 -0.000106937 0)
(-0.000483604 -9.81774e-05 0)
(-0.000446725 -9.01628e-05 0)
(-0.000409088 -8.462e-05 0)
(-0.000375309 -7.91241e-05 0)
(-0.000339558 -7.63784e-05 0)
(-0.000299026 -7.8685e-05 0)
(-0.000259828 -8.27333e-05 0)
(-0.000219751 -8.82955e-05 0)
(-0.000172766 -9.79584e-05 0)
(-0.000122645 -0.000109358 0)
(-7.07126e-05 -0.0001207 0)
(-1.06118e-05 -0.00013548 0)
(5.66438e-05 -0.000154156 0)
(0.000126045 -0.000172921 0)
(0.000200992 -0.000191764 0)
(0.000283881 -0.000212699 0)
(0.000369162 -0.000233405 0)
(0.000455179 -0.00025033 0)
(0.000545903 -0.000262677 0)
(0.000638996 -0.000268366 0)
(0.000727522 -0.000262711 0)
(0.000811254 -0.000245105 0)
(0.000892069 -0.000219302 0)
(0.000964529 -0.000186345 0)
(0.00102466 -0.00014645 0)
(0.00107544 -0.000103532 0)
(0.00111589 -6.07363e-05 0)
(0.0011411 -1.82732e-05 0)
(0.00115155 2.32256e-05 0)
(0.00115026 6.24751e-05 0)
(0.0011368 9.9281e-05 0)
(0.00110911 0.000134339 0)
(0.00106863 0.000167887 0)
(0.00101853 0.000199602 0)
(0.000959582 0.000228946 0)
(0.000891903 0.000255052 0)
(0.000816364 0.000275979 0)
(0.000735415 0.000288638 0)
(0.000650525 0.000291729 0)
(0.000560628 0.000286617 0)
(0.000468145 0.000274897 0)
(0.000376421 0.000258601 0)
(0.000284614 0.000241119 0)
(0.000192994 0.000224234 0)
(0.000104972 0.000207628 0)
(2.37301e-05 0.000191047 0)
(-4.53863e-05 0.000172673 0)
(-9.77671e-05 0.000145792 0)
(-0.000115656 0.00010455 0)
(-8.56361e-05 5.1685e-05 0)
(-4.79788e-05 2.46776e-05 0)
(-0.000497534 0.000744973 0)
(-0.00113978 8.7088e-05 0)
(-0.00166736 -0.0015325 0)
(-0.00174677 -0.00267749 0)
(-0.0015013 -0.00330158 0)
(-0.00110299 -0.00357295 0)
(-0.000625086 -0.00359039 0)
(-0.000101071 -0.00343966 0)
(0.000411954 -0.00315418 0)
(0.000897825 -0.00277869 0)
(0.00135141 -0.00233594 0)
(0.00175401 -0.00186145 0)
(0.00211351 -0.00136241 0)
(0.0024079 -0.0008607 0)
(0.00264853 -0.000368034 0)
(0.0028394 9.37876e-05 0)
(0.00296883 0.000526073 0)
(0.00304884 0.000911975 0)
(0.00309171 0.00124365 0)
(0.00307773 0.00153006 0)
(0.00301886 0.00175962 0)
(0.00293745 0.00192843 0)
(0.00281438 0.00204998 0)
(0.00266753 0.00210575 0)
(0.00249829 0.00212834 0)
(0.0023076 0.00210328 0)
(0.00210162 0.00205003 0)
(0.00189364 0.00197484 0)
(0.00167507 0.00186714 0)
(0.00145603 0.00175778 0)
(0.00124627 0.00162527 0)
(0.00102854 0.00149505 0)
(0.000835098 0.00135099 0)
(0.000640313 0.00121359 0)
(0.000459276 0.00106483 0)
(0.000299784 0.000924505 0)
(0.000143811 0.00078491 0)
(1.32008e-05 0.00065213 0)
(-0.000113249 0.000521037 0)
(-0.000215433 0.000398382 0)
(-0.000302651 0.000281755 0)
(-0.000383396 0.000165828 0)
(-0.000441222 6.85867e-05 0)
(-0.000492746 -2.86505e-05 0)
(-0.000533865 -0.000115888 0)
(-0.000560174 -0.000191233 0)
(-0.000581701 -0.000256825 0)
(-0.000598043 -0.000308148 0)
(-0.00060797 -0.000338912 0)
(-0.000615684 -0.000351484 0)
(-0.000620941 -0.000350114 0)
(-0.000621246 -0.000332489 0)
(-0.000620264 -0.000300048 0)
(-0.000621593 -0.00025742 0)
(-0.000623349 -0.000204826 0)
(-0.000625969 -0.000144885 0)
(-0.000631614 -8.46668e-05 0)
(-0.000637851 -2.75869e-05 0)
(-0.000643587 2.64519e-05 0)
(-0.000651292 7.39938e-05 0)
(-0.000661771 0.000111518 0)
(-0.000673961 0.000138814 0)
(-0.000688108 0.000153771 0)
(-0.000705168 0.000153598 0)
(-0.000724253 0.000140246 0)
(-0.000744101 0.000119111 0)
(-0.000764583 9.26853e-05 0)
(-0.000785795 6.2139e-05 0)
(-0.000807013 3.11697e-05 0)
(-0.00082706 2.171e-06 0)
(-0.000846605 -2.48645e-05 0)
(-0.000866778 -4.89669e-05 0)
(-0.000885937 -6.73976e-05 0)
(-0.00090193 -7.85864e-05 0)
(-0.000916062 -8.29992e-05 0)
(-0.000929282 -8.17257e-05 0)
(-0.000939708 -7.61608e-05 0)
(-0.00094792 -6.70663e-05 0)
(-0.000955135 -5.7262e-05 0)
(-0.000961584 -5.00964e-05 0)
(-0.000967743 -4.50347e-05 0)
(-0.000972473 -4.19956e-05 0)
(-0.00097788 -4.0833e-05 0)
(-0.000986086 -3.97614e-05 0)
(-0.00099485 -3.77653e-05 0)
(-0.00100421 -3.2127e-05 0)
(-0.00101359 -2.17926e-05 0)
(-0.00102222 -8.45663e-06 0)
(-0.00103146 8.43208e-06 0)
(-0.00103831 2.68317e-05 0)
(-0.00104191 4.28046e-05 0)
(-0.00104529 5.50169e-05 0)
(-0.0010465 6.02388e-05 0)
(-0.00104582 5.74843e-05 0)
(-0.00104577 5.00504e-05 0)
(-0.0010437 3.69591e-05 0)
(-0.00104044 1.80159e-05 0)
(-0.00103809 -2.16281e-06 0)
(-0.00103243 -2.31288e-05 0)
(-0.00102367 -4.5254e-05 0)
(-0.00101536 -6.53569e-05 0)
(-0.00100447 -8.43146e-05 0)
(-0.000990241 -0.000103235 0)
(-0.00097567 -0.000118071 0)
(-0.000958606 -0.00012868 0)
(-0.000938553 -0.000137652 0)
(-0.000918982 -0.000141972 0)
(-0.000897831 -0.000140413 0)
(-0.00087241 -0.000136956 0)
(-0.000845687 -0.000131834 0)
(-0.000818003 -0.000124445 0)
(-0.000786636 -0.00011904 0)
(-0.000753269 -0.000116835 0)
(-0.00071989 -0.000115253 0)
(-0.000684288 -0.0001166 0)
(-0.000645529 -0.00012377 0)
(-0.000605163 -0.000133738 0)
(-0.000562425 -0.000144796 0)
(-0.00051543 -0.000159447 0)
(-0.000465225 -0.0001771 0)
(-0.000413634 -0.00019522 0)
(-0.000359268 -0.000215313 0)
(-0.000299987 -0.000238842 0)
(-0.000237818 -0.000262808 0)
(-0.000175916 -0.000285052 0)
(-0.000113142 -0.000306534 0)
(-4.90648e-05 -0.000325109 0)
(1.22492e-05 -0.000335729 0)
(7.03379e-05 -0.000337092 0)
(0.000128521 -0.000329353 0)
(0.000184741 -0.000310073 0)
(0.000235357 -0.000278944 0)
(0.000282415 -0.000239027 0)
(0.000328193 -0.000192828 0)
(0.000369181 -0.000142253 0)
(0.000400865 -8.93771e-05 0)
(0.000425421 -3.65925e-05 0)
(0.000446027 1.44757e-05 0)
(0.00045803 6.41636e-05 0)
(0.000458114 0.000112178 0)
(0.000451241 0.000157323 0)
(0.000439894 0.000199501 0)
(0.000419708 0.000239383 0)
(0.000390547 0.000276599 0)
(0.000359146 0.000308726 0)
(0.000325764 0.000334292 0)
(0.000284423 0.000352203 0)
(0.000235992 0.000360309 0)
(0.000185042 0.000359499 0)
(0.000131078 0.000352024 0)
(7.05347e-05 0.000338827 0)
(3.60721e-06 0.000322002 0)
(-6.34616e-05 0.000303683 0)
(-0.000125793 0.000282507 0)
(-0.000182652 0.000256043 0)
(-0.000229575 0.000220104 0)
(-0.00025408 0.00016487 0)
(-0.000233353 7.86694e-05 0)
(-0.000154701 -2.9185e-05 0)
(-7.36541e-05 -4.98098e-05 0)
(-0.000576209 0.00151332 0)
(-0.00136461 0.000995188 0)
(-0.00215417 -0.00107815 0)
(-0.00249465 -0.00258202 0)
(-0.00251626 -0.00342953 0)
(-0.00239209 -0.00382413 0)
(-0.00216431 -0.00392104 0)
(-0.00188926 -0.00378671 0)
(-0.00158931 -0.00351713 0)
(-0.00128486 -0.00312393 0)
(-0.000989163 -0.00267257 0)
(-0.000704871 -0.0021669 0)
(-0.000433729 -0.00163986 0)
(-0.000176051 -0.0011178 0)
(5.86593e-05 -0.000591715 0)
(0.000264635 -9.93258e-05 0)
(0.000460687 0.000363223 0)
(0.000634784 0.000773908 0)
(0.000780742 0.00114572 0)
(0.000908462 0.0014493 0)
(0.00101097 0.00171103 0)
(0.0010917 0.00190597 0)
(0.00114878 0.00204411 0)
(0.00118005 0.00213992 0)
(0.00118784 0.0021732 0)
(0.00117662 0.00217543 0)
(0.00115648 0.00213706 0)
(0.00110053 0.00207048 0)
(0.00104 0.00198229 0)
(0.00096944 0.00187251 0)
(0.00088388 0.00175154 0)
(0.000801863 0.00161135 0)
(0.000702305 0.0014801 0)
(0.000608319 0.00132531 0)
(0.000510894 0.00118692 0)
(0.000413684 0.00103434 0)
(0.000325384 0.00089044 0)
(0.000230564 0.000747917 0)
(0.000147572 0.000609209 0)
(6.9285e-05 0.000482136 0)
(-1.29107e-05 0.000350771 0)
(-7.82118e-05 0.000235889 0)
(-0.000142907 0.000123915 0)
(-0.000207676 1.96561e-05 0)
(-0.000261755 -6.86319e-05 0)
(-0.000317581 -0.000149572 0)
(-0.000371545 -0.000217037 0)
(-0.000419326 -0.000268011 0)
(-0.000465928 -0.000303618 0)
(-0.000512053 -0.000321414 0)
(-0.000554281 -0.00032047 0)
(-0.000592225 -0.000304186 0)
(-0.000626727 -0.000276033 0)
(-0.000656288 -0.000236827 0)
(-0.000680719 -0.000187574 0)
(-0.000703339 -0.000132375 0)
(-0.000724835 -7.36563e-05 0)
(-0.000741854 -1.4035e-05 0)
(-0.000754644 4.11999e-05 0)
(-0.000765008 8.77184e-05 0)
(-0.000771268 0.000123908 0)
(-0.000774545 0.000149211 0)
(-0.000779642 0.000162158 0)
(-0.000788216 0.000162972 0)
(-0.00079874 0.000154179 0)
(-0.000811704 0.00013744 0)
(-0.000828967 0.000113972 0)
(-0.000848591 8.58421e-05 0)
(-0.000868261 5.62237e-05 0)
(-0.000889723 2.70405e-05 0)
(-0.000914392 -8.4786e-07 0)
(-0.000941065 -2.48595e-05 0)
(-0.000968371 -4.23897e-05 0)
(-0.000995098 -5.3733e-05 0)
(-0.00102081 -6.00151e-05 0)
(-0.00104489 -6.09124e-05 0)
(-0.00106519 -5.73379e-05 0)
(-0.0010828 -5.14213e-05 0)
(-0.00109997 -4.44471e-05 0)
(-0.00111549 -3.84898e-05 0)
(-0.00112903 -3.37609e-05 0)
(-0.00114149 -3.01355e-05 0)
(-0.00115408 -2.90913e-05 0)
(-0.00116813 -2.81214e-05 0)
(-0.00118255 -2.46616e-05 0)
(-0.00119675 -1.86953e-05 0)
(-0.00121081 -9.12426e-06 0)
(-0.00122311 2.88706e-06 0)
(-0.0012325 1.64593e-05 0)
(-0.00123832 3.21067e-05 0)
(-0.00124055 4.57253e-05 0)
(-0.00124059 5.43158e-05 0)
(-0.00123829 5.82962e-05 0)
(-0.00123301 5.55035e-05 0)
(-0.00122649 4.60774e-05 0)
(-0.00122037 3.27506e-05 0)
(-0.00121438 1.4642e-05 0)
(-0.00120796 -6.92798e-06 0)
(-0.00120122 -2.80896e-05 0)
(-0.00119413 -5.01172e-05 0)
(-0.0011865 -7.33675e-05 0)
(-0.00117871 -9.3837e-05 0)
(-0.0011703 -0.000111705 0)
(-0.00115995 -0.000128341 0)
(-0.00114876 -0.000140812 0)
(-0.00113766 -0.000149228 0)
(-0.00112403 -0.000156013 0)
(-0.00110747 -0.000158612 0)
(-0.00109012 -0.000156071 0)
(-0.00106973 -0.000152928 0)
(-0.00104471 -0.000150253 0)
(-0.00101837 -0.000146545 0)
(-0.000989876 -0.000144975 0)
(-0.000956334 -0.000147898 0)
(-0.000922028 -0.000152813 0)
(-0.000888866 -0.000159761 0)
(-0.000850888 -0.000171493 0)
(-0.000808444 -0.0001866 0)
(-0.000767334 -0.000202847 0)
(-0.000724749 -0.000222248 0)
(-0.000677263 -0.000245347 0)
(-0.00063065 -0.000268532 0)
(-0.000586172 -0.000291121 0)
(-0.000537669 -0.000315484 0)
(-0.0004878 -0.00033977 0)
(-0.000443396 -0.000360044 0)
(-0.000401069 -0.000375637 0)
(-0.00035748 -0.000385284 0)
(-0.000317995 -0.000385276 0)
(-0.000284193 -0.000374033 0)
(-0.000250415 -0.000352314 0)
(-0.000215041 -0.000320576 0)
(-0.000182412 -0.00027896 0)
(-0.000153132 -0.000229242 0)
(-0.000122955 -0.000175456 0)
(-9.35416e-05 -0.000119884 0)
(-7.0155e-05 -6.24049e-05 0)
(-5.08401e-05 -4.82645e-06 0)
(-3.2657e-05 5.046e-05 0)
(-1.89776e-05 0.000103556 0)
(-1.27556e-05 0.00015489 0)
(-1.12207e-05 0.000203165 0)
(-1.14521e-05 0.000247644 0)
(-1.544e-05 0.000288875 0)
(-2.40224e-05 0.000325368 0)
(-3.5827e-05 0.00035487 0)
(-5.15036e-05 0.000376729 0)
(-7.15486e-05 0.000390188 0)
(-9.71427e-05 0.000395332 0)
(-0.000129486 0.000393452 0)
(-0.000167042 0.000385075 0)
(-0.000208493 0.000371656 0)
(-0.000253483 0.000353982 0)
(-0.000297637 0.000329232 0)
(-0.000333764 0.000293018 0)
(-0.000356092 0.000237592 0)
(-0.000358792 0.000152136 0)
(-0.000312348 1.48793e-05 0)
(-0.000198534 -0.00015674 0)
(-9.03116e-05 -0.00015546 0)
(-0.000610156 0.00235497 0)
(-0.0014632 0.00205821 0)
(-0.00236338 -0.000453849 0)
(-0.00285948 -0.00230064 0)
(-0.00303184 -0.00337274 0)
(-0.00307493 -0.00390824 0)
(-0.00301608 -0.00407253 0)
(-0.00288884 -0.00399268 0)
(-0.00273267 -0.00373392 0)
(-0.00255522 -0.00335977 0)
(-0.00236653 -0.00290448 0)
(-0.00216063 -0.00239864 0)
(-0.00195812 -0.00187456 0)
(-0.00174487 -0.00133334 0)
(-0.00152719 -0.00081876 0)
(-0.00131325 -0.000311528 0)
(-0.00110691 0.000156417 0)
(-0.000895778 0.000586499 0)
(-0.000684451 0.00096166 0)
(-0.000489412 0.0012899 0)
(-0.000305102 0.00155653 0)
(-0.000136832 0.00177374 0)
(2.46602e-05 0.00193432 0)
(0.00015717 0.00204115 0)
(0.000270846 0.00210775 0)
(0.000370696 0.00212414 0)
(0.000438837 0.00211047 0)
(0.000501355 0.00205527 0)
(0.000535248 0.00199136 0)
(0.000553509 0.00189138 0)
(0.000557448 0.00178276 0)
(0.000547397 0.0016611 0)
(0.000531271 0.00152327 0)
(0.000495569 0.00138859 0)
(0.000457844 0.00124529 0)
(0.000409736 0.00110152 0)
(0.00035768 0.000959893 0)
(0.000304361 0.000815804 0)
(0.000244961 0.000682094 0)
(0.000182397 0.000545602 0)
(0.000121473 0.000420393 0)
(5.71916e-05 0.000304425 0)
(-8.87112e-06 0.00018638 0)
(-7.06468e-05 8.66028e-05 0)
(-0.000136823 -7.09644e-06 0)
(-0.000204315 -9.05692e-05 0)
(-0.000270021 -0.000155863 0)
(-0.000338323 -0.000207665 0)
(-0.000405152 -0.000245446 0)
(-0.000468706 -0.000265455 0)
(-0.000530656 -0.000268451 0)
(-0.000589378 -0.000256833 0)
(-0.000642931 -0.000231497 0)
(-0.00069 -0.000194863 0)
(-0.000730187 -0.00015135 0)
(-0.000764192 -0.000103848 0)
(-0.000792118 -5.24864e-05 0)
(-0.000814362 5.45712e-07 0)
(-0.000832038 5.05592e-05 0)
(-0.000845048 9.48872e-05 0)
(-0.000852413 0.000131372 0)
(-0.000855979 0.00015624 0)
(-0.00085909 0.000168521 0)
(-0.000862758 0.000170253 0)
(-0.000868128 0.000163336 0)
(-0.000877575 0.000148478 0)
(-0.00089163 0.00012773 0)
(-0.000908631 0.000104153 0)
(-0.000927917 7.90088e-05 0)
(-0.000950571 5.25704e-05 0)
(-0.000976421 2.66164e-05 0)
(-0.00100417 4.14816e-06 0)
(-0.00103361 -1.31921e-05 0)
(-0.00106423 -2.54055e-05 0)
(-0.00109438 -3.27785e-05 0)
(-0.00112268 -3.50106e-05 0)
(-0.00114828 -3.30244e-05 0)
(-0.00117143 -2.99513e-05 0)
(-0.00119321 -2.61579e-05 0)
(-0.0012133 -2.14669e-05 0)
(-0.00123106 -1.76337e-05 0)
(-0.00124807 -1.45177e-05 0)
(-0.00126545 -1.27501e-05 0)
(-0.00128211 -1.18023e-05 0)
(-0.00129826 -8.47955e-06 0)
(-0.00131446 -3.13141e-06 0)
(-0.00132962 3.99787e-06 0)
(-0.0013429 1.42631e-05 0)
(-0.00135217 2.54729e-05 0)
(-0.00135652 3.63292e-05 0)
(-0.00135849 4.61451e-05 0)
(-0.00135745 5.14523e-05 0)
(-0.00135231 5.21543e-05 0)
(-0.00134581 4.91074e-05 0)
(-0.00133776 3.94537e-05 0)
(-0.00132834 2.43528e-05 0)
(-0.00132099 7.30262e-06 0)
(-0.00131365 -1.28781e-05 0)
(-0.00130479 -3.53245e-05 0)
(-0.0012987 -5.68295e-05 0)
(-0.00129333 -7.88841e-05 0)
(-0.0012851 -0.000101226 0)
(-0.00127823 -0.000119695 0)
(-0.00127213 -0.000135248 0)
(-0.00126283 -0.000149925 0)
(-0.00125439 -0.000160575 0)
(-0.00124663 -0.000166821 0)
(-0.00123295 -0.000171816 0)
(-0.00121651 -0.00017433 0)
(-0.00120124 -0.000173269 0)
(-0.00118086 -0.000172512 0)
(-0.00115482 -0.000173459 0)
(-0.00112937 -0.000174416 0)
(-0.00110189 -0.000177803 0)
(-0.00106891 -0.000186283 0)
(-0.00103569 -0.000197074 0)
(-0.00100314 -0.000208607 0)
(-0.000966255 -0.000223827 0)
(-0.000927328 -0.000242994 0)
(-0.00089089 -0.000263461 0)
(-0.000853781 -0.000285732 0)
(-0.00081396 -0.000310513 0)
(-0.000775804 -0.000334812 0)
(-0.000740709 -0.000357008 0)
(-0.000706091 -0.000378256 0)
(-0.000672506 -0.000397275 0)
(-0.000642372 -0.00041055 0)
(-0.000616164 -0.000416125 0)
(-0.00059242 -0.000413709 0)
(-0.000569632 -0.000402196 0)
(-0.000548616 -0.0003793 0)
(-0.000529149 -0.000345545 0)
(-0.00050788 -0.000303988 0)
(-0.000484687 -0.000255386 0)
(-0.000462687 -0.000200741 0)
(-0.000442027 -0.000143446 0)
(-0.000420357 -8.51273e-05 0)
(-0.000397659 -2.6011e-05 0)
(-0.000377533 3.26976e-05 0)
(-0.000361369 8.93064e-05 0)
(-0.000346376 0.000143107 0)
(-0.000331757 0.000194382 0)
(-0.000320288 0.000242504 0)
(-0.000312978 0.000286668 0)
(-0.000306151 0.000325681 0)
(-0.000299451 0.000358142 0)
(-0.000298834 0.000384134 0)
(-0.000304811 0.000402708 0)
(-0.000313029 0.000413207 0)
(-0.000325224 0.000417051 0)
(-0.000345225 0.000414612 0)
(-0.000371333 0.000404854 0)
(-0.000398522 0.000387145 0)
(-0.000422291 0.000358754 0)
(-0.00044035 0.000312705 0)
(-0.000446348 0.000237639 0)
(-0.000431327 0.000117297 0)
(-0.00036455 -7.33258e-05 0)
(-0.000227448 -0.000313227 0)
(-0.000101961 -0.000280309 0)
(-0.000607178 0.00321362 0)
(-0.00144959 0.00316887 0)
(-0.00239502 0.000264014 0)
(-0.00294791 -0.00192002 0)
(-0.00321719 -0.00319232 0)
(-0.00334757 -0.00386337 0)
(-0.0033869 -0.00411005 0)
(-0.00336875 -0.00408235 0)
(-0.00330243 -0.00385249 0)
(-0.00320965 -0.00350337 0)
(-0.00309125 -0.00306125 0)
(-0.00296129 -0.00257486 0)
(-0.00280132 -0.00205594 0)
(-0.00263032 -0.00153547 0)
(-0.00244377 -0.00101686 0)
(-0.00224163 -0.00052368 0)
(-0.00202914 -6.09604e-05 0)
(-0.00180987 0.000362158 0)
(-0.0015902 0.00074747 0)
(-0.00136495 0.00107543 0)
(-0.00114426 0.00135455 0)
(-0.000924671 0.00157859 0)
(-0.000724567 0.00175368 0)
(-0.000531916 0.00187721 0)
(-0.000362804 0.0019595 0)
(-0.000210609 0.00200042 0)
(-7.01724e-05 0.00199863 0)
(4.18581e-05 0.00197936 0)
(0.00013929 0.00191475 0)
(0.000210314 0.00184691 0)
(0.000272445 0.00174977 0)
(0.000313377 0.00164505 0)
(0.000335635 0.00152292 0)
(0.00035378 0.00139851 0)
(0.000347874 0.00126373 0)
(0.000336399 0.00113038 0)
(0.000315924 0.000996144 0)
(0.000282005 0.000860305 0)
(0.000245189 0.000728291 0)
(0.000200353 0.000599378 0)
(0.000150759 0.000478174 0)
(9.25835e-05 0.000359816 0)
(3.26488e-05 0.000253032 0)
(-2.99411e-05 0.0001537 0)
(-9.99802e-05 6.04968e-05 0)
(-0.000168951 -1.718e-05 0)
(-0.000240869 -8.34461e-05 0)
(-0.000317089 -0.000136297 0)
(-0.000391918 -0.000172451 0)
(-0.000464791 -0.000194507 0)
(-0.000535859 -0.000202789 0)
(-0.000602495 -0.000196706 0)
(-0.000663507 -0.000177223 0)
(-0.000719262 -0.000146616 0)
(-0.000768804 -0.000108819 0)
(-0.000810356 -6.64462e-05 0)
(-0.000843507 -2.11988e-05 0)
(-0.000869468 2.34432e-05 0)
(-0.000889374 6.53137e-05 0)
(-0.000903362 0.000103565 0)
(-0.000912268 0.000135885 0)
(-0.000917992 0.000158855 0)
(-0.000921891 0.000171917 0)
(-0.000925185 0.000176354 0)
(-0.000929806 0.000171877 0)
(-0.000937634 0.000159154 0)
(-0.000949064 0.000141488 0)
(-0.00096333 0.000121272 0)
(-0.000981016 9.90357e-05 0)