/*--------------------------------*- C++ -*----------------------------------*\
  =========                 |
  \\      /  F ield         | OpenFOAM: The Open Source CFD Toolbox
   \\    /   O peration     | Website:  https://openfoam.org
    \\  /    A nd           | Version:  7
     \\/     M anipulation  |
\*---------------------------------------------------------------------------*/
FoamFile
{
    version     2.0;
    format      ascii;
    class       volScalarField;
    location    "0.475";
    object      p;
}
// * * * * * * * * * * * * * * * * * * * * * * * * * * * * * * * * * * * * * //

dimensions      [0 2 -2 0 0 0 0];

internalField   nonuniform List<scalar> 
12800
(
1.69767e-06
2.97786e-05
-3.39313e-06
-0.000109041
-0.000279503
-0.00050503
-0.000775099
-0.00107938
-0.00140848
-0.00175412
-0.00210933
-0.0024679
-0.00282487
-0.00317601
-0.00351787
-0.0038477
-0.00416332
-0.00446305
-0.00474563
-0.00501018
-0.00525615
-0.0054832
-0.00569126
-0.00588038
-0.00605076
-0.00620273
-0.00633664
-0.00645294
-0.00655209
-0.00663456
-0.00670082
-0.00675132
-0.0067865
-0.00680675
-0.00681244
-0.00680388
-0.00678133
-0.00674501
-0.00669509
-0.00663167
-0.00655481
-0.0064645
-0.0063607
-0.00624328
-0.0061121
-0.00596693
-0.00580751
-0.00563353
-0.00544461
-0.00524033
-0.00502024
-0.00478381
-0.00453048
-0.00425964
-0.00397063
-0.00366273
-0.00333519
-0.0029872
-0.0026179
-0.00222637
-0.00181167
-0.00137277
-0.000908618
-0.00041809
9.99817e-05
0.000646817
0.00122369
0.00183194
0.00247293
0.00314812
0.00385898
0.00460705
0.00539393
0.00622125
0.00709068
0.00800397
0.00896286
0.00996916
0.0110247
0.0121313
0.0132909
0.0145053
0.0157764
0.0171061
0.0184963
0.0199487
0.0214653
0.0230476
0.0246974
0.0264163
0.0282057
0.030067
0.0320014
0.0340099
0.0360934
0.0382525
0.0404877
0.042799
0.0451864
0.0476493
0.050187
0.0527983
0.0554815
0.0582347
0.0610554
0.0639405
0.0668867
0.06989
0.0729457
0.0760488
0.0791936
0.0823738
0.0855825
0.0888122
0.0920551
0.0953025
0.0985452
0.101774
0.104978
0.108148
0.111272
0.114339
0.117339
0.12026
0.12309
0.125818
0.128433
0.130925
0.133282
0.135496
0.137557
0.139457
0.141189
0.142746
0.144123
0.145317
0.146326
0.147147
0.147783
0.148234
0.148505
0.148602
0.148532
0.148302
0.147925
0.147413
0.146779
0.14604
0.145214
0.14432
0.143381
0.14242
0.141465
0.140546
0.139697
0.138953
0.138354
0.137942
0.137756
0.137783
-2.40045e-05
3.13181e-06
-3.17049e-05
-0.00012876
-0.000279181
-0.00047628
-0.000712552
-0.000980006
-0.00127101
-0.00157859
-0.00189659
-0.00221956
-0.00254289
-0.00286261
-0.00317543
-0.00347864
-0.00377006
-0.00404794
-0.00431095
-0.00455808
-0.00478863
-0.00500213
-0.00519833
-0.00537715
-0.00553864
-0.00568294
-0.00581029
-0.00592098
-0.00601534
-0.00609371
-0.00615645
-0.00620391
-0.00623641
-0.00625426
-0.00625775
-0.00624711
-0.00622254
-0.00618421
-0.00613222
-0.00606663
-0.00598745
-0.00589466
-0.00578817
-0.00566784
-0.0055335
-0.0053849
-0.00522177
-0.00504378
-0.00485056
-0.00464168
-0.00441667
-0.00417503
-0.00391618
-0.00363953
-0.00334441
-0.00303013
-0.00269593
-0.00234103
-0.00196458
-0.0015657
-0.00114343
-0.000696806
-0.000224778
0.000273736
0.000799874
0.00135482
0.00193981
0.00255613
0.0032051
0.00388813
0.00460664
0.00536211
0.00615606
0.00699007
0.00786574
0.00878472
0.00974869
0.0107594
0.0118185
0.0129278
0.014089
0.015304
0.0165745
0.0179022
0.019289
0.0207365
0.0222464
0.0238202
0.0254596
0.0271659
0.0289406
0.0307847
0.0326995
0.0346857
0.0367442
0.0388754
0.0410796
0.0433569
0.045707
0.0481294
0.050623
0.0531868
0.055819
0.0585175
0.06128
0.0641033
0.0669842
0.0699185
0.072902
0.0759295
0.0789956
0.0820941
0.0852185
0.0883615
0.0915154
0.094672
0.0978226
0.100958
0.104069
0.107145
0.110176
0.113151
0.116061
0.118893
0.121639
0.124286
0.126824
0.129245
0.131537
0.133692
0.135701
0.137557
0.139253
0.140784
0.142145
0.143333
0.144345
0.145182
0.145843
0.146332
0.146652
0.146808
0.146808
0.146661
0.146376
0.145966
0.145444
0.144825
0.144127
0.143368
0.142568
0.141751
0.140939
0.14016
0.139442
0.138815
0.138309
0.137952
0.137782
0.13781
9.66765e-06
3.81032e-05
2.99687e-06
-8.94567e-05
-0.000228536
-0.000408512
-0.000623329
-0.00086638
-0.00113123
-0.00141191
-0.00170297
-0.00199957
-0.00229749
-0.00259307
-0.00288322
-0.00316535
-0.00343732
-0.0036974
-0.00394423
-0.00417676
-0.00439422
-0.00459606
-0.00478192
-0.00495161
-0.00510509
-0.00524239
-0.00536364
-0.00546903
-0.00555879
-0.00563317
-0.00569243
-0.00573683
-0.00576664
-0.00578208
-0.00578336
-0.00577067
-0.00574416
-0.00570392
-0.00565003
-0.00558251
-0.00550134
-0.00540644
-0.00529772
-0.00517502
-0.00503812
-0.00488679
-0.00472074
-0.00453962
-0.00434305
-0.00413061
-0.00390183
-0.00365618
-0.00339312
-0.00311203
-0.00281228
-0.00249317
-0.00215396
-0.00179387
-0.00141208
-0.00100771
-0.000579839
-0.000127509
0.000350294
0.000854628
0.0013866
0.00194736
0.00253812
0.00316011
0.00381464
0.00450303
0.00522668
0.00598702
0.00678552
0.00762368
0.00850306
0.00942523
0.0103918
0.0114044
0.0124648
0.0135745
0.0147353
0.0159488
0.0172168
0.018541
0.0199228
0.0213641
0.0228663
0.0244309
0.0260595
0.0277533
0.0295135
0.0313413
0.0332377
0.0352034
0.0372392
0.0393454
0.0415222
0.0437696
0.0460873
0.0484747
0.0509308
0.0534542
0.0560435
0.0586964
0.0614105
0.0641829
0.0670101
0.0698884
0.0728133
0.0757799
0.0787829
0.0818164
0.0848738
0.0879483
0.0910323
0.094118
0.0971969
0.10026
0.103299
0.106303
0.109263
0.112168
0.11501
0.117776
0.120458
0.123044
0.125526
0.127894
0.130137
0.132249
0.134221
0.136046
0.137717
0.13923
0.14058
0.141764
0.142781
0.14363
0.144312
0.144829
0.145186
0.145388
0.145442
0.145355
0.145139
0.144805
0.144366
0.143836
0.143231
0.142569
0.141869
0.141151
0.140438
0.139752
0.139119
0.138563
0.138108
0.13778
0.137611
0.137625
0.000116008
0.000135592
9.49461e-05
1.73578e-06
-0.000133265
-0.000304641
-0.000507026
-0.00073468
-0.000982035
-0.00124387
-0.0015154
-0.00179228
-0.00207071
-0.00234736
-0.00261935
-0.00288427
-0.00314009
-0.00338515
-0.00361811
-0.00383793
-0.00404382
-0.00423518
-0.00441161
-0.00457287
-0.00471883
-0.00484945
-0.00496481
-0.005065
-0.00515018
-0.00522053
-0.00527624
-0.0053175
-0.00534452
-0.00535746
-0.00535648
-0.00534171
-0.00531324
-0.00527115
-0.00521545
-0.00514614
-0.00506316
-0.00496643
-0.0048558
-0.00473109
-0.00459209
-0.00443854
-0.00427013
-0.00408652
-0.00388731
-0.00367208
-0.00344034
-0.0031916
-0.00292528
-0.0026408
-0.0023375
-0.00201472
-0.00167172
-0.00130773
-0.00092195
-0.000513512
-8.15208e-05
0.000374968
0.000856943
0.00136544
0.00190153
0.00246633
0.00306103
0.00368682
0.00434496
0.00503675
0.00576354
0.00652671
0.00732768
0.00816791
0.00904889
0.00997214
0.0109392
0.0119517
0.0130112
0.0141193
0.0152777
0.0164879
0.0177516
0.0190703
0.0204457
0.0218792
0.0233724
0.0249267
0.0265434
0.0282239
0.0299692
0.0317805
0.0336586
0.0356043
0.0376181
0.0397005
0.0418516
0.0440713
0.0463592
0.0487147
0.0511368
0.0536243
0.0561755
0.0587883
0.0614603
0.0641885
0.0669698
0.0698003
0.0726756
0.0755911
0.0785415
0.0815211
0.0845235
0.087542
0.0905694
0.0935979
0.0966194
0.0996253
0.102607
0.105554
0.108459
0.11131
0.114099
0.116815
0.119448
0.121989
0.124429
0.126757
0.128965
0.131046
0.132991
0.134793
0.136447
0.137948
0.139291
0.140475
0.141497
0.142357
0.143056
0.143596
0.143983
0.14422
0.144315
0.144276
0.144112
0.143835
0.143457
0.142992
0.142455
0.141863
0.141233
0.140584
0.139935
0.139309
0.138725
0.138206
0.137773
0.137447
0.137255
0.137218
0.000288763
0.000287546
0.000234068
0.000134725
-1.54945e-06
-0.000169744
-0.000365047
-0.000582469
-0.00081718
-0.00106464
-0.00132065
-0.0015814
-0.00184347
-0.00210387
-0.00235999
-0.00260961
-0.00285085
-0.00308215
-0.00330224
-0.00351012
-0.00370499
-0.00388627
-0.00405353
-0.00420648
-0.00434495
-0.00446886
-0.00457822
-0.00467307
-0.0047535
-0.00481964
-0.00487161
-0.00490956
-0.00493362
-0.00494391
-0.00494054
-0.00492359
-0.00489311
-0.00484913
-0.00479163
-0.00472057
-0.00463587
-0.00453741
-0.00442502
-0.00429852
-0.00415765
-0.00400216
-0.00383171
-0.00364596
-0.0034445
-0.00322691
-0.00299271
-0.00274137
-0.00247236
-0.00218508
-0.00187889
-0.00155312
-0.00120705
-0.000839934
-0.000450969
-3.93203e-05
0.000395893
0.000855593
0.00134074
0.00185235
0.00239147
0.00295919
0.00355663
0.00418498
0.00484546
0.00553933
0.00626788
0.00703245
0.00783443
0.00867521
0.00955623
0.010479
0.011445
0.0124557
0.0135126
0.0146174
0.0157716
0.0169767
0.0182343
0.0195459
0.0209131
0.0223372
0.0238198
0.0253621
0.0269655
0.0286312
0.0303603
0.0321537
0.0340124
0.0359371
0.0379282
0.0399861
0.0421109
0.0443026
0.0465608
0.0488847
0.0512735
0.0537259
0.0562402
0.0588144
0.0614462
0.0641327
0.0668707
0.0696565
0.0724859
0.0753543
0.0782566
0.0811872
0.0841399
0.0871083
0.0900852
0.0930631
0.0960342
0.0989901
0.101922
0.104821
0.107678
0.110484
0.113228
0.115902
0.118496
0.120999
0.123404
0.125701
0.127881
0.129937
0.131861
0.133647
0.135288
0.136781
0.138121
0.139306
0.140334
0.141205
0.14192
0.142482
0.142894
0.143162
0.143292
0.143292
0.143172
0.142942
0.142615
0.142202
0.141719
0.141182
0.140605
0.140007
0.139406
0.138819
0.138265
0.137764
0.137332
0.136989
0.136751
0.13663
0.000519302
0.00048805
0.000415264
0.000304669
0.000162143
-7.78235e-06
-0.000200798
-0.000412607
-0.000639056
-0.000876219
-0.00112045
-0.00136842
-0.00161711
-0.00186388
-0.0021064
-0.00234265
-0.00257093
-0.00278982
-0.00299815
-0.00319497
-0.00337952
-0.00355124
-0.0037097
-0.00385461
-0.00398576
-0.00410305
-0.00420643
-0.00429591
-0.00437154
-0.00443339
-0.00448155
-0.00451609
-0.00453711
-0.00454468
-0.00453886
-0.0045197
-0.0044872
-0.00444135
-0.0043821
-0.00430938
-0.00422307
-0.00412303
-0.00400908
-0.00388101
-0.00373855
-0.00358141
-0.00340927
-0.00322176
-0.00301848
-0.00279899
-0.00256281
-0.00230944
-0.00203831
-0.00174885
-0.00144042
-0.00111237
-0.000763986
-0.000394531
-3.22384e-06
0.000410755
0.000848264
0.0013102
0.00179751
0.00231117
0.0028522
0.00342166
0.00402064
0.0046503
0.00531181
0.00600639
0.0067353
0.00749984
0.00830132
0.00914112
0.0100206
0.0109413
0.0119045
0.0129117
0.0139645
0.0150642
0.0162125
0.0174108
0.0186606
0.0199634
0.0213206
0.0227336
0.0242038
0.0257326
0.0273211
0.0289706
0.0306821
0.0324565
0.0342946
0.0361972
0.0381648
0.0401976
0.0422958
0.0444593
0.0466877
0.0489803
0.0513363
0.0537545
0.0562331
0.0587704
0.0613639
0.0640109
0.0667083
0.0694526
0.0722395
0.0750648
0.0779233
0.0808097
0.083718
0.0866417
0.0895742
0.092508
0.0954355
0.0983485
0.101239
0.104097
0.106915
0.109682
0.112391
0.11503
0.117592
0.120066
0.122444
0.124717
0.126876
0.128914
0.130824
0.132599
0.134233
0.135722
0.137062
0.138251
0.139287
0.140169
0.1409
0.14148
0.141915
0.14221
0.142369
0.142403
0.142318
0.142126
0.141839
0.141467
0.141026
0.140529
0.139991
0.139429
0.138857
0.138293
0.137752
0.137251
0.136805
0.136428
0.136127
0.135902
0.000798189
0.000730331
0.000633013
0.000506644
0.0003534
0.000177312
-1.77575e-05
-0.00022816
-0.000450365
-0.000681011
-0.000916964
-0.00115535
-0.00139355
-0.00162925
-0.00186042
-0.00208526
-0.00230228
-0.0025102
-0.00270797
-0.00289471
-0.00306976
-0.00323257
-0.00338274
-0.00351999
-0.00364411
-0.00375497
-0.00385252
-0.00393673
-0.00400761
-0.00406519
-0.00410952
-0.00414065
-0.00415862
-0.00416348
-0.00415523
-0.00413387
-0.0040994
-0.00405175
-0.00399085
-0.0039166
-0.00382885
-0.00372743
-0.00361215
-0.00348276
-0.003339
-0.00318056
-0.00300709
-0.00281824
-0.00261358
-0.00239268
-0.00215506
-0.00190021
-0.00162758
-0.00133659
-0.00102662
-0.000697016
-0.000347092
2.3879e-05
0.000416662
0.000832058
0.0012709
0.00173408
0.00222249
0.0027371
0.00327889
0.00384889
0.00444817
0.00507784
0.00573903
0.00643294
0.00716077
0.00792377
0.00872324
0.00956049
0.0104369
0.0113537
0.0123125
0.0133146
0.0143614
0.0154544
0.016595
0.0177847
0.0190249
0.0203171
0.0216626
0.0230629
0.0245191
0.0260327
0.0276049
0.0292366
0.0309291
0.0326832
0.0344997
0.0363793
0.0383225
0.0403295
0.0424006
0.0445357
0.0467344
0.048996
0.0513199
0.0537046
0.0561488
0.0586506
0.0612077
0.0638175
0.066477
0.0691827
0.0719307
0.0747166
0.0775357
0.0803826
0.0832515
0.0861363
0.0890303
0.0919263
0.0948168
0.0976939
0.100549
0.103374
0.10616
0.108898
0.111578
0.114192
0.11673
0.119183
0.121542
0.123798
0.125944
0.127971
0.129873
0.131642
0.133274
0.134764
0.136108
0.137303
0.138348
0.139243
0.139988
0.140587
0.141042
0.14136
0.141544
0.141605
0.141549
0.141387
0.14113
0.140789
0.140378
0.139909
0.139396
0.138855
0.138299
0.137742
0.1372
0.136684
0.136209
0.135787
0.135412
0.13507
0.00111602
0.00100699
0.000881088
0.000735183
0.000567438
0.000381408
0.000180564
-3.20553e-05
-0.000253499
-0.000480931
-0.000711693
-0.000943339
-0.00117364
-0.00140062
-0.00162251
-0.0018378
-0.00204515
-0.00224348
-0.00243186
-0.00260954
-0.00277591
-0.00293049
-0.00307294
-0.00320298
-0.00332042
-0.00342514
-0.00351706
-0.00359616
-0.0036624
-0.00371581
-0.0037564
-0.00378418
-0.00379916
-0.00380135
-0.00379073
-0.00376727
-0.00373092
-0.00368159
-0.00361917
-0.00354355
-0.00345454
-0.00335197
-0.00323559
-0.00310518
-0.00296042
-0.00280102
-0.00262661
-0.00243683
-0.00223124
-0.00200942
-0.00177088
-0.00151512
-0.00124158
-0.000949708
-0.000638878
-0.000308454
4.22415e-05
0.000413919
0.000807323
0.00122323
0.00166247
0.00212588
0.00261436
0.00312882
0.00367024
0.0042396
0.00483794
0.00546633
0.00612588
0.00681772
0.00754304
0.00830305
0.00909898
0.00993212
0.0108038
0.0117152
0.0126679
0.013663
0.0147022
0.0157866
0.0169178
0.0180971
0.019326
0.0206058
0.0219379
0.0233236
0.0247642
0.0262609
0.0278151
0.0294276
0.0310997
0.0328321
0.0346257
0.0364811
0.038399
0.0403795
0.042423
0.0445292
0.046698
0.0489287
0.0512207
0.0535727
0.0559833
0.0584508
0.0609731
0.0635476
0.0661714
0.0688412
0.0715532
0.0743032
0.0770866
0.0798982
0.0827324
0.0855832
0.088444
0.0913079
0.0941675
0.097015
0.0998424
0.102641
0.105403
0.108118
0.110777
0.113373
0.115894
0.118333
0.120681
0.122928
0.125067
0.12709
0.12899
0.13076
0.132394
0.133889
0.135241
0.136445
0.137502
0.138411
0.139172
0.139788
0.140263
0.1406
0.140806
0.140889
0.140856
0.140717
0.140482
0.140163
0.139772
0.13932
0.138822
0.13829
0.137737
0.137176
0.136619
0.136077
0.135563
0.135087
0.134629
0.134168
0.00146401
0.00131073
0.00115321
0.000984754
0.000799397
0.00060027
0.00039051
0.000172587
-5.10881e-05
-0.000278166
-0.000506437
-0.000733863
-0.000958589
-0.00117895
-0.00139348
-0.00160089
-0.00180009
-0.00199015
-0.00217029
-0.00233988
-0.00249842
-0.0026455
-0.00278081
-0.00290414
-0.00301532
-0.00311424
-0.00320082
-0.00327502
-0.00333682
-0.00338622
-0.00342319
-0.00344774
-0.00345985
-0.00345949
-0.00344662
-0.00342118
-0.00338308
-0.00333222
-0.00326846
-0.00319165
-0.00310161
-0.00299811
-0.00288091
-0.00274976
-0.00260434
-0.00244432
-0.00226936
-0.00207906
-0.001873
-0.00165074
-0.00141181
-0.00115568
-0.000881842
-0.000589711
-0.000278694
5.18394e-05
0.000402552
0.000774137
0.00116732
0.00158286
0.00202156
0.00248423
0.00297175
0.003485
0.00402491
0.00459246
0.00518863
0.00581448
0.00647105
0.00715947
0.00788086
0.0086364
0.00942728
0.0102547
0.01112
0.0120244
0.0129693
0.0139559
0.0149856
0.0160597
0.0171797
0.0183468
0.0195625
0.0208281
0.0221449
0.0235143
0.0249375
0.0264157
0.0279501
0.0295418
0.0311919
0.0329012
0.0346705
0.0365006
0.0383921
0.0403451
0.0423601
0.0444369
0.0465754
0.0487751
0.0510352
0.0533548
0.0557325
0.0581666
0.0606552
0.0631959
0.0657859
0.068422
0.0711006
0.0738177
0.0765687
0.0793486
0.0821521
0.0849733
0.0878057
0.0906426
0.0934768
0.0963005
0.099106
0.101885
0.104628
0.107327
0.109974
0.112557
0.11507
0.117502
0.119845
0.12209
0.124229
0.126254
0.128158
0.129934
0.131577
0.133082
0.134445
0.135663
0.136735
0.137659
0.138437
0.139071
0.139563
0.139919
0.140144
0.140246
0.140231
0.140109
0.139891
0.139586
0.139207
0.138764
0.13827
0.137737
0.137177
0.136601
0.13602
0.135443
0.134882
0.134345
0.133802
0.133221
0.00183418
0.00163463
0.00144328
0.00124992
0.00104444
0.00082962
0.000608314
0.000382473
0.000154006
-7.51907e-05
-0.000303328
-0.000528755
-0.000749967
-0.00096562
-0.00117452
-0.00137564
-0.0015681
-0.00175114
-0.00192415
-0.00208663
-0.00223818
-0.00237848
-0.0025073
-0.00262446
-0.00272983
-0.00282334
-0.00290491
-0.00297451
-0.00303212
-0.00307771
-0.00311127
-0.00313277
-0.00314217
-0.00313943
-0.00312447
-0.00309721
-0.00305755
-0.00300534
-0.00294044
-0.00286267
-0.00277182
-0.00266765
-0.00254992
-0.00241833
-0.00227257
-0.00211231
-0.00193717
-0.00174677
-0.00154069
-0.00131848
-0.00107966
-0.000823729
-0.000550163
-0.000258402
5.21422e-05
0.000382086
0.000732074
0.00110278
0.00149492
0.00190923
0.00234646
0.00280744
0.00329298
0.00380396
0.00434127
0.00490584
0.00549865
0.00612068
0.00677298
0.0074566
0.00817265
0.00892226
0.00970658
0.0105268
0.0113842
0.0122799
0.0132152
0.0141915
0.01521
0.016272
0.017379
0.0185321
0.0197328
0.0209823
0.022282
0.0236332
0.0250372
0.026495
0.028008
0.0295772
0.0312037
0.0328883
0.034632
0.0364354
0.0382991
0.0402236
0.0422092
0.0442558
0.0463635
0.0485317
0.0507598
0.053047
0.0553921
0.0577935
0.0602493
0.0627574
0.065315
0.0679193
0.0705666
0.0732532
0.0759746
0.0787261
0.0815025
0.0842979
0.0871061
0.0899207
0.0927343
0.0955396
0.0983286
0.101093
0.103825
0.106514
0.109153
0.111732
0.114242
0.116674
0.119019
0.121269
0.123414
0.125448
0.127362
0.129151
0.130808
0.132327
0.133706
0.134941
0.136031
0.136973
0.13777
0.138422
0.138933
0.139307
0.13955
0.139667
0.139667
0.139559
0.139351
0.139055
0.138681
0.138239
0.137742
0.1372
0.136624
0.136026
0.135413
0.134794
0.134181
0.13358
0.13295
0.132251
0.00221925
0.0019722
0.00174545
0.00152538
0.00129779
0.00106517
0.000830149
0.000594198
0.000358766
0.000125329
-0.000104719
-0.000330092
-0.000549624
-0.000762275
-0.000967131
-0.0011634
-0.00135042
-0.00152763
-0.00169458
-0.00185089
-0.00199629
-0.00213056
-0.00225353
-0.00236509
-0.00246516
-0.00255369
-0.00263064
-0.00269598
-0.0027497
-0.00279176
-0.00282215
-0.00284083
-0.00284774
-0.00284282
-0.00282598
-0.00279711
-0.00275609
-0.00270276
-0.00263694
-0.00255845
-0.00246704
-0.00236249
-0.0022445
-0.00211279
-0.00196704
-0.00180688
-0.00163196
-0.00144188
-0.00123622
-0.00101452
-0.000776319
-0.000521122
-0.000248406
4.23791e-05
0.000351806
0.000680476
0.00102902
0.00139809
0.00178838
0.00220059
0.00263548
0.00309381
0.00357639
0.00408405
0.00461767
0.00517814
0.00576638
0.00638337
0.00703009
0.00770758
0.00841689
0.00915912
0.00993538
0.0107468
0.0115946
0.01248
0.0134042
0.0143684
0.015374
0.0164221
0.0175142
0.0186514
0.0198352
0.0210669
0.0223476
0.0236788
0.0250616
0.0264973
0.027987
0.0295319
0.0311331
0.0327914
0.0345078
0.0362831
0.0381178
0.0400125
0.0419676
0.0439831
0.0460591
0.0481952
0.050391
0.0526457
0.0549582
0.0573271
0.0597507
0.062227
0.0647534
0.0673272
0.069945
0.0726031
0.0752974
0.0780232
0.0807754
0.0835485
0.0863364
0.0891326
0.0919301
0.0947216
0.0974992
0.100255
0.10298
0.105666
0.108304
0.110884
0.113398
0.115836
0.11819
0.12045
0.122609
0.124657
0.126588
0.128395
0.13007
0.131611
0.13301
0.134267
0.135378
0.136342
0.137159
0.137832
0.138362
0.138755
0.139014
0.139146
0.139159
0.13906
0.13886
0.138567
0.138192
0.137746
0.137239
0.136682
0.136085
0.135457
0.134806
0.134141
0.133471
0.132803
0.132088
0.131276
0.00261265
0.00231736
0.00205414
0.00180601
0.00155476
0.00130266
0.00105215
0.000804276
0.000560054
0.000320572
8.68552e-05
-0.000140158
-0.000359622
-0.000570792
-0.000773023
-0.000965766
-0.00114857
-0.00132106
-0.00148294
-0.00163401
-0.00177408
-0.00190305
-0.00202084
-0.0021274
-0.00222269
-0.00230672
-0.00237947
-0.00244093
-0.0024911
-0.00252995
-0.00255746
-0.00257359
-0.00257826
-0.00257141
-0.00255293
-0.00252269
-0.00248054
-0.00242633
-0.00235984
-0.00228088
-0.0021892
-0.00208453
-0.0019666
-0.00183509
-0.00168967
-0.00152999
-0.00135567
-0.00116631
-0.000961489
-0.00074077
-0.000503682
-0.000249736
2.15788e-05
0.000310799
0.000618486
0.000945222
0.00129162
0.00165831
0.00204596
0.00245526
0.00288693
0.0033417
0.00382036
0.0043237
0.00485256
0.0054078
0.00599032
0.00660104
0.00724092
0.00791095
0.00861215
0.00934557
0.0101123
0.0109134
0.0117501
0.0126235
0.0135348
0.0144853
0.0154761
0.0165086
0.017584
0.0187035
0.0198686
0.0210804
0.0223403
0.0236495
0.0250093
0.0264209
0.0278856
0.0294044
0.0309784
0.0326087
0.0342962
0.0360417
0.0378459
0.0397095
0.0416328
0.0436161
0.0456594
0.0477627
0.0499255
0.0521472
0.0544269
0.0567634
0.0591551
0.0616001
0.0640961
0.0666404
0.06923
0.0718614
0.0745305
0.0772328
0.0799636
0.0827173
0.085488
0.0882695
0.0910548
0.0938367
0.0966075
0.099359
0.102083
0.10477
0.107413
0.11
0.112524
0.114975
0.117343
0.119621
0.121799
0.123868
0.125821
0.127652
0.129353
0.130918
0.132344
0.133626
0.134763
0.135752
0.136594
0.137289
0.137841
0.138252
0.138528
0.138675
0.138699
0.138608
0.138412
0.13812
0.137741
0.137286
0.136764
0.136186
0.135562
0.1349
0.134208
0.133492
0.132763
0.132028
0.131229
0.130308
0.00300832
0.00266443
0.00236404
0.00208688
0.00181079
0.00153787
0.00127045
0.00100916
0.000754634
0.000507587
0.000268701
3.85859e-05
-0.000182221
-0.000393257
-0.000594136
-0.000784546
-0.000964244
-0.00113305
-0.00129083
-0.00143752
-0.00157307
-0.00169748
-0.00181075
-0.0019129
-0.00200397
-0.00208399
-0.00215299
-0.00221098
-0.00225798
-0.00229397
-0.00231893
-0.00233281
-0.00233554
-0.00232704
-0.00230718
-0.00227582
-0.00223282
-0.00217798
-0.0021111
-0.00203194
-0.00194025
-0.00183577
-0.00171819
-0.00158719
-0.00144244
-0.00128358
-0.00111022
-0.000921981
-0.00071843
-0.00049913
-0.000263623
-1.14273e-05
0.000257957
0.000545052
0.000850401
0.00117457
0.00151815
0.00188176
0.00226603
0.00267162
0.00309922
0.00354955
0.00402335
0.00452139
0.00504446
0.0055934
0.00616906
0.00677233
0.00740412
0.0080654
0.00875713
0.00948033
0.0102361
0.0110254
0.0118494
0.0127092
0.013606
0.014541
0.0155153
0.0165303
0.0175872
0.0186872
0.0198316
0.0210217
0.0222588
0.0235441
0.024879
0.0262646
0.0277023
0.0291931
0.0307382
0.0323387
0.0339955
0.0357096
0.0374818
0.0393126
0.0412028
0.0431526
0.0451622
0.0472316
0.0493606
0.0515487
0.0537952
0.0560989
0.0584586
0.0608725
0.0633385
0.0658542
0.0684166
0.0710224
0.0736678
0.0763486
0.07906
0.0817968
0.0845532
0.087323
0.0900996
0.0928756
0.0956436
0.0983955
0.101123
0.103817
0.106469
0.109069
0.111608
0.114077
0.116467
0.118767
0.12097
0.123067
0.125049
0.126909
0.128641
0.130238
0.131695
0.133009
0.134175
0.135194
0.136063
0.136785
0.13736
0.137792
0.138086
0.138247
0.138282
0.138199
0.138005
0.137711
0.137325
0.136857
0.136317
0.135715
0.13506
0.13436
0.133623
0.132855
0.132066
0.131263
0.130382
0.129358
0.00340068
0.00300808
0.00267009
0.00236321
0.0020614
0.00176664
0.00148118
0.00120528
0.000939194
0.000683313
0.000437988
0.000203517
-1.98558e-05
-0.000231941
-0.000432603
-0.000621758
-0.000799371
-0.000965446
-0.00112002
-0.00126317
-0.00139497
-0.00151552
-0.00162493
-0.00172329
-0.00181069
-0.00188722
-0.00195294
-0.0020079
-0.00205214
-0.00208564
-0.0021084
-0.00212036
-0.00212146
-0.0021116
-0.00209065
-0.00205847
-0.00201488
-0.00195969
-0.00189268
-0.0018136
-0.0017222
-0.00161818
-0.00150124
-0.00137107
-0.00122731
-0.00106961
-0.000897575
-0.000710822
-0.000508931
-0.00029147
-5.79863e-05
0.000191989
0.000458942
0.000743381
0.00104583
0.00136684
0.00170697
0.00206681
0.00244698
0.00284811
0.00327085
0.00371589
0.00418394
0.00467573
0.00519202
0.00573361
0.00630131
0.00689598
0.00751848
0.00816974
0.00885069
0.00956232
0.0103056
0.0110816
0.0118914
0.0127361
0.0136167
0.0145345
0.0154907
0.0164864
0.017523
0.0186015
0.0197234
0.0208899
0.0221023
0.0233618
0.0246698
0.0260275
0.0274362
0.0288972
0.0304114
0.0319802
0.0336046
0.0352856
0.0370239
0.0388206
0.040676
0.0425909
0.0445655
0.0465999
0.0486941
0.0508477
0.0530602
0.0553308
0.0576582
0.0600409
0.062477
0.0649644
0.0675002
0.0700813
0.0727043
0.0753649
0.0780587
0.0807805
0.083525
0.0862858
0.0890566
0.0918301
0.0945989
0.0973551
0.10009
0.102795
0.105461
0.108079
0.110639
0.113132
0.115548
0.117878
0.120113
0.122242
0.124259
0.126156
0.127924
0.129558
0.131052
0.132402
0.133604
0.134656
0.135558
0.136309
0.136911
0.137366
0.13768
0.137857
0.137904
0.137827
0.137636
0.137338
0.136943
0.136461
0.1359
0.135271
0.134582
0.133842
0.133058
0.132236
0.131386
0.130517
0.129555
0.128434
0.00378454
0.0033433
0.00296749
0.00263042
0.00230225
0.00198488
0.0016805
0.00138902
0.00111037
0.000844602
0.000591773
0.000351879
0.000124886
-8.92803e-05
-0.000290727
-0.000479592
-0.000656045
-0.000820271
-0.000972475
-0.00111287
-0.00124165
-0.00135904
-0.00146523
-0.00156039
-0.00164468
-0.00171824
-0.00178117
-0.00183356
-0.00187545
-0.00190686
-0.00192779
-0.00193819
-0.00193798
-0.00192708
-0.00190534
-0.00187262
-0.00182873
-0.00177346
-0.00170659
-0.00162787
-0.00153702
-0.00143375
-0.00131775
-0.00118868
-0.00104622
-0.000889988
-0.000719611
-0.000534696
-0.000334833
-0.000119597
0.000111452
0.00035877
0.00062283
0.000904119
0.00120314
0.00152043
0.00185651
0.00221196
0.00258736
0.00298331
0.00340044
0.00383939
0.00430084
0.00478549
0.00529406
0.0058273
0.00638599
0.00697094
0.007583
0.00822302
0.00889192
0.00959063
0.0103201
0.0110814
0.0118754
0.0127034
0.0135663
0.0144653
0.0154016
0.0163763
0.0173907
0.0184461
0.0195436
0.0206846
0.0218703
0.0231021
0.0243813
0.0257091
0.0270869
0.028516
0.0299976
0.0315328
0.0331228
0.0347688
0.0364717
0.0382323
0.0400515
0.0419299
0.043868
0.0458661
0.0479243
0.0500424
0.0522201
0.0544567
0.0567512
0.0591024
0.0615085
0.0639675
0.066477
0.069034
0.0716352
0.0742768
0.0769543
0.0796629
0.0823972
0.0851513
0.0879188
0.0906927
0.0934655
0.0962293
0.0989758
0.101696
0.104381
0.107021
0.109608
0.11213
0.114578
0.116942
0.119214
0.121383
0.123441
0.125379
0.12719
0.128867
0.130404
0.131796
0.133039
0.134131
0.135069
0.135853
0.136486
0.136968
0.137305
0.1375
0.137559
0.137491
0.137301
0.137
0.136595
0.136097
0.135514
0.134856
0.134132
0.13335
0.132517
0.13164
0.130729
0.129794
0.128755
0.12754
0.004155
0.00366532
0.00325161
0.00288406
0.00252909
0.00218855
0.00186457
0.00155677
0.00126473
0.000988232
0.000727015
0.000480801
0.000249286
3.21441e-05
-0.000170967
-0.000360403
-0.000536528
-0.000699709
-0.000850308
-0.000988676
-0.00111515
-0.00123004
-0.00133363
-0.00142618
-0.00150792
-0.00157902
-0.00163965
-0.00168992
-0.00172989
-0.00175961
-0.00177908
-0.00178827
-0.0017871
-0.00177547
-0.00175325
-0.00172028
-0.00167636
-0.0016213
-0.00155484
-0.00147673
-0.00138669
-0.00128443
-0.00116962
-0.00104195
-0.000901055
-0.000746584
-0.000578161
-0.000395398
-0.000197894
1.47663e-05
0.00024301
0.000487278
0.000748024
0.00102572
0.00132084
0.00163389
0.00196539
0.00231586
0.00268587
0.00307599
0.00348679
0.00391891
0.00437296
0.00484962
0.00534957
0.00587351
0.0064222
0.00699639
0.00759688
0.00822452
0.00888014
0.00956467
0.010279
0.0110241
0.011801
0.0126108
0.0134544
0.014333
0.0152477
0.0161998
0.0171903
0.0182206
0.0192919
0.0204055
0.0215627
0.0227649
0.0240133
0.0253093
0.0266543
0.0280496
0.0294964
0.0309962
0.03255
0.0341591
0.0358246
0.0375476
0.0393288
0.0411691
0.0430692
0.0450295
0.0470503
0.0491317
0.0512734
0.0534751
0.055736
0.058055
0.0604306
0.0628611
0.0653443
0.0678773
0.0704572
0.0730803
0.0757424
0.078439
0.0811647
0.0839138
0.0866802
0.0894568
0.0922363
0.095011
0.0977723
0.100512
0.10322
0.105887
0.108503
0.111059
0.113545
0.11595
0.118264
0.120479
0.122583
0.12457
0.12643
0.128157
0.129743
0.131183
0.132472
0.133608
0.134588
0.135411
0.136078
0.136592
0.136954
0.13717
0.137244
0.137185
0.136999
0.136694
0.13628
0.135765
0.135159
0.134471
0.133711
0.132886
0.132004
0.131072
0.1301
0.1291
0.127986
0.126681
0.00450742
0.00396957
0.00351801
0.00311984
0.00273779
0.00237368
0.00202961
0.0017049
0.00139885
0.00111092
0.000840592
0.000587309
0.00035051
0.000129624
-7.59192e-05
-0.000266684
-0.000443228
-0.000606091
-0.00075579
-0.000892816
-0.00101763
-0.00113064
-0.00123224
-0.00132275
-0.00140246
-0.00147163
-0.00153043
-0.00157902
-0.00161751
-0.00164594
-0.00166433
-0.00167265
-0.00167084
-0.0016588
-0.0016364
-0.00160345
-0.00155979
-0.00150517
-0.00143937
-0.00136212
-0.00127314
-0.00117212
-0.00105875
-0.000932702
-0.000793628
-0.000641171
-0.000474964
-0.000294627
-9.97691e-05
0.00011001
0.000335124
0.000575996
0.000833058
0.00110676
0.00139755
0.00170592
0.00203233
0.00237731
0.00274137
0.00312504
0.00352889
0.00395347
0.0043994
0.00486729
0.00535778
0.00587155
0.00640929
0.00697172
0.00755962
0.00817375
0.00881495
0.00948407
0.010182
0.0109097
0.011668
0.0124581
0.0132809
0.0141375
0.0150291
0.0159568
0.0169218
0.0179253
0.0189686
0.0200531
0.0211799
0.0223505
0.0235663
0.0248286
0.0261388
0.0274983
0.0289086
0.0303709
0.0318866
0.033457
0.0350833
0.0367666
0.0385081
0.0403087
0.0421691
0.0440901
0.046072
0.0481153
0.0502198
0.0523854
0.0546116
0.0568976
0.059242
0.0616435
0.0640999
0.0666089
0.0691676
0.0717725
0.0744198
0.0771051
0.0798233
0.0825689
0.0853357
0.088117
0.0909056
0.0936937
0.0964729
0.0992344
0.101969
0.104667
0.107318
0.109913
0.112441
0.114892
0.117255
0.11952
0.121678
0.123719
0.125634
0.127416
0.129057
0.130552
0.131894
0.13308
0.134108
0.134975
0.135682
0.13623
0.136622
0.136862
0.136955
0.136907
0.136726
0.136419
0.135996
0.135466
0.134837
0.134119
0.133322
0.132454
0.131523
0.130535
0.129504
0.12844
0.127253
0.125861
0.00483736
0.00425169
0.00376241
0.00333357
0.00292429
0.00253634
0.00217184
0.0018298
0.00150923
0.00120934
0.000929312
0.000668345
0.000425622
0.000200337
-8.29958e-06
-0.000201058
-0.000378681
-0.000541878
-0.000691318
-0.000827628
-0.000951383
-0.00106311
-0.00116327
-0.00125228
-0.00133049
-0.00139819
-0.00145563
-0.00150299
-0.00154039
-0.00156792
-0.00158559
-0.00159339
-0.00159127
-0.00157911
-0.0015568
-0.00152415
-0.00148098
-0.00142705
-0.00136213
-0.00128596
-0.00119823
-0.00109866
-0.00098693
-0.000862708
-0.000725654
-0.000575419
-0.000411644
-0.000233958
-4.19851e-05
0.000164661
0.000386376
0.000623561
0.000876628
0.001146
0.0014321
0.00173538
0.0020563
0.00239532
0.00275293
0.00312962
0.00352592
0.00394236
0.00437949
0.00483789
0.00531817