/*--------------------------------*- C++ -*----------------------------------*\
  =========                 |
  \\      /  F ield         | OpenFOAM: The Open Source CFD Toolbox
   \\    /   O peration     | Website:  https://openfoam.org
    \\  /    A nd           | Version:  7
     \\/     M anipulation  |
\*---------------------------------------------------------------------------*/
FoamFile
{
    version     2.0;
    format      ascii;
    class       surfaceScalarField;
    location    "0.475";
    object      phi;
}
// * * * * * * * * * * * * * * * * * * * * * * * * * * * * * * * * * * * * * //

dimensions      [0 3 -1 0 0 0 0];

internalField   nonuniform List<scalar> 
25360
(
5.05116e-11
-5.27013e-11
1.91829e-10
-1.41317e-10
3.58691e-10
-1.66861e-10
5.04049e-10
-1.4536e-10
5.99908e-10
-9.58483e-11
6.30326e-10
-3.04146e-11
5.87081e-10
4.32418e-11
4.66959e-10
1.20113e-10
2.69981e-10
1.96974e-10
-1.74983e-12
2.71736e-10
-3.44741e-10
3.42996e-10
-7.54791e-10
4.1005e-10
-1.22714e-09
4.72347e-10
-1.7568e-09
5.2965e-10
-2.3387e-09
5.819e-10
-2.96786e-09
6.29161e-10
-3.63944e-09
6.7159e-10
-4.34885e-09
7.09409e-10
-5.09174e-09
7.42886e-10
-5.86406e-09
7.72319e-10
-6.66208e-09
7.98022e-10
-7.4824e-09
8.20317e-10
-8.32192e-09
8.39527e-10
-9.1779e-09
8.55973e-10
-1.00479e-08
8.69964e-10
-1.09297e-08
8.818e-10
-1.18214e-08
8.91761e-10
-1.27215e-08
9.00114e-10
-1.36286e-08
9.07106e-10
-1.45416e-08
9.12968e-10
-1.54595e-08
9.17913e-10
-1.63817e-08
9.22134e-10
-1.73075e-08
9.25807e-10
-1.82366e-08
9.2909e-10
-1.91687e-08
9.32126e-10
-2.01037e-08
9.35043e-10
-2.10417e-08
9.37954e-10
-2.19826e-08
9.40959e-10
-2.29268e-08
9.44144e-10
-2.38744e-08
9.47586e-10
-2.48257e-08
9.51348e-10
-2.57812e-08
9.55488e-10
-2.67413e-08
9.60054e-10
-2.77063e-08
9.65087e-10
-2.8677e-08
9.70619e-10
-2.96536e-08
9.76677e-10
-3.06369e-08
9.83281e-10
-3.16274e-08
9.90447e-10
-3.26256e-08
9.98188e-10
-3.36321e-08
1.00651e-09
-3.46475e-08
1.01541e-09
-3.56724e-08
1.0249e-09
-3.67074e-08
1.03497e-09
-3.7753e-08
1.04561e-09
-3.88098e-08
1.0568e-09
-3.98783e-08
1.06854e-09
-4.09591e-08
1.0808e-09
-4.20527e-08
1.09356e-09
-4.31595e-08
1.10679e-09
-4.42799e-08
1.12047e-09
-4.54145e-08
1.13456e-09
-4.65635e-08
1.14901e-09
-4.77273e-08
1.16379e-09
-4.89061e-08
1.17885e-09
-5.01003e-08
1.19413e-09
-5.13098e-08
1.20957e-09
-5.2535e-08
1.22511e-09
-5.37756e-08
1.24067e-09
-5.50318e-08
1.25618e-09
-5.63034e-08
1.27156e-09
-5.75901e-08
1.2867e-09
-5.88916e-08
1.3015e-09
-6.02074e-08
1.31587e-09
-6.15371e-08
1.32969e-09
-6.288e-08
1.34283e-09
-6.42351e-08
1.35516e-09
-6.56017e-08
1.36654e-09
-6.69785e-08
1.37681e-09
-6.83643e-08
1.38583e-09
-6.97577e-08
1.39341e-09
-7.11571e-08
1.39939e-09
-7.25607e-08
1.40357e-09
-7.39664e-08
1.40575e-09
-7.53722e-08
1.40574e-09
-7.67755e-08
1.40332e-09
-7.81738e-08
1.39826e-09
-7.95641e-08
1.39033e-09
-8.09434e-08
1.3793e-09
-8.23083e-08
1.36493e-09
-8.36553e-08
1.34696e-09
-8.49804e-08
1.32513e-09
-8.62796e-08
1.2992e-09
-8.75485e-08
1.26891e-09
-8.87825e-08
1.23399e-09
-8.99767e-08
1.19419e-09
-9.1126e-08
1.14927e-09
-9.2225e-08
1.09897e-09
-9.3268e-08
1.04306e-09
-9.42493e-08
9.81313e-10
-9.51629e-08
9.13531e-10
-9.60024e-08
8.39524e-10
-9.67615e-08
7.59125e-10
-9.74337e-08
6.72199e-10
-9.80123e-08
5.78637e-10
-9.84907e-08
4.78369e-10
-9.88621e-08
3.71363e-10
-9.91197e-08
2.57632e-10
-9.9257e-08
1.37238e-10
-9.92673e-08
1.03027e-11
-9.91442e-08
-1.23012e-10
-9.88818e-08
-2.62453e-10
-9.84741e-08
-4.07721e-10
-9.79156e-08
-5.5844e-10
-9.72015e-08
-7.14155e-10
-9.63271e-08
-8.74338e-10
-9.52888e-08
-1.03838e-09
-9.40832e-08
-1.20558e-09
-9.2708e-08
-1.37517e-09
-9.11617e-08
-1.54629e-09
-8.94437e-08
-1.718e-09
-8.75545e-08
-1.88928e-09
-8.54954e-08
-2.05905e-09
-8.32693e-08
-2.22614e-09
-8.08799e-08
-2.38934e-09
-7.83325e-08
-2.54737e-09
-7.56336e-08
-2.69892e-09
-7.2791e-08
-2.84264e-09
-6.98138e-08
-2.97716e-09
-6.67127e-08
-3.10112e-09
-6.34995e-08
-3.21317e-09
-6.01875e-08
-3.31197e-09
-5.67913e-08
-3.39624e-09
-5.33265e-08
-3.46476e-09
-4.98101e-08
-3.5164e-09
-4.626e-08
-3.5501e-09
-4.26951e-08
-3.56494e-09
-3.91349e-08
-3.56012e-09
-3.56e-08
-3.53498e-09
-3.2111e-08
-3.489e-09
-2.86891e-08
-3.42185e-09
-2.53557e-08
-3.33336e-09
-2.21322e-08
-3.22352e-09
-1.90397e-08
-3.09252e-09
-1.6099e-08
-2.94072e-09
-1.33303e-08
-2.76865e-09
-1.07533e-08
-2.57706e-09
-8.38643e-09
-2.36684e-09
-6.24731e-09
-2.13912e-09
-4.35207e-09
-1.89525e-09
-2.7152e-09
-1.63687e-09
-1.34915e-09
-1.36605e-09
-2.63729e-10
-1.08542e-09
5.34891e-10
-7.9862e-10
1.04571e-09
-5.10819e-10
1.27564e-09
-2.29931e-10
1.24429e-09
3.13565e-11
9.9213e-10
2.52166e-10
5.94985e-10
3.97137e-10
1.91455e-10
4.03511e-10
1.91438e-10
1.40549e-10
-1.9324e-10
4.05894e-10
-4.06657e-10
6.86766e-10
-4.47746e-10
9.00937e-10
-3.59543e-10
9.89922e-10
-1.84822e-10
9.15476e-10
4.40396e-11
6.5493e-10
3.03787e-10
1.97009e-10
5.78029e-10
-4.61384e-10
8.55359e-10
-1.31757e-09
1.12792e-09
-2.36493e-09
1.39036e-09
-3.59404e-09
1.63917e-09
-4.99379e-09
1.8721e-09
-6.55202e-09
2.08788e-09
-8.25607e-09
2.28595e-09
-1.00932e-08
2.46626e-09
-1.20507e-08
2.62915e-09
-1.41166e-08
2.77525e-09
-1.62791e-08
2.90539e-09
-1.85273e-08
3.02055e-09
-2.08511e-08
3.12178e-09
-2.3241e-08
3.21022e-09
-2.56884e-08
3.28699e-09
-2.81857e-08
3.35325e-09
-3.07258e-08
3.41009e-09
-3.33026e-08
3.45862e-09
-3.59107e-08
3.49986e-09
-3.85454e-08
3.53482e-09
-4.12027e-08
3.56439e-09
-4.38792e-08
3.58947e-09
-4.65721e-08
3.61082e-09
-4.92792e-08
3.62921e-09
-5.19987e-08
3.64529e-09
-5.47293e-08
3.65969e-09
-5.74701e-08
3.67293e-09
-6.02206e-08
3.68553e-09
-6.29805e-08
3.69791e-09
-6.57501e-08
3.71048e-09
-6.85295e-08
3.72357e-09
-7.13194e-08
3.73748e-09
-7.41205e-08
3.75247e-09
-7.69338e-08
3.76877e-09
-7.97603e-08
3.78658e-09
-8.26013e-08
3.80604e-09
-8.54579e-08
3.8273e-09
-8.83317e-08
3.85047e-09
-9.12241e-08
3.87563e-09
-9.41365e-08
3.90285e-09
-9.70705e-08
3.93218e-09
-1.00028e-07
3.96364e-09
-1.03009e-07
3.99725e-09
-1.06018e-07
4.033e-09
-1.09053e-07
4.07088e-09
-1.12119e-07
4.11086e-09
-1.15215e-07
4.15287e-09
-1.18343e-07
4.19687e-09
-1.21505e-07
4.24278e-09
-1.24702e-07
4.29049e-09
-1.27935e-07
4.33991e-09
-1.31206e-07
4.39091e-09
-1.34514e-07
4.44334e-09
-1.37862e-07
4.49705e-09
-1.4125e-07
4.55187e-09
-1.44679e-07
4.60758e-09
-1.48149e-07
4.66398e-09
-1.5166e-07
4.72083e-09
-1.55213e-07
4.77787e-09
-1.58807e-07
4.8348e-09
-1.62442e-07
4.89131e-09
-1.66118e-07
4.94708e-09
-1.69833e-07
5.00173e-09
-1.73586e-07
5.05487e-09
-1.77376e-07
5.10608e-09
-1.81202e-07
5.15491e-09
-1.8506e-07
5.20087e-09
-1.88948e-07
5.24345e-09
-1.92864e-07
5.28209e-09
-1.96803e-07
5.31622e-09
-2.00762e-07
5.34521e-09
-2.04737e-07
5.36842e-09
-2.08723e-07
5.38517e-09
-2.12714e-07
5.39473e-09
-2.16705e-07
5.39636e-09
-2.20688e-07
5.38927e-09
-2.24658e-07
5.37265e-09
-2.28605e-07
5.34566e-09
-2.32522e-07
5.30743e-09
-2.364e-07
5.25707e-09
-2.40229e-07
5.19366e-09
-2.43998e-07
5.11628e-09
-2.47697e-07
5.02398e-09
-2.51314e-07
4.91581e-09
-2.54835e-07
4.79083e-09
-2.5825e-07
4.64809e-09
-2.61542e-07
4.48666e-09
-2.64698e-07
4.30563e-09
-2.67704e-07
4.10412e-09
-2.70542e-07
3.8813e-09
-2.73197e-07
3.63637e-09
-2.75652e-07
3.36863e-09
-2.7789e-07
3.07742e-09
-2.79893e-07
2.7622e-09
-2.81643e-07
2.42252e-09
-2.83123e-07
2.05805e-09
-2.84313e-07
1.66861e-09
-2.85196e-07
1.25415e-09
-2.85753e-07
8.14813e-10
-2.85967e-07
3.50915e-10
-2.85819e-07
-1.37021e-10
-2.85294e-07
-6.48254e-10
-2.84375e-07
-1.18181e-09
-2.83046e-07
-1.73645e-09
-2.81294e-07
-2.3107e-09
-2.79105e-07
-2.90279e-09
-2.76469e-07
-3.51067e-09
-2.73375e-07
-4.13199e-09
-2.69817e-07
-4.76412e-09
-2.65788e-07
-5.40411e-09
-2.61285e-07
-6.04874e-09
-2.56309e-07
-6.69449e-09
-2.5086e-07
-7.33755e-09
-2.44946e-07
-7.97387e-09
-2.38573e-07
-8.59913e-09
-2.31753e-07
-9.20884e-09
-2.24502e-07
-9.7983e-09
-2.16838e-07
-1.03627e-08
-2.08784e-07
-1.0897e-08
-2.00365e-07
-1.13962e-08
-1.91611e-07
-1.18555e-08
-1.82554e-07
-1.22697e-08
-1.73232e-07
-1.26341e-08
-1.63684e-07
-1.2944e-08
-1.53954e-07
-1.3195e-08
-1.44087e-07
-1.33829e-08
-1.34134e-07
-1.3504e-08
-1.24144e-07
-1.35548e-08
-1.14171e-07
-1.35325e-08
-1.04271e-07
-1.34348e-08
-9.45006e-08
-1.32598e-08
-8.49162e-08
-1.30063e-08
-7.55757e-08
-1.26738e-08
-6.65367e-08
-1.22625e-08
-5.78563e-08
-1.1773e-08
-4.95902e-08
-1.12068e-08
-4.17925e-08
-1.05664e-08
-3.45151e-08
-9.85447e-09
-2.78069e-08
-9.07498e-09
-2.17134e-08
-8.2326e-09
-1.62756e-08
-7.33306e-09
-1.1529e-08
-6.38348e-09
-7.50235e-09
-5.39272e-09
-4.21559e-09
-4.37219e-09
-1.67717e-09
-3.33703e-09
1.20112e-10
-2.3081e-09
1.20538e-09
-1.3152e-09
1.6387e-09
-4.01975e-10
1.52463e-09
3.66242e-10
1.02987e-09
8.91932e-10
4.01943e-10
1.03147e-09
5.93368e-10
1.67837e-10
-3.61079e-10
4.49932e-10
-6.88746e-10
7.08089e-10
-7.05889e-10
8.42665e-10
-4.94112e-10
7.80456e-10
-1.22621e-10
4.70953e-10
3.53534e-10
-1.1776e-10
8.92499e-10
-1.00303e-09
1.4633e-09
-2.19108e-09
2.04341e-09
-3.6798e-09
2.61665e-09
-5.46103e-09
3.17159e-09
-7.52226e-09
3.70039e-09
-9.84802e-09
4.19786e-09
-1.2421e-08
4.66086e-09
-1.52228e-08
5.08774e-09
-1.82346e-08
5.47804e-09
-2.14376e-08
5.83214e-09
-2.48134e-08
6.15111e-09
-2.83445e-08
6.43645e-09
-3.2014e-08
6.69006e-09
-3.58062e-08
6.91401e-09
-3.97066e-08
7.11057e-09
-4.37016e-08
7.28205e-09
-4.77792e-08
7.43081e-09
-5.19282e-08
7.55915e-09
-5.6139e-08
7.66936e-09
-6.04027e-08
7.7636e-09
-6.47119e-08
7.84398e-09
-6.90599e-08
7.91245e-09
-7.34413e-08
7.97086e-09
-7.78514e-08
8.02091e-09
-8.22864e-08
8.06421e-09
-8.67433e-08
8.10219e-09
-9.12198e-08
8.13618e-09
-9.57142e-08
8.16738e-09
-1.00226e-07
8.19686e-09
-1.04753e-07
8.2256e-09
-1.09297e-07
8.25445e-09
-1.13858e-07
8.28418e-09
-1.18436e-07
8.31544e-09
-1.23032e-07
8.34882e-09
-1.27648e-07
8.38483e-09
-1.32286e-07
8.42388e-09
-1.36946e-07
8.46636e-09
-1.41631e-07
8.51255e-09
-1.46343e-07
8.56271e-09
-1.51085e-07
8.61704e-09
-1.55858e-07
8.67569e-09
-1.60664e-07
8.73876e-09
-1.65507e-07
8.80633e-09
-1.70388e-07
8.87842e-09
-1.7531e-07
8.95502e-09
-1.80275e-07
9.03609e-09
-1.85286e-07
9.12157e-09
-1.90344e-07
9.21133e-09
-1.95453e-07
9.30523e-09
-2.00613e-07
9.40311e-09
-2.05827e-07
9.50474e-09
-2.11097e-07
9.60988e-09
-2.16425e-07
9.71826e-09
-2.21811e-07
9.82954e-09
-2.27257e-07
9.94338e-09
-2.32765e-07
1.00594e-08
-2.38334e-07
1.0177e-08
-2.43966e-07
1.02959e-08
-2.49661e-07
1.04155e-08
-2.55418e-07
1.05352e-08
-2.61238e-07
1.06543e-08
-2.67118e-07
1.07721e-08
-2.73059e-07
1.0888e-08
-2.79058e-07
1.1001e-08
-2.85114e-07
1.11104e-08
-2.91223e-07
1.12151e-08
-2.97382e-07
1.13142e-08
-3.03588e-07
1.14066e-08
-3.09836e-07
1.14912e-08
-3.1612e-07
1.15668e-08
-3.22436e-07
1.1632e-08
-3.28777e-07
1.16856e-08
-3.35134e-07
1.17262e-08
-3.41501e-07
1.17521e-08
-3.47869e-07
1.1762e-08
-3.54226e-07
1.1754e-08
-3.60564e-07
1.17267e-08
-3.66869e-07
1.16782e-08
-3.7313e-07
1.16066e-08
-3.79333e-07
1.15102e-08
-3.85463e-07
1.1387e-08
-3.91504e-07
1.12351e-08
-3.9744e-07
1.10525e-08
-4.03254e-07
1.08372e-08
-4.08925e-07
1.05872e-08
-4.14435e-07
1.03005e-08
-4.19762e-07
9.97507e-09
-4.24884e-07
9.60905e-09
-4.29779e-07
9.20053e-09
-4.34422e-07
8.74768e-09
-4.3879e-07
8.24879e-09
-4.42856e-07
7.70226e-09
-4.46594e-07
7.10665e-09
-4.49977e-07
6.46067e-09
-4.52978e-07
5.76327e-09
-4.55569e-07
5.01358e-09
-4.57722e-07
4.21105e-09
-4.59409e-07
3.35539e-09
-4.60602e-07
2.44666e-09
-4.61272e-07
1.48527e-09
-4.61393e-07
4.72051e-10
-4.60938e-07
-5.91754e-10
-4.59882e-07
-1.70442e-09
-4.582e-07
-2.86373e-09
-4.5587e-07
-4.06693e-09
-4.5287e-07
-5.31072e-09
-4.49181e-07
-6.59122e-09
-4.44788e-07
-7.90396e-09
-4.39676e-07
-9.24384e-09
-4.33835e-07
-1.06052e-08
-4.27258e-07
-1.19816e-08
-4.1994e-07
-1.33662e-08
-4.11883e-07
-1.47515e-08
-4.03091e-07
-1.61293e-08
-3.93574e-07
-1.74911e-08
-3.83346e-07
-1.88277e-08
-3.72425e-07
-2.01295e-08
-3.60837e-07
-2.13866e-08
-3.48611e-07
-2.25889e-08
-3.35782e-07
-2.37258e-08
-3.22391e-07
-2.4787e-08
-3.08485e-07
-2.57619e-08
-2.94114e-07
-2.66401e-08
-2.79337e-07
-2.74115e-08
-2.64214e-07
-2.80663e-08
-2.48814e-07
-2.85953e-08
-2.33207e-07
-2.89897e-08
-2.1747e-07
-2.92418e-08
-2.0168e-07
-2.93445e-08
-1.85921e-07
-2.92918e-08
-1.70276e-07
-2.90788e-08
-1.54834e-07
-2.87018e-08
-1.39682e-07
-2.81585e-08
-1.24908e-07
-2.74477e-08
-1.10601e-07
-2.65698e-08
-9.68473e-08
-2.55268e-08
-8.3732e-08
-2.43221e-08
-7.13376e-08
-2.29608e-08
-5.97425e-08
-2.14496e-08
-4.90203e-08
-1.97972e-08
-3.92384e-08
-1.80144e-08
-3.04571e-08
-1.61144e-08
-2.2727e-08
-1.41135e-08
-1.60879e-08
-1.20319e-08
-1.05647e-08
-9.89537e-09
-6.16438e-09
-7.73735e-09
-2.87013e-09
-5.60235e-09
-6.34202e-10
-3.55113e-09
6.32059e-10
-1.66825e-09
1.07104e-09
-7.27622e-11
8.93464e-10
1.06949e-09
3.95232e-10
1.52973e-09
9.88595e-10
1.47959e-10
-5.09049e-10
3.64609e-10
-9.05393e-10
4.99504e-10
-8.4077e-10
4.44846e-10
-4.39441e-10
1.21209e-10
2.01012e-10
-5.27384e-10
1.00211e-09
-1.5374e-09
1.9025e-09
-2.92947e-09
2.85538e-09
-4.71165e-09
3.82561e-09
-6.88222e-09
4.78722e-09
-9.43199e-09
5.72135e-09
-1.23463e-08
6.61468e-09
-1.56066e-08
7.45813e-09
-1.91916e-08
8.2459e-09
-2.30786e-08
8.97476e-09
-2.7244e-08
9.64347e-09
-3.16641e-08
1.02523e-08
-3.63155e-08
1.08025e-08
-4.11756e-08
1.12965e-08
-4.62226e-08
1.17371e-08
-5.14362e-08
1.21276e-08
-5.67973e-08
1.24716e-08
-6.22882e-08
1.2773e-08
-6.78928e-08
1.30354e-08
-7.35965e-08
1.32629e-08
-7.93862e-08
1.34591e-08
-8.52502e-08
1.36276e-08
-9.11783e-08
1.37721e-08
-9.71616e-08
1.38957e-08
-1.03192e-07
1.40017e-08
-1.09264e-07
1.40929e-08
-1.15372e-07
1.4172e-08
-1.21512e-07
1.42416e-08
-1.27679e-07
1.43039e-08
-1.33873e-07
1.43609e-08
-1.4009e-07
1.44145e-08
-1.46331e-07
1.44664e-08
-1.52595e-07
1.45181e-08
-1.58882e-07
1.45709e-08
-1.65192e-07
1.4626e-08
-1.71528e-07
1.46843e-08
-1.7789e-07
1.47469e-08
-1.8428e-07
1.48144e-08
-1.90701e-07
1.48875e-08
-1.97155e-07
1.49667e-08
-2.03645e-07
1.50524e-08
-2.10173e-07
1.51451e-08
-2.16742e-07
1.5245e-08
-2.23356e-07
1.53522e-08
-2.30016e-07
1.54669e-08
-2.36727e-07
1.55892e-08
-2.43491e-07
1.5719e-08
-2.50311e-07
1.58563e-08
-2.57191e-07
1.60009e-08
-2.64132e-07
1.61527e-08
-2.71138e-07
1.63113e-08
-2.78212e-07
1.64765e-08
-2.85355e-07
1.66479e-08
-2.9257e-07
1.6825e-08
-2.99859e-07
1.70073e-08
-3.07224e-07
1.71943e-08
-3.14666e-07
1.73854e-08
-3.22186e-07
1.75797e-08
-3.29786e-07
1.77766e-08
-3.37465e-07
1.79751e-08
-3.45223e-07
1.81742e-08
-3.53061e-07
1.83731e-08
-3.60978e-07
1.85705e-08
-3.68971e-07
1.87651e-08
-3.77038e-07
1.89557e-08
-3.85178e-07
1.91409e-08
-3.93387e-07
1.93191e-08
-4.01661e-07
1.94887e-08
-4.09994e-07
1.96479e-08
-4.18383e-07
1.97949e-08
-4.26819e-07
1.99277e-08
-4.35296e-07
2.00442e-08
-4.43807e-07
2.01421e-08
-4.5234e-07
2.02193e-08
-4.60887e-07
2.02731e-08
-4.69436e-07
2.03011e-08
-4.77975e-07
2.03006e-08
-4.86489e-07
2.02688e-08
-4.94965e-07
2.02027e-08
-5.03387e-07
2.00994e-08
-5.11736e-07
1.99559e-08
-5.19995e-07
1.97689e-08
-5.28143e-07
1.95352e-08
-5.36159e-07
1.92515e-08
-5.44021e-07
1.89145e-08
-5.51705e-07
1.85208e-08
-5.59185e-07
1.80671e-08
-5.66434e-07
1.75501e-08
-5.73426e-07
1.69664e-08
-5.80129e-07
1.63128e-08
-5.86515e-07
1.55862e-08
-5.92551e-07
1.47837e-08
-5.98205e-07
1.39024e-08
-6.03442e-07
1.29398e-08
-6.08229e-07
1.18935e-08
-6.1253e-07
1.07616e-08
-6.16309e-07
9.54237e-09
-6.1953e-07
8.23459e-09
-6.22156e-07
6.83746e-09
-6.24152e-07
5.3507e-09
-6.2548e-07
3.7746e-09
-6.26105e-07
2.11008e-09
-6.25991e-07
3.58725e-10
-6.25106e-07
-1.47714e-09
-6.23416e-07
-3.3944e-09
-6.2089e-07
-5.38909e-09
-6.17501e-07
-7.45639e-09
-6.13221e-07
-9.59052e-09
-6.08028e-07
-1.17848e-08
-6.019e-07
-1.40314e-08
-5.94823e-07
-1.63216e-08
-5.86782e-07
-1.86458e-08
-5.7777e-07
-2.09931e-08
-5.67785e-07
-2.33517e-08
-5.56827e-07
-2.57089e-08
-5.44906e-07
-2.80511e-08
-5.32033e-07
-3.03636e-08
-5.1823e-07
-3.26311e-08
-5.03522e-07
-3.48376e-08
-4.87942e-07
-3.69665e-08
-4.7153e-07
-3.90005e-08
-4.54333e-07
-4.09224e-08
-4.36406e-07
-4.27146e-08
-4.17808e-07
-4.43596e-08
-3.98608e-07
-4.584e-08
-3.78881e-07
-4.71389e-08
-3.58707e-07
-4.82402e-08
-3.38174e-07
-4.91283e-08
-3.17375e-07
-4.9789e-08
-2.96408e-07
-5.0209e-08
-2.75375e-07
-5.03768e-08
-2.54385e-07
-5.02825e-08
-2.33546e-07
-4.99178e-08
-2.12971e-07
-4.92769e-08
-1.92773e-07
-4.83557e-08
-1.73068e-07
-4.71528e-08
-1.53969e-07
-4.56689e-08
-1.35588e-07
-4.39077e-08
-1.18035e-07
-4.18753e-08
-1.01415e-07
-3.95807e-08
-8.58288e-08
-3.70359e-08
-7.13697e-08
-3.42563e-08
-5.81231e-08
-3.12611e-08
-4.61639e-08
-2.80736e-08
-3.55546e-08
-2.47228e-08
-2.63424e-08
-2.1244e-08
-1.85558e-08
-1.76819e-08
-1.22002e-08
-1.4093e-08
-7.25193e-09
-1.05506e-08
-3.65169e-09
-7.15136e-09
-1.29543e-09
-4.0245e-09
-2.38509e-11
-1.34435e-09
3.90217e-10
6.55405e-10
2.55313e-10
1.66464e-09
1.24391e-09
9.93706e-11
-6.08415e-10
1.89864e-10
-9.95889e-10
1.24284e-10
-7.75194e-10
-2.0493e-10
-1.10229e-10
-8.77401e-10
8.73484e-10
-1.94976e-09
2.07447e-09
-3.45934e-09
3.41208e-09
-5.42748e-09
4.82352e-09
-7.86251e-09
6.26063e-09
-1.07623e-08
7.68698e-09
-1.41164e-08
9.07553e-09
-1.79085e-08
1.04067e-08
-2.21174e-08
1.1667e-08
-2.67188e-08
1.28473e-08
-3.16865e-08
1.39424e-08
-3.6993e-08
1.495e-08
-4.26107e-08
1.58699e-08
-4.8512e-08
1.67038e-08
-5.46701e-08
1.74546e-08
-6.10593e-08
1.81263e-08
-6.76551e-08
1.87234e-08
-7.44346e-08
1.92511e-08
-8.13765e-08
1.97149e-08
-8.84612e-08
2.01202e-08
-9.5671e-08
2.04726e-08
-1.0299e-07
2.07778e-08
-1.10403e-07
2.10409e-08
-1.17898e-07
2.12673e-08
-1.25464e-07
2.14619e-08
-1.33092e-07
2.16292e-08
-1.40773e-07
2.17736e-08
-1.485e-07
2.18992e-08
-1.56268e-07
2.20098e-08
-1.64073e-07
2.21087e-08
-1.71911e-07
2.21991e-08
-1.7978e-07
2.22837e-08
-1.87679e-07
2.23652e-08
-1.95607e-07
2.24458e-08
-2.03564e-07
2.25276e-08
-2.1155e-07
2.26123e-08
-2.19567e-07
2.27015e-08
-2.27617e-07
2.27966e-08
-2.35701e-07
2.28987e-08
-2.43822e-07
2.30088e-08
-2.51983e-07
2.31278e-08
-2.60187e-07
2.32563e-08
-2.68437e-07
2.3395e-08
-2.76736e-07
2.35442e-08
-2.85088e-07
2.37042e-08
-2.93497e-07
2.38752e-08
-3.01965e-07
2.40573e-08
-3.10496e-07
2.42505e-08
-3.19095e-07
2.44547e-08
-3.27763e-07
2.46696e-08
-3.36506e-07
2.48949e-08
-3.45325e-07
2.51303e-08
-3.54223e-07
2.53752e-08
-3.63204e-07
2.5629e-08
-3.72271e-07
2.58911e-08
-3.81424e-07
2.61606e-08
-3.90666e-07
2.64367e-08
-3.99999e-07
2.67184e-08
-4.09424e-07
2.70045e-08
-4.18941e-07
2.72938e-08
-4.28551e-07
2.75849e-08
-4.38253e-07
2.78765e-08
-4.48047e-07
2.81667e-08
-4.57931e-07
2.8454e-08
-4.67902e-07
2.87364e-08
-4.77958e-07
2.90118e-08
-4.88095e-07
2.92781e-08
-4.98309e-07
2.95329e-08
-5.08594e-07
2.97737e-08
-5.18944e-07
2.99978e-08
-5.29351e-07
3.02024e-08
-5.39808e-07
3.03845e-08
-5.50305e-07
3.05408e-08
-5.60831e-07
3.0668e-08
-5.71374e-07
3.07625e-08
-5.81922e-07
3.08207e-08
-5.92459e-07
3.08387e-08
-6.02971e-07
3.08123e-08
-6.1344e-07
3.07375e-08
-6.23847e-07
3.06098e-08
-6.34172e-07
3.04248e-08
-6.44394e-07
3.01778e-08
-6.54489e-07
2.98642e-08
-6.64433e-07
2.9479e-08
-6.74199e-07
2.90175e-08
-6.83759e-07
2.84746e-08
-6.93084e-07
2.78454e-08
-7.02142e-07
2.7125e-08
-7.109e-07
2.63085e-08
-7.19325e-07
2.53909e-08
-7.2738e-07
2.43677e-08
-7.35028e-07
2.32344e-08
-7.42231e-07
2.19866e-08
-7.48949e-07
2.06204e-08
-7.55141e-07
1.9132e-08
-7.60766e-07
1.75183e-08
-7.65781e-07
1.57764e-08
-7.70142e-07
1.39041e-08
-7.73808e-07
1.18999e-08
-7.76733e-07
9.76265e-09
-7.78875e-07
7.49235e-09
-7.8019e-07
5.08966e-09
-7.80636e-07
2.55623e-09
-7.80172e-07
-1.05298e-10
-7.78758e-07
-2.89119e-09
-7.76356e-07
-5.79652e-09
-7.7293e-07
-8.81514e-09
-7.68446e-07
-1.19396e-08
-7.62876e-07
-1.51611e-08
-7.56191e-07
-1.84693e-08
-7.4837e-07
-2.18527e-08
-7.39393e-07
-2.5298e-08
-7.29249e-07
-2.87906e-08
-7.17927e-07
-3.23144e-08
-7.05427e-07
-3.58517e-08
-6.91753e-07
-3.93836e-08
-6.76914e-07
-4.28898e-08
-6.60929e-07
-4.63487e-08
-6.43823e-07
-4.97375e-08
-6.25628e-07
-5.30325e-08
-6.06385e-07
-5.62091e-08
-5.86143e-07
-5.92421e-08
-5.6496e-07
-6.21059e-08
-5.429e-07
-6.47747e-08
-5.20037e-07
-6.72225e-08
-4.96453e-07
-6.9424e-08
-4.72238e-07
-7.13544e-08
-4.47488e-07
-7.29898e-08
-4.22309e-07
-7.43074e-08
-3.96811e-07
-7.52863e-08
-3.71113e-07
-7.59072e-08
-3.45337e-07
-7.61531e-08
-3.1961e-07
-7.60093e-08
-2.94064e-07
-7.54641e-08
-2.68832e-07
-7.45086e-08
-2.4405e-07
-7.31374e-08
-2.19855e-07
-7.13482e-08
-1.96381e-07
-6.91428e-08
-1.73762e-07
-6.65267e-08
-1.52128e-07
-6.35093e-08
-1.31604e-07
-6.01048e-08
-1.12308e-07
-5.63317e-08
-9.43508e-08
-5.22138e-08
-7.78314e-08
-4.77805e-08
-6.28373e-08
-4.30677e-08
-4.94405e-08
-3.81196e-08
-3.76946e-08
-3.29899e-08
-2.76315e-08
-2.7745e-08
-1.92568e-08
-2.24677e-08
-1.25445e-08
-1.72629e-08
-7.43093e-09
-1.22649e-08
-3.80786e-09
-7.64756e-09
-1.51409e-09
-3.63812e-09
-3.27066e-10
-5.31625e-10
4.79449e-11
1.28962e-09
1.29185e-09
3.33185e-11
-6.41721e-10
-4.49162e-11
-9.1765e-10
-3.68586e-10
-4.51536e-10
-1.03817e-09
5.59348e-10
-2.12863e-09
1.96394e-09
-3.69344e-09
3.63929e-09
-5.76782e-09
5.48646e-09
-8.37155e-09
7.42725e-09
-1.15116e-08
9.40066e-09
-1.51843e-08
1.13597e-08
-1.93778e-08
1.3269e-08
-2.40736e-08
1.51025e-08
-2.92482e-08
1.68416e-08
-3.48747e-08
1.84738e-08
-4.09239e-08
1.99916e-08
-4.73652e-08
2.13913e-08
-5.41675e-08
2.26722e-08
-6.12999e-08
2.38362e-08
-6.87319e-08
2.48867e-08
-7.64345e-08
2.58288e-08
-8.43798e-08
2.66686e-08
-9.25414e-08
2.74128e-08
-1.00895e-07
2.80685e-08
-1.09418e-07
2.86433e-08
-1.1809e-07
2.91446e-08
-1.26892e-07
2.95798e-08
-1.35808e-07
2.99564e-08
-1.44822e-07
3.02813e-08
-1.53921e-07
3.05613e-08
-1.63095e-07
3.08027e-08
-1.72333e-07
3.10117e-08
-1.81627e-07
3.11937e-08
-1.90971e-07
3.13539e-08
-2.0036e-07
3.14972e-08
-2.09789e-07
3.16278e-08
-2.19255e-07
3.17497e-08
-2.28756e-07
3.18665e-08
-2.38291e-07
3.19814e-08
-2.47861e-07
3.20971e-08
-2.57465e-07
3.22163e-08
-2.67105e-07
3.23412e-08
-2.76782e-07
3.24736e-08
-2.86498e-07
3.26153e-08
-2.96257e-07
3.27677e-08
-3.06061e-07
3.29319e-08
-3.15914e-07
3.31089e-08
-3.25819e-07
3.32996e-08
-3.35779e-07
3.35045e-08
-3.45799e-07
3.3724e-08
-3.55882e-07
3.39584e-08
-3.66032e-07
3.42079e-08
-3.76254e-07
3.44723e-08
-3.86551e-07
3.47516e-08
-3.96927e-07
3.50454e-08
-4.07385e-07
3.53533e-08
-4.1793e-07
3.56747e-08
-4.28563e-07
3.60088e-08
-4.39289e-07
3.63548e-08
-4.5011e-07
3.67117e-08
-4.61028e-07
3.70784e-08
-4.72044e-07
3.74536e-08
-4.83162e-07
3.78358e-08
-4.94381e-07
3.82234e-08
-5.05702e-07
3.86147e-08
-5.17124e-07
3.90077e-08
-5.28648e-07
3.94002e-08
-5.40271e-07
3.97901e-08
-5.51992e-07
4.01747e-08
-5.63807e-07
4.05514e-08
-5.75713e-07
4.09173e-08
-5.87704e-07
4.12693e-08
-5.99775e-07
4.1604e-08
-6.11919e-07
4.19179e-08
-6.24129e-07
4.22072e-08
-6.36394e-07
4.24679e-08
-6.48705e-07
4.26957e-08
-6.61051e-07
4.28861e-08
-6.73417e-07
4.30345e-08
-6.8579e-07
4.31359e-08
-6.98155e-07
4.31851e-08
-7.10493e-07
4.31766e-08
-7.22785e-07
4.31049e-08
-7.35012e-07
4.29642e-08
-7.4715e-07
4.27483e-08
-7.59177e-07
4.24511e-08
-7.71065e-07
4.20663e-08
-7.82788e-07
4.15872e-08
-7.94317e-07
4.10074e-08
-8.05619e-07
4.032e-08
-8.16663e-07
3.95184e-08
-8.27413e-07
3.85957e-08
-8.37833e-07
3.75453e-08
-8.47885e-07
3.63606e-08
-8.57529e-07
3.50349e-08
-8.66724e-07
3.35621e-08
-8.75426e-07
3.19361e-08
-8.8359e-07
3.01512e-08
-8.91172e-07
2.82021e-08
-8.98124e-07
2.60841e-08
-9.04398e-07
2.37928e-08
-9.09947e-07
2.13248e-08
-9.1472e-07
1.86773e-08
-9.18668e-07
1.58483e-08
-9.21743e-07
1.2837e-08
-9.23894e-07
9.64341e-09
-9.25073e-07
6.2689e-09
-9.25233e-07
2.71603e-09
-9.24327e-07
-1.01118e-09
-9.22311e-07
-4.90727e-09
-9.19142e-07
-8.96514e-09
-9.14781e-07
-1.3176e-08
-9.09192e-07
-1.75294e-08
-9.0234e-07
-2.20128e-08
-8.94197e-07
-2.6612e-08
-8.84739e-07
-3.13108e-08
-8.73946e-07
-3.60908e-08
-8.61805e-07
-4.09318e-08
-8.48308e-07
-4.58115e-08
-8.33454e-07
-5.07059e-08
-8.17249e-07
-5.55888e-08
-7.99706e-07
-6.04324e-08
-7.80848e-07
-6.52071e-08
-7.60703e-07
-6.98818e-08
-7.39311e-07
-7.44243e-08
-7.1672e-07
-7.88009e-08
-6.92984e-07
-8.29774e-08
-6.68171e-07
-8.69189e-08
-6.42356e-07
-9.05902e-08
-6.15622e-07
-9.39562e-08
-5.88064e-07
-9.69824e-08
-5.59783e-07
-9.96351e-08
-5.30891e-07
-1.01882e-07
-5.01507e-07
-1.03692e-07
-4.71757e-07
-1.05036e-07
-4.41775e-07
-1.05889e-07
-4.11701e-07
-1.06228e-07
-3.81678e-07
-1.06032e-07
-3.51857e-07
-1.05285e-07
-3.22389e-07
-1.03977e-07
-2.93429e-07
-1.02098e-07
-2.65129e-07
-9.96475e-08
-2.37645e-07
-9.66271e-08
-2.11127e-07
-9.30447e-08
-1.85722e-07
-8.89141e-08
-1.61572e-07
-8.42549e-08
-1.3881e-07
-7.90935e-08
-1.17561e-07
-7.34632e-08
-9.79362e-08
-6.74054e-08
-8.00334e-08
-6.09705e-08
-6.39335e-08
-5.42196e-08
-4.96964e-08
-4.72269e-08
-3.73589e-08
-4.00826e-08
-2.69292e-08
-3.28974e-08
-1.83838e-08
-2.58084e-08
-1.16616e-08
-1.89872e-08
-6.65904e-09
-1.26501e-08
-3.22508e-09
-7.07208e-09
-1.15585e-09
-2.60086e-09
-1.89774e-10
3.23538e-10
1.10208e-09
-4.32957e-11
-5.98427e-10
-3.19259e-10
-6.41684e-10
-9.42914e-10
1.72112e-10
-2.00276e-09
1.61918e-09
-3.56526e-09
3.52644e-09
-5.6777e-09
5.75173e-09
-8.37064e-09
8.1794e-09
-1.16603e-08
1.07169e-08
-1.55507e-08
1.32911e-08
-2.00359e-08
1.58449e-08
-2.51013e-08
1.83345e-08
-3.07263e-08
2.07275e-08
-3.68849e-08
2.30002e-08
-4.35476e-08
2.51366e-08
-5.06825e-08
2.71266e-08
-5.82563e-08
2.89651e-08
-6.62349e-08
3.06508e-08
-7.45843e-08
3.21856e-08
-8.32713e-08
3.35737e-08
-9.22636e-08
3.48212e-08
-1.01531e-07
3.59356e-08
-1.11043e-07
3.69253e-08
-1.20774e-07
3.77994e-08
-1.30698e-07
3.85673e-08
-1.40792e-07
3.92386e-08
-1.51035e-07
3.9823e-08
-1.61409e-07
4.03298e-08
-1.71895e-07
4.0768e-08
-1.82481e-07
4.11466e-08
-1.93151e-07
4.14737e-08
-2.03897e-07
4.17571e-08
-2.14707e-07
4.20043e-08
-2.25575e-07
4.22219e-08
-2.36494e-07
4.24162e-08
-2.4746e-07
4.2593e-08
-2.58467e-07
4.27574e-08
-2.69515e-07
4.29141e-08
-2.80601e-07
4.30675e-08
-2.91725e-07
4.32212e-08
-3.02887e-07
4.33787e-08
-3.14089e-07
4.35429e-08
-3.25332e-07
4.37163e-08
-3.36618e-07
4.39012e-08
-3.47949e-07
4.40995e-08
-3.5933e-07
4.43127e-08
-3.70764e-07
4.45423e-08
-3.82253e-07
4.47892e-08
-3.93803e-07
4.50543e-08
-4.05417e-07
4.53381e-08
-4.171e-07
4.56411e-08
-4.28855e-07
4.59632e-08
-4.40687e-07
4.63046e-08
-4.52601e-07
4.66649e-08
-4.64599e-07
4.70437e-08
-4.76686e-07
4.74405e-08
-4.88866e-07
4.78544e-08
-5.01142e-07
4.82844e-08
-5.13516e-07
4.87293e-08
-5.25992e-07
4.91879e-08
-5.38572e-07
4.96586e-08
-5.51258e-07
5.01395e-08
-5.64051e-07
5.06288e-08
-5.76952e-07
5.11242e-08
-5.89961e-07
5.16234e-08
-6.03077e-07
5.21237e-08
-6.16299e-07
5.26223e-08
-6.29625e-07
5.3116e-08
-6.43052e-07
5.36016e-08
-6.56575e-07
5.40753e-08
-6.70191e-07
5.45333e-08
-6.83894e-07
5.49714e-08
-6.97675e-07
5.53852e-08
-7.11527e-07
5.57699e-08
-7.2544e-07
5.61205e-08
-7.39404e-07
5.64316e-08
-7.53406e-07
5.66975e-08
-7.67432e-07
5.69125e-08
-7.81468e-07
5.70701e-08
-7.95495e-07
5.71638e-08
-8.09497e-07
5.71869e-08
-8.23453e-07
5.71322e-08
-8.3734e-07
5.69923e-08
-8.51136e-07
5.67596e-08
-8.64814e-07
5.64261e-08
-8.78346e-07
5.59838e-08
-8.91704e-07
5.54243e-08
-9.04856e-07
5.47393e-08
-9.17769e-07
5.392e-08
-9.30407e-07
5.29579e-08
-9.42733e-07
5.18443e-08
-9.54707e-07
5.05703e-08
-9.6629e-07
4.91275e-08
-9.77436e-07
4.75073e-08
-9.88103e-07
4.57014e-08
-9.98243e-07
4.37019e-08
-1.00781e-06
4.15011e-08
-1.01675e-06
3.90918e-08
-1.02501e-06
3.64676e-08
-1.03255e-06
3.36223e-08
-1.03931e-06
3.0551e-08
-1.04523e-06
2.72492e-08
-1.05027e-06
2.37139e-08
-1.05437e-06
1.99428e-08
-1.05746e-06
1.59351e-08
-1.05951e-06
1.16914e-08
-1.06046e-06
7.21387e-09
-1.06025e-06
2.50622e-09
-1.05883e-06
-2.42593e-09
-1.05616e-06
-7.57506e-09
-1.0522e-06
-1.29316e-08
-1.04689e-06
-1.84837e-08
-1.0402e-06
-2.42175e-08
-1.0321e-06
-3.01164e-08
-1.02255e-06
-3.61617e-08
-1.01153e-06
-4.2332e-08
-9.99015e-07
-4.86034e-08
-9.84997e-07
-5.49495e-08
-9.69467e-07
-6.13413e-08
-9.52426e-07
-6.77475e-08
-9.3388e-07
-7.41341e-08
-9.13848e-07
-8.04652e-08
-8.92352e-07
-8.67024e-08
-8.69428e-07
-9.28057e-08
-8.45119e-07
-9.87333e-08
-8.19478e-07
-1.04442e-07
-7.92568e-07
-1.09888e-07
-7.64462e-07
-1.15025e-07
-7.35243e-07
-1.19809e-07
-7.05005e-07
-1.24195e-07
-6.7385e-07
-1.28137e-07
-6.41892e-07
-1.31593e-07
-6.09253e-07
-1.34521e-07
-5.76063e-07
-1.36881e-07
-5.42463e-07
-1.38636e-07
-5.08599e-07
-1.39753e-07
-4.74625e-07
-1.40202e-07
-4.40699e-07
-1.39957e-07
-4.06987e-07
-1.38998e-07
-3.73654e-07
-1.37309e-07
-3.4087e-07
-1.34882e-07
-3.08806e-07
-1.31712e-07
-2.77629e-07
-1.27804e-07
-2.47507e-07
-1.23167e-07
-2.18601e-07
-1.1782e-07
-1.91067e-07
-1.11789e-07
-1.65051e-07
-1.05109e-07
-1.40689e-07
-9.78244e-08
-1.18106e-07
-8.99886e-08
-9.74084e-08
-8.16682e-08
-7.86854e-08
-7.29427e-08
-6.20047e-08
-6.39076e-08
-4.74092e-08
-5.46781e-08
-3.49135e-08
-4.5393e-08
-2.45005e-08
-3.62214e-08
-1.61176e-08
-2.73701e-08
-9.67363e-09
-1.90941e-08
-5.03605e-09
-1.17097e-08
-2.02963e-09
-5.60729e-09
-4.36592e-10
-1.2695e-09
6.65483e-10
-1.26142e-10
-4.72292e-10
-6.1918e-10
-1.48646e-10
-1.57266e-09
1.1256e-09
-3.05995e-09
3.10647e-09
-5.13618e-09
5.60267e-09
-7.83998e-09
8.45553e-09
-1.11952e-08
1.15346e-08
-1.52128e-08
1.47345e-08
-1.98924e-08
1.79707e-08
-2.52243e-08
2.11768e-08
-3.11912e-08
2.43013e-08
-3.77691e-08
2.73054e-08
-4.49296e-08
3.01606e-08
-5.26404e-08
3.28474e-08
-6.08671e-08
3.53532e-08
-6.95735e-08
3.76715e-08
-7.87229e-08
3.98003e-08
-8.82789e-08
4.17416e-08
-9.82054e-08
4.35002e-08
-1.08468e-07
4.50835e-08
-1.19032e-07
4.65003e-08
-1.29868e-07
4.77608e-08
-1.40945e-07
4.88762e-08
-1.52235e-07
4.98579e-08
-1.63715e-07
5.07178e-08
-1.75359e-07
5.14678e-08
-1.87149e-07
5.21193e-08
-1.99065e-07
5.26838e-08
-2.1109e-07
5.31721e-08
-2.23211e-07
5.35946e-08
-2.35415e-07
5.3961e-08
-2.47691e-07
5.42806e-08
-2.60031e-07
5.45618e-08
-2.72428e-07
5.48126e-08
-2.84875e-07
5.50401e-08
-2.97368e-07
5.5251e-08
-3.09905e-07
5.54511e-08
-3.22484e-07
5.5646e-08
-3.35103e-07
5.58404e-08
-3.47763e-07
5.60385e-08
-3.60464e-07
5.62442e-08
-3.73209e-07
5.64608e-08
-3.85998e-07
5.6691e-08
-3.98836e-07
5.69374e-08
-4.11726e-07
5.72019e-08
-4.2467e-07
5.74863e-08
-4.37672e-07
5.7792e-08
-4.50738e-07
5.81199e-08
-4.6387e-07
5.84708e-08
-4.77075e-07
5.88451e-08
-4.90354e-07
5.92431e-08
-5.03715e-07
5.96647e-08