/*--------------------------------*- C++ -*----------------------------------*\
  =========                 |
  \\      /  F ield         | OpenFOAM: The Open Source CFD Toolbox
   \\    /   O peration     | Website:  https://openfoam.org
    \\  /    A nd           | Version:  7
     \\/     M anipulation  |
\*---------------------------------------------------------------------------*/
FoamFile
{
    version     2.0;
    format      ascii;
    class       volScalarField;
    location    "0.025";
    object      p;
}
// * * * * * * * * * * * * * * * * * * * * * * * * * * * * * * * * * * * * * //

dimensions      [0 2 -2 0 0 0 0];

internalField   nonuniform List<scalar> 
12800
(
-1.67586e-08
-4.41598e-05
-0.000189368
-0.000413754
-0.000684147
-0.000975196
-0.00126705
-0.00154434
-0.00179545
-0.00201177
-0.00218705
-0.00231691
-0.00239825
-0.00242909
-0.00240845
-0.0023361
-0.0022123
-0.00203746
-0.00181217
-0.0015372
-0.00121357
-0.000842384
-0.000424739
3.83932e-05
0.000546087
0.00109737
0.00169116
0.00232633
0.00300184
0.00371679
0.00447042
0.00526201
0.00609086
0.00695628
0.00785753
0.00879387
0.00976451
0.0107686
0.0118055
0.0128744
0.0139748
0.015106
0.0162674
0.0174582
0.0186778
0.0199256
0.021201
0.0225031
0.0238314
0.0251851
0.0265637
0.0279667
0.0293936
0.0308438
0.0323167
0.0338119
0.0353287
0.0368668
0.0384254
0.040004
0.041602
0.0432189
0.0448544
0.046508
0.0481791
0.0498672
0.0515717
0.0532923
0.0550282
0.056779
0.0585443
0.0603234
0.0621159
0.0639212
0.0657388
0.0675683
0.069409
0.0712608
0.0731232
0.0749959
0.0768784
0.0787704
0.0806714
0.0825809
0.0844985
0.0864235
0.0883557
0.0902943
0.0922389
0.094189
0.0961439
0.0981032
0.100066
0.102032
0.104
0.10597
0.107941
0.109912
0.111883
0.113853
0.115821
0.117787
0.11975
0.121708
0.12366
0.125607
0.127545
0.129475
0.131395
0.133304
0.135201
0.137084
0.138951
0.140802
0.142634
0.144446
0.146237
0.148004
0.149746
0.151462
0.153148
0.154803
0.156426
0.158013
0.159563
0.161073
0.162542
0.163967
0.165346
0.166676
0.167955
0.169181
0.17035
0.171462
0.172512
0.1735
0.174423
0.175279
0.176065
0.176779
0.177419
0.177984
0.178472
0.178883
0.179216
0.179469
0.179644
0.179741
0.179763
0.179712
0.179592
0.179409
0.179172
0.178891
0.178581
0.17826
0.177952
0.177688
0.177511
0.177449
4.00983e-05
-3.65247e-06
-0.00012474
-0.000305724
-0.000523114
-0.000758389
-0.00099591
-0.00122274
-0.00142851
-0.00160507
-0.00174623
-0.00184739
-0.00190523
-0.00191738
-0.00188229
-0.00179921
-0.00166791
-0.00148852
-0.00126126
-0.000986534
-0.000664903
-0.000297117
0.000115956
0.000573435
0.00107447
0.00161824
0.00220387
0.00283045
0.00349706
0.00420287
0.00494713
0.00572914
0.00654824
0.00740375
0.00829497
0.0092212
0.0101817
0.0111758
0.0122026
0.0132614
0.0143517
0.0154729
0.0166243
0.0178053
0.0190152
0.0202534
0.0215191
0.0228117
0.0241306
0.025475
0.0268443
0.0282382
0.029656
0.0310973
0.0325615
0.034048
0.0355564
0.0370859
0.0386362
0.0402066
0.0417966
0.0434057
0.0450334
0.0466792
0.0483428
0.0500234
0.0517206
0.0534339
0.0551627
0.0569065
0.0586647
0.0604369
0.0622224
0.0640208
0.0658315
0.0676541
0.069488
0.071333
0.0731885
0.0750542
0.0769299
0.0788149
0.0807089
0.0826114
0.0845219
0.0864398
0.0883646
0.0902959
0.092233
0.0941754
0.0961225
0.0980738
0.100028
0.101986
0.103945
0.105906
0.107868
0.10983
0.111791
0.113751
0.115709
0.117665
0.119616
0.121563
0.123505
0.125439
0.127366
0.129283
0.13119
0.133086
0.134969
0.136838
0.138691
0.140527
0.142345
0.144142
0.145917
0.147668
0.149394
0.151092
0.152762
0.1544
0.156005
0.157575
0.159107
0.1606
0.162051
0.163458
0.164819
0.166132
0.167394
0.168603
0.169757
0.170853
0.171889
0.172864
0.173774
0.174619
0.175396
0.176103
0.176738
0.177301
0.177791
0.178206
0.178547
0.178813
0.179005
0.179125
0.179175
0.179159
0.17908
0.178946
0.178764
0.178544
0.178299
0.178046
0.177804
0.177595
0.177449
0.177388
0.000179984
0.0001134
-7.11718e-06
-0.000169997
-0.000360069
-0.000563224
-0.000766975
-0.000960631
-0.00113528
-0.00128361
-0.00139976
-0.00147928
-0.00151888
-0.00151613
-0.00146927
-0.00137717
-0.0012393
-0.00105552
-0.000825906
-0.000550641
-0.000229997
0.000135572
0.000545442
0.000998858
0.00149502
0.00203315
0.00261253
0.0032324
0.00389198
0.00459053
0.00532732
0.00610169
0.006913
0.00776058
0.00864373
0.00956176
0.010514
0.0114998
0.0125184
0.0135691
0.0146512
0.0157642
0.0169076
0.0180806
0.0192826
0.0205129
0.0217708
0.0230557
0.0243669
0.0257037
0.0270656
0.0284521
0.0298626
0.0312967
0.0327539
0.0342334
0.0357349
0.0372576
0.038801
0.0403648
0.0419483
0.043551
0.0451724
0.046812
0.0484694
0.050144
0.0518352
0.0535426
0.0552656
0.0570037
0.0587562
0.0605226
0.0623025
0.0640953
0.0659004
0.0677174
0.0695458
0.0713852
0.0732352
0.0750954
0.0769654
0.0788448
0.0807332
0.0826301
0.0845348
0.0864469
0.0883659
0.0902913
0.0922223
0.0941585
0.0960993
0.098044
0.099992
0.101943
0.103895
0.105849
0.107803
0.109758
0.111711
0.113663
0.115613
0.11756
0.119503
0.121441
0.123374
0.125299
0.127216
0.129124
0.131021
0.132907
0.134779
0.136637
0.13848
0.140304
0.14211
0.143895
0.145658
0.147397
0.149111
0.150797
0.152453
0.154078
0.15567
0.157227
0.158746
0.160225
0.161663
0.163058
0.164406
0.165706
0.166955
0.168152
0.169294
0.170379
0.171405
0.17237
0.173272
0.174109
0.174879
0.175582
0.176215
0.176777
0.177269
0.177688
0.178036
0.178312
0.178518
0.178655
0.178727
0.178736
0.178687
0.178586
0.178441
0.178261
0.178058
0.177844
0.177635
0.177448
0.177303
0.17721
0.00040065
0.000291225
0.000152859
-1.01701e-05
-0.000191094
-0.000379018
-0.000563886
-0.000737045
-0.00089108
-0.00101973
-0.00111779
-0.0011811
-0.00120652
-0.00119178
-0.00113516
-0.00103543
-0.000891803
-0.000703932
-0.000471739
-0.000195331
0.000125102
0.000489295
0.000896828
0.00134714
0.00183956
0.00237337
0.00294786
0.00356239
0.00421628
0.00490886
0.00563949
0.00640752
0.00721232
0.00805327
0.00892966
0.00984082
0.0107861
0.0117648
0.0127764
0.0138202
0.0148955
0.0160017
0.0171383
0.0183046
0.0194999
0.0207237
0.021975
0.0232533
0.024558
0.0258885
0.0272442
0.0286245
0.030029
0.0314571
0.0329082
0.0343819
0.0358775
0.0373945
0.0389322
0.0404904
0.0420684
0.0436657
0.0452818
0.0469163
0.0485686
0.0502381
0.0519243
0.0536268
0.0553448
0.0570779
0.0588256
0.0605873
0.0623624
0.0641504
0.0659508
0.0677631
0.0695869
0.0714217
0.073267
0.0751226
0.0769879
0.0788626
0.0807463
0.0826384
0.0845383
0.0864457
0.0883598
0.0902802
0.0922062
0.0941372
0.0960726
0.0980119
0.0999542
0.101899
0.103846
0.105794
0.107742
0.10969
0.111637
0.113583
0.115526
0.117466
0.119402
0.121333
0.123258
0.125176
0.127086
0.128986
0.130875
0.132753
0.134617
0.136466
0.1383
0.140116
0.141913
0.143689
0.145443
0.147172
0.148876
0.150552
0.152199
0.153814
0.155396
0.156942
0.158452
0.159921
0.161349
0.162734
0.164072
0.165362
0.166603
0.167791
0.168924
0.170001
0.17102
0.171978
0.172874
0.173706
0.174473
0.175172
0.175804
0.176367
0.176861
0.177284
0.177638
0.177922
0.178139
0.17829
0.178378
0.178405
0.178377
0.1783
0.178179
0.178023
0.177842
0.177646
0.177448
0.177261
0.177093
0.176947
0.000669804
0.000506777
0.000340474
0.000167441
-1.40686e-05
-0.000195885
-0.000370055
-0.000529811
-0.000669165
-0.000782956
-0.000866808
-0.000917047
-0.000930758
-0.000905786
-0.000840564
-0.000733923
-0.000585024
-0.00039333
-0.000158601
0.000119178
0.000439847
0.000803191
0.00120891
0.00165658
0.00214571
0.00267571
0.00324594
0.00385578
0.00450465
0.00519194
0.00591704
0.00667934
0.0074782
0.00831305
0.00918323
0.0100881
0.011027
0.0119993
0.0130045
0.0140419
0.0151109
0.016211
0.0173414
0.0185015
0.0196908
0.0209084
0.0221538
0.0234262
0.024725
0.0260497
0.0273997
0.0287745
0.0301734
0.031596
0.0330417
0.03451
0.0360002
0.037512
0.0390446
0.0405976
0.0421706
0.0437631
0.0453744
0.0470042
0.0486518
0.0503167
0.0519984
0.0536962
0.0554098
0.0571384
0.0588817
0.0606389
0.0624096
0.0641933
0.0659894
0.0677975
0.069617
0.0714476
0.0732888
0.0751401
0.0770012
0.0788716
0.0807509
0.0826387
0.0845343
0.0864373
0.0883471
0.090263
0.0921844
0.0941107
0.0960413
0.0979756
0.0999129
0.101853
0.103794
0.105737
0.10768
0.109622
0.111564
0.113504
0.115441
0.117375
0.119304
0.121229
0.123148
0.125059
0.126962
0.128856
0.130738
0.132609
0.134466
0.136308
0.138134
0.139943
0.141732
0.143501
0.145247
0.146968
0.148664
0.150332
0.15197
0.153577
0.155151
0.15669
0.158191
0.159652
0.161073
0.162449
0.163779
0.165062
0.166295
0.167476
0.168603
0.169674
0.170687
0.17164
0.172532
0.17336
0.174124
0.174823
0.175454
0.176018
0.176514
0.176941
0.1773
0.177592
0.177818
0.17798
0.178081
0.178123
0.178111
0.17805
0.177946
0.177805
0.177636
0.177447
0.177249
0.177051
0.176849
0.176639
0.000961799
0.000741438
0.000541642
0.000352001
0.000162872
-1.97652e-05
-0.000189724
-0.000341982
-0.000471851
-0.000575158
-0.000648353
-0.000688419
-0.000692812
-0.000659514
-0.000587055
-0.000474382
-0.00032072
-0.000125512
0.000111585
0.000390706
0.000711792
0.00107465
0.00147903
0.0019246
0.00241095
0.00293763
0.00350412
0.00410989
0.00475437
0.00543701
0.00615725
0.00691447
0.00770804
0.0085374
0.00940195
0.0103011
0.0112343
0.0122009
0.0132003
0.014232
0.0152954
0.0163899
0.0175148
0.0186695
0.0198532
0.0210654
0.0223053
0.0235724
0.0248661
0.0261856
0.0275305
0.0289003
0.0302943
0.031712
0.0331528
0.0346162
0.0361017
0.0376087
0.0391367
0.0406853
0.0422538
0.0438419
0.045449
0.0470745
0.0487179
0.0503787
0.0520563
0.0537501
0.0554596
0.0571842
0.0589235
0.0606768
0.0624436
0.0642234
0.0660157
0.0678199
0.0696357
0.0714625
0.0732999
0.0751474
0.0770047
0.0788713
0.0807469
0.0826308
0.0845226
0.0864217
0.0883276
0.0902395
0.0921569
0.0940789
0.0960052
0.0979351
0.099868
0.101803
0.10374
0.105678
0.107616
0.109554
0.111491
0.113426
0.115358
0.117286
0.11921
0.12113
0.123043
0.124949
0.126846
0.128734
0.130611
0.132476
0.134327
0.136163
0.137983
0.139786
0.141569
0.143332
0.145071
0.146787
0.148476
0.150137
0.151769
0.15337
0.154937
0.15647
0.157965
0.15942
0.160834
0.162204
0.163529
0.164806
0.166034
0.16721
0.168332
0.169399
0.170408
0.171357
0.172246
0.173072
0.173835
0.174533
0.175165
0.17573
0.176228
0.176659
0.177023
0.177322
0.177556
0.177727
0.177837
0.17789
0.17789
0.17784
0.177745
0.177613
0.177448
0.177258
0.177051
0.176834
0.176593
0.176316
0.00125677
0.00097949
0.000743803
0.000533384
0.000331629
0.000142894
-2.79975e-05
-0.000177587
-0.000302428
-0.000399215
-0.000465108
-0.000497719
-0.000494992
-0.0004552
-0.000376974
-0.00025932
-0.000101554
9.6813e-05
0.000336127
0.000616545
0.000938094
0.00130066
0.00170404
0.00214796
0.00263207
0.00315599
0.00371933
0.00432162
0.00496235
0.00564099
0.006357
0.0071098
0.00789877
0.00872334
0.00958296
0.0104771
0.0114052
0.0123668
0.0133612
0.0143879
0.0154464
0.016536
0.0176561
0.0188059
0.0199849
0.0211923
0.0224275
0.02369
0.0249791
0.0262943
0.0276348
0.0290002
0.0303899
0.0318034
0.0332399
0.034699
0.0361803
0.0376832
0.0392072
0.0407518
0.0423165
0.0439009
0.0455042
0.0471261
0.0487658
0.0504229
0.052097
0.0537873
0.0554932
0.0572144
0.0589502
0.0607
0.0624634
0.0642397
0.0660287
0.0678296
0.069642
0.0714656
0.0732997
0.075144
0.076998
0.0788613
0.0807335
0.0826142
0.0845026
0.0863984
0.0883009
0.0902093
0.0921231
0.0940416
0.0959643
0.0978904
0.0998195
0.101751
0.103684
0.105618
0.107552
0.109486
0.111418
0.113349
0.115277
0.117201
0.119121
0.121036
0.122944
0.124846
0.126739
0.128622
0.130494
0.132355
0.134201
0.136033
0.137849
0.139647
0.141425
0.143183
0.144918
0.146628
0.148313
0.14997
0.151597
0.153193
0.154756
0.156284
0.157774
0.159226
0.160635
0.162001
0.163322
0.164596
0.16582
0.166993
0.168112
0.169176
0.170183
0.171131
0.172018
0.172844
0.173606
0.174304
0.174937
0.175504
0.176005
0.17644
0.176808
0.177112
0.177352
0.17753
0.177647
0.177708
0.177714
0.177671
0.177581
0.177451
0.177285
0.177087
0.176865
0.176624
0.176343
0.176
0.00153922
0.00120777
0.000935998
0.00070269
0.000485222
0.000286745
0.000111102
-3.94965e-05
-0.000162767
-0.000256269
-0.000317761
-0.000345361
-0.000337483
-0.000292773
-0.000210081
-8.84938e-05
7.26217e-05
0.000273684
0.000514978
0.000796652
0.00111872
0.00148113
0.00188374
0.00232635
0.00280866
0.00333036
0.00389111
0.00449052
0.00512812
0.00580339
0.0065158
0.00726479
0.0080498
0.00887027
0.00972566
0.0106155
0.0115393
0.0124965
0.0134867
0.0145093
0.0155635
0.0166489
0.0177648
0.0189105
0.0200854
0.0212887
0.02252
0.0237786
0.0250639
0.0263753
0.0277122
0.0290739
0.0304599
0.0318696
0.0333025
0.034758
0.0362357
0.0377351
0.0392557
0.0407971
0.0423585
0.0439397
0.0455398
0.0471586
0.0487952
0.0504493
0.0521202
0.0538075
0.0555105
0.0572287
0.0589615
0.0607083
0.0624687
0.0642422
0.0660282
0.0678262
0.0696358
0.0714565
0.0732879
0.0751294
0.0769806
0.0788411
0.0807105
0.0825883
0.0844739
0.0863668
0.0882664
0.0901719
0.0920828
0.0939983
0.0959179
0.097841
0.099767
0.101695
0.103625
0.105556
0.107487
0.109417
0.111346
0.113273
0.115198
0.117118
0.119035
0.120946
0.122852
0.12475
0.126639
0.128519
0.130388
0.132245
0.134088
0.135917
0.137729
0.139524
0.141299
0.143053
0.144785
0.146493
0.148174
0.149828
0.151453
0.153046
0.154606
0.156131
0.157619
0.159067
0.160475
0.161839
0.163158
0.16443
0.165652
0.166824
0.167942
0.169005
0.170011
0.170959
0.171846
0.172672
0.173435
0.174134
0.174769
0.175338
0.175842
0.17628
0.176653
0.176961
0.177206
0.177388
0.177511
0.177576
0.177586
0.177545
0.177456
0.177324
0.177151
0.176942
0.176701
0.176434
0.176112
0.17571
0.00179723
0.00141556
0.00110888
0.000852007
0.000617218
0.000406698
0.000223588
6.91864e-05
-5.51666e-05
-0.000147878
-0.000207313
-0.000232017
-0.000220781
-0.000172579
-8.65352e-05
3.80811e-05
0.000201828
0.000405069
0.000648021
0.000930814
0.00125344
0.00161584
0.00201792
0.00245952
0.00294043
0.00346038
0.00401906
0.00461614
0.00525119
0.0059237
0.00663314
0.00737895
0.00816063
0.00897766
0.00982955
0.0107159
0.0116361
0.0125898
0.0135765
0.0145955
0.0156463
0.0167283
0.0178406
0.0189829
0.0201543
0.0213544
0.0225824
0.0238378
0.02512
0.0264283
0.0277622
0.0291209
0.0305038
0.0319105
0.0333403
0.0347929
0.0362677
0.0377643
0.0392822
0.0408208
0.0423797
0.0439581
0.0455557
0.0471718
0.0488059
0.0504574
0.0521259
0.0538107
0.0555112
0.0572269
0.0589573
0.0607016
0.0624595
0.0642305
0.066014
0.0678096
0.0696169
0.0714352
0.0732643
0.0751034
0.0769523
0.0788106
0.0806777
0.0825531
0.0844363
0.0863269
0.088224
0.0901272
0.0920357
0.0939488
0.0958661
0.0977868
0.0997104
0.101636
0.103563
0.105492
0.10742
0.109348
0.111274
0.113199
0.115121
0.117039
0.118953
0.120862
0.122765
0.12466
0.126548
0.128425
0.130292
0.132147
0.133988
0.135815
0.137625
0.139417
0.141191
0.142943
0.144673
0.146379
0.148059
0.149712
0.151335
0.152927
0.154486
0.15601
0.157497
0.158945
0.160352
0.161716
0.163035
0.164306
0.165529
0.1667
0.167819
0.168883
0.16989
0.170839
0.171728
0.172555
0.17332
0.174021
0.174658
0.175231
0.175737
0.176179
0.176555
0.176866
0.177114
0.1773
0.177426
0.177493
0.177505
0.177463
0.177372
0.177234
0.177051
0.176828
0.176567
0.176274
0.175914
0.175458
0.00202175
0.0015943
0.00125468
0.000974465
0.000721713
0.0004979
0.00030555
0.000145275
1.77667e-05
-7.6083e-05
-0.000135275
-0.000158792
-0.000145737
-9.53561e-05
-7.00786e-06
0.00011984
0.0002856
0.000490549
0.000734847
0.00101858
0.00134174
0.00170426
0.00210603
0.00254695
0.00302684
0.00354549
0.00410262
0.0046979
0.00533093
0.00600124
0.00670831
0.0074516
0.00823061
0.00904492
0.00989404
0.0107776
0.0116951
0.0126461
0.0136299
0.0146462
0.0156943
0.0167734
0.017883
0.0190225
0.0201913
0.0213887
0.0226142
0.0238672
0.025147
0.0264529
0.0277844
0.0291407
0.0305213
0.0319256
0.0333531
0.0348034
0.036276
0.0377704
0.0392862
0.0408228
0.0423796
0.043956
0.0455515
0.0471656
0.0487977
0.0504473
0.0521139
0.0537967
0.0554953
0.0572091
0.0589374
0.0606798
0.0624357
0.0642046
0.0659862
0.0677799
0.0695852
0.0714017
0.0732288
0.0750662
0.0769133
0.0787697
0.080635
0.0825085
0.0843899
0.0862786
0.0881739
0.0900753
0.0919819
0.0938934
0.0958089
0.0977279
0.0996496
0.101574
0.103499
0.105425
0.107352
0.109278
0.111203
0.113126
0.115046
0.116963
0.118875
0.120783
0.122684
0.124578
0.126464
0.12834
0.130206
0.132059
0.1339
0.135725
0.137535
0.139326
0.141099
0.142851
0.144581
0.146287
0.147967
0.14962
0.151243
0.152836
0.154395
0.15592
0.157408
0.158857
0.160265
0.16163
0.162951
0.164224
0.165448
0.166622
0.167743
0.168809
0.169818
0.17077
0.171661
0.172492
0.173259
0.173964
0.174604
0.175179
0.175689
0.176134
0.176513
0.176827
0.177078
0.177266
0.177393
0.177461
0.177471
0.177427
0.177331
0.177185
0.176991
0.176752
0.176471
0.176151
0.175755
0.175251
0.00220586
0.00173719
0.00136703
0.00106426
0.000793506
0.000555834
0.000353251
0.000185737
5.34995e-05
-4.30346e-05
-0.000103405
-0.000127059
-0.000113417
-6.19612e-05
2.77524e-05
0.00015608
0.000323282
0.000529523
0.000774901
0.00105942
0.00138309
0.00174582
0.00214751
0.00258806
0.00306732
0.00358511
0.00414118
0.00473519
0.00536675
0.00603542
0.0067407
0.00748211
0.00825916
0.00907146
0.00991858
0.0108001
0.0117156
0.0126647
0.0136466
0.0146608
0.0157068
0.016784
0.0178915
0.019029
0.0201958
0.0213914
0.0226151
0.0238663
0.0251445
0.0264488
0.0277785
0.0291331
0.030512
0.0319146
0.0333405
0.0347892
0.0362603
0.0377532
0.0392676
0.0408027
0.042358
0.043933
0.0455271
0.0471398
0.0487705
0.0504187
0.0520839
0.0537654
0.0554626
0.057175
0.0589018
0.0606427
0.0623971
0.0641646
0.0659446
0.0677368
0.0695407
0.0713558
0.0731816
0.0750176
0.0768634
0.0787185
0.0805824
0.0824546
0.0843346
0.0862219
0.0881159
0.090016
0.0919215
0.0938317
0.0957461
0.097664
0.0995846
0.101507
0.103432
0.105357
0.107282
0.109207
0.111131
0.113053
0.114973
0.116889
0.1188
0.120707
0.122608
0.124501
0.126387
0.128263
0.130128
0.131982
0.133823
0.135649
0.137458
0.139251
0.141024
0.142777
0.144508
0.146216
0.147897
0.149552
0.151177
0.152771
0.154333
0.15586
0.15735
0.158802
0.160214
0.161582
0.162906
0.164182
0.16541
0.166587
0.167712
0.168782
0.169795
0.170751
0.171646
0.17248
0.173252
0.173961
0.174605
0.175183
0.175697
0.176144
0.176527
0.176844
0.177096
0.177285
0.177413
0.177479
0.177487
0.177439
0.177336
0.17718
0.176974
0.176718
0.176416
0.176071
0.175643
0.175096
0.00234428
0.00183875
0.00144067
0.00111656
0.00082817
0.000576465
0.000363157
0.000187625
4.96068e-05
-5.08132e-05
-0.000113524
-0.000138367
-0.000125098
-7.34363e-05
1.68742e-05
0.000146034
0.000314163
0.000521326
0.000767534
0.00105275
0.00137692
0.00173998
0.00214181
0.00258231
0.00306133
0.0035787
0.00413419
0.00472745
0.00535808
0.00602568
0.00672978
0.00746994
0.00824573
0.00905677
0.00990267
0.010783
0.0116973
0.0126451
0.0136259
0.0146389
0.0156835
0.0167594
0.0178657
0.0190019
0.0201675
0.021362
0.0225847
0.023835
0.0251121
0.0264154
0.0277442
0.0290978
0.0304757
0.0318773
0.0333023
0.0347501
0.0362204
0.0377125
0.039226
0.0407603
0.0423148
0.043889
0.0454823
0.0470942
0.0487241
0.0503716
0.052036
0.0537167
0.055413
0.0571244
0.0588503
0.0605902
0.0623436
0.0641101
0.0658892
0.0676804
0.0694834
0.0712975
0.0731224
0.0749576
0.0768025
0.0786567
0.0805198
0.0823911
0.0842703
0.0861568
0.08805
0.0899494
0.0918542
0.0937639
0.0956777
0.097595
0.0995151
0.101437
0.103361
0.105286
0.107211
0.109136
0.111059
0.112981
0.114901
0.116817
0.118729
0.120636
0.122536
0.12443
0.126316
0.128193
0.13006
0.131915
0.133756
0.135584
0.137395
0.139189
0.140965
0.14272
0.144454
0.146164
0.147849
0.149506
0.151135
0.152733
0.154298
0.155829
0.157324
0.158781
0.160197
0.16157
0.162898
0.16418
0.165413
0.166595
0.167725
0.1688
0.169819
0.17078
0.171681
0.17252
0.173297
0.17401
0.174659
0.175242
0.175759
0.17621
0.176595
0.176914
0.177168
0.177358
0.177484
0.177549
0.177553
0.177499
0.177388
0.177222
0.177002
0.17673
0.176408
0.17604
0.175583
0.174998
0.00243318
0.0018947
0.00147123
0.00112725
0.000821942
0.000556325
0.000332053
0.000148074
3.65764e-06
-0.000101457
-0.000167407
-0.000194297
-0.000182164
-0.000130977
-4.06696e-05
8.88061e-05
0.000257447
0.000465221
0.000712059
0.000997893
0.00132262
0.00168613
0.00208834
0.00252912
0.00300832
0.00352573
0.0040811
0.00467413
0.0053044
0.00597152
0.00667506
0.00741464
0.00818987
0.0090004
0.00984584
0.0107257
0.0116397
0.012587
0.0135673
0.0145798
0.015624
0.0166992
0.017805
0.0189408
0.0201061
0.0213003
0.0225227
0.0237727
0.0250496
0.0263527
0.0276812
0.0290345
0.0304121
0.0318136
0.0332384
0.0346861
0.0361562
0.0376482
0.0391615
0.0406956
0.0422499
0.0438239
0.045417
0.0470288
0.0486585
0.0503058
0.0519699
0.0536503
0.0553463
0.0570573
0.0587828
0.0605223
0.0622753
0.0640413
0.0658199
0.0676106
0.0694131
0.0712268
0.0730513
0.074886
0.0767306
0.0785845
0.0804472
0.0823183
0.0841972
0.0860834
0.0879763
0.0898755
0.0917802
0.0936898
0.0956036
0.097521
0.0994411
0.101364
0.103288
0.105213
0.107138
0.109063
0.110987
0.11291
0.11483
0.116747
0.11866
0.120568
0.12247
0.124365
0.126253
0.128131
0.13
0.131856
0.1337
0.13553
0.137345
0.139142
0.140921
0.14268
0.144417
0.146132
0.147821
0.149483
0.151116
0.15272
0.154291
0.155828
0.157328
0.158791
0.160213
0.161593
0.162928
0.164216
0.165456
0.166646
0.167782
0.168864
0.16989
0.170857
0.171765
0.17261
0.173394
0.174112
0.174766
0.175354
0.175876
0.17633
0.176718
0.177039
0.177295
0.177484
0.177609
0.177671
0.177671
0.17761
0.177491
0.177314
0.177081
0.176792
0.176451
0.176061
0.175577
0.174959
0.00246978
0.00190175
0.00145515
0.00109279
0.000771537
0.000492408
0.000257137
6.44494e-05
-8.67402e-05
-0.000197031
-0.00026682
-0.000296397
-0.000286003
-0.000235826
-0.000145991
-1.66028e-05
0.000152229
0.000360382
0.000607727
0.000894141
0.0012195
0.00158367
0.00198653
0.00242795
0.00290772
0.00342563
0.00398141
0.00457471
0.00520517
0.00587242
0.00657608
0.00731577
0.00809117
0.00890196
0.00974772
0.010628
0.0115422
0.01249
0.0134705
0.0144833
0.0155277
0.0166032
0.0177093
0.0188455
0.0200112
0.0212059
0.0224288
0.0236793
0.0249567
0.0262602
0.0275892
0.0289431
0.0303213
0.0317233
0.0331487
0.034597
0.0360677
0.0375602
0.039074
0.0406086
0.0421633
0.0437377
0.0453313
0.0469436
0.0485738
0.0502214
0.0518858
0.0535664
0.0552626
0.0569738
0.0586994
0.060439
0.0621921
0.0639582
0.0657369
0.0675277
0.0693302
0.0711439
0.0729684
0.0748033
0.076648
0.0785022
0.0803651
0.0822364
0.0841154
0.0860019
0.0878951
0.0897946
0.0916997
0.0936098
0.0955241
0.097442
0.0993629
0.101286
0.103211
0.105137
0.107063
0.108989
0.110915
0.112838
0.11476
0.116679
0.118593
0.120503
0.122407
0.124305
0.126195
0.128076
0.129947
0.131807
0.133654
0.135488
0.137306
0.139108
0.140891
0.142655
0.144398
0.146118
0.147813
0.149481
0.151121
0.152732
0.15431
0.155854
0.157362
0.158832
0.160262
0.16165
0.162994
0.164291
0.165539
0.166737
0.167882
0.168973
0.170006
0.170982
0.171897
0.17275
0.173541
0.174266
0.174926
0.17552
0.176046
0.176505
0.176896
0.177219
0.177475
0.177664
0.177788
0.177846
0.177841
0.177774
0.177645
0.177457
0.17721
0.176906
0.176547
0.176137
0.175628
0.174981
0.00245202
0.00185745
0.00138968
0.00101022
0.000674033
0.000382001
0.000135908
-6.56034e-05
-0.000223816
-0.000339584
-0.000413565
-0.000446247
-0.000438027
-0.000389269
-0.000300266
-0.00017126
-2.4648e-06
0.00020592
0.000453719
0.000740758
0.00106689
0.00143195
0.00183576
0.00227819
0.00275898
0.00327784
0.00383452
0.00442867
0.00505991
0.0057279
0.00643235
0.00717293
0.00794928
0.00876106
0.00960791
0.0104893
0.0114047
0.0123535
0.0133351
0.0143489
0.0153944
0.016471
0.0175783
0.0187156
0.0198825
0.0210784
0.0223026
0.0235544
0.024833
0.0261378
0.0274681
0.0288233
0.0302029
0.0316063
0.0330331
0.0344827
0.0359547
0.0374484
0.0389633
0.040499
0.0420549
0.0436305
0.0452253
0.0468386
0.0484698
0.0501184
0.0517837
0.0534651
0.055162
0.0568739
0.0586003
0.0603406
0.0620943
0.0638611
0.0656404
0.0674318
0.0692348
0.0710491
0.0728742
0.0747097
0.0765551
0.0784099
0.0802736
0.0821456
0.0840254
0.0859126
0.0878066
0.0897069
0.0916128
0.0935238
0.0954391
0.0973582
0.0992803
0.101205
0.103131
0.105058
0.106986
0.108914
0.110841
0.112767
0.114691
0.116611
0.118528
0.120441
0.122348
0.124249
0.126142
0.128026
0.129901
0.131765
0.133617
0.135456
0.137279
0.139087
0.140876
0.142646
0.144395
0.146122
0.147824
0.1495
0.151149
0.152767
0.154354
0.155907
0.157424
0.158904
0.160344
0.161742
0.163095
0.164403
0.165661
0.166869
0.168024
0.169124
0.170168
0.171153
0.172077
0.17294
0.173738
0.174471
0.175139
0.175738
0.17627
0.176733
0.177128
0.177453
0.17771
0.177899
0.178021
0.178076
0.178065
0.177991
0.177853
0.177654
0.177394
0.177074
0.176698
0.176269
0.175739
0.175065
0.00237823
0.0017598
0.00127266
0.000877215
0.000526914
0.000222623
-3.39455e-05
-0.000244232
-0.000409602
-0.000531052
-0.000609442
-0.000645475
-0.000639712
-0.000592649
-0.000504723
-0.000376292
-0.000207668
9.04428e-07
0.000249194
0.000536974
0.000864065
0.00123029
0.00163542
0.00207922
0.00256145
0.00308179
0.00363989
0.00423544
0.00486809
0.00553754
0.00624349
0.00698567
0.00776375
0.00857736
0.00942607
0.0103094
0.0112267
0.0121773
0.0131608
0.0141765
0.0152238
0.0163023
0.0174116
0.0185509
0.0197199
0.0209178
0.0221441
0.0233979
0.0246785
0.0259854
0.0273178
0.0286752
0.0300569
0.0314625
0.0328915
0.0343431
0.035817
0.0373126
0.0388295
0.040367
0.0419247
0.0435022
0.0450987
0.0467138
0.0483467
0.0499968
0.0516635
0.0533463
0.0550445
0.0567577
0.0584854
0.060227
0.061982
0.06375
0.0655304
0.0673229
0.069127
0.0709424
0.0727686
0.0746053
0.0764518
0.0783078
0.0801727
0.0820459
0.083927
0.0858155
0.0877107
0.0896123
0.0915195
0.0934319
0.0953488
0.0972695
0.0991933
0.10112
0.103048
0.104977
0.106907
0.108837
0.110767
0.112695
0.114621
0.116545
0.118465
0.120381
0.122292
0.124197
0.126094
0.127983
0.129862
0.131731
0.133589
0.135433
0.137263
0.139077
0.140874
0.142651
0.144408
0.146143
0.147854
0.14954
0.151198
0.152827
0.154424
0.155987
0.157515
0.159006
0.160457
0.161867
0.163232
0.164551
0.165821
0.167041
0.168208
0.16932
0.170375
0.171371
0.172306
0.173178
0.173986
0.174728
0.175403
0.17601
0.176548
0.177016
0.177414
0.177742
0.178001
0.178189
0.178309
0.17836
0.178344
0.178263
0.178116
0.177906
0.177633
0.177298
0.176906
0.176459
0.175909
0.175211
0.00224704
0.00160709
0.00110223
0.000691827
0.000328112
1.20845e-05
-0.000254577
-0.00047345
-0.000645978
-0.000773225
-0.000856167
-0.000895695
-0.000892549
-0.00084735
-0.000760644
-0.000632871
-0.000464426
-0.000255635
-6.76003e-06
0.00028197
0.000610294
0.000977973
0.00138478
0.00183042
0.00231456
0.00283685
0.00339695
0.00399452
0.00462924
0.00530084
0.00600906
0.00675363
0.00753421
0.00835042
0.00920179
0.0100878
0.0110077
0.011961
0.0129472
0.0139656
0.0150157
0.016097
0.0172091
0.0183513
0.0195231
0.0207239
0.0219529
0.0232095
0.024493
0.0258028
0.0271381
0.0284985
0.0298833
0.0312919
0.0327237
0.0341782
0.0356548
0.037153
0.0386723
0.0402124
0.0417727
0.0433527
0.0449517
0.0465691
0.0482042
0.0498564
0.0515252
0.0532099
0.05491
0.0566251
0.0583547
0.0600981
0.061855
0.0636247
0.0654069
0.067201
0.0690068
0.0708238
0.0726517
0.07449
0.0763383
0.078196
0.0800625
0.0819375
0.0838203
0.0857105
0.0876075
0.0895108
0.0914198
0.0933341
0.095253
0.0971757
0.0991017
0.10103
0.102961
0.104893
0.106826
0.108758
0.110691
0.112622
0.114552
0.116479
0.118404
0.120324
0.122239
0.124148
0.12605
0.127944
0.12983
0.131705
0.133569
0.135421
0.137258
0.13908
0.140885
0.142671
0.144437
0.146182
0.147903
0.149599
0.151268
0.152908
0.154517
0.156093
0.157634
0.159138
0.160602
0.162024
0.163403
0.164736
0.16602
0.167253
0.168433
0.169558
0.170626
0.171634
0.172581
0.173465
0.174283
0.175036
0.17572
0.176335
0.176879
0.177353
0.177756
0.178087
0.178347
0.178535
0.178653
0.178701
0.17868
0.178591
0.178435
0.178214
0.177928
0.177579
0.177172
0.176709
0.176139
0.17542
0.00205752
0.00139786
0.00087668
0.000452322
7.58456e-05
-0.000251501
-0.000527942
-0.000755167
-0.00093474
-0.00106779
-0.00115536
-0.00119847
-0.00119803
-0.00115476
-0.0010693
-0.00094219
-0.000773868
-0.000564706
-0.000315038
-2.51401e-05
0.000304729
0.000674265
0.00108315
0.00153106
0.00201762
0.00254243
0.00310511
0.00370536
0.00434287
0.00501738
0.00572864
0.00647639
0.00726027
0.00807985
0.00893465
0.00982407
0.0107475
0.0117043
0.012694
0.013716
0.0147698
0.0158548
0.0169706
0.0181165
0.019292
0.0204964
0.0217291
0.0229893
0.0242765
0.02559
0.0269292
0.0282935
0.0296821
0.0310944
0.0325299
0.0339879
0.0354679
0.0369694
0.0384921
0.0400354
0.041599
0.0431821
0.0447841
0.0464045
0.0480425
0.0496974
0.0513688
0.0530561
0.0547587
0.0564763
0.0582083
0.0599542
0.0617134
0.0634855
0.0652699
0.0670663
0.0688743
0.0706936
0.0725237
0.0743642
0.0762146
0.0780745
0.0799433
0.0818204
0.0837054
0.0855978
0.087497
0.0894025
0.0913138
0.0932304
0.0951516
0.0970768
0.0990054
0.100937
0.10287
0.104805
0.106741
0.108678
0.110614
0.112549
0.114483
0.116414
0.118343
0.120268
0.122188
0.124103
0.126011
0.127911
0.129804
0.131686
0.133558
0.135417
0.137263
0.139094
0.140908
0.142704
0.144481
0.146237
0.14797
0.149678
0.15136
0.153013
0.154635
0.156225
0.15778
0.159298
0.160777
0.162215
0.163608
0.164956
0.166255
0.167504
0.168699
0.169839
0.170922
0.171944
0.172904
0.1738
0.174631
0.175395
0.176089
0.176713
0.177265
0.177745
0.178153
0.178488
0.178749
0.178938
0.179054
0.179099
0.179072
0.178976
0.178812
0.17858
0.178282
0.17792
0.177497
0.177018
0.176431
0.175691
0.00180914
0.00113105
0.000594549
0.00015706
-0.000231539
-0.000569813
-0.000855802
-0.00109119
-0.00127763
-0.0014164
-0.00150862
-0.00155534
-0.00155759
-0.00151626
-0.00143201
-0.00130544
-0.00113709
-0.000927371
-0.000676636
-0.000385232
-5.34661e-05
0.000318332
0.000729769
0.00118045
0.00166996
0.00219787
0.0027638
0.00336741
0.00400847
0.00468668
0.0054018
0.00615353
0.00694151
0.00776527
0.00862428
0.00951795
0.0104457
0.0114069
0.012401
0.0134275
0.0144858
0.0155754
0.0166958
0.0178463
0.0190264
0.0202353
0.0214724
0.0227372
0.024029
0.0253472
0.0266911
0.02806
0.0294533
0.0308701
0.03231
0.0337723
0.0352564
0.0367621
0.0382888
0.0398362
0.0414036
0.0429905
0.0445963
0.0462202
0.0478616
0.0495199
0.0511946
0.0528851
0.0545909
0.0563116
0.0580467
0.0597955
0.0615577
0.0633326
0.0651198
0.0669191
0.0687299
0.070552
0.0723848
0.074228
0.0760811
0.0779436
0.079815
0.0816947
0.0835823