/*--------------------------------*- C++ -*----------------------------------*\
  =========                 |
  \\      /  F ield         | OpenFOAM: The Open Source CFD Toolbox
   \\    /   O peration     | Website:  https://openfoam.org
    \\  /    A nd           | Version:  7
     \\/     M anipulation  |
\*---------------------------------------------------------------------------*/
FoamFile
{
    version     2.0;
    format      ascii;
    class       volVectorField;
    location    "0.025";
    object      U;
}
// * * * * * * * * * * * * * * * * * * * * * * * * * * * * * * * * * * * * * //

dimensions      [0 1 -1 0 0 0 0];

internalField   nonuniform List<vector> 
12800
(
(8.5117e-06 -8.63816e-06 0)
(2.67943e-05 -1.13682e-05 0)
(3.93396e-05 -6.71174e-06 0)
(3.49261e-05 3.94876e-07 0)
(9.32613e-06 7.8948e-06 0)
(-3.73617e-05 1.49378e-05 0)
(-0.000103678 2.12035e-05 0)
(-0.000187597 2.66079e-05 0)
(-0.000286899 3.1177e-05 0)
(-0.000399371 3.49775e-05 0)
(-0.000522917 3.80895e-05 0)
(-0.000655608 4.05896e-05 0)
(-0.000795691 4.25448e-05 0)
(-0.000941601 4.40248e-05 0)
(-0.00109196 4.51059e-05 0)
(-0.00124559 4.58545e-05 0)
(-0.00140143 4.63166e-05 0)
(-0.00155861 4.65279e-05 0)
(-0.00171636 4.65272e-05 0)
(-0.00187405 4.63576e-05 0)
(-0.00203114 4.60575e-05 0)
(-0.00218719 4.56585e-05 0)
(-0.00234185 4.51732e-05 0)
(-0.00249481 4.46072e-05 0)
(-0.00264583 4.39702e-05 0)
(-0.00279471 4.3279e-05 0)
(-0.00294129 4.25527e-05 0)
(-0.00308545 4.18076e-05 0)
(-0.00322708 4.10514e-05 0)
(-0.00336612 4.02782e-05 0)
(-0.00350247 3.9488e-05 0)
(-0.00363611 3.8687e-05 0)
(-0.00376699 3.78756e-05 0)
(-0.00389508 3.70575e-05 0)
(-0.00402037 3.62372e-05 0)
(-0.00414284 3.54145e-05 0)
(-0.00426248 3.45958e-05 0)
(-0.00437929 3.37834e-05 0)
(-0.00449328 3.29726e-05 0)
(-0.00460445 3.21598e-05 0)
(-0.00471281 3.13429e-05 0)
(-0.00481836 3.05327e-05 0)
(-0.00492112 2.97315e-05 0)
(-0.00502111 2.89359e-05 0)
(-0.00511836 2.81499e-05 0)
(-0.00521287 2.73654e-05 0)
(-0.00530468 2.65847e-05 0)
(-0.00539381 2.58168e-05 0)
(-0.00548029 2.50567e-05 0)
(-0.00556414 2.43048e-05 0)
(-0.00564539 2.3558e-05 0)
(-0.00572407 2.28104e-05 0)
(-0.00580021 2.20745e-05 0)
(-0.00587384 2.13586e-05 0)
(-0.00594501 2.06543e-05 0)
(-0.00601374 1.9957e-05 0)
(-0.00608007 1.92655e-05 0)
(-0.00614403 1.85794e-05 0)
(-0.00620565 1.7907e-05 0)
(-0.00626498 1.72521e-05 0)
(-0.00632205 1.66069e-05 0)
(-0.00637688 1.59669e-05 0)
(-0.00642952 1.53356e-05 0)
(-0.00648 1.4714e-05 0)
(-0.00652834 1.41013e-05 0)
(-0.00657458 1.34994e-05 0)
(-0.00661875 1.29092e-05 0)
(-0.00666088 1.23295e-05 0)
(-0.00670099 1.17581e-05 0)
(-0.0067391 1.11914e-05 0)
(-0.00677524 1.06254e-05 0)
(-0.00680942 1.00609e-05 0)
(-0.00684165 9.50157e-06 0)
(-0.00687195 8.94741e-06 0)
(-0.00690032 8.39492e-06 0)
(-0.00692677 7.84203e-06 0)
(-0.0069513 7.2881e-06 0)
(-0.00697391 6.73159e-06 0)
(-0.0069946 6.1722e-06 0)
(-0.00701336 5.6127e-06 0)
(-0.00703019 5.0545e-06 0)
(-0.00704509 4.49426e-06 0)
(-0.00705803 3.9283e-06 0)
(-0.00706902 3.35726e-06 0)
(-0.00707802 2.78276e-06 0)
(-0.00708501 2.20222e-06 0)
(-0.00708998 1.61119e-06 0)
(-0.00709289 1.00902e-06 0)
(-0.00709371 3.97965e-07 0)
(-0.00709239 -2.22786e-07 0)
(-0.00708889 -8.58241e-07 0)
(-0.00708317 -1.51237e-06 0)
(-0.00707517 -2.18458e-06 0)
(-0.00706483 -2.87324e-06 0)
(-0.0070521 -3.58058e-06 0)
(-0.00703691 -4.31144e-06 0)
(-0.00701919 -5.06745e-06 0)
(-0.00699887 -5.84529e-06 0)
(-0.00697586 -6.64189e-06 0)
(-0.0069501 -7.45964e-06 0)
(-0.0069215 -8.30468e-06 0)
(-0.00688998 -9.18054e-06 0)
(-0.00685544 -1.00856e-05 0)
(-0.00681779 -1.10168e-05 0)
(-0.00677695 -1.19753e-05 0)
(-0.0067328 -1.29651e-05 0)
(-0.00668524 -1.39895e-05 0)
(-0.00663417 -1.50484e-05 0)
(-0.00657948 -1.61406e-05 0)
(-0.00652106 -1.72669e-05 0)
(-0.00645879 -1.84294e-05 0)
(-0.00639257 -1.96289e-05 0)
(-0.00632227 -2.08643e-05 0)
(-0.00624779 -2.21339e-05 0)
(-0.00616901 -2.3438e-05 0)
(-0.00608582 -2.47782e-05 0)
(-0.00599812 -2.61546e-05 0)
(-0.00590579 -2.75651e-05 0)
(-0.00580873 -2.90057e-05 0)
(-0.00570685 -3.04737e-05 0)
(-0.00560005 -3.1969e-05 0)
(-0.00548827 -3.34923e-05 0)
(-0.00537141 -3.50417e-05 0)
(-0.00524942 -3.66122e-05 0)
(-0.00512224 -3.81974e-05 0)
(-0.00498984 -3.97929e-05 0)
(-0.00485218 -4.13959e-05 0)
(-0.00470927 -4.30029e-05 0)
(-0.00456111 -4.46074e-05 0)
(-0.00440774 -4.62002e-05 0)
(-0.00424922 -4.77725e-05 0)
(-0.00408564 -4.93166e-05 0)
(-0.00391712 -5.08242e-05 0)
(-0.00374383 -5.2282e-05 0)
(-0.00356597 -5.36734e-05 0)
(-0.00338378 -5.4982e-05 0)
(-0.00319758 -5.61924e-05 0)
(-0.00300775 -5.72874e-05 0)
(-0.0028147 -5.82443e-05 0)
(-0.00261898 -5.90356e-05 0)
(-0.00242118 -5.96313e-05 0)
(-0.002222 -5.99994e-05 0)
(-0.00202226 -6.0104e-05 0)
(-0.00182289 -5.99044e-05 0)
(-0.00162496 -5.93569e-05 0)
(-0.00142967 -5.84147e-05 0)
(-0.0012384 -5.70255e-05 0)
(-0.00105268 -5.51281e-05 0)
(-0.000874213 -5.26519e-05 0)
(-0.00070491 -4.95222e-05 0)
(-0.000546867 -4.56612e-05 0)
(-0.000402371 -4.09854e-05 0)
(-0.000273894 -3.5406e-05 0)
(-0.00016405 -2.8838e-05 0)
(-7.55097e-05 -2.12272e-05 0)
(-1.0805e-05 -1.26173e-05 0)
(2.80309e-05 -3.30255e-06 0)
(4.04589e-05 5.83059e-06 0)
(3.04542e-05 1.23724e-05 0)
(1.04019e-05 1.04039e-05 0)
(1.12973e-05 -2.67906e-05 0)
(2.79487e-05 -2.79887e-05 0)
(2.10827e-05 -2.08634e-06 0)
(-2.71109e-05 3.47487e-05 0)
(-0.000124494 7.46251e-05 0)
(-0.000272301 0.000113493 0)
(-0.000468495 0.000149353 0)
(-0.000709258 0.000181335 0)
(-0.000989875 0.00020917 0)
(-0.00130531 0.000232918 0)
(-0.00165054 0.000252802 0)
(-0.00202078 0.000269131 0)
(-0.00241156 0.000282242 0)
(-0.00281882 0.000292478 0)
(-0.0032389 0.000300184 0)
(-0.00366857 0.000305695 0)
(-0.00410499 0.000309312 0)
(-0.00454569 0.000311301 0)
(-0.00498853 0.000311901 0)
(-0.00543171 0.00031133 0)
(-0.00587369 0.000309788 0)
(-0.00631318 0.000307446 0)
(-0.00674911 0.000304449 0)
(-0.00718058 0.000300907 0)
(-0.00760684 0.000296917 0)
(-0.0080273 0.000292557 0)
(-0.00844147 0.000287905 0)
(-0.00884894 0.000283022 0)
(-0.00924938 0.000277957 0)
(-0.00964254 0.000272747 0)
(-0.0100282 0.000267418 0)
(-0.0104062 0.000261998 0)
(-0.0107764 0.000256511 0)
(-0.0111387 0.000250972 0)
(-0.0114931 0.000245399 0)
(-0.0118394 0.000239804 0)
(-0.0121777 0.000234195 0)
(-0.012508 0.000228591 0)
(-0.0128302 0.000222992 0)
(-0.0131443 0.000217405 0)
(-0.0134505 0.000211833 0)
(-0.0137486 0.000206281 0)
(-0.0140387 0.000200767 0)
(-0.014321 0.00019529 0)
(-0.0145954 0.000189854 0)
(-0.014862 0.000184467 0)
(-0.0151208 0.00017912 0)
(-0.015372 0.000173825 0)
(-0.0156157 0.000168587 0)
(-0.0158518 0.000163404 0)
(-0.0160805 0.000158277 0)
(-0.0163019 0.00015321 0)
(-0.0165161 0.000148202 0)
(-0.0167231 0.000143263 0)
(-0.016923 0.0001384 0)
(-0.0171161 0.000133605 0)
(-0.0173022 0.000128872 0)
(-0.0174816 0.000124205 0)
(-0.0176544 0.000119608 0)
(-0.0178206 0.000115081 0)
(-0.0179804 0.000110622 0)
(-0.0181338 0.000106233 0)
(-0.0182809 0.000101907 0)
(-0.0184218 9.76415e-05 0)
(-0.0185566 9.34378e-05 0)
(-0.0186855 8.92971e-05 0)
(-0.0188084 8.52129e-05 0)
(-0.0189255 8.11797e-05 0)
(-0.0190368 7.71971e-05 0)
(-0.0191423 7.32592e-05 0)
(-0.0192422 6.93537e-05 0)
(-0.0193365 6.54738e-05 0)
(-0.0194253 6.16193e-05 0)
(-0.0195085 5.77867e-05 0)
(-0.0195861 5.39672e-05 0)
(-0.0196583 5.01541e-05 0)
(-0.019725 4.63448e-05 0)
(-0.0197863 4.2535e-05 0)
(-0.019842 3.87188e-05 0)
(-0.0198923 3.48925e-05 0)
(-0.0199371 3.10537e-05 0)
(-0.0199763 2.71973e-05 0)
(-0.02001 2.33154e-05 0)
(-0.020038 1.94008e-05 0)
(-0.0200605 1.54475e-05 0)
(-0.0200772 1.14473e-05 0)
(-0.0200881 7.39009e-06 0)
(-0.0200931 3.26741e-06 0)
(-0.0200922 -9.27083e-07 0)
(-0.0200852 -5.20129e-06 0)
(-0.020072 -9.56556e-06 0)
(-0.0200524 -1.40299e-05 0)
(-0.0200264 -1.86022e-05 0)
(-0.0199938 -2.32897e-05 0)
(-0.0199544 -2.81013e-05 0)
(-0.019908 -3.30465e-05 0)
(-0.0198544 -3.81327e-05 0)
(-0.0197936 -4.33643e-05 0)
(-0.0197251 -4.87453e-05 0)
(-0.0196489 -5.42824e-05 0)
(-0.0195647 -5.99846e-05 0)
(-0.0194722 -6.58606e-05 0)
(-0.0193713 -7.19167e-05 0)
(-0.0192616 -7.81586e-05 0)
(-0.019143 -8.45933e-05 0)
(-0.0190151 -9.1228e-05 0)
(-0.0188776 -9.80691e-05 0)
(-0.0187303 -0.000105121 0)
(-0.0185728 -0.000112387 0)
(-0.018405 -0.000119872 0)
(-0.0182264 -0.00012758 0)
(-0.0180367 -0.000135512 0)
(-0.0178357 -0.000143667 0)
(-0.0176231 -0.000152043 0)
(-0.0173985 -0.000160637 0)
(-0.0171617 -0.000169446 0)
(-0.0169123 -0.000178467 0)
(-0.0166502 -0.000187691 0)
(-0.0163749 -0.000197106 0)
(-0.0160863 -0.000206702 0)
(-0.0157842 -0.000216465 0)
(-0.0154683 -0.000226383 0)
(-0.0151384 -0.000236437 0)
(-0.0147944 -0.000246605 0)
(-0.0144361 -0.000256859 0)
(-0.0140635 -0.000267172 0)
(-0.0136765 -0.00027751 0)
(-0.0132751 -0.000287841 0)
(-0.0128594 -0.000298124 0)
(-0.0124295 -0.000308308 0)
(-0.0119856 -0.000318339 0)
(-0.0115279 -0.000328153 0)
(-0.0110569 -0.000337682 0)
(-0.010573 -0.000346848 0)
(-0.0100768 -0.000355557 0)
(-0.00956903 -0.000363707 0)
(-0.00905061 -0.000371183 0)
(-0.00852259 -0.000377856 0)
(-0.0079862 -0.00038358 0)
(-0.00744292 -0.00038819 0)
(-0.00689445 -0.000391499 0)
(-0.00634276 -0.000393308 0)
(-0.0057901 -0.000393391 0)
(-0.00523906 -0.000391502 0)
(-0.00469256 -0.000387371 0)
(-0.00415392 -0.000380706 0)
(-0.00362681 -0.000371195 0)
(-0.00311535 -0.000358505 0)
(-0.00262406 -0.000342285 0)
(-0.0021579 -0.000322175 0)
(-0.00172221 -0.00029782 0)
(-0.0013227 -0.000268892 0)
(-0.00096531 -0.000235127 0)
(-0.000656041 -0.000196413 0)
(-0.000400605 -0.000152939 0)
(-0.00020384 -0.000105512 0)
(-6.87469e-05 -5.61732e-05 0)
(5.28142e-06 -9.29324e-06 0)
(2.60328e-05 2.60428e-05 0)
(1.23465e-05 3.04336e-05 0)
(6.86421e-06 -3.95558e-05 0)
(2.45002e-06 -2.11409e-05 0)
(-4.83247e-05 4.87206e-05 0)
(-0.00016149 0.000141953 0)
(-0.000345018 0.000243113 0)
(-0.000600714 0.00034316 0)
(-0.000926313 0.000436992 0)
(-0.00131705 0.000521987 0)
(-0.00176677 0.000597019 0)
(-0.0022686 0.000661846 0)
(-0.00281555 0.000716758 0)
(-0.00340077 0.000762348 0)
(-0.00401775 0.000799362 0)
(-0.00466048 0.000828619 0)
(-0.00532346 0.000850957 0)
(-0.0060018 0.000867204 0)
(-0.00669112 0.000878141 0)
(-0.00738761 0.000884488 0)
(-0.00808793 0.000886898 0)
(-0.00878923 0.000885957 0)
(-0.00948905 0.000882191 0)
(-0.0101853 0.000876064 0)
(-0.0108763 0.000867976 0)
(-0.0115606 0.00085827 0)
(-0.0122368 0.00084723 0)
(-0.0129041 0.000835096 0)
(-0.0135615 0.000822066 0)
(-0.0142085 0.000808315 0)
(-0.0148444 0.000793982 0)
(-0.0154688 0.000779179 0)
(-0.0160814 0.000764007 0)
(-0.0166818 0.000748546 0)
(-0.0172698 0.000732861 0)
(-0.0178453 0.000717013 0)
(-0.0184081 0.000701045 0)
(-0.0189581 0.000684997 0)
(-0.0194953 0.000668897 0)
(-0.0200197 0.000652782 0)
(-0.0205311 0.000636678 0)
(-0.0210296 0.0006206 0)
(-0.0215154 0.000604575 0)
(-0.0219883 0.000588617 0)
(-0.0224484 0.000572742 0)
(-0.0228959 0.000556978 0)
(-0.0233309 0.000541329 0)
(-0.0237533 0.000525809 0)
(-0.0241634 0.000510432 0)
(-0.0245612 0.000495197 0)
(-0.0249469 0.000480117 0)
(-0.0253206 0.00046521 0)
(-0.0256825 0.00045047 0)
(-0.0260326 0.000435906 0)
(-0.0263712 0.000421532 0)
(-0.0266983 0.000407345 0)
(-0.0270142 0.000393352 0)
(-0.027319 0.000379561 0)
(-0.0276129 0.000365966 0)
(-0.0278959 0.000352561 0)
(-0.0281684 0.000339352 0)
(-0.0284303 0.000326341 0)
(-0.028682 0.000313521 0)
(-0.0289235 0.000300889 0)
(-0.0291549 0.000288444 0)
(-0.0293765 0.000276179 0)
(-0.0295883 0.000264086 0)
(-0.0297905 0.000252159 0)
(-0.0299833 0.000240387 0)
(-0.0301666 0.00022876 0)
(-0.0303408 0.000217268 0)
(-0.0305057 0.000205897 0)
(-0.0306616 0.000194629 0)
(-0.0308085 0.00018345 0)
(-0.0309465 0.000172348 0)
(-0.0310756 0.000161305 0)
(-0.0311959 0.000150305 0)
(-0.0313074 0.000139335 0)
(-0.0314101 0.000128383 0)
(-0.0315042 0.000117434 0)
(-0.0315894 0.000106472 0)
(-0.0316659 9.54818e-05 0)
(-0.0317337 8.44533e-05 0)
(-0.0317926 7.33691e-05 0)
(-0.0318426 6.22089e-05 0)
(-0.0318837 5.09538e-05 0)
(-0.0319157 3.95854e-05 0)
(-0.0319386 2.80825e-05 0)
(-0.0319523 1.64202e-05 0)
(-0.0319566 4.57464e-06 0)
(-0.0319514 -7.47532e-06 0)
(-0.0319364 -1.97509e-05 0)
(-0.0319116 -3.2276e-05 0)
(-0.0318767 -4.50754e-05 0)
(-0.0318315 -5.81726e-05 0)
(-0.0317758 -7.15892e-05 0)
(-0.0317093 -8.53472e-05 0)
(-0.0316317 -9.94692e-05 0)
(-0.0315428 -0.000113977 0)
(-0.0314423 -0.000128891 0)
(-0.0313297 -0.00014423 0)
(-0.0312049 -0.000160011 0)
(-0.0310674 -0.000176253 0)
(-0.0309169 -0.000192977 0)
(-0.030753 -0.000210203 0)
(-0.0305752 -0.000227949 0)
(-0.0303833 -0.000246233 0)
(-0.0301768 -0.000265073 0)
(-0.0299551 -0.000284484 0)
(-0.029718 -0.000304478 0)
(-0.0294649 -0.000325066 0)
(-0.0291954 -0.000346257 0)
(-0.028909 -0.000368058 0)
(-0.0286052 -0.000390471 0)
(-0.0282837 -0.000413497 0)
(-0.0279438 -0.000437129 0)
(-0.0275853 -0.000461359 0)
(-0.0272075 -0.000486177 0)
(-0.0268102 -0.000511565 0)
(-0.0263927 -0.000537503 0)
(-0.0259549 -0.000563964 0)
(-0.0254962 -0.000590914 0)
(-0.0250163 -0.000618316 0)
(-0.024515 -0.000646123 0)
(-0.0239919 -0.000674283 0)
(-0.0234468 -0.000702733 0)
(-0.0228795 -0.000731403 0)
(-0.0222899 -0.000760211 0)
(-0.021678 -0.000789065 0)
(-0.0210438 -0.000817861 0)
(-0.0203874 -0.000846481 0)
(-0.019709 -0.000874786 0)
(-0.0190089 -0.000902621 0)
(-0.0182877 -0.000929808 0)
(-0.0175459 -0.00095615 0)
(-0.0167843 -0.00098142 0)
(-0.016004 -0.00100537 0)
(-0.0152059 -0.0010277 0)
(-0.0143917 -0.00104808 0)
(-0.0135629 -0.00106617 0)
(-0.0127215 -0.00108154 0)
(-0.0118699 -0.00109373 0)
(-0.0110107 -0.00110225 0)
(-0.0101471 -0.00110653 0)
(-0.00928248 -0.00110597 0)
(-0.00842091 -0.00109989 0)
(-0.0075669 -0.00108758 0)
(-0.00672551 -0.00106826 0)
(-0.00590234 -0.00104112 0)
(-0.00510359 -0.00100531 0)
(-0.00433604 -0.000959976 0)
(-0.00360701 -0.000904279 0)
(-0.00292428 -0.000837445 0)
(-0.00229603 -0.000758849 0)
(-0.00173058 -0.000668145 0)
(-0.00123607 -0.000565494 0)
(-0.000819989 -0.000451951 0)
(-0.000488352 -0.000330146 0)
(-0.000244497 -0.000205453 0)
(-8.72579e-05 -8.77579e-05 0)
(-9.07801e-06 5.33133e-06 0)
(5.83454e-06 4.04235e-05 0)
(-2.00743e-07 -3.53642e-05 0)
(-3.43705e-05 2.6906e-05 0)
(-0.000141752 0.000161888 0)
(-0.00033183 0.000331735 0)
(-0.000610068 0.000514119 0)
(-0.000977732 0.00069499 0)
(-0.00143198 0.000865813 0)
(-0.00196725 0.00102182 0)
(-0.00257635 0.00116067 0)
(-0.0032512 0.00128159 0)
(-0.00398341 0.00138478 0)
(-0.00476465 0.00147106 0)
(-0.00558691 0.00154163 0)
(-0.00644268 0.00159784 0)
(-0.00732506 0.00164114 0)
(-0.00822777 0.00167295 0)
(-0.00914521 0.00169469 0)
(-0.0100724 0.00170767 0)
(-0.0110051 0.00171308 0)
(-0.0119394 0.00171202 0)
(-0.0128721 0.00170547 0)
(-0.0138004 0.00169429 0)
(-0.014722 0.00167923 0)
(-0.0156349 0.00166095 0)
(-0.0165373 0.00164 0)
(-0.0174281 0.00161685 0)
(-0.0183059 0.00159191 0)
(-0.0191698 0.0015655 0)
(-0.020019 0.00153789 0)
(-0.0208529 0.00150933 0)
(-0.0216711 0.00147999 0)
(-0.022473 0.00145006 0)
(-0.0232583 0.00141965 0)
(-0.0240268 0.00138889 0)
(-0.0247784 0.00135787 0)
(-0.0255128 0.00132667 0)
(-0.0262299 0.00129536 0)
(-0.0269298 0.001264 0)
(-0.0276123 0.00123265 0)
(-0.0282775 0.00120135 0)
(-0.0289254 0.00117014 0)
(-0.0295562 0.00113906 0)
(-0.0301698 0.00110815 0)
(-0.0307663 0.00107743 0)
(-0.031346 0.00104695 0)
(-0.0319088 0.00101671 0)
(-0.032455 0.00098675 0)
(-0.0329847 0.000957089 0)
(-0.0334982 0.000927728 0)
(-0.0339955 0.000898692 0)
(-0.0344768 0.000870007 0)
(-0.0349425 0.000841672 0)
(-0.0353925 0.000813699 0)
(-0.0358273 0.000786101 0)
(-0.0362469 0.000758879 0)
(-0.0366516 0.000732036 0)
(-0.0370417 0.000705583 0)
(-0.0374172 0.000679513 0)
(-0.0377785 0.000653821 0)
(-0.0381257 0.000628505 0)
(-0.0384591 0.000603563 0)
(-0.0387788 0.000578986 0)
(-0.039085 0.000554764 0)
(-0.039378 0.000530888 0)
(-0.0396579 0.000507343 0)
(-0.0399249 0.000484115 0)
(-0.0401792 0.000461186 0)
(-0.0404208 0.000438533 0)
(-0.0406501 0.000416133 0)
(-0.040867 0.000393965 0)
(-0.0410717 0.000372005 0)
(-0.0412644 0.000350225 0)
(-0.0414451 0.000328596 0)
(-0.0416139 0.000307089 0)
(-0.0417708 0.000285678 0)
(-0.041916 0.000264334 0)
(-0.0420494 0.000243028 0)
(-0.0421711 0.000221733 0)
(-0.0422811 0.00020042 0)
(-0.0423793 0.000179058 0)
(-0.0424657 0.000157616 0)
(-0.0425403 0.00013606 0)
(-0.0426031 0.000114357 0)
(-0.0426538 9.24711e-05 0)
(-0.0426924 7.03627e-05 0)
(-0.0427188 4.79909e-05 0)
(-0.0427327 2.53144e-05 0)
(-0.0427342 2.29095e-06 0)
(-0.0427228 -2.11222e-05 0)
(-0.0426985 -4.49677e-05 0)
(-0.042661 -6.92882e-05 0)
(-0.04261 -9.41268e-05 0)
(-0.0425452 -0.000119527 0)
(-0.0424663 -0.000145532 0)
(-0.0423731 -0.000172183 0)
(-0.0422651 -0.000199523 0)
(-0.0421419 -0.000227591 0)
(-0.0420033 -0.000256428 0)
(-0.0418487 -0.000286076 0)
(-0.0416777 -0.00031657 0)
(-0.0414899 -0.000347948 0)
(-0.0412847 -0.000380244 0)
(-0.0410617 -0.000413495 0)
(-0.0408204 -0.000447737 0)
(-0.0405602 -0.000483003 0)
(-0.0402806 -0.000519324 0)
(-0.039981 -0.000556727 0)
(-0.0396609 -0.000595237 0)
(-0.0393196 -0.000634873 0)
(-0.0389565 -0.000675649 0)
(-0.0385711 -0.000717572 0)
(-0.0381628 -0.000760648 0)
(-0.0377309 -0.000804874 0)
(-0.0372748 -0.000850242 0)
(-0.036794 -0.000896736 0)
(-0.0362879 -0.000944332 0)
(-0.0357559 -0.000992997 0)
(-0.0351975 -0.00104269 0)
(-0.0346122 -0.00109335 0)
(-0.0339995 -0.00114493 0)
(-0.0333589 -0.00119734 0)
(-0.03269 -0.00125049 0)
(-0.0319925 -0.00130429 0)
(-0.0312662 -0.0013586 0)
(-0.0305108 -0.0014133 0)
(-0.0297261 -0.00146823 0)
(-0.0289121 -0.00152321 0)
(-0.028069 -0.00157804 0)
(-0.0271968 -0.00163247 0)
(-0.0262959 -0.00168625 0)
(-0.0253668 -0.00173908 0)
(-0.0244101 -0.00179062 0)
(-0.0234266 -0.00184049 0)
(-0.0224174 -0.00188824 0)
(-0.0213839 -0.0019334 0)
(-0.0203275 -0.00197541 0)
(-0.0192503 -0.00201364 0)
(-0.0181543 -0.0020474 0)
(-0.0170424 -0.00207592 0)
(-0.0159175 -0.00209833 0)
(-0.0147832 -0.00211368 0)
(-0.0136434 -0.00212093 0)
(-0.0125029 -0.00211894 0)
(-0.0113669 -0.00210647 0)
(-0.010241 -0.0020822 0)
(-0.00913196 -0.00204473 0)
(-0.00804683 -0.0019926 0)
(-0.00699349 -0.00192433 0)
(-0.00598047 -0.00183845 0)
(-0.00501687 -0.00173359 0)
(-0.0041123 -0.00160853 0)
(-0.00327666 -0.00146244 0)
(-0.00251991 -0.00129505 0)
(-0.00185165 -0.00110707 0)
(-0.00128055 -0.000900846 0)
(-0.000813553 -0.000681279 0)
(-0.000454656 -0.000457436 0)
(-0.00020335 -0.000244675 0)
(-5.52754e-05 -6.81393e-05 0)
(-3.16108e-06 2.82097e-05 0)
(-7.72738e-06 -1.00302e-05 0)
(-7.46033e-05 0.000124411 0)
(-0.000244091 0.000345938 0)
(-0.000516554 0.000610299 0)
(-0.000893281 0.000889885 0)
(-0.00137403 0.00116642 0)
(-0.00195486 0.00142824 0)
(-0.00262924 0.00166842 0)
(-0.00338908 0.00188333 0)
(-0.00422536 0.00207152 0)
(-0.00512865 0.00223302 0)
(-0.00608952 0.00236881 0)
(-0.00709884 0.00248047 0)
(-0.008148 0.00256993 0)
(-0.00922897 0.00263928 0)
(-0.0103344 0.00269064 0)
(-0.0114577 0.00272611 0)
(-0.012593 0.00274766 0)
(-0.0137351 0.00275714 0)
(-0.0148794 0.00275624 0)
(-0.016022 0.0027465 0)
(-0.0171596 0.00272925 0)
(-0.0182891 0.00270569 0)
(-0.0194082 0.00267683 0)
(-0.0205148 0.00264357 0)
(-0.021607 0.00260667 0)
(-0.0226836 0.00256678 0)
(-0.0237433 0.00252443 0)
(-0.024785 0.00248008 0)
(-0.0258079 0.00243411 0)
(-0.0268115 0.00238685 0)
(-0.0277951 0.00233855 0)
(-0.0287584 0.00228944 0)
(-0.029701 0.00223972 0)
(-0.0306226 0.00218954 0)
(-0.031523 0.00213905 0)
(-0.0324022 0.00208836 0)
(-0.0332601 0.00203757 0)
(-0.0340965 0.00198677 0)
(-0.0349116 0.00193605 0)
(-0.0357053 0.00188547 0)
(-0.0364778 0.0018351 0)
(-0.0372291 0.00178501 0)
(-0.0379593 0.00173522 0)
(-0.0386687 0.00168581 0)
(-0.0393573 0.00163681 0)
(-0.0400254 0.00158825 0)
(-0.0406732 0.00154017 0)
(-0.0413008 0.00149261 0)
(-0.0419085 0.00144558 0)
(-0.0424965 0.00139911 0)
(-0.0430651 0.00135322 0)
(-0.0436146 0.00130793 0)
(-0.0441451 0.00126324 0)
(-0.044657 0.00121917 0)
(-0.0451505 0.00117572 0)
(-0.0456259 0.00113289 0)
(-0.0460835 0.00109068 0)
(-0.0465235 0.0010491 0)
(-0.0469461 0.00100812 0)
(-0.0473516 0.000967748 0)
(-0.0477404 0.000927964 0)
(-0.0481126 0.000888754 0)
(-0.0484684 0.000850096 0)
(-0.0488081 0.00081197 0)
(-0.0491319 0.000774354 0)
(-0.04944 0.000737216 0)
(-0.0497326 0.000700523 0)
(-0.0500099 0.000664243 0)
(-0.050272 0.000628338 0)
(-0.0505192 0.000592766 0)
(-0.0507514 0.000557486 0)
(-0.0509689 0.000522461 0)
(-0.0511717 0.000487645 0)
(-0.05136 0.000452989 0)
(-0.0515338 0.000418448 0)
(-0.0516931 0.000383977 0)
(-0.051838 0.000349532 0)
(-0.0519684 0.00031506 0)
(-0.0520844 0.000280511 0)
(-0.0521859 0.000245834 0)
(-0.0522729 0.000210976 0)
(-0.0523452 0.00017588 0)
(-0.0524028 0.000140487 0)
(-0.0524455 0.000104734 0)
(-0.0524732 6.85617e-05 0)
(-0.0524857 3.1903e-05 0)
(-0.0524827 -5.30873e-06 0)
(-0.052464 -4.31403e-05 0)
(-0.0524294 -8.1658e-05 0)
(-0.0523786 -0.000120929 0)
(-0.0523113 -0.000161021 0)
(-0.0522271 -0.000202003 0)
(-0.0521256 -0.000243942 0)
(-0.0520065 -0.000286906 0)
(-0.0518693 -0.00033096 0)
(-0.0517136 -0.000376171 0)
(-0.0515389 -0.000422603 0)
(-0.0513447 -0.000470318 0)
(-0.0511305 -0.000519378 0)
(-0.0508957 -0.000569845 0)
(-0.0506397 -0.000621776 0)
(-0.050362 -0.000675226 0)
(-0.0500619 -0.000730249 0)
(-0.0497388 -0.000786895 0)
(-0.049392 -0.000845214 0)
(-0.0490209 -0.000905248 0)
(-0.0486247 -0.000967033 0)
(-0.0482027 -0.0010306 0)
(-0.0477543 -0.00109596 0)
(-0.0472787 -0.00116314 0)
(-0.0467753 -0.00123213 0)
(-0.0462431 -0.00130294 0)
(-0.0456817 -0.00137554 0)
(-0.0450902 -0.00144991 0)
(-0.0444681 -0.00152602 0)
(-0.0438145 -0.0016038 0)
(-0.0431289 -0.00168318 0)
(-0.0424107 -0.00176409 0)
(-0.0416592 -0.00184642 0)
(-0.0408741 -0.00193003 0)
(-0.0400547 -0.0020148 0)
(-0.0392008 -0.00210055 0)
(-0.0383119 -0.00218709 0)
(-0.0373879 -0.00227419 0)
(-0.0364286 -0.00236162 0)
(-0.035434 -0.00244907 0)
(-0.0344041 -0.00253621 0)
(-0.0333393 -0.00262267 0)
(-0.0322399 -0.00270803 0)
(-0.0311066 -0.0027918 0)
(-0.0299402 -0.00287343 0)
(-0.0287416 -0.00295233 0)
(-0.0275123 -0.00302778 0)
(-0.0262538 -0.00309901 0)
(-0.024968 -0.00316514 0)
(-0.0236574 -0.00322517 0)
(-0.0223247 -0.00327801 0)
(-0.020973 -0.00332243 0)
(-0.019606 -0.00335707 0)
(-0.0182281 -0.00338045 0)
(-0.0168441 -0.00339094 0)
(-0.0154595 -0.00338675 0)
(-0.0140805 -0.00336599 0)
(-0.012714 -0.00332663 0)
(-0.0113678 -0.00326655 0)
(-0.0100501 -0.00318359 0)
(-0.00877028 -0.00307556 0)
(-0.00753807 -0.00294034 0)
(-0.00636396 -0.002776 0)
(-0.00525888 -0.00258096 0)
(-0.00423402 -0.00235425 0)
(-0.00330053 -0.00209581 0)
(-0.00246907 -0.0018071 0)
(-0.00174933 -0.00149184 0)
(-0.00114934 -0.00115723 0)
(-0.000674307 -0.000815643 0)
(-0.000325463 -0.000486914 0)
(-0.000103482 -0.000201623 0)
(-1.22362e-05 -9.91821e-06 0)
(-1.4873e-05 3.6686e-05 0)
(-0.000114291 0.000273235 0)
(-0.000346603 0.000603587 0)
(-0.000702218 0.00098009 0)
(-0.00117736 0.00137161 0)
(-0.00176959 0.0017567 0)
(-0.00247336 0.00212115 0)
(-0.00328093 0.00245618 0)
(-0.00418324 0.00275693 0)
(-0.00517039 0.00302129 0)
(-0.00623211 0.00324908 0)
(-0.00735814 0.00344141 0)
(-0.00853847 0.00360025 0)
(-0.00976361 0.00372807 0)
(-0.0110247 0.00382764 0)
(-0.0123135 0.0039018 0)
(-0.0136228 0.00395339 0)
(-0.0149457 0.00398512 0)
(-0.0162765 0.00399955 0)
(-0.0176099 0.00399901 0)
(-0.0189415 0.00398566 0)
(-0.0202672 0.0039614 0)
(-0.0215838 0.0039279 0)
(-0.0228883 0.00388664 0)
(-0.0241784 0.0038389 0)
(-0.025452 0.00378576 0)
(-0.0267073 0.00372815 0)
(-0.0279429 0.00366688 0)
(-0.0291576 0.00360261 0)
(-0.0303504 0.0035359 0)
(-0.0315205 0.00346722 0)
(-0.0326674 0.00339698 0)
(-0.0337904 0.00332551 0)
(-0.0348891 0.00325309 0)
(-0.0359632 0.00317997 0)
(-0.0370126 0.00310635 0)
(-0.0380369 0.00303241 0)
(-0.0390363 0.00295832 0)
(-0.0400105 0.0028842 0)
(-0.0409596 0.00281018 0)
(-0.0418836 0.00273637 0)
(-0.0427827 0.00266285 0)
(-0.043657 0.00258973 0)
(-0.0445065 0.00251708 0)
(-0.0453315 0.00244496 0)
(-0.0461321 0.00237344 0)
(-0.0469087 0.00230259 0)
(-0.0476614 0.00223244 0)
(-0.0483905 0.00216305 0)
(-0.0490962 0.00209446 0)
(-0.0497789 0.00202669 0)
(-0.0504388 0.00195976 0)
(-0.0510762 0.00189371 0)
(-0.0516915 0.00182856 0)
(-0.0522849 0.00176431 0)
(-0.0528568 0.00170097 0)
(-0.0534075 0.00163855 0)
(-0.0539373 0.00157703 0)
(-0.0544465 0.00151642 0)
(-0.0549354 0.00145671 0)
(-0.0554043 0.00139788 0)
(-0.0558536 0.0013399 0)
(-0.0562834 0.00128276 0)
(-0.0566942 0.00122643 0)
(-0.0570861 0.00117087 0)
(-0.0574594 0.00111604 0)
(-0.0578143 0.00106191 0)
(-0.0581511 0.00100843 0)
(-0.05847 0.000955556 0)
(-0.0587711 0.000903224 0)
(-0.0590547 0.000851383 0)
(-0.0593209 0.000799976 0)
(-0.0595699 0.00074894 0)
(-0.0598018 0.000698213 0)
(-0.0600166 0.00064773 0)
(-0.0602145 0.000597427 0)
(-0.0603955 0.000547233 0)
(-0.0605596 0.000497079 0)
(-0.0607069 0.000446891 0)
(-0.0608373 0.000396598 0)
(-0.0609508 0.000346123 0)
(-0.0610473 0.000295386 0)
(-0.0611267 0.000244304 0)
(-0.061189 0.000192793 0)
(-0.0612338 0.000140766 0)
(-0.0612611 8.81328e-05 0)
(-0.0612707 3.47993e-05 0)
(-0.0612623 -1.93278e-05 0)
(-0.0612356 -7.43419e-05 0)
(-0.0611903 -0.000130339 0)
(-0.0611261 -0.000187415 0)
(-0.0610427 -0.000245669 0)
(-0.0609397 -0.000305195 0)
(-0.0608165 -0.000366089 0)
(-0.0606728 -0.00042845 0)
(-0.0605081 -0.000492374 0)
(-0.0603219 -0.000557956 0)
(-0.0601137 -0.000625287 0)
(-0.0598827 -0.000694456 0)
(-0.0596285 -0.000765552 0)
(-0.0593504 -0.000838663 0)
(-0.0590478 -0.000913873 0)
(-0.0587199 -0.000991262 0)
(-0.0583661 -0.00107091 0)
(-0.0579856 -0.00115287 0)
(-0.0575776 -0.00123724 0)
(-0.0571415 -0.00132405 0)
(-0.0566763 -0.00141336 0)
(-0.0561813 -0.00150521 0)
(-0.0556557 -0.00159962 0)
(-0.0550987 -0.00169663 0)
(-0.0545094 -0.00179622 0)
(-0.0538871 -0.00189839 0)
(-0.0532308 -0.00200312 0)
(-0.0525399 -0.00211037 0)
(-0.0518135 -0.00222007 0)
(-0.0510509 -0.00233216 0)
(-0.0502513 -0.00244652 0)
(-0.0494141 -0.00256302 0)
(-0.0485386 -0.00268153 0)
(-0.0476242 -0.00280186 0)
(-0.0466704 -0.00292379 0)
(-0.0456768 -0.00304709 0)
(-0.044643 -0.00317148 0)
(-0.0435687 -0.00329663 0)
(-0.0424538 -0.00342218 0)
(-0.0412984 -0.0035477 0)
(-0.0401024 -0.00367271 0)
(-0.0388664 -0.00379667 0)
(-0.0375906 -0.00391896 0)
(-0.0362759 -0.00403889 0)
(-0.0349232 -0.00415567 0)
(-0.0335338 -0.00426842 0)
(-0.0321092 -0.00437613 0)
(-0.0306513 -0.00447767 0)
(-0.0291624 -0.00457179 0)
(-0.0276451 -0.00465706 0)
(-0.0261026 -0.00473192 0)
(-0.0245387 -0.00479462 0)
(-0.0229575 -0.00484325 0)
(-0.021364 -0.00487569 0)
(-0.0197638 -0.00488966 0)
(-0.018163 -0.00488266 0)
(-0.0165688 -0.00485205 0)
(-0.0149888 -0.00479504 0)
(-0.0134318 -0.00470875 0)
(-0.0119072 -0.00459022 0)
(-0.010425 -0.00443654 0)
(-0.00899623 -0.00424493 0)
(-0.00763233 -0.00401295 0)
(-0.00634524 -0.00373865 0)
(-0.00514714 -0.00342097 0)
(-0.00405011 -0.00306015 0)
(-0.0030658 -0.00265839 0)
(-0.00220496 -0.00222072 0)
(-0.00147694 -0.00175629 0)
(-0.000888713 -0.00128011 0)
(-0.000444028 -0.000815168 0)
(-0.000149452 -0.000395321 0)
(-2.05246e-05 -7.31968e-05 0)
(-2.13313e-05 0.000103572 0)
(-0.000151536 0.00047205 0)
(-0.000444453 0.000933681 0)
(-0.000880792 0.00143974 0)
(-0.00145145 0.00195715 0)
(-0.00215131 0.00246243 0)
(-0.00297293 0.00293953 0)
(-0.00390707 0.00337824 0)
(-0.00494356 0.00377272 0)
(-0.00607162 0.0041203 0)
(-0.00728021 0.00442066 0)
(-0.00855833 0.00467505 0)
(-0.00989528 0.00488581 0)
(-0.0112809 0.005056 0)
(-0.0127055 0.00518904 0)
(-0.0141605 0.00528853 0)
(-0.0156377 0.00535808 0)
(-0.0171299 0.00540118 0)
(-0.0186306 0.00542114 0)
(-0.0201341 0.00542101 0)
(-0.0216355 0.00540358 0)
(-0.0231303 0.00537137 0)
(-0.0246148 0.0053266 0)
(-0.0260857 0.00527123 0)
(-0.0275404 0.00520698 0)
(-0.0289764 0.0051353 0)
(-0.0303919 0.00505745 0)
(-0.0317851 0.00497452 0)
(-0.0331547 0.00488741 0)
(-0.0344995 0.0047969 0)
(-0.0358187 0.00470363 0)
(-0.0371115 0.00460816 0)
(-0.0383772 0.00451095 0)
(-0.0396154 0.0044124 0)
(-0.0408257 0.00431286 0)
(-0.0420079 0.0042126 0)
(-0.0431617 0.00411188 0)
(-0.044287 0.00401093 0)
(-0.0453839 0.00390993 0)
(-0.0464523 0.00380905 0)
(-0.0474922 0.00370845 0)
(-0.0485037 0.00360827 0)
(-0.049487 0.00350861 0)
(-0.0504423 0.00340959 0)
(-0.0513698 0.00331133 0)
(-0.0522696 0.00321389 0)
(-0.0531421 0.00311735 0)
(-0.0539876 0.0030218 0)
(-0.0548062 0.00292728 0)
(-0.0555984 0.00283386 0)
(-0.0563645 0.00274157 0)
(-0.0571047 0.00265045 0)
(-0.0578196 0.00256054 0)
(-0.0585093 0.00247185 0)
(-0.0591743 0.0023844 0)
(-0.0598149 0.00229821 0)
(-0.0604315 0.00221326 0)
(-0.0610245 0.00212957 0)
(-0.0615941 0.00204711 0)
(-0.0621409 0.00196588 0)
(-0.062665 0.00188585 0)
(-0.0631669 0.00180699 0)
(-0.0636469 0.00172927 0)
(-0.0641052 0.00165264 0)
(-0.0645423 0.00157707 0)
(-0.0649583 0.0015025 0)
(-0.0653536 0.00142888 0)
(-0.0657285 0.00135613 0)
(-0.0660831 0.00128421 0)
(-0.0664176 0.00121304 0)
(-0.0667324 0.00114254 0)
(-0.0670276 0.00107264 0)
(-0.0673033 0.00100325 0)
(-0.0675596 0.000934282 0)
(-0.0677968 0.000865659 0)
(-0.0680148 0.000797286 0)
(-0.0682138 0.00072907 0)
(-0.0683937 0.000660916 0)
(-0.0685547 0.000592727 0)
(-0.0686966 0.000524399 0)
(-0.0688195 0.000455828 0)
(-0.0689232 0.000386906 0)
(-0.0690077 0.000317523 0)
(-0.0690727 0.000247563 0)
(-0.0691183 0.000176909 0)
(-0.069144 0.00010544 0)
(-0.0691498 3.3032e-05 0)
(-0.0691353 -4.04387e-05 0)
(-0.0691003 -0.000115098 0)
(-0.0690443 -0.000191075 0)
(-0.0689671 -0.000268497 0)
(-0.0688683 -0.000347495 0)
(-0.0687473 -0.000428199 0)
(-0.0686038 -0.000510736 0)
(-0.0684372 -0.000595236 0)
(-0.068247 -0.000681828 0)
(-0.0680326 -0.00077064 0)
(-0.0677935 -0.000861796 0)
(-0.0675289 -0.000955417 0)
(-0.0672383 -0.00105162 0)
(-0.0669208 -0.00115052 0)
(-0.0665758 -0.00125224 0)
(-0.0662025 -0.00135687 0)
(-0.0658001 -0.00146453 0)
(-0.0653678 -0.0015753 0)
(-0.0649048 -0.00168927 0)
(-0.0644101 -0.00180652 0)
(-0.063883 -0.00192711 0)
(-0.0633226 -0.00205109 0)
(-0.0627279 -0.00217849 0)
(-0.062098 -0.00230935 0)
(-0.0614321 -0.00244367 0)
(-0.0607291 -0.00258143 0)
(-0.0599883 -0.0027226 0)
(-0.0592087 -0.00286712 0)
(-0.0583895 -0.00301491 0)