/*--------------------------------*- C++ -*----------------------------------*\
  =========                 |
  \\      /  F ield         | OpenFOAM: The Open Source CFD Toolbox
   \\    /   O peration     | Website:  https://openfoam.org
    \\  /    A nd           | Version:  7
     \\/     M anipulation  |
\*---------------------------------------------------------------------------*/
FoamFile
{
    version     2.0;
    format      ascii;
    class       volVectorField;
    location    "0.0125";
    object      U;
}
// * * * * * * * * * * * * * * * * * * * * * * * * * * * * * * * * * * * * * //

dimensions      [0 1 -1 0 0 0 0];

internalField   nonuniform List<vector> 
12800
(
(0.000158511 6.47131e-05 0)
(-0.000123338 0.000967472 0)
(-0.00219613 0.00218239 0)
(-0.00577468 0.00275405 0)
(-0.0100068 0.00287062 0)
(-0.0141286 0.00268379 0)
(-0.0177994 0.00233763 0)
(-0.020876 0.0019242 0)
(-0.0232882 0.00150613 0)
(-0.0250769 0.00108793 0)
(-0.0263038 0.000740003 0)
(-0.027047 0.000423661 0)
(-0.0274115 0.000185032 0)
(-0.0274601 4.67021e-06 0)
(-0.0272929 -0.000140745 0)
(-0.0269544 -0.000229504 0)
(-0.0264945 -0.000276692 0)
(-0.0259828 -0.000325655 0)
(-0.0254088 -0.000333465 0)
(-0.024804 -0.000339355 0)
(-0.0242266 -0.000346034 0)
(-0.0236278 -0.000325496 0)
(-0.0230553 -0.00030963 0)
(-0.022527 -0.000305648 0)
(-0.0219936 -0.000293418 0)
(-0.0214959 -0.000265492 0)
(-0.0210373 -0.00025259 0)
(-0.0205773 -0.000248016 0)
(-0.0201285 -0.000247318 0)
(-0.0196866 -0.000274322 0)
(-0.0192395 -0.000308607 0)
(-0.0187869 -0.000324937 0)
(-0.0183385 -0.000321293 0)
(-0.0179107 -0.000308957 0)
(-0.0174919 -0.000296461 0)
(-0.0170797 -0.000291514 0)
(-0.0166741 -0.00030467 0)
(-0.016272 -0.000322972 0)
(-0.0158669 -0.000336808 0)
(-0.0154524 -0.000346401 0)
(-0.0150415 -0.000350413 0)
(-0.0146318 -0.000356119 0)
(-0.0142201 -0.000359599 0)
(-0.0138199 -0.000355446 0)
(-0.0134351 -0.000350079 0)
(-0.0130684 -0.000343317 0)
(-0.0127229 -0.000332406 0)
(-0.0124017 -0.000317143 0)
(-0.0121125 -0.000298934 0)
(-0.0118579 -0.000280285 0)
(-0.0116445 -0.000254684 0)
(-0.0114843 -0.00021574 0)
(-0.0113872 -0.000169552 0)
(-0.0113657 -0.00012117 0)
(-0.0114284 -7.08626e-05 0)
(-0.0115693 -2.4181e-05 0)
(-0.0117803 1.39493e-05 0)
(-0.0120537 4.41294e-05 0)
(-0.0123697 6.48716e-05 0)
(-0.012704 7.37154e-05 0)
(-0.013041 7.31242e-05 0)
(-0.0133682 6.63143e-05 0)
(-0.0136729 5.37723e-05 0)
(-0.0139501 3.70656e-05 0)
(-0.0142021 1.96969e-05 0)
(-0.0144279 4.05466e-06 0)
(-0.0146243 -9.3979e-06 0)
(-0.0147917 -2.22701e-05 0)
(-0.0149298 -3.83293e-05 0)
(-0.0150312 -6.02807e-05 0)
(-0.0150848 -8.68253e-05 0)
(-0.0150841 -0.000114995 0)
(-0.0150277 -0.00014332 0)
(-0.0149164 -0.000170571 0)
(-0.0147538 -0.000193837 0)
(-0.0145491 -0.000210091 0)
(-0.0143161 -0.000218162 0)
(-0.0140689 -0.000218109 0)
(-0.0138213 -0.000210242 0)
(-0.0135858 -0.000195582 0)
(-0.0133726 -0.000175842 0)
(-0.0131876 -0.000152273 0)
(-0.0130331 -0.000125979 0)
(-0.0129095 -9.99243e-05 0)
(-0.0128146 -7.86094e-05 0)
(-0.0127411 -6.44756e-05 0)
(-0.0126781 -5.64108e-05 0)
(-0.0126138 -5.30037e-05 0)
(-0.0125387 -5.5493e-05 0)
(-0.012445 -6.58164e-05 0)
(-0.0123255 -8.32933e-05 0)
(-0.0121728 -0.000104888 0)
(-0.0119804 -0.000128352 0)
(-0.0117441 -0.000153852 0)
(-0.0114605 -0.000182164 0)
(-0.011127 -0.000212339 0)
(-0.0107425 -0.000242039 0)
(-0.0103088 -0.000269555 0)
(-0.00983101 -0.000294119 0)
(-0.0093168 -0.000314187 0)
(-0.00877646 -0.000326857 0)
(-0.00822317 -0.000329687 0)
(-0.00767284 -0.000322467 0)
(-0.00714276 -0.000306328 0)
(-0.00664991 -0.000281281 0)
(-0.00621041 -0.000245516 0)
(-0.00583985 -0.000197868 0)
(-0.00555268 -0.00014086 0)
(-0.00535961 -8.07665e-05 0)
(-0.00526379 -2.43421e-05 0)
(-0.00525814 2.38458e-05 0)
(-0.00532567 6.11928e-05 0)
(-0.00544226 8.51433e-05 0)
(-0.00558032 9.27054e-05 0)
(-0.00571213 8.25139e-05 0)
(-0.00581293 5.7153e-05 0)
(-0.0058637 2.28391e-05 0)
(-0.00585322 -1.3544e-05 0)
(-0.00577855 -4.73115e-05 0)
(-0.00564415 -7.64836e-05 0)
(-0.00546009 -0.000100061 0)
(-0.00523975 -0.000116547 0)
(-0.00499702 -0.000124421 0)
(-0.00474398 -0.000123637 0)
(-0.00448967 -0.000116228 0)
(-0.00424067 -0.000105333 0)
(-0.00400234 -9.31583e-05 0)
(-0.00377925 -8.00863e-05 0)
(-0.00357453 -6.56564e-05 0)
(-0.00338936 -5.00334e-05 0)
(-0.00322295 -3.4395e-05 0)
(-0.00307268 -2.03453e-05 0)
(-0.00293494 -8.94505e-06 0)
(-0.00280658 -1.28899e-07 0)
(-0.00268531 6.66429e-06 0)
(-0.00256845 1.1412e-05 0)
(-0.00245285 1.36914e-05 0)
(-0.00233684 1.36468e-05 0)
(-0.0022206 1.20605e-05 0)
(-0.0021051 9.97572e-06 0)
(-0.00199144 8.27189e-06 0)
(-0.00187891 7.00119e-06 0)
(-0.00176397 6.08488e-06 0)
(-0.00164336 5.24478e-06 0)
(-0.00151463 1.97812e-06 0)
(-0.00137503 -5.44421e-06 0)
(-0.00122533 -1.44344e-05 0)
(-0.00106938 -2.17671e-05 0)
(-0.000912623 -2.46513e-05 0)
(-0.000764953 -2.14141e-05 0)
(-0.000634056 -1.32316e-05 0)
(-0.000524856 1.55117e-06 0)
(-0.000447582 2.33759e-05 0)
(-0.00040949 4.55957e-05 0)
(-0.000409206 6.36037e-05 0)
(-0.000435365 7.47074e-05 0)
(-0.000460575 6.60611e-05 0)
(-0.000443438 1.788e-05 0)
(-0.000286577 -7.28921e-05 0)
(-0.000105911 -9.40886e-05 0)
(0.00114367 -0.00042503 0)
(0.00192722 0.00139608 0)
(0.000742063 0.00476064 0)
(-0.00296779 0.00659739 0)
(-0.00796705 0.00707235 0)
(-0.0132565 0.00669501 0)
(-0.0183304 0.00588977 0)
(-0.0228602 0.00484476 0)
(-0.0267512 0.00378607 0)
(-0.0299131 0.00277619 0)
(-0.032405 0.00187572 0)
(-0.0343213 0.00110357 0)
(-0.0356855 0.000512678 0)
(-0.0366476 9.21668e-06 0)
(-0.0372436 -0.000317159 0)
(-0.0375488 -0.000585257 0)
(-0.0376803 -0.000765261 0)
(-0.0376338 -0.000873586 0)
(-0.0374844 -0.000944105 0)
(-0.0372967 -0.000974768 0)
(-0.0370088 -0.000976803 0)
(-0.0367239 -0.000949516 0)
(-0.0364378 -0.000927792 0)
(-0.0361231 -0.000884139 0)
(-0.0358389 -0.000841977 0)
(-0.0355566 -0.000810259 0)
(-0.0352798 -0.000770973 0)
(-0.0350199 -0.000744793 0)
(-0.0347605 -0.000727498 0)
(-0.0344904 -0.00072845 0)
(-0.03421 -0.000740959 0)
(-0.0339273 -0.000743596 0)
(-0.0336469 -0.000737993 0)
(-0.0333717 -0.000715986 0)
(-0.0330934 -0.000688791 0)
(-0.0328188 -0.000664516 0)
(-0.032549 -0.000657784 0)
(-0.0322706 -0.000669357 0)
(-0.0319915 -0.000674334 0)
(-0.0317101 -0.000677186 0)
(-0.0314185 -0.000680353 0)
(-0.0311253 -0.000676217 0)
(-0.0308341 -0.000664557 0)
(-0.0305446 -0.000641554 0)
(-0.030266 -0.000613491 0)
(-0.0300125 -0.00058153 0)
(-0.029789 -0.000536327 0)
(-0.0295909 -0.000483493 0)
(-0.0294302 -0.00042756 0)
(-0.0293272 -0.00036111 0)
(-0.0292811 -0.000278892 0)
(-0.0292926 -0.000176557 0)
(-0.0293821 -5.31863e-05 0)
(-0.0295607 8.11282e-05 0)
(-0.0298285 0.000215659 0)
(-0.0301867 0.000345661 0)
(-0.0306225 0.000461286 0)
(-0.0311161 0.000546164 0)
(-0.031662 0.000593728 0)
(-0.0322446 0.00061212 0)
(-0.0328253 0.000608817 0)
(-0.0333821 0.000583735 0)
(-0.0339203 0.000540704 0)
(-0.0344328 0.000491132 0)
(-0.0348975 0.000442276 0)
(-0.0353099 0.000393023 0)
(-0.0356806 0.000341578 0)
(-0.0360066 0.000287088 0)
(-0.0362754 0.000225061 0)
(-0.0364841 0.000150421 0)
(-0.036632 6.41668e-05 0)
(-0.0367099 -2.84956e-05 0)
(-0.0367113 -0.00012342 0)
(-0.0366438 -0.000215827 0)
(-0.0365186 -0.000296703 0)
(-0.0363399 -0.000356479 0)
(-0.0361134 -0.000391595 0)
(-0.0358555 -0.0004046 0)
(-0.0355874 -0.000398929 0)
(-0.0353229 -0.000376143 0)
(-0.0350683 -0.000337959 0)
(-0.0348283 -0.000288921 0)
(-0.0346079 -0.000236294 0)
(-0.0344102 -0.000187896 0)
(-0.034234 -0.00015 0)
(-0.0340738 -0.000126238 0)
(-0.0339195 -0.000117981 0)
(-0.0337577 -0.000125898 0)
(-0.0335763 -0.000150627 0)
(-0.0333673 -0.000191372 0)
(-0.0331239 -0.000245223 0)
(-0.0328358 -0.000308987 0)
(-0.0324904 -0.000381093 0)
(-0.0320783 -0.000460935 0)
(-0.0315967 -0.000546865 0)
(-0.0310476 -0.000635389 0)
(-0.0304337 -0.000722189 0)
(-0.0297577 -0.000803137 0)
(-0.0290243 -0.000873784 0)
(-0.0282421 -0.000928507 0)
(-0.0274245 -0.000961553 0)
(-0.0265887 -0.000969249 0)
(-0.0257549 -0.000950541 0)
(-0.0249442 -0.000904965 0)
(-0.0241757 -0.000830947 0)
(-0.0234654 -0.000727063 0)
(-0.0228282 -0.000595346 0)
(-0.0222792 -0.000443567 0)
(-0.0218314 -0.000283951 0)
(-0.0214889 -0.000129932 0)
(-0.0212418 5.56961e-06 0)
(-0.0210679 0.000110141 0)
(-0.0209393 0.000172701 0)
(-0.0208292 0.000186703 0)
(-0.0207127 0.000153646 0)
(-0.0205658 8.32771e-05 0)
(-0.0203652 -1.03092e-05 0)
(-0.0200925 -0.000113541 0)
(-0.0197395 -0.000215689 0)
(-0.0193099 -0.000308418 0)
(-0.0188152 -0.000384821 0)
(-0.0182689 -0.000439961 0)
(-0.0176826 -0.000472493 0)
(-0.0170653 -0.000485276 0)
(-0.016426 -0.000483745 0)
(-0.0157747 -0.000472964 0)
(-0.0151219 -0.000455351 0)
(-0.0144756 -0.000431291 0)
(-0.01384 -0.000402018 0)
(-0.0132166 -0.000371149 0)
(-0.0126057 -0.000342864 0)
(-0.0120069 -0.000319516 0)
(-0.0114191 -0.000301469 0)
(-0.0108401 -0.000288002 0)
(-0.0102669 -0.000277984 0)
(-0.00969686 -0.000270944 0)
(-0.00912862 -0.000267417 0)
(-0.00856397 -0.000267277 0)
(-0.00800637 -0.000268799 0)
(-0.0074581 -0.000270244 0)
(-0.00691793 -0.000271002 0)
(-0.0063814 -0.000271808 0)
(-0.00584507 -0.000275159 0)
(-0.00531119 -0.000283288 0)
(-0.00478626 -0.000295779 0)
(-0.00427656 -0.000309775 0)
(-0.00378606 -0.000319058 0)
(-0.00331676 -0.000317383 0)
(-0.00287321 -0.000304339 0)
(-0.00246408 -0.000279432 0)
(-0.00209714 -0.000239928 0)
(-0.00178037 -0.000187257 0)
(-0.00152498 -0.000125477 0)
(-0.00133551 -6.36926e-05 0)
(-0.00120035 -1.1953e-05 0)
(-0.00109746 1.36607e-05 0)
(-0.000985608 -2.24223e-05 0)
(-0.000803861 -0.000155247 0)
(-0.00048375 -0.000375781 0)
(-0.000145279 -0.000311154 0)
(0.00235559 -0.0027946 0)
(0.00523186 -0.000173647 0)
(0.00677676 0.00606853 0)
(0.00569666 0.00987456 0)
(0.00296888 0.0112555 0)
(-0.000424439 0.0112037 0)
(-0.00412453 0.010223 0)
(-0.00781658 0.00888452 0)
(-0.0112698 0.0073227 0)
(-0.0144659 0.00582326 0)
(-0.0173201 0.00440844 0)
(-0.0198119 0.0032148 0)
(-0.0220253 0.00216491 0)
(-0.0238886 0.00137894 0)
(-0.0255004 0.000710422 0)
(-0.0269229 0.00023173 0)
(-0.0280959 -0.00013991 0)
(-0.0291732 -0.000400509 0)
(-0.0301238 -0.000585402 0)
(-0.0309382 -0.000696037 0)
(-0.031715 -0.000749411 0)
(-0.0324183 -0.00079014 0)
(-0.0330559 -0.000769401 0)
(-0.0336767 -0.000758878 0)
(-0.0342653 -0.000732861 0)
(-0.0348077 -0.000699449 0)
(-0.0353375 -0.000685178 0)
(-0.0358568 -0.000673655 0)
(-0.0363446 -0.000666533 0)
(-0.036822 -0.000667517 0)
(-0.0372896 -0.000675468 0)
(-0.0377227 -0.000681205 0)
(-0.0381371 -0.000683402 0)
(-0.0385469 -0.000676916 0)
(-0.0389337 -0.000662873 0)
(-0.0392966 -0.000655248 0)
(-0.0396549 -0.000653504 0)
(-0.0399982 -0.000663206 0)
(-0.0403166 -0.000679582 0)
(-0.0406294 -0.000690263 0)
(-0.0409361 -0.000699875 0)
(-0.0412258 -0.000702585 0)
(-0.0415026 -0.000690107 0)
(-0.0417742 -0.000664544 0)
(-0.0420485 -0.000626403 0)
(-0.0423247 -0.000577833 0)
(-0.0426039 -0.000514198 0)
(-0.0428968 -0.00043142 0)
(-0.0432071 -0.000340448 0)
(-0.0435424 -0.000238499 0)
(-0.0439085 -0.000106783 0)
(-0.044295 5.27174e-05 0)
(-0.0447083 0.000227469 0)
(-0.0451684 0.000418365 0)
(-0.0456639 0.000619857 0)
(-0.0461744 0.000810332 0)
(-0.0467085 0.000972403 0)
(-0.0472736 0.0010965 0)
(-0.0478523 0.0011737 0)
(-0.0484299 0.00120262 0)
(-0.0490067 0.00119188 0)
(-0.0495784 0.00115059 0)
(-0.0501319 0.00108576 0)
(-0.0506584 0.00100588 0)
(-0.0511552 0.000918793 0)
(-0.0516155 0.000828077 0)
(-0.0520315 0.000733055 0)
(-0.0524028 0.000629264 0)
(-0.0527331 0.000511056 0)
(-0.0530187 0.000377124 0)
(-0.0532511 0.000231247 0)
(-0.0534291 7.73065e-05 0)
(-0.0535616 -8.10411e-05 0)
(-0.0536549 -0.000234708 0)
(-0.053707 -0.000369204 0)
(-0.0537147 -0.000473117 0)
(-0.0536834 -0.000543531 0)
(-0.053623 -0.000582429 0)
(-0.0535405 -0.000591779 0)
(-0.0534394 -0.000574089 0)
(-0.0533221 -0.000534917 0)
(-0.0531914 -0.000482334 0)
(-0.0530492 -0.000424886 0)
(-0.0528973 -0.000371272 0)
(-0.0527376 -0.000330424 0)
(-0.052569 -0.0003096 0)
(-0.0523862 -0.000312321 0)
(-0.0521822 -0.000339053 0)
(-0.0519536 -0.00038935 0)
(-0.0516998 -0.000462432 0)
(-0.0514177 -0.000556264 0)
(-0.0510982 -0.000667392 0)
(-0.0507312 -0.000792109 0)
(-0.0503128 -0.000927292 0)
(-0.0498459 -0.00106987 0)
(-0.0493349 -0.00121557 0)
(-0.048781 -0.00135836 0)
(-0.0481841 -0.00149085 0)
(-0.047546 -0.00160491 0)
(-0.046873 -0.00169254 0)
(-0.046174 -0.00174698 0)
(-0.0454587 -0.00176376 0)
(-0.0447363 -0.00174034 0)
(-0.0440155 -0.00167494 0)
(-0.0433042 -0.00156615 0)
(-0.0426086 -0.00141473 0)
(-0.0419349 -0.00122608 0)
(-0.0412891 -0.00101144 0)
(-0.0406751 -0.000786539 0)
(-0.0400915 -0.00056962 0)
(-0.0395301 -0.000379951 0)
(-0.0389799 -0.000236415 0)
(-0.0384318 -0.000154415 0)
(-0.0378797 -0.000141447 0)
(-0.0373174 -0.000194306 0)
(-0.0367352 -0.000300526 0)
(-0.0361198 -0.000443111 0)
(-0.0354598 -0.000604934 0)
(-0.0347497 -0.000770365 0)
(-0.0339899 -0.000925217 0)
(-0.0331832 -0.00105759 0)
(-0.0323307 -0.0011601 0)
(-0.0314326 -0.00123157 0)
(-0.0304902 -0.00127613 0)
(-0.0295088 -0.00129998 0)
(-0.0284964 -0.00130777 0)
(-0.0274605 -0.00130133 0)
(-0.0264059 -0.00128163 0)
(-0.0253351 -0.00125199 0)
(-0.0242502 -0.00121866 0)
(-0.023155 -0.00118783 0)
(-0.0220533 -0.00116272 0)
(-0.0209472 -0.00114356 0)
(-0.0198371 -0.00112888 0)
(-0.0187238 -0.00111695 0)
(-0.0176092 -0.00110692 0)
(-0.016497 -0.00109864 0)
(-0.0153926 -0.00109134 0)
(-0.0143008 -0.00108351 0)
(-0.0132236 -0.00107377 0)
(-0.0121604 -0.00106129 0)
(-0.0111106 -0.00104724 0)
(-0.0100776 -0.00103444 0)
(-0.00907229 -0.00102403 0)
(-0.00810845 -0.00101449 0)
(-0.00719464 -0.00100076 0)
(-0.00633445 -0.000974219 0)
(-0.00552966 -0.000929793 0)
(-0.00478407 -0.00086701 0)
(-0.00410468 -0.000784604 0)
(-0.00349576 -0.000682771 0)
(-0.00296016 -0.000565112 0)
(-0.00250143 -0.000440691 0)
(-0.00211269 -0.000322709 0)
(-0.00177862 -0.000229225 0)
(-0.00148058 -0.000193015 0)
(-0.00117962 -0.000249004 0)
(-0.000852473 -0.000455144 0)
(-0.000456834 -0.000776866 0)
(-0.000115209 -0.000597787 0)
(0.00290086 -0.0066178 0)
(0.00694325 -0.00412973 0)
(0.0102787 0.00496101 0)
(0.0110193 0.0107999 0)
(0.0100547 0.0134518 0)
(0.00815703 0.0140396 0)
(0.00570198 0.0134384 0)
(0.00295508 0.0121399 0)
(3.32959e-06 0.0105559 0)
(-0.00291682 0.00889513 0)
(-0.00578108 0.00730079 0)
(-0.00859052 0.00586066 0)
(-0.0112045 0.0046199 0)
(-0.0137009 0.00358747 0)
(-0.0160601 0.00273419 0)
(-0.0182161 0.0020741 0)
(-0.0203012 0.00154869 0)
(-0.0222267 0.0011406 0)
(-0.0240511 0.000864045 0)
(-0.0257965 0.000651382 0)
(-0.0274364 0.000503219 0)
(-0.0290057 0.000412732 0)
(-0.0305134 0.000355204 0)
(-0.0319612 0.000319179 0)
(-0.0333499 0.000308509 0)
(-0.0346955 0.000297263 0)
(-0.0359867 0.000272185 0)
(-0.0372339 0.000246689 0)
(-0.0384476 0.000213377 0)
(-0.0396323 0.000173273 0)
(-0.0407912 0.000142135 0)
(-0.041919 0.00012069 0)
(-0.0430126 9.47115e-05 0)
(-0.0440644 6.71685e-05 0)
(-0.0450779 5.1925e-05 0)
(-0.0460601 3.22626e-05 0)
(-0.0470162 2.0671e-06 0)
(-0.0479443 -2.73488e-05 0)
(-0.0488402 -5.96119e-05 0)
(-0.0497172 -9.30316e-05 0)
(-0.0505729 -0.000121726 0)
(-0.0514 -0.000139004 0)
(-0.0522073 -0.000138967 0)
(-0.0529934 -0.000128779 0)
(-0.0537611 -0.000105295 0)
(-0.0545165 -5.77023e-05 0)
(-0.0552525 4.02146e-06 0)
(-0.0559768 7.72354e-05 0)
(-0.0567035 0.000174971 0)
(-0.0574231 0.000294638 0)
(-0.0581308 0.000432691 0)
(-0.0588389 0.000598793 0)
(-0.0595435 0.000789185 0)
(-0.0602294 0.000987435 0)
(-0.0609021 0.00118639 0)
(-0.0615692 0.00137902 0)
(-0.0622162 0.00154595 0)
(-0.0628385 0.00166848 0)
(-0.0634551 0.00174079 0)
(-0.0640683 0.00176621 0)
(-0.0646576 0.00174978 0)
(-0.0652238 0.00169562 0)
(-0.065786 0.00160991 0)
(-0.0663371 0.00150396 0)
(-0.0668511 0.00138907 0)
(-0.067324 0.00126761 0)
(-0.0677706 0.00113429 0)
(-0.0681902 0.000985695 0)
(-0.0685685 0.00082363 0)
(-0.068902 0.000650101 0)
(-0.0692002 0.000464944 0)
(-0.0694691 0.000270135 0)
(-0.0697077 7.32561e-05 0)
(-0.0699157 -0.000114393 0)
(-0.0700943 -0.000281627 0)
(-0.070242 -0.000419629 0)
(-0.0703571 -0.00052322 0)
(-0.0704408 -0.00059178 0)
(-0.0704956 -0.000628423 0)
(-0.0705207 -0.000637587 0)
(-0.0705131 -0.00062398 0)
(-0.0704712 -0.000594165 0)
(-0.0703973 -0.00055786 0)
(-0.070295 -0.000526201 0)
(-0.070166 -0.000508376 0)
(-0.0700084 -0.000509939 0)
(-0.0698201 -0.000533891 0)
(-0.0696011 -0.000582646 0)
(-0.0693547 -0.000658297 0)
(-0.0690835 -0.000760981 0)
(-0.0687855 -0.000887744 0)
(-0.0684542 -0.00103376 0)
(-0.0680838 -0.00119457 0)
(-0.0676755 -0.00136697 0)
(-0.0672351 -0.00154776 0)
(-0.0667668 -0.00173184 0)
(-0.0662699 -0.00191132 0)
(-0.0657407 -0.00207666 0)
(-0.0651793 -0.00221877 0)
(-0.0645903 -0.00233045 0)
(-0.0639796 -0.00240612 0)
(-0.0633501 -0.00244088 0)
(-0.0627011 -0.00243023 0)
(-0.0620315 -0.00237111 0)
(-0.0613417 -0.00226358 0)
(-0.060633 -0.00211203 0)
(-0.0599059 -0.00192512 0)
(-0.0591591 -0.00171476 0)
(-0.0583894 -0.0014956 0)
(-0.0575927 -0.00128536 0)
(-0.0567652 -0.00110448 0)
(-0.0559054 -0.000973478 0)
(-0.0550149 -0.000907927 0)
(-0.0540978 -0.000913941 0)
(-0.0531575 -0.000987215 0)
(-0.0521942 -0.00111617 0)
(-0.0512043 -0.0012862 0)
(-0.0501831 -0.00148186 0)
(-0.0491263 -0.00168695 0)
(-0.0480316 -0.00188494 0)
(-0.0468968 -0.00206169 0)
(-0.0457185 -0.00220883 0)
(-0.0444922 -0.00232505 0)
(-0.0432154 -0.00241391 0)
(-0.041889 -0.00247997 0)
(-0.0405167 -0.00252583 0)
(-0.0391028 -0.00255223 0)
(-0.0376504 -0.00256053 0)
(-0.036163 -0.00255513 0)
(-0.0346441 -0.00254298 0)
(-0.0330978 -0.00253012 0)
(-0.0315289 -0.00251901 0)
(-0.0299415 -0.00250926 0)
(-0.0283387 -0.00249995 0)
(-0.0267247 -0.00249057 0)
(-0.025106 -0.00248077 0)
(-0.0234901 -0.00246991 0)
(-0.0218847 -0.00245618 0)
(-0.0202955 -0.0024367 0)
(-0.0187254 -0.00240888 0)
(-0.0171768 -0.00237129 0)
(-0.0156547 -0.00232467 0)
(-0.0141682 -0.00227219 0)
(-0.0127311 -0.00221569 0)
(-0.0113583 -0.00215262 0)
(-0.0100579 -0.0020767 0)
(-0.00883521 -0.00198038 0)
(-0.00769565 -0.00186021 0)
(-0.00664271 -0.00171718 0)
(-0.00568124 -0.00155173 0)
(-0.00481474 -0.0013657 0)
(-0.00404425 -0.00116745 0)
(-0.00336731 -0.000968435 0)
(-0.00277195 -0.000783312 0)
(-0.0022458 -0.000640371 0)
(-0.00176924 -0.000573416 0)
(-0.0013221 -0.000621837 0)
(-0.000882329 -0.000851827 0)
(-0.000434444 -0.00118123 0)
(-0.000105707 -0.000849135 0)
(0.0029704 -0.0110181 0)
(0.00726934 -0.00923182 0)
(0.011322 0.00239171 0)
(0.0131201 0.0102595 0)
(0.0131775 0.0141559 0)
(0.0122845 0.0156089 0)
(0.0106654 0.0155575 0)
(0.00853708 0.014603 0)
(0.00613637 0.0132366 0)
(0.00345001 0.0116508 0)
(0.000641244 0.010109 0)
(-0.00219891 0.00862586 0)
(-0.00509181 0.00734165 0)
(-0.00792488 0.00618991 0)
(-0.0107019 0.00527363 0)
(-0.0134466 0.00448386 0)
(-0.0160806 0.00386252 0)
(-0.0186481 0.00338489 0)
(-0.0211414 0.00298005 0)
(-0.0235463 0.00270817 0)
(-0.0258875 0.00248149 0)
(-0.0281454 0.00231439 0)
(-0.0303268 0.00218127 0)
(-0.0324489 0.00209041 0)
(-0.0345089 0.00201216 0)
(-0.0365111 0.00194553 0)
(-0.0384543 0.00188916 0)
(-0.0403428 0.00182136 0)
(-0.0421783 0.00174002 0)
(-0.0439669 0.00166106 0)
(-0.045712 0.00158461 0)
(-0.0474154 0.00151177 0)
(-0.0490835 0.00145393 0)
(-0.0506955 0.00139901 0)
(-0.0522493 0.00134135 0)
(-0.0537649 0.00128232 0)
(-0.0552391 0.00121755 0)
(-0.0566656 0.00115448 0)
(-0.0580499 0.00109036 0)
(-0.0594053 0.00102621 0)
(-0.0607269 0.000973098 0)
(-0.0620015 0.000928253 0)
(-0.0632434 0.00089781 0)
(-0.0644582 0.000888235 0)
(-0.0656308 0.000888127 0)
(-0.0667691 0.000904293 0)
(-0.0678845 0.000949608 0)
(-0.0689626 0.00100963 0)
(-0.0700056 0.00107879 0)
(-0.0710343 0.00117641 0)
(-0.0720349 0.00130621 0)
(-0.0729862 0.00145281 0)
(-0.0739068 0.0016114 0)
(-0.0748066 0.00178384 0)
(-0.0756555 0.00195952 0)
(-0.0764438 0.00212002 0)
(-0.0771995 0.00225116 0)
(-0.0779329 0.00234417 0)
(-0.0786266 0.0023948 0)
(-0.0792784 0.00240253 0)
(-0.0799095 0.00236714 0)
(-0.0805309 0.00229072 0)
(-0.0811311 0.00218301 0)
(-0.0816984 0.00205641 0)
(-0.0822362 0.00191612 0)
(-0.0827513 0.00176144 0)
(-0.0832391 0.00159322 0)
(-0.0836917 0.00141323 0)
(-0.0841095 0.00122026 0)
(-0.0844973 0.00101337 0)
(-0.0848556 0.00079634 0)
(-0.0851854 0.00057515 0)
(-0.0854928 0.000354817 0)
(-0.0857814 0.000142211 0)
(-0.0860454 -5.1589e-05 0)
(-0.0862774 -0.000216268 0)
(-0.0864774 -0.000348367 0)
(-0.0866493 -0.000450034 0)
(-0.0867907 -0.000523492 0)
(-0.0868932 -0.000569723 0)
(-0.086951 -0.000592151 0)
(-0.0869654 -0.000599102 0)
(-0.08694 -0.000601546 0)
(-0.086876 -0.000609061 0)
(-0.0867722 -0.000628142 0)
(-0.0866275 -0.000663303 0)
(-0.0864428 -0.000718668 0)
(-0.0862224 -0.000798349 0)
(-0.0859718 -0.00090532 0)
(-0.0856946 -0.00103957 0)
(-0.0853888 -0.0011975 0)
(-0.0850496 -0.00137384 0)
(-0.0846752 -0.00156466 0)
(-0.0842701 -0.00176781 0)
(-0.0838412 -0.00198033 0)
(-0.0833907 -0.00219554 0)
(-0.0829147 -0.00240353 0)
(-0.0824084 -0.00259455 0)
(-0.0818721 -0.00276168 0)
(-0.0813098 -0.00290005 0)
(-0.0807233 -0.00300425 0)
(-0.0801094 -0.00306751 0)
(-0.079462 -0.003084 0)
(-0.0787766 -0.00305186 0)
(-0.0780513 -0.0029741 0)
(-0.0772841 -0.00285716 0)
(-0.0764704 -0.00270933 0)
(-0.0756044 -0.00254087 0)
(-0.0746809 -0.00236548 0)
(-0.073697 -0.00220088 0)
(-0.0726521 -0.00206692 0)
(-0.0715481 -0.00198156 0)
(-0.0703896 -0.0019569 0)
(-0.0691839 -0.00199725 0)
(-0.0679395 -0.00209978 0)
(-0.0666625 -0.00225648 0)
(-0.0653549 -0.00245563 0)
(-0.0640143 -0.00268267 0)
(-0.0626368 -0.00292133 0)
(-0.0612194 -0.0031559 0)
(-0.0597595 -0.00337397 0)
(-0.0582541 -0.00356828 0)
(-0.056698 -0.00373659 0)
(-0.0550865 -0.0038797 0)
(-0.053417 -0.00399882 0)
(-0.0516901 -0.00409446 0)
(-0.0499085 -0.00416748 0)
(-0.048076 -0.00422063 0)
(-0.0461967 -0.00425858 0)
(-0.0442747 -0.00428657 0)
(-0.0423132 -0.00430838 0)
(-0.0403168 -0.004325 0)
(-0.0382914 -0.00433548 0)
(-0.0362434 -0.00433933 0)
(-0.0341802 -0.00433734 0)
(-0.0321104 -0.00433007 0)
(-0.030043 -0.00431651 0)
(-0.0279863 -0.00429383 0)
(-0.0259476 -0.00425793 0)
(-0.0239322 -0.0042057 0)
(-0.0219456 -0.00413591 0)
(-0.0199975 -0.00404832 0)
(-0.0181008 -0.00394447 0)
(-0.0162703 -0.00382539 0)
(-0.0145197 -0.0036876 0)
(-0.0128572 -0.00352631 0)
(-0.0112897 -0.00333786 0)
(-0.00982551 -0.00311981 0)
(-0.0084692 -0.00287407 0)
(-0.00722421 -0.00260372 0)
(-0.00609535 -0.00231424 0)
(-0.00508287 -0.0020172 0)
(-0.00418044 -0.00172371 0)
(-0.00338061 -0.00145372 0)
(-0.00267216 -0.00123972 0)
(-0.00203747 -0.00111269 0)
(-0.00146548 -0.00112524 0)
(-0.000933005 -0.00132415 0)
(-0.000438346 -0.00162468 0)
(-0.000104187 -0.00109142 0)
(0.0027255 -0.0152102 0)
(0.00670581 -0.0144491 0)
(0.010924 -0.000653094 0)
(0.0131492 0.00899634 0)
(0.0138285 0.0141775 0)
(0.0135655 0.016523 0)
(0.0125036 0.0170935 0)
(0.0109184 0.0166671 0)
(0.00880739 0.015608 0)
(0.00641368 0.014301 0)
(0.00376345 0.0128969 0)
(0.000874564 0.011539 0)
(-0.00207967 0.0102812 0)
(-0.00512376 0.00917788 0)
(-0.00820938 0.00819856 0)
(-0.0112769 0.00739769 0)
(-0.0143326 0.0067257 0)
(-0.0173698 0.00616323 0)
(-0.0203386 0.00572352 0)
(-0.0232608 0.00535626 0)
(-0.0261435 0.00506635 0)
(-0.0289505 0.00484194 0)
(-0.0316902 0.00464509 0)
(-0.0343646 0.00447888 0)
(-0.036981 0.0043328 0)
(-0.0395266 0.00419915 0)
(-0.0420125 0.0040777 0)
(-0.0444532 0.00396122 0)
(-0.0468258 0.00383702 0)
(-0.0491359 0.00371045 0)
(-0.051402 0.00358632 0)
(-0.0536053 0.00345729 0)
(-0.055752 0.00334009 0)
(-0.0578475 0.00323395 0)
(-0.0598797 0.00312176 0)
(-0.0618547 0.00301012 0)
(-0.0637738 0.00289936 0)
(-0.0656368 0.00278908 0)
(-0.0674493 0.00268029 0)
(-0.0692124 0.0025686 0)
(-0.0709276 0.00247186 0)
(-0.0725909 0.00239486 0)
(-0.0741997 0.00231885 0)
(-0.0757667 0.00225545 0)
(-0.0772913 0.00222428 0)
(-0.0787525 0.00221016 0)
(-0.0801623 0.00220332 0)
(-0.0815451 0.00221947 0)
(-0.0828794 0.00226236 0)
(-0.0841435 0.00232226 0)
(-0.0853623 0.00240032 0)
(-0.0865495 0.00249979 0)
(-0.0876762 0.00261433 0)
(-0.0887257 0.00273677 0)
(-0.0897192 0.00285907 0)
(-0.090668 0.00296689 0)
(-0.0915538 0.00304797 0)
(-0.0923722 0.00309711 0)
(-0.0931478 0.00310969 0)
(-0.0938934 0.00308126 0)
(-0.0945996 0.00301335 0)
(-0.0952676 0.00291154 0)
(-0.0959125 0.00278083 0)
(-0.0965344 0.00262698 0)
(-0.0971202 0.00245706 0)
(-0.097669 0.00227472 0)
(-0.0981926 0.00207847 0)
(-0.098693 0.00186715 0)
(-0.0991606 0.00164411 0)
(-0.0995912 0.00141366 0)
(-0.0999931 0.00117657 0)
(-0.100376 0.000932853 0)
(-0.100743 0.000688247 0)
(-0.101086 0.0004543 0)
(-0.1014 0.000241221 0)
(-0.101684 5.27251e-05 0)
(-0.101943 -0.000111473 0)
(-0.102172 -0.00025067 0)
(-0.102364 -0.000362899 0)
(-0.102511 -0.000448835 0)
(-0.10261 -0.000514144 0)
(-0.102663 -0.000567735 0)
(-0.102672 -0.000618349 0)
(-0.102635 -0.000672584 0)
(-0.102551 -0.000735178 0)
(-0.102419 -0.000810604 0)
(-0.102243 -0.000904194 0)
(-0.102028 -0.00102128 0)
(-0.10178 -0.00116464 0)
(-0.101502 -0.00133269 0)
(-0.10119 -0.00152084 0)
(-0.100843 -0.00172504 0)
(-0.100463 -0.00194382 0)
(-0.100056 -0.00217612 0)
(-0.0996258 -0.00241743 0)
(-0.0991722 -0.002659 0)
(-0.0986901 -0.00289109 0)
(-0.0981767 -0.00310656 0)
(-0.0976332 -0.00330101 0)
(-0.0970609 -0.00346993 0)
(-0.0964566 -0.00360691 0)
(-0.0958133 -0.00370515 0)
(-0.0951241 -0.00376076 0)
(-0.0943846 -0.00377424 0)
(-0.0935916 -0.00374923 0)
(-0.0927394 -0.00369083 0)
(-0.0918203 -0.00360563 0)
(-0.0908273 -0.00350338 0)
(-0.0897562 -0.00339792 0)
(-0.0886056 -0.0033059 0)
(-0.0873755 -0.00324376 0)
(-0.0860676 -0.00322483 0)
(-0.0846868 -0.003258 0)
(-0.0832424 -0.00334766 0)
(-0.0817454 -0.00349378 0)
(-0.0802041 -0.00369132 0)
(-0.0786213 -0.00392988 0)
(-0.076995 -0.00419501 0)
(-0.0753224 -0.00447146 0)
(-0.0736025 -0.00474634 0)
(-0.0718348 -0.0050105 0)
(-0.0700165 -0.00525805 0)
(-0.0681424 -0.00548514 0)
(-0.0662058 -0.00568915 0)
(-0.0642029 -0.00586814 0)
(-0.0621337 -0.00602131 0)
(-0.0600017 -0.00615002 0)
(-0.0578115 -0.00625788 0)
(-0.0555671 -0.00634887 0)
(-0.0532711 -0.00642578 0)
(-0.0509261 -0.00648995 0)
(-0.0485364 -0.00654145 0)
(-0.0461094 -0.00657951 0)
(-0.043655 -0.00660378 0)
(-0.0411833 -0.00661488 0)
(-0.0387042 -0.00661267 0)
(-0.036227 -0.00659513 0)
(-0.0337602 -0.00655867 0)
(-0.0313128 -0.00649901 0)
(-0.0288931 -0.00641341 0)
(-0.0265093 -0.00630145 0)
(-0.0241732 -0.00616274 0)
(-0.0219001 -0.00599706 0)
(-0.0197041 -0.00580341 0)
(-0.0175985 -0.00557757 0)
(-0.0155938 -0.00531649 0)
(-0.0136979 -0.00501956 0)
(-0.0119205 -0.00468634 0)
(-0.0102679 -0.00431934 0)
(-0.0087447 -0.00392467 0)
(-0.00735676 -0.00351203 0)
(-0.00610209 -0.00309304 0)
(-0.00497568 -0.00268291 0)
(-0.00397508 -0.00230744 0)
(-0.00308783 -0.00199481 0)
(-0.00230529 -0.00178434 0)
(-0.00161599 -0.0017249 0)
(-0.000997603 -0.00186029 0)
(-0.000455335 -0.00209517 0)
(-0.000109726 -0.00133516 0)
(0.0023241 -0.0188573 0)
(0.0057177 -0.0192843 0)
(0.0095673 -0.0038097 0)
(0.0119833 0.0073885 0)
(0.0129911 0.0137135 0)
(0.0130756 0.0169249 0)
(0.0124419 0.0182321 0)
(0.0111463 0.0183132 0)
(0.00938733 0.0177153 0)
(0.00718211 0.0167662 0)
(0.00462663 0.0156063 0)
(0.00184371 0.0144568 0)
(-0.00117917 0.0133388 0)
(-0.00433822 0.0123094 0)
(-0.00757886 0.0114081 0)
(-0.0108989 0.010619 0)
(-0.0142591 0.00994346 0)
(-0.0176147 0.00936581 0)
(-0.0209688 0.008899 0)
(-0.0243 0.00847485 0)
(-0.0275834 0.00813972 0)
(-0.0308335 0.00784704 0)
(-0.0340358 0.00760343 0)
(-0.0371753 0.00737965 0)
(-0.0402568 0.00717045 0)
(-0.0432726 0.0069783 0)
(-0.0462208 0.00678562 0)
(-0.0491187 0.00659826 0)
(-0.0519565 0.00641985 0)
(-0.0547237 0.00623511 0)
(-0.0574357 0.00605215 0)
(-0.0600804 0.00587152 0)
(-0.0626552 0.00569023 0)
(-0.0651704 0.0055142 0)
(-0.067615 0.00533724 0)
(-0.0699914 0.00516581 0)
(-0.0723042 0.00499773 0)
(-0.0745477 0.00482004 0)
(-0.0767332 0.0046519 0)
(-0.0788576 0.00449891 0)
(-0.0809065 0.00434291 0)
(-0.0829025 0.00419653 0)
(-0.0848511 0.00407594 0)
(-0.0867175 0.00396711 0)
(-0.0885114 0.00386798 0)
(-0.0902682 0.00379401 0)
(-0.0919667 0.00374101 0)
(-0.0935777 0.00370059 0)
(-0.0951273 0.00368143 0)
(-0.0966364 0.00368703 0)
(-0.098075 0.00370851 0)
(-0.0994251 0.00374249 0)
(-0.100711 0.0037903 0)
(-0.101941 0.0038463 0)
(-0.10309 0.0038998 0)
(-0.104153 0.00394124 0)
(-0.105153 0.00396156 0)
(-0.1061 0.003953 0)
(-0.106984 0.0039131 0)
(-0.107806 0.00384183 0)
(-0.108585 0.00373627 0)
(-0.109337 0.00359566 0)
(-0.110053 0.00342881 0)
(-0.110723 0.00324686 0)
(-0.111352 0.00305099 0)
(-0.111957 0.002836 0)
(-0.112537 0.00260324 0)
(-0.11308 0.00236126 0)
(-0.113584 0.00211474 0)
(-0.114059 0.00186069 0)
(-0.114512 0.00159646 0)
(-0.114944 0.0013266 0)
(-0.11535 0.00106057 0)
(-0.11573 0.000806553 0)
(-0.116083 0.000568788 0)
(-0.116409 0.000349094 0)
(-0.116705 0.000149246 0)
(-0.116968 -2.82664e-05 0)
(-0.117191 -0.000181678 0)
(-0.117367 -0.000312403 0)
(-0.117494 -0.000426082 0)
(-0.117575 -0.000530677 0)
(-0.117607 -0.000633033 0)
(-0.117589 -0.000737253 0)
(-0.117519 -0.000846456 0)
(-0.117398 -0.000965587 0)
(-0.117231 -0.00110147 0)
(-0.117024 -0.00125952 0)
(-0.11678 -0.00144064 0)
(-0.116499 -0.00164188 0)
(-0.116181 -0.00185992 0)
(-0.115826 -0.00209348 0)
(-0.115438 -0.00234212 0)
(-0.115023 -0.00260317 0)
(-0.11458 -0.00287052 0)
(-0.114108 -0.00313655 0)
(-0.113604 -0.00339481 0)
(-0.113066 -0.00364041 0)
(-0.112494 -0.00386835 0)
(-0.111886 -0.00407251 0)
(-0.111237 -0.00424689 0)
(-0.110539 -0.00438781 0)
(-0.109787 -0.00449457 0)
(-0.108974 -0.00456824 0)
(-0.108095 -0.00461057 0)
(-0.107143 -0.00462473 0)
(-0.10611 -0.00461714 0)
(-0.104991 -0.00459831 0)
(-0.103781 -0.00458139 0)
(-0.10248 -0.00457972 0)
(-0.101085 -0.00460492 0)
(-0.0995979 -0.00466652 0)
(-0.0980249 -0.0047722 0)
(-0.0963765 -0.00492729 0)
(-0.094664 -0.00513316 0)
(-0.0928943 -0.00538549 0)
(-0.0910682 -0.00567438 0)
(-0.0891841 -0.00598689 0)
(-0.0872416 -0.00631066 0)
(-0.085243 -0.00663611 0)
(-0.0831897 -0.00695616 0)
(-0.0810789 -0.00726479 0)
(-0.0789041 -0.00755635 0)
(-0.0766583 -0.00782596 0)
(-0.0743376 -0.00807045 0)
(-0.0719438 -0.00828889 0)
(-0.0694819 -0.00848264 0)