/*--------------------------------*- C++ -*----------------------------------*\
  =========                 |
  \\      /  F ield         | OpenFOAM: The Open Source CFD Toolbox
   \\    /   O peration     | Website:  https://openfoam.org
    \\  /    A nd           | Version:  7
     \\/     M anipulation  |
\*---------------------------------------------------------------------------*/
FoamFile
{
    version     2.0;
    format      ascii;
    class       volScalarField;
    location    "0.1125";
    object      p;
}
// * * * * * * * * * * * * * * * * * * * * * * * * * * * * * * * * * * * * * //

dimensions      [0 2 -2 0 0 0 0];

internalField   nonuniform List<scalar> 
12800
(
-3.90254e-07
0.000180871
-0.000904317
-0.00334804
-0.00690503
-0.0113286
-0.0163854
-0.0218623
-0.0275726
-0.0333562
-0.0390769
-0.0446193
-0.0498862
-0.0547962
-0.0592813
-0.0632854
-0.0667629
-0.0696771
-0.0719991
-0.0737071
-0.0747853
-0.0752233
-0.0750153
-0.0741596
-0.0726582
-0.070516
-0.0677408
-0.0643425
-0.0603329
-0.0557256
-0.0505356
-0.0447788
-0.0384722
-0.0316335
-0.0242807
-0.0164323
-0.00810704
0.000676361
0.00989918
0.0195428
0.0295889
0.0400194
0.0508165
0.0619632
0.0734424
0.0852381
0.0973344
0.109716
0.122369
0.135278
0.148432
0.161816
0.175418
0.189228
0.203234
0.217427
0.231795
0.246331
0.261026
0.275871
0.290859
0.305984
0.321238
0.336617
0.352113
0.367723
0.383441
0.399263
0.415184
0.431202
0.447313
0.463513
0.4798
0.49617
0.512622
0.529153
0.54576
0.562442
0.579196
0.59602
0.612911
0.629869
0.64689
0.663972
0.681113
0.698309
0.715558
0.732857
0.750201
0.767588
0.785013
0.802472
0.819958
0.837467
0.854993
0.872529
0.890066
0.907599
0.925117
0.942611
0.960071
0.977487
0.994845
1.01213
1.02934
1.04645
1.06344
1.08031
1.09702
1.11357
1.12994
1.1461
1.16203
1.17771
1.19312
1.20823
1.22301
1.23745
1.25151
1.26517
1.2784
1.29117
1.30346
1.31523
1.32645
1.3371
1.34715
1.35657
1.36534
1.37342
1.38081
1.38746
1.39336
1.3985
1.40286
1.40642
1.40917
1.41111
1.41224
1.41256
1.41207
1.4108
1.40877
1.40599
1.40252
1.39839
1.39366
1.3884
1.38269
1.37662
1.37031
1.3639
1.35753
1.3514
1.34571
1.34071
1.33666
1.33385
1.33257
1.33273
-0.000182634
-1.44408e-08
-0.00100297
-0.00313479
-0.00617167
-0.00993835
-0.014261
-0.0189691
-0.0239062
-0.0289329
-0.0339273
-0.0387833
-0.0434098
-0.0477289
-0.0516748
-0.055192
-0.0582347
-0.0607652
-0.0627537
-0.0641764
-0.0650157
-0.065259
-0.0648982
-0.0639294
-0.0623521
-0.0601688
-0.0573849
-0.0540078
-0.0500471
-0.0455141
-0.0404214
-0.034783
-0.0286137
-0.0219291
-0.0147455
-0.0070795
0.00105184
0.00963142
0.018642
0.0280665
0.0378878
0.048089
0.0586536
0.0695655
0.0808087
0.0923679
0.104228
0.116375
0.128794
0.141473
0.154398
0.167556
0.180937
0.19453
0.208322
0.222305
0.236468
0.250804
0.265302
0.279956
0.294757
0.309699
0.324776
0.33998
0.355307
0.37075
0.386306
0.401969
0.417735
0.4336
0.44956
0.465612
0.481753
0.497978
0.514287
0.530675
0.54714
0.56368
0.580292
0.596973
0.61372
0.630532
0.647405
0.664337
0.681325
0.698365
0.715455
0.73259
0.749767
0.766981
0.784227
0.801502
0.818799
0.836112
0.853436
0.870762
0.888084
0.905392
0.922679
0.939935
0.957149
0.97431
0.991406
1.00843
1.02535
1.04218
1.05888
1.07544
1.09185
1.10809
1.12414
1.13997
1.15558
1.17093
1.186
1.20078
1.21523
1.22934
1.24307
1.2564
1.26931
1.28176
1.29374
1.30522
1.31616
1.32654
1.33634
1.34554
1.3541
1.362
1.36923
1.37576
1.38157
1.38665
1.39099
1.39457
1.39739
1.39945
1.40074
1.40127
1.40105
1.40011
1.39845
1.39612
1.39314
1.38957
1.38546
1.38088
1.3759
1.37062
1.36515
1.3596
1.35412
1.34887
1.34403
1.33978
1.33634
1.33391
1.33273
1.3329
0.000900936
0.00100348
-9.90472e-08
-0.00198384
-0.00473256
-0.00810418
-0.0119585
-0.0161537
-0.0205567
-0.025046
-0.0295126
-0.0338602
-0.0380046
-0.0418724
-0.0454012
-0.0485373
-0.0512359
-0.0534599
-0.0551787
-0.0563683
-0.0570099
-0.0570898
-0.0565983
-0.0555302
-0.0538831
-0.0516579
-0.0488581
-0.0454897
-0.0415602
-0.0370793
-0.032058
-0.0265084
-0.0204438
-0.0138782
-0.00682639
0.000696409
0.0086746
0.0170923
0.0259336
0.0351824
0.0448228
0.054839
0.0652153
0.0759364
0.0869873
0.0983533
0.11002
0.121974
0.134201
0.146689
0.159425
0.172397
0.185594
0.199005
0.212619
0.226427
0.240419
0.254586
0.268919
0.283412
0.298055
0.312843
0.327768
0.342825
0.358007
0.373309
0.388726
0.404253
0.419885
0.435619
0.45145
0.467374
0.483389
0.49949
0.515674
0.531939
0.548282
0.564698
0.581187
0.597744
0.614367
0.631053
0.647798
0.664601
0.681456
0.698362
0.715314
0.732309
0.749341
0.766407
0.783502
0.800619
0.817755
0.834902
0.852054
0.869203
0.886342
0.903463
0.920555
0.937611
0.954619
0.971567
0.988445
1.00524
1.02194
1.03852
1.05498
1.0713
1.08746
1.10344
1.11923
1.1348
1.15014
1.16522
1.18003
1.19453
1.20872
1.22255
1.23602
1.24909
1.26174
1.27395
1.28568
1.29693
1.30765
1.31782
1.32743
1.33645
1.34485
1.35262
1.35973
1.36617
1.37192
1.37696
1.3813
1.38491
1.38779
1.38995
1.39137
1.39208
1.39209
1.3914
1.39005
1.38806
1.38548
1.38234
1.37871
1.37464
1.37022
1.36552
1.36065
1.35572
1.35085
1.34619
1.34188
1.3381
1.33499
1.33273
1.33156
1.33162
0.00334567
0.00313823
0.00198183
-7.07188e-06
-0.00264918
-0.00582105
-0.00940271
-0.0132736
-0.0173189
-0.0214326
-0.0255181
-0.0294887
-0.0332672
-0.0367862
-0.0399869
-0.0428188
-0.0452389
-0.0472113
-0.0487061
-0.0496993
-0.050172
-0.0501099
-0.0495028
-0.0483441
-0.0466307
-0.0443622
-0.041541
-0.0381716
-0.0342603
-0.0298154
-0.0248466
-0.0193647
-0.0133817
-0.00691036
3.58064e-05
0.00744277
0.0152961
0.0235809
0.0322823
0.0413853
0.0508749
0.0607361
0.0709541
0.0815142
0.0924022
0.103604
0.115106
0.126895
0.138957
0.151281
0.163855
0.176666
0.189703
0.202956
0.216415
0.23007
0.243912
0.257931
0.272119
0.28647
0.300974
0.315625
0.330416
0.345341
0.360394
0.37557
0.390863
0.406267
0.42178
0.437395
0.453109
0.468918
0.484819
0.500807
0.516879
0.533032
0.549263
0.565568
0.581944
0.598389
0.614898
0.63147
0.648099
0.664784
0.681521
0.698305
0.715133
0.732
0.748903
0.765836
0.782794
0.799772
0.816763
0.833762
0.850762
0.867755
0.884732
0.901687
0.918609
0.935489
0.952317
0.96908
0.985769
1.00237
1.01887
1.03525
1.0515
1.06761
1.08355
1.09932
1.11488
1.13023
1.14535
1.1602
1.17478
1.18906
1.20302
1.21663
1.22987
1.24273
1.25517
1.26717
1.27871
1.28976
1.30031
1.31032
1.31977
1.32865
1.33693
1.34459
1.35161
1.35799
1.36369
1.36872
1.37306
1.3767
1.37964
1.38189
1.38344
1.3843
1.38449
1.38402
1.38291
1.38121
1.37894
1.37615
1.37289
1.36922
1.36521
1.36094
1.35651
1.352
1.34755
1.34326
1.33926
1.33571
1.33273
1.33047
1.32912
1.32882
0.00691445
0.0061867
0.00473378
0.00262295
-2.97425e-05
-0.00311836
-0.00653992
-0.0101927
-0.013979
-0.0178069
-0.0215918
-0.0252566
-0.0287319
-0.0319561
-0.0348753
-0.0374424
-0.039617
-0.0413649
-0.0426575
-0.0434715
-0.0437882
-0.0435932
-0.042876
-0.0416295
-0.0398499
-0.037536
-0.0346891
-0.0313126
-0.027412
-0.0229944
-0.0180682
-0.0126433
-0.00673037
-0.000341145
0.00651196
0.013816
0.0215574
0.0297226
0.0382975
0.0472679
0.0566198
0.0663389
0.0764112
0.0868228
0.0975601
0.10861
0.119958
0.131593
0.143501
0.155672
0.168092
0.180751
0.193638
0.206742
0.220054
0.233564
0.247262
0.26114
0.275191
0.289405
0.303775
0.318294
0.332957
0.347755
0.362683
0.377736
0.392908
0.408194
0.42359
0.43909
0.45469
0.470387
0.486176
0.502053
0.518015
0.534058
0.550179
0.566374
0.582641
0.598975
0.615373
0.631832
0.648348
0.664918
0.681537
0.698202
0.714909
0.731652
0.748429
0.765232
0.782058
0.7989
0.815752
0.832608
0.849461
0.866303
0.883126
0.899922
0.916681
0.933394
0.95005
0.966639
0.983147
0.999564
1.01588
1.03207
1.04813
1.06403
1.07978
1.09534
1.1107
1.12584
1.14075
1.15539
1.16976
1.18383
1.19759
1.211
1.22404
1.2367
1.24895
1.26077
1.27213
1.28302
1.2934
1.30327
1.31259
1.32134
1.32951
1.33709
1.34404
1.35036
1.35603
1.36105
1.3654
1.36908
1.37209
1.37442
1.37608
1.37708
1.37744
1.37717
1.37629
1.37483
1.37284
1.37034
1.3674
1.36406
1.3604
1.35648
1.35238
1.3482
1.34404
1.34
1.3362
1.33274
1.32976
1.32736
1.32567
1.32477
0.0113712
0.00998169
0.00812013
0.00578868
0.00302586
-7.91032e-05
-0.0034377
-0.00696547
-0.0105803
-0.0142036
-0.0177618
-0.0211873
-0.0244185
-0.0274002
-0.0300832
-0.0324245
-0.0343866
-0.0359378
-0.0370509
-0.0377039
-0.0378786
-0.0375611
-0.0367409
-0.0354107
-0.0335662
-0.0312058
-0.02833
-0.0249416
-0.0210452
-0.0166468
-0.0117542
-0.0063761
-0.000522315
0.00579643
0.0125687
0.0197824
0.027425
0.0354836
0.0439452
0.0527964
0.0620238
0.0716141
0.0815538
0.0918297
0.102429
0.113338
0.124545
0.136038
0.147804
0.159831
0.172109
0.184626
0.197372
0.210337
0.22351
0.236883
0.250447
0.264192
0.278111
0.292195
0.306438
0.320832
0.335371
0.350048
0.364857
0.379792
0.394848
0.41002
0.425303
0.440691
0.456181
0.471769
0.487449
0.503218
0.519073
0.53501
0.551024
0.567112
0.583271
0.599498
0.615787
0.632137
0.648542
0.665
0.681505
0.698055
0.714644
0.731268
0.747922
0.764601
0.781299
0.79801
0.814729
0.831448
0.848161
0.864859
0.881535
0.89818
0.914785
0.93134
0.947834
0.964258
0.980598
0.996842
1.01298
1.02899
1.04487
1.0606
1.07615
1.09153
1.1067
1.12165
1.13637
1.15082
1.165
1.17889
1.19245
1.20568
1.21855
1.23103
1.24311
1.25477
1.26598
1.27671
1.28696
1.2967
1.3059
1.31456
1.32264
1.33014
1.33703
1.34331
1.34897
1.35398
1.35835
1.36207
1.36513
1.36755
1.36932
1.37045
1.37096
1.37086
1.37018
1.36894
1.36718
1.36494
1.36226
1.35919
1.3558
1.35215
1.34831
1.34437
1.3404
1.33651
1.33278
1.32931
1.3262
1.32355
1.32141
1.31975
0.0164949
0.0143584
0.0120078
0.00937635
0.00642014
0.00321374
-0.000166643
-0.003652
-0.0071743
-0.010667
-0.0140673
-0.0173163
-0.02036
-0.0231495
-0.0256407
-0.0277949
-0.0295779
-0.0309605
-0.0319177
-0.0324287
-0.0324766
-0.0320481
-0.0311329
-0.0297241
-0.0278171
-0.0254101
-0.0225033
-0.0190988
-0.0152006
-0.0108142
-0.0059464
-0.000605304
0.0052001
0.0114599
0.0181635
0.0252996
0.0328564
0.040822
0.049184
0.0579297
0.0670465
0.0765216
0.0863423
0.0964961
0.10697
0.117753
0.128831
0.140194
0.151829
0.163726
0.175873
0.188259
0.200875
0.21371
0.226755
0.240001
0.253438
0.267059
0.280854
0.294818
0.308941
0.323217
0.337639
0.352201
0.366896
0.38172
0.396665
0.411728
0.426903
0.442184
0.457569
0.473051
0.488627
0.504293
0.520045
0.535878
0.551789
0.567774
0.58383
0.599952
0.616137
0.632381
0.64868
0.665029
0.681425
0.697864
0.71434
0.730849
0.747386
0.763945
0.780522
0.797109
0.8137
0.83029
0.846869
0.863432
0.879969
0.896473
0.912933
0.92934
0.945684
0.961953
0.978137
0.994222
1.0102
1.02605
1.04176
1.05732
1.0727
1.08791
1.10291
1.11769
1.13223
1.14652
1.16053
1.17425
1.18765
1.20072
1.21342
1.22576
1.23769
1.2492
1.26028
1.27089
1.28102
1.29065
1.29976
1.30832
1.31634
1.32378
1.33063
1.33688
1.34252
1.34754
1.35194
1.3557
1.35882
1.36132
1.36318
1.36443
1.36508
1.36513
1.36462
1.36356
1.362
1.35996
1.35749
1.35464
1.35146
1.34801
1.34435
1.34055
1.33669
1.33284
1.32909
1.32551
1.32219
1.31921
1.31652
1.31402
0.0220842
0.0191552
0.0162621
0.0132711
0.0100565
0.00668042
0.00320888
-0.000302906
-0.00379942
-0.00722525
-0.0105271
-0.0136546
-0.0165611
-0.0192036
-0.0215435
-0.023546
-0.0251807
-0.026421
-0.0272443
-0.0276316
-0.0275672
-0.0270388
-0.0260369
-0.0245547
-0.022588
-0.0201349
-0.0171953
-0.0137712
-0.00986613
-0.00548507
-0.000634304
0.00467872
0.0104456
0.0166572
0.0233034
0.0303738
0.0378573
0.0457426
0.0540178
0.062671
0.0716903
0.0810635
0.0907784
0.100823
0.111185
0.121853
0.132816
0.144061
0.155577
0.167354
0.179381
0.191648
0.204144
0.21686
0.229786
0.242914
0.256234
0.269739
0.283419
0.297269
0.31128
0.325444
0.339757
0.35421
0.368799
0.383516
0.398357
0.413316
0.428388
0.443567
0.458851
0.474233
0.489709
0.505275
0.520928
0.536662
0.552474
0.56836
0.584316
0.600338
0.616422
0.632564
0.64876
0.665006
0.681297
0.697629
0.713997
0.730396
0.746821
0.763266
0.779727
0.796196
0.812667
0.829133
0.845588
0.862022
0.878429
0.8948
0.911125
0.927394
0.943598
0.959725
0.975764
0.991703
1.00753
1.02323
1.03879
1.05419
1.06943
1.08448
1.09933
1.11395
1.12834
1.14248
1.15634
1.16991
1.18316
1.19609
1.20866
1.22086
1.23266
1.24406
1.25502
1.26552
1.27556
1.2851
1.29413
1.30263
1.31059
1.31798
1.32481
1.33104
1.33668
1.34171
1.34613
1.34994
1.35312
1.35569
1.35765
1.359
1.35976
1.35995
1.35958
1.35868
1.35728
1.35541
1.35311
1.35041
1.34738
1.34406
1.34051
1.33679
1.33296
1.32909
1.32524
1.32147
1.31786
1.31448
1.31118
1.3078
0.0279642
0.0242239
0.0207559
0.0173631
0.0138413
0.0102421
0.00662376
0.00302923
-0.000497148
-0.00390983
-0.00716432
-0.0102182
-0.0130315
-0.0155672
-0.0177917
-0.0196745
-0.0211888
-0.0223111
-0.0230209
-0.0233015
-0.0231385
-0.0225208
-0.0214399
-0.0198897
-0.0178661
-0.0153676
-0.0123941
-0.00894737
-0.00503085
-0.000649177
0.00419175
0.00948497
0.0152226
0.0213959
0.0279955
0.0350114
0.0424331
0.05025
0.0584507
0.067024
0.0759584
0.0852422
0.0948638
0.104812
0.115074
0.12564
0.136499
0.147638
0.159047
0.170716
0.182634
0.194791
0.207178
0.219784
0.232601
0.24562
0.258832
0.272229
0.285803
0.299547
0.313453
0.327514
0.341723
0.356075
0.370562
0.385179
0.399921
0.414782
0.429756
0.444839
0.460026
0.475312
0.490693
0.506164
0.521722
0.537361
0.553078
0.568869
0.584729
0.600655
0.616642
0.632686
0.648784
0.66493
0.68112
0.69735
0.713615
0.729909
0.746227
0.762564
0.778915
0.795271
0.811629
0.827979
0.844315
0.86063
0.876915
0.893161
0.90936
0.925501
0.941575
0.957571
0.973477
0.989281
1.00497
1.02053
1.03596
1.05122
1.06632
1.08123
1.09594
1.11043
1.12469
1.13869
1.15242
1.16586
1.17899
1.19179
1.20424
1.21633
1.22802
1.23932
1.25018
1.2606
1.27055
1.28002
1.28899
1.29744
1.30536
1.31273
1.31953
1.32576
1.33141
1.33646
1.34091
1.34476
1.34801
1.35065
1.35269
1.35414
1.355
1.35531
1.35506
1.35429
1.35301
1.35127
1.34909
1.34652
1.34359
1.34035
1.33685
1.33314
1.32927
1.32531
1.32129
1.31728
1.31333
1.30951
1.30557
1.30129
0.0339837
0.0294319
0.0253726
0.0215499
0.0176851
0.0138222
0.010013
0.00629009
0.00268786
-0.000756848
-0.00400751
-0.00702886
-0.00978731
-0.0122515
-0.0143926
-0.0161844
-0.0176036
-0.0186297
-0.0192449
-0.0194343
-0.0191854
-0.0184885
-0.0173361
-0.0157227
-0.0136451
-0.0111019
-0.00809345
-0.00462147
-0.000689311
0.00369851
0.00853631
0.0138175
0.0195344
0.0256789
0.032242
0.0392141
0.0465853
0.0543453
0.0624833
0.0709887
0.0798502
0.0890568
0.0985974
0.108461
0.118636
0.129112
0.139877
0.150922
0.162236
0.173807
0.185627
0.197686
0.209973
0.22248
0.235197
0.248116
0.261229
0.274527
0.288003
0.301648
0.315457
0.329421
0.343535
0.357791
0.372183
0.386707
0.401355
0.416123
0.431005
0.445996
0.461092
0.476287
0.491577
0.506958
0.522425
0.537973
0.553599
0.569299
0.585068
0.600901
0.616796
0.632747
0.648751
0.664801
0.680896
0.697028
0.713194
0.729388
0.745605
0.761839
0.778085
0.794336
0.810586
0.826827
0.843053
0.859255
0.875426
0.891557
0.907638
0.923661
0.939616
0.95549
0.971274
0.986956
1.00252
1.01796
1.03326
1.0484
1.06338
1.07816
1.09275
1.10712
1.12125
1.13514
1.14875
1.16208
1.1751
1.1878
1.20016
1.21215
1.22376
1.23497
1.24576
1.25611
1.266
1.27542
1.28434
1.29276
1.30065
1.308
1.3148
1.32103
1.3267
1.33177
1.33626
1.34016
1.34346
1.34617
1.34829
1.34982
1.35078
1.35118
1.35104
1.35037
1.34919
1.34755
1.34546
1.34296
1.34008
1.33688
1.33338
1.32963
1.32568
1.32157
1.31735
1.31304
1.30872
1.30442
1.29983
1.29466
0.0400142
0.0346622
0.0300066
0.0257369
0.0215044
0.0173475
0.0133133
0.00942554
0.00571002
0.00219584
-0.00108759
-0.0041115
-0.00684818
-0.00927151
-0.0113573
-0.0130834
-0.0144299
-0.0153795
-0.0159169
-0.0160293
-0.0157061
-0.0149391
-0.0137218
-0.0120499
-0.0099209
-0.0073338
-0.0042893
-0.000789456
0.00316233
0.00756156
0.0124027
0.0176792
0.0233838
0.0295086
0.0360448
0.0429834
0.0503148
0.058029
0.0661158
0.0745647
0.0833652
0.0925066
0.101978
0.111769
0.121868
0.132265
0.14295
0.153912
0.16514
0.176626
0.188358
0.200328
0.212526
0.224943
0.237571
0.2504
0.263422
0.276629
0.290015
0.30357
0.317289
0.331164
0.345188
0.359356
0.37366
0.388096
0.402657
0.417338
0.432133
0.447038
0.462047
0.477156
0.49236
0.507655
0.523035
0.538498
0.554037
0.56965
0.585332
0.601078
0.616884
0.632746
0.648659
0.66462
0.680622
0.696662
0.712734
0.728833
0.744954
0.761091
0.777239
0.79339
0.809538
0.825677
0.841799
0.857897
0.873962
0.889985
0.905959
0.921873
0.937717
0.953481
0.969154
0.984724
1.00018
1.01551
1.03069
1.04573
1.06059
1.07527
1.08975
1.10401
1.11805
1.13183
1.14535
1.15858
1.17151
1.18412
1.1964
1.20831
1.21985
1.231
1.24173
1.25203
1.26187
1.27125
1.28015
1.28855
1.29643
1.30378
1.31058
1.31683
1.32252
1.32763
1.33216
1.33611
1.33947
1.34224
1.34443
1.34604
1.34709
1.34757
1.34751
1.34692
1.34582
1.34425
1.34221
1.33975
1.3369
1.33369
1.33015
1.32632
1.32225
1.31795
1.31348
1.30885
1.30412
1.29933
1.29409
1.28805
0.0459452
0.0398113
0.0345626
0.0298371
0.0252209
0.0207484
0.0164636
0.0123825
0.00852371
0.00490949
0.00156295
-0.00149297
-0.00423598
-0.00664477
-0.00869947
-0.0103818
-0.0116755
-0.0125658
-0.0130403
-0.0130883
-0.0127011
-0.011872
-0.0105959
-0.0088695
-0.00669111
-0.00406051
-0.00097883
0.00255149
0.00652687
0.0109427
0.0157933
0.0210724
0.0267727
0.0328865
0.0394054
0.0463205
0.0536224
0.0613017
0.0693483
0.0777522
0.0865032
0.0955908
0.105005
0.114734
0.124769
0.1351
0.145715
0.156605
0.16776
0.17917
0.190825
0.202717
0.214836
0.227173
0.239719
0.252467
0.265407
0.278533
0.291837
0.30531
0.318947
0.332739
0.346682
0.360767
0.37499
0.389344
0.403824
0.418423
0.433138
0.447961
0.46289
0.477917
0.49304
0.508254
0.523553
0.538933
0.554391
0.569921
0.58552
0.601182
0.616905
0.632682
0.64851
0.664384
0.680299
0.696251
0.712235
0.728244
0.744275
0.76032
0.776375
0.792432
0.808486
0.824529
0.840555
0.856555
0.872521
0.888446
0.90432
0.920134
0.935878
0.951542
0.967114
0.982584
0.997939
1.01317
1.02826
1.04319
1.05796
1.07254
1.08693
1.1011
1.11505
1.12875
1.14219
1.15534
1.1682
1.18074
1.19295
1.20481
1.2163
1.22739
1.23808
1.24835
1.25817
1.26753
1.27641
1.2848
1.29269
1.30004
1.30687
1.31314
1.31886
1.32402
1.3286
1.3326
1.33602
1.33885
1.34111
1.34279
1.34391
1.34446
1.34447
1.34395
1.34291
1.34138
1.33937
1.33693
1.33406
1.33081
1.3272
1.32326
1.31902
1.31451
1.30976
1.30478
1.29963
1.29435
1.28846
1.28157
0.0516813
0.0447883
0.0389549
0.0337714
0.0287623
0.0239597
0.0194054
0.0151094
0.0110838
0.00734501
0.00391061
0.00079827
-0.00197456
-0.00439102
-0.00643533
-0.0080929
-0.00935051
-0.0101966
-0.0106211
-0.0106155
-0.0101732
-0.00928885
-0.00795896
-0.00618134
-0.0039552
-0.00128109
0.00183922
0.00540285
0.00940587
0.0138434
0.0187098
0.0239986
0.0297025
0.035814
0.0423247
0.049226
0.0565088
0.0641637
0.072181
0.080551
0.0892636
0.0983088
0.107676
0.117356
0.127339
0.137613
0.14817
0.158999
0.170091
0.181436
0.193025
0.204849
0.216899
0.229165
0.241641
0.254316
0.267184
0.280237
0.293466
0.306865
0.320428
0.334146
0.348013
0.362024
0.376172
0.39045
0.404855
0.419379
0.434017
0.448765
0.463618
0.47857
0.493617
0.508753
0.523976
0.539279
0.554659
0.570111
0.585632
0.601215
0.616858
0.632555
0.648302
0.664094
0.679928
0.695796
0.711696
0.727621
0.743566
0.759525
0.775492
0.791462
0.807428
0.823382
0.839318
0.855228
0.871104
0.886938
0.902721
0.918444
0.934097
0.94967
0.965152
0.980532
0.995799
1.01094
1.02594
1.04079
1.05548
1.06998
1.08429
1.09839
1.11226
1.12589
1.13926
1.15236
1.16516
1.17765
1.18981
1.20163
1.21308
1.22415
1.23481
1.24506
1.25487
1.26422
1.27311
1.28151
1.28941
1.29679
1.30364
1.30996
1.31572
1.32092
1.32555
1.32961
1.33309
1.33599
1.33832
1.34007
1.34125
1.34186
1.34193
1.34145
1.34045
1.33895
1.33695
1.33449
1.33159
1.32827
1.32456
1.32048
1.31605
1.31131
1.30626
1.30092
1.29534
1.28956
1.28304
1.27533
0.0571399
0.0495129
0.0431071
0.0374677
0.0320618
0.0269201
0.0220835
0.0175565
0.013346
0.00946338
0.0059213
0.00273272
-8.92289e-05
-0.00253182
-0.004583
-0.00623162
-0.00746756
-0.00828196
-0.00866729
-0.00861733
-0.0081272
-0.00719338
-0.00581371
-0.00398725
-0.00171425
0.00100391
0.00416476
0.00776483
0.0117998
0.0162644
0.0211528
0.0264584
0.0321738
0.0382916
0.0448033
0.0517005
0.0589741
0.0666151
0.0746138
0.0829608
0.0916462
0.10066
0.109993
0.119635
0.129575
0.139805
0.150315
0.161094
0.172134
0.183425
0.194958
0.206724
0.218714
0.23092
0.243333
0.255946
0.26875
0.281737
0.294901
0.308235
0.32173
0.335381
0.349181
0.363123
0.377203
0.391413
0.405748
0.420202
0.434771
0.449449
0.464231
0.479112
0.494088
0.509153
0.524303
0.539534
0.554841
0.57022
0.585666
0.601175
0.616743
0.632364
0.648035
0.663751
0.679506
0.695296
0.711117
0.726962
0.742827
0.758706
0.774592
0.79048
0.806363
0.822235
0.838088
0.853915
0.869708
0.885459
0.90116
0.9168
0.932371
0.947863
0.963265
0.978566
0.993755
1.00882
1.02375
1.03852
1.05314
1.06758
1.08182
1.09586
1.10967
1.12325
1.13657
1.14962
1.16238
1.17484
1.18697
1.19876
1.21019
1.22124
1.2319
1.24215
1.25196
1.26133
1.27023
1.27865
1.28658
1.294
1.3009
1.30726
1.31307
1.31833
1.32302
1.32714
1.33069
1.33365
1.33604
1.33786
1.3391
1.33977
1.33988
1.33944
1.33847
1.33697
1.33497
1.33248
1.32952
1.32611
1.32228
1.31803
1.3134
1.3084
1.30304
1.29733
1.29131
1.28504
1.27791
1.26941
0.0622486
0.0539137
0.04695
0.0408604
0.0350578
0.0295725
0.0244451
0.019676
0.0152672
0.011226
0.00756075
0.00428022
0.00139362
-0.00109006
-0.00316221
-0.00481481
-0.00604082
-0.00683393
-0.00718902
-0.00710202
-0.00656994
-0.00559098
-0.00416443
-0.00229056
2.92487e-05
0.00279266
0.00599645
0.00963654
0.013708
0.0182053
0.0231222
0.0284518
0.0341868
0.0403194
0.0468413
0.053744
0.0610186
0.0686559
0.0766468
0.0849816
0.0936509
0.102645
0.111954
0.121568
0.131479
0.141675
0.152148
0.162888
0.173887
0.185134
0.196621
0.208339
0.22028
0.232435
0.244796
0.257354
0.270103
0.283035
0.296142
0.309417
0.322853
0.336444
0.350184
0.364065
0.378083
0.39223
0.406502
0.420893
0.435398
0.450012
0.464729
0.479544
0.494454
0.509452
0.524535
0.539699
0.554937
0.570247
0.585624
0.601063
0.61656
0.63211
0.647709
0.663352
0.679034
0.694751
0.710498
0.726269
0.742059
0.757862
0.773672
0.789484
0.805291
0.821087
0.836864
0.852615
0.868332
0.884008
0.899634
0.9152
0.930698
0.946118
0.96145
0.976682
0.991803
1.0068
1.02167
1.03638
1.05094
1.06532
1.07952
1.09351
1.10728
1.12082
1.1341
1.14712
1.15986
1.17229
1.18441
1.19619
1.20762
1.21867
1.22934
1.2396
1.24943
1.25883
1.26776
1.27623
1.2842
1.29166
1.29861
1.30503
1.31091
1.31623
1.32099
1.32518
1.32879
1.33183
1.33429
1.33616
1.33746
1.33818
1.33833
1.33792
1.33696
1.33546
1.33344
1.3309
1.32787
1.32436
1.32038
1.31596
1.31111
1.30584
1.30016
1.29407
1.28763
1.28087
1.27314
1.26388
0.0669441
0.0579271
0.0504214
0.0438895
0.0376934
0.0318633
0.0264407
0.0214221
0.0168057
0.0125951
0.00879489
0.00541031
0.00244693
-8.95897e-05
-0.00219383
-0.00386079
-0.0050861
-0.00586607
-0.00619783
-0.00607939
-0.0055097
-0.00448859
-0.00301678
-0.00109593
0.00127147
0.00408211
0.00733194
0.0110161
0.0151293
0.0196652
0.0246173
0.0299784
0.0357411
0.0418973
0.0484386
0.0553565
0.0626421
0.0702863
0.0782799
0.0866134
0.0952775
0.104263
0.113559
0.123157
0.133048
0.143222
0.15367
0.164382
0.17535
0.186564
0.198015
0.209696
0.221597
0.23371
0.246028
0.258541
0.271244
0.284128
0.297186
0.310411
0.323796
0.337335
0.351021
0.364848
0.378811
0.392902
0.407118
0.421451
0.435898
0.450453
0.46511
0.479865
0.494714
0.509651
0.524671
0.539772
0.554947
0.570193
0.585504
0.600878
0.616309
0.631792
0.647324
0.662899
0.678513
0.694161
0.709838
0.72554
0.74126
0.756993
0.772733
0.788475
0.804212
0.819937
0.835645
0.851326
0.866975
0.882583
0.898142
0.913642
0.929076
0.944433
0.959703
0.974876
0.98994
1.00489
1.0197
1.03437
1.04888
1.06322
1.07737
1.09133
1.10507
1.11858
1.13185
1.14485
1.15758
1.17001
1.18213
1.19391
1.20535
1.21643
1.22712
1.23741
1.24728
1.25671
1.2657
1.27421
1.28224
1.28977
1.29678
1.30327
1.30922
1.31462
1.31945
1.32372
1.32741
1.33052
1.33304
1.33498
1.33633
1.3371
1.33729
1.3369
1.33595
1.33444
1.33238
1.32978
1.32667
1.32304
1.31891
1.3143
1.30922
1.30367
1.29767
1.29121
1.28434
1.2771
1.26879
1.25882
0.0711699
0.0614962
0.053465
0.0465002
0.0399157
0.0337426
0.0280232
0.0227509
0.0179209
0.0135334
0.00958991
0.00609237
0.00304319
0.000444962
-0.00169979
-0.0033889
-0.00462046
-0.00539329
-0.00570669
-0.00556071
-0.00495611
-0.0038944
-0.00237782
-0.000409297
0.00200748
0.00486819
0.00816787
0.011901
0.0160613
0.0206423
0.0256368
0.0310374
0.0368361
0.0430248
0.0495951
0.056538
0.0638449
0.0715064
0.0795134
0.0878565
0.0965263
0.105514
0.114809
0.124402
0.134285
0.144447
0.15488
0.165575
0.176522
0.187714
0.19914
0.210793
0.222664
0.234745
0.247029
0.259507
0.272172
0.285017
0.298034
0.311217
0.324559
0.338053
0.351693
0.365473
0.379387
0.393429
0.407594
0.421876
0.436271
0.450772
0.465375
0.480075
0.494868
0.509748
0.524712
0.539754
0.55487
0.570056
0.585308
0.60062
0.615989
0.63141
0.646879
0.662391
0.677941
0.693526
0.709138
0.724775
0.74043
0.756098
0.771774
0.787451
0.803123
0.818785
0.834429
0.850048
0.865635
0.881182
0.896681
0.912124
0.927502
0.942804
0.958022
0.973145
0.988162
1.00306
1.01783
1.03247
1.04694
1.06125
1.07538
1.08932
1.10304
1.11654
1.1298
1.1428
1.15553
1.16798
1.18011
1.19192
1.20338
1.21449
1.22522
1.23556
1.24548
1.25497
1.26402
1.2726
1.2807
1.28831
1.2954
1.30197
1.308
1.31348
1.3184
1.32275
1.32653
1.32971
1.33231
1.33431
1.33572
1.33654
1.33676
1.33639
1.33544
1.33391
1.33181
1.32915
1.32594
1.32219
1.3179
1.3131
1.30778
1.30195
1.29562
1.28879
1.2815
1.2738
1.26493
1.25427
0.0748757
0.0645697
0.0560292
0.0486421
0.0416761
0.0351635
0.029148
0.0236207
0.0185737
0.0140048
0.00991246
0.00629587
0.00315459
0.000488424
-0.00170277
-0.00341938
-0.00466201
-0.00543164
-0.00572975
-0.00555837
-0.00492002
-0.00381787
-0.00225563
-0.000237581
0.0022314
0.00514593
0.00850011
0.0122876
0.0165014
0.0211344
0.026179
0.0316273
0.0374709
0.0437015
0.0503103
0.0572885
0.0646269
0.0723163
0.0803476
0.0887113
0.097398
0.106398
0.115703
0.125303
0.135189
0.145351
0.15578
0.166468
0.177406
0.188585
0.199996
0.211631
0.223482
0.235541
0.2478
0.260252
0.272888
0.285702
0.298687
0.311836
0.325142
0.338598
0.3522
0.365939
0.379812
0.393811
0.407932
0.422169
0.436517
0.450971
0.465525
0.480176
0.494917
0.509746
0.524657
0.539646
0.554708
0.569839
0.585034
0.60029
0.615602
0.630965
0.646376
0.661829
0.67732
0.692845
0.708398
0.723974
0.73957
0.755178
0.770794
0.786412
0.802026
0.817629
0.833216
0.848778
0.86431
0.879804
0.895251
0.910643
0.925973
0.941229
0.956403
0.971486
0.986466
1.00133
1.01607
1.03068
1.04513
1.05942
1.07354
1.08746
1.10119
1.11469
1.12795
1.14097
1.15372
1.16618
1.17835
1.19019
1.2017
1.21286
1.22365
1.23404
1.24403
1.2536
1.26272
1.27139
1.27957
1.28727
1.29446
1.30112
1.30725
1.31283
1.31784
1.32228
1.32615
1.32942
1.33209
1.33417
1.33564
1.3365
1.33676
1.33641
1.33546
1.33391
1.33176
1.32903
1.32572
1.32184
1.31739
1.31238
1.30682
1.30072
1.29407
1.28686
1.27917
1.27101
1.26161
1.25028
0.0780159
0.0671006
0.058067
0.0502684
0.0429287
0.0360818
0.0297729
0.0239911
0.0187263
0.0139737
0.00972952
0.00599032
0.00275315
1.52602e-05
-0.00222603
-0.00397334
-0.00522965
-0.00599808
-0.00628215
-0.00608579
-0.00541327
-0.00426935
-0.00265925
-0.000588615
0.00193651
0.00490962
0.00832387
0.012172
0.0164463
0.0211391
0.026242
0.0317467
0.0376445
0.0439267
0.0505841
0.0576078
0.0649884
0.0727166
0.0807831
0.0891785
0.0978934
0.106918
0.116244
0.125861
0.135761
0.145934
0.15637
0.167063
0.178002
0.189178
0.200585
0.212212
0.224053
0.236099
0.248343
0.260776
0.273393
0.286185
0.299146
0.312268
0.325546
0.338973
0.352543
0.366249
0.380087
0.39405
0.408133
0.42233
0.436637
0.451049
0.46556
0.480166
0.494863
0.509645
0.524508
0.539448
0.55446
0.56954
0.584685
0.599888
0.615147
0.630457
0.645814
0.661213
0.676649
0.692119
0.707617
0.723138
0.738678
0.754232
0.769793
0.785357
0.800918
0.816469
0.832004
0.847517
0.863
0.878446
0.893848
0.909198
0.924486
0.939705
0.954844
0.969895
0.984846
0.999688
1.01441
1.029
1.04344
1.05772
1.07184
1.08577
1.0995
1.11301
1.1263
1.13934
1.15212
1.16463
1.17684
1.18873
1.2003
1.21153
1.22238
1.23286
1.24293
1.25258
1.2618
1.27056
1.27885
1.28665
1.29394
1.30071
1.30695
1.31264
1.31776
1.32231
1.32627
1.32963
1.33239
1.33454
1.33608
1.33699
1.33729
1.33696
1.33601
1.33443
1.33224
1.32944
1.32603
1.32201
1.3174
1.31219
1.30639
1.30001
1.29304
1.28548
1.27738
1.26879
1.25886
1.24689
0.0805493
0.0690459
0.0595349
0.0513357
0.0436308
0.0364557
0.0298575
0.0238237
0.0183419
0.0134056
0.00900866
0.00514549
0.00181079
-0.00100047
-0.00329322
-0.00507239
-0.00634303
-0.00711035
-0.00737985
-0.00715721
-0.00644848
-0.00526002
-0.00359851
-0.00147093
0.00111544
0.00415298
0.00763381
0.0115498
0.0158925
0.0206533
0.0258234
0.0313939
0.0373557
0.0436996
0.0504161
0.057496
0.0649298
0.0727079
0.080821
0.0892594
0.0980138
0.107075
0.116433
0.126079
0.136004
0.146198
0.156653
0.16736
0.178311
0.189496
0.200908
0.212538
0.224378
0.236421
0.248658
0.261083
0.273689
0.286467
0.299412
0.312516
0.325774
0.339178
0.352723
0.366403
0.380213
0.394146
0.408197
0.422362
0.436634
0.451009
0.465482
0.480049
0.494705
0.509445
0.524266
0.539161
0.554129
0.569163
0.58426
0.599416
0.614627
0.629888
0.645195
0.660543
0.67593
0.691349
0.706796
0.722267
0.737756
0.75326
0.768772
0.784287
0.799799
0.815303
0.830793
0.846261
0.861702
0.877108
0.892472
0.907786
0.923041
0.938229
0.953342
0.968369
0.983301
0.998126
1.01284
1.02742
1.04186
1.05615
1.07027
1.08421
1.09796
1.11151
1.12483
1.13791
1.15074
1.1633
1.17557
1.18753
1.19917
1.21047
1.22142
1.23198
1.24215
1.25191
1.26124
1.27011
1.27852
1.28643
1.29385
1.30075
1.3071
1.31291
1.31815
1.32282
1.32689
1.33036
1.33321
1.33545
1.33705
1.33803
1.33836
1.33806
1.33711
1.33552
1.33328
1.33041
1.3269
1.32275
1.31797
1.31256
1.30653
1.29987
1.29258
1.28467
1.27618
1.26716
1.25673
1.24415
0.0824376
0.070366
0.060392
0.0518032
0.0437419
0.0362455
0.0293632
0.023081
0.0173849
0.0122664
0.00771776
0.00373121
0.000299391
-0.00258486
-0.0049285
-0.00673868
-0.0080224
-0.00878687
-0.00903943
-0.00878757
-0.00803904
-0.00680175
-0.00508385
-0.00289365
-0.000239706
0.00286921
0.00642418
0.0104161
0.0148358
0.0196739
0.0249209
0.0305673
0.0366034
0.0430196
0.0498062
0.0569535
0.0644518
0.0722913
0.0804624