/*--------------------------------*- C++ -*----------------------------------*\
  =========                 |
  \\      /  F ield         | OpenFOAM: The Open Source CFD Toolbox
   \\    /   O peration     | Website:  https://openfoam.org
    \\  /    A nd           | Version:  7
     \\/     M anipulation  |
\*---------------------------------------------------------------------------*/
FoamFile
{
    version     2.0;
    format      ascii;
    class       surfaceScalarField;
    location    "0.1125";
    object      phi;
}
// * * * * * * * * * * * * * * * * * * * * * * * * * * * * * * * * * * * * * //

dimensions      [0 3 -1 0 0 0 0];

internalField   nonuniform List<scalar> 
25360
(
1.14309e-10
-1.14247e-10
3.59425e-10
-2.45134e-10
6.03903e-10
-2.44474e-10
7.64624e-10
-1.60726e-10
7.97489e-10
-3.28661e-11
6.80698e-10
1.16787e-10
4.05632e-10
2.7506e-10
-2.83723e-11
4.34004e-10
-6.17192e-10
5.88814e-10
-1.3538e-09
7.36607e-10
-2.22943e-09
8.75633e-10
-3.23432e-09
1.00489e-09
-4.35817e-09
1.12385e-09
-5.59047e-09
1.23229e-09
-6.92069e-09
1.33021e-09
-8.33847e-09
1.41778e-09
-9.83371e-09
1.49524e-09
-1.13966e-08
1.56292e-09
-1.30179e-08
1.62123e-09
-1.46884e-08
1.67057e-09
-1.63998e-08
1.7114e-09
-1.8144e-08
1.74419e-09
-1.99134e-08
1.7694e-09
-2.17009e-08
1.78752e-09
-2.34999e-08
1.79901e-09
-2.53043e-08
1.80435e-09
-2.71083e-08
1.804e-09
-2.89067e-08
1.7984e-09
-3.06947e-08
1.78799e-09
-3.24679e-08
1.7732e-09
-3.42223e-08
1.75443e-09
-3.59544e-08
1.73208e-09
-3.76609e-08
1.70651e-09
-3.9339e-08
1.67809e-09
-4.09861e-08
1.64716e-09
-4.26002e-08
1.61402e-09
-4.41792e-08
1.579e-09
-4.57215e-08
1.54236e-09
-4.72259e-08
1.50438e-09
-4.86912e-08
1.46529e-09
-5.01165e-08
1.42534e-09
-5.15013e-08
1.38473e-09
-5.28449e-08
1.34365e-09
-5.41472e-08
1.30229e-09
-5.5408e-08
1.26081e-09
-5.66274e-08
1.21936e-09
-5.78054e-08
1.17806e-09
-5.89425e-08
1.13705e-09
-6.00389e-08
1.09642e-09
-6.10952e-08
1.05626e-09
-6.21118e-08
1.01666e-09
-6.30895e-08
9.77697e-10
-6.40289e-08
9.39416e-10
-6.49308e-08
9.01869e-10
-6.57959e-08
8.65093e-10
-6.6625e-08
8.29117e-10
-6.7419e-08
7.93962e-10
-6.81786e-08
7.59643e-10
-6.89048e-08
7.26165e-10
-6.95983e-08
6.93523e-10
-7.026e-08
6.61708e-10
-7.08907e-08
6.30707e-10
-7.14912e-08
6.00497e-10
-7.20623e-08
5.71055e-10
-7.26046e-08
5.42351e-10
-7.3119e-08
5.1435e-10
-7.3606e-08
4.8701e-10
-7.40663e-08
4.60288e-10
-7.45004e-08
4.34136e-10
-7.49089e-08
4.08506e-10
-7.52923e-08
3.83341e-10
-7.56508e-08
3.58585e-10
-7.5985e-08
3.3418e-10
-7.62951e-08
3.10065e-10
-7.65813e-08
2.86174e-10
-7.68437e-08
2.62441e-10
-7.70825e-08
2.38801e-10
-7.72977e-08
2.15184e-10
-7.74892e-08
1.91519e-10
-7.76569e-08
1.67732e-10
-7.78007e-08
1.43751e-10
-7.79202e-08
1.19505e-10
-7.80151e-08
9.49182e-11
-7.8085e-08
6.99175e-11
-7.81294e-08
4.44278e-11
-7.81478e-08
1.83743e-11
-7.81395e-08
-8.31669e-12
-7.81038e-08
-3.57178e-11
-7.80399e-08
-6.39013e-11
-7.79469e-08
-9.29389e-11
-7.7824e-08
-1.22899e-10
-7.76702e-08
-1.53847e-10
-7.74844e-08
-1.85847e-10
-7.72654e-08
-2.18961e-10
-7.70121e-08
-2.53245e-10
-7.67234e-08
-2.88755e-10
-7.63979e-08
-3.25537e-10
-7.60342e-08
-3.63638e-10
-7.56311e-08
-4.03095e-10
-7.51872e-08
-4.4394e-10
-7.4701e-08
-4.86195e-10
-7.41711e-08
-5.29876e-10
-7.35961e-08
-5.74992e-10
-7.29746e-08
-6.21545e-10
-7.2305e-08
-6.69523e-10
-7.15862e-08
-7.18901e-10
-7.08165e-08
-7.69643e-10
-6.99948e-08
-8.21703e-10
-6.91198e-08
-8.7502e-10
-6.81903e-08
-9.2952e-10
-6.72052e-08
-9.85113e-10
-6.61635e-08
-1.04169e-09
-6.50643e-08
-1.09913e-09
-6.39071e-08
-1.15728e-09
-6.2691e-08
-1.216e-09
-6.1416e-08
-1.2751e-09
-6.00816e-08
-1.33438e-09
-5.8688e-08
-1.39361e-09
-5.72354e-08
-1.45257e-09
-5.57244e-08
-1.51098e-09
-5.41558e-08
-1.56857e-09
-5.25308e-08
-1.62503e-09
-5.08508e-08
-1.68004e-09
-4.91175e-08
-1.73324e-09
-4.73333e-08
-1.78427e-09
-4.55005e-08
-1.83274e-09
-4.36223e-08
-1.87825e-09
-4.17019e-08
-1.92037e-09
-3.97433e-08
-1.95865e-09
-3.77506e-08
-1.99264e-09
-3.57288e-08
-2.02187e-09
-3.36829e-08
-2.04584e-09
-3.16189e-08
-2.06406e-09
-2.95428e-08
-2.07602e-09
-2.74616e-08
-2.08122e-09
-2.53825e-08
-2.07913e-09
-2.33133e-08
-2.06925e-09
-2.12622e-08
-2.05105e-09
-1.92382e-08
-2.02404e-09
-1.72505e-08
-1.98772e-09
-1.53089e-08
-1.9416e-09
-1.34236e-08
-1.88524e-09
-1.16054e-08
-1.81819e-09
-9.86538e-09
-1.74006e-09
-8.21487e-09
-1.65051e-09
-6.66561e-09
-1.54926e-09
-5.22952e-09
-1.4361e-09
-3.91856e-09
-1.31095e-09
-2.74467e-09
-1.17389e-09
-1.71943e-09
-1.02523e-09
-8.53829e-10
-8.65604e-10
-1.57679e-10
-6.96146e-10
3.61103e-10
-5.18777e-10
6.97766e-10
-3.36659e-10
8.52802e-10
-1.55032e-10
8.3544e-10
1.7367e-11
6.69482e-10
1.65963e-10
4.0365e-10
2.65833e-10
1.30703e-10
2.72947e-10
1.30706e-10
2.45332e-10
-3.59584e-10
6.33662e-10
-6.33451e-10
9.49419e-10
-5.60231e-10
1.04594e-09
-2.57248e-10
8.27431e-10
1.85651e-10
2.37426e-10
7.06798e-10
-7.52423e-10
1.26492e-09
-2.15114e-09
1.83272e-09
-3.95459e-09
2.39226e-09
-6.1498e-09
2.93181e-09
-8.71791e-09
3.44374e-09
-1.16362e-08
3.9232e-09
-1.48796e-08
4.36729e-09
-1.84218e-08
4.77442e-09
-2.22355e-08
5.14398e-09
-2.62938e-08
5.47602e-09
-3.05697e-08
5.77111e-09
-3.50369e-08
6.03016e-09
-3.96701e-08
6.25436e-09
-4.44446e-08
6.44507e-09
-4.9337e-08
6.60382e-09
-5.4325e-08
6.73221e-09
-5.93875e-08
6.8319e-09
-6.45046e-08
6.90461e-09
-6.96577e-08
6.95204e-09
-7.48292e-08
6.9759e-09
-8.00031e-08
6.9779e-09
-8.51644e-08
6.95969e-09
-9.02993e-08
6.92292e-09
-9.53953e-08
6.86916e-09
-1.00441e-07
6.79994e-09
-1.05426e-07
6.71676e-09
-1.1034e-07
6.62102e-09
-1.15176e-07
6.51408e-09
-1.19926e-07
6.39723e-09
-1.24584e-07
6.27169e-09
-1.29143e-07
6.13862e-09
-1.336e-07
5.99911e-09
-1.3795e-07
5.85419e-09
-1.42189e-07
5.70479e-09
-1.46316e-07
5.55181e-09
-1.50327e-07
5.39607e-09
-1.54222e-07
5.23833e-09
-1.57999e-07
5.07928e-09
-1.61658e-07
4.91957e-09
-1.65198e-07
4.75976e-09
-1.6862e-07
4.60038e-09
-1.71925e-07
4.44191e-09
-1.75114e-07
4.28475e-09
-1.78187e-07
4.12927e-09
-1.81146e-07
3.97579e-09
-1.83993e-07
3.82459e-09
-1.86729e-07
3.67591e-09
-1.89357e-07
3.52994e-09
-1.91879e-07
3.38682e-09
-1.94296e-07
3.24669e-09
-1.96612e-07
3.10962e-09
-1.98828e-07
2.97568e-09
-2.00947e-07
2.84489e-09
-2.02971e-07
2.71725e-09
-2.04902e-07
2.59273e-09
-2.06742e-07
2.47128e-09
-2.08495e-07
2.35282e-09
-2.10161e-07
2.23727e-09
-2.11743e-07
2.1245e-09
-2.13243e-07
2.01439e-09
-2.14663e-07
1.90679e-09
-2.16004e-07
1.80153e-09
-2.17268e-07
1.69843e-09
-2.18457e-07
1.59731e-09
-2.19572e-07
1.49794e-09
-2.20613e-07
1.40013e-09
-2.21583e-07
1.30365e-09
-2.22481e-07
1.20825e-09
-2.23308e-07
1.1137e-09
-2.24066e-07
1.01974e-09
-2.24753e-07
9.26114e-10
-2.2537e-07
8.32559e-10
-2.25918e-07
7.38804e-10
-2.26395e-07
6.44576e-10
-2.268e-07
5.49597e-10
-2.27134e-07
4.53582e-10
-2.27396e-07
3.56249e-10
-2.27583e-07
2.57316e-10
-2.27695e-07
1.56499e-10
-2.2773e-07
5.35169e-11
-2.27687e-07
-5.19151e-11
-2.27562e-07
-1.60074e-10
-2.27355e-07
-2.7123e-10
-2.27062e-07
-3.85651e-10
-2.26682e-07
-5.03599e-10
-2.2621e-07
-6.25326e-10
-2.25645e-07
-7.51074e-10
-2.24983e-07
-8.81069e-10
-2.24221e-07
-1.01552e-09
-2.23355e-07
-1.15464e-09
-2.22382e-07
-1.2986e-09
-2.21298e-07
-1.44756e-09
-2.20099e-07
-1.60166e-09
-2.18782e-07
-1.76101e-09
-2.17343e-07
-1.9257e-09
-2.15777e-07
-2.09577e-09
-2.1408e-07
-2.27126e-09
-2.1225e-07
-2.45214e-09
-2.10281e-07
-2.63835e-09
-2.0817e-07
-2.82981e-09
-2.05913e-07
-3.02636e-09
-2.03507e-07
-3.22782e-09
-2.00948e-07
-3.43393e-09
-1.98233e-07
-3.6444e-09
-1.9536e-07
-3.85886e-09
-1.92325e-07
-4.07689e-09
-1.89126e-07
-4.29801e-09
-1.85761e-07
-4.52166e-09
-1.8223e-07
-4.74723e-09
-1.78531e-07
-4.974e-09
-1.74664e-07
-5.20121e-09
-1.7063e-07
-5.428e-09
-1.66429e-07
-5.65344e-09
-1.62063e-07
-5.87654e-09
-1.57536e-07
-6.0962e-09
-1.5285e-07
-6.31124e-09
-1.48009e-07
-6.52043e-09
-1.4302e-07
-6.72244e-09
-1.37888e-07
-6.91586e-09
-1.32622e-07
-7.09922e-09
-1.27229e-07
-7.27095e-09
-1.2172e-07
-7.42946e-09
-1.16106e-07
-7.57307e-09
-1.10398e-07
-7.70003e-09
-1.04612e-07
-7.80856e-09
-9.87607e-08
-7.89683e-09
-9.28617e-08
-7.96298e-09
-8.69326e-08
-8.00513e-09
-8.09925e-08
-8.02137e-09
-7.50618e-08
-8.00979e-09
-6.91626e-08
-7.96851e-09
-6.3318e-08
-7.89564e-09
-5.75526e-08
-7.78936e-09
-5.18925e-08
-7.6479e-09
-4.63645e-08
-7.46957e-09
-4.0997e-08
-7.25279e-09
-3.5819e-08
-6.99612e-09
-3.08608e-08
-6.69832e-09
-2.61529e-08
-6.35836e-09
-2.17266e-08
-5.97553e-09
-1.76132e-08
-5.54955e-09
-1.38435e-08
-5.08063e-09
-1.04477e-08
-4.56976e-09
-7.45397e-09
-4.01893e-09
-4.88804e-09
-3.43154e-09
-2.77112e-09
-2.81307e-09
-1.11791e-09
-2.17199e-09
6.66727e-11
-1.52125e-09
7.9226e-10
-8.80624e-10
1.08989e-09
-2.80264e-10
1.02192e-09
2.33936e-10
6.94867e-10
5.92885e-10
2.72963e-10
6.94854e-10
4.0367e-10
2.45672e-10
-6.05261e-10
5.63093e-10
-9.50888e-10
6.97192e-10
-6.94329e-10
4.74033e-10
-3.4093e-11
-2.26015e-10
8.85696e-10
-1.47881e-09
1.95959e-09
-3.32621e-09
3.11231e-09
-5.78474e-09
4.29125e-09
-8.85241e-09
5.45994e-09
-1.25139e-08
6.5933e-09
-1.67445e-08
7.67427e-09
-2.15128e-08
8.69149e-09
-2.67832e-08
9.63768e-09
-3.25172e-08
1.05085e-08
-3.8675e-08
1.13018e-08
-4.52159e-08
1.20169e-08
-5.20992e-08
1.26544e-08
-5.92849e-08
1.32159e-08
-6.67339e-08
1.37033e-08
-7.44082e-08
1.41194e-08
-8.22714e-08
1.4467e-08
-9.02886e-08
1.47495e-08
-9.84268e-08
1.49701e-08
-1.06655e-07
1.51323e-08
-1.14942e-07
1.52399e-08
-1.23263e-07
1.52962e-08
-1.3159e-07
1.5305e-08
-1.399e-07
1.52697e-08
-1.48171e-07
1.51938e-08
-1.56382e-07
1.50807e-08
-1.64516e-07
1.49337e-08
-1.72555e-07
1.4756e-08
-1.80485e-07
1.45505e-08
-1.88291e-07
1.43203e-08
-1.95962e-07
1.40682e-08
-2.03487e-07
1.37968e-08
-2.10857e-07
1.35085e-08
-2.18064e-07
1.32059e-08
-2.25101e-07
1.28911e-08
-2.31962e-07
1.25661e-08
-2.38643e-07
1.2233e-08
-2.45141e-07
1.18935e-08
-2.51452e-07
1.15494e-08
-2.57574e-07
1.1202e-08
-2.63508e-07
1.08529e-08
-2.69251e-07
1.05033e-08
-2.74805e-07
1.01544e-08
-2.8017e-07
9.80712e-09
-2.85348e-07
9.4625e-09
-2.9034e-07
9.12132e-09
-2.95149e-07
8.78429e-09
-2.99776e-07
8.45202e-09
-3.04225e-07
8.12505e-09
-3.08499e-07
7.80381e-09
-3.12601e-07
7.48864e-09
-3.16534e-07
7.17984e-09
-3.20302e-07
6.87758e-09
-3.23908e-07
6.58202e-09
-3.27357e-07
6.29321e-09
-3.30651e-07
6.01117e-09
-3.33794e-07
5.73583e-09
-3.3679e-07
5.46711e-09
-3.39642e-07
5.20484e-09
-3.42353e-07
4.94883e-09
-3.44928e-07
4.69883e-09
-3.47368e-07
4.45456e-09
-3.49677e-07
4.21571e-09
-3.51857e-07
3.98191e-09
-3.53911e-07
3.75278e-09
-3.55842e-07
3.52791e-09
-3.57651e-07
3.30685e-09
-3.5934e-07
3.08913e-09
-3.6091e-07
2.87427e-09
-3.62364e-07
2.66175e-09
-3.63701e-07
2.45104e-09
-3.64923e-07
2.2416e-09
-3.6603e-07
2.03287e-09
-3.67022e-07
1.82426e-09
-3.67898e-07
1.6152e-09
-3.68658e-07
1.40508e-09
-3.69302e-07
1.19331e-09
-3.69828e-07
9.79264e-10
-3.70234e-07
7.6234e-10
-3.70519e-07
5.41917e-10
-3.70679e-07
3.1738e-10
-3.70714e-07
8.81175e-11
-3.7062e-07
-1.4648e-10
-3.70393e-07
-3.87013e-10
-3.7003e-07
-6.3407e-10
-3.69527e-07
-8.88229e-10
-3.68881e-07
-1.15005e-09
-3.68086e-07
-1.42008e-09
-3.67138e-07
-1.69882e-09
-3.66033e-07
-1.98677e-09
-3.64764e-07
-2.28439e-09
-3.63326e-07
-2.5921e-09
-3.61714e-07
-2.91029e-09
-3.59923e-07
-3.23928e-09
-3.57945e-07
-3.57937e-09
-3.55775e-07
-3.93079e-09
-3.53407e-07
-4.2937e-09
-3.50835e-07
-4.66822e-09
-3.48052e-07
-5.05436e-09
-3.45052e-07
-5.45208e-09
-3.41829e-07
-5.86123e-09
-3.38377e-07
-6.28158e-09
-3.34691e-07
-6.71282e-09
-3.30764e-07
-7.15448e-09
-3.26592e-07
-7.60603e-09
-3.2217e-07
-8.06679e-09
-3.17492e-07
-8.53595e-09
-3.12557e-07
-9.01258e-09
-3.07359e-07
-9.4956e-09
-3.01897e-07
-9.9838e-09
-2.96168e-07
-1.04758e-08
-2.90172e-07
-1.097e-08
-2.83909e-07
-1.14648e-08
-2.77378e-07
-1.19584e-08
-2.70583e-07
-1.24485e-08
-2.63527e-07
-1.29332e-08
-2.56213e-07
-1.34099e-08
-2.48648e-07
-1.38762e-08
-2.40839e-07
-1.43294e-08
-2.32795e-07
-1.47665e-08
-2.24526e-07
-1.51845e-08
-2.16045e-07
-1.55803e-08
-2.07366e-07
-1.59504e-08
-1.98504e-07
-1.62914e-08
-1.89477e-07
-1.65996e-08
-1.80306e-07
-1.68714e-08
-1.71012e-07
-1.71029e-08
-1.61619e-07
-1.72901e-08
-1.52152e-07
-1.74291e-08
-1.42642e-07
-1.7516e-08
-1.33116e-07
-1.75465e-08
-1.2361e-07
-1.75167e-08
-1.14155e-07
-1.74227e-08
-1.04791e-07
-1.72604e-08
-9.55539e-08
-1.70261e-08
-8.64857e-08
-1.67161e-08
-7.76282e-08
-1.63271e-08
-6.90252e-08
-1.58558e-08
-6.07217e-08
-1.52996e-08
-5.27641e-08
-1.4656e-08
-4.51991e-08
-1.39233e-08
-3.8074e-08
-1.31006e-08
-3.14356e-08
-1.21879e-08
-2.53298e-08
-1.11864e-08
-1.98003e-08
-1.00993e-08
-1.48875e-08
-8.9317e-09
-1.06269e-08
-7.6922e-09
-7.04626e-09
-6.39367e-09
-4.16311e-09
-5.05514e-09
-1.97995e-09
-3.7044e-09
-4.78771e-10
-2.3818e-09
3.86624e-10
-1.14566e-09
7.0033e-10
-7.97718e-11
5.95556e-10
6.97661e-10
2.6671e-10
1.0237e-09
6.70379e-10
1.63634e-10
-7.68904e-10
2.64434e-10
-1.05167e-09
4.37581e-11
-4.73651e-10
-6.78695e-10
6.88354e-10
-2.02961e-09
2.23662e-09
-4.0922e-09
4.02218e-09
-6.91453e-09
5.93464e-09
-1.05171e-08
7.89384e-09
-1.48992e-08
9.84206e-09
-2.00441e-08
1.17382e-08
-2.5923e-08
1.35531e-08
-3.24984e-08
1.5267e-08
-3.9727e-08
1.68663e-08
-4.75612e-08
1.83427e-08
-5.59509e-08
1.96914e-08
-6.48445e-08
2.09105e-08
-7.41902e-08
2.20001e-08
-8.39364e-08
2.29621e-08
-9.40326e-08
2.37994e-08
-1.04429e-07
2.4516e-08
-1.15079e-07
2.51165e-08
-1.25935e-07
2.56059e-08
-1.36955e-07
2.59898e-08
-1.48096e-07
2.62739e-08
-1.59321e-07
2.64641e-08
-1.70591e-07
2.65664e-08
-1.81873e-07
2.65868e-08
-1.93134e-07
2.65311e-08
-2.04345e-07
2.64053e-08
-2.1548e-07
2.6215e-08
-2.26512e-07
2.59659e-08
-2.37419e-07
2.56634e-08
-2.48182e-07
2.53127e-08
-2.5878e-07
2.49189e-08
-2.69199e-07
2.44866e-08
-2.79422e-07
2.40205e-08
-2.89439e-07
2.35249e-08
-2.99237e-07
2.30039e-08
-3.08807e-07
2.24614e-08
-3.18142e-07
2.19008e-08
-3.27234e-07
2.13257e-08
-3.3608e-07
2.07391e-08
-3.44674e-07
2.01439e-08
-3.53015e-07
1.95428e-08
-3.61101e-07
1.89382e-08
-3.68929e-07
1.83323e-08
-3.76502e-07
1.77272e-08
-3.8382e-07
1.71246e-08
-3.90883e-07
1.65262e-08
-3.97695e-07
1.59334e-08
-4.04259e-07
1.53474e-08
-4.10576e-07
1.47695e-08
-4.16651e-07
1.42004e-08
-4.22488e-07
1.36409e-08
-4.28091e-07
1.30917e-08
-4.33465e-07
1.25533e-08
-4.38613e-07
1.2026e-08
-4.43541e-07
1.151e-08
-4.48254e-07
1.10056e-08
-4.52755e-07
1.05127e-08
-4.57051e-07
1.00313e-08
-4.61145e-07
9.56116e-09
-4.65042e-07
9.10206e-09
-4.68747e-07
8.65366e-09
-4.72264e-07
8.21555e-09
-4.75596e-07
7.78725e-09
-4.78749e-07
7.36822e-09
-4.81725e-07
6.95786e-09
-4.84527e-07
6.55549e-09
-4.8716e-07
6.16041e-09
-4.89625e-07
5.77186e-09
-4.91925e-07
5.38904e-09
-4.94062e-07
5.0111e-09
-4.96037e-07
4.63716e-09
-4.97852e-07
4.26631e-09
-4.99508e-07
3.89761e-09
-5.01006e-07
3.53009e-09
-5.02344e-07
3.16277e-09
-5.03524e-07
2.79463e-09
-5.04543e-07
2.42464e-09
-5.05402e-07
2.05177e-09
-5.06097e-07
1.67496e-09
-5.06628e-07
1.29316e-09
-5.06992e-07
9.05317e-10
-5.07184e-07
5.10362e-10
-5.07204e-07
1.07248e-10
-5.07045e-07
-3.05066e-10
-5.06704e-07
-7.27612e-10
-5.06177e-07
-1.1614e-09
-5.05458e-07
-1.60742e-09
-5.04541e-07
-2.06663e-09
-5.03421e-07
-2.53995e-09
-5.02092e-07
-3.02825e-09
-5.00546e-07
-3.53238e-09
-4.98778e-07
-4.0531e-09
-4.96779e-07
-4.59114e-09
-4.94542e-07
-5.14713e-09
-4.92059e-07
-5.72165e-09
-4.89324e-07
-6.31516e-09
-4.86326e-07
-6.92805e-09
-4.8306e-07
-7.56058e-09
-4.79515e-07
-8.21292e-09
-4.75684e-07
-8.88509e-09
-4.71559e-07
-9.57697e-09
-4.67132e-07
-1.02883e-08
-4.62395e-07
-1.10187e-08
-4.5734e-07
-1.17675e-08
-4.51961e-07
-1.25339e-08
-4.4625e-07
-1.3317e-08
-4.40201e-07
-1.41156e-08
-4.33809e-07
-1.49283e-08
-4.27068e-07
-1.57534e-08
-4.19975e-07
-1.6589e-08
-4.12525e-07
-1.74331e-08
-4.04718e-07
-1.82832e-08
-3.96551e-07
-1.91367e-08
-3.88025e-07
-1.99906e-08
-3.79142e-07
-2.08417e-08
-3.69904e-07
-2.16866e-08
-3.60316e-07
-2.25213e-08
-3.50384e-07
-2.33418e-08
-3.40117e-07
-2.41437e-08
-3.29524e-07
-2.49223e-08
-3.18617e-07
-2.56728e-08
-3.07412e-07
-2.63898e-08
-2.95924e-07
-2.7068e-08
-2.84173e-07
-2.77014e-08
-2.7218e-07
-2.82843e-08
-2.5997e-07
-2.88103e-08
-2.47568e-07
-2.92732e-08
-2.35004e-07
-2.96663e-08
-2.22311e-07
-2.99831e-08
-2.09524e-07
-3.02168e-08
-1.96679e-07
-3.03606e-08
-1.83818e-07
-3.04076e-08
-1.70983e-07
-3.03512e-08
-1.58222e-07
-3.01845e-08
-1.45581e-07
-2.99011e-08
-1.33112e-07
-2.94948e-08
-1.20869e-07
-2.89595e-08
-1.08906e-07
-2.82898e-08
-9.72811e-08
-2.74807e-08
-8.60529e-08
-2.65278e-08
-7.52811e-08
-2.54278e-08
-6.50261e-08
-2.41783e-08
-5.53483e-08
-2.27784e-08
-4.63071e-08
-2.12291e-08
-3.796e-08
-1.95335e-08
-3.03613e-08
-1.76979e-08
-2.35604e-08
-1.57326e-08
-1.75996e-08
-1.3653e-08
-1.25114e-08
-1.14819e-08
-8.31472e-09
-9.25181e-09
-5.01068e-09
-7.00844e-09
-2.57668e-09
-4.81579e-09
-9.5948e-10
-2.76286e-09
-6.67081e-11
-9.72542e-10
2.42503e-10
3.88453e-10
1.68828e-10
1.09738e-09
8.39208e-10
3.76616e-11
-8.0656e-10
-1.74381e-10
-8.39636e-10
-8.70812e-10
2.22792e-10
-2.22166e-09
2.03919e-09
-4.34863e-09
4.3636e-09
-7.33324e-09
7.00679e-09
-1.12234e-08
9.82483e-09
-1.60397e-08
1.27101e-08
-2.17806e-08
1.5583e-08
-2.84273e-08
1.83849e-08
-3.59477e-08
2.10735e-08
-4.42995e-08
2.36187e-08
-5.3433e-08
2.59998e-08
-6.32934e-08
2.82031e-08
-7.38226e-08
3.02205e-08
-8.49601e-08
3.2048e-08
-9.66449e-08
3.36849e-08
-1.08816e-07
3.5133e-08
-1.21412e-07
3.6396e-08
-1.34375e-07
3.74791e-08
-1.47647e-07
3.83886e-08
-1.61174e-07
3.91319e-08
-1.749e-07
3.97167e-08
-1.88778e-07
4.01513e-08
-2.02758e-07
4.04443e-08
-2.16796e-07
4.06044e-08
-2.3085e-07
4.06405e-08
-2.4488e-07
4.05613e-08
-2.5885e-07
4.03756e-08
-2.72727e-07
4.00918e-08
-2.8648e-07
3.97184e-08
-3.0008e-07
3.92635e-08
-3.13502e-07
3.87349e-08
-3.26723e-07
3.81402e-08
-3.39723e-07
3.74866e-08
-3.52484e-07
3.6781e-08
-3.64989e-07
3.60299e-08
-3.77224e-07
3.52397e-08
-3.89179e-07
3.44159e-08
-4.00842e-07
3.35643e-08
-4.12207e-07
3.26898e-08
-4.23265e-07
3.17973e-08
-4.34012e-07
3.0891e-08
-4.44444e-07
2.99753e-08
-4.5456e-07
2.90536e-08
-4.64357e-07
2.81295e-08
-4.73836e-07
2.7206e-08
-4.82997e-07
2.62859e-08
-4.91843e-07
2.53717e-08
-5.00375e-07
2.44656e-08
-5.08597e-07
2.35695e-08
-5.16512e-07
2.26851e-08
-5.24126e-07
2.18138e-08
-5.31442e-07
2.09569e-08
-5.38466e-07
2.01153e-08
-5.45202e-07
1.92898e-08
-5.51657e-07
1.84809e-08
-5.57836e-07
1.76891e-08
-5.63745e-07
1.69146e-08
-5.6939e-07
1.61574e-08
-5.74776e-07
1.54174e-08
-5.79909e-07
1.46944e-08
-5.84795e-07
1.39881e-08
-5.89439e-07
1.32978e-08
-5.93847e-07
1.26231e-08
-5.98023e-07
1.19632e-08
-6.01972e-07
1.13173e-08
-6.05698e-07
1.06844e-08
-6.09207e-07
1.00636e-08
-6.125e-07
9.45384e-09
-6.15582e-07
8.85389e-09
-6.18456e-07
8.26258e-09
-6.21123e-07
7.67863e-09
-6.23587e-07
7.1007e-09
-6.25848e-07
6.52742e-09
-6.27907e-07
5.95736e-09
-6.29766e-07
5.38905e-09
-6.31425e-07
4.821e-09
-6.32882e-07
4.25167e-09
-6.34137e-07
3.6795e-09
-6.35188e-07
3.10293e-09
-6.36033e-07
2.52037e-09
-6.3667e-07
1.9302e-09
-6.37096e-07
1.33084e-09
-6.37306e-07
7.20689e-10
-6.37297e-07
9.81478e-11
-6.37064e-07
-5.38355e-10
-6.36601e-07
-1.19037e-09
-6.35903e-07
-1.85943e-09
-6.34963e-07
-2.54702e-09
-6.33775e-07
-3.25457e-09
-6.32332e-07
-3.98348e-09
-6.30625e-07
-4.73505e-09
-6.28647e-07
-5.51055e-09
-6.26389e-07
-6.31113e-09
-6.23842e-07
-7.13785e-09
-6.20997e-07
-7.99167e-09
-6.17846e-07
-8.87342e-09
-6.14377e-07
-9.78381e-09
-6.10582e-07
-1.07234e-08
-6.0645e-07
-1.16925e-08
-6.01971e-07
-1.26914e-08
-5.97136e-07
-1.37201e-08
-5.91935e-07
-1.47784e-08
-5.86357e-07
-1.58659e-08
-5.80394e-07
-1.69818e-08
-5.74036e-07
-1.81252e-08
-5.67275e-07
-1.9295e-08
-5.60103e-07
-2.04896e-08
-5.52511e-07
-2.17071e-08
-5.44494e-07
-2.29455e-08
-5.36045e-07
-2.42021e-08
-5.2716e-07
-2.54742e-08
-5.17835e-07
-2.67584e-08
-5.08067e-07
-2.8051e-08
-4.97855e-07
-2.93481e-08
-4.87201e-07
-3.06452e-08
-4.76105e-07
-3.19373e-08
-4.64573e-07
-3.32191e-08
-4.52609e-07
-3.44849e-08
-4.40223e-07
-3.57284e-08
-4.27423e-07
-3.69429e-08
-4.14224e-07
-3.81216e-08
-4.0064e-07
-3.92567e-08
-3.86689e-07
-4.03405e-08
-3.72393e-07
-4.13647e-08
-3.57774e-07
-4.23206e-08
-3.42859e-07
-4.31992e-08
-3.27678e-07
-4.39912e-08
-3.12264e-07
-4.46872e-08
-2.96653e-07
-4.52772e-08
-2.80885e-07
-4.57513e-08
-2.65002e-07
-4.60995e-08
-2.49051e-07
-4.63116e-08
-2.33081e-07
-4.63775e-08
-2.17145e-07
-4.62871e-08
-2.01299e-07
-4.60306e-08
-1.85602e-07
-4.55986e-08
-1.70115e-07
-4.49817e-08
-1.54903e-07
-4.41715e-08
-1.40032e-07
-4.31601e-08
-1.25573e-07
-4.19405e-08
-1.11594e-07
-4.05068e-08
-9.81669e-08
-3.88546e-08
-8.53639e-08
-3.69813e-08
-7.32558e-08
-3.48865e-08
-6.19124e-08
-3.25725e-08
-5.14006e-08
-3.00453e-08
-4.17831e-08
-2.73155e-08
-3.31162e-08
-2.43995e-08
-2.54478e-08
-2.13214e-08
-1.88143e-08
-1.81155e-08
-1.32367e-08
-1.48293e-08
-8.71704e-09
-1.15281e-08
-5.23241e-09
-8.30043e-09
-2.72964e-09
-5.26564e-09
-1.11827e-09
-2.5839e-09
-2.63381e-10
-4.66437e-10
2.31407e-11
8.10856e-10
8.62351e-10
-1.10643e-10
-6.95924e-10
-6.9405e-10
-2.56228e-10
-1.94596e-09
1.47471e-09
-4.01415e-09
4.10738e-09
-7.00634e-09
7.3558e-09
-1.09953e-08
1.09958e-08
-1.60235e-08
1.4853e-08
-2.21075e-08
1.87942e-08
-2.92428e-08
2.27183e-08
-3.74072e-08
2.65493e-08
-4.65649e-08
3.02311e-08
-5.66688e-08
3.37227e-08
-6.76642e-08
3.69952e-08
-7.949e-08
4.0029e-08
-9.20813e-08
4.28118e-08
-1.0537e-07
4.53371e-08
-1.19288e-07
4.76028e-08
-1.33766e-07
4.96105e-08
-1.48734e-07
5.13644e-08
-1.64126e-07
5.2871e-08
-1.79876e-07
5.41382e-08
-1.9592e-07
5.51757e-08
-2.12196e-07
5.59936e-08
-2.28648e-07
5.66031e-08
-2.4522e-07
5.70157e-08
-2.61858e-07
5.72433e-08
-2.78516e-07
5.72977e-08
-2.95146e-07
5.71912e-08
-3.11705e-07
5.69355e-08
-3.28156e-07
5.65425e-08
-3.44461e-07
5.60237e-08
-3.60588e-07
5.53904e-08
-3.76507e-07
5.46534e-08
-3.9219e-07
5.38231e-08
-4.07613e-07
5.29098e-08
-4.22755e-07
5.19229e-08
-4.37596e-07
5.08716e-08
-4.52121e-07
4.97646e-08
-4.66315e-07
4.861e-08
-4.80167e-07
4.74155e-08
-4.93665e-07
4.61883e-08
-5.06803e-07
4.49351e-08
-5.19574e-07
4.3662e-08
-5.31973e-07
4.23747e-08
-5.43998e-07
4.10786e-08
-5.55647e-07
3.97784e-08
-5.6692e-07
3.84784e-08
-5.77816e-07
3.71827e-08
-5.88339e-07
3.58946e-08
-5.98491e-07
3.46174e-08
-6.08276e-07
3.33537e-08
-6.17696e-07
3.2106e-08
-6.26759e-07
3.08763e-08
-6.35468e-07
2.96663e-08
-6.4383e-07
2.84774e-08
-6.51851e-07
2.73107e-08
-6.59537e-07
2.6167e-08
-6.66895e-07
2.50469e-08
-6.73931e-07
2.39508e-08
-6.80653e-07
2.28788e-08
-6.87066e-07
2.18307e-08
-6.93178e-07
2.08062e-08
-6.98995e-07
1.98048e-08
-7.04523e-07
1.88259e-08
-7.09768e-07
1.78685e-08
-7.14737e-07
1.69318e-08
-7.19434e-07
1.60145e-08
-7.23865e-07
1.51155e-08
-7.28035e-07
1.42332e-08
-7.31947e-07
1.33663e-08
-7.35606e-07
1.25131e-08
-7.39015e-07
1.16719e-08
-7.42178e-07
1.08409e-08
-7.45095e-07
1.00183e-08
-7.4777e-07
9.20219e-09
-7.50203e-07
8.39053e-09
-7.52396e-07
7.58127e-09
-7.54347e-07
6.77232e-09
-7.56057e-07
5.96155e-09
-7.57524e-07
5.14679e-09
-7.58747e-07
4.32582e-09
-7.59723e-07
3.49644e-09
-7.60449e-07
2.65641e-09
-7.60922e-07
1.8035e-09
-7.61137e-07
9.35472e-10
-7.61089e-07
5.01127e-11
-7.60772e-07
-8.54775e-10
-7.60181e-07
-1.78135e-09
-7.59309e-07
-2.73174e-09
-7.58148e-07
-3.708e-09
-7.5669e-07
-4.71215e-09
-7.54928e-07
-5.74609e-09
-7.52851e-07
-6.81165e-09
-7.50451e-07
-7.91057e-09
-7.47718e-07
-9.04444e-09
-7.44641e-07
-1.02147e-08
-7.4121e-07
-1.14228e-08
-7.37414e-07
-1.26697e-08
-7.33241e-07
-1.39564e-08
-7.28681e-07
-1.52836e-08
-7.23721e-07
-1.6652e-08
-7.18351e-07
-1.80616e-08
-7.12559e-07
-1.95126e-08
-7.06333e-07
-2.10045e-08
-6.99662e-07
-2.25368e-08
-6.92535e-07
-2.41084e-08
-6.84942e-07
-2.57181e-08
-6.76873e-07
-2.7364e-08
-6.68319e-07
-2.9044e-08
-6.59271e-07
-3.07555e-08
-6.49721e-07
-3.24955e-08
-6.39662e-07
-3.42603e-08
-6.29091e-07
-3.6046e-08
-6.18001e-07
-3.78478e-08
-6.06391e-07
-3.96608e-08
-5.9426e-07
-4.14792e-08
-5.81609e-07
-4.32966e-08
-5.6844e-07
-4.51063e-08
-5.54758e-07
-4.69008e-08
-5.40571e-07
-4.86719e-08
-5.25888e-07
-5.04111e-08
-5.10722e-07
-5.2109e-08
-4.95088e-07
-5.37558e-08
-4.79004e-07
-5.53411e-08
-4.6249e-07
-5.68538e-08
-4.45573e-07
-5.82824e-08
-4.28278e-07
-5.9615e-08
-4.10639e-07
-6.08389e-08
-3.92688e-07
-6.19414e-08
-3.74466e-07
-6.29093e-08
-3.56015e-07
-6.37288e-08
-3.3738e-07
-6.43864e-08
-3.18611e-07
-6.48681e-08
-2.99763e-07
-6.516e-08
-2.80892e-07
-6.52481e-08
-2.6206e-07
-6.51189e-08
-2.43332e-07
-6.47589e-08
-2.24775e-07
-6.41551e-08
-2.06462e-07
-6.32953e-08
-1.88465e-07
-6.21681e-08
-1.70862e-07
-6.07629e-08
-1.53732e-07
-5.90709e-08
-1.37154e-07
-5.70846e-08
-1.2121e-07
-5.47988e-08
-1.05981e-07
-5.22106e-08
-9.15466e-08
-4.93206e-08
-7.79859e-08
-4.61332e-08
-6.53734e-08
-4.26579e-08
-5.37787e-08
-3.89102e-08
-4.32645e-08
-3.49137e-08
-3.38835e-08
-3.07023e-08
-2.56765e-08
-2.63225e-08
-1.86681e-08
-2.18377e-08
-1.28636e-08
-1.73326e-08
-8.24441e-09
-1.29196e-08
-4.76329e-09
-8.74676e-09
-2.33967e-09
-5.00752e-09
-8.54643e-10
-1.95147e-09
-1.4589e-10
1.02101e-10
7.16459e-10
-2.68828e-10
-4.27088e-10
-1.25581e-09
7.30756e-10
-3.11157e-09
3.33047e-09
-5.95435e-09
6.95015e-09
-9.87154e-09
1.1273e-08
-1.49217e-08
1.60459e-08
-2.11374e-08
2.10687e-08
-2.85281e-08
2.61848e-08
-3.70834e-08
3.12735e-08
-4.67763e-08
3.62422e-08
-5.75662e-08
4.1021e-08
-6.94014e-08
4.55579e-08
-8.22219e-08
4.98157e-08
-9.59611e-08
5.37682e-08
-1.10548e-07
5.73988e-08
-1.25909e-07
6.06979e-08
-1.41968e-07
6.36618e-08
-1.58649e-07
6.62914e-08
-1.75876e-07
6.85915e-08
-1.93574e-07
7.05695e-08
-2.11671e-07
7.22353e-08
-2.30096e-07
7.36005e-08
-2.48781e-07
7.46782e-08
-2.6766e-07
7.54823e-08
-2.86672e-07
7.60276e-08
-3.05758e-07
7.63292e-08
-3.24862e-07
7.64026e-08
-3.43935e-07
7.62634e-08
-3.62926e-07
7.59271e-08
-3.81793e-07
7.5409e-08
-4.00493e-07
7.47241e-08
-4.1899e-07
7.38872e-08
-4.37249e-07
7.29126e-08
-4.5524e-07
7.18139e-08
-4.72935e-07
7.06045e-08
-4.90309e-07
6.92969e-08
-5.07341e-07
6.79033e-08
-5.24011e-07
6.64351e-08
-5.40304e-07
6.49031e-08
-5.56206e-07
6.33173e-08
-5.71705e-07
6.16874e-08
-5.86792e-07
6.00222e-08
-6.0146e-07
5.83299e-08
-6.15703e-07
5.66181e-08
-6.29519e-07
5.48938e-08
-6.42904e-07
5.31634e-08
-6.55858e-07
5.14326e-08
-6.68382e-07
4.97068e-08
-6.80478e-07
4.79906e-08
-6.92149e-07
4.62881e-08
-7.03398e-07
4.46031e-08
-7.14231e-07
4.29387e-08
-7.24652e-07
4.12977e-08
-7.34668e-07
3.96824e-08
-7.44285e-07
3.80946e-08
-7.53511e-07
3.65359e-08
-7.62351e-07
3.50074e-08
-7.70814e-07
3.35098e-08
-7.78907e-07
3.20438e-08
-7.86637e-07
3.06093e-08
-7.94013e-07
2.92063e-08
-8.01041e-07
2.78344e-08
-8.07729e-07
2.64929e-08
-8.14084e-07
2.5181e-08
-8.20113e-07
2.38975e-08
-8.25823e-07
2.26412e-08
-8.31219e-07
2.14106e-08
-8.36307e-07
2.02039e-08
-8.41093e-07
1.90194e-08
-8.45582e-07
1.78551e-08
-8.49778e-07
1.67089e-08
-8.53685e-07
1.55785e-08
-8.57306e-07
1.44617e-08
-8.60643e-07
1.33558e-08
-8.63699e-07
1.22585e-08
-8.66476e-07
1.1167e-08
-8.68973e-07
1.00786e-08
-8.71192e-07
8.99066e-09
-8.7313e-07
7.90024e-09
-8.74788e-07
6.8045e-09
-8.76163e-07
5.70052e-09
-8.77252e-07
4.5854e-09
-8.78051e-07
3.45616e-09
-8.78558e-07
2.30988e-09
-8.78766e-07
1.14359e-09
-8.7867e-07
-4.56136e-11
-8.78264e-07
-1.26064e-09
-8.77541e-07
-2.50432e-09
-8.76494e-07
-3.77946e-09
-8.75113e-07
-5.08878e-09
-8.7339e-07
-6.43489e-09
-8.71316e-07
-7.82033e-09
-8.6888e-07
-9.24749e-09
-8.66072e-07
-1.07186e-08
-8.62881e-07
-1.22358e-08
-8.59294e-07
-1.3801e-08
-8.55301e-07
-1.54159e-08
-8.50889e-07
-1.7082e-08
-8.46045e-07
-1.88004e-08
-8.40756e-07
-2.05722e-08
-8.3501e-07
-2.2398e-08
-8.28794e-07
-2.4278e-08
-8.22094e-07
-2.62122e-08
-8.14898e-07
-2.82001e-08
-8.07194e-07
-3.02409e-08
-7.9897e-07
-3.23332e-08
-7.90212e-07
-3.44752e-08
-7.80912e-07
-3.66645e-08
-7.71058e-07
-3.88983e-08
-7.6064e-07
-4.1173e-08
-7.49651e-07
-4.34846e-08
-7.38083e-07
-4.58283e-08
-7.2593e-07
-4.81987e-08
-7.13188e-07
-5.05897e-08
-6.99855e-07
-5.29946e-08
-6.85928e-07
-5.54056e-08
-6.7141e-07
-5.78146e-08
-6.56304e-07
-6.02124e-08
-6.40616e-07
-6.25891e-08
-6.24354e-07
-6.49341e-08
-6.07529e-07
-6.72359e-08
-5.90156e-07
-6.94822e-08
-5.72252e-07
-7.16601e-08
-5.53837e-07
-7.37558e-08
-5.34936e-07
-7.57549e-08
-5.15576e-07
-7.76421e-08
-4.95789e-07
-7.94017e-08
-4.75611e-07
-8.10172e-08
-4.55081e-07
-8.24718e-08
-4.34242e-07
-8.37482e-08
-4.13142e-07
-8.48285e-08
-3.91834e-07
-8.56949e-08
-3.70373e-07
-8.63292e-08
-3.48819e-07
-8.67132e-08
-3.27239e-07
-8.6829e-08
-3.05699e-07
-8.66589e-08
-2.84272e-07
-8.61854e-08
-2.63035e-07
-8.53922e-08
-2.42067e-07
-8.42634e-08
-2.2145e-07
-8.27846e-08
-2.0127e-07
-8.09428e-08
-1.81615e-07
-7.87268e-08
-1.62571e-07
-7.61277e-08
-1.44231e-07
-7.31397e-08
-1.26681e-07
-6.976e-08
-1.10011e-07
-6.59903e-08
-9.4307e-08
-6.18377e-08
-7.96496e-08
-5.73153e-08
-6.61151e-08
-5.24446e-08
-5.3772e-08
-4.72568e-08
-4.26786e-08
-4.17957e-08
-3.28807e-08
-3.61205e-08
-2.44083e-08
-3.03101e-08
-1.7273e-08
-2.4468e-08
-1.14639e-08
-1.87287e-08
-6.94504e-09
-1.32657e-08
-3.65153e-09
-8.30103e-09
-1.48751e-09
-4.1155e-09
-3.24294e-10
-1.06111e-09
3.92166e-10
-4.29646e-10
2.55552e-12
-1.83482e-09
2.13593e-09
-4.32006e-09
5.81571e-09
-7.97042e-09
1.06005e-08
-1.28489e-08
1.61515e-08
-1.8996e-08
2.21931e-08
-2.6431e-08
2.85036e-08
-3.51529e-08
3.49068e-08
-4.51436e-08
4.12642e-08
-5.63694e-08
4.7468e-08
-6.87838e-08
5.34354e-08
-8.23298e-08
5.91039e-08
-9.69419e-08
6.44278e-08
-1.12548e-07
6.93746e-08
-1.29072e-07
7.39229e-08
-1.46434e-07
7.80599e-08
-1.64553e-07
8.17801e-08
-1.83345e-07
8.50838e-08
-2.0273e-07
8.79758e-08
-2.22625e-07
9.04649e-08
-2.42952e-07
9.25624e-08
-2.63634e-07
9.42825e-08
-2.84597e-07
9.56407e-08
-3.05769e-07
9.66543e-08
-3.27082e-07
9.73412e-08
-3.48473e-07
9.77202e-08
-3.69881e-07
9.78105e-08
-3.91249e-07
9.76314e-08
-4.12524e-07
9.72024e-08
-4.33658e-07
9.65425e-08
-4.54604e-07
9.56707e-08
-4.75323e-07
9.46054e-08
-4.95775e-07
9.33647e-08
-5.15927e-07
9.19657e-08
-5.35747e-07
9.04254e-08
-5.5521e-07
8.87596e-08
-5.74291e-07
8.69837e-08
-5.92968e-07
8.51121e-08
-6.11223e-07
8.31585e-08
-6.29042e-07
8.11359e-08
-6.4641e-07
7.90562e-08
-6.63319e-07
7.69309e-08
-6.79759e-07
7.47703e-08
-6.95725e-07
7.25841e-08
-7.11213e-07
7.03812e-08
-7.26219e-07
6.81699e-08
-7.40744e-07
6.59574e-08