/*--------------------------------*- C++ -*----------------------------------*\
  =========                 |
  \\      /  F ield         | OpenFOAM: The Open Source CFD Toolbox
   \\    /   O peration     | Website:  https://openfoam.org
    \\  /    A nd           | Version:  7
     \\/     M anipulation  |
\*---------------------------------------------------------------------------*/
FoamFile
{
    version     2.0;
    format      ascii;
    class       volScalarField;
    location    "0.4125";
    object      p;
}
// * * * * * * * * * * * * * * * * * * * * * * * * * * * * * * * * * * * * * //

dimensions      [0 2 -2 0 0 0 0];

internalField   nonuniform List<scalar> 
51200
(
-7.23789e-08
2.39867e-06
6.11521e-06
9.66813e-06
1.25191e-05
1.49018e-05
1.69221e-05
1.8649e-05
2.01291e-05
2.13874e-05
2.24456e-05
2.33211e-05
2.40263e-05
2.4578e-05
2.49851e-05
2.52535e-05
2.53897e-05
2.53991e-05
2.52891e-05
2.50684e-05
2.47457e-05
2.43255e-05
2.38134e-05
2.32176e-05
2.25396e-05
2.17847e-05
2.09599e-05
2.00671e-05
1.91097e-05
1.80914e-05
1.70137e-05
1.58783e-05
1.46876e-05
1.34454e-05
1.21571e-05
1.08253e-05
9.45224e-06
8.0429e-06
6.60075e-06
5.12608e-06
3.62061e-06
2.08824e-06
5.31829e-07
-1.04621e-06
-2.64351e-06
-4.25889e-06
-5.8922e-06
-7.54341e-06
-9.21438e-06
-1.09039e-05
-1.26091e-05
-1.43288e-05
-1.60632e-05
-1.78109e-05
-1.95681e-05
-2.13329e-05
-2.31058e-05
-2.48865e-05
-2.66745e-05
-2.84698e-05
-3.02725e-05
-3.20825e-05
-3.38999e-05
-3.57242e-05
-3.75544e-05
-3.93903e-05
-4.12327e-05
-4.30819e-05
-4.49363e-05
-4.67941e-05
-4.86562e-05
-5.05244e-05
-5.2399e-05
-5.42797e-05
-5.61662e-05
-5.8058e-05
-5.99551e-05
-6.18584e-05
-6.37682e-05
-6.5684e-05
-6.76055e-05
-6.95343e-05
-7.14719e-05
-7.34181e-05
-7.53714e-05
-7.73312e-05
-7.9298e-05
-8.12721e-05
-8.32524e-05
-8.52379e-05
-8.72284e-05
-8.92249e-05
-9.12284e-05
-9.3239e-05
-9.52559e-05
-9.72771e-05
-9.93002e-05
-0.000101325
-0.000103351
-0.000105379
-0.000107406
-0.000109432
-0.000111457
-0.000113483
-0.000115506
-0.000117524
-0.000119536
-0.000121539
-0.000123535
-0.000125524
-0.000127504
-0.000129474
-0.000131433
-0.000133376
-0.000135302
-0.00013721
-0.000139099
-0.000140969
-0.000142816
-0.000144637
-0.000146431
-0.000148195
-0.00014993
-0.000151633
-0.000153301
-0.00015493
-0.000156517
-0.00015806
-0.000159558
-0.000161008
-0.00016241
-0.000163759
-0.000165051
-0.000166284
-0.000167454
-0.000168561
-0.000169603
-0.000170578
-0.000171481
-0.000172309
-0.000173061
-0.000173733
-0.000174324
-0.000174833
-0.000175258
-0.000175599
-0.000175855
-0.000176027
-0.000176115
-0.000176122
-0.000176053
-0.000175913
-0.000175708
-0.000175449
-0.000175148
-0.000174825
-0.000174504
-0.000174223
-0.000174027
-0.000173952
2.21648e-06
4.60034e-06
7.57444e-06
1.04282e-05
1.29011e-05
1.50259e-05
1.68579e-05
1.8446e-05
1.98187e-05
2.09955e-05
2.19927e-05
2.28191e-05
2.34904e-05
2.40158e-05
2.44045e-05
2.46642e-05
2.47964e-05
2.48074e-05
2.47052e-05
2.44977e-05
2.419e-05
2.37881e-05
2.32998e-05
2.27266e-05
2.20725e-05
2.13437e-05
2.05429e-05
1.96754e-05
1.87453e-05
1.77545e-05
1.6706e-05
1.56008e-05
1.44396e-05
1.32267e-05
1.19665e-05
1.06609e-05
9.31412e-06
7.93057e-06
6.5118e-06
5.0601e-06
3.57817e-06
2.06827e-06
5.33077e-07
-1.02492e-06
-2.60436e-06
-4.2035e-06
-5.82092e-06
-7.45811e-06
-9.11692e-06
-1.07955e-05
-1.24911e-05
-1.42034e-05
-1.59316e-05
-1.76727e-05
-1.94243e-05
-2.11859e-05
-2.29576e-05
-2.47385e-05
-2.65274e-05
-2.83242e-05
-3.01294e-05
-3.19439e-05
-3.37679e-05
-3.55993e-05
-3.74367e-05
-3.92806e-05
-4.11322e-05
-4.29906e-05
-4.48542e-05
-4.67229e-05
-4.85978e-05
-5.04785e-05
-5.23645e-05
-5.42564e-05
-5.61551e-05
-5.80605e-05
-5.99723e-05
-6.18905e-05
-6.38143e-05
-6.57429e-05
-6.7677e-05
-6.96188e-05
-7.15692e-05
-7.3527e-05
-7.54915e-05
-7.7463e-05
-7.94419e-05
-8.14274e-05
-8.34177e-05
-8.54121e-05
-8.74108e-05
-8.94144e-05
-9.14241e-05
-9.34398e-05
-9.5461e-05
-9.74857e-05
-9.95116e-05
-0.000101538
-0.000103565
-0.000105591
-0.000107615
-0.000109636
-0.000111656
-0.000113675
-0.000115691
-0.0001177
-0.000119701
-0.000121692
-0.000123675
-0.000125648
-0.000127613
-0.000129567
-0.000131507
-0.00013343
-0.000135334
-0.000137219
-0.000139085
-0.000140931
-0.000142752
-0.000144546
-0.000146312
-0.000148048
-0.000149754
-0.000151427
-0.000153065
-0.000154663
-0.000156218
-0.00015773
-0.000159196
-0.000160616
-0.000161987
-0.000163306
-0.000164569
-0.000165773
-0.000166915
-0.000167996
-0.000169014
-0.000169968
-0.000170851
-0.000171662
-0.000172398
-0.000173059
-0.000173643
-0.000174149
-0.000174576
-0.000174923
-0.000175191
-0.00017538
-0.000175493
-0.000175532
-0.000175502
-0.000175409
-0.00017526
-0.000175062
-0.00017483
-0.00017458
-0.000174333
-0.000174116
-0.000173959
-0.000173879
5.53209e-06
7.24201e-06
9.33032e-06
1.15129e-05
1.35607e-05
1.54002e-05
1.70339e-05
1.8474e-05
1.97339e-05
2.08245e-05
2.1751e-05
2.25274e-05
2.31603e-05
2.36559e-05
2.4024e-05
2.4267e-05
2.43887e-05
2.43955e-05
2.42949e-05
2.40914e-05
2.37909e-05
2.34016e-05
2.29262e-05
2.23687e-05
2.17337e-05
2.10229e-05
2.02419e-05
1.93957e-05
1.84859e-05
1.75163e-05
1.64898e-05
1.54059e-05
1.42675e-05
1.30779e-05
1.18391e-05
1.05549e-05
9.22988e-06
7.86607e-06
6.46537e-06
5.03122e-06
3.56626e-06
2.07302e-06
5.54575e-07
-9.88172e-07
-2.55325e-06
-4.13828e-06
-5.74336e-06
-7.37077e-06
-9.02035e-06
-1.069e-05
-1.23788e-05
-1.40864e-05
-1.58103e-05
-1.75472e-05
-1.92957e-05
-2.10551e-05
-2.28258e-05
-2.46072e-05
-2.63979e-05
-2.81968e-05
-3.00049e-05
-3.18238e-05
-3.36526e-05
-3.54891e-05
-3.73329e-05
-3.91859e-05
-4.10473e-05
-4.2914e-05
-4.47853e-05
-4.6663e-05
-4.85483e-05
-5.04405e-05
-5.23382e-05
-5.42411e-05
-5.61502e-05
-5.80666e-05
-5.99905e-05
-6.19209e-05
-6.38559e-05
-6.57958e-05
-6.77423e-05
-6.9697e-05
-7.16594e-05
-7.36277e-05
-7.56022e-05
-7.75836e-05
-7.95723e-05
-8.15669e-05
-8.35656e-05
-8.55677e-05
-8.75737e-05
-8.95846e-05
-9.16012e-05
-9.3623e-05
-9.56483e-05
-9.76755e-05
-9.97034e-05
-0.000101731
-0.000103758
-0.000105783
-0.000107805
-0.000109824
-0.000111841
-0.000113856
-0.000115866
-0.000117868
-0.00011986
-0.000121841
-0.000123813
-0.000125776
-0.000127729
-0.000129669
-0.000131593
-0.0001335
-0.000135387
-0.000137254
-0.000139102
-0.000140928
-0.000142727
-0.0001445
-0.000146243
-0.000147957
-0.00014964
-0.000151289
-0.000152902
-0.000154474
-0.000156004
-0.00015749
-0.000158932
-0.000160328
-0.000161675
-0.000162969
-0.000164208
-0.000165389
-0.00016651
-0.000167571
-0.000168571
-0.000169506
-0.000170374
-0.000171172
-0.000171897
-0.000172549
-0.000173128
-0.000173632
-0.000174061
-0.000174414
-0.000174691
-0.000174893
-0.000175024
-0.000175087
-0.000175086
-0.000175026
-0.000174913
-0.000174756
-0.000174566
-0.000174356
-0.000174142
-0.000173949
-0.000173795
-0.000173682
8.52556e-06
9.65899e-06
1.11246e-05
1.27677e-05
1.44165e-05
1.59756e-05
1.74051e-05
1.86919e-05
1.98353e-05
2.08295e-05
2.16831e-05
2.24024e-05
2.29904e-05
2.34543e-05
2.37961e-05
2.40178e-05
2.41246e-05
2.41232e-05
2.40178e-05
2.38132e-05
2.35175e-05
2.31333e-05
2.2665e-05
2.2118e-05
2.1494e-05
2.07968e-05
2.00321e-05
1.92022e-05
1.83097e-05
1.73578e-05
1.63469e-05
1.52788e-05
1.41576e-05
1.29845e-05
1.17621e-05
1.04954e-05
9.18769e-06
7.84032e-06
6.45534e-06
5.03535e-06
3.58393e-06
2.10431e-06
5.98241e-07
-9.32784e-07
-2.48583e-06
-4.05955e-06
-5.65627e-06
-7.27657e-06
-8.91859e-06
-1.05815e-05
-1.22655e-05
-1.39695e-05
-1.56898e-05
-1.74238e-05
-1.91706e-05
-2.09294e-05
-2.27001e-05
-2.4482e-05
-2.62738e-05
-2.80757e-05
-2.98891e-05
-3.17136e-05
-3.35471e-05
-3.53885e-05
-3.72389e-05
-3.90996e-05
-4.09689e-05
-4.28437e-05
-4.47236e-05
-4.66102e-05
-4.85046e-05
-5.04065e-05
-5.23149e-05
-5.42288e-05
-5.61491e-05
-5.80769e-05
-6.00124e-05
-6.19534e-05
-6.38983e-05
-6.58486e-05
-6.78065e-05
-6.97727e-05
-7.17457e-05
-7.37243e-05
-7.57089e-05
-7.77007e-05
-7.96988e-05
-8.17017e-05
-8.37078e-05
-8.5717e-05
-8.77299e-05
-8.97478e-05
-9.17711e-05
-9.3799e-05
-9.58288e-05
-9.78591e-05
-9.98895e-05
-0.000101919
-0.000103947
-0.000105971
-0.000107991
-0.000110009
-0.000112025
-0.000114037
-0.000116042
-0.000118038
-0.000120022
-0.000121996
-0.00012396
-0.000125915
-0.000127858
-0.000129786
-0.000131697
-0.000133589
-0.000135462
-0.000137316
-0.000139149
-0.000140957
-0.000142739
-0.000144492
-0.000146217
-0.000147913
-0.000149576
-0.000151206
-0.000152798
-0.000154349
-0.000155857
-0.000157323
-0.000158744
-0.000160119
-0.000161447
-0.000162721
-0.000163939
-0.000165101
-0.000166206
-0.00016725
-0.000168235
-0.000169156
-0.000170011
-0.000170797
-0.000171514
-0.000172159
-0.000172734
-0.000173237
-0.000173668
-0.000174025
-0.000174309
-0.000174522
-0.000174666
-0.000174746
-0.000174765
-0.000174728
-0.000174638
-0.000174506
-0.00017434
-0.000174151
-0.000173951
-0.000173755
-0.000173574
-0.000173403
1.07574e-05
1.16512e-05
1.27622e-05
1.40297e-05
1.53613e-05
1.66703e-05
1.79038e-05
1.90395e-05
2.00591e-05
2.09578e-05
2.17351e-05
2.23914e-05
2.29316e-05
2.33568e-05
2.36664e-05
2.38634e-05
2.39529e-05
2.39382e-05
2.38239e-05
2.36171e-05
2.33214e-05
2.294e-05
2.24775e-05
2.19364e-05
2.132e-05
2.06339e-05
1.98808e-05
1.90638e-05
1.81864e-05
1.72489e-05
1.62519e-05
1.51987e-05
1.40916e-05
1.29325e-05
1.17249e-05
1.04728e-05
9.17892e-06
7.8455e-06
6.47378e-06
5.06664e-06
3.62778e-06
2.15971e-06
6.6395e-07
-8.56261e-07
-2.3984e-06
-3.96357e-06
-5.55376e-06
-7.16753e-06
-8.80345e-06
-1.0462e-05
-1.21428e-05
-1.38436e-05
-1.5561e-05
-1.72928e-05
-1.90387e-05
-2.07982e-05
-2.257e-05
-2.43528e-05
-2.61462e-05
-2.79516e-05
-2.97703e-05
-3.16002e-05
-3.3439e-05
-3.52873e-05
-3.7146e-05
-3.90142e-05
-4.08901e-05
-4.27728e-05
-4.46624e-05
-4.65591e-05
-4.84632e-05
-5.03746e-05
-5.22929e-05
-5.42174e-05
-5.61493e-05
-5.80893e-05
-6.00361e-05
-6.19876e-05
-6.39435e-05
-6.59056e-05
-6.78754e-05
-6.98524e-05
-7.18353e-05
-7.38239e-05
-7.58193e-05
-7.78214e-05
-7.98291e-05
-8.18404e-05
-8.38543e-05
-8.58712e-05
-8.78916e-05
-8.99169e-05
-9.19471e-05
-9.39805e-05
-9.60149e-05
-9.8049e-05
-0.000100083
-0.000102115
-0.000104143
-0.000106167
-0.000108186
-0.000110203
-0.000112218
-0.000114228
-0.000116229
-0.00011822
-0.000120199
-0.000122167
-0.000124124
-0.000126071
-0.000128005
-0.000129923
-0.000131821
-0.0001337
-0.000135561
-0.000137402
-0.000139221
-0.000141014
-0.00014278
-0.000144517
-0.000146225
-0.000147903
-0.000149549
-0.00015116
-0.000152733
-0.000154264
-0.000155754
-0.0001572
-0.000158603
-0.00015996
-0.000161269
-0.000162525
-0.000163726
-0.00016487
-0.000165959
-0.00016699
-0.000167961
-0.000168869
-0.000169712
-0.000170489
-0.000171197
-0.000171837
-0.000172409
-0.000172911
-0.000173343
-0.000173704
-0.000173994
-0.000174215
-0.00017437
-0.000174464
-0.000174498
-0.000174477
-0.000174403
-0.000174285
-0.000174131
-0.000173951
-0.000173753
-0.000173547
-0.000173328
-0.000173086
1.25267e-05
1.33016e-05
1.42068e-05
1.52312e-05
1.63285e-05
1.74317e-05
1.84955e-05
1.94857e-05
2.03882e-05
2.11927e-05
2.18924e-05
2.24872e-05
2.29767e-05
2.3358e-05
2.36324e-05
2.38029e-05
2.38713e-05
2.38402e-05
2.37158e-05
2.35024e-05
2.32029e-05
2.28222e-05
2.23617e-05
2.18241e-05
2.12145e-05
2.0536e-05
1.97916e-05
1.89852e-05
1.81181e-05
1.71909e-05
1.6206e-05
1.51647e-05
1.40688e-05
1.29222e-05
1.17277e-05
1.04882e-05
9.20605e-06
7.88364e-06
6.52291e-06
5.12699e-06
3.69875e-06
2.23988e-06
7.53332e-07
-7.5713e-07
-2.29108e-06
-3.85038e-06
-5.43457e-06
-7.04263e-06
-8.67457e-06
-1.03307e-05
-1.20092e-05
-1.37076e-05
-1.54231e-05
-1.71538e-05
-1.88996e-05
-2.06603e-05
-2.24336e-05
-2.42182e-05
-2.60151e-05
-2.78257e-05
-2.96495e-05
-3.14839e-05
-3.33285e-05
-3.51846e-05
-3.7052e-05
-3.8928e-05
-4.08111e-05
-4.27017e-05
-4.46006e-05
-4.65077e-05
-4.84224e-05
-5.0344e-05
-5.22722e-05
-5.42078e-05
-5.61519e-05
-5.81037e-05
-6.00611e-05
-6.20231e-05
-6.39905e-05
-6.59651e-05
-6.79467e-05
-6.99345e-05
-7.19277e-05
-7.39269e-05
-7.59329e-05
-7.79453e-05
-7.99623e-05
-8.1982e-05
-8.40038e-05
-8.60285e-05
-8.80572e-05
-9.00905e-05
-9.21277e-05
-9.41665e-05
-9.62058e-05
-9.82446e-05
-0.000100282
-0.000102316
-0.000104346
-0.00010637
-0.00010839
-0.000110408
-0.000112422
-0.00011443
-0.000116428
-0.000118415
-0.000120389
-0.000122352
-0.000124304
-0.000126244
-0.000128169
-0.000130077
-0.000131966
-0.000133834
-0.000135684
-0.000137514
-0.000139319
-0.000141099
-0.00014285
-0.000144572
-0.000146265
-0.000147928
-0.000149559
-0.000151153
-0.000152709
-0.000154222
-0.000155694
-0.000157124
-0.000158511
-0.000159851
-0.000161143
-0.000162383
-0.000163568
-0.000164698
-0.000165772
-0.00016679
-0.00016775
-0.000168647
-0.000169479
-0.000170246
-0.000170948
-0.000171584
-0.000172153
-0.000172655
-0.000173087
-0.00017345
-0.000173744
-0.000173973
-0.000174137
-0.000174241
-0.000174286
-0.000174276
-0.000174213
-0.000174103
-0.000173953
-0.000173771
-0.000173566
-0.000173341
-0.00017308
-0.000172766
1.39884e-05
1.47057e-05
1.54934e-05
1.63579e-05
1.7285e-05
1.82298e-05
1.91471e-05
2.0012e-05
2.08079e-05
2.15211e-05
2.21477e-05
2.26817e-05
2.3118e-05
2.34548e-05
2.3693e-05
2.38337e-05
2.38779e-05
2.38298e-05
2.36933e-05
2.34701e-05
2.31653e-05
2.2781e-05
2.23188e-05
2.1783e-05
2.11771e-05
2.05036e-05
1.97665e-05
1.89676e-05
1.81075e-05
1.71883e-05
1.62121e-05
1.51793e-05
1.40925e-05
1.29557e-05
1.17718e-05
1.05426e-05
9.27017e-06
7.9565e-06
6.60491e-06
5.21824e-06
3.79794e-06
2.34667e-06
8.68776e-07
-6.34007e-07
-2.16293e-06
-3.71788e-06
-5.29728e-06
-6.90162e-06
-8.53146e-06
-1.01861e-05
-1.18633e-05
-1.35602e-05
-1.52749e-05
-1.70061e-05
-1.87532e-05
-2.05151e-05
-2.22898e-05
-2.40773e-05
-2.58794e-05
-2.76959e-05
-2.95249e-05
-3.13647e-05
-3.32161e-05
-3.50803e-05
-3.69557e-05
-3.88396e-05
-4.0731e-05
-4.26304e-05
-4.45386e-05
-4.64556e-05
-4.83807e-05
-5.03126e-05
-5.22515e-05
-5.4199e-05
-5.61555e-05
-5.81189e-05
-6.00869e-05
-6.20598e-05
-6.40392e-05
-6.60259e-05
-6.80189e-05
-7.00174e-05
-7.20215e-05
-7.40318e-05
-7.60487e-05
-7.80711e-05
-8.00972e-05
-8.21253e-05
-8.4155e-05
-8.6188e-05
-8.82253e-05
-9.02667e-05
-9.23108e-05
-9.43555e-05
-9.64003e-05
-9.84444e-05
-0.000100486
-0.000102522
-0.000104553
-0.000106579
-0.000108601
-0.00011062
-0.000112635
-0.000114642
-0.000116637
-0.00011862
-0.000120591
-0.000122551
-0.000124499
-0.000126433
-0.000128351
-0.00013025
-0.000132129
-0.00013399
-0.00013583
-0.000137649
-0.000139443
-0.00014121
-0.000142949
-0.000144659
-0.00014634
-0.000147989
-0.000149606
-0.000151186
-0.000152726
-0.000154224
-0.000155681
-0.000157097
-0.000158469
-0.000159794
-0.000161071
-0.000162296
-0.000163467
-0.000164585
-0.000165648
-0.000166654
-0.000167603
-0.00016849
-0.000169313
-0.000170073
-0.000170769
-0.000171401
-0.000171968
-0.000172469
-0.000172901
-0.000173265
-0.000173563
-0.000173797
-0.000173969
-0.00017408
-0.000174133
-0.000174128
-0.00017407
-0.000173964
-0.000173813
-0.000173623
-0.000173403
-0.000173155
-0.000172851
-0.000172467
1.52482e-05
1.5944e-05
1.66609e-05
1.74187e-05
1.82251e-05
1.90421e-05
1.98416e-05
2.06011e-05
2.13016e-05
2.19344e-05
2.24913e-05
2.29643e-05
2.33478e-05
2.36406e-05
2.38418e-05
2.39507e-05
2.39703e-05
2.39036e-05
2.37519e-05
2.35185e-05
2.32059e-05
2.2815e-05
2.23496e-05
2.18129e-05
2.12074e-05
2.05369e-05
1.9804e-05
1.90092e-05
1.81542e-05
1.72406e-05
1.62698e-05
1.52432e-05
1.41637e-05
1.30344e-05
1.18582e-05
1.06369e-05
9.37173e-06
8.06542e-06
6.72148e-06
5.3412e-06
3.92674e-06
2.48252e-06
1.01156e-06
-4.86316e-07
-2.01183e-06
-3.56314e-06
-5.13975e-06
-6.74274e-06
-8.37215e-06
-1.00265e-05
-1.17032e-05
-1.33995e-05
-1.51145e-05
-1.68476e-05
-1.8597e-05
-2.03607e-05
-2.21378e-05
-2.39297e-05
-2.57378e-05
-2.75599e-05
-2.93941e-05
-3.12409e-05
-3.31007e-05
-3.49729e-05
-3.68557e-05
-3.87475e-05
-4.06479e-05
-4.2557e-05
-4.44751e-05
-4.64022e-05
-4.83372e-05
-5.02795e-05
-5.22301e-05
-5.419e-05
-5.61587e-05
-5.81332e-05
-6.01123e-05
-6.20969e-05
-6.40887e-05
-6.60873e-05
-6.80913e-05
-7.01006e-05
-7.21159e-05
-7.41378e-05
-7.61658e-05
-7.81982e-05
-8.02332e-05
-8.22697e-05
-8.4308e-05
-8.63496e-05
-8.83956e-05
-9.04449e-05
-9.24959e-05
-9.45472e-05
-9.65984e-05
-9.86481e-05
-0.000100694
-0.000102733
-0.000104766
-0.000106795
-0.00010882
-0.000110841
-0.000112856
-0.000114863
-0.000116856
-0.000118837
-0.000120806
-0.000122763
-0.000124708
-0.000126638
-0.000128549
-0.000130441
-0.000132313
-0.000134166
-0.000135999
-0.00013781
-0.000139594
-0.00014135
-0.000143078
-0.000144777
-0.000146447
-0.000148086
-0.000149691
-0.000151257
-0.000152784
-0.000154269
-0.000155713
-0.000157116
-0.000158476
-0.000159788
-0.000161052
-0.000162264
-0.000163424
-0.000164531
-0.000165583
-0.00016658
-0.000167519
-0.000168397
-0.000169213
-0.000169966
-0.000170658
-0.000171287
-0.000171852
-0.000172352
-0.000172784
-0.000173149
-0.000173449
-0.000173687
-0.000173864
-0.000173981
-0.000174038
-0.000174037
-0.00017398
-0.000173871
-0.000173716
-0.000173515
-0.000173277
-0.000173002
-0.000172657
-0.000172209
1.63795e-05
1.70697e-05
1.77439e-05
1.84309e-05
1.91451e-05
1.98656e-05
2.05701e-05
2.12392e-05
2.18601e-05
2.24209e-05
2.29121e-05
2.33263e-05
2.36596e-05
2.39094e-05
2.40727e-05
2.41507e-05
2.41457e-05
2.40577e-05
2.389e-05
2.36444e-05
2.3321e-05
2.29227e-05
2.24523e-05
2.19122e-05
2.13059e-05
2.06359e-05
1.99037e-05
1.91106e-05
1.82584e-05
1.73474e-05
1.63792e-05
1.5357e-05
1.42827e-05
1.3159e-05
1.19882e-05
1.07719e-05
9.51213e-06
8.21198e-06
6.87327e-06
5.49715e-06
4.08798e-06
2.6496e-06
1.18254e-06
-3.12811e-07
-1.83557e-06
-3.38476e-06
-4.96077e-06
-6.56416e-06
-8.19436e-06
-9.84951e-06
-1.15267e-05
-1.32239e-05
-1.49407e-05
-1.66764e-05
-1.84282e-05
-2.01945e-05
-2.19761e-05
-2.3774e-05
-2.5588e-05
-2.74157e-05
-2.92562e-05
-3.1111e-05
-3.29798e-05
-3.48603e-05
-3.6751e-05
-3.86509e-05
-4.05602e-05
-4.24795e-05
-4.44083e-05
-4.63455e-05
-4.82905e-05
-5.0244e-05
-5.22073e-05
-5.418e-05
-5.61601e-05
-5.81455e-05
-6.01362e-05
-6.21335e-05
-6.41377e-05
-6.61479e-05
-6.81631e-05
-7.01838e-05
-7.22108e-05
-7.42444e-05
-7.62834e-05
-7.83258e-05
-8.03697e-05
-8.24148e-05
-8.44622e-05
-8.65134e-05
-8.8568e-05
-9.06251e-05
-9.26833e-05
-9.47421e-05
-9.68003e-05
-9.88557e-05
-0.000100905
-0.000102949
-0.000104985
-0.000107017
-0.000109046
-0.00011107
-0.000113087
-0.000115093
-0.000117086
-0.000119066
-0.000121034
-0.00012299
-0.000124933
-0.000126859
-0.000128764
-0.000130651
-0.000132518
-0.000134365
-0.000136192
-0.000137995
-0.000139771
-0.000141518
-0.000143237
-0.000144927
-0.000146589
-0.000148219
-0.000149813
-0.000151368
-0.000152883
-0.000154357
-0.000155791
-0.000157183
-0.000158531
-0.000159833
-0.000161085
-0.000162286
-0.000163436
-0.000164534
-0.000165578
-0.000166566
-0.000167497
-0.000168367
-0.000169177
-0.000169925
-0.000170614
-0.00017124
-0.000171803
-0.000172301
-0.000172733
-0.000173098
-0.0001734
-0.000173642
-0.000173822
-0.000173943
-0.000174003
-0.000174002
-0.000173943
-0.00017383
-0.000173667
-0.000173454
-0.000173196
-0.000172895
-0.00017251
-0.000172004
1.74272e-05
1.81211e-05
1.87701e-05
1.94029e-05
2.00525e-05
2.07001e-05
2.13269e-05
2.1923e-05
2.24752e-05
2.2971e-05
2.34018e-05
2.37621e-05
2.40478e-05
2.42546e-05
2.4382e-05
2.44305e-05
2.43996e-05
2.42908e-05
2.41059e-05
2.38449e-05
2.35096e-05
2.31024e-05
2.26248e-05
2.20802e-05
2.14714e-05
2.07994e-05
2.00656e-05
1.92721e-05
1.84197e-05
1.75087e-05
1.65416e-05
1.55213e-05
1.44501e-05
1.33301e-05
1.21623e-05
1.0949e-05
9.69332e-06
8.39689e-06
7.06067e-06
5.68799e-06
4.2834e-06
2.84843e-06
1.3831e-06
-1.1103e-07
-1.63241e-06
-3.18149e-06
-4.75871e-06
-6.36413e-06
-7.99629e-06
-9.65274e-06
-1.13316e-05
-1.30316e-05
-1.47518e-05
-1.64905e-05
-1.8245e-05
-2.00153e-05
-2.18029e-05
-2.36077e-05
-2.54278e-05
-2.72619e-05
-2.91102e-05
-3.09736e-05
-3.28511e-05
-3.47402e-05
-3.66394e-05
-3.85483e-05
-4.04673e-05
-4.2397e-05
-4.43363e-05
-4.62838e-05
-4.82396e-05
-5.02055e-05
-5.21819e-05
-5.41672e-05
-5.61587e-05
-5.81555e-05
-6.01586e-05
-6.21686e-05
-6.4185e-05
-6.62067e-05
-6.82336e-05
-7.02665e-05
-7.23058e-05
-7.43512e-05
-7.64013e-05
-7.84536e-05
-8.05066e-05
-8.25608e-05
-8.46179e-05
-8.66788e-05
-8.87423e-05
-9.08073e-05
-9.28736e-05
-9.49406e-05
-9.70063e-05
-9.90675e-05
-0.000101122
-0.000103169
-0.00010521
-0.000107247
-0.00010928
-0.000111308
-0.000113326
-0.000115333
-0.000117327
-0.000119308
-0.000121277
-0.000123233
-0.000125173
-0.000127096
-0.000128998
-0.00013088
-0.000132744
-0.000134588
-0.000136409
-0.000138205
-0.000139974
-0.000141715
-0.000143427
-0.00014511
-0.000146764
-0.000148386
-0.000149971
-0.000151517
-0.000153023
-0.000154488
-0.000155913
-0.000157297
-0.000158635
-0.000159927
-0.000161169
-0.000162362
-0.000163503
-0.000164594
-0.000165631
-0.000166611
-0.000167535
-0.000168399
-0.000169203
-0.000169949
-0.000170634
-0.000171259
-0.00017182
-0.000172316
-0.000172747
-0.000173112
-0.000173417
-0.00017366
-0.000173843
-0.000173965
-0.000174026
-0.000174025
-0.000173963
-0.000173844
-0.00017367
-0.000173444
-0.000173167
-0.000172841
-0.000172419
-0.000171863
1.84264e-05
1.91292e-05
1.97585e-05
2.03553e-05
2.09569e-05
2.15474e-05
2.21149e-05
2.26498e-05
2.31409e-05
2.35783e-05
2.39552e-05
2.42665e-05
2.45061e-05
2.46732e-05
2.47669e-05
2.47855e-05
2.47293e-05
2.46e-05
2.43962e-05
2.41191e-05
2.37709e-05
2.33527e-05
2.28669e-05
2.23164e-05
2.17026e-05
2.10264e-05
2.02897e-05
1.94931e-05
1.86377e-05
1.77251e-05
1.67573e-05
1.5737e-05
1.46667e-05
1.35477e-05
1.23809e-05
1.11697e-05
9.9162e-06
8.62067e-06
7.28584e-06
5.91625e-06
4.51415e-06
3.08002e-06
1.61519e-06
1.214e-07
-1.40072e-06
-2.9518e-06
-4.53189e-06
-6.14068e-06
-7.77591e-06
-9.43471e-06
-1.11165e-05
-1.28208e-05
-1.45452e-05
-1.62873e-05
-1.80457e-05
-1.98219e-05
-2.16168e-05
-2.34284e-05
-2.5255e-05
-2.70969e-05
-2.89546e-05
-3.08273e-05
-3.27135e-05
-3.46112e-05
-3.65194e-05
-3.84382e-05
-4.03678e-05
-4.23081e-05
-4.42579e-05
-4.62161e-05
-4.8184e-05
-5.01631e-05
-5.21527e-05
-5.41501e-05
-5.61534e-05
-5.81626e-05
-6.01787e-05
-6.22015e-05
-6.423e-05
-6.62635e-05
-6.83025e-05
-7.03481e-05
-7.24002e-05
-7.44578e-05
-7.6519e-05
-7.85814e-05
-8.06443e-05
-8.27085e-05
-8.47756e-05
-8.68461e-05
-8.89186e-05
-9.09922e-05
-9.30674e-05
-9.5143e-05
-9.72162e-05
-9.92835e-05
-0.000101343
-0.000103395
-0.000105443
-0.000107485
-0.000109524
-0.000111555
-0.000113576
-0.000115585
-0.00011758
-0.000119563
-0.000121534
-0.000123491
-0.00012543
-0.00012735
-0.00012925
-0.000131131
-0.000132992
-0.000134833
-0.000136651
-0.000138442
-0.000140205
-0.00014194
-0.000143647
-0.000145326
-0.000146974
-0.000148589
-0.000150167
-0.000151705
-0.000153203
-0.000154661
-0.00015608
-0.000157456
-0.000158786
-0.000160069
-0.000161304
-0.000162489
-0.000163624
-0.000164709
-0.000165739
-0.000166714
-0.000167632
-0.000168491
-0.000169291
-0.000170034
-0.000170718
-0.00017134
-0.0001719
-0.000172395
-0.000172825
-0.000173191
-0.000173496
-0.000173742
-0.000173926
-0.000174048
-0.000174108
-0.000174105
-0.000174039
-0.000173914
-0.000173731
-0.00017349
-0.000173196
-0.000172846
-0.000172392
-0.000171791
1.94036e-05
2.01132e-05
2.07337e-05
2.1304e-05
2.18671e-05
2.24145e-05
2.29339e-05
2.34164e-05
2.38536e-05
2.42398e-05
2.45686e-05
2.48335e-05
2.50321e-05
2.51629e-05
2.52234e-05
2.52134e-05
2.51332e-05
2.49816e-05
2.47585e-05
2.44651e-05
2.41027e-05
2.36728e-05
2.31781e-05
2.26197e-05
2.19987e-05
2.13169e-05
2.05749e-05
1.97728e-05
1.89127e-05
1.79966e-05
1.70265e-05
1.60048e-05
1.49331e-05
1.38126e-05
1.2646e-05
1.14352e-05
1.01808e-05
8.88473e-06
7.55111e-06
6.18277e-06
4.78054e-06
3.34584e-06
1.88037e-06
3.85459e-07
-1.13922e-06
-2.69408e-06
-4.27881e-06
-5.89187e-06
-7.53077e-06
-9.19374e-06
-1.08805e-05
-1.25899e-05
-1.43186e-05
-1.60649e-05
-1.78294e-05
-1.96131e-05
-2.14154e-05
-2.32341e-05
-2.50685e-05
-2.69197e-05
-2.87874e-05
-3.06699e-05
-3.25653e-05
-3.44722e-05
-3.63901e-05
-3.83195e-05
-4.02604e-05
-4.22116e-05
-4.41719e-05
-4.61419e-05
-4.81232e-05
-5.01161e-05
-5.21186e-05
-5.41281e-05
-5.61438e-05
-5.81663e-05
-6.01958e-05
-6.22314e-05
-6.42722e-05
-6.63182e-05
-6.837e-05
-7.04289e-05
-7.24943e-05
-7.45642e-05
-7.66363e-05
-7.87091e-05
-8.07826e-05
-8.2858e-05
-8.49356e-05
-8.70157e-05
-8.90975e-05
-9.11808e-05
-9.32656e-05
-9.535e-05
-9.74305e-05
-9.95041e-05
-0.00010157
-0.000103629
-0.000105683
-0.000107732
-0.000109777
-0.000111812
-0.000113837
-0.000115848
-0.000117846
-0.000119832
-0.000121806
-0.000123764
-0.000125703
-0.000127622
-0.000129521
-0.000131402
-0.000133263
-0.000135103
-0.000136918
-0.000138705
-0.000140464
-0.000142195
-0.000143898
-0.000145573
-0.000147217
-0.000148826
-0.000150397
-0.00015193
-0.000153423
-0.000154876
-0.000156289
-0.000157659
-0.000158982
-0.000160259
-0.000161487
-0.000162667
-0.000163797
-0.000164877
-0.000165902
-0.000166872
-0.000167785
-0.000168641
-0.000169438
-0.000170179
-0.000170862
-0.000171483
-0.000172041
-0.000172535
-0.000172965
-0.000173332
-0.000173638
-0.000173884
-0.000174069
-0.000174191
-0.000174249
-0.000174243
-0.000174173
-0.000174041
-0.000173849
-0.000173596
-0.000173285
-0.000172914
-0.000172431
-0.000171794
2.03767e-05
2.10953e-05
2.17098e-05
2.22597e-05
2.27948e-05
2.33066e-05
2.37839e-05
2.42209e-05
2.46127e-05
2.49536e-05
2.52375e-05
2.54617e-05
2.56235e-05
2.57199e-05
2.57498e-05
2.5713e-05
2.56078e-05
2.54336e-05
2.51913e-05
2.48808e-05
2.45033e-05
2.40619e-05
2.35566e-05
2.29887e-05
2.23595e-05
2.16698e-05
2.09199e-05
2.0111e-05
1.92446e-05
1.83233e-05
1.73494e-05
1.63243e-05
1.52489e-05
1.41259e-05
1.29579e-05
1.17448e-05
1.04877e-05
9.19086e-06
7.85729e-06
6.48792e-06
5.08376e-06
3.64731e-06
2.17987e-06
6.81806e-07
-8.47374e-07
-2.40775e-06
-3.99805e-06
-5.61599e-06
-7.25989e-06
-8.92894e-06
-1.06221e-05
-1.23368e-05
-1.40703e-05
-1.58227e-05
-1.75951e-05
-1.93871e-05
-2.1197e-05
-2.3024e-05
-2.48679e-05
-2.67293e-05
-2.86074e-05
-3.05e-05
-3.24053e-05
-3.43221e-05
-3.62506e-05
-3.81915e-05
-4.01439e-05
-4.21061e-05
-4.40779e-05
-4.60611e-05
-4.80567e-05
-5.00635e-05
-5.20788e-05
-5.4101e-05
-5.61301e-05
-5.81664e-05
-6.02093e-05
-6.22577e-05
-6.43112e-05
-6.63703e-05
-6.84358e-05
-7.05086e-05
-7.25878e-05
-7.46701e-05
-7.67535e-05
-7.88372e-05
-8.09222e-05
-8.30091e-05
-8.50976e-05
-8.71876e-05
-8.92794e-05
-9.13734e-05
-9.34684e-05
-9.55617e-05
-9.76498e-05
-9.97302e-05
-0.000101803
-0.000103869
-0.000105931
-0.000107988
-0.000110039
-0.000112079
-0.000114107
-0.000116123
-0.000118126
-0.000120117
-0.000122094
-0.000124053
-0.000125992
-0.000127912
-0.000129813
-0.000131695
-0.000133557
-0.000135396
-0.000137209
-0.000138994
-0.000140751
-0.000142479
-0.00014418
-0.000145852
-0.000147492
-0.000149097
-0.000150663
-0.000152191
-0.000153681
-0.000155131
-0.00015654
-0.000157904
-0.000159223
-0.000160494
-0.000161718
-0.000162894
-0.000164021
-0.000165096
-0.000166118
-0.000167084
-0.000167994
-0.000168847
-0.000169643
-0.000170382
-0.000171064
-0.000171685
-0.000172243
-0.000172736
-0.000173166
-0.000173534
-0.00017384
-0.000174087
-0.000174271
-0.000174392
-0.000174449
-0.00017444
-0.000174367
-0.000174229
-0.000174029
-0.000173764
-0.000173438
-0.000173048
-0.000172542
-0.000171874
2.13662e-05
2.20893e-05
2.26979e-05
2.32344e-05
2.37458e-05
2.42255e-05
2.46665e-05
2.50654e-05
2.54177e-05
2.57175e-05
2.59624e-05
2.61503e-05
2.62776e-05
2.63423e-05
2.63443e-05
2.62809e-05
2.61509e-05
2.5955e-05
2.56927e-05
2.53648e-05
2.49729e-05
2.45183e-05
2.4001e-05
2.34227e-05
2.27836e-05
2.20837e-05
2.13245e-05
2.05069e-05
1.96328e-05
1.87053e-05
1.77257e-05
1.66948e-05
1.56149e-05
1.44886e-05
1.33163e-05
1.20985e-05
1.08387e-05
9.54016e-06
8.20412e-06
6.83189e-06
5.42511e-06
3.9856e-06
2.51434e-06
1.01109e-06
-5.24371e-07
-2.09177e-06
-3.68851e-06
-5.31227e-06
-6.96298e-06
-8.63973e-06
-1.03397e-05
-1.20601e-05
-1.38e-05
-1.55603e-05
-1.73417e-05
-1.91422e-05
-2.09606e-05
-2.27971e-05
-2.4652e-05
-2.65247e-05
-2.84138e-05
-3.03168e-05
-3.22324e-05
-3.41602e-05
-3.61008e-05
-3.80537e-05
-4.00174e-05
-4.19911e-05
-4.39759e-05
-4.59735e-05
-4.79837e-05
-5.00042e-05
-5.20326e-05
-5.40684e-05
-5.61118e-05
-5.81623e-05
-6.02187e-05
-6.22801e-05
-6.43468e-05
-6.64198e-05
-6.84999e-05
-7.05871e-05
-7.26799e-05
-7.47749e-05
-7.68702e-05
-7.8966e-05
-8.10632e-05
-8.31619e-05
-8.52615e-05
-8.73622e-05
-8.94648e-05
-9.157e-05
-9.36757e-05
-9.57779e-05
-9.78738e-05
-9.99618e-05
-0.000102042
-0.000104118
-0.000106188
-0.000108254
-0.000110311
-0.000112356
-0.000114389
-0.00011641
-0.000118419
-0.000120415
-0.000122396
-0.000124357
-0.000126299
-0.000128221
-0.000130124
-0.000132009
-0.000133873
-0.000135712
-0.000137524
-0.000139309
-0.000141064
-0.000142792
-0.000144492
-0.000146161
-0.000147799
-0.0001494
-0.000150963
-0.000152489
-0.000153977
-0.000155425
-0.000156831
-0.000158192
-0.000159506
-0.000160774
-0.000161995
-0.000163169
-0.000164293
-0.000165366
-0.000166386
-0.000167349
-0.000168256
-0.000169108
-0.000169903
-0.000170643
-0.000171325
-0.000171946
-0.000172503
-0.000172997
-0.000173428
-0.000173796
-0.000174103
-0.000174349
-0.000174534
-0.000174654
-0.000174709
-0.000174698
-0.000174621
-0.000174479
-0.000174272
-0.000173998
-0.000173658
-0.000173253
-0.000172727
-0.000172034
2.23828e-05
2.31073e-05
2.3711e-05
2.42335e-05
2.4723e-05
2.51754e-05
2.55858e-05
2.59511e-05
2.62674e-05
2.65323e-05
2.67435e-05
2.68977e-05
2.69935e-05
2.70298e-05
2.70041e-05
2.69146e-05
2.67613e-05
2.65432e-05
2.62611e-05
2.59165e-05
2.55095e-05
2.50404e-05
2.45104e-05
2.392e-05
2.3269e-05
2.25576e-05
2.17873e-05
2.09598e-05
2.00774e-05
1.9142e-05
1.81542e-05
1.71165e-05
1.60314e-05
1.48993e-05
1.37205e-05
1.24976e-05
1.12343e-05
9.93215e-06
8.59179e-06
7.21537e-06
5.80465e-06
4.36067e-06
2.88376e-06
1.3733e-06
-1.70163e-07
-1.74513e-06
-3.34914e-06
-4.98074e-06
-6.64003e-06
-8.325e-06
-1.00319e-05
-1.17593e-05
-1.35076e-05
-1.52775e-05
-1.70682e-05
-1.88779e-05
-2.0706e-05
-2.25536e-05
-2.44205e-05
-2.63052e-05
-2.82055e-05
-3.01195e-05
-3.20463e-05
-3.39865e-05
-3.59399e-05
-3.79049e-05
-3.98803e-05
-4.18667e-05
-4.3866e-05
-4.58788e-05
-4.79035e-05
-4.99377e-05
-5.198e-05
-5.40303e-05
-5.60885e-05
-5.81532e-05
-6.02233e-05
-6.22983e-05
-6.43788e-05
-6.64666e-05
-6.85621e-05
-7.06643e-05
-7.27704e-05