/*--------------------------------*- C++ -*----------------------------------*\
  =========                 |
  \\      /  F ield         | OpenFOAM: The Open Source CFD Toolbox
   \\    /   O peration     | Website:  https://openfoam.org
    \\  /    A nd           | Version:  7
     \\/     M anipulation  |
\*---------------------------------------------------------------------------*/
FoamFile
{
    version     2.0;
    format      ascii;
    class       volVectorField;
    location    "0.4125";
    object      U;
}
// * * * * * * * * * * * * * * * * * * * * * * * * * * * * * * * * * * * * * //

dimensions      [0 1 -1 0 0 0 0];

internalField   nonuniform List<vector> 
51200
(
(7.05254e-08 9.16337e-08 0)
(-4.44614e-08 1.21728e-07 0)
(-7.0744e-08 4.55123e-08 0)
(-1.17256e-07 1.52998e-08 0)
(-6.72223e-08 -8.29288e-09 0)
(1.48928e-08 -2.38519e-08 0)
(1.24579e-07 -3.4753e-08 0)
(2.5604e-07 -4.23945e-08 0)
(4.04983e-07 -4.77981e-08 0)
(5.67202e-07 -5.20971e-08 0)
(7.40207e-07 -5.49974e-08 0)
(9.21053e-07 -5.69571e-08 0)
(1.10719e-06 -5.83724e-08 0)
(1.29737e-06 -5.89114e-08 0)
(1.48932e-06 -5.93017e-08 0)
(1.6815e-06 -5.93492e-08 0)
(1.87305e-06 -5.85864e-08 0)
(2.06194e-06 -5.75407e-08 0)
(2.24734e-06 -5.62533e-08 0)
(2.42869e-06 -5.45493e-08 0)
(2.60464e-06 -5.27292e-08 0)
(2.77459e-06 -5.08495e-08 0)
(2.93825e-06 -4.86811e-08 0)
(3.09466e-06 -4.62856e-08 0)
(3.24345e-06 -4.41235e-08 0)
(3.38468e-06 -4.19705e-08 0)
(3.51789e-06 -3.95875e-08 0)
(3.64261e-06 -3.73313e-08 0)
(3.75889e-06 -3.50518e-08 0)
(3.86683e-06 -3.24345e-08 0)
(3.96613e-06 -2.97911e-08 0)
(4.0567e-06 -2.72587e-08 0)
(4.13885e-06 -2.46315e-08 0)
(4.2126e-06 -2.19794e-08 0)
(4.27797e-06 -1.9491e-08 0)
(4.33526e-06 -1.71747e-08 0)
(4.38471e-06 -1.49424e-08 0)
(4.42652e-06 -1.27674e-08 0)
(4.46093e-06 -1.06878e-08 0)
(4.48819e-06 -8.72081e-09 0)
(4.50863e-06 -6.76049e-09 0)
(4.52269e-06 -4.77147e-09 0)
(4.53061e-06 -2.9857e-09 0)
(4.5327e-06 -1.49504e-09 0)
(4.52942e-06 -3.64449e-11 0)
(4.52123e-06 1.49166e-09 0)
(4.50836e-06 2.89015e-09 0)
(4.49122e-06 4.10595e-09 0)
(4.47036e-06 5.15747e-09 0)
(4.44608e-06 6.09707e-09 0)
(4.41868e-06 6.95224e-09 0)
(4.38853e-06 7.73144e-09 0)
(4.35607e-06 8.42571e-09 0)
(4.32172e-06 8.9951e-09 0)
(4.28585e-06 9.43455e-09 0)
(4.24879e-06 9.74545e-09 0)
(4.21086e-06 9.91474e-09 0)
(4.17249e-06 9.99836e-09 0)
(4.13412e-06 1.00662e-08 0)
(4.09607e-06 1.00347e-08 0)
(4.05851e-06 9.80786e-09 0)
(4.02176e-06 9.49406e-09 0)
(3.98622e-06 9.23454e-09 0)
(3.9522e-06 8.97439e-09 0)
(3.91987e-06 8.57133e-09 0)
(3.8895e-06 7.97562e-09 0)
(3.86141e-06 7.23801e-09 0)
(3.83577e-06 6.45908e-09 0)
(3.81264e-06 5.71638e-09 0)
(3.79226e-06 4.99822e-09 0)
(3.77487e-06 4.21964e-09 0)
(3.76061e-06 3.34529e-09 0)
(3.74958e-06 2.44714e-09 0)
(3.74187e-06 1.58248e-09 0)
(3.73755e-06 6.84938e-10 0)
(3.73663e-06 -3.14154e-10 0)
(3.73923e-06 -1.34106e-09 0)
(3.74546e-06 -2.28486e-09 0)
(3.75531e-06 -3.16965e-09 0)
(3.76871e-06 -4.10356e-09 0)
(3.78563e-06 -5.10429e-09 0)
(3.80608e-06 -6.08221e-09 0)
(3.82998e-06 -7.001e-09 0)
(3.85722e-06 -7.89887e-09 0)
(3.88767e-06 -8.77189e-09 0)
(3.9212e-06 -9.60004e-09 0)
(3.95769e-06 -1.03954e-08 0)
(3.997e-06 -1.11607e-08 0)
(4.03896e-06 -1.18629e-08 0)
(4.08338e-06 -1.24603e-08 0)
(4.13003e-06 -1.29786e-08 0)
(4.17871e-06 -1.34828e-08 0)
(4.22914e-06 -1.39509e-08 0)
(4.2811e-06 -1.43212e-08 0)
(4.3343e-06 -1.4591e-08 0)
(4.3884e-06 -1.47854e-08 0)
(4.44308e-06 -1.49085e-08 0)
(4.49805e-06 -1.49088e-08 0)
(4.55301e-06 -1.4763e-08 0)
(4.60766e-06 -1.45407e-08 0)
(4.66162e-06 -1.42665e-08 0)
(4.71454e-06 -1.39017e-08 0)
(4.7661e-06 -1.34335e-08 0)
(4.81586e-06 -1.28626e-08 0)
(4.86346e-06 -1.21862e-08 0)
(4.90857e-06 -1.13685e-08 0)
(4.9508e-06 -1.03731e-08 0)
(4.98983e-06 -9.27359e-09 0)
(5.02527e-06 -8.16057e-09 0)
(5.05668e-06 -6.98512e-09 0)
(5.08373e-06 -5.66629e-09 0)
(5.10605e-06 -4.20426e-09 0)
(5.12325e-06 -2.64555e-09 0)
(5.13502e-06 -1.04663e-09 0)
(5.14096e-06 6.34885e-10 0)
(5.14067e-06 2.49967e-09 0)
(5.13392e-06 4.50404e-09 0)
(5.12044e-06 6.55219e-09 0)
(5.09984e-06 8.64661e-09 0)
(5.07185e-06 1.08099e-08 0)
(5.03621e-06 1.30623e-08 0)
(4.99264e-06 1.54256e-08 0)
(4.94094e-06 1.78572e-08 0)
(4.88087e-06 2.03025e-08 0)
(4.81223e-06 2.2791e-08 0)
(4.73493e-06 2.53606e-08 0)
(4.64889e-06 2.79846e-08 0)
(4.55393e-06 3.06192e-08 0)
(4.45006e-06 3.32028e-08 0)
(4.33741e-06 3.57161e-08 0)
(4.21598e-06 3.82618e-08 0)
(4.08582e-06 4.08743e-08 0)
(3.94713e-06 4.34041e-08 0)
(3.80012e-06 4.57632e-08 0)
(3.64505e-06 4.80409e-08 0)
(3.48229e-06 5.02989e-08 0)
(3.3122e-06 5.24629e-08 0)
(3.13528e-06 5.44426e-08 0)
(2.9522e-06 5.62156e-08 0)
(2.76362e-06 5.77837e-08 0)
(2.5702e-06 5.91279e-08 0)
(2.37285e-06 6.01891e-08 0)
(2.1726e-06 6.08975e-08 0)
(1.97047e-06 6.12551e-08 0)
(1.76771e-06 6.12993e-08 0)
(1.56582e-06 6.09599e-08 0)
(1.36633e-06 6.00903e-08 0)
(1.17087e-06 5.86133e-08 0)
(9.81397e-07 5.64802e-08 0)
(8.00133e-07 5.36111e-08 0)
(6.29331e-07 4.99657e-08 0)
(4.71483e-07 4.54871e-08 0)
(3.29481e-07 3.99847e-08 0)
(2.06347e-07 3.32362e-08 0)
(1.05121e-07 2.51918e-08 0)
(2.88955e-08 1.60223e-08 0)
(-1.95525e-08 6.141e-09 0)
(-3.90153e-08 -3.57074e-09 0)
(-3.27363e-08 -1.11227e-08 0)
(-1.21093e-08 -1.0731e-08 0)
(1.0116e-07 1.05785e-08 0)
(1.17248e-07 1.42958e-07 0)
(9.54038e-08 3.8208e-08 0)
(1.50154e-07 -4.21346e-08 0)
(2.92711e-07 -1.17093e-07 0)
(5.09402e-07 -1.78855e-07 0)
(7.91592e-07 -2.28594e-07 0)
(1.13022e-06 -2.67804e-07 0)
(1.5151e-06 -2.99615e-07 0)
(1.93893e-06 -3.24181e-07 0)
(2.39357e-06 -3.43263e-07 0)
(2.87156e-06 -3.57512e-07 0)
(3.36763e-06 -3.66991e-07 0)
(3.87537e-06 -3.72876e-07 0)
(4.38991e-06 -3.75797e-07 0)
(4.90742e-06 -3.75345e-07 0)
(5.42299e-06 -3.72485e-07 0)
(5.93328e-06 -3.67224e-07 0)
(6.43553e-06 -3.59587e-07 0)
(6.92638e-06 -3.50395e-07 0)
(7.40374e-06 -3.39589e-07 0)
(7.86561e-06 -3.27446e-07 0)
(8.30957e-06 -3.14148e-07 0)
(8.73427e-06 -2.99911e-07 0)
(9.13865e-06 -2.84879e-07 0)
(9.52148e-06 -2.69189e-07 0)
(9.88189e-06 -2.53061e-07 0)
(1.02192e-05 -2.36751e-07 0)
(1.05331e-05 -2.20036e-07 0)
(1.0823e-05 -2.03058e-07 0)
(1.10889e-05 -1.86194e-07 0)
(1.13308e-05 -1.69378e-07 0)
(1.15488e-05 -1.52566e-07 0)
(1.17432e-05 -1.35989e-07 0)
(1.19143e-05 -1.19771e-07 0)
(1.20628e-05 -1.03957e-07 0)
(1.21891e-05 -8.85656e-08 0)
(1.22941e-05 -7.36531e-08 0)
(1.23783e-05 -5.94097e-08 0)
(1.24425e-05 -4.58353e-08 0)
(1.24876e-05 -3.27046e-08 0)
(1.25147e-05 -2.01034e-08 0)
(1.25246e-05 -8.37792e-09 0)
(1.25183e-05 2.49746e-09 0)
(1.2497e-05 1.27308e-08 0)
(1.24617e-05 2.23068e-08 0)
(1.24132e-05 3.10491e-08 0)
(1.23528e-05 3.90619e-08 0)
(1.22818e-05 4.63303e-08 0)
(1.22012e-05 5.27735e-08 0)
(1.21121e-05 5.84084e-08 0)
(1.20156e-05 6.32967e-08 0)
(1.19128e-05 6.74694e-08 0)
(1.18049e-05 7.09278e-08 0)
(1.16931e-05 7.36214e-08 0)
(1.15784e-05 7.54553e-08 0)
(1.14616e-05 7.65083e-08 0)
(1.13437e-05 7.69796e-08 0)
(1.12261e-05 7.68963e-08 0)
(1.11096e-05 7.6083e-08 0)
(1.0995e-05 7.44646e-08 0)
(1.08832e-05 7.22504e-08 0)
(1.07752e-05 6.9657e-08 0)
(1.06717e-05 6.66158e-08 0)
(1.05734e-05 6.29898e-08 0)
(1.04811e-05 5.88233e-08 0)
(1.03955e-05 5.41557e-08 0)
(1.03173e-05 4.89994e-08 0)
(1.02471e-05 4.34963e-08 0)
(1.01852e-05 3.77736e-08 0)
(1.0132e-05 3.17688e-08 0)
(1.00879e-05 2.54361e-08 0)
(1.00536e-05 1.88984e-08 0)
(1.00293e-05 1.2249e-08 0)
(1.00152e-05 5.40033e-09 0)
(1.00113e-05 -1.6857e-09 0)
(1.00179e-05 -8.82444e-09 0)
(1.00352e-05 -1.58616e-08 0)
(1.00632e-05 -2.2862e-08 0)
(1.01017e-05 -2.99129e-08 0)
(1.01507e-05 -3.69618e-08 0)
(1.02101e-05 -4.3879e-08 0)
(1.02798e-05 -5.06076e-08 0)
(1.03594e-05 -5.71765e-08 0)
(1.04487e-05 -6.35465e-08 0)
(1.05472e-05 -6.96433e-08 0)
(1.06545e-05 -7.5448e-08 0)
(1.07702e-05 -8.09302e-08 0)
(1.08938e-05 -8.6025e-08 0)
(1.10249e-05 -9.06749e-08 0)
(1.11627e-05 -9.48862e-08 0)
(1.13064e-05 -9.86969e-08 0)
(1.14554e-05 -1.02019e-07 0)
(1.16091e-05 -1.0473e-07 0)
(1.17668e-05 -1.06853e-07 0)
(1.19275e-05 -1.08443e-07 0)
(1.20902e-05 -1.09489e-07 0)
(1.22541e-05 -1.09897e-07 0)
(1.24182e-05 -1.0957e-07 0)
(1.25818e-05 -1.08558e-07 0)
(1.27437e-05 -1.06905e-07 0)
(1.29029e-05 -1.04556e-07 0)
(1.30584e-05 -1.01494e-07 0)
(1.32092e-05 -9.77169e-08 0)
(1.33542e-05 -9.3189e-08 0)
(1.34924e-05 -8.78756e-08 0)
(1.36227e-05 -8.17481e-08 0)
(1.37439e-05 -7.48638e-08 0)
(1.3855e-05 -6.73444e-08 0)
(1.39548e-05 -5.91569e-08 0)
(1.40423e-05 -5.01751e-08 0)
(1.41165e-05 -4.03933e-08 0)
(1.41764e-05 -2.98789e-08 0)
(1.42208e-05 -1.87398e-08 0)
(1.42487e-05 -7.01368e-09 0)
(1.42592e-05 5.43956e-09 0)
(1.42512e-05 1.86593e-08 0)
(1.42239e-05 3.25052e-08 0)
(1.41766e-05 4.69027e-08 0)
(1.41084e-05 6.18435e-08 0)
(1.40184e-05 7.72947e-08 0)
(1.39059e-05 9.32239e-08 0)
(1.37702e-05 1.09581e-07 0)
(1.36109e-05 1.2628e-07 0)
(1.34276e-05 1.43284e-07 0)
(1.32198e-05 1.60577e-07 0)
(1.29871e-05 1.78037e-07 0)
(1.27294e-05 1.95555e-07 0)
(1.24466e-05 2.13088e-07 0)
(1.21387e-05 2.30537e-07 0)
(1.18062e-05 2.47833e-07 0)
(1.14492e-05 2.64938e-07 0)
(1.10682e-05 2.81686e-07 0)
(1.06639e-05 2.97849e-07 0)
(1.0237e-05 3.13315e-07 0)
(9.78856e-06 3.28056e-07 0)
(9.31981e-06 3.41956e-07 0)
(8.8322e-06 3.54801e-07 0)
(8.32746e-06 3.66399e-07 0)
(7.80753e-06 3.76587e-07 0)
(7.27456e-06 3.85151e-07 0)
(6.73097e-06 3.91829e-07 0)
(6.1796e-06 3.96365e-07 0)
(5.62355e-06 3.98547e-07 0)
(5.06627e-06 3.98184e-07 0)
(4.51166e-06 3.95005e-07 0)
(3.96406e-06 3.88612e-07 0)
(3.42812e-06 3.78594e-07 0)
(2.90893e-06 3.646e-07 0)
(2.41216e-06 3.4625e-07 0)
(1.94385e-06 3.23146e-07 0)
(1.51038e-06 2.94934e-07 0)
(1.11857e-06 2.61227e-07 0)
(7.75522e-07 2.21671e-07 0)
(4.88126e-07 1.76205e-07 0)
(2.62491e-07 1.25492e-07 0)
(1.02979e-07 7.16706e-08 0)
(9.76231e-09 1.95068e-08 0)
(-2.36061e-08 -2.16737e-08 0)
(-1.37083e-08 -3.11483e-08 0)
(4.17708e-08 -1.38714e-08 0)
(9.90857e-08 3.40508e-08 0)
(2.22676e-07 -6.04129e-08 0)
(4.06254e-07 -2.09302e-07 0)
(6.81739e-07 -3.64159e-07 0)
(1.04909e-06 -5.05936e-07 0)
(1.5038e-06 -6.28061e-07 0)
(2.03529e-06 -7.31712e-07 0)
(2.63398e-06 -8.1656e-07 0)
(3.28912e-06 -8.85252e-07 0)
(3.98979e-06 -9.39654e-07 0)
(4.72732e-06 -9.80341e-07 0)
(5.49158e-06 -1.00946e-06 0)
(6.27435e-06 -1.02827e-06 0)
(7.06865e-06 -1.03699e-06 0)
(7.86673e-06 -1.03768e-06 0)
(8.66269e-06 -1.03079e-06 0)
(9.45126e-06 -1.01681e-06 0)
(1.02267e-05 -9.97228e-07 0)
(1.09852e-05 -9.72206e-07 0)
(1.17227e-05 -9.42452e-07 0)
(1.24355e-05 -9.09022e-07 0)
(1.31209e-05 -8.7219e-07 0)
(1.37763e-05 -8.3236e-07 0)
(1.43994e-05 -7.90184e-07 0)
(1.49886e-05 -7.46042e-07 0)
(1.55425e-05 -7.004e-07 0)
(1.606e-05 -6.53673e-07 0)
(1.65403e-05 -6.06128e-07 0)
(1.69829e-05 -5.58172e-07 0)
(1.73874e-05 -5.10098e-07 0)
(1.7754e-05 -4.622e-07 0)
(1.80828e-05 -4.14756e-07 0)
(1.83743e-05 -3.67903e-07 0)
(1.8629e-05 -3.21941e-07 0)
(1.88477e-05 -2.771e-07 0)
(1.90313e-05 -2.33351e-07 0)
(1.9181e-05 -1.90953e-07 0)
(1.92976e-05 -1.50309e-07 0)
(1.93826e-05 -1.1139e-07 0)
(1.94376e-05 -7.4107e-08 0)
(1.94638e-05 -3.86977e-08 0)
(1.94627e-05 -5.35291e-09 0)
(1.94361e-05 2.59785e-08 0)
(1.93858e-05 5.52073e-08 0)
(1.93132e-05 8.21731e-08 0)
(1.92202e-05 1.0694e-07 0)
(1.91083e-05 1.29551e-07 0)
(1.89797e-05 1.4997e-07 0)
(1.8836e-05 1.6815e-07 0)
(1.86792e-05 1.84032e-07 0)
(1.85109e-05 1.97608e-07 0)
(1.8333e-05 2.08992e-07 0)
(1.81473e-05 2.18311e-07 0)
(1.79556e-05 2.25509e-07 0)
(1.77594e-05 2.30414e-07 0)
(1.75606e-05 2.33135e-07 0)
(1.73608e-05 2.33993e-07 0)
(1.71617e-05 2.33017e-07 0)
(1.69645e-05 2.30071e-07 0)
(1.67709e-05 2.25236e-07 0)
(1.65825e-05 2.18674e-07 0)
(1.64006e-05 2.10447e-07 0)
(1.62265e-05 2.00647e-07 0)
(1.60612e-05 1.89407e-07 0)
(1.5906e-05 1.76802e-07 0)
(1.57621e-05 1.62893e-07 0)
(1.56304e-05 1.4779e-07 0)
(1.5512e-05 1.316e-07 0)
(1.54076e-05 1.14377e-07 0)
(1.53178e-05 9.62184e-08 0)
(1.52433e-05 7.73586e-08 0)
(1.5185e-05 5.79824e-08 0)
(1.51432e-05 3.80806e-08 0)
(1.51182e-05 1.76241e-08 0)
(1.51104e-05 -3.24464e-09 0)
(1.51201e-05 -2.43046e-08 0)
(1.51476e-05 -4.54177e-08 0)
(1.51925e-05 -6.65255e-08 0)
(1.5255e-05 -8.75494e-08 0)
(1.5335e-05 -1.08369e-07 0)
(1.54322e-05 -1.28863e-07 0)
(1.55463e-05 -1.48903e-07 0)
(1.5677e-05 -1.68389e-07 0)
(1.58236e-05 -1.87235e-07 0)
(1.59857e-05 -2.05356e-07 0)
(1.61624e-05 -2.22654e-07 0)
(1.63531e-05 -2.38963e-07 0)
(1.65571e-05 -2.54128e-07 0)
(1.67734e-05 -2.68109e-07 0)
(1.70009e-05 -2.80878e-07 0)
(1.72384e-05 -2.92331e-07 0)
(1.74851e-05 -3.02292e-07 0)
(1.77396e-05 -3.106e-07 0)
(1.80008e-05 -3.17277e-07 0)
(1.82672e-05 -3.22362e-07 0)
(1.85375e-05 -3.25745e-07 0)
(1.88102e-05 -3.27318e-07 0)
(1.90838e-05 -3.26986e-07 0)
(1.93567e-05 -3.24683e-07 0)
(1.96275e-05 -3.20377e-07 0)
(1.98943e-05 -3.13987e-07 0)
(2.01556e-05 -3.05492e-07 0)
(2.04096e-05 -2.94945e-07 0)
(2.06547e-05 -2.82288e-07 0)
(2.08894e-05 -2.6742e-07 0)
(2.11116e-05 -2.50336e-07 0)
(2.13197e-05 -2.31078e-07 0)
(2.15117e-05 -2.09712e-07 0)
(2.1686e-05 -1.86271e-07 0)
(2.18409e-05 -1.60654e-07 0)
(2.19748e-05 -1.32843e-07 0)
(2.20858e-05 -1.02949e-07 0)
(2.21722e-05 -7.10399e-08 0)
(2.22324e-05 -3.71976e-08 0)
(2.22649e-05 -1.46162e-09 0)
(2.22681e-05 3.62069e-08 0)
(2.22406e-05 7.57327e-08 0)
(2.21811e-05 1.16953e-07 0)
(2.20882e-05 1.59756e-07 0)
(2.19607e-05 2.04022e-07 0)
(2.17973e-05 2.49577e-07 0)
(2.15971e-05 2.96308e-07 0)
(2.13593e-05 3.44123e-07 0)
(2.10831e-05 3.92802e-07 0)
(2.07681e-05 4.42138e-07 0)
(2.04136e-05 4.91956e-07 0)
(2.00192e-05 5.42003e-07 0)
(1.95849e-05 5.92056e-07 0)
(1.9111e-05 6.41912e-07 0)
(1.85978e-05 6.91274e-07 0)
(1.80458e-05 7.39822e-07 0)
(1.74557e-05 7.87257e-07 0)
(1.68287e-05 8.33221e-07 0)
(1.6166e-05 8.773e-07 0)
(1.54694e-05 9.19116e-07 0)
(1.47407e-05 9.58304e-07 0)
(1.39825e-05 9.94392e-07 0)
(1.31973e-05 1.02688e-06 0)
(1.23883e-05 1.05531e-06 0)
(1.15588e-05 1.0791e-06 0)
(1.07127e-05 1.09758e-06 0)
(9.85468e-06 1.11006e-06 0)
(8.98952e-06 1.1159e-06 0)
(8.12269e-06 1.11442e-06 0)
(7.26021e-06 1.10487e-06 0)
(6.4086e-06 1.08639e-06 0)
(5.575e-06 1.05806e-06 0)
(4.76724e-06 1.01894e-06 0)
(3.99374e-06 9.68082e-07 0)
(3.26335e-06 9.04607e-07 0)
(2.58536e-06 8.27735e-07 0)
(1.9694e-06 7.36951e-07 0)
(1.42499e-06 6.32179e-07 0)
(9.61187e-07 5.14047e-07 0)
(5.86001e-07 3.84612e-07 0)
(3.05007e-07 2.48857e-07 0)
(1.18287e-07 1.17172e-07 0)
(1.90147e-08 9.03945e-09 0)
(-5.12366e-09 -3.88253e-08 0)
(3.18823e-08 -1.10261e-07 0)
(1.22752e-07 -1.19268e-07 0)
(3.32979e-07 -2.75859e-07 0)
(6.36102e-07 -5.10911e-07 0)
(1.04505e-06 -7.62352e-07 0)
(1.56304e-06 -9.99862e-07 0)
(2.18268e-06 -1.21309e-06 0)
(2.89529e-06 -1.39708e-06 0)
(3.6891e-06 -1.55187e-06 0)
(4.55141e-06 -1.67933e-06 0)
(5.47145e-06 -1.78023e-06 0)
(6.43645e-06 -1.85763e-06 0)
(7.43524e-06 -1.91356e-06 0)
(8.45816e-06 -1.94917e-06 0)
(9.49461e-06 -1.96717e-06 0)
(1.05359e-05 -1.96894e-06 0)
(1.15745e-05 -1.95594e-06 0)
(1.26024e-05 -1.93028e-06 0)
(1.36135e-05 -1.89306e-06 0)
(1.46021e-05 -1.84541e-06 0)
(1.55625e-05 -1.78909e-06 0)
(1.64903e-05 -1.72496e-06 0)
(1.73818e-05 -1.65424e-06 0)
(1.82333e-05 -1.57796e-06 0)
(1.90421e-05 -1.49697e-06 0)
(1.98057e-05 -1.41212e-06 0)
(2.05223e-05 -1.3243e-06 0)
(2.11903e-05 -1.23416e-06 0)
(2.18089e-05 -1.14246e-06 0)
(2.2377e-05 -1.04987e-06 0)
(2.28945e-05 -9.56989e-07 0)
(2.33613e-05 -8.6438e-07 0)
(2.37777e-05 -7.72507e-07 0)
(2.41442e-05 -6.81887e-07 0)
(2.44616e-05 -5.93047e-07 0)
(2.4731e-05 -5.06218e-07 0)
(2.49535e-05 -4.21647e-07 0)
(2.51304e-05 -3.39879e-07 0)
(2.52632e-05 -2.61189e-07 0)
(2.53541e-05 -1.8566e-07 0)
(2.54047e-05 -1.13636e-07 0)
(2.54168e-05 -4.54448e-08 0)
(2.53927e-05 1.89698e-08 0)
(2.53345e-05 7.95305e-08 0)
(2.52445e-05 1.35968e-07 0)
(2.5125e-05 1.88074e-07 0)
(2.49784e-05 2.35854e-07 0)
(2.48071e-05 2.79282e-07 0)
(2.46135e-05 3.1841e-07 0)
(2.44e-05 3.53218e-07 0)
(2.41691e-05 3.83537e-07 0)
(2.39234e-05 4.09374e-07 0)
(2.36652e-05 4.3094e-07 0)
(2.33971e-05 4.48281e-07 0)
(2.31212e-05 4.61333e-07 0)
(2.28399e-05 4.70186e-07 0)
(2.25556e-05 4.75014e-07 0)
(2.22707e-05 4.75931e-07 0)
(2.19871e-05 4.72974e-07 0)
(2.17069e-05 4.66291e-07 0)
(2.14322e-05 4.56142e-07 0)
(2.1165e-05 4.42665e-07 0)
(2.09072e-05 4.25889e-07 0)
(2.06605e-05 4.05945e-07 0)
(2.04267e-05 3.83049e-07 0)
(2.02072e-05 3.57404e-07 0)
(2.00036e-05 3.29269e-07 0)
(1.98172e-05 2.98902e-07 0)
(1.96494e-05 2.6642e-07 0)
(1.95011e-05 2.31887e-07 0)
(1.93734e-05 1.95563e-07 0)
(1.92674e-05 1.57822e-07 0)
(1.9184e-05 1.18876e-07 0)
(1.91234e-05 7.88009e-08 0)
(1.90864e-05 3.77994e-08 0)
(1.90735e-05 -3.80751e-09 0)
(1.9085e-05 -4.58013e-08 0)
(1.91212e-05 -8.80495e-08 0)
(1.91819e-05 -1.30337e-07 0)
(1.92671e-05 -1.72405e-07 0)
(1.93767e-05 -2.14047e-07 0)
(1.95103e-05 -2.55071e-07 0)
(1.96676e-05 -2.95218e-07 0)
(1.98479e-05 -3.34235e-07 0)
(2.00506e-05 -3.71973e-07 0)
(2.02748e-05 -4.0827e-07 0)
(2.05197e-05 -4.42873e-07 0)
(2.07843e-05 -4.75502e-07 0)
(2.10674e-05 -5.0595e-07 0)
(2.13677e-05 -5.34129e-07 0)
(2.16839e-05 -5.59904e-07 0)
(2.20146e-05 -5.83011e-07 0)
(2.23582e-05 -6.03234e-07 0)
(2.27131e-05 -6.20408e-07 0)
(2.30775e-05 -6.34398e-07 0)
(2.34497e-05 -6.45111e-07 0)
(2.38277e-05 -6.52391e-07 0)
(2.42096e-05 -6.56111e-07 0)
(2.45933e-05 -6.56173e-07 0)
(2.49768e-05 -6.52398e-07 0)
(2.53578e-05 -6.44685e-07 0)
(2.57341e-05 -6.32995e-07 0)
(2.61035e-05 -6.17227e-07 0)
(2.64636e-05 -5.97287e-07 0)
(2.68122e-05 -5.73124e-07 0)
(2.7147e-05 -5.44691e-07 0)
(2.74656e-05 -5.12027e-07 0)
(2.77654e-05 -4.75168e-07 0)
(2.8044e-05 -4.34049e-07 0)
(2.82992e-05 -3.88689e-07 0)
(2.85286e-05 -3.39147e-07 0)
(2.873e-05 -2.85427e-07 0)
(2.89008e-05 -2.2761e-07 0)
(2.90388e-05 -1.65795e-07 0)
(2.91418e-05 -1.00071e-07 0)
(2.92077e-05 -3.05995e-08 0)
(2.92345e-05 4.24893e-08 0)
(2.92202e-05 1.19117e-07 0)
(2.91629e-05 1.99099e-07 0)
(2.90608e-05 2.82151e-07 0)
(2.89123e-05 3.68015e-07 0)
(2.87157e-05 4.56425e-07 0)
(2.847e-05 5.47098e-07 0)
(2.81738e-05 6.39825e-07 0)
(2.78261e-05 7.34295e-07 0)
(2.74263e-05 8.3002e-07 0)
(2.69736e-05 9.26577e-07 0)
(2.64677e-05 1.0236e-06 0)
(2.59084e-05 1.12065e-06 0)
(2.5296e-05 1.21721e-06 0)
(2.4631e-05 1.31273e-06 0)
(2.39141e-05 1.4066e-06 0)
(2.31464e-05 1.49822e-06 0)
(2.23294e-05 1.58695e-06 0)
(2.14648e-05 1.67207e-06 0)
(2.0555e-05 1.75277e-06 0)
(1.96026e-05 1.82826e-06 0)
(1.86106e-05 1.89772e-06 0)
(1.75829e-05 1.96017e-06 0)
(1.65236e-05 2.01458e-06 0)
(1.5437e-05 2.05992e-06 0)
(1.43285e-05 2.09509e-06 0)
(1.32039e-05 2.11885e-06 0)
(1.20699e-05 2.12992e-06 0)
(1.09335e-05 2.12698e-06 0)
(9.80248e-06 2.10858e-06 0)
(8.68538e-06 2.07322e-06 0)
(7.5913e-06 2.01935e-06 0)
(6.53008e-06 1.94544e-06 0)
(5.51234e-06 1.84994e-06 0)
(4.54917e-06 1.7314e-06 0)
(3.652e-06 1.58867e-06 0)
(2.83243e-06 1.42122e-06 0)
(2.10178e-06 1.22946e-06 0)
(1.47041e-06 1.01535e-06 0)
(9.47303e-07 7.8322e-07 0)
(5.39276e-07 5.4138e-07 0)
(2.48388e-07 3.04964e-07 0)
(7.16659e-08 1.01307e-07 0)
(5.61232e-09 -2.01238e-08 0)
(2.79638e-08 -1.67491e-07 0)
(1.51993e-07 -3.15786e-07 0)
(4.40625e-07 -5.83391e-07 0)
(8.53419e-07 -9.32669e-07 0)
(1.39069e-06 -1.29807e-06 0)
(2.04963e-06 -1.64739e-06 0)
(2.82391e-06 -1.96355e-06 0)
(3.70254e-06 -2.24021e-06 0)
(4.67217e-06 -2.47632e-06 0)
(5.72077e-06 -2.67116e-06 0)
(6.83386e-06 -2.82766e-06 0)
(7.9982e-06 -2.94821e-06 0)
(9.20184e-06 -3.03487e-06 0)
(1.0432e-05 -3.09105e-06 0)
(1.16776e-05 -3.11926e-06 0)
(1.29285e-05 -3.12161e-06 0)
(1.41744e-05 -3.10117e-06 0)
(1.54072e-05 -3.06011e-06 0)
(1.66191e-05 -3.00035e-06 0)
(1.78028e-05 -2.92457e-06 0)
(1.89521e-05 -2.83435e-06 0)
(2.00614e-05 -2.73157e-06 0)
(2.11259e-05 -2.61813e-06 0)
(2.21415e-05 -2.49551e-06 0)
(2.31047e-05 -2.36535e-06 0)
(2.40125e-05 -2.22905e-06 0)
(2.48627e-05 -2.08778e-06 0)
(2.56534e-05 -1.94277e-06 0)
(2.63832e-05 -1.79524e-06 0)
(2.70512e-05 -1.6462e-06 0)
(2.7657e-05 -1.49664e-06 0)
(2.82005e-05 -1.34739e-06 0)
(2.86821e-05 -1.19931e-06 0)
(2.91024e-05 -1.05329e-06 0)
(2.94623e-05 -9.09898e-07 0)
(2.97633e-05 -7.69738e-07 0)
(3.00066e-05 -6.33542e-07 0)
(3.01939e-05 -5.01831e-07 0)
(3.03272e-05 -3.7484e-07 0)
(3.04088e-05 -2.53029e-07 0)
(3.04409e-05 -1.37005e-07 0)
(3.04259e-05 -2.70467e-08 0)
(3.03666e-05 7.67347e-08 0)
(3.02655e-05 1.74064e-07 0)
(3.01254e-05 2.64694e-07 0)
(2.99493e-05 3.4849e-07 0)
(2.974e-05 4.25252e-07 0)
(2.95007e-05 4.94924e-07 0)
(2.92345e-05 5.57489e-07 0)
(2.89441e-05 6.12878e-07 0)
(2.86328e-05 6.61063e-07 0)
(2.83036e-05 7.02144e-07 0)
(2.79598e-05 7.36215e-07 0)
(2.76041e-05 7.63202e-07 0)
(2.72395e-05 7.8316e-07 0)
(2.6869e-05 7.9643e-07 0)
(2.64956e-05 8.03235e-07 0)
(2.61219e-05 8.03554e-07 0)
(2.57507e-05 7.97478e-07 0)
(2.53846e-05 7.85354e-07 0)
(2.50262e-05 7.67526e-07 0)
(2.46779e-05 7.44183e-07 0)
(2.4342e-05 7.15546e-07 0)
(2.40208e-05 6.81885e-07 0)
(2.37164e-05 6.43404e-07 0)
(2.34307e-05 6.00373e-07 0)
(2.31658e-05 5.5324e-07 0)
(2.29233e-05 5.02376e-07 0)
(2.27045e-05 4.47974e-07 0)
(2.25111e-05 3.90338e-07 0)
(2.23442e-05 3.29949e-07 0)
(2.22054e-05 2.67176e-07 0)
(2.20953e-05 2.0223e-07 0)
(2.20148e-05 1.35403e-07 0)
(2.19646e-05 6.71503e-08 0)
(2.19454e-05 -2.0836e-09 0)
(2.19575e-05 -7.19865e-08 0)
(2.20011e-05 -1.42284e-07 0)
(2.20763e-05 -2.12615e-07 0)
(2.2183e-05 -2.8258e-07 0)
(2.23209e-05 -3.51826e-07 0)
(2.24897e-05 -4.20017e-07 0)
(2.2689e-05 -4.86792e-07 0)
(2.29178e-05 -5.51782e-07 0)
(2.31754e-05 -6.14671e-07 0)
(2.34607e-05 -6.75142e-07 0)
(2.37727e-05 -7.32799e-07 0)
(2.41101e-05 -7.87268e-07 0)
(2.44715e-05 -8.38248e-07 0)
(2.48552e-05 -8.85485e-07 0)
(2.52595e-05 -9.28702e-07 0)
(2.56827e-05 -9.67532e-07 0)
(2.61229e-05 -1.00168e-06 0)
(2.6578e-05 -1.03095e-06 0)
(2.70458e-05 -1.05508e-06 0)
(2.75241e-05 -1.0738e-06 0)
(2.80104e-05 -1.0869e-06 0)
(2.85023e-05 -1.09414e-06 0)
(2.89973e-05 -1.09534e-06 0)
(2.94928e-05 -1.0903e-06 0)
(2.99859e-05 -1.07886e-06 0)
(3.0474e-05 -1.06094e-06 0)
(3.09541e-05 -1.03644e-06 0)
(3.14234e-05 -1.00512e-06 0)
(3.18792e-05 -9.66863e-07 0)
(3.23183e-05 -9.2167e-07 0)
(3.27378e-05 -8.69561e-07 0)
(3.31346e-05 -8.10579e-07 0)
(3.35059e-05 -7.44662e-07 0)
(3.38485e-05 -6.71745e-07 0)
(3.41596e-05 -5.91954e-07 0)
(3.44364e-05 -5.05433e-07 0)
(3.46758e-05 -4.12265e-07 0)
(3.4875e-05 -3.12574e-07 0)
(3.50312e-05 -2.06505e-07 0)
(3.51419e-05 -9.42586e-08 0)
(3.52044e-05 2.38959e-08 0)
(3.52164e-05 1.47694e-07 0)
(3.51754e-05 2.7688e-07 0)
(3.50793e-05 4.11078e-07 0)
(3.49259e-05 5.49832e-07 0)
(3.47134e-05 6.92749e-07 0)
(3.44402e-05 8.39395e-07 0)
(3.4105e-05 9.8926e-07 0)
(3.37064e-05 1.14183e-06 0)
(3.32434e-05 1.2965e-06 0)
(3.27152e-05 1.45254e-06 0)
(3.21216e-05 1.60926e-06 0)
(3.14622e-05 1.76595e-06 0)
(3.07375e-05 1.92181e-06 0)
(2.9948e-05 2.0759e-06 0)
(2.90947e-05 2.22729e-06 0)
(2.81789e-05 2.37501e-06 0)
(2.72025e-05 2.51794e-06 0)
(2.61676e-05 2.65495e-06 0)
(2.50771e-05 2.78482e-06 0)
(2.39343e-05 2.90624e-06 0)
(2.2743e-05 3.01785e-06 0)
(2.15077e-05 3.11818e-06 0)
(2.02334e-05 3.20556e-06 0)
(1.89257e-05 3.27826e-06 0)
(1.7591e-05 3.33457e-06 0)
(1.62363e-05 3.3727e-06 0)
(1.48696e-05 3.39066e-06 0)
(1.34993e-05 3.38634e-06 0)
(1.21348e-05 3.35753e-06 0)
(1.07861e-05 3.30201e-06 0)
(9.46388e-06 3.2175e-06 0)
(8.17983e-06 3.10176e-06 0)
(6.94608e-06 2.95277e-06 0)
(5.77528e-06 2.76867e-06 0)
(4.68053e-06 2.54803e-06 0)
(3.67503e-06 2.2903e-06 0)
(2.77151e-06 1.99638e-06 0)
(1.98164e-06 1.66952e-06 0)
(1.31552e-06 1.31648e-06 0)
(7.81074e-07 9.49128e-07 0)
(3.82984e-07 5.86594e-07 0)
(1.25032e-07 2.60762e-07 0)
(1.58484e-08 2.77513e-08 0)
(2.9917e-08 -2.46145e-07 0)
(1.86741e-07 -5.65465e-07 0)
(5.46136e-07 -9.79015e-07 0)
(1.05997e-06 -1.46489e-06 0)
(1.71465e-06 -1.96311e-06 0)
(2.50509e-06 -2.4366e-06 0)
(3.42127e-06 -2.86691e-06 0)
(4.4499e-06 -3.24633e-06 0)
(5.57844e-06 -3.57057e-06 0)
(6.79147e-06 -3.84068e-06 0)
(8.07437e-06 -4.05845e-06 0)
(9.41331e-06 -4.22604e-06 0)
(1.07936e-05 -4.34711e-06 0)
(1.22023e-05 -4.42522e-06 0)
(1.36271e-05 -4.46345e-06 0)
(1.50559e-05 -4.46578e-06 0)
(1.6478e-05 -4.43531e-06 0)
(1.78839e-05 -4.37509e-06 0)
(1.92643e-05 -4.28853e-06 0)
(2.06114e-05 -4.1785e-06 0)
(2.1918e-05 -4.04779e-06 0)
(2.31775e-05 -3.89905e-06 0)
(2.43846e-05 -3.73455e-06 0)
(2.55344e-05 -3.55687e-06 0)
(2.66227e-05 -3.36806e-06 0)
(2.76464e-05 -3.17015e-06 0)
(2.86027e-05 -2.96508e-06 0)
(2.94893e-05 -2.75457e-06 0)
(3.03048e-05 -2.5403e-06 0)
(3.1048e-05 -2.32385e-06 0)
(3.17185e-05 -2.10655e-06 0)
(3.23162e-05 -1.88972e-06 0)
(3.28415e-05 -1.67467e-06 0)
(3.3295e-05 -1.46245e-06 0)
(3.3678e-05 -1.25392e-06 0)
(3.39919e-05 -1.0502e-06 0)
(3.42384e-05 -8.52288e-07 0)
(3.44195e-05 -6.60735e-07 0)
(3.45377e-05 -4.76192e-07 0)
(3.45953e-05 -2.99402e-07 0)
(3.4595e-05 -1.30908e-07 0)
(3.45399e-05 2.89155e-08 0)
(3.44331e-05 1.7959e-07 0)
(3.42777e-05 3.20689e-07 0)
(3.4077e-05 4.51969e-07 0)
(3.38343e-05 5.73227e-07 0)
(3.35533e-05 6.84238e-07 0)
(3.32375e-05 7.84937e-07 0)
(3.28906e-05 8.75121e-07 0)
(3.2516e-05 9.54641e-07 0)
(3.21175e-05 1.02367e-06 0)
(3.16988e-05 1.08235e-06 0)
(3.12635e-05 1.13063e-06 0)
(3.08149e-05 1.16849e-06 0)
(3.03568e-05 1.19614e-06 0)
(2.98928e-05 1.21394e-06 0)
(2.94261e-05 1.2221e-06 0)
(2.89599e-05 1.22075e-06 0)
(2.84976e-05 1.21018e-06 0)
(2.80425e-05 1.19072e-06 0)
(2.75975e-05 1.16271e-06 0)
(2.71654e-05 1.12654e-06 0)
(2.67491e-05 1.08256e-06 0)
(2.63512e-05 1.03117e-06 0)
(2.59742e-05 9.72779e-07 0)
(2.56205e-05 9.07859e-07 0)
(2.52924e-05 8.36861e-07 0)
(2.49919e-05 7.60178e-07 0)
(2.47207e-05 6.78243e-07 0)
(2.44806e-05 5.91661e-07 0)
(2.42733e-05 5.01038e-07 0)
(2.41002e-05 4.06804e-07 0)
(2.39622e-05 3.09348e-07 0)
(2.38604e-05 2.09207e-07 0)
(2.37958e-05 1.06995e-07 0)
(2.37691e-05 3.25035e-09 0)
(2.37806e-05 -1.01538e-07 0)
(2.38305e-05 -2.06869e-07 0)
(2.39191e-05 -3.12216e-07 0)
(2.40461e-05 -4.17043e-07 0)
(2.42113e-05 -5.20811e-07 0)
(2.44143e-05 -6.22966e-07 0)
(2.46545e-05 -7.23e-07 0)
(2.49309e-05 -8.20441e-07 0)
(2.52424e-05 -9.14802e-07 0)
(2.5588e-05 -1.00554e-06 0)
(2.59664e-05 -1.0921e-06 0)
(2.63761e-05 -1.17399e-06 0)
(2.68151e-05 -1.25084e-06 0)
(2.72817e-05 -1.32218e-06 0)
(2.77739e-05 -1.38752e-06 0)
(2.82895e-05 -1.44641e-06 0)
(2.88263e-05 -1.49841e-06 0)
(2.93818e-05 -1.54323e-06 0)
(2.99534e-05 -1.58047e-06 0)
(3.05383e-05 -1.60976e-06 0)
(3.11339e-05 -1.63077e-06 0)
(3.17371e-05 -1.64319e-06 0)
(3.23449e-05 -1.64669e-06 0)
(3.29542e-05 -1.64102e-06 0)
(3.35617e-05 -1.62595e-06 0)
(3.4164e-05 -1.60132e-06 0)
(3.47578e-05 -1.56694e-06 0)
(3.53399e-05 -1.5226e-06 0)
(3.59066e-05 -1.4681e-06 0)
(3.64545e-05 -1.40342e-06 0)
(3.69799e-05 -1.32857e-06 0)
(3.74792e-05 -1.24353e-06 0)
(3.79491e-05 -1.14829e-06 0)
(3.8386e-05 -1.04281e-06 0)
(3.87862e-05 -9.27165e-07 0)
(3.91465e-05 -8.01595e-07 0)
(3.94633e-05 -6.66291e-07 0)
(3.97332e-05 -5.21419e-07 0)
(3.99531e-05 -3.67213e-07 0)
(4.01196e-05 -2.0397e-07 0)
(4.02299e-05 -3.20148e-08 0)
(4.02811e-05 1.48235e-07 0)
(4.02702e-05 3.36288e-07 0)
(4.01947e-05 5.31642e-07 0)
(4.00521e-05 7.33709e-07 0)
(3.98403e-05 9.41871e-07 0)
(3.95574e-05 1.15551e-06 0)
(3.92017e-05 1.37387e-06 0)
(3.87717e-05 1.59606e-06 0)
(3.82662e-05 1.82123e-06 0)
(3.76843e-05 2.04844e-06 0)
(3.70255e-05 2.27664e-06 0)
(3.62899e-05 2.50469e-06 0)
(3.54776e-05 2.73143e-06 0)
(3.45894e-05 2.95561e-06 0)
(3.36263e-05 3.17581e-06 0)
(3.25901e-05 3.39058e-06 0)
(3.14828e-05 3.59837e-06 0)
(3.0307e-05 3.79745e-06 0)
(2.90661e-05 3.98605e-06 0)
(2.77639e-05 4.16235e-06 0)
(2.64049e-05 4.32434e-06 0)
(2.49941e-05 4.46991e-06 0)
(2.35375e-05 4.59675e-06 0)
(2.20414e-05 4.70244e-06 0)
(2.05134e-05 4.78449e-06 0)
(1.89616e-05 4.84028e-06 0)
(1.73948e-05 4.86712e-06 0)
(1.58227e-05 4.86211e-06 0)
(1.42558e-05 4.82222e-06 0)
(1.27056e-05 4.74445e-06 0)
(1.1184e-05 4.62578e-06 0)
(9.70397e-06 4.4633e-06 0)
(8.27905e-06 4.25436e-06 0)
(6.92311e-06 3.99679e-06 0)
(5.65032e-06 3.68911e-06 0)
(4.47509e-06 3.33093e-06 0)
(3.41152e-06 2.92358e-06 0)
(2.47277e-06 2.47121e-06 0)
(1.67066e-06 1.98238e-06 0)
(1.0148e-06 1.47169e-06 0)
(5.12641e-07 9.61493e-07 0)
(1.75413e-07 4.8609e-07 0)
(2.49949e-08 1.03354e-07 0)
(3.39377e-08 -3.44805e-07 0)
(2.22464e-07 -8.66819e-07 0)
(6.4717e-07 -1.4551e-06 0)
(1.25073e-06 -2.10059e-06 0)
(2.0131e-06 -2.74608e-06 0)
(2.92311e-06 -3.35551e-06 0)
(3.96707e-06 -3.90986e-06 0)
(5.13167e-06 -4.39811e-06 0)
(6.40078e-06 -4.81741e-06 0)
(7.7588e-06 -5.16742e-06 0)
(9.19054e-06 -5.44954e-06 0)
(1.06801e-05 -5.66723e-06 0)
(1.22126e-05 -5.82422e-06 0)
(1.37738e-05 -5.92428e-06 0)
(1.53501e-05 -5.97232e-06 0)
(1.69288e-05 -5.9725e-06 0)
(1.84983e-05 -5.92895e-06 0)
(2.00479e-05 -5.84601e-06 0)
(2.15677e-05 -5.72765e-06 0)
(2.30488e-05 -5.57772e-06 0)
(2.44833e-05 -5.40003e-06 0)
(2.58643e-05 -5.19794e-06 0)
(2.71854e-05 -4.97478e-06 0)
(2.84414e-05 -4.73371e-06 0)
(2.96277e-05 -4.47747e-06 0)
(3.07406e-05 -4.20887e-06 0)
(3.1777e-05 -3.93051e-06 0)
(3.27345e-05 -3.64473e-06 0)
(3.36113e-05 -3.35384e-06 0)
(3.44064e-05 -3.05987e-06 0)
(3.5119e-05 -2.76471e-06 0)
(3.57492e-05 -2.47026e-06 0)
(3.62973e-05 -2.17819e-06 0)
(3.67644e-05 -1.88984e-06 0)
(3.71516e-05 -1.60666e-06 0)
(3.74604e-05 -1.33008e-06 0)
(3.7693e-05 -1.06119e-06 0)
(3.78518e-05 -8.00912e-07 0)
(3.79393e-05 -5.50404e-07 0)
(3.79583e-05 -3.10543e-07 0)
(3.79122e-05 -8.18942e-08 0)
(3.78041e-05 1.34888e-07 0)
(3.76377e-05 3.39134e-07 0)
(3.74165e-05 5.30318e-07 0)
(3.71444e-05 7.08019e-07 0)
(3.68253e-05 8.71918e-07 0)
(3.64633e-05 1.02187e-06 0)
(3.60624e-05 1.15762e-06 0)
(3.56267e-05 1.27892e-06 0)
(3.51604e-05 1.38573e-06 0)
(3.46679e-05 1.47814e-06 0)
(3.41532e-05 1.55622e-06 0)
(3.36203e-05 1.61996e-06 0)
(3.30735e-05 1.66952e-06 0)
(3.25168e-05 1.70519e-06 0)
(3.19545e-05 1.72726e-06 0)
(3.13901e-05 1.73592e-06 0)
(3.08276e-05 1.73153e-06 0)
(3.02707e-05 1.71457e-06 0)
(2.97231e-05 1.68545e-06 0)
(2.91883e-05 1.64457e-06 0)
(2.86696e-05 1.59242e-06 0)
(2.81702e-05 1.52951e-06 0)
(2.76931e-05 1.45635e-06 0)
(2.72413e-05 1.37359e-06 0)
(2.68176e-05 1.28193e-06 0)
(2.64244e-05 1.18189e-06 0)
(2.6064e-05 1.07398e-06 0)
(2.57387e-05 9.58898e-07 0)
(2.54505e-05 8.37469e-07 0)
(2.52012e-05 7.10367e-07 0)
(2.49923e-05 5.78183e-07 0)
(2.48251e-05 4.41615e-07 0)
(2.47009e-05 3.01456e-07 0)