/*--------------------------------*- C++ -*----------------------------------*\
  =========                 |
  \\      /  F ield         | OpenFOAM: The Open Source CFD Toolbox
   \\    /   O peration     | Website:  https://openfoam.org
    \\  /    A nd           | Version:  7
     \\/     M anipulation  |
\*---------------------------------------------------------------------------*/
FoamFile
{
    version     2.0;
    format      ascii;
    class       volScalarField;
    location    "0.325";
    object      p;
}
// * * * * * * * * * * * * * * * * * * * * * * * * * * * * * * * * * * * * * //

dimensions      [0 2 -2 0 0 0 0];

internalField   nonuniform List<scalar> 
51200
(
-1.49394e-08
2.19411e-06
5.4474e-06
8.53416e-06
1.09762e-05
1.29621e-05
1.45859e-05
1.5913e-05
1.69854e-05
1.78349e-05
1.84859e-05
1.8958e-05
1.92714e-05
1.94408e-05
1.94769e-05
1.93894e-05
1.9187e-05
1.88787e-05
1.84768e-05
1.79872e-05
1.74129e-05
1.67622e-05
1.6043e-05
1.52605e-05
1.44204e-05
1.35283e-05
1.25898e-05
1.1611e-05
1.0597e-05
9.55097e-06
8.47398e-06
7.36804e-06
6.23901e-06
5.09169e-06
3.9268e-06
2.74474e-06
1.5466e-06
3.3345e-07
-8.91722e-07
-2.12496e-06
-3.36285e-06
-4.60315e-06
-5.84521e-06
-7.08713e-06
-8.32553e-06
-9.55921e-06
-1.07894e-05
-1.20166e-05
-1.32393e-05
-1.44561e-05
-1.56675e-05
-1.68745e-05
-1.80764e-05
-1.92712e-05
-2.04595e-05
-2.16422e-05
-2.2818e-05
-2.39845e-05
-2.51403e-05
-2.6287e-05
-2.74276e-05
-2.85626e-05
-2.96908e-05
-3.08123e-05
-3.19282e-05
-3.30384e-05
-3.41425e-05
-3.52421e-05
-3.63395e-05
-3.74349e-05
-3.85259e-05
-3.96105e-05
-4.06899e-05
-4.17679e-05
-4.28476e-05
-4.39299e-05
-4.50139e-05
-4.6099e-05
-4.71863e-05
-4.82771e-05
-4.93717e-05
-5.04708e-05
-5.15749e-05
-5.26844e-05
-5.37989e-05
-5.49192e-05
-5.60475e-05
-5.71862e-05
-5.83355e-05
-5.94942e-05
-6.06623e-05
-6.18408e-05
-6.30309e-05
-6.42329e-05
-6.54468e-05
-6.66737e-05
-6.79149e-05
-6.91704e-05
-7.04393e-05
-7.17201e-05
-7.30124e-05
-7.4318e-05
-7.5639e-05
-7.69769e-05
-7.83308e-05
-7.96987e-05
-8.1079e-05
-8.24712e-05
-8.38757e-05
-8.52936e-05
-8.6724e-05
-8.81651e-05
-8.96154e-05
-9.10741e-05
-9.25416e-05
-9.40187e-05
-9.55031e-05
-9.69918e-05
-9.84832e-05
-9.99765e-05
-0.000101471
-0.000102965
-0.000104455
-0.00010594
-0.000107417
-0.000108886
-0.000110342
-0.000111783
-0.000113204
-0.000114605
-0.000115985
-0.00011734
-0.000118666
-0.000119959
-0.000121216
-0.000122435
-0.000123611
-0.000124739
-0.000125818
-0.000126846
-0.000127818
-0.000128725
-0.000129565
-0.000130337
-0.000131039
-0.000131667
-0.000132217
-0.000132685
-0.000133069
-0.00013337
-0.000133587
-0.000133717
-0.000133761
-0.000133725
-0.000133615
-0.000133445
-0.000133236
-0.000133019
-0.000132838
-0.000132742
1.97266e-06
4.10844e-06
6.71149e-06
9.1816e-06
1.12872e-05
1.30507e-05
1.45212e-05
1.57402e-05
1.67382e-05
1.75416e-05
1.8165e-05
1.86259e-05
1.89388e-05
1.9114e-05
1.9164e-05
1.90959e-05
1.89156e-05
1.86338e-05
1.82607e-05
1.78017e-05
1.72629e-05
1.66498e-05
1.59674e-05
1.52235e-05
1.44244e-05
1.35735e-05
1.26756e-05
1.17362e-05
1.07603e-05
9.75124e-06
8.71082e-06
7.641e-06
6.54538e-06
5.42748e-06
4.2902e-06
3.13582e-06
1.96527e-06
7.78353e-07
-4.23471e-07
-1.63619e-06
-2.85523e-06
-4.0781e-06
-5.30431e-06
-6.53173e-06
-7.7576e-06
-8.98179e-06
-1.02053e-05
-1.14277e-05
-1.26477e-05
-1.38642e-05
-1.50776e-05
-1.62882e-05
-1.74944e-05
-1.8695e-05
-1.98909e-05
-2.10834e-05
-2.22714e-05
-2.34525e-05
-2.46248e-05
-2.57893e-05
-2.69483e-05
-2.81011e-05
-2.9247e-05
-3.03886e-05
-3.15282e-05
-3.26655e-05
-3.37979e-05
-3.49242e-05
-3.60466e-05
-3.71682e-05
-3.82887e-05
-3.94048e-05
-4.05152e-05
-4.16232e-05
-4.2733e-05
-4.38459e-05
-4.49605e-05
-4.60764e-05
-4.71953e-05
-4.83187e-05
-4.94463e-05
-5.05768e-05
-5.17105e-05
-5.28493e-05
-5.39948e-05
-5.51473e-05
-5.63063e-05
-5.74723e-05
-5.86467e-05
-5.98309e-05
-6.10256e-05
-6.22307e-05
-6.34453e-05
-6.46697e-05
-6.59047e-05
-6.71521e-05
-6.84128e-05
-6.96864e-05
-7.09717e-05
-7.22671e-05
-7.35726e-05
-7.489e-05
-7.62213e-05
-7.75672e-05
-7.89268e-05
-8.02987e-05
-8.16821e-05
-8.30768e-05
-8.44818e-05
-8.58967e-05
-8.73213e-05
-8.87549e-05
-9.01971e-05
-9.16467e-05
-9.31026e-05
-9.45648e-05
-9.60325e-05
-9.75029e-05
-9.89738e-05
-0.000100445
-0.000101915
-0.000103385
-0.00010485
-0.000106307
-0.000107752
-0.000109186
-0.000110607
-0.000112014
-0.000113402
-0.000114768
-0.000116109
-0.000117423
-0.000118708
-0.00011996
-0.000121178
-0.000122359
-0.000123497
-0.000124587
-0.000125625
-0.000126612
-0.000127546
-0.000128421
-0.000129231
-0.000129974
-0.000130649
-0.000131254
-0.000131786
-0.000132243
-0.000132621
-0.000132923
-0.000133146
-0.000133292
-0.000133362
-0.00013336
-0.000133296
-0.000133183
-0.000133035
-0.000132877
-0.000132736
-0.000132641
4.86248e-06
6.4293e-06
8.26276e-06
1.01494e-05
1.18844e-05
1.34049e-05
1.47085e-05
1.58078e-05
1.67211e-05
1.74622e-05
1.80465e-05
1.8484e-05
1.8782e-05
1.89531e-05
1.90053e-05
1.89448e-05
1.8779e-05
1.8515e-05
1.81598e-05
1.7723e-05
1.72095e-05
1.66219e-05
1.59668e-05
1.52506e-05
1.44798e-05
1.366e-05
1.27941e-05
1.18857e-05
1.09393e-05
9.95828e-06
8.94593e-06
7.90519e-06
6.83741e-06
5.74454e-06
4.62999e-06
3.49687e-06
2.34719e-06
1.18037e-06
-2.96457e-09
-1.19859e-06
-2.40269e-06
-3.61325e-06
-4.82816e-06
-6.0446e-06
-7.2613e-06
-8.47888e-06
-9.69763e-06
-1.09161e-05
-1.21333e-05
-1.33497e-05
-1.45657e-05
-1.57796e-05
-1.69897e-05
-1.81959e-05
-1.93992e-05
-2.06003e-05
-2.17979e-05
-2.29903e-05
-2.41772e-05
-2.53585e-05
-2.65338e-05
-2.77023e-05
-2.88649e-05
-3.00246e-05
-3.11837e-05
-3.23422e-05
-3.34981e-05
-3.46488e-05
-3.57949e-05
-3.69393e-05
-3.80827e-05
-3.9223e-05
-4.03595e-05
-4.14948e-05
-4.26322e-05
-4.37722e-05
-4.49138e-05
-4.60566e-05
-4.72025e-05
-4.83535e-05
-4.95089e-05
-5.06663e-05
-5.18252e-05
-5.29883e-05
-5.41594e-05
-5.53395e-05
-5.6526e-05
-5.77169e-05
-5.8914e-05
-6.01204e-05
-6.13378e-05
-6.25652e-05
-6.38008e-05
-6.50447e-05
-6.62987e-05
-6.75643e-05
-6.88423e-05
-7.01318e-05
-7.1431e-05
-7.2739e-05
-7.40563e-05
-7.53849e-05
-7.67264e-05
-7.80806e-05
-7.94461e-05
-8.08219e-05
-8.22078e-05
-8.36044e-05
-8.50108e-05
-8.64252e-05
-8.78462e-05
-8.92739e-05
-9.0709e-05
-9.21517e-05
-9.36001e-05
-9.50523e-05
-9.65067e-05
-9.7962e-05
-9.94167e-05
-0.00010087
-0.000102322
-0.000103771
-0.000105215
-0.00010665
-0.000108072
-0.000109479
-0.000110872
-0.00011225
-0.00011361
-0.000114947
-0.000116257
-0.00011754
-0.000118793
-0.000120014
-0.0001212
-0.000122348
-0.000123455
-0.000124515
-0.000125524
-0.000126479
-0.000127382
-0.000128231
-0.000129019
-0.000129741
-0.000130395
-0.000130981
-0.000131498
-0.000131946
-0.000132321
-0.000132623
-0.000132852
-0.000133008
-0.000133093
-0.000133113
-0.000133077
-0.000132996
-0.00013288
-0.000132746
-0.000132603
-0.000132465
7.54466e-06
8.60763e-06
9.90183e-06
1.13106e-05
1.26985e-05
1.39733e-05
1.5101e-05
1.60748e-05
1.68925e-05
1.75642e-05
1.80985e-05
1.85e-05
1.87762e-05
1.89333e-05
1.89759e-05
1.89141e-05
1.87545e-05
1.84996e-05
1.81576e-05
1.77361e-05
1.72386e-05
1.66708e-05
1.60373e-05
1.53422e-05
1.45929e-05
1.37956e-05
1.29534e-05
1.20699e-05
1.11475e-05
1.01883e-05
9.19712e-06
8.17809e-06
7.13239e-06
6.06104e-06
4.96645e-06
3.85124e-06
2.7172e-06
1.56488e-06
3.96495e-07
-7.84336e-07
-1.97593e-06
-3.17609e-06
-4.38099e-06
-5.58829e-06
-6.798e-06
-8.01125e-06
-9.2269e-06
-1.04427e-05
-1.16586e-05
-1.28759e-05
-1.40944e-05
-1.53115e-05
-1.6526e-05
-1.77392e-05
-1.89514e-05
-2.01614e-05
-2.13667e-05
-2.25679e-05
-2.37667e-05
-2.49621e-05
-2.61519e-05
-2.73357e-05
-2.85157e-05
-2.96938e-05
-3.0871e-05
-3.2047e-05
-3.32215e-05
-3.4394e-05
-3.55641e-05
-3.67314e-05
-3.78955e-05
-3.90566e-05
-4.02161e-05
-4.13764e-05
-4.25387e-05
-4.37028e-05
-4.48685e-05
-4.60364e-05
-4.72075e-05
-4.83832e-05
-4.95631e-05
-5.07452e-05
-5.19287e-05
-5.31156e-05
-5.43094e-05
-5.55121e-05
-5.67216e-05
-5.79358e-05
-5.91556e-05
-6.03838e-05
-6.16218e-05
-6.28686e-05
-6.41229e-05
-6.53851e-05
-6.66571e-05
-6.79406e-05
-6.92354e-05
-7.05397e-05
-7.18517e-05
-7.31709e-05
-7.44992e-05
-7.58388e-05
-7.71903e-05
-7.85529e-05
-7.99249e-05
-8.13054e-05
-8.26947e-05
-8.40932e-05
-8.55007e-05
-8.69154e-05
-8.83353e-05
-8.97598e-05
-9.11899e-05
-9.26263e-05
-9.40684e-05
-9.55131e-05
-9.69574e-05
-9.84006e-05
-9.98424e-05
-0.000101282
-0.000102719
-0.000104151
-0.000105576
-0.000106991
-0.000108394
-0.000109782
-0.000111152
-0.000112506
-0.000113841
-0.000115153
-0.000116438
-0.000117695
-0.000118922
-0.000120119
-0.000121279
-0.000122399
-0.000123478
-0.000124513
-0.000125498
-0.00012643
-0.000127309
-0.000128134
-0.000128902
-0.000129608
-0.000130248
-0.000130819
-0.000131324
-0.000131763
-0.000132134
-0.000132436
-0.000132668
-0.000132831
-0.000132927
-0.000132959
-0.000132936
-0.000132868
-0.000132763
-0.000132631
-0.000132465
-0.000132266
9.62962e-06
1.04693e-05
1.14472e-05
1.25247e-05
1.36287e-05
1.46797e-05
1.56384e-05
1.64821e-05
1.72034e-05
1.78011e-05
1.82765e-05
1.86358e-05
1.8883e-05
1.90185e-05
1.90478e-05
1.89784e-05
1.88158e-05
1.85654e-05
1.82321e-05
1.78197e-05
1.73341e-05
1.67809e-05
1.61641e-05
1.54881e-05
1.47583e-05
1.39797e-05
1.31571e-05
1.22941e-05
1.13924e-05
1.04537e-05
9.48191e-06
8.48088e-06
7.45298e-06
6.39998e-06
5.32397e-06
4.22544e-06
3.10499e-06
1.96532e-06
8.09921e-07
-3.59057e-07
-1.54029e-06
-2.73081e-06
-3.92659e-06
-5.1263e-06
-6.33087e-06
-7.54028e-06
-8.75272e-06
-9.96709e-06
-1.11837e-05
-1.24029e-05
-1.36237e-05
-1.48434e-05
-1.60624e-05
-1.72827e-05
-1.85038e-05
-1.97232e-05
-2.09385e-05
-2.21505e-05
-2.33611e-05
-2.45689e-05
-2.57716e-05
-2.69703e-05
-2.81676e-05
-2.93652e-05
-3.05617e-05
-3.17557e-05
-3.29478e-05
-3.41402e-05
-3.53329e-05
-3.65229e-05
-3.77083e-05
-3.88907e-05
-4.00736e-05
-4.12586e-05
-4.24452e-05
-4.36327e-05
-4.4822e-05
-4.60149e-05
-4.72116e-05
-4.84114e-05
-4.96138e-05
-5.08187e-05
-5.2027e-05
-5.32398e-05
-5.44582e-05
-5.56827e-05
-5.69131e-05
-5.81495e-05
-5.93925e-05
-6.06433e-05
-6.1902e-05
-6.31678e-05
-6.44404e-05
-6.57209e-05
-6.70112e-05
-6.83127e-05
-6.96244e-05
-7.09437e-05
-7.2269e-05
-7.36005e-05
-7.49406e-05
-7.62915e-05
-7.76527e-05
-7.90234e-05
-8.04024e-05
-8.17889e-05
-8.31832e-05
-8.45849e-05
-8.59935e-05
-8.74082e-05
-8.88277e-05
-9.02509e-05
-9.16784e-05
-9.31103e-05
-9.45462e-05
-9.59837e-05
-9.74193e-05
-9.88517e-05
-0.000100282
-0.00010171
-0.000103134
-0.000104551
-0.00010596
-0.000107356
-0.00010874
-0.00011011
-0.000111461
-0.000112794
-0.000114106
-0.000115395
-0.000116657
-0.000117891
-0.000119094
-0.000120267
-0.000121405
-0.000122502
-0.000123555
-0.000124564
-0.000125527
-0.000126439
-0.000127299
-0.000128105
-0.000128854
-0.000129543
-0.000130169
-0.00013073
-0.000131225
-0.000131656
-0.000132022
-0.000132323
-0.000132557
-0.000132724
-0.000132827
-0.000132868
-0.000132852
-0.000132787
-0.000132681
-0.00013254
-0.000132346
-0.000132086
1.1356e-05
1.20757e-05
1.28659e-05
1.3721e-05
1.46107e-05
1.54792e-05
1.62844e-05
1.70059e-05
1.76324e-05
1.81542e-05
1.85699e-05
1.88828e-05
1.90923e-05
1.92022e-05
1.9215e-05
1.9133e-05
1.89635e-05
1.87124e-05
1.83815e-05
1.79751e-05
1.74979e-05
1.69538e-05
1.63489e-05
1.56877e-05
1.49742e-05
1.42124e-05
1.34061e-05
1.25587e-05
1.16734e-05
1.07527e-05
9.79845e-06
8.81338e-06
7.80035e-06
6.76232e-06
5.70127e-06
4.61638e-06
3.50843e-06
2.38101e-06
1.23662e-06
7.70692e-08
-1.09528e-06
-2.27676e-06
-3.46476e-06
-4.65932e-06
-5.86035e-06
-7.06635e-06
-8.27621e-06
-9.4903e-06
-1.07089e-05
-1.19309e-05
-1.31543e-05
-1.43781e-05
-1.56032e-05
-1.68305e-05
-1.80587e-05
-1.9286e-05
-2.05121e-05
-2.17368e-05
-2.29599e-05
-2.418e-05
-2.5396e-05
-2.66095e-05
-2.78232e-05
-2.90385e-05
-3.02538e-05
-3.14671e-05
-3.26788e-05
-3.38911e-05
-3.51039e-05
-3.63145e-05
-3.75211e-05
-3.87258e-05
-3.99319e-05
-4.11405e-05
-4.23506e-05
-4.35613e-05
-4.47742e-05
-4.59915e-05
-4.72134e-05
-4.84376e-05
-4.96625e-05
-5.08891e-05
-5.21205e-05
-5.33583e-05
-5.46018e-05
-5.58491e-05
-5.71006e-05
-5.83584e-05
-5.96239e-05
-6.08968e-05
-6.21761e-05
-6.34609e-05
-6.47519e-05
-6.60512e-05
-6.73603e-05
-6.86797e-05
-7.00075e-05
-7.13411e-05
-7.26799e-05
-7.40249e-05
-7.5378e-05
-7.67406e-05
-7.81119e-05
-7.94907e-05
-8.08768e-05
-8.22699e-05
-8.36703e-05
-8.50769e-05
-8.64879e-05
-8.7903e-05
-8.9322e-05
-9.07446e-05
-9.21711e-05
-9.36006e-05
-9.50317e-05
-9.64626e-05
-9.78908e-05
-9.93147e-05
-0.000100735
-0.000102152
-0.000103564
-0.000104969
-0.000106363
-0.000107744
-0.000109111
-0.000110463
-0.000111797
-0.000113112
-0.000114404
-0.000115672
-0.000116913
-0.000118126
-0.000119309
-0.00012046
-0.000121577
-0.000122654
-0.000123686
-0.000124672
-0.000125613
-0.000126507
-0.000127351
-0.000128141
-0.000128874
-0.000129547
-0.00013016
-0.00013071
-0.000131197
-0.000131623
-0.000131986
-0.000132285
-0.000132519
-0.000132688
-0.000132793
-0.000132838
-0.000132827
-0.000132761
-0.000132648
-0.000132492
-0.000132267
-0.000131952
1.28561e-05
1.35068e-05
1.41796e-05
1.48826e-05
1.56168e-05
1.63385e-05
1.70149e-05
1.76281e-05
1.81629e-05
1.86117e-05
1.89697e-05
1.92326e-05
1.94021e-05
1.94821e-05
1.94723e-05
1.93752e-05
1.9196e-05
1.89383e-05
1.86049e-05
1.82005e-05
1.77278e-05
1.71904e-05
1.65936e-05
1.59425e-05
1.52411e-05
1.4493e-05
1.37003e-05
1.28656e-05
1.1993e-05
1.10859e-05
1.01459e-05
9.17465e-06
8.17521e-06
7.14984e-06
6.09955e-06
5.02487e-06
3.92759e-06
2.81054e-06
1.67489e-06
5.22754e-07
-6.41615e-07
-1.81524e-06
-2.99753e-06
-4.1885e-06
-5.38679e-06
-6.59052e-06
-7.79939e-06
-9.01446e-06
-1.02356e-05
-1.146e-05
-1.26863e-05
-1.39157e-05
-1.51486e-05
-1.63839e-05
-1.76192e-05
-1.88544e-05
-2.00909e-05
-2.13279e-05
-2.2563e-05
-2.37952e-05
-2.50254e-05
-2.62552e-05
-2.74857e-05
-2.8717e-05
-2.99488e-05
-3.1181e-05
-3.24137e-05
-3.36465e-05
-3.48784e-05
-3.61079e-05
-3.73354e-05
-3.85626e-05
-3.97916e-05
-4.10227e-05
-4.22552e-05
-4.34891e-05
-4.47255e-05
-4.59664e-05
-4.72118e-05
-4.84594e-05
-4.97075e-05
-5.0957e-05
-5.22112e-05
-5.34721e-05
-5.47387e-05
-5.60089e-05
-5.72826e-05
-5.85622e-05
-5.98493e-05
-6.1143e-05
-6.24421e-05
-6.37458e-05
-6.50555e-05
-6.63739e-05
-6.77021e-05
-6.90392e-05
-7.03829e-05
-7.17306e-05
-7.30827e-05
-7.44413e-05
-7.58078e-05
-7.71827e-05
-7.85646e-05
-7.99525e-05
-8.13464e-05
-8.27466e-05
-8.41532e-05
-8.55652e-05
-8.69803e-05
-8.83974e-05
-8.98168e-05
-9.12394e-05
-9.26655e-05
-9.40937e-05
-9.55216e-05
-9.69472e-05
-9.83692e-05
-9.97868e-05
-0.0001012
-0.000102608
-0.000104009
-0.000105402
-0.000106784
-0.000108152
-0.000109504
-0.000110841
-0.000112159
-0.000113458
-0.000114733
-0.000115982
-0.000117205
-0.000118401
-0.000119566
-0.000120697
-0.000121794
-0.000122852
-0.000123867
-0.000124836
-0.000125758
-0.000126635
-0.000127464
-0.00012824
-0.00012896
-0.00012962
-0.000130221
-0.000130762
-0.000131243
-0.000131664
-0.000132024
-0.000132322
-0.000132556
-0.000132724
-0.00013283
-0.000132876
-0.000132864
-0.000132795
-0.000132673
-0.000132501
-0.000132247
-0.000131883
1.422e-05
1.48261e-05
1.54198e-05
1.60182e-05
1.66336e-05
1.72406e-05
1.78129e-05
1.83297e-05
1.87819e-05
1.9162e-05
1.94609e-05
1.96755e-05
1.98055e-05
1.98515e-05
1.98162e-05
1.97016e-05
1.95091e-05
1.92414e-05
1.89023e-05
1.84947e-05
1.80224e-05
1.74889e-05
1.68977e-05
1.62534e-05
1.55602e-05
1.48213e-05
1.40389e-05
1.3215e-05
1.23528e-05
1.14557e-05
1.05258e-05
9.56563e-06
8.5778e-06
7.5625e-06
6.52051e-06
5.45391e-06
4.36515e-06
3.25562e-06
2.12634e-06
9.80764e-07
-1.76866e-07
-1.34503e-06
-2.52358e-06
-3.71177e-06
-4.90784e-06
-6.11069e-06
-7.32065e-06
-8.53824e-06
-9.76212e-06
-1.09894e-05
-1.22197e-05
-1.34552e-05
-1.46956e-05
-1.59388e-05
-1.71826e-05
-1.84275e-05
-1.96749e-05
-2.09232e-05
-2.21696e-05
-2.34138e-05
-2.46582e-05
-2.59047e-05
-2.71526e-05
-2.84003e-05
-2.96482e-05
-3.08984e-05
-3.21512e-05
-3.34042e-05
-3.46548e-05
-3.5903e-05
-3.71511e-05
-3.84007e-05
-3.96521e-05
-4.09047e-05
-4.21588e-05
-4.34157e-05
-4.46762e-05
-4.59404e-05
-4.72078e-05
-4.84769e-05
-4.97477e-05
-5.10212e-05
-5.22992e-05
-5.35825e-05
-5.48703e-05
-5.61623e-05
-5.74586e-05
-5.87607e-05
-6.00691e-05
-6.13829e-05
-6.2701e-05
-6.40235e-05
-6.53521e-05
-6.66896e-05
-6.80365e-05
-6.93909e-05
-7.07502e-05
-7.21125e-05
-7.34787e-05
-7.48511e-05
-7.6231e-05
-7.76179e-05
-7.90107e-05
-8.04087e-05
-8.18118e-05
-8.32202e-05
-8.46335e-05
-8.60509e-05
-8.74704e-05
-8.8891e-05
-9.03125e-05
-9.17362e-05
-9.31628e-05
-9.45905e-05
-9.60162e-05
-9.74382e-05
-9.88553e-05
-0.000100268
-0.000101676
-0.000103077
-0.00010447
-0.000105852
-0.000107223
-0.000108579
-0.00010992
-0.000111243
-0.000112548
-0.000113833
-0.000115093
-0.000116327
-0.000117533
-0.000118713
-0.000119863
-0.000120979
-0.000122058
-0.000123098
-0.000124097
-0.000125052
-0.00012596
-0.000126822
-0.000127636
-0.0001284
-0.000129108
-0.000129758
-0.00013035
-0.000130884
-0.00013136
-0.000131777
-0.000132135
-0.000132431
-0.000132664
-0.000132832
-0.000132938
-0.000132982
-0.000132968
-0.000132894
-0.000132763
-0.000132575
-0.000132295
-0.000131892
1.55031e-05
1.60777e-05
1.66166e-05
1.7137e-05
1.76639e-05
1.81798e-05
1.86636e-05
1.91001e-05
1.94792e-05
1.97928e-05
2.00351e-05
2.02031e-05
2.02931e-05
2.03051e-05
2.02431e-05
2.01074e-05
1.98982e-05
1.96189e-05
1.9271e-05
1.88572e-05
1.83818e-05
1.78483e-05
1.726e-05
1.66203e-05
1.59321e-05
1.51986e-05
1.44227e-05
1.3607e-05
1.2753e-05
1.18634e-05
1.0941e-05
9.98898e-06
9.00907e-06
8.00074e-06
6.96514e-06
5.90535e-06
4.82247e-06
3.71753e-06
2.59334e-06
1.45351e-06
3.00643e-07
-8.6446e-07
-2.04095e-06
-3.22723e-06
-4.42196e-06
-5.6254e-06
-6.83809e-06
-8.05885e-06
-9.28557e-06
-1.05171e-05
-1.17539e-05
-1.29965e-05
-1.42436e-05
-1.54939e-05
-1.67471e-05
-1.8003e-05
-1.92616e-05
-2.05209e-05
-2.17789e-05
-2.30361e-05
-2.42948e-05
-2.55568e-05
-2.68212e-05
-2.8086e-05
-2.93514e-05
-3.06199e-05
-3.18914e-05
-3.3163e-05
-3.44321e-05
-3.56996e-05
-3.69684e-05
-3.82396e-05
-3.95125e-05
-4.07863e-05
-4.20617e-05
-4.33412e-05
-4.46255e-05
-4.59132e-05
-4.72021e-05
-4.84918e-05
-4.97843e-05
-5.10815e-05
-5.23834e-05
-5.36891e-05
-5.49979e-05
-5.63109e-05
-5.76294e-05
-5.89538e-05
-6.02833e-05
-6.16166e-05
-6.29533e-05
-6.42946e-05
-6.56429e-05
-6.69998e-05
-6.83647e-05
-6.97354e-05
-7.11096e-05
-7.24869e-05
-7.38683e-05
-7.52553e-05
-7.66486e-05
-7.80476e-05
-7.94512e-05
-8.08597e-05
-8.22732e-05
-8.36909e-05
-8.5112e-05
-8.65353e-05
-8.79593e-05
-8.93839e-05
-9.08091e-05
-9.22354e-05
-9.36635e-05
-9.50915e-05
-9.65163e-05
-9.79362e-05
-9.93505e-05
-0.000100759
-0.000102163
-0.000103559
-0.000104945
-0.000106319
-0.000107679
-0.000109025
-0.000110357
-0.00011167
-0.000112964
-0.000114236
-0.000115484
-0.000116704
-0.000117896
-0.000119061
-0.000120197
-0.000121301
-0.000122366
-0.000123391
-0.000124375
-0.000125317
-0.000126215
-0.000127065
-0.000127867
-0.000128619
-0.000129316
-0.000129959
-0.000130544
-0.000131073
-0.000131546
-0.00013196
-0.000132315
-0.000132609
-0.00013284
-0.000133009
-0.000133114
-0.000133158
-0.00013314
-0.000133061
-0.000132921
-0.000132719
-0.000132418
-0.000131985
1.67459e-05
1.72967e-05
1.77904e-05
1.82539e-05
1.87132e-05
1.91532e-05
1.95631e-05
1.99313e-05
2.02447e-05
2.04976e-05
2.06869e-05
2.08084e-05
2.08589e-05
2.08386e-05
2.07488e-05
2.05891e-05
2.03611e-05
2.00671e-05
1.97081e-05
1.92864e-05
1.88056e-05
1.82691e-05
1.76805e-05
1.70424e-05
1.63567e-05
1.56258e-05
1.48535e-05
1.40422e-05
1.31933e-05
1.23092e-05
1.1393e-05
1.04465e-05
9.47072e-06
8.46637e-06
7.43559e-06
6.38017e-06
5.30026e-06
4.19823e-06
3.07806e-06
1.94232e-06
7.92177e-07
-3.71631e-07
-1.54735e-06
-2.73291e-06
-3.92815e-06
-5.13421e-06
-6.35062e-06
-7.57456e-06
-8.80461e-06
-1.00418e-05
-1.12864e-05
-1.25369e-05
-1.37914e-05
-1.50495e-05
-1.63126e-05
-1.75798e-05
-1.88492e-05
-2.0119e-05
-2.13891e-05
-2.26608e-05
-2.39351e-05
-2.5212e-05
-2.64912e-05
-2.77728e-05
-2.90573e-05
-3.03447e-05
-3.16338e-05
-3.29226e-05
-3.42101e-05
-3.54976e-05
-3.6787e-05
-3.80789e-05
-3.93726e-05
-4.06675e-05
-4.19647e-05
-4.32665e-05
-4.45735e-05
-4.58834e-05
-4.71939e-05
-4.8505e-05
-4.98192e-05
-5.11389e-05
-5.24635e-05
-5.37913e-05
-5.51216e-05
-5.64561e-05
-5.77963e-05
-5.91422e-05
-6.04921e-05
-6.18444e-05
-6.31997e-05
-6.456e-05
-6.59281e-05
-6.73045e-05
-6.86872e-05
-7.00739e-05
-7.1463e-05
-7.28551e-05
-7.4252e-05
-7.56541e-05
-7.70612e-05
-7.84728e-05
-7.9888e-05
-8.13072e-05
-8.27312e-05
-8.4159e-05
-8.55888e-05
-8.7019e-05
-8.84483e-05
-8.98775e-05
-9.13073e-05
-9.27379e-05
-9.41684e-05
-9.55972e-05
-9.70219e-05
-9.84412e-05
-9.98546e-05
-0.000101262
-0.000102662
-0.000104053
-0.000105434
-0.000106801
-0.000108154
-0.000109492
-0.000110815
-0.000112121
-0.000113405
-0.000114667
-0.000115903
-0.000117112
-0.000118294
-0.000119447
-0.00012057
-0.000121661
-0.000122716
-0.00012373
-0.000124702
-0.000125632
-0.000126519
-0.00012736
-0.000128153
-0.000128895
-0.000129584
-0.00013022
-0.000130801
-0.000131327
-0.000131797
-0.000132209
-0.000132561
-0.000132853
-0.000133084
-0.000133252
-0.000133357
-0.000133401
-0.000133381
-0.000133296
-0.000133149
-0.000132936
-0.000132619
-0.000132165
1.79767e-05
1.85047e-05
1.89628e-05
1.93804e-05
1.9784e-05
2.01631e-05
2.05106e-05
2.08161e-05
2.10713e-05
2.12709e-05
2.14098e-05
2.14862e-05
2.14994e-05
2.14471e-05
2.13285e-05
2.11446e-05
2.08961e-05
2.05843e-05
2.02119e-05
1.97803e-05
1.92922e-05
1.87508e-05
1.8159e-05
1.75193e-05
1.68334e-05
1.61034e-05
1.53321e-05
1.4522e-05
1.3675e-05
1.27941e-05
1.18817e-05
1.09378e-05
9.9636e-06
8.96168e-06
7.9333e-06
6.87906e-06
5.8002e-06
4.70003e-06
3.58221e-06
2.4482e-06
1.29874e-06
1.35202e-07
-1.04036e-06
-2.22686e-06
-3.42497e-06
-4.63515e-06
-5.85574e-06
-7.08385e-06
-8.31919e-06
-9.5633e-06
-1.08156e-05
-1.2074e-05
-1.33369e-05
-1.46046e-05
-1.58783e-05
-1.71568e-05
-1.84367e-05
-1.97171e-05
-2.09998e-05
-2.22865e-05
-2.35768e-05
-2.4869e-05
-2.61633e-05
-2.74616e-05
-2.87649e-05
-3.0071e-05
-3.13773e-05
-3.2683e-05
-3.39889e-05
-3.52966e-05
-3.66067e-05
-3.79186e-05
-3.92321e-05
-4.05483e-05
-4.1868e-05
-4.31924e-05
-4.45209e-05
-4.58515e-05
-4.71829e-05
-4.85161e-05
-4.9853e-05
-5.11946e-05
-5.25402e-05
-5.38891e-05
-5.52413e-05
-5.65979e-05
-5.79598e-05
-5.93265e-05
-6.06961e-05
-6.20673e-05
-6.34414e-05
-6.48211e-05
-6.62087e-05
-6.7604e-05
-6.90043e-05
-7.0407e-05
-7.18117e-05
-7.32192e-05
-7.46315e-05
-7.60486e-05
-7.74695e-05
-7.8894e-05
-8.03217e-05
-8.17527e-05
-8.31876e-05
-8.46255e-05
-8.60643e-05
-8.75019e-05
-8.89377e-05
-9.03727e-05
-9.18081e-05
-9.32438e-05
-9.4678e-05
-9.61084e-05
-9.75337e-05
-9.89537e-05
-0.000100367
-0.000101774
-0.000103173
-0.000104561
-0.000105936
-0.000107298
-0.000108646
-0.000109978
-0.000111295
-0.000112594
-0.000113871
-0.000115124
-0.00011635
-0.00011755
-0.000118723
-0.000119867
-0.00012098
-0.00012206
-0.000123105
-0.00012411
-0.000125073
-0.000125993
-0.000126871
-0.000127704
-0.00012849
-0.000129225
-0.000129909
-0.00013054
-0.000131117
-0.00013164
-0.000132108
-0.000132519
-0.00013287
-0.000133161
-0.000133391
-0.00013356
-0.000133666
-0.00013371
-0.000133689
-0.000133601
-0.000133448
-0.000133227
-0.000132899
-0.000132431
1.92125e-05
1.97221e-05
2.01492e-05
2.05244e-05
2.08822e-05
2.12116e-05
2.15032e-05
2.17533e-05
2.19567e-05
2.21069e-05
2.21997e-05
2.22349e-05
2.22111e-05
2.21257e-05
2.19784e-05
2.17701e-05
2.14999e-05
2.11696e-05
2.07817e-05
2.03381e-05
1.98408e-05
1.92927e-05
1.86951e-05
1.80507e-05
1.73621e-05
1.66305e-05
1.58582e-05
1.50471e-05
1.42e-05
1.33198e-05
1.24076e-05
1.14632e-05
1.04891e-05
9.4876e-06
8.45853e-06
7.4032e-06
6.32438e-06
5.22498e-06
4.10745e-06
2.97273e-06
1.82205e-06
6.5771e-07
-5.18916e-07
-1.70849e-06
-2.91149e-06
-4.12635e-06
-5.35114e-06
-6.58501e-06
-7.8282e-06
-9.08051e-06
-1.03405e-05
-1.16068e-05
-1.28791e-05
-1.41578e-05
-1.54426e-05
-1.67317e-05
-1.80226e-05
-1.93152e-05
-2.06114e-05
-2.19127e-05
-2.32182e-05
-2.45262e-05
-2.5837e-05
-2.71528e-05
-2.8474e-05
-2.97977e-05
-3.1121e-05
-3.2444e-05
-3.37687e-05
-3.50965e-05
-3.64267e-05
-3.77583e-05
-3.90918e-05
-4.04291e-05
-4.17715e-05
-4.31185e-05
-4.44679e-05
-4.58182e-05
-4.71701e-05
-4.85254e-05
-4.98851e-05
-5.12484e-05
-5.26147e-05
-5.39842e-05
-5.53579e-05
-5.67367e-05
-5.81202e-05
-5.9507e-05
-6.08957e-05
-6.22857e-05
-6.36793e-05
-6.50791e-05
-6.64862e-05
-6.78996e-05
-6.93166e-05
-7.07355e-05
-7.21565e-05
-7.35803e-05
-7.50083e-05
-7.64402e-05
-7.78749e-05
-7.93123e-05
-8.07528e-05
-8.21967e-05
-8.36433e-05
-8.50914e-05
-8.65392e-05
-8.79849e-05
-8.94281e-05
-9.08704e-05
-9.23124e-05
-9.37534e-05
-9.51919e-05
-9.66254e-05
-9.80527e-05
-9.94741e-05
-0.000100889
-0.000102297
-0.000103695
-0.000105081
-0.000106452
-0.000107811
-0.000109155
-0.000110484
-0.000111796
-0.000113089
-0.00011436
-0.000115605
-0.000116824
-0.000118016
-0.000119182
-0.00012032
-0.000121425
-0.000122497
-0.000123532
-0.000124529
-0.000125485
-0.000126399
-0.000127269
-0.000128095
-0.000128876
-0.000129607
-0.000130286
-0.000130914
-0.000131489
-0.00013201
-0.000132477
-0.000132887
-0.000133238
-0.000133529
-0.000133761
-0.000133931
-0.000134039
-0.000134084
-0.000134063
-0.000133974
-0.000133817
-0.000133592
-0.000133258
-0.000132783
2.04669e-05
2.09598e-05
2.1358e-05
2.1697e-05
2.20136e-05
2.22966e-05
2.25405e-05
2.27422e-05
2.28973e-05
2.3002e-05
2.30539e-05
2.30506e-05
2.29903e-05
2.28723e-05
2.26962e-05
2.24617e-05
2.21694e-05
2.182e-05
2.14156e-05
2.09587e-05
2.04509e-05
1.98934e-05
1.92882e-05
1.86371e-05
1.79429e-05
1.7207e-05
1.64308e-05
1.56171e-05
1.47687e-05
1.38863e-05
1.29709e-05
1.20243e-05
1.10484e-05
1.00443e-05
9.012e-06
7.95405e-06
6.87398e-06
5.77375e-06
4.65443e-06
3.51722e-06
2.36437e-06
1.19793e-06
1.77867e-08
-1.17712e-06
-2.38601e-06
-3.60615e-06
-4.83636e-06
-6.07763e-06
-7.32982e-06
-8.59111e-06
-9.85956e-06
-1.11348e-05
-1.24177e-05
-1.37082e-05
-1.50041e-05
-1.63034e-05
-1.76058e-05
-1.89121e-05
-2.02232e-05
-2.1539e-05
-2.28588e-05
-2.41828e-05
-2.55116e-05
-2.68457e-05
-2.8184e-05
-2.95242e-05
-3.08645e-05
-3.22058e-05
-3.35498e-05
-3.48969e-05
-3.62466e-05
-3.75979e-05
-3.89519e-05
-4.03107e-05
-4.16753e-05
-4.3044e-05
-4.44139e-05
-4.57844e-05
-4.7157e-05
-4.85338e-05
-4.99153e-05
-5.12999e-05
-5.26869e-05
-5.40773e-05
-5.54726e-05
-5.68733e-05
-5.8278e-05
-5.96844e-05
-6.10915e-05
-6.25004e-05
-6.3914e-05
-6.53342e-05
-6.67609e-05
-6.81921e-05
-6.96256e-05
-7.10608e-05
-7.24983e-05
-7.39389e-05
-7.53828e-05
-7.68295e-05
-7.82782e-05
-7.9729e-05
-8.11826e-05
-8.26393e-05
-8.40983e-05
-8.5557e-05
-8.7014e-05
-8.84684e-05
-8.99202e-05
-9.13707e-05
-9.28202e-05
-9.42671e-05
-9.571e-05
-9.71474e-05
-9.85784e-05
-0.000100003
-0.00010142
-0.000102829
-0.000104227
-0.000105612
-0.000106983
-0.000108339
-0.00010968
-0.000111007
-0.000112316
-0.000113605
-0.00011487
-0.00011611
-0.000117324
-0.00011851
-0.00011967
-0.000120803
-0.000121903
-0.000122968
-0.000123996
-0.000124985
-0.000125936
-0.000126846
-0.000127712
-0.000128534
-0.00012931
-0.000130037
-0.000130714
-0.00013134
-0.000131914
-0.000132435
-0.000132901
-0.000133311
-0.000133663
-0.000133956
-0.00013419
-0.000134362
-0.000134473
-0.000134521
-0.000134502
-0.000134414
-0.000134257
-0.000134031
-0.000133697
-0.000133222
2.17496e-05
2.22226e-05
2.25972e-05
2.2904e-05
2.31802e-05
2.34221e-05
2.36241e-05
2.37813e-05
2.38921e-05
2.39556e-05
2.39688e-05
2.39284e-05
2.38337e-05
2.36844e-05
2.3479e-05
2.32183e-05
2.29031e-05
2.25335e-05
2.21122e-05
2.16407e-05
2.112e-05
2.05517e-05
1.9937e-05
1.92777e-05
1.85758e-05
1.78329e-05
1.70507e-05
1.62328e-05
1.53801e-05
1.44924e-05
1.35722e-05
1.26218e-05
1.16414e-05
1.06319e-05
9.59492e-06
8.53339e-06
7.45027e-06
6.34669e-06
5.2236e-06
4.08299e-06
2.92706e-06
1.75646e-06
5.70264e-07
-6.31358e-07
-1.84651e-06
-3.07315e-06
-4.31115e-06
-5.56141e-06
-6.82286e-06
-8.09335e-06
-9.37141e-06
-1.06573e-05
-1.1952e-05
-1.32544e-05
-1.45613e-05
-1.58714e-05
-1.71862e-05
-1.85071e-05
-1.98336e-05
-2.11642e-05
-2.24989e-05
-2.38392e-05
-2.51864e-05
-2.65388e-05
-2.78939e-05
-2.92502e-05
-3.06078e-05
-3.1968e-05
-3.33315e-05
-3.46977e-05
-3.60661e-05
-3.74373e-05
-3.88126e-05
-4.01935e-05
-4.15796e-05
-4.29685e-05
-4.43585e-05
-4.57497e-05
-4.71439e-05
-4.85421e-05
-4.99442e-05
-5.13491e-05
-5.27568e-05
-5.41686e-05
-5.55858e-05
-5.70081e-05
-5.84332e-05
-5.98587e-05
-6.12844e-05
-6.27125e-05
-6.41464e-05
-6.55869e-05
-6.70327e-05
-6.84814e-05
-6.99316e-05
-7.13836e-05
-7.28382e-05
-7.42955e-05
-7.57552e-05
-7.72167e-05
-7.86796e-05
-8.01444e-05
-8.16116e-05
-8.30813e-05
-8.45524e-05
-8.60222e-05
-8.74888e-05
-8.89526e-05
-9.0414e-05
-9.18738e-05
-9.33311e-05
-9.47844e-05
-9.62325e-05
-9.76744e-05
-9.911e-05
-0.000100539
-0.00010196
-0.00010337
-0.00010477
-0.000106155
-0.000107526
-0.000108882
-0.000110223
-0.000111548
-0.000112855
-0.00011414
-0.000115401
-0.000116638
-0.000117848
-0.000119032
-0.000120188
-0.000121316
-0.000122411
-0.000123472
-0.000124495
-0.00012548
-0.000126426
-0.000127333
-0.000128197
-0.000129017
-0.00012979
-0.000130515
-0.00013119
-0.000131815
-0.00013239
-0.000132912
-0.00013338
-0.000133791
-0.000134145
-0.00013444
-0.000134676
-0.000134853
-0.000134968
-0.00013502
-0.000135006
-0.000134921
-0.000134768
-0.000134545
-0.000134215
-0.000133746
2.30701e-05
2.35191e-05
2.38691e-05
2.41449e-05
2.43861e-05
2.45905e-05
2.47527e-05
2.48706e-05
2.49425e-05
2.49669e-05
2.49421e-05
2.48661e-05
2.47385e-05
2.45578e-05
2.43238e-05
2.40373e-05
2.36988e-05
2.33095e-05
2.28702e-05
2.23825e-05
2.18474e-05
2.12661e-05
2.06401e-05
1.99707e-05
1.92591e-05
1.85076e-05
1.77186e-05
1.68937e-05
1.60334e-05
1.51387e-05
1.42121e-05
1.32552e-05
1.22675e-05
1.12509e-05
1.02082e-05
9.14195e-06
8.05384e-06
6.94459e-06
5.81617e-06
4.6712e-06
3.51054e-06
2.33322e-06
1.13907e-06
-6.98726e-08
-1.29189e-06
-2.52686e-06
-3.77492e-06
-5.03537e-06
-6.3064e-06
-7.58655e-06
-8.87555e-06
-1.01737e-05
-1.14808e-05
-1.27947e-05
-1.4113e-05
-1.54355e-05
-1.67641e-05
-1.80997e-05
-1.9441e-05
-2.0787e-05
-2.2138e-05
-2.34959e-05
-2.48611e-05
-2.6231e-05
-2.76027e-05
-2.89756e-05
-3.03511e-05
-3.17303e-05
-3.3113e-05
-3.4498e-05
-3.58853e-05
-3.72766e-05
-3.86737e-05
-4.00768e-05
-4.14838e-05
-4.28923e-05
-4.4302e-05
-4.57143e-05
-4.71302e-05
-4.85496e-05
-4.99718e-05
-5.13967e-05