/*--------------------------------*- C++ -*----------------------------------*\
  =========                 |
  \\      /  F ield         | OpenFOAM: The Open Source CFD Toolbox
   \\    /   O peration     | Website:  https://openfoam.org
    \\  /    A nd           | Version:  7
     \\/     M anipulation  |
\*---------------------------------------------------------------------------*/
FoamFile
{
    version     2.0;
    format      ascii;
    class       surfaceScalarField;
    location    "0.325";
    object      phi;
}
// * * * * * * * * * * * * * * * * * * * * * * * * * * * * * * * * * * * * * //

dimensions      [0 3 -1 0 0 0 0];

internalField   nonuniform List<scalar> 
101920
(
-7.50877e-14
8.94179e-14
-4.74743e-13
3.9785e-13
-4.6557e-13
-7.48271e-15
-2.39966e-13
-2.30212e-13
2.31041e-13
-4.70045e-13
8.75925e-13
-6.43435e-13
1.6337e-12
-7.57539e-13
2.46372e-12
-8.28772e-13
3.33387e-12
-8.68929e-13
4.22087e-12
-8.86434e-13
5.10524e-12
-8.84421e-13
5.97288e-12
-8.67338e-13
6.8137e-12
-8.39874e-13
7.61606e-12
-8.03272e-13
8.37299e-12
-7.57685e-13
9.07688e-12
-7.04874e-13
9.72224e-12
-6.44994e-13
1.03048e-11
-5.82028e-13
1.08217e-11
-5.16607e-13
1.12693e-11
-4.47292e-13
1.16449e-11
-3.76167e-13
1.19484e-11
-3.03001e-13
1.21781e-11
-2.29475e-13
1.23342e-11
-1.5686e-13
1.24172e-11
-8.34343e-14
1.24256e-11
-9.55112e-15
1.23614e-11
6.29838e-14
1.22271e-11
1.34031e-13
1.20234e-11
2.03395e-13
1.17521e-11
2.7039e-13
1.1416e-11
3.3548e-13
1.10162e-11
3.98996e-13
1.05554e-11
4.60171e-13
1.00378e-11
5.17764e-13
9.46611e-12
5.71665e-13
8.84301e-12
6.23361e-13
8.17163e-12
6.7253e-13
7.45459e-12
7.17567e-13
6.69579e-12
7.59129e-13
5.89891e-12
7.97976e-13
5.06677e-12
8.33014e-13
4.20381e-12
8.63702e-13
3.31386e-12
8.90617e-13
2.39958e-12
9.14094e-13
1.4647e-12
9.34027e-13
5.1357e-13
9.50212e-13
-4.50106e-13
9.62808e-13
-1.42357e-12
9.72327e-13
-2.40326e-12
9.79048e-13
-3.38553e-12
9.81986e-13
-4.36656e-12
9.80978e-13
-5.34343e-12
9.76886e-13
-6.31379e-12
9.70078e-13
-7.27372e-12
9.60262e-13
-8.21966e-12
9.46926e-13
-9.14892e-12
9.30347e-13
-1.00585e-11
9.10972e-13
-1.09458e-11
8.88354e-13
-1.18078e-11
8.62104e-13
-1.26413e-11
8.33145e-13
-1.3445e-11
8.02846e-13
-1.42167e-11
7.71172e-13
-1.49533e-11
7.3703e-13
-1.56527e-11
6.99906e-13
-1.63134e-11
6.60274e-13
-1.69335e-11
6.19179e-13
-1.75106e-11
5.77134e-13
-1.80429e-11
5.33336e-13
-1.85297e-11
4.87114e-13
-1.89703e-11
4.39368e-13
-1.93629e-11
3.913e-13
-1.97059e-11
3.42747e-13
-1.99981e-11
2.9301e-13
-2.02389e-11
2.42093e-13
-2.04279e-11
1.90224e-13
-2.0565e-11
1.37563e-13
-2.06497e-11
8.44326e-14
-2.06814e-11
3.11194e-14
-2.066e-11
-2.21984e-14
-2.05856e-11
-7.53033e-14
-2.04583e-11
-1.27962e-13
-2.02782e-11
-1.80007e-13
-2.00465e-11
-2.31335e-13
-1.97637e-11
-2.82164e-13
-1.94301e-11
-3.32876e-13
-1.90461e-11
-3.83191e-13
-1.86127e-11
-4.32459e-13
-1.81323e-11
-4.80295e-13
-1.76066e-11
-5.26489e-13
-1.70358e-11
-5.71233e-13
-1.6421e-11
-6.14599e-13
-1.57644e-11
-6.56201e-13
-1.50681e-11
-6.95877e-13
-1.43343e-11
-7.33626e-13
-1.35644e-11
-7.69566e-13
-1.27608e-11
-8.03677e-13
-1.19261e-11
-8.35313e-13
-1.10622e-11
-8.6409e-13
-1.01718e-11
-8.90279e-13
-9.25727e-12
-9.14309e-13
-8.32093e-12
-9.36344e-13
-7.36562e-12
-9.55824e-13
-6.39398e-12
-9.72033e-13
-5.40907e-12
-9.84974e-13
-4.41426e-12
-9.9495e-13
-3.41236e-12
-1.0021e-12
-2.40648e-12
-1.00622e-12
-1.39969e-12
-1.00684e-12
-3.9463e-13
-1.0042e-12
6.0475e-13
-9.98749e-13
1.59455e-12
-9.90085e-13
2.57178e-12
-9.77855e-13
3.53302e-12
-9.61867e-13
4.47573e-12
-9.42252e-13
5.39704e-12
-9.19957e-13
6.29218e-12
-8.94992e-13
7.1574e-12
-8.66106e-13
7.99026e-12
-8.33094e-13
8.78786e-12
-7.9694e-13
9.5469e-12
-7.58124e-13
1.02638e-11
-7.16374e-13
1.0935e-11
-6.71191e-13
1.15579e-11
-6.22508e-13
1.213e-11
-5.71141e-13
1.2648e-11
-5.17531e-13
1.31089e-11
-4.6111e-13
1.35103e-11
-4.01862e-13
1.38499e-11
-3.40369e-13
1.41259e-11
-2.76599e-13
1.43365e-11
-2.1024e-13
1.44788e-11
-1.41598e-13
1.45515e-11
-7.19045e-14
1.45542e-11
-2.38118e-15
1.44858e-11
6.75345e-14
1.43455e-11
1.39092e-13
1.41335e-11
2.11828e-13
1.38504e-11
2.83808e-13
1.34967e-11
3.54345e-13
1.30734e-11
4.23955e-13
1.25815e-11
4.92298e-13
1.20231e-11
5.58019e-13
1.1403e-11
6.19918e-13
1.07255e-11
6.77446e-13
9.99406e-12
7.30748e-13
9.21359e-12
7.79764e-13
8.39145e-12
8.22661e-13
7.53582e-12
8.56745e-13
6.65562e-12
8.80837e-13
5.76171e-12
8.94426e-13
4.86638e-12
8.95708e-13
3.98341e-12
8.82503e-13
3.12998e-12
8.52845e-13
2.32648e-12
8.03784e-13
1.59449e-12
7.3216e-13
9.58892e-13
6.35432e-13
4.48803e-13
5.10776e-13
9.21086e-14
3.57407e-13
-8.96261e-14
1.81186e-13
-9.391e-14
3.27486e-15
-9.41889e-14
4.56062e-13
-3.68445e-13
7.85538e-13
7.25173e-14
1.20676e-12
-4.27313e-13
2.06698e-12
-1.08982e-12
3.3162e-12
-1.72167e-12
4.89884e-12
-2.22702e-12
6.73687e-12
-2.59701e-12
8.75543e-12
-2.84867e-12
1.08881e-11
-3.00297e-12
1.308e-11
-3.07839e-12
1.52817e-11
-3.08736e-12
1.74549e-11
-3.04141e-12
1.95647e-11
-2.94959e-12
2.15823e-11
-2.81975e-12
2.34839e-11
-2.65863e-12
2.52486e-11
-2.46942e-12
2.68593e-11
-2.25654e-12
2.83018e-11
-2.02592e-12
2.95653e-11
-1.78003e-12
3.06407e-11
-1.52317e-12
3.15209e-11
-1.25699e-12
3.2201e-11
-9.83136e-13
3.26778e-11
-7.06398e-13
3.29504e-11
-4.27734e-13
3.30178e-11
-1.48657e-13
3.2881e-11
1.28559e-13
3.25425e-11
4.02592e-13
3.2005e-11
6.72439e-13
3.12731e-11
9.36287e-13
3.03522e-11
1.1928e-12
2.92477e-11
1.44122e-12
2.79662e-11
1.68129e-12
2.65151e-11
1.91171e-12
2.49018e-11
2.13047e-12
2.31347e-11
2.33779e-12
2.12224e-11
2.53454e-12
1.91742e-11
2.71914e-12
1.69994e-11
2.8907e-12
1.47076e-11
3.04971e-12
1.2308e-11
3.19538e-12
9.81096e-12
3.32725e-12
7.22783e-12
3.44574e-12
4.56813e-12
3.55054e-12
1.84154e-12
3.64132e-12
-9.4099e-13
3.71812e-12
-3.76945e-12
3.78048e-12
-6.63387e-12
3.82885e-12
-9.52383e-12
3.86397e-12
-1.24296e-11
3.88556e-12
-1.53411e-11
3.89362e-12
-1.82481e-11
3.88873e-12
-2.11413e-11
3.87102e-12
-2.40119e-11
3.84065e-12
-2.68503e-11
3.79762e-12
-2.96473e-11
3.74211e-12
-3.23939e-11
3.67529e-12
-3.50817e-11
3.59755e-12
-3.77029e-11
3.50852e-12
-4.02488e-11
3.40868e-12
-4.27116e-11
3.29845e-12
-4.5086e-11
3.17833e-12
-4.73652e-11
3.04971e-12
-4.9541e-11
2.91306e-12
-5.1607e-11
2.76745e-12
-5.35583e-11
2.6128e-12
-5.53899e-11
2.45076e-12
-5.70967e-11
2.2828e-12
-5.86731e-11
2.10898e-12
-6.0114e-11
1.92901e-12
-6.1416e-11
1.74325e-12
-6.25769e-11
1.5525e-12
-6.35937e-11
1.35761e-12
-6.44627e-11
1.15952e-12
-6.51812e-11
9.58969e-13
-6.57477e-11
7.56093e-13
-6.61611e-11
5.50867e-13
-6.64198e-11
3.43893e-13
-6.65226e-11
1.35753e-13
-6.64694e-11
-7.32848e-14
-6.6261e-11
-2.82537e-13
-6.58978e-11
-4.90891e-13
-6.53802e-11
-6.97576e-13
-6.47095e-11
-9.0234e-13
-6.38879e-11
-1.10487e-12
-6.29175e-11
-1.30453e-12
-6.1801e-11
-1.5005e-12
-6.05408e-11
-1.69218e-12
-5.91402e-11
-1.87956e-12
-5.76035e-11
-2.06216e-12
-5.59344e-11
-2.23925e-12
-5.41377e-11
-2.41053e-12
-5.22183e-11
-2.57537e-12
-5.01811e-11
-2.73288e-12
-4.80317e-11
-2.88265e-12
-4.57761e-11
-3.02464e-12
-4.34206e-11
-3.15891e-12
-4.0972e-11
-3.28462e-12
-3.84366e-11
-3.40058e-12
-3.58214e-11
-3.50655e-12
-3.31341e-11
-3.60271e-12
-3.03818e-11
-3.68895e-12
-2.75729e-11
-3.7649e-12
-2.47154e-11
-3.82973e-12
-2.18177e-11
-3.88283e-12
-1.88881e-11
-3.92427e-12
-1.59351e-11
-3.95415e-12
-1.29679e-11
-3.97242e-12
-9.99686e-12
-3.97839e-12
-7.0306e-12
-3.97116e-12
-4.07804e-12
-3.95095e-12
-1.14909e-12
-3.9182e-12
1.74671e-12
-3.87284e-12
4.59861e-12
-3.81459e-12
7.39679e-12
-3.74255e-12
1.01335e-11
-3.65663e-12
1.27992e-11
-3.55823e-12
1.53826e-11
-3.44768e-12
1.78739e-11
-3.324e-12
2.02644e-11
-3.18728e-12
2.25454e-11
-3.03829e-12
2.47075e-11
-2.87732e-12
2.67411e-11
-2.70456e-12
2.86371e-11
-2.51979e-12
3.0388e-11
-2.32292e-12
3.19863e-11
-2.11512e-12
3.3424e-11
-1.89742e-12
3.46939e-11
-1.67001e-12
3.57889e-11
-1.4339e-12
3.67024e-11
-1.19011e-12
3.74295e-11
-9.3837e-13
3.79652e-11
-6.78835e-13
3.83054e-11
-4.1328e-13
3.84476e-11
-1.44028e-13
3.83896e-11
1.27279e-13
3.81297e-11
4.0001e-13
3.76678e-11
6.73751e-13
3.70047e-11
9.46692e-13
3.61428e-11
1.21603e-12
3.50862e-11
1.48007e-12
3.38404e-11
1.7376e-12
3.24119e-11
1.98583e-12
3.08101e-11
2.22137e-12
2.90467e-11
2.44163e-12
2.71353e-11
2.64379e-12
2.50914e-11
2.82446e-12
2.29338e-11
2.97997e-12
2.06848e-11
3.1055e-12
1.83701e-11
3.19548e-12
1.60192e-11
3.24501e-12
1.36663e-11
3.2488e-12
1.13494e-11
3.19979e-12
9.11141e-12
3.09039e-12
7.00159e-12
2.91325e-12
5.07359e-12
2.66076e-12
3.38331e-12
2.32607e-12
1.98883e-12
1.90568e-12
9.43193e-13
1.40452e-12
2.82133e-13
8.44232e-13
2.48607e-15
2.84196e-13
-9.23881e-14
4.09085e-13
-7.75868e-13
1.39457e-12
-9.11818e-13
2.62081e-12
-1.6534e-12
4.26612e-12
-2.73352e-12
6.34065e-12
-3.79433e-12
8.80045e-12
-4.68417e-12
1.15707e-11
-5.36667e-12
1.45722e-11
-5.8489e-12
1.77258e-11
-6.15467e-12
2.09562e-11
-6.30793e-12
2.41992e-11
-6.32913e-12
2.73953e-11
-6.23775e-12
3.04934e-11
-6.04913e-12
3.34508e-11
-5.77741e-12
3.62288e-11
-5.4358e-12
3.87952e-11
-5.03473e-12
4.11223e-11
-4.58398e-12
4.31883e-11
-4.09159e-12
4.49738e-11
-3.56593e-12
4.64647e-11
-3.01389e-12
4.76497e-11
-2.44119e-12
4.85194e-11
-1.85456e-12
4.90695e-11
-1.25752e-12
4.92961e-11
-6.55265e-13
4.91985e-11
-5.23861e-14
4.87791e-11
5.48017e-13
4.80397e-11
1.14155e-12
4.69854e-11
1.72538e-12
4.56236e-11
2.29735e-12
4.39612e-11
2.85435e-12
4.20076e-11
3.39437e-12
3.9774e-11
3.9155e-12
3.72708e-11
4.41496e-12
3.45104e-11
4.89117e-12
3.15065e-11
5.34336e-12
2.82716e-11
5.76997e-12
2.4821e-11
6.17003e-12
2.11702e-11
6.543e-12
1.73336e-11
6.88755e-12
1.33273e-11
7.20236e-12
9.16734e-12
7.4874e-12
4.86979e-12
7.74273e-12
4.50978e-13
7.96804e-12
-4.07207e-12
8.16334e-12
-8.68302e-12
8.32797e-12
-1.33657e-11
8.46214e-12
-1.81037e-11
8.56626e-12
-2.28802e-11
8.64043e-12
-2.76791e-11
8.68454e-12
-3.24848e-11
8.69901e-12
-3.72813e-11
8.68502e-12
-4.20524e-11
8.64302e-12
-4.67831e-11
8.57286e-12
-5.14591e-11
8.4749e-12
-5.60653e-11
8.35004e-12
-6.05881e-11
8.19922e-12
-6.50137e-11
8.02302e-12
-6.93285e-11
7.82247e-12
-7.35199e-11
7.59919e-12
-7.75752e-11
7.35381e-12
-8.14828e-11
7.08671e-12
-8.52323e-11
6.79939e-12
-8.88129e-11
6.49303e-12
-9.22143e-11
6.16807e-12
-9.54263e-11
5.82539e-12
-9.84399e-11
5.46606e-12
-1.01248e-10
5.09127e-12
-1.03844e-10
4.70285e-12
-1.06219e-10
4.30252e-12
-1.08366e-10
3.89083e-12
-1.1028e-10
3.46806e-12
-1.11956e-10
3.03549e-12
-1.13391e-10
2.5948e-12
-1.14579e-10
2.1474e-12
-1.15518e-10
1.69446e-12
-1.16205e-10
1.23709e-12
-1.16639e-10
7.76487e-13
-1.16818e-10
3.13726e-13
-1.16741e-10
-1.50327e-13
-1.16409e-10
-6.14289e-13
-1.15823e-10
-1.07644e-12
-1.14984e-10
-1.53553e-12
-1.13894e-10
-1.99081e-12
-1.12557e-10
-2.44132e-12
-1.10975e-10
-2.88569e-12
-1.09153e-10
-3.32234e-12
-1.07096e-10
-3.74979e-12
-1.04809e-10
-4.16702e-12
-1.02298e-10
-4.57329e-12
-9.95688e-11
-4.9676e-12
-9.66298e-11
-5.34897e-12
-9.34889e-11
-5.71617e-12
-9.01539e-11
-6.06768e-12
-8.6634e-11
-6.4026e-12
-8.2939e-11
-6.72015e-12
-7.90785e-11
-7.01942e-12
-7.50632e-11
-7.2995e-12
-7.09042e-11
-7.55924e-12
-6.6613e-11
-7.7978e-12
-6.22017e-11
-8.01461e-12
-5.76825e-11
-8.20872e-12
-5.30681e-11
-8.37939e-12
-4.8372e-11
-8.52602e-12
-4.3608e-11
-8.64754e-12
-3.87896e-11
-8.74325e-12
-3.39309e-11
-8.81282e-12
-2.90461e-11
-8.85606e-12
-2.41512e-11
-8.87272e-12
-1.92614e-11
-8.86157e-12
-1.43917e-11
-8.8215e-12
-9.55718e-12
-8.75271e-12
-4.77292e-12
-8.65564e-12
-5.52608e-14
-8.53059e-12
4.57906e-12
-8.37706e-12
9.11496e-12
-8.19378e-12
1.3538e-11
-7.98104e-12
1.78325e-11
-7.74045e-12
2.19817e-11
-7.47219e-12
2.59704e-11
-7.17572e-12
2.97843e-11
-6.85169e-12
3.3409e-11
-6.50093e-12
3.68298e-11
-6.12408e-12
4.00327e-11
-5.722e-12
4.3004e-11
-5.2948e-12
4.57311e-11
-4.84311e-12
4.82023e-11
-4.36903e-12
5.04062e-11
-3.87405e-12
5.23319e-11
-3.35924e-12
5.397e-11
-2.82684e-12
5.53115e-11
-2.27882e-12
5.63484e-11
-1.71624e-12
5.70749e-11
-1.1411e-12
5.74864e-11
-5.56607e-13
5.75792e-11
3.41976e-14
5.73519e-11
6.28195e-13
5.68046e-11
1.22198e-12
5.59386e-11
1.81261e-12
5.47576e-11
2.3965e-12
5.32689e-11
2.96879e-12
5.14814e-11
3.52479e-12
4.94063e-11
4.0599e-12
4.70586e-11
4.56827e-12
4.44564e-11
5.04358e-12
4.16209e-11
5.47949e-12
3.85784e-11
5.86828e-12
3.53584e-11
6.20101e-12
3.19949e-11
6.46871e-12
2.85277e-11
6.66189e-12
2.50028e-11
6.76972e-12
2.14709e-11
6.78036e-12
1.79891e-11
6.68123e-12
1.46208e-11
6.45877e-12
1.14354e-11
6.09908e-12
8.50708e-12
5.58944e-12
5.91212e-12
4.92087e-12
3.72599e-12
4.09154e-12
2.0153e-12
3.11473e-12
8.27506e-13
2.03157e-12
1.74875e-13
9.3766e-13
8.20244e-14
5.21194e-13
-1.30155e-12
1.80938e-12
-2.19956e-12
3.62267e-12
-3.46527e-12
5.94838e-12
-5.06296e-12
8.76115e-12
-6.60721e-12
1.19954e-11
-7.91815e-12
1.55705e-11
-8.94206e-12
1.93991e-11
-9.67779e-12
2.33905e-11
-1.01476e-11
2.74612e-11
-1.03785e-11
3.15321e-11
-1.03995e-11
3.55317e-11
-1.02368e-11
3.93952e-11
-9.91385e-12
4.30682e-11
-9.45172e-12
4.65017e-11
-8.86996e-12
4.96535e-11
-8.18712e-12
5.24887e-11
-7.41862e-12
5.49756e-11
-6.57899e-12
5.70897e-11
-5.6811e-12
5.88127e-11
-4.73618e-12
6.01279e-11
-3.75621e-12
6.10242e-11
-2.75001e-12
6.14941e-11
-1.72626e-12
6.15321e-11
-6.93691e-13
6.11379e-11
3.41892e-13
6.03135e-11
1.37311e-12
5.90619e-11
2.39351e-12
5.73899e-11
3.39808e-12
5.5306e-11
4.38162e-12
5.28203e-11
5.33965e-12
4.99455e-11
6.26893e-12
4.66955e-11
7.16508e-12
4.30849e-11
8.02453e-12
3.91303e-11
8.84521e-12
3.48493e-11
9.624e-12
3.026e-11
1.03582e-11
2.53825e-11
1.10468e-11
2.02367e-11
1.16883e-11
1.48425e-11
1.22807e-11
9.22256e-12
1.28227e-11
3.39793e-12
1.33131e-11
-2.61021e-12
1.37514e-11
-8.77901e-12
1.41376e-11
-1.50862e-11
1.4471e-11
-2.15091e-11
1.47514e-11
-2.80258e-11
1.4979e-11
-3.46139e-11
1.51543e-11
-4.12509e-11
1.52775e-11
-4.79146e-11
1.53485e-11
-5.45834e-11
1.5368e-11
-6.12364e-11
1.53375e-11
-6.78519e-11
1.52576e-11
-7.44087e-11
1.51288e-11
-8.08866e-11
1.49524e-11
-8.72659e-11
1.47297e-11
-9.35281e-11
1.44618e-11
-9.96541e-11
1.41499e-11
-1.05625e-10
1.37952e-11
-1.11426e-10
1.33997e-11
-1.17039e-10
1.29657e-11
-1.22446e-10
1.24946e-11
-1.27633e-10
1.19875e-11
-1.32585e-10
1.14459e-11
-1.37291e-10
1.08724e-11
-1.41735e-10
1.02693e-11
-1.45905e-10
9.6376e-12
-1.49791e-10
8.97831e-12
-1.53382e-10
8.29409e-12
-1.56668e-10
7.58816e-12
-1.59641e-10
6.86261e-12
-1.62293e-10
6.11885e-12
-1.64616e-10
5.35865e-12
-1.66605e-10
4.58398e-12
-1.68254e-10
3.79696e-12
-1.69559e-10
3.00002e-12
-1.70516e-10
2.19526e-12
-1.71124e-10
1.38449e-12
-1.7138e-10
5.69773e-13
-1.71284e-10
-2.4671e-13
-1.70836e-10
-1.06261e-12
-1.70037e-10
-1.87557e-12
-1.68889e-10
-2.68358e-12
-1.67396e-10
-3.48467e-12
-1.6556e-10
-4.27671e-12
-1.63387e-10
-5.0577e-12
-1.60882e-10
-5.82581e-12
-1.58053e-10
-6.57877e-12
-1.54906e-10
-7.31411e-12
-1.51449e-10
-8.0301e-12
-1.47691e-10
-8.72506e-12
-1.43643e-10
-9.39696e-12
-1.39315e-10
-1.00439e-11
-1.34719e-10
-1.06639e-11
-1.29866e-10
-1.12554e-11
-1.2477e-10
-1.18168e-11
-1.19444e-10
-1.23458e-11
-1.13903e-10
-1.28407e-11
-1.08161e-10
-1.33004e-11
-1.02236e-10
-1.37232e-11
-9.61422e-11
-1.41081e-11
-8.98977e-11
-1.44535e-11
-8.35198e-11
-1.47577e-11
-7.7026e-11
-1.50197e-11
-7.04353e-11
-1.52383e-11
-6.3767e-11
-1.54122e-11
-5.70402e-11
-1.55402e-11
-5.02749e-11
-1.56216e-11
-4.34909e-11
-1.56559e-11
-3.67093e-11
-1.56425e-11
-2.99513e-11
-1.55798e-11
-2.32377e-11
-1.5467e-11
-1.65891e-11
-1.53041e-11
-1.00269e-11
-1.50915e-11
-3.57266e-12
-1.48295e-11
2.75141e-12
-1.45174e-11
8.92422e-12
-1.41545e-11
1.4926e-11
-1.37417e-11
2.07355e-11
-1.32805e-11
2.63307e-11
-1.27709e-11
3.16921e-11
-1.22131e-11
3.67997e-11
-1.16085e-11
4.16339e-11
-1.09582e-11
4.61769e-11
-1.02636e-11
5.04103e-11
-9.5266e-12
5.43159e-11
-8.74853e-12
5.78781e-11
-7.93139e-12
6.1082e-11
-7.07804e-12
6.39121e-11
-6.19065e-12
6.63566e-11
-5.27181e-12
6.84045e-11
-4.32561e-12
7.0045e-11
-3.35595e-12
7.12699e-11
-2.36596e-12
7.20731e-11
-1.35986e-12
7.24495e-11
-3.42901e-13
7.23968e-11
6.79786e-13
7.19164e-11
1.70235e-12
7.10106e-11
2.71825e-12
6.96843e-11
3.72136e-12
6.79476e-11
4.7048e-12
6.58132e-11
5.65997e-12
6.32955e-11
6.57784e-12
6.04144e-11
7.44918e-12
5.71945e-11
8.26352e-12
5.36641e-11
9.00927e-12
4.98574e-11
9.67407e-12
4.58143e-11
1.02442e-11
4.15789e-11
1.07042e-11
3.72021e-11
1.1038e-11
3.27425e-11
1.12286e-11
2.82649e-11
1.12579e-11
2.38405e-11
1.11056e-11
1.95474e-11
1.07516e-11
1.54698e-11
1.01768e-11
1.16964e-11
9.3638e-12
8.31691e-12
8.30074e-12
5.41968e-12
6.98841e-12
3.08561e-12
5.44834e-12
1.38008e-12
3.73595e-12
3.48198e-13
1.96994e-12
4.30183e-13
5.70782e-13
-1.8714e-12
2.12318e-12
-3.75439e-12
4.40004e-12
-5.74052e-12
7.29068e-12
-7.95379e-12
1.07213e-11
-1.00373e-11
1.4604e-11
-1.18008e-11
1.88447e-11
-1.31819e-11
2.3344e-11
-1.41775e-11
2.80047e-11
-1.48079e-11
3.27314e-11
-1.51059e-11
3.74364e-11
-1.51047e-11
4.20387e-11
-1.48385e-11
4.64656e-11
-1.43397e-11
5.0651e-11
-1.36367e-11
5.45374e-11
-1.27571e-11
5.80762e-11
-1.17261e-11
6.12244e-11
-1.0567e-11
6.39455e-11
-9.30021e-12
6.62095e-11
-7.94536e-12
6.79917e-11
-6.51993e-12
6.92738e-11
-5.03924e-12
7.00421e-11
-3.51801e-12
7.0286e-11
-1.97025e-12
7.00001e-11
-4.07616e-13
6.91826e-11
1.15915e-12
6.78354e-11
2.71968e-12
6.59636e-11
4.2653e-12
6.35747e-11
5.78717e-12
6.06788e-11
7.27753e-12
5.72889e-11
8.73003e-12
5.34197e-11
1.01382e-11
4.90885e-11
1.14962e-11
4.43143e-11
1.27993e-11
3.91163e-11
1.40434e-11
3.35165e-11
1.52237e-11
2.75383e-11
1.63369e-11
2.12054e-11
1.73803e-11
1.45424e-11
1.8351e-11
7.57501e-12
1.92472e-11
3.3018e-13
2.00669e-11
-7.16548e-12
2.08084e-11
-1.48851e-11
2.14707e-11
-2.28006e-11
2.20529e-11
-3.08841e-11
2.25545e-11
-3.91077e-11
2.29752e-11
-4.74436e-11
2.33151e-11
-5.58639e-11
2.35746e-11
-6.43409e-11
2.3754e-11
-7.28464e-11
2.38541e-11
-8.13531e-11
2.38759e-11
-8.98352e-11
2.38203e-11
-9.82659e-11
2.36885e-11
-1.06619e-10
2.34819e-11
-1.14868e-10
2.32022e-11
-1.2299e-10
2.28514e-11
-1.30961e-10
2.24314e-11
-1.38755e-10
2.19446e-11
-1.46351e-10
2.13925e-11
-1.53728e-10
2.07773e-11
-1.60866e-10
2.01025e-11
-1.67742e-10
1.93708e-11
-1.74338e-10
1.85837e-11
-1.80635e-10
1.77436e-11
-1.86616e-10
1.68541e-11
-1.92266e-10
1.59186e-11
-1.97569e-10
1.49398e-11
-2.0251e-10
1.39198e-11
-2.07075e-10
1.28615e-11
-2.11255e-10
1.17686e-11
-2.15037e-10
1.06445e-11
-2.1841e-10
9.49241e-12
-2.21367e-10
8.31536e-12
-2.239e-10
7.11633e-12
-2.26002e-10
5.89842e-12
-2.27668e-10
4.66522e-12
-2.28893e-10
3.42003e-12
-2.29673e-10
2.16554e-12
-2.30008e-10
9.04917e-13
-2.29897e-10
-3.58154e-13
-2.29339e-10
-1.62016e-12
-2.28336e-10
-2.87798e-12
-2.2689e-10
-4.12867e-12
-2.25006e-10
-5.36888e-12
-2.22688e-10
-6.59497e-12
-2.19942e-10
-7.80372e-12
-2.16775e-10
-8.99234e-12
-2.13195e-10
-1.01579e-11
-2.09212e-10
-1.12969e-11
-2.04835e-10
-1.24064e-11
-2.00077e-10
-1.34835e-11
-1.94949e-10
-1.4525e-11
-1.89465e-10
-1.55279e-11
-1.83639e-10
-1.64896e-11
-1.77487e-10
-1.74075e-11
-1.71024e-10
-1.82791e-11
-1.64269e-10
-1.91013e-11
-1.57238e-10
-1.98713e-11
-1.49951e-10
-2.0587e-11
-1.42429e-10
-2.12462e-11
-1.3469e-10
-2.18466e-11
-1.26757e-10
-2.23865e-11
-1.18652e-10
-2.28633e-11
-1.10397e-10
-2.32749e-11
-1.02016e-10
-2.36198e-11
-9.35321e-11
-2.38963e-11
-8.49699e-11
-2.41028e-11
-7.63549e-11
-2.42376e-11
-6.77122e-11
-2.42991e-11
-5.90665e-11
-2.42869e-11
-5.04449e-11
-2.42002e-11
-4.18742e-11
-2.40376e-11
-3.33803e-11
-2.37983e-11
-2.49899e-11
-2.34821e-11
-1.6729e-11
-2.30892e-11
-8.62491e-12
-2.26199e-11
-7.05531e-13
-2.2074e-11
7.00385e-12
-2.14515e-11
1.44782e-11
-2.07538e-11
2.16907e-11
-1.99825e-11
2.86158e-11
-1.9138e-11
3.52292e-11
-1.82217e-11
4.15061e-11
-1.72355e-11
4.74237e-11
-1.61813e-11
5.29603e-11
-1.50621e-11
5.80934e-11
-1.3881e-11
6.28029e-11
-1.2641e-11
6.70711e-11
-1.13456e-11
7.08793e-11
-9.99893e-12
7.42114e-11
-8.60508e-12
7.70543e-11
-7.16886e-12
7.93956e-11
-5.69664e-12
8.1225e-11
-4.19489e-12
8.25351e-11
-2.6696e-12
8.33202e-11
-1.12792e-12
8.35769e-11
4.21879e-13
8.33068e-11
1.97132e-12
8.2514e-11
3.5109e-12
8.12047e-11
5.0301e-12
7.93901e-11
6.51817e-12
7.70865e-11
7.96341e-12
7.43127e-11
9.3522e-12
7.10928e-11
1.06697e-11
6.74561e-11
1.19005e-11
6.3437e-11
1.30279e-11
5.90768e-11
1.40333e-11
5.44231e-11
1.48969e-11
4.95293e-11
1.55974e-11
4.44557e-11
1.61116e-11
3.92704e-11
1.64142e-11
3.4048e-11
1.648e-11
2.8871e-11
1.62824e-11
2.38291e-11
1.5794e-11
1.90165e-11
1.49894e-11
1.45325e-11
1.38475e-11
1.04788e-11
1.23547e-11
6.9557e-12
1.05118e-11
4.05957e-12
8.34455e-12
1.87939e-12
5.91511e-12
4.99845e-13
3.34957e-12
9.30301e-13
6.28027e-13
-2.49819e-12
2.39388e-12
-5.52132e-12
5.03552e-12
-8.3798e-12
8.38102e-12
-1.12991e-11
1.23117e-11
-1.39678e-11
1.67163e-11
-1.6205e-11
2.14837e-11
-1.79497e-11
2.65062e-11
-1.9199e-11
3.16759e-11
-1.99775e-11
3.68907e-11
-2.03204e-11
4.20531e-11
-2.02689e-11
4.70773e-11
-1.98631e-11
5.18815e-11
-1.91437e-11
5.63931e-11
-1.81487e-11
6.0549e-11
-1.69127e-11
6.42919e-11
-1.54697e-11
6.75741e-11
-1.38497e-11
7.03558e-11
-1.2081e-11
7.26009e-11
-1.01903e-11
7.42817e-11
-8.20114e-12
7.53774e-11
-6.1347e-12
7.58705e-11
-4.01165e-12
7.57504e-11
-1.85028e-12
7.50107e-11
3.32836e-13
7.36484e-11
2.52135e-12
7.16659e-11
4.70215e-12
6.9069e-11
6.86224e-12
6.58663e-11
8.98934e-12
6.20703e-11
1.10735e-11
5.76957e-11
1.31046e-11
5.27595e-11
1.50735e-11
4.72823e-11
1.6973e-11
4.12861e-11
1.87957e-11
3.47937e-11
2.05348e-11
2.78316e-11
2.21853e-11
2.04267e-11
2.3742e-11
1.26066e-11
2.52005e-11
4.40129e-12
2.65569e-11
-4.15904e-12
2.78079e-11
-1.30433e-11
2.89514e-11
-2.22197e-11
2.99849e-11
-3.1656e-11
3.09069e-11
-4.13189e-11
3.1716e-11
-5.11758e-11
3.24114e-11
-6.11935e-11
3.29929e-11
-7.13385e-11
3.34606e-11
-8.1578e-11
3.38142e-11
-9.18789e-11
3.40545e-11
-1.02208e-10
3.41832e-11
-1.12534e-10
3.42012e-11
-1.22823e-10
3.41096e-11
-1.33045e-10
3.39106e-11
-1.43168e-10
3.3606e-11
-1.53164e-10
3.31981e-11
-1.63001e-10
3.26893e-11
-1.72652e-10
3.20824e-11
-1.82088e-10
3.13807e-11
-1.91283e-10
3.05872e-11
-2.00209e-10
2.97047e-11
-2.08843e-10
2.87372e-11
-2.17161e-10
2.76883e-11
-2.2514e-10
2.65615e-11
-2.32756e-10
2.53606e-11
-2.3999e-10
2.40892e-11
-2.46822e-10
2.27514e-11
-2.53235e-10
2.13519e-11
-2.59211e-10
1.9895e-11
-2.64734e-10
1.83846e-11
-2.69789e-10
1.68247e-11
-2.74365e-10
1.52203e-11
-2.78447e-10
1.35757e-11
-2.82027e-10
1.18954e-11
-2.85094e-10
1.01838e-11
-2.87642e-10
8.44579e-12
-2.89663e-10
6.68595e-12
-2.91152e-10
4.90886e-12
-2.92105e-10
3.11866e-12
-2.92521e-10
1.32009e-12
-2.92397e-10
-4.81703e-13
-2.91735e-10
-2.28209e-12
-2.90536e-10
-4.07673e-12
-2.88803e-10
-5.86119e-12
-2.8654e-10
-7.63084e-12
-2.83754e-10
-9.38088e-12
-2.80451e-10
-1.11066e-11
-2.7664e-10
-1.28035e-11
-2.72329e-10
-1.44673e-11
-2.67532e-10
-1.60939e-11
-2.62259e-10
-1.76789e-11
-2.56525e-10
-1.92178e-11
-2.50344e-10
-2.07063e-11
-2.43732e-10
-2.21402e-11
-2.36706e-10
-2.35159e-11
-2.29284e-10
-2.48294e-11
-2.21486e-10
-2.60767e-11
-2.13332e-10
-2.72543e-11
-2.04845e-10
-2.83585e-11
-1.96045e-10
-2.93858e-11
-1.86959e-10
-3.03332e-11
-1.77608e-10
-3.11972e-11
-1.6802e-10
-3.19749e-11
-1.5822e-10
-3.26636e-11
-1.48236e-10
-3.32599e-11
-1.38095e-10
-3.37614e-11
-1.27826e-10
-3.41661e-11
-1.17457e-10
-3.44717e-11
-1.07019e-10
-3.46762e-11
-9.65419e-11
-3.47772e-11
-8.60559e-11
-3.47729e-11
-7.55918e-11
-3.4663e-11
-6.51818e-11
-3.44466e-11
-5.48574e-11
-3.41223e-11
-4.46504e-11
-3.36894e-11
-3.45919e-11
-3.31476e-11
-2.47133e-11
-3.24974e-11
-1.50475e-11
-3.17394e-11
-5.62598e-12
-3.08738e-11
3.52146e-12
-2.99015e-11
1.23641e-11
-2.88243e-11
2.08714e-11
-2.76446e-11
2.90144e-11
-2.63639e-11
3.67644e-11
-2.49848e-11
4.40934e-11
-2.35104e-11
5.09755e-11
-2.19443e-11
5.73851e-11
-2.02907e-11
6.32982e-11
-1.85545e-11
6.86934e-11
-1.67405e-11
7.35498e-11
-1.48547e-11
7.78485e-11
-1.29034e-11
8.1573e-11
-1.08937e-11
8.47089e-11
-8.83289e-12
8.72447e-11
-6.73041e-12
8.91715e-11
-4.59606e-12
9.04828e-11
-2.43951e-12
9.11755e-11
-2.71611e-13
9.12506e-11
1.89529e-12
9.0713e-11
4.04799e-12
8.95709e-11
6.17221e-12
8.78373e-11
8.25215e-12
8.55296e-11
1.02709e-11
8.26703e-11
1.22107e-11
7.92882e-11
1.40518e-11
7.54173e-11
1.57721e-11
7.10961e-11
1.73486e-11
6.63716e-11
1.87568e-11
6.12983e-11
1.99698e-11
5.59362e-11
2.0959e-11
5.0353e-11
2.16942e-11
4.46251e-11
2.21428e-11
3.8835e-11
2.2271e-11
3.30726e-11
2.20446e-11
2.74361e-11
2.14304e-11
2.20292e-11
2.03969e-11
1.69593e-11
1.89175e-11
1.23379e-11
1.69757e-11
8.27882e-12
1.45712e-11
4.8958e-12
1.17283e-11
2.30342e-12
8.5071e-12
6.25176e-13
5.02777e-12
1.55579e-12
6.87257e-13
-3.18547e-12
2.62389e-12
-7.45966e-12
5.54765e-12
-1.13034e-11
9.24624e-12
-1.49986e-11
1.3566e-11
-1.82868e-11
1.83719e-11
-2.1011e-11
2.35376e-11
-2.31162e-11
2.89437e-11
-2.46057e-11
3.44759e-11
-2.55088e-11
4.00238e-11
-2.58685e-11
4.54851e-11
-2.57306e-11
5.07658e-11
-2.51444e-11
5.57792e-11
-2.41581e-11
6.0449e-11
-2.28182e-11
6.47049e-11
-2.11687e-11
6.84856e-11
-1.9251e-11
7.1739e-11
-1.71037e-11
7.44203e-11
-1.47627e-11
7.64909e-11
-1.22617e-11
7.79213e-11
-9.63099e-12
7.86863e-11
-6.89961e-12
7.87675e-11
-4.09341e-12
7.81531e-11
-1.23607e-12
7.68358e-11
1.65004e-12
7.4813e-11
4.54435e-12
7.20869e-11
7.42854e-12
6.86639e-11
1.02852e-11
6.45542e-11
1.3099e-11
5.97716e-11
1.58561e-11
5.43331e-11
1.85428e-11
4.82587e-11
2.11479e-11
4.15706e-11
2.3661e-11
3.42942e-11
2.60719e-11
2.64563e-11
2.83723e-11
1.80865e-11
3.05548e-11
9.21533e-12
3.2613e-11
-1.25535e-13
3.45406e-11
-9.9013e-12
3.63327e-11
-2.00775e-11
3.79847e-11
-3.06193e-11
3.94931e-11
-4.14895e-11
4.08552e-11
-5.26511e-11
4.20687e-11
-6.40665e-11
4.31314e-11
-7.56978e-11
4.40426e-11
-8.75069e-11
4.48021e-11
-9.94557e-11
4.54094e-11
-1.11506e-10
4.58645e-11
-1.23619e-10
4.61684e-11
-1.35758e-10
4.63229e-11
-1.47886e-10
4.63291e-11
-1.59966e-10
4.6189e-11
-1.7196e-10
4.59052e-11
-1.83835e-10
4.54803e-11
-1.95554e-10
4.49176e-11
-2.07084e-10
4.42201e-11
-2.18392e-10
4.33911e-11
-2.29446e-10
4.24347e-11
-2.40215e-10
4.13556e-11
-2.50668e-10
4.01581e-11
-2.60776e-10
3.88461e-11
-2.70512e-10
3.74245e-11
-2.7985e-10
3.58986e-11
-2.88764e-10
3.42741e-11
-2.97229e-10
3.25555e-11
-3.05224e-10
3.07476e-11
-3.12728e-10
2.88561e-11
-3.1972e-10
2.68876e-11
-3.26183e-10
2.48475e-11
-3.321e-10
2.27416e-11
-3.37456e-10
2.05757e-11
-3.42236e-10
1.83558e-11
-3.46428e-10
1.60877e-11
-3.50022e-10
1.37778e-11
-3.53008e-10
1.14326e-11
-3.5538e-10
9.05777e-12
-3.57131e-10
6.65947e-12
-3.58256e-10
4.24384e-12
-3.58753e-10
1.81727e-12
-3.58621e-10
-6.13711e-13
-3.5786e-10
-3.0431e-12
-3.56472e-10
-5.46486e-12
-3.5446e-10
-7.87269e-12
-3.5183e-10
-1.02605e-11
-3.48588e-10
-1.26223e-11
-3.44742e-10
-1.49518e-11
-3.40303e-10
-1.72427e-11
-3.3528e-10
-1.94892e-11
-3.29688e-10
-2.16859e-11
-3.2354e-10
-2.38267e-11
-3.16852e-10
-2.59057e-11
-3.09641e-10
-2.79172e-11
-3.01925e-10
-2.98558e-11
-2.93725e-10
-3.17166e-11
-2.8506e-10
-3.3494e-11
-2.75954e-10
-3.51826e-11
-2.66431e-10
-3.67776e-11
-2.56515e-10
-3.82745e-11
-2.46232e-10
-3.96684e-11
-2.3561e-10
-4.09553e-11
-2.24677e-10
-4.21306e-11
-2.13462e-10
-4.31901e-11
-2.01996e-10
-4.41302e-11
-1.9031e-10
-4.4947e-11
-1.78435e-10
-4.56366e-11
-1.66406e-10
-4.61961e-11
-1.54255e-10
-4.6623e-11
-1.42016e-10
-4.69146e-11
-1.29725e-10
-4.70682e-11
-1.17417e-10
-4.70814e-11
-1.05128e-10
-4.69524e-11
-9.28931e-11
-4.66808e-11
-8.07492e-11
-4.62656e-11
-6.87333e-11
-4.57052e-11
-5.68818e-11
-4.49993e-11
-4.52305e-11
-4.41484e-11
-3.38163e-11
-4.31531e-11
-2.26752e-11
-4.20147e-11
-1.1843e-11
-4.0734e-11
-1.35468e-12
-3.9313e-11
8.75553e-12
-3.77544e-11
1.84541e-11
-3.60616e-11
2.77079e-11
-3.42378e-11
3.64854e-11
-3.22872e-11
4.47565e-11
-3.0215e-11
5.24918e-11
-2.80265e-11
5.96643e-11
-2.57276e-11
6.6249e-11
-2.33253e-11
7.2222e-11
-2.08276e-11
7.75623e-11
-1.82432e-11
8.22516e-11
-1.55819e-11
8.62725e-11
-1.28539e-11
8.96117e-11
-1.00703e-11
9.22598e-11
-7.24396e-12
9.42095e-11
-4.38905e-12
9.54569e-11
-1.51985e-12
9.60034e-11
1.34806e-12
9.58543e-11
4.19693e-12
9.50189e-11
7.00756e-12
9.35117e-11
9.75963e-12
9.13525e-11
1.24308e-11
8.85658e-11
1.49971e-11
8.5183e-11
1.74333e-11
8.12429e-11
1.97119e-11
7.67888e-11
2.18028e-11
7.18711e-11
2.36739e-11
6.65493e-11
2.52914e-11
6.08894e-11
2.66193e-11
5.49645e-11
2.76191e-11
4.88565e-11
2.82506e-11
4.26554e-11
2.84726e-11
3.64572e-11
2.82433e-11
3.03664e-11
2.75216e-11
2.44936e-11
2.62698e-11
1.8955e-11
2.44563e-11
1.38713e-11
2.20592e-11
9.3695e-12
1.90733e-11
5.58143e-12
1.55171e-11
2.64713e-12
1.14414e-11
7.24498e-13
6.9502e-12
2.28038e-12
7.39161e-13
-3.92368e-12
2.80736e-12
-9.52945e-12
5.94075e-12
-1.44357e-11
9.89909e-12
-1.89576e-11
1.45022e-11
-2.28907e-11
1.95965e-11
-2.61043e-11
2.50399e-11
-2.856e-11
3.07024e-11
-3.0269e-11
3.64613e-11
-3.12688e-11
4.22024e-11
-3.16087e-11
4.78166e-11
-3.13448e-11
5.32047e-11
-3.05329e-11
5.82768e-11
-2.92303e-11
6.29501e-11
-2.74921e-11
6.71523e-11
-2.53712e-11
7.0819e-11
-2.29173e-11
7.38931e-11
-2.01781e-11
7.63265e-11
-1.71974e-11
7.80803e-11
-1.40153e-11
7.91202e-11
-1.06713e-11
7.94206e-11
-7.20012e-12
7.89622e-11
-3.63456e-12
7.7731e-11
-4.9112e-15
7.57199e-11
3.66107e-12
7.29265e-11
7.33795e-12
6.93532e-11
1.10016e-11
6.50075e-11
1.46309e-11
5.99008e-11
1.82059e-11
5.40479e-11
2.17082e-11
4.74687e-11
2.51216e-11
4.01853e-11
2.84313e-11
3.22219e-11
3.16237e-11
2.36075e-11
3.46861e-11
1.43721e-11
3.76078e-11
4.54823e-12
4.03791e-11
-5.83001e-12
4.29911e-11
-1.67264e-11
4.54366e-11
-2.81028e-11
4.77091e-11
-3.99208e-11
4.98026e-11
-5.21405e-11
5.17127e-11
-6.47206e-11
5.34357e-11
-7.76198e-11
5.49679e-11
-9.07958e-11
5.63075e-11
-1.04206e-10
5.74533e-11
-1.17808e-10
5.84041e-11
-1.31559e-10
5.91596e-11
-1.45415e-10
5.97205e-11
-1.59333e-10
6.00878e-11
-1.73273e-10
6.02629e-11
-1.87192e-10
6.02479e-11
-2.01048e-10
6.00453e-11
-2.148e-10
5.96578e-11
-2.28409e-10
5.90892e-11
-2.41835e-10
5.83436e-11
-2.5504e-10
5.74252e-11
-2.67986e-10
5.63379e-11
-2.80637e-10
5.50868e-11
-2.9296e-10
5.36779e-11
-3.04919e-10
5.2117e-11
-3.16481e-10
5.0409e-11
-3.27616e-10
4.85597e-11
-3.38293e-10
4.65762e-11
-3.48485e-10
4.44654e-11
-3.58164e-10
4.2234e-11
-3.67304e-10
3.98882e-11
-3.75882e-10
3.74349e-11
-3.83876e-10
3.48818e-11
-3.91265e-10