/*--------------------------------*- C++ -*----------------------------------*\
  =========                 |
  \\      /  F ield         | OpenFOAM: The Open Source CFD Toolbox
   \\    /   O peration     | Website:  https://openfoam.org
    \\  /    A nd           | Version:  7
     \\/     M anipulation  |
\*---------------------------------------------------------------------------*/
FoamFile
{
    version     2.0;
    format      ascii;
    class       volVectorField;
    location    "0.325";
    object      U;
}
// * * * * * * * * * * * * * * * * * * * * * * * * * * * * * * * * * * * * * //

dimensions      [0 1 -1 0 0 0 0];

internalField   nonuniform List<vector> 
51200
(
(5.86413e-08 7.66994e-08 0)
(-3.64826e-08 1.0426e-07 0)
(-4.91025e-08 3.93866e-08 0)
(-7.42894e-08 8.77025e-09 0)
(-1.18364e-08 -1.44191e-08 0)
(8.11134e-08 -2.90558e-08 0)
(1.95888e-07 -3.79912e-08 0)
(3.24757e-07 -4.27914e-08 0)
(4.62008e-07 -4.58303e-08 0)
(6.03589e-07 -4.66436e-08 0)
(7.46043e-07 -4.6328e-08 0)
(8.86535e-07 -4.53834e-08 0)
(1.02399e-06 -4.37641e-08 0)
(1.15582e-06 -4.208e-08 0)
(1.28078e-06 -3.99144e-08 0)
(1.39808e-06 -3.70619e-08 0)
(1.506e-06 -3.41394e-08 0)
(1.6044e-06 -3.13929e-08 0)
(1.6928e-06 -2.83437e-08 0)
(1.76998e-06 -2.50772e-08 0)
(1.8357e-06 -2.17067e-08 0)
(1.89022e-06 -1.80263e-08 0)
(1.93293e-06 -1.45e-08 0)
(1.9637e-06 -1.11935e-08 0)
(1.98293e-06 -7.54096e-09 0)
(1.99022e-06 -3.7412e-09 0)
(1.98561e-06 -2.55661e-10 0)
(1.96974e-06 3.027e-09 0)
(1.94275e-06 6.30451e-09 0)
(1.90466e-06 9.46623e-09 0)
(1.85589e-06 1.25434e-08 0)
(1.7969e-06 1.5611e-08 0)
(1.72801e-06 1.85195e-08 0)
(1.64965e-06 2.10619e-08 0)
(1.56239e-06 2.33682e-08 0)
(1.4667e-06 2.58053e-08 0)
(1.363e-06 2.83094e-08 0)
(1.25174e-06 3.0519e-08 0)
(1.13351e-06 3.24351e-08 0)
(1.00896e-06 3.42602e-08 0)
(8.78548e-07 3.59839e-08 0)
(7.42766e-07 3.74654e-08 0)
(6.02344e-07 3.86928e-08 0)
(4.579e-07 3.97869e-08 0)
(3.09894e-07 4.07727e-08 0)
(1.58874e-07 4.15428e-08 0)
(5.49374e-09 4.20836e-08 0)
(-1.49634e-07 4.25063e-08 0)
(-3.05978e-07 4.2869e-08 0)
(-4.63045e-07 4.30414e-08 0)
(-6.20275e-07 4.29705e-08 0)
(-7.77059e-07 4.27925e-08 0)
(-9.32933e-07 4.26256e-08 0)
(-1.08745e-06 4.24127e-08 0)
(-1.24009e-06 4.19863e-08 0)
(-1.39029e-06 4.1273e-08 0)
(-1.53751e-06 4.03103e-08 0)
(-1.68129e-06 3.91344e-08 0)
(-1.82128e-06 3.7793e-08 0)
(-1.95704e-06 3.64212e-08 0)
(-2.08816e-06 3.51698e-08 0)
(-2.21429e-06 3.40102e-08 0)
(-2.33502e-06 3.27294e-08 0)
(-2.44998e-06 3.11315e-08 0)
(-2.55888e-06 2.92046e-08 0)
(-2.66142e-06 2.71567e-08 0)
(-2.75723e-06 2.52265e-08 0)
(-2.84603e-06 2.34107e-08 0)
(-2.92768e-06 2.15033e-08 0)
(-3.00197e-06 1.93858e-08 0)
(-3.06864e-06 1.71372e-08 0)
(-3.12743e-06 1.48942e-08 0)
(-3.17824e-06 1.27168e-08 0)
(-3.22097e-06 1.05548e-08 0)
(-3.25544e-06 8.30062e-09 0)
(-3.28155e-06 5.92837e-09 0)
(-3.29926e-06 3.52489e-09 0)
(-3.30857e-06 1.14295e-09 0)
(-3.30941e-06 -1.25554e-09 0)
(-3.30176e-06 -3.68314e-09 0)
(-3.28561e-06 -6.05932e-09 0)
(-3.261e-06 -8.29388e-09 0)
(-3.22803e-06 -1.04146e-08 0)
(-3.18685e-06 -1.25953e-08 0)
(-3.1375e-06 -1.49665e-08 0)
(-3.08002e-06 -1.74059e-08 0)
(-3.01458e-06 -1.96732e-08 0)
(-2.94146e-06 -2.16833e-08 0)
(-2.86094e-06 -2.35579e-08 0)
(-2.77315e-06 -2.54772e-08 0)
(-2.67822e-06 -2.74648e-08 0)
(-2.57644e-06 -2.93855e-08 0)
(-2.46815e-06 -3.11469e-08 0)
(-2.35365e-06 -3.27649e-08 0)
(-2.23325e-06 -3.43066e-08 0)
(-2.10729e-06 -3.57944e-08 0)
(-1.97617e-06 -3.71696e-08 0)
(-1.84023e-06 -3.84083e-08 0)
(-1.69978e-06 -3.95512e-08 0)
(-1.55522e-06 -4.06292e-08 0)
(-1.40701e-06 -4.16261e-08 0)
(-1.25557e-06 -4.24722e-08 0)
(-1.10135e-06 -4.31151e-08 0)
(-9.44757e-07 -4.3586e-08 0)
(-7.86264e-07 -4.39479e-08 0)
(-6.26378e-07 -4.42352e-08 0)
(-4.65602e-07 -4.44209e-08 0)
(-3.04458e-07 -4.44348e-08 0)
(-1.43399e-07 -4.42673e-08 0)
(1.7072e-08 -4.39438e-08 0)
(1.76336e-07 -4.34596e-08 0)
(3.33844e-07 -4.28338e-08 0)
(4.89072e-07 -4.20694e-08 0)
(6.41518e-07 -4.11511e-08 0)
(7.90747e-07 -4.01166e-08 0)
(9.36177e-07 -3.89491e-08 0)
(1.07714e-06 -3.75532e-08 0)
(1.21313e-06 -3.59296e-08 0)
(1.3437e-06 -3.41793e-08 0)
(1.46836e-06 -3.23655e-08 0)
(1.58655e-06 -3.04789e-08 0)
(1.6977e-06 -2.84579e-08 0)
(1.80134e-06 -2.62383e-08 0)
(1.89707e-06 -2.38178e-08 0)
(1.9844e-06 -2.121e-08 0)
(2.06279e-06 -1.84476e-08 0)
(2.13184e-06 -1.5668e-08 0)
(2.19123e-06 -1.29588e-08 0)
(2.24062e-06 -1.01534e-08 0)
(2.27964e-06 -7.01428e-09 0)
(2.30786e-06 -3.57917e-09 0)
(2.32506e-06 -1.60177e-10 0)
(2.33119e-06 3.05057e-09 0)
(2.326e-06 6.21248e-09 0)
(2.30926e-06 9.5274e-09 0)
(2.28101e-06 1.28977e-08 0)
(2.24144e-06 1.61732e-08 0)
(2.19054e-06 1.94853e-08 0)
(2.1283e-06 2.29954e-08 0)
(2.05489e-06 2.65058e-08 0)
(1.97073e-06 2.96615e-08 0)
(1.87641e-06 3.23991e-08 0)
(1.77251e-06 3.49609e-08 0)
(1.65956e-06 3.75697e-08 0)
(1.53828e-06 4.01585e-08 0)
(1.40977e-06 4.2385e-08 0)
(1.27529e-06 4.3996e-08 0)
(1.1361e-06 4.50677e-08 0)
(9.93693e-07 4.57226e-08 0)
(8.49989e-07 4.58572e-08 0)
(7.07133e-07 4.52806e-08 0)
(5.67589e-07 4.38392e-08 0)
(4.34328e-07 4.13439e-08 0)
(3.1066e-07 3.75739e-08 0)
(2.0033e-07 3.22611e-08 0)
(1.07799e-07 2.51014e-08 0)
(3.77603e-08 1.60445e-08 0)
(-5.60923e-09 5.439e-09 0)
(-1.99845e-08 -5.40163e-09 0)
(-1.01399e-08 -9.83843e-09 0)
(9.6774e-08 -4.45439e-09 0)
(1.35114e-07 1.0005e-07 0)
(1.55159e-07 6.90982e-09 0)
(2.46043e-07 -7.08306e-08 0)
(4.14461e-07 -1.40976e-07 0)
(6.4391e-07 -1.93094e-07 0)
(9.213e-07 -2.28537e-07 0)
(1.23265e-06 -2.51986e-07 0)
(1.56748e-06 -2.6538e-07 0)
(1.91585e-06 -2.71712e-07 0)
(2.26868e-06 -2.72119e-07 0)
(2.62053e-06 -2.67324e-07 0)
(2.96435e-06 -2.59122e-07 0)
(3.29553e-06 -2.47952e-07 0)
(3.61033e-06 -2.33779e-07 0)
(3.90414e-06 -2.17615e-07 0)
(4.17464e-06 -1.99384e-07 0)
(4.41965e-06 -1.79621e-07 0)
(4.63654e-06 -1.59098e-07 0)
(4.82393e-06 -1.37613e-07 0)
(4.98073e-06 -1.15189e-07 0)
(5.1056e-06 -9.21933e-08 0)
(5.19814e-06 -6.91619e-08 0)
(5.25832e-06 -4.59937e-08 0)
(5.28553e-06 -2.26995e-08 0)
(5.27982e-06 4.42332e-10 0)
(5.24172e-06 2.33451e-08 0)
(5.17152e-06 4.58691e-08 0)
(5.06982e-06 6.77621e-08 0)
(4.93742e-06 8.89815e-08 0)
(4.77512e-06 1.09617e-07 0)
(4.58392e-06 1.29668e-07 0)
(4.36502e-06 1.48888e-07 0)
(4.11958e-06 1.66997e-07 0)
(3.84884e-06 1.8407e-07 0)
(3.55418e-06 2.00373e-07 0)
(3.23696e-06 2.1578e-07 0)
(2.89865e-06 2.30045e-07 0)
(2.54088e-06 2.43251e-07 0)
(2.16522e-06 2.55415e-07 0)
(1.77316e-06 2.66401e-07 0)
(1.36631e-06 2.76212e-07 0)
(9.46428e-07 2.84901e-07 0)
(5.15174e-07 2.92459e-07 0)
(7.41169e-08 2.98867e-07 0)
(-3.75181e-07 3.04063e-07 0)
(-8.31087e-07 3.08102e-07 0)
(-1.29185e-06 3.111e-07 0)
(-1.75584e-06 3.13058e-07 0)
(-2.22161e-06 3.13863e-07 0)
(-2.68754e-06 3.13527e-07 0)
(-3.15195e-06 3.12163e-07 0)
(-3.61335e-06 3.09846e-07 0)
(-4.07039e-06 3.06548e-07 0)
(-4.52163e-06 3.02214e-07 0)
(-4.96557e-06 2.96935e-07 0)
(-5.40067e-06 2.90744e-07 0)
(-5.82561e-06 2.83538e-07 0)
(-6.23922e-06 2.75317e-07 0)
(-6.64023e-06 2.66231e-07 0)
(-7.02752e-06 2.56494e-07 0)
(-7.40004e-06 2.4624e-07 0)
(-7.75666e-06 2.35369e-07 0)
(-8.09628e-06 2.23665e-07 0)
(-8.41798e-06 2.111e-07 0)
(-8.72084e-06 1.97897e-07 0)
(-9.00401e-06 1.84278e-07 0)
(-9.26678e-06 1.70233e-07 0)
(-9.50841e-06 1.55669e-07 0)
(-9.72809e-06 1.40616e-07 0)
(-9.92523e-06 1.25182e-07 0)
(-1.00994e-05 1.09428e-07 0)
(-1.02503e-05 9.34023e-08 0)
(-1.03775e-05 7.71792e-08 0)
(-1.04804e-05 6.07584e-08 0)
(-1.05589e-05 4.41152e-08 0)
(-1.06127e-05 2.73102e-08 0)
(-1.06416e-05 1.04143e-08 0)
(-1.06455e-05 -6.55349e-09 0)
(-1.06247e-05 -2.35492e-08 0)
(-1.05789e-05 -4.04575e-08 0)
(-1.05083e-05 -5.71651e-08 0)
(-1.04132e-05 -7.36362e-08 0)
(-1.02937e-05 -8.99218e-08 0)
(-1.01503e-05 -1.0609e-07 0)
(-9.98329e-06 -1.22077e-07 0)
(-9.79298e-06 -1.37718e-07 0)
(-9.57995e-06 -1.52909e-07 0)
(-9.34482e-06 -1.6761e-07 0)
(-9.08822e-06 -1.81858e-07 0)
(-8.8108e-06 -1.95701e-07 0)
(-8.51331e-06 -2.0905e-07 0)
(-8.19653e-06 -2.21777e-07 0)
(-7.86133e-06 -2.33843e-07 0)
(-7.50868e-06 -2.45282e-07 0)
(-7.13957e-06 -2.56126e-07 0)
(-6.75505e-06 -2.66255e-07 0)
(-6.35609e-06 -2.75532e-07 0)
(-5.94372e-06 -2.83977e-07 0)
(-5.51915e-06 -2.91672e-07 0)
(-5.08363e-06 -2.98637e-07 0)
(-4.63842e-06 -3.04784e-07 0)
(-4.18484e-06 -3.09963e-07 0)
(-3.72414e-06 -3.14125e-07 0)
(-3.25762e-06 -3.17323e-07 0)
(-2.78662e-06 -3.19608e-07 0)
(-2.31261e-06 -3.20977e-07 0)
(-1.83719e-06 -3.21329e-07 0)
(-1.36185e-06 -3.20595e-07 0)
(-8.8797e-07 -3.18822e-07 0)
(-4.17055e-07 -3.16013e-07 0)
(4.93279e-08 -3.12144e-07 0)
(5.09537e-07 -3.07199e-07 0)
(9.61909e-07 -3.01128e-07 0)
(1.40505e-06 -2.93995e-07 0)
(1.83761e-06 -2.85896e-07 0)
(2.25794e-06 -2.76732e-07 0)
(2.66433e-06 -2.664e-07 0)
(3.05526e-06 -2.55e-07 0)
(3.42933e-06 -2.42651e-07 0)
(3.78509e-06 -2.29363e-07 0)
(4.12107e-06 -2.1511e-07 0)
(4.43578e-06 -1.99844e-07 0)
(4.72791e-06 -1.83585e-07 0)
(4.9962e-06 -1.66427e-07 0)
(5.23935e-06 -1.48396e-07 0)
(5.45616e-06 -1.29546e-07 0)
(5.64558e-06 -1.10052e-07 0)
(5.80655e-06 -8.99678e-08 0)
(5.93807e-06 -6.91508e-08 0)
(6.03923e-06 -4.75596e-08 0)
(6.10939e-06 -2.54501e-08 0)
(6.14811e-06 -3.16502e-09 0)
(6.15495e-06 1.92063e-08 0)
(6.12949e-06 4.17936e-08 0)
(6.07165e-06 6.45591e-08 0)
(5.98163e-06 8.71994e-08 0)
(5.85963e-06 1.09492e-07 0)
(5.706e-06 1.31469e-07 0)
(5.52145e-06 1.53064e-07 0)
(5.30709e-06 1.73876e-07 0)
(5.06429e-06 1.93476e-07 0)
(4.79469e-06 2.11709e-07 0)
(4.50016e-06 2.28542e-07 0)
(4.183e-06 2.43816e-07 0)
(3.84602e-06 2.57094e-07 0)
(3.49258e-06 2.67746e-07 0)
(3.12645e-06 2.75281e-07 0)
(2.75195e-06 2.79413e-07 0)
(2.37419e-06 2.79704e-07 0)
(1.99901e-06 2.75487e-07 0)
(1.6329e-06 2.66057e-07 0)
(1.28318e-06 2.50631e-07 0)
(9.58068e-07 2.2836e-07 0)
(6.66387e-07 1.98472e-07 0)
(4.17527e-07 1.60361e-07 0)
(2.2069e-07 1.14186e-07 0)
(8.32372e-08 6.19467e-08 0)
(9.16515e-09 9.9774e-09 0)
(-6.17773e-09 -1.98515e-08 0)
(5.33117e-08 -5.40975e-08 0)
(1.4492e-07 -4.29313e-08 0)
(3.14534e-07 -1.31622e-07 0)
(5.37203e-07 -2.70056e-07 0)
(8.32137e-07 -4.05442e-07 0)
(1.1972e-06 -5.15956e-07 0)
(1.61828e-06 -5.99095e-07 0)
(2.08324e-06 -6.56483e-07 0)
(2.57903e-06 -6.92424e-07 0)
(3.09228e-06 -7.10829e-07 0)
(3.61312e-06 -7.13341e-07 0)
(4.13019e-06 -7.03382e-07 0)
(4.63547e-06 -6.82685e-07 0)
(5.12187e-06 -6.52348e-07 0)
(5.58198e-06 -6.14976e-07 0)
(6.01071e-06 -5.70842e-07 0)
(6.40331e-06 -5.20898e-07 0)
(6.75537e-06 -4.66897e-07 0)
(7.0642e-06 -4.09213e-07 0)
(7.32707e-06 -3.48628e-07 0)
(7.54142e-06 -2.86021e-07 0)
(7.70599e-06 -2.21864e-07 0)
(7.81979e-06 -1.56575e-07 0)
(7.88198e-06 -9.08893e-08 0)
(7.89235e-06 -2.52692e-08 0)
(7.85098e-06 4.01906e-08 0)
(7.75806e-06 1.04905e-07 0)
(7.6143e-06 1.6855e-07 0)
(7.42077e-06 2.30877e-07 0)
(7.17851e-06 2.91497e-07 0)
(6.88884e-06 3.50213e-07 0)
(6.55348e-06 4.06962e-07 0)
(6.17405e-06 4.61441e-07 0)
(5.75238e-06 5.13281e-07 0)
(5.29074e-06 5.62421e-07 0)
(4.79119e-06 6.08867e-07 0)
(4.25575e-06 6.52431e-07 0)
(3.6869e-06 6.92999e-07 0)
(3.08723e-06 7.30528e-07 0)
(2.45925e-06 7.64866e-07 0)
(1.80535e-06 7.95962e-07 0)
(1.12805e-06 8.23835e-07 0)
(4.3007e-07 8.48464e-07 0)
(-2.85848e-07 8.69859e-07 0)
(-1.01718e-06 8.87948e-07 0)
(-1.76139e-06 9.02664e-07 0)
(-2.51575e-06 9.14094e-07 0)
(-3.2775e-06 9.22361e-07 0)
(-4.04412e-06 9.27424e-07 0)
(-4.81318e-06 9.29266e-07 0)
(-5.58207e-06 9.28001e-07 0)
(-6.34806e-06 9.23692e-07 0)
(-7.10871e-06 9.16342e-07 0)
(-7.86181e-06 9.05959e-07 0)
(-8.60503e-06 8.92645e-07 0)
(-9.33596e-06 8.76628e-07 0)
(-1.00523e-05 8.58014e-07 0)
(-1.07521e-05 8.36787e-07 0)
(-1.14331e-05 8.13012e-07 0)
(-1.20933e-05 7.86734e-07 0)
(-1.27308e-05 7.5806e-07 0)
(-1.33437e-05 7.27283e-07 0)
(-1.39304e-05 6.94571e-07 0)
(-1.44895e-05 6.59862e-07 0)
(-1.50191e-05 6.23174e-07 0)
(-1.55175e-05 5.84682e-07 0)
(-1.59835e-05 5.4457e-07 0)
(-1.6416e-05 5.02981e-07 0)
(-1.6814e-05 4.60064e-07 0)
(-1.71761e-05 4.15922e-07 0)
(-1.75011e-05 3.70621e-07 0)
(-1.77884e-05 3.24277e-07 0)
(-1.80374e-05 2.77065e-07 0)
(-1.82474e-05 2.29153e-07 0)
(-1.84178e-05 1.80656e-07 0)
(-1.8548e-05 1.31671e-07 0)
(-1.86376e-05 8.23489e-08 0)
(-1.86867e-05 3.28033e-08 0)
(-1.86949e-05 -1.69183e-08 0)
(-1.86623e-05 -6.66938e-08 0)
(-1.85888e-05 -1.16311e-07 0)
(-1.84746e-05 -1.65575e-07 0)
(-1.83201e-05 -2.14359e-07 0)
(-1.81259e-05 -2.6257e-07 0)
(-1.78923e-05 -3.1011e-07 0)
(-1.76199e-05 -3.56847e-07 0)
(-1.73093e-05 -4.02624e-07 0)
(-1.69615e-05 -4.47327e-07 0)
(-1.65773e-05 -4.90841e-07 0)
(-1.61579e-05 -5.33042e-07 0)
(-1.57042e-05 -5.73855e-07 0)
(-1.52175e-05 -6.13145e-07 0)
(-1.4699e-05 -6.5072e-07 0)
(-1.41502e-05 -6.86483e-07 0)
(-1.35726e-05 -7.20395e-07 0)
(-1.29678e-05 -7.52403e-07 0)
(-1.23374e-05 -7.82363e-07 0)
(-1.1683e-05 -8.10067e-07 0)
(-1.10064e-05 -8.35423e-07 0)
(-1.03097e-05 -8.58426e-07 0)
(-9.59474e-06 -8.79035e-07 0)
(-8.86357e-06 -8.9719e-07 0)
(-8.11824e-06 -9.12765e-07 0)
(-7.3609e-06 -9.25594e-07 0)
(-6.59373e-06 -9.35606e-07 0)
(-5.81896e-06 -9.42795e-07 0)
(-5.03889e-06 -9.47179e-07 0)
(-4.25594e-06 -9.48714e-07 0)
(-3.47257e-06 -9.47229e-07 0)
(-2.69118e-06 -9.42629e-07 0)
(-1.91418e-06 -9.34946e-07 0)
(-1.14404e-06 -9.24211e-07 0)
(-3.83286e-07 -9.10444e-07 0)
(3.65459e-07 -8.93553e-07 0)
(1.09967e-06 -8.73434e-07 0)
(1.81701e-06 -8.50215e-07 0)
(2.51507e-06 -8.24033e-07 0)
(3.19122e-06 -7.94816e-07 0)
(3.84286e-06 -7.62523e-07 0)
(4.46763e-06 -7.27259e-07 0)
(5.06325e-06 -6.8911e-07 0)
(5.6274e-06 -6.48149e-07 0)
(6.15784e-06 -6.0445e-07 0)
(6.65236e-06 -5.58023e-07 0)
(7.10881e-06 -5.08966e-07 0)
(7.52517e-06 -4.57455e-07 0)
(7.89952e-06 -4.03601e-07 0)
(8.23018e-06 -3.47622e-07 0)
(8.51567e-06 -2.89822e-07 0)
(8.75448e-06 -2.30306e-07 0)
(8.94507e-06 -1.69097e-07 0)
(9.08629e-06 -1.06467e-07 0)
(9.17745e-06 -4.28581e-08 0)
(9.21795e-06 2.13909e-08 0)
(9.20722e-06 8.60323e-08 0)
(9.14513e-06 1.50761e-07 0)
(9.03191e-06 2.15148e-07 0)
(8.86805e-06 2.78693e-07 0)
(8.6543e-06 3.40981e-07 0)
(8.39176e-06 4.01667e-07 0)
(8.08208e-06 4.60197e-07 0)
(7.72753e-06 5.15788e-07 0)
(7.33082e-06 5.67708e-07 0)
(6.89499e-06 6.15298e-07 0)
(6.42369e-06 6.57802e-07 0)
(5.92136e-06 6.94295e-07 0)
(5.39317e-06 7.23698e-07 0)
(4.84505e-06 7.44825e-07 0)
(4.28378e-06 7.5645e-07 0)
(3.71708e-06 7.57266e-07 0)
(3.15362e-06 7.45779e-07 0)
(2.60306e-06 7.20343e-07 0)
(2.07603e-06 6.79294e-07 0)
(1.584e-06 6.21022e-07 0)
(1.13909e-06 5.44208e-07 0)
(7.53773e-07 4.48347e-07 0)
(4.39722e-07 3.34859e-07 0)
(2.05964e-07 2.08862e-07 0)
(5.97312e-08 8.32087e-08 0)
(4.54266e-09 -6.54794e-09 0)
(4.31169e-08 -1.73081e-07 0)
(1.67603e-07 -2.38209e-07 0)
(4.18471e-07 -3.86169e-07 0)
(7.49174e-07 -5.9587e-07 0)
(1.16025e-06 -8.02251e-07 0)
(1.64554e-06 -9.77904e-07 0)
(2.19348e-06 -1.11407e-06 0)
(2.78927e-06 -1.21097e-06 0)
(3.41785e-06 -1.27346e-06 0)
(4.06656e-06 -1.30425e-06 0)
(4.72079e-06 -1.30864e-06 0)
(5.36902e-06 -1.2898e-06 0)
(6.00073e-06 -1.25014e-06 0)
(6.60545e-06 -1.19364e-06 0)
(7.17566e-06 -1.12228e-06 0)
(7.70442e-06 -1.03826e-06 0)
(8.18454e-06 -9.43922e-07 0)
(8.61128e-06 -8.40674e-07 0)
(8.98041e-06 -7.30141e-07 0)
(9.28802e-06 -6.14167e-07 0)
(9.53163e-06 -4.93908e-07 0)
(9.70897e-06 -3.704e-07 0)
(9.81844e-06 -2.44788e-07 0)
(9.85914e-06 -1.18106e-07 0)
(9.83071e-06 8.84446e-09 0)
(9.73317e-06 1.35135e-07 0)
(9.56689e-06 2.6007e-07 0)
(9.33274e-06 3.83143e-07 0)
(9.03183e-06 5.03669e-07 0)
(8.66573e-06 6.20975e-07 0)
(8.23645e-06 7.34709e-07 0)
(7.746e-06 8.44415e-07 0)
(7.19649e-06 9.49611e-07 0)
(6.59051e-06 1.05008e-06 0)
(5.93098e-06 1.1455e-06 0)
(5.22066e-06 1.23542e-06 0)
(4.46248e-06 1.31967e-06 0)
(3.65974e-06 1.39821e-06 0)
(2.81573e-06 1.47082e-06 0)
(1.93377e-06 1.53725e-06 0)
(1.0173e-06 1.59731e-06 0)
(6.9773e-08 1.65104e-06 0)
(-9.05202e-07 1.69847e-06 0)
(-1.90409e-06 1.73953e-06 0)
(-2.92343e-06 1.77408e-06 0)
(-3.95957e-06 1.80218e-06 0)
(-5.00883e-06 1.82394e-06 0)
(-6.06764e-06 1.8394e-06 0)
(-7.13257e-06 1.84847e-06 0)
(-8.20011e-06 1.85126e-06 0)
(-9.26674e-06 1.84805e-06 0)
(-1.0329e-05 1.83892e-06 0)
(-1.13836e-05 1.8238e-06 0)
(-1.24272e-05 1.80277e-06 0)
(-1.34566e-05 1.77602e-06 0)
(-1.44686e-05 1.7438e-06 0)
(-1.54603e-05 1.7063e-06 0)
(-1.64288e-05 1.66369e-06 0)
(-1.73714e-05 1.61619e-06 0)
(-1.82851e-05 1.56401e-06 0)
(-1.91673e-05 1.50726e-06 0)
(-2.00153e-05 1.44609e-06 0)
(-2.0827e-05 1.38073e-06 0)
(-2.16002e-05 1.3115e-06 0)
(-2.23328e-05 1.23872e-06 0)
(-2.30224e-05 1.16254e-06 0)
(-2.36673e-05 1.083e-06 0)
(-2.42658e-05 1.00038e-06 0)
(-2.48164e-05 9.15097e-07 0)
(-2.53175e-05 8.27488e-07 0)
(-2.57677e-05 7.37719e-07 0)
(-2.6166e-05 6.4595e-07 0)
(-2.65111e-05 5.52377e-07 0)
(-2.68023e-05 4.57279e-07 0)
(-2.70389e-05 3.61001e-07 0)
(-2.722e-05 2.6381e-07 0)
(-2.73452e-05 1.65903e-07 0)
(-2.74143e-05 6.75087e-08 0)
(-2.74272e-05 -3.11017e-08 0)
(-2.73838e-05 -1.29615e-07 0)
(-2.72839e-05 -2.2776e-07 0)
(-2.7128e-05 -3.25355e-07 0)
(-2.69165e-05 -4.22189e-07 0)
(-2.665e-05 -5.17935e-07 0)
(-2.63291e-05 -6.12259e-07 0)
(-2.59548e-05 -7.04932e-07 0)
(-2.55278e-05 -7.95759e-07 0)
(-2.50493e-05 -8.84519e-07 0)
(-2.45205e-05 -9.70977e-07 0)
(-2.3943e-05 -1.05486e-06 0)
(-2.33182e-05 -1.13592e-06 0)
(-2.26477e-05 -1.21395e-06 0)
(-2.19332e-05 -1.2887e-06 0)
(-2.11767e-05 -1.35998e-06 0)
(-2.03803e-05 -1.42759e-06 0)
(-1.95461e-05 -1.49131e-06 0)
(-1.86762e-05 -1.55093e-06 0)
(-1.77729e-05 -1.60627e-06 0)
(-1.68388e-05 -1.65711e-06 0)
(-1.58765e-05 -1.7033e-06 0)
(-1.48888e-05 -1.74469e-06 0)
(-1.38784e-05 -1.7811e-06 0)
(-1.2848e-05 -1.81245e-06 0)
(-1.18005e-05 -1.83853e-06 0)
(-1.07389e-05 -1.85915e-06 0)
(-9.66651e-06 -1.8742e-06 0)
(-8.58635e-06 -1.88359e-06 0)
(-7.50164e-06 -1.88729e-06 0)
(-6.41558e-06 -1.88518e-06 0)
(-5.33154e-06 -1.87706e-06 0)
(-4.25292e-06 -1.86286e-06 0)
(-3.18308e-06 -1.8426e-06 0)
(-2.1254e-06 -1.81632e-06 0)
(-1.08328e-06 -1.78401e-06 0)
(-6.01941e-08 -1.74554e-06 0)
(9.40418e-07 -1.70086e-06 0)
(1.91528e-06 -1.6502e-06 0)
(2.86104e-06 -1.59369e-06 0)
(3.77423e-06 -1.53127e-06 0)
(4.65153e-06 -1.463e-06 0)
(5.4898e-06 -1.38902e-06 0)
(6.2859e-06 -1.30945e-06 0)
(7.0368e-06 -1.22448e-06 0)
(7.73961e-06 -1.13432e-06 0)
(8.39143e-06 -1.03918e-06 0)
(8.98956e-06 -9.3932e-07 0)
(9.53144e-06 -8.34974e-07 0)
(1.00146e-05 -7.26344e-07 0)
(1.0437e-05 -6.139e-07 0)
(1.07969e-05 -4.9822e-07 0)
(1.10924e-05 -3.79656e-07 0)
(1.13219e-05 -2.58507e-07 0)
(1.14843e-05 -1.35349e-07 0)
(1.15788e-05 -1.08853e-08 0)
(1.16048e-05 1.1427e-07 0)
(1.15621e-05 2.39502e-07 0)
(1.14509e-05 3.64063e-07 0)
(1.12721e-05 4.87055e-07 0)
(1.10267e-05 6.07481e-07 0)
(1.07165e-05 7.2442e-07 0)
(1.03436e-05 8.36978e-07 0)
(9.91071e-06 9.43994e-07 0)
(9.42153e-06 1.04403e-06 0)
(8.88036e-06 1.13558e-06 0)
(8.29206e-06 1.21712e-06 0)
(7.66241e-06 1.28697e-06 0)
(6.99816e-06 1.34328e-06 0)
(6.30698e-06 1.38396e-06 0)
(5.59762e-06 1.40681e-06 0)
(4.87995e-06 1.40941e-06 0)
(4.16485e-06 1.3892e-06 0)
(3.46427e-06 1.34349e-06 0)
(2.79125e-06 1.26963e-06 0)
(2.15967e-06 1.16522e-06 0)
(1.58386e-06 1.02864e-06 0)
(1.07832e-06 8.59826e-07 0)
(6.56741e-07 6.61611e-07 0)
(3.30261e-07 4.41983e-07 0)
(1.11219e-07 2.18797e-07 0)
(1.51359e-08 3.54452e-08 0)
(3.71207e-08 -2.55915e-07 0)
(1.84578e-07 -4.69655e-07 0)
(4.96976e-07 -7.2087e-07 0)
(9.15357e-07 -1.02e-06 0)
(1.42272e-06 -1.30817e-06 0)
(2.01059e-06 -1.5532e-06 0)
(2.66413e-06 -1.74519e-06 0)
(3.36667e-06 -1.88446e-06 0)
(4.10348e-06 -1.97246e-06 0)
(4.85796e-06 -2.01567e-06 0)
(5.61569e-06 -2.01854e-06 0)
(6.36368e-06 -1.98543e-06 0)
(7.0887e-06 -1.92163e-06 0)
(7.77991e-06 -1.83051e-06 0)
(8.42789e-06 -1.71572e-06 0)
(9.0237e-06 -1.58131e-06 0)
(9.56028e-06 -1.43013e-06 0)
(1.00312e-05 -1.26462e-06 0)
(1.04311e-05 -1.08772e-06 0)
(1.07556e-05 -9.01516e-07 0)
(1.10014e-05 -7.08185e-07 0)
(1.11659e-05 -5.09721e-07 0)
(1.12472e-05 -3.07726e-07 0)
(1.1244e-05 -1.03815e-07 0)
(1.11557e-05 1.00678e-07 0)
(1.09824e-05 3.04248e-07 0)
(1.07247e-05 5.05762e-07 0)
(1.03835e-05 7.04151e-07 0)
(9.96022e-06 8.98433e-07 0)
(9.45674e-06 1.08782e-06 0)
(8.87542e-06 1.27146e-06 0)
(8.2187e-06 1.44845e-06 0)
(7.4895e-06 1.6182e-06 0)
(6.69092e-06 1.78034e-06 0)
(5.82623e-06 1.93427e-06 0)
(4.89899e-06 2.07939e-06 0)
(3.91306e-06 2.21542e-06 0)
(2.87241e-06 2.34206e-06 0)
(1.78099e-06 2.45903e-06 0)
(6.4291e-07 2.56603e-06 0)
(-5.37478e-07 2.66284e-06 0)
(-1.75575e-06 2.74936e-06 0)
(-3.00757e-06 2.82555e-06 0)
(-4.28859e-06 2.89125e-06 0)
(-5.59435e-06 2.94641e-06 0)
(-6.92025e-06 2.99114e-06 0)
(-8.2618e-06 3.02552e-06 0)
(-9.61466e-06 3.0495e-06 0)
(-1.09744e-05 3.06311e-06 0)
(-1.23365e-05 3.06654e-06 0)
(-1.36966e-05 3.06002e-06 0)
(-1.50506e-05 3.04371e-06 0)
(-1.63943e-05 3.01772e-06 0)
(-1.77236e-05 2.98227e-06 0)
(-1.90344e-05 2.93763e-06 0)
(-2.03226e-05 2.88399e-06 0)
(-2.15847e-05 2.82159e-06 0)
(-2.28169e-05 2.75069e-06 0)
(-2.40156e-05 2.6717e-06 0)
(-2.51776e-05 2.58511e-06 0)
(-2.62994e-05 2.49122e-06 0)
(-2.73779e-05 2.39016e-06 0)
(-2.84101e-05 2.28216e-06 0)
(-2.93931e-05 2.1677e-06 0)
(-3.03241e-05 2.04734e-06 0)
(-3.12009e-05 1.92143e-06 0)
(-3.2021e-05 1.79019e-06 0)
(-3.27821e-05 1.65398e-06 0)
(-3.34822e-05 1.5133e-06 0)
(-3.41194e-05 1.36861e-06 0)
(-3.46922e-05 1.22033e-06 0)
(-3.51989e-05 1.06884e-06 0)
(-3.56385e-05 9.14508e-07 0)
(-3.60096e-05 7.57712e-07 0)
(-3.63111e-05 5.98946e-07 0)
(-3.65425e-05 4.38649e-07 0)
(-3.6703e-05 2.77138e-07 0)
(-3.67924e-05 1.14786e-07 0)
(-3.68103e-05 -4.7919e-08 0)
(-3.67567e-05 -2.10439e-07 0)
(-3.66317e-05 -3.72317e-07 0)
(-3.64357e-05 -5.33239e-07 0)
(-3.61691e-05 -6.92881e-07 0)
(-3.58327e-05 -8.50793e-07 0)
(-3.54273e-05 -1.00647e-06 0)
(-3.4954e-05 -1.15948e-06 0)
(-3.44139e-05 -1.30944e-06 0)
(-3.38085e-05 -1.45595e-06 0)
(-3.31393e-05 -1.5987e-06 0)
(-3.2408e-05 -1.73729e-06 0)
(-3.16166e-05 -1.87127e-06 0)
(-3.07671e-05 -2.00023e-06 0)
(-2.98616e-05 -2.12386e-06 0)
(-2.89027e-05 -2.24185e-06 0)
(-2.78929e-05 -2.35385e-06 0)
(-2.68349e-05 -2.45942e-06 0)
(-2.57313e-05 -2.55822e-06 0)
(-2.4585e-05 -2.65003e-06 0)
(-2.33994e-05 -2.73456e-06 0)
(-2.21776e-05 -2.81152e-06 0)
(-2.0923e-05 -2.88061e-06 0)
(-1.96392e-05 -2.94151e-06 0)
(-1.83296e-05 -2.99398e-06 0)
(-1.69977e-05 -3.03785e-06 0)
(-1.56475e-05 -3.07288e-06 0)
(-1.42828e-05 -3.09886e-06 0)
(-1.29076e-05 -3.11556e-06 0)
(-1.1526e-05 -3.1228e-06 0)
(-1.01419e-05 -3.12051e-06 0)
(-8.75946e-06 -3.10852e-06 0)
(-7.38298e-06 -3.08667e-06 0)
(-6.01675e-06 -3.05491e-06 0)
(-4.66497e-06 -3.01324e-06 0)
(-3.33184e-06 -2.96166e-06 0)
(-2.02159e-06 -2.90016e-06 0)
(-7.38631e-07 -2.82866e-06 0)
(5.12765e-07 -2.74724e-06 0)
(1.72853e-06 -2.65613e-06 0)
(2.90447e-06 -2.55548e-06 0)
(4.03642e-06 -2.44534e-06 0)
(5.12045e-06 -2.32591e-06 0)
(6.15264e-06 -2.19742e-06 0)
(7.12916e-06 -2.06007e-06 0)
(8.04637e-06 -1.91423e-06 0)
(8.90073e-06 -1.76032e-06 0)
(9.68892e-06 -1.59881e-06 0)
(1.04079e-05 -1.43017e-06 0)
(1.10547e-05 -1.25481e-06 0)
(1.16265e-05 -1.07317e-06 0)
(1.2121e-05 -8.86035e-07 0)
(1.25362e-05 -6.94281e-07 0)
(1.28703e-05 -4.98626e-07 0)
(1.31216e-05 -2.99817e-07 0)
(1.32893e-05 -9.88749e-08 0)
(1.33727e-05 1.0308e-07 0)
(1.33717e-05 3.04982e-07 0)
(1.32865e-05 5.05705e-07 0)
(1.31179e-05 7.03948e-07 0)
(1.28674e-05 8.98169e-07 0)
(1.25373e-05 1.08666e-06 0)
(1.21302e-05 1.26772e-06 0)
(1.16497e-05 1.43959e-06 0)
(1.10998e-05 1.60028e-06 0)
(1.04858e-05 1.74746e-06 0)
(9.81384e-06 1.87859e-06 0)
(9.09077e-06 1.991e-06 0)
(8.32467e-06 2.08188e-06 0)
(7.52467e-06 2.1481e-06 0)
(6.70109e-06 2.18634e-06 0)
(5.86534e-06 2.19308e-06 0)
(5.03003e-06 2.16461e-06 0)
(4.20889e-06 2.09712e-06 0)
(3.41667e-06 1.98704e-06 0)
(2.66898e-06 1.83127e-06 0)
(1.98195e-06 1.62785e-06 0)
(1.3719e-06 1.37704e-06 0)
(8.54427e-07 1.08279e-06 0)
(4.43311e-07 7.54826e-07 0)
(1.57076e-07 4.13299e-07 0)
(2.40241e-08 1.03986e-07 0)
(3.5761e-08 -3.49972e-07 0)
(2.02955e-07 -7.36965e-07 0)
(5.63129e-07 -1.11765e-06 0)
(1.0497e-06 -1.52437e-06 0)
(1.63579e-06 -1.90218e-06 0)
(2.30661e-06 -2.22109e-06 0)
(3.04388e-06 -2.47163e-06 0)
(3.83161e-06 -2.65134e-06 0)
(4.65102e-06 -2.76506e-06 0)
(5.48536e-06 -2.81752e-06 0)
(6.31944e-06 -2.81442e-06 0)
(7.13761e-06 -2.76236e-06 0)
(7.92688e-06 -2.66699e-06 0)
(8.67503e-06 -2.53313e-06 0)
(9.37061e-06 -2.36624e-06 0)
(1.00045e-05 -2.17088e-06 0)
(1.05685e-05 -1.95119e-06 0)
(1.10551e-05 -1.71133e-06 0)
(1.14584e-05 -1.45479e-06 0)
(1.17735e-05 -1.18478e-06 0)
(1.19963e-05 -9.04275e-07 0)
(1.2124e-05 -6.1613e-07 0)
(1.21542e-05 -3.22901e-07 0)
(1.20856e-05 -2.67404e-08 0)
(1.19175e-05 2.70208e-07 0)
(1.16497e-05 5.66113e-07 0)
(1.12831e-05 8.59164e-07 0)
(1.08187e-05 1.14763e-06 0)
(1.02583e-05 1.43021e-06 0)
(9.60403e-06 1.7057e-06 0)
(8.85839e-06 1.97278e-06 0)
(8.02443e-06 2.23036e-06 0)
(7.10569e-06 2.47754e-06 0)
(6.10572e-06 2.71343e-06 0)
(5.02831e-06 2.93725e-06 0)
(3.87774e-06 3.14838e-06 0)
(2.65855e-06 3.34627e-06 0)
(1.37537e-06 3.53036e-06 0)
(3.29082e-08 3.7002e-06 0)
(-1.36398e-06 3.85546e-06 0)
(-2.81013e-06 3.99591e-06 0)
(-4.30036e-06 4.12135e-06 0)
(-5.82956e-06 4.23152e-06 0)
(-7.39251e-06 4.32628e-06 0)
(-8.98385e-06 4.40567e-06 0)
(-1.05981e-05 4.46975e-06 0)
(-1.22302e-05 4.51851e-06 0)
(-1.38748e-05 4.55196e-06 0)
(-1.55266e-05 4.57031e-06 0)
(-1.71802e-05 4.57378e-06 0)
(-1.88306e-05 4.56248e-06 0)
(-2.04727e-05 4.53663e-06 0)
(-2.21016e-05 4.49651e-06 0)
(-2.37124e-05 4.44252e-06 0)
(-2.53001e-05 4.37505e-06 0)
(-2.68603e-05 4.2944e-06 0)
(-2.83884e-05 4.20094e-06 0)
(-2.98799e-05 4.095e-06 0)
(-3.13306e-05 3.97704e-06 0)
(-3.27364e-05 3.84769e-06 0)
(-3.40934e-05 3.70747e-06 0)
(-3.5398e-05 3.55675e-06 0)
(-3.66466e-05 3.39602e-06 0)
(-3.78354e-05 3.22584e-06 0)
(-3.89614e-05 3.04674e-06 0)
(-4.00217e-05 2.8593e-06 0)
(-4.10135e-05 2.6641e-06 0)
(-4.19341e-05 2.46172e-06 0)
(-4.27809e-05 2.25274e-06 0)
(-4.35518e-05 2.03775e-06 0)
(-4.42448e-05 1.81736e-06 0)
(-4.48582e-05 1.59215e-06 0)
(-4.53904e-05 1.36276e-06 0)
(-4.58399e-05 1.12982e-06 0)
(-4.62055e-05 8.93951e-07 0)
(-4.64865e-05 6.55793e-07 0)
(-4.6682e-05 4.15878e-07 0)
(-4.67917e-05 1.74802e-07 0)
(-4.68151e-05 -6.67665e-08 0)
(-4.67522e-05 -3.08167e-07 0)
(-4.6603e-05 -5.48746e-07 0)
(-4.63683e-05 -7.87889e-07 0)
(-4.60485e-05 -1.02502e-06 0)
(-4.56444e-05 -1.25954e-06 0)
(-4.51569e-05 -1.49083e-06 0)
(-4.45874e-05 -1.71825e-06 0)
(-4.39372e-05 -1.94121e-06 0)
(-4.32081e-05 -2.15911e-06 0)
(-4.24021e-05 -2.37139e-06 0)
(-4.1521e-05 -2.57752e-06 0)
(-4.05671e-05 -2.77686e-06 0)
(-3.95429e-05 -2.96882e-06 0)
(-3.84511e-05 -3.15294e-06 0)
(-3.72946e-05 -3.32872e-06 0)
(-3.60763e-05 -3.49564e-06 0)
(-3.47993e-05 -3.65316e-06 0)
(-3.34671e-05 -3.80072e-06 0)
(-3.20832e-05 -3.93791e-06 0)
(-3.06513e-05 -4.06435e-06 0)
(-2.91753e-05 -4.17961e-06 0)
(-2.76592e-05 -4.28331e-06 0)
(-2.61072e-05 -4.375e-06 0)
(-2.45234e-05 -4.45421e-06 0)
(-2.29123e-05 -4.52067e-06 0)
(-2.12783e-05 -4.57408e-06 0)
(-1.9626e-05 -4.61418e-06 0)
(-1.79603e-05 -4.64066e-06 0)
(-1.62859e-05 -4.6532e-06 0)
(-1.46076e-05 -4.65158e-06 0)
(-1.29303e-05 -4.63572e-06 0)
(-1.12591e-05 -4.60547e-06 0)
(-9.5991e-06 -4.56066e-06 0)
(-7.95536e-06 -4.50122e-06 0)
(-6.33288e-06 -4.42713e-06 0)
(-4.73664e-06 -4.33845e-06 0)
(-3.1718e-06 -4.23522e-06 0)
(-1.64353e-06 -4.11744e-06 0)
(-1.56763e-07 -3.98529e-06 0)
(1.28362e-06 -3.83903e-06 0)
(2.67275e-06 -3.67889e-06 0)
(4.0059e-06 -3.50512e-06 0)
(5.27847e-06 -3.31809e-06 0)
(6.48593e-06 -3.1182e-06 0)
(7.62391e-06 -2.90589e-06 0)
(8.68819e-06 -2.68171e-06 0)
(9.67485e-06 -2.44631e-06 0)
(1.05804e-05 -2.20048e-06 0)
(1.14013e-05 -1.94498e-06 0)
(1.21345e-05 -1.68056e-06 0)
(1.27769e-05 -1.4081e-06 0)
(1.33263e-05 -1.12876e-06 0)
(1.37805e-05 -8.43831e-07 0)
(1.41378e-05 -5.54489e-07 0)
(1.43969e-05 -2.62028e-07 0)
(1.45572e-05 3.19564e-08 0)
(1.46186e-05 3.25727e-07 0)
(1.45815e-05 6.17551e-07 0)
(1.44467e-05 9.05604e-07 0)
(1.42159e-05 1.18781e-06 0)
(1.38917e-05 1.46177e-06 0)
(1.34774e-05 1.72491e-06 0)
(1.29769e-05 1.97452e-06 0)
(1.23952e-05 2.20773e-06 0)
(1.17381e-05 2.42145e-06 0)
(1.10125e-05 2.61216e-06 0)
(1.02264e-05 2.77611e-06 0)
(9.38902e-06 2.90932e-06 0)
(8.5105e-06 3.00753e-06 0)
(7.60242e-06 3.06619e-06 0)
(6.67753e-06 3.08055e-06 0)
(5.74963e-06 3.04579e-06 0)
(4.83376e-06 2.95706e-06 0)
(3.94606e-06 2.80981e-06 0)
(3.10351e-06 2.60025e-06 0)
(2.32373e-06 2.32599e-06 0)
(1.62486e-06 1.98724e-06 0)
(1.0247e-06 1.58822e-06 0)
(5.39985e-07 1.13906e-06 0)
(1.95443e-07 6.59852e-07 0)
(3.10807e-08 1.94885e-07 0)
(3.64312e-08 -4.54264e-07 0)
(2.21222e-07 -1.03401e-06 0)
(6.17567e-07 -1.56603e-06 0)
(1.15708e-06 -2.09205e-06 0)
(1.80448e-06 -2.56679e-06 0)
(2.53874e-06 -2.9635e-06 0)
(3.34135e-06 -3.27125e-06 0)
(4.19159e-06 -3.49117e-06 0)
(5.07088e-06 -3.62694e-06 0)
(5.96172e-06 -3.6843e-06 0)
(6.84617e-06 -3.67067e-06 0)
(7.70893e-06 -3.59321e-06 0)
(8.53585e-06 -3.45857e-06 0)
(9.3135e-06 -3.27405e-06 0)
(1.003e-05 -3.04563e-06 0)
(1.06752e-05 -2.7792e-06 0)
(1.12399e-05 -2.48043e-06 0)
(1.17163e-05 -2.15448e-06 0)
(1.20978e-05 -1.80608e-06 0)
(1.23791e-05 -1.4395e-06 0)
(1.25555e-05 -1.05874e-06 0)
(1.26237e-05 -6.67483e-07 0)
(1.25815e-05 -2.69168e-07 0)
(1.24272e-05 1.33143e-07 0)
(1.216e-05 5.36521e-07 0)
(1.178e-05 9.38555e-07 0)
(1.12876e-05 1.33677e-06 0)
(1.06845e-05 1.72894e-06 0)
(9.97258e-06 2.11318e-06 0)
(9.1542e-06 2.48762e-06 0)
(8.23227e-06 2.85063e-06 0)
(7.21029e-06 3.2009e-06 0)
(6.09214e-06 3.53702e-06 0)
(4.88192e-06 3.85768e-06 0)
(3.58406e-06 4.16189e-06 0)
(2.20348e-06 4.44884e-06 0)
(7.45216e-07 4.71771e-06 0)
(-7.85478e-07 4.96772e-06 0)
(-2.3831e-06 5.1982e-06 0)
(-4.04201e-06 5.40877e-06 0)
(-5.75637e-06 5.59907e-06 0)
(-7.52034e-06 5.76876e-06 0)
(-9.32803e-06 5.91751e-06 0)
(-1.11733e-05 6.0452e-06 0)
(-1.30501e-05 6.15187e-06 0)
(-1.49522e-05 6.23747e-06 0)
(-1.68736e-05 6.30192e-06 0)
(-1.88082e-05 6.34539e-06 0)
(-2.075e-05 6.36819e-06 0)
(-2.26928e-05 6.37053e-06 0)
(-2.46308e-05 6.3526e-06 0)
(-2.65582e-05 6.3147e-06 0)
(-2.84692e-05 6.2572e-06 0)
(-3.0358e-05 6.18058e-06 0)
(-3.22193e-05 6.08533e-06 0)
(-3.40476e-05 5.97191e-06 0)
(-3.58379e-05 5.84087e-06 0)
(-3.7585e-05 5.69286e-06 0)
(-3.92839e-05 5.52842e-06 0)
(-4.09298e-05 5.34815e-06 0)
(-4.25184e-05 5.15268e-06 0)