/*--------------------------------*- C++ -*----------------------------------*\
  =========                 |
  \\      /  F ield         | OpenFOAM: The Open Source CFD Toolbox
   \\    /   O peration     | Website:  https://openfoam.org
    \\  /    A nd           | Version:  7
     \\/     M anipulation  |
\*---------------------------------------------------------------------------*/
FoamFile
{
    version     2.0;
    format      ascii;
    class       surfaceScalarField;
    location    "0.3375";
    object      phi;
}
// * * * * * * * * * * * * * * * * * * * * * * * * * * * * * * * * * * * * * //

dimensions      [0 3 -1 0 0 0 0];

internalField   nonuniform List<scalar> 
25360
(
5.09533e-11
-5.31146e-11
1.92871e-10
-1.41922e-10
3.60261e-10
-1.67374e-10
5.05705e-10
-1.45441e-10
6.01093e-10
-9.53918e-11
6.30492e-10
-2.94031e-11
5.85723e-10
4.478e-11
4.63609e-10
1.22111e-10
2.64243e-10
1.99364e-10
-1.02109e-11
2.74458e-10
-3.56248e-10
3.46034e-10
-7.69547e-10
4.13299e-10
-1.2453e-09
4.75755e-10
-1.77847e-09
5.33163e-10
-2.36394e-09
5.85469e-10
-2.99669e-09
6.32749e-10
-3.67185e-09
6.75159e-10
-4.38477e-09
7.12918e-10
-5.13106e-09
7.46301e-10
-5.90667e-09
7.75608e-10
-6.70783e-09
8.01155e-10
-7.5311e-09
8.23268e-10
-8.37338e-09
8.42279e-10
-9.23188e-09
8.58502e-10
-1.01041e-08
8.72246e-10
-1.09879e-08
8.83819e-10
-1.18815e-08
8.93505e-10
-1.2783e-08
9.0157e-10
-1.36913e-08
9.08257e-10
-1.46051e-08
9.138e-10
-1.55235e-08
9.18416e-10
-1.64458e-08
9.22296e-10
-1.73714e-08
9.25618e-10
-1.83e-08
9.28544e-10
-1.92312e-08
9.31218e-10
-2.01649e-08
9.33766e-10
-2.11012e-08
9.36299e-10
-2.20402e-08
9.38918e-10
-2.29819e-08
9.41713e-10
-2.39266e-08
9.44761e-10
-2.48748e-08
9.48127e-10
-2.58266e-08
9.51867e-10
-2.67827e-08
9.56031e-10
-2.77433e-08
9.60661e-10
-2.87091e-08
9.65789e-10
-2.96805e-08
9.71443e-10
-3.06582e-08
9.77643e-10
-3.16426e-08
9.84406e-10
-3.26343e-08
9.91746e-10
-3.3634e-08
9.9967e-10
-3.46422e-08
1.00818e-09
-3.56595e-08
1.01728e-09
-3.66864e-08
1.02695e-09
-3.77236e-08
1.03721e-09
-3.87717e-08
1.04803e-09
-3.98311e-08
1.0594e-09
-4.09024e-08
1.0713e-09
-4.19861e-08
1.08371e-09
-4.30827e-08
1.0966e-09
-4.41926e-08
1.10994e-09
-4.53163e-08
1.1237e-09
-4.64542e-08
1.13785e-09
-4.76065e-08
1.15233e-09
-4.87736e-08
1.1671e-09
-4.99557e-08
1.18211e-09
-5.1153e-08
1.19729e-09
-5.23656e-08
1.21259e-09
-5.35935e-08
1.22792e-09
-5.48367e-08
1.24323e-09
-5.60951e-08
1.25841e-09
-5.73685e-08
1.27338e-09
-5.86565e-08
1.28804e-09
-5.99588e-08
1.30228e-09
-6.12748e-08
1.31599e-09
-6.26039e-08
1.32905e-09
-6.39452e-08
1.34132e-09
-6.52979e-08
1.35267e-09
-6.66608e-08
1.36294e-09
-6.80328e-08
1.37198e-09
-6.94124e-08
1.37962e-09
-7.07981e-08
1.38568e-09
-7.2188e-08
1.38997e-09
-7.35803e-08
1.39231e-09
-7.49728e-08
1.39248e-09
-7.63631e-08
1.39027e-09
-7.77486e-08
1.38546e-09
-7.91264e-08
1.37783e-09
-8.04935e-08
1.36712e-09
-8.18466e-08
1.35311e-09
-8.31822e-08
1.33554e-09
-8.44963e-08
1.31415e-09
-8.5785e-08
1.2887e-09
-8.70439e-08
1.25892e-09
-8.82685e-08
1.22456e-09
-8.94538e-08
1.18535e-09
-9.05949e-08
1.14106e-09
-9.16863e-08
1.09143e-09
-9.27226e-08
1.03622e-09
-9.36978e-08
9.75227e-10
-9.4606e-08
9.08227e-10
-9.5441e-08
8.35036e-10
-9.61965e-08
7.55488e-10
-9.6866e-08
6.69442e-10
-9.74428e-08
5.76791e-10
-9.79202e-08
4.77462e-10
-9.82916e-08
3.71419e-10
-9.85503e-08
2.58675e-10
-9.86896e-08
1.39287e-10
-9.8703e-08
1.33725e-11
-9.85841e-08
-1.18907e-10
-9.83268e-08
-2.57307e-10
-9.79252e-08
-4.01532e-10
-9.7374e-08
-5.51207e-10
-9.66682e-08
-7.05884e-10
-9.58031e-08
-8.65037e-10
-9.47751e-08
-1.02806e-09
-9.35808e-08
-1.19427e-09
-9.22179e-08
-1.3629e-09
-9.06848e-08
-1.53308e-09
-8.89809e-08
-1.7039e-09
-8.71066e-08
-1.87434e-09
-8.50633e-08
-2.04331e-09
-8.28536e-08
-2.20966e-09
-8.04814e-08
-2.37218e-09
-7.79518e-08
-2.5296e-09
-7.52712e-08
-2.68061e-09
-7.24473e-08
-2.82387e-09
-6.94893e-08
-2.95802e-09
-6.64076e-08
-3.0817e-09
-6.32141e-08
-3.19356e-09
-5.99218e-08
-3.29226e-09
-5.65453e-08
-3.37654e-09
-5.31001e-08
-3.44517e-09
-4.96031e-08
-3.49701e-09
-4.60721e-08
-3.53103e-09
-4.25258e-08
-3.54628e-09
-3.89838e-08
-3.54197e-09
-3.54664e-08
-3.51744e-09
-3.19942e-08
-3.47217e-09
-2.85884e-08
-3.40581e-09
-2.52702e-08
-3.31819e-09
-2.20609e-08
-3.20931e-09
-1.89815e-08
-3.07934e-09
-1.60529e-08
-2.92862e-09
-1.32952e-08
-2.7577e-09
-1.07279e-08
-2.56728e-09
-8.36966e-09
-2.35828e-09
-6.23786e-09
-2.1318e-09
-4.34868e-09
-1.88918e-09
-2.71662e-09
-1.63205e-09
-1.35417e-09
-1.36246e-09
-2.71133e-10
-1.08303e-09
5.26244e-10
-7.97374e-10
1.03689e-09
-5.10639e-10
1.26758e-09
-2.30699e-10
1.23777e-09
2.98149e-11
9.87662e-10
2.5011e-10
5.92699e-10
3.94964e-10
1.90887e-10
4.01814e-10
1.90887e-10
1.41314e-10
-1.94444e-10
4.07441e-10
-4.08037e-10
6.88446e-10
-4.48383e-10
9.01738e-10
-3.58728e-10
9.88585e-10
-1.8224e-10
9.10701e-10
4.84867e-11
6.45446e-10
3.10024e-10
1.81653e-10
5.85899e-10
-4.83646e-10
8.6467e-10
-1.34765e-09
1.13846e-09
-2.40353e-09
1.40192e-09
-3.64176e-09
1.65153e-09
-5.05108e-09
1.88507e-09
-6.61917e-09
2.10126e-09
-8.33324e-09
2.29956e-09
-1.01804e-08
2.47992e-09
-1.2148e-08
2.64272e-09
-1.42236e-08
2.78858e-09
-1.63957e-08
2.91836e-09
-1.86531e-08
3.03302e-09
-2.09856e-08
3.13366e-09
-2.33837e-08
3.22138e-09
-2.58388e-08
3.29736e-09
-2.8343e-08
3.36272e-09
-3.08894e-08
3.4186e-09
-3.34716e-08
3.46609e-09
-3.60844e-08
3.50624e-09
-3.87228e-08
3.54003e-09
-4.1383e-08
3.56839e-09
-4.40614e-08
3.5922e-09
-4.67552e-08
3.61225e-09
-4.94622e-08
3.62928e-09
-5.21806e-08
3.64398e-09
-5.4909e-08
3.65694e-09
-5.76465e-08
3.66873e-09
-6.03926e-08
3.67984e-09
-6.3147e-08
3.69072e-09
-6.59098e-08
3.70175e-09
-6.86814e-08
3.71329e-09
-7.14623e-08
3.72563e-09
-7.42532e-08
3.73905e-09
-7.70551e-08
3.75376e-09
-7.9869e-08
3.76996e-09
-8.26962e-08
3.78782e-09
-8.55379e-08
3.80748e-09
-8.83955e-08
3.82904e-09
-9.12704e-08
3.8526e-09
-9.41642e-08
3.87822e-09
-9.70785e-08
3.90596e-09
-1.00015e-07
3.93585e-09
-1.02974e-07
3.9679e-09
-1.05959e-07
4.00211e-09
-1.08971e-07
4.03847e-09
-1.1201e-07
4.07694e-09
-1.1508e-07
4.11749e-09
-1.18181e-07
4.16005e-09
-1.21314e-07
4.20455e-09
-1.24481e-07
4.25089e-09
-1.27683e-07
4.29898e-09
-1.30922e-07
4.34868e-09
-1.34198e-07
4.39987e-09
-1.37513e-07
4.45239e-09
-1.40867e-07
4.50606e-09
-1.4426e-07
4.56069e-09
-1.47694e-07
4.61606e-09
-1.51169e-07
4.67195e-09
-1.54684e-07
4.72808e-09
-1.5824e-07
4.78418e-09
-1.61837e-07
4.83993e-09
-1.65474e-07
4.89502e-09
-1.6915e-07
4.94907e-09
-1.72863e-07
5.0017e-09
-1.76613e-07
5.05249e-09
-1.80398e-07
5.10098e-09
-1.84216e-07
5.14671e-09
-1.88064e-07
5.18915e-09
-1.91939e-07
5.22776e-09
-1.95838e-07
5.26197e-09
-1.99757e-07
5.29115e-09
-2.03692e-07
5.31468e-09
-2.07638e-07
5.33185e-09
-2.1159e-07
5.34197e-09
-2.15542e-07
5.34428e-09
-2.19488e-07
5.338e-09
-2.2342e-07
5.32234e-09
-2.27331e-07
5.29643e-09
-2.31212e-07
5.25943e-09
-2.35056e-07
5.21044e-09
-2.38851e-07
5.14855e-09
-2.42589e-07
5.07282e-09
-2.46257e-07
4.98233e-09
-2.49844e-07
4.87612e-09
-2.53338e-07
4.75324e-09
-2.56727e-07
4.61274e-09
-2.59995e-07
4.45371e-09
-2.63129e-07
4.27521e-09
-2.66114e-07
4.07638e-09
-2.68934e-07
3.85638e-09
-2.71573e-07
3.61441e-09
-2.74015e-07
3.34976e-09
-2.76242e-07
3.06176e-09
-2.78236e-07
2.74987e-09
-2.7998e-07
2.41364e-09
-2.81456e-07
2.05272e-09
-2.82646e-07
1.66691e-09
-2.8353e-07
1.25618e-09
-2.84092e-07
8.20648e-10
-2.84314e-07
3.60615e-10
-2.84177e-07
-1.23406e-10
-2.83665e-07
-6.30692e-10
-2.82762e-07
-1.16028e-09
-2.81453e-07
-1.71095e-09
-2.79723e-07
-2.28125e-09
-2.77559e-07
-2.86941e-09
-2.74951e-07
-3.47341e-09
-2.71888e-07
-4.09093e-09
-2.68363e-07
-4.71934e-09
-2.6437e-07
-5.35574e-09
-2.59906e-07
-5.9969e-09
-2.54971e-07
-6.63933e-09
-2.49566e-07
-7.27925e-09
-2.43697e-07
-7.91263e-09
-2.37371e-07
-8.53517e-09
-2.30601e-07
-9.1424e-09
-2.23401e-07
-9.72963e-09
-2.15789e-07
-1.0292e-08
-2.07789e-07
-1.08247e-08
-1.99424e-07
-1.13227e-08
-1.90725e-07
-1.17809e-08
-1.81724e-07
-1.21945e-08
-1.72457e-07
-1.25586e-08
-1.62965e-07
-1.28686e-08
-1.5329e-07
-1.312e-08
-1.43479e-07
-1.33088e-08
-1.33579e-07
-1.3431e-08
-1.23641e-07
-1.34835e-08
-1.1372e-07
-1.34631e-08
-1.0387e-07
-1.33677e-08
-9.41468e-08
-1.31954e-08
-8.46077e-08
-1.29449e-08
-7.53102e-08
-1.26157e-08
-6.63117e-08
-1.22079e-08
-5.76688e-08
-1.17222e-08
-4.94373e-08
-1.11602e-08
-4.1671e-08
-1.05239e-08
-3.44219e-08
-9.81644e-09
-2.77387e-08
-9.04148e-09
-2.16668e-08
-8.20369e-09
-1.62472e-08
-7.30879e-09
-1.15154e-08
-6.36382e-09
-7.50029e-09
-5.37759e-09
-4.22188e-09
-4.36145e-09
-1.68879e-09
-3.33047e-09
1.05962e-10
-2.30539e-09
1.19115e-09
-1.31589e-09
1.6264e-09
-4.05443e-10
1.51565e-09
3.60865e-10
1.02476e-09
8.85851e-10
4.00225e-10
1.02635e-09
5.9111e-10
1.68275e-10
-3.62705e-10
4.50495e-10
-6.90261e-10
7.0765e-10
-7.05539e-10
8.39681e-10
-4.90766e-10
7.73152e-10
-1.15697e-10
4.57452e-10
3.64179e-10
-1.39281e-10
9.06751e-10
-1.03427e-09
1.48089e-09
-2.23356e-09
2.06396e-09
-3.73485e-09
2.63974e-09
-5.52973e-09
3.19681e-09
-7.60549e-09
3.72729e-09
-9.94646e-09
4.22602e-09
-1.25351e-08
4.68988e-09
-1.53528e-08
5.11724e-09
-1.83805e-08
5.50765e-09
-2.15993e-08
5.86153e-09
-2.49907e-08
6.17995e-09
-2.85368e-08
6.46447e-09
-3.22207e-08
6.71698e-09
-3.60267e-08
6.93959e-09
-3.99399e-08
7.13458e-09
-4.39468e-08
7.30428e-09
-4.80351e-08
7.45106e-09
-5.21938e-08
7.57725e-09
-5.64128e-08
7.68514e-09
-6.06835e-08
7.77693e-09
-6.49982e-08
7.8547e-09
-6.93502e-08
7.92045e-09
-7.37341e-08
7.97602e-09
-7.8145e-08
8.02314e-09
-8.25791e-08
8.0634e-09
-8.70334e-08
8.09826e-09
-9.15055e-08
8.12905e-09
-9.59937e-08
8.15699e-09
-1.00497e-07
8.18314e-09
-1.05015e-07
8.20849e-09
-1.09547e-07
8.2339e-09
-1.14094e-07
8.26015e-09
-1.18656e-07
8.2879e-09
-1.23235e-07
8.31774e-09
-1.27831e-07
8.35018e-09
-1.32447e-07
8.38565e-09
-1.37084e-07
8.42454e-09
-1.41743e-07
8.46714e-09
-1.46428e-07
8.51371e-09
-1.5114e-07
8.56446e-09
-1.55881e-07
8.61955e-09
-1.60654e-07
8.67909e-09
-1.65462e-07
8.74315e-09
-1.70305e-07
8.81176e-09
-1.75188e-07
8.88494e-09
-1.80112e-07
8.96264e-09
-1.8508e-07
9.04479e-09
-1.90094e-07
9.1313e-09
-1.95156e-07
9.22203e-09
-2.00268e-07
9.3168e-09
-2.05433e-07
9.41542e-09
-2.10652e-07
9.51765e-09
-2.15926e-07
9.62321e-09
-2.21258e-07
9.73178e-09
-2.26649e-07
9.84302e-09
-2.32099e-07
9.95652e-09
-2.3761e-07
1.00719e-08
-2.43183e-07
1.01886e-08
-2.48817e-07
1.03061e-08
-2.54513e-07
1.04238e-08
-2.6027e-07
1.05412e-08
-2.66087e-07
1.06575e-08
-2.71964e-07
1.07719e-08
-2.77899e-07
1.08837e-08
-2.83889e-07
1.09921e-08
-2.89933e-07
1.1096e-08
-2.96026e-07
1.11945e-08
-3.02166e-07
1.12866e-08
-3.08348e-07
1.1371e-08
-3.14567e-07
1.14467e-08
-3.20817e-07
1.15122e-08
-3.27092e-07
1.15664e-08
-3.33385e-07
1.16078e-08
-3.39688e-07
1.16349e-08
-3.45993e-07
1.16461e-08
-3.52288e-07
1.16399e-08
-3.58565e-07
1.16145e-08
-3.64811e-07
1.15683e-08
-3.71013e-07
1.14993e-08
-3.7716e-07
1.14058e-08
-3.83235e-07
1.12858e-08
-3.89224e-07
1.11374e-08
-3.9511e-07
1.09586e-08
-4.00875e-07
1.07475e-08
-4.06501e-07
1.05019e-08
-4.11967e-07
1.022e-08
-4.17254e-07
9.89969e-09
-4.2234e-07
9.53908e-09
-4.27201e-07
9.13627e-09
-4.31814e-07
8.68944e-09
-4.36154e-07
8.19685e-09
-4.40197e-07
7.65692e-09
-4.43915e-07
7.06817e-09
-4.47283e-07
6.42933e-09
-4.50272e-07
5.73929e-09
-4.52856e-07
4.99721e-09
-4.55006e-07
4.20248e-09
-4.56694e-07
3.35482e-09
-4.57892e-07
2.45425e-09
-4.58572e-07
1.50116e-09
-4.58708e-07
4.96361e-10
-4.58272e-07
-5.58939e-10
-4.5724e-07
-1.66305e-09
-4.55586e-07
-2.81377e-09
-4.53289e-07
-4.0084e-09
-4.50327e-07
-5.24368e-09
-4.4668e-07
-6.51575e-09
-4.42334e-07
-7.82018e-09
-4.37273e-07
-9.15193e-09
-4.31487e-07
-1.05053e-08
-4.24968e-07
-1.18741e-08
-4.17714e-07
-1.32514e-08
-4.09723e-07
-1.46296e-08
-4.01002e-07
-1.60008e-08
-3.91558e-07
-1.73564e-08
-3.81406e-07
-1.86872e-08
-3.70565e-07
-1.99838e-08
-3.59058e-07
-2.12363e-08
-3.46916e-07
-2.24346e-08
-3.34172e-07
-2.35681e-08
-3.20868e-07
-2.46266e-08
-3.0705e-07
-2.55995e-08
-2.92768e-07
-2.64764e-08
-2.78079e-07
-2.72473e-08
-2.63045e-07
-2.79024e-08
-2.47733e-07
-2.84324e-08
-2.32213e-07
-2.88287e-08
-2.1656e-07
-2.90835e-08
-2.00854e-07
-2.91896e-08
-1.85176e-07
-2.91411e-08
-1.69611e-07
-2.89331e-08
-1.54244e-07
-2.85618e-08
-1.39164e-07
-2.80248e-08
-1.24459e-07
-2.73211e-08
-1.10216e-07
-2.64508e-08
-9.65222e-08
-2.5416e-08
-8.34624e-08
-2.422e-08
-7.11186e-08
-2.28677e-08
-5.95692e-08
-2.13659e-08
-4.88875e-08
-1.97231e-08
-3.91411e-08
-1.79501e-08
-3.039e-08
-1.60599e-08
-2.26851e-08
-1.40687e-08
-1.6066e-08
-1.19967e-08
-1.05581e-08
-9.86942e-09
-6.16837e-09
-7.72017e-09
-2.8805e-09
-5.59325e-09
-6.47228e-10
-3.54917e-09
6.19474e-10
-1.67215e-09
1.06115e-09
-8.08131e-11
8.87506e-10
1.05949e-09
3.93088e-10
1.52076e-09
9.84198e-10
1.47959e-10
-5.10658e-10
3.63634e-10
-9.05935e-10
4.95904e-10
-8.37815e-10
4.36603e-10
-4.31446e-10
1.06075e-10
2.14824e-10
-5.51707e-10
1.02196e-09
-1.57315e-09
1.9282e-09
-2.97877e-09
2.8865e-09
-4.77639e-09
3.86158e-09
-6.96403e-09
4.82739e-09
-9.53225e-09
5.76502e-09
-1.24661e-08
6.66113e-09
-1.57467e-08
7.50666e-09
-1.93527e-08
8.29584e-09
-2.32609e-08
9.02546e-09
-2.74476e-08
9.69431e-09
-3.18887e-08
1.03027e-08
-3.65607e-08
1.0852e-08
-4.14407e-08
1.13445e-08
-4.65068e-08
1.17831e-08
-5.17385e-08
1.21713e-08
-5.71164e-08
1.25125e-08
-6.26229e-08
1.28107e-08
-6.82415e-08
1.30697e-08
-7.39575e-08
1.32933e-08
-7.97578e-08
1.34854e-08
-8.56305e-08
1.36496e-08
-9.15653e-08
1.37895e-08
-9.75532e-08
1.39083e-08
-1.03586e-07
1.40093e-08
-1.09659e-07
1.40953e-08
-1.15764e-07
1.41691e-08
-1.21899e-07
1.42331e-08
-1.2806e-07
1.42897e-08
-1.34244e-07
1.43409e-08
-1.40449e-07
1.43886e-08
-1.46675e-07
1.44345e-08
-1.52921e-07
1.44801e-08
-1.59188e-07
1.45268e-08
-1.65476e-07
1.45756e-08
-1.71786e-07
1.46278e-08
-1.7812e-07
1.4684e-08
-1.84479e-07
1.47452e-08
-1.90866e-07
1.48119e-08
-1.97284e-07
1.48848e-08
-2.03735e-07
1.49642e-08
-2.10221e-07
1.50506e-08
-2.16745e-07
1.51441e-08
-2.23311e-07
1.52452e-08
-2.29922e-07
1.53537e-08
-2.3658e-07
1.54699e-08
-2.43289e-07
1.55937e-08
-2.50051e-07
1.57251e-08
-2.56871e-07
1.58639e-08
-2.63749e-07
1.601e-08
-2.7069e-07
1.61631e-08
-2.77696e-07
1.63229e-08
-2.8477e-07
1.6489e-08
-2.91913e-07
1.66611e-08
-2.99129e-07
1.68386e-08
-3.06418e-07
1.70209e-08
-3.13782e-07
1.72075e-08
-3.21223e-07
1.73976e-08
-3.28742e-07
1.75904e-08
-3.36339e-07
1.77852e-08
-3.44014e-07
1.79809e-08
-3.51766e-07
1.81766e-08
-3.59596e-07
1.83711e-08
-3.67502e-07
1.85631e-08
-3.75482e-07
1.87515e-08
-3.83533e-07
1.89348e-08
-3.91652e-07
1.91114e-08
-3.99836e-07
1.92798e-08
-4.08079e-07
1.94382e-08
-4.16377e-07
1.95847e-08
-4.24724e-07
1.97175e-08
-4.33112e-07
1.98344e-08
-4.41533e-07
1.99332e-08
-4.49978e-07
2.00116e-08
-4.58437e-07
2.00672e-08
-4.669e-07
2.00975e-08
-4.75353e-07
2.00997e-08
-4.83785e-07
2.00711e-08
-4.92179e-07
2.00087e-08
-5.0052e-07
1.99097e-08
-5.08792e-07
1.9771e-08
-5.16975e-07
1.95893e-08
-5.25051e-07
1.93614e-08
-5.32998e-07
1.90842e-08
-5.40793e-07
1.87541e-08
-5.48414e-07
1.83679e-08
-5.55834e-07
1.79223e-08
-5.63028e-07
1.74138e-08
-5.69967e-07
1.68392e-08
-5.76624e-07
1.61952e-08
-5.82966e-07
1.54788e-08
-5.88963e-07
1.46869e-08
-5.94583e-07
1.38167e-08
-5.99792e-07
1.28657e-08
-6.04556e-07
1.18315e-08
-6.08838e-07
1.07121e-08
-6.12605e-07
9.50574e-09
-6.15819e-07
8.2112e-09
-6.18444e-07
6.82765e-09
-6.20444e-07
5.35476e-09
-6.21782e-07
3.79279e-09
-6.22424e-07
2.1426e-09
-6.22333e-07
4.05744e-10
-6.21477e-07
-1.41551e-09
-6.19822e-07
-3.31809e-09
-6.17337e-07
-5.2981e-09
-6.13995e-07
-7.35076e-09
-6.09768e-07
-9.47038e-09
-6.04634e-07
-1.16503e-08
-5.98571e-07
-1.38828e-08
-5.91564e-07
-1.61593e-08
-5.83599e-07
-1.84701e-08
-5.74669e-07
-2.08044e-08
-5.64769e-07
-2.31507e-08
-5.53903e-07
-2.54961e-08
-5.42076e-07
-2.78271e-08
-5.29304e-07
-3.01293e-08
-5.15603e-07
-3.23873e-08
-5.01002e-07
-3.45852e-08
-4.85532e-07
-3.67063e-08
-4.69233e-07
-3.87338e-08
-4.52151e-07
-4.06501e-08
-4.3434e-07
-4.24379e-08
-4.15859e-07
-4.40797e-08
-3.96778e-07
-4.55581e-08
-3.77169e-07
-4.68564e-08
-3.57113e-07
-4.79582e-08
-3.36697e-07
-4.88483e-08
-3.16013e-07
-4.95122e-08
-2.9516e-07
-4.99368e-08
-2.74239e-07
-5.01106e-08
-2.53357e-07
-5.00234e-08
-2.32623e-07
-4.96673e-08
-2.12149e-07
-4.9036e-08
-1.92048e-07
-4.81257e-08
-1.72434e-07
-4.69346e-08
-1.53421e-07
-4.54637e-08
-1.35121e-07
-4.37163e-08
-1.17642e-07
-4.16985e-08
-1.01091e-07
-3.94191e-08
-8.55668e-08
-3.68901e-08
-7.11632e-08
-3.41267e-08
-5.79654e-08
-3.11479e-08
-4.60483e-08
-2.7977e-08
-3.54745e-08
-2.46425e-08
-2.62913e-08
-2.11799e-08
-1.85275e-08
-1.76333e-08
-1.21886e-08
-1.4059e-08
-7.25171e-09
-1.05302e-08
-3.65797e-09
-7.14292e-09
-1.30411e-09
-4.02601e-09
-3.17514e-11
-1.35317e-09
3.85007e-10
6.42733e-10
2.53333e-10
1.65243e-09
1.23753e-09
9.88432e-11
-6.095e-10
1.87077e-10
-9.94182e-10
1.17025e-10
-7.67749e-10
-2.19189e-10
-9.52372e-11
-9.01319e-10
8.96944e-10
-1.986e-09
2.10664e-09
-3.51048e-09
3.45269e-09
-5.49594e-09
4.87196e-09
-7.95045e-09
6.31609e-09
-1.08716e-08
7.74851e-09
-1.42487e-08
9.14213e-09
-1.80649e-08
1.04774e-08
-2.22989e-08
1.17406e-08
-2.6926e-08
1.2923e-08
-3.19197e-08
1.40192e-08
-3.72523e-08
1.50269e-08
-4.28957e-08
1.59461e-08
-4.88221e-08
1.67784e-08
-5.50045e-08
1.75269e-08
-6.14168e-08
1.81955e-08
-6.80345e-08
1.87889e-08
-7.48343e-08
1.93123e-08
-8.17947e-08
1.97712e-08
-8.88961e-08
2.01711e-08
-9.61204e-08
2.05176e-08
-1.03451e-07
2.08164e-08
-1.10875e-07
2.10729e-08
-1.18377e-07
2.12921e-08
-1.25948e-07
2.14792e-08
-1.33578e-07
2.16387e-08
-1.41257e-07
2.1775e-08
-1.48981e-07
2.18923e-08
-1.56742e-07
2.19943e-08
-1.64536e-07
2.20844e-08
-1.72361e-07
2.21657e-08
-1.80214e-07
2.22412e-08
-1.88093e-07
2.23134e-08
-1.95997e-07
2.23846e-08
-2.03927e-07
2.24568e-08
-2.11883e-07
2.25318e-08
-2.19867e-07
2.26113e-08
-2.27879e-07
2.26965e-08
-2.35923e-07
2.27888e-08
-2.44e-07
2.28891e-08
-2.52114e-07
2.29983e-08
-2.60267e-07
2.31171e-08
-2.68462e-07
2.3246e-08
-2.76703e-07
2.33855e-08
-2.84994e-07
2.35359e-08
-2.93338e-07
2.36974e-08
-3.01738e-07
2.38701e-08
-3.10198e-07
2.40541e-08
-3.18722e-07
2.42491e-08
-3.27313e-07
2.44551e-08
-3.35975e-07
2.46717e-08
-3.44711e-07
2.48986e-08
-3.53523e-07
2.51353e-08
-3.62415e-07
2.53812e-08
-3.7139e-07
2.56356e-08
-3.80449e-07
2.58977e-08
-3.89595e-07
2.61668e-08
-3.98829e-07
2.64417e-08
-4.08153e-07
2.67215e-08
-4.17567e-07
2.70048e-08
-4.27072e-07
2.72904e-08
-4.36668e-07
2.75768e-08
-4.46354e-07
2.78624e-08
-4.56128e-07
2.81454e-08
-4.65989e-07
2.84241e-08
-4.75934e-07
2.86963e-08
-4.85959e-07
2.89599e-08
-4.9606e-07
2.92127e-08
-5.06233e-07
2.94519e-08
-5.1647e-07
2.96751e-08
-5.26764e-07
2.98794e-08
-5.37109e-07
3.00618e-08
-5.47493e-07
3.02191e-08
-5.57908e-07
3.0348e-08
-5.68341e-07
3.04449e-08
-5.7878e-07
3.05062e-08
-5.89211e-07
3.0528e-08
-5.99617e-07
3.05062e-08
-6.09983e-07
3.04368e-08
-6.2029e-07
3.03152e-08
-6.30517e-07
3.01372e-08
-6.40644e-07
2.9898e-08
-6.50648e-07
2.95929e-08
-6.60503e-07
2.92171e-08
-6.70185e-07
2.87658e-08
-6.79665e-07
2.82339e-08
-6.88913e-07
2.76166e-08
-6.979e-07
2.69088e-08
-7.06592e-07
2.61057e-08
-7.14955e-07
2.52025e-08
-7.22954e-07
2.41943e-08
-7.30552e-07
2.30768e-08
-7.37711e-07
2.18455e-08
-7.44391e-07
2.04965e-08
-7.50551e-07
1.90261e-08
-7.5615e-07
1.74309e-08
-7.61146e-07
1.57082e-08
-7.65496e-07
1.38557e-08
-7.69157e-07
1.18716e-08
-7.72084e-07
9.75514e-09
-7.74235e-07
7.50596e-09
-7.75567e-07
5.12473e-09
-7.76038e-07
2.61304e-09
-7.75606e-07
-2.65496e-11
-7.74231e-07
-2.79038e-09
-7.71875e-07
-5.6736e-09
-7.68503e-07
-8.67014e-09
-7.64081e-07
-1.17727e-08
-7.58579e-07
-1.49724e-08
-7.5197e-07
-1.82592e-08
-7.44231e-07
-2.16216e-08
-7.35344e-07
-2.50464e-08
-7.25295e-07
-2.85191e-08
-7.14076e-07
-3.20237e-08
-7.01684e-07
-3.55427e-08
-6.88123e-07
-3.90573e-08
-6.73403e-07
-4.25471e-08
-6.57541e-07
-4.59908e-08
-6.40563e-07
-4.93656e-08
-6.225e-07
-5.2648e-08
-6.03393e-07
-5.58134e-08
-5.8329e-07
-5.88369e-08
-5.62247e-07
-6.16927e-08
-5.4033e-07
-6.43551e-08
-5.17611e-07
-6.67985e-08
-4.94172e-07
-6.89973e-08
-4.70102e-07
-7.09269e-08
-4.45497e-07
-7.25634e-08
-4.20461e-07
-7.38841e-08
-3.95105e-07
-7.4868e-08
-3.69546e-07
-7.54959e-08
-3.43906e-07
-7.57507e-08
-3.18312e-07
-7.56177e-08
-2.92894e-07
-7.50852e-08
-2.67785e-07
-7.41442e-08
-2.43122e-07
-7.27891e-08
-2.19039e-07
-7.10177e-08
-1.95671e-07
-6.88315e-08
-1.73152e-07
-6.62358e-08
-1.5161e-07
-6.32401e-08
-1.31171e-07
-5.98583e-08
-1.11952e-07
-5.61086e-08
-9.40645e-08
-5.20147e-08
-7.76067e-08
-4.76057e-08
-6.26663e-08
-4.29174e-08
-4.93153e-08
-3.79936e-08
-3.76075e-08
-3.28876e-08
-2.75751e-08
-2.76657e-08
-1.9224e-08
-2.24101e-08
-1.25287e-08
-1.72254e-08
-7.42646e-09
-1.22452e-08
-3.80963e-09
-7.64285e-09
-1.51807e-09
-3.64473e-09
-3.30446e-10
-5.44895e-10
4.64871e-11
1.2755e-09
1.28402e-09
3.22395e-11
-6.41735e-10
-4.95967e-11
-9.12335e-10
-3.79706e-10
-4.3764e-10
-1.05874e-09
5.83788e-10
-2.16169e-09
1.9999e-09
-3.742e-09
3.68695e-09
-5.83473e-09
5.54542e-09
-8.45946e-09
7.49669e-09
-1.16229e-08
9.47948e-09
-1.5321e-08
1.14467e-08
-1.95417e-08
1.33628e-08
-2.42659e-08
1.52016e-08
-2.947e-08
1.69447e-08
-3.51266e-08
1.85796e-08
-4.12061e-08
2.00987e-08
-4.76777e-08
2.14984e-08
-5.45098e-08
2.27782e-08
-6.16713e-08
2.39398e-08
-6.91314e-08
2.4987e-08
-7.68606e-08
2.59247e-08
-8.4831e-08
2.67592e-08
-9.30159e-08
2.74972e-08
-1.01391e-07
2.8146e-08
-1.09933e-07
2.8713e-08
-1.18621e-07
2.92058e-08
-1.27436e-07
2.9632e-08
-1.36362e-07
2.99989e-08
-1.45384e-07
3.03136e-08
-1.54487e-07
3.05829e-08
-1.63662e-07
3.08132e-08
-1.72898e-07
3.10106e-08
-1.82186e-07
3.11806e-08
-1.9152e-07
3.13286e-08
-2.00895e-07
3.14592e-08
-2.10306e-07
3.1577e-08
-2.19751e-07
3.16858e-08
-2.29227e-07
3.17892e-08
-2.38733e-07
3.18905e-08
-2.48269e-07
3.19926e-08
-2.57835e-07
3.2098e-08
-2.67432e-07
3.2209e-08
-2.77063e-07
3.23274e-08
-2.8673e-07
3.24551e-08
-2.96434e-07
3.25934e-08
-3.06179e-07
3.27436e-08
-3.15969e-07
3.29067e-08
-3.25806e-07
3.30835e-08
-3.35696e-07
3.32746e-08
-3.4564e-07
3.34804e-08
-3.55644e-07
3.37014e-08
-3.65712e-07
3.39375e-08
-3.75846e-07
3.41889e-08
-3.86053e-07
3.44553e-08
-3.96334e-07
3.47365e-08
-4.06694e-07
3.50321e-08
-4.17137e-07
3.53416e-08
-4.27666e-07
3.56641e-08
-4.38284e-07
3.59989e-08
-4.48993e-07
3.63451e-08
-4.59797e-07
3.67015e-08
-4.70697e-07
3.70669e-08
-4.81695e-07
3.74397e-08
-4.92792e-07
3.78186e-08
-5.03989e-07
3.82017e-08
-5.15286e-07
3.8587e-08
-5.26682e-07
3.89726e-08
-5.38176e-07
3.93562e-08
-5.49765e-07
3.97352e-08
-5.61448e-07
4.0107e-08
-5.73221e-07
4.04688e-08
-5.85078e-07
4.08174e-08
-5.97015e-07
4.11495e-08
-6.09025e-07
4.14617e-08
-6.211e-07
4.17501e-08
-6.33231e-07
4.20109e-08
-6.45409e-07
4.22396e-08
-6.57622e-07
4.2432e-08
-6.69858e-07
4.25833e-08
-6.82101e-07
4.26886e-08
-6.94338e-07
4.27427e-08
-7.0655e-07
4.27402e-08
-7.18719e-07
4.26756e-08
-7.30826e-07
4.2543e-08
-7.42847e-07
4.23364e-08
-7.54759e-07
4.20496e-08
-7.66538e-07
4.16763e-08
-7.78155e-07
4.12099e-08
-7.89581e-07
4.06438e-08
-8.00787e-07
3.99714e-08
-8.11739e-07
3.91858e-08
-8.22403e-07
3.82804e-08
-8.32742e-07
3.72483e-08
-8.4272e-07
3.6083e-08
-8.52295e-07
3.47779e-08
-8.61427e-07
3.33267e-08
-8.70074e-07
3.17233e-08
-8.7819e-07
2.9962e-08
-8.85731e-07
2.80374e-08
-8.9265e-07
2.59448e-08
-8.98899e-07
2.36799e-08
-9.0443e-07
2.1239e-08
-9.09194e-07
1.86193e-08
-9.13141e-07
1.58189e-08
-9.16222e-07
1.28367e-08
-9.18389e-07
9.67269e-09
-9.19593e-07
6.32819e-09
-9.19785e-07
2.80566e-09
-9.18921e-07
-8.90995e-10
-9.16955e-07
-4.75641e-09
-9.13845e-07
-8.78361e-09
-9.09551e-07
-1.29639e-08
-9.04037e-07
-1.7287e-08
-8.97268e-07
-2.17404e-08
-8.89218e-07
-2.63102e-08
-8.79859e-07
-3.09801e-08
-8.69174e-07
-3.5732e-08
-8.57147e-07
-4.05458e-08
-8.43771e-07
-4.53994e-08
-8.29045e-07
-5.02688e-08
-8.12974e-07
-5.51281e-08
-7.95572e-07
-5.99495e-08
-7.76859e-07
-6.47036e-08
-7.56865e-07
-6.93595e-08
-7.35628e-07
-7.3885e-08
-7.13195e-07
-7.82467e-08
-6.89621e-07
-8.24103e-08
-6.64973e-07
-8.63412e-08
-6.39324e-07
-9.00042e-08
-6.12758e-07
-9.33643e-08
-5.85368e-07
-9.63871e-08
-5.57256e-07
-9.9039e-08
-5.28532e-07
-1.01287e-07
-4.99314e-07
-1.03102e-07
-4.69729e-07
-1.04453e-07
-4.39908e-07
-1.05316e-07
-4.09992e-07
-1.05667e-07
-3.80124e-07
-1.05486e-07
-3.50452e-07
-1.04757e-07
-3.21128e-07
-1.03468e-07
-2.92305e-07
-1.01612e-07
-2.64136e-07
-9.91858e-08
-2.36776e-07
-9.61917e-08
-2.10375e-07
-9.26374e-08
-1.85078e-07
-8.85364e-08
-1.61028e-07
-8.39082e-08
-1.38358e-07
-7.87788e-08
-1.17192e-07
-7.31813e-08
-9.76405e-08
-6.71568e-08
-7.98026e-08
-6.07553e-08
-6.37586e-08
-5.40376e-08
-4.95688e-08
-4.70774e-08
-3.72701e-08
-3.99644e-08
-2.68713e-08
-3.28089e-08
-1.83493e-08
-2.57474e-08
-1.16437e-08
-1.89508e-08
-6.65186e-09
-1.26346e-08
-3.22376e-09
-7.07283e-09
-1.15669e-09
-2.61197e-09
-1.905e-10
3.09308e-10
1.09352e-09
-4.48981e-11
-5.96828e-10
-3.25812e-10
-6.31435e-10
-9.57872e-10
1.94416e-10
-2.0296e-09
1.65553e-09
-3.60742e-09
3.57773e-09
-5.73848e-09
5.81801e-09
-8.45313e-09
8.26008e-09
-1.17674e-08
1.08109e-08
-1.56849e-08
1.3397e-08
-2.01992e-08
1.59611e-08
-2.52958e-08
1.84593e-08
-3.09532e-08
2.0859e-08
-3.71452e-08
2.31367e-08
-4.3842e-08
2.52763e-08
-5.10111e-08
2.72679e-08
-5.86189e-08
2.91062e-08
-6.6631e-08
3.07902e-08
-7.5013e-08
3.23218e-08
-8.37313e-08
3.37053e-08
-9.27533e-08
3.49468e-08
-1.02048e-07
3.6054e-08
-1.11586e-07
3.70353e-08
-1.2134e-07
3.78999e-08
-1.31284e-07
3.86573e-08
-1.41396e-07
3.93173e-08
-1.51653e-07
3.98894e-08
-1.62038e-07
4.03831e-08
-1.72532e-07
4.08076e-08
-1.8312e-07
4.11717e-08
-1.93791e-07
4.14837e-08
-2.04532e-07
4.17515e-08
-2.15334e-07
4.19825e-08
-2.26189e-07
4.21835e-08
-2.3709e-07
4.23608e-08
-2.48033e-07
4.25201e-08
-2.59014e-07
4.26668e-08
-2.70031e-07
4.28056e-08
-2.81081e-07
4.29407e-08
-2.92164e-07
4.30759e-08
-3.03281e-07
4.32148e-08
-3.14432e-07
4.33602e-08
-3.25619e-07
4.35147e-08
-3.36845e-07
4.36808e-08
-3.48112e-07
4.38601e-08
-3.59423e-07
4.40546e-08
-3.70781e-07
4.42653e-08
-3.82191e-07
4.44936e-08
-3.93657e-07
4.47402e-08
-4.05182e-07
4.50057e-08
-4.16771e-07
4.52905e-08
-4.28429e-07
4.55948e-08
-4.40158e-07
4.59186e-08
-4.51965e-07
4.62618e-08
-4.63852e-07
4.66239e-08
-4.75824e-07
4.70043e-08
-4.87885e-07
4.74023e-08
-5.00038e-07
4.7817e-08
-5.12286e-07
4.82471e-08
-5.24633e-07
4.86915e-08
-5.3708e-07
4.91486e-08
-5.49629e-07
4.96166e-08
-5.62283e-07
5.00937e-08
-5.75043e-07
5.05777e-08
-5.87907e-07
5.10662e-08
-6.00877e-07
5.15567e-08
-6.13951e-07
5.20464e-08
-6.27127e-07
5.25321e-08
-6.40402e-07
5.30106e-08
-6.53773e-07
5.34783e-08
-6.67236e-07
5.39313e-08
-6.80784e-07
5.43654e-08
-6.94411e-07
5.47764e-08
-7.08108e-07
5.51593e-08
-7.21867e-07
5.55094e-08
-7.35678e-07
5.58212e-08
-7.49527e-07
5.60891e-08
-7.63402e-07
5.63073e-08
-7.77289e-07
5.64695e-08
-7.91169e-07
5.65692e-08
-8.05026e-07
5.65996e-08
-8.18839e-07
5.65536e-08
-8.32588e-07
5.64239e-08
-8.46247e-07
5.62028e-08
-8.59793e-07
5.58824e-08
-8.73198e-07
5.54547e-08
-8.86433e-07
5.49113e-08
-8.99467e-07
5.42439e-08
-9.12267e-07
5.34437e-08
-9.24798e-07
5.25022e-08
-9.37023e-07
5.14106e-08
-9.48903e-07
5.01602e-08
-9.60397e-07
4.87424e-08
-9.71462e-07
4.71487e-08
-9.82055e-07
4.53706e-08
-9.92129e-07
4.34003e-08
-1.00164e-06
4.12301e-08
-1.01053e-06
3.88526e-08
-1.01875e-06
3.62613e-08
-1.02626e-06
3.34503e-08
-1.03299e-06
3.04141e-08
-1.0389e-06
2.71486e-08
-1.04393e-06
2.36503e-08
-1.04803e-06
1.9917e-08
-1.05114e-06
1.5948e-08
-1.05321e-06
1.17434e-08
-1.05419e-06
7.30552e-09
-1.05402e-06
2.63784e-09
-1.05266e-06
-2.25413e-09
-1.05005e-06
-7.36301e-09
-1.04615e-06
-1.26794e-08
-1.04093e-06
-1.81916e-08
-1.03433e-06
-2.38858e-08
-1.02632e-06
-2.97457e-08
-1.01688e-06
-3.57527e-08
-1.00597e-06
-4.18856e-08
-9.93586e-07
-4.81206e-08
-9.797e-07
-5.44316e-08
-9.6431e-07
-6.07897e-08
-9.47415e-07
-6.71637e-08
-9.29023e-07
-7.352e-08
-9.0915e-07
-7.98226e-08
-8.8782e-07
-8.60335e-08
-8.65067e-07
-9.21128e-08
-8.40933e-07
-9.80189e-08
-8.15471e-07
-1.03709e-07
-7.88743e-07
-1.09138e-07
-7.60823e-07
-1.14262e-07
-7.31791e-07
-1.19036e-07
-7.01741e-07
-1.23414e-07
-6.70776e-07
-1.27353e-07
-6.39007e-07
-1.30808e-07
-6.06556e-07
-1.33738e-07
-5.73553e-07
-1.36104e-07
-5.40138e-07
-1.37869e-07
-5.06455e-07
-1.38999e-07
-4.72658e-07
-1.39464e-07
-4.38905e-07
-1.39239e-07
-4.0536e-07
-1.38302e-07
-3.72188e-07
-1.3664e-07
-3.3956e-07
-1.34241e-07
-3.07643e-07
-1.31103e-07
-2.76607e-07
-1.27228e-07
-2.46616e-07
-1.22628e-07
-2.17834e-07
-1.17319e-07
-1.90413e-07
-1.11329e-07
-1.64502e-07
-1.0469e-07
-1.40236e-07
-9.74475e-08
-1.17738e-07
-8.96547e-08
-9.71156e-08
-8.13775e-08
-7.84584e-08
-7.26948e-08
-6.1834e-08
-6.37018e-08
-4.72855e-08
-5.45129e-08
-3.48281e-08
-4.52663e-08
-2.44451e-08
-3.61304e-08
-1.60846e-08
-2.73113e-08
-9.65628e-09
-1.90629e-08
-5.02864e-09
-1.17005e-08
-2.02752e-09
-5.61308e-09
-4.36476e-10
-1.28174e-09
6.57043e-10
-1.28241e-10
-4.68588e-10
-6.27512e-10
-1.3217e-10
-1.59129e-09
1.15821e-09
-3.09283e-09
3.15707e-09
-5.18712e-09
5.67201e-09
-7.91254e-09
8.54344e-09
-1.12927e-08
1.16402e-08
-1.53382e-08
1.48564e-08
-2.00484e-08
1.81072e-08
-2.54132e-08
2.13259e-08
-3.14147e-08
2.44608e-08
-3.80287e-08
2.74731e-08
-4.52262e-08
3.03343e-08
-5.29747e-08
3.30248e-08
-6.12391e-08
3.55322e-08
-6.99829e-08
3.785e-08
-7.9169e-08
3.99764e-08
-8.87606e-08
4.19133e-08
-9.87212e-08
4.36658e-08
-1.09016e-07
4.52413e-08
-1.1961e-07
4.66486e-08
-1.30473e-07
4.78983e-08
-1.41575e-07
4.90014e-08
-1.52887e-07
4.99695e-08
-1.64384e-07
5.08147e-08
-1.76044e-07
5.15487e-08
-1.87844e-07
5.21833e-08
-1.99766e-07
5.27299e-08
-2.11794e-07
5.31995e-08
-2.23913e-07
5.36024e-08
-2.3611e-07
5.39486e-08
-2.48374e-07
5.42473e-08
-2.60698e-07
5.4507e-08
-2.73073e-07
5.47357e-08
-2.85493e-07
5.49406e-08
-2.97955e-07
5.51285e-08
-3.10455e-07
5.53054e-08
-3.22991e-07
5.54766e-08
-3.35562e-07
5.56471e-08
-3.48168e-07
5.58211e-08
-3.60811e-07
5.60025e-08
-3.73491e-07
5.61947e-08
-3.8621e-07
5.64006e-08
-3.98973e-07
5.66226e-08
-4.11781e-07
5.68628e-08
-4.24639e-07
5.7123e-08
-4.3755e-07
5.74046e-08
-4.50518e-07
5.77086e-08
-4.63548e-07
5.8036e-08
-4.76645e-07
5.83871e-08
-4.89812e-07
5.87622e-08
-5.03055e-07
5.91613e-08