/*--------------------------------*- C++ -*----------------------------------*\
  =========                 |
  \\      /  F ield         | OpenFOAM: The Open Source CFD Toolbox
   \\    /   O peration     | Website:  https://openfoam.org
    \\  /    A nd           | Version:  7
     \\/     M anipulation  |
\*---------------------------------------------------------------------------*/
FoamFile
{
    version     2.0;
    format      ascii;
    class       volVectorField;
    location    "0.3375";
    object      U;
}
// * * * * * * * * * * * * * * * * * * * * * * * * * * * * * * * * * * * * * //

dimensions      [0 1 -1 0 0 0 0];

internalField   nonuniform List<vector> 
12800
(
(3.221e-06 -3.36439e-06 0)
(1.82084e-05 -9.79267e-06 0)
(4.42307e-05 -1.20333e-05 0)
(7.05728e-05 -1.11025e-05 0)
(9.06306e-05 -8.41482e-06 0)
(0.000101054 -4.83651e-06 0)
(0.000100053 -8.69497e-07 0)
(8.67862e-05 3.19124e-06 0)
(6.1051e-05 7.17718e-06 0)
(2.30624e-05 1.09886e-05 0)
(-2.67057e-05 1.45664e-05 0)
(-8.76107e-05 1.78833e-05 0)
(-0.000158908 2.09243e-05 0)
(-0.000239804 2.36854e-05 0)
(-0.000329479 2.61723e-05 0)
(-0.000427119 2.8396e-05 0)
(-0.000531928 3.03688e-05 0)
(-0.000643142 3.21054e-05 0)
(-0.000760038 3.36228e-05 0)
(-0.000881938 3.49388e-05 0)
(-0.00100822 3.60714e-05 0)
(-0.0011383 3.70382e-05 0)
(-0.00127165 3.78572e-05 0)
(-0.00140782 3.85447e-05 0)
(-0.00154637 3.91164e-05 0)
(-0.00168693 3.95881e-05 0)
(-0.00182919 3.99741e-05 0)
(-0.00197285 4.02873e-05 0)
(-0.00211769 4.054e-05 0)
(-0.00226349 4.07433e-05 0)
(-0.0024101 4.09073e-05 0)
(-0.00255739 4.10412e-05 0)
(-0.00270524 4.11536e-05 0)
(-0.00285359 4.12521e-05 0)
(-0.00300238 4.13433e-05 0)
(-0.00315158 4.14327e-05 0)
(-0.00330119 4.15254e-05 0)
(-0.0034512 4.16259e-05 0)
(-0.00360164 4.17384e-05 0)
(-0.00375255 4.18662e-05 0)
(-0.00390397 4.20119e-05 0)
(-0.00405595 4.21781e-05 0)
(-0.00420857 4.23668e-05 0)
(-0.00436189 4.258e-05 0)
(-0.00451599 4.28189e-05 0)
(-0.00467094 4.30847e-05 0)
(-0.00482685 4.33781e-05 0)
(-0.00498379 4.36999e-05 0)
(-0.00514186 4.40505e-05 0)
(-0.00530115 4.44302e-05 0)
(-0.00546176 4.4839e-05 0)
(-0.00562378 4.52772e-05 0)
(-0.00578729 4.57446e-05 0)
(-0.0059524 4.62408e-05 0)
(-0.0061192 4.67651e-05 0)
(-0.00628778 4.73168e-05 0)
(-0.00645821 4.78954e-05 0)
(-0.0066306 4.85e-05 0)
(-0.006805 4.91297e-05 0)
(-0.00698151 4.97831e-05 0)
(-0.00716019 5.04585e-05 0)
(-0.0073411 5.11545e-05 0)
(-0.0075243 5.18692e-05 0)
(-0.00770985 5.26008e-05 0)
(-0.00789778 5.33468e-05 0)
(-0.00808812 5.41046e-05 0)
(-0.00828091 5.48714e-05 0)
(-0.00847616 5.56441e-05 0)
(-0.00867385 5.64197e-05 0)
(-0.00887399 5.71943e-05 0)
(-0.00907655 5.79639e-05 0)
(-0.00928147 5.87239e-05 0)
(-0.00948872 5.94698e-05 0)
(-0.00969821 6.01965e-05 0)
(-0.00990984 6.08984e-05 0)
(-0.0101235 6.15695e-05 0)
(-0.0103391 6.22034e-05 0)
(-0.0105564 6.27933e-05 0)
(-0.0107752 6.33319e-05 0)
(-0.0109954 6.38116e-05 0)
(-0.0112167 6.4224e-05 0)
(-0.0114388 6.45604e-05 0)
(-0.0116615 6.48117e-05 0)
(-0.0118843 6.49683e-05 0)
(-0.0121071 6.502e-05 0)
(-0.0123292 6.49563e-05 0)
(-0.0125504 6.47661e-05 0)
(-0.0127701 6.4438e-05 0)
(-0.0129879 6.39602e-05 0)
(-0.0132031 6.33203e-05 0)
(-0.0134153 6.25061e-05 0)
(-0.0136236 6.15048e-05 0)
(-0.0138276 6.03036e-05 0)
(-0.0140265 5.88895e-05 0)
(-0.0142195 5.72496e-05 0)
(-0.0144058 5.53709e-05 0)
(-0.0145846 5.32409e-05 0)
(-0.014755 5.08471e-05 0)
(-0.0149162 4.81778e-05 0)
(-0.0150671 4.52218e-05 0)
(-0.0152068 4.19686e-05 0)
(-0.0153343 3.84088e-05 0)
(-0.0154485 3.45341e-05 0)
(-0.0155485 3.03377e-05 0)
(-0.015633 2.58143e-05 0)
(-0.0157012 2.09606e-05 0)
(-0.0157519 1.57752e-05 0)
(-0.015784 1.02593e-05 0)
(-0.0157964 4.41642e-06 0)
(-0.0157882 -1.74667e-06 0)
(-0.0157583 -8.22089e-06 0)
(-0.0157058 -1.49933e-05 0)
(-0.0156298 -2.20475e-05 0)
(-0.0155294 -2.93632e-05 0)
(-0.0154039 -3.69161e-05 0)
(-0.0152526 -4.46782e-05 0)
(-0.0150749 -5.26173e-05 0)
(-0.0148704 -6.06968e-05 0)
(-0.0146387 -6.88758e-05 0)
(-0.0143798 -7.71091e-05 0)
(-0.0140935 -8.53475e-05 0)
(-0.01378 -9.3538e-05 0)
(-0.0134396 -0.000101624 0)
(-0.0130729 -0.000109545 0)
(-0.0126805 -0.000117238 0)
(-0.0122634 -0.000124638 0)
(-0.0118227 -0.000131677 0)
(-0.0113598 -0.000138289 0)
(-0.0108762 -0.000144403 0)
(-0.0103737 -0.000149951 0)
(-0.0098543 -0.000154866 0)
(-0.00932022 -0.000159084 0)
(-0.00877387 -0.000162542 0)
(-0.00821784 -0.000165181 0)
(-0.00765491 -0.000166949 0)
(-0.007088 -0.000167798 0)
(-0.00652019 -0.000167686 0)
(-0.00595466 -0.000166578 0)
(-0.00539471 -0.000164449 0)
(-0.00484367 -0.000161278 0)
(-0.00430495 -0.000157055 0)
(-0.00378196 -0.000151778 0)
(-0.00327808 -0.000145453 0)
(-0.00279668 -0.000138092 0)
(-0.00234103 -0.000129718 0)
(-0.00191432 -0.00012036 0)
(-0.00151961 -0.000110052 0)
(-0.00115979 -9.88383e-05 0)
(-0.000837559 -8.67671e-05 0)
(-0.000555385 -7.38977e-05 0)
(-0.000315449 -6.0302e-05 0)
(-0.000119563 -4.60752e-05 0)
(3.09362e-05 -3.13548e-05 0)
(0.000135386 -1.63579e-05 0)
(0.000194125 -1.46168e-06 0)
(0.000209056 1.26385e-05 0)
(0.000184495 2.46639e-05 0)
(0.000129047 3.21481e-05 0)
(6.14032e-05 3.04982e-05 0)
(1.38892e-05 1.39104e-05 0)
(9.76326e-06 -1.851e-05 0)
(4.18729e-05 -4.19381e-05 0)
(8.85367e-05 -4.80653e-05 0)
(0.000131071 -4.11324e-05 0)
(0.000156954 -2.58783e-05 0)
(0.000158801 -5.69206e-06 0)
(0.000131993 1.71365e-05 0)
(7.39492e-05 4.10726e-05 0)
(-1.63658e-05 6.50986e-05 0)
(-0.000138887 8.85441e-05 0)
(-0.000292785 0.000110968 0)
(-0.000476709 0.000132098 0)
(-0.000688964 0.000151765 0)
(-0.000927638 0.000169883 0)
(-0.00119071 0.000186424 0)
(-0.0014761 0.000201403 0)
(-0.00178177 0.000214863 0)
(-0.00210569 0.000226871 0)
(-0.00244595 0.000237506 0)
(-0.00280073 0.000246861 0)
(-0.0031683 0.000255031 0)
(-0.00354711 0.000262117 0)
(-0.00393569 0.000268223 0)
(-0.00433272 0.000273445 0)
(-0.00473703 0.000277882 0)
(-0.00514755 0.000281628 0)
(-0.00556335 0.000284773 0)
(-0.00598362 0.000287399 0)
(-0.00640766 0.000289586 0)
(-0.00683487 0.000291406 0)
(-0.00726475 0.000292926 0)
(-0.0076969 0.000294209 0)
(-0.00813099 0.00029531 0)
(-0.00856677 0.00029628 0)
(-0.00900408 0.000297165 0)
(-0.00944278 0.000298005 0)
(-0.00988282 0.000298837 0)
(-0.0103242 0.000299693 0)
(-0.0107669 0.0003006 0)
(-0.0112111 0.000301583 0)
(-0.0116568 0.000302664 0)
(-0.0121042 0.000303861 0)
(-0.0125534 0.000305189 0)
(-0.0130047 0.000306661 0)
(-0.0134581 0.000308289 0)
(-0.013914 0.000310081 0)
(-0.0143726 0.000312044 0)
(-0.014834 0.000314184 0)
(-0.0152986 0.000316505 0)
(-0.0157666 0.000319009 0)
(-0.0162382 0.000321696 0)
(-0.0167137 0.000324568 0)
(-0.0171933 0.000327623 0)
(-0.0176774 0.000330858 0)
(-0.018166 0.000334271 0)
(-0.0186596 0.000337855 0)
(-0.0191583 0.000341606 0)
(-0.0196622 0.000345516 0)
(-0.0201718 0.000349577 0)
(-0.020687 0.000353779 0)
(-0.0212082 0.000358111 0)
(-0.0217354 0.000362562 0)
(-0.0222688 0.000367116 0)
(-0.0228086 0.000371759 0)
(-0.0233548 0.000376474 0)
(-0.0239074 0.000381241 0)
(-0.0244667 0.000386039 0)
(-0.0250324 0.000390847 0)
(-0.0256047 0.000395639 0)
(-0.0261834 0.000400389 0)
(-0.0267684 0.000405068 0)
(-0.0273596 0.000409643 0)
(-0.0279568 0.00041408 0)
(-0.0285596 0.000418345 0)
(-0.029168 0.000422396 0)
(-0.0297813 0.000426193 0)
(-0.0303993 0.00042969 0)
(-0.0310213 0.000432841 0)
(-0.0316469 0.000435594 0)
(-0.0322755 0.000437897 0)
(-0.0329062 0.000439694 0)
(-0.0335382 0.000440925 0)
(-0.0341708 0.000441528 0)
(-0.0348029 0.000441439 0)
(-0.0354334 0.000440591 0)
(-0.0360611 0.000438913 0)
(-0.0366849 0.000436332 0)
(-0.0373032 0.000432774 0)
(-0.0379147 0.000428163 0)
(-0.0385178 0.000422419 0)
(-0.0391107 0.000415463 0)
(-0.0396916 0.000407215 0)
(-0.0402586 0.000397594 0)
(-0.0408097 0.000386519 0)
(-0.0413428 0.000373909 0)
(-0.0418556 0.000359687 0)
(-0.0423457 0.000343776 0)
(-0.0428108 0.000326103 0)
(-0.0432482 0.000306598 0)
(-0.0436553 0.000285197 0)
(-0.0440294 0.000261842 0)
(-0.0443678 0.000236482 0)
(-0.0446676 0.000209075 0)
(-0.0449259 0.000179588 0)
(-0.0451398 0.000147999 0)
(-0.0453065 0.000114299 0)
(-0.0454229 7.8495e-05 0)
(-0.0454863 4.06062e-05 0)
(-0.0454937 6.70262e-07 0)
(-0.0454425 -4.12564e-05 0)
(-0.0453299 -8.50986e-05 0)
(-0.0451535 -0.000130759 0)
(-0.0449108 -0.000178119 0)
(-0.0445998 -0.000227036 0)
(-0.0442185 -0.000277342 0)
(-0.0437651 -0.000328845 0)
(-0.0432383 -0.000381328 0)
(-0.0426371 -0.000434548 0)
(-0.0419606 -0.000488235 0)
(-0.0412086 -0.000542095 0)
(-0.0403812 -0.000595811 0)
(-0.039479 -0.00064904 0)
(-0.038503 -0.000701421 0)
(-0.0374549 -0.000752572 0)
(-0.0363366 -0.000802096 0)
(-0.0351509 -0.000849581 0)
(-0.0339009 -0.000894609 0)
(-0.0325906 -0.000936752 0)
(-0.0312243 -0.000975585 0)
(-0.0298069 -0.00101068 0)
(-0.0283441 -0.00104164 0)
(-0.0268418 -0.00106804 0)
(-0.0253067 -0.00108952 0)
(-0.0237459 -0.00110571 0)
(-0.022167 -0.00111629 0)
(-0.020578 -0.00112097 0)
(-0.0189872 -0.0011195 0)
(-0.0174033 -0.00111168 0)
(-0.0158352 -0.00109734 0)
(-0.014292 -0.00107638 0)
(-0.0127829 -0.00104874 0)
(-0.011317 -0.00101443 0)
(-0.00990345 -0.000973494 0)
(-0.00855136 -0.000926056 0)
(-0.00726949 -0.000872287 0)
(-0.0060663 -0.000812418 0)
(-0.00494988 -0.000746742 0)
(-0.00392781 -0.000675622 0)
(-0.00300702 -0.000599499 0)
(-0.00219367 -0.000518916 0)
(-0.001493 -0.000434551 0)
(-0.000908988 -0.000347286 0)
(-0.000444066 -0.00025832 0)
(-9.85507e-05 -0.000169353 0)
(0.000130146 -8.2931e-05 0)
(0.000248718 -2.99496e-06 0)
(0.000269449 6.42139e-05 0)
(0.000212695 0.000108684 0)
(0.000114364 0.000114616 0)
(3.03137e-05 6.12821e-05 0)
(1.2118e-05 -4.45143e-05 0)
(4.83428e-05 -8.86848e-05 0)
(9.53323e-05 -9.49581e-05 0)
(0.000130276 -7.31e-05 0)
(0.000137973 -3.19912e-05 0)
(0.000108957 2.14338e-05 0)
(3.69066e-05 8.20362e-05 0)
(-8.19813e-05 0.000146111 0)
(-0.000249454 0.000211031 0)
(-0.000465712 0.000274956 0)
(-0.00072982 0.000336616 0)
(-0.00104003 0.00039516 0)
(-0.00139402 0.000450043 0)
(-0.00178909 0.000500944 0)
(-0.00222234 0.000547712 0)
(-0.00269072 0.000590323 0)
(-0.00319118 0.000628844 0)
(-0.00372071 0.000663414 0)
(-0.00427639 0.000694222 0)
(-0.00485544 0.000721487 0)
(-0.00545524 0.000745456 0)
(-0.00607333 0.00076639 0)
(-0.00670745 0.000784552 0)
(-0.00735553 0.000800208 0)
(-0.00801571 0.000813622 0)
(-0.00868629 0.000825049 0)
(-0.0093658 0.000834731 0)
(-0.0100529 0.000842901 0)
(-0.0107465 0.000849778 0)
(-0.0114456 0.000855566 0)
(-0.0121493 0.000860454 0)
(-0.0128571 0.000864616 0)
(-0.0135682 0.000868211 0)
(-0.0142824 0.000871386 0)
(-0.0149993 0.00087427 0)
(-0.0157187 0.000876982 0)
(-0.0164404 0.000879626 0)
(-0.0171644 0.000882297 0)
(-0.0178907 0.000885076 0)
(-0.0186194 0.000888036 0)
(-0.0193506 0.000891241 0)
(-0.0200845 0.000894743 0)
(-0.0208214 0.000898591 0)
(-0.0215616 0.000902822 0)
(-0.0223052 0.000907472 0)
(-0.0230527 0.000912565 0)
(-0.0238043 0.000918125 0)
(-0.0245605 0.000924168 0)
(-0.0253215 0.000930706 0)
(-0.0260879 0.000937745 0)
(-0.0268599 0.000945291 0)
(-0.0276379 0.000953343 0)
(-0.0284224 0.000961898 0)
(-0.0292136 0.000970947 0)
(-0.0300121 0.000980482 0)
(-0.0308181 0.000990486 0)
(-0.0316319 0.00100094 0)
(-0.032454 0.00101183 0)
(-0.0332846 0.00102312 0)
(-0.034124 0.00103479 0)
(-0.0349724 0.0010468 0)
(-0.0358302 0.00105912 0)
(-0.0366974 0.0010717 0)
(-0.0375743 0.0010845 0)
(-0.038461 0.00109747 0)
(-0.0393575 0.00111055 0)
(-0.0402639 0.00112367 0)
(-0.0411802 0.00113677 0)
(-0.0421062 0.00114978 0)
(-0.0430418 0.00116262 0)
(-0.0439868 0.0011752 0)
(-0.0449409 0.00118743 0)
(-0.0459037 0.00119921 0)
(-0.0468748 0.00121043 0)
(-0.0478536 0.00122097 0)
(-0.0488396 0.00123073 0)
(-0.0498318 0.00123956 0)
(-0.0508296 0.00124733 0)
(-0.0518319 0.00125389 0)
(-0.0528377 0.0012591 0)
(-0.0538457 0.00126279 0)
(-0.0548547 0.00126479 0)
(-0.0558631 0.00126492 0)
(-0.0568693 0.00126301 0)
(-0.0578716 0.00125885 0)
(-0.058868 0.00125226 0)
(-0.0598565 0.00124302 0)
(-0.0608348 0.00123094 0)
(-0.0618006 0.00121579 0)
(-0.0627512 0.00119736 0)
(-0.063684 0.00117542 0)
(-0.064596 0.00114975 0)
(-0.0654843 0.00112014 0)
(-0.0663454 0.00108636 0)
(-0.0671761 0.00104819 0)
(-0.0679727 0.00100543 0)
(-0.0687316 0.000957856 0)
(-0.0694489 0.000905289 0)
(-0.0701205 0.00084754 0)
(-0.0707424 0.000784445 0)
(-0.0713104 0.000715853 0)
(-0.07182 0.000641638 0)
(-0.072267 0.000561697 0)
(-0.0726467 0.000475956 0)
(-0.0729548 0.000384374 0)
(-0.0731868 0.000286944 0)
(-0.0733382 0.000183701 0)
(-0.0734046 7.47221e-05 0)
(-0.0733816 -3.98674e-05 0)
(-0.0732651 -0.000159891 0)
(-0.0730512 -0.000285118 0)
(-0.072736 -0.000415259 0)
(-0.072316 -0.000549962 0)
(-0.071788 -0.000688812 0)
(-0.0711491 -0.000831328 0)
(-0.070397 -0.00097696 0)
(-0.0695296 -0.00112509 0)
(-0.0685454 -0.00127503 0)
(-0.0674437 -0.00142602 0)
(-0.066224 -0.00157724 0)
(-0.0648867 -0.00172781 0)
(-0.0634331 -0.00187677 0)
(-0.0618647 -0.00202312 0)
(-0.0601844 -0.00216581 0)
(-0.0583955 -0.00230375 0)
(-0.0565023 -0.0024358 0)
(-0.0545099 -0.00256081 0)
(-0.0524244 -0.00267762 0)
(-0.0502527 -0.00278507 0)
(-0.0480025 -0.002882 0)
(-0.0456825 -0.00296728 0)
(-0.0433022 -0.00303984 0)
(-0.0408718 -0.00309862 0)
(-0.0384023 -0.00314268 0)
(-0.0359055 -0.00317113 0)
(-0.0333937 -0.00318319 0)
(-0.0308796 -0.00317818 0)
(-0.0283768 -0.00315555 0)
(-0.0258988 -0.00311488 0)
(-0.0234596 -0.00305589 0)
(-0.0210734 -0.00297846 0)
(-0.018754 -0.0028826 0)
(-0.0165157 -0.00276852 0)
(-0.0143721 -0.00263655 0)
(-0.0123367 -0.00248724 0)
(-0.0104223 -0.00232128 0)
(-0.008641 -0.0021396 0)
(-0.00700425 -0.00194331 0)
(-0.00552227 -0.0017338 0)
(-0.00420402 -0.00151278 0)
(-0.00305682 -0.0012824 0)
(-0.00208602 -0.00104539 0)
(-0.00129438 -0.000805392 0)
(-0.000681407 -0.000567322 0)
(-0.000242317 -0.000338096 0)
(3.33161e-05 -0.000127623 0)
(0.000163063 4.96838e-05 0)
(0.00017378 0.000173015 0)
(0.00010854 0.000212842 0)
(3.18382e-05 0.000128515 0)
(1.13339e-05 -7.11478e-05 0)
(4.17987e-05 -0.00013156 0)
(7.39657e-05 -0.000130019 0)
(8.38829e-05 -8.31494e-05 0)
(5.54042e-05 -4.39333e-06 0)
(-2.18805e-05 9.54987e-05 0)
(-0.000155116 0.000208232 0)
(-0.000348732 0.000327578 0)
(-0.000604883 0.000448943 0)
(-0.000923937 0.000568985 0)
(-0.00130489 0.000685319 0)
(-0.00174573 0.000796287 0)
(-0.00224368 0.000900783 0)
(-0.00279549 0.00099812 0)
(-0.00339756 0.00108793 0)
(-0.00404609 0.0011701 0)
(-0.00473726 0.00124468 0)
(-0.00546723 0.00131189 0)
(-0.00623228 0.00137203 0)
(-0.00702881 0.00142548 0)
(-0.00785342 0.00147267 0)
(-0.00870293 0.00151407 0)
(-0.00957435 0.00155016 0)
(-0.010465 0.00158143 0)
(-0.0113723 0.00160836 0)
(-0.0122941 0.00163143 0)
(-0.0132284 0.0016511 0)
(-0.0141734 0.0016678 0)
(-0.0151275 0.00168195 0)
(-0.0160895 0.00169393 0)
(-0.0170582 0.00170412 0)
(-0.0180326 0.00171283 0)
(-0.019012 0.00172039 0)
(-0.0199957 0.00172706 0)
(-0.0209834 0.00173311 0)
(-0.0219746 0.00173877 0)
(-0.0229691 0.00174423 0)
(-0.0239669 0.00174969 0)
(-0.0249679 0.0017553 0)
(-0.0259722 0.00176121 0)
(-0.02698 0.00176755 0)
(-0.0279914 0.00177442 0)
(-0.0290068 0.00178191 0)
(-0.0300265 0.00179011 0)
(-0.0310508 0.00179908 0)
(-0.0320801 0.00180887 0)
(-0.033115 0.00181953 0)
(-0.0341557 0.0018311 0)
(-0.0352028 0.00184359 0)
(-0.0362568 0.00185702 0)
(-0.0373182 0.00187141 0)
(-0.0383875 0.00188674 0)
(-0.039465 0.00190302 0)
(-0.0405515 0.00192023 0)
(-0.0416472 0.00193834 0)
(-0.0427526 0.00195734 0)
(-0.0438683 0.00197717 0)
(-0.0449946 0.0019978 0)
(-0.0461319 0.00201918 0)
(-0.0472805 0.00204125 0)
(-0.0484408 0.00206393 0)
(-0.049613 0.00208716 0)
(-0.0507974 0.00211086 0)
(-0.0519942 0.00213492 0)
(-0.0532034 0.00215925 0)
(-0.0544251 0.00218373 0)
(-0.0556593 0.00220823 0)
(-0.056906 0.00223264 0)
(-0.0581649 0.00225678 0)
(-0.0594358 0.00228052 0)
(-0.0607184 0.00230368 0)
(-0.0620121 0.00232607 0)
(-0.0633166 0.0023475 0)
(-0.064631 0.00236776 0)
(-0.0659545 0.00238663 0)
(-0.0672864 0.00240385 0)
(-0.0686254 0.00241919 0)
(-0.0699704 0.00243238 0)
(-0.0713201 0.00244312 0)
(-0.0726729 0.00245113 0)
(-0.0740271 0.00245609 0)
(-0.0753809 0.00245767 0)
(-0.0767323 0.00245554 0)
(-0.0780789 0.00244933 0)
(-0.0794184 0.00243869 0)
(-0.0807482 0.00242323 0)
(-0.0820653 0.00240256 0)
(-0.0833669 0.00237628 0)
(-0.0846495 0.00234399 0)
(-0.0859098 0.00230526 0)
(-0.0871441 0.0022597 0)
(-0.0883484 0.00220687 0)
(-0.0895186 0.00214636 0)
(-0.0906504 0.00207776 0)
(-0.0917392 0.00200066 0)
(-0.0927803 0.00191467 0)
(-0.0937688 0.00181941 0)
(-0.0946995 0.00171453 0)
(-0.0955671 0.0015997 0)
(-0.0963663 0.00147462 0)
(-0.0970914 0.00133902 0)
(-0.0977367 0.00119269 0)
(-0.0982966 0.00103545 0)
(-0.0987652 0.000867181 0)
(-0.0991366 0.000687841 0)
(-0.0994051 0.000497442 0)
(-0.0995649 0.000296074 0)
(-0.0996104 8.39153e-05 0)
(-0.0995359 -0.000138769 0)
(-0.0993362 -0.000371614 0)
(-0.0990062 -0.000614153 0)
(-0.0985412 -0.000865808 0)
(-0.0979367 -0.00112589 0)
(-0.0971886 -0.00139357 0)
(-0.0962936 -0.00166794 0)
(-0.0952485 -0.00194791 0)
(-0.0940512 -0.0022323 0)
(-0.0926998 -0.00251979 0)
(-0.0911934 -0.00280893 0)
(-0.089532 -0.00309817 0)
(-0.0877162 -0.0033858 0)
(-0.0857476 -0.00367004 0)
(-0.0836288 -0.00394898 0)
(-0.0813635 -0.00422065 0)
(-0.0789564 -0.00448297 0)
(-0.0764131 -0.00473384 0)
(-0.0737407 -0.00497108 0)
(-0.0709469 -0.00519252 0)
(-0.0680411 -0.00539597 0)
(-0.0650333 -0.00557928 0)
(-0.061935 -0.00574034 0)
(-0.0587585 -0.00587713 0)
(-0.0555172 -0.00598772 0)
(-0.0522255 -0.00607032 0)
(-0.0488986 -0.00612328 0)
(-0.0455525 -0.00614515 0)
(-0.042204 -0.00613468 0)
(-0.0388703 -0.00609085 0)
(-0.0355692 -0.00601289 0)
(-0.0323187 -0.00590029 0)
(-0.029137 -0.00575284 0)
(-0.0260424 -0.00557063 0)
(-0.023053 -0.00535405 0)
(-0.0201865 -0.00510383 0)
(-0.01746 -0.00482104 0)
(-0.0148901 -0.00450711 0)
(-0.0124924 -0.00416388 0)
(-0.0102811 -0.00379363 0)
(-0.00826914 -0.00339917 0)
(-0.00646768 -0.00298397 0)
(-0.00488561 -0.00255233 0)
(-0.00352915 -0.00210969 0)
(-0.00240126 -0.00166305 0)
(-0.00150077 -0.00122166 0)
(-0.000821463 -0.000797922 0)
(-0.000350714 -0.000408811 0)
(-6.82036e-05 -7.77338e-05 0)
(5.58655e-05 0.000163282 0)
(6.58527e-05 0.000270896 0)
(2.45165e-05 0.000183828 0)
(8.7693e-06 -9.17245e-05 0)
(2.67234e-05 -0.000157875 0)
(3.26458e-05 -0.000137677 0)
(4.10546e-06 -5.45311e-05 0)
(-7.46392e-05 7.34892e-05 0)
(-0.00021416 0.00023184 0)
(-0.000421753 0.000409061 0)
(-0.000701981 0.000596329 0)
(-0.00105708 0.000786952 0)
(-0.0014874 0.000975937 0)
(-0.00199181 0.00115962 0)
(-0.00256804 0.00133539 0)
(-0.00321297 0.00150145 0)
(-0.00392288 0.00165665 0)
(-0.00469363 0.00180032 0)
(-0.00552083 0.00193218 0)
(-0.00640002 0.00205228 0)
(-0.0073267 0.00216085 0)
(-0.00829645 0.00225832 0)
(-0.00930504 0.00234525 0)
(-0.0103484 0.00242227 0)
(-0.0114227 0.00249008 0)
(-0.0125243 0.00254942 0)
(-0.01365 0.00260104 0)
(-0.0147968 0.00264568 0)
(-0.0159618 0.00268409 0)
(-0.0171427 0.00271698 0)
(-0.0183372 0.00274505 0)
(-0.0195435 0.00276893 0)
(-0.0207599 0.00278926 0)
(-0.0219849 0.00280661 0)
(-0.0232174 0.00282151 0)
(-0.0244564 0.00283445 0)
(-0.025701 0.00284589 0)
(-0.0269507 0.00285623 0)
(-0.0282049 0.00286585 0)
(-0.0294635 0.00287508 0)
(-0.0307262 0.00288423 0)
(-0.0319929 0.00289354 0)
(-0.0332638 0.00290327 0)
(-0.0345389 0.00291361 0)
(-0.0358185 0.00292475 0)
(-0.0371029 0.00293683 0)
(-0.0383925 0.00294999 0)
(-0.0396876 0.00296434 0)
(-0.0409888 0.00297996 0)
(-0.0422965 0.00299694 0)
(-0.0436113 0.00301533 0)
(-0.0449338 0.00303516 0)
(-0.0462644 0.00305647 0)
(-0.0476037 0.00307927 0)
(-0.0489524 0.00310356 0)
(-0.050311 0.00312932 0)
(-0.0516801 0.00315654 0)
(-0.0530602 0.00318517 0)
(-0.0544519 0.00321517 0)
(-0.0558556 0.00324647 0)
(-0.0572718 0.003279 0)
(-0.0587011 0.00331268 0)
(-0.0601437 0.00334741 0)
(-0.0616 0.00338307 0)
(-0.0630704 0.00341955 0)
(-0.064555 0.00345669 0)
(-0.066054 0.00349435 0)
(-0.0675676 0.00353235 0)
(-0.0690957 0.0035705 0)
(-0.0706382 0.00360861 0)
(-0.0721951 0.00364644 0)
(-0.073766 0.00368375 0)
(-0.0753506 0.0037203 0)
(-0.0769484 0.00375578 0)
(-0.0785587 0.00378991 0)
(-0.0801808 0.00382236 0)
(-0.0818138 0.00385279 0)
(-0.0834566 0.00388083 0)
(-0.0851081 0.00390609 0)
(-0.0867668 0.00392815 0)
(-0.0884312 0.00394659 0)
(-0.0900995 0.00396095 0)
(-0.0917698 0.00397074 0)
(-0.09344 0.00397545 0)
(-0.0951076 0.00397458 0)
(-0.0967701 0.00396755 0)
(-0.0984246 0.00395381 0)
(-0.100068 0.00393278 0)
(-0.101697 0.00390383 0)
(-0.103309 0.00386636 0)
(-0.104899 0.00381973 0)
(-0.106463 0.0037633 0)
(-0.107997 0.0036964 0)
(-0.109496 0.00361839 0)
(-0.110956 0.0035286 0)
(-0.112372 0.0034264 0)
(-0.113738 0.00331112 0)
(-0.115048 0.00318215 0)
(-0.116297 0.00303888 0)
(-0.117479 0.00288073 0)
(-0.118588 0.00270716 0)
(-0.119617 0.00251767 0)
(-0.120559 0.00231181 0)
(-0.121409 0.00208919 0)
(-0.122158 0.00184949 0)
(-0.122801 0.00159248 0)
(-0.123329 0.00131801 0)
(-0.123737 0.00102602 0)
(-0.124018 0.000716595 0)
(-0.124164 0.000389907 0)
(-0.124168 4.62764e-05 0)
(-0.124025 -0.000313833 0)
(-0.123728 -0.000689806 0)
(-0.123271 -0.00108086 0)
(-0.122649 -0.00148605 0)
(-0.121856 -0.00190424 0)
(-0.120888 -0.00233411 0)
(-0.119741 -0.00277414 0)
(-0.118412 -0.00322263 0)
(-0.116898 -0.00367767 0)
(-0.115196 -0.00413716 0)
(-0.113307 -0.00459879 0)
(-0.111231 -0.00506009 0)
(-0.108968 -0.00551837 0)
(-0.10652 -0.0059708 0)
(-0.103892 -0.0064144 0)
(-0.101087 -0.00684604 0)
(-0.098112 -0.00726247 0)
(-0.0949731 -0.00766037 0)
(-0.091679 -0.00803635 0)
(-0.0882395 -0.00838699 0)
(-0.0846656 -0.00870889 0)
(-0.0809695 -0.00899868 0)
(-0.0771651 -0.00925306 0)
(-0.073267 -0.00946887 0)
(-0.0692915 -0.0096431 0)
(-0.0652557 -0.00977297 0)
(-0.0611777 -0.0098559 0)
(-0.0570769 -0.00988965 0)
(-0.052973 -0.00987225 0)
(-0.0488868 -0.00980215 0)
(-0.0448394 -0.00967813 0)
(-0.0408523 -0.00949946 0)
(-0.0369472 -0.00926582 0)
(-0.0331458 -0.00897739 0)
(-0.0294696 -0.00863485 0)
(-0.0259397 -0.00823942 0)
(-0.0225764 -0.00779288 0)
(-0.0193992 -0.0072976 0)
(-0.0164266 -0.00675663 0)
(-0.0136752 -0.00617374 0)
(-0.0111602 -0.00555359 0)
(-0.00889433 -0.00490187 0)
(-0.00688789 -0.00422558 0)
(-0.00514789 -0.00353345 0)
(-0.00367756 -0.0028365 0)
(-0.00247556 -0.00214884 0)
(-0.00153508 -0.00148887 0)
(-0.000842794 -0.0008808 0)
(-0.000377666 -0.000356809 0)
(-0.000109529 4.06295e-05 0)
(2.97199e-06 0.00025567 0)
(1.31307e-05 0.000209663 0)
(5.24362e-06 -0.000102723 0)
(6.2312e-06 -0.000159729 0)
(-2.23894e-05 -0.000107569 0)
(-9.95731e-05 2.44427e-05 0)
(-0.000239578 0.000213882 0)
(-0.000452501 0.000442595 0)
(-0.000745276 0.000696072 0)
(-0.00112216 0.00096294 0)
(-0.00158517 0.00123441 0)
(-0.00213443 0.00150377 0)
(-0.00276856 0.00176603 0)
(-0.00348501 0.00201753 0)
(-0.0042803 0.0022557 0)
(-0.00515029 0.00247885 0)
(-0.00609038 0.00268596 0)
(-0.00709572 0.00287656 0)
(-0.00816126 0.00305061 0)
(-0.00928198 0.00320839 0)
(-0.0104529 0.00335044 0)
(-0.0116692 0.00347747 0)
(-0.0129263 0.00359036 0)
(-0.0142197 0.00369005 0)
(-0.0155454 0.00377756 0)
(-0.0168996 0.00385392 0)
(-0.0182788 0.00392019 0)
(-0.0196798 0.0039774 0)
(-0.0210998 0.00402658 0)
(-0.0225361 0.00406868 0)
(-0.0239867 0.00410466 0)
(-0.0254493 0.00413538 0)
(-0.0269225 0.00416168 0)
(-0.0284047 0.00418431 0)
(-0.0298948 0.004204 0)
(-0.0313917 0.0042214 0)
(-0.0328947 0.0042371 0)
(-0.0344033 0.00425164 0)
(-0.035917 0.0042655 0)
(-0.0374356 0.00427914 0)
(-0.0389589 0.00429293 0)
(-0.040487 0.00430722 0)
(-0.0420201 0.00432231 0)
(-0.0435583 0.00433847 0)
(-0.045102 0.00435592 0)
(-0.0466515 0.00437486 0)
(-0.0482074 0.00439545 0)
(-0.04977 0.00441782 0)
(-0.0513401 0.0044421 0)
(-0.052918 0.00446835 0)
(-0.0545046 0.00449665 0)
(-0.0561003 0.00452703 0)
(-0.0577059 0.0045595 0)
(-0.0593219 0.00459408 0)
(-0.060949 0.00463074 0)
(-0.0625879 0.00466945 0)
(-0.0642391 0.00471014 0)
(-0.0659032 0.00475275 0)
(-0.0675808 0.00479718 0)
(-0.0692724 0.00484332 0)
(-0.0709785 0.00489105 0)
(-0.0726995 0.00494022 0)
(-0.0744357 0.00499065 0)
(-0.0761875 0.00504216 0)
(-0.0779551 0.00509454 0)
(-0.0797386 0.00514755 0)
(-0.0815381 0.00520095 0)
(-0.0833535 0.00525444 0)
(-0.0851848 0.00530773 0)
(-0.0870316 0.00536048 0)
(-0.0888935 0.00541234 0)
(-0.0907701 0.00546291 0)
(-0.0926607 0.00551179 0)
(-0.0945645 0.00555853 0)
(-0.0964805 0.00560265 0)
(-0.0984076 0.00564365 0)
(-0.100345 0.00568099 0)
(-0.10229 0.00571409 0)
(-0.104241 0.00574237 0)
(-0.106198 0.00576517 0)
(-0.108157 0.00578183 0)
(-0.110116 0.00579166 0)
(-0.112072 0.00579391 0)
(-0.114024 0.00578783 0)
(-0.115967 0.00577263 0)
(-0.117898 0.00574748 0)
(-0.119813 0.00571154 0)
(-0.12171 0.00566394 0)
(-0.123582 0.00560378 0)
(-0.125427 0.00553017 0)
(-0.127239 0.00544218 0)
(-0.129013 0.00533888 0)
(-0.130744 0.00521935 0)
(-0.132425 0.00508265 0)
(-0.134052 0.00492786 0)
(-0.135618 0.00475409 0)
(-0.137116 0.00456045 0)
(-0.13854 0.0043461 0)
(-0.139883 0.00411025 0)
(-0.141138 0.00385214 0)
(-0.142296 0.00357109 0)
(-0.143352 0.0032665 0)
(-0.144296 0.00293786 0)
(-0.145121 0.00258475 0)
(-0.14582 0.00220687 0)
(-0.146385 0.00180407 0)
(-0.146806 0.00137631 0)
(-0.147078 0.000923751 0)
(-0.147191 0.000446699 0)
(-0.147139 -5.43374e-05 0)
(-0.146915 -0.000578647 0)
(-0.14651 -0.0011253 0)
(-0.14592 -0.00169313 0)
(-0.145136 -0.00228074 0)
(-0.144155 -0.00288647 0)
(-0.14297 -0.00350838 0)
(-0.141579 -0.00414429 0)
(-0.139976 -0.00479173 0)
(-0.138159 -0.00544795 0)
(-0.136127 -0.00610992 0)
(-0.133879 -0.00677437 0)
(-0.131415 -0.00743772 0)
(-0.128736 -0.00809617 0)
(-0.125846 -0.0087457 0)
(-0.122748 -0.00938204 0)
(-0.119448 -0.0100008 0)
(-0.115952 -0.0105973 0)
(-0.112269 -0.0111669 0)
(-0.108409 -0.0117047 0)
(-0.104382 -0.0122061 0)
(-0.100201 -0.012666 0)
(-0.0958808 -0.0130799 0)
(-0.0914365 -0.013443 0)
(-0.086885 -0.0137509 0)
(-0.0822448 -0.0139993 0)
(-0.0775354 -0.0141843 0)
(-0.0727776 -0.0143023 0)
(-0.067993 -0.0143501 0)
(-0.0632044 -0.014325 0)
(-0.0584353 -0.0142247 0)
(-0.0537095 -0.0140477 0)
(-0.0490516 -0.0137927 0)
(-0.0444862 -0.0134596 0)
(-0.0400379 -0.0130485 0)
(-0.0357311 -0.0125604 0)
(-0.0315895 -0.0119973 0)
(-0.0276364 -0.0113617 0)
(-0.0238936 -0.0106572 0)
(-0.020382 -0.00988814 0)
(-0.0171204 -0.00906022 0)
(-0.0141257 -0.00818021 0)
(-0.0114123 -0.00725639 0)
(-0.00899165 -0.00629889 0)
(-0.00687162 -0.0053201 0)
(-0.00505606 -0.00433542 0)
(-0.00354401 -0.00336411 0)
(-0.00232898 -0.0024306 0)
(-0.0013982 -0.00156611 0)
(-0.000731556 -0.000810928 0)
(-0.000300482 -0.000216684 0)
(-6.96071e-05 0.000150375 0)
(2.4797e-07 0.000198928 0)
(1.21222e-06 -0.000102039 0)
(-1.76377e-05 -0.000131637 0)
(-8.66485e-05 -3.19861e-05 0)
(-0.000220035 0.0001628 0)
(-0.000429754 0.000426463 0)
(-0.000724925 0.000737555 0)
(-0.00111167 0.00107874 0)
(-0.00159361 0.00143623 0)
(-0.00217221 0.00179921 0)
(-0.00284719 0.00215931 0)
(-0.00361679 0.00251017 0)
(-0.00447806 0.00284708 0)
(-0.00542714 0.00316667 0)
(-0.00645948 0.00346667 0)
(-0.00757008 0.00374566 0)
(-0.0087536 0.00400296 0)
(-0.0100046 0.00423843 0)
(-0.0113174 0.00445236 0)
(-0.0126868 0.0046454 0)
(-0.0141073 0.00481846 0)
(-0.0155738 0.00497261 0)
(-0.0170816 0.00510908 0)
(-0.018626 0.00522917 0)
(-0.0202028 0.00533426 0)
(-0.0218082 0.0054257 0)
(-0.0234385 0.00550488 0)
(-0.0250906 0.00557312 0)
(-0.0267615 0.00563172 0)
(-0.0284486 0.00568192 0)
(-0.0301499 0.00572491 0)
(-0.0318632 0.00576177 0)
(-0.033587 0.00579356 0)
(-0.0353198 0.00582122 0)
(-0.0370605 0.00584564 0)
(-0.0388083 0.00586762 0)
(-0.0405624 0.0058879 0)
(-0.0423222 0.00590714 0)
(-0.0440876 0.00592593 0)
(-0.0458583 0.00594481 0)
(-0.0476343 0.00596425 0)
(-0.0494156 0.00598467 0)
(-0.0512026 0.00600642 0)
(-0.0529956 0.00602983 0)
(-0.0547948 0.00605515 0)
(-0.0566009 0.00608263 0)
(-0.0584143 0.00611243 0)
(-0.0602357 0.00614472 0)
(-0.0620656 0.00617962 0)
(-0.0639047 0.0062172 0)
(-0.0657537 0.00625752 0)
(-0.0676132 0.00630061 0)
(-0.069484 0.00634647 0)
(-0.0713667 0.00639507 0)
(-0.0732621 0.00644636 0)
(-0.0751707 0.00650025 0)
(-0.0770932 0.00655666 0)
(-0.0790301 0.00661544 0)
(-0.0809821 0.00667644 0)
(-0.0829496 0.00673949 0)
(-0.084933 0.00680437 0)
(-0.0869326 0.00687085 0)
(-0.0889489 0.00693866 0)
(-0.0909819 0.00700751 0)
(-0.0930318 0.00707708 0)
(-0.0950986 0.007147 0)
(-0.0971821 0.0072169 0)
(-0.0992822 0.00728635 0)
(-0.101398 0.00735488 0)
(-0.10353 0.00742201 0)
(-0.105677 0.00748719 0)
(-0.107838 0.00754987 0)
(-0.110013 0.00760942 0)
(-0.112199 0.00766519 0)
(-0.114396 0.00771649 0)
(-0.116602 0.00776258 0)
(-0.118815 0.00780268 0)
(-0.121034 0.00783597 0)
(-0.123255 0.00786158 0)
(-0.125477 0.00787861 0)
(-0.127697 0.0078861 0)
(-0.129911 0.00788306 0)
(-0.132117 0.00786846 0)
(-0.134311 0.00784124 0)
(-0.136488 0.00780028 0)
(-0.138646 0.00774445 0)
(-0.140778 0.00767259 0)
(-0.142881 0.0075835 0)
(-0.144949 0.00747597 0)
(-0.146977 0.00734879 0)
(-0.148959 0.00720071 0)
(-0.150889 0.00703051 0)
(-0.15276 0.00683696 0)
(-0.154567 0.00661885 0)
(-0.156301 0.00637499 0)
(-0.157956 0.00610425 0)
(-0.159525 0.00580552 0)
(-0.160999 0.00547777 0)
(-0.16237 0.00512005 0)
(-0.16363 0.00473148 0)
(-0.164772 0.0043113 0)
(-0.165785 0.00385888 0)
(-0.166663 0.00337372 0)
(-0.167395 0.00285548 0)
(-0.167974 0.00230399 0)
(-0.168391 0.0017193 0)
(-0.168637 0.00110165 0)
(-0.168703 0.000451524 0)
(-0.168583 -0.000230338 0)
(-0.168267 -0.000942927 0)
(-0.167749 -0.00168494 0)
(-0.16702 -0.00245477 0)
(-0.166076 -0.00325049 0)
(-0.164909 -0.00406984 0)
(-0.163514 -0.0049102 0)
(-0.161887 -0.0057686 0)
(-0.160024 -0.00664173 0)
(-0.157923 -0.00752588 0)
(-0.155581 -0.00841702 0)
(-0.152998 -0.00931075 0)
(-0.150174 -0.0102023 0)
(-0.147112 -0.0110867 0)
(-0.143815 -0.0119584 0)
(-0.140287 -0.0128119 0)
(-0.136534 -0.0136413 0)
(-0.132564 -0.0144405 0)
(-0.128386 -0.0152032 0)
(-0.124011 -0.0159232 0)
(-0.119451 -0.016594 0)
(-0.114721 -0.0172092 0)
(-0.109836 -0.0177627 0)
(-0.104812 -0.0182482 0)
(-0.0996696 -0.0186598 0)
(-0.094428 -0.018992 0)
(-0.0891088 -0.0192395 0)
(-0.083735 -0.0193976 0)
(-0.0783304 -0.0194621 0)
(-0.07292 -0.0194293 0)
(-0.0675296 -0.0192964 0)