/*--------------------------------*- C++ -*----------------------------------*\
  =========                 |
  \\      /  F ield         | OpenFOAM: The Open Source CFD Toolbox
   \\    /   O peration     | Website:  https://openfoam.org
    \\  /    A nd           | Version:  7
     \\/     M anipulation  |
\*---------------------------------------------------------------------------*/
FoamFile
{
    version     2.0;
    format      ascii;
    class       surfaceScalarField;
    location    "0.0625";
    object      phi;
}
// * * * * * * * * * * * * * * * * * * * * * * * * * * * * * * * * * * * * * //

dimensions      [0 3 -1 0 0 0 0];

internalField   nonuniform List<scalar> 
101920
(
2.09683e-13
-2.02564e-13
-1.81974e-12
2.02712e-12
-9.54535e-13
-8.64984e-13
-1.32276e-13
-8.23604e-13
6.37575e-13
-7.68886e-13
1.15967e-12
-5.21262e-13
1.34484e-12
-1.85064e-13
1.16881e-12
1.76551e-13
6.29689e-13
5.39404e-13
-2.62154e-13
8.91853e-13
-1.48447e-12
1.22169e-12
-3.01162e-12
1.52778e-12
-4.82596e-12
1.81453e-12
-6.90737e-12
2.08143e-12
-9.23129e-12
2.323e-12
-1.17739e-11
2.54166e-12
-1.45162e-11
2.74239e-12
-1.74413e-11
2.92535e-12
-2.05318e-11
3.0916e-12
-2.37686e-11
3.23679e-12
-2.71287e-11
3.35994e-12
-3.05938e-11
3.465e-12
-3.41497e-11
3.55544e-12
-3.77821e-11
3.63247e-12
-4.14796e-11
3.69705e-12
-4.52307e-11
3.75073e-12
-4.9024e-11
3.7937e-12
-5.28492e-11
3.82535e-12
-5.66957e-11
3.8472e-12
-6.05544e-11
3.8591e-12
-6.44161e-11
3.86086e-12
-6.82719e-11
3.85544e-12
-7.21155e-11
3.84287e-12
-7.59385e-11
3.82205e-12
-7.9734e-11
3.79552e-12
-8.34984e-11
3.76452e-12
-8.7227e-11
3.72873e-12
-9.09146e-11
3.68831e-12
-9.45566e-11
3.64184e-12
-9.81466e-11
3.58915e-12
-1.0168e-10
3.5328e-12
-1.05154e-10
3.47385e-12
-1.08567e-10
3.41213e-12
-1.11914e-10
3.34758e-12
-1.15193e-10
3.2793e-12
-1.184e-10
3.20736e-12
-1.21533e-10
3.13379e-12
-1.24593e-10
3.0599e-12
-1.27579e-10
2.98486e-12
-1.30487e-10
2.90764e-12
-1.33316e-10
2.82868e-12
-1.36065e-10
2.7488e-12
-1.38731e-10
2.66721e-12
-1.41313e-10
2.5825e-12
-1.43808e-10
2.49539e-12
-1.46217e-10
2.40848e-12
-1.48539e-10
2.32298e-12
-1.50776e-10
2.23702e-12
-1.52924e-10
2.14828e-12
-1.5498e-10
2.05651e-12
-1.56943e-10
1.96288e-12
-1.58812e-10
1.86838e-12
-1.60586e-10
1.77351e-12
-1.62265e-10
1.67817e-12
-1.63847e-10
1.58231e-12
-1.65333e-10
1.48619e-12
-1.66721e-10
1.38928e-12
-1.68011e-10
1.29021e-12
-1.69201e-10
1.18925e-12
-1.7029e-10
1.0884e-12
-1.71279e-10
9.88474e-13
-1.72167e-10
8.88254e-13
-1.72954e-10
7.865e-13
-1.73638e-10
6.83376e-13
-1.74219e-10
5.79862e-13
-1.74696e-10
4.76667e-13
-1.75069e-10
3.73631e-13
-1.75337e-10
2.69855e-13
-1.75501e-10
1.64763e-13
-1.75559e-10
5.88737e-14
-1.75512e-10
-4.68938e-14
-1.7536e-10
-1.52235e-13
-1.75103e-10
-2.57494e-13
-1.74742e-10
-3.62649e-13
-1.74276e-10
-4.6708e-13
-1.73705e-10
-5.70567e-13
-1.73032e-10
-6.73673e-13
-1.72255e-10
-7.76658e-13
-1.71376e-10
-8.79e-13
-1.70394e-10
-9.80303e-13
-1.69313e-10
-1.08089e-12
-1.68131e-10
-1.18152e-12
-1.66848e-10
-1.28256e-12
-1.65465e-10
-1.38335e-12
-1.63983e-10
-1.48276e-12
-1.62403e-10
-1.58056e-12
-1.60726e-10
-1.67743e-12
-1.58952e-10
-1.77404e-12
-1.57081e-10
-1.87027e-12
-1.55116e-10
-1.96554e-12
-1.53056e-10
-2.05961e-12
-1.50903e-10
-2.15273e-12
-1.48659e-10
-2.24462e-12
-1.46326e-10
-2.33428e-12
-1.43904e-10
-2.42142e-12
-1.41397e-10
-2.50706e-12
-1.38804e-10
-2.59198e-12
-1.36128e-10
-2.67573e-12
-1.33371e-10
-2.75754e-12
-1.30532e-10
-2.83769e-12
-1.27614e-10
-2.91695e-12
-1.24619e-10
-2.99517e-12
-1.21547e-10
-3.07113e-12
-1.18403e-10
-3.14412e-12
-1.15188e-10
-3.21494e-12
-1.11904e-10
-3.28481e-12
-1.08551e-10
-3.35342e-12
-1.05133e-10
-3.41866e-12
-1.01654e-10
-3.47884e-12
-9.81184e-11
-3.53454e-12
-9.45298e-11
-3.5879e-12
-9.08901e-11
-3.63983e-12
-8.72022e-11
-3.68852e-12
-8.34713e-11
-3.73141e-12
-7.97033e-11
-3.76776e-12
-7.59038e-11
-3.79861e-12
-7.20786e-11
-3.82445e-12
-6.82344e-11
-3.84419e-12
-6.4378e-11
-3.85676e-12
-6.05157e-11
-3.86238e-12
-5.66538e-11
-3.86125e-12
-5.28008e-11
-3.85179e-12
-4.89684e-11
-3.83142e-12
-4.51691e-11
-3.79907e-12
-4.14131e-11
-3.75609e-12
-3.77093e-11
-3.704e-12
-3.40686e-11
-3.64128e-12
-3.05051e-11
-3.56415e-12
-2.70352e-11
-3.47019e-12
-2.3675e-11
-3.35992e-12
-2.04395e-11
-3.23488e-12
-1.73442e-11
-3.09499e-12
-1.44064e-11
-2.93802e-12
-1.16448e-11
-2.762e-12
-9.07792e-12
-2.56705e-12
-6.7238e-12
-2.35406e-12
-4.60053e-12
-2.12305e-12
-2.7259e-12
-1.87413e-12
-1.11651e-12
-1.60878e-12
2.13386e-13
-1.32937e-12
1.25162e-12
-1.03795e-12
1.98732e-12
-7.35826e-13
2.41292e-12
-4.25959e-13
2.53009e-12
-1.17316e-13
2.35753e-12
1.72822e-13
1.93752e-12
4.2039e-13
1.34156e-12
5.9616e-13
6.79159e-13
6.62334e-13
1.50192e-13
5.28747e-13
1.50012e-13
3.1676e-12
-3.37243e-12
4.25605e-12
9.44194e-13
4.44898e-12
-1.05911e-12
5.17364e-12
-1.54896e-12
5.62293e-12
-1.21962e-12
5.53004e-12
-4.28992e-13
4.73278e-12
6.11846e-13
3.14235e-12
1.76692e-12
7.21906e-13
2.96133e-12
-2.53641e-12
4.15079e-12
-6.61575e-12
5.30146e-12
-1.14825e-11
6.3933e-12
-1.70907e-11
7.42311e-12
-2.33948e-11
8.38611e-12
-3.03474e-11
9.2758e-12
-3.78979e-11
1.00919e-11
-4.59956e-11
1.08379e-11
-5.45877e-11
1.15162e-11
-6.36239e-11
1.21266e-11
-7.30564e-11
1.26695e-11
-8.28399e-11
1.3144e-11
-9.2929e-11
1.35539e-11
-1.0328e-10
1.3907e-11
-1.13853e-10
1.42058e-11
-1.2461e-10
1.44546e-11
-1.35518e-10
1.46588e-11
-1.46546e-10
1.48204e-11
-1.57664e-10
1.49413e-11
-1.68841e-10
1.50237e-11
-1.80052e-10
1.50688e-11
-1.9127e-10
1.50787e-11
-2.02471e-10
1.50572e-11
-2.13636e-10
1.50081e-11
-2.24746e-10
1.49324e-11
-2.35783e-10
1.48316e-11
-2.46729e-10
1.47093e-11
-2.57568e-10
1.45672e-11
-2.68286e-10
1.44058e-11
-2.78869e-10
1.42255e-11
-2.89304e-10
1.40267e-11
-2.99582e-10
1.38109e-11
-3.09688e-10
1.35809e-11
-3.19614e-10
1.33382e-11
-3.29351e-10
1.30838e-11
-3.38892e-10
1.28192e-11
-3.4823e-10
1.25455e-11
-3.57359e-10
1.22631e-11
-3.66272e-10
1.19736e-11
-3.74963e-10
1.16778e-11
-3.83428e-10
1.13738e-11
-3.91662e-10
1.10618e-11
-3.99659e-10
1.07447e-11
-4.07416e-10
1.0423e-11
-4.14929e-10
1.0095e-11
-4.22194e-10
9.76094e-12
-4.29208e-10
9.42254e-12
-4.35967e-10
9.08089e-12
-4.42466e-10
8.73576e-12
-4.48704e-10
8.3856e-12
-4.54675e-10
8.02883e-12
-4.60377e-10
7.66589e-12
-4.65805e-10
7.29847e-12
-4.70957e-10
6.92717e-12
-4.75831e-10
6.55196e-12
-4.80425e-10
6.17385e-12
-4.84734e-10
5.79393e-12
-4.88758e-10
5.41164e-12
-4.92493e-10
5.0255e-12
-4.9594e-10
4.63549e-12
-4.99095e-10
4.2432e-12
-5.01957e-10
3.84988e-12
-5.04525e-10
3.45551e-12
-5.06796e-10
3.059e-12
-5.0877e-10
2.6591e-12
-5.10445e-10
2.25578e-12
-5.11819e-10
1.85055e-12
-5.12891e-10
1.4448e-12
-5.13661e-10
1.03843e-12
-5.14128e-10
6.30843e-13
-5.14292e-10
2.2223e-13
-5.14152e-10
-1.86863e-13
-5.13707e-10
-5.96162e-13
-5.12958e-10
-1.0054e-12
-5.11907e-10
-1.41396e-12
-5.10553e-10
-1.82096e-12
-5.08899e-10
-2.22579e-12
-5.06945e-10
-2.62857e-12
-5.04692e-10
-3.02974e-12
-5.02142e-10
-3.4292e-12
-4.99297e-10
-3.82637e-12
-4.96157e-10
-4.22091e-12
-4.92725e-10
-4.61316e-12
-4.89002e-10
-5.00405e-12
-4.84991e-10
-5.39371e-12
-4.80692e-10
-5.78091e-12
-4.76108e-10
-6.16456e-12
-4.71241e-10
-6.54485e-12
-4.66094e-10
-6.92227e-12
-4.60669e-10
-7.29649e-12
-4.5497e-10
-7.66663e-12
-4.48998e-10
-8.03209e-12
-4.42757e-10
-8.39286e-12
-4.36252e-10
-8.74875e-12
-4.29487e-10
-9.09877e-12
-4.22466e-10
-9.44206e-12
-4.15194e-10
-9.77917e-12
-4.07674e-10
-1.01113e-11
-3.9991e-10
-1.04385e-11
-3.91907e-10
-1.076e-11
-3.8367e-10
-1.10748e-11
-3.75204e-10
-1.1383e-11
-3.66516e-10
-1.16843e-11
-3.57608e-10
-1.19783e-11
-3.48488e-10
-1.22641e-11
-3.3916e-10
-1.25418e-11
-3.29633e-10
-1.28113e-11
-3.19913e-10
-1.30721e-11
-3.10009e-10
-1.33223e-11
-2.9993e-10
-1.35595e-11
-2.89684e-10
-1.37824e-11
-2.79281e-10
-1.39916e-11
-2.68733e-10
-1.41877e-11
-2.58052e-10
-1.4369e-11
-2.47252e-10
-1.45318e-11
-2.36346e-10
-1.46732e-11
-2.25351e-10
-1.47927e-11
-2.14283e-10
-1.48906e-11
-2.0316e-10
-1.49655e-11
-1.92001e-10
-1.50143e-11
-1.8083e-10
-1.50342e-11
-1.69669e-10
-1.50228e-11
-1.58544e-10
-1.49776e-11
-1.47479e-10
-1.48955e-11
-1.36504e-10
-1.47732e-11
-1.2565e-10
-1.46092e-11
-1.14951e-10
-1.44022e-11
-1.04443e-10
-1.41492e-11
-9.41632e-11
-1.38451e-11
-8.41495e-11
-1.34849e-11
-7.4444e-11
-1.30662e-11
-6.50909e-11
-1.25883e-11
-5.61356e-11
-1.20498e-11
-4.76254e-11
-1.14476e-11
-3.96086e-11
-1.07784e-11
-3.21341e-11
-1.00413e-11
-2.52498e-11
-9.23804e-12
-1.9002e-11
-8.37069e-12
-1.34344e-11
-7.44151e-12
-8.58838e-12
-6.4544e-12
-4.50148e-12
-5.41596e-12
-1.2029e-12
-4.33618e-12
1.29125e-12
-3.22931e-12
2.98162e-12
-2.11559e-12
3.88984e-12
-1.02508e-12
4.06663e-12
-3.87816e-15
3.60706e-12
8.79737e-13
2.6743e-12
1.52849e-12
1.52383e-12
1.81238e-12
4.96707e-13
1.55552e-12
6.46733e-13
4.91289e-13
-3.8635e-12
2.61803e-12
-1.18391e-12
3.71141e-12
-2.15066e-12
4.42233e-12
-2.26003e-12
4.48813e-12
-1.28401e-12
3.6564e-12
4.03849e-13
1.73919e-12
2.52886e-12
-1.38001e-12
4.88613e-12
-5.75571e-12
7.33664e-12
-1.13958e-11
9.79225e-12
-1.82839e-11
1.21897e-11
-2.63798e-11
1.4489e-11
-3.56259e-11
1.66679e-11
-4.59539e-11
1.87131e-11
-5.72918e-11
2.06145e-11
-6.95676e-11
2.23679e-11
-8.27038e-11
2.39752e-11
-9.66243e-11
2.54362e-11
-1.11251e-10
2.67528e-11
-1.26509e-10
2.7928e-11
-1.4233e-10
2.89633e-11
-1.58642e-10
2.98667e-11
-1.75382e-10
3.06461e-11
-1.92486e-10
3.13088e-11
-2.09892e-10
3.18622e-11
-2.27546e-10
3.23129e-11
-2.45393e-10
3.26682e-11
-2.63385e-10
3.29334e-11
-2.81477e-10
3.31137e-11
-2.99624e-10
3.32155e-11
-3.17788e-10
3.32424e-11
-3.35932e-10
3.31998e-11
-3.54019e-10
3.30951e-11
-3.72018e-10
3.29317e-11
-3.899e-10
3.27136e-11
-4.07636e-10
3.24464e-11
-4.25203e-10
3.2133e-11
-4.42575e-10
3.17763e-11
-4.5973e-10
3.13799e-11
-4.76649e-10
3.09456e-11
-4.93315e-10
3.04766e-11
-5.0971e-10
2.99767e-11
-5.25818e-10
2.94474e-11
-5.41625e-10
2.88908e-11
-5.57115e-10
2.83106e-11
-5.72279e-10
2.7709e-11
-5.87105e-10
2.70878e-11
-6.01582e-10
2.64499e-11
-6.15701e-10
2.57967e-11
-6.29454e-10
2.51271e-11
-6.42833e-10
2.44413e-11
-6.55829e-10
2.37413e-11
-6.68434e-10
2.30281e-11
-6.80642e-10
2.23025e-11
-6.92446e-10
2.15656e-11
-7.03841e-10
2.08179e-11
-7.14819e-10
2.00599e-11
-7.25375e-10
1.92918e-11
-7.35502e-10
1.85129e-11
-7.45197e-10
1.77222e-11
-7.54453e-10
1.69208e-11
-7.63265e-10
1.61102e-11
-7.71628e-10
1.52908e-11
-7.79538e-10
1.4463e-11
-7.86991e-10
1.36278e-11
-7.93983e-10
1.27858e-11
-8.0051e-10
1.19376e-11
-8.06569e-10
1.10833e-11
-8.12156e-10
1.02229e-11
-8.17269e-10
9.35693e-12
-8.21906e-10
8.48614e-12
-8.26064e-10
7.6115e-12
-8.29738e-10
6.73301e-12
-8.32929e-10
5.84999e-12
-8.35635e-10
4.96221e-12
-8.37853e-10
4.07031e-12
-8.39582e-10
3.17513e-12
-8.4082e-10
2.27734e-12
-8.41567e-10
1.37761e-12
-8.41822e-10
4.76693e-13
-8.41585e-10
-4.2479e-13
-8.40857e-10
-1.32615e-12
-8.39636e-10
-2.22651e-12
-8.37925e-10
-3.12527e-12
-8.35724e-10
-4.02189e-12
-8.33034e-10
-4.91538e-12
-8.29858e-10
-5.80498e-12
-8.26196e-10
-6.69067e-12
-8.22052e-10
-7.5726e-12
-8.17428e-10
-8.4504e-12
-8.12325e-10
-9.32357e-12
-8.06747e-10
-1.01919e-11
-8.00696e-10
-1.10554e-11
-7.94176e-10
-1.1914e-11
-7.8719e-10
-1.27668e-11
-7.79742e-10
-1.36129e-11
-7.71834e-10
-1.4452e-11
-7.63472e-10
-1.52843e-11
-7.54659e-10
-1.61088e-11
-7.45401e-10
-1.69246e-11
-7.35703e-10
-1.77308e-11
-7.25571e-10
-1.85263e-11
-7.15009e-10
-1.93107e-11
-7.04024e-10
-2.00834e-11
-6.92622e-10
-2.08438e-11
-6.8081e-10
-2.15914e-11
-6.68595e-10
-2.23262e-11
-6.55984e-10
-2.30484e-11
-6.42985e-10
-2.3758e-11
-6.29605e-10
-2.44539e-11
-6.15852e-10
-2.51351e-11
-6.01736e-10
-2.58e-11
-5.87266e-10
-2.64479e-11
-5.72453e-10
-2.7078e-11
-5.57306e-10
-2.76898e-11
-5.41835e-10
-2.82819e-11
-5.26054e-10
-2.88525e-11
-5.09975e-10
-2.93993e-11
-4.93615e-10
-2.99195e-11
-4.76987e-10
-3.04109e-11
-4.60107e-10
-3.08716e-11
-4.42995e-10
-3.12999e-11
-4.25671e-10
-3.16931e-11
-4.08154e-10
-3.20472e-11
-3.9047e-10
-3.23574e-11
-3.72643e-10
-3.26201e-11
-3.54701e-10
-3.28326e-11
-3.36674e-10
-3.2992e-11
-3.18593e-10
-3.3094e-11
-3.00492e-10
-3.31334e-11
-2.82409e-10
-3.31043e-11
-2.64386e-10
-3.30006e-11
-2.46466e-10
-3.28162e-11
-2.28693e-10
-3.2546e-11
-2.11118e-10
-3.21851e-11
-1.93792e-10
-3.17279e-11
-1.76774e-10
-3.11679e-11
-1.60121e-10
-3.04976e-11
-1.43895e-10
-2.97098e-11
-1.28162e-10
-2.87991e-11
-1.1299e-10
-2.77611e-11
-9.8449e-11
-2.65916e-11
-8.46106e-11
-2.52862e-11
-7.15473e-11
-2.38413e-11
-5.93328e-11
-2.22555e-11
-4.80397e-11
-2.05305e-11
-3.77385e-11
-1.86711e-11
-2.84946e-11
-1.66848e-11
-2.03662e-11
-1.45824e-11
-1.34033e-11
-1.23788e-11
-7.64381e-12
-1.00959e-11
-3.10726e-12
-7.7657e-12
2.13004e-13
-5.43506e-12
2.35744e-12
-3.1687e-12
3.40814e-12
-1.05424e-12
3.50005e-12
7.8783e-13
2.84145e-12
2.187e-12
1.74366e-12
2.9101e-12
6.23481e-13
2.67566e-12
1.27027e-12
3.84794e-13
-4.24954e-12
1.48883e-12
-2.28864e-12
2.03845e-12
-2.7003e-12
1.95824e-12
-2.18112e-12
9.99534e-13
-3.25524e-13
-1.10959e-12
2.51345e-12
-4.58687e-12
6.00712e-12
-9.57796e-12
9.87662e-12
-1.61574e-11
1.39162e-11
-2.43497e-11
1.79839e-11
-3.414e-11
2.19809e-11
-4.54874e-11
2.58368e-11
-5.83276e-11
2.95073e-11
-7.25823e-11
3.29669e-11
-8.81656e-11
3.61961e-11
-1.04983e-10
3.91849e-11
-1.22937e-10
4.19299e-11
-1.41931e-10
4.44304e-11
-1.61867e-10
4.6689e-11
-1.82651e-10
4.8711e-11
-2.0419e-10
5.05025e-11
-2.26393e-10
5.207e-11
-2.49173e-10
5.34254e-11
-2.72446e-10
5.45815e-11
-2.96133e-10
5.5548e-11
-3.20158e-10
5.63374e-11
-3.4445e-10
5.69606e-11
-3.68942e-10
5.7425e-11
-3.9357e-10
5.77419e-11
-4.18277e-10
5.79222e-11
-4.43009e-10
5.7974e-11
-4.67716e-10
5.79069e-11
-4.92352e-10
5.77305e-11
-5.16873e-10
5.74515e-11
-5.41237e-10
5.70774e-11
-5.65405e-10
5.66159e-11
-5.89345e-10
5.60729e-11
-6.13023e-10
5.5455e-11
-6.3641e-10
5.47676e-11
-6.5948e-10
5.4015e-11
-6.82207e-10
5.3203e-11
-7.04567e-10
5.23369e-11
-7.26541e-10
5.1421e-11
-7.48108e-10
5.04591e-11
-7.69252e-10
4.94551e-11
-7.89954e-10
4.84115e-11
-8.10197e-10
4.73314e-11
-8.29966e-10
4.62186e-11
-8.49247e-10
4.50765e-11
-8.68029e-10
4.39074e-11
-8.86299e-10
4.27122e-11
-9.04049e-10
4.14914e-11
-9.21269e-10
4.02467e-11
-9.37946e-10
3.89796e-11
-9.54071e-10
3.7691e-11
-9.69636e-10
3.6382e-11
-9.84629e-10
3.5054e-11
-9.99044e-10
3.37078e-11
-1.01287e-09
3.23431e-11
-1.02611e-09
3.09598e-11
-1.03875e-09
2.95587e-11
-1.05078e-09
2.8141e-11
-1.0622e-09
2.67082e-11
-1.073e-09
2.52616e-11
-1.08317e-09
2.3802e-11
-1.09272e-09
2.23295e-11
-1.10162e-09
2.08454e-11
-1.10989e-09
1.93511e-11
-1.11752e-09
1.7847e-11
-1.12449e-09
1.63333e-11
-1.13082e-09
1.48107e-11
-1.13648e-09
1.328e-11
-1.14149e-09
1.17419e-11
-1.14584e-09
1.01966e-11
-1.14952e-09
8.645e-12
-1.15254e-09
7.08772e-12
-1.15489e-09
5.52543e-12
-1.15657e-09
3.9591e-12
-1.15758e-09
2.38964e-12
-1.15793e-09
8.17732e-13
-1.15759e-09
-7.55606e-13
-1.15659e-09
-2.32867e-12
-1.15492e-09
-3.89963e-12
-1.15258e-09
-5.46747e-12
-1.14957e-09
-7.03182e-12
-1.14589e-09
-8.59188e-12
-1.14155e-09
-1.01464e-11
-1.13655e-09
-1.16947e-11
-1.13088e-09
-1.32363e-11
-1.12456e-09
-1.47703e-11
-1.11759e-09
-1.62964e-11
-1.10997e-09
-1.78143e-11
-1.1017e-09
-1.93235e-11
-1.09279e-09
-2.08234e-11
-1.08324e-09
-2.23129e-11
-1.07307e-09
-2.37908e-11
-1.06226e-09
-2.52561e-11
-1.05084e-09
-2.67083e-11
-1.0388e-09
-2.81465e-11
-1.02615e-09
-2.95699e-11
-1.01291e-09
-3.09771e-11
-9.99068e-10
-3.23663e-11
-9.84643e-10
-3.37362e-11
-9.6964e-10
-3.50862e-11
-9.54068e-10
-3.64162e-11
-9.37934e-10
-3.77249e-11
-9.21249e-10
-3.90113e-11
-9.04023e-10
-4.02746e-11
-8.86267e-10
-4.1514e-11
-8.67992e-10
-4.27287e-11
-8.49209e-10
-4.39174e-11
-8.2993e-10
-4.50783e-11
-8.10167e-10
-4.62096e-11
-7.89935e-10
-4.73093e-11
-7.69249e-10
-4.83754e-11
-7.48126e-10
-4.94056e-11
-7.26582e-10
-5.03972e-11
-7.04634e-10
-5.13469e-11
-6.82303e-10
-5.2251e-11
-6.59608e-10
-5.31051e-11
-6.36574e-10
-5.3905e-11
-6.13228e-10
-5.46465e-11
-5.89596e-10
-5.53253e-11
-5.65706e-10
-5.59361e-11
-5.4159e-10
-5.64727e-11
-5.17281e-10
-5.69283e-11
-4.92818e-10
-5.7296e-11
-4.68242e-10
-5.75687e-11
-4.43597e-10
-5.77393e-11
-4.18929e-10
-5.78003e-11
-3.94289e-10
-5.77433e-11
-3.6973e-10
-5.75585e-11
-3.4531e-10
-5.72355e-11
-3.21092e-10
-5.67641e-11
-2.97142e-10
-5.61348e-11
-2.73533e-10
-5.53378e-11
-2.50338e-10
-5.43634e-11
-2.27635e-10
-5.3201e-11
-2.05504e-10
-5.184e-11
-1.84032e-10
-5.02706e-11
-1.63309e-10
-4.84845e-11
-1.43426e-10
-4.64747e-11
-1.24477e-10
-4.42356e-11
-1.06554e-10
-4.1764e-11
-8.97503e-11
-3.9059e-11
-7.41573e-11
-3.61234e-11
-5.98632e-11
-3.29648e-11
-4.69507e-11
-2.95968e-11
-3.54928e-11
-2.60396e-11
-2.55487e-11
-2.23224e-11
-1.71596e-11
-1.84845e-11
-1.03445e-11
-1.45806e-11
-5.09264e-12
-1.06865e-11
-1.3552e-12
-6.90571e-12
9.66225e-13
-3.37554e-12
2.03141e-12
-2.77365e-13
2.07555e-12
2.143e-12
1.433e-12
3.55281e-12
5.54367e-13
3.55433e-12
1.82464e-12
6.4805e-14
-4.31343e-12
4.89792e-13
-2.71515e-12
1.84942e-13
-2.39404e-12
-1.06531e-12
-9.31296e-13
-3.47448e-12
2.08261e-12
-7.28521e-12
6.32457e-12
-1.27083e-11
1.14303e-11
-1.98968e-11
1.70663e-11
-2.89421e-11
2.2961e-11
-3.98772e-11
2.89184e-11
-5.26952e-11
3.47986e-11
-6.73569e-11
4.04985e-11
-8.37957e-11
4.5947e-11
-1.01928e-10
5.10989e-11
-1.21657e-10
5.5925e-11
-1.42878e-10
6.04048e-11
-1.65479e-10
6.45299e-11
-1.89344e-10
6.8296e-11
-2.14359e-10
7.1704e-11
-2.40411e-10
7.47624e-11
-2.67388e-10
7.74798e-11
-2.95184e-10
7.98655e-11
-3.23692e-10
8.1934e-11
-3.52811e-10
8.36999e-11
-3.82443e-10
8.51796e-11
-4.12495e-10
8.63898e-11
-4.42882e-10
8.73462e-11
-4.73521e-10
8.80634e-11
-5.04334e-10
8.85549e-11
-5.35248e-10
8.88362e-11
-5.66197e-10
8.89225e-11
-5.97116e-10
8.88266e-11
-6.27948e-10
8.8562e-11
-6.58638e-10
8.81417e-11
-6.89137e-10
8.7576e-11
-7.19398e-10
8.68753e-11
-7.49375e-10
8.60503e-11
-7.79029e-10
8.51099e-11
-8.08325e-10
8.4063e-11
-8.37227e-10
8.29177e-11
-8.65704e-10
8.16807e-11
-8.93726e-10
8.03592e-11
-9.21266e-10
7.89611e-11
-9.483e-10
7.74926e-11
-9.74804e-10
7.59591e-11
-1.00076e-09
7.43658e-11
-1.02614e-09
7.27165e-11
-1.05094e-09
7.10142e-11
-1.07513e-09
6.92636e-11
-1.09869e-09
6.74693e-11
-1.12161e-09
6.56339e-11
-1.14388e-09
6.37593e-11
-1.16548e-09
6.18479e-11
-1.1864e-09
5.99017e-11
-1.20663e-09
5.79217e-11
-1.22616e-09
5.59093e-11
-1.24497e-09
5.38665e-11
-1.26306e-09
5.17943e-11
-1.28041e-09
4.9694e-11
-1.29702e-09
4.75667e-11
-1.31287e-09
4.5413e-11
-1.32796e-09
4.32338e-11
-1.34229e-09
4.10314e-11
-1.35583e-09
3.88076e-11
-1.3686e-09
3.65636e-11
-1.38057e-09
3.43001e-11
-1.39174e-09
3.20186e-11
-1.40211e-09
2.97205e-11
-1.41167e-09
2.74071e-11
-1.42041e-09
2.50795e-11
-1.42834e-09
2.27387e-11
-1.43545e-09
2.03855e-11
-1.44172e-09
1.80204e-11
-1.44717e-09
1.56447e-11
-1.45179e-09
1.32596e-11
-1.45557e-09
1.08663e-11
-1.45851e-09
8.46595e-12
-1.46061e-09
6.06042e-12
-1.46187e-09
3.65098e-12
-1.46229e-09
1.23848e-12
-1.46187e-09
-1.17584e-12
-1.46061e-09
-3.59008e-12
-1.45851e-09
-6.00213e-12
-1.45556e-09
-8.41006e-12
-1.45178e-09
-1.08125e-11
-1.44717e-09
-1.32084e-11
-1.44172e-09
-1.55967e-11
-1.43544e-09
-1.79762e-11
-1.42833e-09
-2.03457e-11
-1.42039e-09
-2.27038e-11
-1.41164e-09
-2.50497e-11
-1.40207e-09
-2.73826e-11
-1.39169e-09
-2.97016e-11
-1.38051e-09
-3.20053e-11
-1.36853e-09
-3.42931e-11
-1.35576e-09
-3.65634e-11
-1.3422e-09
-3.88146e-11
-1.32786e-09
-4.10449e-11
-1.31276e-09
-4.32531e-11
-1.29689e-09
-4.54381e-11
-1.28027e-09
-4.75985e-11
-1.2629e-09
-4.97322e-11
-1.2448e-09
-5.18372e-11
-1.22598e-09
-5.39119e-11
-1.20644e-09
-5.59555e-11
-1.18619e-09
-5.79669e-11
-1.16526e-09
-5.99447e-11
-1.14365e-09
-6.18871e-11
-1.12137e-09
-6.37922e-11
-1.09844e-09
-6.56582e-11
-1.07487e-09
-6.74828e-11
-1.05069e-09
-6.92642e-11
-1.0259e-09
-7.09999e-11
-1.00052e-09
-7.26866e-11
-9.74571e-10
-7.4321e-11
-9.48077e-10
-7.58989e-11
-9.21059e-10
-7.74163e-11
-8.93538e-10
-7.88681e-11
-8.6554e-10
-8.02494e-11
-8.3709e-10
-8.15543e-11
-8.08218e-10
-8.27764e-11
-7.78956e-10
-8.39084e-11
-7.49339e-10
-8.49427e-11
-7.19404e-10
-8.58714e-11
-6.8919e-10
-8.66863e-11
-6.5874e-10
-8.73779e-11
-6.28099e-10
-8.79358e-11
-5.97319e-10
-8.83486e-11
-5.66453e-10
-8.86044e-11
-5.35562e-10
-8.86913e-11
-5.04708e-10
-8.8597e-11
-4.73958e-10
-8.83079e-11
-4.43384e-10
-8.78098e-11
-4.1306e-10
-8.70874e-11
-3.83069e-10
-8.61256e-11
-3.53497e-10
-8.49092e-11
-3.24437e-10
-8.34236e-11
-2.95984e-10
-8.16544e-11
-2.68236e-10
-7.95876e-11
-2.41298e-10
-7.72096e-11
-2.15274e-10
-7.45083e-11
-1.90275e-10
-7.14734e-11
-1.66413e-10
-6.80979e-11
-1.43798e-10
-6.43783e-11
-1.22541e-10
-6.03157e-11
-1.02748e-10
-5.5916e-11
-8.45215e-11
-5.11917e-11
-6.79546e-11
-4.61635e-11
-5.31312e-11
-4.08627e-11
-4.01188e-11
-3.53341e-11
-2.89636e-11
-2.96389e-11
-1.96849e-11
-2.38586e-11
-1.22695e-11
-1.81018e-11
-6.66308e-12
-1.25121e-11
-2.76109e-12
-7.27747e-12
-3.97043e-13
-2.64127e-12
6.69241e-13
1.07698e-12
7.71976e-13
3.45021e-12
3.63963e-13
3.96219e-12
2.18851e-12
-1.96499e-13
-4.11615e-12
-4.93109e-13
-2.41935e-12
-1.8144e-12
-1.07157e-12
-4.42156e-12
1.67626e-12
-8.50415e-12
6.16563e-12
-1.42655e-11
1.20852e-11
-2.18846e-11
1.90495e-11
-3.15023e-11
2.66842e-11
-4.32084e-11
3.46677e-11
-5.70407e-11
4.27506e-11
-7.29941e-11
5.07508e-11
-9.10292e-11
5.85334e-11
-1.11081e-10
6.59982e-11
-1.33059e-10
7.30775e-11
-1.5686e-10
7.97263e-11
-1.8237e-10
8.59144e-11
-2.09466e-10
9.16259e-11
-2.38023e-10
9.68525e-11
-2.67911e-10
1.01593e-10
-2.99002e-10
1.05853e-10
-3.31168e-10
1.09646e-10
-3.64287e-10
1.12984e-10
-3.98239e-10
1.15885e-10
-4.32905e-10
1.18366e-10
-4.68174e-10
1.20449e-10
-5.03939e-10
1.22154e-10
-5.40096e-10
1.23503e-10
-5.76551e-10
1.24518e-10
-6.13214e-10
1.25218e-10
-6.5e-10
1.25622e-10
-6.86829e-10
1.25752e-10
-7.23628e-10
1.25625e-10
-7.60325e-10
1.25259e-10
-7.96856e-10
1.24673e-10
-8.33162e-10
1.23882e-10
-8.69188e-10
1.22901e-10
-9.04882e-10
1.21744e-10
-9.40196e-10
1.20424e-10
-9.75086e-10
1.18953e-10
-1.00951e-09
1.17344e-10
-1.04344e-09
1.15606e-10
-1.07683e-09
1.13748e-10
-1.10964e-09
1.11781e-10
-1.14186e-09
1.09712e-10
-1.17345e-09
1.07549e-10
-1.20439e-09
1.05302e-10
-1.23465e-09
1.02975e-10
-1.26421e-09
1.00573e-10
-1.29305e-09
9.8102e-11
-1.32114e-09
9.55661e-11
-1.34848e-09
9.29698e-11
-1.37504e-09
9.0317e-11
-1.4008e-09
8.76109e-11
-1.42575e-09
8.48543e-11
-1.44988e-09
8.20495e-11
-1.47317e-09
7.91988e-11
-1.49561e-09
7.63041e-11
-1.51718e-09
7.33668e-11
-1.53787e-09
7.03893e-11
-1.55768e-09
6.73738e-11
-1.57659e-09
6.43217e-11
-1.59459e-09
6.12345e-11
-1.61167e-09
5.81143e-11
-1.62783e-09
5.49631e-11
-1.64305e-09
5.1783e-11
-1.65733e-09
4.8576e-11
-1.67065e-09
4.53435e-11
-1.68302e-09
4.20868e-11
-1.69442e-09
3.88077e-11
-1.70485e-09
3.55083e-11
-1.7143e-09
3.21903e-11
-1.72277e-09
2.88549e-11
-1.73025e-09
2.55035e-11
-1.73674e-09
2.21377e-11
-1.74224e-09
1.8759e-11
-1.74675e-09
1.53689e-11
-1.75025e-09
1.19694e-11
-1.75275e-09
8.5626e-12
-1.75425e-09
5.15041e-12
-1.75475e-09
1.73476e-12
-1.75424e-09
-1.68237e-12
-1.75273e-09
-5.09911e-12
-1.75022e-09
-8.51354e-12
-1.74671e-09
-1.19232e-11
-1.74219e-09
-1.53255e-11
-1.73668e-09
-1.87187e-11
-1.73018e-09
-2.21014e-11
-1.72268e-09
-2.54719e-11
-1.7142e-09
-2.88286e-11
-1.70474e-09
-3.21696e-11
-1.69429e-09
-3.54935e-11
-1.68288e-09
-3.87989e-11
-1.67049e-09
-4.20841e-11
-1.65715e-09
-4.53471e-11
-1.64286e-09
-4.85867e-11
-1.62762e-09
-5.18015e-11
-1.61144e-09
-5.49891e-11
-1.59434e-09
-5.81475e-11
-1.57632e-09
-6.12744e-11
-1.55739e-09
-6.4368e-11
-1.53756e-09
-6.74264e-11
-1.51685e-09
-7.04475e-11
-1.49525e-09
-7.3429e-11
-1.4728e-09
-7.63684e-11
-1.44949e-09
-7.92634e-11
-1.42535e-09
-8.21122e-11
-1.40038e-09
-8.49131e-11
-1.3746e-09
-8.76642e-11
-1.34803e-09
-9.03624e-11
-1.32068e-09
-9.30046e-11
-1.29258e-09
-9.55875e-11
-1.26373e-09
-9.81081e-11
-1.23417e-09
-1.00563e-10
-1.20391e-09
-1.02947e-10
-1.17297e-09
-1.05256e-10
-1.14139e-09
-1.07485e-10
-1.10918e-09
-1.09627e-10
-1.07637e-09
-1.11675e-10
-1.043e-09
-1.13622e-10
-1.00909e-09
-1.1546e-10
-9.74687e-10
-1.1718e-10
-9.39821e-10
-1.18774e-10
-9.04534e-10
-1.20229e-10
-8.68872e-10
-1.21534e-10
-8.32881e-10
-1.22678e-10
-7.96613e-10
-1.23646e-10
-7.60123e-10
-1.24425e-10
-7.23469e-10
-1.25001e-10
-6.86716e-10
-1.25356e-10
-6.49934e-10
-1.25474e-10
-6.13196e-10
-1.25335e-10
-5.76581e-10
-1.24923e-10
-5.40174e-10
-1.24216e-10
-5.04065e-10
-1.23197e-10
-4.68346e-10
-1.21843e-10
-4.33119e-10
-1.20136e-10
-3.98489e-10
-1.18053e-10
-3.64568e-10
-1.15576e-10
-3.3147e-10
-1.12685e-10
-2.99315e-10
-1.09365e-10
-2.68224e-10
-1.056e-10
-2.3832e-10
-1.01377e-10
-2.0973e-10
-9.66874e-11
-1.8258e-10
-9.15277e-11
-1.56995e-10
-8.59007e-11
-1.33094e-10
-7.98164e-11
-1.10992e-10
-7.32944e-11
-9.07901e-11
-6.63647e-11
-7.2581e-11
-5.90716e-11
-5.64381e-11
-5.14765e-11
-4.24131e-11
-4.36633e-11
-3.05289e-11
-3.57423e-11
-2.07739e-11
-2.78567e-11
-1.30943e-11
-2.01918e-11
-7.3863e-12
-1.29854e-11
-3.48695e-12
-6.54042e-12
-1.16471e-12
-1.24505e-12
-1.04681e-13
2.39019e-12
1.14748e-13
3.74247e-12
2.30316e-12
-4.29899e-13
-3.68615e-12
-1.47846e-12
-1.37161e-12
-3.90633e-12
1.35597e-12
-7.97399e-12
5.7447e-12
-1.3851e-11
1.20426e-11
-2.17002e-11
1.99347e-11
-3.1665e-11
2.90131e-11
-4.38574e-11
3.88764e-11
-5.83539e-11
4.91646e-11
-7.51873e-11
5.9584e-11
-9.43479e-11
6.99115e-11
-1.15795e-10
7.99797e-11
-1.3946e-10
8.96621e-11
-1.65249e-10
9.88671e-11
-1.93054e-10
1.07532e-10
-2.22752e-10
1.15613e-10
-2.54213e-10
1.23086e-10
-2.87299e-10
1.29939e-10
-3.21872e-10
1.36166e-10
-3.57792e-10
1.41772e-10
-3.94918e-10
1.46771e-10
-4.33113e-10
1.51179e-10
-4.72245e-10
1.55015e-10
-5.12182e-10
1.58303e-10
-5.52802e-10
1.61068e-10
-5.93983e-10
1.63334e-10
-6.3561e-10
1.6513e-10
-6.77575e-10
1.66483e-10
-7.19777e-10
1.67419e-10
-7.62118e-10
1.67964e-10
-8.0451e-10
1.68144e-10
-8.46869e-10
1.67983e-10
-8.89113e-10
1.67504e-10
-9.31171e-10
1.66731e-10
-9.72973e-10
1.65684e-10
-1.01445e-09
1.64384e-10
-1.05556e-09
1.62848e-10
-1.09623e-09
1.61095e-10
-1.13642e-09
1.5914e-10
-1.17607e-09
1.56999e-10
-1.21515e-09
1.54687e-10
-1.25362e-09
1.52215e-10
-1.29144e-09
1.49596e-10
-1.32857e-09
1.46841e-10
-1.36497e-09
1.43959e-10
-1.40063e-09
1.4096e-10
-1.43551e-09
1.37854e-10
-1.46959e-09
1.34648e-10
-1.50283e-09
1.31347e-10
-1.53522e-09
1.27958e-10
-1.56674e-09
1.24488e-10
-1.59737e-09
1.2094e-10
-1.62707e-09
1.17319e-10
-1.65585e-09
1.13629e-10
-1.68367e-09
1.09873e-10
-1.71053e-09
1.06056e-10
-1.7364e-09
1.02179e-10
-1.76128e-09
9.82451e-11
-1.78515e-09
9.42569e-11
-1.80799e-09
9.02172e-11
-1.8298e-09
8.61286e-11
-1.85056e-09
8.19939e-11
-1.87026e-09
7.78151e-11
-1.88889e-09
7.35944e-11
-1.90644e-09
6.93346e-11
-1.92291e-09
6.50386e-11
-1.93827e-09
6.07086e-11
-1.95253e-09
5.63463e-11
-1.96568e-09
5.1954e-11
-1.9777e-09
4.75341e-11
-1.9886e-09
4.30888e-11
-1.99837e-09
3.86202e-11
-2.00699e-09
3.41307e-11
-2.01448e-09
2.96223e-11
-2.02082e-09
2.50972e-11
-2.02601e-09
2.05578e-11
-2.03004e-09
1.60065e-11
-2.03293e-09
1.14454e-11
-2.03465e-09
6.87698e-12
-2.03522e-09
2.30408e-12
-2.03463e-09
-2.27034e-12
-2.03289e-09
-6.84374e-12
-2.02999e-09
-1.14139e-11
-2.02593e-09
-1.59781e-11
-2.02073e-09
-2.05334e-11
-2.01437e-09
-2.5077e-11
-2.00686e-09
-2.96067e-11
-1.99821e-09
-3.41202e-11
-1.98843e-09
-3.86152e-11
-1.97751e-09
-4.30896e-11
-1.96546e-09
-4.75413e-11
-1.95229e-09
-5.19679e-11
-1.93801e-09
-5.63674e-11
-1.92262e-09
-6.07372e-11
-1.90613e-09
-6.50752e-11
-1.88855e-09
-6.93791e-11
-1.86989e-09
-7.36464e-11
-1.85017e-09
-7.78746e-11
-1.82938e-09
-8.20609e-11
-1.80755e-09
-8.62025e-11
-1.78468e-09
-9.02965e-11
-1.76078e-09
-9.43404e-11
-1.73588e-09
-9.83318e-11
-1.70998e-09
-1.02268e-10
-1.6831e-09
-1.06144e-10
-1.65525e-09
-1.09959e-10
-1.62646e-09
-1.13709e-10
-1.59673e-09
-1.17391e-10
-1.56609e-09
-1.21002e-10
-1.53456e-09
-1.24538e-10
-1.50215e-09
-1.27994e-10
-1.46889e-09
-1.31366e-10
-1.4348e-09
-1.34648e-10
-1.39992e-09
-1.37835e-10
-1.36425e-09
-1.4092e-10
-1.32784e-09
-1.43896e-10
-1.29071e-09
-1.46755e-10
-1.2529e-09
-1.49487e-10
-1.21444e-09
-1.52083e-10
-1.17537e-09
-1.54532e-10
-1.13572e-09
-1.56824e-10
-1.09555e-09
-1.58945e-10
-1.0549e-09
-1.60881e-10
-1.01382e-09
-1.62616e-10
-9.7236e-10
-1.64135e-10
-9.30586e-10
-1.6542e-10
-8.88559e-10
-1.66452e-10
-8.46346e-10
-1.67212e-10
-8.04022e-10
-1.67679e-10
-7.61665e-10
-1.67831e-10
-7.19358e-10
-1.67642e-10
-6.7719e-10
-1.6709e-10
-6.35258e-10
-1.66148e-10
-5.93663e-10
-1.64792e-10
-5.52512e-10
-1.62994e-10
-5.11917e-10
-1.6073e-10
-4.71996e-10
-1.57973e-10
-4.32873e-10
-1.54699e-10
-3.94675e-10
-1.50883e-10
-3.57537e-10
-1.46504e-10
-3.21593e-10
-1.41544e-10
-2.8698e-10
-1.35989e-10
-2.53837e-10
-1.2983e-10
-2.22301e-10
-1.23063e-10
-1.92509e-10
-1.15693e-10
-1.64591e-10
-1.07734e-10
-1.38672e-10
-9.92139e-11
-1.14862e-10
-9.01734e-11
-9.32621e-11
-8.06714e-11
-7.39509e-11
-7.07876e-11
-5.69854e-11
-6.06286e-11
-4.23943e-11
-5.03333e-11
-3.01717e-11
-4.00793e-11
-2.0271e-11
-3.00926e-11
-1.25976e-11
-2.06587e-11
-7.00104e-12
-1.21369e-11
-3.26773e-12
-4.97835e-12
-1.11307e-12
2.35443e-13
-1.67082e-13
2.79632e-12
2.1361e-12
-6.69036e-13
-3.01651e-12
-2.48123e-12
4.40107e-13
-6.05928e-12
4.93375e-12
-1.16426e-11
1.13271e-11
-1.93723e-11
1.97733e-11
-2.9377e-11
2.99396e-11
-4.17617e-11
4.13978e-11
-5.66069e-11
5.37208e-11
-7.39652e-11
6.65222e-11
-9.38548e-11
7.94741e-11
-1.16259e-10
9.2316e-11
-1.41129e-10
1.0485e-10
-1.6839e-10
1.16923e-10
-1.97946e-10
1.28422e-10
-2.29681e-10
1.39267e-10
-2.63467e-10
1.49399e-10
-2.99165e-10
1.58784e-10
-3.3663e-10
1.67404e-10
-3.75714e-10
1.7525e-10
-4.16267e-10
1.82326e-10
-4.58139e-10
1.88643e-10
-5.01182e-10
1.94221e-10
-5.45249e-10
1.99083e-10
-5.90202e-10
2.03255e-10
-6.35903e-10
2.06768e-10
-6.82222e-10
2.09653e-10
-7.29034e-10
2.11942e-10
-7.7622e-10
2.13668e-10
-8.23667e-10
2.14866e-10
-8.71268e-10
2.15565e-10
-9.18924e-10
2.158e-10
-9.66542e-10
2.156e-10
-1.01403e-09
2.14995e-10
-1.06132e-09
2.14013e-10
-1.10831e-09
2.12682e-10
-1.15496e-09
2.11025e-10
-1.20118e-09
2.09068e-10
-1.24691e-09
2.06832e-10
-1.29211e-09
2.04337e-10
-1.33672e-09
2.01603e-10
-1.38068e-09
1.98648e-10
-1.42395e-09
1.95488e-10
-1.46649e-09
1.92138e-10
-1.50826e-09
1.88614e-10
-1.54923e-09
1.84926e-10
-1.58936e-09
1.81087e-10
-1.62861e-09