/*--------------------------------*- C++ -*----------------------------------*\
  =========                 |
  \\      /  F ield         | OpenFOAM: The Open Source CFD Toolbox
   \\    /   O peration     | Website:  https://openfoam.org
    \\  /    A nd           | Version:  7
     \\/     M anipulation  |
\*---------------------------------------------------------------------------*/
FoamFile
{
    version     2.0;
    format      ascii;
    class       volVectorField;
    location    "0.0625";
    object      U;
}
// * * * * * * * * * * * * * * * * * * * * * * * * * * * * * * * * * * * * * //

dimensions      [0 1 -1 0 0 0 0];

internalField   nonuniform List<vector> 
51200
(
(-1.01341e-06 3.19587e-08 0)
(-1.34982e-06 -8.00673e-07 0)
(-1.79117e-07 -2.31925e-06 0)
(3.70557e-06 -3.51599e-06 0)
(9.10316e-06 -4.36278e-06 0)
(1.55621e-05 -4.89143e-06 0)
(2.25556e-05 -5.1814e-06 0)
(2.98634e-05 -5.27182e-06 0)
(3.70646e-05 -5.11347e-06 0)
(4.39332e-05 -4.76426e-06 0)
(5.02591e-05 -4.2811e-06 0)
(5.57356e-05 -3.60604e-06 0)
(6.02156e-05 -2.81598e-06 0)
(6.35255e-05 -1.95042e-06 0)
(6.57253e-05 -1.17226e-06 0)
(6.66774e-05 -3.10471e-07 0)
(6.64787e-05 5.10577e-07 0)
(6.51103e-05 1.35185e-06 0)
(6.27735e-05 2.05655e-06 0)
(5.94998e-05 2.65763e-06 0)
(5.53731e-05 3.17749e-06 0)
(5.07229e-05 3.53019e-06 0)
(4.55572e-05 3.83539e-06 0)
(4.0036e-05 4.08162e-06 0)
(3.43094e-05 4.15945e-06 0)
(2.8565e-05 4.12505e-06 0)
(2.29456e-05 3.9836e-06 0)
(1.75719e-05 3.76243e-06 0)
(1.25928e-05 3.48866e-06 0)
(8.10689e-06 3.13909e-06 0)
(4.20185e-06 2.70154e-06 0)
(9.76205e-07 2.20783e-06 0)
(-1.562e-06 1.75611e-06 0)
(-3.44191e-06 1.26812e-06 0)
(-4.71543e-06 8.38896e-07 0)
(-5.32949e-06 4.58079e-07 0)
(-5.50993e-06 8.83325e-08 0)
(-5.23824e-06 -2.09448e-07 0)
(-4.52617e-06 -4.64153e-07 0)
(-3.58422e-06 -6.75538e-07 0)
(-2.2767e-06 -9.0184e-07 0)
(-7.56248e-07 -1.04763e-06 0)
(9.59854e-07 -1.17112e-06 0)
(2.82967e-06 -1.27066e-06 0)
(4.75827e-06 -1.28482e-06 0)
(6.73874e-06 -1.27476e-06 0)
(8.61649e-06 -1.27262e-06 0)
(1.04292e-05 -1.23254e-06 0)
(1.21317e-05 -1.14669e-06 0)
(1.36084e-05 -1.06909e-06 0)
(1.49304e-05 -9.85661e-07 0)
(1.61204e-05 -8.83037e-07 0)
(1.71309e-05 -8.05217e-07 0)
(1.80116e-05 -7.40729e-07 0)
(1.88415e-05 -6.48405e-07 0)
(1.95956e-05 -5.44072e-07 0)
(2.02798e-05 -4.92146e-07 0)
(2.09778e-05 -4.87064e-07 0)
(2.16896e-05 -5.02678e-07 0)
(2.24043e-05 -5.54285e-07 0)
(2.31305e-05 -5.98511e-07 0)
(2.38697e-05 -5.8454e-07 0)
(2.46098e-05 -5.30391e-07 0)
(2.53242e-05 -4.77558e-07 0)
(2.60226e-05 -4.38147e-07 0)
(2.67158e-05 -4.1082e-07 0)
(2.73615e-05 -3.85304e-07 0)
(2.79182e-05 -3.52496e-07 0)
(2.83914e-05 -3.00646e-07 0)
(2.87601e-05 -2.11735e-07 0)
(2.90065e-05 -1.14731e-07 0)
(2.91565e-05 -4.50716e-08 0)
(2.92327e-05 3.10926e-09 0)
(2.92437e-05 5.08025e-08 0)
(2.91892e-05 9.71168e-08 0)
(2.90905e-05 1.22633e-07 0)
(2.89675e-05 1.41075e-07 0)
(2.88251e-05 1.65854e-07 0)
(2.86805e-05 1.81932e-07 0)
(2.85373e-05 1.88365e-07 0)
(2.83904e-05 1.96994e-07 0)
(2.82371e-05 2.14944e-07 0)
(2.80694e-05 2.38969e-07 0)
(2.78665e-05 2.71416e-07 0)
(2.76144e-05 3.12654e-07 0)
(2.73232e-05 3.53001e-07 0)
(2.69857e-05 3.92907e-07 0)
(2.65971e-05 4.2478e-07 0)
(2.61701e-05 4.46281e-07 0)
(2.56989e-05 4.75387e-07 0)
(2.51892e-05 5.04533e-07 0)
(2.46461e-05 5.2255e-07 0)
(2.4059e-05 5.34774e-07 0)
(2.34509e-05 5.34545e-07 0)
(2.2832e-05 5.34282e-07 0)
(2.21802e-05 5.49701e-07 0)
(2.15073e-05 5.56689e-07 0)
(2.08286e-05 5.46112e-07 0)
(2.01476e-05 5.30295e-07 0)
(1.94934e-05 4.98907e-07 0)
(1.88846e-05 4.50974e-07 0)
(1.83287e-05 3.97472e-07 0)
(1.78607e-05 3.31103e-07 0)
(1.74994e-05 2.548e-07 0)
(1.7237e-05 1.79609e-07 0)
(1.70765e-05 1.01175e-07 0)
(1.70026e-05 3.51135e-08 0)
(1.69734e-05 1.18068e-08 0)
(1.69581e-05 2.51986e-08 0)
(1.69193e-05 5.44357e-08 0)
(1.68104e-05 9.60515e-08 0)
(1.66181e-05 1.43561e-07 0)
(1.63436e-05 1.9154e-07 0)
(1.59755e-05 2.46622e-07 0)
(1.55272e-05 2.97832e-07 0)
(1.50361e-05 3.21582e-07 0)
(1.45207e-05 3.21764e-07 0)
(1.39922e-05 3.15072e-07 0)
(1.34745e-05 3.01825e-07 0)
(1.29749e-05 2.8555e-07 0)
(1.24852e-05 2.77253e-07 0)
(1.20163e-05 2.69594e-07 0)
(1.15786e-05 2.51652e-07 0)
(1.11539e-05 2.3309e-07 0)
(1.07289e-05 2.21695e-07 0)
(1.031e-05 2.1259e-07 0)
(9.88731e-06 2.08251e-07 0)
(9.44435e-06 2.13074e-07 0)
(8.98683e-06 2.22112e-07 0)
(8.52113e-06 2.28942e-07 0)
(8.04499e-06 2.26826e-07 0)
(7.56657e-06 2.13265e-07 0)
(7.1039e-06 1.91385e-07 0)
(6.6798e-06 1.62e-07 0)
(6.30757e-06 1.29905e-07 0)
(5.99351e-06 9.52071e-08 0)
(5.76055e-06 5.27901e-08 0)
(5.61063e-06 1.71308e-08 0)
(5.51037e-06 8.43826e-10 0)
(5.44011e-06 6.03097e-10 0)
(5.37998e-06 2.01728e-08 0)
(5.29462e-06 6.18858e-08 0)
(5.15401e-06 1.17703e-07 0)
(4.9417e-06 1.73606e-07 0)
(4.66246e-06 2.25543e-07 0)
(4.31936e-06 2.75107e-07 0)
(3.92067e-06 3.08329e-07 0)
(3.49223e-06 3.22227e-07 0)
(3.05597e-06 3.23629e-07 0)
(2.63284e-06 3.18957e-07 0)
(2.21947e-06 3.17324e-07 0)
(1.80059e-06 3.19746e-07 0)
(1.36786e-06 3.32358e-07 0)
(9.0332e-07 3.59258e-07 0)
(4.00035e-07 3.83939e-07 0)
(-1.0843e-07 3.72506e-07 0)
(-5.30086e-07 3.03878e-07 0)
(-7.21446e-07 1.56274e-07 0)
(-4.97639e-07 -6.96269e-08 0)
(-1.93738e-07 -7.07815e-08 0)
(-2.78798e-06 2.00366e-06 0)
(-5.6048e-06 4.24373e-07 0)
(-5.81315e-06 -4.20626e-06 0)
(-1.68463e-06 -7.88713e-06 0)
(5.15528e-06 -1.02705e-05 0)
(1.36102e-05 -1.16953e-05 0)
(2.30799e-05 -1.24503e-05 0)
(3.29297e-05 -1.26106e-05 0)
(4.26761e-05 -1.22847e-05 0)
(5.19971e-05 -1.14591e-05 0)
(6.06695e-05 -1.02599e-05 0)
(6.8279e-05 -8.68817e-06 0)
(7.46456e-05 -6.88126e-06 0)
(7.96746e-05 -4.8318e-06 0)
(8.32736e-05 -2.79647e-06 0)
(8.53248e-05 -8.04986e-07 0)
(8.59332e-05 1.22421e-06 0)
(8.52193e-05 3.04026e-06 0)
(8.29518e-05 4.81245e-06 0)
(7.96466e-05 6.27701e-06 0)
(7.54342e-05 7.51478e-06 0)
(7.02118e-05 8.41253e-06 0)
(6.43108e-05 9.15317e-06 0)
(5.79368e-05 9.61687e-06 0)
(5.13286e-05 9.86424e-06 0)
(4.46385e-05 9.7688e-06 0)
(3.79843e-05 9.43856e-06 0)
(3.16004e-05 8.86731e-06 0)
(2.56451e-05 8.15337e-06 0)
(2.02926e-05 7.21942e-06 0)
(1.5636e-05 6.1478e-06 0)
(1.1737e-05 5.01686e-06 0)
(8.56549e-06 3.81146e-06 0)
(6.21331e-06 2.74078e-06 0)
(4.69269e-06 1.66311e-06 0)
(3.76211e-06 7.68005e-07 0)
(3.56106e-06 -1.18879e-07 0)
(3.91754e-06 -7.93196e-07 0)
(4.73186e-06 -1.41971e-06 0)
(6.04134e-06 -1.98736e-06 0)
(7.69456e-06 -2.3947e-06 0)
(9.71061e-06 -2.84114e-06 0)
(1.19325e-05 -3.12347e-06 0)
(1.43663e-05 -3.321e-06 0)
(1.69488e-05 -3.37321e-06 0)
(1.95051e-05 -3.33935e-06 0)
(2.20694e-05 -3.21898e-06 0)
(2.45261e-05 -3.00942e-06 0)
(2.67694e-05 -2.7706e-06 0)
(2.88534e-05 -2.49547e-06 0)
(3.07417e-05 -2.19434e-06 0)
(3.24078e-05 -1.91311e-06 0)
(3.39374e-05 -1.71225e-06 0)
(3.53273e-05 -1.54952e-06 0)
(3.65477e-05 -1.40851e-06 0)
(3.76721e-05 -1.31154e-06 0)
(3.87436e-05 -1.23201e-06 0)
(3.97852e-05 -1.18888e-06 0)
(4.08168e-05 -1.19015e-06 0)
(4.18354e-05 -1.23901e-06 0)
(4.28342e-05 -1.28978e-06 0)
(4.38166e-05 -1.29507e-06 0)
(4.47784e-05 -1.2738e-06 0)
(4.5712e-05 -1.24387e-06 0)
(4.66255e-05 -1.1896e-06 0)
(4.75036e-05 -1.10515e-06 0)
(4.83254e-05 -1.01241e-06 0)
(4.90583e-05 -8.88978e-07 0)
(4.96755e-05 -7.2557e-07 0)
(5.01815e-05 -5.42847e-07 0)
(5.05778e-05 -3.65839e-07 0)
(5.08564e-05 -2.14627e-07 0)
(5.10262e-05 -7.78976e-08 0)
(5.11286e-05 3.64304e-08 0)
(5.11655e-05 1.20988e-07 0)
(5.11186e-05 1.79461e-07 0)
(5.10291e-05 2.16603e-07 0)
(5.093e-05 2.4348e-07 0)
(5.08093e-05 2.51616e-07 0)
(5.06576e-05 2.50381e-07 0)
(5.04954e-05 2.60681e-07 0)
(5.03309e-05 2.87224e-07 0)
(5.01228e-05 3.30713e-07 0)
(4.98555e-05 3.86622e-07 0)
(4.95453e-05 4.63093e-07 0)
(4.91831e-05 5.49216e-07 0)
(4.87555e-05 6.27815e-07 0)
(4.82605e-05 7.062e-07 0)
(4.77091e-05 7.75786e-07 0)
(4.71054e-05 8.3878e-07 0)
(4.64299e-05 9.13083e-07 0)
(4.56997e-05 9.76767e-07 0)
(4.49429e-05 1.02118e-06 0)
(4.41394e-05 1.06496e-06 0)
(4.3296e-05 1.10261e-06 0)
(4.24419e-05 1.13351e-06 0)
(4.15573e-05 1.15912e-06 0)
(4.06419e-05 1.16069e-06 0)
(3.97384e-05 1.1389e-06 0)
(3.88703e-05 1.09471e-06 0)
(3.80567e-05 1.00398e-06 0)
(3.73104e-05 8.70792e-07 0)
(3.66277e-05 7.21829e-07 0)
(3.60388e-05 5.59545e-07 0)
(3.55672e-05 3.89177e-07 0)
(3.51732e-05 2.36091e-07 0)
(3.48311e-05 1.20417e-07 0)
(3.45394e-05 6.33759e-08 0)
(3.42498e-05 8.42642e-08 0)
(3.39166e-05 1.692e-07 0)
(3.35259e-05 2.87058e-07 0)
(3.3038e-05 4.257e-07 0)
(3.2433e-05 5.76934e-07 0)
(3.17525e-05 7.16617e-07 0)
(3.10032e-05 8.24457e-07 0)
(3.0159e-05 8.96091e-07 0)
(2.9263e-05 9.30648e-07 0)
(2.8367e-05 9.31125e-07 0)
(2.74505e-05 9.11771e-07 0)
(2.65105e-05 8.85797e-07 0)
(2.5595e-05 8.55329e-07 0)
(2.47073e-05 8.22512e-07 0)
(2.38229e-05 7.96549e-07 0)
(2.29604e-05 7.81683e-07 0)
(2.2123e-05 7.71559e-07 0)
(2.12626e-05 7.65683e-07 0)
(2.03739e-05 7.75293e-07 0)
(1.95004e-05 7.98778e-07 0)
(1.86314e-05 8.20337e-07 0)
(1.77249e-05 8.38426e-07 0)
(1.68083e-05 8.5119e-07 0)
(1.59243e-05 8.37737e-07 0)
(1.50488e-05 7.91558e-07 0)
(1.41709e-05 7.20838e-07 0)
(1.33452e-05 6.23786e-07 0)
(1.26001e-05 5.055e-07 0)
(1.19113e-05 3.80574e-07 0)
(1.12792e-05 2.70253e-07 0)
(1.07282e-05 1.98621e-07 0)
(1.02322e-05 1.65681e-07 0)
(9.72265e-06 1.73948e-07 0)
(9.1745e-06 2.35069e-07 0)
(8.60116e-06 3.33379e-07 0)
(7.97934e-06 4.48448e-07 0)
(7.27025e-06 5.63662e-07 0)
(6.48433e-06 6.6634e-07 0)
(5.65656e-06 7.41192e-07 0)
(4.78149e-06 7.71645e-07 0)
(3.84101e-06 7.76458e-07 0)
(2.8692e-06 7.72129e-07 0)
(1.90318e-06 7.71629e-07 0)
(9.3108e-07 7.88495e-07 0)
(-6.03969e-08 8.22829e-07 0)
(-1.04262e-06 8.65843e-07 0)
(-1.94535e-06 8.68491e-07 0)
(-2.67397e-06 7.64298e-07 0)
(-3.10386e-06 4.57385e-07 0)
(-2.95795e-06 -1.43357e-07 0)
(-1.93862e-06 -9.03519e-07 0)
(-7.43113e-07 -6.35053e-07 0)
(-4.27782e-06 6.56504e-06 0)
(-9.81741e-06 4.78383e-06 0)
(-1.35461e-05 -4.60811e-06 0)
(-1.2675e-05 -1.19904e-05 0)
(-8.7852e-06 -1.6593e-05 0)
(-3.26485e-06 -1.93983e-05 0)
(3.23509e-06 -2.08179e-05 0)
(1.01319e-05 -2.11969e-05 0)
(1.69621e-05 -2.06782e-05 0)
(2.3599e-05 -1.93925e-05 0)
(2.98806e-05 -1.74824e-05 0)
(3.55272e-05 -1.5071e-05 0)
(4.048e-05 -1.2139e-05 0)
(4.47185e-05 -9.10877e-06 0)
(4.81183e-05 -5.76859e-06 0)
(5.06961e-05 -2.64002e-06 0)
(5.24042e-05 5.83225e-07 0)
(5.33237e-05 3.51652e-06 0)
(5.34887e-05 6.23302e-06 0)
(5.28153e-05 8.69302e-06 0)
(5.15527e-05 1.07065e-05 0)
(4.98299e-05 1.23212e-05 0)
(4.75922e-05 1.35456e-05 0)
(4.50045e-05 1.43755e-05 0)
(4.21689e-05 1.47983e-05 0)
(3.92143e-05 1.47671e-05 0)
(3.62933e-05 1.43195e-05 0)
(3.34453e-05 1.35681e-05 0)
(3.07387e-05 1.24101e-05 0)
(2.82538e-05 1.10674e-05 0)
(2.6134e-05 9.4506e-06 0)
(2.42757e-05 7.71421e-06 0)
(2.28648e-05 5.9694e-06 0)
(2.18004e-05 4.23931e-06 0)
(2.10735e-05 2.6641e-06 0)
(2.08199e-05 1.12446e-06 0)
(2.08637e-05 -1.17051e-07 0)
(2.12645e-05 -1.35255e-06 0)
(2.19303e-05 -2.33876e-06 0)
(2.29271e-05 -3.20221e-06 0)
(2.41109e-05 -3.99005e-06 0)
(2.54506e-05 -4.60618e-06 0)
(2.70103e-05 -5.10884e-06 0)
(2.86002e-05 -5.42655e-06 0)
(3.02655e-05 -5.58335e-06 0)
(3.19929e-05 -5.5425e-06 0)
(3.36765e-05 -5.35298e-06 0)
(3.53084e-05 -5.08256e-06 0)
(3.68934e-05 -4.69565e-06 0)
(3.83625e-05 -4.24694e-06 0)
(3.97241e-05 -3.80879e-06 0)
(4.10241e-05 -3.37165e-06 0)
(4.22267e-05 -2.99392e-06 0)
(4.33212e-05 -2.7334e-06 0)
(4.43345e-05 -2.52811e-06 0)
(4.52682e-05 -2.36704e-06 0)
(4.61193e-05 -2.26387e-06 0)
(4.69139e-05 -2.18571e-06 0)
(4.76818e-05 -2.13447e-06 0)
(4.84025e-05 -2.11811e-06 0)
(4.90732e-05 -2.11441e-06 0)
(4.97382e-05 -2.09586e-06 0)
(5.03866e-05 -2.0673e-06 0)
(5.09827e-05 -2.02547e-06 0)
(5.15521e-05 -1.9579e-06 0)
(5.20905e-05 -1.84191e-06 0)
(5.25632e-05 -1.66957e-06 0)
(5.29947e-05 -1.45708e-06 0)
(5.33974e-05 -1.20697e-06 0)
(5.37473e-05 -9.40059e-07 0)
(5.40385e-05 -6.85965e-07 0)
(5.42798e-05 -4.62191e-07 0)
(5.44715e-05 -2.61915e-07 0)
(5.46151e-05 -8.07613e-08 0)
(5.47221e-05 5.90846e-08 0)
(5.47901e-05 1.60662e-07 0)
(5.48238e-05 2.37261e-07 0)
(5.48348e-05 2.90855e-07 0)
(5.48218e-05 3.21419e-07 0)
(5.47802e-05 3.40936e-07 0)
(5.47061e-05 3.80164e-07 0)
(5.46148e-05 4.40998e-07 0)
(5.44969e-05 5.20583e-07 0)
(5.4329e-05 6.24932e-07 0)
(5.41326e-05 7.45323e-07 0)
(5.39063e-05 8.81927e-07 0)
(5.36342e-05 1.01935e-06 0)
(5.33219e-05 1.14242e-06 0)
(5.29586e-05 1.26976e-06 0)
(5.25604e-05 1.39307e-06 0)
(5.2133e-05 1.50152e-06 0)
(5.16425e-05 1.61134e-06 0)
(5.11184e-05 1.70541e-06 0)
(5.05879e-05 1.77827e-06 0)
(5.00215e-05 1.85402e-06 0)
(4.94337e-05 1.91183e-06 0)
(4.88325e-05 1.9357e-06 0)
(4.81986e-05 1.94378e-06 0)
(4.75743e-05 1.91903e-06 0)
(4.69808e-05 1.84207e-06 0)
(4.63862e-05 1.72074e-06 0)
(4.58062e-05 1.54537e-06 0)
(4.5251e-05 1.32649e-06 0)
(4.46954e-05 1.10863e-06 0)
(4.41575e-05 9.00246e-07 0)
(4.36396e-05 7.05164e-07 0)
(4.30993e-05 5.71261e-07 0)
(4.25481e-05 5.24896e-07 0)
(4.20012e-05 5.57579e-07 0)
(4.14075e-05 6.74342e-07 0)
(4.07541e-05 8.6188e-07 0)
(4.00761e-05 1.07507e-06 0)
(3.93581e-05 1.29342e-06 0)
(3.85787e-05 1.5072e-06 0)
(3.77593e-05 1.67862e-06 0)
(3.6893e-05 1.7894e-06 0)
(3.59599e-05 1.86229e-06 0)
(3.49951e-05 1.90414e-06 0)
(3.40249e-05 1.90299e-06 0)
(3.30208e-05 1.87359e-06 0)
(3.19834e-05 1.83971e-06 0)
(3.09561e-05 1.80248e-06 0)
(2.99379e-05 1.76654e-06 0)
(2.88937e-05 1.74916e-06 0)
(2.7831e-05 1.74838e-06 0)
(2.67722e-05 1.75257e-06 0)
(2.57053e-05 1.76867e-06 0)
(2.46254e-05 1.80002e-06 0)
(2.35496e-05 1.83219e-06 0)
(2.24703e-05 1.85671e-06 0)
(2.1375e-05 1.86952e-06 0)
(2.02797e-05 1.85779e-06 0)
(1.9197e-05 1.80781e-06 0)
(1.81246e-05 1.71291e-06 0)
(1.7057e-05 1.57855e-06 0)
(1.59953e-05 1.41706e-06 0)
(1.49555e-05 1.24628e-06 0)
(1.39422e-05 1.09824e-06 0)
(1.29425e-05 9.9683e-07 0)
(1.1951e-05 9.48221e-07 0)
(1.09618e-05 9.60392e-07 0)
(9.96567e-06 1.03689e-06 0)
(8.95777e-06 1.16656e-06 0)
(7.93318e-06 1.32546e-06 0)
(6.88556e-06 1.49257e-06 0)
(5.80753e-06 1.65206e-06 0)
(4.69124e-06 1.77731e-06 0)
(3.52426e-06 1.85577e-06 0)
(2.30365e-06 1.89961e-06 0)
(1.04649e-06 1.92544e-06 0)
(-2.35683e-07 1.94393e-06 0)
(-1.52903e-06 1.95847e-06 0)
(-2.7899e-06 1.95831e-06 0)
(-3.94727e-06 1.90019e-06 0)
(-4.90585e-06 1.70931e-06 0)
(-5.53899e-06 1.25296e-06 0)
(-5.66388e-06 3.89948e-07 0)
(-4.97288e-06 -1.05445e-06 0)
(-3.15609e-06 -2.7854e-06 0)
(-1.18468e-06 -2.14219e-06 0)
(-5.20053e-06 1.33963e-05 0)
(-1.2548e-05 1.23679e-05 0)
(-1.88757e-05 -1.95487e-06 0)
(-2.0474e-05 -1.30186e-05 0)
(-1.90009e-05 -1.99722e-05 0)
(-1.60318e-05 -2.40523e-05 0)
(-1.19749e-05 -2.61989e-05 0)
(-7.51689e-06 -2.68197e-05 0)
(-2.95579e-06 -2.62934e-05 0)
(1.51087e-06 -2.47753e-05 0)
(5.8546e-06 -2.252e-05 0)
(1.0046e-05 -1.97043e-05 0)
(1.37907e-05 -1.63481e-05 0)
(1.73713e-05 -1.27192e-05 0)
(2.05869e-05 -8.92497e-06 0)
(2.33773e-05 -5.10275e-06 0)
(2.59466e-05 -1.42455e-06 0)
(2.81285e-05 2.11354e-06 0)
(2.98897e-05 5.32056e-06 0)
(3.13601e-05 8.2252e-06 0)
(3.26109e-05 1.07089e-05 0)
(3.34697e-05 1.27397e-05 0)
(3.40683e-05 1.42407e-05 0)
(3.44773e-05 1.53589e-05 0)
(3.47351e-05 1.5885e-05 0)
(3.48579e-05 1.60045e-05 0)
(3.49344e-05 1.56473e-05 0)
(3.48847e-05 1.47871e-05 0)
(3.4824e-05 1.36393e-05 0)
(3.48134e-05 1.2113e-05 0)
(3.47553e-05 1.03941e-05 0)
(3.48192e-05 8.4618e-06 0)
(3.48462e-05 6.55077e-06 0)
(3.50078e-05 4.57098e-06 0)
(3.52598e-05 2.75496e-06 0)
(3.55844e-05 1.0549e-06 0)
(3.60733e-05 -5.04919e-07 0)
(3.66189e-05 -1.88935e-06 0)
(3.73788e-05 -3.09057e-06 0)
(3.8171e-05 -4.11428e-06 0)
(3.90469e-05 -5.05637e-06 0)
(4.00503e-05 -5.72103e-06 0)
(4.10144e-05 -6.30819e-06 0)
(4.20305e-05 -6.6858e-06 0)
(4.31139e-05 -6.84284e-06 0)
(4.41592e-05 -6.84628e-06 0)
(4.51902e-05 -6.6815e-06 0)
(4.62333e-05 -6.35416e-06 0)
(4.72547e-05 -5.94891e-06 0)
(4.82399e-05 -5.48849e-06 0)
(4.9206e-05 -4.97419e-06 0)
(5.01341e-05 -4.47516e-06 0)
(5.0993e-05 -4.03536e-06 0)
(5.18144e-05 -3.65745e-06 0)
(5.25868e-05 -3.35382e-06 0)
(5.32817e-05 -3.13818e-06 0)
(5.39371e-05 -2.99193e-06 0)
(5.45482e-05 -2.87755e-06 0)
(5.50791e-05 -2.79636e-06 0)
(5.55347e-05 -2.74019e-06 0)
(5.59434e-05 -2.67231e-06 0)
(5.6327e-05 -2.59004e-06 0)
(5.66817e-05 -2.52213e-06 0)
(5.7003e-05 -2.45374e-06 0)
(5.7304e-05 -2.35097e-06 0)
(5.75742e-05 -2.21066e-06 0)
(5.77939e-05 -2.02216e-06 0)
(5.79895e-05 -1.77251e-06 0)
(5.81821e-05 -1.48062e-06 0)
(5.83702e-05 -1.19007e-06 0)
(5.85514e-05 -9.18031e-07 0)
(5.87167e-05 -6.59786e-07 0)
(5.88669e-05 -4.27764e-07 0)
(5.90044e-05 -2.28047e-07 0)
(5.91217e-05 -6.24024e-08 0)
(5.92112e-05 7.0226e-08 0)
(5.92843e-05 1.76208e-07 0)
(5.93435e-05 2.54872e-07 0)
(5.93668e-05 3.13646e-07 0)
(5.936e-05 3.65957e-07 0)
(5.93364e-05 4.3317e-07 0)
(5.92904e-05 5.27807e-07 0)
(5.92082e-05 6.40224e-07 0)
(5.90893e-05 7.75899e-07 0)
(5.89681e-05 9.30175e-07 0)
(5.88327e-05 1.09174e-06 0)
(5.86471e-05 1.26298e-06 0)
(5.84426e-05 1.42728e-06 0)
(5.82276e-05 1.58313e-06 0)
(5.7974e-05 1.74693e-06 0)
(5.76913e-05 1.89363e-06 0)
(5.73838e-05 2.01684e-06 0)
(5.70528e-05 2.14059e-06 0)
(5.67089e-05 2.25039e-06 0)
(5.63356e-05 2.33898e-06 0)
(5.59377e-05 2.41402e-06 0)
(5.55397e-05 2.45242e-06 0)
(5.51239e-05 2.45645e-06 0)
(5.46851e-05 2.44231e-06 0)
(5.42502e-05 2.37707e-06 0)
(5.38062e-05 2.24756e-06 0)
(5.33281e-05 2.08348e-06 0)
(5.28272e-05 1.88779e-06 0)
(5.23021e-05 1.67092e-06 0)
(5.17283e-05 1.47872e-06 0)
(5.1105e-05 1.32825e-06 0)
(5.04435e-05 1.22525e-06 0)
(4.97399e-05 1.2055e-06 0)
(4.89975e-05 1.27813e-06 0)
(4.82326e-05 1.41733e-06 0)
(4.74407e-05 1.61997e-06 0)
(4.66119e-05 1.87805e-06 0)
(4.57687e-05 2.14262e-06 0)
(4.49245e-05 2.37721e-06 0)
(4.40443e-05 2.57867e-06 0)
(4.31072e-05 2.73642e-06 0)
(4.21389e-05 2.84114e-06 0)
(4.11409e-05 2.90906e-06 0)
(4.00865e-05 2.94986e-06 0)
(3.89931e-05 2.95561e-06 0)
(3.78907e-05 2.9372e-06 0)
(3.67611e-05 2.91839e-06 0)
(3.55925e-05 2.90386e-06 0)
(3.441e-05 2.89426e-06 0)
(3.32119e-05 2.90021e-06 0)
(3.19747e-05 2.92248e-06 0)
(3.07214e-05 2.9545e-06 0)
(2.94911e-05 2.99455e-06 0)
(2.82628e-05 3.03496e-06 0)
(2.69957e-05 3.06315e-06 0)
(2.57171e-05 3.0711e-06 0)
(2.44632e-05 3.05449e-06 0)
(2.31988e-05 3.00864e-06 0)
(2.19016e-05 2.92032e-06 0)
(2.06073e-05 2.78518e-06 0)
(1.93181e-05 2.62727e-06 0)
(1.80005e-05 2.47114e-06 0)
(1.66568e-05 2.33052e-06 0)
(1.53158e-05 2.22741e-06 0)
(1.39773e-05 2.18288e-06 0)
(1.26129e-05 2.20135e-06 0)
(1.12352e-05 2.27791e-06 0)
(9.88188e-06 2.40805e-06 0)
(8.54476e-06 2.5795e-06 0)
(7.19146e-06 2.76891e-06 0)
(5.81336e-06 2.95075e-06 0)
(4.42561e-06 3.10538e-06 0)
(3.01585e-06 3.2274e-06 0)
(1.55286e-06 3.31928e-06 0)
(5.12935e-08 3.37857e-06 0)
(-1.45147e-06 3.40323e-06 0)
(-2.93231e-06 3.3887e-06 0)
(-4.35452e-06 3.29427e-06 0)
(-5.61894e-06 3.04577e-06 0)
(-6.6023e-06 2.52721e-06 0)
(-7.15491e-06 1.57746e-06 0)
(-7.1115e-06 -1.35784e-08 0)
(-6.12234e-06 -2.49382e-06 0)
(-3.8383e-06 -5.3937e-06 0)
(-1.43628e-06 -4.22373e-06 0)
(-5.70794e-06 2.1227e-05 0)
(-1.39133e-05 2.18462e-05 0)
(-2.16423e-05 2.88371e-06 0)
(-2.48419e-05 -1.18229e-05 0)
(-2.49254e-05 -2.10547e-05 0)
(-2.34748e-05 -2.65236e-05 0)
(-2.10194e-05 -2.9226e-05 0)
(-1.79975e-05 -3.02561e-05 0)
(-1.48239e-05 -2.97669e-05 0)
(-1.15498e-05 -2.83372e-05 0)
(-8.30743e-06 -2.59361e-05 0)
(-5.04234e-06 -2.29682e-05 0)
(-1.80486e-06 -1.96219e-05 0)
(1.36656e-06 -1.57757e-05 0)
(4.50534e-06 -1.19837e-05 0)
(7.55173e-06 -7.91171e-06 0)
(1.05615e-05 -4.14546e-06 0)
(1.35415e-05 -3.96864e-07 0)
(1.64743e-05 2.91584e-06 0)
(1.92444e-05 5.99005e-06 0)
(2.19097e-05 8.62579e-06 0)
(2.45015e-05 1.07658e-05 0)
(2.70113e-05 1.24821e-05 0)
(2.93466e-05 1.36503e-05 0)
(3.15221e-05 1.43836e-05 0)
(3.36714e-05 1.45701e-05 0)
(3.55958e-05 1.42999e-05 0)
(3.74873e-05 1.35971e-05 0)
(3.92287e-05 1.25328e-05 0)
(4.07665e-05 1.11126e-05 0)
(4.22315e-05 9.43515e-06 0)
(4.35187e-05 7.67357e-06 0)
(4.47334e-05 5.70026e-06 0)
(4.57989e-05 3.89178e-06 0)
(4.68038e-05 2.01128e-06 0)
(4.77462e-05 3.34548e-07 0)
(4.8609e-05 -1.26486e-06 0)
(4.95075e-05 -2.63153e-06 0)
(5.03681e-05 -3.87652e-06 0)
(5.11936e-05 -4.97895e-06 0)
(5.20663e-05 -5.83899e-06 0)
(5.28695e-05 -6.58542e-06 0)
(5.36308e-05 -7.13225e-06 0)
(5.44183e-05 -7.45401e-06 0)
(5.51423e-05 -7.63036e-06 0)
(5.58631e-05 -7.62157e-06 0)
(5.66024e-05 -7.43763e-06 0)
(5.73065e-05 -7.1183e-06 0)
(5.80015e-05 -6.70082e-06 0)
(5.87246e-05 -6.22032e-06 0)
(5.94426e-05 -5.70846e-06 0)
(6.01435e-05 -5.2203e-06 0)
(6.08255e-05 -4.75771e-06 0)
(6.14707e-05 -4.32642e-06 0)
(6.2057e-05 -3.9637e-06 0)
(6.25857e-05 -3.66755e-06 0)
(6.30816e-05 -3.43383e-06 0)
(6.353e-05 -3.27493e-06 0)
(6.39137e-05 -3.17037e-06 0)
(6.4244e-05 -3.07851e-06 0)
(6.45212e-05 -2.97883e-06 0)
(6.47374e-05 -2.87121e-06 0)
(6.49012e-05 -2.75811e-06 0)
(6.50382e-05 -2.63131e-06 0)
(6.51605e-05 -2.48704e-06 0)
(6.52507e-05 -2.32647e-06 0)
(6.53138e-05 -2.13072e-06 0)
(6.53858e-05 -1.88615e-06 0)
(6.54547e-05 -1.60273e-06 0)
(6.55088e-05 -1.31291e-06 0)
(6.55828e-05 -1.03978e-06 0)
(6.56748e-05 -7.75018e-07 0)
(6.57591e-05 -5.33865e-07 0)
(6.58363e-05 -3.34783e-07 0)
(6.59147e-05 -1.64619e-07 0)
(6.59869e-05 -1.74316e-08 0)
(6.60386e-05 1.05718e-07 0)
(6.60658e-05 2.00354e-07 0)
(6.60703e-05 2.77718e-07 0)
(6.60574e-05 3.60524e-07 0)
(6.60249e-05 4.54472e-07 0)
(6.59678e-05 5.65853e-07 0)
(6.58859e-05 6.93023e-07 0)
(6.57775e-05 8.42122e-07 0)
(6.5658e-05 1.02048e-06 0)
(6.55369e-05 1.19893e-06 0)
(6.53925e-05 1.37231e-06 0)
(6.52245e-05 1.55985e-06 0)
(6.50525e-05 1.74418e-06 0)
(6.48668e-05 1.91999e-06 0)
(6.46487e-05 2.09194e-06 0)
(6.44103e-05 2.24087e-06 0)
(6.41677e-05 2.3764e-06 0)
(6.39106e-05 2.50975e-06 0)
(6.36296e-05 2.61622e-06 0)
(6.33248e-05 2.6982e-06 0)
(6.29987e-05 2.76592e-06 0)
(6.2665e-05 2.79543e-06 0)
(6.23183e-05 2.78469e-06 0)
(6.19314e-05 2.7446e-06 0)
(6.15121e-05 2.65658e-06 0)
(6.10659e-05 2.52586e-06 0)
(6.05591e-05 2.38523e-06 0)
(5.99918e-05 2.23728e-06 0)
(5.93813e-05 2.09009e-06 0)
(5.86938e-05 1.98788e-06 0)
(5.79234e-05 1.95242e-06 0)
(5.71172e-05 1.97853e-06 0)
(5.62723e-05 2.078e-06 0)
(5.53713e-05 2.25422e-06 0)
(5.4458e-05 2.48094e-06 0)
(5.35463e-05 2.74123e-06 0)
(5.25997e-05 3.02549e-06 0)
(5.16325e-05 3.2977e-06 0)
(5.06683e-05 3.52442e-06 0)
(4.96641e-05 3.70774e-06 0)
(4.86003e-05 3.85478e-06 0)
(4.75131e-05 3.96062e-06 0)
(4.63931e-05 4.03118e-06 0)
(4.52036e-05 4.07931e-06 0)
(4.39694e-05 4.10841e-06 0)
(4.27239e-05 4.12446e-06 0)
(4.14454e-05 4.1404e-06 0)
(4.0114e-05 4.16102e-06 0)
(3.87506e-05 4.18441e-06 0)
(3.73742e-05 4.21646e-06 0)
(3.59816e-05 4.26827e-06 0)
(3.45735e-05 4.3321e-06 0)
(3.31582e-05 4.38208e-06 0)
(3.1728e-05 4.41225e-06 0)
(3.02787e-05 4.43028e-06 0)
(2.88273e-05 4.42238e-06 0)
(2.73689e-05 4.37653e-06 0)
(2.58825e-05 4.29785e-06 0)
(2.43739e-05 4.18875e-06 0)
(2.28469e-05 4.05782e-06 0)
(2.12907e-05 3.92206e-06 0)
(1.9705e-05 3.80139e-06 0)
(1.80968e-05 3.71769e-06 0)
(1.64679e-05 3.6792e-06 0)
(1.48194e-05 3.69177e-06 0)
(1.31684e-05 3.76453e-06 0)
(1.15338e-05 3.89348e-06 0)
(9.91194e-06 4.06235e-06 0)
(8.29049e-06 4.24688e-06 0)
(6.6615e-06 4.43215e-06 0)
(5.02489e-06 4.60677e-06 0)
(3.37435e-06 4.75529e-06 0)
(1.69665e-06 4.87188e-06 0)
(3.30096e-09 4.94597e-06 0)
(-1.67441e-06 4.96008e-06 0)
(-3.30938e-06 4.87976e-06 0)
(-4.8461e-06 4.64884e-06 0)
(-6.18611e-06 4.16752e-06 0)
(-7.20949e-06 3.27639e-06 0)
(-7.77522e-06 1.78002e-06 0)
(-7.69328e-06 -6.03502e-07 0)
(-6.59193e-06 -4.20041e-06 0)
(-4.12572e-06 -8.37061e-06 0)
(-1.55009e-06 -6.57806e-06 0)
(-5.87605e-06 2.95442e-05 0)
(-1.43206e-05 3.21548e-05 0)
(-2.27368e-05 8.71774e-06 0)
(-2.67315e-05 -9.69218e-06 0)
(-2.77682e-05 -2.11148e-05 0)
(-2.7139e-05 -2.78952e-05 0)
(-2.55723e-05 -3.14806e-05 0)
(-2.35107e-05 -3.27971e-05 0)
(-2.10963e-05 -3.25488e-05 0)
(-1.85346e-05 -3.1131e-05 0)
(-1.57602e-05 -2.8896e-05 0)
(-1.30378e-05 -2.59334e-05 0)
(-1.01238e-05 -2.25713e-05 0)
(-7.08649e-06 -1.88991e-05 0)
(-3.91113e-06 -1.5066e-05 0)
(-7.01655e-07 -1.12101e-05 0)
(2.67465e-06 -7.3349e-06 0)
(6.18091e-06 -3.76299e-06 0)
(9.64164e-06 -3.25925e-07 0)
(1.33366e-05 2.67899e-06 0)
(1.69995e-05 5.3259e-06 0)
(2.06393e-05 7.56649e-06 0)
(2.42291e-05 9.31416e-06 0)
(2.77905e-05 1.05898e-05 0)
(3.12835e-05 1.13876e-05 0)
(3.46075e-05 1.17496e-05 0)
(3.7894e-05 1.15836e-05 0)
(4.09546e-05 1.11151e-05 0)
(4.38045e-05 1.01284e-05 0)
(4.64638e-05 8.94582e-06 0)
(4.89488e-05 7.49559e-06 0)
(5.11699e-05 5.83599e-06 0)
(5.31624e-05 4.16883e-06 0)
(5.50016e-05 2.4237e-06 0)
(5.65736e-05 7.48983e-07 0)
(5.80132e-05 -8.46274e-07 0)
(5.93381e-05 -2.31514e-06 0)
(6.0501e-05 -3.63917e-06 0)
(6.15635e-05 -4.80742e-06 0)
(6.25839e-05 -5.81766e-06 0)
(6.34861e-05 -6.64612e-06 0)
(6.43193e-05 -7.36117e-06 0)
(6.50942e-05 -7.81675e-06 0)
(6.57684e-05 -8.13855e-06 0)
(6.64115e-05 -8.2874e-06 0)
(6.70308e-05 -8.23207e-06 0)
(6.7612e-05 -8.05115e-06 0)
(6.81888e-05 -7.7459e-06 0)
(6.87576e-05 -7.30958e-06 0)
(6.93245e-05 -6.81673e-06 0)
(6.98904e-05 -6.30426e-06 0)
(7.04584e-05 -5.7957e-06 0)
(7.10291e-05 -5.31417e-06 0)
(7.15768e-05 -4.87969e-06 0)
(7.20744e-05 -4.49455e-06 0)
(7.25144e-05 -4.15014e-06 0)
(7.29029e-05 -3.85791e-06 0)
(7.32368e-05 -3.62803e-06 0)
(7.35234e-05 -3.43974e-06 0)
(7.37625e-05 -3.27469e-06 0)
(7.39431e-05 -3.13919e-06 0)
(7.40689e-05 -3.01455e-06 0)
(7.41482e-05 -2.87403e-06 0)
(7.41847e-05 -2.71324e-06 0)
(7.41853e-05 -2.5362e-06 0)
(7.41638e-05 -2.3449e-06 0)
(7.41321e-05 -2.12257e-06 0)
(7.41081e-05 -1.87428e-06 0)
(7.40836e-05 -1.61719e-06 0)
(7.40507e-05 -1.34545e-06 0)
(7.40455e-05 -1.0742e-06 0)
(7.40596e-05 -8.20305e-07 0)
(7.40586e-05 -5.88605e-07 0)
(7.40654e-05 -3.86652e-07 0)
(7.40894e-05 -2.05512e-07 0)
(7.41003e-05 -4.85424e-08 0)
(7.40893e-05 7.843e-08 0)
(7.40631e-05 1.86323e-07 0)
(7.40213e-05 2.90207e-07 0)
(7.39633e-05 4.02072e-07 0)
(7.38891e-05 5.15167e-07 0)
(7.3793e-05 6.36816e-07 0)
(7.36704e-05 7.86181e-07 0)
(7.35393e-05 9.50683e-07 0)
(7.34053e-05 1.12965e-06 0)
(7.32475e-05 1.32301e-06 0)
(7.30787e-05 1.51231e-06 0)
(7.29172e-05 1.70753e-06 0)
(7.27455e-05 1.91077e-06 0)
(7.25559e-05 2.09706e-06 0)
(7.23422e-05 2.27555e-06 0)
(7.21112e-05 2.45424e-06 0)
(7.18911e-05 2.61101e-06 0)
(7.16548e-05 2.7498e-06 0)
(7.13747e-05 2.87745e-06 0)
(7.10892e-05 2.97689e-06 0)
(7.07946e-05 3.05552e-06 0)
(7.04558e-05 3.12031e-06 0)
(7.00944e-05 3.14299e-06 0)
(6.97093e-05 3.12021e-06 0)
(6.92681e-05 3.07691e-06 0)
(6.87821e-05 3.01209e-06 0)
(6.82464e-05 2.92729e-06 0)
(6.76254e-05 2.84892e-06 0)
(6.69328e-05 2.78697e-06 0)
(6.6185e-05 2.74765e-06 0)
(6.53564e-05 2.76326e-06 0)
(6.44527e-05 2.85015e-06 0)
(6.35117e-05 2.99332e-06 0)
(6.25381e-05 3.19006e-06 0)
(6.15296e-05 3.44304e-06 0)
(6.05074e-05 3.72814e-06 0)
(5.9479e-05 4.01867e-06 0)
(5.84284e-05 4.30338e-06 0)
(5.73449e-05 4.56506e-06 0)
(5.62308e-05 4.7873e-06 0)
(5.50886e-05 4.97324e-06 0)
(5.39054e-05 5.12638e-06 0)
(5.26629e-05 5.24074e-06 0)
(5.13691e-05 5.32398e-06 0)
(5.00422e-05 5.39672e-06 0)
(4.8672e-05 5.46481e-06 0)
(4.72474e-05 5.52003e-06 0)
(4.57842e-05 5.56769e-06 0)
(4.42899e-05 5.62459e-06 0)
(4.27623e-05 5.69054e-06 0)
(4.1218e-05 5.75617e-06 0)
(3.96642e-05 5.82424e-06 0)
(3.80841e-05 5.89066e-06 0)
(3.64719e-05 5.93979e-06 0)
(3.48464e-05 5.96686e-06 0)
(3.32216e-05 5.97042e-06 0)
(3.15748e-05 5.94517e-06 0)
(2.98865e-05 5.88891e-06 0)
(2.81813e-05 5.8034e-06 0)
(2.64613e-05 5.70269e-06 0)
(2.46948e-05 5.604e-06 0)
(2.28865e-05 5.51677e-06 0)
(2.10595e-05 5.45252e-06 0)
(1.92111e-05 5.4252e-06 0)
(1.73327e-05 5.44713e-06 0)
(1.54478e-05 5.52184e-06 0)
(1.35884e-05 5.64599e-06 0)
(1.17409e-05 5.80962e-06 0)
(9.88307e-06 5.99196e-06 0)
(8.0222e-06 6.17879e-06 0)
(6.17264e-06 6.3608e-06 0)
(4.32702e-06 6.52232e-06 0)
(2.46282e-06 6.64477e-06 0)
(5.96914e-07 6.71137e-06 0)
(-1.22733e-06 6.68911e-06 0)
(-2.9756e-06 6.52214e-06 0)
(-4.60569e-06 6.13081e-06 0)
(-6.03214e-06 5.38032e-06 0)
(-7.12281e-06 4.09676e-06 0)
(-7.73405e-06 2.02249e-06 0)
(-7.70438e-06 -1.17279e-06 0)
(-6.6341e-06 -5.9354e-06 0)
(-4.15953e-06 -1.14337e-05 0)
(-1.58185e-06 -9.00889e-06 0)
(-5.79755e-06 3.77656e-05 0)
(-1.40993e-05 4.274e-05 0)
(-2.25485e-05 1.50025e-05 0)
(-2.68547e-05 -6.85429e-06 0)
(-2.82067e-05 -2.05505e-05 0)
(-2.82071e-05 -2.86378e-05 0)
(-2.71259e-05 -3.30538e-05 0)
(-2.54257e-05 -3.47912e-05 0)
(-2.34837e-05 -3.48912e-05 0)
(-2.13038e-05 -3.35513e-05 0)
(-1.88897e-05 -3.14988e-05 0)
(-1.62585e-05 -2.86999e-05 0)
(-1.35098e-05 -2.54579e-05 0)
(-1.053e-05 -2.1965e-05 0)
(-7.35324e-06 -1.82876e-05 0)
(-3.91269e-06 -1.46586e-05 0)
(-3.59938e-07 -1.09618e-05 0)
(3.45541e-06 -7.47755e-06 0)
(7.50497e-06 -4.25036e-06 0)
(1.15332e-05 -1.25546e-06 0)
(1.57929e-05 1.32423e-06 0)
(2.00944e-05 3.51072e-06 0)
(2.4436e-05 5.26463e-06 0)
(2.87424e-05 6.63828e-06 0)
(3.29856e-05 7.5136e-06 0)
(3.71482e-05 7.95261e-06 0)
(4.11512e-05 8.04221e-06 0)
(4.50028e-05 7.60542e-06 0)
(4.86282e-05 6.96695e-06 0)
(5.20717e-05 5.9565e-06 0)
(5.51652e-05 4.75405e-06 0)
(5.80548e-05 3.35726e-06 0)
(6.07095e-05 1.94294e-06 0)
(6.30055e-05 3.99442e-07 0)
(6.51282e-05 -1.03748e-06 0)
(6.69993e-05 -2.45819e-06 0)
(6.86394e-05 -3.749e-06 0)
(7.01563e-05 -4.94362e-06 0)
(7.14852e-05 -5.9641e-06 0)
(7.26632e-05 -6.85073e-06 0)
(7.37193e-05 -7.59288e-06 0)
(7.46754e-05 -8.1457e-06 0)
(7.55199e-05 -8.56202e-06 0)
(7.6236e-05 -8.81548e-06 0)
(7.69164e-05 -8.87971e-06 0)
(7.7531e-05 -8.81471e-06 0)
(7.80949e-05 -8.60712e-06 0)
(7.86621e-05 -8.27708e-06 0)
(7.92022e-05 -7.85893e-06 0)
(7.97189e-05 -7.37637e-06 0)
(8.02332e-05 -6.85277e-06 0)
(8.07429e-05 -6.31738e-06 0)
(8.12405e-05 -5.79865e-06 0)
(8.17156e-05 -5.32678e-06 0)
(8.21608e-05 -4.91115e-06 0)
(8.25548e-05 -4.53848e-06 0)
(8.28913e-05 -4.21294e-06 0)
(8.31778e-05 -3.93078e-06 0)
(8.34181e-05 -3.67507e-06 0)
(8.35923e-05 -3.44177e-06 0)
(8.37005e-05 -3.2425e-06 0)
(8.37695e-05 -3.06663e-06 0)
(8.37956e-05 -2.8863e-06 0)
(8.3776e-05 -2.70109e-06 0)
(8.37201e-05 -2.50411e-06 0)
(8.36377e-05 -2.28839e-06 0)
(8.35404e-05 -2.05314e-06 0)
(8.34411e-05 -1.79879e-06 0)
(8.33473e-05 -1.54491e-06 0)
(8.32536e-05 -1.28759e-06 0)
(8.31714e-05 -1.02637e-06 0)
(8.31057e-05 -7.84428e-07 0)
(8.30355e-05 -5.62603e-07 0)
(8.29704e-05 -3.58598e-07 0)
(8.29179e-05 -1.75001e-07 0)