/*--------------------------------*- C++ -*----------------------------------*\
  =========                 |
  \\      /  F ield         | OpenFOAM: The Open Source CFD Toolbox
   \\    /   O peration     | Website:  https://openfoam.org
    \\  /    A nd           | Version:  7
     \\/     M anipulation  |
\*---------------------------------------------------------------------------*/
FoamFile
{
    version     2.0;
    format      ascii;
    class       volVectorField;
    location    "0.3375";
    object      U;
}
// * * * * * * * * * * * * * * * * * * * * * * * * * * * * * * * * * * * * * //

dimensions      [0 1 -1 0 0 0 0];

internalField   nonuniform List<vector> 
12800
(
(8.33787e-06 -8.31106e-06 0)
(3.71092e-05 -1.85313e-05 0)
(7.85546e-05 -1.97096e-05 0)
(0.00011327 -1.53528e-05 0)
(0.000130014 -8.31219e-06 0)
(0.000123901 -1.39422e-07 0)
(9.2786e-05 8.34321e-06 0)
(3.60547e-05 1.66961e-05 0)
(-4.59359e-05 2.4686e-05 0)
(-0.000152239 3.21929e-05 0)
(-0.000281556 3.91577e-05 0)
(-0.000432379 4.55552e-05 0)
(-0.000603087 5.13799e-05 0)
(-0.000792001 5.66386e-05 0)
(-0.00099743 6.13457e-05 0)
(-0.0012177 6.55195e-05 0)
(-0.00145116 6.91817e-05 0)
(-0.00169623 7.23557e-05 0)
(-0.00195137 7.50663e-05 0)
(-0.0022151 7.7339e-05 0)
(-0.00248603 7.91994e-05 0)
(-0.00276284 8.06729e-05 0)
(-0.00304428 8.17849e-05 0)
(-0.00332916 8.25601e-05 0)
(-0.00361639 8.30229e-05 0)
(-0.00390496 8.31973e-05 0)
(-0.00419391 8.31061e-05 0)
(-0.00448236 8.27719e-05 0)
(-0.00476952 8.22158e-05 0)
(-0.00505464 8.14585e-05 0)
(-0.00533707 8.05196e-05 0)
(-0.00561619 7.94179e-05 0)
(-0.00589146 7.81714e-05 0)
(-0.0061624 7.67971e-05 0)
(-0.00642858 7.53108e-05 0)
(-0.00668962 7.37274e-05 0)
(-0.0069452 7.20612e-05 0)
(-0.00719503 7.03254e-05 0)
(-0.00743888 6.85323e-05 0)
(-0.00767656 6.66933e-05 0)
(-0.0079079 6.48188e-05 0)
(-0.0081328 6.29186e-05 0)
(-0.00835114 6.10018e-05 0)
(-0.00856289 5.90764e-05 0)
(-0.008768 5.71498e-05 0)
(-0.00896647 5.52286e-05 0)
(-0.00915831 5.33188e-05 0)
(-0.00934356 5.14258e-05 0)
(-0.00952228 4.95543e-05 0)
(-0.00969453 4.77084e-05 0)
(-0.00986039 4.58915e-05 0)
(-0.01002 4.41067e-05 0)
(-0.0101734 4.23565e-05 0)
(-0.0103207 4.06431e-05 0)
(-0.0104621 3.8968e-05 0)
(-0.0105976 3.73321e-05 0)
(-0.0107275 3.57365e-05 0)
(-0.0108518 3.41816e-05 0)
(-0.0109707 3.26675e-05 0)
(-0.0110842 3.11939e-05 0)
(-0.0111927 2.976e-05 0)
(-0.0112961 2.83653e-05 0)
(-0.0113946 2.70089e-05 0)
(-0.0114883 2.56894e-05 0)
(-0.0115774 2.44051e-05 0)
(-0.0116619 2.31541e-05 0)
(-0.0117421 2.19346e-05 0)
(-0.0118179 2.07448e-05 0)
(-0.0118894 1.95824e-05 0)
(-0.0119568 1.84449e-05 0)
(-0.0120202 1.73296e-05 0)
(-0.0120796 1.62337e-05 0)
(-0.012135 1.51545e-05 0)
(-0.0121866 1.40894e-05 0)
(-0.0122343 1.30352e-05 0)
(-0.0122782 1.19889e-05 0)
(-0.0123183 1.09472e-05 0)
(-0.0123546 9.90698e-06 0)
(-0.0123872 8.86476e-06 0)
(-0.0124159 7.81717e-06 0)
(-0.0124409 6.76077e-06 0)
(-0.012462 5.69217e-06 0)
(-0.0124791 4.60797e-06 0)
(-0.0124924 3.50468e-06 0)
(-0.0125015 2.37873e-06 0)
(-0.0125066 1.22649e-06 0)
(-0.0125074 4.44352e-08 0)
(-0.0125039 -1.17083e-06 0)
(-0.012496 -2.42263e-06 0)
(-0.0124835 -3.71432e-06 0)
(-0.0124662 -5.04931e-06 0)
(-0.0124441 -6.43091e-06 0)
(-0.012417 -7.86221e-06 0)
(-0.0123846 -9.34607e-06 0)
(-0.0123469 -1.08852e-05 0)
(-0.0123036 -1.24823e-05 0)
(-0.0122545 -1.41399e-05 0)
(-0.0121994 -1.58603e-05 0)
(-0.0121381 -1.76455e-05 0)
(-0.0120703 -1.9497e-05 0)
(-0.0119959 -2.1416e-05 0)
(-0.0119147 -2.34036e-05 0)
(-0.0118263 -2.54604e-05 0)
(-0.0117306 -2.75868e-05 0)
(-0.0116274 -2.97825e-05 0)
(-0.0115163 -3.20465e-05 0)
(-0.0113972 -3.43774e-05 0)
(-0.01127 -3.67733e-05 0)
(-0.0111342 -3.92315e-05 0)
(-0.0109899 -4.1749e-05 0)
(-0.0108367 -4.43218e-05 0)
(-0.0106745 -4.69451e-05 0)
(-0.0105032 -4.96133e-05 0)
(-0.0103227 -5.232e-05 0)
(-0.0101328 -5.5058e-05 0)
(-0.00993345 -5.78191e-05 0)
(-0.00972464 -6.05943e-05 0)
(-0.00950633 -6.33733e-05 0)
(-0.00927855 -6.61452e-05 0)
(-0.00904138 -6.88977e-05 0)
(-0.0087949 -7.16177e-05 0)
(-0.00853929 -7.42909e-05 0)
(-0.00827475 -7.69021e-05 0)
(-0.00800153 -7.94351e-05 0)
(-0.00771996 -8.18724e-05 0)
(-0.00743041 -8.41958e-05 0)
(-0.00713333 -8.63857e-05 0)
(-0.00682921 -8.84221e-05 0)
(-0.00651865 -9.02838e-05 0)
(-0.00620228 -9.19486e-05 0)
(-0.00588084 -9.33938e-05 0)
(-0.00555512 -9.45958e-05 0)
(-0.005226 -9.55304e-05 0)
(-0.00489446 -9.6173e-05 0)
(-0.00456151 -9.64982e-05 0)
(-0.0042283 -9.64805e-05 0)
(-0.00389603 -9.60941e-05 0)
(-0.00356599 -9.5313e-05 0)
(-0.00323954 -9.4111e-05 0)
(-0.00291815 -9.24621e-05 0)
(-0.00260333 -9.03405e-05 0)
(-0.0022967 -8.7721e-05 0)
(-0.00199993 -8.45786e-05 0)
(-0.00171477 -8.08892e-05 0)
(-0.00144302 -7.66296e-05 0)
(-0.00118652 -7.17782e-05 0)
(-0.000947189 -6.63159e-05 0)
(-0.00072693 -6.02267e-05 0)
(-0.000527667 -5.34988e-05 0)
(-0.000351295 -4.61281e-05 0)
(-0.000199638 -3.81229e-05 0)
(-7.43854e-05 -2.95116e-05 0)
(2.30048e-05 -2.03583e-05 0)
(9.14584e-05 -1.07913e-05 0)
(0.000130546 -1.06071e-06 0)
(0.0001409 8.35425e-06 0)
(0.000124837 1.65496e-05 0)
(8.77204e-05 2.17926e-05 0)
(4.20448e-05 2.08624e-05 0)
(9.6337e-06 9.63279e-06 0)
(1.85601e-05 -3.70706e-05 0)
(7.03779e-05 -7.02887e-05 0)
(0.000132088 -6.77531e-05 0)
(0.000170195 -4.20891e-05 0)
(0.000163421 -3.15575e-06 0)
(0.000100334 4.27147e-05 0)
(-2.53326e-05 9.15517e-05 0)
(-0.000216318 0.000140874 0)
(-0.000472834 0.000189135 0)
(-0.000793377 0.000235373 0)
(-0.0011753 0.000278996 0)
(-0.00161522 0.000319649 0)
(-0.00210925 0.000357136 0)
(-0.00265325 0.000391368 0)
(-0.0032429 0.000422327 0)
(-0.00387386 0.00045005 0)
(-0.00454178 0.000474605 0)
(-0.0052424 0.000496092 0)
(-0.00597158 0.000514626 0)
(-0.00672531 0.000530336 0)
(-0.00749974 0.000543359 0)
(-0.00829122 0.00055384 0)
(-0.00909626 0.000561926 0)
(-0.00991159 0.000567763 0)
(-0.0107341 0.000571501 0)
(-0.0115609 0.000573287 0)
(-0.0123894 0.000573265 0)
(-0.013217 0.000571577 0)
(-0.0140414 0.00056836 0)
(-0.0148605 0.000563748 0)
(-0.0156725 0.000557869 0)
(-0.0164755 0.000550847 0)
(-0.017268 0.000542802 0)
(-0.0180485 0.000533844 0)
(-0.0188159 0.000524082 0)
(-0.019569 0.000513617 0)
(-0.0203067 0.000502545 0)
(-0.0210284 0.000490956 0)
(-0.0217333 0.000478933 0)
(-0.0224208 0.000466555 0)
(-0.0230903 0.000453896 0)
(-0.0237416 0.000441022 0)
(-0.0243743 0.000427996 0)
(-0.0249883 0.000414875 0)
(-0.0255833 0.00040171 0)
(-0.0261594 0.000388549 0)
(-0.0267166 0.000375435 0)
(-0.0272549 0.000362405 0)
(-0.0277745 0.000349493 0)
(-0.0282755 0.000336729 0)
(-0.0287582 0.000324138 0)
(-0.0292228 0.000311744 0)
(-0.0296695 0.000299564 0)
(-0.0300988 0.000287614 0)
(-0.0305108 0.000275907 0)
(-0.030906 0.000264452 0)
(-0.0312847 0.000253255 0)
(-0.0316473 0.000242321 0)
(-0.0319941 0.000231652 0)
(-0.0323256 0.000221247 0)
(-0.032642 0.000211103 0)
(-0.0329438 0.000201215 0)
(-0.0332312 0.000191579 0)
(-0.0335047 0.000182184 0)
(-0.0337646 0.000173023 0)
(-0.0340112 0.000164083 0)
(-0.0342449 0.000155352 0)
(-0.0344658 0.000146816 0)
(-0.0346743 0.00013846 0)
(-0.0348705 0.000130269 0)
(-0.0350549 0.000122225 0)
(-0.0352274 0.000114311 0)
(-0.0353883 0.000106507 0)
(-0.0355378 9.87934e-05 0)
(-0.0356759 9.11514e-05 0)
(-0.0358027 8.35597e-05 0)
(-0.0359183 7.59966e-05 0)
(-0.0360228 6.844e-05 0)
(-0.036116 6.08675e-05 0)
(-0.036198 5.32564e-05 0)
(-0.0362687 4.55838e-05 0)
(-0.0363279 3.78264e-05 0)
(-0.0363756 2.99609e-05 0)
(-0.0364116 2.19637e-05 0)
(-0.0364356 1.38113e-05 0)
(-0.0364475 5.48007e-06 0)
(-0.0364469 -3.05364e-06 0)
(-0.0364335 -1.18129e-05 0)
(-0.0364071 -2.08204e-05 0)
(-0.0363672 -3.00981e-05 0)
(-0.0363134 -3.96678e-05 0)
(-0.0362453 -4.95506e-05 0)
(-0.0361625 -5.9767e-05 0)
(-0.0360644 -7.03361e-05 0)
(-0.0359505 -8.1276e-05 0)
(-0.0358204 -9.26034e-05 0)
(-0.0356733 -0.000104334 0)
(-0.0355089 -0.000116481 0)
(-0.0353264 -0.000129056 0)
(-0.0351252 -0.00014207 0)
(-0.0349047 -0.00015553 0)
(-0.0346644 -0.000169441 0)
(-0.0344035 -0.000183805 0)
(-0.0341214 -0.000198621 0)
(-0.0338175 -0.000213887 0)
(-0.0334912 -0.000229593 0)
(-0.0331418 -0.000245729 0)
(-0.0327688 -0.00026228 0)
(-0.0323716 -0.000279226 0)
(-0.0319497 -0.000296542 0)
(-0.0315025 -0.000314201 0)
(-0.0310298 -0.000332167 0)
(-0.030531 -0.000350401 0)
(-0.0300058 -0.000368858 0)
(-0.0294541 -0.000387486 0)
(-0.0288755 -0.000406229 0)
(-0.02827 -0.000425023 0)
(-0.0276377 -0.000443799 0)
(-0.0269787 -0.000462479 0)
(-0.0262931 -0.00048098 0)
(-0.0255813 -0.000499214 0)
(-0.0248438 -0.000517082 0)
(-0.0240813 -0.000534483 0)
(-0.0232944 -0.000551305 0)
(-0.0224843 -0.000567433 0)
(-0.0216519 -0.000582743 0)
(-0.0207985 -0.000597106 0)
(-0.0199257 -0.000610388 0)
(-0.0190351 -0.000622449 0)
(-0.0181286 -0.000633143 0)
(-0.0172082 -0.000642321 0)
(-0.0162763 -0.000649829 0)
(-0.0153354 -0.000655511 0)
(-0.0143882 -0.000659208 0)
(-0.0134376 -0.000660757 0)
(-0.0124868 -0.000659998 0)
(-0.0115392 -0.000656769 0)
(-0.0105985 -0.000650908 0)
(-0.00966845 -0.000642259 0)
(-0.00875311 -0.000630666 0)
(-0.00785671 -0.000615979 0)
(-0.0069837 -0.000598059 0)
(-0.00613865 -0.000576772 0)
(-0.00532633 -0.000552 0)
(-0.00455162 -0.000523639 0)
(-0.00381946 -0.000491608 0)
(-0.00313489 -0.000455856 0)
(-0.00250288 -0.000416371 0)
(-0.00192836 -0.000373195 0)
(-0.00141603 -0.00032645 0)
(-0.00097026 -0.000276367 0)
(-0.000594874 -0.000223346 0)
(-0.00029285 -0.000168043 0)
(-6.59064e-05 -0.000111511 0)
(8.61319e-05 -5.54478e-05 0)
(0.000166234 -2.58406e-06 0)
(0.000181289 4.26768e-05 0)
(0.000143962 7.3244e-05 0)
(7.79757e-05 7.79434e-05 0)
(2.08622e-05 4.20318e-05 0)
(1.98105e-05 -7.86213e-05 0)
(6.81276e-05 -0.000132088 0)
(0.000111233 -0.000110674 0)
(0.000110429 -3.94652e-05 0)
(4.04596e-05 6.29585e-05 0)
(-0.000113538 0.000183375 0)
(-0.000360457 0.000312638 0)
(-0.000704701 0.000444538 0)
(-0.00114722 0.000574897 0)
(-0.00168644 0.000700918 0)
(-0.00231903 0.000820754 0)
(-0.00304041 0.000933209 0)
(-0.00384514 0.00103754 0)
(-0.00472725 0.00113334 0)
(-0.00568041 0.00122042 0)
(-0.00669814 0.00129875 0)
(-0.00777392 0.00136845 0)
(-0.00890128 0.00142971 0)
(-0.0100739 0.00148279 0)
(-0.0112855 0.00152801 0)
(-0.0125302 0.0015657 0)
(-0.0138023 0.00159624 0)
(-0.0150963 0.00162001 0)
(-0.0164071 0.00163741 0)
(-0.0177299 0.00164883 0)
(-0.0190599 0.00165468 0)
(-0.020393 0.00165536 0)
(-0.0217252 0.00165124 0)
(-0.0230529 0.00164273 0)
(-0.0243726 0.00163019 0)
(-0.0256812 0.00161397 0)
(-0.0269761 0.00159444 0)
(-0.0282545 0.00157192 0)
(-0.0295142 0.00154674 0)
(-0.0307531 0.00151919 0)
(-0.0319696 0.00148957 0)
(-0.0331618 0.00145816 0)
(-0.0343286 0.0014252 0)
(-0.0354687 0.00139094 0)
(-0.036581 0.00135562 0)
(-0.0376649 0.00131942 0)
(-0.0387197 0.00128257 0)
(-0.0397448 0.00124522 0)
(-0.0407398 0.00120755 0)
(-0.0417047 0.00116971 0)
(-0.0426391 0.00113184 0)
(-0.0435432 0.00109406 0)
(-0.044417 0.00105648 0)
(-0.0452606 0.0010192 0)
(-0.0460744 0.000982307 0)
(-0.0468587 0.000945881 0)
(-0.0476137 0.000909987 0)
(-0.04834 0.000874681 0)
(-0.0490379 0.000840008 0)
(-0.0497081 0.000806006 0)
(-0.050351 0.000772704 0)
(-0.0509672 0.000740122 0)
(-0.0515572 0.000708276 0)
(-0.0521217 0.000677171 0)
(-0.0526612 0.000646807 0)
(-0.0531762 0.000617179 0)
(-0.0536674 0.000588274 0)
(-0.0541353 0.000560074 0)
(-0.0545804 0.000532559 0)
(-0.0550034 0.000505701 0)
(-0.0554046 0.00047947 0)
(-0.0557846 0.000453829 0)
(-0.0561438 0.00042874 0)
(-0.0564826 0.00040416 0)
(-0.0568015 0.000380046 0)
(-0.0571007 0.000356348 0)
(-0.0573806 0.000333016 0)
(-0.0576415 0.000309996 0)
(-0.0578835 0.000287232 0)
(-0.0581068 0.000264666 0)
(-0.0583117 0.00024224 0)
(-0.058498 0.000219892 0)
(-0.058666 0.00019756 0)
(-0.0588155 0.000175179 0)
(-0.0589466 0.000152685 0)
(-0.059059 0.000130011 0)
(-0.0591527 0.000107093 0)
(-0.0592274 8.38619e-05 0)
(-0.0592827 6.02518e-05 0)
(-0.0593185 3.61952e-05 0)
(-0.0593342 1.16254e-05 0)
(-0.0593296 -1.35241e-05 0)
(-0.059304 -3.93187e-05 0)
(-0.0592569 -6.58228e-05 0)
(-0.0591878 -9.30996e-05 0)
(-0.0590961 -0.00012121 0)
(-0.0589809 -0.000150213 0)
(-0.0588416 -0.000180166 0)
(-0.0586775 -0.000211123 0)
(-0.0584877 -0.000243133 0)
(-0.0582713 -0.000276245 0)
(-0.0580275 -0.0003105 0)
(-0.0577554 -0.000345935 0)
(-0.057454 -0.000382582 0)
(-0.0571223 -0.000420468 0)
(-0.0567594 -0.000459612 0)
(-0.0563643 -0.000500027 0)
(-0.0559359 -0.000541716 0)
(-0.0554734 -0.000584674 0)
(-0.0549756 -0.000628888 0)
(-0.0544417 -0.000674335 0)
(-0.0538707 -0.000720978 0)
(-0.0532616 -0.000768773 0)
(-0.0526137 -0.000817658 0)
(-0.0519261 -0.000867564 0)
(-0.0511981 -0.000918403 0)
(-0.0504289 -0.000970076 0)
(-0.0496181 -0.00102247 0)
(-0.0487652 -0.00107544 0)
(-0.0478697 -0.00112885 0)
(-0.0469315 -0.00118254 0)
(-0.0459504 -0.00123631 0)
(-0.0449265 -0.00128996 0)
(-0.04386 -0.00134328 0)
(-0.0427514 -0.00139603 0)
(-0.0416012 -0.00144795 0)
(-0.0404103 -0.00149876 0)
(-0.0391797 -0.00154817 0)
(-0.0379107 -0.00159586 0)
(-0.0366048 -0.0016415 0)
(-0.0352639 -0.00168475 0)
(-0.0338901 -0.00172523 0)
(-0.0324857 -0.00176257 0)
(-0.0310535 -0.00179636 0)
(-0.0295964 -0.00182621 0)
(-0.0281178 -0.00185169 0)
(-0.0266213 -0.00187236 0)
(-0.025111 -0.0018878 0)
(-0.0235913 -0.00189756 0)
(-0.0220667 -0.00190118 0)
(-0.0205424 -0.00189824 0)
(-0.0190236 -0.00188827 0)
(-0.0175162 -0.00187084 0)
(-0.016026 -0.00184554 0)
(-0.0145596 -0.00181194 0)
(-0.0131234 -0.00176965 0)
(-0.0117244 -0.00171833 0)
(-0.0103696 -0.00165762 0)
(-0.00906652 -0.00158727 0)
(-0.00782248 -0.00150704 0)
(-0.00664507 -0.0014168 0)
(-0.00554185 -0.00131649 0)
(-0.00452026 -0.00120621 0)
(-0.00358751 -0.00108623 0)
(-0.00275041 -0.000957062 0)
(-0.00201509 -0.000819581 0)
(-0.00138674 -0.000675133 0)
(-0.000869129 -0.000525776 0)
(-0.000464038 -0.000374602 0)
(-0.000170475 -0.000226223 0)
(1.63921e-05 -8.75119e-05 0)
(0.000106405 3.13499e-05 0)
(0.000116086 0.000115538 0)
(7.35438e-05 0.000144001 0)
(2.18468e-05 8.77507e-05 0)
(1.55834e-05 -0.000113663 0)
(4.29332e-05 -0.000170671 0)
(4.09096e-05 -0.000110082 0)
(-2.8103e-05 2.97191e-05 0)
(-0.000189805 0.000221188 0)
(-0.000460384 0.000443888 0)
(-0.000849915 0.00068295 0)
(-0.00136363 0.000927779 0)
(-0.0020029 0.00117091 0)
(-0.00276613 0.0014071 0)
(-0.00364954 0.00163276 0)
(-0.00464773 0.00184545 0)
(-0.00575412 0.00204356 0)
(-0.00696138 0.00222613 0)
(-0.00826162 0.00239264 0)
(-0.00964667 0.00254291 0)
(-0.0111082 0.00267703 0)
(-0.012638 0.00279526 0)
(-0.0142278 0.00289802 0)
(-0.0158696 0.00298583 0)
(-0.0175555 0.00305929 0)
(-0.0192782 0.00311906 0)
(-0.0210305 0.00316583 0)
(-0.0228054 0.00320033 0)
(-0.0245967 0.0032233 0)
(-0.0263981 0.00323549 0)
(-0.0282041 0.00323764 0)
(-0.0300092 0.00323049 0)
(-0.0318087 0.00321476 0)
(-0.0335978 0.00319117 0)
(-0.0353726 0.00316041 0)
(-0.0371291 0.00312315 0)
(-0.0388639 0.00308001 0)
(-0.040574 0.00303164 0)
(-0.0422564 0.0029786 0)
(-0.0439088 0.00292146 0)
(-0.0455289 0.00286075 0)
(-0.047115 0.00279698 0)
(-0.0486652 0.0027306 0)
(-0.0501784 0.00266206 0)
(-0.0516533 0.00259178 0)
(-0.053089 0.00252013 0)
(-0.0544847 0.00244746 0)
(-0.0558401 0.0023741 0)
(-0.0571547 0.00230034 0)
(-0.0584282 0.00222646 0)
(-0.0596608 0.0021527 0)
(-0.0608524 0.00207927 0)
(-0.0620032 0.00200639 0)
(-0.0631135 0.00193421 0)
(-0.0641838 0.00186289 0)
(-0.0652145 0.00179256 0)
(-0.0662062 0.00172334 0)
(-0.0671594 0.00165531 0)
(-0.0680748 0.00158855 0)
(-0.0689531 0.00152313 0)
(-0.069795 0.00145908 0)
(-0.0706012 0.00139643 0)
(-0.0713726 0.0013352 0)
(-0.0721099 0.00127539 0)
(-0.0728137 0.00121699 0)
(-0.073485 0.00115998 0)
(-0.0741244 0.00110433 0)
(-0.0747327 0.00104999 0)
(-0.0753105 0.000996911 0)
(-0.0758586 0.00094504 0)
(-0.0763775 0.000894306 0)
(-0.0768679 0.000844636 0)
(-0.0773303 0.000795948 0)
(-0.0777652 0.000748154 0)
(-0.0781731 0.000701162 0)
(-0.0785544 0.000654873 0)
(-0.0789095 0.000609184 0)
(-0.0792385 0.000563987 0)
(-0.0795419 0.00051917 0)
(-0.0798197 0.000474617 0)
(-0.0800721 0.000430212 0)
(-0.0802991 0.000385833 0)
(-0.0805007 0.000341355 0)
(-0.0806767 0.000296653 0)
(-0.0808271 0.0002516 0)
(-0.0809516 0.000206067 0)
(-0.0810499 0.000159924 0)
(-0.0811216 0.000113043 0)
(-0.0811662 6.52933e-05 0)
(-0.0811834 1.65458e-05 0)
(-0.0811724 -3.33273e-05 0)
(-0.0811326 -8.44523e-05 0)
(-0.0810634 -0.000136953 0)
(-0.0809638 -0.000190951 0)
(-0.0808331 -0.000246565 0)
(-0.0806704 -0.000303906 0)
(-0.0804746 -0.000363085 0)
(-0.0802448 -0.000424204 0)
(-0.0799798 -0.000487358 0)
(-0.0796786 -0.000552637 0)
(-0.0793399 -0.00062012 0)
(-0.0789625 -0.000689877 0)
(-0.0785452 -0.000761969 0)
(-0.0780867 -0.000836443 0)
(-0.0775857 -0.000913333 0)
(-0.0770409 -0.000992661 0)
(-0.076451 -0.00107443 0)
(-0.0758147 -0.00115863 0)
(-0.0751306 -0.00124523 0)
(-0.0743975 -0.00133418 0)
(-0.0736142 -0.00142541 0)
(-0.0727794 -0.00151882 0)
(-0.0718922 -0.0016143 0)
(-0.0709513 -0.0017117 0)
(-0.0699559 -0.00181085 0)
(-0.0689051 -0.00191156 0)
(-0.0677981 -0.00201359 0)
(-0.0666344 -0.00211669 0)
(-0.0654135 -0.00222056 0)
(-0.0641352 -0.00232488 0)
(-0.0627993 -0.0024293 0)
(-0.0614061 -0.00253341 0)
(-0.0599557 -0.00263679 0)
(-0.058449 -0.00273898 0)
(-0.0568866 -0.00283947 0)
(-0.0552698 -0.00293773 0)
(-0.0536 -0.00303318 0)
(-0.051879 -0.00312522 0)
(-0.0501089 -0.00321321 0)
(-0.0482922 -0.00329647 0)
(-0.0464317 -0.00337431 0)
(-0.0445307 -0.00344597 0)
(-0.0425928 -0.00351071 0)
(-0.0406221 -0.00356774 0)
(-0.038623 -0.00361625 0)
(-0.0366005 -0.00365542 0)
(-0.03456 -0.00368442 0)
(-0.0325072 -0.00370241 0)
(-0.0304485 -0.00370853 0)
(-0.0283904 -0.00370195 0)
(-0.0263402 -0.00368184 0)
(-0.0243054 -0.00364737 0)
(-0.022294 -0.00359776 0)
(-0.0203142 -0.00353226 0)
(-0.0183749 -0.00345016 0)
(-0.016485 -0.00335083 0)
(-0.0146539 -0.00323369 0)
(-0.0128909 -0.00309828 0)
(-0.0112059 -0.00294429 0)
(-0.00960838 -0.00277153 0)
(-0.00810808 -0.00258006 0)
(-0.00671438 -0.0023702 0)
(-0.00543628 -0.00214265 0)
(-0.00428216 -0.0018986 0)
(-0.00325945 -0.0016399 0)
(-0.00237425 -0.00136931 0)
(-0.00163085 -0.00109088 0)
(-0.00103105 -0.000810403 0)
(-0.000573376 -0.000536152 0)
(-0.000252036 -0.000279881 0)
(-5.58535e-05 -5.81533e-05 0)
(3.31891e-05 0.00010613 0)
(4.35654e-05 0.000181862 0)
(1.67352e-05 0.00012514 0)
(8.69666e-06 -0.000131046 0)
(4.49593e-06 -0.000164817 0)
(-6.07357e-05 -4.07039e-05 0)
(-0.000218717 0.000191252 0)
(-0.000492949 0.000495203 0)
(-0.000899415 0.000843899 0)
(-0.00144818 0.00121688 0)
(-0.0021445 0.00159907 0)
(-0.00298969 0.00197948 0)
(-0.00398196 0.00235014 0)
(-0.0051171 0.0027054 0)
(-0.00638902 0.00304127 0)
(-0.00779028 0.00335506 0)
(-0.00931245 0.00364506 0)
(-0.0109464 0.00391025 0)
(-0.0126826 0.00415019 0)
(-0.0145113 0.00436486 0)
(-0.0164227 0.00455456 0)
(-0.018407 0.00471982 0)
(-0.0204546 0.00486139 0)
(-0.0225562 0.00498013 0)
(-0.0247028 0.00507704 0)
(-0.0268857 0.00515317 0)
(-0.0290966 0.00520962 0)
(-0.0313276 0.00524756 0)
(-0.0335714 0.00526813 0)
(-0.035821 0.00527251 0)
(-0.0380698 0.00526186 0)
(-0.0403119 0.00523733 0)
(-0.0425416 0.00520005 0)
(-0.0447537 0.00515111 0)
(-0.0469436 0.00509158 0)
(-0.049107 0.00502249 0)
(-0.05124 0.00494482 0)
(-0.053339 0.00485952 0)
(-0.0554012 0.0047675 0)
(-0.0574236 0.00466961 0)
(-0.059404 0.00456665 0)
(-0.0613403 0.00445939 0)
(-0.0632307 0.00434853 0)
(-0.0650738 0.00423475 0)
(-0.0668683 0.00411866 0)
(-0.0686135 0.00400084 0)
(-0.0703086 0.00388181 0)
(-0.0719531 0.00376206 0)
(-0.0735466 0.00364203 0)
(-0.0750893 0.00352211 0)
(-0.076581 0.00340268 0)
(-0.0780219 0.00328404 0)
(-0.0794126 0.00316648 0)
(-0.0807533 0.00305026 0)
(-0.0820446 0.00293559 0)
(-0.0832873 0.00282266 0)
(-0.0844819 0.00271161 0)
(-0.0856294 0.00260258 0)
(-0.0867304 0.00249566 0)
(-0.087786 0.00239093 0)
(-0.0887969 0.00228844 0)
(-0.0897641 0.00218821 0)
(-0.0906886 0.00209025 0)
(-0.0915712 0.00199454 0)
(-0.0924129 0.00190106 0)
(-0.0932146 0.00180976 0)
(-0.0939772 0.00172056 0)
(-0.0947015 0.00163339 0)
(-0.0953883 0.00154816 0)
(-0.0960385 0.00146475 0)
(-0.0966527 0.00138305 0)
(-0.0972316 0.00130292 0)
(-0.0977758 0.00122424 0)
(-0.098286 0.00114684 0)
(-0.0987626 0.00107056 0)
(-0.0992061 0.000995254 0)
(-0.0996167 0.000920732 0)
(-0.0999948 0.000846817 0)
(-0.100341 0.000773324 0)
(-0.100654 0.000700062 0)
(-0.100936 0.000626836 0)
(-0.101185 0.000553446 0)
(-0.101402 0.000479688 0)
(-0.101587 0.000405358 0)
(-0.101739 0.000330248 0)
(-0.101858 0.000254149 0)
(-0.101943 0.000176854 0)
(-0.101994 9.81521e-05 0)
(-0.10201 1.78367e-05 0)
(-0.101991 -6.42983e-05 0)
(-0.101936 -0.000148456 0)
(-0.101843 -0.000234835 0)
(-0.101712 -0.000323631 0)
(-0.101542 -0.000415031 0)
(-0.101332 -0.000509218 0)
(-0.10108 -0.000606364 0)
(-0.100785 -0.000706633 0)
(-0.100447 -0.000810179 0)
(-0.100063 -0.00091714 0)
(-0.0996315 -0.00102764 0)
(-0.099152 -0.0011418 0)
(-0.0986225 -0.0012597 0)
(-0.0980415 -0.00138142 0)
(-0.0974075 -0.00150701 0)
(-0.0967188 -0.00163651 0)
(-0.0959738 -0.0017699 0)
(-0.095171 -0.00190718 0)
(-0.0943087 -0.00204828 0)
(-0.0933855 -0.00219312 0)
(-0.0923998 -0.00234159 0)
(-0.0913502 -0.00249351 0)
(-0.0902355 -0.00264871 0)
(-0.0890542 -0.00280693 0)
(-0.0878053 -0.00296791 0)
(-0.0864878 -0.00313132 0)
(-0.0851008 -0.00329677 0)
(-0.0836435 -0.00346386 0)
(-0.0821157 -0.0036321 0)
(-0.0805168 -0.00380097 0)
(-0.0788469 -0.00396988 0)
(-0.0771062 -0.0041382 0)
(-0.0752951 -0.00430523 0)
(-0.0734145 -0.00447022 0)
(-0.0714655 -0.00463236 0)
(-0.0694495 -0.00479078 0)
(-0.0673684 -0.00494457 0)
(-0.0652244 -0.00509274 0)
(-0.0630202 -0.00523427 0)
(-0.0607588 -0.00536806 0)
(-0.0584438 -0.00549299 0)
(-0.0560792 -0.00560789 0)
(-0.0536695 -0.00571153 0)
(-0.0512198 -0.00580265 0)
(-0.0487355 -0.00587999 0)
(-0.0462227 -0.00594221 0)
(-0.0436881 -0.00598801 0)
(-0.0411387 -0.00601604 0)
(-0.0385822 -0.00602497 0)
(-0.0360267 -0.00601347 0)
(-0.0334811 -0.00598023 0)
(-0.0309544 -0.005924 0)
(-0.0284563 -0.00584354 0)
(-0.025997 -0.0057377 0)
(-0.023587 -0.00560542 0)
(-0.0212371 -0.00544575 0)
(-0.0189584 -0.00525787 0)
(-0.0167624 -0.00504116 0)
(-0.0146605 -0.00479519 0)
(-0.0126642 -0.00451986 0)
(-0.0107848 -0.0042154 0)
(-0.00903322 -0.00388251 0)
(-0.00741999 -0.0035225 0)
(-0.00595471 -0.00313746 0)
(-0.0046458 -0.00273051 0)
(-0.00350015 -0.00230618 0)
(-0.0025225 -0.00187082 0)
(-0.00171489 -0.00143329 0)
(-0.00107585 -0.00100579 0)
(-0.000599556 -0.000605054 0)
(-0.000274825 -0.000253871 0)
(-8.38799e-05 1.72941e-05 0)
(-8.49926e-07 0.000168122 0)
(8.73897e-06 0.000141878 0)
(6.68516e-07 -0.00012585 0)
(-4.10586e-05 -0.000102894 0)
(-0.000181029 0.000112732 0)
(-0.000441991 0.000461982 0)
(-0.000843349 0.000901892 0)
(-0.00139968 0.00139913 0)
(-0.00212007 0.00192809 0)
(-0.00300905 0.00246938 0)
(-0.00406742 0.00300849 0)
(-0.0052929 0.00353465 0)
(-0.00668069 0.00403997 0)
(-0.00822406 0.00451879 0)
(-0.00991478 0.00496714 0)
(-0.0117435 0.0053824 0)
(-0.0137 0.00576295 0)
(-0.0157738 0.00610797 0)
(-0.0179537 0.00641725 0)
(-0.0202287 0.00669107 0)
(-0.0225877 0.00693008 0)
(-0.0250199 0.00713522 0)
(-0.0275145 0.00730763 0)
(-0.0300611 0.00744865 0)
(-0.0326499 0.00755972 0)
(-0.0352712 0.0076424 0)
(-0.0379159 0.00769827 0)
(-0.0405755 0.00772897 0)
(-0.0432418 0.00773616 0)
(-0.0459073 0.00772149 0)
(-0.0485649 0.00768659 0)
(-0.051208 0.00763308 0)
(-0.0538306 0.00756254 0)
(-0.0564272 0.0074765 0)
(-0.0589927 0.00737643 0)
(-0.0615226 0.00726378 0)
(-0.0640128 0.0071399 0)
(-0.0664596 0.00700611 0)
(-0.0688597 0.00686364 0)
(-0.0712104 0.00671368 0)
(-0.0735092 0.00655732 0)
(-0.075754 0.00639561 0)
(-0.077943 0.00622952 0)
(-0.0800749 0.00605995 0)
(-0.0821486 0.00588774 0)
(-0.084163 0.00571367 0)
(-0.0861178 0.00553844 0)
(-0.0880124 0.00536271 0)
(-0.0898468 0.00518705 0)
(-0.0916209 0.005012 0)
(-0.0933351 0.00483804 0)
(-0.0949896 0.00466557 0)
(-0.096585 0.00449498 0)
(-0.0981218 0.00432659 0)
(-0.0996009 0.00416065 0)
(-0.101023 0.00399742 0)
(-0.102389 0.00383707 0)
(-0.1037 0.00367975 0)
(-0.104957 0.00352558 0)
(-0.106161 0.00337462 0)
(-0.107312 0.00322693 0)
(-0.108413 0.00308252 0)
(-0.109464 0.00294136 0)
(-0.110467 0.00280341 0)
(-0.111421 0.00266861 0)
(-0.112329 0.00253686 0)
(-0.113191 0.00240804 0)
(-0.114008 0.00228203 0)
(-0.114782 0.00215866 0)
(-0.115512 0.00203776 0)
(-0.1162 0.00191915 0)
(-0.116847 0.00180262 0)
(-0.117453 0.00168795 0)
(-0.118019 0.00157491 0)
(-0.118545 0.00146327 0)
(-0.119031 0.00135276 0)
(-0.119479 0.00124313 0)
(-0.119888 0.00113411 0)
(-0.120258 0.00102542 0)
(-0.120589 0.000916773 0)
(-0.120883 0.000807881 0)
(-0.121137 0.000698449 0)
(-0.121352 0.000588178 0)
(-0.121529 0.000476767 0)
(-0.121665 0.000363913 0)
(-0.121761 0.000249312 0)
(-0.121816 0.000132663 0)
(-0.12183 1.36624e-05 0)
(-0.121801 -0.000107987 0)
(-0.121729 -0.000232579 0)
(-0.121612 -0.000360402 0)
(-0.121449 -0.000491737 0)
(-0.12124 -0.000626857 0)
(-0.120983 -0.000766023 0)
(-0.120676 -0.000909485 0)
(-0.120318 -0.00105748 0)
(-0.119907 -0.00121022 0)
(-0.119443 -0.00136792 0)
(-0.118922 -0.00153074 0)
(-0.118344 -0.00169886 0)
(-0.117707 -0.00187239 0)
(-0.117009 -0.00205144 0)
(-0.116247 -0.00223608 0)
(-0.115421 -0.00242635 0)
(-0.114528 -0.00262225 0)
(-0.113567 -0.00282374 0)
(-0.112535 -0.00303073 0)
(-0.111431 -0.0032431 0)
(-0.110254 -0.00346066 0)
(-0.109 -0.00368318 0)
(-0.10767 -0.00391037 0)
(-0.106262 -0.00414187 0)
(-0.104774 -0.00437729 0)
(-0.103205 -0.00461613 0)
(-0.101554 -0.00485784 0)
(-0.0998207 -0.00510182 0)
(-0.0980042 -0.00534735 0)
(-0.0961043 -0.00559368 0)
(-0.0941209 -0.00583994 0)
(-0.0920544 -0.00608521 0)
(-0.0899054 -0.00632848 0)
(-0.0876748 -0.00656864 0)
(-0.085364 -0.00680453 0)
(-0.0829747 -0.00703488 0)
(-0.0805092 -0.00725835 0)
(-0.0779701 -0.00747353 0)
(-0.0753605 -0.00767893 0)
(-0.0726841 -0.00787296 0)
(-0.0699451 -0.008054 0)
(-0.0671481 -0.00822034 0)
(-0.0642985 -0.00837023 0)
(-0.0614022 -0.00850186 0)
(-0.0584656 -0.00861339 0)
(-0.0554958 -0.00870293 0)
(-0.0525004 -0.00876859 0)
(-0.0494879 -0.00880845 0)
(-0.046467 -0.0088206 0)
(-0.0434473 -0.00880318 0)
(-0.0404389 -0.00875432 0)
(-0.0374524 -0.00867225 0)
(-0.0344989 -0.00855526 0)
(-0.0315902 -0.00840176 0)
(-0.0287382 -0.00821028 0)
(-0.0259554 -0.00797955 0)
(-0.0232547 -0.00770851 0)
(-0.0206488 -0.00739637 0)
(-0.0181509 -0.00704269 0)
(-0.0157739 -0.00664746 0)
(-0.0135305 -0.00621121 0)
(-0.0114331 -0.00573515 0)
(-0.00949323 -0.00522134 0)
(-0.00772162 -0.00467295 0)
(-0.00612761 -0.0040946 0)
(-0.00471881 -0.00349274 0)
(-0.00350057 -0.00287624 0)
(-0.00247546 -0.00225711 0)
(-0.0016426 -0.00165149 0)
(-0.000996931 -0.0010809 0)
(-0.00052835 -0.000573808 0)
(-0.000220677 -0.000167387 0)
(-5.27529e-05 9.0271e-05 0)
(-4.34333e-07 0.000132719 0)
(-7.72316e-06 -9.57854e-05 0)
(-8.9987e-05 2.18385e-05 0)
(-0.000311402 0.000359959 0)
(-0.000684125 0.000853186 0)
(-0.00122222 0.00145289 0)
(-0.00193795 0.00212063 0)
(-0.00283864 0.00282623 0)
(-0.0039275 0.00354638 0)
(-0.00520429 0.00426326 0)
(-0.00666592 0.00496332 0)
(-0.00830686 0.00563645 0)
(-0.0101196 0.00627522 0)
(-0.0120952 0.00687432 0)
(-0.0142233 0.00743011 0)
(-0.0164929 0.00794029 0)
(-0.0188924 0.00840357 0)
(-0.0214098 0.00881951 0)
(-0.0240327 0.00918831 0)
(-0.0267491 0.0095107 0)
(-0.0295469 0.00978779 0)
(-0.0324142 0.010021 0)
(-0.0353396 0.0102121 0)
(-0.0383119 0.0103628 0)
(-0.0413204 0.0104753 0)
(-0.0443549 0.0105515 0)
(-0.0474059 0.0105936 0)
(-0.0504642 0.0106039 0)
(-0.0535212 0.0105845 0)
(-0.0565691 0.0105376 0)
(-0.0596004 0.0104654 0)
(-0.0626082 0.0103699 0)
(-0.0655863 0.0102533 0)
(-0.068529 0.0101175 0)
(-0.071431 0.00996448 0)
(-0.0742878 0.00979607 0)
(-0.0770951 0.00961403 0)
(-0.0798493 0.00942006 0)
(-0.0825471 0.00921575 0)
(-0.0851856 0.00900261 0)
(-0.0877626 0.00878205 0)
(-0.090276 0.00855539 0)
(-0.092724 0.00832387 0)
(-0.0951055 0.00808863 0)
(-0.0974195 0.00785073 0)
(-0.0996651 0.00761114 0)
(-0.101842 0.00737075 0)
(-0.10395 0.00713036 0)
(-0.105989 0.0068907 0)
(-0.107959 0.00665241 0)
(-0.109861 0.00641609 0)
(-0.111695 0.00618223 0)
(-0.113462 0.00595128 0)
(-0.115163 0.00572362 0)
(-0.116799 0.00549957 0)
(-0.11837 0.00527938 0)
(-0.119878 0.00506326 0)
(-0.121323 0.00485137 0)
(-0.122708 0.00464382 0)
(-0.124033 0.00444067 0)
(-0.125299 0.00424194 0)
(-0.126508 0.00404761 0)
(-0.12766 0.00385763 0)
(-0.128758 0.00367189 0)
(-0.129801 0.00349028 0)
(-0.130792 0.00331265 0)
(-0.131732 0.0031388 0)
(-0.13262 0.00296854 0)
(-0.133459 0.00280162 0)
(-0.13425 0.0026378 0)
(-0.134992 0.0024768 0)
(-0.135687 0.00231832 0)
(-0.136335 0.00216205 0)
(-0.136938 0.00200767 0)
(-0.137495 0.00185482 0)
(-0.138006 0.00170316 0)
(-0.138473 0.00155232 0)
(-0.138895 0.00140192 0)
(-0.139273 0.00125157 0)
(-0.139606 0.00110089 0)
(-0.139894 0.000949459 0)
(-0.140136 0.000796886 0)
(-0.140334 0.000642759 0)
(-0.140485 0.000486666 0)
(-0.14059 0.000328196 0)
(-0.140647 0.000166938 0)
(-0.140657 2.48305e-06 0)
(-0.140617 -0.000165572 0)
(-0.140527 -0.000337625 0)
(-0.140385 -0.000514067 0)
(-0.140191 -0.000695276 0)
(-0.139943 -0.000881622 0)
(-0.13964 -0.00107346 0)
(-0.139279 -0.00127112 0)
(-0.13886 -0.00147492 0)
(-0.13838 -0.00168515 0)
(-0.137838 -0.00190209 0)
(-0.137232 -0.00212598 0)
(-0.13656 -0.00235701 0)
(-0.135819 -0.00259537 0)
(-0.135009 -0.00284119 0)
(-0.134126 -0.00309456 0)
(-0.133169 -0.00335553 0)
(-0.132136 -0.00362408 0)
(-0.131025 -0.00390016 0)
(-0.129833 -0.00418364 0)
(-0.128558 -0.00447435 0)
(-0.1272 -0.00477203 0)
(-0.125755 -0.00507635 0)
(-0.124222 -0.00538692 0)
(-0.1226 -0.00570325 0)
(-0.120887 -0.00602478 0)
(-0.119082 -0.00635084 0)
(-0.117184 -0.00668068 0)
(-0.115192 -0.00701347 0)
(-0.113105 -0.00734824 0)
(-0.110924 -0.00768394 0)
(-0.108647 -0.00801941 0)
(-0.106276 -0.00835339 0)
(-0.103812 -0.0086845 0)
(-0.101254 -0.00901125 0)
(-0.0986059 -0.00933204 0)
(-0.0958685 -0.00964516 0)
(-0.0930446 -0.0099488 0)
(-0.0901372 -0.010241 0)
(-0.0871499 -0.0105198 0)
(-0.0840868 -0.0107831 0)
(-0.0809527 -0.0110286 0)
(-0.0777529 -0.011254 0)
(-0.0744935 -0.011457 0)
(-0.071181 -0.0116352 0)
(-0.0678228 -0.011786 0)